/*--------------------------------*- C++ -*----------------------------------*\
| =========                 |                                                 |
| \\      /  F ield         | OpenFOAM: The Open Source CFD Toolbox           |
|  \\    /   O peration     | Version:  4.1                                   |
|   \\  /    A nd           | Web:      www.OpenFOAM.org                      |
|    \\/     M anipulation  |                                                 |
\*---------------------------------------------------------------------------*/
FoamFile
{
    version     2.0;
    format      ascii;
    class       surfaceScalarField;
    location    "0.0095";
    object      phi;
}
// * * * * * * * * * * * * * * * * * * * * * * * * * * * * * * * * * * * * * //

dimensions      [0 3 -1 0 0 0 0];

internalField   nonuniform List<scalar> 
4288
(
-4.6818e-08
-3.6776e-10
-3.6802e-10
4.4702e-10
4.4659e-10
-4.7207e-08
-2.5801e-10
-2.5825e-10
2.7154e-10
2.7108e-10
-4.7627e-08
-1.6246e-10
-1.6267e-10
1.2839e-10
1.2782e-10
-4.8028e-08
-1.0756e-10
-1.0775e-10
5.0727e-11
5.0318e-11
-4.8362e-08
-8.1389e-11
-8.1509e-11
3.0932e-11
3.0268e-11
-4.8603e-08
-6.6895e-11
-6.7338e-11
6.523e-11
6.4227e-11
-4.862e-08
2.8511e-11
2.752e-11
4.6594e-12
3.4611e-12
-4.8317e-08
-9.7787e-11
-9.8936e-11
1.643e-10
1.6285e-10
-4.7693e-08
-2.8122e-10
-2.8301e-10
4.2348e-10
4.2196e-10
-4.6651e-08
-4.601e-10
-4.6261e-10
6.6793e-10
6.6672e-10
-4.5164e-08
-6.4648e-10
-6.493e-10
9.4108e-10
9.3915e-10
-8.4098e-10
-8.4452e-10
1.2205e-09
1.218e-09
-4.6847e-08
-2.3861e-10
-3.2748e-10
3.8516e-10
-4.7256e-08
-1.4952e-10
-1.5651e-10
9.2377e-11
-4.7685e-08
-8.3374e-11
-7.7629e-12
-1.3346e-10
-4.8086e-08
-6.2617e-11
7.5952e-11
-2.348e-10
-4.8412e-08
-8.7155e-11
8.4982e-11
-1.7926e-10
-4.8635e-08
-1.4352e-10
1.8214e-11
5.9661e-11
-4.8615e-08
-1.3904e-10
-4.6738e-11
2.8777e-10
-4.8303e-08
-2.8685e-10
-2.0533e-10
5.9359e-10
-4.7656e-08
-4.2821e-10
-4.1759e-10
9.3885e-10
-4.6597e-08
-6.0323e-10
-6.5162e-10
1.3478e-09
-4.509e-08
-7.6772e-10
-9.1656e-10
1.8066e-09
-9.5794e-10
-1.1886e-09
2.2954e-09
-4.6859e-08
-1.2377e-10
-3.2792e-10
4.1615e-10
-4.7279e-08
-8.3333e-11
-1.5078e-10
1.3617e-10
-4.7711e-08
-5.6423e-11
-9.2488e-12
-7.9856e-11
-4.8112e-08
-5.2674e-11
5.1964e-11
-1.78e-10
-4.8431e-08
-7.0855e-11
2.6312e-11
-1.4483e-10
-4.8624e-08
-1.0795e-10
-8.8558e-11
4.2058e-11
-4.8601e-08
-1.2918e-10
-2.2043e-10
3.1739e-10
-4.8296e-08
-1.6347e-10
-4.0273e-10
5.4727e-10
-4.7639e-08
-2.4183e-10
-6.3328e-10
9.0272e-10
-4.6575e-08
-3.2089e-10
-9.0423e-10
1.2958e-09
-4.5054e-08
-4.14e-10
-1.1776e-09
1.7398e-09
-4.9966e-10
-1.4953e-09
2.223e-09
-4.6869e-08
-4.2602e-14
-3.2303e-10
4.1129e-10
-4.7293e-08
-1.4484e-13
-1.2625e-10
9.8594e-11
-4.7728e-08
-2.7981e-13
3.3237e-11
-1.5032e-10
-4.813e-08
-3.6906e-13
1.0983e-10
-2.7806e-10
-4.8447e-08
-4.2662e-13
9.3427e-11
-2.6426e-10
-4.863e-08
-4.8302e-13
-1.7916e-11
-9.9721e-11
-4.8609e-08
-4.2668e-13
-1.6168e-10
1.6179e-10
-4.8298e-08
-8.7362e-14
-3.9608e-10
5.2804e-10
-4.7635e-08
-2.3182e-13
-6.3622e-10
8.9213e-10
-4.6564e-08
-2.6636e-13
-9.0198e-10
1.3144e-09
-4.5041e-08
-1.6282e-13
-1.2126e-09
1.7971e-09
-1.3738e-13
-1.5443e-09
2.3295e-09
-4.6869e-08
1.2369e-10
-3.23e-10
4.1124e-10
-4.7293e-08
8.309e-11
-1.2618e-10
9.8458e-11
-4.7728e-08
5.5956e-11
3.3326e-11
-1.5053e-10
-4.813e-08
5.2038e-11
1.0992e-10
-2.783e-10
-4.8447e-08
7.0079e-11
9.3519e-11
-2.6449e-10
-4.863e-08
1.0708e-10
-1.779e-11
-1.0004e-10
-4.8609e-08
1.2846e-10
-1.6165e-10
1.6149e-10
-4.8298e-08
1.638e-10
-3.9606e-10
5.2754e-10
-4.7635e-08
2.4176e-10
-6.3601e-10
8.9142e-10
-4.6564e-08
3.2062e-10
-9.017e-10
1.3137e-09
-4.5041e-08
4.1402e-10
-1.2123e-09
1.7965e-09
4.9976e-10
-1.5439e-09
2.3287e-09
-4.686e-08
2.3858e-10
-3.2782e-10
4.1597e-10
-4.7279e-08
1.495e-10
-1.5056e-10
1.3565e-10
-4.7711e-08
8.3213e-11
-8.9717e-12
-8.0551e-11
-4.8112e-08
6.2362e-11
5.2212e-11
-1.7879e-10
-4.8431e-08
8.6798e-11
2.6491e-11
-1.4559e-10
-4.8624e-08
1.4313e-10
-8.8261e-11
4.1019e-11
-4.8601e-08
1.3844e-10
-2.1967e-10
3.1609e-10
-4.8296e-08
2.8606e-10
-4.0346e-10
5.4917e-10
-4.7639e-08
4.2801e-10
-6.3278e-10
9.02e-10
-4.6576e-08
6.0352e-10
-9.0369e-10
1.2945e-09
-4.5054e-08
7.6809e-10
-1.1769e-09
1.7385e-09
9.5853e-10
-1.4946e-09
2.2216e-09
-4.6847e-08
3.678e-10
-3.2732e-10
3.8484e-10
-4.7256e-08
2.583e-10
-1.5627e-10
9.1704e-11
-4.7685e-08
1.6274e-10
-7.4703e-12
-1.3441e-10
-4.8086e-08
1.079e-10
7.6225e-11
-2.3593e-10
-4.8412e-08
8.1752e-11
8.5226e-11
-1.8053e-10
-4.8635e-08
6.7204e-11
1.8794e-11
5.8001e-11
-4.8615e-08
-2.8361e-11
-4.6005e-11
2.8558e-10
-4.8303e-08
9.767e-11
-2.0499e-10
5.9243e-10
-4.7656e-08
2.8142e-10
-4.1715e-10
9.378e-10
-4.6597e-08
4.6066e-10
-6.5096e-10
1.3464e-09
-4.509e-08
6.4716e-10
-9.1598e-10
1.8056e-09
8.4161e-10
-1.1881e-09
2.2946e-09
-4.6818e-08
-3.6787e-10
4.4651e-10
4.4684e-10
-4.7207e-08
-2.5816e-10
2.7081e-10
2.7187e-10
-4.7627e-08
-1.6257e-10
1.2731e-10
1.2878e-10
-4.8028e-08
-1.0784e-10
4.9998e-11
5.1087e-11
-4.8362e-08
-8.1971e-11
3.0617e-11
3.1046e-11
-4.8603e-08
-6.7665e-11
6.4906e-11
6.4771e-11
-4.862e-08
2.7533e-11
3.9238e-12
3.6338e-12
-4.8317e-08
-9.8922e-11
1.6359e-10
1.6307e-10
-4.7693e-08
-2.8322e-10
4.2341e-10
4.2211e-10
-4.6651e-08
-4.6301e-10
6.6825e-10
6.6728e-10
-4.5164e-08
-6.4933e-10
9.4098e-10
9.3961e-10
-8.4472e-10
1.2206e-09
1.2184e-09
-4.6847e-08
-3.2721e-10
-2.3875e-10
3.8491e-10
-4.7257e-08
-1.5632e-10
-1.4965e-10
9.2002e-11
-4.7685e-08
-7.597e-12
-8.351e-11
-1.339e-10
-4.8087e-08
7.6133e-11
-6.2744e-11
-2.3527e-10
-4.8413e-08
8.5242e-11
-8.7267e-11
-1.7961e-10
-4.8636e-08
1.8806e-11
-1.4396e-10
5.9237e-11
-4.8616e-08
-4.5618e-11
-1.3948e-10
2.8653e-10
-4.8304e-08
-2.0381e-10
-2.8754e-10
5.9261e-10
-4.7657e-08
-4.1558e-10
-4.2949e-10
9.3775e-10
-4.6598e-08
-6.4897e-10
-6.0495e-10
1.3466e-09
-4.5091e-08
-9.1315e-10
-7.6992e-10
1.8055e-09
-1.1848e-09
-9.6044e-10
2.2942e-09
-4.6841e-08
-2.2866e-10
-2.289e-10
-4.7239e-08
-1.1442e-10
-1.1454e-10
-4.7647e-08
-1.24e-11
-1.2463e-11
-4.8025e-08
4.7712e-11
4.7647e-11
-4.8329e-08
6.0879e-11
6.075e-11
-4.8523e-08
3.1328e-11
3.0873e-11
-4.8454e-08
-2.1825e-11
-2.2935e-11
-4.8116e-08
-1.2645e-10
-1.2772e-10
-4.7444e-08
-2.7444e-10
-2.7657e-10
-4.6372e-08
-4.4153e-10
-4.4441e-10
-4.4849e-08
-6.3293e-10
-6.3652e-10
-8.2318e-10
-8.276e-10
-4.6846e-08
-1.1887e-10
-2.2972e-10
-4.7249e-08
-6.5561e-11
-1.085e-10
-4.7657e-08
-2.0256e-11
-7.6983e-12
-4.8031e-08
3.3394e-12
4.1386e-11
-4.8326e-08
3.9724e-12
3.4346e-11
-4.8492e-08
-1.5872e-11
-2.7235e-11
-4.8428e-08
-4.2776e-11
-1.2097e-10
-4.8088e-08
-7.7462e-11
-2.5933e-10
-4.7407e-08
-1.5368e-10
-4.2645e-10
-4.6328e-08
-2.478e-10
-6.1645e-10
-4.4797e-08
-3.39e-10
-8.2563e-10
-4.3952e-10
-1.0467e-09
-4.685e-08
-2.1697e-14
-2.2822e-10
-4.7255e-08
-7.2787e-14
-9.7555e-11
-4.7663e-08
-1.3906e-13
8.6147e-12
-4.8037e-08
-1.9016e-13
5.9635e-11
-4.8328e-08
-2.2259e-13
5.0405e-11
-4.8488e-08
-2.1743e-13
-1.6954e-11
-4.8419e-08
-1.5511e-13
-1.1623e-10
-4.8077e-08
1.9323e-13
-2.6235e-10
-4.7392e-08
4.5647e-14
-4.3525e-10
-4.6306e-08
1.7215e-14
-6.3387e-10
-4.4771e-08
8.9548e-14
-8.5815e-10
1.4354e-13
-1.0934e-09
-4.685e-08
1.1883e-10
-2.2819e-10
-4.7255e-08
6.5435e-11
-9.7508e-11
-4.7663e-08
2.0008e-11
8.6708e-12
-4.8037e-08
-3.6684e-12
5.9687e-11
-4.8328e-08
-4.3755e-12
5.0452e-11
-4.8488e-08
1.5463e-11
-1.687e-11
-4.8419e-08
4.2363e-11
-1.1617e-10
-4.8077e-08
7.797e-11
-2.6238e-10
-4.7392e-08
1.5385e-10
-4.3515e-10
-4.6306e-08
2.4786e-10
-6.3367e-10
-4.4771e-08
3.3927e-10
-8.5795e-10
4.3989e-10
-1.0932e-09
-4.6846e-08
2.2865e-10
-2.2966e-10
-4.7249e-08
1.144e-10
-1.084e-10
-4.7657e-08
1.229e-11
-7.5825e-12
-4.8031e-08
-4.7897e-11
4.1476e-11
-4.8326e-08
-6.1184e-11
3.4392e-11
-4.8492e-08
-3.1675e-11
-2.7044e-11
-4.8428e-08
2.1739e-11
-1.2075e-10
-4.8088e-08
1.2615e-10
-2.591e-10
-4.7407e-08
2.7441e-10
-4.2601e-10
-4.6328e-08
4.4175e-10
-6.1604e-10
-4.4797e-08
6.3328e-10
-8.2514e-10
8.2368e-10
-1.0462e-09
-4.6841e-08
3.272e-10
-2.288e-10
-4.7239e-08
1.5637e-10
-1.1442e-10
-4.7647e-08
7.6016e-12
-1.236e-11
-4.8025e-08
-7.6179e-11
4.77e-11
-4.8329e-08
-8.5444e-11
6.0774e-11
-4.8523e-08
-1.9011e-11
3.109e-11
-4.8454e-08
4.5478e-11
-2.2417e-11
-4.8116e-08
2.0352e-10
-1.2742e-10
-4.7445e-08
4.1594e-10
-2.7644e-10
-4.6372e-08
6.4914e-10
-4.4404e-10
-4.4849e-08
9.1341e-10
-6.3597e-10
1.1851e-09
-8.2699e-10
-4.6847e-08
-2.3869e-10
3.8492e-10
-4.7257e-08
-1.4965e-10
9.203e-11
-4.7685e-08
-8.356e-11
-1.3392e-10
-4.8087e-08
-6.2947e-11
-2.3538e-10
-4.8413e-08
-8.7587e-11
-1.8025e-10
-4.8636e-08
-1.44e-10
5.8376e-11
-4.8616e-08
-1.3958e-10
2.8612e-10
-4.8304e-08
-2.8713e-10
5.9181e-10
-4.7657e-08
-4.2901e-10
9.3687e-10
-4.6598e-08
-6.0472e-10
1.346e-09
-4.5091e-08
-7.6947e-10
1.8051e-09
-9.6003e-10
2.2937e-09
-4.686e-08
-3.2774e-10
-1.2383e-10
4.1608e-10
-4.7279e-08
-1.5059e-10
-8.3488e-11
1.3593e-10
-4.7712e-08
-9.0762e-12
-5.6629e-11
-8.0178e-11
-4.8113e-08
5.2153e-11
-5.2902e-11
-1.7833e-10
-4.8432e-08
2.6491e-11
-7.1121e-11
-1.4492e-10
-4.8625e-08
-8.8062e-11
-1.0829e-10
4.1648e-11
-4.8602e-08
-2.193e-10
-1.2963e-10
3.1673e-10
-4.8297e-08
-4.0198e-10
-1.6408e-10
5.4769e-10
-4.7641e-08
-6.3196e-10
-2.4229e-10
9.0229e-10
-4.6577e-08
-9.0231e-10
-3.2133e-10
1.2952e-09
-4.5056e-08
-1.1755e-09
-4.1429e-10
1.7393e-09
-1.4927e-09
-5.0005e-10
2.2226e-09
-4.6846e-08
-2.2947e-10
-1.1898e-10
-4.7249e-08
-1.0838e-10
-6.57e-11
-4.7657e-08
-7.6508e-12
-2.0418e-11
-4.8032e-08
4.1462e-11
3.1569e-12
-4.8327e-08
3.4517e-11
3.7429e-12
-4.8494e-08
-2.6632e-11
-1.6215e-11
-4.843e-08
-1.199e-10
-4.3241e-11
-4.8089e-08
-2.5776e-10
-7.8296e-11
-4.7409e-08
-4.2416e-10
-1.5458e-10
-4.6329e-08
-6.1356e-10
-2.4893e-10
-4.4799e-08
-8.2184e-10
-3.4029e-10
-1.0423e-09
-4.4102e-10
-4.6852e-08
-1.1878e-10
-1.1895e-10
-4.7263e-08
-5.8593e-11
-5.8715e-11
-4.7675e-08
-8.5659e-12
-8.6685e-12
-4.805e-08
1.5739e-11
1.5607e-11
-4.834e-08
1.2095e-11
1.1899e-11
-4.8491e-08
-1.8632e-11
-1.9078e-11
-4.8421e-08
-6.8573e-11
-6.9317e-11
-4.8074e-08
-1.4107e-10
-1.4216e-10
-4.7385e-08
-2.3009e-10
-2.3158e-10
-4.6295e-08
-3.3119e-10
-3.3307e-10
-4.4763e-08
-4.4021e-10
-4.4258e-10
-5.5709e-10
-5.5989e-10
-4.6856e-08
-1.7083e-16
-1.1855e-10
-4.7271e-08
-4.0728e-14
-5.3185e-11
-4.7685e-08
-1.0735e-13
-2.2331e-13
-4.8061e-08
-1.4259e-13
2.5052e-11
-4.835e-08
-1.6133e-13
2.0043e-11
-4.8497e-08
-1.3065e-13
-1.4216e-11
-4.8423e-08
-4.7651e-14
-6.8028e-11
-4.8072e-08
7.0267e-14
-1.4573e-10
-4.7378e-08
1.2455e-13
-2.3948e-10
-4.6284e-08
2.4496e-13
-3.4674e-10
-4.4747e-08
3.1584e-13
-4.6572e-10
3.995e-13
-5.9157e-10
-4.6856e-08
1.1879e-10
-1.1853e-10
-4.7271e-08
5.8528e-11
-5.3156e-11
-4.7685e-08
8.3766e-12
-1.9381e-13
-4.8061e-08
-1.5999e-11
2.508e-11
-4.835e-08
-1.2397e-11
2.0066e-11
-4.8497e-08
1.8387e-11
-1.4159e-11
-4.8423e-08
6.8471e-11
-6.7971e-11
-4.8072e-08
1.4114e-10
-1.4569e-10
-4.7378e-08
2.3032e-10
-2.3938e-10
-4.6284e-08
3.3173e-10
-3.466e-10
-4.4747e-08
4.4088e-10
-4.6556e-10
5.5793e-10
-5.9139e-10
-4.6852e-08
2.2948e-10
-1.189e-10
-4.7263e-08
1.0835e-10
-5.8649e-11
-4.7675e-08
7.5065e-12
-8.6081e-12
-4.805e-08
-4.1682e-11
1.5649e-11
-4.8341e-08
-3.4824e-11
1.1932e-11
-4.8491e-08
2.6421e-11
-1.8946e-11
-4.8421e-08
1.198e-10
-6.9131e-11
-4.8075e-08
2.5776e-10
-1.4187e-10
-4.7385e-08
4.2434e-10
-2.3121e-10
-4.6295e-08
6.1417e-10
-3.3266e-10
-4.4763e-08
8.2241e-10
-4.4207e-10
1.043e-09
-5.5932e-10
-4.6846e-08
3.2775e-10
-1.1889e-10
-4.7249e-08
1.5057e-10
-6.5617e-11
-4.7657e-08
8.9588e-12
-2.0366e-11
-4.8032e-08
-5.2356e-11
3.166e-12
-4.8327e-08
-2.6839e-11
3.7687e-12
-4.8494e-08
8.7836e-11
-1.6054e-11
-4.843e-08
2.193e-10
-4.2861e-11
-4.8089e-08
4.0214e-10
-7.8293e-11
-4.7409e-08
6.3203e-10
-1.5419e-10
-4.6329e-08
9.024e-10
-2.4831e-10
-4.4799e-08
1.1758e-09
-3.3944e-10
1.493e-09
-4.3998e-10
-4.686e-08
-1.2376e-10
4.1607e-10
-4.728e-08
-8.3415e-11
1.3578e-10
-4.7712e-08
-5.6588e-11
-8.0441e-11
-4.8113e-08
-5.2939e-11
-1.7876e-10
-4.8432e-08
-7.1153e-11
-1.457e-10
-4.8625e-08
-1.0815e-10
4.1123e-11
-4.8602e-08
-1.2911e-10
3.1597e-10
-4.8297e-08
-1.6379e-10
5.4797e-10
-4.764e-08
-2.4174e-10
9.0194e-10
-4.6577e-08
-3.2061e-10
1.2948e-09
-4.5056e-08
-4.1352e-10
1.7392e-09
-4.9908e-10
2.2221e-09
-4.6869e-08
-3.2293e-10
-1.3075e-13
4.1128e-10
-4.7294e-08
-1.2614e-10
-3.3447e-13
9.8508e-11
-4.7728e-08
3.3348e-11
-5.4074e-13
-1.5043e-10
-4.813e-08
1.0995e-10
-6.9265e-13
-2.7813e-10
-4.8447e-08
9.3539e-11
-8.0333e-13
-2.6419e-10
-4.8631e-08
-1.7587e-11
-9.0664e-13
-9.9855e-11
-4.8609e-08
-1.612e-10
-8.9813e-13
1.615e-10
-4.8298e-08
-3.9522e-10
-6.422e-13
5.2763e-10
-4.7635e-08
-6.3527e-10
-6.8332e-13
8.9172e-10
-4.6564e-08
-9.0077e-10
-6.8571e-13
1.314e-09
-4.5041e-08
-1.2111e-09
-5.8918e-13
1.7969e-09
-1.5427e-09
-4.5052e-13
2.3294e-09
-4.685e-08
-2.2803e-10
-1.0338e-13
-4.7255e-08
-9.7449e-11
-2.439e-13
-4.7664e-08
8.6745e-12
-3.6468e-13
-4.8037e-08
5.9723e-11
-4.4713e-13
-4.8329e-08
5.0562e-11
-5.1257e-13
-4.8489e-08
-1.6457e-11
-5.86e-13
-4.842e-08
-1.154e-10
-5.9623e-13
-4.8077e-08
-2.6108e-10
-3.1838e-13
-4.7392e-08
-4.3341e-10
-4.6941e-13
-4.6306e-08
-6.3165e-10
-5.3827e-13
-4.4772e-08
-8.5518e-10
-4.7232e-13
-1.0901e-09
-4.5839e-13
-4.6856e-08
-1.1839e-10
-8.8342e-14
-4.7271e-08
-5.3073e-11
-1.9189e-13
-4.7685e-08
-1.3652e-13
-2.9094e-13
-4.8061e-08
2.5174e-11
-3.6244e-13
-4.835e-08
2.0264e-11
-4.1299e-13
-4.8497e-08
-1.3754e-11
-4.8338e-13
-4.8424e-08
-6.7277e-11
-5.0112e-13
-4.8072e-08
-1.4462e-10
-4.6262e-13
-4.7378e-08
-2.3792e-10
-5.1549e-13
-4.6285e-08
-3.448e-10
-4.7231e-13
-4.4748e-08
-4.6323e-10
-4.9794e-13
-5.8869e-10
-4.7533e-13
-4.6861e-08
1.5055e-14
-8.1514e-14
-4.7282e-08
-1.9468e-14
-1.6018e-13
-4.77e-08
-8.0143e-14
-2.4251e-13
-4.8078e-08
-1.1198e-13
-3.098e-13
-4.8367e-08
-1.1906e-13
-3.6104e-13
-4.8511e-08
-5.4006e-14
-4.2327e-13
-4.8435e-08
3.6009e-14
-4.5647e-13
-4.8079e-08
1.565e-13
-4.6574e-13
-4.7381e-08
2.4959e-13
-5.3218e-13
-4.6283e-08
4.245e-13
-4.7607e-13
-4.4743e-08
5.1676e-13
-5.6645e-13
6.3079e-13
-5.4656e-13
-4.6861e-08
1.1843e-10
-7.2125e-14
-4.7282e-08
5.3043e-11
-1.4003e-13
-4.77e-08
-1.6597e-14
-2.1975e-13
-4.8078e-08
-2.5388e-11
-2.9008e-13
-4.8367e-08
-2.0497e-11
-3.4141e-13
-4.8511e-08
1.3671e-11
-3.8565e-13
-4.8435e-08
6.7374e-11
-4.202e-13
-4.8079e-08
1.4495e-10
-4.4249e-13
-4.7381e-08
2.3848e-10
-5.0898e-13
-4.6283e-08
3.4579e-10
-4.4881e-13
-4.4743e-08
4.6438e-10
-5.3137e-13
5.9011e-10
-5.2383e-13
-4.6856e-08
2.2807e-10
-3.3014e-14
-4.7272e-08
9.7442e-11
-1.4313e-13
-4.7685e-08
-8.8032e-12
-2.5301e-13
-4.8061e-08
-5.9923e-11
-3.2905e-13
-4.835e-08
-5.0817e-11
-3.6794e-13
-4.8497e-08
1.6395e-11
-3.4892e-13
-4.8424e-08
1.1547e-10
-2.9387e-13
-4.8072e-08
2.615e-10
-2.3442e-13
-4.7378e-08
4.3395e-10
-2.0439e-13
-4.6285e-08
6.3269e-10
-1.768e-14
-4.4748e-08
8.5623e-10
6.0467e-14
1.0914e-09
1.8084e-13
-4.685e-08
3.2295e-10
1.5014e-14
-4.7255e-08
1.2615e-10
-1.6946e-13
-4.7664e-08
-3.3444e-11
-3.3463e-13
-4.8037e-08
-1.1013e-10
-4.3358e-13
-4.8329e-08
-9.3823e-11
-4.5731e-13
-4.8489e-08
1.7487e-11
-3.6432e-13
-4.842e-08
1.6125e-10
-1.3329e-13
-4.8077e-08
3.9533e-10
-6.8173e-14
-4.7393e-08
6.3578e-10
1.4223e-13
-4.6306e-08
9.0123e-10
5.2228e-13
-4.4772e-08
1.2118e-09
8.8012e-13
1.5434e-09
1.2146e-12
-4.6869e-08
-6.2433e-15
4.1126e-10
-4.7294e-08
-2.2915e-13
9.8505e-11
-4.7729e-08
-4.4882e-13
-1.5053e-10
-4.813e-08
-6.0794e-13
-2.7839e-10
-4.8447e-08
-6.6311e-13
-2.6466e-10
-4.8631e-08
-5.7771e-13
-1.0012e-10
-4.8609e-08
-3.7763e-13
1.6166e-10
-4.8299e-08
-1.8793e-13
5.2771e-10
-4.7635e-08
1.5487e-13
8.9175e-10
-4.6565e-08
4.8577e-13
1.3141e-09
-4.5041e-08
8.2626e-13
1.7969e-09
1.2788e-12
2.3293e-09
-4.6869e-08
-3.2288e-10
1.2362e-10
4.1117e-10
-4.7294e-08
-1.2606e-10
8.2935e-11
9.8314e-11
-4.7728e-08
3.3417e-11
5.5706e-11
-1.5065e-10
-4.813e-08
1.1002e-10
5.1693e-11
-2.7837e-10
-4.8447e-08
9.3628e-11
6.9642e-11
-2.6441e-10
-4.8631e-08
-1.7469e-11
1.066e-10
-1.001e-10
-4.8609e-08
-1.6115e-10
1.2797e-10
1.6125e-10
-4.8299e-08
-3.9519e-10
1.631e-10
5.2735e-10
-4.7635e-08
-6.3507e-10
2.4127e-10
8.9114e-10
-4.6564e-08
-9.0056e-10
3.202e-10
1.3135e-09
-4.5041e-08
-1.211e-09
4.1373e-10
1.7962e-09
-1.5424e-09
4.9942e-10
2.3287e-09
-4.685e-08
-2.2802e-10
1.188e-10
-4.7255e-08
-9.7422e-11
6.5271e-11
-4.7664e-08
8.6991e-12
1.9758e-11
-4.8037e-08
5.9757e-11
-3.9754e-12
-4.8329e-08
5.0613e-11
-4.7029e-12
-4.8489e-08
-1.6389e-11
1.5114e-11
-4.842e-08
-1.1536e-10
4.2031e-11
-4.8077e-08
-2.6116e-10
7.7837e-11
-4.7392e-08
-4.3344e-10
1.5384e-10
-4.6306e-08
-6.3153e-10
2.4786e-10
-4.4772e-08
-8.5514e-10
3.3938e-10
-1.0899e-09
4.4017e-10
-4.6856e-08
-1.1838e-10
1.1879e-10
-4.7272e-08
-5.3058e-11
5.8359e-11
-4.7685e-08
-1.1957e-13
8.1211e-12
-4.8061e-08
2.5196e-11
-1.6289e-11
-4.835e-08
2.029e-11
-1.2665e-11
-4.8497e-08
-1.3713e-11
1.8165e-11
-4.8424e-08
-6.7253e-11
6.8343e-11
-4.8072e-08
-1.4462e-10
1.4119e-10
-4.7378e-08
-2.3792e-10
2.3049e-10
-4.6285e-08
-3.4476e-10
3.3218e-10
-4.4748e-08
-4.6323e-10
4.4158e-10
-5.8865e-10
5.5896e-10
-4.6861e-08
2.4868e-14
1.1839e-10
-4.7282e-08
-4.5447e-15
5.2883e-11
-4.77e-08
-6.1682e-14
-2.3537e-13
-4.8078e-08
-8.7482e-14
-2.5641e-11
-4.8367e-08
-8.4966e-14
-2.0738e-11
-4.8511e-08
-5.4865e-16
1.3397e-11
-4.8435e-08
9.712e-14
6.7104e-11
-4.8079e-08
2.0295e-13
1.4479e-10
-4.7381e-08
2.9674e-13
2.3835e-10
-4.6283e-08
4.8288e-13
3.458e-10
-4.4743e-08
5.967e-13
4.6448e-10
7.2127e-13
5.9039e-10
-4.6861e-08
1.1846e-10
1.1837e-10
-4.7282e-08
5.304e-11
5.2911e-11
-4.77e-08
-2.8672e-14
-1.8812e-13
-4.8078e-08
-2.5394e-11
-2.5596e-11
-4.8367e-08
-2.046e-11
-2.0715e-11
-4.8511e-08
1.3775e-11
1.3386e-11
-4.8435e-08
6.7564e-11
6.7044e-11
-4.8079e-08
1.4522e-10
1.4463e-10
-4.7381e-08
2.3884e-10
2.3805e-10
-4.6283e-08
3.4622e-10
3.4535e-10
-4.4743e-08
4.6503e-10
4.6391e-10
5.9086e-10
5.8966e-10
-4.6856e-08
2.2812e-10
1.1877e-10
-4.7271e-08
9.7435e-11
5.8418e-11
-4.7685e-08
-8.8216e-12
8.2113e-12
-4.8061e-08
-5.9922e-11
-1.62e-11
-4.835e-08
-5.0768e-11
-1.2593e-11
-4.8497e-08
1.6544e-11
1.8221e-11
-4.8423e-08
1.1575e-10
6.8337e-11
-4.8072e-08
2.6187e-10
1.41e-10
-4.7378e-08
4.3456e-10
2.3e-10
-4.6284e-08
6.3335e-10
3.3158e-10
-4.4747e-08
8.5723e-10
4.4075e-10
1.0925e-09
5.5787e-10
-4.685e-08
3.2296e-10
1.1884e-10
-4.7255e-08
1.2616e-10
6.5338e-11
-4.7663e-08
-3.3414e-11
1.9826e-11
-4.8037e-08
-1.1007e-10
-3.898e-12
-4.8328e-08
-9.3737e-11
-4.5907e-12
-4.8488e-08
1.7597e-11
1.5332e-11
-4.8419e-08
1.6131e-10
4.2571e-11
-4.8076e-08
3.955e-10
7.7664e-11
-4.7392e-08
6.359e-10
1.5387e-10
-4.6305e-08
9.0148e-10
2.4804e-10
-4.4771e-08
1.2122e-09
3.396e-10
1.5438e-09
4.4028e-10
-4.6869e-08
1.2372e-10
4.1126e-10
-4.7294e-08
8.3008e-11
9.8539e-11
-4.7728e-08
5.575e-11
-1.5042e-10
-4.813e-08
5.1765e-11
-2.7821e-10
-4.8447e-08
6.98e-11
-2.6442e-10
-4.863e-08
1.0693e-10
-9.9871e-11
-4.8609e-08
1.2841e-10
1.616e-10
-4.8298e-08
1.6323e-10
5.2779e-10
-4.7635e-08
2.4163e-10
8.9178e-10
-4.6564e-08
3.2081e-10
1.3143e-09
-4.5041e-08
4.1436e-10
1.7971e-09
5.002e-10
2.3296e-09
-4.686e-08
-3.277e-10
2.3864e-10
4.1591e-10
-4.7279e-08
-1.505e-10
1.4941e-10
1.3552e-10
-4.7712e-08
-8.9218e-12
8.2994e-11
-8.0742e-11
-4.8113e-08
5.2339e-11
6.2062e-11
-1.7903e-10
-4.8432e-08
2.6734e-11
8.6463e-11
-1.4578e-10
-4.8625e-08
-8.7744e-11
1.4288e-10
4.0637e-11
-4.8602e-08
-2.1885e-10
1.3831e-10
3.1569e-10
-4.8297e-08
-4.0279e-10
2.8622e-10
5.4897e-10
-4.764e-08
-6.316e-10
4.2853e-10
9.0169e-10
-4.6577e-08
-9.0185e-10
6.0462e-10
1.294e-09
-4.5055e-08
-1.1746e-09
7.6933e-10
1.738e-09
-1.4921e-09
9.6054e-10
2.2212e-09
-4.6846e-08
-2.2947e-10
2.2876e-10
-4.7249e-08
-1.0836e-10
1.1421e-10
-4.7657e-08
-7.6e-12
1.1958e-11
-4.8032e-08
4.152e-11
-4.8259e-11
-4.8327e-08
3.4579e-11
-6.1427e-11
-4.8494e-08
-2.6491e-11
-3.176e-11
-4.8429e-08
-1.1984e-10
2.1995e-11
-4.809e-08
-2.5774e-10
1.2676e-10
-4.7408e-08
-4.2382e-10
2.7546e-10
-4.6329e-08
-6.1329e-10
4.4362e-10
-4.4799e-08
-8.2154e-10
6.359e-10
-1.0421e-09
8.2697e-10
-4.6852e-08
-1.1879e-10
2.2958e-10
-4.7263e-08
-5.8562e-11
1.0817e-10
-4.7675e-08
-8.5173e-12
7.219e-12
-4.805e-08
1.579e-11
-4.1976e-11
-4.8341e-08
1.2153e-11
-3.4989e-11
-4.8491e-08
-1.8532e-11
2.6412e-11
-4.8421e-08
-6.8535e-11
1.2005e-10
-4.8075e-08
-1.4107e-10
2.5847e-10
-4.7385e-08
-2.3002e-10
4.2545e-10
-4.6295e-08
-3.312e-10
6.1595e-10
-4.4763e-08
-4.4026e-10
8.2471e-10
-5.5725e-10
1.0461e-09
-4.6856e-08
-2.3017e-15
2.2807e-10
-4.7271e-08
1.2984e-14
9.7273e-11
-4.7685e-08
-3.0172e-14
-9.0264e-12
-4.8061e-08
-5.9382e-14
-6.016e-11
-4.835e-08
-7.2939e-14
-5.1002e-11
-4.8497e-08
-1.315e-14
1.6206e-11
-4.8423e-08
2.6482e-14
1.1534e-10
-4.8072e-08
3.3337e-14
2.6155e-10
-4.7378e-08
1.1023e-14
4.342e-10
-4.6284e-08
7.0283e-14
6.3324e-10
-4.4747e-08
8.5838e-14
8.5689e-10
6.2414e-14
1.0924e-09
-4.6856e-08
1.1886e-10
2.2803e-10
-4.7272e-08
5.8557e-11
9.7301e-11
-4.7685e-08
8.3872e-12
-8.9841e-12
-4.8061e-08
-1.5976e-11
-6.0127e-11
-4.835e-08
-1.2319e-11
-5.1e-11
-4.8497e-08
1.8626e-11
1.614e-11
-4.8424e-08
6.8877e-11
1.1521e-10
-4.8072e-08
1.4168e-10
2.6123e-10
-4.7378e-08
2.308e-10
4.3372e-10
-4.6285e-08
3.3249e-10
6.3251e-10
-4.4748e-08
4.4188e-10
8.5603e-10
5.5915e-10
1.0913e-09
-4.6852e-08
2.2964e-10
2.2946e-10
-4.7263e-08
1.0837e-10
1.0823e-10
-4.7675e-08
7.4542e-12
7.329e-12
-4.805e-08
-4.1703e-11
-4.1879e-11
-4.8341e-08
-3.4692e-11
-3.4968e-11
-4.8491e-08
2.6839e-11
2.6294e-11
-4.8421e-08
1.2058e-10
1.1974e-10
-4.8075e-08
2.5897e-10
2.5777e-10
-4.7385e-08
4.2551e-10
4.2401e-10
-4.6295e-08
6.1599e-10
6.1411e-10
-4.4763e-08
8.248e-10
8.223e-10
1.046e-09
1.043e-09
-4.6846e-08
3.2784e-10
2.2864e-10
-4.7249e-08
1.5062e-10
1.1428e-10
-4.7657e-08
8.9562e-12
1.2099e-11
-4.8032e-08
-5.2315e-11
-4.8118e-11
-4.8326e-08
-2.6682e-11
-6.1337e-11
-4.8492e-08
8.8139e-11
-3.1709e-11
-4.8428e-08
2.2023e-10
2.1631e-11
-4.8088e-08
4.0286e-10
1.2635e-10
-4.7407e-08
6.3253e-10
2.7454e-10
-4.6327e-08
9.0337e-10
4.4204e-10
-4.4797e-08
1.1769e-09
6.3344e-10
1.4947e-09
8.2363e-10
-4.686e-08
2.3862e-10
4.1607e-10
-4.7279e-08
1.4944e-10
1.3584e-10
-4.7712e-08
8.3046e-11
-8.0392e-11
-4.8112e-08
6.2178e-11
-1.7869e-10
-4.8431e-08
8.6664e-11
-1.4559e-10
-4.8624e-08
1.4317e-10
4.1138e-11
-4.8601e-08
1.3884e-10
3.1682e-10
-4.8296e-08
2.8627e-10
5.4818e-10
-4.7639e-08
4.2772e-10
9.0203e-10
-4.6575e-08
6.0376e-10
1.2947e-09
-4.5054e-08
7.6787e-10
1.7392e-09
9.5814e-10
2.2227e-09
-4.6847e-08
-3.2716e-10
3.6796e-10
3.8479e-10
-4.7257e-08
-1.5628e-10
2.5822e-10
9.1732e-11
-4.7685e-08
-7.562e-12
1.6254e-10
-1.3433e-10
-4.8087e-08
7.6198e-11
1.0763e-10
-2.359e-10
-4.8413e-08
8.5351e-11
8.1482e-11
-1.805e-10
-4.8637e-08
1.9306e-11
6.7205e-11
5.7692e-11
-4.8616e-08
-4.5134e-11
-2.7973e-11
2.8498e-10
-4.8304e-08
-2.0354e-10
9.8393e-11
5.9155e-10
-4.7657e-08
-4.151e-10
2.8275e-10
9.3678e-10
-4.6598e-08
-6.4824e-10
4.6247e-10
1.3452e-09
-4.5091e-08
-9.1272e-10
6.4981e-10
1.8041e-09
-1.184e-09
8.4494e-10
2.2928e-09
-4.6841e-08
-2.2865e-10
3.2737e-10
-4.7239e-08
-1.1441e-10
1.5624e-10
-4.7647e-08
-1.2422e-11
7.3774e-12
-4.8025e-08
4.7674e-11
-7.6361e-11
-4.8329e-08
6.0849e-11
-8.5451e-11
-4.8523e-08
3.1507e-11
-1.8818e-11
-4.8454e-08
-2.1558e-11
4.5928e-11
-4.8115e-08
-1.2617e-10
2.0435e-10
-4.7445e-08
-2.7443e-10
4.1729e-10
-4.6372e-08
-4.4159e-10
6.5117e-10
-4.4849e-08
-6.3294e-10
9.1631e-10
-8.2324e-10
1.1885e-09
-4.6846e-08
-1.1889e-10
3.2781e-10
-4.7249e-08
-6.5523e-11
1.5048e-10
-4.7657e-08
-2.0217e-11
8.8097e-12
-4.8032e-08
3.3668e-12
-5.2477e-11
-4.8326e-08
3.998e-12
-2.6888e-11
-4.8492e-08
-1.5761e-11
8.7901e-11
-4.8428e-08
-4.2579e-11
2.196e-10
-4.8088e-08
-7.808e-11
4.0267e-10
-4.7407e-08
-1.5406e-10
6.331e-10
-4.6327e-08
-2.481e-10
9.034e-10
-4.4797e-08
-3.3928e-10
1.177e-09
-4.3989e-10
1.4946e-09
-4.685e-08
-7.0504e-14
3.2293e-10
-4.7255e-08
-6.2421e-15
1.2602e-10
-4.7663e-08
-2.9201e-14
-3.3597e-11
-4.8037e-08
-6.4126e-14
-1.1028e-10
-4.8328e-08
-1.1466e-13
-9.3964e-11
-4.8488e-08
-9.0756e-14
1.7311e-11
-4.8419e-08
-6.2981e-14
1.6106e-10
-4.8076e-08
-3.0513e-13
3.9505e-10
-4.7392e-08
-4.4858e-13
6.357e-10
-4.6305e-08
-5.636e-13
9.0126e-10
-4.4771e-08
-7.0082e-13
1.2119e-09
-8.5754e-13
1.5435e-09
-4.685e-08
1.1886e-10
3.2291e-10
-4.7256e-08
6.55e-11
1.26e-10
-4.7664e-08
2.0092e-11
-3.3635e-11
-4.8037e-08
-3.5631e-12
-1.1033e-10
-4.8329e-08
-4.2204e-12
-9.4039e-11
-4.8489e-08
1.5702e-11
1.7231e-11
-4.842e-08
4.2878e-11
1.6094e-10
-4.8077e-08
7.7969e-11
3.9497e-10
-4.7393e-08
1.5403e-10
6.3556e-10
-4.6306e-08
2.4803e-10
9.0115e-10
-4.4772e-08
3.3941e-10
1.2118e-09
4.3995e-10
1.5436e-09
-4.6846e-08
2.2881e-10
3.2771e-10
-4.725e-08
1.1441e-10
1.5042e-10
-4.7658e-08
1.2244e-11
8.7336e-12
-4.8033e-08
-4.791e-11
-5.2588e-11
-4.8327e-08
-6.101e-11
-2.7048e-11
-4.8493e-08
-3.118e-11
8.7638e-11
-4.843e-08
2.2485e-11
2.1952e-10
-4.8089e-08
1.273e-10
4.0213e-10
-4.7409e-08
2.759e-10
6.3208e-10
-4.6329e-08
4.4391e-10
9.0233e-10
-4.4799e-08
6.358e-10
1.1759e-09
8.2661e-10
1.4932e-09
-4.6841e-08
3.2739e-10
3.2719e-10
-4.7239e-08
1.564e-10
1.5621e-10
-4.7647e-08
7.5812e-12
7.3321e-12
-4.8025e-08
-7.6137e-11
-7.6506e-11
-4.8329e-08
-8.5127e-11
-8.5732e-11
-4.8523e-08
-1.8419e-11
-1.9159e-11
-4.8454e-08
4.6403e-11
4.5522e-11
-4.8115e-08
2.0478e-10
2.0373e-10
-4.7445e-08
4.1734e-10
4.1606e-10
-4.6372e-08
6.5084e-10
6.4928e-10
-4.4849e-08
9.1602e-10
9.1369e-10
1.1878e-09
1.1849e-09
-4.6848e-08
3.6781e-10
3.8505e-10
-4.7257e-08
2.5818e-10
9.2064e-11
-4.7685e-08
1.6259e-10
-1.3407e-10
-4.8086e-08
1.0778e-10
-2.3558e-10
-4.8412e-08
8.1631e-11
-1.8009e-10
-4.8635e-08
6.7344e-11
5.874e-11
-4.8615e-08
-2.8499e-11
2.8751e-10
-4.8303e-08
9.7871e-11
5.9263e-10
-4.7656e-08
2.8205e-10
9.3731e-10
-4.6596e-08
4.6099e-10
1.3466e-09
-4.509e-08
6.4723e-10
1.8058e-09
8.4098e-10
2.2944e-09
-4.6818e-08
-3.6783e-10
4.4687e-10
4.4665e-10
-4.7207e-08
-2.5837e-10
2.7178e-10
2.7119e-10
-4.7627e-08
-1.6286e-10
1.2864e-10
1.2772e-10
-4.8028e-08
-1.0796e-10
5.0996e-11
5.0206e-11
-4.8362e-08
-8.1787e-11
3.1098e-11
3.0427e-11
-4.8603e-08
-6.7244e-11
6.4999e-11
6.4528e-11
-4.862e-08
2.8148e-11
4.1295e-12
3.5223e-12
-4.8317e-08
-9.7921e-11
1.6398e-10
1.6264e-10
-4.7693e-08
-2.8153e-10
4.232e-10
4.2207e-10
-4.6651e-08
-4.6074e-10
6.6875e-10
6.6679e-10
-4.5163e-08
-6.4653e-10
9.4109e-10
9.3919e-10
-8.4131e-10
1.2212e-09
1.2183e-09
-4.6847e-08
-2.3865e-10
3.85e-10
-4.7256e-08
-1.4972e-10
9.195e-11
-4.7685e-08
-8.3645e-11
-1.3398e-10
-4.8086e-08
-6.2968e-11
-2.3524e-10
-4.8412e-08
-8.7489e-11
-1.7977e-10
-4.8635e-08
-1.437e-10
5.8812e-11
-4.8615e-08
-1.3921e-10
2.8658e-10
-4.8303e-08
-2.8651e-10
5.9223e-10
-4.7656e-08
-4.2785e-10
9.3741e-10
-4.6596e-08
-6.0356e-10
1.3469e-09
-4.509e-08
-7.6787e-10
1.8064e-09
-9.5852e-10
2.2952e-09
-4.686e-08
-1.2381e-10
4.1608e-10
-4.7279e-08
-8.3321e-11
1.3572e-10
-4.7711e-08
-5.6407e-11
-8.0479e-11
-4.8112e-08
-5.2687e-11
-1.7871e-10
-4.8431e-08
-7.0852e-11
-1.4558e-10
-4.8624e-08
-1.0789e-10
4.1255e-11
-4.8601e-08
-1.289e-10
3.16e-10
-4.8296e-08
-1.6359e-10
5.4789e-10
-4.7639e-08
-2.4194e-10
9.0257e-10
-4.6575e-08
-3.2104e-10
1.2949e-09
-4.5054e-08
-4.1427e-10
1.739e-09
-4.9999e-10
2.2217e-09
-4.6869e-08
-5.4901e-14
4.112e-10
-4.7294e-08
-1.5179e-14
9.8368e-11
-4.7729e-08
-8.356e-14
-1.5067e-10
-4.813e-08
-1.5698e-13
-2.7848e-10
-4.8447e-08
-2.0897e-13
-2.6474e-10
-4.863e-08
-2.0406e-13
-1.0032e-10
-4.8609e-08
-2.0395e-13
1.6136e-10
-4.8298e-08
-2.848e-13
5.2743e-10
-4.7634e-08
-3.8743e-13
8.9135e-10
-4.6564e-08
-4.9624e-13
1.3137e-09
-4.5041e-08
-5.6548e-13
1.7963e-09
-6.9235e-13
2.3287e-09
-4.6869e-08
1.2373e-10
4.1121e-10
-4.7294e-08
8.3259e-11
9.8352e-11
-4.7729e-08
5.6139e-11
-1.5067e-10
-4.813e-08
5.2231e-11
-2.7846e-10
-4.8447e-08
7.0289e-11
-2.6467e-10
-4.8631e-08
1.074e-10
-1.0022e-10
-4.8609e-08
1.2875e-10
1.6126e-10
-4.8299e-08
1.6333e-10
5.2749e-10
-4.7635e-08
2.4157e-10
8.9147e-10
-4.6564e-08
3.2051e-10
1.3141e-09
-4.5041e-08
4.1358e-10
1.797e-09
4.991e-10
2.3298e-09
-4.686e-08
2.3874e-10
4.1601e-10
-4.728e-08
1.4964e-10
1.3562e-10
-4.7712e-08
8.3315e-11
-8.0677e-11
-4.8113e-08
6.2473e-11
-1.7896e-10
-4.8432e-08
8.6968e-11
-1.4583e-10
-4.8625e-08
1.4368e-10
4.0823e-11
-4.8602e-08
1.3951e-10
3.163e-10
-4.8297e-08
2.8704e-10
5.4786e-10
-4.764e-08
4.2857e-10
9.0236e-10
-4.6577e-08
6.049e-10
1.2946e-09
-4.5055e-08
7.6926e-10
1.7393e-09
9.5949e-10
2.2229e-09
-4.6848e-08
3.68e-10
3.8491e-10
-4.7257e-08
2.5838e-10
9.1807e-11
-4.7685e-08
1.6281e-10
-1.3445e-10
-4.8087e-08
1.0804e-10
-2.361e-10
-4.8413e-08
8.1994e-11
-1.8084e-10
-4.8636e-08
6.7851e-11
5.8118e-11
-4.8616e-08
-2.7752e-11
2.8701e-10
-4.8304e-08
9.8729e-11
5.9241e-10
-4.7657e-08
2.8293e-10
9.3733e-10
-4.6598e-08
4.6254e-10
1.3469e-09
-4.5091e-08
6.4919e-10
1.8056e-09
8.4373e-10
2.2937e-09
-4.6819e-08
4.4679e-10
4.4683e-10
-4.7208e-08
2.7149e-10
2.7151e-10
-4.7627e-08
1.2826e-10
1.2815e-10
-4.8029e-08
5.0944e-11
5.0536e-11
-4.8362e-08
3.1212e-11
3.0658e-11
-4.8603e-08
6.5317e-11
6.5039e-11
-4.862e-08
3.8831e-12
4.0826e-12
-4.8317e-08
1.6344e-10
1.6364e-10
-4.7693e-08
4.2282e-10
4.2321e-10
-4.6651e-08
6.6789e-10
6.6824e-10
-4.5164e-08
9.4059e-10
9.3995e-10
1.2197e-09
1.2181e-09
1.5459e-07
-6.6868e-10
1.2491e-09
-2.0642e-12
1.5963e-07
-5.6843e-10
9.8781e-10
-1.5847e-12
1.6309e-07
-5.0105e-10
7.7443e-10
-1.4019e-12
1.6509e-07
-4.2988e-10
6.6574e-10
-1.1469e-12
1.6583e-07
-3.82e-10
5.2474e-10
-1.0893e-12
1.6576e-07
-2.9322e-10
1.8066e-10
-5.0672e-13
1.6508e-07
-4.0401e-11
-6.7884e-11
1.1956e-13
1.6406e-07
7.3621e-11
-3.2814e-10
-3.9073e-14
1.6273e-07
3.2237e-11
-1.321e-10
-4.9721e-14
1.6127e-07
-2.0439e-11
2.078e-10
-2.3156e-13
1.5997e-07
-9.306e-11
6.1514e-10
-3.2558e-13
-1.7024e-10
1.0085e-09
-2.2104e-13
1.8262e-07
-5.4457e-10
2.2195e-09
1.8867e-07
-4.2823e-10
1.6643e-09
1.9282e-07
-3.0407e-10
1.1534e-09
1.953e-07
-2.5898e-10
7.9679e-10
1.9629e-07
-1.9877e-10
5.0531e-10
1.9631e-07
-1.0861e-10
-1.1478e-11
1.9553e-07
2.2214e-11
-2.0785e-10
1.9437e-07
6.3007e-11
-5.7011e-10
1.9285e-07
-6.5206e-12
-4.8484e-10
1.9116e-07
-5.1612e-11
-1.1772e-10
1.896e-07
-1.2417e-10
4.0502e-10
-2.0737e-10
9.6616e-10
2.023e-07
-3.6423e-10
2.3747e-09
2.0902e-07
-2.8805e-10
1.818e-09
2.137e-07
-2.1655e-10
1.3291e-09
2.1649e-07
-1.8027e-10
9.6668e-10
2.1759e-07
-1.2292e-10
6.9448e-10
2.1761e-07
-7.1891e-12