/*--------------------------------*- C++ -*----------------------------------*\
| =========                 |                                                 |
| \\      /  F ield         | foam-extend: Open Source CFD                    |
|  \\    /   O peration     | Version:     4.1-20200408                       |
|   \\  /    A nd           | Web:         http://www.foam-extend.org         |
|    \\/     M anipulation  |                                                 |
\*---------------------------------------------------------------------------*/
FoamFile
{
    version     2.0;
    format      ascii;
    class       volScalarField;
    location    "0.0025000";
    object      rho_0_0;
}
// * * * * * * * * * * * * * * * * * * * * * * * * * * * * * * * * * * * * * //

dimensions      [1 -3 0 0 0 0 0];

internalField   nonuniform List<scalar> 
1952
(
7847.07
7848.06
7849.04
7849.98
7850.87
7851.67
7852.4
7853
7853.47
7853.77
7853.91
7853.83
7853.55
7853.06
7852.34
7851.42
7850.31
7849.04
7847.65
7846.16
7844.63
7843.08
7841.55
7840.07
7838.67
7837.37
7836.17
7835.08
7834.11
7833.26
7832.51
7831.86
7831.3
7830.81
7830.4
7830.06
7829.76
7829.51
7829.3
7829.11
7828.96
7828.82
7828.7
7828.6
7828.5
7828.42
7828.34
7828.27
7828.19
7828.12
7828.06
7827.99
7827.92
7827.85
7827.78
7827.71
7827.63
7827.55
7827.47
7827.38
7827.29
7827.18
7827.07
7826.95
7826.82
7826.68
7826.52
7826.35
7826.16
7825.95
7825.72
7825.48
7825.23
7847.09
7848.1
7849.09
7850.04
7850.95
7851.78
7852.52
7853.14
7853.62
7853.94
7854.09
7854.02
7853.75
7853.24
7852.52
7851.58
7850.45
7849.15
7847.73
7846.21
7844.65
7843.07
7841.52
7840.02
7838.6
7837.29
7836.08
7834.99
7834.02
7833.17
7832.42
7831.78
7831.22
7830.75
7830.34
7830
7829.71
7829.47
7829.26
7829.08
7828.93
7828.8
7828.69
7828.58
7828.49
7828.41
7828.33
7828.26
7828.19
7828.12
7828.05
7827.99
7827.92
7827.85
7827.78
7827.71
7827.64
7827.56
7827.48
7827.39
7827.29
7827.19
7827.08
7826.96
7826.83
7826.69
7826.53
7826.36
7826.17
7825.96
7825.74
7825.5
7825.24
7847.1
7848.13
7849.14
7850.11
7851.04
7851.89
7852.65
7853.3
7853.82
7854.17
7854.33
7854.29
7854.02
7853.51
7852.78
7851.82
7850.65
7849.32
7847.85
7846.28
7844.67
7843.04
7841.45
7839.92
7838.48
7837.15
7835.93
7834.84
7833.87
7833.03
7832.29
7831.66
7831.12
7830.66
7830.27
7829.94
7829.66
7829.42
7829.22
7829.05
7828.91
7828.78
7828.67
7828.57
7828.48
7828.4
7828.33
7828.26
7828.19
7828.12
7828.05
7827.99
7827.92
7827.86
7827.79
7827.72
7827.64
7827.56
7827.48
7827.4
7827.3
7827.2
7827.1
7826.98
7826.85
7826.71
7826.55
7826.38
7826.19
7825.99
7825.76
7825.52
7825.25
7847.13
7848.17
7849.21
7850.21
7851.17
7852.06
7852.87
7853.55
7854.11
7854.49
7854.69
7854.67
7854.41
7853.9
7853.15
7852.15
7850.94
7849.54
7848
7846.37
7844.69
7843
7841.36
7839.79
7838.31
7836.96
7835.73
7834.64
7833.68
7832.84
7832.12
7831.5
7830.98
7830.53
7830.16
7829.84
7829.58
7829.35
7829.17
7829.01
7828.87
7828.75
7828.64
7828.55
7828.47
7828.39
7828.32
7828.25
7828.18
7828.12
7828.05
7827.99
7827.92
7827.86
7827.79
7827.72
7827.65
7827.57
7827.49
7827.41
7827.32
7827.22
7827.11
7827
7826.87
7826.73
7826.58
7826.41
7826.22
7826.02
7825.79
7825.54
7825.28
7847.14
7848.21
7849.28
7850.32
7851.32
7852.25
7853.11
7853.85
7854.46
7854.89
7855.14
7855.15
7854.91
7854.4
7853.63
7852.59
7851.31
7849.84
7848.21
7846.48
7844.71
7842.95
7841.23
7839.6
7838.08
7836.7
7835.46
7834.37
7833.42
7832.6
7831.89
7831.3
7830.8
7830.37
7830.02
7829.73
7829.48
7829.27
7829.1
7828.95
7828.83
7828.72
7828.62
7828.53
7828.45
7828.38
7828.31
7828.24
7828.18
7828.12
7828.05
7827.99
7827.93
7827.86
7827.79
7827.73
7827.66
7827.58
7827.5
7827.42
7827.33
7827.24
7827.13
7827.02
7826.9
7826.76
7826.61
7826.45
7826.26
7826.06
7825.83
7825.58
7825.31
7847.16
7848.27
7849.38
7850.45
7851.5
7852.49
7853.41
7854.21
7854.89
7855.39
7855.69
7855.75
7855.54
7855.03
7854.22
7853.13
7851.77
7850.19
7848.45
7846.61
7844.73
7842.86
7841.06
7839.36
7837.79
7836.38
7835.13
7834.05
7833.11
7832.31
7831.63
7831.06
7830.59
7830.2
7829.87
7829.6
7829.37
7829.18
7829.02
7828.89
7828.77
7828.67
7828.59
7828.51
7828.43
7828.36
7828.3
7828.24
7828.17
7828.11
7828.05
7827.99
7827.93
7827.86
7827.8
7827.73
7827.66
7827.59
7827.52
7827.44
7827.35
7827.26
7827.16
7827.05
7826.93
7826.8
7826.66
7826.49
7826.31
7826.11
7825.88
7825.63
7825.35
7847.17
7848.31
7849.47
7850.59
7851.7
7852.75
7853.75
7854.63
7855.4
7855.99
7856.37
7856.49
7856.32
7855.82
7854.99
7853.82
7852.35
7850.64
7848.76
7846.76
7844.74
7842.74
7840.82
7839.04
7837.41
7835.97
7834.71
7833.63
7832.71
7831.94
7831.3
7830.77
7830.33
7829.98
7829.68
7829.44
7829.24
7829.08
7828.94
7828.82
7828.72
7828.63
7828.55
7828.48
7828.41
7828.35
7828.29
7828.23
7828.17
7828.11
7828.05
7827.99
7827.93
7827.87
7827.81
7827.74
7827.67
7827.6
7827.53
7827.45
7827.37
7827.28
7827.19
7827.09
7826.97
7826.85
7826.71
7826.55
7826.37
7826.17
7825.94
7825.69
7825.41
7847.19
7848.36
7849.56
7850.74
7851.91
7853.04
7854.12
7855.1
7855.97
7856.67
7857.15
7857.35
7857.24
7856.75
7855.88
7854.63
7853.03
7851.16
7849.09
7846.92
7844.72
7842.57
7840.53
7838.65
7836.96
7835.48
7834.22
7833.16
7832.27
7831.54
7830.94
7830.46
7830.06
7829.74
7829.49
7829.28
7829.11
7828.96
7828.85
7828.75
7828.66
7828.59
7828.52
7828.45
7828.39
7828.33
7828.28
7828.22
7828.17
7828.11
7828.05
7827.99
7827.93
7827.87
7827.81
7827.75
7827.68
7827.62
7827.55
7827.47
7827.39
7827.31
7827.22
7827.12
7827.02
7826.9
7826.76
7826.61
7826.44
7826.24
7826.02
7825.76
7825.47
7847.18
7848.4
7849.65
7850.88
7852.14
7853.35
7854.54
7855.64
7856.64
7857.48
7858.1
7858.42
7858.39
7857.95
7857.04
7855.67
7853.9
7851.81
7849.5
7847.09
7844.67
7842.32
7840.12
7838.12
7836.35
7834.84
7833.58
7832.55
7831.71
7831.04
7830.5
7830.08
7829.74
7829.47
7829.26
7829.09
7828.95
7828.84
7828.75
7828.67
7828.6
7828.54
7828.48
7828.43
7828.37
7828.32
7828.27
7828.22
7828.16
7828.11
7828.05
7828
7827.94
7827.88
7827.82
7827.76
7827.7
7827.63
7827.56
7827.49
7827.42
7827.34
7827.26
7827.17
7827.07
7826.96
7826.83
7826.69
7826.52
7826.33
7826.11
7825.86
7825.56
7847.17
7848.42
7849.73
7851.02
7852.35
7853.66
7854.96
7856.2
7857.35
7858.35
7859.14
7859.62
7859.7
7859.31
7858.38
7856.87
7854.88
7852.52
7849.94
7847.25
7844.57
7842.01
7839.63
7837.5
7835.65
7834.12
7832.88
7831.9
7831.12
7830.52
7830.05
7829.69
7829.41
7829.2
7829.03
7828.9
7828.8
7828.72
7828.65
7828.59
7828.54
7828.49
7828.44
7828.4
7828.35
7828.31
7828.26
7828.21
7828.16
7828.11
7828.05
7828
7827.94
7827.89
7827.83
7827.77
7827.71
7827.65
7827.58
7827.51
7827.45
7827.37
7827.3
7827.21
7827.12
7827.02
7826.9
7826.77
7826.62
7826.43
7826.22
7825.97
7825.67
7847.15
7848.43
7849.79
7851.14
7852.55
7853.97
7855.41
7856.82
7858.18
7859.4
7860.42
7861.12
7861.4
7861.1
7860.14
7858.44
7856.15
7853.42
7850.45
7847.4
7844.38
7841.53
7838.92
7836.63
7834.69
7833.15
7831.96
7831.06
7830.38
7829.88
7829.51
7829.23
7829.03
7828.89
7828.78
7828.7
7828.64
7828.59
7828.55
7828.52
7828.48
7828.45
7828.41
7828.38
7828.34
7828.3
7828.26
7828.21
7828.16
7828.11
7828.06
7828.01
7827.95
7827.9
7827.84
7827.78
7827.72
7827.66
7827.6
7827.54
7827.47
7827.41
7827.34
7827.26
7827.18
7827.09
7826.99
7826.87
7826.73
7826.56
7826.36
7826.12
7825.81
7847.12
7848.41
7849.82
7851.22
7852.71
7854.23
7855.81
7857.4
7858.97
7860.45
7861.75
7862.73
7863.26
7863.13
7862.18
7860.25
7857.58
7854.41
7850.99
7847.52
7844.14
7840.98
7838.12
7835.65
7833.61
7832.08
7830.97
7830.18
7829.63
7829.24
7828.97
7828.79
7828.66
7828.59
7828.54
7828.5
7828.48
7828.47
7828.45
7828.44
7828.42
7828.41
7828.38
7828.35
7828.32
7828.29
7828.25
7828.21
7828.16
7828.11
7828.06
7828.01
7827.96
7827.9
7827.85
7827.79
7827.73
7827.67
7827.62
7827.56
7827.5
7827.44
7827.38
7827.31
7827.24
7827.16
7827.07
7826.97
7826.85
7826.7
7826.52
7826.29
7825.98
7847.09
7848.38
7849.82
7851.27
7852.83
7854.48
7856.23
7858.04
7859.89
7861.71
7863.4
7864.81
7865.73
7865.89
7865
7862.66
7859.41
7855.58
7851.54
7847.51
7843.64
7840.08
7836.91
7834.23
7832.07
7830.6
7829.67
7829.07
7828.7
7828.48
7828.35
7828.29
7828.27
7828.27
7828.29
7828.31
7828.33
7828.36
7828.37
7828.38
7828.38
7828.38
7828.36
7828.35
7828.32
7828.29
7828.25
7828.21
7828.17
7828.12
7828.07
7828.02
7827.97
7827.91
7827.86
7827.8
7827.75
7827.69
7827.64
7827.58
7827.53
7827.47
7827.42
7827.36
7827.3
7827.24
7827.17
7827.09
7826.99
7826.87
7826.72
7826.52
7826.23
7847.07
7848.32
7849.74
7851.21
7852.83
7854.59
7856.48
7858.52
7860.65
7862.83
7864.96
7866.9
7868.38
7869.03
7868.36
7865.51
7861.51
7856.89
7852.13
7847.49
7843.12
7839.14
7835.62
7832.67
7830.33
7828.98
7828.29
7827.95
7827.79
7827.74
7827.75
7827.81
7827.88
7827.97
7828.05
7828.12
7828.19
7828.24
7828.29
7828.32
7828.34
7828.34
7828.34
7828.33
7828.31
7828.28
7828.25
7828.21
7828.17
7828.12
7828.07
7828.02
7827.97
7827.92
7827.86
7827.81
7827.75
7827.7
7827.65
7827.6
7827.55
7827.5
7827.45
7827.41
7827.36
7827.31
7827.26
7827.2
7827.13
7827.04
7826.93
7826.77
7826.52
7847.13
7848.31
7849.62
7851.11
7852.76
7854.64
7856.72
7859.02
7861.52
7864.19
7866.95
7869.66
7872.02
7873.56
7873.28
7869.33
7864.06
7858.22
7852.47
7847.06
7842.04
7837.55
7833.61
7830.34
7827.75
7826.74
7826.55
7826.62
7826.76
7826.94
7827.14
7827.34
7827.53
7827.7
7827.85
7827.98
7828.09
7828.17
7828.24
7828.29
7828.32
7828.34
7828.34
7828.34
7828.32
7828.3
7828.26
7828.23
7828.18
7828.14
7828.09
7828.03
7827.98
7827.93
7827.87
7827.82
7827.77
7827.72
7827.67
7827.62
7827.57
7827.53
7827.5
7827.46
7827.43
7827.4
7827.37
7827.33
7827.3
7827.26
7827.2
7827.12
7826.95
7847.06
7848.06
7849.03
7849.96
7850.85
7851.65
7852.36
7852.96
7853.42
7853.72
7853.85
7853.77
7853.49
7852.99
7852.28
7851.36
7850.26
7849
7847.62
7846.14
7844.62
7843.08
7841.56
7840.09
7838.7
7837.4
7836.2
7835.12
7834.15
7833.29
7832.54
7831.89
7831.32
7830.84
7830.42
7830.07
7829.77
7829.52
7829.31
7829.12
7828.96
7828.83
7828.71
7828.6
7828.51
7828.42
7828.34
7828.27
7828.19
7828.12
7828.06
7827.99
7827.92
7827.85
7827.78
7827.71
7827.63
7827.55
7827.47
7827.38
7827.28
7827.18
7827.07
7826.95
7826.82
7826.67
7826.51
7826.34
7826.15
7825.94
7825.72
7825.48
7825.22
7846.22
7846.23
7846.23
7846.24
7846.24
7846.24
7846.23
7846.22
7846.2
7846.17
7846.13
7846.09
7846.05
7846.04
7846.09
7846.22
7845.38
7845.39
7845.38
7845.38
7845.37
7845.36
7845.33
7845.31
7845.27
7845.23
7845.18
7845.14
7845.1
7845.1
7845.15
7845.38
7844.54
7844.54
7844.53
7844.52
7844.5
7844.48
7844.45
7844.42
7844.37
7844.33
7844.28
7844.24
7844.2
7844.21
7844.26
7844.54
7843.73
7843.73
7843.72
7843.7
7843.68
7843.65
7843.62
7843.58
7843.54
7843.5
7843.45
7843.42
7843.39
7843.4
7843.46
7843.74
7842.95
7842.95
7842.93
7842.92
7842.89
7842.87
7842.83
7842.8
7842.75
7842.72
7842.68
7842.66
7842.64
7842.67
7842.74
7842.96
7842.21
7842.21
7842.19
7842.18
7842.15
7842.13
7842.09
7842.07
7842.03
7842
7841.97
7841.96
7841.95
7842
7842.07
7842.21
7841.5
7841.5
7841.48
7841.47
7841.45
7841.43
7841.4
7841.38
7841.35
7841.34
7841.32
7841.33
7841.33
7841.38
7841.47
7841.5
7840.83
7840.83
7840.81
7840.8
7840.79
7840.77
7840.76
7840.74
7840.73
7840.73
7840.72
7840.74
7840.75
7840.82
7840.91
7840.83
7840.19
7840.19
7840.18
7840.17
7840.16
7840.16
7840.15
7840.15
7840.14
7840.16
7840.16
7840.2
7840.22
7840.3
7840.41
7840.19
7839.59
7839.59
7839.59
7839.59
7839.58
7839.58
7839.59
7839.59
7839.6
7839.63
7839.65
7839.69
7839.74
7839.82
7839.94
7839.59
7839.02
7839.02
7839.02
7839.03
7839.03
7839.04
7839.05
7839.08
7839.1
7839.14
7839.17
7839.23
7839.29
7839.38
7839.51
7839.02
7838.48
7838.49
7838.49
7838.51
7838.52
7838.54
7838.56
7838.59
7838.63
7838.68
7838.73
7838.8
7838.87
7838.98
7839.11
7838.48
7837.97
7837.98
7837.99
7838.01
7838.03
7838.06
7838.09
7838.14
7838.19
7838.25
7838.31
7838.4
7838.48
7838.6
7838.74
7837.97
7837.49
7837.5
7837.52
7837.54
7837.57
7837.61
7837.65
7837.71
7837.77
7837.85
7837.93
7838.02
7838.12
7838.25
7838.4
7837.48
7837.02
7837.04
7837.06
7837.09
7837.13
7837.18
7837.23
7837.3
7837.38
7837.46
7837.56
7837.67
7837.78
7837.92
7838.08
7837.02
7836.59
7836.61
7836.63
7836.67
7836.71
7836.77
7836.84
7836.92
7837
7837.1
7837.21
7837.33
7837.46
7837.61
7837.79
7836.58
7836.16
7836.18
7836.21
7836.26
7836.31
7836.37
7836.45
7836.54
7836.64
7836.75
7836.87
7837.01
7837.15
7837.31
7837.51
7836.15
7835.75
7835.78
7835.81
7835.86
7835.92
7836
7836.08
7836.18
7836.29
7836.42
7836.55
7836.7
7836.86
7837.04
7837.25
7835.75
7835.35
7835.38
7835.42
7835.47
7835.54
7835.62
7835.71
7835.82
7835.95
7836.08
7836.23
7836.39
7836.56
7836.76
7837
7835.34
7834.96
7835
7835.04
7835.1
7835.17
7835.26
7835.36
7835.48
7835.61
7835.76
7835.92
7836.09
7836.28
7836.5
7836.76
7834.96
7834.68
7834.71
7834.75
7834.82
7834.89
7834.98
7835.09
7835.21
7835.35
7835.51
7835.68
7835.86
7836.06
7836.28
7836.55
7834.67
7834.42
7834.46
7834.5
7834.57
7834.65
7834.75
7834.86
7834.98
7835.13
7835.29
7835.46
7835.65
7835.85
7836.08
7836.34
7834.41
7834.17
7834.21
7834.25
7834.32
7834.4
7834.5
7834.61
7834.75
7834.89
7835.06
7835.24
7835.43
7835.64
7835.86
7836.13
7834.16
7833.93
7833.97
7834.01
7834.08
7834.17
7834.27
7834.39
7834.52
7834.67
7834.84
7835.02
7835.22
7835.43
7835.65
7835.91
7833.92
7833.7
7833.74
7833.79
7833.86
7833.95
7834.05
7834.17
7834.31
7834.46
7834.63
7834.82
7835.01
7835.22
7835.45
7835.7
7833.69
7833.49
7833.53
7833.58
7833.66
7833.74
7833.85
7833.97
7834.11
7834.27
7834.43
7834.62
7834.82
7835.03
7835.25
7835.5
7833.48
7833.29
7833.34
7833.39
7833.46
7833.55
7833.66
7833.78
7833.92
7834.08
7834.25
7834.43
7834.63
7834.83
7835.05
7835.3
7833.28
7833.11
7833.15
7833.2
7833.28
7833.37
7833.48
7833.6
7833.74
7833.9
7834.07
7834.25
7834.44
7834.65
7834.86
7835.1
7833.1
7832.94
7832.98
7833.03
7833.11
7833.2
7833.31
7833.43
7833.57
7833.72
7833.89
7834.08
7834.26
7834.47
7834.68
7834.91
7832.93
7832.78
7832.83
7832.87
7832.95
7833.04
7833.15
7833.27
7833.41
7833.56
7833.73
7833.91
7834.09
7834.29
7834.5
7834.72
7832.77
7832.64
7832.68
7832.73
7832.8
7832.89
7833
7833.12
7833.25
7833.4
7833.57
7833.74
7833.92
7834.12
7834.32
7834.53
7832.62
7832.5
7832.54
7832.59
7832.66
7832.75
7832.85
7832.97
7833.11
7833.26
7833.41
7833.59
7833.76
7833.95
7834.14
7834.35
7832.49
7832.38
7832.42
7832.46
7832.54
7832.62
7832.72
7832.84
7832.97
7833.11
7833.27
7833.43
7833.6
7833.79
7833.97
7834.17
7832.36
7832.26
7832.3
7832.35
7832.42
7832.5
7832.6
7832.71
7832.84
7832.98
7833.12
7833.29
7833.45
7833.63
7833.8
7833.99
7832.25
7832.16
7832.2
7832.24
7832.31
7832.39
7832.48
7832.59
7832.71
7832.85
7832.99
7833.14
7833.3
7833.47
7833.64
7833.82
7832.15
7832.07
7832.1
7832.15
7832.21
7832.29
7832.38
7832.48
7832.6
7832.72
7832.86
7833.01
7833.15
7833.32
7833.47
7833.64
7832.06
7831.99
7832.02
7832.07
7832.13
7832.2
7832.28
7832.38
7832.49
7832.61
7832.74
7832.87
7833.01
7833.16
7833.31
7833.47
7831.98
7831.92
7831.95
7831.99
7832.05
7832.12
7832.2
7832.29
7832.39
7832.5
7832.62
7832.75
7832.88
7833.02
7833.15
7833.3
7831.91
7831.87
7831.9
7831.94
7831.99
7832.05
7832.12
7832.21
7832.3
7832.4
7832.51
7832.63
7832.74
7832.87
7832.99
7833.13
7831.86
7831.83
7831.86
7831.89
7831.94
7831.99
7832.06
7832.14
7832.22
7832.31
7832.41
7832.51
7832.62
7832.73
7832.84
7832.96
7831.82
7831.81
7831.83
7831.86
7831.9
7831.95
7832.01
7832.08
7832.15
7832.23
7832.32
7832.41
7832.5
7832.6
7832.69
7832.78
7831.8
7831.8
7831.82
7831.85
7831.89
7831.93
7831.98
7832.04
7832.1
7832.17
7832.24
7832.32
7832.39
7832.47
7832.54
7832.62
7831.8
7831.82
7831.83
7831.86
7831.89
7831.92
7831.96
7832.01
7832.06
7832.12
7832.18
7832.24
7832.29
7832.35
7832.4
7832.45
7831.81
7831.85
7831.87
7831.88
7831.91
7831.94
7831.97
7832.01
7832.04
7832.09
7832.13
7832.17
7832.21
7832.25
7832.27
7832.28
7831.85
7831.91
7831.92
7831.93
7831.95
7831.97
7831.99
7832.02
7832.04
7832.07
7832.1
7832.12
7832.15
7832.16
7832.16
7832.14
7831.9
7832.02
7832.02
7832.03
7832.04
7832.04
7832.05
7832.07
7832.08
7832.09
7832.1
7832.1
7832.11
7832.11
7832.1
7832.08
7832.01
7832.08
7832.08
7832.09
7832.09
7832.09
7832.1
7832.1
7832.1
7832.1
7832.1
7832.1
7832.09
7832.08
7832.07
7832.05
7832.08
7832.08
7832.08
7832.09
7832.09
7832.09
7832.1
7832.1
7832.1
7832.1
7832.1
7832.1
7832.09
7832.08
7832.07
7832.05
7832.08
7832.08
7832.08
7832.09
7832.09
7832.09
7832.1
7832.1
7832.1
7832.1
7832.1
7832.1
7832.09
7832.08
7832.07
7832.05
7832.08
)
;

boundaryField
{
    wireUpstream
    {
        type            calculated;
        value           nonuniform List<scalar> 
16
(
7832.19
7832.18
7832.18
7832.18
7832.18
7832.17
7832.16
7832.15
7832.14
7832.13
7832.11
7832.09
7832.07
7832.05
7832.04
7832.19
)
;
    }
    wireDownstream
    {
        type            calculated;
        value           nonuniform List<scalar> 
16
(
7825.23
7825.24
7825.25
7825.28
7825.31
7825.35
7825.41
7825.47
7825.56
7825.67
7825.81
7825.98
7826.23
7826.52
7826.95
7825.22
)
;
    }
    wireTopContact
    {
        type            calculated;
        value           nonuniform List<scalar> 
122
(
7848.33
7849.63
7851.12
7852.77
7854.65
7856.72
7859.02
7861.5
7864.16
7866.9
7869.59
7871.97
7873.62
7873.53
7869.32
7864.05
7858.25
7852.53
7847.13
7842.12
7837.64
7833.7
7830.41
7827.74
7826.79
7826.59
7826.62
7826.74
7826.91
7827.11
7827.3
7827.49
7827.66
7827.81
7827.95
7828.06
7828.15
7828.22
7828.27
7828.3
7828.32
7828.33
7828.33
7828.31
7828.29
7828.26
7828.22
7828.18
7828.13
7828.08
7828.03
7827.98
7827.92
7827.87
7827.82
7827.77
7827.72
7827.67
7827.62
7827.58
7827.54
7827.5
7827.46
7827.43
7827.4
7827.37
7827.33
7827.3
7827.25
7827.19
7827.1
7847.15
7846.1
7845.15
7844.27
7843.47
7842.74
7842.07
7841.47
7840.91
7840.41
7839.94
7839.51
7839.11
7838.74
7838.4
7838.09
7837.79
7837.51
7837.25
7837
7836.76
7836.55
7836.35
7836.13
7835.92
7835.71
7835.5
7835.3
7835.11
7834.91
7834.72
7834.54
7834.36
7834.18
7834
7833.82
7833.65
7833.47
7833.3
7833.13
7832.96
7832.78
7832.62
7832.45
7832.29
7832.14
7832.09
7832.07
7832.07
7832.07
7826.94
)
;
    }
    front
    {
        type            wedge;
    }
    back
    {
        type            wedge;
    }
}


// ************************************************************************* //
