/*--------------------------------*- C++ -*----------------------------------*\
| =========                 |                                                 |
| \\      /  F ield         | foam-extend: Open Source CFD                    |
|  \\    /   O peration     | Version:     4.1-20200408                       |
|   \\  /    A nd           | Web:         http://www.foam-extend.org         |
|    \\/     M anipulation  |                                                 |
\*---------------------------------------------------------------------------*/
FoamFile
{
    version     2.0;
    format      ascii;
    class       volScalarField;
    location    "0.0025000";
    object      rho_0_0;
}
// * * * * * * * * * * * * * * * * * * * * * * * * * * * * * * * * * * * * * //

dimensions      [1 -3 0 0 0 0 0];

internalField   nonuniform List<scalar> 
1952
(
7847.45
7848.46
7849.45
7850.4
7851.3
7852.11
7852.84
7853.45
7853.92
7854.22
7854.34
7854.26
7853.97
7853.45
7852.72
7851.78
7850.64
7849.35
7847.93
7846.42
7844.85
7843.28
7841.72
7840.22
7838.8
7837.47
7836.26
7835.16
7834.17
7833.3
7832.54
7831.89
7831.32
7830.83
7830.42
7830.07
7829.77
7829.51
7829.3
7829.12
7828.96
7828.82
7828.71
7828.6
7828.51
7828.42
7828.34
7828.27
7828.2
7828.13
7828.07
7828
7827.93
7827.86
7827.79
7827.72
7827.65
7827.57
7827.49
7827.4
7827.31
7827.21
7827.1
7826.98
7826.85
7826.71
7826.55
7826.38
7826.19
7825.99
7825.77
7825.53
7825.27
7847.47
7848.5
7849.51
7850.47
7851.38
7852.22
7852.96
7853.59
7854.07
7854.39
7854.53
7854.45
7854.16
7853.64
7852.9
7851.94
7850.78
7849.46
7848.01
7846.46
7844.87
7843.27
7841.69
7840.17
7838.73
7837.39
7836.17
7835.06
7834.08
7833.21
7832.46
7831.8
7831.24
7830.76
7830.35
7830.01
7829.72
7829.47
7829.26
7829.09
7828.93
7828.8
7828.69
7828.59
7828.5
7828.41
7828.34
7828.27
7828.2
7828.13
7828.06
7828
7827.93
7827.87
7827.8
7827.73
7827.65
7827.58
7827.49
7827.41
7827.32
7827.22
7827.11
7826.99
7826.86
7826.72
7826.56
7826.39
7826.21
7826
7825.78
7825.54
7825.28
7847.48
7848.52
7849.55
7850.53
7851.47
7852.33
7853.11
7853.76
7854.27
7854.62
7854.78
7854.72
7854.44
7853.92
7853.16
7852.18
7850.99
7849.62
7848.13
7846.53
7844.89
7843.24
7841.62
7840.07
7838.6
7837.25
7836.01
7834.91
7833.93
7833.07
7832.32
7831.68
7831.14
7830.67
7830.27
7829.94
7829.66
7829.43
7829.22
7829.06
7828.91
7828.78
7828.67
7828.58
7828.49
7828.41
7828.33
7828.26
7828.19
7828.13
7828.06
7828
7827.93
7827.87
7827.8
7827.73
7827.66
7827.58
7827.5
7827.42
7827.33
7827.23
7827.12
7827
7826.88
7826.74
7826.58
7826.41
7826.23
7826.02
7825.8
7825.56
7825.3
7847.51
7848.57
7849.63
7850.64
7851.61
7852.51
7853.32
7854.01
7854.57
7854.95
7855.14
7855.11
7854.84
7854.31
7853.54
7852.51
7851.28
7849.85
7848.28
7846.62
7844.91
7843.2
7841.53
7839.93
7838.43
7837.06
7835.81
7834.71
7833.73
7832.88
7832.15
7831.52
7830.99
7830.54
7830.17
7829.85
7829.58
7829.36
7829.17
7829.01
7828.87
7828.75
7828.65
7828.55
7828.47
7828.39
7828.32
7828.25
7828.19
7828.13
7828.06
7828
7827.93
7827.87
7827.8
7827.73
7827.66
7827.59
7827.51
7827.43
7827.34
7827.24
7827.14
7827.02
7826.9
7826.76
7826.61
7826.44
7826.26
7826.05
7825.83
7825.59
7825.32
7847.53
7848.62
7849.7
7850.75
7851.76
7852.7
7853.57
7854.31
7854.93
7855.36
7855.6
7855.6
7855.35
7854.82
7854.02
7852.96
7851.65
7850.15
7848.49
7846.73
7844.93
7843.14
7841.39
7839.74
7838.2
7836.79
7835.54
7834.43
7833.46
7832.63
7831.92
7831.32
7830.81
7830.38
7830.03
7829.73
7829.48
7829.28
7829.1
7828.95
7828.83
7828.72
7828.62
7828.53
7828.46
7828.38
7828.31
7828.25
7828.19
7828.12
7828.06
7828
7827.94
7827.87
7827.81
7827.74
7827.67
7827.6
7827.52
7827.44
7827.35
7827.26
7827.16
7827.05
7826.93
7826.79
7826.64
7826.48
7826.3
7826.09
7825.87
7825.62
7825.36
7847.55
7848.67
7849.8
7850.89
7851.95
7852.95
7853.87
7854.69
7855.37
7855.87
7856.16
7856.21
7855.98
7855.46
7854.63
7853.5
7852.11
7850.5
7848.73
7846.86
7844.94
7843.05
7841.21
7839.49
7837.9
7836.47
7835.2
7834.1
7833.15
7832.34
7831.65
7831.08
7830.6
7830.2
7829.87
7829.6
7829.37
7829.18
7829.02
7828.89
7828.77
7828.68
7828.59
7828.51
7828.43
7828.37
7828.3
7828.24
7828.18
7828.12
7828.06
7828
7827.94
7827.88
7827.81
7827.75
7827.68
7827.61
7827.53
7827.46
7827.37
7827.28
7827.18
7827.08
7826.96
7826.83
7826.69
7826.52
7826.34
7826.14
7825.92
7825.67
7825.4
7847.56
7848.72
7849.89
7851.03
7852.15
7853.22
7854.22
7855.12
7855.88
7856.47
7856.85
7856.96
7856.78
7856.26
7855.4
7854.2
7852.71
7850.96
7849.04
7847.01
7844.95
7842.92
7840.98
7839.16
7837.52
7836.05
7834.77
7833.67
7832.75
7831.97
7831.32
7830.78
7830.34
7829.98
7829.68
7829.44
7829.24
7829.07
7828.93
7828.82
7828.72
7828.63
7828.55
7828.48
7828.42
7828.35
7828.29
7828.24
7828.18
7828.12
7828.06
7828
7827.94
7827.88
7827.82
7827.76
7827.69
7827.62
7827.55
7827.47
7827.39
7827.31
7827.21
7827.11
7827
7826.88
7826.74
7826.58
7826.4
7826.21
7825.98
7825.73
7825.45
7847.58
7848.77
7849.99
7851.18
7852.37
7853.51
7854.61
7855.6
7856.47
7857.17
7857.64
7857.84
7857.71
7857.2
7856.31
7855.02
7853.39
7851.48
7849.37
7847.16
7844.93
7842.74
7840.67
7838.76
7837.05
7835.55
7834.27
7833.19
7832.3
7831.56
7830.95
7830.46
7830.06
7829.74
7829.48
7829.27
7829.1
7828.96
7828.84
7828.74
7828.66
7828.58
7828.52
7828.45
7828.39
7828.34
7828.28
7828.23
7828.17
7828.12
7828.06
7828
7827.95
7827.89
7827.83
7827.76
7827.7
7827.63
7827.56
7827.49
7827.42
7827.33
7827.24
7827.15
7827.04
7826.92
7826.79
7826.64
7826.47
7826.28
7826.06
7825.8
7825.52
7847.58
7848.81
7850.08
7851.33
7852.6
7853.83
7855.03
7856.15
7857.16
7858
7858.61
7858.93
7858.89
7858.41
7857.48
7856.08
7854.27
7852.13
7849.79
7847.34
7844.88
7842.49
7840.26
7838.23
7836.43
7834.9
7833.63
7832.58
7831.73
7831.05
7830.51
7830.08
7829.73
7829.47
7829.25
7829.08
7828.94
7828.83
7828.74
7828.66
7828.6
7828.54
7828.48
7828.43
7828.38
7828.33
7828.27
7828.22
7828.17
7828.12
7828.06
7828.01
7827.95
7827.89
7827.84
7827.78
7827.71
7827.65
7827.58
7827.51
7827.44
7827.36
7827.28
7827.19
7827.09
7826.98
7826.86
7826.72
7826.56
7826.37
7826.15
7825.9
7825.61
7847.57
7848.84
7850.17
7851.47
7852.82
7854.15
7855.47
7856.72
7857.89
7858.89
7859.67
7860.14
7860.22
7859.8
7858.83
7857.28
7855.25
7852.85
7850.22
7847.49
7844.77
7842.17
7839.75
7837.59
7835.72
7834.17
7832.91
7831.91
7831.13
7830.52
7830.05
7829.68
7829.4
7829.19
7829.02
7828.89
7828.79
7828.71
7828.64
7828.59
7828.53
7828.49
7828.44
7828.4
7828.35
7828.31
7828.26
7828.22
7828.17
7828.12
7828.06
7828.01
7827.96
7827.9
7827.84
7827.78
7827.72
7827.66
7827.6
7827.53
7827.47
7827.39
7827.32
7827.24
7827.14
7827.04
7826.93
7826.8
7826.65
7826.47
7826.26
7826.01
7825.71
7847.54
7848.85
7850.23
7851.6
7853.04
7854.48
7855.94
7857.36
7858.73
7859.96
7860.98
7861.68
7861.93
7861.61
7860.62
7858.87
7856.53
7853.76
7850.74
7847.63
7844.58
7841.68
7839.03
7836.71
7834.74
7833.18
7831.98
7831.06
7830.38
7829.87
7829.49
7829.22
7829.02
7828.87
7828.76
7828.69
7828.63
7828.58
7828.54
7828.51
7828.48
7828.45
7828.41
7828.38
7828.34
7828.3
7828.26
7828.22
7828.17
7828.12
7828.07
7828.02
7827.96
7827.91
7827.85
7827.8
7827.74
7827.68
7827.62
7827.56
7827.49
7827.43
7827.36
7827.29
7827.2
7827.12
7827.01
7826.9
7826.76
7826.6
7826.4
7826.16
7825.86
7847.51
7848.83
7850.26
7851.69
7853.2
7854.75
7856.35
7857.96
7859.55
7861.03
7862.33
7863.32
7863.83
7863.67
7862.69
7860.67
7857.97
7854.75
7851.27
7847.75
7844.32
7841.11
7838.21
7835.71
7833.64
7832.09
7830.97
7830.17
7829.61
7829.22
7828.95
7828.76
7828.64
7828.57
7828.52
7828.49
7828.47
7828.46
7828.44
7828.43
7828.42
7828.4
7828.38
7828.35
7828.32
7828.29
7828.25
7828.21
7828.17
7828.12
7828.07
7828.02
7827.97
7827.91
7827.86
7827.8
7827.75
7827.69
7827.63
7827.58
7827.52
7827.46
7827.4
7827.33
7827.26
7827.18
7827.1
7827
7826.88
7826.73
7826.55
7826.32
7826.03
7847.48
7848.8
7850.27
7851.74
7853.33
7855.01
7856.78
7858.62
7860.49
7862.33
7864.03
7865.43
7866.34
7866.48
7865.55
7863.09
7859.81
7855.94
7851.81
7847.73
7843.81
7840.2
7836.98
7834.26
7832.07
7830.59
7829.65
7829.05
7828.67
7828.44
7828.32
7828.26
7828.24
7828.25
7828.27
7828.29
7828.32
7828.34
7828.36
7828.37
7828.38
7828.37
7828.36
7828.35
7828.32
7828.29
7828.26
7828.22
7828.17
7828.13
7828.08
7828.03
7827.98
7827.92
7827.87
7827.82
7827.76
7827.71
7827.65
7827.6
7827.55
7827.49
7827.44
7827.39
7827.33
7827.27
7827.2
7827.12
7827.02
7826.9
7826.75
7826.55
7826.27
7847.47
7848.74
7850.19
7851.69
7853.34
7855.13
7857.05
7859.11
7861.27
7863.48
7865.63
7867.56
7869.03
7869.69
7868.97
7865.91
7861.92
7857.26
7852.4
7847.7
7843.28
7839.24
7835.67
7832.69
7830.31
7828.95
7828.25
7827.91
7827.75
7827.69
7827.71
7827.77
7827.85
7827.94
7828.02
7828.1
7828.17
7828.23
7828.28
7828.31
7828.33
7828.34
7828.34
7828.33
7828.31
7828.29
7828.25
7828.22
7828.17
7828.13
7828.08
7828.03
7827.98
7827.93
7827.88
7827.82
7827.77
7827.72
7827.67
7827.62
7827.57
7827.52
7827.48
7827.43
7827.38
7827.34
7827.28
7827.23
7827.16
7827.07
7826.96
7826.8
7826.56
7847.52
7848.73
7850.07
7851.59
7853.28
7855.19
7857.3
7859.64
7862.17
7864.88
7867.67
7870.38
7872.72
7874.33
7873.99
7869.63
7864.5
7858.64
7852.72
7847.24
7842.19
7837.62
7833.63
7830.31
7827.69
7826.67
7826.48
7826.55
7826.7
7826.89
7827.09
7827.3
7827.49
7827.67
7827.82
7827.95
7828.07
7828.16
7828.23
7828.28
7828.31
7828.34
7828.34
7828.34
7828.32
7828.3
7828.27
7828.23
7828.19
7828.14
7828.1
7828.04
7827.99
7827.94
7827.89
7827.83
7827.78
7827.73
7827.68
7827.64
7827.59
7827.55
7827.52
7827.48
7827.45
7827.42
7827.39
7827.36
7827.32
7827.28
7827.22
7827.14
7826.98
7847.45
7848.45
7849.44
7850.38
7851.28
7852.09
7852.81
7853.41
7853.87
7854.17
7854.29
7854.2
7853.91
7853.39
7852.66
7851.72
7850.59
7849.31
7847.9
7846.4
7844.84
7843.28
7841.73
7840.24
7838.83
7837.5
7836.29
7835.19
7834.21
7833.34
7832.58
7831.92
7831.34
7830.85
7830.44
7830.08
7829.78
7829.53
7829.31
7829.13
7828.97
7828.83
7828.71
7828.61
7828.51
7828.43
7828.35
7828.27
7828.2
7828.13
7828.07
7828
7827.93
7827.86
7827.79
7827.72
7827.65
7827.57
7827.49
7827.4
7827.31
7827.21
7827.1
7826.98
7826.85
7826.7
7826.55
7826.37
7826.19
7825.98
7825.76
7825.52
7825.27
7846.58
7846.6
7846.6
7846.61
7846.61
7846.61
7846.61
7846.6
7846.57
7846.54
7846.5
7846.46
7846.42
7846.41
7846.46
7846.58
7845.73
7845.74
7845.73
7845.73
7845.72
7845.71
7845.69
7845.66
7845.63
7845.59
7845.54
7845.5
7845.45
7845.45
7845.49
7845.73
7844.88
7844.88
7844.87
7844.86
7844.84
7844.82
7844.79
7844.75
7844.71
7844.67
7844.61
7844.57
7844.53
7844.54
7844.59
7844.88
7844.06
7844.06
7844.04
7844.03
7844
7843.98
7843.94
7843.9
7843.86
7843.82
7843.77
7843.73
7843.7
7843.71
7843.76
7844.06
7843.26
7843.26
7843.24
7843.22
7843.2
7843.17
7843.13
7843.1
7843.06
7843.02
7842.98
7842.95
7842.93
7842.96
7843.02
7843.26
7842.5
7842.5
7842.48
7842.47
7842.44
7842.42
7842.38
7842.35
7842.32
7842.29
7842.26
7842.24
7842.23
7842.27
7842.34
7842.51
7841.78
7841.77
7841.76
7841.74
7841.72
7841.7
7841.67
7841.65
7841.62
7841.61
7841.59
7841.59
7841.59
7841.64
7841.72
7841.78
7841.09
7841.09
7841.08
7841.07
7841.05
7841.03
7841.01
7841
7840.98
7840.98
7840.97
7840.98
7841
7841.06
7841.15
7841.09
7840.44
7840.44
7840.43
7840.42
7840.41
7840.4
7840.39
7840.39
7840.39
7840.39
7840.4
7840.43
7840.45
7840.53
7840.63
7840.44
7839.82
7839.82
7839.82
7839.82
7839.81
7839.82
7839.82
7839.82
7839.83
7839.85
7839.87
7839.91
7839.95
7840.03
7840.14
7839.82
7839.24
7839.24
7839.24
7839.25
7839.25
7839.26
7839.27
7839.29
7839.31
7839.35
7839.38
7839.44
7839.49
7839.58
7839.7
7839.24
7838.69
7838.7
7838.7
7838.71
7838.72
7838.74
7838.76
7838.8
7838.83
7838.88
7838.93
7838.99
7839.06
7839.16
7839.29
7838.69
7838.16
7838.18
7838.18
7838.2
7838.22
7838.25
7838.28
7838.33
7838.37
7838.44
7838.5
7838.58
7838.66
7838.77
7838.91
7838.16
7837.67
7837.69
7837.7
7837.72
7837.75
7837.79
7837.83
7837.89
7837.95
7838.02
7838.1
7838.19
7838.29
7838.41
7838.56
7837.67
7837.2
7837.21
7837.23
7837.26
7837.3
7837.35
7837.4
7837.47
7837.54
7837.63
7837.72
7837.83
7837.94
7838.07
7838.24
7837.19
7836.75
7836.77
7836.79
7836.83
7836.87
7836.93
7836.99
7837.07
7837.16
7837.26
7837.36
7837.48
7837.61
7837.76
7837.93
7836.74
7836.31
7836.33
7836.36
7836.41
7836.46
7836.52
7836.6
7836.69
7836.79
7836.9
7837.02
7837.15
7837.29
7837.45
7837.65
7836.3
7835.89
7835.92
7835.95
7836
7836.06
7836.13
7836.22
7836.32
7836.43
7836.55
7836.69
7836.83
7836.99
7837.17
7837.38
7835.88
7835.48
7835.51
7835.54
7835.6
7835.66
7835.75
7835.84
7835.95
7836.07
7836.21
7836.36
7836.52
7836.69
7836.89
7837.12
7835.47
7835.08
7835.11
7835.15
7835.21
7835.28
7835.37
7835.47
7835.59
7835.72
7835.87
7836.03
7836.21
7836.4
7836.61
7836.88
7835.07
7834.78
7834.82
7834.86
7834.92
7835
7835.09
7835.2
7835.32
7835.46
7835.62
7835.78
7835.97
7836.17
7836.39
7836.66
7834.77
7834.52
7834.56
7834.6
7834.67
7834.75
7834.85
7834.96
7835.09
7835.23
7835.39
7835.56
7835.75
7835.96
7836.18
7836.45
7834.51
7834.26
7834.3
7834.34
7834.41
7834.49
7834.59
7834.71
7834.84
7834.99
7835.15
7835.33
7835.53
7835.74
7835.96
7836.23
7834.25
7834.01
7834.05
7834.1
7834.17
7834.25
7834.36
7834.47
7834.61
7834.76
7834.93
7835.11
7835.31
7835.52
7835.75
7836.01
7834
7833.78
7833.82
7833.87
7833.94
7834.03
7834.13
7834.25
7834.39
7834.55
7834.72
7834.9
7835.1
7835.31
7835.54
7835.79
7833.77
7833.56
7833.6
7833.65
7833.73
7833.81
7833.92
7834.04
7834.19
7834.34
7834.51
7834.7
7834.9
7835.11
7835.33
7835.58
7833.55
7833.36
7833.4
7833.45
7833.53
7833.61
7833.72
7833.85
7833.99
7834.15
7834.32
7834.5
7834.7
7834.91
7835.13
7835.38
7833.35
7833.17
7833.21
7833.26
7833.34
7833.43
7833.54
7833.66
7833.8
7833.96
7834.13
7834.32
7834.51
7834.72
7834.94
7835.17
7833.16
7832.99
7833.04
7833.09
7833.16
7833.25
7833.36
7833.49
7833.63
7833.78
7833.95
7834.14
7834.33
7834.53
7834.75
7834.98
7832.98
7832.83
7832.87
7832.92
7833
7833.09
7833.2
7833.32
7833.46
7833.62
7833.78
7833.96
7834.15
7834.35
7834.56
7834.78
7832.82
7832.68
7832.72
7832.77
7832.85
7832.93
7833.04
7833.16
7833.3
7833.45
7833.62
7833.8
7833.98
7834.18
7834.38
7834.59
7832.67
7832.54
7832.58
7832.63
7832.7
7832.79
7832.9
7833.02
7833.15
7833.3
7833.46
7833.63
7833.81
7834
7834.2
7834.41
7832.53
7832.41
7832.45
7832.5
7832.57
7832.66
7832.76
7832.88
7833.01
7833.15
7833.31
7833.48
7833.65
7833.84
7834.02
7834.22
7832.4
7832.29
7832.33
7832.38
7832.45
7832.53
7832.63
7832.74
7832.87
7833.01
7833.16
7833.33
7833.49
7833.67
7833.85
7834.04
7832.28
7832.19
7832.22
7832.27
7832.34
7832.42
7832.51
7832.62
7832.74
7832.88
7833.02
7833.18
7833.34
7833.51
7833.68
7833.86
7832.17
7832.09
7832.13
7832.17
7832.24
7832.31
7832.4
7832.51
7832.62
7832.75
7832.89
7833.04
7833.19
7833.35
7833.51
7833.68
7832.08
7832.01
7832.04
7832.08
7832.15
7832.22
7832.3
7832.4
7832.51
7832.63
7832.76
7832.9
7833.04
7833.19
7833.34
7833.5
7832
7831.94
7831.97
7832.01
7832.07
7832.14
7832.22
7832.31
7832.41
7832.52
7832.64
7832.77
7832.9
7833.04
7833.18
7833.33
7831.93
7831.88
7831.91
7831.95
7832
7832.06
7832.14
7832.22
7832.32
7832.42
7832.53
7832.65
7832.77
7832.89
7833.02
7833.15
7831.87
7831.84
7831.87
7831.9
7831.95
7832.01
7832.07
7832.15
7832.24
7832.33
7832.43
7832.53
7832.64
7832.75
7832.86
7832.97
7831.83
7831.82
7831.84
7831.87
7831.91
7831.96
7832.02
7832.09
7832.17
7832.25
7832.33
7832.42
7832.51
7832.61
7832.7
7832.8
7831.81
7831.81
7831.83
7831.86
7831.9
7831.94
7831.99
7832.05
7832.11
7832.18
7832.25
7832.33
7832.4
7832.48
7832.55
7832.63
7831.81
7831.82
7831.84
7831.86
7831.89
7831.93
7831.97
7832.02
7832.07
7832.13
7832.18
7832.24
7832.3
7832.36
7832.41
7832.45
7831.82
7831.86
7831.87
7831.89
7831.91
7831.94
7831.98
7832.01
7832.05
7832.09
7832.14
7832.18
7832.22
7832.25
7832.28
7832.29
7831.86
7831.91
7831.92
7831.94
7831.95
7831.97
7832
7832.02
7832.05
7832.08
7832.1
7832.13
7832.15
7832.17
7832.17
7832.14
7831.91
7832.02
7832.03
7832.03
7832.04
7832.05
7832.06
7832.07
7832.08
7832.09
7832.1
7832.11
7832.12
7832.12
7832.11
7832.08
7832.02
7832.09
7832.09
7832.09
7832.1
7832.1
7832.1
7832.11
7832.11
7832.11
7832.11
7832.1
7832.1
7832.09
7832.07
7832.05
7832.09
7832.09
7832.09
7832.09
7832.1
7832.1
7832.1
7832.11
7832.11
7832.11
7832.11
7832.1
7832.1
7832.09
7832.07
7832.05
7832.09
7832.09
7832.09
7832.09
7832.1
7832.1
7832.1
7832.11
7832.11
7832.11
7832.11
7832.1
7832.1
7832.09
7832.07
7832.05
7832.09
)
;

boundaryField
{
    wireUpstream
    {
        type            calculated;
        value           nonuniform List<scalar> 
16
(
7832.19
7832.19
7832.19
7832.19
7832.18
7832.18
7832.17
7832.16
7832.15
7832.13
7832.12
7832.1
7832.08
7832.05
7832.04
7832.2
)
;
    }
    wireDownstream
    {
        type            calculated;
        value           nonuniform List<scalar> 
16
(
7825.27
7825.28
7825.3
7825.32
7825.36
7825.4
7825.45
7825.52
7825.61
7825.71
7825.86
7826.03
7826.27
7826.56
7826.98
7825.27
)
;
    }
    wireTopContact
    {
        type            calculated;
        value           nonuniform List<scalar> 
122
(
7848.75
7850.08
7851.6
7853.29
7855.2
7857.3
7859.64
7862.15
7864.84
7867.62
7870.31
7872.66
7874.41
7874.27
7869.56
7864.52
7858.68
7852.76
7847.32
7842.28
7837.71
7833.71
7830.38
7827.68
7826.72
7826.52
7826.55
7826.68
7826.86
7827.06
7827.26
7827.45
7827.63
7827.78
7827.92
7828.04
7828.13
7828.2
7828.26
7828.3
7828.32
7828.33
7828.33
7828.31
7828.29
7828.26
7828.22
7828.18
7828.14
7828.09
7828.04
7827.99
7827.94
7827.88
7827.83
7827.78
7827.73
7827.68
7827.64
7827.6
7827.55
7827.52
7827.48
7827.45
7827.42
7827.39
7827.36
7827.32
7827.28
7827.21
7827.13
7847.54
7846.47
7845.5
7844.59
7843.77
7843.02
7842.34
7841.72
7841.15
7840.63
7840.15
7839.7
7839.3
7838.92
7838.57
7838.24
7837.94
7837.65
7837.38
7837.13
7836.88
7836.66
7836.46
7836.23
7836.01
7835.8
7835.59
7835.38
7835.18
7834.98
7834.79
7834.6
7834.41
7834.23
7834.04
7833.86
7833.68
7833.51
7833.33
7833.15
7832.98
7832.8
7832.63
7832.45
7832.29
7832.14
7832.09
7832.08
7832.08
7832.08
7826.97
)
;
    }
    front
    {
        type            wedge;
    }
    back
    {
        type            wedge;
    }
}


// ************************************************************************* //
