/*--------------------------------*- C++ -*----------------------------------*\
| =========                 |                                                 |
| \\      /  F ield         | foam-extend: Open Source CFD                    |
|  \\    /   O peration     | Version:     4.1-20200408                       |
|   \\  /    A nd           | Web:         http://www.foam-extend.org         |
|    \\/     M anipulation  |                                                 |
\*---------------------------------------------------------------------------*/
FoamFile
{
    version     2.0;
    format      ascii;
    class       volScalarField;
    location    "0.0365000";
    object      ccz;
}
// * * * * * * * * * * * * * * * * * * * * * * * * * * * * * * * * * * * * * //

dimensions      [0 1 0 0 0 0 0];

internalField   nonuniform List<scalar> 
1952
(
1.11095e-12
5.33468e-12
-1.78992e-12
-1.89846e-11
7.71133e-13
2.5e-11
-5.73538e-13
-2.50004e-11
1.31873e-11
3.72919e-11
-3.80859e-13
-2.49996e-11
3.22123e-13
2.5e-11
-2.73805e-13
1.59445e-12
-1.2552e-23
5.33334e-12
-1.78537e-12
-1.89813e-11
1.36379e-11
3.71793e-11
1.22224e-11
-1.27454e-11
4.39224e-13
1.23016e-11
-2.53626e-11
-3.73333e-11
3.09044e-13
1.23562e-11
-1.26349e-11
-7.23083e-14
1.11113e-12
5.33334e-12
-4.76528e-13
-1.7778e-11
7.56818e-13
2.50004e-11
1.22219e-11
-2.54895e-11
-2.45604e-11
4.89601e-22
-1.26815e-11
-1.23334e-11
1.26544e-11
2.49997e-11
1.23652e-11
1.59437e-12
2.22222e-12
5.33334e-12
-1.7857e-12
-6.01849e-12
0
-1.48397e-22
5.57254e-22
-1.27453e-11
4.38398e-13
2.49997e-11
1.23186e-11
-1.43854e-21
2.5309e-11
5e-11
2.47306e-11
3.26097e-12
1.11113e-12
4.00002e-12
-4.28571e-12
-7.22196e-12
1.28782e-11
1.21793e-11
3.00142e-22
-1.27454e-11
1.3157e-11
3.73013e-11
-3.62302e-13
-1.2333e-11
2.53091e-11
3.73562e-11
1.23658e-11
1.59439e-12
1.1111e-12
4.00011e-12
-4.28537e-12
-7.22221e-12
1.28794e-11
2.5e-11
1.2222e-11
-2.54903e-11
8.7751e-13
2.4603e-11
-1.26815e-11
-1.23333e-11
1.26547e-11
1.23562e-11
-1.2635e-11
1.59435e-12
2.22214e-12
5.33318e-12
-1.78611e-12
-6.01873e-12
-1.46223e-22
1.28207e-11
1.22219e-11
-2.54895e-11
-1.18405e-11
1.23017e-11
0
-1.26667e-11
3.0988e-13
1.23563e-11
-1.26349e-11
3.26104e-12
1.11117e-12
4.00002e-12
-1.66665e-12
-4.81464e-12
1.28787e-11
2.49997e-11
1.22224e-11
-2.54911e-11
-1.1842e-11
2.49998e-11
1.23185e-11
-1.2667e-11
1.29635e-11
2.47121e-11
1.48926e-21
1.59443e-12
1.1111e-12
3.99999e-12
-1.66669e-12
-1.77776e-11
7.5789e-13
3.78211e-11
2.44444e-11
-1.27453e-11
4.38767e-13
3.76987e-11
1.19563e-11
-2.49997e-11
1.29625e-11
3.73559e-11
1.23651e-11
1.59436e-12
1.11113e-12
5.3335e-12
-1.78571e-12
-1.89816e-11
7.5722e-13
2.5e-11
1.22219e-11
-1.2745e-11
-1.22805e-11
2.5397e-11
1.1956e-11
-2.50003e-11
1.29634e-11
3.73562e-11
1.23655e-11
1.59438e-12
1.11106e-12
5.33318e-12
-1.78574e-12
-6.01852e-12
1.2879e-11
1.21792e-11
4.7182e-22
-1.27457e-11
4.38339e-13
2.5e-11
-3.62239e-13
-1.23331e-11
2.53091e-11
2.47113e-11
-1.26342e-11
1.59437e-12
2.22222e-12
5.33334e-12
-1.78571e-12
-1.89813e-11
-1.21207e-11
2.47502e-22
1.28686e-22
-1.2745e-11
1.31583e-11
2.4603e-11
-1.26814e-11
-1.23333e-11
1.26551e-11
1.23566e-11
-1.26352e-11
3.26106e-12
8.33473e-13
4.16689e-12
-1.78574e-12
-1.89816e-11
-1.21217e-11
-2.97024e-22
-8.57884e-23
-1.27449e-11
1.31593e-11
2.4603e-11
-1.26811e-11
-1.2333e-11
-1.3321e-21
2.65561e-22
1.57253e-21
3.26112e-12
-5.55551e-13
3.00001e-12
-1.78571e-12
-1.89813e-11
7.5847e-13
1.21793e-11
-1.27777e-11
-1.22547e-11
2.54388e-11
2.4603e-11
-1.26819e-11
-2.5e-11
-1.23458e-11
-2.6555e-22
-1.65524e-22
3.26107e-12
-5.55711e-13
2.99976e-12
-3.09566e-12
-2.01853e-11
7.56826e-13
2.5e-11
-5.55972e-13
-2.5e-11
1.31583e-11
2.4603e-11
2.23643e-22
-1.26669e-11
3.0957e-13
1.23563e-11
-9.10429e-22
3.26101e-12
-5.55551e-13
3.00001e-12
-1.78574e-12
-1.89813e-11
-1.21206e-11
2.56403e-11
2.44444e-11
-2.54912e-11
8.77522e-13
2.4603e-11
-1.26811e-11
-1.2333e-11
1.26546e-11
2.5e-11
1.23651e-11
3.26107e-12
8.33321e-13
4.16687e-12
-1.78534e-12
-1.89819e-11
-1.21217e-11
1.28211e-11
1.22223e-11
-1.27453e-11
4.38767e-13
1.23016e-11
-1.26814e-11
-1.23333e-11
1.26544e-11
2.5e-11
1.23659e-11
3.26108e-12
2.22222e-12
5.33334e-12
-3.09525e-12
-7.22221e-12
4.68222e-22
-4.95213e-23
-6.00785e-22
4.16418e-22
-6.77315e-23
-1.8378e-22
-4.47331e-22
0
1.26542e-11
1.23562e-11
-1.15897e-21
3.26108e-12
1.11116e-12
5.33334e-12
-3.09566e-12
-7.22246e-12
-7.0246e-22
1.48573e-22
5.14995e-22
1.17374e-21
1.6934e-21
1.22542e-22
5.59193e-23
7.19951e-22
1.26548e-11
1.23559e-11
5.79525e-22
1.59446e-12
-2.77773e-13
4.16668e-12
-1.78574e-12
-6.01832e-12
5.85305e-23
1.282e-11
1.22216e-11
-3.78654e-23
1.27196e-11
1.23014e-11
-6.15221e-22
4.11464e-22
1.26547e-11
1.23562e-11
6.62356e-22
1.5944e-12
8.33321e-13
4.16666e-12
-1.78571e-12
-6.01849e-12
-3.22003e-22
1.28211e-11
1.22223e-11
6.05825e-22
2.54388e-11
2.4603e-11
2.79664e-22
-1.26671e-11
3.09062e-13
1.23563e-11
3.0639e-21
3.26109e-12
1.11108e-12
4.00002e-12
-2.97587e-12
-6.01852e-12
-1.46359e-22
1.28204e-11
1.22221e-11
9.08788e-22
1.27195e-11
2.5e-11
1.23186e-11
-1.26669e-11
3.09066e-13
2.5e-11
1.23651e-11
1.59444e-12
1.1111e-12
3.99999e-12
-2.97653e-12
-6.0185e-12
-2.9274e-23
1.28207e-11
1.22223e-11
8.33191e-22
1.27193e-11
2.5e-11
1.23185e-11
2.26327e-21
1.04724e-21
2.52871e-11
2.47306e-11
1.59441e-12
8.33351e-13
4.16668e-12
-1.78574e-12
-6.01852e-12
7.61169e-22
0
-3.86341e-22
-1.51484e-22
1.27195e-11
1.23016e-11
8.95112e-22
-1.26671e-11
3.08232e-13
2.5e-11
1.23654e-11
3.2611e-12
-2.77699e-13
4.16687e-12
-1.78571e-12
-6.0185e-12
1.28787e-11
1.21793e-11
-1.27782e-11
-1.22546e-11
1.27193e-11
1.2301e-11
-3.35656e-22
-1.26669e-11
3.09897e-13
1.23562e-11
1.65643e-22
1.59445e-12
-1.38891e-12
2.83337e-12
-2.9762e-12
-6.01852e-12
2.57576e-11
3.71789e-11
-5.55125e-13
-2.5e-11
4.39905e-13
1.23016e-11
1.45461e-21
-1.26667e-11
-1.23457e-11
2.65786e-22
0
-7.22307e-14
-1.66668e-12
1.66666e-12
-1.66669e-12
-1.77777e-11
7.57952e-13
2.50002e-11
1.22219e-11
-1.27453e-11
4.38535e-13
1.23013e-11
-1.26812e-11
-2.5e-11
-1.23452e-11
-6.20084e-22
1.49084e-21
1.59442e-12
8.33322e-13
4.16646e-12
-1.78608e-12
-3.19451e-11
-2.42424e-11
1.28204e-11
1.22224e-11
-1.06079e-21
2.54388e-11
2.4603e-11
-1.26814e-11
-1.23329e-11
5.71408e-22
1.26437e-11
1.23652e-11
3.26117e-12
2.22222e-12
5.3335e-12
-1.78573e-12
-3.19439e-11
-1.13625e-11
3.78204e-11
1.16654e-11
-2.49998e-11
4.38245e-13
1.23012e-11
-1.28717e-21
-1.26667e-11
-1.23449e-11
1.26441e-11
1.23655e-11
3.26106e-12
-2.7775e-13
2.83337e-12
-1.66638e-12
-1.77782e-11
7.57655e-13
2.50003e-11
-1.33333e-11
-3.7255e-11
-1.22803e-11
1.83944e-22
-1.26816e-11
-2.5e-11
-1.23456e-11
1.77205e-22
-1.26345e-11
1.5945e-12
-1.6668e-12
1.66646e-12
-2.97653e-12
-6.01849e-12
-2.92914e-23
1.28204e-11
-5.56695e-13
-1.2255e-11
1.27193e-11
1.23013e-11
-1.26814e-11
-2.5e-11
-1.23454e-11
1.24064e-21
-1.26349e-11
1.59441e-12
-2.77699e-13
4.16686e-12
-1.78574e-12
-6.01852e-12
5.85866e-23
1.28207e-11
1.22223e-11
-1.27455e-11
4.39072e-13
2.5e-11
1.23186e-11
-1.26674e-11
-1.23457e-11
5.31738e-22
9.94333e-22
1.59451e-12
-2.77773e-13
2.83337e-12
-1.66666e-12
-4.81481e-12
-6.15329e-22
2.47894e-22
-2.14796e-22
-1.27453e-11
-1.22804e-11
1.26986e-11
1.23185e-11
-3.08835e-22
-5.71611e-22
1.26438e-11
1.23651e-11
1.59444e-12
-5.55553e-13
1.66666e-12
-1.6667e-12
-1.77779e-11
-1.21211e-11
0
7.73316e-22
-1.2745e-11
4.39581e-13
1.23013e-11
1.11965e-22
1.23542e-21
1.26544e-11
3.76438e-11
2.47306e-11
3.26113e-12
8.33315e-13
4.16666e-12
-4.76531e-13
-1.77777e-11
-1.21209e-11
-4.46234e-22
3.43689e-22
-2.54903e-11
-1.1843e-11
2.5e-11
1.23186e-11
1.02969e-22
1.26551e-11
2.50003e-11
1.23659e-11
3.26113e-12
2.22222e-12
5.33334e-12
-1.78571e-12
-6.01828e-12
1.28782e-11
2.49996e-11
1.2222e-11
-1.27453e-11
4.39235e-13
2.5e-11
1.23184e-11
2.05914e-22
5.71673e-22
2.65921e-22
-8.28709e-22
3.26114e-12
2.22222e-12
5.3335e-12
-1.78538e-12
-1.89813e-11
1.3638e-11
3.71796e-11
1.22224e-11
3.7912e-23
2.54388e-11
2.46021e-11
1.67982e-22
-1.26671e-11
3.09062e-13
1.23559e-11
1.65754e-22
3.26114e-12
1.11114e-12
5.33334e-12
-1.7857e-12
-1.89818e-11
7.57673e-13
1.21797e-11
2.57888e-22
-1.27454e-11
1.31583e-11
2.4603e-11
-1.26811e-11
-3.76671e-11
6.18132e-13
3.73555e-11
-2.69381e-13
1.59452e-12
1.11106e-12
5.33324e-12
-3.09551e-12
-7.22212e-12
1.28785e-11
2.49994e-11
1.22222e-11
-2.54907e-11
-1.18408e-11
1.23015e-11
-1.26817e-11
-3.76669e-11
-1.20352e-11
2.50004e-11
-1.2904e-11
1.59443e-12
1.11115e-12
5.33334e-12
-1.78583e-12
-6.01853e-12
1.28793e-11
2.50006e-11
1.22224e-11
-2.54905e-11
-1.18417e-11
1.23011e-11
-1.26813e-11
-3.76668e-11
-1.20359e-11
1.23556e-11
-1.26351e-11
1.59454e-12
1.11107e-12
5.33334e-12
-4.76215e-13
-4.8148e-12
1.28785e-11
2.49992e-11
1.22218e-11
-1.27456e-11
4.38998e-13
1.23015e-11
-1.26817e-11
-2.50005e-11
3.09595e-13
1.2356e-11
-3.31568e-22
1.59442e-12
2.22222e-12
4.00007e-12
-2.97607e-12
-6.01844e-12
1.28793e-11
2.5001e-11
1.22226e-11
-1.27448e-11
4.39008e-13
2.49994e-11
1.23182e-11
1.03021e-21
1.26547e-11
1.23554e-11
1.65793e-22
3.26116e-12
1.11118e-12
3.99992e-12
-2.97634e-12
-1.89808e-11
7.57617e-13
1.21788e-11
2.58048e-22
-2.54904e-11
8.77934e-13
5e-11
1.19558e-11
-1.23326e-11
2.53098e-11
2.47113e-11
-1.65806e-22
1.59459e-12
-2.77751e-13
4.16675e-12
-1.7856e-12
-1.89823e-11
7.57469e-13
2.5e-11
1.22215e-11
-1.27458e-11
1.31579e-11
3.73018e-11
-3.62971e-13
-1.23331e-11
1.26552e-11
1.23558e-11
-1.07781e-21
1.59438e-12
-2.77793e-13
4.16655e-12
-3.09513e-12
-2.01842e-11
7.57494e-13
2.5e-11
1.22231e-11
-1.27444e-11
1.31587e-11
2.46028e-11
-1.2681e-11
-1.23325e-11
1.26547e-11
1.23551e-11
-4.97486e-22
1.59464e-12
1.36254e-22
5.33331e-12
-3.09518e-12
-2.01863e-11
7.57463e-13
1.21806e-11
-6.02473e-22
-1.27459e-11
4.38694e-13
1.23022e-11
-1.2682e-11
-2.5e-11
1.29654e-11
3.73551e-11
1.23641e-11
-7.21607e-14
-2.69155e-23
5.33331e-12
-3.0951e-12
-7.22231e-12
3.52272e-22
1.28192e-11
1.22212e-11
-1.27438e-11
4.38435e-13
1.23007e-11
-4.48601e-22
-1.26677e-11
1.29644e-11
5e-11
2.47281e-11
-7.21571e-14
1.11099e-12
5.33328e-12
-1.78574e-12
-6.01875e-12
-5.28541e-22
2.56406e-11
2.44449e-11
-1.27462e-11
1.31561e-11
2.46035e-11
2.24385e-22
5.15782e-22
2.53097e-11
5e-11
1.20921e-11
1.59432e-12
2.22224e-12
5.33329e-12
-1.78536e-12
-6.01848e-12
-7.92962e-22
2.56404e-11
2.44451e-11
4.17939e-22
1.27205e-11
1.23032e-11
-1.57126e-21
-1.26653e-11
3.12183e-13
3.76458e-11
-5.44349e-13
3.26118e-12
-2.77437e-13
2.83358e-12
-2.97607e-12
-6.01881e-12
2.64376e-22
2.56403e-11
2.44452e-11
7.60108e-23
-2.72006e-22
-4.30556e-22
-7.85982e-22
-1.26683e-11
3.05763e-13
2.5e-11
-1.2905e-11
1.59473e-12
-2.77775e-12
1.66644e-12
-1.66664e-12
-4.81492e-12
3.23197e-22
1.28219e-11
1.22244e-11
-7.22336e-22
1.2717e-11
1.23003e-11
1.40424e-21
-8.26468e-22
2.53086e-11
2.47121e-11
-1.26365e-11
-7.21419e-14
-2.77776e-12
1.66674e-12
-1.66636e-12
-4.81494e-12
-4.70168e-22
-1.49192e-22
-9.05101e-22
-1.27427e-11
1.31579e-11
2.46044e-11
-1.26786e-11
-2.49963e-11
3.11331e-13
2.5e-11
1.2364e-11
-7.21381e-14
-2.77775e-12
3.33271e-13
-2.85698e-12
-4.81495e-12
-7.05345e-22
-1.49216e-22
2.15546e-22
-2.54889e-11
-1.18425e-11
1.23042e-11
-1.26822e-11
-2.50035e-11
-1.23482e-11
1.26447e-11
1.23673e-11
-7.21337e-14
-1.66673e-12
1.66644e-12
-1.66661e-12
-4.81497e-12
-5.87835e-23
1.28186e-11
1.22214e-11
-1.2746e-11
4.33705e-13
1.23009e-11
1.40628e-21
-2.06976e-22
-4.79035e-22
0
5.00329e-22
1.59438e-12
8.33279e-13
4.16651e-12
-4.75955e-13
-4.81494e-12
-8.22942e-22
1.28211e-11
1.2224e-11
7.60996e-23
1.27197e-11
1.23041e-11
5.62733e-23
-1.26635e-11
3.05321e-13
2.49974e-11
1.23666e-11
3.2612e-12
1.11115e-12
5.33325e-12
-1.78543e-12
-6.01868e-12
1.28778e-11
1.21794e-11
4.74288e-22
1.52201e-22
1.27175e-11
1.23019e-11
1.0132e-21
-1.2666e-11
1.29549e-11
5e-11
2.47374e-11
1.59459e-12
1.11114e-12
3.99993e-12
-4.28547e-12
-2.01851e-11
1.36349e-11
2.43602e-11
-9.48419e-22
-7.60922e-23
2.54365e-11
2.46059e-11
5.06647e-22
1.65767e-21
1.26518e-11
2.50001e-11
1.23701e-11
1.59456e-12
2.22225e-12
2.66662e-12
-4.16637e-12
-1.89804e-11
7.5648e-13
1.21794e-11
-4.31e-23
-1.2745e-11
4.34336e-13
1.23022e-11
-1.12595e-21
-1.03625e-22
1.2652e-11
2.50024e-11
1.23728e-11
3.26121e-12
2.22225e-12
2.66662e-12
-4.16658e-12
-6.01893e-12
-4.99232e-22
1.28217e-11
1.2225e-11
-1.27418e-11
-1.228e-11
1.23268e-22
-5.6305e-23
-1.26665e-11
2.95744e-13
2.4995e-11
1.23699e-11
3.26122e-12
1.11089e-12
4.0002e-12
-4.28506e-12
-2.01879e-11
-1.21249e-11
1.28165e-11
1.22202e-11
0
1.27212e-11
1.23073e-11
1.68946e-22
-2.53273e-11
-2.4699e-11
2.41676e-21
-4.19317e-22
1.5942e-12
-2.77824e-13
4.16612e-12
-1.78487e-12
-1.89766e-11
-1.2118e-11
1.9884e-22
-6.03349e-22
-1.27482e-11
4.2536e-13
1.2299e-11
-1.26837e-11
-2.49999e-11
-1.23443e-11
1.26439e-11
1.23744e-11
1.59507e-12
-2.77622e-13
4.16694e-12
-4.75707e-13
-4.81509e-12
-1.17478e-22
9.44653e-22
8.62068e-23
-2.54868e-11
-1.18421e-11
1.23095e-11
-1.26726e-11
-1.23305e-11
1.26568e-11
2.49999e-11
1.23653e-11
1.59392e-12
1.11164e-12
3.99927e-12
-1.6668e-12
-1.77834e-11
7.55997e-13
2.50121e-11
1.22298e-11
-2.54868e-11
8.69354e-13
3.73102e-11
1.23274e-11
-1.26704e-11
2.92388e-13
2.50001e-11
1.23721e-11
1.59531e-12
1.1106e-12
2.66658e-12
-2.85673e-12
-1.77708e-11
7.55128e-13
3.78129e-11
2.44474e-11
-2.54868e-11
-1.18545e-11
3.76899e-11
2.46416e-11
-1.26585e-11
-1.23415e-11
1.26375e-11
1.23622e-11
1.59377e-12
-2.00286e-22
4.0005e-12
-2.97572e-12
-6.01959e-12
1.47008e-22
1.28126e-11
1.22173e-11
-1.27367e-11
4.48677e-13
2.49998e-11
1.23141e-11
-1.26715e-11
-1.2352e-11
-1.78924e-21
-1.67425e-21
-7.20857e-14
-1.38951e-12
4.16586e-12
-1.78443e-12
-1.89867e-11
-1.21282e-11
1.28255e-11
1.22296e-11
-1.275e-11
4.23064e-13
1.22969e-11
0
-2.5332e-11
-2.4691e-11
1.26495e-11
1.2368e-11
-7.2083e-14
-1.38825e-12
4.1669e-12
-4.75611e-13
-1.77715e-11
7.66474e-13
2.49997e-11
1.22181e-11
-1.27381e-11
4.47295e-13
1.23081e-11
6.7641e-22
-2.53335e-11
-1.2029e-11
2.49999e-11
1.23587e-11
-7.20808e-14
-1.38941e-12
4.16594e-12
-1.78558e-12
-6.01944e-12
2.57555e-11
2.43614e-11
-6.91324e-22
-1.27487e-11
4.26959e-13
1.22977e-11
-7.89309e-22
-1.26626e-11
1.29726e-11
2.47069e-11
-9.1896e-22
-7.20794e-14
-2.76828e-13
4.16684e-12
-1.78467e-12
-1.89852e-11
7.47184e-13
1.21764e-11
6.48469e-22
-2.5488e-11
-2.45633e-11
6.17783e-23
-1.57911e-21
-7.26228e-22
2.53131e-11
2.47059e-11
1.08548e-21
1.59517e-12
-2.78517e-13
4.16608e-12
-4.75688e-13
-1.77735e-11
7.63286e-13
2.50072e-11
1.22263e-11
-1.27412e-11
4.43456e-13
2.50051e-11
1.23209e-11
1.3486e-21
1.26536e-11
1.23501e-11
1.66957e-21
1.59405e-12
-2.77034e-13
4.16682e-12
-4.75837e-13
-1.77808e-11
7.50258e-13
2.49942e-11
1.22198e-11
-1.27476e-11
4.33936e-13
2.49956e-11
1.23164e-11
6.22124e-22
-1.91903e-22
-3.57174e-22
-1.66946e-22
1.59505e-12
2.22224e-12
5.33327e-12
-4.76054e-13
-1.77748e-11
-1.21189e-11
4.99041e-23
5.18923e-22
-1.2743e-11
-1.22784e-11
5.55574e-22
-1.74661e-21
1.03635e-22
1.26568e-11
1.23563e-11
1.08502e-21
3.26125e-12
-2.78257e-13
4.1664e-12
-4.76108e-13
-4.81483e-12
1.2881e-11
2.50041e-11
1.22241e-11
-1.27471e-11
4.39162e-13
1.23026e-11
-2.81603e-22
6.21581e-22
2.53108e-11
3.73562e-11
1.23651e-11
1.59426e-12
-1.66648e-12
1.66641e-12
-1.66684e-12
-1.77798e-11
7.53993e-13
3.78189e-11
2.44442e-11
-2.54906e-11
8.78927e-13
2.46021e-11
-8.44531e-22
-2.07139e-22
1.26543e-11
2.49979e-11
1.23633e-11
1.59487e-12
-2.7773e-13
2.83369e-12
-2.97624e-12
-1.898e-11
-1.21196e-11
1.28192e-11
1.22207e-11
-2.54908e-11
-1.1842e-11
1.23e-11
-1.97014e-21
-2.07092e-21
1.26562e-11
1.23562e-11
1.00117e-21
1.59436e-12
1.11125e-12
5.33334e-12
-1.78559e-12
-6.01834e-12
1.76682e-22
1.2822e-11
1.22231e-11
-1.27444e-11
-1.22793e-11
-7.39803e-22
-1.26827e-11
-2.50016e-11
1.29648e-11
2.47109e-11
-2.25251e-21
1.59479e-12
-2.78028e-13
2.83311e-12
-1.66681e-12
-1.7779e-11
7.57943e-13
2.5e-11
1.2221e-11
-4.56998e-22
1.27206e-11
1.23018e-11
-2.53635e-11
-3.73319e-11
3.10082e-13
1.23548e-11
1.33476e-21
1.59443e-12
-1.66659e-12
1.66679e-12
-1.66663e-12
-1.77769e-11
7.57894e-13
2.5e-11
1.22227e-11
-1.27463e-11
4.38078e-13
1.23003e-11
-1.26811e-11
-1.23321e-11
1.26557e-11
1.23563e-11
-1.1679e-21
1.59473e-12
8.33342e-13
4.16677e-12
-4.76254e-13
-4.81473e-12
1.28794e-11
2.5e-11
1.22212e-11
-1.27448e-11
4.40565e-13
1.23015e-11
-2.81249e-22
-3.1046e-22
1.26542e-11
1.23553e-11
-1.66849e-22
3.26125e-12
-2.77911e-13
4.1666e-12
-1.78577e-12
-6.01837e-12
2.57584e-11
2.4359e-11
-9.49129e-22
-1.27456e-11
1.31586e-11
2.46024e-11
1.29387e-21
-1.2668e-11
-1.23459e-11
8.9185e-22
-1.58495e-21
1.5945e-12
-1.66649e-12
3.00025e-12
-1.78564e-12
-1.89819e-11
7.57343e-13
2.5e-11
1.22227e-11
-2.5491e-11
8.7878e-13
2.46024e-11
-6.18664e-22
-1.26661e-11
3.11248e-13
1.23565e-11
1.4183e-21
1.59467e-12
8.33389e-13
4.16671e-12
-4.76517e-13
-3.07407e-11
-2.42425e-11
2.5641e-11
2.44437e-11
-1.27451e-11
4.39371e-13
1.23008e-11
-1.12484e-22
2.06954e-22
2.53094e-11
2.47119e-11
9.1778e-22
3.26132e-12
2.22214e-12
5.33333e-12
-4.76175e-13
-1.77774e-11
-1.21204e-11
1.28205e-11
1.22219e-11
-7.61055e-22
1.27196e-11
1.23016e-11
-2.24972e-22
-2.06955e-21
1.26543e-11
1.2356e-11
1.66865e-21
3.2612e-12
-2.77837e-13
4.16664e-12
-4.76173e-13
-1.77784e-11
-1.21216e-11
0
-1.27785e-11
-1.22548e-11
1.27193e-11
1.23013e-11
-5.62447e-23
-2.06959e-22
1.05393e-21
1.26449e-11
1.23661e-11
1.59458e-12
-2.77719e-13
4.1669e-12
-4.76174e-13
-1.77775e-11
-1.21205e-11
5.47369e-22
-1.27774e-11
-1.22547e-11
1.272e-11
1.23015e-11
4.49887e-22
-1.26669e-11
3.09412e-13
2.5e-11
1.23649e-11
1.5946e-12
2.22223e-12
5.33316e-12
-1.7861e-12
-6.01855e-12
-9.41045e-22
-5.47413e-22
-1.27784e-11
-1.22552e-11
2.54394e-11
2.46033e-11
0
-2.53341e-11
-1.20362e-11
2.5e-11
1.23664e-11
3.26132e-12
8.33317e-13
4.16685e-12
-1.78568e-12
-6.0185e-12
-2.05834e-22
1.28207e-11
-5.55955e-13
-2.5e-11
1.31575e-11
2.46033e-11
-1.12487e-22
-1.26668e-11
-1.23454e-11
2.52873e-11
2.47304e-11
3.26126e-12
-2.77852e-13
2.83316e-12
-1.66697e-12
-4.81465e-12
1.2879e-11
2.5e-11
1.22221e-11
-1.27453e-11
1.3158e-11
2.46024e-11
-1.26814e-11
-1.23332e-11
1.91622e-22
1.26438e-11
1.23653e-11
1.59454e-12
1.23866e-22
4.00014e-12
-1.66663e-12
-4.81482e-12
2.57576e-11
2.43582e-11
-1.72492e-22
-1.52204e-22
2.54394e-11
2.46032e-11
-1.26813e-11
-1.23331e-11
1.26545e-11
1.23566e-11
-5.84208e-22
-7.20699e-14
-2.8166e-23
5.33333e-12
-4.76176e-13
-4.81482e-12
1.2879e-11
2.5e-11
1.22224e-11
-1.27457e-11
4.38195e-13
1.2301e-11
-8.99862e-22
1.44889e-21
1.26545e-11
1.23561e-11
-1.26346e-11
-7.20723e-14
-1.3889e-12
2.8333e-12
-1.66667e-12
-1.77781e-11
7.57566e-13
3.78207e-11
2.44436e-11
-2.54893e-11
-2.45606e-11
1.26986e-11
1.2319e-11
2.06981e-22
-1.91634e-22
1.42741e-21
-1.26345e-11
-7.20723e-14
-2.7783e-13
2.83336e-12
-1.66664e-12
-1.77777e-11
1.36365e-11
5e-11
2.44445e-11
-1.27453e-11
4.38883e-13
2.5e-11
1.23182e-11
-1.26669e-11
-1.23459e-11
1.26443e-11
1.23663e-11
1.59461e-12
8.33326e-13
4.16665e-12
-4.76178e-13
-4.81482e-12
2.57584e-11
3.71794e-11
1.22221e-11
-1.27452e-11
4.38143e-13
1.2301e-11
-2.64366e-21
-1.26665e-11
3.09978e-13
3.76434e-11
2.47304e-11
3.2612e-12
-2.77771e-13
4.16668e-12
-4.76179e-13
-4.81482e-12
1.28787e-11
2.5e-11
1.22224e-11
-2.54902e-11
-2.45614e-11
-3.08025e-22
3.93701e-22
1.03494e-21
2.53086e-11
5e-11
2.47321e-11
1.59461e-12
8.17468e-23
4.00011e-12
-2.9762e-12
-6.01854e-12
4.41075e-22
1.28204e-11
1.22221e-11
-2.5491e-11
-1.1842e-11
1.23022e-11
4.50052e-22
-1.13855e-21
1.26541e-11
2.49997e-11
1.2365e-11
-7.20745e-14
1.11116e-12
2.66667e-12
-5.47618e-12
-7.22223e-12
1.28789e-11
1.21796e-11
-1.29392e-22
-1.2745e-11
4.38563e-13
1.2301e-11
5.62529e-22
-1.26668e-11
-1.23454e-11
-8.92255e-22
-8.34744e-23
1.59464e-12
1.11106e-12
3.99989e-12
-2.97649e-12
-6.01851e-12
1.28787e-11
1.21794e-11
9.92035e-22
-1.27452e-11
4.3944e-13
1.23022e-11
1.1252e-22
-1.26665e-11
-1.23455e-11
1.26438e-11
1.23658e-11
1.59458e-12
1.11112e-12
4.00012e-12
-1.66637e-12
-4.81465e-12
-5.88108e-23
-2.98589e-22
-8.62595e-23
-1.27449e-11
1.3158e-11
2.46032e-11
-1.26813e-11
-1.2333e-11
1.91692e-22
1.26439e-11
1.23655e-11
1.59461e-12
8.33327e-13
1.49999e-12
-4.16667e-12
-1.89816e-11
7.57568e-13
1.21796e-11
-2.58816e-22
-7.61237e-23
2.54386e-11
2.46023e-11
-1.2681e-11
-1.23332e-11
-1.53358e-21
1.26438e-11
1.23658e-11
3.26126e-12
-2.7769e-13
2.83336e-12
-2.97651e-12
-1.89811e-11
7.58418e-13
1.21794e-11
6.03869e-22
-1.27452e-11
1.31578e-11
2.46032e-11
-1.63169e-21
-1.03532e-21
1.26549e-11
2.5e-11
1.23651e-11
1.59458e-12
6.91451e-23
5.33333e-12
-1.78572e-12
-6.01853e-12
2.05891e-22
1.49329e-22
-6.90171e-22
-2.54902e-11
-1.18423e-11
1.23015e-11
-2.81309e-22
-1.26669e-11
3.08412e-13
1.23562e-11
-1.26345e-11
-7.2072e-14
1.21329e-22
5.33333e-12
-1.78569e-12
-6.01852e-12
-6.76459e-22
1.28206e-11
1.22228e-11
-1.27454e-11
4.38876e-13
1.23017e-11
-6.7524e-22
-1.26666e-11
-1.23455e-11
2.14202e-21
-1.26339e-11
-7.2072e-14
8.71413e-25
5.33333e-12
-4.76182e-13
-4.81482e-12
3.23572e-22
1.28204e-11
1.22217e-11
-6.85172e-22
1.27196e-11
1.23015e-11
-1.26812e-11
-1.23334e-11
-1.91727e-22
-3.57022e-22
-1.08553e-21
-7.20718e-14
1.11112e-12
3.99999e-12
-2.9762e-12
-6.01853e-12
-5.00043e-22
1.28206e-11
1.22224e-11
-1.27452e-11
-1.22808e-11
1.26985e-11
-3.62102e-13
-1.23332e-11
1.26544e-11
2.50003e-11
1.23653e-11
1.59461e-12
2.22223e-12
4.00001e-12
-4.2857e-12
-7.22197e-12
-4.41237e-22
1.28208e-11
1.22226e-11
-1.27454e-11
-1.2281e-11
1.26987e-11
1.23188e-11
-1.24251e-21
1.26542e-11
2.49997e-11
1.23655e-11
3.26126e-12
-2.77794e-13
2.83332e-12
-2.97618e-12
-6.01851e-12
6.17765e-22
-4.97844e-22
-2.15711e-22
-1.27448e-11
-1.22804e-11
2.46532e-22
-9.56783e-22
0
3.83475e-22
1.2496e-21
-2.50543e-22
1.59458e-12
-2.77757e-13
2.83318e-12
-1.66665e-12
-4.81482e-12
1.28793e-11
2.50002e-11
1.22228e-11
-2.5491e-11
-1.18433e-11
1.23013e-11
-1.26812e-11
-2.50003e-11
3.08634e-13
1.23564e-11
-3.34038e-22
1.59461e-12
2.22223e-12
5.33333e-12
-4.76183e-13
-4.81482e-12
1.28787e-11
3.78204e-11
2.44445e-11
-2.54902e-11
-1.18409e-11
1.23019e-11
-1.26814e-11
-3.76662e-11
-1.20372e-11
1.23562e-11
-2.84007e-21
3.26126e-12
2.22222e-12
5.3335e-12
-1.78571e-12
-1.89816e-11
7.57584e-13
3.78202e-11
2.44436e-11
-2.54902e-11
-1.18433e-11
1.23013e-11
2.25135e-22
-1.26666e-11
-1.23456e-11
0
5.84636e-22
3.26126e-12
8.33329e-13
2.83332e-12
-2.97618e-12
-3.19444e-11
-1.13637e-11
2.49998e-11
1.22226e-11
-1.2745e-11
1.31593e-11
2.46041e-11
3.37761e-22
-1.26672e-11
-1.23458e-11
-6.25015e-22
-9.18861e-22
3.26126e-12
-2.77773e-13
2.83335e-12
-2.97618e-12
-1.89814e-11
-1.21216e-11
3.98433e-22
3.02114e-22
-1.27452e-11
1.31579e-11
2.46032e-11
-6.75495e-22
-1.26666e-11
-1.23456e-11
-1.42871e-21
0
1.59459e-12
-2.77776e-13
4.16666e-12
-1.7857e-12
-6.01851e-12
-4.11957e-22
1.28206e-11
1.22223e-11
-2.54893e-11
-1.18422e-11
1.23011e-11
-1.26812e-11
-1.23338e-11
-7.67288e-22
-3.57162e-22
8.35339e-23
1.5946e-12
-5.55549e-13
3e-12
-4.76185e-13
-1.77779e-11
-1.21212e-11
2.5641e-11
2.44445e-11
-2.54902e-11
-2.45614e-11
5.54934e-22
-2.53623e-11
-2.46658e-11
4.79538e-22
2.23238e-21
1.3365e-21
3.26126e-12
-2.77774e-13
2.83333e-12
-1.66667e-12
-1.77777e-11
-1.21211e-11
2.5641e-11
2.44444e-11
-1.27455e-11
-1.22806e-11
6.16571e-23
-1.26811e-11
-2.5e-11
3.09495e-13
1.23564e-11
5.01268e-22
1.59459e-12
-2.77693e-13
1.49999e-12
-4.16666e-12
-6.01852e-12
-4.41477e-22
1.28205e-11
1.22222e-11
-1.27452e-11
-1.22808e-11
1.29502e-21
-2.81533e-22
-1.26671e-11
3.08635e-13
1.23566e-11
-3.34235e-22
1.5946e-12
8.33218e-13
2.83334e-12
-2.97617e-12
-6.01851e-12
1.28788e-11
2.50001e-11
1.22223e-11
-2.54902e-11
-2.45614e-11
-8.63317e-22
-1.26812e-11
-1.23334e-11
1.26543e-11
1.23564e-11
-5.01287e-22
3.26126e-12
1.11111e-12
5.33333e-12
-1.78571e-12
-6.01852e-12
2.57576e-11
3.71795e-11
1.22222e-11
-1.2745e-11
-1.22807e-11
1.85031e-22
-1.26811e-11
-1.23333e-11
2.53086e-11
2.47118e-11
2.50687e-22
1.59459e-12
-1.38889e-12
4.16666e-12
-1.78571e-12
-6.01852e-12
1.28788e-11
2.5e-11
1.22222e-11
-7.61878e-23
-6.81702e-23
-3.70055e-22
-1.26812e-11
-1.23333e-11
2.53086e-11
2.47126e-11
-3.34238e-22
-7.20717e-14
-2.77772e-13
4.16667e-12
-1.78571e-12
-6.01852e-12
1.28788e-11
2.5e-11
-5.55657e-13
-1.22549e-11
5.45353e-22
0
-2.53623e-11
-2.46667e-11
1.26543e-11
2.5e-11
1.23657e-11
1.5946e-12
1.11111e-12
5.33333e-12
-3.09523e-12
-7.22222e-12
1.28788e-11
1.21795e-11
-1.27778e-11
-1.22549e-11
8.18187e-22
1.26984e-11
-3.6222e-13
-2.5e-11
3.08648e-13
2.5e-11
1.23656e-11
1.59459e-12
-4.04829e-23
5.33333e-12
-3.09523e-12
-7.22222e-12
-4.71076e-22
3.48774e-22
3.45453e-22
2.28606e-22
2.04547e-22
2.53968e-11
2.46377e-11
-2.53333e-11
6.17296e-13
2.47126e-11
0
-7.20717e-14
9.53316e-23
5.33333e-12
-3.09523e-12
-7.22222e-12
8.83268e-23
1.49473e-22
0
-7.6202e-23
6.81822e-23
2.53968e-11
2.46377e-11
-2.53333e-11
6.17296e-13
2.47126e-11
1.67164e-22
-7.20717e-14
)
;

boundaryField
{
    wireUpstream
    {
        type            calculated;
        value           nonuniform List<scalar> 
16
(
0
5.33333e-12
-3.09523e-12
-7.22222e-12
0
0
0
-2.48339e-22
0
2.53968e-11
2.46377e-11
-2.53333e-11
6.17296e-13
2.47126e-11
5.63006e-22
-7.20717e-14
)
;
    }
    wireDownstream
    {
        type            calculated;
        value           nonuniform List<scalar> 
16
(
2.22222e-12
5.33334e-12
-4.76197e-13
-3.07408e-11
-2.42423e-11
2.56411e-11
-1.11127e-12
-5e-11
8.77488e-13
5e-11
2.46375e-11
0
0
2.52879e-11
2.47306e-11
3.26102e-12
)
;
    }
    wireTopContact
    {
        type            calculated;
        value           nonuniform List<scalar> 
122
(
-2.50002e-11
0
0
0
-2.49999e-11
-2.50001e-11
0
0
0
-2.49999e-11
-2.50001e-11
0
0
1.29783e-21
0
0
1.29796e-21
0
0
0
6.49066e-22
6.49218e-22
6.4911e-22
6.4926e-22
6.49152e-22
6.49173e-22
-1.29865e-21
6.49215e-22
-2.49999e-11
-2.50001e-11
6.4928e-22
6.49302e-22
0
-1.94805e-21
6.49245e-22
6.49272e-22
-2.49998e-11
-5e-11
-2.50003e-11
0
-6.49292e-22
0
6.49322e-22
6.49347e-22
0
6.49413e-22
-2.49989e-11
-5e-11
-5e-11
-2.50017e-11
0
-6.51781e-22
0
6.53131e-22
0
0
0
6.57113e-22
6.57712e-22
-6.58025e-22
-1.31618e-21
-6.58027e-22
0
-6.5759e-22
-6.57358e-22
-6.57164e-22
0
0
0
0
0
0
6.59191e-22
0
-6.59426e-22
-6.59538e-22
-6.59669e-22
-6.59776e-22
0
0
0
0
-6.6043e-22
-6.60512e-22
-6.60736e-22
6.60693e-22
-6.60788e-22
-6.60886e-22
-2.50002e-11
-2.49998e-11
0
0
0
-1.3225e-21
0
1.32295e-21
-6.6145e-22
-6.61564e-22
-6.61543e-22
-2.50001e-11
-2.49999e-11
6.61757e-22
0
0
6.61978e-22
0
0
6.62067e-22
-6.62053e-22
-6.62176e-22
0
-6.62151e-22
6.62277e-22
6.62403e-22
1.32451e-21
0
-6.62377e-22
1.32502e-21
0
0
0
-2.49998e-11
)
;
    }
    front
    {
        type            wedge;
    }
    back
    {
        type            wedge;
    }
}


// ************************************************************************* //
