/*--------------------------------*- C++ -*----------------------------------*\
| =========                 |                                                 |
| \\      /  F ield         | foam-extend: Open Source CFD                    |
|  \\    /   O peration     | Version:     4.1-20200408                       |
|   \\  /    A nd           | Web:         http://www.foam-extend.org         |
|    \\/     M anipulation  |                                                 |
\*---------------------------------------------------------------------------*/
FoamFile
{
    version     2.0;
    format      ascii;
    class       volVectorField;
    location    "0.0365000";
    object      DU;
}
// * * * * * * * * * * * * * * * * * * * * * * * * * * * * * * * * * * * * * //

dimensions      [0 1 0 0 0 0 0];

internalField   nonuniform List<vector> 
1952
(
(5.00002e-05 2.52695e-10 0)
(5.00002e-05 4.47495e-10 0)
(5.00002e-05 5.20513e-10 0)
(5.00002e-05 6.94845e-10 0)
(5.00002e-05 6.97123e-10 0)
(5.00002e-05 7.92603e-10 0)
(5.00002e-05 7.30488e-10 0)
(5.00001e-05 7.25055e-10 0)
(5.00002e-05 6.12354e-10 0)
(5.00002e-05 4.99183e-10 0)
(5.00002e-05 3.61225e-10 0)
(5.00003e-05 1.89375e-10 0)
(5.00004e-05 7.84575e-11 0)
(5.00005e-05 -5.45393e-11 0)
(5.0001e-05 -1.63715e-11 0)
(5.00002e-05 1.14875e-10 0)
(5.00005e-05 1.51933e-10 0)
(5.00005e-05 2.53456e-10 0)
(5.00005e-05 3.19987e-10 0)
(5.00005e-05 4.0444e-10 0)
(5.00005e-05 4.39917e-10 0)
(5.00004e-05 4.86964e-10 0)
(5.00004e-05 4.90028e-10 0)
(5.00003e-05 5.04819e-10 0)
(5.00004e-05 4.84163e-10 0)
(5.00004e-05 4.62086e-10 0)
(5.00005e-05 4.26189e-10 0)
(5.00005e-05 3.87517e-10 0)
(5.00007e-05 3.50722e-10 0)
(5.00007e-05 3.37344e-10 0)
(5.00009e-05 3.42255e-10 0)
(5.00005e-05 6.71118e-11 0)
(5.00007e-05 1.06708e-10 0)
(5.00007e-05 1.68467e-10 0)
(5.00007e-05 2.28511e-10 0)
(5.00006e-05 2.772e-10 0)
(5.00007e-05 3.22025e-10 0)
(5.00006e-05 3.52428e-10 0)
(5.00006e-05 3.78923e-10 0)
(5.00005e-05 4.01072e-10 0)
(5.00006e-05 4.14587e-10 0)
(5.00005e-05 4.281e-10 0)
(5.00006e-05 4.32159e-10 0)
(5.00006e-05 4.43136e-10 0)
(5.00008e-05 4.42908e-10 0)
(5.00008e-05 4.68544e-10 0)
(5.0001e-05 4.78623e-10 0)
(5.00007e-05 4.59135e-11 0)
(5.00008e-05 7.81236e-11 0)
(5.00008e-05 1.22303e-10 0)
(5.00008e-05 1.71741e-10 0)
(5.00007e-05 2.08017e-10 0)
(5.00008e-05 2.52313e-10 0)
(5.00007e-05 2.8167e-10 0)
(5.00008e-05 3.18367e-10 0)
(5.00006e-05 3.48243e-10 0)
(5.00007e-05 3.79005e-10 0)
(5.00007e-05 4.10804e-10 0)
(5.00008e-05 4.36219e-10 0)
(5.00008e-05 4.71139e-10 0)
(5.00009e-05 4.91102e-10 0)
(5.00009e-05 5.28773e-10 0)
(5.00011e-05 5.39672e-10 0)
(5.00008e-05 3.33967e-11 0)
(5.0001e-05 6.01254e-11 0)
(5.00009e-05 9.43624e-11 0)
(5.0001e-05 1.3598e-10 0)
(5.00009e-05 1.66514e-10 0)
(5.00009e-05 2.09016e-10 0)
(5.00008e-05 2.39103e-10 0)
(5.00009e-05 2.80567e-10 0)
(5.00008e-05 3.16192e-10 0)
(5.00009e-05 3.56126e-10 0)
(5.00008e-05 3.97243e-10 0)
(5.00009e-05 4.33077e-10 0)
(5.00009e-05 4.76153e-10 0)
(5.0001e-05 5.03803e-10 0)
(5.00011e-05 5.42617e-10 0)
(5.00012e-05 5.57904e-10 0)
(5.0001e-05 2.55672e-11 0)
(5.00011e-05 4.86119e-11 0)
(5.0001e-05 7.67531e-11 0)
(5.00011e-05 1.1274e-10 0)
(5.0001e-05 1.40144e-10 0)
(5.00011e-05 1.80305e-10 0)
(5.00009e-05 2.11009e-10 0)
(5.0001e-05 2.53659e-10 0)
(5.00009e-05 2.91848e-10 0)
(5.00011e-05 3.35111e-10 0)
(5.00009e-05 3.79889e-10 0)
(5.00011e-05 4.1993e-10 0)
(5.0001e-05 4.66039e-10 0)
(5.00012e-05 4.97541e-10 0)
(5.00012e-05 5.36363e-10 0)
(5.00012e-05 5.54843e-10 0)
(5.00011e-05 2.05945e-11 0)
(5.00012e-05 4.08189e-11 0)
(5.00011e-05 6.4851e-11 0)
(5.00012e-05 9.66576e-11 0)
(5.00011e-05 1.21789e-10 0)
(5.00012e-05 1.59408e-10 0)
(5.00011e-05 1.89815e-10 0)
(5.00012e-05 2.31611e-10 0)
(5.00011e-05 2.70315e-10 0)
(5.00012e-05 3.13665e-10 0)
(5.00011e-05 3.58917e-10 0)
(5.00012e-05 3.99412e-10 0)
(5.00012e-05 4.45223e-10 0)
(5.00013e-05 4.77677e-10 0)
(5.00013e-05 5.15907e-10 0)
(5.00013e-05 5.37812e-10 0)
(5.00012e-05 1.7245e-11 0)
(5.00013e-05 3.45536e-11 0)
(5.00012e-05 5.51224e-11 0)
(5.00013e-05 8.3282e-11 0)
(5.00012e-05 1.0601e-10 0)
(5.00013e-05 1.40706e-10 0)
(5.00012e-05 1.69776e-10 0)
(5.00013e-05 2.09359e-10 0)
(5.00012e-05 2.47064e-10 0)
(5.00013e-05 2.88667e-10 0)
(5.00012e-05 3.32918e-10 0)
(5.00014e-05 3.72293e-10 0)
(5.00013e-05 4.172e-10 0)
(5.00014e-05 4.49874e-10 0)
(5.00014e-05 4.881e-10 0)
(5.00014e-05 5.12771e-10 0)
(5.00013e-05 1.45612e-11 0)
(5.00014e-05 2.85799e-11 0)
(5.00013e-05 4.56945e-11 0)
(5.00014e-05 7.01833e-11 0)
(5.00013e-05 9.00903e-11 0)
(5.00014e-05 1.21388e-10 0)
(5.00013e-05 1.48319e-10 0)
(5.00014e-05 1.84795e-10 0)
(5.00013e-05 2.20695e-10 0)
(5.00015e-05 2.59571e-10 0)
(5.00014e-05 3.0226e-10 0)
(5.00015e-05 3.39775e-10 0)
(5.00014e-05 3.83723e-10 0)
(5.00015e-05 4.16283e-10 0)
(5.00015e-05 4.55001e-10 0)
(5.00015e-05 4.82122e-10 0)
(5.00014e-05 1.20069e-11 0)
(5.00014e-05 2.20049e-11 0)
(5.00014e-05 3.51869e-11 0)
(5.00015e-05 5.55803e-11 0)
(5.00014e-05 7.19965e-11 0)
(5.00015e-05 9.9342e-11 0)
(5.00014e-05 1.23408e-10 0)
(5.00016e-05 1.5618e-10 0)
(5.00014e-05 1.89778e-10 0)
(5.00016e-05 2.25517e-10 0)
(5.00015e-05 2.66573e-10 0)
(5.00016e-05 3.02161e-10 0)
(5.00015e-05 3.45549e-10 0)
(5.00017e-05 3.78133e-10 0)
(5.00016e-05 4.17853e-10 0)
(5.00017e-05 4.47159e-10 0)
(5.00014e-05 9.19455e-12 0)
(5.00015e-05 1.43187e-11 0)
(5.00015e-05 2.28489e-11 0)
(5.00016e-05 3.84665e-11 0)
(5.00015e-05 5.06872e-11 0)
(5.00016e-05 7.34215e-11 0)
(5.00015e-05 9.40996e-11 0)
(5.00017e-05 1.22635e-10 0)
(5.00015e-05 1.53772e-10 0)
(5.00017e-05 1.86129e-10 0)
(5.00016e-05 2.25809e-10 0)
(5.00018e-05 2.59555e-10 0)
(5.00017e-05 3.02934e-10 0)
(5.00018e-05 3.35762e-10 0)
(5.00017e-05 3.7698e-10 0)
(5.00018e-05 4.08401e-10 0)
(5.00015e-05 5.90558e-12 0)
(5.00016e-05 5.13997e-12 0)
(5.00016e-05 8.084e-12 0)
(5.00016e-05 1.8082e-11 0)
(5.00016e-05 2.52665e-11 0)
(5.00017e-05 4.27027e-11 0)
(5.00016e-05 5.94202e-11 0)
(5.00018e-05 8.33003e-11 0)
(5.00017e-05 1.11807e-10 0)
(5.00019e-05 1.40731e-10 0)
(5.00017e-05 1.79277e-10 0)
(5.00019e-05 2.11461e-10 0)
(5.00018e-05 2.55337e-10 0)
(5.00019e-05 2.88778e-10 0)
(5.00018e-05 3.31945e-10 0)
(5.00019e-05 3.65588e-10 0)
(5.00016e-05 1.97462e-12 0)
(5.00016e-05 -5.75867e-12 0)
(5.00016e-05 -9.43258e-12 0)
(5.00017e-05 -6.04664e-12 0)
(5.00016e-05 -4.72593e-12 0)
(5.00018e-05 6.58503e-12 0)
(5.00017e-05 1.88964e-11 0)
(5.00019e-05 3.75769e-11 0)
(5.00018e-05 6.3463e-11 0)
(5.0002e-05 8.8794e-11 0)
(5.00018e-05 1.2661e-10 0)
(5.0002e-05 1.57437e-10 0)
(5.00019e-05 2.02414e-10 0)
(5.0002e-05 2.36846e-10 0)
(5.0002e-05 2.82499e-10 0)
(5.0002e-05 3.1864e-10 0)
(5.00016e-05 -2.69434e-12 0)
(5.00017e-05 -1.85949e-11 0)
(5.00017e-05 -3.00622e-11 0)
(5.00018e-05 -3.43733e-11 0)
(5.00017e-05 -3.98932e-11 0)
(5.00019e-05 -3.5563e-11 0)
(5.00018e-05 -2.82627e-11 0)
(5.0002e-05 -1.52919e-11 0)
(5.00018e-05 7.80537e-12 0)
(5.00021e-05 2.94574e-11 0)
(5.00019e-05 6.67666e-11 0)
(5.00021e-05 9.65312e-11 0)
(5.0002e-05 1.43087e-10 0)
(5.00022e-05 1.79004e-10 0)
(5.00021e-05 2.27677e-10 0)
(5.00021e-05 2.66782e-10 0)
(5.00017e-05 -8.19636e-12 0)
(5.00017e-05 -3.34961e-11 0)
(5.00017e-05 -5.39797e-11 0)
(5.00018e-05 -6.71946e-11 0)
(5.00017e-05 -8.05047e-11 0)
(5.00019e-05 -8.41848e-11 0)
(5.00018e-05 -8.23973e-11 0)
(5.0002e-05 -7.58561e-11 0)
(5.00019e-05 -5.55719e-11 0)
(5.00022e-05 -3.78865e-11 0)
(5.0002e-05 -7.1503e-13 0)
(5.00023e-05 2.81548e-11 0)
(5.00021e-05 7.68994e-11 0)
(5.00023e-05 1.14809e-10 0)
(5.00022e-05 1.67184e-10 0)
(5.00022e-05 2.09894e-10 0)
(5.00017e-05 -1.45839e-11 0)
(5.00017e-05 -5.06155e-11 0)
(5.00017e-05 -8.14574e-11 0)
(5.00018e-05 -1.04849e-10 0)
(5.00018e-05 -1.27058e-10 0)
(5.0002e-05 -1.39808e-10 0)
(5.00019e-05 -1.4424e-10 0)
(5.00021e-05 -1.44838e-10 0)
(5.0002e-05 -1.27627e-10 0)
(5.00023e-05 -1.14147e-10 0)
(5.00021e-05 -7.69616e-11 0)
(5.00024e-05 -4.87322e-11 0)
(5.00023e-05 2.68747e-12 0)
(5.00024e-05 4.32325e-11 0)
(5.00023e-05 1.00025e-10 0)
(5.00024e-05 1.4718e-10 0)
(5.00017e-05 -2.19247e-11 0)
(5.00017e-05 -7.00044e-11 0)
(5.00017e-05 -1.12552e-10 0)
(5.00018e-05 -1.47485e-10 0)
(5.00018e-05 -1.79649e-10 0)
(5.0002e-05 -2.02702e-10 0)
(5.00019e-05 -2.13944e-10 0)
(5.00022e-05 -2.2262e-10 0)
(5.00021e-05 -2.08589e-10 0)
(5.00023e-05 -1.99773e-10 0)
(5.00022e-05 -1.62259e-10 0)
(5.00025e-05 -1.3454e-10 0)
(5.00024e-05 -7.97931e-11 0)
(5.00026e-05 -3.59328e-11 0)
(5.00025e-05 2.61719e-11 0)
(5.00025e-05 7.88115e-11 0)
(5.00017e-05 -3.02383e-11 0)
(5.00016e-05 -9.17168e-11 0)
(5.00016e-05 -1.47383e-10 0)
(5.00017e-05 -1.95242e-10 0)
(5.00017e-05 -2.38533e-10 0)
(5.0002e-05 -2.7313e-10 0)
(5.00019e-05 -2.91954e-10 0)
(5.00022e-05 -3.09635e-10 0)
(5.00021e-05 -2.99115e-10 0)
(5.00024e-05 -2.95376e-10 0)
(5.00023e-05 -2.57424e-10 0)
(5.00026e-05 -2.29994e-10 0)
(5.00025e-05 -1.71374e-10 0)
(5.00027e-05 -1.23367e-10 0)
(5.00026e-05 -5.49987e-11 0)
(5.00027e-05 4.38984e-12 0)
(5.00016e-05 -3.95501e-11 0)
(5.00015e-05 -1.1565e-10 0)
(5.00015e-05 -1.85764e-10 0)
(5.00017e-05 -2.47945e-10 0)
(5.00017e-05 -3.03411e-10 0)
(5.00019e-05 -3.50915e-10 0)
(5.00019e-05 -3.7793e-10 0)
(5.00022e-05 -4.05743e-10 0)
(5.00021e-05 -3.98888e-10 0)
(5.00025e-05 -4.00842e-10 0)
(5.00024e-05 -3.6217e-10 0)
(5.00027e-05 -3.3492e-10 0)
(5.00026e-05 -2.71709e-10 0)
(5.00028e-05 -2.18667e-10 0)
(5.00028e-05 -1.42892e-10 0)
(5.00028e-05 -7.52592e-11 0)
(5.00015e-05 -4.98139e-11 0)
(5.00014e-05 -1.41633e-10 0)
(5.00014e-05 -2.27451e-10 0)
(5.00016e-05 -3.05252e-10 0)
(5.00016e-05 -3.73939e-10 0)
(5.00018e-05 -4.35645e-10 0)
(5.00018e-05 -4.7155e-10 0)
(5.00022e-05 -5.10577e-10 0)
(5.00021e-05 -5.07709e-10 0)
(5.00025e-05 -5.15923e-10 0)
(5.00025e-05 -4.76429e-10 0)
(5.00028e-05 -4.49164e-10 0)
(5.00028e-05 -3.80741e-10 0)
(5.0003e-05 -3.21623e-10 0)
(5.00029e-05 -2.37233e-10 0)
(5.0003e-05 -1.59608e-10 0)
(5.00013e-05 -6.09574e-11 0)
(5.00012e-05 -1.6924e-10 0)
(5.00012e-05 -2.7175e-10 0)
(5.00014e-05 -3.66306e-10 0)
(5.00014e-05 -4.48979e-10 0)
(5.00017e-05 -5.26175e-10 0)
(5.00017e-05 -5.71406e-10 0)
(5.00021e-05 -6.22854e-10 0)
(5.00021e-05 -6.24071e-10 0)
(5.00026e-05 -6.3929e-10 0)
(5.00026e-05 -5.98694e-10 0)
(5.00029e-05 -5.71335e-10 0)
(5.00029e-05 -4.96924e-10 0)
(5.00032e-05 -4.30638e-10 0)
(5.00031e-05 -3.36242e-10 0)
(5.00032e-05 -2.46618e-10 0)
(5.00011e-05 -7.27974e-11 0)
(5.00009e-05 -1.97852e-10 0)
(5.0001e-05 -3.17697e-10 0)
(5.00012e-05 -4.29807e-10 0)
(5.00012e-05 -5.26988e-10 0)
(5.00016e-05 -6.20731e-10 0)
(5.00016e-05 -6.75638e-10 0)
(5.00021e-05 -7.40582e-10 0)
(5.00021e-05 -7.46054e-10 0)
(5.00026e-05 -7.68952e-10 0)
(5.00026e-05 -7.27132e-10 0)
(5.0003e-05 -6.99532e-10 0)
(5.00031e-05 -6.18478e-10 0)
(5.00034e-05 -5.43796e-10 0)
(5.00033e-05 -4.37966e-10 0)
(5.00034e-05 -3.34059e-10 0)
(5.00009e-05 -8.50689e-11 0)
(5.00006e-05 -2.26446e-10 0)
(5.00007e-05 -3.63647e-10 0)
(5.00009e-05 -4.93614e-10 0)
(5.0001e-05 -6.05256e-10 0)
(5.00014e-05 -7.16345e-10 0)
(5.00015e-05 -7.80824e-10 0)
(5.0002e-05 -8.60325e-10 0)
(5.0002e-05 -8.69913e-10 0)
(5.00026e-05 -9.01306e-10 0)
(5.00027e-05 -8.57959e-10 0)
(5.00031e-05 -8.30124e-10 0)
(5.00032e-05 -7.41664e-10 0)
(5.00036e-05 -6.57357e-10 0)
(5.00036e-05 -5.38527e-10 0)
(5.00037e-05 -4.17793e-10 0)
(5.00006e-05 -9.7332e-11 0)
(5.00003e-05 -2.53605e-10 0)
(5.00003e-05 -4.07353e-10 0)
(5.00006e-05 -5.54718e-10 0)
(5.00007e-05 -6.80103e-10 0)
(5.00012e-05 -8.08804e-10 0)
(5.00013e-05 -8.82356e-10 0)
(5.00018e-05 -9.7718e-10 0)
(5.0002e-05 -9.90649e-10 0)
(5.00026e-05 -1.03125e-09 0)
(5.00027e-05 -9.86203e-10 0)
(5.00033e-05 -9.58117e-10 0)
(5.00034e-05 -8.61672e-10 0)
(5.00038e-05 -7.66442e-10 0)
(5.00038e-05 -6.33082e-10 0)
(5.0004e-05 -4.92715e-10 0)
(5.00002e-05 -1.08979e-10 0)
(4.99998e-05 -2.77277e-10 0)
(4.99999e-05 -4.45536e-10 0)
(5.00002e-05 -6.08765e-10 0)
(5.00003e-05 -7.46113e-10 0)
(5.00009e-05 -8.91987e-10 0)
(5.0001e-05 -9.73346e-10 0)
(5.00016e-05 -1.08397e-09 0)
(5.00018e-05 -1.10065e-09 0)
(5.00025e-05 -1.15123e-09 0)
(5.00027e-05 -1.10416e-09 0)
(5.00034e-05 -1.07602e-09 0)
(5.00036e-05 -9.71021e-10 0)
(5.0004e-05 -8.63675e-10 0)
(5.00041e-05 -7.14245e-10 0)
(5.00043e-05 -5.5122e-10 0)
(4.99998e-05 -1.19129e-10 0)
(4.99993e-05 -2.94726e-10 0)
(4.99994e-05 -4.73825e-10 0)
(4.99998e-05 -6.49909e-10 0)
(4.99999e-05 -7.96062e-10 0)
(5.00005e-05 -9.57623e-10 0)
(5.00007e-05 -1.0446e-09 0)
(5.00014e-05 -1.17095e-09 0)
(5.00017e-05 -1.18978e-09 0)
(5.00025e-05 -1.25098e-09 0)
(5.00028e-05 -1.20161e-09 0)
(5.00035e-05 -1.17372e-09 0)
(5.00037e-05 -1.05988e-09 0)
(5.00043e-05 -9.3933e-10 0)
(5.00045e-05 -7.72475e-10 0)
(5.00047e-05 -5.83598e-10 0)
(4.99993e-05 -1.26608e-10 0)
(4.99987e-05 -3.02232e-10 0)
(4.99989e-05 -4.86285e-10 0)
(4.99993e-05 -6.70189e-10 0)
(4.99994e-05 -8.20124e-10 0)
(5.00001e-05 -9.94424e-10 0)
(5.00003e-05 -1.08356e-09 0)
(5.00011e-05 -1.22479e-09 0)
(5.00015e-05 -1.24407e-09 0)
(5.00024e-05 -1.31642e-09 0)
(5.00028e-05 -1.2644e-09 0)
(5.00036e-05 -1.23738e-09 0)
(5.0004e-05 -1.11466e-09 0)
(5.00046e-05 -9.8012e-10 0)
(5.00049e-05 -7.94737e-10 0)
(5.00052e-05 -5.76732e-10 0)
(4.99987e-05 -1.29819e-10 0)
(4.99981e-05 -2.94988e-10 0)
(4.99983e-05 -4.75209e-10 0)
(4.99987e-05 -6.59288e-10 0)
(4.99989e-05 -8.05485e-10 0)
(4.99996e-05 -9.8769e-10 0)
(4.99999e-05 -1.07377e-09 0)
(5.00008e-05 -1.22803e-09 0)
(5.00013e-05 -1.24519e-09 0)
(5.00022e-05 -1.32904e-09 0)
(5.00027e-05 -1.27396e-09 0)
(5.00037e-05 -1.24877e-09 0)
(5.00042e-05 -1.11756e-09 0)
(5.0005e-05 -9.68711e-10 0)
(5.00053e-05 -7.64164e-10 0)
(5.00057e-05 -5.13814e-10 0)
(4.9998e-05 -1.26698e-10 0)
(4.99974e-05 -2.66708e-10 0)
(4.99976e-05 -4.30565e-10 0)
(4.99981e-05 -6.03672e-10 0)
(4.99983e-05 -7.35475e-10 0)
(4.99991e-05 -9.18096e-10 0)
(4.99995e-05 -9.93796e-10 0)
(5.00005e-05 -1.15769e-09 0)
(5.0001e-05 -1.16919e-09 0)
(5.00021e-05 -1.26453e-09 0)
(5.00027e-05 -1.20595e-09 0)
(5.00038e-05 -1.18403e-09 0)
(5.00044e-05 -1.04538e-09 0)
(5.00053e-05 -8.82557e-10 0)
(5.00058e-05 -6.58928e-10 0)
(5.00064e-05 -3.73242e-10 0)
(4.99973e-05 -1.14547e-10 0)
(4.99967e-05 -2.09483e-10 0)
(4.99969e-05 -3.3965e-10 0)
(4.99974e-05 -4.86277e-10 0)
(4.99976e-05 -5.88867e-10 0)
(4.99985e-05 -7.61166e-10 0)
(4.99989e-05 -8.16151e-10 0)
(5e-05 -9.84525e-10 0)
(5.00007e-05 -9.85179e-10 0)
(5.00019e-05 -1.09168e-09 0)
(5.00027e-05 -1.02895e-09 0)
(5.00039e-05 -1.01248e-09 0)
(5.00047e-05 -8.68187e-10 0)
(5.00058e-05 -6.92771e-10 0)
(5.00064e-05 -4.51138e-10 0)
(5.00071e-05 -1.27624e-10 0)
(4.99966e-05 -8.99696e-11 0)
(4.99959e-05 -1.13287e-10 0)
(4.99961e-05 -1.86424e-10 0)
(4.99967e-05 -2.85381e-10 0)
(4.9997e-05 -3.38855e-10 0)
(4.99979e-05 -4.85642e-10 0)
(4.99984e-05 -5.0607e-10 0)
(4.99996e-05 -6.71055e-10 0)
(5.00003e-05 -6.53986e-10 0)
(5.00017e-05 -7.70586e-10 0)
(5.00026e-05 -7.02999e-10 0)
(5.0004e-05 -6.94954e-10 0)
(5.0005e-05 -5.47974e-10 0)
(5.00063e-05 -3.62731e-10 0)
(5.00071e-05 -1.05639e-10 0)
(5.0008e-05 2.57372e-10 0)
(4.99958e-05 -4.86619e-11 0)
(4.99952e-05 3.41783e-11 0)
(4.99954e-05 4.88916e-11 0)
(4.9996e-05 2.57269e-11 0)
(4.99963e-05 4.78259e-11 0)
(4.99973e-05 -5.28612e-11 0)
(4.99978e-05 -2.00713e-11 0)
(4.99991e-05 -1.70603e-10 0)
(4.99999e-05 -1.26272e-10 0)
(5.00014e-05 -2.51146e-10 0)
(5.00025e-05 -1.77565e-10 0)
(5.00041e-05 -1.8214e-10 0)
(5.00053e-05 -3.67564e-11 0)
(5.00068e-05 1.53585e-10 0)
(5.00079e-05 4.21648e-10 0)
(5.0009e-05 8.24542e-10 0)
(4.99951e-05 1.46584e-11 0)
(4.99946e-05 2.48029e-10 0)
(4.99948e-05 3.90564e-10 0)
(4.99954e-05 4.80048e-10 0)
(4.99957e-05 6.12105e-10 0)
(4.99967e-05 5.85193e-10 0)
(4.99972e-05 6.95629e-10 0)
(4.99986e-05 5.75107e-10 0)
(4.99995e-05 6.59388e-10 0)
(5.00011e-05 5.29412e-10 0)
(5.00024e-05 6.10569e-10 0)
(5.00042e-05 5.87805e-10 0)
(5.00056e-05 7.25528e-10 0)
(5.00074e-05 9.13634e-10 0)
(5.00087e-05 1.18553e-09 0)
(5.00101e-05 1.62682e-09 0)
(4.99945e-05 1.0648e-10 0)
(4.99941e-05 5.46287e-10 0)
(4.99942e-05 8.67641e-10 0)
(4.99949e-05 1.11711e-09 0)
(4.99951e-05 1.40335e-09 0)
(4.99962e-05 1.48652e-09 0)
(4.99967e-05 1.70655e-09 0)
(4.99981e-05 1.63721e-09 0)
(4.99991e-05 1.77853e-09 0)
(5.00008e-05 1.64846e-09 0)
(5.00023e-05 1.73969e-09 0)
(5.00043e-05 1.69149e-09 0)
(5.0006e-05 1.81335e-09 0)
(5.0008e-05 1.98846e-09 0)
(5.00097e-05 2.25355e-09 0)
(5.00114e-05 2.72914e-09 0)
(4.9994e-05 2.34542e-10 0)
(4.99939e-05 9.50312e-10 0)
(4.9994e-05 1.51458e-09 0)
(4.99946e-05 1.98407e-09 0)
(4.99947e-05 2.48051e-09 0)
(4.99958e-05 2.72097e-09 0)
(4.99963e-05 3.09175e-09 0)
(4.99977e-05 3.10229e-09 0)
(4.99987e-05 3.32348e-09 0)
(5.00005e-05 3.20111e-09 0)
(5.00021e-05 3.30649e-09 0)
(5.00043e-05 3.22369e-09 0)
(5.00063e-05 3.31906e-09 0)
(5.00087e-05 3.46591e-09 0)
(5.00108e-05 3.70903e-09 0)
(5.00129e-05 4.21117e-09 0)
(4.99938e-05 4.08014e-10 0)
(4.99941e-05 1.48459e-09 0)
(4.9994e-05 2.37102e-09 0)
(4.99946e-05 3.13546e-09 0)
(4.99946e-05 3.91219e-09 0)
(4.99956e-05 4.37033e-09 0)
(4.9996e-05 4.94464e-09 0)
(4.99974e-05 5.07343e-09 0)
(4.99984e-05 5.40501e-09 0)
(5.00002e-05 5.30242e-09 0)
(5.0002e-05 5.42857e-09 0)
(5.00044e-05 5.3002e-09 0)
(5.00067e-05 5.35568e-09 0)
(5.00095e-05 5.4533e-09 0)
(5.0012e-05 5.6534e-09 0)
(5.00146e-05 6.16947e-09 0)
(4.9994e-05 6.37407e-10 0)
(4.99948e-05 2.17666e-09 0)
(4.99946e-05 3.48169e-09 0)
(4.99951e-05 4.63319e-09 0)
(4.99949e-05 5.77678e-09 0)
(4.99958e-05 6.52911e-09 0)
(4.9996e-05 7.37406e-09 0)
(4.99972e-05 7.6722e-09 0)
(4.99982e-05 8.15514e-09 0)
(5e-05 8.09091e-09 0)
(5.00018e-05 8.24902e-09 0)
(5.00044e-05 8.06271e-09 0)
(5.0007e-05 8.06243e-09 0)
(5.00102e-05 8.08266e-09 0)
(5.00132e-05 8.21133e-09 0)
(5.00165e-05 8.7221e-09 0)
(4.99947e-05 9.34537e-10 0)
(4.99962e-05 3.05617e-09 0)
(4.99959e-05 4.89499e-09 0)
(4.99962e-05 6.54494e-09 0)
(4.99958e-05 8.16074e-09 0)
(4.99964e-05 9.30289e-09 0)
(4.99964e-05 1.05032e-08 0)
(4.99974e-05 1.10383e-08 0)
(4.99981e-05 1.17277e-08 0)
(4.99998e-05 1.17304e-08 0)
(5.00017e-05 1.1939e-08 0)
(5.00044e-05 1.16825e-08 0)
(5.00073e-05 1.16088e-08 0)
(5.0011e-05 1.1515e-08 0)
(5.00146e-05 1.15348e-08 0)
(5.00185e-05 1.20124e-08 0)
(4.99962e-05 1.31212e-09 0)
(4.99987e-05 4.15349e-09 0)
(4.99981e-05 6.6609e-09 0)
(4.99982e-05 8.94139e-09 0)
(4.99974e-05 1.11557e-08 0)
(4.99977e-05 1.28057e-08 0)
(4.99973e-05 1.44675e-08 0)
(4.99979e-05 1.53286e-08 0)
(4.99984e-05 1.62988e-08 0)
(4.99998e-05 1.64125e-08 0)
(5.00016e-05 1.67026e-08 0)
(5.00043e-05 1.63667e-08 0)
(5.00076e-05 1.62027e-08 0)
(5.00116e-05 1.59482e-08 0)
(5.0016e-05 1.58111e-08 0)
(5.00208e-05 1.62159e-08 0)
(4.99987e-05 1.78318e-09 0)
(5.00024e-05 5.49722e-09 0)
(5.00015e-05 8.82693e-09 0)
(5.00014e-05 1.18912e-08 0)
(5.00001e-05 1.48524e-08 0)
(4.99999e-05 1.71533e-08 0)
(4.99989e-05 1.94083e-08 0)
(4.9999e-05 2.07118e-08 0)
(4.9999e-05 2.20634e-08 0)
(5e-05 2.23549e-08 0)
(5.00016e-05 2.27774e-08 0)
(5.00042e-05 2.23618e-08 0)
(5.00077e-05 2.20954e-08 0)
(5.00122e-05 2.16228e-08 0)
(5.00173e-05 2.12681e-08 0)
(5.00232e-05 2.15436e-08 0)
(5.00025e-05 2.35994e-09 0)
(5.00078e-05 7.11023e-09 0)
(5.00066e-05 1.14321e-08 0)
(5.0006e-05 1.54527e-08 0)
(5.00042e-05 1.9331e-08 0)
(5.00033e-05 2.24537e-08 0)
(5.00016e-05 2.54629e-08 0)
(5.0001e-05 2.73601e-08 0)
(5.00002e-05 2.92286e-08 0)
(5.00006e-05 2.97999e-08 0)
(5.00017e-05 3.04377e-08 0)
(5.0004e-05 2.99623e-08 0)
(5.00076e-05 2.95958e-08 0)
(5.00126e-05 2.88388e-08 0)
(5.00186e-05 2.81916e-08 0)
(5.00257e-05 2.8257e-08 0)
(5.00079e-05 3.05218e-09 0)
(5.00152e-05 9.00475e-09 0)
(5.00135e-05 1.44986e-08 0)
(5.00125e-05 1.9663e-08 0)
(5.00099e-05 2.46477e-08 0)
(5.00083e-05 2.87898e-08 0)
(5.00056e-05 3.27468e-08 0)
(5.0004e-05 3.54308e-08 0)
(5.00022e-05 3.79979e-08 0)
(5.00017e-05 3.90017e-08 0)
(5.00021e-05 3.99891e-08 0)
(5.00039e-05 3.95147e-08 0)
(5.00074e-05 3.90859e-08 0)
(5.00127e-05 3.79821e-08 0)
(5.00196e-05 3.69648e-08 0)
(5.00282e-05 3.67123e-08 0)
(5.00155e-05 3.86505e-09 0)
(5.0025e-05 1.11745e-08 0)
(5.00229e-05 1.80194e-08 0)
(5.00213e-05 2.45206e-08 0)
(5.00178e-05 3.08123e-08 0)
(5.00152e-05 3.61954e-08 0)
(5.00113e-05 4.1326e-08 0)
(5.00085e-05 4.50381e-08 0)
(5.00054e-05 4.85428e-08 0)
(5.00036e-05 5.02027e-08 0)
(5.00029e-05 5.17503e-08 0)
(5.00037e-05 5.14111e-08 0)
(5.00069e-05 5.10276e-08 0)
(5.00123e-05 4.95477e-08 0)
(5.00202e-05 4.81113e-08 0)
(5.00306e-05 4.74093e-08 0)
(5.00254e-05 4.79573e-09 0)
(5.00378e-05 1.35869e-08 0)
(5.0035e-05 2.19454e-08 0)
(5.00327e-05 2.99663e-08 0)
(5.00283e-05 3.7764e-08 0)
(5.00245e-05 4.46224e-08 0)
(5.00192e-05 5.1178e-08 0)
(5.00149e-05 5.62082e-08 0)
(5.00101e-05 6.09546e-08 0)
(5.00066e-05 6.35833e-08 0)
(5.00043e-05 6.60047e-08 0)
(5.00038e-05 6.60419e-08 0)
(5.00062e-05 6.59113e-08 0)
(5.00115e-05 6.40799e-08 0)
(5.00203e-05 6.22081e-08 0)
(5.00326e-05 6.08568e-08 0)
(5.00383e-05 5.83014e-09 0)
(5.00537e-05 1.61722e-08 0)
(5.00504e-05 2.61665e-08 0)
(5.00474e-05 3.58577e-08 0)
(5.00418e-05 4.53365e-08 0)
(5.00367e-05 5.38983e-08 0)
(5.00298e-05 6.2141e-08 0)
(5.00237e-05 6.88218e-08 0)
(5.00169e-05 7.51826e-08 0)
(5.00113e-05 7.92053e-08 0)
(5.00069e-05 8.29572e-08 0)
(5.00044e-05 8.37801e-08 0)
(5.00054e-05 8.42696e-08 0)
(5.00099e-05 8.22013e-08 0)
(5.00194e-05 7.9844e-08 0)
(5.0034e-05 7.74112e-08 0)
(5.00544e-05 6.93815e-09 0)
(5.00733e-05 1.88156e-08 0)
(5.00693e-05 3.04989e-08 0)
(5.00655e-05 4.19466e-08 0)
(5.00588e-05 5.32256e-08 0)
(5.00523e-05 6.36791e-08 0)
(5.00437e-05 7.38498e-08 0)
(5.00355e-05 8.25317e-08 0)
(5.00264e-05 9.09381e-08 0)
(5.00182e-05 9.69165e-08 0)
(5.00111e-05 1.02677e-07 0)
(5.00059e-05 1.05028e-07 0)
(5.00045e-05 1.06949e-07 0)
(5.00074e-05 1.05243e-07 0)
(5.00171e-05 1.02695e-07 0)
(5.00343e-05 9.87504e-08 0)
(5.00742e-05 8.07041e-09 0)
(5.00967e-05 2.13488e-08 0)
(5.00921e-05 3.46687e-08 0)
(5.00875e-05 4.78551e-08 0)
(5.00796e-05 6.09512e-08 0)
(5.00717e-05 7.33921e-08 0)
(5.00612e-05 8.56492e-08 0)
(5.0051e-05 9.66336e-08 0)
(5.00393e-05 1.07505e-07 0)
(5.00283e-05 1.16089e-07 0)
(5.0018e-05 1.24762e-07 0)
(5.00093e-05 1.29869e-07 0)
(5.00045e-05 1.34934e-07 0)
(5.00043e-05 1.35633e-07 0)
(5.00126e-05 1.35313e-07 0)
(5.00324e-05 1.31778e-07 0)
(5.00977e-05 9.15465e-09 0)
(5.01239e-05 2.35526e-08 0)
(5.01188e-05 3.83157e-08 0)
(5.01134e-05 5.30753e-08 0)
(5.01044e-05 6.78506e-08 0)
(5.00951e-05 8.22114e-08 0)
(5.00829e-05 9.65365e-08 0)
(5.00706e-05 1.09944e-07 0)
(5.00564e-05 1.23499e-07 0)
(5.00426e-05 1.35161e-07 0)
(5.0029e-05 1.47491e-07 0)
(5.00167e-05 1.56576e-07 0)
(5.00079e-05 1.66838e-07 0)
(5.00036e-05 1.73039e-07 0)
(5.00085e-05 1.80024e-07 0)
(5.00279e-05 1.83456e-07 0)
(5.01251e-05 1.0097e-08 0)
(5.01547e-05 2.51664e-08 0)
(5.0149e-05 4.10091e-08 0)
(5.01429e-05 5.69929e-08 0)
(5.0133e-05 7.31091e-08 0)
(5.01225e-05 8.90956e-08 0)
(5.01087e-05 1.05204e-07 0)
(5.00945e-05 1.20834e-07 0)
(5.0078e-05 1.3686e-07 0)
(5.00616e-05 1.51503e-07 0)
(5.00448e-05 1.67359e-07 0)
(5.00291e-05 1.80367e-07 0)
(5.00168e-05 1.95851e-07 0)
(5.00085e-05 2.07643e-07 0)
(5.00089e-05 2.22727e-07 0)
(5.00227e-05 2.34914e-07 0)
(5.0156e-05 1.07859e-08 0)
(5.01884e-05 2.59104e-08 0)
(5.01824e-05 4.22858e-08 0)
(5.01757e-05 5.89458e-08 0)
(5.01649e-05 7.5848e-08 0)
(5.01533e-05 9.29204e-08 0)
(5.01381e-05 1.10245e-07 0)
(5.01223e-05 1.27564e-07 0)
(5.01035e-05 1.45413e-07 0)
(5.00846e-05 1.6239e-07 0)
(5.00645e-05 1.80785e-07 0)
(5.00452e-05 1.96378e-07 0)
(5.00287e-05 2.14869e-07 0)
(5.00156e-05 2.28462e-07 0)
(5.001e-05 2.45379e-07 0)
(5.00151e-05 2.57055e-07 0)
(5.01899e-05 1.11018e-08 0)
(5.02243e-05 2.55104e-08 0)
(5.02179e-05 4.16926e-08 0)
(5.02108e-05 5.82875e-08 0)
(5.01994e-05 7.52161e-08 0)
(5.01868e-05 9.2609e-08 0)
(5.01704e-05 1.1035e-07 0)
(5.0153e-05 1.2858e-07 0)
(5.01321e-05 1.47381e-07 0)
(5.01107e-05 1.65898e-07 0)
(5.0087e-05 1.85801e-07 0)
(5.00635e-05 2.03007e-07 0)
(5.00415e-05 2.23255e-07 0)
(5.00214e-05 2.36972e-07 0)
(5.00079e-05 2.54317e-07 0)
(5.00041e-05 2.63879e-07 0)
(5.02259e-05 1.09275e-08 0)
(5.02612e-05 2.37192e-08 0)
(5.02545e-05 3.88218e-08 0)
(5.0247e-05 5.44362e-08 0)
(5.02351e-05 7.04483e-08 0)
(5.02217e-05 8.71909e-08 0)
(5.02044e-05 1.04336e-07 0)
(5.01856e-05 1.22474e-07 0)
(5.01628e-05 1.4114e-07 0)
(5.01388e-05 1.60249e-07 0)
(5.01112e-05 1.80514e-07 0)
(5.00831e-05 1.98574e-07 0)
(5.00544e-05 2.19618e-07 0)
(5.00259e-05 2.32665e-07 0)
(5.00033e-05 2.50853e-07 0)
(4.99896e-05 2.57335e-07 0)
(5.02628e-05 1.01573e-08 0)
(5.02975e-05 2.03389e-08 0)
(5.02907e-05 3.33438e-08 0)
(5.02829e-05 4.69126e-08 0)
(5.02706e-05 6.09009e-08 0)
(5.02567e-05 7.58209e-08 0)
(5.02387e-05 9.11442e-08 0)
(5.02187e-05 1.07924e-07 0)
(5.01942e-05 1.2513e-07 0)
(5.01678e-05 1.43653e-07 0)
(5.01364e-05 1.62956e-07 0)
(5.01033e-05 1.81207e-07 0)
(5.00667e-05 2.02008e-07 0)
(5.00287e-05 2.14582e-07 0)
(4.99953e-05 2.34658e-07 0)
(4.99678e-05 2.37349e-07 0)
(5.02992e-05 8.70669e-09 0)
(5.03317e-05 1.52086e-08 0)
(5.03248e-05 2.49848e-08 0)
(5.03167e-05 3.53043e-08 0)
(5.03042e-05 4.59862e-08 0)
(5.02898e-05 5.76881e-08 0)
(5.02713e-05 6.97248e-08 0)
(5.02504e-05 8.35882e-08 0)
(5.02247e-05 9.77452e-08 0)
(5.01962e-05 1.14185e-07 0)
(5.01612e-05 1.30981e-07 0)
(5.01232e-05 1.48711e-07 0)
(5.00784e-05 1.68137e-07 0)
(5.0031e-05 1.81792e-07 0)
(4.99854e-05 2.03442e-07 0)
(4.99364e-05 2.00669e-07 0)
(5.03335e-05 6.50776e-09 0)
(5.0362e-05 8.23805e-09 0)
(5.03549e-05 1.36169e-08 0)
(5.03465e-05 1.94638e-08 0)
(5.03336e-05 2.55812e-08 0)
(5.03187e-05 3.27316e-08 0)
(5.02998e-05 4.01174e-08 0)
(5.02782e-05 4.95459e-08 0)
(5.02516e-05 5.90996e-08 0)
(5.02214e-05 7.17775e-08 0)
(5.01839e-05 8.43933e-08 0)
(5.01418e-05 1.00465e-07 0)
(5.00903e-05 1.16732e-07 0)
(5.00336e-05 1.31429e-07 0)
(4.9969e-05 1.4763e-07 0)
(4.98896e-05 1.35252e-07 0)
(5.03638e-05 3.52178e-09 0)
(5.03858e-05 -3.01309e-10 0)
(5.03785e-05 -2.43097e-10 0)
(5.03699e-05 2.96042e-10 0)
(5.03568e-05 1.24799e-09 0)
(5.03417e-05 3.40151e-09 0)
(5.03231e-05 5.5795e-09 0)
(5.03018e-05 9.43048e-09 0)
(5.02756e-05 1.27118e-08 0)
(5.02452e-05 1.88499e-08 0)
(5.02069e-05 2.35053e-08 0)
(5.01613e-05 3.25017e-08 0)
(5.01011e-05 3.84716e-08 0)
(5.00305e-05 4.45292e-08 0)
(4.99368e-05 4.4108e-08 0)
(4.98209e-05 2.16602e-08 0)
(5.03877e-05 -1.43323e-10 0)
(5.04048e-05 -9.7343e-09 0)
(5.03978e-05 -1.56646e-08 0)
(5.03896e-05 -2.13263e-08 0)
(5.03769e-05 -2.67155e-08 0)
(5.03611e-05 -3.12568e-08 0)
(5.03409e-05 -3.6757e-08 0)
(5.03171e-05 -4.21138e-08 0)
(5.02882e-05 -4.98261e-08 0)
(5.02541e-05 -5.67539e-08 0)
(5.02117e-05 -6.789e-08 0)
(5.01603e-05 -7.70787e-08 0)
(5.00905e-05 -9.28625e-08 0)
(5.00039e-05 -1.06326e-07 0)
(4.9883e-05 -1.27831e-07 0)
(4.97339e-05 -1.56188e-07 0)
(5.04065e-05 -4.19082e-09 0)
(5.04124e-05 -2.22556e-08 0)
(5.04045e-05 -3.65418e-08 0)
(5.03947e-05 -5.15598e-08 0)
(5.03801e-05 -6.77476e-08 0)
(5.03612e-05 -8.4877e-08 0)
(5.03366e-05 -1.04427e-07 0)
(5.03067e-05 -1.25345e-07 0)
(5.02711e-05 -1.50386e-07 0)
(5.02287e-05 -1.76663e-07 0)
(5.01776e-05 -2.09062e-07 0)
(5.01157e-05 -2.41045e-07 0)
(5.00361e-05 -2.81011e-07 0)
(4.99375e-05 -3.15851e-07 0)
(4.98017e-05 -3.58366e-07 0)
(4.96326e-05 -3.92336e-07 0)
(5.04145e-05 -9.53526e-09 0)
(5.03917e-05 -4.24504e-08 0)
(5.03813e-05 -7.00023e-08 0)
(5.03675e-05 -9.92867e-08 0)
(5.03478e-05 -1.30963e-07 0)
(5.03229e-05 -1.64906e-07 0)
(5.02919e-05 -2.02275e-07 0)
(5.02545e-05 -2.42064e-07 0)
(5.02107e-05 -2.86784e-07 0)
(5.01591e-05 -3.33644e-07 0)
(5.00987e-05 -3.87131e-07 0)
(5.00268e-05 -4.40171e-07 0)
(4.99387e-05 -5.01098e-07 0)
(4.98311e-05 -5.54368e-07 0)
(4.96895e-05 -6.1515e-07 0)
(4.95153e-05 -6.55315e-07 0)
(5.03947e-05 -1.8153e-08 0)
(5.03284e-05 -6.96663e-08 0)
(5.03152e-05 -1.14538e-07 0)
(5.02971e-05 -1.61576e-07 0)
(5.02722e-05 -2.11284e-07 0)
(5.02409e-05 -2.63546e-07 0)
(5.0203e-05 -3.19382e-07 0)
(5.0158e-05 -3.77908e-07 0)
(5.0106e-05 -4.41139e-07 0)
(5.00456e-05 -5.06317e-07 0)
(4.9977e-05 -5.77375e-07 0)
(4.98968e-05 -6.47023e-07 0)
(4.98034e-05 -7.23169e-07 0)
(4.96918e-05 -7.88601e-07 0)
(4.95542e-05 -8.59272e-07 0)
(4.93896e-05 -8.9957e-07 0)
(5.03325e-05 -2.97887e-08 0)
(5.02151e-05 -9.99221e-08 0)
(5.01997e-05 -1.63598e-07 0)
(5.01781e-05 -2.29324e-07 0)
(5.01488e-05 -2.97234e-07 0)
(5.01124e-05 -3.67221e-07 0)
(5.00688e-05 -4.40035e-07 0)
(5.00176e-05 -5.14932e-07 0)
(4.99594e-05 -5.93428e-07 0)
(4.98928e-05 -6.72891e-07 0)
(4.98189e-05 -7.56608e-07 0)
(4.97343e-05 -8.37356e-07 0)
(4.96406e-05 -9.22299e-07 0)
(4.9532e-05 -9.93602e-07 0)
(4.94076e-05 -1.06709e-06 0)
(4.92647e-05 -1.10426e-06 0)
(5.02203e-05 -4.275e-08 0)
(5.00518e-05 -1.28047e-07 0)
(5.00352e-05 -2.08982e-07 0)
(5.00117e-05 -2.91601e-07 0)
(4.99801e-05 -3.75537e-07 0)
(4.99408e-05 -4.60662e-07 0)
(4.9894e-05 -5.47353e-07 0)
(4.98394e-05 -6.35037e-07 0)
(4.9778e-05 -7.24725e-07 0)
(4.97085e-05 -8.14049e-07 0)
(4.9633e-05 -9.05587e-07 0)
(4.95488e-05 -9.92561e-07 0)
(4.94599e-05 -1.08118e-06 0)
(4.93609e-05 -1.15425e-06 0)
(4.92568e-05 -1.22702e-06 0)
(4.91429e-05 -1.26148e-06 0)
(5.00575e-05 -5.48186e-08 0)
(4.98462e-05 -1.49158e-07 0)
(4.98296e-05 -2.43037e-07 0)
(4.98059e-05 -3.38359e-07 0)
(4.9774e-05 -4.34264e-07 0)
(4.97342e-05 -5.30582e-07 0)
(4.9687e-05 -6.27238e-07 0)
(4.9632e-05 -7.23796e-07 0)
(4.95706e-05 -8.20715e-07 0)
(4.95019e-05 -9.15982e-07 0)
(4.94288e-05 -1.01141e-06 0)
(4.93493e-05 -1.10106e-06 0)
(4.92697e-05 -1.19001e-06 0)
(4.91854e-05 -1.26286e-06 0)
(4.91059e-05 -1.33355e-06 0)
(4.90256e-05 -1.36674e-06 0)
(4.98521e-05 -6.38857e-08 0)
(4.96124e-05 -1.60267e-07 0)
(4.95963e-05 -2.61049e-07 0)
(4.95733e-05 -3.63335e-07 0)
(4.95424e-05 -4.65917e-07 0)
(4.95041e-05 -5.68605e-07 0)
(4.94585e-05 -6.70874e-07 0)
(4.94056e-05 -7.72365e-07 0)
(4.9347e-05 -8.72919e-07 0)
(4.92822e-05 -9.7091e-07 0)
(4.92148e-05 -1.06733e-06 0)
(4.91437e-05 -1.15736e-06 0)
(4.90768e-05 -1.24479e-06 0)
(4.90106e-05 -1.31678e-06 0)
(4.89583e-05 -1.38523e-06 0)
(4.89136e-05 -1.41888e-06 0)
(4.96182e-05 -6.86552e-08 0)
(4.93666e-05 -1.60934e-07 0)
(4.9351e-05 -2.6222e-07 0)
(4.93288e-05 -3.65256e-07 0)
(4.92994e-05 -4.6871e-07 0)
(4.9263e-05 -5.72485e-07 0)
(4.92202e-05 -6.75719e-07 0)
(4.9171e-05 -7.78123e-07 0)
(4.91169e-05 -8.78914e-07 0)
(4.90583e-05 -9.76863e-07 0)