/*--------------------------------*- C++ -*----------------------------------*\
| =========                 |                                                 |
| \\      /  F ield         | foam-extend: Open Source CFD                    |
|  \\    /   O peration     | Version:     4.1-20200408                       |
|   \\  /    A nd           | Web:         http://www.foam-extend.org         |
|    \\/     M anipulation  |                                                 |
\*---------------------------------------------------------------------------*/
FoamFile
{
    version     2.0;
    format      ascii;
    class       volScalarField;
    location    "0.0255000";
    object      sigmaCauchyEq;
}
// * * * * * * * * * * * * * * * * * * * * * * * * * * * * * * * * * * * * * //

dimensions      [1 -1 -2 0 0 0 0];

internalField   nonuniform List<scalar> 
1952
(
4.84995e+07
4.45029e+07
4.09096e+07
3.33516e+07
2.49324e+07
1.47155e+07
2.34601e+07
5.07904e+07
9.16385e+07
1.53839e+08
2.34494e+08
3.6223e+08
5.2737e+08
7.8162e+08
1.03867e+09
4.87146e+07
4.15223e+07
3.78852e+07
3.46929e+07
2.8121e+07
2.15047e+07
1.70821e+07
3.01295e+07
5.74384e+07
9.78703e+07
1.5944e+08
2.39778e+08
3.66858e+08
5.31459e+08
7.84292e+08
1.03575e+09
4.16537e+07
3.68123e+07
3.35003e+07
3.07156e+07
2.51459e+07
2.03813e+07
2.0101e+07
3.47706e+07
6.19491e+07
1.02012e+08
1.63044e+08
2.42979e+08
3.69481e+08
5.3361e+08
7.86347e+08
1.03714e+09
3.68413e+07
3.41413e+07
3.11504e+07
2.87768e+07
2.41972e+07
2.10123e+07
2.30498e+07
3.81223e+07
6.49346e+07
1.04634e+08
1.65167e+08
2.44774e+08
3.70914e+08
5.34904e+08
7.88166e+08
1.03804e+09
3.40569e+07
3.31178e+07
3.0386e+07
2.83423e+07
2.45e+07
2.2254e+07
2.5226e+07
4.01551e+07
6.65337e+07
1.05925e+08
1.66089e+08
2.45538e+08
3.71608e+08
5.35864e+08
7.90241e+08
1.03971e+09
3.29354e+07
3.35557e+07
3.09805e+07
2.91267e+07
2.56546e+07
2.36642e+07
2.6583e+07
4.09724e+07
6.6857e+07
1.0601e+08
1.65955e+08
2.45441e+08
3.71699e+08
5.36513e+08
7.92209e+08
1.04126e+09
3.33048e+07
3.50917e+07
3.2566e+07
3.0758e+07
2.73308e+07
2.50937e+07
2.73258e+07
4.08814e+07
6.62435e+07
1.0524e+08
1.65118e+08
2.44812e+08
3.71459e+08
5.37034e+08
7.94171e+08
1.04281e+09
3.48058e+07
3.74533e+07
3.4887e+07
3.30079e+07
2.93878e+07
2.6575e+07
2.76795e+07
4.01349e+07
6.49528e+07
1.03874e+08
1.63824e+08
2.43865e+08
3.71042e+08
5.37483e+08
7.96087e+08
1.0442e+09
3.71621e+07
4.05494e+07
3.7875e+07
3.58402e+07
3.18664e+07
2.82642e+07
2.78808e+07
3.89066e+07
6.3114e+07
1.02019e+08
1.62155e+08
2.42645e+08
3.70445e+08
5.37813e+08
7.97852e+08
1.04538e+09
4.0276e+07
4.41869e+07
4.13624e+07
3.91228e+07
3.47116e+07
3.02297e+07
2.81358e+07
3.73939e+07
6.08898e+07
9.9823e+07
1.60228e+08
2.41244e+08
3.69718e+08
5.38048e+08
7.99474e+08
1.04632e+09
4.39458e+07
4.8223e+07
4.5225e+07
4.27542e+07
3.78748e+07
3.25068e+07
2.8623e+07
3.57935e+07
5.8455e+07
9.74408e+07
1.58188e+08
2.39764e+08
3.6894e+08
5.38218e+08
8.00914e+08
1.04711e+09
4.80234e+07
5.25913e+07
4.94098e+07
4.67e+07
4.1352e+07
3.51403e+07
2.94805e+07
3.42457e+07
5.5864e+07
9.49013e+07
1.56021e+08
2.38189e+08
3.68069e+08
5.38309e+08
8.02179e+08
1.04769e+09
5.24371e+07
5.71896e+07
5.38237e+07
5.08744e+07
4.50782e+07
3.80876e+07
3.07628e+07
3.28851e+07
5.32066e+07
9.22764e+07
1.53796e+08
2.36559e+08
3.67175e+08
5.38326e+08
8.03199e+08
1.04809e+09
5.70823e+07
6.18465e+07
5.83017e+07
5.51215e+07
4.89109e+07
4.12281e+07
3.24347e+07
3.18603e+07
5.06302e+07
8.96977e+07
1.51612e+08
2.34946e+08
3.6629e+08
5.38326e+08
8.0411e+08
1.0483e+09
6.17853e+07
6.65771e+07
6.28599e+07
5.94538e+07
5.28603e+07
4.45513e+07
3.44729e+07
3.12217e+07
4.81189e+07
8.71606e+07
1.49411e+08
2.33363e+08
3.654e+08
5.38382e+08
8.04525e+08
1.04836e+09
6.65616e+07
7.13722e+07
6.74895e+07
6.3864e+07
5.6918e+07
4.80398e+07
3.68566e+07
3.10265e+07
4.5735e+07
8.46696e+07
1.4722e+08
2.31794e+08
3.64497e+08
5.38408e+08
8.04735e+08
1.04829e+09
7.14011e+07
7.62202e+07
7.21801e+07
6.83417e+07
6.10711e+07
5.1673e+07
3.95383e+07
3.13025e+07
4.35057e+07
8.22204e+07
1.45057e+08
2.30225e+08
3.63609e+08
5.38408e+08
8.0483e+08
1.04814e+09
7.62922e+07
8.11425e+07
7.69517e+07
7.2906e+07
6.53357e+07
5.54578e+07
4.25055e+07
3.2078e+07
4.14724e+07
7.98111e+07
1.42898e+08
2.28629e+08
3.62686e+08
5.3833e+08
8.04867e+08
1.04788e+09
8.1256e+07
8.60897e+07
8.1755e+07
7.75083e+07
6.96605e+07
5.93397e+07
4.56831e+07
3.33218e+07
3.97005e+07
7.74747e+07
1.40782e+08
2.27033e+08
3.61761e+08
5.38218e+08
8.04894e+08
1.04752e+09
8.6243e+07
9.10186e+07
8.6544e+07
8.20983e+07
7.39886e+07
6.32512e+07
4.89824e+07
3.49642e+07
3.82712e+07
7.53108e+07
1.38794e+08
2.25541e+08
3.60911e+08
5.38158e+08
8.04918e+08
1.04709e+09
9.12111e+07
9.59985e+07
9.13882e+07
8.67469e+07
7.83902e+07
6.72584e+07
5.24507e+07
3.69956e+07
3.71899e+07
7.32658e+07
1.36849e+08
2.24102e+08
3.6007e+08
5.38141e+08
8.04885e+08
1.04671e+09
9.62288e+07
1.0119e+08
9.64474e+07
9.16109e+07
8.30168e+07
7.15029e+07
5.61991e+07
3.94507e+07
3.64361e+07
7.12175e+07
1.34843e+08
2.22587e+08
3.59165e+08
5.3805e+08
8.04818e+08
1.04625e+09
1.01458e+08
1.06482e+08
1.01609e+08
9.65785e+07
8.7754e+07
7.58715e+07
6.01141e+07
4.22413e+07
3.61295e+07
6.92992e+07
1.32894e+08
2.21091e+08
3.58273e+08
5.3796e+08
8.04877e+08
1.04577e+09
1.06787e+08
1.11811e+08
1.06808e+08
1.01578e+08
9.25277e+07
8.02796e+07
6.41014e+07
4.52516e+07
3.62911e+07
6.76089e+07
1.31096e+08
2.19739e+08
3.57524e+08
5.38024e+08
8.04949e+08
1.04522e+09
1.12152e+08
1.17419e+08
1.12287e+08
1.06854e+08
9.75804e+07
8.49698e+07
6.83862e+07
4.8643e+07
3.69472e+07
6.60021e+07
1.29262e+08
2.18348e+08
3.56728e+08
5.38071e+08
8.05084e+08
1.04467e+09
1.17797e+08
1.23283e+08
1.18023e+08
1.12385e+08
1.02891e+08
8.99173e+07
7.29396e+07
5.23718e+07
3.81071e+07
6.45172e+07
1.27432e+08
2.16946e+08
3.55961e+08
5.38155e+08
8.05285e+08
1.04421e+09
1.23699e+08
1.29322e+08
1.23936e+08
1.18086e+08
1.08374e+08
9.50349e+07
7.76734e+07
5.63546e+07
3.97944e+07
6.32914e+07
1.25719e+08
2.15637e+08
3.55286e+08
5.38343e+08
8.05691e+08
1.04391e+09
1.29776e+08
1.35499e+08
1.29991e+08
1.23925e+08
1.14e+08
1.00294e+08
8.25594e+07
6.05493e+07
4.19624e+07
6.23788e+07
1.24155e+08
2.14495e+08
3.54782e+08
5.38761e+08
8.06186e+08
1.04383e+09
1.35991e+08
1.42018e+08
1.36393e+08
1.30105e+08
1.19972e+08
1.05896e+08
8.77909e+07
6.51108e+07
4.46419e+07
6.16726e+07
1.22584e+08
2.1334e+08
3.54291e+08
5.39239e+08
8.06828e+08
1.044e+09
1.42549e+08
1.48777e+08
1.43045e+08
1.36537e+08
1.26209e+08
1.11768e+08
9.33011e+07
6.99848e+07
4.77937e+07
6.12354e+07
1.21047e+08
2.12192e+08
3.5386e+08
5.3984e+08
8.07676e+08
1.04443e+09
1.49347e+08
1.55649e+08
1.49821e+08
1.43093e+08
1.32583e+08
1.17782e+08
9.89601e+07
7.50365e+07
5.1295e+07
6.11258e+07
1.19627e+08
2.11134e+08
3.53576e+08
5.40645e+08
8.08812e+08
1.04522e+09
1.56257e+08
1.6247e+08
1.56562e+08
1.4962e+08
1.38945e+08
1.23796e+08
1.04631e+08
8.01389e+07
5.50266e+07
6.13987e+07
1.18418e+08
2.10274e+08
3.5354e+08
5.4178e+08
8.10317e+08
1.04639e+09
1.63116e+08
1.69173e+08
1.63209e+08
1.56064e+08
1.45255e+08
1.2978e+08
1.10292e+08
8.52599e+07
5.88841e+07
6.19343e+07
1.17316e+08
2.09529e+08
3.53701e+08
5.43205e+08
8.12158e+08
1.04805e+09
1.69854e+08
1.75661e+08
1.69672e+08
1.62349e+08
1.51445e+08
1.35682e+08
1.159e+08
9.03604e+07
6.27959e+07
6.26436e+07
1.16254e+08
2.08826e+08
3.53976e+08
5.44835e+08
8.14383e+08
1.05029e+09
1.76375e+08
1.81613e+08
1.75642e+08
1.68181e+08
1.5724e+08
1.41248e+08
1.21223e+08
9.52255e+07
6.65471e+07
6.33975e+07
1.15194e+08
2.08163e+08
3.54387e+08
5.46735e+08
8.1699e+08
1.05316e+09
1.82352e+08
1.86792e+08
1.80893e+08
1.73351e+08
1.62448e+08
1.46311e+08
1.26109e+08
9.97131e+07
6.99707e+07
6.39771e+07
1.13997e+08
2.07427e+08
3.54852e+08
5.48804e+08
8.20026e+08
1.0567e+09
1.87547e+08
1.90664e+08
1.84906e+08
1.77368e+08
1.66604e+08
1.50443e+08
1.30168e+08
1.03466e+08
7.27255e+07
6.41253e+07
1.12598e+08
2.06594e+08
3.55396e+08
5.51077e+08
8.23598e+08
1.061e+09
1.91418e+08
1.92496e+08
1.86965e+08
1.79545e+08
1.69048e+08
1.53022e+08
1.32811e+08
1.05927e+08
7.42784e+07
6.34502e+07
1.10912e+08
2.05716e+08
3.56056e+08
5.53617e+08
8.27683e+08
1.06621e+09
1.93227e+08
1.91669e+08
1.8647e+08
1.79325e+08
1.69263e+08
1.53586e+08
1.33627e+08
1.0671e+08
7.42217e+07
6.14186e+07
1.08654e+08
2.04588e+08
3.5669e+08
5.56293e+08
8.32227e+08
1.07229e+09
1.92342e+08
1.87387e+08
1.82655e+08
1.76001e+08
1.66592e+08
1.51551e+08
1.32089e+08
1.05329e+08
7.20224e+07
5.73556e+07
1.05532e+08
2.03022e+08
3.57116e+08
5.58907e+08
8.37192e+08
1.07929e+09
1.87952e+08
1.78489e+08
1.74388e+08
1.68529e+08
1.60055e+08
1.46038e+08
1.27414e+08
1.01069e+08
6.69675e+07
5.0519e+07
1.01506e+08
2.01005e+08
3.57302e+08
5.61352e+08
8.4257e+08
1.08729e+09
1.78863e+08
1.63653e+08
1.60404e+08
1.55781e+08
1.48633e+08
1.3619e+08
1.18887e+08
9.33264e+07
5.8426e+07
3.9998e+07
9.68499e+07
1.98578e+08
3.57211e+08
5.63369e+08
8.48186e+08
1.09619e+09
1.63702e+08
1.41788e+08
1.39714e+08
1.37046e+08
1.31812e+08
1.21791e+08
1.06578e+08
8.24502e+07
4.6993e+07
2.55259e+07
9.24013e+07
1.95919e+08
3.56652e+08
5.64617e+08
8.53726e+08
1.10588e+09
1.41257e+08
1.11612e+08
1.11309e+08
1.1197e+08
1.09694e+08
1.0359e+08
9.19545e+07
7.07633e+07
3.78044e+07
1.5482e+07
9.10651e+07
1.94044e+08
3.55565e+08
5.6522e+08
8.58992e+08
1.11615e+09
1.09932e+08
7.26649e+07
7.56835e+07
8.2982e+07
8.57629e+07
8.64787e+07
8.1302e+07
6.69817e+07
4.71423e+07
3.82606e+07
9.87212e+07
1.95332e+08
3.54985e+08
5.65108e+08
8.63624e+08
1.12668e+09
6.80139e+07
3.56619e+07
4.66096e+07
6.63199e+07
7.6284e+07
8.63585e+07
9.00021e+07
8.61535e+07
8.18989e+07
7.965e+07
1.21913e+08
2.03818e+08
3.56684e+08
5.64701e+08
8.67303e+08
1.1367e+09
1.65627e+07
6.75507e+07
7.61012e+07
9.51799e+07
1.06325e+08
1.20155e+08
1.28707e+08
1.31771e+08
1.35448e+08
1.35188e+08
1.64383e+08
2.25571e+08
3.63987e+08
5.64786e+08
8.69252e+08
1.14532e+09
5.62646e+07
1.44659e+08
1.49361e+08
1.62802e+08
1.71343e+08
1.83999e+08
1.93205e+08
1.98954e+08
2.05849e+08
2.06395e+08
2.27586e+08
2.67546e+08
3.8362e+08
5.6823e+08
8.68435e+08
1.15058e+09
1.38145e+08
2.40179e+08
2.42969e+08
2.52935e+08
2.59195e+08
2.69893e+08
2.78336e+08
2.84906e+08
2.93248e+08
2.94749e+08
3.12264e+08
3.36364e+08
4.27577e+08
5.85918e+08
8.70357e+08
1.15142e+09
2.35315e+08
3.50438e+08
3.52087e+08
3.59781e+08
3.64375e+08
3.73328e+08
3.80758e+08
3.87505e+08
3.96657e+08
3.99618e+08
4.16618e+08
4.32683e+08
5.0615e+08
6.37451e+08
8.97469e+08
1.16053e+09
3.46448e+08
4.73085e+08
4.74008e+08
4.80083e+08
4.83464e+08
4.90979e+08
4.97356e+08
5.03963e+08
5.13232e+08
5.17429e+08
5.3422e+08
5.46852e+08
6.10011e+08
7.20995e+08
9.57205e+08
1.19318e+09
4.69684e+08
6.04757e+08
6.05232e+08
6.1009e+08
6.12583e+08
6.1891e+08
6.24208e+08
6.30423e+08
6.39011e+08
6.43595e+08
6.58771e+08
6.67924e+08
7.21421e+08
8.12507e+08
1.0207e+09
1.22112e+09
6.01827e+08
7.4065e+08
7.40886e+08
7.44807e+08
7.4668e+08
7.52027e+08
7.56298e+08
7.61984e+08
7.69296e+08
7.7356e+08
7.85619e+08
7.90579e+08
8.33571e+08
9.03715e+08
1.07992e+09
1.24088e+09
7.38141e+08
8.74708e+08
8.74866e+08
8.78054e+08
8.79534e+08
8.84073e+08
8.87437e+08
8.92541e+08
8.98293e+08
9.01842e+08
9.10077e+08
9.10663e+08
9.42592e+08
9.91524e+08
1.13433e+09
1.25387e+09
8.72602e+08
1.00019e+09
1.00038e+09
1.00296e+09
1.00423e+09
1.00807e+09
1.01074e+09
1.01529e+09
1.01959e+09
1.02233e+09
1.02675e+09
1.02393e+09
1.04501e+09
1.07353e+09
1.18202e+09
1.25682e+09
9.9849e+08
1.10922e+09
1.10947e+09
1.11152e+09
1.11268e+09
1.11584e+09
1.11805e+09
1.12203e+09
1.12521e+09
1.12734e+09
1.12886e+09
1.12488e+09
1.1364e+09
1.14817e+09
1.22145e+09
1.25682e+09
1.10793e+09
1.19292e+09
1.1932e+09
1.19469e+09
1.19569e+09
1.19811e+09
1.19996e+09
1.2033e+09
1.20603e+09
1.20836e+09
1.20886e+09
1.2068e+09
1.21164e+09
1.21451e+09
1.2527e+09
1.25676e+09
1.19205e+09
1.2462e+09
1.2465e+09
1.24748e+09
1.24836e+09
1.25018e+09
1.25198e+09
1.25492e+09
1.25779e+09
1.25945e+09
1.25932e+09
1.25911e+09
1.25872e+09
1.25819e+09
1.25746e+09
1.25663e+09
1.24572e+09
1.25939e+09
1.25941e+09
1.25943e+09
1.25946e+09
1.25949e+09
1.25952e+09
1.25953e+09
1.25951e+09
1.25945e+09
1.2593e+09
1.25908e+09
1.25867e+09
1.25813e+09
1.25733e+09
1.2564e+09
1.25938e+09
1.2593e+09
1.25932e+09
1.25934e+09
1.25936e+09
1.25938e+09
1.25939e+09
1.25939e+09
1.25934e+09
1.25925e+09
1.25908e+09
1.25882e+09
1.25838e+09
1.25781e+09
1.25698e+09
1.25604e+09
1.25929e+09
1.25904e+09
1.25905e+09
1.25906e+09
1.25907e+09
1.25908e+09
1.25907e+09
1.25904e+09
1.25897e+09
1.25884e+09
1.25863e+09
1.25832e+09
1.25786e+09
1.25725e+09
1.25644e+09
1.25555e+09
1.25903e+09
1.25859e+09
1.25859e+09
1.25859e+09
1.25859e+09
1.25858e+09
1.25855e+09
1.25849e+09
1.25838e+09
1.25822e+09
1.25798e+09
1.25763e+09
1.25715e+09
1.25654e+09
1.25578e+09
1.25501e+09
1.25858e+09
1.25794e+09
1.25794e+09
1.25793e+09
1.25791e+09
1.25788e+09
1.25783e+09
1.25774e+09
1.25762e+09
1.25743e+09
1.25716e+09
1.2568e+09
1.25632e+09
1.25574e+09
1.25509e+09
1.25447e+09
1.25794e+09
1.25714e+09
1.25713e+09
1.25711e+09
1.25707e+09
1.25702e+09
1.25695e+09
1.25684e+09
1.2567e+09
1.25649e+09
1.25622e+09
1.25586e+09
1.25542e+09
1.25489e+09
1.25437e+09
1.25392e+09
1.25715e+09
1.25623e+09
1.25621e+09
1.25617e+09
1.25612e+09
1.25604e+09
1.25595e+09
1.25583e+09
1.25567e+09
1.25545e+09
1.25519e+09
1.25485e+09
1.25447e+09
1.25403e+09
1.25365e+09
1.25338e+09
1.25624e+09
1.25526e+09
1.25522e+09
1.25517e+09
1.2551e+09
1.255e+09
1.25489e+09
1.25475e+09
1.25457e+09
1.25436e+09
1.25411e+09
1.25381e+09
1.25349e+09
1.25316e+09
1.25294e+09
1.25286e+09
1.25527e+09
1.25427e+09
1.25422e+09
1.25416e+09
1.25407e+09
1.25396e+09
1.25382e+09
1.25367e+09
1.25348e+09
1.25326e+09
1.25302e+09
1.25276e+09
1.25252e+09
1.25231e+09
1.25226e+09
1.25237e+09
1.25428e+09
1.2533e+09
1.25325e+09
1.25318e+09
1.25308e+09
1.25295e+09
1.2528e+09
1.25263e+09
1.25243e+09
1.25221e+09
1.25197e+09
1.25175e+09
1.25158e+09
1.25149e+09
1.2516e+09
1.25188e+09
1.25331e+09
1.25237e+09
1.25233e+09
1.25226e+09
1.25216e+09
1.25202e+09
1.25187e+09
1.25169e+09
1.25148e+09
1.25127e+09
1.25105e+09
1.25086e+09
1.25074e+09
1.25075e+09
1.25097e+09
1.25138e+09
1.25238e+09
1.25151e+09
1.25146e+09
1.2514e+09
1.2513e+09
1.25118e+09
1.25102e+09
1.25085e+09
1.25066e+09
1.25047e+09
1.25033e+09
1.25022e+09
1.25016e+09
1.25021e+09
1.25041e+09
1.25086e+09
1.25152e+09
1.25072e+09
1.25067e+09
1.2506e+09
1.25051e+09
1.25043e+09
1.25033e+09
1.25021e+09
1.25008e+09
1.2361e+09
1.18616e+09
1.15763e+09
1.15099e+09
1.18549e+09
1.25005e+09
1.25037e+09
1.25073e+09
1.25013e+09
1.25009e+09
1.25004e+09
1.23864e+09
1.20579e+09
1.16694e+09
1.125e+09
1.08221e+09
1.04939e+09
1.02371e+09
1.01818e+09
1.0316e+09
1.07846e+09
1.15555e+09
1.25006e+09
1.25014e+09
1.08148e+09
1.06768e+09
1.05017e+09
1.02788e+09
1.00356e+09
9.76158e+08
9.50672e+08
9.27519e+08
9.12265e+08
9.01416e+08
9.1122e+08
9.40175e+08
9.98966e+08
1.07771e+09
1.18135e+09
1.08569e+09
9.06015e+08
8.97885e+08
8.87446e+08
8.71825e+08
8.52193e+08
8.31015e+08
8.13417e+08
8.00263e+08
7.97619e+08
8.03369e+08
8.26427e+08
8.65534e+08
9.27111e+08
1.00662e+09
1.10605e+09
9.08452e+08
7.60532e+08
7.54e+08
7.45611e+08
7.34893e+08
7.23363e+08
7.12268e+08
7.05421e+08
7.03777e+08
7.11373e+08
7.27598e+08
7.58493e+08
8.03194e+08
8.64776e+08
9.40682e+08
1.0313e+09
7.62644e+08
6.43e+08
6.39522e+08
6.34808e+08
6.29143e+08
6.23438e+08
6.19664e+08
6.20406e+08
6.27096e+08
6.4234e+08
6.66405e+08
7.02057e+08
7.48984e+08
8.0815e+08
8.78554e+08
9.59888e+08
6.4424e+08
5.48028e+08
5.46722e+08
5.44785e+08
5.43617e+08
5.43494e+08
5.46501e+08
5.5389e+08
5.67375e+08
5.88006e+08
6.16677e+08
6.54215e+08
7.00862e+08
7.56248e+08
8.20107e+08
8.91941e+08
5.48723e+08
4.72739e+08
4.73605e+08
4.74362e+08
4.7713e+08
4.81374e+08
4.89516e+08
5.01645e+08
5.19765e+08
5.43688e+08
5.74744e+08
6.12341e+08
6.57173e+08
7.08081e+08
7.65235e+08
8.2819e+08
4.72822e+08
4.13308e+08
4.15958e+08
4.1893e+08
4.24919e+08
4.32624e+08
4.44675e+08
4.60163e+08
4.8129e+08
5.06893e+08
5.38616e+08
5.75001e+08
6.17077e+08
6.63253e+08
7.13922e+08
7.68795e+08
4.1287e+08
3.66997e+08
3.71117e+08
3.75874e+08
3.84331e+08
3.9451e+08
4.09205e+08
4.26726e+08
4.49431e+08
4.75463e+08
5.06689e+08
5.41107e+08
5.79963e+08
6.21455e+08
6.66091e+08
7.13761e+08
3.661e+08
3.31093e+08
3.36307e+08
3.42374e+08
3.52564e+08
3.64374e+08
3.80677e+08
3.99217e+08
4.22442e+08
4.48036e+08
4.77999e+08
5.10031e+08
5.45501e+08
5.8254e+08
6.21703e+08
6.63067e+08
3.29832e+08
3.03451e+08
3.09403e+08
3.16336e+08
3.2759e+08
3.40301e+08
3.57348e+08
3.7611e+08
3.99066e+08
4.23631e+08
4.51864e+08
4.81325e+08
5.1343e+08
5.4633e+08
5.80586e+08
6.16441e+08
3.01926e+08
2.82204e+08
2.88565e+08
2.95969e+08
3.07719e+08
3.20748e+08
3.37877e+08
3.56288e+08
3.78434e+08
4.01602e+08
4.2785e+08
4.54709e+08
4.83586e+08
5.12711e+08
5.42625e+08
5.73729e+08
2.80513e+08
2.65855e+08
2.72348e+08
2.79895e+08
2.91685e+08
3.04583e+08
3.21305e+08
3.38962e+08
3.59936e+08
3.81497e+08
4.05645e+08
4.29964e+08
4.55808e+08
4.81523e+08
5.07614e+08
5.3462e+08
2.64089e+08
2.5318e+08
2.59583e+08
2.67017e+08
2.78504e+08
2.90947e+08
3.06918e+08
3.2356e+08
3.43144e+08
3.62997e+08
3.85031e+08
4.06929e+08
4.29967e+08
4.52628e+08
4.7537e+08
4.98859e+08
2.51411e+08
2.43207e+08
2.49358e+08
2.56494e+08
2.67434e+08
2.792e+08
2.94196e+08
3.09666e+08
3.27743e+08
3.45869e+08
3.65836e+08
3.85464e+08
4.05934e+08
4.25874e+08
4.45696e+08
4.66178e+08
2.41493e+08
2.35172e+08
2.4096e+08
2.47672e+08
2.57907e+08
2.68859e+08
2.82749e+08
2.96969e+08
3.13499e+08
3.29929e+08
3.47918e+08
3.65444e+08
3.83579e+08
4.01106e+08
4.18383e+08
4.36289e+08
2.33551e+08
2.28477e+08
2.33838e+08
2.40051e+08
2.4949e+08
2.59557e+08
2.72279e+08
2.85231e+08
3.00225e+08
3.15029e+08
3.31155e+08
3.46753e+08
3.62781e+08
3.78178e+08
3.93249e+08
4.08965e+08
2.26974e+08
2.2267e+08
2.27569e+08
2.33248e+08
2.41855e+08
2.51012e+08
2.62558e+08
2.74263e+08
2.87775e+08
3.01043e+08
3.15435e+08
3.29279e+08
3.43413e+08
3.56931e+08
3.70087e+08
3.83931e+08
2.21297e+08
2.17406e+08
2.21839e+08
2.26976e+08
2.34751e+08
2.43011e+08
2.53409e+08
2.6392e+08
2.76024e+08
2.87865e+08
3.0066e+08
3.12917e+08
3.25359e+08
3.37229e+08
3.48729e+08
3.60982e+08
2.16167e+08
2.12434e+08
2.16412e+08
2.21021e+08
2.27992e+08
2.35391e+08
2.44695e+08
2.54083e+08
2.64873e+08
2.75399e+08
2.86737e+08
2.97567e+08
3.08503e+08
3.18927e+08
3.28995e+08
3.39895e+08
2.11327e+08
2.07574e+08
2.1112e+08
2.15229e+08
2.2144e+08
2.28031e+08
2.36312e+08
2.44659e+08
2.54237e+08
2.63566e+08
2.73582e+08
2.83138e+08
2.92736e+08
3.01898e+08
3.10729e+08
3.20479e+08
2.06591e+08
2.02701e+08
2.05847e+08
2.0949e+08
2.14996e+08
2.20841e+08
2.2818e+08
2.35575e+08
2.44047e+08
2.52294e+08
2.61121e+08
2.69544e+08
2.77961e+08
2.86022e+08
2.93788e+08
3.02563e+08
2.01833e+08
1.97734e+08
2.00514e+08
2.03731e+08
2.08595e+08
2.1376e+08
2.2024e+08
2.26774e+08
2.34245e+08
2.41524e+08
2.49288e+08
2.56709e+08
2.64086e+08
2.7119e+08
2.78037e+08
2.85984e+08
1.96972e+08
1.92627e+08
1.95075e+08
1.97909e+08
2.02191e+08
2.06744e+08
2.12451e+08
2.18212e+08
2.24788e+08
2.31205e+08
2.38025e+08
2.44564e+08
2.51029e+08
2.57305e+08
2.63363e+08
2.70611e+08
1.91959e+08
1.87356e+08
1.89508e+08
1.91999e+08
1.95761e+08
1.99769e+08
2.04784e+08
2.0986e+08
2.15637e+08
2.21293e+08
2.27279e+08
2.33047e+08
2.38716e+08
2.44276e+08
2.49656e+08
2.56309e+08
1.86772e+08
1.81916e+08
1.83805e+08
1.85993e+08
1.89294e+08
1.92819e+08
1.97221e+08
2.01693e+08
2.06765e+08
2.11753e+08
2.17006e+08
2.22104e+08
2.27079e+08
2.32024e+08
2.36823e+08
2.42972e+08
1.81405e+08
1.76314e+08
1.77971e+08
1.79893e+08
1.82788e+08
1.85891e+08
1.89753e+08
1.93695e+08
1.98148e+08
2.02555e+08
2.07168e+08
2.11684e+08
2.1606e+08
2.20477e+08
2.24779e+08
2.30502e+08
1.75867e+08
1.70566e+08
1.72021e+08
1.73711e+08
1.7625e+08
1.78985e+08
1.82375e+08
1.85858e+08
1.8977e+08
1.93673e+08
1.97729e+08
2.01746e+08
2.05603e+08
2.0957e+08
2.13447e+08
2.1881e+08
1.70175e+08
1.64694e+08
1.65973e+08
1.67463e+08
1.69692e+08
1.72109e+08
1.75088e+08
1.78174e+08
1.81617e+08
1.85087e+08
1.88662e+08
1.92251e+08
1.95664e+08
1.99248e+08
2.02764e+08
2.07824e+08
1.64351e+08
1.58724e+08
1.5985e+08
1.61167e+08
1.63128e+08
1.65272e+08
1.67895e+08
1.70641e+08
1.73678e+08
1.76779e+08
1.7994e+08
1.83166e+08
1.862e+08
1.89462e+08
1.9267e+08
1.97476e+08
1.58422e+08
1.52681e+08
1.53676e+08
1.54846e+08
1.56575e+08
1.58485e+08
1.60801e+08
1.63258e+08
1.65947e+08
1.68734e+08
1.71543e+08
1.74464e+08
1.77174e+08
1.80167e+08
1.83117e+08
1.87711e+08
1.52414e+08
1.46595e+08
1.47476e+08
1.4852e+08
1.50049e+08
1.51762e+08
1.53814e+08
1.56027e+08
1.58416e+08
1.60941e+08
1.6345e+08
1.66116e+08
1.68556e+08
1.71327e+08
1.74061e+08
1.7848e+08
1.46357e+08
1.40494e+08
1.41276e+08
1.42214e+08
1.43571e+08
1.45116e+08
1.46942e+08
1.48949e+08
1.51084e+08
1.5339e+08
1.55645e+08
1.58102e+08
1.60317e+08
1.62907e+08
1.65462e+08
1.69739e+08
1.40281e+08
1.34406e+08
1.35104e+08
1.35951e+08
1.3716e+08
1.38563e+08
1.40193e+08
1.42028e+08
1.43946e+08
1.46071e+08
1.48113e+08
1.50401e+08
1.5243e+08
1.54877e+08
1.57289e+08
1.61455e+08
1.34214e+08
1.28362e+08
1.28986e+08
1.29756e+08
1.30835e+08
1.32117e+08
1.33579e+08
1.35269e+08
1.37001e+08
1.38978e+08
1.40842e+08
1.42995e+08
1.44873e+08
1.47211e+08
1.4951e+08
1.53592e+08
1.28188e+08
1.22393e+08
1.22951e+08
1.23654e+08
1.24619e+08
1.25797e+08
1.27111e+08
1.28678e+08
1.30251e+08
1.32105e+08
1.3382e+08
1.35868e+08
1.37626e+08
1.39884e+08
1.42101e+08
1.46127e+08
1.22235e+08
1.16532e+08
1.17031e+08
1.17674e+08
1.18536e+08
1.19622e+08
1.20805e+08
1.22265e+08
1.23697e+08
1.2545e+08
1.27038e+08
1.29005e+08
1.30671e+08
1.32876e+08
1.35038e+08
1.39035e+08
1.16388e+08
1.10814e+08
1.11259e+08
1.11845e+08
1.12613e+08
1.13614e+08
1.14676e+08
1.1604e+08
1.17345e+08
1.1901e+08
1.2049e+08
1.22394e+08
1.23991e+08
1.26168e+08
1.28301e+08
1.32297e+08
1.10683e+08
1.05279e+08
1.05671e+08
1.06204e+08
1.06882e+08
1.07799e+08
1.08747e+08
1.10018e+08
1.11204e+08
1.12788e+08
1.1417e+08
1.16026e+08
1.1757e+08
1.1974e+08
1.21874e+08
1.25896e+08
1.0516e+08
9.99702e+07
1.00311e+08
1.00787e+08
1.01377e+08
1.02208e+08
1.03042e+08
1.04217e+08
1.05285e+08
1.06788e+08
1.08076e+08
1.09889e+08
1.11395e+08
1.13574e+08
1.15735e+08
1.19813e+08
9.98641e+07
9.49344e+07
9.52233e+07
9.56404e+07
9.61393e+07
9.68785e+07
9.75953e+07
9.86648e+07
9.9609e+07
1.01021e+08
1.02211e+08
1.03978e+08
1.05453e+08
1.07653e+08
1.0987e+08
1.14035e+08
9.48421e+07
9.02242e+07
9.04602e+07
9.08121e+07
9.12176e+07
9.18533e+07
9.24461e+07
9.33933e+07
9.42024e+07
9.55041e+07
9.6583e+07
9.8291e+07
9.97306e+07
1.01957e+08
1.04254e+08
1.0854e+08
9.0147e+07
8.58955e+07
8.60773e+07
8.63573e+07
8.66657e+07
8.71843e+07
8.76441e+07
8.84464e+07
8.91039e+07
9.02648e+07
9.121e+07
9.28302e+07
9.42196e+07
9.64637e+07
9.88663e+07
1.0331e+08
8.5835e+07
8.20067e+07
8.21339e+07
8.23355e+07
8.25442e+07
8.2931e+07
8.32495e+07
8.388e+07
8.43666e+07
8.53458e+07
8.61249e+07
8.76113e+07
8.89186e+07
9.11557e+07
9.36783e+07
9.8314e+07
8.19643e+07
7.86166e+07
7.86904e+07
7.88089e+07
7.89186e+07
7.91611e+07
7.93333e+07
7.97645e+07
8.0062e+07
8.08101e+07
8.13836e+07
8.26699e+07
8.38422e+07
8.60227e+07
8.86634e+07
9.35096e+07
7.85934e+07
7.57813e+07
7.58057e+07
7.584e+07
7.58564e+07
7.59479e+07
7.59763e+07
7.61862e+07
7.6283e+07
7.67477e+07
7.70728e+07
7.80694e+07
7.90265e+07
8.10643e+07
8.37894e+07
8.88449e+07
7.57774e+07
7.35481e+07
7.35301e+07
7.34843e+07
7.342e+07
7.33633e+07
7.32622e+07
7.3242e+07
7.31415e+07
7.32796e+07
7.33194e+07
7.39134e+07
7.45367e+07
7.62677e+07
7.8958e+07
8.42167e+07
7.35623e+07
7.19432e+07
7.18927e+07
7.17762e+07
7.16509e+07
7.14606e+07
7.12586e+07
7.10215e+07
7.07545e+07
7.05545e+07
7.03093e+07
7.03992e+07
7.05633e+07
7.17135e+07
7.40711e+07
7.94446e+07
7.19732e+07
7.0975e+07
7.09051e+07
7.07324e+07
7.05738e+07
7.02759e+07
7.00199e+07
6.96053e+07
6.92436e+07
6.87554e+07
6.83192e+07
6.79215e+07
6.76597e+07
6.80204e+07
6.96607e+07
7.46314e+07
7.10174e+07
7.08485e+07
7.07704e+07
7.05566e+07
7.0388e+07
7.00107e+07
6.97407e+07
6.91953e+07
6.88061e+07
6.81068e+07
6.75936e+07
6.68254e+07
6.62901e+07
6.58635e+07
6.64017e+07
6.96041e+07
7.08998e+07
7.11019e+07
7.10224e+07
7.07927e+07
7.06244e+07
7.02154e+07
6.99468e+07
6.93478e+07
6.89565e+07
6.81677e+07
6.76321e+07
6.66991e+07
6.60495e+07
6.52236e+07
6.51407e+07
6.6797e+07
7.11567e+07
)
;

boundaryField
{
    wireUpstream
    {
        type            calculated;
        value           nonuniform List<scalar> 
16
(
7.14328e+07
7.13578e+07
7.11139e+07
7.09588e+07
7.05199e+07
7.02733e+07
6.96208e+07
6.92558e+07
6.83736e+07
6.7849e+07
6.67392e+07
6.60112e+07
6.47964e+07
6.41364e+07
6.37508e+07
7.14902e+07
)
;
    }
    wireDownstream
    {
        type            calculated;
        value           nonuniform List<scalar> 
16
(
4.88266e+07
4.47948e+07
4.11755e+07
3.35328e+07
2.49792e+07
1.43261e+07
2.28258e+07
5.03101e+07
9.11954e+07
1.53467e+08
2.34117e+08
3.61926e+08
5.27244e+08
7.82509e+08
1.04431e+09
4.90451e+07
)
;
    }
    wireTopContact
    {
        type            calculated;
        value           nonuniform List<scalar> 
122
(
1.03893e+09
1.04025e+09
1.04107e+09
1.04272e+09
1.04425e+09
1.04577e+09
1.04712e+09
1.04827e+09
1.04918e+09
1.04994e+09
1.05049e+09
1.05086e+09
1.05104e+09
1.05107e+09
1.05098e+09
1.05081e+09
1.05054e+09
1.05018e+09
1.04974e+09
1.04929e+09
1.0485e+09
1.04772e+09
1.04711e+09
1.04654e+09
1.04607e+09
1.04574e+09
1.04563e+09
1.04577e+09
1.04617e+09
1.04693e+09
1.04806e+09
1.04968e+09
1.05187e+09
1.05469e+09
1.05819e+09
1.06244e+09
1.0676e+09
1.07364e+09
1.08062e+09
1.0886e+09
1.09751e+09
1.10727e+09
1.11766e+09
1.12837e+09
1.13866e+09
1.14775e+09
1.15391e+09
1.15515e+09
1.16255e+09
1.1957e+09
1.22297e+09
1.24195e+09
1.25426e+09
1.25679e+09
1.25678e+09
1.25672e+09
1.25658e+09
1.25636e+09
1.25601e+09
1.25552e+09
1.25498e+09
1.25443e+09
1.25388e+09
1.25334e+09
1.25283e+09
1.25234e+09
1.25186e+09
1.25137e+09
1.25086e+09
1.25038e+09
1.25006e+09
1.18131e+09
1.10683e+09
1.03218e+09
9.60715e+08
8.92663e+08
8.28815e+08
7.69344e+08
7.14238e+08
6.635e+08
6.16827e+08
5.74086e+08
5.34945e+08
4.99159e+08
4.66455e+08
4.3654e+08
4.09196e+08
3.84137e+08
3.61167e+08
3.40057e+08
3.20618e+08
3.02683e+08
2.86082e+08
2.7069e+08
2.56369e+08
2.43015e+08
2.30528e+08
2.1882e+08
2.07819e+08
1.97456e+08
1.87677e+08
1.78432e+08
1.69678e+08
1.6138e+08
1.53503e+08
1.46024e+08
1.38917e+08
1.32164e+08
1.25748e+08
1.1965e+08
1.13859e+08
1.08352e+08
1.03114e+08
9.81184e+07
9.33245e+07
8.86858e+07
8.41207e+07
7.95059e+07
7.49534e+07
7.02073e+07
6.74134e+07
1.043e+09
)
;
    }
    front
    {
        type            wedge;
    }
    back
    {
        type            wedge;
    }
}


// ************************************************************************* //
