/*--------------------------------*- C++ -*----------------------------------*\
| =========                 |                                                 |
| \\      /  F ield         | foam-extend: Open Source CFD                    |
|  \\    /   O peration     | Version:     4.1-20200408                       |
|   \\  /    A nd           | Web:         http://www.foam-extend.org         |
|    \\/     M anipulation  |                                                 |
\*---------------------------------------------------------------------------*/
FoamFile
{
    version     2.0;
    format      ascii;
    class       volSymmTensorField;
    location    "0.0970000";
    object      sigmaCauchy;
}
// * * * * * * * * * * * * * * * * * * * * * * * * * * * * * * * * * * * * * //

dimensions      [1 -1 -2 0 0 0 0];

internalField   nonuniform List<symmTensor> 
1952
(
(-1.00229e+09 1.6011e+06 -5.51568 -4.15186e+08 -1.32108 -4.0448e+08)
(-9.60773e+08 782681 -3.69118 -4.07934e+08 3.05597 -3.79344e+08)
(-9.0995e+08 3.05689e+06 4.28987 -3.92562e+08 8.88753 -3.42722e+08)
(-8.38299e+08 1.87984e+06 11.644 -3.77788e+08 -9.37874 -3.02362e+08)
(-7.51823e+08 4.463e+06 -2.92921 -3.57689e+08 -24.0882 -2.5444e+08)
(-6.56907e+08 3.11453e+06 -15.8316 -3.3785e+08 2.5918 -2.02272e+08)
(-5.48425e+08 5.91304e+06 -3.98832 -3.13554e+08 37.1094 -1.48783e+08)
(-4.09672e+08 4.48373e+06 6.80443 -2.90681e+08 -3.64985 -9.08709e+07)
(-2.50012e+08 7.45845e+06 -1.11924 -2.63189e+08 -38.5816 -3.62269e+07)
(-5.24505e+07 6.03671e+06 -6.45242 -2.38823e+08 24.1141 3.97299e+07)
(1.72961e+08 9.24908e+06 1.95508 -2.06005e+08 43.4604 1.03843e+08)
(4.86403e+08 7.9885e+06 2.49434 -1.79958e+08 -24.5221 2.15866e+08)
(8.07759e+08 1.1705e+07 -0.188137 -1.37954e+08 -42.563 3.07603e+08)
(1.06469e+09 1.11266e+07 -1.47007 -1.08063e+08 26.4808 4.77686e+08)
(1.21268e+09 1.64295e+07 -1.17176 -5.23137e+07 15.1227 5.82589e+08)
(-1.01517e+09 34968.5 -1.17132 -4.22815e+08 3.15169 -4.19983e+08)
(-9.93677e+08 3.56989e+06 -11.0345 -4.04693e+08 -1.3951 -3.93838e+08)
(-9.52097e+08 2.1282e+06 -7.38324 -3.97319e+08 3.12905 -3.68829e+08)
(-9.01201e+08 6.93118e+06 8.58286 -3.82118e+08 9.23646 -3.32091e+08)
(-8.29516e+08 4.73941e+06 23.2894 -3.67416e+08 -9.42295 -2.91959e+08)
(-7.42855e+08 1.01442e+07 -5.86212 -3.47462e+08 -24.7076 -2.43939e+08)
(-6.47891e+08 7.54704e+06 -31.6719 -3.2787e+08 2.33294 -1.92062e+08)
(-5.39184e+08 1.33278e+07 -7.98303 -3.03769e+08 37.7642 -1.38513e+08)
(-4.004e+08 1.04622e+07 13.5826 -2.81337e+08 -3.36372 -8.09697e+07)
(-2.40473e+08 1.64681e+07 -2.24026 -2.54183e+08 -39.1326 -2.63854e+07)
(-4.28217e+07 1.34043e+07 -12.8607 -2.30525e+08 24.0527 4.91153e+07)
(1.82936e+08 1.9459e+07 3.87985 -1.98312e+08 43.9207 1.13074e+08)
(4.96547e+08 1.59664e+07 4.87335 -1.73421e+08 -24.514 2.24464e+08)
(8.18329e+08 2.16501e+07 -0.36955 -1.32428e+08 -42.9952 3.15845e+08)
(1.07538e+09 1.70454e+07 -2.53589 -1.0462e+08 26.4043 4.84962e+08)
(1.22419e+09 2.09805e+07 -1.93616 -5.02937e+07 15.2664 5.89332e+08)
(-1.00651e+09 214784 -2.3411 -4.12083e+08 3.36857 -4.09359e+08)
(-9.89775e+08 3.84532e+06 -11.0411 -4.00348e+08 -1.41714 -3.89424e+08)
(-9.48175e+08 2.52056e+06 -7.3851 -3.9297e+08 3.16654 -3.64489e+08)
(-8.97268e+08 7.52708e+06 8.58876 -3.77925e+08 9.36095 -3.27758e+08)
(-8.25598e+08 5.40759e+06 23.2916 -3.63313e+08 -9.4796 -2.87768e+08)
(-7.38915e+08 1.10212e+07 -5.86908 -3.43562e+08 -24.9264 -2.39822e+08)
(-6.43972e+08 8.47617e+06 -31.6864 -3.24155e+08 2.3045 -1.88129e+08)
(-5.35258e+08 1.44291e+07 -7.99773 -3.00323e+08 38.0186 -1.34672e+08)
(-3.9652e+08 1.1561e+07 13.5751 -2.78172e+08 -3.28771 -7.73632e+07)
(-2.3659e+08 1.76737e+07 -2.24332 -2.51376e+08 -39.3111 -2.2949e+07)
(-3.9112e+07 1.44953e+07 -12.8531 -2.28164e+08 24.0406 5.22071e+07)
(1.86385e+08 2.05273e+07 3.87768 -1.9646e+08 44.047 1.15871e+08)
(4.99431e+08 1.67542e+07 4.88158 -1.72181e+08 -24.5003 2.26789e+08)
(8.20298e+08 2.22468e+07 -0.369361 -1.31805e+08 -43.1219 3.17636e+08)
(1.07563e+09 1.72655e+07 -2.54987 -1.04612e+08 26.3021 4.85866e+08)
(1.22137e+09 2.09949e+07 -1.96137 -5.05747e+07 15.2971 5.89204e+08)
(-1.00259e+09 314655 -2.34505 -4.07628e+08 3.45582 -4.04942e+08)
(-9.8617e+08 4.03673e+06 -11.0488 -3.97099e+08 -1.42987 -3.86148e+08)
(-9.44565e+08 2.78254e+06 -7.38713 -3.89758e+08 3.19288 -3.61257e+08)
(-8.93683e+08 7.94032e+06 8.5951 -3.7483e+08 9.43671 -3.24578e+08)
(-8.22019e+08 5.88055e+06 23.3008 -3.60325e+08 -9.52672 -2.84679e+08)
(-7.35304e+08 1.16408e+07 -5.87566 -3.40738e+08 -25.059 -2.36823e+08)
(-6.40402e+08 9.11416e+06 -31.7014 -3.2155e+08 2.30194 -1.85286e+08)
(-5.31706e+08 1.5175e+07 -8.01222 -2.9795e+08 38.1582 -1.31957e+08)
(-3.93071e+08 1.22772e+07 13.5575 -2.7611e+08 -3.27591 -7.48559e+07)
(-2.33246e+08 1.83859e+07 -2.24719 -2.49629e+08 -39.4164 -2.05873e+07)
(-3.59815e+07 1.50733e+07 -12.8473 -2.26773e+08 24.0468 5.4289e+07)
(1.89254e+08 2.10082e+07 3.87549 -1.95415e+08 44.1197 1.17693e+08)
(5.01874e+08 1.69902e+07 4.88788 -1.71492e+08 -24.4774 2.2821e+08)
(8.22193e+08 2.22981e+07 -0.369438 -1.31397e+08 -43.1754 3.18747e+08)
(1.07663e+09 1.70025e+07 -2.57456 -1.04441e+08 26.2453 4.86555e+08)
(1.22123e+09 2.08317e+07 -2.00391 -5.04989e+07 15.3122 5.89501e+08)
(-9.98967e+08 377689 -2.34782 -4.04332e+08 3.51088 -4.01651e+08)
(-9.82086e+08 4.1755e+06 -11.057 -3.94441e+08 -1.43669 -3.83474e+08)
(-9.40476e+08 2.98042e+06 -7.39033 -3.87156e+08 3.20794 -3.58621e+08)
(-8.89587e+08 8.22865e+06 8.60224 -3.72319e+08 9.47562 -3.21994e+08)
(-8.1795e+08 6.20977e+06 23.3058 -3.5794e+08 -9.55472 -2.8218e+08)
(-7.31275e+08 1.20116e+07 -5.88291 -3.38523e+08 -25.1327 -2.3437e+08)
(-6.36438e+08 9.49083e+06 -31.7137 -3.19507e+08 2.291 -1.82978e+08)
(-5.27816e+08 1.55638e+07 -8.02901 -2.96141e+08 38.2313 -1.29787e+08)
(-3.89349e+08 1.26084e+07 13.5329 -2.74552e+08 -3.25307 -7.28966e+07)
(-2.2967e+08 1.86993e+07 -2.25135 -2.48351e+08 -39.4478 -1.88799e+07)
(-3.26722e+07 1.52837e+07 -12.8491 -2.25782e+08 24.0421 5.57485e+07)
(1.92182e+08 2.1122e+07 3.88638 -1.94729e+08 44.1296 1.18891e+08)
(5.04233e+08 1.6951e+07 4.89522 -1.71076e+08 -24.4558 2.29078e+08)
(8.23747e+08 2.21389e+07 -0.369735 -1.31245e+08 -43.1749 3.19249e+08)
(1.07712e+09 1.67515e+07 -2.61017 -1.04398e+08 26.2026 4.86671e+08)
(1.22035e+09 2.06984e+07 -2.03679 -5.05461e+07 15.3113 5.89209e+08)
(-9.94877e+08 426361 -2.34861 -4.01647e+08 3.54026 -3.98965e+08)
(-9.77962e+08 4.24915e+06 -11.0647 -3.92423e+08 -1.44005 -3.81432e+08)
(-9.36368e+08 3.06494e+06 -7.39231 -3.85179e+08 3.21181 -3.56618e+08)
(-8.85528e+08 8.36233e+06 8.60825 -3.70456e+08 9.48909 -3.20047e+08)
(-8.13956e+08 6.33014e+06 23.304 -3.56171e+08 -9.55503 -2.80323e+08)
(-7.2731e+08 1.21697e+07 -5.89084 -3.3692e+08 -25.1372 -2.32663e+08)
(-6.3255e+08 9.63096e+06 -31.7317 -3.18053e+08 2.28897 -1.81381e+08)
(-5.24046e+08 1.56804e+07 -8.04648 -2.949e+08 38.2283 -1.28321e+08)
(-3.85728e+08 1.26826e+07 13.5362 -2.73496e+08 -3.24551 -7.15852e+07)
(-2.26246e+08 1.86961e+07 -2.2548 -2.47521e+08 -39.4307 -1.77332e+07)
(-2.95808e+07 1.51697e+07 -12.8538 -2.25172e+08 24.0107 5.66585e+07)
(1.94881e+08 2.08902e+07 3.89275 -1.94321e+08 44.0946 1.1959e+08)
(5.06397e+08 1.66061e+07 4.9182 -1.70838e+08 -24.4236 2.29524e+08)
(8.25281e+08 2.1755e+07 -0.370139 -1.31133e+08 -43.1401 3.19467e+08)
(1.07785e+09 1.63714e+07 -2.64565 -1.04347e+08 26.1727 4.86625e+08)
(1.22016e+09 2.05321e+07 -2.06946 -5.05368e+07 15.3004 5.88906e+08)
(-9.90742e+08 445636 -2.35172 -3.99593e+08 3.54955 -3.96912e+08)
(-9.73766e+08 4.26993e+06 -11.0737 -3.90939e+08 -1.43893 -3.79935e+08)
(-9.32192e+08 3.06868e+06 -7.39553 -3.8374e+08 3.20697 -3.55154e+08)
(-8.81379e+08 8.37969e+06 8.61547 -3.69093e+08 9.47534 -3.18627e+08)
(-8.09853e+08 6.33787e+06 23.3181 -3.54896e+08 -9.54149 -2.78971e+08)
(-7.23265e+08 1.21655e+07 -5.89764 -3.35766e+08 -25.1027 -2.31383e+08)
(-6.28637e+08 9.57182e+06 -31.7449 -3.17042e+08 2.28011 -1.80235e+08)
(-5.20259e+08 1.55742e+07 -8.06502 -2.94039e+08 38.1787 -1.27287e+08)
(-3.82171e+08 1.25045e+07 13.5162 -2.72802e+08 -3.23865 -7.07134e+07)
(-2.22937e+08 1.84414e+07 -2.25937 -2.46985e+08 -39.3765 -1.70038e+07)
(-2.65911e+07 1.48522e+07 -12.8571 -2.24791e+08 23.976 5.72121e+07)
(1.97472e+08 2.05092e+07 3.90757 -1.94073e+08 44.0319 1.19971e+08)
(5.08519e+08 1.61813e+07 4.92773 -1.70691e+08 -24.3873 2.29695e+08)
(8.26768e+08 2.13147e+07 -0.370619 -1.31075e+08 -43.0765 3.19427e+08)
(1.07862e+09 1.5999e+07 -2.68362 -1.04312e+08 26.1565 4.86388e+08)
(1.22014e+09 2.03777e+07 -2.09755 -5.05393e+07 15.2817 5.88468e+08)
(-9.86539e+08 442930 -2.35287 -3.98089e+08 3.53992 -3.95405e+08)
(-9.69585e+08 4.25087e+06 -11.083 -3.89866e+08 -1.43518 -3.78852e+08)
(-9.28046e+08 3.00053e+06 -7.39757 -3.82702e+08 3.19493 -3.54108e+08)
(-8.77278e+08 8.30594e+06 8.62193 -3.68126e+08 9.44406 -3.17624e+08)
(-8.0584e+08 6.19829e+06 23.3166 -3.53997e+08 -9.51158 -2.7804e+08)
(-7.19351e+08 1.19953e+07 -5.90546 -3.34979e+08 -25.0353 -2.30516e+08)
(-6.24839e+08 9.35632e+06 -31.7575 -3.16339e+08 2.26707 -1.79459e+08)
(-5.16624e+08 1.53039e+07 -8.0844 -2.93466e+08 38.0991 -1.26605e+08)
(-3.78723e+08 1.21876e+07 13.5173 -2.72327e+08 -3.2256 -7.01484e+07)
(-2.19699e+08 1.80604e+07 -2.26262 -2.4663e+08 -39.2947 -1.65662e+07)
(-2.36821e+07 1.43988e+07 -12.8694 -2.24539e+08 23.9237 5.74882e+07)
(1.99989e+08 2.0002e+07 3.91805 -1.93914e+08 43.9419 1.20111e+08)
(5.10535e+08 1.56474e+07 4.95707 -1.70608e+08 -24.3523 2.2969e+08)
(8.28263e+08 2.08301e+07 -0.370977 -1.31028e+08 -42.9983 3.19282e+08)
(1.07956e+09 1.56233e+07 -2.71439 -1.04282e+08 26.1436 4.86079e+08)
(1.22048e+09 2.0227e+07 -2.12277 -5.05283e+07 15.2573 5.88017e+08)
(-9.82347e+08 421665 -2.35664 -3.96995e+08 3.51759 -3.9431e+08)
(-9.65497e+08 4.19265e+06 -11.0907 -3.8912e+08 -1.42945 -3.78097e+08)
(-9.23994e+08 2.87809e+06 -7.4003 -3.81982e+08 3.1784 -3.5338e+08)
(-8.73279e+08 8.15597e+06 8.62807 -3.6746e+08 9.40067 -3.16931e+08)
(-8.01916e+08 5.99607e+06 23.3257 -3.53383e+08 -9.47452 -2.77399e+08)
(-7.15476e+08 1.17546e+07 -5.91192 -3.34436e+08 -24.9416 -2.29943e+08)
(-6.21115e+08 9.03832e+06 -31.772 -3.15881e+08 2.25968 -1.78977e+08)
(-5.13043e+08 1.49257e+07 -8.10215 -2.93089e+08 37.9881 -1.26195e+08)
(-3.75377e+08 1.17475e+07 13.507 -2.72046e+08 -3.22571 -6.98496e+07)
(-2.1664e+08 1.75448e+07 -2.26679 -2.46428e+08 -39.1999 -1.63317e+07)
(-2.09352e+07 1.38594e+07 -12.8725 -2.24412e+08 23.8727 5.75985e+07)
(2.02389e+08 1.94331e+07 3.93156 -1.9383e+08 43.844 1.20117e+08)
(5.12584e+08 1.51111e+07 4.96901 -1.70561e+08 -24.3074 2.29548e+08)
(8.29857e+08 2.03471e+07 -0.371511 -1.30993e+08 -42.9048 3.19033e+08)
(1.08066e+09 1.52674e+07 -2.74605 -1.0426e+08 26.1374 4.85723e+08)
(1.22109e+09 2.00899e+07 -2.14442 -5.05176e+07 15.2292 5.87556e+08)
(-9.78247e+08 384741 -2.35781 -3.96232e+08 3.48597 -3.93548e+08)
(-9.61506e+08 4.11459e+06 -11.0989 -3.88621e+08 -1.42205 -3.77596e+08)
(-9.20044e+08 2.71639e+06 -7.40191 -3.81505e+08 3.15855 -3.52903e+08)
(-8.69364e+08 7.9558e+06 8.63401 -3.67022e+08 9.3478 -3.16477e+08)
(-7.98088e+08 5.70983e+06 23.3247 -3.52982e+08 -9.42993 -2.76994e+08)
(-7.11789e+08 1.14096e+07 -5.91879 -3.34105e+08 -24.8412 -2.29551e+08)
(-6.17564e+08 8.63527e+06 -31.7763 -3.15587e+08 2.24125 -1.78659e+08)
(-5.09652e+08 1.44598e+07 -8.1222 -2.92867e+08 37.8754 -1.25935e+08)
(-3.72187e+08 1.12358e+07 13.4954 -2.71867e+08 -3.20756 -6.96825e+07)
(-2.13627e+08 1.69937e+07 -2.26994 -2.46302e+08 -39.0887 -1.62608e+07)
(-1.81976e+07 1.32823e+07 -12.8872 -2.24326e+08 23.8147 5.75707e+07)
(2.04803e+08 1.88562e+07 3.9443 -1.93773e+08 43.7307 1.20011e+08)
(5.14592e+08 1.45619e+07 4.99503 -1.70529e+08 -24.2715 2.29362e+08)
(8.31471e+08 1.98804e+07 -0.371689 -1.3097e+08 -42.8065 3.18759e+08)
(1.08191e+09 1.4933e+07 -2.77514 -1.0424e+08 26.1334 4.85354e+08)
(1.22198e+09 1.99643e+07 -2.16323 -5.05025e+07 15.1983 5.87114e+08)
(-9.74247e+08 337606 -2.36122 -3.95724e+08 3.44767 -3.93039e+08)
(-9.57683e+08 4.01601e+06 -11.1051 -3.88287e+08 -1.41436 -3.77255e+08)
(-9.16264e+08 2.52643e+06 -7.40311 -3.8118e+08 3.13702 -3.52582e+08)
(-8.65645e+08 7.71733e+06 8.63877 -3.66736e+08 9.29251 -3.16178e+08)
(-7.9446e+08 5.38637e+06 23.325 -3.52717e+08 -9.38146 -2.76737e+08)
(-7.08193e+08 1.10356e+07 -5.92505 -3.33887e+08 -24.7228 -2.29355e+08)
(-6.14108e+08 8.18745e+06 -31.7894 -3.15407e+08 2.23322 -1.78517e+08)
(-5.06336e+08 1.39535e+07 -8.13914 -2.9273e+08 37.7419 -1.25834e+08)
(-3.69069e+08 1.069e+07 13.4946 -2.71768e+08 -3.20637 -6.9652e+07)
(-2.10772e+08 1.6394e+07 -2.27325 -2.46233e+08 -38.9778 -1.6253e+07)
(-1.56046e+07 1.26883e+07 -12.891 -2.24293e+08 23.7567 5.74883e+07)
(2.07124e+08 1.82602e+07 3.95524 -1.93741e+08 43.6178 1.19871e+08)
(5.16661e+08 1.4027e+07 5.00879 -1.70524e+08 -24.2287 2.29127e+08)
(8.33232e+08 1.94295e+07 -0.372079 -1.30942e+08 -42.7026 3.18479e+08)
(1.08334e+09 1.4632e+07 -2.79965 -1.04232e+08 26.1299 4.84991e+08)
(1.22311e+09 1.98503e+07 -2.17959 -5.04814e+07 15.166 5.86702e+08)
(-9.7041e+08 282693 -2.36152 -3.95376e+08 3.4069 -3.92693e+08)
(-9.54008e+08 3.90403e+06 -11.1125 -3.88092e+08 -1.40572 -3.77058e+08)
(-9.12627e+08 2.31149e+06 -7.40443 -3.80994e+08 3.11436 -3.52401e+08)
(-8.62041e+08 7.44923e+06 8.64369 -3.66572e+08 9.23271 -3.16007e+08)
(-7.90933e+08 5.02817e+06 23.3241 -3.52566e+08 -9.33119 -2.76599e+08)
(-7.04804e+08 1.06147e+07 -5.93079 -3.33773e+08 -24.6113 -2.29207e+08)
(-6.10849e+08 7.70516e+06 -31.7863 -3.15306e+08 2.21385 -1.7843e+08)
(-5.03207e+08 1.34164e+07 -8.15958 -2.9266e+08 37.6183 -1.25776e+08)
(-3.66124e+08 1.01186e+07 13.4717 -2.7172e+08 -3.18915 -6.96673e+07)
(-2.0795e+08 1.57917e+07 -2.2764 -2.46199e+08 -38.8603 -1.63172e+07)
(-1.29917e+07 1.20931e+07 -12.9042 -2.24277e+08 23.699 5.73643e+07)
(2.09493e+08 1.76884e+07 3.96711 -1.93717e+08 43.5004 1.19708e+08)
(5.18729e+08 1.35171e+07 5.03087 -1.70518e+08 -24.191 2.28898e+08)
(8.35035e+08 1.90149e+07 -0.372257 -1.30911e+08 -42.5977 3.18207e+08)
(1.08492e+09 1.43525e+07 -2.82349 -1.04221e+08 26.1297 4.84649e+08)
(1.22446e+09 1.97495e+07 -2.19332 -5.04608e+07 15.1324 5.8633e+08)
(-9.66725e+08 220474 -2.36548 -3.95175e+08 3.36325 -3.92491e+08)
(-9.50544e+08 3.7867e+06 -11.1182 -3.87958e+08 -1.39753 -3.7692e+08)
(-9.09203e+08 2.08931e+06 -7.40459 -3.80861e+08 3.09195 -3.52278e+08)
(-8.58666e+08 7.17201e+06 8.64719 -3.66466e+08 9.17543 -3.15895e+08)
(-7.87644e+08 4.6533e+06 23.3167 -3.52463e+08 -9.28058 -2.7652e+08)
(-7.01526e+08 1.01794e+07 -5.93669 -3.33704e+08 -24.4916 -2.29162e+08)
(-6.07682e+08 7.20926e+06 -31.7948 -3.15243e+08 2.20252 -1.78418e+08)
(-5.00154e+08 1.28632e+07 -8.17588 -2.92625e+08 37.4867 -1.25784e+08)
(-3.63227e+08 9.5445e+06 13.4714 -2.71698e+08 -3.18271 -6.97252e+07)
(-2.05263e+08 1.51863e+07 -2.27913 -2.46182e+08 -38.7465 -1.63972e+07)
(-1.04951e+07 1.15135e+07 -12.9115 -2.24277e+08 23.6432 5.72224e+07)
(2.11801e+08 1.71205e+07 3.97699 -1.93697e+08 43.3855 1.19542e+08)
(5.20876e+08 1.30312e+07 5.04241 -1.70523e+08 -24.1503 2.28661e+08)
(8.3699e+08 1.86175e+07 -0.372625 -1.30879e+08 -42.491 3.17957e+08)
(1.08664e+09 1.40971e+07 -2.83958 -1.04219e+08 26.1309 4.84343e+08)
(1.22601e+09 1.96535e+07 -2.20588 -5.04381e+07 15.0987 5.86011e+08)
(-9.63248e+08 156704 -2.36541 -3.95031e+08 3.32109 -3.9235e+08)
(-9.47241e+08 3.65898e+06 -11.1241 -3.87879e+08 -1.38932 -3.76836e+08)
(-9.05931e+08 1.84952e+06 -7.40491 -3.80781e+08 3.0696 -3.52206e+08)
(-8.55423e+08 6.87387e+06 8.65087 -3.66411e+08 9.11829 -3.15828e+08)
(-7.84467e+08 4.26074e+06 23.3119 -3.52404e+08 -9.22886 -2.76481e+08)
(-6.98459e+08 9.73124e+06 -5.94183 -3.33676e+08 -24.3806 -2.29126e+08)
(-6.04717e+08 6.70013e+06 -31.7875 -3.1521e+08 2.18315 -1.78429e+08)
(-4.97282e+08 1.23034e+07 -8.19658 -2.92617e+08 37.3663 -1.25804e+08)
(-3.60489e+08 8.96817e+06 13.4484 -2.71693e+08 -3.16204 -6.97987e+07)
(-2.02588e+08 1.459e+07 -2.28182 -2.46179e+08 -38.631 -1.64953e+07)
(-7.96814e+06 1.09466e+07 -12.921 -2.24288e+08 23.5828 5.70779e+07)
(2.14171e+08 1.65836e+07 3.98838 -1.93687e+08 43.2683 1.19388e+08)
(5.23041e+08 1.25749e+07 5.05927 -1.70526e+08 -24.1103 2.2846e+08)
(8.38992e+08 1.82568e+07 -0.372845 -1.30856e+08 -42.3867 3.1774e+08)
(1.08851e+09 1.38573e+07 -2.8562 -1.04215e+08 26.1327 4.841e+08)
(1.22775e+09 1.95703e+07 -2.21609 -5.04228e+07 15.0647 5.85753e+08)
(-9.59936e+08 87806.6 -2.36815 -3.94943e+08 3.27901 -3.92263e+08)
(-9.4418e+08 3.52889e+06 -11.1289 -3.87822e+08 -1.38165 -3.76775e+08)
(-9.02899e+08 1.6022e+06 -7.40428 -3.80718e+08 3.04837 -3.52157e+08)
(-8.52422e+08 6.57053e+06 8.65268 -3.66374e+08 9.06503 -3.15783e+08)
(-7.81528e+08 3.85954e+06 23.3016 -3.52356e+08 -9.17923 -2.76463e+08)
(-6.95504e+08 9.27282e+06 -5.94711 -3.33661e+08 -24.2687 -2.29128e+08)
(-6.01841e+08 6.18952e+06 -31.7898 -3.15192e+08 2.16844 -1.78462e+08)
(-4.94475e+08 1.1737e+07 -8.21286 -2.92621e+08 37.2445 -1.25841e+08)
(-3.57783e+08 8.40096e+06 13.4481 -2.717e+08 -3.14965 -6.98718e+07)
(-2.00027e+08 1.39981e+07 -2.28409 -2.46182e+08 -38.523 -1.65735e+07)
(-5.5308e+06 1.03985e+07 -12.9292 -2.24306e+08 23.5252 5.69513e+07)
(2.16506e+08 1.60609e+07 3.99757 -1.93674e+08 43.1567 1.19265e+08)
(5.25296e+08 1.21368e+07 5.06836 -1.70534e+08 -24.071 2.28295e+08)
(8.41135e+08 1.79081e+07 -0.373195 -1.30832e+08 -42.2842 3.17576e+08)
(1.09051e+09 1.36318e+07 -2.87265 -1.04225e+08 26.1364 4.83907e+08)
(1.22965e+09 1.94892e+07 -2.22573 -5.03967e+07 15.0317 5.8557e+08)
(-9.56864e+08 16609 -2.37046 -3.94876e+08 3.23984 -3.92199e+08)
(-9.41289e+08 3.39384e+06 -11.1334 -3.87775e+08 -1.37431 -3.76723e+08)
(-9.00027e+08 1.3479e+06 -7.4034 -3.80666e+08 3.028 -3.52117e+08)
(-8.49559e+08 6.25759e+06 8.65576 -3.66351e+08 9.0137 -3.15745e+08)
(-7.7871e+08 3.44829e+06 23.2929 -3.52321e+08 -9.13019 -2.7645e+08)
(-6.92756e+08 8.80772e+06 -5.95196 -3.33659e+08 -24.1678 -2.29111e+08)
(-5.99163e+08 5.66699e+06 -31.7782 -3.15174e+08 2.14689 -1.78487e+08)
(-4.91839e+08 1.11685e+07 -8.23378 -2.92625e+08 37.1364 -1.25857e+08)
(-3.55221e+08 7.83346e+06 13.4274 -2.71693e+08 -3.1237 -6.99257e+07)
(-1.97465e+08 1.34163e+07 -2.28664 -2.46169e+08 -38.4182 -1.66152e+07)
(-3.0486e+06 9.86526e+06 -12.9343 -2.24312e+08 23.4609 5.6869e+07)
(2.18906e+08 1.5567e+07 4.00766 -1.93659e+08 43.0458 1.19192e+08)
(5.27571e+08 1.17184e+07 5.08461 -1.70555e+08 -24.0359 2.28206e+08)
(8.43324e+08 1.75766e+07 -0.373319 -1.30812e+08 -42.1887 3.17491e+08)
(1.09264e+09 1.3424e+07 -2.88438 -1.04237e+08 26.1366 4.83781e+08)
(1.23172e+09 1.94148e+07 -2.23431 -5.03783e+07 14.999 5.85443e+08)
(-9.53969e+08 -56083.8 -2.37166 -3.94819e+08 3.20233 -3.92144e+08)
(-9.38654e+08 3.25338e+06 -11.1378 -3.87726e+08 -1.36775 -3.76668e+08)
(-8.97407e+08 1.07754e+06 -7.40185 -3.80604e+08 3.00932 -3.52071e+08)
(-8.46949e+08 5.93402e+06 8.65698 -3.66311e+08 8.96795 -3.15696e+08)
(-7.7613e+08 3.02634e+06 23.2795 -3.5226e+08 -9.08507 -2.76419e+08)
(-6.90127e+08 8.3332e+06 -5.95688 -3.33621e+08 -24.0723 -2.29072e+08)
(-5.96572e+08 5.15254e+06 -31.7738 -3.15133e+08 2.13002 -1.78475e+08)
(-4.89256e+08 1.06043e+07 -8.25034 -2.92595e+08 37.0332 -1.2583e+08)
(-3.52678e+08 7.28905e+06 13.4231 -2.71682e+08 -3.11003 -6.99301e+07)
(-1.94998e+08 1.28316e+07 -2.28872 -2.46153e+08 -38.3273 -1.65806e+07)
(-632299 9.32771e+06 -12.9448 -2.24322e+08 23.4029 5.68625e+07)
(2.21284e+08 1.50499e+07 4.01248 -1.93634e+08 42.947 1.19199e+08)
(5.29926e+08 1.12945e+07 5.10022 -1.70572e+08 -23.9931 2.28151e+08)
(8.45657e+08 1.72566e+07 -0.373646 -1.30777e+08 -42.095 3.17458e+08)
(1.09489e+09 1.32154e+07 -2.89921 -1.04258e+08 26.137 4.83718e+08)
(1.23393e+09 1.93444e+07 -2.24196 -5.03547e+07 14.9673 5.8539e+08)
(-9.51327e+08 -134286 -2.37363 -3.94757e+08 3.16871 -3.92087e+08)
(-9.36213e+08 3.11744e+06 -11.1417 -3.87637e+08 -1.36181 -3.76576e+08)
(-8.94965e+08 819593 -7.4003 -3.8051e+08 2.99308 -3.51984e+08)
(-8.4448e+08 5.62037e+06 8.65897 -3.66237e+08 8.92658 -3.15602e+08)
(-7.73674e+08 2.61641e+06 23.2654 -3.52178e+08 -9.0454 -2.76343e+08)
(-6.8769e+08 7.85441e+06 -5.96163 -3.33575e+08 -23.9946 -2.28955e+08)
(-5.94161e+08 4.61993e+06 -31.758 -3.15068e+08 2.10561 -1.78395e+08)
(-4.86824e+08 1.00138e+07 -8.27102 -2.92557e+08 36.9509 -1.25729e+08)
(-3.50282e+08 6.69726e+06 13.3952 -2.71648e+08 -3.07726 -6.98764e+07)
(-1.92558e+08 1.22315e+07 -2.29134 -2.46119e+08 -38.2379 -1.65322e+07)
(1.80455e+06 8.79427e+06 -12.9526 -2.24315e+08 23.3453 5.68815e+07)
(2.23723e+08 1.45582e+07 4.02361 -1.93603e+08 42.849 1.19243e+08)
(5.32339e+08 1.08901e+07 5.11207 -1.70583e+08 -23.959 2.28175e+08)
(8.48044e+08 1.69323e+07 -0.373759 -1.30757e+08 -42.0067 3.17485e+08)
(1.09726e+09 1.30037e+07 -2.91404 -1.04279e+08 26.1393 4.83719e+08)
(1.23629e+09 1.92743e+07 -2.24965 -5.03359e+07 14.9366 5.85406e+08)
(-9.48887e+08 -208455 -2.37551 -3.94662e+08 3.1387 -3.91993e+08)
(-9.34008e+08 2.9714e+06 -11.1457 -3.87508e+08 -1.35748 -3.76433e+08)
(-8.92758e+08 531440 -7.39693 -3.80364e+08 2.97866 -3.51847e+08)
(-8.42258e+08 5.27734e+06 8.65976 -3.66133e+08 8.89414 -3.15457e+08)
(-7.71465e+08 2.1553e+06 23.2418 -3.52046e+08 -9.00452 -2.76222e+08)
(-6.85407e+08 7.34318e+06 -5.96741 -3.33492e+08 -23.919 -2.28847e+08)
(-5.91866e+08 4.07477e+06 -31.7492 -3.1497e+08 2.08543 -1.78305e+08)
(-4.84486e+08 9.40971e+06 -8.28997 -2.92493e+08 36.8729 -1.25611e+08)
(-3.47904e+08 6.12914e+06 13.3962 -2.71588e+08 -3.05027 -6.97804e+07)
(-1.90158e+08 1.1624e+07 -2.29311 -2.46062e+08 -38.1614 -1.63881e+07)
(4.22065e+06 8.24007e+06 -12.9678 -2.24303e+08 23.2813 5.69777e+07)
(2.26164e+08 1.40247e+07 4.02612 -1.93562e+08 42.7585 1.19364e+08)
(5.348e+08 1.04426e+07 5.13697 -1.7061e+08 -23.9206 2.28259e+08)
(8.5055e+08 1.66021e+07 -0.37402 -1.30726e+08 -41.9253 3.17607e+08)
(1.09975e+09 1.2791e+07 -2.92857 -1.04315e+08 26.1367 4.83799e+08)
(1.23881e+09 1.92046e+07 -2.25699 -5.03098e+07 14.907 5.85502e+08)
(-9.46681e+08 -291273 -2.37548 -3.94514e+08 3.11405 -3.91851e+08)
(-9.32041e+08 2.82335e+06 -11.1498 -3.87366e+08 -1.35345 -3.76283e+08)
(-8.90774e+08 242234 -7.39458 -3.80212e+08 2.96643 -3.51698e+08)
(-8.40224e+08 4.93173e+06 8.66139 -3.66007e+08 8.86469 -3.15294e+08)
(-7.69403e+08 1.71227e+06 23.227 -3.51902e+08 -8.97127 -2.7607e+08)
(-6.83286e+08 6.83044e+06 -5.97228 -3.33384e+08 -23.8608 -2.28647e+08)
(-5.89733e+08 3.50675e+06 -31.7311 -3.14858e+08 2.06074 -1.78148e+08)
(-4.82262e+08 8.77485e+06 -8.312 -2.92406e+08 36.8112 -1.25417e+08)
(-3.45661e+08 5.50312e+06 13.3668 -2.71529e+08 -3.01755 -6.9635e+07)
(-1.87834e+08 1.09621e+07 -2.29612 -2.46003e+08 -38.0926 -1.62054e+07)
(6.61424e+06 7.66023e+06 -12.9808 -2.2429e+08 23.2256 5.71345e+07)
(2.28636e+08 1.34813e+07 4.03443 -1.93516e+08 42.677 1.19558e+08)
(5.37352e+08 1.00036e+07 5.15233 -1.70627e+08 -23.8835 2.28413e+08)
(8.53156e+08 1.62534e+07 -0.374153 -1.3069e+08 -41.8472 3.17782e+08)
(1.10238e+09 1.25582e+07 -2.94831 -1.04352e+08 26.1385 4.83942e+08)
(1.24147e+09 1.91309e+07 -2.26501 -5.02844e+07 14.8786 5.85673e+08)
(-9.44719e+08 -375219 -2.37871 -3.94363e+08 3.09228 -3.91702e+08)
(-9.30314e+08 2.67011e+06 -11.1538 -3.87172e+08 -1.35085 -3.76076e+08)
(-8.89025e+08 -68898.3 -7.3901 -3.80002e+08 2.95635 -3.51495e+08)
(-8.38417e+08 4.56492e+06 8.66224 -3.65842e+08 8.84349 -3.15076e+08)
(-7.67581e+08 1.21254e+06 23.1964 -3.5171e+08 -8.93792 -2.75875e+08)
(-6.81369e+08 6.25868e+06 -5.97908 -3.33254e+08 -23.8123 -2.28422e+08)
(-5.87755e+08 2.90378e+06 -31.7163 -3.14702e+08 2.03223 -1.77942e+08)
(-4.80181e+08 8.09578e+06 -8.33422 -2.92297e+08 36.7655 -1.25169e+08)
(-3.43477e+08 4.86393e+06 13.3633 -2.71425e+08 -2.97425 -6.94132e+07)
(-1.85524e+08 1.02867e+07 -2.29802 -2.45907e+08 -38.032 -1.59483e+07)
(9.02846e+06 7.04843e+06 -13.0065 -2.2425e+08 23.1613 5.73497e+07)
(2.3115e+08 1.28935e+07 4.03691 -1.93453e+08 42.5977 1.19812e+08)
(5.3994e+08 9.50964e+06 5.18617 -1.70653e+08 -23.8486 2.28642e+08)
(8.5585e+08 1.58788e+07 -0.374334 -1.30659e+08 -41.7769 3.1805e+08)
(1.10514e+09 1.23074e+07 -2.96415 -1.04396e+08 26.1352 4.84171e+08)
(1.24431e+09 1.90498e+07 -2.27403 -5.02651e+07 14.8512 5.85923e+08)
(-9.42999e+08 -464983 -2.38024 -3.94152e+08 3.076 -3.91495e+08)
(-9.28854e+08 2.50723e+06 -11.1583 -3.86967e+08 -1.34916 -3.75855e+08)
(-8.87533e+08 -397807 -7.38606 -3.79777e+08 2.94828 -3.51272e+08)
(-8.36857e+08 4.17782e+06 8.66299 -3.65658e+08 8.828 -3.14832e+08)
(-7.65969e+08 709956 23.1729 -3.51497e+08 -8.90951 -2.75644e+08)
(-6.79614e+08 5.68452e+06 -5.98524 -3.33089e+08 -23.7729 -2.2816e+08)
(-5.85935e+08 2.27328e+06 -31.699 -3.14532e+08 2.00709 -1.77713e+08)
(-4.782e+08 7.37983e+06 -8.35848 -2.92164e+08 36.7268 -1.24886e+08)
(-3.41399e+08 4.17183e+06 13.3443 -2.71328e+08 -2.93677 -6.91695e+07)
(-1.83313e+08 9.53091e+06 -2.30104 -2.45823e+08 -37.9831 -1.56335e+07)
(1.13785e+07 6.38041e+06 -13.0292 -2.24232e+08 23.1006 5.76298e+07)
(2.33664e+08 1.22478e+07 4.04133 -1.934e+08 42.5289 1.20145e+08)
(5.42631e+08 8.98497e+06 5.21242 -1.70675e+08 -23.8044 2.28922e+08)
(8.58681e+08 1.54731e+07 -0.374489 -1.30632e+08 -41.7092 3.1837e+08)
(1.10806e+09 1.20221e+07 -2.99167 -1.04446e+08 26.1319 4.84486e+08)
(1.24734e+09 1.89661e+07 -2.28337 -5.02464e+07 14.825 5.8626e+08)
(-9.41548e+08 -561163 -2.38292 -3.9393e+08 3.06348 -3.91277e+08)
(-9.27663e+08 2.34268e+06 -11.1631 -3.86749e+08 -1.34821 -3.75621e+08)
(-8.86302e+08 -743510 -7.38044 -3.79541e+08 2.9423 -3.51037e+08)
(-8.3552e+08 3.77269e+06 8.66423 -3.65466e+08 8.81788 -3.1457e+08)
(-7.64577e+08 163379 23.1393 -3.51273e+08 -8.88289 -2.754e+08)
(-6.78096e+08 5.04381e+06 -5.99306 -3.32936e+08 -23.7495 -2.27849e+08)
(-5.84315e+08 1.59178e+06 -31.6782 -3.1435e+08 1.97093 -1.77433e+08)
(-4.76403e+08 6.59411e+06 -8.38537 -2.92035e+08 36.7101 -1.24543e+08)
(-3.39443e+08 3.41837e+06 13.3333 -2.71209e+08 -2.87814 -6.8861e+07)
(-1.81132e+08 8.73068e+06 -2.30351 -2.45711e+08 -37.9379 -1.52869e+07)
(1.37586e+07 5.66328e+06 -13.0673 -2.24189e+08 23.0356 5.79461e+07)
(2.3624e+08 1.15705e+07 4.04508 -1.93329e+08 42.4606 1.20524e+08)
(5.45379e+08 8.40131e+06 5.25361 -1.70701e+08 -23.7733 2.29306e+08)
(8.61593e+08 1.50197e+07 -0.374429 -1.30612e+08 -41.6498 3.1879e+08)
(1.11113e+09 1.17091e+07 -3.02594 -1.0451e+08 26.1275 4.84867e+08)
(1.25058e+09 1.88708e+07 -2.29469 -5.02187e+07 14.7998 5.86684e+08)
(-9.40374e+08 -662361 -2.38609 -3.93697e+08 3.05498 -3.91046e+08)
(-9.26761e+08 2.16966e+06 -11.1682 -3.8654e+08 -1.34846 -3.75391e+08)
(-8.85356e+08 -1.11334e+06 -7.37397 -3.79302e+08 2.93766 -3.50806e+08)
(-8.34478e+08 3.34227e+06 8.66508 -3.65283e+08 8.81422 -3.14308e+08)
(-7.63468e+08 -415303 23.1043 -3.51042e+08 -8.85669 -2.75154e+08)
(-6.76775e+08 4.38004e+06 -6.0014 -3.32765e+08 -23.7276 -2.27572e+08)
(-5.82873e+08 874152 -31.6614 -3.1416e+08 1.94094 -1.77177e+08)
(-4.74736e+08 5.7684e+06 -8.4134 -2.91882e+08 36.6947 -1.24208e+08)
(-3.37581e+08 2.63307e+06 13.3298 -2.71078e+08 -2.82997 -6.85452e+07)
(-1.79048e+08 7.85336e+06 -2.3065 -2.45578e+08 -37.908 -1.48429e+07)
(1.6077e+07 4.87423e+06 -13.1048 -2.24146e+08 22.9674 5.83524e+07)
(2.388e+08 1.07978e+07 4.04386 -1.93249e+08 42.4032 1.21e+08)
(5.482e+08 7.74074e+06 5.30236 -1.70756e+08 -23.7357 2.29747e+08)
(8.64671e+08 1.45067e+07 -0.374623 -1.30576e+08 -41.5962 3.1931e+08)
(1.11439e+09 1.13682e+07 -3.0599 -1.04585e+08 26.1158 4.8532e+08)
(1.25405e+09 1.87652e+07 -2.30794 -5.0193e+07 14.7751 5.87174e+08)
(-9.39487e+08 -771390 -2.38771 -3.93467e+08 3.05041 -3.90821e+08)
(-9.26164e+08 1.99497e+06 -11.1739 -3.86394e+08 -1.34868 -3.7523e+08)
(-8.84707e+08 -1.49841e+06 -7.36685 -3.79126e+08 2.93429 -3.50636e+08)
(-8.3369e+08 2.899e+06 8.66654 -3.6514e+08 8.8122 -3.14094e+08)
(-7.62588e+08 -1.00461e+06 23.0674 -3.50846e+08 -8.8345 -2.74944e+08)
(-6.75709e+08 3.67487e+06 -6.0106 -3.32616e+08 -23.7242 -2.27239e+08)
(-5.81662e+08 123414 -31.6363 -3.1398e+08 1.90006 -1.76876e+08)
(-4.73261e+08 4.88677e+06 -8.44492 -2.91726e+08 36.7012 -1.23809e+08)
(-3.35896e+08 1.78149e+06 13.3078 -2.70967e+08 -2.76877 -6.81874e+07)
(-1.77051e+08 6.90235e+06 -2.31011 -2.4546e+08 -37.8828 -1.43924e+07)
(1.83855e+07 4.00379e+06 -13.162 -2.24114e+08 22.9065 5.87944e+07)
(2.41404e+08 9.94591e+06 4.044 -1.93163e+08 42.352 1.21529e+08)
(5.511e+08 7.01539e+06 5.35879 -1.70794e+08 -23.6942 2.3022e+08)
(8.67877e+08 1.39498e+07 -0.374764 -1.30532e+08 -41.5419 3.19854e+08)
(1.11786e+09 1.09674e+07 -3.10612 -1.04656e+08 26.1087 4.85841e+08)
(1.25777e+09 1.86517e+07 -2.32248 -5.01714e+07 14.7503 5.87743e+08)
(-9.38912e+08 -887116 -2.39091 -3.93309e+08 3.04737 -3.90666e+08)
(-9.25873e+08 1.83165e+06 -11.1795 -3.86288e+08 -1.34995 -3.75104e+08)
(-8.84364e+08 -1.87779e+06 -7.3578 -3.78979e+08 2.93215 -3.50502e+08)
(-8.33205e+08 2.46498e+06 8.6676 -3.6504e+08 8.81627 -3.1391e+08)
(-7.62027e+08 -1.60634e+06 23.0154 -3.50681e+08 -8.811 -2.74773e+08)
(-6.74885e+08 2.94595e+06 -6.02169 -3.32521e+08 -23.7212 -2.26988e+08)
(-5.80657e+08 -657257 -31.6185 -3.13825e+08 1.85921 -1.76628e+08)
(-4.7197e+08 3.94028e+06 -8.47743 -2.91619e+08 36.7135 -1.23453e+08)
(-3.34343e+08 862217 13.3072 -2.7087e+08 -2.69757 -6.78517e+07)
(-1.75183e+08 5.8831e+06 -2.31356 -2.45352e+08 -37.8573 -1.39822e+07)
(2.06046e+07 3.07233e+06 -13.2262 -2.24095e+08 22.8405 5.91887e+07)
(2.43999e+08 9.01989e+06 4.04489 -1.93077e+08 42.2972 1.22039e+08)
(5.54098e+08 6.21059e+06 5.41846 -1.70844e+08 -23.6583 2.30721e+08)
(8.71249e+08 1.33164e+07 -0.374854 -1.30493e+08 -41.4885 3.20449e+08)
(1.12155e+09 1.05167e+07 -3.15762 -1.0475e+08 26.106 4.86419e+08)
(1.2618e+09 1.85168e+07 -2.34046 -5.01362e+07 14.7257 5.88414e+08)
(-9.38645e+08 -1.0026e+06 -2.3952 -3.93187e+08 3.04785 -3.90548e+08)
(-9.2587e+08 1.67023e+06 -11.1856 -3.86337e+08 -1.3513 -3.75128e+08)
(-8.8431e+08 -2.27487e+06 -7.34733 -3.78975e+08 2.92876 -3.50516e+08)
(-8.32996e+08 2.01261e+06 8.66879 -3.65096e+08 8.82022 -3.13863e+08)
(-7.61732e+08 -2.23042e+06 22.9647 -3.50641e+08 -8.77922 -2.7474e+08)
(-6.74349e+08 2.20297e+06 -6.03373 -3.32545e+08 -23.7135 -2.26888e+08)
(-5.7994e+08 -1.45935e+06 -31.5949 -3.13775e+08 1.81253 -1.76544e+08)
(-4.70932e+08 2.95713e+06 -8.51528 -2.916e+08 36.7237 -1.23232e+08)
(-3.32992e+08 -81110.6 13.3071 -2.70833e+08 -2.61613 -6.76331e+07)
(-1.73409e+08 4.80074e+06 -2.31722 -2.45276e+08 -37.8313 -1.3608e+07)