/*--------------------------------*- C++ -*----------------------------------*\
| =========                 |                                                 |
| \\      /  F ield         | foam-extend: Open Source CFD                    |
|  \\    /   O peration     | Version:     4.1-20200408                       |
|   \\  /    A nd           | Web:         http://www.foam-extend.org         |
|    \\/     M anipulation  |                                                 |
\*---------------------------------------------------------------------------*/
FoamFile
{
    version     2.0;
    format      ascii;
    class       volSymmTensorField;
    location    "0.0800000";
    object      epsilonTrue;
}
// * * * * * * * * * * * * * * * * * * * * * * * * * * * * * * * * * * * * * //

dimensions      [0 0 0 0 0 0 0];

internalField   nonuniform List<symmTensor> 
1952
(
(0.0998785 -0.00321273 -1.16095e-10 -0.0519954 5.97941e-10 -0.0520872)
(0.099865 -0.0053672 -5.39519e-11 -0.051873 -1.51527e-09 -0.0520224)
(0.0998544 -0.00725301 6.31802e-11 -0.0516635 -4.10743e-09 -0.0519769)
(0.0998382 -0.00901324 2.29144e-10 -0.0514424 3.13666e-09 -0.0518785)
(0.0998258 -0.010521 -4.62589e-11 -0.0511585 8.13893e-09 -0.0518011)
(0.0998152 -0.011771 -4.49126e-10 -0.0508854 -3.36976e-10 -0.0516775)
(0.0998105 -0.0127104 -2.95201e-10 -0.0505437 -9.39772e-09 -0.0515783)
(0.099813 -0.0133623 2.76809e-10 -0.050171 -6.49886e-10 -0.0514316)
(0.0998251 -0.0134874 1.17791e-11 -0.0497694 8.26028e-09 -0.0513013)
(0.0998518 -0.0131243 -5.46625e-10 -0.0492818 -2.71589e-09 -0.0511312)
(0.099889 -0.0120122 7.83379e-11 -0.0487339 -8.36301e-09 -0.0509612)
(0.0999405 -0.0101855 4.72727e-10 -0.0479749 2.08724e-09 -0.0507536)
(0.0999932 -0.00750937 -2.23952e-11 -0.0472184 8.20767e-09 -0.0505183)
(0.100048 -0.00429391 -4.14449e-10 -0.046507 6.69311e-10 -0.0502626)
(0.100094 -0.00201175 -1.96446e-10 -0.0461298 -2.83462e-09 -0.0499973)
(0.0998742 -0.0017556 -4.33446e-11 -0.052081 -2.96928e-09 -0.0520832)
(0.0998944 -0.00319806 -1.57161e-10 -0.0519692 5.975e-10 -0.0520599)
(0.0998813 -0.00535691 -8.13454e-11 -0.0518461 -1.51465e-09 -0.0519962)
(0.0998714 -0.00722403 9.5548e-11 -0.0516381 -4.10511e-09 -0.0519498)
(0.0998559 -0.00899166 3.15791e-10 -0.0514171 3.13579e-09 -0.0518527)
(0.0998448 -0.0104784 -6.81858e-11 -0.0511349 8.13465e-09 -0.0517747)
(0.0998351 -0.0117378 -5.63059e-10 -0.0508627 -3.37877e-10 -0.0516524)
(0.0998323 -0.0126548 -3.24691e-10 -0.0505229 -9.39275e-09 -0.0515529)
(0.0998362 -0.013318 3.20287e-10 -0.050152 -6.48272e-10 -0.0514077)
(0.0998507 -0.01342 2.79058e-12 -0.0497532 8.2564e-09 -0.0512774)
(0.0998795 -0.0130705 -5.782e-10 -0.0492687 -2.71597e-09 -0.0511089)
(0.0999201 -0.0119363 9.64132e-11 -0.0487249 -8.35987e-09 -0.0509393)
(0.0999748 -0.0101283 4.86832e-10 -0.0479711 2.08728e-09 -0.0507336)
(0.100032 -0.0074365 -2.40267e-11 -0.0472202 8.20469e-09 -0.0504992)
(0.100092 -0.0042532 -4.1846e-10 -0.0465188 6.68776e-10 -0.0502458)
(0.100145 -0.00197994 -2.01401e-10 -0.04615 -2.83367e-09 -0.0499824)
(0.09989 -0.00175416 -5.2034e-11 -0.0520535 -2.96774e-09 -0.0520565)
(0.0999037 -0.00319609 -1.57228e-10 -0.0519598 5.97348e-10 -0.05205)
(0.0998908 -0.00535407 -8.13699e-11 -0.0518365 -1.5144e-09 -0.0519867)
(0.0998811 -0.00721979 9.56269e-11 -0.0516293 -4.10429e-09 -0.0519401)
(0.0998658 -0.00898686 3.15861e-10 -0.0514084 3.13541e-09 -0.0518436)
(0.0998551 -0.0104722 -6.83036e-11 -0.0511273 8.13317e-09 -0.0517655)
(0.0998458 -0.0117314 -5.63249e-10 -0.0508557 -3.38092e-10 -0.0516439)
(0.0998435 -0.0126472 -3.24693e-10 -0.0505172 -9.39103e-09 -0.0515444)
(0.0998479 -0.0133105 3.20347e-10 -0.0501474 -6.47728e-10 -0.0514)
(0.0998629 -0.013412 2.68673e-12 -0.0497502 8.25521e-09 -0.0512698)
(0.0998918 -0.0130635 -5.78208e-10 -0.0492671 -2.71611e-09 -0.0511021)
(0.099932 -0.0119296 9.64603e-11 -0.048725 -8.35907e-09 -0.0509329)
(0.0999857 -0.0101233 4.8694e-10 -0.0479732 2.08744e-09 -0.0507281)
(0.100039 -0.00743286 -2.4066e-11 -0.0472232 8.20393e-09 -0.0504942)
(0.100092 -0.00425247 -4.18603e-10 -0.0465205 6.68034e-10 -0.0502416)
(0.10013 -0.00198041 -2.01593e-10 -0.046146 -2.83347e-09 -0.0499783)
(0.0998993 -0.00175343 -5.20524e-11 -0.0520435 -2.96719e-09 -0.0520467)
(0.0999147 -0.00319482 -1.57286e-10 -0.0519539 5.9726e-10 -0.0520439)
(0.0999018 -0.00535229 -8.13966e-11 -0.0518307 -1.51424e-09 -0.0519808)
(0.0998923 -0.00721702 9.56918e-11 -0.051624 -4.1038e-09 -0.0519342)
(0.0998772 -0.00898369 3.1595e-10 -0.0514036 3.13511e-09 -0.051838)
(0.0998667 -0.0104682 -6.83941e-11 -0.0511231 8.1323e-09 -0.0517601)
(0.0998576 -0.0117273 -5.63444e-10 -0.0508522 -3.38119e-10 -0.0516388)
(0.0998556 -0.0126425 -3.24713e-10 -0.0505147 -9.3901e-09 -0.0515396)
(0.0998601 -0.0133061 3.20381e-10 -0.0501459 -6.47611e-10 -0.0513956)
(0.0998758 -0.0134073 2.61235e-12 -0.0497504 8.25459e-09 -0.0512658)
(0.0999046 -0.0130598 -5.78293e-10 -0.0492685 -2.71615e-09 -0.0510988)
(0.0999442 -0.0119266 9.64531e-11 -0.0487274 -8.35871e-09 -0.05093)
(0.0999961 -0.0101225 4.87077e-10 -0.0479757 2.08764e-09 -0.0507258)
(0.100047 -0.00743326 -2.40735e-11 -0.0472258 8.20363e-09 -0.0504922)
(0.100096 -0.00425505 -4.18839e-10 -0.0465223 6.67635e-10 -0.05024)
(0.100129 -0.00198194 -2.01902e-10 -0.0461456 -2.83337e-09 -0.0499768)
(0.0999102 -0.001753 -5.20663e-11 -0.0520374 -2.96685e-09 -0.0520407)
(0.0999299 -0.00319399 -1.5735e-10 -0.0519509 5.9721e-10 -0.0520408)
(0.0999172 -0.00535111 -8.14298e-11 -0.0518279 -1.51415e-09 -0.0519778)
(0.0999078 -0.00721536 9.57597e-11 -0.0516216 -4.10356e-09 -0.0519313)
(0.099893 -0.0089818 3.16042e-10 -0.0514017 3.13495e-09 -0.0518353)
(0.099883 -0.0104659 -6.84733e-11 -0.0511222 8.13191e-09 -0.0517576)
(0.099874 -0.011725 -5.63613e-10 -0.0508519 -3.38184e-10 -0.0516368)
(0.0998721 -0.0126402 -3.24788e-10 -0.0505153 -9.38974e-09 -0.0515378)
(0.0998765 -0.0133042 3.20327e-10 -0.0501473 -6.47457e-10 -0.0513943)
(0.0998913 -0.013406 2.56671e-12 -0.0497522 8.25445e-09 -0.0512648)
(0.0999193 -0.0130592 -5.78383e-10 -0.0492709 -2.71623e-09 -0.0510982)
(0.0999576 -0.0119266 9.65225e-11 -0.0487304 -8.35872e-09 -0.0509297)
(0.100007 -0.0101236 4.87198e-10 -0.0479787 2.08782e-09 -0.0507259)
(0.100055 -0.0074351 -2.40657e-11 -0.0472281 8.20368e-09 -0.0504924)
(0.100098 -0.00425749 -4.19158e-10 -0.0465226 6.67325e-10 -0.0502404)
(0.100124 -0.00198321 -2.02145e-10 -0.0461435 -2.83339e-09 -0.0499771)
(0.0999255 -0.00175271 -5.21023e-11 -0.0520343 -2.9667e-09 -0.0520376)
(0.0999476 -0.00319363 -1.5742e-10 -0.0519506 5.97189e-10 -0.0520403)
(0.0999349 -0.00535072 -8.14502e-11 -0.0518278 -1.51414e-09 -0.0519774)
(0.0999256 -0.00721475 9.58212e-11 -0.0516219 -4.10353e-09 -0.051931)
(0.0999106 -0.0089813 3.16122e-10 -0.0514022 3.13499e-09 -0.0518353)
(0.0999003 -0.0104655 -6.85338e-11 -0.051123 8.13193e-09 -0.0517577)
(0.0998912 -0.0117247 -5.63809e-10 -0.0508532 -3.38222e-10 -0.0516371)
(0.0998892 -0.0126402 -3.24875e-10 -0.0505173 -9.38981e-09 -0.0515383)
(0.0998932 -0.0133045 3.20479e-10 -0.0501498 -6.47386e-10 -0.0513951)
(0.0999076 -0.0134068 2.55028e-12 -0.0497554 8.25463e-09 -0.0512658)
(0.0999343 -0.0130609 -5.78551e-10 -0.0492742 -2.7165e-09 -0.0510995)
(0.0999709 -0.0119291 9.65135e-11 -0.0487337 -8.35903e-09 -0.0509311)
(0.100018 -0.0101268 4.87483e-10 -0.0479817 2.08805e-09 -0.0507275)
(0.100063 -0.00743837 -2.40467e-11 -0.0472305 8.20398e-09 -0.0504942)
(0.100103 -0.00426063 -4.19463e-10 -0.0465235 6.67094e-10 -0.0502423)
(0.100124 -0.00198459 -2.02385e-10 -0.0461425 -2.83347e-09 -0.0499787)
(0.0999431 -0.00175262 -5.20908e-11 -0.0520339 -2.96669e-09 -0.0520371)
(0.0999664 -0.00319369 -1.57488e-10 -0.0519519 5.97192e-10 -0.0520416)
(0.0999538 -0.00535098 -8.14806e-11 -0.0518293 -1.51418e-09 -0.0519788)
(0.0999445 -0.00721504 9.58749e-11 -0.0516237 -4.10364e-09 -0.0519325)
(0.0999295 -0.00898175 3.16233e-10 -0.0514043 3.13508e-09 -0.0518369)
(0.0999193 -0.0104661 -6.85765e-11 -0.0511257 8.13221e-09 -0.0517594)
(0.0999099 -0.0117258 -5.63967e-10 -0.0508562 -3.38282e-10 -0.051639)
(0.0999075 -0.0126417 -3.24992e-10 -0.0505207 -9.3902e-09 -0.0515404)
(0.0999107 -0.0133066 3.20418e-10 -0.0501534 -6.47355e-10 -0.0513974)
(0.0999244 -0.0134094 2.54045e-12 -0.0497593 8.25505e-09 -0.0512683)
(0.0999499 -0.0130639 -5.78691e-10 -0.0492782 -2.71677e-09 -0.0511022)
(0.0999848 -0.0119324 9.65637e-11 -0.0487375 -8.35953e-09 -0.0509339)
(0.10003 -0.0101306 4.87635e-10 -0.0479846 2.08834e-09 -0.0507305)
(0.100071 -0.00744211 -2.40226e-11 -0.0472323 8.20445e-09 -0.050497)
(0.100107 -0.00426373 -4.19784e-10 -0.046524 6.66961e-10 -0.0502451)
(0.100124 -0.00198584 -2.02588e-10 -0.0461416 -2.83361e-09 -0.0499813)
(0.0999619 -0.00175271 -5.21261e-11 -0.0520351 -2.96679e-09 -0.0520384)
(0.0999863 -0.00319399 -1.57559e-10 -0.0519547 5.97211e-10 -0.0520443)
(0.0999736 -0.00535167 -8.15089e-11 -0.0518322 -1.51427e-09 -0.0519816)
(0.0999642 -0.00721593 9.59274e-11 -0.0516268 -4.10387e-09 -0.0519353)
(0.099949 -0.00898315 3.16277e-10 -0.0514076 3.13529e-09 -0.0518399)
(0.0999388 -0.0104678 -6.86185e-11 -0.0511295 8.1327e-09 -0.0517624)
(0.0999291 -0.0117278 -5.64145e-10 -0.0508601 -3.38387e-10 -0.0516423)
(0.0999262 -0.0126442 -3.25116e-10 -0.050525 -9.39079e-09 -0.0515437)
(0.0999288 -0.0133095 3.20537e-10 -0.0501577 -6.47241e-10 -0.051401)
(0.0999411 -0.0134129 2.55177e-12 -0.0497634 8.25565e-09 -0.0512719)
(0.0999651 -0.013068 -5.78932e-10 -0.0492819 -2.71713e-09 -0.0511059)
(0.0999981 -0.0119369 9.65736e-11 -0.0487408 -8.36017e-09 -0.0509376)
(0.100041 -0.010135 4.87944e-10 -0.0479875 2.08859e-09 -0.0507342)
(0.10008 -0.00744593 -2.39967e-11 -0.0472343 8.20503e-09 -0.0505006)
(0.100113 -0.00426681 -4.20062e-10 -0.0465248 6.66878e-10 -0.0502486)
(0.100127 -0.00198702 -2.02772e-10 -0.0461414 -2.83378e-09 -0.0499845)
(0.0999818 -0.0017529 -5.214e-11 -0.0520378 -2.96698e-09 -0.0520411)
(0.100007 -0.00319452 -1.57621e-10 -0.0519586 5.97243e-10 -0.0520481)
(0.0999939 -0.00535269 -8.15346e-11 -0.0518361 -1.51439e-09 -0.0519854)
(0.0999845 -0.00721725 9.59694e-11 -0.051631 -4.10418e-09 -0.0519392)
(0.0999691 -0.00898491 3.16358e-10 -0.0514119 3.13557e-09 -0.0518439)
(0.0999583 -0.0104701 -6.86432e-11 -0.0511337 8.13335e-09 -0.0517665)
(0.0999481 -0.0117307 -5.64311e-10 -0.0508644 -3.38435e-10 -0.0516464)
(0.0999446 -0.0126477 -3.2525e-10 -0.0505294 -9.39156e-09 -0.0515479)
(0.0999462 -0.0133135 3.20599e-10 -0.050162 -6.47226e-10 -0.0514052)
(0.0999576 -0.0134172 2.56465e-12 -0.0497678 8.25635e-09 -0.0512761)
(0.0999802 -0.0130724 -5.79076e-10 -0.049286 -2.71752e-09 -0.0511102)
(0.100012 -0.0119414 9.66033e-11 -0.0487444 -8.3609e-09 -0.0509418)
(0.100052 -0.0101395 4.88115e-10 -0.0479904 2.08889e-09 -0.0507384)
(0.100089 -0.00744985 -2.39695e-11 -0.0472363 8.20569e-09 -0.0505047)
(0.10012 -0.00426961 -4.20301e-10 -0.046526 6.66836e-10 -0.0502525)
(0.100131 -0.00198804 -2.02927e-10 -0.0461417 -2.83398e-09 -0.0499882)
(0.100002 -0.0017532 -5.2157e-11 -0.0520416 -2.96723e-09 -0.0520448)
(0.100027 -0.00319526 -1.57686e-10 -0.051963 5.97283e-10 -0.0520524)
(0.100014 -0.0053541 -8.15625e-11 -0.0518405 -1.51453e-09 -0.0519898)
(0.100004 -0.00721909 9.60125e-11 -0.0516356 -4.10453e-09 -0.0519436)
(0.0999886 -0.00898738 3.16442e-10 -0.0514164 3.13588e-09 -0.0518484)
(0.0999777 -0.010473 -6.86648e-11 -0.0511387 8.13408e-09 -0.051771)
(0.0999669 -0.011734 -5.64435e-10 -0.0508692 -3.38572e-10 -0.0516511)
(0.0999628 -0.0126514 -3.25394e-10 -0.0505343 -9.39238e-09 -0.0515525)
(0.0999637 -0.0133175 3.20658e-10 -0.0501668 -6.471e-10 -0.05141)
(0.0999738 -0.0134218 2.58601e-12 -0.0497721 8.25712e-09 -0.0512808)
(0.0999951 -0.0130772 -5.7933e-10 -0.04929 -2.71794e-09 -0.0511149)
(0.100025 -0.0119462 9.66087e-11 -0.0487478 -8.36169e-09 -0.0509464)
(0.100064 -0.0101438 4.88425e-10 -0.0479933 2.08916e-09 -0.0507429)
(0.100099 -0.00745332 -2.39432e-11 -0.0472384 8.20639e-09 -0.050509)
(0.100128 -0.00427222 -4.20536e-10 -0.0465277 6.66841e-10 -0.0502567)
(0.100138 -0.00198894 -2.03059e-10 -0.0461429 -2.8342e-09 -0.0499922)
(0.100022 -0.0017536 -5.21781e-11 -0.052046 -2.96752e-09 -0.0520492)
(0.100047 -0.00319604 -1.57747e-10 -0.051968 5.9733e-10 -0.0520574)
(0.100034 -0.00535554 -8.15786e-11 -0.0518455 -1.51469e-09 -0.0519948)
(0.100024 -0.00722095 9.60432e-11 -0.0516407 -4.10494e-09 -0.0519486)
(0.100008 -0.00898986 3.16484e-10 -0.0514214 3.13622e-09 -0.0518534)
(0.0999965 -0.0104761 -6.86789e-11 -0.0511435 8.13488e-09 -0.0517759)
(0.0999851 -0.0117376 -5.64591e-10 -0.0508739 -3.3865e-10 -0.0516561)
(0.0999804 -0.0126557 -3.25524e-10 -0.0505389 -9.39328e-09 -0.0515574)
(0.0999803 -0.013322 3.20785e-10 -0.0501712 -6.47049e-10 -0.0514149)
(0.0999895 -0.0134264 2.60812e-12 -0.0497765 8.25792e-09 -0.0512856)
(0.10001 -0.0130817 -5.79494e-10 -0.0492941 -2.71834e-09 -0.0511198)
(0.100038 -0.0119507 9.66295e-11 -0.0487514 -8.3625e-09 -0.0509511)
(0.100076 -0.0101479 4.88584e-10 -0.0479963 2.08945e-09 -0.0507476)
(0.100109 -0.00745676 -2.39166e-11 -0.0472408 8.20712e-09 -0.0505135)
(0.100137 -0.00427453 -4.2073e-10 -0.0465298 6.66849e-10 -0.050261)
(0.100145 -0.00198973 -2.03174e-10 -0.0461445 -2.83444e-09 -0.0499964)
(0.100042 -0.00175401 -5.21849e-11 -0.052051 -2.96784e-09 -0.0520542)
(0.100066 -0.003197 -1.57807e-10 -0.0519731 5.97377e-10 -0.0520624)
(0.100053 -0.00535729 -8.15976e-11 -0.0518505 -1.51485e-09 -0.0519999)
(0.100043 -0.00722321 9.60763e-11 -0.0516457 -4.10534e-09 -0.0519536)
(0.100026 -0.00899275 3.1655e-10 -0.0514263 3.13658e-09 -0.0518585)
(0.100015 -0.0104793 -6.86899e-11 -0.0511487 8.13569e-09 -0.0517809)
(0.100003 -0.0117413 -5.64668e-10 -0.0508788 -3.38798e-10 -0.0516612)
(0.0999975 -0.0126597 -3.25674e-10 -0.0505438 -9.39416e-09 -0.0515624)
(0.0999967 -0.0133262 3.20817e-10 -0.0501757 -6.46905e-10 -0.05142)
(0.100005 -0.0134311 2.63673e-12 -0.0497807 8.25873e-09 -0.0512905)
(0.100024 -0.0130863 -5.79772e-10 -0.049298 -2.71879e-09 -0.0511247)
(0.100051 -0.011955 9.66292e-11 -0.0487549 -8.36333e-09 -0.0509559)
(0.100088 -0.0101515 4.88871e-10 -0.0479997 2.08971e-09 -0.0507523)
(0.10012 -0.00745953 -2.3894e-11 -0.0472438 8.20787e-09 -0.0505181)
(0.100147 -0.0042765 -4.20937e-10 -0.0465325 6.66858e-10 -0.0502655)
(0.100154 -0.00199034 -2.03263e-10 -0.0461468 -2.83468e-09 -0.0500007)
(0.100062 -0.00175452 -5.22124e-11 -0.052056 -2.96817e-09 -0.0520592)
(0.100085 -0.00319792 -1.5785e-10 -0.0519783 5.97428e-10 -0.0520676)
(0.100071 -0.00535895 -8.16137e-11 -0.0518556 -1.51502e-09 -0.0520051)
(0.100061 -0.00722532 9.60973e-11 -0.0516509 -4.10576e-09 -0.0519587)
(0.100044 -0.00899552 3.16557e-10 -0.0514313 3.13694e-09 -0.0518637)
(0.100032 -0.0104827 -6.86977e-11 -0.0511536 8.13651e-09 -0.051786)
(0.10002 -0.0117451 -5.64794e-10 -0.0508836 -3.38888e-10 -0.0516663)
(0.100014 -0.0126639 -3.25795e-10 -0.0505485 -9.39507e-09 -0.0515674)
(0.100013 -0.0133306 3.20946e-10 -0.0501802 -6.46856e-10 -0.051425)
(0.10002 -0.0134353 2.66012e-12 -0.0497851 8.25954e-09 -0.0512954)
(0.100039 -0.0130903 -5.79967e-10 -0.0493022 -2.71922e-09 -0.0511297)
(0.100065 -0.0119588 9.66272e-11 -0.0487587 -8.36417e-09 -0.0509607)
(0.100101 -0.010155 4.89029e-10 -0.0480032 2.09002e-09 -0.0507571)
(0.100132 -0.00746228 -2.38717e-11 -0.0472468 8.20862e-09 -0.0505227)
(0.100158 -0.00427825 -4.21116e-10 -0.0465354 6.66861e-10 -0.05027)
(0.100164 -0.00199091 -2.03344e-10 -0.0461493 -2.83493e-09 -0.0500051)
(0.10008 -0.001755 -5.22205e-11 -0.0520611 -2.9685e-09 -0.0520644)
(0.100103 -0.00319891 -1.579e-10 -0.0519833 5.97473e-10 -0.0520725)
(0.100089 -0.00536076 -8.16223e-11 -0.0518605 -1.51518e-09 -0.0520101)
(0.100079 -0.00722763 9.61206e-11 -0.0516559 -4.10615e-09 -0.0519636)
(0.100062 -0.00899844 3.16593e-10 -0.0514362 3.1373e-09 -0.0518687)
(0.10005 -0.010486 -6.87031e-11 -0.0511587 8.1373e-09 -0.0517909)
(0.100037 -0.0117486 -5.64832e-10 -0.0508884 -3.39043e-10 -0.0516714)
(0.10003 -0.0126679 -3.25945e-10 -0.0505533 -9.39593e-09 -0.0515723)
(0.100028 -0.0133345 3.20934e-10 -0.0501848 -6.46688e-10 -0.0514301)
(0.100035 -0.0134397 2.68921e-12 -0.0497894 8.26035e-09 -0.0513003)
(0.100053 -0.0130944 -5.80229e-10 -0.0493063 -2.71968e-09 -0.0511346)
(0.100079 -0.0119625 9.66184e-11 -0.0487625 -8.36501e-09 -0.0509654)
(0.100114 -0.010158 4.89311e-10 -0.048007 2.09029e-09 -0.0507618)
(0.100144 -0.00746452 -2.38517e-11 -0.0472503 8.20938e-09 -0.0505273)
(0.100169 -0.00427987 -4.21305e-10 -0.0465386 6.66862e-10 -0.0502746)
(0.100175 -0.00199139 -2.0341e-10 -0.0461521 -2.83518e-09 -0.0500095)
(0.100098 -0.00175551 -5.22484e-11 -0.0520661 -2.96883e-09 -0.0520694)
(0.10012 -0.00319986 -1.57946e-10 -0.0519882 5.9752e-10 -0.0520774)
(0.100106 -0.00536248 -8.16336e-11 -0.0518653 -1.51534e-09 -0.052015)
(0.100096 -0.0072298 9.6137e-11 -0.0516608 -4.10655e-09 -0.0519685)
(0.100078 -0.00900126 3.16584e-10 -0.0514409 3.13766e-09 -0.0518736)
(0.100066 -0.0104894 -6.87078e-11 -0.0511635 8.13808e-09 -0.0517958)
(0.100053 -0.0117523 -5.6493e-10 -0.050893 -3.39154e-10 -0.0516763)
(0.100046 -0.012672 -3.26061e-10 -0.0505579 -9.39679e-09 -0.0515771)
(0.100044 -0.0133386 3.21074e-10 -0.0501892 -6.46603e-10 -0.0514349)
(0.10005 -0.0134437 2.71382e-12 -0.0497939 8.26113e-09 -0.051305)
(0.100068 -0.013098 -5.80455e-10 -0.0493107 -2.72011e-09 -0.0511393)
(0.100093 -0.011966 9.65974e-11 -0.0487666 -8.36583e-09 -0.0509701)
(0.100127 -0.0101612 4.89479e-10 -0.0480107 2.0906e-09 -0.0507665)
(0.100157 -0.007467 -2.38308e-11 -0.0472536 8.21012e-09 -0.0505318)
(0.100181 -0.00428144 -4.21469e-10 -0.0465418 6.66863e-10 -0.0502791)
(0.100186 -0.00199185 -2.03472e-10 -0.0461549 -2.83542e-09 -0.0500139)
(0.100115 -0.00175602 -5.22767e-11 -0.052071 -2.96915e-09 -0.0520743)
(0.100136 -0.00320085 -1.57989e-10 -0.0519928 5.9756e-10 -0.052082)
(0.100122 -0.00536431 -8.16346e-11 -0.0518699 -1.51549e-09 -0.0520196)
(0.100112 -0.00723209 9.61522e-11 -0.0516655 -4.10691e-09 -0.0519731)
(0.100094 -0.00900418 3.16567e-10 -0.0514455 3.13801e-09 -0.0518783)
(0.100082 -0.0104926 -6.87137e-11 -0.0511683 8.13882e-09 -0.0518003)
(0.100068 -0.0117559 -5.64934e-10 -0.0508976 -3.39327e-10 -0.051681)
(0.100062 -0.0126759 -3.26214e-10 -0.0505627 -9.39758e-09 -0.0515817)
(0.100059 -0.0133424 3.21043e-10 -0.0501938 -6.46388e-10 -0.0514396)
(0.100065 -0.0134481 2.74291e-12 -0.0497981 8.26189e-09 -0.0513096)
(0.100082 -0.013102 -5.8073e-10 -0.0493148 -2.72056e-09 -0.051144)
(0.100106 -0.0119697 9.65888e-11 -0.0487704 -8.36664e-09 -0.0509746)
(0.100141 -0.0101641 4.89743e-10 -0.0480147 2.09087e-09 -0.050771)
(0.10017 -0.00746921 -2.38101e-11 -0.0472572 8.21085e-09 -0.0505363)
(0.100194 -0.004283 -4.21641e-10 -0.0465453 6.6687e-10 -0.0502835)
(0.100198 -0.00199227 -2.03526e-10 -0.046158 -2.83567e-09 -0.0500182)
(0.100131 -0.00175655 -5.22798e-11 -0.0520756 -2.96945e-09 -0.0520789)
(0.100151 -0.00320185 -1.58025e-10 -0.0519973 5.97598e-10 -0.0520864)
(0.100137 -0.00536617 -8.16337e-11 -0.0518742 -1.51563e-09 -0.0520241)
(0.100127 -0.00723441 9.61622e-11 -0.0516701 -4.10727e-09 -0.0519775)
(0.100109 -0.00900718 3.16539e-10 -0.0514497 3.13836e-09 -0.0518828)
(0.100097 -0.0104962 -6.8716e-11 -0.0511726 8.13952e-09 -0.0518047)
(0.100083 -0.0117598 -5.65009e-10 -0.0509018 -3.3946e-10 -0.0516855)
(0.100076 -0.0126803 -3.26333e-10 -0.0505669 -9.39833e-09 -0.051586)
(0.100073 -0.0133467 3.21229e-10 -0.050198 -6.46252e-10 -0.0514441)
(0.100079 -0.0134523 2.77241e-12 -0.0498024 8.26261e-09 -0.0513139)
(0.100096 -0.0131058 -5.80993e-10 -0.0493191 -2.72101e-09 -0.0511484)
(0.10012 -0.0119734 9.65458e-11 -0.0487744 -8.36742e-09 -0.0509789)
(0.100154 -0.0101674 4.89948e-10 -0.0480186 2.09118e-09 -0.0507753)
(0.100183 -0.00747168 -2.37891e-11 -0.0472608 8.21155e-09 -0.0505405)
(0.100207 -0.00428455 -4.21814e-10 -0.0465491 6.66864e-10 -0.0502877)
(0.100211 -0.0019927 -2.03578e-10 -0.0461614 -2.83591e-09 -0.0500224)
(0.100147 -0.00175709 -5.23017e-11 -0.05208 -2.96975e-09 -0.0520833)
(0.100165 -0.00320292 -1.58067e-10 -0.0520013 5.97632e-10 -0.0520904)
(0.100151 -0.00536816 -8.163e-11 -0.0518781 -1.51577e-09 -0.0520281)
(0.100141 -0.00723688 9.61691e-11 -0.0516742 -4.10758e-09 -0.0519814)
(0.100123 -0.00901033 3.1649e-10 -0.0514536 3.13868e-09 -0.0518868)
(0.100111 -0.0104998 -6.87192e-11 -0.051177 8.14016e-09 -0.0518086)
(0.100097 -0.0117636 -5.64976e-10 -0.0509059 -3.39655e-10 -0.0516896)
(0.10009 -0.0126846 -3.26495e-10 -0.0505712 -9.399e-09 -0.05159)
(0.100087 -0.0133509 3.21193e-10 -0.0502021 -6.46004e-10 -0.0514482)
(0.100093 -0.0134571 2.80475e-12 -0.0498063 8.26327e-09 -0.0513179)
(0.10011 -0.0131102 -5.8129e-10 -0.0493231 -2.72146e-09 -0.0511525)
(0.100134 -0.0119773 9.65294e-11 -0.0487783 -8.36816e-09 -0.0509829)
(0.100168 -0.0101705 4.9021e-10 -0.048023 2.09143e-09 -0.0507794)
(0.100196 -0.00747402 -2.3767e-11 -0.0472649 8.21222e-09 -0.0505445)
(0.10022 -0.00428623 -4.22008e-10 -0.046553 6.6686e-10 -0.0502918)
(0.100224 -0.00199312 -2.0363e-10 -0.0461649 -2.83614e-09 -0.0500264)
(0.10016 -0.00175767 -5.23168e-11 -0.0520839 -2.97001e-09 -0.0520873)
(0.100178 -0.00320404 -1.58103e-10 -0.052005 5.9766e-10 -0.052094)
(0.100164 -0.00537028 -8.16225e-11 -0.0518817 -1.51589e-09 -0.0520317)
(0.100154 -0.00723949 9.61737e-11 -0.0516779 -4.10786e-09 -0.051985)
(0.100136 -0.00901373 3.16408e-10 -0.0514571 3.139e-09 -0.0518906)
(0.100124 -0.0105039 -6.87203e-11 -0.0511806 8.14073e-09 -0.0518122)
(0.10011 -0.0117679 -5.65022e-10 -0.0509093 -3.39817e-10 -0.0516933)
(0.100103 -0.0126895 -3.26623e-10 -0.0505749 -9.39959e-09 -0.0515935)
(0.100101 -0.0133555 3.214e-10 -0.0502059 -6.45816e-10 -0.0514519)
(0.100107 -0.0134616 2.83839e-12 -0.0498104 8.26388e-09 -0.0513215)
(0.100124 -0.0131143 -5.81606e-10 -0.0493273 -2.72195e-09 -0.0511563)
(0.100148 -0.0119813 9.64552e-11 -0.0487824 -8.36886e-09 -0.0509866)
(0.100182 -0.0101741 4.90495e-10 -0.0480273 2.09174e-09 -0.0507832)
(0.10021 -0.00747664 -2.37451e-11 -0.0472689 8.21286e-09 -0.0505483)
(0.100234 -0.00428792 -4.2216e-10 -0.0465573 6.66834e-10 -0.0502956)
(0.100238 -0.00199357 -2.03684e-10 -0.0461688 -2.83636e-09 -0.0500302)
(0.100173 -0.00175829 -5.23214e-11 -0.0520875 -2.97026e-09 -0.0520909)
(0.100189 -0.00320522 -1.58136e-10 -0.052008 5.97681e-10 -0.0520969)
(0.100175 -0.0053725 -8.16095e-11 -0.0518846 -1.51599e-09 -0.0520347)
(0.100165 -0.00724222 9.61775e-11 -0.0516811 -4.1081e-09 -0.0519879)
(0.100147 -0.00901718 3.16325e-10 -0.0514601 3.13926e-09 -0.0518936)
(0.100136 -0.0105078 -6.87246e-11 -0.0511841 8.14121e-09 -0.0518151)
(0.100122 -0.0117722 -5.64962e-10 -0.0509127 -3.40022e-10 -0.0516965)
(0.100116 -0.0126944 -3.2679e-10 -0.0505786 -9.40008e-09 -0.0515966)
(0.100113 -0.0133603 3.21351e-10 -0.0502096 -6.45538e-10 -0.0514552)
(0.100119 -0.013467 2.87125e-12 -0.0498141 8.26442e-09 -0.0513247)
(0.100137 -0.0131191 -5.81952e-10 -0.0493314 -2.72237e-09 -0.0511597)
(0.100161 -0.0119858 9.6422e-11 -0.0487865 -8.3695e-09 -0.05099)
(0.100196 -0.0101778 4.90777e-10 -0.0480316 2.09202e-09 -0.0507867)
(0.100224 -0.0074795 -2.37201e-11 -0.047273 8.21344e-09 -0.0505518)
(0.100248 -0.00428997 -4.22388e-10 -0.0465618 6.66858e-10 -0.0502992)
(0.100252 -0.00199402 -2.03737e-10 -0.0461733 -2.83657e-09 -0.0500339)
(0.100184 -0.00175893 -5.23211e-11 -0.0520904 -2.97047e-09 -0.0520939)
(0.100199 -0.00320642 -1.58173e-10 -0.0520105 5.97693e-10 -0.0520993)
(0.100185 -0.00537486 -8.15919e-11 -0.051887 -1.51609e-09 -0.0520373)
(0.100175 -0.00724511 9.61775e-11 -0.0516839 -4.10828e-09 -0.0519903)
(0.100157 -0.00902101 3.16192e-10 -0.0514626 3.13954e-09 -0.0518963)
(0.100146 -0.0105124 -6.87307e-11 -0.051187 8.14161e-09 -0.0518176)
(0.100133 -0.011777 -5.64977e-10 -0.0509155 -3.40237e-10 -0.0516992)
(0.100127 -0.0126999 -3.26939e-10 -0.0505819 -9.40046e-09 -0.0515991)
(0.100125 -0.0133655 3.21588e-10 -0.050213 -6.45209e-10 -0.0514581)
(0.100132 -0.0134725 2.91274e-12 -0.0498177 8.26489e-09 -0.0513274)
(0.10015 -0.0131242 -5.82344e-10 -0.0493353 -2.72287e-09 -0.0511627)
(0.100174 -0.0119907 9.63445e-11 -0.0487904 -8.3701e-09 -0.0509929)
(0.10021 -0.010182 4.91125e-10 -0.0480363 2.09227e-09 -0.0507898)
(0.100239 -0.00748256 -2.3693e-11 -0.0472776 8.21398e-09 -0.050555)
(0.100264 -0.00429205 -4.22565e-10 -0.046567 6.66865e-10 -0.0503025)
(0.100268 -0.00199454 -2.03803e-10 -0.0461784 -2.83678e-09 -0.0500373)
(0.100194 -0.00175961 -5.23599e-11 -0.0520928 -2.97065e-09 -0.0520963)
(0.100206 -0.00320775 -1.58211e-10 -0.0520124 5.97699e-10 -0.0521011)
(0.100193 -0.00537744 -8.15653e-11 -0.0518888 -1.51616e-09 -0.0520391)
(0.100184 -0.00724822 9.61749e-11 -0.051686 -4.10842e-09 -0.0519921)
(0.100166 -0.00902499 3.16058e-10 -0.0514645 3.13977e-09 -0.0518982)
(0.100155 -0.010517 -6.87345e-11 -0.0511894 8.14192e-09 -0.0518194)
(0.100142 -0.0117821 -5.64899e-10 -0.0509177 -3.40455e-10 -0.0517013)
(0.100137 -0.0127057 -3.27123e-10 -0.0505846 -9.40073e-09 -0.0516011)
(0.100136 -0.0133711 3.21627e-10 -0.050216 -6.44885e-10 -0.0514604)
(0.100143 -0.0134786 2.95096e-12 -0.0498212 8.26527e-09 -0.0513296)
(0.100163 -0.0131297 -5.82765e-10 -0.0493395 -2.72335e-09 -0.0511652)
(0.100188 -0.0119959 9.62627e-11 -0.0487947 -8.37064e-09 -0.0509954)
(0.100225 -0.0101864 4.91517e-10 -0.0480413 2.09258e-09 -0.0507926)
(0.100254 -0.00748582 -2.36652e-11 -0.0472825 8.21448e-09 -0.0505579)
(0.10028 -0.0042943 -4.22836e-10 -0.0465731 6.66874e-10 -0.0503056)
(0.100285 -0.00199499 -2.03865e-10 -0.0461845 -2.83698e-09 -0.0500406)
(0.100202 -0.00176036 -5.23547e-11 -0.0520946 -2.9708e-09 -0.0520981)
(0.100212 -0.00320908 -1.58248e-10 -0.0520135 5.97695e-10 -0.0521022)
(0.100199 -0.00538012 -8.15333e-11 -0.0518898 -1.51621e-09 -0.0520402)
(0.10019 -0.00725148 9.61732e-11 -0.0516875 -4.10849e-09 -0.0519931)
(0.100173 -0.00902926 3.15872e-10 -0.0514658 3.13996e-09 -0.0518995)
(0.100163 -0.0105221 -6.87458e-11 -0.0511916 8.14211e-09 -0.0518206)
(0.10015 -0.0117874 -5.6487e-10 -0.0509198 -3.4072e-10 -0.0517029)
(0.100146 -0.012712 -3.27301e-10 -0.0505873 -9.40088e-09 -0.0516024)
(0.100146 -0.013377 3.218e-10 -0.050219 -6.44473e-10 -0.0514622)
(0.100154 -0.013485 2.99201e-12 -0.0498245 8.26558e-09 -0.0513313)
(0.100175 -0.0131354 -5.83274e-10 -0.0493435 -2.72383e-09 -0.0511673)
(0.100201 -0.0120014 9.61743e-11 -0.048799 -8.37113e-09 -0.0509975)
(0.10024 -0.010191 4.91942e-10 -0.0480467 2.09283e-09 -0.0507951)
(0.10027 -0.00748927 -2.36349e-11 -0.0472883 8.21494e-09 -0.0505605)
(0.100298 -0.00429675 -4.23138e-10 -0.0465797 6.66866e-10 -0.0503085)
(0.100303 -0.00199555 -2.03943e-10 -0.0461911 -2.83718e-09 -0.0500437)
(0.100208 -0.00176113 -5.24039e-11 -0.0520957 -2.97089e-09 -0.0520992)
(0.100216 -0.00321043 -1.58287e-10 -0.0520142 5.97684e-10 -0.0521027)
(0.100203 -0.00538293 -8.14943e-11 -0.0518904 -1.51625e-09 -0.0520409)
(0.100195 -0.00725481 9.617e-11 -0.0516885 -4.10853e-09 -0.0519937)
(0.100178 -0.00903365 3.15657e-10 -0.0514667 3.14016e-09 -0.0519004)
(0.100169 -0.0105273 -6.87639e-11 -0.0511931 8.14222e-09 -0.0518212)
(0.100157 -0.0117929 -5.64788e-10 -0.0509212 -3.40978e-10 -0.0517039)
(0.100154 -0.0127184 -3.27508e-10 -0.0505895 -9.40092e-09 -0.0516033)
(0.100155 -0.0133832 3.2193e-10 -0.0502216 -6.44052e-10 -0.0514635)
(0.100165 -0.0134917 3.03274e-12 -0.049828 8.26582e-09 -0.0513326)
(0.100188 -0.0131415 -5.8382e-10 -0.0493479 -2.72437e-09 -0.051169)
(0.100215 -0.0120072 9.60458e-11 -0.0488038 -8.3716e-09 -0.0509993)
(0.100256 -0.0101959 4.92501e-10 -0.0480529 2.09311e-09 -0.0507973)
(0.100287 -0.00749283 -2.36047e-11 -0.0472948 8.21538e-09 -0.050563)
(0.100316 -0.00429929 -4.2349e-10 -0.0465872 6.66809e-10 -0.0503113)
(0.100323 -0.00199612 -2.04026e-10 -0.0461984 -2.83738e-09 -0.0500468)
(0.100212 -0.00176195 -5.24051e-11 -0.0520962 -2.97097e-09 -0.0520998)
(0.100218 -0.00321178 -1.58331e-10 -0.0520143 5.97666e-10 -0.0521027)
(0.100205 -0.00538579 -8.14428e-11 -0.0518904 -1.51626e-09 -0.052041)
(0.100198 -0.0072582 9.6167e-11 -0.0516891 -4.10851e-09 -0.0519937)
(0.100181 -0.00903808 3.15413e-10 -0.051467 3.1403e-09 -0.0519006)
(0.100174 -0.0105326 -6.87852e-11 -0.0511944 8.14226e-09 -0.0518214)
(0.100163 -0.0117985 -5.64734e-10 -0.0509227 -3.41267e-10 -0.0517046)
(0.100162 -0.0127251 -3.27718e-10 -0.0505918 -9.40089e-09 -0.0516038)
(0.100164 -0.0133896 3.22062e-10 -0.0502244 -6.43602e-10 -0.0514645)
(0.100175 -0.0134988 3.07005e-12 -0.0498316 8.26602e-09 -0.0513336)
(0.1002 -0.0131477 -5.84487e-10 -0.0493527 -2.72484e-09 -0.0511706)
(0.100229 -0.0120133 9.59174e-11 -0.0488091 -8.37203e-09 -0.051001)
(0.100272 -0.0102013 4.93059e-10 -0.0480593 2.09341e-09 -0.0507995)
(0.100305 -0.00749693 -2.35701e-11 -0.0473014 8.21582e-09 -0.0505654)
(0.100336 -0.00430232 -4.23921e-10 -0.0465948 6.6677e-10 -0.0503141)
(0.100343 -0.00199682 -2.04127e-10 -0.0462059 -2.83757e-09 -0.0500499)
(0.100214 -0.00176279 -5.24247e-11 -0.0520961 -2.971e-09 -0.0520998)
(0.100219 -0.00321298 -1.58375e-10 -0.0520142 5.97644e-10 -0.0521025)
(0.100206 -0.00538858 -8.1384e-11 -0.0518902 -1.51628e-09 -0.0520409)
(0.1002 -0.00726144 9.61671e-11 -0.0516896 -4.10848e-09 -0.0519935)
(0.100184 -0.00904247 3.15104e-10 -0.0514673 3.14049e-09 -0.0519008)
(0.100178 -0.010538 -6.88236e-11 -0.0511957 8.14227e-09 -0.0518214)
(0.100168 -0.011804 -5.64651e-10 -0.050924 -3.41603e-10 -0.0517051)
(0.100168 -0.0127319 -3.27967e-10 -0.0505941 -9.4008e-09 -0.0516042)
(0.100172 -0.0133959 3.22228e-10 -0.0502273 -6.43032e-10 -0.0514655)
(0.100185 -0.0135062 3.11349e-12 -0.049835 8.26621e-09 -0.0513345)
(0.100213 -0.0131546 -5.85238e-10 -0.0493573 -2.72539e-09 -0.0511721)
(0.100243 -0.0120201 9.57769e-11 -0.0488142 -8.37248e-09 -0.0510026)
(0.100289 -0.0102072 4.93755e-10 -0.0480661 2.09369e-09 -0.0508016)
(0.100324 -0.00750143 -2.35335e-11 -0.0473085 8.21625e-09 -0.0505677)
(0.100356 -0.00430574 -4.24372e-10 -0.046603 6.6673e-10 -0.0503169)
(0.100366 -0.00199765 -2.0425e-10 -0.046214 -2.83778e-09 -0.050053)
(0.100214 -0.00176363 -5.24662e-11 -0.0520959 -2.97103e-09 -0.0520996)
(0.100219 -0.00321409 -1.58416e-10 -0.0520143 5.97623e-10 -0.0521024)
(0.100206 -0.00539132 -8.13068e-11 -0.0518902 -1.51631e-09 -0.052041)
(0.100201 -0.00726454 9.61657e-11 -0.0516903 -4.10846e-09 -0.0519935)
(0.100185 -0.00904664 3.14783e-10 -0.0514676 3.14071e-09 -0.0519012)