/*--------------------------------*- C++ -*----------------------------------*\
| =========                 |                                                 |
| \\      /  F ield         | foam-extend: Open Source CFD                    |
|  \\    /   O peration     | Version:     4.1-20200408                       |
|   \\  /    A nd           | Web:         http://www.foam-extend.org         |
|    \\/     M anipulation  |                                                 |
\*---------------------------------------------------------------------------*/
FoamFile
{
    version     2.0;
    format      ascii;
    class       volScalarField::DimensionedInternalField;
    location    "0.0800000";
    object      V0;
}
// * * * * * * * * * * * * * * * * * * * * * * * * * * * * * * * * * * * * * //

dimensions      [0 3 0 0 0 0 0];

value           nonuniform List<scalar> 
1952
(
1.32537e-14
2.20925e-14
3.0936e-14
3.97834e-14
4.86395e-14
5.75007e-14
6.63744e-14
7.52556e-14
8.415e-14
9.30632e-14
1.01998e-13
1.10968e-13
1.19968e-13
1.2899e-13
1.37971e-13
4.41762e-15
1.32527e-14
2.2091e-14
3.09338e-14
3.97806e-14
4.8636e-14
5.74966e-14
6.63696e-14
7.525e-14
8.41436e-14
9.30562e-14
1.0199e-13
1.10959e-13
1.19959e-13
1.28979e-13
1.37959e-13
4.4173e-15
1.32528e-14
2.20912e-14
3.09341e-14
3.97809e-14
4.86364e-14
5.7497e-14
6.63701e-14
7.52505e-14
8.41441e-14
9.30565e-14
1.01991e-13
1.10959e-13
1.19958e-13
1.28978e-13
1.37958e-13
4.41735e-15
1.32519e-14
2.20897e-14
3.09319e-14
3.97782e-14
4.8633e-14
5.7493e-14
6.63654e-14
7.52451e-14
8.4138e-14
9.30497e-14
1.01983e-13
1.10951e-13
1.19949e-13
1.28968e-13
1.37946e-13
4.41704e-15
1.32515e-14
2.20888e-14
3.09308e-14
3.97767e-14
4.86312e-14
5.74908e-14
6.63628e-14
7.52422e-14
8.41346e-14
9.30458e-14
1.01979e-13
1.10946e-13
1.19943e-13
1.28961e-13
1.37939e-13
4.41688e-15
1.32512e-14
2.20884e-14
3.09301e-14
3.97758e-14
4.86301e-14
5.74895e-14
6.63613e-14
7.52404e-14
8.41325e-14
9.30435e-14
1.01976e-13
1.10943e-13
1.1994e-13
1.28957e-13
1.37935e-13
4.41679e-15
1.32505e-14
2.20872e-14
3.09285e-14
3.97737e-14
4.86276e-14
5.74865e-14
6.63577e-14
7.52363e-14
8.41278e-14
9.30383e-14
1.0197e-13
1.10936e-13
1.19933e-13
1.2895e-13
1.37926e-13
4.41656e-15
1.32497e-14
2.2086e-14
3.09267e-14
3.97714e-14
4.86248e-14
5.74831e-14
6.63539e-14
7.52319e-14
8.41228e-14
9.30327e-14
1.01964e-13
1.10929e-13
1.19925e-13
1.28941e-13
1.37917e-13
4.41631e-15
1.32489e-14
2.20847e-14
3.09249e-14
3.97691e-14
4.86219e-14
5.74797e-14
6.63499e-14
7.52273e-14
8.41177e-14
9.3027e-14
1.01958e-13
1.10922e-13
1.19918e-13
1.28933e-13
1.37908e-13
4.41605e-15
1.32483e-14
2.20836e-14
3.09234e-14
3.97671e-14
4.86195e-14
5.74769e-14
6.63466e-14
7.52236e-14
8.41134e-14
9.30222e-14
1.01952e-13
1.10917e-13
1.19911e-13
1.28926e-13
1.37901e-13
4.41583e-15
1.32475e-14
2.20823e-14
3.09215e-14
3.97647e-14
4.86165e-14
5.74734e-14
6.63425e-14
7.5219e-14
8.41083e-14
9.30165e-14
1.01946e-13
1.1091e-13
1.19904e-13
1.28918e-13
1.37892e-13
4.41556e-15
1.3247e-14
2.20814e-14
3.09203e-14
3.97632e-14
4.86147e-14
5.74712e-14
6.634e-14
7.52161e-14
8.4105e-14
9.30129e-14
1.01942e-13
1.10906e-13
1.19899e-13
1.28913e-13
1.37887e-13
4.4154e-15
1.32459e-14
2.20796e-14
3.09178e-14
3.976e-14
4.86107e-14
5.74665e-14
6.63346e-14
7.52099e-14
8.40981e-14
9.30053e-14
1.01934e-13
1.10896e-13
1.19889e-13
1.28902e-13
1.37875e-13
4.41503e-15
1.32456e-14
2.20791e-14
3.0917e-14
3.9759e-14
4.86095e-14
5.74651e-14
6.63329e-14
7.52081e-14
8.4096e-14
9.3003e-14
1.01931e-13
1.10894e-13
1.19886e-13
1.28899e-13
1.37872e-13
4.41492e-15
1.32449e-14
2.20779e-14
3.09154e-14
3.97569e-14
4.86069e-14
5.74621e-14
6.63295e-14
7.52042e-14
8.40917e-14
9.29982e-14
1.01926e-13
1.10888e-13
1.1988e-13
1.28893e-13
1.37864e-13
4.41469e-15
1.32442e-14
2.20767e-14
3.09137e-14
3.97548e-14
4.86043e-14
5.74591e-14
6.6326e-14
7.52002e-14
8.40872e-14
9.29933e-14
1.01921e-13
1.10882e-13
1.19874e-13
1.28886e-13
1.37857e-13
4.41446e-15
1.32439e-14
2.20763e-14
3.09132e-14
3.97541e-14
4.86034e-14
5.7458e-14
6.63248e-14
7.51989e-14
8.40858e-14
9.29917e-14
1.01919e-13
1.1088e-13
1.19872e-13
1.28884e-13
1.37855e-13
4.41437e-15
1.32426e-14
2.2074e-14
3.091e-14
3.975e-14
4.85984e-14
5.74521e-14
6.63181e-14
7.51912e-14
8.40772e-14
9.29823e-14
1.01909e-13
1.10869e-13
1.1986e-13
1.28871e-13
1.37841e-13
4.41392e-15
1.32424e-14
2.20738e-14
3.09096e-14
3.97495e-14
4.85979e-14
5.74516e-14
6.63174e-14
7.51905e-14
8.40764e-14
9.29815e-14
1.01908e-13
1.10868e-13
1.19859e-13
1.2887e-13
1.3784e-13
4.41386e-15
1.32414e-14
2.20721e-14
3.09072e-14
3.97464e-14
4.85941e-14
5.74471e-14
6.63123e-14
7.51847e-14
8.407e-14
9.29744e-14
1.019e-13
1.1086e-13
1.1985e-13
1.2886e-13
1.3783e-13
4.41352e-15
1.32407e-14
2.2071e-14
3.09057e-14
3.97446e-14
4.85918e-14
5.74444e-14
6.63092e-14
7.51813e-14
8.40662e-14
9.29703e-14
1.01896e-13
1.10855e-13
1.19845e-13
1.28855e-13
1.37824e-13
4.4133e-15
1.324e-14
2.20697e-14
3.09039e-14
3.97423e-14
4.85891e-14
5.74413e-14
6.63056e-14
7.51772e-14
8.40617e-14
9.29654e-14
1.01891e-13
1.10849e-13
1.19839e-13
1.28848e-13
1.37817e-13
4.41305e-15
1.32392e-14
2.20684e-14
3.09021e-14
3.974e-14
4.85862e-14
5.74379e-14
6.63018e-14
7.5173e-14
8.4057e-14
9.29602e-14
1.01885e-13
1.10844e-13
1.19833e-13
1.28841e-13
1.3781e-13
4.41278e-15
1.32383e-14
2.2067e-14
3.09002e-14
3.97375e-14
4.85832e-14
5.74345e-14
6.62978e-14
7.51686e-14
8.40521e-14
9.2955e-14
1.01879e-13
1.10837e-13
1.19826e-13
1.28834e-13
1.37803e-13
4.4125e-15
1.32374e-14
2.20656e-14
3.08981e-14
3.97349e-14
4.85801e-14
5.74308e-14
6.62936e-14
7.51639e-14
8.4047e-14
9.29494e-14
1.01874e-13
1.10831e-13
1.1982e-13
1.28827e-13
1.37795e-13
4.4122e-15
1.32368e-14
2.20646e-14
3.08968e-14
3.97333e-14
4.85781e-14
5.74285e-14
6.62911e-14
7.51611e-14
8.4044e-14
9.29461e-14
1.0187e-13
1.10827e-13
1.19816e-13
1.28823e-13
1.37791e-13
4.41201e-15
1.32361e-14
2.20633e-14
3.08949e-14
3.9731e-14
4.85753e-14
5.74253e-14
6.62874e-14
7.51571e-14
8.40396e-14
9.29415e-14
1.01865e-13
1.10822e-13
1.19811e-13
1.28818e-13
1.37786e-13
4.41175e-15
1.32351e-14
2.20617e-14
3.08927e-14
3.97281e-14
4.85718e-14
5.74214e-14
6.62829e-14
7.51521e-14
8.40342e-14
9.29356e-14
1.01859e-13
1.10816e-13
1.19804e-13
1.28811e-13
1.37778e-13
4.41142e-15
1.32348e-14
2.20613e-14
3.08921e-14
3.97274e-14
4.8571e-14
5.74205e-14
6.6282e-14
7.51512e-14
8.40334e-14
9.2935e-14
1.01859e-13
1.10816e-13
1.19804e-13
1.28811e-13
1.37779e-13
4.41133e-15
1.32332e-14
2.20586e-14
3.08884e-14
3.97227e-14
4.85653e-14
5.74138e-14
6.62744e-14
7.51428e-14
8.40242e-14
9.2925e-14
1.01848e-13
1.10804e-13
1.19793e-13
1.28799e-13
1.37766e-13
4.41079e-15
1.32327e-14
2.20579e-14
3.08873e-14
3.97215e-14
4.85638e-14
5.74123e-14
6.62727e-14
7.51411e-14
8.40225e-14
9.29234e-14
1.01847e-13
1.10803e-13
1.19792e-13
1.28799e-13
1.37767e-13
4.41064e-15
1.32311e-14
2.20552e-14
3.08837e-14
3.97168e-14
4.85581e-14
5.74058e-14
6.62653e-14
7.51329e-14
8.40136e-14
9.29139e-14
1.01837e-13
1.10793e-13
1.19781e-13
1.28788e-13
1.37756e-13
4.41011e-15
1.32302e-14
2.20537e-14
3.08815e-14
3.97141e-14
4.85549e-14
5.74021e-14
6.62612e-14
7.51285e-14
8.40091e-14
9.29092e-14
1.01832e-13
1.10788e-13
1.19777e-13
1.28784e-13
1.37752e-13
4.4098e-15
1.3229e-14
2.20517e-14
3.08787e-14
3.97106e-14
4.85506e-14
5.73972e-14
6.62557e-14
7.51225e-14
8.40027e-14
9.29026e-14
1.01826e-13
1.10781e-13
1.19771e-13
1.28777e-13
1.37747e-13
4.40938e-15
1.32276e-14
2.20494e-14
3.08755e-14
3.97066e-14
4.85458e-14
5.73917e-14
6.62495e-14
7.51158e-14
8.39955e-14
9.28951e-14
1.01818e-13
1.10774e-13
1.19764e-13
1.28771e-13
1.37741e-13
4.40893e-15
1.32263e-14
2.20473e-14
3.08725e-14
3.97028e-14
4.85411e-14
5.73864e-14
6.62434e-14
7.51093e-14
8.39887e-14
9.2888e-14
1.01812e-13
1.10767e-13
1.19758e-13
1.28765e-13
1.37737e-13
4.40849e-15
1.32252e-14
2.20455e-14
3.087e-14
3.96997e-14
4.85374e-14
5.73822e-14
6.62386e-14
7.51042e-14
8.39832e-14
9.28825e-14
1.01806e-13
1.10762e-13
1.19754e-13
1.28762e-13
1.37736e-13
4.40815e-15
1.32232e-14
2.20421e-14
3.08651e-14
3.96936e-14
4.85297e-14
5.73733e-14
6.62284e-14
7.50929e-14
8.3971e-14
9.28696e-14
1.01793e-13
1.10749e-13
1.19742e-13
1.2875e-13
1.37726e-13
4.40746e-15
1.32216e-14
2.20395e-14
3.08615e-14
3.96889e-14
4.85239e-14
5.73666e-14
6.62205e-14
7.50843e-14
8.39615e-14
9.28596e-14
1.01783e-13
1.10739e-13
1.19733e-13
1.28743e-13
1.37721e-13
4.40695e-15
1.32198e-14
2.20365e-14
3.08572e-14
3.96834e-14
4.8517e-14
5.73584e-14
6.62108e-14
7.50735e-14
8.39494e-14
9.28468e-14
1.0177e-13
1.10726e-13
1.19721e-13
1.28732e-13
1.37713e-13
4.40636e-15
1.32179e-14
2.20333e-14
3.08526e-14
3.96774e-14
4.85094e-14
5.73493e-14
6.61999e-14
7.50611e-14
8.39353e-14
9.28315e-14
1.01754e-13
1.10709e-13
1.19707e-13
1.28718e-13
1.37704e-13
4.40574e-15
1.32154e-14
2.20291e-14
3.08465e-14
3.96694e-14
4.84992e-14
5.73371e-14
6.61851e-14
7.50441e-14
8.39155e-14
9.28096e-14
1.0173e-13
1.10684e-13
1.19682e-13
1.28696e-13
1.37688e-13
4.40492e-15
1.32139e-14
2.20265e-14
3.08427e-14
3.96642e-14
4.84923e-14
5.73285e-14
6.61741e-14
7.50311e-14
8.38994e-14
9.27914e-14
1.01709e-13
1.10661e-13
1.19659e-13
1.28675e-13
1.3768e-13
4.40443e-15
1.3212e-14
2.20232e-14
3.08378e-14
3.96575e-14
4.84835e-14
5.73173e-14
6.61598e-14
7.50138e-14
8.3878e-14
9.27664e-14
1.01679e-13
1.10627e-13
1.19622e-13
1.28635e-13
1.37647e-13
4.4038e-15
1.32102e-14
2.20202e-14
3.08332e-14
3.96511e-14
4.84747e-14
5.7306e-14
6.61449e-14
7.49955e-14
8.38545e-14
9.27385e-14
1.01645e-13
1.10586e-13
1.19574e-13
1.28577e-13
1.37579e-13
4.40324e-15
1.3209e-14
2.20179e-14
3.08296e-14
3.96459e-14
4.84674e-14
5.7296e-14
6.61312e-14
7.49779e-14
8.38308e-14
9.27095e-14
1.01607e-13
1.1054e-13
1.19516e-13
1.28504e-13
1.37482e-13
4.40284e-15
1.32075e-14
2.20152e-14
3.08254e-14
3.96397e-14
4.84586e-14
5.7284e-14
6.61147e-14
7.49566e-14
8.3802e-14
9.26739e-14
1.0156e-13
1.10483e-13
1.19444e-13
1.28414e-13
1.37369e-13
4.40237e-15
1.32077e-14
2.20152e-14
3.0825e-14
3.96382e-14
4.84555e-14
5.72783e-14
6.61052e-14
7.49425e-14
8.37804e-14
9.26455e-14
1.01518e-13
1.10431e-13
1.19376e-13
1.28328e-13
1.37267e-13
4.40244e-15
1.32071e-14
2.20141e-14
3.08228e-14
3.96345e-14
4.84494e-14
5.72688e-14
6.60911e-14
7.49226e-14
8.37517e-14
9.26081e-14
1.01465e-13
1.10367e-13
1.19288e-13
1.28224e-13
1.3715e-13
4.40229e-15
1.3209e-14
2.20169e-14
3.08263e-14
3.96378e-14
4.8452e-14
5.72694e-14
6.60885e-14
7.49151e-14
8.37364e-14
9.25841e-14
1.01425e-13
1.10315e-13
1.19208e-13
1.28132e-13
1.37047e-13
4.40294e-15
1.3211e-14
2.20199e-14
3.08299e-14
3.96413e-14
4.84547e-14
5.72699e-14
6.60857e-14
7.49068e-14
8.37202e-14
9.25578e-14
1.01382e-13
1.10258e-13
1.19117e-13
1.2803e-13
1.3692e-13
4.40362e-15
1.32149e-14
2.20262e-14
3.08381e-14
3.96505e-14
4.84643e-14
5.72784e-14
6.60924e-14
7.49103e-14
8.37194e-14
9.25492e-14
1.01359e-13
1.10218e-13
1.1904e-13
1.27936e-13
1.36775e-13
4.40497e-15
1.32202e-14
2.20346e-14
3.08496e-14
3.96644e-14
4.84805e-14
5.72954e-14
6.61092e-14
7.4925e-14
8.37312e-14
9.25535e-14
1.0135e-13
1.10187e-13
1.1897e-13
1.2784e-13
1.3661e-13
4.40675e-15
1.32277e-14
2.20468e-14
3.08662e-14
3.96847e-14
4.85041e-14
5.73205e-14
6.61343e-14
7.49464e-14
8.37466e-14
9.25573e-14
1.01338e-13
1.10154e-13
1.18904e-13
1.27746e-13
1.36443e-13
4.40929e-15
1.3238e-14
2.20633e-14
3.08879e-14
3.97099e-14
4.85312e-14
5.73469e-14
6.61588e-14
7.49656e-14
8.37593e-14
9.25578e-14
1.01325e-13
1.10123e-13
1.18848e-13
1.27663e-13
1.36299e-13
4.4128e-15
1.32466e-14
2.20765e-14
3.09044e-14
3.97278e-14
4.85488e-14
5.73617e-14
6.61697e-14
7.49699e-14
8.37573e-14
9.2545e-14
1.01303e-13
1.10082e-13
1.1879e-13
1.27578e-13
1.36173e-13
4.4158e-15
1.32535e-14
2.2087e-14
3.09173e-14
3.97416e-14
4.85621e-14
5.73729e-14
6.61781e-14
7.49729e-14
8.37557e-14
9.25346e-14
1.01286e-13
1.10051e-13
1.18749e-13
1.27514e-13
1.36087e-13
4.41825e-15
1.32575e-14
2.20931e-14
3.09247e-14
3.97492e-14
4.8569e-14
5.73778e-14
6.61806e-14
7.49709e-14
8.37505e-14
9.2522e-14
1.01271e-13
1.10024e-13
1.18718e-13
1.27465e-13
1.36029e-13
4.41971e-15
1.32589e-14
2.20951e-14
3.0927e-14
3.97511e-14
4.85701e-14
5.73772e-14
6.61785e-14
7.49655e-14
8.37433e-14
9.25096e-14
1.01258e-13
1.10002e-13
1.18699e-13
1.27432e-13
1.36e-13
4.42024e-15
1.32576e-14
2.20929e-14
3.09237e-14
3.97467e-14
4.85646e-14
5.73701e-14
6.61702e-14
7.49549e-14
8.37322e-14
9.24949e-14
1.01245e-13
1.09983e-13
1.18688e-13
1.27409e-13
1.35993e-13
4.41982e-15
1.32544e-14
2.20875e-14
3.09165e-14
3.97377e-14
4.85542e-14
5.73583e-14
6.61577e-14
7.4941e-14
8.37191e-14
9.24801e-14
1.01235e-13
1.0997e-13
1.18686e-13
1.27401e-13
1.3601e-13
4.4187e-15
1.32496e-14
2.20798e-14
3.09062e-14
3.97253e-14
4.85401e-14
5.7343e-14
6.61421e-14
7.4925e-14
8.37048e-14
9.24658e-14
1.01226e-13
1.09962e-13
1.18694e-13
1.27408e-13
1.36051e-13
4.41706e-15
1.32428e-14
2.20688e-14
3.08915e-14
3.97076e-14
4.85201e-14
5.73212e-14
6.61197e-14
7.49022e-14
8.36839e-14
9.2446e-14
1.01213e-13
1.09951e-13
1.18702e-13
1.27419e-13
1.36104e-13
4.41473e-15
1.32356e-14
2.20572e-14
3.0876e-14
3.9689e-14
4.84993e-14
5.7299e-14
6.60972e-14
7.48802e-14
8.36645e-14
9.24295e-14
1.01205e-13
1.09949e-13
1.18721e-13
1.27446e-13
1.36178e-13
4.41225e-15
1.3228e-14
2.20449e-14
3.08597e-14
3.96695e-14
4.84774e-14
5.7276e-14
6.60741e-14
7.48584e-14
8.36458e-14
9.2415e-14
1.012e-13
1.09953e-13
1.18748e-13
1.27486e-13
1.36266e-13
4.40965e-15
1.32188e-14
2.20301e-14
3.08397e-14
3.96452e-14
4.84496e-14
5.7246e-14
6.60432e-14
7.48282e-14
8.36183e-14
9.23922e-14
1.01186e-13
1.0995e-13
1.18769e-13
1.27524e-13
1.36351e-13
4.40656e-15
1.32103e-14
2.20162e-14
3.08208e-14
3.9622e-14
4.8423e-14
5.72171e-14
6.60134e-14
7.47997e-14
8.3593e-14
9.23732e-14
1.01178e-13
1.09957e-13
1.18801e-13
1.27576e-13
1.36446e-13
4.4037e-15
1.32014e-14
2.20016e-14
3.08008e-14
3.95971e-14
4.83936e-14
5.71845e-14
6.59788e-14
7.47653e-14
8.35612e-14
9.23482e-14
1.01164e-13
1.09961e-13
1.1883e-13
1.27628e-13
1.36536e-13
4.40074e-15
1.31926e-14
2.1987e-14
3.07805e-14
3.95715e-14
4.83632e-14
5.71502e-14
6.59413e-14
7.47265e-14
8.35231e-14
9.23161e-14
1.01143e-13
1.0996e-13
1.18854e-13
1.27678e-13
1.36616e-13
4.3978e-15
1.31848e-14
2.1974e-14
3.07624e-14
3.95486e-14
4.83357e-14
5.71191e-14
6.59064e-14
7.46886e-14
8.34835e-14
9.22806e-14
1.01117e-13
1.09957e-13
1.18873e-13
1.27725e-13
1.36689e-13
4.39519e-15
1.31763e-14
2.19598e-14
3.07424e-14
3.95229e-14
4.83042e-14
5.70826e-14
6.5866e-14
7.46476e-14
8.34448e-14
9.22494e-14
1.01094e-13
1.09946e-13
1.18874e-13
1.2775e-13
1.36727e-13
4.39234e-15
1.31687e-14
2.19475e-14
3.07264e-14
3.95041e-14
4.82841e-14
5.70639e-14
6.5852e-14
7.46433e-14
8.34513e-14
9.22674e-14
1.01115e-13
1.09966e-13
1.18881e-13
1.27765e-13
1.36733e-13
4.38974e-15
1.31679e-14
2.19471e-14
3.07278e-14
3.95095e-14
4.82962e-14
5.70855e-14
6.58844e-14
7.46871e-14
8.35029e-14
9.23262e-14
1.01173e-13
1.1002e-13
1.18912e-13
1.27786e-13
1.36722e-13
4.38934e-15
1.31746e-14
2.19586e-14
3.07445e-14
3.95321e-14
4.83251e-14
5.7121e-14
6.59253e-14
7.47336e-14
8.35527e-14
9.23797e-14
1.01225e-13
1.10072e-13
1.18949e-13
1.27817e-13
1.36719e-13
4.39154e-15
1.31816e-14
2.19704e-14
3.07609e-14
3.9553e-14
4.835e-14
5.71495e-14
6.59568e-14
7.47688e-14
8.35904e-14
9.24197e-14
1.01263e-13
1.1011e-13
1.18978e-13
1.27845e-13
1.3673e-13
4.39388e-15
1.31876e-14
2.19804e-14
3.0775e-14
3.95713e-14
4.83724e-14
5.71759e-14
6.59865e-14
7.48013e-14
8.36241e-14
9.24545e-14
1.01296e-13
1.10141e-13
1.19003e-13
1.27867e-13
1.36745e-13
4.39586e-15
1.31935e-14
2.19902e-14
3.07886e-14
3.95886e-14
4.83929e-14
5.71996e-14
6.60127e-14
7.48297e-14
8.36535e-14
9.24844e-14
1.01324e-13
1.10167e-13
1.19025e-13
1.27884e-13
1.36754e-13
4.39782e-15
1.31984e-14
2.19984e-14
3.08e-14
3.9603e-14
4.84102e-14
5.72194e-14
6.60344e-14
7.48529e-14
8.36772e-14
9.25079e-14
1.01346e-13
1.10187e-13
1.1904e-13
1.27894e-13
1.36755e-13
4.39946e-15
1.32025e-14
2.20051e-14
3.08092e-14
3.96146e-14
4.84238e-14
5.72348e-14
6.60511e-14
7.48704e-14
8.36946e-14
9.25246e-14
1.01361e-13
1.10199e-13
1.19048e-13
1.27897e-13
1.36751e-13
4.40082e-15
1.32063e-14
2.20113e-14
3.08178e-14
3.96254e-14
4.84365e-14
5.72491e-14
6.60665e-14
7.48865e-14
8.37106e-14
9.254e-14
1.01374e-13
1.1021e-13
1.19056e-13
1.279e-13
1.36748e-13
4.40209e-15
1.32098e-14
2.20171e-14
3.08257e-14
3.96353e-14
4.84481e-14
5.72621e-14
6.60804e-14
7.4901e-14
8.37249e-14
9.25536e-14
1.01386e-13
1.1022e-13
1.19062e-13
1.27903e-13
1.36745e-13
4.40326e-15
1.32126e-14
2.20217e-14
3.08319e-14
3.9643e-14
4.8457e-14
5.7272e-14
6.60908e-14
7.49116e-14
8.37351e-14
9.25629e-14
1.01394e-13
1.10226e-13
1.19065e-13
1.27902e-13
1.3674e-13
4.4042e-15
1.3215e-14
2.20257e-14
3.08374e-14
3.96498e-14
4.84648e-14
5.72806e-14
6.60999e-14
7.49207e-14
8.37438e-14
9.25708e-14
1.014e-13
1.1023e-13
1.19067e-13
1.27901e-13
1.36734e-13
4.40502e-15
1.32171e-14
2.2029e-14
3.08419e-14
3.96553e-14
4.84712e-14
5.72875e-14
6.61071e-14
7.49278e-14
8.37504e-14
9.25766e-14
1.01405e-13
1.10233e-13
1.19067e-13
1.27898e-13
1.36728e-13
4.40571e-15
1.32187e-14
2.20317e-14
3.08455e-14
3.96596e-14
4.84761e-14
5.72928e-14
6.61125e-14
7.4933e-14
8.3755e-14
9.25803e-14
1.01407e-13
1.10234e-13
1.19065e-13
1.27895e-13
1.36721e-13
4.40626e-15
1.32203e-14
2.20342e-14
3.08489e-14
3.96638e-14
4.84808e-14
5.72979e-14
6.61177e-14
7.49382e-14
8.37597e-14
9.25843e-14
1.0141e-13
1.10235e-13
1.19065e-13
1.27892e-13
1.36717e-13
4.40678e-15
1.32214e-14
2.20361e-14
3.08514e-14
3.96669e-14
4.84843e-14
5.73017e-14
6.61214e-14
7.49417e-14
8.37627e-14
9.25866e-14
1.01411e-13
1.10235e-13
1.19063e-13
1.27889e-13
1.36711e-13
4.40718e-15
1.32227e-14
2.20382e-14
3.08542e-14
3.96703e-14
4.84882e-14
5.73058e-14
6.61257e-14
7.49459e-14
8.37667e-14
9.259e-14
1.01414e-13
1.10237e-13
1.19064e-13
1.27888e-13
1.36709e-13
4.4076e-15
1.32233e-14
2.20391e-14
3.08554e-14
3.96717e-14
4.84896e-14
5.73072e-14
6.61269e-14
7.49467e-14
8.37668e-14
9.25895e-14
1.01412e-13
1.10234e-13
1.1906e-13
1.27883e-13
1.36701e-13
4.4078e-15
1.32239e-14
2.20401e-14
3.08567e-14
3.96732e-14
4.84913e-14
5.73089e-14
6.61284e-14
7.4948e-14
8.37677e-14
9.25897e-14
1.01412e-13
1.10233e-13
1.19057e-13
1.27879e-13
1.36696e-13
4.40801e-15
1.32241e-14
2.20404e-14
3.08571e-14
3.96736e-14
4.84916e-14
5.7309e-14
6.61282e-14
7.49473e-14
8.37664e-14
9.25878e-14
1.01409e-13
1.10229e-13
1.19052e-13
1.27873e-13
1.36689e-13
4.40809e-15
1.32244e-14
2.20409e-14
3.08577e-14
3.96743e-14
4.84923e-14
5.73097e-14
6.61287e-14
7.49476e-14
8.37663e-14
9.25871e-14
1.01407e-13
1.10227e-13
1.19049e-13
1.27869e-13
1.36684e-13
4.4082e-15
1.32246e-14
2.20411e-14
3.0858e-14
3.96746e-14
4.84925e-14
5.73097e-14
6.61285e-14
7.4947e-14
8.37652e-14
9.25855e-14
1.01405e-13
1.10224e-13
1.19046e-13
1.27865e-13
1.36679e-13
4.40825e-15
1.32246e-14
2.20411e-14
3.08579e-14
3.96744e-14
4.84922e-14
5.73092e-14
6.61277e-14
7.49458e-14
8.37636e-14
9.25835e-14
1.01403e-13
1.10221e-13
1.19042e-13
1.2786e-13
1.36673e-13
4.40826e-15
1.32247e-14
2.20413e-14
3.08581e-14
3.96745e-14
4.84922e-14
5.73091e-14
6.61274e-14
7.49453e-14
8.37628e-14
9.25822e-14
1.01401e-13
1.10218e-13
1.19039e-13
1.27857e-13
1.36669e-13
4.40829e-15
1.32253e-14
2.20422e-14
3.08594e-14
3.96761e-14
4.84941e-14
5.73112e-14
6.61296e-14
7.49477e-14
8.37652e-14
9.25847e-14
1.01403e-13
1.10221e-13
1.19041e-13
1.27859e-13
1.36671e-13
4.40849e-15
1.32247e-14
2.20412e-14
3.08579e-14
3.96742e-14
4.84917e-14
5.73083e-14
6.61262e-14
7.49436e-14
8.37605e-14
9.25792e-14
1.01397e-13
1.10214e-13
1.19033e-13
1.2785e-13
1.36662e-13
4.40829e-15
1.32244e-14
2.20408e-14
3.08573e-14
3.96734e-14
4.84906e-14
5.73069e-14
6.61245e-14
7.49416e-14
8.37581e-14
9.25764e-14
1.01394e-13
1.1021e-13
1.19029e-13
1.27845e-13
1.36657e-13
4.40821e-15
1.32243e-14
2.20406e-14
3.08571e-14
3.96731e-14
4.84902e-14
5.73063e-14
6.61237e-14
7.49406e-14
8.37568e-14
9.25749e-14
1.01392e-13
1.10208e-13
1.19026e-13
1.27842e-13
1.36653e-13
4.40818e-15
1.32244e-14
2.20408e-14
3.08572e-14
3.96733e-14
4.84904e-14
5.73065e-14
6.61239e-14
7.49406e-14
8.37568e-14
9.25747e-14
1.01392e-13
1.10208e-13
1.19026e-13
1.27842e-13
1.36652e-13
4.40821e-15
1.32234e-14
2.20391e-14
3.08549e-14
3.96702e-14
4.84866e-14
5.7302e-14
6.61186e-14
7.49346e-14
8.37499e-14
9.25671e-14
1.01383e-13
1.10198e-13
1.19016e-13
1.27831e-13
1.36641e-13
4.40788e-15
1.32238e-14
2.20397e-14
3.08557e-14
3.96713e-14
4.84879e-14
5.73034e-14
6.61202e-14
7.49364e-14
8.37519e-14
9.25692e-14
1.01385e-13
1.10201e-13
1.19018e-13
1.27833e-13
1.36643e-13
4.40801e-15
1.32229e-14
2.20382e-14
3.08536e-14
3.96685e-14
4.84845e-14
5.72995e-14
6.61156e-14
7.49311e-14
8.37459e-14
9.25625e-14
1.01378e-13
1.10192e-13
1.19009e-13
1.27824e-13
1.36633e-13
4.40771e-15
1.32229e-14
2.20382e-14
3.08536e-14
3.96685e-14
4.84845e-14
5.72994e-14
6.61155e-14
7.49309e-14
8.37457e-14
9.25622e-14
1.01378e-13
1.10192e-13
1.19009e-13
1.27823e-13
1.36632e-13
4.40771e-15
1.32226e-14
2.20377e-14
3.08529e-14
3.96676e-14
4.84833e-14
5.7298e-14
6.61138e-14
7.4929e-14
8.37435e-14
9.25598e-14
1.01375e-13
1.10189e-13
1.19006e-13
1.2782e-13
1.36629e-13
4.4076e-15
1.32217e-14
2.20362e-14
3.08508e-14
3.9665e-14
4.84801e-14
5.72942e-14
6.61094e-14
7.4924e-14
8.3738e-14
9.25536e-14
1.01368e-13
1.10182e-13
1.18998e-13
1.27811e-13
1.36619e-13
4.40732e-15
1.32219e-14
2.20365e-14
3.08513e-14
3.96655e-14
4.84807e-14
5.7295e-14
6.61103e-14
7.4925e-14
8.37391e-14
9.25548e-14
1.0137e-13
1.10183e-13
1.18999e-13
1.27813e-13
1.36621e-13
4.40738e-15
1.32208e-14
2.20347e-14
3.08487e-14
3.96623e-14
4.84767e-14
5.72902e-14
6.61049e-14
7.49189e-14
8.37322e-14
9.25472e-14
1.01361e-13
1.10174e-13
1.18989e-13
1.27802e-13
1.3661e-13
4.40702e-15
1.3221e-14
2.2035e-14
3.08491e-14
3.96627e-14
4.84773e-14
5.72908e-14
6.61056e-14
7.49196e-14
8.3733e-14
9.25482e-14
1.01362e-13
1.10175e-13
1.18991e-13
1.27804e-13
1.36612e-13
4.40707e-15
1.32198e-14
2.2033e-14
3.08463e-14
3.96592e-14
4.8473e-14
5.72858e-14
6.60997e-14
7.4913e-14
8.37256e-14
9.254e-14
1.01353e-13
1.10166e-13
1.1898e-13
1.27793e-13
1.366e-13
4.40668e-15
1.32198e-14
2.2033e-14
3.08464e-14
3.96592e-14
4.8473e-14
5.72858e-14
6.60998e-14
7.49131e-14
8.37257e-14
9.25401e-14
1.01354e-13
1.10166e-13
1.18981e-13
1.27793e-13
1.366e-13
4.40668e-15
1.32193e-14
2.20322e-14
3.08452e-14
3.96577e-14
4.84712e-14
5.72837e-14
6.60973e-14
7.49103e-14
8.37226e-14
9.25367e-14
1.0135e-13
1.10162e-13
1.18977e-13
1.27789e-13
1.36596e-13
4.40652e-15
1.32182e-14
2.20304e-14
3.08426e-14
3.96544e-14
4.84671e-14
5.72789e-14
6.60918e-14
7.49041e-14
8.37157e-14
9.25291e-14
1.01342e-13
1.10153e-13
1.18967e-13
1.27778e-13
1.36585e-13
4.40615e-15
1.3218e-14
2.203e-14
3.08421e-14
3.96537e-14
4.84663e-14
5.72779e-14
6.60906e-14
7.49027e-14
8.37142e-14
9.25275e-14
1.0134e-13
1.10151e-13
1.18965e-13
1.27777e-13
1.36583e-13
4.40607e-15
1.32173e-14
2.20289e-14
3.08405e-14
3.96516e-14
4.84638e-14
5.72749e-14
6.60872e-14
7.48988e-14
8.37098e-14
9.25227e-14
1.01335e-13
1.10145e-13
1.18959e-13
1.2777e-13
1.36577e-13
4.40585e-15
1.32165e-14
2.20275e-14
3.08387e-14
3.96493e-14
4.84609e-14
5.72714e-14
6.60832e-14
7.48943e-14
8.37048e-14
9.25171e-14
1.01328e-13
1.10139e-13
1.18952e-13
1.27763e-13
1.3657e-13
4.40558e-15
1.32161e-14
2.20268e-14
3.08377e-14
3.9648e-14
4.84593e-14
5.72696e-14
6.6081e-14
7.48918e-14
8.37019e-14
9.25139e-14
1.01325e-13
1.10135e-13
1.18948e-13
1.27759e-13
1.36566e-13
4.40544e-15
1.32154e-14
2.20257e-14
3.08361e-14
3.96459e-14
4.84568e-14
5.72666e-14
6.60775e-14
7.48878e-14
8.36975e-14
9.25089e-14
1.01319e-13
1.10129e-13
1.18941e-13
1.27752e-13
1.36559e-13
4.40522e-15
1.32147e-14
2.20246e-14
3.08345e-14
3.96438e-14
4.84542e-14
5.72635e-14
6.6074e-14
7.48838e-14
8.36929e-14
9.25037e-14
1.01314e-13
1.10122e-13
1.18934e-13
1.27743e-13
1.36549e-13
4.40499e-15
1.32139e-14
2.20233e-14
3.08326e-14
3.96415e-14
4.84513e-14
5.72601e-14
6.607e-14
7.48792e-14
8.36878e-14
9.24981e-14
1.01307e-13
1.10115e-13
1.18926e-13
1.27734e-13
1.36538e-13
4.40473e-15
1.32131e-14
2.20219e-14
3.08307e-14
3.96391e-14
4.84483e-14
5.72566e-14
6.60659e-14
7.48747e-14
8.36826e-14
9.24924e-14
1.01301e-13
1.10109e-13
1.18919e-13
1.27726e-13
1.36529e-13
4.40446e-15
1.26218e-29
-1.26218e-29
2.52435e-29
0
2.52435e-29
1.00974e-28
0
-3.02923e-28
0
5.04871e-29
0
0
0
0
-1.00974e-28
-1.26218e-29
)
;


// ************************************************************************* //
