/*--------------------------------*- C++ -*----------------------------------*\
| =========                 |                                                 |
| \\      /  F ield         | OpenFOAM: The Open Source CFD Toolbox           |
|  \\    /   O peration     | Version:  4.1                                   |
|   \\  /    A nd           | Web:      www.OpenFOAM.org                      |
|    \\/     M anipulation  |                                                 |
\*---------------------------------------------------------------------------*/
FoamFile
{
    version     2.0;
    format      ascii;
    class       pointVectorField;
    location    "0.0037";
    object      pointDisplacement_Next;
}
// * * * * * * * * * * * * * * * * * * * * * * * * * * * * * * * * * * * * * //

dimensions      [0 1 0 0 0 0 0];

internalField   uniform (0 0 0);

boundaryField
{
    inlet
    {
        type            fixedValue;
        value           nonuniform 0();
    }
    outlet
    {
        type            fixedValue;
        value           uniform (0 0 0);
    }
    mantle
    {
        type            fixedValue;
        value           nonuniform List<vector> 
416
(
(-2.3019e-05 -1.1392e-06 -4.7974e-11)
(-2.0975e-05 -8.7147e-07 -4.2534e-11)
(-2.0975e-05 -8.5488e-07 1.6866e-07)
(-2.3023e-05 -1.1144e-06 2.1733e-07)
(-2.0975e-05 -8.0912e-07 3.3486e-07)
(-2.3029e-05 -1.0513e-06 4.3433e-07)
(-2.0973e-05 -7.3635e-07 4.935e-07)
(-2.3022e-05 -9.5818e-07 6.4428e-07)
(-2.0973e-05 -6.3151e-07 6.3175e-07)
(-2.3017e-05 -8.2522e-07 8.2541e-07)
(-2.0973e-05 -4.9333e-07 7.3679e-07)
(-2.3022e-05 -6.4416e-07 9.5848e-07)
(-2.0975e-05 -3.3473e-07 8.0977e-07)
(-2.3029e-05 -4.3426e-07 1.0517e-06)
(-2.0975e-05 -1.6851e-07 8.5576e-07)
(-2.3023e-05 -2.1723e-07 1.115e-06)
(-2.0975e-05 3.0101e-10 8.7254e-07)
(-2.3019e-05 2.2499e-10 1.14e-06)
(-1.9001e-05 -6.6486e-07 2.6452e-11)
(-1.9003e-05 -6.546e-07 1.3269e-07)
(-1.8998e-05 -6.2154e-07 2.5863e-07)
(-1.9003e-05 -5.6673e-07 3.7662e-07)
(-1.8998e-05 -4.817e-07 4.8208e-07)
(-1.9003e-05 -3.7639e-07 5.6733e-07)
(-1.8998e-05 -2.5845e-07 6.2239e-07)
(-1.9003e-05 -1.3247e-07 6.5571e-07)
(-1.9001e-05 3.1154e-10 6.6615e-07)
(-1.7087e-05 -5.177e-07 2.4709e-10)
(-1.7089e-05 -5.1125e-07 9.9336e-08)
(-1.7093e-05 -4.8321e-07 2.0109e-07)
(-1.7088e-05 -4.3753e-07 2.9681e-07)
(-1.7084e-05 -3.7405e-07 3.7427e-07)
(-1.7088e-05 -2.9652e-07 4.3824e-07)
(-1.7093e-05 -2.0086e-07 4.8422e-07)
(-1.7089e-05 -9.9056e-08 5.1251e-07)
(-1.7087e-05 1.6451e-10 5.1911e-07)
(-1.5229e-05 -4.2311e-07 1.2664e-10)
(-1.5233e-05 -4.0772e-07 6.8104e-08)
(-1.5236e-05 -3.6701e-07 1.5246e-07)
(-1.5232e-05 -3.3978e-07 2.4327e-07)
(-1.5227e-05 -3.0361e-07 3.0414e-07)
(-1.5232e-05 -2.4293e-07 3.4059e-07)
(-1.5236e-05 -1.5218e-07 3.6814e-07)
(-1.5233e-05 -6.7768e-08 4.091e-07)
(-1.5229e-05 3.5306e-10 4.2461e-07)
(-1.3424e-05 -3.0225e-07 1.7653e-10)
(-1.3406e-05 -2.3488e-07 1.0153e-08)
(-1.3388e-05 -1.5571e-07 6.4337e-08)
(-1.3404e-05 -1.7478e-07 1.5988e-07)
(-1.3422e-05 -2.1541e-07 2.1601e-07)
(-1.3404e-05 -1.595e-07 1.7568e-07)
(-1.3388e-05 -6.4021e-08 1.5693e-07)
(-1.3406e-05 -9.7694e-09 2.3636e-07)
(-1.3424e-05 3.6536e-10 3.0386e-07)
(-1.1598e-05 1.4629e-07 2.146e-10)
(-1.156e-05 2.5459e-07 -9.4589e-08)
(-1.1529e-05 3.3139e-07 -1.3792e-07)
(-1.1559e-05 2.4665e-07 -1.1371e-07)
(-1.1597e-05 1.0365e-07 -1.0301e-07)
(-1.1559e-05 1.1411e-07 -2.457e-07)
(-1.1529e-05 1.3824e-07 -3.3009e-07)
(-1.156e-05 9.4988e-08 -2.5298e-07)
(-1.1598e-05 3.6587e-10 -1.4453e-07)
(-9.801e-06 9.2257e-07 2.3488e-10)
(-9.7966e-06 9.1811e-07 -1.9935e-07)
(-9.7883e-06 8.8895e-07 -3.6878e-07)
(-9.7972e-06 7.9037e-07 -5.0926e-07)
(-9.8018e-06 6.5326e-07 -6.5263e-07)
(-9.7972e-06 5.0964e-07 -7.894e-07)
(-9.7883e-06 3.6907e-07 -8.876e-07)
(-9.7967e-06 1.9972e-07 -9.1642e-07)
(-9.8011e-06 3.398e-10 -9.2068e-07)
(-8.4235e-06 9.0044e-07 2.443e-10)
(-8.4477e-06 8.1304e-07 -1.6352e-07)
(-8.4464e-06 7.543e-07 -3.1262e-07)
(-8.4493e-06 6.9035e-07 -4.592e-07)
(-8.426e-06 6.3673e-07 -6.3613e-07)
(-8.4494e-06 4.5956e-07 -6.8941e-07)
(-8.4464e-06 3.1288e-07 -7.5297e-07)
(-8.4478e-06 1.6386e-07 -8.1135e-07)
(-8.4236e-06 2.9927e-10 -8.9851e-07)
(-7.5378e-06 -5.7337e-07 2.4303e-10)
(-7.4884e-06 -4.914e-07 5.0947e-08)
(-7.4421e-06 -3.7923e-07 1.5794e-07)
(-7.4899e-06 -3.8494e-07 3.1401e-07)
(-7.5399e-06 -4.08e-07 4.0856e-07)
(-7.4899e-06 -3.1368e-07 3.8579e-07)
(-7.4422e-06 -1.5768e-07 3.8044e-07)
(-7.4885e-06 -5.0627e-08 4.9296e-07)
(-7.5378e-06 2.5455e-10 5.7515e-07)
(-6.1839e-06 -1.9353e-06 2.1157e-10)
(-6.0619e-06 -1.681e-06 2.4532e-07)
(-5.9689e-06 -1.3985e-06 5.8076e-07)
(-6.0626e-06 -1.3644e-06 1.0193e-06)
(-6.1848e-06 -1.3728e-06 1.3732e-06)
(-6.0626e-06 -1.019e-06 1.365e-06)
(-5.9689e-06 -5.8052e-07 1.3995e-06)
(-6.062e-06 -2.4503e-07 1.6822e-06)
(-6.1839e-06 1.9233e-10 1.9367e-06)
(-3.5149e-06 -1.5416e-06 1.3099e-10)
(-3.4607e-06 -1.4094e-06 2.2057e-07)
(-3.4078e-06 -1.2167e-06 5.0502e-07)
(-3.4609e-06 -1.154e-06 8.4339e-07)
(-3.5151e-06 -1.0927e-06 1.093e-06)
(-3.4609e-06 -8.4319e-07 1.1544e-06)
(-3.4078e-06 -5.0486e-07 1.2172e-06)
(-3.4608e-06 -2.2039e-07 1.4101e-06)
(-3.5149e-06 1.0664e-10 1.5423e-06)
(-1.3971e-12 -6.3161e-13 5.7466e-17)
(-5.928e-09 -1.2622e-08 -1.0347e-08)
(-1.7401e-12 -1.2275e-12 4.6421e-13)
(-5.9287e-09 -1.7107e-09 1.6289e-08)
(-8.7254e-13 2.819e-13 -2.8194e-13)
(-5.929e-09 -1.6291e-08 1.709e-09)
(-1.7401e-12 -4.64e-13 1.2277e-12)
(-5.9277e-09 1.0346e-08 1.2626e-08)
(-1.3971e-12 4.46e-17 6.3189e-13)
(-2.0975e-05 1.6904e-07 8.5567e-07)
(-2.3023e-05 2.1767e-07 1.115e-06)
(-2.0975e-05 3.3522e-07 8.096e-07)
(-2.3029e-05 4.3467e-07 1.0516e-06)
(-2.0973e-05 4.9377e-07 7.3658e-07)
(-2.3022e-05 6.4454e-07 9.5835e-07)
(-2.0973e-05 6.3187e-07 6.3152e-07)
(-2.3017e-05 8.2556e-07 8.2526e-07)
(-2.0973e-05 7.3662e-07 4.9329e-07)
(-2.3022e-05 9.585e-07 6.4415e-07)
(-2.0975e-05 8.0936e-07 3.347e-07)
(-2.3029e-05 1.0516e-06 4.3425e-07)
(-2.0975e-05 8.5519e-07 1.6858e-07)
(-2.3023e-05 1.1148e-06 2.1729e-07)
(-2.0975e-05 8.7193e-07 -2.6706e-11)
(-2.3019e-05 1.1398e-06 -8.7114e-11)
(-1.9003e-05 1.3307e-07 6.5557e-07)
(-1.8998e-05 2.5899e-07 6.2214e-07)
(-1.9003e-05 3.7684e-07 5.6701e-07)
(-1.8998e-05 4.8203e-07 4.8174e-07)
(-1.9003e-05 5.6692e-07 3.763e-07)
(-1.8998e-05 6.2163e-07 2.5837e-07)
(-1.9003e-05 6.547e-07 1.3254e-07)
(-1.9001e-05 6.6509e-07 -1.0693e-11)
(-1.7089e-05 9.9701e-08 5.1232e-07)
(-1.7093e-05 2.0141e-07 4.8387e-07)
(-1.7088e-05 2.9694e-07 4.378e-07)
(-1.7084e-05 3.7428e-07 3.7379e-07)
(-1.7088e-05 4.3755e-07 2.9635e-07)
(-1.7093e-05 4.8309e-07 2.0072e-07)
(-1.7089e-05 5.1108e-07 9.9123e-08)
(-1.7087e-05 5.176e-07 2.114e-10)
(-1.5233e-05 6.8436e-08 4.0888e-07)
(-1.5236e-05 1.5273e-07 3.6772e-07)
(-1.5231e-05 2.433e-07 3.4006e-07)
(-1.5227e-05 3.0374e-07 3.0355e-07)
(-1.5231e-05 3.3967e-07 2.427e-07)
(-1.5236e-05 3.6671e-07 1.52e-07)
(-1.5232e-05 4.0731e-07 6.7842e-08)
(-1.5228e-05 4.2272e-07 9.2774e-11)
(-1.3405e-05 1.0456e-08 2.3616e-07)
(-1.3388e-05 6.4584e-08 1.5654e-07)
(-1.3404e-05 1.5987e-07 1.7515e-07)
(-1.3422e-05 2.1554e-07 2.1541e-07)
(-1.3404e-05 1.7467e-07 1.5931e-07)
(-1.3388e-05 1.5537e-07 6.3878e-08)
(-1.3405e-05 2.3439e-07 9.8928e-09)
(-1.3424e-05 3.0174e-07 1.4766e-10)
(-1.156e-05 -9.4295e-08 -2.5313e-07)
(-1.1529e-05 -1.3765e-07 -3.3036e-07)
(-1.1559e-05 -1.1367e-07 -2.461e-07)
(-1.1597e-05 -1.034e-07 -1.0349e-07)
(-1.1559e-05 -2.4661e-07 -1.1417e-07)
(-1.1529e-05 -3.3156e-07 -1.3828e-07)
(-1.156e-05 -2.5492e-07 -9.4798e-08)
(-1.1598e-05 -1.4666e-07 1.925e-10)
(-9.7967e-06 -1.9905e-07 -9.1647e-07)
(-9.7883e-06 -3.6845e-07 -8.8771e-07)
(-9.7971e-06 -5.0909e-07 -7.8957e-07)
(-9.8017e-06 -6.5281e-07 -6.5286e-07)
(-9.7971e-06 -7.9007e-07 -5.0951e-07)
(-9.7882e-06 -8.8881e-07 -3.69e-07)
(-9.7965e-06 -9.1808e-07 -1.9948e-07)
(-9.8008e-06 -9.2258e-07 2.1963e-10)
(-8.4477e-06 -1.6325e-07 -8.1132e-07)
(-8.4464e-06 -3.1225e-07 -7.5292e-07)
(-8.4493e-06 -4.5892e-07 -6.8937e-07)
(-8.4259e-06 -6.3612e-07 -6.3612e-07)
(-8.4492e-06 -6.8981e-07 -4.5925e-07)
(-8.4462e-06 -7.5386e-07 -3.1269e-07)
(-8.4476e-06 -8.1267e-07 -1.6357e-07)
(-8.4234e-06 -9.0008e-07 2.3493e-10)
(-7.4884e-06 5.1153e-08 4.9303e-07)
(-7.4421e-06 1.5825e-07 3.8057e-07)
(-7.4898e-06 3.1429e-07 3.8594e-07)
(-7.5397e-06 4.0864e-07 4.0868e-07)
(-7.4897e-06 3.8556e-07 3.1409e-07)
(-7.442e-06 3.7981e-07 1.5796e-07)
(-7.4883e-06 4.9194e-07 5.0944e-08)
(-7.5376e-06 5.739e-07 2.3624e-10)
(-6.0619e-06 2.4543e-07 1.6823e-06)
(-5.9688e-06 5.8095e-07 1.3996e-06)
(-6.0625e-06 1.0194e-06 1.3652e-06)
(-6.1846e-06 1.3733e-06 1.3733e-06)
(-6.0624e-06 1.3649e-06 1.0193e-06)
(-5.9687e-06 1.399e-06 5.8081e-07)
(-6.0617e-06 1.6815e-06 2.4533e-07)
(-6.1836e-06 1.9358e-06 2.066e-10)
(-3.4607e-06 2.2061e-07 1.4101e-06)
(-3.4077e-06 5.051e-07 1.2173e-06)
(-3.4608e-06 8.4346e-07 1.1545e-06)
(-3.515e-06 1.093e-06 1.0931e-06)
(-3.4608e-06 1.1543e-06 8.4344e-07)
(-3.4077e-06 1.217e-06 5.0506e-07)
(-3.4606e-06 1.4097e-06 2.2059e-07)
(-3.5148e-06 1.5419e-06 1.2936e-10)
(-5.9283e-09 -1.0346e-08 1.2626e-08)
(-1.7401e-12 4.6408e-13 1.2277e-12)
(-5.9278e-09 1.6291e-08 1.71e-09)
(-8.7252e-13 -2.8181e-13 -2.8194e-13)
(-5.9284e-09 1.7115e-09 1.629e-08)
(-1.7401e-12 1.2276e-12 4.6424e-13)
(-5.9273e-09 1.2623e-08 -1.0347e-08)
(-1.397e-12 6.3172e-13 5.769e-17)
(-2.0975e-05 8.5516e-07 -1.6868e-07)
(-2.3023e-05 1.1148e-06 -2.1747e-07)
(-2.0975e-05 8.0927e-07 -3.3477e-07)
(-2.3029e-05 1.0516e-06 -4.3442e-07)
(-2.0973e-05 7.3645e-07 -4.9327e-07)
(-2.3022e-05 9.5839e-07 -6.4424e-07)
(-2.0973e-05 6.3161e-07 -6.3135e-07)
(-2.3017e-05 8.2536e-07 -8.2522e-07)
(-2.0973e-05 4.9349e-07 -7.3624e-07)
(-2.3022e-05 6.4431e-07 -9.5814e-07)
(-2.0975e-05 3.3499e-07 -8.0906e-07)
(-2.3029e-05 4.3446e-07 -1.0512e-06)
(-2.0975e-05 1.6891e-07 -8.5492e-07)
(-2.3023e-05 2.1756e-07 -1.1143e-06)
(-2.0975e-05 3.4216e-10 -8.7161e-07)
(-2.3019e-05 2.6455e-10 -1.1392e-06)
(-1.9003e-05 6.5464e-07 -1.3255e-07)
(-1.8998e-05 6.2147e-07 -2.5832e-07)
(-1.9003e-05 5.6666e-07 -3.7613e-07)
(-1.8998e-05 4.817e-07 -4.8142e-07)
(-1.9003e-05 3.7651e-07 -5.665e-07)
(-1.8998e-05 2.5873e-07 -6.2143e-07)
(-1.9003e-05 1.3293e-07 -6.5465e-07)
(-1.9001e-05 3.5095e-10 -6.6506e-07)
(-1.7089e-05 5.1097e-07 -9.9021e-08)
(-1.7093e-05 4.8287e-07 -2.0054e-07)
(-1.7087e-05 4.3723e-07 -2.9604e-07)
(-1.7084e-05 3.7389e-07 -3.7331e-07)
(-1.7087e-05 2.9656e-07 -4.3712e-07)
(-1.7093e-05 2.0112e-07 -4.8297e-07)
(-1.7089e-05 9.9545e-08 -5.1122e-07)
(-1.7087e-05 5.4514e-10 -5.1786e-07)
(-1.5232e-05 4.0717e-07 -6.7627e-08)
(-1.5235e-05 3.6643e-07 -1.5169e-07)
(-1.5231e-05 3.3929e-07 -2.4225e-07)
(-1.5227e-05 3.033e-07 -3.029e-07)
(-1.5231e-05 2.4288e-07 -3.3919e-07)
(-1.5235e-05 1.5241e-07 -3.6664e-07)
(-1.5232e-05 6.8264e-08 -4.076e-07)
(-1.5228e-05 3.8294e-10 -4.2319e-07)
(-1.3405e-05 2.3422e-07 -9.5644e-09)
(-1.3388e-05 1.5505e-07 -6.3448e-08)
(-1.3404e-05 1.7423e-07 -1.5871e-07)
(-1.3422e-05 2.1505e-07 -2.1459e-07)
(-1.3404e-05 1.594e-07 -1.7411e-07)
(-1.3388e-05 6.422e-08 -1.5528e-07)
(-1.3405e-05 1.0261e-08 -2.3471e-07)
(-1.3424e-05 3.8928e-10 -3.023e-07)
(-1.156e-05 -2.5511e-07 9.5215e-08)
(-1.1529e-05 -3.3192e-07 1.3881e-07)
(-1.1559e-05 -2.471e-07 1.1488e-07)
(-1.1597e-05 -1.0394e-07 1.0443e-07)
(-1.1559e-05 -1.1418e-07 2.4728e-07)
(-1.1529e-05 -1.3805e-07 3.3177e-07)
(-1.156e-05 -9.4514e-08 2.5471e-07)
(-1.1598e-05 3.8351e-10 1.4621e-07)
(-9.7964e-06 -9.1829e-07 1.9995e-07)
(-9.788e-06 -8.8919e-07 3.6958e-07)
(-9.7969e-06 -7.9058e-07 5.1028e-07)
(-9.8015e-06 -6.5338e-07 6.5387e-07)
(-9.7969e-06 -5.0963e-07 7.9084e-07)
(-9.788e-06 -3.6887e-07 8.8919e-07)
(-9.7963e-06 -1.9929e-07 9.1812e-07)
(-9.8007e-06 3.5381e-10 9.2241e-07)
(-8.4475e-06 -8.1287e-07 1.6407e-07)
(-8.4461e-06 -7.5424e-07 3.133e-07)
(-8.449e-06 -6.9032e-07 4.6004e-07)
(-8.4257e-06 -6.3667e-07 6.3715e-07)
(-8.449e-06 -4.5945e-07 6.9064e-07)
(-8.4461e-06 -3.1268e-07 7.5442e-07)
(-8.4474e-06 -1.6348e-07 8.1297e-07)
(-8.4232e-06 3.1098e-10 9.0023e-07)
(-7.4882e-06 4.9176e-07 -5.0441e-08)
(-7.4419e-06 3.7947e-07 -1.5735e-07)
(-7.4895e-06 3.851e-07 -3.1331e-07)
(-7.5395e-06 4.0813e-07 -4.0769e-07)
(-7.4895e-06 3.1381e-07 -3.8473e-07)
(-7.4418e-06 1.5788e-07 -3.7917e-07)
(-7.4881e-06 5.0956e-08 -4.9148e-07)
(-7.5375e-06 2.6382e-10 -5.7355e-07)
(-6.0617e-06 1.6814e-06 -2.4489e-07)
(-5.9686e-06 1.3988e-06 -5.8028e-07)
(-6.0623e-06 1.3645e-06 -1.0187e-06)
(-6.1844e-06 1.3729e-06 -1.3725e-06)
(-6.0623e-06 1.0191e-06 -1.3642e-06)
(-5.9686e-06 5.8068e-07 -1.3985e-06)
(-6.0617e-06 2.4529e-07 -1.681e-06)
(-6.1836e-06 1.9879e-10 -1.9354e-06)
(-3.4606e-06 1.4097e-06 -2.2031e-07)
(-3.4076e-06 1.2169e-06 -5.0474e-07)
(-3.4607e-06 1.1541e-06 -8.4306e-07)
(-3.5149e-06 1.0928e-06 -1.0926e-06)
(-3.4607e-06 8.4328e-07 -1.1539e-06)
(-3.4076e-06 5.0496e-07 -1.2167e-06)
(-3.4606e-06 2.2054e-07 -1.4095e-06)
(-3.5148e-06 1.0882e-10 -1.5416e-06)
(-5.9275e-09 1.2623e-08 1.0346e-08)
(-1.7401e-12 1.2277e-12 -4.6402e-13)
(-5.928e-09 1.71e-09 -1.6289e-08)
(-8.7247e-13 -2.8203e-13 2.821e-13)
(-5.9276e-09 1.629e-08 -1.7099e-09)
(-1.7401e-12 4.6411e-13 -1.2275e-12)
(-5.928e-09 -1.0346e-08 -1.2623e-08)
(-1.397e-12 4.4521e-17 -6.3162e-13)
(-2.0975e-05 -1.6824e-07 -8.5472e-07)
(-2.3023e-05 -2.1698e-07 -1.1141e-06)
(-2.0975e-05 -3.3421e-07 -8.087e-07)
(-2.3029e-05 -4.3376e-07 -1.0508e-06)
(-2.0973e-05 -4.9259e-07 -7.3581e-07)
(-2.3022e-05 -6.4345e-07 -9.576e-07)
(-2.0973e-05 -6.3063e-07 -6.3094e-07)
(-2.3017e-05 -8.2436e-07 -8.247e-07)
(-2.0973e-05 -7.3547e-07 -4.9298e-07)
(-2.3022e-05 -9.5732e-07 -6.4383e-07)
(-2.0975e-05 -8.0841e-07 -3.3461e-07)
(-2.3029e-05 -1.0506e-06 -4.3416e-07)
(-2.0975e-05 -8.5449e-07 -1.6862e-07)
(-2.3023e-05 -1.114e-06 -2.1735e-07)
(-1.9003e-05 -1.322e-07 -6.5452e-07)
(-1.8998e-05 -2.5792e-07 -6.212e-07)
(-1.9003e-05 -3.7564e-07 -5.6624e-07)
(-1.8998e-05 -4.8083e-07 -4.812e-07)
(-1.9003e-05 -5.6588e-07 -3.7602e-07)
(-1.8998e-05 -6.2087e-07 -2.583e-07)
(-1.9003e-05 -6.5423e-07 -1.3256e-07)
(-1.7089e-05 -9.8782e-08 -5.1118e-07)
(-1.7093e-05 -2.0033e-07 -4.8291e-07)
(-1.7088e-05 -2.9578e-07 -4.3706e-07)
(-1.7084e-05 -3.732e-07 -3.7332e-07)
(-1.7088e-05 -4.3672e-07 -2.9614e-07)
(-1.7093e-05 -4.8258e-07 -2.0068e-07)
(-1.7089e-05 -5.1091e-07 -9.9118e-08)
(-1.5232e-05 -6.7494e-08 -4.0762e-07)
(-1.5236e-05 -1.5165e-07 -3.6671e-07)
(-1.5231e-05 -2.422e-07 -3.3932e-07)
(-1.5227e-05 -3.0278e-07 -3.0311e-07)
(-1.5231e-05 -3.39e-07 -2.4252e-07)
(-1.5236e-05 -3.6642e-07 -1.5196e-07)
(-1.5233e-05 -4.074e-07 -6.7788e-08)
(-1.3405e-05 -9.4928e-09 -2.3476e-07)
(-1.3388e-05 -6.3497e-08 -1.554e-07)
(-1.3404e-05 -1.5878e-07 -1.7432e-07)
(-1.3422e-05 -2.1461e-07 -2.149e-07)
(-1.3404e-05 -1.7404e-07 -1.5905e-07)
(-1.3388e-05 -1.5514e-07 -6.3757e-08)
(-1.3405e-05 -2.3457e-07 -9.7411e-09)
(-1.156e-05 9.5266e-08 2.5467e-07)
(-1.1529e-05 1.3876e-07 3.3167e-07)
(-1.1559e-05 1.148e-07 2.471e-07)
(-1.1597e-05 1.0441e-07 1.0417e-07)
(-1.1559e-05 2.4736e-07 1.1459e-07)
(-1.1529e-05 3.3193e-07 1.3856e-07)
(-1.156e-05 2.5488e-07 9.5071e-08)
(-9.7964e-06 1.9999e-07 9.1813e-07)
(-9.788e-06 3.6957e-07 8.8919e-07)
(-9.7969e-06 5.1029e-07 7.9079e-07)
(-9.8016e-06 6.5396e-07 6.5378e-07)
(-9.797e-06 7.9102e-07 5.1014e-07)
(-9.7882e-06 8.8945e-07 3.6944e-07)
(-9.7966e-06 9.1838e-07 1.9986e-07)
(-8.4474e-06 1.6411e-07 8.1302e-07)
(-8.4461e-06 3.1334e-07 7.545e-07)
(-8.4491e-06 4.6014e-07 6.9074e-07)
(-8.4258e-06 6.3735e-07 6.3723e-07)
(-8.4492e-06 6.9092e-07 4.6006e-07)
(-8.4462e-06 7.5474e-07 3.1327e-07)
(-8.4476e-06 8.1328e-07 1.6405e-07)
(-7.4882e-06 -5.0413e-08 -4.9141e-07)
(-7.4419e-06 -1.573e-07 -3.7905e-07)
(-7.4896e-06 -3.1319e-07 -3.8459e-07)
(-7.5397e-06 -4.0749e-07 -4.0755e-07)
(-7.4897e-06 -3.8447e-07 -3.1322e-07)
(-7.442e-06 -3.7887e-07 -1.5731e-07)
(-7.4884e-06 -4.912e-07 -5.0428e-08)
(-6.0617e-06 -2.4488e-07 -1.681e-06)
(-5.9687e-06 -5.8025e-07 -1.3984e-06)
(-6.0624e-06 -1.0186e-06 -1.3641e-06)
(-6.1846e-06 -1.3724e-06 -1.3724e-06)
(-6.0625e-06 -1.364e-06 -1.0186e-06)
(-5.9688e-06 -1.3983e-06 -5.8023e-07)
(-6.0619e-06 -1.6809e-06 -2.4487e-07)
(-3.4606e-06 -2.2032e-07 -1.4094e-06)
(-3.4077e-06 -5.0473e-07 -1.2166e-06)
(-3.4608e-06 -8.4302e-07 -1.1539e-06)
(-3.515e-06 -1.0926e-06 -1.0926e-06)
(-3.4608e-06 -1.1538e-06 -8.4301e-07)
(-3.4077e-06 -1.2166e-06 -5.0471e-07)
(-3.4607e-06 -1.4094e-06 -2.203e-07)
(-5.9274e-09 1.0346e-08 -1.2623e-08)
(-1.7401e-12 -4.6403e-13 -1.2275e-12)
(-5.9287e-09 -1.629e-08 -1.7092e-09)
(-8.7249e-13 2.8214e-13 2.8211e-13)
(-5.9282e-09 -1.7095e-09 -1.6289e-08)
(-1.7401e-12 -1.2275e-12 -4.6399e-13)
(-5.9282e-09 -1.2622e-08 1.0346e-08)
)
;
    }
    procBoundary3to2
    {
        type            processor;
    }
}


// ************************************************************************* //
