/*--------------------------------*- C++ -*----------------------------------*\
| =========                 |                                                 |
| \\      /  F ield         | foam-extend: Open Source CFD                    |
|  \\    /   O peration     | Version:     4.1-20200408                       |
|   \\  /    A nd           | Web:         http://www.foam-extend.org         |
|    \\/     M anipulation  |                                                 |
\*---------------------------------------------------------------------------*/
FoamFile
{
    version     2.0;
    format      ascii;
    class       volSymmTensorField;
    location    "0.0015000";
    object      bEbar;
}
// * * * * * * * * * * * * * * * * * * * * * * * * * * * * * * * * * * * * * //

dimensions      [0 0 0 0 0 0 0];

internalField   nonuniform List<symmTensor> 
1952
(
(1.0024 1.42874e-05 6.00279e-12 0.998802 1.3201e-11 0.998802)
(1.00252 1.36496e-05 6.05058e-12 0.998742 1.41046e-11 0.998743)
(1.00264 1.35283e-05 6.12333e-12 0.998681 1.5033e-11 0.998682)
(1.00277 1.28109e-05 6.20946e-12 0.99862 1.59778e-11 0.99862)
(1.0029 1.12661e-05 6.27672e-12 0.998555 1.6968e-11 0.998556)
(1.00303 8.96795e-06 6.36277e-12 0.998489 1.79856e-11 0.998489)
(1.00317 5.04703e-06 6.4138e-12 0.998418 1.90723e-11 0.998417)
(1.00333 1.65744e-07 6.46847e-12 0.998342 2.02129e-11 0.998341)
(1.00349 -6.60788e-06 6.48952e-12 0.998259 2.14473e-11 0.998257)
(1.00368 -1.46198e-05 6.48814e-12 0.998167 2.27689e-11 0.998165)
(1.00388 -2.45606e-05 6.44888e-12 0.998066 2.42091e-11 0.998063)
(1.00411 -3.60252e-05 6.37754e-12 0.997954 2.57693e-11 0.99795)
(1.00436 -4.94004e-05 6.25455e-12 0.997829 2.74711e-11 0.997825)
(1.00464 -6.4488e-05 6.07703e-12 0.997691 2.93196e-11 0.997686)
(1.00495 -8.13903e-05 5.82864e-12 0.997538 3.1327e-11 0.997532)
(1.00529 -9.99421e-05 5.49107e-12 0.997369 3.34964e-11 0.997362)
(1.00567 -0.00011995 5.08162e-12 0.997183 3.58296e-11 0.997176)
(1.00607 -0.000141073 4.56665e-12 0.996981 3.83212e-11 0.996972)
(1.00652 -0.000162746 3.95321e-12 0.996762 4.0959e-11 0.996753)
(1.00699 -0.000184252 3.24353e-12 0.996528 4.37222e-11 0.996518)
(1.00749 -0.000204557 2.43612e-12 0.99628 4.65788e-11 0.996271)
(1.00801 -0.000222429 1.54302e-12 0.996021 4.94856e-11 0.996013)
(1.00855 -0.00023633 5.9583e-13 0.995757 5.23855e-11 0.995749)
(1.00908 -0.00024456 -3.95347e-13 0.995492 5.52081e-11 0.995485)
(1.00961 -0.000245268 -1.37356e-12 0.995233 5.78692e-11 0.995229)
(1.0101 -0.000236667 -2.30488e-12 0.99499 6.02736e-11 0.994989)
(1.01053 -0.000217205 -3.15548e-12 0.994774 6.23174e-11 0.994776)
(1.01089 -0.000185865 -3.86755e-12 0.994594 6.38942e-11 0.9946)
(1.01116 -0.000142463 -4.41716e-12 0.994463 6.49015e-11 0.994473)
(1.0113 -8.79209e-05 -4.79736e-12 0.994392 6.52501e-11 0.994405)
(1.0113 -2.45005e-05 -5.00207e-12 0.994391 6.48709e-11 0.994406)
(1.01115 4.42532e-05 -5.06648e-12 0.994465 6.37259e-11 0.994482)
(1.01084 0.000113636 -5.05292e-12 0.994617 6.18101e-11 0.994634)
(1.01037 0.000178521 -5.01475e-12 0.994846 5.91596e-11 0.994861)
(1.00978 0.000233771 -5.03585e-12 0.995142 5.58435e-11 0.995154)
(1.00907 0.000275515 -5.15937e-12 0.995494 5.1971e-11 0.995502)
(1.00827 0.000300942 -5.42918e-12 0.995887 4.767e-11 0.99589)
(1.00744 0.000309402 -5.8462e-12 0.996304 4.30984e-11 0.996302)
(1.00658 0.00030111 -6.40443e-12 0.996727 3.84056e-11 0.996721)
(1.00575 0.000278312 -7.05317e-12 0.99714 3.37558e-11 0.99713)
(1.00497 0.000243373 -7.76481e-12 0.997529 2.9275e-11 0.997517)
(1.00426 0.000200033 -8.46636e-12 0.997882 2.50943e-11 0.997869)
(1.00364 0.000151662 -9.12619e-12 0.998193 2.12865e-11 0.998178)
(1.00311 0.000101921 -9.67734e-12 0.998454 1.79283e-11 0.99844)
(1.00268 5.40375e-05 -1.00907e-11 0.998667 1.50339e-11 0.998655)
(1.00235 1.02403e-05 -1.03478e-11 0.998832 1.26251e-11 0.998821)
(1.00211 -2.74273e-05 -1.04175e-11 0.998953 1.06706e-11 0.998945)
(1.00194 -5.86003e-05 -1.0331e-11 0.999035 9.15005e-12 0.999029)
(1.00184 -8.26183e-05 -1.00849e-11 0.999084 8.00838e-12 0.99908)
(1.00179 -0.000100318 -9.71926e-12 0.999105 7.20246e-12 0.999103)
(1.00179 -0.000111964 -9.25393e-12 0.999105 6.6746e-12 0.999105)
(1.00182 -0.000118761 -8.71976e-12 0.999089 6.37697e-12 0.99909)
(1.00188 -0.000121383 -8.13916e-12 0.99906 6.26142e-12 0.999062)
(1.00196 -0.000120888 -7.55162e-12 0.999022 6.28623e-12 0.999025)
(1.00204 -0.00011801 -6.95843e-12 0.998979 6.41671e-12 0.998983)
(1.00213 -0.000113479 -6.39126e-12 0.998934 6.62152e-12 0.998937)
(1.00223 -0.000107909 -5.84255e-12 0.998886 6.87819e-12 0.99889)
(1.00232 -0.00010173 -5.3406e-12 0.998839 7.16585e-12 0.998843)
(1.00242 -9.53643e-05 -4.87419e-12 0.998793 7.47123e-12 0.998796)
(1.00251 -8.90381e-05 -4.45451e-12 0.998748 7.78193e-12 0.998751)
(1.00259 -8.2994e-05 -4.07987e-12 0.998705 8.09098e-12 0.998708)
(1.00267 -7.73306e-05 -3.74877e-12 0.998665 8.392e-12 0.998667)
(1.00275 -7.2159e-05 -3.46376e-12 0.998627 8.68196e-12 0.998629)
(1.00282 -6.75037e-05 -3.2144e-12 0.99859 8.95832e-12 0.998593)
(1.00289 -6.33938e-05 -3.00533e-12 0.998557 9.22037e-12 0.998558)
(1.00296 -5.98132e-05 -2.82698e-12 0.998524 9.46774e-12 0.998526)
(1.00302 -5.67468e-05 -2.67788e-12 0.998494 9.70097e-12 0.998496)
(1.00307 -5.41584e-05 -2.55966e-12 0.998466 9.92072e-12 0.998467)
(1.00313 -5.20118e-05 -2.46343e-12 0.998438 1.0128e-11 0.998439)
(1.00318 -5.02623e-05 -2.38785e-12 0.998412 1.03239e-11 0.998413)
(1.00323 -4.8865e-05 -2.33179e-12 0.998387 1.05093e-11 0.998387)
(1.00328 -4.7771e-05 -2.29351e-12 0.998363 1.06852e-11 0.998363)
(1.00333 -4.69305e-05 -2.27191e-12 0.998339 1.08521e-11 0.998339)
(1.00338 -4.62903e-05 -2.25787e-12 0.998316 1.10106e-11 0.998317)
(1.00342 -4.57938e-05 -2.25838e-12 0.998294 1.11607e-11 0.998294)
(1.00346 -4.53795e-05 -2.26966e-12 0.998272 1.1302e-11 0.998272)
(1.00351 -4.49793e-05 -2.28228e-12 0.998251 1.14337e-11 0.998251)
(1.00355 -4.45174e-05 -2.30212e-12 0.998231 1.15544e-11 0.998231)
(1.00359 -4.39093e-05 -2.31824e-12 0.998212 1.16622e-11 0.998212)
(1.00362 -4.30615e-05 -2.33841e-12 0.998193 1.17545e-11 0.998193)
(1.00366 -4.18733e-05 -2.36083e-12 0.998176 1.18283e-11 0.998177)
(1.00369 -4.02398e-05 -2.36727e-12 0.998161 1.18798e-11 0.998161)
(1.00371 -3.80599e-05 -2.36225e-12 0.998148 1.19049e-11 0.998148)
(1.00374 -3.52459e-05 -2.3474e-12 0.998137 1.18992e-11 0.998138)
(1.00375 -3.17426e-05 -2.3115e-12 0.998129 1.18587e-11 0.998131)
(1.00376 -2.7545e-05 -2.25557e-12 0.998126 1.178e-11 0.998127)
(1.00376 -2.27298e-05 -2.17269e-12 0.998126 1.16608e-11 0.998128)
(1.00375 -1.74742e-05 -2.0645e-12 0.99813 1.15013e-11 0.998132)
(1.00373 -1.2088e-05 -1.93349e-12 0.998139 1.13044e-11 0.998141)
(1.0037 -7.00109e-06 -1.78804e-12 0.998153 1.10768e-11 0.998155)
(1.00367 -2.76293e-06 -1.63434e-12 0.99817 1.0829e-11 0.998171)
(1.00363 4.4333e-08 -1.4819e-12 0.998189 1.05783e-11 0.99819)
(1.00359 8.47501e-07 -6.70543e-13 0.998208 1.03464e-11 0.998209)
(1.0024 2.85488e-05 4.9023e-12 0.998802 -4.31179e-11 0.998801)
(1.00252 2.77802e-05 4.94853e-12 0.998742 -4.51368e-11 0.998742)
(1.00264 2.7863e-05 5.05252e-12 0.99868 -4.72801e-11 0.998681)
(1.00277 2.70164e-05 5.16389e-12 0.998619 -4.95307e-11 0.998619)
(1.0029 2.47378e-05 5.27119e-12 0.998555 -5.2012e-11 0.998554)
(1.00303 2.12643e-05 5.36191e-12 0.998489 -5.46836e-11 0.998488)
(1.00317 1.50861e-05 5.41246e-12 0.998418 -5.76692e-11 0.998416)
(1.00333 7.34751e-06 5.43448e-12 0.998343 -6.09417e-11 0.99834)
(1.00349 -3.48108e-06 5.40521e-12 0.99826 -6.45929e-11 0.998256)
(1.00368 -1.63552e-05 5.34014e-12 0.99817 -6.86224e-11 0.998165)
(1.00388 -3.23575e-05 5.23058e-12 0.99807 -7.30886e-11 0.998063)
(1.0041 -5.09049e-05 5.08492e-12 0.997959 -7.80125e-11 0.997951)
(1.00435 -7.25749e-05 4.89882e-12 0.997836 -8.34283e-11 0.997826)
(1.00463 -9.71402e-05 4.67577e-12 0.9977 -8.93653e-11 0.997688)
(1.00493 -0.000124732 4.40953e-12 0.997549 -9.58397e-11 0.997535)
(1.00527 -0.000155172 4.10598e-12 0.997382 -1.02872e-10 0.997366)
(1.00564 -0.000188136 3.75429e-12 0.997199 -1.10458e-10 0.99718)
(1.00605 -0.000223142 3.3587e-12 0.996999 -1.18592e-10 0.996979)
(1.00649 -0.000259281 2.91508e-12 0.996783 -1.27233e-10 0.99676)
(1.00696 -0.000295432 2.42785e-12 0.99655 -1.36328e-10 0.996527)
(1.00746 -0.000329914 1.89555e-12 0.996304 -1.45781e-10 0.99628)
(1.00798 -0.000360733 1.33388e-12 0.996047 -1.55466e-10 0.996024)
(1.00851 -0.000385347 7.48689e-13 0.995782 -1.65206e-10 0.995761)
(1.00905 -0.00040093 1.56343e-13 0.995515 -1.74782e-10 0.995497)
(1.00957 -0.00040436 -4.2408e-13 0.995253 -1.83922e-10 0.995241)
(1.01007 -0.000392583 -9.69264e-13 0.995006 -1.92308e-10 0.995001)
(1.01051 -0.000362888 -1.46254e-12 0.994784 -1.99584e-10 0.994787)
(1.01088 -0.000313418 -1.88483e-12 0.994598 -2.05369e-10 0.994609)
(1.01115 -0.000243677 -2.22695e-12 0.99446 -2.09281e-10 0.994481)
(1.0113 -0.00015504 -2.47031e-12 0.994382 -2.10967e-10 0.994411)
(1.01131 -5.11586e-05 -2.63585e-12 0.994375 -2.10136e-10 0.994411)
(1.01116 6.20656e-05 -2.72952e-12 0.994446 -2.06602e-10 0.994485)
(1.01085 0.000176698 -2.7809e-12 0.994599 -2.00308e-10 0.994636)
(1.01039 0.000283997 -2.81226e-12 0.99483 -1.91355e-10 0.994863)
(1.00978 0.000375202 -2.86428e-12 0.995131 -1.79996e-10 0.995156)
(1.00907 0.000443755 -2.9554e-12 0.995491 -1.6664e-10 0.995505)
(1.00826 0.000484974 -3.11564e-12 0.995892 -1.51777e-10 0.995894)
(1.00742 0.000497879 -3.345e-12 0.996317 -1.35999e-10 0.996307)
(1.00656 0.000482942 -3.6535e-12 0.996747 -1.19862e-10 0.996727)
(1.00572 0.000444057 -4.02271e-12 0.997165 -1.03962e-10 0.997136)
(1.00494 0.000385246 -4.4298e-12 0.997558 -8.87471e-11 0.997523)
(1.00423 0.000312844 -4.85038e-12 0.997912 -7.46793e-11 0.997874)
(1.00361 0.000232505 -5.26445e-12 0.998221 -6.19943e-11 0.998183)
(1.00308 0.000150372 -5.63258e-12 0.998479 -5.09501e-11 0.998443)
(1.00266 7.18402e-05 -5.94135e-12 0.998687 -4.15564e-11 0.998656)
(1.00234 5.60911e-07 -6.17157e-12 0.998846 -3.38646e-11 0.998821)
(1.0021 -6.01356e-05 -6.30693e-12 0.998961 -2.77245e-11 0.998943)
(1.00194 -0.00010981 -6.35148e-12 0.999037 -2.30406e-11 0.999026)
(1.00185 -0.000147476 -6.30646e-12 0.999081 -1.96009e-11 0.999075)
(1.00181 -0.000174682 -6.17781e-12 0.999098 -1.72431e-11 0.999098)
(1.00181 -0.000191952 -5.97881e-12 0.999095 -1.57668e-11 0.999099)
(1.00184 -0.000201373 -5.72508e-12 0.999076 -1.50045e-11 0.999083)
(1.0019 -0.000204106 -5.42924e-12 0.999045 -1.48009e-11 0.999055)
(1.00198 -0.000201923 -5.10984e-12 0.999007 -1.50159e-11 0.999019)
(1.00206 -0.000196051 -4.77259e-12 0.998964 -1.55433e-11 0.998976)
(1.00215 -0.000187679 -4.43441e-12 0.998919 -1.62818e-11 0.998931)
(1.00225 -0.000177809 -4.10041e-12 0.998872 -1.71648e-11 0.998884)
(1.00234 -0.000167121 -3.78009e-12 0.998826 -1.81273e-11 0.998837)
(1.00243 -0.000156292 -3.47927e-12 0.998781 -1.91311e-11 0.998791)
(1.00252 -0.000145662 -3.19356e-12 0.998737 -2.01395e-11 0.998747)
(1.0026 -0.000135609 -2.93501e-12 0.998696 -2.11328e-11 0.998704)
(1.00268 -0.000126271 -2.70244e-12 0.998656 -2.20933e-11 0.998664)
(1.00276 -0.00011781 -2.49204e-12 0.998619 -2.30132e-11 0.998626)
(1.00283 -0.000110248 -2.30735e-12 0.998584 -2.38863e-11 0.99859)
(1.0029 -0.000103619 -2.14593e-12 0.998551 -2.47116e-11 0.998556)
(1.00296 -9.78829e-05 -2.00402e-12 0.99852 -2.54891e-11 0.998524)
(1.00302 -9.30062e-05 -1.88645e-12 0.998491 -2.62212e-11 0.998494)
(1.00308 -8.89219e-05 -1.78603e-12 0.998463 -2.6911e-11 0.998465)
(1.00313 -8.55653e-05 -1.70121e-12 0.998436 -2.75621e-11 0.998438)
(1.00319 -8.28594e-05 -1.63199e-12 0.99841 -2.81781e-11 0.998412)
(1.00324 -8.07283e-05 -1.58031e-12 0.998386 -2.87625e-11 0.998387)
(1.00328 -7.90911e-05 -1.53725e-12 0.998362 -2.93185e-11 0.998363)
(1.00333 -7.78661e-05 -1.50514e-12 0.998339 -2.98484e-11 0.998339)
(1.00338 -7.69669e-05 -1.48266e-12 0.998316 -3.03536e-11 0.998316)
(1.00342 -7.63024e-05 -1.46952e-12 0.998294 -3.08347e-11 0.998294)
(1.00346 -7.57732e-05 -1.46151e-12 0.998273 -3.12909e-11 0.998273)
(1.00351 -7.52698e-05 -1.46025e-12 0.998252 -3.17197e-11 0.998252)
(1.00355 -7.46693e-05 -1.46261e-12 0.998232 -3.21174e-11 0.998231)
(1.00359 -7.3834e-05 -1.46381e-12 0.998212 -3.2478e-11 0.998212)
(1.00362 -7.26104e-05 -1.46592e-12 0.998194 -3.27939e-11 0.998194)
(1.00366 -7.08313e-05 -1.46809e-12 0.998176 -3.3055e-11 0.998177)
(1.00369 -6.83201e-05 -1.46446e-12 0.998161 -3.32496e-11 0.998161)
(1.00372 -6.49033e-05 -1.45437e-12 0.998147 -3.33636e-11 0.998148)
(1.00374 -6.04262e-05 -1.43585e-12 0.998136 -3.33822e-11 0.998138)
(1.00375 -5.47827e-05 -1.40671e-12 0.998127 -3.32896e-11 0.99813)
(1.00376 -4.79472e-05 -1.36568e-12 0.998123 -3.30714e-11 0.998126)
(1.00376 -4.00269e-05 -1.31109e-12 0.998122 -3.27161e-11 0.998127)
(1.00375 -3.12972e-05 -1.24467e-12 0.998126 -3.22181e-11 0.998131)
(1.00374 -2.2262e-05 -1.16802e-12 0.998135 -3.15805e-11 0.99814)
(1.00371 -1.3637e-05 -1.08235e-12 0.998148 -3.08188e-11 0.998153)
(1.00368 -6.34466e-06 -9.92031e-13 0.998165 -2.99621e-11 0.998169)
(1.00364 -1.37411e-06 -8.99565e-13 0.998185 -2.9052e-11 0.998188)
(1.0036 8.25329e-07 -4.027e-13 0.998205 -2.814e-11 0.998207)
(1.0024 3.4063e-05 -2.25272e-12 0.998799 -1.17094e-10 0.998801)
(1.00252 3.29479e-05 -2.24786e-12 0.998739 -1.29599e-10 0.998741)
(1.00265 3.30918e-05 -2.20406e-12 0.998677 -1.42042e-10 0.99868)
(1.00277 3.19514e-05 -2.15817e-12 0.998617 -1.54172e-10 0.998618)
(1.0029 2.87712e-05 -2.10416e-12 0.998553 -1.66213e-10 0.998553)
(1.00303 2.40194e-05 -2.08303e-12 0.998488 -1.77935e-10 0.998487)
(1.00317 1.55057e-05 -2.07334e-12 0.998418 -1.897e-10 0.998415)
(1.00333 4.9471e-06 -2.10274e-12 0.998344 -2.01421e-10 0.998339)
(1.00349 -9.8266e-06 -2.15242e-12 0.998263 -2.13448e-10 0.998256)
(1.00367 -2.7309e-05 -2.23181e-12 0.998174 -2.25825e-10 0.998164)
(1.00387 -4.90155e-05 -2.3172e-12 0.998076 -2.38832e-10 0.998063)
(1.00409 -7.4127e-05 -2.40775e-12 0.997967 -2.52588e-10 0.997951)
(1.00434 -0.000103454 -2.48275e-12 0.997846 -2.67293e-10 0.997827)
(1.00461 -0.000136693 -2.53557e-12 0.997712 -2.83083e-10 0.99769)
(1.00492 -0.000174049 -2.54819e-12 0.997564 -3.00086e-10 0.997538)
(1.00525 -0.000215302 -2.51709e-12 0.997401 -3.18401e-10 0.99737)
(1.00562 -0.000260048 -2.42119e-12 0.997221 -3.38077e-10 0.997186)
(1.00602 -0.000307663 -2.25948e-12 0.997024 -3.59132e-10 0.996986)
(1.00645 -0.000356956 -2.02415e-12 0.996811 -3.81503e-10 0.996769)
(1.00692 -0.000406435 -1.71096e-12 0.996582 -4.05075e-10 0.996538)
(1.00741 -0.000453846 -1.31862e-12 0.996337 -4.29626e-10 0.996293)
(1.00793 -0.000496485 -8.58032e-13 0.99608 -4.54842e-10 0.996037)
(1.00846 -0.000530876 -3.34509e-13 0.995815 -4.80282e-10 0.995776)
(1.009 -0.000553107 2.3258e-13 0.995546 -5.05379e-10 0.995513)
(1.00953 -0.000558809 8.20788e-13 0.99528 -5.29425e-10 0.995257)
(1.01003 -0.000543634 1.40568e-12 0.995026 -5.51584e-10 0.995017)
(1.01049 -0.000503636 1.94812e-12 0.994795 -5.70905e-10 0.994801)
(1.01087 -0.000435994 2.42666e-12 0.994599 -5.8636e-10 0.994623)
(1.01115 -0.000339742 2.80844e-12 0.99445 -5.96906e-10 0.994492)
(1.01131 -0.000216554 3.07953e-12 0.994362 -6.01563e-10 0.994421)
(1.01133 -7.1378e-05 3.23856e-12 0.994347 -5.99511e-10 0.994419)
(1.01119 8.7489e-05 3.30447e-12 0.994413 -5.90207e-10 0.994492)
(1.01088 0.000248719 3.31368e-12 0.994565 -5.73466e-10 0.994642)
(1.01041 0.000399641 3.31076e-12 0.9948 -5.49552e-10 0.994869)
(1.0098 0.000527599 3.34543e-12 0.99511 -5.19154e-10 0.995163)
(1.00907 0.00062321 3.45527e-12 0.99548 -4.83399e-10 0.995513)
(1.00825 0.000680001 3.649e-12 0.995893 -4.43652e-10 0.995904)
(1.00739 0.000696805 3.92999e-12 0.99633 -4.01528e-10 0.996318)
(1.00652 0.000674561 4.28381e-12 0.99677 -3.5855e-10 0.996737)
(1.00568 0.000618958 4.67978e-12 0.997196 -3.16324e-10 0.997147)
(1.00489 0.00053577 5.0944e-12 0.997593 -2.76051e-10 0.997532)
(1.00418 0.000433994 5.49261e-12 0.997949 -2.38963e-10 0.997882)
(1.00356 0.000321595 5.84646e-12 0.998257 -2.05665e-10 0.998189)
(1.00305 0.000207241 6.12661e-12 0.998511 -1.76824e-10 0.998447)
(1.00264 9.85094e-05 6.31053e-12 0.998713 -1.52424e-10 0.998657)
(1.00232 4.28964e-07 6.39028e-12 0.998865 -1.32567e-10 0.998819)
(1.00209 -8.24834e-05 6.36115e-12 0.998972 -1.1681e-10 0.998938)
(1.00194 -0.000149859 6.23669e-12 0.999041 -1.04871e-10 0.999018)
(1.00186 -0.000200511 6.02458e-12 0.999078 -9.6163e-11 0.999066)
(1.00182 -0.000236781 5.75327e-12 0.99909 -9.02436e-11 0.999088)
(1.00183 -0.000259507 5.43169e-12 0.999083 -8.65807e-11 0.999088)
(1.00187 -0.000271651 5.08229e-12 0.999061 -8.47304e-11 0.999072)
(1.00193 -0.00027485 4.71913e-12 0.999029 -8.42927e-11 0.999044)
(1.00201 -0.000271531 4.35507e-12 0.99899 -8.49041e-11 0.999008)
(1.00209 -0.000263372 4.00198e-12 0.998947 -8.62975e-11 0.998966)
(1.00218 -0.000251958 3.66208e-12 0.998902 -8.82137e-11 0.998921)
(1.00227 -0.000238636 3.3472e-12 0.998857 -9.04881e-11 0.998875)
(1.00236 -0.000224289 3.05432e-12 0.998811 -9.2957e-11 0.99883)
(1.00245 -0.000209817 2.79171e-12 0.998768 -9.55265e-11 0.998785)
(1.00254 -0.000195649 2.55619e-12 0.998726 -9.8105e-11 0.998741)
(1.00262 -0.000182282 2.34775e-12 0.998685 -1.00644e-10 0.998699)
(1.0027 -0.000169885 2.16433e-12 0.998647 -1.03101e-10 0.99866)
(1.00277 -0.000158666 2.00378e-12 0.998612 -1.05457e-10 0.998622)
(1.00284 -0.000148649 1.86954e-12 0.998578 -1.07695e-10 0.998587)
(1.00291 -0.000139872 1.75302e-12 0.998546 -1.09814e-10 0.998554)
(1.00297 -0.000132283 1.65673e-12 0.998516 -1.11815e-10 0.998522)
(1.00303 -0.000125832 1.57616e-12 0.998487 -1.13703e-10 0.998493)
(1.00308 -0.000120432 1.5127e-12 0.99846 -1.15485e-10 0.998464)
(1.00314 -0.000115995 1.46004e-12 0.998434 -1.1717e-10 0.998437)
(1.00319 -0.000112421 1.4219e-12 0.998409 -1.18769e-10 0.998412)
(1.00324 -0.000109608 1.39234e-12 0.998385 -1.20289e-10 0.998387)
(1.00328 -0.000107451 1.37142e-12 0.998361 -1.21738e-10 0.998363)
(1.00333 -0.000105842 1.35945e-12 0.998339 -1.23122e-10 0.998339)
(1.00338 -0.000104669 1.35426e-12 0.998316 -1.24445e-10 0.998317)
(1.00342 -0.00010381 1.35818e-12 0.998295 -1.25708e-10 0.998295)
(1.00346 -0.000103136 1.36432e-12 0.998273 -1.26908e-10 0.998273)
(1.0035 -0.000102501 1.37563e-12 0.998253 -1.2804e-10 0.998252)
(1.00355 -0.000101742 1.38797e-12 0.998232 -1.29093e-10 0.998232)
(1.00358 -0.000100676 1.40406e-12 0.998213 -1.30054e-10 0.998213)
(1.00362 -9.90962e-05 1.42011e-12 0.998194 -1.30901e-10 0.998194)
(1.00366 -9.67739e-05 1.43341e-12 0.998176 -1.31609e-10 0.998177)
(1.00369 -9.34662e-05 1.44466e-12 0.99816 -1.32148e-10 0.998162)
(1.00372 -8.89287e-05 1.44928e-12 0.998146 -1.32481e-10 0.998148)
(1.00374 -8.29366e-05 1.4463e-12 0.998134 -1.32567e-10 0.998138)
(1.00376 -7.53244e-05 1.43058e-12 0.998125 -1.32364e-10 0.99813)
(1.00377 -6.60294e-05 1.40105e-12 0.998119 -1.31831e-10 0.998126)
(1.00377 -5.51664e-05 1.35689e-12 0.998117 -1.30935e-10 0.998125)
(1.00376 -4.3082e-05 1.29692e-12 0.99812 -1.29655e-10 0.99813)
(1.00374 -3.0451e-05 1.21862e-12 0.998129 -1.27993e-10 0.998138)
(1.00372 -1.82677e-05 1.12904e-12 0.998142 -1.25986e-10 0.998151)
(1.00368 -7.88196e-06 1.03285e-12 0.998159 -1.23708e-10 0.998167)
(1.00364 -8.0247e-07 9.33646e-13 0.99818 -1.21288e-10 0.998186)
(1.0036 1.73122e-06 4.20511e-13 0.998202 -1.18899e-10 0.998205)
(1.00241 4.60466e-05 -7.24967e-12 0.998799 8.84193e-11 0.998799)
(1.00253 4.49866e-05 -7.20895e-12 0.998738 9.72296e-11 0.998739)
(1.00265 4.55569e-05 -7.14774e-12 0.998676 1.06011e-10 0.998678)
(1.00277 4.45782e-05 -7.11527e-12 0.998615 1.14671e-10 0.998616)
(1.0029 4.07869e-05 -7.10083e-12 0.998552 1.2328e-10 0.998551)
(1.00304 3.50972e-05 -7.15715e-12 0.998487 1.31773e-10 0.998484)
(1.00318 2.45514e-05 -7.21492e-12 0.998418 1.40303e-10 0.998413)
(1.00333 1.14698e-05 -7.33524e-12 0.998345 1.48909e-10 0.998337)
(1.00349 -6.85059e-06 -7.41489e-12 0.998266 1.57743e-10 0.998254)
(1.00367 -2.85809e-05 -7.5155e-12 0.998178 1.66928e-10 0.998163)
(1.00387 -5.54837e-05 -7.53827e-12 0.998082 1.76587e-10 0.998063)
(1.00408 -8.67083e-05 -7.53394e-12 0.997976 1.86875e-10 0.997952)
(1.00433 -0.000123134 -7.42406e-12 0.997858 1.97881e-10 0.997829)
(1.0046 -0.000164576 -7.2381e-12 0.997728 2.09751e-10 0.997692)
(1.00489 -0.000211216 -6.92255e-12 0.997584 2.22541e-10 0.997542)
(1.00522 -0.000262958 -6.49411e-12 0.997424 2.36355e-10 0.997376)
(1.00558 -0.000319289 -5.92113e-12 0.997249 2.51205e-10 0.997194)
(1.00597 -0.000379586 -5.21812e-12 0.997057 2.67122e-10 0.996996)
(1.0064 -0.000442397 -4.36676e-12 0.996849 2.84046e-10 0.996782)
(1.00686 -0.000505981 -3.39619e-12 0.996623 3.01898e-10 0.996553)
(1.00735 -0.000567557 -2.31215e-12 0.996382 3.20505e-10 0.996311)
(1.00786 -0.000623789 -1.14729e-12 0.996127 3.39635e-10 0.996057)
(1.00839 -0.000670282 5.94533e-14 0.995862 3.58946e-10 0.995797)
(1.00893 -0.000702029 1.25959e-12 0.995591 3.78012e-10 0.995536)
(1.00947 -0.00071332 2.39917e-12 0.99532 3.96291e-10 0.99528)
(1.00998 -0.000698343 3.42224e-12 0.995058 4.13148e-10 0.995039)
(1.01044 -0.000651646 4.28088e-12 0.994816 4.27855e-10 0.994822)
(1.01084 -0.000569094 4.93454e-12 0.994607 4.39635e-10 0.994641)
(1.01114 -0.000448855 5.36957e-12 0.994445 4.47696e-10 0.994508)
(1.01132 -0.000292552 5.59401e-12 0.994343 4.51305e-10 0.994433)
(1.01135 -0.000106205 5.64638e-12 0.994317 4.49853e-10 0.994428)
(1.01122 9.94263e-05 5.58009e-12 0.994377 4.42944e-10 0.994498)
(1.01091 0.000309261 5.46681e-12 0.994528 4.30449e-10 0.994648)
(1.01044 0.000506018 5.37479e-12 0.994768 4.1257e-10 0.994874)
(1.00981 0.000672441 5.37155e-12 0.99509 3.89802e-10 0.995168)
(1.00907 0.000795918 5.51476e-12 0.995475 3.62961e-10 0.99552)
(1.00823 0.000868109 5.86885e-12 0.995905 3.33048e-10 0.995912)
(1.00736 0.000887813 6.44249e-12 0.996357 3.01267e-10 0.996327)
(1.00647 0.000856638 7.24065e-12 0.99681 2.6876e-10 0.996748)
(1.00562 0.000782345 8.20993e-12 0.997245 2.3675e-10 0.997157)
(1.00483 0.000672611 9.30037e-12 0.997648 2.06148e-10 0.997542)
(1.00412 0.000539337 1.0426e-11 0.998004 1.779e-10 0.99789)
(1.00351 0.000392957 1.15167e-11 0.998309 1.52474e-10 0.998195)
(1.003 0.000244903 1.25005e-11 0.998556 1.30391e-10 0.99845)
(1.0026 0.00010516 1.33191e-11 0.998748 1.11657e-10 0.998657)
(1.0023 -1.98204e-05 1.39427e-11 0.998888 9.6375e-11 0.998816)
(1.00209 -0.000124343 1.4329e-11 0.998984 8.42283e-11 0.998932)
(1.00195 -0.000208335 1.44864e-11 0.999042 7.50168e-11 0.99901)
(1.00188 -0.000270531 1.44075e-11 0.99907 6.82991e-11 0.999056)
(1.00185 -0.000314279 1.41338e-11 0.999075 6.37402e-11 0.999076)
(1.00187 -0.000340824 1.36813e-11 0.999062 6.09315e-11 0.999075)
(1.00191 -0.000354109 1.31011e-11 0.999036 5.95313e-11 0.999059)
(1.00197 -0.000356297 1.24221e-11 0.999002 5.92291e-11 0.999031)
(1.00205 -0.000350497 1.16854e-11 0.998962 5.97426e-11 0.998995)
(1.00213 -0.000338863 1.09165e-11 0.998919 6.08632e-11 0.998954)
(1.00222 -0.000323355 1.01446e-11 0.998875 6.23882e-11 0.99891)
(1.00231 -0.000305682 9.38909e-12 0.998831 6.41888e-11 0.998865)
(1.0024 -0.000286903 8.66418e-12 0.998788 6.61364e-11 0.99882)
(1.00248 -0.000268139 7.98144e-12 0.998746 6.81575e-11 0.998776)
(1.00256 -0.000249894 7.34777e-12 0.998707 7.01805e-11 0.998734)
(1.00264 -0.000232771 6.7665e-12 0.998669 7.21679e-11 0.998693)
(1.00272 -0.000216958 6.24032e-12 0.998633 7.40862e-11 0.998654)
(1.00279 -0.000202698 5.76849e-12 0.998599 7.59206e-11 0.998618)
(1.00286 -0.000190007 5.35036e-12 0.998567 7.76598e-11 0.998583)
(1.00292 -0.000178916 4.98386e-12 0.998537 7.93024e-11 0.998551)
(1.00298 -0.000169352 4.66657e-12 0.998508 8.08491e-11 0.99852)
(1.00304 -0.000161242 4.39359e-12 0.998481 8.2305e-11 0.998491)
(1.00309 -0.00015447 4.16276e-12 0.998455 8.36764e-11 0.998463)
(1.00314 -0.000148923 3.97114e-12 0.99843 8.49708e-11 0.998436)
(1.00319 -0.000144469 3.81423e-12 0.998406 8.61956e-11 0.998411)
(1.00324 -0.000140982 3.68828e-12 0.998383 8.7358e-11 0.998386)
(1.00329 -0.000138328 3.59192e-12 0.99836 8.84643e-11 0.998362)
(1.00333 -0.000136373 3.51854e-12 0.998338 8.95195e-11 0.998339)
(1.00338 -0.000134976 3.46769e-12 0.998316 9.05267e-11 0.998317)
(1.00342 -0.00013399 3.43457e-12 0.998295 9.14872e-11 0.998295)
(1.00346 -0.000133254 3.41658e-12 0.998274 9.23996e-11 0.998274)
(1.0035 -0.000132589 3.40867e-12 0.998253 9.32598e-11 0.998253)
(1.00354 -0.000131794 3.40938e-12 0.998233 9.40605e-11 0.998233)
(1.00358 -0.000130643 3.41054e-12 0.998214 9.47904e-11 0.998213)
(1.00362 -0.000128874 3.40992e-12 0.998195 9.54347e-11 0.998195)
(1.00366 -0.0001262 3.4028e-12 0.998177 9.59738e-11 0.998178)
(1.00369 -0.000122306 3.38245e-12 0.99816 9.63839e-11 0.998162)
(1.00372 -0.000116868 3.34386e-12 0.998145 9.66372e-11 0.998149)
(1.00374 -0.000109575 3.28061e-12 0.998131 9.67025e-11 0.998137)
(1.00376 -0.000100179 3.18844e-12 0.998121 9.65471e-11 0.998129)
(1.00377 -8.85481e-05 3.06585e-12 0.998114 9.61397e-11 0.998125)
(1.00378 -7.47656e-05 2.91125e-12 0.998111 9.54542e-11 0.998124)
(1.00377 -5.92081e-05 2.72881e-12 0.998113 9.44757e-11 0.998127)
(1.00376 -4.26897e-05 2.52498e-12 0.99812 9.32072e-11 0.998136)
(1.00373 -2.64702e-05 2.30612e-12 0.998133 9.16776e-11 0.998148)
(1.0037 -1.23341e-05 2.08368e-12 0.998151 8.99453e-11 0.998164)
(1.00365 -2.36608e-06 1.864e-12 0.998173 8.80967e-11 0.998183)
(1.00361 1.95021e-06 8.2698e-13 0.998196 8.62444e-11 0.998202)
(1.00241 5.03506e-05 3.21334e-12 0.998796 2.24955e-10 0.998799)
(1.00253 4.92069e-05 3.20479e-12 0.998734 2.38956e-10 0.998738)
(1.00266 5.01725e-05 3.14251e-12 0.998671 2.53293e-10 0.998676)
(1.00278 4.93424e-05 3.14032e-12 0.998611 2.67595e-10 0.998614)
(1.00291 4.48425e-05 3.17845e-12 0.998548 2.82694e-10 0.998549)
(1.00304 3.82924e-05 3.30523e-12 0.998485 2.98227e-10 0.998483)
(1.00318 2.57727e-05 3.47175e-12 0.998418 3.15015e-10 0.998411)
(1.00333 1.04575e-05 3.68985e-12 0.998346 3.32873e-10 0.998335)
(1.00349 -1.10551e-05 3.91497e-12 0.998268 3.52382e-10 0.998252)
(1.00367 -3.6443e-05 4.14245e-12 0.998183 3.7355e-10 0.998162)
(1.00386 -6.78471e-05 4.34615e-12 0.998089 3.96734e-10 0.998062)
(1.00408 -0.000104271 4.51354e-12 0.997986 4.22067e-10 0.997952)
(1.00431 -0.000146773 4.63075e-12 0.997872 4.49767e-10 0.99783)
(1.00458 -0.000195213 4.67926e-12 0.997745 4.80009e-10 0.997695)
(1.00487 -0.000249847 4.6565e-12 0.997606 5.12919e-10 0.997546)
(1.00519 -0.00031067 4.54329e-12 0.997452 5.48634e-10 0.997382)
(1.00554 -0.000377164 4.33313e-12 0.997283 5.87182e-10 0.997203)
(1.00592 -0.000448717 4.01815e-12 0.997097 6.28578e-10 0.997008)
(1.00634 -0.000523737 3.592e-12 0.996894 6.72686e-10 0.996797)
(1.00679 -0.00060029 3.04421e-12 0.996675 7.19292e-10 0.996571)
(1.00727 -0.0006752 2.3872e-12 0.996438 7.67986e-10 0.996331)
(1.00778 -0.000744584 1.62172e-12 0.996186 8.18195e-10 0.99608)
(1.00831 -0.000803241 7.65285e-13 0.995921 8.69094e-10 0.995823)
(1.00885 -0.000845113 -1.59796e-13 0.995648 9.19615e-10 0.995563)
(1.00939 -0.000863155 -1.11515e-12 0.995371 9.68394e-10 0.995309)
(1.00991 -0.000849992 -2.06247e-12 0.9951 1.01379e-09 0.995067)
(1.01039 -0.000798464 -2.9492e-12 0.994845 1.05388e-09 0.99485)
(1.0108 -0.000702796 -3.72856e-12 0.994619 1.08656e-09 0.994667)
(1.01112 -0.000559875 -4.35311e-12 0.994438 1.1096e-09 0.99453)
(1.01132 -0.000370869 -4.79773e-12 0.994318 1.12086e-09 0.994453)
(1.01138 -0.000142591 -5.056e-12 0.994276 1.11847e-09 0.994444)
(1.01126 0.000111668 -5.16271e-12 0.994325 1.10111e-09 0.994512)
(1.01096 0.000372637 -5.17126e-12 0.994474 1.06824e-09 0.99466)
(1.01047 0.000617507 -5.16688e-12 0.994721 1.02032e-09 0.994886)
(1.00983 0.000823555 -5.2356e-12 0.995056 9.58831e-10 0.995182)
(1.00907 0.000974618 -5.42043e-12 0.995461 8.86222e-10 0.995535)
(1.00821 0.00106071 -5.74848e-12 0.995911 8.05489e-10 0.995929)
(1.00731 0.00108102 -6.20275e-12 0.996382 7.20088e-10 0.996345)
(1.00641 0.00103836 -6.75495e-12 0.996852 6.33263e-10 0.996766)
(1.00555 0.00094296 -7.35426e-12 0.997299 5.48357e-10 0.997175)
(1.00475 0.000804652 -7.95953e-12 0.997709 4.6784e-10 0.997557)
(1.00404 0.000638439 -8.51359e-12 0.998067 3.94219e-10 0.997902)
(1.00344 0.000457341 -8.97776e-12 0.998368 3.28652e-10 0.998203)
(1.00295 0.000275734 -9.31063e-12 0.998607 2.72436e-10 0.998454)
(1.00256 0.000106167 -9.48207e-12 0.998788 2.25378e-10 0.998656)
(1.00228 -4.35603e-05 -9.48776e-12 0.998914 1.87563e-10 0.99881)
(1.00209 -0.000166836 -9.32149e-12 0.998997 1.57924e-10 0.998921)
(1.00196 -0.000264294 -9.02035e-12 0.999042 1.35785e-10 0.998996)
(1.0019 -0.000334928 -8.59951e-12 0.99906 1.19889e-10 0.999039)
(1.00189 -0.000383363 -8.10081e-12 0.999056 1.09297e-10 0.999057)
(1.00191 -0.000411429 -7.5459e-12 0.999037 1.02946e-10 0.999055)
(1.00196 -0.000424114 -6.97038e-12 0.999008 9.99466e-11 0.999039)
(1.00202 -0.000424138 -6.39034e-12 0.998971 9.95425e-11 0.999011)
(1.0021 -0.000415227 -5.82926e-12 0.998931 1.01026e-10 0.998976)
(1.00218 -0.000399965 -5.29416e-12 0.998889 1.03916e-10 0.998937)
(1.00226 -0.000380583 -4.79798e-12 0.998846 1.07718e-10 0.998894)
(1.00235 -0.000359077 -4.34557e-12 0.998804 1.12144e-10 0.998851)
(1.00243 -0.000336586 -3.9373e-12 0.998763 1.1689e-10 0.998808)
(1.00252 -0.000314387 -3.57546e-12 0.998724 1.21794e-10 0.998765)
(1.00259 -0.00029299 -3.25804e-12 0.998687 1.26691e-10 0.998724)
(1.00267 -0.000273056 -2.98247e-12 0.998651 1.31497e-10 0.998685)
(1.00274 -0.000254758 -2.74666e-12 0.998618 1.36139e-10 0.998647)
(1.00281 -0.000238339 -2.54678e-12 0.998586 1.40583e-10 0.998612)
(1.00287 -0.000223795 -2.37978e-12 0.998556 1.44806e-10 0.998578)
(1.00293 -0.000211137 -2.2417e-12 0.998528 1.48804e-10 0.998547)
(1.00299 -0.000200265 -2.12919e-12 0.998501 1.52581e-10 0.998516)
(1.00304 -0.000191081 -2.04031e-12 0.998475 1.5615e-10 0.998488)
(1.0031 -0.000183446 -1.96993e-12 0.998451 1.59524e-10 0.998461)
(1.00315 -0.000177222 -1.9179e-12 0.998427 1.62722e-10 0.998435)
(1.00319 -0.000172257 -1.87909e-12 0.998404 1.65761e-10 0.99841)
(1.00324 -0.000168401 -1.85641e-12 0.998381 1.68658e-10 0.998385)
(1.00329 -0.000165504 -1.84344e-12 0.998359 1.71427e-10 0.998362)
(1.00333 -0.00016341 -1.84073e-12 0.998338 1.74079e-10 0.998339)
(1.00337 -0.000161964 -1.84736e-12 0.998317 1.76622e-10 0.998317)
(1.00342 -0.000160997 -1.8608e-12 0.998296 1.79058e-10 0.998295)