/*--------------------------------*- C++ -*----------------------------------*\
| =========                 |                                                 |
| \\      /  F ield         | foam-extend: Open Source CFD                    |
|  \\    /   O peration     | Version:     4.1-20200408                       |
|   \\  /    A nd           | Web:         http://www.foam-extend.org         |
|    \\/     M anipulation  |                                                 |
\*---------------------------------------------------------------------------*/
FoamFile
{
    version     2.0;
    format      ascii;
    class       volScalarField;
    location    "0.0015000";
    object      rho_0;
}
// * * * * * * * * * * * * * * * * * * * * * * * * * * * * * * * * * * * * * //

dimensions      [1 -3 0 0 0 0 0];

internalField   nonuniform List<scalar> 
1952
(
7835.82
7836.31
7836.8
7837.29
7837.79
7838.3
7838.83
7839.36
7839.93
7840.51
7841.12
7841.75
7842.41
7843.11
7843.83
7844.58
7845.36
7846.17
7846.99
7847.82
7848.66
7849.49
7850.29
7851.06
7851.76
7852.39
7852.92
7853.33
7853.58
7853.67
7853.57
7853.27
7852.76
7852.04
7851.12
7850.03
7848.77
7847.4
7845.94
7844.43
7842.9
7841.4
7839.95
7838.58
7837.3
7836.12
7835.06
7834.11
7833.27
7832.53
7831.89
7831.34
7830.87
7830.47
7830.13
7829.84
7829.6
7829.39
7829.21
7829.06
7828.93
7828.82
7828.71
7828.62
7828.54
7828.46
7828.39
7828.32
7828.25
7828.19
7828.12
7828.06
7827.99
7827.92
7827.86
7827.79
7827.71
7827.64
7827.56
7827.48
7827.39
7827.3
7827.2
7827.09
7826.98
7826.87
7826.74
7826.62
7826.48
7826.34
7826.2
7826.07
7825.93
7835.82
7836.3
7836.79
7837.28
7837.78
7838.29
7838.81
7839.35
7839.91
7840.49
7841.09
7841.73
7842.39
7843.08
7843.81
7844.56
7845.35
7846.16
7846.99
7847.83
7848.68
7849.52
7850.34
7851.12
7851.85
7852.5
7853.05
7853.47
7853.74
7853.84
7853.75
7853.45
7852.94
7852.21
7851.27
7850.16
7848.88
7847.48
7845.98
7844.45
7842.89
7841.37
7839.9
7838.51
7837.22
7836.04
7834.97
7834.02
7833.18
7832.45
7831.81
7831.27
7830.81
7830.41
7830.08
7829.8
7829.56
7829.36
7829.18
7829.04
7828.91
7828.8
7828.7
7828.61
7828.53
7828.45
7828.38
7828.32
7828.25
7828.18
7828.12
7828.06
7827.99
7827.93
7827.86
7827.79
7827.72
7827.64
7827.56
7827.48
7827.39
7827.3
7827.2
7827.1
7826.99
7826.87
7826.75
7826.62
7826.48
7826.34
7826.2
7826.06
7825.92
7835.82
7836.3
7836.78
7837.27
7837.77
7838.27
7838.79
7839.32
7839.88
7840.45
7841.06
7841.69
7842.35
7843.04
7843.77
7844.53
7845.32
7846.13
7846.97
7847.83
7848.69
7849.54
7850.39
7851.19
7851.94
7852.62
7853.2
7853.65
7853.95
7854.08
7854
7853.71
7853.2
7852.46
7851.51
7850.35
7849.04
7847.59
7846.05
7844.46
7842.87
7841.31
7839.8
7838.39
7837.08
7835.89
7834.82
7833.87
7833.04
7832.32
7831.7
7831.17
7830.72
7830.34
7830.01
7829.74
7829.51
7829.32
7829.15
7829.01
7828.89
7828.78
7828.69
7828.6
7828.52
7828.45
7828.38
7828.31
7828.25
7828.19
7828.12
7828.06
7827.99
7827.93
7827.86
7827.79
7827.72
7827.65
7827.57
7827.49
7827.4
7827.31
7827.21
7827.11
7827
7826.88
7826.76
7826.63
7826.49
7826.35
7826.2
7826.05
7825.91
7835.81
7836.29
7836.77
7837.25
7837.75
7838.25
7838.76
7839.29
7839.84
7840.41
7841.01
7841.64
7842.3
7842.99
7843.72
7844.48
7845.28
7846.1
7846.95
7847.82
7848.71
7849.59
7850.46
7851.3
7852.09
7852.81
7853.43
7853.92
7854.26
7854.42
7854.37
7854.09
7853.57
7852.82
7851.83
7850.63
7849.25
7847.74
7846.13
7844.48
7842.83
7841.22
7839.67
7838.23
7836.89
7835.69
7834.62
7833.68
7832.86
7832.15
7831.55
7831.03
7830.6
7830.23
7829.92
7829.66
7829.45
7829.26
7829.11
7828.97
7828.86
7828.76
7828.67
7828.59
7828.51
7828.44
7828.37
7828.31
7828.25
7828.18
7828.12
7828.06
7827.99
7827.93
7827.86
7827.8
7827.72
7827.65
7827.57
7827.49
7827.41
7827.32
7827.22
7827.12
7827.01
7826.89
7826.77
7826.63
7826.49
7826.35
7826.2
7826.04
7825.89
7835.8
7836.28
7836.76
7837.24
7837.73
7838.22
7838.73
7839.25
7839.79
7840.35
7840.95
7841.57
7842.23
7842.92
7843.65
7844.42
7845.22
7846.05
7846.92
7847.81
7848.71
7849.63
7850.53
7851.41
7852.25
7853.02
7853.69
7854.24
7854.64
7854.84
7854.83
7854.57
7854.06
7853.28
7852.25
7850.99
7849.54
7847.94
7846.24
7844.51
7842.77
7841.09
7839.49
7838
7836.64
7835.43
7834.36
7833.42
7832.62
7831.93
7831.35
7830.85
7830.44
7830.1
7829.81
7829.57
7829.37
7829.2
7829.06
7828.93
7828.83
7828.73
7828.65
7828.57
7828.5
7828.43
7828.37
7828.31
7828.24
7828.18
7828.12
7828.06
7828
7827.93
7827.87
7827.8
7827.73
7827.66
7827.58
7827.5
7827.42
7827.33
7827.23
7827.13
7827.02
7826.91
7826.78
7826.65
7826.51
7826.35
7826.2
7826.04
7825.88
7835.8
7836.27
7836.75
7837.22
7837.7
7838.18
7838.68
7839.19
7839.73
7840.29
7840.88
7841.49
7842.15
7842.84
7843.57
7844.34
7845.15
7845.99
7846.88
7847.79
7848.72
7849.67
7850.62
7851.55
7852.45
7853.28
7854.02
7854.64
7855.1
7855.37
7855.4
7855.17
7854.66
7853.86
7852.77
7851.43
7849.88
7848.17
7846.36
7844.52
7842.68
7840.92
7839.25
7837.71
7836.33
7835.11
7834.03
7833.12
7832.33
7831.67
7831.11
7830.65
7830.27
7829.95
7829.68
7829.46
7829.28
7829.12
7828.99
7828.88
7828.79
7828.7
7828.62
7828.55
7828.49
7828.42
7828.36
7828.3
7828.24
7828.18
7828.12
7828.06
7828
7827.94
7827.87
7827.81
7827.74
7827.67
7827.59
7827.51
7827.43
7827.34
7827.25
7827.15
7827.04
7826.93
7826.8
7826.67
7826.52
7826.36
7826.2
7826.03
7825.85
7835.8
7836.27
7836.75
7837.2
7837.68
7838.15
7838.64
7839.13
7839.66
7840.2
7840.78
7841.39
7842.04
7842.73
7843.46
7844.23
7845.05
7845.91
7846.81
7847.75
7848.72
7849.71
7850.71
7851.7
7852.67
7853.58
7854.41
7855.12
7855.67
7856.01
7856.11
7855.93
7855.43
7854.6
7853.44
7852
7850.32
7848.47
7846.51
7844.53
7842.57
7840.69
7838.94
7837.34
7835.92
7834.69
7833.63
7832.73
7831.97
7831.35
7830.83
7830.4
7830.05
7829.76
7829.53
7829.33
7829.17
7829.04
7828.93
7828.83
7828.74
7828.67
7828.6
7828.53
7828.47
7828.41
7828.35
7828.3
7828.24
7828.18
7828.12
7828.07
7828
7827.94
7827.88
7827.81
7827.75
7827.68
7827.6
7827.53
7827.45
7827.36
7827.27
7827.17
7827.07
7826.95
7826.83
7826.69
7826.54
7826.38
7826.21
7826.02
7825.83
7835.8
7836.27
7836.74
7837.19
7837.65
7838.1
7838.58
7839.06
7839.58
7840.11
7840.68
7841.28
7841.92
7842.61
7843.34
7844.11
7844.94
7845.81
7846.73
7847.69
7848.7
7849.74
7850.79
7851.86
7852.9
7853.91
7854.84
7855.66
7856.31
7856.76
7856.94
7856.81
7856.33
7855.47
7854.22
7852.65
7850.81
7848.79
7846.66
7844.5
7842.39
7840.39
7838.55
7836.89
7835.44
7834.2
7833.16
7832.29
7831.58
7830.99
7830.52
7830.13
7829.82
7829.57
7829.37
7829.2
7829.06
7828.95
7828.85
7828.77
7828.7
7828.63
7828.57
7828.51
7828.46
7828.4
7828.35
7828.29
7828.24
7828.18
7828.13
7828.07
7828.01
7827.95
7827.89
7827.82
7827.76
7827.69
7827.62
7827.54
7827.46
7827.38
7827.29
7827.2
7827.09
7826.98
7826.86
7826.72
7826.57
7826.4
7826.22
7826.02
7825.81
7835.82
7836.28
7836.74
7837.17
7837.62
7838.06
7838.52
7838.98
7839.48
7840
7840.55
7841.14
7841.78
7842.45
7843.18
7843.96
7844.79
7845.67
7846.61
7847.61
7848.65
7849.74
7850.86
7852.01
7853.15
7854.27
7855.33
7856.28
7857.08
7857.67
7857.98
7857.94
7857.48
7856.59
7855.24
7853.5
7851.45
7849.19
7846.83
7844.46
7842.16
7840
7838.04
7836.3
7834.82
7833.59
7832.57
7831.75
7831.09
7830.57
7830.15
7829.82
7829.55
7829.35
7829.18
7829.05
7828.94
7828.85
7828.78
7828.71
7828.65
7828.6
7828.54
7828.49
7828.44
7828.39
7828.34
7828.29
7828.24
7828.18
7828.13
7828.07
7828.01
7827.96
7827.89
7827.83
7827.77
7827.7
7827.63
7827.56
7827.48
7827.4
7827.32
7827.23
7827.13
7827.02
7826.9
7826.76
7826.61
7826.44
7826.24
7826.02
7825.79
7835.85
7836.29
7836.75
7837.16
7837.59
7838.01
7838.45
7838.89
7839.37
7839.88
7840.42
7840.99
7841.62
7842.28
7843.01
7843.78
7844.62
7845.52
7846.47
7847.5
7848.58
7849.72
7850.92
7852.15
7853.39
7854.64
7855.84
7856.95
7857.92
7858.68
7859.14
7859.21
7858.81
7857.88
7856.4
7854.45
7852.14
7849.61
7846.98
7844.36
7841.85
7839.51
7837.42
7835.6
7834.1
7832.89
7831.92
7831.16
7830.57
7830.11
7829.76
7829.49
7829.29
7829.12
7829
7828.9
7828.82
7828.76
7828.7
7828.65
7828.61
7828.56
7828.52
7828.48
7828.43
7828.39
7828.34
7828.29
7828.24
7828.19
7828.13
7828.08
7828.02
7827.96
7827.9
7827.84
7827.78
7827.71
7827.65
7827.58
7827.51
7827.43
7827.35
7827.26
7827.16
7827.06
7826.94
7826.81
7826.66
7826.48
7826.28
7826.04
7825.78
7835.9
7836.33
7836.77
7837.16
7837.56
7837.95
7838.36
7838.79
7839.24
7839.73
7840.25
7840.81
7841.42
7842.08
7842.79
7843.56
7844.4
7845.31
7846.28
7847.34
7848.46
7849.66
7850.93
7852.26
7853.63
7855.02
7856.41
7857.73
7858.92
7859.91
7860.6
7860.85
7860.55
7859.6
7857.92
7855.68
7853.01
7850.11
7847.13
7844.19
7841.39
7838.83
7836.58
7834.67
7833.16
7831.99
7831.11
7830.44
7829.95
7829.59
7829.32
7829.12
7828.98
7828.88
7828.8
7828.74
7828.7
7828.66
7828.62
7828.59
7828.56
7828.53
7828.5
7828.46
7828.42
7828.38
7828.34
7828.29
7828.24
7828.19
7828.14
7828.08
7828.03
7827.97
7827.91
7827.85
7827.79
7827.73
7827.66
7827.6
7827.53
7827.46
7827.38
7827.3
7827.21
7827.11
7827
7826.87
7826.73
7826.55
7826.34
7826.09
7825.8
7835.98
7836.38
7836.81
7837.16
7837.53
7837.89
7838.28
7838.68
7839.11
7839.57
7840.07
7840.62
7841.21
7841.86
7842.56
7843.33
7844.16
7845.07
7846.06
7847.14
7848.3
7849.56
7850.9
7852.32
7853.82
7855.37
7856.94
7858.48
7859.94
7861.21
7862.17
7862.67
7862.52
7861.58
7859.67
7857.05
7853.96
7850.63
7847.24
7843.94
7840.84
7838.04
7835.6
7833.59
7832.08
7831
7830.23
7829.69
7829.31
7829.05
7828.87
7828.76
7828.69
7828.64
7828.61
7828.59
7828.58
7828.57
7828.56
7828.54
7828.53
7828.5
7828.48
7828.45
7828.41
7828.38
7828.34
7828.29
7828.24
7828.19
7828.14
7828.09
7828.03
7827.98
7827.92
7827.86
7827.8
7827.74
7827.68
7827.62
7827.55
7827.48
7827.41
7827.34
7827.25
7827.16
7827.06
7826.94
7826.8
7826.63
7826.43
7826.16
7825.84
7836.13
7836.47
7836.87
7837.17
7837.5
7837.83
7838.17
7838.55
7838.95
7839.38
7839.86
7840.38
7840.95
7841.58
7842.27
7843.03
7843.86
7844.77
7845.77
7846.87
7848.07
7849.38
7850.8
7852.34
7853.98
7855.72
7857.52
7859.36
7861.16
7862.82
7864.2
7865.09
7865.22
7864.32
7862
7858.83
7855.1
7851.17
7847.25
7843.48
7840
7836.88
7834.23
7832.09
7830.65
7829.74
7829.16
7828.79
7828.57
7828.45
7828.39
7828.37
7828.38
7828.39
7828.42
7828.44
7828.46
7828.48
7828.49
7828.5
7828.49
7828.48
7828.46
7828.44
7828.41
7828.38
7828.34
7828.29
7828.25
7828.2
7828.15
7828.1
7828.04
7827.99
7827.93
7827.87
7827.81
7827.76
7827.7
7827.64
7827.58
7827.51
7827.45
7827.38
7827.31
7827.23
7827.14
7827.04
7826.91
7826.76
7826.57
7826.3
7825.95
7836.34
7836.61
7836.93
7837.19
7837.47
7837.76
7838.07
7838.41
7838.78
7839.19
7839.65
7840.15
7840.69
7841.3
7841.97
7842.71
7843.53
7844.44
7845.44
7846.55
7847.78
7849.13
7850.62
7852.25
7854.02
7855.93
7857.96
7860.09
7862.25
7864.36
7866.25
7867.69
7868.29
7867.59
7864.74
7860.85
7856.36
7851.74
7847.24
7842.98
7839.07
7835.61
7832.68
7830.35
7829.03
7828.37
7828.04
7827.88
7827.84
7827.86
7827.92
7827.99
7828.08
7828.16
7828.24
7828.31
7828.36
7828.41
7828.44
7828.46
7828.47
7828.47
7828.46
7828.44
7828.41
7828.38
7828.34
7828.3
7828.26
7828.21
7828.16
7828.1
7828.05
7827.99
7827.94
7827.88
7827.83
7827.77
7827.71
7827.66
7827.6
7827.54
7827.48
7827.42
7827.36
7827.29
7827.21
7827.13
7827.03
7826.9
7826.73
7826.49
7826.16
7836.7
7836.87
7837.03
7837.23
7837.42
7837.66
7837.93
7838.24
7838.57
7838.96
7839.38
7839.85
7840.37
7840.95
7841.6
7842.32
7843.12
7844.02
7845.02
7846.13
7847.38
7848.78
7850.33
7852.07
7853.99
7856.11
7858.43
7860.93
7863.59
7866.32
7868.97
7871.27
7872.73
7872.37
7868.41
7863.3
7857.65
7852.1
7846.85
7841.97
7837.57
7833.69
7830.41
7827.81
7826.84
7826.67
7826.74
7826.89
7827.07
7827.26
7827.46
7827.65
7827.82
7827.96
7828.09
7828.2
7828.29
7828.35
7828.4
7828.44
7828.46
7828.46
7828.46
7828.44
7828.42
7828.39
7828.35
7828.31
7828.26
7828.22
7828.17
7828.11
7828.06
7828
7827.95
7827.89
7827.84
7827.78
7827.73
7827.68
7827.62
7827.57
7827.52
7827.47
7827.42
7827.36
7827.31
7827.25
7827.18
7827.09
7826.99
7826.8
7826.57
7835.83
7836.31
7836.8
7837.29
7837.79
7838.3
7838.83
7839.37
7839.93
7840.51
7841.12
7841.76
7842.42
7843.12
7843.84
7844.59
7845.37
7846.17
7846.99
7847.82
7848.66
7849.48
7850.28
7851.04
7851.74
7852.37
7852.89
7853.29
7853.54
7853.62
7853.51
7853.21
7852.7
7851.98
7851.07
7849.98
7848.73
7847.37
7845.92
7844.42
7842.91
7841.42
7839.97
7838.61
7837.33
7836.16
7835.09
7834.14
7833.3
7832.56
7831.92
7831.37
7830.9
7830.49
7830.15
7829.86
7829.61
7829.4
7829.22
7829.07
7828.93
7828.82
7828.72
7828.62
7828.54
7828.46
7828.39
7828.32
7828.25
7828.19
7828.12
7828.06
7827.99
7827.92
7827.86
7827.78
7827.71
7827.64
7827.56
7827.47
7827.39
7827.29
7827.2
7827.09
7826.98
7826.87
7826.74
7826.61
7826.48
7826.34
7826.2
7826.07
7825.94
7835.5
7835.49
7835.49
7835.49
7835.49
7835.49
7835.5
7835.52
7835.55
7835.59
7835.66
7835.77
7835.93
7836.17
7836.55
7835.5
7835.18
7835.18
7835.19
7835.19
7835.2
7835.21
7835.22
7835.25
7835.29
7835.35
7835.44
7835.57
7835.75
7836
7836.38
7835.18
7834.88
7834.88
7834.89
7834.89
7834.91
7834.92
7834.95
7834.99
7835.04
7835.11
7835.22
7835.36
7835.55
7835.82
7836.2
7834.88
7834.59
7834.6
7834.61
7834.62
7834.64
7834.66
7834.7
7834.74
7834.81
7834.89
7835.01
7835.17
7835.37
7835.64
7836.01
7834.59
7834.32
7834.32
7834.34
7834.35
7834.38
7834.41
7834.45
7834.51
7834.59
7834.68
7834.81
7834.98
7835.19
7835.46
7835.83
7834.31
7834.06
7834.07
7834.08
7834.1
7834.13
7834.17
7834.23
7834.29
7834.38
7834.49
7834.63
7834.8
7835.01
7835.28
7835.65
7834.06
7833.81
7833.82
7833.84
7833.87
7833.9
7833.95
7834.01
7834.08
7834.18
7834.3
7834.45
7834.62
7834.84
7835.11
7835.47
7833.81
7833.58
7833.59
7833.61
7833.65
7833.69
7833.74
7833.81
7833.89
7833.99
7834.12
7834.27
7834.46
7834.68
7834.94
7835.29
7833.57
7833.35
7833.37
7833.4
7833.43
7833.48
7833.54
7833.61
7833.7
7833.82
7833.95
7834.11
7834.29
7834.51
7834.78
7835.12
7833.35
7833.14
7833.16
7833.19
7833.23
7833.28
7833.35
7833.43
7833.53
7833.65
7833.78
7833.95
7834.14
7834.36
7834.62
7834.95
7833.14
7832.94
7832.96
7832.99
7833.04
7833.09
7833.16
7833.25
7833.36
7833.48
7833.63
7833.8
7833.99
7834.21
7834.46
7834.78
7832.93
7832.74
7832.77
7832.8
7832.85
7832.91
7832.99
7833.08
7833.19
7833.32
7833.47
7833.64
7833.84
7834.06
7834.31
7834.62
7832.74
7832.56
7832.58
7832.62
7832.67
7832.74
7832.82
7832.91
7833.03
7833.17
7833.32
7833.5
7833.69
7833.91
7834.16
7834.46
7832.55
7832.38
7832.41
7832.44
7832.5
7832.57
7832.65
7832.75
7832.87
7833.01
7833.17
7833.35
7833.54
7833.76
7834.01
7834.31
7832.37
7832.2
7832.23
7832.27
7832.33
7832.4
7832.49
7832.59
7832.72
7832.86
7833.02
7833.2
7833.4
7833.62
7833.86
7834.16
7832.19
7832.03
7832.07
7832.11
7832.17
7832.24
7832.33
7832.44
7832.56
7832.71
7832.87
7833.06
7833.25
7833.47
7833.71
7834.01
7832.02
7831.87
7831.9
7831.94
7832
7832.08
7832.17
7832.28
7832.41
7832.56
7832.72
7832.9
7833.1
7833.32
7833.56
7833.86
7831.86
7831.71
7831.74
7831.78
7831.85
7831.92
7832.01
7832.13
7832.25
7832.4
7832.56
7832.75
7832.95
7833.17
7833.41
7833.71
7831.7
7831.55
7831.58
7831.62
7831.68
7831.76
7831.85
7831.96
7832.09
7832.24
7832.4
7832.58
7832.78
7833.01
7833.25
7833.56
7831.54
7831.4
7831.43
7831.47
7831.53
7831.61
7831.7
7831.8
7831.93
7832.07
7832.23
7832.41
7832.61
7832.83
7833.08
7833.4
7831.39
7831.33
7831.36
7831.4
7831.46
7831.53
7831.61
7831.72
7831.84
7831.97
7832.12
7832.3
7832.49
7832.7
7832.94
7833.25
7831.32
7831.3
7831.32
7831.36
7831.41
7831.48
7831.56
7831.66
7831.77
7831.9
7832.04
7832.2
7832.38
7832.58
7832.8
7833.09
7831.29
7831.28
7831.31
7831.34
7831.39
7831.45
7831.52
7831.61
7831.71
7831.83
7831.96
7832.11
7832.27
7832.45
7832.65
7832.91
7831.27
7831.3
7831.32
7831.35
7831.39
7831.45
7831.51
7831.59
7831.68
7831.78
7831.89
7832.02
7832.16
7832.32
7832.49
7832.71
7831.29
7831.34
7831.36
7831.38
7831.42
7831.47
7831.52
7831.59
7831.66
7831.75
7831.84
7831.95
7832.06
7832.19
7832.33
7832.51
7831.33
7831.41
7831.42
7831.45
7831.48
7831.51
7831.56
7831.61
7831.67
7831.74
7831.81
7831.9
7831.98
7832.08
7832.19
7832.31
7831.4
7831.56
7831.57
7831.58
7831.6
7831.63
7831.66
7831.7
7831.73
7831.78
7831.83
7831.88
7831.93
7831.99
7832.06
7832.14
7831.55
7831.63
7831.64
7831.66
7831.67
7831.69
7831.71
7831.74
7831.77
7831.8
7831.83
7831.87
7831.9
7831.93
7831.96
7832.02
7831.63
7831.63
7831.64
7831.66
7831.67
7831.69
7831.71
7831.74
7831.77
7831.8
7831.83
7831.87
7831.9
7831.93
7831.96
7832.02
7831.63
)
;

boundaryField
{
    wireUpstream
    {
        type            calculated;
        value           nonuniform List<scalar> 
16
(
7831.79
7831.79
7831.8
7831.81
7831.82
7831.83
7831.85
7831.86
7831.88
7831.89
7831.9
7831.9
7831.91
7831.9
7831.9
7831.78
)
;
    }
    wireDownstream
    {
        type            calculated;
        value           nonuniform List<scalar> 
16
(
7825.93
7825.92
7825.91
7825.89
7825.88
7825.85
7825.83
7825.81
7825.79
7825.78
7825.8
7825.84
7825.95
7826.16
7826.57
7825.94
)
;
    }
    wireTopContact
    {
        type            calculated;
        value           nonuniform List<scalar> 
122
(
7836.88
7837.03
7837.22
7837.42
7837.66
7837.92
7838.23
7838.57
7838.95
7839.37
7839.85
7840.37
7840.95
7841.6
7842.32
7843.12
7844.02
7845.02
7846.14
7847.39
7848.78
7850.34
7852.07
7853.99
7856.1
7858.42
7860.9
7863.55
7866.26
7868.9
7871.22
7872.79
7872.61
7868.38
7863.3
7857.68
7852.15
7846.92
7842.04
7837.65
7833.76
7830.47
7827.77
7826.89
7826.71
7826.74
7826.86
7827.03
7827.22
7827.42
7827.61
7827.78
7827.93
7828.06
7828.17
7828.26
7828.33
7828.39
7828.42
7828.44
7828.45
7828.45
7828.44
7828.41
7828.38
7828.35
7828.31
7828.26
7828.22
7828.16
7828.11
7828.06
7828
7827.95
7827.89
7827.84
7827.78
7827.73
7827.68
7827.62
7827.57
7827.52
7827.47
7827.42
7827.36
7827.3
7827.24
7827.17
7827.08
7826.97
7826.79
7836.71
7836.55
7836.38
7836.2
7836.02
7835.83
7835.65
7835.47
7835.29
7835.12
7834.95
7834.79
7834.62
7834.47
7834.31
7834.16
7834.01
7833.87
7833.72
7833.56
7833.4
7833.25
7833.09
7832.9
7832.71
7832.51
7832.3
7832.16
7832.08
7832.08
7826.6
)
;
    }
    front
    {
        type            wedge;
    }
    back
    {
        type            wedge;
    }
}


// ************************************************************************* //
