/*--------------------------------*- C++ -*----------------------------------*\
| =========                 |                                                 |
| \\      /  F ield         | foam-extend: Open Source CFD                    |
|  \\    /   O peration     | Version:     4.1-20200408                       |
|   \\  /    A nd           | Web:         http://www.foam-extend.org         |
|    \\/     M anipulation  |                                                 |
\*---------------------------------------------------------------------------*/
FoamFile
{
    version     2.0;
    format      ascii;
    class       volVectorField;
    location    "0.0015000";
    object      U;
}
// * * * * * * * * * * * * * * * * * * * * * * * * * * * * * * * * * * * * * //

dimensions      [0 1 0 0 0 0 0];

internalField   nonuniform List<vector> 
1952
(
(0.00148878 -5.39043e-08 0)
(0.00148884 -5.7662e-08 0)
(0.00148889 -6.15061e-08 0)
(0.00148895 -6.53742e-08 0)
(0.00148901 -6.94083e-08 0)
(0.00148907 -7.353e-08 0)
(0.00148913 -7.79074e-08 0)
(0.0014892 -8.24963e-08 0)
(0.00148927 -8.74373e-08 0)
(0.00148934 -9.27307e-08 0)
(0.00148942 -9.84772e-08 0)
(0.0014895 -1.04708e-07 0)
(0.00148958 -1.1149e-07 0)
(0.00148967 -1.18866e-07 0)
(0.00148977 -1.26872e-07 0)
(0.00148987 -1.35542e-07 0)
(0.00148998 -1.4488e-07 0)
(0.00149009 -1.54885e-07 0)
(0.00149022 -1.65516e-07 0)
(0.00149035 -1.76711e-07 0)
(0.0014905 -1.88356e-07 0)
(0.00149065 -2.00298e-07 0)
(0.00149082 -2.12325e-07 0)
(0.001491 -2.24166e-07 0)
(0.00149119 -2.35485e-07 0)
(0.0014914 -2.45891e-07 0)
(0.00149161 -2.54936e-07 0)
(0.00149183 -2.62147e-07 0)
(0.00149206 -2.6704e-07 0)
(0.0014923 -2.69168e-07 0)
(0.00149254 -2.68159e-07 0)
(0.00149277 -2.63771e-07 0)
(0.001493 -2.55926e-07 0)
(0.00149323 -2.44753e-07 0)
(0.00149344 -2.30571e-07 0)
(0.00149364 -2.13902e-07 0)
(0.00149383 -1.95372e-07 0)
(0.00149399 -1.75726e-07 0)
(0.00149414 -1.55665e-07 0)
(0.00149427 -1.35933e-07 0)
(0.00149438 -1.17088e-07 0)
(0.00149448 -9.96997e-08 0)
(0.00149457 -8.40557e-08 0)
(0.00149464 -7.04685e-08 0)
(0.0014947 -5.89399e-08 0)
(0.00149476 -4.95238e-08 0)
(0.00149481 -4.20243e-08 0)
(0.00149486 -3.63161e-08 0)
(0.00149491 -3.21321e-08 0)
(0.00149495 -2.92693e-08 0)
(0.001495 -2.74799e-08 0)
(0.00149505 -2.65577e-08 0)
(0.0014951 -2.63131e-08 0)
(0.00149516 -2.65753e-08 0)
(0.00149521 -2.72159e-08 0)
(0.00149527 -2.81118e-08 0)
(0.00149533 -2.91831e-08 0)
(0.0014954 -3.03512e-08 0)
(0.00149547 -3.15703e-08 0)
(0.00149554 -3.27959e-08 0)
(0.00149561 -3.40044e-08 0)
(0.00149568 -3.51745e-08 0)
(0.00149576 -3.62965e-08 0)
(0.00149584 -3.73629e-08 0)
(0.00149592 -3.83723e-08 0)
(0.001496 -3.93246e-08 0)
(0.00149609 -4.02227e-08 0)
(0.00149617 -4.107e-08 0)
(0.00149626 -4.18708e-08 0)
(0.00149635 -4.26294e-08 0)
(0.00149644 -4.335e-08 0)
(0.00149653 -4.40362e-08 0)
(0.00149663 -4.46908e-08 0)
(0.00149672 -4.53156e-08 0)
(0.00149682 -4.5911e-08 0)
(0.00149692 -4.6476e-08 0)
(0.00149701 -4.70079e-08 0)
(0.00149711 -4.75016e-08 0)
(0.00149721 -4.79502e-08 0)
(0.00149732 -4.83441e-08 0)
(0.00149742 -4.86712e-08 0)
(0.00149752 -4.89168e-08 0)
(0.00149763 -4.90638e-08 0)
(0.00149773 -4.90935e-08 0)
(0.00149784 -4.89865e-08 0)
(0.00149795 -4.87244e-08 0)
(0.00149806 -4.82925e-08 0)
(0.00149816 -4.76827e-08 0)
(0.00149827 -4.68977e-08 0)
(0.00149838 -4.59558e-08 0)
(0.00149849 -4.48931e-08 0)
(0.00149859 -4.37683e-08 0)
(0.0014987 -4.26595e-08 0)
(0.00148879 -8.78099e-08 0)
(0.00148884 -9.39335e-08 0)
(0.0014889 -1.00195e-07 0)
(0.00148896 -1.06487e-07 0)
(0.00148902 -1.13047e-07 0)
(0.00148908 -1.19744e-07 0)
(0.00148914 -1.26855e-07 0)
(0.00148921 -1.34309e-07 0)
(0.00148928 -1.42331e-07 0)
(0.00148935 -1.50928e-07 0)
(0.00148943 -1.60258e-07 0)
(0.0014895 -1.70377e-07 0)
(0.00148959 -1.81389e-07 0)
(0.00148968 -1.93366e-07 0)
(0.00148977 -2.06368e-07 0)
(0.00148987 -2.2045e-07 0)
(0.00148998 -2.35623e-07 0)
(0.0014901 -2.51884e-07 0)
(0.00149022 -2.69172e-07 0)
(0.00149036 -2.87387e-07 0)
(0.0014905 -3.0635e-07 0)
(0.00149066 -3.25817e-07 0)
(0.00149082 -3.45443e-07 0)
(0.001491 -3.64793e-07 0)
(0.00149119 -3.83322e-07 0)
(0.00149139 -4.0039e-07 0)
(0.00149161 -4.15267e-07 0)
(0.00149183 -4.2717e-07 0)
(0.00149206 -4.35301e-07 0)
(0.00149229 -4.38913e-07 0)
(0.00149253 -4.37382e-07 0)
(0.00149277 -4.30297e-07 0)
(0.001493 -4.17519e-07 0)
(0.00149322 -3.99252e-07 0)
(0.00149344 -3.76026e-07 0)
(0.00149364 -3.48703e-07 0)
(0.00149382 -3.18327e-07 0)
(0.00149399 -2.8613e-07 0)
(0.00149413 -2.53272e-07 0)
(0.00149426 -2.20981e-07 0)
(0.00149438 -1.90172e-07 0)
(0.00149447 -1.61784e-07 0)
(0.00149456 -1.36282e-07 0)
(0.00149463 -1.14174e-07 0)
(0.00149469 -9.54531e-08 0)
(0.00149475 -8.01992e-08 0)
(0.0014948 -6.80797e-08 0)
(0.00149485 -5.88819e-08 0)
(0.0014949 -5.21621e-08 0)
(0.00149494 -4.7584e-08 0)
(0.00149499 -4.47421e-08 0)
(0.00149504 -4.32976e-08 0)
(0.00149509 -4.29438e-08 0)
(0.00149515 -4.34019e-08 0)
(0.00149521 -4.44659e-08 0)
(0.00149526 -4.59359e-08 0)
(0.00149533 -4.76846e-08 0)
(0.00149539 -4.95851e-08 0)
(0.00149546 -5.15643e-08 0)
(0.00149553 -5.35512e-08 0)
(0.0014956 -5.55084e-08 0)
(0.00149568 -5.74019e-08 0)
(0.00149576 -5.92165e-08 0)
(0.00149584 -6.09408e-08 0)
(0.00149592 -6.25724e-08 0)
(0.001496 -6.41119e-08 0)
(0.00149609 -6.55637e-08 0)
(0.00149617 -6.69336e-08 0)
(0.00149626 -6.82287e-08 0)
(0.00149635 -6.9456e-08 0)
(0.00149644 -7.06224e-08 0)
(0.00149653 -7.17336e-08 0)
(0.00149663 -7.27944e-08 0)
(0.00149672 -7.38075e-08 0)
(0.00149682 -7.47739e-08 0)
(0.00149691 -7.56919e-08 0)
(0.00149701 -7.6557e-08 0)
(0.00149711 -7.73615e-08 0)
(0.00149721 -7.8094e-08 0)
(0.00149731 -7.87392e-08 0)
(0.00149742 -7.92773e-08 0)
(0.00149752 -7.96846e-08 0)
(0.00149763 -7.99333e-08 0)
(0.00149773 -7.99927e-08 0)
(0.00149784 -7.98304e-08 0)
(0.00149795 -7.9416e-08 0)
(0.00149805 -7.87236e-08 0)
(0.00149816 -7.7739e-08 0)
(0.00149827 -7.64642e-08 0)
(0.00149838 -7.49273e-08 0)
(0.00149848 -7.31856e-08 0)
(0.00149859 -7.13326e-08 0)
(0.0014987 -6.9494e-08 0)
(0.0014888 -1.22125e-07 0)
(0.00148885 -1.30651e-07 0)
(0.00148891 -1.3937e-07 0)
(0.00148896 -1.48107e-07 0)
(0.00148902 -1.57221e-07 0)
(0.00148909 -1.6651e-07 0)
(0.00148915 -1.76375e-07 0)
(0.00148922 -1.86709e-07 0)
(0.00148929 -1.97832e-07 0)
(0.00148936 -2.09747e-07 0)
(0.00148943 -2.22677e-07 0)
(0.00148951 -2.36697e-07 0)
(0.0014896 -2.51952e-07 0)
(0.00148969 -2.68544e-07 0)
(0.00148978 -2.86557e-07 0)
(0.00148988 -3.06068e-07 0)
(0.00148999 -3.27096e-07 0)
(0.0014901 -3.49644e-07 0)
(0.00149023 -3.73631e-07 0)
(0.00149036 -3.98926e-07 0)
(0.0014905 -4.25289e-07 0)
(0.00149066 -4.52389e-07 0)
(0.00149082 -4.79757e-07 0)
(0.001491 -5.06794e-07 0)
(0.00149119 -5.32747e-07 0)
(0.00149139 -5.56724e-07 0)
(0.0014916 -5.77704e-07 0)
(0.00149182 -5.94578e-07 0)
(0.00149205 -6.06208e-07 0)
(0.00149229 -6.11521e-07 0)
(0.00149252 -6.0961e-07 0)
(0.00149276 -5.99861e-07 0)
(0.00149299 -5.82058e-07 0)
(0.00149322 -5.56476e-07 0)
(0.00149343 -5.23872e-07 0)
(0.00149363 -4.85482e-07 0)
(0.00149381 -4.42805e-07 0)
(0.00149398 -3.976e-07 0)
(0.00149412 -3.51524e-07 0)
(0.00149425 -3.06313e-07 0)
(0.00149437 -2.63257e-07 0)
(0.00149446 -2.23676e-07 0)
(0.00149454 -1.8821e-07 0)
(0.00149462 -1.57562e-07 0)
(0.00149468 -1.31695e-07 0)
(0.00149474 -1.10702e-07 0)
(0.00149479 -9.40869e-08 0)
(0.00149484 -8.15345e-08 0)
(0.00149488 -7.24089e-08 0)
(0.00149493 -6.62305e-08 0)
(0.00149498 -6.24314e-08 0)
(0.00149503 -6.05373e-08 0)
(0.00149508 -6.01262e-08 0)
(0.00149514 -6.0812e-08 0)
(0.0014952 -6.23154e-08 0)
(0.00149526 -6.4362e-08 0)
(0.00149532 -6.67809e-08 0)
(0.00149539 -6.93996e-08 0)
(0.00149546 -7.21204e-08 0)
(0.00149553 -7.48476e-08 0)
(0.0014956 -7.75315e-08 0)
(0.00149568 -8.01268e-08 0)
(0.00149575 -8.26136e-08 0)
(0.00149583 -8.49766e-08 0)
(0.00149591 -8.72136e-08 0)
(0.001496 -8.93251e-08 0)
(0.00149608 -9.13177e-08 0)
(0.00149617 -9.31993e-08 0)
(0.00149626 -9.49796e-08 0)
(0.00149635 -9.66683e-08 0)
(0.00149644 -9.82746e-08 0)
(0.00149653 -9.98067e-08 0)
(0.00149662 -1.01271e-07 0)
(0.00149672 -1.02671e-07 0)
(0.00149681 -1.04008e-07 0)
(0.00149691 -1.0528e-07 0)
(0.00149701 -1.06481e-07 0)
(0.00149711 -1.07601e-07 0)
(0.00149721 -1.08624e-07 0)
(0.00149731 -1.09529e-07 0)
(0.00149741 -1.10289e-07 0)
(0.00149752 -1.10871e-07 0)
(0.00149762 -1.11236e-07 0)
(0.00149773 -1.11342e-07 0)
(0.00149784 -1.11142e-07 0)
(0.00149794 -1.10592e-07 0)
(0.00149805 -1.09654e-07 0)
(0.00149816 -1.08303e-07 0)
(0.00149827 -1.06539e-07 0)
(0.00149837 -1.04396e-07 0)
(0.00149848 -1.01951e-07 0)
(0.00149859 -9.93385e-08 0)
(0.00149869 -9.67429e-08 0)
(0.00148881 -1.56692e-07 0)
(0.00148886 -1.67639e-07 0)
(0.00148892 -1.78823e-07 0)
(0.00148897 -1.89999e-07 0)
(0.00148903 -2.01646e-07 0)
(0.0014891 -2.13506e-07 0)
(0.00148916 -2.26089e-07 0)
(0.00148923 -2.39273e-07 0)
(0.0014893 -2.53452e-07 0)
(0.00148937 -2.68649e-07 0)
(0.00148945 -2.85128e-07 0)
(0.00148953 -3.03005e-07 0)
(0.00148961 -3.2245e-07 0)
(0.0014897 -3.43604e-07 0)
(0.00148979 -3.6657e-07 0)
(0.00148989 -3.91457e-07 0)
(0.00149 -4.18289e-07 0)
(0.00149011 -4.47081e-07 0)
(0.00149023 -4.77738e-07 0)
(0.00149037 -5.10107e-07 0)
(0.00149051 -5.43895e-07 0)
(0.00149066 -5.78693e-07 0)
(0.00149082 -6.13917e-07 0)
(0.001491 -6.48812e-07 0)
(0.00149119 -6.82422e-07 0)
(0.00149138 -7.13605e-07 0)
(0.00149159 -7.41035e-07 0)
(0.00149181 -7.63264e-07 0)
(0.00149204 -7.78783e-07 0)
(0.00149228 -7.86154e-07 0)
(0.00149251 -7.84137e-07 0)
(0.00149275 -7.71875e-07 0)
(0.00149298 -7.4904e-07 0)
(0.00149321 -7.15967e-07 0)
(0.00149342 -6.7366e-07 0)
(0.00149362 -6.23768e-07 0)
(0.0014938 -5.68298e-07 0)
(0.00149397 -5.09587e-07 0)
(0.00149411 -4.49827e-07 0)
(0.00149424 -3.91297e-07 0)
(0.00149435 -3.35683e-07 0)
(0.00149444 -2.84702e-07 0)
(0.00149453 -2.39166e-07 0)
(0.0014946 -1.99975e-07 0)
(0.00149466 -1.67036e-07 0)
(0.00149471 -1.40437e-07 0)
(0.00149477 -1.1949e-07 0)
(0.00149482 -1.03757e-07 0)
(0.00149486 -9.23912e-08 0)
(0.00149491 -8.47603e-08 0)
(0.00149496 -8.01297e-08 0)
(0.00149501 -7.78853e-08 0)
(0.00149507 -7.74938e-08 0)
(0.00149512 -7.84614e-08 0)
(0.00149518 -8.04412e-08 0)
(0.00149525 -8.30858e-08 0)
(0.00149531 -8.61851e-08 0)
(0.00149538 -8.95228e-08 0)
(0.00149545 -9.29795e-08 0)
(0.00149552 -9.6437e-08 0)
(0.00149559 -9.98343e-08 0)
(0.00149567 -1.03117e-07 0)
(0.00149575 -1.0626e-07 0)
(0.00149583 -1.09246e-07 0)
(0.00149591 -1.12073e-07 0)
(0.00149599 -1.14742e-07 0)
(0.00149608 -1.17261e-07 0)
(0.00149616 -1.19642e-07 0)
(0.00149625 -1.21896e-07 0)
(0.00149634 -1.24036e-07 0)
(0.00149643 -1.26074e-07 0)
(0.00149652 -1.28019e-07 0)
(0.00149662 -1.2988e-07 0)
(0.00149671 -1.31662e-07 0)
(0.00149681 -1.33367e-07 0)
(0.00149691 -1.34992e-07 0)
(0.001497 -1.36529e-07 0)
(0.0014971 -1.37967e-07 0)
(0.0014972 -1.39286e-07 0)
(0.00149731 -1.40459e-07 0)
(0.00149741 -1.41453e-07 0)
(0.00149751 -1.42225e-07 0)
(0.00149762 -1.42727e-07 0)
(0.00149772 -1.42903e-07 0)
(0.00149783 -1.42691e-07 0)
(0.00149794 -1.42033e-07 0)
(0.00149805 -1.40873e-07 0)
(0.00149815 -1.39175e-07 0)
(0.00149826 -1.3693e-07 0)
(0.00149837 -1.34174e-07 0)
(0.00149848 -1.30999e-07 0)
(0.00149859 -1.27575e-07 0)
(0.00149869 -1.24143e-07 0)
(0.00148882 -1.91203e-07 0)
(0.00148887 -2.04588e-07 0)
(0.00148893 -2.18268e-07 0)
(0.00148899 -2.31872e-07 0)
(0.00148905 -2.46062e-07 0)
(0.00148911 -2.60472e-07 0)
(0.00148918 -2.75767e-07 0)
(0.00148924 -2.91777e-07 0)
(0.00148931 -3.08993e-07 0)
(0.00148938 -3.27437e-07 0)
(0.00148946 -3.47431e-07 0)
(0.00148954 -3.69114e-07 0)
(0.00148962 -3.92692e-07 0)
(0.00148971 -4.18338e-07 0)
(0.00148981 -4.46181e-07 0)
(0.0014899 -4.76356e-07 0)
(0.00149001 -5.08903e-07 0)
(0.00149012 -5.43851e-07 0)
(0.00149024 -5.811e-07 0)
(0.00149037 -6.20482e-07 0)
(0.00149051 -6.61662e-07 0)
(0.00149066 -7.04167e-07 0)
(0.00149083 -7.4731e-07 0)
(0.001491 -7.90193e-07 0)
(0.00149118 -8.31665e-07 0)
(0.00149138 -8.70334e-07 0)
(0.00149159 -9.04567e-07 0)
(0.0014918 -9.32552e-07 0)
(0.00149203 -9.52378e-07 0)
(0.00149226 -9.62188e-07 0)
(0.0014925 -9.60354e-07 0)
(0.00149274 -9.45712e-07 0)
(0.00149297 -9.1778e-07 0)
(0.00149319 -8.76939e-07 0)
(0.00149341 -8.24477e-07 0)
(0.00149361 -7.62517e-07 0)
(0.00149379 -6.93654e-07 0)
(0.00149395 -6.20863e-07 0)
(0.00149409 -5.46932e-07 0)
(0.00149422 -4.74716e-07 0)
(0.00149433 -4.06318e-07 0)
(0.00149442 -3.43866e-07 0)
(0.0014945 -2.88329e-07 0)
(0.00149457 -2.40799e-07 0)
(0.00149463 -2.01085e-07 0)
(0.00149469 -1.69237e-07 0)
(0.00149474 -1.44326e-07 0)
(0.00149479 -1.25762e-07 0)
(0.00149484 -1.12465e-07 0)
(0.00149489 -1.03634e-07 0)
(0.00149494 -9.83675e-08 0)
(0.001495 -9.591e-08 0)
(0.00149505 -9.56263e-08 0)
(0.00149511 -9.6919e-08 0)
(0.00149517 -9.93849e-08 0)
(0.00149523 -1.02609e-07 0)
(0.0014953 -1.06352e-07 0)
(0.00149537 -1.10359e-07 0)
(0.00149544 -1.14494e-07 0)
(0.00149551 -1.18621e-07 0)
(0.00149558 -1.2267e-07 0)
(0.00149566 -1.26579e-07 0)
(0.00149574 -1.30321e-07 0)
(0.00149582 -1.33877e-07 0)
(0.0014959 -1.37246e-07 0)
(0.00149599 -1.40428e-07 0)
(0.00149607 -1.43436e-07 0)
(0.00149616 -1.46281e-07 0)
(0.00149625 -1.48979e-07 0)
(0.00149634 -1.51544e-07 0)
(0.00149643 -1.53989e-07 0)
(0.00149652 -1.56329e-07 0)
(0.00149661 -1.5857e-07 0)
(0.00149671 -1.60721e-07 0)
(0.0014968 -1.62783e-07 0)
(0.0014969 -1.64753e-07 0)
(0.001497 -1.66623e-07 0)
(0.0014971 -1.68378e-07 0)
(0.0014972 -1.69996e-07 0)
(0.0014973 -1.71445e-07 0)
(0.0014974 -1.72685e-07 0)
(0.00149751 -1.73666e-07 0)
(0.00149761 -1.74329e-07 0)
(0.00149772 -1.74603e-07 0)
(0.00149783 -1.74414e-07 0)
(0.00149793 -1.73683e-07 0)
(0.00149804 -1.72338e-07 0)
(0.00149815 -1.70324e-07 0)
(0.00149826 -1.67616e-07 0)
(0.00149837 -1.64246e-07 0)
(0.00149847 -1.60317e-07 0)
(0.00149858 -1.56034e-07 0)
(0.00149869 -1.51707e-07 0)
(0.00148884 -2.25995e-07 0)
(0.00148889 -2.41834e-07 0)
(0.00148895 -2.58004e-07 0)
(0.00148901 -2.74008e-07 0)
(0.00148907 -2.90681e-07 0)
(0.00148913 -3.07592e-07 0)
(0.00148919 -3.25516e-07 0)
(0.00148926 -3.44291e-07 0)
(0.00148933 -3.64453e-07 0)
(0.0014894 -3.86074e-07 0)
(0.00148948 -4.09485e-07 0)
(0.00148956 -4.34887e-07 0)
(0.00148964 -4.62489e-07 0)
(0.00148973 -4.92522e-07 0)
(0.00148982 -5.2512e-07 0)
(0.00148992 -5.60464e-07 0)
(0.00149003 -5.98603e-07 0)
(0.00149014 -6.39591e-07 0)
(0.00149026 -6.83329e-07 0)
(0.00149039 -7.29648e-07 0)
(0.00149052 -7.78184e-07 0)
(0.00149067 -8.28417e-07 0)
(0.00149083 -8.79574e-07 0)
(0.001491 -9.30631e-07 0)
(0.00149118 -9.80257e-07 0)
(0.00149137 -1.02682e-06 0)
(0.00149158 -1.06837e-06 0)
(0.00149179 -1.10272e-06 0)
(0.00149202 -1.12751e-06 0)
(0.00149225 -1.1404e-06 0)
(0.00149248 -1.13929e-06 0)
(0.00149272 -1.12261e-06 0)
(0.00149295 -1.08966e-06 0)
(0.00149318 -1.04084e-06 0)
(0.00149339 -9.77746e-07 0)
(0.00149359 -9.03066e-07 0)
(0.00149377 -8.20072e-07 0)
(0.00149393 -7.32463e-07 0)
(0.00149407 -6.43684e-07 0)
(0.00149419 -5.57214e-07 0)
(0.0014943 -4.75598e-07 0)
(0.00149439 -4.014e-07 0)
(0.00149447 -3.35749e-07 0)
(0.00149454 -2.79925e-07 0)
(0.0014946 -2.33603e-07 0)
(0.00149466 -1.96757e-07 0)
(0.00149471 -1.68164e-07 0)
(0.00149476 -1.47051e-07 0)
(0.00149481 -1.32079e-07 0)
(0.00149486 -1.22267e-07 0)
(0.00149492 -1.16543e-07 0)
(0.00149497 -1.14008e-07 0)
(0.00149503 -1.13933e-07 0)
(0.00149509 -1.15617e-07 0)
(0.00149515 -1.18612e-07 0)
(0.00149522 -1.22437e-07 0)
(0.00149528 -1.26829e-07 0)
(0.00149535 -1.315e-07 0)
(0.00149542 -1.36299e-07 0)
(0.0014955 -1.41075e-07 0)
(0.00149557 -1.45753e-07 0)
(0.00149565 -1.50265e-07 0)
(0.00149573 -1.54582e-07 0)
(0.00149581 -1.58684e-07 0)
(0.0014959 -1.62571e-07 0)
(0.00149598 -1.66246e-07 0)
(0.00149607 -1.69722e-07 0)
(0.00149615 -1.73014e-07 0)
(0.00149624 -1.76139e-07 0)
(0.00149633 -1.79114e-07 0)
(0.00149642 -1.81955e-07 0)
(0.00149651 -1.84677e-07 0)
(0.00149661 -1.8729e-07 0)
(0.0014967 -1.89802e-07 0)
(0.0014968 -1.92215e-07 0)
(0.00149689 -1.94526e-07 0)
(0.00149699 -1.96728e-07 0)
(0.00149709 -1.98802e-07 0)
(0.00149719 -2.00725e-07 0)
(0.00149729 -2.0246e-07 0)
(0.0014974 -2.03962e-07 0)
(0.0014975 -2.05174e-07 0)
(0.00149761 -2.06025e-07 0)
(0.00149771 -2.06435e-07 0)
(0.00149782 -2.0631e-07 0)
(0.00149793 -2.05554e-07 0)
(0.00149803 -2.04071e-07 0)
(0.00149814 -2.01783e-07 0)
(0.00149825 -1.98642e-07 0)
(0.00149836 -1.94664e-07 0)
(0.00149847 -1.89951e-07 0)
(0.00149858 -1.84735e-07 0)
(0.00149868 -1.79396e-07 0)
(0.00148886 -2.60539e-07 0)
(0.00148891 -2.78852e-07 0)
(0.00148897 -2.97565e-07 0)
(0.00148902 -3.15955e-07 0)
(0.00148909 -3.35142e-07 0)
(0.00148915 -3.54535e-07 0)
(0.00148921 -3.75105e-07 0)
(0.00148928 -3.96626e-07 0)
(0.00148935 -4.19732e-07 0)
(0.00148942 -4.44495e-07 0)
(0.0014895 -4.71295e-07 0)
(0.00148958 -5.00356e-07 0)
(0.00148966 -5.31918e-07 0)
(0.00148975 -5.66244e-07 0)
(0.00148984 -6.03493e-07 0)
(0.00148994 -6.43879e-07 0)
(0.00149005 -6.87474e-07 0)
(0.00149016 -7.34358e-07 0)
(0.00149027 -7.84444e-07 0)
(0.0014904 -8.3757e-07 0)
(0.00149054 -8.93362e-07 0)
(0.00149068 -9.51265e-07 0)
(0.00149084 -1.01044e-06 0)
(0.001491 -1.06977e-06 0)
(0.00149118 -1.12774e-06 0)
(0.00149137 -1.18251e-06 0)
(0.00149157 -1.23181e-06 0)
(0.00149178 -1.27305e-06 0)
(0.001492 -1.30339e-06 0)
(0.00149223 -1.31992e-06 0)
(0.00149246 -1.31998e-06 0)
(0.0014927 -1.30149e-06 0)
(0.00149293 -1.26344e-06 0)
(0.00149316 -1.20618e-06 0)
(0.00149337 -1.13174e-06 0)
(0.00149356 -1.04348e-06 0)
(0.00149374 -9.45499e-07 0)
(0.0014939 -8.42305e-07 0)
(0.00149404 -7.3808e-07 0)
(0.00149416 -6.36958e-07 0)
(0.00149427 -5.41946e-07 0)
(0.00149436 -4.56047e-07 0)
(0.00149444 -3.80531e-07 0)
(0.0014945 -3.16855e-07 0)
(0.00149456 -2.64487e-07 0)
(0.00149462 -2.2326e-07 0)
(0.00149467 -1.91578e-07 0)
(0.00149473 -1.68437e-07 0)
(0.00149478 -1.5222e-07 0)
(0.00149483 -1.41749e-07 0)
(0.00149489 -1.35796e-07 0)
(0.00149495 -1.33319e-07 0)
(0.00149501 -1.33518e-07 0)
(0.00149507 -1.35599e-07 0)
(0.00149513 -1.39086e-07 0)
(0.0014952 -1.43444e-07 0)
(0.00149527 -1.48399e-07 0)
(0.00149534 -1.53635e-07 0)
(0.00149541 -1.58996e-07 0)
(0.00149549 -1.64321e-07 0)
(0.00149556 -1.6953e-07 0)
(0.00149564 -1.74553e-07 0)
(0.00149572 -1.7936e-07 0)
(0.0014958 -1.83932e-07 0)
(0.00149589 -1.88268e-07 0)
(0.00149597 -1.92374e-07 0)
(0.00149606 -1.96264e-07 0)
(0.00149614 -1.99955e-07 0)
(0.00149623 -2.03466e-07 0)
(0.00149632 -2.06815e-07 0)
(0.00149641 -2.1002e-07 0)
(0.00149651 -2.13098e-07 0)
(0.0014966 -2.16059e-07 0)
(0.00149669 -2.18912e-07 0)
(0.00149679 -2.21661e-07 0)
(0.00149689 -2.24302e-07 0)
(0.00149699 -2.26827e-07 0)
(0.00149708 -2.29216e-07 0)
(0.00149719 -2.31444e-07 0)
(0.00149729 -2.33471e-07 0)
(0.00149739 -2.35248e-07 0)
(0.00149749 -2.3671e-07 0)
(0.0014976 -2.37779e-07 0)
(0.0014977 -2.3836e-07 0)
(0.00149781 -2.38346e-07 0)
(0.00149792 -2.37618e-07 0)
(0.00149803 -2.36055e-07 0)
(0.00149814 -2.33549e-07 0)
(0.00149824 -2.30017e-07 0)
(0.00149835 -2.25448e-07 0)
(0.00149846 -2.19929e-07 0)
(0.00149857 -2.13706e-07 0)
(0.00149868 -2.07237e-07 0)
(0.00148888 -2.95527e-07 0)
(0.00148893 -3.16329e-07 0)
(0.00148899 -3.37565e-07 0)
(0.00148905 -3.58294e-07 0)
(0.00148911 -3.79885e-07 0)
(0.00148917 -4.01698e-07 0)
(0.00148924 -4.24782e-07 0)
(0.0014893 -4.48977e-07 0)
(0.00148937 -4.74903e-07 0)
(0.00148945 -5.02723e-07 0)
(0.00148952 -5.32785e-07 0)
(0.0014896 -5.65396e-07 0)
(0.00148969 -6.00777e-07 0)
(0.00148977 -6.39256e-07 0)
(0.00148987 -6.80994e-07 0)
(0.00148996 -7.26254e-07 0)
(0.00149007 -7.75124e-07 0)
(0.00149018 -8.27723e-07 0)
(0.00149029 -8.83982e-07 0)
(0.00149042 -9.43761e-07 0)
(0.00149055 -1.00669e-06 0)
(0.00149069 -1.07221e-06 0)
(0.00149085 -1.13945e-06 0)
(0.00149101 -1.2072e-06 0)
(0.00149118 -1.27383e-06 0)
(0.00149136 -1.33728e-06 0)
(0.00149156 -1.395e-06 0)
(0.00149177 -1.44398e-06 0)
(0.00149199 -1.48085e-06 0)
(0.00149221 -1.50206e-06 0)
(0.00149244 -1.50423e-06 0)
(0.00149268 -1.48462e-06 0)
(0.00149291 -1.44172e-06 0)
(0.00149313 -1.37577e-06 0)
(0.00149334 -1.2893e-06 0)
(0.00149354 -1.18652e-06 0)
(0.00149371 -1.0725e-06 0)
(0.00149387 -9.52693e-07 0)
(0.00149401 -8.32097e-07 0)
(0.00149412 -7.15544e-07 0)
(0.00149423 -6.06528e-07 0)
(0.00149431 -5.08535e-07 0)
(0.00149439 -4.22979e-07 0)
(0.00149446 -3.51519e-07 0)
(0.00149452 -2.93356e-07 0)
(0.00149458 -2.48107e-07 0)
(0.00149463 -2.13718e-07 0)
(0.00149469 -1.88914e-07 0)
(0.00149474 -1.71769e-07 0)
(0.0014948 -1.60899e-07 0)
(0.00149486 -1.54925e-07 0)
(0.00149492 -1.5266e-07 0)
(0.00149498 -1.53247e-07 0)
(0.00149504 -1.55802e-07 0)
(0.00149511 -1.59832e-07 0)
(0.00149518 -1.64749e-07 0)
(0.00149525 -1.70277e-07 0)
(0.00149532 -1.76074e-07 0)
(0.0014954 -1.81984e-07 0)
(0.00149547 -1.87838e-07 0)
(0.00149555 -1.93553e-07 0)
(0.00149563 -1.99062e-07 0)
(0.00149571 -2.04332e-07 0)
(0.00149579 -2.09347e-07 0)
(0.00149588 -2.14106e-07 0)
(0.00149596 -2.1862e-07 0)
(0.00149605 -2.22902e-07 0)
(0.00149614 -2.26971e-07 0)
(0.00149623 -2.30849e-07 0)
(0.00149632 -2.34556e-07 0)
(0.00149641 -2.38111e-07 0)
(0.0014965 -2.41531e-07 0)
(0.00149659 -2.44829e-07 0)
(0.00149669 -2.48014e-07 0)
(0.00149678 -2.5109e-07 0)
(0.00149688 -2.54055e-07 0)
(0.00149698 -2.56899e-07 0)
(0.00149708 -2.59604e-07 0)
(0.00149718 -2.6214e-07 0)
(0.00149728 -2.64469e-07 0)
(0.00149738 -2.66536e-07 0)
(0.00149748 -2.68272e-07 0)
(0.00149759 -2.69592e-07 0)
(0.00149769 -2.70389e-07 0)
(0.0014978 -2.70542e-07 0)
(0.00149791 -2.6991e-07 0)
(0.00149802 -2.68343e-07 0)
(0.00149813 -2.65696e-07 0)
(0.00149824 -2.61843e-07 0)
(0.00149835 -2.56725e-07 0)
(0.00149846 -2.50388e-07 0)
(0.00149856 -2.43073e-07 0)
(0.00149867 -2.35306e-07 0)
(0.0014889 -3.3005e-07 0)
(0.00148896 -3.53362e-07 0)
(0.00148901 -3.77218e-07 0)
(0.00148907 -4.0028e-07 0)
(0.00148913 -4.24355e-07 0)
(0.0014892 -4.48595e-07 0)
(0.00148926 -4.74267e-07 0)
(0.00148933 -5.01147e-07 0)
(0.0014894 -5.2994e-07 0)
(0.00148947 -5.60812e-07 0)
(0.00148955 -5.94142e-07 0)
(0.00148963 -6.30262e-07 0)
(0.00148971 -6.69413e-07 0)
(0.0014898 -7.11957e-07 0)
(0.0014899 -7.58075e-07 0)
(0.00148999 -8.08066e-07 0)
(0.0014901 -8.62047e-07 0)
(0.0014902 -9.20169e-07 0)
(0.00149032 -9.82398e-07 0)
(0.00149044 -1.04862e-06 0)
(0.00149057 -1.11849e-06 0)
(0.00149071 -1.19146e-06 0)
(0.00149086 -1.26663e-06 0)
(0.00149102 -1.34276e-06 0)
(0.00149118 -1.41812e-06 0)
(0.00149136 -1.49048e-06 0)
(0.00149155 -1.55699e-06 0)
(0.00149176 -1.61426e-06 0)
(0.00149197 -1.65835e-06 0)
(0.00149219 -1.68496e-06 0)
(0.00149242 -1.6899e-06 0)
(0.00149265 -1.66951e-06 0)
(0.00149288 -1.62165e-06 0)
(0.0014931 -1.54631e-06 0)
(0.00149331 -1.44674e-06 0)
(0.0014935 -1.32826e-06 0)
(0.00149367 -1.19715e-06 0)
(0.00149383 -1.05991e-06 0)
(0.00149396 -9.22417e-07 0)
(0.00149408 -7.90191e-07 0)
(0.00149418 -6.6721e-07 0)
(0.00149426 -5.57427e-07 0)
(0.00149434 -4.62384e-07 0)
(0.00149441 -3.83935e-07 0)
(0.00149447 -3.2091e-07 0)
(0.00149453 -2.72567e-07 0)
(0.00149458 -2.36282e-07 0)
(0.00149464 -2.10453e-07 0)
(0.0014947 -1.92845e-07 0)
(0.00149476 -1.81874e-07 0)
(0.00149482 -1.76035e-07 0)
(0.00149489 -1.74024e-07 0)
(0.00149495 -1.74959e-07 0)
(0.00149502 -1.77885e-07 0)
(0.00149509 -1.82318e-07 0)
(0.00149516 -1.87634e-07 0)
(0.00149523 -1.93565e-07 0)
(0.00149531 -1.99757e-07 0)
(0.00149538 -2.06056e-07 0)
(0.00149546 -2.1229e-07 0)
(0.00149554 -2.18376e-07 0)
(0.00149562 -2.24249e-07 0)
(0.0014957 -2.29873e-07 0)
(0.00149578 -2.35237e-07 0)
(0.00149587 -2.40337e-07 0)
(0.00149595 -2.45186e-07 0)
(0.00149604 -2.49797e-07 0)
(0.00149613 -2.54192e-07 0)
(0.00149622 -2.58391e-07 0)
(0.00149631 -2.62415e-07 0)
(0.0014964 -2.66285e-07 0)
(0.00149649 -2.70018e-07 0)
(0.00149658 -2.73627e-07 0)
(0.00149668 -2.77122e-07 0)
(0.00149677 -2.80507e-07 0)
(0.00149687 -2.8378e-07 0)
(0.00149697 -2.86932e-07 0)
(0.00149707 -2.89942e-07 0)
(0.00149717 -2.92783e-07 0)
(0.00149727 -2.95414e-07 0)
(0.00149737 -2.97778e-07 0)
(0.00149747 -2.99803e-07 0)
(0.00149758 -3.01396e-07 0)
(0.00149768 -3.02446e-07 0)
(0.00149779 -3.02814e-07 0)
(0.0014979 -3.02341e-07 0)
(0.00149801 -3.00847e-07 0)
(0.00149812 -2.98144e-07 0)
(0.00149823 -2.9405e-07 0)
(0.00149834 -2.88441e-07 0)
(0.00149845 -2.81293e-07 0)
(0.00149856 -2.72802e-07 0)
(0.00149866 -2.63542e-07 0)
(0.00148893 -3.6523e-07 0)
(0.00148898 -3.91051e-07 0)
(0.00148904 -4.17464e-07 0)
(0.0014891 -4.42795e-07 0)
(0.00148916 -4.69171e-07 0)
(0.00148922 -4.95769e-07 0)
(0.00148929 -5.23854e-07 0)
(0.00148936 -5.53352e-07 0)
(0.00148943 -5.84871e-07 0)
(0.0014895 -6.18712e-07 0)
(0.00148958 -6.55177e-07 0)
(0.00148966 -6.94695e-07 0)
(0.00148975 -7.37469e-07 0)
(0.00148983 -7.83924e-07 0)
(0.00148993 -8.3424e-07 0)
(0.00149002 -8.88765e-07 0)
(0.00149013 -9.47634e-07 0)
(0.00149024 -1.01105e-06 0)
(0.00149035 -1.079e-06 0)
(0.00149047 -1.15143e-06 0)
(0.0014906 -1.22803e-06 0)
(0.00149073 -1.30827e-06 0)
(0.00149088 -1.3913e-06 0)
(0.00149103 -1.47586e-06 0)
(0.00149119 -1.56017e-06 0)
(0.00149137 -1.64187e-06 0)
(0.00149155 -1.71792e-06 0)
(0.00149175 -1.78452e-06 0)
(0.00149195 -1.83716e-06 0)
(0.00149217 -1.87073e-06 0)
(0.00149239 -1.87998e-06 0)
(0.00149261 -1.86008e-06 0)
(0.00149284 -1.80788e-06 0)
(0.00149306 -1.72278e-06 0)
(0.00149326 -1.60909e-06 0)
(0.00149345 -1.47361e-06 0)
(0.00149362 -1.32403e-06 0)
(0.00149377 -1.16808e-06 0)
(0.0014939 -1.01255e-06 0)
(0.00149402 -8.63673e-07 0)
(0.00149412 -7.25922e-07 0)
(0.0014942 -6.03775e-07 0)
(0.00149428 -4.98947e-07 0)
(0.00149434 -4.13595e-07 0)
(0.00149441 -3.46076e-07 0)
(0.00149447 -2.95122e-07 0)
(0.00149453 -2.57405e-07 0)
(0.00149459 -2.30951e-07 0)
(0.00149466 -2.1321e-07 0)
(0.00149472 -2.02394e-07 0)
(0.00149479 -1.96896e-07 0)
(0.00149485 -1.95291e-07 0)
(0.00149492 -1.96692e-07 0)
(0.00149499 -2.00072e-07 0)
(0.00149506 -2.04969e-07 0)
(0.00149514 -2.10722e-07 0)
(0.00149521 -2.17078e-07 0)
(0.00149529 -2.23674e-07 0)
(0.00149537 -2.30358e-07 0)
(0.00149545 -2.36962e-07 0)
(0.00149553 -2.43404e-07 0)
(0.00149561 -2.4962e-07 0)
(0.00149569 -2.55578e-07 0)
(0.00149577 -2.61267e-07 0)
(0.00149586 -2.66687e-07 0)
(0.00149594 -2.71849e-07 0)
(0.00149603 -2.7677e-07 0)
(0.00149612 -2.81472e-07 0)
(0.00149621 -2.85974e-07 0)
(0.0014963 -2.90301e-07 0)
(0.00149639 -2.94472e-07 0)
(0.00149648 -2.98504e-07 0)
(0.00149657 -3.02413e-07 0)
(0.00149667 -3.06207e-07 0)
(0.00149676 -3.09892e-07 0)
(0.00149686 -3.13465e-07 0)
(0.00149696 -3.16917e-07 0)
(0.00149706 -3.2023e-07 0)
(0.00149716 -3.23375e-07 0)
(0.00149726 -3.26311e-07 0)
(0.00149736 -3.28982e-07 0)
(0.00149746 -3.31313e-07 0)
(0.00149757 -3.33211e-07 0)
(0.00149767 -3.34555e-07 0)
(0.00149778 -3.352e-07 0)
(0.00149789 -3.34967e-07 0)
(0.00149799 -3.33649e-07 0)
(0.0014981 -3.31013e-07 0)
(0.00149821 -3.2681e-07 0)
(0.00149832 -3.20826e-07 0)
(0.00149844 -3.12924e-07 0)
(0.00149855 -3.03195e-07 0)
(0.00149866 -2.92213e-07 0)
(0.00148896 -3.99674e-07 0)
(0.00148901 -4.2801e-07 0)
(0.00148907 -4.57142e-07 0)
(0.00148913 -4.84773e-07 0)
(0.00148919 -5.13617e-07 0)
(0.00148925 -5.42647e-07 0)
(0.00148932 -5.73315e-07 0)
(0.00148939 -6.05509e-07 0)
(0.00148946 -6.3988e-07 0)
(0.00148953 -6.76744e-07 0)
(0.00148961 -7.16411e-07 0)
(0.00148969 -7.59333e-07 0)
(0.00148978 -8.05726e-07 0)
(0.00148987 -8.56037e-07 0)
(0.00148996 -9.1047e-07 0)
(0.00149006 -9.69398e-07 0)
(0.00149017 -1.03299e-06 0)
(0.00149027 -1.10148e-06 0)
(0.00149039 -1.17491e-06 0)
(0.00149051 -1.25325e-06 0)
(0.00149063 -1.33626e-06 0)
(0.00149076 -1.42344e-06 0)
(0.00149091 -1.51399e-06 0)
(0.00149105 -1.60666e-06 0)
(0.00149121 -1.69968e-06 0)
(0.00149138 -1.79061e-06 0)
(0.00149155 -1.87624e-06 0)
(0.00149174 -1.95245e-06 0)
(0.00149194 -2.01417e-06 0)
(0.00149214 -2.05544e-06 0)
(0.00149236 -2.0698e-06 0)
(0.00149258 -2.05099e-06 0)
(0.0014928 -1.9944e-06 0)
(0.00149301 -1.89847e-06 0)
(0.00149321 -1.76921e-06 0)
(0.00149339 -1.61541e-06 0)
(0.00149356 -1.44643e-06 0)
(0.0014937 -1.27132e-06 0)
(0.00149383 -1.09775e-06 0)
(0.00149394 -9.32535e-07 0)
(0.00149404 -7.80563e-07 0)
(0.00149413 -6.46789e-07 0)
(0.0014942 -5.33114e-07 0)
(0.00149427 -4.42097e-07 0)
(0.00149434 -3.71449e-07 0)
(0.00149441 -3.19072e-07 0)
(0.00149447 -2.80806e-07 0)
(0.00149454 -2.54292e-07 0)
(0.00149461 -2.36716e-07 0)
(0.00149468 -2.26139e-07 0)
(0.00149475 -2.20906e-07 0)
(0.00149482 -2.19528e-07 0)
(0.00149489 -2.21147e-07 0)
(0.00149497 -2.24704e-07 0)
(0.00149504 -2.29775e-07 0)
(0.00149512 -2.35684e-07 0)
(0.00149519 -2.422e-07 0)
(0.00149527 -2.48958e-07 0)
(0.00149535 -2.55812e-07 0)
(0.00149543 -2.62597e-07 0)
(0.00149551 -2.69229e-07 0)
(0.00149559 -2.75648e-07 0)
(0.00149568 -2.81819e-07 0)
(0.00149576 -2.87733e-07 0)
(0.00149585 -2.93385e-07 0)
(0.00149593 -2.98789e-07 0)
(0.00149602 -3.03958e-07 0)
(0.00149611 -3.08915e-07 0)
(0.0014962 -3.13678e-07 0)
(0.00149629 -3.1827e-07 0)
(0.00149638 -3.22709e-07 0)
(0.00149647 -3.27014e-07 0)
(0.00149656 -3.31198e-07 0)
(0.00149666 -3.35271e-07 0)
(0.00149675 -3.39236e-07 0)
(0.00149685 -3.43092e-07 0)
(0.00149695 -3.4683e-07 0)
(0.00149705 -3.50431e-07 0)
(0.00149715 -3.53868e-07 0)
(0.00149725 -3.571e-07 0)
(0.00149735 -3.60071e-07 0)
(0.00149745 -3.62708e-07 0)
(0.00149755 -3.64915e-07 0)
(0.00149766 -3.66571e-07 0)
(0.00149777 -3.67522e-07 0)
(0.00149787 -3.6758e-07 0)
(0.00149798 -3.66512e-07 0)
(0.00149809 -3.64044e-07 0)
(0.0014982 -3.59856e-07 0)
(0.00149831 -3.5363e-07 0)
(0.00149842 -3.45068e-07 0)
(0.00149853 -3.34073e-07 0)
(0.00149864 -3.21114e-07 0)
(0.00148898 -4.35e-07 0)
(0.00148904 -4.65803e-07 0)
(0.0014891 -4.9748e-07 0)
(0.00148915 -5.27335e-07 0)
(0.00148922 -5.58375e-07 0)
(0.00148928 -5.89782e-07 0)
(0.00148935 -6.22842e-07 0)
(0.00148942 -6.57682e-07 0)
(0.00148949 -6.94783e-07 0)
(0.00148957 -7.34606e-07 0)
(0.00148965 -7.7737e-07 0)
(0.00148973 -8.23604e-07 0)
(0.00148982 -8.73492e-07 0)
(0.00148991 -9.27524e-07 0)
(0.00149 -9.85908e-07 0)
(0.0014901 -1.04905e-06 0)
(0.00149021 -1.11714e-06 0)
(0.00149032 -1.19046e-06 0)
(0.00149043 -1.26909e-06 0)
(0.00149055 -1.35306e-06 0)
(0.00149067 -1.44217e-06 0)
(0.0014908 -1.53601e-06 0)
(0.00149094 -1.63384e-06 0)
(0.00149108 -1.73449e-06 0)
(0.00149124 -1.83623e-06 0)
(0.00149139 -1.93666e-06 0)