/*--------------------------------*- C++ -*----------------------------------*\
| =========                 |                                                 |
| \\      /  F ield         | foam-extend: Open Source CFD                    |
|  \\    /   O peration     | Version:     4.1-20200408                       |
|   \\  /    A nd           | Web:         http://www.foam-extend.org         |
|    \\/     M anipulation  |                                                 |
\*---------------------------------------------------------------------------*/
FoamFile
{
    version     2.0;
    format      ascii;
    class       volVectorField;
    location    "0.0015000";
    object      U_0;
}
// * * * * * * * * * * * * * * * * * * * * * * * * * * * * * * * * * * * * * //

dimensions      [0 1 0 0 0 0 0];

internalField   nonuniform List<vector> 
1952
(
(0.00143897 -4.97639e-08 0)
(0.00143902 -5.32658e-08 0)
(0.00143908 -5.68251e-08 0)
(0.00143913 -6.03806e-08 0)
(0.00143919 -6.4067e-08 0)
(0.00143925 -6.7806e-08 0)
(0.00143931 -7.17591e-08 0)
(0.00143937 -7.5881e-08 0)
(0.00143943 -8.03069e-08 0)
(0.0014395 -8.50359e-08 0)
(0.00143957 -9.01651e-08 0)
(0.00143965 -9.57256e-08 0)
(0.00143972 -1.01784e-07 0)
(0.0014398 -1.08385e-07 0)
(0.00143989 -1.15573e-07 0)
(0.00143998 -1.23389e-07 0)
(0.00144008 -1.31852e-07 0)
(0.00144019 -1.40981e-07 0)
(0.0014403 -1.50761e-07 0)
(0.00144042 -1.61164e-07 0)
(0.00144056 -1.72122e-07 0)
(0.0014407 -1.83531e-07 0)
(0.00144085 -1.95239e-07 0)
(0.00144101 -2.07041e-07 0)
(0.00144119 -2.18673e-07 0)
(0.00144138 -2.29809e-07 0)
(0.00144157 -2.40064e-07 0)
(0.00144178 -2.49005e-07 0)
(0.001442 -2.56164e-07 0)
(0.00144223 -2.61069e-07 0)
(0.00144246 -2.63279e-07 0)
(0.00144269 -2.62428e-07 0)
(0.00144292 -2.58271e-07 0)
(0.00144315 -2.50734e-07 0)
(0.00144337 -2.39927e-07 0)
(0.00144358 -2.26172e-07 0)
(0.00144378 -2.09951e-07 0)
(0.00144396 -1.91911e-07 0)
(0.00144412 -1.72729e-07 0)
(0.00144427 -1.53158e-07 0)
(0.0014444 -1.33842e-07 0)
(0.00144451 -1.15435e-07 0)
(0.00144461 -9.83762e-08 0)
(0.00144469 -8.3086e-08 0)
(0.00144476 -6.97313e-08 0)
(0.00144483 -5.84568e-08 0)
(0.00144488 -4.91901e-08 0)
(0.00144493 -4.185e-08 0)
(0.00144498 -3.62297e-08 0)
(0.00144503 -3.21288e-08 0)
(0.00144508 -2.9312e-08 0)
(0.00144513 -2.7553e-08 0)
(0.00144517 -2.66496e-08 0)
(0.00144523 -2.64045e-08 0)
(0.00144528 -2.66683e-08 0)
(0.00144534 -2.72939e-08 0)
(0.00144539 -2.81812e-08 0)
(0.00144546 -2.9233e-08 0)
(0.00144552 -3.03877e-08 0)
(0.00144559 -3.15878e-08 0)
(0.00144566 -3.27987e-08 0)
(0.00144573 -3.39905e-08 0)
(0.00144581 -3.51469e-08 0)
(0.00144588 -3.6255e-08 0)
(0.00144596 -3.73094e-08 0)
(0.00144604 -3.83074e-08 0)
(0.00144612 -3.92496e-08 0)
(0.00144621 -4.01381e-08 0)
(0.0014463 -4.09766e-08 0)
(0.00144638 -4.17689e-08 0)
(0.00144647 -4.25193e-08 0)
(0.00144656 -4.32318e-08 0)
(0.00144665 -4.39098e-08 0)
(0.00144675 -4.45559e-08 0)
(0.00144684 -4.51718e-08 0)
(0.00144694 -4.57577e-08 0)
(0.00144703 -4.63127e-08 0)
(0.00144713 -4.68339e-08 0)
(0.00144723 -4.73165e-08 0)
(0.00144733 -4.77535e-08 0)
(0.00144743 -4.81358e-08 0)
(0.00144754 -4.84517e-08 0)
(0.00144764 -4.86871e-08 0)
(0.00144774 -4.88258e-08 0)
(0.00144785 -4.88502e-08 0)
(0.00144795 -4.87423e-08 0)
(0.00144806 -4.84853e-08 0)
(0.00144817 -4.80665e-08 0)
(0.00144827 -4.74799e-08 0)
(0.00144838 -4.67304e-08 0)
(0.00144849 -4.58377e-08 0)
(0.00144859 -4.48397e-08 0)
(0.0014487 -4.37943e-08 0)
(0.00143898 -8.10681e-08 0)
(0.00143903 -8.67762e-08 0)
(0.00143908 -9.25754e-08 0)
(0.00143914 -9.83601e-08 0)
(0.00143919 -1.04355e-07 0)
(0.00143925 -1.10433e-07 0)
(0.00143931 -1.16855e-07 0)
(0.00143938 -1.23552e-07 0)
(0.00143944 -1.30739e-07 0)
(0.00143951 -1.38421e-07 0)
(0.00143958 -1.4675e-07 0)
(0.00143965 -1.55781e-07 0)
(0.00143973 -1.65619e-07 0)
(0.00143981 -1.76339e-07 0)
(0.0014399 -1.88012e-07 0)
(0.00143999 -2.00704e-07 0)
(0.00144009 -2.14451e-07 0)
(0.00144019 -2.29283e-07 0)
(0.00144031 -2.45179e-07 0)
(0.00144043 -2.62096e-07 0)
(0.00144056 -2.79925e-07 0)
(0.0014407 -2.98504e-07 0)
(0.00144085 -3.17587e-07 0)
(0.00144101 -3.36846e-07 0)
(0.00144119 -3.55853e-07 0)
(0.00144137 -3.74081e-07 0)
(0.00144157 -3.90901e-07 0)
(0.00144178 -4.05603e-07 0)
(0.001442 -4.17418e-07 0)
(0.00144222 -4.25565e-07 0)
(0.00144245 -4.29306e-07 0)
(0.00144268 -4.28032e-07 0)
(0.00144292 -4.21323e-07 0)
(0.00144314 -4.09047e-07 0)
(0.00144337 -3.91378e-07 0)
(0.00144358 -3.68849e-07 0)
(0.00144377 -3.42262e-07 0)
(0.00144395 -3.12686e-07 0)
(0.00144412 -2.81247e-07 0)
(0.00144426 -2.49191e-07 0)
(0.00144439 -2.17579e-07 0)
(0.0014445 -1.87488e-07 0)
(0.0014446 -1.59635e-07 0)
(0.00144468 -1.3471e-07 0)
(0.00144475 -1.12979e-07 0)
(0.00144482 -9.46725e-08 0)
(0.00144487 -7.96603e-08 0)
(0.00144492 -6.78e-08 0)
(0.00144497 -5.87446e-08 0)
(0.00144502 -5.21593e-08 0)
(0.00144507 -4.76562e-08 0)
(0.00144512 -4.48627e-08 0)
(0.00144517 -4.34493e-08 0)
(0.00144522 -4.30937e-08 0)
(0.00144527 -4.3555e-08 0)
(0.00144533 -4.45938e-08 0)
(0.00144539 -4.605e-08 0)
(0.00144545 -4.77665e-08 0)
(0.00144552 -4.96449e-08 0)
(0.00144558 -5.15929e-08 0)
(0.00144565 -5.35557e-08 0)
(0.00144573 -5.54855e-08 0)
(0.0014458 -5.73564e-08 0)
(0.00144588 -5.91483e-08 0)
(0.00144596 -6.08529e-08 0)
(0.00144604 -6.2466e-08 0)
(0.00144612 -6.39889e-08 0)
(0.00144621 -6.54252e-08 0)
(0.00144629 -6.67809e-08 0)
(0.00144638 -6.80623e-08 0)
(0.00144647 -6.92765e-08 0)
(0.00144656 -7.04298e-08 0)
(0.00144665 -7.15279e-08 0)
(0.00144674 -7.25751e-08 0)
(0.00144684 -7.3574e-08 0)
(0.00144693 -7.45252e-08 0)
(0.00144703 -7.54271e-08 0)
(0.00144713 -7.62752e-08 0)
(0.00144723 -7.70617e-08 0)
(0.00144733 -7.77757e-08 0)
(0.00144743 -7.84021e-08 0)
(0.00144753 -7.89221e-08 0)
(0.00144764 -7.93129e-08 0)
(0.00144774 -7.9548e-08 0)
(0.00144785 -7.95985e-08 0)
(0.00144795 -7.94345e-08 0)
(0.00144806 -7.90278e-08 0)
(0.00144817 -7.83563e-08 0)
(0.00144827 -7.74085e-08 0)
(0.00144838 -7.61908e-08 0)
(0.00144849 -7.47332e-08 0)
(0.00144859 -7.30966e-08 0)
(0.0014487 -7.13732e-08 0)
(0.00143899 -1.12747e-07 0)
(0.00143904 -1.20697e-07 0)
(0.00143909 -1.28776e-07 0)
(0.00143914 -1.36811e-07 0)
(0.0014392 -1.45144e-07 0)
(0.00143926 -1.53575e-07 0)
(0.00143932 -1.62489e-07 0)
(0.00143938 -1.71777e-07 0)
(0.00143945 -1.81746e-07 0)
(0.00143952 -1.92397e-07 0)
(0.00143959 -2.03943e-07 0)
(0.00143966 -2.16459e-07 0)
(0.00143974 -2.30091e-07 0)
(0.00143982 -2.44943e-07 0)
(0.00143991 -2.61113e-07 0)
(0.00144 -2.78696e-07 0)
(0.0014401 -2.97743e-07 0)
(0.0014402 -3.18297e-07 0)
(0.00144031 -3.40337e-07 0)
(0.00144043 -3.63808e-07 0)
(0.00144056 -3.88565e-07 0)
(0.0014407 -4.14392e-07 0)
(0.00144085 -4.40955e-07 0)
(0.00144101 -4.67809e-07 0)
(0.00144119 -4.94365e-07 0)
(0.00144137 -5.19893e-07 0)
(0.00144157 -5.4352e-07 0)
(0.00144177 -5.6425e-07 0)
(0.00144199 -5.80995e-07 0)
(0.00144222 -5.92643e-07 0)
(0.00144244 -5.98133e-07 0)
(0.00144268 -5.96577e-07 0)
(0.00144291 -5.87355e-07 0)
(0.00144314 -5.70255e-07 0)
(0.00144336 -5.45515e-07 0)
(0.00144357 -5.13892e-07 0)
(0.00144376 -4.76536e-07 0)
(0.00144394 -4.34983e-07 0)
(0.00144411 -3.90844e-07 0)
(0.00144425 -3.4589e-07 0)
(0.00144438 -3.01626e-07 0)
(0.00144449 -2.59572e-07 0)
(0.00144459 -2.2073e-07 0)
(0.00144467 -1.86066e-07 0)
(0.00144474 -1.55933e-07 0)
(0.0014448 -1.30638e-07 0)
(0.00144486 -1.0997e-07 0)
(0.00144491 -9.37084e-08 0)
(0.00144496 -8.13461e-08 0)
(0.00144501 -7.24002e-08 0)
(0.00144505 -6.63213e-08 0)
(0.0014451 -6.25839e-08 0)
(0.00144515 -6.07312e-08 0)
(0.00144521 -6.03143e-08 0)
(0.00144526 -6.10044e-08 0)
(0.00144532 -6.24719e-08 0)
(0.00144538 -6.45004e-08 0)
(0.00144544 -6.68755e-08 0)
(0.00144551 -6.94649e-08 0)
(0.00144558 -7.21441e-08 0)
(0.00144565 -7.48395e-08 0)
(0.00144572 -7.74873e-08 0)
(0.0014458 -8.00529e-08 0)
(0.00144588 -8.25099e-08 0)
(0.00144595 -8.48473e-08 0)
(0.00144604 -8.70598e-08 0)
(0.00144612 -8.91497e-08 0)
(0.0014462 -9.11219e-08 0)
(0.00144629 -9.29847e-08 0)
(0.00144638 -9.4747e-08 0)
(0.00144647 -9.64182e-08 0)
(0.00144656 -9.80073e-08 0)
(0.00144665 -9.95217e-08 0)
(0.00144674 -1.00968e-07 0)
(0.00144684 -1.02348e-07 0)
(0.00144693 -1.03665e-07 0)
(0.00144703 -1.04916e-07 0)
(0.00144713 -1.06094e-07 0)
(0.00144723 -1.07189e-07 0)
(0.00144733 -1.08187e-07 0)
(0.00144743 -1.09066e-07 0)
(0.00144753 -1.09801e-07 0)
(0.00144763 -1.1036e-07 0)
(0.00144774 -1.10707e-07 0)
(0.00144784 -1.108e-07 0)
(0.00144795 -1.10597e-07 0)
(0.00144806 -1.10057e-07 0)
(0.00144816 -1.09147e-07 0)
(0.00144827 -1.07846e-07 0)
(0.00144838 -1.06159e-07 0)
(0.00144848 -1.04125e-07 0)
(0.00144859 -1.01826e-07 0)
(0.0014487 -9.93938e-08 0)
(0.001439 -1.4467e-07 0)
(0.00143905 -1.54883e-07 0)
(0.0014391 -1.65251e-07 0)
(0.00143916 -1.75533e-07 0)
(0.00143921 -1.86187e-07 0)
(0.00143927 -1.96955e-07 0)
(0.00143933 -2.08328e-07 0)
(0.00143939 -2.20183e-07 0)
(0.00143946 -2.32896e-07 0)
(0.00143953 -2.46486e-07 0)
(0.0014396 -2.61208e-07 0)
(0.00143967 -2.77173e-07 0)
(0.00143975 -2.94551e-07 0)
(0.00143983 -3.13489e-07 0)
(0.00143992 -3.34103e-07 0)
(0.00144001 -3.56525e-07 0)
(0.00144011 -3.80817e-07 0)
(0.00144021 -4.07045e-07 0)
(0.00144032 -4.35187e-07 0)
(0.00144044 -4.65183e-07 0)
(0.00144057 -4.96861e-07 0)
(0.00144071 -5.29959e-07 0)
(0.00144086 -5.64065e-07 0)
(0.00144102 -5.98623e-07 0)
(0.00144119 -6.32892e-07 0)
(0.00144137 -6.65948e-07 0)
(0.00144156 -6.96668e-07 0)
(0.00144177 -7.23764e-07 0)
(0.00144198 -7.45813e-07 0)
(0.00144221 -7.61341e-07 0)
(0.00144244 -7.68927e-07 0)
(0.00144267 -7.67357e-07 0)
(0.0014429 -7.5577e-07 0)
(0.00144313 -7.3384e-07 0)
(0.00144335 -7.01856e-07 0)
(0.00144356 -6.60818e-07 0)
(0.00144375 -6.12267e-07 0)
(0.00144393 -5.58251e-07 0)
(0.0014441 -5.00919e-07 0)
(0.00144424 -4.42609e-07 0)
(0.00144436 -3.85299e-07 0)
(0.00144447 -3.30978e-07 0)
(0.00144457 -2.80942e-07 0)
(0.00144465 -2.3644e-07 0)
(0.00144472 -1.979e-07 0)
(0.00144478 -1.65696e-07 0)
(0.00144484 -1.39509e-07 0)
(0.00144489 -1.19014e-07 0)
(0.00144494 -1.03522e-07 0)
(0.00144499 -9.23846e-08 0)
(0.00144504 -8.4882e-08 0)
(0.00144509 -8.03278e-08 0)
(0.00144514 -7.81385e-08 0)
(0.00144519 -7.77375e-08 0)
(0.00144525 -7.87124e-08 0)
(0.00144531 -8.0645e-08 0)
(0.00144537 -8.3267e-08 0)
(0.00144543 -8.63095e-08 0)
(0.0014455 -8.96096e-08 0)
(0.00144557 -9.30128e-08 0)
(0.00144564 -9.64289e-08 0)
(0.00144571 -9.97799e-08 0)
(0.00144579 -1.03024e-07 0)
(0.00144587 -1.06128e-07 0)
(0.00144595 -1.09081e-07 0)
(0.00144603 -1.11877e-07 0)
(0.00144611 -1.14518e-07 0)
(0.0014462 -1.17012e-07 0)
(0.00144628 -1.19368e-07 0)
(0.00144637 -1.216e-07 0)
(0.00144646 -1.23718e-07 0)
(0.00144655 -1.25733e-07 0)
(0.00144664 -1.27656e-07 0)
(0.00144674 -1.29495e-07 0)
(0.00144683 -1.31253e-07 0)
(0.00144693 -1.32932e-07 0)
(0.00144702 -1.3453e-07 0)
(0.00144712 -1.36039e-07 0)
(0.00144722 -1.37446e-07 0)
(0.00144732 -1.38733e-07 0)
(0.00144742 -1.39874e-07 0)
(0.00144752 -1.40836e-07 0)
(0.00144763 -1.4158e-07 0)
(0.00144773 -1.42057e-07 0)
(0.00144784 -1.42216e-07 0)
(0.00144794 -1.42e-07 0)
(0.00144805 -1.41352e-07 0)
(0.00144816 -1.40226e-07 0)
(0.00144827 -1.38589e-07 0)
(0.00144837 -1.36441e-07 0)
(0.00144848 -1.33821e-07 0)
(0.00144859 -1.30831e-07 0)
(0.00144869 -1.27639e-07 0)
(0.00143901 -1.76529e-07 0)
(0.00143906 -1.89022e-07 0)
(0.00143911 -2.01712e-07 0)
(0.00143917 -2.14233e-07 0)
(0.00143923 -2.27221e-07 0)
(0.00143928 -2.40311e-07 0)
(0.00143935 -2.54145e-07 0)
(0.00143941 -2.68549e-07 0)
(0.00143947 -2.83996e-07 0)
(0.00143954 -3.00501e-07 0)
(0.00143961 -3.18373e-07 0)
(0.00143969 -3.37747e-07 0)
(0.00143976 -3.58827e-07 0)
(0.00143984 -3.81792e-07 0)
(0.00143993 -4.06784e-07 0)
(0.00144002 -4.33965e-07 0)
(0.00144012 -4.63417e-07 0)
(0.00144022 -4.95229e-07 0)
(0.00144033 -5.29384e-07 0)
(0.00144045 -5.65826e-07 0)
(0.00144058 -6.04363e-07 0)
(0.00144071 -6.44697e-07 0)
(0.00144086 -6.86352e-07 0)
(0.00144102 -7.28675e-07 0)
(0.00144119 -7.70783e-07 0)
(0.00144137 -8.11564e-07 0)
(0.00144156 -8.49654e-07 0)
(0.00144176 -8.83461e-07 0)
(0.00144197 -9.1121e-07 0)
(0.0014422 -9.31031e-07 0)
(0.00144242 -9.41095e-07 0)
(0.00144265 -9.39802e-07 0)
(0.00144289 -9.2599e-07 0)
(0.00144311 -8.99178e-07 0)
(0.00144334 -8.59694e-07 0)
(0.00144354 -8.08808e-07 0)
(0.00144374 -7.48518e-07 0)
(0.00144392 -6.81457e-07 0)
(0.00144408 -6.10376e-07 0)
(0.00144422 -5.38234e-07 0)
(0.00144435 -4.67516e-07 0)
(0.00144445 -4.00704e-07 0)
(0.00144455 -3.39391e-07 0)
(0.00144463 -2.85114e-07 0)
(0.0014447 -2.38353e-07 0)
(0.00144476 -1.99523e-07 0)
(0.00144481 -1.68151e-07 0)
(0.00144486 -1.43772e-07 0)
(0.00144491 -1.25482e-07 0)
(0.00144496 -1.12444e-07 0)
(0.00144501 -1.03758e-07 0)
(0.00144507 -9.85708e-08 0)
(0.00144512 -9.61763e-08 0)
(0.00144517 -9.58728e-08 0)
(0.00144523 -9.71747e-08 0)
(0.00144529 -9.95808e-08 0)
(0.00144536 -1.0278e-07 0)
(0.00144542 -1.06456e-07 0)
(0.00144549 -1.10421e-07 0)
(0.00144556 -1.14495e-07 0)
(0.00144563 -1.18574e-07 0)
(0.00144571 -1.22571e-07 0)
(0.00144578 -1.26437e-07 0)
(0.00144586 -1.30137e-07 0)
(0.00144594 -1.33657e-07 0)
(0.00144602 -1.3699e-07 0)
(0.00144611 -1.40142e-07 0)
(0.00144619 -1.43121e-07 0)
(0.00144628 -1.45939e-07 0)
(0.00144637 -1.48611e-07 0)
(0.00144646 -1.51152e-07 0)
(0.00144655 -1.53573e-07 0)
(0.00144664 -1.55887e-07 0)
(0.00144673 -1.58103e-07 0)
(0.00144683 -1.60226e-07 0)
(0.00144692 -1.62259e-07 0)
(0.00144702 -1.64198e-07 0)
(0.00144712 -1.66034e-07 0)
(0.00144722 -1.67754e-07 0)
(0.00144732 -1.69334e-07 0)
(0.00144742 -1.70745e-07 0)
(0.00144752 -1.71948e-07 0)
(0.00144762 -1.72895e-07 0)
(0.00144773 -1.73528e-07 0)
(0.00144783 -1.73782e-07 0)
(0.00144794 -1.73585e-07 0)
(0.00144805 -1.72866e-07 0)
(0.00144815 -1.71559e-07 0)
(0.00144826 -1.69616e-07 0)
(0.00144837 -1.67021e-07 0)
(0.00144848 -1.63815e-07 0)
(0.00144858 -1.60109e-07 0)
(0.00144869 -1.56108e-07 0)
(0.00143902 -2.08669e-07 0)
(0.00143908 -2.23462e-07 0)
(0.00143913 -2.38473e-07 0)
(0.00143918 -2.53211e-07 0)
(0.00143924 -2.6848e-07 0)
(0.0014393 -2.83851e-07 0)
(0.00143936 -3.00071e-07 0)
(0.00143942 -3.16976e-07 0)
(0.00143949 -3.35077e-07 0)
(0.00143956 -3.54438e-07 0)
(0.00143963 -3.75378e-07 0)
(0.0014397 -3.98088e-07 0)
(0.00143978 -4.22777e-07 0)
(0.00143986 -4.49677e-07 0)
(0.00143995 -4.78938e-07 0)
(0.00144004 -5.10768e-07 0)
(0.00144013 -5.45261e-07 0)
(0.00144024 -5.82538e-07 0)
(0.00144035 -6.22592e-07 0)
(0.00144046 -6.65379e-07 0)
(0.00144059 -7.10699e-07 0)
(0.00144072 -7.58232e-07 0)
(0.00144087 -8.07453e-07 0)
(0.00144102 -8.57628e-07 0)
(0.00144119 -9.07754e-07 0)
(0.00144136 -9.56542e-07 0)
(0.00144155 -1.00239e-06 0)
(0.00144175 -1.04341e-06 0)
(0.00144196 -1.07745e-06 0)
(0.00144218 -1.1022e-06 0)
(0.00144241 -1.11536e-06 0)
(0.00144264 -1.11487e-06 0)
(0.00144287 -1.09917e-06 0)
(0.0014431 -1.06755e-06 0)
(0.00144332 -1.02036e-06 0)
(0.00144353 -9.59151e-07 0)
(0.00144372 -8.86476e-07 0)
(0.0014439 -8.05638e-07 0)
(0.00144406 -7.20077e-07 0)
(0.0014442 -6.33435e-07 0)
(0.00144432 -5.48743e-07 0)
(0.00144443 -4.69017e-07 0)
(0.00144452 -3.96156e-07 0)
(0.0014446 -3.32001e-07 0)
(0.00144466 -2.77068e-07 0)
(0.00144473 -2.31791e-07 0)
(0.00144478 -1.95493e-07 0)
(0.00144483 -1.67525e-07 0)
(0.00144489 -1.46731e-07 0)
(0.00144494 -1.32059e-07 0)
(0.00144499 -1.2242e-07 0)
(0.00144504 -1.16783e-07 0)
(0.0014451 -1.14328e-07 0)
(0.00144515 -1.14224e-07 0)
(0.00144521 -1.15924e-07 0)
(0.00144528 -1.18845e-07 0)
(0.00144534 -1.22643e-07 0)
(0.00144541 -1.26955e-07 0)
(0.00144548 -1.31575e-07 0)
(0.00144555 -1.36303e-07 0)
(0.00144562 -1.41023e-07 0)
(0.0014457 -1.4564e-07 0)
(0.00144577 -1.501e-07 0)
(0.00144585 -1.54367e-07 0)
(0.00144593 -1.58426e-07 0)
(0.00144602 -1.62272e-07 0)
(0.0014461 -1.65911e-07 0)
(0.00144619 -1.69353e-07 0)
(0.00144627 -1.72614e-07 0)
(0.00144636 -1.75709e-07 0)
(0.00144645 -1.78656e-07 0)
(0.00144654 -1.81469e-07 0)
(0.00144663 -1.84163e-07 0)
(0.00144673 -1.86746e-07 0)
(0.00144682 -1.89227e-07 0)
(0.00144692 -1.91607e-07 0)
(0.00144701 -1.93883e-07 0)
(0.00144711 -1.96047e-07 0)
(0.00144721 -1.98081e-07 0)
(0.00144731 -1.99961e-07 0)
(0.00144741 -2.01653e-07 0)
(0.00144751 -2.03112e-07 0)
(0.00144762 -2.04284e-07 0)
(0.00144772 -2.05101e-07 0)
(0.00144783 -2.05485e-07 0)
(0.00144793 -2.0535e-07 0)
(0.00144804 -2.04605e-07 0)
(0.00144815 -2.03162e-07 0)
(0.00144826 -2.00952e-07 0)
(0.00144836 -1.97939e-07 0)
(0.00144847 -1.94147e-07 0)
(0.00144858 -1.89692e-07 0)
(0.00144869 -1.84809e-07 0)
(0.00143904 -2.40548e-07 0)
(0.00143909 -2.57663e-07 0)
(0.00143915 -2.7505e-07 0)
(0.0014392 -2.91993e-07 0)
(0.00143926 -3.09578e-07 0)
(0.00143932 -3.27218e-07 0)
(0.00143938 -3.45849e-07 0)
(0.00143944 -3.65243e-07 0)
(0.00143951 -3.86009e-07 0)
(0.00143958 -4.08206e-07 0)
(0.00143965 -4.32199e-07 0)
(0.00143972 -4.58202e-07 0)
(0.0014398 -4.86451e-07 0)
(0.00143988 -5.17211e-07 0)
(0.00143997 -5.50655e-07 0)
(0.00144006 -5.87023e-07 0)
(0.00144015 -6.26434e-07 0)
(0.00144026 -6.69038e-07 0)
(0.00144036 -7.14848e-07 0)
(0.00144048 -7.63837e-07 0)
(0.0014406 -8.1581e-07 0)
(0.00144073 -8.70439e-07 0)
(0.00144088 -9.27167e-07 0)
(0.00144103 -9.852e-07 0)
(0.00144119 -1.04343e-06 0)
(0.00144136 -1.10042e-06 0)
(0.00144155 -1.15433e-06 0)
(0.00144174 -1.20299e-06 0)
(0.00144195 -1.24383e-06 0)
(0.00144217 -1.27409e-06 0)
(0.00144239 -1.29092e-06 0)
(0.00144262 -1.29168e-06 0)
(0.00144285 -1.27432e-06 0)
(0.00144308 -1.23783e-06 0)
(0.0014433 -1.18251e-06 0)
(0.00144351 -1.11031e-06 0)
(0.0014437 -1.02442e-06 0)
(0.00144388 -9.28977e-07 0)
(0.00144403 -8.28196e-07 0)
(0.00144417 -7.26469e-07 0)
(0.00144429 -6.27413e-07 0)
(0.0014444 -5.3459e-07 0)
(0.00144448 -4.50209e-07 0)
(0.00144456 -3.76409e-07 0)
(0.00144463 -3.1371e-07 0)
(0.00144469 -2.6252e-07 0)
(0.00144474 -2.21874e-07 0)
(0.0014448 -1.90876e-07 0)
(0.00144485 -1.68068e-07 0)
(0.0014449 -1.52162e-07 0)
(0.00144496 -1.41874e-07 0)
(0.00144501 -1.35995e-07 0)
(0.00144507 -1.33605e-07 0)
(0.00144513 -1.33758e-07 0)
(0.00144519 -1.35859e-07 0)
(0.00144526 -1.3926e-07 0)
(0.00144532 -1.43592e-07 0)
(0.00144539 -1.48461e-07 0)
(0.00144546 -1.53645e-07 0)
(0.00144553 -1.58932e-07 0)
(0.00144561 -1.64199e-07 0)
(0.00144569 -1.69346e-07 0)
(0.00144576 -1.74317e-07 0)
(0.00144584 -1.79073e-07 0)
(0.00144593 -1.83601e-07 0)
(0.00144601 -1.87896e-07 0)
(0.00144609 -1.91965e-07 0)
(0.00144618 -1.95821e-07 0)
(0.00144627 -1.9948e-07 0)
(0.00144635 -2.02961e-07 0)
(0.00144644 -2.06281e-07 0)
(0.00144653 -2.09458e-07 0)
(0.00144663 -2.12506e-07 0)
(0.00144672 -2.15436e-07 0)
(0.00144681 -2.18257e-07 0)
(0.00144691 -2.20971e-07 0)
(0.00144701 -2.23574e-07 0)
(0.0014471 -2.26058e-07 0)
(0.0014472 -2.28404e-07 0)
(0.0014473 -2.30586e-07 0)
(0.0014474 -2.32566e-07 0)
(0.00144751 -2.34296e-07 0)
(0.00144761 -2.35714e-07 0)
(0.00144771 -2.36744e-07 0)
(0.00144782 -2.37297e-07 0)
(0.00144792 -2.37269e-07 0)
(0.00144803 -2.36551e-07 0)
(0.00144814 -2.3503e-07 0)
(0.00144825 -2.32607e-07 0)
(0.00144836 -2.29215e-07 0)
(0.00144847 -2.24853e-07 0)
(0.00144857 -2.19624e-07 0)
(0.00144868 -2.13784e-07 0)
(0.00143906 -2.72872e-07 0)
(0.00143911 -2.92328e-07 0)
(0.00143917 -3.12077e-07 0)
(0.00143922 -3.31186e-07 0)
(0.00143928 -3.50987e-07 0)
(0.00143934 -3.70841e-07 0)
(0.0014394 -3.91765e-07 0)
(0.00143947 -4.13589e-07 0)
(0.00143953 -4.3691e-07 0)
(0.0014396 -4.61875e-07 0)
(0.00143967 -4.88814e-07 0)
(0.00143975 -5.18021e-07 0)
(0.00143982 -5.49713e-07 0)
(0.00143991 -5.84214e-07 0)
(0.00143999 -6.21698e-07 0)
(0.00144008 -6.62454e-07 0)
(0.00144018 -7.06617e-07 0)
(0.00144028 -7.54373e-07 0)
(0.00144038 -8.0576e-07 0)
(0.0014405 -8.60779e-07 0)
(0.00144062 -9.19253e-07 0)
(0.00144075 -9.80863e-07 0)
(0.00144089 -1.04504e-06 0)
(0.00144104 -1.11096e-06 0)
(0.00144119 -1.17745e-06 0)
(0.00144136 -1.24292e-06 0)
(0.00144154 -1.30537e-06 0)
(0.00144174 -1.3623e-06 0)
(0.00144194 -1.41078e-06 0)
(0.00144215 -1.4475e-06 0)
(0.00144237 -1.46899e-06 0)
(0.0014426 -1.47192e-06 0)
(0.00144283 -1.45358e-06 0)
(0.00144305 -1.41246e-06 0)
(0.00144327 -1.34876e-06 0)
(0.00144348 -1.26487e-06 0)
(0.00144367 -1.16484e-06 0)
(0.00144385 -1.05374e-06 0)
(0.001444 -9.36726e-07 0)
(0.00144414 -8.18997e-07 0)
(0.00144425 -7.048e-07 0)
(0.00144435 -5.98289e-07 0)
(0.00144444 -5.01996e-07 0)
(0.00144452 -4.18395e-07 0)
(0.00144458 -3.48008e-07 0)
(0.00144464 -2.91179e-07 0)
(0.0014447 -2.46564e-07 0)
(0.00144476 -2.12941e-07 0)
(0.00144481 -1.88507e-07 0)
(0.00144487 -1.71701e-07 0)
(0.00144492 -1.61044e-07 0)
(0.00144498 -1.55143e-07 0)
(0.00144504 -1.52986e-07 0)
(0.0014451 -1.53514e-07 0)
(0.00144517 -1.56099e-07 0)
(0.00144524 -1.60027e-07 0)
(0.0014453 -1.64917e-07 0)
(0.00144537 -1.70345e-07 0)
(0.00144545 -1.76084e-07 0)
(0.00144552 -1.81911e-07 0)
(0.0014456 -1.87698e-07 0)
(0.00144567 -1.93345e-07 0)
(0.00144575 -1.98793e-07 0)
(0.00144583 -2.04007e-07 0)
(0.00144592 -2.08972e-07 0)
(0.001446 -2.13686e-07 0)
(0.00144608 -2.18158e-07 0)
(0.00144617 -2.22403e-07 0)
(0.00144626 -2.26438e-07 0)
(0.00144635 -2.30284e-07 0)
(0.00144643 -2.33959e-07 0)
(0.00144653 -2.37483e-07 0)
(0.00144662 -2.40871e-07 0)
(0.00144671 -2.44137e-07 0)
(0.00144681 -2.47287e-07 0)
(0.0014469 -2.50326e-07 0)
(0.001447 -2.53251e-07 0)
(0.00144709 -2.56052e-07 0)
(0.00144719 -2.5871e-07 0)
(0.00144729 -2.61198e-07 0)
(0.00144739 -2.63477e-07 0)
(0.0014475 -2.65493e-07 0)
(0.0014476 -2.67182e-07 0)
(0.0014477 -2.68458e-07 0)
(0.00144781 -2.69223e-07 0)
(0.00144792 -2.69359e-07 0)
(0.00144802 -2.68735e-07 0)
(0.00144813 -2.67209e-07 0)
(0.00144824 -2.64648e-07 0)
(0.00144835 -2.60942e-07 0)
(0.00144846 -2.56046e-07 0)
(0.00144857 -2.50027e-07 0)
(0.00144868 -2.4314e-07 0)
(0.00143908 -3.04708e-07 0)
(0.00143914 -3.26526e-07 0)
(0.00143919 -3.48734e-07 0)
(0.00143925 -3.70005e-07 0)
(0.0014393 -3.92105e-07 0)
(0.00143936 -4.14187e-07 0)
(0.00143943 -4.37481e-07 0)
(0.00143949 -4.61759e-07 0)
(0.00143956 -4.87692e-07 0)
(0.00143962 -5.15434e-07 0)
(0.0014397 -5.45341e-07 0)
(0.00143977 -5.77731e-07 0)
(0.00143985 -6.12837e-07 0)
(0.00143993 -6.51013e-07 0)
(0.00144002 -6.92456e-07 0)
(0.00144011 -7.37482e-07 0)
(0.0014402 -7.86255e-07 0)
(0.0014403 -8.38996e-07 0)
(0.00144041 -8.95772e-07 0)
(0.00144052 -9.56616e-07 0)
(0.00144064 -1.02138e-06 0)
(0.00144077 -1.08977e-06 0)
(0.00144091 -1.16123e-06 0)
(0.00144105 -1.23492e-06 0)
(0.0014412 -1.30961e-06 0)
(0.00144137 -1.38365e-06 0)
(0.00144154 -1.45484e-06 0)
(0.00144173 -1.52042e-06 0)
(0.00144193 -1.57707e-06 0)
(0.00144213 -1.62093e-06 0)
(0.00144235 -1.64781e-06 0)
(0.00144257 -1.65356e-06 0)
(0.0014428 -1.6346e-06 0)
(0.00144302 -1.58878e-06 0)
(0.00144324 -1.51606e-06 0)
(0.00144345 -1.41946e-06 0)
(0.00144364 -1.30415e-06 0)
(0.00144381 -1.17639e-06 0)
(0.00144396 -1.04235e-06 0)
(0.00144409 -9.08103e-07 0)
(0.00144421 -7.7853e-07 0)
(0.00144431 -6.58358e-07 0)
(0.00144439 -5.5043e-07 0)
(0.00144447 -4.57548e-07 0)
(0.00144453 -3.80219e-07 0)
(0.00144459 -3.18634e-07 0)
(0.00144465 -2.70924e-07 0)
(0.00144471 -2.35436e-07 0)
(0.00144477 -2.09972e-07 0)
(0.00144483 -1.92693e-07 0)
(0.00144489 -1.81936e-07 0)
(0.00144495 -1.76146e-07 0)
(0.00144501 -1.74254e-07 0)
(0.00144508 -1.75107e-07 0)
(0.00144514 -1.78074e-07 0)
(0.00144521 -1.82394e-07 0)
(0.00144528 -1.8769e-07 0)
(0.00144536 -1.93522e-07 0)
(0.00144543 -1.99659e-07 0)
(0.00144551 -2.05879e-07 0)
(0.00144558 -2.1205e-07 0)
(0.00144566 -2.18072e-07 0)
(0.00144574 -2.23887e-07 0)
(0.00144582 -2.29459e-07 0)
(0.00144591 -2.34775e-07 0)
(0.00144599 -2.39833e-07 0)
(0.00144607 -2.44642e-07 0)
(0.00144616 -2.49218e-07 0)
(0.00144625 -2.5358e-07 0)
(0.00144634 -2.57748e-07 0)
(0.00144643 -2.61742e-07 0)
(0.00144652 -2.65582e-07 0)
(0.00144661 -2.69284e-07 0)
(0.0014467 -2.72861e-07 0)
(0.0014468 -2.76322e-07 0)
(0.00144689 -2.7967e-07 0)
(0.00144699 -2.82903e-07 0)
(0.00144709 -2.86011e-07 0)
(0.00144718 -2.88975e-07 0)
(0.00144728 -2.91766e-07 0)
(0.00144738 -2.94345e-07 0)
(0.00144749 -2.96657e-07 0)
(0.00144759 -2.98632e-07 0)
(0.00144769 -3.00182e-07 0)
(0.0014478 -3.01196e-07 0)
(0.0014479 -3.01546e-07 0)
(0.00144801 -3.0108e-07 0)
(0.00144812 -2.99627e-07 0)
(0.00144823 -2.97013e-07 0)
(0.00144834 -2.93072e-07 0)
(0.00144845 -2.87698e-07 0)
(0.00144856 -2.80892e-07 0)
(0.00144867 -2.72871e-07 0)
(0.00143911 -3.37201e-07 0)
(0.00143916 -3.61384e-07 0)
(0.00143921 -3.85995e-07 0)
(0.00143927 -4.0937e-07 0)
(0.00143933 -4.33594e-07 0)
(0.00143939 -4.57845e-07 0)
(0.00143945 -4.8335e-07 0)
(0.00143952 -5.10025e-07 0)
(0.00143958 -5.38447e-07 0)
(0.00143965 -5.68902e-07 0)
(0.00143972 -6.01666e-07 0)
(0.0014398 -6.37152e-07 0)
(0.00143988 -6.7555e-07 0)
(0.00143996 -7.17278e-07 0)
(0.00144005 -7.62524e-07 0)
(0.00144014 -8.11651e-07 0)
(0.00144024 -8.6484e-07 0)
(0.00144034 -9.2235e-07 0)
(0.00144044 -9.84284e-07 0)
(0.00144055 -1.05072e-06 0)
(0.00144067 -1.12154e-06 0)
(0.0014408 -1.1965e-06 0)
(0.00144093 -1.27507e-06 0)
(0.00144107 -1.35644e-06 0)
(0.00144122 -1.43938e-06 0)
(0.00144138 -1.52218e-06 0)
(0.00144155 -1.60254e-06 0)
(0.00144173 -1.67749e-06 0)
(0.00144192 -1.74331e-06 0)
(0.00144212 -1.79561e-06 0)
(0.00144233 -1.82938e-06 0)
(0.00144255 -1.83946e-06 0)
(0.00144277 -1.8211e-06 0)
(0.00144299 -1.77116e-06 0)
(0.0014432 -1.6891e-06 0)
(0.0014434 -1.57878e-06 0)
(0.00144359 -1.44687e-06 0)
(0.00144376 -1.30107e-06 0)
(0.00144391 -1.14874e-06 0)
(0.00144403 -9.96845e-07 0)
(0.00144415 -8.50922e-07 0)
(0.00144425 -7.163e-07 0)
(0.00144433 -5.96171e-07 0)
(0.0014444 -4.93733e-07 0)
(0.00144447 -4.09564e-07 0)
(0.00144454 -3.43625e-07 0)
(0.0014446 -2.93333e-07 0)
(0.00144466 -2.56476e-07 0)
(0.00144472 -2.30418e-07 0)
(0.00144478 -2.13021e-07 0)
(0.00144485 -2.02453e-07 0)
(0.00144491 -1.96993e-07 0)
(0.00144498 -1.95532e-07 0)
(0.00144505 -1.96833e-07 0)
(0.00144512 -2.00268e-07 0)
(0.00144519 -2.05037e-07 0)
(0.00144526 -2.10771e-07 0)
(0.00144534 -2.17019e-07 0)
(0.00144541 -2.23552e-07 0)
(0.00144549 -2.30151e-07 0)
(0.00144557 -2.36685e-07 0)
(0.00144565 -2.43058e-07 0)
(0.00144573 -2.49211e-07 0)
(0.00144581 -2.55113e-07 0)
(0.00144589 -2.60751e-07 0)
(0.00144598 -2.66125e-07 0)
(0.00144606 -2.71246e-07 0)
(0.00144615 -2.76131e-07 0)
(0.00144624 -2.80798e-07 0)
(0.00144633 -2.85269e-07 0)
(0.00144642 -2.89565e-07 0)
(0.00144651 -2.93705e-07 0)
(0.0014466 -2.97706e-07 0)
(0.00144669 -3.01582e-07 0)
(0.00144679 -3.05342e-07 0)
(0.00144688 -3.0899e-07 0)
(0.00144698 -3.12523e-07 0)
(0.00144708 -3.15932e-07 0)
(0.00144717 -3.19198e-07 0)
(0.00144727 -3.22293e-07 0)
(0.00144737 -3.25178e-07 0)
(0.00144748 -3.27796e-07 0)
(0.00144758 -3.30077e-07 0)
(0.00144768 -3.31928e-07 0)
(0.00144779 -3.33237e-07 0)
(0.00144789 -3.33861e-07 0)
(0.001448 -3.33633e-07 0)
(0.00144811 -3.32354e-07 0)
(0.00144822 -3.29807e-07 0)
(0.00144833 -3.25759e-07 0)
(0.00144844 -3.20017e-07 0)
(0.00144855 -3.12473e-07 0)
(0.00144866 -3.03247e-07 0)
(0.00143914 -3.68916e-07 0)
(0.00143919 -3.95469e-07 0)
(0.00143924 -4.22642e-07 0)
(0.0014393 -4.48153e-07 0)
(0.00143935 -4.74669e-07 0)
(0.00143942 -5.01166e-07 0)
(0.00143948 -5.29053e-07 0)
(0.00143954 -5.58211e-07 0)
(0.00143961 -5.89258e-07 0)
(0.00143968 -6.2249e-07 0)
(0.00143975 -6.58194e-07 0)
(0.00143983 -6.96798e-07 0)
(0.00143991 -7.38508e-07 0)
(0.00144 -7.83758e-07 0)
(0.00144008 -8.32758e-07 0)
(0.00144018 -8.85892e-07 0)
(0.00144027 -9.4337e-07 0)
(0.00144037 -1.00548e-06 0)
(0.00144048 -1.07236e-06 0)
(0.00144059 -1.14413e-06 0)
(0.00144071 -1.22072e-06 0)
(0.00144083 -1.30193e-06 0)
(0.00144096 -1.38728e-06 0)
(0.0014411 -1.476e-06 0)
(0.00144124 -1.56688e-06 0)
(0.00144139 -1.65821e-06 0)
(0.00144156 -1.74762e-06 0)
(0.00144173 -1.83197e-06 0)
(0.00144191 -1.90725e-06 0)
(0.0014421 -1.9685e-06 0)
(0.0014423 -2.0099e-06 0)
(0.00144251 -2.02511e-06 0)
(0.00144273 -2.00795e-06 0)
(0.00144295 -1.9539e-06 0)
(0.00144315 -1.86153e-06 0)
(0.00144335 -1.73606e-06 0)
(0.00144353 -1.58625e-06 0)
(0.00144369 -1.42154e-06 0)
(0.00144384 -1.25052e-06 0)
(0.00144396 -1.08098e-06 0)
(0.00144408 -9.19015e-07 0)
(0.00144417 -7.70467e-07 0)
(0.00144426 -6.38845e-07 0)
(0.00144433 -5.27732e-07 0)
(0.0014444 -4.37905e-07 0)
(0.00144447 -3.68908e-07 0)
(0.00144454 -3.17164e-07 0)
(0.0014446 -2.7976e-07 0)
(0.00144467 -2.53625e-07 0)
(0.00144474 -2.36367e-07 0)
(0.0014448 -2.26041e-07 0)
(0.00144487 -2.20818e-07 0)
(0.00144495 -2.19601e-07 0)
(0.00144502 -2.21102e-07 0)
(0.00144509 -2.24731e-07 0)
(0.00144517 -2.29671e-07 0)
(0.00144524 -2.35574e-07 0)
(0.00144532 -2.4199e-07 0)
(0.0014454 -2.48695e-07 0)
(0.00144547 -2.55475e-07 0)
(0.00144555 -2.62197e-07 0)
(0.00144563 -2.6877e-07 0)
(0.00144572 -2.75132e-07 0)
(0.0014458 -2.81254e-07 0)
(0.00144588 -2.87121e-07 0)
(0.00144597 -2.92733e-07 0)
(0.00144605 -2.98099e-07 0)
(0.00144614 -3.03236e-07 0)
(0.00144623 -3.08161e-07 0)
(0.00144632 -3.12896e-07 0)
(0.00144641 -3.17459e-07 0)
(0.0014465 -3.21871e-07 0)
(0.00144659 -3.26147e-07 0)
(0.00144668 -3.30301e-07 0)
(0.00144678 -3.34341e-07 0)
(0.00144687 -3.38271e-07 0)
(0.00144697 -3.42089e-07 0)
(0.00144706 -3.45785e-07 0)
(0.00144716 -3.49342e-07 0)
(0.00144726 -3.52731e-07 0)
(0.00144736 -3.55913e-07 0)
(0.00144746 -3.58834e-07 0)
(0.00144757 -3.61422e-07 0)
(0.00144767 -3.63585e-07 0)
(0.00144777 -3.65206e-07 0)
(0.00144788 -3.66139e-07 0)
(0.00144799 -3.66203e-07 0)
(0.00144809 -3.65177e-07 0)
(0.0014482 -3.628e-07 0)
(0.00144831 -3.58772e-07 0)
(0.00144842 -3.52796e-07 0)
(0.00144853 -3.44605e-07 0)
(0.00144865 -3.34141e-07 0)
(0.00143916 -4.01512e-07 0)
(0.00143922 -4.30389e-07 0)
(0.00143927 -4.59957e-07 0)
(0.00143932 -4.87533e-07 0)
(0.00143938 -5.16075e-07 0)
(0.00143944 -5.4477e-07 0)
(0.00143951 -5.7486e-07 0)
(0.00143957 -6.06464e-07 0)
(0.00143964 -6.40027e-07 0)
(0.00143971 -6.7599e-07 0)
(0.00143979 -7.14547e-07 0)
(0.00143986 -7.56202e-07 0)
(0.00143995 -8.01125e-07 0)
(0.00144003 -8.49791e-07 0)
(0.00144012 -9.0241e-07 0)
(0.00144021 -9.59394e-07 0)
(0.00144031 -1.02097e-06 0)
(0.00144041 -1.08747e-06 0)
(0.00144052 -1.15905e-06 0)
(0.00144063 -1.23589e-06 0)
(0.00144075 -1.31797e-06 0)
(0.00144087 -1.40513e-06 0)
(0.001441 -1.49698e-06 0)
(0.00144113 -1.59281e-06 0)
(0.00144127 -1.69149e-06 0)