/*--------------------------------*- C++ -*----------------------------------*\
| =========                 |                                                 |
| \\      /  F ield         | OpenFOAM: The Open Source CFD Toolbox           |
|  \\    /   O peration     | Version:  4.1                                   |
|   \\  /    A nd           | Web:      www.OpenFOAM.org                      |
|    \\/     M anipulation  |                                                 |
\*---------------------------------------------------------------------------*/
FoamFile
{
    version     2.0;
    format      ascii;
    class       volScalarField;
    location    "0.000550";
    object      nut;
}
// * * * * * * * * * * * * * * * * * * * * * * * * * * * * * * * * * * * * * //

dimensions      [0 2 -1 0 0 0 0];

internalField   nonuniform List<scalar> 
3072
(
0.00023573449
0.00018224317
0.00016722939
0.00016183018
0.00016040719
0.00016087922
0.0001626514
0.0001652657
0.00016894514
0.00017365099
0.00017945428
0.00018637555
0.00019432979
0.00020337717
0.00021322079
0.00022404635
0.00023542842
0.000247152
0.00025855553
0.00026884501
0.00027748453
0.00028395925
0.00028902527
0.00029290148
0.00031230649
0.0002576883
0.00023549203
0.00022651927
0.00022339777
0.00022294416
0.0002241577
0.00022645816
0.00023025319
0.00023525538
0.00024182475
0.00024984983
0.00025930496
0.00027023904
0.00028224991
0.00029555043
0.00030955245
0.00032409081
0.00033828988
0.0003511744
0.00036200806
0.00037009276
0.00037645047
0.00038151517
0.00037033063
0.00030971451
0.00028232644
0.00027073185
0.00026586407
0.00026401649
0.00026410683
0.00026565977
0.00026893918
0.00027383264
0.00028057443
0.00028908779
0.00029933052
0.00031134483
0.00032479005
0.00033970345
0.00035552716
0.00037207693
0.00038844139
0.00040355802
0.00041651716
0.00042639302
0.00043417738
0.00044038522
0.0004252418
0.00036249276
0.00033052375
0.00031576429
0.00030855068
0.00030464914
0.00030299579
0.00030330026
0.00030540114
0.00030961391
0.00031585284
0.00032424591
0.00033466079
0.00034713467
0.00036147009
0.00037752939
0.00039492519
0.00041333504
0.00043193285
0.00044957122
0.00046510098
0.00047728888
0.00048681403
0.00049431886
0.0004728026
0.00041649004
0.00038221518
0.00036421544
0.00035386056
0.00034703256
0.00034261132
0.00034052344
0.00034011307
0.00034229954
0.00034672504
0.00035373377
0.00036323491
0.00037508571
0.00038938446
0.00040579538
0.00042425095
0.00044414601
0.00046486839
0.00048505151
0.00050332374
0.00051804116
0.00052935331
0.00053805384
0.00050084989
0.00046466388
0.00043171897
0.00041093301
0.00039621263
0.00038505178
0.00037635182
0.00036957724
0.00036546156
0.00036359983
0.00036492185
0.00036897792
0.00037630816
0.00038648019
0.00039989868
0.00041607649
0.0004352023
0.00045654623
0.00047961716
0.00050275156
0.00052436107
0.00054227066
0.00055591951
0.00056619515
0.00048101427
0.00048199705
0.00045496248
0.00043145019
0.00041210681
0.00039551187
0.00038122445
0.00036898141
0.00035972445
0.00035344975
0.00035081189
0.00035155621
0.0003559922
0.00036429894
0.00037631777
0.00039223724
0.00041180401
0.00043491225
0.00046065059
0.00048746908
0.00051329235
0.00053542778
0.00055247788
0.000565273
0.00036689312
0.00040157187
0.00038224404
0.00036078086
0.00034025591
0.00032194115
0.00030615171
0.0002932045
0.00028347618
0.00027719354
0.0002744245
0.00027531001
0.00027950823
0.00028711373
0.00029809136
0.00031271531
0.00033121439
0.00035377968
0.00038027084
0.00040966907
0.00043973145
0.00046756414
0.00049046397
0.00050824235
0.00031233402
0.00025765685
0.00023542602
0.00022642267
0.00022328877
0.00022282247
0.00022402796
0.00022628245
0.00023003836
0.00023502414
0.00024158956
0.00024961372
0.00025906616
0.00026999988
0.00028202871
0.00029535726
0.00030939827
0.00032397753
0.00033821618
0.00035113668
0.00036199762
0.00037009402
0.00037643814
0.00038146458
0.00044162109
0.00038708787
0.00035680456
0.00034332699
0.00033731743
0.00033491754
0.0003344469
0.00033535534
0.0003382231
0.00034247591
0.0003489681
0.00035729895
0.00036756907
0.0003797269
0.00039318018
0.00040824768
0.00042400428
0.00044041134
0.00045627945
0.00047049006
0.0004821371
0.00049042852
0.00049673634
0.00050170654
0.00054056143
0.00047804553
0.00044028678
0.00042278239
0.00041396704
0.00040974587
0.00040799401
0.00040797648
0.00041027329
0.00041439868
0.00042105972
0.00042992239
0.0004409838
0.00045419289
0.00046882731
0.00048515383
0.00050220284
0.00051987843
0.00053702495
0.00055249813
0.00056532313
0.00057458727
0.00058161062
0.00058703452
0.00061957614
0.00055810798
0.00051774831
0.00049701665
0.00048592211
0.00047940923
0.00047572962
0.00047439727
0.00047527366
0.000478579
0.00048441592
0.00049276247
0.00050348716
0.00051652533
0.00053142079
0.00054802053
0.00056571672
0.00058415043
0.00060238971
0.00061925063
0.00063364303
0.00064450157
0.00065269315
0.00065899395
0.00067468287
0.00062196368
0.00058306802
0.00056045255
0.00054672272
0.0005375041
0.00053098407
0.00052704156
0.00052514842
0.00052598817
0.00052939195
0.00053565181
0.00054472107
0.0005562573
0.00057023801
0.00058618289
0.00060389868
0.0006226741
0.00064180636
0.00065999497
0.00067597408
0.00068843456
0.00069769185
0.00070467856
0.00069580113
0.00065927567
0.00062423788
0.00060054178
0.00058398281
0.00057094083
0.00056041835
0.00055206059
0.00054611834
0.00054302854
0.00054285134
0.00054600988
0.00055249283
0.00056217544
0.00057486456
0.00059030653
0.0006082072
0.0006278899
0.00064857434
0.00066881762
0.00068699889
0.00070144638
0.0007118533
0.00071929118
0.00064648275
0.00063118153
0.00060050035
0.00057527868
0.00055524099
0.00053809703
0.00052332017
0.00051094381
0.00050147615
0.00049547091
0.00049288084
0.0004937654
0.00049848247
0.00050660959
0.00051826423
0.00053335449
0.00055164661
0.00057255607
0.00059523624
0.00061822448
0.00063944494
0.00065674581
0.00066914928
0.00067775364
0.00048097
0.00048170152
0.00045458259
0.00043106482
0.00041177555
0.00039527265
0.00038111203
0.00036888474
0.0003595569
0.00035324387
0.00035041273
0.00035125769
0.00035582704
0.00036416882
0.00037622963
0.00039213667
0.00041172852
0.00043485145
0.00046056946
0.00048735673
0.0005132391
0.00053543551
0.00055255424
0.00056536714
0.00037030364
0.00030955136
0.00028208765
0.00027043925
0.00026552107
0.0002636283
0.00026369258
0.00026508957
0.00026827455
0.0002731285
0.00027985203
0.00028833845
0.00029856579
0.00031058643
0.00032406808
0.00033904421
0.00035496375
0.00037161655
0.00038807758
0.0004032742
0.00041629307
0.00042618858
0.00043393657
0.00044005302
0.00054050715
0.00047792227
0.00044010234
0.0004225364
0.00041368514
0.00040940093
0.00040754862
0.00040743022
0.00040962842
0.00041371523
0.00042036958
0.00042920014
0.00044023749
0.0004534451
0.00046810952
0.00048448847
0.00050161392
0.00051938779
0.00053662146
0.00055216227
0.00056503235
0.00057430924
0.00058131291
0.00058668348
0.00066480134
0.00060069722
0.00055704197
0.00053489715
0.00052276304
0.00051657275
0.00051362578
0.0005129272
0.00051494804
0.00051899066
0.00052590702
0.00053524515
0.00054692294
0.00056087548
0.0005762063
0.00059318117
0.00061078719
0.00062887354
0.00064641286
0.0006623494
0.00067576987
0.00068581035
0.00069361442
0.00069970567
0.00074608526
0.00069180868
0.00065049243
0.00062726163
0.00061360947
0.0006055599
0.00060092523
0.00059900932
0.00059972467
0.00060292903
0.0006088464
0.00061733078
0.00062817361
0.00064127406
0.000655995
0.00067224179
0.0006893935
0.00070706935
0.00072451524
0.00074075031
0.00075487493
0.00076607989
0.0007750005
0.00078219005
0.00078601991
0.00074268523
0.00070623902
0.00068363633
0.00066888238
0.0006591584
0.00065252572
0.00064867399
0.00064725557
0.00064847028
0.00065234065
0.00065893473
0.00066815451
0.00067963584
0.00069316177
0.00070832043
0.00072492219
0.00074230216
0.00075984178
0.00077650718
0.00079130232
0.00080336928
0.00081289153
0.00082050657
0.00077977192
0.00074319242
0.00070928626
0.00068663067
0.00067068977
0.00065903294
0.00065036071
0.00064419341
0.00064042537
0.00063931457
0.00064109524
0.00064583022
0.00065341428
0.00066367421
0.00067634581
0.00069118864
0.00070790089
0.00072589485
0.0007443584
0.00076217932
0.00077801934
0.00079076151
0.00080027729
0.00080743708
0.0006955919
0.00065898477
0.00062388343
0.00060006074
0.00058337505
0.00057049309
0.00056004741
0.00055170221
0.0005455936
0.00054247843
0.00054248252
0.00054588325
0.00055238277
0.00056207923
0.00057471607
0.00059016795
0.00060812324
0.00062786096
0.00064860686
0.00066889153
0.00068709067
0.00070156857
0.00071203011
0.00071952994
0.00050079802
0.00046439901
0.00043130508
0.00041038683
0.00039568377
0.00038452244
0.00037588981
0.00036913613
0.00036496967
0.00036309547
0.00036444483
0.00036854536
0.0003758737
0.00038604801
0.00039944805
0.00041561737
0.00043482165
0.00045626866
0.00047944671
0.00050266986
0.00052435685
0.00054231522
0.00055601023
0.00056627802
0.00042518415
0.00036226672
0.00033021017
0.00031537059
0.00030807512
0.00030409312
0.0003023017
0.00030243119
0.00030439778
0.00030854635
0.00031473856
0.00032309164
0.00033350233
0.0003460041
0.00036041331
0.00037658027
0.00039409959
0.00041263286
0.00043135038
0.00044909928
0.00046471908
0.00047694213
0.0004864338
0.00049383289
0.00061950678
0.00055795247
0.00051753519
0.00049672118
0.00048553438
0.00047895282
0.00047509628
0.00047345264
0.00047415586
0.00047738819
0.00048319328
0.00049148392
0.0005021901
0.00051526189
0.00053025364
0.00054697901
0.00056479397
0.00058334912
0.00060170428
0.00061868174
0.00063317186
0.00064407981
0.00065227443
0.00065851894
0.00074605061
0.00069173789
0.00065037287
0.00062707733
0.0006133733
0.00060530147
0.00060062624
0.00059849463
0.00059912053
0.00060229732
0.00060823175
0.00061671438
0.00062757088
0.00064070228
0.00065547987
0.00067178417
0.000688981
0.00070670489
0.00072419929
0.00074050139
0.00075469836
0.00076596427
0.00077492909
0.00078212502
0.00080885664
0.00076560936
0.00072887926
0.00070651689
0.0006921606
0.00068336513
0.00067817952
0.00067589412
0.00067643238
0.0006795109
0.00068530007
0.00069360269
0.000704215
0.00071680093
0.00073080919
0.00074613846
0.00076233411
0.00077901676
0.00079557986
0.00081125383
0.00082526528
0.00083702374
0.00084678173
0.00085494383
0.00082254894
0.00078399172
0.00074996508
0.00072844483
0.00071412687
0.00070496344
0.00069935128
0.00069661652
0.0006965527
0.00069913995
0.00070435775
0.00071214853
0.00072226724
0.00073421949
0.00074769291
0.00076245177
0.00077824152
0.00079462129
0.00081098968
0.000826551
0.00084053875
0.00085239907
0.00086220298
0.00087038558
0.00078566807
0.00074239799
0.00070594539
0.00068331433
0.00066845387
0.00065866453
0.00065215265
0.00064835131
0.00064695775
0.000648207
0.00065233532
0.00065910445
0.00066846382
0.00067986996
0.00069327626
0.00070834697
0.00072491476
0.00074239323
0.00076003518
0.00077673915
0.0007915455
0.00080360744
0.00081311515
0.00082072886
0.00067417603
0.00062151189
0.00058244774
0.00055957294
0.00054568793
0.0005364786
0.00053011594
0.00052627307
0.00052442424
0.00052532147
0.0005289534
0.00053541566
0.00054456123
0.00055601682
0.00056985444
0.00058572437
0.00060346394
0.00062239502
0.00064169232
0.00065997418
0.00067602641
0.00068855033
0.00069785697
0.00070487929
0.00047244803
0.00041579298
0.00038127614
0.00036315526
0.00035277499
0.00034602439
0.00034181706
0.00033982616
0.00033944908
0.00034164895
0.00034614458
0.00035324376
0.00036278126
0.00037460176
0.00038885451
0.00040526216
0.0004237792
0.00044379386
0.00046462946
0.00048489978
0.00050324266
0.0005180073
0.00052935361
0.0005380714
0.00047269852
0.00041633092
0.0003819164
0.00036382905
0.00035338192
0.00034642139
0.00034179217
0.00033940854
0.00033887989
0.00034098814
0.00034536587
0.00035235017
0.00036187136
0.00037378573
0.00038819082
0.00040473488
0.00042331815
0.00044332663
0.00046415741
0.00048446526
0.00050284715
0.00051762249
0.00052893747
0.00053755584
0.00067454939
0.00062177724
0.00058287753
0.00056013537
0.00054631573
0.00053697947
0.00053019785
0.00052591552
0.00052373273
0.00052446247
0.00052781606
0.00053406837
0.00054315564
0.00055479927
0.00056894435
0.00058505916
0.0006028827
0.00062174063
0.00064096375
0.00065928503
0.00067539508
0.00068795252
0.00069726561
0.00070421829
0.00078591348
0.00074247422
0.00070590887
0.0006832992
0.00066848015
0.00065866538
0.00065195805
0.00064790482
0.00064626135
0.00064743573
0.0006513013
0.00065795056
0.00066723659
0.00067883072
0.00069250235
0.00070774715
0.00072435448
0.00074174599
0.00075933993
0.00077610959
0.00079101758
0.00080318892
0.00081279222
0.0008204118
0.00082246007
0.00078382807
0.00074971937
0.00072813125
0.00071378807
0.00070460011
0.00069896131
0.0006962515
0.00069615347
0.00069869262
0.0007038988
0.00071170929
0.00072185408
0.0007338863
0.00074743514
0.00076221264
0.00077798485
0.00079437942
0.0008107871
0.00082639297
0.00084042084
0.00085232752
0.00086217415
0.00087036575
0.00080836728
0.00076530101
0.00072854316
0.00070605521
0.00069157853
0.00068268474
0.00067767667
0.00067559006
0.00067616454
0.00067941739
0.00068535198
0.00069397912
0.00070475821
0.00071732088
0.00073123276
0.00074645585
0.00076252835
0.00077924762
0.00079588561
0.00081154959
0.00082553292
0.00083726903
0.00084700239
0.00085514978
0.00074524917
0.00069116608
0.0006497017
0.00062633554
0.00061245454
0.00060433724
0.0005999629
0.00059835109
0.00059919086
0.00060259223
0.00060873642
0.00061759265
0.00062861819
0.00064156613
0.00065603551
0.00067210901
0.00068914139
0.00070694215
0.00072458368
0.00074094115
0.00075516857
0.00076644445
0.00077538704
0.00078258029
0.00061840093
0.00055686419
0.00051618797
0.00049525363
0.00048401829
0.00047763051
0.00047425541
0.00047326395
0.00047430466
0.00047780323
0.00048384651
0.00049245626
0.0005033128
0.00051624678
0.00053100246
0.00054753378
0.00056520317
0.00058375875
0.00060213427
0.00061906199
0.00063353315
0.00064446365
0.00065271251
0.00065909063
0.00042442076
0.00036126931
0.00032905743
0.00031421687
0.00030701928
0.00030326786
0.00030186687
0.00030238208
0.00030459118
0.00030887552
0.000315213
0.00032372425
0.00033420136
0.00034666225
0.00036098095
0.00037704787
0.00039447174
0.00041295862
0.0004316331
0.00044932204
0.00046491138
0.00047715616
0.00048670257
0.00049423286
0.00050071201
0.00046445808
0.00043143188
0.00041057323
0.00039583222
0.00038448784
0.00037557849
0.00036849886
0.00036410611
0.00036223768
0.00036352498
0.0003675679
0.00037493477
0.0003852247
0.0003987718
0.00041507618
0.00043430462
0.0004557371
0.00047888711
0.00050213709
0.00052386518
0.00054184935
0.00055553014
0.00056575913
0.00069558661
0.0006589636
0.00062383238
0.00060007386
0.00058344312
0.00057031316
0.00055953163
0.00055095123
0.00054476608
0.00054143728
0.00054124698
0.00054444285
0.00055101317
0.00056088693
0.00057378008
0.00058937539
0.00060733657
0.00062705406
0.00064781071
0.00066816676
0.00068649309
0.00070103958
0.00071147185
0.00071891523
0.00077954079
0.00074281406
0.00070877512
0.00068603313
0.00067002657
0.00065826454
0.00064945059
0.00064319077
0.00063936412
0.00063822475
0.00064006445
0.00064487205
0.0006525708
0.00066302783
0.00067592961
0.00069081802
0.00070744805
0.00072537923
0.00074386532
0.0007617511
0.00077767529
0.00079049982
0.00080007748
0.00080725622
0.00078547625
0.00074203977
0.00070545695
0.00068282478
0.00066789451
0.00065806196
0.00065158212
0.00064770166
0.00064633723
0.00064757325
0.00065170963
0.00065853463
0.00066799604
0.00067954825
0.00069312155
0.00070821984
0.00072472151
0.0007421455
0.00075977824
0.00077650035
0.00079135199
0.00080349393
0.00081307403
0.00082069189
0.00074511044
0.00069093803
0.00064943732
0.00062602998
0.00061224793
0.00060407276
0.00059971772
0.00059804709
0.00059888963
0.00060230399
0.00060849171
0.00061737866
0.0006284585
0.00064144417
0.00065598346
0.00067205893
0.00068908072
0.00070688363
0.00072452125
0.00074087397
0.00075511882
0.00076643202
0.00077540237
0.00078259818
0.00066344819
0.00059939575
0.00055554538
0.00053322547
0.00052104033
0.00051489932
0.00051238968
0.00051199457
0.00051422137
0.00051865934
0.00052589474
0.0005356336
0.00054742153
0.0005611765
0.0005762715
0.00059305774
0.00061050419
0.00062868596
0.00064638751
0.00066243214
0.00067599277
0.00068615634
0.00069402736
0.00070019352
0.00053856196
0.00047586629
0.00043781658
0.00042020067
0.00041141706
0.00040740885
0.00040614003
0.00040656818
0.00040914937
0.00041355221
0.00042048624
0.0004296218
0.00044077437
0.00045393533
0.00046854394
0.00048487099
0.00050184082
0.00051955749
0.00053672938
0.00055217934
0.00056504635
0.00057438008
0.00058147699
0.00058704195
0.00036893615
0.00030805282
0.00028055421
0.00026896999
0.00026420692
0.00026253353
0.00026287521
0.00026471092
0.00026814795
0.00027314229
0.00027998936
0.00028861337
0.00029892089
0.00031098461
0.00032448157
0.00033945549
0.00035527024
0.00037183697
0.00038819872
0.00040329873
0.00041627854
0.0004261839
0.00043397552
0.0004402224
0.00048082667
0.00048172432
0.00045463908
0.00043108381
0.00041168175
0.00039498698
0.00038057603
0.00036814873
0.00035879724
0.00035244049
0.00034968214
0.000350407
0.00035492206
0.00036337134
0.00037557488
0.00039160395
0.00041122391
0.00043436507
0.00046014082
0.00048705619
0.00051295612
0.00053508749
0.00055216713
0.00056494098
0.00064619352
0.00063076102
0.00060000844
0.00057473445
0.00055463749
0.00053737514
0.0005224428
0.00050993486
0.00050040395
0.00049435367
0.00049176898
0.00049273507
0.00049755004
0.00050586605
0.00051771221
0.00053292178
0.00055121093
0.00057208437
0.00059476886
0.00061777726
0.00063904934
0.00065640722
0.000668876
0.00067748374
0.00069528702
0.00065853469
0.00062334817
0.00059946129
0.00058273954
0.0005698019
0.00055923391
0.0005509725
0.00054484956
0.00054177812
0.0005417561
0.000545191
0.00055183058
0.00056173911
0.00057456084
0.0005900799
0.00060796353
0.00062763602
0.00064837866
0.00066869964
0.00068695765
0.0007014864
0.00071198628
0.000719488
0.00067393038
0.00062104289
0.00058192836
0.00055907432
0.00054518415
0.00053610391
0.0005296611
0.00052577538
0.00052395929
0.00052488545
0.00052856325
0.00053509164
0.00054434657
0.00055592242
0.00056989428
0.00058580623
0.00060349971
0.00062237022
0.00064162189
0.00065987722
0.00067596008
0.00068854998
0.00069790739
0.00070495471
0.00061829021
0.0005567205
0.00051604166
0.00049511036
0.00048395486
0.00047755453
0.00047417639
0.0004731198
0.00047415456
0.00047767312
0.00048375097
0.00049237625
0.00050326219
0.0005162044
0.00053099078
0.00054753592
0.00056521818
0.00058378299
0.00060213527
0.00061904187
0.0006335432
0.00064452225
0.00065280719
0.00065922237
0.00053856594
0.00047586929
0.00043784305
0.00042021065
0.00041154917
0.00040753552
0.00040627655
0.00040662032
0.00040918065
0.00041358055
0.0004205227
0.00042964814
0.0004407779
0.00045390742
0.00046847872
0.00048479695
0.00050179725
0.00051954681
0.00053672295
0.00055217395
0.00056506775
0.00057443338
0.00058156
0.00058717165
0.00043896031
0.00038435973
0.00035399437
0.00034057937
0.0003348348
0.00033280372
0.00033284534
0.00033421647
0.00033738232
0.00034189332
0.00034858813
0.00035709423
0.00036745345
0.00037969152
0.00039331026
0.0004085002
0.00042422585
0.00044057374
0.00045629309
0.00047031501
0.00048187496
0.00049016008
0.00049652171
0.00050168867
0.00031070629
0.00025602917
0.00023389828
0.00022505042
0.00022206669
0.00022180996
0.00022324609
0.00022579735
0.00022974508
0.00023482587
0.00024145082
0.0002495252
0.0002590298
0.00027005726
0.00028221412
0.00029562558
0.00030963673
0.00032414749
0.00033827038
0.00035106717
0.0003618584
0.00036992296
0.00037625735
0.0003813699
0.00036669812
0.00040129446
0.00038193698
0.00036046236
0.00033993303
0.00032159147
0.00030575237
0.00029274914
0.00028297528
0.00027665507
0.00027386868
0.00027478101
0.00027911826
0.0002867601
0.00029778502
0.00031246285
0.00033099235
0.00035355956
0.00038000019
0.00040932364
0.00043945434
0.00046735373
0.00049026684
0.00050805236
0.0004806557
0.00048131349
0.00045420325
0.00043068825
0.00041138933
0.00039484617
0.00038065814
0.00036839419
0.00035907866
0.00035272617
0.00034993072
0.00035083278
0.00035550171
0.00036394428
0.00037607973
0.00039203155
0.00041161018
0.00043470261
0.00046045562
0.00048729647
0.00051315699
0.00053533995
0.00055244463
0.00056528721
0.00050048896
0.00046402847
0.00043093431
0.00041004376
0.00039542728
0.00038418552
0.00037561274
0.00036873775
0.00036461768
0.00036274083
0.0003641145
0.00036828011
0.00037571517
0.00038601041
0.0003994998
0.00041570248
0.00043487444
0.00045627005
0.00047941172
0.00050260962
0.00052429646
0.00054227026
0.00055598643
0.00056631279
0.00047226001
0.00041569049
0.00038118831
0.00036301605
0.00035262861
0.00034594978
0.0003416331
0.00033961638
0.00033926193
0.00034149206
0.00034602142
0.00035315248
0.00036274279
0.00037462344
0.00038893377
0.0004053719
0.00042387638
0.00044385946
0.00046464814
0.00048487899
0.00050322392
0.00051801256
0.00052939072
0.00053815899
0.00042429792
0.0003612637
0.00032910191
0.00031427732
0.00030709607
0.00030332074
0.00030188216
0.00030238189
0.0003045979
0.000308894
0.00031523365
0.00032372988
0.00033420131
0.00034665499
0.00036098109
0.00037706937
0.00039451176
0.00041300232
0.00043164592
0.00044930797
0.00046490741
0.00047716951
0.00048674331
0.0004943245
0.00036889326
0.00030806436
0.00028060315
0.00026903652
0.0002642729
0.0002625824
0.00026294298
0.00026477849
0.0002682083
0.00027319843
0.00028003537
0.00028863595
0.00029892014
0.00031094891
0.00032443791
0.00033941781
0.00035525692
0.00037184172
0.00038819655
0.00040329216
0.00041628804
0.00042621678
0.00043403925
0.00044033888
0.00031063364
0.00025597355
0.00023387793
0.0002249936
0.00022204688
0.00022180129
0.000223262
0.00022581194
0.00022975479
0.00023483181
0.00024145304
0.00024952296
0.00025902281
0.00027003939
0.00028219275
0.00029560509
0.00030962587
0.00032414336
0.00033826575
0.00035106452
0.00036186208
0.000369938
0.00037628973
0.00038142759
0.00023486758
0.00018136865
0.0001664362
0.00016110725
0.00015976902
0.0001603463
0.00016222831
0.00016497745
0.00016874737
0.00017347902
0.00017928338
0.00018620229
0.00019416933
0.00020327283
0.00021320429
0.00022409026
0.00023547358
0.00024716985
0.00025851901
0.000268755
0.00027736675
0.00028382168
0.00028885241
0.00029276327
0.00016875425
0.00016730411
0.00016563728
0.00016369666
0.00016114592
0.00015809879
0.00015469798
0.00015121477
0.00014790412
0.00014482504
0.00014215584
0.00013979362
0.00013783493
0.00013626533
0.00013509039
0.00013439419
0.00013396018
0.00013389934
0.00013402986
0.00013439762
0.00013510242
0.00013616088
0.00013767271
0.00014976158
0.00019632006
0.00019441439
0.00019217935
0.00018948044
0.00018592956
0.00018170601
0.00017704561
0.00017227597
0.00016771304
0.00016340736
0.00015956497
0.00015611537
0.00015316678
0.0001507326
0.00014879331
0.00014744607
0.00014651743
0.00014609357
0.00014603503
0.00014640829
0.00014737273
0.00014922409
0.00015252385
0.00016941675
0.00022189502
0.0002195498
0.00021678969
0.00021337725
0.00020892785
0.00020372898
0.00019810802
0.00019243967
0.00018704426
0.00018198678
0.00017745924
0.00017341684
0.00016997001
0.00016712365
0.00016485722
0.00016324086
0.00016216259
0.00016169779
0.0001616792
0.00016225384
0.00016362688
0.00016626022
0.0001712852
0.00019042654
0.00025022086
0.00024734588
0.00024393641
0.00023960175
0.00023404097
0.00022769161
0.00022101078
0.00021443182
0.00020824314
0.00020256988
0.00019751917
0.000193112
0.0001894218
0.00018637981
0.00018406915
0.00018243175
0.00018149015
0.00018116341
0.000181451
0.00018246147
0.00018432083
0.00018783212
0.00019431431
0.00021317454
0.00028052245
0.00027661166
0.00027205191
0.00026626597
0.00025913304
0.0002513186
0.00024337709
0.00023586332
0.00022897331
0.00022290527
0.00021761883
0.0002131978
0.00020960716
0.00020686897
0.00020500399
0.00020390191
0.00020362314
0.00020392192
0.00020500397
0.00020675227
0.00020961609
0.00021424859
0.00022138417
0.00023496652
0.00030835119
0.0003025009
0.00029591937
0.00028786169
0.00027854178
0.00026893924
0.00025967715
0.00025131622
0.00024403703
0.00023791857
0.00023290641
0.00022903249
0.00022623946
0.00022450907
0.00022387408
0.00022416546
0.00022539648
0.00022732368
0.00022996302
0.0002333952
0.00023764247
0.00024361141
0.00024984996
0.0002475571
0.00032202476
0.00031369254
0.00030441935
0.00029358641
0.0002819767
0.00027074262
0.00026066234
0.00025197415
0.00024481008
0.00023919993
0.00023496096
0.0002320816
0.00023053181
0.0002302863
0.00023128774
0.0002334864
0.0002368155
0.00024118554
0.00024639385
0.00025237475
0.0002588191
0.00026635731
0.00026751952
0.00024277586
0.0002977888
0.00028935323
0.00027962861
0.00026856331
0.00025738028
0.00024711346
0.00023833305
0.00023114577
0.00022540723
0.00022092998
0.00021793694
0.00021642782
0.00021633617
0.00021761881
0.00022015266
0.00022387797
0.00022877895
0.00023453488
0.00024074102
0.00024726741
0.00025345605
0.0002599302
0.00025390052
0.00021742792
8.7187505e-05
8.7104716e-05
8.7117387e-05
8.7222792e-05
8.7403665e-05
8.764112e-05
8.7921992e-05
8.8238829e-05
8.858665e-05
8.8965558e-05
8.9371462e-05
8.9797398e-05
9.0228459e-05
9.0655726e-05
9.1074295e-05
9.1476897e-05
9.1869772e-05
9.2249542e-05
9.2646843e-05
9.3112239e-05
9.3781582e-05
9.5047892e-05
9.7711218e-05
0.00010804233
9.5391572e-05
9.5267599e-05
9.5243732e-05
9.5316248e-05
9.547019e-05
9.568594e-05
9.5949954e-05
9.6253521e-05
9.6590437e-05
9.6959187e-05
9.7353528e-05
9.7768745e-05
9.8192991e-05
9.8619902e-05
9.9044937e-05
9.946293e-05
9.9878467e-05
0.00010029249
0.00010072667
0.0001012266
0.0001019087
0.0001030925
0.00010543277
0.00011370087
0.00010231865
0.00010222886
0.00010223435
0.00010233156
0.00010250481
0.00010273371
0.00010300142
0.00010329665
0.00010361053
0.00010393873
0.00010427359
0.00010460855
0.00010493353
0.00010524281
0.0001055313
0.00010579671
0.00010604153
0.00010627139
0.00010650855
0.00010678595
0.00010718517
0.00010793289
0.00010946998
0.00011486712
0.00010723623
0.00010723759
0.0001073166
0.00010746836
0.00010767432
0.00010791125
0.00010815925
0.00010840431
0.00010863626
0.00010884835
0.00010903359
0.00010918572
0.00010929867
0.00010936865
0.00010939313
0.00010937327
0.00010931321
0.00010922666
0.00010911398
0.00010900977
0.00010896938
0.00010909444
0.00010958512
0.00011180454
0.00010930753
0.00010941838
0.00010957935
0.00010978282
0.00011000584
0.00011022164
0.00011040704
0.00011054654
0.00011063106
0.00011065472
0.00011061396
0.00011050573
0.00011033033
0.00011008959
0.00010978757
0.00010943068
0.00010901676
0.00010857219
0.00010810279
0.00010762121
0.00010713585
0.00010664147
0.00010612295
0.00010526183
0.00010786065
0.00010805538
0.00010827221
0.0001084982
0.00010870426
0.00010885951
0.00010893938
0.00010892912
0.00010882274
0.00010861898
0.00010832088
0.00010793311
0.00010746412
0.000106922
0.00010631311
0.00010565777
0.0001049719
0.00010426226
0.0001035325
0.00010278321
0.00010200139
0.00010106517
9.9750637e-05
9.6312932e-05
0.00010256468
0.00010277798
0.00010298984
0.00010318259
0.00010332295
0.00010337724
0.00010332077
0.00010314254
0.00010284286
0.00010242852
0.00010191107
0.00010130167
0.00010061243
9.9862951e-05
9.9062317e-05
9.8255189e-05
9.7464397e-05
9.6673247e-05
9.5878451e-05
9.5061806e-05
9.4166835e-05
9.302541e-05
9.1270544e-05
8.5963279e-05
9.3746092e-05
9.3897375e-05
9.4032491e-05
9.4130024e-05
9.4159681e-05
9.4092005e-05
9.3907432e-05
9.3599275e-05
9.3173235e-05
9.2657741e-05
9.2055627e-05
9.1384851e-05
9.0661587e-05
8.9902324e-05
8.9123547e-05
8.8341329e-05
8.7567749e-05
8.680955e-05
8.6061643e-05
8.5298064e-05
8.4449e-05
8.331736e-05
8.1464274e-05
7.5087135e-05
0.0002977904
0.00028936131
0.00027963282
0.0002685494
0.00025733947
0.00024704817
0.00023824274
0.00023103562
0.00022529646
0.00022078221
0.00021779141
0.00021628954
0.00021621956
0.00021751838
0.00022006691
0.00022381077
0.00022872937
0.00023449882
0.00024072153
0.00024726938
0.00025347727
0.00025996002
0.00025392435
0.00021744194
0.00032197978
0.00031368607
0.0003044254
0.00029358278
0.00028193962
0.00027064488
0.00026049168
0.00025173963
0.00024453315
0.0002389035
0.00023467081
0.00023179466
0.00023027097
0.00023005209
0.0002310841
0.0002332902
0.00023664123
0.00024104536
0.00024628812
0.00025228979
0.0002587418
0.00026627286
0.00026744327
0.00024271746
0.00030828864
0.00030248602
0.00029591113
0.00028783732
0.00027847371
0.00026880101
0.00025945955
0.00025103455
0.00024370783
0.00023756695
0.00023255108
0.0002286776
0.00022589829
0.0002241918
0.00022357069
0.00022386519
0.00022511351
0.00022708063
0.00022973684
0.00023315813
0.00023740263
0.00024336095
0.00024961992
0.00024737969
0.00028045658
0.0002765867
0.00027203235
0.00026623445
0.00025906518
0.00025119096
0.00024318354
0.00023561275
0.00022867873
0.00022258649
0.00021728493
0.00021285941
0.00020926518
0.00020652769
0.0002046646
0.00020357645
0.00020331815
0.00020362783
0.00020470674
0.00020644227
0.00020929054
0.00021391212
0.00022107608
0.00023472499
0.00025015021
0.00024730944
0.00024390302
0.00023955591
0.00023396787
0.00022757671
0.00022084881
0.00021422878
0.00020800514
0.00020230299
0.00019722378
0.00019279694
0.00018909758
0.0001860535
0.00018374752
0.00018212409
0.00018118993
0.00018085555
0.00018112476
0.00018210995
0.00018394799
0.00018745561
0.00019396408
0.0002128844
0.0002218297
0.00021950843
0.00021674897
0.00021332777
0.0002088627
0.00020364328
0.00019799792
0.00019230372
0.00018687902
0.00018178427
0.00017721413
0.00017314124
0.00016968325
0.00016683777
0.00016457818
0.00016297114
0.00016188882
0.00016140462
0.00016135633
0.00016189644
0.00016323891
0.00016585704
0.00017089702
0.00019008046
0.00019627605
0.00019438233
0.00019214696
0.00018944504
0.00018589066
0.0001816642
0.00017699764
0.00017221505
0.0001676278
0.00016328302
0.00015939361
0.00015590683
0.00015294209
0.0001505074
0.00014857522
0.00014723287
0.00014629168
0.00014583549
0.00014573633
0.00014606879
0.00014699899
0.00014882816
0.00015213235
0.00016904104
0.00016873376
0.00016728232
0.00016561365
0.00016367664
0.00016113112
0.00015809078
0.00015469387
0.0001512071
0.00014788052