/*--------------------------------*- C++ -*----------------------------------*\
| =========                 |                                                 |
| \\      /  F ield         | foam-extend: Open Source CFD                    |
|  \\    /   O peration     | Version:     4.1-20200408                       |
|   \\  /    A nd           | Web:         http://www.foam-extend.org         |
|    \\/     M anipulation  |                                                 |
\*---------------------------------------------------------------------------*/
FoamFile
{
    version     2.0;
    format      ascii;
    class       volVectorField;
    location    "0.0260000";
    object      DU;
}
// * * * * * * * * * * * * * * * * * * * * * * * * * * * * * * * * * * * * * //

dimensions      [0 1 0 0 0 0 0];

internalField   nonuniform List<vector> 
1952
(
(5.00014e-05 2.53442e-09 0)
(5.00014e-05 4.12012e-09 0)
(5.00014e-05 5.65318e-09 0)
(5.00013e-05 7.15523e-09 0)
(5.00013e-05 8.59675e-09 0)
(5.00012e-05 9.89735e-09 0)
(5.00012e-05 1.12149e-08 0)
(5.00011e-05 1.22456e-08 0)
(5.0001e-05 1.34173e-08 0)
(5.00009e-05 1.41466e-08 0)
(5.00008e-05 1.51556e-08 0)
(5.00005e-05 1.55888e-08 0)
(5.00002e-05 1.63611e-08 0)
(4.99993e-05 1.64724e-08 0)
(4.99967e-05 1.6508e-08 0)
(5.00014e-05 1.09006e-09 0)
(5.00034e-05 1.89764e-09 0)
(5.00033e-05 3.0692e-09 0)
(5.00032e-05 4.22391e-09 0)
(5.00031e-05 5.32601e-09 0)
(5.0003e-05 6.3945e-09 0)
(5.00028e-05 7.34818e-09 0)
(5.00027e-05 8.28485e-09 0)
(5.00024e-05 9.03574e-09 0)
(5.00023e-05 9.79861e-09 0)
(5.00019e-05 1.0298e-08 0)
(5.00016e-05 1.08334e-08 0)
(5.00011e-05 1.10176e-08 0)
(5.00004e-05 1.1216e-08 0)
(4.99992e-05 1.09712e-08 0)
(4.99974e-05 1.06804e-08 0)
(5.00034e-05 8.14551e-10 0)
(5.00043e-05 1.47712e-09 0)
(5.00042e-05 2.38111e-09 0)
(5.00041e-05 3.28228e-09 0)
(5.00039e-05 4.1272e-09 0)
(5.00038e-05 4.9507e-09 0)
(5.00036e-05 5.67769e-09 0)
(5.00034e-05 6.37582e-09 0)
(5.0003e-05 6.93881e-09 0)
(5.00027e-05 7.46505e-09 0)
(5.00023e-05 7.81493e-09 0)
(5.00018e-05 8.11497e-09 0)
(5.00011e-05 8.19254e-09 0)
(5.00003e-05 8.20519e-09 0)
(4.99989e-05 7.9718e-09 0)
(4.99971e-05 7.7319e-09 0)
(5.00043e-05 6.33343e-10 0)
(5.00048e-05 1.12242e-09 0)
(5.00047e-05 1.80645e-09 0)
(5.00046e-05 2.48853e-09 0)
(5.00044e-05 3.12053e-09 0)
(5.00043e-05 3.73431e-09 0)
(5.0004e-05 4.26618e-09 0)
(5.00037e-05 4.7673e-09 0)
(5.00033e-05 5.15887e-09 0)
(5.0003e-05 5.50439e-09 0)
(5.00024e-05 5.71326e-09 0)
(5.00019e-05 5.86224e-09 0)
(5.00011e-05 5.85042e-09 0)
(5.00002e-05 5.79161e-09 0)
(4.99989e-05 5.58357e-09 0)
(4.99974e-05 5.4695e-09 0)
(5.00048e-05 4.81227e-10 0)
(5.00051e-05 8.20565e-10 0)
(5.0005e-05 1.31822e-09 0)
(5.00049e-05 1.81339e-09 0)
(5.00046e-05 2.26545e-09 0)
(5.00045e-05 2.70203e-09 0)
(5.00041e-05 3.06941e-09 0)
(5.00039e-05 3.40938e-09 0)
(5.00034e-05 3.65955e-09 0)
(5.0003e-05 3.86867e-09 0)
(5.00024e-05 3.97172e-09 0)
(5.00018e-05 4.0276e-09 0)
(5.00009e-05 3.97129e-09 0)
(5e-05 3.89683e-09 0)
(4.99989e-05 3.73844e-09 0)
(4.99976e-05 3.68528e-09 0)
(5.00051e-05 3.5183e-10 0)
(5.00051e-05 5.676e-10 0)
(5.0005e-05 9.09289e-10 0)
(5.00049e-05 1.24829e-09 0)
(5.00046e-05 1.55062e-09 0)
(5.00044e-05 1.84096e-09 0)
(5.00041e-05 2.07326e-09 0)
(5.00038e-05 2.28448e-09 0)
(5.00033e-05 2.42255e-09 0)
(5.00029e-05 2.53049e-09 0)
(5.00022e-05 2.55705e-09 0)
(5.00016e-05 2.55508e-09 0)
(5.00008e-05 2.47646e-09 0)
(4.99999e-05 2.40522e-09 0)
(4.99989e-05 2.28918e-09 0)
(4.99978e-05 2.2851e-09 0)
(5.00051e-05 2.43395e-10 0)
(5.00049e-05 3.57984e-10 0)
(5.00048e-05 5.70675e-10 0)
(5.00047e-05 7.81166e-10 0)
(5.00044e-05 9.60866e-10 0)
(5.00042e-05 1.13288e-09 0)
(5.00038e-05 1.25705e-09 0)
(5.00036e-05 1.3679e-09 0)
(5.0003e-05 1.42065e-09 0)
(5.00026e-05 1.45566e-09 0)
(5.00019e-05 1.43059e-09 0)
(5.00014e-05 1.39444e-09 0)
(5.00006e-05 1.30893e-09 0)
(4.99998e-05 1.24709e-09 0)
(4.99989e-05 1.16438e-09 0)
(4.9998e-05 1.1836e-09 0)
(5.0005e-05 1.53529e-10 0)
(5.00046e-05 1.86655e-10 0)
(5.00045e-05 2.94148e-10 0)
(5.00044e-05 4.00539e-10 0)
(5.00041e-05 4.81409e-10 0)
(5.00039e-05 5.59401e-10 0)
(5.00035e-05 5.98731e-10 0)
(5.00032e-05 6.32754e-10 0)
(5.00027e-05 6.22034e-10 0)
(5.00023e-05 6.0514e-10 0)
(5.00016e-05 5.45926e-10 0)
(5.00011e-05 4.89515e-10 0)
(5.00003e-05 4.03904e-10 0)
(4.99997e-05 3.51279e-10 0)
(4.99989e-05 2.9248e-10 0)
(4.99982e-05 3.23874e-10 0)
(5.00046e-05 8.00614e-11 0)
(5.00042e-05 4.85682e-11 0)
(5.0004e-05 7.15294e-11 0)
(5.00039e-05 9.48696e-11 0)
(5.00037e-05 9.74205e-11 0)
(5.00035e-05 1.01972e-10 0)
(5.00031e-05 7.60445e-11 0)
(5.00028e-05 5.23606e-11 0)
(5.00023e-05 -4.47491e-12 0)
(5.00019e-05 -5.76076e-11 0)
(5.00013e-05 -1.38632e-10 0)
(5.00008e-05 -2.06762e-10 0)
(5.00001e-05 -2.89459e-10 0)
(4.99996e-05 -3.35265e-10 0)
(4.99989e-05 -3.78486e-10 0)
(4.99983e-05 -3.45034e-10 0)
(5.00042e-05 2.0832e-11 0)
(5.00036e-05 -6.11326e-11 0)
(5.00035e-05 -1.051e-10 0)
(5.00034e-05 -1.47019e-10 0)
(5.00031e-05 -2.05564e-10 0)
(5.0003e-05 -2.57455e-10 0)
(5.00026e-05 -3.32743e-10 0)
(5.00023e-05 -3.99085e-10 0)
(5.00018e-05 -4.8887e-10 0)
(5.00015e-05 -5.67013e-10 0)
(5.00009e-05 -6.61723e-10 0)
(5.00005e-05 -7.36702e-10 0)
(4.99999e-05 -8.1591e-10 0)
(4.99994e-05 -8.57649e-10 0)
(4.99989e-05 -8.91634e-10 0)
(4.99984e-05 -8.61681e-10 0)
(5.00037e-05 -2.62358e-11 0)
(5.0003e-05 -1.47189e-10 0)
(5.00029e-05 -2.43464e-10 0)
(5.00028e-05 -3.35997e-10 0)
(5.00026e-05 -4.4154e-10 0)
(5.00024e-05 -5.36233e-10 0)
(5.0002e-05 -6.48286e-10 0)
(5.00018e-05 -7.45759e-10 0)
(5.00014e-05 -8.58684e-10 0)
(5.00011e-05 -9.53933e-10 0)
(5.00005e-05 -1.05701e-09 0)
(5.00002e-05 -1.13613e-09 0)
(4.99996e-05 -1.2123e-09 0)
(4.99993e-05 -1.25251e-09 0)
(4.99988e-05 -1.28208e-09 0)
(4.99984e-05 -1.25942e-09 0)
(5.00031e-05 -6.31702e-11 0)
(5.00024e-05 -2.13912e-10 0)
(5.00023e-05 -3.50593e-10 0)
(5.00022e-05 -4.81903e-10 0)
(5.0002e-05 -6.23171e-10 0)
(5.00018e-05 -7.49904e-10 0)
(5.00015e-05 -8.89007e-10 0)
(5.00013e-05 -1.00891e-09 0)
(5.00009e-05 -1.13788e-09 0)
(5.00006e-05 -1.24472e-09 0)
(5.00001e-05 -1.35284e-09 0)
(4.99999e-05 -1.4346e-09 0)
(4.99994e-05 -1.50859e-09 0)
(4.99991e-05 -1.54918e-09 0)
(4.99987e-05 -1.57768e-09 0)
(4.99984e-05 -1.56421e-09 0)
(5.00024e-05 -9.18167e-11 0)
(5.00017e-05 -2.65394e-10 0)
(5.00016e-05 -4.33132e-10 0)
(5.00016e-05 -5.9401e-10 0)
(5.00013e-05 -7.62285e-10 0)
(5.00013e-05 -9.12919e-10 0)
(5.00009e-05 -1.07179e-09 0)
(5.00008e-05 -1.20784e-09 0)
(5.00004e-05 -1.34784e-09 0)
(5.00002e-05 -1.46259e-09 0)
(4.99997e-05 -1.57371e-09 0)
(4.99995e-05 -1.6574e-09 0)
(4.99991e-05 -1.73006e-09 0)
(4.99989e-05 -1.77238e-09 0)
(4.99985e-05 -1.80199e-09 0)
(4.99984e-05 -1.79848e-09 0)
(5.00018e-05 -1.13927e-10 0)
(5.00011e-05 -3.05129e-10 0)
(5.0001e-05 -4.96759e-10 0)
(5.00009e-05 -6.80182e-10 0)
(5.00007e-05 -8.6891e-10 0)
(5.00006e-05 -1.03737e-09 0)
(5.00003e-05 -1.21072e-09 0)
(5.00002e-05 -1.35841e-09 0)
(4.99999e-05 -1.50601e-09 0)
(4.99998e-05 -1.62621e-09 0)
(4.99993e-05 -1.73913e-09 0)
(4.99992e-05 -1.82431e-09 0)
(4.99988e-05 -1.89639e-09 0)
(4.99987e-05 -1.94114e-09 0)
(4.99984e-05 -1.9731e-09 0)
(4.99982e-05 -1.97937e-09 0)
(5.00011e-05 -1.30998e-10 0)
(5.00004e-05 -3.36354e-10 0)
(5.00003e-05 -5.4671e-10 0)
(5.00003e-05 -7.47666e-10 0)
(5.00001e-05 -9.5219e-10 0)
(5e-05 -1.1343e-09 0)
(4.99998e-05 -1.31848e-09 0)
(4.99997e-05 -1.47487e-09 0)
(4.99994e-05 -1.62784e-09 0)
(4.99993e-05 -1.75202e-09 0)
(4.99989e-05 -1.86605e-09 0)
(4.99989e-05 -1.95255e-09 0)
(4.99985e-05 -2.02451e-09 0)
(4.99984e-05 -2.07194e-09 0)
(4.99982e-05 -2.10673e-09 0)
(4.99981e-05 -2.12196e-09 0)
(5.00004e-05 -1.44418e-10 0)
(4.99997e-05 -3.61674e-10 0)
(4.99996e-05 -5.872e-10 0)
(4.99996e-05 -8.02252e-10 0)
(4.99994e-05 -1.01944e-09 0)
(4.99994e-05 -1.21241e-09 0)
(4.99992e-05 -1.40506e-09 0)
(4.99992e-05 -1.56829e-09 0)
(4.99989e-05 -1.72529e-09 0)
(4.99989e-05 -1.85254e-09 0)
(4.99985e-05 -1.96738e-09 0)
(4.99985e-05 -2.05499e-09 0)
(4.99982e-05 -2.12707e-09 0)
(4.99982e-05 -2.17693e-09 0)
(4.9998e-05 -2.21444e-09 0)
(4.99979e-05 -2.23728e-09 0)
(4.99997e-05 -1.55303e-10 0)
(4.99989e-05 -3.83451e-10 0)
(4.99989e-05 -6.22036e-10 0)
(4.99989e-05 -8.49178e-10 0)
(4.99988e-05 -1.07723e-09 0)
(4.99988e-05 -1.27953e-09 0)
(4.99986e-05 -1.47937e-09 0)
(4.99986e-05 -1.64853e-09 0)
(4.99984e-05 -1.8089e-09 0)
(4.99984e-05 -1.93889e-09 0)
(4.99981e-05 -2.05441e-09 0)
(4.99982e-05 -2.14295e-09 0)
(4.99979e-05 -2.21516e-09 0)
(4.99979e-05 -2.26686e-09 0)
(4.99977e-05 -2.30651e-09 0)
(4.99977e-05 -2.33525e-09 0)
(4.9999e-05 -1.64667e-10 0)
(4.99982e-05 -4.03465e-10 0)
(4.99982e-05 -6.54091e-10 0)
(4.99982e-05 -8.92371e-10 0)
(4.99981e-05 -1.13046e-09 0)
(4.99982e-05 -1.34149e-09 0)
(4.9998e-05 -1.54801e-09 0)
(4.99981e-05 -1.72286e-09 0)
(4.99979e-05 -1.88642e-09 0)
(4.9998e-05 -2.01905e-09 0)
(4.99977e-05 -2.13526e-09 0)
(4.99978e-05 -2.2245e-09 0)
(4.99976e-05 -2.29662e-09 0)
(4.99976e-05 -2.34924e-09 0)
(4.99975e-05 -2.39007e-09 0)
(4.99975e-05 -2.42265e-09 0)
(4.99982e-05 -1.73273e-10 0)
(4.99975e-05 -4.23269e-10 0)
(4.99975e-05 -6.85864e-10 0)
(4.99975e-05 -9.3526e-10 0)
(4.99974e-05 -1.18342e-09 0)
(4.99975e-05 -1.40337e-09 0)
(4.99974e-05 -1.6167e-09 0)
(4.99975e-05 -1.79757e-09 0)
(4.99974e-05 -1.96453e-09 0)
(4.99975e-05 -2.10003e-09 0)
(4.99973e-05 -2.21702e-09 0)
(4.99974e-05 -2.30666e-09 0)
(4.99973e-05 -2.37831e-09 0)
(4.99974e-05 -2.43068e-09 0)
(4.99972e-05 -2.47142e-09 0)
(4.99973e-05 -2.50552e-09 0)
(4.99975e-05 -1.81789e-10 0)
(4.99967e-05 -4.43904e-10 0)
(4.99967e-05 -7.19032e-10 0)
(4.99968e-05 -9.80142e-10 0)
(4.99967e-05 -1.23897e-09 0)
(4.99969e-05 -1.46856e-09 0)
(4.99968e-05 -1.68927e-09 0)
(4.9997e-05 -1.87686e-09 0)
(4.99968e-05 -2.04767e-09 0)
(4.9997e-05 -2.18641e-09 0)
(4.99969e-05 -2.3043e-09 0)
(4.99971e-05 -2.394e-09 0)
(4.9997e-05 -2.46464e-09 0)
(4.99971e-05 -2.51535e-09 0)
(4.9997e-05 -2.55448e-09 0)
(4.9997e-05 -2.58755e-09 0)
(4.99967e-05 -1.90661e-10 0)
(4.99959e-05 -4.66171e-10 0)
(4.99959e-05 -7.54887e-10 0)
(4.99961e-05 -1.02879e-09 0)
(4.9996e-05 -1.29931e-09 0)
(4.99962e-05 -1.53971e-09 0)
(4.99962e-05 -1.76869e-09 0)
(4.99964e-05 -1.96402e-09 0)
(4.99963e-05 -2.13935e-09 0)
(4.99966e-05 -2.28183e-09 0)
(4.99965e-05 -2.4008e-09 0)
(4.99967e-05 -2.49015e-09 0)
(4.99966e-05 -2.55913e-09 0)
(4.99968e-05 -2.60657e-09 0)
(4.99967e-05 -2.64238e-09 0)
(4.99968e-05 -2.6716e-09 0)
(4.99959e-05 -2.00233e-10 0)
(4.99951e-05 -4.90379e-10 0)
(4.99951e-05 -7.93931e-10 0)
(4.99953e-05 -1.08193e-09 0)
(4.99953e-05 -1.36532e-09 0)
(4.99955e-05 -1.61792e-09 0)
(4.99955e-05 -1.85619e-09 0)
(4.99958e-05 -2.0605e-09 0)
(4.99958e-05 -2.24104e-09 0)
(4.99961e-05 -2.38791e-09 0)
(4.99961e-05 -2.5081e-09 0)
(4.99963e-05 -2.5967e-09 0)
(4.99963e-05 -2.66329e-09 0)
(4.99965e-05 -2.7057e-09 0)
(4.99965e-05 -2.73629e-09 0)
(4.99965e-05 -2.75861e-09 0)
(4.99951e-05 -2.10639e-10 0)
(4.99943e-05 -5.16542e-10 0)
(4.99943e-05 -8.36197e-10 0)
(4.99945e-05 -1.13962e-09 0)
(4.99945e-05 -1.43712e-09 0)
(4.99948e-05 -1.70338e-09 0)
(4.99948e-05 -1.95203e-09 0)
(4.99952e-05 -2.16662e-09 0)
(4.99952e-05 -2.35317e-09 0)
(4.99956e-05 -2.50507e-09 0)
(4.99956e-05 -2.62673e-09 0)
(4.9996e-05 -2.71408e-09 0)
(4.9996e-05 -2.77753e-09 0)
(4.99962e-05 -2.81299e-09 0)
(4.99962e-05 -2.83634e-09 0)
(4.99963e-05 -2.84846e-09 0)
(4.99942e-05 -2.21885e-10 0)
(4.99933e-05 -5.44109e-10 0)
(4.99934e-05 -8.80814e-10 0)
(4.99936e-05 -1.20075e-09 0)
(4.99937e-05 -1.51331e-09 0)
(4.9994e-05 -1.79459e-09 0)
(4.99941e-05 -2.05451e-09 0)
(4.99945e-05 -2.2807e-09 0)
(4.99946e-05 -2.47396e-09 0)
(4.99951e-05 -2.63165e-09 0)
(4.99952e-05 -2.75495e-09 0)
(4.99956e-05 -2.84064e-09 0)
(4.99957e-05 -2.90016e-09 0)
(4.9996e-05 -2.92669e-09 0)
(4.9996e-05 -2.94067e-09 0)
(4.99961e-05 -2.93905e-09 0)
(4.99933e-05 -2.33734e-10 0)
(4.99924e-05 -5.72116e-10 0)
(4.99925e-05 -9.26249e-10 0)
(4.99927e-05 -1.26328e-09 0)
(4.99928e-05 -1.59139e-09 0)
(4.99932e-05 -1.88873e-09 0)
(4.99933e-05 -2.16053e-09 0)
(4.99939e-05 -2.3995e-09 0)
(4.9994e-05 -2.60011e-09 0)
(4.99946e-05 -2.7643e-09 0)
(4.99947e-05 -2.88948e-09 0)
(4.99952e-05 -2.97309e-09 0)
(4.99954e-05 -3.02798e-09 0)
(4.99957e-05 -3.04347e-09 0)
(4.99958e-05 -3.04593e-09 0)
(4.99959e-05 -3.02673e-09 0)
(4.99923e-05 -2.45773e-10 0)
(4.99913e-05 -5.98833e-10 0)
(4.99914e-05 -9.69752e-10 0)
(4.99917e-05 -1.32355e-09 0)
(4.99919e-05 -1.66684e-09 0)
(4.99923e-05 -1.98068e-09 0)
(4.99925e-05 -2.26442e-09 0)
(4.99931e-05 -2.51711e-09 0)
(4.99934e-05 -2.72541e-09 0)
(4.9994e-05 -2.89686e-09 0)
(4.99942e-05 -3.02415e-09 0)
(4.99948e-05 -3.10539e-09 0)
(4.9995e-05 -3.15503e-09 0)
(4.99955e-05 -3.15746e-09 0)
(4.99956e-05 -3.14624e-09 0)
(4.99958e-05 -3.10544e-09 0)
(4.99913e-05 -2.5726e-10 0)
(4.99902e-05 -6.21908e-10 0)
(4.99904e-05 -1.00756e-09 0)
(4.99907e-05 -1.37655e-09 0)
(4.99909e-05 -1.73349e-09 0)
(4.99914e-05 -2.06341e-09 0)
(4.99917e-05 -2.35834e-09 0)
(4.99924e-05 -2.62524e-09 0)
(4.99927e-05 -2.84127e-09 0)
(4.99934e-05 -3.02065e-09 0)
(4.99938e-05 -3.15031e-09 0)
(4.99945e-05 -3.229e-09 0)
(4.99948e-05 -3.27298e-09 0)
(4.99953e-05 -3.26035e-09 0)
(4.99955e-05 -3.23341e-09 0)
(4.99957e-05 -3.16673e-09 0)
(4.99902e-05 -2.67185e-10 0)
(4.9989e-05 -6.37884e-10 0)
(4.99892e-05 -1.03417e-09 0)
(4.99896e-05 -1.41491e-09 0)
(4.99898e-05 -1.78224e-09 0)
(4.99904e-05 -2.12648e-09 0)
(4.99908e-05 -2.43077e-09 0)
(4.99915e-05 -2.71167e-09 0)
(4.9992e-05 -2.93499e-09 0)
(4.99928e-05 -3.12285e-09 0)
(4.99933e-05 -3.2552e-09 0)
(4.99941e-05 -3.33141e-09 0)
(4.99945e-05 -3.36963e-09 0)
(4.99951e-05 -3.34019e-09 0)
(4.99954e-05 -3.29574e-09 0)
(4.99957e-05 -3.19877e-09 0)
(4.9989e-05 -2.74064e-10 0)
(4.99878e-05 -6.42325e-10 0)
(4.9988e-05 -1.04248e-09 0)
(4.99884e-05 -1.42913e-09 0)
(4.99887e-05 -1.80131e-09 0)
(4.99894e-05 -2.15642e-09 0)
(4.99898e-05 -2.46663e-09 0)
(4.99907e-05 -2.76047e-09 0)
(4.99912e-05 -2.98984e-09 0)
(4.99922e-05 -3.18668e-09 0)
(4.99927e-05 -3.32193e-09 0)
(4.99937e-05 -3.39612e-09 0)
(4.99942e-05 -3.42884e-09 0)
(4.9995e-05 -3.3812e-09 0)
(4.99954e-05 -3.31778e-09 0)
(4.99958e-05 -3.18605e-09 0)
(4.99877e-05 -2.75991e-10 0)
(4.99864e-05 -6.29216e-10 0)
(4.99866e-05 -1.02288e-09 0)
(4.99871e-05 -1.40627e-09 0)
(4.99874e-05 -1.77483e-09 0)
(4.99882e-05 -2.13483e-09 0)
(4.99887e-05 -2.44562e-09 0)
(4.99897e-05 -2.74987e-09 0)
(4.99904e-05 -2.9833e-09 0)
(4.99915e-05 -3.1892e-09 0)
(4.99922e-05 -3.32779e-09 0)
(4.99933e-05 -3.40076e-09 0)
(4.9994e-05 -3.42899e-09 0)
(4.99949e-05 -3.36233e-09 0)
(4.99954e-05 -3.27918e-09 0)
(4.99959e-05 -3.10831e-09 0)
(4.99863e-05 -2.70385e-10 0)
(4.9985e-05 -5.91022e-10 0)
(4.99853e-05 -9.63296e-10 0)
(4.99858e-05 -1.33012e-09 0)
(4.99862e-05 -1.68263e-09 0)
(4.9987e-05 -2.03851e-09 0)
(4.99876e-05 -2.34169e-09 0)
(4.99887e-05 -2.65227e-09 0)
(4.99895e-05 -2.8862e-09 0)
(4.99908e-05 -3.10112e-09 0)
(4.99916e-05 -3.24318e-09 0)
(4.99929e-05 -3.31655e-09 0)
(4.99938e-05 -3.3419e-09 0)
(4.99949e-05 -3.25632e-09 0)
(4.99955e-05 -3.15349e-09 0)
(4.99962e-05 -2.93939e-09 0)
(4.99849e-05 -2.54009e-10 0)
(4.99836e-05 -5.18041e-10 0)
(4.99838e-05 -8.48196e-10 0)
(4.99844e-05 -1.17969e-09 0)
(4.99848e-05 -1.49884e-09 0)
(4.99858e-05 -1.83735e-09 0)
(4.99864e-05 -2.12151e-09 0)
(4.99877e-05 -2.43169e-09 0)
(4.99886e-05 -2.66123e-09 0)
(4.999e-05 -2.8843e-09 0)
(4.9991e-05 -3.03026e-09 0)
(4.99925e-05 -3.10631e-09 0)
(4.99936e-05 -3.1317e-09 0)
(4.99949e-05 -3.0285e-09 0)
(4.99957e-05 -2.90743e-09 0)
(4.99966e-05 -2.64658e-09 0)
(4.99835e-05 -2.22697e-10 0)
(4.99821e-05 -3.98324e-10 0)
(4.99824e-05 -6.58381e-10 0)
(4.9983e-05 -9.29059e-10 0)
(4.99835e-05 -1.19122e-09 0)
(4.99845e-05 -1.49392e-09 0)
(4.99852e-05 -1.74296e-09 0)
(4.99866e-05 -2.04309e-09 0)
(4.99876e-05 -2.26069e-09 0)
(4.99892e-05 -2.49052e-09 0)
(4.99904e-05 -2.64026e-09 0)
(4.99921e-05 -2.72255e-09 0)
(4.99934e-05 -2.75206e-09 0)
(4.9995e-05 -2.63434e-09 0)
(4.9996e-05 -2.49818e-09 0)
(4.99971e-05 -2.18805e-09 0)
(4.9982e-05 -1.71315e-10 0)
(4.99807e-05 -2.17139e-10 0)
(4.9981e-05 -3.70193e-10 0)
(4.99816e-05 -5.46113e-10 0)
(4.99821e-05 -7.19951e-10 0)
(4.99832e-05 -9.61599e-10 0)
(4.9984e-05 -1.15397e-09 0)
(4.99855e-05 -1.43005e-09 0)
(4.99866e-05 -1.62544e-09 0)
(4.99884e-05 -1.85928e-09 0)
(4.99898e-05 -2.01267e-09 0)
(4.99917e-05 -2.10596e-09 0)
(4.99933e-05 -2.14562e-09 0)
(4.99951e-05 -2.01883e-09 0)
(4.99964e-05 -1.87321e-09 0)
(4.99978e-05 -1.51275e-09 0)
(4.99806e-05 -9.3539e-11 0)
(4.99794e-05 4.32739e-11 0)
(4.99796e-05 4.49702e-11 0)
(4.99803e-05 8.08161e-12 0)
(4.99808e-05 -3.64763e-11 0)
(4.99819e-05 -1.83332e-10 0)
(4.99827e-05 -2.90178e-10 0)
(4.99843e-05 -5.22733e-10 0)
(4.99856e-05 -6.81381e-10 0)
(4.99875e-05 -9.14733e-10 0)
(4.99891e-05 -1.07074e-09 0)
(4.99913e-05 -1.18144e-09 0)
(4.99931e-05 -1.23929e-09 0)
(4.99953e-05 -1.11205e-09 0)
(4.9997e-05 -9.65832e-10 0)
(4.99987e-05 -5.56168e-10 0)
(4.99792e-05 1.82593e-11 0)
(4.99782e-05 4.03872e-10 0)
(4.99784e-05 6.20953e-10 0)
(4.99791e-05 7.7973e-10 0)
(4.99795e-05 9.17066e-10 0)
(4.99807e-05 9.09191e-10 0)
(4.99815e-05 9.25836e-10 0)
(4.99832e-05 7.63379e-10 0)
(4.99845e-05 6.61502e-10 0)
(4.99866e-05 4.35717e-10 0)
(4.99884e-05 2.79431e-10 0)
(4.99909e-05 1.43013e-10 0)
(4.9993e-05 5.64655e-11 0)
(4.99956e-05 1.713e-10 0)
(4.99976e-05 3.05038e-10 0)
(4.99998e-05 7.59701e-10 0)
(4.99781e-05 1.73081e-10 0)
(4.99774e-05 8.89114e-10 0)
(4.99775e-05 1.39731e-09 0)
(4.99782e-05 1.82328e-09 0)
(4.99785e-05 2.20902e-09 0)
(4.99797e-05 2.3976e-09 0)
(4.99805e-05 2.58697e-09 0)
(4.99821e-05 2.53101e-09 0)
(4.99835e-05 2.5132e-09 0)
(4.99857e-05 2.30653e-09 0)
(4.99877e-05 2.15444e-09 0)
(4.99904e-05 1.98251e-09 0)
(4.99929e-05 1.85384e-09 0)
(4.99959e-05 1.93817e-09 0)
(4.99984e-05 2.04072e-09 0)
(5.00011e-05 2.53189e-09 0)
(4.99773e-05 3.81422e-10 0)
(4.9977e-05 1.52626e-09 0)
(4.9977e-05 2.4184e-09 0)
(4.99776e-05 3.19997e-09 0)
(4.99778e-05 3.91719e-09 0)
(4.99789e-05 4.37524e-09 0)
(4.99796e-05 4.80112e-09 0)
(4.99811e-05 4.90012e-09 0)
(4.99825e-05 5.00426e-09 0)
(4.99848e-05 4.83427e-09 0)
(4.9987e-05 4.69539e-09 0)
(4.99899e-05 4.47659e-09 0)
(4.99928e-05 4.29003e-09 0)
(4.99962e-05 4.31885e-09 0)
(4.99993e-05 4.36466e-09 0)
(5.00026e-05 4.87801e-09 0)
(4.99769e-05 6.5499e-10 0)
(4.99772e-05 2.3454e-09 0)
(4.99771e-05 3.73328e-09 0)
(4.99776e-05 4.97841e-09 0)
(4.99776e-05 6.12904e-09 0)
(4.99785e-05 6.94906e-09 0)
(4.9979e-05 7.69256e-09 0)
(4.99804e-05 8.0119e-09 0)
(4.99817e-05 8.28929e-09 0)
(4.99839e-05 8.18403e-09 0)
(4.99862e-05 8.07386e-09 0)
(4.99894e-05 7.79742e-09 0)
(4.99927e-05 7.53489e-09 0)
(4.99966e-05 7.47521e-09 0)
(5.00004e-05 7.42988e-09 0)
(5.00044e-05 7.94321e-09 0)
(4.99772e-05 1.00668e-09 0)
(4.99783e-05 3.37709e-09 0)
(4.99781e-05 5.39234e-09 0)
(4.99784e-05 7.22966e-09 0)
(4.99781e-05 8.937e-09 0)
(4.99787e-05 1.02334e-08 0)
(4.99789e-05 1.13978e-08 0)
(4.998e-05 1.20236e-08 0)
(4.99811e-05 1.25453e-08 0)
(4.99832e-05 1.25476e-08 0)
(4.99855e-05 1.24941e-08 0)
(4.99888e-05 1.21522e-08 0)
(4.99925e-05 1.17963e-08 0)
(4.9997e-05 1.16057e-08 0)
(5.00015e-05 1.14249e-08 0)
(5.00064e-05 1.19054e-08 0)
(4.99783e-05 1.44961e-09 0)
(4.99806e-05 4.65129e-09 0)
(4.99801e-05 7.44529e-09 0)
(4.99801e-05 1.00254e-08 0)
(4.99794e-05 1.24355e-08 0)
(4.99797e-05 1.43488e-08 0)
(4.99794e-05 1.60629e-08 0)
(4.99801e-05 1.71093e-08 0)
(4.99808e-05 1.7972e-08 0)
(4.99826e-05 1.81481e-08 0)
(4.99849e-05 1.81977e-08 0)
(4.99882e-05 1.7792e-08 0)
(4.99922e-05 1.73291e-08 0)
(4.99973e-05 1.6955e-08 0)
(5.00026e-05 1.65819e-08 0)
(5.00086e-05 1.69811e-08 0)
(4.99806e-05 1.99659e-09 0)
(4.99843e-05 6.19231e-09 0)
(4.99835e-05 9.93354e-09 0)
(4.99832e-05 1.3427e-08 0)
(4.9982e-05 1.67092e-08 0)
(4.99817e-05 1.94072e-08 0)
(4.99808e-05 2.18309e-08 0)
(4.99809e-05 2.34464e-08 0)
(4.99811e-05 2.47826e-08 0)
(4.99824e-05 2.5233e-08 0)
(4.99843e-05 2.54639e-08 0)
(4.99876e-05 2.50152e-08 0)
(4.99918e-05 2.4445e-08 0)
(4.99975e-05 2.38261e-08 0)
(5.00038e-05 2.31903e-08 0)
(5.00111e-05 2.3437e-08 0)
(4.99844e-05 2.65802e-09 0)
(4.99899e-05 8.01538e-09 0)
(4.99887e-05 1.28843e-08 0)
(4.99879e-05 1.74784e-08 0)
(4.99861e-05 2.18229e-08 0)
(4.99851e-05 2.55024e-08 0)
(4.99834e-05 2.88297e-08 0)
(4.99827e-05 3.12055e-08 0)
(4.9982e-05 3.31941e-08 0)
(4.99826e-05 3.40705e-08 0)
(4.9984e-05 3.46098e-08 0)
(4.99869e-05 3.41794e-08 0)
(4.99913e-05 3.35329e-08 0)
(4.99974e-05 3.26097e-08 0)
(5.00048e-05 3.16343e-08 0)
(5.00136e-05 3.16296e-08 0)
(4.99901e-05 3.44033e-09 0)
(4.99976e-05 1.01181e-08 0)
(4.9996e-05 1.62972e-08 0)
(4.99948e-05 2.21868e-08 0)
(4.99922e-05 2.77983e-08 0)
(4.99903e-05 3.26811e-08 0)
(4.99876e-05 3.71411e-08 0)
(4.99858e-05 4.05173e-08 0)
(4.9984e-05 4.33968e-08 0)
(4.99835e-05 4.49212e-08 0)
(4.9984e-05 4.59719e-08 0)
(4.99863e-05 4.56932e-08 0)
(4.99905e-05 4.50677e-08 0)
(4.9997e-05 4.38117e-08 0)
(5.00055e-05 4.24441e-08 0)
(5.00162e-05 4.20654e-08 0)
(4.99979e-05 4.34242e-09 0)
(5.00081e-05 1.2474e-08 0)
(5.00059e-05 2.01327e-08 0)
(5.00041e-05 2.75068e-08 0)
(5.00006e-05 3.45926e-08 0)
(4.99977e-05 4.09172e-08 0)
(4.99938e-05 4.67695e-08 0)
(4.99907e-05 5.14375e-08 0)
(4.99874e-05 5.55145e-08 0)
(4.99855e-05 5.79996e-08 0)
(4.99847e-05 5.98669e-08 0)
(4.99859e-05 5.99822e-08 0)
(4.99896e-05 5.95741e-08 0)
(4.99962e-05 5.80157e-08 0)
(5.00059e-05 5.6246e-08 0)
(5.00187e-05 5.53192e-08 0)
(5.00085e-05 5.35271e-09 0)
(5.00215e-05 1.50213e-08 0)
(5.00188e-05 2.42944e-08 0)
(5.00163e-05 3.33147e-08 0)
(5.00119e-05 4.20644e-08 0)
(5.00078e-05 5.00677e-08 0)
(5.00025e-05 5.75891e-08 0)
(4.99978e-05 6.38858e-08 0)
(4.99927e-05 6.95404e-08 0)
(4.9989e-05 7.34106e-08 0)
(4.99863e-05 7.65393e-08 0)
(4.9986e-05 7.74519e-08 0)
(4.99885e-05 7.76018e-08 0)
(4.99948e-05 7.58536e-08 0)
(5.00055e-05 7.365e-08 0)
(5.00207e-05 7.18e-08 0)
(5.00221e-05 6.44461e-09 0)
(5.00383e-05 1.76551e-08 0)
(5.00351e-05 2.86149e-08 0)
(5.00318e-05 3.93858e-08 0)
(5.00264e-05 4.99412e-08 0)
(5.00211e-05 5.98285e-08 0)
(5.00142e-05 6.9285e-08 0)
(5.00077e-05 7.75727e-08 0)
(5.00006e-05 8.52535e-08 0)
(4.99947e-05 9.1071e-08 0)
(4.99896e-05 9.61192e-08 0)
(4.99869e-05 9.8539e-08 0)
(4.99875e-05 9.99601e-08 0)
(4.99926e-05 9.85095e-08 0)
(5.00039e-05 9.60255e-08 0)
(5.00219e-05 9.27265e-08 0)
(5.0039e-05 7.57296e-09 0)
(5.00586e-05 2.02204e-08 0)
(5.00549e-05 3.28425e-08 0)
(5.0051e-05 4.5374e-08 0)
(5.00446e-05 5.77864e-08 0)
(5.0038e-05 6.96825e-08 0)
(5.00295e-05 8.12743e-08 0)
(5.00212e-05 9.18823e-08 0)
(5.00118e-05 1.02051e-07 0)
(5.00034e-05 1.10487e-07 0)
(4.99954e-05 1.18363e-07 0)
(4.99897e-05 1.23495e-07 0)
(4.99872e-05 1.27755e-07 0)
(4.99898e-05 1.28394e-07 0)
(5.00003e-05 1.27508e-07 0)
(5.00212e-05 1.2394e-07 0)
(5.00595e-05 8.67114e-09 0)
(5.00825e-05 2.25107e-08 0)
(5.00784e-05 3.66388e-08 0)
(5.00738e-05 5.08038e-08 0)
(5.00665e-05 6.49822e-08 0)
(5.00587e-05 7.8864e-08 0)
(5.00487e-05 9.26373e-08 0)
(5.00386e-05 1.05741e-07 0)
(5.0027e-05 1.18705e-07 0)
(5.00161e-05 1.30316e-07 0)
(5.00051e-05 1.41885e-07 0)
(4.99961e-05 1.51106e-07 0)
(4.999e-05 1.60382e-07 0)
(4.99888e-05 1.66363e-07 0)
(4.99964e-05 1.72065e-07 0)
(5.00178e-05 1.7429e-07 0)
(5.00836e-05 9.65074e-09 0)
(5.01098e-05 2.42795e-08 0)
(5.01053e-05 3.9596e-08 0)
(5.01001e-05 5.50951e-08 0)
(5.0092e-05 7.07604e-08 0)
(5.00832e-05 8.63943e-08 0)
(5.0072e-05 1.02148e-07 0)
(5.00602e-05 1.17626e-07 0)
(5.00467e-05 1.33306e-07 0)
(5.00334e-05 1.48137e-07 0)
(5.00197e-05 1.63519e-07 0)
(5.00078e-05 1.77151e-07 0)
(4.99983e-05 1.92039e-07 0)
(4.99937e-05 2.04512e-07 0)
(4.99973e-05 2.19287e-07 0)
(5.00139e-05 2.31658e-07 0)
(5.01109e-05 1.04062e-08 0)
(5.01399e-05 2.5257e-08 0)
(5.01351e-05 4.12675e-08 0)
(5.01295e-05 5.76096e-08 0)
(5.01209e-05 7.42732e-08 0)
(5.01112e-05 9.1187e-08 0)
(5.00989e-05 1.08442e-07 0)
(5.00857e-05 1.25834e-07 0)
(5.00704e-05 1.43705e-07 0)
(5.00551e-05 1.61193e-07 0)
(5.00387e-05 1.79567e-07 0)
(5.00237e-05 1.96432e-07 0)
(5.00106e-05 2.14866e-07 0)
(5.0002e-05 2.3037e-07 0)
(5e-05 2.47945e-07 0)
(5.00083e-05 2.60954e-07 0)
(5.01411e-05 1.08221e-08 0)
(5.0172e-05 2.51763e-08 0)
(5.0167e-05 4.1212e-08 0)
(5.01612e-05 5.77193e-08 0)
(5.01521e-05 7.46913e-08 0)
(5.01419e-05 9.21944e-08 0)
(5.01287e-05 1.10237e-07 0)
(5.01144e-05 1.28836e-07 0)
(5.00975e-05 1.48128e-07 0)
(5.008e-05 1.67513e-07 0)
(5.00608e-05 1.87965e-07 0)
(5.00423e-05 2.07088e-07 0)
(5.00245e-05 2.27825e-07 0)
(5.001e-05 2.44884e-07 0)
(5.00004e-05 2.63474e-07 0)
(4.99989e-05 2.75658e-07 0)
(5.01733e-05 1.07845e-08 0)
(5.0205e-05 2.37936e-08 0)
(5.02e-05 3.90257e-08 0)
(5.0194e-05 5.48471e-08 0)
(5.01847e-05 7.12523e-08 0)
(5.01741e-05 8.84506e-08 0)
(5.01603e-05 1.06353e-07 0)
(5.01451e-05 1.25225e-07 0)
(5.01268e-05 1.44942e-07 0)
(5.01074e-05 1.65276e-07 0)
(5.00852e-05 1.86754e-07 0)
(5.00629e-05 2.07184e-07 0)
(5.00395e-05 2.29229e-07 0)
(5.00179e-05 2.46935e-07 0)
(4.99992e-05 2.65948e-07 0)
(4.99871e-05 2.77426e-07 0)
(5.02064e-05 1.01889e-08 0)
(5.02375e-05 2.0909e-08 0)
(5.02325e-05 3.43768e-08 0)
(5.02265e-05 4.85164e-08 0)
(5.02173e-05 6.33231e-08 0)
(5.02064e-05 7.91468e-08 0)
(5.01924e-05 9.57964e-08 0)
(5.01765e-05 1.13812e-07 0)
(5.01571e-05 1.32776e-07 0)
(5.0136e-05 1.52974e-07 0)
(5.01109e-05 1.74358e-07 0)
(5.00844e-05 1.95292e-07 0)
(5.00549e-05 2.17952e-07 0)
(5.00251e-05 2.35859e-07 0)
(4.99962e-05 2.55517e-07 0)
(4.99732e-05 2.66135e-07 0)
(5.02388e-05 8.95008e-09 0)
(5.02679e-05 1.63725e-08 0)
(5.0263e-05 2.70135e-08 0)
(5.02571e-05 3.83579e-08 0)
(5.02481e-05 5.04e-08 0)
(5.02373e-05 6.36149e-08 0)
(5.02233e-05 7.77079e-08 0)
(5.0207e-05 9.34906e-08 0)
(5.01869e-05 1.10265e-07 0)
(5.01644e-05 1.28974e-07 0)
(5.01367e-05 1.48879e-07 0)
(5.01065e-05 1.69437e-07 0)
(5.00704e-05 1.91894e-07 0)
(5.00317e-05 2.09945e-07 0)
(4.99913e-05 2.31222e-07 0)
(4.9955e-05 2.40332e-07 0)
(5.02692e-05 7.00391e-09 0)
(5.02943e-05 1.01156e-08 0)
(5.02897e-05 1.68175e-08 0)
(5.0284e-05 2.41892e-08 0)
(5.02753e-05 3.22231e-08 0)
(5.02647e-05 4.14895e-08 0)
(5.02509e-05 5.15934e-08 0)
(5.02346e-05 6.35853e-08 0)
(5.02142e-05 7.65462e-08 0)
(5.01908e-05 9.21026e-08 0)
(5.01613e-05 1.08757e-07 0)
(5.01278e-05 1.2765e-07 0)
(5.00856e-05 1.48359e-07 0)
(5.00382e-05 1.66697e-07 0)
(4.99846e-05 1.89913e-07 0)
(4.99291e-05 1.977e-07 0)
(5.02956e-05 4.32157e-09 0)
(5.03146e-05 2.31865e-09 0)
(5.03102e-05 4.08277e-09 0)
(5.03048e-05 6.42181e-09 0)
(5.02964e-05 9.3306e-09 0)
(5.02861e-05 1.3449e-08 0)
(5.02727e-05 1.83098e-08 0)
(5.02565e-05 2.51954e-08 0)
(5.02366e-05 3.28781e-08 0)
(5.02132e-05 4.33012e-08 0)
(5.0183e-05 5.42732e-08 0)
(5.01476e-05 6.89414e-08 0)
(5.01009e-05 8.44339e-08 0)
(5.00463e-05 1.01298e-07 0)
(4.99781e-05 1.21921e-07 0)
(4.98945e-05 1.26534e-07 0)
(5.03158e-05 9.79576e-10 0)
(5.03297e-05 -6.62554e-09 0)
(5.03256e-05 -1.05508e-08 0)
(5.03204e-05 -1.40591e-08 0)
(5.03126e-05 -1.71659e-08 0)
(5.03029e-05 -1.92775e-08 0)
(5.02902e-05 -2.09407e-08 0)
(5.02745e-05 -2.08421e-08 0)
(5.02545e-05 -2.0661e-08 0)
(5.02304e-05 -1.85608e-08 0)
(5.01995e-05 -1.72942e-08 0)
(5.01623e-05 -1.22627e-08 0)
(5.01118e-05 -8.91754e-09 0)
(5.00499e-05 -7.46301e-10 0)
(4.99635e-05 5.25587e-09 0)
(4.98493e-05 2.86419e-09 0)
(5.03307e-05 -2.85344e-09 0)
(5.03326e-05 -1.75978e-08 0)
(5.03285e-05 -2.85571e-08 0)
(5.03234e-05 -3.94198e-08 0)
(5.03156e-05 -5.02385e-08 0)
(5.03056e-05 -6.0677e-08 0)
(5.02925e-05 -7.14132e-08 0)
(5.02758e-05 -8.16729e-08 0)
(5.02543e-05 -9.30704e-08 0)
(5.02276e-05 -1.03691e-07 0)
(5.01941e-05 -1.16838e-07 0)
(5.01528e-05 -1.27999e-07 0)
(5.00979e-05 -1.43818e-07 0)
(5.00284e-05 -1.54673e-07 0)
(4.9927e-05 -1.72155e-07 0)
(4.97929e-05 -1.84651e-07 0)
(5.03337e-05 -7.54875e-09 0)
(5.03119e-05 -3.17987e-08 0)
(5.03075e-05 -5.19208e-08 0)
(5.03018e-05 -7.24517e-08 0)
(5.0293e-05 -9.35011e-08 0)
(5.02814e-05 -1.14961e-07 0)
(5.02662e-05 -1.37597e-07 0)
(5.02466e-05 -1.60967e-07 0)
(5.02219e-05 -1.86605e-07 0)
(5.01909e-05 -2.12774e-07 0)
(5.01525e-05 -2.42949e-07 0)
(5.01045e-05 -2.72917e-07 0)
(5.00433e-05 -3.09625e-07 0)
(4.99656e-05 -3.4222e-07 0)
(4.98581e-05 -3.83858e-07 0)
(4.97191e-05 -4.10517e-07 0)
(5.03131e-05 -1.36259e-08 0)
(5.02626e-05 -4.80109e-08 0)
(5.02576e-05 -7.85944e-08 0)
(5.02507e-05 -1.10158e-07 0)
(5.02404e-05 -1.42818e-07 0)
(5.02266e-05 -1.76607e-07 0)
(5.02085e-05 -2.12269e-07 0)
(5.01852e-05 -2.49458e-07 0)
(5.01562e-05 -2.89674e-07 0)
(5.01198e-05 -3.31343e-07 0)
(5.00757e-05 -3.77713e-07 0)
(5.00207e-05 -4.24349e-07 0)
(4.99539e-05 -4.77693e-07 0)
(4.98705e-05 -5.25407e-07 0)
(4.9765e-05 -5.80429e-07 0)
(4.96362e-05 -6.11892e-07 0)
(5.02641e-05 -2.05624e-08 0)
(5.01831e-05 -6.40004e-08 0)
(5.0177e-05 -1.04892e-07 0)
(5.01686e-05 -1.4731e-07 0)
(5.01562e-05 -1.91314e-07 0)
(5.01398e-05 -2.37012e-07 0)
(5.01184e-05 -2.85015e-07 0)
(5.00912e-05 -3.35013e-07 0)
(5.00578e-05 -3.88232e-07 0)
(5.00165e-05 -4.43074e-07 0)
(4.99676e-05 -5.02232e-07 0)
(4.99079e-05 -5.60941e-07 0)
(4.98394e-05 -6.24621e-07 0)
(4.97573e-05 -6.80004e-07 0)
(4.96636e-05 -7.38962e-07 0)
(4.95568e-05 -7.69125e-07 0)
(5.01849e-05 -2.74007e-08 0)
(5.00757e-05 -7.73973e-08 0)
(5.00684e-05 -1.26917e-07 0)
(5.00581e-05 -1.78419e-07 0)
(5.00434e-05 -2.31874e-07 0)
(5.00242e-05 -2.87419e-07 0)
(4.99997e-05 -3.45476e-07 0)
(4.9969e-05 -4.05712e-07 0)
(4.99322e-05 -4.6887e-07 0)
(4.98875e-05 -5.33283e-07 0)
(4.98361e-05 -6.00831e-07 0)
(4.97756e-05 -6.66632e-07 0)
(4.97101e-05 -7.34899e-07 0)
(4.96361e-05 -7.92756e-07 0)
(4.9561e-05 -8.5093e-07 0)
(4.94827e-05 -8.79216e-07 0)
(5.0078e-05 -3.31274e-08 0)
(4.99465e-05 -8.64841e-08 0)
(4.99376e-05 -1.41809e-07 0)
(4.99253e-05 -1.99379e-07 0)
(4.99081e-05 -2.59087e-07 0)
(4.98861e-05 -3.21107e-07 0)
(4.98588e-05 -3.85679e-07 0)
(4.98255e-05 -4.52465e-07 0)
(4.97865e-05 -5.2168e-07 0)
(4.97407e-05 -5.9172e-07 0)
(4.96897e-05 -6.63518e-07 0)
(4.96322e-05 -7.32434e-07 0)
(4.95743e-05 -8.01319e-07 0)
(4.95135e-05 -8.58884e-07 0)
(4.94611e-05 -9.14298e-07 0)
(4.94139e-05 -9.41368e-07 0)
(4.99493e-05 -3.70091e-08 0)
(4.98035e-05 -9.07647e-08 0)
(4.9793e-05 -1.48668e-07 0)
(4.97786e-05 -2.08745e-07 0)
(4.97589e-05 -2.70863e-07 0)
(4.97344e-05 -3.35273e-07 0)
(4.97046e-05 -4.02091e-07 0)