/*--------------------------------*- C++ -*----------------------------------*\
| =========                 |                                                 |
| \\      /  F ield         | foam-extend: Open Source CFD                    |
|  \\    /   O peration     | Version:     4.1-20200408                       |
|   \\  /    A nd           | Web:         http://www.foam-extend.org         |
|    \\/     M anipulation  |                                                 |
\*---------------------------------------------------------------------------*/
FoamFile
{
    version     2.0;
    format      ascii;
    class       volSymmTensorField;
    location    "0.0260000";
    object      epsilonTrue;
}
// * * * * * * * * * * * * * * * * * * * * * * * * * * * * * * * * * * * * * //

dimensions      [0 0 0 0 0 0 0];

internalField   nonuniform List<symmTensor> 
1952
(
(0.0107985 -0.000332904 -2.49595e-12 -0.00514422 4.78785e-11 -0.00513955)
(0.010807 -0.000555811 3.95621e-13 -0.00514592 -1.50833e-10 -0.00514281)
(0.0108177 -0.000772079 2.63049e-12 -0.00516147 -4.00357e-10 -0.00514295)
(0.0108335 -0.000980868 5.52279e-12 -0.00516741 3.05498e-10 -0.00515085)
(0.0108524 -0.00119263 -3.97871e-12 -0.00518871 7.88044e-10 -0.00515155)
(0.010877 -0.00137876 -1.58471e-11 -0.00519546 -4.14924e-11 -0.00516217)
(0.0109022 -0.0015702 -4.6756e-12 -0.00521395 -9.17437e-10 -0.00516288)
(0.0109304 -0.00172207 2.74596e-11 -0.00520672 -5.62061e-11 -0.00517391)
(0.0109605 -0.00184211 1.28518e-12 -0.00521041 8.13309e-10 -0.00517159)
(0.0109922 -0.00188802 -5.20068e-11 -0.00516555 -2.87042e-10 -0.00518027)
(0.0110204 -0.00184815 7.6706e-12 -0.00512014 -8.41003e-10 -0.00516985)
(0.011046 -0.00169161 6.43621e-11 -0.0049753 2.28217e-10 -0.00516984)
(0.0110662 -0.00136392 -2.01386e-11 -0.00481675 8.24234e-10 -0.00514012)
(0.0110743 -0.000905413 -2.00211e-11 -0.00445997 1.37071e-11 -0.00512016)
(0.011072 -0.000466026 -7.39198e-11 -0.00408419 -2.59279e-10 -0.00505158)
(0.0107958 -0.000156559 -1.37923e-12 -0.00514056 -3.19089e-10 -0.00513784)
(0.0109069 -0.000344411 -1.0576e-11 -0.00522889 4.87105e-11 -0.00522448)
(0.010915 -0.000575294 -5.18169e-12 -0.00523038 -1.53312e-10 -0.00522754)
(0.0109255 -0.000798873 8.30324e-12 -0.00524502 -4.06964e-10 -0.00522761)
(0.0109407 -0.00101529 2.12441e-11 -0.00525044 3.10395e-10 -0.00523505)
(0.0109591 -0.00123534 -1.05964e-11 -0.00527035 8.0095e-10 -0.0052356)
(0.0109824 -0.001428 -4.38969e-11 -0.00527617 -4.19358e-11 -0.00524555)
(0.0110066 -0.00162708 -1.02009e-11 -0.00529273 -9.32427e-10 -0.00524601)
(0.0110328 -0.00178448 3.9988e-11 -0.00528401 -5.75307e-11 -0.00525618)
(0.0110611 -0.00191314 -3.39805e-12 -0.00528555 8.26201e-10 -0.00525345)
(0.0110898 -0.00196264 -7.51482e-11 -0.00523887 -2.90904e-10 -0.00526113)
(0.0111145 -0.00193092 3.11803e-12 -0.00519118 -8.53774e-10 -0.00525017)
(0.0111337 -0.0017776 8.33125e-11 -0.00504297 2.3122e-10 -0.00524907)
(0.0111433 -0.0014583 -2.72877e-11 -0.00487864 8.36702e-10 -0.0052185)
(0.0111309 -0.000997377 -4.11124e-11 -0.00450788 1.39788e-11 -0.00519691)
(0.0110815 -0.000534179 -1.02073e-10 -0.00409724 -2.6419e-10 -0.00512592)
(0.0109042 -0.000161914 -3.53954e-12 -0.0052255 -3.24293e-10 -0.00522275)
(0.0110057 -0.000352646 -1.07506e-11 -0.00530448 4.9462e-11 -0.00530038)
(0.0110134 -0.000589007 -5.27576e-12 -0.00530566 -1.55521e-10 -0.00530318)
(0.0110237 -0.000817847 8.41097e-12 -0.00531944 -4.12865e-10 -0.00530315)
(0.0110379 -0.00103978 2.14772e-11 -0.00532403 3.14782e-10 -0.00531014)
(0.0110557 -0.00126565 -1.07359e-11 -0.00534257 8.12449e-10 -0.00531041)
(0.0110776 -0.00146325 -4.4601e-11 -0.00534689 -4.23786e-11 -0.00531973)
(0.0111004 -0.00166707 -1.04957e-11 -0.00536132 -9.45664e-10 -0.00531969)
(0.0111243 -0.0018291 4.02037e-11 -0.0053501 -5.84416e-11 -0.00532899)
(0.0111501 -0.00196288 -3.46724e-12 -0.00534853 8.37562e-10 -0.00532548)
(0.011175 -0.00201537 -7.6058e-11 -0.0052978 -2.94682e-10 -0.00533201)
(0.0111953 -0.00198642 3.36229e-12 -0.0052452 -8.64853e-10 -0.00531985)
(0.0112077 -0.00183368 8.42123e-11 -0.00508956 2.34222e-10 -0.00531717)
(0.0112079 -0.00151181 -2.72786e-11 -0.00491476 8.47256e-10 -0.00528467)
(0.011187 -0.00104166 -4.29083e-11 -0.00453065 1.44004e-11 -0.0052605)
(0.0111422 -0.000554994 -1.03841e-10 -0.00411182 -2.67522e-10 -0.0051864)
(0.0110031 -0.000165657 -3.60307e-12 -0.00530141 -3.28938e-10 -0.00529858)
(0.0110947 -0.00036044 -1.09148e-11 -0.00537272 5.01447e-11 -0.00536894)
(0.0111019 -0.000602001 -5.36011e-12 -0.00537353 -1.57515e-10 -0.00537147)
(0.0111118 -0.000835778 8.51053e-12 -0.00538644 -4.18191e-10 -0.00537131)
(0.0111252 -0.00106294 2.16784e-11 -0.00539006 3.18749e-10 -0.00537784)
(0.0111421 -0.00129419 -1.0868e-11 -0.00540716 8.22807e-10 -0.00537777)
(0.0111624 -0.00149641 -4.52489e-11 -0.00540971 -4.2802e-11 -0.00538644)
(0.0111837 -0.00170429 -1.0799e-11 -0.00542192 -9.57526e-10 -0.00538581)
(0.0112052 -0.00187047 4.03757e-11 -0.00540783 -5.91429e-11 -0.00539423)
(0.0112284 -0.00200814 -3.53255e-12 -0.00540287 8.47711e-10 -0.00538978)
(0.0112494 -0.00206259 -7.68981e-11 -0.00534755 -2.98197e-10 -0.00539511)
(0.0112656 -0.00203391 3.67244e-12 -0.00528963 -8.74677e-10 -0.00538155)
(0.0112725 -0.001879 8.51439e-11 -0.00512669 2.36937e-10 -0.00537721)
(0.0112663 -0.00155057 -2.72618e-11 -0.00494306 8.5651e-10 -0.00534265)
(0.0112427 -0.00106835 -4.42889e-11 -0.00455117 1.51212e-11 -0.00531609)
(0.011202 -0.000564785 -1.04429e-10 -0.00412861 -2.70433e-10 -0.00523949)
(0.0110921 -0.000169217 -3.65266e-12 -0.00536999 -3.33132e-10 -0.00536707)
(0.0111753 -0.000367549 -1.10664e-11 -0.00543436 5.07644e-11 -0.00543091)
(0.0111822 -0.000613882 -5.43667e-12 -0.00543474 -1.59318e-10 -0.00543317)
(0.0111916 -0.000852108 8.60198e-12 -0.00544675 -4.23002e-10 -0.00543285)
(0.011204 -0.001084 2.18533e-11 -0.00544927 3.22343e-10 -0.00543892)
(0.01122 -0.00132003 -1.09921e-11 -0.00546487 8.32141e-10 -0.00543845)
(0.0112387 -0.00152628 -4.5841e-11 -0.00546546 -4.32046e-11 -0.00544646)
(0.0112584 -0.00173746 -1.1096e-11 -0.00547533 -9.68158e-10 -0.00544514)
(0.0112776 -0.00190707 4.05347e-11 -0.00545825 -5.97069e-11 -0.00545265)
(0.0112985 -0.00204754 -3.59313e-12 -0.0054498 8.56776e-10 -0.00544719)
(0.0113166 -0.00210292 -7.7709e-11 -0.00539031 -3.01304e-10 -0.00545129)
(0.0113298 -0.00207291 3.98815e-12 -0.00532742 -8.83393e-10 -0.00543635)
(0.0113337 -0.00191444 8.60145e-11 -0.00515886 2.39191e-10 -0.00543039)
(0.0113256 -0.00157884 -2.7244e-11 -0.00496939 8.64712e-10 -0.00539403)
(0.0113042 -0.00108664 -4.51477e-11 -0.00457406 1.60468e-11 -0.0053655)
(0.0112724 -0.000571354 -1.04732e-10 -0.00415171 -2.73041e-10 -0.00528716)
(0.0111729 -0.000172491 -3.72775e-12 -0.00543197 -3.3692e-10 -0.00542898)
(0.0112484 -0.000373986 -1.12117e-11 -0.00549018 5.13289e-11 -0.00548707)
(0.0112547 -0.000624669 -5.50038e-12 -0.00549011 -1.60952e-10 -0.00548906)
(0.0112637 -0.000866847 8.68443e-12 -0.0055012 -4.27359e-10 -0.00548855)
(0.0112752 -0.00110301 2.19915e-11 -0.0055026 3.25594e-10 -0.00549416)
(0.0112903 -0.0013432 -1.11095e-11 -0.00551674 8.40577e-10 -0.00549328)
(0.0113076 -0.0015529 -4.63794e-11 -0.00551548 -4.35622e-11 -0.00550064)
(0.0113258 -0.0017666 -1.13877e-11 -0.00552305 -9.77753e-10 -0.00549865)
(0.0113432 -0.00193888 4.06557e-11 -0.00550317 -6.02352e-11 -0.00550528)
(0.0113622 -0.00208124 -3.65046e-12 -0.00549152 8.64936e-10 -0.00549886)
(0.0113785 -0.00213658 -7.84743e-11 -0.00542852 -3.04028e-10 -0.00550179)
(0.0113898 -0.0021044 4.28615e-12 -0.00536151 -8.91232e-10 -0.00548563)
(0.0113927 -0.00194175 8.67407e-11 -0.00518893 2.41092e-10 -0.00547822)
(0.0113851 -0.00159952 -2.72314e-11 -0.00499589 8.72113e-10 -0.00544042)
(0.0113672 -0.00109903 -4.57109e-11 -0.00459873 1.69241e-11 -0.00541035)
(0.0113432 -0.000576049 -1.04876e-10 -0.00417705 -2.7544e-10 -0.00533072)
(0.0112461 -0.00017548 -3.76566e-12 -0.00548814 -3.4035e-10 -0.00548508)
(0.0113147 -0.000379755 -1.13454e-11 -0.00554082 5.18432e-11 -0.00553803)
(0.0113206 -0.000634362 -5.56187e-12 -0.0055403 -1.62433e-10 -0.00553976)
(0.0113292 -0.000880014 8.75979e-12 -0.00555047 -4.31311e-10 -0.00553907)
(0.0113398 -0.00112 2.21018e-11 -0.00555082 3.28532e-10 -0.00554421)
(0.0113542 -0.00136383 -1.12217e-11 -0.0055636 8.48221e-10 -0.00554295)
(0.0113703 -0.00157645 -4.689e-11 -0.0055606 -4.38786e-11 -0.00554969)
(0.0113875 -0.0017921 -1.16632e-11 -0.0055661 -9.86433e-10 -0.00554709)
(0.0114036 -0.00196643 4.07469e-11 -0.00554383 -6.07392e-11 -0.00555289)
(0.0114215 -0.00211017 -3.70432e-12 -0.00552957 8.72322e-10 -0.00554562)
(0.0114368 -0.00216487 -7.91971e-11 -0.00546374 -3.06467e-10 -0.00554754)
(0.0114477 -0.00213029 4.55435e-12 -0.00539369 -8.98372e-10 -0.00553035)
(0.011451 -0.00196348 8.73662e-11 -0.00521834 2.42794e-10 -0.00552175)
(0.0114454 -0.00161557 -2.72238e-11 -0.00502306 8.78879e-10 -0.00548283)
(0.0114318 -0.00110856 -4.60945e-11 -0.00462521 1.77255e-11 -0.0054516)
(0.0114152 -0.000579999 -1.04981e-10 -0.00420443 -2.77673e-10 -0.00537104)
(0.0113125 -0.000178179 -3.80944e-12 -0.00553911 -3.4346e-10 -0.005536)
(0.0113756 -0.000384861 -1.14622e-11 -0.0055871 5.23148e-11 -0.00558463)
(0.0113812 -0.000642963 -5.61892e-12 -0.00558619 -1.63786e-10 -0.00558611)
(0.0113893 -0.000891637 8.83032e-12 -0.00559544 -4.34928e-10 -0.00558527)
(0.0113993 -0.00113504 2.21817e-11 -0.00559491 3.31193e-10 -0.00558994)
(0.0114132 -0.00138198 -1.13287e-11 -0.00560644 8.55211e-10 -0.00558837)
(0.0114283 -0.00159706 -4.73469e-11 -0.00560186 -4.41407e-11 -0.00559452)
(0.0114449 -0.00181419 -1.19279e-11 -0.00560577 -9.94371e-10 -0.00559138)
(0.0114602 -0.00199013 4.07861e-11 -0.0055815 -6.12155e-11 -0.00559648)
(0.0114777 -0.00213491 -3.75926e-12 -0.00556518 8.79094e-10 -0.00558849)
(0.0114928 -0.00218869 -7.98414e-11 -0.00549711 -3.087e-10 -0.00558958)
(0.011504 -0.00215172 4.80314e-12 -0.00542476 -9.04967e-10 -0.00557153)
(0.0115086 -0.00198109 8.78888e-11 -0.00524748 2.44356e-10 -0.00556201)
(0.0115056 -0.00162837 -2.72219e-11 -0.00505077 8.8516e-10 -0.00552219)
(0.0114964 -0.00111611 -4.63763e-11 -0.00465262 1.84343e-11 -0.00549009)
(0.0114862 -0.000583461 -1.05071e-10 -0.00423255 -2.79775e-10 -0.00540885)
(0.0113735 -0.000180584 -3.84291e-12 -0.00558571 -3.46302e-10 -0.00558256)
(0.011432 -0.000389394 -1.15856e-11 -0.00562966 5.27487e-11 -0.00562747)
(0.0114374 -0.000650591 -5.66895e-12 -0.0056284 -1.6503e-10 -0.00562873)
(0.0114451 -0.000901908 8.89464e-12 -0.00563679 -4.38255e-10 -0.00562776)
(0.0114547 -0.00114837 2.22416e-11 -0.00563558 3.33624e-10 -0.00563199)
(0.0114683 -0.00139796 -1.1435e-11 -0.00564599 8.61645e-10 -0.00563018)
(0.0114827 -0.00161529 -4.77401e-11 -0.00564012 -4.43534e-11 -0.00563579)
(0.0114994 -0.00183368 -1.21988e-11 -0.00564292 -1.00169e-09 -0.00563223)
(0.0115143 -0.00201078 4.07788e-11 -0.00561698 -6.16602e-11 -0.00563676)
(0.0115321 -0.00215645 -3.81554e-12 -0.00559916 8.85364e-10 -0.00562819)
(0.0115476 -0.00220915 -8.04496e-11 -0.00552939 -3.1079e-10 -0.00562864)
(0.0115597 -0.00216994 5.02285e-12 -0.00545543 -9.11138e-10 -0.00560991)
(0.0115661 -0.00199588 8.8362e-11 -0.00527682 2.45841e-10 -0.00559969)
(0.011566 -0.00163905 -2.72259e-11 -0.00507917 8.91063e-10 -0.00555921)
(0.0115611 -0.00112247 -4.66124e-11 -0.00468093 1.90481e-11 -0.00552648)
(0.0115563 -0.000586624 -1.05159e-10 -0.00426128 -2.81778e-10 -0.00544473)
(0.01143 -0.000182722 -3.90765e-12 -0.00562856 -3.48911e-10 -0.00562536)
(0.011485 -0.000393404 -1.1706e-11 -0.00566924 5.31501e-11 -0.00566727)
(0.0114903 -0.000657337 -5.72162e-12 -0.00566772 -1.66186e-10 -0.00566835)
(0.0114977 -0.000910968 8.95972e-12 -0.00567534 -4.41349e-10 -0.00566728)
(0.0115073 -0.00116015 2.22925e-11 -0.00567374 3.35863e-10 -0.00567114)
(0.0115206 -0.00141204 -1.15383e-11 -0.00568292 8.67648e-10 -0.00566921)
(0.0115343 -0.00163141 -4.80736e-11 -0.00567578 -4.45036e-11 -0.00567424)
(0.0115519 -0.0018509 -1.24812e-11 -0.00567837 -1.00851e-09 -0.00567034)
(0.011567 -0.0020289 4.06905e-11 -0.00565116 -6.2034e-11 -0.00567449)
(0.0115853 -0.00217543 -3.87525e-12 -0.00563213 8.9125e-10 -0.00566545)
(0.0116016 -0.00222708 -8.09973e-11 -0.00556107 -3.12786e-10 -0.00566544)
(0.0116151 -0.00218582 5.22867e-12 -0.00548596 -9.16992e-10 -0.00564619)
(0.0116236 -0.00200871 8.87954e-11 -0.0053064 2.4728e-10 -0.00563547)
(0.0116263 -0.00164836 -2.72375e-11 -0.00510809 8.96687e-10 -0.00559448)
(0.0116254 -0.00112806 -4.68563e-11 -0.00470979 1.9575e-11 -0.0055613)
(0.0116252 -0.000589588 -1.05252e-10 -0.00429021 -2.83705e-10 -0.00547916)
(0.0114831 -0.000184623 -3.93766e-12 -0.00566836 -3.51333e-10 -0.00566514)
(0.0115354 -0.000397034 -1.18233e-11 -0.00570634 5.35239e-11 -0.00570453)
(0.0115408 -0.000663408 -5.78272e-12 -0.00570467 -1.67268e-10 -0.00570548)
(0.0115481 -0.000919202 9.03227e-12 -0.00571172 -4.44248e-10 -0.00570436)
(0.0115579 -0.0011707 2.2387e-11 -0.00570988 3.37974e-10 -0.00570793)
(0.0115709 -0.00142459 -1.1639e-11 -0.00571792 8.73298e-10 -0.00570594)
(0.0115842 -0.0016459 -4.8236e-11 -0.0057097 -4.46408e-11 -0.00571048)
(0.0116032 -0.00186658 -1.28148e-11 -0.00571253 -1.01493e-09 -0.00570631)
(0.0116188 -0.00204522 4.06127e-11 -0.00568442 -6.2364e-11 -0.00571022)
(0.0116378 -0.0021925 -3.9386e-12 -0.00566445 8.96839e-10 -0.00570084)
(0.0116554 -0.0022433 -8.15398e-11 -0.00559254 -3.14694e-10 -0.00570051)
(0.0116704 -0.00220015 5.4125e-12 -0.0055166 -9.22597e-10 -0.00568088)
(0.0116812 -0.00202034 8.92272e-11 -0.0053363 2.48684e-10 -0.00566982)
(0.0116866 -0.00165689 -2.72529e-11 -0.00513755 9.02103e-10 -0.00562844)
(0.0116894 -0.00113324 -4.71415e-11 -0.00473908 2.00169e-11 -0.00559496)
(0.0116926 -0.000592452 -1.05353e-10 -0.00431912 -2.85576e-10 -0.00551252)
(0.0115334 -0.000186343 -3.97987e-12 -0.00570562 -3.53598e-10 -0.00570237)
(0.011584 -0.000400329 -1.19415e-11 -0.00574154 5.3876e-11 -0.00573982)
(0.0115895 -0.000668943 -5.84511e-12 -0.00573968 -1.68298e-10 -0.0057407)
(0.0115971 -0.000926728 9.10673e-12 -0.00574651 -4.46986e-10 -0.0057395)
(0.0116071 -0.0011803 2.24994e-11 -0.00574426 3.4006e-10 -0.00574296)
(0.0116202 -0.00143595 -1.174e-11 -0.0057517 8.7866e-10 -0.0057408)
(0.0116339 -0.00165926 -4.832e-11 -0.00574308 -4.4859e-11 -0.00574511)
(0.0116537 -0.00188099 -1.31802e-11 -0.00574551 -1.0211e-09 -0.00574077)
(0.0116699 -0.00206026 4.04827e-11 -0.00571685 -6.27724e-11 -0.00574446)
(0.0116902 -0.00220825 -4.00545e-12 -0.00569639 9.02209e-10 -0.00573486)
(0.011709 -0.00225844 -8.20755e-11 -0.00562381 -3.16497e-10 -0.00573429)
(0.011726 -0.0022135 5.59118e-12 -0.00554748 -9.2802e-10 -0.00571441)
(0.0117388 -0.00203128 8.96408e-11 -0.0053665 2.50068e-10 -0.00570312)
(0.011747 -0.00166504 -2.72742e-11 -0.00516762 9.07368e-10 -0.00566146)
(0.0117529 -0.00113812 -4.75119e-11 -0.00476865 2.03446e-11 -0.00562781)
(0.0117584 -0.000595109 -1.05448e-10 -0.00434758 -2.87405e-10 -0.00554509)
(0.0115821 -0.000187915 -4.01856e-12 -0.00574092 -3.55742e-10 -0.00573765)
(0.0116316 -0.00040335 -1.20646e-11 -0.00577527 5.42117e-11 -0.00577362)
(0.0116373 -0.000674078 -5.9029e-12 -0.00577324 -1.69288e-10 -0.00577444)
(0.0116451 -0.000933645 9.17936e-12 -0.00577997 -4.49606e-10 -0.00577315)
(0.0116554 -0.00118922 2.2609e-11 -0.00577739 3.4208e-10 -0.00577657)
(0.0116689 -0.00144647 -1.18467e-11 -0.00578451 8.83806e-10 -0.00577426)
(0.0116835 -0.00167188 -4.84745e-11 -0.00577596 -4.50777e-11 -0.00577847)
(0.0117039 -0.00189458 -1.35324e-11 -0.00577778 -1.02708e-09 -0.00577406)
(0.0117211 -0.0020745 4.03361e-11 -0.00574895 -6.32882e-11 -0.00577756)
(0.0117428 -0.00222319 -4.0794e-12 -0.00572818 9.07419e-10 -0.0057679)
(0.0117628 -0.00227289 -8.25639e-11 -0.00565496 -3.18171e-10 -0.00576713)
(0.011782 -0.00222633 5.76935e-12 -0.00557869 -9.33305e-10 -0.0057471)
(0.0117969 -0.002042 9.00444e-11 -0.00539711 2.5142e-10 -0.0057357)
(0.0118076 -0.00167308 -2.73e-11 -0.00519824 9.1253e-10 -0.00569384)
(0.0118163 -0.00114292 -4.80092e-11 -0.00479846 2.06136e-11 -0.0056601)
(0.0118225 -0.000597454 -1.05517e-10 -0.00437583 -2.8921e-10 -0.00557713)
(0.0116296 -0.000189379 -4.06172e-12 -0.00577471 -3.57793e-10 -0.00577143)
(0.0116786 -0.000406212 -1.21919e-11 -0.00580795 5.45338e-11 -0.0058063)
(0.0116844 -0.000678974 -5.9666e-12 -0.0058058 -1.70247e-10 -0.00580712)
(0.0116926 -0.000940211 9.2569e-12 -0.00581252 -4.52141e-10 -0.00580577)
(0.0117034 -0.00119771 2.27271e-11 -0.00580977 3.44038e-10 -0.00580919)
(0.0117174 -0.00145649 -1.19569e-11 -0.00581667 8.88807e-10 -0.00580678)
(0.011733 -0.00168405 -4.86699e-11 -0.00580825 -4.52953e-11 -0.00581095)
(0.011754 -0.00190765 -1.389e-11 -0.00580963 -1.03291e-09 -0.00580652)
(0.0117725 -0.00208827 4.01558e-11 -0.00578087 -6.38033e-11 -0.00580988)
(0.0117955 -0.00223758 -4.15932e-12 -0.00575981 9.12517e-10 -0.00580024)
(0.0118167 -0.00228718 -8.29284e-11 -0.00568623 -3.19755e-10 -0.00579932)
(0.0118382 -0.00223919 5.97563e-12 -0.0056101 -9.38481e-10 -0.00577925)
(0.011855 -0.00205292 9.04297e-11 -0.00542798 2.52713e-10 -0.00576775)
(0.011868 -0.00168129 -2.73311e-11 -0.0052289 9.17622e-10 -0.00572579)
(0.011879 -0.00114779 -4.86971e-11 -0.00482823 2.09324e-11 -0.00569196)
(0.0118862 -0.000599223 -1.05523e-10 -0.00440445 -2.90996e-10 -0.00560879)
(0.0116765 -0.000190784 -4.09939e-12 -0.0058074 -3.59776e-10 -0.00580412)
(0.0117252 -0.000408987 -1.23239e-11 -0.00583978 5.48459e-11 -0.00583811)
(0.0117313 -0.000683768 -6.02615e-12 -0.00583758 -1.7118e-10 -0.00583894)
(0.0117399 -0.000946624 9.33591e-12 -0.00584437 -4.54611e-10 -0.00583756)
(0.0117513 -0.00120602 2.28625e-11 -0.0058416 3.4594e-10 -0.00584102)
(0.0117659 -0.00146635 -1.20733e-11 -0.00584843 8.93696e-10 -0.00583858)
(0.0117826 -0.00169599 -4.89214e-11 -0.0058403 -4.55021e-11 -0.00584275)
(0.0118044 -0.00192051 -1.42352e-11 -0.00584127 -1.03865e-09 -0.00583839)
(0.0118244 -0.00210187 4.00175e-11 -0.00581299 -6.44086e-11 -0.00584164)
(0.0118486 -0.00225186 -4.24429e-12 -0.0057913 9.17542e-10 -0.00583215)
(0.0118707 -0.00230137 -8.32942e-11 -0.00571727 -3.21166e-10 -0.00583103)
(0.0118947 -0.00225216 6.18534e-12 -0.00564158 -9.43564e-10 -0.00581101)
(0.0119135 -0.00206381 9.08379e-11 -0.00545931 2.53881e-10 -0.00579941)
(0.0119283 -0.00168966 -2.73644e-11 -0.0052593 9.22669e-10 -0.00575748)
(0.0119419 -0.00115259 -4.94464e-11 -0.00485835 2.15357e-11 -0.00572344)
(0.011952 -0.000600906 -1.05531e-10 -0.00443488 -2.928e-10 -0.00564027)
(0.0117229 -0.000192169 -4.14441e-12 -0.0058392 -3.61704e-10 -0.00583592)
(0.0117719 -0.000411712 -1.24612e-11 -0.00587103 5.51519e-11 -0.00586932)
(0.0117784 -0.0006885 -6.09016e-12 -0.00586884 -1.72095e-10 -0.00587019)
(0.0117874 -0.000952974 9.4207e-12 -0.00587572 -4.57039e-10 -0.0058688)
(0.0117995 -0.00121426 2.30157e-11 -0.00587306 3.47794e-10 -0.00587232)
(0.0118149 -0.00147623 -1.2196e-11 -0.00587994 8.98509e-10 -0.00586991)
(0.0118327 -0.00170794 -4.92394e-11 -0.00587215 -4.57034e-11 -0.00587411)
(0.0118554 -0.00193357 -1.45683e-11 -0.00587297 -1.04431e-09 -0.00586985)
(0.011877 -0.00211549 3.99892e-11 -0.00584515 -6.49591e-11 -0.00587308)
(0.0119022 -0.00226614 -4.33306e-12 -0.0058229 9.22518e-10 -0.00586376)
(0.0119254 -0.00231563 -8.34003e-11 -0.00574855 -3.22602e-10 -0.00586249)
(0.0119518 -0.00226562 6.43712e-12 -0.00567336 -9.48624e-10 -0.00584255)
(0.0119727 -0.00207477 9.13011e-11 -0.00549103 2.55065e-10 -0.00583092)
(0.0119891 -0.00169833 -2.74012e-11 -0.00529005 9.27697e-10 -0.00578904)
(0.0120047 -0.00115779 -5.01467e-11 -0.00488878 2.21181e-11 -0.00575484)
(0.0120172 -0.000603328 -1.05637e-10 -0.00446545 -2.94602e-10 -0.00567168)
(0.0117696 -0.00019354 -4.19862e-12 -0.00587042 -3.63595e-10 -0.00586715)
(0.0118188 -0.000414462 -1.26067e-11 -0.00590189 5.54537e-11 -0.00590014)
(0.0118257 -0.000693287 -6.16284e-12 -0.00589976 -1.72996e-10 -0.00590104)
(0.0118352 -0.000959409 9.51243e-12 -0.00590675 -4.59438e-10 -0.00589967)
(0.011848 -0.00122262 2.31848e-11 -0.00590426 3.4962e-10 -0.00590324)
(0.0118642 -0.00148629 -1.23256e-11 -0.00591127 9.0327e-10 -0.0059009)
(0.0118831 -0.0017201 -4.95847e-11 -0.00590375 -4.59152e-11 -0.00590516)
(0.011907 -0.00194688 -1.49106e-11 -0.00590477 -1.04989e-09 -0.005901)
(0.0119299 -0.00212943 3.99985e-11 -0.00587719 -6.53791e-11 -0.00590431)
(0.0119564 -0.00228076 -4.42508e-12 -0.00585482 9.27459e-10 -0.00589509)
(0.0119816 -0.00233042 -8.35414e-11 -0.00578093 -3.24114e-10 -0.00589384)
(0.0120095 -0.00227959 6.69231e-12 -0.00570535 -9.53645e-10 -0.00587406)
(0.0120322 -0.00208626 9.18068e-11 -0.00552305 2.56162e-10 -0.00586237)
(0.0120504 -0.00170753 -2.74397e-11 -0.00532144 9.32727e-10 -0.00582063)
(0.0120674 -0.00116345 -5.09231e-11 -0.00491913 2.26489e-11 -0.00578627)
(0.012081 -0.000605956 -1.05768e-10 -0.00449538 -2.96408e-10 -0.0057031)
(0.0118164 -0.000194928 -4.24171e-12 -0.00590123 -3.65461e-10 -0.00589797)
(0.0118659 -0.000417282 -1.27644e-11 -0.00593246 5.57527e-11 -0.00593066)
(0.0118732 -0.000698191 -6.24026e-12 -0.00593044 -1.73887e-10 -0.0059316)
(0.0118832 -0.000966009 9.60955e-12 -0.00593756 -4.61816e-10 -0.00593028)
(0.0118968 -0.00123119 2.33683e-11 -0.00593529 3.51424e-10 -0.00593391)
(0.0119139 -0.0014966 -1.24635e-11 -0.0059425 9.07994e-10 -0.00593165)
(0.0119338 -0.0017326 -4.99448e-11 -0.00593531 -4.61232e-11 -0.005936)
(0.011959 -0.00196053 -1.5274e-11 -0.00593662 -1.05545e-09 -0.00593197)
(0.0119833 -0.00214382 4.00091e-11 -0.00590937 -6.58058e-11 -0.00593538)
(0.0120113 -0.00229582 -4.52064e-12 -0.00588693 9.32381e-10 -0.00592632)
(0.0120383 -0.00234585 -8.38041e-11 -0.00581353 -3.25618e-10 -0.00592512)
(0.0120676 -0.00229434 6.92876e-12 -0.00573753 -9.58652e-10 -0.00590552)
(0.0120921 -0.00209856 9.23339e-11 -0.0055552 2.57256e-10 -0.00589379)
(0.0121118 -0.0017176 -2.7481e-11 -0.00535293 9.37753e-10 -0.00585218)
(0.0121296 -0.0011698 -5.16828e-11 -0.00494926 2.3148e-11 -0.00581769)
(0.0121438 -0.000609067 -1.05956e-10 -0.00452488 -2.98209e-10 -0.00573447)
(0.0118634 -0.000196348 -4.28205e-12 -0.00593175 -3.67308e-10 -0.00592848)
(0.0119131 -0.000420227 -1.29271e-11 -0.00596285 5.60495e-11 -0.00596098)
(0.0119209 -0.000703311 -6.32143e-12 -0.00596096 -1.74772e-10 -0.00596197)
(0.0119314 -0.000972898 9.71225e-12 -0.00596827 -4.64181e-10 -0.00596071)
(0.0119457 -0.00124013 2.3564e-11 -0.00596624 3.53221e-10 -0.00596443)
(0.0119638 -0.00150737 -1.26093e-11 -0.00597375 9.12698e-10 -0.00596227)
(0.0119849 -0.00174563 -5.03307e-11 -0.00596694 -4.63387e-11 -0.00596675)
(0.0120114 -0.00197479 -1.56501e-11 -0.00596858 -1.06098e-09 -0.00596286)
(0.0120372 -0.00215887 4.00616e-11 -0.00594175 -6.62304e-11 -0.00596641)
(0.0120665 -0.00231161 -4.61965e-12 -0.00591927 9.37299e-10 -0.00595752)
(0.0120952 -0.00236214 -8.41036e-11 -0.00584627 -3.27147e-10 -0.00595639)
(0.012126 -0.00231 7.17336e-12 -0.00576995 -9.63673e-10 -0.00593699)
(0.0121518 -0.00211173 9.28969e-11 -0.00558732 2.58417e-10 -0.00592524)
(0.0121728 -0.00172847 -2.75243e-11 -0.0053843 9.4278e-10 -0.00588374)
(0.0121912 -0.00117676 -5.2502e-11 -0.00497901 2.35634e-11 -0.00584913)
(0.0122055 -0.000612411 -1.06167e-10 -0.00455385 -2.9999e-10 -0.00576579)
(0.0119105 -0.000197826 -4.34299e-12 -0.00596208 -3.69142e-10 -0.00595881)
(0.01196 -0.000423323 -1.31081e-11 -0.00599302 5.63441e-11 -0.00599108)
(0.0119682 -0.000708687 -6.41218e-12 -0.00599129 -1.75649e-10 -0.00599212)
(0.0119794 -0.000980128 9.82619e-12 -0.00599882 -4.66529e-10 -0.00599094)
(0.0119945 -0.00124954 2.37705e-11 -0.00599709 3.55002e-10 -0.00599476)
(0.0120136 -0.00151868 -1.27604e-11 -0.00600492 9.17375e-10 -0.00599273)
(0.0120358 -0.00175932 -5.07384e-11 -0.00599856 -4.65477e-11 -0.00599733)
(0.0120637 -0.00198981 -1.60447e-11 -0.00600052 -1.0665e-09 -0.00599362)
(0.0120908 -0.00217473 4.01343e-11 -0.00597412 -6.66706e-11 -0.00599731)
(0.0121215 -0.00232837 -4.7232e-12 -0.00595166 9.42201e-10 -0.00598862)
(0.0121518 -0.00237941 -8.44916e-11 -0.00587895 -3.28684e-10 -0.00598758)
(0.0121839 -0.00232657 7.41726e-12 -0.00580219 -9.68675e-10 -0.00596836)
(0.0122109 -0.00212595 9.34777e-11 -0.00561909 2.59586e-10 -0.00595659)
(0.012233 -0.00174016 -2.75691e-11 -0.0054152 9.47786e-10 -0.00591517)
(0.0122518 -0.0011844 -5.33361e-11 -0.00500816 2.39647e-11 -0.00588041)
(0.0122666 -0.000615978 -1.06402e-10 -0.00458256 -3.01747e-10 -0.00579692)
(0.0119572 -0.000199373 -4.41298e-12 -0.00599219 -3.70961e-10 -0.00598889)
(0.0120068 -0.000426595 -1.32925e-11 -0.00602305 5.66366e-11 -0.00602103)
(0.0120155 -0.000714364 -6.50579e-12 -0.00602151 -1.76522e-10 -0.00602213)
(0.0120273 -0.000987758 9.94089e-12 -0.0060293 -4.68866e-10 -0.00602104)
(0.0120433 -0.00125946 2.39885e-11 -0.00602791 3.56778e-10 -0.00602497)
(0.0120634 -0.00153059 -1.29215e-11 -0.00603609 9.22038e-10 -0.00602309)
(0.0120867 -0.00177372 -5.11796e-11 -0.00603021 -4.67564e-11 -0.00602784)
(0.0121159 -0.00200559 -1.64546e-11 -0.00603248 -1.07202e-09 -0.00602432)
(0.0121444 -0.00219139 4.023e-11 -0.00600651 -6.7114e-11 -0.00602816)
(0.0121764 -0.00234594 -4.83057e-12 -0.00598402 9.47096e-10 -0.00601968)
(0.0122081 -0.00239751 -8.49069e-11 -0.00591146 -3.3023e-10 -0.00601871)
(0.0122414 -0.00234389 7.67272e-12 -0.0058343 -9.73674e-10 -0.00599967)
(0.0122694 -0.0021408 9.40781e-11 -0.00565062 2.6078e-10 -0.00598788)
(0.0122924 -0.00175224 -2.76139e-11 -0.00544571 9.52779e-10 -0.0059465)
(0.0123119 -0.00119226 -5.41721e-11 -0.00503708 2.43792e-11 -0.00591158)
(0.0123275 -0.000619558 -1.06642e-10 -0.00461118 -3.03497e-10 -0.00582793)
(0.0120038 -0.000201002 -4.47461e-12 -0.00602214 -3.72771e-10 -0.00601884)
(0.0120534 -0.00043004 -1.34964e-11 -0.00605285 5.69271e-11 -0.00605075)
(0.0120627 -0.000720342 -6.61081e-12 -0.00605152 -1.77387e-10 -0.00605191)
(0.0120751 -0.000995786 1.00637e-11 -0.00605958 -4.71186e-10 -0.00605092)
(0.012092 -0.00126989 2.42243e-11 -0.00605857 3.58538e-10 -0.00605498)
(0.0121132 -0.00154312 -1.3093e-11 -0.0060671 9.2667e-10 -0.00605325)
(0.0121377 -0.00178881 -5.16482e-11 -0.00606176 -4.69558e-11 -0.00605815)
(0.0121682 -0.00202215 -1.68823e-11 -0.00606437 -1.0775e-09 -0.00605485)
(0.012198 -0.00220882 4.03506e-11 -0.0060388 -6.75561e-11 -0.00605884)
(0.0122313 -0.00236431 -4.94196e-12 -0.00601627 9.51965e-10 -0.00605058)
(0.0122642 -0.00241635 -8.53672e-11 -0.00594383 -3.3177e-10 -0.00604969)
(0.0122987 -0.00236185 7.93487e-12 -0.00586624 -9.78647e-10 -0.00603082)
(0.0123278 -0.00215617 9.46988e-11 -0.005682 2.61963e-10 -0.00601901)
(0.0123517 -0.00176467 -2.76611e-11 -0.00547611 9.57746e-10 -0.00597768)
(0.012372 -0.00120031 -5.5007e-11 -0.00506605 2.48084e-11 -0.0059426)
(0.0123884 -0.000623207 -1.06896e-10 -0.00463999 -3.0524e-10 -0.00585882)
(0.0120503 -0.000202712 -4.5468e-12 -0.00605187 -3.74566e-10 -0.00604854)
(0.0121001 -0.000433693 -1.37056e-11 -0.00608255 5.72161e-11 -0.00608035)
(0.0121099 -0.000726672 -6.72112e-12 -0.00608143 -1.7825e-10 -0.00608158)
(0.012123 -0.00100428 1.01919e-11 -0.00608979 -4.73496e-10 -0.00608069)
(0.0121407 -0.00128091 2.44789e-11 -0.00608916 3.60296e-10 -0.00608488)
(0.012163 -0.00155635 -1.32694e-11 -0.00609807 9.31287e-10 -0.00608332)
(0.0121887 -0.00180466 -5.21505e-11 -0.00609327 -4.71611e-11 -0.00608839)
(0.0122206 -0.00203951 -1.7333e-11 -0.00609622 -1.08298e-09 -0.0060853)
(0.0122516 -0.00222707 4.04832e-11 -0.00607103 -6.79913e-11 -0.00608946)
(0.0122863 -0.00238349 -5.05791e-12 -0.0060485 9.56824e-10 -0.0060814)
(0.0123205 -0.00243595 -8.58472e-11 -0.00597619 -3.33318e-10 -0.00608061)
(0.0123562 -0.0023804 8.20746e-12 -0.00589824 -9.83617e-10 -0.00606191)
(0.0123864 -0.00217198 9.53352e-11 -0.00571353 2.63153e-10 -0.00605009)
(0.0124114 -0.00177735 -2.77096e-11 -0.00550676 9.62709e-10 -0.00600882)
(0.0124325 -0.00120846 -5.58474e-11 -0.00509534 2.5224e-11 -0.00597361)
(0.0124497 -0.000626917 -1.07161e-10 -0.00466903 -3.06986e-10 -0.00588972)
(0.0120968 -0.00020452 -4.60583e-12 -0.00608148 -3.76353e-10 -0.00607813)
(0.0121462 -0.000437554 -1.39256e-11 -0.00611196 5.75032e-11 -0.00610967)
(0.0121566 -0.000733368 -6.83781e-12 -0.00611105 -1.79103e-10 -0.00611097)
(0.0121704 -0.00101326 1.03297e-11 -0.00611974 -4.75785e-10 -0.00611019)
(0.0121891 -0.00129253 2.47508e-11 -0.00611948 3.6204e-10 -0.00611451)
(0.0122125 -0.00157029 -1.34541e-11 -0.00612881 9.35862e-10 -0.00611311)
(0.0122395 -0.0018213 -5.26882e-11 -0.00612459 -4.73684e-11 -0.00611836)
(0.0122727 -0.00205771 -1.78016e-11 -0.00612785 -1.0884e-09 -0.0061155)
(0.0123051 -0.00224614 4.06362e-11 -0.00610311 -6.84382e-11 -0.00611982)
(0.0123412 -0.00240349 -5.17722e-12 -0.00608066 9.61646e-10 -0.006112)
(0.0123769 -0.00245631 -8.63657e-11 -0.00600861 -3.34833e-10 -0.00611131)
(0.012414 -0.00239962 8.48423e-12 -0.00593041 -9.88556e-10 -0.00609281)
(0.0124455 -0.00218837 9.59958e-11 -0.00574531 2.64324e-10 -0.00608102)
(0.0124716 -0.0017905 -2.7759e-11 -0.00553783 9.67653e-10 -0.00603985)
(0.0124935 -0.00121702 -5.67145e-11 -0.00512493 2.5613e-11 -0.00600456)
(0.0125109 -0.000630834 -1.07451e-10 -0.00469816 -3.0873e-10 -0.00592056)
(0.0121428 -0.00020643 -4.68486e-12 -0.00611081 -3.78123e-10 -0.00610744)
(0.0121918 -0.000441647 -1.41639e-11 -0.00614121 5.77893e-11 -0.00613884)
(0.0122027 -0.00074047 -6.9624e-12 -0.00614052 -1.79952e-10 -0.00614019)
(0.0122172 -0.00102276 1.04714e-11 -0.00614955 -4.78061e-10 -0.00613952)
(0.0122369 -0.00130482 2.5037e-11 -0.00614963 3.63782e-10 -0.006144)
(0.0122615 -0.00158505 -1.36505e-11 -0.00615948 9.40413e-10 -0.00614274)
(0.0122899 -0.00183884 -5.32693e-11 -0.00615584 -4.75936e-11 -0.0061482)
(0.0123244 -0.00207689 -1.82879e-11 -0.0061594 -1.0938e-09 -0.00614556)
(0.0123583 -0.00226626 4.07939e-11 -0.00613526 -6.88826e-11 -0.00615006)
(0.0123961 -0.00242453 -5.30136e-12 -0.00611298 9.66453e-10 -0.0061425)
(0.0124334 -0.00247774 -8.69118e-11 -0.00604128 -3.36354e-10 -0.00614195)
(0.012472 -0.00241977 8.77524e-12 -0.00596289 -9.93493e-10 -0.00612369)
(0.0125048 -0.00220569 9.66699e-11 -0.0057774 2.65512e-10 -0.00611195)
(0.012532 -0.00180433 -2.78101e-11 -0.00556912 9.72601e-10 -0.0060709)
(0.0125546 -0.00122605 -5.76361e-11 -0.00515466 2.59892e-11 -0.00603553)
(0.0125726 -0.000634791 -1.07744e-10 -0.0047274 -3.10474e-10 -0.00595143)