/*--------------------------------*- C++ -*----------------------------------*\
| =========                 |                                                 |
| \\      /  F ield         | foam-extend: Open Source CFD                    |
|  \\    /   O peration     | Version:     4.1-20200408                       |
|   \\  /    A nd           | Web:         http://www.foam-extend.org         |
|    \\/     M anipulation  |                                                 |
\*---------------------------------------------------------------------------*/
FoamFile
{
    version     2.0;
    format      ascii;
    class       volScalarField;
    location    "0.0260000";
    object      sigmaHyd;
}
// * * * * * * * * * * * * * * * * * * * * * * * * * * * * * * * * * * * * * //

dimensions      [1 -1 -2 0 0 0 0];

internalField   nonuniform List<scalar> 
1952
(
-6.36913e+07
-6.12371e+07
-5.88797e+07
-5.47326e+07
-4.95923e+07
-4.20025e+07
-3.22882e+07
-1.80745e+07
-403214
2.61804e+07
5.85152e+07
1.09384e+08
1.69951e+08
2.65173e+08
3.50361e+08
-6.41462e+07
-7.10668e+07
-6.85586e+07
-6.59889e+07
-6.17524e+07
-5.62607e+07
-4.85398e+07
-3.83789e+07
-2.39914e+07
-5.82867e+06
2.09336e+07
5.36786e+07
1.04686e+08
1.65378e+08
2.60745e+08
3.44882e+08
-7.15503e+07
-7.67758e+07
-7.42134e+07
-7.14872e+07
-6.71502e+07
-6.1395e+07
-5.35267e+07
-4.30169e+07
-2.84259e+07
-9.84043e+06
1.71798e+07
5.03953e+07
1.01759e+08
1.63057e+08
2.592e+08
3.44572e+08
-7.72908e+07
-8.19571e+07
-7.9337e+07
-7.64792e+07
-7.20324e+07
-6.60512e+07
-5.80229e+07
-4.72047e+07
-3.23914e+07
-1.34112e+07
1.39038e+07
4.76105e+07
9.93954e+07
1.61421e+08
2.58255e+08
3.44388e+08
-8.25038e+07
-8.66353e+07
-8.39573e+07
-8.09801e+07
-7.6421e+07
-7.02329e+07
-6.20372e+07
-5.09298e+07
-3.58745e+07
-1.65093e+07
1.11507e+07
4.53609e+07
9.76923e+07
1.60475e+08
2.58104e+08
3.44925e+08
-8.72116e+07
-9.08365e+07
-8.81011e+07
-8.50153e+07
-8.03441e+07
-7.39663e+07
-6.56014e+07
-5.42239e+07
-3.89199e+07
-1.91874e+07
8.83205e+06
4.35223e+07
9.64268e+07
1.59878e+08
2.58301e+08
3.45647e+08
-9.14399e+07
-9.46236e+07
-9.18303e+07
-8.86434e+07
-8.38595e+07
-7.73033e+07
-6.87664e+07
-5.71315e+07
-4.1574e+07
-2.14881e+07
6.89457e+06
4.20473e+07
9.5504e+07
1.59588e+08
2.58688e+08
3.46573e+08
-9.52516e+07
-9.80063e+07
-9.51549e+07
-9.18727e+07
-8.69765e+07
-8.0252e+07
-7.15436e+07
-5.96652e+07
-4.38565e+07
-2.34387e+07
5.3e+06
4.08796e+07
9.48555e+07
1.59513e+08
2.59186e+08
3.47542e+08
-9.86572e+07
-1.01083e+08
-9.81738e+07
-9.48016e+07
-8.97953e+07
-8.29117e+07
-7.40346e+07
-6.19261e+07
-4.58739e+07
-2.51422e+07
3.93657e+06
3.99207e+07
9.43732e+07
1.59601e+08
2.59748e+08
3.48559e+08
-1.01755e+08
-1.03907e+08
-1.00942e+08
-9.74853e+07
-9.23741e+07
-8.53426e+07
-7.63057e+07
-6.39873e+07
-4.77065e+07
-2.66899e+07
2.70623e+06
3.9058e+07
9.39624e+07
1.59739e+08
2.60336e+08
3.49551e+08
-1.046e+08
-1.06502e+08
-1.03485e+08
-9.99483e+07
-9.47389e+07
-8.757e+07
-7.83832e+07
-6.58719e+07
-4.93754e+07
-2.80962e+07
1.59941e+06
3.8289e+07
9.36311e+07
1.5989e+08
2.60964e+08
3.50486e+08
-1.07215e+08
-1.08796e+08
-1.05728e+08
-1.02115e+08
-9.68117e+07
-8.95114e+07
-8.01804e+07
-6.74851e+07
-5.07825e+07
-2.92555e+07
725147
3.77248e+07
9.34592e+07
1.60137e+08
2.61587e+08
3.51351e+08
-1.09528e+08
-1.10927e+08
-1.07811e+08
-1.04126e+08
-9.87352e+07
-9.13093e+07
-8.18431e+07
-6.89742e+07
-5.20805e+07
-3.03183e+07
-74679.5
3.72245e+07
9.33071e+07
1.60424e+08
2.62182e+08
3.52151e+08
-1.11677e+08
-1.12966e+08
-1.09806e+08
-1.06054e+08
-1.00583e+08
-9.30407e+07
-8.34492e+07
-7.04199e+07
-5.33508e+07
-3.13749e+07
-881487
3.66948e+07
9.31299e+07
1.60674e+08
2.62778e+08
3.52939e+08
-1.13734e+08
-1.1481e+08
-1.11609e+08
-1.07793e+08
-1.02247e+08
-9.45948e+07
-8.4887e+07
-7.17022e+07
-5.44742e+07
-3.22934e+07
-1.57162e+06
3.62653e+07
9.30217e+07
1.60943e+08
2.63381e+08
3.53689e+08
-1.15596e+08
-1.16506e+08
-1.13266e+08
-1.09387e+08
-1.0377e+08
-9.60099e+07
-8.61886e+07
-7.28529e+07
-5.54695e+07
-3.30877e+07
-2.14584e+06
3.5942e+07
9.2993e+07
1.61272e+08
2.63932e+08
3.54355e+08
-1.1731e+08
-1.18143e+08
-1.14866e+08
-1.10927e+08
-1.05243e+08
-9.73787e+07
-8.74531e+07
-7.3974e+07
-5.64474e+07
-3.38747e+07
-2.73306e+06
3.55975e+07
9.29194e+07
1.61569e+08
2.64438e+08
3.54961e+08
-1.18966e+08
-1.19767e+08
-1.16454e+08
-1.12456e+08
-1.06709e+08
-9.87432e+07
-8.87177e+07
-7.51005e+07
-5.74376e+07
-3.46824e+07
-3.3462e+06
3.52125e+07
9.28203e+07
1.61811e+08
2.64927e+08
3.55524e+08
-1.20609e+08
-1.21259e+08
-1.17911e+08
-1.13854e+08
-1.08046e+08
-9.99807e+07
-8.98594e+07
-7.61072e+07
-5.83131e+07
-3.538e+07
-3.85811e+06
3.49166e+07
9.2792e+07
1.62075e+08
2.65412e+08
3.56042e+08
-1.2212e+08
-1.22684e+08
-1.19302e+08
-1.15185e+08
-1.09314e+08
-1.01147e+08
-9.09283e+07
-7.70367e+07
-5.9108e+07
-3.599e+07
-4.28085e+06
3.47188e+07
9.28454e+07
1.62422e+08
2.65899e+08
3.5651e+08
-1.23564e+08
-1.24109e+08
-1.20692e+08
-1.16516e+08
-1.10584e+08
-1.02317e+08
-9.20009e+07
-7.79717e+07
-5.99107e+07
-3.66108e+07
-4.71656e+06
3.45098e+07
9.2891e+07
1.62781e+08
2.66382e+08
3.56964e+08
-1.25009e+08
-1.25592e+08
-1.22141e+08
-1.17907e+08
-1.11916e+08
-1.0355e+08
-9.31434e+07
-7.89815e+07
-6.07956e+07
-3.73193e+07
-5.24774e+06
3.42091e+07
9.28538e+07
1.63094e+08
2.66873e+08
3.57459e+08
-1.26511e+08
-1.27115e+08
-1.23631e+08
-1.19338e+08
-1.13289e+08
-1.04825e+08
-9.43271e+07
-8.0033e+07
-6.17201e+07
-3.80692e+07
-5.81412e+06
3.38682e+07
9.27963e+07
1.63378e+08
2.67372e+08
3.58021e+08
-1.28053e+08
-1.28627e+08
-1.25108e+08
-1.20755e+08
-1.14647e+08
-1.0608e+08
-9.54874e+07
-8.1054e+07
-6.26083e+07
-3.87742e+07
-6.33013e+06
3.35845e+07
9.27894e+07
1.63702e+08
2.67893e+08
3.58605e+08
-1.29585e+08
-1.30198e+08
-1.26643e+08
-1.22225e+08
-1.16053e+08
-1.07377e+08
-9.66831e+07
-8.21017e+07
-6.35121e+07
-3.94858e+07
-6.8367e+06
3.3318e+07
9.28239e+07
1.64065e+08
2.68488e+08
3.59242e+08
-1.31176e+08
-1.31766e+08
-1.28171e+08
-1.23682e+08
-1.1744e+08
-1.08645e+08
-9.78396e+07
-8.30971e+07
-6.43517e+07
-4.01205e+07
-7.25629e+06
3.31454e+07
9.29535e+07
1.64504e+08
2.69152e+08
3.59959e+08
-1.32766e+08
-1.33416e+08
-1.29777e+08
-1.25209e+08
-1.18889e+08
-1.09961e+08
-9.90324e+07
-8.41119e+07
-6.51957e+07
-4.07398e+07
-7.64549e+06
3.3027e+07
9.31412e+07
1.65034e+08
2.69867e+08
3.6074e+08
-1.34439e+08
-1.35266e+08
-1.31578e+08
-1.26924e+08
-1.20518e+08
-1.11446e+08
-1.00383e+08
-8.52694e+07
-6.61696e+07
-4.14727e+07
-8.13083e+06
3.28307e+07
9.32903e+07
1.65556e+08
2.70659e+08
3.61623e+08
-1.36314e+08
-1.37277e+08
-1.33537e+08
-1.28787e+08
-1.22287e+08
-1.13057e+08
-1.01848e+08
-8.65223e+07
-6.72227e+07
-4.2261e+07
-8.64858e+06
3.2623e+07
9.34726e+07
1.66107e+08
2.71574e+08
3.62655e+08
-1.38352e+08
-1.39434e+08
-1.35634e+08
-1.30779e+08
-1.24172e+08
-1.14763e+08
-1.03389e+08
-8.78222e+07
-6.82976e+07
-4.3033e+07
-9.12505e+06
3.24955e+07
9.37445e+07
1.66717e+08
2.72582e+08
3.63872e+08
-1.40538e+08
-1.4184e+08
-1.37976e+08
-1.33002e+08
-1.26276e+08
-1.16668e+08
-1.05111e+08
-8.92705e+07
-6.94985e+07
-4.38878e+07
-9.65937e+06
3.23599e+07
9.40594e+07
1.67354e+08
2.73631e+08
3.65248e+08
-1.42975e+08
-1.44637e+08
-1.40703e+08
-1.35597e+08
-1.2874e+08
-1.18907e+08
-1.07145e+08
-9.09972e+07
-7.09456e+07
-4.49365e+07
-1.03567e+07
3.21801e+07
9.43034e+07
1.68122e+08
2.7478e+08
3.66853e+08
-1.45801e+08
-1.47722e+08
-1.43712e+08
-1.38457e+08
-1.31455e+08
-1.21369e+08
-1.09376e+08
-9.28764e+07
-7.25139e+07
-4.60339e+07
-1.10888e+07
3.21202e+07
9.45421e+07
1.68954e+08
2.76133e+08
3.68682e+08
-1.48916e+08
-1.51227e+08
-1.47143e+08
-1.41717e+08
-1.34552e+08
-1.24181e+08
-1.11923e+08
-9.50274e+07
-7.42891e+07
-4.72979e+07
-1.18583e+07
3.20153e+07
9.48729e+07
1.69753e+08
2.77694e+08
3.70651e+08
-1.52465e+08
-1.55357e+08
-1.51194e+08
-1.4558e+08
-1.38236e+08
-1.27551e+08
-1.14998e+08
-9.76661e+07
-7.65062e+07
-4.89614e+07
-1.29341e+07
3.16174e+07
9.50868e+07
1.70543e+08
2.7934e+08
3.72848e+08
-1.56643e+08
-1.60131e+08
-1.5589e+08
-1.50066e+08
-1.42529e+08
-1.31497e+08
-1.18622e+08
-1.00806e+08
-7.91837e+07
-5.10243e+07
-1.43464e+07
3.09058e+07
9.5091e+07
1.71358e+08
2.81114e+08
3.75275e+08
-1.61474e+08
-1.65597e+08
-1.61278e+08
-1.55228e+08
-1.47483e+08
-1.36078e+08
-1.22848e+08
-1.04507e+08
-8.23683e+07
-5.35362e+07
-1.6113e+07
2.98523e+07
9.47766e+07
1.72092e+08
2.82926e+08
3.77947e+08
-1.67002e+08
-1.71932e+08
-1.67542e+08
-1.61249e+08
-1.53291e+08
-1.41486e+08
-1.27883e+08
-1.08956e+08
-8.62726e+07
-5.6629e+07
-1.84347e+07
2.84459e+07
9.40592e+07
1.72667e+08
2.84645e+08
3.80789e+08
-1.73405e+08
-1.79315e+08
-1.74863e+08
-1.68325e+08
-1.6015e+08
-1.47936e+08
-1.33938e+08
-1.14388e+08
-9.11305e+07
-6.05506e+07
-2.16198e+07
2.64681e+07
9.29542e+07
1.73007e+08
2.86301e+08
3.83767e+08
-1.80857e+08
-1.8775e+08
-1.83255e+08
-1.76473e+08
-1.68091e+08
-1.55464e+08
-1.41064e+08
-1.20865e+08
-9.70024e+07
-6.54085e+07
-2.57341e+07
2.35757e+07
9.12569e+07
1.72951e+08
2.87788e+08
3.8682e+08
-1.89361e+08
-1.97415e+08
-1.92898e+08
-1.85888e+08
-1.77317e+08
-1.64299e+08
-1.49491e+08
-1.28659e+08
-1.04117e+08
-7.15202e+07
-3.09718e+07
1.95361e+07
8.86354e+07
1.72163e+08
2.88837e+08
3.89824e+08
-1.99086e+08
-2.08516e+08
-2.04013e+08
-1.9681e+08
-1.88093e+08
-1.74736e+08
-1.59555e+08
-1.3814e+08
-1.12893e+08
-7.93131e+07
-3.77175e+07
1.41524e+07
8.48075e+07
1.70445e+08
2.89249e+08
3.92629e+08
-2.10235e+08
-2.2104e+08
-2.16598e+08
-2.09257e+08
-2.00459e+08
-1.86846e+08
-1.71359e+08
-1.49451e+08
-1.23534e+08
-8.907e+07
-4.64139e+07
7.03438e+06
7.94072e+07
1.67483e+08
2.88742e+08
3.95016e+08
-2.22789e+08
-2.34982e+08
-2.30667e+08
-2.23272e+08
-2.14498e+08
-2.00763e+08
-1.851e+08
-1.62854e+08
-1.36384e+08
-1.01195e+08
-5.75964e+07
-2.45391e+06
7.17324e+07
1.62647e+08
2.86749e+08
3.96708e+08
-2.36737e+08
-2.50467e+08
-2.46362e+08
-2.39029e+08
-2.30425e+08
-2.16748e+08
-2.01105e+08
-1.7871e+08
-1.51899e+08
-1.16118e+08
-7.18067e+07
-1.49746e+07
6.10512e+07
1.55172e+08
2.8256e+08
3.97198e+08
-2.52196e+08
-2.67327e+08
-2.63537e+08
-2.56426e+08
-2.48191e+08
-2.3483e+08
-2.19497e+08
-1.97265e+08
-1.70481e+08
-1.34418e+08
-8.96445e+07
-3.13259e+07
4.64768e+07
1.44071e+08
2.75263e+08
3.95736e+08
-2.68989e+08
-2.85283e+08
-2.81927e+08
-2.75237e+08
-2.6762e+08
-2.54914e+08
-2.40273e+08
-2.18683e+08
-1.92429e+08
-1.56679e+08
-1.11902e+08
-5.26058e+07
2.66989e+07
1.27867e+08
2.63547e+08
3.91627e+08
-2.86825e+08
-3.03978e+08
-3.01198e+08
-2.95171e+08
-2.88479e+08
-2.76852e+08
-2.63396e+08
-2.43084e+08
-2.18037e+08
-1.83472e+08
-1.39488e+08
-8.01455e+07
-63564.8
1.04334e+08
2.45048e+08
3.83459e+08
-3.05341e+08
-3.22838e+08
-3.20788e+08
-3.15705e+08
-3.10294e+08
-3.0025e+08
-2.88577e+08
-2.70329e+08
-2.47383e+08
-2.15155e+08
-1.73214e+08
-1.15416e+08
-3.61835e+07
6.98333e+07
2.14316e+08
3.64486e+08
-3.23953e+08
-3.41074e+08
-3.39918e+08
-3.36076e+08
-3.32336e+08
-3.24429e+08
-3.15213e+08
-2.99949e+08
-2.80227e+08
-2.51819e+08
-2.1364e+08
-1.59879e+08
-8.4551e+07
1.86212e+07
1.60538e+08
3.13982e+08
-3.41872e+08
-3.57663e+08
-3.57563e+08
-3.55265e+08
-3.53597e+08
-3.484e+08
-3.42353e+08
-3.31045e+08
-3.15762e+08
-2.92884e+08
-2.60491e+08
-2.13894e+08
-1.46603e+08
-5.33413e+07
7.5105e+07
2.09787e+08
-3.58075e+08
-3.7142e+08
-3.72523e+08
-3.72047e+08
-3.72813e+08
-3.70854e+08
-3.68592e+08
-3.62138e+08
-3.52291e+08
-3.36459e+08
-3.1142e+08
-2.74237e+08
-2.17173e+08
-1.36553e+08
-2.34387e+07
9.19368e+07
-3.71386e+08
-3.80763e+08
-3.83189e+08
-3.84765e+08
-3.88278e+08
-3.90015e+08
-3.92087e+08
-3.9131e+08
-3.87814e+08
-3.80326e+08
-3.64082e+08
-3.38407e+08
-2.93557e+08
-2.2813e+08
-1.31947e+08
-3.56181e+07
-3.80237e+08
-3.83985e+08
-3.87815e+08
-3.91602e+08
-3.9809e+08
-4.03845e+08
-4.10693e+08
-4.16191e+08
-4.19792e+08
-4.21625e+08
-4.15309e+08
-4.02835e+08
-3.71658e+08
-3.23545e+08
-2.45759e+08
-1.68568e+08
-3.82938e+08
-3.79269e+08
-3.84533e+08
-3.90602e+08
-4.00178e+08
-4.10112e+08
-4.21994e+08
-4.34102e+08
-4.45326e+08
-4.57161e+08
-4.61636e+08
-4.63927e+08
-4.47783e+08
-4.19853e+08
-3.62568e+08
-3.06499e+08
-3.77693e+08
-3.64658e+08
-3.71328e+08
-3.79643e+08
-3.92292e+08
-4.06376e+08
-4.23349e+08
-4.4213e+08
-4.61175e+08
-4.83326e+08
-4.99189e+08
-5.17574e+08
-5.17784e+08
-5.14202e+08
-4.79843e+08
-4.4996e+08
-3.62571e+08
-3.38958e+08
-3.46957e+08
-3.57391e+08
-3.72961e+08
-3.90963e+08
-4.12785e+08
-4.37823e+08
-4.64161e+08
-4.95872e+08
-5.22827e+08
-5.57492e+08
-5.74813e+08
-5.99967e+08
-5.91656e+08
-6.01077e+08
-3.36396e+08
-2.97553e+08
-3.06634e+08
-3.18778e+08
-3.3675e+08
-3.57936e+08
-3.83909e+08
-4.14418e+08
-4.47774e+08
-4.88182e+08
-5.25782e+08
-5.75898e+08
-6.11172e+08
-6.67959e+08
-6.90893e+08
-7.54337e+08
-2.94628e+08
-2.44276e+08
-2.54347e+08
-2.68115e+08
-2.88362e+08
-3.1263e+08
-3.42811e+08
-3.78639e+08
-4.18922e+08
-4.67694e+08
-5.15937e+08
-5.79967e+08
-6.3324e+08
-7.17681e+08
-7.73276e+08
-8.95149e+08
-2.41007e+08
-1.97538e+08
-2.08753e+08
-2.24455e+08
-2.4731e+08
-2.75122e+08
-3.09731e+08
-3.5085e+08
-3.97542e+08
-4.54021e+08
-5.11843e+08
-5.87204e+08
-6.5508e+08
-7.59274e+08
-8.40529e+08
-1.00859e+09
-1.93825e+08
-1.67996e+08
-1.80187e+08
-1.97494e+08
-2.22548e+08
-2.53309e+08
-2.91641e+08
-3.37152e+08
-3.89045e+08
-4.51178e+08
-5.16161e+08
-5.98924e+08
-6.76014e+08
-7.8946e+08
-8.80622e+08
-1.06051e+09
-1.63901e+08
-1.57341e+08
-1.70074e+08
-1.88197e+08
-2.14442e+08
-2.4673e+08
-2.87154e+08
-3.3495e+08
-3.9e+08
-4.54956e+08
-5.23918e+08
-6.09229e+08
-6.90219e+08
-8.03555e+08
-8.94723e+08
-1.06374e+09
-1.53043e+08
-1.6588e+08
-1.78666e+08
-1.96766e+08
-2.231e+08
-2.55443e+08
-2.96217e+08
-3.44129e+08
-3.99927e+08
-4.64542e+08
-5.34e+08
-6.16832e+08
-6.96334e+08
-8.00917e+08
-8.84003e+08
-1.02881e+09
-1.61557e+08
-1.92625e+08
-2.0507e+08
-2.22416e+08
-2.47828e+08
-2.78835e+08
-3.1826e+08
-3.64165e+08
-4.18271e+08
-4.7945e+08
-5.46071e+08
-6.21948e+08
-6.953e+08
-7.84212e+08
-8.52961e+08
-9.64738e+08
-1.8841e+08
-2.35508e+08
-2.47463e+08
-2.63671e+08
-2.87509e+08
-3.16178e+08
-3.52906e+08
-3.95072e+08
-4.45313e+08
-5.00324e+08
-5.61068e+08
-6.26145e+08
-6.89209e+08
-7.57024e+08
-8.06452e+08
-8.79614e+08
-2.31419e+08
-2.91597e+08
-3.03171e+08
-3.18262e+08
-3.40358e+08
-3.66257e+08
-3.99539e+08
-4.36891e+08
-4.81668e+08
-5.28443e+08
-5.80711e+08
-6.31761e+08
-6.80709e+08
-7.22964e+08
-7.48907e+08
-7.80487e+08
-2.87556e+08
-3.57745e+08
-3.69108e+08
-3.83361e+08
-4.03975e+08
-4.27328e+08
-4.57124e+08
-4.89374e+08
-5.27843e+08
-5.65173e+08
-6.06982e+08
-6.41374e+08
-6.72585e+08
-6.85473e+08
-6.84553e+08
-6.73678e+08
-3.53683e+08
-4.31181e+08
-4.42202e+08
-4.55639e+08
-4.75027e+08
-4.96325e+08
-5.22967e+08
-5.50277e+08
-5.8222e+08
-6.10052e+08
-6.40837e+08
-6.5733e+08
-6.67927e+08
-6.48577e+08
-6.18691e+08
-5.66657e+08
-4.27226e+08
-5.08266e+08
-5.18365e+08
-5.30396e+08
-5.48317e+08
-5.68078e+08
-5.92255e+08
-6.15551e+08
-6.42044e+08
-6.62724e+08
-6.84713e+08
-6.83889e+08
-6.71363e+08
-6.17854e+08
-5.5899e+08
-4.69933e+08
-5.04759e+08
-5.86781e+08
-5.95931e+08
-6.06604e+08
-6.2355e+08
-6.43577e+08
-6.67539e+08
-6.89134e+08
-7.11237e+08
-7.24762e+08
-7.29537e+08
-7.0462e+08
-6.65366e+08
-5.86e+08
-5.10304e+08
-3.94773e+08
-5.83724e+08
-6.77245e+08
-6.8626e+08
-6.95884e+08
-7.10708e+08
-7.2492e+08
-7.39589e+08
-7.47642e+08
-7.50347e+08
-7.38195e+08
-7.14478e+08
-6.69353e+08
-6.15959e+08
-5.32923e+08
-4.58887e+08
-3.45181e+08
-6.7404e+08
-7.41594e+08
-7.4625e+08
-7.4846e+08
-7.50304e+08
-7.46805e+08
-7.40914e+08
-7.2628e+08
-7.05935e+08
-6.71144e+08
-6.33145e+08
-5.83461e+08
-5.32991e+08
-4.63383e+08
-3.99121e+08
-3.08534e+08
-7.39576e+08
-7.15817e+08
-7.13451e+08
-7.07787e+08
-6.98713e+08
-6.85305e+08
-6.69007e+08
-6.46363e+08
-6.20021e+08
-5.854e+08
-5.51603e+08
-5.06645e+08
-4.60152e+08
-3.99651e+08
-3.41848e+08
-2.71605e+08
-7.16493e+08
-6.46249e+08
-6.41064e+08
-6.32553e+08
-6.21384e+08
-6.08899e+08
-5.93949e+08
-5.73777e+08
-5.50297e+08
-5.19196e+08
-4.86072e+08
-4.44244e+08
-4.01489e+08
-3.48212e+08
-2.95916e+08
-2.33698e+08
-6.48081e+08
-5.82453e+08
-5.77964e+08
-5.70711e+08
-5.60567e+08
-5.4737e+08
-5.31287e+08
-5.10761e+08
-4.8749e+08
-4.58428e+08
-4.27883e+08
-3.90174e+08
-3.51746e+08
-3.04892e+08
-2.5928e+08
-2.04223e+08
-5.8402e+08
-5.23782e+08
-5.189e+08
-5.11611e+08
-5.01544e+08
-4.88974e+08
-4.73721e+08
-4.54724e+08
-4.33221e+08
-4.06829e+08
-3.78779e+08
-3.4492e+08
-3.10582e+08
-2.69512e+08
-2.29759e+08
-1.82126e+08
-5.25465e+08
-4.7099e+08
-4.66285e+08
-4.59525e+08
-4.49978e+08
-4.37995e+08
-4.23419e+08
-4.05647e+08
-3.8566e+08
-3.61693e+08
-3.36331e+08
-3.06231e+08
-2.75879e+08
-2.40048e+08
-2.05696e+08
-1.64597e+08
-4.72553e+08
-4.23133e+08
-4.18531e+08
-4.12211e+08
-4.03202e+08
-3.92106e+08
-3.78604e+08
-3.62403e+08
-3.44218e+08
-3.22723e+08
-3e+08
-2.73409e+08
-2.46739e+08
-2.15615e+08
-1.86014e+08
-1.50745e+08
-4.24617e+08
-3.80265e+08
-3.75894e+08
-3.70108e+08
-3.61742e+08
-3.51566e+08
-3.3916e+08
-3.24477e+08
-3.08036e+08
-2.88867e+08
-2.68675e+08
-2.45323e+08
-2.22036e+08
-1.95114e+08
-1.69709e+08
-1.39529e+08
-3.8163e+08
-3.41821e+08
-3.37707e+08
-3.32454e+08
-3.24767e+08
-3.15558e+08
-3.04308e+08
-2.91152e+08
-2.76441e+08
-2.59473e+08
-2.41652e+08
-2.21247e+08
-2.01006e+08
-1.77797e+08
-1.56036e+08
-1.3023e+08
-3.43068e+08
-3.07514e+08
-3.03696e+08
-2.98976e+08
-2.91982e+08
-2.83718e+08
-2.73598e+08
-2.61886e+08
-2.48808e+08
-2.3387e+08
-2.1823e+08
-2.00481e+08
-1.82963e+08
-1.63022e+08
-1.44439e+08
-1.22435e+08
-3.0864e+08
-2.76911e+08
-2.73402e+08
-2.69194e+08
-2.62885e+08
-2.55529e+08
-2.46495e+08
-2.36142e+08
-2.24591e+08
-2.11507e+08
-1.97849e+08
-1.82466e+08
-1.67355e+08
-1.50258e+08
-1.34397e+08
-1.15605e+08
-2.77921e+08
-2.49661e+08
-2.46465e+08
-2.42739e+08
-2.37088e+08
-2.3058e+08
-2.22567e+08
-2.13462e+08
-2.03311e+08
-1.91901e+08
-1.80022e+08
-1.66735e+08
-1.53739e+08
-1.39118e+08
-1.25605e+08
-1.09578e+08
-2.50558e+08
-2.25393e+08
-2.22504e+08
-2.19224e+08
-2.14194e+08
-2.0847e+08
-2.014e+08
-1.93431e+08
-1.84552e+08
-1.74638e+08
-1.64342e+08
-1.52895e+08
-1.41742e+08
-1.29253e+08
-1.17741e+08
-1.04045e+08
-2.26187e+08
-2.03779e+08
-2.01185e+08
-1.98312e+08
-1.93858e+08
-1.88845e+08
-1.82636e+08
-1.75689e+08
-1.6795e+08
-1.59364e+08
-1.50465e+08
-1.40625e+08
-1.31071e+08
-1.20417e+08
-1.10607e+08
-9.88824e+07
-2.04477e+08
-1.84508e+08
-1.82191e+08
-1.79685e+08
-1.75759e+08
-1.71387e+08
-1.65954e+08
-1.59919e+08
-1.53195e+08
-1.45777e+08
-1.38104e+08
-1.2966e+08
-1.21486e+08
-1.12402e+08
-1.04037e+08
-9.39795e+07
-1.85118e+08
-1.67298e+08
-1.6524e+08
-1.63061e+08
-1.59614e+08
-1.55813e+08
-1.51076e+08
-1.45845e+08
-1.40019e+08
-1.33623e+08
-1.27018e+08
-1.1978e+08
-1.12792e+08
-1.05044e+08
-9.78947e+07
-8.92251e+07
-1.67831e+08
-1.51898e+08
-1.50077e+08
-1.48189e+08
-1.45171e+08
-1.41875e+08
-1.37755e+08
-1.33232e+08
-1.28194e+08
-1.22687e+08
-1.17009e+08
-1.1081e+08
-1.04836e+08
-9.82264e+07
-9.21084e+07
-8.46176e+07
-1.52361e+08
-1.38082e+08
-1.36476e+08
-1.34843e+08
-1.32209e+08
-1.29356e+08
-1.25779e+08
-1.21875e+08
-1.17524e+08
-1.12788e+08
-1.0791e+08
-1.02599e+08
-9.74906e+07
-9.18425e+07
-8.65857e+07
-8.00676e+07
-1.38483e+08
-1.25649e+08
-1.24237e+08
-1.22826e+08
-1.20531e+08
-1.18066e+08
-1.14966e+08
-1.11599e+08
-1.07845e+08
-1.03773e+08
-9.95829e+07
-9.50324e+07
-9.06595e+07
-8.58261e+07
-8.12952e+07
-7.55981e+07
-1.25996e+08
-1.14422e+08
-1.13183e+08
-1.11966e+08
-1.0997e+08
-1.07842e+08
-1.05157e+08
-1.02254e+08
-9.90159e+07
-9.55146e+07
-9.19139e+07
-8.80102e+07
-8.42604e+07
-8.01126e+07
-7.61871e+07
-7.11702e+07
-1.14723e+08
-1.04248e+08
-1.03163e+08
-1.02113e+08
-1.00378e+08
-9.85404e+07
-9.62163e+07
-9.37134e+07
-9.09198e+07
-8.79067e+07
-8.48091e+07
-8.14547e+07
-7.82317e+07
-7.46605e+07
-7.12401e+07
-6.67877e+07
-1.04508e+08
-9.49915e+07
-9.40417e+07
-9.31366e+07
-9.16279e+07
-9.00414e+07
-8.80288e+07
-8.58691e+07
-8.34569e+07
-8.08601e+07
-7.81909e+07
-7.53017e+07
-7.25231e+07
-6.94363e+07
-6.6438e+07
-6.24573e+07
-9.52161e+07
-8.65362e+07
-8.57053e+07
-8.49238e+07
-8.3612e+07
-8.22404e+07
-8.0496e+07
-7.86297e+07
-7.65435e+07
-7.4301e+07
-7.19955e+07
-6.94992e+07
-6.70944e+07
-6.44129e+07
-6.17642e+07
-5.81702e+07
-8.67304e+07
-7.87814e+07
-7.80543e+07
-7.73784e+07
-7.62365e+07
-7.50486e+07
-7.35343e+07
-7.19179e+07
-7.01099e+07
-6.81679e+07
-6.61705e+07
-6.40058e+07
-6.19157e+07
-5.95748e+07
-5.72193e+07
-5.3952e+07
-7.89497e+07
-7.16407e+07
-7.10036e+07
-7.04177e+07
-6.94218e+07
-6.83904e+07
-6.70726e+07
-6.56687e+07
-6.4097e+07
-6.24094e+07
-6.06723e+07
-5.87868e+07
-5.69606e+07
-5.49041e+07
-5.27915e+07
-4.97925e+07
-7.17868e+07
-6.50399e+07
-6.44808e+07
-6.3971e+07
-6.31003e+07
-6.22016e+07
-6.10514e+07
-5.98273e+07
-5.8456e+07
-5.69831e+07
-5.54656e+07
-5.3815e+07
-5.22102e+07
-5.03923e+07
-4.84828e+07
-4.57095e+07
-6.51671e+07
-5.89159e+07
-5.8424e+07
-5.79785e+07
-5.72146e+07
-5.6428e+07
-5.542e+07
-5.43478e+07
-5.31458e+07
-5.18537e+07
-5.05208e+07
-4.90673e+07
-4.76477e+07
-4.60293e+07
-4.42891e+07
-4.17045e+07
-5.90272e+07
-5.32149e+07
-5.27805e+07
-5.23891e+07
-5.17159e+07
-5.10238e+07
-5.0136e+07
-4.91914e+07
-4.81321e+07
-4.69916e+07
-4.58135e+07
-4.45249e+07
-4.326e+07
-4.18081e+07
-4.02082e+07
-3.77795e+07
-5.33128e+07
-4.78915e+07
-4.75062e+07
-4.71598e+07
-4.65635e+07
-4.59504e+07
-4.51638e+07
-4.4326e+07
-4.33862e+07
-4.23725e+07
-4.13237e+07
-4.01727e+07
-3.90366e+07
-3.77238e+07
-3.62409e+07
-3.39439e+07
-4.79781e+07
-4.29072e+07
-4.25636e+07
-4.22547e+07
-4.1723e+07
-4.11755e+07
-4.04737e+07
-3.97247e+07
-3.88845e+07
-3.7976e+07
-3.70346e+07
-3.59978e+07
-3.49681e+07
-3.37706e+07
-3.23837e+07
-3.0195e+07
-4.29845e+07
-3.82301e+07
-3.79218e+07
-3.76435e+07
-3.71658e+07
-3.66725e+07
-3.6041e+07
-3.53652e+07
-3.46073e+07
-3.37855e+07
-3.29325e+07
-3.19899e+07
-3.10478e+07
-2.99458e+07
-2.86383e+07
-2.6541e+07
-3.82998e+07
-3.38336e+07
-3.35548e+07
-3.33013e+07
-3.28684e+07
-3.24191e+07
-3.18456e+07
-3.12292e+07
-3.05387e+07
-2.97874e+07
-2.90062e+07
-2.81402e+07
-2.7269e+07
-2.6245e+07
-2.50019e+07
-2.29804e+07
-3.38971e+07
-2.96958e+07
-2.94416e+07
-2.92078e+07
-2.88116e+07
-2.83975e+07
-2.78708e+07
-2.73021e+07
-2.66656e+07
-2.59705e+07
-2.52466e+07
-2.44416e+07
-2.36266e+07
-2.2665e+07
-2.14727e+07
-1.95119e+07
-2.97544e+07
-2.5799e+07
-2.55651e+07
-2.53465e+07
-2.49799e+07
-2.45931e+07
-2.41037e+07
-2.35719e+07
-2.29778e+07
-2.23263e+07
-2.16466e+07
-2.08887e+07
-2.01166e+07
-1.92036e+07
-1.80503e+07
-1.61392e+07
-2.58539e+07
-2.21291e+07
-2.19118e+07
-2.17043e+07
-2.13611e+07
-2.09947e+07
-2.05339e+07
-2.00297e+07
-1.94673e+07
-1.88479e+07
-1.82005e+07
-1.74769e+07
-1.67351e+07
-1.58571e+07
-1.47302e+07
-1.28544e+07
-2.21813e+07
-1.86752e+07
-1.84714e+07
-1.82714e+07
-1.7946e+07
-1.75939e+07
-1.71542e+07
-1.66691e+07
-1.61289e+07
-1.5531e+07
-1.49049e+07
-1.42036e+07
-1.34803e+07
-1.26247e+07
-1.15129e+07
-9.66077e+06
-1.87257e+07
-1.54293e+07
-1.52361e+07
-1.50406e+07
-1.47284e+07
-1.43851e+07
-1.39596e+07
-1.34858e+07
-1.29592e+07
-1.23732e+07
-1.17579e+07
-1.10674e+07
-1.0351e+07
-9.50487e+06
-8.3959e+06
-6.55403e+06
-1.54788e+07
-1.23859e+07
-1.2201e+07
-1.20072e+07
-1.17039e+07
-1.13647e+07
-1.09474e+07
-1.04782e+07
-9.95706e+06
-9.37391e+06
-8.7597e+06
-8.06876e+06
-7.34785e+06
-6.49809e+06
-5.37932e+06
-3.53321e+06
-1.24351e+07
-9.54141e+06
-9.36303e+06
-9.16863e+06
-8.8708e+06
-8.53156e+06
-8.11715e+06
-7.64639e+06
-7.12364e+06
-6.53501e+06
-5.91247e+06
-5.21027e+06
-4.47324e+06
-3.6066e+06
-2.46514e+06
-600946
-9.59085e+06
-6.89433e+06
-6.72098e+06
-6.52419e+06
-6.22896e+06
-5.88636e+06
-5.47047e+06
-4.99299e+06
-4.46222e+06
-3.86053e+06
-3.22078e+06
-2.49657e+06
-1.73137e+06
-833135
346542
2.24858e+06
-6.94446e+06
-4.44449e+06
-4.27514e+06
-4.07467e+06
-3.77995e+06
-3.43155e+06
-3.01073e+06
-2.52244e+06
-1.97834e+06
-1.35705e+06
-691941
64392.3
869687
1.81429e+06
3.04777e+06
5.00583e+06
-4.49558e+06
-2.19275e+06
-2.02682e+06
-1.82205e+06
-1.52655e+06
-1.17091e+06
-742943
-241068
320319
966401
1.66394e+06
2.46185e+06
3.31952e+06
4.32683e+06
5.63337e+06
7.6733e+06
-2.24493e+06
-140581
22062.6
231076
527664
890733
1.32665e+06
1.84316e+06
2.42393e+06
3.09797e+06
3.83319e+06
4.68041e+06
5.60192e+06
6.68811e+06
8.0885e+06
1.02389e+07
-193757
1.71045e+06
1.86947e+06
2.08184e+06
2.37878e+06
2.74806e+06
3.19094e+06
3.72103e+06
4.32082e+06
5.02321e+06
5.79856e+06
6.70002e+06
7.69523e+06
8.87577e+06
1.03932e+07
1.26881e+07
1.65655e+06
3.35925e+06
3.51386e+06
3.72783e+06
4.02322e+06
4.39589e+06
4.84273e+06
5.38273e+06
5.99796e+06
6.72526e+06
7.53886e+06
8.49478e+06
9.56975e+06
1.08568e+07
1.2516e+07
1.49937e+07
3.30512e+06
4.80556e+06
4.95454e+06
5.16755e+06
5.45831e+06
5.82994e+06
6.27549e+06
6.81882e+06
7.44203e+06
8.18589e+06
9.0297e+06
1.00331e+07
1.11869e+07
1.25855e+07
1.44138e+07
1.71131e+07
4.75187e+06
6.05201e+06
6.19377e+06
6.40245e+06
6.68443e+06
7.04895e+06
7.48569e+06
8.0226e+06
8.64176e+06
9.38771e+06
1.0245e+07
1.12783e+07
1.24973e+07
1.40022e+07
1.60344e+07
1.9024e+07
5.99958e+06
7.10304e+06
7.23567e+06
7.43609e+06
7.70424e+06
8.05429e+06
8.47273e+06
8.99051e+06
9.58895e+06
1.03154e+07
1.11579e+07
1.21872e+07
1.34316e+07
1.50088e+07
1.72467e+07
2.06135e+07
7.0528e+06
7.94464e+06
8.06672e+06
8.25558e+06
8.50568e+06
8.83489e+06
9.22662e+06
9.71348e+06
1.02748e+07
1.09591e+07
1.17533e+07
1.27328e+07
1.39335e+07
1.54981e+07
1.78271e+07
2.15217e+07
7.8973e+06
8.71528e+06
8.82254e+06
8.99241e+06
9.21455e+06
9.50914e+06
9.85609e+06
1.02875e+07
1.07778e+07
1.13707e+07
1.2041e+07
1.28504e+07
1.37988e+07
1.4996e+07
1.67533e+07
1.95213e+07
8.67266e+06
9.00164e+06
9.09816e+06
9.25346e+06
9.45498e+06
9.72381e+06
1.00383e+07
1.043e+07
1.08709e+07
1.14018e+07
1.19902e+07
1.26862e+07
1.34552e+07
1.43521e+07
1.54392e+07
1.74805e+07
8.96263e+06
)
;

boundaryField
{
    wireUpstream
    {
        type            zeroGradient;
    }
    wireDownstream
    {
        type            zeroGradient;
    }
    wireTopContact
    {
        type            zeroGradient;
    }
    front
    {
        type            wedge;
    }
    back
    {
        type            wedge;
    }
}


// ************************************************************************* //
