/*--------------------------------*- C++ -*----------------------------------*\
| =========                 |                                                 |
| \\      /  F ield         | foam-extend: Open Source CFD                    |
|  \\    /   O peration     | Version:     4.1-20200408                       |
|   \\  /    A nd           | Web:         http://www.foam-extend.org         |
|    \\/     M anipulation  |                                                 |
\*---------------------------------------------------------------------------*/
FoamFile
{
    version     2.0;
    format      ascii;
    class       volVectorField;
    location    "0.0260000";
    object      U_0_0;
}
// * * * * * * * * * * * * * * * * * * * * * * * * * * * * * * * * * * * * * //

dimensions      [0 1 0 0 0 0 0];

internalField   nonuniform List<vector> 
1952
(
(0.0258072 -3.79773e-07 0)
(0.0258072 -6.18817e-07 0)
(0.0258072 -8.60743e-07 0)
(0.0258071 -1.1052e-06 0)
(0.0258071 -1.34903e-06 0)
(0.025807 -1.5959e-06 0)
(0.0258069 -1.84055e-06 0)
(0.0258068 -2.08901e-06 0)
(0.0258068 -2.33285e-06 0)
(0.0258067 -2.58128e-06 0)
(0.0258066 -2.82059e-06 0)
(0.0258065 -3.0642e-06 0)
(0.0258065 -3.28926e-06 0)
(0.0258065 -3.51692e-06 0)
(0.0258066 -3.70671e-06 0)
(0.0258072 -1.62724e-07 0)
(0.0258067 -3.84705e-07 0)
(0.0258067 -6.26819e-07 0)
(0.0258066 -8.71859e-07 0)
(0.0258066 -1.11936e-06 0)
(0.0258065 -1.36624e-06 0)
(0.0258065 -1.61604e-06 0)
(0.0258064 -1.86359e-06 0)
(0.0258063 -2.11477e-06 0)
(0.0258062 -2.36123e-06 0)
(0.0258061 -2.61205e-06 0)
(0.0258061 -2.85356e-06 0)
(0.025806 -3.09906e-06 0)
(0.025806 -3.32566e-06 0)
(0.025806 -3.55444e-06 0)
(0.025806 -3.74501e-06 0)
(0.0258067 -1.64837e-07 0)
(0.0258062 -3.89159e-07 0)
(0.0258062 -6.34043e-07 0)
(0.0258061 -8.81886e-07 0)
(0.0258061 -1.13213e-06 0)
(0.025806 -1.38173e-06 0)
(0.0258059 -1.63415e-06 0)
(0.0258059 -1.88424e-06 0)
(0.0258058 -2.13782e-06 0)
(0.0258057 -2.38654e-06 0)
(0.0258056 -2.63942e-06 0)
(0.0258055 -2.88277e-06 0)
(0.0258055 -3.12988e-06 0)
(0.0258054 -3.35776e-06 0)
(0.0258054 -3.58754e-06 0)
(0.0258055 -3.77907e-06 0)
(0.0258062 -1.66745e-07 0)
(0.0258056 -3.93194e-07 0)
(0.0258056 -6.40584e-07 0)
(0.0258056 -8.90959e-07 0)
(0.0258055 -1.14367e-06 0)
(0.0258055 -1.39572e-06 0)
(0.0258054 -1.65048e-06 0)
(0.0258053 -1.90285e-06 0)
(0.0258052 -2.15856e-06 0)
(0.0258052 -2.40929e-06 0)
(0.0258051 -2.66402e-06 0)
(0.025805 -2.90901e-06 0)
(0.0258049 -3.1576e-06 0)
(0.0258049 -3.38672e-06 0)
(0.0258049 -3.61756e-06 0)
(0.025805 -3.81021e-06 0)
(0.0258056 -1.68473e-07 0)
(0.0258051 -3.96858e-07 0)
(0.0258051 -6.46523e-07 0)
(0.025805 -8.99193e-07 0)
(0.025805 -1.15414e-06 0)
(0.0258049 -1.4084e-06 0)
(0.0258049 -1.66527e-06 0)
(0.0258048 -1.91969e-06 0)
(0.0258047 -2.17732e-06 0)
(0.0258046 -2.42986e-06 0)
(0.0258045 -2.68627e-06 0)
(0.0258044 -2.93279e-06 0)
(0.0258044 -3.18278e-06 0)
(0.0258043 -3.41316e-06 0)
(0.0258043 -3.64517e-06 0)
(0.0258044 -3.83907e-06 0)
(0.0258051 -1.70042e-07 0)
(0.0258046 -4.00211e-07 0)
(0.0258045 -6.51956e-07 0)
(0.0258045 -9.06726e-07 0)
(0.0258045 -1.16371e-06 0)
(0.0258044 -1.42e-06 0)
(0.0258043 -1.6788e-06 0)
(0.0258042 -1.9351e-06 0)
(0.0258042 -2.1945e-06 0)
(0.0258041 -2.44874e-06 0)
(0.025804 -2.70671e-06 0)
(0.0258039 -2.95473e-06 0)
(0.0258038 -3.20607e-06 0)
(0.0258038 -3.43777e-06 0)
(0.0258038 -3.67102e-06 0)
(0.0258039 -3.86621e-06 0)
(0.0258046 -1.71479e-07 0)
(0.025804 -4.03295e-07 0)
(0.025804 -6.56953e-07 0)
(0.025804 -9.13655e-07 0)
(0.0258039 -1.17251e-06 0)
(0.0258038 -1.43067e-06 0)
(0.0258038 -1.69126e-06 0)
(0.0258037 -1.94931e-06 0)
(0.0258036 -2.21037e-06 0)
(0.0258035 -2.46621e-06 0)
(0.0258034 -2.72569e-06 0)
(0.0258033 -2.97516e-06 0)
(0.0258033 -3.22788e-06 0)
(0.0258032 -3.46091e-06 0)
(0.0258032 -3.69546e-06 0)
(0.0258033 -3.89198e-06 0)
(0.025804 -1.728e-07 0)
(0.0258035 -4.06165e-07 0)
(0.0258034 -6.61603e-07 0)
(0.0258034 -9.20109e-07 0)
(0.0258034 -1.18071e-06 0)
(0.0258033 -1.44063e-06 0)
(0.0258032 -1.70288e-06 0)
(0.0258031 -1.9626e-06 0)
(0.0258031 -2.22524e-06 0)
(0.025803 -2.48262e-06 0)
(0.0258029 -2.74358e-06 0)
(0.0258028 -2.9945e-06 0)
(0.0258027 -3.24858e-06 0)
(0.0258027 -3.48297e-06 0)
(0.0258027 -3.71884e-06 0)
(0.0258028 -3.91668e-06 0)
(0.0258035 -1.74029e-07 0)
(0.0258029 -4.08855e-07 0)
(0.0258029 -6.65965e-07 0)
(0.0258029 -9.26165e-07 0)
(0.0258028 -1.18841e-06 0)
(0.0258028 -1.44999e-06 0)
(0.0258027 -1.71383e-06 0)
(0.0258026 -1.97514e-06 0)
(0.0258025 -2.23931e-06 0)
(0.0258024 -2.4982e-06 0)
(0.0258023 -2.76063e-06 0)
(0.0258022 -3.01296e-06 0)
(0.0258022 -3.26845e-06 0)
(0.0258021 -3.50419e-06 0)
(0.0258021 -3.74141e-06 0)
(0.0258022 -3.94059e-06 0)
(0.0258029 -1.75181e-07 0)
(0.0258024 -4.11408e-07 0)
(0.0258023 -6.70107e-07 0)
(0.0258023 -9.31921e-07 0)
(0.0258023 -1.19573e-06 0)
(0.0258022 -1.45893e-06 0)
(0.0258021 -1.72425e-06 0)
(0.025802 -1.98711e-06 0)
(0.0258019 -2.2528e-06 0)
(0.0258019 -2.51317e-06 0)
(0.0258018 -2.77707e-06 0)
(0.0258017 -3.03082e-06 0)
(0.0258016 -3.28771e-06 0)
(0.0258016 -3.52482e-06 0)
(0.0258016 -3.7634e-06 0)
(0.0258017 -3.96391e-06 0)
(0.0258024 -1.76275e-07 0)
(0.0258018 -4.13847e-07 0)
(0.0258018 -6.7407e-07 0)
(0.0258018 -9.37436e-07 0)
(0.0258017 -1.20276e-06 0)
(0.0258016 -1.46753e-06 0)
(0.0258016 -1.73429e-06 0)
(0.0258015 -1.99865e-06 0)
(0.0258014 -2.26585e-06 0)
(0.0258013 -2.52768e-06 0)
(0.0258012 -2.79305e-06 0)
(0.0258011 -3.04822e-06 0)
(0.025801 -3.30655e-06 0)
(0.025801 -3.54502e-06 0)
(0.025801 -3.78499e-06 0)
(0.0258011 -3.98682e-06 0)
(0.0258018 -1.77319e-07 0)
(0.0258013 -4.16203e-07 0)
(0.0258012 -6.77902e-07 0)
(0.0258012 -9.42764e-07 0)
(0.0258011 -1.20958e-06 0)
(0.0258011 -1.47584e-06 0)
(0.025801 -1.74408e-06 0)
(0.0258009 -2.00992e-06 0)
(0.0258008 -2.27859e-06 0)
(0.0258007 -2.54188e-06 0)
(0.0258006 -2.80871e-06 0)
(0.0258005 -3.06531e-06 0)
(0.0258005 -3.32508e-06 0)
(0.0258004 -3.56492e-06 0)
(0.0258004 -3.80633e-06 0)
(0.0258005 -4.00945e-06 0)
(0.0258013 -1.78329e-07 0)
(0.0258007 -4.18498e-07 0)
(0.0258007 -6.81639e-07 0)
(0.0258006 -9.47955e-07 0)
(0.0258006 -1.21625e-06 0)
(0.0258005 -1.48395e-06 0)
(0.0258004 -1.75366e-06 0)
(0.0258004 -2.02098e-06 0)
(0.0258003 -2.29109e-06 0)
(0.0258002 -2.55588e-06 0)
(0.0258001 -2.82415e-06 0)
(0.0258 -3.0822e-06 0)
(0.0257999 -3.34342e-06 0)
(0.0257999 -3.58465e-06 0)
(0.0257999 -3.8275e-06 0)
(0.0258 -4.03192e-06 0)
(0.0258007 -1.79312e-07 0)
(0.0258001 -4.20751e-07 0)
(0.0258001 -6.8531e-07 0)
(0.0258001 -9.53059e-07 0)
(0.0258 -1.2228e-06 0)
(0.0258 -1.49195e-06 0)
(0.0257999 -1.76311e-06 0)
(0.0257998 -2.03191e-06 0)
(0.0257997 -2.30346e-06 0)
(0.0257996 -2.56975e-06 0)
(0.0257995 -2.83943e-06 0)
(0.0257994 -3.09896e-06 0)
(0.0257993 -3.36163e-06 0)
(0.0257993 -3.60428e-06 0)
(0.0257993 -3.84855e-06 0)
(0.0257994 -4.05428e-06 0)
(0.0258002 -1.80278e-07 0)
(0.0257996 -4.22969e-07 0)
(0.0257996 -6.88927e-07 0)
(0.0257995 -9.5809e-07 0)
(0.0257995 -1.22927e-06 0)
(0.0257994 -1.49985e-06 0)
(0.0257993 -1.77247e-06 0)
(0.0257992 -2.04274e-06 0)
(0.0257991 -2.31572e-06 0)
(0.025799 -2.58354e-06 0)
(0.0257989 -2.85461e-06 0)
(0.0257988 -3.11564e-06 0)
(0.0257988 -3.37973e-06 0)
(0.0257987 -3.62387e-06 0)
(0.0257987 -3.86946e-06 0)
(0.0257988 -4.07663e-06 0)
(0.0257996 -1.81228e-07 0)
(0.025799 -4.25164e-07 0)
(0.025799 -6.92508e-07 0)
(0.0257989 -9.63076e-07 0)
(0.0257989 -1.23569e-06 0)
(0.0257988 -1.5077e-06 0)
(0.0257987 -1.78176e-06 0)
(0.0257987 -2.05351e-06 0)
(0.0257986 -2.32793e-06 0)
(0.0257985 -2.59729e-06 0)
(0.0257984 -2.86976e-06 0)
(0.0257983 -3.13229e-06 0)
(0.0257982 -3.39783e-06 0)
(0.0257981 -3.64346e-06 0)
(0.0257982 -3.8904e-06 0)
(0.0257982 -4.09901e-06 0)
(0.025799 -1.82169e-07 0)
(0.0257984 -4.27344e-07 0)
(0.0257984 -6.96064e-07 0)
(0.0257984 -9.6803e-07 0)
(0.0257983 -1.24206e-06 0)
(0.0257983 -1.5155e-06 0)
(0.0257982 -1.791e-06 0)
(0.0257981 -2.06422e-06 0)
(0.025798 -2.34011e-06 0)
(0.0257979 -2.61097e-06 0)
(0.0257978 -2.88491e-06 0)
(0.0257977 -3.14898e-06 0)
(0.0257976 -3.41595e-06 0)
(0.0257976 -3.66312e-06 0)
(0.0257976 -3.91142e-06 0)
(0.0257977 -4.12146e-06 0)
(0.0257985 -1.83103e-07 0)
(0.0257979 -4.29511e-07 0)
(0.0257978 -6.99598e-07 0)
(0.0257978 -9.72957e-07 0)
(0.0257978 -1.24839e-06 0)
(0.0257977 -1.52327e-06 0)
(0.0257976 -1.80021e-06 0)
(0.0257975 -2.0749e-06 0)
(0.0257974 -2.35227e-06 0)
(0.0257973 -2.62463e-06 0)
(0.0257972 -2.90004e-06 0)
(0.0257971 -3.16567e-06 0)
(0.025797 -3.43407e-06 0)
(0.025797 -3.68279e-06 0)
(0.025797 -3.93245e-06 0)
(0.0257971 -4.14391e-06 0)
(0.0257979 -1.84031e-07 0)
(0.0257973 -4.31666e-07 0)
(0.0257973 -7.03115e-07 0)
(0.0257972 -9.77864e-07 0)
(0.0257972 -1.25471e-06 0)
(0.0257971 -1.531e-06 0)
(0.025797 -1.80939e-06 0)
(0.0257969 -2.08555e-06 0)
(0.0257968 -2.36441e-06 0)
(0.0257967 -2.63829e-06 0)
(0.0257966 -2.91518e-06 0)
(0.0257965 -3.18237e-06 0)
(0.0257964 -3.45223e-06 0)
(0.0257964 -3.70247e-06 0)
(0.0257964 -3.95352e-06 0)
(0.0257965 -4.16635e-06 0)
(0.0257973 -1.84955e-07 0)
(0.0257967 -4.33805e-07 0)
(0.0257967 -7.06605e-07 0)
(0.0257967 -9.82735e-07 0)
(0.0257966 -1.26098e-06 0)
(0.0257965 -1.5387e-06 0)
(0.0257964 -1.81853e-06 0)
(0.0257964 -2.09616e-06 0)
(0.0257963 -2.37649e-06 0)
(0.0257961 -2.65189e-06 0)
(0.025796 -2.93028e-06 0)
(0.0257959 -3.19902e-06 0)
(0.0257959 -3.47032e-06 0)
(0.0257958 -3.72207e-06 0)
(0.0257958 -3.97448e-06 0)
(0.0257959 -4.18865e-06 0)
(0.0257967 -1.85871e-07 0)
(0.0257962 -4.3593e-07 0)
(0.0257961 -7.10074e-07 0)
(0.0257961 -9.87577e-07 0)
(0.025796 -1.26721e-06 0)
(0.025796 -1.54635e-06 0)
(0.0257959 -1.82762e-06 0)
(0.0257958 -2.10673e-06 0)
(0.0257957 -2.38854e-06 0)
(0.0257956 -2.66546e-06 0)
(0.0257954 -2.94532e-06 0)
(0.0257953 -3.2156e-06 0)
(0.0257953 -3.48835e-06 0)
(0.0257952 -3.74159e-06 0)
(0.0257952 -3.99535e-06 0)
(0.0257953 -4.21086e-06 0)
(0.0257962 -1.86782e-07 0)
(0.0257956 -4.38033e-07 0)
(0.0257955 -7.13507e-07 0)
(0.0257955 -9.92372e-07 0)
(0.0257954 -1.27339e-06 0)
(0.0257954 -1.55394e-06 0)
(0.0257953 -1.83664e-06 0)
(0.0257952 -2.11721e-06 0)
(0.0257951 -2.40049e-06 0)
(0.025795 -2.67893e-06 0)
(0.0257949 -2.96027e-06 0)
(0.0257948 -3.23208e-06 0)
(0.0257947 -3.50627e-06 0)
(0.0257946 -3.761e-06 0)
(0.0257946 -4.01611e-06 0)
(0.0257947 -4.23298e-06 0)
(0.0257956 -1.87683e-07 0)
(0.025795 -4.40122e-07 0)
(0.025795 -7.16917e-07 0)
(0.0257949 -9.97136e-07 0)
(0.0257949 -1.27953e-06 0)
(0.0257948 -1.56149e-06 0)
(0.0257947 -1.8456e-06 0)
(0.0257946 -2.12764e-06 0)
(0.0257945 -2.41239e-06 0)
(0.0257944 -2.69234e-06 0)
(0.0257943 -2.97515e-06 0)
(0.0257942 -3.24849e-06 0)
(0.0257941 -3.52413e-06 0)
(0.025794 -3.78036e-06 0)
(0.025794 -4.03684e-06 0)
(0.0257941 -4.25509e-06 0)
(0.025795 -1.88577e-07 0)
(0.0257944 -4.42184e-07 0)
(0.0257944 -7.20285e-07 0)
(0.0257943 -1.00184e-06 0)
(0.0257943 -1.2856e-06 0)
(0.0257942 -1.56894e-06 0)
(0.0257941 -1.85447e-06 0)
(0.025794 -2.13796e-06 0)
(0.0257939 -2.42415e-06 0)
(0.0257938 -2.70561e-06 0)
(0.0257937 -2.98989e-06 0)
(0.0257936 -3.26478e-06 0)
(0.0257935 -3.54187e-06 0)
(0.0257934 -3.79962e-06 0)
(0.0257934 -4.0575e-06 0)
(0.0257935 -4.27714e-06 0)
(0.0257944 -1.89461e-07 0)
(0.0257938 -4.44231e-07 0)
(0.0257938 -7.23625e-07 0)
(0.0257938 -1.00651e-06 0)
(0.0257937 -1.29162e-06 0)
(0.0257936 -1.57633e-06 0)
(0.0257935 -1.86327e-06 0)
(0.0257934 -2.1482e-06 0)
(0.0257933 -2.43585e-06 0)
(0.0257932 -2.71881e-06 0)
(0.0257931 -3.00457e-06 0)
(0.025793 -3.28102e-06 0)
(0.0257929 -3.55959e-06 0)
(0.0257928 -3.81887e-06 0)
(0.0257928 -4.07817e-06 0)
(0.0257929 -4.29921e-06 0)
(0.0257938 -1.90338e-07 0)
(0.0257932 -4.46247e-07 0)
(0.0257932 -7.26915e-07 0)
(0.0257932 -1.0111e-06 0)
(0.0257931 -1.29755e-06 0)
(0.025793 -1.5836e-06 0)
(0.0257929 -1.87194e-06 0)
(0.0257928 -2.15828e-06 0)
(0.0257927 -2.44737e-06 0)
(0.0257926 -2.73184e-06 0)
(0.0257925 -3.01907e-06 0)
(0.0257924 -3.29709e-06 0)
(0.0257923 -3.57712e-06 0)
(0.0257922 -3.83798e-06 0)
(0.0257922 -4.09868e-06 0)
(0.0257923 -4.32118e-06 0)
(0.0257933 -1.91201e-07 0)
(0.0257927 -4.48247e-07 0)
(0.0257926 -7.30176e-07 0)
(0.0257926 -1.01566e-06 0)
(0.0257925 -1.30343e-06 0)
(0.0257924 -1.59082e-06 0)
(0.0257923 -1.88056e-06 0)
(0.0257922 -2.16828e-06 0)
(0.0257921 -2.45881e-06 0)
(0.025792 -2.7448e-06 0)
(0.0257919 -3.03352e-06 0)
(0.0257918 -3.31313e-06 0)
(0.0257917 -3.59468e-06 0)
(0.0257916 -3.85714e-06 0)
(0.0257916 -4.11934e-06 0)
(0.0257917 -4.34332e-06 0)
(0.0257927 -1.92057e-07 0)
(0.0257921 -4.50222e-07 0)
(0.025792 -7.33397e-07 0)
(0.025792 -1.02017e-06 0)
(0.0257919 -1.30925e-06 0)
(0.0257918 -1.59797e-06 0)
(0.0257917 -1.8891e-06 0)
(0.0257916 -2.17818e-06 0)
(0.0257915 -2.47012e-06 0)
(0.0257914 -2.75765e-06 0)
(0.0257913 -3.04783e-06 0)
(0.0257911 -3.32905e-06 0)
(0.025791 -3.61211e-06 0)
(0.025791 -3.87618e-06 0)
(0.025791 -4.13989e-06 0)
(0.0257911 -4.36536e-06 0)
(0.0257921 -1.92903e-07 0)
(0.0257915 -4.52184e-07 0)
(0.0257914 -7.36596e-07 0)
(0.0257914 -1.02465e-06 0)
(0.0257913 -1.31502e-06 0)
(0.0257912 -1.60508e-06 0)
(0.0257911 -1.89757e-06 0)
(0.025791 -2.18802e-06 0)
(0.0257909 -2.48137e-06 0)
(0.0257908 -2.77043e-06 0)
(0.0257906 -3.06207e-06 0)
(0.0257905 -3.3449e-06 0)
(0.0257904 -3.62948e-06 0)
(0.0257904 -3.89517e-06 0)
(0.0257904 -4.16037e-06 0)
(0.0257904 -4.38737e-06 0)
(0.0257915 -1.93742e-07 0)
(0.0257909 -4.54148e-07 0)
(0.0257908 -7.39793e-07 0)
(0.0257908 -1.02913e-06 0)
(0.0257907 -1.32077e-06 0)
(0.0257906 -1.61217e-06 0)
(0.0257905 -1.90597e-06 0)
(0.0257904 -2.19783e-06 0)
(0.0257903 -2.49258e-06 0)
(0.0257902 -2.78312e-06 0)
(0.02579 -3.07624e-06 0)
(0.0257899 -3.36065e-06 0)
(0.0257898 -3.64674e-06 0)
(0.0257898 -3.91407e-06 0)
(0.0257897 -4.18079e-06 0)
(0.0257898 -4.40935e-06 0)
(0.0257909 -1.94583e-07 0)
(0.0257903 -4.56137e-07 0)
(0.0257902 -7.43026e-07 0)
(0.0257902 -1.03365e-06 0)
(0.0257901 -1.32657e-06 0)
(0.02579 -1.6193e-06 0)
(0.0257899 -1.91441e-06 0)
(0.0257898 -2.20767e-06 0)
(0.0257897 -2.50381e-06 0)
(0.0257896 -2.79581e-06 0)
(0.0257894 -3.0904e-06 0)
(0.0257893 -3.37638e-06 0)
(0.0257892 -3.66398e-06 0)
(0.0257891 -3.93295e-06 0)
(0.0257891 -4.2012e-06 0)
(0.0257892 -4.43137e-06 0)
(0.0257903 -1.95434e-07 0)
(0.0257897 -4.58181e-07 0)
(0.0257896 -7.46343e-07 0)
(0.0257896 -1.03828e-06 0)
(0.0257895 -1.3325e-06 0)
(0.0257894 -1.62657e-06 0)
(0.0257893 -1.92301e-06 0)
(0.0257892 -2.21764e-06 0)
(0.0257891 -2.51517e-06 0)
(0.0257889 -2.80863e-06 0)
(0.0257888 -3.10466e-06 0)
(0.0257887 -3.3922e-06 0)
(0.0257886 -3.68131e-06 0)
(0.0257885 -3.95193e-06 0)
(0.0257885 -4.22172e-06 0)
(0.0257886 -4.45356e-06 0)
(0.0257897 -1.96308e-07 0)
(0.0257891 -4.60323e-07 0)
(0.025789 -7.49815e-07 0)
(0.025789 -1.04312e-06 0)
(0.0257889 -1.33868e-06 0)
(0.0257888 -1.63411e-06 0)
(0.0257887 -1.9319e-06 0)
(0.0257886 -2.22791e-06 0)
(0.0257885 -2.52682e-06 0)
(0.0257883 -2.82171e-06 0)
(0.0257882 -3.11917e-06 0)
(0.0257881 -3.40825e-06 0)
(0.0257879 -3.69884e-06 0)
(0.0257879 -3.97113e-06 0)
(0.0257879 -4.24248e-06 0)
(0.0257879 -4.47605e-06 0)
(0.0257891 -1.97224e-07 0)
(0.0257885 -4.62625e-07 0)
(0.0257884 -7.53539e-07 0)
(0.0257884 -1.04829e-06 0)
(0.0257883 -1.34526e-06 0)
(0.0257882 -1.64211e-06 0)
(0.0257881 -1.94129e-06 0)
(0.025788 -2.23869e-06 0)
(0.0257878 -2.53899e-06 0)
(0.0257877 -2.8353e-06 0)
(0.0257876 -3.13419e-06 0)
(0.0257874 -3.4248e-06 0)
(0.0257873 -3.71686e-06 0)
(0.0257872 -3.99083e-06 0)
(0.0257872 -4.26375e-06 0)
(0.0257873 -4.49911e-06 0)
(0.0257885 -1.98209e-07 0)
(0.0257879 -4.65159e-07 0)
(0.0257878 -7.57632e-07 0)
(0.0257878 -1.05395e-06 0)
(0.0257877 -1.35245e-06 0)
(0.0257876 -1.65079e-06 0)
(0.0257875 -1.95143e-06 0)
(0.0257874 -2.25025e-06 0)
(0.0257872 -2.55197e-06 0)
(0.0257871 -2.84969e-06 0)
(0.0257869 -3.14999e-06 0)
(0.0257868 -3.44211e-06 0)
(0.0257867 -3.73561e-06 0)
(0.0257866 -4.0113e-06 0)
(0.0257866 -4.28579e-06 0)
(0.0257866 -4.52304e-06 0)
(0.0257879 -1.99293e-07 0)
(0.0257873 -4.6803e-07 0)
(0.0257872 -7.62263e-07 0)
(0.0257872 -1.06033e-06 0)
(0.0257871 -1.36053e-06 0)
(0.025787 -1.66049e-06 0)
(0.0257869 -1.9627e-06 0)
(0.0257868 -2.26301e-06 0)
(0.0257866 -2.56619e-06 0)
(0.0257865 -2.86534e-06 0)
(0.0257863 -3.16706e-06 0)
(0.0257862 -3.46065e-06 0)
(0.025786 -3.7556e-06 0)
(0.025786 -4.03302e-06 0)
(0.0257859 -4.30911e-06 0)
(0.025786 -4.5483e-06 0)
(0.0257873 -2.00523e-07 0)
(0.0257867 -4.71355e-07 0)
(0.0257866 -7.6762e-07 0)
(0.0257866 -1.06769e-06 0)
(0.0257865 -1.36981e-06 0)
(0.0257864 -1.67158e-06 0)
(0.0257863 -1.97551e-06 0)
(0.0257861 -2.27742e-06 0)
(0.025786 -2.58213e-06 0)
(0.0257858 -2.88273e-06 0)
(0.0257857 -3.18587e-06 0)
(0.0257855 -3.48091e-06 0)
(0.0257854 -3.77725e-06 0)
(0.0257853 -4.0564e-06 0)
(0.0257853 -4.33408e-06 0)
(0.0257854 -4.57528e-06 0)
(0.0257867 -2.01947e-07 0)
(0.0257861 -4.7529e-07 0)
(0.025786 -7.73955e-07 0)
(0.0257859 -1.07636e-06 0)
(0.0257859 -1.38073e-06 0)
(0.0257858 -1.68457e-06 0)
(0.0257856 -1.99046e-06 0)
(0.0257855 -2.29412e-06 0)
(0.0257854 -2.60047e-06 0)
(0.0257852 -2.90257e-06 0)
(0.025785 -3.20715e-06 0)
(0.0257849 -3.50361e-06 0)
(0.0257848 -3.80131e-06 0)
(0.0257847 -4.08216e-06 0)
(0.0257846 -4.36141e-06 0)
(0.0257847 -4.60464e-06 0)
(0.0257861 -2.03633e-07 0)
(0.0257854 -4.79999e-07 0)
(0.0257854 -7.81553e-07 0)
(0.0257853 -1.08675e-06 0)
(0.0257852 -1.39378e-06 0)
(0.0257851 -1.70005e-06 0)
(0.025785 -2.00819e-06 0)
(0.0257849 -2.31383e-06 0)
(0.0257847 -2.62197e-06 0)
(0.0257846 -2.92566e-06 0)
(0.0257844 -3.23165e-06 0)
(0.0257842 -3.52954e-06 0)
(0.0257841 -3.82852e-06 0)
(0.025784 -4.11095e-06 0)
(0.025784 -4.39166e-06 0)
(0.025784 -4.63693e-06 0)
(0.0257855 -2.0565e-07 0)
(0.0257848 -4.85698e-07 0)
(0.0257848 -7.90755e-07 0)
(0.0257847 -1.09934e-06 0)
(0.0257846 -1.40956e-06 0)
(0.0257845 -1.71874e-06 0)
(0.0257844 -2.02954e-06 0)
(0.0257843 -2.33746e-06 0)
(0.0257841 -2.64764e-06 0)
(0.0257839 -2.95304e-06 0)
(0.0257838 -3.26049e-06 0)
(0.0257836 -3.55974e-06 0)
(0.0257835 -3.85988e-06 0)
(0.0257834 -4.14377e-06 0)
(0.0257833 -4.4258e-06 0)
(0.0257834 -4.67309e-06 0)
(0.0257848 -2.08091e-07 0)
(0.0257842 -4.92639e-07 0)
(0.0257842 -8.01944e-07 0)
(0.0257841 -1.11466e-06 0)
(0.025784 -1.42877e-06 0)
(0.0257839 -1.74148e-06 0)
(0.0257838 -2.05547e-06 0)
(0.0257836 -2.36611e-06 0)
(0.0257835 -2.67865e-06 0)
(0.0257833 -2.98594e-06 0)
(0.0257831 -3.29496e-06 0)
(0.025783 -3.59551e-06 0)
(0.0257828 -3.89671e-06 0)
(0.0257827 -4.18189e-06 0)
(0.0257827 -4.46504e-06 0)
(0.0257827 -4.7143e-06 0)
(0.0257842 -2.1107e-07 0)
(0.0257836 -5.01108e-07 0)
(0.0257835 -8.15587e-07 0)
(0.0257835 -1.13334e-06 0)
(0.0257834 -1.45219e-06 0)
(0.0257833 -1.7692e-06 0)
(0.0257831 -2.0871e-06 0)
(0.025783 -2.40105e-06 0)
(0.0257828 -2.71643e-06 0)
(0.0257827 -3.0259e-06 0)
(0.0257825 -3.33666e-06 0)
(0.0257823 -3.63849e-06 0)
(0.0257822 -3.94065e-06 0)
(0.025782 -4.22689e-06 0)
(0.025782 -4.51093e-06 0)
(0.025782 -4.76203e-06 0)
(0.0257836 -2.14704e-07 0)
(0.0257829 -5.11399e-07 0)
(0.0257829 -8.32168e-07 0)
(0.0257828 -1.15602e-06 0)
(0.0257827 -1.48067e-06 0)
(0.0257826 -1.80298e-06 0)
(0.0257825 -2.12569e-06 0)
(0.0257824 -2.44371e-06 0)
(0.0257822 -2.76261e-06 0)
(0.025782 -3.07472e-06 0)
(0.0257818 -3.38757e-06 0)
(0.0257817 -3.69074e-06 0)
(0.0257815 -3.99379e-06 0)
(0.0257814 -4.28086e-06 0)
(0.0257813 -4.56546e-06 0)
(0.0257813 -4.81817e-06 0)
(0.025783 -2.19116e-07 0)
(0.0257823 -5.23755e-07 0)
(0.0257823 -8.52106e-07 0)
(0.0257822 -1.18335e-06 0)
(0.0257821 -1.51507e-06 0)
(0.025782 -1.84387e-06 0)
(0.0257819 -2.17256e-06 0)
(0.0257817 -2.49569e-06 0)
(0.0257816 -2.81902e-06 0)
(0.0257814 -3.13447e-06 0)
(0.0257812 -3.44995e-06 0)
(0.025781 -3.75468e-06 0)
(0.0257808 -4.05868e-06 0)
(0.0257807 -4.34633e-06 0)
(0.0257806 -4.63109e-06 0)
(0.0257806 -4.88515e-06 0)
(0.0257823 -2.24413e-07 0)
(0.0257816 -5.38431e-07 0)
(0.0257816 -8.75823e-07 0)
(0.0257815 -1.21594e-06 0)
(0.0257815 -1.55621e-06 0)
(0.0257813 -1.89296e-06 0)
(0.0257812 -2.22903e-06 0)
(0.0257811 -2.55861e-06 0)
(0.0257809 -2.88761e-06 0)
(0.0257807 -3.20745e-06 0)
(0.0257805 -3.52646e-06 0)
(0.0257803 -3.83324e-06 0)
(0.0257802 -4.13852e-06 0)
(0.02578 -4.42646e-06 0)
(0.0257799 -4.71107e-06 0)
(0.0257799 -4.96597e-06 0)
(0.0257817 -2.30705e-07 0)
(0.025781 -5.55632e-07 0)
(0.0257809 -9.03638e-07 0)
(0.0257809 -1.25425e-06 0)
(0.0257808 -1.60475e-06 0)
(0.0257807 -1.95115e-06 0)
(0.0257806 -2.29629e-06 0)
(0.0257804 -2.63401e-06 0)
(0.0257802 -2.97034e-06 0)
(0.0257801 -3.29607e-06 0)
(0.0257799 -3.61999e-06 0)
(0.0257797 -3.9298e-06 0)
(0.0257795 -4.23708e-06 0)
(0.0257794 -4.52526e-06 0)
(0.0257793 -4.80933e-06 0)
(0.0257792 -5.06405e-06 0)
(0.025781 -2.38077e-07 0)
(0.0257803 -5.75431e-07 0)
(0.0257802 -9.35708e-07 0)
(0.0257802 -1.29855e-06 0)
(0.0257801 -1.66109e-06 0)
(0.02578 -2.01903e-06 0)
(0.0257799 -2.3752e-06 0)
(0.0257797 -2.72313e-06 0)
(0.0257796 -3.06887e-06 0)
(0.0257794 -3.40261e-06 0)
(0.0257792 -3.73356e-06 0)
(0.025779 -4.04821e-06 0)
(0.0257788 -4.35915e-06 0)
(0.0257787 -4.64837e-06 0)
(0.0257786 -4.93206e-06 0)
(0.0257785 -5.18544e-06 0)
(0.0257803 -2.46563e-07 0)
(0.0257796 -5.97743e-07 0)
(0.0257795 -9.71971e-07 0)
(0.0257795 -1.34879e-06 0)
(0.0257794 -1.72519e-06 0)
(0.0257793 -2.09668e-06 0)
(0.0257792 -2.46604e-06 0)
(0.0257791 -2.82654e-06 0)
(0.0257789 -3.18422e-06 0)
(0.0257787 -3.52873e-06 0)
(0.0257785 -3.86972e-06 0)
(0.0257784 -4.19229e-06 0)
(0.0257782 -4.51029e-06 0)
(0.025778 -4.80359e-06 0)
(0.0257779 -5.09004e-06 0)
(0.0257778 -5.34377e-06 0)
(0.0257796 -2.56128e-07 0)
(0.0257788 -6.22303e-07 0)
(0.0257788 -1.01198e-06 0)
(0.0257787 -1.4044e-06 0)
(0.0257787 -1.7964e-06 0)
(0.0257786 -2.18344e-06 0)
(0.0257785 -2.56815e-06 0)
(0.0257783 -2.94375e-06 0)
(0.0257782 -3.31614e-06 0)
(0.025778 -3.67457e-06 0)
(0.0257778 -4.02925e-06 0)
(0.0257777 -4.36385e-06 0)
(0.0257775 -4.69387e-06 0)
(0.0257773 -4.99678e-06 0)
(0.0257772 -5.29328e-06 0)
(0.0257771 -5.55493e-06 0)
(0.0257788 -2.66657e-07 0)
(0.0257781 -6.48623e-07 0)
(0.025778 -1.05493e-06 0)
(0.025778 -1.46428e-06 0)
(0.0257779 -1.87338e-06 0)
(0.0257778 -2.27772e-06 0)
(0.0257777 -2.67978e-06 0)
(0.0257776 -3.07281e-06 0)
(0.0257775 -3.4626e-06 0)
(0.0257773 -3.8381e-06 0)
(0.0257771 -4.21001e-06 0)
(0.025777 -4.56059e-06 0)
(0.0257768 -4.90723e-06 0)
(0.0257766 -5.22449e-06 0)
(0.0257765 -5.53674e-06 0)
(0.0257764 -5.81118e-06 0)
(0.0257781 -2.77937e-07 0)
(0.0257773 -6.7596e-07 0)
(0.0257772 -1.09963e-06 0)
(0.0257772 -1.52677e-06 0)
(0.0257771 -1.95402e-06 0)
(0.0257771 -2.37695e-06 0)
(0.025777 -2.79795e-06 0)
(0.0257769 -3.21033e-06 0)
(0.0257767 -3.61983e-06 0)
(0.0257766 -4.01515e-06 0)
(0.0257764 -4.40727e-06 0)
(0.0257763 -4.77725e-06 0)
(0.0257761 -5.14404e-06 0)
(0.0257759 -5.47892e-06 0)
(0.0257758 -5.81001e-06 0)
(0.0257757 -6.09856e-06 0)
(0.0257773 -2.8965e-07 0)
(0.0257764 -7.0333e-07 0)
(0.0257764 -1.14445e-06 0)
(0.0257764 -1.58963e-06 0)
(0.0257763 -2.03544e-06 0)
(0.0257762 -2.47762e-06 0)
(0.0257762 -2.91847e-06 0)
(0.0257761 -3.35153e-06 0)
(0.0257759 -3.78232e-06 0)
(0.0257758 -4.19954e-06 0)
(0.0257757 -4.61416e-06 0)
(0.0257755 -5.00623e-06 0)
(0.0257753 -5.39584e-06 0)
(0.0257752 -5.75082e-06 0)
(0.0257751 -6.10285e-06 0)
(0.0257749 -6.40634e-06 0)
(0.0257765 -3.01375e-07 0)
(0.0257756 -7.29527e-07 0)
(0.0257756 -1.18744e-06 0)
(0.0257755 -1.65008e-06 0)
(0.0257755 -2.11405e-06 0)
(0.0257754 -2.57533e-06 0)
(0.0257753 -3.03607e-06 0)
(0.0257752 -3.49027e-06 0)
(0.0257751 -3.94303e-06 0)
(0.025775 -4.38339e-06 0)
(0.0257749 -4.8219e-06 0)
(0.0257747 -5.23799e-06 0)
(0.0257746 -5.65229e-06 0)
(0.0257745 -6.02929e-06 0)
(0.0257743 -6.40384e-06 0)
(0.0257742 -6.72284e-06 0)
(0.0257756 -3.12594e-07 0)
(0.0257747 -7.53188e-07 0)
(0.0257747 -1.22635e-06 0)
(0.0257746 -1.70497e-06 0)
(0.0257746 -2.18571e-06 0)
(0.0257745 -2.66493e-06 0)
(0.0257745 -3.14456e-06 0)
(0.0257744 -3.61925e-06 0)
(0.0257743 -4.09356e-06 0)
(0.0257742 -4.55719e-06 0)
(0.0257741 -5.01993e-06 0)
(0.025774 -5.4611e-06 0)
(0.0257738 -5.90121e-06 0)
(0.0257737 -6.30181e-06 0)
(0.0257736 -6.7003e-06 0)
(0.0257735 -7.03544e-06 0)
(0.0257747 -3.22724e-07 0)
(0.0257738 -7.72835e-07 0)
(0.0257738 -1.25875e-06 0)
(0.0257737 -1.75083e-06 0)
(0.0257737 -2.24589e-06 0)
(0.0257736 -2.74075e-06 0)
(0.0257736 -3.23704e-06 0)
(0.0257735 -3.73028e-06 0)
(0.0257734 -4.22434e-06 0)
(0.0257733 -4.70999e-06 0)
(0.0257732 -5.19593e-06 0)
(0.0257731 -5.66208e-06 0)
(0.025773 -6.12813e-06 0)
(0.025773 -6.55346e-06 0)
(0.0257729 -6.97726e-06 0)
(0.0257728 -7.32992e-06 0)
(0.0257738 -3.31131e-07 0)
(0.0257728 -7.86974e-07 0)
(0.0257728 -1.28213e-06 0)
(0.0257728 -1.78419e-06 0)
(0.0257727 -2.29e-06 0)
(0.0257727 -2.7969e-06 0)
(0.0257726 -3.30629e-06 0)
(0.0257726 -3.81459e-06 0)
(0.0257725 -4.32498e-06 0)
(0.0257724 -4.82963e-06 0)
(0.0257724 -5.33588e-06 0)
(0.0257723 -5.82519e-06 0)
(0.0257722 -6.31569e-06 0)
(0.0257722 -6.76585e-06 0)
(0.0257722 -7.21576e-06 0)
(0.0257722 -7.58733e-06 0)
(0.0257728 -3.37174e-07 0)
(0.0257719 -7.94285e-07 0)
(0.0257718 -1.29433e-06 0)
(0.0257718 -1.80191e-06 0)
(0.0257718 -2.31385e-06 0)
(0.0257717 -2.828e-06 0)
(0.0257717 -3.34553e-06 0)
(0.0257716 -3.86381e-06 0)
(0.0257716 -4.38527e-06 0)
(0.0257715 -4.90376e-06 0)
(0.0257715 -5.42507e-06 0)
(0.0257714 -5.93316e-06 0)
(0.0257714 -6.44399e-06 0)
(0.0257714 -6.91718e-06 0)
(0.0257714 -7.39299e-06 0)
(0.0257715 -7.78373e-06 0)
(0.0257719 -3.40291e-07 0)
(0.0257709 -7.9373e-07 0)
(0.0257709 -1.2936e-06 0)
(0.0257708 -1.80143e-06 0)
(0.0257708 -2.31401e-06 0)
(0.0257708 -2.82963e-06 0)
(0.0257707 -3.3492e-06 0)
(0.0257707 -3.87096e-06 0)
(0.0257706 -4.3965e-06 0)
(0.0257706 -4.92142e-06 0)
(0.0257706 -5.44966e-06 0)
(0.0257705 -5.96841e-06 0)
(0.0257705 -6.49034e-06 0)
(0.0257706 -6.97951e-06 0)
(0.0257707 -7.47369e-06 0)
(0.0257708 -7.87929e-06 0)
(0.0257709 -3.40038e-07 0)
(0.0257699 -7.84281e-07 0)
(0.0257699 -1.27822e-06 0)
(0.0257699 -1.78018e-06 0)
(0.0257698 -2.28697e-06 0)
(0.0257698 -2.79715e-06 0)
(0.0257698 -3.31135e-06 0)
(0.0257697 -3.82844e-06 0)
(0.0257697 -4.3491e-06 0)
(0.0257696 -4.87031e-06 0)
(0.0257696 -5.39381e-06 0)
(0.0257696 -5.90973e-06 0)
(0.0257697 -6.4257e-06 0)
(0.0257698 -6.91261e-06 0)
(0.02577 -7.39831e-06 0)
(0.0257702 -7.79746e-06 0)
(0.0257699 -3.35978e-07 0)
(0.0257689 -7.65247e-07 0)
(0.0257689 -1.24699e-06 0)
(0.0257689 -1.73634e-06 0)
(0.0257689 -2.23005e-06 0)
(0.0257688 -2.72678e-06 0)
(0.0257688 -3.22675e-06 0)
(0.0257688 -3.72929e-06 0)
(0.0257687 -4.23399e-06 0)
(0.0257687 -4.73895e-06 0)
(0.0257687 -5.24333e-06 0)
(0.0257688 -5.73986e-06 0)
(0.0257689 -6.23053e-06 0)
(0.025769 -6.69365e-06 0)
(0.0257693 -7.14479e-06 0)
(0.0257696 -7.52025e-06 0)
(0.0257689 -3.27818e-07 0)
(0.025768 -7.36796e-07 0)
(0.025768 -1.20016e-06 0)
(0.025768 -1.67018e-06 0)
(0.0257679 -2.14341e-06 0)
(0.0257679 -2.61849e-06 0)
(0.0257679 -3.095e-06 0)
(0.0257679 -3.57259e-06 0)
(0.0257679 -4.04961e-06 0)
(0.0257679 -4.5253e-06 0)
(0.0257679 -4.99622e-06 0)
(0.025768 -5.45807e-06 0)
(0.0257681 -5.90772e-06 0)
(0.0257683 -6.33247e-06 0)
(0.0257686 -6.73755e-06 0)
(0.0257691 -7.08659e-06 0)
(0.025768 -3.15633e-07 0)
(0.0257671 -6.99868e-07 0)
(0.0257671 -1.13931e-06 0)
(0.0257671 -1.584e-06 0)
(0.0257671 -2.03024e-06 0)
(0.025767 -2.47641e-06 0)
(0.025767 -2.92137e-06 0)
(0.025767 -3.36485e-06 0)
(0.025767 -3.80408e-06 0)
(0.0257671 -4.23942e-06 0)
(0.0257671 -4.66531e-06 0)
(0.0257672 -5.08117e-06 0)
(0.0257674 -5.48002e-06 0)
(0.0257677 -5.85947e-06 0)
(0.0257681 -6.21634e-06 0)
(0.0257686 -6.54118e-06 0)
(0.0257671 -2.99829e-07 0)
(0.0257663 -6.55933e-07 0)
(0.0257663 -1.06699e-06 0)
(0.0257663 -1.48169e-06 0)
(0.0257663 -1.89602e-06 0)
(0.0257663 -2.30798e-06 0)
(0.0257663 -2.71563e-06 0)
(0.0257663 -3.11873e-06 0)
(0.0257663 -3.5135e-06 0)
(0.0257664 -3.90129e-06 0)
(0.0257664 -4.27511e-06 0)
(0.0257666 -4.63854e-06 0)
(0.0257668 -4.98232e-06 0)
(0.0257672 -5.31422e-06 0)
(0.0257676 -5.62444e-06 0)
(0.0257682 -5.92705e-06 0)
(0.0257663 -2.81032e-07 0)
(0.0257655 -6.06695e-07 0)
(0.0257656 -9.8617e-07 0)
(0.0257655 -1.36783e-06 0)
(0.0257656 -1.7473e-06 0)
(0.0257656 -2.12215e-06 0)
(0.0257656 -2.48969e-06 0)
(0.0257656 -2.84979e-06 0)
(0.0257657 -3.19793e-06 0)
(0.0257658 -3.53603e-06 0)
(0.0257659 -3.85623e-06 0)
(0.0257661 -4.16574e-06 0)
(0.0257663 -4.45454e-06 0)
(0.0257667 -4.73906e-06 0)
(0.0257672 -5.00522e-06 0)
(0.0257678 -5.28622e-06 0)
(0.0257656 -2.59963e-07 0)
(0.0257649 -5.53957e-07 0)
(0.0257649 -8.99911e-07 0)
(0.0257649 -1.24701e-06 0)
(0.0257649 -1.59059e-06 0)
(0.025765 -1.92775e-06 0)
(0.025765 -2.25519e-06 0)
(0.0257651 -2.57304e-06 0)
(0.0257651 -2.87655e-06 0)
(0.0257653 -3.16785e-06 0)
(0.0257654 -3.43858e-06 0)
(0.0257657 -3.69805e-06 0)
(0.025766 -3.93618e-06 0)
(0.0257664 -4.1756e-06 0)
(0.0257668 -4.40057e-06 0)
(0.0257674 -4.65841e-06 0)
(0.0257649 -2.37385e-07 0)
(0.0257643 -4.99821e-07 0)
(0.0257644 -8.11566e-07 0)
(0.0257644 -1.12382e-06 0)
(0.0257644 -1.43182e-06 0)
(0.0257645 -1.73249e-06 0)
(0.0257645 -2.02203e-06 0)
(0.0257646 -2.30067e-06 0)
(0.0257647 -2.56394e-06 0)
(0.0257649 -2.81421e-06 0)
(0.0257651 -3.044e-06 0)
(0.0257653 -3.2629e-06 0)
(0.0257657 -3.46056e-06 0)
(0.0257661 -3.66189e-06 0)
(0.0257665 -3.85131e-06 0)
(0.0257671 -4.08254e-06 0)
(0.0257643 -2.14195e-07 0)
(0.0257639 -4.468e-07 0)
(0.0257639 -7.24918e-07 0)
(0.0257639 -1.00284e-06 0)
(0.025764 -1.27577e-06 0)
(0.0257641 -1.54165e-06 0)
(0.0257641 -1.79664e-06 0)
(0.0257643 -2.04034e-06 0)
(0.0257644 -2.26827e-06 0)
(0.0257646 -2.48342e-06 0)
(0.0257648 -2.68202e-06 0)
(0.0257651 -2.87373e-06 0)
(0.0257655 -3.04704e-06 0)
(0.0257659 -3.2246e-06 0)
(0.0257663 -3.39039e-06 0)
(0.0257668 -3.59282e-06 0)
(0.0257639 -1.91491e-07 0)
(0.0257635 -3.96711e-07 0)
(0.0257636 -6.42833e-07 0)
(0.0257636 -8.87542e-07 0)
(0.0257637 -1.12574e-06 0)
(0.0257637 -1.35784e-06 0)
(0.0257639 -1.58152e-06 0)
(0.025764 -1.79554e-06 0)
(0.0257642 -1.9951e-06 0)
(0.0257644 -2.18373e-06 0)
(0.0257646 -2.35968e-06 0)
(0.0257649 -2.53381e-06 0)
(0.0257653 -2.69476e-06 0)
(0.0257657 -2.86111e-06 0)
(0.0257661 -3.01699e-06 0)
(0.0257666 -3.19588e-06 0)