/*--------------------------------*- C++ -*----------------------------------*\
| =========                 |                                                 |
| \\      /  F ield         | foam-extend: Open Source CFD                    |
|  \\    /   O peration     | Version:     4.1-20200408                       |
|   \\  /    A nd           | Web:         http://www.foam-extend.org         |
|    \\/     M anipulation  |                                                 |
\*---------------------------------------------------------------------------*/
FoamFile
{
    version     2.0;
    format      ascii;
    class       volScalarField;
    location    "0.0580000";
    object      ccz;
}
// * * * * * * * * * * * * * * * * * * * * * * * * * * * * * * * * * * * * * //

dimensions      [0 1 0 0 0 0 0];

internalField   nonuniform List<scalar> 
1952
(
-1.66726e-12
3.00228e-12
-4.80217e-13
-1e-11
8.04077e-12
1.21713e-11
1.83275e-22
2.57539e-22
1.27286e-11
2.5e-11
-3.78899e-13
-3.76739e-11
-1.202e-11
2.50003e-11
1.23635e-11
1.5388e-12
-1.38895e-12
4.16669e-12
-4.76277e-13
-1e-11
8.03042e-12
1.21792e-11
1.12663e-21
-1.27452e-11
4.40259e-13
1.23014e-11
-1.26816e-11
-2.50002e-11
3.09125e-13
1.23557e-11
0
-1.27967e-13
-1.38888e-12
2.83322e-12
-1.66701e-12
-1e-11
2.09095e-11
2.43586e-11
-1.35206e-22
-1.27455e-11
-1.22806e-11
-3.21473e-22
-2.34665e-22
-1.26668e-11
3.10614e-13
1.2356e-11
-8.6732e-22
-1.2796e-13
-1.38891e-12
1.50013e-12
-2.85721e-12
-1.12963e-11
6.81862e-12
1.21795e-11
1.80287e-22
-1.27451e-11
4.39102e-13
1.23007e-11
3.51951e-22
-2.53341e-11
-1.20359e-11
2.49997e-11
1.23649e-11
-1.27957e-13
-2.7778e-13
1.50004e-12
-2.85721e-12
-1.12963e-11
6.81828e-12
2.49997e-11
1.22214e-11
-2.54906e-11
8.78208e-13
2.46034e-11
-1.26817e-11
-2.5e-11
1.29641e-11
5e-11
2.47302e-11
1.53873e-12
-5.55568e-13
3.33365e-13
-2.85696e-12
-1e-11
2.09095e-11
3.71795e-11
1.22222e-11
-1.27455e-11
1.31585e-11
2.46018e-11
-1.26812e-11
-1.23331e-11
1.26549e-11
3.76448e-11
2.47302e-11
3.20539e-12
-2.77788e-13
2.83316e-12
-1.66705e-12
-1.12963e-11
1.96974e-11
2.43586e-11
-4.9591e-22
-1.27451e-11
1.31601e-11
2.46035e-11
-5.86792e-22
2.15726e-22
-9.97772e-23
2.52884e-11
2.47302e-11
1.53876e-12
1.11109e-12
4.00004e-12
-2.97625e-12
-1.25e-11
1.96974e-11
2.43586e-11
0
-1.27459e-11
4.38292e-13
1.23011e-11
-1.17356e-22
-1.26668e-11
3.09539e-13
2.5e-11
1.23652e-11
1.53872e-12
1.11112e-12
4.00001e-12
-4.28583e-12
-1.24074e-11
2.09095e-11
2.43578e-11
-1.35245e-22
-1.27447e-11
4.39103e-13
1.23011e-11
-8.80409e-22
-2.53349e-11
-1.20355e-11
1.2356e-11
-2.60316e-22
1.53877e-12
1.11109e-12
4.00004e-12
-4.28579e-12
-1.37037e-11
1.96984e-11
2.43595e-11
-3.15662e-22
-1.27455e-11
4.3994e-13
2.5e-11
1.23183e-11
-1.26672e-11
-1.23454e-11
1.2644e-11
1.23649e-11
1.53873e-12
1.11112e-12
4.00013e-12
-2.97631e-12
-1.25e-11
6.81856e-12
2.5e-11
1.22215e-11
-1.27451e-11
4.39098e-13
2.5e-11
1.23187e-11
-6.4741e-22
1.26546e-11
2.5e-11
1.23652e-11
1.53879e-12
-2.7778e-13
4.16672e-12
-1.78579e-12
-1.12036e-11
-4.84859e-12
2.56422e-11
2.44449e-11
-2.54915e-11
-1.18424e-11
1.23011e-11
7.63052e-22
1.29505e-21
1.26554e-11
2.5e-11
1.23649e-11
1.53874e-12
-1.66666e-12
3.00005e-12
-3.09535e-12
-1.24074e-11
-4.84825e-12
2.56405e-11
2.44432e-11
-1.27451e-11
-1.22802e-11
-3.21677e-22
-5.87014e-23
7.55426e-22
-4.99123e-22
1.26443e-11
1.23653e-11
1.5388e-12
-2.77778e-12
3.00005e-12
-3.09576e-12
-1.24075e-11
-4.84842e-12
2.56422e-11
2.44449e-11
-1.27456e-11
4.39109e-13
1.23016e-11
-5.87122e-23
-1.26669e-11
-1.23451e-11
-9.2852e-22
-1.38894e-21
-1.27885e-13
-2.77778e-12
1.66673e-12
-2.97595e-12
-1.12037e-11
-4.84842e-12
2.56414e-11
2.4444e-11
-1.27455e-11
4.39119e-13
2.5e-11
1.23183e-11
-1.26672e-11
-1.23454e-11
1.2644e-11
1.23649e-11
-1.27878e-13
-2.7782e-13
1.50001e-12
-4.16672e-12
-1.12037e-11
-4.84842e-12
1.28209e-11
1.22222e-11
-1.27451e-11
-1.22799e-11
1.26989e-11
1.23191e-11
2.15908e-22
-1.99698e-21
1.26444e-11
1.23653e-11
1.53877e-12
-2.7783e-13
2.83336e-12
-4.28582e-12
-1.24074e-11
-4.84842e-12
1.04144e-22
-2.25558e-22
-1.27455e-11
4.38752e-13
1.23011e-11
2.34863e-22
-1.26665e-11
-1.2345e-11
0
-1.2155e-21
1.53883e-12
-1.38887e-12
4.16669e-12
-3.09535e-12
-1.24074e-11
-4.84825e-12
1.28201e-11
1.22214e-11
-3.18342e-22
2.54383e-11
2.46018e-11
-1.26814e-11
-2.5e-11
-1.23458e-11
3.71531e-22
1.73675e-22
-1.27858e-13
-1.5568e-23
5.33337e-12
-3.09535e-12
-1.24074e-11
-4.84859e-12
1.28213e-11
1.22222e-11
-1.27451e-11
1.31588e-11
3.73012e-11
-3.63418e-13
-2.5e-11
3.1037e-13
1.23556e-11
-5.21017e-22
-1.27851e-13
1.49945e-23
5.33337e-12
-3.09535e-12
-1.24073e-11
8.03035e-12
1.21792e-11
-2.25616e-22
-2.54906e-11
8.78228e-13
3.73015e-11
1.23187e-11
-1.26672e-11
1.29641e-11
3.73557e-11
1.23649e-11
-1.27844e-13
-9.65278e-23
4.00004e-12
-2.97628e-12
-1.25e-11
6.81925e-12
2.5e-11
1.22219e-11
-2.54906e-11
8.78214e-13
2.46026e-11
-1.26813e-11
-2.49996e-11
3.09905e-13
3.76444e-11
2.47294e-11
-1.27837e-13
-2.77701e-13
2.83336e-12
-1.66705e-12
-1.25926e-11
-7.27288e-12
1.28213e-11
1.22222e-11
-1.27455e-11
1.31585e-11
2.46026e-11
-1.26816e-11
-2.50004e-11
-1.23458e-11
2.52884e-11
2.47302e-11
1.53881e-12
8.33306e-13
4.16689e-12
-4.75947e-13
-1.12964e-11
6.81828e-12
1.21796e-11
4.06288e-22
-2.38876e-22
2.54399e-11
2.46026e-11
1.17489e-21
-4.32028e-22
6.99276e-22
1.26444e-11
1.23656e-11
3.20551e-12
1.11112e-12
5.3332e-12
-1.78616e-12
-1.12037e-11
8.03129e-12
2.5e-11
1.22219e-11
0
1.27197e-11
1.23015e-11
-7.04985e-22
1.18806e-21
1.09907e-21
-4.64641e-22
-1.26351e-11
1.5389e-12
-2.77781e-13
2.83356e-12
-2.97595e-12
-1.25e-11
-6.06051e-12
1.28209e-11
1.22222e-11
-1.27451e-11
4.39104e-13
1.23011e-11
-2.35039e-22
-1.26673e-11
-1.23451e-11
0
-1.26351e-11
1.5388e-12
-5.55729e-13
3.33202e-13
-4.16701e-12
-1.37963e-11
5.60614e-12
2.49997e-11
1.22218e-11
-2.54906e-11
8.78214e-13
2.46026e-11
-1.26813e-11
-3.76669e-11
-2.46905e-11
-1.30121e-21
2.69376e-21
3.20553e-12
-2.77709e-13
1.50013e-12
-5.47595e-12
-1.37037e-11
6.81854e-12
2.50003e-11
1.22222e-11
-2.54906e-11
-1.18411e-11
2.5e-11
-3.63406e-13
-2.50004e-11
-1.23454e-11
-1.20813e-21
-1.47705e-21
1.53889e-12
-1.38887e-12
2.83336e-12
-2.97664e-12
-1.12037e-11
-4.84842e-12
3.649e-22
2.70935e-22
-2.54906e-11
-2.45609e-11
1.26989e-11
1.23186e-11
-3.24154e-22
1.2655e-11
1.23556e-11
-1.21651e-21
-1.27789e-13
-1.38895e-12
4.16649e-12
-4.76275e-13
-1e-11
8.03035e-12
1.21792e-11
-9.03106e-23
-2.54906e-11
-2.45609e-11
-5.7977e-22
-5.87728e-23
-1.26669e-11
3.08973e-13
2.5e-11
1.23649e-11
-1.27782e-13
1.11109e-12
4.00004e-12
-1.66672e-12
-1e-11
2.09105e-11
3.71791e-11
1.22223e-11
-1.27459e-11
-1.22806e-11
0
-1.26813e-11
-2.5e-11
-1.2345e-11
1.26443e-11
1.23653e-11
1.53887e-12
2.2223e-12
4.00012e-12
-1.66675e-12
-1e-11
8.03015e-12
2.50004e-11
1.22218e-11
-3.98347e-23
1.27198e-11
1.23011e-11
-1.26817e-11
-1.23331e-11
8.9958e-22
1.26439e-11
1.23649e-11
3.20556e-12
2.22222e-12
5.33337e-12
-4.76277e-13
-1e-11
8.03091e-12
2.49996e-11
1.22218e-11
5.5773e-22
2.54391e-11
2.46026e-11
-1.26818e-11
-1.23328e-11
1.26546e-11
2.5e-11
1.23653e-11
3.20557e-12
2.22214e-12
5.33337e-12
-1.78579e-12
-1.12037e-11
8.03017e-12
3.78213e-11
2.4444e-11
1.19524e-22
2.54391e-11
2.46018e-11
-1.26813e-11
-1.23327e-11
2.53104e-11
2.47117e-11
0
3.20558e-12
2.22229e-12
5.33337e-12
-3.09535e-12
-1.24074e-11
-4.84825e-12
2.56406e-11
2.44432e-11
1.79304e-21
1.27198e-11
1.23015e-11
6.46774e-22
2.54004e-21
2.53095e-11
2.47117e-11
0
3.20565e-12
1.11109e-12
5.33321e-12
-3.09576e-12
-1.24074e-11
-4.84842e-12
1.2821e-11
1.22222e-11
3.18796e-22
2.8508e-22
-3.86638e-22
-1.26813e-11
-1.23327e-11
2.53095e-11
2.47108e-11
7.82407e-22
1.53893e-12
4.3306e-23
5.3335e-12
-3.09502e-12
-1.37036e-11
6.81799e-12
2.49995e-11
1.22218e-11
-1.27453e-11
4.38963e-13
1.23009e-11
-2.53633e-11
-2.46652e-11
1.26551e-11
2.5e-11
1.23647e-11
-1.27733e-13
-4.15653e-23
5.33339e-12
-1.78586e-12
-1.25001e-11
1.96975e-11
3.71796e-11
1.22223e-11
-2.54908e-11
8.78626e-13
2.46024e-11
-1.26818e-11
-1.2333e-11
2e-22
1.26446e-11
1.23651e-11
-1.27727e-13
-1.38883e-12
4.16674e-12
-4.76287e-13
-1e-11
2.09094e-11
3.71789e-11
1.22217e-11
-2.54908e-11
8.78497e-13
2.46024e-11
-1.26814e-11
-2.49996e-11
-1.23448e-11
1.26441e-11
1.23646e-11
-1.27719e-13
-2.77906e-13
4.16666e-12
-1.78569e-12
-1.12036e-11
8.03099e-12
2.5001e-11
1.22224e-11
-1.27458e-11
1.31584e-11
2.46023e-11
-2.53633e-11
-3.7333e-11
-1.23452e-11
1.26448e-11
-2.6985e-13
1.53887e-12
-2.77644e-13
4.16675e-12
-3.09533e-12
-1.24074e-11
8.02986e-12
1.21788e-11
6.78193e-22
-1.27449e-11
4.40129e-13
1.23016e-11
-1.2682e-11
-1.2333e-11
2.00059e-22
1.86058e-22
-1.26355e-11
1.53906e-12
-2.77777e-12
3.00002e-12
-3.09529e-12
-1.24074e-11
2.09093e-11
3.71787e-11
1.22215e-11
-1.27459e-11
4.38048e-13
1.23008e-11
-1.26812e-11
-1.23324e-11
-1.50066e-21
-1.76774e-21
1.82641e-21
-1.27699e-13
-2.77976e-13
4.16658e-12
-1.7858e-12
-1.12038e-11
2.09091e-11
3.71803e-11
1.22228e-11
-1.27445e-11
1.31591e-11
2.46026e-11
-2.53632e-11
-2.46654e-11
1.26548e-11
2.49994e-11
1.23643e-11
1.53884e-12
1.11122e-12
5.33333e-12
-4.76182e-13
-1.12962e-11
6.81929e-12
1.21804e-11
-4.52383e-23
-1.2746e-11
1.31576e-11
2.46027e-11
-2.53632e-11
-2.46656e-11
1.26555e-11
2.50007e-11
1.23646e-11
1.53913e-12
2.92199e-23
5.33332e-12
-4.76155e-13
-1.12964e-11
6.81685e-12
1.21784e-11
4.5248e-22
6.7842e-22
2.54388e-11
3.73006e-11
-3.64316e-13
-1.23335e-11
5.00494e-22
1.26445e-11
1.23638e-11
-1.27677e-13
3.05056e-22
4.00015e-12
-1.66648e-12
-1.12961e-11
6.81959e-12
1.21809e-11
9.05175e-23
-3.99161e-23
2.54385e-11
3.73026e-11
1.23197e-11
2.59848e-21
-3.00383e-22
1.26455e-11
1.23644e-11
-1.27671e-13
-1.38871e-12
1.50011e-12
-4.16642e-12
-1.25e-11
-6.06084e-12
-1.04506e-22
-9.95953e-22
-1.27435e-11
1.31588e-11
2.46033e-11
3.53532e-22
-8.12353e-22
1.26538e-11
1.23541e-11
2.61171e-22
-1.27663e-13
-2.7809e-13
2.83296e-12
-4.2857e-12
-1.24075e-11
-4.84857e-12
0
1.35837e-22
-1.27464e-11
4.38113e-13
1.23032e-11
0
0
1.26562e-11
1.23568e-11
6.09808e-22
1.53879e-12
1.11127e-12
5.33328e-12
-1.78572e-12
-1.25e-11
-6.06059e-12
1.28184e-11
-5.54708e-13
-1.22536e-11
1.27172e-11
1.23004e-11
4.71775e-22
-9.75758e-22
-7.01984e-22
1.26429e-11
-2.70501e-13
1.53924e-12
-1.38869e-12
4.16676e-12
-4.7597e-13
-1.12964e-11
-6.06097e-12
2.56402e-11
1.16664e-11
-2.49999e-11
4.41166e-13
1.23037e-11
7.07986e-22
-1.26648e-11
-1.23442e-11
1.26454e-11
-2.69751e-13
-1.27641e-13
-2.78065e-13
2.83328e-12
-2.97564e-12
-1.24997e-11
-6.06066e-12
2.564e-11
2.44456e-11
-2.54889e-11
-1.18461e-11
1.23007e-11
1.18058e-22
-1.26675e-11
3.04942e-13
1.23551e-11
3.4935e-22
1.53882e-12
-2.77473e-13
2.83322e-12
-4.28559e-12
-1.37039e-11
-6.061e-12
2.56398e-11
2.44458e-11
-2.54886e-11
-1.18431e-11
1.2304e-11
-1.65354e-21
7.60149e-22
2.53074e-11
2.47137e-11
6.99259e-22
1.53922e-12
-1.66672e-12
2.99986e-12
-1.78549e-12
-1.12039e-11
-4.84871e-12
2.56397e-11
2.4446e-11
-2.54884e-11
-2.45635e-11
6.47146e-23
1.18166e-22
-1.2664e-11
3.08538e-13
1.23581e-11
1.66233e-21
1.5389e-12
8.33316e-13
4.16647e-12
-4.75895e-13
-1e-11
8.02877e-12
2.5e-11
1.22239e-11
-2.54883e-11
-2.45637e-11
2.58894e-22
-1.18196e-22
-1.26656e-11
-1.23485e-11
-1.4046e-21
-2.62754e-22
3.20571e-12
8.33403e-13
4.16652e-12
-4.75878e-13
-1e-11
8.02965e-12
2.5e-11
1.22229e-11
-1.27442e-11
-1.22822e-11
1.26968e-11
1.23211e-11
-5.98009e-22
1.26518e-11
1.23632e-11
-6.13846e-22
3.20571e-12
-2.77728e-13
4.16654e-12
-1.78536e-12
-1.12038e-11
-4.84877e-12
1.28189e-11
-5.54797e-13
-2.5002e-11
4.3515e-13
2.49999e-11
1.23196e-11
-1.26657e-11
2.92931e-13
1.23587e-11
2.63405e-22
1.53901e-12
1.11125e-12
5.33316e-12
-1.78501e-12
-1.25e-11
-6.0613e-12
1.28215e-11
-5.47288e-13
-2.49941e-11
1.31543e-11
2.46087e-11
1.71457e-21
-1.26576e-11
3.0746e-13
1.23685e-11
2.63711e-22
1.53924e-12
2.2223e-12
5.33307e-12
-4.75456e-13
-1.12958e-11
-6.06097e-12
2.56375e-11
2.44486e-11
-1.2748e-11
4.21483e-13
1.22989e-11
5.91356e-23
-1.26687e-11
2.83046e-13
2.50002e-11
1.23811e-11
3.20572e-12
8.32926e-13
4.16571e-12
-4.75163e-13
-1.12968e-11
6.82129e-12
3.78248e-11
2.44495e-11
-1.27344e-11
4.48075e-13
1.23133e-11
1.7744e-22
-1.26532e-11
-1.23436e-11
1.26288e-11
1.23679e-11
3.20571e-12
-2.77468e-13
4.16686e-12
-1.78516e-12
-1.24999e-11
1.96921e-11
5e-11
2.44502e-11
-1.27519e-11
4.11739e-13
1.22955e-11
-1.2687e-11
-1.23478e-11
-1.00928e-22
-9.40034e-22
-1.32131e-21
1.53801e-12
1.11216e-12
3.99843e-12
-4.28526e-12
-1.24078e-11
8.0152e-12
3.78066e-11
2.44505e-11
-2.54836e-11
-1.18409e-11
1.23166e-11
-1.26656e-11
-2.50003e-11
-1.23608e-11
1.41048e-21
-8.81093e-22
1.54053e-12
-2.80347e-13
2.83299e-12
-2.97211e-12
-1.12026e-11
-4.84947e-12
2.56355e-11
2.44505e-11
-1.27287e-11
4.31379e-13
1.2293e-11
5.3258e-22
-1.26511e-11
-1.23395e-11
1.69289e-21
-8.81135e-23
1.53726e-12
-2.77764e-12
2.9993e-12
-1.78586e-12
-1.12053e-11
-4.84942e-12
2.56359e-11
2.44501e-11
-1.2756e-11
4.32658e-13
1.23177e-11
-2.36735e-22
5.44824e-22
-1.1106e-21
-5.6433e-22
-1.26389e-11
-1.2755e-13
-1.38703e-12
4.16766e-12
-1.78283e-12
-1.12024e-11
-4.84929e-12
2.56363e-11
2.44495e-11
-1.27279e-11
1.31629e-11
2.46089e-11
1.36134e-21
1.08973e-22
5.04781e-22
6.58364e-22
-1.26242e-11
-1.27544e-13
1.43118e-22
5.33301e-12
-4.75248e-13
-1.12978e-11
6.82978e-12
3.7833e-11
1.16583e-11
-2.50282e-11
4.06482e-13
1.2291e-11
-1.30231e-21
1.52576e-21
1.26642e-11
2.50194e-11
1.2374e-11
-1.27538e-13
4.15779e-23
5.33306e-12
-4.75444e-13
-8.69921e-12
2.21222e-11
5e-11
1.16865e-11
-2.49727e-11
-1.22696e-11
-4.53759e-22
2.36803e-22
1.08987e-22
1.26432e-11
3.7635e-11
2.47275e-11
-1.27534e-13
-5.57536e-23
5.3331e-12
-1.78642e-12
-1.89961e-11
1.36198e-11
3.71673e-11
1.2211e-11
-1.27565e-11
4.35974e-13
1.23149e-11
-9.47344e-22
1.08992e-22
1.26659e-11
2.49998e-11
-2.92859e-13
-1.2753e-13
-1.39016e-12
4.16531e-12
-3.09453e-12
-2.01726e-11
1.36447e-11
3.71927e-11
1.22348e-11
-2.54877e-11
-1.18571e-11
2.50003e-11
-3.62168e-13
-2.50209e-11
2.92862e-13
1.23439e-11
-2.52789e-11
-1.27527e-13
-1.66571e-12
2.99968e-12
-1.78404e-12
-6.01798e-12
2.57556e-11
3.71703e-11
1.22135e-11
-1.27338e-11
4.56969e-13
2.49997e-11
-3.6266e-13
-2.4981e-11
3.32796e-13
2.50171e-11
-2.6497e-13
1.54044e-12
8.34331e-13
4.16719e-12
-4.75657e-13
-1.77857e-11
1.36255e-11
2.4361e-11
5.44943e-22
2.4045e-22
1.27101e-11
1.22934e-11
-1.77703e-22
-1.26772e-11
2.99507e-13
2.4984e-11
1.23508e-11
3.20579e-12
1.11054e-12
5.33315e-12
-4.75686e-13
-1.77704e-11
1.36401e-11
3.71872e-11
1.22295e-11
-1.2751e-11
-1.22877e-11
-2.59654e-22
-1.26893e-11
-3.76762e-11
-2.46828e-11
7.5087e-22
1.22802e-21
1.53823e-12
1.42443e-22
3.99927e-12
-1.66679e-12
-4.81511e-12
1.28725e-11
2.49896e-11
1.22182e-11
-2.54886e-11
-1.18384e-11
1.23064e-11
-1.26771e-11
-2.49887e-11
3.29809e-13
1.2357e-11
7.89085e-22
-1.2752e-13
1.11154e-12
4.00037e-12
-2.97577e-12
-6.01925e-12
5.58297e-22
0
-1.27813e-11
-3.77484e-11
-1.18462e-11
1.22978e-11
-1.26859e-11
-2.50079e-11
3.07235e-13
1.2345e-11
-1.31484e-21
1.53975e-12
2.22225e-12
3.9995e-12
-2.97589e-12
-6.0184e-12
-5.58487e-22
4.20034e-22
-1.27744e-11
-2.49939e-11
4.44631e-13
1.23035e-11
-1.26798e-11
-2.49949e-11
-1.23399e-11
1.26526e-11
1.23649e-11
3.2058e-12
2.22224e-12
4.00031e-12
-1.66624e-12
-4.81487e-12
-1.24064e-22
-5.77278e-22
7.73011e-22
-1.27479e-11
4.34793e-13
1.22988e-11
-1.2684e-11
-1.23337e-11
0
1.26439e-11
1.23574e-11
3.20581e-12
2.22222e-12
5.3333e-12
-1.78598e-12
-6.01879e-12
1.28814e-11
1.21818e-11
4.54438e-22
-1.27433e-11
4.4343e-13
1.23026e-11
-1.26806e-11
-1.23306e-11
2.01505e-22
-2.81285e-22
-4.38309e-22
3.2058e-12
-2.7823e-13
4.16645e-12
-3.09525e-12
-7.22218e-12
2.57577e-11
3.71813e-11
1.22238e-11
5.6099e-22
1.27183e-11
1.22994e-11
4.73419e-22
0
-1.71247e-21
-4.68732e-22
-1.22718e-21
1.53884e-12
-2.77429e-13
2.83323e-12
-4.28597e-12
-7.22213e-12
1.28772e-11
2.49967e-11
1.22205e-11
-1.27469e-11
-1.2281e-11
-3.88888e-22
-1.26835e-11
-1.23334e-11
3.0214e-22
-2.24952e-21
-8.76442e-23
1.53939e-12
-2.78102e-13
2.83336e-12
-4.28559e-12
-2.01867e-11
7.5864e-13
2.50027e-11
1.22229e-11
-1.27444e-11
-1.22792e-11
5.18378e-22
-1.26806e-11
-1.23312e-11
1.26565e-11
1.23564e-11
5.25918e-22
1.53897e-12
-1.38874e-12
4.16679e-12
-3.0957e-12
-2.01839e-11
7.57564e-13
3.78199e-11
2.44435e-11
6.00428e-22
1.27206e-11
1.23016e-11
-1.26828e-11
-1.23333e-11
1.26544e-11
1.23547e-11
1.05185e-21
-1.27516e-13
-1.56024e-22
4.00002e-12
-4.28541e-12
-7.22195e-12
1.28798e-11
2.5e-11
1.22209e-11
-1.27463e-11
1.31584e-11
2.46015e-11
-1.26809e-11
-2.5e-11
3.10304e-13
2.50014e-11
1.23656e-11
-1.27516e-13
-1.13457e-22
2.66676e-12
-5.47618e-12
-7.22196e-12
1.28784e-11
2.5e-11
1.22224e-11
-2.5491e-11
8.80664e-13
2.46033e-11
-1.26831e-11
-2.5e-11
1.2966e-11
3.73548e-11
1.23641e-11
-1.27516e-13
1.50476e-23
3.99994e-12
-2.9764e-12
-1.89821e-11
-1.21214e-11
1.28203e-11
1.22217e-11
-1.27454e-11
1.31583e-11
2.46006e-11
-2.53631e-11
-2.4665e-11
2.53094e-11
2.4711e-11
1.7531e-22
-1.27516e-13
-2.77787e-13
4.16683e-12
-1.78575e-12
-1.89812e-11
-1.21207e-11
0
5.89442e-22
-2.80021e-22
1.27192e-11
1.23008e-11
-1.26811e-11
-1.2332e-11
1.26546e-11
1.23555e-11
8.76676e-22
1.53923e-12
-1.6667e-12
2.99999e-12
-3.09566e-12
-7.22223e-12
-6.18346e-23
1.28214e-11
1.22222e-11
-1.27454e-11
-1.22802e-11
5.17926e-22
0
-1.08749e-22
1.26552e-11
2.5001e-11
1.23653e-11
1.53909e-12
-1.66676e-12
1.66662e-12
-4.28573e-12
-7.22197e-12
1.28791e-11
3.78213e-11
2.44445e-11
-2.54919e-11
-2.45606e-11
8.41756e-22
-1.18228e-22
1.0875e-21
2.53094e-11
3.73555e-11
1.23647e-11
1.5392e-12
-1.66656e-12
1.66691e-12
-2.97647e-12
-6.01873e-12
1.28789e-11
3.78202e-11
2.44427e-11
-2.54901e-11
-1.18406e-11
1.23011e-11
-1.26814e-11
-2.50007e-11
1.29651e-11
3.73568e-11
1.23657e-11
1.53915e-12
-2.77812e-13
4.16646e-12
-4.76169e-13
-4.81464e-12
6.80021e-22
1.28207e-11
1.2222e-11
-1.27452e-11
1.31593e-11
3.7302e-11
-3.63458e-13
-2.49993e-11
3.09397e-13
2.49993e-11
1.23653e-11
1.53918e-12
1.1111e-12
5.33351e-12
-4.76169e-13
-1.77782e-11
-1.21215e-11
3.66113e-22
-9.51852e-22
-1.27457e-11
4.37929e-13
3.76986e-11
1.19551e-11
-1.23332e-11
-1.00687e-21
1.26444e-11
1.23656e-11
1.53912e-12
1.21028e-24
5.33333e-12
-1.78571e-12
-3.19444e-11
-2.42416e-11
1.28211e-11
1.22224e-11
-2.54901e-11
-1.18394e-11
2.5e-11
-3.62195e-13
-1.23322e-11
3.02084e-22
1.26437e-11
1.23654e-11
-1.27516e-13
-2.77777e-13
4.16687e-12
-1.78608e-12
-1.89813e-11
-1.21211e-11
1.28203e-11
1.22217e-11
-1.27453e-11
4.38506e-13
1.2301e-11
5.31945e-22
-4.35001e-22
1.00703e-21
1.26444e-11
1.23659e-11
1.53913e-12
8.33353e-13
4.16645e-12
-1.78611e-12
-6.01855e-12
-6.18182e-23
1.2821e-11
1.2222e-11
-1.27452e-11
4.38526e-13
1.23014e-11
-1.12323e-21
-1.26673e-11
-1.23455e-11
1.26434e-11
1.23653e-11
3.20588e-12
1.1111e-12
5.33351e-12
-3.09477e-12
-7.22197e-12
1.28793e-11
2.5e-11
1.22221e-11
-2.5491e-11
8.77049e-13
2.46024e-11
-1.26813e-11
-2.5e-11
3.09897e-13
1.23566e-11
-6.13964e-22
1.53914e-12
-2.77776e-13
4.16665e-12
-3.09566e-12
-7.22223e-12
1.28786e-11
1.21794e-11
2.26635e-22
-1.27449e-11
4.39424e-13
1.23014e-11
-1.26814e-11
-2.5e-11
3.08045e-13
1.23562e-11
-2.01773e-21
1.53916e-12
-1.66667e-12
3e-12
-1.78569e-12
-6.01852e-12
3.09064e-23
1.28206e-11
1.22223e-11
-1.27452e-11
4.39446e-13
1.23018e-11
-1.06427e-21
-1.26669e-11
-1.23455e-11
-3.75083e-22
1.0526e-21
1.53914e-12
-1.66678e-12
3e-12
-4.76175e-13
-1.77779e-11
-1.21213e-11
1.28208e-11
1.22221e-11
-2.54901e-11
8.77096e-13
2.46023e-11
-2.36482e-22
2.067e-21
1.26549e-11
1.23571e-11
-9.65098e-22
1.53913e-12
8.33478e-13
4.16667e-12
-4.76177e-13
-1.77779e-11
7.57818e-13
2.50002e-11
1.22224e-11
-2.5491e-11
8.77114e-13
2.46032e-11
-1.26817e-11
-1.23336e-11
1.26541e-11
1.23557e-11
-2.54412e-21
3.20588e-12
-2.77792e-13
4.16688e-12
-4.76178e-13
-4.81482e-12
2.57567e-11
3.7179e-11
1.22222e-11
-2.54901e-11
-1.1841e-11
1.23015e-11
-1.26809e-11
-2.5e-11
-1.23459e-11
1.26438e-11
1.23654e-11
1.53914e-12
-1.38892e-12
4.16645e-12
-1.78611e-12
-6.01854e-12
1.28792e-11
2.5e-11
1.22219e-11
-1.27449e-11
4.38762e-13
2.50003e-11
1.2319e-11
-2.53342e-11
-2.46914e-11
2.52873e-11
2.47312e-11
-1.27521e-13
1.11116e-12
5.33351e-12
-1.78529e-12
-6.01851e-12
-1.23664e-22
1.28208e-11
1.22221e-11
4.3999e-22
1.27186e-11
2.49998e-11
1.23187e-11
-2.53333e-11
-1.20369e-11
2.5e-11
1.23655e-11
1.5392e-12
2.22214e-12
5.33333e-12
-1.78571e-12
-6.01853e-12
0
5.23181e-23
-1.36028e-22
-1.27452e-11
4.39481e-13
1.23018e-11
-6.50506e-22
-1.26665e-11
3.08603e-13
2.5e-11
1.23658e-11
3.20582e-12
8.33329e-13
4.16643e-12
-1.7861e-12
-6.01851e-12
1.28789e-11
2.50003e-11
1.22223e-11
-1.2745e-11
1.31567e-11
2.46032e-11
-3.54838e-22
-1.26668e-11
3.08619e-13
3.76438e-11
2.47312e-11
3.20582e-12
-2.77773e-13
4.16667e-12
-4.7618e-13
-4.81482e-12
2.57585e-11
3.71798e-11
1.22222e-11
-1.27453e-11
1.31592e-11
3.73017e-11
1.2319e-11
-1.26665e-11
3.09513e-13
3.76431e-11
2.47303e-11
1.53914e-12
-1.3889e-12
4.16666e-12
-4.76181e-13
-1.77781e-11
7.56408e-13
1.21795e-11
0
-1.2745e-11
1.3158e-11
3.73015e-11
-3.62483e-13
-1.23335e-11
7.05323e-22
1.26436e-11
1.23655e-11
-1.27516e-13
-2.77757e-13
4.1669e-12
-1.78531e-12
-1.89814e-11
-1.21207e-11
1.28206e-11
1.22228e-11
6.40221e-22
2.54386e-11
2.46032e-11
-1.2681e-11
-2.5e-11
3.08624e-13
1.2356e-11
8.77704e-23
1.53916e-12
2.22223e-12
3.99999e-12
-2.97618e-12
-6.01851e-12
1.28789e-11
3.78206e-11
2.44436e-11
-1.27447e-11
1.31577e-11
2.46032e-11
-1.77455e-22
-1.26665e-11
3.08622e-13
1.23562e-11
-1.26345e-11
3.20582e-12
8.33459e-13
2.83333e-12
-2.97654e-12
-6.01853e-12
1.28782e-11
3.78209e-11
2.44454e-11
-2.54911e-11
-1.18422e-11
1.23011e-11
-1.26808e-11
-2.50001e-11
-1.23458e-11
1.26438e-11
-2.69487e-13
3.20582e-12
-5.55723e-13
2.99973e-12
-1.78569e-12
-6.01851e-12
1.28793e-11
3.78201e-11
2.44436e-11
-2.54893e-11
-1.18407e-11
1.23022e-11
-1.26815e-11
-2.49998e-11
3.08813e-13
2.5e-11
1.23655e-11
3.20582e-12
-5.55549e-13
3.00027e-12
-4.76183e-13
-4.81482e-12
1.28783e-11
3.78208e-11
2.44445e-11
-2.54902e-11
-1.18422e-11
1.23015e-11
-1.26812e-11
-1.23335e-11
1.26542e-11
1.23558e-11
-1.58019e-21
3.20582e-12
8.33347e-13
2.83333e-12
-1.66667e-12
-4.81482e-12
1.28794e-11
2.5e-11
1.22226e-11
-1.27455e-11
-1.22806e-11
7.1271e-22
-1.26811e-11
-2.5e-11
-1.23458e-11
1.26434e-11
1.23652e-11
3.20575e-12
1.11111e-12
4.00001e-12
-1.66665e-12
-4.81482e-12
2.57576e-11
2.43599e-11
-3.1756e-22
-1.27452e-11
-1.22808e-11
1.26985e-11
1.23189e-11
-1.26665e-11
-1.23452e-11
1.26436e-11
1.23655e-11
1.53918e-12
1.11112e-12
3.99999e-12
-2.97584e-12
-6.01853e-12
1.28787e-11
2.5e-11
1.22223e-11
-1.2745e-11
-1.22811e-11
1.26988e-11
-3.6247e-13
-1.23334e-11
0
-1.22012e-21
7.9025e-22
1.53916e-12
2.22223e-12
4.00001e-12
-2.97654e-12
-6.01874e-12
1.23727e-21
1.28204e-11
-5.55608e-13
-1.2255e-11
1.27198e-11
1.23021e-11
-1.26811e-11
-1.23328e-11
5.04061e-22
1.31405e-21
1.58043e-21
3.20582e-12
1.11111e-12
3.99999e-12
-1.66667e-12
-4.81464e-12
1.28789e-11
1.21796e-11
-1.27777e-11
-1.22548e-11
2.54386e-11
2.46032e-11
3.55052e-22
-1.26667e-11
-1.23458e-11
1.26437e-11
1.23657e-11
1.53914e-12
1.11112e-12
4e-12
-1.66665e-12
-4.81481e-12
1.28787e-11
1.21795e-11
5.8987e-22
-1.27451e-11
1.31578e-11
2.46023e-11
-1.26812e-11
-2.5e-11
-1.23452e-11
2.52864e-11
1.20954e-11
1.53916e-12
1.11111e-12
5.33333e-12
-4.76184e-13
-4.81482e-12
1.28788e-11
2.50001e-11
1.22223e-11
-1.2745e-11
4.38599e-13
2.5e-11
-3.62073e-13
-1.23333e-11
0
1.26441e-11
-1.29019e-11
1.53914e-12
1.11112e-12
5.33333e-12
-4.76184e-13
-4.815e-12
2.57576e-11
3.71795e-11
1.22222e-11
-1.27452e-11
4.38611e-13
2.5e-11
1.23188e-11
-1.26672e-11
3.08643e-13
1.23564e-11
-1.26343e-11
1.53916e-12
-2.77779e-13
4.16666e-12
-4.76185e-13
-4.81481e-12
2.57576e-11
2.4359e-11
9.98383e-22
-1.27451e-11
4.38611e-13
1.23016e-11
7.10314e-22
-1.26666e-11
1.2963e-11
3.73564e-11
1.23657e-11
1.53915e-12
-2.77777e-12
1.66666e-12
-1.66666e-12
-1.77781e-11
7.57559e-13
2.5e-11
1.22222e-11
-5.60575e-22
6.44886e-22
2.59316e-22
5.91918e-23
0
1.26543e-11
2.49999e-11
1.23655e-11
-1.27516e-13
-2.77772e-13
2.83333e-12
-1.66666e-12
-1.77778e-11
7.57593e-13
2.5e-11
-5.55657e-13
-1.22549e-11
7.8836e-22
-1.16715e-21
-1.26812e-11
-1.23333e-11
4.03462e-22
1.26437e-11
1.23652e-11
1.53915e-12
1.11111e-12
5.33333e-12
-1.78571e-12
-6.01852e-12
1.28788e-11
1.21795e-11
-1.27778e-11
-1.22549e-11
3.58341e-22
1.26984e-11
-3.6222e-13
-2.5e-11
3.08648e-13
2.5e-11
1.23656e-11
1.53915e-12
8.68483e-23
5.33333e-12
-3.09523e-12
-7.22222e-12
-4.02318e-22
-4.18978e-22
-4.53893e-22
2.40294e-22
0
2.53968e-11
2.46377e-11
-2.53333e-11
6.17296e-13
2.47126e-11
-3.51421e-22
-1.27516e-13
2.9246e-23
5.33333e-12
-3.09523e-12
-7.22222e-12
4.33359e-22
-2.09532e-22
-1.36199e-22
0
0
2.53968e-11
2.46377e-11
-2.53333e-11
6.17296e-13
2.47126e-11
1.75748e-22
-1.27516e-13
)
;

boundaryField
{
    wireUpstream
    {
        type            calculated;
        value           nonuniform List<scalar> 
16
(
0
5.33333e-12
-3.09523e-12
-7.22222e-12
0
0
0
-2.48339e-22
0
2.53968e-11
2.46377e-11
-2.53333e-11
6.17296e-13
2.47126e-11
5.63006e-22
-1.27516e-13
)
;
    }
    wireDownstream
    {
        type            calculated;
        value           nonuniform List<scalar> 
16
(
-5.5557e-13
3.00005e-12
-4.76276e-13
-1e-11
2.09095e-11
2.43586e-11
3.95486e-22
3.48822e-22
6.2393e-22
2.53974e-11
2.4637e-11
-2.53341e-11
6.19081e-13
5e-11
2.47302e-11
3.20536e-12
)
;
    }
    wireTopContact
    {
        type            calculated;
        value           nonuniform List<scalar> 
122
(
0
0
6.64588e-22
0
0
6.64667e-22
-6.64694e-22
6.64722e-22
-1.99425e-21
0
0
0
6.64861e-22
-6.64888e-22
6.64916e-22
0
-6.64971e-22
6.64998e-22
-6.65026e-22
0
-6.65081e-22
6.65108e-22
-2.49998e-11
-2.50002e-11
1.33038e-21
0
0
0
0
0
0
-6.65124e-22
-6.65157e-22
6.65192e-22
0
0
6.65195e-22
-2.49997e-11
-2.50004e-11
-1.33048e-21
0
6.65301e-22
0
-6.65455e-22
1.33143e-21
0
-2.49984e-11
-2.50016e-11
-1.33514e-21
0
6.69368e-22
0
6.72894e-22
0
6.77098e-22
0
0
0
0
0
-2.5012e-11
-2.49876e-11
2.04997e-21
-6.83413e-22
-2.50114e-11
-5e-11
-2.49905e-11
0
0
-1.37339e-21
0
0
0
0
6.92344e-22
0
0
6.92833e-22
6.92991e-22
0
0
0
0
-6.93875e-22
0
0
-1.38832e-21
0
-6.94526e-22
0
6.94606e-22
0
6.94844e-22
0
-6.95089e-22
-1.39013e-21
0
0
0
0
-1.39081e-21
-6.95534e-22
-6.95665e-22
-2.50001e-11
-2.49999e-11
6.95762e-22
0
0
-6.95867e-22
0
-1.39198e-21
0
-2.50001e-11
-5e-11
-2.49999e-11
0
0
-6.96373e-22
0
0
0
0
)
;
    }
    front
    {
        type            wedge;
    }
    back
    {
        type            wedge;
    }
}


// ************************************************************************* //
