/*--------------------------------*- C++ -*----------------------------------*\
| =========                 |                                                 |
| \\      /  F ield         | foam-extend: Open Source CFD                    |
|  \\    /   O peration     | Version:     4.1-20200408                       |
|   \\  /    A nd           | Web:         http://www.foam-extend.org         |
|    \\/     M anipulation  |                                                 |
\*---------------------------------------------------------------------------*/
FoamFile
{
    version     2.0;
    format      ascii;
    class       volVectorField;
    location    "0.0580000";
    object      DU;
}
// * * * * * * * * * * * * * * * * * * * * * * * * * * * * * * * * * * * * * //

dimensions      [0 1 0 0 0 0 0];

internalField   nonuniform List<vector> 
1952
(
(4.99997e-05 -7.36841e-10 0)
(4.99997e-05 -1.13192e-09 0)
(4.99997e-05 -1.69321e-09 0)
(4.99997e-05 -2.05924e-09 0)
(4.99998e-05 -2.675e-09 0)
(4.99998e-05 -3.04434e-09 0)
(4.99999e-05 -3.67666e-09 0)
(5e-05 -4.05893e-09 0)
(5.00001e-05 -4.66715e-09 0)
(5.00003e-05 -5.04074e-09 0)
(5.00006e-05 -5.56882e-09 0)
(5.0001e-05 -5.8491e-09 0)
(5.00017e-05 -6.17845e-09 0)
(5.00029e-05 -6.20346e-09 0)
(5.00056e-05 -6.03257e-09 0)
(4.99997e-05 -3.07174e-10 0)
(4.99996e-05 -4.31079e-10 0)
(4.99996e-05 -6.75876e-10 0)
(4.99996e-05 -9.65475e-10 0)
(4.99996e-05 -1.19041e-09 0)
(4.99998e-05 -1.48268e-09 0)
(4.99998e-05 -1.68252e-09 0)
(5e-05 -1.95426e-09 0)
(5.00001e-05 -2.11715e-09 0)
(5.00004e-05 -2.33871e-09 0)
(5.00006e-05 -2.44069e-09 0)
(5.00011e-05 -2.58469e-09 0)
(5.00015e-05 -2.59099e-09 0)
(5.00022e-05 -2.63074e-09 0)
(5.00029e-05 -2.50695e-09 0)
(5.0004e-05 -2.48845e-09 0)
(4.99996e-05 -1.82011e-10 0)
(4.99996e-05 -3.20981e-10 0)
(4.99996e-05 -5.15299e-10 0)
(4.99997e-05 -7.10022e-10 0)
(4.99997e-05 -8.88457e-10 0)
(4.99999e-05 -1.0687e-09 0)
(4.99999e-05 -1.21418e-09 0)
(5.00001e-05 -1.36415e-09 0)
(5.00002e-05 -1.45976e-09 0)
(5.00006e-05 -1.55552e-09 0)
(5.00008e-05 -1.57705e-09 0)
(5.00013e-05 -1.6044e-09 0)
(5.00017e-05 -1.54515e-09 0)
(5.00024e-05 -1.51019e-09 0)
(5.00031e-05 -1.38621e-09 0)
(5.00041e-05 -1.35218e-09 0)
(4.99996e-05 -1.37337e-10 0)
(4.99998e-05 -2.18057e-10 0)
(4.99998e-05 -3.50481e-10 0)
(4.99999e-05 -4.75e-10 0)
(4.99999e-05 -5.90934e-10 0)
(5.00001e-05 -6.93263e-10 0)
(5.00001e-05 -7.7415e-10 0)
(5.00004e-05 -8.41856e-10 0)
(5.00005e-05 -8.70819e-10 0)
(5.00008e-05 -8.8831e-10 0)
(5.00011e-05 -8.51537e-10 0)
(5.00016e-05 -8.16097e-10 0)
(5.0002e-05 -7.19008e-10 0)
(5.00026e-05 -6.55111e-10 0)
(5.00032e-05 -5.41547e-10 0)
(5.0004e-05 -5.41802e-10 0)
(4.99997e-05 -9.35873e-11 0)
(5e-05 -1.27797e-10 0)
(5e-05 -2.03969e-10 0)
(5.00001e-05 -2.697e-10 0)
(5.00001e-05 -3.28971e-10 0)
(5.00003e-05 -3.70817e-10 0)
(5.00004e-05 -3.96496e-10 0)
(5.00007e-05 -4.05277e-10 0)
(5.00008e-05 -3.84733e-10 0)
(5.00012e-05 -3.52943e-10 0)
(5.00014e-05 -2.81483e-10 0)
(5.00019e-05 -2.15828e-10 0)
(5.00023e-05 -1.10477e-10 0)
(5.00029e-05 -4.31281e-11 0)
(5.00034e-05 4.95848e-11 0)
(5.0004e-05 5.12422e-11 0)
(5e-05 -5.50617e-11 0)
(5.00003e-05 -5.09406e-11 0)
(5.00003e-05 -7.93153e-11 0)
(5.00004e-05 -9.73451e-11 0)
(5.00005e-05 -1.09405e-10 0)
(5.00007e-05 -1.05173e-10 0)
(5.00007e-05 -8.73037e-11 0)
(5.0001e-05 -5.48388e-11 0)
(5.00011e-05 1.25941e-12 0)
(5.00015e-05 6.3579e-11 0)
(5.00018e-05 1.55646e-10 0)
(5.00022e-05 2.359e-10 0)
(5.00026e-05 3.42729e-10 0)
(5.00031e-05 4.08441e-10 0)
(5.00035e-05 4.86686e-10 0)
(5.0004e-05 4.85088e-10 0)
(5.00003e-05 -2.21565e-11 0)
(5.00006e-05 1.15352e-11 0)
(5.00007e-05 2.19135e-11 0)
(5.00008e-05 4.17537e-11 0)
(5.00008e-05 6.69587e-11 0)
(5.0001e-05 1.05635e-10 0)
(5.00011e-05 1.55923e-10 0)
(5.00014e-05 2.16325e-10 0)
(5.00015e-05 2.95908e-10 0)
(5.00019e-05 3.75496e-10 0)
(5.00021e-05 4.77735e-10 0)
(5.00026e-05 5.62549e-10 0)
(5.00028e-05 6.65411e-10 0)
(5.00033e-05 7.27236e-10 0)
(5.00036e-05 7.95832e-10 0)
(5.0004e-05 7.99601e-10 0)
(5.00006e-05 4.62763e-12 0)
(5.0001e-05 5.99249e-11 0)
(5.00011e-05 1.00051e-10 0)
(5.00012e-05 1.48484e-10 0)
(5.00012e-05 2.01422e-10 0)
(5.00015e-05 2.64678e-10 0)
(5.00015e-05 3.37753e-10 0)
(5.00018e-05 4.16187e-10 0)
(5.00019e-05 5.10626e-10 0)
(5.00023e-05 5.99351e-10 0)
(5.00025e-05 7.06248e-10 0)
(5.00029e-05 7.91485e-10 0)
(5.00031e-05 8.90321e-10 0)
(5.00035e-05 9.49241e-10 0)
(5.00038e-05 1.01284e-09 0)
(5.00041e-05 1.02247e-09 0)
(5.0001e-05 2.53956e-11 0)
(5.00015e-05 9.52305e-11 0)
(5.00015e-05 1.56896e-10 0)
(5.00016e-05 2.25686e-10 0)
(5.00017e-05 2.98081e-10 0)
(5.00019e-05 3.77761e-10 0)
(5.00019e-05 4.65871e-10 0)
(5.00023e-05 5.54872e-10 0)
(5.00023e-05 6.57903e-10 0)
(5.00027e-05 7.50303e-10 0)
(5.00029e-05 8.58564e-10 0)
(5.00032e-05 9.42111e-10 0)
(5.00034e-05 1.03756e-09 0)
(5.00038e-05 1.09498e-09 0)
(5.0004e-05 1.15726e-09 0)
(5.00042e-05 1.17478e-09 0)
(5.00014e-05 4.0562e-11 0)
(5.00019e-05 1.18786e-10 0)
(5.00019e-05 1.94691e-10 0)
(5.0002e-05 2.76621e-10 0)
(5.00021e-05 3.61434e-10 0)
(5.00023e-05 4.50844e-10 0)
(5.00024e-05 5.47929e-10 0)
(5.00027e-05 6.41988e-10 0)
(5.00027e-05 7.49415e-10 0)
(5.00031e-05 8.42151e-10 0)
(5.00032e-05 9.50347e-10 0)
(5.00036e-05 1.03166e-09 0)
(5.00037e-05 1.12519e-09 0)
(5.0004e-05 1.18261e-09 0)
(5.00042e-05 1.24624e-09 0)
(5.00043e-05 1.27208e-09 0)
(5.00019e-05 5.0693e-11 0)
(5.00023e-05 1.32102e-10 0)
(5.00024e-05 2.15946e-10 0)
(5.00025e-05 3.04889e-10 0)
(5.00025e-05 3.96277e-10 0)
(5.00027e-05 4.90018e-10 0)
(5.00028e-05 5.91366e-10 0)
(5.00031e-05 6.86399e-10 0)
(5.00031e-05 7.95308e-10 0)
(5.00035e-05 8.86257e-10 0)
(5.00036e-05 9.93756e-10 0)
(5.00039e-05 1.07286e-09 0)
(5.0004e-05 1.16589e-09 0)
(5.00043e-05 1.22463e-09 0)
(5.00044e-05 1.29159e-09 0)
(5.00045e-05 1.32621e-09 0)
(5.00023e-05 5.64311e-11 0)
(5.00027e-05 1.36645e-10 0)
(5.00028e-05 2.23097e-10 0)
(5.00029e-05 3.13879e-10 0)
(5.00029e-05 4.07109e-10 0)
(5.00032e-05 5.00775e-10 0)
(5.00032e-05 6.02883e-10 0)
(5.00035e-05 6.95761e-10 0)
(5.00035e-05 8.04347e-10 0)
(5.00039e-05 8.92095e-10 0)
(5.00039e-05 9.98949e-10 0)
(5.00042e-05 1.07611e-09 0)
(5.00043e-05 1.17005e-09 0)
(5.00046e-05 1.23113e-09 0)
(5.00046e-05 1.30289e-09 0)
(5.00047e-05 1.34642e-09 0)
(5.00027e-05 5.84059e-11 0)
(5.00031e-05 1.33766e-10 0)
(5.00032e-05 2.18329e-10 0)
(5.00033e-05 3.06664e-10 0)
(5.00033e-05 3.97824e-10 0)
(5.00036e-05 4.87919e-10 0)
(5.00036e-05 5.87993e-10 0)
(5.00039e-05 6.76419e-10 0)
(5.00039e-05 7.83342e-10 0)
(5.00042e-05 8.67043e-10 0)
(5.00043e-05 9.73382e-10 0)
(5.00046e-05 1.04902e-09 0)
(5.00046e-05 1.14498e-09 0)
(5.00048e-05 1.2093e-09 0)
(5.00049e-05 1.28694e-09 0)
(5.0005e-05 1.3395e-09 0)
(5.00031e-05 5.71932e-11 0)
(5.00035e-05 1.24636e-10 0)
(5.00035e-05 2.03576e-10 0)
(5.00037e-05 2.8585e-10 0)
(5.00037e-05 3.71842e-10 0)
(5.00039e-05 4.55404e-10 0)
(5.0004e-05 5.51455e-10 0)
(5.00043e-05 6.33459e-10 0)
(5.00043e-05 7.38026e-10 0)
(5.00046e-05 8.16908e-10 0)
(5.00046e-05 9.23201e-10 0)
(5.00049e-05 9.97583e-10 0)
(5.00049e-05 1.09667e-09 0)
(5.00051e-05 1.16487e-09 0)
(5.00051e-05 1.24933e-09 0)
(5.00052e-05 1.31105e-09 0)
(5.00035e-05 5.32983e-11 0)
(5.00039e-05 1.10255e-10 0)
(5.00039e-05 1.80416e-10 0)
(5.0004e-05 2.53651e-10 0)
(5.00041e-05 3.3185e-10 0)
(5.00043e-05 4.0652e-10 0)
(5.00043e-05 4.96836e-10 0)
(5.00046e-05 5.70953e-10 0)
(5.00046e-05 6.72505e-10 0)
(5.00049e-05 7.46113e-10 0)
(5.00049e-05 8.5263e-10 0)
(5.00052e-05 9.26123e-10 0)
(5.00052e-05 1.02914e-09 0)
(5.00054e-05 1.10189e-09 0)
(5.00054e-05 1.19391e-09 0)
(5.00055e-05 1.26503e-09 0)
(5.00038e-05 4.71465e-11 0)
(5.00042e-05 9.14329e-11 0)
(5.00042e-05 1.50191e-10 0)
(5.00044e-05 2.11811e-10 0)
(5.00044e-05 2.80152e-10 0)
(5.00046e-05 3.43787e-10 0)
(5.00046e-05 4.27193e-10 0)
(5.00049e-05 4.91959e-10 0)
(5.00049e-05 5.9026e-10 0)
(5.00053e-05 6.57968e-10 0)
(5.00053e-05 7.65224e-10 0)
(5.00056e-05 8.37961e-10 0)
(5.00055e-05 9.45793e-10 0)
(5.00057e-05 1.02361e-09 0)
(5.00057e-05 1.12399e-09 0)
(5.00058e-05 1.2049e-09 0)
(5.00042e-05 3.90893e-11 0)
(5.00045e-05 6.8883e-11 0)
(5.00045e-05 1.14007e-10 0)
(5.00046e-05 1.61875e-10 0)
(5.00047e-05 2.18559e-10 0)
(5.00049e-05 2.69402e-10 0)
(5.00049e-05 3.44806e-10 0)
(5.00053e-05 3.99052e-10 0)
(5.00052e-05 4.93764e-10 0)
(5.00056e-05 5.55129e-10 0)
(5.00056e-05 6.63414e-10 0)
(5.00059e-05 7.35622e-10 0)
(5.00059e-05 8.48943e-10 0)
(5.00061e-05 9.32445e-10 0)
(5.0006e-05 1.04193e-09 0)
(5.00061e-05 1.13321e-09 0)
(5.00044e-05 2.943e-11 0)
(5.00047e-05 4.31921e-11 0)
(5.00047e-05 7.28283e-11 0)
(5.00049e-05 1.05067e-10 0)
(5.00049e-05 1.48688e-10 0)
(5.00052e-05 1.85064e-10 0)
(5.00052e-05 2.51731e-10 0)
(5.00055e-05 2.942e-10 0)
(5.00055e-05 3.85251e-10 0)
(5.00059e-05 4.39642e-10 0)
(5.00059e-05 5.49401e-10 0)
(5.00062e-05 6.21141e-10 0)
(5.00062e-05 7.40713e-10 0)
(5.00064e-05 8.30505e-10 0)
(5.00064e-05 9.49962e-10 0)
(5.00064e-05 1.05245e-09 0)
(5.00046e-05 1.84229e-11 0)
(5.00049e-05 1.49848e-11 0)
(5.00049e-05 2.76237e-11 0)
(5.00051e-05 4.27075e-11 0)
(5.00051e-05 7.20939e-11 0)
(5.00054e-05 9.2585e-11 0)
(5.00054e-05 1.49869e-10 0)
(5.00058e-05 1.79445e-10 0)
(5.00058e-05 2.66716e-10 0)
(5.00062e-05 3.13549e-10 0)
(5.00062e-05 4.25112e-10 0)
(5.00065e-05 4.96463e-10 0)
(5.00065e-05 6.22968e-10 0)
(5.00067e-05 7.19747e-10 0)
(5.00067e-05 8.50114e-10 0)
(5.00068e-05 9.64877e-10 0)
(5.00048e-05 6.33457e-12 0)
(5.0005e-05 -1.51285e-11 0)
(5.0005e-05 -2.06182e-11 0)
(5.00052e-05 -2.39327e-11 0)
(5.00053e-05 -9.59814e-12 0)
(5.00056e-05 -6.28651e-12 0)
(5.00056e-05 4.1242e-11 0)
(5.0006e-05 5.67898e-11 0)
(5.00061e-05 1.40317e-10 0)
(5.00065e-05 1.78921e-10 0)
(5.00065e-05 2.92667e-10 0)
(5.00069e-05 3.63657e-10 0)
(5.00069e-05 4.97806e-10 0)
(5.00071e-05 6.02357e-10 0)
(5.00071e-05 7.44684e-10 0)
(5.00071e-05 8.73105e-10 0)
(5.00049e-05 -6.57141e-12 0)
(5.0005e-05 -4.63267e-11 0)
(5.00051e-05 -7.06054e-11 0)
(5.00053e-05 -9.31387e-11 0)
(5.00054e-05 -9.42959e-11 0)
(5.00057e-05 -1.09213e-10 0)
(5.00058e-05 -7.15775e-11 0)
(5.00062e-05 -7.11344e-11 0)
(5.00063e-05 8.77907e-12 0)
(5.00067e-05 3.84117e-11 0)
(5.00068e-05 1.54728e-10 0)
(5.00072e-05 2.25302e-10 0)
(5.00072e-05 3.67814e-10 0)
(5.00075e-05 4.80964e-10 0)
(5.00075e-05 6.36424e-10 0)
(5.00076e-05 7.80154e-10 0)
(5.0005e-05 -1.99435e-11 0)
(5.00051e-05 -7.76385e-11 0)
(5.00051e-05 -1.20784e-10 0)
(5.00054e-05 -1.62857e-10 0)
(5.00054e-05 -1.79445e-10 0)
(5.00058e-05 -2.13321e-10 0)
(5.00059e-05 -1.85375e-10 0)
(5.00064e-05 -2.00972e-10 0)
(5.00065e-05 -1.24391e-10 0)
(5.0007e-05 -1.0445e-10 0)
(5.00071e-05 1.48264e-11 0)
(5.00075e-05 8.49351e-11 0)
(5.00076e-05 2.36498e-10 0)
(5.00079e-05 3.59189e-10 0)
(5.00079e-05 5.29029e-10 0)
(5.0008e-05 6.90046e-10 0)
(5.0005e-05 -3.33642e-11 0)
(5.0005e-05 -1.07653e-10 0)
(5.00051e-05 -1.6891e-10 0)
(5.00053e-05 -2.30121e-10 0)
(5.00054e-05 -2.61376e-10 0)
(5.00059e-05 -3.14507e-10 0)
(5.0006e-05 -2.9557e-10 0)
(5.00065e-05 -3.2801e-10 0)
(5.00066e-05 -2.54252e-10 0)
(5.00072e-05 -2.44809e-10 0)
(5.00074e-05 -1.22146e-10 0)
(5.00078e-05 -5.26992e-11 0)
(5.0008e-05 1.08575e-10 0)
(5.00083e-05 2.41727e-10 0)
(5.00084e-05 4.27265e-10 0)
(5.00085e-05 6.07812e-10 0)
(5.00049e-05 -4.62281e-11 0)
(5.00049e-05 -1.34586e-10 0)
(5.0005e-05 -2.12132e-10 0)
(5.00052e-05 -2.91124e-10 0)
(5.00054e-05 -3.35364e-10 0)
(5.00058e-05 -4.07379e-10 0)
(5.0006e-05 -3.96123e-10 0)
(5.00066e-05 -4.45875e-10 0)
(5.00068e-05 -3.74089e-10 0)
(5.00074e-05 -3.75899e-10 0)
(5.00076e-05 -2.49338e-10 0)
(5.00082e-05 -1.80827e-10 0)
(5.00084e-05 -9.22966e-12 0)
(5.00088e-05 1.35308e-10 0)
(5.00089e-05 3.3787e-10 0)
(5.0009e-05 5.40464e-10 0)
(5.00048e-05 -5.77692e-11 0)
(5.00047e-05 -1.55896e-10 0)
(5.00048e-05 -2.46398e-10 0)
(5.00051e-05 -3.40464e-10 0)
(5.00052e-05 -3.94743e-10 0)
(5.00058e-05 -4.84353e-10 0)
(5.0006e-05 -4.78617e-10 0)
(5.00066e-05 -5.45709e-10 0)
(5.00069e-05 -4.74696e-10 0)
(5.00076e-05 -4.8847e-10 0)
(5.00079e-05 -3.57548e-10 0)
(5.00085e-05 -2.90407e-10 0)
(5.00088e-05 -1.08101e-10 0)
(5.00092e-05 4.86368e-11 0)
(5.00094e-05 2.69439e-10 0)
(5.00096e-05 4.968e-10 0)
(5.00046e-05 -6.68966e-11 0)
(5.00044e-05 -1.68364e-10 0)
(5.00045e-05 -2.66555e-10 0)
(5.00049e-05 -3.71245e-10 0)
(5.0005e-05 -4.30932e-10 0)
(5.00056e-05 -5.35612e-10 0)
(5.00059e-05 -5.31997e-10 0)
(5.00066e-05 -6.15842e-10 0)
(5.00069e-05 -5.43684e-10 0)
(5.00077e-05 -5.70094e-10 0)
(5.00081e-05 -4.34109e-10 0)
(5.00088e-05 -3.69066e-10 0)
(5.00092e-05 -1.75755e-10 0)
(5.00098e-05 -6.26215e-12 0)
(5.001e-05 2.33847e-10 0)
(5.00103e-05 4.88816e-10 0)
(5.00043e-05 -7.22292e-11 0)
(5.0004e-05 -1.6758e-10 0)
(5.00042e-05 -2.65553e-10 0)
(5.00046e-05 -3.74011e-10 0)
(5.00048e-05 -4.32273e-10 0)
(5.00054e-05 -5.47732e-10 0)
(5.00057e-05 -5.41397e-10 0)
(5.00066e-05 -6.40421e-10 0)
(5.0007e-05 -5.64596e-10 0)
(5.00078e-05 -6.04069e-10 0)
(5.00083e-05 -4.62428e-10 0)
(5.00092e-05 -4.0046e-10 0)
(5.00096e-05 -1.96348e-10 0)
(5.00103e-05 -1.3884e-11 0)
(5.00106e-05 2.46174e-10 0)
(5.0011e-05 5.31608e-10 0)
(5.0004e-05 -7.18724e-11 0)
(5.00037e-05 -1.48024e-10 0)
(5.00038e-05 -2.34559e-10 0)
(5.00043e-05 -3.36888e-10 0)
(5.00045e-05 -3.84011e-10 0)
(5.00052e-05 -5.03727e-10 0)
(5.00055e-05 -4.87728e-10 0)
(5.00065e-05 -5.99171e-10 0)
(5.00069e-05 -5.15978e-10 0)
(5.00079e-05 -5.68785e-10 0)
(5.00085e-05 -4.20601e-10 0)
(5.00095e-05 -3.63216e-10 0)
(5.00101e-05 -1.48863e-10 0)
(5.00109e-05 4.61444e-11 0)
(5.00113e-05 3.26258e-10 0)
(5.00118e-05 6.44843e-10 0)
(5.00036e-05 -6.34585e-11 0)
(5.00032e-05 -1.02433e-10 0)
(5.00034e-05 -1.61928e-10 0)
(5.00039e-05 -2.44216e-10 0)
(5.00041e-05 -2.66766e-10 0)
(5.00049e-05 -3.81184e-10 0)
(5.00053e-05 -3.46008e-10 0)
(5.00063e-05 -4.6538e-10 0)
(5.00069e-05 -3.69847e-10 0)
(5.0008e-05 -4.35887e-10 0)
(5.00087e-05 -2.80186e-10 0)
(5.00098e-05 -2.29509e-10 0)
(5.00106e-05 -6.19668e-12 0)
(5.00115e-05 2.00023e-10 0)
(5.00121e-05 4.99428e-10 0)
(5.00127e-05 8.53442e-10 0)
(5.00031e-05 -4.38673e-11 0)
(5.00028e-05 -2.18324e-11 0)
(5.00029e-05 -3.32956e-11 0)
(5.00035e-05 -7.6562e-11 0)
(5.00037e-05 -5.64864e-11 0)
(5.00046e-05 -1.52128e-10 0)
(5.0005e-05 -8.49924e-11 0)
(5.00061e-05 -2.05472e-10 0)
(5.00068e-05 -9.09599e-11 0)
(5.0008e-05 -1.69508e-10 0)
(5.00089e-05 -5.20011e-12 0)
(5.00101e-05 3.59471e-11 0)
(5.00111e-05 2.65916e-10 0)
(5.00122e-05 4.80842e-10 0)
(5.0013e-05 7.97461e-10 0)
(5.00137e-05 1.1885e-09 0)
(5.00027e-05 -9.24823e-12 0)
(5.00023e-05 1.05106e-10 0)
(5.00025e-05 1.69563e-10 0)
(5.00031e-05 1.90636e-10 0)
(5.00033e-05 2.77426e-10 0)
(5.00042e-05 2.1891e-10 0)
(5.00047e-05 3.35243e-10 0)
(5.00059e-05 2.23259e-10 0)
(5.00067e-05 3.65963e-10 0)
(5.0008e-05 2.76096e-10 0)
(5.00091e-05 4.50763e-10 0)
(5.00105e-05 4.78219e-10 0)
(5.00116e-05 7.1164e-10 0)
(5.00129e-05 9.3082e-10 0)
(5.00139e-05 1.26101e-09 0)
(5.00149e-05 1.68947e-09 0)
(5.00022e-05 4.52664e-11 0)
(5.00019e-05 2.92217e-10 0)
(5.00021e-05 4.68801e-10 0)
(5.00027e-05 5.8756e-10 0)
(5.00029e-05 7.72258e-10 0)
(5.00039e-05 7.75786e-10 0)
(5.00044e-05 9.63551e-10 0)
(5.00057e-05 8.73952e-10 0)
(5.00065e-05 1.05651e-09 0)
(5.0008e-05 9.58052e-10 0)
(5.00092e-05 1.14475e-09 0)
(5.00108e-05 1.15346e-09 0)
(5.00122e-05 1.38511e-09 0)
(5.00137e-05 1.60202e-09 0)
(5.0015e-05 1.93955e-09 0)
(5.00162e-05 2.40426e-09 0)
(5.00018e-05 1.2561e-10 0)
(5.00017e-05 5.56188e-10 0)
(5.00018e-05 8.91373e-10 0)
(5.00024e-05 1.1507e-09 0)
(5.00026e-05 1.47377e-09 0)
(5.00036e-05 1.57188e-09 0)
(5.00041e-05 1.86059e-09 0)
(5.00054e-05 1.81187e-09 0)
(5.00064e-05 2.0506e-09 0)
(5.00079e-05 1.94722e-09 0)
(5.00093e-05 2.14925e-09 0)
(5.00111e-05 2.13197e-09 0)
(5.00127e-05 2.35538e-09 0)
(5.00145e-05 2.55999e-09 0)
(5.00161e-05 2.89582e-09 0)
(5.00176e-05 3.39312e-09 0)
(5.00016e-05 2.38955e-10 0)
(5.00017e-05 9.17031e-10 0)
(5.00017e-05 1.46941e-09 0)
(5.00023e-05 1.92418e-09 0)
(5.00025e-05 2.43666e-09 0)
(5.00035e-05 2.67223e-09 0)
(5.00039e-05 3.09919e-09 0)
(5.00053e-05 3.11717e-09 0)
(5.00063e-05 3.4326e-09 0)
(5.00079e-05 3.33108e-09 0)
(5.00094e-05 3.55206e-09 0)
(5.00114e-05 3.50033e-09 0)
(5.00133e-05 3.70602e-09 0)
(5.00154e-05 3.88458e-09 0)
(5.00173e-05 4.20525e-09 0)
(5.00192e-05 4.72831e-09 0)
(5.00016e-05 3.93883e-10 0)
(5.0002e-05 1.3977e-09 0)
(5.0002e-05 2.24017e-09 0)
(5.00025e-05 2.95886e-09 0)
(5.00025e-05 3.72522e-09 0)
(5.00035e-05 4.15283e-09 0)
(5.00039e-05 4.76659e-09 0)
(5.00052e-05 4.88511e-09 0)
(5.00062e-05 5.30565e-09 0)
(5.00079e-05 5.21554e-09 0)
(5.00095e-05 5.46242e-09 0)
(5.00117e-05 5.36511e-09 0)
(5.00139e-05 5.54191e-09 0)
(5.00163e-05 5.67497e-09 0)
(5.00187e-05 5.96208e-09 0)
(5.0021e-05 6.49951e-09 0)
(5.00019e-05 6.00258e-10 0)
(5.00028e-05 2.02476e-09 0)
(5.00026e-05 3.24654e-09 0)
(5.00032e-05 4.31424e-09 0)
(5.0003e-05 5.41395e-09 0)
(5.00038e-05 6.10359e-09 0)
(5.00041e-05 6.96499e-09 0)
(5.00053e-05 7.22998e-09 0)
(5.00062e-05 7.79213e-09 0)
(5.00079e-05 7.72916e-09 0)
(5.00096e-05 8.01144e-09 0)
(5.00119e-05 7.85634e-09 0)
(5.00144e-05 7.98967e-09 0)
(5.00173e-05 8.05147e-09 0)
(5.00201e-05 8.27951e-09 0)
(5.0023e-05 8.81405e-09 0)
(5.00027e-05 8.69466e-10 0)
(5.00043e-05 2.82665e-09 0)
(5.0004e-05 4.535e-09 0)
(5.00044e-05 6.05479e-09 0)
(5.00039e-05 7.58539e-09 0)
(5.00046e-05 8.6243e-09 0)
(5.00046e-05 9.81098e-09 0)
(5.00056e-05 1.02825e-08 0)
(5.00064e-05 1.10363e-08 0)
(5.00079e-05 1.10239e-08 0)
(5.00098e-05 1.13583e-08 0)
(5.00122e-05 1.11319e-08 0)
(5.0015e-05 1.1206e-08 0)
(5.00182e-05 1.11623e-08 0)
(5.00216e-05 1.12977e-08 0)
(5.00251e-05 1.18041e-08 0)
(5.00042e-05 1.21372e-09 0)
(5.00067e-05 3.83412e-09 0)
(5.00061e-05 6.15575e-09 0)
(5.00063e-05 8.25133e-09 0)
(5.00056e-05 1.03301e-08 0)
(5.0006e-05 1.1827e-08 0)
(5.00056e-05 1.34355e-08 0)
(5.00063e-05 1.41935e-08 0)
(5.00068e-05 1.52047e-08 0)
(5.00081e-05 1.52796e-08 0)
(5.00099e-05 1.56922e-08 0)
(5.00123e-05 1.53827e-08 0)
(5.00154e-05 1.53809e-08 0)
(5.00191e-05 1.51881e-08 0)
(5.00231e-05 1.51874e-08 0)
(5.00275e-05 1.563e-08 0)
(5.00067e-05 1.64619e-09 0)
(5.00103e-05 5.07624e-09 0)
(5.00094e-05 8.15698e-09 0)
(5.00094e-05 1.09727e-08 0)
(5.00082e-05 1.37385e-08 0)
(5.00082e-05 1.58258e-08 0)
(5.00072e-05 1.79767e-08 0)
(5.00075e-05 1.91255e-08 0)
(5.00075e-05 2.04835e-08 0)
(5.00085e-05 2.07017e-08 0)
(5.00101e-05 2.12356e-08 0)
(5.00125e-05 2.08371e-08 0)
(5.00158e-05 2.07463e-08 0)
(5.00199e-05 2.03499e-08 0)
(5.00246e-05 2.01578e-08 0)
(5.00299e-05 2.0486e-08 0)
(5.00103e-05 2.17933e-09 0)
(5.00154e-05 6.57928e-09 0)
(5.00142e-05 1.05827e-08 0)
(5.00138e-05 1.42835e-08 0)
(5.0012e-05 1.78971e-08 0)
(5.00114e-05 2.0734e-08 0)
(5.00098e-05 2.35748e-08 0)
(5.00094e-05 2.52504e-08 0)
(5.00088e-05 2.70747e-08 0)
(5.00092e-05 2.75215e-08 0)
(5.00104e-05 2.8246e-08 0)
(5.00126e-05 2.77666e-08 0)
(5.0016e-05 2.75834e-08 0)
(5.00206e-05 2.69179e-08 0)
(5.00261e-05 2.64649e-08 0)
(5.00325e-05 2.66066e-08 0)
(5.00155e-05 2.82438e-09 0)
(5.00223e-05 8.35967e-09 0)
(5.00208e-05 1.34617e-08 0)
(5.00199e-05 1.82292e-08 0)
(5.00175e-05 2.28714e-08 0)
(5.00161e-05 2.66443e-08 0)
(5.00136e-05 3.03536e-08 0)
(5.00123e-05 3.27307e-08 0)
(5.00108e-05 3.51823e-08 0)
(5.00104e-05 3.59872e-08 0)
(5.00109e-05 3.70146e-08 0)
(5.00126e-05 3.64942e-08 0)
(5.00161e-05 3.62414e-08 0)
(5.00209e-05 3.52383e-08 0)
(5.00273e-05 3.44454e-08 0)
(5.00351e-05 3.4301e-08 0)
(5.00226e-05 3.58829e-09 0)
(5.00316e-05 1.04203e-08 0)
(5.00296e-05 1.68014e-08 0)
(5.00282e-05 2.28271e-08 0)
(5.00249e-05 2.86935e-08 0)
(5.00226e-05 3.3614e-08 0)
(5.0019e-05 3.84022e-08 0)
(5.00165e-05 4.1701e-08 0)
(5.00138e-05 4.49924e-08 0)
(5.00122e-05 4.63466e-08 0)
(5.00118e-05 4.78554e-08 0)
(5.00127e-05 4.73934e-08 0)
(5.00159e-05 4.71524e-08 0)
(5.00209e-05 4.57654e-08 0)
(5.00282e-05 4.45726e-08 0)
(5.00376e-05 4.40206e-08 0)
(5.0032e-05 4.47222e-09 0)
(5.00437e-05 1.27389e-08 0)
(5.00411e-05 2.05692e-08 0)
(5.0039e-05 2.8041e-08 0)
(5.00348e-05 3.53304e-08 0)
(5.00314e-05 4.16274e-08 0)
(5.00264e-05 4.77322e-08 0)
(5.00225e-05 5.22214e-08 0)
(5.00182e-05 5.66258e-08 0)
(5.00151e-05 5.88022e-08 0)
(5.00132e-05 6.10618e-08 0)
(5.00129e-05 6.08505e-08 0)
(5.00155e-05 6.07923e-08 0)
(5.00203e-05 5.90251e-08 0)
(5.00286e-05 5.74176e-08 0)
(5.00399e-05 5.63001e-08 0)
(5.00442e-05 5.46651e-09 0)
(5.00589e-05 1.52627e-08 0)
(5.00556e-05 2.46824e-08 0)
(5.00529e-05 3.37656e-08 0)
(5.00475e-05 4.26625e-08 0)
(5.00429e-05 5.05666e-08 0)
(5.00363e-05 5.82422e-08 0)
(5.00307e-05 6.42345e-08 0)
(5.00245e-05 7.00892e-08 0)
(5.00194e-05 7.34597e-08 0)
(5.00156e-05 7.68594e-08 0)
(5.00134e-05 7.7221e-08 0)
(5.00148e-05 7.76344e-08 0)
(5.00191e-05 7.55394e-08 0)
(5.00282e-05 7.34749e-08 0)
(5.00415e-05 7.14577e-08 0)
(5.00595e-05 6.5483e-09 0)
(5.00776e-05 1.78944e-08 0)
(5.00737e-05 2.89859e-08 0)
(5.00702e-05 3.97941e-08 0)
(5.00636e-05 5.04395e-08 0)
(5.00576e-05 6.01553e-08 0)
(5.00493e-05 6.96473e-08 0)
(5.00417e-05 7.74855e-08 0)
(5.00332e-05 8.51921e-08 0)
(5.00257e-05 9.02599e-08 0)
(5.00193e-05 9.53794e-08 0)
(5.00147e-05 9.68965e-08 0)
(5.00141e-05 9.83716e-08 0)
(5.00171e-05 9.62537e-08 0)
(5.00266e-05 9.37365e-08 0)
(5.00423e-05 9.02168e-08 0)
(5.00784e-05 7.67573e-09 0)
(5.01002e-05 2.04876e-08 0)
(5.00956e-05 3.32429e-08 0)
(5.00912e-05 4.58017e-08 0)
(5.00835e-05 5.82528e-08 0)
(5.0076e-05 6.99136e-08 0)
(5.00658e-05 8.14099e-08 0)
(5.00561e-05 9.14169e-08 0)
(5.0045e-05 1.01399e-07 0)
(5.00348e-05 1.08792e-07 0)
(5.00253e-05 1.16471e-07 0)
(5.00174e-05 1.20214e-07 0)
(5.00137e-05 1.24169e-07 0)
(5.0014e-05 1.2351e-07 0)
(5.00227e-05 1.22e-07 0)
(5.00413e-05 1.17624e-07 0)
(5.01011e-05 8.78595e-09 0)
(5.01266e-05 2.28417e-08 0)
(5.01215e-05 3.71243e-08 0)
(5.01163e-05 5.13276e-08 0)
(5.01073e-05 6.55049e-08 0)
(5.00983e-05 7.91055e-08 0)
(5.00864e-05 9.2649e-08 0)
(5.00745e-05 1.05014e-07 0)
(5.00608e-05 1.1756e-07 0)
(5.00477e-05 1.27839e-07 0)
(5.00349e-05 1.38932e-07 0)
(5.00233e-05 1.46252e-07 0)
(5.00158e-05 1.54907e-07 0)
(5.0012e-05 1.58905e-07 0)
(5.00178e-05 1.63348e-07 0)
(5.00372e-05 1.63895e-07 0)
(5.01278e-05 9.79298e-09 0)
(5.01569e-05 2.47113e-08 0)
(5.01511e-05 4.02251e-08 0)
(5.01451e-05 5.57954e-08 0)
(5.01351e-05 7.1435e-08 0)
(5.01247e-05 8.67621e-08 0)
(5.0111e-05 1.02153e-07 0)
(5.00972e-05 1.16775e-07 0)
(5.0081e-05 1.3179e-07 0)
(5.00652e-05 1.45023e-07 0)
(5.00492e-05 1.59651e-07 0)
(5.00343e-05 1.70907e-07 0)
(5.00233e-05 1.85066e-07 0)
(5.00157e-05 1.9514e-07 0)
(5.00176e-05 2.0895e-07 0)
(5.00327e-05 2.20376e-07 0)
(5.01582e-05 1.05917e-08 0)
(5.01904e-05 2.58235e-08 0)
(5.01842e-05 4.20936e-08 0)
(5.01775e-05 5.8561e-08 0)
(5.01665e-05 7.51866e-08 0)
(5.01549e-05 9.17877e-08 0)
(5.01396e-05 1.08543e-07 0)
(5.01238e-05 1.24974e-07 0)
(5.01052e-05 1.41884e-07 0)
(5.00868e-05 1.57491e-07 0)
(5.00675e-05 1.7469e-07 0)
(5.00491e-05 1.885e-07 0)
(5.00343e-05 2.05761e-07 0)
(5.00223e-05 2.17605e-07 0)
(5.00192e-05 2.33478e-07 0)
(5.00265e-05 2.44632e-07 0)
(5.01919e-05 1.10656e-08 0)
(5.02266e-05 2.58994e-08 0)
(5.022e-05 4.22706e-08 0)
(5.02127e-05 5.89713e-08 0)
(5.02008e-05 7.59059e-08 0)
(5.0188e-05 9.31088e-08 0)
(5.01713e-05 1.10522e-07 0)
(5.01536e-05 1.28085e-07 0)
(5.01327e-05 1.46103e-07 0)
(5.01116e-05 1.63385e-07 0)
(5.00885e-05 1.82187e-07 0)
(5.0066e-05 1.97629e-07 0)
(5.00459e-05 2.16725e-07 0)
(5.00274e-05 2.28476e-07 0)
(5.00174e-05 2.4477e-07 0)
(5.00166e-05 2.53613e-07 0)
(5.02282e-05 1.10953e-08 0)
(5.02644e-05 2.46805e-08 0)
(5.02574e-05 4.0329e-08 0)
(5.02496e-05 5.64191e-08 0)
(5.0237e-05 7.27946e-08 0)
(5.02232e-05 8.97224e-08 0)
(5.02052e-05 1.06877e-07 0)
(5.01858e-05 1.24676e-07 0)
(5.01625e-05 1.42816e-07 0)
(5.01387e-05 1.60922e-07 0)
(5.01115e-05 1.80247e-07 0)
(5.00844e-05 1.96627e-07 0)
(5.00576e-05 2.16565e-07 0)
(5.0031e-05 2.27304e-07 0)
(5.0013e-05 2.44466e-07 0)
(5.00035e-05 2.49913e-07 0)
(5.02661e-05 1.05701e-08 0)
(5.03025e-05 2.19478e-08 0)
(5.02951e-05 3.59066e-08 0)
(5.02869e-05 5.0381e-08 0)
(5.02738e-05 6.516e-08 0)
(5.0259e-05 8.07386e-08 0)
(5.02399e-05 9.65213e-08 0)
(5.02189e-05 1.13427e-07 0)
(5.01936e-05 1.30499e-07 0)
(5.01669e-05 1.48395e-07 0)
(5.01355e-05 1.67058e-07 0)
(5.01033e-05 1.83896e-07 0)
(5.00684e-05 2.03614e-07 0)
(5.00325e-05 2.13551e-07 0)
(5.00051e-05 2.32676e-07 0)
(4.99829e-05 2.33534e-07 0)
(5.03043e-05 9.39658e-09 0)
(5.03392e-05 1.7525e-08 0)
(5.03316e-05 2.87048e-08 0)
(5.03231e-05 4.0413e-08 0)
(5.03095e-05 5.2385e-08 0)
(5.0294e-05 6.53245e-08 0)
(5.02739e-05 7.83518e-08 0)
(5.02515e-05 9.28765e-08 0)
(5.02243e-05 1.07354e-07 0)
(5.01951e-05 1.23637e-07 0)
(5.01597e-05 1.40297e-07 0)
(5.01222e-05 1.5711e-07 0)
(5.00784e-05 1.75602e-07 0)
(5.00331e-05 1.86934e-07 0)
(4.99948e-05 2.07649e-07 0)
(4.99522e-05 2.01154e-07 0)
(5.03411e-05 7.49972e-09 0)
(5.03729e-05 1.12203e-08 0)
(5.03651e-05 1.84097e-08 0)
(5.03562e-05 2.60716e-08 0)
(5.03421e-05 3.39119e-08 0)
(5.03259e-05 4.28189e-08 0)
(5.0305e-05 5.1637e-08 0)
(5.02811e-05 6.22522e-08 0)
(5.02523e-05 7.26796e-08 0)
(5.0221e-05 8.58345e-08 0)
(5.01825e-05 9.90784e-08 0)
(5.01401e-05 1.14851e-07 0)
(5.00883e-05 1.31129e-07 0)
(5.00334e-05 1.45394e-07 0)
(4.99759e-05 1.60408e-07 0)
(4.99032e-05 1.4081e-07 0)
(5.03749e-05 4.79847e-09 0)
(5.04014e-05 3.1539e-09 0)
(5.03933e-05 5.2555e-09 0)
(5.03839e-05 7.75572e-09 0)
(5.03694e-05 1.04086e-08 0)
(5.03523e-05 1.43034e-08 0)
(5.03307e-05 1.81359e-08 0)
(5.03058e-05 2.44169e-08 0)
(5.02769e-05 3.02933e-08 0)
(5.02451e-05 3.85746e-08 0)
(5.02055e-05 4.53482e-08 0)
(5.016e-05 5.50415e-08 0)
(5.01003e-05 6.29748e-08 0)
(5.0029e-05 6.96323e-08 0)
(4.99379e-05 6.71826e-08 0)
(4.98263e-05 3.33944e-08 0)
(5.04034e-05 1.34018e-09 0)
(5.04233e-05 -5.47771e-09 0)
(5.04152e-05 -8.81924e-09 0)
(5.04061e-05 -1.19687e-08 0)
(5.03921e-05 -1.51643e-08 0)
(5.03755e-05 -1.73956e-08 0)
(5.03545e-05 -2.02589e-08 0)
(5.03291e-05 -2.09227e-08 0)
(5.02969e-05 -2.37912e-08 0)
(5.02603e-05 -2.65623e-08 0)
(5.02154e-05 -3.46829e-08 0)
(5.01624e-05 -4.18712e-08 0)
(5.00921e-05 -5.66318e-08 0)
(5.00017e-05 -7.24393e-08 0)
(4.9876e-05 -9.77155e-08 0)
(4.97244e-05 -1.39514e-07 0)
(5.04253e-05 -2.3629e-09 0)
(5.04418e-05 -1.56896e-08 0)
(5.04326e-05 -2.58271e-08 0)
(5.04217e-05 -3.66469e-08 0)
(5.04055e-05 -4.86587e-08 0)
(5.03858e-05 -6.14783e-08 0)
(5.03611e-05 -7.71217e-08 0)
(5.03311e-05 -9.412e-08 0)
(5.02922e-05 -1.16113e-07 0)
(5.02459e-05 -1.39493e-07 0)
(5.01901e-05 -1.70766e-07 0)
(5.01238e-05 -2.02286e-07 0)
(5.00386e-05 -2.44211e-07 0)
(4.99324e-05 -2.83323e-07 0)
(4.97858e-05 -3.30509e-07 0)
(4.96064e-05 -3.76064e-07 0)
(5.0444e-05 -6.72998e-09 0)
(5.04405e-05 -3.38765e-08 0)
(5.04283e-05 -5.62382e-08 0)
(5.04128e-05 -8.05899e-08 0)
(5.03908e-05 -1.0788e-07 0)
(5.03633e-05 -1.38027e-07 0)
(5.03295e-05 -1.73011e-07 0)
(5.02888e-05 -2.11811e-07 0)
(5.02401e-05 -2.56923e-07 0)
(5.01826e-05 -3.04312e-07 0)
(5.01152e-05 -3.59921e-07 0)
(5.00358e-05 -4.1544e-07 0)
(4.99386e-05 -4.81002e-07 0)
(4.98199e-05 -5.39924e-07 0)
(4.96621e-05 -6.07155e-07 0)
(4.94695e-05 -6.58583e-07 0)
(5.04438e-05 -1.44812e-08 0)
(5.03964e-05 -6.24637e-08 0)
(5.03803e-05 -1.03318e-07 0)
(5.03587e-05 -1.47048e-07 0)
(5.03291e-05 -1.9467e-07 0)
(5.02925e-05 -2.46081e-07 0)
(5.02487e-05 -3.02873e-07 0)
(5.01972e-05 -3.6381e-07 0)
(5.0138e-05 -4.30985e-07 0)
(5.00695e-05 -5.00405e-07 0)
(4.99916e-05 -5.77057e-07 0)
(4.99013e-05 -6.52098e-07 0)
(4.97952e-05 -7.3528e-07 0)
(4.96687e-05 -8.07736e-07 0)
(4.95095e-05 -8.86516e-07 0)
(4.93189e-05 -9.37243e-07 0)
(5.04013e-05 -2.66814e-08 0)
(5.02971e-05 -9.87389e-08 0)
(5.02772e-05 -1.62278e-07 0)
(5.02497e-05 -2.28713e-07 0)
(5.0213e-05 -2.98669e-07 0)
(5.0168e-05 -3.71935e-07 0)
(5.01152e-05 -4.49621e-07 0)
(5.00544e-05 -5.30543e-07 0)
(4.99863e-05 -6.16439e-07 0)
(4.99093e-05 -7.03525e-07 0)
(4.9824e-05 -7.95902e-07 0)
(4.97271e-05 -8.84622e-07 0)
(4.96181e-05 -9.78676e-07 0)
(4.94914e-05 -1.05793e-06 0)
(4.93413e-05 -1.14019e-06 0)
(4.91665e-05 -1.18548e-06 0)
(5.03036e-05 -4.22021e-08 0)
(5.01348e-05 -1.37215e-07 0)
(5.01125e-05 -2.24254e-07 0)
(5.00813e-05 -3.13481e-07 0)
(5.004e-05 -4.04837e-07 0)
(4.99897e-05 -4.98012e-07 0)
(4.99313e-05 -5.93652e-07 0)
(4.98647e-05 -6.90796e-07 0)
(4.97911e-05 -7.90801e-07 0)
(4.97093e-05 -8.90381e-07 0)
(4.9621e-05 -9.9288e-07 0)
(4.95227e-05 -1.08977e-06 0)
(4.94168e-05 -1.18909e-06 0)
(4.92974e-05 -1.27071e-06 0)
(4.91651e-05 -1.3526e-06 0)
(4.90156e-05 -1.39302e-06 0)
(5.01426e-05 -5.8707e-08 0)
(4.99129e-05 -1.71279e-07 0)
(4.98903e-05 -2.7885e-07 0)
(4.98581e-05 -3.87677e-07 0)
(4.98156e-05 -4.96935e-07 0)
(4.9764e-05 -6.06264e-07 0)
(4.9704e-05 -7.15848e-07 0)
(4.96359e-05 -8.25026e-07 0)
(4.95612e-05 -9.34704e-07 0)
(4.94791e-05 -1.04226e-06 0)
(4.93922e-05 -1.15033e-06 0)
(4.92976e-05 -1.25129e-06 0)
(4.92001e-05 -1.35211e-06 0)
(4.90941e-05 -1.43385e-06 0)
(4.89853e-05 -1.51389e-06 0)
(4.88676e-05 -1.55124e-06 0)
(4.99212e-05 -7.33515e-08 0)
(4.96438e-05 -1.95401e-07 0)
(4.96225e-05 -3.17487e-07 0)
(4.95919e-05 -4.40189e-07 0)
(4.95514e-05 -5.62034e-07 0)
(4.95018e-05 -6.82644e-07 0)
(4.94441e-05 -8.01721e-07 0)
(4.93785e-05 -9.18846e-07 0)
(4.93068e-05 -1.03439e-06 0)
(4.92284e-05 -1.14644e-06 0)
(4.9147e-05 -1.25686e-06 0)
(4.90604e-05 -1.35934e-06 0)
(4.89755e-05 -1.45955e-06 0)
(4.88872e-05 -1.54071e-06 0)
(4.88058e-05 -1.61872e-06 0)
(4.8724e-05 -1.6551e-06 0)
(4.96518e-05 -8.37378e-08 0)
(4.93458e-05 -2.06476e-07 0)
(4.93267e-05 -3.35343e-07 0)
(4.9299e-05 -4.64765e-07 0)
(4.92624e-05 -5.92855e-07 0)
(4.92172e-05 -7.19262e-07 0)
(4.91643e-05 -8.43203e-07 0)
(4.9104e-05 -9.64387e-07 0)
(4.90383e-05 -1.08257e-06 0)
(4.89669e-05 -1.19645e-06 0)
(4.8894e-05 -1.30706e-06 0)
(4.88185e-05 -1.40953e-06 0)
(4.8749e-05 -1.5081e-06 0)
(4.86814e-05 -1.58882e-06 0)
(4.86296e-05 -1.66533e-06 0)
(4.85857e-05 -1.70311e-06 0)
(4.9353e-05 -8.8509e-08 0)
(4.90389e-05 -2.04321e-07 0)
(4.9022e-05 -3.32087e-07 0)
(4.89975e-05 -4.60853e-07 0)
(4.8965e-05 -5.88603e-07 0)
(4.89248e-05 -7.1508e-07 0)
(4.88777e-05 -8.39106e-07 0)
(4.88242e-05 -9.60453e-07 0)
(4.8766e-05 -1.07823e-06 0)
(4.87035e-05 -1.19167e-06 0)
(4.8641e-05 -1.30082e-06 0)
(4.85786e-05 -1.40227e-06 0)
(4.8526e-05 -1.49862e-06 0)