/*--------------------------------*- C++ -*----------------------------------*\
| =========                 |                                                 |
| \\      /  F ield         | foam-extend: Open Source CFD                    |
|  \\    /   O peration     | Version:     4.1-20200408                       |
|   \\  /    A nd           | Web:         http://www.foam-extend.org         |
|    \\/     M anipulation  |                                                 |
\*---------------------------------------------------------------------------*/
FoamFile
{
    version     2.0;
    format      ascii;
    class       volScalarField;
    location    "0.0580000";
    object      rho;
}
// * * * * * * * * * * * * * * * * * * * * * * * * * * * * * * * * * * * * * //

dimensions      [1 -3 0 0 0 0 0];

internalField   nonuniform List<scalar> 
1952
(
7861.1
7860.03
7858.51
7856.74
7854.55
7852.11
7849.24
7845.87
7842.23
7837.68
7832.52
7825.22
7817.42
7808.81
7803.23
7861.59
7860.78
7859.71
7858.18
7856.4
7854.21
7851.77
7848.88
7845.52
7841.87
7837.32
7832.15
7824.88
7817.08
7808.5
7802.94
7861.27
7860.62
7859.55
7858.02
7856.24
7854.05
7851.61
7848.72
7845.36
7841.72
7837.18
7832.02
7824.76
7816.99
7808.46
7802.96
7861.11
7860.48
7859.41
7857.88
7856.11
7853.92
7851.48
7848.59
7845.24
7841.6
7837.07
7831.92
7824.68
7816.93
7808.42
7802.95
7860.97
7860.36
7859.29
7857.76
7855.99
7853.8
7851.36
7848.48
7845.14
7841.5
7836.98
7831.84
7824.61
7816.88
7808.4
7802.96
7860.85
7860.26
7859.19
7857.66
7855.89
7853.7
7851.27
7848.39
7845.05
7841.43
7836.91
7831.78
7824.56
7816.84
7808.38
7802.96
7860.75
7860.17
7859.1
7857.57
7855.8
7853.62
7851.18
7848.31
7844.98
7841.36
7836.85
7831.72
7824.52
7816.81
7808.36
7802.96
7860.66
7860.1
7859.02
7857.5
7855.73
7853.55
7851.11
7848.24
7844.91
7841.3
7836.79
7831.67
7824.48
7816.78
7808.34
7802.96
7860.58
7860.03
7858.96
7857.43
7855.67
7853.48
7851.05
7848.18
7844.86
7841.25
7836.75
7831.63
7824.44
7816.75
7808.33
7802.95
7860.52
7859.97
7858.9
7857.37
7855.61
7853.43
7851
7848.12
7844.81
7841.2
7836.7
7831.59
7824.41
7816.72
7808.31
7802.94
7860.46
7859.92
7858.85
7857.32
7855.56
7853.38
7850.95
7848.08
7844.76
7841.16
7836.67
7831.55
7824.38
7816.69
7808.29
7802.93
7860.41
7859.87
7858.8
7857.28
7855.52
7853.33
7850.91
7848.03
7844.72
7841.13
7836.63
7831.52
7824.35
7816.66
7808.26
7802.91
7860.37
7859.84
7858.76
7857.24
7855.48
7853.3
7850.87
7848
7844.69
7841.09
7836.6
7831.48
7824.32
7816.63
7808.24
7802.88
7860.33
7859.8
7858.73
7857.2
7855.45
7853.26
7850.84
7847.96
7844.65
7841.06
7836.56
7831.44
7824.28
7816.6
7808.21
7802.86
7860.29
7859.77
7858.7
7857.17
7855.41
7853.23
7850.8
7847.92
7844.62
7841.03
7836.53
7831.41
7824.25
7816.56
7808.18
7802.83
7860.27
7859.75
7858.67
7857.15
7855.39
7853.2
7850.77
7847.89
7844.59
7840.99
7836.49
7831.37
7824.21
7816.53
7808.14
7802.8
7860.24
7859.72
7858.64
7857.12
7855.36
7853.17
7850.74
7847.86
7844.56
7840.96
7836.46
7831.33
7824.17
7816.49
7808.11
7802.76
7860.22
7859.7
7858.62
7857.1
7855.34
7853.15
7850.71
7847.83
7844.52
7840.92
7836.42
7831.29
7824.13
7816.44
7808.07
7802.73
7860.19
7859.68
7858.6
7857.08
7855.31
7853.12
7850.68
7847.79
7844.49
7840.89
7836.39
7831.25
7824.09
7816.4
7808.02
7802.68
7860.18
7859.66
7858.58
7857.06
7855.29
7853.1
7850.66
7847.76
7844.46
7840.86
7836.35
7831.2
7824.05
7816.35
7807.98
7802.64
7860.16
7859.65
7858.56
7857.04
7855.27
7853.07
7850.63
7847.73
7844.43
7840.82
7836.31
7831.16
7824
7816.3
7807.93
7802.59
7860.15
7859.64
7858.55
7857.03
7855.26
7853.06
7850.61
7847.71
7844.4
7840.79
7836.27
7831.11
7823.96
7816.25
7807.88
7802.53
7860.14
7859.63
7858.54
7857.01
7855.24
7853.04
7850.59
7847.68
7844.37
7840.75
7836.23
7831.06
7823.91
7816.19
7807.82
7802.48
7860.13
7859.63
7858.54
7857.01
7855.23
7853.02
7850.57
7847.65
7844.34
7840.72
7836.19
7831.01
7823.85
7816.13
7807.76
7802.41
7860.13
7859.64
7858.54
7857.01
7855.23
7853.01
7850.56
7847.63
7844.32
7840.68
7836.15
7830.96
7823.8
7816.07
7807.7
7802.34
7860.13
7859.65
7858.55
7857.01
7855.23
7853.01
7850.55
7847.61
7844.29
7840.65
7836.11
7830.91
7823.74
7816
7807.63
7802.27
7860.15
7859.67
7858.56
7857.03
7855.24
7853.01
7850.54
7847.6
7844.27
7840.62
7836.08
7830.86
7823.69
7815.93
7807.56
7802.19
7860.17
7859.7
7858.59
7857.05
7855.26
7853.02
7850.55
7847.59
7844.26
7840.6
7836.04
7830.81
7823.63
7815.86
7807.48
7802.1
7860.2
7859.75
7858.63
7857.09
7855.29
7853.05
7850.56
7847.59
7844.26
7840.58
7836.01
7830.76
7823.57
7815.78
7807.4
7802
7860.25
7859.81
7858.69
7857.15
7855.34
7853.09
7850.59
7847.61
7844.26
7840.57
7835.99
7830.71
7823.51
7815.7
7807.31
7801.9
7860.32
7859.9
7858.78
7857.22
7855.41
7853.15
7850.64
7847.64
7844.28
7840.57
7835.97
7830.67
7823.45
7815.62
7807.21
7801.78
7860.4
7860.01
7858.88
7857.32
7855.5
7853.22
7850.71
7847.69
7844.32
7840.58
7835.97
7830.64
7823.4
7815.54
7807.12
7801.66
7860.52
7860.14
7859.02
7857.45
7855.62
7853.33
7850.8
7847.76
7844.37
7840.62
7835.98
7830.62
7823.36
7815.46
7807.02
7801.53
7860.66
7860.32
7859.19
7857.61
7855.78
7853.47
7850.92
7847.86
7844.46
7840.67
7836.01
7830.61
7823.33
7815.39
7806.92
7801.39
7860.83
7860.53
7859.39
7857.81
7855.97
7853.65
7851.09
7848
7844.58
7840.76
7836.08
7830.63
7823.32
7815.33
7806.83
7801.24
7861.05
7860.79
7859.65
7858.06
7856.21
7853.87
7851.3
7848.19
7844.74
7840.89
7836.17
7830.68
7823.33
7815.28
7806.74
7801.1
7861.31
7861.1
7859.96
7858.36
7856.5
7854.15
7851.56
7848.42
7844.96
7841.07
7836.32
7830.77
7823.38
7815.26
7806.67
7800.95
7861.62
7861.46
7860.32
7858.72
7856.85
7854.48
7851.88
7848.72
7845.23
7841.31
7836.52
7830.91
7823.48
7815.27
7806.63
7800.81
7861.99
7861.89
7860.75
7859.14
7857.27
7854.9
7852.28
7849.1
7845.59
7841.63
7836.8
7831.12
7823.63
7815.34
7806.62
7800.69
7862.42
7862.38
7861.25
7859.63
7857.77
7855.38
7852.76
7849.56
7846.03
7842.04
7837.17
7831.43
7823.88
7815.47
7806.67
7800.6
7862.91
7862.94
7861.82
7860.2
7858.34
7855.96
7853.33
7850.13
7846.58
7842.56
7837.66
7831.84
7824.23
7815.7
7806.8
7800.55
7863.46
7863.55
7862.45
7860.84
7859
7856.62
7854.01
7850.81
7847.26
7843.23
7838.29
7832.41
7824.73
7816.06
7807.04
7800.57
7864.08
7864.22
7863.13
7861.54
7859.73
7857.38
7854.79
7851.61
7848.08
7844.05
7839.1
7833.17
7825.43
7816.6
7807.45
7800.7
7864.74
7864.93
7863.87
7862.3
7860.53
7858.22
7855.67
7852.55
7849.06
7845.07
7840.14
7834.18
7826.39
7817.41
7808.08
7800.97
7865.44
7865.65
7864.62
7863.1
7861.38
7859.14
7856.67
7853.63
7850.21
7846.31
7841.43
7835.5
7827.71
7818.59
7809.08
7801.45
7866.15
7866.34
7865.36
7863.89
7862.25
7860.11
7857.74
7854.83
7851.54
7847.78
7843.01
7837.2
7829.49
7820.32
7810.72
7802.54
7866.83
7866.96
7866.04
7864.64
7863.1
7861.09
7858.85
7856.13
7853.01
7849.49
7844.93
7839.36
7831.89
7822.92
7813.59
7805.37
7867.43
7867.44
7866.59
7865.28
7863.86
7862.02
7859.96
7857.48
7854.59
7851.4
7847.13
7841.98
7834.93
7826.48
7817.88
7810.53
7867.9
7867.7
7866.93
7865.73
7864.46
7862.81
7860.97
7858.78
7856.19
7853.41
7849.52
7844.9
7838.35
7830.54
7822.72
7816.08
7868.14
7867.65
7866.98
7865.89
7864.8
7863.36
7861.78
7859.93
7857.69
7855.4
7851.96
7848.01
7842.02
7835
7827.97
7821.86
7868.06
7867.18
7866.6
7865.65
7864.75
7863.56
7862.26
7860.8
7858.96
7857.23
7854.3
7851.15
7845.79
7839.78
7833.44
7827.8
7867.55
7866.16
7865.68
7864.88
7864.18
7863.26
7862.27
7861.23
7859.83
7858.72
7856.38
7854.16
7849.52
7844.87
7839.1
7834.01
7866.5
7864.45
7864.09
7863.44
7862.95
7862.3
7861.65
7861.04
7860.14
7859.68
7858.01
7856.8
7853.07
7850.02
7845.01
7840.68
7864.76
7861.93
7861.69
7861.19
7860.93
7860.56
7860.25
7860.06
7859.6
7859.69
7858.67
7858.54
7856.13
7854.9
7850.94
7848.08
7862.2
7858.48
7858.36
7857.98
7857.88
7857.7
7857.67
7857.9
7858.01
7858.76
7858.52
7859.52
7858.42
7859.01
7856.43
7856.17
7858.72
7853.73
7853.74
7853.56
7853.74
7853.91
7854.34
7855.13
7855.96
7857.51
7858.19
7860.23
7860.22
7862.64
7861.58
7864.45
7853.93
7848.09
7848.4
7848.63
7849.33
7850.12
7851.24
7852.7
7854.21
7856.51
7858.07
7861.12
7862.15
7866.1
7866.39
7872.23
7848.19
7843.04
7843.69
7844.38
7845.61
7847.03
7848.8
7850.93
7853.09
7855.99
7858.27
7862.07
7863.99
7869.11
7870.53
7878.63
7842.98
7839.23
7840.16
7841.24
7842.88
7844.76
7847.02
7849.63
7852.32
7855.7
7858.57
7862.92
7865.58
7871.54
7873.89
7883.51
7839.01
7836.68
7837.76
7839.09
7841.01
7843.21
7845.82
7848.77
7851.88
7855.57
7858.92
7863.61
7866.86
7873.3
7876.38
7886.88
7836.34
7835.32
7836.46
7837.94
7840
7842.39
7845.22
7848.36
7851.75
7855.62
7859.3
7864.13
7867.82
7874.4
7878
7888.75
7834.9
7835.04
7836.18
7837.72
7839.84
7842.29
7845.23
7848.43
7851.96
7855.86
7859.74
7864.52
7868.46
7874.88
7878.78
7889.22
7834.56
7835.74
7836.85
7838.38
7840.48
7842.91
7845.84
7848.99
7852.53
7856.31
7860.24
7864.79
7868.82
7874.78
7878.76
7888.35
7835.24
7837.35
7838.4
7839.87
7841.88
7844.19
7847.02
7850.01
7853.45
7857
7860.84
7864.99
7868.94
7874.17
7877.98
7886.22
7836.88
7839.84
7840.78
7842.12
7843.97
7846.09
7848.73
7851.47
7854.71
7857.92
7861.54
7865.15
7868.83
7873.1
7876.5
7882.98
7839.41
7843.13
7843.94
7845.09
7846.71
7848.56
7850.92
7853.32
7856.26
7859.05
7862.34
7865.3
7868.54
7871.63
7874.37
7878.76
7842.77
7847.13
7847.79
7848.71
7850.06
7851.57
7853.58
7855.58
7858.13
7860.41
7863.25
7865.45
7868.08
7869.82
7871.7
7873.78
7846.85
7851.68
7852.21
7852.91
7853.97
7855.13
7856.73
7858.26
7860.34
7862.05
7864.32
7865.65
7867.49
7867.72
7868.54
7868.27
7851.47
7856.58
7857.01
7857.53
7858.36
7859.2
7860.41
7861.47
7863.02
7864.07
7865.66
7866.01
7866.85
7865.42
7865.03
7862.52
7856.42
7861.64
7862
7862.4
7863.08
7863.69
7864.59
7865.23
7866.26
7866.62
7867.41
7866.65
7866.26
7863.04
7861.33
7856.85
7861.5
7866.63
7866.96
7867.28
7867.85
7868.3
7869
7869.37
7869.98
7869.74
7869.71
7867.77
7865.94
7860.84
7857.77
7851.62
7866.51
7871.37
7871.69
7871.95
7872.45
7872.81
7873.44
7873.79
7874.23
7873.57
7872.79
7869.62
7866.16
7859.2
7854.85
7847.28
7871.26
7876.33
7876.67
7876.96
7877.46
7877.77
7878.3
7878.26
7878.04
7876.51
7874.61
7870.31
7865.77
7858.14
7852.83
7844.27
7876.21
7880.2
7880.37
7880.43
7880.54
7880.27
7879.87
7878.68
7877.3
7874.73
7871.97
7867.49
7863.2
7856.27
7851.45
7842.68
7880.13
7879.27
7879.06
7878.62
7878.03
7877.06
7875.77
7873.96
7872.04
7869.29
7866.53
7862.56
7859.11
7853.4
7849.66
7842.17
7879.35
7874.8
7874.43
7873.8
7872.95
7871.78
7870.4
7868.76
7866.95
7864.46
7861.9
7858.35
7855.09
7850.5
7847.13
7841.8
7874.93
7870.26
7869.91
7869.34
7868.57
7867.51
7866.23
7864.58
7862.78
7860.44
7858.05
7854.91
7851.98
7848.11
7844.72
7840.76
7870.39
7866.3
7865.91
7865.34
7864.54
7863.51
7862.27
7860.74
7859.06
7856.94
7854.76
7851.99
7849.36
7846.04
7843.08
7839.46
7866.43
7862.65
7862.28
7861.74
7860.99
7860.03
7858.88
7857.46
7855.9
7853.97
7852
7849.57
7847.23
7844.37
7841.76
7838.62
7862.77
7859.4
7859.03
7858.53
7857.82
7856.93
7855.86
7854.56
7853.14
7851.42
7849.65
7847.52
7845.46
7843
7840.75
7838.05
7859.51
7856.48
7856.13
7855.67
7855.01
7854.2
7853.23
7852.06
7850.77
7849.24
7847.67
7845.81
7844.01
7841.9
7839.96
7837.66
7856.59
7853.88
7853.56
7853.14
7852.53
7851.8
7850.92
7849.87
7848.72
7847.37
7845.98
7844.37
7842.8
7840.99
7839.34
7837.38
7853.98
7851.58
7851.28
7850.9
7850.35
7849.7
7848.9
7847.97
7846.95
7845.76
7844.55
7843.15
7841.8
7840.25
7838.84
7837.19
7851.67
7849.54
7849.26
7848.93
7848.43
7847.85
7847.14
7846.32
7845.41
7844.38
7843.32
7842.12
7840.95
7839.64
7838.44
7837.05
7849.62
7847.74
7847.49
7847.19
7846.74
7846.23
7845.6
7844.88
7844.09
7843.19
7842.27
7841.23
7840.24
7839.12
7838.11
7836.93
7847.81
7846.15
7845.92
7845.66
7845.26
7844.81
7844.26
7843.63
7842.93
7842.16
7841.36
7840.48
7839.63
7838.68
7837.83
7836.83
7846.21
7844.74
7844.54
7844.31
7843.96
7843.57
7843.08
7842.53
7841.93
7841.26
7840.58
7839.82
7839.09
7838.29
7837.58
7836.74
7844.8
7843.5
7843.32
7843.12
7842.81
7842.47
7842.05
7841.57
7841.05
7840.48
7839.89
7839.24
7838.63
7837.95
7837.35
7836.64
7843.55
7842.41
7842.25
7842.08
7841.8
7841.51
7841.14
7840.73
7840.28
7839.79
7839.28
7838.74
7838.21
7837.64
7837.14
7836.54
7842.45
7841.44
7841.3
7841.15
7840.91
7840.66
7840.34
7839.99
7839.6
7839.18
7838.75
7838.28
7837.84
7837.36
7836.93
7836.42
7841.48
7840.58
7840.46
7840.33
7840.12
7839.9
7839.63
7839.33
7838.99
7838.63
7838.27
7837.87
7837.5
7837.09
7836.73
7836.3
7840.61
7839.82
7839.71
7839.6
7839.42
7839.23
7838.99
7838.74
7838.45
7838.14
7837.83
7837.5
7837.18
7836.84
7836.54
7836.17
7839.85
7839.14
7839.04
7838.95
7838.8
7838.63
7838.43
7838.21
7837.96
7837.7
7837.44
7837.15
7836.89
7836.6
7836.34
7836.02
7839.17
7838.54
7838.45
7838.37
7838.24
7838.1
7837.92
7837.73
7837.52
7837.3
7837.07
7836.83
7836.61
7836.37
7836.14
7835.87
7838.55
7837.99
7837.92
7837.85
7837.73
7837.61
7837.46
7837.3
7837.12
7836.93
7836.74
7836.54
7836.34
7836.14
7835.95
7835.71
7838.01
7837.5
7837.43
7837.38
7837.28
7837.17
7837.04
7836.91
7836.75
7836.59
7836.43
7836.26
7836.09
7835.92
7835.75
7835.54
7837.51
7837.05
7837
7836.95
7836.86
7836.78
7836.66
7836.55
7836.41
7836.28
7836.14
7835.99
7835.85
7835.7
7835.56
7835.36
7837.07
7836.65
7836.6
7836.56
7836.48
7836.41
7836.31
7836.21
7836.1
7835.98
7835.86
7835.73
7835.62
7835.49
7835.36
7835.19
7836.66
7836.28
7836.24
7836.2
7836.14
7836.07
7835.99
7835.9
7835.81
7835.7
7835.6
7835.49
7835.39
7835.28
7835.16
7835.01
7836.29
7835.94
7835.91
7835.87
7835.82
7835.76
7835.69
7835.61
7835.53
7835.44
7835.35
7835.26
7835.17
7835.07
7834.97
7834.83
7835.95
7835.63
7835.6
7835.57
7835.52
7835.47
7835.41
7835.35
7835.27
7835.2
7835.12
7835.03
7834.96
7834.87
7834.78
7834.64
7835.64
7835.34
7835.32
7835.29
7835.25
7835.21
7835.15
7835.09
7835.03
7834.96
7834.89
7834.82
7834.75
7834.67
7834.59
7834.46
7835.35
7835.08
7835.05
7835.03
7834.99
7834.95
7834.9
7834.85
7834.8
7834.74
7834.68
7834.61
7834.55
7834.48
7834.4
7834.28
7835.08
7834.83
7834.81
7834.79
7834.75
7834.72
7834.67
7834.63
7834.58
7834.52
7834.47
7834.41
7834.35
7834.29
7834.21
7834.1
7834.83
7834.6
7834.58
7834.56
7834.53
7834.5
7834.46
7834.42
7834.37
7834.32
7834.27
7834.22
7834.16
7834.1
7834.03
7833.92
7834.6
7834.38
7834.36
7834.35
7834.32
7834.29
7834.25
7834.22
7834.17
7834.13
7834.08
7834.03
7833.98
7833.92
7833.85
7833.74
7834.39
7834.18
7834.16
7834.15
7834.12
7834.1
7834.06
7834.03
7833.99
7833.94
7833.9
7833.85
7833.8
7833.75
7833.68
7833.57
7834.18
7833.99
7833.98
7833.96
7833.94
7833.91
7833.88
7833.85
7833.81
7833.77
7833.72
7833.68
7833.63
7833.57
7833.51
7833.4
7833.99
7833.82
7833.8
7833.79
7833.77
7833.74
7833.71
7833.68
7833.64
7833.6
7833.56
7833.51
7833.46
7833.41
7833.34
7833.23
7833.82
7833.65
7833.64
7833.63
7833.6
7833.58
7833.55
7833.52
7833.48
7833.44
7833.4
7833.35
7833.3
7833.25
7833.18
7833.07
7833.66
7833.5
7833.49
7833.48
7833.45
7833.43
7833.4
7833.37
7833.33
7833.29
7833.25
7833.2
7833.15
7833.09
7833.02
7832.91
7833.5
7833.36
7833.35
7833.34
7833.32
7833.29
7833.26
7833.23
7833.19
7833.15
7833.11
7833.06
7833.01
7832.95
7832.87
7832.75
7833.36
7833.23
7833.22
7833.21
7833.19
7833.16
7833.14
7833.1
7833.07
7833.02
7832.98
7832.93
7832.87
7832.81
7832.73
7832.61
7833.24
7833.12
7833.11
7833.09
7833.07
7833.05
7833.02
7832.99
7832.95
7832.91
7832.86
7832.8
7832.75
7832.68
7832.59
7832.46
7833.12
7833.01
7833
7832.99
7832.97
7832.94
7832.92
7832.88
7832.84
7832.8
7832.75
7832.69
7832.63
7832.56
7832.46
7832.32
7833.01
7832.92
7832.91
7832.89
7832.87
7832.85
7832.82
7832.79
7832.75
7832.7
7832.65
7832.59
7832.53
7832.45
7832.34
7832.2
7832.92
7832.83
7832.82
7832.81
7832.79
7832.77
7832.74
7832.71
7832.67
7832.62
7832.57
7832.51
7832.44
7832.35
7832.24
7832.08
7832.84
7832.76
7832.75
7832.74
7832.72
7832.7
7832.67
7832.64
7832.6
7832.56
7832.5
7832.44
7832.37
7832.28
7832.15
7831.97
7832.76
7832.7
7832.69
7832.68
7832.66
7832.64
7832.61
7832.58
7832.55
7832.5
7832.45
7832.39
7832.32
7832.22
7832.09
7831.89
7832.7
7832.65
7832.64
7832.63
7832.61
7832.59
7832.57
7832.54
7832.51
7832.47
7832.42
7832.36
7832.29
7832.2
7832.06
7831.85
7832.65
7832.6
7832.59
7832.58
7832.57
7832.55
7832.53
7832.5
7832.48
7832.44
7832.4
7832.35
7832.3
7832.23
7832.13
7831.97
7832.6
7832.57
7832.57
7832.56
7832.55
7832.53
7832.52
7832.49
7832.47
7832.44
7832.4
7832.36
7832.32
7832.27
7832.2
7832.09
7832.58
)
;

boundaryField
{
    wireUpstream
    {
        type            calculated;
        value           nonuniform List<scalar> 
16
(
7832.55
7832.55
7832.54
7832.53
7832.51
7832.5
7832.48
7832.46
7832.43
7832.4
7832.37
7832.33
7832.29
7832.26
7832.24
7832.55
)
;
    }
    wireDownstream
    {
        type            calculated;
        value           nonuniform List<scalar> 
16
(
7861.09
7860.03
7858.51
7856.73
7854.55
7852.11
7849.24
7845.88
7842.25
7837.71
7832.57
7825.3
7817.56
7809.07
7803.73
7861.59
)
;
    }
    wireTopContact
    {
        type            calculated;
        value           nonuniform List<scalar> 
122
(
7802.43
7802.45
7802.43
7802.44
7802.44
7802.44
7802.44
7802.43
7802.42
7802.41
7802.39
7802.37
7802.34
7802.31
7802.28
7802.25
7802.21
7802.17
7802.12
7802.07
7802.02
7801.96
7801.9
7801.83
7801.76
7801.68
7801.59
7801.49
7801.39
7801.27
7801.15
7801.02
7800.88
7800.74
7800.6
7800.46
7800.33
7800.22
7800.14
7800.12
7800.17
7800.33
7800.66
7801.23
7802.33
7805.14
7810.52
7816.2
7822.15
7828.23
7834.41
7840.9
7847.94
7855.6
7863.6
7871.24
7877.47
7882.27
7885.65
7887.59
7888.15
7887.4
7885.4
7882.31
7878.25
7873.45
7868.15
7862.65
7857.26
7852.36
7848.32
7845.49
7843.92
7843.08
7841.82
7840.63
7839.43
7838.6
7838.01
7837.61
7837.33
7837.13
7836.99
7836.87
7836.77
7836.68
7836.59
7836.49
7836.38
7836.26
7836.12
7835.98
7835.83
7835.67
7835.51
7835.34
7835.16
7834.99
7834.81
7834.63
7834.45
7834.26
7834.08
7833.91
7833.73
7833.56
7833.39
7833.22
7833.06
7832.9
7832.75
7832.6
7832.45
7832.32
7832.19
7832.07
7831.97
7831.89
7831.85
7831.95
7832.04
7802.66
)
;
    }
    front
    {
        type            wedge;
    }
    back
    {
        type            wedge;
    }
}


// ************************************************************************* //
