/*--------------------------------*- C++ -*----------------------------------*\
| =========                 |                                                 |
| \\      /  F ield         | foam-extend: Open Source CFD                    |
|  \\    /   O peration     | Version:     4.1-20200408                       |
|   \\  /    A nd           | Web:         http://www.foam-extend.org         |
|    \\/     M anipulation  |                                                 |
\*---------------------------------------------------------------------------*/
FoamFile
{
    version     2.0;
    format      ascii;
    class       volScalarField;
    location    "0.0580000";
    object      sigmaY;
}
// * * * * * * * * * * * * * * * * * * * * * * * * * * * * * * * * * * * * * //

dimensions      [1 -1 -2 0 0 0 0];

internalField   nonuniform List<scalar> 
1952
(
1.2794e+09
1.27944e+09
1.27952e+09
1.27962e+09
1.27974e+09
1.27986e+09
1.27996e+09
1.27998e+09
1.27995e+09
1.27974e+09
1.27931e+09
1.27853e+09
1.27749e+09
1.27664e+09
1.27617e+09
1.27937e+09
1.27943e+09
1.27947e+09
1.27955e+09
1.27965e+09
1.27977e+09
1.27989e+09
1.27999e+09
1.28001e+09
1.27998e+09
1.27977e+09
1.27934e+09
1.27856e+09
1.27752e+09
1.27667e+09
1.2762e+09
1.27939e+09
1.27946e+09
1.2795e+09
1.27958e+09
1.27968e+09
1.2798e+09
1.27992e+09
1.28002e+09
1.28004e+09
1.28001e+09
1.2798e+09
1.27937e+09
1.27859e+09
1.27755e+09
1.2767e+09
1.27623e+09
1.27942e+09
1.27949e+09
1.27953e+09
1.27961e+09
1.27971e+09
1.27983e+09
1.27995e+09
1.28005e+09
1.28007e+09
1.28004e+09
1.27983e+09
1.2794e+09
1.27862e+09
1.27758e+09
1.27673e+09
1.27626e+09
1.27945e+09
1.27952e+09
1.27956e+09
1.27964e+09
1.27974e+09
1.27986e+09
1.27998e+09
1.28008e+09
1.2801e+09
1.28007e+09
1.27986e+09
1.27943e+09
1.27865e+09
1.27761e+09
1.27676e+09
1.27629e+09
1.27948e+09
1.27955e+09
1.27959e+09
1.27967e+09
1.27977e+09
1.27989e+09
1.28001e+09
1.28011e+09
1.28013e+09
1.2801e+09
1.27989e+09
1.27946e+09
1.27868e+09
1.27764e+09
1.27678e+09
1.27632e+09
1.27951e+09
1.27958e+09
1.27962e+09
1.2797e+09
1.2798e+09
1.27992e+09
1.28004e+09
1.28014e+09
1.28016e+09
1.28013e+09
1.27992e+09
1.27949e+09
1.27871e+09
1.27767e+09
1.27681e+09
1.27635e+09
1.27954e+09
1.27961e+09
1.27965e+09
1.27973e+09
1.27983e+09
1.27995e+09
1.28007e+09
1.28017e+09
1.28019e+09
1.28016e+09
1.27995e+09
1.27951e+09
1.27874e+09
1.2777e+09
1.27684e+09
1.27638e+09
1.27957e+09
1.27964e+09
1.27968e+09
1.27976e+09
1.27986e+09
1.27998e+09
1.2801e+09
1.2802e+09
1.28022e+09
1.2802e+09
1.27998e+09
1.27954e+09
1.27877e+09
1.27773e+09
1.27687e+09
1.27641e+09
1.2796e+09
1.27967e+09
1.27971e+09
1.27979e+09
1.27989e+09
1.28001e+09
1.28013e+09
1.28023e+09
1.28025e+09
1.28023e+09
1.28001e+09
1.27957e+09
1.2788e+09
1.27776e+09
1.2769e+09
1.27644e+09
1.27963e+09
1.2797e+09
1.27974e+09
1.27982e+09
1.27992e+09
1.28004e+09
1.28016e+09
1.28026e+09
1.28028e+09
1.28026e+09
1.28004e+09
1.2796e+09
1.27883e+09
1.27779e+09
1.27693e+09
1.27647e+09
1.27966e+09
1.27973e+09
1.27977e+09
1.27985e+09
1.27995e+09
1.28007e+09
1.28019e+09
1.28029e+09
1.28031e+09
1.28029e+09
1.28007e+09
1.27963e+09
1.27886e+09
1.27782e+09
1.27696e+09
1.2765e+09
1.27969e+09
1.27976e+09
1.2798e+09
1.27988e+09
1.27998e+09
1.2801e+09
1.28022e+09
1.28032e+09
1.28034e+09
1.28032e+09
1.2801e+09
1.27966e+09
1.27889e+09
1.27785e+09
1.27699e+09
1.27653e+09
1.27972e+09
1.27979e+09
1.27983e+09
1.27991e+09
1.28001e+09
1.28013e+09
1.28024e+09
1.28035e+09
1.28037e+09
1.28035e+09
1.28013e+09
1.27969e+09
1.27892e+09
1.27788e+09
1.27702e+09
1.27656e+09
1.27975e+09
1.27982e+09
1.27986e+09
1.27994e+09
1.28003e+09
1.28016e+09
1.28027e+09
1.28038e+09
1.2804e+09
1.28038e+09
1.28016e+09
1.27972e+09
1.27895e+09
1.27791e+09
1.27705e+09
1.27659e+09
1.27978e+09
1.27985e+09
1.27989e+09
1.27996e+09
1.28006e+09
1.28019e+09
1.2803e+09
1.2804e+09
1.28043e+09
1.28041e+09
1.28019e+09
1.27975e+09
1.27898e+09
1.27793e+09
1.27708e+09
1.27662e+09
1.27981e+09
1.27988e+09
1.27991e+09
1.27999e+09
1.28009e+09
1.28022e+09
1.28033e+09
1.28043e+09
1.28046e+09
1.28044e+09
1.28022e+09
1.27978e+09
1.27901e+09
1.27796e+09
1.27711e+09
1.27664e+09
1.27984e+09
1.27991e+09
1.27994e+09
1.28002e+09
1.28012e+09
1.28025e+09
1.28036e+09
1.28046e+09
1.28049e+09
1.28047e+09
1.28025e+09
1.27981e+09
1.27904e+09
1.27799e+09
1.27714e+09
1.27667e+09
1.27987e+09
1.27994e+09
1.27997e+09
1.28005e+09
1.28015e+09
1.28028e+09
1.28039e+09
1.28049e+09
1.28052e+09
1.2805e+09
1.28028e+09
1.27984e+09
1.27907e+09
1.27802e+09
1.27717e+09
1.2767e+09
1.2799e+09
1.27996e+09
1.28e+09
1.28008e+09
1.28018e+09
1.28031e+09
1.28042e+09
1.28052e+09
1.28055e+09
1.28053e+09
1.28031e+09
1.27987e+09
1.27909e+09
1.27805e+09
1.2772e+09
1.27673e+09
1.27993e+09
1.27999e+09
1.28003e+09
1.28011e+09
1.28021e+09
1.28034e+09
1.28045e+09
1.28055e+09
1.28058e+09
1.28056e+09
1.28034e+09
1.2799e+09
1.27912e+09
1.27808e+09
1.27723e+09
1.27676e+09
1.27995e+09
1.28002e+09
1.28006e+09
1.28014e+09
1.28024e+09
1.28037e+09
1.28048e+09
1.28058e+09
1.28061e+09
1.28059e+09
1.28037e+09
1.27993e+09
1.27915e+09
1.27811e+09
1.27726e+09
1.27679e+09
1.27998e+09
1.28005e+09
1.28009e+09
1.28017e+09
1.28027e+09
1.2804e+09
1.28051e+09
1.28061e+09
1.28064e+09
1.28062e+09
1.2804e+09
1.27996e+09
1.27918e+09
1.27814e+09
1.27729e+09
1.27682e+09
1.28001e+09
1.28008e+09
1.28012e+09
1.2802e+09
1.2803e+09
1.28043e+09
1.28054e+09
1.28064e+09
1.28067e+09
1.28065e+09
1.28043e+09
1.27999e+09
1.27921e+09
1.27817e+09
1.27731e+09
1.27685e+09
1.28004e+09
1.28011e+09
1.28015e+09
1.28023e+09
1.28033e+09
1.28046e+09
1.28057e+09
1.28067e+09
1.2807e+09
1.28068e+09
1.28046e+09
1.28002e+09
1.27924e+09
1.2782e+09
1.27734e+09
1.27688e+09
1.28007e+09
1.28014e+09
1.28018e+09
1.28026e+09
1.28036e+09
1.28049e+09
1.2806e+09
1.2807e+09
1.28073e+09
1.28071e+09
1.28049e+09
1.28005e+09
1.27927e+09
1.27823e+09
1.27737e+09
1.27691e+09
1.2801e+09
1.28017e+09
1.28021e+09
1.28029e+09
1.28039e+09
1.28052e+09
1.28063e+09
1.28073e+09
1.28076e+09
1.28074e+09
1.28052e+09
1.28008e+09
1.2793e+09
1.27826e+09
1.2774e+09
1.27694e+09
1.28013e+09
1.2802e+09
1.28023e+09
1.28032e+09
1.28042e+09
1.28055e+09
1.28066e+09
1.28076e+09
1.28079e+09
1.28077e+09
1.28055e+09
1.2801e+09
1.27933e+09
1.27829e+09
1.27743e+09
1.27697e+09
1.28016e+09
1.28023e+09
1.28026e+09
1.28035e+09
1.28045e+09
1.28058e+09
1.28069e+09
1.28079e+09
1.28082e+09
1.2808e+09
1.28058e+09
1.28013e+09
1.27936e+09
1.27831e+09
1.27746e+09
1.277e+09
1.28019e+09
1.28026e+09
1.28029e+09
1.28038e+09
1.28048e+09
1.28061e+09
1.28072e+09
1.28082e+09
1.28085e+09
1.28083e+09
1.28061e+09
1.28016e+09
1.27939e+09
1.27834e+09
1.27749e+09
1.27703e+09
1.28022e+09
1.28028e+09
1.28032e+09
1.28041e+09
1.28051e+09
1.28064e+09
1.28075e+09
1.28085e+09
1.28088e+09
1.28086e+09
1.28064e+09
1.28019e+09
1.27942e+09
1.27837e+09
1.27752e+09
1.27706e+09
1.28025e+09
1.28031e+09
1.28035e+09
1.28043e+09
1.28054e+09
1.28067e+09
1.28078e+09
1.28088e+09
1.28091e+09
1.28089e+09
1.28067e+09
1.28022e+09
1.27945e+09
1.2784e+09
1.27755e+09
1.27708e+09
1.28027e+09
1.28034e+09
1.28038e+09
1.28046e+09
1.28057e+09
1.28069e+09
1.28081e+09
1.28091e+09
1.28094e+09
1.28092e+09
1.2807e+09
1.28025e+09
1.27948e+09
1.27843e+09
1.27758e+09
1.27711e+09
1.2803e+09
1.28037e+09
1.28041e+09
1.28049e+09
1.2806e+09
1.28072e+09
1.28084e+09
1.28093e+09
1.28097e+09
1.28095e+09
1.28073e+09
1.28028e+09
1.27951e+09
1.27846e+09
1.27761e+09
1.27714e+09
1.28033e+09
1.2804e+09
1.28044e+09
1.28052e+09
1.28062e+09
1.28075e+09
1.28087e+09
1.28096e+09
1.281e+09
1.28098e+09
1.28076e+09
1.28031e+09
1.27954e+09
1.27849e+09
1.27764e+09
1.27717e+09
1.28036e+09
1.28043e+09
1.28047e+09
1.28055e+09
1.28065e+09
1.28078e+09
1.2809e+09
1.28099e+09
1.28103e+09
1.28101e+09
1.28079e+09
1.28034e+09
1.27957e+09
1.27852e+09
1.27767e+09
1.2772e+09
1.28039e+09
1.28046e+09
1.2805e+09
1.28058e+09
1.28068e+09
1.28081e+09
1.28093e+09
1.28102e+09
1.28106e+09
1.28104e+09
1.28082e+09
1.28037e+09
1.2796e+09
1.27855e+09
1.2777e+09
1.27723e+09
1.28042e+09
1.28049e+09
1.28052e+09
1.28061e+09
1.28071e+09
1.28084e+09
1.28096e+09
1.28105e+09
1.28109e+09
1.28107e+09
1.28085e+09
1.2804e+09
1.27963e+09
1.27858e+09
1.27772e+09
1.27726e+09
1.28045e+09
1.28052e+09
1.28055e+09
1.28064e+09
1.28074e+09
1.28087e+09
1.28099e+09
1.28108e+09
1.28112e+09
1.2811e+09
1.28088e+09
1.28043e+09
1.27966e+09
1.27861e+09
1.27775e+09
1.27729e+09
1.28048e+09
1.28055e+09
1.28058e+09
1.28067e+09
1.28077e+09
1.2809e+09
1.28101e+09
1.28111e+09
1.28115e+09
1.28113e+09
1.28091e+09
1.28046e+09
1.27969e+09
1.27863e+09
1.27778e+09
1.27732e+09
1.28051e+09
1.28058e+09
1.28061e+09
1.2807e+09
1.2808e+09
1.28093e+09
1.28104e+09
1.28114e+09
1.28118e+09
1.28116e+09
1.28094e+09
1.28049e+09
1.27972e+09
1.27866e+09
1.27781e+09
1.27735e+09
1.28054e+09
1.2806e+09
1.28064e+09
1.28073e+09
1.28083e+09
1.28096e+09
1.28107e+09
1.28117e+09
1.28121e+09
1.28119e+09
1.28097e+09
1.28052e+09
1.27975e+09
1.27869e+09
1.27784e+09
1.27738e+09
1.28057e+09
1.28063e+09
1.28067e+09
1.28076e+09
1.28086e+09
1.28099e+09
1.2811e+09
1.2812e+09
1.28124e+09
1.28122e+09
1.281e+09
1.28054e+09
1.27978e+09
1.27872e+09
1.27787e+09
1.27741e+09
1.28059e+09
1.28066e+09
1.2807e+09
1.28079e+09
1.28089e+09
1.28102e+09
1.28113e+09
1.28123e+09
1.28127e+09
1.28125e+09
1.28103e+09
1.28057e+09
1.2798e+09
1.27875e+09
1.2779e+09
1.27744e+09
1.28062e+09
1.28069e+09
1.28073e+09
1.28082e+09
1.28092e+09
1.28105e+09
1.28116e+09
1.28126e+09
1.2813e+09
1.28128e+09
1.28106e+09
1.2806e+09
1.27983e+09
1.27878e+09
1.27793e+09
1.27746e+09
1.28065e+09
1.28072e+09
1.28076e+09
1.28085e+09
1.28095e+09
1.28108e+09
1.28119e+09
1.28129e+09
1.28133e+09
1.28131e+09
1.28109e+09
1.28063e+09
1.27986e+09
1.27881e+09
1.27796e+09
1.27749e+09
1.28068e+09
1.28075e+09
1.28079e+09
1.28087e+09
1.28098e+09
1.28111e+09
1.28122e+09
1.28132e+09
1.28136e+09
1.28134e+09
1.28112e+09
1.28066e+09
1.27989e+09
1.27884e+09
1.27799e+09
1.27752e+09
1.28071e+09
1.28078e+09
1.28081e+09
1.2809e+09
1.28101e+09
1.28114e+09
1.28125e+09
1.28135e+09
1.28138e+09
1.28137e+09
1.28115e+09
1.28069e+09
1.27992e+09
1.27887e+09
1.27802e+09
1.27755e+09
1.28074e+09
1.28081e+09
1.28084e+09
1.28093e+09
1.28104e+09
1.28117e+09
1.28128e+09
1.28137e+09
1.28141e+09
1.2814e+09
1.28118e+09
1.28072e+09
1.27995e+09
1.27889e+09
1.27805e+09
1.27758e+09
1.28077e+09
1.28084e+09
1.28087e+09
1.28096e+09
1.28106e+09
1.2812e+09
1.28131e+09
1.2814e+09
1.28144e+09
1.28143e+09
1.28121e+09
1.28075e+09
1.27998e+09
1.27892e+09
1.27807e+09
1.27757e+09
1.2808e+09
1.28086e+09
1.2809e+09
1.28099e+09
1.28109e+09
1.28122e+09
1.28134e+09
1.28143e+09
1.28147e+09
1.28146e+09
1.28124e+09
1.28078e+09
1.28001e+09
1.27895e+09
1.2781e+09
1.27748e+09
1.28082e+09
1.28089e+09
1.28093e+09
1.28102e+09
1.28112e+09
1.28125e+09
1.28137e+09
1.28146e+09
1.2815e+09
1.28149e+09
1.28127e+09
1.28081e+09
1.28004e+09
1.27898e+09
1.27807e+09
1.27722e+09
1.28085e+09
1.28092e+09
1.28096e+09
1.28105e+09
1.28115e+09
1.28128e+09
1.2814e+09
1.28149e+09
1.28153e+09
1.28152e+09
1.28129e+09
1.28084e+09
1.28007e+09
1.27901e+09
1.27787e+09
1.27673e+09
1.28088e+09
1.28095e+09
1.28099e+09
1.28108e+09
1.28118e+09
1.28131e+09
1.28143e+09
1.28152e+09
1.28156e+09
1.28155e+09
1.28132e+09
1.28086e+09
1.28003e+09
1.27884e+09
1.27743e+09
1.27599e+09
1.28091e+09
1.28098e+09
1.28102e+09
1.28111e+09
1.28121e+09
1.28134e+09
1.28146e+09
1.28155e+09
1.28154e+09
1.28145e+09
1.28113e+09
1.28058e+09
1.27962e+09
1.27831e+09
1.2767e+09
1.27505e+09
1.28094e+09
1.28101e+09
1.28104e+09
1.28111e+09
1.28118e+09
1.28125e+09
1.28128e+09
1.28129e+09
1.28119e+09
1.28097e+09
1.28054e+09
1.27986e+09
1.27879e+09
1.2774e+09
1.27569e+09
1.27395e+09
1.28097e+09
1.28084e+09
1.28084e+09
1.28085e+09
1.28084e+09
1.28081e+09
1.28074e+09
1.28062e+09
1.2804e+09
1.28006e+09
1.27951e+09
1.27874e+09
1.2776e+09
1.27617e+09
1.27445e+09
1.27272e+09
1.28082e+09
1.28029e+09
1.28024e+09
1.28017e+09
1.28007e+09
1.27994e+09
1.27976e+09
1.27952e+09
1.27919e+09
1.27876e+09
1.27813e+09
1.27728e+09
1.27612e+09
1.2747e+09
1.27305e+09
1.27142e+09
1.28029e+09
1.27922e+09
1.27912e+09
1.27899e+09
1.27882e+09
1.2786e+09
1.27834e+09
1.27802e+09
1.27761e+09
1.27711e+09
1.27644e+09
1.27557e+09
1.27443e+09
1.27306e+09
1.27154e+09
1.27008e+09
1.27924e+09
1.27757e+09
1.27745e+09
1.27729e+09
1.27707e+09
1.27682e+09
1.27651e+09
1.27615e+09
1.27571e+09
1.27519e+09
1.27451e+09
1.27366e+09
1.27258e+09
1.2713e+09
1.26994e+09
1.26869e+09
1.2776e+09
1.27537e+09
1.27526e+09
1.2751e+09
1.27488e+09
1.27463e+09
1.27432e+09
1.27397e+09
1.27355e+09
1.27304e+09
1.2724e+09
1.2716e+09
1.27061e+09
1.26945e+09
1.26829e+09
1.26726e+09
1.2754e+09
1.27273e+09
1.27264e+09
1.27251e+09
1.27234e+09
1.27213e+09
1.27186e+09
1.27155e+09
1.27118e+09
1.27073e+09
1.27016e+09
1.26943e+09
1.26856e+09
1.26754e+09
1.26659e+09
1.26581e+09
1.27276e+09
1.26983e+09
1.26977e+09
1.26968e+09
1.26957e+09
1.26942e+09
1.26922e+09
1.26898e+09
1.26868e+09
1.2683e+09
1.26782e+09
1.26719e+09
1.26645e+09
1.26559e+09
1.26486e+09
1.26435e+09
1.26984e+09
1.26683e+09
1.2668e+09
1.26676e+09
1.2667e+09
1.26662e+09
1.2665e+09
1.26633e+09
1.26611e+09
1.26582e+09
1.26543e+09
1.26491e+09
1.26431e+09
1.26362e+09
1.26313e+09
1.26289e+09
1.26683e+09
1.26391e+09
1.26391e+09
1.2639e+09
1.26388e+09
1.26385e+09
1.26378e+09
1.26368e+09
1.26354e+09
1.26332e+09
1.26303e+09
1.26263e+09
1.26217e+09
1.26166e+09
1.26142e+09
1.26146e+09
1.2639e+09
1.26121e+09
1.26121e+09
1.26122e+09
1.26121e+09
1.26121e+09
1.26117e+09
1.26112e+09
1.26103e+09
1.26088e+09
1.26067e+09
1.26038e+09
1.26006e+09
1.25974e+09
1.25974e+09
1.26005e+09
1.2612e+09
1.25881e+09
1.25881e+09
1.2588e+09
1.25879e+09
1.25878e+09
1.25875e+09
1.25871e+09
1.25865e+09
1.25855e+09
1.25841e+09
1.25821e+09
1.25803e+09
1.25789e+09
1.25813e+09
1.25869e+09
1.2588e+09
1.25674e+09
1.25672e+09
1.2567e+09
1.25666e+09
1.25663e+09
1.25658e+09
1.25653e+09
1.25646e+09
1.25638e+09
1.25628e+09
1.25616e+09
1.2561e+09
1.25614e+09
1.2566e+09
1.25739e+09
1.25673e+09
1.25498e+09
1.25495e+09
1.25491e+09
1.25485e+09
1.25479e+09
1.2547e+09
1.25461e+09
1.25452e+09
1.25443e+09
1.25434e+09
1.25428e+09
1.25432e+09
1.25453e+09
1.25517e+09
1.25614e+09
1.25498e+09
1.25351e+09
1.25346e+09
1.25341e+09
1.25334e+09
1.25325e+09
1.25313e+09
1.25301e+09
1.25287e+09
1.25275e+09
1.25265e+09
1.25262e+09
1.25273e+09
1.25307e+09
1.25384e+09
1.25493e+09
1.25351e+09
1.25227e+09
1.25223e+09
1.25217e+09
1.25208e+09
1.25198e+09
1.25185e+09
1.2517e+09
1.25154e+09
1.25139e+09
1.25127e+09
1.25124e+09
1.25138e+09
1.25178e+09
1.2526e+09
1.25373e+09
1.25229e+09
1.25123e+09
1.25118e+09
1.25112e+09
1.25103e+09
1.25091e+09
1.25078e+09
1.25066e+09
1.25052e+09
1.2504e+09
1.25029e+09
1.25028e+09
1.25039e+09
1.25074e+09
1.25148e+09
1.25255e+09
1.25124e+09
1.25037e+09
1.25033e+09
1.25028e+09
1.2502e+09
1.2501e+09
1.25e+09
1.25e+09
1.25e+09
1.25e+09
1.25e+09
1.25e+09
1.25e+09
1.25007e+09
1.25057e+09
1.25146e+09
1.25038e+09
1.25e+09
1.25e+09
1.25e+09
1.25e+09
1.25e+09
1.25e+09
1.25e+09
1.25e+09
1.25e+09
1.25e+09
1.25e+09
1.25e+09
1.25e+09
1.25002e+09
1.25061e+09
1.25e+09
1.25e+09
1.25e+09
1.25e+09
1.25e+09
1.25e+09
1.25e+09
1.25e+09
1.25e+09
1.25e+09
1.25e+09
1.25e+09
1.25e+09
1.25e+09
1.25e+09
1.2501e+09
1.25e+09
1.25e+09
1.25e+09
1.25e+09
1.25e+09
1.25e+09
1.25e+09
1.25e+09
1.25e+09
1.25e+09
1.25e+09
1.25e+09
1.25e+09
1.25e+09
1.25e+09
1.25e+09
1.25e+09
1.25e+09
1.25e+09
1.25e+09
1.25e+09
1.25e+09
1.25e+09
1.25e+09
1.25e+09
1.25e+09
1.25e+09
1.25e+09
1.25e+09
1.25e+09
1.25e+09
1.25e+09
1.25e+09
1.25e+09
1.25e+09
1.25e+09
1.25e+09
1.25e+09
1.25e+09
1.25e+09
1.25e+09
1.25e+09
1.25e+09
1.25e+09
1.25e+09
1.25e+09
1.25e+09
1.25e+09
1.25e+09
1.25e+09
1.25e+09
1.25e+09
1.25e+09
1.25e+09
1.25e+09
1.25e+09
1.25e+09
1.25e+09
1.25e+09
1.25e+09
1.25e+09
1.25e+09
1.25e+09
1.25e+09
1.25e+09
1.25e+09
1.25e+09
1.25e+09
1.25e+09
1.25e+09
1.25e+09
1.25e+09
1.25e+09
1.25e+09
1.25e+09
1.25e+09
1.25e+09
1.25e+09
1.25e+09
1.25e+09
1.25e+09
1.25e+09
1.25e+09
1.25e+09
1.25e+09
1.25e+09
1.25e+09
1.25e+09
1.25e+09
1.25e+09
1.25e+09
1.25e+09
1.25e+09
1.25e+09
1.25e+09
1.25e+09
1.25e+09
1.25e+09
1.25e+09
1.25e+09
1.25e+09
1.25e+09
1.25e+09
1.25e+09
1.25e+09
1.25e+09
1.25e+09
1.25e+09
1.25e+09
1.25e+09
1.25e+09
1.25e+09
1.25e+09
1.25e+09
1.25e+09
1.25e+09
1.25e+09
1.25e+09
1.25e+09
1.25e+09
1.25e+09
1.25e+09
1.25e+09
1.25e+09
1.25e+09
1.25e+09
1.25e+09
1.25e+09
1.25e+09
1.25e+09
1.25e+09
1.25e+09
1.25e+09
1.25e+09
1.25e+09
1.25e+09
1.25e+09
1.25e+09
1.25e+09
1.25e+09
1.25e+09
1.25e+09
1.25e+09
1.25e+09
1.25e+09
1.25e+09
1.25e+09
1.25e+09
1.25e+09
1.25e+09
1.25e+09
1.25e+09
1.25e+09
1.25e+09
1.25e+09
1.25e+09
1.25e+09
1.25e+09
1.25e+09
1.25e+09
1.25e+09
1.25e+09
1.25e+09
1.25e+09
1.25e+09
1.25e+09
1.25e+09
1.25e+09
1.25e+09
1.25e+09
1.25e+09
1.25e+09
1.25e+09
1.25e+09
1.25e+09
1.25e+09
1.25e+09
1.25e+09
1.25e+09
1.25e+09
1.25e+09
1.25e+09
1.25e+09
1.25e+09
1.25e+09
1.25e+09
1.25e+09
1.25e+09
1.25e+09
1.25e+09
1.25e+09
1.25e+09
1.25e+09
1.25e+09
1.25e+09
1.25e+09
1.25e+09
1.25e+09
1.25e+09
1.25e+09
1.25e+09
1.25e+09
1.25e+09
1.25e+09
1.25e+09
1.25e+09
1.25e+09
1.25e+09
1.25e+09
1.25e+09
1.25e+09
1.25e+09
1.25e+09
1.25e+09
1.25e+09
1.25e+09
1.25e+09
1.25e+09
1.25e+09
1.25e+09
1.25e+09
1.25e+09
1.25e+09
1.25e+09
1.25e+09
1.25e+09
1.25e+09
1.25e+09
1.25e+09
1.25e+09
1.25e+09
1.25e+09
1.25e+09
1.25e+09
1.25e+09
1.25e+09
1.25e+09
1.25e+09
1.25e+09
1.25e+09
1.25e+09
1.25e+09
1.25e+09
1.25e+09
1.25e+09
1.25e+09
1.25e+09
1.25e+09
1.25e+09
1.25e+09
1.25e+09
1.25e+09
1.25e+09
1.25e+09
1.25e+09
1.25e+09
1.25e+09
1.25e+09
1.25e+09
1.25e+09
1.25e+09
1.25e+09
1.25e+09
1.25e+09
1.25e+09
1.25e+09
1.25e+09
1.25e+09
1.25e+09
1.25e+09
1.25e+09
1.25e+09
1.25e+09
1.25e+09
1.25e+09
1.25e+09
1.25e+09
1.25e+09
1.25e+09
1.25e+09
1.25e+09
1.25e+09
1.25e+09
1.25e+09
1.25e+09
1.25e+09
1.25e+09
1.25e+09
1.25e+09
1.25e+09
1.25e+09
1.25e+09
1.25e+09
1.25e+09
1.25e+09
1.25e+09
1.25e+09
1.25e+09
1.25e+09
1.25e+09
1.25e+09
1.25e+09
1.25e+09
1.25e+09
1.25e+09
1.25e+09
1.25e+09
1.25e+09
1.25e+09
1.25e+09
1.25e+09
1.25e+09
1.25e+09
1.25e+09
1.25e+09
1.25e+09
1.25e+09
1.25e+09
1.25e+09
1.25e+09
1.25e+09
1.25e+09
1.25e+09
1.25e+09
1.25e+09
1.25e+09
1.25e+09
1.25e+09
1.25e+09
1.25e+09
1.25e+09
1.25e+09
1.25e+09
1.25e+09
1.25e+09
1.25e+09
1.25e+09
1.25e+09
1.25e+09
1.25e+09
1.25e+09
1.25e+09
1.25e+09
1.25e+09
1.25e+09
1.25e+09
1.25e+09
1.25e+09
1.25e+09
1.25e+09
1.25e+09
1.25e+09
1.25e+09
1.25e+09
1.25e+09
1.25e+09
1.25e+09
1.25e+09
1.25e+09
1.25e+09
1.25e+09
1.25e+09
1.25e+09
1.25e+09
1.25e+09
1.25e+09
1.25e+09
1.25e+09
1.25e+09
1.25e+09
1.25e+09
1.25e+09
1.25e+09
1.25e+09
1.25e+09
1.25e+09
1.25e+09
1.25e+09
1.25e+09
1.25e+09
1.25e+09
1.25e+09
1.25e+09
1.25e+09
1.25e+09
1.25e+09
1.25e+09
1.25e+09
1.25e+09
1.25e+09
1.25e+09
1.25e+09
1.25e+09
1.25e+09
1.25e+09
1.25e+09
1.25e+09
1.25e+09
1.25e+09
1.25e+09
1.25e+09
1.25e+09
1.25e+09
1.25e+09
1.25e+09
1.25e+09
1.25e+09
1.25e+09
1.25e+09
1.25e+09
1.25e+09
1.25e+09
1.25e+09
1.25e+09
1.25e+09
1.25e+09
1.25e+09
1.25e+09
1.25e+09
1.25e+09
1.25e+09
1.25e+09
1.25e+09
1.25e+09
1.25e+09
1.25e+09
1.25e+09
1.25e+09
1.25e+09
1.25e+09
1.25e+09
1.25e+09
1.25e+09
1.25e+09
1.25e+09
1.25e+09
1.25e+09
1.25e+09
1.25e+09
1.25e+09
1.25e+09
1.25e+09
1.25e+09
1.25e+09
1.25e+09
1.25e+09
1.25e+09
1.25e+09
1.25e+09
1.25e+09
1.25e+09
1.25e+09
1.25e+09
1.25e+09
1.25e+09
1.25e+09
1.25e+09
1.25e+09
1.25e+09
1.25e+09
1.25e+09
1.25e+09
1.25e+09
1.25e+09
1.25e+09
1.25e+09
1.25e+09
1.25e+09
1.25e+09
1.25e+09
1.25e+09
1.25e+09
1.25e+09
1.25e+09
1.25e+09
1.25e+09
1.25e+09
1.25e+09
1.25e+09
1.25e+09
1.25e+09
1.25e+09
1.25e+09
1.25e+09
1.25e+09
1.25e+09
1.25e+09
1.25e+09
1.25e+09
1.25e+09
1.25e+09
1.25e+09
1.25e+09
1.25e+09
1.25e+09
1.25e+09
1.25e+09
1.25e+09
1.25e+09
1.25e+09
1.25e+09
1.25e+09
1.25e+09
1.25e+09
1.25e+09
1.25e+09
1.25e+09
1.25e+09
1.25e+09
1.25e+09
1.25e+09
1.25e+09
1.25e+09
1.25e+09
1.25e+09
1.25e+09
1.25e+09
1.25e+09
1.25e+09
1.25e+09
1.25e+09
1.25e+09
1.25e+09
1.25e+09
1.25e+09
1.25e+09
1.25e+09
1.25e+09
1.25e+09
1.25e+09
1.25e+09
1.25e+09
1.25e+09
1.25e+09
1.25e+09
1.25e+09
1.25e+09
1.25e+09
1.25e+09
1.25e+09
1.25e+09
1.25e+09
1.25e+09
1.25e+09
1.25e+09
1.25e+09
1.25e+09
1.25e+09
1.25e+09
1.25e+09
1.25e+09
1.25e+09
1.25e+09
1.25e+09
1.25e+09
1.25e+09
1.25e+09
1.25e+09
1.25e+09
1.25e+09
1.25e+09
1.25e+09
1.25e+09
1.25e+09
1.25e+09
1.25e+09
1.25e+09
1.25e+09
1.25e+09
1.25e+09
1.25e+09
1.25e+09
1.25e+09
1.25e+09
1.25e+09
1.25e+09
1.25e+09
1.25e+09
1.25e+09
1.25e+09
1.25e+09
1.25e+09
1.25e+09
1.25e+09
1.25e+09
1.25e+09
1.25e+09
1.25e+09
1.25e+09
1.25e+09
1.25e+09
1.25e+09
1.25e+09
1.25e+09
1.25e+09
1.25e+09
1.25e+09
1.25e+09
1.25e+09
1.25e+09
1.25e+09
1.25e+09
1.25e+09
1.25e+09
1.25e+09
1.25e+09
1.25e+09
1.25e+09
1.25e+09
1.25e+09
1.25e+09
1.25e+09
1.25e+09
1.25e+09
1.25e+09
1.25e+09
1.25e+09
1.25e+09
1.25e+09
1.25e+09
1.25e+09
1.25e+09
1.25e+09
1.25e+09
1.25e+09
1.25e+09
1.25e+09
1.25e+09
1.25e+09
1.25e+09
1.25e+09
1.25e+09
1.25e+09
1.25e+09
1.25e+09
1.25e+09
1.25e+09
1.25e+09
1.25e+09
1.25e+09
1.25e+09
1.25e+09
1.25e+09
1.25e+09
1.25e+09
1.25e+09
1.25e+09
1.25e+09
1.25e+09
1.25e+09
1.25e+09
1.25e+09
1.25e+09
1.25e+09
1.25e+09
1.25e+09
1.25e+09
1.25e+09
1.25e+09
1.25e+09
1.25e+09
1.25e+09
1.25e+09
1.25e+09
1.25e+09
1.25e+09
1.25e+09
1.25e+09
1.25e+09
1.25e+09
1.25e+09
1.25e+09
1.25e+09
1.25e+09
1.25e+09
1.25e+09
1.25e+09
1.25e+09
1.25e+09
1.25e+09
1.25e+09
1.25e+09
1.25e+09
1.25e+09
1.25e+09
1.25e+09
1.25e+09
1.25e+09
1.25e+09
1.25e+09
1.25e+09
1.25e+09
1.25e+09
1.25e+09
1.25e+09
1.25e+09
1.25e+09
1.25e+09
1.25e+09
1.25e+09
1.25e+09
1.25e+09
1.25e+09
1.25e+09
1.25e+09
1.25e+09
1.25e+09
1.25e+09
1.25e+09
1.25e+09
1.25e+09
1.25e+09
1.25e+09
1.25e+09
1.25e+09
1.25e+09
1.25e+09
1.25e+09
1.25e+09
1.25e+09
1.25e+09
1.25e+09
1.25e+09
1.25e+09
1.25e+09
1.25e+09
1.25e+09
1.25e+09
1.25e+09
1.25e+09
1.25e+09
1.25e+09
1.25e+09
1.25e+09
1.25e+09
1.25e+09
1.25e+09
1.25e+09
1.25e+09
1.25e+09
1.25e+09
1.25e+09
1.25e+09
1.25e+09
1.25e+09
1.25e+09
1.25e+09
1.25e+09
1.25e+09
1.25e+09
1.25e+09
1.25e+09
1.25e+09
)
;

boundaryField
{
    wireUpstream
    {
        type            calculated;
        value           uniform 1.25e+09;
    }
    wireDownstream
    {
        type            calculated;
        value           nonuniform List<scalar> 
16
(
1.2794e+09
1.27944e+09
1.27952e+09
1.27962e+09
1.27974e+09
1.27986e+09
1.27996e+09
1.27998e+09
1.27995e+09
1.27974e+09
1.27931e+09
1.27853e+09
1.27749e+09
1.27664e+09
1.27617e+09
1.27937e+09
)
;
    }
    wireTopContact
    {
        type            calculated;
        value           nonuniform List<scalar> 
122
(
1.27611e+09
1.27614e+09
1.27617e+09
1.27619e+09
1.27622e+09
1.27625e+09
1.27628e+09
1.27631e+09
1.27634e+09
1.27637e+09
1.2764e+09
1.27643e+09
1.27646e+09
1.27649e+09
1.27652e+09
1.27655e+09
1.27658e+09
1.27661e+09
1.27664e+09
1.27667e+09
1.27669e+09
1.27672e+09
1.27675e+09
1.27678e+09
1.27681e+09
1.27684e+09
1.27687e+09
1.2769e+09
1.27693e+09
1.27696e+09
1.27699e+09
1.27702e+09
1.27705e+09
1.27707e+09
1.2771e+09
1.27713e+09
1.27716e+09
1.27719e+09
1.27722e+09
1.27725e+09
1.27728e+09
1.27731e+09
1.27734e+09
1.27737e+09
1.2774e+09
1.27742e+09
1.27745e+09
1.27748e+09
1.27748e+09
1.27738e+09
1.27712e+09
1.27662e+09
1.27587e+09
1.27493e+09
1.27384e+09
1.27263e+09
1.27134e+09
1.26999e+09
1.2686e+09
1.26718e+09
1.26573e+09
1.26427e+09
1.26281e+09
1.26138e+09
1.25998e+09
1.25863e+09
1.25734e+09
1.25611e+09
1.25491e+09
1.25373e+09
1.25256e+09
1.25147e+09
1.25062e+09
1.2501e+09
1.25e+09
1.25e+09
1.25e+09
1.25e+09
1.25e+09
1.25e+09
1.25e+09
1.25e+09
1.25e+09
1.25e+09
1.25e+09
1.25e+09
1.25e+09
1.25e+09
1.25e+09
1.25e+09
1.25e+09
1.25e+09
1.25e+09
1.25e+09
1.25e+09
1.25e+09
1.25e+09
1.25e+09
1.25e+09
1.25e+09
1.25e+09
1.25e+09
1.25e+09
1.25e+09
1.25e+09
1.25e+09
1.25e+09
1.25e+09
1.25e+09
1.25e+09
1.25e+09
1.25e+09
1.25e+09
1.25e+09
1.25e+09
1.25e+09
1.25e+09
1.25e+09
1.25e+09
1.25e+09
1.25e+09
1.27608e+09
)
;
    }
    front
    {
        type            wedge;
    }
    back
    {
        type            wedge;
    }
}


// ************************************************************************* //
