/*--------------------------------*- C++ -*----------------------------------*\
| =========                 |                                                 |
| \\      /  F ield         | foam-extend: Open Source CFD                    |
|  \\    /   O peration     | Version:     4.1-20200408                       |
|   \\  /    A nd           | Web:         http://www.foam-extend.org         |
|    \\/     M anipulation  |                                                 |
\*---------------------------------------------------------------------------*/
FoamFile
{
    version     2.0;
    format      ascii;
    class       volVectorField;
    location    "0.0580000";
    object      U_0;
}
// * * * * * * * * * * * * * * * * * * * * * * * * * * * * * * * * * * * * * //

dimensions      [0 1 0 0 0 0 0];

internalField   nonuniform List<vector> 
1952
(
(0.056827 -2.04155e-06 0)
(0.0568268 -3.32081e-06 0)
(0.0568264 -4.61627e-06 0)
(0.0568259 -5.90899e-06 0)
(0.0568254 -7.20383e-06 0)
(0.0568247 -8.48638e-06 0)
(0.056824 -9.76997e-06 0)
(0.0568232 -1.10343e-05 0)
(0.0568224 -1.22983e-05 0)
(0.0568216 -1.35375e-05 0)
(0.0568209 -1.47709e-05 0)
(0.0568203 -1.5972e-05 0)
(0.0568198 -1.71504e-05 0)
(0.0568196 -1.82882e-05 0)
(0.0568195 -1.93895e-05 0)
(0.0568271 -8.74711e-07 0)
(0.0568244 -2.04348e-06 0)
(0.0568241 -3.32398e-06 0)
(0.0568238 -4.62066e-06 0)
(0.0568233 -5.91465e-06 0)
(0.0568227 -7.21072e-06 0)
(0.0568221 -8.49453e-06 0)
(0.0568213 -9.77936e-06 0)
(0.0568206 -1.10449e-05 0)
(0.0568198 -1.23102e-05 0)
(0.056819 -1.35506e-05 0)
(0.0568183 -1.47854e-05 0)
(0.0568177 -1.59878e-05 0)
(0.0568172 -1.71675e-05 0)
(0.0568169 -1.83069e-05 0)
(0.0568169 -1.94096e-05 0)
(0.0568245 -8.75542e-07 0)
(0.0568218 -2.04554e-06 0)
(0.0568215 -3.32732e-06 0)
(0.0568211 -4.62528e-06 0)
(0.0568207 -5.92058e-06 0)
(0.0568201 -7.21793e-06 0)
(0.0568194 -8.50307e-06 0)
(0.0568187 -9.78918e-06 0)
(0.0568179 -1.10561e-05 0)
(0.0568172 -1.23228e-05 0)
(0.0568164 -1.35646e-05 0)
(0.0568157 -1.48009e-05 0)
(0.056815 -1.60047e-05 0)
(0.0568146 -1.71859e-05 0)
(0.0568143 -1.83267e-05 0)
(0.0568142 -1.94308e-05 0)
(0.0568219 -8.76423e-07 0)
(0.0568191 -2.04765e-06 0)
(0.0568189 -3.33077e-06 0)
(0.0568185 -4.63013e-06 0)
(0.056818 -5.9268e-06 0)
(0.0568175 -7.22557e-06 0)
(0.0568168 -8.51209e-06 0)
(0.0568161 -9.79964e-06 0)
(0.0568153 -1.1068e-05 0)
(0.0568145 -1.23361e-05 0)
(0.0568137 -1.35794e-05 0)
(0.056813 -1.48171e-05 0)
(0.0568124 -1.60225e-05 0)
(0.0568119 -1.72051e-05 0)
(0.0568117 -1.83474e-05 0)
(0.0568116 -1.94529e-05 0)
(0.0568192 -8.77329e-07 0)
(0.0568165 -2.04988e-06 0)
(0.0568162 -3.33441e-06 0)
(0.0568159 -4.63519e-06 0)
(0.0568154 -5.93328e-06 0)
(0.0568148 -7.23349e-06 0)
(0.0568142 -8.52146e-06 0)
(0.0568134 -9.81048e-06 0)
(0.0568127 -1.10803e-05 0)
(0.0568119 -1.23499e-05 0)
(0.0568111 -1.35947e-05 0)
(0.0568104 -1.48339e-05 0)
(0.0568098 -1.60408e-05 0)
(0.0568093 -1.72249e-05 0)
(0.056809 -1.83686e-05 0)
(0.056809 -1.94755e-05 0)
(0.0568166 -8.78286e-07 0)
(0.0568139 -2.05219e-06 0)
(0.0568136 -3.33816e-06 0)
(0.0568132 -4.64042e-06 0)
(0.0568127 -5.93999e-06 0)
(0.0568122 -7.2417e-06 0)
(0.0568115 -8.53116e-06 0)
(0.0568108 -9.82168e-06 0)
(0.05681 -1.1093e-05 0)
(0.0568092 -1.23642e-05 0)
(0.0568085 -1.36104e-05 0)
(0.0568077 -1.48512e-05 0)
(0.0568071 -1.60595e-05 0)
(0.0568066 -1.72451e-05 0)
(0.0568064 -1.83903e-05 0)
(0.0568063 -1.94986e-05 0)
(0.056814 -8.79276e-07 0)
(0.0568112 -2.05455e-06 0)
(0.056811 -3.342e-06 0)
(0.0568106 -4.64578e-06 0)
(0.0568101 -5.94685e-06 0)
(0.0568095 -7.25009e-06 0)
(0.0568089 -8.54105e-06 0)
(0.0568082 -9.83311e-06 0)
(0.0568074 -1.11059e-05 0)
(0.0568066 -1.23787e-05 0)
(0.0568058 -1.36264e-05 0)
(0.0568051 -1.48688e-05 0)
(0.0568045 -1.60785e-05 0)
(0.056804 -1.72656e-05 0)
(0.0568037 -1.84123e-05 0)
(0.0568037 -1.95219e-05 0)
(0.0568113 -8.80288e-07 0)
(0.0568086 -2.05695e-06 0)
(0.0568083 -3.34592e-06 0)
(0.056808 -4.65123e-06 0)
(0.0568075 -5.95384e-06 0)
(0.0568069 -7.25862e-06 0)
(0.0568062 -8.55113e-06 0)
(0.0568055 -9.84472e-06 0)
(0.0568047 -1.11191e-05 0)
(0.0568039 -1.23934e-05 0)
(0.0568032 -1.36427e-05 0)
(0.0568024 -1.48866e-05 0)
(0.0568018 -1.60979e-05 0)
(0.0568013 -1.72864e-05 0)
(0.0568011 -1.84345e-05 0)
(0.056801 -1.95455e-05 0)
(0.0568087 -8.81315e-07 0)
(0.0568059 -2.0594e-06 0)
(0.0568057 -3.34992e-06 0)
(0.0568053 -4.65679e-06 0)
(0.0568048 -5.96096e-06 0)
(0.0568042 -7.26732e-06 0)
(0.0568036 -8.56138e-06 0)
(0.0568029 -9.85656e-06 0)
(0.0568021 -1.11324e-05 0)
(0.0568013 -1.24083e-05 0)
(0.0568005 -1.36591e-05 0)
(0.0567998 -1.49045e-05 0)
(0.0567992 -1.61173e-05 0)
(0.0567987 -1.73072e-05 0)
(0.0567984 -1.84568e-05 0)
(0.0567983 -1.95692e-05 0)
(0.056806 -8.82363e-07 0)
(0.0568033 -2.06188e-06 0)
(0.056803 -3.35394e-06 0)
(0.0568027 -4.66237e-06 0)
(0.0568022 -5.9681e-06 0)
(0.0568016 -7.27601e-06 0)
(0.0568009 -8.57163e-06 0)
(0.0568002 -9.86835e-06 0)
(0.0567994 -1.11458e-05 0)
(0.0567986 -1.24232e-05 0)
(0.0567978 -1.36756e-05 0)
(0.0567971 -1.49225e-05 0)
(0.0567965 -1.61368e-05 0)
(0.056796 -1.73282e-05 0)
(0.0567957 -1.84792e-05 0)
(0.0567957 -1.9593e-05 0)
(0.0568034 -8.83425e-07 0)
(0.0568006 -2.06436e-06 0)
(0.0568004 -3.35798e-06 0)
(0.0568 -4.66799e-06 0)
(0.0567995 -5.97531e-06 0)
(0.0567989 -7.28481e-06 0)
(0.0567983 -8.582e-06 0)
(0.0567975 -9.8803e-06 0)
(0.0567968 -1.11592e-05 0)
(0.056796 -1.24383e-05 0)
(0.0567952 -1.36922e-05 0)
(0.0567945 -1.49406e-05 0)
(0.0567938 -1.61563e-05 0)
(0.0567934 -1.73492e-05 0)
(0.0567931 -1.85016e-05 0)
(0.056793 -1.96169e-05 0)
(0.0568007 -8.84483e-07 0)
(0.056798 -2.06685e-06 0)
(0.0567977 -3.36202e-06 0)
(0.0567973 -4.67361e-06 0)
(0.0567968 -5.98249e-06 0)
(0.0567963 -7.29356e-06 0)
(0.0567956 -8.59231e-06 0)
(0.0567949 -9.89216e-06 0)
(0.0567941 -1.11726e-05 0)
(0.0567933 -1.24532e-05 0)
(0.0567925 -1.37086e-05 0)
(0.0567918 -1.49586e-05 0)
(0.0567912 -1.61758e-05 0)
(0.0567907 -1.73702e-05 0)
(0.0567904 -1.8524e-05 0)
(0.0567904 -1.96407e-05 0)
(0.0567981 -8.85549e-07 0)
(0.0567953 -2.06932e-06 0)
(0.056795 -3.36606e-06 0)
(0.0567947 -4.67921e-06 0)
(0.0567942 -5.98968e-06 0)
(0.0567936 -7.30231e-06 0)
(0.0567929 -8.60264e-06 0)
(0.0567922 -9.90402e-06 0)
(0.0567914 -1.11861e-05 0)
(0.0567906 -1.24682e-05 0)
(0.0567899 -1.37252e-05 0)
(0.0567891 -1.49767e-05 0)
(0.0567885 -1.61954e-05 0)
(0.056788 -1.73912e-05 0)
(0.0567877 -1.85465e-05 0)
(0.0567877 -1.96647e-05 0)
(0.0567954 -8.86606e-07 0)
(0.0567926 -2.07178e-06 0)
(0.0567924 -3.37007e-06 0)
(0.056792 -4.6848e-06 0)
(0.0567915 -5.99683e-06 0)
(0.0567909 -7.31105e-06 0)
(0.0567903 -8.61293e-06 0)
(0.0567895 -9.91589e-06 0)
(0.0567888 -1.11995e-05 0)
(0.056788 -1.24832e-05 0)
(0.0567872 -1.37416e-05 0)
(0.0567865 -1.49947e-05 0)
(0.0567858 -1.62148e-05 0)
(0.0567853 -1.74122e-05 0)
(0.0567851 -1.85689e-05 0)
(0.056785 -1.96885e-05 0)
(0.0567927 -8.87659e-07 0)
(0.05679 -2.07424e-06 0)
(0.0567897 -3.37407e-06 0)
(0.0567893 -4.69035e-06 0)
(0.0567888 -6.00394e-06 0)
(0.0567883 -7.31971e-06 0)
(0.0567876 -8.62316e-06 0)
(0.0567869 -9.92765e-06 0)
(0.0567861 -1.12128e-05 0)
(0.0567853 -1.2498e-05 0)
(0.0567845 -1.3758e-05 0)
(0.0567838 -1.50126e-05 0)
(0.0567832 -1.62343e-05 0)
(0.0567827 -1.7433e-05 0)
(0.0567824 -1.85913e-05 0)
(0.0567823 -1.97123e-05 0)
(0.0567901 -8.88714e-07 0)
(0.0567873 -2.07668e-06 0)
(0.056787 -3.37804e-06 0)
(0.0567867 -4.69588e-06 0)
(0.0567862 -6.01102e-06 0)
(0.0567856 -7.32835e-06 0)
(0.0567849 -8.63334e-06 0)
(0.0567842 -9.93938e-06 0)
(0.0567834 -1.1226e-05 0)
(0.0567826 -1.25128e-05 0)
(0.0567818 -1.37743e-05 0)
(0.0567811 -1.50304e-05 0)
(0.0567805 -1.62535e-05 0)
(0.05678 -1.74538e-05 0)
(0.0567797 -1.86135e-05 0)
(0.0567797 -1.9736e-05 0)
(0.0567874 -8.89756e-07 0)
(0.0567846 -2.07908e-06 0)
(0.0567844 -3.38196e-06 0)
(0.056784 -4.70133e-06 0)
(0.0567835 -6.01801e-06 0)
(0.0567829 -7.33685e-06 0)
(0.0567822 -8.64338e-06 0)
(0.0567815 -9.95093e-06 0)
(0.0567807 -1.12391e-05 0)
(0.0567799 -1.25274e-05 0)
(0.0567791 -1.37905e-05 0)
(0.0567784 -1.50481e-05 0)
(0.0567778 -1.62727e-05 0)
(0.0567773 -1.74745e-05 0)
(0.056777 -1.86357e-05 0)
(0.056777 -1.97597e-05 0)
(0.0567847 -8.90787e-07 0)
(0.0567819 -2.08147e-06 0)
(0.0567817 -3.38585e-06 0)
(0.0567813 -4.70675e-06 0)
(0.0567808 -6.02495e-06 0)
(0.0567802 -7.34533e-06 0)
(0.0567796 -8.65339e-06 0)
(0.0567788 -9.96247e-06 0)
(0.056778 -1.12522e-05 0)
(0.0567773 -1.2542e-05 0)
(0.0567765 -1.38065e-05 0)
(0.0567757 -1.50657e-05 0)
(0.0567751 -1.62918e-05 0)
(0.0567746 -1.74951e-05 0)
(0.0567743 -1.86578e-05 0)
(0.0567743 -1.97832e-05 0)
(0.056782 -8.91807e-07 0)
(0.0567793 -2.08382e-06 0)
(0.056779 -3.38969e-06 0)
(0.0567786 -4.71208e-06 0)
(0.0567781 -6.03179e-06 0)
(0.0567776 -7.35366e-06 0)
(0.0567769 -8.66323e-06 0)
(0.0567762 -9.97379e-06 0)
(0.0567754 -1.1265e-05 0)
(0.0567746 -1.25564e-05 0)
(0.0567738 -1.38225e-05 0)
(0.056773 -1.50832e-05 0)
(0.0567724 -1.63108e-05 0)
(0.0567719 -1.75156e-05 0)
(0.0567716 -1.86798e-05 0)
(0.0567716 -1.98067e-05 0)
(0.0567794 -8.92817e-07 0)
(0.0567766 -2.08614e-06 0)
(0.0567763 -3.39348e-06 0)
(0.0567759 -4.71735e-06 0)
(0.0567754 -6.03856e-06 0)
(0.0567749 -7.36192e-06 0)
(0.0567742 -8.67302e-06 0)
(0.0567735 -9.98506e-06 0)
(0.0567727 -1.12778e-05 0)
(0.0567719 -1.25707e-05 0)
(0.0567711 -1.38383e-05 0)
(0.0567704 -1.51005e-05 0)
(0.0567697 -1.63297e-05 0)
(0.0567692 -1.7536e-05 0)
(0.056769 -1.87017e-05 0)
(0.0567689 -1.98302e-05 0)
(0.0567767 -8.93809e-07 0)
(0.0567739 -2.08844e-06 0)
(0.0567736 -3.39722e-06 0)
(0.0567733 -4.72255e-06 0)
(0.0567728 -6.04524e-06 0)
(0.0567722 -7.37008e-06 0)
(0.0567715 -8.68268e-06 0)
(0.0567708 -9.99621e-06 0)
(0.05677 -1.12905e-05 0)
(0.0567692 -1.25849e-05 0)
(0.0567684 -1.3854e-05 0)
(0.0567677 -1.51178e-05 0)
(0.056767 -1.63485e-05 0)
(0.0567665 -1.75563e-05 0)
(0.0567663 -1.87235e-05 0)
(0.0567662 -1.98535e-05 0)
(0.056774 -8.94791e-07 0)
(0.0567712 -2.09071e-06 0)
(0.0567709 -3.40092e-06 0)
(0.0567706 -4.7277e-06 0)
(0.0567701 -6.05186e-06 0)
(0.0567695 -7.37815e-06 0)
(0.0567688 -8.69225e-06 0)
(0.0567681 -1.00072e-05 0)
(0.0567673 -1.1303e-05 0)
(0.0567665 -1.25989e-05 0)
(0.0567657 -1.38696e-05 0)
(0.056765 -1.51349e-05 0)
(0.0567643 -1.63671e-05 0)
(0.0567638 -1.75764e-05 0)
(0.0567636 -1.87452e-05 0)
(0.0567635 -1.98767e-05 0)
(0.0567713 -8.95765e-07 0)
(0.0567685 -2.09295e-06 0)
(0.0567682 -3.40457e-06 0)
(0.0567679 -4.73279e-06 0)
(0.0567674 -6.0584e-06 0)
(0.0567668 -7.38612e-06 0)
(0.0567661 -8.70171e-06 0)
(0.0567654 -1.00181e-05 0)
(0.0567646 -1.13154e-05 0)
(0.0567638 -1.26128e-05 0)
(0.056763 -1.3885e-05 0)
(0.0567623 -1.51518e-05 0)
(0.0567616 -1.63856e-05 0)
(0.0567611 -1.75964e-05 0)
(0.0567609 -1.87667e-05 0)
(0.0567608 -1.98998e-05 0)
(0.0567686 -8.9672e-07 0)
(0.0567658 -2.09516e-06 0)
(0.0567655 -3.40818e-06 0)
(0.0567652 -4.7378e-06 0)
(0.0567647 -6.06485e-06 0)
(0.0567641 -7.39399e-06 0)
(0.0567634 -8.71105e-06 0)
(0.0567627 -1.00289e-05 0)
(0.0567619 -1.13277e-05 0)
(0.0567611 -1.26265e-05 0)
(0.0567603 -1.39003e-05 0)
(0.0567596 -1.51686e-05 0)
(0.0567589 -1.64039e-05 0)
(0.0567584 -1.76163e-05 0)
(0.0567581 -1.87882e-05 0)
(0.0567581 -1.99229e-05 0)
(0.0567659 -8.97666e-07 0)
(0.0567631 -2.09736e-06 0)
(0.0567628 -3.41177e-06 0)
(0.0567625 -4.74279e-06 0)
(0.056762 -6.07126e-06 0)
(0.0567614 -7.4018e-06 0)
(0.0567607 -8.72033e-06 0)
(0.05676 -1.00396e-05 0)
(0.0567592 -1.13398e-05 0)
(0.0567584 -1.26402e-05 0)
(0.0567576 -1.39155e-05 0)
(0.0567568 -1.51853e-05 0)
(0.0567562 -1.64221e-05 0)
(0.0567557 -1.76361e-05 0)
(0.0567554 -1.88096e-05 0)
(0.0567554 -1.99458e-05 0)
(0.0567632 -8.98612e-07 0)
(0.0567604 -2.09955e-06 0)
(0.0567601 -3.41532e-06 0)
(0.0567598 -4.74771e-06 0)
(0.0567593 -6.07761e-06 0)
(0.0567587 -7.40951e-06 0)
(0.056758 -8.7295e-06 0)
(0.0567573 -1.00501e-05 0)
(0.0567565 -1.13519e-05 0)
(0.0567557 -1.26537e-05 0)
(0.0567549 -1.39305e-05 0)
(0.0567541 -1.52019e-05 0)
(0.0567535 -1.64403e-05 0)
(0.056753 -1.76558e-05 0)
(0.0567527 -1.88309e-05 0)
(0.0567527 -1.99688e-05 0)
(0.0567605 -8.99549e-07 0)
(0.0567577 -2.10172e-06 0)
(0.0567574 -3.41886e-06 0)
(0.0567571 -4.75263e-06 0)
(0.0567566 -6.08395e-06 0)
(0.056756 -7.41722e-06 0)
(0.0567553 -8.73868e-06 0)
(0.0567546 -1.00607e-05 0)
(0.0567538 -1.13639e-05 0)
(0.056753 -1.26672e-05 0)
(0.0567522 -1.39456e-05 0)
(0.0567514 -1.52184e-05 0)
(0.0567508 -1.64585e-05 0)
(0.0567503 -1.76756e-05 0)
(0.05675 -1.88523e-05 0)
(0.0567499 -1.99919e-05 0)
(0.0567578 -9.00481e-07 0)
(0.056755 -2.10392e-06 0)
(0.0567547 -3.42244e-06 0)
(0.0567544 -4.7576e-06 0)
(0.0567538 -6.09033e-06 0)
(0.0567533 -7.42497e-06 0)
(0.0567526 -8.7479e-06 0)
(0.0567518 -1.00713e-05 0)
(0.056751 -1.1376e-05 0)
(0.0567502 -1.26807e-05 0)
(0.0567494 -1.39606e-05 0)
(0.0567487 -1.5235e-05 0)
(0.0567481 -1.64767e-05 0)
(0.0567476 -1.76954e-05 0)
(0.0567473 -1.88738e-05 0)
(0.0567472 -2.0015e-05 0)
(0.0567551 -9.01422e-07 0)
(0.0567523 -2.10615e-06 0)
(0.056752 -3.42607e-06 0)
(0.0567516 -4.76263e-06 0)
(0.0567511 -6.09682e-06 0)
(0.0567506 -7.43282e-06 0)
(0.0567499 -8.75725e-06 0)
(0.0567491 -1.00819e-05 0)
(0.0567483 -1.13883e-05 0)
(0.0567475 -1.26943e-05 0)
(0.0567467 -1.39759e-05 0)
(0.056746 -1.52518e-05 0)
(0.0567453 -1.6495e-05 0)
(0.0567448 -1.77154e-05 0)
(0.0567446 -1.88954e-05 0)
(0.0567445 -2.00384e-05 0)
(0.0567524 -9.02378e-07 0)
(0.0567496 -2.10847e-06 0)
(0.0567493 -3.42985e-06 0)
(0.0567489 -4.76785e-06 0)
(0.0567484 -6.10354e-06 0)
(0.0567478 -7.44095e-06 0)
(0.0567471 -8.76691e-06 0)
(0.0567464 -1.0093e-05 0)
(0.0567456 -1.14008e-05 0)
(0.0567448 -1.27083e-05 0)
(0.056744 -1.39914e-05 0)
(0.0567433 -1.52688e-05 0)
(0.0567426 -1.65136e-05 0)
(0.0567421 -1.77356e-05 0)
(0.0567418 -1.89173e-05 0)
(0.0567418 -2.00621e-05 0)
(0.0567497 -9.03373e-07 0)
(0.0567469 -2.11092e-06 0)
(0.0567466 -3.43382e-06 0)
(0.0567462 -4.77333e-06 0)
(0.0567457 -6.11058e-06 0)
(0.0567451 -7.4494e-06 0)
(0.0567444 -8.77693e-06 0)
(0.0567437 -1.01043e-05 0)
(0.0567429 -1.14138e-05 0)
(0.0567421 -1.27226e-05 0)
(0.0567413 -1.40073e-05 0)
(0.0567405 -1.52862e-05 0)
(0.0567399 -1.65326e-05 0)
(0.0567394 -1.77562e-05 0)
(0.0567391 -1.89396e-05 0)
(0.056739 -2.00862e-05 0)
(0.0567469 -9.04421e-07 0)
(0.0567441 -2.11355e-06 0)
(0.0567439 -3.43809e-06 0)
(0.0567435 -4.7792e-06 0)
(0.056743 -6.11812e-06 0)
(0.0567424 -7.45841e-06 0)
(0.0567417 -8.7876e-06 0)
(0.056741 -1.01164e-05 0)
(0.0567402 -1.14274e-05 0)
(0.0567393 -1.27376e-05 0)
(0.0567385 -1.40239e-05 0)
(0.0567378 -1.53042e-05 0)
(0.0567371 -1.65523e-05 0)
(0.0567366 -1.77775e-05 0)
(0.0567364 -1.89626e-05 0)
(0.0567363 -2.0111e-05 0)
(0.0567442 -9.05549e-07 0)
(0.0567414 -2.11645e-06 0)
(0.0567411 -3.44279e-06 0)
(0.0567408 -4.78564e-06 0)
(0.0567403 -6.12635e-06 0)
(0.0567397 -7.46823e-06 0)
(0.056739 -8.79916e-06 0)
(0.0567382 -1.01293e-05 0)
(0.0567374 -1.14421e-05 0)
(0.0567366 -1.27536e-05 0)
(0.0567358 -1.40415e-05 0)
(0.0567351 -1.53232e-05 0)
(0.0567344 -1.65729e-05 0)
(0.0567339 -1.77996e-05 0)
(0.0567336 -1.89864e-05 0)
(0.0567336 -2.01366e-05 0)
(0.0567415 -9.06792e-07 0)
(0.0567387 -2.11969e-06 0)
(0.0567384 -3.44805e-06 0)
(0.056738 -4.79283e-06 0)
(0.0567375 -6.13552e-06 0)
(0.0567369 -7.4791e-06 0)
(0.0567362 -8.8119e-06 0)
(0.0567355 -1.01435e-05 0)
(0.0567347 -1.1458e-05 0)
(0.0567339 -1.27709e-05 0)
(0.0567331 -1.40604e-05 0)
(0.0567323 -1.53435e-05 0)
(0.0567317 -1.65947e-05 0)
(0.0567312 -1.7823e-05 0)
(0.0567309 -1.90115e-05 0)
(0.0567308 -2.01636e-05 0)
(0.0567388 -9.08185e-07 0)
(0.056736 -2.12343e-06 0)
(0.0567357 -3.45409e-06 0)
(0.0567353 -4.80106e-06 0)
(0.0567348 -6.14599e-06 0)
(0.0567342 -7.49147e-06 0)
(0.0567335 -8.82633e-06 0)
(0.0567328 -1.01595e-05 0)
(0.056732 -1.14758e-05 0)
(0.0567311 -1.279e-05 0)
(0.0567303 -1.40812e-05 0)
(0.0567296 -1.53656e-05 0)
(0.0567289 -1.66183e-05 0)
(0.0567284 -1.78481e-05 0)
(0.0567281 -1.90382e-05 0)
(0.0567281 -2.01922e-05 0)
(0.0567361 -9.09785e-07 0)
(0.0567332 -2.12777e-06 0)
(0.056733 -3.4611e-06 0)
(0.0567326 -4.81061e-06 0)
(0.0567321 -6.15809e-06 0)
(0.0567315 -7.50571e-06 0)
(0.0567308 -8.84287e-06 0)
(0.05673 -1.01778e-05 0)
(0.0567292 -1.1496e-05 0)
(0.0567284 -1.28116e-05 0)
(0.0567276 -1.41044e-05 0)
(0.0567268 -1.53901e-05 0)
(0.0567262 -1.66443e-05 0)
(0.0567257 -1.78755e-05 0)
(0.0567254 -1.90671e-05 0)
(0.0567253 -2.0223e-05 0)
(0.0567333 -9.11648e-07 0)
(0.0567305 -2.13291e-06 0)
(0.0567302 -3.4694e-06 0)
(0.0567298 -4.82189e-06 0)
(0.0567293 -6.17236e-06 0)
(0.0567287 -7.52248e-06 0)
(0.056728 -8.86225e-06 0)
(0.0567273 -1.01991e-05 0)
(0.0567265 -1.15194e-05 0)
(0.0567257 -1.28365e-05 0)
(0.0567248 -1.4131e-05 0)
(0.0567241 -1.54178e-05 0)
(0.0567234 -1.66734e-05 0)
(0.0567229 -1.79059e-05 0)
(0.0567226 -1.9099e-05 0)
(0.0567225 -2.02567e-05 0)
(0.0567306 -9.13853e-07 0)
(0.0567278 -2.13904e-06 0)
(0.0567275 -3.47929e-06 0)
(0.0567271 -4.83533e-06 0)
(0.0567266 -6.18932e-06 0)
(0.056726 -7.54239e-06 0)
(0.0567253 -8.8852e-06 0)
(0.0567246 -1.02242e-05 0)
(0.0567237 -1.1547e-05 0)
(0.0567229 -1.28655e-05 0)
(0.0567221 -1.41618e-05 0)
(0.0567213 -1.54497e-05 0)
(0.0567207 -1.67066e-05 0)
(0.0567201 -1.79402e-05 0)
(0.0567198 -1.91346e-05 0)
(0.0567198 -2.02941e-05 0)
(0.0567279 -9.16484e-07 0)
(0.056725 -2.14642e-06 0)
(0.0567247 -3.49119e-06 0)
(0.0567244 -4.8515e-06 0)
(0.0567238 -6.2097e-06 0)
(0.0567233 -7.5663e-06 0)
(0.0567226 -8.91268e-06 0)
(0.0567218 -1.02543e-05 0)
(0.056721 -1.15798e-05 0)
(0.0567202 -1.28999e-05 0)
(0.0567193 -1.4198e-05 0)
(0.0567186 -1.54869e-05 0)
(0.0567179 -1.6745e-05 0)
(0.0567174 -1.79795e-05 0)
(0.0567171 -1.91751e-05 0)
(0.056717 -2.03362e-05 0)
(0.0567251 -9.1965e-07 0)
(0.0567223 -2.15528e-06 0)
(0.056722 -3.50547e-06 0)
(0.0567216 -4.87093e-06 0)
(0.0567211 -6.23417e-06 0)
(0.0567205 -7.59502e-06 0)
(0.0567198 -8.94565e-06 0)
(0.0567191 -1.02903e-05 0)
(0.0567182 -1.1619e-05 0)
(0.0567174 -1.2941e-05 0)
(0.0567166 -1.42412e-05 0)
(0.0567158 -1.5531e-05 0)
(0.0567151 -1.67902e-05 0)
(0.0567146 -1.80254e-05 0)
(0.0567143 -1.92218e-05 0)
(0.0567142 -2.03844e-05 0)
(0.0567223 -9.23451e-07 0)
(0.0567195 -2.16591e-06 0)
(0.0567192 -3.52263e-06 0)
(0.0567188 -4.89429e-06 0)
(0.0567183 -6.2636e-06 0)
(0.0567177 -7.62966e-06 0)
(0.056717 -8.9854e-06 0)
(0.0567163 -1.03338e-05 0)
(0.0567155 -1.16663e-05 0)
(0.0567147 -1.29905e-05 0)
(0.0567138 -1.42931e-05 0)
(0.0567131 -1.55837e-05 0)
(0.0567124 -1.68441e-05 0)
(0.0567118 -1.80795e-05 0)
(0.0567115 -1.92764e-05 0)
(0.0567114 -2.04402e-05 0)
(0.0567196 -9.28014e-07 0)
(0.0567167 -2.1786e-06 0)
(0.0567164 -3.54311e-06 0)
(0.0567161 -4.92223e-06 0)
(0.0567156 -6.29884e-06 0)
(0.056715 -7.67124e-06 0)
(0.0567143 -9.03318e-06 0)
(0.0567135 -1.03863e-05 0)
(0.0567127 -1.17235e-05 0)
(0.0567119 -1.30504e-05 0)
(0.0567111 -1.43558e-05 0)
(0.0567103 -1.56474e-05 0)
(0.0567096 -1.69087e-05 0)
(0.0567091 -1.81441e-05 0)
(0.0567087 -1.93412e-05 0)
(0.0567086 -2.05058e-05 0)
(0.0567168 -9.33457e-07 0)
(0.0567139 -2.1936e-06 0)
(0.0567136 -3.56736e-06 0)
(0.0567133 -4.95538e-06 0)
(0.0567128 -6.3407e-06 0)
(0.0567122 -7.72081e-06 0)
(0.0567115 -9.09027e-06 0)
(0.0567108 -1.04493e-05 0)
(0.0567099 -1.17922e-05 0)
(0.0567091 -1.31227e-05 0)
(0.0567083 -1.44318e-05 0)
(0.0567075 -1.57244e-05 0)
(0.0567068 -1.69871e-05 0)
(0.0567063 -1.8222e-05 0)
(0.056706 -1.94188e-05 0)
(0.0567058 -2.05836e-05 0)
(0.056714 -9.39893e-07 0)
(0.0567111 -2.21112e-06 0)
(0.0567108 -3.59572e-06 0)
(0.0567105 -4.99425e-06 0)
(0.05671 -6.38989e-06 0)
(0.0567094 -7.77933e-06 0)
(0.0567087 -9.15787e-06 0)
(0.056708 -1.05243e-05 0)
(0.0567072 -1.18745e-05 0)
(0.0567063 -1.32097e-05 0)
(0.0567055 -1.45235e-05 0)
(0.0567048 -1.58179e-05 0)
(0.0567041 -1.70823e-05 0)
(0.0567035 -1.83165e-05 0)
(0.0567032 -1.95125e-05 0)
(0.056703 -2.06766e-05 0)
(0.0567112 -9.47409e-07 0)
(0.0567083 -2.23128e-06 0)
(0.056708 -3.62839e-06 0)
(0.0567076 -5.03916e-06 0)
(0.0567072 -6.44688e-06 0)
(0.0567066 -7.84746e-06 0)
(0.0567059 -9.23691e-06 0)
(0.0567052 -1.06125e-05 0)
(0.0567044 -1.19718e-05 0)
(0.0567036 -1.33136e-05 0)
(0.0567027 -1.46339e-05 0)
(0.056702 -1.59312e-05 0)
(0.0567013 -1.71983e-05 0)
(0.0567007 -1.84317e-05 0)
(0.0567004 -1.96265e-05 0)
(0.0567002 -2.07884e-05 0)
(0.0567084 -9.56056e-07 0)
(0.0567054 -2.25404e-06 0)
(0.0567052 -3.66533e-06 0)
(0.0567048 -5.0901e-06 0)
(0.0567043 -6.5117e-06 0)
(0.0567037 -7.92538e-06 0)
(0.0567031 -9.32774e-06 0)
(0.0567024 -1.07148e-05 0)
(0.0567016 -1.20855e-05 0)
(0.0567008 -1.3436e-05 0)
(0.0567 -1.47654e-05 0)
(0.0566992 -1.60678e-05 0)
(0.0566985 -1.73403e-05 0)
(0.056698 -1.85743e-05 0)
(0.0566976 -1.97689e-05 0)
(0.0566974 -2.09277e-05 0)
(0.0567055 -9.65816e-07 0)
(0.0567025 -2.27916e-06 0)
(0.0567023 -3.70616e-06 0)
(0.0567019 -5.14658e-06 0)
(0.0567014 -6.58381e-06 0)
(0.0567009 -8.01252e-06 0)
(0.0567002 -9.42986e-06 0)
(0.0566995 -1.08307e-05 0)
(0.0566987 -1.22153e-05 0)
(0.056698 -1.35775e-05 0)
(0.0566972 -1.49194e-05 0)
(0.0566964 -1.62305e-05 0)
(0.0566957 -1.7513e-05 0)
(0.0566952 -1.87523e-05 0)
(0.0566948 -1.99527e-05 0)
(0.0566946 -2.11134e-05 0)
(0.0567026 -9.76585e-07 0)
(0.0566996 -2.30617e-06 0)
(0.0566994 -3.75012e-06 0)
(0.056699 -5.20756e-06 0)
(0.0566985 -6.66188e-06 0)
(0.056698 -8.10737e-06 0)
(0.0566974 -9.54154e-06 0)
(0.0566967 -1.09584e-05 0)
(0.0566959 -1.23595e-05 0)
(0.0566951 -1.37363e-05 0)
(0.0566943 -1.50942e-05 0)
(0.0566936 -1.64179e-05 0)
(0.056693 -1.77159e-05 0)
(0.0566924 -1.89666e-05 0)
(0.056692 -2.01822e-05 0)
(0.0566918 -2.13557e-05 0)
(0.0566997 -9.88162e-07 0)
(0.0566967 -2.33429e-06 0)
(0.0566964 -3.79595e-06 0)
(0.0566961 -5.2713e-06 0)
(0.0566956 -6.7437e-06 0)
(0.0566951 -8.20723e-06 0)
(0.0566944 -9.65959e-06 0)
(0.0566938 -1.10943e-05 0)
(0.056693 -1.25137e-05 0)
(0.0566923 -1.39076e-05 0)
(0.0566915 -1.5284e-05 0)
(0.0566908 -1.6623e-05 0)
(0.0566901 -1.79396e-05 0)
(0.0566896 -1.92034e-05 0)
(0.0566892 -2.04362e-05 0)
(0.056689 -2.16222e-05 0)
(0.0566967 -1.00021e-06 0)
(0.0566937 -2.36249e-06 0)
(0.0566934 -3.84196e-06 0)
(0.0566931 -5.33548e-06 0)
(0.0566926 -6.82626e-06 0)
(0.0566921 -8.30844e-06 0)
(0.0566915 -9.77965e-06 0)
(0.0566908 -1.12334e-05 0)
(0.0566901 -1.26721e-05 0)
(0.0566894 -1.40847e-05 0)
(0.0566886 -1.54813e-05 0)
(0.056688 -1.68371e-05 0)
(0.0566873 -1.81742e-05 0)
(0.0566868 -1.94511e-05 0)
(0.0566865 -2.07015e-05 0)
(0.0566862 -2.18977e-05 0)
(0.0566937 -1.01229e-06 0)
(0.0566906 -2.38946e-06 0)
(0.0566904 -3.88601e-06 0)
(0.0566901 -5.39706e-06 0)
(0.0566896 -6.90566e-06 0)
(0.0566891 -8.40619e-06 0)
(0.0566885 -9.89599e-06 0)
(0.0566879 -1.13689e-05 0)
(0.0566872 -1.28272e-05 0)
(0.0566865 -1.42593e-05 0)
(0.0566858 -1.56767e-05 0)
(0.0566851 -1.70501e-05 0)
(0.0566845 -1.84086e-05 0)
(0.056684 -1.96976e-05 0)
(0.0566837 -2.09665e-05 0)
(0.0566835 -2.21695e-05 0)
(0.0566907 -1.02384e-06 0)
(0.0566875 -2.41369e-06 0)
(0.0566873 -3.92563e-06 0)
(0.056687 -5.4526e-06 0)
(0.0566866 -6.97742e-06 0)
(0.0566861 -8.49496e-06 0)
(0.0566855 -1.0002e-05 0)
(0.0566849 -1.14932e-05 0)
(0.0566842 -1.297e-05 0)
(0.0566835 -1.44213e-05 0)
(0.0566828 -1.58588e-05 0)
(0.0566822 -1.72504e-05 0)
(0.0566816 -1.86299e-05 0)
(0.0566812 -1.99303e-05 0)
(0.0566809 -2.12196e-05 0)
(0.0566807 -2.24248e-05 0)
(0.0566876 -1.03422e-06 0)
(0.0566844 -2.43347e-06 0)
(0.0566842 -3.95801e-06 0)
(0.0566839 -5.4981e-06 0)
(0.0566835 -7.03632e-06 0)
(0.056683 -8.56821e-06 0)
(0.0566825 -1.00897e-05 0)
(0.0566818 -1.15968e-05 0)
(0.0566812 -1.30895e-05 0)
(0.0566805 -1.45585e-05 0)
(0.0566799 -1.6014e-05 0)
(0.0566793 -1.74238e-05 0)
(0.0566788 -1.88232e-05 0)
(0.0566784 -2.01362e-05 0)
(0.0566781 -2.14476e-05 0)
(0.056678 -2.26475e-05 0)
(0.0566845 -1.04269e-06 0)
(0.0566813 -2.44693e-06 0)
(0.0566811 -3.98006e-06 0)
(0.0566808 -5.52923e-06 0)
(0.0566804 -7.07671e-06 0)
(0.0566799 -8.61892e-06 0)
(0.0566794 -1.01506e-05 0)
(0.0566788 -1.16697e-05 0)
(0.0566782 -1.31742e-05 0)
(0.0566775 -1.46578e-05 0)
(0.0566769 -1.61279e-05 0)
(0.0566764 -1.75548e-05 0)
(0.0566759 -1.89719e-05 0)
(0.0566756 -2.03004e-05 0)
(0.0566753 -2.16282e-05 0)
(0.0566753 -2.28097e-05 0)
(0.0566813 -1.04844e-06 0)
(0.0566781 -2.4523e-06 0)
(0.0566779 -3.98892e-06 0)
(0.0566776 -5.542e-06 0)
(0.0566772 -7.09352e-06 0)
(0.0566768 -8.64103e-06 0)
(0.0566763 -1.01779e-05 0)
(0.0566757 -1.17047e-05 0)
(0.0566751 -1.32165e-05 0)
(0.0566745 -1.47097e-05 0)
(0.0566739 -1.61879e-05 0)
(0.0566734 -1.76258e-05 0)
(0.056673 -1.90522e-05 0)
(0.0566727 -2.03887e-05 0)
(0.0566726 -2.17153e-05 0)
(0.0566727 -2.28641e-05 0)
(0.0566782 -1.05073e-06 0)
(0.0566749 -2.44902e-06 0)
(0.0566747 -3.98366e-06 0)
(0.0566744 -5.53499e-06 0)
(0.056674 -7.0847e-06 0)
(0.0566736 -8.63136e-06 0)
(0.0566731 -1.01667e-05 0)
(0.0566726 -1.16942e-05 0)
(0.056672 -1.32045e-05 0)
(0.0566715 -1.46962e-05 0)
(0.0566709 -1.61677e-05 0)
(0.0566705 -1.75997e-05 0)
(0.0566701 -1.90126e-05 0)
(0.0566699 -2.03344e-05 0)
(0.0566699 -2.1637e-05 0)
(0.0566701 -2.2745e-05 0)
(0.0566749 -1.04931e-06 0)
(0.0566716 -2.4355e-06 0)
(0.0566715 -3.96136e-06 0)
(0.0566712 -5.50324e-06 0)
(0.0566708 -7.04231e-06 0)
(0.0566704 -8.57753e-06 0)
(0.05667 -1.00986e-05 0)
(0.0566695 -1.16105e-05 0)
(0.0566689 -1.31e-05 0)
(0.0566684 -1.45696e-05 0)
(0.056668 -1.6011e-05 0)
(0.0566676 -1.74127e-05 0)
(0.0566673 -1.87848e-05 0)
(0.0566672 -2.00686e-05 0)
(0.0566674 -2.1325e-05 0)
(0.0566677 -2.23883e-05 0)
(0.0566717 -1.04351e-06 0)
(0.0566684 -2.40376e-06 0)
(0.0566682 -3.90859e-06 0)
(0.056668 -5.42746e-06 0)
(0.0566677 -6.94056e-06 0)
(0.0566673 -8.44695e-06 0)
(0.0566668 -9.93433e-06 0)
(0.0566664 -1.14086e-05 0)
(0.0566659 -1.28542e-05 0)
(0.0566654 -1.42777e-05 0)
(0.056665 -1.56646e-05 0)
(0.0566647 -1.70118e-05 0)
(0.0566646 -1.83193e-05 0)
(0.0566646 -1.95451e-05 0)
(0.0566649 -2.07352e-05 0)
(0.0566655 -2.1748e-05 0)
(0.0566685 -1.02994e-06 0)
(0.0566652 -2.34336e-06 0)
(0.0566651 -3.80863e-06 0)
(0.0566648 -5.28506e-06 0)
(0.0566645 -6.7518e-06 0)
(0.0566642 -8.20802e-06 0)
(0.0566638 -9.63979e-06 0)
(0.0566634 -1.10543e-05 0)
(0.056663 -1.24339e-05 0)
(0.0566626 -1.37889e-05 0)
(0.0566622 -1.51002e-05 0)
(0.056662 -1.63733e-05 0)
(0.056662 -1.75985e-05 0)
(0.0566621 -1.87528e-05 0)
(0.0566626 -1.98649e-05 0)
(0.0566634 -2.08276e-05 0)
(0.0566653 -1.00415e-06 0)
(0.0566621 -2.24658e-06 0)
(0.056662 -3.64951e-06 0)
(0.0566618 -5.06071e-06 0)
(0.0566615 -6.45867e-06 0)
(0.0566612 -7.84277e-06 0)
(0.0566609 -9.19794e-06 0)
(0.0566605 -1.05326e-05 0)
(0.0566602 -1.18272e-05 0)
(0.0566599 -1.30962e-05 0)
(0.0566596 -1.4316e-05 0)
(0.0566595 -1.55013e-05 0)
(0.0566596 -1.66332e-05 0)
(0.0566598 -1.7709e-05 0)
(0.0566605 -1.87396e-05 0)
(0.0566614 -1.96578e-05 0)
(0.0566622 -9.62785e-07 0)
(0.0566592 -2.11115e-06 0)
(0.0566591 -3.42816e-06 0)
(0.0566589 -4.75123e-06 0)
(0.0566587 -6.05889e-06 0)
(0.0566584 -7.35087e-06 0)
(0.0566581 -8.61137e-06 0)
(0.0566579 -9.84987e-06 0)
(0.0566576 -1.10453e-05 0)
(0.0566574 -1.22155e-05 0)
(0.0566572 -1.33337e-05 0)
(0.0566572 -1.44229e-05 0)
(0.0566573 -1.54563e-05 0)
(0.0566577 -1.64511e-05 0)
(0.0566585 -1.74005e-05 0)
(0.0566596 -1.8279e-05 0)
(0.0566592 -9.04846e-07 0)
(0.0566565 -1.94147e-06 0)
(0.0566564 -3.15188e-06 0)
(0.0566562 -4.36711e-06 0)
(0.0566561 -5.56646e-06 0)
(0.0566558 -6.75003e-06 0)
(0.0566556 -7.90182e-06 0)
(0.0566554 -9.032e-06 0)
(0.0566552 -1.01186e-05 0)
(0.0566551 -1.1182e-05 0)
(0.056655 -1.21928e-05 0)
(0.0566551 -1.31818e-05 0)
(0.0566553 -1.4115e-05 0)
(0.0566559 -1.50289e-05 0)
(0.0566567 -1.58989e-05 0)
(0.0566579 -1.67408e-05 0)
(0.0566565 -8.32179e-07 0)
(0.056654 -1.74745e-06 0)
(0.0566539 -2.83663e-06 0)
(0.0566538 -3.93e-06 0)
(0.0566537 -5.00834e-06 0)
(0.0566535 -6.0721e-06 0)
(0.0566534 -7.10559e-06 0)
(0.0566532 -8.1194e-06 0)
(0.0566531 -9.09115e-06 0)
(0.056653 -1.00432e-05 0)
(0.0566531 -1.09443e-05 0)
(0.0566532 -1.18314e-05 0)
(0.0566536 -1.26651e-05 0)
(0.0566542 -1.34985e-05 0)
(0.0566551 -1.42912e-05 0)
(0.0566564 -1.50973e-05 0)
(0.0566541 -7.49033e-07 0)
(0.0566519 -1.54213e-06 0)
(0.0566518 -2.50317e-06 0)
(0.0566517 -3.46784e-06 0)
(0.0566516 -4.41879e-06 0)
(0.0566515 -5.35683e-06 0)
(0.0566514 -6.26706e-06 0)
(0.0566513 -7.16033e-06 0)
(0.0566513 -8.01454e-06 0)
(0.0566513 -8.85338e-06 0)
(0.0566514 -9.6444e-06 0)
(0.0566516 -1.04297e-05 0)
(0.056652 -1.11654e-05 0)
(0.0566527 -1.19187e-05 0)
(0.0566537 -1.26355e-05 0)
(0.056655 -1.34046e-05 0)
(0.0566519 -6.6102e-07 0)
(0.05665 -1.33875e-06 0)
(0.05665 -2.17262e-06 0)
(0.0566499 -3.00912e-06 0)
(0.0566499 -3.83291e-06 0)
(0.0566498 -4.64506e-06 0)
(0.0566497 -5.43184e-06 0)
(0.0566497 -6.20434e-06 0)
(0.0566497 -6.94132e-06 0)
(0.0566497 -7.66728e-06 0)
(0.0566499 -8.34969e-06 0)
(0.0566502 -9.03411e-06 0)
(0.0566507 -9.67402e-06 0)
(0.0566514 -1.03473e-05 0)
(0.0566524 -1.09892e-05 0)
(0.0566537 -1.17178e-05 0)
(0.05665 -5.73847e-07 0)
(0.0566485 -1.14818e-06 0)
(0.0566484 -1.86249e-06 0)
(0.0566484 -2.57784e-06 0)
(0.0566484 -3.28079e-06 0)
(0.0566483 -3.97248e-06 0)
(0.0566483 -4.64055e-06 0)
(0.0566483 -5.29617e-06 0)
(0.0566484 -5.91948e-06 0)
(0.0566485 -6.53532e-06 0)
(0.0566487 -7.11214e-06 0)
(0.056649 -7.69761e-06 0)
(0.0566495 -8.24435e-06 0)
(0.0566503 -8.83742e-06 0)
(0.0566513 -9.40509e-06 0)
(0.0566526 -1.00884e-05 0)
(0.0566485 -4.92179e-07 0)
(0.0566472 -9.77259e-07 0)
(0.0566472 -1.5841e-06 0)
(0.0566472 -2.19004e-06 0)
(0.0566472 -2.78335e-06 0)
(0.0566472 -3.36497e-06 0)
(0.0566472 -3.92387e-06 0)
(0.0566472 -4.47097e-06 0)
(0.0566473 -4.98792e-06 0)
(0.0566475 -5.49934e-06 0)
(0.0566477 -5.97565e-06 0)
(0.0566481 -6.4654e-06 0)
(0.0566486 -6.92229e-06 0)
(0.0566494 -7.4352e-06 0)
(0.0566503 -7.92936e-06 0)
(0.0566516 -8.56179e-06 0)
(0.0566472 -4.18957e-07 0)
(0.0566462 -8.28591e-07 0)
(0.0566462 -1.34202e-06 0)
(0.0566462 -1.85282e-06 0)
(0.0566462 -2.3507e-06 0)
(0.0566462 -2.83623e-06 0)
(0.0566463 -3.29948e-06 0)
(0.0566464 -3.7507e-06 0)
(0.0566465 -4.1728e-06 0)
(0.0566467 -4.58937e-06 0)
(0.056647 -4.97326e-06 0)
(0.0566474 -5.3726e-06 0)
(0.0566479 -5.7441e-06 0)
(0.0566486 -6.1774e-06 0)
(0.0566495 -6.59906e-06 0)
(0.0566507 -7.17447e-06 0)
(0.0566462 -3.55276e-07 0)