/*--------------------------------*- C++ -*----------------------------------*\
| =========                 |                                                 |
| \\      /  F ield         | OpenFOAM: The Open Source CFD Toolbox           |
|  \\    /   O peration     | Version:  4.1                                   |
|   \\  /    A nd           | Web:      www.OpenFOAM.org                      |
|    \\/     M anipulation  |                                                 |
\*---------------------------------------------------------------------------*/
FoamFile
{
    version     2.0;
    format      ascii;
    class       pointVectorField;
    location    "0.0000";
    object      pointDisplacement_Next;
}
// * * * * * * * * * * * * * * * * * * * * * * * * * * * * * * * * * * * * * //

dimensions      [0 1 0 0 0 0 0];

internalField   uniform (0 0 0);

boundaryField
{
    inlet
    {
        type            fixedValue;
        value           uniform (0 0 0);
    }
    outlet
    {
        type            fixedValue;
        value           nonuniform 0();
    }
    mantle
    {
        type            fixedValue;
        value           nonuniform List<vector> 
416
(
(2.6441e-14 -1.1976e-12 -4.184e-20)
(8.1886e-08 -2.9947e-06 -1.3542e-13)
(8.8504e-08 -2.8012e-06 4.8079e-07)
(-2.5734e-10 -1.8705e-08 -1.4566e-08)
(9.3564e-08 -2.5001e-06 1.048e-06)
(2.1969e-14 -2.005e-12 7.6936e-13)
(8.5519e-08 -2.3518e-06 1.6812e-06)
(-4.3753e-10 -4.9983e-09 2.4157e-08)
(7.7471e-08 -2.1662e-06 2.1662e-06)
(2.9064e-14 1.3563e-13 -1.3563e-13)
(8.5519e-08 -1.6812e-06 2.3518e-06)
(-4.3752e-10 -2.4157e-08 4.9982e-09)
(9.3564e-08 -1.048e-06 2.5001e-06)
(2.1969e-14 -7.6936e-13 2.005e-12)
(8.8504e-08 -4.808e-07 2.8012e-06)
(-2.5735e-10 1.4566e-08 1.8705e-08)
(8.1886e-08 -9.4939e-13 2.9947e-06)
(2.6441e-14 -3.5919e-19 1.1976e-12)
(2.049e-07 -4.2669e-06 -2.313e-13)
(2.1891e-07 -3.8971e-06 6.6226e-07)
(2.2862e-07 -3.4476e-06 1.4453e-06)
(2.1614e-07 -3.2848e-06 2.3565e-06)
(2.0019e-07 -3.1096e-06 3.1096e-06)
(2.1614e-07 -2.3565e-06 3.2848e-06)
(2.2862e-07 -1.4453e-06 3.4476e-06)
(2.1891e-07 -6.6226e-07 3.8971e-06)
(2.049e-07 -1.3813e-12 4.2669e-06)
(3.4071e-07 -2.7127e-06 -2.1408e-13)
(3.4492e-07 -2.5854e-06 4.5953e-07)
(3.5099e-07 -2.3694e-06 9.8931e-07)
(3.483e-07 -2.2272e-06 1.5673e-06)
(3.4555e-07 -2.0176e-06 2.0176e-06)
(3.483e-07 -1.5673e-06 2.2272e-06)
(3.5099e-07 -9.8931e-07 2.3694e-06)
(3.4492e-07 -4.5953e-07 2.5854e-06)
(3.4071e-07 -4.851e-13 2.7127e-06)
(3.2594e-07 -4.3177e-07 -1.5537e-13)
(3.2279e-07 -5.5366e-07 1.1849e-07)
(3.2992e-07 -6.0547e-07 2.4465e-07)
(3.3156e-07 -5.4682e-07 3.5016e-07)
(3.3935e-07 -3.9117e-07 3.9117e-07)
(3.3156e-07 -3.5016e-07 5.4682e-07)
(3.2992e-07 -2.4465e-07 6.0547e-07)
(3.2279e-07 -1.1848e-07 5.5366e-07)
(3.2594e-07 5.325e-13 4.3178e-07)
(8.8938e-08 3.5698e-07 -1.0172e-13)
(1.0722e-07 3.1817e-07 -6.7277e-08)
(1.2712e-07 2.6086e-07 -1.1446e-07)
(1.1427e-07 2.1742e-07 -1.4904e-07)
(9.9114e-08 1.896e-07 -1.896e-07)
(1.1427e-07 1.4904e-07 -2.1742e-07)
(1.2712e-07 1.1446e-07 -2.6086e-07)
(1.0722e-07 6.7279e-08 -3.1816e-07)
(8.8938e-08 4.6589e-13 -3.5697e-07)
(-1.2302e-07 1.2657e-07 8.6867e-14)
(-8.2565e-08 2.1372e-07 -7.8079e-08)
(-5.0622e-08 2.5762e-07 -1.0804e-07)
(-7.9851e-08 1.7069e-07 -7.3712e-08)
(-1.1962e-07 4.7036e-08 -4.7034e-08)
(-7.9851e-08 7.3716e-08 -1.7069e-07)
(-5.0622e-08 1.0804e-07 -2.5762e-07)
(-8.2566e-08 7.808e-08 -2.1372e-07)
(-1.2303e-07 9.0868e-14 -1.2656e-07)
(-7.5552e-08 -6.7423e-09 -5.6373e-14)
(-5.8202e-08 5.2615e-08 -4.5936e-08)
(-4.1107e-08 1.0625e-07 -4.1422e-08)
(-5.7e-08 4.984e-08 1.2637e-08)
(-7.3943e-08 -3.0971e-08 3.0973e-08)
(-5.7e-08 -1.2634e-08 -4.9841e-08)
(-4.1107e-08 4.1424e-08 -1.0625e-07)
(-5.8202e-08 4.5937e-08 -5.2611e-08)
(-7.5552e-08 -3.2446e-13 6.7508e-09)
(5.3846e-08 2.9251e-08 -8.3488e-14)
(4.9692e-08 4.5723e-08 -2.4077e-08)
(5.3273e-08 6.7173e-08 -2.4028e-08)
(5.1351e-08 4.0182e-08 -3.4564e-09)
(5.6326e-08 6.6653e-09 -6.664e-09)
(5.1351e-08 3.4592e-09 -4.0184e-08)
(5.3273e-08 2.403e-08 -6.7176e-08)
(4.9692e-08 2.4077e-08 -4.572e-08)
(5.3847e-08 -3.4651e-13 -2.9241e-08)
(5.1933e-08 3.4586e-08 2.0462e-10)
(5.6988e-08 3.6369e-08 -1.2012e-08)
(6.3006e-08 3.9758e-08 -1.3719e-08)
(5.8794e-08 3.1121e-08 -1.0944e-08)
(5.4526e-08 1.8338e-08 -1.8631e-08)
(5.8794e-08 1.0946e-08 -3.1125e-08)
(6.3007e-08 1.3721e-08 -3.9762e-08)
(5.6988e-08 1.2013e-08 -3.637e-08)
(5.1935e-08 -2.0411e-10 -3.4582e-08)
(-1.4555e-08 -3.4819e-08 4.2592e-13)
(1.4933e-09 -3.7553e-08 1.0925e-08)
(1.4766e-08 -3.8035e-08 1.7182e-08)
(2.8641e-09 -3.4044e-08 2.079e-08)
(-1.2586e-08 -2.5384e-08 2.5384e-08)
(2.8641e-09 -2.0787e-08 3.4038e-08)
(1.4766e-08 -1.7179e-08 3.8028e-08)
(1.4942e-09 -1.0922e-08 3.7547e-08)
(-1.4554e-08 8.7674e-13 3.4815e-08)
(-1.7174e-08 -1.4716e-07 2.7248e-12)
(-1.0061e-08 -1.4842e-07 3.3011e-08)
(-3.1496e-09 -1.4421e-07 6.0169e-08)
(-9.2925e-09 -1.2625e-07 8.084e-08)
(-1.6077e-08 -1.0179e-07 1.0179e-07)
(-9.2927e-09 -8.0838e-08 1.2624e-07)
(-3.15e-09 -6.0165e-08 1.442e-07)
(-1.0061e-08 -3.3008e-08 1.4841e-07)
(-1.7174e-08 -1.1725e-12 1.4715e-07)
(1.3498e-08 -2.6113e-07 5.2249e-13)
(1.2322e-08 -2.5858e-07 5.431e-08)
(1.3026e-08 -2.4796e-07 1.0263e-07)
(1.2619e-08 -2.1807e-07 1.4205e-07)
(1.3891e-08 -1.8056e-07 1.8056e-07)
(1.2618e-08 -1.4205e-07 2.1806e-07)
(1.3025e-08 -1.0263e-07 2.4795e-07)
(1.232e-08 -5.4306e-08 2.5857e-07)
(1.3496e-08 9.8661e-13 2.6112e-07)
(8.8504e-08 4.8079e-07 2.8012e-06)
(-2.5735e-10 -1.4566e-08 1.8705e-08)
(9.3564e-08 1.048e-06 2.5001e-06)
(2.1969e-14 7.6936e-13 2.005e-12)
(8.5519e-08 1.6812e-06 2.3518e-06)
(-4.3752e-10 2.4157e-08 4.9982e-09)
(7.7471e-08 2.1662e-06 2.1662e-06)
(2.9064e-14 -1.3563e-13 -1.3563e-13)
(8.5519e-08 2.3518e-06 1.6812e-06)
(-4.3752e-10 4.9983e-09 2.4157e-08)
(9.3564e-08 2.5001e-06 1.048e-06)
(2.1969e-14 2.005e-12 7.6936e-13)
(8.8504e-08 2.8012e-06 4.8079e-07)
(-2.5734e-10 1.8705e-08 -1.4566e-08)
(8.1886e-08 2.9947e-06 -2.1394e-13)
(2.6441e-14 1.1976e-12 -3.2585e-20)
(2.1891e-07 6.6226e-07 3.8971e-06)
(2.2862e-07 1.4453e-06 3.4476e-06)
(2.1614e-07 2.3565e-06 3.2848e-06)
(2.0019e-07 3.1096e-06 3.1096e-06)
(2.1614e-07 3.2848e-06 2.3565e-06)
(2.2862e-07 3.4476e-06 1.4453e-06)
(2.1891e-07 3.8971e-06 6.6226e-07)
(2.049e-07 4.2669e-06 -4.8561e-13)
(3.4492e-07 4.5953e-07 2.5855e-06)
(3.5099e-07 9.8931e-07 2.3694e-06)
(3.483e-07 1.5673e-06 2.2272e-06)
(3.4555e-07 2.0176e-06 2.0176e-06)
(3.483e-07 2.2272e-06 1.5673e-06)
(3.5099e-07 2.3694e-06 9.8931e-07)
(3.4492e-07 2.5854e-06 4.5953e-07)
(3.4071e-07 2.7127e-06 -3.2378e-13)
(3.2279e-07 1.1849e-07 5.5367e-07)
(3.2992e-07 2.4465e-07 6.0547e-07)
(3.3156e-07 3.5016e-07 5.4682e-07)
(3.3935e-07 3.9117e-07 3.9117e-07)
(3.3156e-07 5.4682e-07 3.5016e-07)
(3.2992e-07 6.0547e-07 2.4465e-07)
(3.2279e-07 5.5366e-07 1.1849e-07)
(3.2594e-07 4.3178e-07 -2.876e-14)
(1.0722e-07 -6.7277e-08 -3.1816e-07)
(1.2712e-07 -1.1446e-07 -2.6086e-07)
(1.1427e-07 -1.4904e-07 -2.1742e-07)
(9.9114e-08 -1.896e-07 -1.896e-07)
(1.1427e-07 -2.1742e-07 -1.4904e-07)
(1.2712e-07 -2.6086e-07 -1.1446e-07)
(1.0722e-07 -3.1816e-07 -6.7277e-08)
(8.8938e-08 -3.5698e-07 -2.7452e-13)
(-8.2566e-08 -7.808e-08 -2.1372e-07)
(-5.0622e-08 -1.0804e-07 -2.5762e-07)
(-7.9851e-08 -7.3714e-08 -1.7069e-07)
(-1.1962e-07 -4.7035e-08 -4.7034e-08)
(-7.9851e-08 -1.7069e-07 -7.3714e-08)
(-5.0622e-08 -2.5762e-07 -1.0804e-07)
(-8.2566e-08 -2.1372e-07 -7.808e-08)
(-1.2302e-07 -1.2656e-07 -2.3935e-13)
(-5.8203e-08 -4.5936e-08 -5.2606e-08)
(-4.1108e-08 -4.1422e-08 -1.0624e-07)
(-5.7001e-08 1.2636e-08 -4.9837e-08)
(-7.3943e-08 3.0972e-08 3.0972e-08)
(-5.7001e-08 -4.9839e-08 1.2635e-08)
(-4.1107e-08 -1.0625e-07 -4.1422e-08)
(-5.8202e-08 -5.2612e-08 -4.5937e-08)
(-7.5552e-08 6.7453e-09 -1.3783e-13)
(4.9692e-08 -2.4076e-08 -4.5712e-08)
(5.3273e-08 -2.4026e-08 -6.7166e-08)
(5.135e-08 -3.4557e-09 -4.0178e-08)
(5.6324e-08 -6.6632e-09 -6.6633e-09)
(5.135e-08 -4.0179e-08 -3.4568e-09)
(5.3273e-08 -6.717e-08 -2.4027e-08)
(4.9692e-08 -4.572e-08 -2.4076e-08)
(5.3847e-08 -2.9249e-08 -1.4014e-13)
(5.6988e-08 -1.2011e-08 -3.6363e-08)
(6.3006e-08 -1.3716e-08 -3.9753e-08)
(5.8793e-08 -1.094e-08 -3.1116e-08)
(5.4525e-08 -1.8332e-08 -1.8625e-08)
(5.8793e-08 -3.1117e-08 -1.0941e-08)
(6.3006e-08 -3.9755e-08 -1.3717e-08)
(5.6988e-08 -3.6368e-08 -1.2012e-08)
(5.1934e-08 -3.4587e-08 2.0418e-10)
(1.4944e-09 1.0925e-08 3.7551e-08)
(1.4766e-08 1.7183e-08 3.8034e-08)
(2.8643e-09 2.0794e-08 3.4047e-08)
(-1.2586e-08 2.5392e-08 2.5392e-08)
(2.8641e-09 3.4048e-08 2.0795e-08)
(1.4766e-08 3.8036e-08 1.7184e-08)
(1.4935e-09 3.7551e-08 1.0924e-08)
(-1.4555e-08 3.4815e-08 -4.1902e-13)
(-1.0061e-08 3.3009e-08 1.4841e-07)
(-3.1492e-09 6.0166e-08 1.442e-07)
(-9.2919e-09 8.0841e-08 1.2624e-07)
(-1.6076e-08 1.0179e-07 1.018e-07)
(-9.292e-09 1.2625e-07 8.0844e-08)
(-3.1496e-09 1.442e-07 6.0168e-08)
(-1.0061e-08 1.4842e-07 3.3009e-08)
(-1.7175e-08 1.4715e-07 -2.4988e-12)
(1.2321e-08 5.4306e-08 2.5857e-07)
(1.3025e-08 1.0263e-07 2.4795e-07)
(1.2619e-08 1.4205e-07 2.1806e-07)
(1.3891e-08 1.8056e-07 1.8056e-07)
(1.2619e-08 2.1807e-07 1.4205e-07)
(1.3026e-08 2.4795e-07 1.0263e-07)
(1.2321e-08 2.5857e-07 5.4306e-08)
(1.3497e-08 2.6113e-07 -3.1216e-13)
(8.8504e-08 2.8012e-06 -4.8079e-07)
(-2.5734e-10 1.8705e-08 1.4566e-08)
(9.3564e-08 2.5001e-06 -1.048e-06)
(2.1969e-14 2.005e-12 -7.6936e-13)
(8.5519e-08 2.3518e-06 -1.6812e-06)
(-4.3753e-10 4.9983e-09 -2.4157e-08)
(7.7471e-08 2.1662e-06 -2.1662e-06)
(2.9064e-14 -1.3563e-13 1.3563e-13)
(8.5519e-08 1.6812e-06 -2.3518e-06)
(-4.3752e-10 2.4157e-08 -4.9982e-09)
(9.3564e-08 1.048e-06 -2.5001e-06)
(2.1969e-14 7.6936e-13 -2.005e-12)
(8.8504e-08 4.8079e-07 -2.8012e-06)
(-2.5735e-10 -1.4566e-08 -1.8705e-08)
(8.1886e-08 -3.3991e-13 -2.9947e-06)
(2.6441e-14 -1.8745e-19 -1.1976e-12)
(2.1891e-07 3.8971e-06 -6.6226e-07)
(2.2862e-07 3.4476e-06 -1.4453e-06)
(2.1614e-07 3.2848e-06 -2.3565e-06)
(2.0019e-07 3.1096e-06 -3.1096e-06)
(2.1614e-07 2.3565e-06 -3.2848e-06)
(2.2862e-07 1.4453e-06 -3.4476e-06)
(2.1891e-07 6.6226e-07 -3.8971e-06)
(2.049e-07 -3.1766e-13 -4.267e-06)
(3.4492e-07 2.5854e-06 -4.5953e-07)
(3.5099e-07 2.3694e-06 -9.8932e-07)
(3.483e-07 2.2272e-06 -1.5673e-06)
(3.4555e-07 2.0176e-06 -2.0176e-06)
(3.483e-07 1.5673e-06 -2.2272e-06)
(3.5099e-07 9.8932e-07 -2.3695e-06)
(3.4492e-07 4.5953e-07 -2.5855e-06)
(3.4071e-07 -4.9332e-14 -2.7127e-06)
(3.2279e-07 5.5367e-07 -1.1849e-07)
(3.2992e-07 6.0548e-07 -2.4466e-07)
(3.3156e-07 5.4683e-07 -3.5016e-07)
(3.3935e-07 3.9117e-07 -3.9118e-07)
(3.3156e-07 3.5016e-07 -5.4683e-07)
(3.2992e-07 2.4466e-07 -6.0548e-07)
(3.2279e-07 1.1849e-07 -5.5368e-07)
(3.2594e-07 -1.2368e-13 -4.3179e-07)
(1.0722e-07 -3.1816e-07 6.7276e-08)
(1.2712e-07 -2.6085e-07 1.1446e-07)
(1.1427e-07 -2.1742e-07 1.4904e-07)
(9.9114e-08 -1.8959e-07 1.8959e-07)
(1.1427e-07 -1.4904e-07 2.1742e-07)
(1.2712e-07 -1.1446e-07 2.6085e-07)
(1.0722e-07 -6.7276e-08 3.1815e-07)
(8.8939e-08 -1.9885e-13 3.5697e-07)
(-8.2565e-08 -2.1372e-07 7.8079e-08)
(-5.0622e-08 -2.5762e-07 1.0804e-07)
(-7.985e-08 -1.7069e-07 7.3712e-08)
(-1.1962e-07 -4.7033e-08 4.7032e-08)
(-7.9851e-08 -7.3712e-08 1.7069e-07)
(-5.0622e-08 -1.0804e-07 2.5762e-07)
(-8.2565e-08 -7.8079e-08 2.1371e-07)
(-1.2302e-07 -2.0504e-13 1.2656e-07)
(-5.8202e-08 -5.2612e-08 4.5936e-08)
(-4.1107e-08 -1.0625e-07 4.1422e-08)
(-5.7001e-08 -4.9838e-08 -1.2636e-08)
(-7.3944e-08 3.0973e-08 -3.0973e-08)
(-5.7001e-08 1.2637e-08 4.9836e-08)
(-4.1108e-08 -4.1421e-08 1.0624e-07)
(-5.8202e-08 -4.5936e-08 5.2606e-08)
(-7.5552e-08 9.4346e-14 -6.7499e-09)
(4.9692e-08 -4.572e-08 2.4076e-08)
(5.3273e-08 -6.717e-08 2.4027e-08)
(5.135e-08 -4.0178e-08 3.4556e-09)
(5.6323e-08 -6.6616e-09 6.6611e-09)
(5.1349e-08 -3.4545e-09 4.0176e-08)
(5.3272e-08 -2.4025e-08 6.7166e-08)
(4.9691e-08 -2.4075e-08 4.5714e-08)
(5.3847e-08 7.2345e-13 2.9243e-08)
(5.6988e-08 -3.637e-08 1.2011e-08)
(6.3006e-08 -3.9756e-08 1.3717e-08)
(5.8793e-08 -3.1116e-08 1.094e-08)
(5.4525e-08 -1.8329e-08 1.8623e-08)
(5.8793e-08 -1.0938e-08 3.1113e-08)
(6.3006e-08 -1.3715e-08 3.9751e-08)
(5.6988e-08 -1.201e-08 3.6363e-08)
(5.1934e-08 -2.0349e-10 3.4581e-08)
(1.4935e-09 3.7549e-08 -1.0924e-08)
(1.4766e-08 3.8033e-08 -1.7183e-08)
(2.8643e-09 3.4048e-08 -2.0795e-08)
(-1.2586e-08 2.5395e-08 -2.5394e-08)
(2.8644e-09 2.0797e-08 -3.4051e-08)
(1.4766e-08 1.7185e-08 -3.8039e-08)
(1.494e-09 1.0926e-08 -3.7554e-08)
(-1.4554e-08 8.9239e-13 -3.4818e-08)
(-1.0061e-08 1.4841e-07 -3.3008e-08)
(-3.1495e-09 1.442e-07 -6.0166e-08)
(-9.2919e-09 1.2624e-07 -8.0841e-08)
(-1.6076e-08 1.018e-07 -1.018e-07)
(-9.2917e-09 8.0844e-08 -1.2625e-07)
(-3.1491e-09 6.0168e-08 -1.442e-07)
(-1.0061e-08 3.301e-08 -1.4842e-07)
(-1.7174e-08 -1.188e-12 -1.4715e-07)
(1.2321e-08 2.5857e-07 -5.4305e-08)
(1.3025e-08 2.4795e-07 -1.0263e-07)
(1.2619e-08 2.1806e-07 -1.4205e-07)
(1.3891e-08 1.8056e-07 -1.8056e-07)
(1.2619e-08 1.4205e-07 -2.1806e-07)
(1.3026e-08 1.0263e-07 -2.4795e-07)
(1.2321e-08 5.4307e-08 -2.5857e-07)
(1.3497e-08 1.4422e-12 -2.6112e-07)
(8.8504e-08 -4.8079e-07 -2.8012e-06)
(-2.5735e-10 1.4566e-08 -1.8705e-08)
(9.3564e-08 -1.048e-06 -2.5001e-06)
(2.1969e-14 -7.6936e-13 -2.005e-12)
(8.5519e-08 -1.6812e-06 -2.3518e-06)
(-4.3752e-10 -2.4157e-08 -4.9982e-09)
(7.7471e-08 -2.1662e-06 -2.1662e-06)
(2.9064e-14 1.3563e-13 1.3563e-13)
(8.5519e-08 -2.3518e-06 -1.6812e-06)
(-4.3752e-10 -4.9983e-09 -2.4157e-08)
(9.3564e-08 -2.5001e-06 -1.048e-06)
(2.1969e-14 -2.005e-12 -7.6936e-13)
(8.8504e-08 -2.8012e-06 -4.8079e-07)
(-2.5734e-10 -1.8705e-08 1.4566e-08)
(2.1891e-07 -6.6226e-07 -3.8971e-06)
(2.2862e-07 -1.4453e-06 -3.4476e-06)
(2.1614e-07 -2.3565e-06 -3.2848e-06)
(2.0019e-07 -3.1096e-06 -3.1096e-06)
(2.1614e-07 -3.2848e-06 -2.3565e-06)
(2.2862e-07 -3.4476e-06 -1.4453e-06)
(2.1891e-07 -3.8971e-06 -6.6226e-07)
(3.4492e-07 -4.5953e-07 -2.5855e-06)
(3.5099e-07 -9.8931e-07 -2.3694e-06)
(3.483e-07 -1.5673e-06 -2.2272e-06)
(3.4555e-07 -2.0176e-06 -2.0176e-06)
(3.483e-07 -2.2272e-06 -1.5673e-06)
(3.5099e-07 -2.3694e-06 -9.8931e-07)
(3.4492e-07 -2.5854e-06 -4.5953e-07)
(3.2279e-07 -1.1849e-07 -5.5367e-07)
(3.2992e-07 -2.4465e-07 -6.0547e-07)
(3.3156e-07 -3.5016e-07 -5.4682e-07)
(3.3935e-07 -3.9117e-07 -3.9117e-07)
(3.3156e-07 -5.4682e-07 -3.5016e-07)
(3.2992e-07 -6.0547e-07 -2.4465e-07)
(3.2279e-07 -5.5366e-07 -1.1849e-07)
(1.0722e-07 6.7278e-08 3.1816e-07)
(1.2712e-07 1.1446e-07 2.6086e-07)
(1.1427e-07 1.4904e-07 2.1743e-07)
(9.9113e-08 1.896e-07 1.896e-07)
(1.1427e-07 2.1742e-07 1.4904e-07)
(1.2712e-07 2.6086e-07 1.1446e-07)
(1.0722e-07 3.1817e-07 6.7278e-08)
(-8.2565e-08 7.808e-08 2.1372e-07)
(-5.0622e-08 1.0804e-07 2.5762e-07)
(-7.9851e-08 7.3716e-08 1.7069e-07)
(-1.1962e-07 4.7036e-08 4.7034e-08)
(-7.9851e-08 1.7069e-07 7.3712e-08)
(-5.0622e-08 2.5762e-07 1.0804e-07)
(-8.2565e-08 2.1372e-07 7.8079e-08)
(-5.8202e-08 4.5937e-08 5.2611e-08)
(-4.1107e-08 4.1423e-08 1.0625e-07)
(-5.7e-08 -1.2633e-08 4.9841e-08)
(-7.3942e-08 -3.097e-08 -3.0971e-08)
(-5.7e-08 4.9841e-08 -1.2636e-08)
(-4.1107e-08 1.0625e-07 4.1422e-08)
(-5.8202e-08 5.2614e-08 4.5936e-08)
(4.9692e-08 2.4077e-08 4.5719e-08)
(5.3273e-08 2.4029e-08 6.7173e-08)
(5.1351e-08 3.4595e-09 4.0184e-08)
(5.6325e-08 6.6667e-09 6.6663e-09)
(5.1351e-08 4.0182e-08 3.4581e-09)
(5.3273e-08 6.7173e-08 2.4028e-08)
(4.9692e-08 4.5722e-08 2.4076e-08)
(5.6988e-08 1.2012e-08 3.6367e-08)
(6.3006e-08 1.372e-08 3.9758e-08)
(5.8794e-08 1.0946e-08 3.1123e-08)
(5.4526e-08 1.8338e-08 1.8631e-08)
(5.8794e-08 3.1121e-08 1.0945e-08)
(6.3006e-08 3.9756e-08 1.3719e-08)
(5.6987e-08 3.6368e-08 1.2012e-08)
(1.4938e-09 -1.0924e-08 -3.7551e-08)
(1.4766e-08 -1.7181e-08 -3.8033e-08)
(2.8639e-09 -2.0789e-08 -3.4042e-08)
(-1.2587e-08 -2.5385e-08 -2.5385e-08)
(2.8639e-09 -3.4045e-08 -2.079e-08)
(1.4766e-08 -3.8038e-08 -1.7183e-08)
(1.4933e-09 -3.7555e-08 -1.0925e-08)
(-1.0061e-08 -3.3009e-08 -1.4842e-07)
(-3.1495e-09 -6.0167e-08 -1.442e-07)
(-9.2925e-09 -8.0838e-08 -1.2624e-07)
(-1.6077e-08 -1.0179e-07 -1.0179e-07)
(-9.2924e-09 -1.2625e-07 -8.0841e-08)
(-3.1495e-09 -1.4421e-07 -6.017e-08)
(-1.0061e-08 -1.4842e-07 -3.3011e-08)
(1.2321e-08 -5.4307e-08 -2.5857e-07)
(1.3026e-08 -1.0263e-07 -2.4795e-07)
(1.2619e-08 -1.4205e-07 -2.1806e-07)
(1.3891e-08 -1.8056e-07 -1.8056e-07)
(1.2619e-08 -2.1807e-07 -1.4205e-07)
(1.3026e-08 -2.4796e-07 -1.0264e-07)
(1.2322e-08 -2.5858e-07 -5.431e-08)
)
;
    }
    procBoundary0to1
    {
        type            processor;
    }
}


// ************************************************************************* //
