/*--------------------------------*- C++ -*----------------------------------*\
  =========                 |
  \\      /  F ield         | OpenFOAM: The Open Source CFD Toolbox
   \\    /   O peration     | Website:  https://openfoam.org
    \\  /    A nd           | Version:  8
     \\/     M anipulation  |
\*---------------------------------------------------------------------------*/
FoamFile
{
    version     2.0;
    format      ascii;
    class       volScalarField;
    location    "0.0125000";
    object      p;
}
// * * * * * * * * * * * * * * * * * * * * * * * * * * * * * * * * * * * * * //

dimensions      [0 2 -2 0 0 0 0];

internalField   nonuniform List<scalar> 
900
(
1165551.89150034
3536579.94560072
6001836.74923381
8511312.26577811
11079947.2482097
13709454.1523266
16402081.550147
19159963.3239713
21985310.2336679
24880342.6917215
27847524.064891
30889538.6523144
34009171.3408823
37209235.9809458
40492853.8481559
43863306.4205708
47323849.5539715
50878095.4319875
54529831.4118889
58282961.2143741
62141672.6338126
66110372.4296281
70193648.1941166
74396287.4823934
78723575.1288516
83181059.9696437
87774343.7246216
92509582.7653322
97393367.4426471
102432528.12702
107634250.604328
113006398.080485
118557350.296227
124295540.19938
130230460.847792
136372283.853698
142731292.579646
149318835.430103
156147241.986458
163229414.642273
170578882.67848
178210704.807887
186141252.625803
194386833.064555
202966074.379959
211899159.926508
221206715.313988
230911658.971179
241039243.857543
251616147.511916
262670266.223272
274233403.262837
286340601.627887
299025971.796601
312330259.195061
326298054.677594
340974264.313714
356409614.927571
372661132.174916
389789226.087983
407856663.262872
426936719.966908
447110939.912459
468456739.548147
491068914.182522
515052076.74245
540507890.79952
567554819.663397
596318686.124535
626940685.731179
659540372.494582
694296457.142963
731315348.167949
770817430.109977
812779168.336426
857601569.706373
904792277.984732
955273959.899841
1007102013.76528
1062844716.9738
1116036709.46086
1174755381.77475
1217501471.69049
1270449112.27351
1262229206.59191
1275017049.82734
1047351153.74055
968975691.219914
802889650.993381
701520679.964119
569715065.559948
470598185.200238
366033743.574586
282115299.833632
203545613.84187
141695768.779295
89470288.9032316
50375185.3478282
21750417.6425927
3338995.41301715
1190706.81652944
3554991.35776187
6024002.98840487
8535427.87250429
11105206.9953187
13735312.9000073
16428320.4476663
19186447.1070033
22011963.223559
24907165.5436265
27874531.1410274
30916724.2909553
34036518.5114876
37236776.7413807
40520590.6045818
43891207.2745338
47351947.3224717
50906392.6983516
54558314.2878889
58311635.441795
62170540.2957951
66139423.183055
70222866.8414186
74425716.5831903
78753208.8224773
83210848.1633904
87804319.8428847
92539755.7159715
97423706.3907808
102463018.736729
107664924.88169
113037249.824268
118588297.717283
124326654.470771
130261739.800936
136403628.36411
142762745.627938
149350414.350585
156178883.276804
163261058.758394
170610596.156352
178242486.233487
186172883.501595
194418451.553843
202997663.354275
211930510.333627
221237887.090232
230942679.343766
241069960.859213
251646371.73576
262700149.025272
274262926.83131
286369166.028077
299053965.075571
312357603.849602
326324167.18379
340999237.015166
356433514.065965
372683554.322789
389809615.316193
407875380.609268
426953681.248117
447124563.761434
468467970.191406
491077433.92299
515056444.008205
540508255.282867
567551182.35956
596309971.255088
626925647.432958
659519657.334509
694269266.858402
731279101.741101
770773323.778326
812725664.750817
857536893.25079
904717181.357502
955185369.157569
1006999222.01218
1062730371.72878
1115910913.26187
1174599973.36869
1217359660.67883
1270297608.68906
1262112835.61083
1274932004.51427
1047602392.51621
969211956.470843
803108694.870098
701709419.440019
569899526.105997
470744978.135306
366179814.251354
282234011.472587
203635743.701524
141778764.723423
89536976.8624598
50424179.4006913
21785972.6420843
3355275.11485625
1189212.97945128
3561925.27166529
6038371.37639762
8551386.31488188
11122072.9602861
13752671.1637389
16445975.5227698
19204283.4658552
22029916.2395485
24925222.1245108
27892695.0873997
30934989.6394888
34054877.7920315
37255243.3896429
40539164.2062435
43909873.8539775
47370718.9685299
50925270.6969936
54577291.2557398
58330713.1965474
62189711.7893839
66158676.3373813
70242201.8608762
74445151.094807
78772733.0994255
83230435.9639018
87823980.7841716
92559492.1665587
97443496.9366756
102482852.037354
107684811.909829
113057175.717722
118608222.877056
124346601.324865
130281698.48766
136423545.367385
142782626.762545
149370261.064386
156198648.886792
163280704.825837
170630141.821754
178261903.190185
186192069.5343
194437428.400075
203016403.180939
211948907.575604
221255932.460761
230960358.91699
241087160.791489
251662982.875467
262716198.71885
274278321.31381
286383649.671785
299067600.172487
312370300.638701
326335628.111953
341009396.40261
356442319.912105
372690716.04534
389814841.654235
407878675.549358
426954775.558766
447122873.999112
468463516.684789
491069936.79939
515045255.487807
540493101.959859
567531816.851322
596285706.35056
626895917.871425
659484116.493604
694227369.059994
731229799.335545
770716488.011804
812660151.736416
857462866.263697
904632732.168259
955092136.771811
1006894098.33702
1062618910.94498
1115785814.53748
1174478133.8995
1217227723.08688
1270195339.34868
1262024698.36775
1275036703.58231
1047860497.48066
969462439.096944
803348423.137015
701924721.998608
570089291.650109
470915832.593205
366320851.63519
282355524.601364
203740573.562081
141859163.890043
89600107.0568229
50475682.6218376
21826616.8385187
3388850.84918348
1183359.38649963
3561383.65798307
6038225.19624118
8551260.57292236
11122018.9380123
13752715.1879184
16446070.2981484
19204370.2495304
22029948.2183931
24925179.8618674
27892572.2279432
30934776.7779345
34054567.1196491
37254836.54133
40538656.2249738
43909254.1527125
47369987.7297155
50924423.9516954
54576320.0008816
58329612.7431194
62188470.9494444
66157281.2788572
70240649.1217508
74443442.2096424
78770854.7667183
83228367.8673349
87821718.4377674
92557028.8355579
97440811.9523885
102479930.245058
107681649.137143
113053751.404463
118604507.849643
124342593.438235
130277379.549524
136418875.450952
142777592.825694
149364850.130427
156192818.828407
163274419.766765
170623394.645295
178254654.776952
186184252.871826
194429024.900979
203007375.560251
211939180.590913
221245471.028753
230949129.251909
241075067.549947
251649940.85721
262702189.600127
274263242.029707
286367347.875128
299050049.213316
312351410.796191
326315200.210286
340987336.242409
356418551.261202
372665014.294956
389787006.379937
407848645.167748
426922300.098478
447087633.126411
468425397.71719
491028729.323892
515000558.725887
540444671.420471
567479466.606274
596228980.478758
626834511.811687
659417760.361881
694155794.741686
731152463.457801
770633478.848055
812570838.54035
857368107.207173
904531180.125455
954986707.404601
1006782392.25117
1062508994.63071
1115670787.76028
1174381739.67302
1217134091.4424
1270164267.55745
1262032079.18329
1275295646.72901
1048097405.92393
969691212.445029
803568622.368102
702117414.068913
570260534.496165
471064899.67757
366445206.928355
282459704.592858
203827219.142775
141925547.128025
89651045.1212496
50515170.2600723
21858840.4391282
3406708.09076165
1184109.53348266
3558998.67970233
6025630.55191444
8536680.71790362
11106684.4806142
13737100.8200344
16430270.8752862
19188372.3967005
22013716.2325051
24908691.585354
27875814.9103074
30917737.063649
34037233.3803968
37237204.0182497
40520715.5543276
43890991.7417612
47351397.500461
50905496.5423046
54557042.0516863
58309973.7383056
62168456.5255597
66136874.5969579
70219838.7734955
74422220.9152591
78749205.0933765
83206266.5650886
87799153.2357115
92533985.2065613
97417265.3680013
102455859.48889
107657040.44593
113028579.257613
118578739.178855
124316214.976807
130250365.593871
136391183.822517
142749200.932429
149335734.043095
156162933.474831
163243723.439182
170591866.225117
178222249.74756
186150903.474805
194394702.189735
202972033.381985
211902742.677395
221207892.831412
230910365.205311
241035026.745092
251608537.138457
262659388.167453
274218946.437918
286321415.475496
299002443.660945
312302039.85814
326263887.913355
340933993.612402
356363098.258771
372607261.391239
389726778.008238
407785883.905083
426856810.345942
447019137.850637
468353836.281606
490953937.632171
514922225.499822
540362655.154822
567393665.979378
596139103.699757
626740389.282586
659319352.997666
694053044.110435
731045139.900912
770522013.712794
812455156.465629
857249345.992458
904409203.669937
954864711.316982
1006659848.09515
1062394859.26778
1115561721.88497
1174301999.85717
1217075766.48136
1270194692.2144
1262135135.74876
1275699288.52851
1048330459.09069
969903048.901659
803780574.683461
702293505.025808
570420950.361642
471197837.779388
366558030.231263
282550392.540111
203899732.423846
141980159.065634
89691494.4637773
50544319.4430179
21881831.1530104
3416736.60959754
1174898.30974583
3547897.97283556
6000329.05169021
8508415.53533127
11077219.1166983
13707123.4187671
16399928.8861213
19157663.5036785
21982605.1869196
24877152.1687386
27843829.203937
30885288.2406379
34004306.222412
37203788.2574478
40486797.6139787
43856554.7095891
47316429.6307121
50869983.3928135
54520966.0578004
58273319.1180768
62131205.0355113
66099005.7758157
70181334.5653107
74383066.3338505
78709378.0854187
83165740.3157114
87757908.3777974
92492000.1032551
97374511.1727661
102412309.014546
107612671.253619
112983360.600015
118532633.646322
124269199.209337
130202406.670253
136342236.428493
142699233.405538
149284712.431558
156110808.943106
163190448.254909
170537406.375194
178166555.021167
186093904.823428
194336359.749001
202912292.402753
211841525.825005
221145145.724188
230846030.638149
240969016.670966
251540764.42571
262589801.160171
274147452.477822
286247883.694437
298926823.528012
312224235.675455
326183747.787067
340851429.325945
356278022.725004
372519517.672415
389636217.740364
407692442.844869
426760336.530018
446919418.318287
468250830.013582
490847521.112635
514812193.202539
540248944.197945
567276237.917898
596017833.014571
626615251.772673
659190481.598942
693920570.384379
730909211.195249
770383278.736636
812314122.449965
857107417.258989
904267369.484589
954726451.401444
1006526632.33613
1062275988.38743
1115457770.16839
1174238398.79667
1217050695.15173
1270283067.75185
1262329541.8904
1276249368.93063
1048567734.08772
970101620.507468
803990538.766945
702458363.117889
570574226.921179
471319565.263234
366661288.635274
282629932.33959
203961556.150881
142024310.619531
89722471.5515628
50564605.1619651
21896436.4906013
3422840.90795336
1152461.91017624
3522507.90676786
5959750.31009808
8464890.37109273
11032595.3045505
13661946.9496055
16354256.4496097
19111452.3100445
21935805.0627041
24829729.4243104
27795760.6154105
30836553.5630357
33954886.633734
37153667.7078333
40435957.8683357
43804975.1600288
47264092.2966156
50816868.2407296
54467050.9237672
58218582.6008074
62075623.9497198
66042555.1701703
70123989.9155406
74324804.2658231
78650170.9124938
83105557.1421343
87696721.9429784
92429781.0189191
97311225.4926689
102347922.912285
107547152.753806
112916672.615564
118464734.175387
124200053.442287
130131973.433457
136270466.875781
142626085.388586
149210140.92129
156034760.332588
163112868.152827
170458246.204211
178085757.10182
186011399.881782
194252093.51298
202826200.111145
211753529.999482
221055179.555457
230754023.13886
240874881.753305
251444414.656585
262491164.197408
274046435.880412
286144374.986271
298820749.47592
312115495.283471
326072218.498383
340737019.098526
356160633.475386
372399026.302171
389512509.290894
407565437.016113
426629919.596741
446785466.446991
468113300.116048
490706331.757609
514667266.209894
540100288.679628
567123875.731688
595861820.539768
626455734.993245
659027752.779377
693754969.222911
730741320.782247
770213955.349082
812144502.098153
856939255.337175
904102783.047431
954569391.79783
1006380621.2101
1062150912.13408
1115358110.23069
1174192068.60164
1217060815.18436
1270435153.75076
1262623983.3396
1276966566.57626
1048813880.6451
970289163.649252
804201741.903807
702614265.325146
570722165.284333
471431614.411529
366755734.867853
282698827.633116
204013171.293071
142057947.295433
89743779.7372229
50575824.1343607
21902515.6260235
3424856.67216253
1110447.3009502
3472300.25500296
5897538.77516829
8401174.10800021
10968506.1812553
13597445.0246609
16289147.020497
19045599.7272507
21869130.3886907
24762188.8810747
27727325.3567401
30767199.4632659
33884590.4944146
37082406.7419166
40363707.9198231
43731710.5805768
47189787.5707111
50741496.2463743
54390583.4029729
58140991.0865688
61996878.538117
65962624.6590215
70042841.7955048
74242404.9213494
78566484.8688186
83020547.4370547
87610351.4004354
92342010.2601061
97222013.1070163
102257226.10735
107454927.485429
112822872.650945
118369310.369381
124102956.592761
130033150.878876
136169863.264019
142523644.766368
149105803.518875
155928464.078219
163004548.460836
170347835.672981
177973185.901448
185896595.010391
194134981.15837
202706700.212371
211631560.667505
220930655.986115
230626854.278929
240744977.69878
251311682.706029
262355503.855463
273907746.789076
286002559.618662
298675702.389691
311967101.150042
325920379.083273
340581629.925352
356001575.049748
372236201.197417
389345830.673707
407394796.469079
426455229.397934
446606692.349858
467930383.259778
490519220.795939
514476011.545818
539904961.246114
566924555.28654
595658734.884972
626249225.326418
658818241.495478
693543065.049743
730527987.382058
770000429.678983
811932359.448111
856731073.648475
903901273.205027
954380166.757258
1006207845.24943
1062007995.35861
1115249838.38319
1174156062.65226
1217096451.57872
1270655840.88372
1263019333.993
1277893009.33022
1049071739.08439
970479275.436445
804420781.185793
702770127.255743
570870195.003694
471539446.93245
366844921.271843
282760065.891861
204056184.19208
142082229.719034
89755867.5882462
50578027.1817933
21899896.4724939
3422272.03836523
1049231.83177409
3401353.18737861
5819171.88841094
8322981.32244087
10890492.2216003
13519113.2174551
16210148.870883
18965750.1516271
21788340.2761625
24680412.0219966
27644530.9485459
30683361.5787166
33799683.5283545
36996403.6248505
40276580.7628849
43643430.8174018
47100324.8403392
50650818.9399304
54298659.5194668
58047787.5723164
61902361.1329437
65866758.2287316
69945588.857109
74143725.1460984
78466337.6581403
82918892.154379
87507144.2321168
92237205.1484794
97115563.7842118
102149083.950157
107345040.213265
112711187.604843
118255774.076933
123987509.683555
129915732.502666
136050413.90398
142402098.596332
148982090.205235
155802515.231304
162876292.33547
170217191.163183
177840073.038117
185760938.175066
193996690.979929
202565684.093268
211487732.564987
220783916.339847
230477095.409675
240592103.159287
251155593.493061
262196075.799506
273744866.090311
285836136.522849
298505600.406008
311793186.512565
325742561.972192
340399785.743877
355815557.549227
372045913.415394
389151190.245726
407195657.056332
426251491.422251
446398361.634974
467717356.630698
490301428.034248
514253553.820907
539677888.981125
566692949.306059
595422831.477737
626009472.165627
658574956.782959
693297071.751149
730280099.576301
769752392.486882
811685116.849058
856488633.067219
903664549.007193
954158344.383656
1006000393.56589
1061836951.5509
1115108262.51253
1174102861.68414
1217102037.15839
1270883807.36216
1263395678.95797
1278903345.92709
1049304840.09858
970684704.905864
804632382.101153
702930801.132406
571013751.580087
471646851.072499
366929823.13724
282818269.055877
204094423.533029
142102383.852598
89763467.9631099
50576126.1253375
21893156.5142609
3418075.2143152
)
;

boundaryField
{
    dieWall
    {
        type            zeroGradient;
    }
    outlet
    {
        type            fixedValue;
        value           uniform 0;
    }
    Wire
    {
        type            zeroGradient;
    }
    inlet
    {
        type            fixedValue;
        value           uniform 0;
    }
    back
    {
        type            wedge;
    }
    front
    {
        type            wedge;
    }
}


// ************************************************************************* //
