/*--------------------------------*- C++ -*----------------------------------*\
  =========                 |
  \\      /  F ield         | OpenFOAM: The Open Source CFD Toolbox
   \\    /   O peration     | Website:  https://openfoam.org
    \\  /    A nd           | Version:  8
     \\/     M anipulation  |
\*---------------------------------------------------------------------------*/
FoamFile
{
    version     2.0;
    format      ascii;
    class       volVectorField;
    location    "0.0125000";
    object      U_0;
}
// * * * * * * * * * * * * * * * * * * * * * * * * * * * * * * * * * * * * * //

dimensions      [0 1 -1 0 0 0 0];

internalField   nonuniform List<vector> 
900
(
(0.784377483443063 0.000314805751478132 1.30198500257625e-18)
(0.785124356010698 0.000189998977704392 3.3107818500997e-18)
(0.785300422156421 0.000139059233041095 1.05971730437956e-18)
(0.785604733838507 0.00016046414244176 4.50742602535787e-18)
(0.785786201659337 0.000166784073309159 1.78861629157877e-17)
(0.785933113087544 0.000172411816299698 1.1042320046404e-17)
(0.786067468736237 0.000175242057217373 -2.0863731340693e-18)
(0.786200855462277 0.000177203817721244 -2.51255323239294e-17)
(0.78633805952811 0.000179323083920864 -8.92075677509773e-18)
(0.786480467676249 0.000181130599724697 2.18229282673163e-17)
(0.786627201704171 0.000182490692615115 -2.48787408766678e-18)
(0.786778019695606 0.000183943422424358 -5.63028677140453e-18)
(0.786934022987703 0.000185460401852307 -5.80481785174065e-18)
(0.787095771729073 0.000186236540565265 2.54879582848703e-17)
(0.787263078154132 0.000187275433860225 -2.52586252868169e-17)
(0.787434401046367 0.000189375987902639 -2.09865894584699e-17)
(0.787608206339038 0.00019107245027367 -4.21117917342778e-17)
(0.787785529188289 0.000191824717058692 -2.66321947924213e-17)
(0.78797088533749 0.00019272983588423 -8.73195089689983e-17)
(0.788162376411611 0.000194336041169591 -6.5664272209253e-17)
(0.788356662554664 0.000195571970496209 -6.49263977059765e-17)
(0.78855756606871 0.000196480253535687 7.69092919409952e-18)
(0.788766509741421 0.000197809982278859 4.49546695624913e-17)
(0.788982799805482 0.000198735685534901 3.69186963312534e-17)
(0.789205981325921 0.000199510280202841 9.05450734914777e-17)
(0.789438768848759 0.000201098566844879 7.3970574969992e-17)
(0.789679177340939 0.000202852220260318 7.32002357032887e-17)
(0.789924339354462 0.000204082882560602 3.03793819434066e-17)
(0.790180234827844 0.000205548296241337 7.53475517385648e-17)
(0.790445489462211 0.000207751077655665 -3.25547790206424e-19)
(0.790717180591412 0.00020927300355013 4.79864270492299e-17)
(0.790999847391902 0.000210599090867723 7.95210219482817e-17)
(0.79129520861698 0.000212945684387204 -2.16955519114708e-17)
(0.791602613887682 0.00021456566997666 -2.21874126875845e-17)
(0.791921740484328 0.000216245379472358 5.59793230272847e-17)
(0.792254101806858 0.000219154727456819 5.69745438329091e-17)
(0.792600684032071 0.000221539343319897 1.27928671519578e-17)
(0.792961453203231 0.000223514164751618 8.24192702297262e-17)
(0.793337956266076 0.000226436807288655 4.84935098824439e-17)
(0.793732067166781 0.000229831586727494 5.84233057851445e-19)
(0.794144780627224 0.00023201151674346 -4.00246733456219e-17)
(0.794578200697246 0.000234807655160432 -6.17897532210486e-17)
(0.795032117490803 0.000240131933260458 9.03757430048101e-17)
(0.79550514197624 0.000243867149788985 -1.74556278637459e-17)
(0.79599899366687 0.000247233511748809 2.83903941525069e-17)
(0.796519698485935 0.000252584727420924 -4.01047049470055e-17)
(0.797070599899755 0.000257244245506782 -6.44889938779998e-17)
(0.79765090449308 0.000261207100263489 3.28320285060264e-17)
(0.798263153083525 0.000266986158631428 4.37657253017594e-17)
(0.79891083805888 0.0002741278166517 -3.03430985328128e-17)
(0.799596007653655 0.000279030634747691 -3.03030967042537e-17)
(0.800321896651659 0.000284654930479296 5.29751199745555e-17)
(0.801092704295584 0.000294520148797677 5.07611180366802e-17)
(0.801912936666903 0.000300913371947517 7.69256215318664e-18)
(0.802787783182407 0.000307430040265778 -2.96384312467716e-17)
(0.803716737426723 0.000318442033208716 4.19970427288757e-17)
(0.804705914235575 0.000327670105527357 4.02823403542538e-17)
(0.805766086787558 0.000334592745247964 -3.96975971361468e-17)
(0.806903237198763 0.000344766735323896 3.73417698268658e-18)
(0.808123409449653 0.00035760956395594 -2.93850753060964e-17)
(0.809433894022688 0.000365374368741284 -2.30550796974766e-17)
(0.810847443316084 0.000373794017723833 3.88846829694152e-18)
(0.812371786858983 0.000390274042695276 2.57103620891135e-18)
(0.814017846694346 0.000398465736169704 3.21636434781555e-17)
(0.815803771733679 0.000405666461308585 -1.62875409206292e-17)
(0.817742445248748 0.000419418853869414 2.69374847461014e-17)
(0.819846590317924 0.000428945469994616 2.69896604013513e-17)
(0.822144860923761 0.000433315118884176 1.75501622018142e-17)
(0.824653209437017 0.000440640864415526 -2.76221288214685e-17)
(0.827407524153861 0.000448556748980002 -8.33867342939695e-17)
(0.830415313917856 0.000448000834556722 -6.84738590360059e-17)
(0.83375359027348 0.000444086187055887 9.31771851297909e-19)
(0.837390890702447 0.000445447964875016 -1.28088393584647e-17)
(0.841491644913716 0.000430440366497038 -4.16215402782186e-17)
(0.84593259228668 0.00041775402096638 3.03596870217232e-17)
(0.851080584502202 0.000390498460458724 3.38369390838569e-17)
(0.856520022789554 0.000366912638289521 -1.48137205034846e-17)
(0.863170050732706 0.000316135881629548 -1.92054984899022e-17)
(0.869841922104095 0.000287752001132538 -1.60963082428527e-18)
(0.878770723555737 0.000186083202409465 3.23939562659779e-17)
(0.886950219309161 0.000157623520889405 -4.21599621702758e-19)
(0.899639179633765 3.5127350643398e-05 1.27172709238046e-17)
(0.909520841113897 -1.90333368656504e-05 -5.948758069466e-18)
(0.929054906062564 -0.000207599286367508 -9.5181049688648e-19)
(0.941481810585286 -0.000152229138304246 -7.85134520876078e-18)
(0.974795922719359 -0.000216265004379034 -1.44555871026903e-17)
(0.984633659253865 0.000138943492218144 -5.96202397799734e-19)
(0.975476989919793 -8.98978391913088e-05 6.92499598349471e-19)
(0.977354919902138 -8.78883304112631e-06 2.05681129148197e-18)
(0.971951097739146 -0.000112446141169268 -5.02169723384163e-18)
(0.970646459931283 -0.000111189737059883 4.60469479392868e-19)
(0.966617931563001 -0.000150196689938093 1.72295434152512e-18)
(0.964179343957909 -0.000164843907041966 -3.0448161976895e-19)
(0.960796752796373 -0.000180937888136343 -8.36911623847486e-19)
(0.958119985955001 -0.000175498714198968 2.02344761746298e-19)
(0.955243154516708 -0.000178868358221295 7.67362744836003e-20)
(0.952829163364158 -0.000165772049955465 1.47353682272919e-19)
(0.950524655667829 -0.000151260673661978 1.34478326683315e-19)
(0.948601907915883 -0.000137538604334948 -1.98384312389641e-20)
(0.947386971859843 -7.01048875320366e-05 -1.59068477356717e-20)
(0.433699644649798 0.00165831221378044 3.98650287848202e-18)
(0.436027975593349 0.00180566229850885 1.34805180128923e-17)
(0.436619216166546 0.00183806233761348 1.2207220419374e-17)
(0.43730775842215 0.00195313288613256 4.12815537263247e-18)
(0.437704072892427 0.00202486530020413 1.04641196468321e-17)
(0.438004601425014 0.00206131864979566 1.29582048234415e-17)
(0.438269749231727 0.00207612722353115 1.32512002091524e-17)
(0.438530488253338 0.00208234232966112 3.28945971812915e-17)
(0.438798295706047 0.00208645869252276 -4.14032639170075e-18)
(0.439076816459017 0.00208953715489711 3.2348611617558e-17)
(0.439365496233148 0.00209183495541189 -2.25908074190062e-17)
(0.43966416283724 0.00209422226109495 -1.66568234934395e-17)
(0.439973991758311 0.00209667030604967 -2.05718757886258e-17)
(0.440294973011244 0.00209792116272524 2.04357020373401e-17)
(0.440626636454385 0.00209959801584082 -1.68505628548709e-17)
(0.440969502231825 0.00210296696964182 -4.48026747511741e-17)
(0.441323732756085 0.00210559007768776 -1.41476505533893e-16)
(0.441689218754774 0.00210661024955707 -1.2753661186053e-16)
(0.442068044841345 0.00210779341890842 -1.76713894403763e-16)
(0.442460733026825 0.00211000855553021 -1.93064556481885e-16)
(0.44286632126213 0.00211157483880723 -8.27171120183863e-17)
(0.443286445220199 0.00211255090347636 3.57126067753661e-17)
(0.443722823057122 0.00211412807375129 1.40052344944276e-16)
(0.444175863783725 0.00211491893315094 9.97494413713502e-17)
(0.444645370249988 0.00211545568044577 2.71356992078101e-16)
(0.445133653371909 0.00211742788606946 1.82181017678024e-16)
(0.445641165498328 0.00211961743191402 1.2735535767694e-16)
(0.446166763835216 0.00212088802880195 7.83980111519639e-17)
(0.446713706278039 0.00212255896287472 1.02031044567195e-16)
(0.447283233383227 0.00212542137934191 -7.11677580449886e-18)
(0.447874788682008 0.00212699446663904 1.21488884329712e-16)
(0.448490802395151 0.00212814946777726 1.29677356019014e-16)
(0.449134262332723 0.00213106774684269 -8.15859053964152e-17)
(0.449806174425605 0.00213258130691202 3.19955987088429e-17)
(0.450506768666824 0.00213414555297435 7.92297166766271e-17)
(0.451239174748508 0.00213793321209477 1.69737880885355e-16)
(0.452005919526892 0.00214065564440283 3.08016679330266e-17)
(0.452807586827547 0.00214249338114159 9.80244675241076e-17)
(0.453647104834438 0.00214600564518993 -1.6297603083603e-17)
(0.454528717757216 0.00215028645267247 1.12330586779597e-18)
(0.455454123622527 0.00215213188588544 -1.19265684275118e-16)
(0.456425941667364 0.00215507671560193 -1.04096662493569e-16)
(0.457448841291276 0.00216278942264621 7.75619445486084e-17)
(0.4585250309651 0.00216727893187902 -1.10214882848712e-16)
(0.459656735599621 0.00217080549862625 -2.75910090640732e-17)
(0.460851864047932 0.0021779814307926 -1.25081761499676e-16)
(0.462116952408647 0.00218356616874878 -1.96785196906287e-16)
(0.463454123690919 0.00218748185697592 -4.49894629967849e-17)
(0.464869756965155 0.00219476233861006 -1.40807005097136e-17)
(0.466373007959869 0.00220442976932275 -1.42940323356056e-16)
(0.467969152032309 0.00220922513232662 -9.25232271006342e-17)
(0.469664798570644 0.00221512726675734 2.64299957871784e-17)
(0.471472739500687 0.00222904777075058 1.74344229702502e-17)
(0.473402819374423 0.00223553915407145 1.87413447553049e-17)
(0.47546372515192 0.00224161502642059 3.59205563330727e-17)
(0.47766756805159 0.00225615913339309 -2.2620357824166e-17)
(0.480029907551334 0.0022663258782945 1.69170267973129e-16)
(0.482565301460846 0.00227077667012832 3.57739144280943e-18)
(0.485291120588287 0.00228100444845382 2.3369524546786e-17)
(0.488229897859953 0.00229548908779909 -9.89184306110337e-17)
(0.491399852247496 0.00229817218438961 -5.94572303994077e-17)
(0.494824876435651 0.0023010105923691 -1.07264642667305e-17)
(0.498536741754369 0.0023183368563972 5.90742228643387e-18)
(0.502565792946485 0.00231700183622391 1.76455735048158e-18)
(0.50694350134345 0.00231108383482972 -5.15128588765006e-17)
(0.511714888427326 0.00231603373044634 8.09521782547036e-17)
(0.516920743161825 0.0023094495461196 8.07232559650039e-17)
(0.522621234388262 0.00228852062542248 5.2298478858838e-17)
(0.528858520814025 0.00226987321518098 8.71822510024111e-19)
(0.53573615099212 0.00224749207408973 -1.68962929044118e-16)
(0.543274784672479 0.00220247911699948 -1.13471431451578e-16)
(0.551660818282459 0.00214430044184683 -6.85680175443205e-17)
(0.560840098242488 0.00208894481107878 -3.83280776687139e-17)
(0.571216431895103 0.00199196832890107 -1.22309859420836e-16)
(0.582479651516241 0.00188943733288726 -1.97749298465045e-17)
(0.595565092849492 0.00174341438677847 1.06518087843174e-16)
(0.609446885178392 0.001594065010126 -3.85710725879021e-17)
(0.626416601520135 0.00136669482052026 -5.7337492795849e-17)
(0.643550710077488 0.00117064553553334 -5.14727215508858e-18)
(0.666421098780902 0.00078931665276289 9.68790252725764e-17)
(0.68748475428862 0.000549812692801818 3.93163757973519e-17)
(0.720090779111083 3.12145095699203e-05 -1.25604714203355e-18)
(0.745746194884365 -0.00032241575680873 1.82179093772203e-17)
(0.795668831829003 -0.00111249164396154 -2.62878507124523e-18)
(0.827724580478031 -0.0013485958826816 -1.18393908469134e-17)
(0.912179680494866 -0.00199542451527989 -7.94610465884976e-18)
(0.937151236934373 4.66377676659487e-05 -1.22044084274674e-17)
(0.913681106968691 -0.000367865184676523 1.99228809887734e-18)
(0.918116997507065 -0.000218313226851095 5.96145056035969e-18)
(0.904101449858523 -0.00039585253337189 -1.73628708161921e-17)
(0.900503321091309 -0.000376836780907222 6.55560667732852e-18)
(0.890006788376163 -0.000442695006738429 5.57583584340118e-18)
(0.883597945212518 -0.000446245676528294 -9.55090807839068e-19)
(0.874841905050688 -0.00046543330384644 -1.95742938630823e-19)
(0.867884773008928 -0.000446964400920585 -1.2036463873667e-18)
(0.860454158544173 -0.000431695648595435 2.3389703992717e-19)
(0.854279179123423 -0.000392368007210584 -9.21246689544071e-20)
(0.84839653804522 -0.000355206480929922 3.67059058209496e-19)
(0.843508231055085 -0.000319242666802703 -2.04815052005422e-20)
(0.839971731536111 -0.000176499007232265 -2.571294741988e-20)
(0.154913737849879 0.00355487910975869 4.64318603312683e-18)
(0.15858005208403 0.00406540864876288 9.9590783932018e-18)
(0.159530990630685 0.00442911463916341 1.9801090099168e-17)
(0.160417494982428 0.00474178329904805 5.11885238079505e-18)
(0.160903119501681 0.00492056272048159 -1.49291034715683e-17)
(0.161263687518862 0.00500278389253925 1.01602776634198e-17)
(0.161579996706888 0.00503375854775013 2.87983844305907e-17)
(0.161891185758594 0.00504386876445115 5.47626600888448e-17)
(0.162211591658481 0.00504764457743951 1.73749566140886e-17)
(0.162546027068054 0.00504931896383042 2.05826118057858e-17)
(0.162894429697692 0.00505004032822897 -6.13874534599675e-17)
(0.163256817088599 0.00505075937856446 -2.4849575656579e-17)
(0.163634421031919 0.00505138656423031 -4.27416131921815e-17)
(0.164027141669296 0.00505086204315965 1.72775471965267e-17)
(0.16443454649919 0.00505069717041487 -1.99628296483242e-19)
(0.164858168898068 0.00505201766076103 -6.22646618054932e-17)
(0.16529896936411 0.00505253901460455 -1.41013795237629e-16)
(0.165756436955186 0.00505130716908304 -2.48910850605003e-16)
(0.166231716341057 0.00505002683371122 -2.56087185943494e-16)
(0.166726364078706 0.00504960693591061 -2.23894874979284e-16)
(0.167240556964619 0.00504844396348073 -9.83740760476957e-17)
(0.167775090645457 0.00504653264609697 6.4900124544045e-17)
(0.168331890097288 0.00504494317536672 2.4964337512222e-16)
(0.168911907318587 0.0050424717054707 1.33911122617922e-16)
(0.169515107203713 0.00503963558254538 3.74570147581781e-16)
(0.170143929368629 0.00503805011786335 2.83439336383581e-16)
(0.170800145054255 0.00503662875098998 2.55354458596149e-16)
(0.171483502721053 0.00503411957867566 1.19563292857372e-16)
(0.172196242156207 0.00503181231404795 1.18034907100586e-16)
(0.172941046122163 0.00503049335208277 -4.97282081858907e-17)
(0.173718621640778 0.00502768068465398 1.88791940329304e-16)
(0.174530363381859 0.00502422687081181 1.37523290067629e-16)
(0.17538023998133 0.00502218367627834 -1.80227131875428e-16)
(0.176270317687435 0.00501861039171648 -1.21251823575976e-17)
(0.177200952671788 0.00501487655527164 1.98567192279037e-16)
(0.17817669233649 0.00501306298843112 2.10090531660797e-16)
(0.179201245171486 0.00500996391387195 2.76324227596558e-17)
(0.180275376089626 0.00500562929292687 3.62229959031247e-17)
(0.181403037954637 0.00500269830932311 -6.79935974287502e-17)
(0.182590357991824 0.00500013679688198 3.07820199345517e-18)
(0.183839581740615 0.00499470023454874 -1.17358021032252e-16)
(0.185153231253846 0.00499023007451454 -1.64586676047211e-16)
(0.186540025819907 0.00499015326023823 1.88785360067179e-16)
(0.188004824648078 0.0049864926446815 -3.86047658877766e-17)
(0.189549083190352 0.00498123055195175 -7.65273677642862e-17)
(0.191183116473342 0.00497903583856936 -2.08208549830624e-16)
(0.19291617498462 0.00497469769207273 -4.93481459363258e-16)
(0.194751254765327 0.00496796065227669 -1.15396709654265e-16)
(0.196697427896219 0.00496420617156679 -6.24842494550342e-17)
(0.198769212944105 0.00496206215118963 -2.73652792694247e-16)
(0.200973936636767 0.00495393488857683 -1.58167723746841e-16)
(0.203318246772285 0.00494645066904149 6.80008608817964e-18)
(0.205823808648346 0.00494593914949389 -1.541233968428e-17)
(0.208505034213552 0.00493682756017687 2.85145159959427e-17)
(0.211369083161539 0.00492605239239062 1.03697734502737e-16)
(0.214439736712694 0.00492280196484662 -1.39903047983003e-16)
(0.21774113747469 0.00491338391109881 5.94870392152496e-17)
(0.221287125985661 0.00489598549176117 3.77630076903488e-17)
(0.225102556772687 0.00488318198930577 4.57319905031023e-17)
(0.229226435093396 0.00487237301517803 -1.83124413300191e-16)
(0.233683606165745 0.00484649686825662 -8.58814944285179e-17)
(0.238498204114525 0.00481902316718959 -5.07961725119191e-17)
(0.243728809423284 0.00480254184918014 8.70723795080879e-18)
(0.249421064912191 0.00476367303513229 -2.65058118122988e-17)
(0.255603201736242 0.00471562568672464 -9.10547802174392e-17)
(0.262352440946689 0.00467422666320644 1.37516002741952e-16)
(0.269734392892876 0.00461579363975718 1.35069266550805e-16)
(0.277821455427129 0.00453580512792554 8.57230250858672e-17)
(0.286674743591482 0.00445203155535563 3.08099845675643e-17)
(0.296456309760682 0.0043554187470161 -2.92289318178262e-16)
(0.307193192546037 0.00422690015382901 -1.63459712860608e-16)
(0.319135840981544 0.00407378988958687 -6.60395295556797e-17)
(0.33223378169574 0.00391112026205178 -6.12113617038594e-17)
(0.347054578284343 0.00369055194373007 -1.98502405187736e-16)
(0.363151405908218 0.00345016739252294 -5.580410457242e-17)
(0.381865469616931 0.00313865949122637 1.0153717931901e-16)
(0.401748383842621 0.00281332296973771 -3.36853774967342e-17)
(0.42604392391588 0.00236290165224441 -8.78047681340625e-17)
(0.450651854167849 0.00193702812448278 -8.93916077292021e-18)
(0.483439329511787 0.00124553026650681 1.18155279722437e-16)
(0.513688205997549 0.00072380228709997 7.89341733474842e-17)
(0.560536703739161 -0.000260180561263667 -1.56810016727752e-17)
(0.597548761742379 -0.000961164176662589 4.7549683100717e-17)
(0.669024689003388 -0.00242368848184819 -4.24569623800437e-18)
(0.715250866482259 -0.00307766728674445 -1.85744797486882e-17)
(0.835804792238805 -0.00445749656755672 -4.61315585576871e-18)
(0.871584975635856 -1.3866501980037e-05 -3.35284713033009e-17)
(0.837937886127473 -0.00047247377436314 3.19130708408272e-18)
(0.844127742957479 -0.000324799119213963 9.48126294370415e-18)
(0.8239442555422 -0.000524131008087977 -2.00520091869243e-17)
(0.818657505845908 -0.000495088218964524 5.11380998173791e-18)
(0.803504138472079 -0.000581277514256802 4.5695549840544e-18)
(0.794220170424948 -0.000566385841420369 -1.92030392888955e-18)
(0.781632228727699 -0.000591316994391819 4.39749186849739e-19)
(0.771563447259814 -0.000576498657419765 -2.88222786234596e-18)
(0.760835125026457 -0.000543104279035311 -6.79803987567106e-19)
(0.751995700862867 -0.000492568683371896 -3.66153297587864e-19)
(0.743546486079095 -0.000448741088857052 6.05745015286656e-19)
(0.736517466273622 -0.000405201919934622 -2.17251700973082e-20)
(0.730665334327593 -0.000232972903698481 -4.42915972703102e-20)
(-0.0522454005364144 0.00622720200797987 6.03490886993278e-18)
(-0.0484316073630726 0.00645917424849127 8.19394575163399e-18)
(-0.0474822929829557 0.00732443159397136 2.11031500504737e-17)
(-0.0466646145856661 0.00789068942863441 3.42040817807668e-18)
(-0.0462257533608522 0.00818975270259022 -1.49696381535798e-17)
(-0.0458904834704737 0.00831946371941391 9.17616522092042e-18)
(-0.0455875295479413 0.00836631861416049 4.36553170123305e-17)
(-0.0452842250410419 0.0083798155162371 5.36497283075182e-17)
(-0.0449691417560385 0.00838262597421605 2.89783897174982e-17)
(-0.0446382554248812 0.00838224292981838 2.19648076549274e-17)
(-0.0442913634072708 0.00838077771880203 -5.70131131635357e-17)
(-0.0439282471010733 0.0083791931002039 -2.3745479768862e-17)
(-0.0435477712598712 0.00837738657748326 -1.57954336877905e-17)
(-0.0431498929089224 0.00837457404101102 3.41693945867607e-17)
(-0.0427347435863323 0.00837192076613947 2.16490044762037e-17)
(-0.0423005111636007 0.00837026287576146 -7.65304146123745e-17)
(-0.0418459296701209 0.00836778998111199 -1.59190173337373e-16)
(-0.0413714052578649 0.0083636600148648 -2.70800999587426e-16)
(-0.0408761829237082 0.00835923117595117 -2.96193960204431e-16)
(-0.0403584374060735 0.00835526469452178 -2.69031041508471e-16)
(-0.039817379403321 0.00835048428329057 -1.22032602411851e-16)
(-0.0392524202235055 0.0083448492640044 8.95138162595794e-17)
(-0.0386617153217691 0.00833916481549702 2.92628953028137e-16)
(-0.0380440415910843 0.00833252428822769 7.9217283021149e-17)
(-0.0373991016555775 0.00832536154704695 4.19991540875639e-16)
(-0.036724475222091 0.00831897679460536 3.20093481837575e-16)
(-0.0360178099979631 0.00831251662445126 3.19711698249763e-16)
(-0.0352786338450871 0.00830486838785931 1.39837463590634e-16)
(-0.0345050983879101 0.00829708034272983 1.54547557837482e-16)
(-0.0336940154893351 0.00828978402721446 4.68060658727472e-18)
(-0.0328438903486642 0.00828088437870977 1.9873863744579e-16)
(-0.0319535948203318 0.00827108109702263 5.09215041150562e-17)
(-0.0310189641738143 0.00826201682911232 -1.43678661295925e-16)
(-0.0300373218317308 0.0082513185466448 -5.05222841422735e-17)
(-0.0290078335611582 0.00824008710929091 2.42452154999252e-16)
(-0.0279254321408224 0.00823001888444342 2.68938695461443e-16)
(-0.0267858409797655 0.00821841579248043 7.28071839646106e-18)
(-0.0255877732791363 0.00820522326501818 -1.03481705337955e-16)
(-0.0243267550005502 0.00819270591739286 -1.65038515466658e-16)
(-0.022995947703968 0.0081798947983204 -3.55532406987243e-17)
(-0.0215924692886722 0.00816397158262373 -1.16695961852516e-16)
(-0.0201134775107081 0.00814836270647692 -2.64059066992773e-16)
(-0.0185484584367127 0.00813583973344635 8.72437872361414e-17)
(-0.016890901839762 0.00811951849415197 -2.0336315938447e-16)
(-0.0151391561354564 0.00810090749473264 -1.06423464923129e-16)
(-0.0132819881788985 0.00808401352636104 -2.80992146388799e-16)
(-0.0113088247628678 0.00806431188632905 -5.55200517788369e-16)
(-0.009215562159296 0.00804143639614662 -1.61971723505292e-16)
(-0.00699157503687604 0.00802017591092807 -9.43836350631579e-17)
(-0.00461972652960729 0.00799906558030933 -2.95662747250765e-16)
(-0.00209102405665199 0.00797124900375117 -2.22346258015138e-16)
(0.000601674250437705 0.00794276624315742 -2.68203835925727e-18)
(0.00348446151053381 0.00791873161322708 -5.00601296917747e-17)
(0.00657459165284884 0.00788537213509247 3.6307053631784e-17)
(0.00987910408638264 0.00784861513994599 1.81691777787504e-16)
(0.0134282207306386 0.00781653648849879 -6.61476096309845e-17)
(0.0172509619064167 0.00777651892275565 8.27474134510438e-18)
(0.0213613606593825 0.00772658699286234 -1.88936972713392e-17)
(0.025788583917888 0.00767821296023611 -4.46351713198979e-18)
(0.0305808832966385 0.00762833190735988 -1.92479777607881e-16)
(0.03576768281054 0.00756109189493244 -1.69588092887554e-16)
(0.0413734521425465 0.00748902321711278 -9.31644898354388e-17)
(0.0474721633294939 0.00742210688372656 1.93847241419663e-17)
(0.0541189491064484 0.00733012160869846 -5.35052175754891e-17)
(0.0613402936638919 0.00722417687223955 -1.37129450556699e-16)
(0.0692324088738923 0.00711820340400096 1.11184517925671e-16)
(0.0778759226622676 0.00698972099165744 1.04649147783883e-16)
(0.0873505147862443 0.00683351284387813 1.48849952690262e-16)
(0.0977285291052609 0.00666539894858024 -1.63305768790993e-17)
(0.109207027362802 0.00647524543065769 -2.47701550851688e-16)
(0.121817533793362 0.0062444308662026 -2.04257612230687e-16)
(0.135847372398267 0.00597849541885929 -6.13561293603433e-17)
(0.151250248922411 0.00568859122817834 -8.13786950205748e-17)
(0.168689855444238 0.00532869844902969 -2.76999611245185e-16)
(0.187639288733441 0.00493153398596582 -9.2228714696899e-17)
(0.209679701177633 0.00444465202918171 1.17975763546892e-16)
(0.233115220987726 0.00392284937106617 -5.92771645058224e-17)
(0.261750347426576 0.00324868348229528 -1.37348345971889e-16)
(0.29079539115017 0.00257154117313877 -5.99547134445457e-17)
(0.329470810742943 0.00158681419880583 1.3996935084545e-16)
(0.3651782790053 0.000746246394408301 1.18996251985741e-16)
(0.420502781644848 -0.000654092681682489 -3.10192038447213e-17)
(0.464282981692951 -0.00176114245618563 6.56926060477095e-17)
(0.54857427604542 -0.00383781708645083 -5.82591574505467e-18)
(0.603239669489628 -0.00502486045085925 -1.36716893286537e-17)
(0.745359556887316 -0.00703470062943805 -5.61458260263861e-19)
(0.787798127706056 -7.16040786301062e-05 -4.42689098226695e-17)
(0.748037177637672 -0.000440673862588172 4.34340322456409e-18)
(0.755252297764965 -0.000346916803261376 2.26733265012173e-17)
(0.731381380126179 -0.000513178019700438 -1.6724911952302e-17)
(0.725069705224927 -0.000502510390865923 -9.02466673497119e-19)
(0.707124475267194 -0.000578073171722566 3.90223188997692e-18)
(0.69611080056608 -0.000568269841780139 -1.62854880346553e-18)
(0.681227573349146 -0.000589498836866543 1.04599709672002e-18)
(0.669288038749214 -0.000577933720449305 -2.34781103510143e-18)
(0.656579434684432 -0.000542262466492214 -4.33550306405577e-19)
(0.64614522396999 -0.000492544286793029 -6.80204082028029e-19)
(0.636157491472175 -0.00044832558324765 8.14115289702172e-19)
(0.627848161226382 -0.000407565525047325 1.47583177876046e-20)
(0.620552774560643 -0.000228378938388866 -4.30920299940952e-20)
(-0.189059070846407 0.00816246815049017 6.88886365642296e-18)
(-0.186491978027247 0.00856794002171936 1.06520039132014e-17)
(-0.185997695579322 0.00990167331736043 1.74462275147868e-17)
(-0.185520528965614 0.0106731160424961 3.33979917640751e-18)
(-0.185245353529969 0.0110565061003386 -7.65858003320823e-18)
(-0.184999789007856 0.0112156385135714 5.41334953756271e-18)
(-0.184755413195115 0.0112712254369362 2.92494748405068e-17)
(-0.184499843722688 0.0112861018492029 7.03545644925531e-17)
(-0.184229521261393 0.0112878420490721 3.73622887320874e-17)
(-0.183942865739936 0.01128580778243 3.8433514272323e-17)
(-0.183639827281447 0.011282653771405 -3.73894192024403e-17)
(-0.183320063522145 0.0112792814512672 -1.56375671535273e-17)
(-0.182982565739509 0.0112756018917666 1.75044101293356e-18)
(-0.182627100229047 0.0112710304351383 6.05236924404846e-17)
(-0.182253488330487 0.0112663867936606 -4.91341667326779e-18)
(-0.181859973412238 0.011262250247361 -9.43149369752594e-17)
(-0.181445237592112 0.0112572768492046 -1.70637598725523e-16)
(-0.181009447697298 0.0112508176150758 -3.05458533466504e-16)
(-0.180552021268628 0.0112438554306705 -3.28820979456065e-16)
(-0.180071209643308 0.0112369491360803 -2.26600408826804e-16)
(-0.17956593566929 0.0112291615541149 -1.5799791584073e-16)
(-0.179035616813674 0.0112204451849095 1.14807660769114e-16)
(-0.178478618057495 0.0112113659253481 2.76904987822501e-16)
(-0.177893628930934 0.011201252341641 1.39959135253302e-16)
(-0.177280060818287 0.0111904413579675 3.15378483895089e-16)
(-0.176635646500207 0.0111799007623397 3.35005033504158e-16)
(-0.175957889345499 0.0111689679276493 2.9982187082523e-16)
(-0.175245823495991 0.0111567673785121 1.42989757335106e-16)
(-0.174497787031885 0.0111440720072425 9.12839800441998e-17)
(-0.17371059857457 0.0111313302071236 2.21321324204025e-17)
(-0.17288235029497 0.0111169080742898 6.27261671370626e-17)
(-0.172011931415161 0.0111013248905945 3.58350142593786e-17)
(-0.171095417657711 0.0110858143541559 -1.49407728773941e-16)
(-0.170129894487826 0.0110685325077335 -4.48348744908057e-17)
(-0.169114081672281 0.0110503036593621 2.22912058071479e-16)
(-0.168042973091075 0.0110324132851244 2.6386786636285e-16)
(-0.166912195191035 0.0110127160561696 -2.72889112725656e-17)
(-0.165719994044039 0.0109911106045198 -1.3846083076472e-16)
(-0.164461815601724 0.0109693442221272 -1.11908844719099e-16)
(-0.163130883994318 0.0109466030222977 2.80665623565334e-18)
(-0.161723891723117 0.0109206050673204 -1.09535228455911e-16)
(-0.160237725819752 0.0108940535154084 -2.61623585226207e-16)
(-0.158661575551517 0.0108690680389715 5.63646992506473e-17)
(-0.156988186143949 0.0108400794631509 -1.70328624252668e-16)
(-0.155215501132739 0.0108081881964962 -1.19605186742327e-16)
(-0.15333246205859 0.0107765299439934 -3.50423944222272e-16)
(-0.151328288622348 0.0107413950849046 -5.0614068579361e-16)
(-0.149198080044025 0.010702387094737 -1.85547585852605e-16)
(-0.146930761127046 0.0106632973007465 -1.09451273646154e-16)
(-0.144508652035148 0.0106227822151935 -3.34614277351023e-16)
(-0.141921882770514 0.0105751242287669 -3.02574630049496e-16)
(-0.139163057153217 0.010525167658866 1.86086627041416e-18)
(-0.136205008286622 0.0104768308329983 3.9681055333075e-17)
(-0.133029413587849 0.0104186990634074 4.14721676009675e-17)
(-0.129629131537278 0.0103554508429867 1.54988133795518e-16)
(-0.125971710087135 0.0102934573051672 -4.71182237597018e-17)
(-0.122026531855956 0.0102220313325317 -4.43212944508434e-17)
(-0.117779608295812 0.0101393046816439 9.94398064862222e-18)
(-0.113200529736362 0.0100545073337118 8.63340368803458e-19)
(-0.108237886411306 0.00996460665725056 -2.22233690570217e-16)
(-0.10286033414584 0.00985607570536822 -2.37492929511118e-16)
(-0.0970440626379254 0.0097391083053803 -3.56572412947221e-17)
(-0.0907094483137008 0.00962113460350628 -6.45161451784535e-17)
(-0.0837977064390588 0.00947653895455381 -8.24035840284337e-17)
(-0.0762842645220015 0.00931406053907285 -9.94348600216413e-17)
(-0.0680658175325576 0.0091445079177069 9.26923919241452e-17)
(-0.0590560868959365 0.00894805554230207 7.4687089979892e-17)
(-0.0491740372316919 0.00871969297786729 6.46393204788137e-17)
(-0.0383439645385834 0.00847144908727262 -6.37244922859336e-17)
(-0.0263557756297267 0.00819359504829508 -1.48705635222994e-16)
(-0.0131766868432686 0.00786859138073178 -2.80434346230634e-16)
(0.00149107918053323 0.00750060586475367 -5.29385580184527e-17)