/*--------------------------------*- C++ -*----------------------------------*\
  =========                 |
  \\      /  F ield         | OpenFOAM: The Open Source CFD Toolbox
   \\    /   O peration     | Website:  https://openfoam.org
    \\  /    A nd           | Version:  8
     \\/     M anipulation  |
\*---------------------------------------------------------------------------*/
FoamFile
{
    version     2.0;
    format      ascii;
    class       surfaceVectorField;
    location    "0.0125000";
    object      Uf;
}
// * * * * * * * * * * * * * * * * * * * * * * * * * * * * * * * * * * * * * //

dimensions      [0 1 -1 0 0 0 0];

internalField   nonuniform List<vector> 
1094
(
(0.683258928757009 0.000457110216110005 3.62122173954592e-18)
(0.451911936179987 0.0015090269849707 6.12006519780767e-18)
(0.683797220391571 0.00031714611455625 4.90308259791872e-18)
(0.454266973735572 0.00164117097917506 9.56802136636819e-18)
(0.684280163818546 0.000296198564558054 5.67469121234635e-18)
(0.454940653652523 0.00170350213456829 9.7903066672455e-18)
(0.684612341717014 0.000323295280221333 1.72236572583955e-17)
(0.455503379165975 0.0018262164944933 1.46220804769375e-17)
(0.684845704940403 0.00034056304228108 3.40541993210026e-17)
(0.455873901801505 0.00190801392725243 3.04153406170775e-17)
(0.685036217482226 0.000349735145867012 3.15090040951818e-17)
(0.456130237327156 0.00195036452669508 5.02558503290121e-17)
(0.685212754439418 0.000354078403202532 2.10241311112657e-17)
(0.45634559601526 0.00196805575297191 4.17967083244636e-17)
(0.685389758319371 0.000356723402858493 -1.40841762548139e-18)
(0.45655438208792 0.00197468877147627 3.7921817806111e-17)
(0.685573118224469 0.00035916144112917 -7.60970415553916e-18)
(0.456768120712309 0.00197847008087543 -7.2113200562648e-18)
(0.685762876383926 0.000361501354472085 1.19259129475356e-17)
(0.456990916792528 0.0019812818026775 2.39049574554682e-17)
(0.685957356324251 0.000363991743167917 1.9393682722469e-17)
(0.457222688394268 0.00198394067343185 3.58021676396064e-17)
(0.686156675755761 0.000366528758290276 1.2027410885528e-17)
(0.457462462301093 0.00198700583055637 3.89771162392598e-17)
(0.686362539924989 0.000368570712063142 1.11304905112343e-18)
(0.45771135789138 0.00198994638328336 5.12914731955307e-17)
(0.686573936208397 0.000370202536578956 1.21000886603704e-17)
(0.457969843984105 0.00199179611862186 4.8594713278473e-17)
(0.686791101300471 0.000371993710202128 5.52773950251918e-17)
(0.458237454066166 0.00199351759188932 4.78149296227582e-17)
(0.687015902138448 0.000373702603760267 6.69957184945113e-17)
(0.458515329072333 0.00199576576880449 9.26862075905243e-17)
(0.687247556502505 0.0003748532171899 3.7698406766861e-17)
(0.458804025549885 0.00199720330050288 8.4022623116548e-17)
(0.687486696401226 0.000375962680614857 4.28554178307443e-18)
(0.459103361428811 0.00199794023169072 5.01098222781481e-17)
(0.687734072052592 0.000377799874515126 1.59678389962391e-17)
(0.459414890926522 0.00199939502266731 3.36185812487759e-17)
(0.68798809067861 0.000380089782524107 1.39452074852623e-17)
(0.459738392875313 0.00200203800632743 4.07613445129223e-17)
(0.68824730827069 0.0003820567898083 -4.11898335926906e-17)
(0.460072481781887 0.00200457231347558 -4.92392290669616e-17)
(0.688513841053389 0.000383712834960984 -4.55662717863413e-18)
(0.460417781811078 0.00200638948536218 -4.95615714286544e-17)
(0.688790559380677 0.000385453940829511 -1.25536614871749e-18)
(0.460777411827243 0.00200833639413079 4.28463228605795e-17)
(0.689074713757506 0.000387287005814471 -2.37381085771636e-17)
(0.461151681773453 0.00201027866132879 -5.15803513046657e-17)
(0.689366665401127 0.000388984762148513 1.31414420765518e-18)
(0.461538469044281 0.00201217520968212 2.7304866218771e-17)
(0.689670587609168 0.000390377360979336 7.62924932480032e-19)
(0.461941348170664 0.00201392011333045 -7.72804113098448e-18)
(0.689986054782285 0.000391604654413139 -1.62355494543969e-17)
(0.462362293290771 0.00201505831821794 9.56587780398645e-18)
(0.690312407477981 0.000392974357542061 -3.21612284588618e-17)
(0.462800457731648 0.00201613917614281 1.20864218895013e-18)
(0.690651869061088 0.000394540586142624 4.00760281750454e-18)
(0.463257025856544 0.00201766046199786 -5.3042678131934e-17)
(0.691006039280957 0.000396179053505221 -6.29613045963342e-17)
(0.463734714098956 0.00201947793109941 -5.29123501892852e-17)
(0.691372296678314 0.000398240380421255 -6.98507063068662e-17)
(0.464233700109032 0.00202122532981728 -2.0661952994463e-16)
(0.691749955712458 0.000401227386503683 -2.29456085608182e-17)
(0.46475269261181 0.00202404760608667 -7.23443518401157e-17)
(0.692142659084344 0.000404211995987836 -1.18056093354025e-16)
(0.465294376419009 0.00202860031856445 -1.41385748101831e-16)
(0.692548260701684 0.000406423937583258 -8.97083313843434e-17)
(0.465859997634372 0.00203144255064635 -2.18252017870101e-16)
(0.692969025163615 0.000408685269577018 9.51516214674849e-17)
(0.466449557816011 0.00203353525037159 -1.65031593843241e-17)
(0.693410967077976 0.000411009279308354 1.54724634241068e-16)
(0.467067975320403 0.00203668741340405 2.90615643338121e-16)
(0.693873759197005 0.000412870978765818 7.16925449285064e-17)
(0.467718377387046 0.00203897408228706 7.09907776122608e-17)
(0.694357260533662 0.000415187539978673 3.15425510614431e-17)
(0.468400581905735 0.00204060516940035 5.45344555526558e-17)
(0.694863352802085 0.000418944115233298 6.48714771498674e-17)
(0.469117774923279 0.00204419121484106 4.92990004354604e-17)
(0.695392517761436 0.000422934178457262 1.23354766131041e-16)
(0.469871937141295 0.0020500670076522 2.01816620833052e-16)
(0.695942544329953 0.000426178109546262 1.03054966083902e-16)
(0.470662928755815 0.00205421782398755 1.71523064191451e-16)
(0.696517778874492 0.000430102546384957 1.31152069996094e-16)
(0.471493048774705 0.00205760201046546 1.00716645796877e-16)
(0.697128480622267 0.000434258891447111 1.07044072798466e-16)
(0.472371046825997 0.00206410885553657 1.78595558491588e-16)
(0.697769010440123 0.000438118573170349 -8.15891576984302e-17)
(0.473300238257073 0.00206812893051216 1.95916520656752e-17)
(0.69843821373441 0.000443518735840987 -7.54732941984334e-17)
(0.474278997930151 0.0020731174555243 -1.40165058493911e-16)
(0.69914367092961 0.000449502783989278 -1.23201949486257e-17)
(0.475312079840076 0.00208172392514813 6.74330592895816e-17)
(0.699890311319555 0.000453951614458075 -3.2469548212169e-17)
(0.476407071551089 0.00208848498236836 -1.003420052671e-16)
(0.70068050641685 0.000458614411199967 -6.0878552505864e-17)
(0.477569651812885 0.00209222799451708 -2.48581498352672e-17)
(0.701517688748673 0.00046603348218689 -9.98629033155273e-17)
(0.478805662560164 0.00209922256303114 -1.06562906001161e-16)
(0.702405945140882 0.000473651205230074 -2.78235216387984e-17)
(0.480120878993501 0.00211114194721421 -8.79646670082038e-17)
(0.703342786119631 0.000479901298070441 3.6350549899139e-17)
(0.481517988226997 0.00211840986715984 8.45969300406764e-17)
(0.704334608557332 0.000488788603175739 1.22215589743543e-17)
(0.483004608375253 0.00212529127757501 6.91143885522369e-17)
(0.705399414637986 0.000498148236462993 -2.62679800096986e-17)
(0.484594713170976 0.0021406180839226 -1.84618612874034e-17)
(0.706533909019678 0.000505229550925981 -7.17410692932563e-17)
(0.486298061343447 0.00214853709945191 -8.5632957606855e-17)
(0.707742711222445 0.000514840085703881 -7.27676084317661e-17)
(0.488121807511519 0.00215567571983643 -1.098482936977e-16)
(0.709039741663588 0.000526654960292284 -2.64886355143659e-17)
(0.490078911555757 0.00217081219708521 -8.80525231574036e-17)
(0.710431311656887 0.00053630396092505 -1.02428827104968e-17)
(0.492183829036583 0.00218401655935107 -1.29735096479362e-17)
(0.71192244137079 0.00054601164901983 4.71059164997898e-18)
(0.494449144876026 0.00219131729767267 -2.74935176897869e-17)
(0.713526182029058 0.000559821359644946 -2.77567110834346e-19)
(0.496892458750669 0.00220328042720126 4.70786492954553e-17)
(0.715261583390795 0.000572232759083059 -1.25510283902927e-16)
(0.499534554988245 0.00222213282992352 -3.90971418798715e-17)
(0.717134743525701 0.000581219345350852 -1.21624450698395e-16)
(0.502394130921681 0.00222835464857599 -3.08167225758725e-16)
(0.719156793000713 0.000595806225075084 -4.97853065148419e-17)
(0.505498626187913 0.00223427178063542 -2.62087172469472e-17)
(0.721354116821505 0.000611118274200695 -6.99656993442224e-17)
(0.508870632849677 0.00225582157878467 -1.7966923689785e-17)
(0.723738598759117 0.000620184333321747 -6.17653759088094e-17)
(0.512538744313202 0.00226164539195126 -1.11622146026033e-16)
(0.726334119550955 0.000631154042560419 2.43550157635069e-17)
(0.516544634008875 0.00226075798209119 -1.33730161446533e-16)
(0.729171672461114 0.000644441441085175 -3.3400708561407e-17)
(0.520925517998935 0.00226901616908858 1.01974786455917e-16)
(0.73227796247404 0.000652136491094113 -1.28753636618068e-16)
(0.525725776860114 0.00227128017251436 -2.3543194897359e-16)
(0.735680562958643 0.000656737440678771 -2.9246772185646e-17)
(0.530996494131506 0.00225778975296387 -1.58193831987512e-16)
(0.739421235040829 0.000664795444691194 2.1603624555731e-17)
(0.536800304204826 0.00224502147879678 4.37263715394474e-17)
(0.74355179191164 0.000667322219138386 5.90530446972221e-18)
(0.543205750587122 0.00223525045046283 -6.73285538848046e-17)
(0.748110413358444 0.000660208419585686 -1.01485206432182e-17)
(0.550288325607236 0.00219815596558227 -2.14762402607708e-17)
(0.753157763013595 0.000654636633596851 -1.5511305976091e-17)
(0.558146142200386 0.002150446607747 -2.02635221571332e-17)
(0.758778581969637 0.000642386221007193 1.94279376647576e-17)
(0.56688524836272 0.00210593902703737 -4.22924232974657e-17)
(0.765040984210733 0.000616236351440853 1.91548981495834e-17)
(0.576634015133975 0.0020252178733393 2.67369880666671e-17)
(0.772045296977081 0.000583679374968681 -5.15868397380726e-17)
(0.587542867829434 0.00192391194862014 -4.02059180768618e-17)
(0.779923894593697 0.000540127000038719 -3.27924774923836e-17)
(0.599802860660946 0.00180370159707539 -8.23650256401713e-17)
(0.788812708178015 0.000480817765249991 4.49732958212632e-17)
(0.613605503061974 0.00164594261014613 -4.65629709050599e-17)
(0.798902831429794 0.00041162829401206 1.84174508451985e-17)
(0.629312041497293 0.00145230003537151 7.36290204977266e-17)
(0.81038231650433 0.000312147434011186 -1.93665973006716e-17)
(0.64705155761939 0.00122323542463687 -7.10121954915883e-17)
(0.823615608744166 0.000200277083877951 1.63863939289662e-17)
(0.667649818192881 0.000904707290356324 -7.9324785472542e-18)
(0.838799376839759 6.75334056199823e-05 2.45838723318407e-17)
(0.690810756649672 0.000572126815609386 7.20751201914585e-17)
(0.856857622121235 -7.54263042010831e-05 1.59307539867666e-17)
(0.719111474794852 0.000131216904156861 2.68710437636139e-17)
(0.877669129354047 -0.000327660851282523 -1.46864538058175e-17)
(0.749426536945978 -0.000384764109817162 1.23151715978409e-17)
(0.904163505191264 -0.000363767930225734 -2.29144837171674e-17)
(0.791915450443644 -0.00109403681661238 -7.11397567709266e-17)
(0.935220391257467 -0.000604843913941878 -2.47893128932288e-19)
(0.831570348191644 -0.0014904814476459 -6.79466656667993e-19)
(0.975327016386742 0.00028035137283449 -5.77087848099891e-18)
(0.908014556495954 -0.0021963430133418 1.62664660509849e-17)
(0.968552836291816 5.63447643489443e-05 6.88293550662625e-18)
(0.933527814768975 3.92368800538617e-06 -7.21313118684103e-18)
(0.965824086406278 5.7647655656129e-05 3.50873152522488e-18)
(0.914767570186582 -0.000356487073940243 4.96412731209556e-17)
(0.960797816660977 -5.0055512212272e-05 -1.18117125432882e-17)
(0.913270271167196 -0.000304898116081384 -2.07957823584259e-17)
(0.956173751100475 -0.000108542797958725 -3.83149601564007e-18)
(0.90277137256 -0.000412638849350513 -4.97756605382957e-18)
(0.950970940116935 -0.000166848834500696 -3.59007301528524e-18)
(0.895470671557937 -0.000434638345495415 -3.29010702466614e-18)
(0.945819388868204 -0.000208985577420072 -4.03514627222827e-18)
(0.886257916663506 -0.000481787880196092 -7.70686613763165e-18)
(0.940703881445479 -0.000245228212762134 3.43359681385477e-19)
(0.877822235465745 -0.000484211077271193 -5.026037353954e-18)
(0.935801740263945 -0.000256302291782649 1.44599559055509e-18)
(0.869287845990397 -0.000487083983445473 4.86493613577026e-18)
(0.931157968073849 -0.000257142951693427 -1.72591245390723e-19)
(0.861315477793657 -0.000476946573787539 -6.61644574747663e-19)
(0.92698593410301 -0.00024498053675774 6.91608405193053e-20)
(0.853925451386644 -0.000433377303974227 -5.40810808961311e-20)
(0.923313270281793 -0.000222455712868855 1.31933414353999e-19)
(0.847358656145975 -0.000382519833495648 3.57496383151269e-19)
(0.920117615426187 -0.000198953205931271 6.43033463196888e-20)
(0.841682975825284 -0.000339725498860734 1.08805547388891e-19)
(0.917607889007725 -0.000152065443432748 2.21992341619237e-20)
(0.83674292266591 -0.00029210458694104 1.18438897419862e-20)
(0.833576693062461 -0.000194130029559094 -2.07350786876972e-20)
(0.220620412305532 0.00292256520773708 1.21258973627036e-17)
(0.0660948820808398 0.00451734330190634 1.04382245905e-17)
(0.22234402542142 0.00335347472261465 1.45142052609212e-17)
(0.0696578704286539 0.00491132294869677 1.47757487990179e-17)
(0.223419593787475 0.00365549392722335 1.88264889216632e-17)
(0.0706383283599963 0.00548462483639276 1.83765368663816e-17)
(0.22405304922849 0.00387820266464252 2.79090647687092e-17)
(0.0713480339896329 0.00594609247176304 1.9783504329729e-17)
(0.224457176950988 0.00400275014404058 4.67318910891412e-17)
(0.07178968256452 0.00620434448224947 2.77830593340928e-17)
(0.224766045986498 0.00406076918127024 6.0696425200823e-17)
(0.0720919780000063 0.00632401939587021 7.79976149329868e-17)
(0.225044065921032 0.0040840848047784 5.89047625276622e-17)
(0.0723479276394973 0.00637126284536485 7.93325595105637e-17)
(0.225319248632611 0.00409327893970114 3.22160828015698e-17)
(0.0725967975099301 0.00638691053690153 8.69355753967139e-17)
(0.22560327604272 0.00409805507374682 2.45505636651809e-17)
(0.0728528324984602 0.0063918136535271 5.2579468650356e-17)
(0.22589897019153 0.00410167577148934 4.80077787342193e-17)
(0.0731212669452411 0.00639359194246503 6.40205574156028e-17)
(0.226206360985753 0.00410530402892787 5.55918585063157e-17)
(0.073402903232966 0.00639478817507785 7.26759532701747e-17)
(0.226526127965279 0.00410897987596117 7.86307265046175e-17)
(0.0736979322791014 0.00639620224262154 6.62886266621908e-17)
(0.226859008952568 0.00411199682846118 9.92951347039385e-17)
(0.0740073514442576 0.00639729520724998 1.11589727154389e-16)
(0.227204395360962 0.00411433740095013 8.46934335552971e-17)
(0.0743312509519039 0.00639739455039205 1.00956235142972e-16)
(0.227562861752396 0.00411667447275132 8.54845557137683e-17)
(0.0746694460519213 0.00639712951952893 7.85049268396092e-17)
(0.227935984463709 0.00411871998477712 1.09915510592007e-16)
(0.0750232436070002 0.00639690736827328 1.09586463630883e-16)
(0.228323643248585 0.00411996131666244 9.66563352039829e-17)
(0.0753934320518988 0.0063958657330683 1.67871772770314e-16)
(0.228725993172683 0.00412114878142072 7.97851620678217e-17)
(0.0757798145886837 0.00639403302613319 8.61334432151496e-17)
(0.229144285486444 0.00412322786794225 5.86420912495062e-17)
(0.0761834810140503 0.00639268600290419 6.27890393853067e-17)
(0.229579254903226 0.00412580860582176 -2.28233235141187e-17)
(0.0766057480943818 0.00639229535824035 2.87578750225519e-17)
(0.230030828802872 0.00412792844779936 -5.76919448145095e-17)
(0.0770469785076334 0.00639173568684399 -4.31234235441676e-17)
(0.230500068755972 0.0041296047858925 -1.91452379099572e-18)
(0.0775076740456611 0.00639033501381583 -3.13768024919902e-17)
(0.230988810096848 0.00413119499187023 -7.7491556041001e-18)
(0.077989712446256 0.00638862262281283 -2.99670887106523e-17)
(0.231497093664301 0.00413265046767063 -2.24529073567501e-19)
(0.0784941444677808 0.00638678178295945 -7.92066458404569e-17)
(0.232025947960668 0.00413381808979034 1.82488604669242e-17)
(0.079020990487221 0.00638461974547121 1.47083849089131e-17)
(0.232577721120223 0.00413442531050752 1.12242313610239e-18)
(0.0795725744269214 0.00638185649926671 -3.29903135207422e-17)
(0.233153069043532 0.0041345602110282 2.71811555839326e-17)
(0.080150522363909 0.00637830567225389 2.01573897603719e-17)
(0.233752774337804 0.00413474894679701 -1.97667680464504e-17)
(0.0807552140504124 0.00637441407770682 9.73866503214391e-17)
(0.234379144399735 0.00413518681698705 -1.10457613500514e-16)
(0.0813884182991189 0.00637063553620861 -1.10232086898145e-16)
(0.235033996996532 0.00413568397707043 -1.97578003545962e-16)
(0.0820528177661767 0.00636684516430641 -2.22193316909663e-16)
(0.235717364420065 0.00413670647758813 -2.09313022769512e-16)
(0.0827495172281749 0.00636294177820412 -3.23442620381737e-16)
(0.236431134471194 0.00413903166560339 -1.91682413756351e-16)
(0.0834794566147468 0.0063599832499397 -2.39703116081099e-16)
(0.237179032518347 0.00414118946976808 -2.42314106950745e-16)
(0.0842465775537842 0.00635804879120074 -2.90616560259133e-16)
(0.237960970496137 0.00414190301675486 -1.44658221745386e-16)
(0.0850529409297316 0.00635437511687464 -3.50796491524556e-16)
(0.238779246425488 0.00414243276259638 1.80236620685175e-16)
(0.0858989592771339 0.00634942702654223 -4.58999774594397e-17)
(0.23963901897819 0.00414277593538784 2.06396249511978e-16)
(0.0867891385881599 0.00634468652261901 2.78103363541219e-16)
(0.240541932950997 0.00414215765378336 5.37121769862424e-17)
(0.087727291036525 0.00633878762689432 8.52592664846684e-17)
(0.241489485265182 0.00414208884221928 7.24263163850312e-17)
(0.0887143869832272 0.00633187082962515 1.01707441999411e-16)
(0.242486200350268 0.0041440876365066 1.87193883962995e-16)
(0.0897544564319395 0.00632652663741665 6.46074207285275e-17)
(0.243536280919278 0.00414616981941205 2.50339299038108e-16)
(0.090853231105007 0.00632288456203147 4.35893827471264e-16)
(0.24464045672885 0.00414673350991192 1.69175446691461e-16)
(0.0920133229466619 0.00631717265013134 2.17774666268648e-16)
(0.24580370120225 0.00414812665574505 1.48491648190003e-16)
(0.093237047609723 0.0063102216088604 1.75126742474274e-16)
(0.247035447798865 0.00414951836982981 9.05217698612842e-17)
(0.0945335677047967 0.00630494457896945 1.44871169919178e-16)
(0.248335944670187 0.00414993228031352 -3.94240326651354e-17)
(0.0959083346007703 0.00629717917120938 3.22018463917701e-17)
(0.24970934698976 0.00415243335691167 3.76805496248594e-18)
(0.0973628227149757 0.0062896670438482 -9.67621562444177e-17)
(0.251166123446699 0.00415542752708595 -2.12514802396049e-17)
(0.0989063895436288 0.00628473196813944 1.90272341957423e-16)
(0.252712437332919 0.00415529505575504 -9.26263866780226e-17)
(0.100548883717765 0.00627697634731673 -2.30767615334154e-16)
(0.254352803472421 0.00415488857170607 -7.08957097186572e-17)
(0.102294802933721 0.00626513484059616 -2.83536531111231e-17)
(0.256097729210506 0.00415849820774055 -9.45737972055977e-17)
(0.104152480125511 0.00625580659162229 -1.17059596782446e-16)
(0.257959013568015 0.00416169335184755 2.53228880670843e-17)
(0.106136836292686 0.00625009540335672 -8.48189730766335e-17)
(0.259940059953725 0.00416165233602427 1.17525742558898e-16)
(0.108255843850879 0.00623868198214011 8.89270840315185e-17)
(0.262053019441782 0.00416530003960233 3.81236730172698e-17)
(0.110516536060621 0.00622589988401586 4.59815004020094e-17)
(0.264320782249619 0.00416867462771527 -7.82650482140183e-17)
(0.112941393614879 0.00621905362701293 -3.88494252302415e-17)
(0.266748542581949 0.00416674742467741 -1.23987727144758e-16)
(0.115546130329159 0.00620375026647506 -1.75038652812967e-16)
(0.269349726655426 0.00416792987958536 -1.25165804455593e-16)
(0.118338063314104 0.00618552993633033 -2.20073355571845e-16)
(0.272150348861104 0.00417152140315543 -7.42972656158977e-17)
(0.121341988298179 0.00617336088139722 -1.78860355520053e-16)
(0.275167585702872 0.00416947404491422 -3.03441308643675e-17)
(0.124584609263418 0.00615695487483024 -1.8235961869398e-17)
(0.278416639023508 0.00416553422379774 1.52764864831231e-17)
(0.128080972424756 0.00613163200073586 -6.21763701910056e-17)
(0.281927900427508 0.00416681621884417 7.82972389217349e-18)
(0.131856257713674 0.00610878475784892 1.05777914423418e-16)
(0.285737214096355 0.0041630163038312 -2.23409125558874e-16)
(0.135953290421591 0.00608910274230813 -6.3921681107764e-17)
(0.289863321251088 0.00415007054058173 -2.11387924675471e-16)
(0.14039997266139 0.00605255410963055 -4.92525710070726e-16)
(0.294341434851885 0.00414413690155566 5.77152115628649e-18)
(0.145223314663637 0.00601235753779997 -3.67221609179173e-17)
(0.299228665276594 0.00413579632340619 -6.01519533214901e-17)
(0.150482555764724 0.00598293530721146 1.19044985584635e-16)
(0.304557173369489 0.00411166483123534 -1.83954962696545e-16)
(0.156228835024215 0.00593229028655514 -2.22769881429266e-16)
(0.310375353747537 0.00408616727344532 -5.4778992497643e-17)
(0.162501176292358 0.00586772804207387 -2.78515916253329e-16)
(0.316756281547671 0.00405943189679222 -1.02367223765728e-16)
(0.169371344858684 0.00580623846108881 9.57598549319953e-17)
(0.323765520195362 0.00401591691217104 -2.64581498031916e-16)
(0.176924282127704 0.00573040178122256 -3.5905546083024e-16)
(0.33146886438806 0.00395940454600369 -8.38974647713759e-17)
(0.185227246966741 0.00562848765971711 -3.18916663790301e-16)
(0.339966070538552 0.00390093048831836 -4.61159189672714e-17)
(0.194371639120535 0.0055180182869792 -1.73376310266408e-17)
(0.349374961245873 0.0038223386002126 -9.45095268124798e-17)
(0.204493492954158 0.00539810449011533 -1.41339917935817e-16)
(0.359794501487347 0.00371463033759786 -3.16108552181202e-17)
(0.215710567573366 0.00523560881570397 -4.18308039342455e-17)
(0.371368862294034 0.00359653496710524 -4.72672242733114e-17)
(0.228150353418284 0.00504688348999363 -4.00533292990346e-17)
(0.384289977564764 0.00345063830683304 -3.4448605364754e-17)
(0.242018411018722 0.00484244972345088 -8.60608615470496e-17)
(0.398730837041649 0.00326089273982307 -3.32895456653705e-17)
(0.25752380678712 0.00457953263284415 -3.64455046906815e-17)
(0.414926535028031 0.00303772271144495 -7.14085687073266e-17)
(0.27487611287063 0.00426935595652854 -8.0924448452494e-17)
(0.433175398715089 0.00276877349149277 -9.58202580738907e-17)
(0.294410028571498 0.00391046505772557 -8.21250606870446e-17)
(0.453816861243441 0.0024407876424487 -1.66472157295589e-17)
(0.316429008204463 0.00347932011013662 -9.5200685513335e-17)
(0.477282902087917 0.00205627043455296 -1.74893197924927e-17)
(0.341494875808817 0.00297046775777178 7.70441538563784e-17)
(0.50410755150503 0.00157196933695921 -5.87995860534805e-17)
(0.369880604999751 0.0023767508536538 -1.44028490207008e-16)
(0.534943445387739 0.00100833079985789 4.88370766068722e-17)
(0.402862922442452 0.00162782624147654 -1.65300277211835e-17)
(0.570725793987143 0.000335722372700373 7.36648807276774e-17)
(0.439925552501088 0.000813297490582533 1.44623173751456e-16)
(0.6126922328701 -0.000454123881420976 2.30095429769487e-17)
(0.48542357173395 -0.000233745823014338 5.3651164527603e-17)
(0.662316505614666 -0.00154245158121371 -4.5637619509831e-17)
(0.534210589887582 -0.00140775664690068 6.15473162425619e-19)
(0.722580869020389 -0.00242429279743786 -4.72803430890214e-17)
(0.602114884819492 -0.00300675579206382 -9.87919034486087e-17)
(0.798206098130636 -0.00364213919515254 1.61577823234789e-17)
(0.665689224616113 -0.00421529724342989 -1.23441963904069e-18)
(0.882778839533482 -0.00135880665174101 1.43871294447255e-17)
(0.787325095582655 -0.00582906826340401 3.24032785762654e-17)
(0.874411516966982 -0.000306244501717203 3.56734019935301e-17)
(0.827985251001673 -3.05643554245702e-05 5.20190416999957e-19)
(0.865013373759023 -0.000272188845261285 2.50052747744723e-17)
(0.797877713085873 -0.000452549493407461 8.44800926012435e-17)
(0.854230719989396 -0.000416856821632373 -1.38895871430494e-17)
(0.795211479018348 -0.000403090614785386 -2.7300113106797e-17)
(0.842633303050105 -0.000473079858856433 -4.42902828149347e-18)
(0.778211937235692 -0.000533153781564667 4.15441846918316e-18)
(0.830509670620877 -0.000537097321918496 -7.42782038750984e-18)
(0.766354504310204 -0.00056584836102028 -6.56886111161438e-18)
(0.818207544372112 -0.000571167478743314 -8.69090305538985e-18)
(0.751421404571754 -0.000622730986354065 -8.79718402253817e-18)
(0.806168487274238 -0.000594485124367867 -4.66386941481664e-19)
(0.737756264594754 -0.000628281294850522 -6.67920563898816e-18)
(0.794591430339694 -0.000585267636405266 2.73801376556618e-18)
(0.724045180382485 -0.000630575461598963 6.62297114483432e-18)
(0.783695082447312 -0.000557725841948933 -5.41774218413704e-19)
(0.711143700433485 -0.000615864635405336 -1.38384081091316e-18)
(0.773914791192855 -0.000508244553154072 2.35743955944882e-19)
(0.699197062399429 -0.000560988046172213 -7.78785788522243e-20)
(0.765365453262913 -0.000449596544236732 3.34143063917178e-19)
(0.688738273154989 -0.000495211381753689 7.40884107911871e-19)
(0.757956847955288 -0.00039519939609707 5.61311993393205e-20)
(0.679678797840112 -0.0004376256806667 8.07239140581595e-20)
(0.751968704058631 -0.00030076865590478 -3.14264291518522e-20)
(0.671802671734412 -0.000385805759209403 -2.70726934781963e-20)
(0.665605947341504 -0.000228709349242185 -6.52011814342089e-20)
(-0.0859950229604161 0.00656232103548661 1.31025294810425e-17)
(-0.164697687628484 0.00737609470295051 1.04619157998216e-17)
(-0.0841539906632037 0.00718101197945384 1.86696691032068e-17)
(-0.162128974416443 0.00799014024827101 1.3357503226035e-17)
(-0.0831657588648486 0.00797169975065801 1.93394248689289e-17)
(-0.161622846270003 0.00922317487458259 1.69447687544916e-17)
(-0.0826361946839066 0.0084816719427458 1.96265823039274e-17)
(-0.161266279079976 0.0100326843633268 1.14497345170985e-17)
(-0.0823020952298385 0.00873945904616415 5.92243594205192e-17)
(-0.161025301420324 0.0104405489841156 2.47728809442969e-17)
(-0.0820388995941593 0.00885133853850698 9.683934263434e-17)
(-0.16083400770546 0.0106188006481952 7.85524592846762e-17)
(-0.0817939947014062 0.00889324300673238 1.0765013028491e-16)
(-0.160650135454575 0.0106867151049119 8.72822924482439e-17)
(-0.0815462902993992 0.00890670799846083 1.07638927476652e-16)
(-0.160459038129976 0.0107081951642734 1.05713726496705e-16)
(-0.0812872128464949 0.00891059382485893 9.24429638629156e-17)
(-0.160256215037415 0.010713337749584 9.2713091238073e-17)
(-0.0810141122004545 0.00891181731072964 8.89274920717709e-17)
(-0.160039704322546 0.0107136284377657 1.05145234120756e-16)
(-0.080726295779812 0.00891261745442435 8.35066570175678e-17)
(-0.159808938810826 0.0107128431362699 1.13802020848717e-16)
(-0.0804229199734017 0.00891329315859808 9.94592087168237e-17)
(-0.159563346534114 0.010712002433314 7.00978044183535e-17)
(-0.0801034216261781 0.00891330869801253 1.13299135032253e-16)
(-0.159302066269037 0.0107107921843188 1.02344371215266e-16)
(-0.079767910040836 0.00891259629798558 9.47674247788766e-17)
(-0.159024887536008 0.0107087080845664 1.06439639955428e-16)
(-0.0794157510219589 0.00891160227234278 1.02767189474091e-16)
(-0.158731674039806 0.0107060987068867 8.23105939285812e-17)
(-0.0790457483054896 0.00891011645683396 1.67971510893931e-16)
(-0.158421371335272 0.0107032109370388 1.16119436171784e-16)
(-0.0786576103262276 0.00890778420092395 1.57453035893115e-16)
(-0.158093217346969 0.0106994881731405 2.17527165129681e-16)
(-0.0782509915614074 0.00890520931907091 6.90279714576419e-17)
(-0.157747095975261 0.0106949718336877 1.00874621355955e-16)
(-0.0778244961664921 0.00890315320170473 3.26958288551612e-17)
(-0.157382051575493 0.0106905397075817 7.39156092998872e-18)
(-0.0773766870335252 0.00890130850282565 8.42689444701634e-18)
(-0.156996476348534 0.0106865046957366 2.70379784023985e-17)
(-0.076906883323982 0.00889887170208119 -1.65854210769507e-17)
(-0.156589288162486 0.0106820797268454 1.93355383391485e-17)
(-0.0764141549974135 0.00889577645623644 -5.96935719160283e-17)
(-0.156159802745846 0.0106767590254555 -5.74824224803474e-18)
(-0.0758970622414073 0.00889229163895081 -1.0198382831814e-16)
(-0.155706737163495 0.0106708534057379 -8.63264385453893e-17)
(-0.075354612959374 0.00888838509802817 -6.43150257032352e-17)
(-0.155228851322341 0.0106644710063543 -7.32040003200815e-17)
(-0.0747855130139462 0.00888388020019671 -3.69039448891947e-17)
(-0.154725259976935 0.010657465062618 -3.46338027689724e-17)
(-0.0741880421530113 0.00887854543564356 -1.38767769170232e-17)
(-0.154194277913085 0.0106496198274719 -9.08736189614873e-17)
(-0.0735610848208084 0.00887246624079829 9.08511402187299e-17)
(-0.153634529632527 0.01064078245436 2.20063258980353e-17)
(-0.0729032717853399 0.00886607036309647 6.45199736555922e-18)
(-0.153045029216985 0.0106312574693065 1.22255179146124e-16)
(-0.0722122766276019 0.00885952869373647 -2.22757619580232e-16)
(-0.152423903372501 0.0106213802965549 -4.16909697757111e-17)
(-0.07148599535834 0.00885272627773915 -3.48976469978873e-16)
(-0.151768724070439 0.0106110669676628 -2.42434156250377e-16)
(-0.0707229494905097 0.00884607221211357 -3.54177397652088e-16)
(-0.15107777353706 0.0106002475860382 -3.40847850093602e-16)
(-0.0699201617930775 0.00884009567421626 -3.39381353092093e-16)
(-0.150349008298524 0.0105896503649082 -3.68652396389041e-16)
(-0.069073961372036 0.00883350877240749 -3.99903318262113e-16)
(-0.149578485424367 0.0105792378100005 -4.34696019683154e-16)
(-0.0681831779535259 0.00882518964698804 -2.51515053542446e-16)
(-0.148763782037029 0.0105669633770083 -4.30469238682949e-16)
(-0.0672454430842809 0.0088160480387608 5.24926515890436e-17)
(-0.147903875939275 0.0105530532204901 -7.76657115180353e-17)
(-0.0662563255832885 0.00880610956285407 1.56163526454587e-16)
(-0.146995039517938 0.0105385444200762 1.01816898099544e-16)
(-0.0652132264814125 0.00879479337468861 1.33602957672435e-16)
(-0.146033622223992 0.0105224671790145 1.87116057036239e-16)
(-0.0641135017241424 0.00878338541302392 9.38439896484754e-17)