/*--------------------------------*- C++ -*----------------------------------*\
| =========                 |                                                 |
| \\      /  F ield         | OpenFOAM: The Open Source CFD Toolbox           |
|  \\    /   O peration     | Version:  4.1                                   |
|   \\  /    A nd           | Web:      www.OpenFOAM.org                      |
|    \\/     M anipulation  |                                                 |
\*---------------------------------------------------------------------------*/
FoamFile
{
    version     2.0;
    format      ascii;
    class       pointVectorField;
    location    "0.0073";
    object      pointDisplacement_Next;
}
// * * * * * * * * * * * * * * * * * * * * * * * * * * * * * * * * * * * * * //

dimensions      [0 1 0 0 0 0 0];

internalField   uniform (0 0 0);

boundaryField
{
    inlet
    {
        type            fixedValue;
        value           nonuniform 0();
    }
    outlet
    {
        type            fixedValue;
        value           nonuniform 0();
    }
    mantle
    {
        type            fixedValue;
        value           nonuniform List<vector> 
416
(
(4.1216e-05 -7.8772e-05 -1.5862e-12)
(3.8664e-05 -8.7672e-05 -8.659e-11)
(3.8692e-05 -8.5812e-05 1.7015e-05)
(4.1267e-05 -7.7137e-05 1.5328e-05)
(3.8728e-05 -8.0543e-05 3.3365e-05)
(4.1326e-05 -7.2435e-05 3.0037e-05)
(3.872e-05 -7.2361e-05 4.8411e-05)
(4.1304e-05 -6.5065e-05 4.3529e-05)
(3.8704e-05 -6.1566e-05 6.1566e-05)
(4.1269e-05 -5.5326e-05 5.5325e-05)
(3.872e-05 -4.8412e-05 7.2363e-05)
(4.1304e-05 -4.3531e-05 6.5067e-05)
(3.8728e-05 -3.3367e-05 8.0545e-05)
(4.1326e-05 -3.0039e-05 7.2439e-05)
(3.8692e-05 -1.7016e-05 8.5813e-05)
(4.1267e-05 -1.5329e-05 7.7138e-05)
(3.8665e-05 7.6974e-11 8.7671e-05)
(4.1217e-05 -3.5929e-11 7.8771e-05)
(3.5892e-05 -9.4247e-05 8.791e-11)
(3.59e-05 -9.2192e-05 1.8256e-05)
(3.591e-05 -8.6497e-05 3.5813e-05)
(3.5919e-05 -7.7725e-05 5.2004e-05)
(3.5918e-05 -6.6173e-05 6.6173e-05)
(3.5919e-05 -5.2005e-05 7.7726e-05)
(3.5911e-05 -3.5814e-05 8.6498e-05)
(3.59e-05 -1.8256e-05 9.2192e-05)
(3.5892e-05 2.3268e-11 9.4246e-05)
(3.2823e-05 -9.7754e-05 4.2209e-10)
(3.2818e-05 -9.569e-05 1.8983e-05)
(3.2816e-05 -8.9825e-05 3.7215e-05)
(3.2818e-05 -8.0686e-05 5.3976e-05)
(3.2824e-05 -6.8634e-05 6.8634e-05)
(3.2818e-05 -5.3976e-05 8.0686e-05)
(3.2816e-05 -3.7215e-05 8.9826e-05)
(3.2818e-05 -1.8982e-05 9.5691e-05)
(3.2823e-05 2.1857e-10 9.7754e-05)
(2.9399e-05 -9.8666e-05 5.1676e-10)
(2.9387e-05 -9.6633e-05 1.9209e-05)
(2.9374e-05 -9.0755e-05 3.7632e-05)
(2.9367e-05 -8.1503e-05 5.4516e-05)
(2.9371e-05 -6.9282e-05 6.9282e-05)
(2.9368e-05 -5.4515e-05 8.1503e-05)
(2.9375e-05 -3.7631e-05 9.0755e-05)
(2.9387e-05 -1.9208e-05 9.6634e-05)
(2.9399e-05 1.8653e-10 9.8668e-05)
(2.5636e-05 -9.7593e-05 6.389e-10)
(2.5622e-05 -9.5586e-05 1.8991e-05)
(2.5599e-05 -8.9796e-05 3.7214e-05)
(2.5585e-05 -8.0666e-05 5.3946e-05)
(2.5583e-05 -6.8588e-05 6.8588e-05)
(2.5585e-05 -5.3946e-05 8.0665e-05)
(2.56e-05 -3.7213e-05 8.9795e-05)
(2.5622e-05 -1.899e-05 9.5585e-05)
(2.5636e-05 7.948e-11 9.7592e-05)
(2.1704e-05 -9.4806e-05 3.8392e-10)
(2.1691e-05 -9.2836e-05 1.842e-05)
(2.1663e-05 -8.722e-05 3.6125e-05)
(2.1649e-05 -7.8391e-05 5.2425e-05)
(2.1639e-05 -6.6694e-05 6.6694e-05)
(2.1649e-05 -5.2424e-05 7.839e-05)
(2.1663e-05 -3.6123e-05 8.7218e-05)
(2.1691e-05 -1.8418e-05 9.2833e-05)
(2.1704e-05 2.4147e-10 9.4802e-05)
(1.7817e-05 -9.0419e-05 2.2825e-10)
(1.7792e-05 -8.8555e-05 1.7564e-05)
(1.7758e-05 -8.3211e-05 3.4466e-05)
(1.7754e-05 -7.482e-05 5.0048e-05)
(1.7762e-05 -6.3669e-05 6.3669e-05)
(1.7754e-05 -5.0047e-05 7.4819e-05)
(1.7758e-05 -3.4465e-05 8.3209e-05)
(1.7792e-05 -1.7563e-05 8.855e-05)
(1.7817e-05 2.4935e-10 9.0414e-05)
(1.4108e-05 -8.4873e-05 1.5685e-10)
(1.4074e-05 -8.312e-05 1.6487e-05)
(1.403e-05 -7.8108e-05 3.2366e-05)
(1.4041e-05 -7.0267e-05 4.7018e-05)
(1.4063e-05 -5.9817e-05 5.9817e-05)
(1.4041e-05 -4.7017e-05 7.0266e-05)
(1.403e-05 -3.2365e-05 7.8106e-05)
(1.4073e-05 -1.6486e-05 8.3116e-05)
(1.4107e-05 1.476e-10 8.4868e-05)
(1.0639e-05 -7.849e-05 -1.3012e-11)
(1.0607e-05 -7.6877e-05 1.5245e-05)
(1.0565e-05 -7.2268e-05 2.9943e-05)
(1.057e-05 -6.503e-05 4.3519e-05)
(1.0587e-05 -5.5373e-05 5.5373e-05)
(1.057e-05 -4.3518e-05 6.5029e-05)
(1.0565e-05 -2.9942e-05 7.2266e-05)
(1.0606e-05 -1.5244e-05 7.6873e-05)
(1.0639e-05 2.1201e-10 7.8485e-05)
(7.4372e-06 -7.1432e-05 -5.0232e-11)
(7.407e-06 -6.9959e-05 1.3863e-05)
(7.3674e-06 -6.5778e-05 2.7246e-05)
(7.3672e-06 -5.9221e-05 3.963e-05)
(7.3792e-06 -5.0446e-05 5.0447e-05)
(7.3671e-06 -3.963e-05 5.922e-05)
(7.3671e-06 -2.7245e-05 6.5775e-05)
(7.4067e-06 -1.3862e-05 6.9956e-05)
(7.437e-06 1.9724e-10 7.1428e-05)
(4.5073e-06 -6.3793e-05 -5.0577e-11)
(4.4721e-06 -6.2499e-05 1.2383e-05)
(4.4305e-06 -5.8791e-05 2.4346e-05)
(4.441e-06 -5.2952e-05 3.5431e-05)
(4.463e-06 -4.5108e-05 4.5108e-05)
(4.4409e-06 -3.543e-05 5.2951e-05)
(4.4304e-06 -2.4345e-05 5.8789e-05)
(4.472e-06 -1.2383e-05 6.2496e-05)
(4.5072e-06 2.0766e-10 6.3789e-05)
(1.8699e-06 -5.6024e-05 -1.2134e-10)
(1.8303e-06 -5.4889e-05 1.087e-05)
(1.7863e-06 -5.164e-05 2.1384e-05)
(1.8108e-06 -4.6542e-05 3.115e-05)
(1.843e-06 -3.9668e-05 3.9668e-05)
(1.8107e-06 -3.1149e-05 4.6541e-05)
(1.7862e-06 -2.1383e-05 5.1638e-05)
(1.8302e-06 -1.0869e-05 5.4885e-05)
(1.8698e-06 2.8802e-10 5.602e-05)
(3.8693e-05 1.7016e-05 8.5813e-05)
(4.1267e-05 1.5328e-05 7.7138e-05)
(3.8728e-05 3.3367e-05 8.0546e-05)
(4.1326e-05 3.0038e-05 7.2439e-05)
(3.872e-05 4.8413e-05 7.2364e-05)
(4.1304e-05 4.3531e-05 6.5068e-05)
(3.8704e-05 6.1568e-05 6.1568e-05)
(4.1269e-05 5.5328e-05 5.5328e-05)
(3.872e-05 7.2364e-05 4.8413e-05)
(4.1304e-05 6.5067e-05 4.3531e-05)
(3.8728e-05 8.0546e-05 3.3367e-05)
(4.1326e-05 7.2438e-05 3.0038e-05)
(3.8692e-05 8.5815e-05 1.7016e-05)
(4.1267e-05 7.7139e-05 1.5328e-05)
(3.8664e-05 8.7675e-05 1.263e-10)
(4.1216e-05 7.8774e-05 2.3542e-10)
(3.59e-05 1.8257e-05 9.2192e-05)
(3.5911e-05 3.5814e-05 8.6499e-05)
(3.5919e-05 5.2006e-05 7.7728e-05)
(3.5918e-05 6.6175e-05 6.6175e-05)
(3.5919e-05 7.7727e-05 5.2006e-05)
(3.5911e-05 8.65e-05 3.5814e-05)
(3.59e-05 9.2195e-05 1.8257e-05)
(3.5892e-05 9.425e-05 2.148e-10)
(3.2818e-05 1.8983e-05 9.5691e-05)
(3.2816e-05 3.7215e-05 8.9826e-05)
(3.2819e-05 5.3977e-05 8.0687e-05)
(3.2824e-05 6.8635e-05 6.8635e-05)
(3.2819e-05 8.0686e-05 5.3977e-05)
(3.2816e-05 8.9826e-05 3.7215e-05)
(3.2818e-05 9.5692e-05 1.8983e-05)
(3.2823e-05 9.7757e-05 1.8346e-10)
(2.9387e-05 1.9208e-05 9.6634e-05)
(2.9375e-05 3.7631e-05 9.0755e-05)
(2.9368e-05 5.4516e-05 8.1503e-05)
(2.9371e-05 6.9283e-05 6.9282e-05)
(2.9368e-05 8.1503e-05 5.4515e-05)
(2.9375e-05 9.0754e-05 3.7631e-05)
(2.9387e-05 9.6633e-05 1.9208e-05)
(2.9399e-05 9.8668e-05 4.3242e-10)
(2.5622e-05 1.899e-05 9.5585e-05)
(2.56e-05 3.7213e-05 8.9795e-05)
(2.5586e-05 5.3945e-05 8.0664e-05)
(2.5583e-05 6.8587e-05 6.8587e-05)
(2.5585e-05 8.0664e-05 5.3945e-05)
(2.56e-05 8.9795e-05 3.7213e-05)
(2.5622e-05 9.5586e-05 1.8991e-05)
(2.5636e-05 9.7594e-05 2.3503e-10)
(2.1691e-05 1.8419e-05 9.2833e-05)
(2.1664e-05 3.6123e-05 8.7217e-05)
(2.1649e-05 5.2424e-05 7.8389e-05)
(2.1639e-05 6.6693e-05 6.6692e-05)
(2.1649e-05 7.8389e-05 5.2424e-05)
(2.1664e-05 8.7218e-05 3.6123e-05)
(2.1691e-05 9.2835e-05 1.8419e-05)
(2.1704e-05 9.4806e-05 3.0625e-10)
(1.7792e-05 1.7563e-05 8.855e-05)
(1.7758e-05 3.4464e-05 8.3208e-05)
(1.7754e-05 5.0046e-05 7.4818e-05)
(1.7762e-05 6.3667e-05 6.3667e-05)
(1.7754e-05 7.4818e-05 5.0046e-05)
(1.7758e-05 8.3209e-05 3.4465e-05)
(1.7792e-05 8.8552e-05 1.7563e-05)
(1.7817e-05 9.0418e-05 2.3379e-10)
(1.4073e-05 1.6486e-05 8.3115e-05)
(1.403e-05 3.2365e-05 7.8104e-05)
(1.4041e-05 4.7016e-05 7.0264e-05)
(1.4063e-05 5.9815e-05 5.9814e-05)
(1.4041e-05 7.0264e-05 4.7016e-05)
(1.403e-05 7.8106e-05 3.2365e-05)
(1.4074e-05 8.3117e-05 1.6487e-05)
(1.4108e-05 8.4872e-05 5.5263e-11)
(1.0606e-05 1.5244e-05 7.6872e-05)
(1.0565e-05 2.9942e-05 7.2264e-05)
(1.057e-05 4.3517e-05 6.5027e-05)
(1.0588e-05 5.5371e-05 5.537e-05)
(1.057e-05 6.5028e-05 4.3516e-05)
(1.0565e-05 7.2266e-05 2.9942e-05)
(1.0607e-05 7.6874e-05 1.5244e-05)
(1.0639e-05 7.8488e-05 -9.5642e-11)
(7.4068e-06 1.3862e-05 6.9955e-05)
(7.3672e-06 2.7244e-05 6.5773e-05)
(7.3672e-06 3.9628e-05 5.9217e-05)
(7.3792e-06 5.0445e-05 5.0444e-05)
(7.3672e-06 5.9218e-05 3.9628e-05)
(7.3673e-06 6.5775e-05 2.7244e-05)
(7.4069e-06 6.9957e-05 1.3862e-05)
(7.4371e-06 7.1431e-05 -9.2408e-11)
(4.472e-06 1.2383e-05 6.2495e-05)
(4.4304e-06 2.4345e-05 5.8787e-05)
(4.4409e-06 3.5429e-05 5.2949e-05)
(4.463e-06 4.5106e-05 4.5106e-05)
(4.441e-06 5.295e-05 3.5429e-05)
(4.4305e-06 5.8789e-05 2.4345e-05)
(4.4721e-06 6.2498e-05 1.2383e-05)
(4.5074e-06 6.3792e-05 -2.0357e-10)
(1.8302e-06 1.0869e-05 5.4884e-05)
(1.7862e-06 2.1383e-05 5.1636e-05)
(1.8107e-06 3.1148e-05 4.6539e-05)
(1.843e-06 3.9667e-05 3.9666e-05)
(1.8108e-06 4.6541e-05 3.1148e-05)
(1.7864e-06 5.1638e-05 2.1383e-05)
(1.8305e-06 5.4887e-05 1.0869e-05)
(1.8702e-06 5.6023e-05 -2.4107e-10)
(3.8692e-05 8.5816e-05 -1.7016e-05)
(4.1266e-05 7.714e-05 -1.5328e-05)
(3.8728e-05 8.0548e-05 -3.3367e-05)
(4.1326e-05 7.244e-05 -3.0039e-05)
(3.872e-05 7.2365e-05 -4.8413e-05)
(4.1304e-05 6.5068e-05 -4.3532e-05)
(3.8704e-05 6.1568e-05 -6.1568e-05)
(4.1268e-05 5.5328e-05 -5.5328e-05)
(3.872e-05 4.8413e-05 -7.2365e-05)
(4.1304e-05 4.3531e-05 -6.5068e-05)
(3.8727e-05 3.3367e-05 -8.0548e-05)
(4.1326e-05 3.0038e-05 -7.244e-05)
(3.8692e-05 1.7016e-05 -8.5817e-05)
(4.1266e-05 1.5328e-05 -7.7141e-05)
(3.8664e-05 -1.7838e-10 -8.7676e-05)
(4.1216e-05 -1.9565e-10 -7.8775e-05)
(3.59e-05 9.2196e-05 -1.8256e-05)
(3.591e-05 8.6501e-05 -3.5814e-05)
(3.5919e-05 7.7728e-05 -5.2006e-05)
(3.5918e-05 6.6175e-05 -6.6175e-05)
(3.5919e-05 5.2006e-05 -7.7728e-05)
(3.591e-05 3.5815e-05 -8.6502e-05)
(3.59e-05 1.8257e-05 -9.2197e-05)
(3.5892e-05 -5.9396e-12 -9.4251e-05)
(3.2818e-05 9.5694e-05 -1.8983e-05)
(3.2816e-05 8.9828e-05 -3.7216e-05)
(3.2818e-05 8.0688e-05 -5.3977e-05)
(3.2824e-05 6.8635e-05 -6.8635e-05)
(3.2818e-05 5.3978e-05 -8.0688e-05)
(3.2816e-05 3.7216e-05 -8.9828e-05)
(3.2818e-05 1.8983e-05 -9.5695e-05)
(3.2823e-05 -1.2278e-12 -9.7758e-05)
(2.9387e-05 9.6635e-05 -1.9208e-05)
(2.9375e-05 9.0757e-05 -3.7632e-05)
(2.9368e-05 8.1505e-05 -5.4516e-05)
(2.9371e-05 6.9283e-05 -6.9283e-05)
(2.9368e-05 5.4517e-05 -8.1505e-05)
(2.9375e-05 3.7633e-05 -9.0757e-05)
(2.9387e-05 1.9209e-05 -9.6636e-05)
(2.9399e-05 1.8715e-10 -9.867e-05)
(2.5622e-05 9.5588e-05 -1.899e-05)
(2.56e-05 8.9798e-05 -3.7214e-05)
(2.5585e-05 8.0667e-05 -5.3946e-05)
(2.5583e-05 6.8589e-05 -6.8588e-05)
(2.5585e-05 5.3947e-05 -8.0666e-05)
(2.5599e-05 3.7215e-05 -8.9798e-05)
(2.5622e-05 1.8991e-05 -9.5589e-05)
(2.5636e-05 3.9515e-10 -9.7595e-05)
(2.1692e-05 9.2837e-05 -1.8419e-05)
(2.1664e-05 8.7221e-05 -3.6124e-05)
(2.1649e-05 7.8392e-05 -5.2425e-05)
(2.1639e-05 6.6695e-05 -6.6694e-05)
(2.1649e-05 5.2426e-05 -7.8391e-05)
(2.1663e-05 3.6125e-05 -8.7221e-05)
(2.1691e-05 1.842e-05 -9.2838e-05)
(2.1703e-05 2.6441e-10 -9.4807e-05)
(1.7792e-05 8.8554e-05 -1.7563e-05)
(1.7758e-05 8.3212e-05 -3.4465e-05)
(1.7754e-05 7.4821e-05 -5.0047e-05)
(1.7762e-05 6.367e-05 -6.3669e-05)
(1.7754e-05 5.0048e-05 -7.4821e-05)
(1.7758e-05 3.4466e-05 -8.3211e-05)
(1.7792e-05 1.7564e-05 -8.8554e-05)
(1.7817e-05 2.3568e-10 -9.0419e-05)
(1.4074e-05 8.3119e-05 -1.6487e-05)
(1.403e-05 7.8108e-05 -3.2366e-05)
(1.4041e-05 7.0267e-05 -4.7018e-05)
(1.4063e-05 5.9818e-05 -5.9817e-05)
(1.4041e-05 4.7019e-05 -7.0267e-05)
(1.403e-05 3.2366e-05 -7.8107e-05)
(1.4074e-05 1.6487e-05 -8.3118e-05)
(1.4108e-05 3.1781e-10 -8.4872e-05)
(1.0607e-05 7.6876e-05 -1.5244e-05)
(1.0565e-05 7.2268e-05 -2.9943e-05)
(1.057e-05 6.5031e-05 -4.3518e-05)
(1.0587e-05 5.5373e-05 -5.5373e-05)
(1.057e-05 4.3519e-05 -6.503e-05)
(1.0565e-05 2.9943e-05 -7.2267e-05)
(1.0607e-05 1.5245e-05 -7.6875e-05)
(1.0639e-05 3.9574e-10 -7.8487e-05)
(7.4069e-06 6.9958e-05 -1.3863e-05)
(7.3673e-06 6.5777e-05 -2.7245e-05)
(7.3672e-06 5.922e-05 -3.963e-05)
(7.3792e-06 5.0447e-05 -5.0446e-05)
(7.3671e-06 3.963e-05 -5.9219e-05)
(7.3672e-06 2.7245e-05 -6.5775e-05)
(7.4068e-06 1.3863e-05 -6.9957e-05)
(7.437e-06 3.5401e-10 -7.1429e-05)
(4.4722e-06 6.2498e-05 -1.2383e-05)
(4.4306e-06 5.8791e-05 -2.4346e-05)
(4.441e-06 5.2952e-05 -3.543e-05)
(4.463e-06 4.5108e-05 -4.5107e-05)
(4.441e-06 3.543e-05 -5.2951e-05)
(4.4304e-06 2.4346e-05 -5.8789e-05)
(4.472e-06 1.2383e-05 -6.2496e-05)
(4.5073e-06 4.1093e-10 -6.379e-05)
(1.8306e-06 5.4887e-05 -1.087e-05)
(1.7865e-06 5.1639e-05 -2.1384e-05)
(1.8109e-06 4.6542e-05 -3.1149e-05)
(1.8432e-06 3.9668e-05 -3.9668e-05)
(1.8109e-06 3.1149e-05 -4.6541e-05)
(1.7864e-06 2.1384e-05 -5.1637e-05)
(1.8304e-06 1.0869e-05 -5.4885e-05)
(1.87e-06 3.8779e-10 -5.6021e-05)
(3.8692e-05 -1.7016e-05 -8.5815e-05)
(4.1267e-05 -1.5328e-05 -7.7139e-05)
(3.8728e-05 -3.3366e-05 -8.0543e-05)
(4.1326e-05 -3.0037e-05 -7.2435e-05)
(3.872e-05 -4.8411e-05 -7.236e-05)
(4.1304e-05 -4.3529e-05 -6.5064e-05)
(3.8704e-05 -6.1565e-05 -6.1564e-05)
(4.1269e-05 -5.5325e-05 -5.5325e-05)
(3.872e-05 -7.2361e-05 -4.8411e-05)
(4.1304e-05 -6.5066e-05 -4.353e-05)
(3.8728e-05 -8.0544e-05 -3.3366e-05)
(4.1326e-05 -7.2437e-05 -3.0038e-05)
(3.8692e-05 -8.5813e-05 -1.7015e-05)
(4.1267e-05 -7.7138e-05 -1.5328e-05)
(3.59e-05 -1.8256e-05 -9.2195e-05)
(3.5911e-05 -3.5813e-05 -8.6498e-05)
(3.5919e-05 -5.2004e-05 -7.7724e-05)
(3.5918e-05 -6.6172e-05 -6.6172e-05)
(3.5919e-05 -7.7725e-05 -5.2004e-05)
(3.5911e-05 -8.6498e-05 -3.5813e-05)
(3.59e-05 -9.2193e-05 -1.8256e-05)
(3.2818e-05 -1.8983e-05 -9.5692e-05)
(3.2816e-05 -3.7215e-05 -8.9825e-05)
(3.2818e-05 -5.3975e-05 -8.0684e-05)
(3.2824e-05 -6.8633e-05 -6.8633e-05)
(3.2819e-05 -8.0685e-05 -5.3976e-05)
(3.2816e-05 -8.9826e-05 -3.7215e-05)
(3.2818e-05 -9.5691e-05 -1.8982e-05)
(2.9387e-05 -1.9208e-05 -9.6634e-05)
(2.9374e-05 -3.7632e-05 -9.0755e-05)
(2.9367e-05 -5.4515e-05 -8.1503e-05)
(2.9371e-05 -6.9282e-05 -6.9282e-05)
(2.9368e-05 -8.1503e-05 -5.4515e-05)
(2.9375e-05 -9.0756e-05 -3.7631e-05)
(2.9388e-05 -9.6633e-05 -1.9208e-05)
(2.5622e-05 -1.8991e-05 -9.5587e-05)
(2.5599e-05 -3.7213e-05 -8.9796e-05)
(2.5585e-05 -5.3946e-05 -8.0665e-05)
(2.5583e-05 -6.8588e-05 -6.8588e-05)
(2.5585e-05 -8.0666e-05 -5.3946e-05)
(2.56e-05 -8.9796e-05 -3.7213e-05)
(2.5622e-05 -9.5586e-05 -1.899e-05)
(2.1691e-05 -1.8419e-05 -9.2837e-05)
(2.1663e-05 -3.6124e-05 -8.722e-05)
(2.1649e-05 -5.2425e-05 -7.8391e-05)
(2.1639e-05 -6.6694e-05 -6.6694e-05)
(2.1649e-05 -7.8391e-05 -5.2425e-05)
(2.1664e-05 -8.722e-05 -3.6124e-05)
(2.1692e-05 -9.2836e-05 -1.8419e-05)
(1.7792e-05 -1.7563e-05 -8.8554e-05)
(1.7758e-05 -3.4465e-05 -8.3211e-05)
(1.7753e-05 -5.0047e-05 -7.482e-05)
(1.7762e-05 -6.3669e-05 -6.3669e-05)
(1.7754e-05 -7.4821e-05 -5.0047e-05)
(1.7758e-05 -8.3211e-05 -3.4465e-05)
(1.7792e-05 -8.8554e-05 -1.7563e-05)
(1.4073e-05 -1.6487e-05 -8.3119e-05)
(1.403e-05 -3.2366e-05 -7.8108e-05)
(1.4041e-05 -4.7018e-05 -7.0267e-05)
(1.4063e-05 -5.9817e-05 -5.9817e-05)
(1.4041e-05 -7.0267e-05 -4.7018e-05)
(1.403e-05 -7.8108e-05 -3.2366e-05)
(1.4074e-05 -8.312e-05 -1.6487e-05)
(1.0607e-05 -1.5244e-05 -7.6875e-05)
(1.0565e-05 -2.9942e-05 -7.2267e-05)
(1.057e-05 -4.3518e-05 -6.503e-05)
(1.0588e-05 -5.5373e-05 -5.5373e-05)
(1.057e-05 -6.503e-05 -4.3518e-05)
(1.0565e-05 -7.2267e-05 -2.9943e-05)
(1.0607e-05 -7.6876e-05 -1.5244e-05)
(7.4068e-06 -1.3862e-05 -6.9957e-05)
(7.3673e-06 -2.7245e-05 -6.5776e-05)
(7.3672e-06 -3.9629e-05 -5.9219e-05)
(7.3793e-06 -5.0446e-05 -5.0446e-05)
(7.3673e-06 -5.922e-05 -3.963e-05)
(7.3674e-06 -6.5777e-05 -2.7245e-05)
(7.4069e-06 -6.9959e-05 -1.3863e-05)
(4.472e-06 -1.2383e-05 -6.2497e-05)
(4.4305e-06 -2.4345e-05 -5.8789e-05)
(4.441e-06 -3.5429e-05 -5.2951e-05)
(4.463e-06 -4.5107e-05 -4.5107e-05)
(4.441e-06 -5.2951e-05 -3.543e-05)
(4.4305e-06 -5.879e-05 -2.4346e-05)
(4.472e-06 -6.2499e-05 -1.2383e-05)
(1.8304e-06 -1.0869e-05 -5.4886e-05)
(1.7864e-06 -2.1383e-05 -5.1638e-05)
(1.8108e-06 -3.1149e-05 -4.6541e-05)
(1.8431e-06 -3.9667e-05 -3.9668e-05)
(1.8108e-06 -4.6542e-05 -3.115e-05)
(1.7863e-06 -5.1639e-05 -2.1384e-05)
(1.8303e-06 -5.4888e-05 -1.087e-05)
)
;
    }
    procBoundary2to1
    {
        type            processor;
    }
    procBoundary2to3
    {
        type            processor;
    }
}


// ************************************************************************* //
