/*--------------------------------*- C++ -*----------------------------------*\
| =========                 |                                                 |
| \\      /  F ield         | foam-extend: Open Source CFD                    |
|  \\    /   O peration     | Version:     4.1-20200408                       |
|   \\  /    A nd           | Web:         http://www.foam-extend.org         |
|    \\/     M anipulation  |                                                 |
\*---------------------------------------------------------------------------*/
FoamFile
{
    version     2.0;
    format      ascii;
    class       volScalarField;
    location    "0.0530000";
    object      rho_0;
}
// * * * * * * * * * * * * * * * * * * * * * * * * * * * * * * * * * * * * * //

dimensions      [1 -3 0 0 0 0 0];

internalField   nonuniform List<scalar> 
1952
(
7858.64
7857.72
7856.42
7854.81
7852.76
7850.55
7847.97
7844.97
7841.5
7837.16
7832.35
7825.61
7817.99
7809.3
7803.73
7859.05
7858.51
7857.59
7856.3
7854.68
7852.63
7850.42
7847.84
7844.84
7841.37
7837.04
7832.23
7825.5
7817.91
7809.25
7803.74
7858.93
7858.41
7857.48
7856.19
7854.57
7852.52
7850.31
7847.73
7844.74
7841.27
7836.94
7832.14
7825.42
7817.84
7809.2
7803.72
7858.82
7858.31
7857.38
7856.09
7854.47
7852.42
7850.22
7847.63
7844.65
7841.18
7836.86
7832.07
7825.36
7817.8
7809.18
7803.72
7858.72
7858.23
7857.3
7856
7854.39
7852.34
7850.14
7847.55
7844.57
7841.1
7836.8
7832.01
7825.31
7817.76
7809.16
7803.72
7858.64
7858.15
7857.23
7855.93
7854.31
7852.27
7850.07
7847.49
7844.51
7841.04
7836.75
7831.96
7825.27
7817.73
7809.14
7803.72
7858.57
7858.09
7857.17
7855.87
7854.25
7852.21
7850.01
7847.43
7844.45
7840.99
7836.7
7831.92
7825.23
7817.7
7809.12
7803.71
7858.51
7858.04
7857.12
7855.82
7854.2
7852.16
7849.96
7847.38
7844.41
7840.94
7836.66
7831.89
7825.2
7817.67
7809.1
7803.7
7858.46
7858
7857.07
7855.77
7854.16
7852.12
7849.92
7847.34
7844.37
7840.9
7836.62
7831.86
7825.17
7817.65
7809.08
7803.69
7858.41
7857.96
7857.04
7855.73
7854.12
7852.08
7849.88
7847.31
7844.33
7840.87
7836.59
7831.82
7825.14
7817.62
7809.06
7803.67
7858.38
7857.93
7857
7855.7
7854.08
7852.04
7849.85
7847.27
7844.3
7840.83
7836.56
7831.79
7825.11
7817.59
7809.03
7803.65
7858.35
7857.9
7856.97
7855.67
7854.05
7852.01
7849.82
7847.24
7844.27
7840.8
7836.53
7831.76
7825.08
7817.56
7809.01
7803.63
7858.32
7857.88
7856.95
7855.64
7854.02
7851.99
7849.79
7847.21
7844.24
7840.76
7836.5
7831.73
7825.04
7817.53
7808.98
7803.6
7858.29
7857.86
7856.93
7855.62
7854
7851.96
7849.77
7847.19
7844.21
7840.73
7836.47
7831.7
7825.01
7817.49
7808.95
7803.58
7858.28
7857.84
7856.91
7855.6
7853.98
7851.94
7849.75
7847.16
7844.19
7840.7
7836.44
7831.67
7824.98
7817.46
7808.92
7803.54
7858.26
7857.83
7856.9
7855.58
7853.96
7851.92
7849.72
7847.14
7844.16
7840.67
7836.41
7831.64
7824.94
7817.42
7808.88
7803.51
7858.25
7857.81
7856.88
7855.57
7853.94
7851.9
7849.7
7847.11
7844.13
7840.64
7836.38
7831.61
7824.9
7817.38
7808.85
7803.47
7858.23
7857.8
7856.87
7855.56
7853.92
7851.88
7849.68
7847.09
7844.11
7840.61
7836.35
7831.57
7824.86
7817.34
7808.81
7803.43
7858.23
7857.8
7856.86
7855.54
7853.91
7851.87
7849.67
7847.07
7844.08
7840.58
7836.32
7831.53
7824.82
7817.3
7808.77
7803.39
7858.22
7857.79
7856.85
7855.53
7853.89
7851.85
7849.65
7847.04
7844.05
7840.55
7836.28
7831.5
7824.78
7817.25
7808.72
7803.34
7858.21
7857.79
7856.85
7855.52
7853.88
7851.84
7849.63
7847.02
7844.03
7840.51
7836.25
7831.46
7824.73
7817.2
7808.67
7803.29
7858.21
7857.79
7856.85
7855.52
7853.87
7851.83
7849.62
7847
7844.01
7840.48
7836.21
7831.42
7824.68
7817.14
7808.62
7803.24
7858.21
7857.79
7856.85
7855.52
7853.87
7851.82
7849.61
7846.99
7843.98
7840.45
7836.18
7831.37
7824.63
7817.09
7808.57
7803.17
7858.22
7857.81
7856.86
7855.52
7853.87
7851.81
7849.6
7846.97
7843.96
7840.42
7836.14
7831.33
7824.58
7817.03
7808.51
7803.11
7858.23
7857.82
7856.87
7855.53
7853.87
7851.81
7849.59
7846.96
7843.94
7840.39
7836.11
7831.28
7824.53
7816.97
7808.44
7803.04
7858.25
7857.85
7856.9
7855.55
7853.89
7851.82
7849.59
7846.95
7843.93
7840.36
7836.08
7831.24
7824.47
7816.9
7808.37
7802.96
7858.28
7857.89
7856.93
7855.58
7853.91
7851.84
7849.6
7846.95
7843.92
7840.34
7836.05
7831.19
7824.42
7816.83
7808.3
7802.87
7858.32
7857.94
7856.98
7855.62
7853.95
7851.87
7849.62
7846.96
7843.91
7840.32
7836.02
7831.15
7824.36
7816.75
7808.22
7802.78
7858.37
7858.01
7857.04
7855.68
7854
7851.91
7849.66
7846.98
7843.92
7840.31
7836.01
7831.11
7824.31
7816.68
7808.14
7802.68
7858.44
7858.09
7857.13
7855.76
7854.06
7851.97
7849.71
7847.01
7843.94
7840.31
7835.99
7831.07
7824.25
7816.6
7808.05
7802.57
7858.53
7858.2
7857.23
7855.85
7854.15
7852.04
7849.77
7847.06
7843.97
7840.33
7835.99
7831.05
7824.2
7816.52
7807.96
7802.45
7858.64
7858.34
7857.37
7855.98
7854.27
7852.15
7849.87
7847.13
7844.03
7840.36
7836.01
7831.03
7824.16
7816.44
7807.86
7802.32
7858.78
7858.51
7857.53
7856.14
7854.42
7852.28
7849.99
7847.23
7844.11
7840.41
7836.04
7831.02
7824.13
7816.37
7807.77
7802.19
7858.95
7858.72
7857.74
7856.33
7854.6
7852.45
7850.15
7847.37
7844.22
7840.5
7836.1
7831.04
7824.11
7816.31
7807.67
7802.05
7859.16
7858.97
7857.99
7856.57
7854.83
7852.67
7850.35
7847.54
7844.38
7840.62
7836.19
7831.09
7824.12
7816.26
7807.59
7801.9
7859.42
7859.28
7858.29
7856.86
7855.11
7852.93
7850.6
7847.77
7844.58
7840.78
7836.33
7831.17
7824.16
7816.23
7807.52
7801.76
7859.72
7859.63
7858.65
7857.21
7855.45
7853.26
7850.91
7848.05
7844.84
7841.01
7836.52
7831.3
7824.24
7816.24
7807.47
7801.62
7860.08
7860.05
7859.06
7857.62
7855.86
7853.65
7851.29
7848.41
7845.17
7841.3
7836.78
7831.49
7824.38
7816.28
7807.45
7801.49
7860.5
7860.53
7859.55
7858.09
7856.34
7854.12
7851.75
7848.85
7845.59
7841.68
7837.12
7831.77
7824.59
7816.39
7807.48
7801.39
7860.98
7861.07
7860.1
7858.64
7856.89
7854.67
7852.3
7849.39
7846.11
7842.17
7837.57
7832.15
7824.91
7816.59
7807.58
7801.33
7861.53
7861.68
7860.72
7859.27
7857.52
7855.32
7852.95
7850.04
7846.75
7842.79
7838.16
7832.67
7825.36
7816.9
7807.78
7801.32
7862.13
7862.34
7861.4
7859.96
7858.23
7856.05
7853.7
7850.81
7847.53
7843.57
7838.92
7833.37
7825.98
7817.37
7808.13
7801.42
7862.79
7863.04
7862.13
7860.71
7859.02
7856.87
7854.56
7851.71
7848.46
7844.52
7839.88
7834.29
7826.85
7818.08
7808.68
7801.64
7863.49
7863.77
7862.89
7861.5
7859.86
7857.78
7855.53
7852.75
7849.55
7845.69
7841.08
7835.49
7828.02
7819.1
7809.52
7802.01
7864.21
7864.49
7863.65
7862.31
7860.74
7858.74
7856.59
7853.92
7850.83
7847.08
7842.57
7837.06
7829.62
7820.6
7810.85
7802.74
7864.91
7865.15
7864.37
7863.09
7861.61
7859.73
7857.7
7855.2
7852.26
7848.72
7844.38
7839.06
7831.78
7822.82
7813.11
7804.55
7865.56
7865.69
7864.98
7863.78
7862.42
7860.69
7858.83
7856.55
7853.83
7850.58
7846.52
7841.56
7834.66
7826.14
7817.09
7809.24
7866.08
7866.05
7865.41
7864.32
7863.09
7861.55
7859.89
7857.89
7855.44
7852.58
7848.88
7844.42
7838
7830.09
7821.85
7814.84
7866.42
7866.13
7865.58
7864.6
7863.54
7862.21
7860.8
7859.13
7857
7854.62
7851.35
7847.52
7841.67
7834.52
7827.1
7820.73
7866.47
7865.82
7865.37
7864.52
7863.64
7862.55
7861.42
7860.12
7858.38
7856.55
7853.78
7850.71
7845.49
7839.28
7832.65
7826.82
7866.14
7865.02
7864.66
7863.95
7863.28
7862.45
7861.62
7860.73
7859.42
7858.19
7856
7853.8
7849.29
7844.33
7838.39
7833.13
7865.3
7863.58
7863.34
7862.77
7862.31
7861.75
7861.24
7860.77
7859.94
7859.36
7857.82
7856.61
7852.97
7849.56
7844.32
7839.85
7863.83
7861.38
7861.24
7860.83
7860.6
7860.31
7860.14
7860.09
7859.74
7859.79
7858.89
7858.65
7856.13
7854.62
7850.39
7847.2
7861.59
7858.3
7858.29
7858.03
7858
7857.92
7858
7858.27
7858.38
7859.11
7858.98
7859.84
7858.57
7858.94
7856.16
7855.28
7858.47
7854.04
7854.12
7853.99
7854.21
7854.45
7854.9
7855.64
7856.34
7857.8
7858.54
7860.51
7860.43
7862.54
7861.41
7863.67
7854.19
7848.75
7849.03
7849.21
7849.84
7850.63
7851.69
7853.12
7854.53
7856.69
7858.23
7861.2
7862.28
7866.02
7866.39
7871.86
7848.84
7843.7
7844.3
7844.91
7846.03
7847.38
7849.08
7851.16
7853.28
7856.11
7858.39
7862.13
7864.13
7869.13
7870.73
7878.67
7843.65
7839.73
7840.61
7841.64
7843.22
7845.03
7847.23
7849.8
7852.47
7855.81
7858.69
7863.01
7865.78
7871.67
7874.25
7883.82
7839.53
7837.04
7838.09
7839.39
7841.27
7843.42
7845.99
7848.91
7852.01
7855.69
7859.07
7863.75
7867.12
7873.53
7876.85
7887.31
7836.72
7835.56
7836.69
7838.15
7840.2
7842.56
7845.36
7848.49
7851.88
7855.75
7859.48
7864.32
7868.12
7874.68
7878.51
7889.2
7835.16
7835.21
7836.35
7837.88
7839.99
7842.43
7845.35
7848.56
7852.09
7856.01
7859.93
7864.73
7868.77
7875.17
7879.25
7889.59
7834.75
7835.88
7836.99
7838.52
7840.61
7843.03
7845.95
7849.11
7852.66
7856.47
7860.43
7865
7869.11
7875.04
7879.14
7888.58
7835.4
7837.51
7838.55
7840.01
7842.01
7844.32
7847.14
7850.14
7853.58
7857.16
7861.02
7865.2
7869.18
7874.37
7878.24
7886.28
7837.05
7840.04
7840.97
7842.3
7844.13
7846.24
7848.86
7851.61
7854.85
7858.09
7861.71
7865.34
7869.02
7873.23
7876.61
7882.86
7839.63
7843.39
7844.18
7845.32
7846.91
7848.75
7851.08
7853.5
7856.43
7859.24
7862.51
7865.47
7868.67
7871.68
7874.34
7878.46
7843.04
7847.44
7848.09
7849
7850.32
7851.82
7853.8
7855.81
7858.34
7860.64
7863.44
7865.62
7868.16
7869.8
7871.52
7873.32
7847.17
7852.02
7852.55
7853.25
7854.3
7855.45
7857.03
7858.58
7860.64
7862.34
7864.56
7865.85
7867.55
7867.65
7868.25
7867.71
7851.8
7856.91
7857.37
7857.92
7858.76
7859.6
7860.81
7861.89
7863.43
7864.47
7865.98
7866.26
7866.92
7865.33
7864.65
7861.91
7856.73
7861.92
7862.34
7862.81
7863.51
7864.16
7865.08
7865.75
7866.77
7867.13
7867.84
7867
7866.39
7862.98
7860.93
7856.24
7861.76
7866.85
7867.22
7867.6
7868.23
7868.77
7869.54
7869.93
7870.55
7870.33
7870.24
7868.25
7866.2
7860.9
7857.45
7851.09
7866.71
7871.57
7871.9
7872.21
7872.79
7873.36
7874.14
7874.48
7874.91
7874.27
7873.44
7870.26
7866.62
7859.5
7854.76
7847
7871.46
7876.77
7877.09
7877.37
7877.86
7878.18
7878.54
7878.32
7877.96
7876.38
7874.38
7870.15
7865.6
7858.18
7852.91
7844.32
7876.65
7880.1
7880.22
7880.14
7880
7879.45
7878.75
7877.42
7875.82
7873.22
7870.39
7866.12
7862.04
7855.77
7851.25
7843.01
7880.04
7877.82
7877.57
7877.08
7876.37
7875.31
7874.07
7872.32
7870.37
7867.68
7864.93
7861.17
7857.88
7852.8
7849.21
7842.66
7877.9
7873.08
7872.69
7872.05
7871.22
7870.2
7869.03
7867.43
7865.65
7863.23
7860.72
7857.37
7854.25
7850
7846.67
7841.96
7873.22
7868.86
7868.5
7867.93
7867.16
7866.13
7864.91
7863.33
7861.58
7859.33
7857.01
7854.06
7851.27
7847.67
7844.47
7840.68
7868.98
7864.95
7864.58
7864.02
7863.26
7862.29
7861.13
7859.67
7858.05
7856.02
7853.93
7851.32
7848.82
7845.7
7842.89
7839.39
7865.08
7861.48
7861.12
7860.6
7859.88
7858.96
7857.87
7856.51
7855.01
7853.19
7851.3
7849.01
7846.8
7844.12
7841.66
7838.71
7861.6
7858.34
7857.99
7857.51
7856.83
7855.99
7854.98
7853.75
7852.39
7850.76
7849.08
7847.07
7845.13
7842.82
7840.7
7838.16
7858.45
7855.55
7855.22
7854.78
7854.15
7853.38
7852.46
7851.35
7850.13
7848.68
7847.19
7845.45
7843.75
7841.77
7839.96
7837.81
7855.66
7853.06
7852.75
7852.36
7851.78
7851.09
7850.25
7849.26
7848.17
7846.9
7845.59
7844.08
7842.61
7840.92
7839.37
7837.54
7853.16
7850.86
7850.57
7850.22
7849.7
7849.08
7848.33
7847.45
7846.48
7845.37
7844.23
7842.92
7841.65
7840.21
7838.9
7837.35
7850.95
7848.91
7848.65
7848.33
7847.86
7847.32
7846.64
7845.87
7845.02
7844.06
7843.06
7841.93
7840.85
7839.62
7838.51
7837.2
7848.99
7847.19
7846.95
7846.67
7846.25
7845.77
7845.18
7844.5
7843.76
7842.92
7842.05
7841.09
7840.16
7839.12
7838.18
7837.08
7847.26
7845.67
7845.45
7845.21
7844.84
7844.41
7843.89
7843.31
7842.66
7841.93
7841.19
7840.36
7839.57
7838.69
7837.89
7836.97
7845.73
7844.33
7844.14
7843.92
7843.59
7843.23
7842.77
7842.26
7841.7
7841.07
7840.43
7839.73
7839.05
7838.31
7837.64
7836.86
7844.38
7843.15
7842.97
7842.79
7842.5
7842.18
7841.78
7841.34
7840.85
7840.32
7839.77
7839.17
7838.6
7837.97
7837.41
7836.75
7843.19
7842.1
7841.95
7841.79
7841.53
7841.26
7840.91
7840.53
7840.11
7839.65
7839.18
7838.68
7838.19
7837.66
7837.19
7836.63
7842.14
7841.17
7841.04
7840.9
7840.68
7840.44
7840.14
7839.82
7839.46
7839.06
7838.66
7838.23
7837.82
7837.38
7836.98
7836.5
7841.21
7840.35
7840.23
7840.12
7839.92
7839.72
7839.46
7839.18
7838.87
7838.54
7838.2
7837.83
7837.48
7837.11
7836.77
7836.37
7840.38
7839.62
7839.52
7839.42
7839.25
7839.08
7838.85
7838.61
7838.35
7838.06
7837.77
7837.46
7837.17
7836.85
7836.57
7836.22
7839.65
7838.97
7838.88
7838.79
7838.65
7838.5
7838.31
7838.1
7837.88
7837.64
7837.39
7837.13
7836.88
7836.61
7836.37
7836.06
7838.99
7838.39
7838.31
7838.23
7838.11
7837.98
7837.82
7837.64
7837.45
7837.24
7837.03
7836.81
7836.6
7836.37
7836.17
7835.9
7838.41
7837.86
7837.79
7837.73
7837.62
7837.51
7837.37
7837.22
7837.06
7836.88
7836.7
7836.51
7836.34
7836.14
7835.97
7835.74
7837.88
7837.39
7837.33
7837.28
7837.18
7837.09
7836.97
7836.84
7836.7
7836.55
7836.4
7836.24
7836.08
7835.92
7835.77
7835.56
7837.4
7836.96
7836.91
7836.86
7836.78
7836.7
7836.6
7836.49
7836.37
7836.24
7836.11
7835.97
7835.84
7835.7
7835.57
7835.38
7836.97
7836.57
7836.52
7836.48
7836.41
7836.34
7836.25
7836.16
7836.06
7835.95
7835.84
7835.72
7835.61
7835.48
7835.37
7835.2
7836.58
7836.21
7836.17
7836.14
7836.08
7836.02
7835.94
7835.86
7835.77
7835.67
7835.58
7835.48
7835.38
7835.27
7835.17
7835.02
7836.22
7835.88
7835.85
7835.82
7835.76
7835.71
7835.65
7835.58
7835.5
7835.42
7835.33
7835.24
7835.16
7835.07
7834.97
7834.83
7835.89
7835.58
7835.55
7835.52
7835.48
7835.43
7835.37
7835.31
7835.24
7835.17
7835.1
7835.02
7834.95
7834.86
7834.78
7834.65
7835.58
7835.3
7835.27
7835.25
7835.21
7835.17
7835.11
7835.06
7835
7834.94
7834.87
7834.8
7834.74
7834.66
7834.58
7834.46
7835.3
7835.03
7835.01
7834.99
7834.95
7834.92
7834.87
7834.83
7834.77
7834.72
7834.66
7834.6
7834.54
7834.47
7834.39
7834.28
7835.04
7834.79
7834.77
7834.75
7834.72
7834.69
7834.65
7834.6
7834.56
7834.5
7834.45
7834.4
7834.34
7834.28
7834.21
7834.09
7834.79
7834.56
7834.54
7834.53
7834.5
7834.47
7834.43
7834.39
7834.35
7834.3
7834.26
7834.2
7834.15
7834.09
7834.03
7833.92
7834.57
7834.35
7834.33
7834.32
7834.29
7834.27
7834.23
7834.19
7834.15
7834.11
7834.07
7834.02
7833.97
7833.91
7833.85
7833.74
7834.35
7834.15
7834.14
7834.12
7834.1
7834.07
7834.04
7834.01
7833.97
7833.93
7833.88
7833.84
7833.79
7833.74
7833.67
7833.56
7834.16
7833.97
7833.95
7833.94
7833.92
7833.89
7833.86
7833.83
7833.79
7833.75
7833.71
7833.67
7833.62
7833.57
7833.5
7833.39
7833.97
7833.79
7833.78
7833.77
7833.74
7833.72
7833.69
7833.66
7833.63
7833.59
7833.55
7833.5
7833.46
7833.4
7833.34
7833.23
7833.8
7833.63
7833.62
7833.61
7833.59
7833.56
7833.53
7833.5
7833.47
7833.43
7833.39
7833.34
7833.3
7833.24
7833.17
7833.07
7833.63
7833.48
7833.47
7833.46
7833.44
7833.41
7833.39
7833.36
7833.32
7833.28
7833.24
7833.19
7833.15
7833.09
7833.02
7832.91
7833.49
7833.34
7833.33
7833.32
7833.3
7833.28
7833.25
7833.22
7833.18
7833.14
7833.1
7833.05
7833
7832.94
7832.87
7832.75
7833.35
7833.22
7833.21
7833.19
7833.17
7833.15
7833.12
7833.09
7833.06
7833.01
7832.97
7832.92
7832.87
7832.8
7832.73
7832.61
7833.22
7833.1
7833.09
7833.08
7833.06
7833.04
7833.01
7832.98
7832.94
7832.9
7832.85
7832.8
7832.74
7832.67
7832.59
7832.46
7833.1
7833
7832.99
7832.97
7832.95
7832.93
7832.9
7832.87
7832.83
7832.79
7832.74
7832.69
7832.63
7832.55
7832.46
7832.33
7833
7832.9
7832.89
7832.88
7832.86
7832.84
7832.81
7832.78
7832.74
7832.7
7832.65
7832.59
7832.52
7832.44
7832.34
7832.2
7832.91
7832.82
7832.81
7832.8
7832.78
7832.76
7832.73
7832.7
7832.66
7832.62
7832.56
7832.5
7832.43
7832.35
7832.24
7832.08
7832.82
7832.75
7832.74
7832.73
7832.71
7832.69
7832.66
7832.63
7832.59
7832.55
7832.5
7832.44
7832.36
7832.27
7832.15
7831.97
7832.75
7832.69
7832.68
7832.67
7832.65
7832.63
7832.61
7832.58
7832.54
7832.5
7832.45
7832.39
7832.31
7832.22
7832.09
7831.89
7832.69
7832.64
7832.63
7832.62
7832.6
7832.58
7832.56
7832.53
7832.5
7832.46
7832.41
7832.36
7832.29
7832.2
7832.06
7831.85
7832.64
7832.59
7832.58
7832.57
7832.56
7832.54
7832.52
7832.5
7832.47
7832.44
7832.4
7832.35
7832.3
7832.23
7832.13
7831.97
7832.59
7832.57
7832.56
7832.55
7832.54
7832.53
7832.51
7832.49
7832.46
7832.43
7832.4
7832.36
7832.31
7832.26
7832.2
7832.08
7832.57
7832.57
7832.56
7832.55
7832.54
7832.53
7832.51
7832.49
7832.46
7832.43
7832.4
7832.36
7832.31
7832.26
7832.2
7832.08
7832.57
)
;

boundaryField
{
    wireUpstream
    {
        type            calculated;
        value           nonuniform List<scalar> 
16
(
7832.54
7832.54
7832.53
7832.52
7832.51
7832.49
7832.47
7832.45
7832.42
7832.39
7832.36
7832.33
7832.29
7832.26
7832.24
7832.55
)
;
    }
    wireDownstream
    {
        type            calculated;
        value           nonuniform List<scalar> 
16
(
7858.64
7857.72
7856.42
7854.81
7852.76
7850.55
7847.97
7844.97
7841.5
7837.16
7832.35
7825.61
7817.99
7809.3
7803.73
7859.05
)
;
    }
    wireTopContact
    {
        type            calculated;
        value           nonuniform List<scalar> 
122
(
7803.23
7803.21
7803.21
7803.21
7803.21
7803.2
7803.19
7803.18
7803.16
7803.14
7803.12
7803.1
7803.07
7803.04
7803
7802.97
7802.93
7802.88
7802.84
7802.79
7802.73
7802.67
7802.6
7802.53
7802.46
7802.37
7802.28
7802.18
7802.07
7801.95
7801.83
7801.69
7801.56
7801.42
7801.28
7801.15
7801.03
7800.94
7800.9
7800.92
7801.04
7801.31
7801.78
7802.58
7804.28
7809.18
7814.92
7820.96
7827.21
7833.55
7840.11
7847.14
7854.82
7862.88
7870.97
7877.64
7882.69
7886.18
7888.13
7888.6
7887.71
7885.53
7882.24
7877.99
7873.03
7867.61
7862.05
7856.67
7851.86
7848.04
7845.51
7844.14
7843.22
7841.79
7840.61
7839.39
7838.68
7838.13
7837.76
7837.49
7837.29
7837.14
7837.02
7836.91
7836.8
7836.69
7836.58
7836.46
7836.32
7836.18
7836.03
7835.87
7835.71
7835.54
7835.36
7835.18
7835
7834.81
7834.63
7834.45
7834.26
7834.08
7833.9
7833.73
7833.55
7833.38
7833.22
7833.06
7832.9
7832.75
7832.6
7832.46
7832.32
7832.19
7832.08
7831.97
7831.89
7831.85
7831.95
7832.04
7832.04
7803.22
)
;
    }
    front
    {
        type            wedge;
    }
    back
    {
        type            wedge;
    }
}


// ************************************************************************* //
