/*--------------------------------*- C++ -*----------------------------------*\
| =========                 |                                                 |
| \\      /  F ield         | foam-extend: Open Source CFD                    |
|  \\    /   O peration     | Version:     4.1-20200408                       |
|   \\  /    A nd           | Web:         http://www.foam-extend.org         |
|    \\/     M anipulation  |                                                 |
\*---------------------------------------------------------------------------*/
FoamFile
{
    version     2.0;
    format      ascii;
    class       volScalarField;
    location    "0.0530000";
    object      sigmaY;
}
// * * * * * * * * * * * * * * * * * * * * * * * * * * * * * * * * * * * * * //

dimensions      [1 -1 -2 0 0 0 0];

internalField   nonuniform List<scalar> 
1952
(
1.27633e+09
1.27637e+09
1.27645e+09
1.27652e+09
1.27662e+09
1.27672e+09
1.27682e+09
1.27685e+09
1.2768e+09
1.27657e+09
1.27617e+09
1.27545e+09
1.27444e+09
1.27356e+09
1.2731e+09
1.27629e+09
1.27636e+09
1.2764e+09
1.27648e+09
1.27656e+09
1.27665e+09
1.27675e+09
1.27685e+09
1.27688e+09
1.27683e+09
1.2766e+09
1.2762e+09
1.27548e+09
1.27447e+09
1.27359e+09
1.27313e+09
1.27632e+09
1.27639e+09
1.27643e+09
1.27651e+09
1.27659e+09
1.27669e+09
1.27679e+09
1.27689e+09
1.27691e+09
1.27686e+09
1.27663e+09
1.27623e+09
1.27551e+09
1.2745e+09
1.27362e+09
1.27316e+09
1.27635e+09
1.27642e+09
1.27646e+09
1.27654e+09
1.27662e+09
1.27672e+09
1.27682e+09
1.27692e+09
1.27694e+09
1.27689e+09
1.27667e+09
1.27626e+09
1.27555e+09
1.27453e+09
1.27365e+09
1.27319e+09
1.27639e+09
1.27645e+09
1.27649e+09
1.27657e+09
1.27665e+09
1.27675e+09
1.27685e+09
1.27695e+09
1.27698e+09
1.27692e+09
1.2767e+09
1.27629e+09
1.27558e+09
1.27456e+09
1.27368e+09
1.27322e+09
1.27642e+09
1.27648e+09
1.27652e+09
1.2766e+09
1.27668e+09
1.27678e+09
1.27688e+09
1.27698e+09
1.27701e+09
1.27695e+09
1.27673e+09
1.27633e+09
1.27561e+09
1.27459e+09
1.27371e+09
1.27325e+09
1.27645e+09
1.27652e+09
1.27655e+09
1.27663e+09
1.27671e+09
1.27681e+09
1.27691e+09
1.27701e+09
1.27704e+09
1.27699e+09
1.27676e+09
1.27636e+09
1.27564e+09
1.27462e+09
1.27374e+09
1.27328e+09
1.27648e+09
1.27655e+09
1.27659e+09
1.27666e+09
1.27674e+09
1.27684e+09
1.27694e+09
1.27704e+09
1.27707e+09
1.27702e+09
1.27679e+09
1.27639e+09
1.27567e+09
1.27465e+09
1.27377e+09
1.27331e+09
1.27651e+09
1.27658e+09
1.27662e+09
1.2767e+09
1.27677e+09
1.27687e+09
1.27698e+09
1.27708e+09
1.2771e+09
1.27705e+09
1.27683e+09
1.27642e+09
1.2757e+09
1.27468e+09
1.2738e+09
1.27334e+09
1.27654e+09
1.27661e+09
1.27665e+09
1.27673e+09
1.2768e+09
1.27691e+09
1.27701e+09
1.27711e+09
1.27714e+09
1.27708e+09
1.27686e+09
1.27645e+09
1.27573e+09
1.27472e+09
1.27384e+09
1.27338e+09
1.27657e+09
1.27664e+09
1.27668e+09
1.27676e+09
1.27684e+09
1.27694e+09
1.27704e+09
1.27714e+09
1.27717e+09
1.27711e+09
1.27689e+09
1.27649e+09
1.27576e+09
1.27475e+09
1.27387e+09
1.27341e+09
1.2766e+09
1.27667e+09
1.27671e+09
1.27679e+09
1.27687e+09
1.27697e+09
1.27707e+09
1.27717e+09
1.2772e+09
1.27714e+09
1.27692e+09
1.27652e+09
1.27579e+09
1.27478e+09
1.2739e+09
1.27344e+09
1.27663e+09
1.2767e+09
1.27674e+09
1.27682e+09
1.2769e+09
1.277e+09
1.2771e+09
1.2772e+09
1.27723e+09
1.27718e+09
1.27695e+09
1.27655e+09
1.27582e+09
1.27481e+09
1.27393e+09
1.27347e+09
1.27666e+09
1.27673e+09
1.27677e+09
1.27685e+09
1.27693e+09
1.27703e+09
1.27713e+09
1.27723e+09
1.27726e+09
1.27721e+09
1.27699e+09
1.27658e+09
1.27586e+09
1.27484e+09
1.27396e+09
1.2735e+09
1.2767e+09
1.27676e+09
1.2768e+09
1.27688e+09
1.27696e+09
1.27706e+09
1.27717e+09
1.27727e+09
1.27729e+09
1.27724e+09
1.27702e+09
1.27661e+09
1.27589e+09
1.27487e+09
1.27399e+09
1.27353e+09
1.27673e+09
1.27679e+09
1.27683e+09
1.27691e+09
1.27699e+09
1.27709e+09
1.2772e+09
1.2773e+09
1.27733e+09
1.27727e+09
1.27705e+09
1.27664e+09
1.27592e+09
1.2749e+09
1.27402e+09
1.27356e+09
1.27676e+09
1.27683e+09
1.27686e+09
1.27694e+09
1.27702e+09
1.27713e+09
1.27723e+09
1.27733e+09
1.27736e+09
1.2773e+09
1.27708e+09
1.27668e+09
1.27595e+09
1.27493e+09
1.27405e+09
1.27359e+09
1.27679e+09
1.27686e+09
1.2769e+09
1.27697e+09
1.27705e+09
1.27716e+09
1.27726e+09
1.27736e+09
1.27739e+09
1.27733e+09
1.27711e+09
1.27671e+09
1.27598e+09
1.27496e+09
1.27408e+09
1.27362e+09
1.27682e+09
1.27689e+09
1.27693e+09
1.277e+09
1.27708e+09
1.27719e+09
1.27729e+09
1.27739e+09
1.27742e+09
1.27736e+09
1.27714e+09
1.27674e+09
1.27601e+09
1.27499e+09
1.27411e+09
1.27365e+09
1.27685e+09
1.27692e+09
1.27696e+09
1.27704e+09
1.27711e+09
1.27722e+09
1.27732e+09
1.27742e+09
1.27745e+09
1.27739e+09
1.27718e+09
1.27677e+09
1.27604e+09
1.27502e+09
1.27415e+09
1.27369e+09
1.27688e+09
1.27695e+09
1.27699e+09
1.27707e+09
1.27714e+09
1.27725e+09
1.27736e+09
1.27746e+09
1.27748e+09
1.27743e+09
1.27721e+09
1.2768e+09
1.27607e+09
1.27506e+09
1.27418e+09
1.27372e+09
1.27691e+09
1.27698e+09
1.27702e+09
1.2771e+09
1.27718e+09
1.27728e+09
1.27739e+09
1.27749e+09
1.27751e+09
1.27746e+09
1.27724e+09
1.27683e+09
1.2761e+09
1.27509e+09
1.27421e+09
1.27375e+09
1.27694e+09
1.27701e+09
1.27705e+09
1.27713e+09
1.27721e+09
1.27731e+09
1.27742e+09
1.27752e+09
1.27755e+09
1.27749e+09
1.27727e+09
1.27687e+09
1.27613e+09
1.27512e+09
1.27424e+09
1.27378e+09
1.27697e+09
1.27704e+09
1.27708e+09
1.27716e+09
1.27724e+09
1.27734e+09
1.27745e+09
1.27755e+09
1.27758e+09
1.27752e+09
1.2773e+09
1.2769e+09
1.27617e+09
1.27515e+09
1.27427e+09
1.27381e+09
1.277e+09
1.27707e+09
1.27711e+09
1.27719e+09
1.27727e+09
1.27738e+09
1.27748e+09
1.27758e+09
1.27761e+09
1.27755e+09
1.27734e+09
1.27693e+09
1.2762e+09
1.27518e+09
1.2743e+09
1.27384e+09
1.27703e+09
1.2771e+09
1.27714e+09
1.27722e+09
1.2773e+09
1.27741e+09
1.27751e+09
1.27761e+09
1.27764e+09
1.27758e+09
1.27737e+09
1.27696e+09
1.27623e+09
1.27521e+09
1.27433e+09
1.27387e+09
1.27707e+09
1.27713e+09
1.27717e+09
1.27725e+09
1.27733e+09
1.27744e+09
1.27754e+09
1.27765e+09
1.27767e+09
1.27761e+09
1.2774e+09
1.27699e+09
1.27626e+09
1.27524e+09
1.27436e+09
1.2739e+09
1.2771e+09
1.27717e+09
1.2772e+09
1.27728e+09
1.27736e+09
1.27747e+09
1.27758e+09
1.27768e+09
1.2777e+09
1.27765e+09
1.27743e+09
1.27702e+09
1.27629e+09
1.27527e+09
1.27439e+09
1.27393e+09
1.27713e+09
1.2772e+09
1.27724e+09
1.27731e+09
1.27739e+09
1.2775e+09
1.27761e+09
1.27771e+09
1.27774e+09
1.27768e+09
1.27746e+09
1.27705e+09
1.27632e+09
1.2753e+09
1.27442e+09
1.27396e+09
1.27716e+09
1.27723e+09
1.27727e+09
1.27735e+09
1.27742e+09
1.27753e+09
1.27764e+09
1.27774e+09
1.27777e+09
1.27771e+09
1.27749e+09
1.27709e+09
1.27635e+09
1.27533e+09
1.27446e+09
1.27399e+09
1.27719e+09
1.27726e+09
1.2773e+09
1.27738e+09
1.27745e+09
1.27756e+09
1.27767e+09
1.27777e+09
1.2778e+09
1.27774e+09
1.27753e+09
1.27712e+09
1.27638e+09
1.27536e+09
1.27449e+09
1.27402e+09
1.27722e+09
1.27729e+09
1.27733e+09
1.27741e+09
1.27748e+09
1.27759e+09
1.2777e+09
1.2778e+09
1.27783e+09
1.27777e+09
1.27756e+09
1.27715e+09
1.27641e+09
1.27539e+09
1.27452e+09
1.27406e+09
1.27725e+09
1.27732e+09
1.27736e+09
1.27744e+09
1.27751e+09
1.27763e+09
1.27773e+09
1.27783e+09
1.27786e+09
1.2778e+09
1.27759e+09
1.27718e+09
1.27644e+09
1.27542e+09
1.27455e+09
1.27409e+09
1.27728e+09
1.27735e+09
1.27739e+09
1.27747e+09
1.27755e+09
1.27766e+09
1.27776e+09
1.27787e+09
1.27789e+09
1.27784e+09
1.27762e+09
1.27721e+09
1.27647e+09
1.27545e+09
1.27458e+09
1.27412e+09
1.27731e+09
1.27738e+09
1.27742e+09
1.2775e+09
1.27758e+09
1.27769e+09
1.2778e+09
1.2779e+09
1.27792e+09
1.27787e+09
1.27765e+09
1.27724e+09
1.2765e+09
1.27548e+09
1.27461e+09
1.27415e+09
1.27734e+09
1.27741e+09
1.27745e+09
1.27753e+09
1.27761e+09
1.27772e+09
1.27783e+09
1.27793e+09
1.27795e+09
1.2779e+09
1.27769e+09
1.27728e+09
1.27653e+09
1.27552e+09
1.27464e+09
1.27418e+09
1.27737e+09
1.27744e+09
1.27748e+09
1.27756e+09
1.27764e+09
1.27775e+09
1.27786e+09
1.27796e+09
1.27799e+09
1.27793e+09
1.27772e+09
1.27731e+09
1.27656e+09
1.27555e+09
1.27467e+09
1.27421e+09
1.2774e+09
1.27747e+09
1.27751e+09
1.27759e+09
1.27767e+09
1.27778e+09
1.27789e+09
1.27799e+09
1.27802e+09
1.27796e+09
1.27775e+09
1.27734e+09
1.2766e+09
1.27558e+09
1.2747e+09
1.27424e+09
1.27744e+09
1.2775e+09
1.27754e+09
1.27762e+09
1.2777e+09
1.27781e+09
1.27792e+09
1.27802e+09
1.27805e+09
1.278e+09
1.27778e+09
1.27737e+09
1.27663e+09
1.27561e+09
1.27473e+09
1.27427e+09
1.27747e+09
1.27754e+09
1.27758e+09
1.27765e+09
1.27773e+09
1.27785e+09
1.27795e+09
1.27806e+09
1.27808e+09
1.27803e+09
1.27781e+09
1.2774e+09
1.27666e+09
1.27564e+09
1.27476e+09
1.2743e+09
1.2775e+09
1.27757e+09
1.27761e+09
1.27769e+09
1.27776e+09
1.27788e+09
1.27799e+09
1.27809e+09
1.27811e+09
1.27806e+09
1.27785e+09
1.27743e+09
1.27669e+09
1.27567e+09
1.2748e+09
1.27433e+09
1.27753e+09
1.2776e+09
1.27764e+09
1.27772e+09
1.27779e+09
1.27791e+09
1.27802e+09
1.27812e+09
1.27814e+09
1.27809e+09
1.27788e+09
1.27747e+09
1.27672e+09
1.2757e+09
1.27483e+09
1.27436e+09
1.27756e+09
1.27763e+09
1.27767e+09
1.27775e+09
1.27782e+09
1.27794e+09
1.27805e+09
1.27815e+09
1.27817e+09
1.27812e+09
1.27791e+09
1.2775e+09
1.27675e+09
1.27573e+09
1.27486e+09
1.2744e+09
1.27759e+09
1.27766e+09
1.2777e+09
1.27778e+09
1.27786e+09
1.27797e+09
1.27808e+09
1.27818e+09
1.27821e+09
1.27816e+09
1.27794e+09
1.27753e+09
1.27678e+09
1.27576e+09
1.27489e+09
1.27443e+09
1.27762e+09
1.27769e+09
1.27773e+09
1.27781e+09
1.27789e+09
1.278e+09
1.27811e+09
1.27821e+09
1.27824e+09
1.27819e+09
1.27797e+09
1.27756e+09
1.27681e+09
1.27579e+09
1.27492e+09
1.27446e+09
1.27765e+09
1.27772e+09
1.27776e+09
1.27784e+09
1.27792e+09
1.27803e+09
1.27814e+09
1.27824e+09
1.27827e+09
1.27822e+09
1.27801e+09
1.27759e+09
1.27684e+09
1.27582e+09
1.27495e+09
1.27449e+09
1.27768e+09
1.27775e+09
1.27779e+09
1.27787e+09
1.27795e+09
1.27807e+09
1.27817e+09
1.27828e+09
1.2783e+09
1.27825e+09
1.27804e+09
1.27762e+09
1.27687e+09
1.27585e+09
1.27498e+09
1.27452e+09
1.27771e+09
1.27778e+09
1.27782e+09
1.2779e+09
1.27798e+09
1.2781e+09
1.27821e+09
1.27831e+09
1.27833e+09
1.27828e+09
1.27807e+09
1.27766e+09
1.2769e+09
1.27588e+09
1.27501e+09
1.27455e+09
1.27775e+09
1.27781e+09
1.27785e+09
1.27793e+09
1.27801e+09
1.27813e+09
1.27824e+09
1.27834e+09
1.27836e+09
1.27832e+09
1.2781e+09
1.27769e+09
1.27694e+09
1.27591e+09
1.27504e+09
1.27458e+09
1.27778e+09
1.27785e+09
1.27788e+09
1.27796e+09
1.27804e+09
1.27816e+09
1.27827e+09
1.27837e+09
1.27839e+09
1.27835e+09
1.27813e+09
1.27772e+09
1.27697e+09
1.27595e+09
1.27507e+09
1.27459e+09
1.27781e+09
1.27788e+09
1.27792e+09
1.278e+09
1.27807e+09
1.27819e+09
1.2783e+09
1.2784e+09
1.27842e+09
1.27838e+09
1.27816e+09
1.27775e+09
1.277e+09
1.27598e+09
1.27511e+09
1.27454e+09
1.27784e+09
1.27791e+09
1.27795e+09
1.27803e+09
1.2781e+09
1.27822e+09
1.27833e+09
1.27843e+09
1.27846e+09
1.27841e+09
1.2782e+09
1.27778e+09
1.27703e+09
1.27601e+09
1.27512e+09
1.27437e+09
1.27787e+09
1.27794e+09
1.27798e+09
1.27806e+09
1.27813e+09
1.27825e+09
1.27836e+09
1.27846e+09
1.27849e+09
1.27844e+09
1.27823e+09
1.27781e+09
1.27706e+09
1.27604e+09
1.27501e+09
1.274e+09
1.2779e+09
1.27797e+09
1.27801e+09
1.27809e+09
1.27817e+09
1.27828e+09
1.27839e+09
1.2785e+09
1.27852e+09
1.27847e+09
1.27826e+09
1.27784e+09
1.27709e+09
1.276e+09
1.27471e+09
1.27341e+09
1.27793e+09
1.278e+09
1.27804e+09
1.27812e+09
1.2782e+09
1.27831e+09
1.27842e+09
1.27853e+09
1.27855e+09
1.27848e+09
1.2782e+09
1.2777e+09
1.27685e+09
1.27565e+09
1.27416e+09
1.27262e+09
1.27796e+09
1.27803e+09
1.27807e+09
1.27815e+09
1.27822e+09
1.2783e+09
1.27835e+09
1.27838e+09
1.27832e+09
1.27816e+09
1.27777e+09
1.27717e+09
1.2762e+09
1.27492e+09
1.27332e+09
1.27168e+09
1.27799e+09
1.27794e+09
1.27795e+09
1.27798e+09
1.27799e+09
1.27799e+09
1.27795e+09
1.27787e+09
1.2777e+09
1.27742e+09
1.27694e+09
1.27623e+09
1.27519e+09
1.27386e+09
1.27224e+09
1.27059e+09
1.27791e+09
1.27752e+09
1.27749e+09
1.27745e+09
1.27738e+09
1.27729e+09
1.27715e+09
1.27696e+09
1.27668e+09
1.2763e+09
1.27574e+09
1.27496e+09
1.27388e+09
1.27255e+09
1.27097e+09
1.26941e+09
1.27751e+09
1.27664e+09
1.27657e+09
1.27647e+09
1.27633e+09
1.27615e+09
1.27593e+09
1.27566e+09
1.2753e+09
1.27485e+09
1.27423e+09
1.27342e+09
1.27235e+09
1.27105e+09
1.26959e+09
1.26817e+09
1.27665e+09
1.27524e+09
1.27514e+09
1.275e+09
1.27482e+09
1.27459e+09
1.27432e+09
1.274e+09
1.2736e+09
1.27311e+09
1.27248e+09
1.27168e+09
1.27065e+09
1.26943e+09
1.26812e+09
1.2669e+09
1.27526e+09
1.27332e+09
1.27321e+09
1.27307e+09
1.27288e+09
1.27265e+09
1.27237e+09
1.27204e+09
1.27164e+09
1.27116e+09
1.27055e+09
1.26978e+09
1.26883e+09
1.26772e+09
1.26659e+09
1.26559e+09
1.27335e+09
1.27097e+09
1.27088e+09
1.27076e+09
1.2706e+09
1.27039e+09
1.27014e+09
1.26984e+09
1.26948e+09
1.26904e+09
1.26849e+09
1.26778e+09
1.26693e+09
1.26595e+09
1.26502e+09
1.26426e+09
1.27099e+09
1.26834e+09
1.26829e+09
1.2682e+09
1.26808e+09
1.26792e+09
1.26773e+09
1.26749e+09
1.26718e+09
1.2668e+09
1.26632e+09
1.2657e+09
1.26498e+09
1.26414e+09
1.26343e+09
1.26292e+09
1.26836e+09
1.26561e+09
1.26558e+09
1.26553e+09
1.26546e+09
1.26535e+09
1.26522e+09
1.26504e+09
1.26481e+09
1.2645e+09
1.26411e+09
1.26359e+09
1.26299e+09
1.26232e+09
1.26183e+09
1.26158e+09
1.26561e+09
1.26293e+09
1.26292e+09
1.26289e+09
1.26285e+09
1.26279e+09
1.26271e+09
1.26259e+09
1.26242e+09
1.26219e+09
1.26188e+09
1.26147e+09
1.26101e+09
1.2605e+09
1.26025e+09
1.26026e+09
1.26293e+09
1.26044e+09
1.26042e+09
1.26041e+09
1.26038e+09
1.26034e+09
1.26028e+09
1.2602e+09
1.26008e+09
1.25992e+09
1.25969e+09
1.25937e+09
1.25905e+09
1.25872e+09
1.2587e+09
1.25897e+09
1.26043e+09
1.2582e+09
1.25818e+09
1.25816e+09
1.25812e+09
1.25808e+09
1.25803e+09
1.25796e+09
1.25787e+09
1.25774e+09
1.25757e+09
1.25735e+09
1.25715e+09
1.25701e+09
1.25721e+09
1.25773e+09
1.2582e+09
1.25626e+09
1.25623e+09
1.25619e+09
1.25614e+09
1.25607e+09
1.25599e+09
1.25592e+09
1.25582e+09
1.25572e+09
1.25559e+09
1.25545e+09
1.25536e+09
1.25539e+09
1.25581e+09
1.25655e+09
1.25627e+09
1.25461e+09
1.25457e+09
1.25451e+09
1.25444e+09
1.25434e+09
1.25424e+09
1.25413e+09
1.25401e+09
1.2539e+09
1.25378e+09
1.2537e+09
1.25371e+09
1.2539e+09
1.25449e+09
1.25541e+09
1.25461e+09
1.2532e+09
1.25316e+09
1.2531e+09
1.25302e+09
1.2529e+09
1.25277e+09
1.25263e+09
1.25248e+09
1.25234e+09
1.25221e+09
1.25216e+09
1.25223e+09
1.25255e+09
1.25327e+09
1.25429e+09
1.25321e+09
1.25202e+09
1.25198e+09
1.25192e+09
1.25183e+09
1.25172e+09
1.25157e+09
1.25142e+09
1.25124e+09
1.25108e+09
1.25094e+09
1.25089e+09
1.251e+09
1.25138e+09
1.25213e+09
1.25318e+09
1.25203e+09
1.25101e+09
1.25096e+09
1.25089e+09
1.2508e+09
1.25071e+09
1.25059e+09
1.25047e+09
1.25033e+09
1.2502e+09
1.25008e+09
1.25007e+09
1.25017e+09
1.25047e+09
1.25111e+09
1.25209e+09
1.25102e+09
1.2502e+09
1.25016e+09
1.2501e+09
1.25002e+09
1.25e+09
1.25e+09
1.25e+09
1.25e+09
1.25e+09
1.25e+09
1.25e+09
1.25e+09
1.25e+09
1.25035e+09
1.25111e+09
1.25022e+09
1.25e+09
1.25e+09
1.25e+09
1.25e+09
1.25e+09
1.25e+09
1.25e+09
1.25e+09
1.25e+09
1.25e+09
1.25e+09
1.25e+09
1.25e+09
1.25e+09
1.25039e+09
1.25e+09
1.25e+09
1.25e+09
1.25e+09
1.25e+09
1.25e+09
1.25e+09
1.25e+09
1.25e+09
1.25e+09
1.25e+09
1.25e+09
1.25e+09
1.25e+09
1.25e+09
1.25e+09
1.25e+09
1.25e+09
1.25e+09
1.25e+09
1.25e+09
1.25e+09
1.25e+09
1.25e+09
1.25e+09
1.25e+09
1.25e+09
1.25e+09
1.25e+09
1.25e+09
1.25e+09
1.25e+09
1.25e+09
1.25e+09
1.25e+09
1.25e+09
1.25e+09
1.25e+09
1.25e+09
1.25e+09
1.25e+09
1.25e+09
1.25e+09
1.25e+09
1.25e+09
1.25e+09
1.25e+09
1.25e+09
1.25e+09
1.25e+09
1.25e+09
1.25e+09
1.25e+09
1.25e+09
1.25e+09
1.25e+09
1.25e+09
1.25e+09
1.25e+09
1.25e+09
1.25e+09
1.25e+09
1.25e+09
1.25e+09
1.25e+09
1.25e+09
1.25e+09
1.25e+09
1.25e+09
1.25e+09
1.25e+09
1.25e+09
1.25e+09
1.25e+09
1.25e+09
1.25e+09
1.25e+09
1.25e+09
1.25e+09
1.25e+09
1.25e+09
1.25e+09
1.25e+09
1.25e+09
1.25e+09
1.25e+09
1.25e+09
1.25e+09
1.25e+09
1.25e+09
1.25e+09
1.25e+09
1.25e+09
1.25e+09
1.25e+09
1.25e+09
1.25e+09
1.25e+09
1.25e+09
1.25e+09
1.25e+09
1.25e+09
1.25e+09
1.25e+09
1.25e+09
1.25e+09
1.25e+09
1.25e+09
1.25e+09
1.25e+09
1.25e+09
1.25e+09
1.25e+09
1.25e+09
1.25e+09
1.25e+09
1.25e+09
1.25e+09
1.25e+09
1.25e+09
1.25e+09
1.25e+09
1.25e+09
1.25e+09
1.25e+09
1.25e+09
1.25e+09
1.25e+09
1.25e+09
1.25e+09
1.25e+09
1.25e+09
1.25e+09
1.25e+09
1.25e+09
1.25e+09
1.25e+09
1.25e+09
1.25e+09
1.25e+09
1.25e+09
1.25e+09
1.25e+09
1.25e+09
1.25e+09
1.25e+09
1.25e+09
1.25e+09
1.25e+09
1.25e+09
1.25e+09
1.25e+09
1.25e+09
1.25e+09
1.25e+09
1.25e+09
1.25e+09
1.25e+09
1.25e+09
1.25e+09
1.25e+09
1.25e+09
1.25e+09
1.25e+09
1.25e+09
1.25e+09
1.25e+09
1.25e+09
1.25e+09
1.25e+09
1.25e+09
1.25e+09
1.25e+09
1.25e+09
1.25e+09
1.25e+09
1.25e+09
1.25e+09
1.25e+09
1.25e+09
1.25e+09
1.25e+09
1.25e+09
1.25e+09
1.25e+09
1.25e+09
1.25e+09
1.25e+09
1.25e+09
1.25e+09
1.25e+09
1.25e+09
1.25e+09
1.25e+09
1.25e+09
1.25e+09
1.25e+09
1.25e+09
1.25e+09
1.25e+09
1.25e+09
1.25e+09
1.25e+09
1.25e+09
1.25e+09
1.25e+09
1.25e+09
1.25e+09
1.25e+09
1.25e+09
1.25e+09
1.25e+09
1.25e+09
1.25e+09
1.25e+09
1.25e+09
1.25e+09
1.25e+09
1.25e+09
1.25e+09
1.25e+09
1.25e+09
1.25e+09
1.25e+09
1.25e+09
1.25e+09
1.25e+09
1.25e+09
1.25e+09
1.25e+09
1.25e+09
1.25e+09
1.25e+09
1.25e+09
1.25e+09
1.25e+09
1.25e+09
1.25e+09
1.25e+09
1.25e+09
1.25e+09
1.25e+09
1.25e+09
1.25e+09
1.25e+09
1.25e+09
1.25e+09
1.25e+09
1.25e+09
1.25e+09
1.25e+09
1.25e+09
1.25e+09
1.25e+09
1.25e+09
1.25e+09
1.25e+09
1.25e+09
1.25e+09
1.25e+09
1.25e+09
1.25e+09
1.25e+09
1.25e+09
1.25e+09
1.25e+09
1.25e+09
1.25e+09
1.25e+09
1.25e+09
1.25e+09
1.25e+09
1.25e+09
1.25e+09
1.25e+09
1.25e+09
1.25e+09
1.25e+09
1.25e+09
1.25e+09
1.25e+09
1.25e+09
1.25e+09
1.25e+09
1.25e+09
1.25e+09
1.25e+09
1.25e+09
1.25e+09
1.25e+09
1.25e+09
1.25e+09
1.25e+09
1.25e+09
1.25e+09
1.25e+09
1.25e+09
1.25e+09
1.25e+09
1.25e+09
1.25e+09
1.25e+09
1.25e+09
1.25e+09
1.25e+09
1.25e+09
1.25e+09
1.25e+09
1.25e+09
1.25e+09
1.25e+09
1.25e+09
1.25e+09
1.25e+09
1.25e+09
1.25e+09
1.25e+09
1.25e+09
1.25e+09
1.25e+09
1.25e+09
1.25e+09
1.25e+09
1.25e+09
1.25e+09
1.25e+09
1.25e+09
1.25e+09
1.25e+09
1.25e+09
1.25e+09
1.25e+09
1.25e+09
1.25e+09
1.25e+09
1.25e+09
1.25e+09
1.25e+09
1.25e+09
1.25e+09
1.25e+09
1.25e+09
1.25e+09
1.25e+09
1.25e+09
1.25e+09
1.25e+09
1.25e+09
1.25e+09
1.25e+09
1.25e+09
1.25e+09
1.25e+09
1.25e+09
1.25e+09
1.25e+09
1.25e+09
1.25e+09
1.25e+09
1.25e+09
1.25e+09
1.25e+09
1.25e+09
1.25e+09
1.25e+09
1.25e+09
1.25e+09
1.25e+09
1.25e+09
1.25e+09
1.25e+09
1.25e+09
1.25e+09
1.25e+09
1.25e+09
1.25e+09
1.25e+09
1.25e+09
1.25e+09
1.25e+09
1.25e+09
1.25e+09
1.25e+09
1.25e+09
1.25e+09
1.25e+09
1.25e+09
1.25e+09
1.25e+09
1.25e+09
1.25e+09
1.25e+09
1.25e+09
1.25e+09
1.25e+09
1.25e+09
1.25e+09
1.25e+09
1.25e+09
1.25e+09
1.25e+09
1.25e+09
1.25e+09
1.25e+09
1.25e+09
1.25e+09
1.25e+09
1.25e+09
1.25e+09
1.25e+09
1.25e+09
1.25e+09
1.25e+09
1.25e+09
1.25e+09
1.25e+09
1.25e+09
1.25e+09
1.25e+09
1.25e+09
1.25e+09
1.25e+09
1.25e+09
1.25e+09
1.25e+09
1.25e+09
1.25e+09
1.25e+09
1.25e+09
1.25e+09
1.25e+09
1.25e+09
1.25e+09
1.25e+09
1.25e+09
1.25e+09
1.25e+09
1.25e+09
1.25e+09
1.25e+09
1.25e+09
1.25e+09
1.25e+09
1.25e+09
1.25e+09
1.25e+09
1.25e+09
1.25e+09
1.25e+09
1.25e+09
1.25e+09
1.25e+09
1.25e+09
1.25e+09
1.25e+09
1.25e+09
1.25e+09
1.25e+09
1.25e+09
1.25e+09
1.25e+09
1.25e+09
1.25e+09
1.25e+09
1.25e+09
1.25e+09
1.25e+09
1.25e+09
1.25e+09
1.25e+09
1.25e+09
1.25e+09
1.25e+09
1.25e+09
1.25e+09
1.25e+09
1.25e+09
1.25e+09
1.25e+09
1.25e+09
1.25e+09
1.25e+09
1.25e+09
1.25e+09
1.25e+09
1.25e+09
1.25e+09
1.25e+09
1.25e+09
1.25e+09
1.25e+09
1.25e+09
1.25e+09
1.25e+09
1.25e+09
1.25e+09
1.25e+09
1.25e+09
1.25e+09
1.25e+09
1.25e+09
1.25e+09
1.25e+09
1.25e+09
1.25e+09
1.25e+09
1.25e+09
1.25e+09
1.25e+09
1.25e+09
1.25e+09
1.25e+09
1.25e+09
1.25e+09
1.25e+09
1.25e+09
1.25e+09
1.25e+09
1.25e+09
1.25e+09
1.25e+09
1.25e+09
1.25e+09
1.25e+09
1.25e+09
1.25e+09
1.25e+09
1.25e+09
1.25e+09
1.25e+09
1.25e+09
1.25e+09
1.25e+09
1.25e+09
1.25e+09
1.25e+09
1.25e+09
1.25e+09
1.25e+09
1.25e+09
1.25e+09
1.25e+09
1.25e+09
1.25e+09
1.25e+09
1.25e+09
1.25e+09
1.25e+09
1.25e+09
1.25e+09
1.25e+09
1.25e+09
1.25e+09
1.25e+09
1.25e+09
1.25e+09
1.25e+09
1.25e+09
1.25e+09
1.25e+09
1.25e+09
1.25e+09
1.25e+09
1.25e+09
1.25e+09
1.25e+09
1.25e+09
1.25e+09
1.25e+09
1.25e+09
1.25e+09
1.25e+09
1.25e+09
1.25e+09
1.25e+09
1.25e+09
1.25e+09
1.25e+09
1.25e+09
1.25e+09
1.25e+09
1.25e+09
1.25e+09
1.25e+09
1.25e+09
1.25e+09
1.25e+09
1.25e+09
1.25e+09
1.25e+09
1.25e+09
1.25e+09
1.25e+09
1.25e+09
1.25e+09
1.25e+09
1.25e+09
1.25e+09
1.25e+09
1.25e+09
1.25e+09
1.25e+09
1.25e+09
1.25e+09
1.25e+09
1.25e+09
1.25e+09
1.25e+09
1.25e+09
1.25e+09
1.25e+09
1.25e+09
1.25e+09
1.25e+09
1.25e+09
1.25e+09
1.25e+09
1.25e+09
1.25e+09
1.25e+09
1.25e+09
1.25e+09
1.25e+09
1.25e+09
1.25e+09
1.25e+09
1.25e+09
1.25e+09
1.25e+09
1.25e+09
1.25e+09
1.25e+09
1.25e+09
1.25e+09
1.25e+09
1.25e+09
1.25e+09
1.25e+09
1.25e+09
1.25e+09
1.25e+09
1.25e+09
1.25e+09
1.25e+09
1.25e+09
1.25e+09
1.25e+09
1.25e+09
1.25e+09
1.25e+09
1.25e+09
1.25e+09
1.25e+09
1.25e+09
1.25e+09
1.25e+09
1.25e+09
1.25e+09
1.25e+09
1.25e+09
1.25e+09
1.25e+09
1.25e+09
1.25e+09
1.25e+09
1.25e+09
1.25e+09
1.25e+09
1.25e+09
1.25e+09
1.25e+09
1.25e+09
1.25e+09
1.25e+09
1.25e+09
1.25e+09
1.25e+09
1.25e+09
1.25e+09
1.25e+09
1.25e+09
1.25e+09
1.25e+09
1.25e+09
1.25e+09
1.25e+09
1.25e+09
1.25e+09
1.25e+09
1.25e+09
1.25e+09
1.25e+09
1.25e+09
1.25e+09
1.25e+09
1.25e+09
1.25e+09
1.25e+09
1.25e+09
1.25e+09
1.25e+09
1.25e+09
1.25e+09
1.25e+09
1.25e+09
1.25e+09
1.25e+09
1.25e+09
1.25e+09
1.25e+09
1.25e+09
1.25e+09
1.25e+09
1.25e+09
1.25e+09
1.25e+09
1.25e+09
1.25e+09
1.25e+09
1.25e+09
1.25e+09
1.25e+09
1.25e+09
1.25e+09
1.25e+09
1.25e+09
1.25e+09
1.25e+09
1.25e+09
1.25e+09
1.25e+09
1.25e+09
1.25e+09
1.25e+09
1.25e+09
1.25e+09
1.25e+09
1.25e+09
1.25e+09
1.25e+09
1.25e+09
1.25e+09
1.25e+09
1.25e+09
1.25e+09
1.25e+09
1.25e+09
1.25e+09
1.25e+09
1.25e+09
1.25e+09
1.25e+09
1.25e+09
1.25e+09
1.25e+09
1.25e+09
1.25e+09
1.25e+09
1.25e+09
1.25e+09
1.25e+09
1.25e+09
1.25e+09
1.25e+09
1.25e+09
1.25e+09
1.25e+09
1.25e+09
1.25e+09
)
;

boundaryField
{
    wireUpstream
    {
        type            calculated;
        value           uniform 1.25e+09;
    }
    wireDownstream
    {
        type            calculated;
        value           nonuniform List<scalar> 
16
(
1.27633e+09
1.27637e+09
1.27645e+09
1.27652e+09
1.27662e+09
1.27672e+09
1.27682e+09
1.27685e+09
1.2768e+09
1.27657e+09
1.27617e+09
1.27545e+09
1.27444e+09
1.27356e+09
1.2731e+09
1.27629e+09
)
;
    }
    wireTopContact
    {
        type            calculated;
        value           nonuniform List<scalar> 
122
(
1.27304e+09
1.27307e+09
1.2731e+09
1.27313e+09
1.27316e+09
1.27319e+09
1.27322e+09
1.27325e+09
1.27329e+09
1.27332e+09
1.27335e+09
1.27338e+09
1.27341e+09
1.27344e+09
1.27347e+09
1.2735e+09
1.27353e+09
1.27356e+09
1.2736e+09
1.27363e+09
1.27366e+09
1.27369e+09
1.27372e+09
1.27375e+09
1.27378e+09
1.27381e+09
1.27384e+09
1.27387e+09
1.2739e+09
1.27393e+09
1.27396e+09
1.274e+09
1.27403e+09
1.27406e+09
1.27409e+09
1.27412e+09
1.27415e+09
1.27418e+09
1.27421e+09
1.27424e+09
1.27427e+09
1.2743e+09
1.27433e+09
1.27437e+09
1.2744e+09
1.27443e+09
1.27446e+09
1.27449e+09
1.2745e+09
1.27445e+09
1.27427e+09
1.2739e+09
1.2733e+09
1.27251e+09
1.27158e+09
1.2705e+09
1.26933e+09
1.2681e+09
1.26682e+09
1.26552e+09
1.26418e+09
1.26284e+09
1.2615e+09
1.26019e+09
1.25891e+09
1.25768e+09
1.2565e+09
1.25538e+09
1.25428e+09
1.25319e+09
1.2521e+09
1.25113e+09
1.25039e+09
1.25e+09
1.25e+09
1.25e+09
1.25e+09
1.25e+09
1.25e+09
1.25e+09
1.25e+09
1.25e+09
1.25e+09
1.25e+09
1.25e+09
1.25e+09
1.25e+09
1.25e+09
1.25e+09
1.25e+09
1.25e+09
1.25e+09
1.25e+09
1.25e+09
1.25e+09
1.25e+09
1.25e+09
1.25e+09
1.25e+09
1.25e+09
1.25e+09
1.25e+09
1.25e+09
1.25e+09
1.25e+09
1.25e+09
1.25e+09
1.25e+09
1.25e+09
1.25e+09
1.25e+09
1.25e+09
1.25e+09
1.25e+09
1.25e+09
1.25e+09
1.25e+09
1.25e+09
1.25e+09
1.25e+09
1.25e+09
1.27301e+09
)
;
    }
    front
    {
        type            wedge;
    }
    back
    {
        type            wedge;
    }
}


// ************************************************************************* //
