/*--------------------------------*- C++ -*----------------------------------*\
| =========                 |                                                 |
| \\      /  F ield         | foam-extend: Open Source CFD                    |
|  \\    /   O peration     | Version:     4.1-20200408                       |
|   \\  /    A nd           | Web:         http://www.foam-extend.org         |
|    \\/     M anipulation  |                                                 |
\*---------------------------------------------------------------------------*/
FoamFile
{
    version     2.0;
    format      ascii;
    class       volScalarField::DimensionedInternalField;
    location    "0.0530000";
    object      V0;
}
// * * * * * * * * * * * * * * * * * * * * * * * * * * * * * * * * * * * * * //

dimensions      [0 3 0 0 0 0 0];

value           nonuniform List<scalar> 
1952
(
1.37107e-14
2.28527e-14
3.19976e-14
4.11445e-14
5.02973e-14
5.94527e-14
6.86173e-14
7.77872e-14
8.69685e-14
9.61644e-14
1.05377e-13
1.14617e-13
1.23889e-13
1.33202e-13
1.42476e-13
4.57013e-15
1.37104e-14
2.28523e-14
3.1997e-14
4.11438e-14
5.02965e-14
5.94517e-14
6.86162e-14
7.7786e-14
8.69672e-14
9.61629e-14
1.05375e-13
1.14615e-13
1.23887e-13
1.33199e-13
1.42473e-13
4.57005e-15
1.37093e-14
2.28504e-14
3.19943e-14
4.11403e-14
5.02922e-14
5.94467e-14
6.86104e-14
7.77794e-14
8.69599e-14
9.61549e-14
1.05366e-13
1.14605e-13
1.23876e-13
1.33188e-13
1.42461e-13
4.56966e-15
1.37084e-14
2.2849e-14
3.19923e-14
4.11377e-14
5.02891e-14
5.94431e-14
6.86062e-14
7.77747e-14
8.69546e-14
9.6149e-14
1.0536e-13
1.14598e-13
1.23869e-13
1.33179e-13
1.42452e-13
4.56937e-15
1.37077e-14
2.28478e-14
3.19907e-14
4.11357e-14
5.02867e-14
5.94402e-14
6.86028e-14
7.77709e-14
8.69504e-14
9.61443e-14
1.05355e-13
1.14593e-13
1.23863e-13
1.33173e-13
1.42445e-13
4.56915e-15
1.37069e-14
2.28465e-14
3.19889e-14
4.11333e-14
5.02837e-14
5.94367e-14
6.85988e-14
7.77664e-14
8.69453e-14
9.61387e-14
1.05348e-13
1.14586e-13
1.23855e-13
1.33165e-13
1.42436e-13
4.56888e-15
1.3706e-14
2.2845e-14
3.19868e-14
4.11307e-14
5.02805e-14
5.94329e-14
6.85945e-14
7.77615e-14
8.69399e-14
9.61326e-14
1.05342e-13
1.14579e-13
1.23848e-13
1.33157e-13
1.42427e-13
4.56859e-15
1.37052e-14
2.28436e-14
3.19848e-14
4.11281e-14
5.02773e-14
5.94292e-14
6.85902e-14
7.77566e-14
8.69344e-14
9.61266e-14
1.05335e-13
1.14572e-13
1.2384e-13
1.33148e-13
1.42418e-13
4.5683e-15
1.37042e-14
2.28419e-14
3.19824e-14
4.1125e-14
5.02736e-14
5.94248e-14
6.85852e-14
7.7751e-14
8.69281e-14
9.61196e-14
1.05328e-13
1.14563e-13
1.23831e-13
1.33139e-13
1.42408e-13
4.56796e-15
1.37034e-14
2.28407e-14
3.19808e-14
4.11229e-14
5.02711e-14
5.94218e-14
6.85817e-14
7.7747e-14
8.69238e-14
9.61148e-14
1.05322e-13
1.14558e-13
1.23825e-13
1.33132e-13
1.42401e-13
4.56772e-15
1.37026e-14
2.28393e-14
3.19788e-14
4.11204e-14
5.02679e-14
5.94181e-14
6.85774e-14
7.77423e-14
8.69185e-14
9.61089e-14
1.05316e-13
1.14551e-13
1.23818e-13
1.33124e-13
1.42392e-13
4.56744e-15
1.37017e-14
2.28379e-14
3.19768e-14
4.11178e-14
5.02648e-14
5.94145e-14
6.85732e-14
7.77375e-14
8.69132e-14
9.61031e-14
1.05309e-13
1.14544e-13
1.2381e-13
1.33116e-13
1.42384e-13
4.56715e-15
1.37008e-14
2.28363e-14
3.19746e-14
4.1115e-14
5.02613e-14
5.94104e-14
6.85685e-14
7.77322e-14
8.69072e-14
9.60965e-14
1.05302e-13
1.14536e-13
1.23802e-13
1.33107e-13
1.42374e-13
4.56683e-15
1.37002e-14
2.28354e-14
3.19733e-14
4.11133e-14
5.02594e-14
5.94081e-14
6.85658e-14
7.77292e-14
8.69039e-14
9.60929e-14
1.05298e-13
1.14532e-13
1.23797e-13
1.33103e-13
1.42369e-13
4.56665e-15
1.3699e-14
2.28334e-14
3.19705e-14
4.11097e-14
5.02549e-14
5.94028e-14
6.85598e-14
7.77224e-14
8.68964e-14
9.60846e-14
1.05289e-13
1.14522e-13
1.23787e-13
1.33091e-13
1.42357e-13
4.56624e-15
1.36981e-14
2.28318e-14
3.19683e-14
4.11069e-14
5.02515e-14
5.93988e-14
6.85552e-14
7.77173e-14
8.68907e-14
9.60783e-14
1.05282e-13
1.14515e-13
1.23779e-13
1.33083e-13
1.42348e-13
4.56593e-15
1.36975e-14
2.28309e-14
3.1967e-14
4.11053e-14
5.02495e-14
5.93965e-14
6.85525e-14
7.77142e-14
8.68873e-14
9.60746e-14
1.05278e-13
1.1451e-13
1.23774e-13
1.33078e-13
1.42343e-13
4.56574e-15
1.36965e-14
2.28292e-14
3.19647e-14
4.11023e-14
5.02459e-14
5.93923e-14
6.85477e-14
7.77088e-14
8.68813e-14
9.60679e-14
1.05271e-13
1.14503e-13
1.23766e-13
1.33069e-13
1.42333e-13
4.56541e-15
1.36957e-14
2.28278e-14
3.19628e-14
4.10998e-14
5.02429e-14
5.93887e-14
6.85436e-14
7.77042e-14
8.68762e-14
9.60624e-14
1.05265e-13
1.14496e-13
1.23759e-13
1.33062e-13
1.42326e-13
4.56513e-15
1.36948e-14
2.28264e-14
3.19608e-14
4.10973e-14
5.02398e-14
5.93851e-14
6.85395e-14
7.76996e-14
8.68711e-14
9.60568e-14
1.05259e-13
1.1449e-13
1.23752e-13
1.33054e-13
1.42318e-13
4.56484e-15
1.36939e-14
2.28248e-14
3.19586e-14
4.10945e-14
5.02363e-14
5.93811e-14
6.85348e-14
7.76944e-14
8.68654e-14
9.60504e-14
1.05252e-13
1.14482e-13
1.23744e-13
1.33046e-13
1.42309e-13
4.56452e-15
1.36929e-14
2.28233e-14
3.19565e-14
4.10917e-14
5.0233e-14
5.93772e-14
6.85304e-14
7.76894e-14
8.68599e-14
9.60444e-14
1.05246e-13
1.14475e-13
1.23737e-13
1.33038e-13
1.423e-13
4.56421e-15
1.3692e-14
2.28217e-14
3.19543e-14
4.1089e-14
5.02297e-14
5.93733e-14
6.85259e-14
7.76844e-14
8.68544e-14
9.60384e-14
1.05239e-13
1.14468e-13
1.2373e-13
1.3303e-13
1.42292e-13
4.5639e-15
1.36911e-14
2.28202e-14
3.19521e-14
4.10862e-14
5.02263e-14
5.93694e-14
6.85215e-14
7.76795e-14
8.68489e-14
9.60324e-14
1.05233e-13
1.14461e-13
1.23722e-13
1.33022e-13
1.42284e-13
4.56359e-15
1.36905e-14
2.28192e-14
3.19508e-14
4.10845e-14
5.02242e-14
5.9367e-14
6.85187e-14
7.76764e-14
8.68457e-14
9.60289e-14
1.05229e-13
1.14457e-13
1.23718e-13
1.33018e-13
1.42279e-13
4.56339e-15
1.36896e-14
2.28178e-14
3.19488e-14
4.1082e-14
5.02212e-14
5.93634e-14
6.85147e-14
7.7672e-14
8.68408e-14
9.60236e-14
1.05223e-13
1.14451e-13
1.23712e-13
1.33011e-13
1.42273e-13
4.5631e-15
1.36883e-14
2.28156e-14
3.19457e-14
4.1078e-14
5.02164e-14
5.93579e-14
6.85084e-14
7.7665e-14
8.68331e-14
9.60152e-14
1.05214e-13
1.14442e-13
1.23702e-13
1.33001e-13
1.42261e-13
4.56265e-15
1.36875e-14
2.28143e-14
3.19439e-14
4.10758e-14
5.02137e-14
5.93548e-14
6.85049e-14
7.76611e-14
8.68289e-14
9.60107e-14
1.05209e-13
1.14437e-13
1.23697e-13
1.32996e-13
1.42256e-13
4.56239e-15
1.36864e-14
2.28125e-14
3.19415e-14
4.10727e-14
5.021e-14
5.93505e-14
6.85001e-14
7.76558e-14
8.68232e-14
9.60045e-14
1.05203e-13
1.1443e-13
1.2369e-13
1.32988e-13
1.42248e-13
4.56204e-15
1.36853e-14
2.28107e-14
3.1939e-14
4.10696e-14
5.02062e-14
5.93461e-14
6.84951e-14
7.76503e-14
8.68173e-14
9.59982e-14
1.05196e-13
1.14423e-13
1.23683e-13
1.32981e-13
1.42241e-13
4.56168e-15
1.36842e-14
2.28088e-14
3.19363e-14
4.10663e-14
5.02022e-14
5.93415e-14
6.84899e-14
7.76446e-14
8.68112e-14
9.59917e-14
1.0519e-13
1.14416e-13
1.23676e-13
1.32974e-13
1.42234e-13
4.56129e-15
1.36831e-14
2.2807e-14
3.19338e-14
4.1063e-14
5.01983e-14
5.93371e-14
6.84849e-14
7.76392e-14
8.68055e-14
9.59856e-14
1.05183e-13
1.1441e-13
1.23669e-13
1.32967e-13
1.42227e-13
4.56092e-15
1.36819e-14
2.2805e-14
3.19309e-14
4.10595e-14
5.0194e-14
5.93322e-14
6.84794e-14
7.76332e-14
8.67991e-14
9.59788e-14
1.05176e-13
1.14402e-13
1.23662e-13
1.3296e-13
1.4222e-13
4.56051e-15
1.36805e-14
2.28028e-14
3.19279e-14
4.10557e-14
5.01894e-14
5.93269e-14
6.84735e-14
7.76268e-14
8.67923e-14
9.59716e-14
1.05169e-13
1.14395e-13
1.23655e-13
1.32953e-13
1.42214e-13
4.56007e-15
1.36791e-14
2.28005e-14
3.19247e-14
4.10516e-14
5.01845e-14
5.93213e-14
6.84672e-14
7.76199e-14
8.6785e-14
9.59639e-14
1.05161e-13
1.14387e-13
1.23648e-13
1.32946e-13
1.42207e-13
4.5596e-15
1.36778e-14
2.27983e-14
3.19216e-14
4.10478e-14
5.01799e-14
5.9316e-14
6.84613e-14
7.76136e-14
8.67783e-14
9.5957e-14
1.05154e-13
1.1438e-13
1.23642e-13
1.3294e-13
1.42202e-13
4.55916e-15
1.36762e-14
2.27957e-14
3.1918e-14
4.10433e-14
5.01744e-14
5.93097e-14
6.84542e-14
7.76059e-14
8.67702e-14
9.59485e-14
1.05146e-13
1.14372e-13
1.23634e-13
1.32933e-13
1.42196e-13
4.55864e-15
1.36746e-14
2.2793e-14
3.19142e-14
4.10384e-14
5.01684e-14
5.93029e-14
6.84465e-14
7.75974e-14
8.67612e-14
9.59391e-14
1.05137e-13
1.14363e-13
1.23626e-13
1.32925e-13
1.4219e-13
4.55809e-15
1.36728e-14
2.279e-14
3.191e-14
4.10331e-14
5.0162e-14
5.92954e-14
6.8438e-14
7.75881e-14
8.67512e-14
9.59286e-14
1.05126e-13
1.14352e-13
1.23616e-13
1.32916e-13
1.42183e-13
4.5575e-15
1.36707e-14
2.27866e-14
3.19052e-14
4.10269e-14
5.01544e-14
5.92866e-14
6.84278e-14
7.75769e-14
8.67389e-14
9.59157e-14
1.05113e-13
1.14339e-13
1.23604e-13
1.32905e-13
1.42174e-13
4.55682e-15
1.36686e-14
2.27832e-14
3.19002e-14
4.10206e-14
5.01465e-14
5.92773e-14
6.84171e-14
7.7565e-14
8.67258e-14
9.59017e-14
1.05099e-13
1.14325e-13
1.23591e-13
1.32893e-13
1.42165e-13
4.55613e-15
1.36667e-14
2.27798e-14
3.18955e-14
4.10144e-14
5.01388e-14
5.92681e-14
6.84062e-14
7.75527e-14
8.6712e-14
9.5887e-14
1.05084e-13
1.1431e-13
1.23578e-13
1.32881e-13
1.42157e-13
4.55548e-15
1.36643e-14
2.27759e-14
3.18898e-14
4.10069e-14
5.01293e-14
5.92567e-14
6.83926e-14
7.75371e-14
8.66942e-14
9.58675e-14
1.05063e-13
1.14288e-13
1.23558e-13
1.32863e-13
1.42143e-13
4.55471e-15
1.36623e-14
2.27724e-14
3.18847e-14
4.10002e-14
5.01206e-14
5.9246e-14
6.83794e-14
7.75218e-14
8.6676e-14
9.58471e-14
1.0504e-13
1.14264e-13
1.23535e-13
1.32843e-13
1.42133e-13
4.55404e-15
1.36598e-14
2.27683e-14
3.18787e-14
4.09921e-14
5.01101e-14
5.92329e-14
6.83631e-14
7.75023e-14
8.66525e-14
9.582e-14
1.05009e-13
1.1423e-13
1.235e-13
1.32809e-13
1.42113e-13
4.55324e-15
1.36581e-14
2.27653e-14
3.18742e-14
4.09858e-14
5.01016e-14
5.9222e-14
6.83489e-14
7.74848e-14
8.66303e-14
9.57936e-14
1.04977e-13
1.14193e-13
1.23457e-13
1.32763e-13
1.42072e-13
4.55269e-15
1.36557e-14
2.27611e-14
3.1868e-14
4.09773e-14
5.00902e-14
5.92073e-14
6.83299e-14
7.74614e-14
8.66005e-14
9.57578e-14
1.04933e-13
1.1414e-13
1.23395e-13
1.32687e-13
1.41978e-13
4.55191e-15
1.36545e-14
2.27589e-14
3.18644e-14
4.0972e-14
5.00826e-14
5.91967e-14
6.83152e-14
7.74422e-14
8.65745e-14
9.57252e-14
1.0489e-13
1.14087e-13
1.23327e-13
1.326e-13
1.41861e-13
4.55152e-15
1.36532e-14
2.27565e-14
3.18607e-14
4.09663e-14
5.00743e-14
5.91851e-14
6.82989e-14
7.74204e-14
8.65447e-14
9.56873e-14
1.04839e-13
1.14023e-13
1.23245e-13
1.32498e-13
1.41732e-13
4.55111e-15
1.3653e-14
2.27559e-14
3.18592e-14
4.09635e-14
5.00695e-14
5.91772e-14
6.82866e-14
7.74028e-14
8.65186e-14
9.56525e-14
1.04789e-13
1.13961e-13
1.23161e-13
1.32393e-13
1.41606e-13
4.55106e-15
1.36534e-14
2.27563e-14
3.18594e-14
4.09627e-14
5.00669e-14
5.91719e-14
6.82771e-14
7.73877e-14
8.64949e-14
9.56194e-14
1.0474e-13
1.13897e-13
1.23072e-13
1.32283e-13
1.41475e-13
4.55123e-15
1.36546e-14
2.27581e-14
3.18613e-14
4.09641e-14
5.00671e-14
5.91696e-14
6.82712e-14
7.73762e-14
8.6475e-14
9.55895e-14
1.04693e-13
1.13834e-13
1.22978e-13
1.32168e-13
1.41337e-13
4.55165e-15
1.36576e-14
2.27627e-14
3.18672e-14
4.09706e-14
5.00737e-14
5.91747e-14
6.82738e-14
7.73742e-14
8.64664e-14
9.55722e-14
1.04661e-13
1.13787e-13
1.22894e-13
1.3206e-13
1.41189e-13
4.55265e-15
1.36616e-14
2.27692e-14
3.18758e-14
4.09808e-14
5.00851e-14
5.91864e-14
6.82851e-14
7.73827e-14
8.64705e-14
9.55684e-14
1.04645e-13
1.13753e-13
1.22822e-13
1.31957e-13
1.41019e-13
4.55403e-15
1.36673e-14
2.27784e-14
3.18883e-14
4.09959e-14
5.01025e-14
5.92049e-14
6.8304e-14
7.73995e-14
8.64835e-14
9.55728e-14
1.04637e-13
1.13724e-13
1.22757e-13
1.31857e-13
1.40839e-13
4.55595e-15
1.36749e-14
2.27907e-14
3.19046e-14
4.10152e-14
5.01235e-14
5.92257e-14
6.83234e-14
7.74146e-14
8.64934e-14
9.55727e-14
1.04625e-13
1.13692e-13
1.22698e-13
1.31766e-13
1.40677e-13
4.55852e-15
1.36823e-14
2.28024e-14
3.19197e-14
4.10324e-14
5.01415e-14
5.92425e-14
6.83377e-14
7.74237e-14
8.64969e-14
9.55665e-14
1.04609e-13
1.1366e-13
1.2265e-13
1.31689e-13
1.40554e-13
4.56108e-15
1.36871e-14
2.28096e-14
3.19286e-14
4.10418e-14
5.01504e-14
5.92494e-14
6.83419e-14
7.74229e-14
8.64915e-14
9.55523e-14
1.04589e-13
1.13626e-13
1.22606e-13
1.31624e-13
1.40473e-13
4.56276e-15
1.36895e-14
2.28133e-14
3.19329e-14
4.10458e-14
5.01535e-14
5.92505e-14
6.83406e-14
7.74176e-14
8.64829e-14
9.55372e-14
1.04571e-13
1.13598e-13
1.22578e-13
1.31583e-13
1.40436e-13
4.56364e-15
1.36894e-14
2.28128e-14
3.19319e-14
4.10439e-14
5.01504e-14
5.92455e-14
6.83337e-14
7.74079e-14
8.64715e-14
9.55218e-14
1.04556e-13
1.13578e-13
1.22565e-13
1.31563e-13
1.40433e-13
4.56364e-15
1.36868e-14
2.28086e-14
3.19261e-14
4.10364e-14
5.01413e-14
5.92348e-14
6.83217e-14
7.73941e-14
8.64576e-14
9.55061e-14
1.04544e-13
1.13564e-13
1.22563e-13
1.3156e-13
1.40459e-13
4.56279e-15
1.36824e-14
2.28013e-14
3.19163e-14
4.10245e-14
5.01277e-14
5.92197e-14
6.8306e-14
7.73776e-14
8.64424e-14
9.54912e-14
1.04535e-13
1.13557e-13
1.22573e-13
1.31574e-13
1.40511e-13
4.56127e-15
1.36759e-14
2.27909e-14
3.19023e-14
4.10076e-14
5.01086e-14
5.9199e-14
6.82847e-14
7.73563e-14
8.64231e-14
9.54738e-14
1.04524e-13
1.13552e-13
1.22587e-13
1.31599e-13
1.40579e-13
4.55908e-15
1.36682e-14
2.27785e-14
3.18857e-14
4.09875e-14
5.00859e-14
5.91746e-14
6.82599e-14
7.7332e-14
8.64014e-14
9.54556e-14
1.04515e-13
1.13551e-13
1.22609e-13
1.31635e-13
1.40663e-13
4.55648e-15
1.36599e-14
2.2765e-14
3.18675e-14
4.09654e-14
5.00606e-14
5.91474e-14
6.82323e-14
7.73054e-14
8.63781e-14
9.54372e-14
1.04506e-13
1.13554e-13
1.22636e-13
1.31681e-13
1.40759e-13
4.55368e-15
1.36508e-14
2.27501e-14
3.18473e-14
4.09404e-14
5.00317e-14
5.91157e-14
6.81993e-14
7.72731e-14
8.63487e-14
9.54136e-14
1.04494e-13
1.13555e-13
1.22664e-13
1.31732e-13
1.40856e-13
4.55063e-15
1.36416e-14
2.27349e-14
3.18264e-14
4.09143e-14
5.0001e-14
5.90814e-14
6.81628e-14
7.72364e-14
8.63146e-14
9.53859e-14
1.04478e-13
1.13557e-13
1.22692e-13
1.31785e-13
1.40953e-13
4.54754e-15
1.36325e-14
2.27199e-14
3.18057e-14
4.08883e-14
4.99703e-14
5.90469e-14
6.81251e-14
7.71972e-14
8.62761e-14
9.5353e-14
1.04456e-13
1.13555e-13
1.22718e-13
1.31839e-13
1.41044e-13
4.5445e-15
1.36239e-14
2.27055e-14
3.17858e-14
4.08633e-14
4.99406e-14
5.90134e-14
6.80875e-14
7.71559e-14
8.62328e-14
9.53133e-14
1.04425e-13
1.13544e-13
1.22734e-13
1.31883e-13
1.41118e-13
4.54161e-15
1.36146e-14
2.269e-14
3.1764e-14
4.08353e-14
4.99064e-14
5.89742e-14
6.80451e-14
7.71142e-14
8.61961e-14
9.52866e-14
1.04408e-13
1.1354e-13
1.22738e-13
1.31906e-13
1.41155e-13
4.5385e-15
1.36067e-14
2.26773e-14
3.17474e-14
4.08161e-14
4.98863e-14
5.89567e-14
6.80344e-14
7.71159e-14
8.62121e-14
9.53181e-14
1.04447e-13
1.1358e-13
1.22765e-13
1.31933e-13
1.41167e-13
4.53577e-15
1.36047e-14
2.26751e-14
3.17467e-14
4.08194e-14
4.98967e-14
5.89768e-14
6.80653e-14
7.71576e-14
8.62611e-14
9.53733e-14
1.04504e-13
1.13637e-13
1.22804e-13
1.31961e-13
1.41161e-13
4.53498e-15
1.36109e-14
2.26858e-14
3.17625e-14
4.08408e-14
4.99242e-14
5.90102e-14
6.81037e-14
7.72009e-14
8.63071e-14
9.54216e-14
1.04551e-13
1.13685e-13
1.22842e-13
1.31995e-13
1.41172e-13
4.537e-15
1.3618e-14
2.26976e-14
3.17788e-14
4.08615e-14
4.99487e-14
5.90382e-14
6.81348e-14
7.72359e-14
8.63452e-14
9.5462e-14
1.0459e-13
1.13723e-13
1.22874e-13
1.32027e-13
1.41197e-13
4.53936e-15
1.36235e-14
2.27067e-14
3.17918e-14
4.08783e-14
4.99692e-14
5.90624e-14
6.8162e-14
7.72654e-14
8.63757e-14
9.54933e-14
1.0462e-13
1.13752e-13
1.22898e-13
1.32046e-13
1.41208e-13
4.54116e-15
1.36287e-14
2.27155e-14
3.18038e-14
4.08935e-14
4.99873e-14
5.90831e-14
6.81849e-14
7.72902e-14
8.64014e-14
9.55193e-14
1.04645e-13
1.13774e-13
1.22916e-13
1.32059e-13
1.41211e-13
4.5429e-15
1.36335e-14
2.27235e-14
3.18149e-14
4.09077e-14
5.00042e-14
5.91025e-14
6.82062e-14
7.7313e-14
8.64248e-14
9.55427e-14
1.04667e-13
1.13794e-13
1.22932e-13
1.32071e-13
1.41215e-13
4.54451e-15
1.36374e-14
2.27298e-14
3.18236e-14
4.09185e-14
5.0017e-14
5.9117e-14
6.82218e-14
7.73294e-14
8.64412e-14
9.55585e-14
1.04681e-13
1.13806e-13
1.2294e-13
1.32074e-13
1.41212e-13
4.54579e-15
1.36408e-14
2.27354e-14
3.18314e-14
4.09283e-14
5.00284e-14
5.91298e-14
6.82356e-14
7.73437e-14
8.64553e-14
9.5572e-14
1.04693e-13
1.13815e-13
1.22946e-13
1.32076e-13
1.41208e-13
4.54693e-15
1.3644e-14
2.27408e-14
3.18387e-14
4.09374e-14
5.00391e-14
5.91418e-14
6.82485e-14
7.73571e-14
8.64686e-14
9.55847e-14
1.04704e-13
1.13825e-13
1.22953e-13
1.32079e-13
1.41206e-13
4.54802e-15
1.36467e-14
2.27451e-14
3.18445e-14
4.09446e-14
5.00475e-14
5.91511e-14
6.82584e-14
7.73672e-14
8.64783e-14
9.55937e-14
1.04712e-13
1.1383e-13
1.22956e-13
1.32079e-13
1.41202e-13
4.5489e-15
1.36485e-14
2.27481e-14
3.18486e-14
4.09497e-14
5.00533e-14
5.91573e-14
6.82647e-14
7.73733e-14
8.64839e-14
9.55981e-14
1.04714e-13
1.13831e-13
1.22954e-13
1.32074e-13
1.41193e-13
4.54953e-15
1.36506e-14
2.27515e-14
3.18533e-14
4.09554e-14
5.00599e-14
5.91646e-14
6.82724e-14
7.73811e-14
8.64913e-14
9.5605e-14
1.0472e-13
1.13835e-13
1.22956e-13
1.32074e-13
1.4119e-13
4.55023e-15
1.36521e-14
2.27539e-14
3.18564e-14
4.09593e-14
5.00642e-14
5.91693e-14
6.82771e-14
7.73857e-14
8.64953e-14
9.56082e-14
1.04722e-13
1.13836e-13
1.22954e-13
1.32071e-13
1.41184e-13
4.55072e-15
1.36531e-14
2.27555e-14
3.18586e-14
4.09618e-14
5.00671e-14
5.91722e-14
6.82799e-14
7.7388e-14
8.6497e-14
9.5609e-14
1.04722e-13
1.13834e-13
1.22951e-13
1.32065e-13
1.41176e-13
4.55106e-15
1.36539e-14
2.27568e-14
3.18603e-14
4.09638e-14
5.00692e-14
5.91744e-14
6.82819e-14
7.73897e-14
8.64981e-14
9.56092e-14
1.04721e-13
1.13832e-13
1.22947e-13
1.32059e-13
1.41168e-13
4.55133e-15
1.36552e-14
2.2759e-14
3.18633e-14
4.09675e-14
5.00735e-14
5.91791e-14
6.82868e-14
7.73947e-14
8.6503e-14
9.56138e-14
1.04725e-13
1.13835e-13
1.22949e-13
1.32061e-13
1.41168e-13
4.55178e-15
1.36557e-14
2.27597e-14
3.18641e-14
4.09685e-14
5.00745e-14
5.918e-14
6.82875e-14
7.7395e-14
8.65026e-14
9.56127e-14
1.04723e-13
1.13832e-13
1.22945e-13
1.32055e-13
1.41161e-13
4.55193e-15
1.36558e-14
2.27599e-14
3.18643e-14
4.09686e-14
5.00744e-14
5.91797e-14
6.82868e-14
7.73937e-14
8.65007e-14
9.56101e-14
1.04719e-13
1.13827e-13
1.22939e-13
1.32048e-13
1.41152e-13
4.55198e-15
1.36562e-14
2.27606e-14
3.18653e-14
4.09697e-14
5.00756e-14
5.91809e-14
6.82878e-14
7.73946e-14
8.65013e-14
9.56102e-14
1.04719e-13
1.13826e-13
1.22937e-13
1.32045e-13
1.41148e-13
4.55214e-15
1.36564e-14
2.27608e-14
3.18655e-14
4.09699e-14
5.00757e-14
5.91808e-14
6.82875e-14
7.7394e-14
8.65001e-14
9.56085e-14
1.04716e-13
1.13823e-13
1.22933e-13
1.3204e-13
1.41142e-13
4.55219e-15
1.36565e-14
2.2761e-14
3.18657e-14
4.09701e-14
5.00758e-14
5.91808e-14
6.82873e-14
7.73934e-14
8.64992e-14
9.56071e-14
1.04714e-13
1.1382e-13
1.2293e-13
1.32036e-13
1.41138e-13
4.55223e-15
1.36564e-14
2.27608e-14
3.18654e-14
4.09697e-14
5.00752e-14
5.91799e-14
6.8286e-14
7.73918e-14
8.64971e-14
9.56045e-14
1.04711e-13
1.13817e-13
1.22925e-13
1.32031e-13
1.41132e-13
4.5522e-15
1.36564e-14
2.27608e-14
3.18654e-14
4.09696e-14
5.0075e-14
5.91795e-14
6.82855e-14
7.7391e-14
8.6496e-14
9.5603e-14
1.04709e-13
1.13814e-13
1.22922e-13
1.32027e-13
1.41128e-13
4.55221e-15
1.36562e-14
2.27605e-14
3.1865e-14
4.0969e-14
5.00742e-14
5.91785e-14
6.82841e-14
7.73893e-14
8.64939e-14
9.56005e-14
1.04706e-13
1.13811e-13
1.22918e-13
1.32023e-13
1.41122e-13
4.55215e-15
1.36559e-14
2.276e-14
3.18642e-14
4.09679e-14
5.00728e-14
5.91768e-14
6.82821e-14
7.73868e-14
8.6491e-14
9.55971e-14
1.04702e-13
1.13806e-13
1.22913e-13
1.32017e-13
1.41116e-13
4.55205e-15
1.36556e-14
2.27594e-14
3.18634e-14
4.09669e-14
5.00715e-14
5.91751e-14
6.82801e-14
7.73845e-14
8.64882e-14
9.55939e-14
1.04699e-13
1.13802e-13
1.22908e-13
1.32012e-13
1.4111e-13
4.55194e-15
1.36553e-14
2.2759e-14
3.18627e-14
4.0966e-14
5.00704e-14
5.91738e-14
6.82784e-14
7.73825e-14
8.64859e-14
9.55912e-14
1.04696e-13
1.13799e-13
1.22904e-13
1.32008e-13
1.41106e-13
4.55185e-15
1.3655e-14
2.27583e-14
3.18618e-14
4.09648e-14
5.00689e-14
5.9172e-14
6.82763e-14
7.738e-14
8.6483e-14
9.55879e-14
1.04692e-13
1.13794e-13
1.229e-13
1.32003e-13
1.411e-13
4.55173e-15
1.36545e-14
2.27576e-14
3.18608e-14
4.09634e-14
5.00672e-14
5.91699e-14
6.82739e-14
7.73772e-14
8.64798e-14
9.55843e-14
1.04688e-13
1.1379e-13
1.22895e-13
1.31997e-13
1.41094e-13
4.55158e-15
1.36544e-14
2.27574e-14
3.18604e-14
4.0963e-14
5.00666e-14
5.91692e-14
6.8273e-14
7.73762e-14
8.64786e-14
9.55829e-14
1.04686e-13
1.13788e-13
1.22893e-13
1.31995e-13
1.41092e-13
4.55154e-15
1.36536e-14
2.27561e-14
3.18586e-14
4.09606e-14
5.00637e-14
5.91658e-14
6.8269e-14
7.73716e-14
8.64735e-14
9.55771e-14
1.0468e-13
1.13781e-13
1.22885e-13
1.31987e-13
1.41083e-13
4.55128e-15
1.36534e-14
2.27558e-14
3.18582e-14
4.09602e-14
5.00631e-14
5.9165e-14
6.82681e-14
7.73705e-14
8.64723e-14
9.55758e-14
1.04678e-13
1.13779e-13
1.22883e-13
1.31984e-13
1.41081e-13
4.55123e-15
1.36528e-14
2.27548e-14
3.18568e-14
4.09583e-14
5.00608e-14
5.91623e-14
6.8265e-14
7.7367e-14
8.64682e-14
9.55713e-14
1.04673e-13
1.13774e-13
1.22877e-13
1.31978e-13
1.41074e-13
4.55103e-15
1.36523e-14
2.27539e-14
3.18556e-14
4.09567e-14
5.00589e-14
5.916e-14
6.82623e-14
7.73639e-14
8.64648e-14
9.55675e-14
1.04669e-13
1.1377e-13
1.22873e-13
1.31973e-13
1.41068e-13
4.55085e-15
1.36515e-14
2.27525e-14
3.18537e-14
4.09543e-14
5.00559e-14
5.91564e-14
6.82582e-14
7.73592e-14
8.64596e-14
9.55617e-14
1.04663e-13
1.13763e-13
1.22865e-13
1.31965e-13
1.41059e-13
4.55058e-15
1.36514e-14
2.27523e-14
3.18533e-14
4.09538e-14
5.00554e-14
5.91558e-14
6.82575e-14
7.73584e-14
8.64586e-14
9.55607e-14
1.04662e-13
1.13761e-13
1.22864e-13
1.31963e-13
1.41058e-13
4.55054e-15
1.36506e-14
2.27511e-14
3.18516e-14
4.09516e-14
5.00526e-14
5.91525e-14
6.82537e-14
7.73541e-14
8.64539e-14
9.55554e-14
1.04656e-13
1.13755e-13
1.22857e-13
1.31956e-13
1.4105e-13
4.55028e-15
1.365e-14
2.275e-14
3.18501e-14
4.09497e-14
5.00502e-14
5.91498e-14
6.82505e-14
7.73505e-14
8.64498e-14
9.55509e-14
1.04651e-13
1.1375e-13
1.22851e-13
1.3195e-13
1.41044e-13
4.55007e-15
1.36492e-14
2.27487e-14
3.18483e-14
4.09474e-14
5.00475e-14
5.91465e-14
6.82467e-14
7.73463e-14
8.64451e-14
9.55457e-14
1.04645e-13
1.13744e-13
1.22845e-13
1.31943e-13
1.41036e-13
4.54982e-15
1.36486e-14
2.27478e-14
3.1847e-14
4.09457e-14
5.00454e-14
5.91441e-14
6.82439e-14
7.73431e-14
8.64415e-14
9.55418e-14
1.04641e-13
1.13739e-13
1.2284e-13
1.31938e-13
1.41031e-13
4.54963e-15
1.3648e-14
2.27466e-14
3.18454e-14
4.09436e-14
5.00429e-14
5.91411e-14
6.82404e-14
7.73392e-14
8.64372e-14
9.5537e-14
1.04636e-13
1.13734e-13
1.22834e-13
1.31932e-13
1.41024e-13
4.5494e-15
1.36472e-14
2.27454e-14
3.18437e-14
4.09414e-14
5.00402e-14
5.91379e-14
6.82368e-14
7.73351e-14
8.64327e-14
9.55321e-14
1.04631e-13
1.13728e-13
1.22828e-13
1.31925e-13
1.41018e-13
4.54916e-15
1.36467e-14
2.27446e-14
3.18425e-14
4.09399e-14
5.00384e-14
5.91358e-14
6.82343e-14
7.73323e-14
8.64295e-14
9.55286e-14
1.04627e-13
1.13724e-13
1.22824e-13
1.31921e-13
1.41013e-13
4.54899e-15
1.36458e-14
2.27431e-14
3.18404e-14
4.09372e-14
5.0035e-14
5.91318e-14
6.82297e-14
7.7327e-14
8.64237e-14
9.55222e-14
1.0462e-13
1.13716e-13
1.22816e-13
1.31912e-13
1.41004e-13
4.54869e-15
1.36449e-14
2.27416e-14
3.18384e-14
4.09346e-14
5.00318e-14
5.9128e-14
6.82254e-14
7.73221e-14
8.64181e-14
9.55161e-14
1.04613e-13
1.13709e-13
1.22808e-13
1.31904e-13
1.40996e-13
4.5484e-15
1.36447e-14
2.27411e-14
3.18377e-14
4.09337e-14
5.00308e-14
5.91267e-14
6.82239e-14
7.73204e-14
8.64162e-14
9.55139e-14
1.04611e-13
1.13706e-13
1.22805e-13
1.31902e-13
1.40994e-13
4.54831e-15
1.36438e-14
2.27397e-14
3.18357e-14
4.09311e-14
5.00275e-14
5.91229e-14
6.82195e-14
7.73154e-14
8.64106e-14
9.55076e-14
1.04604e-13
1.13699e-13
1.22797e-13
1.31893e-13
1.40985e-13
4.54802e-15
1.36426e-14
2.27377e-14
3.18328e-14
4.09275e-14
5.00231e-14
5.91176e-14
6.82134e-14
7.73084e-14
8.64027e-14
9.54989e-14
1.04594e-13
1.13688e-13
1.22785e-13
1.31879e-13
1.4097e-13
4.54761e-15
1.36419e-14
2.27365e-14
3.18311e-14
4.09252e-14
5.00204e-14
5.91144e-14
6.82096e-14
7.73041e-14
8.63979e-14
9.54935e-14
1.04588e-13
1.13681e-13
1.22777e-13
1.31871e-13
1.40959e-13
4.54737e-15
1.3641e-14
2.2735e-14
3.1829e-14
4.09226e-14
5.00171e-14
5.91105e-14
6.82051e-14
7.72991e-14
8.63923e-14
9.54873e-14
1.04581e-13
1.13674e-13
1.22769e-13
1.31862e-13
1.4095e-13
4.54707e-15
1.26218e-29
1.26218e-29
2.52435e-29
2.52435e-29
0
-1.76705e-28
-1.00974e-28
-5.04871e-29
-5.04871e-29
-5.04871e-29
-1.00974e-28
1.00974e-28
-2.01948e-28
-5.04871e-28
-1.00974e-28
0
)
;


// ************************************************************************* //
