/*--------------------------------*- C++ -*----------------------------------*\
| =========                 |                                                 |
| \\      /  F ield         | OpenFOAM: The Open Source CFD Toolbox           |
|  \\    /   O peration     | Version:  4.1                                   |
|   \\  /    A nd           | Web:      www.OpenFOAM.org                      |
|    \\/     M anipulation  |                                                 |
\*---------------------------------------------------------------------------*/
FoamFile
{
    version     2.0;
    format      ascii;
    class       volVectorField;
    location    "0.000140";
    object      U;
}
// * * * * * * * * * * * * * * * * * * * * * * * * * * * * * * * * * * * * * //

dimensions      [0 1 -1 0 0 0 0];

internalField   nonuniform List<vector> 
6144
(
(3.9033941 -0.031171357 9.157052e-05)
(3.9546594 -0.055198282 0.0002012677)
(4.0182089 -0.064849955 0.00025288885)
(4.0870296 -0.065201043 0.0002447386)
(4.1560002 -0.060075509 0.00020086236)
(4.2209952 -0.05153332 0.00015252285)
(4.2787088 -0.040627187 0.00011180309)
(4.3266079 -0.028199096 7.6869272e-05)
(4.3628233 -0.014757429 4.4857314e-06)
(4.3861071 -0.00075647402 -0.0001209226)
(4.3956284 0.013339905 -0.00023649326)
(4.390976 0.027188458 -0.00026729924)
(4.3724021 0.040347829 -0.00024300542)
(4.3405173 0.052640739 -0.0001855482)
(4.2962579 0.063929357 -0.00012387079)
(4.2408719 0.073981276 -0.00011317122)
(4.1759283 0.082512775 -0.00013318199)
(4.1031344 0.089422416 -0.00012873476)
(4.0242002 0.094712416 -0.00011073154)
(3.9407662 0.098397108 -8.0992446e-05)
(3.8543039 0.10039913 -4.3810584e-05)
(3.7657025 0.1007408 -2.1875285e-06)
(3.6746238 0.099587345 -3.3019392e-07)
(3.5857691 0.096994863 -2.3930228e-05)
(3.5013009 0.09254689 -1.3802645e-05)
(3.4222633 0.086370872 2.0811337e-05)
(3.3496522 0.07869471 5.6859725e-05)
(3.2842753 0.069791554 8.4704979e-05)
(3.2267368 0.059838387 8.9085808e-05)
(3.1774434 0.049104039 6.2055795e-05)
(3.1367802 0.03775399 8.6584476e-06)
(3.1050609 0.025995936 -5.1311129e-06)
(3.0824975 0.014049532 4.7119807e-05)
(3.069061 0.0020676562 6.9932688e-05)
(3.0647836 -0.009824052 3.1056861e-05)
(3.0697477 -0.021697385 3.2872869e-05)
(3.0839587 -0.033290106 7.8324448e-05)
(3.1073657 -0.044429248 0.00012587154)
(3.1397879 -0.054963836 0.00017569007)
(3.1809995 -0.064707599 0.0002706825)
(3.2306923 -0.073441274 0.00043857495)
(3.2884353 -0.080808937 0.00063459073)
(3.3528992 -0.086388616 0.0007573871)
(3.4218535 -0.089553967 0.00078064371)
(3.4948405 -0.088819885 0.0007108136)
(3.5698725 -0.086647219 0.00064900227)
(3.635037 -0.088302705 0.00076392085)
(3.7341234 -0.067845544 0.00061988788)
(3.9075411 -0.026067951 0.0052169643)
(3.9564463 -0.04379435 0.0081422284)
(4.0178813 -0.051315815 0.0093744419)
(4.085438 -0.051621923 0.0095197649)
(4.1535496 -0.047481771 0.0091341095)
(4.217933 -0.040642986 0.0084631519)
(4.2751618 -0.031957723 0.0075998158)
(4.3226806 -0.021966092 0.0065321098)
(4.3586132 -0.011071245 0.00524175)
(4.3817198 0.00035715624 0.0037481791)
(4.3911572 0.0119395 0.0022109357)
(4.3865562 0.023191773 0.00069223425)
(4.3681531 0.033802739 -0.00072464942)
(4.336526 0.043650213 -0.0020644129)
(4.2925952 0.052642529 -0.0033931671)
(4.2375744 0.060590943 -0.0047040523)
(4.1730526 0.067255976 -0.0059312596)
(4.1007262 0.072565625 -0.0069969209)
(4.0222965 0.076550715 -0.0079014434)
(3.9393742 0.079218683 -0.008663966)
(3.8533274 0.080432146 -0.0093848396)
(3.7650661 0.080149293 -0.010119258)
(3.674553 0.078789656 -0.010410404)
(3.586102 0.076531972 -0.010163273)
(3.5020187 0.072834082 -0.0097346878)
(3.4232732 0.067753341 -0.0092233702)
(3.3508674 0.061520906 -0.0086431187)
(3.2856226 0.054368373 -0.008025582)
(3.2281539 0.046401136 -0.0073589461)
(3.1789107 0.037878525 -0.0066657479)
(3.1383249 0.028991223 -0.005902892)
(3.106643 0.019879796 -0.0050329197)
(3.0840072 0.010592027 -0.0040735766)
(3.0703954 0.0011303429 -0.0030641528)
(3.0659889 -0.0083621249 -0.0020037097)
(3.0709333 -0.017762852 -0.00089936281)
(3.0851297 -0.026908395 0.00026709807)
(3.1084731 -0.035705134 0.001447168)
(3.1407937 -0.044046607 0.0026458079)
(3.1818687 -0.05176333 0.0039212457)
(3.2313187 -0.058714032 0.0052587047)
(3.2887317 -0.064686121 0.0065336306)
(3.3528636 -0.069393568 0.0076648517)
(3.4216045 -0.072391366 0.0086253739)
(3.4949561 -0.072510142 0.0090503369)
(3.5701763 -0.071775996 0.0093998129)
(3.6344005 -0.072748166 0.014261314)
(3.7342993 -0.053025663 0.012271803)
(3.9128482 -0.021201486 0.0089085427)
(3.9601599 -0.035291368 0.015071624)
(4.020535 -0.041240895 0.018442599)
(4.0877392 -0.041468641 0.019676045)
(4.1557221 -0.038106284 0.019492394)
(4.2200132 -0.032460331 0.018202861)
(4.2770762 -0.025352599 0.016197921)
(4.3244015 -0.017243403 0.013708747)
(4.360159 -0.0084359164 0.010840933)
(4.3830966 0.00074723913 0.0076562282)
(4.3924209 0.01006456 0.0044413713)
(4.3877684 0.019010154 0.0010883865)
(4.3692601 0.027488784 -0.0021507193)
(4.3374567 0.035398623 -0.0052891187)
(4.2932773 0.042613125 -0.0083940865)
(4.2379428 0.048985836 -0.011382166)
(4.1730943 0.054314046 -0.014135464)
(4.1004697 0.058537613 -0.016565278)
(4.0217808 0.061696924 -0.018649012)
(3.9386383 0.063763576 -0.020418448)
(3.8524095 0.064554304 -0.022036131)
(3.7644539 0.064013988 -0.023622782)
(3.6754872 0.06279182 -0.024511433)
(3.5881889 0.061164503 -0.024365781)
(3.5052389 0.058456574 -0.0237433)
(3.4275429 0.054513545 -0.022788196)
(3.3560658 0.049554616 -0.021490223)
(3.2916304 0.04381916 -0.019934048)
(3.2348454 0.037384221 -0.01811208)
(3.1862082 0.030445089 -0.016063593)
(3.1461521 0.023239534 -0.013769799)
(3.1148381 0.015880983 -0.011264284)
(3.0924003 0.0083562222 -0.0086225066)
(3.0788877 0.0007898213 -0.005909307)
(3.0744309 -0.0067996231 -0.0032258627)
(3.0791618 -0.014275184 -0.00039082182)
(3.0929948 -0.02158714 0.0025131745)
(3.1157895 -0.028657475 0.0054039312)
(3.147394 -0.035373202 0.0082564065)
(3.1875996 -0.041581747 0.011093911)
(3.2359038 -0.04717063 0.013864335)
(3.2919152 -0.052012934 0.016391434)
(3.3545835 -0.055932398 0.018585967)
(3.4220573 -0.058640464 0.020435662)
(3.4948321 -0.059084748 0.021562639)
(3.5702632 -0.058652439 0.022695513)
(3.6331618 -0.061167512 0.027004949)
(3.7328364 -0.043758901 0.020329857)
(3.9164292 -0.017091674 0.012188772)
(3.9634407 -0.027869215 0.021948652)
(4.0237702 -0.032273823 0.027413059)
(4.0912223 -0.032277138 0.029480226)
(4.1593256 -0.029501396 0.029299441)
(4.2235876 -0.025019525 0.027551982)
(4.2805445 -0.019445736 0.024694237)
(4.3277178 -0.013102191 0.021033797)
(4.3633013 -0.0062300958 0.016754955)
(4.3860419 0.00092329171 0.011962479)
(4.395178 0.0081357114 0.0069895467)
(4.3903206 0.015013383 0.0018186924)
(4.371487 0.02153498 -0.0032396671)
(4.3392389 0.027630879 -0.0081850165)
(4.2945001 0.033205441 -0.013019346)
(4.2385421 0.038116558 -0.017612743)
(4.173075 0.042210433 -0.021792094)
(4.099909 0.045436482 -0.025466588)
(4.0207623 0.047833203 -0.028609737)
(3.9372636 0.049351081 -0.031271079)
(3.8509381 0.049825361 -0.033623706)
(3.7636029 0.049231603 -0.035761137)
(3.6765529 0.048188663 -0.036957854)
(3.5907169 0.047038036 -0.036709975)
(3.5089391 0.045167594 -0.035699399)
(3.4322327 0.042210263 -0.034261035)
(3.3615166 0.038397382 -0.032357344)
(3.2977003 0.033936148 -0.030033965)
(3.2414192 0.028912876 -0.027274282)
(3.1932344 0.023504703 -0.024149927)
(3.1535535 0.017904299 -0.020711393)
(3.1224436 0.012179529 -0.01701105)
(3.1000452 0.0063199519 -0.013075908)
(3.0864809 0.00044540677 -0.0089365772)
(3.0818507 -0.0054065075 -0.0047184556)
(3.0862352 -0.011142809 -0.00034159704)
(3.0995266 -0.016787791 0.0040668295)
(3.1216303 -0.022279987 0.0084345923)
(3.1524172 -0.027498885 0.012718813)
(3.1916876 -0.032320747 0.016910998)
(3.2389295 -0.03667247 0.020934091)
(3.2937004 -0.040460227 0.024591467)
(3.3552102 -0.043586862 0.027783025)
(3.4218696 -0.04587447 0.03052629)
(3.4944683 -0.046476816 0.032457366)
(3.5701285 -0.046777288 0.034367913)
(3.6326131 -0.050578936 0.038765916)
(3.7340126 -0.035834237 0.028004468)
(3.917204 -0.013112887 0.015786262)
(3.964842 -0.020790593 0.02951214)
(4.0256391 -0.023766607 0.037251724)
(4.0934986 -0.023544278 0.040227643)
(4.1616765 -0.021371659 0.040081779)
(4.2257828 -0.018044336 0.037746553)
(4.2824926 -0.013974202 0.033866627)
(4.3293819 -0.009346144 0.028876845)
(4.3646315 -0.0043472604 0.023005986)
(4.3870003 0.00087256028 0.016463476)
(4.3957739 0.0061183877 0.0095702402)
(4.3905421 0.01106268 0.0024081572)
(4.3713017 0.015730653 -0.0046619151)
(4.3386155 0.020073221 -0.011613693)
(4.2933927 0.024092046 -0.018337212)
(4.2369627 0.027620136 -0.024682077)
(4.1710934 0.03056398 -0.030406902)
(4.0976511 0.03287995 -0.035418785)
(4.0183534 0.034584471 -0.039703695)
(3.934856 0.035642368 -0.04331357)
(3.8488803 0.035944388 -0.046377047)
(3.7624297 0.035463468 -0.048958972)
(3.677068 0.034647383 -0.050454527)
(3.5928609 0.033970043 -0.050222023)
(3.511768 0.03285424 -0.04887527)
(3.4353446 0.030775832 -0.046957797)
(3.3645662 0.027989788 -0.044367345)
(3.3005863 0.024691303 -0.041158942)
(3.2440964 0.02098508 -0.037335371)
(3.1957146 0.017027156 -0.032997461)
(3.1558148 0.012917471 -0.028254479)
(3.1244001 0.0086904616 -0.023185395)
(3.1016647 0.0043947358 -0.017782457)
(3.0877384 0.00011449175 -0.01211529)
(3.082718 -0.0041206307 -0.0062903547)
(3.0866606 -0.0082553544 -0.00032185334)
(3.0994657 -0.012324405 0.0056499987)
(3.1210881 -0.016293766 0.011596567)
(3.15144 -0.020040162 0.017438145)
(3.1903359 -0.023529191 0.023076777)
(3.2373058 -0.026712138 0.02843978)
(3.291837 -0.029508032 0.033327601)
(3.3532871 -0.031847511 0.037657132)
(3.4202283 -0.033696356 0.041454338)
(3.4934601 -0.034416035 0.044315191)
(3.5696848 -0.035409964 0.047044628)
(3.6336733 -0.040416531 0.051316316)
(3.7401168 -0.028452553 0.036453326)
(3.9147001 -0.0093164307 0.019784768)
(3.9636977 -0.014299442 0.037671353)
(4.0252 -0.016119866 0.047727304)
(4.0934495 -0.015658683 0.051623562)
(4.161616 -0.01407956 0.051444338)
(4.2254904 -0.011837891 0.048443956)
(4.2819045 -0.0091521383 0.043457419)
(4.3284664 -0.0061134917 0.037023438)
(4.3633482 -0.0028506367 0.029456871)
(4.3853457 0.00058319082 0.021040806)
(4.3937723 0.0040388613 0.012109573)
(4.3881839 0.0072100128 0.0028240345)
(4.3686438 0.0101632 -0.0063834345)
(4.3357269 0.012955846 -0.015408201)
(4.2903152 0.015577602 -0.024086203)
(4.2337956 0.017912836 -0.032214054)
(4.1679274 0.019896706 -0.039518837)
(4.0945732 0.021464136 -0.045912439)
(4.0154672 0.022588697 -0.051372989)
(3.9322936 0.023285514 -0.05594109)
(3.8468765 0.023496746 -0.059692057)
(3.7612332 0.023183338 -0.062678659)
(3.6770348 0.022643437 -0.064470232)
(3.5941524 0.022323192 -0.064363586)
(3.5128473 0.021712293 -0.062838294)
(3.4356563 0.020328017 -0.060495069)
(3.363887 0.018430568 -0.057195606)
(3.2988872 0.016173235 -0.053030594)
(3.2414109 0.013668273 -0.04806063)
(3.1921058 0.011037652 -0.042436308)
(3.1513418 0.0082906139 -0.036301659)
(3.119223 0.0054412957 -0.029754897)
(3.0959673 0.0025830712 -0.022799738)
(3.0816283 -0.00021359513 -0.015511144)
(3.0762958 -0.0029329307 -0.0079863017)
(3.0800425 -0.0055560003 -0.00031478731)
(3.0927807 -0.00812673 0.0073393891)
(3.1144499 -0.010703368 0.014970609)
(3.1450522 -0.013175675 0.022460686)
(3.184347 -0.015470337 0.029649092)
(3.2318403 -0.017614615 0.03645261)
(3.2871049 -0.019540865 0.042674605)
(3.3494702 -0.021171244 0.048247477)
(3.4174853 -0.022507101 0.053162215)
(3.4917766 -0.023149294 0.056865208)
(3.568732 -0.024367456 0.060396888)
(3.6353831 -0.029469174 0.065055146)
(3.7482496 -0.020803585 0.045966055)
(3.9095621 -0.0052208906 0.024570315)
(3.9607623 -0.0070808588 0.046924746)
(4.0233667 -0.0074886782 0.059237058)
(4.0922299 -0.0070758354 0.064103883)
(4.1606832 -0.0062430331 0.063815818)
(4.2246185 -0.005185187 0.060037374)
(4.2810105 -0.0039645972 0.053809087)
(4.3274981 -0.0025928143 0.045769273)
(4.3622785 -0.0011128418 0.036354606)
(4.3841804 0.00047525257 0.025869937)
(4.392496 0.0020917968 0.014685654)
(4.386729 0.0035494922 0.0031243102)
(4.36699 0.0047891251 -0.0084410224)
(4.333932 0.0059436258 -0.019665432)
(4.2884609 0.0069933085 -0.030414339)
(4.2319731 0.0078963268 -0.04038185)
(4.1661938 0.0086613901 -0.049306829)
(4.0929364 0.009269156 -0.057121861)
(4.0139618 0.0097054972 -0.063813826)
(3.9309953 0.0099532479 -0.069371816)
(3.8458958 0.0099833224 -0.073828635)
(3.7606552 0.0097678489 -0.077233572)
(3.6769761 0.0094886025 -0.079333535)
(3.5946825 0.0093697215 -0.079549241)
(3.5125361 0.0089735572 -0.078025784)
(3.4341609 0.0081847114 -0.075257049)
(3.361194 0.007192501 -0.07118353)
(3.2949904 0.0060624672 -0.065970723)
(3.2364279 0.0048852545 -0.059752938)
(3.1861261 0.0037446877 -0.05273767)
(3.1444625 0.0025887412 -0.045077083)
(3.1117261 0.0013870815 -0.036881591)
(3.0881069 0.00021840966 -0.028209317)
(3.0735851 -0.00087215646 -0.019143916)
(3.0682212 -0.0018950679 -0.0097459605)
(3.0720762 -0.0028712569 -0.00011623351)
(3.0850653 -0.0036971684 0.0094490805)
(3.1071106 -0.0045972003 0.018824188)
(3.1381903 -0.0054154161 0.027996785)
(3.1780486 -0.0061689011 0.036806961)
(3.2262641 -0.0069812496 0.04511644)
(3.2824614 -0.0078392625 0.052784205)
(3.3458573 -0.0086826166 0.059663822)
(3.4149311 -0.0096277291 0.065718714)
(3.489962 -0.010539597 0.0700678)
(3.5667749 -0.012155611 0.0740462)
(3.6353021 -0.016342678 0.079676917)
(3.7517241 -0.01233243 0.056324059)
(3.9031856 -5.4590131e-06 0.031106785)
(3.9576299 1.7526555e-05 0.060218357)
(4.0224627 3.6538701e-05 0.075202653)
(4.0928359 3.0644301e-05 0.080296257)
(4.1623015 1.0841865e-05 0.079198888)
(4.2269464 -2.3665557e-05 0.07402538)
(4.2838672 -5.1206276e-05 0.065992984)
(4.3307597 -4.7302431e-05 0.055830563)
(4.3658686 2.3404388e-06 0.044076101)
(4.3880251 9.3338701e-05 0.031108297)
(4.3964611 0.00018930403 0.01734454)
(4.3906841 0.00019526016 0.0032681625)
(4.3708269 0.00011215336 -0.010910353)
(4.3375881 1.6327811e-05 -0.024746841)
(4.2919322 -3.3694386e-05 -0.038013119)
(4.235234 -4.8371648e-05 -0.050387378)
(4.1691595 -3.9220493e-06 -0.061514499)
(4.0954965 5.2546406e-05 -0.071222175)
(4.0160797 0.00010331791 -0.079477732)
(3.9326977 0.00015978743 -0.086303068)
(3.8472191 0.0002098973 -0.091693924)
(3.7616088 0.00022442396 -0.095697014)
(3.6775693 0.00023294732 -0.098198914)
(3.5950828 0.00022087561 -0.098759082)
(3.5124878 0.00012245088 -0.097277981)
(3.4336942 3.0394693e-06 -0.094074271)
(3.3604024 -0.00012381938 -0.089163169)
(3.2939027 -0.00026318412 -0.082747088)
(3.2351572 -0.00036907281 -0.075037517)
(3.18473 -0.0004160897 -0.066269237)
(3.1429719 -0.00044715512 -0.056595359)
(3.1102293 -0.00050702698 -0.046179996)
(3.086689 -0.00056172677 -0.035175658)
(3.0723102 -0.00057042009 -0.02371312)
(3.0670826 -0.0005211844 -0.011876323)
(3.0710334 -0.00042817003 0.00017123725)
(3.0841637 -0.00036618977 0.012228817)
(3.1063232 -0.00028236788 0.02415396)
(3.137453 -0.00019764511 0.035942043)
(3.1774273 -0.00013049403 0.047231232)
(3.2258224 -0.00015041038 0.057804376)
(3.2822409 -0.00022000573 0.06744949)
(3.3458092 -0.00029360044 0.075918459)
(3.414958 -0.00044641172 0.082908713)
(3.4895322 -0.00069439621 0.087017987)
(3.5642373 -0.00094336461 0.090124996)
(3.6314643 -0.00099122671 0.095608832)
(3.7435352 -0.00094379328 0.068947341)
(3.9077236 -0.026068672 -0.0050137393)
(3.9567955 -0.0437775 -0.0077139862)
(4.0183858 -0.051276956 -0.0088329839)
(4.0860797 -0.051573313 -0.0089779784)
(4.154252 -0.047439432 -0.0086709358)
(4.2186348 -0.0405917 -0.008103385)
(4.2758555 -0.031901309 -0.0073405141)
(4.3233979 -0.021928045 -0.0063773177)
(4.3593723 -0.011041511 -0.0052694874)
(4.3824778 0.00039010582 -0.0040715655)
(4.3918562 0.011973743 -0.0027996885)
(4.3871592 0.023211813 -0.0013549611)
(4.3686645 0.033789038 0.00014053742)
(4.3370033 0.043592096 0.0016536648)
(4.2930761 0.052563801 0.0031460098)
(4.2380525 0.060513777 0.0044951848)
(4.1734525 0.067194751 0.0056779484)
(4.1010205 0.072529997 0.0067367191)
(4.0224815 0.07652796 0.0076676738)
(3.93943 0.079193492 0.0084858681)
(3.8532927 0.080401035 0.0092862557)
(3.7649525 0.080119323 0.010109677)
(3.6745116 0.078777855 0.01039994)
(3.5859972 0.076517964 0.010095923)
(3.5018535 0.072809286 0.0096807648)
(3.4230553 0.067740164 0.0092141645)
(3.3505811 0.061528744 0.0086521639)
(3.2852038 0.054398086 0.0080161134)
(3.2275635 0.046463412 0.0072748722)
(3.1781588 0.03799476 0.0064668058)
(3.1373656 0.029138941 0.0055976571)
(3.1054511 0.020044877 0.0047366488)
(3.0827164 0.010740497 0.0038577252)
(3.0691356 0.0012782988 0.0028635297)
(3.0647535 -0.0081799757 0.0017209495)
(3.0696882 -0.017586275 0.000633609)
(3.083898 -0.026770745 -0.00040982553)
(3.1073161 -0.035603728 -0.0014581235)
(3.1397185 -0.043981029 -0.0025037529)
(3.1808321 -0.051740342 -0.0035013451)
(3.2303083 -0.058738259 -0.0044173262)
(3.2878053 -0.064738641 -0.0052763315)
(3.3520798 -0.069451138 -0.0061382831)
(3.420979 -0.07245923 -0.0069762297)
(3.4946293 -0.072609371 -0.0074815868)
(3.5701641 -0.071996872 -0.0079830614)
(3.6343661 -0.073154417 -0.012606218)
(3.7349122 -0.053152845 -0.010915779)
(3.9122483 -0.02211715 0.0001085266)
(3.9585581 -0.035550412 0.00021740554)
(4.0178294 -0.041608522 0.00026886141)
(4.0842078 -0.041971751 0.00026858448)
(4.1515501 -0.0386233 0.00023375195)
(4.2153617 -0.032958786 0.0001720633)
(4.2720953 -0.02577204 0.00011514177)
(4.3192072 -0.01753505 6.797989e-05)
(4.3548383 -0.0085505959 -3.3732477e-05)
(4.377701 0.0008624433 -0.00019766338)
(4.3869725 0.01049203 -0.00034872171)
(4.3823459 0.019691466 -0.00038416052)
(4.3640566 0.028352462 -0.00032392879)
(4.3327185 0.036389586 -0.0002029897)
(4.2891951 0.043736416 -9.7330094e-05)
(4.2346076 0.05024201 -7.4813644e-05)
(4.1704911 0.055687659 -0.00010728014)
(4.0985826 0.060011592 -0.00012563312)
(4.0205985 0.063232856 -0.00012092506)
(3.9381138 0.065335678 -9.4453947e-05)
(3.8524718 0.066138527 -5.0569189e-05)
(3.7644853 0.065542404 4.4188283e-06)
(3.6742938 0.064241526 4.5709168e-06)
(3.5860575 0.06254453 -3.1662317e-05)
(3.5021505 0.059709044 -2.7097711e-05)
(3.4234924 0.055653491 -1.4847388e-05)
(3.3510721 0.05061276 -2.8053891e-05)
(3.2856616 0.044789437 -6.2786844e-05)
(3.2279324 0.03824643 -0.00013133603)
(3.1784633 0.031204589 -0.00021823441)
(3.1376453 0.023902513 -0.00028586719)
(3.1056255 0.016438506 -0.00028500989)
(3.0826691 0.0087721941 -0.00024234896)
(3.0688471 0.00099159031 -0.00023305214)
(3.0642496 -0.0068985299 -0.00028299958)
(3.0690262 -0.014640699 -0.00026879063)
(3.0831363 -0.022197879 -0.00017734874)
(3.1064433 -0.029483999 -7.4972597e-05)
(3.1387679 -0.036392956 3.0413256e-05)
(3.1798359 -0.042771799 0.00019250874)
(3.2292751 -0.048530208 0.00044717609)
(3.2867873 -0.053524549 0.00069425133)
(3.3512246 -0.057559606 0.00083679764)
(3.4204233 -0.060382814 0.00091764326)
(3.4947665 -0.060892132 0.00090166814)
(3.5720752 -0.060051902 0.00082676739)
(3.6371093 -0.06072687 0.00099016535)
(3.7416495 -0.041663878 0.00077571907)
(3.9181782 -0.016890276 0.0050774452)
(3.9630414 -0.028042532 0.007829555)
(4.0213537 -0.032945648 0.0096094962)
(4.0874507 -0.033250855 0.010350828)
(4.1546888 -0.030542692 0.010318973)
(4.218398 -0.025985463 0.0096702908)
(4.2749761 -0.020243566 0.0086182734)
(4.3219096 -0.013685784 0.0073006452)
(4.3573808 -0.0065538535 0.0057273385)
(4.3800953 0.00091396642 0.0039386735)
(4.3892601 0.0085316186 0.0020973444)
(4.3845614 0.015744349 0.00026809225)
(4.3661553 0.022579475 -0.0014234734)
(4.334623 0.028966737 -0.0030026901)
(4.2908039 0.034801113 -0.0045998685)
(4.2358295 0.039965169 -0.0061901078)
(4.1712932 0.044276662 -0.0076873288)
(4.0989859 0.047684145 -0.0090044475)
(4.0206389 0.050214717 -0.010107125)
(3.937856 0.051822969 -0.011014935)
(3.8520198 0.052310939 -0.011840244)
(3.7642582 0.051561003 -0.012655575)
(3.6753271 0.050336586 -0.013114963)
(3.5882353 0.049080819 -0.013021407)
(3.5054223 0.047015891 -0.012660276)
(3.427747 0.043901114 -0.012140758)
(3.3561729 0.039960494 -0.011466309)
(3.2914588 0.035372776 -0.010659989)
(3.2342982 0.030187484 -0.009723296)
(3.1853522 0.024579069 -0.0086839479)
(3.1449851 0.01880917 -0.0074996723)
(3.1132232 0.012933747 -0.0061565232)
(3.0903348 0.006861742 -0.0047169976)
(3.076493 0.00073073576 -0.0032530898)
(3.0717849 -0.0054432802 -0.0018029821)
(3.0763449 -0.011489494 -0.00025627151)
(3.0901249 -0.017415156 0.0013806309)
(3.1129338 -0.023152171 0.0030149118)
(3.1446209 -0.028591873 0.0046222525)
(3.1849295 -0.033613271 0.0062420357)
(3.2334074 -0.038136987 0.0078796147)
(3.2897338 -0.042089019 0.00936299)
(3.3529458 -0.045377787 0.010563329)
(3.4210869 -0.047830458 0.011526907)
(3.4949366 -0.048467852 0.012090434)
(3.5728346 -0.047885956 0.01252658)
(3.6370524 -0.048987089 0.013789277)
(3.7421805 -0.03348124 0.0094481873)
(3.922239 -0.012867994 0.0086358209)
(3.9669203 -0.021116348 0.014950574)
(4.0252949 -0.024653465 0.018805158)
(4.0917089 -0.024781016 0.020421743)
(4.1591346 -0.022655456 0.020432425)
(4.2228527 -0.019204257 0.019274351)
(4.2793455 -0.014925188 0.017300375)
(4.3261554 -0.010039951 0.014754627)
(4.3614846 -0.0047305975 0.011748528)
(4.3840359 0.0008476087 0.0083344654)
(4.3930299 0.0065031912 0.0047634323)
(4.3881216 0.011853967 0.0011046964)
(4.3693979 0.016902552 -0.0024341696)
(4.3374025 0.021616756 -0.0058513223)
(4.2929603 0.025950534 -0.0092255598)
(4.2372613 0.029775397 -0.012479627)
(4.1719945 0.032959096 -0.015467459)
(4.099036 0.035461195 -0.018091983)
(4.0201182 0.037310684 -0.020305762)
(3.9368627 0.038451176 -0.022153404)
(3.8508081 0.038717975 -0.02380766)
(3.7635474 0.038029615 -0.025329185)
(3.6764459 0.037011697 -0.026131626)
(3.5908808 0.036150371 -0.025855821)
(3.5092367 0.034793856 -0.025052589)
(3.4325028 0.032559571 -0.024004958)
(3.3616667 0.029649059 -0.02267036)
(3.297548 0.026218024 -0.021062579)
(3.2408694 0.022340979 -0.019153453)
(3.1923609 0.018172312 -0.01699366)
(3.1523467 0.013875592 -0.014615794)
(3.1207644 0.009481948 -0.012036533)
(3.0979103 0.0049652388 -0.0092762047)
(3.0840172 0.00042490783 -0.0063719752)
(3.0791574 -0.0040992953 -0.0034057735)
(3.0834386 -0.0085323526 -0.00031316536)
(3.0967924 -0.012901092 0.0028548262)
(3.1190365 -0.017165306 0.0059884717)
(3.150037 -0.021199311 0.009063311)
(3.1895322 -0.024914313 0.012090202)
(3.2370223 -0.028280615 0.015015087)
(3.2921239 -0.03124766 0.017634623)
(3.3540984 -0.033754577 0.019837277)
(3.4213066 -0.035689716 0.021687085)
(3.49491 -0.036277729 0.023043451)
(3.5733219 -0.036120093 0.024210085)
(3.6373286 -0.03802546 0.025871829)
(3.7443267 -0.025693109 0.017845653)
(3.923226 -0.0088740789 0.012163062)
(3.9684974 -0.014116777 0.022296082)
(4.0273323 -0.016300301 0.028354391)
(4.0941224 -0.016279581 0.030891602)
(4.1616051 -0.014812306 0.030940213)
(4.2251399 -0.012517357 0.029217773)
(4.2813756 -0.0097199422 0.026265486)
(4.3279129 -0.0065179984 0.022443958)
(4.3629374 -0.0030259266 0.017911097)
(4.3851552 0.00067377457 0.01280899)
(4.3938062 0.0044294144 0.0074269235)
(4.3885294 0.0079488158 0.0018370902)
(4.3694013 0.011204877 -0.003663221)
(4.3369495 0.014228686 -0.0090345435)
(4.2919769 0.017051102 -0.014269572)
(4.2357433 0.019535619 -0.019254375)
(4.1700318 0.021616516 -0.023765641)
(4.0967747 0.023256584 -0.027703954)
(4.0176842 0.02446226 -0.031054693)
(3.934382 0.025199242 -0.033867726)
(3.848575 0.025367992 -0.036298205)
(3.7621523 0.024904793 -0.038382104)
(3.6767986 0.024196143 -0.039500447)
(3.5929135 0.023734047 -0.03911231)
(3.5118808 0.023015848 -0.037883068)
(3.4352902 0.021590647 -0.036310066)
(3.3643059 0.019645466 -0.034284769)
(3.2999731 0.017310743 -0.031827278)
(3.2430872 0.014697971 -0.028900158)
(3.1943853 0.011934401 -0.025566807)
(3.1541646 0.0090583708 -0.021931377)
(3.1223909 0.0060760886 -0.018051428)
(3.0993573 0.0030565714 -0.013895226)
(3.0852635 6.926212e-05 -0.0094966748)
(3.0801938 -0.0028749839 -0.0049769569)
(3.0842088 -0.0057522823 -0.00033594527)
(3.0972115 -0.0085932621 0.0043624605)
(3.1190983 -0.011402848 0.0090124503)
(3.1497824 -0.0140441 0.013555894)
(3.188956 -0.016464147 0.017969783)
(3.2361066 -0.018705855 0.022156505)
(3.2908658 -0.02071873 0.02591417)
(3.3526428 -0.022398251 0.029185669)
(3.4200125 -0.023748242 0.032066561)
(3.4942924 -0.024256646 0.034411471)
(3.5736404 -0.024535996 0.036476084)
(3.6393367 -0.027078727 0.038407037)
(3.7520609 -0.018026939 0.026473268)
(3.9207006 -0.0048612386 0.015904457)
(3.9671067 -0.0072621226 0.029837008)
(4.0265221 -0.0082303203 0.038062378)
(4.0935431 -0.0081152164 0.041491207)
(4.1608916 -0.0073486797 0.041532362)
(4.2241049 -0.0062134853 0.039210061)
(4.2800007 -0.0048422113 0.035254083)
(4.3261955 -0.0032527849 0.030118194)
(4.3608543 -0.0015092577 0.024015606)
(4.3827115 0.00038615775 0.017192479)
(4.3910124 0.0023349556 0.0099538391)
(4.3853739 0.0040872946 0.0023776318)
(4.3659292 0.0056160995 -0.0050915914)
(4.333232 0.0070533735 -0.012414544)
(4.2880673 0.0084137259 -0.019489236)
(4.2317577 0.0096268067 -0.026161918)
(4.1661064 0.01069135 -0.032161824)
(4.0930181 0.011552495 -0.037395447)
(4.0141994 0.012175299 -0.041875459)
(3.9312815 0.012569553 -0.045640756)
(3.8460549 0.012693866 -0.048796046)
(3.7605026 0.012500985 -0.051375079)
(3.6764002 0.012167283 -0.052822003)
(3.5937569 0.01199569 -0.052467462)
(3.5124134 0.011675196 -0.050976704)
(3.4349609 0.010929344 -0.048958037)
(3.3629099 0.0098935961 -0.046249185)
(3.29754 0.008626554 -0.04289828)
(3.2397455 0.0072427472 -0.038904901)
(3.1902079 0.0058400392 -0.034370575)
(3.1492239 0.0043652145 -0.029430166)
(3.1169252 0.0027871039 -0.024171238)
(3.0935767 0.0012281948 -0.018564602)
(3.0792608 -0.00025556935 -0.012650359)
(3.074063 -0.0016763604 -0.0065444668)
(3.0780076 -0.0030564958 -0.00031315438)
(3.0909727 -0.0044173406 0.0059396348)
(3.1129311 -0.0058081112 0.012153214)
(3.1438515 -0.0071298467 0.018212544)
(3.1833531 -0.0083021522 0.02402461)
(3.2309497 -0.0094495229 0.02951084)
(3.286383 -0.010525294 0.034473085)
(3.3490301 -0.011396105 0.038889574)
(3.417481 -0.012117855 0.042864832)
(3.492928 -0.012460505 0.04615)
(3.5731715 -0.012814795 0.049162775)
(3.6419384 -0.014808043 0.051921095)
(3.7620955 -0.0097751103 0.035623141)
(3.9153908 5.3739561e-06 0.020442241)
(3.9636675 3.539551e-05 0.037912154)
(4.0241296 6.150393e-05 0.048113236)
(4.09162 6.3503533e-05 0.052376992)
(4.1590927 5.3371046e-05 0.052364158)
(4.2222774 1.7566048e-05 0.049408634)
(4.2781132 -1.9311694e-05 0.044408365)
(4.3242129 -1.3913284e-05 0.037901485)
(4.3587488 5.442001e-05 0.030207515)
(4.3804959 0.00017507283 0.021593763)
(4.388675 0.00030677473 0.012390975)
(4.3828459 0.00031888306 0.0027814073)
(4.3632064 0.00020783885 -0.0067059651)
(4.330385 7.2862131e-05 -0.015970916)
(4.2851915 -1.2640723e-05 -0.024885176)
(4.2289853 -6.5712953e-05 -0.033194908)
(4.1635199 -3.1155834e-05 -0.040658166)
(4.0906156 3.9631294e-05 -0.047198093)
(4.0120124 9.5191849e-05 -0.052801185)
(3.9293909 0.00015961711 -0.057490916)
(3.8445631 0.00022412949 -0.061335991)
(3.7595155 0.00026023562 -0.064375622)
(3.6759723 0.00027902347 -0.066173859)
(3.5936985 0.00024747313 -0.06606788)
(3.5116327 0.00012208495 -0.064534506)
(3.433187 1.4296748e-05 -0.062143428)
(3.3600954 -8.9836447e-05 -0.05875159)
(3.2937282 -0.0002375913 -0.054455189)
(3.2350706 -0.00034527464 -0.049325031)
(3.1847221 -0.00036318193 -0.043536381)
(3.1430038 -0.00038457665 -0.037225662)
(3.1102259 -0.00047743639 -0.030479947)
(3.0866387 -0.00053663323 -0.023332311)
(3.0722293 -0.00051868343 -0.015840347)
(3.0670518 -0.00042894822 -0.0080813686)
(3.0711037 -0.00029719123 -0.00013767664)
(3.084239 -0.00023704072 0.0077199941)
(3.1064523 -0.00017132826 0.015535149)
(3.1377273 -8.7373356e-05 0.023138327)
(3.177668 -3.5371462e-06 0.030400304)
(3.2258697 -3.3236464e-05 0.037238955)
(3.282121 -0.0001215727 0.043491395)
(3.3456931 -0.00018353343 0.049087947)
(3.4151231 -0.00031729003 0.054112267)
(3.4912304 -0.0005401013 0.058066833)
(3.5711103 -0.00074529243 0.061803344)
(3.6418084 -0.00074385168 0.06617275)
(3.7653562 -0.00068409889 0.045237865)
(3.9096055 0.0052192381 0.024583657)
(3.9607952 0.0071375277 0.046954395)
(4.0233716 0.0075981418 0.059271719)
(4.0922401 0.0071796707 0.06412208)
(4.1606938 0.0063066691 0.063807)
(4.22461 0.0051755855 0.060019101)
(4.2810196 0.0039000333 0.05380873)
(4.32757 0.0025506419 0.045795451)
(4.3624637 0.001194008 0.036402326)
(4.3844964 -0.00018221935 0.025922418)
(4.392849 -0.0015785277 0.01471723)
(4.3870012 -0.0030214673 0.0031340553)
(4.3672143 -0.0044620104 -0.0084364605)
(4.3341883 -0.0058513776 -0.019669291)
(4.2887812 -0.0070370283 -0.030419214)
(4.2323707 -0.0079988011 -0.040380165)
(4.1666377 -0.0086897538 -0.049309687)
(4.0933425 -0.009171395 -0.057121615)
(4.0142866 -0.009496494 -0.063804271)
(3.9312346 -0.0096194812 -0.06935161)
(3.846023 -0.0095379153 -0.073811131)
(3.7606265 -0.0092864574 -0.077242009)
(3.676706 -0.0089929408 -0.079356043)
(3.594058 -0.0089094329 -0.079557407)
(3.5118212 -0.0087225644 -0.077998801)
(3.4333405 -0.0081554315 -0.075222256)
(3.3603136 -0.0073939124 -0.071153396)
(3.2940302 -0.0065493658 -0.065925047)
(3.2354682 -0.0055820044 -0.059697376)
(3.1851269 -0.0045138136 -0.052688869)
(3.1433848 -0.0034165509 -0.045010518)
(3.1106113 -0.0023556152 -0.036774313)
(3.08708 -0.0012913246 -0.028094523)
(3.0727442 -0.00019310008 -0.019050449)
(3.0675984 0.00096429059 -0.0096909918)
(3.0717074 0.0021363896 -9.8848831e-05)
(3.0848813 0.0030985678 0.0094346711)
(3.1070316 0.0041344439 0.018805012)
(3.1382421 0.0051163542 0.027965711)
(3.1781558 0.0060153315 0.036753815)
(3.226386 0.0067871544 0.04504887)
(3.2826552 0.0074874433 0.05269698)
(3.3461202 0.0081803129 0.059535178)
(3.4152397 0.0088365656 0.065514264)
(3.4903271 0.0092858769 0.069786238)
(3.5671694 0.010468614 0.073649867)
(3.6355739 0.014624543 0.079111954)
(3.7516524 0.010737692 0.055648631)
(3.91314 -0.021182599 -0.0087272811)
(3.9607064 -0.035226809 -0.014706091)
(4.0213166 -0.041150352 -0.017973321)
(4.0887323 -0.041381622 -0.01918899)