/*--------------------------------*- C++ -*----------------------------------*\
| =========                 |                                                 |
| \\      /  F ield         | foam-extend: Open Source CFD                    |
|  \\    /   O peration     | Version:     4.1-20200408                       |
|   \\  /    A nd           | Web:         http://www.foam-extend.org         |
|    \\/     M anipulation  |                                                 |
\*---------------------------------------------------------------------------*/
FoamFile
{
    version     2.0;
    format      ascii;
    class       volScalarField;
    location    "0.0815000";
    object      rho_0;
}
// * * * * * * * * * * * * * * * * * * * * * * * * * * * * * * * * * * * * * //

dimensions      [1 -3 0 0 0 0 0];

internalField   nonuniform List<scalar> 
1952
(
7862.19
7860.99
7859.42
7857.51
7855.17
7852.5
7849.38
7845.92
7842.15
7837.32
7831.82
7824.47
7816.53
7808.06
7802.58
7862.74
7862
7860.8
7859.23
7857.33
7854.98
7852.33
7849.2
7845.75
7841.99
7837.16
7831.68
7824.35
7816.44
7808.02
7802.62
7862.55
7861.85
7860.65
7859.08
7857.18
7854.83
7852.18
7849.06
7845.62
7841.86
7837.05
7831.58
7824.27
7816.37
7807.98
7802.61
7862.39
7861.71
7860.51
7858.94
7857.04
7854.7
7852.05
7848.94
7845.51
7841.75
7836.95
7831.49
7824.2
7816.32
7807.96
7802.62
7862.25
7861.59
7860.39
7858.82
7856.93
7854.59
7851.94
7848.83
7845.41
7841.66
7836.87
7831.42
7824.15
7816.29
7807.94
7802.62
7862.13
7861.48
7860.28
7858.72
7856.82
7854.49
7851.85
7848.75
7845.33
7841.59
7836.81
7831.36
7824.1
7816.25
7807.93
7802.63
7862.03
7861.39
7860.19
7858.63
7856.74
7854.4
7851.76
7848.67
7845.26
7841.52
7836.75
7831.31
7824.06
7816.23
7807.91
7802.63
7861.93
7861.31
7860.11
7858.55
7856.66
7854.33
7851.69
7848.6
7845.2
7841.47
7836.7
7831.27
7824.03
7816.2
7807.9
7802.62
7861.85
7861.24
7860.04
7858.48
7856.59
7854.26
7851.63
7848.54
7845.14
7841.42
7836.66
7831.23
7823.99
7816.17
7807.88
7802.61
7861.78
7861.17
7859.98
7858.42
7856.54
7854.2
7851.57
7848.49
7845.09
7841.37
7836.61
7831.19
7823.96
7816.14
7807.86
7802.6
7861.72
7861.12
7859.93
7858.37
7856.48
7854.15
7851.52
7848.44
7845.05
7841.33
7836.57
7831.15
7823.93
7816.11
7807.83
7802.58
7861.67
7861.07
7859.88
7858.32
7856.44
7854.11
7851.48
7848.4
7845.01
7841.29
7836.54
7831.12
7823.9
7816.08
7807.81
7802.56
7861.62
7861.03
7859.83
7858.28
7856.39
7854.06
7851.43
7848.36
7844.97
7841.26
7836.5
7831.08
7823.86
7816.04
7807.78
7802.53
7861.57
7860.99
7859.79
7858.24
7856.35
7854.02
7851.39
7848.32
7844.93
7841.22
7836.46
7831.04
7823.83
7816.01
7807.75
7802.5
7861.53
7860.95
7859.76
7858.2
7856.32
7853.99
7851.35
7848.28
7844.89
7841.18
7836.42
7831
7823.79
7815.97
7807.71
7802.47
7861.5
7860.92
7859.72
7858.17
7856.28
7853.95
7851.31
7848.24
7844.85
7841.14
7836.38
7830.96
7823.76
7815.93
7807.68
7802.43
7861.46
7860.89
7859.69
7858.14
7856.25
7853.92
7851.28
7848.21
7844.82
7841.1
7836.34
7830.92
7823.71
7815.88
7807.64
7802.39
7861.43
7860.86
7859.66
7858.11
7856.22
7853.88
7851.24
7848.17
7844.78
7841.06
7836.3
7830.88
7823.67
7815.83
7807.59
7802.34
7861.4
7860.83
7859.64
7858.08
7856.19
7853.85
7851.21
7848.14
7844.74
7841.02
7836.26
7830.83
7823.63
7815.79
7807.54
7802.3
7861.38
7860.81
7859.61
7858.06
7856.16
7853.82
7851.18
7848.1
7844.71
7840.98
7836.21
7830.79
7823.58
7815.73
7807.49
7802.24
7861.35
7860.79
7859.59
7858.03
7856.14
7853.79
7851.15
7848.07
7844.67
7840.94
7836.17
7830.74
7823.53
7815.68
7807.44
7802.19
7861.34
7860.77
7859.58
7858.02
7856.11
7853.77
7851.12
7848.04
7844.64
7840.9
7836.12
7830.69
7823.48
7815.62
7807.38
7802.13
7861.32
7860.76
7859.57
7858
7856.1
7853.75
7851.09
7848.01
7844.6
7840.86
7836.08
7830.64
7823.43
7815.55
7807.32
7802.06
7861.31
7860.76
7859.56
7857.99
7856.09
7853.73
7851.07
7847.98
7844.57
7840.82
7836.03
7830.59
7823.37
7815.49
7807.25
7801.99
7861.31
7860.76
7859.56
7857.99
7856.08
7853.72
7851.06
7847.96
7844.55
7840.78
7835.99
7830.54
7823.31
7815.42
7807.18
7801.91
7861.31
7860.77
7859.57
7858
7856.08
7853.72
7851.05
7847.94
7844.52
7840.75
7835.95
7830.48
7823.25
7815.35
7807.11
7801.82
7861.33
7860.8
7859.6
7858.02
7856.1
7853.72
7851.04
7847.93
7844.51
7840.72
7835.91
7830.43
7823.19
7815.27
7807.02
7801.73
7861.35
7860.84
7859.63
7858.05
7856.13
7853.74
7851.06
7847.93
7844.5
7840.7
7835.87
7830.38
7823.13
7815.19
7806.94
7801.63
7861.39
7860.9
7859.69
7858.1
7856.17
7853.77
7851.08
7847.94
7844.5
7840.68
7835.85
7830.33
7823.07
7815.11
7806.85
7801.52
7861.45
7860.98
7859.77
7858.17
7856.23
7853.83
7851.12
7847.97
7844.52
7840.68
7835.83
7830.29
7823.02
7815.02
7806.75
7801.4
7861.53
7861.08
7859.87
7858.27
7856.32
7853.9
7851.19
7848.02
7844.55
7840.69
7835.82
7830.26
7822.97
7814.94
7806.65
7801.27
7861.64
7861.22
7860
7858.39
7856.44
7854.01
7851.28
7848.1
7844.61
7840.73
7835.83
7830.24
7822.92
7814.86
7806.55
7801.14
7861.78
7861.39
7860.17
7858.55
7856.59
7854.15
7851.4
7848.2
7844.7
7840.78
7835.86
7830.24
7822.9
7814.79
7806.45
7800.99
7861.95
7861.6
7860.38
7858.75
7856.79
7854.32
7851.57
7848.34
7844.82
7840.87
7835.93
7830.27
7822.89
7814.73
7806.35
7800.85
7862.17
7861.86
7860.64
7859
7857.03
7854.55
7851.78
7848.53
7844.99
7841.01
7836.03
7830.32
7822.9
7814.69
7806.27
7800.69
7862.43
7862.17
7860.95
7859.3
7857.32
7854.83
7852.04
7848.77
7845.21
7841.19
7836.18
7830.42
7822.96
7814.67
7806.2
7800.55
7862.74
7862.54
7861.33
7859.67
7857.68
7855.18
7852.38
7849.09
7845.49
7841.44
7836.39
7830.57
7823.06
7814.69
7806.16
7800.41
7863.11
7862.97
7861.76
7860.1
7858.11
7855.59
7852.78
7849.47
7845.86
7841.77
7836.68
7830.8
7823.23
7814.76
7806.16
7800.28
7863.55
7863.47
7862.27
7860.6
7858.62
7856.09
7853.27
7849.95
7846.32
7842.2
7837.07
7831.12
7823.49
7814.91
7806.22
7800.19
7864.04
7864.03
7862.84
7861.17
7859.2
7856.68
7853.86
7850.54
7846.9
7842.74
7837.58
7831.57
7823.87
7815.16
7806.37
7800.15
7864.61
7864.65
7863.48
7861.82
7859.86
7857.36
7854.55
7851.24
7847.6
7843.43
7838.24
7832.17
7824.41
7815.56
7806.64
7800.19
7865.22
7865.32
7864.17
7862.53
7860.6
7858.13
7855.35
7852.07
7848.45
7844.3
7839.1
7832.98
7825.16
7816.16
7807.09
7800.34
7865.89
7866.03
7864.91
7863.3
7861.41
7858.98
7856.26
7853.04
7849.46
7845.36
7840.17
7834.05
7826.19
7817.03
7807.79
7800.63
7866.59
7866.74
7865.66
7864.09
7862.27
7859.91
7857.26
7854.14
7850.65
7846.64
7841.52
7835.45
7827.6
7818.33
7808.91
7801.21
7867.29
7867.42
7866.39
7864.88
7863.14
7860.88
7858.34
7855.37
7852
7848.16
7843.18
7837.25
7829.51
7820.25
7810.81
7802.62
7867.96
7868.01
7867.05
7865.61
7863.97
7861.85
7859.46
7856.68
7853.5
7849.92
7845.16
7839.53
7832.08
7823.13
7814.14
7806.32
7868.53
7868.46
7867.56
7866.21
7864.71
7862.75
7860.54
7858.02
7855.08
7851.84
7847.39
7842.2
7835.18
7826.76
7818.5
7811.49
7868.96
7868.66
7867.86
7866.61
7865.26
7863.5
7861.52
7859.29
7856.66
7853.84
7849.78
7845.15
7838.62
7830.86
7823.35
7816.97
7869.14
7868.54
7867.82
7866.7
7865.53
7863.99
7862.27
7860.4
7858.12
7855.8
7852.19
7848.23
7842.27
7835.31
7828.55
7822.63
7868.99
7867.97
7867.36
7866.37
7865.39
7864.1
7862.68
7861.19
7859.32
7857.56
7854.47
7851.33
7845.97
7840.06
7833.93
7828.44
7868.39
7866.82
7866.32
7865.48
7864.71
7863.69
7862.58
7861.51
7860.09
7858.94
7856.46
7854.26
7849.62
7845.12
7839.51
7834.55
7867.21
7864.97
7864.59
7863.89
7863.34
7862.59
7861.83
7861.19
7860.26
7859.76
7857.96
7856.76
7853.03
7850.2
7845.35
7841.18
7865.33
7862.28
7862.02
7861.48
7861.15
7860.68
7860.26
7860.01
7859.49
7859.53
7858.43
7858.39
7855.99
7854.91
7851.14
7848.56
7862.6
7858.63
7858.47
7858.03
7857.86
7857.6
7857.5
7857.72
7857.76
7858.48
7858.21
7859.32
7858.21
7858.89
7856.44
7856.52
7858.92
7853.64
7853.64
7853.42
7853.55
7853.68
7854.11
7854.96
7855.76
7857.3
7857.92
7860.04
7860.04
7862.57
7861.52
7864.69
7853.89
7847.9
7848.24
7848.47
7849.16
7849.96
7851.06
7852.57
7854.09
7856.41
7857.93
7861
7861.98
7865.99
7866.19
7872.13
7848.01
7842.87
7843.56
7844.27
7845.52
7846.95
7848.72
7850.86
7853.01
7855.93
7858.15
7861.95
7863.78
7868.93
7870.2
7878.26
7842.82
7839.14
7840.09
7841.18
7842.84
7844.73
7846.98
7849.59
7852.26
7855.63
7858.44
7862.77
7865.33
7871.28
7873.46
7882.99
7838.93
7836.65
7837.74
7839.07
7841
7843.19
7845.8
7848.74
7851.81
7855.49
7858.77
7863.43
7866.58
7872.99
7875.89
7886.31
7836.32
7835.33
7836.47
7837.94
7840
7842.38
7845.2
7848.32
7851.67
7855.51
7859.14
7863.94
7867.51
7874.07
7877.5
7888.21
7834.91
7835.05
7836.19
7837.72
7839.84
7842.27
7845.19
7848.37
7851.87
7855.74
7859.56
7864.31
7868.16
7874.57
7878.33
7888.77
7834.57
7835.72
7836.83
7838.36
7840.46
7842.87
7845.78
7848.91
7852.43
7856.18
7860.07
7864.59
7868.55
7874.52
7878.39
7888.05
7835.22
7837.27
7838.32
7839.79
7841.81
7844.11
7846.93
7849.91
7853.34
7856.86
7860.67
7864.8
7868.7
7873.97
7877.72
7886.11
7836.79
7839.67
7840.63
7841.98
7843.84
7845.96
7848.6
7851.33
7854.57
7857.76
7861.37
7864.98
7868.65
7872.98
7876.38
7883.07
7839.24
7842.87
7843.69
7844.86
7846.5
7848.36
7850.73
7853.15
7856.1
7858.88
7862.16
7865.14
7868.41
7871.6
7874.4
7879.06
7842.5
7846.78
7847.45
7848.39
7849.75
7851.28
7853.32
7855.33
7857.91
7860.2
7863.06
7865.3
7867.99
7869.87
7871.88
7874.28
7846.5
7851.27
7851.79
7852.48
7853.55
7854.72
7856.37
7857.93
7860.05
7861.76
7864.09
7865.49
7867.43
7867.83
7868.86
7868.95
7851.07
7856.15
7856.54
7857.03
7857.85
7858.68
7859.93
7861.01
7862.61
7863.68
7865.34
7865.8
7866.78
7865.57
7865.47
7863.33
7856
7861.18
7861.52
7861.88
7862.51
7863.08
7863.99
7864.63
7865.7
7866.09
7866.98
7866.35
7866.15
7863.21
7861.85
7857.73
7861.06
7866.17
7866.49
7866.79
7867.31
7867.71
7868.37
7868.67
7869.29
7869.06
7869.12
7867.31
7865.72
7860.95
7858.29
7852.45
7866.05
7870.89
7871.21
7871.49
7871.96
7872.27
7872.8
7872.92
7873.32
7872.67
7871.98
7868.92
7865.73
7859.19
7855.21
7847.9
7870.77
7875.64
7875.98
7876.28
7876.78
7877.11
7877.6
7877.61
7877.65
7876.29
7874.56
7870.26
7865.93
7858.15
7853.05
7844.57
7875.51
7880.03
7880.22
7880.31
7880.5
7880.41
7880.26
7879.42
7878.3
7875.9
7873.28
7868.63
7864.15
7856.65
7851.64
7842.67
7879.96
7880.45
7880.27
7879.86
7879.33
7878.44
7877.35
7875.59
7873.59
7870.77
7867.97
7863.87
7860.07
7854.03
7850
7841.98
7880.52
7876.29
7875.95
7875.35
7874.54
7873.37
7871.99
7870.12
7868.18
7865.61
7863
7859.32
7855.95
7851.2
7847.8
7841.81
7876.42
7871.51
7871.17
7870.61
7869.85
7868.78
7867.52
7865.82
7863.96
7861.53
7859.07
7855.81
7852.77
7848.71
7845.38
7841.05
7871.63
7867.52
7867.15
7866.57
7865.77
7864.71
7863.45
7861.83
7860.09
7857.88
7855.63
7852.76
7850.03
7846.58
7843.52
7839.83
7867.66
7863.74
7863.37
7862.83
7862.07
7861.08
7859.91
7858.43
7856.82
7854.82
7852.77
7850.24
7847.81
7844.82
7842.12
7838.81
7863.87
7860.41
7860.04
7859.53
7858.8
7857.88
7856.78
7855.43
7853.95
7852.16
7850.32
7848.1
7845.96
7843.39
7841.04
7838.22
7860.53
7857.39
7857.04
7856.57
7855.89
7855.05
7854.04
7852.82
7851.48
7849.89
7848.25
7846.31
7844.44
7842.22
7840.2
7837.78
7857.51
7854.71
7854.38
7853.95
7853.32
7852.56
7851.64
7850.55
7849.35
7847.94
7846.49
7844.81
7843.17
7841.27
7839.54
7837.48
7854.82
7852.33
7852.02
7851.63
7851.06
7850.37
7849.54
7848.57
7847.51
7846.27
7845
7843.53
7842.12
7840.49
7839.01
7837.27
7852.42
7850.21
7849.93
7849.58
7849.06
7848.45
7847.71
7846.86
7845.91
7844.83
7843.72
7842.45
7841.23
7839.84
7838.59
7837.11
7850.3
7848.34
7848.08
7847.77
7847.31
7846.77
7846.11
7845.36
7844.53
7843.59
7842.62
7841.53
7840.48
7839.3
7838.24
7836.99
7848.42
7846.69
7846.45
7846.18
7845.77
7845.29
7844.71
7844.05
7843.33
7842.51
7841.67
7840.74
7839.84
7838.84
7837.94
7836.89
7846.75
7845.23
7845.01
7844.78
7844.41
7844
7843.48
7842.91
7842.28
7841.57
7840.85
7840.05
7839.29
7838.44
7837.68
7836.8
7845.29
7843.94
7843.75
7843.54
7843.22
7842.86
7842.41
7841.91
7841.36
7840.76
7840.14
7839.45
7838.8
7838.09
7837.45
7836.7
7843.99
7842.8
7842.63
7842.45
7842.16
7841.85
7841.46
7841.03
7840.56
7840.04
7839.51
7838.93
7838.37
7837.77
7837.23
7836.6
7842.84
7841.79
7841.64
7841.48
7841.24
7840.97
7840.63
7840.26
7839.85
7839.4
7838.95
7838.46
7837.99
7837.48
7837.02
7836.49
7841.83
7840.9
7840.76
7840.63
7840.41
7840.18
7839.89
7839.57
7839.22
7838.84
7838.45
7838.03
7837.64
7837.21
7836.82
7836.37
7840.93
7840.1
7839.99
7839.87
7839.68
7839.48
7839.23
7838.96
7838.66
7838.33
7838
7837.65
7837.31
7836.95
7836.62
7836.23
7840.13
7839.4
7839.29
7839.2
7839.03
7838.86
7838.64
7838.41
7838.15
7837.87
7837.59
7837.29
7837.01
7836.7
7836.43
7836.09
7839.42
7838.76
7838.68
7838.59
7838.45
7838.3
7838.11
7837.91
7837.69
7837.46
7837.22
7836.96
7836.72
7836.46
7836.23
7835.94
7838.79
7838.2
7838.12
7838.05
7837.92
7837.8
7837.64
7837.47
7837.28
7837.08
7836.87
7836.66
7836.45
7836.23
7836.03
7835.78
7838.22
7837.69
7837.62
7837.56
7837.45
7837.34
7837.2
7837.06
7836.9
7836.72
7836.55
7836.37
7836.19
7836.01
7835.83
7835.61
7837.7
7837.23
7837.17
7837.11
7837.02
7836.93
7836.81
7836.68
7836.54
7836.4
7836.25
7836.09
7835.94
7835.78
7835.63
7835.43
7837.24
7836.81
7836.75
7836.71
7836.63
7836.55
7836.45
7836.34
7836.22
7836.09
7835.97
7835.83
7835.71
7835.57
7835.43
7835.25
7836.82
7836.42
7836.38
7836.34
7836.27
7836.2
7836.11
7836.02
7835.92
7835.81
7835.7
7835.58
7835.47
7835.35
7835.24
7835.07
7836.43
7836.07
7836.03
7836
7835.94
7835.88
7835.8
7835.72
7835.63
7835.54
7835.44
7835.34
7835.25
7835.14
7835.04
7834.89
7836.08
7835.75
7835.71
7835.69
7835.63
7835.58
7835.51
7835.44
7835.37
7835.29
7835.2
7835.11
7835.03
7834.94
7834.84
7834.7
7835.76
7835.45
7835.42
7835.39
7835.35
7835.3
7835.24
7835.18
7835.12
7835.04
7834.97
7834.89
7834.82
7834.74
7834.65
7834.52
7835.46
7835.17
7835.15
7835.13
7835.08
7835.04
7834.99
7834.94
7834.88
7834.81
7834.75
7834.68
7834.61
7834.54
7834.46
7834.33
7835.18
7834.92
7834.89
7834.87
7834.84
7834.8
7834.76
7834.71
7834.65
7834.6
7834.54
7834.47
7834.41
7834.35
7834.27
7834.15
7834.92
7834.68
7834.66
7834.64
7834.61
7834.57
7834.53
7834.49
7834.44
7834.39
7834.33
7834.28
7834.22
7834.16
7834.08
7833.97
7834.68
7834.46
7834.44
7834.42
7834.39
7834.36
7834.32
7834.28
7834.24
7834.19
7834.14
7834.08
7834.03
7833.97
7833.9
7833.79
7834.46
7834.25
7834.23
7834.21
7834.19
7834.16
7834.12
7834.09
7834.04
7834
7833.95
7833.9
7833.85
7833.79
7833.72
7833.61
7834.25
7834.05
7834.04
7834.02
7834
7833.97
7833.94
7833.9
7833.86
7833.82
7833.77
7833.72
7833.67
7833.62
7833.55
7833.43
7834.06
7833.87
7833.86
7833.84
7833.82
7833.79
7833.76
7833.73
7833.69
7833.65
7833.6
7833.55
7833.5
7833.45
7833.37
7833.26
7833.88
7833.71
7833.69
7833.68
7833.65
7833.63
7833.6
7833.56
7833.53
7833.48
7833.44
7833.39
7833.34
7833.28
7833.21
7833.09
7833.71
7833.55
7833.54
7833.52
7833.5
7833.48
7833.45
7833.41
7833.37
7833.33
7833.29
7833.24
7833.18
7833.12
7833.05
7832.93
7833.55
7833.41
7833.39
7833.38
7833.36
7833.33
7833.3
7833.27
7833.23
7833.19
7833.14
7833.09
7833.04
7832.97
7832.89
7832.77
7833.41
7833.27
7833.26
7833.25
7833.23
7833.2
7833.17
7833.14
7833.1
7833.06
7833.01
7832.95
7832.9
7832.83
7832.75
7832.62
7833.28
7833.15
7833.14
7833.13
7833.11
7833.08
7833.05
7833.02
7832.98
7832.93
7832.88
7832.83
7832.77
7832.7
7832.61
7832.47
7833.16
7833.04
7833.03
7833.02
7833
7832.97
7832.94
7832.91
7832.87
7832.82
7832.77
7832.71
7832.65
7832.57
7832.47
7832.33
7833.05
7832.95
7832.94
7832.92
7832.9
7832.88
7832.85
7832.81
7832.77
7832.73
7832.67
7832.61
7832.54
7832.46
7832.35
7832.2
7832.95
7832.86
7832.85
7832.84
7832.82
7832.79
7832.77
7832.73
7832.69
7832.64
7832.59
7832.53
7832.45
7832.36
7832.25
7832.08
7832.86
7832.79
7832.78
7832.76
7832.74
7832.72
7832.69
7832.66
7832.62
7832.57
7832.52
7832.46
7832.38
7832.28
7832.16
7831.97
7832.79
7832.72
7832.71
7832.7
7832.68
7832.66
7832.63
7832.6
7832.57
7832.52
7832.47
7832.4
7832.33
7832.23
7832.09
7831.88
7832.72
7832.67
7832.66
7832.65
7832.63
7832.61
7832.59
7832.56
7832.52
7832.48
7832.43
7832.37
7832.3
7832.21
7832.07
7831.85
7832.67
7832.61
7832.61
7832.6
7832.59
7832.57
7832.55
7832.52
7832.49
7832.46
7832.42
7832.37
7832.31
7832.24
7832.13
7831.97
7832.62
7832.59
7832.59
7832.58
7832.57
7832.55
7832.53
7832.51
7832.48
7832.45
7832.42
7832.37
7832.33
7832.27
7832.21
7832.09
7832.59
7832.59
7832.59
7832.58
7832.57
7832.55
7832.53
7832.51
7832.48
7832.45
7832.42
7832.37
7832.33
7832.27
7832.21
7832.09
7832.59
)
;

boundaryField
{
    wireUpstream
    {
        type            calculated;
        value           nonuniform List<scalar> 
16
(
7832.57
7832.56
7832.55
7832.54
7832.53
7832.51
7832.49
7832.47
7832.44
7832.41
7832.38
7832.34
7832.3
7832.27
7832.25
7832.57
)
;
    }
    wireDownstream
    {
        type            calculated;
        value           nonuniform List<scalar> 
16
(
7862.19
7860.99
7859.42
7857.51
7855.17
7852.5
7849.38
7845.92
7842.15
7837.32
7831.82
7824.47
7816.53
7808.06
7802.58
7862.74
)
;
    }
    wireTopContact
    {
        type            calculated;
        value           nonuniform List<scalar> 
122
(
7802.08
7802.07
7802.08
7802.09
7802.09
7802.09
7802.08
7802.07
7802.06
7802.04
7802.02
7802
7801.97
7801.93
7801.9
7801.86
7801.81
7801.77
7801.71
7801.66
7801.6
7801.53
7801.46
7801.38
7801.3
7801.21
7801.11
7801
7800.88
7800.75
7800.62
7800.48
7800.33
7800.19
7800.05
7799.92
7799.81
7799.73
7799.72
7799.78
7799.97
7800.34
7800.99
7802.35
7806.16
7811.5
7817.1
7822.95
7828.88
7834.93
7841.35
7848.38
7855.9
7863.82
7871.08
7877.04
7881.7
7885.03
7887
7887.66
7887.05
7885.25
7882.36
7878.52
7873.93
7868.81
7863.43
7858.11
7853.15
7848.93
7845.82
7843.96
7843.03
7842.09
7840.88
7839.77
7838.8
7838.18
7837.73
7837.43
7837.21
7837.05
7836.93
7836.83
7836.74
7836.64
7836.54
7836.44
7836.32
7836.19
7836.05
7835.9
7835.74
7835.58
7835.41
7835.23
7835.05
7834.87
7834.69
7834.5
7834.32
7834.13
7833.95
7833.77
7833.6
7833.42
7833.25
7833.08
7832.92
7832.76
7832.61
7832.46
7832.33
7832.19
7832.07
7831.97
7831.88
7831.85
7831.95
7832.04
7832.04
7802.05
)
;
    }
    front
    {
        type            wedge;
    }
    back
    {
        type            wedge;
    }
}


// ************************************************************************* //
