/*--------------------------------*- C++ -*----------------------------------*\
| =========                 |                                                 |
| \\      /  F ield         | foam-extend: Open Source CFD                    |
|  \\    /   O peration     | Version:     4.1-20200408                       |
|   \\  /    A nd           | Web:         http://www.foam-extend.org         |
|    \\/     M anipulation  |                                                 |
\*---------------------------------------------------------------------------*/
FoamFile
{
    version     2.0;
    format      ascii;
    class       volScalarField;
    location    "0.0240000";
    object      sigmaHyd;
}
// * * * * * * * * * * * * * * * * * * * * * * * * * * * * * * * * * * * * * //

dimensions      [1 -1 -2 0 0 0 0];

internalField   nonuniform List<scalar> 
1952
(
-832982
584555
1.13045e+06
3.27094e+06
5.41518e+06
9.70319e+06
1.47696e+07
2.37377e+07
3.48981e+07
5.38259e+07
7.69624e+07
1.16351e+08
1.63639e+08
2.41767e+08
3.21158e+08
-757654
-9.98058e+06
-8.4888e+06
-7.73378e+06
-5.44857e+06
-2.96375e+06
1.56507e+06
7.07542e+06
1.63437e+07
2.79632e+07
4.71982e+07
7.06738e+07
1.10245e+08
1.57485e+08
2.35129e+08
3.13317e+08
-9.93811e+06
-1.73132e+07
-1.57486e+07
-1.48355e+07
-1.2405e+07
-9.65863e+06
-4.89418e+06
976216
1.05524e+07
2.25941e+07
4.22222e+07
6.61723e+07
1.0627e+08
1.54117e+08
2.32523e+08
3.12344e+08
-1.73062e+07
-2.39409e+07
-2.23017e+07
-2.12536e+07
-1.86754e+07
-1.57009e+07
-1.07007e+07
-4.5044e+06
5.38693e+06
1.78357e+07
3.78927e+07
6.23548e+07
1.03087e+08
1.51664e+08
2.30908e+08
3.11744e+08
-2.39695e+07
-2.98653e+07
-2.81502e+07
-2.6977e+07
-2.42513e+07
-2.10665e+07
-1.5827e+07
-9.31796e+06
905031
1.37661e+07
3.42967e+07
5.93106e+07
1.00757e+08
1.50157e+08
2.30271e+08
3.12178e+08
-2.99268e+07
-3.52059e+07
-3.34101e+07
-3.21236e+07
-2.92509e+07
-2.58701e+07
-2.03942e+07
-1.3589e+07
-3.03207e+06
1.02362e+07
3.12397e+07
5.68149e+07
9.89628e+07
1.49164e+08
2.30127e+08
3.12856e+08
-3.52957e+07
-4.00046e+07
-3.81296e+07
-3.67303e+07
-3.37118e+07
-3.01424e+07
-2.44364e+07
-1.73446e+07
-6.45254e+06
7.20434e+06
2.86894e+07
5.47919e+07
9.76622e+07
1.48607e+08
2.3039e+08
3.13841e+08
-4.01211e+07
-4.43863e+07
-4.24221e+07
-4.09165e+07
-3.77448e+07
-3.39986e+07
-2.80605e+07
-2.06905e+07
-9.46465e+06
4.57516e+06
2.65185e+07
5.3161e+07
9.66156e+07
1.48292e+08
2.30871e+08
3.15048e+08
-4.45228e+07
-4.84699e+07
-4.64229e+07
-4.47994e+07
-4.14833e+07
-3.75585e+07
-3.1403e+07
-2.37638e+07
-1.2227e+07
2.1556e+06
2.4536e+07
5.16189e+07
9.56855e+07
1.4803e+08
2.31429e+08
3.16406e+08
-4.86272e+07
-5.22896e+07
-5.01329e+07
-4.84041e+07
-4.49484e+07
-4.08489e+07
-3.44821e+07
-2.65996e+07
-1.47548e+07
-57677.5
2.27955e+07
5.03645e+07
9.49951e+07
1.47913e+08
2.32077e+08
3.17736e+08
-5.24653e+07
-5.57394e+07
-5.35198e+07
-5.16428e+07
-4.80381e+07
-4.37566e+07
-3.71932e+07
-2.90315e+07
-1.68944e+07
-1.86108e+06
2.13842e+07
4.94756e+07
9.45335e+07
1.48132e+08
2.32841e+08
3.1899e+08
-5.59404e+07
-5.88507e+07
-5.66146e+07
-5.46271e+07
-5.09049e+07
-4.64175e+07
-3.96443e+07
-3.12367e+07
-1.88112e+07
-3.38059e+06
2.0112e+07
4.8656e+07
9.41254e+07
1.48317e+08
2.33585e+08
3.20163e+08
-5.90788e+07
-6.16329e+07
-5.93801e+07
-5.73616e+07
-5.35795e+07
-4.89309e+07
-4.19915e+07
-3.32254e+07
-2.05651e+07
-4.74369e+06
1.90081e+07
4.79325e+07
9.37594e+07
1.48457e+08
2.34282e+08
3.21257e+08
-6.18537e+07
-6.41478e+07
-6.18284e+07
-5.9742e+07
-5.59105e+07
-5.10923e+07
-4.40106e+07
-3.49466e+07
-2.21084e+07
-5.99689e+06
1.80567e+07
4.73169e+07
9.35093e+07
1.48635e+08
2.35e+08
3.22222e+08
-6.43865e+07
-6.6526e+07
-6.41264e+07
-6.19018e+07
-5.79306e+07
-5.29536e+07
-4.57451e+07
-3.6507e+07
-2.34719e+07
-7.20083e+06
1.7106e+07
4.66738e+07
9.32195e+07
1.48762e+08
2.35658e+08
3.2314e+08
-6.67979e+07
-6.87309e+07
-6.62584e+07
-6.39368e+07
-5.98337e+07
-5.47079e+07
-4.73643e+07
-3.80037e+07
-2.48292e+07
-8.3582e+06
1.61736e+07
4.60363e+07
9.29211e+07
1.48847e+08
2.36263e+08
3.23973e+08
-6.90285e+07
-7.07333e+07
-6.82007e+07
-6.58006e+07
-6.16191e+07
-5.63871e+07
-4.89326e+07
-3.94365e+07
-2.61009e+07
-9.43669e+06
1.5326e+07
4.54589e+07
9.26738e+07
1.48949e+08
2.36868e+08
3.24732e+08
-7.10586e+07
-7.27087e+07
-7.01283e+07
-6.76622e+07
-6.34137e+07
-5.80888e+07
-5.05398e+07
-4.08992e+07
-2.74078e+07
-1.05442e+07
1.44291e+07
4.48329e+07
9.23626e+07
1.49004e+08
2.37424e+08
3.25493e+08
-7.30562e+07
-7.4592e+07
-7.19798e+07
-6.94582e+07
-6.51552e+07
-5.97371e+07
-5.21015e+07
-4.23212e+07
-2.86794e+07
-1.16243e+07
1.35597e+07
4.42189e+07
9.20546e+07
1.49041e+08
2.37949e+08
3.26217e+08
-7.49595e+07
-7.63767e+07
-7.37374e+07
-7.11604e+07
-6.68057e+07
-6.12932e+07
-5.35789e+07
-4.36549e+07
-2.98687e+07
-1.26214e+07
1.27668e+07
4.36785e+07
9.18113e+07
1.4912e+08
2.38497e+08
3.26894e+08
-7.67645e+07
-7.8168e+07
-7.5505e+07
-7.28694e+07
-6.84636e+07
-6.28562e+07
-5.50604e+07
-4.49933e+07
-3.10647e+07
-1.36268e+07
1.19645e+07
4.31252e+07
9.15552e+07
1.4919e+08
2.3904e+08
3.27576e+08
-7.85779e+07
-7.99587e+07
-7.72723e+07
-7.45743e+07
-7.01178e+07
-6.44116e+07
-5.65345e+07
-4.63205e+07
-3.22531e+07
-1.46213e+07
1.11692e+07
4.25792e+07
9.13007e+07
1.49258e+08
2.39576e+08
3.28261e+08
-8.03928e+07
-8.1739e+07
-7.90271e+07
-7.62626e+07
-7.17517e+07
-6.59425e+07
-5.79795e+07
-4.76144e+07
-3.34044e+07
-1.55749e+07
1.04194e+07
4.20794e+07
9.10979e+07
1.49365e+08
2.40151e+08
3.28941e+08
-8.2199e+07
-8.35805e+07
-8.08412e+07
-7.80051e+07
-7.34371e+07
-6.75176e+07
-5.94645e+07
-4.89406e+07
-3.45853e+07
-1.65497e+07
9.65048e+06
4.15696e+07
9.08909e+07
1.49481e+08
2.4075e+08
3.29659e+08
-8.40684e+07
-8.54606e+07
-8.26903e+07
-7.97778e+07
-7.51476e+07
-6.91102e+07
-6.09606e+07
-5.02696e+07
-3.57627e+07
-1.75125e+07
8.89933e+06
4.10848e+07
9.07144e+07
1.49628e+08
2.41396e+08
3.30385e+08
-8.59777e+07
-8.73972e+07
-8.45937e+07
-8.15991e+07
-7.69026e+07
-7.07381e+07
-6.24859e+07
-5.16157e+07
-3.69502e+07
-1.84715e+07
8.1606e+06
4.06277e+07
9.05753e+07
1.49825e+08
2.42111e+08
3.31167e+08
-8.79455e+07
-8.94055e+07
-8.65651e+07
-8.34815e+07
-7.87124e+07
-7.24092e+07
-6.40445e+07
-5.29798e+07
-3.81445e+07
-1.94174e+07
7.44709e+06
4.02235e+07
9.04978e+07
1.50137e+08
2.42939e+08
3.32105e+08
-8.99867e+07
-9.15279e+07
-8.86472e+07
-8.54668e+07
-8.06193e+07
-7.41646e+07
-6.56782e+07
-5.44022e+07
-3.93855e+07
-2.03875e+07
6.72363e+06
3.98362e+07
9.04493e+07
1.50521e+08
2.43842e+08
3.33179e+08
-9.21444e+07
-9.37818e+07
-9.08568e+07
-8.757e+07
-8.26363e+07
-7.60136e+07
-6.73924e+07
-5.58832e+07
-4.06685e+07
-2.13709e+07
6.00537e+06
3.94818e+07
9.04509e+07
1.50976e+08
2.4483e+08
3.34325e+08
-9.4436e+07
-9.61769e+07
-9.32021e+07
-8.97981e+07
-8.47678e+07
-7.79582e+07
-6.91864e+07
-5.74192e+07
-4.19845e+07
-2.23553e+07
5.30781e+06
3.91821e+07
9.05329e+07
1.51528e+08
2.45935e+08
3.3556e+08
-9.68712e+07
-9.88151e+07
-9.5784e+07
-9.2251e+07
-8.7112e+07
-8.00939e+07
-7.11536e+07
-5.90971e+07
-4.34174e+07
-2.3419e+07
4.56191e+06
3.88795e+07
9.06502e+07
1.52159e+08
2.47159e+08
3.36925e+08
-9.95519e+07
-1.01748e+08
-9.86554e+07
-9.49804e+07
-8.97195e+07
-8.24705e+07
-7.33408e+07
-6.09651e+07
-4.50127e+07
-2.46052e+07
3.72701e+06
3.85339e+07
9.07662e+07
1.52849e+08
2.48493e+08
3.38462e+08
-1.0253e+08
-1.05057e+08
-1.01895e+08
-9.80643e+07
-9.26651e+07
-8.51603e+07
-7.5817e+07
-6.30872e+07
-4.68278e+07
-2.59626e+07
2.76414e+06
3.8121e+07
9.0869e+07
1.53602e+08
2.49968e+08
3.40215e+08
-1.05886e+08
-1.08808e+08
-1.05573e+08
-1.0157e+08
-9.60181e+07
-8.82316e+07
-7.86497e+07
-6.55287e+07
-4.8928e+07
-2.75527e+07
1.61762e+06
3.75881e+07
9.09129e+07
1.54382e+08
2.51548e+08
3.42195e+08
-1.09689e+08
-1.13074e+08
-1.09762e+08
-1.05571e+08
-9.985e+07
-9.17536e+07
-8.19009e+07
-6.83502e+07
-5.13653e+07
-2.94193e+07
256282
3.69152e+07
9.08907e+07
1.55185e+08
2.53239e+08
3.44395e+08
-1.14009e+08
-1.1789e+08
-1.14497e+08
-1.101e+08
-1.04195e+08
-9.57574e+07
-8.56012e+07
-7.15754e+07
-5.41551e+07
-3.157e+07
-1.32251e+06
3.61167e+07
9.08242e+07
1.5604e+08
2.55067e+08
3.46806e+08
-1.18882e+08
-1.23422e+08
-1.19946e+08
-1.15329e+08
-1.09224e+08
-1.00418e+08
-8.99273e+07
-7.53778e+07
-5.74685e+07
-3.41722e+07
-3.27661e+06
3.50503e+07
9.05899e+07
1.56862e+08
2.56981e+08
3.49435e+08
-1.24473e+08
-1.29831e+08
-1.26277e+08
-1.21425e+08
-1.1511e+08
-1.05913e+08
-9.50605e+07
-7.9944e+07
-6.1496e+07
-3.74134e+07
-5.79224e+06
3.35417e+07
9.00244e+07
1.57526e+08
2.58893e+08
3.52287e+08
-1.30945e+08
-1.37174e+08
-1.33547e+08
-1.28453e+08
-1.21921e+08
-1.12315e+08
-1.01076e+08
-8.53522e+07
-6.63144e+07
-4.13694e+07
-8.93901e+06
3.15305e+07
8.90753e+07
1.5799e+08
2.6076e+08
3.55328e+08
-1.3835e+08
-1.45615e+08
-1.4193e+08
-1.36591e+08
-1.29843e+08
-1.19821e+08
-1.08179e+08
-9.18175e+07
-7.21444e+07
-4.62606e+07
-1.29325e+07
2.88174e+07
8.75651e+07
1.58118e+08
2.62479e+08
3.58491e+08
-1.46854e+08
-1.55285e+08
-1.51562e+08
-1.45988e+08
-1.3904e+08
-1.28612e+08
-1.16566e+08
-9.9558e+07
-7.92178e+07
-5.2337e+07
-1.80296e+07
2.51429e+07
8.52381e+07
1.57683e+08
2.63848e+08
3.61682e+08
-1.56582e+08
-1.6629e+08
-1.62559e+08
-1.56774e+08
-1.49658e+08
-1.38858e+08
-1.26429e+08
-1.08789e+08
-8.77709e+07
-5.98518e+07
-2.44929e+07
2.02492e+07
8.18528e+07
1.56479e+08
2.64703e+08
3.64752e+08
-1.67636e+08
-1.7874e+08
-1.75043e+08
-1.69093e+08
-1.61862e+08
-1.50755e+08
-1.37995e+08
-1.1978e+08
-9.81047e+07
-6.91498e+07
-3.26852e+07
1.37487e+07
7.70292e+07
1.54163e+08
2.64688e+08
3.67549e+08
-1.80122e+08
-1.92779e+08
-1.89172e+08
-1.83128e+08
-1.75867e+08
-1.64561e+08
-1.51569e+08
-1.32894e+08
-1.1064e+08
-8.07109e+07
-4.31414e+07
5.07873e+06
7.01927e+07
1.50244e+08
2.63421e+08
3.69794e+08
-1.94176e+08
-2.08382e+08
-2.04939e+08
-1.98905e+08
-1.91738e+08
-1.80401e+08
-1.67337e+08
-1.48399e+08
-1.2572e+08
-9.49822e+07
-5.6368e+07
-6.37742e+06
6.0768e+07
1.44047e+08
2.6042e+08
3.71048e+08
-2.09765e+08
-2.2547e+08
-2.22282e+08
-2.16401e+08
-2.09499e+08
-1.98363e+08
-1.85466e+08
-1.66562e+08
-1.43725e+08
-1.12476e+08
-7.30196e+07
-2.14105e+07
4.78233e+07
1.34574e+08
2.54736e+08
3.70669e+08
-2.268e+08
-2.4388e+08
-2.41057e+08
-2.35513e+08
-2.29099e+08
-2.18471e+08
-2.06072e+08
-1.87624e+08
-1.65038e+08
-1.33764e+08
-9.38668e+07
-4.10135e+07
3.0147e+07
1.20549e+08
2.4512e+08
3.67961e+08
-2.4511e+08
-2.63281e+08
-2.60952e+08
-2.55967e+08
-2.50319e+08
-2.40588e+08
-2.29122e+08
-2.11698e+08
-1.89957e+08
-1.59391e+08
-1.19742e+08
-6.63886e+07
6.18133e+06
1.00125e+08
2.29861e+08
3.62216e+08
-2.64353e+08
-2.83239e+08
-2.8155e+08
-2.77385e+08
-2.72834e+08
-2.64466e+08
-2.5448e+08
-2.38804e+08
-2.18712e+08
-1.89894e+08
-1.51589e+08
-9.90558e+07
-2.6351e+07
7.01594e+07
2.0472e+08
3.49323e+08
-2.84092e+08
-3.031e+08
-3.02208e+08
-2.99149e+08
-2.96067e+08
-2.89591e+08
-2.81725e+08
-2.68663e+08
-2.51232e+08
-2.25531e+08
-1.90137e+08
-1.40573e+08
-7.02223e+07
2.56044e+07
1.60847e+08
3.14331e+08
-3.03667e+08
-3.21936e+08
-3.22e+08
-3.20339e+08
-3.19119e+08
-3.15091e+08
-3.10042e+08
-3.00548e+08
-2.86939e+08
-2.66002e+08
-2.35566e+08
-1.92109e+08
-1.28392e+08
-4.07592e+07
8.33828e+07
2.21409e+08
-3.22151e+08
-3.38511e+08
-3.39677e+08
-3.3969e+08
-3.40703e+08
-3.39644e+08
-3.38074e+08
-3.33037e+08
-3.24324e+08
-3.09601e+08
-2.85774e+08
-2.50682e+08
-1.95976e+08
-1.1965e+08
-9.279e+06
1.106e+08
-3.38315e+08
-3.51563e+08
-3.53956e+08
-3.55879e+08
-3.59452e+08
-3.6182e+08
-3.64328e+08
-3.64555e+08
-3.61735e+08
-3.54586e+08
-3.38928e+08
-3.14342e+08
-2.70855e+08
-2.0857e+08
-1.13847e+08
-1.26013e+07
-3.50908e+08
-3.59592e+08
-3.63299e+08
-3.67302e+08
-3.73685e+08
-3.79824e+08
-3.86883e+08
-3.93001e+08
-3.96878e+08
-3.98395e+08
-3.92142e+08
-3.79801e+08
-3.49177e+08
-3.03111e+08
-2.25603e+08
-1.44032e+08
-3.58446e+08
-3.60764e+08
-3.65826e+08
-3.71993e+08
-3.81323e+08
-3.91424e+08
-4.03332e+08
-4.15737e+08
-4.26889e+08
-4.3789e+08
-4.42054e+08
-4.43524e+08
-4.27338e+08
-3.99943e+08
-3.41722e+08
-2.8128e+08
-3.59117e+08
-3.53266e+08
-3.59659e+08
-3.67966e+08
-3.80239e+08
-3.94291e+08
-4.11113e+08
-4.29892e+08
-4.48572e+08
-4.69461e+08
-4.84705e+08
-5.01267e+08
-5.00936e+08
-4.95256e+08
-4.59131e+08
-4.23175e+08
-3.51134e+08
-3.35785e+08
-3.43429e+08
-3.53746e+08
-3.68822e+08
-3.86622e+08
-4.08199e+08
-4.33126e+08
-4.59263e+08
-4.89989e+08
-5.1661e+08
-5.49134e+08
-5.65877e+08
-5.85947e+08
-5.74687e+08
-5.71401e+08
-3.33207e+08
-3.05226e+08
-3.13932e+08
-3.25944e+08
-3.43407e+08
-3.64351e+08
-3.89989e+08
-4.20089e+08
-4.52741e+08
-4.92048e+08
-5.29231e+08
-5.77061e+08
-6.1147e+08
-6.61506e+08
-6.80436e+08
-7.2589e+08
-3.02291e+08
-2.62057e+08
-2.71616e+08
-2.85041e+08
-3.04505e+08
-3.2813e+08
-3.57281e+08
-3.91823e+08
-4.30171e+08
-4.76747e+08
-5.2325e+08
-5.84213e+08
-6.35444e+08
-7.13863e+08
-7.65122e+08
-8.69677e+08
-2.58833e+08
-2.19844e+08
-2.30129e+08
-2.44849e+08
-2.66155e+08
-2.92384e+08
-3.24982e+08
-3.63958e+08
-4.07941e+08
-4.61461e+08
-5.16737e+08
-5.88882e+08
-6.54902e+08
-7.55168e+08
-8.34969e+08
-9.95847e+08
-2.16361e+08
-1.92492e+08
-2.03315e+08
-2.1896e+08
-2.41671e+08
-2.69907e+08
-3.05325e+08
-3.47912e+08
-3.96676e+08
-4.55837e+08
-5.18269e+08
-5.98393e+08
-6.74303e+08
-7.85209e+08
-8.76789e+08
-1.05339e+09
-1.88839e+08
-1.83237e+08
-1.94353e+08
-2.10386e+08
-2.33835e+08
-2.63073e+08
-3.00141e+08
-3.44697e+08
-3.96404e+08
-4.58533e+08
-5.25122e+08
-6.08544e+08
-6.88737e+08
-8.00567e+08
-8.92203e+08
-1.05811e+09
-1.79533e+08
-1.91747e+08
-2.02886e+08
-2.18755e+08
-2.42194e+08
-2.71327e+08
-3.08663e+08
-3.53293e+08
-4.05704e+08
-4.67711e+08
-5.34972e+08
-6.16466e+08
-6.95205e+08
-7.98629e+08
-8.81516e+08
-1.02241e+09
-1.88083e+08
-2.17361e+08
-2.28324e+08
-2.43585e+08
-2.66375e+08
-2.94405e+08
-3.30666e+08
-3.73466e+08
-4.24247e+08
-4.83038e+08
-5.47549e+08
-6.22364e+08
-6.94635e+08
-7.82239e+08
-8.49737e+08
-9.56674e+08
-2.13784e+08
-2.5809e+08
-2.68812e+08
-2.83253e+08
-3.05041e+08
-3.31348e+08
-3.65553e+08
-4.05004e+08
-4.52121e+08
-5.04999e+08
-5.63643e+08
-6.27688e+08
-6.89127e+08
-7.55234e+08
-8.02352e+08
-8.70054e+08
-2.54588e+08
-3.11293e+08
-3.21855e+08
-3.35518e+08
-3.56275e+08
-3.8071e+08
-4.12446e+08
-4.47742e+08
-4.8986e+08
-5.34901e+08
-5.85057e+08
-6.34961e+08
-6.81637e+08
-7.21707e+08
-7.44392e+08
-7.70195e+08
-3.07796e+08
-3.74068e+08
-3.8466e+08
-3.97781e+08
-4.17667e+08
-4.40377e+08
-4.69647e+08
-5.00683e+08
-5.37329e+08
-5.73621e+08
-6.13349e+08
-6.46595e+08
-6.75092e+08
-6.85555e+08
-6.80704e+08
-6.63718e+08
-3.70456e+08
-4.43341e+08
-4.54065e+08
-4.66809e+08
-4.85796e+08
-5.06696e+08
-5.33289e+08
-5.60164e+08
-5.91688e+08
-6.19906e+08
-6.48897e+08
-6.64773e+08
-6.73014e+08
-6.51747e+08
-6.17629e+08
-5.58828e+08
-4.39534e+08
-5.15159e+08
-5.2588e+08
-5.38304e+08
-5.56367e+08
-5.75565e+08
-5.99701e+08
-6.23465e+08
-6.52068e+08
-6.75556e+08
-6.95524e+08
-6.94546e+08
-6.80678e+08
-6.26802e+08
-5.63752e+08
-4.68339e+08
-5.11234e+08
-5.9074e+08
-6.0174e+08
-6.14668e+08
-6.33046e+08
-6.52194e+08
-6.75165e+08
-6.95907e+08
-7.18007e+08
-7.26998e+08
-7.26248e+08
-6.99977e+08
-6.61296e+08
-5.85768e+08
-5.13282e+08
-4.01906e+08
-5.86745e+08
-6.80844e+08
-6.88655e+08
-6.97396e+08
-7.09405e+08
-7.20063e+08
-7.30306e+08
-7.32785e+08
-7.29496e+08
-7.11199e+08
-6.85368e+08
-6.39837e+08
-5.90219e+08
-5.17724e+08
-4.53244e+08
-3.56085e+08
-6.77808e+08
-7.25478e+08
-7.25627e+08
-7.23941e+08
-7.21444e+08
-7.15238e+08
-7.05935e+08
-6.88752e+08
-6.65248e+08
-6.33688e+08
-5.99493e+08
-5.54131e+08
-5.07572e+08
-4.48675e+08
-3.91187e+08
-3.1595e+08
-7.25262e+08
-6.77574e+08
-6.74524e+08
-6.68335e+08
-6.59789e+08
-6.47023e+08
-6.30966e+08
-6.09563e+08
-5.8594e+08
-5.58202e+08
-5.27134e+08
-4.86535e+08
-4.43858e+08
-3.90126e+08
-3.36434e+08
-2.73915e+08
-6.78708e+08
-6.06496e+08
-6.03481e+08
-5.97775e+08
-5.8994e+08
-5.78625e+08
-5.64419e+08
-5.45391e+08
-5.23146e+08
-4.95366e+08
-4.65084e+08
-4.27478e+08
-3.8862e+08
-3.41178e+08
-2.94219e+08
-2.3678e+08
-6.07743e+08
-5.51429e+08
-5.47513e+08
-5.40979e+08
-5.31987e+08
-5.19835e+08
-5.04982e+08
-4.86242e+08
-4.6505e+08
-4.39414e+08
-4.1162e+08
-3.77774e+08
-3.42888e+08
-3.00901e+08
-2.59612e+08
-2.10077e+08
-5.52873e+08
-4.96269e+08
-4.92264e+08
-4.86022e+08
-4.77333e+08
-4.6593e+08
-4.51993e+08
-4.34661e+08
-4.14976e+08
-3.91251e+08
-3.65751e+08
-3.35293e+08
-3.04202e+08
-2.67298e+08
-2.31446e+08
-1.88316e+08
-4.97687e+08
-4.47953e+08
-4.438e+08
-4.37716e+08
-4.29159e+08
-4.18257e+08
-4.04997e+08
-3.88881e+08
-3.70727e+08
-3.4919e+08
-3.26189e+08
-2.9909e+08
-2.71614e+08
-2.39351e+08
-2.08293e+08
-1.71155e+08
-4.49357e+08
-4.03396e+08
-3.99335e+08
-3.93676e+08
-3.85608e+08
-3.75547e+08
-3.63295e+08
-3.48605e+08
-3.32085e+08
-3.12684e+08
-2.92081e+08
-2.68091e+08
-2.43947e+08
-2.15861e+08
-1.89069e+08
-1.57099e+08
-4.04717e+08
-3.63593e+08
-3.59671e+08
-3.5444e+08
-3.46889e+08
-3.37656e+08
-3.26405e+08
-3.13102e+08
-2.98189e+08
-2.80869e+08
-2.62565e+08
-2.41465e+08
-2.20365e+08
-1.96019e+08
-1.7297e+08
-1.45544e+08
-3.64825e+08
-3.2771e+08
-3.24008e+08
-3.19258e+08
-3.12311e+08
-3.0396e+08
-2.93758e+08
-2.81831e+08
-2.68484e+08
-2.53123e+08
-2.36957e+08
-2.18484e+08
-2.0012e+08
-1.7908e+08
-1.59286e+08
-1.35755e+08
-3.28836e+08
-2.95636e+08
-2.92184e+08
-2.87905e+08
-2.8157e+08
-2.7407e+08
-2.64888e+08
-2.54264e+08
-2.42393e+08
-2.2885e+08
-2.1465e+08
-1.98549e+08
-1.82628e+08
-1.64502e+08
-1.47544e+08
-1.27397e+08
-2.96657e+08
-2.66934e+08
-2.63755e+08
-2.59936e+08
-2.54215e+08
-2.47534e+08
-2.39332e+08
-2.29929e+08
-2.19434e+08
-2.07551e+08
-1.95132e+08
-1.81148e+08
-1.67384e+08
-1.51801e+08
-1.37282e+08
-1.20009e+08
-2.6785e+08
-2.41307e+08
-2.38405e+08
-2.35019e+08
-2.29887e+08
-2.2397e+08
-2.16686e+08
-2.08406e+08
-1.99172e+08
-1.8879e+08
-1.77971e+08
-1.65862e+08
-1.53996e+08
-1.40627e+08
-1.28211e+08
-1.1341e+08
-2.42123e+08
-2.18414e+08
-2.15788e+08
-2.12803e+08
-2.08228e+08
-2.03017e+08
-1.96581e+08
-1.89323e+08
-1.81232e+08
-1.72193e+08
-1.62796e+08
-1.52338e+08
-1.42127e+08
-1.30671e+08
-1.20051e+08
-1.07346e+08
-2.19136e+08
-1.9796e+08
-1.95599e+08
-1.9298e+08
-1.88923e+08
-1.84352e+08
-1.78691e+08
-1.72352e+08
-1.65287e+08
-1.5744e+08
-1.493e+08
-1.40284e+08
-1.31511e+08
-1.21703e+08
-1.12614e+08
-1.01683e+08
-1.98596e+08
-1.79663e+08
-1.77551e+08
-1.75263e+08
-1.71681e+08
-1.67687e+08
-1.62725e+08
-1.57205e+08
-1.51055e+08
-1.44258e+08
-1.37221e+08
-1.2946e+08
-1.2193e+08
-1.13534e+08
-1.05749e+08
-9.63227e+07
-1.80221e+08
-1.63269e+08
-1.61389e+08
-1.59396e+08
-1.56245e+08
-1.52765e+08
-1.48429e+08
-1.43635e+08
-1.38292e+08
-1.32416e+08
-1.26341e+08
-1.19667e+08
-1.13205e+08
-1.06015e+08
-9.93304e+07
-9.1162e+07
-1.63756e+08
-1.48547e+08
-1.46881e+08
-1.45149e+08
-1.42386e+08
-1.39361e+08
-1.35581e+08
-1.31424e+08
-1.26792e+08
-1.21717e+08
-1.16479e+08
-1.10741e+08
-1.05197e+08
-9.9036e+07
-9.32847e+07
-8.61842e+07
-1.48972e+08
-1.35292e+08
-1.33821e+08
-1.32319e+08
-1.29901e+08
-1.27276e+08
-1.23987e+08
-1.20388e+08
-1.16376e+08
-1.11997e+08
-1.07481e+08
-1.02548e+08
-9.77868e+07
-9.24987e+07
-8.75316e+07
-8.13201e+07
-1.35662e+08
-1.23323e+08
-1.22027e+08
-1.20726e+08
-1.18614e+08
-1.16339e+08
-1.1348e+08
-1.10367e+08
-1.06894e+08
-1.03116e+08
-9.92231e+07
-9.49787e+07
-9.08852e+07
-8.63376e+07
-8.2032e+07
-7.65693e+07
-1.23644e+08
-1.12478e+08
-1.11338e+08
-1.10212e+08
-1.0837e+08
-1.064e+08
-1.03916e+08
-1.01223e+08
-9.8218e+07
-9.49574e+07
-9.15987e+07
-8.79422e+07
-8.4416e+07
-8.04942e+07
-7.67436e+07
-7.19071e+07
-1.12756e+08
-1.02617e+08
-1.01616e+08
-1.00642e+08
-9.90354e+07
-9.7329e+07
-9.51721e+07
-9.28417e+07
-9.02395e+07
-8.74224e+07
-8.45213e+07
-8.13651e+07
-7.83199e+07
-7.49259e+07
-7.16398e+07
-6.73237e+07
-1.02858e+08
-9.36163e+07
-9.27379e+07
-9.18948e+07
-9.04942e+07
-8.90153e+07
-8.71411e+07
-8.51225e+07
-8.2867e+07
-8.04292e+07
-7.79186e+07
-7.51875e+07
-7.25495e+07
-6.96008e+07
-6.67043e+07
-6.28254e+07
-9.38255e+07
-8.537e+07
-8.45994e+07
-8.38687e+07
-8.26468e+07
-8.13633e+07
-7.9733e+07
-7.79816e+07
-7.60233e+07
-7.39089e+07
-7.17309e+07
-6.93602e+07
-6.70659e+07
-6.44913e+07
-6.19197e+07
-5.8402e+07
-8.55516e+07
-7.77858e+07
-7.71093e+07
-7.64748e+07
-7.54075e+07
-7.42915e+07
-7.28707e+07
-7.13476e+07
-6.96434e+07
-6.78043e+07
-6.59089e+07
-6.38434e+07
-6.18395e+07
-5.95804e+07
-5.7282e+07
-5.40693e+07
-7.79437e+07
-7.07841e+07
-7.01896e+07
-6.96371e+07
-6.87029e+07
-6.77299e+07
-6.64887e+07
-6.51601e+07
-6.36725e+07
-6.20672e+07
-6.04113e+07
-5.86039e+07
-5.68447e+07
-5.48508e+07
-5.27808e+07
-4.98227e+07
-7.09217e+07
-6.42968e+07
-6.37732e+07
-6.32905e+07
-6.24706e+07
-6.16192e+07
-6.05314e+07
-5.93681e+07
-5.80646e+07
-5.66574e+07
-5.52044e+07
-5.36148e+07
-5.20618e+07
-5.02912e+07
-4.84127e+07
-4.56679e+07
-6.44171e+07
-5.82655e+07
-5.78031e+07
-5.73795e+07
-5.66574e+07
-5.59091e+07
-5.49519e+07
-5.39286e+07
-5.27812e+07
-5.15413e+07
-5.02597e+07
-4.88538e+07
-4.74743e+07
-4.58918e+07
-4.41744e+07
-4.16107e+07
-5.83712e+07
-5.26406e+07
-5.22308e+07
-5.1857e+07
-5.12182e+07
-5.05569e+07
-4.97105e+07
-4.88052e+07
-4.77898e+07
-4.66909e+07
-4.55534e+07
-4.43021e+07
-4.30681e+07
-4.16433e+07
-4.006e+07
-3.76466e+07
-5.27339e+07
-4.73799e+07
-4.70151e+07
-4.6683e+07
-4.61149e+07
-4.55267e+07
-4.47738e+07
-4.39676e+07
-4.30632e+07
-4.20826e+07
-4.10661e+07
-3.99443e+07
-3.88322e+07
-3.754e+07
-3.60696e+07
-3.37841e+07
-4.74629e+07
-4.24479e+07
-4.21214e+07
-4.18239e+07
-4.13154e+07
-4.07882e+07
-4.01138e+07
-3.93904e+07
-3.85788e+07
-3.76968e+07
-3.67812e+07
-3.57675e+07
-3.47567e+07
-3.35752e+07
-3.21981e+07
-3.00191e+07
-4.25222e+07
-3.78147e+07
-3.75205e+07
-3.72516e+07
-3.6793e+07
-3.63162e+07
-3.57073e+07
-3.50522e+07
-3.43176e+07
-3.35173e+07
-3.26851e+07
-3.17609e+07
-3.08339e+07
-2.97444e+07
-2.84449e+07
-2.63555e+07
-3.78819e+07
-3.34553e+07
-3.31884e+07
-3.29426e+07
-3.25256e+07
-3.20899e+07
-3.15349e+07
-3.09356e+07
-3.02642e+07
-2.95305e+07
-2.87664e+07
-2.79155e+07
-2.70568e+07
-2.60433e+07
-2.48075e+07
-2.2794e+07
-3.35168e+07
-2.93494e+07
-2.91052e+07
-2.88778e+07
-2.84948e+07
-2.8092e+07
-2.75808e+07
-2.70263e+07
-2.64058e+07
-2.57255e+07
-2.50159e+07
-2.42236e+07
-2.34193e+07
-2.24668e+07
-2.12813e+07
-1.93284e+07
-2.94064e+07
-2.54803e+07
-2.52548e+07
-2.50416e+07
-2.46861e+07
-2.43089e+07
-2.38326e+07
-2.3313e+07
-2.27324e+07
-2.20935e+07
-2.14262e+07
-2.06795e+07
-1.9917e+07
-1.90125e+07
-1.78663e+07
-1.59639e+07
-2.55338e+07
-2.18347e+07
-2.16245e+07
-2.14217e+07
-2.1088e+07
-2.07299e+07
-2.02805e+07
-1.97868e+07
-1.92363e+07
-1.8628e+07
-1.79916e+07
-1.72782e+07
-1.65454e+07
-1.56757e+07
-1.45565e+07
-1.26903e+07
-2.18857e+07
-1.84025e+07
-1.82047e+07
-1.80089e+07
-1.76918e+07
-1.73471e+07
-1.69173e+07
-1.64415e+07
-1.59119e+07
-1.53242e+07
-1.47083e+07
-1.40166e+07
-1.33022e+07
-1.24552e+07
-1.13518e+07
-9.51035e+06
-1.84519e+07
-1.5176e+07
-1.4988e+07
-1.47963e+07
-1.44914e+07
-1.41548e+07
-1.37381e+07
-1.3273e+07
-1.27561e+07
-1.21796e+07
-1.15741e+07
-1.0893e+07
-1.01857e+07
-9.34868e+06
-8.24917e+06
-6.41949e+06
-1.52245e+07
-1.21501e+07
-1.19698e+07
-1.17796e+07
-1.14828e+07
-1.11498e+07
-1.07406e+07
-1.02795e+07
-9.76752e+06
-9.19359e+06
-8.58888e+06
-7.90755e+06
-7.19602e+06
-6.35608e+06
-5.24776e+06
-3.41503e+06
-1.21984e+07
-9.32166e+06
-9.14732e+06
-8.95627e+06
-8.66437e+06
-8.33098e+06
-7.92417e+06
-7.46119e+06
-6.94724e+06
-6.36772e+06
-5.75471e+06
-5.06242e+06
-4.33534e+06
-3.47945e+06
-2.34973e+06
-500662
-9.37023e+06
-6.68925e+06
-6.5195e+06
-6.32592e+06
-6.03617e+06
-5.69918e+06
-5.29048e+06
-4.82059e+06
-4.29842e+06
-3.70585e+06
-3.07576e+06
-2.36191e+06
-1.60732e+06
-720813
445899
2.3313e+06
-6.73855e+06
-4.25293e+06
-4.08682e+06
-3.88946e+06
-3.59985e+06
-3.25687e+06
-2.84295e+06
-2.3621e+06
-1.82649e+06
-1.2144e+06
-559202
186277
980195
1.91195e+06
3.13107e+06
5.07067e+06
-4.30323e+06
-2.01372e+06
-1.85073e+06
-1.64896e+06
-1.35827e+06
-1.00789e+06
-586548
-92006.6
460984
1.09776e+06
1.78514e+06
2.57169e+06
3.4172e+06
4.41053e+06
5.70129e+06
7.72089e+06
-2.06513e+06
26747.8
186725
392823
684902
1.04288e+06
1.47241e+06
1.98172e+06
2.55421e+06
3.21888e+06
3.94373e+06
4.77912e+06
5.68772e+06
6.7588e+06
8.14192e+06
1.02699e+07
-25691.8
1.86676e+06
2.02336e+06
2.23293e+06
2.52564e+06
2.89002e+06
3.3268e+06
3.84987e+06
4.44155e+06
5.13461e+06
5.89948e+06
6.78878e+06
7.77041e+06
8.93477e+06
1.04333e+07
1.27037e+07
1.81357e+06
3.50515e+06
3.65758e+06
3.86889e+06
4.16035e+06
4.52836e+06
4.96942e+06
5.50268e+06
6.11006e+06
6.82822e+06
7.6314e+06
8.57502e+06
9.63592e+06
1.09059e+07
1.25447e+07
1.49955e+07
3.45169e+06
4.94153e+06
5.08855e+06
5.29906e+06
5.58622e+06
5.95348e+06
6.39364e+06
6.9306e+06
7.54637e+06
8.28147e+06
9.11513e+06
1.01064e+07
1.12459e+07
1.26268e+07
1.4433e+07
1.71027e+07
4.88846e+06
6.17835e+06
6.31837e+06
6.52476e+06
6.80348e+06
7.164e+06
7.5958e+06
8.12683e+06
8.73911e+06
9.47688e+06
1.03246e+07
1.13464e+07
1.25514e+07
1.40385e+07
1.60473e+07
1.90043e+07
6.12649e+06
7.21989e+06
7.35104e+06
7.5494e+06
7.81466e+06
8.16112e+06
8.57515e+06
9.08764e+06
9.67988e+06
1.0399e+07
1.12328e+07
1.22516e+07
1.3483e+07
1.50434e+07
1.72577e+07
2.05894e+07
7.17017e+06
8.05243e+06
8.17325e+06
8.3603e+06
8.60792e+06
8.93397e+06
9.32185e+06
9.80407e+06
1.036e+07
1.10378e+07
1.18246e+07
1.27951e+07
1.39849e+07
1.55359e+07
1.78452e+07
2.1511e+07
8.00554e+06
8.81209e+06
8.91838e+06
9.0868e+06
9.30696e+06
9.59897e+06
9.9428e+06
1.03704e+07
1.08562e+07
1.14437e+07
1.21079e+07
1.29101e+07
1.385e+07
1.50369e+07
1.678e+07
1.9528e+07
8.76982e+06
9.09184e+06
9.1876e+06
9.34171e+06
9.54162e+06
9.80829e+06
1.01201e+07
1.05086e+07
1.09456e+07
1.14719e+07
1.2055e+07
1.27448e+07
1.35067e+07
1.43956e+07
1.54731e+07
1.75003e+07
9.05312e+06
)
;

boundaryField
{
    wireUpstream
    {
        type            zeroGradient;
    }
    wireDownstream
    {
        type            zeroGradient;
    }
    wireTopContact
    {
        type            zeroGradient;
    }
    front
    {
        type            wedge;
    }
    back
    {
        type            wedge;
    }
}


// ************************************************************************* //
