/*--------------------------------*- C++ -*----------------------------------*\
  =========                 |
  \\      /  F ield         | OpenFOAM: The Open Source CFD Toolbox
   \\    /   O peration     | Website:  https://openfoam.org
    \\  /    A nd           | Version:  8
     \\/     M anipulation  |
\*---------------------------------------------------------------------------*/
FoamFile
{
    version     2.0;
    format      ascii;
    class       volVectorField;
    location    "0.0755000";
    object      U;
}
// * * * * * * * * * * * * * * * * * * * * * * * * * * * * * * * * * * * * * //

dimensions      [0 1 -1 0 0 0 0];

internalField   nonuniform List<vector> 
600
(
(0.590304225641454 0.000667550219145912 -3.13948910946372e-18)
(0.59121847809885 0.000418729057964821 -8.91739203088864e-18)
(0.591192671896446 0.000362378012322677 -1.56846140559228e-18)
(0.591145584983549 0.00040578393624942 2.72052593054067e-20)
(0.590955526820556 0.000429446249248267 -5.15113206200946e-18)
(0.590685072231818 0.000440986733098002 -6.27868864650751e-18)
(0.590384578849009 0.000448326929064915 -7.21716635543346e-18)
(0.590072598946627 0.000454463726204636 3.13339977819846e-17)
(0.58975409512993 0.000459953060762031 3.02910019030854e-17)
(0.589428807838095 0.000464736789966472 3.28530806338716e-17)
(0.589095506204929 0.000469273341285383 3.58810675973011e-17)
(0.58875367490514 0.000473970765789009 3.51055840718357e-17)
(0.588403752337342 0.000478914523663137 7.37742574686999e-17)
(0.588045148748608 0.000483268694374053 2.25632372864041e-17)
(0.587676415013855 0.000487304468865987 -3.06948999172677e-17)
(0.587297130904519 0.000491415000956053 -1.52272539916782e-17)
(0.586907589826528 0.000495856860026021 -8.82672980591873e-17)
(0.586507717679422 0.000500145457723891 -9.28041915651247e-17)
(0.586096266409841 0.000504145653813559 3.28499765017587e-17)
(0.585672285184937 0.000508134151234306 3.69955405224695e-17)
(0.585235679411357 0.000512450575899663 4.48737749744338e-17)
(0.584786886233287 0.000517123989194998 4.37616970945917e-17)
(0.58432501453761 0.000521484507736177 -9.5548808444735e-17)
(0.583848581518115 0.000525804453011503 1.35501591577358e-16)
(0.583356973086922 0.000530534542187254 1.87726072183978e-16)
(0.582850906047603 0.000536186609534237 3.33128276158817e-17)
(0.582329988586623 0.00054164875590007 1.08067109634032e-16)
(0.581792478018184 0.000546972969755054 -5.51409057139803e-17)
(0.581237520785709 0.000552712284239352 -4.20857067619698e-17)
(0.58066518522253 0.000559663553782359 -1.96236281847195e-19)
(0.580076021992252 0.000567453068347159 8.51576589574304e-18)
(0.579469111316745 0.000575059577791425 -1.86891304861762e-16)
(0.578842591825469 0.000583045178158578 -1.5734104320775e-16)
(0.578195794609203 0.00059266892684838 -1.04127509556759e-16)
(0.577531186420656 0.000605588658339308 -1.64891102315254e-16)
(0.57684891850914 0.000618027820078258 1.0436452276844e-17)
(0.576146185250654 0.000631098279032674 1.23553891845541e-16)
(0.575422374949685 0.000646546515589638 -1.78991868492255e-16)
(0.574680719962154 0.000667400505423966 1.82923283592993e-16)
(0.573924202489185 0.000690388248782932 1.23186667275992e-16)
(0.573151555583922 0.000713802387275193 9.83596124938934e-17)
(0.572360996345714 0.000739873948842265 -2.52200132586183e-17)
(0.571556392686853 0.000773487831579441 1.9070823228785e-18)
(0.570746896667813 0.00081715032396418 -6.96601892090398e-17)
(0.569935402074206 0.00085999667478845 -2.97787249134103e-17)
(0.569119023082212 0.000905633613008427 5.69926887934238e-18)
(0.568303198689755 0.000961011672616369 -2.34797802479024e-16)
(0.56750780603981 0.00104171485063611 -3.45420467684763e-18)
(0.566744426221591 0.00112063989617748 8.70204728782352e-18)
(0.566014586841375 0.00120307700321941 1.34815978100984e-16)
(0.565326790744324 0.00129828060284763 1.16028460134988e-16)
(0.564715425231915 0.0014287510361211 -1.03262274113737e-16)
(0.564207614050589 0.00157959181570074 6.89480868919729e-17)
(0.56383035822124 0.00172744064641619 2.76307237183866e-17)
(0.56360272714881 0.00188811641602956 3.22222425407075e-17)
(0.563594699645544 0.00210673308906937 8.97386067375142e-17)
(0.564096515210855 0.00252607125124847 8.14940725741969e-18)
(0.565531328248076 0.00301533192146447 -4.8653126772629e-18)
(0.568156353554151 0.00360439755935697 -3.52873066622764e-19)
(0.57227621979632 0.00436713431509609 -4.67236628285793e-17)
(0.57820534035333 0.00558268491111124 1.13955316110398e-16)
(0.586007061603322 0.00655357626831894 6.97656349489794e-17)
(0.595693299495285 0.00737768986292282 2.79463982686966e-19)
(0.607322980572245 0.00814764364076436 -1.6905104783334e-16)
(0.621052572924007 0.00908763563246605 -3.54761550374417e-17)
(0.636816286285975 0.00964076845655168 -7.10401856627059e-17)
(0.654480503982637 0.0098658313258384 1.21731108419237e-17)
(0.673838537542313 0.00991527918402344 -6.00985662155721e-17)
(0.694699327880785 0.00991218492676103 1.2518375909966e-16)
(0.716757831769226 0.00948983594802717 2.31449229700956e-16)
(0.739720281108732 0.00881723490224341 -9.85758125885451e-17)
(0.763262767183463 0.00801137419526576 9.37327963461034e-17)
(0.787167892069263 0.00706824434355108 7.35427185251017e-18)
(0.811225626704739 0.00597234568072292 -1.68473939383534e-18)
(0.835289961587494 0.00485210549299167 8.14646346515616e-17)
(0.859241555941635 0.00371717619533861 -1.80185143939854e-17)
(0.883010211407027 0.00255861524403852 2.58929536310373e-17)
(0.906610865957779 0.00151440994294543 3.12730819647398e-16)
(0.930171042520038 0.000566569747644207 9.72341048538202e-17)
(0.953791811201211 -0.000278679541644649 2.99597785719047e-17)
(0.977456194806625 -0.000950179933230247 6.87128089589798e-17)
(1.00165330002863 -0.00151924416903299 -1.10907307732765e-16)
(1.02639481020253 -0.00191652618783714 7.5470136628417e-18)
(1.05290990263568 -0.00207331549315735 -2.23197787031892e-16)
(1.0786439574015 -0.00197708199758926 -1.08141893278143e-16)
(1.1102803564501 -0.00225913754623644 -2.43756749555149e-16)
(1.12405025541621 -8.22167273817339e-05 -3.0705677944832e-17)
(1.12197069879732 -0.00012224334876925 -1.0549397401198e-16)
(1.12528154979066 0.000227762933091264 -8.20527899265342e-17)
(1.12572600184723 0.000325568369963995 -1.67223209607929e-17)
(1.12680845908512 0.000541325128674867 -9.46148546135534e-17)
(1.12700851223735 0.00058188901780938 -3.27480542206518e-17)
(1.12723725780851 0.000613196643517501 -3.23741344588639e-18)
(1.12721297481851 0.000630588703913381 4.69519945232412e-19)
(1.12709744484453 0.000620484881795239 2.16527860209931e-17)
(1.12692844912977 0.000594388726689429 -2.12283204358393e-18)
(1.12674115828141 0.000566227318087917 -2.31258846189947e-18)
(1.1265026120424 0.000513407731045989 -6.96891429329242e-18)
(1.12628466996866 0.000467361199769412 4.64599192636735e-18)
(1.12557564985092 0.000453666506903567 -1.17393417424635e-18)
(0.12739611226764 0.00316095408200557 -5.37696409385851e-18)
(0.130165842115015 0.0037523091769132 -1.68311470942937e-17)
(0.130252593548399 0.00415371391205295 -1.29871353185108e-17)
(0.130012280035883 0.00446974352085008 -1.07579621776728e-17)
(0.129430174739452 0.00464291447827204 -3.06569429738802e-17)
(0.128674630735336 0.00472510869092009 -1.86719950556411e-17)
(0.127849559866155 0.00476641250406266 -2.31946675494143e-17)
(0.126994063825196 0.00479334052335996 1.31583354134701e-17)
(0.126119241673002 0.00481589732384248 7.39209112855183e-17)
(0.125226210707311 0.00483699740311585 9.52859220603009e-17)
(0.124313489006926 0.00485800780228155 1.05279129399602e-16)
(0.123380102457159 0.00487955736885634 1.06765147584661e-16)
(0.122425809809849 0.00490177829641829 7.09124109556545e-17)
(0.121449357539763 0.00492345665382155 3.63143504181519e-17)
(0.120448682186699 0.00494498589600873 5.6626859553469e-17)
(0.119422599433907 0.00496691951563467 -1.65919768247739e-17)
(0.118370751296472 0.00498969746474754 -1.18603447713759e-16)
(0.117292288009489 0.00501263597664167 -1.28194543478435e-16)
(0.116185332499481 0.00503555478373992 -2.3556339957715e-17)
(0.115048105030149 0.00505890213139136 1.03686857782777e-16)
(0.11387968342736 0.00508322168888043 -9.17470786371988e-18)
(0.112679554002035 0.00510860467839385 -3.90778934071532e-18)
(0.111446037868307 0.00513404576800393 -7.17207934611432e-17)
(0.110176697855807 0.00516003495235781 1.59368605650269e-16)
(0.108869977335575 0.00518728393916333 2.91679200088175e-16)
(0.107525639181415 0.00521666605520828 3.28380690303155e-16)
(0.106142333176718 0.00524644570476753 3.66326068407918e-16)
(0.104717154386225 0.0052767693382185 7.89211060905703e-17)
(0.103247821352556 0.00530856875893327 -1.20004275097402e-16)
(0.101733592398291 0.00534320385934318 5.56036834141415e-18)
(0.100174064107569 0.00538014613763366 6.56984486273873e-17)
(0.0985669840213001 0.00541776915556306 -5.93771251755037e-16)
(0.0969088314617851 0.00545714519512409 -4.68236824192576e-16)
(0.0951981177228354 0.00550039512242543 -2.96597218676161e-16)
(0.0934371382239901 0.00555046822423678 -4.52508421994992e-17)
(0.0916251676451241 0.00560103644321039 5.35355729787901e-16)
(0.0897576482185537 0.00565412474933488 -2.7726884049016e-17)
(0.0878330030138667 0.00571280410566988 -3.87657777832189e-16)
(0.0858559123504263 0.00578249358890593 1.70363977794417e-16)
(0.0838303661358566 0.00585761488431016 1.3810570034949e-16)
(0.0817543963361244 0.00593524446678322 2.96090136622797e-16)
(0.0796252638788938 0.00601951571302309 3.28367495798497e-16)
(0.0774499900080265 0.00611920447203002 2.24160361205794e-16)
(0.0752448413913393 0.00623892981401731 -1.50342067977659e-17)
(0.0730165695819654 0.00635933279708896 -8.69152943958006e-17)
(0.0707615789617266 0.00648702304834309 4.32633299320924e-17)
(0.0684908630761466 0.00663477670621594 -3.72449053791495e-16)
(0.0662461442553771 0.00683091506216913 1.00946351526985e-17)
(0.0640545628096811 0.00702633008077231 1.86219643798647e-17)
(0.0619211260184496 0.00722996778364261 7.8211987336495e-17)
(0.059866345629224 0.00745951749093485 3.26462216839034e-17)
(0.0579636808441696 0.00775638185688222 -3.37204300343295e-16)
(0.0562918982336815 0.00809272578971848 2.17608648120521e-16)
(0.054902809946695 0.00842483947036825 8.07456784587224e-17)
(0.0538305072934803 0.00878252326120075 9.19551596418001e-17)
(0.0532197015013283 0.00925696479853394 2.74084250888141e-16)
(0.0535538167505107 0.0101120375397004 2.14679151153969e-17)
(0.0554404500668801 0.0111089742156495 -1.50893268346181e-17)
(0.05932100191075 0.0122892833128602 2.72652175889908e-18)
(0.0658553899727444 0.0138059677188759 -1.43324085546104e-16)
(0.076224748643507 0.0161371271547307 -1.34486774563288e-16)
(0.0909972578595667 0.0179794461423221 -3.25007115330331e-17)
(0.110064282240663 0.0194689018203816 2.52335875109463e-18)
(0.13354082164886 0.0208129063006643 -2.88794390352783e-16)
(0.162055172378431 0.0223865024102903 -1.11187515688728e-16)
(0.19559039591016 0.0231514517783666 4.76493635666337e-19)
(0.233444613879805 0.0232014898052021 4.77237638205146e-17)
(0.275096209723622 0.0228541900830096 -1.8665712818674e-16)
(0.320344503254814 0.0223142849684358 1.5140882275954e-16)
(0.368495037032787 0.0209139476023366 4.81745313543099e-16)
(0.4185643479153 0.0189845426617084 1.22185256464797e-16)
(0.469883333182316 0.0167639324475502 2.92585566214362e-16)
(0.521959167653114 0.0142518542896692 2.51338488238287e-17)
(0.57422072512265 0.0114399144887466 7.41010113432279e-18)
(0.626285035976058 0.00858288392764357 7.12845225693424e-16)
(0.677916217122345 0.00570114358027424 -4.43568961345052e-17)
(0.728884127967949 0.00279276184116121 -3.85420086499356e-16)
(0.779200252884724 0.000131391931735267 5.12677373459796e-16)
(0.829152410136119 -0.00233381916214862 2.93349856810858e-16)
(0.878964755695892 -0.00458722518216964 7.71244450622911e-17)
(0.928716670032046 -0.00649710894634483 2.1756613863917e-16)
(0.979431320918641 -0.00818945117858518 -1.18255591379269e-16)
(1.03087019214719 -0.009576679399908 3.40444430286451e-17)
(1.0861802322036 -0.0105178954362416 -4.57070412526779e-16)
(1.1400061476337 -0.0109322898537959 -2.93742546635799e-16)
(1.20681503951925 -0.0108484811632354 -5.3340873609232e-16)
(1.23392621558818 -0.00126021111883124 -8.6509097738159e-17)
(1.22593549783343 -0.000840692642868488 -1.25438061875146e-16)
(1.2305751608085 -0.000118276135237152 -5.79315356521459e-17)
(1.22908418273787 0.000191142278980036 -4.63017082093818e-17)
(1.2297719825392 0.000634884886985719 -1.87581501021931e-16)
(1.22924499407976 0.000788012603361281 -9.42001527556254e-17)
(1.22903405353036 0.000897206000889065 -1.03583538840199e-16)
(1.22857279713355 0.000978438145242605 9.46143738430371e-17)
(1.22812669249448 0.001006820438094 -2.74221243536392e-17)
(1.227624117905 0.00100338727302585 -8.22929069913381e-18)
(1.22714494492262 0.000991202984414045 -5.10513542934807e-17)
(1.22661096463523 0.000933425404887197 -2.20021434137058e-17)
(1.22623074216568 0.00088334508153589 1.21686534472921e-17)
(1.22554618858708 0.000816836401966782 1.13829537075191e-18)
(-0.173105169560822 0.007388332810442 -8.00512342872161e-18)
(-0.170397631002717 0.0079100711181962 -1.94869451293839e-17)
(-0.170661911317443 0.00901360550632672 -2.2560874342117e-17)
(-0.171303897428129 0.00973678280288364 -1.34846099148351e-17)
(-0.172256674199007 0.0100958071275628 -2.22896040179478e-17)
(-0.17335732484294 0.0102575332956735 -2.04062546424385e-17)
(-0.17452031352716 0.0103347925292573 -5.69724683567608e-17)
(-0.175716106592473 0.0103820113007451 -1.38260133957876e-17)
(-0.176936854996549 0.0104203692214761 4.28738276323766e-17)
(-0.178181997763012 0.010456613555956 7.04717145366713e-17)
(-0.17945295767458 0.0104929909012121 8.72791285475328e-17)
(-0.180750867084465 0.0105302629453042 9.86289450730173e-17)
(-0.182076402288919 0.0105684719923279 6.24695955701769e-17)
(-0.18343104042873 0.0106067029305457 2.81676057472646e-17)
(-0.184816924549321 0.010645192001306 -2.07573787524368e-19)
(-0.186235577705971 0.0106844659698391 -1.25626968560039e-17)
(-0.187687897265324 0.0107248807286683 -1.4011190562503e-17)
(-0.189175161789265 0.0107659422150394 -3.64714705708769e-17)
(-0.190699462384535 0.0108075015504897 7.45764043508329e-17)
(-0.192262868459652 0.010849966462649 2.45990970995915e-16)
(-0.193866826646836 0.0108938500197029 -9.08446568765769e-17)
(-0.195512464271117 0.0109392184258301 -2.63844899072146e-17)
(-0.197201829475658 0.0109853261996206 -1.26936917722709e-16)
(-0.198937645402368 0.0110325567930199 2.07144322630322e-16)
(-0.200721954739602 0.0110816491564652 4.19534602851994e-16)
(-0.202555707278447 0.0111332746955377 3.37760053831326e-16)
(-0.204440766225724 0.0111861068033473 4.15802789101699e-16)
(-0.206380450425808 0.0112402062006207 1.89140202772007e-16)
(-0.208377593251611 0.011296512450448 3.7484236423827e-18)
(-0.210433599045608 0.011356246743822 2.67586736326409e-17)
(-0.212549500604324 0.0114189764779833 4.73753590450858e-18)
(-0.214728158471256 0.011483388242891 -6.29072212874161e-16)
(-0.216973553330767 0.0115504061462209 -5.33757575623786e-16)
(-0.219287791645401 0.0116222436622179 -5.09592641894261e-16)
(-0.221669024726175 0.0117011529676271 1.33916420322231e-17)
(-0.224118361931074 0.0117820622166705 5.39399135968287e-16)
(-0.226640923977509 0.0118663830593778 3.20439235470183e-17)
(-0.229238637748707 0.0119574491724207 -2.62582221891245e-16)
(-0.231906710855035 0.0120598151561081 3.5668699888872e-17)
(-0.234640579381534 0.0121687754728971 1.29489351874912e-16)
(-0.237442488782862 0.0122815435399004 2.97204361438926e-16)
(-0.240315057881267 0.0124020476861968 4.94119394527879e-16)
(-0.243250695856495 0.0125388331094254 2.60473977109819e-16)
(-0.246229296711813 0.0126950803482592 2.01317628684562e-17)
(-0.249242067394434 0.012854324719062 2.50056841638695e-17)
(-0.252292293314958 0.0130211373555626 1.35421520192548e-16)
(-0.25536820364766 0.013210055327187 -2.21812945408268e-16)
(-0.258416116661484 0.0134432015387252 5.76688989044509e-17)
(-0.261399066119002 0.0136790004423618 2.57919743076218e-17)
(-0.264312962112968 0.0139218409665189 4.08635989260983e-17)
(-0.267131419365889 0.0141915684580971 -1.64331443518761e-17)
(-0.269763245762438 0.0145240490817657 -3.20005390694654e-16)
(-0.272096645897113 0.0148927453763691 1.02745160797126e-16)
(-0.274071914168564 0.0152574888010226 1.25876036400305e-16)
(-0.275645322446283 0.0156426075439952 1.41866403938388e-16)
(-0.276672580937648 0.0161542048726152 2.00667984259245e-16)
(-0.276563454470175 0.0170063108593011 2.36367450172189e-17)
(-0.274609780676477 0.0180052815873163 -2.70791554072378e-17)
(-0.270304715635404 0.0191545230602106 1.59118196494278e-17)
(-0.262912138684726 0.0206554470681975 -2.41245519670586e-16)
(-0.250655388887735 0.0228106440732593 -3.77555970298161e-16)
(-0.232611286198034 0.0245094450919343 -1.35418029403821e-16)
(-0.209128610748179 0.0257594973718568 1.39458324635264e-17)
(-0.180096470135495 0.0268380484750946 -2.01714556207028e-16)
(-0.14450018847083 0.0279724539218458 2.88361087564835e-17)
(-0.102237088875794 0.0282878592006595 6.64207615672531e-17)
(-0.0544958788398053 0.0278065089239662 1.02786902029159e-16)
(-0.00198840530137671 0.0268801029871912 -3.28617085276086e-16)
(0.0552486069809245 0.0256356014564984 -4.15487874391305e-17)
(0.11632743479365 0.0235371509277768 5.31381742200313e-16)
(0.179745616862469 0.0208612681929342 3.11442973414438e-16)
(0.244719900578694 0.0178643974463644 5.11535540612965e-16)
(0.31065364573218 0.0145560572610251 4.06037423231526e-17)
(0.376725198720125 0.0109589217501283 1.19243954019222e-17)
(0.442403378106489 0.00731225008712559 9.65134299940223e-16)
(0.507463230778997 0.00364449293911886 -6.87253952698495e-17)
(0.571481978251761 -2.45989744170868e-05 -3.8722016601035e-16)
(0.634460983401222 -0.00343763843803487 3.31932475141258e-16)
(0.696831463398208 -0.00663886097286373 5.07412355694294e-16)
(0.758818748977842 -0.00962580354228416 1.12645226296688e-16)
(0.820507959961782 -0.0122823320132547 3.89783066235518e-16)
(0.883201640881352 -0.0146970540811608 -1.37736394334759e-16)
(0.946486535952054 -0.016810984863991 7.73594107093037e-17)
(1.01437993218978 -0.0185842270178799 -4.98296548036861e-16)
(1.08041717024213 -0.0197278346377298 -4.36921639940209e-16)
(1.16320817850509 -0.018999752005601 -6.41193044229129e-16)
(1.19615159811866 -0.00165398997011585 -1.33463906309316e-16)
(1.18468320339762 -0.000992532203291642 -1.57301406138739e-16)
(1.18986012229734 -0.000237037629493954 -4.50614053922748e-17)
(1.18742550948016 0.00011666419833249 -7.49734443030879e-17)
(1.18794923291796 0.000519400638950045 -1.91066048363915e-16)
(1.18718385495288 0.000705269956321868 -1.52433705721955e-16)
(1.1868476154618 0.000823275608805716 -1.14487857936824e-16)
(1.18627796122529 0.000907810501574818 1.9538068808643e-16)
(1.18578598642082 0.000945230714712926 -7.82016855820487e-17)
(1.18523542694555 0.000950608777308493 -6.14966796498955e-17)
(1.18473869645065 0.000939379632337942 -5.52626007879057e-17)
(1.18420187499584 0.000889897688105218 -3.61056374379001e-17)
(1.18391421977016 0.000830697686129813 1.99793862119905e-17)
(1.18355266635811 0.000652068926515619 3.14434129969984e-18)
(-0.313743161760852 0.0100238458057401 -5.15201683240567e-18)
(-0.313628842936672 0.0112229655081267 -1.04247934639105e-17)
(-0.314884338733313 0.0129131344621434 -1.40138615812628e-17)
(-0.316126564648257 0.0138842644783025 -1.19606976055075e-17)
(-0.317368899947312 0.0143318625724003 -2.00284305286844e-17)
(-0.318617803958149 0.0145273285009696 -4.11641379288729e-18)
(-0.319879250849792 0.0146210365040922 -3.56017212518827e-17)
(-0.321159416118867 0.0146794803388716 -4.94793210806559e-17)
(-0.322461979669444 0.014727919158023 2.35077829044027e-17)
(-0.323789133985085 0.0147744165655493 4.90327035875421e-17)
(-0.325142488478974 0.0148213422644666 6.87078990455782e-17)
(-0.326523133875204 0.0148693611938167 1.04202005090798e-16)
(-0.327931904285152 0.014918469654519 5.18081465146189e-17)
(-0.329370162620796 0.0149681411612165 1.28276284816117e-17)
(-0.330839731702549 0.0150184823726948 -6.64288480421066e-17)
(-0.33234212024007 0.015069867717823 -1.67947350205707e-17)
(-0.333878477142558 0.0151225303750611 -6.46064861899839e-17)
(-0.335450182006274 0.0151762157151561 1.51927397188442e-17)
(-0.33705913915024 0.0152308475653993 1.55621514236429e-16)
(-0.338707281382109 0.0152867122794065 2.37278658129965e-16)
(-0.340396192136503 0.015344180838408 -1.2857940386634e-16)
(-0.342127257291381 0.0154033110517387 -2.96017604807254e-16)
(-0.343902462687777 0.015463700838518 -1.52738009798656e-16)
(-0.345724266209464 0.0155255937501971 1.33233926003456e-16)
(-0.347594720101226 0.0155895474431166 3.40060664347595e-16)
(-0.349515150959632 0.0156559781554187 3.16093749029365e-16)
(-0.351487503528591 0.0157241363077506 2.60777405705371e-16)
(-0.353514795240363 0.0157940494085714 2.03214388983848e-17)
(-0.355599745825829 0.0158664086150533 8.24038581609704e-17)
(-0.357744038845146 0.0159420486722877 5.86405587400591e-17)
(-0.359949038921222 0.0160207272570657 6.93368010260676e-17)
(-0.362217510859452 0.0161016636462185 -5.44259123534459e-16)
(-0.364553011289553 0.0161854618788765 -5.83648209419988e-16)
(-0.366957704207397 0.0162737495562655 -3.33258548105885e-16)
(-0.369430532194617 0.016367875986951 6.58943972857038e-17)
(-0.371972690419487 0.0164647440790159 7.20971744644951e-16)
(-0.374588576683951 0.0165651177272883 7.19507956675885e-17)
(-0.377279966565096 0.016671464367429 -2.13927066388694e-16)
(-0.380042962296953 0.0167866807234801 -4.86314813716808e-17)
(-0.382873491009634 0.0169077396974992 1.14360876057946e-16)
(-0.38577326831404 0.0170326982969125 2.94549463360176e-16)
(-0.388744065048225 0.0171642007990372 5.15201706635826e-16)
(-0.391779051158362 0.0173081657307316 3.00378785108498e-16)
(-0.394859352590388 0.0174662275717283 2.51899060599238e-17)
(-0.397975970647331 0.0176276340064693 -6.99982633396024e-17)
(-0.401130363111126 0.0177947086468073 2.73797629384136e-16)
(-0.40431145908507 0.0179782144996972 -1.34589246458245e-16)
(-0.407467485581336 0.0181914054812493 1.35072794315093e-16)
(-0.410560900329678 0.0184068822388122 3.01973122233007e-17)
(-0.413586387102166 0.0186259114859573 1.67480438506586e-17)
(-0.416516929130631 0.0188628140643104 -2.95436556434757e-17)
(-0.419264448628106 0.0191404930942373 -4.13585985133056e-17)
(-0.421714596552694 0.019439374078794 1.62713687959108e-17)
(-0.423808783264281 0.0197312358409365 -1.24832920791654e-16)
(-0.425498540477393 0.0200297886815179 1.89504622561579e-16)
(-0.426655896545561 0.0204126379761657 1.41440664492717e-16)
(-0.426713683531814 0.0210112882228764 1.88535991460557e-17)
(-0.424999608742264 0.0216945386825717 -4.29526385633598e-17)
(-0.421021546175892 0.0224445033542823 4.69861861275736e-17)
(-0.414092839650262 0.0234113956318828 -3.38460673283173e-16)
(-0.40235620425676 0.0247452103250336 -3.87704109653209e-16)
(-0.384800706468563 0.0256952698752206 -2.37442104928982e-16)
(-0.361828171816676 0.0262322600886124 3.39876874626939e-17)
(-0.333348997126842 0.0265754578370058 -1.34282618227241e-16)
(-0.298286974793473 0.0268368558280433 -5.85498583908687e-17)
(-0.256477505279128 0.0264342575351561 1.16863693563673e-16)
(-0.209204826744635 0.0253769587059537 1.79084216494338e-16)
(-0.157208997130545 0.0239375737410359 -2.7493700028905e-16)
(-0.100451711238073 0.022184910615412 -2.7549007353012e-17)
(-0.0398076748116295 0.0197822350847198 3.89320903011721e-16)
(0.0231257770500087 0.0169301309119612 2.63315720664042e-16)
(0.0875832149134571 0.0138265553194849 3.31162970232704e-16)
(0.15297621461805 0.0104864237231719 4.38108811767698e-17)
(0.218444348658025 0.00694480510443479 1.49781776308126e-17)
(0.283429875056622 0.003374090000033 8.91036652511336e-16)
(0.347734267172846 -0.000202442399237785 -1.00953038278685e-16)
(0.410877537449889 -0.0037576223642345 -4.21407876788565e-16)
(0.472843644017708 -0.00711508976726542 2.22596068457028e-16)
(0.53408248041914 -0.010309728231996 3.24902300868193e-16)
(0.594788664716735 -0.013345011779266 1.17405889874385e-16)
(0.655025656967547 -0.0161484086239117 1.7107412207991e-16)
(0.716082799036596 -0.0187759074065287 2.92455517476491e-17)
(0.777472598405158 -0.0212185600626108 1.43278994084481e-16)
(0.843195081177783 -0.0234449058036907 -5.51948439359658e-16)
(0.907007801988254 -0.0252197836408601 -5.43744923548459e-16)
(0.988504649533808 -0.0239131417745359 -5.778986070266e-16)
(1.02038979347043 -0.0015750516355348 -1.71071569866812e-16)
(1.00751980110443 -0.000694559580019292 -1.96394080413609e-16)
(1.01233602444332 -0.000218600658543489 -4.43670177398055e-17)
(1.00969999829396 7.76363029212062e-05 -1.07358242859672e-16)
(1.01010311887512 0.000327751021499452 -1.09039353544403e-16)
(1.00935010377536 0.000470177454970501 -1.18826921800515e-16)
(1.00904213080828 0.000550716904808312 -1.27289280901268e-16)
(1.00854275786093 0.000610385192537615 1.28047793938985e-16)
(1.00814724658451 0.000637284906194574 -5.0155476075225e-17)
(1.00769988950391 0.000642309901689348 -2.80329418270686e-17)
(1.00731547963168 0.000633995903769657 -1.56473677773371e-17)
(1.00689977796031 0.000598568113420073 -2.79401540052957e-17)
(1.00673553258718 0.00054917983344316 2.90836244182163e-17)
(1.00655648469899 0.000411103066404576 4.72549472823498e-18)
(-0.300896473158573 0.00989244970276753 -5.5916860269142e-19)
(-0.304295512822765 0.0115012716508976 -2.94886731502252e-18)
(-0.306479220546503 0.0130576923830338 -8.20533627696711e-18)
(-0.308067053792973 0.0138625706253861 -2.57447640904328e-19)
(-0.309297603914804 0.0142085213574558 1.56691407839721e-17)
(-0.310388928082106 0.0143565054258048 1.70874015589041e-17)
(-0.311443627054724 0.0144302938426809 -1.73664768592137e-17)
(-0.312500583417017 0.0144797561491478 -2.70906184927733e-17)
(-0.313572785137901 0.0145228668476709 1.67965151810062e-17)
(-0.314664304110153 0.0145651435007182 2.92613402309365e-17)
(-0.315776602310593 0.0146080686540867 4.11793765443831e-17)
(-0.316910442911214 0.0146519973155205 5.49398317557374e-17)
(-0.318066472644836 0.0146969219759259 3.26455468746838e-17)
(-0.319245671481425 0.0147426037984106 1.00317949376706e-17)
(-0.32044931578554 0.0147890982451787 -1.98247405946559e-17)
(-0.321678572133488 0.014836599647764 9.89987249653975e-18)
(-0.322934434969579 0.0148852409131406 6.07028520619869e-19)
(-0.324218013469673 0.0149349309061996 3.94037937678344e-17)
(-0.325530711426585 0.0149856587532249 9.67941734179638e-17)
(-0.326873977806736 0.0150375804911519 6.96719366441064e-17)
(-0.328249101290759 0.0150909006771895 -2.02276432291762e-16)
(-0.329657258927557 0.0151456759768244 -2.06617537294268e-16)
(-0.331099966250391 0.0152017487656233 -2.28215708630715e-16)
(-0.332579026054728 0.0152592585685286 7.51895284058846e-17)
(-0.334096043415399 0.0153185036264293 3.22480345452622e-16)
(-0.335652196444882 0.015379709842902 3.15417889460544e-16)
(-0.337249021371745 0.0154425605679444 1.57627845113887e-16)
(-0.338888739944794 0.015507098223216 4.79696079719122e-17)
(-0.340573426785367 0.0155736860636155 1.73939320296894e-16)
(-0.342304509075901 0.0156427561589446 8.0245654596345e-17)
(-0.344083168361415 0.0157142283048193 1.26335943746975e-17)
(-0.345911504140897 0.0157877670457027 -3.06060379064031e-16)
(-0.347792115589485 0.0158636812888085 -4.46094283144991e-16)
(-0.349726738452165 0.015942777621109 -1.95640057911848e-16)
(-0.351714847139912 0.0160257346337482 7.04442406169476e-17)
(-0.353757371731899 0.0161110740674016 6.63128458021731e-16)
(-0.35585744468229 0.0161991803988657 6.81929978994381e-17)
(-0.358016438773775 0.0162912368841904 -2.21987647717815e-16)
(-0.360231680957993 0.0163886294411792 -1.1398113147529e-16)
(-0.362500132555749 0.0164898534940277 1.01129345108593e-16)
(-0.364822890522841 0.0165939588878767 2.88765835586637e-16)
(-0.367201054854874 0.0167021460536638 3.93872847525219e-16)
(-0.36962973296207 0.0168171666137032 1.51750211616956e-16)
(-0.372094610339068 0.0169396664565414 8.99523884022923e-18)
(-0.37458848219671 0.0170642438378517 -2.20527059514225e-16)
(-0.377111798914892 0.0171918643160904 1.21800911432323e-16)
(-0.3796566405563 0.0173274009139628 -1.11485863771984e-16)
(-0.382183286889785 0.017476912159981 2.47829884982075e-16)
(-0.38466193387269 0.0176263172420955 2.75522486431883e-17)
(-0.387088061710584 0.0177760480856713 3.90326364446541e-18)
(-0.389440973381278 0.017932276011123 -3.13559235048622e-17)
(-0.391653565087658 0.0181050725282593 -8.18171579966671e-17)
(-0.393635132449578 0.0182832981259011 -5.30187131714604e-17)
(-0.39534045406203 0.0184522079788948 -1.10158714827512e-16)
(-0.396730389007246 0.0186165289975041 2.58768181659411e-16)
(-0.397716482442556 0.0188100870877364 8.73254294614608e-17)
(-0.397867729447131 0.0190897821568468 1.06028715631109e-17)
(-0.396674902815318 0.0193812523128598 -6.59351314054274e-17)
(-0.393762505560028 0.0196665835521203 1.04651580536436e-16)
(-0.388627183634815 0.0200068482840358 -2.00227407044755e-16)
(-0.379781777967011 0.0204564491701754 -4.01971550741515e-16)
(-0.366390924776748 0.0206298645698295 1.19981403915751e-16)
(-0.348792577751065 0.0205210341080847 6.57063710537136e-17)
(-0.326935729853096 0.0202355174917252 -7.69366021571699e-17)
(-0.299951701882668 0.0198170677936131 -1.56233147496517e-16)
(-0.267676116554698 0.018976633753482 1.55962942858572e-16)
(-0.23115300981138 0.0177400373823307 6.1118873837517e-17)
(-0.190979457198302 0.0162527117824319 -2.42098090253656e-16)
(-0.147090577094421 0.0145489187440908 -1.69214933180135e-17)
(-0.100157577933628 0.012474405932287 2.65603659030776e-16)
(-0.0514713912070379 0.0101534802594913 2.04061283142685e-16)
(-0.00162529417441219 0.00769328419295968 1.83698774664692e-16)
(0.0489253403060452 0.00510808503586191 3.49719659714674e-17)
(0.0994906183302479 0.00242687469387981 1.05647707987877e-17)
(0.149619716409843 -0.000257382347632031 4.85192595801258e-16)
(0.199168579341417 -0.00293263607739008 -1.40800574994661e-16)
(0.24773602881072 -0.00557973281830789 -4.86630829219908e-16)