/*--------------------------------*- C++ -*----------------------------------*\
  =========                 |
  \\      /  F ield         | OpenFOAM: The Open Source CFD Toolbox
   \\    /   O peration     | Website:  https://openfoam.org
    \\  /    A nd           | Version:  8
     \\/     M anipulation  |
\*---------------------------------------------------------------------------*/
FoamFile
{
    version     2.0;
    format      ascii;
    class       volVectorField;
    location    "0.0555000";
    object      cellDisplacement;
}
// * * * * * * * * * * * * * * * * * * * * * * * * * * * * * * * * * * * * * //

dimensions      [0 1 0 0 0 0 0];

internalField   nonuniform List<vector> 
900
(
(2.16803531193966e-28 -7.29393842839576e-07 -4.82708126764736e-14)
(2.0960735348356e-28 -7.31781896427773e-07 -4.52920745233689e-14)
(2.06714541749015e-28 -7.36091057050139e-07 -5.45909453682295e-15)
(2.0138084599995e-28 -7.41475419281811e-07 -5.66881955152707e-14)
(1.98483953508473e-28 -7.47563190881268e-07 7.56754044644364e-14)
(1.92978729680914e-28 -7.54227911729626e-07 2.04093846642631e-13)
(1.90128312022466e-28 -7.61547826577902e-07 1.18236325658556e-13)
(1.84810032286075e-28 -7.69494743374569e-07 4.18403610976305e-14)
(1.82009572591541e-28 -7.77904677771665e-07 9.07642991057775e-14)
(1.76853615370574e-28 -7.86733567093153e-07 7.81119469804725e-14)
(1.74096521110502e-28 -7.96067258515301e-07 -1.4358217000146e-14)
(1.69098445540979e-28 -8.05876757260203e-07 -1.50019508126998e-15)
(1.66373590625603e-28 -8.16036552968313e-07 7.23790024627233e-14)
(1.61521275192219e-28 -8.26560721487048e-07 -5.32702460865026e-14)
(1.58828807384357e-28 -8.37508837055935e-07 -1.19843139814978e-13)
(1.54119767774502e-28 -8.48857122614074e-07 1.77004619864961e-14)
(1.51452885015027e-28 -8.60534264180176e-07 1.07044188818579e-14)
(1.46880750987954e-28 -8.72559921292149e-07 -1.07384024443533e-13)
(1.44243392219321e-28 -8.84990858151343e-07 -9.92452673714234e-14)
(1.39805834042627e-28 -8.97804612596941e-07 6.71159014461965e-14)
(1.37192572890439e-28 -9.1094529078946e-07 4.14381839212621e-14)
(1.32887306139633e-28 -9.24462466142433e-07 1.29077137276246e-14)
(1.30303489076034e-28 -9.38414328997766e-07 -4.49369727921028e-15)
(1.26127455955047e-28 -9.52770364610284e-07 -2.97382897771349e-14)
(1.23570636480768e-28 -9.67493504264546e-07 1.02524755622363e-13)
(1.1952450831983e-28 -9.8266183666213e-07 1.9931465006943e-13)
(1.16998672688806e-28 -9.98327094612453e-07 1.03902691236573e-13)
(1.13078598291307e-28 -1.01444246852628e-06 -2.48261838242649e-15)
(1.10584427061019e-28 -1.03099146266819e-06 -1.56975400132335e-14)
(1.06793422886427e-28 -1.04810680921015e-06 -8.80509167204993e-15)
(1.04334583318572e-28 -1.06584516120161e-06 6.32765619549398e-15)
(1.00668112049923e-28 -1.08413228653028e-06 -1.7258201488716e-15)
(9.82468523401033e-29 -1.10298338983324e-06 -6.04054954243323e-14)
(9.47100657412093e-29 -1.12261779487303e-06 -5.95250705382526e-14)
(9.23301777414031e-29 -1.14310510381861e-06 -6.76801726548197e-14)
(8.89190364949075e-29 -1.16433948829585e-06 -7.85735511494174e-14)
(8.65860911129628e-29 -1.18643454929989e-06 4.59757687057942e-15)
(8.33063816065786e-29 -1.20968757790368e-06 -1.04869944911715e-13)
(8.1023279440904e-29 -1.23417258001269e-06 -6.19796206525736e-14)
(7.78738013382156e-29 -1.25979599558802e-06 1.2054730023497e-13)
(7.56507194480197e-29 -1.28683421274659e-06 9.95664113146622e-14)
(7.26363731986323e-29 -1.31572113541216e-06 -9.42594422617708e-14)
(7.05355876551796e-29 -1.34652103607162e-06 -1.87213867566298e-13)
(6.79783701840519e-29 -1.379167464079e-06 1.95211667840463e-14)
(6.44524653452051e-29 -1.41429194965529e-06 1.97143878937425e-14)
(6.29230728930695e-29 -1.45253152539573e-06 -4.90672686065875e-14)
(5.92617912313977e-29 -1.49385663498568e-06 -5.13638026922149e-14)
(5.83290116350346e-29 -1.53826837535913e-06 1.74846128012541e-14)
(5.48288833192407e-29 -1.58713175974293e-06 4.56575765669269e-14)
(5.39620637226251e-29 -1.64135919209061e-06 4.90555017164875e-14)
(5.06788443147441e-29 -1.70062139439295e-06 7.61414040620284e-14)
(4.98321898800691e-29 -1.76521425568781e-06 -3.51224668668813e-14)
(4.67960612986282e-29 -1.8377543879158e-06 -1.22443448113172e-13)
(4.59719852611717e-29 -1.91934574047743e-06 -8.56297196495012e-14)
(4.31681416244863e-29 -2.00909532920205e-06 1.32064858067603e-13)
(4.24007823692596e-29 -2.10862894273198e-06 1.99338389965024e-13)
(3.98383572540628e-29 -2.22164966060954e-06 2.01669616870157e-13)
(3.91146533289811e-29 -2.34919922481314e-06 7.00772491385365e-14)
(3.67894236207506e-29 -2.49039085121665e-06 -7.06474810455559e-14)
(3.61625626530022e-29 -2.64919876224098e-06 -3.30155002257574e-14)
(3.40651939717632e-29 -2.83164227837878e-06 -1.0368678371617e-13)
(3.35051179565024e-29 -3.04252712230938e-06 -8.10404551551189e-14)
(3.16728909410894e-29 -3.28713998988926e-06 -1.16349067599315e-13)
(3.12971462855753e-29 -3.58982653668129e-06 -1.49062447457243e-13)
(2.97904288589512e-29 -3.97249554592665e-06 4.54765933569912e-14)
(2.9698531702147e-29 -4.4331573206448e-06 7.79787777567426e-14)
(2.88183941309521e-29 -4.97264342709665e-06 -1.35976351154609e-15)
(2.92245133927399e-29 -5.61445080527147e-06 -2.87408200769543e-14)
(2.8773607204329e-29 -6.35361431460896e-06 2.06246659342527e-14)
(2.96494159671145e-29 -7.16410437010334e-06 1.1443038627435e-13)
(2.96634426446755e-29 -8.05158154220061e-06 2.16302836371098e-14)
(3.08495152534374e-29 -9.01695002098574e-06 -2.2695833822892e-13)
(3.09747149287387e-29 -1.00398435776194e-05 -1.85703073405829e-13)
(3.23987057190364e-29 -1.11031045551982e-05 6.00408851082885e-14)
(3.24734043540995e-29 -1.22000080888889e-05 -6.17591797882013e-14)
(3.38448182309929e-29 -1.33110782796493e-05 -5.28371093217471e-14)
(3.36048687140275e-29 -1.44162458755977e-05 3.42893280172175e-16)
(3.46660839539694e-29 -1.55021201855837e-05 -3.73948099382414e-14)
(3.3831045785322e-29 -1.65422903379396e-05 1.66157996347848e-13)
(3.43586070988689e-29 -1.75203542054831e-05 1.29819807296048e-13)
(3.25614198174529e-29 -1.84330567386786e-05 -5.40631123933142e-14)
(3.22284965144523e-29 -1.92468691735802e-05 -2.33152631560746e-14)
(2.96084150030039e-29 -1.9941733416008e-05 5.6807976025216e-14)
(2.83320514897587e-29 -2.05278872110885e-05 -6.20454257838486e-14)
(2.45845513793153e-29 -2.09916347284453e-05 -1.0072325072678e-13)
(2.26710212524366e-29 -2.13098907854096e-05 -8.68325812420292e-15)
(2.00024922065495e-29 -2.15042290624372e-05 1.64585476522737e-13)
(2.06438384228246e-29 -2.16069379830408e-05 2.34206971445213e-13)
(2.05386844951947e-29 -2.16171431161007e-05 6.97604339576182e-14)
(1.95846210657185e-29 -2.1555587953683e-05 -5.9494011339385e-14)
(1.97830927465582e-29 -2.14532552424562e-05 -3.73747464941373e-14)
(1.86539860900205e-29 -2.131858526331e-05 9.18495992552733e-14)
(1.8744019703431e-29 -2.11600265115192e-05 1.07129196726195e-13)
(1.75998711663306e-29 -2.09875310768588e-05 3.69861226699739e-14)
(1.75990332137541e-29 -2.08067520434068e-05 1.59631279145295e-14)
(1.64886594675865e-29 -2.06216217757954e-05 -8.46913997218275e-14)
(1.6479404545869e-29 -2.04370518439224e-05 -1.09031992263483e-15)
(1.54351999209394e-29 -2.02566234021013e-05 1.06427936199849e-13)
(1.54247551112065e-29 -2.00885720569115e-05 5.78350139271947e-14)
(1.43050290108604e-29 -1.99489642452187e-05 7.37486331824911e-15)
(6.06759038336891e-28 -1.93982918544438e-06 -1.42372431741779e-13)
(5.86857692201821e-28 -1.94075665035582e-06 -1.33755187631261e-13)
(5.78709318212304e-28 -1.94351490398633e-06 -1.60050583262881e-14)
(5.63751308644982e-28 -1.94720701146857e-06 -1.67654649176074e-13)
(5.55546094225263e-28 -1.95151274295707e-06 2.22614628729448e-13)
(5.40161993153512e-28 -1.95632239696429e-06 6.02549609189349e-13)
(5.32072513201465e-28 -1.9617063147894e-06 3.49585374259005e-13)
(5.17181316983439e-28 -1.96764007901102e-06 1.23566225676763e-13)
(5.09221644330402e-28 -1.97397884705961e-06 2.68050889193699e-13)
(4.94768653872738e-28 -1.98068432638801e-06 2.31136564071683e-13)
(4.86923923779093e-28 -1.98783321456665e-06 -4.22685489510451e-14)
(4.72897653830726e-28 -1.99540013187677e-06 -4.71659508275289e-15)
(4.65143868085329e-28 -2.0032739364094e-06 2.14239168771696e-13)
(4.51517463010416e-28 -2.01146746810301e-06 -1.57008423599151e-13)
(4.43855038962126e-28 -2.02003417916708e-06 -3.54751873965786e-13)
(4.30622599392833e-28 -2.0289531020333e-06 5.20711191181711e-14)
(4.23037762539931e-28 -2.038160578536e-06 3.20778792361789e-14)
(4.10184577582978e-28 -2.04767467683583e-06 -3.17541240431016e-13)
(4.02686321937324e-28 -2.05754612491444e-06 -2.94319321030317e-13)
(3.90207466901982e-28 -2.06775487133744e-06 1.98399038274667e-13)
(3.8278532364522e-28 -2.07825097580648e-06 1.22853603758299e-13)
(3.70675245102529e-28 -2.08907890900118e-06 3.83501742884038e-14)
(3.63341433378864e-28 -2.10029065615745e-06 -1.31912386225342e-14)
(3.51593359159014e-28 -2.11185864446421e-06 -8.84686315090247e-14)
(3.44344360749385e-28 -2.12374963713772e-06 3.03223201866235e-13)
(3.32959866940157e-28 -2.13603348796927e-06 5.90857898897433e-13)
(3.25804666849833e-28 -2.14875652226301e-06 3.08588383730509e-13)
(3.147751183106e-28 -2.16187648576802e-06 -7.07316235262393e-15)
(3.07717313647322e-28 -2.17537792131911e-06 -4.65469225423235e-14)
(2.97049208898121e-28 -2.18937963929226e-06 -2.61818114808522e-14)
(2.90097609405568e-28 -2.20393224766987e-06 1.87631201739783e-14)
(2.79781491583701e-28 -2.21896842448067e-06 -4.92863491875642e-15)
(2.72942721218194e-28 -2.23450071673804e-06 -1.79164618458746e-13)
(2.62989311362979e-28 -2.25072531519998e-06 -1.76700148826049e-13)
(2.56273166516832e-28 -2.26770407966595e-06 -2.00922439547388e-13)
(2.46674625054734e-28 -2.28534000164247e-06 -2.33582751943382e-13)
(2.40094987459871e-28 -2.30373361283781e-06 1.37756022441617e-14)
(2.30863319526915e-28 -2.32315061318861e-06 -3.11457907162479e-13)
(2.24428543174625e-28 -2.34365609429548e-06 -1.84814010269878e-13)
(2.15562860602687e-28 -2.36516191587092e-06 3.57944483495245e-13)
(2.09296839225311e-28 -2.38791375257246e-06 2.96610093890412e-13)
(2.00806925794519e-28 -2.41229951631666e-06 -2.7956860596287e-13)
(1.94853441433795e-28 -2.43837381429376e-06 -5.57169452087901e-13)
(1.87559318011688e-28 -2.4660684090524e-06 5.75736196111963e-14)
(1.78082792814131e-28 -2.49594726267759e-06 5.88486624637021e-14)
(1.73468286698589e-28 -2.52858019370623e-06 -1.45851720002855e-13)
(1.63429735025386e-28 -2.56393334810481e-06 -1.53074364705596e-13)
(1.60454110095307e-28 -2.60199121597518e-06 5.18095387875853e-14)
(1.50865734442643e-28 -2.64397771750079e-06 1.35882383105215e-13)
(1.48096542741801e-28 -2.6907093097476e-06 1.46024880185791e-13)
(1.39094882242638e-28 -2.74187145469914e-06 2.27064962425783e-13)
(1.36394484293399e-28 -2.79770321683533e-06 -1.04131416956698e-13)
(1.28041099690648e-28 -2.86055756659842e-06 -3.64794047293927e-13)
(1.25423218294464e-28 -2.93142269225624e-06 -2.55952381198083e-13)
(1.17688426900634e-28 -3.00944630273896e-06 3.92983721432012e-13)
(1.15226981193846e-28 -3.09606250089637e-06 5.94273256816495e-13)
(1.08127424171813e-28 -3.19460534641303e-06 6.01905501091186e-13)
(1.05807034307494e-28 -3.30599749898313e-06 2.09832050952382e-13)
(9.93324635683505e-29 -3.4293425282253e-06 -2.10527272203652e-13)
(9.72636989501945e-29 -3.56818175738362e-06 -9.84421766931898e-14)
(9.13972311345686e-29 -3.72787701718353e-06 -3.09422670925414e-13)
(8.95341170575959e-29 -3.91264099921969e-06 -2.41971922322417e-13)
(8.43502330850505e-29 -4.12683758594665e-06 -3.47449054755348e-13)
(8.29422299361472e-29 -4.39214678843151e-06 -4.46221383011966e-13)
(7.86058416141159e-29 -4.7283677547513e-06 1.35144167280464e-13)
(7.78768150738874e-29 -5.13331443319407e-06 2.33394100377871e-13)
(7.49606324164527e-29 -5.60743330229767e-06 -3.64640839217285e-15)
(7.54166198057296e-29 -6.17181538651688e-06 -8.61126664881008e-14)
(7.3564774197125e-29 -6.822636472824e-06 6.10272702452926e-14)
(7.50146621716634e-29 -7.53583604369199e-06 3.42356161291507e-13)
(7.42210341967068e-29 -8.31672808171428e-06 6.64480496163596e-14)
(7.65559207329174e-29 -9.16631713703434e-06 -6.77660350505306e-13)
(7.59230923265764e-29 -1.00666160434073e-05 -5.56654963380761e-13)
(7.87673207505055e-29 -1.10021787192179e-05 1.78781784513129e-13)
(7.8157804237953e-29 -1.196694730862e-05 -1.83851201686061e-13)
(8.09054255531453e-29 -1.29441263915239e-05 -1.58053241473777e-13)
(7.96093040718844e-29 -1.39156600312331e-05 9.40409648781994e-16)
(8.18615119465665e-29 -1.48694692019872e-05 -1.12346765092319e-13)
(7.91673219108001e-29 -1.57831273784488e-05 4.94049087667073e-13)
(8.03427438964289e-29 -1.66417615584291e-05 3.87545291161739e-13)
(7.58722455982841e-29 -1.74409526600806e-05 -1.59958789336684e-13)
(7.50405695119e-29 -1.81536164368776e-05 -6.96895571939825e-14)
(6.83741468188568e-29 -1.87622435827359e-05 1.68802611789039e-13)
(6.60748586979107e-29 -1.92730844172672e-05 -1.83377968049146e-13)
(5.70808385864258e-29 -1.96748020971476e-05 -2.98371688622234e-13)
(5.2625175058941e-29 -1.99518806092709e-05 -2.63328476584482e-14)
(4.6578107750855e-29 -2.01228559078763e-05 4.87126369442691e-13)
(4.83671448271482e-29 -2.02125904252525e-05 6.9397473918085e-13)
(4.82277830573789e-29 -2.02240609387172e-05 2.0710240184338e-13)
(4.59141230948654e-29 -2.01740131130373e-05 -1.76573095844727e-13)
(4.6584320966937e-29 -2.0085858726432e-05 -1.11190263872971e-13)
(4.38672602337138e-29 -1.99692946239981e-05 2.72926301093355e-13)
(4.42145370358846e-29 -1.98319670181083e-05 3.18654997826218e-13)
(4.14047414968894e-29 -1.96818414253496e-05 1.10082393808313e-13)
(4.1550384947979e-29 -1.95242514252325e-05 4.75437916992549e-14)
(3.88247180561572e-29 -1.93629164653334e-05 -2.52116873396221e-13)
(3.89259184918299e-29 -1.92019609366756e-05 -3.26284400701106e-15)
(3.63746612417478e-29 -1.90451457906562e-05 3.17084341031499e-13)
(3.64807157467685e-29 -1.89005007634928e-05 1.72445832289927e-13)
(3.39273116490342e-29 -1.87871675751425e-05 2.19899079018314e-14)
(9.37352806104732e-28 -3.12542813939739e-06 -2.34573838444132e-13)
(9.07539483231583e-28 -3.12523109115004e-06 -2.20868884070679e-13)
(8.95322372780483e-28 -3.1267553600564e-06 -2.60400962043591e-14)
(8.71763246198214e-28 -3.12907909208017e-06 -2.7748703745952e-13)
(8.59402575975915e-28 -3.13193000916596e-06 3.64555045337297e-13)
(8.35319283446549e-28 -3.13521400417517e-06 9.93405490939655e-13)
(8.23103186728017e-28 -3.13899115470889e-06 5.77811442210558e-13)
(7.99761373242877e-28 -3.14324058128584e-06 2.03730340636551e-13)
(7.87713202687016e-28 -3.1478383061295e-06 4.41874641238601e-13)
(7.65043009876553e-28 -3.15275158410624e-06 3.82327423908519e-13)
(7.53144089773988e-28 -3.15804610520254e-06 -6.92445215111215e-14)
(7.31128870331488e-28 -3.16370017695823e-06 -8.65091507610909e-15)
(7.19350248412535e-28 -3.1696187210036e-06 3.5433645193913e-13)
(6.97955421090547e-28 -3.17581267890985e-06 -2.57594137085049e-13)
(6.86298307711145e-28 -3.18232802420192e-06 -5.86500978250116e-13)
(6.65515960286526e-28 -3.18914686170052e-06 8.51223632836744e-14)
(6.53965149582957e-28 -3.19621467125335e-06 5.41791284775274e-14)
(6.33775482932044e-28 -3.20354707023342e-06 -5.23645449307728e-13)
(6.22343384700562e-28 -3.21118767118777e-06 -4.87725923205273e-13)
(6.02740417237582e-28 -3.21911936464611e-06 3.26866301269572e-13)
(5.91416336700462e-28 -3.22729944629861e-06 2.03378446054289e-13)
(5.72392146650575e-28 -3.23576616483145e-06 6.37056092949165e-14)
(5.61192742207514e-28 -3.24456437205111e-06 -2.14508951091877e-14)
(5.42738604585205e-28 -3.25367040538596e-06 -1.47243343363058e-13)
(5.31662517218183e-28 -3.2630559820885e-06 4.9948130522781e-13)
(5.13780463170209e-28 -3.27278118884271e-06 9.76970055116841e-13)
(5.02839806107377e-28 -3.28288606322174e-06 5.11714931798951e-13)
(4.8551843657573e-28 -3.29333439600399e-06 -1.09203623637871e-14)
(4.74721287723549e-28 -3.30411316832263e-06 -7.69533649463417e-14)
(4.57968701834679e-28 -3.31532463856272e-06 -4.34736417378294e-14)
(4.47327612568176e-28 -3.3270126090601e-06 3.10115148975784e-14)
(4.31132213459042e-28 -3.33911939579943e-06 -7.62866120718093e-15)
(4.20658528006823e-28 -3.35165611671697e-06 -2.96116287866933e-13)
(4.05033075548325e-28 -3.36479171520192e-06 -2.92366017467543e-13)
(3.94741583280824e-28 -3.37857985021584e-06 -3.32422929223415e-13)
(3.796772425613e-28 -3.39293738742436e-06 -3.87244994728498e-13)
(3.69588288923259e-28 -3.40795126100566e-06 2.31474007172981e-14)
(3.55099196681535e-28 -3.42385050783751e-06 -5.15405705579968e-13)
(3.45226428191137e-28 -3.4406918123492e-06 -3.07655413398154e-13)
(3.31313398866652e-28 -3.45839983207141e-06 5.9196303178768e-13)
(3.21689613597048e-28 -3.47718674320477e-06 4.92847567642868e-13)
(3.08363628201832e-28 -3.49738724135655e-06 -4.61421250494417e-13)
(2.99163393778735e-28 -3.51904934460826e-06 -9.24134965822043e-13)
(2.87560166284583e-28 -3.54211528063212e-06 9.42509231125516e-14)
(2.73592793838489e-28 -3.56707173275805e-06 9.80002982766897e-14)
(2.65871950595927e-28 -3.59441105682464e-06 -2.41379862001102e-13)
(2.50836186119586e-28 -3.62410553791083e-06 -2.54222720755199e-13)
(2.4551920324179e-28 -3.65614343052715e-06 8.53487675589861e-14)
(2.31194162747022e-28 -3.69158098028064e-06 2.25171582838955e-13)
(2.26227401134723e-28 -3.7311245927889e-06 2.42008504532734e-13)
(2.12761993038516e-28 -3.77450556510517e-06 3.77211113958469e-13)
(2.07940850741212e-28 -3.82193215045378e-06 -1.71627323967969e-13)
(1.95407341685425e-28 -3.8754357292734e-06 -6.05070119147844e-13)
(1.907572595495e-28 -3.9358731478116e-06 -4.26271637821529e-13)
(1.79124726959172e-28 -4.00251324130774e-06 6.50705173906387e-13)
(1.74738612399883e-28 -4.07659544924994e-06 9.86153407192527e-13)
(1.64025079135165e-28 -4.16100077276233e-06 1.00009598664344e-12)
(1.59896368097744e-28 -4.25653234251358e-06 3.49944233212673e-13)
(1.5009247513973e-28 -4.36242209238315e-06 -3.49101151741872e-13)
(1.46355442282636e-28 -4.48172982137452e-06 -1.63311115600594e-13)
(1.37442483196561e-28 -4.61909195999827e-06 -5.13816302446135e-13)
(1.34060157393026e-28 -4.77815907248844e-06 -4.01995895853766e-13)
(1.2613246667954e-28 -4.96270869091319e-06 -5.77192403993492e-13)
(1.23417587165075e-28 -5.1914656510987e-06 -7.43086205303856e-13)
(1.16699602704028e-28 -5.48155587115803e-06 2.23409914340931e-13)
(1.14983090408164e-28 -5.83112835469246e-06 3.88536139615435e-13)
(1.10170131615223e-28 -6.2405526285296e-06 -5.36129123870855e-15)
(1.10072676870533e-28 -6.72804216686118e-06 -1.434544484481e-13)
(1.06772117463686e-28 -7.29033505665266e-06 1.00520117593419e-13)
(1.08092902989499e-28 -7.9066290204039e-06 5.69595509579937e-13)
(1.06206818472152e-28 -8.58144803560685e-06 1.13035175538668e-13)
(1.087618030398e-28 -9.31566748677246e-06 -1.12554293412902e-12)
(1.07231872105188e-28 -1.00937423669817e-05 -9.27581284774648e-13)
(1.10483241031729e-28 -1.09022694955956e-05 2.96253788238092e-13)
(1.0899466986505e-28 -1.17359783309455e-05 -3.04614147294806e-13)
(1.12215232955521e-28 -1.25803442275125e-05 -2.62876193325852e-13)
(1.09865483079201e-28 -1.34197228269576e-05 1.45659763375376e-15)
(1.12440110487141e-28 -1.42436508634386e-05 -1.87443382975916e-13)
(1.08354617089221e-28 -1.50327526039677e-05 8.17453295000522e-13)
(1.09500826063856e-28 -1.57741117281168e-05 6.43286291485968e-13)
(1.03093696445765e-28 -1.6463852467125e-05 -2.63651602937286e-13)
(1.0172060078202e-28 -1.70786812939912e-05 -1.15807008716876e-13)
(9.25109065729393e-29 -1.76034272901309e-05 2.79014122455017e-13)
(8.90051187127727e-29 -1.80432734357471e-05 -3.01734163637105e-13)
(7.6935836713717e-29 -1.83884966149596e-05 -4.91643698281549e-13)
(7.07623692846848e-29 -1.86262062750368e-05 -4.45317879743978e-14)
(6.25947841643579e-29 -1.8772882470647e-05 8.01862474871444e-13)
(6.51056896369335e-29 -1.8850075328023e-05 1.14341272286968e-12)
(6.49758619853154e-29 -1.88603560790797e-05 3.421100273233e-13)
(6.19166176374437e-29 -1.88178923123408e-05 -2.91362279257973e-13)
(6.28847012026583e-29 -1.874246567404e-05 -1.83878144509846e-13)
(5.92624950327217e-29 -1.86425124226222e-05 4.50842890325977e-13)
(5.975126456571e-29 -1.85246725614734e-05 5.2692251520801e-13)
(5.59948877497842e-29 -1.8395747060504e-05 1.82135219336173e-13)
(5.62167295957584e-29 -1.82603424502724e-05 7.8732689664617e-14)
(5.256084091128e-29 -1.8121693504573e-05 -4.17220244963956e-13)
(5.27246686701277e-29 -1.79833658772165e-05 -5.44966808366682e-15)
(4.93069943378397e-29 -1.78486838536556e-05 5.251295610519e-13)
(4.95210543404877e-29 -1.77247494386271e-05 2.85882279217032e-13)
(4.63602142466186e-29 -1.76278904852582e-05 3.66692835199284e-14)
(1.18257490834425e-27 -4.28704394836757e-06 -3.24957476818604e-13)
(1.14721398336295e-27 -4.28605525891245e-06 -3.0697863595135e-13)
(1.1318365299805e-27 -4.28664602750747e-06 -3.53762574512048e-14)
(1.10199412717766e-27 -4.28790552238027e-06 -3.86913512411315e-13)
(1.08642106745952e-27 -4.2896070297769e-06 5.00251352674368e-13)
(1.05604787338838e-27 -4.29167151179371e-06 1.37695365112331e-12)
(1.04063222451524e-27 -4.29414908649635e-06 8.03857255109221e-13)
(1.01115728678644e-27 -4.29702244530875e-06 2.82370026877147e-13)
(9.95930567651721e-28 -4.30018792208976e-06 6.12228192918344e-13)
(9.67279866140707e-28 -4.30361804733069e-06 5.32368088468572e-13)
(9.52222606755795e-28 -4.30736779511039e-06 -9.50320630449123e-14)
(9.2437782734413e-28 -4.31141915715798e-06 -1.3784907063538e-14)
(9.09461493689432e-28 -4.31569264857169e-06 4.93188426685911e-13)
(8.82385366965239e-28 -4.32019729470824e-06 -3.54250743018733e-13)
(8.67612155082988e-28 -4.32497174585644e-06 -8.15723364328862e-13)
(8.41297100978605e-28 -4.33000115246172e-06 1.16421736144546e-13)
(8.26653277947501e-28 -4.33523986539388e-06 7.76684453871788e-14)
(8.01077128308775e-28 -4.34070100799024e-06 -7.25415155823374e-13)
(7.86577532574199e-28 -4.34642124002748e-06 -6.80431757224957e-13)
(7.61735211616329e-28 -4.3523863484599e-06 4.52140928341712e-13)
(7.47370682905061e-28 -4.35856061403403e-06 2.83265666169048e-13)
(7.23252942336422e-28 -4.36497612851925e-06 8.91620772997877e-14)
(7.0904318080099e-28 -4.37167072887468e-06 -2.9089302958842e-14)
(6.85641384397538e-28 -4.378624611191e-06 -2.06622132841511e-13)
(6.71587625942182e-28 -4.38581420510876e-06 6.90492701563067e-13)
(6.48904435886212e-28 -4.39328996366265e-06 1.35789962797691e-12)
(6.35021030768305e-28 -4.40108574210297e-06 7.14114184616682e-13)
(6.13044091021918e-28 -4.40917125107182e-06 -1.36388512595784e-14)
(5.9934270352332e-28 -4.41753568652078e-06 -1.06911553027375e-13)
(5.78081492584003e-28 -4.42626499559646e-06 -6.07697336973393e-14)
(5.64577702432859e-28 -4.43539629150112e-06 4.30621279815858e-14)
(5.44020106726632e-28 -4.44488128619132e-06 -9.56575136621003e-15)
(5.30728483854155e-28 -4.45472945717928e-06 -4.1112443922772e-13)
(5.1088853566232e-28 -4.46508290290706e-06 -4.06518597527231e-13)
(4.97827714015793e-28 -4.47598719077073e-06 -4.62142958600562e-13)
(4.78696612003358e-28 -4.48737266483342e-06 -5.3987563314896e-13)
(4.65891080157834e-28 -4.49931258795288e-06 3.28913603691985e-14)
(4.47484330982192e-28 -4.51199983470217e-06 -7.16608847602319e-13)
(4.34951610478976e-28 -4.5254827163813e-06 -4.3126885090237e-13)
(4.17271465590137e-28 -4.53969817674538e-06 8.22237741919708e-13)
(4.05049711127002e-28 -4.55482500490017e-06 6.88994271315144e-13)
(3.88107794160817e-28 -4.57114535571282e-06 -6.39057100292418e-13)
(3.76381421041876e-28 -4.58870053239613e-06 -1.28857914909072e-12)
(3.61504245793383e-28 -4.60744243978983e-06 1.29067186012913e-13)
(3.44295051210004e-28 -4.62778111188463e-06 1.37373330215773e-13)
(3.34039762169762e-28 -4.65013228619374e-06 -3.35495093234655e-13)
(3.15629704566562e-28 -4.67447383900353e-06 -3.550039482236e-13)
(3.08113576680876e-28 -4.7007966061972e-06 1.17878008848509e-13)
(2.90574160131814e-28 -4.72999080260653e-06 3.13458340537398e-13)
(2.8351959284313e-28 -4.76265382445971e-06 3.36929093536201e-13)
(2.67009979259841e-28 -4.79856114789846e-06 5.26803407112073e-13)
(2.60185550454331e-28 -4.83788884965184e-06 -2.3718130491162e-13)
(2.44781176484011e-28 -4.88235007976798e-06 -8.43169760482093e-13)
(2.38219079639421e-28 -4.93267118066741e-06 -5.97133500694936e-13)
(2.23890822340109e-28 -4.98823828243225e-06 9.04673344756095e-13)
(2.17694060300165e-28 -5.05009639285942e-06 1.37478849429997e-12)
(2.04461739248193e-28 -5.12067794540587e-06 1.39642173739351e-12)
(1.98629448352538e-28 -5.20066614168919e-06 4.90870905054503e-13)
(1.86486628855436e-28 -5.28941555629156e-06 -4.86185044040812e-13)
(1.81165477813928e-28 -5.38950698707505e-06 -2.27525776261046e-13)
(1.70094238404438e-28 -5.50485631648594e-06 -7.16699103226175e-13)
(1.65254057904619e-28 -5.63855079370723e-06 -5.60980027856024e-13)
(1.5535993605084e-28 -5.79377529381225e-06 -8.05201422097114e-13)
(1.51344776089577e-28 -5.98632594341159e-06 -1.03931846186045e-12)
(1.42881271989001e-28 -6.23067986099657e-06 3.09854059789032e-13)
(1.40079166507075e-28 -6.52530001204455e-06 5.43151534732021e-13)
(1.33793642427675e-28 -6.87047719071932e-06 -6.42527954024132e-15)
(1.32878861457762e-28 -7.28157830402896e-06 -2.00642279298523e-13)
(1.28367345318022e-28 -7.7558926887696e-06 1.3891617531786e-13)
(1.29135309400973e-28 -8.27584268322442e-06 7.95689628245016e-13)
(1.26249822352725e-28 -8.84519156700708e-06 1.61529974566923e-13)
(1.28470983734079e-28 -9.4646867894692e-06 -1.56986614515699e-12)
(1.26091672696333e-28 -1.01212090164845e-05 -1.29839649190475e-12)
(1.29146885992092e-28 -1.08034032295895e-05 4.12378264783543e-13)
(1.26860481554687e-28 -1.15067975170289e-05 -4.24054752925003e-13)
(1.29964804334762e-28 -1.22191307386953e-05 -3.67494916781511e-13)
(1.26783582336162e-28 -1.29271789574666e-05 1.89268362692086e-15)
(1.29206970042818e-28 -1.36221069995054e-05 -2.63073364364682e-13)
(1.24186057251311e-28 -1.42875653584964e-05 1.13788328533713e-12)
(1.25050886121412e-28 -1.49126287624163e-05 8.98536507762243e-13)
(1.17492130437145e-28 -1.5494037549745e-05 -3.658141511547e-13)
(1.15650517550206e-28 -1.60121695790944e-05 -1.62131283003529e-13)
(1.0507129840627e-28 -1.64541897823777e-05 3.88521198419917e-13)
(1.00772737221237e-28 -1.68244297270736e-05 -4.18350510626265e-13)
(8.71467394192454e-29 -1.71147094844662e-05 -6.83269231038842e-13)
(8.00121127608052e-29 -1.73142716051718e-05 -6.35491953724356e-14)
(7.0809098755024e-29 -1.74372547185856e-05 1.11281714220258e-12)
(7.36813281090589e-29 -1.75020178674863e-05 1.58826324138901e-12)
(7.35711173296534e-29 -1.75107167103446e-05 4.76180055496018e-13)
(7.0170598038917e-29 -1.74751532467102e-05 -4.04887434255873e-13)
(7.12973438085139e-29 -1.74119019964438e-05 -2.56053269702437e-13)
(6.72507542512404e-29 -1.73280350099982e-05 6.26972647982325e-13)
(6.78171515032623e-29 -1.72291299233154e-05 7.33369950410867e-13)
(6.36127955963024e-29 -1.71208938901068e-05 2.53617897121674e-13)
(6.3881202274601e-29 -1.70071937684718e-05 1.09731271444366e-13)
(5.97802413238571e-29 -1.68907506509496e-05 -5.80962434103823e-13)
(5.99841603480681e-29 -1.67745652299526e-05 -7.68123513915416e-15)
(5.61516188137868e-29 -1.66614391256298e-05 7.31570970664367e-13)
(5.64387913919568e-29 -1.65573330211986e-05 3.98538884717855e-13)
(5.30220350212302e-29 -1.64757930495776e-05 5.12666246296517e-14)
(1.30935077138053e-27 -5.42559057950688e-06 -4.13605548652153e-13)
(1.27467303741593e-27 -5.42413046652763e-06 -3.92430835918368e-13)
(1.25699266600043e-27 -5.42406674391946e-06 -4.3823726569639e-14)
(1.22451340254206e-27 -5.42454467758054e-06 -4.96626765842986e-13)
(1.20665228379929e-27 -5.42538085308606e-06 6.28481395008904e-13)
(1.17372092701465e-27 -5.42651088769931e-06 1.7534695123875e-12)
(1.15603651901898e-27 -5.42797521982939e-06 1.028660218351e-12)
(1.12403122885786e-27 -5.42976007637986e-06 3.59538810991965e-13)
(1.10655970091219e-27 -5.43178160535501e-06 7.79103616544634e-13)
(1.0754117527182e-27 -5.4340174130093e-06 6.81931529273909e-13)
(1.05813483539915e-27 -5.4365120122167e-06 -1.19368038980276e-13)
(1.02782694347606e-27 -5.43925102754984e-06 -2.05947671476593e-14)
(1.01071946320295e-27 -5.442170148023e-06 6.31291775920965e-13)
(9.81216981973698e-28 -5.44527652236294e-06 -4.46207670050086e-13)
(9.6428159409533e-28 -5.44860158144451e-06 -1.04303651799207e-12)
(9.35578924143833e-28 -5.45213346581264e-06 1.45529864199054e-13)
(9.18804785798648e-28 -5.45583518827354e-06 1.03185302306989e-13)
(8.90880776798144e-28 -5.45971735150083e-06 -9.22564971447209e-13)
(8.74283029866446e-28 -5.46380978618401e-06 -8.73387805514665e-13)
(8.47135000503919e-28 -5.46810111890039e-06 5.73845626416079e-13)
(8.30707054684948e-28 -5.47256241386136e-06 3.62761795394222e-13)
(8.04326399873142e-28 -5.4772196768577e-06 1.14906227459062e-13)
(7.88088254902889e-28 -5.48210379339839e-06 -3.59175867721063e-14)
(7.62468237308855e-28 -5.48719879226854e-06 -2.67145940066488e-13)
(7.46423610716042e-28 -5.49248561092579e-06 8.75466753372484e-13)
(7.2156819298774e-28 -5.49800519776989e-06 1.73389465342255e-12)
(7.05731453888095e-28 -5.50378526967362e-06 9.16614392381437e-13)
(6.81629644356838e-28 -5.50980136368437e-06 -1.48408508514293e-14)
(6.66014772916449e-28 -5.51604472957658e-06 -1.36413082978868e-13)
(6.42677142185776e-28 -5.52258521299775e-06 -7.81587360542869e-14)
(6.27300434698769e-28 -5.52945328074813e-06 5.49012142521687e-14)
(6.04716881527883e-28 -5.53660985915154e-06 -1.04853519883428e-14)
(5.89594362724199e-28 -5.54406265190202e-06 -5.24059188233436e-13)
(5.67779233633124e-28 -5.55192724570169e-06 -5.19159887804463e-13)
(5.52930925290168e-28 -5.56024113860844e-06 -5.90048499794436e-13)
(5.31877735982305e-28 -5.56894788153452e-06 -6.91796241229195e-13)
(5.1732913001133e-28 -5.57810705099329e-06 4.31799630539639e-14)
(4.97053521638098e-28 -5.58787574727833e-06 -9.14966950792751e-13)
(4.82823650586545e-28 -5.59829387088878e-06 -5.56412780517833e-13)
(4.63330321769153e-28 -5.60931033785803e-06 1.04840773123089e-12)
(4.49457666083437e-28 -5.62107068162511e-06 8.85760169816755e-13)
(4.30758252948802e-28 -5.63380500120275e-06 -8.11725603113108e-13)