/*--------------------------------*- C++ -*----------------------------------*\
  =========                 |
  \\      /  F ield         | OpenFOAM: The Open Source CFD Toolbox
   \\    /   O peration     | Website:  https://openfoam.org
    \\  /    A nd           | Version:  8
     \\/     M anipulation  |
\*---------------------------------------------------------------------------*/
FoamFile
{
    version     2.0;
    format      ascii;
    class       volVectorField;
    location    "0.0555000";
    object      U_0;
}
// * * * * * * * * * * * * * * * * * * * * * * * * * * * * * * * * * * * * * //

dimensions      [0 1 -1 0 0 0 0];

internalField   nonuniform List<vector> 
900
(
(0.729853297411559 0.000361937960770898 3.6698666787727e-19)
(0.730384785167695 0.000208025894225504 -4.1247432840929e-18)
(0.73039641193442 0.00016608772437491 6.20069385474084e-18)
(0.730503116602362 0.000189458751416536 8.82568345514638e-18)
(0.730470313488033 0.000196979388200036 6.6032959551471e-18)
(0.730396860986895 0.000202914568499696 1.05136940391066e-17)
(0.730307165012419 0.000207169511049177 -2.36492906072082e-17)
(0.730214341308662 0.0002102043452997 -2.97672012904514e-17)
(0.730120014177884 0.000212680274415408 4.02397768812197e-18)
(0.730024063028924 0.000215270378272816 1.67949518303806e-17)
(0.72992712460093 0.000218300062379163 1.4260392080454e-17)
(0.729828884968672 0.000220588303525294 -4.01805266727083e-18)
(0.729728168559171 0.000222591180658079 -7.87796591795092e-18)
(0.729625112552028 0.000224773916747553 -5.1645604386831e-18)
(0.729520304242998 0.000227257524792081 -2.10060154973935e-17)
(0.729413437773084 0.00022922018797485 3.67505991956545e-17)
(0.729303712248752 0.000231080375909353 4.79004540005171e-18)
(0.729191055423297 0.00023316698870513 -7.42352966128227e-18)
(0.729076506875983 0.000235354171726193 -5.57337593497662e-17)
(0.728959745985812 0.000237186953429275 -4.17028395926054e-17)
(0.728839473441158 0.000238984581441042 -1.3181681393471e-17)
(0.72871689799383 0.000241146824172785 -1.70177047845182e-17)
(0.728592063498424 0.000243448025167069 -1.928285227654e-17)
(0.728463591215996 0.000245485250651751 -9.86130295197313e-17)
(0.728331268043248 0.00024756312713537 -6.96744541531511e-18)
(0.728195750999131 0.000250131297617506 -2.28005872693031e-17)
(0.72805807136737 0.000252493038443083 -3.6668108889115e-17)
(0.727917564081359 0.000254636682247359 -1.06338545511596e-17)
(0.727772781883125 0.000257058625061634 2.96103860672041e-17)
(0.72762506304712 0.000260436550778397 -4.55110137554138e-17)
(0.727474678642048 0.000263390461255028 -2.5014374973957e-17)
(0.727320401799642 0.000266054080492377 -3.93367585844396e-17)
(0.727162970192518 0.000269194945631639 -6.59920871270643e-18)
(0.727003211695558 0.000273946732101203 2.35178718602392e-17)
(0.726840777745085 0.000277877775235733 4.47380411404763e-17)
(0.726675204020897 0.000281750532456157 2.1492179018628e-17)
(0.726507104932898 0.000286811435051927 -7.98810987141097e-17)
(0.726338025029597 0.000293693178459527 -3.23434830327147e-17)
(0.726167610739007 0.00029969000200469 7.27500236592704e-19)
(0.72599514797709 0.000306073178081607 -4.28761157044747e-17)
(0.725822181578928 0.000314953402835601 -1.5210595892915e-17)
(0.725651793920774 0.00032568620871872 -9.05601153568628e-17)
(0.725484017730984 0.000335389739817733 5.30662929322005e-19)
(0.725318387511258 0.000346463661009433 -5.97064418045934e-17)
(0.725157161560144 0.000363185438213008 1.08268207804454e-16)
(0.725004202042266 0.00038087474062318 1.99600628210959e-17)
(0.724860674932489 0.000397543165929777 9.08084150937011e-17)
(0.724728403978151 0.000417221929722915 5.73441231005168e-17)
(0.724613148808983 0.000448407377978005 1.13984066223852e-16)
(0.724519125997974 0.0004777893906335 -1.62951723976342e-16)
(0.724448348848625 0.00050677522509244 -3.63859317898318e-17)
(0.724408321735765 0.000542739814489527 4.85555303249492e-19)
(0.72440909443233 0.000599084302352441 -1.0108460018349e-17)
(0.724456630631333 0.000647017029244113 -9.86186888263932e-20)
(0.724561027236778 0.000697080555281319 4.73111800371952e-17)
(0.724735579716056 0.00076461428872296 2.83748343366227e-17)
(0.724995251914053 0.000856339301042222 -4.55183684883216e-17)
(0.725351615962913 0.000935335546000779 2.08736305266354e-17)
(0.725832609954416 0.00101982190844707 -3.23712382251342e-17)
(0.726476310839734 0.00114409624521275 8.78035267590032e-17)
(0.727312968930409 0.00129601351071363 1.73809393760124e-18)
(0.728453570838287 0.00146016373327085 -2.0460119623312e-17)
(0.730171484051333 0.00166426867659919 -5.47296863854131e-17)
(0.732791997637306 0.00209074630351096 -8.20287633090941e-17)
(0.736386033885269 0.00253444648389387 2.49923732398261e-17)
(0.740935919484258 0.00293557062703072 6.51967702088194e-17)
(0.74653293724553 0.00337741397367634 1.52273905958586e-17)
(0.753003970627149 0.00397880084112419 3.54617986989132e-17)
(0.760357733989148 0.00427894088575734 1.10005819723125e-16)
(0.768870378402435 0.00449232969938244 -5.0177288784669e-17)
(0.778385671893642 0.00472724405786279 8.60367630989321e-18)
(0.788852515615399 0.0048369033961931 -9.45840425098792e-18)
(0.800293433837471 0.00474361809547522 3.20010541561262e-17)
(0.812676450121181 0.0045712330518426 -1.90468992943943e-17)
(0.825770539550041 0.0043332312478919 1.04850386664355e-16)
(0.839613896251222 0.00393403068241537 -1.04490771335406e-16)
(0.854006506698745 0.00349120257922232 5.7253241487666e-17)
(0.869031364404339 0.00297851384801112 7.59703482556802e-17)
(0.884320563238992 0.00240408739987917 1.09057518769625e-17)
(0.900536026890349 0.00184105641686327 -4.48740858841146e-17)
(0.916527345263998 0.00134341966020631 7.67044167974382e-17)
(0.934266764684683 0.000751269479223033 2.09471235788236e-17)
(0.950892294098048 0.000374518453076411 1.19183723912787e-17)
(0.971611556471283 -0.000103428450217085 2.99819526871747e-17)
(0.988794394044569 -0.000215397248362712 9.82558034837805e-18)
(1.01531435797878 -0.000493531232762458 -2.46938208487481e-17)
(1.02562521106898 7.31705368440665e-05 1.23255184359131e-17)
(1.02261336125051 -7.20866550625266e-05 1.68420012377852e-17)
(1.02704300108717 0.000189935071303493 2.07543769488758e-17)
(1.02595516253047 0.000109358512577303 -5.88089872864695e-18)
(1.02766549318567 0.000168142761883137 -1.02106615549336e-17)
(1.02716114072791 0.000174434282377572 -1.14912712242219e-17)
(1.02740212124952 0.000192081018149905 -2.22202690921882e-17)
(1.02680101630652 0.000174773320314236 -1.21361596740221e-17)
(1.02647483572679 0.000178533894745547 8.56325978590849e-18)
(1.02577450890613 0.000164673285735125 -1.06546404538061e-17)
(1.02518634630918 0.000150407811653467 -5.49782724545717e-18)
(1.02444247738457 0.000147447590197 1.03357180513628e-17)
(1.02379695519287 0.000139626715484626 -1.7318875405193e-18)
(1.02276386069948 0.000270391288441532 5.67207250368062e-19)
(0.373312435267281 0.00189413456509827 -3.02780142469047e-18)
(0.375187665167196 0.00201612812093635 -3.53160106564995e-19)
(0.375349503252421 0.00207969600817052 7.54930341862701e-18)
(0.375529246435641 0.00221132277216213 2.72822154744624e-17)
(0.37537956669148 0.00228986661412305 1.83519028603308e-17)
(0.375121427884071 0.00232929291913724 2.44365559796092e-17)
(0.374817978619537 0.00234946771643236 -1.27638743570322e-17)
(0.374501149263407 0.00236131837264189 -2.07527510808643e-17)
(0.374178030165466 0.00237055575439713 1.1040355649761e-17)
(0.373849950503734 0.00237972361796342 5.32056613005087e-17)
(0.373517753686046 0.00238974643754862 4.53297509231106e-17)
(0.373180675541502 0.00239861861117228 -1.41391661397632e-17)
(0.372836913856003 0.00240707785914814 -2.5332699501323e-17)
(0.372486273618229 0.00241587363402782 -8.51748753252096e-18)
(0.372129446855026 0.00242525661263592 -8.65839515482158e-17)
(0.371765846334998 0.00243380693352023 4.52072010062685e-17)
(0.371394266940046 0.00244224249006165 6.36156591306524e-18)
(0.371014634196569 0.00245114671901949 -2.04217414680153e-17)
(0.370627614520752 0.00246033662027411 -7.03622141434007e-17)
(0.370232525770992 0.00246899221202709 -1.15658427155723e-16)
(0.369828092540232 0.0024777071600017 -1.08493972304957e-16)
(0.369414857757393 0.00248722883805932 -2.11820178076897e-17)
(0.368992973693496 0.0024971460418124 -5.67215939181132e-17)
(0.368561142660708 0.0025067433780837 -1.53364689722715e-16)
(0.368118588714683 0.00251657530000918 -8.32606762870342e-19)
(0.367665836811776 0.00252747503642878 -9.50699066672927e-17)
(0.367203341854846 0.00253817800273377 -1.12081736214301e-16)
(0.366729828229473 0.00254866806950721 -3.22991508697526e-17)
(0.366244046614473 0.00255990660626134 5.09067489942038e-18)
(0.365747207982022 0.00257318817944201 -4.45318421513349e-17)
(0.3652394006228 0.00258591322533199 -1.63504650649754e-16)
(0.364718708062519 0.00259834469865415 -5.4463849997835e-17)
(0.364184981582652 0.00261200927220665 -1.45648512161501e-17)
(0.363639890087452 0.00262907451196789 7.06513936308889e-17)
(0.363083155895 0.00264492518886452 1.30865311968168e-16)
(0.362512939054256 0.00266100758558901 6.6004869036519e-17)
(0.361929705136507 0.0026798536630855 -8.10685421928776e-17)
(0.361336182214185 0.00270270055784391 -9.48278063242907e-17)
(0.360731939314244 0.00272431437901829 -6.7092369321002e-18)
(0.360115274450337 0.0027471883439973 -1.45279083480827e-16)
(0.359488599747527 0.00277563555099907 -1.58322622424021e-16)
(0.358856662361209 0.00280838767168674 -1.23146555847287e-16)
(0.35821909326392 0.00283974651238876 1.32734553231148e-17)
(0.357575204359379 0.00287466061601052 -1.86288100692097e-16)
(0.356931441178948 0.00292176226183457 4.62418771768875e-17)
(0.356295156027875 0.00297174957382204 4.68195844400733e-17)
(0.355666533417191 0.00302038208715683 2.63096663237391e-16)
(0.355048615054772 0.00307651959861232 1.65677948036749e-16)
(0.35445740831703 0.00315701356214584 1.92235150045692e-16)
(0.353904182047351 0.00323528378235204 -2.77356227089075e-16)
(0.35339047940273 0.00331327899716321 7.55745786891205e-17)
(0.352929285783939 0.00340800317265924 5.41091493017721e-18)
(0.352553849194326 0.00354534585266696 -6.90340851808311e-17)
(0.352282013078234 0.00366749321549153 6.5463432940689e-19)
(0.352124489727798 0.00379428288574804 1.97665109714403e-17)
(0.352115774215528 0.00396037701727306 5.49929624590917e-17)
(0.352313195863959 0.00417722002487418 -2.89393291896729e-17)
(0.352750355840979 0.00436943978461953 1.68517682053549e-16)
(0.353463369907266 0.00457429875816044 -1.00285450443345e-16)
(0.354546647272611 0.00486485746896638 1.70696880645093e-16)
(0.356117710471596 0.00521825244753497 -1.05908772633454e-17)
(0.358349213127257 0.00559886408961467 -6.02662864153083e-17)
(0.361565335291446 0.00608782928207275 -5.11127274269744e-17)
(0.366343109691049 0.00704110504197652 -1.57532599706346e-16)
(0.373081116511595 0.00804385630982812 -1.77498167193924e-17)
(0.38196776951927 0.00894242666950905 1.90332032850985e-16)
(0.393274434204124 0.00993319077427395 4.42229887684935e-17)
(0.407255291317996 0.0111947280560209 1.03013043473957e-16)
(0.42394805543586 0.0118151533218216 3.18231729345083e-16)
(0.443395989641822 0.0121960904938401 -4.42097895489842e-17)
(0.465529410867788 0.0125764932257861 -1.10814811055707e-16)
(0.490339439842835 0.0126420017180504 -3.05449225324893e-17)
(0.517596949961649 0.0122383403453904 9.56591100643344e-17)
(0.547112375104906 0.0116198514591595 1.02313044528077e-16)
(0.578499280215742 0.0108130079250917 1.58572520978329e-16)
(0.611726789910104 0.00964169730125457 -2.01479539272481e-16)
(0.646196004758318 0.00834343742579679 1.72306364708756e-16)
(0.682227203257408 0.00686802543225885 -2.24048436177024e-17)
(0.718734412616035 0.00526186310541977 -1.83236560334131e-16)
(0.757326259351507 0.00366472277258025 -1.32781141977917e-16)
(0.795332405826538 0.00219931328711382 8.28362044684087e-17)
(0.837449192217519 0.000521679776220045 6.1276960558606e-17)
(0.876571969254108 -0.000671915067567581 1.58654040619044e-16)
(0.925601196491697 -0.00210978510753026 8.89509002281298e-17)
(0.965657568173313 -0.0027311547048075 -5.65058034442501e-17)
(1.02885611018201 -0.003476603639697 -2.72169699456543e-17)
(1.05204354891472 -0.000199738006983563 8.1609396994893e-17)
(1.04166907604885 -0.000388000178292979 5.26124795912027e-18)
(1.05011980302269 0.000130516199501271 5.91183602363183e-17)
(1.04537780482836 5.47792681033364e-05 -1.77932967566532e-17)
(1.04768068520592 0.000203834446043219 1.3859796430201e-17)
(1.04498986548614 0.000241307385694575 -3.136535174887e-17)
(1.04463118120017 0.000304993173123668 -6.43401971234012e-17)
(1.04239064870867 0.00029607969569545 -3.57615111221467e-17)
(1.04099633473334 0.000320070347924627 4.24927250183269e-18)
(1.03884073626645 0.000310525634978025 -2.06545391999304e-17)
(1.037045084079 0.000299634717374933 -5.54723670722742e-18)
(1.03493302664856 0.000299267843618615 2.17681616547518e-17)
(1.03318394363248 0.000295385874914658 -5.19555071678349e-18)
(1.03124942966142 0.000424045507487682 -4.02242580174411e-19)
(0.0913358120531852 0.00404031520954007 -4.8407346290267e-18)
(0.0944395213262092 0.00456969858234946 -6.40810101074081e-18)
(0.0947675400550827 0.00500951534797383 1.05757146950244e-17)
(0.0949195715719252 0.00535645562969337 2.11463999494159e-17)
(0.0946264222969948 0.00554879512942695 2.69703236908785e-17)
(0.0941908653534183 0.00563784064252423 1.40669130276056e-17)
(0.093696019212725 0.00567864097733604 -9.62634190578332e-18)
(0.0931815078686299 0.00570041624581266 -1.84732596486731e-17)
(0.0926569296995328 0.00571637057734709 -4.12622291834425e-18)
(0.092124516007769 0.00573170784716738 3.0292929183282e-17)
(0.0915853195520435 0.00574783765993763 1.84454614656902e-17)
(0.0910384908486818 0.00576309371918432 -3.55424241959081e-17)
(0.090481987128181 0.00577797730317545 -4.26795554731439e-17)
(0.0899154339228233 0.0057933056325148 -7.80942359392183e-17)
(0.0893394526813216 0.00580922470169849 -8.06346413481164e-17)
(0.088753316507469 0.00582447390102927 6.6937508437039e-17)
(0.0881555780564663 0.0058396528996059 5.44923213818037e-18)
(0.0875460969885058 0.00585540601526713 -3.01400553280215e-17)
(0.0869252934821314 0.00587151806808341 -8.28955097178867e-17)
(0.0862922745753694 0.00588725122386795 -1.98896225445375e-16)
(0.0856456646690732 0.00590317150979291 -8.89002282525421e-17)
(0.0849856785723362 0.00592004807818087 -1.43549000460096e-16)
(0.0843124834431113 0.0059375019748291 -1.48020013129456e-16)
(0.0836247773868049 0.00595481142510327 -1.52313842775677e-16)
(0.0829214051376149 0.00597255861918593 -8.81445584413953e-18)
(0.0822027876922967 0.00599151754967165 -5.86091484178799e-17)
(0.0814690495255082 0.0060104994227342 -1.00354530173753e-16)
(0.0807185176311966 0.00602944388470592 -4.24351055986221e-17)
(0.0799498638314534 0.00604949908822538 -1.12294537638176e-16)
(0.0791643412874154 0.00607179905104329 -1.34012342169303e-16)
(0.078361948917978 0.00609388931642165 -2.31287976838281e-16)
(0.0775401977063268 0.00611583498952392 -1.34486915318207e-16)
(0.0766982661736102 0.00613956240838111 -3.0950481915855e-17)
(0.0758385197355051 0.00616698614907637 1.45261198214116e-16)
(0.0749607919380605 0.00619368607388728 1.39976295395686e-16)
(0.0740620293802405 0.00622085214268404 1.13376693032704e-16)
(0.0731425694552724 0.00625156744870355 -1.00606636784477e-16)
(0.072206256016264 0.00628678846984301 -1.71555692826223e-16)
(0.0712527197759194 0.00632136209052149 -1.88598218631502e-16)
(0.0702788748878174 0.0063577508096713 -1.30484082449627e-16)
(0.0692879025907467 0.00640079996467166 -3.04168655857978e-16)
(0.0682864093486113 0.00644895400238166 -1.69420787965956e-16)
(0.0672737393678141 0.00649632166339624 2.91995789035145e-17)
(0.066247429267167 0.00654859677199354 -3.47626358841633e-16)
(0.0652179585621764 0.00661459957120099 -2.26064477610399e-18)
(0.0641964211557657 0.00668480459136872 5.96674633243693e-17)
(0.0631814471195187 0.00675393788079352 4.57560851833858e-16)
(0.0621737170453508 0.00683352122705371 2.65666997694465e-16)
(0.0612002147642523 0.00693944527162221 2.64797590361179e-16)
(0.0602794636751631 0.00704520351123776 -4.39968919850983e-16)
(0.0594084674944734 0.00715027400412804 -1.80284126038295e-17)
(0.0585991289952695 0.00727792116297801 1.02633480566688e-17)
(0.057910984627365 0.00745038089729896 6.50654532983963e-17)
(0.0573735150490149 0.00761005453383646 2.95488128810708e-18)
(0.0569834749242111 0.00777385902079579 1.84031999583013e-17)
(0.0567902000721367 0.00798568068252858 3.30875829526774e-17)
(0.0568982066489531 0.00825097530636002 5.19944741609896e-17)
(0.0573573007300817 0.00849220093470859 2.28461503722583e-16)
(0.0581790422144227 0.00874881172354866 -8.35363486938931e-17)
(0.0595094642580424 0.00910173847139355 1.6861756654183e-16)
(0.0615406269397544 0.00953037818265716 5.49770336039684e-18)
(0.0644842195406222 0.0099865028922753 -1.00217047327748e-16)
(0.0685892515842501 0.0106063236998371 -4.62470080427256e-17)
(0.0747123059468176 0.0117198209307398 -1.31970827682367e-16)
(0.08362431221281 0.012911380531401 -7.49388160236493e-17)
(0.0955120317316704 0.0139655052740475 2.17354978393818e-16)
(0.110652074292741 0.0151403198746466 6.86972941358818e-17)
(0.129932457497091 0.0164974897616683 5.82224895407925e-17)
(0.153389941306213 0.0171590870199086 4.35945836944343e-16)
(0.180532191743408 0.0174661900030814 1.13548409699477e-16)
(0.211604146912681 0.0177040603039518 -9.29127119689568e-17)
(0.246740885218541 0.017525102136454 -5.34178263048567e-17)
(0.285356813405732 0.0167744063164088 1.59452395697121e-16)
(0.327087692072581 0.0157132814705432 2.17035851713486e-16)
(0.371604584378884 0.0143725791194081 2.20516804495686e-16)
(0.41873197490765 0.0126010538051905 -1.55685314979617e-16)
(0.467533824999268 0.0106349255829005 2.91483343083144e-16)
(0.518601454517401 0.00842928397312821 -1.21932540449827e-16)
(0.570201662526873 0.00608604819082155 -3.39458162854202e-16)
(0.624588153968456 0.00371929060560221 -2.18158702371293e-16)
(0.67824261954106 0.00150481153183363 2.44615147092887e-17)
(0.737476137000159 -0.000972254086718629 9.97644223445422e-17)
(0.792275414801125 -0.00285254034224397 1.85261495662128e-16)
(0.860932201823336 -0.00507128477486852 9.64308648781822e-17)
(0.916808460184056 -0.00623964991324584 -1.0983983327052e-16)
(1.00520198192078 -0.00733080530699956 -2.92191319628323e-17)
(1.03743557183464 -0.000313338989887427 1.06816607981684e-16)
(1.02189745832669 -0.000483224020566299 -6.8937041753839e-18)
(1.03306538519326 4.17183357718905e-05 1.07451110156738e-16)
(1.02587840175783 3.26138649551798e-05 -3.03217489710182e-17)
(1.02857272354391 0.000219815394359494 3.56058418785388e-17)
(1.02439184693799 0.000258224565390207 -6.0442372219157e-17)
(1.02363759939733 0.000344189464214929 -6.38524243681058e-17)
(1.02028481378061 0.000345655264500743 -3.74888072754384e-17)
(1.01816871228689 0.000371255679295535 -6.06535030578495e-18)
(1.01502994885309 0.000363255560016163 -1.92617396658144e-17)
(1.01242076753791 0.000354381044215731 -5.34354561622175e-18)
(1.00939623356452 0.000336628879505796 3.06360981271728e-17)
(1.00694183458423 0.000317699911691803 -3.71794542511036e-18)
(1.00453393019466 0.000235701692420411 -8.78186378801561e-19)
(-0.115875207854504 0.00699778228868611 -5.83631372487751e-18)
(-0.112759220678981 0.00729520089534448 -7.46556635135415e-18)
(-0.112564739800271 0.00829909337948232 1.04549155675982e-17)
(-0.112622222618612 0.00891698502025427 2.24116682508003e-17)
(-0.113097394680145 0.00923583541428468 3.55166220453432e-17)
(-0.113695857343946 0.0093765392333408 7.28366453879612e-18)
(-0.114345695456044 0.00943821394374026 -9.54150188825842e-18)
(-0.115014369702226 0.00947001438838696 -2.14554094649661e-17)
(-0.115694441679593 0.0094928390505236 3.08794354765103e-18)
(-0.1163841405243 0.00951437843992042 1.96080059500926e-17)
(-0.117082654226503 0.00953657802633352 6.14285573474558e-19)
(-0.117790761673724 0.00955832070945093 -6.52875638116001e-17)
(-0.118510291956838 0.00957987377692674 -5.61802314941242e-17)
(-0.119241732657308 0.00960193325001979 -7.16769492334032e-17)
(-0.119984723772847 0.00962455948582273 -1.16250959575087e-16)
(-0.120740019590985 0.00964679295560523 4.95619923341447e-17)
(-0.12150901267575 0.00966906776907894 -1.56143487112807e-18)
(-0.122291978729907 0.00969196054396188 -3.65204148254147e-17)
(-0.12308879013431 0.00971528179781002 -8.75761506302413e-17)
(-0.123900384864481 0.00973846352933754 -1.98367836485921e-16)
(-0.124728074765143 0.00976197111713171 -1.62649023644633e-16)
(-0.12557192155859 0.00978647001442912 -2.32010025591503e-16)
(-0.126431890509817 0.0098116646072967 -2.19037466123123e-16)
(-0.127309176296818 0.00983694834192886 -9.32620242925773e-17)
(-0.128205020519007 0.00986282978245431 5.65581864971658e-18)
(-0.129119251660307 0.00988993366055067 -4.55017515610134e-17)
(-0.130052039832796 0.00991730760797475 -1.04711234171601e-16)
(-0.131005089057879 0.00994487934274209 -3.52547912312616e-17)
(-0.131979686278283 0.0099737320466851 -2.19839003104952e-16)
(-0.132974828457039 0.0100047475962999 -2.15046179458059e-16)
(-0.133990663761792 0.0100359296221731 -3.16149770379806e-16)
(-0.135029696596637 0.0100672269682444 -1.48084952899705e-16)
(-0.136093046505187 0.0101005089523956 -5.8819584521961e-17)
(-0.137178398739238 0.0101372785247966 8.04025867322964e-17)
(-0.138285887026551 0.0101738772374116 1.47186190823521e-16)
(-0.139418786215698 0.0102111841021355 1.68627706208566e-16)
(-0.140576900287468 0.010252150383707 -6.58614030250941e-17)
(-0.141756262611669 0.010297453991617 -2.61974659855419e-16)
(-0.142957074478674 0.010342714292462 -2.5060566483397e-16)
(-0.144182661337313 0.0103900311881854 -6.88061450113549e-17)
(-0.145429677973306 0.0104438769598791 -3.22595522251834e-16)
(-0.146691060130657 0.0105027605940528 -2.1766684461965e-16)
(-0.147967191757886 0.0105614680959453 1.21129430051056e-16)
(-0.149260873140598 0.0106253277032169 -4.08312883058295e-16)
(-0.150559993895309 0.0107020862120844 -3.47053594386621e-17)
(-0.151851921547879 0.0107833248040781 5.39046424990086e-17)
(-0.153137899490951 0.0108638484904149 4.97021751872226e-16)
(-0.154417916345034 0.0109551011897137 3.54763771043465e-16)
(-0.155660036345002 0.011070421140962 2.43823858638477e-16)
(-0.15684194107828 0.0111865364844757 -5.28336952662993e-16)
(-0.15796727778815 0.0113015899499146 -5.55151119566996e-17)
(-0.159024404543669 0.0114392115541484 1.40671780679373e-17)
(-0.159940773680048 0.0116169788579377 1.68700503371068e-16)
(-0.160679662053926 0.0117838389829451 2.76988764179427e-18)
(-0.161249715590467 0.0119531188639359 7.00908003677518e-18)
(-0.161593517865256 0.0121681411260899 -1.00202329558697e-17)
(-0.161581268499609 0.0124303764303096 1.27601076628864e-16)
(-0.161151623793972 0.0126690591829613 2.02631124572881e-16)
(-0.160305121452359 0.0129201731254671 -8.20794000093689e-17)
(-0.158866514353102 0.0132592519619557 1.77159238416629e-16)
(-0.156601930296767 0.0136677496689134 9.61985303968065e-17)
(-0.153273574896844 0.0140945454429592 -1.39026986820781e-16)
(-0.148685146743212 0.0146858942784643 -3.23162901701353e-17)
(-0.141829897694339 0.0157259649306474 -1.89876184085379e-16)
(-0.131712404224481 0.0168307796755375 -1.30581684346852e-16)
(-0.118130214364091 0.0177740518241535 7.78782026578914e-17)
(-0.100807103704271 0.0188163562854319 9.00601226519699e-17)
(-0.0784627009120411 0.0199602601869976 -1.25600421404195e-16)
(-0.051048242636398 0.0204112294905998 3.94528381210164e-16)
(-0.0193951987847394 0.0204646879822637 1.22037877253038e-16)
(0.0169358607401093 0.0203991224721826 -7.7906374445055e-17)
(0.0581719790734134 0.0198796068657143 -7.98816328341582e-17)
(0.103507444560731 0.0187678753243871 2.23629062296635e-16)
(0.152464308564289 0.0173123298941806 3.37922986881841e-16)
(0.20475870858709 0.0155420748885757 2.77124720298385e-16)
(0.26011955801698 0.0133326640987018 1.26486650549719e-17)
(0.317401755209712 0.0109037168832526 3.13192962743723e-16)
(0.377364058367205 0.00821808371318525 -1.04810217852582e-16)
(0.437871520242187 0.00539382309391869 -5.022789645995e-16)
(0.501547962459685 0.00252847029242072 -1.85532293116722e-16)
(0.564400497285354 -0.000206328970173628 3.39813642406345e-17)
(0.633646029063681 -0.00320291016222514 9.75405768555681e-17)
(0.697563838776006 -0.00562932428116464 2.55830568938878e-16)
(0.777591968321008 -0.0084233205604812 5.35844011369346e-17)
(0.842585267868592 -0.0101626258144956 -1.22404365047843e-16)
(0.945685143868779 -0.0113222705897504 -3.06567117962782e-17)
(0.983286413152668 -0.000395298667981063 8.98056972758915e-17)
(0.964515408631847 -0.000443018808550236 2.33150483404786e-17)
(0.977167554750153 -5.21443462305126e-06 1.00188267122263e-16)
(0.968528884913144 4.25820684730675e-05 -4.50106753549292e-17)
(0.971398651673181 0.000202785262615698 5.83039734254381e-17)
(0.966332955363879 0.000253638366975918 -4.24255377748423e-17)
(0.965339345559303 0.000330171195552781 -5.94154385786338e-17)
(0.96134138441288 0.000339177585363217 -3.92562509552028e-17)
(0.958810000323784 0.00036001032153678 -1.5067447884919e-17)
(0.955110139146395 0.000354057400468691 -1.68815051228864e-17)
(0.952039218248373 0.000344295491967363 4.54550988448758e-18)
(0.948497055983247 0.000321775850673257 3.88768297949803e-17)
(0.945643155226546 0.000294210291759931 -2.74398499665394e-18)
(0.942986843449577 0.000181810474073052 -1.35277687911748e-18)
(-0.249297402965691 0.00917532854850307 -4.93755253550794e-18)
(-0.247642083740113 0.00971105064900121 -5.70847891189949e-18)
(-0.247976285861664 0.0112346307284471 7.84341104910983e-18)
(-0.248429525238353 0.0120697032507532 2.02495558827785e-17)
(-0.249107184743767 0.012477321264249 3.32786927851595e-17)
(-0.249834844039399 0.0126515682124895 -1.13227233350486e-18)
(-0.250585680904513 0.0127269599820745 1.8000802729415e-19)
(-0.251347734708205 0.0127662175967975 -3.23155064398794e-17)
(-0.252120067556617 0.0127948829798658 1.2178985191425e-17)
(-0.252902643244863 0.0128218976606162 1.61691206316995e-17)
(-0.253695171433514 0.0128495063968037 -7.08757689256171e-18)
(-0.254498301282057 0.0128770151102097 -4.12226423800853e-17)
(-0.25531347332759 0.0129045580259218 -6.3066615103448e-17)
(-0.256141205950354 0.0129326408656132 -5.8931980095089e-17)
(-0.256981398737376 0.0129612915082029 -6.97285767253865e-18)
(-0.257834765853657 0.012989808557028 3.68143003853541e-17)
(-0.258702519592179 0.0130185049355725 -9.73812221759157e-18)
(-0.259585048537901 0.0130478369304768 -3.99145660336291e-17)
(-0.260482468584231 0.0130776691797027 -8.17352825355766e-17)
(-0.261395669116836 0.0131075847569936 -9.50863614598809e-17)
(-0.262325815338868 0.0131379464851648 -1.9279652417038e-16)
(-0.263273165759269 0.0131692814737244 -2.33127635201412e-16)
(-0.264237832815211 0.0132013752778549 -2.30960879013749e-16)
(-0.265220850092206 0.0132337657541468 -4.40548792527141e-17)
(-0.266223392803433 0.0132668546492706 5.32670032969777e-17)
(-0.267245531836954 0.0133011272344685 -2.2129942242854e-17)
(-0.268287646903548 0.0133358681989745 -2.40223944377334e-17)
(-0.269351290211556 0.0133710226761668 -8.75532104990588e-17)
(-0.270437636281359 0.0134074709971302 -1.85061158431636e-16)
(-0.27154600268275 0.0134458970983772 -1.87879011682312e-16)
(-0.272676661736155 0.0134847648965802 -2.44056817125547e-16)
(-0.273831861378642 0.0135240159938769 -1.34581688741711e-16)
(-0.275012801561487 0.0135651830753678 -6.43974547350413e-17)
(-0.276217524220988 0.0136094375750453 4.87625104806784e-17)
(-0.277446153473315 0.0136539195391662 1.57195195405786e-16)
(-0.278701701436417 0.0136993010025087 2.71832158784188e-16)
(-0.279984102986153 0.0137480005827934 -6.89579368517012e-17)
(-0.281289750880586 0.0138005387819017 -2.21572562575158e-16)
(-0.282618666540568 0.0138534317059598 -2.84741842551513e-16)
(-0.283973878874034 0.0139083527650086 -1.6671096907202e-16)
(-0.285352241090442 0.0139689459163121 -5.21629256266397e-16)
(-0.286747026552481 0.0140339823509058 -1.7523594663165e-16)
(-0.288158197710073 0.0140992255823051 9.28651976321228e-17)
(-0.289588276502403 0.0141690417831727 -3.87061709477333e-16)
(-0.291025096914983 0.0142496720674083 -5.06623635435555e-17)
(-0.29245596701911 0.0143342265533676 2.66488848934512e-17)
(-0.293881411847737 0.014418318529806 4.37449385310475e-16)
(-0.295301470684867 0.0145114869923829 4.3831670776845e-16)
(-0.296683419546923 0.0146243549233995 2.59785361663314e-16)
(-0.298003842461494 0.0147377756485599 -4.95344972742327e-16)
(-0.299265468341778 0.0148498503195117 4.65003452427273e-17)
(-0.300457181858871 0.0149804196036818 1.50820125243044e-17)
(-0.301503087730265 0.0151431562385923 1.21152680318354e-16)
(-0.302363410562904 0.0152956954598511 -1.79323765254237e-18)
(-0.303048008197881 0.0154485470484232 -2.49395911211497e-18)
(-0.303497623213776 0.0156378527852495 -4.9804993611485e-17)
(-0.303574254449085 0.0158633456492525 1.03281046194518e-16)
(-0.303210995638982 0.016065483016041 1.87977760814146e-16)
(-0.302414220899004 0.0162739177064093 1.53170197519629e-18)
(-0.300999541684174 0.0165507178700182 9.96268378048117e-17)
(-0.298719444453887 0.0168786412160898 1.93595786934353e-16)
(-0.295328203379214 0.017211620182952 -1.89828385302882e-16)
(-0.290672966646993 0.0176740136474087 -1.30502534234526e-17)
(-0.283707555735966 0.0184942024830385 -2.62458799365445e-16)
(-0.273342105649488 0.0193405132700793 -1.84339135183507e-16)
(-0.259363062666035 0.0200146973807281 -3.67794576483707e-17)
(-0.241508974171807 0.0207368660890373 1.09783392155021e-16)
(-0.218313035432372 0.0214895704463597 -9.0426076258474e-17)
(-0.189712008183947 0.0216023722527285 3.86575945354806e-16)
(-0.156713109260716 0.0213311382951846 9.05288512782291e-17)
(-0.11878034536378 0.0209080894791627 -6.67622789032884e-17)
(-0.0756378036692663 0.0200463163627132 2.12355089862065e-17)
(-0.028191320628993 0.0186368106418498 2.88993813276683e-16)
(0.0230272420966884 0.0168970325153287 4.56667917654895e-16)
(0.0777738032452647 0.0148506319800846 3.35472758654534e-16)