/*--------------------------------*- C++ -*----------------------------------*\
| =========                 |                                                 |
| \\      /  F ield         | OpenFOAM: The Open Source CFD Toolbox           |
|  \\    /   O peration     | Version:  4.1                                   |
|   \\  /    A nd           | Web:      www.OpenFOAM.org                      |
|    \\/     M anipulation  |                                                 |
\*---------------------------------------------------------------------------*/
FoamFile
{
    version     2.0;
    format      ascii;
    class       pointVectorField;
    location    "0.0087";
    object      pointDisplacement_Next;
}
// * * * * * * * * * * * * * * * * * * * * * * * * * * * * * * * * * * * * * //

dimensions      [0 1 0 0 0 0 0];

internalField   uniform (0 0 0);

boundaryField
{
    inlet
    {
        type            fixedValue;
        value           nonuniform 0();
    }
    outlet
    {
        type            fixedValue;
        value           nonuniform 0();
    }
    mantle
    {
        type            fixedValue;
        value           nonuniform List<vector> 
416
(
(5.6294e-05 -1.2669e-06 -7.8296e-11)
(6.0154e-05 8.0112e-07 -1.1566e-10)
(6.0131e-05 7.8985e-07 -1.3559e-07)
(5.6277e-05 -1.2564e-06 2.8982e-07)
(6.0098e-05 7.669e-07 -3.0511e-07)
(5.6256e-05 -1.1645e-06 5.0563e-07)
(6.0083e-05 7.434e-07 -5.0688e-07)
(5.6253e-05 -9.3346e-07 6.0196e-07)
(6.0086e-05 6.6935e-07 -6.6938e-07)
(5.6261e-05 -7.0761e-07 7.0744e-07)
(6.0083e-05 5.0659e-07 -7.4326e-07)
(5.6253e-05 -6.0236e-07 9.3366e-07)
(6.0098e-05 3.0483e-07 -7.6653e-07)
(5.6256e-05 -5.0605e-07 1.165e-06)
(6.013e-05 1.3546e-07 -7.894e-07)
(5.6277e-05 -2.9007e-07 1.257e-06)
(6.0154e-05 1.6497e-10 -8.008e-07)
(5.6294e-05 4.579e-11 1.2674e-06)
(6.4e-05 4.0896e-06 1.8227e-11)
(6.3977e-05 4.0326e-06 -8.1217e-07)
(6.3933e-05 3.8102e-06 -1.586e-06)
(6.3913e-05 3.4088e-06 -2.2769e-06)
(6.3905e-05 2.8788e-06 -2.8788e-06)
(6.3913e-05 2.2768e-06 -3.4088e-06)
(6.3933e-05 1.5859e-06 -3.81e-06)
(6.3977e-05 8.1221e-07 -4.0323e-06)
(6.3999e-05 1.4588e-10 -4.0895e-06)
(6.7764e-05 8.3525e-06 2.9175e-10)
(6.7727e-05 8.1878e-06 -1.6549e-06)
(6.7676e-05 7.6718e-06 -3.2014e-06)
(6.7664e-05 6.8309e-06 -4.5659e-06)
(6.7674e-05 5.7656e-06 -5.7653e-06)
(6.7664e-05 4.566e-06 -6.8308e-06)
(6.7676e-05 3.2016e-06 -7.6717e-06)
(6.7727e-05 1.6552e-06 -8.1878e-06)
(6.7763e-05 4.4487e-11 -8.3526e-06)
(7.1276e-05 1.295e-05 3.1082e-10)
(7.1235e-05 1.2659e-05 -2.5351e-06)
(7.1187e-05 1.1816e-05 -4.9198e-06)
(7.1183e-05 1.0518e-05 -7.0355e-06)
(7.1202e-05 8.8914e-06 -8.8912e-06)
(7.1183e-05 7.0359e-06 -1.0518e-05)
(7.1187e-05 4.9203e-06 -1.1816e-05)
(7.1234e-05 2.5357e-06 -1.266e-05)
(7.1275e-05 2.3755e-10 -1.2951e-05)
(7.441e-05 1.7026e-05 9.4738e-10)
(7.4377e-05 1.6597e-05 -3.2793e-06)
(7.4339e-05 1.5445e-05 -6.3933e-06)
(7.4337e-05 1.3769e-05 -9.2126e-06)
(7.4352e-05 1.1683e-05 -1.1682e-05)
(7.4337e-05 9.2133e-06 -1.3768e-05)
(7.4339e-05 6.3941e-06 -1.5445e-05)
(7.4377e-05 3.2802e-06 -1.6597e-05)
(7.4409e-05 -1.7243e-10 -1.7027e-05)
(7.7245e-05 1.9632e-05 7.69e-10)
(7.7231e-05 1.9098e-05 -3.7613e-06)
(7.7204e-05 1.7753e-05 -7.3375e-06)
(7.7207e-05 1.5825e-05 -1.059e-05)
(7.7206e-05 1.3457e-05 -1.3456e-05)
(7.7207e-05 1.0591e-05 -1.5825e-05)
(7.7204e-05 7.3387e-06 -1.7753e-05)
(7.7231e-05 3.7625e-06 -1.9098e-05)
(7.7244e-05 2.4856e-10 -1.9632e-05)
(7.9909e-05 2.0015e-05 1.0587e-09)
(7.9901e-05 1.9532e-05 -3.8881e-06)
(7.9894e-05 1.8191e-05 -7.5463e-06)
(7.9893e-05 1.6184e-05 -1.0818e-05)
(7.9898e-05 1.3696e-05 -1.3695e-05)
(7.9893e-05 1.082e-05 -1.6184e-05)
(7.9894e-05 7.5479e-06 -1.8191e-05)
(7.99e-05 3.8896e-06 -1.9532e-05)
(7.9908e-05 2.0623e-10 -2.0016e-05)
(8.2454e-05 1.8393e-05 1.2341e-09)
(8.246e-05 1.7999e-05 -3.6283e-06)
(8.2472e-05 1.6802e-05 -7.0048e-06)
(8.2473e-05 1.4898e-05 -9.9469e-06)
(8.2473e-05 1.2543e-05 -1.2542e-05)
(8.2473e-05 9.9486e-06 -1.4897e-05)
(8.2472e-05 7.0066e-06 -1.6801e-05)
(8.246e-05 3.63e-06 -1.7998e-05)
(8.2453e-05 2.4749e-10 -1.8393e-05)
(8.4865e-05 1.5152e-05 1.4575e-09)
(8.4862e-05 1.4805e-05 -2.9736e-06)
(8.4873e-05 1.3796e-05 -5.7371e-06)
(8.4891e-05 1.2223e-05 -8.1589e-06)
(8.4906e-05 1.0302e-05 -1.03e-05)
(8.4891e-05 8.1608e-06 -1.2222e-05)
(8.4873e-05 5.7391e-06 -1.3795e-05)
(8.4862e-05 2.9755e-06 -1.4805e-05)
(8.4864e-05 1.7594e-10 -1.5152e-05)
(8.6995e-05 1.0433e-05 1.4767e-09)
(8.6995e-05 1.0168e-05 -2.0308e-06)
(8.7001e-05 9.4407e-06 -3.9022e-06)
(8.7033e-05 8.3396e-06 -5.5566e-06)
(8.7047e-05 7.0286e-06 -7.0269e-06)
(8.7032e-05 5.5586e-06 -8.3382e-06)
(8.7001e-05 3.9042e-06 -9.4396e-06)
(8.6994e-05 2.0327e-06 -1.0167e-05)
(8.6994e-05 2.5067e-10 -1.0432e-05)
(8.8671e-05 4.3011e-06 1.1708e-09)
(8.8679e-05 4.1917e-06 -8.4953e-07)
(8.8701e-05 3.8586e-06 -1.5985e-06)
(8.8711e-05 3.3421e-06 -2.2096e-06)
(8.8717e-05 2.7678e-06 -2.7665e-06)
(8.8711e-05 2.2115e-06 -3.3406e-06)
(8.87e-05 1.6005e-06 -3.8574e-06)
(8.8678e-05 8.5145e-07 -4.1907e-06)
(8.8671e-05 6.1431e-10 -4.3002e-06)
(8.9755e-05 -2.9644e-06 1.5298e-09)
(8.9782e-05 -2.8937e-06 5.4043e-07)
(8.9822e-05 -2.7596e-06 1.1282e-06)
(8.9812e-05 -2.5985e-06 1.7631e-06)
(8.9798e-05 -2.2971e-06 2.2988e-06)
(8.9812e-05 -1.7611e-06 2.6e-06)
(8.9822e-05 -1.1262e-06 2.7608e-06)
(8.9781e-05 -5.3852e-07 2.8946e-06)
(8.9755e-05 2.5501e-10 2.9652e-06)
(6.013e-05 -1.3523e-07 -7.8916e-07)
(5.6276e-05 2.9015e-07 1.2572e-06)
(6.0098e-05 -3.0449e-07 -7.6603e-07)
(5.6256e-05 5.0619e-07 1.1653e-06)
(6.0082e-05 -5.06e-07 -7.4251e-07)
(5.6252e-05 6.0265e-07 9.3413e-07)
(6.0085e-05 -6.6845e-07 -6.6846e-07)
(5.626e-05 7.0813e-07 7.0804e-07)
(6.0082e-05 -7.4222e-07 -5.0594e-07)
(5.6252e-05 9.3422e-07 6.0259e-07)
(6.0098e-05 -7.6552e-07 -3.0431e-07)
(5.6256e-05 1.1654e-06 5.0619e-07)
(6.013e-05 -7.8841e-07 -1.3503e-07)
(5.6276e-05 1.2575e-06 2.9021e-07)
(6.0154e-05 -7.9984e-07 1.899e-10)
(5.6294e-05 1.2679e-06 1.0905e-10)
(6.3977e-05 -8.1187e-07 -4.032e-06)
(6.3933e-05 -1.5854e-06 -3.8094e-06)
(6.3912e-05 -2.276e-06 -3.4078e-06)
(6.3905e-05 -2.8776e-06 -2.8777e-06)
(6.3912e-05 -3.4073e-06 -2.2758e-06)
(6.3933e-05 -3.8085e-06 -1.585e-06)
(6.3977e-05 -4.0308e-06 -8.1147e-07)
(6.3999e-05 -4.0881e-06 4.1474e-10)
(6.7727e-05 -1.6548e-06 -8.1875e-06)
(6.7676e-05 -3.201e-06 -7.671e-06)
(6.7663e-05 -4.5651e-06 -6.8297e-06)
(6.7673e-05 -5.7641e-06 -5.7642e-06)
(6.7663e-05 -6.8292e-06 -4.5645e-06)
(6.7676e-05 -7.6699e-06 -3.2003e-06)
(6.7727e-05 -8.1859e-06 -1.6541e-06)
(6.7763e-05 -8.3508e-06 7.3832e-10)
(7.1234e-05 -2.5352e-06 -1.2659e-05)
(7.1186e-05 -4.9197e-06 -1.1815e-05)
(7.1182e-05 -7.035e-06 -1.0517e-05)
(7.1202e-05 -8.8901e-06 -8.8898e-06)
(7.1182e-05 -1.0516e-05 -7.0342e-06)
(7.1186e-05 -1.1814e-05 -4.9187e-06)
(7.1234e-05 -1.2658e-05 -2.5343e-06)
(7.1275e-05 -1.2949e-05 7.7631e-10)
(7.4377e-05 -3.2796e-06 -1.6597e-05)
(7.4339e-05 -6.3935e-06 -1.5444e-05)
(7.4337e-05 -9.2124e-06 -1.3767e-05)
(7.4352e-05 -1.1682e-05 -1.1681e-05)
(7.4337e-05 -1.3767e-05 -9.2114e-06)
(7.4339e-05 -1.5443e-05 -6.3922e-06)
(7.4377e-05 -1.6595e-05 -3.2786e-06)
(7.441e-05 -1.7025e-05 1.4123e-09)
(7.723e-05 -3.762e-06 -1.9098e-05)
(7.7203e-05 -7.338e-06 -1.7752e-05)
(7.7207e-05 -1.059e-05 -1.5824e-05)
(7.7205e-05 -1.3455e-05 -1.3455e-05)
(7.7207e-05 -1.5824e-05 -1.0589e-05)
(7.7204e-05 -1.7751e-05 -7.3366e-06)
(7.7231e-05 -1.9096e-05 -3.7607e-06)
(7.7244e-05 -1.963e-05 1.2179e-09)
(7.99e-05 -3.889e-06 -1.9532e-05)
(7.9893e-05 -7.5472e-06 -1.819e-05)
(7.9892e-05 -1.0819e-05 -1.6183e-05)
(7.9897e-05 -1.3695e-05 -1.3694e-05)
(7.9893e-05 -1.6183e-05 -1.0817e-05)
(7.9894e-05 -1.8189e-05 -7.5455e-06)
(7.99e-05 -1.9531e-05 -3.8875e-06)
(7.9908e-05 -2.0014e-05 1.4763e-09)
(8.2459e-05 -3.6295e-06 -1.7998e-05)
(8.2471e-05 -7.0059e-06 -1.68e-05)
(8.2472e-05 -9.9476e-06 -1.4896e-05)
(8.2472e-05 -1.2542e-05 -1.2541e-05)
(8.2472e-05 -1.4897e-05 -9.9459e-06)
(8.2472e-05 -1.6801e-05 -7.0041e-06)
(8.246e-05 -1.7998e-05 -3.6278e-06)
(8.2453e-05 -1.8392e-05 1.6189e-09)
(8.4862e-05 -2.9749e-06 -1.4804e-05)
(8.4872e-05 -5.7383e-06 -1.3794e-05)
(8.4891e-05 -8.1598e-06 -1.2221e-05)
(8.4906e-05 -1.0301e-05 -1.0299e-05)
(8.4891e-05 -1.2222e-05 -8.1581e-06)
(8.4873e-05 -1.3795e-05 -5.7365e-06)
(8.4862e-05 -1.4805e-05 -2.9731e-06)
(8.4864e-05 -1.5152e-05 1.8132e-09)
(8.6994e-05 -2.0321e-06 -1.0167e-05)
(8.7001e-05 -3.9034e-06 -9.4389e-06)
(8.7032e-05 -5.5577e-06 -8.3374e-06)
(8.7046e-05 -7.0277e-06 -7.0261e-06)
(8.7032e-05 -8.3387e-06 -5.5559e-06)
(8.7001e-05 -9.4399e-06 -3.9016e-06)
(8.6994e-05 -1.0168e-05 -2.0304e-06)
(8.6994e-05 -1.0432e-05 1.7917e-09)
(8.8678e-05 -8.509e-07 -4.1904e-06)
(8.87e-05 -1.5998e-06 -3.8569e-06)
(8.8711e-05 -2.2109e-06 -3.3401e-06)
(8.8717e-05 -2.7671e-06 -2.766e-06)
(8.8711e-05 -3.3414e-06 -2.2092e-06)
(8.87e-05 -3.858e-06 -1.5982e-06)
(8.8678e-05 -4.1912e-06 -8.4926e-07)
(8.867e-05 -4.3008e-06 2.1361e-09)
(8.9781e-05 5.3903e-07 2.8947e-06)
(8.9822e-05 1.1267e-06 2.761e-06)
(8.9812e-05 1.7616e-06 2.6001e-06)
(8.9797e-05 2.2975e-06 2.2989e-06)
(8.9812e-05 2.5987e-06 1.7631e-06)
(8.9822e-05 2.7598e-06 1.1282e-06)
(8.9781e-05 2.8939e-06 5.4051e-07)
(8.9755e-05 2.9645e-06 1.6964e-09)
(6.013e-05 -7.8832e-07 1.355e-07)
(5.6277e-05 1.2577e-06 -2.9005e-07)
(6.0098e-05 -7.6543e-07 3.0473e-07)
(5.6256e-05 1.1658e-06 -5.0614e-07)
(6.0083e-05 -7.4225e-07 5.0634e-07)
(5.6253e-05 9.3449e-07 -6.0262e-07)
(6.0086e-05 -6.6868e-07 6.6897e-07)
(5.6261e-05 7.0818e-07 -7.0798e-07)
(6.0084e-05 -5.0639e-07 7.4325e-07)
(5.6254e-05 6.0248e-07 -9.3383e-07)
(6.0099e-05 -3.0494e-07 7.6702e-07)
(5.6257e-05 5.0588e-07 -1.1647e-06)
(6.0131e-05 -1.3564e-07 7.9026e-07)
(5.6278e-05 2.8986e-07 -1.2565e-06)
(6.0155e-05 -2.5949e-10 8.018e-07)
(5.6295e-05 -1.6462e-10 -1.2668e-06)
(6.3977e-05 -4.0309e-06 8.1228e-07)
(6.3933e-05 -3.8086e-06 1.5858e-06)
(6.3913e-05 -3.4076e-06 2.2766e-06)
(6.3906e-05 -2.878e-06 2.8785e-06)
(6.3913e-05 -2.2765e-06 3.4089e-06)
(6.3934e-05 -1.5859e-06 3.8106e-06)
(6.3978e-05 -8.1233e-07 4.0334e-06)
(6.4e-05 -2.1511e-10 4.0907e-06)
(6.7727e-05 -8.186e-06 1.6553e-06)
(6.7676e-05 -7.6701e-06 3.2015e-06)
(6.7664e-05 -6.8295e-06 4.5658e-06)
(6.7674e-05 -5.7645e-06 5.7655e-06)
(6.7664e-05 -4.5655e-06 6.8311e-06)
(6.7677e-05 -3.2016e-06 7.6725e-06)
(6.7727e-05 -1.6553e-06 8.1889e-06)
(6.7764e-05 -8.9865e-11 8.3539e-06)
(7.1235e-05 -1.2658e-05 2.5359e-06)
(7.1187e-05 -1.1814e-05 4.9203e-06)
(7.1183e-05 -1.0516e-05 7.0358e-06)
(7.1202e-05 -8.8905e-06 8.8914e-06)
(7.1183e-05 -7.0354e-06 1.0518e-05)
(7.1187e-05 -4.9202e-06 1.1817e-05)
(7.1235e-05 -2.5357e-06 1.2661e-05)
(7.1276e-05 -2.6407e-10 1.2952e-05)
(7.4377e-05 -1.6595e-05 3.2806e-06)
(7.4339e-05 -1.5443e-05 6.3943e-06)
(7.4337e-05 -1.3767e-05 9.2134e-06)
(7.4353e-05 -1.1681e-05 1.1683e-05)
(7.4337e-05 -9.2127e-06 1.3769e-05)
(7.4339e-05 -6.3938e-06 1.5446e-05)
(7.4377e-05 -3.2801e-06 1.6598e-05)
(7.441e-05 -6.7924e-10 1.7028e-05)
(7.7231e-05 -1.9097e-05 3.7631e-06)
(7.7204e-05 -1.7752e-05 7.339e-06)
(7.7207e-05 -1.5824e-05 1.0591e-05)
(7.7206e-05 -1.3456e-05 1.3457e-05)
(7.7207e-05 -1.059e-05 1.5826e-05)
(7.7204e-05 -7.3383e-06 1.7754e-05)
(7.7231e-05 -3.7623e-06 1.9099e-05)
(7.7245e-05 -2.3297e-10 1.9633e-05)
(7.99e-05 -1.9531e-05 3.8904e-06)
(7.9894e-05 -1.819e-05 7.5484e-06)
(7.9893e-05 -1.6184e-05 1.082e-05)
(7.9897e-05 -1.3695e-05 1.3697e-05)
(7.9893e-05 -1.0819e-05 1.6185e-05)
(7.9894e-05 -7.5473e-06 1.8192e-05)
(7.9901e-05 -3.8893e-06 1.9533e-05)
(7.9909e-05 -1.4714e-10 2.0016e-05)
(8.246e-05 -1.7998e-05 3.631e-06)
(8.2472e-05 -1.6801e-05 7.0073e-06)
(8.2473e-05 -1.4897e-05 9.9492e-06)
(8.2472e-05 -1.2542e-05 1.2544e-05)
(8.2473e-05 -9.9478e-06 1.4899e-05)
(8.2472e-05 -7.0059e-06 1.6803e-05)
(8.246e-05 -3.6296e-06 1.8e-05)
(8.2454e-05 -1.3346e-10 1.8394e-05)
(8.4862e-05 -1.4805e-05 2.9766e-06)
(8.4872e-05 -1.3795e-05 5.74e-06)
(8.4891e-05 -1.2222e-05 8.1615e-06)
(8.4906e-05 -1.0301e-05 1.0303e-05)
(8.4891e-05 -8.16e-06 1.2224e-05)
(8.4873e-05 -5.7384e-06 1.3797e-05)
(8.4862e-05 -2.975e-06 1.4806e-05)
(8.4865e-05 -1.5805e-10 1.5153e-05)
(8.6994e-05 -1.0168e-05 2.0339e-06)
(8.7e-05 -9.44e-06 3.9052e-06)
(8.7032e-05 -8.3389e-06 5.5594e-06)
(8.7046e-05 -7.0278e-06 7.0294e-06)
(8.7032e-05 -5.5577e-06 8.3404e-06)
(8.7001e-05 -3.9034e-06 9.4416e-06)
(8.6994e-05 -2.0322e-06 1.0169e-05)
(8.6995e-05 -2.6537e-11 1.0434e-05)
(8.8678e-05 -4.1912e-06 8.528e-07)
(8.87e-05 -3.858e-06 1.6016e-06)
(8.871e-05 -3.3414e-06 2.2126e-06)
(8.8717e-05 -2.767e-06 2.7692e-06)
(8.8711e-05 -2.2107e-06 3.3429e-06)
(8.87e-05 -1.5997e-06 3.8595e-06)
(8.8678e-05 -8.5092e-07 4.1927e-06)
(8.8671e-05 4.061e-10 4.3023e-06)
(8.9781e-05 2.894e-06 -5.3715e-07)
(8.9821e-05 2.7601e-06 -1.125e-06)
(8.9811e-05 2.5991e-06 -1.7601e-06)
(8.9797e-05 2.2979e-06 -2.2961e-06)
(8.9811e-05 1.762e-06 -2.5976e-06)
(8.9821e-05 1.127e-06 -2.7588e-06)
(8.9781e-05 5.3909e-07 -2.8928e-06)
(8.9755e-05 1.1047e-10 -2.9633e-06)
(6.0131e-05 1.3524e-07 7.9009e-07)
(5.6278e-05 -2.9019e-07 -1.2567e-06)
(6.0099e-05 3.0452e-07 7.6674e-07)
(5.6257e-05 -5.0623e-07 -1.1649e-06)
(6.0084e-05 5.0599e-07 7.4295e-07)
(5.6253e-05 -6.0279e-07 -9.3405e-07)
(6.0087e-05 6.683e-07 6.6883e-07)
(5.6261e-05 -7.0836e-07 -7.0812e-07)
(6.0083e-05 7.4225e-07 5.0623e-07)
(5.6253e-05 -9.3445e-07 -6.0263e-07)
(6.0098e-05 7.6585e-07 3.0469e-07)
(5.6257e-05 -1.1654e-06 -5.0609e-07)
(6.0131e-05 7.8922e-07 1.354e-07)
(5.6277e-05 -1.257e-06 -2.9006e-07)
(6.3978e-05 8.1188e-07 4.0332e-06)
(6.3934e-05 1.5855e-06 3.8103e-06)
(6.3914e-05 2.276e-06 3.4085e-06)
(6.3906e-05 2.8776e-06 2.8782e-06)
(6.3913e-05 3.4075e-06 2.2764e-06)
(6.3934e-05 3.8091e-06 1.5857e-06)
(6.3977e-05 4.0319e-06 8.1211e-07)
(6.7727e-05 1.6548e-06 8.1887e-06)
(6.7677e-05 3.2011e-06 7.6721e-06)
(6.7664e-05 4.565e-06 6.8306e-06)
(6.7674e-05 5.7643e-06 5.7648e-06)
(6.7664e-05 6.8295e-06 4.5655e-06)
(6.7677e-05 7.6706e-06 3.2014e-06)
(6.7727e-05 8.1871e-06 1.6551e-06)
(7.1235e-05 2.5351e-06 1.266e-05)
(7.1187e-05 4.9196e-06 1.1816e-05)
(7.1183e-05 7.0349e-06 1.0518e-05)
(7.1203e-05 8.8901e-06 8.8909e-06)
(7.1183e-05 1.0516e-05 7.0355e-06)
(7.1187e-05 1.1815e-05 4.9201e-06)
(7.1235e-05 1.2659e-05 2.5357e-06)
(7.4378e-05 3.2795e-06 1.6598e-05)
(7.434e-05 6.3933e-06 1.5445e-05)
(7.4337e-05 9.2121e-06 1.3768e-05)
(7.4353e-05 1.1682e-05 1.1682e-05)
(7.4338e-05 1.3767e-05 9.213e-06)
(7.434e-05 1.5444e-05 6.394e-06)
(7.4378e-05 1.6596e-05 3.2803e-06)
(7.7231e-05 3.7618e-06 1.9099e-05)
(7.7204e-05 7.3377e-06 1.7753e-05)
(7.7208e-05 1.0589e-05 1.5825e-05)
(7.7206e-05 1.3455e-05 1.3456e-05)
(7.7208e-05 1.5824e-05 1.0591e-05)
(7.7205e-05 1.7752e-05 7.3387e-06)
(7.7231e-05 1.9097e-05 3.7628e-06)
(7.9901e-05 3.8888e-06 1.9533e-05)
(7.9894e-05 7.5468e-06 1.8191e-05)
(7.9893e-05 1.0818e-05 1.6185e-05)
(7.9898e-05 1.3695e-05 1.3696e-05)
(7.9894e-05 1.6183e-05 1.082e-05)
(7.9894e-05 1.819e-05 7.548e-06)
(7.9901e-05 1.9532e-05 3.8901e-06)
(8.246e-05 3.6293e-06 1.7999e-05)
(8.2472e-05 7.0055e-06 1.6802e-05)
(8.2473e-05 9.9473e-06 1.4898e-05)
(8.2473e-05 1.2542e-05 1.2543e-05)
(8.2473e-05 1.4897e-05 9.9487e-06)
(8.2472e-05 1.6801e-05 7.007e-06)
(8.246e-05 1.7998e-05 3.6307e-06)
(8.4862e-05 2.9748e-06 1.4806e-05)
(8.4873e-05 5.7381e-06 1.3796e-05)
(8.4891e-05 8.1596e-06 1.2224e-05)
(8.4906e-05 1.0301e-05 1.0302e-05)
(8.4891e-05 1.2222e-05 8.1612e-06)
(8.4873e-05 1.3795e-05 5.7397e-06)
(8.4862e-05 1.4805e-05 2.9763e-06)
(8.6995e-05 2.0321e-06 1.0169e-05)
(8.7001e-05 3.9034e-06 9.4414e-06)
(8.7033e-05 5.5575e-06 8.3401e-06)
(8.7047e-05 7.0275e-06 7.0291e-06)
(8.7033e-05 8.3387e-06 5.5591e-06)
(8.7001e-05 9.44e-06 3.905e-06)
(8.6995e-05 1.0168e-05 2.0337e-06)
(8.8678e-05 8.5104e-07 4.1927e-06)
(8.8701e-05 1.5998e-06 3.8594e-06)
(8.8711e-05 2.2107e-06 3.3427e-06)
(8.8718e-05 2.7668e-06 2.7688e-06)
(8.8711e-05 3.3413e-06 2.2123e-06)
(8.8701e-05 3.858e-06 1.6014e-06)
(8.8679e-05 4.1914e-06 8.526e-07)
(8.9781e-05 -5.3885e-07 -2.8927e-06)
(8.9822e-05 -1.1267e-06 -2.7589e-06)
(8.9812e-05 -1.762e-06 -2.5979e-06)
(8.9797e-05 -2.2981e-06 -2.2966e-06)
(8.9812e-05 -2.5993e-06 -1.7604e-06)
(8.9822e-05 -2.7602e-06 -1.1252e-06)
(8.9782e-05 -2.894e-06 -5.3735e-07)
)
;
    }
    procBoundary1to0
    {
        type            processor;
    }
    procBoundary1to2
    {
        type            processor;
    }
}


// ************************************************************************* //
