/*--------------------------------*- C++ -*----------------------------------*\
| =========                 |                                                 |
| \\      /  F ield         | foam-extend: Open Source CFD                    |
|  \\    /   O peration     | Version:     4.1-20200408                       |
|   \\  /    A nd           | Web:         http://www.foam-extend.org         |
|    \\/     M anipulation  |                                                 |
\*---------------------------------------------------------------------------*/
FoamFile
{
    version     2.0;
    format      ascii;
    class       volScalarField;
    location    "0.0895000";
    object      rho_0;
}
// * * * * * * * * * * * * * * * * * * * * * * * * * * * * * * * * * * * * * //

dimensions      [1 -3 0 0 0 0 0];

internalField   nonuniform List<scalar> 
1952
(
7864
7862.75
7861.01
7858.9
7856.26
7853.33
7850.11
7846.43
7842.3
7837.07
7831.48
7823.76
7815.7
7807.5
7802.04
7864.61
7863.79
7862.54
7860.8
7858.69
7856.06
7853.13
7849.92
7846.24
7842.12
7836.91
7831.34
7823.64
7815.62
7807.47
7802.08
7864.4
7863.62
7862.37
7860.64
7858.53
7855.89
7852.97
7849.77
7846.1
7841.99
7836.79
7831.23
7823.55
7815.55
7807.43
7802.08
7864.23
7863.47
7862.22
7860.48
7858.38
7855.75
7852.83
7849.63
7845.97
7841.87
7836.68
7831.14
7823.48
7815.5
7807.41
7802.09
7864.07
7863.33
7862.08
7860.35
7858.25
7855.62
7852.71
7849.52
7845.87
7841.77
7836.6
7831.07
7823.42
7815.46
7807.4
7802.1
7863.93
7863.21
7861.96
7860.24
7858.13
7855.51
7852.61
7849.42
7845.78
7841.69
7836.53
7831.01
7823.37
7815.43
7807.38
7802.1
7863.82
7863.11
7861.86
7860.14
7858.04
7855.42
7852.52
7849.34
7845.7
7841.62
7836.47
7830.96
7823.33
7815.4
7807.37
7802.1
7863.71
7863.02
7861.78
7860.05
7857.95
7855.33
7852.44
7849.27
7845.63
7841.56
7836.41
7830.91
7823.29
7815.37
7807.35
7802.1
7863.62
7862.95
7861.7
7859.97
7857.88
7855.26
7852.37
7849.2
7845.57
7841.5
7836.36
7830.87
7823.25
7815.35
7807.33
7802.09
7863.55
7862.88
7861.63
7859.91
7857.81
7855.2
7852.31
7849.14
7845.52
7841.45
7836.32
7830.83
7823.22
7815.31
7807.31
7802.08
7863.48
7862.81
7861.57
7859.85
7857.75
7855.14
7852.25
7849.09
7845.47
7841.4
7836.27
7830.79
7823.18
7815.28
7807.29
7802.06
7863.41
7862.76
7861.51
7859.79
7857.7
7855.08
7852.2
7849.04
7845.42
7841.35
7836.23
7830.75
7823.14
7815.25
7807.26
7802.03
7863.36
7862.71
7861.46
7859.74
7857.65
7855.03
7852.16
7849
7845.37
7841.31
7836.19
7830.71
7823.1
7815.21
7807.23
7802.01
7863.31
7862.66
7861.42
7859.7
7857.6
7854.99
7852.11
7848.95
7845.33
7841.26
7836.15
7830.67
7823.06
7815.17
7807.2
7801.97
7863.26
7862.62
7861.38
7859.65
7857.56
7854.94
7852.07
7848.91
7845.29
7841.22
7836.1
7830.63
7823.02
7815.13
7807.16
7801.94
7863.22
7862.58
7861.34
7859.61
7857.52
7854.9
7852.03
7848.87
7845.24
7841.17
7836.06
7830.58
7822.98
7815.09
7807.12
7801.9
7863.18
7862.55
7861.3
7859.57
7857.48
7854.86
7851.99
7848.82
7845.2
7841.13
7836.02
7830.54
7822.93
7815.04
7807.08
7801.86
7863.15
7862.51
7861.26
7859.54
7857.44
7854.82
7851.95
7848.78
7845.16
7841.08
7835.97
7830.49
7822.88
7814.99
7807.03
7801.81
7863.11
7862.48
7861.23
7859.51
7857.41
7854.78
7851.91
7848.74
7845.12
7841.04
7835.93
7830.44
7822.83
7814.94
7806.98
7801.76
7863.08
7862.45
7861.2
7859.47
7857.38
7854.75
7851.87
7848.71
7845.08
7840.99
7835.88
7830.39
7822.78
7814.88
7806.93
7801.7
7863.05
7862.43
7861.18
7859.45
7857.35
7854.72
7851.84
7848.67
7845.04
7840.95
7835.83
7830.34
7822.72
7814.82
7806.88
7801.64
7863.03
7862.41
7861.16
7859.43
7857.32
7854.69
7851.81
7848.63
7845
7840.9
7835.79
7830.29
7822.66
7814.76
7806.81
7801.58
7863.01
7862.4
7861.14
7859.41
7857.3
7854.66
7851.78
7848.6
7844.96
7840.85
7835.74
7830.23
7822.6
7814.69
7806.75
7801.51
7863
7862.39
7861.13
7859.4
7857.28
7854.64
7851.76
7848.57
7844.93
7840.81
7835.69
7830.18
7822.54
7814.62
7806.68
7801.43
7862.99
7862.39
7861.13
7859.39
7857.28
7854.62
7851.74
7848.54
7844.89
7840.77
7835.64
7830.12
7822.47
7814.55
7806.61
7801.35
7863
7862.4
7861.14
7859.4
7857.28
7854.62
7851.73
7848.52
7844.87
7840.73
7835.6
7830.06
7822.41
7814.47
7806.53
7801.26
7863.01
7862.43
7861.16
7859.41
7857.29
7854.62
7851.73
7848.51
7844.85
7840.69
7835.56
7830
7822.34
7814.39
7806.44
7801.16
7863.03
7862.47
7861.2
7859.45
7857.32
7854.64
7851.74
7848.51
7844.84
7840.67
7835.52
7829.95
7822.27
7814.3
7806.35
7801.05
7863.08
7862.53
7861.26
7859.49
7857.36
7854.67
7851.76
7848.52
7844.84
7840.65
7835.49
7829.9
7822.21
7814.22
7806.25
7800.94
7863.14
7862.61
7861.33
7859.57
7857.42
7854.72
7851.8
7848.55
7844.85
7840.64
7835.47
7829.86
7822.15
7814.13
7806.16
7800.81
7863.22
7862.72
7861.44
7859.66
7857.51
7854.8
7851.87
7848.6
7844.89
7840.65
7835.46
7829.82
7822.09
7814.05
7806.05
7800.68
7863.33
7862.86
7861.58
7859.79
7857.64
7854.91
7851.97
7848.68
7844.95
7840.69
7835.48
7829.8
7822.05
7813.96
7805.95
7800.54
7863.47
7863.04
7861.75
7859.96
7857.79
7855.05
7852.1
7848.79
7845.04
7840.75
7835.51
7829.8
7822.02
7813.89
7805.85
7800.39
7863.65
7863.26
7861.97
7860.17
7857.99
7855.24
7852.27
7848.94
7845.17
7840.84
7835.59
7829.83
7822.01
7813.83
7805.75
7800.23
7863.87
7863.53
7862.24
7860.43
7858.25
7855.47
7852.49
7849.14
7845.35
7840.98
7835.7
7829.89
7822.03
7813.79
7805.67
7800.08
7864.14
7863.85
7862.56
7860.74
7858.56
7855.77
7852.77
7849.4
7845.58
7841.18
7835.86
7830
7822.09
7813.77
7805.6
7799.93
7864.47
7864.24
7862.95
7861.12
7858.93
7856.13
7853.13
7849.73
7845.89
7841.45
7836.09
7830.17
7822.21
7813.8
7805.57
7799.79
7864.86
7864.69
7863.4
7861.57
7859.38
7856.57
7853.55
7850.14
7846.28
7841.8
7836.41
7830.42
7822.4
7813.89
7805.58
7799.67
7865.31
7865.2
7863.92
7862.09
7859.9
7857.09
7854.07
7850.65
7846.77
7842.26
7836.83
7830.77
7822.69
7814.06
7805.67
7799.59
7865.82
7865.78
7864.51
7862.68
7860.51
7857.7
7854.69
7851.26
7847.38
7842.85
7837.39
7831.27
7823.11
7814.35
7805.85
7799.57
7866.4
7866.41
7865.17
7863.35
7861.19
7858.4
7855.41
7852.01
7848.12
7843.59
7838.11
7831.93
7823.71
7814.81
7806.17
7799.63
7867.03
7867.1
7865.88
7864.08
7861.95
7859.2
7856.25
7852.88
7849.03
7844.51
7839.04
7832.82
7824.54
7815.49
7806.7
7799.82
7867.71
7867.81
7866.62
7864.85
7862.78
7860.08
7857.19
7853.89
7850.09
7845.64
7840.2
7834
7825.69
7816.49
7807.52
7800.18
7868.41
7868.51
7867.37
7865.65
7863.64
7861.03
7858.22
7855.04
7851.34
7847
7841.66
7835.53
7827.27
7817.98
7808.87
7800.97
7869.1
7869.17
7868.08
7866.42
7864.5
7862
7859.32
7856.3
7852.74
7848.61
7843.43
7837.5
7829.4
7820.22
7811.24
7803.07
7869.74
7869.72
7868.69
7867.12
7865.31
7862.95
7860.43
7857.63
7854.28
7850.43
7845.51
7839.94
7832.21
7823.48
7815.16
7807.8
7870.27
7870.09
7869.14
7867.66
7865.99
7863.81
7861.49
7858.96
7855.87
7852.38
7847.8
7842.7
7835.4
7827.24
7819.63
7812.98
7870.62
7870.19
7869.33
7867.96
7866.46
7864.49
7862.4
7860.18
7857.41
7854.37
7850.19
7845.68
7838.89
7831.41
7824.51
7818.36
7870.7
7869.92
7869.16
7867.92
7866.59
7864.86
7863.05
7861.19
7858.79
7856.27
7852.56
7848.75
7842.52
7835.88
7829.61
7823.87
7870.4
7869.15
7868.5
7867.4
7866.28
7864.8
7863.3
7861.84
7859.85
7857.92
7854.76
7851.77
7846.18
7840.68
7834.88
7829.54
7869.6
7867.76
7867.22
7866.27
7865.37
7864.17
7862.99
7861.96
7860.43
7859.14
7856.62
7854.57
7849.81
7845.71
7840.38
7835.56
7868.18
7865.6
7865.18
7864.39
7863.71
7862.8
7861.98
7861.38
7860.34
7859.71
7857.84
7856.73
7853.09
7850.75
7846.09
7842.24
7865.98
7862.54
7862.26
7861.62
7861.18
7860.55
7860.02
7859.75
7859.12
7859.17
7858.13
7858.22
7855.82
7855.24
7851.57
7849.66
7862.89
7858.38
7858.19
7857.66
7857.41
7857.07
7856.98
7857.19
7857.17
7857.99
7857.87
7859.16
7857.92
7859.07
7856.71
7857.53
7858.71
7852.92
7852.93
7852.66
7852.81
7852.99
7853.57
7854.51
7855.3
7856.91
7857.6
7859.96
7859.92
7862.76
7861.7
7865.49
7853.2
7847.11
7847.51
7847.76
7848.52
7849.37
7850.6
7852.26
7853.84
7856.23
7857.73
7860.95
7861.88
7866.1
7866.17
7872.43
7847.23
7842.21
7842.97
7843.74
7845.08
7846.58
7848.41
7850.63
7852.82
7855.79
7857.98
7861.87
7863.62
7868.91
7869.99
7878.19
7842.14
7838.67
7839.66
7840.79
7842.51
7844.45
7846.75
7849.4
7852.1
7855.5
7858.27
7862.64
7865.1
7871.12
7873.08
7882.7
7838.44
7836.36
7837.47
7838.83
7840.78
7843
7845.62
7848.57
7851.65
7855.34
7858.58
7863.25
7866.28
7872.73
7875.4
7885.88
7836.01
7835.18
7836.31
7837.8
7839.87
7842.24
7845.06
7848.18
7851.52
7855.35
7858.93
7863.71
7867.19
7873.76
7876.98
7887.76
7834.74
7834.98
7836.11
7837.65
7839.76
7842.18
7845.09
7848.25
7851.73
7855.57
7859.35
7864.07
7867.84
7874.25
7877.82
7888.37
7834.49
7835.69
7836.79
7838.32
7840.41
7842.8
7845.71
7848.8
7852.31
7856.02
7859.88
7864.36
7868.25
7874.22
7877.95
7887.73
7835.17
7837.23
7838.28
7839.75
7841.76
7844.06
7846.87
7849.81
7853.23
7856.71
7860.5
7864.59
7868.45
7873.73
7877.39
7885.93
7836.74
7839.6
7840.55
7841.91
7843.78
7845.89
7848.53
7851.24
7854.47
7857.63
7861.23
7864.79
7868.45
7872.8
7876.16
7883.04
7839.15
7842.74
7843.57
7844.74
7846.39
7848.25
7850.63
7853.03
7855.99
7858.74
7862.04
7864.97
7868.26
7871.49
7874.34
7879.2
7842.38
7846.61
7847.27
7848.2
7849.57
7851.11
7853.16
7855.17
7857.78
7860.04
7862.93
7865.14
7867.9
7869.82
7871.95
7874.58
7846.33
7851.07
7851.56
7852.24
7853.3
7854.47
7856.12
7857.69
7859.85
7861.56
7863.93
7865.32
7867.37
7867.85
7869.08
7869.39
7850.88
7855.93
7856.3
7856.76
7857.53
7858.33
7859.58
7860.66
7862.31
7863.38
7865.12
7865.57
7866.72
7865.63
7865.8
7863.87
7855.8
7860.96
7861.26
7861.59
7862.17
7862.68
7863.55
7864.17
7865.26
7865.66
7866.64
7866.04
7866.06
7863.27
7862.26
7858.31
7860.84
7865.93
7866.24
7866.51
7867
7867.34
7867.93
7868.17
7868.75
7868.48
7868.64
7866.87
7865.54
7860.95
7858.67
7852.99
7865.81
7870.64
7870.96
7871.23
7871.69
7871.96
7872.42
7872.43
7872.65
7871.87
7871.28
7868.28
7865.42
7859.04
7855.45
7848.28
7870.52
7875.22
7875.56
7875.86
7876.35
7876.67
7877.13
7877.1
7877.11
7875.96
7874.44
7870.26
7865.95
7857.94
7853.1
7844.66
7875.1
7880.1
7880.28
7880.39
7880.59
7880.56
7880.54
7879.91
7879.07
7876.95
7874.39
7869.64
7864.77
7856.84
7851.62
7842.44
7880.03
7881.72
7881.55
7881.16
7880.68
7879.84
7878.83
7877.2
7875.33
7872.37
7869.45
7865.09
7861
7854.57
7850.21
7841.54
7881.78
7877.81
7877.49
7876.91
7876.13
7874.99
7873.64
7871.74
7869.67
7866.83
7864.15
7860.25
7856.94
7851.79
7848.33
7841.55
7877.94
7872.79
7872.47
7871.91
7871.16
7870.1
7868.84
7867.11
7865.22
7862.65
7860.11
7856.65
7853.51
7849.17
7845.87
7841.07
7872.92
7868.78
7868.41
7867.82
7867.03
7865.94
7864.67
7862.99
7861.18
7858.83
7856.49
7853.45
7850.64
7846.97
7843.77
7839.94
7868.91
7864.87
7864.5
7863.94
7863.17
7862.16
7860.96
7859.42
7857.75
7855.63
7853.5
7850.82
7848.29
7845.1
7842.29
7838.74
7865
7861.44
7861.07
7860.54
7859.79
7858.84
7857.7
7856.29
7854.75
7852.86
7850.94
7848.58
7846.34
7843.61
7841.13
7838.13
7861.57
7858.32
7857.96
7857.47
7856.77
7855.89
7854.85
7853.57
7852.17
7850.49
7848.77
7846.71
7844.74
7842.38
7840.24
7837.65
7858.43
7855.54
7855.2
7854.75
7854.1
7853.3
7852.34
7851.2
7849.94
7848.45
7846.92
7845.13
7843.41
7841.38
7839.54
7837.35
7855.65
7853.07
7852.74
7852.34
7851.74
7851.02
7850.16
7849.13
7848.01
7846.7
7845.35
7843.8
7842.3
7840.56
7838.99
7837.13
7853.16
7850.87
7850.57
7850.2
7849.66
7849.02
7848.24
7847.34
7846.34
7845.19
7844.01
7842.67
7841.37
7839.89
7838.55
7836.98
7850.96
7848.92
7848.64
7848.32
7847.83
7847.26
7846.57
7845.77
7844.89
7843.89
7842.86
7841.7
7840.59
7839.33
7838.19
7836.86
7849
7847.2
7846.95
7846.66
7846.22
7845.72
7845.11
7844.41
7843.63
7842.77
7841.87
7840.88
7839.92
7838.85
7837.89
7836.76
7847.27
7845.67
7845.45
7845.19
7844.81
7844.37
7843.82
7843.21
7842.54
7841.79
7841.02
7840.16
7839.35
7838.44
7837.62
7836.67
7845.73
7844.33
7844.12
7843.9
7843.56
7843.18
7842.7
7842.17
7841.59
7840.94
7840.27
7839.54
7838.85
7838.08
7837.39
7836.59
7844.38
7843.14
7842.96
7842.76
7842.46
7842.13
7841.71
7841.25
7840.75
7840.19
7839.62
7839
7838.41
7837.75
7837.17
7836.49
7843.18
7842.08
7841.92
7841.76
7841.49
7841.2
7840.84
7840.45
7840.01
7839.53
7839.04
7838.51
7838.01
7837.46
7836.97
7836.4
7842.13
7841.15
7841.01
7840.87
7840.64
7840.39
7840.07
7839.73
7839.35
7838.95
7838.53
7838.08
7837.65
7837.19
7836.78
7836.29
7841.19
7840.32
7840.2
7840.08
7839.87
7839.66
7839.39
7839.1
7838.77
7838.42
7838.07
7837.68
7837.32
7836.93
7836.58
7836.17
7840.36
7839.59
7839.48
7839.37
7839.2
7839.01
7838.78
7838.53
7838.25
7837.95
7837.65
7837.32
7837.02
7836.69
7836.39
7836.03
7839.61
7838.93
7838.83
7838.74
7838.59
7838.43
7838.23
7838.02
7837.78
7837.52
7837.26
7836.99
7836.73
7836.45
7836.2
7835.89
7838.95
7838.34
7838.26
7838.18
7838.05
7837.91
7837.74
7837.55
7837.35
7837.13
7836.91
7836.68
7836.46
7836.22
7836.01
7835.74
7838.36
7837.81
7837.74
7837.67
7837.56
7837.44
7837.29
7837.13
7836.96
7836.77
7836.59
7836.39
7836.2
7836
7835.81
7835.58
7837.83
7837.33
7837.27
7837.21
7837.11
7837.01
7836.88
7836.75
7836.6
7836.44
7836.28
7836.11
7835.95
7835.78
7835.62
7835.41
7837.35
7836.9
7836.84
7836.79
7836.71
7836.62
7836.51
7836.4
7836.27
7836.13
7835.99
7835.85
7835.71
7835.57
7835.42
7835.24
7836.91
7836.5
7836.46
7836.41
7836.34
7836.26
7836.17
7836.07
7835.96
7835.84
7835.72
7835.6
7835.48
7835.35
7835.23
7835.06
7836.52
7836.14
7836.1
7836.06
7836
7835.94
7835.85
7835.77
7835.67
7835.57
7835.47
7835.36
7835.26
7835.15
7835.03
7834.88
7836.15
7835.81
7835.77
7835.74
7835.69
7835.63
7835.56
7835.48
7835.4
7835.31
7835.22
7835.13
7835.04
7834.94
7834.84
7834.7
7835.82
7835.51
7835.47
7835.45
7835.4
7835.35
7835.28
7835.22
7835.14
7835.07
7834.99
7834.91
7834.83
7834.74
7834.65
7834.51
7835.51
7835.22
7835.19
7835.17
7835.13
7835.08
7835.03
7834.97
7834.9
7834.84
7834.77
7834.69
7834.62
7834.54
7834.46
7834.33
7835.23
7834.96
7834.94
7834.91
7834.87
7834.84
7834.79
7834.73
7834.68
7834.62
7834.55
7834.49
7834.42
7834.35
7834.27
7834.15
7834.97
7834.72
7834.69
7834.67
7834.64
7834.6
7834.56
7834.51
7834.46
7834.4
7834.35
7834.29
7834.23
7834.16
7834.09
7833.97
7834.72
7834.49
7834.47
7834.45
7834.42
7834.39
7834.35
7834.3
7834.26
7834.2
7834.15
7834.1
7834.04
7833.98
7833.9
7833.79
7834.5
7834.28
7834.26
7834.24
7834.21
7834.18
7834.15
7834.11
7834.06
7834.01
7833.96
7833.91
7833.86
7833.8
7833.72
7833.61
7834.28
7834.08
7834.07
7834.05
7834.02
7833.99
7833.96
7833.92
7833.88
7833.83
7833.78
7833.73
7833.68
7833.62
7833.55
7833.43
7834.09
7833.9
7833.88
7833.87
7833.84
7833.82
7833.78
7833.74
7833.7
7833.66
7833.61
7833.56
7833.51
7833.45
7833.38
7833.26
7833.9
7833.73
7833.71
7833.7
7833.67
7833.65
7833.62
7833.58
7833.54
7833.5
7833.45
7833.4
7833.35
7833.29
7833.21
7833.1
7833.73
7833.57
7833.56
7833.54
7833.52
7833.49
7833.46
7833.43
7833.39
7833.34
7833.3
7833.24
7833.19
7833.13
7833.05
7832.93
7833.57
7833.43
7833.41
7833.4
7833.38
7833.35
7833.32
7833.28
7833.24
7833.2
7833.15
7833.1
7833.04
7832.98
7832.9
7832.77
7833.43
7833.29
7833.28
7833.26
7833.24
7833.22
7833.19
7833.15
7833.11
7833.07
7833.02
7832.96
7832.9
7832.83
7832.75
7832.62
7833.3
7833.17
7833.16
7833.14
7833.12
7833.1
7833.07
7833.03
7832.99
7832.94
7832.89
7832.83
7832.77
7832.7
7832.61
7832.47
7833.17
7833.06
7833.05
7833.03
7833.01
7832.99
7832.96
7832.92
7832.88
7832.83
7832.78
7832.72
7832.65
7832.57
7832.47
7832.33
7833.06
7832.96
7832.95
7832.94
7832.92
7832.89
7832.86
7832.82
7832.78
7832.74
7832.68
7832.62
7832.55
7832.46
7832.35
7832.2
7832.96
7832.87
7832.86
7832.85
7832.83
7832.81
7832.78
7832.74
7832.7
7832.65
7832.6
7832.53
7832.46
7832.36
7832.25
7832.07
7832.88
7832.8
7832.79
7832.77
7832.76
7832.73
7832.7
7832.67
7832.63
7832.58
7832.53
7832.46
7832.38
7832.29
7832.16
7831.97
7832.8
7832.73
7832.72
7832.71
7832.69
7832.67
7832.64
7832.61
7832.57
7832.53
7832.47
7832.41
7832.33
7832.23
7832.09
7831.88
7832.73
7832.68
7832.67
7832.66
7832.64
7832.62
7832.6
7832.57
7832.53
7832.49
7832.44
7832.38
7832.31
7832.21
7832.07
7831.85
7832.68
7832.62
7832.62
7832.61
7832.59
7832.57
7832.55
7832.53
7832.5
7832.46
7832.42
7832.37
7832.31
7832.24
7832.13
7831.97
7832.63
7832.6
7832.59
7832.58
7832.57
7832.56
7832.54
7832.52
7832.49
7832.46
7832.42
7832.38
7832.33
7832.28
7832.21
7832.09
7832.6
7832.6
7832.59
7832.58
7832.57
7832.56
7832.54
7832.52
7832.49
7832.46
7832.42
7832.38
7832.33
7832.28
7832.21
7832.09
7832.6
)
;

boundaryField
{
    wireUpstream
    {
        type            calculated;
        value           nonuniform List<scalar> 
16
(
7832.57
7832.57
7832.56
7832.55
7832.54
7832.52
7832.5
7832.48
7832.45
7832.42
7832.38
7832.35
7832.31
7832.28
7832.25
7832.57
)
;
    }
    wireDownstream
    {
        type            calculated;
        value           nonuniform List<scalar> 
16
(
7864
7862.75
7861.01
7858.9
7856.26
7853.33
7850.11
7846.43
7842.3
7837.07
7831.48
7823.76
7815.7
7807.5
7802.04
7864.61
)
;
    }
    wireTopContact
    {
        type            calculated;
        value           nonuniform List<scalar> 
122
(
7801.52
7801.51
7801.53
7801.53
7801.54
7801.54
7801.53
7801.52
7801.51
7801.49
7801.47
7801.44
7801.41
7801.38
7801.34
7801.3
7801.25
7801.2
7801.14
7801.09
7801.02
7800.95
7800.88
7800.79
7800.7
7800.61
7800.5
7800.39
7800.26
7800.13
7799.99
7799.85
7799.7
7799.55
7799.41
7799.28
7799.17
7799.11
7799.11
7799.21
7799.45
7799.89
7800.73
7802.74
7807.71
7813
7818.53
7824.25
7830
7835.93
7842.33
7849.33
7856.78
7864.54
7871.24
7876.83
7881.3
7884.51
7886.45
7887.16
7886.64
7885
7882.27
7878.62
7874.2
7869.23
7863.97
7858.69
7853.69
7849.33
7845.95
7843.81
7842.78
7842.12
7840.86
7839.85
7838.74
7838.11
7837.62
7837.3
7837.07
7836.91
7836.79
7836.7
7836.61
7836.53
7836.44
7836.34
7836.24
7836.12
7835.99
7835.85
7835.7
7835.55
7835.38
7835.21
7835.04
7834.86
7834.68
7834.5
7834.31
7834.13
7833.95
7833.77
7833.6
7833.42
7833.25
7833.09
7832.92
7832.76
7832.61
7832.46
7832.32
7832.19
7832.07
7831.97
7831.88
7831.85
7831.95
7832.04
7832.04
7801.48
)
;
    }
    front
    {
        type            wedge;
    }
    back
    {
        type            wedge;
    }
}


// ************************************************************************* //
