/*--------------------------------*- C++ -*----------------------------------*\
| =========                 |                                                 |
| \\      /  F ield         | foam-extend: Open Source CFD                    |
|  \\    /   O peration     | Version:     4.1-20200408                       |
|   \\  /    A nd           | Web:         http://www.foam-extend.org         |
|    \\/     M anipulation  |                                                 |
\*---------------------------------------------------------------------------*/
FoamFile
{
    version     2.0;
    format      ascii;
    class       volScalarField;
    location    "0.0070000";
    object      ccx;
}
// * * * * * * * * * * * * * * * * * * * * * * * * * * * * * * * * * * * * * //

dimensions      [0 1 0 0 0 0 0];

internalField   nonuniform List<scalar> 
1952
(
0.00296903
0.00296904
0.00296904
0.00296904
0.00296904
0.00296904
0.00296904
0.00296904
0.00296904
0.00296904
0.00296903
0.00296903
0.00296902
0.00296901
0.00296899
0.00296903
0.00291301
0.00291301
0.00291302
0.00291302
0.00291302
0.00291302
0.00291302
0.00291302
0.00291302
0.00291302
0.00291301
0.002913
0.00291299
0.00291296
0.00291293
0.00291301
0.0028629
0.0028629
0.0028629
0.0028629
0.00286291
0.00286291
0.00286291
0.00286291
0.00286291
0.00286291
0.0028629
0.00286289
0.00286288
0.00286286
0.00286284
0.0028629
0.00281658
0.00281658
0.00281658
0.00281658
0.00281659
0.00281659
0.00281659
0.00281659
0.00281658
0.00281658
0.00281657
0.00281656
0.00281655
0.00281654
0.00281652
0.00281658
0.00277074
0.00277074
0.00277074
0.00277074
0.00277074
0.00277074
0.00277074
0.00277074
0.00277074
0.00277073
0.00277072
0.00277071
0.0027707
0.00277069
0.00277067
0.00277074
0.0027212
0.0027212
0.0027212
0.0027212
0.0027212
0.0027212
0.0027212
0.0027212
0.00272119
0.00272119
0.00272118
0.00272118
0.00272117
0.00272116
0.00272114
0.0027212
0.00267124
0.00267124
0.00267124
0.00267124
0.00267124
0.00267124
0.00267124
0.00267124
0.00267124
0.00267123
0.00267123
0.00267122
0.00267121
0.0026712
0.00267119
0.00267124
0.00262124
0.00262123
0.00262124
0.00262124
0.00262123
0.00262124
0.00262123
0.00262123
0.00262123
0.00262123
0.00262123
0.00262122
0.00262121
0.0026212
0.00262119
0.00262124
0.00257122
0.00257123
0.00257123
0.00257123
0.00257123
0.00257123
0.00257123
0.00257123
0.00257123
0.00257123
0.00257123
0.00257122
0.00257121
0.0025712
0.00257119
0.00257122
0.00252122
0.00252122
0.00252122
0.00252122
0.00252122
0.00252123
0.00252123
0.00252123
0.00252123
0.00252123
0.00252122
0.00252122
0.00252121
0.00252121
0.0025212
0.00252122
0.00247122
0.00247122
0.00247122
0.00247122
0.00247122
0.00247122
0.00247122
0.00247123
0.00247123
0.00247123
0.00247122
0.00247122
0.00247121
0.00247121
0.0024712
0.00247122
0.00242122
0.00242122
0.00242122
0.00242122
0.00242122
0.00242122
0.00242122
0.00242122
0.00242123
0.00242123
0.00242122
0.00242122
0.00242122
0.00242121
0.0024212
0.00242121
0.00237122
0.00237122
0.00237122
0.00237122
0.00237122
0.00237122
0.00237122
0.00237123
0.00237123
0.00237123
0.00237123
0.00237122
0.00237122
0.00237121
0.0023712
0.00237121
0.00232122
0.00232122
0.00232122
0.00232122
0.00232122
0.00232122
0.00232123
0.00232123
0.00232123
0.00232123
0.00232123
0.00232123
0.00232122
0.00232122
0.00232121
0.00232121
0.00227122
0.00227122
0.00227122
0.00227122
0.00227122
0.00227123
0.00227123
0.00227123
0.00227123
0.00227123
0.00227123
0.00227123
0.00227123
0.00227122
0.00227121
0.00227122
0.00222122
0.00222122
0.00222123
0.00222123
0.00222123
0.00222123
0.00222124
0.00222124
0.00222124
0.00222124
0.00222124
0.00222124
0.00222123
0.00222123
0.00222122
0.00222122
0.00217123
0.00217123
0.00217123
0.00217123
0.00217124
0.00217124
0.00217124
0.00217124
0.00217124
0.00217124
0.00217124
0.00217124
0.00217124
0.00217124
0.00217123
0.00217123
0.00212124
0.00212124
0.00212124
0.00212124
0.00212124
0.00212125
0.00212125
0.00212125
0.00212125
0.00212125
0.00212126
0.00212125
0.00212125
0.00212124
0.00212124
0.00212124
0.00207125
0.00207125
0.00207125
0.00207125
0.00207125
0.00207126
0.00207126
0.00207126
0.00207126
0.00207126
0.00207126
0.00207126
0.00207126
0.00207125
0.00207125
0.00207125
0.00202126
0.00202126
0.00202126
0.00202127
0.00202127
0.00202127
0.00202127
0.00202128
0.00202127
0.00202127
0.00202127
0.00202127
0.00202127
0.00202127
0.00202126
0.00202126
0.00197128
0.00197128
0.00197128
0.00197128
0.00197128
0.00197128
0.00197129
0.00197129
0.00197129
0.00197129
0.00197129
0.00197129
0.00197128
0.00197128
0.00197127
0.00197128
0.00192129
0.0019213
0.0019213
0.0019213
0.0019213
0.0019213
0.0019213
0.0019213
0.0019213
0.0019213
0.0019213
0.0019213
0.0019213
0.00192129
0.00192128
0.00192129
0.00187131
0.00187131
0.00187132
0.00187132
0.00187132
0.00187132
0.00187132
0.00187132
0.00187132
0.00187132
0.00187132
0.00187132
0.00187131
0.0018713
0.00187129
0.00187131
0.00182133
0.00182133
0.00182134
0.00182134
0.00182134
0.00182134
0.00182134
0.00182134
0.00182134
0.00182134
0.00182134
0.00182133
0.00182133
0.00182132
0.00182131
0.00182133
0.00177136
0.00177136
0.00177136
0.00177136
0.00177136
0.00177136
0.00177136
0.00177136
0.00177136
0.00177136
0.00177135
0.00177135
0.00177134
0.00177134
0.00177133
0.00177136
0.00172138
0.00172138
0.00172138
0.00172138
0.00172138
0.00172138
0.00172138
0.00172138
0.00172138
0.00172138
0.00172137
0.00172137
0.00172136
0.00172135
0.00172134
0.00172138
0.0016714
0.0016714
0.0016714
0.0016714
0.0016714
0.0016714
0.0016714
0.0016714
0.0016714
0.0016714
0.00167139
0.00167139
0.00167138
0.00167137
0.00167136
0.0016714
0.00162143
0.00162143
0.00162143
0.00162143
0.00162143
0.00162143
0.00162143
0.00162143
0.00162142
0.00162142
0.00162142
0.00162141
0.0016214
0.00162139
0.00162138
0.00162143
0.00157146
0.00157146
0.00157146
0.00157146
0.00157146
0.00157146
0.00157146
0.00157145
0.00157145
0.00157145
0.00157144
0.00157143
0.00157143
0.00157142
0.00157141
0.00157146
0.0015215
0.0015215
0.0015215
0.00152149
0.00152149
0.00152149
0.00152148
0.00152148
0.00152148
0.00152147
0.00152147
0.00152146
0.00152145
0.00152144
0.00152143
0.0015215
0.00147154
0.00147153
0.00147153
0.00147153
0.00147153
0.00147152
0.00147152
0.00147151
0.00147151
0.0014715
0.00147149
0.00147149
0.00147148
0.00147147
0.00147146
0.00147154
0.00142157
0.00142157
0.00142157
0.00142157
0.00142156
0.00142156
0.00142155
0.00142155
0.00142154
0.00142153
0.00142152
0.00142151
0.0014215
0.00142149
0.00142148
0.00142158
0.00137162
0.00137161
0.00137161
0.0013716
0.0013716
0.00137159
0.00137159
0.00137158
0.00137157
0.00137156
0.00137155
0.00137154
0.00137153
0.00137152
0.00137151
0.00137162
0.00132166
0.00132166
0.00132165
0.00132165
0.00132164
0.00132163
0.00132162
0.00132161
0.0013216
0.00132159
0.00132158
0.00132157
0.00132156
0.00132155
0.00132154
0.00132166
0.0012717
0.0012717
0.0012717
0.00127169
0.00127168
0.00127167
0.00127166
0.00127165
0.00127164
0.00127163
0.00127162
0.0012716
0.00127159
0.00127158
0.00127156
0.0012717
0.00122175
0.00122175
0.00122175
0.00122174
0.00122173
0.00122172
0.00122171
0.00122169
0.00122168
0.00122166
0.00122165
0.00122163
0.00122162
0.0012216
0.00122159
0.00122176
0.00117181
0.00117181
0.0011718
0.00117179
0.00117178
0.00117177
0.00117175
0.00117174
0.00117172
0.0011717
0.00117169
0.00117167
0.00117165
0.00117163
0.00117162
0.00117181
0.00112187
0.00112186
0.00112185
0.00112184
0.00112183
0.00112182
0.0011218
0.00112178
0.00112176
0.00112174
0.00112172
0.0011217
0.00112168
0.00112166
0.00112165
0.00112187
0.00107193
0.00107192
0.00107191
0.0010719
0.00107189
0.00107187
0.00107185
0.00107183
0.00107181
0.00107178
0.00107176
0.00107174
0.00107171
0.00107169
0.00107168
0.00107193
0.00102199
0.00102198
0.00102197
0.00102196
0.00102194
0.00102193
0.00102191
0.00102188
0.00102186
0.00102183
0.0010218
0.00102177
0.00102175
0.00102172
0.0010217
0.00102199
0.000972056
0.000972049
0.000972038
0.000972024
0.000972006
0.000971985
0.000971961
0.000971935
0.000971906
0.000971875
0.000971844
0.000971813
0.000971783
0.000971755
0.000971731
0.00097206
0.000922125
0.000922118
0.000922105
0.00092209
0.00092207
0.000922046
0.00092202
0.00092199
0.000921957
0.000921923
0.000921887
0.000921851
0.000921816
0.000921784
0.000921756
0.000922129
0.000872196
0.000872188
0.000872175
0.000872157
0.000872136
0.00087211
0.000872081
0.000872048
0.000872011
0.000871972
0.000871931
0.00087189
0.000871849
0.000871812
0.000871778
0.000872201
0.000822269
0.00082226
0.000822246
0.000822227
0.000822204
0.000822177
0.000822144
0.000822108
0.000822067
0.000822023
0.000821977
0.00082193
0.000821883
0.000821838
0.000821799
0.000822274
0.000772341
0.000772332
0.000772317
0.000772298
0.000772274
0.000772244
0.000772209
0.00077217
0.000772125
0.000772077
0.000772025
0.000771971
0.000771916
0.000771863
0.000771816
0.000772346
0.000722413
0.000722403
0.000722388
0.000722368
0.000722342
0.000722311
0.000722275
0.000722232
0.000722184
0.000722131
0.000722073
0.000722012
0.000721948
0.000721887
0.00072183
0.000722418
0.000672483
0.000672472
0.000672457
0.000672436
0.00067241
0.000672378
0.00067234
0.000672295
0.000672244
0.000672186
0.000672123
0.000672054
0.000671981
0.000671908
0.000671839
0.000672487
0.000622547
0.000622537
0.000622521
0.000622501
0.000622475
0.000622442
0.000622403
0.000622357
0.000622303
0.000622242
0.000622173
0.000622096
0.000622014
0.000621928
0.000621844
0.000622552
0.000572605
0.000572595
0.00057258
0.00057256
0.000572534
0.000572502
0.000572463
0.000572416
0.00057236
0.000572296
0.000572222
0.000572139
0.000572047
0.000571947
0.000571844
0.000572609
0.000522654
0.000522644
0.00052263
0.000522611
0.000522586
0.000522554
0.000522516
0.000522469
0.000522413
0.000522347
0.00052227
0.000522181
0.000522079
0.000521965
0.00052184
0.000522658
0.000472691
0.000472682
0.000472669
0.000472651
0.000472627
0.000472597
0.00047256
0.000472515
0.000472459
0.000472393
0.000472313
0.000472219
0.000472108
0.00047198
0.000471832
0.000472695
0.000422715
0.000422707
0.000422695
0.000422679
0.000422657
0.000422628
0.000422593
0.000422549
0.000422495
0.000422429
0.000422349
0.000422251
0.000422133
0.000421991
0.000421822
0.000422719
0.000372723
0.000372716
0.000372705
0.00037269
0.00037267
0.000372644
0.000372611
0.00037257
0.000372518
0.000372454
0.000372374
0.000372274
0.000372151
0.000371998
0.000371809
0.000372727
0.000322715
0.000322708
0.000322698
0.000322685
0.000322667
0.000322643
0.000322613
0.000322574
0.000322526
0.000322464
0.000322386
0.000322286
0.00032216
0.000321999
0.000321797
0.000322718
0.000272688
0.000272683
0.000272674
0.000272661
0.000272645
0.000272624
0.000272596
0.000272561
0.000272515
0.000272457
0.000272382
0.000272285
0.00027216
0.000271996
0.000271785
0.000272691
0.000222641
0.000222636
0.000222629
0.000222617
0.000222602
0.000222583
0.000222558
0.000222525
0.000222483
0.000222429
0.000222359
0.000222267
0.000222146
0.000221985
0.000221772
0.000222644
0.000172575
0.00017257
0.000172563
0.000172552
0.000172538
0.00017252
0.000172497
0.000172467
0.000172428
0.000172378
0.000172313
0.000172228
0.000172116
0.000171964
0.00017176
0.000172577
0.00012249
0.000122486
0.000122478
0.000122469
0.000122455
0.000122437
0.000122415
0.000122387
0.000122351
0.000122305
0.000122246
0.00012217
0.000122069
0.000121934
0.000121749
0.000122492
7.23901e-05
7.23854e-05
7.2378e-05
7.23679e-05
7.23546e-05
7.23375e-05
7.23159e-05
7.22888e-05
7.2255e-05
7.22125e-05
7.21593e-05
7.20918e-05
7.20054e-05
7.18918e-05
7.17402e-05
7.23925e-05
2.22772e-05
2.22723e-05
2.22649e-05
2.22544e-05
2.22409e-05
2.22238e-05
2.22024e-05
2.21762e-05
2.2144e-05
2.21048e-05
2.20569e-05
2.19986e-05
2.19271e-05
2.18392e-05
2.17307e-05
2.22797e-05
-2.78448e-05
-2.78499e-05
-2.78576e-05
-2.78682e-05
-2.78821e-05
-2.7899e-05
-2.79202e-05
-2.79456e-05
-2.79759e-05
-2.80116e-05
-2.80535e-05
-2.81023e-05
-2.81573e-05
-2.82183e-05
-2.82799e-05
-2.78422e-05
-7.7972e-05
-7.79771e-05
-7.79852e-05
-7.79957e-05
-7.80094e-05
-7.80266e-05
-7.8047e-05
-7.80707e-05
-7.80984e-05
-7.81297e-05
-7.81644e-05
-7.82018e-05
-7.82393e-05
-7.82725e-05
-7.82921e-05
-7.79696e-05
-0.000128101
-0.000128106
-0.000128114
-0.000128124
-0.000128138
-0.000128154
-0.000128173
-0.000128194
-0.000128218
-0.000128244
-0.00012827
-0.000128295
-0.000128314
-0.000128322
-0.000128308
-0.000128098
-0.000178228
-0.000178233
-0.00017824
-0.00017825
-0.000178262
-0.000178277
-0.000178293
-0.000178311
-0.00017833
-0.00017835
-0.000178367
-0.000178379
-0.000178381
-0.000178368
-0.000178326
-0.000178225
-0.000228349
-0.000228353
-0.00022836
-0.000228369
-0.00022838
-0.000228392
-0.000228406
-0.00022842
-0.000228433
-0.000228445
-0.000228452
-0.000228452
-0.000228439
-0.000228408
-0.000228347
-0.000228347
-0.000278462
-0.000278466
-0.000278472
-0.000278479
-0.000278487
-0.000278497
-0.000278507
-0.000278516
-0.000278524
-0.000278527
-0.000278526
-0.000278514
-0.000278489
-0.000278444
-0.00027837
-0.00027846
-0.000328564
-0.000328567
-0.000328571
-0.000328577
-0.000328583
-0.00032859
-0.000328596
-0.0003286
-0.000328601
-0.000328598
-0.000328587
-0.000328567
-0.000328531
-0.000328475
-0.000328393
-0.000328562
-0.000378656
-0.000378658
-0.00037866
-0.000378664
-0.000378668
-0.000378671
-0.000378673
-0.000378672
-0.000378668
-0.000378658
-0.000378639
-0.00037861
-0.000378566
-0.000378504
-0.000378417
-0.000378655
-0.000428735
-0.000428736
-0.000428738
-0.000428739
-0.00042874
-0.000428739
-0.000428737
-0.000428732
-0.000428722
-0.000428706
-0.000428681
-0.000428646
-0.000428596
-0.000428529
-0.00042844
-0.000428734
-0.000478801
-0.000478801
-0.000478801
-0.0004788
-0.000478798
-0.000478795
-0.000478789
-0.000478779
-0.000478764
-0.000478743
-0.000478713
-0.000478673
-0.00047862
-0.00047855
-0.000478461
-0.000478801
-0.000528854
-0.000528853
-0.000528851
-0.000528849
-0.000528844
-0.000528838
-0.000528828
-0.000528815
-0.000528796
-0.00052877
-0.000528737
-0.000528693
-0.000528637
-0.000528566
-0.000528479
-0.000528854
-0.000578894
-0.000578892
-0.000578889
-0.000578885
-0.000578878
-0.000578869
-0.000578856
-0.00057884
-0.000578817
-0.000578789
-0.000578752
-0.000578706
-0.000578649
-0.000578579
-0.000578494
-0.000578895
-0.000628922
-0.00062892
-0.000628915
-0.000628909
-0.0006289
-0.000628889
-0.000628874
-0.000628854
-0.00062883
-0.000628798
-0.00062876
-0.000628712
-0.000628655
-0.000628586
-0.000628505
-0.000628924
-0.000678938
-0.000678935
-0.000678929
-0.000678922
-0.000678911
-0.000678898
-0.000678881
-0.00067886
-0.000678833
-0.0006788
-0.00067876
-0.000678713
-0.000678656
-0.000678589
-0.000678512
-0.00067894
-0.000728943
-0.000728939
-0.000728933
-0.000728924
-0.000728913
-0.000728898
-0.000728879
-0.000728856
-0.000728828
-0.000728795
-0.000728754
-0.000728707
-0.000728652
-0.000728588
-0.000728515
-0.000728945
-0.000778939
-0.000778934
-0.000778927
-0.000778918
-0.000778905
-0.000778889
-0.000778869
-0.000778845
-0.000778816
-0.000778782
-0.000778742
-0.000778696
-0.000778643
-0.000778582
-0.000778513
-0.000778941
-0.000828925
-0.00082892
-0.000828913
-0.000828902
-0.000828889
-0.000828872
-0.000828852
-0.000828827
-0.000828798
-0.000828764
-0.000828725
-0.00082868
-0.000828629
-0.000828571
-0.000828507
-0.000828928
-0.000878903
-0.000878898
-0.00087889
-0.000878879
-0.000878865
-0.000878848
-0.000878827
-0.000878802
-0.000878774
-0.00087874
-0.000878702
-0.000878658
-0.00087861
-0.000878555
-0.000878495
-0.000878906
-0.000928874
-0.000928868
-0.00092886
-0.000928849
-0.000928835
-0.000928818
-0.000928797
-0.000928772
-0.000928744
-0.000928711
-0.000928674
-0.000928632
-0.000928586
-0.000928536
-0.000928479
-0.000928877
-0.000978839
-0.000978834
-0.000978825
-0.000978814
-0.0009788
-0.000978781
-0.000978761
-0.000978736
-0.000978709
-0.000978678
-0.000978642
-0.000978605
-0.00097856
-0.00097851
-0.000978458
-0.000978841
-0.0010288
-0.00102879
-0.00102879
-0.00102877
-0.00102876
-0.00102874
-0.00102872
-0.0010287
-0.00102867
-0.00102864
-0.00102861
-0.00102857
-0.00102853
-0.00102848
-0.00102843
-0.0010288
-0.00107875
-0.00107875
-0.00107874
-0.00107873
-0.00107871
-0.0010787
-0.00107868
-0.00107865
-0.00107863
-0.0010786
-0.00107857
-0.00107853
-0.00107849
-0.00107845
-0.00107841
-0.00107876
-0.0011287
-0.00112869
-0.00112869
-0.00112867
-0.00112866
-0.00112865
-0.00112863
-0.00112861
-0.00112858
-0.00112855
-0.00112852
-0.00112849
-0.00112845
-0.00112841
-0.00112837
-0.0011287
-0.00117864
-0.00117864
-0.00117863
-0.00117862
-0.00117861
-0.00117859
-0.00117857
-0.00117855
-0.00117853
-0.0011785
-0.00117847
-0.00117844
-0.00117841
-0.00117837
-0.00117833
-0.00117864
-0.00122858
-0.00122858
-0.00122857
-0.00122856
-0.00122855
-0.00122853
-0.00122851
-0.0012285
-0.00122847
-0.00122845
-0.00122842
-0.00122839
-0.00122836
-0.00122833
-0.00122829
-0.00122858
-0.00127852
-0.00127851
-0.00127851
-0.0012785
-0.00127849
-0.00127847
-0.00127846
-0.00127844
-0.00127842
-0.00127839
-0.00127837
-0.00127834
-0.00127831
-0.00127828
-0.00127825
-0.00127852
-0.00132845
-0.00132845
-0.00132844
-0.00132843
-0.00132842
-0.00132841
-0.00132839
-0.00132838
-0.00132836
-0.00132833
-0.00132831
-0.00132829
-0.00132826
-0.00132823
-0.0013282
-0.00132846
-0.00137839
-0.00137838
-0.00137837
-0.00137836
-0.00137835
-0.00137834
-0.00137833
-0.00137831
-0.00137829
-0.00137827
-0.00137825
-0.00137823
-0.0013782
-0.00137818
-0.00137815
-0.00137839
-0.00142831
-0.00142831
-0.0014283
-0.00142829
-0.00142828
-0.00142827
-0.00142826
-0.00142825
-0.00142823
-0.00142821
-0.00142819
-0.00142816
-0.00142814
-0.00142812
-0.00142809
-0.00142832
-0.00147824
-0.00147823
-0.00147823
-0.00147822
-0.00147821
-0.0014782
-0.00147819
-0.00147817
-0.00147816
-0.00147814
-0.00147812
-0.0014781
-0.00147808
-0.00147805
-0.00147803
-0.00147824
-0.00152816
-0.00152816
-0.00152815
-0.00152815
-0.00152814
-0.00152813
-0.00152811
-0.0015281
-0.00152809
-0.00152807
-0.00152805
-0.00152804
-0.00152801
-0.00152799
-0.00152797
-0.00152816
-0.00157808
-0.00157808
-0.00157808
-0.00157807
-0.00157806
-0.00157805
-0.00157804
-0.00157803
-0.00157801
-0.001578
-0.00157798
-0.00157797
-0.00157795
-0.00157793
-0.0015779
-0.00157808
-0.001628
-0.001628
-0.001628
-0.00162799
-0.00162798
-0.00162798
-0.00162796
-0.00162795
-0.00162794
-0.00162792
-0.00162791
-0.00162789
-0.00162787
-0.00162786
-0.00162783
-0.001628
-0.00167792
-0.00167792
-0.00167791
-0.00167791
-0.0016779
-0.00167789
-0.00167789
-0.00167787
-0.00167786
-0.00167785
-0.00167783
-0.00167781
-0.0016778
-0.00167778
-0.00167776
-0.00167792
-0.00172784
-0.00172783
-0.00172783
-0.00172782
-0.00172782
-0.00172781
-0.0017278
-0.00172779
-0.00172778
-0.00172777
-0.00172775
-0.00172774
-0.00172772
-0.00172771
-0.00172769
-0.00172784
-0.00177775
-0.00177775
-0.00177774
-0.00177774
-0.00177773
-0.00177773
-0.00177772
-0.00177771
-0.0017777
-0.00177769
-0.00177768
-0.00177766
-0.00177765
-0.00177763
-0.00177761
-0.00177775
-0.00182766
-0.00182766
-0.00182766
-0.00182765
-0.00182765
-0.00182764
-0.00182763
-0.00182762
-0.00182761
-0.0018276
-0.00182759
-0.00182758
-0.00182757
-0.00182755
-0.00182753
-0.00182767
-0.00187757
-0.00187757
-0.00187757
-0.00187756
-0.00187756
-0.00187755
-0.00187754
-0.00187753
-0.00187753
-0.00187752
-0.00187751
-0.0018775
-0.00187748
-0.00187747
-0.00187745
-0.00187758
-0.00192748
-0.00192748
-0.00192748
-0.00192747
-0.00192747
-0.00192746
-0.00192745
-0.00192745
-0.00192744
-0.00192743
-0.00192742
-0.00192741
-0.0019274
-0.00192738
-0.00192737
-0.00192748
-0.00197739
-0.00197739
-0.00197738
-0.00197738
-0.00197737
-0.00197737
-0.00197736
-0.00197736
-0.00197735
-0.00197734
-0.00197733
-0.00197732
-0.00197731
-0.0019773
-0.00197728
-0.00197739
-0.00202729
-0.00202729
-0.00202729
-0.00202728
-0.00202728
-0.00202728
-0.00202727
-0.00202726
-0.00202726
-0.00202725
-0.00202724
-0.00202723
-0.00202722
-0.00202721
-0.0020272
-0.00202729
-0.0020772
-0.00207719
-0.00207719
-0.00207719
-0.00207719
-0.00207718
-0.00207718
-0.00207717
-0.00207716
-0.00207716
-0.00207715
-0.00207714
-0.00207713
-0.00207712
-0.00207711
-0.0020772
-0.0021271
-0.0021271
-0.00212709
-0.00212709
-0.00212709
-0.00212709
-0.00212708
-0.00212708
-0.00212707
-0.00212706
-0.00212706
-0.00212705
-0.00212704
-0.00212703
-0.00212702
-0.0021271
-0.002177
-0.002177
-0.00217699
-0.00217699
-0.00217699
-0.00217699
-0.00217698
-0.00217698
-0.00217697
-0.00217697
-0.00217696
-0.00217695
-0.00217695
-0.00217694
-0.00217692
-0.002177
-0.0022269
-0.0022269
-0.00222689
-0.00222689
-0.00222689
-0.00222689
-0.00222689
-0.00222688
-0.00222688
-0.00222687
-0.00222687
-0.00222686
-0.00222685
-0.00222684
-0.00222683
-0.0022269
-0.0022768
-0.0022768
-0.0022768
-0.00227679
-0.00227679
-0.00227679
-0.00227678
-0.00227678
-0.00227678
-0.00227677
-0.00227677
-0.00227676
-0.00227675
-0.00227675
-0.00227673
-0.0022768
-0.0023267
-0.0023267
-0.00232669
-0.00232669
-0.00232669
-0.00232669
-0.00232669
-0.00232668
-0.00232668
-0.00232667
-0.00232667
-0.00232666
-0.00232666
-0.00232665
-0.00232664
-0.0023267
-0.00237659
-0.00237659
-0.00237659
-0.00237659
-0.00237659
-0.00237659
-0.00237658
-0.00237658
-0.00237658
-0.00237657
-0.00237657
-0.00237656
-0.00237656
-0.00237655
-0.00237654
-0.00237659
-0.00242649
-0.00242649
-0.00242649
-0.00242649
-0.00242649
-0.00242648
-0.00242648
-0.00242648
-0.00242647
-0.00242647
-0.00242647
-0.00242646
-0.00242646
-0.00242645
-0.00242644
-0.00242649
-0.00247639
-0.00247639
-0.00247638
-0.00247638
-0.00247638
-0.00247638
-0.00247638
-0.00247637
-0.00247637
-0.00247637
-0.00247636
-0.00247636
-0.00247636
-0.00247635
-0.00247634
-0.00247639
-0.00252628
-0.00252628
-0.00252628
-0.00252628
-0.00252628
-0.00252627
-0.00252627
-0.00252627
-0.00252627
-0.00252626
-0.00252626
-0.00252626
-0.00252625
-0.00252625
-0.00252624
-0.00252628
-0.00257617
-0.00257617
-0.00257617
-0.00257617
-0.00257617
-0.00257617
-0.00257617
-0.00257617
-0.00257616
-0.00257616
-0.00257616
-0.00257615
-0.00257615
-0.00257614
-0.00257614
-0.00257617
-0.00262607
-0.00262606
-0.00262606
-0.00262606
-0.00262606
-0.00262606
-0.00262606
-0.00262606
-0.00262606
-0.00262605
-0.00262605
-0.00262605
-0.00262604
-0.00262604
-0.00262603
-0.00262607
-0.00267596
-0.00267596
-0.00267596
-0.00267596
-0.00267595
-0.00267595
-0.00267595
-0.00267595
-0.00267595
-0.00267595
-0.00267595
-0.00267594
-0.00267594
-0.00267593
-0.00267593
-0.00267596
-0.00272585
-0.00272585
-0.00272585
-0.00272585
-0.00272585
-0.00272584
-0.00272584
-0.00272584
-0.00272584
-0.00272584
-0.00272584
-0.00272584
-0.00272583
-0.00272583
-0.00272582
-0.00272585
-0.00277574
-0.00277573
-0.00277573
-0.00277573
-0.00277573
-0.00277573
-0.00277573
-0.00277573
-0.00277573
-0.00277573
-0.00277573
-0.00277573
-0.00277573
-0.00277572
-0.00277572
-0.00277574
-0.00282562
-0.00282562
-0.00282562
-0.00282562
-0.00282562
-0.00282562
-0.00282562
-0.00282562
-0.00282562
-0.00282562
-0.00282562
-0.00282562
-0.00282562
-0.00282562
-0.00282561
-0.00282562
-0.00287551
-0.00287551
-0.00287551
-0.00287551
-0.00287551
-0.00287551
-0.00287551
-0.00287551
-0.0028755
-0.00287551
-0.00287551
-0.00287551
-0.00287551
-0.00287551
-0.0028755
-0.00287551
-0.0029254
-0.00292539
-0.0029254
-0.0029254
-0.0029254
-0.0029254
-0.0029254
-0.00292539
-0.0029254
-0.0029254
-0.0029254
-0.0029254
-0.0029254
-0.0029254
-0.00292539
-0.0029254
-0.00297529
-0.00297528
-0.00297529
-0.00297529
-0.00297529
-0.00297529
-0.00297529
-0.00297529
-0.00297529
-0.00297528
-0.00297529
-0.00297529
-0.00297528
-0.00297529
-0.00297528
-0.00297529
-0.00302517
-0.00302517
-0.00302517
-0.00302517
-0.00302517
-0.00302517
-0.00302517
-0.00302517
-0.00302517
-0.00302517
-0.00302517
-0.00302517
-0.00302517
-0.00302517
-0.00302517
-0.00302517
-0.00307505
-0.00307506
-0.00307505
-0.00307506
-0.00307505
-0.00307505
-0.00307506
-0.00307505
-0.00307505
-0.00307506
-0.00307506
-0.00307506
-0.00307505
-0.00307506
-0.00307505
-0.00307506
)
;

boundaryField
{
    wireUpstream
    {
        type            calculated;
        value           nonuniform List<scalar> 
16
(
-0.0031
-0.0031
-0.0031
-0.0031
-0.0031
-0.0031
-0.0031
-0.0031
-0.0031
-0.0031
-0.0031
-0.0031
-0.0031
-0.0031
-0.0031
-0.0031
)
;
    }
    wireDownstream
    {
        type            calculated;
        value           nonuniform List<scalar> 
16
(
0.003
0.003
0.003
0.003
0.003
0.003
0.003
0.003
0.003
0.003
0.003
0.003
0.003
0.003
0.003
0.003
)
;
    }
    wireTopContact
    {
        type            calculated;
        value           nonuniform List<scalar> 
122
(
0.00291292
0.00286283
0.00281651
0.00277067
0.00272113
0.00267118
0.00262119
0.00257119
0.00252119
0.0024712
0.0024212
0.0023712
0.0023212
0.00227121
0.00222121
0.00217122
0.00212123
0.00207124
0.00202125
0.00197126
0.00192127
0.00187129
0.00182131
0.00177132
0.00172134
0.00167136
0.00162138
0.0015714
0.00152143
0.00147145
0.00142148
0.0013715
0.00132153
0.00127156
0.00122158
0.00117161
0.00112164
0.00107167
0.00102169
0.000971721
0.000921744
0.000871764
0.000821781
0.000771795
0.000721803
0.000671807
0.000621804
0.000571793
0.000521776
0.000471754
0.000421731
0.000371706
0.000321684
0.000271666
0.000221651
0.000171642
0.000121641
7.1652e-05
2.16709e-05
-2.83091e-05
-7.82956e-05
-0.000128292
-0.000178297
-0.000228308
-0.000278325
-0.000328344
-0.000378366
-0.000428389
-0.000478411
-0.000528431
-0.000578448
-0.000628462
-0.000678471
-0.000728476
-0.000778477
-0.000828473
-0.000878464
-0.00092845
-0.000978431
-0.00102841
-0.00107839
-0.00112835
-0.00117831
-0.00122827
-0.00127823
-0.00132819
-0.00137813
-0.00142807
-0.00147801
-0.00152795
-0.00157789
-0.00162782
-0.00167775
-0.00172768
-0.0017776
-0.00182752
-0.00187744
-0.00192736
-0.00197728
-0.00202719
-0.0020771
-0.00212701
-0.00217692
-0.00222682
-0.00227673
-0.00232663
-0.00237653
-0.00242643
-0.00247633
-0.00252623
-0.00257613
-0.00262603
-0.00267593
-0.00272582
-0.00277572
-0.00282561
-0.0028755
-0.00292539
-0.00297528
-0.00302516
-0.00307505
0.00296899
)
;
    }
    front
    {
        type            wedge;
    }
    back
    {
        type            wedge;
    }
}


// ************************************************************************* //
