/*--------------------------------*- C++ -*----------------------------------*\
| =========                 |                                                 |
| \\      /  F ield         | foam-extend: Open Source CFD                    |
|  \\    /   O peration     | Version:     4.1-20200408                       |
|   \\  /    A nd           | Web:         http://www.foam-extend.org         |
|    \\/     M anipulation  |                                                 |
\*---------------------------------------------------------------------------*/
FoamFile
{
    version     2.0;
    format      ascii;
    class       volVectorField;
    location    "0.0070000";
    object      DU;
}
// * * * * * * * * * * * * * * * * * * * * * * * * * * * * * * * * * * * * * //

dimensions      [0 1 0 0 0 0 0];

internalField   nonuniform List<vector> 
1952
(
(5.00006e-05 2.39906e-09 0)
(5.00007e-05 3.93401e-09 0)
(5.00007e-05 5.55772e-09 0)
(5.00007e-05 7.23618e-09 0)
(5.00008e-05 9.05081e-09 0)
(5.00008e-05 1.09358e-08 0)
(5.00009e-05 1.30181e-08 0)
(5.00009e-05 1.51877e-08 0)
(5.0001e-05 1.7611e-08 0)
(5.0001e-05 2.01311e-08 0)
(5.0001e-05 2.29275e-08 0)
(5.00009e-05 2.57764e-08 0)
(5.00005e-05 2.87544e-08 0)
(4.99994e-05 3.13803e-08 0)
(4.99946e-05 3.30357e-08 0)
(5.00006e-05 1.02587e-09 0)
(5.00017e-05 2.1525e-09 0)
(5.00017e-05 3.52133e-09 0)
(5.00018e-05 4.94585e-09 0)
(5.00019e-05 6.40169e-09 0)
(5.00019e-05 7.93055e-09 0)
(5.00021e-05 9.48562e-09 0)
(5.00022e-05 1.11349e-08 0)
(5.00023e-05 1.27864e-08 0)
(5.00023e-05 1.45274e-08 0)
(5.00023e-05 1.61986e-08 0)
(5.00022e-05 1.78781e-08 0)
(5.00017e-05 1.92966e-08 0)
(5.00008e-05 2.04241e-08 0)
(4.99988e-05 2.08269e-08 0)
(4.99947e-05 2.02395e-08 0)
(5.00017e-05 9.21183e-10 0)
(5.00023e-05 1.85068e-09 0)
(5.00023e-05 3.01877e-09 0)
(5.00024e-05 4.21594e-09 0)
(5.00024e-05 5.42e-09 0)
(5.00025e-05 6.64924e-09 0)
(5.00026e-05 7.86285e-09 0)
(5.00027e-05 9.09641e-09 0)
(5.00027e-05 1.02653e-08 0)
(5.00026e-05 1.14195e-08 0)
(5.00024e-05 1.24061e-08 0)
(5.00019e-05 1.32832e-08 0)
(5.00011e-05 1.37996e-08 0)
(4.99996e-05 1.40267e-08 0)
(4.9997e-05 1.36558e-08 0)
(4.99927e-05 1.29215e-08 0)
(5.00022e-05 7.92505e-10 0)
(5.00025e-05 1.53555e-09 0)
(5.00025e-05 2.49644e-09 0)
(5.00026e-05 3.46797e-09 0)
(5.00026e-05 4.42619e-09 0)
(5.00027e-05 5.37892e-09 0)
(5.00027e-05 6.28479e-09 0)
(5.00027e-05 7.16658e-09 0)
(5.00026e-05 7.94275e-09 0)
(5.00024e-05 8.65326e-09 0)
(5.0002e-05 9.15804e-09 0)
(5.00013e-05 9.52632e-09 0)
(5.00002e-05 9.54519e-09 0)
(4.99985e-05 9.37703e-09 0)
(4.99959e-05 8.77556e-09 0)
(4.99923e-05 8.26481e-09 0)
(5.00025e-05 6.57869e-10 0)
(5.00025e-05 1.21076e-09 0)
(5.00025e-05 1.96054e-09 0)
(5.00025e-05 2.70686e-09 0)
(5.00025e-05 3.42469e-09 0)
(5.00025e-05 4.11624e-09 0)
(5.00024e-05 4.74033e-09 0)
(5.00023e-05 5.31445e-09 0)
(5.00021e-05 5.76306e-09 0)
(5.00017e-05 6.12584e-09 0)
(5.00011e-05 6.2822e-09 0)
(5.00003e-05 6.31698e-09 0)
(4.9999e-05 6.06222e-09 0)
(4.99972e-05 5.72191e-09 0)
(4.99948e-05 5.10781e-09 0)
(4.99917e-05 4.72028e-09 0)
(5.00025e-05 5.19001e-10 0)
(5.00021e-05 8.66319e-10 0)
(5.00021e-05 1.39496e-09 0)
(5.0002e-05 1.91012e-09 0)
(5.0002e-05 2.38704e-09 0)
(5.00019e-05 2.82589e-09 0)
(5.00018e-05 3.18738e-09 0)
(5.00015e-05 3.48837e-09 0)
(5.00012e-05 3.66213e-09 0)
(5.00007e-05 3.7519e-09 0)
(5e-05 3.65935e-09 0)
(4.9999e-05 3.47948e-09 0)
(4.99976e-05 3.0847e-09 0)
(4.99959e-05 2.68535e-09 0)
(4.99938e-05 2.13031e-09 0)
(4.99913e-05 1.85293e-09 0)
(5.00021e-05 3.71622e-10 0)
(5.00014e-05 5.43147e-10 0)
(5.00013e-05 8.6668e-10 0)
(5.00013e-05 1.17114e-09 0)
(5.00011e-05 1.43359e-09 0)
(5.0001e-05 1.65456e-09 0)
(5.00008e-05 1.79809e-09 0)
(5.00004e-05 1.8828e-09 0)
(5e-05 1.85156e-09 0)
(4.99994e-05 1.75123e-09 0)
(4.99986e-05 1.5034e-09 0)
(4.99975e-05 1.20504e-09 0)
(4.99962e-05 7.59178e-10 0)
(4.99946e-05 3.56775e-10 0)
(4.99928e-05 -1.25672e-10 0)
(4.99907e-05 -3.51805e-10 0)
(5.00014e-05 2.33254e-10 0)
(5.00004e-05 2.54781e-10 0)
(5.00003e-05 3.97203e-10 0)
(5.00002e-05 5.18567e-10 0)
(5e-05 5.98665e-10 0)
(4.99998e-05 6.39808e-10 0)
(4.99995e-05 6.09896e-10 0)
(4.99991e-05 5.30004e-10 0)
(4.99986e-05 3.51722e-10 0)
(4.99979e-05 1.23965e-10 0)
(4.99971e-05 -2.16091e-10 0)
(4.9996e-05 -5.75489e-10 0)
(4.99948e-05 -1.03e-09 0)
(4.99933e-05 -1.41548e-09 0)
(4.99918e-05 -1.83564e-09 0)
(4.99901e-05 -2.0322e-09 0)
(5.00004e-05 1.09717e-10 0)
(4.99991e-05 6.09405e-12 0)
(4.9999e-05 -6.16268e-12 0)
(4.99989e-05 -3.88961e-11 0)
(4.99987e-05 -1.09119e-10 0)
(4.99984e-05 -2.12081e-10 0)
(4.99981e-05 -3.76117e-10 0)
(4.99976e-05 -5.77719e-10 0)
(4.99971e-05 -8.58185e-10 0)
(4.99964e-05 -1.16815e-09 0)
(4.99955e-05 -1.55912e-09 0)
(4.99945e-05 -1.9456e-09 0)
(4.99934e-05 -2.38915e-09 0)
(4.99921e-05 -2.75365e-09 0)
(4.99908e-05 -3.12734e-09 0)
(4.99894e-05 -3.31533e-09 0)
(4.99991e-05 3.12256e-12 0)
(4.99977e-05 -2.01704e-10 0)
(4.99976e-05 -3.42061e-10 0)
(4.99974e-05 -5.00721e-10 0)
(4.99972e-05 -6.91461e-10 0)
(4.99969e-05 -9.06954e-10 0)
(4.99965e-05 -1.17228e-09 0)
(4.9996e-05 -1.46191e-09 0)
(4.99954e-05 -1.81184e-09 0)
(4.99948e-05 -2.17348e-09 0)
(4.99939e-05 -2.59068e-09 0)
(4.9993e-05 -2.98655e-09 0)
(4.9992e-05 -3.41325e-09 0)
(4.99909e-05 -3.75946e-09 0)
(4.99898e-05 -4.10109e-09 0)
(4.99887e-05 -4.29056e-09 0)
(4.99977e-05 -8.59878e-11 0)
(4.99961e-05 -3.70851e-10 0)
(4.9996e-05 -6.14609e-10 0)
(4.99958e-05 -8.73631e-10 0)
(4.99955e-05 -1.1587e-09 0)
(4.99952e-05 -1.46001e-09 0)
(4.99948e-05 -1.80008e-09 0)
(4.99944e-05 -2.15181e-09 0)
(4.99938e-05 -2.54759e-09 0)
(4.99931e-05 -2.94029e-09 0)
(4.99923e-05 -3.36889e-09 0)
(4.99915e-05 -3.76501e-09 0)
(4.99906e-05 -4.17465e-09 0)
(4.99896e-05 -4.50732e-09 0)
(4.99887e-05 -4.82881e-09 0)
(4.99878e-05 -5.0273e-09 0)
(4.99961e-05 -1.58556e-10 0)
(4.99944e-05 -5.05073e-10 0)
(4.99942e-05 -8.30234e-10 0)
(4.99941e-05 -1.16734e-09 0)
(4.99938e-05 -1.52455e-09 0)
(4.99935e-05 -1.88987e-09 0)
(4.99931e-05 -2.28398e-09 0)
(4.99926e-05 -2.67857e-09 0)
(4.99921e-05 -3.10384e-09 0)
(4.99915e-05 -3.51436e-09 0)
(4.99908e-05 -3.94633e-09 0)
(4.999e-05 -4.3389e-09 0)
(4.99892e-05 -4.73406e-09 0)
(4.99884e-05 -5.05798e-09 0)
(4.99876e-05 -5.36811e-09 0)
(4.99869e-05 -5.57938e-09 0)
(4.99944e-05 -2.16163e-10 0)
(4.99926e-05 -6.09162e-10 0)
(4.99925e-05 -9.96965e-10 0)
(4.99923e-05 -1.39344e-09 0)
(4.9992e-05 -1.80461e-09 0)
(4.99917e-05 -2.21656e-09 0)
(4.99914e-05 -2.6488e-09 0)
(4.99909e-05 -3.07207e-09 0)
(4.99904e-05 -3.51551e-09 0)
(4.99898e-05 -3.93532e-09 0)
(4.99892e-05 -4.36634e-09 0)
(4.99885e-05 -4.75408e-09 0)
(4.99878e-05 -5.13796e-09 0)
(4.99871e-05 -5.45718e-09 0)
(4.99865e-05 -5.76233e-09 0)
(4.99859e-05 -5.98855e-09 0)
(4.99926e-05 -2.60855e-10 0)
(4.99908e-05 -6.88202e-10 0)
(4.99906e-05 -1.12321e-09 0)
(4.99905e-05 -1.5639e-09 0)
(4.99902e-05 -2.0146e-09 0)
(4.99899e-05 -2.45976e-09 0)
(4.99896e-05 -2.9183e-09 0)
(4.99892e-05 -3.36015e-09 0)
(4.99887e-05 -3.81426e-09 0)
(4.99882e-05 -4.23812e-09 0)
(4.99876e-05 -4.6663e-09 0)
(4.9987e-05 -5.04928e-09 0)
(4.99864e-05 -5.42497e-09 0)
(4.99858e-05 -5.74252e-09 0)
(4.99853e-05 -6.04695e-09 0)
(4.99848e-05 -6.28866e-09 0)
(4.99908e-05 -2.94805e-10 0)
(4.99889e-05 -7.47149e-10 0)
(4.99888e-05 -1.21709e-09 0)
(4.99886e-05 -1.69006e-09 0)
(4.99884e-05 -2.16918e-09 0)
(4.99881e-05 -2.63743e-09 0)
(4.99878e-05 -3.11363e-09 0)
(4.99874e-05 -3.56696e-09 0)
(4.9987e-05 -4.02678e-09 0)
(4.99866e-05 -4.45151e-09 0)
(4.9986e-05 -4.87616e-09 0)
(4.99855e-05 -5.25492e-09 0)
(4.9985e-05 -5.62499e-09 0)
(4.99845e-05 -5.94293e-09 0)
(4.99841e-05 -6.24935e-09 0)
(4.99837e-05 -6.50622e-09 0)
(4.99889e-05 -3.20134e-10 0)
(4.9987e-05 -7.90673e-10 0)
(4.99869e-05 -1.28619e-09 0)
(4.99868e-05 -1.78249e-09 0)
(4.99866e-05 -2.2818e-09 0)
(4.99864e-05 -2.76583e-09 0)
(4.99861e-05 -3.2537e-09 0)
(4.99857e-05 -3.71373e-09 0)
(4.99853e-05 -4.17623e-09 0)
(4.99849e-05 -4.60003e-09 0)
(4.99845e-05 -5.02118e-09 0)
(4.99841e-05 -5.39639e-09 0)
(4.99836e-05 -5.76278e-09 0)
(4.99832e-05 -6.08229e-09 0)
(4.99828e-05 -6.39216e-09 0)
(4.99825e-05 -6.66309e-09 0)
(4.99871e-05 -3.38842e-10 0)
(4.99852e-05 -8.22895e-10 0)
(4.99851e-05 -1.33721e-09 0)
(4.9985e-05 -1.85038e-09 0)
(4.99848e-05 -2.36408e-09 0)
(4.99846e-05 -2.85884e-09 0)
(4.99843e-05 -3.35437e-09 0)
(4.9984e-05 -3.81805e-09 0)
(4.99837e-05 -4.28146e-09 0)
(4.99833e-05 -4.70342e-09 0)
(4.9983e-05 -5.1214e-09 0)
(4.99826e-05 -5.4936e-09 0)
(4.99822e-05 -5.85767e-09 0)
(4.99819e-05 -6.1792e-09 0)
(4.99816e-05 -6.49304e-09 0)
(4.99813e-05 -6.77644e-09 0)
(4.99852e-05 -3.52698e-10 0)
(4.99833e-05 -8.47489e-10 0)
(4.99832e-05 -1.37606e-09 0)
(4.99831e-05 -1.90183e-09 0)
(4.9983e-05 -2.42621e-09 0)
(4.99828e-05 -2.92853e-09 0)
(4.99826e-05 -3.42935e-09 0)
(4.99823e-05 -3.89496e-09 0)
(4.99821e-05 -4.3585e-09 0)
(4.99818e-05 -4.77828e-09 0)
(4.99814e-05 -5.19357e-09 0)
(4.99811e-05 -5.56314e-09 0)
(4.99808e-05 -5.92571e-09 0)
(4.99805e-05 -6.24909e-09 0)
(4.99803e-05 -6.56672e-09 0)
(4.99801e-05 -6.86061e-09 0)
(4.99833e-05 -3.63276e-10 0)
(4.99814e-05 -8.67527e-10 0)
(4.99814e-05 -1.40769e-09 0)
(4.99813e-05 -1.9436e-09 0)
(4.99812e-05 -2.4766e-09 0)
(4.9981e-05 -2.9848e-09 0)
(4.99809e-05 -3.48978e-09 0)
(4.99806e-05 -3.95662e-09 0)
(4.99804e-05 -4.42014e-09 0)
(4.99802e-05 -4.83778e-09 0)
(4.99799e-05 -5.25089e-09 0)
(4.99797e-05 -5.61799e-09 0)
(4.99794e-05 -5.97941e-09 0)
(4.99792e-05 -6.304e-09 0)
(4.99789e-05 -6.62466e-09 0)
(4.99788e-05 -6.92675e-09 0)
(4.99815e-05 -3.71896e-10 0)
(4.99796e-05 -8.8567e-10 0)
(4.99795e-05 -1.43637e-09 0)
(4.99795e-05 -1.9815e-09 0)
(4.99794e-05 -2.52245e-09 0)
(4.99793e-05 -3.03612e-09 0)
(4.99791e-05 -3.54516e-09 0)
(4.9979e-05 -4.0133e-09 0)
(4.99788e-05 -4.47719e-09 0)
(4.99786e-05 -4.893e-09 0)
(4.99784e-05 -5.30444e-09 0)
(4.99782e-05 -5.66904e-09 0)
(4.9978e-05 -6.02929e-09 0)
(4.99778e-05 -6.35403e-09 0)
(4.99776e-05 -6.67655e-09 0)
(4.99775e-05 -6.98431e-09 0)
(4.99796e-05 -3.79698e-10 0)
(4.99777e-05 -9.04053e-10 0)
(4.99777e-05 -1.46552e-09 0)
(4.99776e-05 -2.02018e-09 0)
(4.99776e-05 -2.56954e-09 0)
(4.99775e-05 -3.08921e-09 0)
(4.99774e-05 -3.60299e-09 0)
(4.99773e-05 -4.07312e-09 0)
(4.99772e-05 -4.53813e-09 0)
(4.99771e-05 -4.95259e-09 0)
(4.99769e-05 -5.36282e-09 0)
(4.99768e-05 -5.72469e-09 0)
(4.99766e-05 -6.08345e-09 0)
(4.99764e-05 -6.40693e-09 0)
(4.99763e-05 -6.72975e-09 0)
(4.99761e-05 -7.04042e-09 0)
(4.99777e-05 -3.87601e-10 0)
(4.99758e-05 -9.24484e-10 0)
(4.99758e-05 -1.49805e-09 0)
(4.99758e-05 -2.06356e-09 0)
(4.99758e-05 -2.62272e-09 0)
(4.99757e-05 -3.14975e-09 0)
(4.99757e-05 -3.66959e-09 0)
(4.99757e-05 -4.1429e-09 0)
(4.99756e-05 -4.61008e-09 0)
(4.99755e-05 -5.02385e-09 0)
(4.99754e-05 -5.43331e-09 0)
(4.99753e-05 -5.79209e-09 0)
(4.99752e-05 -6.14879e-09 0)
(4.99751e-05 -6.46931e-09 0)
(4.99749e-05 -6.79059e-09 0)
(4.99748e-05 -7.10119e-09 0)
(4.99758e-05 -3.9638e-10 0)
(4.99739e-05 -9.48329e-10 0)
(4.9974e-05 -1.53614e-09 0)
(4.9974e-05 -2.11461e-09 0)
(4.9974e-05 -2.68564e-09 0)
(4.9974e-05 -3.22203e-09 0)
(4.9974e-05 -3.74973e-09 0)
(4.9974e-05 -4.22781e-09 0)
(4.9974e-05 -4.69842e-09 0)
(4.9974e-05 -5.11224e-09 0)
(4.99739e-05 -5.52135e-09 0)
(4.99739e-05 -5.87654e-09 0)
(4.99738e-05 -6.2304e-09 0)
(4.99737e-05 -6.54598e-09 0)
(4.99736e-05 -6.8636e-09 0)
(4.99735e-05 -7.17089e-09 0)
(4.99739e-05 -4.06624e-10 0)
(4.9972e-05 -9.76682e-10 0)
(4.99721e-05 -1.58155e-09 0)
(4.99721e-05 -2.17573e-09 0)
(4.99722e-05 -2.76128e-09 0)
(4.99722e-05 -3.30953e-09 0)
(4.99723e-05 -3.84727e-09 0)
(4.99723e-05 -4.33205e-09 0)
(4.99724e-05 -4.80757e-09 0)
(4.99724e-05 -5.22231e-09 0)
(4.99724e-05 -5.63148e-09 0)
(4.99724e-05 -5.98248e-09 0)
(4.99724e-05 -6.33256e-09 0)
(4.99723e-05 -6.64098e-09 0)
(4.99722e-05 -6.95258e-09 0)
(4.99721e-05 -7.25305e-09 0)
(4.9972e-05 -4.188e-10 0)
(4.99701e-05 -1.01022e-09 0)
(4.99701e-05 -1.63536e-09 0)
(4.99702e-05 -2.2484e-09 0)
(4.99703e-05 -2.85146e-09 0)
(4.99704e-05 -3.41445e-09 0)
(4.99705e-05 -3.96468e-09 0)
(4.99706e-05 -4.45832e-09 0)
(4.99707e-05 -4.94034e-09 0)
(4.99709e-05 -5.35696e-09 0)
(4.99709e-05 -5.76661e-09 0)
(4.9971e-05 -6.11273e-09 0)
(4.9971e-05 -6.45795e-09 0)
(4.9971e-05 -6.75676e-09 0)
(4.99709e-05 -7.05975e-09 0)
(4.99708e-05 -7.34957e-09 0)
(4.997e-05 -4.33202e-10 0)
(4.9968e-05 -1.04933e-09 0)
(4.99681e-05 -1.69821e-09 0)
(4.99682e-05 -2.33353e-09 0)
(4.99684e-05 -2.95731e-09 0)
(4.99685e-05 -3.53814e-09 0)
(4.99687e-05 -4.10349e-09 0)
(4.99689e-05 -4.60838e-09 0)
(4.99691e-05 -5.09861e-09 0)
(4.99693e-05 -5.51819e-09 0)
(4.99694e-05 -5.92875e-09 0)
(4.99696e-05 -6.26925e-09 0)
(4.99696e-05 -6.60848e-09 0)
(4.99697e-05 -6.89498e-09 0)
(4.99696e-05 -7.18654e-09 0)
(4.99695e-05 -7.46153e-09 0)
(4.9968e-05 -4.49995e-10 0)
(4.9966e-05 -1.09393e-09 0)
(4.99661e-05 -1.76997e-09 0)
(4.99662e-05 -2.43097e-09 0)
(4.99664e-05 -3.07869e-09 0)
(4.99666e-05 -3.68055e-09 0)
(4.99669e-05 -4.26368e-09 0)
(4.99672e-05 -4.78231e-09 0)
(4.99674e-05 -5.28252e-09 0)
(4.99677e-05 -5.70621e-09 0)
(4.99679e-05 -6.11816e-09 0)
(4.99681e-05 -6.45226e-09 0)
(4.99682e-05 -6.78428e-09 0)
(4.99684e-05 -7.05557e-09 0)
(4.99683e-05 -7.33269e-09 0)
(4.99683e-05 -7.58824e-09 0)
(4.99659e-05 -4.69144e-10 0)
(4.99638e-05 -1.14352e-09 0)
(4.9964e-05 -1.84988e-09 0)
(4.99641e-05 -2.53973e-09 0)
(4.99644e-05 -3.21438e-09 0)
(4.99647e-05 -3.8404e-09 0)
(4.9965e-05 -4.44387e-09 0)
(4.99654e-05 -4.97879e-09 0)
(4.99657e-05 -5.49078e-09 0)
(4.99661e-05 -5.91983e-09 0)
(4.99664e-05 -6.33371e-09 0)
(4.99667e-05 -6.66066e-09 0)
(4.99669e-05 -6.98427e-09 0)
(4.99671e-05 -7.23725e-09 0)
(4.99671e-05 -7.49671e-09 0)
(4.9967e-05 -7.72778e-09 0)
(4.99638e-05 -4.90434e-10 0)
(4.99616e-05 -1.19696e-09 0)
(4.99618e-05 -1.93612e-09 0)
(4.9962e-05 -2.65745e-09 0)
(4.99623e-05 -3.36151e-09 0)
(4.99627e-05 -4.01448e-09 0)
(4.99631e-05 -4.64056e-09 0)
(4.99636e-05 -5.19425e-09 0)
(4.9964e-05 -5.71975e-09 0)
(4.99645e-05 -6.15549e-09 0)
(4.99649e-05 -6.57191e-09 0)
(4.99653e-05 -6.89102e-09 0)
(4.99656e-05 -7.20505e-09 0)
(4.99658e-05 -7.43646e-09 0)
(4.99659e-05 -7.6749e-09 0)
(4.99659e-05 -7.87592e-09 0)
(4.99615e-05 -5.13378e-10 0)
(4.99592e-05 -1.25245e-09 0)
(4.99595e-05 -2.02583e-09 0)
(4.99597e-05 -2.78033e-09 0)
(4.99601e-05 -3.51544e-09 0)
(4.99606e-05 -4.19756e-09 0)
(4.99611e-05 -4.84805e-09 0)
(4.99617e-05 -5.42278e-09 0)
(4.99622e-05 -5.96337e-09 0)
(4.99628e-05 -6.40722e-09 0)
(4.99634e-05 -6.82689e-09 0)
(4.99639e-05 -7.13759e-09 0)
(4.99643e-05 -7.44101e-09 0)
(4.99646e-05 -7.6475e-09 0)
(4.99647e-05 -7.86146e-09 0)
(4.99648e-05 -8.02637e-09 0)
(4.99591e-05 -5.37201e-10 0)
(4.99567e-05 -1.30724e-09 0)
(4.9957e-05 -2.11465e-09 0)
(4.99573e-05 -2.90255e-09 0)
(4.99578e-05 -3.66903e-09 0)
(4.99584e-05 -4.38154e-09 0)
(4.9959e-05 -5.05741e-09 0)
(4.99597e-05 -5.65503e-09 0)
(4.99604e-05 -6.21203e-09 0)
(4.99611e-05 -6.66545e-09 0)
(4.99618e-05 -7.08919e-09 0)
(4.99625e-05 -7.39112e-09 0)
(4.9963e-05 -7.68314e-09 0)
(4.99634e-05 -7.86132e-09 0)
(4.99636e-05 -8.04733e-09 0)
(4.99637e-05 -8.16952e-09 0)
(4.99567e-05 -5.60724e-10 0)
(4.99541e-05 -1.35752e-09 0)
(4.99545e-05 -2.19649e-09 0)
(4.99548e-05 -3.01596e-09 0)
(4.99554e-05 -3.81228e-09 0)
(4.99561e-05 -4.55499e-09 0)
(4.99568e-05 -5.25606e-09 0)
(4.99577e-05 -5.87777e-09 0)
(4.99585e-05 -6.45204e-09 0)
(4.99594e-05 -6.9165e-09 0)
(4.99602e-05 -7.34526e-09 0)
(4.99611e-05 -7.6384e-09 0)
(4.99617e-05 -7.91857e-09 0)
(4.99623e-05 -8.06519e-09 0)
(4.99626e-05 -8.21991e-09 0)
(4.99628e-05 -8.29226e-09 0)
(4.9954e-05 -5.82304e-10 0)
(4.99514e-05 -1.39803e-09 0)
(4.99518e-05 -2.26298e-09 0)
(4.99522e-05 -3.10936e-09 0)
(4.99529e-05 -3.9314e-09 0)
(4.99536e-05 -4.70208e-09 0)
(4.99546e-05 -5.42645e-09 0)
(4.99555e-05 -6.07242e-09 0)
(4.99566e-05 -6.66413e-09 0)
(4.99576e-05 -7.14104e-09 0)
(4.99587e-05 -7.5759e-09 0)
(4.99597e-05 -7.86068e-09 0)
(4.99605e-05 -8.12909e-09 0)
(4.99613e-05 -8.24121e-09 0)
(4.99617e-05 -8.36158e-09 0)
(4.9962e-05 -8.37651e-09 0)
(4.99513e-05 -5.99694e-10 0)
(4.99485e-05 -1.42192e-09 0)
(4.99489e-05 -2.30312e-09 0)
(4.99495e-05 -3.16795e-09 0)
(4.99502e-05 -4.00813e-09 0)
(4.99511e-05 -4.80173e-09 0)
(4.99522e-05 -5.54523e-09 0)
(4.99533e-05 -6.21412e-09 0)
(4.99545e-05 -6.82244e-09 0)
(4.99558e-05 -7.31302e-09 0)
(4.99571e-05 -7.75517e-09 0)
(4.99583e-05 -8.03267e-09 0)
(4.99593e-05 -8.29014e-09 0)
(4.99603e-05 -8.3654e-09 0)
(4.99609e-05 -8.44893e-09 0)
(4.99614e-05 -8.39855e-09 0)
(4.99484e-05 -6.09938e-10 0)
(4.99455e-05 -1.42025e-09 0)
(4.9946e-05 -2.30261e-09 0)
(4.99466e-05 -3.17243e-09 0)
(4.99474e-05 -4.01861e-09 0)
(4.99485e-05 -4.82629e-09 0)
(4.99497e-05 -5.58157e-09 0)
(4.9951e-05 -6.26992e-09 0)
(4.99524e-05 -6.89253e-09 0)
(4.99539e-05 -7.39761e-09 0)
(4.99554e-05 -7.84829e-09 0)
(4.99569e-05 -8.12041e-09 0)
(4.99582e-05 -8.36878e-09 0)
(4.99594e-05 -8.40571e-09 0)
(4.99602e-05 -8.45086e-09 0)
(4.99609e-05 -8.32708e-09 0)
(4.99453e-05 -6.09203e-10 0)
(4.99423e-05 -1.38176e-09 0)
(4.99429e-05 -2.24338e-09 0)
(4.99435e-05 -3.09831e-09 0)
(4.99445e-05 -3.93249e-09 0)
(4.99457e-05 -4.74036e-09 0)
(4.9947e-05 -5.49591e-09 0)
(4.99486e-05 -6.19726e-09 0)
(4.99502e-05 -6.8297e-09 0)
(4.9952e-05 -7.34943e-09 0)
(4.99537e-05 -7.80977e-09 0)
(4.99555e-05 -8.07951e-09 0)
(4.99571e-05 -8.32187e-09 0)
(4.99586e-05 -8.32044e-09 0)
(4.99597e-05 -8.32702e-09 0)
(4.99606e-05 -8.12191e-09 0)
(4.99422e-05 -5.92651e-10 0)
(4.99391e-05 -1.29244e-09 0)
(4.99397e-05 -2.10289e-09 0)
(4.99404e-05 -2.91497e-09 0)
(4.99415e-05 -3.71162e-09 0)
(4.99428e-05 -4.49925e-09 0)
(4.99443e-05 -5.23798e-09 0)
(4.9946e-05 -5.94172e-09 0)
(4.99479e-05 -6.57654e-09 0)
(4.995e-05 -7.10983e-09 0)
(4.9952e-05 -7.58058e-09 0)
(4.99541e-05 -7.85216e-09 0)
(4.99561e-05 -8.09324e-09 0)
(4.99579e-05 -8.05541e-09 0)
(4.99593e-05 -8.02526e-09 0)
(4.99605e-05 -7.73141e-09 0)
(4.99389e-05 -5.54267e-10 0)
(4.99358e-05 -1.13529e-09 0)
(4.99364e-05 -1.85373e-09 0)
(4.99372e-05 -2.58496e-09 0)
(4.99384e-05 -3.30919e-09 0)
(4.99398e-05 -4.0477e-09 0)
(4.99415e-05 -4.74532e-09 0)
(4.99434e-05 -5.43516e-09 0)
(4.99456e-05 -6.0606e-09 0)
(4.99479e-05 -6.60433e-09 0)
(4.99503e-05 -7.08533e-09 0)
(4.99528e-05 -7.36438e-09 0)
(4.99551e-05 -7.6108e-09 0)
(4.99574e-05 -7.54135e-09 0)
(4.99591e-05 -7.47911e-09 0)
(4.99607e-05 -7.09023e-09 0)
(4.99356e-05 -4.86751e-10 0)
(4.99325e-05 -8.90076e-10 0)
(4.99331e-05 -1.46315e-09 0)
(4.9934e-05 -2.06335e-09 0)
(4.99352e-05 -2.6687e-09 0)
(4.99368e-05 -3.31853e-09 0)
(4.99386e-05 -3.94129e-09 0)
(4.99407e-05 -4.59322e-09 0)
(4.99431e-05 -5.19148e-09 0)
(4.99457e-05 -5.73917e-09 0)
(4.99485e-05 -6.2284e-09 0)
(4.99514e-05 -6.52182e-09 0)
(4.99541e-05 -6.78232e-09 0)
(4.99569e-05 -6.68976e-09 0)
(4.99592e-05 -6.60388e-09 0)
(4.99611e-05 -6.11562e-09 0)
(4.99323e-05 -3.81413e-10 0)
(4.99292e-05 -5.33392e-10 0)
(4.99299e-05 -8.93145e-10 0)
(4.99308e-05 -1.29763e-09 0)
(4.99321e-05 -1.72367e-09 0)
(4.99337e-05 -2.23192e-09 0)
(4.99357e-05 -2.73402e-09 0)
(4.9938e-05 -3.31361e-09 0)
(4.99406e-05 -3.85834e-09 0)
(4.99435e-05 -4.39809e-09 0)
(4.99466e-05 -4.89009e-09 0)
(4.99499e-05 -5.20559e-09 0)
(4.99533e-05 -5.49087e-09 0)
(4.99566e-05 -5.38856e-09 0)
(4.99594e-05 -5.29248e-09 0)
(4.99619e-05 -4.70357e-09 0)
(4.9929e-05 -2.28209e-10 0)
(4.99262e-05 -3.89468e-11 0)
(4.99269e-05 -1.0084e-10 0)
(4.99278e-05 -2.281e-10 0)
(4.99291e-05 -3.97821e-10 0)
(4.99308e-05 -6.95189e-10 0)
(4.99328e-05 -1.01553e-09 0)
(4.99352e-05 -1.47436e-09 0)
(4.99381e-05 -1.92721e-09 0)
(4.99412e-05 -2.43856e-09 0)
(4.99448e-05 -2.92182e-09 0)
(4.99485e-05 -3.2665e-09 0)
(4.99524e-05 -3.58853e-09 0)
(4.99564e-05 -3.49577e-09 0)
(4.99599e-05 -3.40922e-09 0)
(4.99631e-05 -2.72301e-09 0)
(4.9926e-05 -1.58605e-11 0)
(4.99236e-05 6.2155e-10 0)
(4.99242e-05 9.60191e-10 0)
(4.99251e-05 1.21052e-09 0)
(4.99264e-05 1.39322e-09 0)
(4.99281e-05 1.39569e-09 0)
(4.99301e-05 1.33739e-09 0)
(4.99326e-05 1.06621e-09 0)
(4.99356e-05 7.60257e-10 0)
(4.9939e-05 3.11042e-10 0)
(4.99429e-05 -1.41684e-10 0)
(4.99471e-05 -5.19338e-10 0)
(4.99516e-05 -8.89603e-10 0)
(4.99563e-05 -8.32706e-10 0)
(4.99606e-05 -7.83223e-10 0)
(4.99647e-05 -1.02641e-11 0)
(4.99234e-05 2.67761e-10 0)
(4.99214e-05 1.47692e-09 0)
(4.9922e-05 2.33763e-09 0)
(4.99229e-05 3.08618e-09 0)
(4.9924e-05 3.7387e-09 0)
(4.99256e-05 4.15297e-09 0)
(4.99276e-05 4.46049e-09 0)
(4.99301e-05 4.46794e-09 0)
(4.99332e-05 4.38698e-09 0)
(4.99367e-05 4.05392e-09 0)
(4.9941e-05 3.67045e-09 0)
(4.99456e-05 3.26464e-09 0)
(4.99508e-05 2.83897e-09 0)
(4.99562e-05 2.82629e-09 0)
(4.99615e-05 2.80159e-09 0)
(4.99667e-05 3.63939e-09 0)
(4.99212e-05 6.34997e-10 0)
(4.992e-05 2.55407e-09 0)
(4.99205e-05 4.07653e-09 0)
(4.99213e-05 5.46437e-09 0)
(4.99223e-05 6.72662e-09 0)
(4.99238e-05 7.69049e-09 0)
(4.99256e-05 8.49559e-09 0)
(4.9928e-05 8.90339e-09 0)
(4.9931e-05 9.15677e-09 0)
(4.99346e-05 9.02426e-09 0)
(4.99391e-05 8.77629e-09 0)
(4.99441e-05 8.36582e-09 0)
(4.99499e-05 7.89049e-09 0)
(4.99563e-05 7.77015e-09 0)
(4.99627e-05 7.62557e-09 0)
(4.99692e-05 8.49066e-09 0)
(4.99199e-05 1.09735e-09 0)
(4.99197e-05 3.87451e-09 0)
(4.992e-05 6.21375e-09 0)
(4.99206e-05 8.40056e-09 0)
(4.99214e-05 1.04345e-08 0)
(4.99226e-05 1.21132e-08 0)
(4.99242e-05 1.35795e-08 0)
(4.99264e-05 1.45471e-08 0)
(4.99292e-05 1.52853e-08 0)
(4.99328e-05 1.54815e-08 0)
(4.99373e-05 1.54783e-08 0)
(4.99427e-05 1.51226e-08 0)
(4.99491e-05 1.4633e-08 0)
(4.99564e-05 1.43741e-08 0)
(4.99641e-05 1.40659e-08 0)
(4.99722e-05 1.4904e-08 0)
(4.99195e-05 1.66398e-09 0)
(4.99206e-05 5.44973e-09 0)
(4.99207e-05 8.77035e-09 0)
(4.99211e-05 1.19296e-08 0)
(4.99216e-05 1.49161e-08 0)
(4.99225e-05 1.75011e-08 0)
(4.99238e-05 1.98259e-08 0)
(4.99256e-05 2.15564e-08 0)
(4.99281e-05 2.29811e-08 0)
(4.99313e-05 2.36937e-08 0)
(4.99358e-05 2.41067e-08 0)
(4.99413e-05 2.39242e-08 0)
(4.99482e-05 2.35071e-08 0)
(4.99564e-05 2.31024e-08 0)
(4.99656e-05 2.26035e-08 0)
(4.99756e-05 2.33355e-08 0)
(4.99205e-05 2.33973e-09 0)
(4.99231e-05 7.27547e-09 0)
(4.9923e-05 1.17422e-08 0)
(4.99232e-05 1.60525e-08 0)
(4.99233e-05 2.01835e-08 0)
(4.99238e-05 2.38877e-08 0)
(4.99245e-05 2.73002e-08 0)
(4.99258e-05 3.00435e-08 0)
(4.99278e-05 3.24169e-08 0)
(4.99306e-05 3.39111e-08 0)
(4.99347e-05 3.49987e-08 0)
(4.99401e-05 3.51978e-08 0)
(4.99474e-05 3.50172e-08 0)
(4.99563e-05 3.44969e-08 0)
(4.99671e-05 3.37795e-08 0)
(4.99795e-05 3.42447e-08 0)
(4.99231e-05 3.12266e-09 0)
(4.99275e-05 9.32543e-09 0)
(4.99272e-05 1.50892e-08 0)
(4.99271e-05 2.07202e-08 0)
(4.99268e-05 2.61862e-08 0)
(4.99268e-05 3.12317e-08 0)
(4.99269e-05 3.59842e-08 0)
(4.99276e-05 4.00343e-08 0)
(4.99288e-05 4.36855e-08 0)
(4.99309e-05 4.63253e-08 0)
(4.99344e-05 4.84745e-08 0)
(4.99393e-05 4.94222e-08 0)
(4.99466e-05 4.98068e-08 0)
(4.99561e-05 4.93307e-08 0)
(4.99685e-05 4.83938e-08 0)
(4.99835e-05 4.82942e-08 0)
(4.99275e-05 4.00136e-09 0)
(4.99341e-05 1.15452e-08 0)
(4.99336e-05 1.87249e-08 0)
(4.99331e-05 2.58181e-08 0)
(4.99324e-05 3.2787e-08 0)
(4.99319e-05 3.93839e-08 0)
(4.99314e-05 4.57305e-08 0)
(4.99312e-05 5.14069e-08 0)
(4.99316e-05 5.67205e-08 0)
(4.99328e-05 6.09777e-08 0)
(4.99354e-05 6.47486e-08 0)
(4.99394e-05 6.70839e-08 0)
(4.99462e-05 6.87549e-08 0)
(4.99556e-05 6.89891e-08 0)
(4.99693e-05 6.83782e-08 0)
(4.99875e-05 6.77921e-08 0)
(4.99342e-05 4.95239e-09 0)
(4.9943e-05 1.38484e-08 0)
(4.99423e-05 2.25091e-08 0)
(4.99416e-05 3.11532e-08 0)
(4.99405e-05 3.97425e-08 0)
(4.99394e-05 4.80554e-08 0)
(4.99383e-05 5.62124e-08 0)
(4.99374e-05 6.38121e-08 0)
(4.99368e-05 7.11716e-08 0)
(4.9937e-05 7.75629e-08 0)
(4.99383e-05 8.36287e-08 0)
(4.99412e-05 8.82435e-08 0)
(4.99469e-05 9.24082e-08 0)
(4.99556e-05 9.4888e-08 0)
(4.99698e-05 9.66552e-08 0)
(4.99908e-05 9.76642e-08 0)
(4.99432e-05 5.93861e-09 0)
(4.99544e-05 1.61167e-08 0)
(4.99536e-05 2.62476e-08 0)
(4.99526e-05 3.64526e-08 0)
(4.99512e-05 4.66981e-08 0)
(4.99497e-05 5.68064e-08 0)
(4.99479e-05 6.68994e-08 0)
(4.99463e-05 7.66241e-08 0)
(4.99449e-05 8.63055e-08 0)
(4.9944e-05 9.5232e-08 0)
(4.99442e-05 1.04121e-07 0)
(4.99459e-05 1.11754e-07 0)
(4.99504e-05 1.19439e-07 0)
(4.99582e-05 1.25604e-07 0)
(4.99721e-05 1.32072e-07 0)
(4.99939e-05 1.3789e-07 0)
(4.99546e-05 6.90931e-09 0)
(4.99683e-05 1.82054e-08 0)
(4.99673e-05 2.97016e-08 0)
(4.99662e-05 4.13766e-08 0)
(4.99645e-05 5.32057e-08 0)
(4.99627e-05 6.50694e-08 0)
(4.99605e-05 7.70897e-08 0)
(4.99583e-05 8.89859e-08 0)
(4.9956e-05 1.01074e-07 0)
(4.99543e-05 1.12691e-07 0)
(4.99533e-05 1.24567e-07 0)
(4.99538e-05 1.354e-07 0)
(4.99569e-05 1.46629e-07 0)
(4.99635e-05 1.56207e-07 0)
(4.99763e-05 1.66359e-07 0)
(4.9997e-05 1.74847e-07 0)
(4.99685e-05 7.80257e-09 0)
(4.99844e-05 1.9954e-08 0)
(4.99834e-05 3.26048e-08 0)
(4.99822e-05 4.5545e-08 0)
(4.99804e-05 5.8761e-08 0)
(4.99784e-05 7.22022e-08 0)
(4.99759e-05 8.59894e-08 0)
(4.99733e-05 9.99362e-08 0)
(4.99704e-05 1.14333e-07 0)
(4.99679e-05 1.2861e-07 0)
(4.99658e-05 1.43458e-07 0)
(4.99649e-05 1.57556e-07 0)
(4.99663e-05 1.72365e-07 0)
(4.99708e-05 1.85426e-07 0)
(4.99812e-05 1.99242e-07 0)
(4.99992e-05 2.10376e-07 0)
(4.99846e-05 8.54975e-09 0)
(5.00023e-05 2.11993e-08 0)
(5.00013e-05 3.46856e-08 0)
(5.00002e-05 4.85662e-08 0)
(4.99984e-05 6.284e-08 0)
(4.99964e-05 7.75305e-08 0)
(4.99938e-05 9.27546e-08 0)
(4.9991e-05 1.08438e-07 0)
(4.99878e-05 1.2483e-07 0)
(4.99846e-05 1.41498e-07 0)
(4.99816e-05 1.59046e-07 0)
(4.99792e-05 1.76221e-07 0)
(4.99785e-05 1.9439e-07 0)
(4.99803e-05 2.1083e-07 0)
(4.99873e-05 2.28147e-07 0)
(5.00008e-05 2.41857e-07 0)
(5.00025e-05 9.08104e-09 0)
(5.00214e-05 2.17916e-08 0)
(5.00206e-05 3.56937e-08 0)
(5.00196e-05 5.00774e-08 0)
(5.0018e-05 6.49527e-08 0)
(5.00161e-05 8.0417e-08 0)
(5.00137e-05 9.65796e-08 0)
(5.0011e-05 1.13491e-07 0)
(5.00076e-05 1.31351e-07 0)
(5.00041e-05 1.4991e-07 0)
(5.00002e-05 1.69655e-07 0)
(4.99965e-05 1.89515e-07 0)
(4.99935e-05 2.10677e-07 0)
(4.99921e-05 2.30357e-07 0)
(4.99943e-05 2.51102e-07 0)
(5.00018e-05 2.67571e-07 0)
(5.00216e-05 9.33261e-09 0)
(5.0041e-05 2.16124e-08 0)
(5.00404e-05 3.54291e-08 0)
(5.00396e-05 4.97843e-08 0)
(5.00383e-05 6.46944e-08 0)
(5.00368e-05 8.03227e-08 0)
(5.00347e-05 9.67652e-08 0)
(5.00323e-05 1.142e-07 0)
(5.00292e-05 1.32771e-07 0)
(5.00256e-05 1.52453e-07 0)
(5.00211e-05 1.73593e-07 0)
(5.00163e-05 1.95431e-07 0)
(5.0011e-05 2.18897e-07 0)
(5.00059e-05 2.4139e-07 0)
(5.00025e-05 2.65131e-07 0)
(5.00022e-05 2.84142e-07 0)
(5.00412e-05 9.25394e-09 0)
(5.00603e-05 2.0592e-08 0)
(5.00599e-05 3.37722e-08 0)
(5.00594e-05 4.75054e-08 0)
(5.00585e-05 6.18059e-08 0)
(5.00575e-05 7.68866e-08 0)
(5.00559e-05 9.28194e-08 0)
(5.0054e-05 1.09901e-07 0)
(5.00513e-05 1.28209e-07 0)
(5.0048e-05 1.47969e-07 0)
(5.00434e-05 1.6939e-07 0)
(5.00377e-05 1.92145e-07 0)
(5.00304e-05 2.16906e-07 0)
(5.00217e-05 2.41579e-07 0)
(5.00119e-05 2.67927e-07 0)
(5.00023e-05 2.89801e-07 0)
(5.00604e-05 8.81549e-09 0)
(5.00782e-05 1.87256e-08 0)
(5.00781e-05 3.07106e-08 0)
(5.00779e-05 4.32123e-08 0)
(5.00774e-05 5.62305e-08 0)
(5.00769e-05 7.00011e-08 0)
(5.00759e-05 8.45543e-08 0)
(5.00747e-05 1.00273e-07 0)
(5.00726e-05 1.17152e-07 0)
(5.00699e-05 1.35653e-07 0)
(5.00656e-05 1.55834e-07 0)
(5.00597e-05 1.77896e-07 0)
(5.0051e-05 2.02267e-07 0)
(5.00392e-05 2.27716e-07 0)
(5.0023e-05 2.55529e-07 0)
(5.00028e-05 2.8e-07 0)
(5.00783e-05 8.01544e-09 0)
(5.0094e-05 1.60836e-08 0)
(5.0094e-05 2.63592e-08 0)
(5.00941e-05 3.70626e-08 0)
(5.0094e-05 4.81645e-08 0)
(5.00939e-05 5.98909e-08 0)
(5.00935e-05 7.22049e-08 0)
(5.00928e-05 8.55215e-08 0)
(5.00915e-05 9.97093e-08 0)
(5.00895e-05 1.15394e-07 0)
(5.00858e-05 1.32419e-07 0)
(5.00803e-05 1.51484e-07 0)
(5.00711e-05 1.72723e-07 0)
(5.00573e-05 1.96072e-07 0)
(5.00353e-05 2.225e-07 0)
(5.00032e-05 2.47755e-07 0)
(5.0094e-05 6.88423e-09 0)
(5.01068e-05 1.28126e-08 0)
(5.01069e-05 2.09619e-08 0)
(5.01071e-05 2.94068e-08 0)
(5.01073e-05 3.80764e-08 0)
(5.01074e-05 4.71549e-08 0)
(5.01074e-05 5.65142e-08 0)
(5.01071e-05 6.65338e-08 0)
(5.01063e-05 7.69069e-08 0)
(5.01047e-05 8.82817e-08 0)
(5.01016e-05 1.00157e-07 0)
(5.00967e-05 1.13492e-07 0)
(5.00879e-05 1.27818e-07 0)
(5.00739e-05 1.44153e-07 0)
(5.00497e-05 1.63039e-07 0)
(5.00088e-05 1.83539e-07 0)
(5.01067e-05 5.48455e-09 0)
(5.0116e-05 9.12048e-09 0)
(5.01161e-05 1.48682e-08 0)
(5.01164e-05 2.07559e-08 0)
(5.01165e-05 2.66671e-08 0)
(5.01168e-05 3.27245e-08 0)
(5.01167e-05 3.87021e-08 0)
(5.01164e-05 4.48938e-08 0)
(5.01155e-05 5.07983e-08 0)
(5.01137e-05 5.69518e-08 0)
(5.01104e-05 6.24069e-08 0)
(5.01049e-05 6.79923e-08 0)
(5.00955e-05 7.21083e-08 0)
(5.00804e-05 7.57908e-08 0)
(5.00547e-05 7.6789e-08 0)
(5.00102e-05 7.61232e-08 0)
(5.01159e-05 3.90514e-09 0)
(5.01213e-05 5.24773e-09 0)
(5.01213e-05 8.48362e-09 0)
(5.01215e-05 1.1706e-08 0)
(5.01215e-05 1.47618e-08 0)
(5.01215e-05 1.77136e-08 0)
(5.01211e-05 2.02626e-08 0)
(5.01203e-05 2.26215e-08 0)
(5.01188e-05 2.41715e-08 0)
(5.01162e-05 2.53629e-08 0)
(5.01118e-05 2.50352e-08 0)
(5.01048e-05 2.40183e-08 0)
(5.00937e-05 2.02923e-08 0)
(5.00764e-05 1.53704e-08 0)
(5.00499e-05 6.26193e-09 0)
(5.00088e-05 -3.48616e-09 0)
(5.01212e-05 2.2485e-09 0)
(5.01227e-05 1.4302e-09 0)
(5.01226e-05 2.20319e-09 0)
(5.01225e-05 2.83126e-09 0)
(5.01222e-05 3.14087e-09 0)
(5.01217e-05 3.1479e-09 0)
(5.01208e-05 2.51648e-09 0)
(5.01193e-05 1.39893e-09 0)
(5.01169e-05 -8.54598e-10 0)
(5.01131e-05 -3.84136e-09 0)
(5.01075e-05 -8.72417e-09 0)
(5.00991e-05 -1.45961e-08 0)
(5.00868e-05 -2.33841e-08 0)
(5.0069e-05 -3.29986e-08 0)
(5.00443e-05 -4.61442e-08 0)
(5.00098e-05 -5.75998e-08 0)
(5.01227e-05 6.15215e-10 0)
(5.01204e-05 -2.12775e-09 0)
(5.01201e-05 -3.63334e-09 0)
(5.01197e-05 -5.37989e-09 0)
(5.0119e-05 -7.54239e-09 0)
(5.0118e-05 -1.01319e-08 0)
(5.01164e-05 -1.34835e-08 0)
(5.0114e-05 -1.74774e-08 0)
(5.01107e-05 -2.27183e-08 0)
(5.01058e-05 -2.88193e-08 0)
(5.00991e-05 -3.68008e-08 0)
(5.00896e-05 -4.56972e-08 0)
(5.0077e-05 -5.71185e-08 0)
(5.00599e-05 -6.87509e-08 0)
(5.00384e-05 -8.28659e-08 0)
(5.00113e-05 -9.40858e-08 0)
(5.01205e-05 -9.07498e-10 0)
(5.01149e-05 -5.27362e-09 0)
(5.01144e-05 -8.77604e-09 0)
(5.01137e-05 -1.25766e-08 0)
(5.01125e-05 -1.68349e-08 0)