/*--------------------------------*- C++ -*----------------------------------*\
| =========                 |                                                 |
| \\      /  F ield         | foam-extend: Open Source CFD                    |
|  \\    /   O peration     | Version:     4.1-20200408                       |
|   \\  /    A nd           | Web:         http://www.foam-extend.org         |
|    \\/     M anipulation  |                                                 |
\*---------------------------------------------------------------------------*/
FoamFile
{
    version     2.0;
    format      ascii;
    class       volTensorField;
    location    "0.0070000";
    object      F;
}
// * * * * * * * * * * * * * * * * * * * * * * * * * * * * * * * * * * * * * //

dimensions      [0 0 0 0 0 0 0];

internalField   nonuniform List<tensor> 
1952
(
(1.00267 7.18551e-05 5.06097e-12 -7.15777e-05 0.999345 -4.0278e-12 -2.57472e-12 1.54259e-11 0.999345)
(1.00266 0.000119008 4.67072e-12 -0.000118233 0.999348 -2.42005e-11 -2.42799e-12 -1.41999e-11 0.999345)
(1.00265 0.000166069 -1.78543e-12 -0.00016561 0.99935 5.72629e-12 7.80366e-13 -1.09593e-10 0.999347)
(1.00263 0.000217582 -7.2025e-12 -0.000216895 0.999355 3.63579e-11 3.44274e-12 4.24713e-11 0.999347)
(1.00262 0.000268341 2.45019e-12 -0.000268599 0.999358 -1.06344e-11 -1.50283e-12 2.08331e-10 0.99935)
(1.00259 0.000325515 1.77478e-11 -0.000326062 0.999364 -4.15083e-11 -9.14717e-12 3.13436e-11 0.99935)
(1.00256 0.000381032 4.25175e-12 -0.000383387 0.999368 -1.5469e-11 -2.31883e-12 -2.09365e-10 0.999354)
(1.00253 0.000444797 -5.50927e-12 -0.000448359 0.999376 2.42891e-11 2.52097e-12 -4.19455e-11 0.999355)
(1.00249 0.000504622 9.61153e-12 -0.000511335 0.999379 -5.37575e-12 -5.32369e-12 2.07036e-10 0.999358)
(1.00245 0.000573903 5.04283e-12 -0.000583696 0.999387 -2.88665e-11 -3.03229e-12 -3.6021e-11 0.999359)
(1.0024 0.000633764 -7.68021e-12 -0.000649812 0.999388 3.0761e-12 3.58941e-12 -2.18453e-10 0.999363)
(1.00234 0.000701067 1.94564e-11 -0.000725977 0.999393 1.32155e-11 -1.01408e-11 3.77657e-11 0.999364)
(1.00228 0.000742158 -4.49633e-11 -0.000785302 0.999387 1.30482e-11 2.15844e-11 2.01953e-10 0.999368)
(1.00221 0.000742087 1.09086e-10 -0.000830288 0.999382 -3.7022e-11 -5.52992e-11 3.34756e-11 0.999367)
(1.00212 0.000498989 -1.42256e-10 -0.000738659 0.999358 3.63944e-11 7.03883e-11 -6.01123e-11 0.99937)
(1.00267 3.11616e-05 1.29806e-12 -3.08506e-05 0.999345 -6.19217e-11 -6.70279e-13 -2.23686e-11 0.999345)
(1.00269 7.86243e-05 5.52433e-12 -8.36323e-05 0.99932 -4.18294e-12 -1.04359e-13 1.60228e-11 0.99932)
(1.00268 0.000130141 5.00289e-12 -0.000137756 0.999321 -2.50601e-11 -2.02431e-13 -1.47749e-11 0.99932)
(1.00267 0.000181507 -2.07823e-12 -0.000194059 0.999322 6.02449e-12 -2.34826e-13 -1.13877e-10 0.999321)
(1.00266 0.000237661 -8.05041e-12 -0.000254198 0.999325 3.75589e-11 -2.86195e-13 4.41675e-11 0.999321)
(1.00264 0.000292882 2.81885e-12 -0.000316966 0.999325 -1.11415e-11 -5.17578e-13 2.17152e-10 0.999322)
(1.00261 0.000354916 1.92601e-11 -0.000385624 0.999329 -4.31287e-11 -5.96404e-13 3.26852e-11 0.999322)
(1.00259 0.000415041 4.70858e-12 -0.000457201 0.999329 -1.62987e-11 -4.67458e-13 -2.19171e-10 0.999324)
(1.00255 0.000483845 -6.05547e-12 -0.000537202 0.999333 2.4528e-11 -4.67415e-13 -4.36455e-11 0.999324)
(1.00252 0.000548388 9.90563e-12 -0.000619423 0.999333 -5.71983e-12 -9.7985e-13 2.17427e-10 0.999326)
(1.00247 0.000622974 6.01056e-12 -0.00071352 0.999336 -2.96218e-11 -1.05588e-12 -3.8341e-11 0.999325)
(1.00242 0.000688117 -7.60556e-12 -0.000808178 0.999333 3.26373e-12 -5.9708e-13 -2.30087e-10 0.999328)
(1.00236 0.000762777 1.92681e-11 -0.000920299 0.999335 1.4081e-11 -8.62538e-13 3.99164e-11 0.999327)
(1.00229 0.000816827 -4.47005e-11 -0.00103092 0.999331 1.28253e-11 -1.53874e-12 2.14361e-10 0.999329)
(1.0022 0.000863088 1.02143e-10 -0.00115954 0.999339 -4.07387e-11 -1.80611e-12 3.55573e-11 0.999327)
(1.00204 0.000836968 -1.59503e-10 -0.00125693 0.999367 3.16588e-11 -1.12676e-12 -6.20264e-11 0.99933)
(1.00269 3.40727e-05 1.44117e-12 -3.58077e-05 0.99932 -6.4173e-11 -4.71624e-14 -2.32133e-11 0.99932)
(1.00271 8.51347e-05 5.98508e-12 -9.73024e-05 0.999298 -4.30404e-12 -1.04646e-13 1.65333e-11 0.999298)
(1.0027 0.000140815 5.33425e-12 -0.000160223 0.999299 -2.58074e-11 -2.02734e-13 -1.52653e-11 0.999298)
(1.00269 0.000196315 -2.35756e-12 -0.000225923 0.999299 6.26674e-12 -2.32525e-13 -1.17498e-10 0.999299)
(1.00267 0.000256999 -8.86317e-12 -0.000295921 0.999301 3.86409e-11 -2.87868e-13 4.55917e-11 0.999298)
(1.00265 0.000316572 3.1699e-12 -0.000369464 0.9993 -1.15397e-11 -5.26423e-13 2.24467e-10 0.999299)
(1.00263 0.00038349 2.06868e-11 -0.000449652 0.999302 -4.45079e-11 -5.98756e-13 3.37819e-11 0.999299)
(1.0026 0.000448335 5.15417e-12 -0.000534068 0.999301 -1.6964e-11 -4.57873e-13 -2.27074e-10 0.9993)
(1.00257 0.000522568 -6.43737e-12 -0.000628159 0.999304 2.50165e-11 -4.65985e-13 -4.49897e-11 0.999299)
(1.00253 0.00059259 1.01941e-11 -0.000726284 0.999303 -5.96064e-12 -9.95439e-13 2.25464e-10 0.999301)
(1.00248 0.000674017 6.61021e-12 -0.000838396 0.999306 -3.0587e-11 -1.05427e-12 -4.00883e-11 0.9993)
(1.00243 0.000747225 -7.35788e-12 -0.000953611 0.999305 3.67785e-12 -5.84649e-13 -2.38554e-10 0.999302)
(1.00236 0.000834216 1.97681e-11 -0.0010897 0.999312 1.52627e-11 -8.67607e-13 4.14092e-11 0.999301)
(1.00228 0.00090753 -4.43909e-11 -0.00122733 0.999317 1.27443e-11 -1.55721e-12 2.22551e-10 0.999303)
(1.00217 0.000989526 9.89449e-11 -0.00138542 0.999341 -4.3264e-11 -1.81372e-12 3.67986e-11 0.999303)
(1.00202 0.00103748 -1.6323e-10 -0.00150789 0.999382 3.14704e-11 -1.12562e-12 -6.42787e-11 0.999308)
(1.00271 3.68475e-05 1.55799e-12 -4.16509e-05 0.999298 -6.60823e-11 -4.71112e-14 -2.39343e-11 0.999298)
(1.00272 9.12164e-05 6.40259e-12 -0.000111136 0.999276 -4.41345e-12 -1.0469e-13 1.70583e-11 0.999276)
(1.00271 0.000150777 5.63888e-12 -0.000182931 0.999277 -2.65919e-11 -2.0126e-13 -1.57672e-11 0.999276)
(1.0027 0.000210168 -2.62152e-12 -0.000257958 0.999276 6.48989e-12 -2.26653e-13 -1.21164e-10 0.999276)
(1.00268 0.00027513 -9.62777e-12 -0.000337705 0.999278 3.97966e-11 -2.90116e-13 4.70178e-11 0.999276)
(1.00267 0.000338881 3.49774e-12 -0.000421622 0.999277 -1.19004e-11 -5.40597e-13 2.31659e-10 0.999277)
(1.00264 0.000410551 2.20277e-11 -0.000512828 0.999279 -4.5865e-11 -6.00084e-13 3.48381e-11 0.999276)
(1.00261 0.000480151 5.55081e-12 -0.000609105 0.999279 -1.75825e-11 -4.35534e-13 -2.34524e-10 0.999278)
(1.00257 0.000560007 -6.72478e-12 -0.000715986 0.999282 2.5723e-11 -4.61473e-13 -4.6221e-11 0.999277)
(1.00253 0.000636046 1.04705e-11 -0.000827906 0.999282 -6.13848e-12 -1.01827e-12 2.32629e-10 0.999279)
(1.00248 0.000725195 7.03179e-12 -0.000955005 0.999288 -3.15805e-11 -1.04742e-12 -4.15973e-11 0.999278)
(1.00242 0.00080784 -7.01487e-12 -0.00108606 0.999292 4.13724e-12 -5.51837e-13 -2.45579e-10 0.99928)
(1.00235 0.000908479 2.03179e-11 -0.00123887 0.999304 1.61246e-11 -8.71256e-13 4.25976e-11 0.99928)
(1.00226 0.00100119 -4.40655e-11 -0.00139222 0.999317 1.27331e-11 -1.59048e-12 2.28776e-10 0.999284)
(1.00215 0.0011133 9.71016e-11 -0.00156332 0.99935 -4.39766e-11 -1.81959e-12 3.76979e-11 0.999286)
(1.002 0.00119973 -1.63845e-10 -0.00168953 0.999395 3.15413e-11 -1.11509e-12 -6.59894e-11 0.999293)
(1.00272 3.94141e-05 1.67645e-12 -4.75696e-05 0.999276 -6.80539e-11 -4.65783e-14 -2.46783e-11 0.999276)
(1.00273 9.75007e-05 6.8382e-12 -0.000125584 0.999255 -4.50521e-12 -1.05181e-13 1.75464e-11 0.999255)
(1.00272 0.00016113 5.94052e-12 -0.000206606 0.999256 -2.73272e-11 -2.00955e-13 -1.6232e-11 0.999255)
(1.00271 0.000224569 -2.89649e-12 -0.000291185 0.999256 6.68468e-12 -2.23189e-13 -1.24543e-10 0.999256)
(1.00269 0.00029406 -1.03905e-11 -0.00038083 0.999258 4.08912e-11 -2.92484e-13 4.83214e-11 0.999256)
(1.00267 0.000362248 3.8458e-12 -0.000475005 0.999258 -1.22102e-11 -5.53234e-13 2.38181e-10 0.999257)
(1.00264 0.000439054 2.33757e-11 -0.000576938 0.999261 -4.70889e-11 -6.02652e-13 3.57877e-11 0.999256)
(1.00261 0.000513861 5.9731e-12 -0.000684332 0.999261 -1.81273e-11 -4.1782e-13 -2.41111e-10 0.999258)
(1.00257 0.000599968 -6.90864e-12 -0.00080287 0.999266 2.64517e-11 -4.59425e-13 -4.7297e-11 0.999258)
(1.00253 0.000682759 1.07742e-11 -0.000926679 0.999269 -6.26859e-12 -1.03982e-12 2.38744e-10 0.99926)
(1.00247 0.000780522 7.36649e-12 -0.00106602 0.999278 -3.24243e-11 -1.04422e-12 -4.28507e-11 0.99926)
(1.00241 0.000873317 -6.69577e-12 -0.00120887 0.999286 4.56415e-12 -5.26446e-13 -2.51295e-10 0.999263)
(1.00233 0.000987735 2.07707e-11 -0.00137291 0.999304 1.66193e-11 -8.77064e-13 4.35329e-11 0.999264)
(1.00224 0.0010976 -4.37165e-11 -0.0015352 0.999323 1.27507e-11 -1.62028e-12 2.33561e-10 0.999269)
(1.00213 0.00123237 9.65163e-11 -0.00171252 0.99936 -4.3572e-11 -1.82889e-12 3.83724e-11 0.999272)
(1.00199 0.00134104 -1.63412e-10 -0.00183945 0.999403 3.17125e-11 -1.10425e-12 -6.73293e-11 0.999281)
(1.00273 4.20756e-05 1.82588e-12 -5.37564e-05 0.999255 -6.98828e-11 -4.66134e-14 -2.53702e-11 0.999256)
(1.00273 0.000104704 7.33544e-12 -0.000141445 0.999238 -4.56881e-12 -1.05542e-13 1.7965e-11 0.999238)
(1.00272 0.000173032 6.29488e-12 -0.000232535 0.999239 -2.79576e-11 -2.01061e-13 -1.66283e-11 0.999238)
(1.00271 0.000241147 -3.21415e-12 -0.000327429 0.999239 6.83796e-12 -2.19689e-13 -1.27402e-10 0.999239)
(1.00269 0.000315886 -1.12519e-11 -0.000427635 0.999242 4.1832e-11 -2.94649e-13 4.94145e-11 0.999239)
(1.00267 0.000389265 4.24835e-12 -0.000532547 0.999243 -1.24494e-11 -5.6545e-13 2.43583e-10 0.99924)
(1.00264 0.000472073 2.49232e-11 -0.000645478 0.999247 -4.80666e-11 -6.05337e-13 3.6561e-11 0.99924)
(1.00261 0.000553034 6.4581e-12 -0.000763948 0.99925 -1.85667e-11 -4.02685e-13 -2.46392e-10 0.999242)
(1.00256 0.000646469 -7.11803e-12 -0.000893709 0.999257 2.70756e-11 -4.56602e-13 -4.81386e-11 0.999242)
(1.00252 0.000737139 1.11261e-11 -0.00102848 0.999263 -6.35106e-12 -1.06148e-12 2.43421e-10 0.999245)
(1.00246 0.000844637 7.86039e-12 -0.00117845 0.999275 -3.29497e-11 -1.04071e-12 -4.37814e-11 0.999246)
(1.00239 0.000948363 -6.38884e-12 -0.00133081 0.999287 4.93602e-12 -5.0483e-13 -2.55397e-10 0.99925)
(1.00231 0.00107648 2.09034e-11 -0.00150284 0.999309 1.66789e-11 -8.82664e-13 4.41776e-11 0.999253)
(1.00222 0.00120152 -4.33307e-11 -0.00167055 0.999332 1.27748e-11 -1.64795e-12 2.36746e-10 0.999259)
(1.00211 0.00135362 9.69998e-11 -0.00185009 0.999369 -4.26219e-11 -1.83629e-12 3.88022e-11 0.999264)
(1.00199 0.0014752 -1.62405e-10 -0.0019767 0.999409 3.18529e-11 -1.09696e-12 -6.81957e-11 0.999274)
(1.00273 4.5134e-05 1.97172e-12 -6.055e-05 0.999238 -7.14308e-11 -4.66557e-14 -2.59603e-11 0.999238)
(1.00273 0.000112426 7.86438e-12 -0.000157151 0.999225 -4.60416e-12 -1.05869e-13 1.82831e-11 0.999224)
(1.00272 0.000185857 6.66042e-12 -0.00025814 0.999227 -2.84363e-11 -2.01071e-13 -1.69268e-11 0.999225)
(1.0027 0.000258973 -3.54597e-12 -0.000363069 0.999227 6.9435e-12 -2.16962e-13 -1.2954e-10 0.999226)
(1.00268 0.000339364 -1.21435e-11 -0.000473401 0.999231 4.25499e-11 -2.96637e-13 5.02241e-11 0.999226)
(1.00266 0.000418282 4.68037e-12 -0.000588396 0.999233 -1.26087e-11 -5.75381e-13 2.47531e-10 0.999228)
(1.00263 0.000507483 2.65535e-11 -0.000711418 0.999239 -4.8751e-11 -6.07784e-13 3.71163e-11 0.999228)
(1.00259 0.000594908 7.00605e-12 -0.000839728 0.999243 -1.88779e-11 -3.91234e-13 -2.50109e-10 0.999231)
(1.00255 0.000695941 -7.33685e-12 -0.000979109 0.999253 2.75347e-11 -4.55251e-13 -4.8715e-11 0.999232)
(1.0025 0.000794515 1.14999e-11 -0.00112284 0.999262 -6.38766e-12 -1.07701e-12 2.46534e-10 0.999235)
(1.00244 0.000911449 8.49662e-12 -0.001281 0.999277 -3.31921e-11 -1.03926e-12 -4.4377e-11 0.999238)
(1.00237 0.00102503 -6.19895e-12 -0.00144021 0.999292 5.1966e-12 -4.90662e-13 -2.57916e-10 0.999243)
(1.00229 0.0011647 2.07306e-11 -0.00161735 0.999316 1.64839e-11 -8.86954e-13 4.45524e-11 0.999246)
(1.0022 0.001301 -4.29581e-11 -0.00178822 0.999341 1.28102e-11 -1.66573e-12 2.38506e-10 0.999254)
(1.0021 0.00146444 9.80742e-11 -0.00196845 0.999376 -4.1546e-11 -1.84203e-12 3.90245e-11 0.99926)
(1.00198 0.00159318 -1.61277e-10 -0.00209519 0.999413 3.19607e-11 -1.09412e-12 -6.8654e-11 0.99927)
(1.00273 4.84432e-05 2.10613e-12 -6.72795e-05 0.999224 -7.25845e-11 -4.65552e-14 -2.64048e-11 0.999225)
(1.00272 0.000120649 8.42637e-12 -0.000172423 0.999216 -4.61239e-12 -1.0622e-13 1.8495e-11 0.999216)
(1.0027 0.000199545 7.0529e-12 -0.000282989 0.999218 -2.87515e-11 -2.01066e-13 -1.71227e-11 0.999216)
(1.00269 0.000277982 -3.89983e-12 -0.000397544 0.99922 7.0028e-12 -2.1423e-13 -1.30928e-10 0.999217)
(1.00267 0.000364363 -1.30872e-11 -0.000517481 0.999224 4.30189e-11 -2.98606e-13 5.07408e-11 0.999218)
(1.00264 0.000449136 5.14251e-12 -0.000641892 0.999228 -1.26933e-11 -5.85307e-13 2.50001e-10 0.99922)
(1.00261 0.000544999 2.82909e-11 -0.000774155 0.999235 -4.91278e-11 -6.10195e-13 3.74534e-11 0.999221)
(1.00257 0.000639103 7.59393e-12 -0.000911261 0.999242 -1.9067e-11 -3.79597e-13 -2.52296e-10 0.999224)
(1.00253 0.000747785 -7.66018e-12 -0.00105899 0.999253 2.77749e-11 -4.53811e-13 -4.9038e-11 0.999226)
(1.00247 0.000854111 1.18906e-11 -0.00121021 0.999264 -6.39203e-12 -1.09272e-12 2.48189e-10 0.99923)
(1.00241 0.000979907 9.38843e-12 -0.00137493 0.999281 -3.31437e-11 -1.03764e-12 -4.4669e-11 0.999233)
(1.00234 0.00110223 -6.08573e-12 -0.0015393 0.999299 5.37534e-12 -4.7581e-13 -2.59044e-10 0.999239)
(1.00227 0.00125146 2.02167e-11 -0.00172 0.999323 1.61081e-11 -8.91254e-13 4.46965e-11 0.999244)
(1.00218 0.00139611 -4.25946e-11 -0.00189289 0.999349 1.28422e-11 -1.68418e-12 2.39081e-10 0.999252)
(1.00208 0.00156705 9.95681e-11 -0.00207331 0.999382 -4.05389e-11 -1.84764e-12 3.9077e-11 0.999259)
(1.00198 0.00169932 -1.60117e-10 -0.00220055 0.999415 3.20373e-11 -1.09085e-12 -6.87729e-11 0.999269)
(1.00272 5.19937e-05 2.24338e-12 -7.38255e-05 0.999216 -7.33231e-11 -4.6505e-14 -2.66959e-11 0.999216)
(1.0027 0.000129289 9.00656e-12 -0.000186915 0.999211 -4.60106e-12 -1.06554e-13 1.86183e-11 0.999211)
(1.00269 0.00021397 7.4507e-12 -0.000306523 0.999214 -2.89313e-11 -2.01101e-13 -1.72333e-11 0.999211)
(1.00267 0.000297947 -4.26313e-12 -0.000430099 0.999216 7.0266e-12 -2.11933e-13 -1.31696e-10 0.999213)
(1.00265 0.00039056 -1.40595e-11 -0.000558945 0.999222 4.32864e-11 -3.00368e-13 5.10178e-11 0.999214)
(1.00262 0.000481331 5.62086e-12 -0.000691965 0.999226 -1.27196e-11 -5.9384e-13 2.5127e-10 0.999216)
(1.00259 0.000583944 3.00988e-11 -0.000832536 0.999235 -4.92724e-11 -6.12349e-13 3.76158e-11 0.999218)
(1.00255 0.000684658 8.2328e-12 -0.000977387 0.999243 -1.91558e-11 -3.70069e-13 -2.53269e-10 0.999221)
(1.0025 0.000800755 -8.04921e-12 -0.00113228 0.999256 2.78614e-11 -4.5277e-13 -4.91633e-11 0.999224)
(1.00245 0.000914304 1.22916e-11 -0.00128977 0.999269 -6.37214e-12 -1.10558e-12 2.48726e-10 0.999229)
(1.00239 0.00104807 1.04326e-11 -0.00145977 0.999287 -3.293e-11 -1.03665e-12 -4.47322e-11 0.999232)
(1.00232 0.00117776 -6.07099e-12 -0.00162819 0.999306 5.47913e-12 -4.64437e-13 -2.59141e-10 0.999239)
(1.00224 0.0013346 1.9512e-11 -0.00181151 0.999331 1.56673e-11 -8.94792e-13 4.46725e-11 0.999244)
(1.00216 0.0014852 -4.22518e-11 -0.00198594 0.999356 1.2874e-11 -1.69862e-12 2.38799e-10 0.999253)
(1.00207 0.00166086 1.01195e-10 -0.00216651 0.999387 -3.96353e-11 -1.8525e-12 3.90074e-11 0.99926)
(1.00197 0.00179473 -1.59001e-10 -0.00229458 0.999417 3.20928e-11 -1.08875e-12 -6.86479e-11 0.99927)
(1.0027 5.57617e-05 2.43372e-12 -8.00387e-05 0.999211 -7.3717e-11 -4.64784e-14 -2.6859e-11 0.999211)
(1.00268 0.0001383 9.62201e-12 -0.000200668 0.99921 -4.57309e-12 -1.06873e-13 1.86595e-11 0.999209)
(1.00266 0.000229027 7.85691e-12 -0.000328825 0.999213 -2.89831e-11 -2.01125e-13 -1.72652e-11 0.99921)
(1.00265 0.000318743 -4.64467e-12 -0.00046088 0.999216 7.01963e-12 -2.09712e-13 -1.31896e-10 0.999211)
(1.00262 0.00041776 -1.50653e-11 -0.000598032 0.999222 4.33578e-11 -3.02053e-13 5.10766e-11 0.999213)
(1.0026 0.000514641 6.12011e-12 -0.000738991 0.999228 -1.26974e-11 -6.02019e-13 2.51462e-10 0.999215)
(1.00256 0.00062401 3.19905e-11 -0.000887129 0.999238 -4.92007e-11 -6.14399e-13 3.7623e-11 0.999217)
(1.00252 0.000731238 8.90352e-12 -0.00103892 0.999247 -1.91644e-11 -3.60926e-13 -2.53183e-10 0.999221)
(1.00247 0.000854442 -8.56358e-12 -0.00120013 0.999261 2.77846e-11 -4.5175e-13 -4.91188e-11 0.999224)
(1.00242 0.000974712 1.26988e-11 -0.00136302 0.999275 -6.33725e-12 -1.11784e-12 2.48319e-10 0.99923)
(1.00236 0.00111562 1.16789e-11 -0.00153747 0.999294 -3.257e-11 -1.0357e-12 -4.4606e-11 0.999234)
(1.00229 0.00125153 -6.11213e-12 -0.00170921 0.999313 5.53856e-12 -4.53636e-13 -2.58399e-10 0.999241)
(1.00222 0.00141445 1.8611e-11 -0.00189464 0.999338 1.51919e-11 -8.98102e-13 4.45138e-11 0.999247)
(1.00214 0.00156923 -4.19247e-11 -0.00207032 0.999362 1.29028e-11 -1.71213e-12 2.37837e-10 0.999256)
(1.00206 0.00174783 1.02927e-10 -0.00225106 0.999391 -3.88483e-11 -1.85705e-12 3.88411e-11 0.999263)
(1.00197 0.00188197 -1.57935e-10 -0.00238016 0.999418 3.21346e-11 -1.08685e-12 -6.8329e-11 0.999273)
(1.00268 5.97184e-05 2.64736e-12 -8.59369e-05 0.999209 -7.3792e-11 -4.64507e-14 -2.69035e-11 0.999209)
(1.00265 0.00014754 1.02431e-11 -0.000213551 0.999212 -4.53363e-12 -1.07169e-13 1.8634e-11 0.99921)
(1.00264 0.000244488 8.26704e-12 -0.00034969 0.999215 -2.89324e-11 -2.01168e-13 -1.72336e-11 0.999211)
(1.00262 0.000340019 -5.03095e-12 -0.000489626 0.999218 6.98964e-12 -2.0782e-13 -1.31639e-10 0.999213)
(1.0026 0.000445505 -1.60867e-11 -0.000634448 0.999225 4.3277e-11 -3.0356e-13 5.09612e-11 0.999214)
(1.00257 0.000548456 6.62914e-12 -0.000782678 0.999232 -1.26377e-11 -6.09116e-13 2.50797e-10 0.999217)
(1.00253 0.000664456 3.39086e-11 -0.000937678 0.999242 -4.89724e-11 -6.1623e-13 3.75083e-11 0.99922)
(1.00249 0.000777926 9.60478e-12 -0.00109568 0.999253 -1.9107e-11 -3.53246e-13 -2.5227e-10 0.999224)
(1.00244 0.000907806 -9.1441e-12 -0.00126249 0.999267 2.76038e-11 -4.50976e-13 -4.89434e-11 0.999228)
(1.00239 0.00103417 1.31042e-11 -0.0014301 0.999282 -6.29098e-12 -1.12825e-12 2.47191e-10 0.999233)
(1.00233 0.00118135 1.30197e-11 -0.00160841 0.999302 -3.21366e-11 -1.0351e-12 -4.43367e-11 0.999238)
(1.00227 0.00132241 -6.2164e-12 -0.00178301 0.999321 5.56035e-12 -4.44825e-13 -2.57029e-10 0.999245)
(1.00219 0.00149012 1.76333e-11 -0.00197025 0.999345 1.47201e-11 -9.00973e-13 4.4255e-11 0.999252)
(1.00212 0.00164778 -4.16178e-11 -0.00214704 0.999367 1.293e-11 -1.72349e-12 2.3637e-10 0.99926)
(1.00204 0.00182807 1.04635e-10 -0.00232803 0.999394 -3.8157e-11 -1.8612e-12 3.86026e-11 0.999268)
(1.00196 0.00196185 -1.56934e-10 -0.00245829 0.999419 3.21673e-11 -1.08552e-12 -6.78653e-11 0.999278)
(1.00265 6.38065e-05 2.78624e-12 -9.14626e-05 0.99921 -7.361e-11 -4.64334e-14 -2.6852e-11 0.99921)
(1.00262 0.000156955 1.08731e-11 -0.000225681 0.999215 -4.48527e-12 -1.07449e-13 1.85517e-11 0.999214)
(1.00261 0.000260237 8.69165e-12 -0.000369318 0.999219 -2.87926e-11 -2.01212e-13 -1.71479e-11 0.999215)
(1.00259 0.000361642 -5.41642e-12 -0.00051663 0.999223 6.94089e-12 -2.06077e-13 -1.30995e-10 0.999217)
(1.00257 0.000473607 -1.71293e-11 -0.0006686 0.99923 4.30596e-11 -3.04971e-13 5.06995e-11 0.999219)
(1.00254 0.000582579 7.14326e-12 -0.000823557 0.999237 -1.25492e-11 -6.15674e-13 2.49421e-10 0.999222)
(1.0025 0.000705048 3.58722e-11 -0.000984869 0.999248 -4.86077e-11 -6.17936e-13 3.72932e-11 0.999224)
(1.00246 0.000824514 1.03155e-11 -0.00114854 0.999259 -1.90026e-11 -3.46258e-13 -2.50688e-10 0.999229)
(1.00241 0.000960655 -9.82115e-12 -0.00132041 0.999275 2.73221e-11 -4.5031e-13 -4.86631e-11 0.999233)
(1.00236 0.00109257 1.35059e-11 -0.00149226 0.99929 -6.2384e-12 -1.13773e-12 2.45493e-10 0.999239)
(1.0023 0.0012453 1.4476e-11 -0.00167401 0.999309 -3.16419e-11 -1.03467e-12 -4.39559e-11 0.999244)
(1.00224 0.00139067 -6.34761e-12 -0.00185115 0.999328 5.56185e-12 -4.37062e-13 -2.55175e-10 0.999251)
(1.00217 0.00156221 1.65678e-11 -0.00204 0.999351 1.42597e-11 -9.03574e-13 4.39196e-11 0.999257)
(1.0021 0.00172178 -4.13265e-11 -0.00221781 0.999373 1.29555e-11 -1.73356e-12 2.34519e-10 0.999266)
(1.00203 0.00190295 1.06329e-10 -0.0023991 0.999397 -3.75535e-11 -1.86508e-12 3.83092e-11 0.999274)
(1.00195 0.00203591 -1.55993e-10 -0.00253062 0.99942 3.21951e-11 -1.08458e-12 -6.7291e-11 0.999283)
(1.00262 6.79917e-05 2.99929e-12 -9.66663e-05 0.999214 -7.32094e-11 -4.64186e-14 -2.67188e-11 0.999214)
(1.00259 0.000166393 1.1501e-11 -0.000237045 0.999221 -4.43099e-12 -1.07706e-13 1.84238e-11 0.99922)
(1.00257 0.000276034 9.10919e-12 -0.000387693 0.999225 -2.85825e-11 -2.01265e-13 -1.7019e-11 0.999221)
(1.00256 0.000383263 -5.80334e-12 -0.000541886 0.999229 6.87822e-12 -2.04585e-13 -1.30044e-10 0.999223)
(1.00253 0.000501628 -1.81663e-11 -0.0007005 0.999237 4.27383e-11 -3.06238e-13 5.03217e-11 0.999224)
(1.0025 0.000616463 7.65238e-12 -0.000861686 0.999244 -1.24384e-11 -6.21401e-13 2.47483e-10 0.999228)
(1.00247 0.000745164 3.78239e-11 -0.00102882 0.999256 -4.81459e-11 -6.19467e-13 3.69994e-11 0.999231)
(1.00243 0.000870291 1.10372e-11 -0.00119768 0.999267 -1.88587e-11 -3.40314e-13 -2.4858e-10 0.999235)
(1.00238 0.00101225 -1.05324e-11 -0.00137418 0.999282 2.69788e-11 -4.49812e-13 -4.83013e-11 0.999239)
(1.00233 0.00114917 1.38946e-11 -0.00154987 0.999297 -6.18083e-12 -1.14594e-12 2.43356e-10 0.999245)
(1.00227 0.00130678 1.59596e-11 -0.00173476 0.999316 -3.11206e-11 -1.03446e-12 -4.34894e-11 0.99925)
(1.00221 0.00145575 -6.51034e-12 -0.00191421 0.999335 5.5464e-12 -4.30587e-13 -2.52949e-10 0.999258)
(1.00215 0.00163034 1.54927e-11 -0.00210455 0.999357 1.38191e-11 -9.05894e-13 4.35256e-11 0.999264)
(1.00208 0.00179117 -4.10521e-11 -0.00228334 0.999377 1.29797e-11 -1.74229e-12 2.32371e-10 0.999273)
(1.00201 0.00197271 1.07949e-10 -0.00246496 0.9994 -3.7016e-11 -1.86876e-12 3.79731e-11 0.99928)
(1.00194 0.00210472 -1.55115e-10 -0.00259779 0.999421 3.22197e-11 -1.08401e-12 -6.66307e-11 0.99929)
(1.00259 7.22098e-05 3.19549e-12 -0.000101542 0.99922 -7.26346e-11 -4.64103e-14 -2.65201e-11 0.99922)
(1.00255 0.000175814 1.21343e-11 -0.000247765 0.999228 -4.3726e-12 -1.07949e-13 1.82597e-11 0.999227)
(1.00254 0.000291795 9.52598e-12 -0.000405019 0.999232 -2.83157e-11 -2.01324e-13 -1.6856e-11 0.999228)
(1.00252 0.000404792 -6.18542e-12 -0.000565682 0.999237 6.80484e-12 -2.03267e-13 -1.28852e-10 0.99923)
(1.0025 0.00052945 -1.92028e-11 -0.00073053 0.999244 4.23298e-11 -3.07411e-13 4.98536e-11 0.999232)
(1.00247 0.000650002 8.15905e-12 -0.000897537 0.999252 -1.23116e-11 -6.26555e-13 2.45112e-10 0.999235)
(1.00244 0.000784696 3.97741e-11 -0.00107009 0.999264 -4.76046e-11 -6.2088e-13 3.66454e-11 0.999238)
(1.0024 0.0009152 1.17538e-11 -0.00124378 0.999275 -1.86897e-11 -3.35127e-13 -2.46078e-10 0.999243)
(1.00235 0.00106257 -1.13077e-11 -0.00142457 0.99929 2.65791e-11 -4.49449e-13 -4.7879e-11 0.999247)
(1.0023 0.00120406 1.42768e-11 -0.00160381 0.999305 -6.12102e-12 -1.15322e-12 2.40897e-10 0.999253)
(1.00225 0.001366 1.74886e-11 -0.00179159 0.999324 -3.05789e-11 -1.03447e-12 -4.29608e-11 0.999258)
(1.00219 0.00151801 -6.68367e-12 -0.00197318 0.999342 5.52284e-12 -4.25179e-13 -2.50458e-10 0.999265)
(1.00213 0.0016951 1.43981e-11 -0.00216491 0.999363 1.33993e-11 -9.07996e-13 4.30898e-11 0.999272)
(1.00206 0.0018567 -4.07933e-11 -0.00234464 0.999382 1.30032e-11 -1.74989e-12 2.30013e-10 0.99928)
(1.002 0.00203828 1.09512e-10 -0.00252661 0.999403 -3.65377e-11 -1.87231e-12 3.76067e-11 0.999287)
(1.00193 0.00216928 -1.54292e-10 -0.00266081 0.999423 3.22434e-11 -1.08382e-12 -6.59089e-11 0.999296)
(1.00256 7.64346e-05 3.41177e-12 -0.000106141 0.999227 -7.19231e-11 -4.64064e-14 -2.62698e-11 0.999227)
(1.00252 0.000185089 1.27432e-11 -0.000257878 0.999237 -4.31159e-12 -1.08172e-13 1.80663e-11 0.999235)
(1.0025 0.000307317 9.93057e-12 -0.00042136 0.999241 -2.80037e-11 -2.01387e-13 -1.66655e-11 0.999236)
(1.00249 0.000425941 -6.55357e-12 -0.000588114 0.999245 6.72335e-12 -2.02146e-13 -1.27465e-10 0.999238)
(1.00246 0.000556722 -2.02228e-11 -0.000758822 0.999253 4.18547e-11 -3.08467e-13 4.93125e-11 0.99924)
(1.00244 0.000682774 8.6549e-12 -0.000931289 0.999261 -1.21721e-11 -6.31054e-13 2.42391e-10 0.999244)
(1.0024 0.000823186 4.1685e-11 -0.00110892 0.999272 -4.70057e-11 -6.22154e-13 3.62431e-11 0.999247)
(1.00236 0.000958746 1.24613e-11 -0.00128711 0.999284 -1.84986e-11 -3.30738e-13 -2.43259e-10 0.999251)
(1.00232 0.00111114 -1.20865e-11 -0.0014719 0.999299 2.61448e-11 -4.49214e-13 -4.74081e-11 0.999255)
(1.00227 0.00125677 1.46429e-11 -0.00165446 0.999313 -6.05917e-12 -1.15956e-12 2.38178e-10 0.999261)
(1.00222 0.00142259 1.89981e-11 -0.00184494 0.999331 -3.003e-11 -1.03466e-12 -4.23824e-11 0.999267)
(1.00216 0.00157721 -6.86917e-12 -0.00202854 0.999348 5.49239e-12 -4.20725e-13 -2.47753e-10 0.999274)
(1.0021 0.00175636 1.33272e-11 -0.00222158 0.999368 1.29987e-11 -9.09901e-13 4.26203e-11 0.99928)
(1.00204 0.00191844 -4.0547e-11 -0.00240221 0.999386 1.3026e-11 -1.75655e-12 2.27484e-10 0.999288)
(1.00198 0.00209991 1.10987e-10 -0.00258455 0.999407 -3.61025e-11 -1.87576e-12 3.72153e-11 0.999295)
(1.00192 0.00222999 -1.53527e-10 -0.00272014 0.999425 3.22668e-11 -1.08391e-12 -6.51364e-11 0.999304)
(1.00252 8.06102e-05 3.55898e-12 -0.000110481 0.999235 -7.11007e-11 -4.64071e-14 -2.59777e-11 0.999235)
(1.00248 0.000194196 1.33404e-11 -0.000267485 0.999246 -4.24907e-12 -1.08381e-13 1.78513e-11 0.999244)
(1.00247 0.000322554 1.0325e-11 -0.000436877 0.99925 -2.76577e-11 -2.01459e-13 -1.64548e-11 0.999246)
(1.00245 0.000446669 -6.92331e-12 -0.000609405 0.999254 6.63603e-12 -2.01197e-13 -1.25935e-10 0.999247)
(1.00243 0.000583393 -2.12245e-11 -0.000785663 0.999262 4.13271e-11 -3.0943e-13 4.87187e-11 0.99925)
(1.0024 0.000714753 9.13627e-12 -0.000963289 0.99927 -1.20244e-11 -6.35004e-13 2.39421e-10 0.999253)
(1.00237 0.000860622 4.35623e-11 -0.00114572 0.999281 -4.63626e-11 -6.23322e-13 3.58067e-11 0.999256)
(1.00233 0.00100097 1.3156e-11 -0.00132815 0.999292 -1.82954e-11 -3.27067e-13 -2.4022e-10 0.99926)
(1.00229 0.00115805 -1.28916e-11 -0.0015167 0.999307 2.56804e-11 -4.49103e-13 -4.6904e-11 0.999265)
(1.00224 0.00130748 1.50004e-11 -0.00170237 0.999321 -5.99682e-12 -1.16505e-12 2.35286e-10 0.99927)
(1.00219 0.0014768 2.05061e-11 -0.00189539 0.999338 -2.94774e-11 -1.03505e-12 -4.1771e-11 0.999276)
(1.00214 0.00163369 -7.05135e-12 -0.00208089 0.999355 5.45956e-12 -4.17226e-13 -2.44908e-10 0.999282)
(1.00208 0.00181461 1.22713e-11 -0.00227517 0.999374 1.2617e-11 -9.11614e-13 4.2129e-11 0.999288)
(1.00202 0.00197695 -4.03155e-11 -0.00245666 0.999391 1.30486e-11 -1.76222e-12 2.24845e-10 0.999296)
(1.00196 0.00215824 1.12392e-10 -0.00263938 0.99941 -3.57063e-11 -1.87909e-12 3.68077e-11 0.999303)
(1.0019 0.00228749 -1.52807e-10 -0.0027764 0.999427 3.2291e-11 -1.08435e-12 -6.43308e-11 0.999311)
(1.00248 8.47211e-05 3.75387e-12 -0.000114603 0.999244 -7.01982e-11 -4.64124e-14 -2.56549e-11 0.999244)
(1.00244 0.000203036 1.39311e-11 -0.000276636 0.999256 -4.18559e-12 -1.08571e-13 1.76176e-11 0.999254)
(1.00243 0.000337351 1.07115e-11 -0.000451656 0.99926 -2.72833e-11 -2.01532e-13 -1.62268e-11 0.999256)
(1.00242 0.000466762 -7.27476e-12 -0.000629679 0.999264 6.54395e-12 -2.00411e-13 -1.24284e-10 0.999257)
(1.00239 0.000609205 -2.21883e-11 -0.000811212 0.999272 4.07573e-11 -3.10291e-13 4.80796e-11 0.99926)
(1.00237 0.000745638 9.60561e-12 -0.000993736 0.99928 -1.18694e-11 -6.38401e-13 2.36237e-10 0.999263)
(1.00233 0.000896687 4.53755e-11 -0.00118071 0.99929 -4.56851e-11 -6.24373e-13 3.53409e-11 0.999266)
(1.0023 0.00104154 1.38303e-11 -0.00136716 0.999301 -1.80802e-11 -3.24055e-13 -2.3699e-10 0.99927)
(1.00226 0.00120299 -1.36828e-11 -0.00155928 0.999315 2.51958e-11 -4.4909e-13 -4.63711e-11 0.999274)
(1.00221 0.00135593 1.5339e-11 -0.00174789 0.999329 -5.93372e-12 -1.16976e-12 2.32242e-10 0.99928)
(1.00216 0.00152844 2.19681e-11 -0.00194332 0.999345 -2.89238e-11 -1.0356e-12 -4.11305e-11 0.999285)
(1.00211 0.00168734 -7.23338e-12 -0.00213061 0.999361 5.42451e-12 -4.1451e-13 -2.41938e-10 0.999291)
(1.00206 0.00186983 1.12588e-11 -0.00232608 0.999379 1.22495e-11 -9.13155e-13 4.16179e-11 0.999297)
(1.002 0.00203234 -4.00927e-11 -0.0025084 0.999395 1.3071e-11 -1.76708e-12 2.22104e-10 0.999305)
(1.00195 0.00221348 1.1371e-10 -0.00269149 0.999413 -3.53382e-11 -1.88229e-12 3.63851e-11 0.999311)
(1.00189 0.0023421 -1.52137e-10 -0.00282996 0.999429 3.23159e-11 -1.08503e-12 -6.34945e-11 0.999319)
(1.00245 8.87245e-05 3.93963e-12 -0.000118531 0.999255 -6.9227e-11 -4.6421e-14 -2.53059e-11 0.999255)
(1.00241 0.0002116 1.44999e-11 -0.0002854 0.999267 -4.12177e-12 -1.08746e-13 1.7371e-11 0.999265)
(1.00239 0.000351687 1.10754e-11 -0.000465808 0.99927 -2.68886e-11 -2.01611e-13 -1.59868e-11 0.999266)
(1.00238 0.000486208 -7.61303e-12 -0.000649086 0.999275 6.44862e-12 -1.99783e-13 -1.2255e-10 0.999268)
(1.00236 0.000634149 -2.31251e-11 -0.000835662 0.999282 4.01555e-11 -3.11058e-13 4.74099e-11 0.99927)
(1.00233 0.000775444 1.00557e-11 -0.00102286 0.999289 -1.17103e-11 -6.41285e-13 2.3291e-10 0.999273)
(1.0023 0.000931415 4.71363e-11 -0.00121417 0.9993 -4.49825e-11 -6.25322e-13 3.48558e-11 0.999276)
(1.00227 0.00108053 1.44835e-11 -0.00140444 0.99931 -1.78596e-11 -3.21689e-13 -2.33638e-10 0.99928)
(1.00223 0.00124607 -1.44737e-11 -0.00159995 0.999324 2.46941e-11 -4.49176e-13 -4.582e-11 0.999284)
(1.00218 0.00140228 1.56643e-11 -0.00179135 0.999337 -5.87078e-12 -1.17371e-12 2.29104e-10 0.99929)
(1.00214 0.00157774 2.33998e-11 -0.00198907 0.999352 -2.83709e-11 -1.03632e-12 -4.04724e-11 0.999294)
(1.00209 0.00173847 -7.40695e-12 -0.00217806 0.999367 5.38958e-12 -4.12604e-13 -2.38895e-10 0.999301)
(1.00204 0.00192238 1.02776e-11 -0.00237466 0.999384 1.18961e-11 -9.14533e-13 4.10955e-11 0.999306)
(1.00198 0.00208502 -3.98839e-11 -0.00255778 0.9994 1.30932e-11 -1.77114e-12 2.19304e-10 0.999313)
(1.00193 0.00226606 1.14953e-10 -0.00274125 0.999417 -3.49959e-11 -1.8854e-12 3.59537e-11 0.99932)
(1.00188 0.00239422 -1.51509e-10 -0.00288117 0.999432 3.2342e-11 -1.08597e-12 -6.264e-11 0.999327)