/*--------------------------------*- C++ -*----------------------------------*\
| =========                 |                                                 |
| \\      /  F ield         | foam-extend: Open Source CFD                    |
|  \\    /   O peration     | Version:     4.1-20200408                       |
|   \\  /    A nd           | Web:         http://www.foam-extend.org         |
|    \\/     M anipulation  |                                                 |
\*---------------------------------------------------------------------------*/
FoamFile
{
    version     2.0;
    format      ascii;
    class       volScalarField::DimensionedInternalField;
    location    "0.0070000";
    object      V0;
}
// * * * * * * * * * * * * * * * * * * * * * * * * * * * * * * * * * * * * * //

dimensions      [0 3 0 0 0 0 0];

value           nonuniform List<scalar> 
1952
(
1.43753e-14
2.39589e-14
3.35426e-14
4.31258e-14
5.27101e-14
6.22934e-14
7.18779e-14
8.14619e-14
9.10448e-14
1.0063e-13
1.10213e-13
1.19795e-13
1.29377e-13
1.38955e-13
1.48524e-13
4.79179e-15
1.43749e-14
2.39582e-14
3.35416e-14
4.31245e-14
5.27085e-14
6.22914e-14
7.18755e-14
8.1459e-14
9.10414e-14
1.00626e-13
1.10208e-13
1.1979e-13
1.29371e-13
1.3895e-13
1.48521e-13
4.79166e-15
1.43746e-14
2.39577e-14
3.35408e-14
4.31235e-14
5.27072e-14
6.22898e-14
7.18736e-14
8.14568e-14
9.10389e-14
1.00623e-13
1.10205e-13
1.19786e-13
1.29368e-13
1.38947e-13
1.4852e-13
4.79155e-15
1.21968e-14
2.03284e-14
2.84605e-14
3.6593e-14
4.47272e-14
5.28616e-14
6.09982e-14
6.91356e-14
7.72733e-14
8.54143e-14
9.35549e-14
1.01696e-13
1.09838e-13
1.17979e-13
1.26113e-13
4.06559e-15
1.41016e-14
2.35027e-14
3.29039e-14
4.23048e-14
5.17068e-14
6.11079e-14
7.05103e-14
7.99123e-14
8.93134e-14
9.87168e-14
1.08119e-13
1.1752e-13
1.26923e-13
1.36323e-13
1.45719e-13
4.70054e-15
1.43186e-14
2.38644e-14
3.34102e-14
4.29557e-14
5.25023e-14
6.2048e-14
7.1595e-14
8.11416e-14
9.06873e-14
1.00235e-13
1.09782e-13
1.19329e-13
1.28877e-13
1.38424e-13
1.47967e-13
4.77288e-15
1.43411e-14
2.3902e-14
3.34629e-14
4.30235e-14
5.25851e-14
6.21459e-14
7.1708e-14
8.12698e-14
9.08308e-14
1.00394e-13
1.09957e-13
1.19518e-13
1.29083e-13
1.38645e-13
1.48204e-13
4.7804e-15
1.43431e-14
2.39053e-14
3.34676e-14
4.30295e-14
5.25926e-14
6.21548e-14
7.17184e-14
8.12817e-14
9.08444e-14
1.00409e-13
1.09974e-13
1.19537e-13
1.29104e-13
1.38668e-13
1.48229e-13
4.78107e-15
1.43431e-14
2.39053e-14
3.34676e-14
4.30296e-14
5.25928e-14
6.21551e-14
7.17188e-14
8.12823e-14
9.08452e-14
1.00411e-13
1.09975e-13
1.19539e-13
1.29106e-13
1.38671e-13
1.48232e-13
4.78107e-15
1.43428e-14
2.39048e-14
3.3467e-14
4.30288e-14
5.25918e-14
6.21541e-14
7.17178e-14
8.12813e-14
9.08442e-14
1.0041e-13
1.09974e-13
1.19539e-13
1.29106e-13
1.38671e-13
1.48232e-13
4.78098e-15
1.43425e-14
2.39044e-14
3.34663e-14
4.3028e-14
5.25909e-14
6.2153e-14
7.17167e-14
8.12801e-14
9.0843e-14
1.00409e-13
1.09973e-13
1.19538e-13
1.29105e-13
1.3867e-13
1.48231e-13
4.78088e-15
1.43423e-14
2.3904e-14
3.34659e-14
4.30274e-14
5.25903e-14
6.21524e-14
7.1716e-14
8.12794e-14
9.08424e-14
1.00408e-13
1.09973e-13
1.19537e-13
1.29105e-13
1.3867e-13
1.48231e-13
4.78081e-15
1.43421e-14
2.39036e-14
3.34653e-14
4.30268e-14
5.25895e-14
6.21515e-14
7.1715e-14
8.12784e-14
9.08414e-14
1.00407e-13
1.09972e-13
1.19536e-13
1.29104e-13
1.38669e-13
1.4823e-13
4.78073e-15
1.43419e-14
2.39033e-14
3.3465e-14
4.30263e-14
5.2589e-14
6.21509e-14
7.17144e-14
8.12778e-14
9.08408e-14
1.00406e-13
1.09971e-13
1.19536e-13
1.29103e-13
1.38668e-13
1.48229e-13
4.78068e-15
1.43417e-14
2.3903e-14
3.34646e-14
4.30258e-14
5.25884e-14
6.21503e-14
7.17137e-14
8.1277e-14
9.084e-14
1.00406e-13
1.0997e-13
1.19535e-13
1.29102e-13
1.38667e-13
1.48228e-13
4.78061e-15
1.43416e-14
2.39028e-14
3.34642e-14
4.30254e-14
5.25879e-14
6.21497e-14
7.17131e-14
8.12764e-14
9.08393e-14
1.00405e-13
1.0997e-13
1.19534e-13
1.29101e-13
1.38666e-13
1.48227e-13
4.78057e-15
1.43414e-14
2.39026e-14
3.34639e-14
4.3025e-14
5.25875e-14
6.21492e-14
7.17126e-14
8.12758e-14
9.08387e-14
1.00404e-13
1.09969e-13
1.19533e-13
1.291e-13
1.38665e-13
1.48226e-13
4.78052e-15
1.43413e-14
2.39024e-14
3.34637e-14
4.30247e-14
5.25871e-14
6.21487e-14
7.1712e-14
8.12752e-14
9.0838e-14
1.00403e-13
1.09968e-13
1.19532e-13
1.29099e-13
1.38664e-13
1.48224e-13
4.78048e-15
1.43412e-14
2.39022e-14
3.34634e-14
4.30243e-14
5.25866e-14
6.21482e-14
7.17115e-14
8.12746e-14
9.08373e-14
1.00403e-13
1.09967e-13
1.19531e-13
1.29098e-13
1.38662e-13
1.48223e-13
4.78044e-15
1.43411e-14
2.3902e-14
3.34631e-14
4.3024e-14
5.25863e-14
6.21478e-14
7.1711e-14
8.1274e-14
9.08367e-14
1.00402e-13
1.09966e-13
1.1953e-13
1.29097e-13
1.38661e-13
1.48221e-13
4.78041e-15
1.4341e-14
2.39018e-14
3.34629e-14
4.30237e-14
5.25859e-14
6.21474e-14
7.17105e-14
8.12734e-14
9.0836e-14
1.00401e-13
1.09965e-13
1.19529e-13
1.29096e-13
1.3866e-13
1.48219e-13
4.78037e-15
1.43409e-14
2.39017e-14
3.34627e-14
4.30234e-14
5.25856e-14
6.2147e-14
7.171e-14
8.12729e-14
9.08354e-14
1.004e-13
1.09965e-13
1.19528e-13
1.29094e-13
1.38658e-13
1.48218e-13
4.78034e-15
1.43408e-14
2.39015e-14
3.34625e-14
4.30231e-14
5.25852e-14
6.21466e-14
7.17095e-14
8.12723e-14
9.08347e-14
1.004e-13
1.09964e-13
1.19527e-13
1.29093e-13
1.38657e-13
1.48216e-13
4.78031e-15
1.43407e-14
2.39013e-14
3.34622e-14
4.30229e-14
5.25849e-14
6.21462e-14
7.17091e-14
8.12718e-14
9.08341e-14
1.00399e-13
1.09963e-13
1.19526e-13
1.29092e-13
1.38655e-13
1.48214e-13
4.78028e-15
1.43406e-14
2.39012e-14
3.3462e-14
4.30226e-14
5.25845e-14
6.21457e-14
7.17086e-14
8.12712e-14
9.08334e-14
1.00398e-13
1.09962e-13
1.19525e-13
1.29091e-13
1.38654e-13
1.48213e-13
4.78025e-15
1.43405e-14
2.3901e-14
3.34618e-14
4.30223e-14
5.25842e-14
6.21453e-14
7.17081e-14
8.12706e-14
9.08327e-14
1.00397e-13
1.09961e-13
1.19524e-13
1.29089e-13
1.38653e-13
1.48211e-13
4.78022e-15
1.43404e-14
2.39009e-14
3.34616e-14
4.3022e-14
5.25838e-14
6.21449e-14
7.17076e-14
8.127e-14
9.08321e-14
1.00397e-13
1.0996e-13
1.19523e-13
1.29088e-13
1.38651e-13
1.4821e-13
4.78019e-15
1.43403e-14
2.39007e-14
3.34613e-14
4.30217e-14
5.25834e-14
6.21444e-14
7.17071e-14
8.12694e-14
9.08314e-14
1.00396e-13
1.09959e-13
1.19522e-13
1.29087e-13
1.3865e-13
1.48208e-13
4.78015e-15
1.43402e-14
2.39005e-14
3.3461e-14
4.30213e-14
5.2583e-14
6.21439e-14
7.17065e-14
8.12688e-14
9.08307e-14
1.00395e-13
1.09958e-13
1.19521e-13
1.29086e-13
1.38649e-13
1.48207e-13
4.78011e-15
1.434e-14
2.39002e-14
3.34607e-14
4.30209e-14
5.25825e-14
6.21434e-14
7.17059e-14
8.12681e-14
9.083e-14
1.00394e-13
1.09958e-13
1.1952e-13
1.29085e-13
1.38648e-13
1.48206e-13
4.78006e-15
1.43399e-14
2.39e-14
3.34604e-14
4.30205e-14
5.2582e-14
6.21428e-14
7.17053e-14
8.12674e-14
9.08293e-14
1.00393e-13
1.09957e-13
1.19519e-13
1.29084e-13
1.38647e-13
1.48205e-13
4.78001e-15
1.43397e-14
2.38997e-14
3.34599e-14
4.30199e-14
5.25814e-14
6.21421e-14
7.17045e-14
8.12666e-14
9.08284e-14
1.00393e-13
1.09956e-13
1.19518e-13
1.29083e-13
1.38646e-13
1.48204e-13
4.77995e-15
1.43395e-14
2.38993e-14
3.34595e-14
4.30194e-14
5.25807e-14
6.21413e-14
7.17037e-14
8.12658e-14
9.08276e-14
1.00392e-13
1.09955e-13
1.19518e-13
1.29083e-13
1.38645e-13
1.48203e-13
4.77987e-15
1.43392e-14
2.38989e-14
3.34589e-14
4.30186e-14
5.25799e-14
6.21404e-14
7.17027e-14
8.12648e-14
9.08266e-14
1.00391e-13
1.09954e-13
1.19517e-13
1.29082e-13
1.38645e-13
1.48203e-13
4.77978e-15
1.43389e-14
2.38984e-14
3.34582e-14
4.30178e-14
5.25789e-14
6.21393e-14
7.17016e-14
8.12636e-14
9.08256e-14
1.0039e-13
1.09953e-13
1.19516e-13
1.29082e-13
1.38645e-13
1.48203e-13
4.77968e-15
1.43385e-14
2.38978e-14
3.34574e-14
4.30168e-14
5.25777e-14
6.21381e-14
7.17003e-14
8.12623e-14
9.08244e-14
1.00389e-13
1.09953e-13
1.19516e-13
1.29081e-13
1.38645e-13
1.48203e-13
4.77955e-15
1.43381e-14
2.3897e-14
3.34564e-14
4.30155e-14
5.25763e-14
6.21365e-14
7.16987e-14
8.12607e-14
9.08229e-14
1.00387e-13
1.09952e-13
1.19515e-13
1.29081e-13
1.38645e-13
1.48204e-13
4.7794e-15
1.43375e-14
2.38961e-14
3.34552e-14
4.30141e-14
5.25747e-14
6.21347e-14
7.16969e-14
8.12589e-14
9.08212e-14
1.00386e-13
1.0995e-13
1.19514e-13
1.29081e-13
1.38645e-13
1.48205e-13
4.77922e-15
1.43369e-14
2.38951e-14
3.34538e-14
4.30124e-14
5.25727e-14
6.21326e-14
7.16946e-14
8.12566e-14
9.08191e-14
1.00384e-13
1.09949e-13
1.19513e-13
1.29081e-13
1.38646e-13
1.48206e-13
4.77901e-15
1.43361e-14
2.38939e-14
3.34521e-14
4.30103e-14
5.25703e-14
6.21299e-14
7.16918e-14
8.12538e-14
9.08165e-14
1.00382e-13
1.09947e-13
1.19512e-13
1.29081e-13
1.38647e-13
1.48208e-13
4.77876e-15
1.43353e-14
2.38924e-14
3.34501e-14
4.30078e-14
5.25674e-14
6.21267e-14
7.16885e-14
8.12504e-14
9.08133e-14
1.00379e-13
1.09945e-13
1.19511e-13
1.29081e-13
1.38648e-13
1.48211e-13
4.77846e-15
1.43342e-14
2.38907e-14
3.34478e-14
4.3005e-14
5.2564e-14
6.2123e-14
7.16845e-14
8.12464e-14
9.08094e-14
1.00375e-13
1.09942e-13
1.19509e-13
1.2908e-13
1.38649e-13
1.48214e-13
4.77812e-15
1.4333e-14
2.38887e-14
3.3445e-14
4.30015e-14
5.256e-14
6.21184e-14
7.16796e-14
8.12413e-14
9.08044e-14
1.00371e-13
1.09939e-13
1.19506e-13
1.29079e-13
1.3865e-13
1.48217e-13
4.77771e-15
1.43316e-14
2.38865e-14
3.34419e-14
4.29976e-14
5.25553e-14
6.21131e-14
7.16737e-14
8.12351e-14
9.07983e-14
1.00365e-13
1.09934e-13
1.19502e-13
1.29078e-13
1.3865e-13
1.48221e-13
4.77726e-15
1.433e-14
2.38838e-14
3.34382e-14
4.29929e-14
5.25497e-14
6.21067e-14
7.16666e-14
8.12276e-14
9.07905e-14
1.00357e-13
1.09927e-13
1.19497e-13
1.29075e-13
1.3865e-13
1.48225e-13
4.77673e-15
1.43282e-14
2.38808e-14
3.3434e-14
4.29876e-14
5.25432e-14
6.20991e-14
7.16581e-14
8.12183e-14
9.07808e-14
1.00347e-13
1.09918e-13
1.19489e-13
1.2907e-13
1.38648e-13
1.48229e-13
4.77613e-15
1.43262e-14
2.38775e-14
3.34292e-14
4.29814e-14
5.25356e-14
6.20903e-14
7.1648e-14
8.12071e-14
9.07687e-14
1.00335e-13
1.09905e-13
1.19477e-13
1.29061e-13
1.38644e-13
1.48233e-13
4.77546e-15
1.43241e-14
2.38739e-14
3.34242e-14
4.29749e-14
5.25275e-14
6.20806e-14
7.16367e-14
8.11944e-14
9.07545e-14
1.00319e-13
1.09889e-13
1.19461e-13
1.29047e-13
1.38634e-13
1.48235e-13
4.77475e-15
1.43216e-14
2.38696e-14
3.34182e-14
4.2967e-14
5.25177e-14
6.20689e-14
7.16228e-14
8.11784e-14
9.07362e-14
1.00299e-13
1.09867e-13
1.19438e-13
1.29024e-13
1.38613e-13
1.48221e-13
4.77391e-15
1.43189e-14
2.38651e-14
3.34117e-14
4.29586e-14
5.25071e-14
6.2056e-14
7.16073e-14
8.11603e-14
9.07152e-14
1.00275e-13
1.0984e-13
1.19409e-13
1.28992e-13
1.38579e-13
1.48186e-13
4.77303e-15
1.43161e-14
2.38605e-14
3.3405e-14
4.29497e-14
5.24958e-14
6.20421e-14
7.15905e-14
8.11403e-14
9.06914e-14
1.00248e-13
1.09808e-13
1.19372e-13
1.2895e-13
1.38531e-13
1.48131e-13
4.77211e-15
1.4313e-14
2.38553e-14
3.33976e-14
4.29398e-14
5.24833e-14
6.20265e-14
7.15714e-14
8.11174e-14
9.06637e-14
1.00215e-13
1.09769e-13
1.19326e-13
1.28896e-13
1.38467e-13
1.48057e-13
4.7711e-15
1.431e-14
2.38502e-14
3.33902e-14
4.293e-14
5.24706e-14
6.20107e-14
7.15518e-14
8.10935e-14
9.06345e-14
1.0018e-13
1.09726e-13
1.19274e-13
1.28833e-13
1.38393e-13
1.47968e-13
4.7701e-15
1.43066e-14
2.38443e-14
3.33819e-14
4.29188e-14
5.24563e-14
6.19928e-14
7.15297e-14
8.10665e-14
9.06013e-14
1.0014e-13
1.09676e-13
1.19214e-13
1.28758e-13
1.38303e-13
1.47858e-13
4.76897e-15
1.43035e-14
2.3839e-14
3.33742e-14
4.29086e-14
5.24431e-14
6.19762e-14
7.15089e-14
8.10408e-14
9.05694e-14
1.001e-13
1.09627e-13
1.19153e-13
1.2868e-13
1.38206e-13
1.47737e-13
4.76794e-15
1.43013e-14
2.38353e-14
3.33688e-14
4.29012e-14
5.24334e-14
6.19637e-14
7.1493e-14
8.10206e-14
9.05435e-14
1.00067e-13
1.09584e-13
1.19098e-13
1.28607e-13
1.38113e-13
1.47612e-13
4.76722e-15
1.42989e-14
2.38311e-14
3.33627e-14
4.2893e-14
5.24228e-14
6.19503e-14
7.14761e-14
8.09995e-14
9.05171e-14
1.00034e-13
1.09541e-13
1.19043e-13
1.28533e-13
1.38014e-13
1.47473e-13
4.7664e-15
1.42966e-14
2.38272e-14
3.33571e-14
4.28855e-14
5.24132e-14
6.19381e-14
7.1461e-14
8.09808e-14
9.04938e-14
1.00005e-13
1.09504e-13
1.18996e-13
1.2847e-13
1.37928e-13
1.47341e-13
4.76565e-15
1.42947e-14
2.3824e-14
3.33525e-14
4.28793e-14
5.24052e-14
6.19281e-14
7.14488e-14
8.09657e-14
9.04755e-14
9.99827e-14
1.09477e-13
1.18962e-13
1.28426e-13
1.3787e-13
1.4725e-13
4.76502e-15
1.42931e-14
2.38214e-14
3.33487e-14
4.28743e-14
5.2399e-14
6.19204e-14
7.14395e-14
8.09545e-14
9.04623e-14
9.9967e-14
1.09459e-13
1.18941e-13
1.28402e-13
1.37845e-13
1.47231e-13
4.76451e-15
1.4292e-14
2.38194e-14
3.3346e-14
4.28707e-14
5.23946e-14
6.19151e-14
7.14333e-14
8.09474e-14
9.04546e-14
9.99586e-14
1.09451e-13
1.18934e-13
1.284e-13
1.37853e-13
1.47267e-13
4.76412e-15
1.42913e-14
2.38183e-14
3.33444e-14
4.28687e-14
5.23922e-14
6.19124e-14
7.14305e-14
8.09447e-14
9.04526e-14
9.99577e-14
1.09453e-13
1.1894e-13
1.28415e-13
1.37883e-13
1.47324e-13
4.76389e-15
1.4291e-14
2.38178e-14
3.33437e-14
4.2868e-14
5.23916e-14
6.19119e-14
7.14307e-14
8.09457e-14
9.04553e-14
9.99628e-14
1.09462e-13
1.18956e-13
1.28441e-13
1.37922e-13
1.47385e-13
4.76378e-15
1.4291e-14
2.38179e-14
3.3344e-14
4.28685e-14
5.23925e-14
6.19135e-14
7.14334e-14
8.09498e-14
9.04619e-14
9.99725e-14
1.09477e-13
1.18977e-13
1.28472e-13
1.37965e-13
1.47447e-13
4.76379e-15
1.42914e-14
2.38185e-14
3.33451e-14
4.28701e-14
5.23949e-14
6.19169e-14
7.14382e-14
8.09565e-14
9.04714e-14
9.99855e-14
1.09495e-13
1.19001e-13
1.28506e-13
1.38009e-13
1.47505e-13
4.76392e-15
1.42919e-14
2.38196e-14
3.33466e-14
4.28723e-14
5.2398e-14
6.19213e-14
7.14442e-14
8.09646e-14
9.04824e-14
1e-13
1.09514e-13
1.19027e-13
1.28539e-13
1.38051e-13
1.47557e-13
4.7641e-15
1.42929e-14
2.38212e-14
3.3349e-14
4.28757e-14
5.24025e-14
6.19272e-14
7.1452e-14
8.09747e-14
9.04954e-14
1.00017e-13
1.09536e-13
1.19053e-13
1.28573e-13
1.38091e-13
1.47606e-13
4.7644e-15
1.42946e-14
2.38242e-14
3.33534e-14
4.28815e-14
5.24101e-14
6.19367e-14
7.14638e-14
8.09892e-14
9.05132e-14
1.00038e-13
1.09562e-13
1.19084e-13
1.2861e-13
1.38135e-13
1.47657e-13
4.76499e-15
1.42958e-14
2.38261e-14
3.33562e-14
4.28854e-14
5.24152e-14
6.19433e-14
7.14722e-14
8.09998e-14
9.05263e-14
1.00054e-13
1.09582e-13
1.19108e-13
1.28638e-13
1.38168e-13
1.47695e-13
4.76536e-15
1.42973e-14
2.38287e-14
3.336e-14
4.28905e-14
5.24218e-14
6.19515e-14
7.14824e-14
8.10121e-14
9.05412e-14
1.00072e-13
1.09603e-13
1.19132e-13
1.28667e-13
1.382e-13
1.47731e-13
4.76587e-15
1.42989e-14
2.38314e-14
3.33639e-14
4.28957e-14
5.24284e-14
6.19598e-14
7.14924e-14
8.10242e-14
9.05555e-14
1.00089e-13
1.09622e-13
1.19155e-13
1.28693e-13
1.38229e-13
1.47764e-13
4.76639e-15
1.43005e-14
2.38341e-14
3.33678e-14
4.29008e-14
5.24349e-14
6.19678e-14
7.15021e-14
8.10357e-14
9.05691e-14
1.00105e-13
1.0964e-13
1.19176e-13
1.28716e-13
1.38255e-13
1.47792e-13
4.76692e-15
1.43021e-14
2.38369e-14
3.33718e-14
4.29061e-14
5.24415e-14
6.19759e-14
7.15118e-14
8.10471e-14
9.05824e-14
1.0012e-13
1.09658e-13
1.19195e-13
1.28737e-13
1.38278e-13
1.47817e-13
4.76746e-15
1.43037e-14
2.38395e-14
3.33755e-14
4.29109e-14
5.24476e-14
6.19833e-14
7.15206e-14
8.10575e-14
9.05943e-14
1.00134e-13
1.09673e-13
1.19212e-13
1.28756e-13
1.38299e-13
1.47839e-13
4.76797e-15
1.43053e-14
2.38423e-14
3.33794e-14
4.2916e-14
5.2454e-14
6.1991e-14
7.15297e-14
8.1068e-14
9.06064e-14
1.00147e-13
1.09688e-13
1.19229e-13
1.28774e-13
1.38318e-13
1.4786e-13
4.76852e-15
1.43069e-14
2.38449e-14
3.33831e-14
4.29209e-14
5.246e-14
6.19982e-14
7.15382e-14
8.10778e-14
9.06175e-14
1.0016e-13
1.09702e-13
1.19244e-13
1.2879e-13
1.38335e-13
1.47878e-13
4.76905e-15
1.43084e-14
2.38474e-14
3.33866e-14
4.29255e-14
5.24657e-14
6.2005e-14
7.1546e-14
8.10868e-14
9.06276e-14
1.00171e-13
1.09714e-13
1.19257e-13
1.28805e-13
1.3835e-13
1.47893e-13
4.76954e-15
1.43098e-14
2.38498e-14
3.339e-14
4.29298e-14
5.2471e-14
6.20114e-14
7.15534e-14
8.10952e-14
9.0637e-14
1.00181e-13
1.09726e-13
1.19269e-13
1.28818e-13
1.38364e-13
1.47907e-13
4.77002e-15
1.43113e-14
2.38524e-14
3.33936e-14
4.29345e-14
5.24767e-14
6.20181e-14
7.15612e-14
8.1104e-14
9.06469e-14
1.00192e-13
1.09737e-13
1.19282e-13
1.28831e-13
1.38378e-13
1.47921e-13
4.77052e-15
1.43127e-14
2.38546e-14
3.33967e-14
4.29385e-14
5.24816e-14
6.20238e-14
7.15678e-14
8.11115e-14
9.06552e-14
1.00201e-13
1.09747e-13
1.19292e-13
1.28842e-13
1.38389e-13
1.47933e-13
4.77097e-15
1.43139e-14
2.38567e-14
3.33997e-14
4.29422e-14
5.24862e-14
6.20293e-14
7.15741e-14
8.11185e-14
9.06629e-14
1.0021e-13
1.09756e-13
1.19302e-13
1.28852e-13
1.384e-13
1.47944e-13
4.77139e-15
1.43151e-14
2.38587e-14
3.34024e-14
4.29458e-14
5.24905e-14
6.20343e-14
7.15799e-14
8.1125e-14
9.06701e-14
1.00217e-13
1.09765e-13
1.19311e-13
1.28861e-13
1.38409e-13
1.47953e-13
4.77178e-15
1.43161e-14
2.38604e-14
3.34048e-14
4.29488e-14
5.24942e-14
6.20387e-14
7.15848e-14
8.11305e-14
9.06761e-14
1.00224e-13
1.09771e-13
1.19318e-13
1.28869e-13
1.38417e-13
1.47961e-13
4.77212e-15
1.43172e-14
2.38621e-14
3.34072e-14
4.29519e-14
5.24979e-14
6.20431e-14
7.15898e-14
8.11361e-14
9.06822e-14
1.00231e-13
1.09779e-13
1.19326e-13
1.28876e-13
1.38425e-13
1.47969e-13
4.77247e-15
1.43182e-14
2.38638e-14
3.34096e-14
4.2955e-14
5.25016e-14
6.20474e-14
7.15947e-14
8.11416e-14
9.06882e-14
1.00237e-13
1.09785e-13
1.19333e-13
1.28884e-13
1.38432e-13
1.47977e-13
4.77281e-15
1.43191e-14
2.38653e-14
3.34117e-14
4.29577e-14
5.25049e-14
6.20512e-14
7.1599e-14
8.11464e-14
9.06935e-14
1.00243e-13
1.09791e-13
1.19339e-13
1.2889e-13
1.38439e-13
1.47983e-13
4.77312e-15
1.432e-14
2.38668e-14
3.34137e-14
4.29602e-14
5.2508e-14
6.20548e-14
7.16032e-14
8.1151e-14
9.06985e-14
1.00248e-13
1.09797e-13
1.19345e-13
1.28897e-13
1.38445e-13
1.4799e-13
4.77341e-15
1.43208e-14
2.38681e-14
3.34155e-14
4.29626e-14
5.25108e-14
6.20581e-14
7.16069e-14
8.11551e-14
9.0703e-14
1.00253e-13
1.09802e-13
1.19351e-13
1.28902e-13
1.38451e-13
1.47996e-13
4.77367e-15
1.43215e-14
2.38692e-14
3.34172e-14
4.29646e-14
5.25133e-14
6.2061e-14
7.16101e-14
8.11587e-14
9.07069e-14
1.00257e-13
1.09807e-13
1.19355e-13
1.28907e-13
1.38456e-13
1.48e-13
4.77391e-15
1.43222e-14
2.38704e-14
3.34187e-14
4.29666e-14
5.25157e-14
6.20638e-14
7.16133e-14
8.11623e-14
9.07108e-14
1.00261e-13
1.09811e-13
1.1936e-13
1.28912e-13
1.38461e-13
1.48005e-13
4.77414e-15
1.43228e-14
2.38715e-14
3.34202e-14
4.29685e-14
5.2518e-14
6.20665e-14
7.16164e-14
8.11657e-14
9.07145e-14
1.00265e-13
1.09815e-13
1.19364e-13
1.28916e-13
1.38466e-13
1.4801e-13
4.77435e-15
1.43234e-14
2.38724e-14
3.34216e-14
4.29703e-14
5.25201e-14
6.20689e-14
7.16191e-14
8.11688e-14
9.07178e-14
1.00269e-13
1.09819e-13
1.19368e-13
1.2892e-13
1.3847e-13
1.48015e-13
4.77455e-15
1.4324e-14
2.38734e-14
3.34229e-14
4.29719e-14
5.2522e-14
6.20712e-14
7.16217e-14
8.11716e-14
9.07209e-14
1.00272e-13
1.09823e-13
1.19372e-13
1.28924e-13
1.38474e-13
1.48018e-13
4.77474e-15
1.43245e-14
2.38742e-14
3.3424e-14
4.29734e-14
5.25238e-14
6.20733e-14
7.16241e-14
8.11742e-14
9.07238e-14
1.00275e-13
1.09826e-13
1.19375e-13
1.28928e-13
1.38478e-13
1.48022e-13
4.77491e-15
1.43249e-14
2.3875e-14
3.34251e-14
4.29747e-14
5.25255e-14
6.20752e-14
7.16263e-14
8.11766e-14
9.07264e-14
1.00278e-13
1.09829e-13
1.19379e-13
1.28931e-13
1.38481e-13
1.48026e-13
4.77506e-15
1.43254e-14
2.38757e-14
3.34261e-14
4.2976e-14
5.2527e-14
6.20769e-14
7.16282e-14
8.11788e-14
9.07288e-14
1.00281e-13
1.09832e-13
1.19381e-13
1.28934e-13
1.38484e-13
1.48029e-13
4.7752e-15
1.43258e-14
2.38763e-14
3.3427e-14
4.29772e-14
5.25284e-14
6.20786e-14
7.16301e-14
8.11809e-14
9.07311e-14
1.00283e-13
1.09834e-13
1.19384e-13
1.28937e-13
1.38487e-13
1.48032e-13
4.77534e-15
1.43261e-14
2.3877e-14
3.34279e-14
4.29783e-14
5.25298e-14
6.20802e-14
7.16319e-14
8.11829e-14
9.07332e-14
1.00285e-13
1.09837e-13
1.19387e-13
1.2894e-13
1.3849e-13
1.48035e-13
4.77546e-15
1.43265e-14
2.38775e-14
3.34287e-14
4.29793e-14
5.2531e-14
6.20816e-14
7.16335e-14
8.11847e-14
9.07352e-14
1.00288e-13
1.09839e-13
1.19389e-13
1.28942e-13
1.38492e-13
1.48038e-13
4.77558e-15
1.43268e-14
2.38781e-14
3.34294e-14
4.29803e-14
5.25322e-14
6.2083e-14
7.1635e-14
8.11864e-14
9.07371e-14
1.0029e-13
1.09841e-13
1.19392e-13
1.28945e-13
1.38495e-13
1.4804e-13
4.77569e-15
1.43271e-14
2.38786e-14
3.34302e-14
4.29812e-14
5.25333e-14
6.20843e-14
7.16366e-14
8.11881e-14
9.0739e-14
1.00292e-13
1.09843e-13
1.19394e-13
1.28947e-13
1.38498e-13
1.48043e-13
4.7758e-15
1.43274e-14
2.38791e-14
3.34309e-14
4.29821e-14
5.25343e-14
6.20855e-14
7.1638e-14
8.11897e-14
9.07407e-14
1.00294e-13
1.09845e-13
1.19396e-13
1.28949e-13
1.385e-13
1.48045e-13
4.77589e-15
1.43277e-14
2.38796e-14
3.34315e-14
4.29829e-14
5.25354e-14
6.20868e-14
7.16394e-14
8.11913e-14
9.07424e-14
1.00296e-13
1.09847e-13
1.19398e-13
1.28952e-13
1.38502e-13
1.48048e-13
4.77599e-15
1.4328e-14
2.38801e-14
3.34322e-14
4.29838e-14
5.25365e-14
6.2088e-14
7.16408e-14
8.11929e-14
9.07442e-14
1.00297e-13
1.0985e-13
1.194e-13
1.28954e-13
1.38505e-13
1.4805e-13
4.77609e-15
1.43284e-14
2.38807e-14
3.3433e-14
4.29848e-14
5.25377e-14
6.20895e-14
7.16425e-14
8.11948e-14
9.07463e-14
1.003e-13
1.09852e-13
1.19403e-13
1.28957e-13
1.38508e-13
1.48054e-13
4.77621e-15
1.43288e-14
2.38814e-14
3.3434e-14
4.29861e-14
5.25393e-14
6.20914e-14
7.16447e-14
8.11972e-14
9.0749e-14
1.00303e-13
1.09855e-13
1.19407e-13
1.28961e-13
1.38512e-13
1.48058e-13
4.77635e-15
1.4329e-14
2.38818e-14
3.34346e-14
4.29869e-14
5.25402e-14
6.20924e-14
7.16459e-14
8.11986e-14
9.07506e-14
1.00304e-13
1.09857e-13
1.19409e-13
1.28963e-13
1.38514e-13
1.48061e-13
4.77643e-15
1.43293e-14
2.38822e-14
3.34351e-14
4.29875e-14
5.2541e-14
6.20934e-14
7.1647e-14
8.11999e-14
9.0752e-14
1.00306e-13
1.09859e-13
1.19411e-13
1.28965e-13
1.38517e-13
1.48063e-13
4.77651e-15
1.43295e-14
2.38826e-14
3.34357e-14
4.29883e-14
5.25419e-14
6.20944e-14
7.16482e-14
8.12012e-14
9.07535e-14
1.00308e-13
1.09861e-13
1.19413e-13
1.28967e-13
1.38519e-13
1.48066e-13
4.77659e-15
1.43297e-14
2.38829e-14
3.34361e-14
4.29888e-14
5.25426e-14
6.20952e-14
7.16491e-14
8.12023e-14
9.07547e-14
1.00309e-13
1.09862e-13
1.19414e-13
1.28969e-13
1.38521e-13
1.48068e-13
4.77665e-15
1.43299e-14
2.38831e-14
3.34365e-14
4.29893e-14
5.25432e-14
6.20959e-14
7.16499e-14
8.12032e-14
9.07558e-14
1.0031e-13
1.09864e-13
1.19416e-13
1.28971e-13
1.38523e-13
1.4807e-13
4.7767e-15
1.433e-14
2.38834e-14
3.34368e-14
4.29897e-14
5.25437e-14
6.20966e-14
7.16507e-14
8.12041e-14
9.07568e-14
1.00311e-13
1.09865e-13
1.19417e-13
1.28972e-13
1.38525e-13
1.48072e-13
4.77675e-15
1.43301e-14
2.38836e-14
3.34371e-14
4.29901e-14
5.25442e-14
6.20971e-14
7.16513e-14
8.12048e-14
9.07576e-14
1.00312e-13
1.09866e-13
1.19418e-13
1.28974e-13
1.38526e-13
1.48074e-13
4.77679e-15
1.43302e-14
2.38838e-14
3.34374e-14
4.29904e-14
5.25446e-14
6.20976e-14
7.16518e-14
8.12054e-14
9.07583e-14
1.00313e-13
1.09867e-13
1.19419e-13
1.28975e-13
1.38528e-13
1.48075e-13
4.77683e-15
1.43303e-14
2.38839e-14
3.34376e-14
4.29907e-14
5.25449e-14
6.2098e-14
7.16523e-14
8.12059e-14
9.07589e-14
1.00314e-13
1.09868e-13
1.1942e-13
1.28976e-13
1.38529e-13
1.48077e-13
4.77686e-15
1.43304e-14
2.3884e-14
3.34377e-14
4.29909e-14
5.25451e-14
6.20982e-14
7.16526e-14
8.12063e-14
9.07592e-14
1.00314e-13
1.09868e-13
1.19421e-13
1.28977e-13
1.3853e-13
1.48078e-13
4.77688e-15
1.43304e-14
2.38841e-14
3.34378e-14
4.2991e-14
5.25453e-14
6.20984e-14
7.16528e-14
8.12065e-14
9.07595e-14
1.00314e-13
1.09868e-13
1.19421e-13
1.28977e-13
1.38531e-13
1.4808e-13
4.7769e-15
1.43305e-14
2.38841e-14
3.34379e-14
4.29911e-14
5.25453e-14
6.20985e-14
7.16528e-14
8.12065e-14
9.07595e-14
1.00314e-13
1.09868e-13
1.19421e-13
1.28977e-13
1.3853e-13
1.4808e-13
4.7769e-15
1.43305e-14
2.38842e-14
3.34379e-14
4.29911e-14
5.25453e-14
6.20985e-14
7.16528e-14
8.12065e-14
9.07594e-14
1.00314e-13
1.09868e-13
1.19421e-13
1.28976e-13
1.38529e-13
1.48078e-13
4.77691e-15
1.43304e-14
2.38841e-14
3.34378e-14
4.2991e-14
5.25452e-14
6.20983e-14
7.16527e-14
8.12063e-14
9.07591e-14
1.00314e-13
1.09868e-13
1.1942e-13
1.28975e-13
1.38527e-13
1.48075e-13
4.7769e-15
1.43304e-14
2.38841e-14
3.34378e-14
4.2991e-14
5.25452e-14
6.20983e-14
7.16526e-14
8.12063e-14
9.07591e-14
1.00314e-13
1.09867e-13
1.1942e-13
1.28975e-13
1.38527e-13
1.48075e-13
4.7769e-15
6.31089e-30
0
-1.26218e-29
-2.52435e-29
0
0
1.00974e-28
-5.04871e-29
-5.04871e-29
0
0
3.02923e-28
-1.00974e-28
0
0
3.78653e-29
)
;


// ************************************************************************* //
