/*--------------------------------*- C++ -*----------------------------------*\
| =========                 |                                                 |
| \\      /  F ield         | OpenFOAM: The Open Source CFD Toolbox           |
|  \\    /   O peration     | Version:  4.1                                   |
|   \\  /    A nd           | Web:      www.OpenFOAM.org                      |
|    \\/     M anipulation  |                                                 |
\*---------------------------------------------------------------------------*/
FoamFile
{
    version     2.0;
    format      ascii;
    class       surfaceVectorField;
    location    "0.0099";
    object      Uf;
}
// * * * * * * * * * * * * * * * * * * * * * * * * * * * * * * * * * * * * * //

dimensions      [0 1 -1 0 0 0 0];

internalField   nonuniform List<vector> 
4288
(
(0.16547 0.0271 1.8977e-06)
(0.175 0.021984 -0.0016216)
(0.175 0.021984 0.0016265)
(0.17555 0.026701 0.00051633)
(0.17555 0.0267 -0.00051214)
(0.14521 0.027785 1.42e-06)
(0.15541 0.023091 -0.0013887)
(0.15541 0.023091 0.0013926)
(0.15569 0.028273 0.00041463)
(0.15569 0.028274 -0.00040897)
(0.12425 0.027683 1.0057e-06)
(0.13491 0.023624 -0.0010772)
(0.13491 0.023625 0.0010791)
(0.13487 0.029183 0.00027355)
(0.13487 0.029182 -0.00027215)
(0.10322 0.026706 8.0793e-08)
(0.11402 0.023471 -0.00068523)
(0.11402 0.023472 0.00068599)
(0.11365 0.029253 0.00010126)
(0.11365 0.029253 -9.9852e-05)
(0.082826 0.024884 -1.288e-06)
(0.093396 0.02259 -0.0002246)
(0.093396 0.022591 0.00022222)
(0.092732 0.028433 -9.4692e-05)
(0.092732 0.028433 9.2079e-05)
(0.063741 0.022333 -2.2203e-06)
(0.073717 0.021019 0.00027741)
(0.073718 0.021021 -0.00028232)
(0.072809 0.026763 -0.00028797)
(0.072809 0.026763 0.00028352)
(0.046518 0.019217 -2.8947e-06)
(0.05559 0.018867 0.00077671)
(0.055591 0.018869 -0.00078335)
(0.054508 0.02437 -0.00045579)
(0.054508 0.02437 0.00044964)
(0.031571 0.0157 -3.3845e-06)
(0.039502 0.016272 0.0012418)
(0.039503 0.016274 -0.0012497)
(0.038311 0.021413 -0.00058873)
(0.038311 0.021413 0.00058088)
(0.019169 0.011966 -3.7056e-06)
(0.025789 0.013377 0.0016495)
(0.02579 0.01338 -0.0016581)
(0.024557 0.018051 -0.00069317)
(0.024558 0.01805 0.00068432)
(0.0093589 0.008212 -3.5781e-06)
(0.0146 0.010359 0.0019674)
(0.014601 0.010361 -0.0019763)
(0.013396 0.014468 -0.00079499)
(0.013396 0.014466 0.00078487)
(0.0020405 0.0046028 -3.409e-06)
(0.0058994 0.0073714 0.0021812)
(0.0059004 0.0073735 -0.0021894)
(0.0047762 0.010803 -0.00093563)
(0.0047762 0.010803 0.00092754)
(-0.00057038 0.0045065 0.0022149)
(-0.00056964 0.0045086 -0.0022229)
(-0.0015396 0.0071182 -0.0011004)
(-0.0015397 0.0071166 0.0010911)
(0.16508 0.018293 -0.0026916)
(0.17461 0.016282 -0.0040576)
(0.17459 0.016271 -0.001531)
(0.17501 0.019421 -0.0017975)
(0.14498 0.018929 -0.0024664)
(0.15517 0.017067 -0.0040439)
(0.15512 0.01726 -0.0015622)
(0.15536 0.020611 -0.0017652)
(0.12424 0.019041 -0.002134)
(0.13482 0.017419 -0.0038893)
(0.13474 0.01784 -0.0015461)
(0.13478 0.021305 -0.0016596)
(0.10344 0.018557 -0.0017075)
(0.11412 0.017259 -0.0035882)
(0.11401 0.017918 -0.0014856)
(0.11384 0.021385 -0.0014989)
(0.083246 0.017478 -0.0011917)
(0.093676 0.016555 -0.0031408)
(0.093556 0.01745 -0.0013769)
(0.093175 0.020797 -0.0012743)
(0.064308 0.015888 -0.00060633)
(0.074145 0.015332 -0.0025702)
(0.074016 0.016459 -0.0012166)
(0.073465 0.019568 -0.00097834)
(0.04718 0.013916 1.8736e-05)
(0.056127 0.013681 -0.0019188)
(0.055991 0.01502 -0.00099643)
(0.055324 0.017806 -0.00061743)
(0.032282 0.011701 0.00065096)
(0.040106 0.011723 -0.0012265)
(0.03997 0.013243 -0.00072393)
(0.039242 0.015659 -0.00021809)
(0.019873 0.0093904 0.0012463)
(0.026423 0.0095753 -0.00054664)
(0.026285 0.011258 -0.00041757)
(0.025557 0.013279 0.00017932)
(0.0099974 0.007127 0.0017672)
(0.015227 0.0073915 5.6277e-05)
(0.015079 0.0091952 -0.00010205)
(0.014407 0.010819 0.00050184)
(0.0026028 0.0050361 0.0021663)
(0.006493 0.0052914 0.00056468)
(0.0063335 0.0071595 0.00021311)
(0.0057703 0.0083809 0.00071894)
(-8.9817e-06 0.0033649 0.00094127)
(-0.00017959 0.0052254 0.00050079)
(-0.0005715 0.0061198 0.00074189)
(0.16482 0.015121 -0.0053463)
(0.17438 0.01289 -0.0067507)
(0.17432 0.013199 -0.0037901)
(0.17474 0.016361 -0.0060469)
(0.14486 0.015652 -0.0053717)
(0.15502 0.013496 -0.0069335)
(0.15495 0.013959 -0.0039746)
(0.15522 0.017308 -0.0063257)
(0.12426 0.015757 -0.0052231)
(0.13478 0.013759 -0.0069175)
(0.1347 0.014389 -0.0040548)
(0.13478 0.017832 -0.00644)
(0.1036 0.01539 -0.0048873)
(0.11419 0.013615 -0.0066801)
(0.11411 0.014421 -0.0040128)
(0.11399 0.017852 -0.0063579)
(0.083543 0.014551 -0.0043749)
(0.093848 0.01304 -0.0062126)
(0.093783 0.01403 -0.0038407)
(0.093476 0.01733 -0.0060686)
(0.064718 0.013288 -0.0037184)
(0.074412 0.012059 -0.0055338)
(0.074366 0.013224 -0.0035451)
(0.073895 0.016287 -0.0055837)
(0.047672 0.011689 -0.0029615)
(0.056469 0.010741 -0.0046921)
(0.05644 0.012055 -0.003152)
(0.05585 0.014795 -0.0049374)
(0.032821 0.0098664 -0.0021532)
(0.040497 0.0091785 -0.0037398)
(0.040484 0.010609 -0.0026899)
(0.039825 0.012971 -0.0041705)
(0.02044 0.0079489 -0.0013632)
(0.026841 0.0074762 -0.002741)
(0.026836 0.0089894 -0.0021904)
(0.026168 0.010947 -0.0033429)
(0.010574 0.0060463 -0.00065568)
(0.015654 0.0057595 -0.0017894)
(0.015648 0.0073087 -0.0017071)
(0.015025 0.0088716 -0.0025572)
(0.0031598 0.0042234 -5.7686e-05)
(0.006916 0.0041166 -0.00092627)
(0.0069039 0.0056344 -0.0012665)
(0.0063549 0.0068052 -0.0018515)
(0.00039307 0.002595 -0.00018612)
(0.00037204 0.0040004 -0.00087616)
(-7.5207e-05 0.0047813 -0.0012016)
(0.16469 0.011316 -0.0082875)
(0.1743 0.0096137 -0.0096171)
(0.17417 0.0098217 -0.0068827)
(0.17457 0.012694 -0.0093498)
(0.14479 0.011644 -0.0084382)
(0.15497 0.0099862 -0.0099897)
(0.15486 0.010357 -0.0072239)
(0.1551 0.013372 -0.0097688)
(0.12426 0.011644 -0.0083468)
(0.13477 0.010093 -0.010096)
(0.13467 0.010635 -0.0073831)
(0.13474 0.013712 -0.0099361)
(0.10368 0.011279 -0.0079896)
(0.11421 0.0098946 -0.0098979)
(0.11415 0.010606 -0.0073266)
(0.11403 0.013652 -0.0098121)
(0.083687 0.010552 -0.007366)
(0.093904 0.0093716 -0.0093749)
(0.093891 0.010251 -0.007042)
(0.093593 0.013165 -0.0093741)
(0.064921 0.0095034 -0.0065147)
(0.0745 0.0085437 -0.0085469)
(0.074533 0.009586 -0.0065445)
(0.074079 0.01227 -0.0086347)
(0.047916 0.0082053 -0.005494)
(0.056581 0.0074721 -0.0074753)
(0.056655 0.0086527 -0.0058644)
(0.056086 0.011029 -0.0076499)
(0.033094 0.0067433 -0.0043708)
(0.040627 0.006225 -0.0062283)
(0.040733 0.0075222 -0.0050539)
(0.040097 0.0095326 -0.0064828)
(0.020716 0.0052266 -0.003226)
(0.026978 0.0048865 -0.0048901)
(0.027101 0.0062734 -0.0041752)
(0.026456 0.0078882 -0.0052229)
(0.010841 0.0037552 -0.0021337)
(0.01579 0.0035626 -0.0035673)
(0.015912 0.0050008 -0.0032897)
(0.015311 0.0062354 -0.0039751)
(0.003417 0.0023908 -0.0011517)
(0.0070493 0.0023216 -0.0023271)
(0.0071612 0.0037601 -0.0024371)
(0.0066401 0.004633 -0.002795)
(0.00051853 0.0012148 -0.0012216)
(0.00061086 0.0025823 -0.0016445)
(0.00020106 0.0031069 -0.0017207)
(0.16469 0.0082845 -0.011319)
(0.17438 0.0067483 -0.012893)
(0.17417 0.0068807 -0.009825)
(0.17457 0.0093482 -0.012698)
(0.14479 0.0084353 -0.011648)
(0.15502 0.0069307 -0.013499)
(0.15486 0.0072214 -0.010361)
(0.1551 0.0097666 -0.013376)
(0.12426 0.0083438 -0.011647)
(0.13478 0.0069139 -0.013763)
(0.13467 0.0073808 -0.010639)
(0.13474 0.0099335 -0.013715)
(0.10368 0.0079863 -0.011282)
(0.11419 0.0066765 -0.013619)
(0.11415 0.0073234 -0.01061)
(0.11403 0.0098086 -0.013655)
(0.083687 0.0073628 -0.010555)
(0.093848 0.0062087 -0.013044)
(0.093891 0.0070386 -0.010255)
(0.093593 0.0093702 -0.013168)
(0.064922 0.0065115 -0.0095064)
(0.074412 0.0055298 -0.012063)
(0.074534 0.0065408 -0.0095896)
(0.074079 0.0086304 -0.012272)
(0.047916 0.0054908 -0.0082084)
(0.056469 0.0046883 -0.010745)
(0.056656 0.0058605 -0.0086563)
(0.056086 0.0076453 -0.011032)
(0.033094 0.0043674 -0.0067466)
(0.040497 0.0037361 -0.0091827)
(0.040733 0.0050497 -0.0075259)
(0.040097 0.0064781 -0.0095355)
(0.020716 0.0032219 -0.0052306)
(0.026841 0.0027372 -0.0074806)
(0.027101 0.0041708 -0.0062771)
(0.026456 0.0052179 -0.0078914)
(0.010842 0.0021285 -0.0037603)
(0.015654 0.001785 -0.005765)
(0.015912 0.0032843 -0.0050054)
(0.015311 0.0039693 -0.0062397)
(0.0034174 0.0011453 -0.0023969)
(0.0069167 0.00092103 -0.004123)
(0.0071616 0.002431 -0.0037654)
(0.0066404 0.0027883 -0.0046382)
(0.00039394 0.00017968 -0.0026028)
(0.00061123 0.0016372 -0.0025887)
(0.00020148 0.0017129 -0.0031131)
(0.16482 0.0053444 -0.015123)
(0.17461 0.0040573 -0.016284)
(0.17432 0.0037898 -0.013203)
(0.17474 0.0060481 -0.016367)
(0.14486 0.0053689 -0.015654)
(0.15517 0.004042 -0.01707)
(0.15495 0.0039735 -0.013963)
(0.15522 0.0063256 -0.017312)
(0.12426 0.0052198 -0.01576)
(0.13482 0.003887 -0.017421)
(0.1347 0.0040523 -0.014392)
(0.13478 0.0064387 -0.017836)
(0.1036 0.0048838 -0.015394)
(0.11412 0.0035849 -0.017263)
(0.11411 0.0040102 -0.014426)
(0.11399 0.0063558 -0.017856)
(0.083543 0.0043711 -0.014555)
(0.093676 0.0031372 -0.016559)
(0.093784 0.0038373 -0.014034)
(0.093476 0.0060654 -0.017335)
(0.064718 0.0037145 -0.013292)
(0.074145 0.0025663 -0.015337)
(0.074366 0.003541 -0.013228)
(0.073896 0.0055795 -0.016291)
(0.047672 0.0029577 -0.011694)
(0.056127 0.0019148 -0.013686)
(0.05644 0.0031475 -0.012059)
(0.05585 0.0049325 -0.014798)
(0.032821 0.0021493 -0.0098715)
(0.040107 0.0012225 -0.011728)
(0.040484 0.002685 -0.010613)
(0.039825 0.004165 -0.012974)
(0.020442 0.0013594 -0.0079545)
(0.026424 0.00054319 -0.0095803)
(0.026836 0.002185 -0.0089937)
(0.026169 0.003337 -0.010951)
(0.010575 0.00065158 -0.0060527)
(0.015228 -6.0837e-05 -0.007398)
(0.015648 0.0017019 -0.0073134)
(0.015026 0.0025516 -0.0088759)
(0.0031609 5.2661e-05 -0.0042312)
(0.0064944 -0.00056933 -0.0052989)
(0.0069046 0.0012605 -0.00564)
(0.0063558 0.0018449 -0.0068108)
(-7.3861e-06 -0.00094638 -0.0033739)
(0.00037311 0.00086944 -0.0040072)
(-7.3917e-05 0.0011943 -0.0047888)
(0.16508 0.0026912 -0.018294)
(0.175 0.0016224 -0.021984)
(0.17459 0.0015316 -0.016273)
(0.17501 0.0017991 -0.019423)
(0.14498 0.0024648 -0.018932)
(0.15541 0.0013878 -0.023092)
(0.15512 0.0015615 -0.017263)
(0.15536 0.0017661 -0.020615)
(0.12424 0.0021315 -0.019043)
(0.13491 0.0010754 -0.023625)
(0.13474 0.0015457 -0.017844)
(0.13478 0.0016598 -0.021309)
(0.10344 0.0017044 -0.01856)
(0.11402 0.00068278 -0.023474)
(0.11401 0.0014833 -0.017921)
(0.11384 0.0014976 -0.021389)
(0.083246 0.0011881 -0.017482)
(0.093396 0.0002218 -0.022594)
(0.093557 0.0013739 -0.017454)
(0.093176 0.0012718 -0.020801)
(0.064308 0.00060211 -0.015893)
(0.073717 -0.00028091 -0.021024)
(0.074017 0.0012126 -0.016464)
(0.073466 0.00097408 -0.019572)
(0.04718 -2.3017e-05 -0.013921)
(0.055591 -0.00078058 -0.018873)
(0.055991 0.0009916 -0.015024)
(0.055324 0.00061172 -0.01781)
(0.032283 -0.00065503 -0.011706)
(0.039502 -0.0012456 -0.016279)
(0.03997 0.00071874 -0.013247)
(0.039243 0.00021195 -0.015663)
(0.019873 -0.0012502 -0.0093961)
(0.02579 -0.0016533 -0.013384)
(0.026285 0.00041203 -0.011262)
(0.025557 -0.00018567 -0.013283)
(0.0099992 -0.0017713 -0.0071336)
(0.014601 -0.0019716 -0.010365)
(0.01508 9.6017e-05 -0.0091993)
(0.014408 -0.00050798 -0.010823)
(0.0026046 -0.0021705 -0.0050442)
(0.0059013 -0.0021854 -0.007379)
(0.0063349 -0.00021985 -0.0071649)
(0.0057721 -0.00072523 -0.0083861)
(-0.00056863 -0.0022187 -0.0045143)
(-0.00017799 -0.00050811 -0.0052318)
(-0.00056963 -0.00074749 -0.0061268)
(0.16547 -1.7275e-06 -0.0271)
(0.175 -0.0016263 -0.021984)
(0.17555 -0.00051672 -0.0267)
(0.17555 0.00051324 -0.026699)
(0.14521 -2.1352e-06 -0.027785)
(0.15541 -0.0013921 -0.023092)
(0.15569 -0.00041223 -0.028275)
(0.15569 0.00040918 -0.028274)
(0.12425 -2.1523e-06 -0.027684)
(0.13491 -0.0010805 -0.023626)
(0.13487 -0.00027391 -0.029184)
(0.13487 0.00027087 -0.029182)
(0.10322 -1.6701e-06 -0.026709)
(0.11402 -0.00068697 -0.023474)
(0.11366 -0.00010106 -0.029256)
(0.11366 9.8667e-05 -0.029255)
(0.082827 -1.387e-06 -0.024888)
(0.093397 -0.00022506 -0.022594)
(0.092733 9.2461e-05 -0.028437)
(0.092733 -9.397e-05 -0.028436)
(0.063742 -1.1621e-06 -0.02234)
(0.073718 0.00027823 -0.021025)
(0.072811 0.00028454 -0.026768)
(0.072811 -0.00028595 -0.026767)
(0.046518 -9.6586e-07 -0.019226)
(0.055592 0.00077857 -0.018874)
(0.054509 0.00045097 -0.024376)
(0.054509 -0.00045238 -0.024376)
(0.031571 -8.431e-07 -0.015709)
(0.039503 0.001244 -0.01628)
(0.038311 0.00058236 -0.021419)
(0.038311 -0.00058411 -0.02142)
(0.01917 -1.0282e-06 -0.011974)
(0.025791 0.0016518 -0.013385)
(0.024558 0.00068588 -0.018056)
(0.024558 -0.00068851 -0.018057)
(0.0093612 -1.4325e-06 -0.0082204)
(0.014603 0.001969 -0.010366)
(0.013397 0.00078613 -0.014471)
(0.013397 -0.00079075 -0.014474)
(0.002042 -1.7986e-06 -0.0046114)
(0.0059022 0.0021819 -0.0073796)
(0.004778 0.0009279 -0.010808)
(0.0047781 -0.00093331 -0.010811)
(-0.00056795 0.0022141 -0.0045147)
(-0.0015379 0.0010915 -0.0071222)
(-0.0015377 -0.0010966 -0.0071237)
(0.16507 0.018294 0.0026956)
(0.17459 0.016272 0.0015359)
(0.1746 0.016283 0.0040621)
(0.17501 0.019422 0.0018025)
(0.14498 0.018931 0.0024691)
(0.15512 0.017261 0.0015658)
(0.15517 0.017068 0.0040473)
(0.15536 0.020612 0.001769)
(0.12424 0.019042 0.0021351)
(0.13474 0.017842 0.0015488)
(0.13482 0.01742 0.0038919)
(0.13478 0.021306 0.0016614)
(0.10344 0.018558 0.0017065)
(0.11401 0.017918 0.0014846)
(0.11412 0.017261 0.0035884)
(0.11384 0.021386 0.0014987)
(0.083247 0.01748 0.0011879)
(0.093557 0.017451 0.001374)
(0.093676 0.016556 0.0031381)
(0.093176 0.020798 0.0012711)
(0.06431 0.01589 0.00060041)
(0.074017 0.01646 0.0012113)
(0.074147 0.015334 0.002565)
(0.073466 0.019569 0.00097242)
(0.047182 0.013918 -2.5941e-05)
(0.055992 0.015021 0.00098899)
(0.056129 0.013683 0.001912)
(0.055325 0.017808 0.0006097)
(0.032285 0.011703 -0.000659)
(0.039971 0.013244 0.00071535)
(0.040108 0.011725 0.0012184)
(0.039244 0.01566 0.00020927)
(0.019874 0.009393 -0.0012547)
(0.026286 0.011258 0.00040837)
(0.026425 0.0095776 0.000538)
(0.025559 0.013281 -0.00018873)
(0.0099995 0.0071297 -0.0017757)
(0.01508 0.0091959 9.2499e-05)
(0.015229 0.0073942 -6.554e-05)
(0.014409 0.01082 -0.00051135)
(0.0026045 0.0050392 -0.0021746)
(0.0063344 0.0071605 -0.00022255)
(0.0064948 0.0052941 -0.00057331)
(0.005772 0.0083829 -0.00072825)
(-0.00017885 0.0052265 -0.00051014)
(-7.4133e-06 0.0033676 -0.00094972)
(-0.00057032 0.006122 -0.00075097)
(0.16476 0.014836 2.1586e-06)
(0.17431 0.013069 -0.0010214)
(0.17431 0.013069 0.0010262)
(0.14473 0.015528 1.1779e-06)
(0.1549 0.013835 -0.0010992)
(0.1549 0.013835 0.0011026)
(0.12406 0.015819 2.3016e-07)
(0.13462 0.014265 -0.0011452)
(0.13462 0.014266 0.0011464)
(0.10337 0.015657 -7.2008e-07)
(0.114 0.014297 -0.0011549)
(0.114 0.014298 0.0011551)
(0.083293 0.01503 -1.9861e-06)
(0.09366 0.013897 -0.0011306)
(0.093661 0.013897 0.0011278)
(0.064448 0.013986 -3.1245e-06)
(0.074231 0.013077 -0.0010785)
(0.074232 0.013077 0.0010729)
(0.047393 0.012611 -3.8881e-06)
(0.056298 0.011899 -0.0010105)
(0.0563 0.011899 0.0010033)
(0.032547 0.01101 -4.3461e-06)
(0.040343 0.010448 -0.00093833)
(0.040344 0.010449 0.00092994)
(0.020154 0.0093003 -4.6386e-06)
(0.026693 0.0088311 -0.00087188)
(0.026695 0.0088319 0.00086281)
(0.010268 0.0075757 -4.7691e-06)
(0.015497 0.0071617 -0.00082635)
(0.015498 0.0071626 0.000817)
(0.0028316 0.0059009 -4.7988e-06)
(0.0067423 0.0055197 -0.00080101)
(0.0067434 0.0055204 0.00079165)
(0.00020069 0.0039574 -0.0007904)
(0.00020168 0.0039582 0.00078096)
(0.16456 0.011905 -0.0022853)
(0.17412 0.0099114 -0.0038217)
(0.17407 0.010269 -0.0011938)
(0.14463 0.012428 -0.0023893)
(0.15478 0.01048 -0.0040314)
(0.15476 0.010842 -0.0012559)
(0.1241 0.012626 -0.0024176)
(0.13459 0.010794 -0.0041332)
(0.1346 0.011157 -0.0012837)
(0.10353 0.012458 -0.0023636)
(0.11407 0.010803 -0.0041111)
(0.11411 0.011165 -0.0012734)
(0.083578 0.01192 -0.002229)
(0.093823 0.010487 -0.0039557)
(0.0939 0.010841 -0.0012173)
(0.064847 0.011043 -0.0020311)
(0.074483 0.0098548 -0.0036791)
(0.074588 0.010195 -0.0011197)
(0.047878 0.0098868 -0.0017933)
(0.056623 0.0089557 -0.0033096)
(0.05675 0.0092659 -0.00099162)
(0.033081 0.0085391 -0.001535)
(0.040717 0.0078568 -0.0028736)
(0.040856 0.0081174 -0.00084097)
(0.020707 0.0070998 -0.0012856)
(0.027093 0.006639 -0.0024086)
(0.027235 0.0068315 -0.00067611)
(0.010823 0.005653 -0.0010747)
(0.015904 0.0053961 -0.0019593)
(0.016045 0.0054955 -0.00051637)
(0.0033834 0.0042442 -0.00091822)
(0.0071478 0.0041898 -0.0015484)
(0.0072817 0.0041673 -0.00037291)
(0.00058941 0.0030536 -0.0011898)
(0.00071736 0.002885 -0.00025725)
(0.16445 0.0085494 -0.0055056)
(0.17405 0.0068397 -0.006842)
(0.17394 0.0071197 -0.0042215)
(0.14458 0.0089003 -0.0057217)
(0.15474 0.007213 -0.0072158)
(0.15469 0.0075017 -0.0044404)
(0.1241 0.0090161 -0.0057818)
(0.13458 0.0074062 -0.0074094)
(0.13458 0.0077025 -0.004551)
(0.10361 0.008867 -0.005668)
(0.11409 0.0073885 -0.0073919)
(0.11416 0.0076892 -0.0045314)
(0.083714 0.0084456 -0.0053809)
(0.093875 0.0071428 -0.0071468)
(0.094014 0.0074441 -0.0043759)
(0.065033 0.0077827 -0.0049418)
(0.074564 0.0066798 -0.0066841)
(0.074758 0.0069736 -0.0040898)
(0.048102 0.0069298 -0.0043847)
(0.056726 0.0060404 -0.0060449)
(0.056964 0.0063105 -0.0036894)
(0.03333 0.0059484 -0.0037547)
(0.040836 0.0052697 -0.0052743)
(0.041101 0.0055035 -0.0032087)
(0.020964 0.0049127 -0.0031043)
(0.02722 0.0044287 -0.0044335)
(0.027494 0.0046073 -0.0026816)
(0.011075 0.003889 -0.0024766)
(0.016033 0.0035831 -0.0035885)
(0.016303 0.0036841 -0.0021436)
(0.003621 0.0029202 -0.0018988)
(0.0072722 0.0027767 -0.0027826)
(0.0075295 0.0027782 -0.0016206)
(0.00070314 0.0020358 -0.0020426)
(0.0009424 0.0019146 -0.0011277)
(0.16445 0.0055036 -0.0085522)
(0.17412 0.0038203 -0.0099143)
(0.17394 0.00422 -0.007122)
(0.14458 0.0057191 -0.0089035)
(0.15478 0.0040293 -0.010484)
(0.15469 0.0044383 -0.0075043)
(0.1241 0.0057787 -0.0090193)
(0.13459 0.0041314 -0.010796)
(0.13458 0.0045481 -0.0077052)
(0.10361 0.0056642 -0.0088704)
(0.11407 0.0041075 -0.010807)
(0.11416 0.0045284 -0.0076924)
(0.083714 0.0053767 -0.0084495)
(0.093824 0.0039518 -0.010491)
(0.094014 0.0043722 -0.0074476)
(0.065033 0.0049372 -0.0077867)
(0.074483 0.0036745 -0.0098588)
(0.074758 0.0040857 -0.0069775)
(0.048102 0.0043799 -0.006934)
(0.056623 0.0033045 -0.0089597)
(0.056964 0.003685 -0.0063146)
(0.03333 0.0037496 -0.0059527)
(0.040717 0.0028683 -0.0078609)
(0.041101 0.003204 -0.0055078)
(0.020964 0.0030988 -0.0049173)
(0.027093 0.0024029 -0.0066434)
(0.027495 0.0026767 -0.0046119)
(0.011075 0.0024706 -0.0038943)
(0.015905 0.0019535 -0.005401)
(0.016303 0.002138 -0.0036893)
(0.0036212 0.0018922 -0.0029264)
(0.0071483 0.0015421 -0.0041956)
(0.0075298 0.0016144 -0.002784)
(0.00058999 0.0011828 -0.0030605)
(0.00094269 0.0011207 -0.0019213)
(0.16456 0.0022843 -0.011908)
(0.17431 0.0010211 -0.013071)
(0.17408 0.0011928 -0.010272)
(0.14463 0.0023875 -0.012431)
(0.1549 0.0010982 -0.013837)
(0.15476 0.0012545 -0.010845)
(0.1241 0.002415 -0.012629)
(0.13462 0.0011425 -0.014268)
(0.1346 0.001282 -0.01116)
(0.10354 0.0023604 -0.012461)
(0.114 0.0011525 -0.014301)
(0.11411 0.0012706 -0.011168)
(0.083578 0.0022249 -0.011924)
(0.09366 0.001127 -0.0139)
(0.093901 0.001214 -0.010845)
(0.064847 0.0020263 -0.011046)
(0.074232 0.0010738 -0.013081)
(0.074588 0.0011157 -0.010199)
(0.047879 0.0017879 -0.0098906)
(0.056299 0.0010056 -0.011902)
(0.05675 0.00098686 -0.00927)
(0.033081 0.0015292 -0.008543)
(0.040343 0.00093286 -0.010452)
(0.040856 0.00083585 -0.0081216)
(0.020708 0.0012798 -0.0071042)
(0.026694 0.00086616 -0.0088352)
(0.027236 0.00067059 -0.0068359)
(0.010824 0.0010687 -0.0056582)
(0.015497 0.00082026 -0.0071663)
(0.016045 0.00051079 -0.0055005)
(0.0033841 0.0009119 -0.0042503)
(0.0067432 0.00079444 -0.0055253)
(0.0072823 0.0003668 -0.0041731)
(0.00020177 0.00078327 -0.0039643)
(0.00071816 0.00025059 -0.0028921)
(0.16476 -2.648e-06 -0.014838)
(0.17459 -0.0015361 -0.016273)
(0.17431 -0.0010265 -0.013071)
(0.14473 -2.5838e-06 -0.015531)
(0.15512 -0.001567 -0.017263)
(0.1549 -0.0011036 -0.013838)
(0.12406 -2.405e-06 -0.015822)
(0.13475 -0.0015498 -0.017843)
(0.13462 -0.0011484 -0.014268)
(0.10337 -2.1814e-06 -0.01566)
(0.11402 -0.0014871 -0.017921)
(0.114 -0.0011574 -0.014301)
(0.083293 -1.9322e-06 -0.015034)
(0.093558 -0.0013771 -0.017454)
(0.093662 -0.0011309 -0.013901)
(0.064449 -1.6416e-06 -0.01399)
(0.074018 -0.0012151 -0.016464)
(0.074233 -0.0010771 -0.013081)
(0.047393 -1.4068e-06 -0.012615)
(0.055992 -0.0009938 -0.015025)
(0.0563 -0.0010081 -0.011903)
(0.032548 -1.3389e-06 -0.011015)
(0.039971 -0.00072077 -0.013247)
(0.040345 -0.0009351 -0.010453)
(0.020154 -1.4969e-06 -0.0093047)
(0.026287 -0.00041418 -0.011262)
(0.026695 -0.00086843 -0.0088364)
(0.010269 -1.9166e-06 -0.0075807)
(0.015081 -9.9031e-05 -0.0092002)
(0.015499 -0.00082321 -0.0071673)
(0.0028328 -2.4488e-06 -0.0059072)
(0.0063358 0.00021566 -0.0071659)
(0.0067446 -0.00079858 -0.0055263)
(-0.00017731 0.0005026 -0.0052329)
(0.00020295 -0.00078878 -0.0039651)
(0.16508 -0.0026958 -0.018294)
(0.1746 -0.0040619 -0.016283)
(0.17501 -0.0018022 -0.019422)
(0.14499 -0.0024701 -0.018932)
(0.15517 -0.0040474 -0.01707)
(0.15536 -0.00177 -0.020614)
(0.12424 -0.0021367 -0.019045)
(0.13483 -0.0038927 -0.017422)
(0.13479 -0.0016639 -0.021309)
(0.10344 -0.0017087 -0.018561)
(0.11412 -0.0035894 -0.017264)
(0.11384 -0.0015013 -0.021389)
(0.083248 -0.0011915 -0.017484)
(0.093678 -0.0031406 -0.01656)
(0.093177 -0.0012748 -0.020802)
(0.06431 -0.00060483 -0.015894)
(0.074148 -0.0025687 -0.015338)
(0.073468 -0.00097672 -0.019573)
(0.047182 2.0751e-05 -0.013922)
(0.05613 -0.0019166 -0.013688)
(0.055326 -0.000614 -0.017811)
(0.032285 0.00065296 -0.011707)
(0.040109 -0.0012239 -0.011729)
(0.039244 -0.00021412 -0.015664)
(0.019876 0.0012479 -0.0093975)
(0.026426 -0.0005442 -0.0095824)
(0.02556 0.00018323 -0.013285)
(0.010001 0.0017682 -0.0071351)
(0.01523 5.8586e-05 -0.0074)
(0.01441 0.00050468 -0.010825)
(0.0026062 0.0021664 -0.0050456)
(0.0064965 0.000566 -0.0053008)
(0.0057738 0.00072072 -0.0083885)
(-5.6166e-06 0.00094148 -0.0033753)
(-0.00056816 0.00074197 -0.0061288)
(0.16482 0.015121 0.0053503)
(0.17432 0.0132 0.003795)
(0.17437 0.012891 0.006755)
(0.17474 0.016362 0.0060517)
(0.14486 0.015653 0.0053745)
(0.15495 0.01396 0.0039781)
(0.15502 0.013497 0.0069367)
(0.15521 0.017308 0.0063293)
(0.12426 0.015759 0.0052243)
(0.1347 0.014389 0.0040561)
(0.13478 0.01376 0.0069187)
(0.13478 0.017833 0.0064421)
(0.1036 0.015392 0.0048859)
(0.11411 0.014423 0.0040129)
(0.11418 0.013616 0.0066803)
(0.11399 0.017854 0.0063578)
(0.083544 0.014553 0.0043706)
(0.093785 0.014031 0.0038376)
(0.093847 0.013041 0.0062092)
(0.093476 0.017332 0.0060654)
(0.064719 0.01329 0.003712)
(0.074367 0.013225 0.0035394)
(0.074412 0.01206 0.0055279)
(0.073896 0.016288 0.0055779)
(0.047674 0.011691 0.0029535)
(0.056442 0.012056 0.0031444)
(0.056469 0.010742 0.0046844)
(0.055851 0.014796 0.0049295)
(0.032823 0.0098685 0.0021444)
(0.040487 0.010611 0.0026811)
(0.040498 0.0091795 0.0037311)
(0.039826 0.012972 0.0041612)
(0.020443 0.0079509 0.0013541)
(0.026838 0.0089909 0.002181)
(0.026842 0.0074773 0.0027316)
(0.02617 0.010949 0.003333)
(0.010576 0.0060483 0.00064677)
(0.01565 0.0073102 0.0016978)
(0.015655 0.0057607 0.0017797)
(0.015027 0.0088729 0.0025475)
(0.0031615 0.0042255 4.8961e-05)
(0.0069058 0.005636 0.0012572)
(0.0069172 0.0041177 0.00091698)
(0.0063563 0.0068066 0.0018416)
(0.00037385 0.004002 0.00086714)
(0.0003942 0.0025961 0.00017703)
(-7.3815e-05 0.0047827 0.0011919)
(0.16456 0.011906 0.0022893)
(0.17407 0.01027 0.0011985)
(0.17412 0.0099122 0.0038259)
(0.14463 0.012429 0.0023918)
(0.15476 0.010842 0.0012595)
(0.15478 0.010481 0.0040345)
(0.1241 0.012627 0.0024183)
(0.1346 0.011158 0.0012856)
(0.13459 0.010794 0.0041349)
(0.10354 0.012459 0.0023619)
(0.11411 0.011166 0.0012724)
(0.11407 0.010805 0.0041096)
(0.08358 0.011922 0.0022247)
(0.093902 0.010842 0.0012141)
(0.093824 0.010488 0.0039524)
(0.064849 0.011044 0.0020248)
(0.074589 0.010196 0.0011143)
(0.074484 0.0098559 0.0036734)
(0.047881 0.0098883 0.0017855)
(0.056751 0.0092666 0.00098434)
(0.056625 0.0089567 0.0033021)
(0.033084 0.0085407 0.0015262)
(0.040857 0.0081181 0.00083254)
(0.040719 0.0078578 0.0028649)
(0.02071 0.0071014 0.0012765)
(0.027237 0.0068322 0.00066709)
(0.027095 0.00664 0.0023993)
(0.010825 0.0056546 0.0010655)
(0.016046 0.0054962 0.00050727)
(0.015906 0.0053972 0.0019499)
(0.0033853 0.0042458 0.00090907)
(0.0072827 0.0041681 0.00036393)
(0.0071493 0.0041909 0.001539)
(0.00071833 0.0028861 0.00024857)
(0.00059088 0.0030547 0.0011804)
(0.16438 0.0090393 2.1982e-06)
(0.1739 0.0072362 -0.0014865)
(0.1739 0.0072367 0.0014909)
(0.14457 0.0094187 1.2807e-06)
(0.15467 0.0076368 -0.0015648)
(0.15467 0.0076372 0.0015679)
(0.12416 0.0095562 3.4228e-08)
(0.1346 0.007855 -0.0016064)
(0.1346 0.0078554 0.0016076)
(0.10373 0.009422 -1.0886e-06)
(0.11421 0.0078554 -0.0016029)
(0.11421 0.0078554 0.0016018)
(0.083897 0.0090097 -2.1342e-06)
(0.094091 0.0076223 -0.0015544)
(0.09409 0.0076226 0.001551)
(0.065268 0.0083408 -3.175e-06)
(0.074863 0.0071635 -0.0014625)
(0.074863 0.0071638 0.0014568)
(0.048372 0.0074605 -3.9156e-06)
(0.05709 0.0065074 -0.0013308)
(0.057091 0.0065077 0.0013233)
(0.033614 0.0064314 -4.3245e-06)
(0.041239 0.0056991 -0.0011707)
(0.041239 0.0056993 0.0011621)
(0.021248 0.0053243 -4.4289e-06)
(0.027637 0.0047972 -0.0009961)
(0.027637 0.0047974 0.00098694)
(0.01135 0.0041993 -4.4505e-06)
(0.016443 0.0038638 -0.00081589)
(0.016444 0.0038641 0.0008067)
(0.003876 0.0031004 -4.4306e-06)
(0.0076635 0.0029395 -0.00063673)
(0.0076639 0.0029397 0.00062759)
(0.0010704 0.0020542 -0.00046244)
(0.0010707 0.0020543 0.00045359)
(0.16428 0.0059016 -0.0029858)
(0.17384 0.0043263 -0.004328)
(0.17377 0.0042571 -0.0014271)
(0.14453 0.0061399 -0.0031057)
(0.15463 0.0045594 -0.0045615)
(0.1546 0.0044859 -0.0015049)
(0.12419 0.0062192 -0.0031442)
(0.13459 0.0046839 -0.0046864)
(0.13459 0.004607 -0.0015462)
(0.10383 0.0061192 -0.0030924)
(0.11424 0.0046768 -0.0046798)
(0.11427 0.0046003 -0.0015439)
(0.084052 0.0058386 -0.0029516)
(0.094153 0.0045318 -0.0045352)
(0.094224 0.0044553 -0.0014964)
(0.065473 0.0053916 -0.0027279)
(0.074953 0.0042551 -0.0042589)
(0.075053 0.0041765 -0.0014044)
(0.048614 0.0048067 -0.0024363)
(0.057202 0.0038608 -0.003865)
(0.057325 0.0037822 -0.0012733)
(0.033876 0.0041267 -0.0021002)
(0.041366 0.0033781 -0.0033826)
(0.041501 0.0033002 -0.0011141)
(0.021511 0.0034007 -0.0017431)
(0.027768 0.0028443 -0.0028491)
(0.027908 0.0027636 -0.0009375)
(0.011602 0.0026688 -0.0013832)
(0.016573 0.0022945 -0.0022999)
(0.016709 0.0022106 -0.00075497)
(0.0041107 0.0019555 -0.0010325)
(0.0077872 0.0017517 -0.0017578)
(0.007916 0.001666 -0.00057483)
(0.001182 0.0012297 -0.0012367)
(0.0012965 0.001136 -0.00039897)
(0.16428 0.0029843 -0.0059036)
(0.1739 0.0014855 -0.0072383)
(0.17377 0.0014259 -0.0042588)
(0.14453 0.0031035 -0.0061421)
(0.15467 0.0015632 -0.0076392)
(0.1546 0.0015033 -0.004488)
(0.12419 0.0031416 -0.0062219)
(0.1346 0.0016042 -0.0078579)
(0.13459 0.0015438 -0.0046094)
(0.10383 0.0030894 -0.0061224)
(0.11421 0.0016003 -0.0078586)
(0.11427 0.0015412 -0.0046032)
(0.084053 0.002948 -0.0058423)
(0.094091 0.0015511 -0.0076259)
(0.094224 0.001493 -0.0044587)
(0.065473 0.0027239 -0.0053956)
(0.074863 0.0014586 -0.0071675)
(0.075053 0.0014004 -0.0041804)
(0.048614 0.0024319 -0.004811)
(0.057091 0.0013265 -0.0065116)
(0.057325 0.0012689 -0.0037865)
(0.033876 0.0020955 -0.0041313)
(0.041239 0.001166 -0.0057036)
(0.041501 0.0011094 -0.0033048)
(0.021511 0.0017378 -0.0034057)
(0.027637 0.000991 -0.0048019)
(0.027908 0.0009324 -0.0027685)
(0.011602 0.0013772 -0.0026744)
(0.016444 0.00081025 -0.0038692)
(0.016709 0.00074923 -0.002216)
(0.004111 0.0010259 -0.0019619)
(0.007664 0.00063043 -0.0029457)
(0.0079163 0.0005686 -0.001672)
(0.0010709 0.00045544 -0.0020613)
(0.0012968 0.0003921 -0.0011428)
(0.16438 -3.4133e-06 -0.0090419)
(0.17407 -0.0011991 -0.010272)
(0.1739 -0.0014919 -0.0072386)
(0.14457 -2.7934e-06 -0.0094218)
(0.15476 -0.0012603 -0.010844)
(0.15467 -0.0015693 -0.0076396)
(0.12416 -2.1673e-06 -0.0095596)
(0.1346 -0.001287 -0.011161)
(0.1346 -0.0016093 -0.0078578)
(0.10373 -1.7867e-06 -0.0094256)
(0.11411 -0.0012747 -0.011169)
(0.11421 -0.0016045 -0.0078586)
(0.083898 -1.3591e-06 -0.0090137)
(0.093902 -0.0012173 -0.010846)
(0.094091 -0.0015542 -0.007626)
(0.065268 -9.7678e-07 -0.008345)
(0.07459 -0.0011181 -0.0102)
(0.074863 -0.0014609 -0.0071677)
(0.048373 -7.5043e-07 -0.0074649)
(0.056751 -0.0009887 -0.0092709)
(0.057091 -0.001328 -0.0065119)
(0.033614 -7.7975e-07 -0.006436)
(0.040858 -0.00083745 -0.0081226)
(0.04124 -0.0011673 -0.0057037)
(0.021249 -9.5081e-07 -0.0053293)
(0.027237 -0.00067238 -0.0068369)
(0.027637 -0.00099242 -0.0048022)
(0.011351 -1.3766e-06 -0.004205)
(0.016047 -0.00051328 -0.0055016)
(0.016444 -0.00081227 -0.0038694)
(0.0038766 -2.1458e-06 -0.0031071)
(0.0072837 -0.00037052 -0.0041742)
(0.0076645 -0.00063374 -0.0029459)
(0.00071934 -0.00025583 -0.002893)
(0.0010714 -0.00046034 -0.0020616)
(0.16456 -0.0022899 -0.011908)
(0.17432 -0.0037958 -0.013202)
(0.17412 -0.003826 -0.0099141)
(0.14463 -0.0023931 -0.012432)
(0.15495 -0.0039786 -0.013962)
(0.15478 -0.0040354 -0.010484)
(0.1241 -0.00242 -0.01263)
(0.1347 -0.004058 -0.014393)
(0.13459 -0.0041362 -0.010798)
(0.10354 -0.0023644 -0.012463)
(0.11411 -0.0040148 -0.014427)
(0.11407 -0.0041117 -0.010808)
(0.083581 -0.0022281 -0.011925)
(0.093786 -0.0038404 -0.014035)
(0.093825 -0.0039553 -0.010492)
(0.06485 -0.0020288 -0.011048)
(0.074368 -0.0035432 -0.01323)
(0.074485 -0.0036772 -0.0098598)
(0.047882 -0.00179 -0.0098926)
(0.056443 -0.0031489 -0.012061)
(0.056626 -0.0033065 -0.0089608)
(0.033084 -0.0015313 -0.0085452)
(0.040487 -0.0026862 -0.010615)
(0.04072 -0.0028699 -0.0078622)
(0.02071 -0.0012822 -0.0071063)
(0.026839 -0.0021865 -0.0089957)
(0.027096 -0.0024048 -0.0066448)
(0.010827 -0.0010721 -0.0056601)
(0.015651 -0.0017042 -0.0073156)