/*--------------------------------*- C++ -*----------------------------------*\
| =========                 |                                                 |
| \\      /  F ield         | OpenFOAM: The Open Source CFD Toolbox           |
|  \\    /   O peration     | Version:  4.1                                   |
|   \\  /    A nd           | Web:      www.OpenFOAM.org                      |
|    \\/     M anipulation  |                                                 |
\*---------------------------------------------------------------------------*/
FoamFile
{
    version     2.0;
    format      ascii;
    class       surfaceVectorField;
    location    "0.0093";
    object      Uf;
}
// * * * * * * * * * * * * * * * * * * * * * * * * * * * * * * * * * * * * * //

dimensions      [0 1 -1 0 0 0 0];

internalField   nonuniform List<vector> 
4288
(
(0.21477 -0.00092253 3.8077e-07)
(0.21457 -0.00051176 -6.6684e-05)
(0.21457 -0.00051181 6.7122e-05)
(0.21445 -0.00068303 3.7686e-06)
(0.21445 -0.00068277 -3.0616e-06)
(0.21598 -0.0015234 6.5481e-07)
(0.21534 -0.0013503 -0.0002515)
(0.21534 -0.0013504 0.00025269)
(0.2153 -0.0019145 5.3992e-05)
(0.2153 -0.0019143 -5.2706e-05)
(0.21786 -0.001734 7.9127e-07)
(0.21683 -0.0019131 -0.00049702)
(0.21683 -0.0019133 0.00049872)
(0.21694 -0.0028406 0.00014458)
(0.21694 -0.0028401 -0.00014245)
(0.22018 -0.0015255 7.6051e-07)
(0.21888 -0.0021783 -0.00079482)
(0.21888 -0.0021786 0.00079666)
(0.21918 -0.0034136 0.00026858)
(0.21918 -0.0034135 -0.00026681)
(0.22256 -0.00088805 7.2906e-07)
(0.22118 -0.0020642 -0.0010843)
(0.22118 -0.0020644 0.0010859)
(0.2217 -0.003488 0.00039395)
(0.2217 -0.0034881 -0.00039248)
(0.22462 0.00015585 8.0889e-07)
(0.22337 -0.0015514 -0.0013201)
(0.22337 -0.0015516 0.0013217)
(0.2241 -0.002999 0.00050806)
(0.2241 -0.0029996 -0.00050702)
(0.22602 0.0015229 9.1941e-07)
(0.22507 -0.00065891 -0.0014709)
(0.22507 -0.00065903 0.0014727)
(0.22597 -0.001945 0.00062212)
(0.22597 -0.0019456 -0.00062083)
(0.2267 0.0030921 8.9109e-07)
(0.22607 0.00056141 -0.0014563)
(0.22607 0.00056149 0.0014586)
(0.22709 -0.00039352 0.00071905)
(0.22709 -0.00039432 -0.00071752)
(0.22617 0.0049604 5.3045e-07)
(0.22609 0.0022873 -0.001055)
(0.22609 0.0022877 0.0010565)
(0.22723 0.0018399 0.00045143)
(0.22723 0.0018383 -0.00045139)
(0.22351 0.0074822 2.3171e-07)
(0.22445 0.0042339 -0.00096771)
(0.22444 0.0042332 0.00096916)
(0.22579 0.0044118 0.0003362)
(0.22579 0.0044131 -0.00033443)
(0.21874 0.010656 2.352e-07)
(0.2207 0.0066912 -0.0011239)
(0.2207 0.0066913 0.0011244)
(0.22223 0.0074841 0.00045639)
(0.22223 0.0074836 -0.00045657)
(0.21455 0.0095558 -0.001312)
(0.21455 0.0095556 0.0013127)
(0.21613 0.011057 0.00050705)
(0.21613 0.011058 -0.00050658)
(0.21496 -0.00073026 -0.00010977)
(0.21471 -0.00035511 2.1953e-05)
(0.21475 -0.00041945 1.7168e-05)
(0.21469 -0.0004749 -4.9568e-05)
(0.21615 -0.0012911 -0.00029971)
(0.21547 -0.00093405 6.0964e-08)
(0.21556 -0.0011569 2.6454e-05)
(0.21553 -0.0013708 -0.00013377)
(0.21796 -0.0016362 -0.00056903)
(0.21692 -0.0013147 -0.00010347)
(0.21705 -0.001724 -6.596e-06)
(0.2171 -0.0020776 -0.0002537)
(0.22015 -0.0017191 -0.00087718)
(0.21888 -0.0014843 -0.00027476)
(0.21905 -0.0020972 -6.6467e-05)
(0.21921 -0.0025464 -0.00039867)
(0.22239 -0.0015049 -0.0011752)
(0.22106 -0.0013902 -0.00047999)
(0.22127 -0.0021827 -0.00014889)
(0.22155 -0.0026613 -0.00054648)
(0.2243 -0.0010151 -0.0014315)
(0.22311 -0.0010296 -0.00069143)
(0.22337 -0.0019524 -0.00024516)
(0.22375 -0.0023866 -0.00066584)
(0.22558 -0.00031679 -0.0016148)
(0.22469 -0.00043873 -0.00088907)
(0.22499 -0.0014342 -0.00035822)
(0.22545 -0.0017699 -0.00071777)
(0.2261 0.00061317 -0.0016486)
(0.22555 0.00032631 -0.0010358)
(0.2259 -0.00066345 -0.00049105)
(0.22641 -0.00092865 -0.00063407)
(0.22536 0.0019941 -0.0015857)
(0.22539 0.0014131 -0.0010395)
(0.22574 0.00059071 -0.00066774)
(0.22637 0.0003474 -0.00051278)
(0.22257 0.0038564 -0.0016742)
(0.22365 0.0028601 -0.0012504)
(0.22391 0.002306 -0.00072981)
(0.22474 0.0024489 -0.0006568)
(0.21766 0.0061103 -0.0019117)
(0.21985 0.0047487 -0.001675)
(0.22004 0.0041927 -0.0008567)
(0.22103 0.0047372 -0.00084316)
(0.21363 0.0069058 -0.0022092)
(0.21378 0.0064445 -0.00098108)
(0.21484 0.0074787 -0.0010583)
(0.21506 -0.0005845 0.00010559)
(0.21479 -0.00027469 0.00010317)
(0.21484 -0.00032447 7.9355e-05)
(0.21475 -0.00037996 9.6493e-05)
(0.21622 -0.0010162 0.00013743)
(0.21554 -0.00071373 0.0002323)
(0.21564 -0.00087659 0.00022132)
(0.21557 -0.0010653 0.00028307)
(0.21796 -0.0012684 8.5094e-05)
(0.21695 -0.00099458 0.00025658)
(0.21709 -0.0012877 0.00031707)
(0.21708 -0.0015815 0.00040276)
(0.22006 -0.0013143 -3.6432e-05)
(0.21885 -0.0011117 0.00018865)
(0.21903 -0.0015486 0.00036881)
(0.21911 -0.0019041 0.00045291)
(0.22218 -0.0011261 -0.00020745)
(0.22095 -0.0010313 3.6193e-05)
(0.22115 -0.0015886 0.00036287)
(0.22134 -0.0019503 0.0004206)
(0.22398 -0.00071292 -0.00040883)
(0.22292 -0.00075167 -0.00018462)
(0.22314 -0.0013852 0.00030176)
(0.22343 -0.0016925 0.00031027)
(0.22516 -0.00010474 -0.00061962)
(0.22442 -0.00029693 -0.0004549)
(0.22466 -0.00095664 0.00019653)
(0.22504 -0.001157 0.00014063)
(0.2255 0.00074746 -0.00080638)
(0.22519 0.00030241 -0.00074753)
(0.22544 -0.00031512 6.0545e-05)
(0.22591 -0.0003823 -7.0029e-05)
(0.22459 0.0019642 -0.0010198)
(0.22491 0.0011227 -0.0010796)
(0.22514 0.00071295 -0.00010948)
(0.22573 0.00074106 -0.0003146)
(0.22191 0.0035327 -0.0014717)
(0.22313 0.0023137 -0.0015392)
(0.22328 0.0020699 -0.00038685)
(0.22406 0.0024435 -0.00083468)
(0.21692 0.0053738 -0.0021439)
(0.21932 0.0038153 -0.0023217)
(0.2194 0.0036445 -0.00090276)
(0.22033 0.0044065 -0.0016385)
(0.21308 0.0055491 -0.0031919)
(0.21312 0.0054031 -0.0014296)
(0.2141 0.006649 -0.0024962)
(0.21511 -0.00040285 0.00023032)
(0.21482 -0.00018175 0.00018184)
(0.2149 -0.0002319 0.00014411)
(0.21482 -0.00027497 0.0001647)
(0.21625 -0.00067964 0.00036354)
(0.21556 -0.00045164 0.00045188)
(0.21569 -0.00062096 0.00038646)
(0.21563 -0.00076295 0.00045496)
(0.21797 -0.0008123 0.00038566)
(0.21696 -0.00059163 0.00059181)
(0.21712 -0.00089822 0.00055305)
(0.21712 -0.0011118 0.00064204)
(0.22002 -0.00079155 0.00029872)
(0.21884 -0.00060641 0.0006064)
(0.21902 -0.0010611 0.000639)
(0.2191 -0.0013097 0.00071549)
(0.22209 -0.00060801 0.00010837)
(0.22092 -0.000484 0.00048374)
(0.2211 -0.0010647 0.00061922)
(0.22128 -0.0013031 0.00064919)
(0.22384 -0.00027484 -0.00016921)
(0.22286 -0.0002327 0.0002321)
(0.22304 -0.00089969 0.00049078)
(0.22331 -0.0010801 0.00044424)
(0.22497 0.00018264 -0.00050975)
(0.22434 0.00012648 -0.00012729)
(0.22451 -0.00058164 0.00026784)
(0.22487 -0.00066412 0.00012535)
(0.22524 0.00078078 -0.00091695)
(0.22507 0.0005653 -0.00056577)
(0.22524 -0.00012131 -3.8325e-05)
(0.22567 -8.2088e-05 -0.00027955)
(0.2243 0.0015981 -0.0014724)
(0.22477 0.0011325 -0.0011321)
(0.22489 0.00058603 -0.00051263)
(0.22544 0.00077426 -0.00086786)
(0.22157 0.0027188 -0.0022664)
(0.22297 0.001939 -0.0019378)
(0.22299 0.001502 -0.0011402)
(0.22372 0.0019003 -0.0016524)
(0.21657 0.004098 -0.0032622)
(0.21915 0.0030479 -0.0030456)
(0.21908 0.0026732 -0.0019602)
(0.21995 0.0034523 -0.0027789)
(0.2129 0.0043149 -0.0043118)
(0.21278 0.0040091 -0.0028981)
(0.21371 0.0051819 -0.0040326)
(0.21511 -0.00023021 0.00040312)
(0.21479 -0.00010312 0.00027487)
(0.2149 -0.00014401 0.00023198)
(0.21482 -0.00016454 0.00027506)
(0.21625 -0.00036341 0.00068004)
(0.21554 -0.00023216 0.00071419)
(0.21569 -0.00038615 0.00062122)
(0.21563 -0.00045451 0.00076326)
(0.21797 -0.00038566 0.00081259)
(0.21695 -0.00025657 0.00099507)
(0.21712 -0.00055273 0.00089846)
(0.21712 -0.00064152 0.0011122)
(0.22002 -0.00029894 0.0007916)
(0.21885 -0.00018881 0.0011121)
(0.21902 -0.00063873 0.0010612)
(0.2191 -0.000715 0.0013099)
(0.22209 -0.00010894 0.00060771)
(0.22095 -3.6651e-05 0.0010313)
(0.2211 -0.00061912 0.0010645)
(0.22128 -0.00064886 0.001303)
(0.22384 0.00016822 0.00027419)
(0.22292 0.00018378 0.00075123)
(0.22304 -0.00049101 0.00089919)
(0.22331 -0.0004444 0.0010797)
(0.22497 0.00050864 -0.00018329)
(0.22442 0.00045363 0.00029594)
(0.22451 -0.00026842 0.00058089)
(0.22487 -0.00012613 0.0006637)
(0.22524 0.00091664 -0.00078078)
(0.22519 0.0007464 -0.00030333)
(0.22524 3.7902e-05 0.00012083)
(0.22567 0.00027866 8.2131e-05)
(0.2243 0.0014732 -0.0015971)
(0.22491 0.0010798 -0.0011218)
(0.22489 0.00051314 -0.0005854)
(0.22544 0.00086864 -0.0007735)
(0.22157 0.0022679 -0.002717)
(0.22313 0.00154 -0.0023123)
(0.22299 0.0011414 -0.0015006)
(0.22372 0.0016537 -0.0018987)
(0.21657 0.0032647 -0.0040954)
(0.21932 0.0023235 -0.0038128)
(0.21908 0.0019618 -0.0026711)
(0.21995 0.0027807 -0.0034499)
(0.21308 0.0031944 -0.0055459)
(0.21278 0.0029005 -0.0040061)
(0.21371 0.0040349 -0.0051784)
(0.21506 -0.00010552 0.00058487)
(0.21471 -2.191e-05 0.00035537)
(0.21484 -7.9267e-05 0.00032453)
(0.21475 -9.6362e-05 0.00038005)
(0.21622 -0.00013734 0.0010168)
(0.21547 1.5298e-07 0.00093484)
(0.21564 -0.00022091 0.00087686)
(0.21557 -0.00028243 0.0010655)
(0.21796 -8.5095e-05 0.0012691)
(0.21692 0.00010357 0.0013157)
(0.21709 -0.00031654 0.0012879)
(0.21708 -0.00040187 0.0015816)
(0.22006 3.6296e-05 0.0013149)
(0.21888 0.00027489 0.0014855)
(0.21903 -0.00036816 0.0015488)
(0.21911 -0.00045156 0.0019039)
(0.22218 0.00020702 0.0011263)
(0.22106 0.00047997 0.0013914)
(0.22115 -0.00036234 0.0015885)
(0.22134 -0.00041915 0.0019497)
(0.22398 0.00040803 0.00071246)
(0.22311 0.00069107 0.0010302)
(0.22314 -0.00030152 0.0013847)
(0.22343 -0.00030909 0.0016914)
(0.22516 0.00061882 0.00010396)
(0.22469 0.00088829 0.00043851)
(0.22466 -0.00019662 0.00095557)
(0.22504 -0.00013986 0.0011552)
(0.2255 0.00080639 -0.00074685)
(0.22555 0.0010351 -0.00032594)
(0.22544 -6.0469e-05 0.00031437)
(0.22591 7.1563e-05 0.00038061)
(0.22459 0.0010203 -0.0019626)
(0.22539 0.0010411 -0.0014104)
(0.22514 0.00011039 -0.00071056)
(0.22573 0.00031695 -0.0007402)
(0.22191 0.0014725 -0.0035308)
(0.22365 0.0012509 -0.002858)
(0.22328 0.00038743 -0.0020686)
(0.22406 0.00083559 -0.0024421)
(0.21692 0.0021455 -0.005371)
(0.21984 0.0016759 -0.0047463)
(0.2194 0.000904 -0.0036423)
(0.22033 0.0016397 -0.0044037)
(0.21363 0.0022108 -0.0069026)
(0.21312 0.0014311 -0.0054)
(0.2141 0.0024975 -0.0066451)
(0.21496 0.00010999 0.00073097)
(0.21457 6.6693e-05 0.00051202)
(0.21475 -1.6948e-05 0.0004196)
(0.21469 4.9793e-05 0.00047506)
(0.21615 0.00030004 0.0012923)
(0.21534 0.00025189 0.0013513)
(0.21556 -2.5838e-05 0.0011575)
(0.21553 0.00013457 0.0013713)
(0.21796 0.00056942 0.0016378)
(0.21683 0.00049745 0.0019148)
(0.21705 7.3916e-06 0.0017247)
(0.2171 0.00025501 0.002078)
(0.22016 0.00087767 0.0017211)
(0.21888 0.00079547 0.0021809)
(0.21905 6.7499e-05 0.002098)
(0.21921 0.00040091 0.0025467)
(0.22239 0.0011755 0.0015068)
(0.22118 0.001085 0.0020675)
(0.22127 0.00014988 0.0021835)
(0.22155 0.00054936 0.0026613)
(0.2243 0.0014315 0.0010163)
(0.22337 0.0013206 0.001555)
(0.22337 0.00024588 0.0019526)
(0.22375 0.00066932 0.0023857)
(0.22558 0.0016141 0.00031767)
(0.22507 0.001471 0.00066255)
(0.22499 0.00035842 0.0014336)
(0.22545 0.00072185 0.0017677)
(0.22609 0.0016484 -0.00061191)
(0.22607 0.001456 -0.00055784)
(0.2259 0.00049031 0.00066286)
(0.22641 0.00063705 0.00092674)
(0.22536 0.0015864 -0.001992)
(0.22609 0.0010579 -0.0022812)
(0.22574 0.00066743 -0.00058933)
(0.22637 0.00051486 -0.00034662)
(0.22256 0.0016748 -0.0038537)
(0.22445 0.00096701 -0.0042304)
(0.22391 0.00073033 -0.0023046)
(0.22474 0.00065892 -0.0024472)
(0.21766 0.0019126 -0.0061074)
(0.2207 0.0011239 -0.0066877)
(0.22004 0.00085752 -0.0041905)
(0.22103 0.00084454 -0.0047343)
(0.21455 0.0013121 -0.0095524)
(0.21378 0.00098223 -0.0064412)
(0.21484 0.0010591 -0.0074742)
(0.21477 -6.671e-08 0.00092328)
(0.21457 -6.682e-05 0.00051196)
(0.21445 -3.1638e-06 0.00068293)
(0.21445 3.3628e-06 0.00068327)
(0.21598 -1.5453e-07 0.0015249)
(0.21534 -0.00025219 0.0013512)
(0.2153 -5.2982e-05 0.0019147)
(0.2153 5.3913e-05 0.0019159)
(0.21786 -2.143e-07 0.0017365)
(0.21683 -0.0004979 0.0019145)
(0.21694 -0.00014257 0.0028407)
(0.21694 0.00014417 0.0028428)
(0.22018 -2.563e-07 0.0015291)
(0.21888 -0.00079578 0.0021806)
(0.21918 -0.00026647 0.0034149)
(0.21918 0.00026847 0.0034172)
(0.22257 -4.2915e-07 0.00089259)
(0.22118 -0.0010853 0.0020673)
(0.2217 -0.00039236 0.0034905)
(0.2217 0.0003938 0.0034926)
(0.22462 -8.6946e-07 -0.00015048)
(0.22337 -0.001321 0.0015548)
(0.2241 -0.00050706 0.0030027)
(0.2241 0.000507 0.0030037)
(0.22602 -1.3372e-06 -0.0015175)
(0.22507 -0.001472 0.00066216)
(0.22597 -0.00062171 0.0019498)
(0.22597 0.00061886 0.0019489)
(0.22669 -1.7395e-06 -0.0030873)
(0.22607 -0.0014594 -0.00055839)
(0.22709 -0.0007192 0.00039744)
(0.22709 0.00071556 0.00039743)
(0.22617 -1.0545e-06 -0.0049549)
(0.22608 -0.0010599 -0.002283)
(0.22722 -0.0004539 -0.0018342)
(0.22722 0.00045376 -0.0018308)
(0.22351 8.1019e-08 -0.0074762)
(0.22444 -0.00096923 -0.0042283)
(0.22579 -0.00033638 -0.0044056)
(0.22579 0.00033271 -0.0044096)
(0.21874 4.1476e-07 -0.010651)
(0.2207 -0.0011231 -0.0066878)
(0.22223 -0.00045477 -0.0074796)
(0.22223 0.00045528 -0.0074802)
(0.21454 -0.0013113 -0.0095516)
(0.21612 -0.00050492 -0.011053)
(0.21612 0.00050622 -0.011053)
(0.21496 -0.00073039 0.00011055)
(0.21475 -0.0004195 -1.6701e-05)
(0.21471 -0.00035511 -2.1569e-05)
(0.21469 -0.00047477 5.0182e-05)
(0.21615 -0.0012913 0.00030115)
(0.21556 -0.0011569 -2.516e-05)
(0.21547 -0.00093414 1.1948e-06)
(0.21553 -0.0013706 0.00013531)
(0.21796 -0.0016365 0.00057085)
(0.21705 -0.0017241 8.5016e-06)
(0.21692 -0.001315 0.00010541)
(0.2171 -0.0020776 0.00025572)
(0.22015 -0.0017195 0.00087904)
(0.21905 -0.0020973 6.8691e-05)
(0.21888 -0.0014848 0.00027702)
(0.21921 -0.0025466 0.00040087)
(0.22239 -0.0015053 0.001177)
(0.22127 -0.0021828 0.00015109)
(0.22105 -0.0013908 0.00048226)
(0.22155 -0.0026617 0.00054833)
(0.2243 -0.0010155 0.0014335)
(0.22336 -0.0019525 0.00024728)
(0.2231 -0.0010304 0.000694)
(0.22375 -0.0023873 0.00066738)
(0.22558 -0.00031681 0.0016172)
(0.22498 -0.0014343 0.00036053)
(0.22469 -0.00043927 0.00089183)
(0.22544 -0.0017707 0.00071953)
(0.22609 0.00061339 0.0016509)
(0.2259 -0.00066325 0.00049382)
(0.22555 0.0003264 0.0010385)
(0.22641 -0.00092843 0.00063685)
(0.22535 0.0019942 0.0015871)
(0.22574 0.00059023 0.00066922)
(0.22539 0.0014132 0.0010413)
(0.22637 0.00034695 0.00051407)
(0.22256 0.0038566 0.0016748)
(0.22391 0.0023059 0.00073096)
(0.22364 0.0028596 0.0012514)
(0.22474 0.0024492 0.00065786)
(0.21766 0.0061105 0.001912)
(0.22003 0.004193 0.00085749)
(0.21984 0.0047484 0.0016759)
(0.22102 0.0047371 0.0008433)
(0.21378 0.0064443 0.00098155)
(0.21363 0.0069056 0.0022095)
(0.21484 0.007479 0.0010586)
(0.21519 -0.00069238 4.7378e-07)
(0.21489 -0.00032795 2.6536e-05)
(0.21489 -0.00032786 -2.6107e-05)
(0.21644 -0.0012703 8.37e-07)
(0.21573 -0.00089146 8.7573e-05)
(0.21573 -0.00089136 -8.6299e-05)
(0.21827 -0.0016895 1.0859e-06)
(0.21722 -0.001306 0.00014685)
(0.21722 -0.001306 -0.00014487)
(0.22045 -0.0018999 1.1773e-06)
(0.2192 -0.0015622 0.00019742)
(0.2192 -0.0015621 -0.000195)
(0.22265 -0.0018502 1.1549e-06)
(0.22137 -0.0015944 0.00023452)
(0.22136 -0.0015944 -0.00023204)
(0.22453 -0.0015445 1.1538e-06)
(0.2234 -0.0013859 0.00025488)
(0.22339 -0.0013859 -0.00025231)
(0.22578 -0.0010167 1.2896e-06)
(0.22496 -0.00095809 0.00026967)
(0.22495 -0.00095811 -0.00026686)
(0.22625 -0.00019801 1.2379e-06)
(0.22579 -0.00032321 0.00029707)
(0.22579 -0.0003231 -0.00029419)
(0.22522 0.0010886 9.6914e-07)
(0.22549 0.00062779 0.00031254)
(0.22548 0.00062759 -0.00030992)
(0.22232 0.0027284 6.7838e-07)
(0.22355 0.001952 0.00019539)
(0.22355 0.0019519 -0.00019358)
(0.21726 0.0045999 5.5455e-07)
(0.21959 0.0034852 6.7683e-06)
(0.21959 0.0034852 -5.6716e-06)
(0.21327 0.0052687 -0.00018741)
(0.21327 0.0052687 0.00018862)
(0.21528 -0.00053054 0.00010951)
(0.21496 -0.00024436 8.8323e-05)
(0.21497 -0.00025115 2.7293e-05)
(0.21651 -0.00095351 0.00020678)
(0.21579 -0.00066272 0.00024575)
(0.2158 -0.00066368 7.8133e-05)
(0.21829 -0.0012442 0.00027739)
(0.21726 -0.00096995 0.00035973)
(0.21726 -0.00095947 0.0001123)
(0.2204 -0.0013711 0.00031637)
(0.21919 -0.0011594 0.0004285)
(0.21918 -0.0011365 0.00013113)
(0.22251 -0.0012972 0.00032147)
(0.2213 -0.001185 0.00043883)
(0.22127 -0.0011438 0.00012936)
(0.2243 -0.0010228 0.00030069)
(0.22326 -0.0010346 0.00038905)
(0.22321 -0.00096729 0.00011041)
(0.22547 -0.00056069 0.00027005)
(0.22475 -0.00072608 0.00029321)
(0.22469 -0.00061688 7.7303e-05)
(0.22576 0.00015026 0.00025696)
(0.22549 -0.00027014 0.00016567)
(0.2254 -8.8244e-05 3.2233e-05)
(0.22467 0.0011623 0.00017914)
(0.22511 0.00039507 -1.9377e-05)
(0.22499 0.00071929 -8.1721e-07)
(0.22178 0.0024349 -7.158e-05)
(0.22315 0.0013689 -0.00035041)
(0.223 0.0017355 -7.2045e-05)
(0.21667 0.00391 -0.00042479)
(0.21917 0.0025823 -0.00084725)
(0.21902 0.0029337 -0.00022178)
(0.21282 0.0039358 -0.0014108)
(0.21267 0.0042908 -0.00040568)
(0.21533 -0.00037507 0.00022546)
(0.21499 -0.00016174 0.00016181)
(0.21502 -0.00017012 9.1122e-05)
(0.21654 -0.00067043 0.00040698)
(0.21581 -0.00043889 0.00043915)
(0.21584 -0.00044794 0.00024322)
(0.2183 -0.00086813 0.00052754)
(0.21727 -0.00063843 0.00063872)
(0.21727 -0.00064426 0.0003513)
(0.22037 -0.00094947 0.00057466)
(0.21918 -0.00075702 0.00075728)
(0.21916 -0.00075894 0.00041114)
(0.22244 -0.00089187 0.00053698)
(0.22127 -0.00076681 0.0007669)
(0.22121 -0.00075849 0.00040529)
(0.22419 -0.00069927 0.00042041)
(0.22321 -0.00066178 0.00066167)
(0.22311 -0.00063619 0.00033105)
(0.22531 -0.00038556 0.00023899)
(0.22468 -0.00045777 0.00045748)
(0.22454 -0.00039929 0.00019427)
(0.22555 6.7398e-05 -1.7795e-05)
(0.2254 -0.00016666 0.00016659)
(0.22521 -4.5862e-05 -5.6005e-06)
(0.22443 0.00072984 -0.00042067)
(0.225 0.00025244 -0.00025169)
(0.22475 0.00047672 -0.00030724)
(0.22151 0.0016322 -0.0010102)
(0.22301 0.0008991 -0.00089812)
(0.22273 0.0011546 -0.0007078)
(0.21636 0.0027148 -0.0017269)
(0.21902 0.0017446 -0.0017429)
(0.21871 0.0019889 -0.00121)
(0.21266 0.0026987 -0.0026964)
(0.21235 0.0029466 -0.0017783)
(0.21533 -0.00022527 0.00037524)
(0.21496 -8.8263e-05 0.00024444)
(0.21502 -9.1043e-05 0.0001702)
(0.21654 -0.00040665 0.00067071)
(0.21579 -0.00024546 0.000663)
(0.21584 -0.00024292 0.00044822)
(0.2183 -0.00052715 0.00086838)
(0.21726 -0.00035934 0.00097024)
(0.21727 -0.00035095 0.0006446)
(0.22037 -0.00057431 0.00094955)
(0.21919 -0.00042801 0.0011596)
(0.21916 -0.00041077 0.00075925)
(0.22244 -0.00053679 0.00089171)
(0.2213 -0.00043841 0.0011849)
(0.22121 -0.00040505 0.00075863)
(0.22419 -0.00042044 0.00069887)
(0.22326 -0.00038878 0.0010342)
(0.22311 -0.00033102 0.00063608)
(0.22531 -0.00023908 0.00038518)
(0.22475 -0.00029314 0.00072536)
(0.22454 -0.00019446 0.00039894)
(0.22555 1.816e-05 -6.7215e-05)
(0.22549 -0.00016549 0.00026962)
(0.22521 5.5463e-06 4.5714e-05)
(0.22443 0.00042166 -0.0007289)
(0.22511 2.0286e-05 -0.00039441)
(0.22475 0.00030791 -0.00047599)
(0.22151 0.0010115 -0.0016307)
(0.22315 0.00035117 -0.001368)
(0.22273 0.00070899 -0.0011534)
(0.21636 0.0017286 -0.0027126)
(0.21917 0.00084855 -0.0025803)
(0.21871 0.0012114 -0.0019873)
(0.21282 0.0014124 -0.0039331)
(0.21235 0.0017803 -0.0029443)
(0.21528 -0.00010932 0.00053075)
(0.21489 -2.6449e-05 0.00032807)
(0.21497 -2.7225e-05 0.00025124)
(0.21651 -0.00020637 0.00095384)
(0.21573 -8.7178e-05 0.00089188)
(0.2158 -7.7829e-05 0.00066401)
(0.21829 -0.00027681 0.0012445)
(0.21722 -0.00014627 0.0013065)
(0.21726 -0.0001119 0.00095986)
(0.2204 -0.00031572 0.0013713)
(0.2192 -0.00019662 0.0015626)
(0.21918 -0.00013064 0.0011369)
(0.22251 -0.0003209 0.001297)
(0.22137 -0.00023372 0.0015945)
(0.22127 -0.00012902 0.0011442)
(0.2243 -0.00030024 0.0010221)
(0.2234 -0.00025414 0.0013856)
(0.22321 -0.00011025 0.00096724)
(0.22547 -0.00026957 0.00055996)
(0.22496 -0.00026907 0.00095721)
(0.22469 -7.7362e-05 0.00061646)
(0.22576 -0.00025558 -0.00014965)
(0.22579 -0.00029644 0.00032257)
(0.2254 -3.2209e-05 8.811e-05)
(0.22467 -0.00017761 -0.0011609)
(0.22549 -0.00031247 -0.00062786)
(0.22499 2.4582e-06 -0.00071778)
(0.22178 7.2557e-05 -0.0024334)
(0.22355 -0.00019478 -0.0019507)
(0.223 7.2414e-05 -0.0017345)
(0.21667 0.00042591 -0.0039076)
(0.21959 -5.9266e-06 -0.0034832)
(0.21902 0.00022278 -0.0029319)
(0.21327 0.00018845 -0.0052656)
(0.21267 0.00040687 -0.0042883)
(0.21519 -1.6378e-07 0.00069273)
(0.21475 1.6794e-05 0.00041969)
(0.21489 2.6254e-05 0.00032802)
(0.21644 -2.538e-07 0.0012709)
(0.21556 2.5497e-05 0.0011576)
(0.21573 8.6674e-05 0.00089187)
(0.21827 -2.9915e-07 0.00169)
(0.21705 -7.9242e-06 0.0017249)
(0.21722 0.00014536 0.0013066)
(0.22045 -3.3457e-07 0.0019001)
(0.21905 -6.8032e-05 0.0020982)
(0.2192 0.00019553 0.0015628)
(0.22265 -4.6111e-07 0.0018499)
(0.22127 -0.0001506 0.0021838)
(0.22136 0.00023229 0.0015948)
(0.22453 -7.5895e-07 0.0015434)
(0.22336 -0.00024689 0.0019529)
(0.22339 0.00025225 0.0013859)
(0.22578 -1.4513e-06 0.001015)
(0.22498 -0.00036027 0.0014339)
(0.22495 0.00026638 0.00095742)
(0.22625 -1.5836e-06 0.00019704)
(0.2259 -0.00049426 0.00066237)
(0.22578 0.00029294 0.00032221)
(0.22522 -1.1729e-06 -0.0010883)
(0.22574 -0.00066742 -0.00058699)
(0.22548 0.00030749 -0.00062565)
(0.22232 -4.7249e-07 -0.002727)
(0.22391 -0.00073118 -0.0023042)
(0.22355 0.00019304 -0.0019507)
(0.21725 2.5817e-07 -0.004597)
(0.22003 -0.00085686 -0.0041908)
(0.21959 6.3636e-06 -0.0034832)
(0.21378 -0.00098062 -0.0064409)
(0.21327 -0.00018754 -0.0052657)
(0.21496 -0.00011044 0.00073093)
(0.21471 2.1623e-05 0.00035534)
(0.21469 -4.9971e-05 0.00047519)
(0.21615 -0.00030082 0.0012923)
(0.21547 -1.0053e-06 0.00093491)
(0.21553 -0.00013483 0.0013717)
(0.21796 -0.00057031 0.0016379)
(0.21692 -0.00010501 0.001316)
(0.2171 -0.00025511 0.0020789)
(0.22015 -0.00087854 0.0017213)
(0.21888 -0.0002765 0.0014861)
(0.21921 -0.00040068 0.002548)
(0.22239 -0.0011764 0.0015073)
(0.22105 -0.00048183 0.0013923)
(0.22155 -0.00054902 0.0026628)
(0.2243 -0.0014327 0.0010171)
(0.2231 -0.00069327 0.0010314)
(0.22375 -0.00066884 0.0023876)
(0.22558 -0.0016168 0.00031764)
(0.22469 -0.00089101 0.0004397)
(0.22544 -0.00072188 0.0017698)
(0.22609 -0.0016519 -0.00061274)
(0.22555 -0.0010384 -0.00032703)
(0.22641 -0.00064159 0.00092557)
(0.22535 -0.0015879 -0.0019923)
(0.22538 -0.0010429 -0.0014126)
(0.22637 -0.00051574 -0.00034542)
(0.22256 -0.0016743 -0.0038538)
(0.22364 -0.0012512 -0.0028571)
(0.22474 -0.00066039 -0.0024484)
(0.21766 -0.001911 -0.0061075)
(0.21984 -0.001675 -0.004746)
(0.22102 -0.00084356 -0.0047348)
(0.21363 -0.0022088 -0.0069021)
(0.21484 -0.0010576 -0.0074748)
(0.21506 -0.0005845 -0.00010469)
(0.21484 -0.00032443 -7.8904e-05)
(0.21479 -0.00027472 -0.0001027)
(0.21475 -0.00037986 -9.5969e-05)
(0.21621 -0.0010163 -0.0001357)
(0.21564 -0.00087654 -0.00021989)
(0.21554 -0.00071378 -0.00023083)
(0.21557 -0.0010651 -0.00028141)
(0.21796 -0.0012687 -8.283e-05)
(0.21709 -0.0012877 -0.00031492)
(0.21695 -0.00099476 -0.00025433)
(0.21708 -0.0015814 -0.00040031)
(0.22005 -0.0013148 3.8901e-05)
(0.21902 -0.0015487 -0.00036617)
(0.21885 -0.0011121 -0.000186)
(0.2191 -0.0019042 -0.00044997)
(0.22218 -0.0011268 0.00021009)
(0.22115 -0.0015888 -0.0003601)
(0.22095 -0.0010319 -3.3443e-05)
(0.22133 -0.0019508 -0.00041771)
(0.22398 -0.00071348 0.00041176)
(0.22314 -0.0013855 -0.00029883)
(0.22291 -0.00075236 0.00018764)
(0.22343 -0.0016931 -0.00030719)
(0.22516 -0.00010497 0.00062253)
(0.22466 -0.0009568 -0.00019346)
(0.22442 -0.00029736 0.00045809)
(0.22504 -0.0011573 -0.00013726)
(0.22549 0.00074744 0.00080873)
(0.22544 -0.00031492 -5.7608e-05)
(0.22518 0.00030229 0.00075044)
(0.2259 -0.00038213 7.3035e-05)
(0.22458 0.0019639 0.0010213)
(0.22513 0.00071311 0.00011158)
(0.22491 0.0011224 0.0010818)
(0.22573 0.00074093 0.00031644)
(0.2219 0.0035321 0.0014725)
(0.22328 0.0020699 0.00038853)
(0.22313 0.002313 0.0015403)
(0.22406 0.0024433 0.00083604)
(0.21692 0.0053734 0.0021443)
(0.2194 0.0036441 0.00090351)
(0.21932 0.003815 0.0023222)
(0.22033 0.0044062 0.0016392)
(0.21311 0.0054031 0.0014304)
(0.21308 0.0055485 0.0031922)
(0.2141 0.0066489 0.0024969)
(0.21528 -0.00053052 -0.00010859)
(0.21497 -0.00025122 -2.6876e-05)
(0.21496 -0.00024436 -8.7874e-05)
(0.21651 -0.00095349 -0.00020504)
(0.2158 -0.00066376 -7.6833e-05)
(0.21579 -0.00066274 -0.00024435)
(0.21829 -0.0012442 -0.00027502)
(0.21726 -0.00095957 -0.00011029)
(0.21725 -0.00097 -0.00035753)
(0.22039 -0.0013712 -0.00031368)
(0.21917 -0.0011366 -0.00012857)
(0.21919 -0.0011595 -0.00042579)
(0.22251 -0.0012973 -0.00031865)
(0.22127 -0.001144 -0.00012658)
(0.22129 -0.0011852 -0.00043592)
(0.2243 -0.0010227 -0.00029771)
(0.22321 -0.00096736 -0.00010744)
(0.22326 -0.0010348 -0.00038596)
(0.22546 -0.0005605 -0.00026705)
(0.22468 -0.00061684 -7.4263e-05)
(0.22475 -0.00072613 -0.00028994)
(0.22575 0.00015057 -0.00025436)
(0.2254 -8.8225e-05 -2.9394e-05)
(0.22549 -0.00027004 -0.00016264)
(0.22467 0.0011625 -0.00017714)
(0.22498 0.00071931 2.8229e-06)
(0.22511 0.00039521 2.1831e-05)
(0.22178 0.0024349 7.2999e-05)
(0.223 0.0017352 7.3711e-05)
(0.22314 0.0013688 0.00035227)
(0.21666 0.00391 0.00042588)
(0.21901 0.0029337 0.00022312)
(0.21916 0.0025821 0.00084854)
(0.21267 0.0042905 0.00040679)
(0.21281 0.0039357 0.0014119)
(0.21536 -0.00038849 4.7831e-07)
(0.21503 -0.00017609 3.3658e-05)
(0.21503 -0.00017605 -3.321e-05)
(0.21656 -0.00068659 8.8398e-07)
(0.21585 -0.00046063 8.3819e-05)
(0.21585 -0.00046061 -8.2453e-05)
(0.21829 -0.00088673 1.2177e-06)
(0.21728 -0.00066503 0.00012049)
(0.21728 -0.00066502 -0.00011835)
(0.22033 -0.00096652 1.4469e-06)
(0.21915 -0.00078653 0.00014187)
(0.21915 -0.00078652 -0.00013914)
(0.22236 -0.00089734 1.5429e-06)
(0.22118 -0.00079119 0.00014197)
(0.22118 -0.00079113 -0.00013895)
(0.22407 -0.00067627 1.5515e-06)
(0.22306 -0.00066868 0.00011691)
(0.22306 -0.00066872 -0.00011372)
(0.22516 -0.00030691 1.5039e-06)
(0.22447 -0.00042681 6.9009e-05)
(0.22447 -0.00042689 -6.5783e-05)
(0.22533 0.0002533 1.2626e-06)
(0.22512 -6.2774e-05 -1.4763e-06)
(0.22511 -6.2795e-05 4.4859e-06)
(0.22415 0.0010386 1.0806e-06)
(0.22463 0.00048029 -0.00012252)
(0.22462 0.00048019 0.00012479)
(0.2212 0.0020104 9.0841e-07)
(0.22258 0.0011945 -0.00029214)
(0.22258 0.0011947 0.00029413)
(0.21607 0.0031106 7.5912e-07)
(0.21856 0.0020549 -0.00047729)
(0.21856 0.0020549 0.00047884)
(0.2122 0.0030095 -0.00066576)
(0.2122 0.0030097 0.00066716)
(0.2154 -0.00024943 0.00011545)
(0.21505 -0.00010184 0.00010191)
(0.21507 -0.00010341 3.0401e-05)
(0.21658 -0.00043818 0.00020405)
(0.21587 -0.00026303 0.00026332)
(0.21588 -0.00026938 8.2769e-05)
(0.21828 -0.00056296 0.00026285)
(0.21728 -0.00037901 0.00037934)
(0.21727 -0.00038679 0.000121)
(0.22028 -0.00060988 0.00028369)
(0.21913 -0.00044652 0.00044687)
(0.21911 -0.00045534 0.00014256)
(0.22227 -0.00056174 0.00025824)
(0.22114 -0.00044673 0.00044695)
(0.2211 -0.00045531 0.00014157)
(0.22393 -0.00041757 0.0001862)
(0.223 -0.000373 0.00037302)
(0.22293 -0.0003824 0.00011684)
(0.22498 -0.00017946 6.944e-05)
(0.22439 -0.00023068 0.00023049)
(0.2243 -0.00024033 7.0055e-05)
(0.22511 0.00017876 -0.00011051)
(0.22501 -1.8175e-05 1.8136e-05)
(0.22489 -2.6472e-05 1.7351e-07)
(0.22388 0.00067938 -0.00037244)
(0.2245 0.0003079 -0.0003072)
(0.22436 0.00028488 -0.00010287)
(0.2209 0.0013064 -0.00070289)
(0.22244 0.0007449 -0.00074382)
(0.22227 0.00068872 -0.00023953)
(0.21575 0.0020285 -0.0010694)
(0.21841 0.0012657 -0.0012642)
(0.21823 0.0011867 -0.00040969)
(0.21204 0.0018337 -0.0018318)
(0.21185 0.0017575 -0.00059868)
(0.2154 -0.00011526 0.00024962)
(0.21503 -3.3585e-05 0.00017617)
(0.21507 -3.033e-05 0.00010348)
(0.21658 -0.00020371 0.0004385)
(0.21585 -8.3526e-05 0.00046094)
(0.21588 -8.2484e-05 0.00026968)
(0.21828 -0.00026247 0.00056331)
(0.21728 -0.00012012 0.00066538)
(0.21727 -0.00012066 0.00038714)
(0.22028 -0.00028334 0.00061015)
(0.21915 -0.00014145 0.00078689)
(0.21911 -0.00014218 0.0004557)
(0.22227 -0.00025805 0.00056181)
(0.22118 -0.00014164 0.0007914)
(0.2211 -0.00014131 0.00045554)
(0.22393 -0.00018622 0.00041741)
(0.22306 -0.00011678 0.00066864)
(0.22293 -0.00011676 0.00038241)
(0.22498 -6.9525e-05 0.00017928)
(0.22447 -6.9073e-05 0.00042652)
(0.2243 -7.0173e-05 0.00024013)
(0.22511 0.00011084 -0.00017844)
(0.22511 1.4783e-06 6.2669e-05)
(0.22489 -2.2536e-07 2.643e-05)
(0.22388 0.00037337 -0.00067844)
(0.22462 0.00012324 -0.00047954)
(0.22436 0.00010353 -0.00028417)
(0.2209 0.00070412 -0.0013051)
(0.22258 0.00029314 -0.0011933)
(0.22227 0.00024058 -0.00068759)
(0.21574 0.0010709 -0.0020267)
(0.21856 0.00047845 -0.0020533)
(0.21823 0.00041089 -0.0011853)
(0.2122 0.00066728 -0.0030073)
(0.21185 0.00060033 -0.0017556)
(0.21536 -2.9751e-07 0.0003887)
(0.21497 2.696e-05 0.00025133)
(0.21503 3.3262e-05 0.00017614)
(0.21656 -5.4207e-07 0.00068695)
(0.2158 7.7146e-05 0.00066414)
(0.21585 8.2707e-05 0.00046094)
(0.21829 -7.8246e-07 0.00088713)
(0.21726 0.00011068 0.00096002)
(0.21728 0.00011869 0.00066542)
(0.22033 -1.0021e-06 0.00096688)
(0.21917 0.00012904 0.0011371)
(0.21915 0.00013956 0.00078696)
(0.22236 -1.2596e-06 0.00089745)
(0.22127 0.00012695 0.0011443)
(0.22118 0.00013927 0.00079148)
(0.22407 -1.5116e-06 0.00067605)
(0.22321 0.00010764 0.00096736)
(0.22306 0.00011383 0.00066874)
(0.22516 -1.5565e-06 0.00030663)
(0.22468 7.4208e-05 0.0006165)
(0.22447 6.5677e-05 0.00042659)
(0.22533 -7.0046e-07 -0.0002528)
(0.2254 2.9175e-05 8.7988e-05)
(0.22511 -4.5281e-06 6.2645e-05)
(0.22415 -4.2035e-07 -0.0010377)
(0.22498 -2.3894e-06 -0.00071779)
(0.22462 -0.00012383 -0.00047904)
(0.2212 -3.711e-07 -0.0020093)
(0.223 -7.3052e-05 -0.0017337)
(0.22258 -0.00029399 -0.0011941)
(0.21607 2.2448e-07 -0.0031086)
(0.21901 -0.00022235 -0.0029321)
(0.21856 -0.00047799 -0.0020534)
(0.21267 -0.00040563 -0.0042881)
(0.2122 -0.00066612 -0.0030077)
(0.21528 0.00010882 0.00053081)
(0.21484 7.9e-05 0.00032462)
(0.21496 8.7953e-05 0.0002445)
(0.21651 0.00020541 0.00095396)
(0.21564 0.00022015 0.00087708)
(0.21579 0.0002446 0.00066315)
(0.21829 0.00027544 0.0012448)
(0.21709 0.00031527 0.0012883)
(0.21725 0.00035788 0.00097051)