/*--------------------------------*- C++ -*----------------------------------*\
| =========                 |                                                 |
| \\      /  F ield         | OpenFOAM: The Open Source CFD Toolbox           |
|  \\    /   O peration     | Version:  4.1                                   |
|   \\  /    A nd           | Web:      www.OpenFOAM.org                      |
|    \\/     M anipulation  |                                                 |
\*---------------------------------------------------------------------------*/
FoamFile
{
    version     2.0;
    format      ascii;
    class       pointVectorField;
    location    "0.0072";
    object      pointDisplacement_Next;
}
// * * * * * * * * * * * * * * * * * * * * * * * * * * * * * * * * * * * * * //

dimensions      [0 1 0 0 0 0 0];

internalField   uniform (0 0 0);

boundaryField
{
    inlet
    {
        type            fixedValue;
        value           nonuniform 0();
    }
    outlet
    {
        type            fixedValue;
        value           nonuniform 0();
    }
    mantle
    {
        type            fixedValue;
        value           nonuniform List<vector> 
416
(
(3.3835e-05 1.7638e-05 -3.9766e-10)
(3.5858e-05 1.7576e-05 -4.9828e-10)
(3.5858e-05 1.7145e-05 -3.4166e-06)
(3.3823e-05 1.726e-05 -3.4816e-06)
(3.586e-05 1.5952e-05 -6.6176e-06)
(3.3809e-05 1.6123e-05 -6.719e-06)
(3.5862e-05 1.4159e-05 -9.4598e-06)
(3.3801e-05 1.4281e-05 -9.5277e-06)
(3.5864e-05 1.1965e-05 -1.1967e-05)
(3.3805e-05 1.2012e-05 -1.2013e-05)
(3.5862e-05 9.4591e-06 -1.4161e-05)
(3.3802e-05 9.5272e-06 -1.4282e-05)
(3.5861e-05 6.6171e-06 -1.5954e-05)
(3.381e-05 6.7187e-06 -1.6125e-05)
(3.5858e-05 3.416e-06 -1.7147e-05)
(3.3824e-05 3.4811e-06 -1.7263e-05)
(3.5858e-05 -3.6592e-10 -1.7578e-05)
(3.3836e-05 -4.262e-10 -1.7641e-05)
(3.7674e-05 1.4678e-05 -4.9092e-10)
(3.7691e-05 1.4261e-05 -2.8168e-06)
(3.7712e-05 1.3216e-05 -5.4613e-06)
(3.7712e-05 1.1736e-05 -7.8426e-06)
(3.7704e-05 9.9499e-06 -9.951e-06)
(3.7712e-05 7.8417e-06 -1.1738e-05)
(3.7712e-05 5.4606e-06 -1.3218e-05)
(3.7692e-05 2.8159e-06 -1.4263e-05)
(3.7675e-05 -4.2481e-10 -1.468e-05)
(3.9369e-05 8.807e-06 -7.2427e-10)
(3.9398e-05 8.5741e-06 -1.7164e-06)
(3.9434e-05 7.9251e-06 -3.2868e-06)
(3.9424e-05 6.9699e-06 -4.6444e-06)
(3.9406e-05 5.8523e-06 -5.8536e-06)
(3.9424e-05 4.6433e-06 -6.9711e-06)
(3.9434e-05 3.2857e-06 -7.9263e-06)
(3.9399e-05 1.7154e-06 -8.5752e-06)
(3.937e-05 -2.6244e-10 -8.8078e-06)
(4.0912e-05 8.113e-07 -5.8526e-10)
(4.0954e-05 8.1444e-07 -2.1889e-07)
(4.1006e-05 7.0743e-07 -3.2353e-07)
(4.0984e-05 4.6069e-07 -2.7554e-07)
(4.0954e-05 2.5781e-07 -2.5895e-07)
(4.0984e-05 2.7428e-07 -4.6167e-07)
(4.1006e-05 3.222e-07 -7.0821e-07)
(4.0955e-05 2.1763e-07 -8.1496e-07)
(4.0913e-05 -4.6914e-10 -8.1147e-07)
(4.2214e-05 -8.3904e-06 4.3311e-10)
(4.2241e-05 -8.2247e-06 1.5937e-06)
(4.2281e-05 -7.7917e-06 3.2075e-06)
(4.2282e-05 -7.1447e-06 4.7979e-06)
(4.2272e-05 -6.1662e-06 6.1665e-06)
(4.2282e-05 -4.7993e-06 7.1438e-06)
(4.2281e-05 -3.2089e-06 7.7911e-06)
(4.2242e-05 -1.5951e-06 8.2245e-06)
(4.2215e-05 -1.5363e-09 8.3906e-06)
(4.3075e-05 -1.8436e-05 -6.2903e-10)
(4.3094e-05 -1.8076e-05 3.5698e-06)
(4.3126e-05 -1.7044e-05 7.0596e-06)
(4.3141e-05 -1.5433e-05 1.034e-05)
(4.3145e-05 -1.3188e-05 1.3187e-05)
(4.3142e-05 -1.0342e-05 1.5432e-05)
(4.3127e-05 -7.0611e-06 1.7043e-05)
(4.3094e-05 -3.5712e-06 1.8077e-05)
(4.3076e-05 -4.9767e-10 1.8436e-05)
(4.3313e-05 -2.9169e-05 -7.4018e-10)
(4.3346e-05 -2.8575e-05 5.6583e-06)
(4.3393e-05 -2.6891e-05 1.1145e-05)
(4.3391e-05 -2.4255e-05 1.6246e-05)
(4.3377e-05 -2.0691e-05 2.0689e-05)
(4.3391e-05 -1.6247e-05 2.4254e-05)
(4.3394e-05 -1.1146e-05 2.6891e-05)
(4.3346e-05 -5.6596e-06 2.8575e-05)
(4.3313e-05 -3.8405e-10 2.917e-05)
(4.2863e-05 -4.0397e-05 -6.1855e-10)
(4.2917e-05 -3.9551e-05 7.8305e-06)
(4.2985e-05 -3.7168e-05 1.5397e-05)
(4.296e-05 -3.348e-05 2.2414e-05)
(4.2923e-05 -2.8537e-05 2.8536e-05)
(4.296e-05 -2.2416e-05 3.348e-05)
(4.2985e-05 -1.5398e-05 3.7168e-05)
(4.2917e-05 -7.8316e-06 3.9551e-05)
(4.2864e-05 -4.3992e-10 4.0397e-05)
(4.1753e-05 -5.1868e-05 -6.9278e-10)
(4.1788e-05 -5.0802e-05 1.0073e-05)
(4.1839e-05 -4.7744e-05 1.9769e-05)
(4.184e-05 -4.2944e-05 2.8721e-05)
(4.1828e-05 -3.6548e-05 3.6547e-05)
(4.184e-05 -2.8721e-05 4.2944e-05)
(4.184e-05 -1.977e-05 4.7743e-05)
(4.1789e-05 -1.0074e-05 5.0802e-05)
(4.1754e-05 -1.5738e-10 5.1868e-05)
(4.0016e-05 -6.324e-05 -4.1852e-10)
(4.0039e-05 -6.1942e-05 1.2296e-05)
(4.008e-05 -5.8207e-05 2.4112e-05)
(4.0098e-05 -5.2307e-05 3.4974e-05)
(4.0104e-05 -4.4484e-05 4.4484e-05)
(4.0098e-05 -3.4974e-05 5.2307e-05)
(4.008e-05 -2.4113e-05 5.8206e-05)
(4.0039e-05 -1.2297e-05 6.1941e-05)
(4.0017e-05 -1.9722e-10 6.3241e-05)
(3.7767e-05 -7.4051e-05 -5.2153e-10)
(3.78e-05 -7.2528e-05 1.4415e-05)
(3.7848e-05 -6.8132e-05 2.8243e-05)
(3.7852e-05 -6.1194e-05 4.0928e-05)
(3.7842e-05 -5.2027e-05 5.2027e-05)
(3.7852e-05 -4.0928e-05 6.1193e-05)
(3.7849e-05 -2.8243e-05 6.8131e-05)
(3.78e-05 -1.4416e-05 7.2529e-05)
(3.7767e-05 1.0121e-10 7.4053e-05)
(3.5205e-05 -8.3786e-05 -1.6367e-10)
(3.5253e-05 -8.2047e-05 1.6307e-05)
(3.5309e-05 -7.7041e-05 3.1949e-05)
(3.5289e-05 -6.9186e-05 4.6284e-05)
(3.5256e-05 -5.882e-05 5.882e-05)
(3.5289e-05 -4.6284e-05 6.9186e-05)
(3.5309e-05 -3.1949e-05 7.7041e-05)
(3.5253e-05 -1.6307e-05 8.2049e-05)
(3.5205e-05 -2.3683e-11 8.3791e-05)
(3.5858e-05 -3.4169e-06 -1.7147e-05)
(3.3824e-05 -3.4819e-06 -1.7263e-05)
(3.5861e-05 -6.6179e-06 -1.5954e-05)
(3.381e-05 -6.7195e-06 -1.6125e-05)
(3.5862e-05 -9.4599e-06 -1.4161e-05)
(3.3802e-05 -9.528e-06 -1.4282e-05)
(3.5864e-05 -1.1966e-05 -1.1966e-05)
(3.3805e-05 -1.2013e-05 -1.2013e-05)
(3.5862e-05 -1.416e-05 -9.4596e-06)
(3.3801e-05 -1.4282e-05 -9.5277e-06)
(3.586e-05 -1.5953e-05 -6.6175e-06)
(3.3809e-05 -1.6124e-05 -6.7191e-06)
(3.5858e-05 -1.7146e-05 -3.4166e-06)
(3.3823e-05 -1.7262e-05 -3.4816e-06)
(3.5858e-05 -1.7578e-05 -3.7491e-10)
(3.3835e-05 -1.764e-05 -3.3301e-10)
(3.7692e-05 -2.8167e-06 -1.4263e-05)
(3.7712e-05 -5.4613e-06 -1.3217e-05)
(3.7712e-05 -7.8424e-06 -1.1737e-05)
(3.7704e-05 -9.9506e-06 -9.9506e-06)
(3.7712e-05 -1.1737e-05 -7.8422e-06)
(3.7712e-05 -1.3217e-05 -5.4611e-06)
(3.7691e-05 -1.4262e-05 -2.8166e-06)
(3.7674e-05 -1.468e-05 -3.0711e-10)
(3.9399e-05 -1.7162e-06 -8.5749e-06)
(3.9434e-05 -3.2864e-06 -7.9257e-06)
(3.9424e-05 -4.644e-06 -6.9705e-06)
(3.9406e-05 -5.853e-06 -5.8527e-06)
(3.9424e-05 -6.9704e-06 -4.6438e-06)
(3.9434e-05 -7.9256e-06 -3.2862e-06)
(3.9398e-05 -8.5748e-06 -1.7161e-06)
(3.937e-05 -8.808e-06 -4.6485e-10)
(4.0955e-05 -2.1849e-07 -8.1448e-07)
(4.1006e-05 -3.2288e-07 -7.074e-07)
(4.0984e-05 -2.748e-07 -4.6075e-07)
(4.0954e-05 -2.5816e-07 -2.5805e-07)
(4.0984e-05 -4.6082e-07 -2.7465e-07)
(4.1006e-05 -7.0746e-07 -3.2273e-07)
(4.0954e-05 -8.1467e-07 -2.1834e-07)
(4.0912e-05 -8.1197e-07 -2.4878e-10)
(4.2242e-05 1.5942e-06 8.2252e-06)
(4.2281e-05 3.2083e-06 7.7922e-06)
(4.2282e-05 4.799e-06 7.1451e-06)
(4.2272e-05 6.1662e-06 6.1677e-06)
(4.2282e-05 7.145e-06 4.7991e-06)
(4.2281e-05 7.792e-06 3.2085e-06)
(4.2241e-05 8.2249e-06 1.5944e-06)
(4.2214e-05 8.3901e-06 8.6737e-10)
(4.3094e-05 3.5704e-06 1.8077e-05)
(4.3127e-05 7.0606e-06 1.7045e-05)
(4.3142e-05 1.0341e-05 1.5434e-05)
(4.3145e-05 1.3188e-05 1.3188e-05)
(4.3142e-05 1.5433e-05 1.0342e-05)
(4.3126e-05 1.7044e-05 7.0608e-06)
(4.3094e-05 1.8077e-05 3.5707e-06)
(4.3075e-05 1.8436e-05 -1.1467e-10)
(4.3346e-05 5.6588e-06 2.8576e-05)
(4.3394e-05 1.1146e-05 2.6893e-05)
(4.3391e-05 1.6247e-05 2.4256e-05)
(4.3377e-05 2.0691e-05 2.0691e-05)
(4.3391e-05 2.4256e-05 1.6247e-05)
(4.3394e-05 2.6892e-05 1.1146e-05)
(4.3346e-05 2.8575e-05 5.6592e-06)
(4.3313e-05 2.917e-05 -1.4349e-10)
(4.2917e-05 7.831e-06 3.9552e-05)
(4.2985e-05 1.5398e-05 3.717e-05)
(4.296e-05 2.2416e-05 3.3481e-05)
(4.2923e-05 2.8537e-05 2.8538e-05)
(4.296e-05 3.3481e-05 2.2416e-05)
(4.2985e-05 3.7169e-05 1.5398e-05)
(4.2917e-05 3.9552e-05 7.8314e-06)
(4.2864e-05 4.0397e-05 1.6019e-11)
(4.1789e-05 1.0073e-05 5.0803e-05)
(4.184e-05 1.977e-05 4.7745e-05)
(4.184e-05 2.8722e-05 4.2945e-05)
(4.1828e-05 3.6548e-05 3.6548e-05)
(4.184e-05 4.2945e-05 2.8722e-05)
(4.1839e-05 4.7744e-05 1.977e-05)
(4.1788e-05 5.0802e-05 1.0074e-05)
(4.1754e-05 5.1868e-05 -1.4321e-10)
(4.0039e-05 1.2297e-05 6.1942e-05)
(4.008e-05 2.4113e-05 5.8208e-05)
(4.0098e-05 3.4975e-05 5.2308e-05)
(4.0104e-05 4.4485e-05 4.4486e-05)
(4.0098e-05 5.2308e-05 3.4975e-05)
(4.008e-05 5.8207e-05 2.4113e-05)
(4.0039e-05 6.1941e-05 1.2297e-05)
(4.0016e-05 6.324e-05 4.68e-11)
(3.78e-05 1.4416e-05 7.253e-05)
(3.7849e-05 2.8244e-05 6.8133e-05)
(3.7852e-05 4.0929e-05 6.1195e-05)
(3.7842e-05 5.2029e-05 5.2029e-05)
(3.7852e-05 6.1194e-05 4.0929e-05)
(3.7849e-05 6.8132e-05 2.8243e-05)
(3.78e-05 7.2528e-05 1.4416e-05)
(3.7767e-05 7.4051e-05 3.7414e-10)
(3.5253e-05 1.6307e-05 8.205e-05)
(3.5309e-05 3.195e-05 7.7043e-05)
(3.5289e-05 4.6286e-05 6.9188e-05)
(3.5256e-05 5.8822e-05 5.8822e-05)
(3.5289e-05 6.9187e-05 4.6285e-05)
(3.5309e-05 7.7041e-05 3.1949e-05)
(3.5253e-05 8.2047e-05 1.6307e-05)
(3.5205e-05 8.3787e-05 2.3635e-10)
(3.5858e-05 -1.7147e-05 3.4161e-06)
(3.3823e-05 -1.7263e-05 3.4811e-06)
(3.586e-05 -1.5954e-05 6.6173e-06)
(3.3809e-05 -1.6125e-05 6.7188e-06)
(3.5861e-05 -1.4161e-05 9.4596e-06)
(3.3801e-05 -1.4282e-05 9.5275e-06)
(3.5863e-05 -1.1967e-05 1.1966e-05)
(3.3804e-05 -1.2014e-05 1.2013e-05)
(3.5861e-05 -9.4602e-06 1.416e-05)
(3.3801e-05 -9.5281e-06 1.4282e-05)
(3.586e-05 -6.6179e-06 1.5953e-05)
(3.3809e-05 -6.7194e-06 1.6124e-05)
(3.5857e-05 -3.4169e-06 1.7146e-05)
(3.3823e-05 -3.4819e-06 1.7262e-05)
(3.5857e-05 -6.1264e-10 1.7577e-05)
(3.3835e-05 -5.2459e-10 1.7639e-05)
(3.7691e-05 -1.4263e-05 2.8161e-06)
(3.7711e-05 -1.3218e-05 5.461e-06)
(3.7712e-05 -1.1739e-05 7.8424e-06)
(3.7703e-05 -9.9517e-06 9.9507e-06)
(3.7711e-05 -7.843e-06 1.1737e-05)
(3.7711e-05 -5.4616e-06 1.3217e-05)
(3.7691e-05 -2.8169e-06 1.4262e-05)
(3.7673e-05 -6.0374e-10 1.4678e-05)
(3.9398e-05 -8.5759e-06 1.7157e-06)
(3.9434e-05 -7.9274e-06 3.2863e-06)
(3.9423e-05 -6.9722e-06 4.6442e-06)
(3.9405e-05 -5.8545e-06 5.8532e-06)
(3.9423e-05 -4.645e-06 6.9708e-06)
(3.9433e-05 -3.287e-06 7.9256e-06)
(3.9397e-05 -1.7165e-06 8.5742e-06)
(3.9369e-05 -8.6797e-10 8.8065e-06)
(4.0954e-05 -8.1592e-07 2.1807e-07)
(4.1005e-05 -7.0955e-07 3.2295e-07)
(4.0984e-05 -4.6303e-07 2.753e-07)
(4.0953e-05 -2.6002e-07 2.5893e-07)
(4.0984e-05 -2.762e-07 4.6161e-07)
(4.1005e-05 -3.2379e-07 7.0791e-07)
(4.0954e-05 -2.1898e-07 8.1439e-07)
(4.0912e-05 -7.8274e-10 8.1067e-07)
(4.2241e-05 8.2237e-06 -1.5946e-06)
(4.228e-05 7.7899e-06 -3.2082e-06)
(4.2281e-05 7.1425e-06 -4.7982e-06)
(4.2271e-05 6.1653e-06 -6.1651e-06)
(4.2281e-05 4.7971e-06 -7.1437e-06)
(4.228e-05 3.2071e-06 -7.7911e-06)
(4.2241e-05 1.5935e-06 -8.2247e-06)
(4.2214e-05 -1.9458e-09 -8.391e-06)
(4.3093e-05 1.8076e-05 -3.5707e-06)
(4.3126e-05 1.7043e-05 -7.0605e-06)
(4.3141e-05 1.5431e-05 -1.0341e-05)
(4.3144e-05 1.3186e-05 -1.3187e-05)
(4.3141e-05 1.0339e-05 -1.5432e-05)
(4.3126e-05 7.0591e-06 -1.7043e-05)
(4.3093e-05 3.5695e-06 -1.8076e-05)
(4.3075e-05 -9.7224e-10 -1.8436e-05)
(4.3345e-05 2.8575e-05 -5.6592e-06)
(4.3393e-05 2.6891e-05 -1.1146e-05)
(4.339e-05 2.4254e-05 -1.6247e-05)
(4.3376e-05 2.0689e-05 -2.069e-05)
(4.339e-05 1.6245e-05 -2.4254e-05)
(4.3393e-05 1.1144e-05 -2.6891e-05)
(4.3345e-05 5.6578e-06 -2.8574e-05)
(4.3312e-05 -1.1091e-09 -2.917e-05)
(4.2916e-05 3.9551e-05 -7.8314e-06)
(4.2984e-05 3.7168e-05 -1.5398e-05)
(4.2959e-05 3.348e-05 -2.2415e-05)
(4.2922e-05 2.8536e-05 -2.8537e-05)
(4.2959e-05 2.2414e-05 -3.3479e-05)
(4.2984e-05 1.5396e-05 -3.7167e-05)
(4.2916e-05 7.83e-06 -3.955e-05)
(4.2863e-05 -9.4868e-10 -4.0397e-05)
(4.1788e-05 5.0802e-05 -1.0074e-05)
(4.1839e-05 4.7743e-05 -1.977e-05)
(4.1839e-05 4.2944e-05 -2.8721e-05)
(4.1827e-05 3.6547e-05 -3.6547e-05)
(4.1839e-05 2.872e-05 -4.2943e-05)
(4.1839e-05 1.9768e-05 -4.7742e-05)
(4.1788e-05 1.0072e-05 -5.08e-05)
(4.1753e-05 -6.3567e-10 -5.1866e-05)
(4.0039e-05 6.1941e-05 -1.2297e-05)
(4.0079e-05 5.8206e-05 -2.4112e-05)
(4.0098e-05 5.2306e-05 -3.4973e-05)
(4.0103e-05 4.4483e-05 -4.4484e-05)
(4.0097e-05 3.4973e-05 -5.2306e-05)
(4.0079e-05 2.4111e-05 -5.8204e-05)
(4.0038e-05 1.2296e-05 -6.1938e-05)
(4.0016e-05 -6.1883e-10 -6.3236e-05)
(3.78e-05 7.2527e-05 -1.4415e-05)
(3.7848e-05 6.813e-05 -2.8242e-05)
(3.7852e-05 6.1192e-05 -4.0927e-05)
(3.7841e-05 5.2027e-05 -5.2026e-05)
(3.7851e-05 4.0927e-05 -6.1192e-05)
(3.7848e-05 2.8242e-05 -6.8129e-05)
(3.78e-05 1.4414e-05 -7.2523e-05)
(3.7767e-05 -3.0476e-10 -7.4045e-05)
(3.5253e-05 8.2046e-05 -1.6306e-05)
(3.5309e-05 7.7039e-05 -3.1948e-05)
(3.5288e-05 6.9185e-05 -4.6283e-05)
(3.5255e-05 5.882e-05 -5.8819e-05)
(3.5288e-05 4.6283e-05 -6.9185e-05)
(3.5308e-05 3.1948e-05 -7.7038e-05)
(3.5252e-05 1.6306e-05 -8.2042e-05)
(3.5204e-05 -4.1513e-10 -8.3781e-05)
(3.5857e-05 3.4158e-06 1.7146e-05)
(3.3823e-05 3.4809e-06 1.7262e-05)
(3.586e-05 6.6168e-06 1.5953e-05)
(3.3809e-05 6.7186e-06 1.6124e-05)
(3.5861e-05 9.4591e-06 1.416e-05)
(3.3801e-05 9.5274e-06 1.4282e-05)
(3.5863e-05 1.1966e-05 1.1966e-05)
(3.3804e-05 1.2013e-05 1.2013e-05)
(3.5861e-05 1.416e-05 9.4592e-06)
(3.3801e-05 1.4281e-05 9.5273e-06)
(3.586e-05 1.5953e-05 6.6169e-06)
(3.3809e-05 1.6123e-05 6.7185e-06)
(3.5858e-05 1.7145e-05 3.4158e-06)
(3.3823e-05 1.7261e-05 3.4809e-06)
(3.769e-05 2.8156e-06 1.4261e-05)
(3.7711e-05 5.4602e-06 1.3216e-05)
(3.7711e-05 7.8415e-06 1.1737e-05)
(3.7703e-05 9.9501e-06 9.9503e-06)
(3.7711e-05 1.1737e-05 7.8419e-06)
(3.7711e-05 1.3216e-05 5.4606e-06)
(3.7691e-05 1.4262e-05 2.8158e-06)
(3.9397e-05 1.715e-06 8.5736e-06)
(3.9433e-05 3.2853e-06 7.9247e-06)
(3.9423e-05 4.6432e-06 6.97e-06)
(3.9405e-05 5.8524e-06 5.8529e-06)
(3.9423e-05 6.9704e-06 4.6438e-06)
(3.9433e-05 7.9256e-06 3.2859e-06)
(3.9398e-05 8.5744e-06 1.7154e-06)
(4.0954e-05 2.1722e-07 8.1355e-07)
(4.1005e-05 3.2174e-07 7.0664e-07)
(4.0983e-05 2.741e-07 4.6054e-07)
(4.0953e-05 2.5804e-07 2.5828e-07)
(4.0983e-05 4.6113e-07 2.7484e-07)
(4.1005e-05 7.0785e-07 3.2254e-07)
(4.0954e-05 8.147e-07 2.1775e-07)
(4.224e-05 -1.5955e-06 -8.2256e-06)
(4.228e-05 -3.2093e-06 -7.7925e-06)
(4.228e-05 -4.7994e-06 -7.145e-06)
(4.2271e-05 -6.1661e-06 -6.1673e-06)
(4.2281e-05 -7.1444e-06 -4.7987e-06)
(4.228e-05 -7.7913e-06 -3.2085e-06)
(4.2241e-05 -8.2245e-06 -1.5949e-06)
(4.3093e-05 -3.5716e-06 -1.8077e-05)
(4.3125e-05 -7.0614e-06 -1.7044e-05)
(4.314e-05 -1.0342e-05 -1.5433e-05)
(4.3144e-05 -1.3188e-05 -1.3188e-05)
(4.314e-05 -1.5433e-05 -1.0341e-05)
(4.3126e-05 -1.7043e-05 -7.0607e-06)
(4.3093e-05 -1.8076e-05 -3.571e-06)
(4.3345e-05 -5.66e-06 -2.8575e-05)
(4.3393e-05 -1.1146e-05 -2.6892e-05)
(4.339e-05 -1.6247e-05 -2.4255e-05)
(4.3376e-05 -2.0691e-05 -2.069e-05)
(4.339e-05 -2.4255e-05 -1.6247e-05)
(4.3393e-05 -2.6891e-05 -1.1146e-05)
(4.3345e-05 -2.8574e-05 -5.6595e-06)
(4.2916e-05 -7.832e-06 -3.9551e-05)
(4.2984e-05 -1.5398e-05 -3.7168e-05)
(4.2959e-05 -2.2416e-05 -3.348e-05)
(4.2922e-05 -2.8538e-05 -2.8537e-05)
(4.2959e-05 -3.3481e-05 -2.2415e-05)
(4.2984e-05 -3.7168e-05 -1.5398e-05)
(4.2916e-05 -3.9551e-05 -7.8316e-06)
(4.1788e-05 -1.0074e-05 -5.08e-05)
(4.1839e-05 -1.977e-05 -4.7743e-05)
(4.1839e-05 -2.8722e-05 -4.2944e-05)
(4.1827e-05 -3.6548e-05 -3.6548e-05)
(4.1839e-05 -4.2945e-05 -2.8722e-05)
(4.1839e-05 -4.7744e-05 -1.977e-05)
(4.1788e-05 -5.0802e-05 -1.0074e-05)
(4.0039e-05 -1.2297e-05 -6.1938e-05)
(4.008e-05 -2.4113e-05 -5.8205e-05)
(4.0098e-05 -3.4974e-05 -5.2307e-05)
(4.0103e-05 -4.4485e-05 -4.4484e-05)
(4.0098e-05 -5.2308e-05 -3.4974e-05)
(4.0079e-05 -5.8207e-05 -2.4113e-05)
(4.0039e-05 -6.1941e-05 -1.2297e-05)
(3.78e-05 -1.4415e-05 -7.2523e-05)
(3.7848e-05 -2.8242e-05 -6.8129e-05)
(3.7852e-05 -4.0928e-05 -6.1193e-05)
(3.7842e-05 -5.2028e-05 -5.2027e-05)
(3.7852e-05 -6.1194e-05 -4.0928e-05)
(3.7848e-05 -6.8131e-05 -2.8243e-05)
(3.78e-05 -7.2527e-05 -1.4416e-05)
(3.5253e-05 -1.6306e-05 -8.2041e-05)
(3.5309e-05 -3.1948e-05 -7.7038e-05)
(3.5289e-05 -4.6284e-05 -6.9185e-05)
(3.5256e-05 -5.8821e-05 -5.882e-05)
(3.5289e-05 -6.9186e-05 -4.6283e-05)
(3.5309e-05 -7.704e-05 -3.1948e-05)
(3.5253e-05 -8.2046e-05 -1.6307e-05)
)
;
    }
    procBoundary1to0
    {
        type            processor;
    }
    procBoundary1to2
    {
        type            processor;
    }
}


// ************************************************************************* //
