/*--------------------------------*- C++ -*----------------------------------*\
| =========                 |                                                 |
| \\      /  F ield         | OpenFOAM: The Open Source CFD Toolbox           |
|  \\    /   O peration     | Version:  4.1                                   |
|   \\  /    A nd           | Web:      www.OpenFOAM.org                      |
|    \\/     M anipulation  |                                                 |
\*---------------------------------------------------------------------------*/
FoamFile
{
    version     2.0;
    format      ascii;
    class       surfaceVectorField;
    location    "0.0072";
    object      Uf;
}
// * * * * * * * * * * * * * * * * * * * * * * * * * * * * * * * * * * * * * //

dimensions      [0 1 -1 0 0 0 0];

internalField   nonuniform List<vector> 
4288
(
(0.15993 0.02589 2.3655e-06)
(0.16788 0.019581 -0.0018745)
(0.16788 0.01958 0.0018797)
(0.16952 0.023539 0.00073585)
(0.16952 0.023541 -0.00073041)
(0.14061 0.028238 2.0612e-06)
(0.15007 0.022365 -0.00174)
(0.15007 0.022365 0.0017448)
(0.15124 0.027173 0.0006472)
(0.15124 0.027175 -0.00064113)
(0.11961 0.029303 1.3527e-06)
(0.1301 0.024095 -0.0014615)
(0.1301 0.024095 0.0014651)
(0.1308 0.029535 0.00048949)
(0.1308 0.029531 -0.00049023)
(0.097813 0.029242 7.3404e-07)
(0.10886 0.024829 -0.0010788)
(0.10886 0.024829 0.001081)
(0.10915 0.03068 0.00029492)
(0.10915 0.030679 -0.00029401)
(0.075962 0.028246 4.4639e-09)
(0.087177 0.024714 -0.00062884)
(0.087176 0.024714 0.00063014)
(0.087119 0.030802 8.2239e-05)
(0.087118 0.0308 -8.4157e-05)
(0.05467 0.026416 -3.2177e-07)
(0.065714 0.02386 -0.00014611)
(0.065714 0.02386 0.00014593)
(0.065353 0.030044 -0.00011706)
(0.065353 0.030042 0.00011423)
(0.034557 0.023707 -3.0793e-07)
(0.045105 0.022279 0.0003667)
(0.045105 0.02228 -0.0003669)
(0.044444 0.028421 -0.00029619)
(0.044444 0.02842 0.00029431)
(0.016373 0.019979 -2.9128e-07)
(0.026025 0.019891 0.00092229)
(0.026025 0.019892 -0.00092296)
(0.025036 0.025826 -0.00046084)
(0.025036 0.025826 0.00045989)
(0.0010332 0.015083 -1.756e-07)
(0.0092439 0.016582 0.00152)
(0.0092444 0.016583 -0.0015204)
(0.007894 0.022086 -0.00062098)
(0.007894 0.022086 0.00062069)
(-0.010138 0.0093729 -1.9137e-07)
(-0.0045486 0.0123 0.002133)
(-0.0045482 0.012301 -0.0021331)
(-0.0061473 0.017 -0.00078055)
(-0.0061473 0.016998 0.00077796)
(-0.017472 0.0038252 -6.0632e-07)
(-0.014387 0.0075906 0.0025601)
(-0.014386 0.0075918 -0.0025603)
(-0.015939 0.011282 -0.0010563)
(-0.015939 0.011286 0.0010587)
(-0.020326 0.0033096 0.0024855)
(-0.020326 0.0033109 -0.0024864)
(-0.021539 0.0057423 -0.0014263)
(-0.021539 0.0057534 0.0014353)
(0.15885 0.016628 -0.0030396)
(0.16688 0.014256 -0.0038978)
(0.16698 0.013877 -0.0015889)
(0.16814 0.016497 -0.0017061)
(0.13984 0.018494 -0.002929)
(0.14931 0.016314 -0.0041728)
(0.14939 0.016172 -0.0017017)
(0.15023 0.019256 -0.0017877)
(0.11915 0.019496 -0.0026644)
(0.12959 0.017582 -0.0042089)
(0.12965 0.01772 -0.0017509)
(0.13017 0.021086 -0.0017732)
(0.097643 0.019717 -0.0022905)
(0.1086 0.018107 -0.0040374)
(0.10864 0.018534 -0.0017426)
(0.10888 0.02202 -0.001683)
(0.076025 0.019267 -0.0018349)
(0.08713 0.01799 -0.0037066)
(0.087145 0.018699 -0.0016828)
(0.087155 0.022181 -0.0015282)
(0.054934 0.018205 -0.0012969)
(0.065856 0.017311 -0.0032449)
(0.065854 0.018276 -0.0015677)
(0.06565 0.02166 -0.0013018)
(0.035032 0.016512 -0.00065981)
(0.04543 0.016081 -0.0026472)
(0.045416 0.017274 -0.0013864)
(0.044991 0.020469 -0.00098594)
(0.017062 0.01414 9.2244e-05)
(0.026534 0.014237 -0.0019135)
(0.026518 0.01566 -0.0011297)
(0.025855 0.018543 -0.00056797)
(0.0019029 0.011097 0.00095753)
(0.0099298 0.011734 -0.0010345)
(0.0099115 0.013392 -0.00078378)
(0.0090176 0.015813 -5.627e-05)
(-0.0092861 0.007649 0.0018314)
(-0.0037388 0.0086427 -3.7685e-05)
(-0.0037816 0.01054 -0.00034884)
(-0.0047951 0.012276 0.00051163)
(-0.016773 0.0044847 0.0024614)
(-0.013587 0.0052687 0.00080187)
(-0.013691 0.0073349 0.00017329)
(-0.014542 0.0084485 0.00088795)
(-0.019519 0.0025026 0.0013274)
(-0.019727 0.0045284 0.0006263)
(-0.02022 0.0052471 0.00073762)
(0.15814 0.013905 -0.0050699)
(0.16627 0.011313 -0.0061371)
(0.16625 0.011341 -0.0031325)
(0.16736 0.01409 -0.0051892)
(0.13934 0.015416 -0.0054391)
(0.14885 0.012925 -0.0068322)
(0.14884 0.01313 -0.0036317)
(0.14966 0.016308 -0.005948)
(0.11885 0.016247 -0.0055271)
(0.12928 0.013917 -0.0071717)
(0.12929 0.014323 -0.0039359)
(0.12982 0.017765 -0.0064061)
(0.097509 0.01646 -0.0053719)
(0.10843 0.01432 -0.0071876)
(0.10846 0.014942 -0.0040627)
(0.10872 0.018497 -0.0065835)
(0.076056 0.016129 -0.00502)
(0.087092 0.014213 -0.0069354)
(0.087132 0.015051 -0.0040339)
(0.087168 0.018598 -0.0065166)
(0.055128 0.015285 -0.004496)
(0.065942 0.013652 -0.0064593)
(0.065998 0.014696 -0.0038767)
(0.065827 0.018131 -0.0062412)
(0.035386 0.013914 -0.0037904)
(0.045633 0.012647 -0.0057571)
(0.045716 0.013882 -0.0035977)
(0.045334 0.017093 -0.005757)
(0.017577 0.011984 -0.0028845)
(0.026855 0.01116 -0.0048101)
(0.026974 0.012573 -0.0031727)
(0.026366 0.015446 -0.0050417)
(0.0025541 0.0095119 -0.001795)
(0.010363 0.0091581 -0.0036034)
(0.010514 0.010742 -0.0025982)
(0.0096938 0.013136 -0.0040753)
(-0.0088123 0.0066648 -0.00066342)
(-0.0032041 0.006722 -0.0021832)
(-0.0030489 0.0084525 -0.0019068)
(-0.0039887 0.010198 -0.0029028)
(-0.016076 0.0039015 0.00028254)
(-0.013022 0.0041083 -0.00075443)
(-0.012907 0.0058766 -0.0012135)
(-0.01376 0.0069696 -0.0017483)
(-0.018923 0.0018814 0.00031445)
(-0.018882 0.0034526 -0.00061986)
(-0.019496 0.004051 -0.00084331)
(0.15778 0.010432 -0.0078026)
(0.16607 0.0085631 -0.0085519)
(0.16588 0.0083903 -0.0059248)
(0.16691 0.010917 -0.0081765)
(0.13908 0.011503 -0.0084876)
(0.14869 0.0096797 -0.00967)
(0.14856 0.0097055 -0.0068079)
(0.14932 0.012595 -0.0093244)
(0.11869 0.012046 -0.008776)
(0.12918 0.010319 -0.010311)
(0.1291 0.010565 -0.007368)
(0.12959 0.013665 -0.010017)
(0.097441 0.01211 -0.0087131)
(0.10838 0.01051 -0.010503)
(0.10836 0.010983 -0.0076183)
(0.1086 0.014157 -0.010281)
(0.07607 0.011756 -0.0083523)
(0.087079 0.010319 -0.010313)
(0.087115 0.01101 -0.0075979)
(0.087136 0.014147 -0.010181)
(0.055218 0.011017 -0.0077157)
(0.065968 0.0097956 -0.0097911)
(0.066057 0.010682 -0.0073318)
(0.065881 0.013694 -0.0097609)
(0.035551 0.0098793 -0.0067881)
(0.045697 0.0089431 -0.0089375)
(0.045849 0.010005 -0.0068246)
(0.045468 0.0128 -0.0090173)
(0.017816 0.0083144 -0.0055454)
(0.026956 0.0077315 -0.007725)
(0.027181 0.008958 -0.0060595)
(0.026582 0.011427 -0.0079177)
(0.0028649 0.0063419 -0.004015)
(0.010502 0.0061369 -0.0061287)
(0.010796 0.0075217 -0.0050259)
(0.0099938 0.0095389 -0.0064341)
(-0.0085066 0.0041087 -0.0023291)
(-0.0030337 0.0042297 -0.0042203)
(-0.0027076 0.0057583 -0.0037836)
(-0.0036291 0.0071876 -0.0046345)
(-0.015836 0.002002 -0.00080815)
(-0.01284 0.0022179 -0.0022085)
(-0.012547 0.0038384 -0.002463)
(-0.013377 0.0046303 -0.0027096)
(-0.018743 0.00060107 -0.00059222)
(-0.018534 0.0020752 -0.0012806)
(-0.019103 0.0023986 -0.0011645)
(0.15778 0.0078122 -0.01042)
(0.16627 0.0061471 -0.011301)
(0.16588 0.0059352 -0.0083788)
(0.16691 0.0081875 -0.010905)
(0.13908 0.0084956 -0.011494)
(0.14885 0.006841 -0.012914)
(0.14856 0.0068174 -0.0096953)
(0.14932 0.0093345 -0.012585)
(0.11869 0.0087827 -0.012039)
(0.12928 0.0071792 -0.013908)
(0.1291 0.007376 -0.010557)
(0.12959 0.010025 -0.013657)
(0.097441 0.0087187 -0.012103)
(0.10844 0.0071936 -0.014312)
(0.10836 0.0076255 -0.010977)
(0.1086 0.01029 -0.01415)
(0.07607 0.0083568 -0.011752)
(0.087093 0.0069407 -0.014206)
(0.087115 0.007604 -0.011005)
(0.087137 0.010188 -0.014142)
(0.055218 0.0077203 -0.011012)
(0.065942 0.0064637 -0.013647)
(0.066057 0.0073372 -0.010677)
(0.065881 0.0097672 -0.01369)
(0.03555 0.0067937 -0.0098733)
(0.045633 0.0057624 -0.01264)
(0.045848 0.0068307 -0.0099995)
(0.045468 0.0090243 -0.012794)
(0.017815 0.0055522 -0.0083069)
(0.026854 0.0048161 -0.011153)
(0.027181 0.0060661 -0.0089515)
(0.026582 0.0079249 -0.011421)
(0.0028644 0.0040231 -0.0063327)
(0.010362 0.0036105 -0.0091487)
(0.010795 0.0050335 -0.0075136)
(0.0099935 0.0064422 -0.0095303)
(-0.0085068 0.0023378 -0.0040988)
(-0.0032045 0.0021912 -0.0067115)
(-0.0027078 0.003792 -0.0057492)
(-0.0036293 0.0046434 -0.0071777)
(-0.015836 0.0008166 -0.0019923)
(-0.013022 0.00076251 -0.0040974)
(-0.012547 0.0024714 -0.003829)
(-0.013377 0.0027188 -0.0046201)
(-0.018923 -0.00030718 -0.0018712)
(-0.018533 0.0012884 -0.0020665)
(-0.019103 0.001173 -0.0023889)
(0.15814 0.0050788 -0.013893)
(0.16688 0.0039063 -0.014243)
(0.16625 0.0031421 -0.011328)
(0.16736 0.0051985 -0.014076)
(0.13934 0.0054471 -0.015406)
(0.14931 0.0041814 -0.016301)
(0.14884 0.0036406 -0.01312)
(0.14966 0.0059577 -0.016298)
(0.11885 0.005534 -0.016237)
(0.12959 0.0042159 -0.017571)
(0.1293 0.0039449 -0.014314)
(0.12982 0.0064163 -0.017756)
(0.09751 0.005378 -0.016451)
(0.1086 0.0040437 -0.018097)
(0.10846 0.0040705 -0.014934)
(0.10872 0.0065928 -0.01849)
(0.076056 0.0050263 -0.01612)
(0.08713 0.0037121 -0.017981)
(0.087133 0.0040418 -0.015044)
(0.087169 0.0065264 -0.018592)
(0.055126 0.0045021 -0.015276)
(0.065857 0.003248 -0.017305)
(0.065998 0.0038853 -0.01469)
(0.065827 0.0062509 -0.018124)
(0.035385 0.0037964 -0.013905)
(0.045429 0.0026528 -0.016072)
(0.045716 0.0036046 -0.013875)
(0.045333 0.005765 -0.017087)
(0.017575 0.0028912 -0.011975)
(0.026533 0.0019183 -0.014229)
(0.026973 0.0031801 -0.012565)
(0.026365 0.0050492 -0.015437)
(0.0025531 0.0018022 -0.0095011)
(0.0099284 0.0010403 -0.011724)
(0.010513 0.0026055 -0.010733)
(0.0096925 0.0040824 -0.013126)
(-0.0088126 0.00067055 -0.0066535)
(-0.0037394 4.4052e-05 -0.0086315)
(-0.0030494 0.0019144 -0.0084422)
(-0.0039893 0.0029102 -0.010186)
(-0.016076 -0.00027638 -0.0038909)
(-0.013586 -0.00079636 -0.0052576)
(-0.012907 0.0012209 -0.0058667)
(-0.01376 0.001755 -0.0069575)
(-0.019519 -0.0013243 -0.0024933)
(-0.018882 0.00062631 -0.0034438)
(-0.019496 0.0008481 -0.0040388)
(0.15885 0.0030466 -0.016615)
(0.16788 0.0018816 -0.019565)
(0.16698 0.0015968 -0.013865)
(0.16814 0.0017144 -0.016484)
(0.13984 0.0029356 -0.018481)
(0.15007 0.0017465 -0.022351)
(0.14939 0.0017093 -0.016161)
(0.15023 0.0017959 -0.019245)
(0.11916 0.0026703 -0.019485)
(0.1301 0.0014675 -0.024082)
(0.12965 0.0017586 -0.01771)
(0.13017 0.0017817 -0.021075)
(0.097644 0.0022956 -0.019707)
(0.10887 0.0010834 -0.024817)
(0.10864 0.0017498 -0.018526)
(0.10888 0.0016911 -0.022012)
(0.076024 0.0018401 -0.019257)
(0.087177 0.00063363 -0.024702)
(0.087145 0.0016891 -0.018691)
(0.087155 0.001536 -0.022173)
(0.054935 0.0013023 -0.018195)
(0.065714 0.00014971 -0.023849)
(0.065854 0.0015741 -0.018268)
(0.06565 0.0013105 -0.021653)
(0.035031 0.00066496 -0.016504)
(0.045104 -0.00036228 -0.022269)
(0.045416 0.0013928 -0.017267)
(0.044991 0.00099337 -0.020463)
(0.017061 -8.7132e-05 -0.01413)
(0.026023 -0.00091821 -0.019881)
(0.026517 0.0011358 -0.015652)
(0.025854 0.00057477 -0.018535)
(0.0019018 -0.00095206 -0.011086)
(0.0092421 -0.0015157 -0.016571)
(0.0099103 0.00079021 -0.013383)
(0.0090162 6.265e-05 -0.015804)
(-0.0092859 -0.0018264 -0.0076378)
(-0.0045492 -0.002128 -0.012288)
(-0.0037822 0.00035585 -0.01053)
(-0.0047959 -0.00050493 -0.012264)
(-0.016773 -0.0024594 -0.0044755)
(-0.014385 -0.002557 -0.0075792)
(-0.01369 -0.0001671 -0.0073256)
(-0.014541 -0.00088217 -0.0084376)
(-0.020327 -0.0024852 -0.0032994)
(-0.019726 -0.00062236 -0.0045216)
(-0.02022 -0.00073444 -0.0052383)
(0.15993 3.9183e-06 -0.025874)
(0.16788 -0.0018722 -0.019567)
(0.16952 -0.00072902 -0.023524)
(0.16952 0.00073604 -0.023526)
(0.14062 4.0388e-06 -0.028223)
(0.15007 -0.0017367 -0.022353)
(0.15125 -0.00063839 -0.027161)
(0.15125 0.00064823 -0.027161)
(0.11961 3.9464e-06 -0.029289)
(0.1301 -0.0014579 -0.024084)
(0.1308 -0.00048481 -0.029521)
(0.1308 0.00049376 -0.029521)
(0.097815 3.7362e-06 -0.029229)
(0.10886 -0.0010739 -0.024819)
(0.10915 -0.0002881 -0.030668)
(0.10915 0.00029789 -0.030668)
(0.075962 3.4173e-06 -0.028234)
(0.087177 -0.00062373 -0.024704)
(0.08712 -7.6992e-05 -0.030791)
(0.08712 8.6971e-05 -0.030791)
(0.05467 3.6271e-06 -0.026404)
(0.065714 -0.00014049 -0.023851)
(0.065354 0.00012165 -0.030034)
(0.065354 -0.00011152 -0.030033)
(0.034556 3.9404e-06 -0.023696)
(0.045104 0.00037275 -0.022271)
(0.044444 0.00030166 -0.028412)
(0.044444 -0.00029043 -0.028411)
(0.016371 4.0134e-06 -0.019968)
(0.026023 0.00092891 -0.019883)
(0.025034 0.00046656 -0.025817)
(0.025035 -0.00045621 -0.025817)
(0.0010311 4.3388e-06 -0.015071)
(0.0092423 0.0015268 -0.016574)
(0.0078918 0.00062728 -0.022076)
(0.0078918 -0.00061645 -0.022076)
(-0.010136 4.5637e-06 -0.0093594)
(-0.0045488 0.0021392 -0.01229)
(-0.0061483 0.00078544 -0.016988)
(-0.0061484 -0.00077306 -0.016986)
(-0.017474 4.7209e-06 -0.0038101)
(-0.014384 0.0025682 -0.0075814)
(-0.015937 0.0010661 -0.011274)
(-0.015937 -0.0010548 -0.011273)
(-0.020327 0.002496 -0.0033015)
(-0.02154 0.0014399 -0.005736)
(-0.02154 -0.0014315 -0.005739)
(0.15884 0.016628 0.003045)
(0.16698 0.013878 0.0015951)
(0.16687 0.014256 0.003904)
(0.16813 0.016497 0.0017113)
(0.13984 0.018494 0.0029336)
(0.14939 0.016173 0.0017073)
(0.14931 0.016314 0.004179)
(0.15022 0.019256 0.0017927)
(0.11915 0.019496 0.0026675)
(0.12965 0.01772 0.0017555)
(0.12959 0.017582 0.0042127)
(0.13017 0.021086 0.0017767)
(0.097642 0.019718 0.0022925)
(0.10864 0.018534 0.0017458)
(0.1086 0.018107 0.0040401)
(0.10888 0.022021 0.0016852)
(0.076024 0.019268 0.0018361)
(0.087144 0.018699 0.0016846)
(0.087128 0.01799 0.003708)
(0.087154 0.022181 0.0015293)
(0.054934 0.018206 0.0012974)
(0.065854 0.018277 0.0015684)
(0.065856 0.017313 0.0032444)
(0.065649 0.021661 0.0013024)
(0.035032 0.016514 0.00065971)
(0.045416 0.017275 0.0013865)
(0.045429 0.016082 0.0026476)
(0.044992 0.02047 0.0009856)
(0.017063 0.014141 -9.2556e-05)
(0.026518 0.015661 0.0011295)
(0.026535 0.014239 0.0019133)
(0.025856 0.018544 0.00056692)
(0.0019037 0.011099 -0.00095753)
(0.0099119 0.013393 0.00078374)
(0.0099306 0.011735 0.0010345)
(0.0090184 0.015815 5.5625e-05)
(-0.0092853 0.0076512 -0.0018311)
(-0.0037812 0.010541 0.00034924)
(-0.003738 0.0086442 3.7965e-05)
(-0.0047944 0.012277 -0.00051177)
(-0.016772 0.0044872 -0.0024612)
(-0.01369 0.0073362 -0.00017285)
(-0.013586 0.0052704 -0.00080144)
(-0.014541 0.0084501 -0.0008881)
(-0.019726 0.0045297 -0.00062578)
(-0.019518 0.0025048 -0.0013277)
(-0.020219 0.0052491 -0.00073721)
(0.15832 0.01317 2.6432e-06)
(0.16636 0.011152 -0.00067123)
(0.16636 0.011152 0.00067763)
(0.13947 0.014874 2.4286e-06)
(0.14893 0.012957 -0.00084621)
(0.14892 0.012957 0.00085211)
(0.11894 0.015927 2.1654e-06)
(0.12935 0.014168 -0.00096053)
(0.12935 0.014168 0.00096572)
(0.097555 0.016378 1.5515e-06)
(0.1085 0.014796 -0.0010227)
(0.10849 0.014796 0.0010265)
(0.076059 0.016289 9.0329e-07)
(0.087143 0.014906 -0.0010437)
(0.087142 0.014906 0.0010463)
(0.055102 0.015686 2.4567e-07)
(0.06599 0.014542 -0.0010345)
(0.065989 0.014542 0.0010361)
(0.035349 0.014563 -4.6174e-08)
(0.045696 0.013704 -0.0009996)
(0.045696 0.013705 0.001)
(0.01754 0.012904 -5.4544e-09)
(0.02695 0.012373 -0.00093876)
(0.026951 0.012374 0.00093893)
(0.002504 0.010743 1.4275e-07)
(0.010489 0.010524 -0.00085905)
(0.010489 0.010525 0.00085932)
(-0.0089649 0.0082175 2.4775e-07)
(-0.0030974 0.0082348 -0.00077909)
(-0.0030968 0.0082357 0.0007798)
(-0.016398 0.0057156 3.3216e-07)
(-0.013014 0.0056887 -0.00074873)
(-0.013014 0.0056894 0.00074952)
(-0.019091 0.0033759 -0.00077823)
(-0.01909 0.0033767 0.00077907)
(0.15775 0.010666 -0.0017932)
(0.16586 0.0083792 -0.0031102)
(0.16571 0.008852 -0.00093859)
(0.13908 0.011984 -0.0020755)
(0.14855 0.0097404 -0.00364)
(0.14845 0.010226 -0.0011105)
(0.11873 0.012784 -0.002238)
(0.12912 0.010645 -0.0039796)
(0.12906 0.011144 -0.0012204)
(0.097509 0.013099 -0.0022921)
(0.10839 0.011108 -0.0041369)
(0.10837 0.011614 -0.0012706)
(0.076162 0.012981 -0.0022548)
(0.087151 0.011176 -0.004136)
(0.087175 0.011682 -0.0012668)
(0.055353 0.012454 -0.002139)
(0.066109 0.01089 -0.0039991)
(0.066168 0.011383 -0.0012153)
(0.035749 0.011506 -0.0019456)
(0.045927 0.010255 -0.0037308)
(0.04602 0.010717 -0.0011183)
(0.018091 0.010117 -0.0016733)
(0.027294 0.0092466 -0.0033216)
(0.027423 0.0096609 -0.00097423)
(0.0031839 0.0083125 -0.0013407)
(0.010942 0.0078529 -0.0027728)
(0.0111 0.0081981 -0.00078317)
(-0.008273 0.0062197 -0.0010134)
(-0.0025562 0.0061439 -0.0021259)
(-0.0023816 0.0063821 -0.00055422)
(-0.015844 0.0040935 -0.00078236)
(-0.012435 0.0043004 -0.0014895)
(-0.012259 0.0043663 -0.00032584)
(-0.018494 0.0026211 -0.00096776)
(-0.018313 0.0024439 -0.00015238)
(0.15744 0.007573 -0.004839)
(0.16568 0.0057466 -0.0057358)
(0.16536 0.0060992 -0.0036232)
(0.13887 0.0085128 -0.0054339)
(0.14842 0.0066748 -0.0066649)
(0.14818 0.0070475 -0.0041722)
(0.1186 0.0090702 -0.0057781)
(0.12903 0.0072806 -0.007272)
(0.12889 0.0076739 -0.0045304)
(0.097466 0.0092728 -0.0058919)
(0.10835 0.0075757 -0.0075682)
(0.10829 0.0079859 -0.0047024)
(0.076191 0.0091611 -0.0058033)
(0.087147 0.0075964 -0.0075898)
(0.087171 0.0080147 -0.0047084)
(0.055453 0.0087551 -0.0055265)
(0.066141 0.0073749 -0.0073689)
(0.066237 0.0077861 -0.0045625)
(0.035923 0.0080443 -0.0050569)
(0.045995 0.0069137 -0.0069073)
(0.046162 0.0073007 -0.0042655)
(0.018343 0.0070135 -0.0043887)
(0.027401 0.006195 -0.0061881)
(0.027639 0.0065471 -0.0038137)
(0.0035012 0.005692 -0.0035488)
(0.011085 0.0052152 -0.0052075)
(0.011386 0.0055142 -0.003201)
(-0.0079309 0.0041979 -0.0026277)
(-0.0023853 0.0040341 -0.0040257)
(-0.002044 0.0042459 -0.0024603)
(-0.015561 0.0027393 -0.0017633)
(-0.012257 0.0028001 -0.0027916)
(-0.011912 0.0028703 -0.0016716)
(-0.018325 0.0017103 -0.0017026)
(-0.01799 0.0015745 -0.00093357)
(0.15744 0.004849 -0.0075625)
(0.16586 0.0031204 -0.0083675)
(0.16536 0.003633 -0.0060884)
(0.13887 0.005443 -0.0085036)
(0.14855 0.0036492 -0.0097308)
(0.14819 0.0041817 -0.0070377)
(0.1186 0.0057862 -0.0090624)
(0.12912 0.0039883 -0.010637)
(0.12889 0.0045386 -0.0076656)
(0.097466 0.0058991 -0.0092661)
(0.10839 0.0041448 -0.0111)
(0.10829 0.0047097 -0.0079787)
(0.076191 0.0058098 -0.0091552)
(0.087152 0.0041432 -0.011169)
(0.087171 0.0047148 -0.0080083)
(0.055453 0.0055329 -0.0087493)
(0.066109 0.0040064 -0.010885)
(0.066237 0.0045683 -0.0077803)
(0.035923 0.0050636 -0.0080379)
(0.045926 0.0037376 -0.010249)
(0.046162 0.0042716 -0.0072947)
(0.018343 0.0043959 -0.0070062)
(0.027294 0.0033288 -0.0092395)
(0.027639 0.0038201 -0.0065404)
(0.0035009 0.0035565 -0.0056837)
(0.010941 0.0027798 -0.0078448)
(0.011386 0.0032082 -0.0055068)
(-0.007931 0.0026357 -0.0041891)
(-0.0025565 0.0021334 -0.0061346)
(-0.0020442 0.0024678 -0.0042376)
(-0.015561 0.0017709 -0.0027307)
(-0.012434 0.0014971 -0.0042912)
(-0.011912 0.0016793 -0.0028619)
(-0.018493 0.00097459 -0.0026127)
(-0.01799 0.00094066 -0.0015667)
(0.15775 0.0018029 -0.010655)
(0.16636 0.00068011 -0.01114)
(0.16571 0.00094802 -0.0088408)
(0.13909 0.0020848 -0.011975)
(0.14893 0.00085513 -0.012946)
(0.14845 0.0011188 -0.010216)
(0.11873 0.0022465 -0.012776)
(0.12935 0.00096893 -0.014158)
(0.12906 0.0012286 -0.011135)
(0.09751 0.0023001 -0.013092)
(0.1085 0.0010303 -0.014788)
(0.10837 0.0012781 -0.011607)
(0.076163 0.0022629 -0.012975)
(0.087143 0.0010512 -0.014899)
(0.087176 0.0012739 -0.011675)
(0.055352 0.0021467 -0.012448)
(0.06599 0.0010415 -0.014535)
(0.066168 0.0012226 -0.011377)
(0.035748 0.0019528 -0.011499)
(0.045696 0.0010064 -0.013698)
(0.04602 0.0011247 -0.01071)
(0.01809 0.0016806 -0.010109)
(0.02695 0.00094517 -0.012366)
(0.027422 0.00098108 -0.0096538)
(0.0031832 0.0013479 -0.0083031)
(0.010488 0.00086532 -0.010516)
(0.011099 0.00079004 -0.0081897)
(-0.0082731 0.0010205 -0.00621)
(-0.0030978 0.00078548 -0.0082249)
(-0.0023819 0.00056133 -0.0063731)
(-0.015844 0.00078906 -0.0040844)
(-0.013014 0.00075524 -0.0056791)
(-0.012259 0.00033293 -0.0043574)
(-0.01909 0.0007844 -0.0033675)
(-0.018312 0.00015895 -0.0024359)
(0.15832 5.0981e-06 -0.013159)
(0.16698 -0.0015866 -0.013866)
(0.16636 -0.00066984 -0.011141)
(0.13947 4.9837e-06 -0.014864)
(0.14939 -0.0016987 -0.016162)
(0.14893 -0.0008452 -0.012946)
(0.11894 5.0315e-06 -0.015918)
(0.12965 -0.001748 -0.017711)
(0.12935 -0.00095881 -0.014159)
(0.097556 5.1295e-06 -0.01637)
(0.10864 -0.0017386 -0.018526)
(0.1085 -0.0010202 -0.014789)
(0.076059 5.2441e-06 -0.016282)
(0.087145 -0.0016785 -0.018691)
(0.087143 -0.0010406 -0.0149)
(0.055102 5.8592e-06 -0.015679)
(0.065854 -0.0015628 -0.018269)
(0.06599 -0.0010307 -0.014536)
(0.035348 6.1925e-06 -0.014556)
(0.045416 -0.0013803 -0.017268)
(0.045696 -0.00099451 -0.013699)
(0.017539 6.0191e-06 -0.012895)
(0.026517 -0.0011234 -0.015653)
(0.02695 -0.00093324 -0.012366)
(0.0025033 6.1332e-06 -0.010733)
(0.0099105 -0.00077759 -0.013384)
(0.010489 -0.00085319 -0.010516)
(-0.0089652 6.121e-06 -0.0082071)
(-0.0037818 -0.00034332 -0.010531)
(-0.0030972 -0.00077335 -0.0082259)
(-0.016397 5.7282e-06 -0.0057066)
(-0.01369 0.00017936 -0.0073268)
(-0.013013 -0.00074298 -0.0056802)
(-0.019726 0.0006334 -0.0045231)
(-0.01909 -0.00077299 -0.0033688)
(0.15885 -0.0030369 -0.016617)
(0.16687 -0.0038964 -0.014244)
(0.16813 -0.001704 -0.016485)
(0.13984 -0.0029257 -0.018483)
(0.14931 -0.0041707 -0.016302)
(0.15023 -0.0017847 -0.019245)
(0.11915 -0.0026604 -0.019487)
(0.12959 -0.0042053 -0.017572)
(0.13017 -0.0017707 -0.021076)
(0.097643 -0.0022857 -0.019709)
(0.1086 -0.0040332 -0.018098)
(0.10888 -0.0016796 -0.022013)
(0.076024 -0.0018299 -0.01926)
(0.08713 -0.0037023 -0.017982)
(0.087155 -0.0015242 -0.022174)
(0.054933 -0.0012915 -0.018198)
(0.065856 -0.0032392 -0.017305)
(0.065649 -0.0012977 -0.021654)
(0.035031 -0.00065349 -0.016506)
(0.045429 -0.0026421 -0.016074)
(0.044991 -0.00098038 -0.020463)
(0.017061 9.9074e-05 -0.014133)
(0.026533 -0.0019075 -0.014231)
(0.025855 -0.00056117 -0.018536)
(0.0019023 0.00096382 -0.011089)
(0.0099291 -0.0010287 -0.011726)
(0.0090167 -4.9269e-05 -0.015805)
(-0.009285 0.0018381 -0.0076407)
(-0.0037387 -3.2328e-05 -0.0086337)
(-0.0047952 0.00051805 -0.012266)
(-0.016772 0.0024708 -0.0044786)
(-0.013586 0.00080859 -0.0052601)
(-0.01454 0.00089469 -0.0084402)
(-0.019518 0.0013371 -0.0024966)
(-0.020219 0.00074482 -0.0052425)
(0.15813 0.013904 0.0050768)
(0.16625 0.011341 0.0031395)
(0.16627 0.011312 0.0061446)
(0.16735 0.014088 0.005195)
(0.13933 0.015416 0.0054444)
(0.14884 0.01313 0.0036371)
(0.14885 0.012924 0.0068388)
(0.14965 0.016307 0.0059534)
(0.11884 0.016247 0.0055303)
(0.12929 0.014323 0.0039408)
(0.12928 0.013916 0.0071757)
(0.12981 0.017764 0.00641)
(0.097506 0.01646 0.0053739)
(0.10846 0.014942 0.004066)
(0.10843 0.014319 0.0071905)
(0.10872 0.018496 0.006586)
(0.076055 0.016129 0.0050211)
(0.087131 0.015051 0.0040361)
(0.08709 0.014212 0.0069368)
(0.087167 0.018598 0.006518)
(0.055127 0.015285 0.0044967)
(0.065998 0.014697 0.0038784)
(0.065941 0.013652 0.0064596)
(0.065826 0.01813 0.0062418)
(0.035386 0.013915 0.0037905)
(0.045716 0.013883 0.0035981)
(0.045633 0.012647 0.0057572)
(0.045333 0.017094 0.005757)
(0.017577 0.011985 0.0028845)
(0.026974 0.012574 0.003173)
(0.026855 0.01116 0.0048098)
(0.026366 0.015446 0.0050412)
(0.0025548 0.009513 0.0017951)
(0.010515 0.010743 0.0025984)
(0.010364 0.0091584 0.0036031)
(0.0096944 0.013136 0.004075)
(-0.0088115 0.0066661 0.00066361)
(-0.003048 0.008454 0.0019073)
(-0.0032037 0.0067224 0.0021831)
(-0.0039881 0.010199 0.0029028)
(-0.016075 0.0039027 -0.00028244)
(-0.012906 0.005878 0.0012141)
(-0.013022 0.0041085 0.0007548)
(-0.01376 0.0069702 0.0017479)
(-0.018881 0.003454 0.00062041)
(-0.018922 0.0018809 -0.00031399)
(-0.019495 0.0040509 0.00084191)
(0.15774 0.010667 0.0018)
(0.16571 0.0088526 0.00094596)
(0.16585 0.0083792 0.0031177)
(0.13908 0.011985 0.0020816)
(0.14845 0.010227 0.001117)
(0.14855 0.0097409 0.0036468)
(0.11873 0.012785 0.0022427)
(0.12906 0.011144 0.0012259)
(0.12911 0.010645 0.0039852)
(0.097508 0.0131 0.0022955)
(0.10837 0.011615 0.0012749)
(0.10839 0.011108 0.004141)
(0.076162 0.012983 0.0022573)
(0.087175 0.011683 0.0012699)
(0.08715 0.011176 0.0041389)
(0.055353 0.012455 0.0021406)
(0.066168 0.011384 0.0012175)
(0.066108 0.010891 0.004001)
(0.035749 0.011507 0.0019464)
(0.04602 0.010718 0.0011197)
(0.045927 0.010256 0.0037317)
(0.018092 0.010118 0.0016739)
(0.027424 0.0096615 0.00097509)
(0.027295 0.0092473 0.003322)
(0.0031849 0.008314 0.0013415)
(0.0111 0.0081987 0.00078399)
(0.010942 0.0078537 0.0027733)
(-0.0082719 0.0062213 0.0010143)
(-0.0023811 0.0063829 0.00055531)
(-0.0025556 0.0061449 0.0021266)
(-0.015842 0.004095 0.00078335)
(-0.012259 0.0043671 0.0003271)
(-0.012434 0.0043013 0.0014905)
(-0.018312 0.0024446 0.00015391)
(-0.018493 0.0026218 0.00096864)
(0.15719 0.0081529 3.1942e-06)
(0.16521 0.0062037 -0.0013053)
(0.16521 0.0062031 0.0013132)
(0.13871 0.0091273 2.8271e-06)
(0.14808 0.0071701 -0.0014905)
(0.14808 0.0071692 0.0014973)
(0.11854 0.0097181 2.587e-06)
(0.12883 0.0078145 -0.0016113)
(0.12883 0.0078143 0.0016174)
(0.097478 0.0099492 1.9707e-06)
(0.10827 0.0081448 -0.0016709)
(0.10827 0.0081447 0.0016756)
(0.076276 0.0098543 1.5271e-06)
(0.087194 0.0081909 -0.0016764)
(0.087193 0.008191 0.0016797)
(0.055605 0.00945 1.0116e-06)
(0.066295 0.0079767 -0.0016315)
(0.066295 0.0079768 0.0016338)
(0.036147 0.0087237 6.5872e-07)
(0.046255 0.0075057 -0.0015377)
(0.046255 0.0075057 0.0015391)
(0.018635 0.0076565 5.975e-07)
(0.027768 0.0067583 -0.0013892)
(0.027768 0.0067585 0.0013903)
(0.0038384 0.0062694 6.1403e-07)
(0.011544 0.0057286 -0.0011851)
(0.011544 0.0057288 0.0011861)
(-0.0075813 0.0046606 7.0546e-07)
(-0.0018694 0.0044566 -0.00093788)
(-0.0018693 0.0044568 0.00093903)
(-0.015254 0.0030197 8.6296e-07)
(-0.011737 0.0030716 -0.00067151)
(-0.011737 0.0030717 0.00067296)
(-0.017809 0.0017593 -0.00041599)
(-0.017808 0.0017595 0.00041775)
(0.15688 0.005319 -0.0027018)
(0.16503 0.0037316 -0.0037217)
(0.16484 0.0036378 -0.0012169)
(0.1385 0.0059512 -0.0030114)
(0.14795 0.0042982 -0.0042888)
(0.1478 0.0042073 -0.0014049)
(0.11841 0.0063306 -0.0031958)
(0.12874 0.0046727 -0.0046646)
(0.12865 0.0045859 -0.0015303)
(0.097441 0.0064723 -0.0032635)
(0.10823 0.0048611 -0.0048539)
(0.10819 0.0047767 -0.0015935)
(0.076315 0.0063971 -0.0032252)
(0.087193 0.0048815 -0.0048751)
(0.087192 0.0047968 -0.0016008)
(0.055717 0.0061159 -0.003086)
(0.066332 0.004747 -0.0047411)
(0.06637 0.0046608 -0.0015568)
(0.036332 0.005624 -0.0028431)
(0.046329 0.004461 -0.004455)
(0.046404 0.0043699 -0.0014617)
(0.01889 0.0049128 -0.0024914)
(0.027878 0.0040124 -0.004006)
(0.027989 0.0039177 -0.001313)
(0.0041526 0.0039969 -0.0020415)
(0.011687 0.0033988 -0.0033918)
(0.011832 0.0033001 -0.0011096)
(-0.0072313 0.0029455 -0.0015315)
(-0.0017029 0.002647 -0.0026395)
(-0.0015379 0.0025398 -0.00086163)
(-0.014946 0.0018815 -0.0010179)
(-0.011568 0.0018376 -0.0018299)
(-0.011401 0.001723 -0.00059947)
(-0.017655 0.001069 -0.0010618)
(-0.017499 0.00094569 -0.00034865)
(0.15688 0.0027112 -0.0053091)
(0.16521 0.0013144 -0.0061932)
(0.16484 0.0012262 -0.0036278)
(0.1385 0.00302 -0.0059423)
(0.14808 0.0014995 -0.0071603)
(0.1478 0.0014141 -0.0041979)
(0.11841 0.0032033 -0.0063229)
(0.12883 0.0016192 -0.0078061)
(0.12865 0.0015382 -0.0045778)
(0.097441 0.0032702 -0.0064655)
(0.10827 0.001678 -0.0081375)
(0.10819 0.0016006 -0.0047695)
(0.076315 0.0032311 -0.006391)
(0.087194 0.0016827 -0.0081844)
(0.087192 0.0016071 -0.0047905)
(0.055717 0.0030917 -0.0061099)
(0.066295 0.0016375 -0.0079707)
(0.06637 0.0015625 -0.0046549)
(0.036332 0.0028489 -0.0056176)
(0.046255 0.0015435 -0.0074994)
(0.046404 0.0014674 -0.004364)
(0.018889 0.0024978 -0.0049059)
(0.027767 0.0013953 -0.0067515)
(0.027989 0.001319 -0.0039112)
(0.0041525 0.0020485 -0.0039894)
(0.011544 0.0011916 -0.005721)
(0.011831 0.0011161 -0.0032931)
(-0.0072314 0.0015388 -0.0029375)
(-0.0018696 0.00094469 -0.0044485)
(-0.001538 0.00086856 -0.0025322)
(-0.014946 0.001025 -0.0018737)
(-0.011737 0.00067856 -0.0030632)
(-0.011401 0.00060654 -0.0017153)
(-0.017809 0.00042265 -0.0017517)
(-0.017499 0.00035534 -0.00093843)
(0.15719 5.0294e-06 -0.008143)
(0.16571 -0.00093798 -0.0088415)
(0.16521 -0.0013045 -0.0061929)
(0.13871 4.8563e-06 -0.0091184)
(0.14845 -0.0011088 -0.010216)
(0.14808 -0.0014899 -0.0071605)
(0.11854 4.8339e-06 -0.0097101)
(0.12906 -0.0012187 -0.011135)
(0.12883 -0.0016096 -0.007806)
(0.097478 4.9919e-06 -0.0099419)
(0.10837 -0.0012682 -0.011607)
(0.10827 -0.0016685 -0.0081374)
(0.076276 5.3366e-06 -0.0098474)
(0.087175 -0.0012637 -0.011676)
(0.087194 -0.0016726 -0.0081838)
(0.055604 5.5028e-06 -0.0094433)
(0.066168 -0.0012117 -0.011377)
(0.066295 -0.0016271 -0.0079703)
(0.036146 5.5924e-06 -0.0087168)
(0.04602 -0.0011143 -0.010712)
(0.046255 -0.0015328 -0.0074991)
(0.018634 5.7463e-06 -0.007649)
(0.027423 -0.00096941 -0.0096542)
(0.027767 -0.0013841 -0.0067517)
(0.0038379 5.8755e-06 -0.0062611)
(0.011099 -0.00077815 -0.0081905)
(0.011543 -0.0011798 -0.0057212)
(-0.0075814 5.9531e-06 -0.004652)
(-0.0023814 -0.00054927 -0.006374)
(-0.0018695 -0.0009325 -0.0044487)
(-0.015254 5.7214e-06 -0.0030115)
(-0.012259 -0.00032072 -0.0043583)
(-0.011737 -0.00066628 -0.0030635)
(-0.018312 -0.00014765 -0.0024368)
(-0.017808 -0.00041135 -0.001752)
(0.15774 -0.0017929 -0.010656)
(0.16625 -0.0031311 -0.011328)
(0.16585 -0.0031105 -0.0083679)
(0.13908 -0.0020749 -0.011975)
(0.14884 -0.0036298 -0.01312)
(0.14855 -0.0036394 -0.0097304)
(0.11873 -0.0022365 -0.012777)
(0.12929 -0.0039339 -0.014314)
(0.12911 -0.0039784 -0.010637)
(0.097508 -0.0022899 -0.013094)
(0.10846 -0.0040596 -0.014934)
(0.10839 -0.0041351 -0.0111)
(0.076162 -0.0022521 -0.012977)
(0.087132 -0.0040308 -0.015044)
(0.087151 -0.0041335 -0.01117)
(0.055352 -0.0021357 -0.012449)
(0.065998 -0.0038733 -0.014691)
(0.066109 -0.0039958 -0.010885)
(0.035749 -0.0019414 -0.0115)
(0.045716 -0.003593 -0.013877)
(0.045927 -0.0037265 -0.010249)
(0.018091 -0.0016686 -0.01011)
(0.026973 -0.0031679 -0.012566)
(0.027294 -0.0033169 -0.00924)
(0.0031842 -0.0013359 -0.0083049)
(0.010514 -0.002593 -0.010735)
(0.010942 -0.0027677 -0.0078457)