/*--------------------------------*- C++ -*----------------------------------*\
| =========                 |                                                 |
| \\      /  F ield         | OpenFOAM: The Open Source CFD Toolbox           |
|  \\    /   O peration     | Version:  4.1                                   |
|   \\  /    A nd           | Web:      www.OpenFOAM.org                      |
|    \\/     M anipulation  |                                                 |
\*---------------------------------------------------------------------------*/
FoamFile
{
    version     2.0;
    format      ascii;
    class       pointVectorField;
    location    "0.0092";
    object      pointDisplacement;
}
// * * * * * * * * * * * * * * * * * * * * * * * * * * * * * * * * * * * * * //

dimensions      [0 1 0 0 0 0 0];

internalField   nonuniform List<vector> 
1885
(
(8.4745e-05 6.1771e-06 1.1246e-10)
(8.3434e-05 9.1432e-06 -2.5978e-10)
(8.1743e-05 1.1192e-05 -5.3711e-10)
(7.975e-05 1.2246e-05 -7.1813e-10)
(7.751e-05 1.2287e-05 -8.0724e-10)
(7.5052e-05 1.1385e-05 -8.1206e-10)
(7.2388e-05 9.7203e-06 -7.472e-10)
(6.9523e-05 7.5723e-06 -6.3891e-10)
(6.647e-05 5.2883e-06 -5.2141e-10)
(6.3256e-05 3.2145e-06 -4.2426e-10)
(5.9923e-05 1.6193e-06 -3.7017e-10)
(5.6522e-05 6.435e-07 -3.7131e-10)
(5.309e-05 2.913e-07 -4.2551e-10)
(8.4625e-05 5.426e-06 -6.7247e-07)
(8.3333e-05 8.0759e-06 -1.0035e-06)
(8.166e-05 9.9041e-06 -1.232e-06)
(7.9681e-05 1.0849e-05 -1.3507e-06)
(7.7449e-05 1.0895e-05 -1.3575e-06)
(7.4995e-05 1.0111e-05 -1.2603e-06)
(7.2334e-05 8.6534e-06 -1.0791e-06)
(6.9474e-05 6.7707e-06 -8.4516e-07)
(6.6428e-05 4.7659e-06 -5.963e-07)
(6.3224e-05 2.9402e-06 -3.6974e-07)
(5.9903e-05 1.5287e-06 -1.9438e-07)
(5.651e-05 6.5606e-07 -8.5726e-08)
(5.3082e-05 3.2963e-07 -4.4989e-08)
(8.4541e-05 4.7025e-06 -1.5016e-06)
(8.3263e-05 7.0317e-06 -2.2505e-06)
(8.1602e-05 8.6376e-06 -2.7671e-06)
(7.9632e-05 9.4696e-06 -3.0357e-06)
(7.7406e-05 9.5183e-06 -3.0529e-06)
(7.4955e-05 8.8431e-06 -2.8377e-06)
(7.2296e-05 7.5838e-06 -2.435e-06)
(6.9439e-05 5.9546e-06 -1.914e-06)
(6.6398e-05 4.2173e-06 -1.3585e-06)
(6.3201e-05 2.6318e-06 -8.5136e-07)
(5.9888e-05 1.401e-06 -4.5737e-07)
(5.6501e-05 6.3401e-07 -2.1152e-07)
(5.3077e-05 3.3948e-07 -1.1687e-07)
(8.4488e-05 3.9355e-06 -2.3258e-06)
(8.3219e-05 5.9044e-06 -3.4941e-06)
(8.1566e-05 7.2616e-06 -4.2997e-06)
(7.9601e-05 7.9662e-06 -4.7185e-06)
(7.7379e-05 8.0118e-06 -4.7469e-06)
(7.493e-05 7.4498e-06 -4.4152e-06)
(7.2272e-05 6.3977e-06 -3.7931e-06)
(6.9417e-05 5.0351e-06 -2.9872e-06)
(6.638e-05 3.5807e-06 -2.1269e-06)
(6.3187e-05 2.2513e-06 -1.3403e-06)
(5.9878e-05 1.2167e-06 -7.2798e-07)
(5.6496e-05 5.6897e-07 -3.4443e-07)
(5.3073e-05 3.1628e-07 -1.9465e-07)
(8.447e-05 3.1399e-06 -3.1396e-06)
(8.3203e-05 4.7186e-06 -4.7183e-06)
(8.1553e-05 5.8068e-06 -5.8065e-06)
(7.9591e-05 6.3724e-06 -6.3721e-06)
(7.7369e-05 6.4108e-06 -6.4106e-06)
(7.4921e-05 5.9635e-06 -5.9632e-06)
(7.2264e-05 5.1245e-06 -5.1243e-06)
(6.9409e-05 4.0373e-06 -4.0372e-06)
(6.6373e-05 2.8763e-06 -2.8763e-06)
(6.3182e-05 1.8144e-06 -1.8145e-06)
(5.9875e-05 9.8717e-07 -9.8737e-07)
(5.6494e-05 4.684e-07 -4.6871e-07)
(5.3072e-05 2.6489e-07 -2.6531e-07)
(8.4488e-05 2.3261e-06 -3.9351e-06)
(8.3219e-05 3.4944e-06 -5.904e-06)
(8.1566e-05 4.3e-06 -7.2612e-06)
(7.9601e-05 4.7188e-06 -7.9658e-06)
(7.7379e-05 4.7472e-06 -8.0115e-06)
(7.493e-05 4.4154e-06 -7.4495e-06)
(7.2272e-05 3.7933e-06 -6.3975e-06)
(6.9417e-05 2.9873e-06 -5.035e-06)
(6.6379e-05 2.1269e-06 -3.5807e-06)
(6.3187e-05 1.3402e-06 -2.2514e-06)
(5.9878e-05 7.2773e-07 -1.2169e-06)
(5.6496e-05 3.4405e-07 -5.6921e-07)
(5.3073e-05 1.9415e-07 -3.1661e-07)
(8.4541e-05 1.5019e-06 -4.7022e-06)
(8.3263e-05 2.2508e-06 -7.0313e-06)
(8.1602e-05 2.7674e-06 -8.6372e-06)
(7.9632e-05 3.036e-06 -9.4692e-06)
(7.7406e-05 3.0532e-06 -9.5179e-06)
(7.4955e-05 2.8379e-06 -8.8428e-06)
(7.2296e-05 2.4351e-06 -7.5835e-06)
(6.9439e-05 1.914e-06 -5.9544e-06)
(6.6398e-05 1.3584e-06 -4.2173e-06)
(6.3201e-05 8.512e-07 -2.6318e-06)
(5.9887e-05 4.5708e-07 -1.4011e-06)
(5.6501e-05 2.1109e-07 -6.3419e-07)
(5.3077e-05 1.1629e-07 -3.3971e-07)
(8.4625e-05 6.728e-07 -5.4257e-06)
(8.3333e-05 1.0038e-06 -8.0755e-06)
(8.166e-05 1.2324e-06 -9.9037e-06)
(7.9681e-05 1.3511e-06 -1.0848e-05)
(7.7449e-05 1.3578e-06 -1.0895e-05)
(7.4995e-05 1.2605e-06 -1.011e-05)
(7.2334e-05 1.0793e-06 -8.6531e-06)
(6.9474e-05 8.4523e-07 -6.7706e-06)
(6.6428e-05 5.9627e-07 -4.7658e-06)
(6.3224e-05 3.6958e-07 -2.9402e-06)
(5.9902e-05 1.9408e-07 -1.5287e-06)
(5.651e-05 8.5259e-08 -6.5618e-07)
(5.3082e-05 4.4355e-08 -3.2979e-07)
(8.4745e-05 2.5752e-10 -6.1768e-06)
(8.3434e-05 6.7343e-10 -9.1428e-06)
(8.1743e-05 9.6678e-10 -1.1191e-05)
(7.975e-05 1.1364e-09 -1.2246e-05)
(7.751e-05 1.1889e-09 -1.2287e-05)
(7.5052e-05 1.1334e-09 -1.1385e-05)
(7.2387e-05 9.8503e-10 -9.72e-06)
(6.9523e-05 7.687e-10 -7.5721e-06)
(6.647e-05 5.2007e-10 -5.2882e-06)
(6.3256e-05 2.7373e-10 -3.2145e-06)
(5.9923e-05 5.5368e-11 -1.6194e-06)
(5.6522e-05 -1.2003e-10 -6.4358e-07)
(5.309e-05 -2.469e-10 -2.914e-07)
(8.4625e-05 5.426e-06 6.7223e-07)
(8.3333e-05 8.076e-06 1.0023e-06)
(8.166e-05 9.9043e-06 1.2301e-06)
(7.9681e-05 1.0849e-05 1.3483e-06)
(7.7449e-05 1.0896e-05 1.355e-06)
(7.4995e-05 1.0111e-05 1.2578e-06)
(7.2334e-05 8.6534e-06 1.0768e-06)
(6.9474e-05 6.7708e-06 8.4327e-07)
(6.6428e-05 4.7658e-06 5.9482e-07)
(6.3224e-05 2.9402e-06 3.6863e-07)
(5.9903e-05 1.5286e-06 1.935e-07)
(5.651e-05 6.5597e-07 8.493e-08)
(5.3082e-05 3.2956e-07 4.4123e-08)
(8.4442e-05 4.3325e-06 -1.0551e-09)
(8.3179e-05 6.5071e-06 -2.0464e-09)
(8.1534e-05 8.0053e-06 -2.7489e-09)
(7.9575e-05 8.7834e-06 -3.1488e-09)
(7.7357e-05 8.8355e-06 -3.2519e-09)
(7.4911e-05 8.2185e-06 -3.0873e-09)
(7.2255e-05 7.0623e-06 -2.7073e-09)
(6.9402e-05 5.5646e-06 -2.1902e-09)
(6.6367e-05 3.9653e-06 -1.6328e-09)
(6.3178e-05 2.5019e-06 -1.1296e-09)
(5.9872e-05 1.3607e-06 -7.542e-10)
(5.6492e-05 6.4343e-07 -5.4724e-10)
(5.307e-05 3.6017e-07 -5.1225e-10)
(8.4358e-05 3.6354e-06 -7.2355e-07)
(8.3108e-05 5.4845e-06 -1.0937e-06)
(8.1475e-05 6.7579e-06 -1.3487e-06)
(7.9526e-05 7.4211e-06 -1.4817e-06)
(7.7314e-05 7.4709e-06 -1.4923e-06)
(7.4871e-05 6.9569e-06 -1.3901e-06)
(7.2219e-05 5.9893e-06 -1.1973e-06)
(6.9369e-05 4.734e-06 -9.4704e-07)
(6.6339e-05 3.3917e-06 -6.7946e-07)
(6.3156e-05 2.1609e-06 -4.3405e-07)
(5.9857e-05 1.1976e-06 -2.4193e-07)
(5.6483e-05 5.877e-07 -1.2026e-07)
(5.3064e-05 3.4135e-07 -7.1124e-08)
(8.4306e-05 2.9193e-06 -1.4545e-06)
(8.3064e-05 4.4173e-06 -2.2031e-06)
(8.1439e-05 5.4488e-06 -2.7186e-06)
(7.9495e-05 5.9869e-06 -2.9878e-06)
(7.7287e-05 6.0303e-06 -3.0101e-06)
(7.4847e-05 5.6196e-06 -2.8056e-06)
(7.2196e-05 4.8437e-06 -2.4189e-06)
(6.9348e-05 3.8362e-06 -1.9166e-06)
(6.6321e-05 2.7579e-06 -1.3789e-06)
(6.3143e-05 1.7678e-06 -8.8512e-07)
(5.9848e-05 9.9113e-07 -4.9773e-07)
(5.6477e-05 4.9729e-07 -2.5141e-07)
(5.306e-05 2.9513e-07 -1.5059e-07)
(8.4288e-05 2.1899e-06 -2.1896e-06)
(8.305e-05 3.3181e-06 -3.3179e-06)
(8.1426e-05 4.095e-06 -4.0948e-06)
(7.9485e-05 4.5006e-06 -4.5005e-06)
(7.7278e-05 4.5343e-06 -4.5342e-06)
(7.4839e-05 4.2268e-06 -4.2267e-06)
(7.2188e-05 3.645e-06 -3.645e-06)
(6.9341e-05 2.8892e-06 -2.8892e-06)
(6.6316e-05 2.08e-06 -2.0801e-06)
(6.3138e-05 1.3366e-06 -1.3367e-06)
(5.9845e-05 7.5291e-07 -7.5316e-07)
(5.6475e-05 3.8124e-07 -3.8159e-07)
(5.3059e-05 2.284e-07 -2.2886e-07)
(8.4306e-05 1.4547e-06 -2.919e-06)
(8.3064e-05 2.2032e-06 -4.417e-06)
(8.1439e-05 2.7187e-06 -5.4485e-06)
(7.9495e-05 2.9879e-06 -5.9866e-06)
(7.7287e-05 3.0101e-06 -6.0301e-06)
(7.4847e-05 2.8056e-06 -5.6194e-06)
(7.2196e-05 2.4189e-06 -4.8436e-06)
(6.9348e-05 1.9165e-06 -3.8361e-06)
(6.6321e-05 1.3788e-06 -2.7579e-06)
(6.3143e-05 8.8492e-07 -1.7679e-06)
(5.9848e-05 4.9744e-07 -9.9134e-07)
(5.6477e-05 2.5101e-07 -4.9759e-07)
(5.306e-05 1.5006e-07 -2.9553e-07)
(8.4358e-05 7.2373e-07 -3.6351e-06)
(8.3108e-05 1.0938e-06 -5.4841e-06)
(8.1475e-05 1.3488e-06 -6.7576e-06)
(7.9526e-05 1.4818e-06 -7.4207e-06)
(7.7314e-05 1.4923e-06 -7.4706e-06)
(7.4871e-05 1.3901e-06 -6.9566e-06)
(7.2218e-05 1.1972e-06 -5.989e-06)
(6.9369e-05 9.4696e-07 -4.7338e-06)
(6.6339e-05 6.7932e-07 -3.3917e-06)
(6.3156e-05 4.3384e-07 -2.161e-06)
(5.9857e-05 2.4161e-07 -1.1978e-06)
(5.6483e-05 1.1982e-07 -5.8795e-07)
(5.3064e-05 7.0546e-08 -3.4168e-07)
(8.4442e-05 1.2584e-09 -4.3321e-06)
(8.3179e-05 2.214e-09 -6.5067e-06)
(8.1534e-05 2.8821e-09 -8.0049e-06)
(7.9575e-05 3.2498e-09 -8.783e-06)
(7.7356e-05 3.323e-09 -8.835e-06)
(7.491e-05 3.1268e-09 -8.2181e-06)
(7.2255e-05 2.7083e-09 -7.062e-06)
(6.9402e-05 2.1395e-09 -5.5645e-06)
(6.6367e-05 1.5124e-09 -3.9652e-06)
(6.3177e-05 9.1836e-10 -2.5019e-06)
(5.9872e-05 4.2801e-10 -1.3608e-06)
(5.6492e-05 8.2248e-11 -6.4364e-07)
(5.307e-05 -1.0841e-10 -3.6044e-07)
(8.4625e-05 -6.7195e-07 -5.4257e-06)
(8.3333e-05 -1.002e-06 -8.0755e-06)
(8.166e-05 -1.2298e-06 -9.9038e-06)
(7.9681e-05 -1.3481e-06 -1.0848e-05)
(7.7449e-05 -1.3547e-06 -1.0895e-05)
(7.4995e-05 -1.2575e-06 -1.011e-05)
(7.2334e-05 -1.0767e-06 -8.6531e-06)
(6.9474e-05 -8.432e-07 -6.7705e-06)
(6.6428e-05 -5.9487e-07 -4.7657e-06)
(6.3224e-05 -3.688e-07 -2.9402e-06)
(5.9902e-05 -1.9382e-07 -1.5287e-06)
(5.651e-05 -8.5415e-08 -6.5612e-07)
(5.3082e-05 -4.4784e-08 -3.2975e-07)
(8.4541e-05 4.7027e-06 1.5025e-06)
(8.3263e-05 7.032e-06 2.251e-06)
(8.1602e-05 8.638e-06 2.7673e-06)
(7.9632e-05 9.4701e-06 3.0356e-06)
(7.7406e-05 9.5187e-06 3.0527e-06)
(7.4955e-05 8.8434e-06 2.8374e-06)
(7.2296e-05 7.584e-06 2.4347e-06)
(6.9439e-05 5.9547e-06 1.9136e-06)
(6.6399e-05 4.2173e-06 1.3581e-06)
(6.3201e-05 2.6317e-06 8.5097e-07)
(5.9888e-05 1.4008e-06 4.5692e-07)
(5.6502e-05 6.3384e-07 2.1096e-07)
(5.3077e-05 3.3934e-07 1.1617e-07)
(8.4358e-05 3.6354e-06 7.224e-07)
(8.3108e-05 5.4845e-06 1.091e-06)
(8.1475e-05 6.7579e-06 1.345e-06)
(7.9526e-05 7.421e-06 1.4774e-06)
(7.7314e-05 7.4709e-06 1.4877e-06)
(7.4871e-05 6.9569e-06 1.3858e-06)
(7.2219e-05 5.9892e-06 1.1935e-06)
(6.9369e-05 4.7338e-06 9.4393e-07)
(6.6339e-05 3.3916e-06 6.7711e-07)
(6.3156e-05 2.1608e-06 4.3239e-07)
(5.9858e-05 1.1974e-06 2.4077e-07)
(5.6483e-05 5.8756e-07 1.1936e-07)
(5.3064e-05 3.4124e-07 7.0229e-08)
(8.4269e-05 2.9383e-06 -1.2072e-09)
(8.3033e-05 4.4531e-06 -2.2913e-09)
(8.1413e-05 5.496e-06 -3.0542e-09)
(7.9474e-05 6.0405e-06 -3.4832e-09)
(7.7268e-05 6.086e-06 -3.5852e-09)
(7.483e-05 5.6736e-06 -3.3933e-09)
(7.2181e-05 4.8935e-06 -2.967e-09)
(6.9335e-05 3.88e-06 -2.392e-09)
(6.631e-05 2.7949e-06 -1.7723e-09)
(6.3134e-05 1.7977e-06 -1.2103e-09)
(5.9842e-05 1.0141e-06 -7.875e-10)
(5.6474e-05 5.1441e-07 -5.4943e-10)
(5.3057e-05 3.0795e-07 -5.0125e-10)
(8.4214e-05 2.2221e-06 -7.4063e-07)
(8.2987e-05 3.3777e-06 -1.1269e-06)
(8.1374e-05 4.1731e-06 -1.3927e-06)
(7.9441e-05 4.5891e-06 -1.5319e-06)
(7.724e-05 4.6261e-06 -1.5445e-06)
(7.4805e-05 4.3158e-06 -1.4411e-06)
(7.2157e-05 3.7267e-06 -1.2447e-06)
(6.9313e-05 2.9607e-06 -9.8916e-07)
(6.6292e-05 2.1397e-06 -7.1527e-07)
(6.312e-05 1.3842e-06 -4.6321e-07)
(5.9833e-05 7.8928e-07 -2.6471e-07)
(5.6468e-05 4.0814e-07 -1.3758e-07)
(5.3053e-05 2.4859e-07 -8.4398e-08)
(8.4196e-05 1.4866e-06 -1.4864e-06)
(8.2971e-05 2.2625e-06 -2.2624e-06)
(8.1361e-05 2.7966e-06 -2.7966e-06)
(7.9431e-05 3.0762e-06 -3.0762e-06)
(7.7231e-05 3.1017e-06 -3.1017e-06)
(7.4796e-05 2.8945e-06 -2.8945e-06)
(7.2149e-05 2.5005e-06 -2.5006e-06)
(6.9306e-05 1.988e-06 -1.9881e-06)
(6.6286e-05 1.4386e-06 -1.4387e-06)
(6.3115e-05 9.327e-07 -9.3291e-07)
(5.983e-05 5.3397e-07 -5.3426e-07)
(5.6465e-05 2.7816e-07 -2.7855e-07)
(5.3052e-05 1.706e-07 -1.7109e-07)
(8.4214e-05 7.4071e-07 -2.2219e-06)
(8.2987e-05 1.1268e-06 -3.3775e-06)
(8.1374e-05 1.3927e-06 -4.1729e-06)
(7.9441e-05 1.5318e-06 -4.589e-06)
(7.724e-05 1.5443e-06 -4.626e-06)
(7.4805e-05 1.441e-06 -4.3157e-06)
(7.2157e-05 1.2445e-06 -3.7267e-06)
(6.9313e-05 9.8896e-07 -2.9607e-06)
(6.6292e-05 7.1505e-07 -2.1398e-06)
(6.312e-05 4.6295e-07 -1.3844e-06)
(5.9833e-05 2.6438e-07 -7.8953e-07)
(5.6467e-05 1.3715e-07 -4.0849e-07)
(5.3053e-05 8.3845e-08 -2.4903e-07)
(8.4269e-05 1.2433e-09 -2.938e-06)
(8.3033e-05 2.2065e-09 -4.4528e-06)
(8.1413e-05 2.8794e-09 -5.4956e-06)
(7.9474e-05 3.2505e-09 -6.0401e-06)
(7.7268e-05 3.3252e-09 -6.0856e-06)
(7.483e-05 3.1282e-09 -5.6733e-06)
(7.2181e-05 2.7078e-09 -4.8933e-06)
(6.9334e-05 2.1375e-09 -3.8799e-06)
(6.631e-05 1.509e-09 -2.7949e-06)
(6.3134e-05 9.1375e-10 -1.7977e-06)
(5.9842e-05 4.2381e-10 -1.0143e-06)
(5.6473e-05 8.1838e-11 -5.147e-07)
(5.3057e-05 -1.0082e-10 -3.0834e-07)
(8.4358e-05 -7.2234e-07 -3.635e-06)
(8.3108e-05 -1.0911e-06 -5.484e-06)
(8.1475e-05 -1.3451e-06 -6.7573e-06)
(7.9526e-05 -1.4776e-06 -7.4204e-06)
(7.7314e-05 -1.4879e-06 -7.4703e-06)
(7.4871e-05 -1.386e-06 -6.9564e-06)
(7.2218e-05 -1.1937e-06 -5.9888e-06)
(6.9369e-05 -9.4414e-07 -4.7336e-06)
(6.6339e-05 -6.7734e-07 -3.3914e-06)
(6.3156e-05 -4.3267e-07 -2.1608e-06)
(5.9857e-05 -2.4113e-07 -1.1976e-06)
(5.6483e-05 -1.1985e-07 -5.8781e-07)
(5.3064e-05 -7.0867e-08 -3.4157e-07)
(8.4541e-05 -1.5023e-06 -4.7023e-06)
(8.3263e-05 -2.2508e-06 -7.0315e-06)
(8.1602e-05 -2.7672e-06 -8.6374e-06)
(7.9632e-05 -3.0355e-06 -9.4694e-06)
(7.7406e-05 -3.0526e-06 -9.5181e-06)
(7.4955e-05 -2.8373e-06 -8.8429e-06)
(7.2296e-05 -2.4346e-06 -7.5836e-06)
(6.9439e-05 -1.9136e-06 -5.9544e-06)
(6.6398e-05 -1.3582e-06 -4.2172e-06)
(6.3201e-05 -8.5117e-07 -2.6317e-06)
(5.9887e-05 -4.5725e-07 -1.4009e-06)
(5.6501e-05 -2.1145e-07 -6.3405e-07)
(5.3077e-05 -1.1683e-07 -3.3962e-07)
(8.4489e-05 3.9355e-06 2.3275e-06)
(8.3219e-05 5.9046e-06 3.4959e-06)
(8.1566e-05 7.2618e-06 4.3014e-06)
(7.9602e-05 7.9664e-06 4.7202e-06)
(7.7379e-05 8.0121e-06 4.7485e-06)
(7.493e-05 7.4499e-06 4.4165e-06)
(7.2272e-05 6.3977e-06 3.7942e-06)
(6.9417e-05 5.0351e-06 2.988e-06)
(6.638e-05 3.5806e-06 2.1274e-06)
(6.3187e-05 2.2511e-06 1.3405e-06)
(5.9878e-05 1.2165e-06 7.2791e-07)
(5.6496e-05 5.6874e-07 3.4411e-07)
(5.3073e-05 3.1611e-07 1.9413e-07)
(8.4306e-05 2.9189e-06 1.4555e-06)
(8.3065e-05 4.4167e-06 2.2037e-06)
(8.1439e-05 5.4481e-06 2.7189e-06)
(7.9495e-05 5.9861e-06 2.9879e-06)
(7.7287e-05 6.0295e-06 3.01e-06)
(7.4847e-05 5.6187e-06 2.8055e-06)
(7.2196e-05 4.8429e-06 2.4187e-06)
(6.9348e-05 3.8355e-06 1.9163e-06)
(6.6322e-05 2.7573e-06 1.3786e-06)
(6.3143e-05 1.7673e-06 8.8485e-07)
(5.9848e-05 9.9076e-07 4.974e-07)
(5.6477e-05 4.9701e-07 2.5097e-07)
(5.306e-05 2.9493e-07 1.5e-07)
(8.4214e-05 2.2215e-06 7.3988e-07)
(8.2987e-05 3.3767e-06 1.1248e-06)
(8.1374e-05 4.1719e-06 1.3898e-06)
(7.9442e-05 4.5878e-06 1.5284e-06)
(7.724e-05 4.6248e-06 1.5408e-06)
(7.4805e-05 4.3145e-06 1.4376e-06)
(7.2157e-05 3.7256e-06 1.2416e-06)
(6.9314e-05 2.9598e-06 9.8666e-07)
(6.6292e-05 2.139e-06 7.1341e-07)
(6.312e-05 1.3837e-06 4.6191e-07)
(5.9833e-05 7.8893e-07 2.6381e-07)
(5.6468e-05 4.0792e-07 1.3686e-07)
(5.3053e-05 2.4844e-07 8.3652e-08)
(8.4158e-05 1.501e-06 -3.9845e-10)
(8.2939e-05 2.2882e-06 -1.055e-09)
(8.1334e-05 2.83e-06 -1.5203e-09)
(7.9408e-05 3.1138e-06 -1.7891e-09)
(7.7211e-05 3.1405e-06 -1.8679e-09)
(7.4779e-05 2.9319e-06 -1.778e-09)
(7.2133e-05 2.5346e-06 -1.5554e-09)
(6.9292e-05 2.0174e-06 -1.2493e-09)
(6.6274e-05 1.4626e-06 -9.1966e-10)
(6.3106e-05 9.5137e-07 -6.2703e-10)
(5.9823e-05 5.4782e-07 -4.201e-10)
(5.6461e-05 2.8816e-07 -3.2588e-10)
(5.3049e-05 1.7804e-07 -3.4593e-10)
(8.4139e-05 7.5562e-07 -7.556e-07)
(8.2923e-05 1.1533e-06 -1.1534e-06)
(8.1321e-05 1.427e-06 -1.4272e-06)
(7.9397e-05 1.5705e-06 -1.5707e-06)
(7.7201e-05 1.5842e-06 -1.5845e-06)
(7.477e-05 1.4794e-06 -1.4796e-06)
(7.2125e-05 1.2794e-06 -1.2797e-06)
(6.9285e-05 1.019e-06 -1.0193e-06)
(6.6268e-05 7.3961e-07 -7.3988e-07)
(6.3101e-05 4.82e-07 -4.8228e-07)
(5.982e-05 2.7847e-07 -2.7881e-07)
(5.6459e-05 1.4732e-07 -1.4774e-07)
(5.3047e-05 9.1441e-08 -9.198e-08)
(8.4158e-05 3.3276e-10 -1.5009e-06)
(8.2939e-05 8.1756e-10 -2.2882e-06)
(8.1334e-05 1.1603e-09 -2.83e-06)
(7.9408e-05 1.357e-09 -3.1139e-06)
(7.7211e-05 1.4106e-09 -3.1406e-06)
(7.4779e-05 1.332e-09 -2.932e-06)
(7.2133e-05 1.1427e-09 -2.5347e-06)
(6.9292e-05 8.7598e-10 -2.0175e-06)
(6.6274e-05 5.7506e-10 -1.4628e-06)
(6.3106e-05 2.8415e-10 -9.5162e-07)
(5.9823e-05 3.9122e-11 -5.4813e-07)
(5.6461e-05 -1.3785e-10 -2.8856e-07)
(5.3048e-05 -2.3938e-10 -1.7854e-07)
(8.4214e-05 -7.4008e-07 -2.2211e-06)
(8.2987e-05 -1.1253e-06 -3.3763e-06)
(8.1374e-05 -1.3904e-06 -4.1715e-06)
(7.9442e-05 -1.5291e-06 -4.5874e-06)
(7.724e-05 -1.5416e-06 -4.6244e-06)
(7.4805e-05 -1.4383e-06 -4.3142e-06)
(7.2157e-05 -1.2422e-06 -3.7254e-06)
(6.9313e-05 -9.872e-07 -2.9596e-06)
(6.6292e-05 -7.1387e-07 -2.139e-06)
(6.312e-05 -4.6234e-07 -1.3838e-06)
(5.9833e-05 -2.6425e-07 -7.8915e-07)
(5.6467e-05 -1.3737e-07 -4.0825e-07)
(5.3053e-05 -8.4289e-08 -2.4888e-07)
(8.4306e-05 -1.4556e-06 -2.9184e-06)
(8.3065e-05 -2.204e-06 -4.416e-06)
(8.1439e-05 -2.7195e-06 -5.4472e-06)
(7.9495e-05 -2.9885e-06 -5.9852e-06)
(7.7287e-05 -3.0107e-06 -6.0286e-06)
(7.4847e-05 -2.8061e-06 -5.618e-06)
(7.2196e-05 -2.4192e-06 -4.8423e-06)
(6.9348e-05 -1.9168e-06 -3.8351e-06)
(6.6321e-05 -1.3791e-06 -2.7571e-06)
(6.3143e-05 -8.8525e-07 -1.7673e-06)
(5.9848e-05 -4.9783e-07 -9.909e-07)
(5.6477e-05 -2.5149e-07 -4.9729e-07)
(5.306e-05 -1.5066e-07 -2.9532e-07)
(8.4489e-05 -2.3274e-06 -3.935e-06)
(8.3219e-05 -3.4958e-06 -5.9039e-06)
(8.1566e-05 -4.3014e-06 -7.261e-06)
(7.9601e-05 -4.7203e-06 -7.9656e-06)
(7.7379e-05 -4.7485e-06 -8.0112e-06)
(7.493e-05 -4.4166e-06 -7.4492e-06)
(7.2272e-05 -3.7943e-06 -6.3972e-06)
(6.9417e-05 -2.9881e-06 -5.0347e-06)
(6.6379e-05 -2.1275e-06 -3.5804e-06)
(6.3187e-05 -1.3408e-06 -2.2511e-06)
(5.9878e-05 -7.2825e-07 -1.2166e-06)
(5.6496e-05 -3.4461e-07 -5.69e-07)
(5.3073e-05 -1.948e-07 -3.1647e-07)
(8.447e-05 3.1398e-06 3.141e-06)
(8.3204e-05 4.7185e-06 4.7196e-06)
(8.1553e-05 5.8068e-06 5.8078e-06)
(7.9591e-05 6.3723e-06 6.3733e-06)
(7.7369e-05 6.4108e-06 6.4116e-06)
(7.4921e-05 5.9633e-06 5.9642e-06)
(7.2264e-05 5.1243e-06 5.1251e-06)
(6.941e-05 4.0371e-06 4.0378e-06)
(6.6373e-05 2.876e-06 2.8766e-06)
(6.3182e-05 1.8141e-06 1.8146e-06)
(5.9875e-05 9.8687e-07 9.8734e-07)
(5.6494e-05 4.6815e-07 4.6848e-07)
(5.3072e-05 2.6471e-07 2.6488e-07)
(8.4288e-05 2.1895e-06 2.1906e-06)
(8.305e-05 3.3175e-06 3.3185e-06)
(8.1426e-05 4.0943e-06 4.0951e-06)
(7.9485e-05 4.4998e-06 4.5006e-06)
(7.7278e-05 4.5335e-06 4.5342e-06)
(7.4839e-05 4.226e-06 4.2267e-06)
(7.2188e-05 3.6443e-06 3.6449e-06)
(6.9341e-05 2.8885e-06 2.8891e-06)
(6.6316e-05 2.0794e-06 2.08e-06)
(6.3138e-05 1.3361e-06 1.3366e-06)
(5.9845e-05 7.5253e-07 7.5296e-07)
(5.6476e-05 3.8096e-07 3.8128e-07)
(5.3059e-05 2.282e-07 2.2839e-07)
(8.4196e-05 1.4857e-06 1.4868e-06)
(8.2971e-05 2.2612e-06 2.2621e-06)
(8.1361e-05 2.795e-06 2.7957e-06)
(7.9431e-05 3.0744e-06 3.075e-06)
(7.7231e-05 3.0999e-06 3.1004e-06)
(7.4796e-05 2.8927e-06 2.8932e-06)
(7.2149e-05 2.499e-06 2.4995e-06)
(6.9306e-05 1.9868e-06 1.9872e-06)
(6.6286e-05 1.4376e-06 1.4381e-06)
(6.3116e-05 9.3199e-07 9.3242e-07)
(5.983e-05 5.3349e-07 5.3388e-07)
(5.6466e-05 2.7786e-07 2.7816e-07)
(5.3052e-05 1.7038e-07 1.7057e-07)
(8.4139e-05 7.5501e-07 7.5596e-07)
(8.2923e-05 1.1524e-06 1.153e-06)
(8.1321e-05 1.4258e-06 1.4263e-06)
(7.9397e-05 1.5692e-06 1.5695e-06)
(7.7201e-05 1.5829e-06 1.5832e-06)
(7.477e-05 1.4781e-06 1.4784e-06)
(7.2125e-05 1.2783e-06 1.2786e-06)
(6.9285e-05 1.0181e-06 1.0184e-06)
(6.6268e-05 7.3894e-07 7.3925e-07)
(6.3101e-05 4.8152e-07 4.8186e-07)
(5.982e-05 2.7816e-07 2.7849e-07)
(5.6459e-05 1.4712e-07 1.474e-07)
(5.3047e-05 9.1311e-08 9.1495e-08)
(8.412e-05 -4.6251e-10 3.8746e-10)
(8.2906e-05 -3.9608e-10 1.4512e-10)
(8.1307e-05 -3.4229e-10 -3.2591e-11)
(7.9385e-05 -2.9996e-10 -1.4612e-10)
(7.7191e-05 -2.6819e-10 -2.0178e-10)
(7.4761e-05 -2.4769e-10 -2.0957e-10)
(7.2117e-05 -2.4008e-10 -1.8156e-10)
(6.9277e-05 -2.464e-10 -1.3258e-10)
(6.6262e-05 -2.6503e-10 -8.166e-11)
(6.3097e-05 -2.9201e-10 -4.9821e-11)
(5.9817e-05 -3.229e-10 -5.4436e-11)
(5.6457e-05 -3.5364e-10 -1.042e-10)
(5.3045e-05 -3.8088e-10 -1.9652e-10)
(8.4139e-05 -7.5613e-07 -7.5518e-07)
(8.2923e-05 -1.1534e-06 -1.1528e-06)
(8.1321e-05 -1.4269e-06 -1.4264e-06)
(7.9397e-05 -1.5702e-06 -1.5698e-06)
(7.7201e-05 -1.5839e-06 -1.5836e-06)
(7.477e-05 -1.479e-06 -1.4788e-06)
(7.2125e-05 -1.2792e-06 -1.279e-06)
(6.9285e-05 -1.0189e-06 -1.0187e-06)
(6.6268e-05 -7.3967e-07 -7.3941e-07)
(6.3101e-05 -4.8224e-07 -4.8195e-07)
(5.982e-05 -2.7889e-07 -2.7859e-07)
(5.6459e-05 -1.4788e-07 -1.476e-07)
(5.3047e-05 -9.2103e-08 -9.1888e-08)
(8.4196e-05 -1.4874e-06 -1.4854e-06)
(8.2971e-05 -2.2632e-06 -2.2609e-06)
(8.1361e-05 -2.7971e-06 -2.7946e-06)
(7.9431e-05 -3.0766e-06 -3.0741e-06)
(7.7231e-05 -3.102e-06 -3.0995e-06)
(7.4796e-05 -2.8948e-06 -2.8925e-06)
(7.2149e-05 -2.5008e-06 -2.4988e-06)
(6.9306e-05 -1.9883e-06 -1.9867e-06)
(6.6286e-05 -1.4389e-06 -1.4376e-06)
(6.3115e-05 -9.3309e-07 -9.3213e-07)
(5.983e-05 -5.3445e-07 -5.3375e-07)
(5.6465e-05 -2.7874e-07 -2.7824e-07)
(5.3052e-05 -1.7126e-07 -1.7089e-07)
(8.4288e-05 -2.1912e-06 -2.1886e-06)
(8.305e-05 -3.3195e-06 -3.3163e-06)
(8.1426e-05 -4.0964e-06 -4.0928e-06)
(7.9485e-05 -4.502e-06 -4.4983e-06)
(7.7278e-05 -4.5357e-06 -4.532e-06)
(7.4839e-05 -4.228e-06 -4.2247e-06)
(7.2188e-05 -3.6461e-06 -3.6432e-06)
(6.9341e-05 -2.8901e-06 -2.8877e-06)
(6.6315e-05 -2.0807e-06 -2.0789e-06)
(6.3138e-05 -1.3372e-06 -1.3359e-06)
(5.9845e-05 -7.5351e-07 -7.526e-07)
(5.6475e-05 -3.8186e-07 -3.8123e-07)
(5.3059e-05 -2.291e-07 -2.2863e-07)
(8.4471e-05 -3.141e-06 -3.1391e-06)
(8.3204e-05 -4.7196e-06 -4.7175e-06)
(8.1553e-05 -5.8079e-06 -5.8056e-06)
(7.9591e-05 -6.3734e-06 -6.3711e-06)
(7.7369e-05 -6.4118e-06 -6.4095e-06)
(7.4921e-05 -5.9643e-06 -5.9622e-06)
(7.2264e-05 -5.1252e-06 -5.1234e-06)
(6.9409e-05 -4.0379e-06 -4.0364e-06)
(6.6373e-05 -2.8768e-06 -2.8756e-06)
(6.3182e-05 -1.8148e-06 -1.8139e-06)
(5.9874e-05 -9.8766e-07 -9.8697e-07)
(5.6494e-05 -4.6896e-07 -4.6843e-07)
(5.3072e-05 -2.6555e-07 -2.6513e-07)
(8.4488e-05 2.3263e-06 3.9367e-06)
(8.3219e-05 3.4948e-06 5.9057e-06)
(8.1566e-05 4.3004e-06 7.2629e-06)
(7.9602e-05 4.7193e-06 7.9674e-06)
(7.7379e-05 4.7477e-06 8.013e-06)
(7.493e-05 4.4158e-06 7.4508e-06)
(7.2272e-05 3.7935e-06 6.3986e-06)
(6.9417e-05 2.9874e-06 5.0359e-06)
(6.638e-05 2.1268e-06 3.5813e-06)
(6.3187e-05 1.34e-06 2.2518e-06)
(5.9878e-05 7.275e-07 1.217e-06)
(5.6496e-05 3.4382e-07 5.6913e-07)
(5.3074e-05 1.9398e-07 3.1631e-07)
(8.4306e-05 1.4543e-06 2.92e-06)
(8.3065e-05 2.2027e-06 4.4178e-06)
(8.1439e-05 2.7181e-06 5.449e-06)
(7.9495e-05 2.9872e-06 5.987e-06)
(7.7287e-05 3.0094e-06 6.0303e-06)
(7.4847e-05 2.8049e-06 5.6195e-06)
(7.2196e-05 2.4182e-06 4.8437e-06)
(6.9348e-05 1.9158e-06 3.8362e-06)
(6.6322e-05 1.3782e-06 2.758e-06)
(6.3143e-05 8.8441e-07 1.7679e-06)
(5.9849e-05 4.9702e-07 9.9126e-07)
(5.6478e-05 2.5068e-07 4.9737e-07)
(5.306e-05 1.4982e-07 2.9513e-07)
(8.4214e-05 7.3887e-07 2.2226e-06)
(8.2987e-05 1.124e-06 3.3777e-06)
(8.1374e-05 1.3892e-06 4.1728e-06)
(7.9442e-05 1.528e-06 4.5886e-06)
(7.724e-05 1.5405e-06 4.6255e-06)
(7.4805e-05 1.4373e-06 4.3152e-06)
(7.2157e-05 1.2413e-06 3.7262e-06)
(6.9314e-05 9.8633e-07 2.9604e-06)
(6.6292e-05 7.1306e-07 2.1396e-06)
(6.312e-05 4.6156e-07 1.3843e-06)
(5.9833e-05 2.6348e-07 7.8938e-07)
(5.6468e-05 1.3659e-07 4.0826e-07)
(5.3053e-05 8.3471e-08 2.4864e-07)
(8.4158e-05 -1.2584e-09 1.502e-06)
(8.2939e-05 -1.6083e-09 2.289e-06)
(8.1334e-05 -1.8423e-09 2.8306e-06)
(7.9408e-05 -1.954e-09 3.1144e-06)
(7.7211e-05 -1.9444e-09 3.141e-06)
(7.4779e-05 -1.8258e-09 2.9323e-06)
(7.2133e-05 -1.6226e-09 2.535e-06)
(6.9292e-05 -1.3699e-09 2.0178e-06)
(6.6274e-05 -1.1073e-09 1.463e-06)
(6.3106e-05 -8.7118e-10 9.5179e-07)
(5.9823e-05 -6.889e-10 5.4819e-07)
(5.6461e-05 -5.7468e-10 2.8846e-07)
(5.3049e-05 -5.2914e-10 1.7823e-07)
(8.4139e-05 -7.5635e-07 7.5636e-07)
(8.2923e-05 -1.1538e-06 1.1537e-06)
(8.1321e-05 -1.4273e-06 1.4271e-06)
(7.9397e-05 -1.5706e-06 1.5704e-06)
(7.7201e-05 -1.5843e-06 1.5841e-06)
(7.477e-05 -1.4795e-06 1.4792e-06)
(7.2125e-05 -1.2796e-06 1.2793e-06)
(6.9285e-05 -1.0192e-06 1.019e-06)
(6.6268e-05 -7.3994e-07 7.3972e-07)
(6.3101e-05 -4.8245e-07 4.8219e-07)
(5.982e-05 -2.7904e-07 2.7871e-07)
(5.6459e-05 -1.4798e-07 1.4754e-07)
(5.3047e-05 -9.2174e-08 9.1592e-08)
(8.4158e-05 -1.502e-06 1.8507e-10)
(8.2939e-05 -2.289e-06 -1.7254e-10)
(8.1334e-05 -2.8307e-06 -4.2808e-10)
(7.9408e-05 -3.1144e-06 -5.7944e-10)
(7.7211e-05 -3.141e-06 -6.3306e-10)
(7.4779e-05 -2.9324e-06 -6.0214e-10)
(7.2133e-05 -2.535e-06 -5.0613e-10)
(6.9292e-05 -2.0179e-06 -3.7198e-10)
(6.6274e-05 -1.4631e-06 -2.3335e-10)
(6.3106e-05 -9.5195e-07 -1.2527e-10)
(5.9823e-05 -5.4846e-07 -7.575e-11)
(5.6461e-05 -2.8886e-07 -9.8939e-11)
(5.3049e-05 -1.788e-07 -1.9186e-10)
(8.4214e-05 -2.223e-06 -7.3988e-07)
(8.2987e-05 -3.3785e-06 -1.1257e-06)
(8.1374e-05 -4.1738e-06 -1.3913e-06)
(7.9441e-05 -4.5898e-06 -1.5304e-06)
(7.724e-05 -4.6267e-06 -1.5429e-06)
(7.4805e-05 -4.3163e-06 -1.4396e-06)
(7.2157e-05 -3.7272e-06 -1.2433e-06)
(6.9313e-05 -2.9612e-06 -9.8803e-07)
(6.6292e-05 -2.1402e-06 -7.1438e-07)
(6.312e-05 -1.3848e-06 -4.6256e-07)
(5.9833e-05 -7.8986e-07 -2.6426e-07)
(5.6467e-05 -4.0879e-07 -1.3728e-07)
(5.3053e-05 -2.493e-07 -8.4197e-08)
(8.4306e-05 -2.9203e-06 -1.4537e-06)
(8.3064e-05 -4.4183e-06 -2.202e-06)
(8.1439e-05 -5.4497e-06 -2.7173e-06)
(7.9495e-05 -5.9878e-06 -2.9863e-06)
(7.7287e-05 -6.0311e-06 -3.0086e-06)
(7.4847e-05 -5.6203e-06 -2.8041e-06)
(7.2196e-05 -4.8443e-06 -2.4176e-06)
(6.9348e-05 -3.8367e-06 -1.9154e-06)
(6.6321e-05 -2.7584e-06 -1.378e-06)
(6.3143e-05 -1.7684e-06 -8.8444e-07)
(5.9848e-05 -9.917e-07 -4.9725e-07)
(5.6477e-05 -4.9791e-07 -2.5108e-07)
(5.306e-05 -2.9583e-07 -1.5037e-07)
(8.4488e-05 -3.9364e-06 -2.3252e-06)
(8.3219e-05 -5.9052e-06 -3.4934e-06)
(8.1566e-05 -7.2624e-06 -4.2988e-06)
(7.9601e-05 -7.9669e-06 -4.7175e-06)
(7.7379e-05 -8.0125e-06 -4.7459e-06)
(7.4929e-05 -7.4503e-06 -4.4142e-06)
(7.2272e-05 -6.3981e-06 -3.7922e-06)
(6.9417e-05 -5.0355e-06 -2.9864e-06)
(6.6379e-05 -3.5811e-06 -2.1262e-06)
(6.3187e-05 -2.2517e-06 -1.3398e-06)
(5.9878e-05 -1.2172e-06 -7.2756e-07)
(5.6496e-05 -5.6952e-07 -3.4413e-07)
(5.3073e-05 -3.1693e-07 -1.9446e-07)
(8.4541e-05 1.5012e-06 4.7039e-06)
(8.3263e-05 2.2499e-06 7.0331e-06)
(8.1602e-05 2.7663e-06 8.6391e-06)
(7.9632e-05 3.0348e-06 9.4712e-06)
(7.7406e-05 3.0519e-06 9.5198e-06)
(7.4955e-05 2.8367e-06 8.8445e-06)
(7.2296e-05 2.434e-06 7.585e-06)
(6.9439e-05 1.913e-06 5.9556e-06)
(6.6399e-05 1.3576e-06 4.2182e-06)
(6.3201e-05 8.505e-07 2.6325e-06)
(5.9888e-05 4.5654e-07 1.4014e-06)
(5.6502e-05 2.1069e-07 6.343e-07)
(5.3077e-05 1.1601e-07 3.3958e-07)
(8.4358e-05 7.2129e-07 3.6366e-06)
(8.3108e-05 1.0901e-06 5.4856e-06)
(8.1475e-05 1.3442e-06 6.759e-06)
(7.9526e-05 1.4767e-06 7.4221e-06)
(7.7314e-05 1.4872e-06 7.4719e-06)
(7.4871e-05 1.3853e-06 6.9578e-06)
(7.2219e-05 1.193e-06 5.9901e-06)
(6.9369e-05 9.4349e-07 4.7347e-06)
(6.6339e-05 6.7668e-07 3.3923e-06)
(6.3156e-05 4.3199e-07 2.1614e-06)
(5.9858e-05 2.4042e-07 1.198e-06)
(5.6483e-05 1.1909e-07 5.8798e-07)
(5.3064e-05 7.0053e-08 3.4147e-07)
(8.4269e-05 -2.1708e-09 2.9395e-06)
(8.3033e-05 -2.9936e-09 4.4542e-06)
(8.1413e-05 -3.5548e-09 5.4971e-06)
(7.9474e-05 -3.8401e-09 6.0415e-06)
(7.7268e-05 -3.8525e-09 6.0869e-06)
(7.483e-05 -3.6182e-09 5.6746e-06)
(7.2181e-05 -3.1876e-09 4.8944e-06)
(6.9335e-05 -2.6348e-09 3.8808e-06)
(6.631e-05 -2.0471e-09 2.7956e-06)
(6.3134e-05 -1.5087e-09 1.7983e-06)
(5.9843e-05 -1.084e-09 1.0147e-06)
(5.6474e-05 -8.0817e-10 5.1479e-07)
(5.3058e-05 -6.8568e-10 3.0818e-07)
(8.4214e-05 -7.4136e-07 2.2233e-06)
(8.2987e-05 -1.1272e-06 3.3788e-06)
(8.1374e-05 -1.3928e-06 4.1742e-06)
(7.9441e-05 -1.5318e-06 4.5902e-06)
(7.724e-05 -1.5443e-06 4.6271e-06)
(7.4805e-05 -1.4409e-06 4.3167e-06)
(7.2157e-05 -1.2445e-06 3.7275e-06)
(6.9314e-05 -9.8907e-07 2.9614e-06)
(6.6292e-05 -7.153e-07 2.1404e-06)
(6.312e-05 -4.6335e-07 1.3848e-06)
(5.9833e-05 -2.6492e-07 7.8976e-07)
(5.6468e-05 -1.378e-07 4.085e-07)
(5.3053e-05 -8.4578e-08 2.488e-07)
(8.4196e-05 -1.4867e-06 1.4878e-06)
(8.2971e-05 -2.2621e-06 2.2636e-06)
(8.1361e-05 -2.7958e-06 2.7977e-06)
(7.9431e-05 -3.0752e-06 3.0772e-06)
(7.7231e-05 -3.1006e-06 3.1026e-06)
(7.4796e-05 -2.8934e-06 2.8953e-06)
(7.2149e-05 -2.4997e-06 2.5013e-06)
(6.9306e-05 -1.9875e-06 1.9887e-06)
(6.6286e-05 -1.4383e-06 1.4392e-06)
(6.3116e-05 -9.3276e-07 9.3322e-07)
(5.983e-05 -5.3431e-07 5.344e-07)
(5.6466e-05 -2.787e-07 2.7848e-07)
(5.3052e-05 -1.7125e-07 1.7079e-07)
(8.4214e-05 -2.2224e-06 7.4063e-07)
(8.2987e-05 -3.3775e-06 1.1259e-06)
(8.1374e-05 -4.1725e-06 1.3912e-06)
(7.9442e-05 -4.5884e-06 1.53e-06)
(7.724e-05 -4.6253e-06 1.5424e-06)
(7.4805e-05 -4.315e-06 1.4391e-06)
(7.2157e-05 -3.7261e-06 1.243e-06)
(6.9313e-05 -2.9603e-06 9.8779e-07)
(6.6292e-05 -2.1396e-06 7.143e-07)
(6.312e-05 -1.3844e-06 4.6257e-07)
(5.9833e-05 -7.8963e-07 2.6427e-07)
(5.6468e-05 -4.0867e-07 1.3717e-07)
(5.3053e-05 -2.4923e-07 8.3864e-08)
(8.4269e-05 -2.9392e-06 -5.3066e-10)
(8.3033e-05 -4.4539e-06 -1.2884e-09)
(8.1413e-05 -5.4967e-06 -1.8197e-09)
(7.9474e-05 -6.0411e-06 -2.1145e-09)
(7.7268e-05 -6.0865e-06 -2.1804e-09)
(7.483e-05 -5.6741e-06 -2.0424e-09)
(7.2181e-05 -4.894e-06 -1.7436e-09)
(6.9335e-05 -3.8805e-06 -1.347e-09)
(6.631e-05 -2.7954e-06 -9.2981e-10)
(6.3134e-05 -1.7982e-06 -5.6911e-10)
(5.9842e-05 -1.0148e-06 -3.2531e-10)
(5.6474e-05 -5.151e-07 -2.304e-10)
(5.3057e-05 -3.087e-07 -2.8334e-10)
(8.4358e-05 -3.6363e-06 -7.2292e-07)
(8.3108e-05 -5.4853e-06 -1.0928e-06)
(8.1475e-05 -6.7587e-06 -1.3476e-06)
(7.9526e-05 -7.4217e-06 -1.4805e-06)
(7.7314e-05 -7.4715e-06 -1.491e-06)
(7.4871e-05 -6.9575e-06 -1.3889e-06)
(7.2218e-05 -5.9898e-06 -1.1962e-06)
(6.9369e-05 -4.7344e-06 -9.4608e-07)
(6.6339e-05 -3.3922e-06 -6.7866e-07)
(6.3156e-05 -2.1614e-06 -4.3343e-07)
(5.9857e-05 -1.1982e-06 -2.4147e-07)
(5.6483e-05 -5.8834e-07 -1.1994e-07)
(5.3064e-05 -3.4205e-07 -7.0906e-08)
(8.4541e-05 -4.7034e-06 -1.501e-06)
(8.3263e-05 -7.0324e-06 -2.2498e-06)
(8.1602e-05 -8.6382e-06 -2.7663e-06)
(7.9632e-05 -9.4702e-06 -3.0347e-06)
(7.7406e-05 -9.5188e-06 -3.0519e-06)
(7.4955e-05 -8.8435e-06 -2.8367e-06)
(7.2296e-05 -7.5841e-06 -2.4341e-06)
(6.9439e-05 -5.9549e-06 -1.9132e-06)
(6.6398e-05 -4.2177e-06 -1.3578e-06)