/*--------------------------------*- C++ -*----------------------------------*\
| =========                 |                                                 |
| \\      /  F ield         | foam-extend: Open Source CFD                    |
|  \\    /   O peration     | Version:     4.1-20200408                       |
|   \\  /    A nd           | Web:         http://www.foam-extend.org         |
|    \\/     M anipulation  |                                                 |
\*---------------------------------------------------------------------------*/
FoamFile
{
    version     2.0;
    format      ascii;
    class       volScalarField;
    location    "0.0765000";
    object      J;
}
// * * * * * * * * * * * * * * * * * * * * * * * * * * * * * * * * * * * * * //

dimensions      [0 0 0 0 0 0 0];

internalField   nonuniform List<scalar> 
1952
(
0.996406
0.996542
0.996736
0.996963
0.997242
0.997555
0.997922
0.998354
0.998819
0.999403
1.00006
1.00099
1.00199
1.00309
1.00381
0.996343
0.99645
0.996586
0.996781
0.997008
0.997288
0.997601
0.99797
0.998401
0.998867
0.99945
1.00011
1.00104
1.00204
1.00313
1.00385
0.996387
0.996471
0.996608
0.996803
0.99703
0.99731
0.997622
0.997991
0.998421
0.998887
0.999468
1.00013
1.00106
1.00205
1.00314
1.00384
0.996409
0.996489
0.996626
0.996821
0.997048
0.997327
0.99764
0.998008
0.998437
0.998902
0.999482
1.00014
1.00107
1.00205
1.00314
1.00384
0.996427
0.996506
0.996642
0.996837
0.997064
0.997343
0.997655
0.998022
0.998451
0.998915
0.999494
1.00015
1.00107
1.00206
1.00314
1.00384
0.996443
0.99652
0.996656
0.996851
0.997077
0.997356
0.997668
0.998035
0.998462
0.998925
0.999503
1.00016
1.00108
1.00207
1.00315
1.00384
0.996457
0.996532
0.996669
0.996863
0.997089
0.997368
0.997679
0.998046
0.998472
0.998934
0.999512
1.00017
1.00109
1.00207
1.00315
1.00384
0.99647
0.996543
0.996679
0.996874
0.9971
0.997378
0.997689
0.998055
0.998481
0.998942
0.999518
1.00017
1.00109
1.00207
1.00315
1.00384
0.99648
0.996552
0.996689
0.996883
0.997109
0.997387
0.997697
0.998063
0.998488
0.998949
0.999524
1.00018
1.0011
1.00208
1.00315
1.00384
0.99649
0.99656
0.996697
0.996891
0.997116
0.997394
0.997704
0.99807
0.998494
0.998954
0.99953
1.00018
1.0011
1.00208
1.00315
1.00384
0.996498
0.996567
0.996704
0.996898
0.997123
0.997401
0.997711
0.998076
0.9985
0.99896
0.999535
1.00019
1.0011
1.00208
1.00316
1.00384
0.996505
0.996573
0.99671
0.996904
0.997129
0.997407
0.997717
0.998082
0.998506
0.998965
0.99954
1.00019
1.00111
1.00209
1.00316
1.00385
0.996511
0.996579
0.996716
0.99691
0.997135
0.997412
0.997722
0.998087
0.998511
0.99897
0.999544
1.0002
1.00111
1.00209
1.00316
1.00385
0.996516
0.996584
0.996721
0.996915
0.997139
0.997417
0.997727
0.998092
0.998515
0.998974
0.999549
1.0002
1.00112
1.00209
1.00317
1.00385
0.996521
0.996588
0.996725
0.996919
0.997144
0.997422
0.997731
0.998097
0.99852
0.998979
0.999553
1.00021
1.00112
1.0021
1.00317
1.00386
0.996526
0.996592
0.99673
0.996924
0.997148
0.997426
0.997736
0.998102
0.998524
0.998983
0.999558
1.00021
1.00112
1.0021
1.00317
1.00386
0.99653
0.996596
0.996734
0.996928
0.997152
0.99743
0.99774
0.998106
0.998529
0.998988
0.999562
1.00022
1.00113
1.00211
1.00318
1.00386
0.996534
0.9966
0.996737
0.996931
0.997156
0.997434
0.997744
0.998111
0.998533
0.998992
0.999567
1.00022
1.00113
1.00211
1.00318
1.00387
0.996537
0.996603
0.99674
0.996935
0.997159
0.997438
0.997748
0.998115
0.998537
0.998997
0.999571
1.00023
1.00114
1.00212
1.00319
1.00387
0.99654
0.996606
0.996743
0.996938
0.997163
0.997441
0.997752
0.998119
0.998541
0.999001
0.999576
1.00023
1.00114
1.00212
1.00319
1.00388
0.996543
0.996608
0.996746
0.99694
0.997166
0.997445
0.997755
0.998123
0.998546
0.999006
0.999581
1.00024
1.00115
1.00213
1.0032
1.00389
0.996545
0.99661
0.996748
0.996943
0.997168
0.997448
0.997759
0.998127
0.99855
0.999011
0.999586
1.00024
1.00116
1.00214
1.00321
1.00389
0.996547
0.996612
0.99675
0.996945
0.99717
0.99745
0.997762
0.998131
0.998554
0.999015
0.999591
1.00025
1.00116
1.00215
1.00321
1.0039
0.996549
0.996613
0.996751
0.996946
0.997172
0.997453
0.997764
0.998134
0.998558
0.99902
0.999597
1.00026
1.00117
1.00215
1.00322
1.00391
0.99655
0.996613
0.996752
0.996947
0.997173
0.997454
0.997767
0.998138
0.998561
0.999024
0.999602
1.00026
1.00118
1.00216
1.00323
1.00392
0.99655
0.996612
0.996751
0.996947
0.997174
0.997455
0.997768
0.99814
0.998565
0.999029
0.999607
1.00027
1.00118
1.00217
1.00324
1.00393
0.996549
0.99661
0.99675
0.996945
0.997173
0.997455
0.997769
0.998143
0.998567
0.999033
0.999612
1.00028
1.00119
1.00218
1.00325
1.00394
0.996547
0.996607
0.996747
0.996943
0.997171
0.997455
0.997769
0.998144
0.998569
0.999036
0.999617
1.00028
1.0012
1.00219
1.00326
1.00395
0.996543
0.996601
0.996742
0.996939
0.997167
0.997452
0.997767
0.998144
0.99857
0.999039
0.999621
1.00029
1.00121
1.0022
1.00327
1.00396
0.996538
0.996594
0.996735
0.996932
0.997162
0.997448
0.997764
0.998142
0.99857
0.999041
0.999624
1.00029
1.00121
1.00221
1.00328
1.00398
0.99653
0.996584
0.996725
0.996924
0.997154
0.997441
0.997759
0.998138
0.998568
0.999041
0.999626
1.0003
1.00122
1.00222
1.00329
1.00399
0.99652
0.996571
0.996712
0.996912
0.997142
0.997431
0.99775
0.998133
0.998563
0.999039
0.999627
1.0003
1.00123
1.00223
1.0033
1.00401
0.996507
0.996554
0.996696
0.996896
0.997128
0.997418
0.997739
0.998123
0.998556
0.999035
0.999625
1.00031
1.00123
1.00224
1.00332
1.00402
0.996489
0.996532
0.996675
0.996876
0.997109
0.997401
0.997723
0.998111
0.998546
0.999028
0.999621
1.00031
1.00124
1.00225
1.00333
1.00404
0.996468
0.996506
0.996649
0.996851
0.997085
0.997379
0.997703
0.998093
0.998531
0.999017
0.999613
1.0003
1.00124
1.00225
1.00334
1.00406
0.996441
0.996474
0.996617
0.99682
0.997055
0.997351
0.997677
0.99807
0.99851
0.999001
0.999601
1.0003
1.00124
1.00226
1.00335
1.00408
0.996409
0.996435
0.996579
0.996783
0.997018
0.997316
0.997644
0.998041
0.998483
0.998978
0.999583
1.00029
1.00123
1.00226
1.00336
1.0041
0.99637
0.996389
0.996533
0.996738
0.996974
0.997274
0.997604
0.998003
0.998448
0.998948
0.999557
1.00027
1.00122
1.00226
1.00337
1.00411
0.996324
0.996336
0.996479
0.996685
0.996921
0.997222
0.997553
0.997955
0.998403
0.998908
0.999522
1.00024
1.0012
1.00225
1.00337
1.00413
0.99627
0.996274
0.996416
0.996623
0.996859
0.997161
0.997493
0.997896
0.998347
0.998856
0.999474
1.0002
1.00117
1.00224
1.00336
1.00414
0.996208
0.996204
0.996345
0.996551
0.996786
0.997088
0.99742
0.997825
0.998277
0.998789
0.999412
1.00015
1.00112
1.00221
1.00335
1.00415
0.996138
0.996126
0.996266
0.996471
0.996704
0.997004
0.997335
0.997739
0.998191
0.998705
0.999331
1.00008
1.00106
1.00216
1.00331
1.00415
0.996061
0.996042
0.996179
0.996381
0.996611
0.996908
0.997236
0.997636
0.998087
0.9986
0.999228
0.999981
1.00097
1.00209
1.00326
1.00413
0.995977
0.995953
0.996086
0.996285
0.99651
0.996801
0.997123
0.997517
0.997962
0.99847
0.999097
0.999852
1.00084
1.00199
1.00318
1.0041
0.995888
0.995862
0.99599
0.996185
0.996402
0.996685
0.996998
0.997381
0.997816
0.998313
0.998933
0.999684
1.00068
1.00184
1.00305
1.00403
0.995799
0.995774
0.995896
0.996084
0.996292
0.996562
0.996862
0.997228
0.997649
0.998126
0.998731
0.999467
1.00045
1.00162
1.00284
1.00389
0.995713
0.995695
0.99581
0.995989
0.996184
0.996438
0.99672
0.997063
0.997461
0.997909
0.998487
0.999192
1.00014
1.00128
1.00247
1.00353
0.995636
0.995633
0.99574
0.995907
0.996087
0.99632
0.99658
0.996892
0.997261
0.997667
0.998207
0.998859
0.999757
1.00083
1.00193
1.00287
0.995577
0.995599
0.995695
0.995849
0.99601
0.996219
0.996451
0.996727
0.997058
0.997412
0.997905
0.998489
0.999322
1.00031
1.00131
1.00216
0.995545
0.995603
0.995688
0.995827
0.995966
0.996147
0.996347
0.996579
0.996866
0.997159
0.997595
0.998095
0.998856
0.999746
1.00064
1.00142
0.995553
0.99566
0.995733
0.995854
0.99597
0.99612
0.996284
0.996468
0.996704
0.996926
0.997297
0.997697
0.998378
0.999141
0.999947
1.00067
0.995614
0.995786
0.995845
0.995948
0.996038
0.996155
0.996279
0.996411
0.996591
0.996736
0.997032
0.997316
0.997905
0.998498
0.99923
0.999879
0.995743
0.995997
0.996041
0.996126
0.996189
0.996272
0.996354
0.996431
0.996549
0.996612
0.996824
0.99698
0.997455
0.997846
0.998484
0.999033
0.995958
0.996311
0.99634
0.996405
0.996439
0.996487
0.996526
0.99655
0.996611
0.996604
0.996735
0.996757
0.997067
0.997227
0.997733
0.998097
0.996276
0.99674
0.996754
0.996803
0.996816
0.99684
0.996845
0.996819
0.996809
0.996717
0.99675
0.996629
0.996776
0.996705
0.997037
0.99708
0.99671
0.997334
0.997332
0.997357
0.997335
0.997315
0.997264
0.997167
0.997069
0.996876
0.996794
0.99654
0.996548
0.996249
0.996388
0.996038
0.997308
0.998043
0.998006
0.99798
0.997894
0.997797
0.997659
0.997477
0.997292
0.997005
0.996812
0.996431
0.996304
0.995813
0.995779
0.995052
0.998029
0.998687
0.998606
0.998522
0.998369
0.998193
0.997973
0.997705
0.997436
0.997072
0.996788
0.996311
0.996072
0.995431
0.995255
0.994246
0.998693
0.999177
0.99906
0.998926
0.998719
0.998484
0.9982
0.997872
0.997534
0.99711
0.99675
0.996203
0.99587
0.995124
0.994829
0.99363
0.999203
0.999508
0.999371
0.999204
0.998961
0.998684
0.998355
0.997983
0.997592
0.997126
0.996706
0.996116
0.995707
0.994899
0.994513
0.993202
0.999549
0.999687
0.999542
0.999356
0.999094
0.998793
0.998435
0.998038
0.997611
0.997122
0.996658
0.996049
0.995586
0.994758
0.994306
0.99296
0.99974
0.999729
0.999583
0.999388
0.999119
0.998809
0.998437
0.998032
0.997586
0.997093
0.996604
0.996
0.995503
0.994695
0.994204
0.992895
0.999789
0.999646
0.999504
0.999309
0.999042
0.998734
0.998363
0.997964
0.997515
0.997036
0.99654
0.995965
0.995457
0.994704
0.994202
0.992996
0.999708
0.999446
0.999313
0.999126
0.99887
0.998576
0.998217
0.997837
0.997401
0.99695
0.996465
0.995939
0.995441
0.994777
0.994297
0.993254
0.999507
0.999136
0.999016
0.998844
0.998608
0.998339
0.998003
0.997655
0.997244
0.996836
0.996378
0.995918
0.995453
0.994908
0.994478
0.993651
0.999191
0.998724
0.99862
0.998473
0.998266
0.99803
0.997729
0.997422
0.997049
0.996694
0.996278
0.9959
0.995488
0.99509
0.99474
0.994172
0.99877
0.998222
0.998137
0.998018
0.997846
0.997652
0.997396
0.99714
0.996815
0.996524
0.996163
0.99588
0.995545
0.995315
0.995072
0.994791
0.998258
0.997648
0.997582
0.997492
0.997356
0.997207
0.997001
0.996804
0.996538
0.99632
0.99603
0.995855
0.995618
0.995576
0.995464
0.995477
0.997675
0.99703
0.996977
0.996911
0.996805
0.996697
0.99654
0.996404
0.996205
0.996069
0.995864
0.995812
0.9957
0.995865
0.995903
0.996197
0.99705
0.996391
0.996346
0.996296
0.996212
0.996134
0.996017
0.995935
0.995802
0.995753
0.995647
0.995734
0.995776
0.996164
0.996366
0.99691
0.996408
0.99576
0.995719
0.995679
0.995608
0.995551
0.995463
0.995418
0.995337
0.995366
0.995364
0.9956
0.995821
0.996444
0.996816
0.997574
0.995776
0.995163
0.995122
0.995087
0.995025
0.99498
0.994905
0.994871
0.994811
0.994893
0.994987
0.995379
0.995803
0.996657
0.997193
0.998131
0.995178
0.994547
0.994503
0.994466
0.994402
0.99436
0.994297
0.994294
0.994309
0.994495
0.994728
0.995267
0.99583
0.996792
0.997455
0.998526
0.994563
0.994036
0.994013
0.994003
0.993985
0.994008
0.994049
0.99418
0.994349
0.994661
0.995005
0.995573
0.996121
0.997014
0.997631
0.998742
0.994045
0.994092
0.994117
0.994171
0.994243
0.994361
0.994513
0.994743
0.994989
0.995335
0.995685
0.996188
0.996636
0.997367
0.997851
0.998815
0.994083
0.99464
0.994686
0.994764
0.994869
0.995017
0.995191
0.995413
0.995641
0.995957
0.996281
0.996732
0.997147
0.997731
0.998158
0.998855
0.994624
0.995223
0.995266
0.995338
0.995435
0.995569
0.995729
0.99594
0.996168
0.996466
0.99677
0.997169
0.997543
0.998038
0.998464
0.998979
0.995207
0.995723
0.995771
0.995844
0.995944
0.996076
0.996233
0.99643
0.996643
0.996914
0.997191
0.997544
0.997879
0.998303
0.998681
0.999141
0.995706
0.996189
0.996236
0.996304
0.996398
0.996521
0.996667
0.996848
0.997047
0.997292
0.997544
0.997854
0.998153
0.998518
0.998852
0.999255
0.996173
0.996603
0.996649
0.996713
0.996803
0.996917
0.997053
0.997218
0.9974
0.997619
0.997845
0.998117
0.99838
0.998695
0.998983
0.999329
0.996588
0.996976
0.997019
0.997078
0.997162
0.997265
0.99739
0.997539
0.997703
0.997899
0.9981
0.998337
0.998567
0.998838
0.999086
0.999382
0.996962
0.997307
0.997348
0.997402
0.997479
0.997573
0.997686
0.997819
0.997966
0.998139
0.998316
0.998523
0.998723
0.998955
0.999167
0.999418
0.997294
0.997602
0.99764
0.997688
0.997758
0.997842
0.997944
0.998063
0.998194
0.998345
0.998501
0.998679
0.998853
0.999051
0.999232
0.999444
0.99759
0.997863
0.997898
0.997941
0.998005
0.998079
0.99817
0.998275
0.99839
0.998522
0.998659
0.998813
0.998962
0.999131
0.999284
0.999463
0.997853
0.998094
0.998126
0.998164
0.998221
0.998287
0.998367
0.998459
0.998561
0.998676
0.998794
0.998927
0.999054
0.999198
0.999327
0.999479
0.998085
0.998298
0.998328
0.998361
0.998411
0.998469
0.99854
0.998621
0.998709
0.998809
0.998911
0.999025
0.999134
0.999255
0.999365
0.999492
0.99829
0.998479
0.998505
0.998534
0.998579
0.998629
0.998692
0.998762
0.998839
0.998925
0.999013
0.99911
0.999203
0.999306
0.999398
0.999506
0.998472
0.998638
0.998661
0.998687
0.998726
0.99877
0.998825
0.998885
0.998952
0.999026
0.999101
0.999184
0.999263
0.99935
0.999428
0.999519
0.998632
0.998779
0.9988
0.998821
0.998856
0.998894
0.998942
0.998994
0.999052
0.999115
0.99918
0.99925
0.999317
0.99939
0.999456
0.999533
0.998773
0.998903
0.998922
0.998941
0.998971
0.999004
0.999045
0.99909
0.99914
0.999194
0.999249
0.999309
0.999366
0.999428
0.999483
0.999548
0.998899
0.999014
0.99903
0.999046
0.999073
0.999101
0.999137
0.999175
0.999218
0.999264
0.999311
0.999362
0.99941
0.999462
0.999509
0.999565
0.99901
0.999112
0.999127
0.99914
0.999163
0.999188
0.999218
0.999252
0.999288
0.999328
0.999368
0.999411
0.999451
0.999495
0.999535
0.999583
0.999109
0.9992
0.999212
0.999224
0.999244
0.999265
0.999292
0.99932
0.999351
0.999385
0.999419
0.999455
0.99949
0.999527
0.99956
0.999602
0.999197
0.999278
0.999289
0.999299
0.999317
0.999335
0.999357
0.999381
0.999408
0.999437
0.999466
0.999497
0.999526
0.999557
0.999586
0.999622
0.999276
0.999349
0.999358
0.999367
0.999382
0.999397
0.999417
0.999437
0.99946
0.999485
0.99951
0.999536
0.999561
0.999587
0.999612
0.999643
0.999347
0.999412
0.999421
0.999428
0.999441
0.999454
0.999471
0.999489
0.999508
0.999529
0.99955
0.999572
0.999593
0.999616
0.999637
0.999665
0.99941
0.99947
0.999477
0.999483
0.999495
0.999506
0.99952
0.999535
0.999552
0.99957
0.999588
0.999607
0.999625
0.999645
0.999663
0.999688
0.999468
0.999522
0.999528
0.999534
0.999544
0.999553
0.999566
0.999579
0.999593
0.999608
0.999624
0.99964
0.999656
0.999672
0.999689
0.999711
0.999521
0.99957
0.999575
0.99958
0.999589
0.999597
0.999608
0.999619
0.999631
0.999644
0.999658
0.999672
0.999685
0.9997
0.999714
0.999735
0.999569
0.999614
0.999619
0.999623
0.99963
0.999637
0.999647
0.999656
0.999667
0.999678
0.99969
0.999702
0.999714
0.999727
0.99974
0.999758
0.999613
0.999654
0.999659
0.999662
0.999668
0.999675
0.999683
0.999691
0.999701
0.999711
0.999721
0.999731
0.999742
0.999753
0.999765
0.999782
0.999653
0.999692
0.999695
0.999699
0.999704
0.99971
0.999717
0.999724
0.999733
0.999741
0.99975
0.99976
0.999769
0.999779
0.99979
0.999806
0.999691
0.999726
0.99973
0.999733
0.999737
0.999742
0.999749
0.999755
0.999763
0.99977
0.999778
0.999787
0.999795
0.999804
0.999814
0.99983
0.999726
0.999759
0.999762
0.999764
0.999769
0.999773
0.999779
0.999785
0.999791
0.999798
0.999805
0.999813
0.99982
0.999829
0.999838
0.999854
0.999758
0.999789
0.999791
0.999794
0.999798
0.999802
0.999807
0.999812
0.999818
0.999825
0.999831
0.999838
0.999845
0.999853
0.999862
0.999877
0.999788
0.999817
0.999819
0.999821
0.999825
0.999829
0.999833
0.999838
0.999844
0.99985
0.999856
0.999863
0.999869
0.999877
0.999886
0.9999
0.999816
0.999843
0.999845
0.999847
0.999851
0.999854
0.999858
0.999863
0.999868
0.999874
0.99988
0.999886
0.999892
0.9999
0.999909
0.999923
0.999843
0.999868
0.99987
0.999872
0.999875
0.999878
0.999882
0.999887
0.999892
0.999897
0.999903
0.999909
0.999915
0.999922
0.999931
0.999945
0.999867
0.999891
0.999892
0.999894
0.999897
0.9999
0.999904
0.999909
0.999913
0.999919
0.999924
0.99993
0.999936
0.999944
0.999953
0.999967
0.99989
0.999912
0.999914
0.999915
0.999918
0.999921
0.999925
0.999929
0.999934
0.999939
0.999945
0.999951
0.999957
0.999965
0.999974
0.999988
0.999911
0.999932
0.999933
0.999935
0.999938
0.999941
0.999945
0.999949
0.999954
0.999959
0.999964
0.999971
0.999977
0.999985
0.999994
1.00001
0.999931
0.99995
0.999951
0.999953
0.999956
0.999959
0.999963
0.999967
0.999972
0.999977
0.999983
0.999989
0.999996
1
1.00001
1.00003
0.999949
0.999967
0.999968
0.99997
0.999972
0.999976
0.999979
0.999984
0.999988
0.999994
1
1.00001
1.00001
1.00002
1.00003
1.00005
0.999966
0.999982
0.999983
0.999985
0.999988
0.999991
0.999994
0.999999
1
1.00001
1.00002
1.00002
1.00003
1.00004
1.00005
1.00007
0.999981
0.999996
0.999997
0.999999
1
1
1.00001
1.00001
1.00002
1.00002
1.00003
1.00004
1.00005
1.00005
1.00007
1.00009
0.999995
1.00001
1.00001
1.00001
1.00001
1.00002
1.00002
1.00002
1.00003
1.00004
1.00004
1.00005
1.00006
1.00007
1.00008
1.0001
1.00001
1.00002
1.00002
1.00002
1.00002
1.00003
1.00003
1.00004
1.00004
1.00005
1.00005
1.00006
1.00007
1.00008
1.0001
1.00012
1.00002
1.00003
1.00003
1.00003
1.00003
1.00004
1.00004
1.00004
1.00005
1.00005
1.00006
1.00007
1.00008
1.00009
1.00011
1.00013
1.00003
1.00004
1.00004
1.00004
1.00004
1.00004
1.00005
1.00005
1.00006
1.00006
1.00007
1.00008
1.00009
1.0001
1.00012
1.00014
1.00004
1.00004
1.00004
1.00005
1.00005
1.00005
1.00005
1.00006
1.00006
1.00007
1.00007
1.00008
1.00009
1.0001
1.00012
1.00015
1.00004
1.00005
1.00005
1.00005
1.00005
1.00006
1.00006
1.00006
1.00007
1.00007
1.00008
1.00008
1.00009
1.0001
1.00011
1.00013
1.00005
1.00005
1.00005
1.00005
1.00006
1.00006
1.00006
1.00006
1.00007
1.00007
1.00007
1.00008
1.00009
1.00009
1.0001
1.00012
1.00005
)
;

boundaryField
{
    wireUpstream
    {
        type            calculated;
        value           nonuniform List<scalar> 
16
(
1.00006
1.00006
1.00006
1.00006
1.00006
1.00006
1.00007
1.00007
1.00007
1.00008
1.00008
1.00008
1.00009
1.00009
1.0001
1.00006
)
;
    }
    wireDownstream
    {
        type            calculated;
        value           nonuniform List<scalar> 
16
(
0.996406
0.996542
0.996736
0.996963
0.997242
0.997555
0.997921
0.998352
0.998817
0.999399
1.00006
1.00098
1.00197
1.00306
1.00374
0.996343
)
;
    }
    wireTopContact
    {
        type            calculated;
        value           nonuniform List<scalar> 
122
(
1.00391
1.00391
1.00391
1.00391
1.00391
1.00391
1.00391
1.00391
1.00391
1.00391
1.00391
1.00392
1.00392
1.00392
1.00393
1.00393
1.00394
1.00394
1.00395
1.00395
1.00396
1.00397
1.00398
1.00398
1.00399
1.004
1.00402
1.00403
1.00404
1.00406
1.00407
1.00409
1.00411
1.00412
1.00414
1.00416
1.00418
1.00419
1.0042
1.00421
1.0042
1.00418
1.00414
1.00406
1.00392
1.00356
1.00287
1.00215
1.00139
1.00061
0.999828
0.999007
0.998114
0.99715
0.996145
0.995174
0.994389
0.993784
0.993354
0.993105
0.993029
0.993114
0.993357
0.993735
0.994237
0.994833
0.995494
0.996183
0.996862
0.997484
0.998003
0.998373
0.998584
0.998696
0.998844
0.998996
0.999146
0.999257
0.999334
0.999387
0.999425
0.999452
0.999471
0.999487
0.9995
0.999513
0.999526
0.999539
0.999554
0.99957
0.999588
0.999607
0.999626
0.999647
0.999669
0.999691
0.999714
0.999737
0.999761
0.999784
0.999808
0.999832
0.999855
0.999879
0.999901
0.999924
0.999946
0.999968
0.999989
1.00001
1.00003
1.00005
1.00007
1.00009
1.0001
1.00012
1.00013
1.00014
1.00015
1.00013
1.00012
1.00388
)
;
    }
    front
    {
        type            wedge;
    }
    back
    {
        type            wedge;
    }
}


// ************************************************************************* //
