/*--------------------------------*- C++ -*----------------------------------*\
| =========                 |                                                 |
| \\      /  F ield         | foam-extend: Open Source CFD                    |
|  \\    /   O peration     | Version:     4.1-20200408                       |
|   \\  /    A nd           | Web:         http://www.foam-extend.org         |
|    \\/     M anipulation  |                                                 |
\*---------------------------------------------------------------------------*/
FoamFile
{
    version     2.0;
    format      ascii;
    class       volScalarField;
    location    "0.0765000";
    object      sigmaHyd;
}
// * * * * * * * * * * * * * * * * * * * * * * * * * * * * * * * * * * * * * //

dimensions      [1 -1 -2 0 0 0 0];

internalField   nonuniform List<scalar> 
1952
(
-5.29199e+08
-5.09219e+08
-4.80647e+08
-4.47226e+08
-4.06203e+08
-3.60161e+08
-3.06146e+08
-2.42597e+08
-1.74058e+08
-8.8044e+07
9.32946e+06
1.46827e+08
2.93818e+08
4.5644e+08
5.62613e+08
-5.38484e+08
-5.22766e+08
-5.02706e+08
-4.74033e+08
-4.40601e+08
-3.99427e+08
-3.53392e+08
-2.99183e+08
-2.35726e+08
-1.67024e+08
-8.11248e+07
1.63581e+07
1.5356e+08
3.00472e+08
4.62412e+08
5.68288e+08
-5.31987e+08
-5.19599e+08
-4.99517e+08
-4.70838e+08
-4.37444e+08
-3.96261e+08
-3.50281e+08
-2.96071e+08
-2.32735e+08
-1.6412e+08
-7.83973e+07
1.89064e+07
1.55711e+08
3.02125e+08
4.63179e+08
5.67687e+08
-5.28792e+08
-5.16931e+08
-4.96846e+08
-4.68179e+08
-4.34817e+08
-3.93674e+08
-3.47748e+08
-2.93594e+08
-2.30392e+08
-1.61906e+08
-7.63585e+07
2.0755e+07
1.57259e+08
3.03351e+08
4.63942e+08
5.67901e+08
-5.26113e+08
-5.1453e+08
-4.94429e+08
-4.65776e+08
-4.32457e+08
-3.91362e+08
-3.45496e+08
-2.9141e+08
-2.28349e+08
-1.59998e+08
-7.46295e+07
2.23038e+07
1.58494e+08
3.04202e+08
4.64326e+08
5.67693e+08
-5.23702e+08
-5.12447e+08
-4.92357e+08
-4.63724e+08
-4.30457e+08
-3.89408e+08
-3.43603e+08
-2.8957e+08
-2.26632e+08
-1.58438e+08
-7.32158e+07
2.35324e+07
1.59471e+08
3.04919e+08
4.64681e+08
5.67642e+08
-5.21614e+08
-5.10647e+08
-4.90551e+08
-4.61928e+08
-4.28697e+08
-3.87711e+08
-3.4195e+08
-2.87996e+08
-2.25173e+08
-1.57096e+08
-7.20164e+07
2.4589e+07
1.60287e+08
3.05499e+08
4.64963e+08
5.67575e+08
-5.19809e+08
-5.09076e+08
-4.88978e+08
-4.60373e+08
-4.27178e+08
-3.86233e+08
-3.40525e+08
-2.86627e+08
-2.23933e+08
-1.55975e+08
-7.10123e+07
2.5482e+07
1.60997e+08
3.06019e+08
4.65248e+08
5.67606e+08
-5.18232e+08
-5.07699e+08
-4.87608e+08
-4.59017e+08
-4.25878e+08
-3.84978e+08
-3.39315e+08
-2.85459e+08
-2.22861e+08
-1.55011e+08
-7.01397e+07
2.62659e+07
1.61635e+08
3.06514e+08
4.65551e+08
5.67702e+08
-5.16852e+08
-5.06538e+08
-4.86441e+08
-4.5786e+08
-4.24747e+08
-3.8389e+08
-3.38253e+08
-2.84431e+08
-2.21907e+08
-1.54142e+08
-6.93391e+07
2.69978e+07
1.62239e+08
3.07013e+08
4.65892e+08
5.67881e+08
-5.15684e+08
-5.05523e+08
-4.85415e+08
-4.56842e+08
-4.23743e+08
-3.82915e+08
-3.37295e+08
-2.835e+08
-2.21049e+08
-1.53349e+08
-6.86014e+07
2.76942e+07
1.62833e+08
3.07527e+08
4.66263e+08
5.68132e+08
-5.14664e+08
-5.04617e+08
-4.84497e+08
-4.55942e+08
-4.2285e+08
-3.82041e+08
-3.36431e+08
-2.82647e+08
-2.20254e+08
-1.52602e+08
-6.78941e+07
2.83764e+07
1.63419e+08
3.08061e+08
4.66688e+08
5.68457e+08
-5.13752e+08
-5.03804e+08
-4.83667e+08
-4.55123e+08
-4.22048e+08
-3.81241e+08
-3.35638e+08
-2.81856e+08
-2.19524e+08
-1.51905e+08
-6.72277e+07
2.90429e+07
1.64021e+08
3.08626e+08
4.67152e+08
5.68854e+08
-5.12937e+08
-5.03049e+08
-4.82909e+08
-4.5437e+08
-4.21329e+08
-3.80506e+08
-3.34921e+08
-2.81118e+08
-2.18827e+08
-1.51228e+08
-6.65659e+07
2.97206e+07
1.64639e+08
3.09226e+08
4.67669e+08
5.69318e+08
-5.12193e+08
-5.02381e+08
-4.82233e+08
-4.53687e+08
-4.20657e+08
-3.79821e+08
-3.3423e+08
-2.80405e+08
-2.18139e+08
-1.50546e+08
-6.58898e+07
3.04123e+07
1.65271e+08
3.09876e+08
4.68235e+08
5.69841e+08
-5.11534e+08
-5.01753e+08
-4.81596e+08
-4.53042e+08
-4.20015e+08
-3.79155e+08
-3.33573e+08
-2.79723e+08
-2.17506e+08
-1.49891e+08
-6.52425e+07
3.11235e+07
1.65946e+08
3.10556e+08
4.68845e+08
5.70432e+08
-5.10922e+08
-5.01182e+08
-4.81017e+08
-4.52476e+08
-4.19438e+08
-3.78558e+08
-3.32961e+08
-2.7906e+08
-2.16846e+08
-1.49228e+08
-6.45629e+07
3.18461e+07
1.66628e+08
3.11285e+08
4.69517e+08
5.71084e+08
-5.10354e+08
-5.00675e+08
-4.80486e+08
-4.51934e+08
-4.18887e+08
-3.7798e+08
-3.32363e+08
-2.78423e+08
-2.16236e+08
-1.48575e+08
-6.38979e+07
3.25942e+07
1.67366e+08
3.12062e+08
4.70242e+08
5.718e+08
-5.09855e+08
-5.00203e+08
-4.79998e+08
-4.51446e+08
-4.18385e+08
-3.77439e+08
-3.31805e+08
-2.778e+08
-2.15608e+08
-1.47914e+08
-6.3206e+07
3.33726e+07
1.68128e+08
3.12875e+08
4.71019e+08
5.7259e+08
-5.09396e+08
-4.9981e+08
-4.79575e+08
-4.51013e+08
-4.17922e+08
-3.76942e+08
-3.3126e+08
-2.77186e+08
-2.14983e+08
-1.47242e+08
-6.24902e+07
3.41726e+07
1.68934e+08
3.13766e+08
4.71863e+08
5.73445e+08
-5.09003e+08
-4.99448e+08
-4.79182e+08
-4.50601e+08
-4.1749e+08
-3.76449e+08
-3.30737e+08
-2.76589e+08
-2.14373e+08
-1.46554e+08
-6.17613e+07
3.50265e+07
1.69783e+08
3.14687e+08
4.72762e+08
5.74374e+08
-5.08661e+08
-4.99159e+08
-4.78861e+08
-4.50262e+08
-4.17106e+08
-3.76011e+08
-3.3024e+08
-2.75994e+08
-2.13756e+08
-1.45873e+08
-6.10144e+07
3.58878e+07
1.70673e+08
3.15685e+08
4.73734e+08
5.75393e+08
-5.08376e+08
-4.98935e+08
-4.78595e+08
-4.49975e+08
-4.16783e+08
-3.75618e+08
-3.2979e+08
-2.75444e+08
-2.13163e+08
-1.45177e+08
-6.02509e+07
3.68008e+07
1.71605e+08
3.16734e+08
4.74774e+08
5.76487e+08
-5.08166e+08
-4.98808e+08
-4.78427e+08
-4.49766e+08
-4.16523e+08
-3.75276e+08
-3.29378e+08
-2.74912e+08
-2.12589e+08
-1.44495e+08
-5.94817e+07
3.77301e+07
1.72585e+08
3.17845e+08
4.75897e+08
5.7769e+08
-5.08053e+08
-4.98785e+08
-4.78355e+08
-4.49664e+08
-4.16362e+08
-3.75026e+08
-3.29044e+08
-2.74443e+08
-2.12052e+08
-1.43826e+08
-5.87124e+07
3.86878e+07
1.73603e+08
3.19026e+08
4.77091e+08
5.78996e+08
-5.08042e+08
-4.98901e+08
-4.78421e+08
-4.49678e+08
-4.16314e+08
-3.74869e+08
-3.28797e+08
-2.74039e+08
-2.11566e+08
-1.43179e+08
-5.79437e+07
3.96673e+07
1.74661e+08
3.20283e+08
4.78382e+08
5.80416e+08
-5.08177e+08
-4.99194e+08
-4.78656e+08
-4.49852e+08
-4.1641e+08
-3.74842e+08
-3.28656e+08
-2.73726e+08
-2.11148e+08
-1.4257e+08
-5.71974e+07
4.0656e+07
1.75736e+08
3.21602e+08
4.79764e+08
5.81961e+08
-5.08487e+08
-4.99681e+08
-4.79085e+08
-4.50207e+08
-4.16683e+08
-3.74974e+08
-3.28678e+08
-2.73554e+08
-2.10884e+08
-1.42075e+08
-5.65429e+07
4.16222e+07
1.7685e+08
3.22977e+08
4.8124e+08
5.83656e+08
-5.08997e+08
-5.00442e+08
-4.79787e+08
-4.50849e+08
-4.17229e+08
-3.75367e+08
-3.28927e+08
-2.73561e+08
-2.10724e+08
-1.41674e+08
-5.59342e+07
4.25552e+07
1.77944e+08
3.24419e+08
4.82821e+08
5.85502e+08
-5.09773e+08
-5.01545e+08
-4.80818e+08
-4.51773e+08
-4.18053e+08
-3.76013e+08
-3.29412e+08
-2.73796e+08
-2.108e+08
-1.41437e+08
-5.54668e+07
4.34241e+07
1.79041e+08
3.25914e+08
4.84499e+08
5.87511e+08
-5.10901e+08
-5.03014e+08
-4.82225e+08
-4.53081e+08
-4.1925e+08
-3.77002e+08
-3.30231e+08
-2.74317e+08
-2.1111e+08
-1.41406e+08
-5.51561e+07
4.41952e+07
1.80072e+08
3.27413e+08
4.86263e+08
5.89693e+08
-5.12404e+08
-5.04977e+08
-4.84115e+08
-4.54849e+08
-4.20889e+08
-3.78425e+08
-3.3144e+08
-2.75196e+08
-2.11754e+08
-1.4166e+08
-5.50776e+07
4.47927e+07
1.8102e+08
3.28932e+08
4.88103e+08
5.92047e+08
-5.14388e+08
-5.07469e+08
-4.8654e+08
-4.5714e+08
-4.23056e+08
-3.80337e+08
-3.33137e+08
-2.76533e+08
-2.12808e+08
-1.42253e+08
-5.52934e+07
4.51962e+07
1.81814e+08
3.30385e+08
4.89972e+08
5.94561e+08
-5.16925e+08
-5.10619e+08
-4.89627e+08
-4.60074e+08
-4.25842e+08
-3.82861e+08
-3.35406e+08
-2.78399e+08
-2.1436e+08
-1.43308e+08
-5.59019e+07
4.5268e+07
1.82376e+08
3.31751e+08
4.91843e+08
5.97216e+08
-5.20106e+08
-5.14494e+08
-4.93443e+08
-4.63735e+08
-4.29367e+08
-3.861e+08
-3.38386e+08
-2.80961e+08
-2.16566e+08
-1.44932e+08
-5.70346e+07
4.494e+07
1.82598e+08
3.3291e+08
4.93636e+08
5.99974e+08
-5.24026e+08
-5.19216e+08
-4.98126e+08
-4.68251e+08
-4.33742e+08
-3.90188e+08
-3.42206e+08
-2.84334e+08
-2.19572e+08
-1.4732e+08
-5.8861e+07
4.40185e+07
1.82357e+08
3.33776e+08
4.9526e+08
6.02792e+08
-5.28788e+08
-5.2489e+08
-5.03781e+08
-4.73765e+08
-4.39136e+08
-3.95307e+08
-3.4705e+08
-2.88723e+08
-2.23533e+08
-1.50616e+08
-6.15351e+07
4.23518e+07
1.81443e+08
3.3419e+08
4.96597e+08
6.05568e+08
-5.34497e+08
-5.31627e+08
-5.10528e+08
-4.80355e+08
-4.45636e+08
-4.01553e+08
-3.53047e+08
-2.94294e+08
-2.28711e+08
-1.5509e+08
-6.53442e+07
3.96757e+07
1.7966e+08
3.33933e+08
4.97462e+08
6.08201e+08
-5.41272e+08
-5.39487e+08
-5.18446e+08
-4.88182e+08
-4.53421e+08
-4.09142e+08
-3.60435e+08
-3.01293e+08
-2.35313e+08
-1.61013e+08
-7.05609e+07
3.56898e+07
1.7668e+08
3.32737e+08
4.97606e+08
6.10542e+08
-5.49155e+08
-5.48567e+08
-5.27637e+08
-4.97326e+08
-4.62599e+08
-4.18219e+08
-3.69377e+08
-3.09943e+08
-2.43616e+08
-1.68691e+08
-7.75244e+07
3.0005e+07
1.72114e+08
3.30258e+08
4.96707e+08
6.12347e+08
-5.5824e+08
-5.58852e+08
-5.38103e+08
-5.07816e+08
-4.73235e+08
-4.2888e+08
-3.8004e+08
-3.20489e+08
-2.53936e+08
-1.78499e+08
-8.66823e+07
2.215e+07
1.65436e+08
3.25945e+08
4.94296e+08
6.13309e+08
-5.68522e+08
-5.70271e+08
-5.49801e+08
-5.19658e+08
-4.85364e+08
-4.41236e+08
-3.92589e+08
-3.33166e+08
-2.66611e+08
-1.90922e+08
-9.85974e+07
1.14448e+07
1.55962e+08
3.19101e+08
4.89682e+08
6.12928e+08
-5.79902e+08
-5.82672e+08
-5.62593e+08
-5.32774e+08
-4.98975e+08
-4.55348e+08
-4.07166e+08
-3.48227e+08
-2.81946e+08
-2.06404e+08
-1.13846e+08
-2.87012e+06
1.42765e+08
3.08756e+08
4.81968e+08
6.10543e+08
-5.92223e+08
-5.95794e+08
-5.76239e+08
-5.46908e+08
-5.13859e+08
-4.71076e+08
-4.23719e+08
-3.65778e+08
-3.00239e+08
-2.25445e+08
-1.33149e+08
-2.17914e+07
1.24629e+08
2.93537e+08
4.69893e+08
6.05554e+08
-6.05223e+08
-6.09122e+08
-5.90256e+08
-5.61661e+08
-5.29679e+08
-4.88175e+08
-4.42144e+08
-3.85867e+08
-3.21744e+08
-2.48571e+08
-1.57338e+08
-4.65471e+07
9.98962e+07
2.71278e+08
4.51023e+08
5.96336e+08
-6.18381e+08
-6.2202e+08
-6.04032e+08
-5.76474e+08
-5.45929e+08
-5.06232e+08
-4.62106e+08
-4.08298e+08
-3.46417e+08
-2.76104e+08
-1.87103e+08
-7.85572e+07
6.62823e+07
2.38406e+08
4.19768e+08
5.75417e+08
-6.31031e+08
-6.33599e+08
-6.1668e+08
-5.90457e+08
-5.61781e+08
-5.24473e+08
-4.82945e+08
-4.3258e+08
-3.74002e+08
-3.08073e+08
-2.22938e+08
-1.1917e+08
2.11136e+07
1.89294e+08
3.65351e+08
5.21135e+08
-6.423e+08
-6.42666e+08
-6.27033e+08
-6.02475e+08
-5.76111e+08
-5.41795e+08
-5.03597e+08
-4.5768e+08
-4.03495e+08
-3.43673e+08
-2.64176e+08
-1.68181e+08
-3.58699e+07
1.22425e+08
2.84418e+08
4.23708e+08
-6.5099e+08
-6.47773e+08
-6.3362e+08
-6.11016e+08
-5.87401e+08
-5.56669e+08
-5.22517e+08
-4.82042e+08
-4.33348e+08
-3.81164e+08
-3.08715e+08
-2.22758e+08
-9.99322e+07
4.61951e+07
1.93378e+08
3.1884e+08
-6.55652e+08
-6.47112e+08
-6.34642e+08
-6.14292e+08
-5.93848e+08
-5.67223e+08
-5.37824e+08
-5.0368e+08
-4.61476e+08
-4.18411e+08
-3.54333e+08
-2.80754e+08
-1.68702e+08
-3.74179e+07
9.48245e+07
2.09972e+08
-6.54498e+08
-6.38711e+08
-6.28088e+08
-6.1021e+08
-5.93283e+08
-5.71222e+08
-5.47163e+08
-5.20108e+08
-4.85352e+08
-4.52671e+08
-3.98192e+08
-3.39342e+08
-2.39044e+08
-1.26644e+08
-7.76863e+06
9.83227e+07
-6.45542e+08
-6.20248e+08
-6.11618e+08
-5.96393e+08
-5.83271e+08
-5.66064e+08
-5.47856e+08
-5.28448e+08
-5.01973e+08
-4.80642e+08
-4.37134e+08
-3.95369e+08
-3.08726e+08
-2.21365e+08
-1.13555e+08
-1.78295e+07
-6.26509e+08
-5.89287e+08
-5.8276e+08
-5.70276e+08
-5.61099e+08
-5.4891e+08
-5.36871e+08
-5.25481e+08
-5.0809e+08
-4.98828e+08
-4.67748e+08
-4.44807e+08
-3.74955e+08
-3.17395e+08
-2.23475e+08
-1.42512e+08
-5.94941e+08
-5.43184e+08
-5.38904e+08
-5.29325e+08
-5.24296e+08
-5.17233e+08
-5.115e+08
-5.07947e+08
-4.98976e+08
-5.0004e+08
-4.80796e+08
-4.77535e+08
-4.31974e+08
-4.08464e+08
-3.34035e+08
-2.80451e+08
-5.48196e+08
-4.80066e+08
-4.77989e+08
-4.70811e+08
-4.68844e+08
-4.65366e+08
-4.6461e+08
-4.68399e+08
-4.69931e+08
-4.83502e+08
-4.78595e+08
-4.96312e+08
-4.74717e+08
-4.85145e+08
-4.36343e+08
-4.30107e+08
-4.84408e+08
-3.92778e+08
-3.93056e+08
-3.89365e+08
-3.92627e+08
-3.95464e+08
-4.03066e+08
-4.17225e+08
-4.31657e+08
-4.60112e+08
-4.72062e+08
-5.09487e+08
-5.08271e+08
-5.52209e+08
-5.31837e+08
-5.83176e+08
-3.96555e+08
-2.88352e+08
-2.93885e+08
-2.97611e+08
-3.10379e+08
-3.24636e+08
-3.44864e+08
-3.71693e+08
-3.98827e+08
-4.41091e+08
-4.69462e+08
-5.25549e+08
-5.44135e+08
-6.16302e+08
-6.21315e+08
-7.28003e+08
-2.90389e+08
-1.93563e+08
-2.05543e+08
-2.17813e+08
-2.40372e+08
-2.66231e+08
-2.98738e+08
-3.38053e+08
-3.7768e+08
-4.31292e+08
-4.73018e+08
-5.43121e+08
-5.78241e+08
-6.72353e+08
-6.98263e+08
-8.46242e+08
-1.92728e+08
-1.21299e+08
-1.38631e+08
-1.58364e+08
-1.8877e+08
-2.23444e+08
-2.65218e+08
-3.13561e+08
-3.63252e+08
-4.25653e+08
-4.7857e+08
-5.58941e+08
-6.0793e+08
-7.17516e+08
-7.60693e+08
-9.36556e+08
-1.17489e+08
-7.25763e+07
-9.27656e+07
-1.17415e+08
-1.53102e+08
-1.93917e+08
-2.42437e+08
-2.97189e+08
-3.54693e+08
-4.23241e+08
-4.85038e+08
-5.71846e+08
-6.3182e+08
-7.5043e+08
-8.07161e+08
-9.99289e+08
-6.64467e+07
-4.62035e+07
-6.75433e+07
-9.50293e+07
-1.33629e+08
-1.77985e+08
-2.30713e+08
-2.89183e+08
-3.52001e+08
-4.23933e+08
-4.92128e+08
-5.81674e+08
-6.49668e+08
-7.71151e+08
-8.3753e+08
-1.03469e+09
-3.8389e+07
-4.00032e+07
-6.14268e+07
-9.01718e+07
-1.29875e+08
-1.75628e+08
-2.30326e+08
-2.90056e+08
-3.55668e+08
-4.28201e+08
-5.00114e+08
-5.88823e+08
-6.61756e+08
-7.80406e+08
-8.52441e+08
-1.04422e+09
-3.11612e+07
-5.22652e+07
-7.30968e+07
-1.01841e+08
-1.41209e+08
-1.86551e+08
-2.41225e+08
-3.00006e+08
-3.66009e+08
-4.36534e+08
-5.09444e+08
-5.93966e+08
-6.68637e+08
-7.79151e+08
-8.52656e+08
-1.02948e+09
-4.3059e+07
-8.16911e+07
-1.01341e+08
-1.28915e+08
-1.66644e+08
-2.09959e+08
-2.62813e+08
-3.18706e+08
-3.82919e+08
-4.49145e+08
-5.20456e+08
-5.97775e+08
-6.70905e+08
-7.68341e+08
-8.38851e+08
-9.91673e+08
-7.27722e+07
-1.27323e+08
-1.45136e+08
-1.70343e+08
-2.05106e+08
-2.44848e+08
-2.94198e+08
-3.45488e+08
-4.05964e+08
-4.65963e+08
-5.3331e+08
-6.00832e+08
-6.69195e+08
-7.49148e+08
-8.12274e+08
-9.33495e+08
-1.19277e+08
-1.88039e+08
-2.0337e+08
-2.25083e+08
-2.55604e+08
-2.9032e+08
-3.34569e+08
-3.79701e+08
-4.34667e+08
-4.86807e+08
-5.48028e+08
-6.0355e+08
-6.63955e+08
-7.22496e+08
-7.73857e+08
-8.57054e+08
-1.81291e+08
-2.62043e+08
-2.74524e+08
-2.91995e+08
-3.1735e+08
-3.45886e+08
-3.83634e+08
-4.21197e+08
-4.6898e+08
-5.11784e+08
-5.64812e+08
-6.06394e+08
-6.55677e+08
-6.89472e+08
-7.25131e+08
-7.66363e+08
-2.56754e+08
-3.46461e+08
-3.56255e+08
-3.69451e+08
-3.89477e+08
-4.11378e+08
-4.41737e+08
-4.70642e+08
-5.09712e+08
-5.41747e+08
-5.8445e+08
-6.10161e+08
-6.44949e+08
-6.51059e+08
-6.67524e+08
-6.65598e+08
-3.42487e+08
-4.37495e+08
-4.45287e+08
-4.54963e+08
-4.7047e+08
-4.86354e+08
-5.09453e+08
-5.29436e+08
-5.58758e+08
-5.7873e+08
-6.08846e+08
-6.16497e+08
-6.32958e+08
-6.08679e+08
-6.0308e+08
-5.59915e+08
-4.34469e+08
-5.31344e+08
-5.38006e+08
-5.45326e+08
-5.57721e+08
-5.69116e+08
-5.86265e+08
-5.98359e+08
-6.17957e+08
-6.25168e+08
-6.40615e+08
-6.27851e+08
-6.21771e+08
-5.64673e+08
-5.34968e+08
-4.55055e+08
-5.28846e+08
-6.24013e+08
-6.30167e+08
-6.36042e+08
-6.46399e+08
-6.5474e+08
-6.67716e+08
-6.74293e+08
-6.86173e+08
-6.81904e+08
-6.8221e+08
-6.47556e+08
-6.15066e+08
-5.23517e+08
-4.68836e+08
-3.57471e+08
-6.21738e+08
-7.11776e+08
-7.17744e+08
-7.22841e+08
-7.31931e+08
-7.38532e+08
-7.49539e+08
-7.54592e+08
-7.63339e+08
-7.513e+08
-7.376e+08
-6.80077e+08
-6.17766e+08
-4.9226e+08
-4.13448e+08
-2.75373e+08
-7.09574e+08
-8.02154e+08
-8.08515e+08
-8.14072e+08
-8.23326e+08
-8.29495e+08
-8.38807e+08
-8.39295e+08
-8.37017e+08
-8.0982e+08
-7.75531e+08
-6.96537e+08
-6.13839e+08
-4.72394e+08
-3.74933e+08
-2.1723e+08
-7.99808e+08
-8.77133e+08
-8.80475e+08
-8.81939e+08
-8.84474e+08
-8.81147e+08
-8.75225e+08
-8.5595e+08
-8.31178e+08
-7.85446e+08
-7.34926e+08
-6.51465e+08
-5.71017e+08
-4.3984e+08
-3.49035e+08
-1.85506e+08
-8.75806e+08
-8.68864e+08
-8.65119e+08
-8.57221e+08
-8.467e+08
-8.29347e+08
-8.07061e+08
-7.73318e+08
-7.37207e+08
-6.86438e+08
-6.35133e+08
-5.61172e+08
-4.95286e+08
-3.87886e+08
-3.16637e+08
-1.74749e+08
-8.70211e+08
-7.88435e+08
-7.81759e+08
-7.70276e+08
-7.54835e+08
-7.33099e+08
-7.0757e+08
-6.75102e+08
-6.41578e+08
-5.95082e+08
-5.47538e+08
-4.81182e+08
-4.20212e+08
-3.3428e+08
-2.71454e+08
-1.68721e+08
-7.90892e+08
-7.02959e+08
-6.96557e+08
-6.86084e+08
-6.71845e+08
-6.5216e+08
-6.28647e+08
-5.97668e+08
-5.64161e+08
-5.20282e+08
-4.75643e+08
-4.1693e+08
-3.61931e+08
-2.89068e+08
-2.26343e+08
-1.50568e+08
-7.05302e+08
-6.29456e+08
-6.22449e+08
-6.11724e+08
-5.97026e+08
-5.77609e+08
-5.54657e+08
-5.25679e+08
-4.94332e+08
-4.54477e+08
-4.13686e+08
-3.61858e+08
-3.12471e+08
-2.50155e+08
-1.94448e+08
-1.26593e+08
-6.31941e+08
-5.61063e+08
-5.54203e+08
-5.44202e+08
-5.30284e+08
-5.123e+08
-4.90867e+08
-4.64139e+08
-4.34931e+08
-3.98826e+08
-3.61763e+08
-3.16134e+08
-2.72187e+08
-2.18376e+08
-1.69228e+08
-1.09919e+08
-5.63405e+08
-5.00213e+08
-4.93452e+08
-4.84041e+08
-4.70773e+08
-4.54059e+08
-4.34091e+08
-4.09724e+08
-3.83029e+08
-3.50737e+08
-3.17491e+08
-2.77498e+08
-2.38762e+08
-1.92411e+08
-1.49891e+08
-9.8882e+07
-5.0244e+08
-4.45432e+08
-4.38986e+08
-4.30372e+08
-4.18044e+08
-4.02818e+08
-3.84519e+08
-3.62531e+08
-3.38356e+08
-3.09645e+08
-2.80037e+08
-2.45105e+08
-2.1119e+08
-1.71309e+08
-1.34719e+08
-9.11715e+07
-4.47481e+08
-3.96687e+08
-3.90598e+08
-3.82765e+08
-3.71397e+08
-3.57622e+08
-3.40992e+08
-3.21315e+08
-2.9964e+08
-2.74295e+08
-2.4814e+08
-2.17762e+08
-1.88269e+08
-1.54075e+08
-1.22797e+08
-8.57843e+07
-3.98559e+08
-3.53315e+08
-3.47653e+08
-3.40618e+08
-3.30263e+08
-3.17926e+08
-3.02958e+08
-2.8548e+08
-2.66194e+08
-2.4394e+08
-2.20977e+08
-1.94662e+08
-1.6915e+08
-1.39922e+08
-1.13297e+08
-8.19558e+07
-3.55002e+08
-3.14879e+08
-3.09663e+08
-3.03391e+08
-2.94033e+08
-2.8306e+08
-2.69686e+08
-2.5426e+08
-2.37216e+08
-2.17779e+08
-1.97736e+08
-1.75029e+08
-1.5307e+08
-1.28168e+08
-1.05594e+08
-7.91318e+07
-3.16389e+08
-2.8086e+08
-2.76102e+08
-2.70553e+08
-2.62162e+08
-2.5247e+08
-2.40601e+08
-2.27062e+08
-2.12088e+08
-1.95188e+08
-1.77778e+08
-1.58253e+08
-1.39425e+08
-1.18264e+08
-9.91642e+07
-7.68238e+07
-2.82199e+08
-2.50794e+08
-2.46487e+08
-2.41607e+08
-2.34132e+08
-2.25618e+08
-2.15147e+08
-2.03324e+08
-1.90236e+08
-1.75602e+08
-1.60546e+08
-1.43811e+08
-1.27727e+08
-1.09792e+08
-9.3672e+07
-7.48393e+07
-2.51976e+08
-2.24233e+08
-2.20361e+08
-2.16094e+08
-2.09474e+08
-2.02034e+08
-1.92842e+08
-1.82563e+08
-1.71175e+08
-1.58549e+08
-1.45578e+08
-1.31275e+08
-1.17573e+08
-1.02401e+08
-8.88074e+07
-7.29113e+07
-2.25269e+08
-2.00769e+08
-1.97309e+08
-1.93595e+08
-1.87762e+08
-1.81287e+08
-1.73256e+08
-1.64353e+08
-1.54483e+08
-1.43625e+08
-1.32486e+08
-1.20293e+08
-1.08651e+08
-9.5837e+07
-8.43855e+07
-7.09589e+07
-2.01673e+08
-1.80024e+08
-1.76949e+08
-1.73729e+08
-1.68613e+08
-1.63001e+08
-1.5601e+08
-1.48326e+08
-1.398e+08
-1.30489e+08
-1.2095e+08
-1.10576e+08
-1.00703e+08
-8.98941e+07
-8.02469e+07
-6.88859e+07
-1.8081e+08
-1.61659e+08
-1.58939e+08
-1.56158e+08
-1.51687e+08
-1.46839e+08
-1.40775e+08
-1.34161e+08
-1.26818e+08
-1.18852e+08
-1.10701e+08
-1.01891e+08
-9.35291e+07
-8.44167e+07
-7.62816e+07
-6.66347e+07
-1.6234e+08
-1.45371e+08
-1.42974e+08
-1.40579e+08
-1.36685e+08
-1.32508e+08
-1.27263e+08
-1.21585e+08
-1.15276e+08
-1.08473e+08
-1.01521e+08
-9.40469e+07
-8.69718e+07
-7.92905e+07
-7.24202e+07
-6.41989e+07
-1.45958e+08
-1.30888e+08
-1.28784e+08
-1.26726e+08
-1.23343e+08
-1.19754e+08
-1.15228e+08
-1.10362e+08
-1.04951e+08
-9.91497e+07
-9.32279e+07
-8.68916e+07
-8.09065e+07
-7.44274e+07
-6.86094e+07
-6.15657e+07
-1.31394e+08
-1.17972e+08
-1.1613e+08
-1.14366e+08
-1.11434e+08
-1.08354e+08
-1.04456e+08
-1.00292e+08
-9.56578e+07
-9.07146e+07
-8.56735e+07
-8.03022e+07
-7.52369e+07
-6.97639e+07
-6.48175e+07
-5.87397e+07
-1.18407e+08
-1.06414e+08
-1.04805e+08
-1.03295e+08
-1.00758e+08
-9.81187e+07
-9.47649e+07
-9.12046e+07
-8.72388e+07
-8.30281e+07
-7.87373e+07
-7.41817e+07
-6.98905e+07
-6.5259e+07
-6.10367e+07
-5.57624e+07
-1.06788e+08
-9.60327e+07
-9.46296e+07
-9.3337e+07
-9.11447e+07
-8.88836e+07
-8.60002e+07
-8.29564e+07
-7.95629e+07
-7.59748e+07
-7.23202e+07
-6.84513e+07
-6.48081e+07
-6.08748e+07
-5.72447e+07
-5.26151e+07
-9.63529e+07
-8.66685e+07
-8.54464e+07
-8.43402e+07
-8.24462e+07
-8.0509e+07
-7.80299e+07
-7.54262e+07
-7.25208e+07
-6.94598e+07
-6.63431e+07
-6.3051e+07
-5.99503e+07
-5.65992e+07
-5.3461e+07
-4.937e+07
-8.69431e+07
-7.81857e+07
-7.71217e+07
-7.61741e+07
-7.45373e+07
-7.28757e+07
-7.07426e+07
-6.85122e+07
-6.60212e+07
-6.34047e+07
-6.07407e+07
-5.79312e+07
-5.52822e+07
-5.24136e+07
-4.96802e+07
-4.60327e+07
-7.84215e+07
-7.04675e+07
-6.95409e+07
-6.87275e+07
-6.73114e+07
-6.58833e+07
-6.40447e+07
-6.21296e+07
-5.99888e+07
-5.77455e+07
-5.54609e+07
-5.30536e+07
-5.07795e+07
-4.83094e+07
-4.59072e+07
-4.26212e+07
-7.06703e+07
-6.34139e+07
-6.2606e+07
-6.19055e+07
-6.06779e+07
-5.94465e+07
-5.78575e+07
-5.62071e+07
-5.4361e+07
-5.24295e+07
-5.04614e+07
-4.83877e+07
-4.6423e+07
-4.42802e+07
-4.21473e+07
-3.91553e+07
-6.35888e+07
-5.69402e+07
-5.62345e+07
-5.56284e+07
-5.45608e+07
-5.34943e+07
-5.21156e+07
-5.06864e+07
-4.90867e+07
-4.74143e+07
-4.57087e+07
-4.39099e+07
-4.21987e+07
-4.03224e+07
-3.84047e+07
-3.56442e+07
-5.70919e+07
-5.09749e+07
-5.03565e+07
-4.98289e+07
-4.88965e+07
-4.79671e+07
-4.67646e+07
-4.55189e+07
-4.41242e+07
-4.26656e+07
-4.11764e+07
-3.96029e+07
-3.80984e+07
-3.6439e+07
-3.4695e+07
-3.21239e+07
-5.11072e+07
-4.54578e+07
-4.49137e+07
-4.44507e+07
-4.36317e+07
-4.28155e+07
-4.17598e+07
-4.06651e+07
-3.94395e+07
-3.81558e+07
-3.68433e+07
-3.54528e+07
-3.41146e+07
-3.26289e+07
-3.10214e+07
-2.85983e+07
-4.55741e+07
-4.03388e+07
-3.98576e+07
-3.94472e+07
-3.87228e+07
-3.79992e+07
-3.70644e+07
-3.60929e+07
-3.50054e+07
-3.38635e+07
-3.26936e+07
-3.14498e+07
-3.0244e+07
-2.88963e+07
-2.73949e+07
-2.50875e+07
-4.04421e+07
-3.55764e+07
-3.51481e+07
-3.478e+07
-3.41338e+07
-3.34848e+07
-3.26489e+07
-3.17764e+07
-3.08004e+07
-2.97715e+07
-2.8715e+07
-2.7587e+07
-2.64844e+07
-2.5244e+07
-2.38234e+07
-2.16062e+07
-3.56692e+07
-3.11367e+07
-3.07526e+07
-3.04179e+07
-2.98356e+07
-2.9246e+07
-2.84897e+07
-2.76954e+07
-2.68078e+07
-2.58672e+07
-2.48988e+07
-2.38596e+07
-2.28347e+07
-2.16745e+07
-2.03111e+07
-1.81578e+07
-3.12213e+07
-2.69922e+07
-2.66449e+07
-2.63358e+07
-2.58053e+07
-2.52617e+07
-2.45685e+07
-2.38345e+07
-2.30152e+07
-2.21415e+07
-2.12391e+07
-2.02653e+07
-1.92959e+07
-1.81926e+07
-1.68666e+07
-1.47571e+07
-2.70704e+07
-2.31209e+07
-2.28039e+07
-2.25141e+07
-2.20247e+07
-2.15159e+07
-2.08714e+07
-2.01822e+07
-1.94139e+07
-1.85883e+07
-1.77326e+07
-1.68035e+07
-1.58697e+07
-1.48022e+07
-1.34951e+07
-1.14098e+07
-2.31945e+07
-1.9506e+07
-1.92138e+07
-1.89376e+07
-1.84805e+07
-1.79967e+07
-1.73886e+07
-1.6731e+07
-1.59985e+07
-1.52048e+07
-1.43785e+07
-1.34757e+07
-1.25594e+07
-1.15077e+07
-1.02013e+07
-8.11841e+06
-1.95762e+07
-1.61343e+07
-1.58625e+07
-1.55953e+07
-1.51628e+07
-1.4696e+07
-1.41139e+07
-1.34764e+07
-1.27668e+07
-1.19906e+07
-1.11788e+07
-1.02856e+07
-9.37051e+06
-8.31732e+06
-6.99691e+06
-4.90296e+06
-1.62024e+07
-1.29964e+07
-1.27412e+07
-1.24792e+07
-1.20652e+07
-1.16086e+07
-1.10437e+07
-1.04169e+07
-9.71887e+06
-8.94803e+06
-8.13693e+06
-7.23821e+06
-6.3086e+06
-5.23574e+06
-3.88371e+06
-1.75668e+06
-1.30632e+07
-1.00855e+07
-9.84398e+06
-9.58437e+06
-9.18374e+06
-8.73213e+06
-8.17754e+06
-7.55357e+06
-6.85795e+06
-6.08192e+06
-5.25971e+06
-4.34188e+06
-3.3832e+06
-2.27419e+06
-875283
1.29967e+06
-1.01517e+07
-7.39711e+06
-7.16702e+06
-6.90779e+06
-6.51692e+06
-6.06655e+06
-5.5169e+06
-4.89004e+06
-4.1894e+06
-3.39967e+06
-2.55601e+06
-1.60654e+06
-604079
559563
2.02572e+06
4.27562e+06
-7.46321e+06
-4.92817e+06
-4.70805e+06
-4.44814e+06
-4.06465e+06
-3.61334e+06
-3.0652e+06
-2.43172e+06
-1.72097e+06
-911370
-38039.8
953608
2.01348e+06
3.24969e+06
4.80425e+06
7.15748e+06
-4.99437e+06
-2.67664e+06
-2.46569e+06
-2.20503e+06
-1.82791e+06
-1.37514e+06
-827135
-185708
537644
1.37041e+06
2.2789e+06
3.32066e+06
4.45016e+06
5.77641e+06
7.44258e+06
9.93149e+06
-2.74292e+06
-640969
-439040
-178555
191791
644728
1.1917e+06
1.83969e+06
2.57491e+06
3.43049e+06
4.37578e+06
5.47161e+06
6.68019e+06
8.11215e+06
9.91551e+06
1.25797e+07
-707023
1.18104e+06
1.37346e+06
1.63182e+06
1.99356e+06
2.44348e+06
2.98606e+06
3.63616e+06
4.37863e+06
5.25201e+06
6.23033e+06
7.37804e+06
8.66971e+06
1.02175e+07
1.21837e+07
1.50627e+07
1.11573e+06
2.79194e+06
2.97382e+06
3.22715e+06
3.57708e+06
4.01897e+06
4.5513e+06
5.19577e+06
5.93654e+06
6.81715e+06
7.81757e+06
9.00653e+06
1.03767e+07
1.20422e+07
1.42013e+07
1.73432e+07
2.72811e+06
4.19767e+06
4.3675e+06
4.61204e+06
4.94571e+06
5.3728e+06
5.88654e+06
6.5143e+06
7.23949e+06
8.1101e+06
9.11189e+06
1.03189e+07
1.17466e+07
1.35159e+07
1.58978e+07
1.93734e+07
4.13624e+06
5.4059e+06
5.56174e+06
5.79305e+06
6.10503e+06
6.50915e+06
6.99395e+06
7.59096e+06
8.28209e+06
9.11843e+06
1.00891e+07
1.12738e+07
1.27089e+07
1.45338e+07
1.71221e+07
2.10111e+07
5.3479e+06
6.39886e+06
6.53935e+06
6.75385e+06
7.03977e+06
7.41418e+06
7.86125e+06
8.41509e+06
9.05483e+06
9.83238e+06
1.0735e+07
1.18445e+07
1.32028e+07
1.49669e+07
1.75822e+07
2.16952e+07
6.34508e+06
7.35458e+06
7.47429e+06
7.66267e+06
7.91035e+06
8.23845e+06
8.62671e+06
9.1096e+06
9.66075e+06
1.03273e+07
1.10835e+07
1.19955e+07
1.30651e+07
1.4411e+07
1.6373e+07
1.94306e+07
7.30735e+06
7.7577e+06
7.86246e+06
8.03089e+06
8.25057e+06
8.54436e+06
8.8901e+06
9.32223e+06
9.81178e+06
1.0403e+07
1.10623e+07
1.18435e+07
1.27112e+07
1.37239e+07
1.49477e+07
1.71951e+07
7.71548e+06
)
;

boundaryField
{
    wireUpstream
    {
        type            zeroGradient;
    }
    wireDownstream
    {
        type            zeroGradient;
    }
    wireTopContact
    {
        type            zeroGradient;
    }
    front
    {
        type            wedge;
    }
    back
    {
        type            wedge;
    }
}


// ************************************************************************* //
