/*--------------------------------*- C++ -*----------------------------------*\
| =========                 |                                                 |
| \\      /  F ield         | OpenFOAM: The Open Source CFD Toolbox           |
|  \\    /   O peration     | Version:  4.1                                   |
|   \\  /    A nd           | Web:      www.OpenFOAM.org                      |
|    \\/     M anipulation  |                                                 |
\*---------------------------------------------------------------------------*/
FoamFile
{
    version     2.0;
    format      ascii;
    class       volScalarField;
    location    "0.000440";
    object      epsilon;
}
// * * * * * * * * * * * * * * * * * * * * * * * * * * * * * * * * * * * * * //

dimensions      [0 2 -3 0 0 0 0];

internalField   nonuniform List<scalar> 
3072
(
74.753448
75.365934
75.941314
76.235904
76.85069
77.26791
77.711584
78.183075
78.467896
78.97405
79.047036
79.064462
78.80053
78.296766
77.697614
76.726698
75.699273
74.157492
71.895253
67.917515
60.484046
48.774343
34.367935
20.766274
57.708578
58.486951
59.286277
59.90629
60.713164
61.29232
61.897241
62.426682
62.836317
63.340707
63.461136
63.541657
63.317796
62.917775
62.389998
61.543252
60.597854
59.076247
56.701428
52.530699
45.607889
36.22064
26.13482
18.072965
43.063371
43.680193
44.294345
44.798091
45.439549
45.922774
46.462313
46.949239
47.352103
47.776213
47.95402
48.077584
47.979719
47.744425
47.366749
46.739998
45.933909
44.653585
42.700038
39.522642
34.722883
28.665262
22.219799
16.922637
33.608137
34.03999
34.468638
34.857449
35.317627
35.721554
36.155319
36.573242
36.970572
37.323043
37.584562
37.747972
37.808225
37.746823
37.547155
37.193351
36.618873
35.706186
34.286877
32.01354
28.70638
24.599423
20.148949
16.338444
27.602987
27.866705
28.131621
28.410617
28.698526
29.027714
29.34259
29.665439
29.995056
30.279263
30.558059
30.74189
30.878638
30.915575
30.846277
30.672364
30.295235
29.687686
28.689278
27.12528
24.904939
22.107359
18.922727
16.015992
23.755054
23.864699
23.996567
24.162173
24.338603
24.552088
24.784948
25.042742
25.305923
25.58322
25.832607
26.067586
26.240353
26.353027
26.381207
26.299136
26.07869
25.663632
24.98522
23.96603
22.532923
20.649179
18.263129
15.880692
21.987824
21.952157
21.979134
22.064532
22.187313
22.372427
22.599218
22.868885
23.175667
23.495935
23.807533
24.086846
24.315488
24.468325
24.524827
24.458904
24.251647
23.889499
23.354461
22.621905
21.625676
20.213827
18.13827
15.872138
23.922425
23.68143
23.578996
23.595164
23.690501
23.872676
24.155127
24.535181
24.993212
25.484545
25.96918
26.407008
26.759218
26.987076
27.050309
26.908579
26.542523
25.95836
25.175676
24.201448
22.975112
21.251488
18.751672
16.084355
57.718889
58.497237
59.293457
59.909403
60.712907
61.291888
61.897991
62.43341
62.852013
63.364967
63.489324
63.574224
63.356883
62.964242
62.444075
61.599096
60.647742
59.115716
56.730855
52.548864
45.613895
36.220823
26.134886
18.073259
40.4485
41.135862
41.813978
42.345055
43.010642
43.472154
43.975651
44.38616
44.735739
45.094045
45.186058
45.270915
45.113196
44.85954
44.473258
43.867146
43.109399
41.830507
39.814976
36.486246
31.685754
26.103302
20.594652
16.352792
27.67373
28.073369
28.466772
28.803956
29.244252
29.601152
30.021548
30.3984
30.753196
31.124454
31.358475
31.57591
31.654344
31.657495
31.555466
31.29664
30.872977
30.10761
28.888088
26.980595
24.400521
21.49899
18.434291
15.787705
21.253286
21.507901
21.774366
22.041217
22.365304
22.686581
23.036214
23.396235
23.761436
24.118937
24.438449
24.713763
24.935934
25.089132
25.162315
25.131393
24.950097
24.551744
23.862083
22.772501
21.312724
19.619876
17.579232
15.57453
18.055554
18.237123
18.443946
18.680923
18.944708
19.251331
19.570273
19.906208
20.252775
20.595814
20.931868
21.230225
21.495154
21.702437
21.84505
21.904412
21.842222
21.634674
21.227723
20.589988
19.749056
18.702932
17.182121
15.481154
16.57337
16.730327
16.927798
17.158863
17.427424
17.716802
18.034508
18.363213
18.703309
19.039828
19.366797
19.667796
19.933475
20.147689
20.301062
20.376246
20.352763
20.209534
19.931812
19.526407
19.013559
18.314566
17.040429
15.454846
17.006512
17.150592
17.342835
17.576791
17.84977
18.15379
18.481374
18.819912
19.163707
19.499377
19.815517
20.098662
20.338946
20.521782
20.634929
20.659529
20.580218
20.386352
20.078237
19.681873
19.220938
18.567052
17.232509
15.516008
21.966906
21.934722
21.956062
22.044196
22.176722
22.363307
22.597548
22.871216
23.180542
23.494015
23.798852
24.074599
24.305644
24.462356
24.523401
24.462799
24.257669
23.896819
23.361036
22.62314
21.623524
20.214874
18.143887
15.872862
43.064688
43.67781
44.28453
44.779115
45.415138
45.897568
46.447559
46.934486
47.346977
47.778295
47.952701
48.070734
47.977725
47.753407
47.385045
46.76247
45.946688
44.651051
42.687548
39.503815
34.705629
28.657329
22.218991
16.923324
27.668231
28.06602
28.456117
28.790819
29.228536
29.584498
30.006915
30.386375
30.745704
31.117219
31.350782
31.559381
31.637945
31.644411
31.545258
31.286877
30.856849
30.085441
28.864286
26.959298
24.388205
21.49616
18.435041
15.788157
19.080319
19.319421
19.576717
19.831969
20.18151
20.514606
20.903387
21.286659
21.67586
22.067479
22.400133
22.717127
22.954091
23.129368
23.220146
23.195248
23.032096
22.663713
22.05496
21.155547
20.006046
18.706531
17.10971
15.460202
15.642475
15.8261
16.04438
16.293683
16.596407
16.922753
17.281152
17.655537
18.041866
18.432672
18.801266
19.145496
19.447333
19.699037
19.885403
19.98422
19.974655
19.830718
19.540609
19.099356
18.530584
17.821136
16.711709
15.368317
14.343783
14.507066
14.710277
14.956426
15.240019
15.558433
15.898538
16.261479
16.635911
17.016863
17.388746
17.739348
18.058724
18.335666
18.556381
18.702592
18.758462
18.713876
18.564702
18.324417
18.008694
17.54309
16.60451
15.345116
14.30028
14.467459
14.679416
14.930898
15.217011
15.533453
15.87437
16.232449
16.604429
16.979392
17.343732
17.685475
17.995698
18.262677
18.473481
18.612113
18.665963
18.624117
18.489698
18.284744
18.022884
17.604636
16.66079
15.358435
16.563374
16.719044
16.918171
17.147902
17.417221
17.708496
18.028295
18.358851
18.700013
19.037082
19.361478
19.658539
19.923991
20.140708
20.297972
20.37661
20.359058
20.220562
19.943286
19.535036
19.018106
18.316258
17.043261
15.456454
23.743062
23.852031
23.982352
24.148073
24.329289
24.547776
24.787363
25.049685
25.308915
25.577086
25.82165
26.048361
26.22343
26.338383
26.369666
26.298742
26.087708
25.678304
25.000619
23.976416
22.535963
20.651051
18.268112
15.88194
33.604448
34.029756
34.449065
34.827966
35.283234
35.688638
36.12718
36.556089
36.970321
37.333657
37.589098
37.749247
37.815526
37.76546
37.573827
37.22447
36.640472
35.711451
34.277812
31.999196
28.694496
24.595334
20.149515
16.339378
21.247472
21.499374
21.76196
22.025966
22.347996
22.670888
23.028008
23.392494
23.764956
24.128053
24.445647
24.719747
24.949793
25.106854
25.180924
25.148929
24.960055
24.553037
23.856703
22.765933
21.310858
19.622038
17.58108
15.574859
15.642499
15.826188
16.044335
16.293523
16.59544
16.921767
17.283808
17.659526
18.049124
18.442609
18.812913
19.159777
19.468081
19.721181
19.90781
20.006475
19.994401
19.847532
19.553815
19.109159
18.538348
17.826535
16.71412
15.368722
13.721427
13.880103
14.082616
14.326655
14.619919
14.944798
15.301356
15.677021
16.06902
16.465284
16.850768
17.219582
17.556381
17.851778
18.091155
18.257786
18.336285
18.318974
18.206247
18.010183
17.74334
17.337262
16.487811
15.318974
13.337697
13.490916
13.691061
13.936051
14.223612
14.544162
14.89287
15.263505
15.649884
16.042658
16.428997
16.79864
17.140418
17.444113
17.695685
17.878331
17.981276
17.999493
17.934677
17.80172
17.609549
17.271437
16.466127
15.315316
14.340088
14.50238
14.706369
14.953414
15.234974
15.552637
15.893437
16.256478
16.632654
17.012966
17.38628
17.739349
18.061356
18.340983
18.564063
18.712415
18.773287
18.733639
18.586731
18.344812
18.022178
17.548183
16.606226
15.346154
18.056471
18.235495
18.438048
18.678618
18.94328
19.250432
19.573819
19.912224
20.260245
20.598047
20.930649
21.229329
21.499389
21.711138
21.853984
21.913638
21.856744
21.657479
21.249998
20.606619
19.756587
18.703905
17.183302
15.482851
27.605824
27.865821
28.125649
28.407438
28.697866
29.033632
29.355756
29.680228
30.002416
30.269746
30.536641
30.71694
30.869929
30.914232
30.84911
30.67463
30.306883
29.714933
28.714908
27.143714
24.910537
22.107949
18.924081
16.016626
27.601989
27.860643
28.118072
28.388426
28.671998
29.004509
29.325327
29.667446
30.006629
30.300578
30.58242
30.764377
30.916426
30.965018
30.904584
30.726899
30.341288
29.718582
28.703436
27.129932
24.906633
22.111581
18.926924
16.0169
18.051837
18.231988
18.436591
18.670986
18.932076
19.240691
19.5622
19.911189
20.265114
20.614622
20.956667
21.26264
21.535654
21.749347
21.894512
21.948977
21.881133
21.664733
21.247787
20.60393
19.761228
18.712886
17.186663
15.481708
14.342788
14.506301
14.709691
14.95586
15.238495
15.557107
15.900875
16.26827
16.646593
17.032459
17.410366
17.770578
18.097943
18.380614
18.602298
18.746138
18.798616
18.748855
18.59255
18.345476
18.024381
17.553356
16.60859
15.345619
13.339163
13.492594
13.692804
13.937319
14.223936
14.544993
14.894838
15.267272
15.655925
16.051886
16.442699
16.817262
17.162335
17.467968
17.71961
17.901031
18.001713
18.01679
17.94811
17.81144
17.616461
17.275955
16.467798
15.315388
13.720956
13.87819
14.080561
14.325691
14.617104
14.93844
15.292283
15.66869
16.058834
16.458029
16.848385
17.220468
17.558517
17.857229
18.098726
18.264608
18.347131
18.336245
18.227475
18.029104
17.75627
17.342479
16.489038
15.319441
15.6457
15.825794
16.042592
16.293387
16.594912
16.919043
17.277162
17.656085
18.042669
18.43448
18.808737
19.158381
19.464335
19.723957
19.913403
20.010086
20.005458
19.871082
19.583958
19.136184
18.555253
17.831223
16.714575
15.369613
21.268673
21.517698
21.77956
22.049923
22.374831
22.69864
23.052253
23.4167
23.777735
24.127595
24.448686
24.730491
24.961655
25.126035
25.201276
25.15936
24.977118
24.586739
23.890667
22.789723
21.319173
19.61908
17.579126
15.576103
33.617255
34.042395
34.464367
34.856711
35.32132
35.732451
36.173382
36.592181
36.975686
37.309902
37.567973
37.738206
37.815628
37.774718
37.586533
37.223419
36.650231
35.750084
34.324658
32.039938
28.717487
24.602347
20.148829
16.338085
23.752703
23.858788
23.98423
24.143085
24.319736
24.531278
24.772614
25.036781
25.313066
25.600774
25.866749
26.107899
26.292472
26.421443
26.454587
26.368405
26.14485
25.720127
25.024398
23.991451
22.552294
20.666617
18.271008
15.88184
16.569188
16.724969
16.921794
17.149933
17.417426
17.707523
18.027654
18.360592
18.707248
19.056416
19.395793
19.708773
19.985629
20.207539
20.363516
20.43759
20.41069
20.260548
19.972196
19.558133
19.040048
18.333598
17.048644
15.456053
14.30031
14.467598
14.678046
14.928443
15.21452
15.532354
15.877131
16.239989
16.615764
16.995798
17.369627
17.723802
18.044118
18.317193
18.529804
18.6678
18.717811
18.668981
18.525198
18.31117
18.042249
17.616963
16.665137
15.358635
14.343066
14.506101
14.709149
14.956254
15.238186
15.55378
15.895808
16.259969
16.638946
17.025439
17.406873
17.769821
18.098457
18.38115
18.60408
18.751011
18.807305
18.761581
18.60789
18.35984
18.032664
17.554797
16.608021
15.345834
15.646963
15.828386
16.045962
16.296323
16.598406
16.918867
17.2787
17.656878
18.044052
18.439451
18.818349
19.172979
19.48389
19.742861
19.933318
20.029495
20.022709
19.884299
19.593847
19.142851
18.56018
17.834574
16.715848
15.369671
19.09428
19.330289
19.586445
19.846827
20.197166
20.531231
20.918625
21.305986
21.686934
22.086449
22.427757
22.757734
23.003996
23.19103
23.282856
23.246661
23.087878
22.723762
22.115366
21.203195
20.03715
18.719981
17.114127
15.462074
27.701516
28.098242
28.488317
28.833977
29.278758
29.641053
30.065842
30.445651
30.788269
31.148415
31.392866
31.624193
31.720709
31.745332
31.639855
31.358669
30.925661
30.15228
28.923291
26.994641
24.402455
21.496376
18.434829
15.789879
43.069249
43.681647
44.291532
44.801019
45.454712
45.950585
46.503016
46.992864
47.379246
47.784085
47.96643
48.110146
48.029417
47.823321
47.460676
46.825896
46.011071
44.725062
42.768725
39.56663
34.746159
28.674268
22.220612
16.921473
21.986439
21.946042
21.96664
22.049124
22.171109
22.354141
22.582913
22.855485
23.17105
23.500686
23.8264
24.120432
24.366425
24.535344
24.600494
24.537292
24.332513
23.966642
23.419326
22.671318
21.662118
20.23882
18.148301
15.87337
17.009272
17.151392
17.341321
17.574313
17.84591
18.149882
18.477277
18.817287
19.165985
19.510657
19.839416
20.137636
20.391867
20.585271
20.705511
20.733532
20.652678
20.451054
20.130633
19.721384
19.249317
18.584509
17.23871
15.516579
16.568871
16.724812
16.924047
17.154875
17.418713
17.709834
18.02778
18.361402
18.70931
19.057971
19.39629
19.708786
19.985241
20.20746
20.366458
20.445936
20.423875
20.276095
19.986725
19.566466
19.038235
18.325937
17.044845
15.455768
18.057882
18.238179
18.443644
18.683791
18.95071
19.250942
19.573483
19.911876
20.2659
20.614519
20.96015
21.27417
21.554302
21.771181
21.915615
21.976816
21.914673
21.705275
21.287425
20.634616
19.775822
18.713542
17.185191
15.482459
21.265627
21.517554
21.783257
22.054885
22.381982
22.69836
23.053616
23.418828
23.783193
24.14202
24.473561
24.76559
25.00692
25.174373
25.252375
25.211717
25.024519
24.624676
23.920933
22.812666
21.336363
19.628701
17.582677
15.576677
27.69952
28.1
28.494425
28.841503
29.290169
29.651559
30.073216
30.453113
30.797418
31.163411
31.411075
31.646542
31.745845
31.771283
31.672492
31.391572
30.956772
30.177493
28.942657
27.009242
24.413831
21.504613
18.438965
15.790905
40.48649
41.177747
41.859572
42.403104
43.088456
43.562736
44.075272
44.479133
44.794677
45.137729
45.237613
45.357354
45.226097
44.999396
44.612074
43.972546
43.205073
41.901703
39.860823
36.495199
31.676993
26.094714
20.594702
16.355838
57.700791
58.478094
59.279979
59.915172
60.740746
61.341283
61.965864
62.501101
62.891818
63.377298
63.500582
63.606701
63.404281
63.038963
62.524308
61.673395
60.719371
59.187584
56.801904
52.601159
45.650727
36.241704
26.138465
18.071498
23.926913
23.682741
23.571642
23.588748
23.680116
23.857105
24.136346
24.514242
24.972839
25.467788
25.962618
26.418486
26.794191
27.046253
27.13003
27.000094
26.641084
26.048832
25.248868
24.256423
23.012082
21.271796
18.75892
16.085259
21.97368
21.944408
21.967517
22.047495
22.174381
22.356477
22.589245
22.863926
23.17838
23.499652
23.817488
24.111
24.356049
24.528743
24.607668
24.55289
24.345916
23.977102
23.42796
22.672306
21.653119
20.229598
18.147692
15.873261
23.747255
23.858942
23.992527
24.161674
24.337528
24.553766
24.78756
25.048094
25.31632
25.596125
25.859544
26.105456
26.295394
26.419054
26.458785
26.385781
26.17121
25.75166
25.061875
24.024917
22.567
20.664195
18.271142
15.882125
27.60198
27.86585
28.132037
28.41867
28.713347
29.040725
29.358987
29.681589
30.01027
30.29249
30.575786
30.775644
30.942563
30.994794
30.935326
30.766485
30.391625
29.781998
28.768114
27.185216
24.941499
22.122433
18.927884
16.017145
33.60771
34.038999
34.469576
34.868454
35.338138
35.744755
36.182729
36.603847
36.992853
37.337147
37.606625
37.787925
37.877554
37.842831
37.660494
37.300673
36.719579
35.803691
34.364836
32.070244
28.741603
24.615204
20.153892
16.33911
43.06089
43.681781
44.301408
44.817709
45.476673
45.971752
46.518868
47.008289
47.39845
47.809096
47.993337
48.139083
48.061509
47.8598
47.503285
46.872064
46.052993
44.757701
42.791488
39.581473
34.758066
28.684997
22.226465
16.92318
57.695629
58.478382
59.285257
59.919853
60.75026
61.348748
61.971176
62.505483
62.896453
63.382949
63.505409
63.607912
63.40294
63.033494
62.525904
61.677602
60.722776
59.18879
56.801116
52.598698
45.649688
36.244557
26.141481
18.072534
74.691718
75.303344
75.886408
76.199423
76.855046
77.298318
77.764506
78.244618
78.50498
78.991457
79.059128
79.09243
78.840261
78.366809
77.790947
76.828996
75.78936
74.257803
72.009723
68.024224
60.569556
48.822376
34.371428
20.760146
49.810603
73.14509
94.008864
106.86093
114.33675
119.40732
123.29388
126.35419
128.4453
129.93707
130.64369
130.83544
130.49704
129.54561
128.27077
126.40635
124.44939
122.23221
119.84638
117.4385
114.8375
112.38967
109.93862
107.72614
34.370126
53.357792
70.958328
82.435078
88.955757
92.914846
95.710392
97.819258
99.212513
100.20177
100.61397
100.67223
100.34086
99.589141
98.626194
97.23796
95.826582
94.224191
92.560496
90.903769
89.117928
87.52945
85.90016
84.412965
26.640351
41.666237
56.099794
65.881637
71.444368
74.628647
76.744088
78.288603
79.300218
80.001144
80.284814
80.284695
80.01727
79.430729
78.720425
77.718115
76.680332
75.523743
74.327468
73.168197
71.902393
70.823939
69.697259
68.654564
22.364169
34.074585
45.851428
54.18573
59.041116
61.767915
63.48124
64.681022
65.481256
65.974927
66.177744
66.112853
65.86393
65.408059
64.803411
64.051781
63.234974
62.382396
61.492514
60.672905
59.804975
59.046441
58.281509
57.570352
20.066273
29.050805
38.475592
45.548265
49.921202
52.487024
54.096163
55.148114
55.864347
56.247666
56.373291
56.274285
55.946585
55.511767
54.90624
54.24772
53.546077
52.819222
52.147457
51.474917
50.894181
50.346918
49.879327
49.460937
19.682043
26.562197
33.751899
39.502568
43.511968
46.050852
47.677687
48.719069
49.368809
49.622816
49.642142
49.412472
48.95966
48.41246
47.725963
47.047029
46.338172
45.703073
45.080476
44.584313
44.156665
43.865923
43.635403
43.5664
20.726716
27.061919
32.940492
37.380992
40.891085
43.368505
45.013112
46.123488
46.777247
46.920046
46.640121
46.000725
45.096062
44.028523
42.882629
41.74914
40.74132
39.973337
39.427252
39.146237
39.08602
39.225666
39.535135
40.036244
25.154257
33.110295
40.318715
45.398743
49.642761
52.93288
55.24286
56.85971
57.753639
57.774199
56.934037
55.388852
53.304514
50.886747
48.336262
45.851499
43.639339
41.92415
40.803305
40.235408
40.134982
40.421847
41.036758
41.958184
266.52215
223.22834
211.42044
203.83422
198.12539
193.6804
189.78743
185.90723
181.84266
177.61047
173.23007
168.79577
164.35743
160.00392
155.81068
151.80689
148.10077
144.67435
141.62999
138.98403
136.74649
134.91816
133.56202
132.71609
222.69109
192.11108
184.08506
179.04455
174.97221
171.54353
168.39577
165.21818
161.8698
158.346
154.67524
150.90222
147.08831
143.29749
139.59161
136.02142
132.63313
129.47301
126.59625
124.0464
121.85745
120.04297
118.65349
117.72584
196.36395
174.16836
168.79687
165.28925
162.17077
159.33573
156.61508
153.81875
150.83966
147.66483
144.3251
140.85465
137.31104
133.75322
130.23407
126.81317
123.52661
120.43382
117.58235
115.017
112.7883
110.91687
109.45318
108.43116
181.65162
165.38417
162.01987
159.46982
156.89087
154.38043
151.88812
149.28125
146.46861
143.4374
140.20762
136.82675
133.34336
129.8184
126.3084
122.86679
119.54527
116.39174
113.46353
110.80202
108.46187
106.47494
104.88815
103.73709
176.06021
164.2861
162.50489
160.48636
158.09942
155.67029
153.22356
150.64509
147.83996
144.78712
141.49905
138.03052
134.43554
130.7754
127.11716
123.50848
120.01225
116.67843
113.56333
110.71863
108.18496
106.00973
104.24079
102.91814
178.97146
170.75536
170.23812
168.33946
165.77688
163.1548
160.55289
157.84304
154.90164
151.67991
148.18897
144.48138
140.61771
136.66709
132.70007
128.77443
124.95599
121.29677
117.86702
114.71026
111.87932
109.41485
107.37547
105.80976
191.28289
185.75001
186.29228
184.10513
180.96269
177.84837
174.89728
171.92718
168.73964
165.23572
161.40228
157.29061
152.97072
148.53082
144.05463
139.61524
135.28038
131.10491
127.15603
123.49006
120.16171
117.22041
114.73621
112.77844
215.88065
211.75936
213.55899
210.98745
206.97091
203.08248
199.5556
196.11589
192.44219
188.35383
183.81573
178.88967
173.66794
168.27833
162.83347
157.43107
152.15619
147.06992
142.25399
137.78498
133.72949
130.13779
127.05608
124.53864
25.155533
33.118823
40.349141
45.448359
49.69433
52.979144
55.274189
56.871867
57.751245
57.76443
56.923559
55.382428
53.298151
50.878636
48.327753
45.844081
43.634449
41.921414
40.802893
40.23567
40.135599
40.419862
41.027344
41.951063
20.727586
27.065658
32.95028
37.394126
40.901587
43.36938
45.001929
46.103199
46.750883
46.890634
46.613859
45.979647
45.080406
44.018133
42.873574
41.740679
40.735228
39.966661
39.421124
39.140638
39.081567
39.216174
39.521409
40.024198
19.684236
26.567676
33.755718
39.50125
43.50685
46.039172
47.659624
48.692883
49.334471
49.583532
49.602877
49.377779
48.93408
48.396336
47.717734
47.042976
46.332518
45.693206
45.066234
44.568911
44.141382
43.85278
43.626962
43.561552
20.064916
29.050295
38.476553
45.548332
49.921289
52.481634
54.081823
55.123209
55.831634
56.211347
56.335389
56.235211
55.909086
55.481758
54.886646
54.236187
53.536711
52.806638
52.133035
51.459639
50.881676
50.339929
49.877458
49.465238
22.360892
34.072691
45.854108
54.190315
59.045634
61.768621
63.472762
64.664022
65.46341
65.958925
66.157916
66.086541
65.835119
65.382241
64.783794
64.040771
63.227756
62.371871
61.478538
60.658647
59.7945
59.04359
58.287433
57.584312
26.639503
41.664572
56.096442
65.876558
71.438927
74.624266
76.739239
78.287214
79.303444
80.008985
80.289516
80.281323
80.011736
79.42433
78.716238
77.719583
76.685064
75.522901
74.322571
73.162749
71.901148
70.831408
69.714877
68.680459
34.367124
53.354411
70.944499
82.409337
88.926146
92.890885
95.696371
97.821651
99.233831
100.23006
100.64093
100.69338
100.36277
99.610755
98.647981
97.26603
95.858405
94.250143
92.579895
90.921039
89.138595
87.559582
85.940206
84.459442
49.799062
73.126144
93.966844
106.79429
114.25783
119.33623
123.24194
126.33107
128.45061
129.95766
130.67261
130.86659
130.53363
129.58582
128.31454
126.46381
124.5164
122.29777
119.90145
117.48821
114.89175
112.45235
110.00984
107.80047
215.8953
211.7915
213.60222
211.03066
207.00503
203.10402
199.56271
196.10937
192.42557
188.33012
183.78614
178.8547
173.62631
168.22774
162.77516
157.37
152.09941
147.02161
142.21411
137.75198
133.70255
130.11658
127.04003
124.52709
191.29452
185.77685
186.33048
184.14703
180.99925
177.87086
174.90016
171.91051
168.70877
165.19651
161.35742
157.23986
152.91133
148.45832
143.9691
139.52377
135.19273
131.02809
127.09059
123.43458
120.11626
117.1853
114.71001
112.75911
178.97897
170.76555
170.25157
168.35725
165.7955
163.16601
160.54963
157.82324
154.86985
151.64142
148.14548
144.43172
140.55902
136.5953
132.61532
128.68287
124.86621
121.21498
117.79493
114.64814
111.82892
109.37693
107.34854
105.79128
176.05529
164.27517
162.4938
160.4838
158.10509
155.6768
153.22404
150.63626
147.8231
144.76424
141.46942
137.99171
134.38577
130.71272
127.04262
123.427
119.93014
116.6004
113.49201
110.65669
108.13549
105.97417
104.21773
102.90453
181.65028
165.3708
162.00146
159.45758
156.88869
154.38614
151.89833
149.29137
146.47511
143.43739
140.19823
136.80549
133.31035
129.7739
126.25384
122.80497
119.47981
116.32605
113.40095
110.74675
108.41834
106.44544
104.87146
103.72969
196.36881
174.15633
168.77103
165.26536
162.15934
159.34015
156.63451
153.84763
150.86965
147.6884
144.33802
140.85571
137.30258
133.73725
130.21102
126.78237
123.48824
120.39029
117.53724
114.9753
112.75541
110.89624
109.44415
108.42972
222.70216
192.09975
184.04855
179.00346
174.9441
171.53666
168.41241
165.25277
161.91049
158.38103
154.70191
150.92262
147.10671
143.31516
139.6076
136.03056
132.63139
129.46095
126.57724
124.02567
121.84108
120.03543
118.65459
117.73103
266.53783
223.21747
211.37476
203.7756
198.0761
193.6539
189.79083
185.93702
181.88618
177.65179
173.26888
168.83763
164.40838
160.06339
155.87708
151.8701
148.15059
144.70688
141.64718
138.99116
136.75017
134.92404
133.57068
132.72354
49.798792
73.123653
93.96489
106.79517
114.26139
119.34338
123.24999
126.33731
128.4553
129.96087
130.66901
130.86167
130.52969
129.58183
128.31043
126.46073
124.51193
122.29072
119.89289
117.47909
114.88444
112.44586
110.00362
107.79374
34.365402
53.349808
70.940967
82.411069
88.934775
92.905739
95.71488
97.841276
99.251782
100.24421
100.65046
100.70216
100.3708
99.620467
98.657827
97.274892
95.866013
94.257237
92.586252
90.926604
89.141717
87.558359
85.93507
84.449879
26.639027
41.663617
56.0976
65.882737
71.45423
74.649383
76.771566
78.322748
79.337672
80.037
80.311512
80.301262
80.02915
79.441357
78.732308
77.733145
76.696271
75.533138
74.33372
73.173731
71.90767
70.832482
69.709913
68.669797
22.364558
34.077188
45.862364
54.207735
59.073946
61.808975
63.523089
64.718901
65.516239
66.003119
66.193785
66.118045
65.861936
65.40414
64.800483
64.05363
63.2381
62.381776
61.489714
60.670649
59.802138
59.045347
58.283098
57.574638
20.067662
29.056148
38.494863
45.585068
49.972225
52.545574
54.156009
55.203067
55.910368
56.280295
56.391623
56.279921
55.942102
55.505217
54.902491
54.246943
53.545892
52.817
52.14524
51.473202
50.891258
50.344098
49.876635
49.460151
19.681534
26.568789
33.77359
39.546597
43.578968
46.13354
47.762679
48.801028
49.441089
49.679767
49.687461
49.446589
48.982282
48.425328
47.731515
47.050625
46.33778
45.702638
45.078962
44.581768
44.153318
43.861201
43.630817
43.562675
20.725393
27.06565
32.959733
37.425544
40.963498
43.466391
45.124141
46.240063
46.890226
47.023709
46.728324
46.068946
45.13981
44.051506
42.891057
41.753233
40.746479
39.976318
39.428397
39.145871
39.086157
39.219722
39.530226
40.033155
25.157744
33.119188
40.347375
45.457414
49.734177
53.060578
55.395248
57.019466
57.908793
57.91378
57.043822
55.462968
53.344049
50.901639
48.338356
45.850142
43.636714
41.921322
40.80104
40.233496
40.134497
40.421869
41.032569
41.95207
266.53405
223.21008
211.36565
203.7652
198.06494
193.64135
189.77613
185.92124
181.87246
177.642
173.26212
168.83346
164.40687
160.06394
155.87877
151.87201
148.15187
144.70681
141.64635
138.99012
136.74981
134.92479
133.57215
132.72489
222.69477
192.08558
184.03028
178.98136
174.91834
171.50672
168.37861
165.21664
161.87582
158.35044
154.67585
150.90301
147.09572
143.31254
139.6112
136.03791
132.64076
129.47129
126.58862
124.03757
121.85323
120.0474
118.66565
117.74019
196.36268
174.14386
168.75253
165.24083
162.12918
159.30466
156.5956
153.80827
150.83315
147.6561
144.30973
140.83484
137.29339
133.73982
130.22244
126.79926
123.50847
120.41315
117.56272
115.00178
112.78081
110.9189
109.46288
108.44355
181.64952
165.36711
161.99137
159.43934
156.86268
154.35389
151.86309
149.25781
146.4463
143.41303
140.1777
136.79305
133.31076
129.78784
126.27796
122.83538
119.51415
116.36371
113.44174
110.78812
108.45656
106.47764
104.89618
103.74626
176.05977
164.2797
162.49351
160.47339
158.08333
155.64574
153.18849
150.60163
147.79228
144.73719
141.44673
137.9781
134.38653
130.72936
127.0723
123.46575
119.97493
116.64954
113.54482
110.7099
108.18411
106.01426
104.24754
102.92388
178.9731
170.75928
170.24183
168.34022
165.76791
163.12675
160.50137
157.77093
154.81662
151.58888
148.09697
144.39311
140.53623
136.59163
132.63048
128.71367
124.90828
121.26469
117.85046
114.70584
111.88245
109.4214
107.38165
105.81304
191.28654
185.76129
186.30533
184.11121
180.94976
177.80414
174.81527
171.81031
168.5981
165.08133
161.24619
157.14052
152.83056
148.40153
143.93948
139.52026
135.21001
131.06012
127.13403
123.48479
120.16614
117.22856
114.74318
112.78186
215.88234
211.7624
213.55709
210.96891
206.92029
202.98747
199.40982
195.92166
192.21128
188.10289
183.56319
178.64795
173.44298
168.07393
162.65689
157.2899
152.05256
147.0013
142.21593
137.77086
133.73106
130.1468
127.06617
124.54645
25.156986
33.123641
40.357539
45.469911
49.744917
53.063975
55.396855
57.028218
57.923275
57.933221
57.060919
55.473922
53.349031
50.903688
48.340579
45.849788
43.637521
41.921684
40.800226
40.232323
40.133339
40.422481
41.036253
41.963311
20.732164
27.074989
32.970242
37.430885
40.966335
43.470492
45.139166
46.263555
46.92046
47.056454
46.760654
46.09999
45.167008
44.075228
42.907323
41.759462
40.740838
39.965797
39.415833
39.134621
39.077622
39.218529
39.528916
40.032269
19.68714
26.57358
33.76756
39.521513
43.544583
46.104689
47.754372
48.808482
49.45997
49.710033
49.720583
49.480078
49.011825
48.4545
47.756016
47.060497
46.336182
45.687237
45.05903
44.564564
44.14045
43.855661
43.633087
43.568351
20.065616
29.055133
38.480686
45.555048
49.937773
52.515251
54.134065
55.192017
55.904202
56.279718
56.394822
56.284599
55.953033
55.522346
54.919233
54.250146
53.531804
52.792833
52.118535
51.448458
50.874212
50.337117
49.877443
49.464704
22.361521
34.074413
45.853437
54.190317
59.051572
61.782012
63.497069
64.697813
65.493351
65.977933
66.171372
66.098342
65.848917
65.397058
64.799939
64.038667
63.208122
62.346392
61.455445
60.639101
59.779531
59.032569
58.277251
57.573403
26.639957
41.664983
56.097887
65.883228
71.450139
74.634323
76.748674
78.292421
79.299949
79.992424
80.26605
80.258021
79.988483
79.404671
78.696467
77.685781
76.638811
75.478537
74.285457
73.133586
71.877055
70.810578
69.694069
68.658684
34.370326
53.357212
70.958396
82.440375
88.965411
92.923798
95.716554
97.822494
99.210358
100.19199
100.59425
100.64455
100.3106
99.560277
98.594536
97.196434
95.779227
94.17853
92.520634
90.872986
89.097741
87.520163
85.900513
84.41969
49.808735
73.142115
94.007438
106.86464
114.34666
119.4223
123.3094
126.36729
128.45332
129.93874
130.64109
130.82898
130.4805
129.52507
128.24487
126.37353
124.41111
122.20155
119.81736
117.41491
114.82096
112.38068
109.93637
107.7287
215.88644
211.76782
213.56061
210.96436
206.90374
202.95863
199.371
195.87456
192.1555
188.03992
183.49548
178.57897
173.37605
168.01045
162.59563
157.2283
151.99048
146.94062
142.15995
137.7239
133.69613
130.12417
127.05426
124.54274
191.28581
185.75099
186.28526
184.07791
180.90177
177.74434
174.74604
171.72939
168.50289
164.97357
161.12913
157.01771
152.70661
148.27978
143.82009
139.40244
135.09528
130.95244
127.03775
123.40483
120.10604
117.1889
114.72207
112.77537
178.97323
170.74974
170.22108
168.30517
165.71786
163.06437
160.42688
157.68096
154.70919
151.46713
147.96538
144.2538
140.391
136.44281
132.48039
128.56552
124.76714
121.13611
117.73815
114.61267
111.811