/*--------------------------------*- C++ -*----------------------------------*\
| =========                 |                                                 |
| \\      /  F ield         | OpenFOAM: The Open Source CFD Toolbox           |
|  \\    /   O peration     | Version:  4.1                                   |
|   \\  /    A nd           | Web:      www.OpenFOAM.org                      |
|    \\/     M anipulation  |                                                 |
\*---------------------------------------------------------------------------*/
FoamFile
{
    version     2.0;
    format      ascii;
    class       pointVectorField;
    location    "0.0046";
    object      pointDisplacement_Next;
}
// * * * * * * * * * * * * * * * * * * * * * * * * * * * * * * * * * * * * * //

dimensions      [0 1 0 0 0 0 0];

internalField   uniform (0 0 0);

boundaryField
{
    inlet
    {
        type            fixedValue;
        value           nonuniform 0();
    }
    outlet
    {
        type            fixedValue;
        value           nonuniform 0();
    }
    mantle
    {
        type            fixedValue;
        value           nonuniform List<vector> 
416
(
(-2.3988e-05 -9.7561e-05 -3.2432e-11)
(-2.8571e-05 -0.00010592 -5.2922e-10)
(-2.8511e-05 -0.00010368 2.0582e-05)
(-2.3939e-05 -9.5567e-05 1.9019e-05)
(-2.8456e-05 -9.7295e-05 4.0324e-05)
(-2.3891e-05 -8.9705e-05 3.722e-05)
(-2.8503e-05 -8.7367e-05 5.845e-05)
(-2.3929e-05 -8.0522e-05 5.3867e-05)
(-2.8559e-05 -7.43e-05 7.4301e-05)
(-2.3974e-05 -6.8408e-05 6.8409e-05)
(-2.8503e-05 -5.845e-05 8.7368e-05)
(-2.3929e-05 -5.3867e-05 8.0523e-05)
(-2.8456e-05 -4.0324e-05 9.7295e-05)
(-2.3891e-05 -3.722e-05 8.9706e-05)
(-2.8511e-05 -2.0582e-05 0.00010368)
(-2.3939e-05 -1.9019e-05 9.5568e-05)
(-2.8571e-05 1.0246e-09 0.00010592)
(-2.3988e-05 6.5576e-10 9.7561e-05)
(-3.2893e-05 -0.00011268 -1.2434e-10)
(-3.283e-05 -0.00011021 2.1829e-05)
(-3.2781e-05 -0.00010339 4.2808e-05)
(-3.2832e-05 -9.2874e-05 6.2139e-05)
(-3.2894e-05 -7.9054e-05 7.9054e-05)
(-3.2831e-05 -6.2139e-05 9.2875e-05)
(-3.278e-05 -4.2808e-05 0.00010339)
(-3.283e-05 -2.1829e-05 0.00011021)
(-3.2893e-05 4.9856e-10 0.00011268)
(-3.6691e-05 -0.00011591 1.1192e-10)
(-3.667e-05 -0.00011346 2.2501e-05)
(-3.666e-05 -0.00010649 4.4114e-05)
(-3.6694e-05 -9.5647e-05 6.3982e-05)
(-3.6725e-05 -8.1358e-05 8.1359e-05)
(-3.6694e-05 -6.3982e-05 9.5647e-05)
(-3.666e-05 -4.4114e-05 0.00010649)
(-3.667e-05 -2.25e-05 0.00011346)
(-3.6691e-05 1.2612e-10 0.00011591)
(-4.0252e-05 -0.00011512 -2.5945e-10)
(-4.0277e-05 -0.00011274 2.2405e-05)
(-4.0312e-05 -0.0001059 4.3904e-05)
(-4.0329e-05 -9.5098e-05 6.3604e-05)
(-4.0326e-05 -8.0851e-05 8.0851e-05)
(-4.0329e-05 -6.3604e-05 9.5098e-05)
(-4.0312e-05 -4.3904e-05 0.0001059)
(-4.0277e-05 -2.2405e-05 0.00011273)
(-4.0252e-05 3.8113e-10 0.00011512)
(-4.3959e-05 -0.00011045 -1.4498e-10)
(-4.3983e-05 -0.0001082 2.1505e-05)
(-4.4031e-05 -0.00010169 4.2143e-05)
(-4.4057e-05 -9.1359e-05 6.1092e-05)
(-4.4064e-05 -7.7678e-05 7.7678e-05)
(-4.4056e-05 -6.1092e-05 9.1359e-05)
(-4.4031e-05 -4.2143e-05 0.00010169)
(-4.3983e-05 -2.1504e-05 0.0001082)
(-4.3959e-05 2.2892e-10 0.00011045)
(-4.7854e-05 -0.00010283 -3.7673e-10)
(-4.7886e-05 -0.00010074 2.0001e-05)
(-4.7934e-05 -9.471e-05 3.9229e-05)
(-4.7967e-05 -8.5154e-05 5.6936e-05)
(-4.7969e-05 -7.2437e-05 7.2436e-05)
(-4.7967e-05 -5.6936e-05 8.5153e-05)
(-4.7934e-05 -3.9229e-05 9.4709e-05)
(-4.7885e-05 -2.0001e-05 0.00010074)
(-4.7854e-05 4.4322e-10 0.00010283)
(-5.1805e-05 -9.344e-05 -6.005e-10)
(-5.1838e-05 -9.1547e-05 1.8157e-05)
(-5.1892e-05 -8.6086e-05 3.5649e-05)
(-5.1899e-05 -7.746e-05 5.1805e-05)
(-5.1892e-05 -6.5929e-05 6.5929e-05)
(-5.1899e-05 -5.1805e-05 7.7459e-05)
(-5.1892e-05 -3.5649e-05 8.6085e-05)
(-5.1838e-05 -1.8157e-05 9.1545e-05)
(-5.1804e-05 6.3972e-10 9.3439e-05)
(-5.5534e-05 -8.3591e-05 -5.0232e-10)
(-5.5578e-05 -8.1889e-05 1.6229e-05)
(-5.5641e-05 -7.7001e-05 3.1892e-05)
(-5.5619e-05 -6.9351e-05 4.6406e-05)
(-5.559e-05 -5.9073e-05 5.9073e-05)
(-5.5619e-05 -4.6406e-05 6.9351e-05)
(-5.5641e-05 -3.1892e-05 7.7e-05)
(-5.5578e-05 -1.6229e-05 8.1888e-05)
(-5.5534e-05 4.9818e-10 8.3589e-05)
(-5.8819e-05 -7.4159e-05 -3.9052e-10)
(-5.8843e-05 -7.2658e-05 1.4399e-05)
(-5.8882e-05 -6.8359e-05 2.8319e-05)
(-5.8877e-05 -6.1586e-05 4.122e-05)
(-5.8866e-05 -5.2476e-05 5.2476e-05)
(-5.8877e-05 -4.122e-05 6.1585e-05)
(-5.8882e-05 -2.8319e-05 6.8358e-05)
(-5.8843e-05 -1.4399e-05 7.2657e-05)
(-5.8819e-05 3.2531e-10 7.4158e-05)
(-6.1504e-05 -6.5321e-05 -5.973e-10)
(-6.1519e-05 -6.4e-05 1.2675e-05)
(-6.1539e-05 -6.0228e-05 2.4949e-05)
(-6.1553e-05 -5.4288e-05 3.6343e-05)
(-6.1551e-05 -4.6277e-05 4.6277e-05)
(-6.1553e-05 -3.6343e-05 5.4287e-05)
(-6.1539e-05 -2.4949e-05 6.0227e-05)
(-6.1519e-05 -1.2675e-05 6.3998e-05)
(-6.1504e-05 4.5969e-10 6.532e-05)
(-6.356e-05 -5.6895e-05 -6.1774e-10)
(-6.3578e-05 -5.5748e-05 1.103e-05)
(-6.3605e-05 -5.2477e-05 2.1728e-05)
(-6.36e-05 -4.7331e-05 3.1684e-05)
(-6.3592e-05 -4.0362e-05 4.0362e-05)
(-6.36e-05 -3.1684e-05 4.7331e-05)
(-6.3605e-05 -2.1728e-05 5.2476e-05)
(-6.3578e-05 -1.103e-05 5.5747e-05)
(-6.356e-05 4.0686e-10 5.6894e-05)
(-6.5033e-05 -4.8844e-05 -5.9386e-10)
(-6.5066e-05 -4.7837e-05 9.446e-06)
(-6.5105e-05 -4.5022e-05 1.8632e-05)
(-6.5078e-05 -4.065e-05 2.7224e-05)
(-6.5049e-05 -3.4708e-05 3.4708e-05)
(-6.5078e-05 -2.7225e-05 4.065e-05)
(-6.5105e-05 -1.8632e-05 4.5022e-05)
(-6.5066e-05 -9.4462e-06 4.7836e-05)
(-6.5033e-05 3.1611e-10 4.8843e-05)
(-2.8511e-05 2.0583e-05 0.00010368)
(-2.3939e-05 1.902e-05 9.5567e-05)
(-2.8456e-05 4.0325e-05 9.7294e-05)
(-2.3891e-05 3.7221e-05 8.9706e-05)
(-2.8503e-05 5.845e-05 8.7367e-05)
(-2.3929e-05 5.3868e-05 8.0523e-05)
(-2.8559e-05 7.43e-05 7.43e-05)
(-2.3974e-05 6.8409e-05 6.8408e-05)
(-2.8503e-05 8.7367e-05 5.8449e-05)
(-2.3929e-05 8.0523e-05 5.3867e-05)
(-2.8456e-05 9.7294e-05 4.0323e-05)
(-2.3891e-05 8.9705e-05 3.722e-05)
(-2.8511e-05 0.00010368 2.0582e-05)
(-2.3939e-05 9.5567e-05 1.9019e-05)
(-2.8571e-05 0.00010592 -6.3059e-10)
(-2.3988e-05 9.7561e-05 2.1972e-11)
(-3.283e-05 2.183e-05 0.00011021)
(-3.278e-05 4.2809e-05 0.00010339)
(-3.2831e-05 6.2139e-05 9.2873e-05)
(-3.2894e-05 7.9054e-05 7.9053e-05)
(-3.2831e-05 9.2874e-05 6.2138e-05)
(-3.278e-05 0.00010339 4.2808e-05)
(-3.283e-05 0.00011021 2.1828e-05)
(-3.2893e-05 0.00011268 -3.4248e-10)
(-3.667e-05 2.2501e-05 0.00011346)
(-3.666e-05 4.4114e-05 0.00010649)
(-3.6694e-05 6.3982e-05 9.5646e-05)
(-3.6725e-05 8.1358e-05 8.1357e-05)
(-3.6694e-05 9.5646e-05 6.398e-05)
(-3.6661e-05 0.00010649 4.4113e-05)
(-3.6671e-05 0.00011346 2.25e-05)
(-3.6691e-05 0.00011591 -1.284e-10)
(-4.0277e-05 2.2406e-05 0.00011273)
(-4.0312e-05 4.3904e-05 0.0001059)
(-4.0329e-05 6.3604e-05 9.5097e-05)
(-4.0326e-05 8.085e-05 8.0849e-05)
(-4.0329e-05 9.5097e-05 6.3603e-05)
(-4.0312e-05 0.0001059 4.3903e-05)
(-4.0278e-05 0.00011273 2.2405e-05)
(-4.0253e-05 0.00011512 -4.6053e-10)
(-4.3983e-05 2.1505e-05 0.0001082)
(-4.4031e-05 4.2143e-05 0.00010168)
(-4.4057e-05 6.1092e-05 9.1358e-05)
(-4.4064e-05 7.7678e-05 7.7677e-05)
(-4.4057e-05 9.1359e-05 6.1091e-05)
(-4.4031e-05 0.00010169 4.2142e-05)
(-4.3984e-05 0.0001082 2.1504e-05)
(-4.3959e-05 0.00011045 -2.949e-10)
(-4.7885e-05 2.0002e-05 0.00010074)
(-4.7934e-05 3.9229e-05 9.4708e-05)
(-4.7967e-05 5.6936e-05 8.5152e-05)
(-4.7969e-05 7.2436e-05 7.2435e-05)
(-4.7967e-05 8.5153e-05 5.6935e-05)
(-4.7934e-05 9.4709e-05 3.9228e-05)
(-4.7886e-05 0.00010074 2.0001e-05)
(-4.7854e-05 0.00010283 -4.6516e-10)
(-5.1838e-05 1.8157e-05 9.1545e-05)
(-5.1892e-05 3.5649e-05 8.6084e-05)
(-5.19e-05 5.1805e-05 7.7458e-05)
(-5.1892e-05 6.5929e-05 6.5928e-05)
(-5.19e-05 7.7459e-05 5.1804e-05)
(-5.1892e-05 8.6085e-05 3.5648e-05)
(-5.1838e-05 9.1546e-05 1.8156e-05)
(-5.1805e-05 9.3439e-05 -6.0942e-10)
(-5.5578e-05 1.623e-05 8.1887e-05)
(-5.5641e-05 3.1893e-05 7.6999e-05)
(-5.5619e-05 4.6406e-05 6.9349e-05)
(-5.5591e-05 5.9073e-05 5.9072e-05)
(-5.5619e-05 6.9351e-05 4.6405e-05)
(-5.5641e-05 7.7e-05 3.1892e-05)
(-5.5579e-05 8.1888e-05 1.6229e-05)
(-5.5534e-05 8.359e-05 -4.1661e-10)
(-5.8843e-05 1.44e-05 7.2656e-05)
(-5.8882e-05 2.832e-05 6.8358e-05)
(-5.8877e-05 4.1221e-05 6.1584e-05)
(-5.8867e-05 5.2476e-05 5.2475e-05)
(-5.8877e-05 6.1585e-05 4.1219e-05)
(-5.8882e-05 6.8359e-05 2.8318e-05)
(-5.8843e-05 7.2657e-05 1.4399e-05)
(-5.8819e-05 7.4158e-05 -2.4203e-10)
(-6.152e-05 1.2676e-05 6.3998e-05)
(-6.1539e-05 2.495e-05 6.0226e-05)
(-6.1553e-05 3.6343e-05 5.4287e-05)
(-6.1551e-05 4.6277e-05 4.6276e-05)
(-6.1553e-05 5.4288e-05 3.6342e-05)
(-6.1539e-05 6.0227e-05 2.4949e-05)
(-6.1519e-05 6.3999e-05 1.2675e-05)
(-6.1504e-05 6.532e-05 -4.1063e-10)
(-6.3578e-05 1.1031e-05 5.5747e-05)
(-6.3606e-05 2.1728e-05 5.2476e-05)
(-6.36e-05 3.1684e-05 4.733e-05)
(-6.3592e-05 4.0362e-05 4.0361e-05)
(-6.36e-05 4.7331e-05 3.1683e-05)
(-6.3605e-05 5.2476e-05 2.1727e-05)
(-6.3578e-05 5.5747e-05 1.103e-05)
(-6.356e-05 5.6894e-05 -3.9533e-10)
(-6.5066e-05 9.4468e-06 4.7836e-05)
(-6.5105e-05 1.8633e-05 4.5022e-05)
(-6.5078e-05 2.7225e-05 4.065e-05)
(-6.5049e-05 3.4708e-05 3.4708e-05)
(-6.5078e-05 4.065e-05 2.7224e-05)
(-6.5105e-05 4.5022e-05 1.8632e-05)
(-6.5065e-05 4.7836e-05 9.446e-06)
(-6.5033e-05 4.8843e-05 -3.9989e-10)
(-2.8511e-05 0.00010368 -2.0582e-05)
(-2.3939e-05 9.5567e-05 -1.9019e-05)
(-2.8456e-05 9.7295e-05 -4.0324e-05)
(-2.3891e-05 8.9706e-05 -3.722e-05)
(-2.8504e-05 8.7367e-05 -5.845e-05)
(-2.393e-05 8.0523e-05 -5.3867e-05)
(-2.856e-05 7.4301e-05 -7.43e-05)
(-2.3975e-05 6.8409e-05 -6.8408e-05)
(-2.8504e-05 5.845e-05 -8.7367e-05)
(-2.393e-05 5.3868e-05 -8.0522e-05)
(-2.8457e-05 4.0325e-05 -9.7294e-05)
(-2.3892e-05 3.7221e-05 -8.9705e-05)
(-2.8512e-05 2.0583e-05 -0.00010368)
(-2.394e-05 1.902e-05 -9.5567e-05)
(-2.8572e-05 1.4118e-10 -0.00010592)
(-2.3989e-05 5.9035e-10 -9.7561e-05)
(-3.2831e-05 0.00011021 -2.1829e-05)
(-3.2781e-05 0.00010339 -4.2808e-05)
(-3.2832e-05 9.2875e-05 -6.2139e-05)
(-3.2895e-05 7.9054e-05 -7.9054e-05)
(-3.2832e-05 6.214e-05 -9.2874e-05)
(-3.2781e-05 4.2809e-05 -0.00010339)
(-3.2831e-05 2.183e-05 -0.00011021)
(-3.2894e-05 5.7948e-10 -0.00011268)
(-3.6671e-05 0.00011346 -2.2501e-05)
(-3.6661e-05 0.00010649 -4.4114e-05)
(-3.6695e-05 9.5647e-05 -6.3982e-05)
(-3.6725e-05 8.1359e-05 -8.1358e-05)
(-3.6695e-05 6.3982e-05 -9.5647e-05)
(-3.6661e-05 4.4115e-05 -0.00010649)
(-3.6671e-05 2.2501e-05 -0.00011346)
(-3.6692e-05 9.0132e-10 -0.00011591)
(-4.0278e-05 0.00011274 -2.2406e-05)
(-4.0312e-05 0.0001059 -4.3904e-05)
(-4.0329e-05 9.5098e-05 -6.3605e-05)
(-4.0327e-05 8.0851e-05 -8.0851e-05)
(-4.0329e-05 6.3605e-05 -9.5098e-05)
(-4.0312e-05 4.3905e-05 -0.0001059)
(-4.0278e-05 2.2406e-05 -0.00011273)
(-4.0253e-05 6.1921e-10 -0.00011512)
(-4.3984e-05 0.0001082 -2.1505e-05)
(-4.4031e-05 0.00010169 -4.2143e-05)
(-4.4057e-05 9.136e-05 -6.1092e-05)
(-4.4064e-05 7.7679e-05 -7.7678e-05)
(-4.4057e-05 6.1093e-05 -9.1359e-05)
(-4.4031e-05 4.2144e-05 -0.00010169)
(-4.3984e-05 2.1505e-05 -0.0001082)
(-4.3959e-05 4.2007e-10 -0.00011045)
(-4.7886e-05 0.00010074 -2.0002e-05)
(-4.7934e-05 9.471e-05 -3.9229e-05)
(-4.7967e-05 8.5154e-05 -5.6936e-05)
(-4.7969e-05 7.2437e-05 -7.2436e-05)
(-4.7967e-05 5.6936e-05 -8.5153e-05)
(-4.7934e-05 3.9229e-05 -9.471e-05)
(-4.7886e-05 2.0002e-05 -0.00010074)
(-4.7855e-05 5.4184e-10 -0.00010283)
(-5.1838e-05 9.1546e-05 -1.8157e-05)
(-5.1892e-05 8.6085e-05 -3.5649e-05)
(-5.19e-05 7.7459e-05 -5.1805e-05)
(-5.1892e-05 6.5929e-05 -6.5929e-05)
(-5.19e-05 5.1805e-05 -7.7459e-05)
(-5.1892e-05 3.5649e-05 -8.6084e-05)
(-5.1839e-05 1.8157e-05 -9.1545e-05)
(-5.1805e-05 3.4021e-10 -9.3439e-05)
(-5.5579e-05 8.1888e-05 -1.6229e-05)
(-5.5641e-05 7.7001e-05 -3.1893e-05)
(-5.5619e-05 6.935e-05 -4.6406e-05)
(-5.5591e-05 5.9073e-05 -5.9073e-05)
(-5.562e-05 4.6406e-05 -6.935e-05)
(-5.5641e-05 3.1893e-05 -7.7e-05)
(-5.5579e-05 1.623e-05 -8.1887e-05)
(-5.5535e-05 4.6262e-10 -8.3589e-05)
(-5.8843e-05 7.2657e-05 -1.4399e-05)
(-5.8882e-05 6.8358e-05 -2.8319e-05)
(-5.8877e-05 6.1585e-05 -4.122e-05)
(-5.8867e-05 5.2475e-05 -5.2475e-05)
(-5.8877e-05 4.122e-05 -6.1584e-05)
(-5.8882e-05 2.8319e-05 -6.8358e-05)
(-5.8843e-05 1.4399e-05 -7.2656e-05)
(-5.8819e-05 2.1676e-10 -7.4158e-05)
(-6.1519e-05 6.3998e-05 -1.2676e-05)
(-6.1539e-05 6.0227e-05 -2.4949e-05)
(-6.1553e-05 5.4287e-05 -3.6342e-05)
(-6.1551e-05 4.6277e-05 -4.6277e-05)
(-6.1553e-05 3.6342e-05 -5.4287e-05)
(-6.154e-05 2.4949e-05 -6.0226e-05)
(-6.152e-05 1.2676e-05 -6.3998e-05)
(-6.1505e-05 2.966e-10 -6.532e-05)
(-6.3578e-05 5.5747e-05 -1.1031e-05)
(-6.3605e-05 5.2475e-05 -2.1728e-05)
(-6.36e-05 4.733e-05 -3.1684e-05)
(-6.3592e-05 4.0361e-05 -4.0362e-05)
(-6.3601e-05 3.1683e-05 -4.733e-05)
(-6.3606e-05 2.1728e-05 -5.2475e-05)
(-6.3578e-05 1.1031e-05 -5.5746e-05)
(-6.356e-05 2.0952e-10 -5.6893e-05)
(-6.5066e-05 4.7836e-05 -9.4467e-06)
(-6.5105e-05 4.5021e-05 -1.8632e-05)
(-6.5078e-05 4.0649e-05 -2.7224e-05)
(-6.5049e-05 3.4707e-05 -3.4708e-05)
(-6.5078e-05 2.7224e-05 -4.065e-05)
(-6.5105e-05 1.8632e-05 -4.5021e-05)
(-6.5066e-05 9.4463e-06 -4.7836e-05)
(-6.5033e-05 1.0077e-10 -4.8843e-05)
(-2.8512e-05 -2.0582e-05 -0.00010368)
(-2.394e-05 -1.9019e-05 -9.5568e-05)
(-2.8457e-05 -4.0324e-05 -9.7295e-05)
(-2.3891e-05 -3.722e-05 -8.9706e-05)
(-2.8504e-05 -5.845e-05 -8.7368e-05)
(-2.393e-05 -5.3868e-05 -8.0524e-05)
(-2.8559e-05 -7.4301e-05 -7.4301e-05)
(-2.3974e-05 -6.8409e-05 -6.8409e-05)
(-2.8503e-05 -8.7368e-05 -5.8451e-05)
(-2.3929e-05 -8.0524e-05 -5.3868e-05)
(-2.8456e-05 -9.7296e-05 -4.0325e-05)
(-2.3891e-05 -8.9707e-05 -3.7221e-05)
(-2.8511e-05 -0.00010368 -2.0582e-05)
(-2.3939e-05 -9.5568e-05 -1.9019e-05)
(-3.2831e-05 -2.1828e-05 -0.00011021)
(-3.2781e-05 -4.2808e-05 -0.00010339)
(-3.2832e-05 -6.2139e-05 -9.2875e-05)
(-3.2894e-05 -7.9054e-05 -7.9054e-05)
(-3.2831e-05 -9.2875e-05 -6.214e-05)
(-3.278e-05 -0.00010339 -4.2809e-05)
(-3.283e-05 -0.00011021 -2.1829e-05)
(-3.6671e-05 -2.25e-05 -0.00011346)
(-3.6661e-05 -4.4114e-05 -0.00010649)
(-3.6695e-05 -6.3981e-05 -9.5647e-05)
(-3.6725e-05 -8.1358e-05 -8.1359e-05)
(-3.6694e-05 -9.5647e-05 -6.3982e-05)
(-3.666e-05 -0.00010649 -4.4114e-05)
(-3.667e-05 -0.00011346 -2.2501e-05)
(-4.0278e-05 -2.2405e-05 -0.00011273)
(-4.0312e-05 -4.3904e-05 -0.0001059)
(-4.0329e-05 -6.3604e-05 -9.5098e-05)
(-4.0326e-05 -8.0851e-05 -8.0851e-05)
(-4.0329e-05 -9.5098e-05 -6.3605e-05)
(-4.0312e-05 -0.0001059 -4.3905e-05)
(-4.0277e-05 -0.00011274 -2.2406e-05)
(-4.3984e-05 -2.1504e-05 -0.0001082)
(-4.4031e-05 -4.2143e-05 -0.00010169)
(-4.4057e-05 -6.1092e-05 -9.1359e-05)
(-4.4064e-05 -7.7678e-05 -7.7679e-05)
(-4.4057e-05 -9.1359e-05 -6.1093e-05)
(-4.4031e-05 -0.00010169 -4.2144e-05)
(-4.3984e-05 -0.0001082 -2.1505e-05)
(-4.7886e-05 -2.0001e-05 -0.00010074)
(-4.7934e-05 -3.9228e-05 -9.471e-05)
(-4.7967e-05 -5.6936e-05 -8.5154e-05)
(-4.7969e-05 -7.2436e-05 -7.2437e-05)
(-4.7967e-05 -8.5153e-05 -5.6937e-05)
(-4.7934e-05 -9.471e-05 -3.9229e-05)
(-4.7886e-05 -0.00010074 -2.0002e-05)
(-5.1839e-05 -1.8157e-05 -9.1546e-05)
(-5.1892e-05 -3.5649e-05 -8.6085e-05)
(-5.19e-05 -5.1805e-05 -7.7459e-05)
(-5.1892e-05 -6.5929e-05 -6.593e-05)
(-5.19e-05 -7.7459e-05 -5.1806e-05)
(-5.1892e-05 -8.6085e-05 -3.565e-05)
(-5.1838e-05 -9.1546e-05 -1.8158e-05)
(-5.5579e-05 -1.6229e-05 -8.1888e-05)
(-5.5641e-05 -3.1892e-05 -7.7001e-05)
(-5.562e-05 -4.6406e-05 -6.9351e-05)
(-5.5591e-05 -5.9073e-05 -5.9074e-05)
(-5.562e-05 -6.9351e-05 -4.6407e-05)
(-5.5641e-05 -7.7001e-05 -3.1893e-05)
(-5.5579e-05 -8.1889e-05 -1.623e-05)
(-5.8843e-05 -1.4399e-05 -7.2657e-05)
(-5.8882e-05 -2.8319e-05 -6.8359e-05)
(-5.8877e-05 -4.122e-05 -6.1585e-05)
(-5.8867e-05 -5.2476e-05 -5.2476e-05)
(-5.8877e-05 -6.1585e-05 -4.1221e-05)
(-5.8882e-05 -6.8359e-05 -2.832e-05)
(-5.8843e-05 -7.2658e-05 -1.44e-05)
(-6.152e-05 -1.2675e-05 -6.3998e-05)
(-6.154e-05 -2.4949e-05 -6.0227e-05)
(-6.1553e-05 -3.6342e-05 -5.4288e-05)
(-6.1551e-05 -4.6277e-05 -4.6278e-05)
(-6.1553e-05 -5.4288e-05 -3.6343e-05)
(-6.1539e-05 -6.0227e-05 -2.495e-05)
(-6.152e-05 -6.3999e-05 -1.2676e-05)
(-6.3578e-05 -1.103e-05 -5.5747e-05)
(-6.3606e-05 -2.1727e-05 -5.2476e-05)
(-6.3601e-05 -3.1684e-05 -4.7331e-05)
(-6.3592e-05 -4.0362e-05 -4.0362e-05)
(-6.3601e-05 -4.7331e-05 -3.1685e-05)
(-6.3606e-05 -5.2476e-05 -2.1729e-05)
(-6.3578e-05 -5.5748e-05 -1.1031e-05)
(-6.5066e-05 -9.4461e-06 -4.7836e-05)
(-6.5105e-05 -1.8632e-05 -4.5022e-05)
(-6.5078e-05 -2.7224e-05 -4.065e-05)
(-6.5049e-05 -3.4708e-05 -3.4708e-05)
(-6.5078e-05 -4.065e-05 -2.7225e-05)
(-6.5105e-05 -4.5022e-05 -1.8633e-05)
(-6.5066e-05 -4.7837e-05 -9.4471e-06)
)
;
    }
    procBoundary1to0
    {
        type            processor;
    }
    procBoundary1to2
    {
        type            processor;
    }
}


// ************************************************************************* //
