/*--------------------------------*- C++ -*----------------------------------*\
| =========                 |                                                 |
| \\      /  F ield         | OpenFOAM: The Open Source CFD Toolbox           |
|  \\    /   O peration     | Version:  4.1                                   |
|   \\  /    A nd           | Web:      www.OpenFOAM.org                      |
|    \\/     M anipulation  |                                                 |
\*---------------------------------------------------------------------------*/
FoamFile
{
    version     2.0;
    format      ascii;
    class       pointVectorField;
    location    "0.0081";
    object      pointDisplacement_Next;
}
// * * * * * * * * * * * * * * * * * * * * * * * * * * * * * * * * * * * * * //

dimensions      [0 1 0 0 0 0 0];

internalField   uniform (0 0 0);

boundaryField
{
    inlet
    {
        type            fixedValue;
        value           nonuniform 0();
    }
    outlet
    {
        type            fixedValue;
        value           nonuniform 0();
    }
    mantle
    {
        type            fixedValue;
        value           nonuniform List<vector> 
416
(
(5.2805e-05 4.9149e-06 -2.4702e-10)
(5.6516e-05 9.5595e-06 -3.3379e-10)
(5.6481e-05 9.2991e-06 -1.8213e-06)
(5.2771e-05 4.7736e-06 -9.3732e-07)
(5.6435e-05 8.6264e-06 -3.5649e-06)
(5.2729e-05 4.4093e-06 -1.835e-06)
(5.6424e-05 7.6973e-06 -5.1621e-06)
(5.2725e-05 3.953e-06 -2.6673e-06)
(5.6435e-05 6.5503e-06 -6.551e-06)
(5.2741e-05 3.3788e-06 -3.3799e-06)
(5.6424e-05 5.1615e-06 -7.6985e-06)
(5.2725e-05 2.6667e-06 -3.9547e-06)
(5.6435e-05 3.5644e-06 -8.6278e-06)
(5.2729e-05 1.8345e-06 -4.4116e-06)
(5.648e-05 1.8206e-06 -9.3006e-06)
(5.2771e-05 9.3661e-07 -4.7763e-06)
(5.6515e-05 -5.0074e-10 -9.561e-06)
(5.2805e-05 -7.9638e-10 -4.9176e-06)
(5.997e-05 1.4031e-05 -1.6536e-10)
(5.9943e-05 1.3665e-05 -2.6989e-06)
(5.99e-05 1.2702e-05 -5.2529e-06)
(5.9886e-05 1.1305e-05 -7.5577e-06)
(5.9886e-05 9.5867e-06 -9.5873e-06)
(5.9886e-05 7.5572e-06 -1.1306e-05)
(5.9899e-05 5.2524e-06 -1.2703e-05)
(5.9943e-05 2.6984e-06 -1.3665e-05)
(5.997e-05 -3.9715e-10 -1.4032e-05)
(6.3183e-05 1.7286e-05 1.034e-10)
(6.3161e-05 1.6882e-05 -3.3788e-06)
(6.3132e-05 1.5726e-05 -6.5323e-06)
(6.3124e-05 1.3958e-05 -9.32e-06)
(6.3129e-05 1.178e-05 -1.178e-05)
(6.3124e-05 9.3195e-06 -1.3958e-05)
(6.3132e-05 6.5317e-06 -1.5726e-05)
(6.3161e-05 3.3784e-06 -1.6881e-05)
(6.3183e-05 -3.2117e-10 -1.7285e-05)
(6.6177e-05 1.8734e-05 3.9311e-11)
(6.6168e-05 1.8321e-05 -3.6954e-06)
(6.6161e-05 1.7095e-05 -7.1274e-06)
(6.616e-05 1.5135e-05 -1.0102e-05)
(6.6166e-05 1.2734e-05 -1.2734e-05)
(6.616e-05 1.0101e-05 -1.5135e-05)
(6.616e-05 7.1269e-06 -1.7094e-05)
(6.6167e-05 3.6951e-06 -1.832e-05)
(6.6176e-05 4.9216e-11 -1.8734e-05)
(6.8983e-05 1.8005e-05 8.5529e-10)
(6.8981e-05 1.7576e-05 -3.5161e-06)
(6.8987e-05 1.6363e-05 -6.7952e-06)
(6.8998e-05 1.4509e-05 -9.6872e-06)
(6.9008e-05 1.2243e-05 -1.2242e-05)
(6.8997e-05 9.687e-06 -1.4508e-05)
(6.8986e-05 6.7949e-06 -1.6362e-05)
(6.898e-05 3.516e-06 -1.7575e-05)
(6.8982e-05 -6.1594e-10 -1.8003e-05)
(7.163e-05 1.4977e-05 1.5516e-10)
(7.1642e-05 1.4583e-05 -2.8972e-06)
(7.1657e-05 1.3548e-05 -5.6031e-06)
(7.1674e-05 1.2008e-05 -8.0152e-06)
(7.1674e-05 1.0159e-05 -1.0158e-05)
(7.1674e-05 8.0152e-06 -1.2007e-05)
(7.1656e-05 5.603e-06 -1.3546e-05)
(7.1641e-05 2.8972e-06 -1.4581e-05)
(7.1629e-05 2.0108e-10 -1.4974e-05)
(7.4103e-05 9.7728e-06 6.71e-11)
(7.4119e-05 9.5336e-06 -1.9113e-06)
(7.4146e-05 8.843e-06 -3.6667e-06)
(7.4149e-05 7.7958e-06 -5.1911e-06)
(7.4145e-05 6.5482e-06 -6.5473e-06)
(7.4148e-05 5.1914e-06 -7.7946e-06)
(7.4146e-05 3.6669e-06 -8.841e-06)
(7.4118e-05 1.9116e-06 -9.5306e-06)
(7.4102e-05 4.6304e-10 -9.7694e-06)
(7.6267e-05 3.0596e-06 4.465e-10)
(7.6295e-05 3.0086e-06 -6.4479e-07)
(7.6335e-05 2.765e-06 -1.1711e-06)
(7.6323e-05 2.3303e-06 -1.5306e-06)
(7.6307e-05 1.8666e-06 -1.8658e-06)
(7.6323e-05 1.5311e-06 -2.329e-06)
(7.6335e-05 1.1714e-06 -2.763e-06)
(7.6294e-05 6.4518e-07 -3.0055e-06)
(7.6266e-05 2.6683e-10 -3.056e-06)
(7.7977e-05 -4.5859e-06 6.96e-10)
(7.7989e-05 -4.5145e-06 8.7259e-07)
(7.8016e-05 -4.3163e-06 1.7732e-06)
(7.8025e-05 -3.9977e-06 2.6838e-06)
(7.8028e-05 -3.4638e-06 3.4647e-06)
(7.8025e-05 -2.6831e-06 3.9992e-06)
(7.8015e-05 -1.7727e-06 4.3185e-06)
(7.7988e-05 -8.7205e-07 4.5176e-06)
(7.7976e-05 1.6958e-10 4.5895e-06)
(7.9075e-05 -1.3155e-05 7.2988e-10)
(7.9084e-05 -1.2926e-05 2.563e-06)
(7.9104e-05 -1.2226e-05 5.0742e-06)
(7.9129e-05 -1.1073e-05 7.4143e-06)
(7.9139e-05 -9.4505e-06 9.4516e-06)
(7.9129e-05 -7.4135e-06 1.1075e-05)
(7.9103e-05 -5.0736e-06 1.2229e-05)
(7.9084e-05 -2.5624e-06 1.2929e-05)
(7.9074e-05 2.184e-10 1.3159e-05)
(7.9473e-05 -2.2775e-05 5.2252e-10)
(7.9495e-05 -2.2318e-05 4.4247e-06)
(7.9533e-05 -2.1015e-05 8.7136e-06)
(7.9537e-05 -1.8961e-05 1.2702e-05)
(7.9532e-05 -1.6174e-05 1.6175e-05)
(7.9537e-05 -1.2701e-05 1.8963e-05)
(7.9533e-05 -8.713e-06 2.1017e-05)
(7.9494e-05 -4.4241e-06 2.2321e-05)
(7.9472e-05 4.6448e-10 2.2778e-05)
(7.9181e-05 -3.3261e-05 9.0791e-10)
(7.9227e-05 -3.2556e-05 6.4428e-06)
(7.9289e-05 -3.0585e-05 1.2672e-05)
(7.9268e-05 -2.7561e-05 1.8459e-05)
(7.9238e-05 -2.3502e-05 2.3503e-05)
(7.9268e-05 -1.8458e-05 2.7562e-05)
(7.9288e-05 -1.2671e-05 3.0587e-05)
(7.9227e-05 -6.4422e-06 3.2559e-05)
(7.9181e-05 9.1083e-12 3.3264e-05)
(5.648e-05 -1.8217e-06 -9.2998e-06)
(5.2771e-05 -9.3805e-07 -4.7755e-06)
(5.6434e-05 -3.5651e-06 -8.6265e-06)
(5.2729e-05 -1.8357e-06 -4.4105e-06)
(5.6424e-05 -5.1619e-06 -7.6971e-06)
(5.2725e-05 -2.6678e-06 -3.9537e-06)
(5.6435e-05 -6.5503e-06 -6.5497e-06)
(5.274e-05 -3.3799e-06 -3.3793e-06)
(5.6424e-05 -7.697e-06 -5.161e-06)
(5.2725e-05 -3.954e-06 -2.6668e-06)
(5.6434e-05 -8.6258e-06 -3.564e-06)
(5.2729e-05 -4.4103e-06 -1.8346e-06)
(5.648e-05 -9.2984e-06 -1.8206e-06)
(5.2771e-05 -4.7748e-06 -9.37e-07)
(5.6515e-05 -9.5592e-06 -1.4266e-11)
(5.2805e-05 -4.9164e-06 -2.7556e-11)
(5.9943e-05 -2.699e-06 -1.3664e-05)
(5.9899e-05 -5.2525e-06 -1.2701e-05)
(5.9886e-05 -7.5568e-06 -1.1304e-05)
(5.9885e-05 -9.5857e-06 -9.5853e-06)
(5.9886e-05 -1.1303e-05 -7.5558e-06)
(5.9899e-05 -1.27e-05 -5.2514e-06)
(5.9943e-05 -1.3662e-05 -2.6979e-06)
(5.997e-05 -1.4029e-05 2.1666e-10)
(6.3161e-05 -3.3786e-06 -1.6881e-05)
(6.3131e-05 -6.5315e-06 -1.5724e-05)
(6.3123e-05 -9.3186e-06 -1.3956e-05)
(6.3129e-05 -1.1778e-05 -1.1778e-05)
(6.3123e-05 -1.3955e-05 -9.3176e-06)
(6.3131e-05 -1.5723e-05 -6.5303e-06)
(6.3161e-05 -1.6878e-05 -3.3776e-06)
(6.3183e-05 -1.7283e-05 5.0689e-10)
(6.6167e-05 -3.6949e-06 -1.8319e-05)
(6.616e-05 -7.1263e-06 -1.7092e-05)
(6.6159e-05 -1.01e-05 -1.5133e-05)
(6.6165e-05 -1.2732e-05 -1.2731e-05)
(6.6159e-05 -1.5132e-05 -1.0099e-05)
(6.616e-05 -1.7091e-05 -7.1252e-06)
(6.6167e-05 -1.8317e-05 -3.694e-06)
(6.6176e-05 -1.8731e-05 4.8488e-10)
(6.898e-05 -3.5156e-06 -1.7574e-05)
(6.8986e-05 -6.7942e-06 -1.636e-05)
(6.8997e-05 -9.6857e-06 -1.4506e-05)
(6.9007e-05 -1.2241e-05 -1.2239e-05)
(6.8997e-05 -1.4506e-05 -9.6848e-06)
(6.8986e-05 -1.6359e-05 -6.7931e-06)
(6.898e-05 -1.7572e-05 -3.5148e-06)
(6.8983e-05 -1.8001e-05 1.4409e-09)
(7.1641e-05 -2.8967e-06 -1.458e-05)
(7.1656e-05 -5.6022e-06 -1.3545e-05)
(7.1674e-05 -8.0138e-06 -1.2006e-05)
(7.1674e-05 -1.0157e-05 -1.0156e-05)
(7.1674e-05 -1.2006e-05 -8.013e-06)
(7.1656e-05 -1.3545e-05 -5.6012e-06)
(7.1642e-05 -1.458e-05 -2.8959e-06)
(7.163e-05 -1.4974e-05 8.6595e-10)
(7.4118e-05 -1.911e-06 -9.5303e-06)
(7.4145e-05 -3.666e-06 -8.84e-06)
(7.4148e-05 -5.1897e-06 -7.7928e-06)
(7.4145e-05 -6.546e-06 -6.545e-06)
(7.4148e-05 -7.7933e-06 -5.1889e-06)
(7.4146e-05 -8.8405e-06 -3.6651e-06)
(7.4118e-05 -9.5309e-06 -1.9102e-06)
(7.4103e-05 -9.7702e-06 8.1044e-10)
(7.6294e-05 -6.4465e-07 -3.0052e-06)
(7.6334e-05 -1.1706e-06 -2.7621e-06)
(7.6323e-05 -1.5294e-06 -2.3272e-06)
(7.6306e-05 -1.8643e-06 -1.8634e-06)
(7.6323e-05 -2.3283e-06 -1.5286e-06)
(7.6335e-05 -2.7634e-06 -1.1698e-06)
(7.6294e-05 -3.0069e-06 -6.4383e-07)
(7.6267e-05 -3.058e-06 1.1521e-09)
(7.7988e-05 8.7259e-07 4.5181e-06)
(7.8015e-05 1.7735e-06 4.3196e-06)
(7.8024e-05 2.6845e-06 4.0009e-06)
(7.8028e-05 3.4654e-06 3.4667e-06)
(7.8025e-05 3.9993e-06 2.6854e-06)
(7.8016e-05 4.3176e-06 1.7743e-06)
(7.7988e-05 4.5158e-06 8.7335e-07)
(7.7976e-05 4.5871e-06 1.2557e-09)
(7.9084e-05 2.563e-06 1.293e-05)
(7.9103e-05 5.0744e-06 1.223e-05)
(7.9129e-05 7.4146e-06 1.1077e-05)
(7.9139e-05 9.4517e-06 9.4531e-06)
(7.9129e-05 1.1075e-05 7.4155e-06)
(7.9104e-05 1.2228e-05 5.075e-06)
(7.9084e-05 1.2927e-05 2.5637e-06)
(7.9075e-05 1.3156e-05 1.1761e-09)
(7.9494e-05 4.4246e-06 2.2322e-05)
(7.9532e-05 8.7139e-06 2.1019e-05)
(7.9536e-05 1.2702e-05 1.8965e-05)
(7.9532e-05 1.6176e-05 1.6177e-05)
(7.9536e-05 1.8962e-05 1.2703e-05)
(7.9533e-05 2.1016e-05 8.7144e-06)
(7.9495e-05 2.2319e-05 4.4253e-06)
(7.9473e-05 2.2775e-05 1.5137e-09)
(7.9227e-05 6.4427e-06 3.256e-05)
(7.9288e-05 1.2672e-05 3.059e-05)
(7.9267e-05 1.846e-05 2.7565e-05)
(7.9238e-05 2.3504e-05 2.3505e-05)
(7.9268e-05 2.7562e-05 1.846e-05)
(7.9288e-05 3.0586e-05 1.2673e-05)
(7.9227e-05 3.2557e-05 6.4434e-06)
(7.9181e-05 3.326e-05 1.2015e-09)
(5.648e-05 -9.2987e-06 1.8208e-06)
(5.2771e-05 -4.7749e-06 9.37e-07)
(5.6435e-05 -8.6262e-06 3.5642e-06)
(5.2729e-05 -4.4106e-06 1.8346e-06)
(5.6425e-05 -7.6975e-06 5.1612e-06)
(5.2725e-05 -3.9544e-06 2.6668e-06)
(5.6435e-05 -6.5508e-06 6.5499e-06)
(5.2741e-05 -3.3803e-06 3.3792e-06)
(5.6425e-05 -5.1622e-06 7.6972e-06)
(5.2726e-05 -2.668e-06 3.9537e-06)
(5.6435e-05 -3.5653e-06 8.6261e-06)
(5.273e-05 -1.8358e-06 4.41e-06)
(5.6481e-05 -1.8217e-06 9.2983e-06)
(5.2771e-05 -9.3803e-07 4.7739e-06)
(5.6516e-05 -1.0066e-09 9.5583e-06)
(5.2805e-05 -9.6902e-10 4.9147e-06)
(5.9943e-05 -1.3663e-05 2.6984e-06)
(5.99e-05 -1.2701e-05 5.2519e-06)
(5.9886e-05 -1.1304e-05 7.5564e-06)
(5.9886e-05 -9.5863e-06 9.5859e-06)
(5.9887e-05 -7.5572e-06 1.1304e-05)
(5.99e-05 -5.2528e-06 1.2701e-05)
(5.9943e-05 -2.6992e-06 1.3663e-05)
(5.9971e-05 -8.072e-10 1.4029e-05)
(6.3161e-05 -1.6879e-05 3.3784e-06)
(6.3132e-05 -1.5724e-05 6.5312e-06)
(6.3124e-05 -1.3956e-05 9.3187e-06)
(6.313e-05 -1.1779e-05 1.1779e-05)
(6.3124e-05 -9.3192e-06 1.3957e-05)
(6.3133e-05 -6.5318e-06 1.5724e-05)
(6.3162e-05 -3.3789e-06 1.688e-05)
(6.3183e-05 -5.07e-10 1.7283e-05)
(6.6168e-05 -1.8317e-05 3.6951e-06)
(6.6161e-05 -1.7092e-05 7.1265e-06)
(6.616e-05 -1.5133e-05 1.01e-05)
(6.6167e-05 -1.2733e-05 1.2733e-05)
(6.6161e-05 -1.0101e-05 1.5134e-05)
(6.6161e-05 -7.1268e-06 1.7093e-05)
(6.6168e-05 -3.6954e-06 1.8319e-05)
(6.6177e-05 -5.3911e-10 1.8732e-05)
(6.8981e-05 -1.7573e-05 3.5162e-06)
(6.8987e-05 -1.636e-05 6.7948e-06)
(6.8998e-05 -1.4507e-05 9.6866e-06)
(6.9008e-05 -1.2241e-05 1.2242e-05)
(6.8998e-05 -9.6865e-06 1.4508e-05)
(6.8987e-05 -6.7947e-06 1.6361e-05)
(6.8981e-05 -3.5161e-06 1.7574e-05)
(6.8983e-05 -1.1987e-09 1.8002e-05)
(7.1642e-05 -1.458e-05 2.8977e-06)
(7.1657e-05 -1.3545e-05 5.6032e-06)
(7.1675e-05 -1.2007e-05 8.0151e-06)
(7.1675e-05 -1.0158e-05 1.0158e-05)
(7.1675e-05 -8.0146e-06 1.2007e-05)
(7.1657e-05 -5.6027e-06 1.3546e-05)
(7.1642e-05 -2.8972e-06 1.4581e-05)
(7.163e-05 -3.7671e-10 1.4975e-05)
(7.4119e-05 -9.5314e-06 1.9123e-06)
(7.4146e-05 -8.8414e-06 3.6673e-06)
(7.4149e-05 -7.7943e-06 5.1912e-06)
(7.4146e-05 -6.5468e-06 6.5471e-06)
(7.4149e-05 -5.1904e-06 7.7945e-06)
(7.4147e-05 -3.6665e-06 8.8415e-06)
(7.4119e-05 -1.9116e-06 9.5319e-06)
(7.4103e-05 -6.3984e-10 9.7712e-06)
(7.6294e-05 -3.0074e-06 6.4615e-07)
(7.6335e-05 -2.7642e-06 1.1722e-06)
(7.6324e-05 -2.3291e-06 1.5311e-06)
(7.6307e-05 -1.8651e-06 1.8659e-06)
(7.6324e-05 -1.53e-06 2.3293e-06)
(7.6336e-05 -1.1711e-06 2.764e-06)
(7.6295e-05 -6.4534e-07 3.0075e-06)
(7.6267e-05 -4.6712e-10 3.0587e-06)
(7.7988e-05 4.5153e-06 -8.7094e-07)
(7.8016e-05 4.3168e-06 -1.7717e-06)
(7.8025e-05 3.9984e-06 -2.6826e-06)
(7.8029e-05 3.4646e-06 -3.4639e-06)
(7.8025e-05 2.6837e-06 -3.9981e-06)
(7.8016e-05 1.7728e-06 -4.3169e-06)
(7.7989e-05 8.7184e-07 -4.5152e-06)
(7.7977e-05 -4.8721e-10 -4.5865e-06)
(7.9084e-05 1.2926e-05 -2.5612e-06)
(7.9104e-05 1.2227e-05 -5.0724e-06)
(7.913e-05 1.1074e-05 -7.4125e-06)
(7.9139e-05 9.4506e-06 -9.4499e-06)
(7.913e-05 7.4135e-06 -1.1073e-05)
(7.9104e-05 5.0734e-06 -1.2227e-05)
(7.9085e-05 2.5622e-06 -1.2926e-05)
(7.9075e-05 -3.2593e-10 -1.3156e-05)
(7.9495e-05 2.2319e-05 -4.4228e-06)
(7.9533e-05 2.1015e-05 -8.7117e-06)
(7.9537e-05 1.8961e-05 -1.27e-05)
(7.9532e-05 1.6174e-05 -1.6173e-05)
(7.9537e-05 1.2701e-05 -1.8961e-05)
(7.9533e-05 8.7127e-06 -2.1015e-05)
(7.9495e-05 4.4239e-06 -2.2319e-05)
(7.9473e-05 1.215e-10 -2.2776e-05)
(7.9227e-05 3.2556e-05 -6.4409e-06)
(7.9288e-05 3.0586e-05 -1.267e-05)
(7.9268e-05 2.7561e-05 -1.8458e-05)
(7.9238e-05 2.3503e-05 -2.3502e-05)
(7.9268e-05 1.8458e-05 -2.7561e-05)
(7.9288e-05 1.2671e-05 -3.0586e-05)
(7.9227e-05 6.4421e-06 -3.2557e-05)
(7.9182e-05 -8.5614e-11 -3.3262e-05)
(5.6481e-05 1.8198e-06 9.2974e-06)
(5.2771e-05 9.3584e-07 4.7728e-06)
(5.6435e-05 3.5629e-06 8.6246e-06)
(5.2729e-05 1.8331e-06 4.4083e-06)
(5.6424e-05 5.1597e-06 7.6958e-06)
(5.2725e-05 2.665e-06 3.952e-06)
(5.6435e-05 6.5482e-06 6.549e-06)
(5.2741e-05 3.3772e-06 3.378e-06)
(5.6424e-05 7.6956e-06 5.1607e-06)
(5.2725e-05 3.9516e-06 2.666e-06)
(5.6435e-05 8.6251e-06 3.564e-06)
(5.2729e-05 4.4083e-06 1.8342e-06)
(5.6481e-05 9.2984e-06 1.8207e-06)
(5.2771e-05 4.7731e-06 9.3674e-07)
(5.9943e-05 2.6975e-06 1.3662e-05)
(5.99e-05 5.2509e-06 1.27e-05)
(5.9886e-05 7.5552e-06 1.1303e-05)
(5.9886e-05 9.5846e-06 9.5852e-06)
(5.9886e-05 1.1303e-05 7.5562e-06)
(5.99e-05 1.2701e-05 5.252e-06)
(5.9943e-05 1.3664e-05 2.6984e-06)
(6.3162e-05 3.3775e-06 1.6879e-05)
(6.3132e-05 6.5304e-06 1.5723e-05)
(6.3124e-05 9.3178e-06 1.3956e-05)
(6.313e-05 1.1778e-05 1.1778e-05)
(6.3124e-05 1.3956e-05 9.3187e-06)
(6.3132e-05 1.5724e-05 6.5315e-06)
(6.3162e-05 1.6881e-05 3.3785e-06)
(6.6168e-05 3.6943e-06 1.8318e-05)
(6.6161e-05 7.1257e-06 1.7092e-05)
(6.616e-05 1.01e-05 1.5133e-05)
(6.6166e-05 1.2732e-05 1.2732e-05)
(6.616e-05 1.5133e-05 1.0101e-05)
(6.6161e-05 1.7093e-05 7.1268e-06)
(6.6168e-05 1.832e-05 3.6953e-06)
(6.8981e-05 3.5152e-06 1.7574e-05)
(6.8987e-05 6.7937e-06 1.6361e-05)
(6.8998e-05 9.6855e-06 1.4507e-05)
(6.9008e-05 1.2241e-05 1.2241e-05)
(6.8998e-05 1.4507e-05 9.6865e-06)
(6.8987e-05 1.6361e-05 6.7948e-06)
(6.8981e-05 1.7576e-05 3.5162e-06)
(7.1642e-05 2.8965e-06 1.4581e-05)
(7.1657e-05 5.6019e-06 1.3546e-05)
(7.1675e-05 8.0136e-06 1.2007e-05)
(7.1675e-05 1.0157e-05 1.0157e-05)
(7.1675e-05 1.2007e-05 8.0146e-06)
(7.1657e-05 1.3547e-05 5.603e-06)
(7.1642e-05 1.4583e-05 2.8974e-06)
(7.4119e-05 1.9109e-06 9.5321e-06)
(7.4147e-05 3.666e-06 8.8417e-06)
(7.4149e-05 5.1898e-06 7.7943e-06)
(7.4146e-05 6.5461e-06 6.5466e-06)
(7.4149e-05 7.7941e-06 5.1908e-06)
(7.4147e-05 8.8421e-06 3.6671e-06)
(7.4119e-05 9.5333e-06 1.9119e-06)
(7.6295e-05 6.4469e-07 3.0079e-06)
(7.6336e-05 1.1709e-06 2.7645e-06)
(7.6324e-05 1.5297e-06 2.3293e-06)
(7.6308e-05 1.8647e-06 1.8655e-06)
(7.6324e-05 2.329e-06 1.5308e-06)
(7.6336e-05 2.7645e-06 1.1721e-06)
(7.6295e-05 3.0085e-06 6.4584e-07)
(7.7989e-05 -8.7248e-07 -4.5149e-06)
(7.8017e-05 -1.7731e-06 -4.3165e-06)
(7.8026e-05 -2.6839e-06 -3.9981e-06)
(7.8029e-05 -3.4648e-06 -3.464e-06)
(7.8026e-05 -3.9984e-06 -2.6828e-06)
(7.8016e-05 -4.3165e-06 -1.7718e-06)
(7.7989e-05 -4.5145e-06 -8.7125e-07)
(7.9085e-05 -2.5629e-06 -1.2926e-05)
(7.9104e-05 -5.074e-06 -1.2227e-05)
(7.913e-05 -7.414e-06 -1.1074e-05)
(7.914e-05 -9.4508e-06 -9.4501e-06)
(7.913e-05 -1.1074e-05 -7.4128e-06)
(7.9104e-05 -1.2227e-05 -5.0727e-06)
(7.9085e-05 -1.2926e-05 -2.5616e-06)
(7.9495e-05 -4.4246e-06 -2.2319e-05)
(7.9534e-05 -8.7137e-06 -2.1016e-05)
(7.9537e-05 -1.2702e-05 -1.8961e-05)
(7.9533e-05 -1.6175e-05 -1.6174e-05)
(7.9537e-05 -1.8961e-05 -1.2701e-05)
(7.9533e-05 -2.1015e-05 -8.7122e-06)
(7.9495e-05 -2.2319e-05 -4.4232e-06)
(7.9228e-05 -6.4427e-06 -3.2558e-05)
(7.9289e-05 -1.2672e-05 -3.0586e-05)
(7.9269e-05 -1.8459e-05 -2.7561e-05)
(7.9239e-05 -2.3503e-05 -2.3502e-05)
(7.9268e-05 -2.7561e-05 -1.8458e-05)
(7.9289e-05 -3.0586e-05 -1.267e-05)
(7.9227e-05 -3.2557e-05 -6.4413e-06)
)
;
    }
    procBoundary1to0
    {
        type            processor;
    }
    procBoundary1to2
    {
        type            processor;
    }
}


// ************************************************************************* //
