/*--------------------------------*- C++ -*----------------------------------*\
  =========                 |
  \\      /  F ield         | OpenFOAM: The Open Source CFD Toolbox
   \\    /   O peration     | Website:  https://openfoam.org
    \\  /    A nd           | Version:  8
     \\/     M anipulation  |
\*---------------------------------------------------------------------------*/
FoamFile
{
    version     2.0;
    format      ascii;
    class       pointVectorField;
    location    "0.0100000";
    object      pointDisplacement;
}
// * * * * * * * * * * * * * * * * * * * * * * * * * * * * * * * * * * * * * //

dimensions      [0 1 0 0 0 0 0];

internalField   nonuniform List<vector> 
1414
(
(-3.10505857017561e-37 -1.0253681431553e-07 4.4768539958511e-09)
(-3.14027174323369e-37 -1.0369835128676e-07 4.52756779523812e-09)
(-3.25901216990671e-37 -1.07630052937156e-07 4.69922959652938e-09)
(-3.41273618089743e-37 -1.12714990831511e-07 4.92124277962813e-09)
(-3.58452595589797e-37 -1.18373794696613e-07 5.16831149211281e-09)
(-3.77187036806027e-37 -1.2454940859914e-07 5.43794461813604e-09)
(-3.98149923733716e-37 -1.31484827936962e-07 5.74075156589128e-09)
(-4.2047025408899e-37 -1.38839989770492e-07 6.0618848667879e-09)
(-4.43886870679651e-37 -1.46586776780732e-07 6.4001168921664e-09)
(-4.68960830990037e-37 -1.54852853247497e-07 6.76102158485927e-09)
(-4.95248741765262e-37 -1.63540444034313e-07 7.14032999021494e-09)
(-5.22498055390891e-37 -1.72540051090168e-07 7.53326132007967e-09)
(-5.50806347081592e-37 -1.81896288616389e-07 7.9417634725505e-09)
(-5.80480691777643e-37 -1.91695276254209e-07 8.36959651236655e-09)
(-6.1101312439092e-37 -2.01772615130559e-07 8.80958262971662e-09)
(-6.4233189844005e-37 -2.12126357211968e-07 9.26163677162247e-09)
(-6.75056903524099e-37 -2.22925254205619e-07 9.73312679673719e-09)
(-7.08714612866003e-37 -2.34016466710048e-07 1.02173795926792e-08)
(-7.42926205044109e-37 -2.45378202615708e-07 1.07134436953978e-08)
(-7.78532548820116e-37 -2.57118055847376e-07 1.12260167571e-08)
(-8.15243788409273e-37 -2.69228560475249e-07 1.17547728082509e-08)
(-8.52778677604597e-37 -2.81622302185911e-07 1.22958952575029e-08)
(-8.91263490213305e-37 -2.94344065422282e-07 1.28513394358618e-08)
(-9.31349684286268e-37 -3.07541998741963e-07 1.34275736490427e-08)
(-9.72130384298926e-37 -3.21054052275727e-07 1.40175226469571e-08)
(-1.01399589110995e-36 -3.34884326726097e-07 1.46213654701438e-08)
(-1.05771532699966e-36 -3.49246923655664e-07 1.52484499947036e-08)
(-1.10227850151033e-36 -3.64007841351389e-07 1.58929255794939e-08)
(-1.14816755099678e-36 -3.79132055937001e-07 1.65532630490524e-08)
(-1.19537099602198e-36 -3.94768397321427e-07 1.72359604575359e-08)
(-1.24445132899992e-36 -4.10961711651194e-07 1.79429758299874e-08)
(-1.29480587948705e-36 -4.27579316031123e-07 1.86685161060957e-08)
(-1.34653222269804e-36 -4.44678079022539e-07 1.94150642208701e-08)
(-1.40067498740168e-36 -4.62541215877281e-07 2.0194985619252e-08)
(-1.45697588626504e-36 -4.80913387012368e-07 2.09971319342864e-08)
(-1.51378188035727e-36 -4.99802822573376e-07 2.18218625018896e-08)
(-1.57294115903854e-36 -5.19544782238224e-07 2.26838150757187e-08)
(-1.63531468008535e-36 -5.39990770089953e-07 2.35765061840212e-08)
(-1.69888780230072e-36 -5.61063148148367e-07 2.44965460793762e-08)
(-1.76553741363738e-36 -5.82999799203501e-07 2.54543209486984e-08)
(-1.83483877492561e-36 -6.05945605290881e-07 2.64561564782693e-08)
(-1.90665413292115e-36 -6.29652728452706e-07 2.74912318291628e-08)
(-1.98109828199423e-36 -6.5420245289432e-07 2.85630959464278e-08)
(-2.05977834332758e-36 -6.8017427768715e-07 2.96970503059375e-08)
(-2.14093796305721e-36 -7.07087895993681e-07 3.08721242582804e-08)
(-2.22565620826296e-36 -7.34965073088578e-07 3.20892680958712e-08)
(-2.31487439278044e-36 -7.64449382937163e-07 3.33765808648672e-08)
(-2.40757084671492e-36 -7.95294915290865e-07 3.47233258919448e-08)
(-2.5062021695886e-36 -8.27334740160573e-07 3.61222148563799e-08)
(-2.60719825648835e-36 -8.61007959758164e-07 3.75924193747761e-08)
(-2.71511644391101e-36 -8.96669854374634e-07 3.91494513196352e-08)
(-2.82836109011083e-36 -9.33803561145676e-07 4.07707439709471e-08)
(-2.94626638774067e-36 -9.72527442184177e-07 4.24614651301651e-08)
(-3.07102490927131e-36 -1.01408467674809e-06 4.42758931758959e-08)
(-3.20217747722194e-36 -1.05747194328828e-06 4.61702221432635e-08)
(-3.33900088706032e-36 -1.10272806578602e-06 4.81461471238978e-08)
(-3.48598359866119e-36 -1.1510639004158e-06 5.02565352401042e-08)
(-3.63994580797006e-36 -1.20203832273932e-06 5.24821265829659e-08)
(-3.80157628120813e-36 -1.25528360520688e-06 5.48068658209296e-08)
(-3.97190816770716e-36 -1.31158115061882e-06 5.72648697370495e-08)
(-4.15314551937496e-36 -1.37160309202926e-06 5.98854842942288e-08)
(-4.34397968039126e-36 -1.43432062674301e-06 6.26237909967285e-08)
(-4.54222955772232e-36 -1.49990767337215e-06 6.54873832951413e-08)
(-4.75505832006847e-36 -1.57044672572761e-06 6.85671848328537e-08)
(-4.97844816447278e-36 -1.64406559619029e-06 7.17814541331139e-08)
(-5.21076901087846e-36 -1.72078743896419e-06 7.51312021303012e-08)
(-5.45769170117326e-36 -1.80239127056293e-06 7.86941023628495e-08)
(-5.71630045835416e-36 -1.88793752825434e-06 8.24291326359512e-08)
(-5.98540142097112e-36 -1.97671955978685e-06 8.63054398459939e-08)
(-6.2670149699396e-36 -2.06964436625625e-06 9.03626245160387e-08)
(-6.56233496670966e-36 -2.1670522523363e-06 9.4615544669019e-08)
(-6.86617270574837e-36 -2.26732517148421e-06 9.89935548672058e-08)
(-7.17923991215096e-36 -2.37050203074863e-06 1.03498353829029e-07)
(-7.50034272446738e-36 -2.4774409360211e-06 1.08167407266829e-07)
(-7.83140968811694e-36 -2.58585026602403e-06 1.12900660834837e-07)
(-8.16275215825497e-36 -2.69541562377223e-06 1.17684387664232e-07)
(-8.49377320415645e-36 -2.80507010815471e-06 1.22472005846518e-07)
(-8.81942187353269e-36 -2.91259230886671e-06 1.27166526513202e-07)
(-9.13694310149894e-36 -3.01704098373854e-06 1.31726854143651e-07)
(-9.43361767183733e-36 -3.11542450062637e-06 1.36022371257629e-07)
(-9.69447639867411e-36 -3.20103500128172e-06 1.39760206439112e-07)
(-9.91240203105702e-36 -3.27343516152386e-06 1.42921265702011e-07)
(-1.0084455833109e-35 -3.32994237446686e-06 1.45388423900234e-07)
(-1.01286746245091e-35 -3.34491658723667e-06 1.46042212149077e-07)
(-1.00578235392232e-35 -3.32159236551519e-06 1.4502385463611e-07)
(-9.86198434366628e-36 -3.25566838048247e-06 1.42145551289295e-07)
(-9.39394473749708e-36 -3.10214957911728e-06 1.35442775667506e-07)
(-8.82318712887516e-36 -2.91294341436522e-06 1.27181856110328e-07)
(-8.17758359088449e-36 -2.70112365844286e-06 1.17933605840106e-07)
(-7.48353682867047e-36 -2.47112423183044e-06 1.07891614005791e-07)
(-6.77233978754894e-36 -2.23727054872545e-06 9.76813416987984e-08)
(-6.07914250367439e-36 -2.006300589314e-06 8.75969754873536e-08)
(-5.39239666340493e-36 -1.7807522603598e-06 7.7749322773774e-08)
(-4.75857102779651e-36 -1.57268756116237e-06 6.86650218208382e-08)
(-4.17470390209804e-36 -1.37910176253173e-06 6.02128833189268e-08)
(-3.63592800501315e-36 -1.20057836980458e-06 5.24183836612329e-08)
(-3.17177992799364e-36 -1.04778071678396e-06 4.57470940561449e-08)
(-2.77449957161417e-36 -9.16277588563055e-07 4.00055434826011e-08)
(-2.42762542318842e-36 -8.02055412408576e-07 3.50184955706344e-08)
(-2.15019038929513e-36 -7.09670484918646e-07 3.09848825258894e-08)
(-1.93692540834223e-36 -6.39488782251069e-07 2.79206832124982e-08)
(-1.72604609167168e-25 -5.01512828339531e-07 2.1896522966019e-08)
(2.30072085410291e-26 -5.02091027177972e-07 2.19217676725598e-08)
(2.31232498338801e-26 -5.04616168328683e-07 2.20320177161773e-08)
(2.32928446519746e-26 -5.08319144381395e-07 2.21936931422068e-08)
(2.34895849754077e-26 -5.12598920481171e-07 2.23805522021609e-08)
(2.37099783137775e-26 -5.1736493170992e-07 2.25886407463213e-08)
(2.39518008730931e-26 -5.22634985222313e-07 2.28187362518514e-08)
(2.4210806073604e-26 -5.2831415250275e-07 2.30666940502512e-08)
(2.44871021163888e-26 -5.34348199835931e-07 2.33301462463732e-08)
(2.478135889771e-26 -5.40763604845065e-07 2.36102488782128e-08)
(2.50903439703222e-26 -5.47524014979713e-07 2.39054147591407e-08)
(2.54128022510669e-26 -5.54574150605451e-07 2.42132303281943e-08)
(2.57504450107962e-26 -5.61927849184542e-07 2.45342997420233e-08)
(2.61014173234645e-26 -5.69595682590025e-07 2.48690845785731e-08)
(2.64634261351602e-26 -5.77527746103909e-07 2.52154059508006e-08)
(2.68395891093147e-26 -5.85724659709442e-07 2.55732909277588e-08)
(2.72300502644158e-26 -5.94223750965798e-07 2.59443692658779e-08)
(2.76309138373784e-26 -6.02992532239155e-07 2.63272225244324e-08)
(2.80434378698035e-26 -6.12013233093824e-07 2.6721074829444e-08)
(2.8471443420876e-26 -6.21324146254984e-07 2.71275980774007e-08)
(2.89125284361166e-26 -6.30926282654092e-07 2.75468364065232e-08)
(2.93641913366453e-26 -6.40791698525709e-07 2.79775697656639e-08)
(2.98294123197491e-26 -6.5095168730674e-07 2.8421164455785e-08)
(3.0309832741583e-26 -6.61442872448132e-07 2.88792194912873e-08)
(3.08049728696086e-26 -6.72230075092796e-07 2.93501989300999e-08)
(3.13152066230726e-26 -6.83326276249494e-07 2.98346695353054e-08)
(3.18406580710191e-26 -6.94792756774617e-07 3.03353068868759e-08)
(3.23806814145708e-26 -7.06611223479319e-07 3.08513122869375e-08)
(3.29369668487285e-26 -7.1877081341888e-07 3.13822114490813e-08)
(3.35126651483278e-26 -7.31335100598302e-07 3.19307800743098e-08)
(3.41081206549053e-26 -7.44325746091674e-07 3.24979639055423e-08)
(3.47214670922142e-26 -7.57709328038618e-07 3.3082303712841e-08)
(3.53547777240201e-26 -7.71541000842915e-07 3.36862075894805e-08)
(3.60121575290016e-26 -7.85896352446647e-07 3.43129757762845e-08)
(3.66918521150277e-26 -8.00730258865517e-07 3.4960638117551e-08)
(3.7394338055201e-26 -8.16063498113685e-07 3.56301018009698e-08)
(3.81254269331531e-26 -8.32005471594146e-07 3.63261433949513e-08)
(3.88832612702905e-26 -8.48547921855905e-07 3.70484023713991e-08)
(3.96677221607426e-26 -8.65677910094411e-07 3.77963138099062e-08)
(4.04865195716308e-26 -8.83508160539026e-07 3.85747993566154e-08)
(4.13395400882145e-26 -9.02096180436498e-07 3.93863698321437e-08)
(4.22218466769592e-26 -9.21386535869897e-07 4.02286049394088e-08)
(4.31405291242211e-26 -9.41482705150144e-07 4.11060226390361e-08)
(4.41064104567325e-26 -9.62541332223876e-07 4.20254621534367e-08)
(4.5113686877234e-26 -9.84488033315962e-07 4.29836758168513e-08)
(4.61615735096464e-26 -1.00736711020999e-06 4.39825978869238e-08)
(4.72622510861292e-26 -1.03139859114292e-06 4.50318350039467e-08)
(4.8416635547154e-26 -1.05657892712646e-06 4.61312322157445e-08)
(4.9622610777834e-26 -1.08288005109334e-06 4.72795640876955e-08)
(5.08896182350316e-26 -1.11052404087067e-06 4.84865267471308e-08)
(5.22241316981236e-26 -1.13964130858493e-06 4.9757814110459e-08)
(5.3619951100307e-26 -1.17011592557864e-06 5.10883646231839e-08)
(5.50863636934834e-26 -1.20215020188568e-06 5.24870113321453e-08)
(5.66405564791801e-26 -1.23607506396106e-06 5.3968202798402e-08)
(5.82768384035672e-26 -1.27173979221219e-06 5.55253584624271e-08)
(5.99959142644105e-26 -1.30920645062812e-06 5.71611880965025e-08)
(6.18151139795149e-26 -1.34889422308056e-06 5.88939936637197e-08)
(6.37341329449692e-26 -1.39079397618171e-06 6.07233763917556e-08)
(6.57497386361986e-26 -1.43482555162746e-06 6.26458364934702e-08)
(6.78822220052938e-26 -1.48137894647512e-06 6.46784016081172e-08)
(7.01411655600315e-26 -1.53068055068687e-06 6.6830956134911e-08)
(7.25144216832035e-26 -1.58247898381529e-06 6.90925245664883e-08)
(7.50159245995968e-26 -1.637070338234e-06 7.14760345750689e-08)
(7.76683795627745e-26 -1.69496518439849e-06 7.40037781481615e-08)
(8.04583815275375e-26 -1.75582246185259e-06 7.66608642646604e-08)
(8.33844219947691e-26 -1.81963780440858e-06 7.94471022926931e-08)
(8.64690627057036e-26 -1.88696042680189e-06 8.23864714654676e-08)
(8.9706218892744e-26 -1.95762135755135e-06 8.54715943287916e-08)
(9.30837625800662e-26 -2.03132417392222e-06 8.86895287865664e-08)
(9.66155623740227e-26 -2.10837269332642e-06 9.20535397934687e-08)
(1.00299201774399e-25 -2.18875887037894e-06 9.55632760804026e-08)
(1.04106041652625e-25 -2.27189140538598e-06 9.91929209451959e-08)
(1.08033503922447e-25 -2.35763330361692e-06 1.02936493068736e-07)
(1.12079151181051e-25 -2.44587110322239e-06 1.06789038599695e-07)
(1.16199445195468e-25 -2.53576585706899e-06 1.10713928315178e-07)
(1.20356040077357e-25 -2.62649184914474e-06 1.14675110675527e-07)
(1.245075023439e-25 -2.71707685435525e-06 1.18630137416402e-07)
(1.28590689034048e-25 -2.80617996947921e-06 1.22520463438812e-07)
(1.32539139981075e-25 -2.89231735593041e-06 1.26281302950957e-07)
(1.36221434425175e-25 -2.97264698229909e-06 1.29788570181713e-07)
(1.39474567277324e-25 -3.04367496841683e-06 1.32889719028516e-07)
(1.42201768724798e-25 -3.10321427448876e-06 1.35489261271742e-07)
(1.44101972517464e-25 -3.14466334657681e-06 1.37298966841795e-07)
(1.44690025529371e-25 -3.1575028355108e-06 1.37859551035118e-07)
(1.43739244016715e-25 -3.13677967824255e-06 1.36954758448742e-07)
(1.4076920135716e-25 -3.07195693124117e-06 1.34124536192734e-07)
(1.35439207541629e-25 -2.95560034205669e-06 1.29044297795305e-07)
(1.28411454516251e-25 -2.80219830583121e-06 1.22346620249595e-07)
(1.20389803443701e-25 -2.62716092412286e-06 1.14704323119949e-07)
(1.11765129226628e-25 -2.43899583616134e-06 1.06488857957061e-07)
(1.02921197602433e-25 -2.24601606708231e-06 9.80631792767775e-08)
(9.41453620831844e-26 -2.05448070119012e-06 8.97005646015724e-08)
(8.56658910239557e-26 -1.86941395682997e-06 8.16203760417755e-08)
(7.77075012153572e-26 -1.69575068152442e-06 7.40380736933317e-08)
(7.03316383866225e-26 -1.53480541813294e-06 6.70110517369794e-08)
(6.36252125791552e-26 -1.38847402098153e-06 6.06220849602098e-08)
(5.77588276162531e-26 -1.26045735130018e-06 5.50327564538976e-08)
(5.27095923078171e-26 -1.15023925965552e-06 5.02205306471005e-08)
(4.83989131453978e-26 -1.05615980630633e-06 4.61129330055453e-08)
(4.48365533728329e-26 -9.78436212699587e-07 4.27194476224264e-08)
(-3.00721211520104e-25 -9.43869095472637e-07 4.12102146905402e-08)
(-2.99039329718736e-25 -8.8531594104071e-07 3.86537287577746e-08)
(4.05622046383765e-26 -8.85200496616821e-07 3.86486883454902e-08)
(4.0641424369021e-26 -8.86915145710382e-07 3.87235515416726e-08)
(4.07634256641364e-26 -8.89581519168373e-07 3.8839967920995e-08)
(4.09076965855804e-26 -8.9270349921293e-07 3.89762765134824e-08)
(4.10722750903071e-26 -8.9620933570568e-07 3.91293446404394e-08)
(4.12518219021192e-26 -9.00113026239781e-07 3.92997834499818e-08)
(4.14430927455056e-26 -9.04340145893772e-07 3.94843434798627e-08)
(4.16492494745473e-26 -9.0884817173183e-07 3.96811681386088e-08)
(4.18702030793981e-26 -9.13657952406922e-07 3.98911676980671e-08)
(4.21015523546862e-26 -9.187410549932e-07 4.01131007498854e-08)
(4.23438120024718e-26 -9.24054130858692e-07 4.03450746519179e-08)
(4.25996295182505e-26 -9.29608103219459e-07 4.05875663220775e-08)
(4.28647886033986e-26 -9.35411434521926e-07 4.08409452387545e-08)
(4.31374477620568e-26 -9.41424981345608e-07 4.11035023633017e-08)
(4.34237329859113e-26 -9.47649286567413e-07 4.13752613982369e-08)
(4.37219435918436e-26 -9.54113892351663e-07 4.165751218231e-08)
(4.40261434614542e-26 -9.60793333649006e-07 4.19491428874549e-08)
(4.43397555617017e-26 -9.67673715029519e-07 4.22495468260992e-08)
(4.46682710980787e-26 -9.74785317538914e-07 4.25600460972508e-08)
(4.50069236199837e-26 -9.82129099306538e-07 4.28806825337406e-08)
(4.53522768254623e-26 -9.89683156175296e-07 4.32104997794161e-08)
(4.57085104861657e-26 -9.97472244597384e-07 4.35505787243233e-08)
(4.60768851980443e-26 -1.00552547259059e-06 4.39021902519649e-08)
(4.64583718288891e-26 -1.01381521415327e-06 4.42641281850606e-08)
(4.68530317114175e-26 -1.02235179855282e-06 4.46368435091643e-08)
(4.7257789832824e-26 -1.0311838432056e-06 4.50224589065155e-08)
(4.76723432401261e-26 -1.04029705544964e-06 4.54203503460171e-08)
(4.81006256963194e-26 -1.04968298567707e-06 4.58301489098216e-08)
(4.85454310292761e-26 -1.05939203891539e-06 4.62540553289567e-08)
(4.90062781334369e-26 -1.06944159287324e-06 4.66928283305679e-08)
(4.94813017621032e-26 -1.07980538004751e-06 4.71453210507007e-08)
(4.99716016639029e-26 -1.09052711162826e-06 4.76134419611299e-08)
(5.04811994735105e-26 -1.10166698129174e-06 4.80998191745169e-08)
(5.1009091419325e-26 -1.11318942633535e-06 4.86028999897339e-08)
(5.15550928021326e-26 -1.12511101056136e-06 4.9123407598006e-08)
(5.21247769836842e-26 -1.13751876125829e-06 4.96651416928095e-08)
(5.27149299515607e-26 -1.15040635521852e-06 5.0227826196937e-08)
(5.33260054834981e-26 -1.16376371583276e-06 5.08110211561253e-08)
(5.39671639426926e-26 -1.17768044263872e-06 5.14186385706754e-08)
(5.46350997491643e-26 -1.19220258916515e-06 5.20526891810769e-08)
(5.53230358537849e-26 -1.20728639249451e-06 5.27112622570853e-08)
(5.6039354758422e-26 -1.22301399006931e-06 5.33979439968888e-08)
(5.67970295291503e-26 -1.23951045350014e-06 5.41181951449371e-08)
(5.75886504336118e-26 -1.25671689875313e-06 5.48694447687882e-08)
(5.84102349259386e-26 -1.27466862554883e-06 5.56532340875268e-08)
(5.92739621752564e-26 -1.29354105948278e-06 5.64772223480644e-08)
(6.01818711769105e-26 -1.31333176172395e-06 5.7341303068738e-08)
(6.11313138118818e-26 -1.33401865544629e-06 5.82445123545063e-08)
(6.21289325561125e-26 -1.35577863539895e-06 5.91945735969127e-08)
(6.31805069278568e-26 -1.37871627129175e-06 6.01960524080876e-08)
(6.4280065678044e-26 -1.40273962672979e-06 6.12449347583418e-08)
(6.5434996619624e-26 -1.4280095253804e-06 6.23482423606335e-08)
(6.66614442084163e-26 -1.45479080369062e-06 6.35175382239565e-08)
(6.79563491486996e-26 -1.48296365856037e-06 6.47475916319981e-08)
(6.93177527174715e-26 -1.51257766133736e-06 6.60405669165406e-08)
(7.07572640724328e-26 -1.54396779999646e-06 6.74110899684298e-08)
(7.22747980682389e-26 -1.57712748030048e-06 6.88588728770526e-08)
(7.38683073939885e-26 -1.61199318117625e-06 7.03811422524597e-08)
(7.55568687508667e-26 -1.64887623132744e-06 7.19914909994073e-08)
(7.73472660858179e-26 -1.68795866848596e-06 7.36978670569163e-08)
(7.92290826232113e-26 -1.72904057500419e-06 7.54915418319867e-08)
(8.12138600828473e-26 -1.77235787859354e-06 7.73828161509578e-08)
(8.33189856008803e-26 -1.81832017328088e-06 7.9389573275252e-08)
(8.55364428581154e-26 -1.86665600465704e-06 8.14999612494085e-08)
(8.78635168454291e-26 -1.91736242289154e-06 8.37138512810467e-08)
(9.03151618600354e-26 -1.97087916215593e-06 8.60504425787259e-08)
(9.28885510312526e-26 -2.02707288214505e-06 8.85039133789952e-08)
(9.55757983303521e-26 -2.08570815370528e-06 9.10639846230192e-08)
(9.83879629945006e-26 -2.14702837701959e-06 9.37412833922908e-08)
(1.01320768122468e-25 -2.21102903034738e-06 9.65356122633514e-08)
(1.0434957664826e-25 -2.27723997664451e-06 9.94264446095576e-08)
(1.07476768300141e-25 -2.34555277442386e-06 1.02409045773331e-07)
(1.10703778645396e-25 -2.41587802628279e-06 1.0547951257978e-07)
(1.13989906263134e-25 -2.48754860607915e-06 1.08608717672499e-07)
(1.1730394559677e-25 -2.55990635986705e-06 1.11767925429629e-07)
(1.20616591119104e-25 -2.63217602474837e-06 1.1492328714204e-07)
(1.23875494260492e-25 -2.70328890177107e-06 1.18028142405797e-07)
(1.2702934579313e-25 -2.77205863809413e-06 1.21030693937241e-07)
(1.29971827731947e-25 -2.83621632216483e-06 1.23831878918603e-07)
(1.32569644085014e-25 -2.89297966334956e-06 1.26310219917373e-07)
(1.34748850652716e-25 -2.94058522602534e-06 1.28388723671494e-07)
(1.36269750959402e-25 -2.97373893988966e-06 1.29836246079734e-07)
(1.36744223698159e-25 -2.98410633017787e-06 1.30288896115219e-07)
(1.35988351448459e-25 -2.96766172073312e-06 1.29570908961097e-07)
(1.33619596409487e-25 -2.91595189571511e-06 1.27313209243169e-07)
(1.29378473225048e-25 -2.82331490668612e-06 1.23268590953946e-07)
(1.23774928747174e-25 -2.70095406973922e-06 1.17926201437754e-07)
(1.17369226752632e-25 -2.56119582011389e-06 1.1182422447985e-07)
(1.10478306748322e-25 -2.41091249467378e-06 1.05262712787688e-07)
(1.03411699375912e-25 -2.25673561015485e-06 9.85312046348745e-08)
(9.64001287017821e-26 -2.10367660324958e-06 9.18485040727298e-08)
(8.96235467423567e-26 -1.95574793935681e-06 8.53897991239556e-08)
(8.32615449060479e-26 -1.81693071015669e-06 7.9328908005113e-08)
(7.73638511006793e-26 -1.68825749336857e-06 7.37109140330552e-08)
(7.19990588182242e-26 -1.57122366198868e-06 6.86011066027982e-08)
(6.73086393237907e-26 -1.46887222274938e-06 6.41323462575535e-08)
(6.32735473476231e-26 -1.38075429879298e-06 6.02850346104651e-08)
(5.98263367874887e-26 -1.30550835625927e-06 5.69997258093936e-08)
(5.69708503704196e-26 -1.24322658037311e-06 5.42804447481791e-08)
(-3.86290111693989e-25 -1.21492019562389e-06 5.30445612995336e-08)
(-4.16630347055566e-25 -1.25645887988962e-06 5.48581794217544e-08)
(5.75415006355759e-26 -1.25574636709914e-06 5.48270704416526e-08)
(5.75913248102785e-26 -1.25681271512695e-06 5.48736282020156e-08)
(5.76731445070341e-26 -1.25860433759689e-06 5.49518521283892e-08)
(5.77724934423421e-26 -1.26073427500932e-06 5.50448472041523e-08)
(5.78889272936448e-26 -1.26314833419638e-06 5.51502473044967e-08)
(5.80140698154975e-26 -1.26585675915566e-06 5.52684996920164e-08)
(5.81455780700647e-26 -1.26880501116275e-06 5.5397223154578e-08)
(5.82895867193279e-26 -1.27196163177455e-06 5.55350441868942e-08)
(5.8445313998591e-26 -1.27534195351562e-06 5.56826322214438e-08)
(5.86071915509165e-26 -1.27892524643411e-06 5.58390821689828e-08)
(5.87774207290889e-26 -1.28267958387076e-06 5.60030000814642e-08)
(5.89596064289411e-26 -1.28661295234399e-06 5.61747346578129e-08)
(5.91472349737632e-26 -1.2907317415455e-06 5.63545648779928e-08)
(5.93388349963269e-26 -1.2950072279067e-06 5.65412366439155e-08)
(5.95434889948951e-26 -1.29943974224143e-06 5.67347643992258e-08)
(5.97577536770442e-26 -1.3040511778244e-06 5.6936104024941e-08)
(5.99736555552085e-26 -1.30882294839267e-06 5.71444440272951e-08)
(6.01966768492876e-26 -1.31374478126779e-06 5.73593358914619e-08)
(6.04339919493257e-26 -1.31883906729425e-06 5.75817572228235e-08)
(6.06785561570743e-26 -1.32410671374454e-06 5.78117476337525e-08)
(6.09259720148507e-26 -1.32953162914752e-06 5.80486045554463e-08)
(6.11815792926643e-26 -1.33513209425736e-06 5.82931261428689e-08)
(6.144626191246e-26 -1.3409298007272e-06 5.85462594740495e-08)
(6.17224143739635e-26 -1.346904521661e-06 5.88071214236353e-08)
(6.20098293671452e-26 -1.35306386432309e-06 5.90760441319594e-08)
(6.23022877969275e-26 -1.35944392046009e-06 5.93546033987109e-08)
(6.25997761725286e-26 -1.36603438473913e-06 5.96423492833396e-08)
(6.29084192950591e-26 -1.37282903672171e-06 5.99390101956353e-08)
(6.32306811984899e-26 -1.37986524592159e-06 6.02462177238046e-08)
(6.35652762642371e-26 -1.3871561597848e-06 6.05645458977379e-08)
(6.39103384677692e-26 -1.39468249016142e-06 6.08931525786231e-08)
(6.42659970212991e-26 -1.40247660324603e-06 6.12334509050338e-08)
(6.4636174608997e-26 -1.4105833670319e-06 6.15873998558623e-08)
(6.50206210438494e-26 -1.4189767479286e-06 6.19538627800037e-08)
(6.54184885639261e-26 -1.42766899626446e-06 6.23333745383437e-08)
(6.5835113357828e-26 -1.43672483797183e-06 6.27287611261189e-08)
(6.62659573252705e-26 -1.44614000848009e-06 6.31398363481551e-08)
(6.6711995018031e-26 -1.45590712114803e-06 6.35662776967324e-08)
(6.71838292437828e-26 -1.46609275054297e-06 6.40109918802335e-08)
(6.76750513294821e-26 -1.47673153855306e-06 6.44754913961589e-08)
(6.81770367232674e-26 -1.48779130256385e-06 6.49583711212173e-08)
(6.86993784600672e-26 -1.49933299469633e-06 6.54622922824827e-08)
(6.92571736176796e-26 -1.51144996138813e-06 6.59913304734391e-08)
(6.9841505537751e-26 -1.52409904641315e-06 6.65436014525632e-08)
(7.04451978314234e-26 -1.5373064395736e-06 6.71202486913137e-08)
(7.10803619326688e-26 -1.55120284686916e-06 6.77269789368803e-08)
(7.17501773591373e-26 -1.56578720850529e-06 6.83637459176344e-08)
(7.24514833529225e-26 -1.58104329910222e-06 6.9029841218196e-08)
(7.3188124429791e-26 -1.59710282784136e-06 6.97310153856155e-08)
(7.39651755681271e-26 -1.61404441145928e-06 7.04707009007395e-08)
(7.47769143806665e-26 -1.63180022328971e-06 7.12459363873643e-08)
(7.5628819702258e-26 -1.65048985371738e-06 7.20619432744505e-08)
(7.65359218638952e-26 -1.670311256249e-06 7.29273643987527e-08)
(7.74978425765426e-26 -1.69117632960106e-06 7.38383531751616e-08)
(7.85099977372437e-26 -1.71312193264523e-06 7.47965188967692e-08)
(7.95782527682075e-26 -1.73639815016982e-06 7.58127805012393e-08)
(8.07027473033625e-26 -1.76100141367538e-06 7.68869821845218e-08)
(8.1882594313461e-26 -1.78688475640278e-06 7.80170733336278e-08)
(8.31356189531346e-26 -1.81428046876532e-06 7.92131959670305e-08)
(8.44658080810862e-26 -1.84332568596449e-06 8.04813375369324e-08)
(8.58644950813541e-26 -1.87387235037441e-06 8.18150337077834e-08)
(8.73408284381455e-26 -1.90609628665944e-06 8.3221961150216e-08)
(8.89067942187906e-26 -1.94030437081951e-06 8.47155183597426e-08)
(9.05597960479522e-26 -1.97629583254674e-06 8.6286939515414e-08)
(9.22959186737189e-26 -2.0140684366097e-06 8.79361270249179e-08)
(9.41224642533398e-26 -2.05395125416539e-06 8.96774484452528e-08)
(9.60398323944991e-26 -2.09584668711235e-06 9.15066425512828e-08)
(9.80443395281489e-26 -2.13957954178884e-06 9.34160602225448e-08)
(1.0014421894646e-25 -2.18533205165887e-06 9.54136579439078e-08)
(1.02333328157884e-25 -2.23310258962986e-06 9.74993646749744e-08)
(1.04590968296546e-25 -2.28254110353323e-06 9.96578968079975e-08)
(1.06924386124049e-25 -2.33356676454227e-06 1.01885725280189e-07)
(1.09338899085396e-25 -2.38611404598247e-06 1.04179989135154e-07)
(1.11796604355421e-25 -2.43968569449803e-06 1.06518977822514e-07)
(1.14273364269626e-25 -2.49379017961878e-06 1.08881230658472e-07)
(1.16751951969942e-25 -2.54784850556507e-06 1.1124146814135e-07)
(1.19190724740154e-25 -2.60106185522371e-06 1.13564813162774e-07)
(1.2155361086033e-25 -2.6525434919217e-06 1.15812549963488e-07)
(1.23759389095398e-25 -2.7005970217018e-06 1.17910612383776e-07)
(1.25703888737855e-25 -2.74313898007326e-06 1.19768034399454e-07)
(1.27336827275203e-25 -2.778848510804e-06 1.21327146181984e-07)
(1.28481120197702e-25 -2.80376586098487e-06 1.22415061185665e-07)
(1.28841378355487e-25 -2.81164715636366e-06 1.22759165973245e-07)
(1.28279813153279e-25 -2.79946784532117e-06 1.22227405769152e-07)
(1.26513361616204e-25 -2.76089331427178e-06 1.20543205371277e-07)
(1.23346601694318e-25 -2.69165958078e-06 1.1752039528594e-07)
(1.19154515524436e-25 -2.60006174268845e-06 1.13521147306469e-07)
(1.14356791795848e-25 -2.49540850502713e-06 1.08951888271734e-07)
(1.09192677225414e-25 -2.38285512866586e-06 1.0403770173225e-07)
(1.03898240799207e-25 -2.26736869039074e-06 9.89954549439969e-08)
(9.86472140480749e-26 -2.1527049377138e-06 9.39891273846778e-08)
(9.35715727347052e-26 -2.04187185216559e-06 8.91500503641689e-08)
(8.88038593620889e-26 -1.93785480497967e-06 8.46085680054584e-08)
(8.43832960307791e-26 -1.84143093845622e-06 8.03986110741477e-08)
(8.03614408162828e-26 -1.75372310072446e-06 7.65692041783008e-08)
(7.68458823968079e-26 -1.67701280733127e-06 7.32199604379553e-08)
(7.38236424261738e-26 -1.61096691121575e-06 7.03363343383054e-08)
(7.12405114681528e-26 -1.55456781140797e-06 6.78738964614991e-08)
(6.9099803817963e-26 -1.50790035046277e-06 6.58363511134789e-08)
(-4.7214475651006e-25 -1.48651487790294e-06 6.49026412167749e-08)
(-5.26085183600863e-25 -1.61573641119919e-06 7.05445752045727e-08)
(7.39813307793266e-26 -1.61451944967927e-06 7.04914415173419e-08)
(7.40086974215602e-26 -1.61508898052862e-06 7.05163077712398e-08)
(7.40570200410794e-26 -1.61615189431214e-06 7.0562715589259e-08)
(7.41182098874918e-26 -1.61743869876328e-06 7.0618898684935e-08)
(7.41934003041643e-26 -1.61891240413958e-06 7.06832420512335e-08)
(7.42712539911088e-26 -1.62057973880756e-06 7.07560394549821e-08)
(7.43501861815468e-26 -1.62240521255068e-06 7.08357413598615e-08)
(7.44392479257354e-26 -1.624367989507e-06 7.09214380524937e-08)
(7.45370566092432e-26 -1.62647811194553e-06 7.10135679878129e-08)
(7.46368554504063e-26 -1.62872221509014e-06 7.11115476470908e-08)
(7.47424414500616e-26 -1.63107932497831e-06 7.12144612873475e-08)
(7.4858428723774e-26 -1.63355457906235e-06 7.1322533214595e-08)
(7.49760669276199e-26 -1.63615233724406e-06 7.14359537862573e-08)
(7.50941381412295e-26 -1.63885385482826e-06 7.15539045912677e-08)
(7.5224655043719e-26 -1.64165921447031e-06 7.16763892384373e-08)
(7.53625611812824e-26 -1.644582892664e-06 7.18040397851352e-08)
(7.54978136515998e-26 -1.6476128700377e-06 7.1936331454263e-08)
(7.56378355296769e-26 -1.65074231758069e-06 7.20729660847732e-08)
(7.57915316059699e-26 -1.65398595383058e-06 7.22145863018959e-08)
(7.59496697906667e-26 -1.65734456469468e-06 7.23612264190856e-08)
(7.61068405400108e-26 -1.66080760476826e-06 7.25124260140287e-08)
(7.62695082539912e-26 -1.66438702101778e-06 7.2668706702545e-08)
(7.64381863585111e-26 -1.66809725198414e-06 7.28306988849454e-08)
(7.66166621017441e-26 -1.671925143057e-06 7.29978282185381e-08)
(7.6804525515203e-26 -1.6758755849831e-06 7.31703082379372e-08)
(7.69924668494236e-26 -1.67997244320241e-06 7.33491809307553e-08)
(7.71806777471398e-26 -1.68420917037203e-06 7.35341604338276e-08)
(7.73774277322902e-26 -1.68858161689878e-06 7.37250655720033e-08)
(7.75848968742373e-26 -1.69311439929026e-06 7.39229711252148e-08)
(7.78010145937301e-26 -1.69781643639924e-06 7.41282664989845e-08)
(7.80239051582803e-26 -1.70267510490747e-06 7.43404005473345e-08)
(7.82527294460356e-26 -1.70771162454802e-06 7.45602997438186e-08)
(7.84913035936197e-26 -1.71295581845074e-06 7.4789266194407e-08)
(7.87401221879293e-26 -1.7183907782955e-06 7.50265616658998e-08)
(7.89976727780184e-26 -1.72402442920913e-06 7.52725321768073e-08)
(7.92690781523547e-26 -1.72989961645941e-06 7.55290483919194e-08)
(7.95484899520107e-26 -1.7360138963451e-06 7.57960036169359e-08)
(7.98373341413627e-26 -1.74236235277033e-06 7.60731832104756e-08)
(8.01476787187535e-26 -1.7489889216431e-06 7.636250545571e-08)