/*--------------------------------*- C++ -*----------------------------------*\
| =========                 |                                                 |
| \\      /  F ield         | foam-extend: Open Source CFD                    |
|  \\    /   O peration     | Version:     4.1-20200408                       |
|   \\  /    A nd           | Web:         http://www.foam-extend.org         |
|    \\/     M anipulation  |                                                 |
\*---------------------------------------------------------------------------*/
FoamFile
{
    version     2.0;
    format      ascii;
    class       volScalarField;
    location    "0.0045000";
    object      J;
}
// * * * * * * * * * * * * * * * * * * * * * * * * * * * * * * * * * * * * * //

dimensions      [0 0 0 0 0 0 0];

internalField   nonuniform List<scalar> 
1952
(
1.0007
1.0007
1.00069
1.00069
1.00069
1.00069
1.00069
1.00069
1.00069
1.0007
1.0007
1.00071
1.00072
1.00073
1.00073
1.00074
1.00076
1.00077
1.00078
1.0008
1.00081
1.00083
1.00085
1.00087
1.00089
1.00092
1.00095
1.00098
1.00101
1.00105
1.00109
1.00113
1.00118
1.0007
1.0007
1.00069
1.00069
1.00068
1.00069
1.00069
1.00069
1.00069
1.0007
1.0007
1.00071
1.00072
1.00072
1.00073
1.00074
1.00075
1.00077
1.00078
1.00079
1.00081
1.00083
1.00085
1.00087
1.00089
1.00092
1.00095
1.00098
1.00101
1.00105
1.00109
1.00113
1.00118
1.0007
1.00069
1.00069
1.00069
1.00068
1.00068
1.00068
1.00069
1.00069
1.00069
1.0007
1.00071
1.00071
1.00072
1.00073
1.00074
1.00075
1.00077
1.00078
1.00079
1.00081
1.00083
1.00084
1.00087
1.00089
1.00091
1.00094
1.00097
1.00101
1.00104
1.00109
1.00113
1.00118
1.0007
1.00069
1.00069
1.00068
1.00068
1.00068
1.00068
1.00068
1.00069
1.00069
1.0007
1.00071
1.00071
1.00072
1.00073
1.00074
1.00075
1.00076
1.00078
1.00079
1.00081
1.00082
1.00084
1.00086
1.00088
1.00091
1.00094
1.00097
1.001
1.00104
1.00108
1.00112
1.00117
1.0007
1.00069
1.00068
1.00068
1.00068
1.00068
1.00068
1.00068
1.00068
1.00069
1.0007
1.0007
1.00071
1.00072
1.00073
1.00074
1.00075
1.00076
1.00077
1.00079
1.0008
1.00082
1.00084
1.00086
1.00088
1.0009
1.00093
1.00096
1.00099
1.00103
1.00107
1.00112
1.00117
1.0007
1.00069
1.00068
1.00068
1.00067
1.00067
1.00067
1.00068
1.00068
1.00069
1.00069
1.0007
1.00071
1.00072
1.00073
1.00074
1.00075
1.00076
1.00077
1.00078
1.0008
1.00081
1.00083
1.00085
1.00087
1.0009
1.00092
1.00095
1.00099
1.00102
1.00107
1.00111
1.00116
1.00069
1.00068
1.00068
1.00067
1.00067
1.00067
1.00067
1.00067
1.00068
1.00068
1.00069
1.0007
1.00071
1.00071
1.00072
1.00073
1.00074
1.00076
1.00077
1.00078
1.00079
1.00081
1.00083
1.00084
1.00086
1.00089
1.00091
1.00094
1.00098
1.00101
1.00106
1.0011
1.00115
1.00069
1.00068
1.00067
1.00067
1.00066
1.00066
1.00066
1.00067
1.00067
1.00068
1.00069
1.0007
1.0007
1.00071
1.00072
1.00073
1.00074
1.00075
1.00076
1.00078
1.00079
1.0008
1.00082
1.00084
1.00086
1.00088
1.0009
1.00093
1.00096
1.001
1.00104
1.00109
1.00114
1.00068
1.00067
1.00066
1.00066
1.00065
1.00066
1.00066
1.00066
1.00067
1.00068
1.00068
1.00069
1.0007
1.00071
1.00072
1.00073
1.00074
1.00075
1.00076
1.00077
1.00078
1.0008
1.00081
1.00083
1.00085
1.00087
1.00089
1.00092
1.00095
1.00099
1.00103
1.00108
1.00113
1.00067
1.00066
1.00065
1.00065
1.00065
1.00065
1.00065
1.00066
1.00066
1.00067
1.00068
1.00069
1.0007
1.00071
1.00072
1.00073
1.00074
1.00075
1.00076
1.00077
1.00078
1.00079
1.0008
1.00082
1.00083
1.00085
1.00088
1.0009
1.00093
1.00097
1.00101
1.00106
1.00112
1.00066
1.00065
1.00064
1.00064
1.00063
1.00064
1.00064
1.00065
1.00066
1.00067
1.00068
1.00069
1.00069
1.0007
1.00071
1.00072
1.00073
1.00074
1.00075
1.00076
1.00077
1.00078
1.00079
1.00081
1.00082
1.00084
1.00086
1.00088
1.00091
1.00094
1.00099
1.00104
1.0011
1.00064
1.00063
1.00062
1.00062
1.00062
1.00063
1.00064
1.00065
1.00065
1.00066
1.00067
1.00068
1.00069
1.0007
1.00071
1.00072
1.00073
1.00074
1.00075
1.00076
1.00077
1.00078
1.00079
1.0008
1.00081
1.00082
1.00084
1.00086
1.00089
1.00092
1.00096
1.00101
1.00109
1.00061
1.00061
1.0006
1.0006
1.00061
1.00062
1.00063
1.00064
1.00065
1.00066
1.00067
1.00068
1.00069
1.0007
1.00071
1.00072
1.00073
1.00074
1.00074
1.00075
1.00076
1.00077
1.00078
1.00079
1.0008
1.00081
1.00082
1.00084
1.00086
1.00089
1.00092
1.00098
1.00106
1.00058
1.00058
1.00058
1.00059
1.0006
1.00061
1.00062
1.00063
1.00064
1.00066
1.00067
1.00068
1.00069
1.0007
1.00071
1.00072
1.00073
1.00073
1.00074
1.00075
1.00076
1.00076
1.00077
1.00078
1.00078
1.00079
1.0008
1.00081
1.00083
1.00085
1.00088
1.00093
1.00102
1.00052
1.00053
1.00055
1.00056
1.00058
1.00059
1.00061
1.00062
1.00064
1.00065
1.00066
1.00068
1.00069
1.0007
1.00071
1.00072
1.00072
1.00073
1.00074
1.00074
1.00075
1.00076
1.00076
1.00076
1.00077
1.00077
1.00078
1.00078
1.00079
1.0008
1.00082
1.00085
1.00096
1.0007
1.0007
1.00069
1.00069
1.00069
1.00069
1.00069
1.00069
1.00069
1.0007
1.0007
1.00071
1.00072
1.00073
1.00073
1.00075
1.00076
1.00077
1.00078
1.0008
1.00081
1.00083
1.00085
1.00087
1.00089
1.00092
1.00095
1.00098
1.00101
1.00105
1.00109
1.00113
1.00118
1.00069
1.00069
1.00069
1.00069
1.00069
1.00069
1.00068
1.00068
1.00067
1.00067
1.00065
1.00063
1.0006
1.00057
1.00051
1.00069
1.00067
1.00067
1.00067
1.00067
1.00067
1.00067
1.00067
1.00067
1.00066
1.00066
1.00064
1.00062
1.0006
1.00056
1.0005
1.00067
1.00065
1.00065
1.00066
1.00066
1.00066
1.00066
1.00066
1.00066
1.00065
1.00065
1.00063
1.00062
1.00059
1.00055
1.0005
1.00065
1.00063
1.00063
1.00063
1.00064
1.00064
1.00064
1.00064
1.00064
1.00064
1.00064
1.00063
1.00061
1.00059
1.00055
1.0005
1.00063
1.00061
1.00061
1.00061
1.00061
1.00062
1.00062
1.00063
1.00063
1.00063
1.00062
1.00062
1.0006
1.00058
1.00055
1.00051
1.0006
1.00057
1.00058
1.00058
1.00059
1.00059
1.0006
1.0006
1.00061
1.00061
1.00061
1.00061
1.0006
1.00058
1.00056
1.00052
1.00057
1.00054
1.00054
1.00055
1.00055
1.00056
1.00057
1.00058
1.00058
1.00059
1.00059
1.00059
1.00059
1.00058
1.00056
1.00053
1.00054
1.00049
1.0005
1.0005
1.00051
1.00052
1.00053
1.00054
1.00055
1.00056
1.00057
1.00058
1.00058
1.00058
1.00057
1.00055
1.00049
1.00044
1.00045
1.00045
1.00046
1.00048
1.00049
1.0005
1.00052
1.00053
1.00055
1.00056
1.00057
1.00058
1.00058
1.00057
1.00044
1.00038
1.00039
1.00039
1.0004
1.00042
1.00044
1.00046
1.00047
1.0005
1.00052
1.00054
1.00056
1.00058
1.00059
1.00059
1.00038
1.00031
1.00031
1.00033
1.00034
1.00035
1.00037
1.0004
1.00042
1.00045
1.00048
1.00051
1.00054
1.00057
1.0006
1.00061
1.00031
1.00022
1.00023
1.00024
1.00026
1.00028
1.0003
1.00033
1.00036
1.00039
1.00043
1.00047
1.00051
1.00056
1.0006
1.00064
1.00022
1.00013
1.00014
1.00015
1.00016
1.00019
1.00021
1.00024
1.00028
1.00032
1.00036
1.00042
1.00048
1.00054
1.0006
1.00066
1.00013
1.00002
1.00003
1.00004
1.00006
1.00008
1.00011
1.00014
1.00018
1.00023
1.00028
1.00035
1.00042
1.00051
1.0006
1.00069
1.00002
0.999895
0.999901
0.999915
0.999931
0.999956
0.999984
1.00002
1.00006
1.00012
1.00018
1.00026
1.00035
1.00046
1.00057
1.0007
0.999892
0.999756
0.999762
0.999775
0.999791
0.999815
0.999843
0.999882
0.999926
0.999987
1.00005
1.00015
1.00025
1.00038
1.00053
1.00071
0.999753
0.999604
0.999608
0.99962
0.999634
0.999656
0.999682
0.999719
0.999762
0.999824
0.999893
0.999993
1.0001
1.00026
1.00044
1.00069
0.999601
0.999438
0.999441
0.99945
0.999461
0.999479
0.999501
0.999533
0.999572
0.999629
0.999695
0.999794
0.999906
1.00007
1.00026
1.00056
0.999436
0.999261
0.999261
0.999267
0.999273
0.999285
0.999301
0.999325
0.999355
0.999402
0.999458
0.999545
0.999645
0.999802
0.999973
1.00024
0.99926
0.999075
0.999072
0.999074
0.999074
0.999079
0.999085
0.999097
0.999115
0.999145
0.999184
0.99925
0.999328
0.999458
0.999598
0.999829
0.999075
0.998888
0.998883
0.99888
0.998873
0.998869
0.998864
0.998863
0.998865
0.998875
0.998894
0.998932
0.998981
0.999075
0.999176
0.999364
0.99889
0.998701
0.998692
0.998684
0.99867
0.998655
0.998639
0.998622
0.998606
0.998593
0.998586
0.998591
0.998603
0.998651
0.998703
0.998833
0.998704
0.998497
0.998484
0.998469
0.998447
0.99842
0.998389
0.998353
0.998315
0.998273
0.998232
0.998194
0.998159
0.998144
0.998131
0.998179
0.998501
0.998298
0.998281
0.998259
0.998228
0.998189
0.998143
0.998086
0.998024
0.997951
0.997873
0.997785
0.997695
0.997605
0.997511
0.997456
0.998304
0.998109
0.998088
0.99806
0.998019
0.997968
0.997906
0.99783
0.997743
0.997638
0.997522
0.997382
0.99723
0.997056
0.996866
0.996679
0.998116
0.997935
0.997911
0.997877
0.997828
0.997767
0.997691
0.997596
0.997487
0.997351
0.997199
0.997007
0.996794
0.996529
0.996227
0.995872
0.997943
0.997781
0.997754
0.997716
0.99766
0.99759
0.997502
0.997393
0.997265
0.997105
0.996922
0.996687
0.996421
0.996073
0.995667
0.995139
0.997791
0.997652
0.997622
0.99758
0.99752
0.997443
0.997348
0.997229
0.997088
0.996911
0.996707
0.996443
0.99614
0.995728
0.995237
0.994526
0.997661
0.997548
0.997517
0.997474
0.997411
0.997331
0.997232
0.997108
0.996963
0.99678
0.996571
0.996303
0.995999
0.995591
0.995125
0.994461
0.997558
0.997473
0.997441
0.997397
0.997334
0.997255
0.997155
0.997032
0.996889
0.99671
0.996508
0.996252
0.99597
0.9956
0.995203
0.994662
0.997483
0.997425
0.997394
0.997352
0.99729
0.997213
0.997117
0.997001
0.996864
0.996698
0.996512
0.996281
0.996033
0.995719
0.9954
0.994983
0.997435
0.997405
0.997375
0.997335
0.997277
0.997205
0.997115
0.997008
0.996883
0.996734
0.996569
0.99637
0.996162
0.995906
0.995661
0.995354
0.997414
0.997411
0.997382
0.997346
0.997292
0.997227
0.997146
0.99705
0.996939
0.996809
0.996668
0.996502
0.996334
0.996134
0.995953
0.995735
0.997419
0.997439
0.997413
0.997381
0.997332
0.997274
0.997203
0.997119
0.997024
0.996915
0.996798
0.996664
0.996532
0.996382
0.996253
0.996105
0.997447
0.997488
0.997464
0.997436
0.997393
0.997344
0.997282
0.997211
0.997131
0.997042
0.996947
0.996843
0.996743
0.996634
0.996547
0.996453
0.997495
0.997554
0.997533
0.997509
0.997472
0.99743
0.997378
0.99732
0.997254
0.997183
0.997109
0.99703
0.996958
0.996883
0.996828
0.996775
0.997559
0.997633
0.997615
0.997595
0.997564
0.99753
0.997487
0.99744
0.997388
0.997333
0.997277
0.99722
0.99717
0.997122
0.997092
0.997069
0.997638
0.997724
0.997708
0.997692
0.997666
0.997639
0.997604
0.997568
0.997527
0.997486
0.997446
0.997407
0.997374
0.997347
0.997336
0.997335
0.997727
0.997822
0.997809
0.997796
0.997776
0.997754
0.997727
0.9977
0.997669
0.99764
0.997612
0.997587
0.997569
0.997558
0.997561
0.997575
0.997825
0.997926
0.997915
0.997905
0.997889
0.997873
0.997852
0.997832
0.997811
0.997791
0.997773
0.99776
0.997753
0.997754
0.997766
0.997791
0.997928
0.998033
0.998024
0.998017
0.998004
0.997993
0.997977
0.997964
0.997949
0.997938
0.997928
0.997923
0.997924
0.997934
0.997953
0.997985
0.998034
0.998141
0.998134
0.998129
0.99812
0.998112
0.998101
0.998093
0.998083
0.998078
0.998074
0.998076
0.998083
0.998099
0.998122
0.998158
0.998142
0.998249
0.998243
0.99824
0.998233
0.998228
0.998222
0.998217
0.998212
0.998212
0.998213
0.99822
0.99823
0.99825
0.998275
0.998313
0.99825
0.998355
0.998351
0.998349
0.998345
0.998342
0.998338
0.998337
0.998335
0.998338
0.998342
0.998353
0.998366
0.998388
0.998414
0.998452
0.998355
0.998458
0.998456
0.998455
0.998452
0.998451
0.99845
0.99845
0.998452
0.998457
0.998464
0.998476
0.998491
0.998514
0.99854
0.998577
0.998459
0.998559
0.998557
0.998557
0.998555
0.998556
0.998556
0.998558
0.998562
0.998568
0.998577
0.99859
0.998606
0.998628
0.998654
0.99869
0.998559
0.998655
0.998654
0.998654
0.998654
0.998655
0.998657
0.99866
0.998665
0.998672
0.998681
0.998695
0.998711
0.998733
0.998758
0.998791
0.998655
0.998747
0.998746
0.998747
0.998748
0.99875
0.998752
0.998756
0.998761
0.998769
0.998779
0.998793
0.998808
0.998829
0.998852
0.998883
0.998747
0.998834
0.998834
0.998835
0.998836
0.998839
0.998841
0.998846
0.998852
0.99886
0.998869
0.998882
0.998897
0.998917
0.998938
0.998966
0.998834
0.998917
0.998917
0.998919
0.99892
0.998922
0.998925
0.99893
0.998936
0.998944
0.998953
0.998965
0.998979
0.998997
0.999016
0.999043
0.998917
0.998995
0.998996
0.998997
0.998999
0.999001
0.999004
0.999009
0.999014
0.999022
0.999031
0.999042
0.999054
0.999071
0.999088
0.999112
0.998995
0.999069
0.99907
0.999071
0.999072
0.999075
0.999078
0.999083
0.999088
0.999095
0.999103
0.999113
0.999124
0.999139
0.999155
0.999176
0.999069
0.999138
0.999139
0.99914
0.999142
0.999144
0.999147
0.999151
0.999156
0.999162
0.99917
0.999179
0.999189
0.999202
0.999216
0.999235
0.999138
0.999204
0.999204
0.999205
0.999207
0.999209
0.999212
0.999215
0.99922
0.999225
0.999232
0.99924
0.999249
0.99926
0.999272
0.99929
0.999203
0.999265
0.999265
0.999266
0.999268
0.99927
0.999272
0.999275
0.999279
0.999284
0.99929
0.999297
0.999304
0.999314
0.999325
0.999341
0.999264
0.999322
0.999322
0.999323
0.999325
0.999326
0.999328
0.999331
0.999335
0.999339
0.999344
0.99935
0.999356
0.999365
0.999374
0.999388
0.999322
0.999376
0.999376
0.999377
0.999378
0.999379
0.999381
0.999384
0.999386
0.99939
0.999394
0.999399
0.999405
0.999412
0.99942
0.999432
0.999376
0.999426
0.999426
0.999427
0.999428
0.999429
0.999431
0.999433
0.999435
0.999438
0.999441
0.999446
0.99945
0.999456
0.999463
0.999474
0.999426
0.999473
0.999474
0.999474
0.999475
0.999476
0.999477
0.999479
0.99948
0.999483
0.999486
0.999489
0.999493
0.999498
0.999504
0.999514
0.999473
0.999518
0.999518
0.999518
0.999519
0.99952
0.99952
0.999522
0.999523
0.999525
0.999527
0.99953
0.999533
0.999537
0.999542
0.999551
0.999518
0.999559
0.99956
0.99956
0.99956
0.999561
0.999561
0.999562
0.999563
0.999565
0.999566
0.999568
0.999571
0.999574
0.999579
0.999586
0.999559
0.999599
0.999599
0.999599
0.999599
0.999599
0.9996
0.9996
0.999601
0.999602
0.999603
0.999605
0.999607
0.999609
0.999613
0.99962
0.999598
0.999635
0.999635
0.999635
0.999636
0.999636
0.999636
0.999636
0.999637
0.999637
0.999638
0.999639
0.999641
0.999643
0.999646
0.999652
0.999635
0.99967
0.99967
0.99967
0.99967
0.99967
0.99967
0.99967
0.99967
0.999671
0.999671
0.999672
0.999673
0.999674
0.999677
0.999682
0.99967
0.999703
0.999703
0.999703
0.999703
0.999702
0.999702
0.999702
0.999702
0.999702
0.999702
0.999703
0.999703
0.999704
0.999706
0.999711
0.999703
0.999734
0.999734
0.999733
0.999733
0.999733
0.999733
0.999733
0.999732
0.999732
0.999732
0.999732
0.999732
0.999733
0.999735
0.999739
0.999734
0.999763
0.999763
0.999762
0.999762
0.999762
0.999762
0.999761
0.999761
0.999761
0.99976
0.99976
0.99976
0.99976
0.999762
0.999766
0.999763
0.99979
0.99979
0.99979
0.99979
0.999789
0.999789
0.999788
0.999788
0.999788
0.999787
0.999787
0.999786
0.999787
0.999788
0.999792
0.99979
0.999816
0.999816
0.999816
0.999816
0.999815
0.999815
0.999814
0.999814
0.999813
0.999813
0.999812
0.999812
0.999812
0.999813
0.999817
0.999816
0.999841
0.999841
0.999841
0.99984
0.99984
0.99984
0.999839
0.999838
0.999838
0.999837
0.999836
0.999836
0.999836
0.999837
0.999841
0.999841
0.999864
0.999864
0.999864
0.999864
0.999863
0.999863
0.999862
0.999862
0.999861
0.99986
0.99986
0.999859
0.999859
0.99986
0.999864
0.999864
0.999886
0.999886
0.999886
0.999886
0.999885
0.999885
0.999884
0.999884
0.999883
0.999883
0.999882
0.999882
0.999881
0.999882
0.999886
0.999886
0.999907
0.999907
0.999907
0.999907
0.999906
0.999906
0.999906
0.999905
0.999904
0.999904
0.999903
0.999903
0.999903
0.999904
0.999908
0.999907
0.999927
0.999927
0.999927
0.999926
0.999926
0.999926
0.999926
0.999925
0.999925
0.999924
0.999924
0.999924
0.999923
0.999925
0.999929
0.999927
0.999945
0.999945
0.999945
0.999945
0.999945
0.999945
0.999944
0.999944
0.999944
0.999944
0.999943
0.999943
0.999943
0.999945
0.999949
0.999945
0.999962
0.999962
0.999962
0.999962
0.999962
0.999962
0.999962
0.999962
0.999962
0.999962
0.999962
0.999962
0.999962
0.999964
0.999969
0.999962
0.999979
0.999979
0.999979
0.999979
0.999979
0.999979
0.999979
0.999979
0.999979
0.99998
0.99998
0.99998
0.999981
0.999983
0.999988
0.999978
0.999993
0.999994
0.999994
0.999994
0.999994
0.999995
0.999995
0.999995
0.999996
0.999996
0.999997
0.999998
0.999998
1
1.00001
0.999993
1.00001
1.00001
1.00001
1.00001
1.00001
1.00001
1.00001
1.00001
1.00001
1.00001
1.00001
1.00001
1.00002
1.00002
1.00002
1.00001
1.00002
1.00002
1.00002
1.00002
1.00002
1.00002
1.00002
1.00002
1.00003
1.00003
1.00003
1.00003
1.00003
1.00004
1.00004
1.00002
1.00003
1.00003
1.00003
1.00003
1.00003
1.00003
1.00004
1.00004
1.00004
1.00004
1.00004
1.00004
1.00005
1.00005
1.00006
1.00003
1.00004
1.00004
1.00004
1.00004
1.00004
1.00004
1.00005
1.00005
1.00005
1.00005
1.00005
1.00006
1.00006
1.00007
1.00008
1.00004
1.00005
1.00005
1.00005
1.00005
1.00005
1.00005
1.00006
1.00006
1.00006
1.00006
1.00007
1.00007
1.00007
1.00008
1.00009
1.00005
1.00006
1.00006
1.00006
1.00006
1.00006
1.00006
1.00006
1.00007
1.00007
1.00007
1.00008
1.00008
1.00009
1.00009
1.00011
1.00006
1.00006
1.00006
1.00006
1.00007
1.00007
1.00007
1.00007
1.00007
1.00008
1.00008
1.00008
1.00009
1.0001
1.00011
1.00012
1.00006
1.00007
1.00007
1.00007
1.00007
1.00007
1.00007
1.00008
1.00008
1.00008
1.00009
1.00009
1.0001
1.0001
1.00011
1.00013
1.00007
1.00007
1.00007
1.00007
1.00007
1.00007
1.00008
1.00008
1.00008
1.00008
1.00009
1.00009
1.0001
1.00011
1.00012
1.00014
1.00007
1.00007
1.00007
1.00007
1.00008
1.00008
1.00008
1.00008
1.00008
1.00009
1.00009
1.00009
1.0001
1.00011
1.00011
1.00013
1.00007
1.00007
1.00007
1.00007
1.00008
1.00008
1.00008
1.00008
1.00008
1.00009
1.00009
1.00009
1.0001
1.0001
1.00011
1.00012
1.00007
)
;

boundaryField
{
    wireUpstream
    {
        type            calculated;
        value           nonuniform List<scalar> 
16
(
1.00007
1.00007
1.00007
1.00008
1.00008
1.00008
1.00008
1.00008
1.00009
1.00009
1.00009
1.0001
1.0001
1.0001
1.00011
1.00007
)
;
    }
    wireDownstream
    {
        type            calculated;
        value           nonuniform List<scalar> 
16
(
1.00118
1.00118
1.00117
1.00117
1.00116
1.00116
1.00115
1.00114
1.00113
1.00112
1.0011
1.00108
1.00105
1.00103
1.00103
1.00118
)
;
    }
    wireTopContact
    {
        type            calculated;
        value           nonuniform List<scalar> 
122
(
1.00053
1.00055
1.00056
1.00058
1.00059
1.00061
1.00062
1.00064
1.00065
1.00066
1.00067
1.00069
1.0007
1.00071
1.00071
1.00072
1.00073
1.00074
1.00074
1.00075
1.00075
1.00076
1.00076
1.00077
1.00077
1.00078
1.00078
1.00079
1.0008
1.00082
1.00085
1.00052
1.00051
1.0005
1.0005
1.0005
1.00051
1.00052
1.00053
1.00055
1.00057
1.00059
1.00061
1.00064
1.00067
1.00069
1.0007
1.00071
1.00068
1.00055
1.00023
0.999817
0.999351
0.998821
0.998167
0.997446
0.996673
0.99587
0.995146
0.994487
0.99445
0.994668
0.994991
0.995361
0.995739
0.996107
0.996453
0.996775
0.997067
0.997334
0.997574
0.997789
0.997983
0.998156
0.998312
0.998451
0.998577
0.998689
0.998791
0.998883
0.998967
0.999043
0.999112
0.999177
0.999236
0.99929
0.999341
0.999388
0.999433
0.999475
0.999514
0.999551
0.999587
0.99962
0.999652
0.999683
0.999712
0.99974
0.999767
0.999793
0.999817
0.999841
0.999864
0.999887
0.999908
0.999929
0.999949
0.999969
0.999988
1.00001
1.00002
1.00004
1.00006
1.00008
1.00009
1.00011
1.00012
1.00013
1.00014
1.00013
1.00012
1.00092
)
;
    }
    front
    {
        type            wedge;
    }
    back
    {
        type            wedge;
    }
}


// ************************************************************************* //
