/*--------------------------------*- C++ -*----------------------------------*\
| =========                 |                                                 |
| \\      /  F ield         | OpenFOAM: The Open Source CFD Toolbox           |
|  \\    /   O peration     | Version:  4.1                                   |
|   \\  /    A nd           | Web:      www.OpenFOAM.org                      |
|    \\/     M anipulation  |                                                 |
\*---------------------------------------------------------------------------*/
FoamFile
{
    version     2.0;
    format      ascii;
    class       volScalarField;
    location    "0.000430";
    object      p;
}
// * * * * * * * * * * * * * * * * * * * * * * * * * * * * * * * * * * * * * //

dimensions      [0 2 -2 0 0 0 0];

internalField   nonuniform List<scalar> 
3072
(
1159.4629
1197.7213
1232.1345
1262.6681
1289.4378
1312.2039
1330.9718
1345.4531
1355.7074
1361.9457
1364.3418
1363.1161
1358.6543
1351.3928
1341.7609
1330.2259
1317.3155
1303.6051
1289.7821
1276.7763
1265.3852
1253.9437
1238.2258
1238.0163
1159.8103
1198.1598
1232.6794
1263.3289
1290.1243
1312.9866
1331.7519
1346.2059
1356.4254
1362.5961
1364.9025
1363.5805
1359.0156
1351.6511
1341.9152
1330.2676
1317.2291
1303.3607
1289.3064
1275.9251
1263.9322
1251.9054
1237.7376
1241.163
1160.1909
1198.621
1233.233
1263.9715
1290.796
1313.6946
1332.4464
1346.8348
1357.0153
1363.1356
1365.3849
1364.0049
1359.3726
1351.9224
1342.0838
1330.3231
1317.1579
1303.1351
1288.8741
1275.197
1262.7695
1250.3564
1237.8811
1243.6792
1160.5189
1199.041
1233.7206
1264.5055
1291.377
1314.2765
1332.9613
1347.3005
1357.4478
1363.5353
1365.7513
1364.3354
1359.6598
1352.1313
1342.1894
1330.3214
1317.0495
1302.9016
1288.4851
1274.5953
1261.8504
1249.2022
1238.0836
1245.4639
1160.7514
1199.3343
1234.0805
1264.9284
1291.8496
1314.7105
1333.3091
1347.6159
1357.7393
1363.8046
1365.9879
1364.586
1359.8897
1352.297
1342.2635
1330.3053
1316.9509
1302.7082
1288.1793
1274.146
1261.1631
1248.4063
1238.3315
1246.8157
1160.8768
1199.5079
1234.313
1265.2243
1292.1555
1314.9482
1333.4868
1347.7729
1357.8843
1363.9486
1366.1498
1364.7567
1360.0517
1352.4305
1342.3295
1330.2961
1316.8881
1302.5823
1287.9723
1273.861
1260.756
1247.9681
1238.6811
1247.895
1160.8896
1199.5636
1234.4149
1265.3463
1292.2486
1314.9952
1333.507
1347.786
1357.9028
1363.9885
1366.2348
1364.866
1360.1798
1352.5693
1342.4205
1330.2943
1316.8749
1302.5396
1287.8822
1273.7575
1260.6406
1247.8781
1239.1434
1248.792
1160.8081
1199.5016
1234.3612
1265.2873
1292.1704
1314.8918
1333.3852
1347.6571
1357.7808
1363.8874
1366.1635
1364.8095
1360.1188
1352.438
1342.128
1330.125
1316.8283
1302.4846
1287.8387
1273.7938
1260.776
1248.0693
1239.6367
1249.5298
1159.7961
1198.1459
1232.665
1263.3159
1290.1212
1312.9943
1331.7678
1346.2214
1356.4378
1362.6098
1364.9177
1363.5926
1359.0236
1351.6551
1341.9092
1330.2423
1317.1836
1303.3067
1289.2535
1275.8793
1263.9121
1251.9211
1237.763
1241.1754
1160.2756
1198.7377
1233.373
1264.1272
1290.9434
1313.7613
1332.4917
1346.8921
1357.0528
1363.1486
1365.3668
1363.9546
1359.3027
1351.8532
1342.0165
1330.2503
1317.0823
1303.0715
1288.8258
1275.1341
1262.6689
1250.2223
1237.5999
1243.6133
1160.7071
1199.2584
1233.9683
1264.7435
1291.5818
1314.4143
1333.0647
1347.3962
1357.5103
1363.5564
1365.7296
1364.2782
1359.5901
1352.0801
1342.1571
1330.2945
1317.0212
1302.8841
1288.4714
1274.5298
1261.6775
1248.9909
1237.7091
1245.3396
1161.0136
1199.6217
1234.3761
1265.1987
1292.0546
1314.8641
1333.4488
1347.7321
1357.8182
1363.8401
1366.0024
1364.5408
1359.8442
1352.2829
1342.2776
1330.3291
1316.9708
1302.737
1288.2001
1274.0711
1260.9049
1248.0666
1237.8553
1246.5326
1161.1795
1199.8253
1234.6207
1265.488
1292.3655
1315.1404
1333.6687
1347.927
1358.0015
1364.0184
1366.1637
1364.7513
1360.0683
1352.4656
1342.3925
1330.3784
1316.956
1302.6531
1288.029
1273.7721
1260.4139
1247.489
1238.0342
1247.3833
1161.2112
1199.8756
1234.7006
1265.6048
1292.4945
1315.2407
1333.7392
1347.9879
1358.063
1364.0979
1366.2892
1364.9071
1360.2254
1352.6224
1342.5093
1330.4554
1316.9786
1302.6306
1287.95
1273.6332
1260.2022
1247.2595
1238.3049
1247.9998
1161.1179
1199.7949
1234.6402
1265.5651
1292.4568
1315.1916
1333.6839
1347.9345
1358.0241
1364.0952
1366.3449
1365.0092
1360.3635
1352.7696
1342.6466
1330.5978
1317.0403
1302.6638
1287.9387
1273.6318
1260.2553
1247.3617
1238.6509
1248.4381
1160.8879
1199.587
1234.4596
1265.4
1292.2976
1315.0321
1333.5254
1347.7856
1357.9007
1364.0138
1366.314
1365.0165
1360.4006
1352.8146
1342.6651
1330.4912
1317.0157
1302.6588
1287.9508
1273.7532
1260.5634
1247.7464
1238.9802
1248.7031
1160.1585
1198.5934
1233.2125
1263.9583
1290.803
1313.7214
1332.4808
1346.8702
1357.051
1363.1737
1365.4271
1364.0465
1359.4119
1351.9546
1342.0901
1330.281
1317.0665
1303.0208
1288.7597
1275.0979
1262.7199
1250.3662
1237.9049
1243.6914
1160.6869
1199.2498
1233.9659
1264.7447
1291.5873
1314.4314
1333.0813
1347.4176
1357.5342
1363.5809
1365.7555
1364.3072
1359.6226
1352.1106
1342.1702
1330.276
1316.9716
1302.8184
1288.4021
1274.4695
1261.6457
1248.9868
1237.7096
1245.3396
1161.0918
1199.7263
1234.5012
1265.3369
1292.1618
1314.9467
1333.5259
1347.7956
1357.8638
1363.8632
1365.9992
1364.532
1359.8404
1352.2954
1342.2865
1330.3119
1316.927
1302.683
1288.1437
1274.0095
1260.8628
1248.033
1237.7306
1246.4711
1161.3488
1200.0243
1234.8343
1265.6947
1292.5365
1315.2788
1333.7828
1348.0229
1358.0676
1364.0487
1366.1828
1364.7274
1360.0518
1352.4815
1342.409
1330.3686
1316.923
1302.6125
1287.9816
1273.6935
1260.2869
1247.3201
1237.7486
1247.1954
1161.4414
1200.1392
1234.9757
1265.8628
1292.7184
1315.4327
1333.8992
1348.1187
1358.1606
1364.1502
1366.2893
1364.8942
1360.2431
1352.6575
1342.5365
1330.455
1316.9685
1302.615
1287.9232
1273.5315
1259.9591
1246.9134
1237.8057
1247.636
1161.3802
1200.0831
1234.9362
1265.8419
1292.7061
1315.4168
1333.8791
1348.0974
1358.1486
1364.171
1366.3705
1365.0229
1360.3916
1352.7954
1342.6674
1330.5671
1317.0485
1302.6672
1287.9419
1273.5127
1259.8968
1246.8341
1237.9245
1247.8569
1161.1994
1199.8938
1234.7482
1265.6615
1292.5388
1315.2677
1333.7466
1347.9757
1358.0496
1364.1203
1366.3875
1365.0994
1360.504
1352.9343
1342.8056
1330.6929
1317.1489
1302.748
1288.0032
1273.6095
1260.0923
1247.0814
1238.0959
1247.8813
1160.8705
1199.5527
1234.4016
1265.3316
1292.2507
1315.014
1333.5132
1347.7624
1357.872
1363.9967
1366.3229
1365.091
1360.5389
1352.9951
1342.8657
1330.7225
1317.19
1302.7927
1288.0889
1273.8374
1260.5865
1247.6782
1238.323
1247.7006
1160.4854
1199.0171
1233.7065
1264.5044
1291.3991
1314.3182
1333.0092
1347.3508
1357.501
1363.5935
1365.82
1364.4098
1359.7408
1352.2075
1342.2239
1330.276
1316.9234
1302.7355
1288.3163
1274.4513
1261.7728
1249.1901
1238.0833
1245.4639
1160.9915
1199.6206
1234.3883
1265.2127
1292.0708
1314.8882
1333.4798
1347.7695
1357.861
1363.8835
1366.0502
1364.6022
1359.921
1352.3617
1342.3219
1330.3061
1316.8827
1302.6147
1288.0702
1273.9604
1260.8417
1248.0386
1237.8271
1246.5184
1161.3405
1200.0335
1234.8532
1265.7096
1292.5453
1315.2886
1333.7996
1348.0417
1358.0874
1364.0668
1366.2028
1364.7589
1360.0966
1352.53
1342.4402
1330.3627
1316.8828
1302.5544
1287.9181
1273.6398
1260.2546
1247.2957
1237.7193
1247.1808
1161.5412
1200.2621
1235.1099
1265.9937
1292.8298
1315.5232
1333.9732
1348.1788
1358.204
1364.173
1366.3127
1364.902
1360.2693
1352.6965
1342.5669
1330.4478
1316.9315
1302.5586
1287.8537
1273.4505
1259.863
1246.7938
1237.6324
1247.5349
1161.5639
1200.2944
1235.1591
1266.0596
1292.8995
1315.5735
1333.9991
1348.1915
1358.2178
1364.2074
1366.3776
1365.0252
1360.4213
1352.8433
1342.6955
1330.5628
1317.0286
1302.6302
1287.8846
1273.4078
1259.7125
1246.5844
1237.5884
1247.6451
1161.4217
1200.1462
1235.0158
1265.9177
1292.7592
1315.4498
1333.8937
1348.0941
1358.1366
1364.1705
1366.4055
1365.1147
1360.5391
1352.9686
1342.8301
1330.6991
1317.1535
1302.7435
1287.9885
1273.5065
1259.8235
1246.694
1237.5852
1247.5252
1161.1608
1199.8598
1234.7092
1265.599
1292.456
1315.1919
1333.677
1347.8982
1357.9725
1364.0647
1366.3701
1365.1502
1360.622
1353.0813
1342.9636
1330.8373
1317.2846
1302.8727
1288.1372
1273.7308
1260.195
1247.1211
1237.6176
1247.1613
1160.7507
1199.4097
1234.2175
1265.0905
1291.9931
1314.8063
1333.3436
1347.5984
1357.7207
1363.8793
1366.2604
1365.1055
1360.6322
1353.137
1343.0457
1330.9223
1317.3815
1302.9961
1288.334
1274.1178
1260.9183
1247.9651
1237.7921
1246.5308
1160.7379
1199.3372
1234.0967
1264.9543
1291.8879
1314.7605
1333.3615
1347.6681
1357.7962
1363.8693
1366.0612
1364.6812
1360.0064
1352.4162
1342.3281
1330.264
1316.8035
1302.5076
1287.9795
1273.9857
1261.0713
1248.3633
1238.2902
1246.7957
1161.1798
1199.8536
1234.6676
1265.532
1292.3977
1315.1719
1333.7045
1347.9664
1358.045
1364.0638
1366.2176
1364.8311
1360.1772
1352.5843
1342.4639
1330.3556
1316.8451
1302.498
1287.8719
1273.6517
1260.3428
1247.4273
1237.9574
1247.3452
1161.4508
1200.1756
1235.0278
1265.9083
1292.746
1315.4526
1333.9205
1348.1401
1358.181
1364.1676
1366.3133
1364.9423
1360.32
1352.7424
1342.5916
1330.4447
1316.9025
1302.5231
1287.8306
1273.4679
1259.9206
1246.8551
1237.7258
1247.5966
1161.5754
1200.3216
1235.1924
1266.0892
1292.9194
1315.5845
1334.0052
1348.1948
1358.2192
1364.2064
1366.3807
1365.0427
1360.4545
1352.8816
1342.7191
1330.557
1317.0003
1302.5932
1287.8527
1273.3945
1259.7039
1246.5504
1237.5382
1247.6207
1161.531
1200.2763
1235.1541
1266.055
1292.8775
1315.536
1333.9513
1348.135
1358.1627
1364.1812
1366.4152
1365.1245
1360.5606
1352.9932
1342.8385
1330.6881
1317.1293
1302.7069
1287.9485
1273.4595
1259.7399
1246.5591
1237.4054
1247.4305
1161.3378
1200.063
1234.9281
1265.8133
1292.6286
1315.3153
1333.765
1347.967
1358.0165
1364.0867
1366.3974
1365.1595
1360.6298
1353.0856
1342.9606
1330.8315
1317.2752
1302.857
1288.1195
1273.6775
1260.0531
1246.9
1237.3119
1246.9844
1161.0244
1199.7116
1234.5334
1265.3787
1292.2004
1314.9443
1333.4596
1347.6912
1357.7815
1363.9149
1366.3071
1365.1327
1360.657
1353.162
1343.079
1330.9703
1317.4246
1303.0336
1288.3589
1274.0458
1260.6255
1247.5423
1237.2458
1246.2235
1160.5559
1199.1868
1233.9398
1264.74
1291.5737
1314.4062
1333.0116
1347.2889
1357.4372
1363.6444
1366.1118
1365.0223
1360.6198
1353.1935
1343.1634
1331.0819
1317.5694
1303.2407
1288.6777
1274.5903
1261.5672
1248.6406
1237.3902
1245.106
1160.8927
1199.5527
1234.3786
1265.2939
1292.2166
1315.0019
1333.5338
1347.8129
1357.9269
1363.9989
1366.2136
1364.8505
1360.18
1352.5634
1342.3996
1330.2575
1316.7458
1302.3903
1287.7871
1273.7194
1260.6642
1247.8891
1238.5941
1247.855
1161.2461
1199.9468
1234.7941
1265.6919
1292.5548
1315.28
1333.7672
1348.01
1358.0868
1364.1237
1366.3255
1364.9785
1360.3409
1352.7473
1342.5785
1330.4289
1316.8712
1302.4873
1287.8182
1273.5475
1260.1417
1247.1627
1238.1787
1247.9394
1161.427
1200.1602
1235.0278
1265.9279
1292.7661
1315.4476
1333.8909
1348.0997
1358.1482
1364.167
1366.3731
1365.0603
1360.4705
1352.8886
1342.7181
1330.5482
1316.9789
1302.5801
1287.8698
1273.4868
1259.8751
1246.7422
1237.7935
1247.7945
1161.4702
1200.2192
1235.0942
1265.9893
1292.8099
1315.4694
1333.8897
1348.0792
1358.1181
1364.1483
1366.3865
1365.1241
1360.577
1353.0124
1342.8516
1330.6847
1317.1164
1302.7038
1287.9701
1273.5252
1259.8305
1246.6282
1237.4831
1247.4768
1161.3728
1200.1172
1234.9849
1265.859
1292.6558
1315.3203
1333.7543
1347.9494
1357.9968
1364.0656
1366.3817
1365.1555
1360.6375
1353.0934
1342.9619
1330.8242
1317.2639
1302.8516
1288.1309
1273.7042
1260.0651
1246.8692
1237.2596
1246.9588
1161.1502
1199.8694
1234.7095
1265.5508
1292.3182
1315.0091
1333.5017
1347.7123
1357.786
1363.907
1366.2924
1365.1288
1360.6508
1353.1488
1343.0652
1330.9612
1317.4155
1303.028
1288.3675
1274.0506
1260.6017
1247.476
1237.0982
1246.1546
1160.8036
1199.4798
1234.259
1265.0268
1291.7915
1314.5288
1333.0837
1347.3509
1357.4703
1363.6521
1366.1112
1365.0194
1360.6069
1353.1731
1343.1484
1331.0792
1317.566
1303.2405
1288.6893
1274.5613
1261.3989
1248.3685
1236.9602
1244.9479
1160.3058
1198.8925
1233.5828
1264.3022
1291.052
1313.8579
1332.5167
1346.8368
1357.0191
1363.2761
1365.8181
1364.8178
1360.4968
1353.1541
1343.2062
1331.1916
1317.7424
1303.5159
1289.1124
1275.241
1262.4965
1249.7224
1237.0743
1243.2613
1160.9385
1199.6517
1234.5273
1265.4574
1292.3365
1315.0555
1333.5423
1347.8028
1357.9146
1364.0038
1366.2659
1364.9346
1360.2885
1352.6804
1342.4638
1330.2552
1316.7641
1302.3964
1287.7521
1273.6616
1260.5563
1247.7713
1239.0241
1248.7394
1161.1921
1199.9089
1234.7733
1265.6914
1292.5489
1315.2397
1333.6962
1347.9273
1358.012
1364.0815
1366.3428
1365.0488
1360.45
1352.8639
1342.6883
1330.5698
1316.9622
1302.5749
1287.8695
1273.5959
1260.2053
1247.2398
1238.4955
1248.3664
1161.293
1200.0202
1234.8843
1265.7892
1292.6294
1315.3039
1333.7396
1347.9474
1358.0141
1364.079
1366.3529
1365.105
1360.5535
1352.9937
1342.8328
1330.6721
1317.106
1302.7112
1287.9923
1273.6316
1260.0805
1246.9638
1237.933
1247.8059
1161.2635
1199.9952
1234.8492
1265.7211
1292.5323
1315.2089
1333.6524
1347.8534
1357.9206
1364.0076
1366.3183
1365.1323
1360.6363
1353.0991
1342.9675
1330.8246
1317.2707
1302.8749
1288.1695
1273.7882
1260.2096
1247.0308
1237.48
1247.0958
1161.1148
1199.8403
1234.6675
1265.4829
1292.2509
1314.9413
1333.4246
1347.642
1357.7278
1363.8589
1366.2587
1365.1057
1360.6462
1353.1515
1343.0705
1330.9687
1317.4338
1303.0623
1288.4106
1274.1033
1260.6464
1247.4923
1237.1573
1246.1775
1160.8564
1199.5603
1234.348
1265.0908
1291.8156
1314.5183
1333.0548
1347.3167
1357.435
1363.6171
1366.0806
1364.9979
1360.5902
1353.1571
1343.1411
1331.0851
1317.5832
1303.2704
1288.7269
1274.5918
1261.4102
1248.3525
1236.9233
1244.9262
1160.4808
1199.1297
1233.8354
1264.5348
1291.2193
1313.9061
1332.521
1346.8474
1357.0114
1363.2528
1365.785
1364.7774
1360.4446
1353.0958
1343.1556
1331.1534
1317.7146
1303.5063
1289.1257
1275.2423
1262.4284
1249.5558
1236.7304
1243.1556
1160.0072
1198.5753
1233.1682
1263.7598
1290.4359
1313.1752
1331.8401
1346.2229
1356.444
1362.7573
1365.3748
1364.4588
1360.2289
1352.9873
1343.1442
1331.2274
1317.8863
1303.8081
1289.6126
1276.0295
1263.6868
1251.2253
1236.8501
1240.7091
1160.8889
1199.6248
1234.5054
1265.4259
1292.2763
1314.9529
1333.4045
1347.6468
1357.7563
1363.8605
1366.1538
1364.8413
1360.1919
1352.5144
1342.1618
1330.0942
1316.7544
1302.4021
1287.7695
1273.7415
1260.7069
1247.9527
1239.5029
1249.4723
1160.9997
1199.7393
1234.625
1265.5529
1292.4071
1315.0803
1333.5201
1347.7487
1357.8502
1363.9572
1366.2703
1365.0159
1360.4436
1352.8654
1342.6881
1330.4708
1316.9752
1302.6308
1287.9431
1273.7567
1260.5255
1247.6199
1238.8171
1248.6286
1161.009
1199.73
1234.5855
1265.4913
1292.3523
1315.0448
1333.4872
1347.7048
1357.8008
1363.9168
1366.2498
1365.0573
1360.5446
1353.0101
1342.8691
1330.7129
1317.1883
1302.8138
1288.134
1273.8895
1260.5781
1247.5562
1238.153
1247.6204
1160.9038
1199.6057
1234.4171
1265.2541
1292.078
1314.8104
1333.298
1347.5249
1357.6361
1363.788
1366.173
1365.0513
1360.6069
1353.119
1343.0345
1330.9263
1317.4104
1303.0542
1288.4144
1274.1941
1260.9307
1247.8706
1237.645
1246.4569
1160.6991
1199.3799
1234.1358
1264.8892
1291.6357
1314.3889
1332.9517
1347.2087
1357.3507
1363.5561
1366.0325
1364.9621
1360.5745
1353.1543
1343.1459
1331.0987
1317.6186
1303.3175
1288.7668
1274.6617
1261.5874
1248.5882
1237.2891
1245.0491
1160.4111
1199.0436
1233.7324
1264.4112
1291.0912
1313.8318
1332.4564
1346.7687
1356.9494
1363.2084
1365.7565
1364.7653
1360.4494
1353.1131
1343.1914
1331.2131
1317.7934
1303.5877
1289.1852
1275.2895
1262.5141
1249.7044
1237.0224
1243.2273
1160.0585
1198.6507
1233.2418
1263.8093
1290.4502
1313.158
1331.8053
1346.1856
1356.4075
1362.723
1365.3427
1364.4281
1360.1986
1352.9618
1343.1357
1331.2414
1317.9179
1303.8502
1289.6512
1276.0519
1263.6958
1251.2227
1236.8328
1240.6958
1159.6887
1198.2098
1232.7022
1263.1633
1289.7863
1312.4114
1331.0686
1345.4852
1355.7474
1362.125
1364.8247
1363.9992
1359.875
1352.7567
1343.0452
1331.2643
1318.069
1304.1567
1290.1793
1276.9343
1265.1492
1253.234
1237.2951
1237.5576
1221.469
1236.8958
1257.7513
1268.3889
1278.4835
1290.5557
1303.7643
1317.0322
1329.5672
1340.7822
1350.127
1357.103
1361.2623
1362.2277
1359.6303
1353.2853
1343.0759
1328.9224
1310.7362
1288.2699
1261.6347
1231.4741
1197.3456
1159.319
1228.0492
1235.6151
1255.0934
1266.8087
1277.6249
1290.1022
1303.5672
1317.0092
1329.6832
1341.0145
1350.4605
1357.5336
1361.7804
1362.8085
1360.2655
1353.9526
1343.6995
1329.4486
1311.1466
1288.6373
1261.9204
1231.4903
1197.2674
1159.1546
1234.8141
1235.8779
1253.0034
1265.3864
1276.7852
1289.6356
1303.3637
1316.999
1329.8388
1341.3176
1350.8939
1358.0866
1362.4407
1363.5421
1361.0677
1354.8
1344.5212
1330.1868
1311.7324
1289.1582
1262.485
1231.8786
1197.3784
1159.2189
1239.2166
1236.4431
1250.9839
1263.9365
1275.9174
1289.1377
1303.1367
1316.9829
1330.0035
1341.6467
1351.3734
1358.6932
1363.1454
1364.3193
1361.917
1355.647
1345.3806
1331.0131
1312.4419
1289.7334
1263.0101
1232.3468
1197.7959
1159.4152
1242.8232
1236.9177
1249.5081
1262.7083
1275.1847
1288.735
1302.9707
1317.0081
1330.1908
1341.987
1351.8551
1359.2873
1363.8165
1365.0359
1362.6676
1356.4315
1346.1761
1331.799
1313.2065
1290.401
1263.5348
1232.7644
1198.1183
1159.641
1245.8683
1237.6419
1248.6243
1261.895
1274.646
1288.4903
1302.9302
1317.1116
1330.4079
1342.324
1352.3044
1359.8139
1364.3869
1365.6102
1363.2851
1357.0658
1346.8157
1332.438
1313.8662
1291.0825
1264.1174
1233.1833
1198.4125
1159.8355
1248.3882
1238.5079
1248.2482
1261.5154
1274.4423
1288.4089
1302.9892
1317.2801
1330.6508
1342.6567
1352.7129
1360.257
1364.8796
1366.1879
1363.7846
1357.5409
1347.2722
1332.8779
1314.301
1291.5299
1264.6084
1233.6437
1198.7147
1159.9974
1250.5641
1239.525
1248.3186
1261.484
1274.4025
1288.3663
1302.9908
1317.3173
1330.7524
1342.7489
1352.8756
1360.3784
1364.984
1366.2579
1363.8411
1357.6037
1347.349
1332.9674
1314.3982
1291.6376
1264.7357
1233.7898
1198.8941
1160.1817
1197.2413
1259.1834
1271.6041
1272.8989
1280.3078
1291.591
1304.3236
1317.387
1329.8966
1341.131
1350.4287
1357.3059
1361.2879
1362.0429
1359.2962
1352.8596
1342.6424
1328.4365
1310.3834
1288.5773
1262.8999
1232.9388
1199.207
1161.8344
1207.2264
1255.2995
1268.2693
1271.6426
1279.7217
1291.2308
1304.1192
1317.278
1329.8564
1341.152
1350.5103
1357.4343
1361.471
1362.2679
1359.557
1353.1258
1342.827
1328.6978
1310.6885
1288.8186
1263.0806
1233.216
1199.3658
1161.8315
1221.0207
1253.2581
1265.3403
1270.4944
1279.123
1290.7877
1303.8323
1317.1173
1329.8029
1341.2003
1350.6674
1357.6832
1361.808
1362.6796
1360.0219
1353.6327
1343.3324
1329.1954
1311.2007
1289.2474
1263.3023
1233.3952
1199.5975
1161.8318
1233.7387
1251.7425
1262.2337
1268.9223
1278.1981
1290.1222
1303.405
1316.8911
1329.7448
1341.2912
1350.9088
1358.0588
1362.2955
1363.2597
1360.6573
1354.2425
1343.9906
1329.8045
1311.7745
1289.7865
1263.698
1233.5767
1199.5321
1161.7056
1244.5134
1251.0326
1259.3197
1267.3354
1277.1728
1289.3512
1302.921
1316.6549
1329.7075
1341.4309
1351.2207
1358.531
1362.9003
1363.9667
1361.4404
1355.0744
1344.7737
1330.5035
1312.3254
1290.232
1264.0728
1233.7927
1199.5427
1161.4835
1252.987
1250.2106
1256.7148
1265.8457
1276.248
1288.6094
1302.4478
1316.4408
1329.6959
1341.585
1351.5359
1358.9962
1363.4933
1364.6586
1362.2231
1355.8805
1345.5524
1331.2094
1312.8549
1290.5087
1264.2111
1233.858
1199.4687
1161.2386
1259.0942
1249.3623
1254.6734
1264.6874
1275.4832
1288.0433
1302.1068
1316.3178
1329.7484
1341.7568
1351.8295
1359.4039
1363.9924
1365.2305
1362.885
1356.4983
1346.1778
1331.8134
1313.3452
1290.7895
1264.1997
1233.6376
1199.2122
1160.9454
1262.843
1249.0006
1253.7124
1264.174
1275.1332
1287.7016
1301.8262
1316.1264
1329.6316
1341.7397
1351.7871
1359.4529
1364.0937
1365.326
1362.7389
1356.5674
1346.3712
1332.0523
1313.5429
1290.8921
1264.1675
1233.4583
1198.8733
1160.5128
1250.5482
1239.4945
1248.2719
1261.4484
1274.402
1288.4005
1303.0498
1317.3974
1330.8458
1342.867
1352.9936
1360.4792
1365.0619
1366.3133
1363.8796
1357.6294
1347.3689
1332.9878
1314.4212
1291.6619
1264.759
1233.8104
1198.9092
1160.1876
1248.3416
1238.3866
1248.1013
1261.4125
1274.444
1288.5156
1303.1721
1317.5339
1330.964
1343.0238
1353.0847
1360.5763
1365.1146
1366.3377
1363.8755
1357.594
1347.3167
1332.9344
1314.3727
1291.6097
1264.6855
1233.7091
1198.7571
1160.0064
1245.7694
1237.3909
1248.3611
1261.7259
1274.6481
1288.6628
1303.2348
1317.5311
1330.9508
1342.9715
1352.9673
1360.38
1364.7956
1365.8674
1363.4185
1357.1324
1346.873
1332.5225
1313.9833
1291.2191
1264.2512
1233.292
1198.4784
1159.8436
1242.6664
1236.526
1249.127
1262.4868
1275.1922
1288.9608
1303.3673
1317.5656
1330.9339
1342.8852
1352.7842
1360.091
1364.399
1365.391
1362.8435
1356.5138
1346.2479
1331.9103
1313.3664
1290.591
1263.7269
1232.9274
1198.2225
1159.6593
1239.0018
1235.9197
1250.507
1263.6944
1275.9589
1289.42
1303.603
1317.6418
1330.8962
1342.7328
1352.5041
1359.6852
1363.8724
1364.76
1362.1367
1355.7546
1345.4759
1331.1542
1312.6412
1289.976
1263.2729
1232.59
1197.9702
1159.4682
1234.5478
1235.26
1252.4617
1265.1525
1276.8827
1289.9899
1303.9017
1317.7395
1330.836
1342.5249
1352.1485
1359.1931
1363.2587
1364.0421
1361.3236
1354.933
1344.6395
1330.3518
1311.962
1289.4511
1262.8296
1232.2202
1197.6449
1159.3205
1227.7539
1234.9073
1254.5102
1266.5866
1277.7798
1290.5414
1304.1952
1317.8361
1330.759
1342.2853
1351.7608
1358.675
1362.6294
1363.334
1360.5427
1354.104
1343.8322
1329.6219
1311.3899
1288.9683
1262.3308
1231.8981
1197.6064
1159.2882
1221.1501
1236.1404
1257.136
1268.1725
1278.684
1291.0755
1304.4857
1317.9423
1330.6973
1342.0692
1351.413
1358.2191
1362.0961
1362.7545
1359.9204
1353.4535
1343.2126
1329.0893
1310.9773
1288.6142
1262.0687
1231.9212
1197.7078
1159.4521
1262.8227
1248.9547
1253.6552
1264.1335
1275.1332
1287.7437
1301.9
1316.2233
1329.7484
1341.8711
1351.9142
1359.5656
1364.1828
1365.3923
1362.7866
1356.6031
1346.4007
1332.0804
1313.5704
1290.9186
1264.1918
1233.4781
1198.8869
1160.5175
1259.0435
1249.2299
1254.5152
1264.5785
1275.482
1288.159
1302.3133
1316.5961
1330.0884
1342.136
1352.2046
1359.7339
1364.2536
1365.4222
1363.0195
1356.597
1346.262
1331.8941
1313.4258
1290.8682
1264.2716
1233.6942
1199.2482
1160.9553
1252.9026
1249.9814
1256.4577
1265.6749
1276.2434
1288.7886
1302.7735
1316.8858
1330.242
1342.1939
1352.1397
1359.5264
1363.9113
1364.9616
1362.432
1356.0304
1345.6799
1331.3345
1312.9826
1290.635
1264.329
1233.9562
1199.532
1161.252
1244.3974
1250.7071
1258.9819
1267.1224
1277.178
1289.5903
1303.3534
1317.245
1330.4314
1342.2363
1352.0171
1359.2292
1363.4481
1364.3594
1361.7084
1355.2648
1344.9339
1330.663
1312.4933
1290.4054
1264.2415
1233.9376
1199.6392
1161.5066
1233.5696
1251.3021
1261.8083
1268.686
1278.2338
1290.4294
1303.9336
1317.603
1330.6122
1342.2486
1351.8497
1358.8822
1362.9407
1363.72
1360.9699
1354.4626
1344.1739
1329.988
1311.9747
1290.0039
1263.9196
1233.7784
1199.6758
1161.7514
1220.7826
1252.6634
1264.8295
1270.2523
1279.2114
1291.1795
1304.4571
1317.9318
1330.7796
1342.2671
1351.7077
1358.5901
1362.5183
1363.1857
1360.3649
1353.8727
1343.5285
1329.3908
1311.4218
1289.5006
1263.5747
1233.6613
1199.8001
1161.9075
1206.9206
1254.5897
1267.6782
1271.3971
1279.8702
1291.716
1304.8409
1318.1835
1330.9173
1342.2913
1351.6081
1358.3852
1362.2152
1362.799
1359.9161
1353.375
1343.0253
1328.8949
1310.9184
1289.0964
1263.398
1233.5531
1199.6162
1161.9276
1196.8626
1258.3537
1270.9318
1272.6402
1280.5041
1292.1583
1305.1304
1318.3669
1331.0153
1342.3067
1351.5448
1358.2643
1362.0372
1362.5795
1359.6571
1353.1068
1342.8353
1328.6268
1310.6113
1288.8688
1263.2499
1233.2984
1199.4806
1161.9395
1221.1485
1236.1406
1257.1388
1268.179
1278.6985
1291.0982
1304.5126
1317.9638
1330.7034
1342.0567
1351.3879
1358.1905
1362.0723
1362.7367
1359.9041
1353.4359
1343.1943
1329.0744
1310.9701
1288.6165
1262.0803
1231.9407
1197.7283
1159.4662
1227.7431
1234.8985
1254.5153
1266.6052
1277.8201
1290.6063
1304.2708
1317.8958
1330.7773
1342.2531
1351.6934
1358.5975
1362.5625
1363.28
1360.4907
1354.0491
1343.7767
1329.5779
1311.3708
1288.9805
1262.3762
1231.9692
1197.6799
1159.3395
1234.5233
1235.2286
1252.4633
1265.1865
1276.9523
1290.0949
1304.0179
1317.828
1330.8626
1342.478
1352.0496
1359.0785
1363.1543
1363.9499
1361.234
1354.8426
1344.5522
1330.2855
1311.9399
1289.4871
1262.9246
1232.3558
1197.7826
1159.4218
1238.9558
1235.8496
1250.4883
1263.7384
1276.0538
1289.5518
1303.7395
1317.74
1330.9224
1342.6788
1352.3938
1359.5564
1363.7468
1364.6398
1362.0205
1355.6415
1345.3736
1331.0829
1312.6295
1290.042
1263.4123
1232.7749
1198.1566
1159.613
1242.6018
1236.4123
1249.0749
1262.5225
1275.2904
1289.0896
1303.4934
1317.6525
1330.9545
1342.8369
1352.6889
1359.9777
1364.2774
1365.2628
1362.72
1356.3996
1346.1524
1331.8543
1313.3755
1290.68
1263.8877
1233.1282
1198.4232
1159.8215
1245.6982
1237.2535
1248.2795
1261.7357
1274.7152
1288.7513
1303.3197
1317.5867
1330.9601
1342.9412
1352.9112
1360.3083
1364.7036
1365.7551
1363.3071
1357.0334
1346.7984
1332.4916
1314.0166
1291.3217
1264.4117
1233.4819
1198.664
1159.9938
1248.2776
1238.2548
1248.0088
1261.3889
1274.4591
1288.5402
1303.1964
1317.5467
1330.9574
1343.0124
1353.072
1360.5547
1365.0676
1366.2664
1363.7899
1357.5185
1347.268
1332.9293
1314.4254
1291.7207
1264.8382
1233.8737
1198.9109
1160.127
1250.5029
1239.3891
1248.1812
1261.3912
1274.3613
1288.3592
1303.0062
1317.3568
1330.8193
1342.8694
1353.0112
1360.4982
1365.0544
1366.2759
1363.8262
1357.5846
1347.3508
1333.008
1314.4856
1291.7685
1264.8952
1233.9527
1199.0347
1160.2756
1196.8697
1258.3669
1270.9337
1272.6438
1280.5192
1292.1807
1305.1549
1318.3842
1331.0155
1342.2889
1351.5166
1358.2351
1362.0136
1362.5617
1359.6411
1353.0912
1342.8213
1328.6166
1310.6072
1288.8704
1263.2556
1233.3073
1199.4897
1161.9468
1206.9377
1254.619
1267.6872
1271.4152
1279.9172
1291.7843
1304.9131
1318.233
1330.9182
1342.2405
1351.5266
1358.2993
1362.1444
1362.7443
1359.8665
1353.327
1342.9827
1328.8648
1310.9072
1289.104
1263.4211
1233.5869
1199.6503
1161.9546
1220.7955
1252.6892
1264.8467
1270.2929
1279.292
1291.288
1304.5666
1318.003
1330.7775
1342.1885
1351.5824
1358.4566
1362.4048
1363.0948
1360.2839
1353.7974
1343.4636
1329.348
1311.4111
1289.5215
1263.6215
1233.7247
1199.8653
1161.9607
1233.5588
1251.2959
1261.8192
1268.7423
1278.3376
1290.563
1304.0641
1317.6831
1330.6052
1342.1538
1351.6992
1358.7189
1362.7971
1363.6012
1360.8655
1354.3701
1344.0982
1329.9428
1311.9746
1290.0472
1263.9939
1233.8721
1199.7705
1161.8302
1244.3627
1250.6652
1258.9735
1267.1764
1277.2836
1289.7234
1303.4813
1317.3229
1330.4245
1342.1426
1351.8667
1359.0636
1363.2971
1364.2293
1361.5943
1355.1671
1344.8602
1330.6276
1312.5116
1290.473
1264.3404
1234.0541
1199.7546
1161.6029
1252.8639
1249.9181
1256.4321
1265.7089
1276.3235
1288.8903
1302.8716
1316.9444
1330.2342
1342.1196
1352.0212
1359.3935
1363.7831
1364.8425
1362.3242
1355.9412
1345.6193
1331.3159
1313.0165
1290.7213
1264.4482
1234.0861
1199.6555
1161.351
1259.0045
1249.1556
1254.4672
1264.575
1275.5093
1288.2015
1302.3563
1316.6173
1330.0725
1342.0884
1352.1383
1359.6584
1364.1721
1365.3344
1362.9334
1356.5273
1346.2233
1331.8971
1313.4747
1290.9599
1264.3931
1233.8291
1199.3717
1161.0455
1262.7933
1248.8877
1253.5913
1264.0872
1275.0985
1287.7148
1301.8719
1316.192
1329.7151
1341.8442
1351.9012
1359.5486
1364.1513
1365.3416
1362.7294
1356.562
1346.3925
1332.1085
1313.6332
1291.0122
1264.307
1233.5992
1198.9933
1160.5921
1250.5325
1239.4435
1248.2273
1261.394
1274.312
1288.2676
1302.8881
1317.23
1330.7062
1342.7586
1352.9206
1360.4297
1365.0076
1366.2503
1363.8218
1357.5933
1347.3608
1333.0083
1314.469
1291.737
1264.8556
1233.9106
1198.9941
1160.2452
1248.3731
1238.45
1248.1628
1261.4008
1274.3062
1288.2541
1302.8307
1317.1533
1330.5949
1342.6774
1352.7837
1360.3344
1364.9331
1366.2163
1363.8048
1357.5663
1347.3123
1332.9357
1314.3721
1291.6128
1264.7
1233.7326
1198.7844
1160.0361
1245.8737
1237.6215
1248.5599
1261.7652
1274.4714
1288.2854
1302.7266
1316.9576
1330.3461
1342.3524
1352.3836
1359.899
1364.4578
1365.6687
1363.3361
1357.1174
1346.8763
1332.5079
1313.9337
1291.1417
1264.1677
1233.2229
1198.4393
1159.8452
1242.852
1236.9469
1249.4808
1262.5796
1274.9875
1288.514
1302.7583
1316.8479
1330.12
1341.9983
1351.9103
1359.3524
1363.881
1365.099
1362.7278
1356.4917
1346.2442
1331.8732
1313.2706
1290.4386
1263.5448
1232.7577
1198.1056
1159.6245
1239.2644
1236.5129
1250.9936
1263.8323
1275.7387
1288.9414
1302.953
1316.8411
1329.9276
1341.6289
1351.3866
1358.7212
1363.1858
1364.3673
1361.9639
1355.696
1345.4404
1331.0811
1312.4975
1289.7538
1262.9945
1232.3129
1197.7604
1159.385
1234.8648
1235.9533
1253.0382
1265.3202
1276.6554
1289.4923
1303.23
1316.8916
1329.7701
1341.2813
1350.8753
1358.0815
1362.4523
1363.5659
1361.0919
1354.8279
1344.5613
1330.2375
1311.7716
1289.1632
1262.4593
1231.841
1197.3444
1159.195
1228.0879
1235.6779
1255.1299
1266.7776
1277.5526
1290.0215
1303.4922
1316.9469
1329.6369
1340.9806
1350.4335
1357.5157
1361.776
1362.8135
1360.2717
1353.9568
1343.7179
1329.477
1311.1676
1288.634
1261.8994
1231.4644
1197.2493
1159.1457
1221.4855
1236.9218
1257.7675
1268.3811
1278.4608
1290.5295
1303.7402
1317.0119
1329.5506
1340.7682
1350.1149
1357.0945
1361.2588
1362.2271
1359.6302
1353.2879
1343.0808
1328.9311
1310.7429
1288.2672
1261.6269
1231.4655
1197.3407
1159.3182
1262.8351
1248.9638
1253.6467
1264.0844
1275.0336
1287.6002
1301.7285
1316.0436
1329.5788
1341.7267
1351.8085
1359.4767
1364.0994
1365.3099
1362.7169
1356.5621
1346.3952
1332.1042
1313.6144
1290.9796
1264.2668
1233.5575
1198.9576
1160.5701
1259.1045
1249.3521
1254.6116
1264.5695
1275.3342
1287.8876
1301.9608
1316.202
1329.6806
1341.7403
1351.8477
1359.4303
1364.0086
1365.2362
1362.8941
1356.5271
1346.2314
1331.8818
1313.418
1290.8622
1264.2724
1233.7051
1199.2681
1160.9839
1253.0208
1250.2371
1256.6707
1265.7143
1276.0637
1288.4183
1302.2747
1316.3076
1329.6144
1341.5517
1351.534
1359.0059
1363.5039
1364.6719
1362.2472
1355.9249
1345.6187
1331.2839
1312.921
1290.5602