/*--------------------------------*- C++ -*----------------------------------*\
  =========                 |
  \\      /  F ield         | OpenFOAM: The Open Source CFD Toolbox
   \\    /   O peration     | Website:  https://openfoam.org
    \\  /    A nd           | Version:  8
     \\/     M anipulation  |
\*---------------------------------------------------------------------------*/
FoamFile
{
    version     2.0;
    format      ascii;
    class       volVectorField;
    location    "0.0930000";
    object      cellDisplacement;
}
// * * * * * * * * * * * * * * * * * * * * * * * * * * * * * * * * * * * * * //

dimensions      [0 1 0 0 0 0 0];

internalField   nonuniform List<vector> 
900
(
(3.74375089070061e-28 -1.13943320860076e-06 -7.96425532676287e-14)
(3.61493257723069e-28 -1.1418994088609e-06 -7.48806043378404e-14)
(3.54097033448391e-28 -1.1461567692244e-06 -8.84070200043068e-15)
(3.45660202879211e-28 -1.15156842758456e-06 -9.3988396861359e-14)
(3.38389190165963e-28 -1.15788769320975e-06 1.24201263921938e-13)
(3.29986593890211e-28 -1.1648571568498e-06 3.36890909800647e-13)
(3.22875942960864e-28 -1.17243413298956e-06 1.95438848995054e-13)
(3.14716864454876e-28 -1.18064487925105e-06 6.89179347986154e-14)
(3.07779036372717e-28 -1.18947903227387e-06 1.49728958202116e-13)
(2.99848281986394e-28 -1.19882560189441e-06 1.29228355803558e-13)
(2.93060585223614e-28 -1.20862101878376e-06 -2.36311213911224e-14)
(2.85345804330605e-28 -1.21887032090468e-06 -2.76883037597769e-15)
(2.78710087622402e-28 -1.22961892514254e-06 1.19790603629071e-13)
(2.71205601054378e-28 -1.24082645550765e-06 -8.74830628631669e-14)
(2.64711036932101e-28 -1.25241761253046e-06 -1.98138119435862e-13)
(2.57410427576614e-28 -1.2643845804761e-06 2.90612807757752e-14)
(2.51058641083391e-28 -1.27679543501822e-06 1.81006731907559e-14)
(2.43959575073837e-28 -1.28965617755041e-06 -1.7703513055641e-13)
(2.37747175647921e-28 -1.30289512391187e-06 -1.64342862402962e-13)
(2.30845234021429e-28 -1.31650954359153e-06 1.10604454942404e-13)
(2.24773290639051e-28 -1.33055095434781e-06 6.84946405913335e-14)
(2.18069817973658e-28 -1.3450699770227e-06 2.13937814413635e-14)
(2.12138866841244e-28 -1.36003639239947e-06 -7.29806470416804e-15)
(2.05629270528666e-28 -1.37542778726357e-06 -4.94952324118077e-14)
(1.99841621528254e-28 -1.39128326203098e-06 1.68620425830199e-13)
(1.93531182730724e-28 -1.40771869352373e-06 3.29021731117877e-13)
(1.87889175810031e-28 -1.42475665745517e-06 1.71917068033848e-13)
(1.81773586941061e-28 -1.44234911560196e-06 -3.90004285359265e-15)
(1.76280026296952e-28 -1.46052206092443e-06 -2.5900726009534e-14)
(1.7036615640667e-28 -1.47945195767687e-06 -1.45882199449556e-14)
(1.65028452336952e-28 -1.49924354886963e-06 1.04443418261016e-14)
(1.59314682070602e-28 -1.51984926150722e-06 -2.63784073349412e-15)
(1.5413250221944e-28 -1.54131508917102e-06 -9.95766033677749e-14)
(1.48625725223045e-28 -1.56384828513189e-06 -9.81814903892713e-14)
(1.4361368448871e-28 -1.58771557486417e-06 -1.1161416551005e-13)
(1.38316062493897e-28 -1.61296390243378e-06 -1.29895567139115e-13)
(1.33471862595942e-28 -1.63962015213862e-06 7.81638837226424e-15)
(1.28390006505221e-28 -1.66790886405931e-06 -1.72997783775087e-13)
(1.23772866424083e-28 -1.69843009029543e-06 -1.02909821967886e-13)
(1.19192564082259e-28 -1.73145277230789e-06 1.98684529218935e-13)
(1.13411807129211e-28 -1.76693734052018e-06 1.6492190397341e-13)
(1.09870444773744e-28 -1.80514201985139e-06 -1.5493873506589e-13)
(1.04499960418357e-28 -1.8471126221025e-06 -3.0939270419685e-13)
(1.01239243108453e-28 -1.89358041250949e-06 3.18930877534006e-14)
(9.61185421813745e-29 -1.94448305037837e-06 3.27343081915595e-14)
(9.30516783681391e-29 -2.00018747021101e-06 -8.08553824412672e-14)
(8.82635378319173e-29 -2.06202753612652e-06 -8.49505283433616e-14)
(8.53679537421989e-29 -2.13171859145566e-06 2.86698325400846e-14)
(8.09169781422571e-29 -2.20965244097997e-06 7.52993304961664e-14)
(7.81826033399278e-29 -2.29604967550154e-06 8.0878002876831e-14)
(7.40982254498746e-29 -2.39236816482879e-06 1.25909493670989e-13)
(7.15703635369355e-29 -2.50224880434477e-06 -5.75843302389508e-14)
(6.78428200840849e-29 -2.62721747818967e-06 -2.02074822382842e-13)
(6.55076544715733e-29 -2.76698314790835e-06 -1.41921963520486e-13)
(6.21597968336425e-29 -2.92296672176977e-06 2.17521414137355e-13)
(6.00899404328988e-29 -3.10251393182632e-06 3.28847999572165e-13)
(5.71420877957051e-29 -3.31702245073796e-06 3.32965903681048e-13)
(5.53552699974037e-29 -3.57710584189606e-06 1.159348896605e-13)
(5.30341342910681e-29 -3.89444445368584e-06 -1.16379492089385e-13)
(5.2006578904233e-29 -4.30008888619021e-06 -5.43047505308071e-14)
(5.07083752382528e-29 -4.82346058236945e-06 -1.70846910356296e-13)
(5.06226217171153e-29 -5.46310022572737e-06 -1.33611709975149e-13)
(5.05245877555666e-29 -6.21450483008704e-06 -1.92064565554267e-13)
(5.18307274526901e-29 -7.09511478297958e-06 -2.46005994467169e-13)
(5.29238740930449e-29 -8.1191003296527e-06 7.57027283613545e-14)
(5.53209441801602e-29 -9.26868694943177e-06 1.29135961565166e-13)
(5.75895418297294e-29 -1.05264547356163e-05 -2.5508583714398e-15)
(6.14467699399141e-29 -1.19013515624171e-05 -4.76959743923457e-14)
(6.47908065415497e-29 -1.33913240238293e-05 3.48441413087635e-14)
(6.97339961867686e-29 -1.49660058379869e-05 1.90983007932114e-13)
(7.41098282033903e-29 -1.66028001290115e-05 3.4711352065063e-14)
(8.02512567157346e-29 -1.82941488790997e-05 -3.81032811093147e-13)
(8.50307083165877e-29 -2.00167630151691e-05 -3.1033809145258e-13)
(9.17299337678583e-29 -2.17411548912409e-05 1.01493739201733e-13)
(9.63823657347301e-29 -2.34519838753068e-05 -1.04650631289689e-13)
(1.02855612637847e-28 -2.51188899002497e-05 -8.89466721339521e-14)
(1.064967550969e-28 -2.67145722168032e-05 6.18784801177127e-16)
(1.12005100754263e-28 -2.82315222588038e-05 -6.24071821838034e-14)
(1.13175852146742e-28 -2.96526946143894e-05 2.82982932897138e-13)
(1.16357079622142e-28 -3.09389416075484e-05 2.19950684095092e-13)
(1.15126175452139e-28 -3.20813873011264e-05 -9.24386419155313e-14)
(1.15481989682449e-28 -3.30934446431987e-05 -3.92095886031978e-14)
(1.09900162299945e-28 -3.39476940007379e-05 9.69175124710859e-14)
(1.07195157489625e-28 -3.46264485022485e-05 -1.0650422249113e-13)
(9.9053533564692e-29 -3.5152302605954e-05 -1.71422611690275e-13)
(9.3453359114527e-29 -3.55413730318021e-05 -1.40119816645837e-14)
(8.69559204508092e-29 -3.57827117663031e-05 2.82797410441824e-13)
(8.95634080220067e-29 -3.59030925779213e-05 4.00516766454168e-13)
(8.95484480277473e-29 -3.59453449950984e-05 1.19461888040089e-13)
(8.71465630340576e-29 -3.59181791856719e-05 -1.02139809642356e-13)
(8.77068250022407e-29 -3.58382653648311e-05 -6.40604541804683e-14)
(8.49042439860495e-29 -3.57284017817966e-05 1.57458245738198e-13)
(8.49697048442205e-29 -3.55991770833081e-05 1.83792987960607e-13)
(8.199016317062e-29 -3.54564568146099e-05 6.34760246519144e-14)
(8.19581333960864e-29 -3.53071704108308e-05 2.73638795221952e-14)
(7.89921148969822e-29 -3.51559493075552e-05 -1.45272863402924e-13)
(7.89537290815795e-29 -3.50062935185422e-05 -1.86957875328049e-15)
(7.60701900785034e-29 -3.48625132580006e-05 1.82703451096954e-13)
(7.59808799982997e-29 -3.47290204476772e-05 9.94154468552673e-14)
(7.28446720178934e-29 -3.46190468658969e-05 1.27781922458328e-14)
(1.06451279323412e-27 -3.14791212495648e-06 -2.35168551813469e-13)
(1.02874229734992e-27 -3.14816072500076e-06 -2.21372796410327e-13)
(1.00771618492844e-27 -3.15020731009952e-06 -2.59575710225566e-14)
(9.83847489535994e-28 -3.15325391061673e-06 -2.78241048453439e-13)
(9.63123447920549e-28 -3.15709560164716e-06 3.65827125910145e-13)
(9.39364747952768e-28 -3.16150427778445e-06 9.95718265502629e-13)
(9.1907417026667e-28 -3.16644463017942e-06 5.78465666560465e-13)
(8.95970180085148e-28 -3.17194110251269e-06 2.03772381697971e-13)
(8.76147458977098e-28 -3.17798555956257e-06 4.42688500288368e-13)
(8.53663373890583e-28 -3.18447902916724e-06 3.82790080151269e-13)
(8.34256937248202e-28 -3.19136572480922e-06 -6.96493002469624e-14)
(8.12365471215765e-28 -3.19865062123234e-06 -8.63539984627285e-15)
(7.93381181707476e-28 -3.20637531074483e-06 3.54939675094484e-13)
(7.72068617443498e-28 -3.21450385713338e-06 -2.58166163907094e-13)
(7.53482056753236e-28 -3.22296900091884e-06 -5.87134740663534e-13)
(7.3273622320635e-28 -3.231763964367e-06 8.55979907366404e-14)
(7.14553118773182e-28 -3.24095048565487e-06 5.42478798606936e-14)
(6.94367216017263e-28 -3.25053424502071e-06 -5.24096763688565e-13)
(6.76580738082811e-28 -3.26045036637759e-06 -4.87857653738412e-13)
(6.56947561578018e-28 -3.2706968540634e-06 3.27328834066009e-13)
(6.39561828446018e-28 -3.28131986652435e-06 2.03281914429269e-13)
(6.2048322363543e-28 -3.29236523876275e-06 6.36238407333465e-14)
(6.0350063103763e-28 -3.30380526852917e-06 -2.14524667018733e-14)
(5.84968328266819e-28 -3.3156196155759e-06 -1.4736333019277e-13)
(5.68396527973031e-28 -3.32784257677325e-06 4.99297473897379e-13)
(5.50423007285109e-28 -3.3405787995225e-06 9.76425560695557e-13)
(5.34267625296651e-28 -3.35384804820354e-06 5.11105433611221e-13)
(5.16844032358888e-28 -3.36760592916089e-06 -1.11175161557377e-14)
(5.01114662235034e-28 -3.38187426257871e-06 -7.68852783592811e-14)
(4.84257965614071e-28 -3.39681201631123e-06 -4.34198480682093e-14)
(4.68972270816805e-28 -3.41251313375704e-06 3.10030427299583e-14)
(4.52680027549197e-28 -3.42893173928229e-06 -7.53530250832496e-15)
(4.37840601098752e-28 -3.4461073968043e-06 -2.95675938467727e-13)
(4.22130054180401e-28 -3.46422431391546e-06 -2.91771348854067e-13)
(4.07771039892972e-28 -3.48352277446769e-06 -3.31713212902881e-13)
(3.92648384955657e-28 -3.50404090832695e-06 -3.86551690743262e-13)
(3.78769420991666e-28 -3.52579865874248e-06 2.34212314854782e-14)
(3.64252031934708e-28 -3.54899027883264e-06 -5.14350309937686e-13)
(3.51000238946561e-28 -3.57415805805474e-06 -3.07142635161064e-13)
(3.3782858257876e-28 -3.60153978168883e-06 5.90603376216196e-13)
(3.21585859514321e-28 -3.63108872780136e-06 4.91785621697718e-13)
(3.11186996305607e-28 -3.66302231642291e-06 -4.60063335225213e-13)
(2.96018619630907e-28 -3.69828424144267e-06 -9.21752069567882e-13)
(2.86393896789659e-28 -3.73753196725397e-06 9.41600611339681e-14)
(2.71922382111278e-28 -3.78068429541583e-06 9.78054116590469e-14)
(2.62852385239718e-28 -3.82805339757849e-06 -2.40600168319242e-13)
(2.49282441443797e-28 -3.88082596473795e-06 -2.53437104487285e-13)
(2.40694504964123e-28 -3.94055613638334e-06 8.50384896132715e-14)
(2.28047517974507e-28 -4.00756570371751e-06 2.24335210011396e-13)
(2.19927445985697e-28 -4.08201622896404e-06 2.41009274370321e-13)
(2.08271770197086e-28 -4.16516605837208e-06 3.75891655115352e-13)
(2.00718480843872e-28 -4.26033027943955e-06 -1.70872824186401e-13)
(1.90036182315114e-28 -4.36886222020215e-06 -6.02660533039706e-13)
(1.83040911338421e-28 -4.49041146198846e-06 -4.24704490580851e-13)
(1.73384900972991e-28 -4.62612323940461e-06 6.47952333640406e-13)
(1.67104213106069e-28 -4.78249535427411e-06 9.81565421147802e-13)
(1.58531042584131e-28 -4.96972381892285e-06 9.95187283570997e-13)
(1.53066045646049e-28 -5.19711984821748e-06 3.47856584000661e-13)
(1.46103796093709e-28 -5.47448199262234e-06 -3.47403687563899e-13)
(1.42477453545434e-28 -5.82959883921035e-06 -1.62255864261103e-13)
(1.38026503102853e-28 -6.28942616182361e-06 -5.10877561000264e-13)
(1.36807171361019e-28 -6.85194430035505e-06 -3.99721197953705e-13)
(1.35167330043544e-28 -7.5124769313627e-06 -5.74433251962226e-13)
(1.37146090424519e-28 -8.28678991866132e-06 -7.38153074947438e-13)
(1.38412631512608e-28 -9.18830160027947e-06 2.24429212562354e-13)
(1.43158303306799e-28 -1.02006805215226e-05 3.86963591052519e-13)
(1.46782938661827e-28 -1.13077620064701e-05 -6.51578298377054e-15)
(1.54668026361321e-28 -1.25177033921627e-05 -1.43006534758067e-13)
(1.60992646411196e-28 -1.38293561131799e-05 1.02462272062991e-13)
(1.71482628678281e-28 -1.52153371343237e-05 5.70799944675328e-13)
(1.7950396370552e-28 -1.66552989702411e-05 1.08056121641993e-13)
(1.92829200639987e-28 -1.81423798002646e-05 -1.13476791120387e-12)
(2.02333633439725e-28 -1.96565878637594e-05 -9.2942934365167e-13)
(2.16683919037196e-28 -2.11714663529937e-05 3.00887417025083e-13)
(2.26287690527751e-28 -2.26728204215086e-05 -3.10054709517478e-13)
(2.40882836964834e-28 -2.41350521533773e-05 -2.6536609056162e-13)
(2.47933533265151e-28 -2.55338355245306e-05 1.64801668375516e-15)
(2.60924169349035e-28 -2.68616509468792e-05 -1.8742311583072e-13)
(2.63675978408292e-28 -2.81028799977732e-05 8.37165084755437e-13)
(2.71395500653296e-28 -2.92266482697502e-05 6.54078798988769e-13)
(2.67344442636316e-28 -3.02236011794701e-05 -2.72298570511659e-13)
(2.70388784023928e-28 -3.11016733922455e-05 -1.17093230662015e-13)
(2.57169029813503e-28 -3.1840889613531e-05 2.86692395602092e-13)
(2.51082170575544e-28 -3.24283135153237e-05 -3.13531925879975e-13)
(2.31951422676752e-28 -3.28794222895428e-05 -5.06619569651784e-13)
(2.1998880308017e-28 -3.32069060048486e-05 -4.2986324106611e-14)
(2.04623561549891e-28 -3.34138429183541e-05 8.33630714041578e-13)
(2.113575708901e-28 -3.35236385036581e-05 1.1836565033734e-12)
(2.11827520804868e-28 -3.35627824610408e-05 3.53845820600431e-13)
(2.06361280329751e-28 -3.35426652724367e-05 -3.01942253351442e-13)
(2.08213328246668e-28 -3.34776328400176e-05 -1.89869353820767e-13)
(2.01437987502262e-28 -3.33848936374635e-05 4.66200964089481e-13)
(2.02075324283352e-28 -3.32744016673238e-05 5.44596465562071e-13)
(1.94832095133517e-28 -3.31521392655949e-05 1.88186638156529e-13)
(1.95114807270515e-28 -3.3023807499391e-05 8.11869401018285e-14)
(1.87874094038639e-28 -3.28935687797072e-05 -4.30759197472688e-13)
(1.88127346922947e-28 -3.27647971728999e-05 -5.55789493240287e-15)
(1.81106369722812e-28 -3.26414140279704e-05 5.42032272259636e-13)
(1.81403259891823e-28 -3.25289050375547e-05 2.95073834268036e-13)
(1.74327028469852e-28 -3.24422391627332e-05 3.79340564317995e-14)
(1.65042581121402e-27 -5.11890849575225e-06 -3.87838164767009e-13)
(1.59749265651262e-27 -5.11748173259147e-06 -3.65860949453993e-13)
(1.56533403799374e-27 -5.11783399430269e-06 -4.23026446465544e-14)
(1.52805443738461e-27 -5.11903938711386e-06 -4.6082327247529e-13)
(1.49631501788595e-27 -5.12092804242152e-06 5.9982648060911e-13)
(1.45926902655976e-27 -5.12330406273001e-06 1.64314754555221e-12)
(1.42815535790939e-27 -5.12613699517844e-06 9.56923636431102e-13)
(1.39209677765837e-27 -5.12944787065948e-06 3.3632163351149e-13)
(1.36165829647667e-27 -5.13322973455671e-06 7.30466115399281e-13)
(1.3265420106589e-27 -5.13739776829334e-06 6.33681993361229e-13)
(1.2967126454755e-27 -5.14190410661612e-06 -1.14225612985109e-13)
(1.26250381215181e-27 -5.14675312794385e-06 -1.56177210321238e-14)
(1.23329380869043e-27 -5.15198059181356e-06 5.8749761612163e-13)
(1.19997367425596e-27 -5.15755574783868e-06 -4.2406707796584e-13)
(1.17135236238026e-27 -5.16342094933809e-06 -9.71500606303116e-13)
(1.13890792632862e-27 -5.16957048648226e-06 1.40100399902624e-13)
(1.11088597492131e-27 -5.176057478022e-06 9.15372192711912e-14)
(1.07930651426123e-27 -5.18288693430856e-06 -8.65126612894649e-13)
(1.05187694509286e-27 -5.19000329124649e-06 -8.09030935482753e-13)
(1.02115657049458e-27 -5.19740492662732e-06 5.39833358108628e-13)
(9.94327563562447e-28 -5.20513168769441e-06 3.3680169763143e-13)
(9.64467109307493e-28 -5.21322313662981e-06 1.05756965025592e-13)
(9.38244071401248e-28 -5.22165566133494e-06 -3.49382168609621e-14)
(9.09235425462112e-28 -5.23041194043995e-06 -2.45358080030699e-13)
(8.83632056879184e-28 -5.23952173858597e-06 8.23382423309362e-13)
(8.55492023139168e-28 -5.2490752681593e-06 1.61596491041749e-12)
(8.30516798627797e-28 -5.25908981316399e-06 8.48182836922068e-13)
(8.0323495011925e-28 -5.26952746690326e-06 -1.71768672779008e-14)
(7.7890521912058e-28 -5.28040734478977e-06 -1.2722747771251e-13)
(7.52505284400345e-28 -5.29186656723203e-06 -7.21455496823512e-14)
(7.28845758419754e-28 -5.30398639375665e-06 5.12871245055759e-14)
(7.03326023552205e-28 -5.31672784008013e-06 -1.16688596557989e-14)
(6.80345236547015e-28 -5.33012542364038e-06 -4.89162003053873e-13)
(6.55729974394124e-28 -5.34433834556829e-06 -4.83218205654837e-13)
(6.33473967235948e-28 -5.35957413501394e-06 -5.49336457730618e-13)
(6.09772709782613e-28 -5.37586643786778e-06 -6.41368267072183e-13)
(5.88248351834364e-28 -5.39323323257099e-06 3.93139588552316e-14)
(5.65486636999146e-28 -5.41184292609732e-06 -8.51949176298588e-13)
(5.4488832160816e-28 -5.43216366155248e-06 -5.11572496487915e-13)
(5.24104634758206e-28 -5.45440171468548e-06 9.77682026959566e-13)
(4.99376824188565e-28 -5.4785183204234e-06 8.17715925982835e-13)
(4.82633283192235e-28 -5.50470260082939e-06 -7.60159666600803e-13)
(4.59394720306115e-28 -5.53376950693139e-06 -1.53011809846596e-12)
(4.43833380036635e-28 -5.56628803715673e-06 1.54343299138297e-13)
(4.21650302193341e-28 -5.60219102971191e-06 1.62964877223319e-13)
(4.06964151264192e-28 -5.64175019009341e-06 -3.98571553150099e-13)
(3.86117184157219e-28 -5.68599175812649e-06 -4.21242192366525e-13)
(3.72193333827099e-28 -5.73625928060824e-06 1.40248797000718e-13)
(3.52721388222198e-28 -5.79283503762592e-06 3.72089559841744e-13)
(3.39552316250452e-28 -5.85586302549893e-06 3.99802617624187e-13)
(3.21547580704986e-28 -5.9264339020008e-06 6.24974032832522e-13)
(3.0925761275759e-28 -6.00741162583597e-06 -2.81934876380643e-13)
(2.92703588589982e-28 -6.0999714904181e-06 -1.0004893216514e-12)
(2.81305719623153e-28 -6.20382026786117e-06 -7.07859156991001e-13)
(2.66278717050719e-28 -6.31995634458364e-06 1.07390678121831e-12)
(2.55968994465535e-28 -6.45399928108437e-06 1.63049233071757e-12)
(2.42552662679608e-28 -6.61476673075945e-06 1.65540617788305e-12)
(2.3352409309856e-28 -6.81032859164584e-06 5.80964783811363e-13)
(2.22450201928146e-28 -7.04918336392786e-06 -5.76843532316868e-13)
(2.16024404972316e-28 -7.35533043618054e-06 -2.6963486663519e-13)
(2.08458072966052e-28 -7.75206613838161e-06 -8.49726884636927e-13)
(2.05494709710247e-28 -8.23771885230225e-06 -6.65093111514629e-13)
(2.0192972786239e-28 -8.80825178469871e-06 -9.55453757754355e-13)
(2.03366029684685e-28 -9.47722476904757e-06 -1.23129614755433e-12)
(2.03822115880824e-28 -1.02562229778371e-05 3.70592900063267e-13)
(2.09204282394381e-28 -1.11311737970256e-05 6.44709673660569e-13)
(2.13049827905388e-28 -1.20880302226819e-05 -9.25933818313987e-15)
(2.22635617919629e-28 -1.31337243303651e-05 -2.38340871740419e-13)
(2.30049077297428e-28 -1.42672516981397e-05 1.68138546368734e-13)
(2.43300453236489e-28 -1.54649300975485e-05 9.48849121172976e-13)
(2.53144366358452e-28 -1.6709039456023e-05 1.85321916611809e-13)
(2.70025413333134e-28 -1.7993550377755e-05 -1.88095897306258e-12)
(2.8176733334964e-28 -1.93011595050598e-05 -1.54712127753169e-12)
(3.00297014439716e-28 -2.06089165758894e-05 4.96878142543223e-13)
(3.12048080004851e-28 -2.19044727189517e-05 -5.11763902012819e-13)
(3.30897657518392e-28 -2.31657255980157e-05 -4.40245807444707e-13)
(3.39469431270546e-28 -2.4371583677073e-05 2.49464961440735e-15)
(3.56032564550969e-28 -2.55154426810357e-05 -3.12401928308544e-13)
(3.58844858521433e-28 -2.65838538286836e-05 1.37901580892116e-12)
(3.68730955900312e-28 -2.75503541446534e-05 1.08171389684498e-12)
(3.62586608335197e-28 -2.84066835254121e-05 -4.46719554406778e-13)
(3.65541829305459e-28 -2.91594026589236e-05 -1.94093092133089e-13)
(3.47706513650559e-28 -2.97915661269871e-05 4.71684073835797e-13)
(3.38936191548118e-28 -3.02921610746637e-05 -5.13386107294964e-13)
(3.12566598447692e-28 -3.06740930483194e-05 -8.32286885465746e-13)
(2.95996653178233e-28 -3.09488473387274e-05 -7.26942404173686e-14)
(2.75565153381653e-28 -3.11222283392339e-05 1.36544160222892e-12)
(2.84653388807801e-28 -3.12158440168462e-05 1.94355097729099e-12)
(2.85576049072032e-28 -3.12498742337606e-05 5.82123168785349e-13)
(2.78638401123933e-28 -3.12335770323202e-05 -4.95920312973348e-13)
(2.81311925855236e-28 -3.11790773972129e-05 -3.12682661389037e-13)
(2.72378516181306e-28 -3.11007403401768e-05 7.66921189336242e-13)
(2.73403832747647e-28 -3.10070549881431e-05 8.96571643894951e-13)
(2.63767427968635e-28 -3.0903238058247e-05 3.09986102097979e-13)
(2.64241285164824e-28 -3.07941640514464e-05 1.33847872448135e-13)
(2.54580218286169e-28 -3.06834083348877e-05 -7.09675870297745e-13)
(2.55000360741699e-28 -3.0573916166636e-05 -9.23106672923787e-15)
(2.45677775775166e-28 -3.04691500530322e-05 8.93477921519583e-13)
(2.46317056280556e-28 -3.03740278483824e-05 4.86726496431734e-13)
(2.37494014482682e-28 -3.03008755763427e-05 6.27379115191163e-14)
(2.08568393271352e-27 -7.05341197845652e-06 -5.37752712799197e-13)
(2.02386610551012e-27 -7.0508602027616e-06 -5.08864490802659e-13)
(1.98355005068378e-27 -7.05000717975393e-06 -5.75821561709638e-14)
(1.93631103708595e-27 -7.04986487337063e-06 -6.42836452392794e-13)
(1.89651125739009e-27 -7.05029536880761e-06 8.2418249248839e-13)
(1.84962521415225e-27 -7.05113427708836e-06 2.27950539092923e-12)
(1.81056568051824e-27 -7.05235584566745e-06 1.33224054154241e-12)
(1.76488667681218e-27 -7.05397776891899e-06 4.66614022578977e-13)
(1.72662833164752e-27 -7.05599432701772e-06 1.01299381675302e-12)
(1.68210969711042e-27 -7.05833452265482e-06 8.82934066361992e-13)
(1.64458222819462e-27 -7.06095818434321e-06 -1.56940592833518e-13)
(1.60118696469571e-27 -7.06386903172169e-06 -2.44702042854116e-14)
(1.56440536609808e-27 -7.06709714566444e-06 8.18222523781303e-13)
(1.52211362332065e-27 -7.07061687361109e-06 -5.83928737370768e-13)
(1.48604618895945e-27 -7.07437991962534e-06 -1.35215127904057e-12)
(1.44484681798939e-27 -7.07838151916132e-06 1.91865683446533e-13)
(1.40950901190248e-27 -7.08266633746064e-06 1.30990198527519e-13)
(1.36938965375925e-27 -7.08723875365032e-06 -1.19961669551108e-12)
(1.33477662167349e-27 -7.09205225453422e-06 -1.12931554506876e-12)
(1.29573448892623e-27 -7.09710550181727e-06 7.47478325955336e-13)
(1.26185829018115e-27 -7.10243208486502e-06 4.69428803262479e-13)
(1.22389396303333e-27 -7.10806540724094e-06 1.48081620076634e-13)
(1.19076372275121e-27 -7.11398581647788e-06 -4.74661136626941e-14)
(1.15387092599555e-27 -7.12017885381223e-06 -3.44324995426696e-13)
(1.12150553375102e-27 -7.12666968798119e-06 1.13956673676633e-12)
(1.08570444956749e-27 -7.13353432348543e-06 2.24791763918545e-12)
(1.0541153164684e-27 -7.14078757128047e-06 1.18439354919745e-12)
(1.01939563392972e-27 -7.14839775972035e-06 -2.14712271081294e-14)
(9.88606497955829e-28 -7.15638112094165e-06 -1.76910064985e-13)
(9.54996827664928e-28 -7.16485320889881e-06 -1.0089885057482e-13)
(9.25037848202208e-28 -7.17388277110454e-06 7.12750435768362e-14)
(8.92538041364661e-28 -7.18343737485033e-06 -1.46395090117899e-14)
(8.63422924829827e-28 -7.19354628419481e-06 -6.79794269328461e-13)
(8.32061889978274e-28 -7.2043438331032e-06 -6.72489881227149e-13)
(8.03844667026066e-28 -7.21600521635276e-06 -7.64393820389045e-13)
(7.73635042383254e-28 -7.22855939416373e-06 -8.94789396498492e-13)
(7.4632903583086e-28 -7.2420219497351e-06 5.57539481729858e-14)
(7.17301348978809e-28 -7.25653519369399e-06 -1.18557743838671e-12)
(6.91127076452901e-28 -7.27249408616929e-06 -7.17329097195763e-13)
(6.64483311738749e-28 -7.29007355230091e-06 1.35929821119456e-12)
(6.33604897360821e-28 -7.30924181204027e-06 1.14374456938051e-12)
(6.11756349709034e-28 -7.33015889041095e-06 -1.05402812406139e-12)
(5.82678298022967e-28 -7.35351251383207e-06 -2.13508623363334e-12)
(5.62261457845573e-28 -7.37978415250594e-06 2.1169158925363e-13)
(5.34495133927055e-28 -7.40891890500284e-06 2.28505321474001e-13)
(5.15183450830665e-28 -7.4411467663649e-06 -5.54507094411892e-13)
(4.89039803414616e-28 -7.47733449349238e-06 -5.88620308334599e-13)
(4.70712573234851e-28 -7.51861768160164e-06 1.93955900779148e-13)
(4.46242321219263e-28 -7.56523760420844e-06 5.18438481356199e-13)
(4.28899509105174e-28 -7.61731757633483e-06 5.57114301563474e-13)
(4.06209628489437e-28 -7.67577935104228e-06 8.73411358949415e-13)
(3.89991953486781e-28 -7.74304238941352e-06 -3.90114692483984e-13)
(3.69071344981e-28 -7.82010431847283e-06 -1.39532176363723e-12)
(3.54005489995998e-28 -7.90672142294094e-06 -9.92084629654064e-13)
(3.34946231654321e-28 -8.00373710689144e-06 1.49445191193907e-12)
(3.21252430296312e-28 -8.11589626910191e-06 2.27499494729354e-12)
(3.04157615645656e-28 -8.25064990919144e-06 2.31333285197105e-12)
(2.92081514568307e-28 -8.41482240381672e-06 8.15592113207092e-13)
(2.77790668856624e-28 -8.61559119459914e-06 -8.04098481464691e-13)
(2.68815994050986e-28 -8.87321698296024e-06 -3.76064167077025e-13)
(2.5864242659664e-28 -9.20740190497598e-06 -1.18639296069192e-12)
(2.53783567142323e-28 -9.61677039761247e-06 -9.28982792270077e-13)
(2.48324120900159e-28 -1.00978887019885e-05 -1.33383428972183e-12)
(2.48591599497434e-28 -1.06621659454381e-05 -1.72386445966068e-12)
(2.47833851637153e-28 -1.13193979410672e-05 5.13488209943266e-13)
(2.52747592434676e-28 -1.20577145483987e-05 9.01731116792743e-13)
(2.55991480416832e-28 -1.28651743511569e-05 -1.0738714173469e-14)
(2.65726923969061e-28 -1.37475427607427e-05 -3.33453070622558e-13)
(2.73046903923305e-28 -1.47039694846664e-05 2.31669191547853e-13)
(2.87035406356345e-28 -1.57144402515803e-05 1.32480042200689e-12)
(2.97202504074216e-28 -1.67638907676713e-05 2.66518399626356e-13)
(3.15234000339563e-28 -1.7847160522322e-05 -2.61992818027711e-12)
(3.27511600260651e-28 -1.89496325847099e-05 -2.16450471038399e-12)
(3.47524498852779e-28 -2.00518844517579e-05 6.90003275857929e-13)
(3.59749720489041e-28 -2.11434554415501e-05 -7.10562449543249e-13)
(3.80096992080716e-28 -2.22057091780149e-05 -6.14497018203129e-13)
(3.88854892467486e-28 -2.32208116910803e-05 3.18184344800675e-15)
(4.06549845142845e-28 -2.41831648006574e-05 -4.38279276904422e-13)
(4.08826228219463e-28 -2.50814945985378e-05 1.91337497933706e-12)
(4.19218680660181e-28 -2.58935292155476e-05 1.50711396953988e-12)
(4.11576865113525e-28 -2.66122364569925e-05 -6.17425885354186e-13)
(4.13861704250037e-28 -2.72431164540081e-05 -2.71226787822356e-13)
(3.93426675016639e-28 -2.77719285921143e-05 6.54441141883997e-13)
(3.82927092806576e-28 -2.81893220615391e-05 -7.08694883304053e-13)
(3.52683748554435e-28 -2.85060792864363e-05 -1.15294062364967e-12)
(3.33504104938146e-28 -2.87323293369117e-05 -1.03886243492118e-13)
(3.10628231401187e-28 -2.88744269426112e-05 1.88627517318889e-12)
(3.20790464245443e-28 -2.8951701823647e-05 2.68942736397385e-12)
(3.2197807271965e-28 -2.89800337462116e-05 8.06906402976216e-13)
(3.14440176521195e-28 -2.89666240062615e-05 -6.86148644182225e-13)
(3.17565721086587e-28 -2.89214390521339e-05 -4.33641352883462e-13)
(3.07689600671653e-28 -2.88563891740627e-05 1.06218644547947e-12)
(3.08957834894103e-28 -2.87785205764511e-05 1.24262121786581e-12)
(2.98253217217813e-28 -2.8692181003793e-05 4.29831211097715e-13)
(2.98865243316774e-28 -2.86014372834595e-05 1.85771728389026e-13)
(2.88114116003938e-28 -2.85092722211052e-05 -9.84080042361844e-13)
(2.88657403960983e-28 -2.8418150168376e-05 -1.29500836621936e-14)
(2.78308430765813e-28 -2.8330967004194e-05 1.23942804814963e-12)
(2.79190738531678e-28 -2.82517639268967e-05 6.75510447861576e-13)
(2.69686587879043e-28 -2.81904423870983e-05 8.71829760692062e-14)
(2.3170201217334e-27 -8.95266882864105e-06 -6.85026101294151e-13)
(2.25699069153195e-27 -8.94952257945296e-06 -6.50917341719925e-13)
(2.21193090957967e-27 -8.94792090054797e-06 -7.14996529662484e-14)
(2.15993845949926e-27 -8.94689252177841e-06 -8.25348402783948e-13)
(2.11547527340296e-27 -8.9463281291936e-06 1.03692184123329e-12)
(2.0639239549794e-27 -8.94609427109398e-06 2.90514351195208e-12)
(2.02025745631915e-27 -8.94616978089157e-06 1.70587092031838e-12)
(1.96997255081619e-27 -8.94656905048353e-06 5.9473243195675e-13)
(1.92716880184189e-27 -8.94728759159431e-06 1.29022472303844e-12)
(1.87810848917151e-27 -8.94826794189116e-06 1.13158391992739e-12)
(1.83610044001262e-27 -8.94947745239189e-06 -1.97362919269421e-13)
(1.78823097222652e-27 -8.95091913390266e-06 -3.59426891941281e-14)
(1.74703691017257e-27 -8.95261747889656e-06 1.0478630403882e-12)
(1.70034053828517e-27 -8.95455183868992e-06 -7.36510223266332e-13)
(1.65993093124335e-27 -8.95668306424721e-06 -1.7300126863505e-12)
(1.61440117001037e-27 -8.95900725506943e-06 2.40182164622802e-13)
(1.5747947895187e-27 -8.96156073073795e-06 1.73605034830537e-13)
(1.53041985591221e-27 -8.96434723817229e-06 -1.52707709208511e-12)
(1.49161431727742e-27 -8.96732911722808e-06 -1.45017230420732e-12)
(1.44839644996425e-27 -8.970505260235e-06 9.49636812024482e-13)
(1.41040639962482e-27 -8.97390302764565e-06 6.0154042871234e-13)
(1.36834671768773e-27 -8.97754972427501e-06 1.90888799613142e-13)
(1.33118386114964e-27 -8.98142955131089e-06 -5.87387176391477e-14)
(1.29028012266877e-27 -8.98553081431506e-06 -4.45094009478153e-13)
(1.2539665591334e-27 -8.98987404825401e-06 1.44658407193039e-12)
(1.21424123762643e-27 -8.9945211873859e-06 2.87261210040718e-12)
(1.17878971603775e-27 -8.99948454437905e-06 1.52100863708222e-12)
(1.14023502160508e-27 -9.00473852999766e-06 -2.33878233021373e-14)
(1.10567325403854e-27 -9.01029639834257e-06 -2.25915124509459e-13)
(1.06832076401929e-27 -9.01625230025551e-06 -1.29815453536803e-13)
(1.03468070472351e-27 -9.02266254470309e-06 9.09424914743021e-14)
(9.98533277830243e-28 -9.02950105464777e-06 -1.60547037076583e-14)
(9.6583253724752e-28 -9.03679174710703e-06 -8.67355674530738e-13)
(9.30921670020796e-28 -9.04464417677066e-06 -8.59578756204408e-13)
(8.99215729505641e-28 -9.05320140585645e-06 -9.76820238279159e-13)
(8.65557189974535e-28 -9.0624875896161e-06 -1.1472918221621e-12)
(8.34864726896739e-28 -9.07251573549102e-06 7.29948482323321e-14)
(8.02492325905206e-28 -9.08340198421656e-06 -1.51505423723338e-12)
(7.73034184799e-28 -9.09546855236137e-06 -9.25557811828217e-13)
(7.43120331389669e-28 -9.10885902807405e-06 1.73486960411427e-12)
(7.09194561780617e-28 -9.12354824789949e-06 1.47093084047723e-12)
(6.84120800669485e-28 -9.13966690096881e-06 -1.34050685663389e-12)