/*--------------------------------*- C++ -*----------------------------------*\
| =========                 |                                                 |
| \\      /  F ield         | foam-extend: Open Source CFD                    |
|  \\    /   O peration     | Version:     4.1-20200408                       |
|   \\  /    A nd           | Web:         http://www.foam-extend.org         |
|    \\/     M anipulation  |                                                 |
\*---------------------------------------------------------------------------*/
FoamFile
{
    version     2.0;
    format      ascii;
    class       volSymmTensorField;
    location    "0.0665000";
    object      bEbar;
}
// * * * * * * * * * * * * * * * * * * * * * * * * * * * * * * * * * * * * * //

dimensions      [0 0 0 0 0 0 0];

internalField   nonuniform List<symmTensor> 
1952
(
(0.995155 1.05408e-05 -7.02686e-11 1.00239 -1.54658e-11 1.00247)
(0.995345 -1.01174e-06 -4.83261e-11 1.0022 4.03094e-11 1.00247)
(0.995526 1.81409e-05 5.16932e-11 1.00202 1.13638e-10 1.00247)
(0.995847 4.27484e-06 1.46884e-10 1.00173 -1.19636e-10 1.00244)
(0.996257 2.58469e-05 -4.23207e-11 1.00139 -3.01658e-10 1.00236)
(0.996769 1.26199e-05 -2.1621e-10 1.00097 3.28445e-11 1.00227)
(0.997317 3.41456e-05 -5.4389e-11 1.00053 4.57934e-10 1.00216)
(0.998061 2.28982e-05 1.10659e-10 0.999957 -3.80877e-11 1.00199)
(0.99898 4.51681e-05 -2.02268e-11 0.999341 -4.96921e-10 1.00168)
(1.00032 3.71396e-05 -1.1123e-10 0.99841 2.65747e-10 1.00127)
(1.00191 6.1755e-05 1.50848e-11 0.99744 5.48417e-10 1.00066)
(1.00406 5.74645e-05 6.83977e-11 0.995903 -2.71932e-10 1.00005)
(1.00678 8.67149e-05 -8.18609e-12 0.994301 -5.25977e-10 0.998962)
(1.00913 9.49921e-05 -9.83645e-11 0.992213 2.8011e-10 0.998728)
(1.01002 0.000141647 -2.60425e-11 0.991296 1.91417e-10 0.998773)
(0.995145 -2.09682e-06 -1.62011e-11 1.00242 5.12902e-11 1.00245)
(0.995129 2.49115e-05 -1.40599e-10 1.0024 -1.61693e-11 1.00249)
(0.995319 3.53864e-06 -9.66718e-11 1.00222 4.08249e-11 1.00248)
(0.995501 4.49049e-05 1.03455e-10 1.00203 1.16808e-10 1.00248)
(0.995822 1.85705e-05 2.93847e-10 1.00174 -1.19567e-10 1.00245)
(0.996234 6.50462e-05 -8.46945e-11 1.0014 -3.07358e-10 1.00237)
(0.996746 4.00357e-05 -4.3277e-10 1.00098 2.99163e-11 1.00228)
(0.997296 8.66175e-05 -1.08802e-10 1.00054 4.64307e-10 1.00217)
(0.998042 6.49948e-05 2.21231e-10 0.999965 -3.48113e-11 1.002)
(0.998965 0.000112333 -4.04569e-11 0.999346 -5.02546e-10 1.00169)
(1.00031 9.6568e-05 -2.22169e-10 0.998412 2.64856e-10 1.00128)
(1.0019 0.000146018 3.00901e-11 0.997437 5.53244e-10 1.00066)
(1.00406 0.000131555 1.35479e-10 0.995894 -2.71895e-10 1.00006)
(1.00679 0.000178816 -1.63448e-11 0.994283 -5.30846e-10 0.998968)
(1.00916 0.000165455 -1.92283e-10 0.992182 2.79735e-10 0.998735)
(1.01006 0.000193024 -4.80031e-11 0.991251 1.93126e-10 0.99878)
(0.995118 -2.78657e-06 -3.2411e-11 1.00244 5.32023e-11 1.00246)
(0.995115 2.79896e-05 -1.40668e-10 1.00241 -1.64171e-11 1.0025)
(0.995305 7.72781e-06 -9.66765e-11 1.00222 4.12791e-11 1.00249)
(0.995488 5.17899e-05 1.03518e-10 1.00204 1.18282e-10 1.00249)
(0.99581 2.63026e-05 2.93784e-10 1.00175 -1.20365e-10 1.00246)
(0.996223 7.60105e-05 -8.47606e-11 1.00141 -3.10098e-10 1.00238)
(0.996737 5.17888e-05 -4.32645e-10 1.00098 2.97721e-11 1.00229)
(0.997288 0.000100714 -1.0898e-10 1.00054 4.67601e-10 1.00218)
(0.998036 7.94878e-05 2.20712e-10 0.999965 -3.43006e-11 1.002)
(0.998962 0.000128703 -4.04879e-11 0.999344 -5.05066e-10 1.0017)
(1.00031 0.000112747 -2.2164e-10 0.998407 2.65363e-10 1.00128)
(1.00191 0.000162735 3.04341e-11 0.99743 5.55437e-10 1.00067)
(1.00407 0.000146282 1.34526e-10 0.995884 -2.72098e-10 1.00007)
(1.00679 0.000191619 -1.63485e-11 0.994271 -5.32926e-10 0.998975)
(1.00916 0.000173635 -1.91662e-10 0.992172 2.79186e-10 0.998745)
(1.01004 0.000195432 -4.80194e-11 0.991252 1.93689e-10 0.998795)
(0.995104 -1.78455e-06 -3.24356e-11 1.00244 5.42323e-11 1.00247)
(0.995108 3.05084e-05 -1.40754e-10 1.00241 -1.65859e-11 1.0025)
(0.995299 1.11123e-05 -9.6686e-11 1.00223 4.16349e-11 1.00249)
(0.995482 5.72947e-05 1.03592e-10 1.00204 1.19329e-10 1.00249)
(0.995806 3.24008e-05 2.93731e-10 1.00175 -1.20975e-10 1.00246)
(0.996221 8.41957e-05 -8.48445e-11 1.00141 -3.12001e-10 1.00238)
(0.996734 6.02431e-05 -4.32849e-10 1.00098 2.97697e-11 1.00229)
(0.997287 0.000110975 -1.09136e-10 1.00054 4.69987e-10 1.00218)
(0.998037 8.96355e-05 2.20242e-10 0.999961 -3.40258e-11 1.00201)
(0.998965 0.000139848 -4.05196e-11 0.999338 -5.06835e-10 1.0017)
(1.00032 0.000123153 -2.21004e-10 0.998399 2.65659e-10 1.00129)
(1.00191 0.000173108 3.06518e-11 0.997421 5.56769e-10 1.00067)
(1.00407 0.000154044 1.33806e-10 0.995874 -2.72225e-10 1.00007)
(1.0068 0.000196824 -1.6355e-11 0.99426 -5.341e-10 0.998977)
(1.00916 0.000174156 -1.91376e-10 0.992163 2.79058e-10 0.998751)
(1.01004 0.000194557 -4.83681e-11 0.991248 1.94061e-10 0.998802)
(0.995097 -9.85509e-07 -3.2473e-11 1.00245 5.49731e-11 1.00247)
(0.995107 3.24505e-05 -1.40841e-10 1.00241 -1.66938e-11 1.0025)
(0.995299 1.37223e-05 -9.6692e-11 1.00223 4.19058e-11 1.00249)
(0.995483 6.13727e-05 1.03659e-10 1.00204 1.20013e-10 1.00249)
(0.995808 3.70101e-05 2.93655e-10 1.00175 -1.2154e-10 1.00246)
(0.996224 9.01688e-05 -8.4921e-11 1.00141 -3.1324e-10 1.00238)
(0.996738 6.67022e-05 -4.32793e-10 1.00098 2.98581e-11 1.00229)
(0.997293 0.000118211 -1.09382e-10 1.00054 4.7131e-10 1.00218)
(0.998044 9.67832e-05 2.19684e-10 0.999955 -3.40786e-11 1.00201)
(0.998975 0.000147041 -4.05623e-11 0.99933 -5.07764e-10 1.0017)
(1.00033 0.000129718 -2.20568e-10 0.998389 2.66051e-10 1.00128)
(1.00192 0.000178249 3.10509e-11 0.99741 5.5761e-10 1.00067)
(1.00408 0.00015734 1.32983e-10 0.995863 -2.72202e-10 1.00007)
(1.00681 0.000198164 -1.63572e-11 0.994249 -5.34778e-10 0.998979)
(1.00916 0.000173769 -1.91222e-10 0.992156 2.78806e-10 0.998754)
(1.01003 0.00019367 -4.86523e-11 0.991248 1.94253e-10 0.998808)
(0.995096 -3.67547e-07 -3.25095e-11 1.00245 5.5468e-11 1.00247)
(0.995113 3.39089e-05 -1.40946e-10 1.00241 -1.67623e-11 1.0025)
(0.995305 1.55357e-05 -9.67062e-11 1.00222 4.20296e-11 1.00249)
(0.99549 6.43417e-05 1.03736e-10 1.00204 1.20379e-10 1.00249)
(0.995815 4.02052e-05 2.93546e-10 1.00174 -1.21718e-10 1.00246)
(0.996234 9.43715e-05 -8.5015e-11 1.0014 -3.13827e-10 1.00238)
(0.996747 7.06777e-05 -4.32846e-10 1.00097 2.99361e-11 1.00229)
(0.997302 0.00012242 -1.09596e-10 1.00053 4.72169e-10 1.00218)
(0.998055 0.0001006 2.19084e-10 0.999946 -3.41437e-11 1.002)
(0.998987 0.000150423 -4.06025e-11 0.99932 -5.0831e-10 1.0017)
(1.00034 0.000131944 -2.19699e-10 0.998378 2.66197e-10 1.00128)
(1.00194 0.000179347 3.14753e-11 0.997399 5.57923e-10 1.00067)
(1.0041 0.000157018 1.32421e-10 0.995853 -2.72211e-10 1.00007)
(1.00682 0.000196513 -1.636e-11 0.99424 -5.34972e-10 0.998977)
(1.00917 0.00017129 -1.91187e-10 0.99215 2.78836e-10 0.998755)
(1.01003 0.000192271 -4.89411e-11 0.991247 1.94309e-10 0.998812)
(0.995102 5.15898e-08 -3.25492e-11 1.00245 5.57129e-11 1.00247)
(0.995122 3.49167e-05 -1.41043e-10 1.0024 -1.67972e-11 1.00249)
(0.995314 1.65886e-05 -9.67104e-11 1.00222 4.21016e-11 1.00248)
(0.9955 6.62426e-05 1.0381e-10 1.00203 1.20542e-10 1.00249)
(0.995826 4.19705e-05 2.93465e-10 1.00174 -1.21853e-10 1.00245)
(0.996246 9.64521e-05 -8.51036e-11 1.00139 -3.14043e-10 1.00237)
(0.996759 7.24554e-05 -4.32968e-10 1.00096 2.99527e-11 1.00229)
(0.997316 0.00012423 -1.09883e-10 1.00052 4.72394e-10 1.00217)
(0.998069 0.000101761 2.18539e-10 0.999936 -3.41491e-11 1.002)
(0.999002 0.000150799 -4.06467e-11 0.99931 -5.08319e-10 1.00169)
(1.00036 0.000131589 -2.1931e-10 0.998367 2.66093e-10 1.00127)
(1.00195 0.000178089 3.19013e-11 0.997389 5.57836e-10 1.00067)
(1.00411 0.000154901 1.31742e-10 0.995843 -2.7201e-10 1.00007)
(1.00683 0.000193431 -1.63617e-11 0.994231 -5.34811e-10 0.998975)
(1.00917 0.000168358 -1.91168e-10 0.992145 2.78906e-10 0.998755)
(1.01003 0.000190658 -4.92193e-11 0.991246 1.9429e-10 0.998814)
(0.995111 2.73719e-07 -3.25592e-11 1.00244 5.58173e-11 1.00247)
(0.995135 3.53574e-05 -1.41157e-10 1.0024 -1.68012e-11 1.00249)
(0.995328 1.66585e-05 -9.67224e-11 1.00221 4.20789e-11 1.00248)
(0.995514 6.67888e-05 1.03886e-10 1.00202 1.20473e-10 1.00248)
(0.995841 4.19862e-05 2.9333e-10 1.00173 -1.21791e-10 1.00245)
(0.996262 9.68267e-05 -8.51995e-11 1.00138 -3.13811e-10 1.00237)
(0.996774 7.23362e-05 -4.32889e-10 1.00095 2.99719e-11 1.00228)
(0.997331 0.000123911 -1.10167e-10 1.00051 4.72192e-10 1.00217)
(0.998085 0.000100664 2.17905e-10 0.999927 -3.42652e-11 1.00199)
(0.999019 0.00014926 -4.06923e-11 0.999299 -5.08012e-10 1.00168)
(1.00038 0.000129184 -2.1861e-10 0.998356 2.66038e-10 1.00127)
(1.00197 0.000174625 3.23881e-11 0.997379 5.5751e-10 1.00066)
(1.00412 0.000151018 1.31178e-10 0.995834 -2.71865e-10 1.00006)
(1.00685 0.000189441 -1.63594e-11 0.994223 -5.34477e-10 0.998971)
(1.00918 0.000165365 -1.91172e-10 0.99214 2.79042e-10 0.998754)
(1.01003 0.00018929 -4.94422e-11 0.991245 1.94197e-10 0.998814)
(0.995123 2.39628e-07 -3.26003e-11 1.00243 5.57417e-11 1.00246)
(0.99515 3.54377e-05 -1.41265e-10 1.00239 -1.6781e-11 1.00248)
(0.995343 1.61962e-05 -9.67321e-11 1.0022 4.19957e-11 1.00247)
(0.99553 6.65902e-05 1.03963e-10 1.00201 1.20256e-10 1.00247)
(0.995857 4.11919e-05 2.93248e-10 1.00172 -1.2158e-10 1.00244)
(0.996279 9.60068e-05 -8.52928e-11 1.00137 -3.13307e-10 1.00236)
(0.996791 7.06911e-05 -4.32949e-10 1.00094 3.00072e-11 1.00227)
(0.997347 0.000121923 -1.10456e-10 1.0005 4.71756e-10 1.00216)
(0.998102 9.81587e-05 2.17363e-10 0.999916 -3.43682e-11 1.00199)
(0.999036 0.00014604 -4.07369e-11 0.999289 -5.07529e-10 1.00168)
(1.0004 0.000125475 -2.18019e-10 0.998346 2.65898e-10 1.00126)
(1.00198 0.000170291 3.29049e-11 0.997369 5.57034e-10 1.00066)
(1.00413 0.000146681 1.30583e-10 0.995826 -2.7171e-10 1.00006)
(1.00686 0.000185133 -1.63578e-11 0.994216 -5.33962e-10 0.998966)
(1.00919 0.000162309 -1.91053e-10 0.992135 2.79263e-10 0.998751)
(1.01003 0.000187836 -4.96455e-11 0.991242 1.94041e-10 0.998813)
(0.995138 5.53125e-08 -3.26255e-11 1.00243 5.55565e-11 1.00245)
(0.995166 3.52308e-05 -1.41368e-10 1.00238 -1.67495e-11 1.00247)
(0.99536 1.51724e-05 -9.67309e-11 1.0022 4.18828e-11 1.00246)
(0.995547 6.58071e-05 1.04029e-10 1.00201 1.19957e-10 1.00246)
(0.995875 3.94761e-05 2.93066e-10 1.00171 -1.21318e-10 1.00243)
(0.996298 9.42245e-05 -8.53877e-11 1.00136 -3.12646e-10 1.00235)
(0.996808 6.80232e-05 -4.32944e-10 1.00093 2.99557e-11 1.00227)
(0.997365 0.00011887 -1.10779e-10 1.00049 4.71128e-10 1.00215)
(0.998119 9.42448e-05 2.16687e-10 0.999906 -3.43615e-11 1.00198)
(0.999053 0.000141492 -4.07838e-11 0.999279 -5.06867e-10 1.00167)
(1.00041 0.00012044 -2.1738e-10 0.998336 2.6554e-10 1.00125)
(1.002 0.000165211 3.33921e-11 0.99736 5.56302e-10 1.00065)
(1.00415 0.000141952 1.29988e-10 0.995818 -2.71473e-10 1.00005)
(1.00687 0.000180717 -1.6355e-11 0.994208 -5.33265e-10 0.998961)
(1.0092 0.000159238 -1.91005e-10 0.992129 2.79569e-10 0.998748)
(1.01004 0.000186413 -4.98254e-11 0.991239 1.93866e-10 0.998811)
(0.995155 -2.86528e-07 -3.26302e-11 1.00242 5.53056e-11 1.00244)
(0.995184 3.4626e-05 -1.4147e-10 1.00237 -1.67017e-11 1.00246)
(0.995377 1.3545e-05 -9.67353e-11 1.00219 4.17406e-11 1.00245)
(0.995565 6.40347e-05 1.04099e-10 1.002 1.19562e-10 1.00245)
(0.995893 3.6654e-05 2.92956e-10 1.0017 -1.21029e-10 1.00242)
(0.996316 9.11696e-05 -8.54784e-11 1.00135 -3.11823e-10 1.00234)
(0.996826 6.42667e-05 -4.32886e-10 1.00092 2.99316e-11 1.00226)
(0.997382 0.000114846 -1.11101e-10 1.00048 4.7024e-10 1.00214)
(0.998137 8.96716e-05 2.16135e-10 0.999896 -3.44533e-11 1.00197)
(0.999071 0.000136665 -4.08262e-11 0.999269 -5.06019e-10 1.00166)
(1.00043 0.00011558 -2.16912e-10 0.998325 2.65333e-10 1.00125)
(1.00201 0.000159874 3.38985e-11 0.997351 5.55577e-10 1.00064)
(1.00416 0.00013694 1.29347e-10 0.995809 -2.71272e-10 1.00005)
(1.00689 0.000176272 -1.6349e-11 0.994201 -5.3258e-10 0.998955)
(1.00921 0.000156526 -1.90859e-10 0.992123 2.79849e-10 0.998744)
(1.01005 0.000185189 -4.99732e-11 0.991236 1.9366e-10 0.998808)
(0.995172 -7.82755e-07 -3.26839e-11 1.00241 5.49881e-11 1.00244)
(0.995202 3.38963e-05 -1.41576e-10 1.00236 -1.66449e-11 1.00245)
(0.995395 1.16696e-05 -9.67323e-11 1.00218 4.1561e-11 1.00244)
(0.995583 6.21285e-05 1.04162e-10 1.00199 1.19102e-10 1.00245)
(0.995911 3.36534e-05 2.92741e-10 1.00169 -1.2061e-10 1.00241)
(0.996336 8.81178e-05 -8.55739e-11 1.00134 -3.10867e-10 1.00233)
(0.996843 6.01595e-05 -4.32744e-10 1.00091 2.99271e-11 1.00225)
(0.9974 0.00011024 -1.1143e-10 1.00047 4.69389e-10 1.00214)
(0.998154 8.46266e-05 2.15407e-10 0.999887 -3.45392e-11 1.00196)
(0.999088 0.000131139 -4.08691e-11 0.999259 -5.05221e-10 1.00165)
(1.00045 0.000109932 -2.16081e-10 0.998316 2.65071e-10 1.00124)
(1.00203 0.000154245 3.44586e-11 0.997343 5.54787e-10 1.00064)
(1.00418 0.0001321 1.28715e-10 0.995801 -2.71129e-10 1.00004)
(1.0069 0.00017203 -1.63444e-11 0.994193 -5.31819e-10 0.998948)
(1.00922 0.000153926 -1.9062e-10 0.992117 2.80243e-10 0.99874)
(1.01005 0.000183951 -5.01005e-11 0.991231 1.93432e-10 0.998805)
(0.99519 -1.36179e-06 -3.27087e-11 1.0024 5.46177e-11 1.00243)
(0.995219 3.29816e-05 -1.41671e-10 1.00235 -1.65899e-11 1.00245)
(0.995412 9.51126e-06 -9.67238e-11 1.00217 4.13945e-11 1.00244)
(0.9956 5.98302e-05 1.04217e-10 1.00198 1.18661e-10 1.00244)
(0.995929 3.01385e-05 2.92573e-10 1.00168 -1.20246e-10 1.0024)
(0.996354 8.42494e-05 -8.5663e-11 1.00133 -3.09955e-10 1.00232)
(0.996861 5.54644e-05 -4.32741e-10 1.00091 2.98367e-11 1.00224)
(0.997417 0.000105332 -1.11769e-10 1.00046 4.6847e-10 1.00213)
(0.998171 7.91681e-05 2.14785e-10 0.999877 -3.44787e-11 1.00196)
(0.999106 0.000125334 -4.09089e-11 0.99925 -5.04326e-10 1.00165)
(1.00047 0.000104373 -2.15631e-10 0.998306 2.6462e-10 1.00123)
(1.00204 0.000148979 3.4922e-11 0.997334 5.5389e-10 1.00063)
(1.00419 0.000127587 1.28021e-10 0.995793 -2.70844e-10 1.00003)
(1.00692 0.000168029 -1.63384e-11 0.994185 -5.30983e-10 0.998942)
(1.00923 0.000151352 -1.90413e-10 0.992109 2.80652e-10 0.998735)
(1.01006 0.000182645 -5.02299e-11 0.991225 1.93217e-10 0.998802)
(0.995207 -2.01422e-06 -3.27549e-11 1.00239 5.42622e-11 1.00242)
(0.995236 3.18917e-05 -1.41763e-10 1.00234 -1.65276e-11 1.00244)
(0.995429 6.98687e-06 -9.67095e-11 1.00216 4.12173e-11 1.00243)
(0.995618 5.70474e-05 1.04269e-10 1.00197 1.18178e-10 1.00243)
(0.995946 2.60004e-05 2.92307e-10 1.00167 -1.19881e-10 1.0024)
(0.996372 8.00272e-05 -8.57481e-11 1.00132 -3.08978e-10 1.00232)
(0.996877 5.04713e-05 -4.3242e-10 1.0009 2.9811e-11 1.00223)
(0.997434 0.000100056 -1.12135e-10 1.00045 4.67474e-10 1.00212)
(0.998188 7.3564e-05 2.14001e-10 0.999868 -3.45827e-11 1.00195)
(0.999123 0.000119724 -4.0952e-11 0.999241 -5.03409e-10 1.00164)
(1.00048 9.91091e-05 -2.14928e-10 0.998296 2.6441e-10 1.00122)
(1.00206 0.0001434 3.54787e-11 0.997325 5.53103e-10 1.00062)
(1.00421 0.000122918 1.27288e-10 0.995784 -2.70628e-10 1.00003)
(1.00693 0.000164116 -1.633e-11 0.994176 -5.30267e-10 0.998935)
(1.00924 0.000149198 -1.90134e-10 0.992101 2.80996e-10 0.998731)
(1.01007 0.000181644 -5.03217e-11 0.991219 1.92996e-10 0.998798)
(0.995224 -2.76748e-06 -3.2774e-11 1.00238 5.38784e-11 1.00241)
(0.995251 3.07206e-05 -1.41854e-10 1.00234 -1.64699e-11 1.00243)
(0.995445 4.41342e-06 -9.6696e-11 1.00215 4.10319e-11 1.00242)
(0.995634 5.42658e-05 1.04323e-10 1.00196 1.17721e-10 1.00242)
(0.995962 2.20107e-05 2.92075e-10 1.00166 -1.19433e-10 1.00239)
(0.99639 7.58754e-05 -8.58398e-11 1.00131 -3.08037e-10 1.00231)
(0.996893 4.52897e-05 -4.32288e-10 1.00089 2.9793e-11 1.00223)
(0.99745 9.45837e-05 -1.12467e-10 1.00044 4.66692e-10 1.00211)
(0.998203 6.79776e-05 2.13263e-10 0.999859 -3.4613e-11 1.00194)
(0.999139 0.000113864 -4.09897e-11 0.999231 -5.02657e-10 1.00163)
(1.0005 9.36003e-05 -2.14122e-10 0.998287 2.64105e-10 1.00121)
(1.00207 0.0001381 3.60296e-11 0.997316 5.52334e-10 1.00062)
(1.00422 0.000118703 1.26593e-10 0.995775 -2.70444e-10 1.00002)
(1.00695 0.000160432 -1.63208e-11 0.994167 -5.29525e-10 0.998929)
(1.00926 0.000146932 -1.89819e-10 0.992093 2.81406e-10 0.998727)
(1.01008 0.000180538 -5.04118e-11 0.991212 1.92768e-10 0.998795)
(0.99524 -3.54013e-06 -3.28045e-11 1.00238 5.35068e-11 1.0024)
(0.995266 2.95812e-05 -1.41927e-10 1.00233 -1.64235e-11 1.00242)
(0.995459 1.73878e-06 -9.66561e-11 1.00214 4.08884e-11 1.00241)
(0.995649 5.14883e-05 1.04358e-10 1.00195 1.17343e-10 1.00241)
(0.995977 1.77615e-05 2.91734e-10 1.00165 -1.1911e-10 1.00238)
(0.996406 7.13594e-05 -8.59251e-11 1.0013 -3.07247e-10 1.0023)
(0.996908 3.98789e-05 -4.32066e-10 1.00088 2.96917e-11 1.00222)
(0.997465 8.89961e-05 -1.12872e-10 1.00043 4.65932e-10 1.00211)
(0.998219 6.19577e-05 2.1238e-10 0.99985 -3.45207e-11 1.00193)
(0.999155 0.000107642 -4.10322e-11 0.999222 -5.01885e-10 1.00162)
(1.00052 8.78883e-05 -2.13459e-10 0.998277 2.63652e-10 1.00121)
(1.00209 0.000132764 3.65388e-11 0.997307 5.51522e-10 1.00061)
(1.00424 0.000114493 1.2582e-10 0.995766 -2.70135e-10 1.00001)
(1.00696 0.000156785 -1.6312e-11 0.994157 -5.28796e-10 0.998922)
(1.00927 0.000144732 -1.89618e-10 0.992083 2.81774e-10 0.998722)
(1.0101 0.00017953 -5.04917e-11 0.991204 1.92568e-10 0.998791)
(0.995254 -4.34715e-06 -3.28246e-11 1.00237 5.31955e-11 1.00239)
(0.995279 2.81428e-05 -1.4202e-10 1.00232 -1.63774e-11 1.00242)
(0.995473 -1.36688e-06 -9.66356e-11 1.00214 4.07488e-11 1.00241)
(0.995662 4.79803e-05 1.04399e-10 1.00194 1.16972e-10 1.00241)
(0.995991 1.28041e-05 2.91451e-10 1.00165 -1.1881e-10 1.00237)
(0.99642 6.62446e-05 -8.60116e-11 1.0013 -3.06488e-10 1.00229)
(0.996922 3.40697e-05 -4.3173e-10 1.00087 2.9668e-11 1.00221)
(0.997479 8.31219e-05 -1.1325e-10 1.00042 4.65216e-10 1.0021)
(0.998233 5.60191e-05 2.11548e-10 0.999842 -3.45969e-11 1.00193)
(0.999171 0.000101939 -4.10724e-11 0.999214 -5.01183e-10 1.00162)
(1.00054 8.2742e-05 -2.12641e-10 0.998267 2.63506e-10 1.0012)
(1.0021 0.000127173 3.7106e-11 0.997297 5.50919e-10 1.0006)
(1.00425 0.000109964 1.25082e-10 0.995756 -2.69979e-10 1.00001)
(1.00698 0.000152967 -1.62986e-11 0.994146 -5.28232e-10 0.998917)
(1.00928 0.000142753 -1.89382e-10 0.992073 2.82092e-10 0.998718)
(1.01011 0.000178622 -5.0561e-11 0.991195 1.92358e-10 0.998787)
(0.995267 -5.25954e-06 -3.28711e-11 1.00236 5.28902e-11 1.00239)
(0.995289 2.6856e-05 -1.42092e-10 1.00232 -1.63448e-11 1.00241)
(0.995484 -4.31138e-06 -9.6593e-11 1.00213 4.06212e-11 1.0024)
(0.995674 4.49323e-05 1.04432e-10 1.00194 1.1668e-10 1.0024)
(0.996003 8.314e-06 2.91044e-10 1.00164 -1.18457e-10 1.00237)
(0.996434 6.16101e-05 -8.61061e-11 1.00129 -3.05849e-10 1.00229)
(0.996934 2.82064e-05 -4.31401e-10 1.00086 2.96319e-11 1.00221)
(0.997492 7.685e-05 -1.13668e-10 1.00042 4.64785e-10 1.0021)
(0.998247 4.96703e-05 2.10532e-10 0.999834 -3.45642e-11 1.00192)
(0.999185 9.52414e-05 -4.11147e-11 0.999204 -5.00698e-10 1.00161)
(1.00055 7.65783e-05 -2.11603e-10 0.998258 2.63191e-10 1.00119)
(1.00212 0.000121296 3.77013e-11 0.997288 5.50329e-10 1.0006)
(1.00427 0.000105453 1.24385e-10 0.995746 -2.69834e-10 1)
(1.007 0.000149149 -1.62889e-11 0.994135 -5.2765e-10 0.998911)
(1.0093 0.000140645 -1.89107e-10 0.992063 2.82426e-10 0.998713)
(1.01012 0.000177676 -5.06272e-11 0.991186 1.92162e-10 0.998783)
(0.995277 -6.14779e-06 -3.28888e-11 1.00236 5.26362e-11 1.00238)
(0.995298 2.53341e-05 -1.42178e-10 1.00231 -1.63263e-11 1.00241)
(0.995493 -7.68515e-06 -9.65529e-11 1.00213 4.05476e-11 1.0024)
(0.995684 4.12733e-05 1.04466e-10 1.00193 1.16488e-10 1.0024)
(0.996014 3.00645e-06 2.90691e-10 1.00164 -1.18274e-10 1.00236)
(0.996445 5.58368e-05 -8.61982e-11 1.00128 -3.05416e-10 1.00228)
(0.996945 2.16833e-05 -4.31196e-10 1.00086 2.95049e-11 1.00221)
(0.997503 7.0371e-05 -1.14112e-10 1.00041 4.64413e-10 1.00209)
(0.998259 4.28948e-05 2.09584e-10 0.999826 -3.44035e-11 1.00192)
(0.999199 8.8572e-05 -4.11624e-11 0.999196 -5.00211e-10 1.00161)
(1.00057 7.05818e-05 -2.10787e-10 0.998248 2.62788e-10 1.00119)
(1.00214 0.000115226 3.8196e-11 0.997278 5.49739e-10 1.00059)
(1.00428 0.000100657 1.23669e-10 0.995735 -2.69638e-10 0.999999)
(1.00701 0.000144985 -1.62783e-11 0.994124 -5.27078e-10 0.998905)
(1.00932 0.000138277 -1.88901e-10 0.992051 2.8284e-10 0.998709)
(1.01014 0.000176622 -5.07077e-11 0.991175 1.91979e-10 0.998779)
(0.995286 -7.1455e-06 -3.29404e-11 1.00235 5.24607e-11 1.00238)
(0.995305 2.36928e-05 -1.42263e-10 1.00231 -1.63124e-11 1.0024)
(0.9955 -1.13208e-05 -9.65073e-11 1.00212 4.04825e-11 1.00239)
(0.995691 3.72836e-05 1.04498e-10 1.00193 1.16328e-10 1.00239)
(0.996022 -2.70231e-06 2.90241e-10 1.00163 -1.18097e-10 1.00236)
(0.996456 5.00302e-05 -8.62938e-11 1.00128 -3.05042e-10 1.00228)
(0.996955 1.49668e-05 -4.30588e-10 1.00085 2.94399e-11 1.0022)
(0.997514 6.31602e-05 -1.14602e-10 1.0004 4.64085e-10 1.00209)
(0.998271 3.55758e-05 2.08444e-10 0.999818 -3.44068e-11 1.00191)
(0.999213 8.13074e-05 -4.12155e-11 0.999187 -4.99784e-10 1.0016)
(1.00058 6.41895e-05 -2.09836e-10 0.998238 2.62556e-10 1.00118)
(1.00215 0.000108333 3.87834e-11 0.997268 5.4929e-10 1.00059)
(1.0043 9.51908e-05 1.23002e-10 0.995724 -2.69443e-10 0.999995)
(1.00703 0.000140632 -1.6266e-11 0.994112 -5.26658e-10 0.998899)
(1.00933 0.000135848 -1.88637e-10 0.992039 2.83101e-10 0.998705)
(1.01015 0.000175623 -5.07817e-11 0.991164 1.9181e-10 0.998775)
(0.995293 -8.2131e-06 -3.29555e-11 1.00235 5.2309e-11 1.00237)
(0.99531 2.19613e-05 -1.42361e-10 1.00231 -1.63126e-11 1.0024)
(0.995505 -1.51538e-05 -9.64614e-11 1.00212 4.04279e-11 1.00239)
(0.995698 3.30779e-05 1.04535e-10 1.00192 1.16241e-10 1.00239)
(0.996029 -8.67471e-06 2.89827e-10 1.00163 -1.17867e-10 1.00236)
(0.996464 4.34324e-05 -8.64069e-11 1.00127 -3.04771e-10 1.00228)
(0.996963 7.2712e-06 -4.30373e-10 1.00084 2.93345e-11 1.0022)
(0.997524 5.52111e-05 -1.15078e-10 1.0004 4.64063e-10 1.00209)
(0.998282 2.75605e-05 2.0736e-10 0.999811 -3.42538e-11 1.00191)
(0.999226 7.3544e-05 -4.12759e-11 0.999178 -4.9957e-10 1.0016)
(1.0006 5.72015e-05 -2.08473e-10 0.998228 2.62266e-10 1.00118)
(1.00216 0.000101212 3.93268e-11 0.997258 5.48885e-10 1.00058)
(1.00432 8.95323e-05 1.22417e-10 0.995712 -2.69356e-10 0.99999)
(1.00705 0.000136034 -1.62578e-11 0.994099 -5.26203e-10 0.998893)
(1.00935 0.000133015 -1.88532e-10 0.992026 2.83539e-10 0.9987)
(1.01017 0.000174545 -5.08617e-11 0.991152 1.91647e-10 0.998771)
(0.995298 -9.34633e-06 -3.29953e-11 1.00235 5.22079e-11 1.00237)
(0.995312 2.00272e-05 -1.42449e-10 1.00231 -1.63244e-11 1.0024)
(0.995508 -1.94086e-05 -9.64013e-11 1.00212 4.04257e-11 1.00239)
(0.995701 2.84279e-05 1.04561e-10 1.00192 1.16257e-10 1.00239)
(0.996033 -1.52567e-05 2.89318e-10 1.00162 -1.17779e-10 1.00236)
(0.996471 3.64575e-05 -8.65139e-11 1.00127 -3.04725e-10 1.00227)
(0.99697 -5.43084e-07 -4.29774e-10 1.00084 2.91158e-11 1.0022)
(0.997532 4.66821e-05 -1.15653e-10 1.00039 4.64095e-10 1.00208)
(0.998292 1.89574e-05 2.06073e-10 0.999803 -3.39274e-11 1.00191)
(0.999239 6.48698e-05 -4.13469e-11 0.999169 -4.99342e-10 1.00159)
(1.00061 4.90928e-05 -2.07645e-10 0.998218 2.62085e-10 1.00117)
(1.00218 9.32016e-05 3.98199e-11 0.997247 5.48668e-10 1.00058)
(1.00433 8.30329e-05 1.21874e-10 0.995699 -2.69255e-10 0.999986)
(1.00707 0.000130871 -1.62468e-11 0.994085 -5.25881e-10 0.998888)
(1.00937 0.000129887 -1.8837e-10 0.992011 2.83846e-10 0.998696)
(1.01019 0.000173277 -5.0969e-11 0.991139 1.915e-10 0.998767)
(0.995299 -1.05968e-05 -3.30326e-11 1.00235 5.21856e-11 1.00237)
(0.995312 1.80044e-05 -1.42561e-10 1.0023 -1.63478e-11 1.0024)
(0.995508 -2.39257e-05 -9.63429e-11 1.00212 4.04158e-11 1.00239)
(0.995703 2.34123e-05 1.04606e-10 1.00192 1.16318e-10 1.00239)
(0.996036 -2.2351e-05 2.88804e-10 1.00162 -1.17599e-10 1.00235)
(0.996476 2.86787e-05 -8.66491e-11 1.00126 -3.04723e-10 1.00227)
(0.996974 -9.44844e-06 -4.29429e-10 1.00084 2.89224e-11 1.0022)
(0.997538 3.71614e-05 -1.16181e-10 1.00038 4.64432e-10 1.00208)
(0.998301 9.37572e-06 2.04892e-10 0.999797 -3.35506e-11 1.00191)
(0.99925 5.53843e-05 -4.14172e-11 0.99916 -4.99348e-10 1.00159)
(1.00063 4.00309e-05 -2.06462e-10 0.998208 2.61836e-10 1.00117)
(1.00219 8.44101e-05 4.03293e-11 0.997236 5.4849e-10 1.00058)
(1.00435 7.59331e-05 1.21413e-10 0.995686 -2.69241e-10 0.999981)
(1.00709 0.000125228 -1.624e-11 0.994071 -5.25567e-10 0.998882)
(1.00939 0.000126432 -1.88369e-10 0.991996 2.84262e-10 0.998692)
(1.01021 0.000171987 -5.10806e-11 0.991124 1.9136e-10 0.998763)
(0.995299 -1.19268e-05 -3.30879e-11 1.00235 5.21876e-11 1.00237)
(0.995309 1.58428e-05 -1.42664e-10 1.00231 -1.63832e-11 1.0024)
(0.995506 -2.87697e-05 -9.62697e-11 1.00212 4.04523e-11 1.00239)
(0.995702 1.80983e-05 1.04641e-10 1.00192 1.16485e-10 1.00239)
(0.996036 -2.98392e-05 2.88229e-10 1.00162 -1.17505e-10 1.00235)
(0.996478 2.0479e-05 -8.67829e-11 1.00126 -3.04942e-10 1.00227)
(0.996978 -1.87533e-05 -4.2887e-10 1.00083 2.85736e-11 1.0022)
(0.997544 2.69769e-05 -1.16834e-10 1.00038 4.64902e-10 1.00208)
(0.998309 -9.53383e-07 2.03508e-10 0.99979 -3.28436e-11 1.0019)
(0.999262 4.47195e-05 -4.15025e-11 0.999152 -4.99364e-10 1.00159)
(1.00064 2.97311e-05 -2.06097e-10 0.998198 2.61569e-10 1.00117)
(1.00221 7.47338e-05 4.06969e-11 0.997225 5.48484e-10 1.00057)
(1.00437 6.77943e-05 1.21067e-10 0.995673 -2.69197e-10 0.999978)
(1.00711 0.000118684 -1.62309e-11 0.994056 -5.25347e-10 0.998877)
(1.00941 0.000122366 -1.88282e-10 0.99198 2.84595e-10 0.998687)
(1.01023 0.000170343 -5.12433e-11 0.991108 1.91225e-10 0.998758)
(0.995296 -1.33636e-05 -3.31177e-11 1.00235 5.22682e-11 1.00237)
(0.995305 1.36214e-05 -1.42789e-10 1.00231 -1.64296e-11 1.0024)
(0.995502 -3.39275e-05 -9.61893e-11 1.00212 4.04898e-11 1.00239)
(0.995699 1.24716e-05 1.04682e-10 1.00192 1.16697e-10 1.00239)
(0.996035 -3.79086e-05 2.87581e-10 1.00162 -1.17375e-10 1.00236)
(0.99648 1.16017e-05 -8.69424e-11 1.00126 -3.05216e-10 1.00227)
(0.996979 -2.89688e-05 -4.28446e-10 1.00083 2.82528e-11 1.0022)
(0.997547 1.57366e-05 -1.17444e-10 1.00037 4.65567e-10 1.00208)
(0.998315 -1.24792e-05 2.02337e-10 0.999784 -3.22382e-11 1.0019)
(0.999271 3.27119e-05 -4.15792e-11 0.999143 -4.99536e-10 1.00159)
(1.00065 1.85171e-05 -2.05598e-10 0.998187 2.61167e-10 1.00117)
(1.00222 6.3972e-05 4.11202e-11 0.997214 5.48382e-10 1.00057)
(1.00439 5.86874e-05 1.20775e-10 0.995659 -2.69041e-10 0.999974)
(1.00713 0.000111473 -1.62274e-11 0.994039 -5.25113e-10 0.998872)
(1.00943 0.00011765 -1.88358e-10 0.991962 2.84963e-10 0.998683)
(1.01025 0.000168645 -5.14162e-11 0.991091 1.91102e-10 0.998754)
(0.995291 -1.4903e-05 -3.3169e-11 1.00235 5.23724e-11 1.00238)
(0.995297 1.12904e-05 -1.42909e-10 1.00231 -1.64818e-11 1.00241)
(0.995495 -3.93904e-05 -9.60915e-11 1.00212 4.05557e-11 1.0024)
(0.995694 6.41317e-06 1.04721e-10 1.00192 1.16973e-10 1.0024)
(0.996031 -4.64956e-05 2.86923e-10 1.00162 -1.17299e-10 1.00236)
(0.996478 1.90348e-06 -8.71111e-11 1.00126 -3.0563e-10 1.00228)
(0.996979 -3.9863e-05 -4.27906e-10 1.00083 2.78073e-11 1.0022)
(0.99755 3.64436e-06 -1.18177e-10 1.00037 4.66272e-10 1.00209)
(0.998321 -2.47683e-05 2.01001e-10 0.999779 -3.13928e-11 1.0019)
(0.999281 1.98867e-05 -4.16778e-11 0.999135 -4.99676e-10 1.00159)
(1.00066 6.26857e-06 -2.05484e-10 0.998177 2.60867e-10 1.00116)
(1.00224 5.21859e-05 4.14352e-11 0.997202 5.48453e-10 1.00057)
(1.00441 4.8465e-05 1.20657e-10 0.995644 -2.68942e-10 0.99997)
(1.00716 0.000103337 -1.62206e-11 0.994022 -5.24968e-10 0.998866)
(1.00946 0.000112191 -1.88486e-10 0.991943 2.85307e-10 0.998678)
(1.01027 0.000166671 -5.16341e-11 0.991072 1.90975e-10 0.998749)
(0.995284 -1.65449e-05 -3.32439e-11 1.00235 5.25262e-11 1.00238)
(0.995289 9.0215e-06 -1.43047e-10 1.00232 -1.65359e-11 1.00241)
(0.995487 -4.50212e-05 -9.59775e-11 1.00213 4.06019e-11 1.0024)
(0.995688 3.39713e-07 1.04765e-10 1.00192 1.17244e-10 1.0024)
(0.996025 -5.52827e-05 2.86134e-10 1.00162 -1.17123e-10 1.00236)
(0.996476 -7.89248e-06 -8.73068e-11 1.00126 -3.06008e-10 1.00228)
(0.996977 -5.11489e-05 -4.27389e-10 1.00083 2.73734e-11 1.0022)
(0.99755 -9.28e-06 -1.18865e-10 1.00037 4.67122e-10 1.00209)
(0.998325 -3.79374e-05 1.999e-10 0.999774 -3.05918e-11 1.0019)
(0.999289 5.59636e-06 -4.17651e-11 0.999128 -4.99933e-10 1.00159)
(1.00067 -7.28673e-06 -2.05487e-10 0.998167 2.60461e-10 1.00116)
(1.00225 3.91784e-05 4.181e-11 0.99719 5.48452e-10 1.00057)
(1.00442 3.71004e-05 1.20604e-10 0.995628 -2.68749e-10 0.999967)
(1.00718 9.43324e-05 -1.62197e-11 0.994004 -5.24819e-10 0.998861)
(1.00948 0.000106037 -1.88773e-10 0.991923 2.85628e-10 0.998673)
(1.0103 0.000164504 -5.18842e-11 0.991052 1.90855e-10 0.998743)
(0.995275 -1.82697e-05 -3.32943e-11 1.00236 5.26662e-11 1.00238)
(0.995278 6.83705e-06 -1.43179e-10 1.00232 -1.65884e-11 1.00242)
(0.995477 -5.0691e-05 -9.5846e-11 1.00213 4.06537e-11 1.00241)
(0.995679 -5.82739e-06 1.04813e-10 1.00193 1.1753e-10 1.00241)
(0.996018 -6.41917e-05 2.8534e-10 1.00163 -1.16956e-10 1.00237)
(0.996472 -1.8284e-05 -8.7514e-11 1.00126 -3.06437e-10 1.00228)
(0.996974 -6.29019e-05 -4.26911e-10 1.00083 2.68476e-11 1.00221)
(0.99755 -2.27103e-05 -1.19664e-10 1.00036 4.67963e-10 1.00209)
(0.998328 -5.15845e-05 1.98675e-10 0.99977 -2.96209e-11 1.00191)
(0.999296 -9.15106e-06 -4.18749e-11 0.99912 -5.00148e-10 1.00159)
(1.00068 -2.15046e-05 -2.05615e-10 0.998157 2.60066e-10 1.00116)
(1.00226 2.51554e-05 4.21122e-11 0.997178 5.48522e-10 1.00056)
(1.00444 2.46185e-05 1.20738e-10 0.995612 -2.6864e-10 0.999963)
(1.0072 8.42881e-05 -1.6218e-11 0.993985 -5.24693e-10 0.998855)
(1.00951 9.90499e-05 -1.89187e-10 0.991901 2.85977e-10 0.998668)
(1.01033 0.000162072 -5.21891e-11 0.991029 1.90721e-10 0.998736)
(0.995264 -2.00374e-05 -3.3371e-11 1.00236 5.28169e-11 1.00239)
(0.995267 4.9924e-06 -1.43314e-10 1.00233 -1.66297e-11 1.00242)
(0.995467 -5.61324e-05 -9.56805e-11 1.00214 4.06641e-11 1.00241)
(0.995671 -1.14712e-05 1.04852e-10 1.00193 1.17745e-10 1.00241)
(0.99601 -7.26263e-05 2.84372e-10 1.00163 -1.16656e-10 1.00237)
(0.996467 -2.79824e-05 -8.77467e-11 1.00126 -3.06732e-10 1.00229)
(0.996969 -7.4088e-05 -4.26337e-10 1.00083 2.62762e-11 1.00221)
(0.997548 -3.626e-05 -1.20438e-10 1.00036 4.68816e-10 1.00209)