/*--------------------------------*- C++ -*----------------------------------*\
| =========                 |                                                 |
| \\      /  F ield         | foam-extend: Open Source CFD                    |
|  \\    /   O peration     | Version:     4.1-20200408                       |
|   \\  /    A nd           | Web:         http://www.foam-extend.org         |
|    \\/     M anipulation  |                                                 |
\*---------------------------------------------------------------------------*/
FoamFile
{
    version     2.0;
    format      ascii;
    class       volScalarField;
    location    "0.0665000";
    object      sigmaHyd;
}
// * * * * * * * * * * * * * * * * * * * * * * * * * * * * * * * * * * * * * //

dimensions      [1 -1 -2 0 0 0 0];

internalField   nonuniform List<scalar> 
1952
(
-4.67413e+08
-4.51316e+08
-4.28811e+08
-4.00725e+08
-3.64444e+08
-3.23809e+08
-2.77528e+08
-2.23782e+08
-1.62286e+08
-8.25764e+07
6.77136e+06
1.29811e+08
2.69758e+08
4.33721e+08
5.4069e+08
-4.74666e+08
-4.63179e+08
-4.47004e+08
-4.2438e+08
-3.96257e+08
-3.5975e+08
-3.19144e+08
-2.72609e+08
-2.18851e+08
-1.57102e+08
-7.73656e+07
1.21427e+07
1.35038e+08
2.75115e+08
4.38579e+08
5.45411e+08
-4.70378e+08
-4.60897e+08
-4.44704e+08
-4.22045e+08
-3.93931e+08
-3.57351e+08
-3.16789e+08
-2.70215e+08
-2.16525e+08
-1.54753e+08
-7.51179e+07
1.42713e+07
1.36908e+08
2.76704e+08
4.39459e+08
5.45154e+08
-4.68081e+08
-4.58924e+08
-4.42714e+08
-4.20052e+08
-3.9193e+08
-3.5534e+08
-3.14838e+08
-2.68286e+08
-2.14658e+08
-1.52948e+08
-7.34043e+07
1.58369e+07
1.38266e+08
2.77849e+08
4.40236e+08
5.4546e+08
-4.66101e+08
-4.57161e+08
-4.40949e+08
-4.18281e+08
-3.90177e+08
-3.5357e+08
-3.13124e+08
-2.66597e+08
-2.13054e+08
-1.51381e+08
-7.19373e+07
1.71395e+07
1.39332e+08
2.78699e+08
4.40683e+08
5.45429e+08
-4.64342e+08
-4.55659e+08
-4.39438e+08
-4.1677e+08
-3.88655e+08
-3.52043e+08
-3.11648e+08
-2.65172e+08
-2.11687e+08
-1.50094e+08
-7.07498e+07
1.81639e+07
1.40208e+08
2.79406e+08
4.41108e+08
5.45484e+08
-4.6284e+08
-4.54309e+08
-4.38092e+08
-4.15422e+08
-3.87326e+08
-3.50721e+08
-3.1039e+08
-2.63943e+08
-2.10531e+08
-1.48996e+08
-6.97183e+07
1.90294e+07
1.40904e+08
2.79966e+08
4.41435e+08
5.45542e+08
-4.61496e+08
-4.53164e+08
-4.36944e+08
-4.14273e+08
-3.86185e+08
-3.49575e+08
-3.09317e+08
-2.62922e+08
-2.09572e+08
-1.48088e+08
-6.88719e+07
1.97762e+07
1.41527e+08
2.80495e+08
4.41762e+08
5.45649e+08
-4.60354e+08
-4.52189e+08
-4.35971e+08
-4.13298e+08
-3.85213e+08
-3.48596e+08
-3.08365e+08
-2.62e+08
-2.08697e+08
-1.47255e+08
-6.80991e+07
2.04208e+07
1.42084e+08
2.80997e+08
4.42103e+08
5.45797e+08
-4.59384e+08
-4.51307e+08
-4.35088e+08
-4.12412e+08
-3.84334e+08
-3.47719e+08
-3.07558e+08
-2.61219e+08
-2.07959e+08
-1.46556e+08
-6.742e+07
2.10119e+07
1.42596e+08
2.81467e+08
4.42457e+08
5.46008e+08
-4.58508e+08
-4.50573e+08
-4.34354e+08
-4.11671e+08
-3.83603e+08
-3.46973e+08
-3.06856e+08
-2.60539e+08
-2.07319e+08
-1.45922e+08
-6.68026e+07
2.15773e+07
1.43089e+08
2.81966e+08
4.42829e+08
5.46281e+08
-4.57778e+08
-4.4995e+08
-4.33729e+08
-4.11037e+08
-3.82961e+08
-3.46311e+08
-3.06219e+08
-2.59916e+08
-2.06713e+08
-1.45327e+08
-6.6225e+07
2.20925e+07
1.43584e+08
2.82487e+08
4.43264e+08
5.46604e+08
-4.5716e+08
-4.49385e+08
-4.3316e+08
-4.10457e+08
-3.82382e+08
-3.45721e+08
-3.05676e+08
-2.5937e+08
-2.06184e+08
-1.44794e+08
-6.56638e+07
2.26141e+07
1.44063e+08
2.83001e+08
4.43715e+08
5.46996e+08
-4.56601e+08
-4.48921e+08
-4.32691e+08
-4.09973e+08
-3.81894e+08
-3.45194e+08
-3.05181e+08
-2.58878e+08
-2.05707e+08
-1.44286e+08
-6.51405e+07
2.31427e+07
1.4457e+08
2.83573e+08
4.44208e+08
5.47447e+08
-4.56143e+08
-4.48533e+08
-4.32293e+08
-4.09557e+08
-3.81453e+08
-3.44716e+08
-3.04699e+08
-2.58381e+08
-2.05199e+08
-1.43754e+08
-6.4593e+07
2.36596e+07
1.45104e+08
2.84174e+08
4.44767e+08
5.47939e+08
-4.55761e+08
-4.48146e+08
-4.31893e+08
-4.09136e+08
-3.81021e+08
-3.44254e+08
-3.04273e+08
-2.57926e+08
-2.04744e+08
-1.43259e+08
-6.40465e+07
2.42116e+07
1.45643e+08
2.84781e+08
4.45343e+08
5.48505e+08
-4.55381e+08
-4.4784e+08
-4.31573e+08
-4.0879e+08
-3.80655e+08
-3.4383e+08
-3.03856e+08
-2.57484e+08
-2.04295e+08
-1.42743e+08
-6.34989e+07
2.47986e+07
1.46235e+08
2.85468e+08
4.45969e+08
5.49115e+08
-4.55084e+08
-4.47572e+08
-4.31285e+08
-4.08472e+08
-3.80297e+08
-3.43419e+08
-3.03424e+08
-2.57009e+08
-2.03794e+08
-1.4219e+08
-6.29259e+07
2.53723e+07
1.46849e+08
2.86179e+08
4.4665e+08
5.49772e+08
-4.54823e+08
-4.47282e+08
-4.30975e+08
-4.08133e+08
-3.79939e+08
-3.43016e+08
-3.03051e+08
-2.56575e+08
-2.03345e+08
-1.41663e+08
-6.23321e+07
2.60073e+07
1.47488e+08
2.86924e+08
4.47369e+08
5.50489e+08
-4.54543e+08
-4.47091e+08
-4.30759e+08
-4.07879e+08
-3.79649e+08
-3.42647e+08
-3.02663e+08
-2.56142e+08
-2.02893e+08
-1.41119e+08
-6.17798e+07
2.66271e+07
1.48155e+08
2.87721e+08
4.48153e+08
5.51271e+08
-4.54363e+08
-4.46924e+08
-4.30566e+08
-4.07651e+08
-3.79376e+08
-3.42311e+08
-3.02318e+08
-2.5572e+08
-2.02431e+08
-1.40544e+08
-6.11665e+07
2.72726e+07
1.48878e+08
2.88562e+08
4.48999e+08
5.52106e+08
-4.54205e+08
-4.46807e+08
-4.3042e+08
-4.0746e+08
-3.79146e+08
-3.41999e+08
-3.01976e+08
-2.55303e+08
-2.01966e+08
-1.39958e+08
-6.05542e+07
2.79385e+07
1.49628e+08
2.89446e+08
4.499e+08
5.53027e+08
-4.541e+08
-4.46773e+08
-4.30347e+08
-4.0734e+08
-3.78964e+08
-3.41728e+08
-3.0168e+08
-2.54924e+08
-2.01513e+08
-1.39378e+08
-5.99072e+07
2.86414e+07
1.50442e+08
2.90401e+08
4.50872e+08
5.54013e+08
-4.54074e+08
-4.46809e+08
-4.30347e+08
-4.07286e+08
-3.78854e+08
-3.41522e+08
-3.01407e+08
-2.5455e+08
-2.0105e+08
-1.38785e+08
-5.92598e+07
2.9381e+07
1.51286e+08
2.91407e+08
4.51908e+08
5.55091e+08
-4.54123e+08
-4.46948e+08
-4.30437e+08
-4.07317e+08
-3.78809e+08
-3.41372e+08
-3.01221e+08
-2.54257e+08
-2.00659e+08
-1.38246e+08
-5.86292e+07
3.01439e+07
1.52166e+08
2.92484e+08
4.53028e+08
5.56265e+08
-4.54274e+08
-4.47215e+08
-4.30659e+08
-4.07473e+08
-3.78896e+08
-3.4134e+08
-3.01107e+08
-2.54013e+08
-2.003e+08
-1.37701e+08
-5.80066e+07
3.09182e+07
1.53081e+08
2.93614e+08
4.54229e+08
5.57557e+08
-4.54556e+08
-4.47655e+08
-4.31043e+08
-4.07782e+08
-3.79111e+08
-3.41419e+08
-3.01115e+08
-2.53881e+08
-2.00031e+08
-1.37236e+08
-5.74143e+07
3.17104e+07
1.54032e+08
2.94827e+08
4.55526e+08
5.58975e+08
-4.55009e+08
-4.48283e+08
-4.31616e+08
-4.08271e+08
-3.79509e+08
-3.4167e+08
-3.01255e+08
-2.53843e+08
-1.9984e+08
-1.36798e+08
-5.68493e+07
3.25021e+07
1.5501e+08
2.96096e+08
4.56906e+08
5.60529e+08
-4.55654e+08
-4.49156e+08
-4.32426e+08
-4.08983e+08
-3.80109e+08
-3.42099e+08
-3.0157e+08
-2.53967e+08
-1.99782e+08
-1.36481e+08
-5.63652e+07
3.32749e+07
1.55999e+08
2.97444e+08
4.58391e+08
5.62224e+08
-4.56547e+08
-4.50314e+08
-4.33519e+08
-4.09969e+08
-3.8098e+08
-3.42788e+08
-3.02126e+08
-2.54286e+08
-1.99906e+08
-1.36281e+08
-5.59827e+07
3.39753e+07
1.56962e+08
2.98813e+08
4.59971e+08
5.64078e+08
-4.57727e+08
-4.51835e+08
-4.34972e+08
-4.113e+08
-3.82187e+08
-3.43783e+08
-3.02978e+08
-2.54885e+08
-2.00269e+08
-1.36284e+08
-5.57388e+07
3.46013e+07
1.57901e+08
3.0023e+08
4.61651e+08
5.6611e+08
-4.59272e+08
-4.53807e+08
-4.36874e+08
-4.13067e+08
-3.83812e+08
-3.45173e+08
-3.04181e+08
-2.55796e+08
-2.00911e+08
-1.36518e+08
-5.56906e+07
3.51061e+07
1.58769e+08
3.01655e+08
4.63394e+08
5.68306e+08
-4.61272e+08
-4.56268e+08
-4.39267e+08
-4.1531e+08
-3.85908e+08
-3.47014e+08
-3.05822e+08
-2.57104e+08
-2.01915e+08
-1.37061e+08
-5.58978e+07
3.54361e+07
1.59518e+08
3.03068e+08
4.65179e+08
5.70655e+08
-4.63764e+08
-4.59333e+08
-4.42264e+08
-4.18143e+08
-3.88581e+08
-3.49413e+08
-3.07995e+08
-2.58911e+08
-2.03385e+08
-1.3802e+08
-5.64848e+07
3.54763e+07
1.60061e+08
3.04397e+08
4.67002e+08
5.73142e+08
-4.66864e+08
-4.63079e+08
-4.4595e+08
-4.21656e+08
-3.91939e+08
-3.52484e+08
-3.10846e+08
-2.6136e+08
-2.05467e+08
-1.39515e+08
-5.7541e+07
3.51204e+07
1.60303e+08
3.05553e+08
4.68795e+08
5.75775e+08
-4.70646e+08
-4.67652e+08
-4.50477e+08
-4.26005e+08
-3.96137e+08
-3.56378e+08
-3.14497e+08
-2.64595e+08
-2.08289e+08
-1.41688e+08
-5.91826e+07
3.42842e+07
1.60157e+08
3.06462e+08
4.70445e+08
5.78491e+08
-4.75257e+08
-4.73161e+08
-4.55955e+08
-4.31306e+08
-4.01283e+08
-3.61215e+08
-3.19052e+08
-2.6872e+08
-2.11962e+08
-1.44687e+08
-6.16059e+07
3.28072e+07
1.59469e+08
3.07032e+08
4.7187e+08
5.81208e+08
-4.808e+08
-4.79652e+08
-4.62439e+08
-4.37624e+08
-4.07468e+08
-3.67125e+08
-3.2471e+08
-2.73934e+08
-2.16724e+08
-1.48726e+08
-6.50381e+07
3.04123e+07
1.57985e+08
3.07001e+08
4.7293e+08
5.83844e+08
-4.87324e+08
-4.87239e+08
-4.70057e+08
-4.45099e+08
-4.14861e+08
-3.74281e+08
-3.31671e+08
-2.80491e+08
-2.22835e+08
-1.54079e+08
-6.97109e+07
2.68591e+07
1.55479e+08
3.06151e+08
4.73367e+08
5.86283e+08
-4.94938e+08
-4.96045e+08
-4.78941e+08
-4.53889e+08
-4.23618e+08
-3.82861e+08
-3.40081e+08
-2.88579e+08
-2.30496e+08
-1.61019e+08
-7.59456e+07
2.18731e+07
1.51643e+08
3.04237e+08
4.72925e+08
5.88304e+08
-5.03756e+08
-5.06044e+08
-4.89083e+08
-4.64003e+08
-4.33784e+08
-3.92987e+08
-3.50119e+08
-2.98404e+08
-2.39989e+08
-1.69877e+08
-8.41572e+07
1.49733e+07
1.45963e+08
3.00813e+08
4.71228e+08
5.89653e+08
-5.13751e+08
-5.17191e+08
-5.00453e+08
-4.75448e+08
-4.45411e+08
-4.0476e+08
-3.62004e+08
-3.10263e+08
-2.51677e+08
-1.81085e+08
-9.47957e+07
5.60279e+06
1.37839e+08
2.95213e+08
4.67717e+08
5.89934e+08
-5.24869e+08
-5.29428e+08
-5.13016e+08
-4.88202e+08
-4.58524e+08
-4.18205e+08
-3.75815e+08
-3.24344e+08
-2.65856e+08
-1.95123e+08
-1.08498e+08
-6.97828e+06
1.26512e+08
2.86665e+08
4.61608e+08
5.88517e+08
-5.37049e+08
-5.42487e+08
-5.26532e+08
-5.02089e+08
-4.73023e+08
-4.33372e+08
-3.91652e+08
-3.40885e+08
-2.82902e+08
-2.12487e+08
-1.25909e+08
-2.36428e+07
1.10909e+08
2.74006e+08
4.51844e+08
5.84775e+08
-5.50009e+08
-5.56046e+08
-5.40697e+08
-5.16868e+08
-4.88694e+08
-4.50123e+08
-4.09491e+08
-3.60025e+08
-3.03071e+08
-2.33705e+08
-1.4777e+08
-4.54841e+07
8.96545e+07
2.55615e+08
4.36938e+08
5.78086e+08
-5.6341e+08
-5.6958e+08
-5.5501e+08
-5.32036e+08
-5.05093e+08
-4.68059e+08
-4.2906e+08
-3.8162e+08
-3.26462e+08
-2.5921e+08
-1.74904e+08
-7.38187e+07
6.0828e+07
2.28855e+08
4.13429e+08
5.65454e+08
-5.76732e+08
-5.82251e+08
-5.6865e+08
-5.46847e+08
-5.21548e+08
-4.86626e+08
-4.49886e+08
-4.05377e+08
-3.52963e+08
-2.89176e+08
-2.07906e+08
-1.10072e+08
2.19145e+07
1.89324e+08
3.7382e+08
5.35135e+08
-5.89119e+08
-5.93067e+08
-5.80631e+08
-5.60316e+08
-5.3708e+08
-5.04876e+08
-4.7113e+08
-4.30575e+08
-3.82034e+08
-3.23442e+08
-2.47077e+08
-1.55534e+08
-2.99358e+07
1.30417e+08
3.04762e+08
4.56961e+08
-5.99581e+08
-6.00707e+08
-5.89639e+08
-5.71125e+08
-5.50406e+08
-5.21524e+08
-4.91505e+08
-4.55909e+08
-4.12376e+08
-3.60626e+08
-2.90845e+08
-2.08294e+08
-9.17334e+07
5.72476e+07
2.1627e+08
3.51528e+08
-6.06801e+08
-6.03566e+08
-5.94057e+08
-5.77657e+08
-5.59871e+08
-5.34884e+08
-5.09299e+08
-4.79621e+08
-4.42142e+08
-3.98788e+08
-3.37014e+08
-2.65849e+08
-1.59906e+08
-2.48363e+07
1.18246e+08
2.39983e+08
-6.09173e+08
-5.99798e+08
-5.92019e+08
-5.77968e+08
-5.63488e+08
-5.42859e+08
-5.22349e+08
-4.99388e+08
-4.68949e+08
-4.35406e+08
-3.82949e+08
-3.2547e+08
-2.31322e+08
-1.13374e+08
1.36045e+07
1.24285e+08
-6.04872e+08
-5.87237e+08
-5.81332e+08
-5.6984e+08
-5.58987e+08
-5.43097e+08
-5.28161e+08
-5.1252e+08
-4.89956e+08
-4.67351e+08
-4.25472e+08
-3.8398e+08
-3.02778e+08
-2.06924e+08
-9.43834e+07
5.08995e+06
-5.91735e+08
-5.63585e+08
-5.59651e+08
-5.50836e+08
-5.43807e+08
-5.32873e+08
-5.23851e+08
-5.15845e+08
-5.01831e+08
-4.91021e+08
-4.61192e+08
-4.37797e+08
-3.71619e+08
-3.04503e+08
-2.05276e+08
-1.20711e+08
-5.67487e+08
-5.263e+08
-5.24409e+08
-5.18348e+08
-5.15317e+08
-5.09541e+08
-5.06708e+08
-5.0645e+08
-5.01414e+08
-5.02514e+08
-4.85356e+08
-4.79908e+08
-4.31928e+08
-3.98792e+08
-3.19446e+08
-2.57102e+08
-5.29595e+08
-4.73425e+08
-4.73666e+08
-4.70416e+08
-4.71344e+08
-4.70305e+08
-4.72444e+08
-4.7803e+08
-4.80456e+08
-4.9254e+08
-4.89909e+08
-5.04772e+08
-4.8033e+08
-4.81432e+08
-4.29198e+08
-4.06236e+08
-4.76071e+08
-4.0025e+08
-4.02084e+08
-4.00865e+08
-4.05283e+08
-4.0945e+08
-4.18762e+08
-4.32165e+08
-4.44369e+08
-4.68814e+08
-4.8145e+08
-5.16856e+08
-5.15713e+08
-5.49652e+08
-5.27649e+08
-5.61345e+08
-4.02531e+08
-3.06827e+08
-3.11737e+08
-3.14778e+08
-3.25723e+08
-3.38437e+08
-3.58391e+08
-3.83727e+08
-4.0943e+08
-4.47601e+08
-4.74729e+08
-5.27712e+08
-5.47911e+08
-6.13875e+08
-6.20625e+08
-7.14685e+08
-3.08208e+08
-2.12812e+08
-2.23294e+08
-2.3398e+08
-2.54007e+08
-2.76929e+08
-3.07527e+08
-3.44865e+08
-3.83722e+08
-4.35184e+08
-4.76815e+08
-5.44513e+08
-5.82073e+08
-6.7228e+08
-7.02924e+08
-8.45447e+08
-2.11937e+08
-1.36622e+08
-1.52399e+08
-1.7067e+08
-1.99273e+08
-2.31951e+08
-2.71956e+08
-3.18658e+08
-3.67822e+08
-4.28968e+08
-4.82362e+08
-5.61206e+08
-6.13087e+08
-7.20473e+08
-7.69722e+08
-9.43575e+08
-1.33148e+08
-8.41573e+07
-1.03313e+08
-1.26862e+08
-1.61273e+08
-2.00688e+08
-2.47886e+08
-3.01493e+08
-3.58669e+08
-4.26692e+08
-4.89418e+08
-5.75605e+08
-6.3863e+08
-7.56121e+08
-8.19239e+08
-1.01003e+09
-7.84809e+07
-5.43395e+07
-7.51873e+07
-1.02016e+08
-1.39885e+08
-1.83463e+08
-2.35376e+08
-2.93248e+08
-3.55904e+08
-4.27804e+08
-4.97077e+08
-5.86688e+08
-6.57588e+08
-7.78488e+08
-8.5078e+08
-1.04622e+09
-4.69964e+07
-4.59078e+07
-6.71433e+07
-9.54924e+07
-1.34786e+08
-1.80162e+08
-2.34389e+08
-2.93963e+08
-3.59556e+08
-4.32436e+08
-5.05368e+08
-5.94554e+08
-6.69949e+08
-7.88105e+08
-8.64966e+08
-1.05391e+09
-3.7532e+07
-5.71831e+07
-7.7903e+07
-1.06338e+08
-1.454e+08
-1.90547e+08
-2.4489e+08
-3.03787e+08
-3.69833e+08
-4.40966e+08
-5.14699e+08
-5.99869e+08
-6.76308e+08
-7.86131e+08
-8.62993e+08
-1.03562e+09
-4.84242e+07
-8.67676e+07
-1.06213e+08
-1.33412e+08
-1.70759e+08
-2.13876e+08
-2.66365e+08
-3.2248e+08
-3.86698e+08
-4.53669e+08
-5.25508e+08
-6.03454e+08
-6.77483e+08
-7.73877e+08
-8.4606e+08
-9.93508e+08
-7.82758e+07
-1.33407e+08
-1.50854e+08
-1.75546e+08
-2.09767e+08
-2.492e+08
-2.98046e+08
-3.49546e+08
-4.09899e+08
-4.70647e+08
-5.38127e+08
-6.06086e+08
-6.74337e+08
-7.52767e+08
-8.15648e+08
-9.30333e+08
-1.2576e+08
-1.95545e+08
-2.10424e+08
-2.31533e+08
-2.61384e+08
-2.95665e+08
-3.39253e+08
-3.84532e+08
-4.39187e+08
-4.91947e+08
-5.52806e+08
-6.08421e+08
-6.67637e+08
-7.24157e+08
-7.73356e+08
-8.49435e+08
-1.89125e+08
-2.70826e+08
-2.83014e+08
-3.00011e+08
-3.24725e+08
-3.52784e+08
-3.89789e+08
-4.27469e+08
-4.7474e+08
-5.17921e+08
-5.69994e+08
-6.11172e+08
-6.58116e+08
-6.89303e+08
-7.20821e+08
-7.54692e+08
-2.65689e+08
-3.55779e+08
-3.65791e+08
-3.79021e+08
-3.98705e+08
-4.20272e+08
-4.49976e+08
-4.791e+08
-5.17534e+08
-5.49672e+08
-5.90789e+08
-6.15483e+08
-6.46737e+08
-6.49568e+08
-6.60009e+08
-6.51108e+08
-3.51638e+08
-4.46323e+08
-4.5507e+08
-4.65646e+08
-4.81441e+08
-4.97453e+08
-5.20244e+08
-5.40737e+08
-5.69466e+08
-5.89376e+08
-6.17359e+08
-6.23349e+08
-6.3506e+08
-6.06676e+08
-5.93291e+08
-5.43891e+08
-4.42762e+08
-5.3895e+08
-5.47018e+08
-5.55996e+08
-5.69457e+08
-5.81825e+08
-5.99288e+08
-6.12276e+08
-6.31487e+08
-6.3877e+08
-6.51908e+08
-6.37162e+08
-6.25419e+08
-5.63453e+08
-5.24456e+08
-4.38894e+08
-5.35778e+08
-6.29832e+08
-6.37003e+08
-6.4448e+08
-6.56433e+08
-6.67144e+08
-6.81595e+08
-6.89556e+08
-7.01344e+08
-6.97752e+08
-6.96318e+08
-6.60285e+08
-6.2218e+08
-5.25501e+08
-4.60435e+08
-3.43629e+08
-6.27226e+08
-7.1704e+08
-7.23286e+08
-7.29408e+08
-7.40626e+08
-7.52087e+08
-7.6663e+08
-7.73355e+08
-7.81503e+08
-7.70257e+08
-7.55162e+08
-6.97374e+08
-6.30523e+08
-5.00444e+08
-4.11111e+08
-2.68082e+08
-7.14981e+08
-8.13564e+08
-8.19675e+08
-8.24717e+08
-8.3407e+08
-8.39893e+08
-8.46154e+08
-8.41983e+08
-8.35146e+08
-8.06255e+08
-7.6952e+08
-6.92603e+08
-6.09609e+08
-4.74453e+08
-3.77272e+08
-2.1915e+08
-8.11456e+08
-8.73742e+08
-8.75767e+08
-8.73809e+08
-8.70703e+08
-8.59745e+08
-8.46605e+08
-8.21542e+08
-7.91918e+08
-7.44125e+08
-6.92071e+08
-6.14265e+08
-5.40471e+08
-4.27182e+08
-3.45105e+08
-1.95624e+08
-8.72786e+08
-8.2892e+08
-8.24289e+08
-8.15119e+08
-8.0155e+08
-7.82114e+08
-7.59392e+08
-7.27297e+08
-6.91352e+08
-6.4202e+08
-5.91622e+08
-5.23294e+08
-4.63167e+08
-3.7196e+08
-3.05798e+08
-1.87959e+08
-8.30479e+08
-7.41132e+08
-7.3387e+08
-7.22241e+08
-7.06962e+08
-6.89032e+08
-6.67522e+08
-6.38292e+08
-6.05525e+08
-5.61312e+08
-5.15443e+08
-4.54346e+08
-3.97266e+08
-3.20273e+08
-2.58603e+08
-1.73422e+08
-7.43731e+08
-6.64201e+08
-6.57596e+08
-6.47284e+08
-6.33005e+08
-6.14336e+08
-5.91974e+08
-5.63001e+08
-5.30885e+08
-4.89741e+08
-4.4743e+08
-3.93592e+08
-3.42638e+08
-2.77279e+08
-2.18614e+08
-1.49119e+08
-6.66522e+08
-5.92498e+08
-5.85586e+08
-5.75462e+08
-5.61483e+08
-5.4385e+08
-5.22665e+08
-4.95955e+08
-4.6634e+08
-4.29308e+08
-3.91e+08
-3.43454e+08
-2.97685e+08
-2.40927e+08
-1.89547e+08
-1.25837e+08
-5.94876e+08
-5.28793e+08
-5.22138e+08
-5.12739e+08
-4.99493e+08
-4.82801e+08
-4.62709e+08
-4.37951e+08
-4.10558e+08
-3.77194e+08
-3.42688e+08
-3.00963e+08
-2.60512e+08
-2.11711e+08
-1.66776e+08
-1.12785e+08
-5.31001e+08
-4.71128e+08
-4.64685e+08
-4.55959e+08
-4.43521e+08
-4.28152e+08
-4.09601e+08
-3.8716e+08
-3.62321e+08
-3.32622e+08
-3.01855e+08
-2.65336e+08
-2.29796e+08
-1.87688e+08
-1.48981e+08
-1.0252e+08
-4.73198e+08
-4.19839e+08
-4.13746e+08
-4.05784e+08
-3.94267e+08
-3.80242e+08
-3.63258e+08
-3.43039e+08
-3.20662e+08
-2.94352e+08
-2.67102e+08
-2.35296e+08
-2.04324e+08
-1.68213e+08
-1.35042e+08
-9.56628e+07
-4.21733e+08
-3.74069e+08
-3.68365e+08
-3.61166e+08
-3.50617e+08
-3.37981e+08
-3.22626e+08
-3.046e+08
-2.8464e+08
-2.61493e+08
-2.37528e+08
-2.09931e+08
-1.83088e+08
-1.52176e+08
-1.23908e+08
-9.05175e+07
-3.7579e+08
-3.33496e+08
-3.28221e+08
-3.21774e+08
-3.12204e+08
-3.00911e+08
-2.87138e+08
-2.71169e+08
-2.53483e+08
-2.3322e+08
-2.12263e+08
-1.88417e+08
-1.65274e+08
-1.38913e+08
-1.14905e+08
-8.66887e+07
-3.35042e+08
-2.97539e+08
-2.92706e+08
-2.8698e+08
-2.7837e+08
-2.68357e+08
-2.56099e+08
-2.42049e+08
-2.26479e+08
-2.08831e+08
-1.90601e+08
-1.70069e+08
-1.50201e+08
-1.27778e+08
-1.0745e+08
-8.36285e+07
-2.98917e+08
-2.65754e+08
-2.61365e+08
-2.56313e+08
-2.48622e+08
-2.39801e+08
-2.2896e+08
-2.16662e+08
-2.03029e+08
-1.87723e+08
-1.71936e+08
-1.54318e+08
-1.37325e+08
-1.183e+08
-1.01123e+08
-8.10226e+07
-2.66974e+08
-2.37667e+08
-2.33709e+08
-2.2928e+08
-2.22453e+08
-2.14726e+08
-2.05192e+08
-1.94481e+08
-1.82602e+08
-1.69379e+08
-1.55762e+08
-1.40689e+08
-1.26199e+08
-1.10092e+08
-9.55986e+07
-7.86307e+07
-2.3874e+08
-2.12857e+08
-2.09312e+08
-2.05449e+08
-1.99422e+08
-1.92686e+08
-1.84343e+08
-1.75052e+08
-1.64744e+08
-1.5336e+08
-1.41655e+08
-1.28794e+08
-1.16472e+08
-1.0286e+08
-9.06457e+07
-7.6321e+07
-2.13795e+08
-1.90929e+08
-1.87773e+08
-1.84419e+08
-1.79124e+08
-1.73277e+08
-1.66006e+08
-1.57977e+08
-1.49065e+08
-1.39293e+08
-1.29262e+08
-1.18313e+08
-1.07855e+08
-9.63634e+07
-8.6067e+07
-7.39384e+07
-1.91747e+08
-1.71529e+08
-1.68732e+08
-1.65831e+08
-1.61199e+08
-1.56142e+08
-1.49829e+08
-1.42913e+08
-1.35232e+08
-1.26866e+08
-1.1829e+08
-1.08985e+08
-1.00125e+08
-9.04353e+07
-8.17565e+07
-7.14751e+07
-1.72238e+08
-1.54335e+08
-1.51868e+08
-1.49367e+08
-1.45329e+08
-1.40969e+08
-1.35506e+08
-1.29564e+08
-1.22961e+08
-1.15813e+08
-1.08496e+08
-1.006e+08
-9.31006e+07
-8.49295e+07
-7.75998e+07
-6.88413e+07
-1.54947e+08
-1.39061e+08
-1.36893e+08
-1.34744e+08
-1.31235e+08
-1.27486e+08
-1.22769e+08
-1.17676e+08
-1.12011e+08
-1.05915e+08
-9.96812e+07
-9.29864e+07
-8.6643e+07
-7.97515e+07
-7.35487e+07
-6.60528e+07
-1.39589e+08
-1.25455e+08
-1.23556e+08
-1.21713e+08
-1.18671e+08
-1.15454e+08
-1.11391e+08
-1.07032e+08
-1.02181e+08
-9.69862e+07
-9.16811e+07
-8.60077e+07
-8.06423e+07
-7.48263e+07
-6.95648e+07
-6.31233e+07
-1.2591e+08
-1.13295e+08
-1.11636e+08
-1.10057e+08
-1.07425e+08
-1.04668e+08
-1.01174e+08
-9.74475e+07
-9.32974e+07
-8.88745e+07
-8.43613e+07
-7.95524e+07
-7.5011e+07
-7.00942e+07
-6.56116e+07
-6.00333e+07
-1.13685e+08
-1.02385e+08
-1.00939e+08
-9.95886e+07
-9.73147e+07
-9.49542e+07
-9.19512e+07
-8.87674e+07
-8.52187e+07
-8.14526e+07
-7.76124e+07
-7.35332e+07
-6.96844e+07
-6.55198e+07
-6.16854e+07
-5.68289e+07
-1.02719e+08
-9.2558e+07
-9.12986e+07
-9.01442e+07
-8.81811e+07
-8.61604e+07
-8.35808e+07
-8.08599e+07
-7.78246e+07
-7.46154e+07
-7.13443e+07
-6.7878e+07
-6.46076e+07
-6.1066e+07
-5.77609e+07
-5.3484e+07
-9.28445e+07
-8.36676e+07
-8.25719e+07
-8.15843e+07
-7.98896e+07
-7.81588e+07
-7.59418e+07
-7.36143e+07
-7.10156e+07
-6.82766e+07
-6.54852e+07
-6.25324e+07
-5.97446e+07
-5.67204e+07
-5.38518e+07
-5.00542e+07
-8.39132e+07
-7.55886e+07
-7.46355e+07
-7.37894e+07
-7.23253e+07
-7.08405e+07
-6.89329e+07
-6.69381e+07
-6.47089e+07
-6.23651e+07
-5.99764e+07
-5.74516e+07
-5.5064e+07
-5.24662e+07
-4.99534e+07
-4.6544e+07
-7.57994e+07
-6.82138e+07
-6.73841e+07
-6.66574e+07
-6.53906e+07
-6.41135e+07
-6.24685e+07
-6.07538e+07
-5.88361e+07
-5.68233e+07
-5.47709e+07
-5.26018e+07
-5.0545e+07
-4.82978e+07
-4.60741e+07
-4.29779e+07
-6.83952e+07
-6.14521e+07
-6.07288e+07
-6.01022e+07
-5.90033e+07
-5.79008e+07
-5.64775e+07
-5.49975e+07
-5.3341e+07
-5.16039e+07
-4.98313e+07
-4.79564e+07
-4.61719e+07
-4.4212e+07
-4.22231e+07
-3.9382e+07
-6.16088e+07
-5.52264e+07
-5.45941e+07
-5.4051e+07
-5.30943e+07
-5.21375e+07
-5.09007e+07
-4.9616e+07
-4.81774e+07
-4.66688e+07
-4.51277e+07
-4.34947e+07
-4.19329e+07
-4.02068e+07
-3.84064e+07
-3.57686e+07
-5.53624e+07
-4.94715e+07
-4.89169e+07
-4.84429e+07
-4.76059e+07
-4.677e+07
-4.56889e+07
-4.45659e+07
-4.33079e+07
-4.19874e+07
-4.06365e+07
-3.92013e+07
-3.78206e+07
-3.6284e+07
-3.46346e+07
-3.21601e+07
-4.95904e+07
-4.4133e+07
-4.36442e+07
-4.32269e+07
-4.24901e+07
-4.17537e+07
-4.08017e+07
-3.98113e+07
-3.8702e+07
-3.75351e+07
-3.63391e+07
-3.50643e+07
-3.38294e+07
-3.24454e+07
-3.09162e+07
-2.85739e+07
-4.42378e+07
-3.91656e+07
-3.87324e+07
-3.83611e+07
-3.77074e+07
-3.7052e+07
-3.62061e+07
-3.53235e+07
-3.43352e+07
-3.32922e+07
-3.22211e+07
-3.10745e+07
-2.99552e+07
-2.86917e+07
-2.72548e+07
-2.50125e+07
-3.9259e+07
-3.45323e+07
-3.41455e+07
-3.3811e+07
-3.32258e+07
-3.26354e+07
-3.18759e+07
-3.10796e+07
-3.01885e+07
-2.92441e+07
-2.82718e+07
-2.72263e+07
-2.6197e+07
-2.50277e+07
-2.3662e+07
-2.15008e+07
-3.46166e+07
-3.02026e+07
-2.98546e+07
-2.95489e+07
-2.90195e+07
-2.84804e+07
-2.77901e+07
-2.70615e+07
-2.62471e+07
-2.53791e+07
-2.44832e+07
-2.35148e+07
-2.25529e+07
-2.14536e+07
-2.01377e+07
-1.80328e+07
-3.02798e+07
-2.61522e+07
-2.58362e+07
-2.55524e+07
-2.50678e+07
-2.45682e+07
-2.39323e+07
-2.32554e+07
-2.24998e+07
-2.16893e+07
-2.085e+07
-1.99381e+07
-1.9024e+07
-1.79742e+07
-1.66906e+07
-1.46239e+07
-2.6224e+07
-2.23616e+07
-2.20719e+07
-2.18043e+07
-2.13549e+07
-2.08847e+07
-2.02904e+07
-1.96514e+07
-1.8939e+07
-1.81692e+07
-1.73694e+07
-1.64954e+07
-1.56115e+07
-1.45926e+07
-1.33254e+07
-1.12806e+07
-2.24295e+07
-1.88162e+07
-1.85478e+07
-1.82913e+07
-1.78693e+07
-1.74197e+07
-1.68559e+07
-1.62429e+07
-1.55601e+07
-1.48164e+07
-1.40406e+07
-1.3188e+07
-1.2318e+07
-1.13127e+07
-1.00467e+07
-8.00684e+06
-1.88814e+07
-1.55047e+07
-1.52537e+07
-1.50041e+07
-1.46026e+07
-1.41663e+07
-1.36236e+07
-1.30262e+07
-1.23613e+07
-1.16307e+07
-1.08652e+07
-1.00188e+07
-9.14795e+06
-8.14026e+06
-6.86192e+06
-4.81572e+06
-1.55682e+07
-1.24192e+07
-1.21822e+07
-1.19361e+07
-1.15495e+07
-1.11205e+07
-1.0591e+07
-1.00005e+07
-9.34326e+06
-8.61436e+06
-7.84636e+06
-6.99202e+06
-6.10515e+06
-5.07741e+06
-3.76862e+06
-1.69219e+06
-1.24819e+07
-9.55416e+06
-9.32859e+06
-9.08344e+06
-8.70731e+06
-8.28072e+06
-7.75806e+06
-7.16741e+06
-6.50921e+06
-5.77227e+06
-4.99065e+06
-4.11532e+06
-3.19836e+06
-2.13413e+06
-778793
1.34564e+06
-9.61667e+06
-6.90623e+06
-6.69017e+06
-6.44413e+06
-6.07516e+06
-5.64761e+06
-5.12693e+06
-4.53074e+06
-3.86471e+06
-3.11167e+06
-2.30659e+06
-1.39825e+06
-437033
681457
2.10263e+06
4.29976e+06
-6.96897e+06
-4.47351e+06
-4.26568e+06
-4.01782e+06
-3.65392e+06
-3.22343e+06
-2.70161e+06
-2.09645e+06
-1.41778e+06
-642747
193731
1.14535e+06
2.16416e+06
3.35452e+06
4.86224e+06
7.15982e+06
-4.53665e+06
-2.25502e+06
-2.0548e+06
-1.8051e+06
-1.44545e+06
-1.01164e+06
-487499
127853
821496
1.62174e+06
2.49501e+06
3.49778e+06
4.58623e+06
5.86565e+06
7.48253e+06
9.91194e+06
-2.31851e+06
-249925
-57299.6
193290
548165
983962
1.50946e+06
2.13361e+06
2.84149e+06
3.66666e+06
4.57848e+06
5.63651e+06
6.8041e+06
8.18816e+06
9.93921e+06
1.25388e+07
-313466
1.54297e+06
1.72742e+06
1.97696e+06
2.32516e+06
2.75978e+06
3.28326e+06
3.91184e+06
4.62949e+06
5.47483e+06
6.42174e+06
7.53328e+06
8.78443e+06
1.02837e+07
1.21944e+07
1.50036e+07
1.4799e+06
3.12566e+06
3.30085e+06
3.54646e+06
3.88477e+06
4.31326e+06
4.82891e+06
5.45435e+06
6.17301e+06
7.0283e+06
7.99987e+06
9.15494e+06
1.04858e+07
1.21027e+07
1.42026e+07
1.72673e+07
3.06379e+06
4.5031e+06
4.66745e+06
4.90545e+06
5.22942e+06
5.64511e+06
6.1447e+06
6.75608e+06
7.46215e+06
8.31058e+06
9.28675e+06
1.04632e+07
1.18542e+07
1.35767e+07
1.58969e+07
1.92881e+07
4.44332e+06
5.68217e+06
5.83376e+06
6.05979e+06
6.36403e+06
6.75888e+06
7.23215e+06
7.81562e+06
8.49085e+06
9.30855e+06
1.02575e+07
1.1416e+07
1.28188e+07
1.46013e+07
1.71296e+07
2.09287e+07
5.62552e+06
6.64581e+06
6.78324e+06
6.99374e+06
7.2739e+06
7.64118e+06
8.07937e+06
8.62255e+06
9.24968e+06
1.00123e+07
1.08975e+07
1.19863e+07
1.33194e+07
1.50519e+07
1.76223e+07
2.16718e+07
6.59305e+06
7.5639e+06
7.682e+06
7.86812e+06
8.11252e+06
8.43628e+06
8.81895e+06
9.29473e+06
9.83715e+06
1.0493e+07
1.12362e+07
1.21326e+07
1.31834e+07
1.45062e+07
1.6437e+07
1.94523e+07
7.51724e+06
7.9411e+06
8.04528e+06
8.21276e+06
8.43095e+06
8.72245e+06
9.06497e+06
9.49256e+06
9.97613e+06
1.05595e+07
1.12089e+07
1.19777e+07
1.28305e+07
1.38253e+07
1.50277e+07
1.72454e+07
7.8991e+06
)
;

boundaryField
{
    wireUpstream
    {
        type            zeroGradient;
    }
    wireDownstream
    {
        type            zeroGradient;
    }
    wireTopContact
    {
        type            zeroGradient;
    }
    front
    {
        type            wedge;
    }
    back
    {
        type            wedge;
    }
}


// ************************************************************************* //
