/*--------------------------------*- C++ -*----------------------------------*\
  =========                 |
  \\      /  F ield         | OpenFOAM: The Open Source CFD Toolbox
   \\    /   O peration     | Website:  https://openfoam.org
    \\  /    A nd           | Version:  8
     \\/     M anipulation  |
\*---------------------------------------------------------------------------*/
FoamFile
{
    version     2.0;
    format      ascii;
    class       surfaceVectorField;
    location    "0.0730000";
    object      Uf_0;
}
// * * * * * * * * * * * * * * * * * * * * * * * * * * * * * * * * * * * * * //

dimensions      [0 1 -1 0 0 0 0];

internalField   nonuniform List<vector> 
1094
(
(0.590921834803378 0.000542832837894302 -4.11061631526005e-19)
(0.360545137733574 0.00179613540686398 -2.32126474768869e-18)
(0.5911129685471 0.00039043757053679 -5.97266754649243e-18)
(0.362364071822276 0.00191166244457648 -3.93258355676819e-18)
(0.591183881818791 0.000384065491032578 -9.59584005706976e-18)
(0.362377762864623 0.00201463830068336 -1.49249735577382e-17)
(0.591060061583278 0.000417593279767774 4.93578019516915e-18)
(0.3622191296464 0.00216145245543159 -4.39176588335748e-18)
(0.590823273994363 0.000435227106394118 1.22514905359468e-17)
(0.361818934322662 0.00224729899027654 1.60557144745868e-17)
(0.590537108259808 0.000444679522924428 1.56355416601734e-18)
(0.361292264705926 0.00228902155204444 8.28256561038028e-18)
(0.590231015039485 0.000451399116136302 -8.81017560920606e-18)
(0.360716007404068 0.00231081080720063 -8.96584431675155e-18)
(0.589916153425185 0.000457180848966762 -1.02926707819569e-17)
(0.360118790800575 0.00232590581738776 -2.00981938433587e-17)
(0.589594821908765 0.000462301320421303 -1.296601971553e-17)
(0.359508532138158 0.00233879527434601 -1.01121625615044e-17)
(0.589265833481038 0.000466981003458492 -1.8628553094823e-17)
(0.35888582658356 0.00235061476700844 -3.4991982695916e-17)
(0.588928574161505 0.000471620577915074 1.04765857309172e-17)
(0.358249299571912 0.00236232860699285 -4.05243050115441e-17)
(0.588582605302517 0.000476436037075519 -6.38291162204369e-19)
(0.357598187753085 0.00237433330988367 5.44582720141205e-17)
(0.588228939543129 0.000481058387904059 -3.48658204041053e-18)
(0.356932444301486 0.00238692761628438 -1.91241091754164e-17)
(0.587865511352081 0.000485237977592011 7.39125911794944e-17)
(0.356251216140129 0.00239874345597327 5.97321093431051e-17)
(0.587491848822233 0.000489315084522687 7.63717944719574e-17)
(0.355552906849746 0.00241040316649137 1.59462526062869e-16)
(0.587107549348265 0.00049358571519253 4.85252154619185e-17)
(0.354836619495473 0.00242228662342938 6.21264282650974e-17)
(0.586713286051591 0.000497939029273292 4.62844059957603e-17)
(0.354102303712283 0.00243485660497105 4.34692691311962e-17)
(0.586308031683068 0.000502084579591732 3.16707607319273e-17)
(0.35334939317804 0.00244739424274317 6.10819392282471e-17)
(0.585890680693574 0.000506098235087069 1.03854994071013e-17)
(0.352576434624614 0.00245977307746159 6.11421601378325e-17)
(0.5854607001754 0.000510281903856924 -2.20669039701482e-17)
(0.3517821660945 0.00247240235679021 -1.70732421693578e-17)
(0.585018050984938 0.000514791642302116 2.88579194871043e-18)
(0.350965953117957 0.00248571912346881 -8.1657601313695e-17)
(0.584563243773102 0.000519287749495521 2.66420419037473e-17)
(0.350127610654461 0.00249983998747767 1.89363290235718e-17)
(0.584094416128327 0.000523599429755397 -3.82924655444138e-17)
(0.349266020117445 0.00251366137476837 2.14278788548442e-17)
(0.58361096049767 0.000528113736856424 -5.5246542912032e-17)
(0.348379355649933 0.00252782417896014 -1.17341646737909e-16)
(0.583112250938772 0.000533290490841108 -2.28852842403599e-17)
(0.347466597343053 0.00254282891650513 -2.88155510801175e-17)
(0.582599460353479 0.00053884214808476 -1.41686938403226e-17)
(0.346527635110151 0.00255960055061512 -4.76810128996617e-17)
(0.582070702695139 0.000544252733886756 2.49313658685177e-17)
(0.345561504977245 0.00257641749497535 -1.48108331015765e-17)
(0.581524991625335 0.000549802746847643 8.8651375178358e-17)
(0.344566253745177 0.00259348528646278 1.06554896373556e-16)
(0.58096156410949 0.000556148836202617 1.65770252381791e-16)
(0.343540320788824 0.00261151359217672 2.45546024480665e-16)
(0.5803811302403 0.000563505902953842 1.37255451961266e-16)
(0.342483275467377 0.00263172482662953 1.68878955846033e-16)
(0.579784004052809 0.000571204965460881 -1.86196098137292e-17)
(0.341394998920452 0.00265369838101761 -1.10135111115679e-17)
(0.579167815782998 0.000579029656003644 -5.78260249515397e-17)
(0.34027404660815 0.00267585182930653 -9.99357017354605e-17)
(0.578531760176606 0.000587849218355853 -3.04831087377431e-17)
(0.339117736706622 0.00269925106484116 -1.0915208236487e-17)
(0.577875334163618 0.000599088300826571 -5.99188266071241e-17)
(0.337925412739261 0.00272531647844899 -9.41710351286624e-17)
(0.577203593966639 0.00061172471336504 1.4690512064066e-17)
(0.336698850851126 0.00275725989422577 -1.56319006368762e-16)
(0.576511707880566 0.00062446240218553 1.42087166482392e-16)
(0.335437593469185 0.00278879295468373 8.83046896674167e-17)
(0.5757993898104 0.00063873193228006 7.08627382666571e-17)
(0.334138604189445 0.00282227744763648 1.48590452870654e-16)
(0.575066022529311 0.000656913406969763 -7.53042730219375e-17)
(0.332801087842888 0.00285979609642643 -7.54630404900213e-17)
(0.574317810516457 0.000678839140017068 -5.00556763775922e-17)
(0.331428480064822 0.00290659674159371 -1.18307286266009e-16)
(0.573554184294511 0.00070201427893679 4.85430811040512e-17)
(0.330023163862546 0.00295720308871245 2.3321708306455e-17)
(0.572773283782186 0.0007267534950864 1.09629186608877e-16)
(0.328584567116494 0.00300938221028505 1.74164608575865e-16)
(0.571976025225568 0.000756582929932566 1.88316753034236e-16)
(0.327111322169941 0.00306658824122511 2.53349158535331e-16)
(0.57116714577986 0.000795240602268057 1.63486878651531e-16)
(0.325609618934705 0.00313587180436283 3.95578892789465e-16)
(0.57035928696332 0.000838539129123461 2.45851802071713e-17)
(0.324088787132131 0.00322236418980078 5.75335094384669e-17)
(0.569545441308911 0.00088277260070928 -5.02299028587858e-17)
(0.322553812674973 0.00330794549248177 -7.20762596536671e-17)
(0.568731162229843 0.000933244849010476 -3.09838605158071e-17)
(0.321004348270301 0.00339951309674448 -1.45167300369917e-16)
(0.567919195949544 0.0010011128128761 3.21447927579082e-19)
(0.319452100947964 0.00350595695119383 -2.54480610760667e-17)
(0.567143980444781 0.00108091294581311 -4.94114851572399e-17)
(0.317920606211204 0.00365372850574014 -7.69070765708685e-18)
(0.566396950653848 0.0011617655741096 -1.47150194353568e-16)
(0.316426363660253 0.003799698980767 -1.54129861392682e-16)
(0.565689275489967 0.001250638181489 -2.10325153233344e-16)
(0.314981202325131 0.00395273368138625 -2.28221370971119e-16)
(0.56503347688961 0.0013632209277404 -1.33861209349262e-16)
(0.313602046095237 0.00412576244382091 -4.1235675886061e-16)
(0.564470539237524 0.00150376449387963 6.26453108481692e-18)
(0.312339471410482 0.0043540455447496 -2.19983953510267e-16)
(0.564030798756924 0.00165331869532103 2.97434612125983e-17)
(0.311234918274715 0.00461634387834542 1.21666090809613e-16)
(0.563726130114129 0.00180755205253996 3.61182553395052e-18)
(0.310336250413099 0.00487469352500723 -7.6565234614021e-19)
(0.563609796092188 0.00199648217735518 -4.46154801504665e-17)
(0.309677909103623 0.00515524235935318 1.75101409798586e-17)
(0.563805708198757 0.002315436721599 -8.62050371934884e-17)
(0.309410767171203 0.00552486786867368 -1.91712461599758e-16)
(0.564771667622534 0.00277032409346778 -4.10426833507081e-17)
(0.309878739753767 0.00621363726620691 -1.54799230942749e-16)
(0.566779720124176 0.00330909945280126 1.93163221271966e-18)
(0.311560145156854 0.00701335031428808 -9.65745950909835e-18)
(0.570138217458129 0.00398415764318546 9.21420992872765e-17)
(0.314846401960066 0.00796956114718252 1.48078883653895e-17)
(0.575013138380067 0.00496972198989632 1.41044880881567e-17)
(0.320313714321126 0.00919512740984696 2.58558942521483e-16)
(0.581933431745997 0.00606210558163069 -9.54291471001086e-17)
(0.328504650497239 0.011089070862378 -2.93110154646688e-16)
(0.590669383787796 0.00696099283502256 -5.02110447881213e-18)
(0.339669980834834 0.0126195251198909 -9.13327172337491e-17)
(0.601319834075421 0.00775758847590515 -7.58603710829391e-17)
(0.353989714530152 0.0138853761974101 -6.1546282517033e-17)
(0.613896569059963 0.00861070519575681 -1.44245386541882e-16)
(0.371584410937884 0.0150467909577889 -2.63701870461971e-16)
(0.628704110202176 0.00935768662380085 -5.30620234569199e-17)
(0.392656991844656 0.016408233143656 -2.0089651820375e-16)
(0.645448560111861 0.00974791461958982 1.21378219681006e-17)
(0.417101952895172 0.0171587841345264 -9.16441927695689e-18)
(0.663964787402325 0.00988547556462787 4.08068698683413e-17)
(0.444717417445036 0.0173564218449593 5.64720196777663e-17)
(0.684028622265133 0.00990936937549202 5.79769672861664e-17)
(0.475161266437113 0.0172467342837189 2.14036049534786e-16)
(0.705568487934708 0.00969877095415606 6.84784051867021e-17)
(0.508060415466878 0.0170009597406984 1.29756598993332e-16)
(0.72810318635615 0.00915222834449349 -4.44086454384303e-17)
(0.542933225608704 0.0160858939260963 4.5031114268031e-17)
(0.751361018981094 0.00841430458259805 -9.56239657509164e-17)
(0.579301820824954 0.0147548271829417 -1.0881379920097e-16)
(0.77509885986523 0.00754106945402937 1.11267896634195e-16)
(0.616601833203589 0.0131944758505353 -6.33042022130715e-17)
(0.799114532830821 0.00652257620461142 6.85372122163334e-17)
(0.654437237049534 0.011405630702046 2.88922480816602e-16)
(0.823170383134539 0.00541491526686722 -1.26385213614891e-16)
(0.692474149549155 0.00937376850707928 -1.85854848497432e-16)
(0.847175966299879 0.00428711359534209 2.42767036723049e-17)
(0.73045909091819 0.00730367339967307 -5.99733617516811e-17)
(0.871063230653094 0.0031405033599505 2.08490647518129e-16)
(0.768145287574738 0.00521374662764466 3.27946951514541e-16)
(0.894718315418367 0.00203914996778506 6.86431796090513e-17)
(0.805469432980787 0.00308710069699896 2.83061450165933e-16)
(0.918288635560309 0.00104263974868786 -7.81749209115605e-17)
(0.842448783209102 0.00116283014449477 -1.89944180393314e-16)
(0.941866566806277 0.000145381411331819 -1.04672329566627e-17)
(0.879207431065291 -0.000605717147174077 -1.27967400965499e-16)
(0.965502611411487 -0.000614089400264372 -1.14173354782336e-16)
(0.91595028093208 -0.00221575225277143 9.18994342295068e-17)
(0.989359724831839 -0.00123729100662553 -1.68145727104464e-16)
(0.952746165165055 -0.00355847350207583 -3.63117585266786e-16)
(1.01391449598124 -0.00172093268776599 -7.3334819565678e-17)
(0.990328720489117 -0.00470173558852834 -1.29268862113601e-16)
(1.03921320199335 -0.00199821646934963 -5.5882020556453e-17)
(1.02856773460426 -0.00558270919557795 -1.59626863888374e-16)
(1.06596594322504 -0.00201954825670133 3.11210572179404e-17)
(1.06967275494532 -0.00614724821430449 -6.48960070679869e-17)
(1.09327587545965 -0.00214619398455491 8.35125534037582e-17)
(1.10964040923964 -0.00627599406296334 8.6206247645759e-17)
(1.12141223557113 -0.00108682094384733 9.77768653487035e-20)
(1.15917616681893 -0.00633172852587256 1.4833891789079e-16)
(1.1214090507301 -0.000124688704598256 -2.10039619086233e-17)
(1.17973611294624 -0.00103672797405715 -1.4826252645485e-16)
(1.12413849693409 5.49749284959481e-05 -4.10098884693926e-17)
(1.17459150759598 -0.000777703541907955 6.09171435276236e-17)
(1.12513995057156 0.000268426813175497 -8.60756915031987e-17)
(1.17852614742963 -0.000168883677552521 -1.13049389069199e-16)
(1.12627174600879 0.00043520063273948 -3.27469290241034e-17)
(1.17797712300972 9.64862364538463e-05 -1.1778255149838e-16)
(1.12678603928594 0.000561679099574398 -3.5560046258861e-18)
(1.17881856480685 0.000450843401959556 -2.4270706128069e-18)
(1.12706698902046 0.000596092534003897 2.21155453201968e-17)
(1.17860855403634 0.000587956266490148 -1.40412777523203e-18)
(1.12714912300855 0.000622384147759025 -2.3549984634481e-18)
(1.17860502316377 0.000687487584330289 3.37915027353458e-17)
(1.12709378611011 0.000626822241945956 -2.70986032431693e-17)
(1.17834320933511 0.000758619078442519 -1.00602366939757e-16)
(1.12695106930138 0.000608730437418574 4.15791333605164e-18)
(1.17804442713844 0.000786733341215983 1.00394733943541e-18)
(1.1267720007145 0.000581898157944577 5.20279029069796e-18)
(1.17769636023185 0.000789865131033676 2.99916841288109e-18)
(1.12657216967669 0.000542042341455153 -3.64434875957517e-18)
(1.17734598254386 0.000778553749909055 -5.85224136341191e-18)
(1.12632486093324 0.000494933748149355 -5.3159292182714e-18)
(1.17694083246217 0.000736526142515819 -7.92611842411213e-18)
(1.12589533603151 0.000467600321736829 -4.32744835037625e-18)
(1.17661037690019 0.000687848887099732 -1.0101162182569e-18)
(1.17576943963293 0.000542196963880343 -1.59554939653942e-18)
(0.129124348955033 0.00345700806328128 -5.88595018001775e-18)
(-0.0218087406125188 0.00523837040590197 -6.09104853161372e-18)
(0.130071518729998 0.0039531272517726 -1.29588782131873e-17)
(-0.0190789668211464 0.00576294703825448 -1.1281341601489e-17)
(0.130175126127698 0.004311741406802 -9.69871924183371e-18)
(-0.0191765395185362 0.00646144222027907 -1.44947650388613e-17)
(0.12975296128775 0.00455620620733377 6.78630791126558e-18)
(-0.0196255227783871 0.00697016900117404 4.19534744554304e-18)
(0.129072845983709 0.0046838464139185 1.20680973130498e-17)
(-0.0204008066233768 0.00723300929408516 1.88623352174384e-17)
(0.128280858852887 0.00474557362643873 -2.31268770347367e-18)
(-0.0213368648858694 0.00735270035647342 1.58048622256885e-17)
(0.12744075673437 0.00477964875799957 -2.03585973338311e-17)
(-0.0223389060059834 0.00741015548832029 -1.50458621103016e-17)
(0.126576067773661 0.00480434063405222 -1.99602205916479e-17)
(-0.0233726082651912 0.00744556880616011 -4.23494856082852e-17)
(0.125692763721141 0.00482614304035276 -3.23267977580006e-17)
(-0.0244284797173265 0.00747442811896666 -3.38888164619781e-17)
(0.124790416514267 0.00484721874214523 -5.71574730413639e-17)
(-0.0255056605468634 0.00750158174862324 -7.38368687703018e-17)
(0.12386785421931 0.00486852265185972 3.64149977179794e-18)
(-0.0266056074946761 0.00752876685842824 -6.53678843029836e-17)
(0.122924386451745 0.00489039709725025 3.60317831155303e-17)
(-0.0277293864826963 0.00755666230208973 4.66687597880619e-17)
(0.121959704754631 0.00491230578594819 4.46005525588966e-17)
(-0.0288774530867163 0.00758525519698638 -1.15627935377212e-17)
(0.120971687797485 0.00493387899888715 1.45993225757354e-16)
(-0.0300511681784138 0.00761361310240028 9.99362438836332e-17)
(0.119958842668593 0.0049556045357034 1.45405156094193e-16)
(-0.0312526509564827 0.00764200862158871 1.9729875728193e-16)
(0.118920342518121 0.00497794664170161 5.70756710054054e-17)
(-0.032483253436785 0.00767101965643404 1.15756143254522e-16)
(0.117855819996229 0.00500078484134191 5.83878095710353e-17)
(-0.0337435833184058 0.00770095943511627 -2.55910456718311e-18)
(0.116763765716863 0.00502371401164568 9.0915732522083e-17)
(-0.0350347149441118 0.00773132258911278 4.40295104066076e-17)
(0.115642308980809 0.00504687695583045 3.36122273890507e-17)
(-0.0363586379630031 0.00776193603260532 6.39874455897336e-17)
(0.114490091692562 0.0050707543947946 -7.7170738254085e-17)
(-0.0377172417612188 0.00779322832679292 -3.87425668731968e-17)
(0.11330637203743 0.00509562365028334 -6.57318269932839e-17)
(-0.0391117446757688 0.00782571783892812 -1.27374565578404e-16)
(0.112090371395509 0.00512099959923153 1.36533294405777e-17)
(-0.0405429554688626 0.00785938220531909 -1.85850758312618e-17)
(0.110839685677811 0.00514666268540461 -5.81355083063663e-17)
(-0.0420127285412981 0.00789342685163397 6.72623146911988e-17)
(0.109552434735644 0.00517325390325154 -9.08542951010408e-17)
(-0.0435236652478836 0.00792827987106303 -1.2080938142941e-16)
(0.108227483505997 0.00520153801376545 -5.38416850557143e-17)
(-0.0450775404441005 0.00796475533207118 -2.38220160375907e-17)
(0.106864582835532 0.00523110387231051 -4.84140521635051e-17)
(-0.046675003418856 0.00800346433033034 3.42022408026833e-17)
(0.105461215062951 0.00526117967575493 6.74198452380657e-17)
(-0.0483176463461392 0.00804308790392405 9.00873931700364e-17)
(0.104014840561098 0.00529226506834923 2.64840271906177e-16)
(-0.0500085256903945 0.00808358833902977 2.08414066405385e-16)
(0.102523769002524 0.00532547846261363 2.48854777417281e-16)
(-0.051750220992326 0.00812593823228965 4.04808838270942e-16)
(0.100987704588493 0.00536124480566119 1.94029534006441e-17)
(-0.0535438413351518 0.00817136817725773 2.16753908816179e-16)
(0.0994055841652875 0.00539852626098431 -9.30117863727446e-17)
(-0.0553900378414815 0.00821942805368456 -5.58281941016405e-17)
(0.0977740508067383 0.00543706249271612 -5.26981864423356e-17)
(-0.0572913712271029 0.0082687589553546 -1.02814972691921e-16)
(0.0960906139574443 0.00547838666253429 -7.51155872595535e-17)
(-0.0592516722986123 0.00832024797080546 -1.10802789811112e-16)
(0.0943550298335629 0.00552499109721663 -1.91446501684269e-16)
(-0.0612727567772942 0.00837616467105055 -2.10656264792933e-16)
(0.0925702793566357 0.00557522957800564 -8.2308397736056e-17)
(-0.0633524347924514 0.00843874096550782 -2.59413164342262e-16)
(0.0907317710351529 0.00562701663018548 9.47982623712992e-17)
(-0.0654916191257564 0.00850285609814713 8.47804947370726e-17)
(0.0888368592490846 0.00568290445563965 1.09650852415242e-18)
(-0.0676953206345112 0.00856985556837733 1.06054384882089e-16)
(0.0868861585131057 0.00574713846780211 -1.18834309389454e-16)
(-0.0699652757500843 0.00864329183297427 -1.58703760167573e-16)
(0.0848861100531728 0.00581954474899736 -4.43539777683665e-17)
(-0.0722966092176142 0.00872778318736674 -1.42286752060691e-16)
(0.0828369087427469 0.0058958642057185 1.5000502998168e-16)
(-0.0746850709773676 0.00881834225031679 2.93681652174054e-17)
(0.0807356933660651 0.00597679811953917 3.19148911575616e-16)
(-0.0771328844151238 0.0089121612557727 2.49520125345841e-16)
(0.0785840103430131 0.00606874671259703 4.62416752952756e-16)
(-0.079642676720487 0.00901328211664073 3.90101328405386e-16)
(0.0763929459256265 0.00617849135845609 2.88743369340596e-16)
(-0.0822072106984473 0.00913058723721512 5.0118582383191e-16)
(0.0741788396791466 0.00629861524923849 -3.99658679820656e-17)
(-0.0848081784296747 0.00926738146497661 -1.50892099758414e-17)
(0.0719386795066448 0.00642263814757022 -1.6783394119605e-16)
(-0.0874377641135829 0.00940677013733291 -1.53481088453662e-16)
(0.0696770885769011 0.00656026923481738 -1.39541543474677e-16)
(-0.0900995742597514 0.00955310239322125 -1.39279877146963e-16)
(0.067414245942836 0.00673191924127715 -3.35170263925198e-17)
(-0.0927823193166438 0.0097219269560811 6.49934824500877e-17)
(0.0651993066955237 0.00692763683107824 -1.13359418714908e-16)
(-0.0954387369562689 0.00993513834012306 -3.40633910693589e-18)
(0.0630376492736663 0.00712747721287039 -2.35911628541948e-16)
(-0.09803623764367 0.0101523003210409 -2.75722083003218e-16)
(0.0609442549867941 0.00734414840039394 -4.32032501553246e-16)
(-0.100569829743398 0.0103763118265651 -2.65953781699607e-16)
(0.0589589221428868 0.00760690225254085 -4.98919766969719e-16)
(-0.103016593986691 0.0106280481524907 -6.45951051675909e-16)
(0.0571675599721106 0.00792329875660638 -1.03238959180427e-16)
(-0.10529526041431 0.0109437629045863 -4.14501127036602e-16)
(0.0556391994222598 0.00825788064559623 9.07418154731372e-17)
(-0.107309817680754 0.0112989788281842 1.22001994735834e-16)
(0.0544077393572459 0.00860271204182942 1.326665315081e-17)
(-0.109003424818329 0.0116521735064028 -9.63318764722401e-18)
(0.0535607507137862 0.00901735715713839 -1.3107027112732e-16)
(-0.11033878968653 0.0120264755799463 -9.35913904624948e-17)
(0.0533651509283286 0.00968234261369832 -2.60789987311897e-16)
(-0.111175615730092 0.0125331072776067 -3.95193048267734e-16)
(0.05446060355807 0.0106093964868152 -1.22946629269623e-16)
(-0.110974005694999 0.0133921480269261 -1.7950483352508e-16)
(0.0573185510306314 0.0116973983903808 3.35851480369711e-18)
(-0.109072661641184 0.0144103788929875 -1.40385507379938e-17)
(0.0624876429178959 0.0130439665531572 1.82960470586976e-16)
(-0.105001568544848 0.0155907552285892 2.10754207343109e-17)
(0.0707613644577199 0.0149621212655435 -5.17578131352334e-17)
(-0.0980683963837918 0.0171501976354956 4.5325405068264e-16)
(0.083370126974022 0.0170469249983385 -2.89075067428947e-16)
(-0.086798567010937 0.0193851094630769 -4.18360551979706e-16)
(0.100284782561129 0.0187155320307316 -1.48407115114599e-16)
(-0.0704312315999312 0.0212181336848874 -1.74268105442104e-16)
(0.121527680230949 0.0201314286626543 -2.50988997586496e-16)
(-0.0491963043995333 0.0226233905348209 -2.32133931489499e-16)
(0.147395352614836 0.0215877449321268 -3.2103067929623e-16)
(-0.0229873179527658 0.0238949954178579 -4.65741694211908e-16)
(0.178480308839523 0.0227576168649296 -1.57016350239403e-16)
(0.00901592188227326 0.0252554492708855 -3.60848267417441e-16)
(0.214213897544535 0.0231672990092268 3.53942802386182e-17)
(0.0468677705589153 0.0258462352553718 -1.57328840844932e-17)
(0.253959031313071 0.023019541324063 2.30682794381009e-16)
(0.0896172291435928 0.0256638283912592 1.07362581777139e-16)
(0.297355589047769 0.0225781236391113 2.86548585597116e-16)
(0.136646360170628 0.025065670784207 4.38062181817264e-16)
(0.344151264035389 0.0216115671298458 1.06398604953329e-16)
(0.187840323072532 0.0241737201441032 9.15630924815519e-17)
(0.393293337238336 0.01994874071853 -1.93918188069874e-17)
(0.242411037361354 0.0224511609977646 -3.66208585305354e-17)
(0.443993015811791 0.0178764447349935 -7.6446478905607e-17)
(0.299109799845839 0.0201589841984653 -1.33847579679132e-16)
(0.495713567575281 0.0155124913309591 1.14288238509068e-16)
(0.357214574906432 0.0175535044538517 -8.42313176182628e-18)
(0.547926073248892 0.0128522255673286 3.46558512377372e-17)
(0.416180010417502 0.0146387416982873 3.38088022601373e-16)
(0.600085732523588 0.010018622595894 -1.19503105406464e-16)
(0.47531013355069 0.0114344295489177 -1.16631130656897e-16)
(0.651940565506408 0.00714860450408851 2.43070759120162e-16)
(0.534146936955154 0.0081747618460171 9.0408120149589e-17)
(0.703272156989968 0.00425361859074306 4.0174285121752e-16)
(0.592456485430497 0.00488722603189827 5.66853980115879e-16)
(0.753880273302901 0.00146908949221664 2.43157650568342e-17)
(0.649917757897141 0.00159421162104918 3.95515109480561e-16)
(0.804013074425617 -0.00109554175359333 -2.38702095165983e-16)
(0.706546052346534 -0.00145007358983883 -1.70424636639317e-16)
(0.853886195276133 -0.00345668392018348 -2.51678274247711e-17)
(0.762688524098851 -0.00428553511927352 -2.56269570037398e-16)
(0.903662025832 -0.00554006334617938 -1.5779796164796e-16)
(0.818564215776861 -0.00690975413943484 2.01555324882838e-16)
(0.953798718065735 -0.00734631828818301 -3.21991178989654e-16)
(0.874265606101322 -0.00920019024784224 -4.50550298392561e-16)
(1.00501890732013 -0.00888791179901508 -2.14120872906802e-16)
(0.930971951559517 -0.0112417563792933 -1.41430219694293e-16)
(1.05793951312528 -0.0100514714045834 -1.66784773543251e-16)
(0.988330118178691 -0.012952765440985 -3.15500418281367e-16)
(1.11340827043011 -0.0107161001466377 -8.34439657958938e-18)
(1.04993358676163 -0.0143315809699414 -2.30219836740199e-16)
(1.17183151336486 -0.0109286615595483 1.50455863516254e-16)
(1.1098757207002 -0.0150664740483333 7.10887631844916e-17)
(1.22624252279451 -0.00592527382572073 -6.67304772091045e-19)
(1.18471231622531 -0.0147045323321511 2.99567859937003e-16)
(1.22771732205351 -0.00108195830846101 -6.57830868589541e-17)
(1.21475187967697 -0.0014357372970471 -2.07895649754833e-16)
(1.22895526565873 -0.000478681684305475 -1.15314486562722e-17)
(1.20500965015471 -0.00102861057566324 8.70989576102074e-17)
(1.22927899170391 2.24881638110588e-05 -1.4402332548665e-16)
(1.2099250336014 -0.000223068126828809 -5.87783926500082e-17)
(1.22940283703353 0.000415507204977343 -8.67198308330995e-17)
(1.20796538344698 0.000118875273240064 -2.32621859625907e-16)
(1.22930629069146 0.000711740431462987 -3.12937783811053e-19)
(1.20857537534499 0.000540310853577536 8.31825027149936e-18)
(1.22903280154452 0.000840262218403082 1.04291190939103e-17)
(1.20793235801826 0.000723581943238684 -2.60278140620727e-18)
(1.22866535775824 0.000938799813252843 -6.39214312359503e-17)
(1.20766135671378 0.000847688119765265 -3.19721977818983e-17)
(1.22823368178727 0.000995249847699975 -7.19291993125094e-17)
(1.20714742855457 0.000934686741857756 -2.04540494989235e-16)
(1.22775827937825 0.00100787603143456 -1.10376180898303e-19)
(1.2066793081807 0.000971605260892523 1.46838396714954e-17)
(1.22726516594171 0.0010007191429272 -7.93270141739159e-18)
(1.20615356788948 0.000976553907829676 -1.67446957426151e-17)
(1.22677426934248 0.000967188677128525 -1.00737220277507e-17)
(1.20566516372697 0.000961368170729018 9.90533311070288e-18)
(1.22628772490754 0.000917725913001641 -3.62801101868984e-18)
(1.20512961878116 0.000910914336179709 3.99641196348486e-18)
(1.22581809527055 0.000863219330310666 1.6717977202031e-18)
(1.2047972769371 0.000845747057917972 6.99429110354201e-18)
(1.20428023079018 0.000627420312620629 5.4026785204541e-19)
(-0.171470170831798 0.00764923701501193 -1.15362653312883e-17)
(-0.242937984650481 0.0085443089599887 -8.52477762875665e-18)
(-0.170651517958077 0.00846243445915929 -1.2823444088665e-17)
(-0.241521451510257 0.0094304337973072 -1.2731827499906e-17)
(-0.170929306412757 0.00937533432506395 -4.97249558830191e-19)
(-0.242280311129661 0.0108882356564675 -9.84662316964082e-18)
(-0.171741382819304 0.00991603820260952 1.63681410286968e-17)
(-0.243223726733029 0.0117562682358497 1.94751359200265e-17)
(-0.172778312598828 0.0101762375696834 2.26615730637505e-17)
(-0.244323982669419 0.0121666720380966 3.35258072124096e-17)
(-0.173911243380235 0.0102956538181215 3.03473115704167e-18)
(-0.245502030447283 0.0123476282331562 3.88222461576225e-17)
(-0.175090290169548 0.0103578345896381 -3.72095148375224e-17)
(-0.246717725781915 0.0124335859746308 -1.20097352651328e-17)
(-0.176298094589555 0.0104005688052211 -5.64908561320254e-17)
(-0.247959270129076 0.0124861904493616 -6.42549764635896e-17)
(-0.177530477517328 0.0104378410394782 -7.57695314880067e-17)
(-0.249224535091686 0.0125291769711646 -7.05093323192007e-17)
(-0.178787965327708 0.0104741625198276 -8.21830696314302e-17)
(-0.250514306512913 0.0125701556648655 -8.39848383063669e-17)
(-0.180071845558569 0.0105110020035648 -2.2223261635789e-17)
(-0.251830077380439 0.0126114379051533 -8.06780449301841e-17)
(-0.181383020067785 0.0105487277743406 -1.30053077926108e-18)
(-0.253172962510499 0.0126537012923241 2.69488609680104e-17)
(-0.18272244311549 0.0105869065540991 4.40531062301339e-17)
(-0.254543734009343 0.012696921265418 2.33043506241339e-19)
(-0.184092080103746 0.0106252328471809 1.51526001807729e-16)
(-0.255943824337484 0.0127404482416998 1.07676746197115e-16)
(-0.185493751219581 0.0106641005961913 1.67568035034385e-16)
(-0.257375216045379 0.0127844507245896 1.81145268325822e-16)
(-0.186928644383388 0.0107039264543004 5.58002576012574e-17)
(-0.258839410743329 0.0128293734774882 1.20282272466364e-16)
(-0.188397771849394 0.0107446423010518 -1.72310731788907e-17)
(-0.26033743175459 0.0128754660986844 -1.16464852084878e-17)
(-0.189902858217 0.0107859491339532 1.67297939545895e-17)
(-0.261870615091929 0.0129224063030553 -4.5666923103003e-17)
(-0.191446006376699 0.0108279841041137 -8.89312237252516e-18)
(-0.263440948630716 0.012970088533344 2.16110283466683e-17)
(-0.193028971663675 0.0108711933140663 -8.92634292417346e-17)
(-0.265050406389272 0.0130188528436704 -6.62860354979035e-17)
(-0.194653022996009 0.010915829170787 -7.99962685658104e-17)
(-0.266700504678257 0.0130691162482968 -7.59139877236827e-17)
(-0.1963196510217 0.0109615278191274 3.53918904748992e-17)
(-0.268392508886768 0.0131208844754421 1.97839284180626e-17)
(-0.198031391766165 0.0110081418803981 4.37285509487225e-18)
(-0.27012846302235 0.0131736281871738 9.07682487371662e-17)
(-0.199790621843737 0.0110562670635366 -5.32858181627661e-17)
(-0.271910972073639 0.0132276795035446 -1.02692973564509e-16)
(-0.201598891812826 0.0111065903025619 6.50260784534757e-17)
(-0.273742057776576 0.0132837083886145 -6.43327034150476e-18)
(-0.203457372819618 0.0111587996106213 1.74036593082856e-16)
(-0.275622887521259 0.0133421790670648 1.17956128647382e-16)
(-0.205368789051498 0.0112122799106069 2.32302910484346e-16)
(-0.277555350177186 0.0134021779682115 1.85982547915772e-16)
(-0.207336232193399 0.0112674983034122 3.4944119692696e-16)
(-0.279542565345964 0.0134636847973516 2.94552770702807e-16)
(-0.209361901706995 0.0113255087901855 3.72716443166194e-16)
(-0.281587316163193 0.0135275003669099 3.75116766474938e-16)
(-0.211446873415605 0.0113867130112632 1.41221759334898e-16)
(-0.283691179821 0.0135946042154706 2.83829327202838e-16)
(-0.213592970056284 0.011450275340053 -6.56563941916778e-17)
(-0.285855344485744 0.0136646959096239 -1.28864291865645e-17)
(-0.215803800945653 0.0115160163001625 -1.61470174975666e-16)
(-0.288082606196008 0.0137368066288384 -1.115356595291e-16)
(-0.218082488664819 0.011585445388801 -2.47511199662877e-16)
(-0.29037672862387 0.0138116425930489 -3.2567747720247e-16)
(-0.220429440502697 0.0116607541827676 -2.79207451790645e-16)
(-0.292739870707828 0.0138910850424034 -3.64825371434323e-16)
(-0.222843207090846 0.011740574556549 -9.11117235651939e-17)
(-0.295170597282668 0.0139767846516387 -3.36518454218574e-16)
(-0.225327840529963 0.0118231412955729 9.61216605563291e-17)
(-0.297670065554247 0.0140649723461464 1.25499265678539e-16)
(-0.227886795760859 0.0119108320561693 -5.49994094303312e-17)
(-0.300243064509199 0.0141565982757626 1.15166380442955e-16)
(-0.23051903879687 0.0120075841702395 -1.82372175433779e-16)
(-0.30289141377826 0.0142546378830507 -1.25699718445341e-16)
(-0.233218673037898 0.0121132379724847 -6.79894939348343e-17)
(-0.305610684084149 0.0143626371999331 -1.87620499246181e-16)