/*--------------------------------*- C++ -*----------------------------------*\
| =========                 |                                                 |
| \\      /  F ield         | OpenFOAM: The Open Source CFD Toolbox           |
|  \\    /   O peration     | Version:  4.1                                   |
|   \\  /    A nd           | Web:      www.OpenFOAM.org                      |
|    \\/     M anipulation  |                                                 |
\*---------------------------------------------------------------------------*/
FoamFile
{
    version     2.0;
    format      ascii;
    class       surfaceScalarField;
    location    "0.0037";
    object      meshPhi;
}
// * * * * * * * * * * * * * * * * * * * * * * * * * * * * * * * * * * * * * //

dimensions      [0 3 -1 0 0 0 0];

internalField   nonuniform List<scalar> 
17536
(
1.9536e-09
8.3854e-12
8.3525e-12
7.8345e-12
7.8061e-12
-2.2593e-21
-7.3221e-11
-7.3305e-11
8.9601e-11
8.9524e-11
1.9534e-09
-8.1666e-11
-8.177e-11
1.6335e-10
1.6325e-10
1.9531e-09
-2.3648e-13
-3.2604e-13
8.1961e-11
8.1859e-11
3.9058e-09
8.1145e-11
8.1086e-11
5.345e-13
4.4986e-13
3.9062e-09
8.1935e-11
7.3773e-11
-6.2723e-13
-8.8181e-12
3.9064e-09
5.9685e-13
-7.5734e-12
-6.4173e-13
-8.8348e-12
4.3952e-09
-8.1032e-11
-8.1024e-11
-6.5472e-13
-6.5784e-13
3.9073e-09
-7.2922e-11
-7.291e-11
7.4767e-12
7.492e-12
3.9074e-09
-6.4758e-11
-6.4756e-11
9.7282e-11
9.7305e-11
5.862e-09
-1.4605e-10
-1.4608e-10
2.5986e-10
2.5988e-10
5.3734e-09
-2.2676e-10
-2.2682e-10
3.4086e-10
3.4085e-10
5.8631e-09
-3.0098e-10
-3.011e-10
3.4931e-10
3.4927e-10
5.864e-09
-3.8103e-10
-3.7304e-10
5.1111e-10
5.1921e-10
6.2566e-09
-3.7322e-10
-3.6534e-10
6.0113e-10
6.0915e-10
6.2584e-09
-5.1937e-10
-5.1971e-10
7.7976e-10
7.7962e-10
6.4561e-09
-8.3667e-10
-8.3708e-10
1.1133e-09
1.1132e-09
6.6543e-09
-9.9026e-10
-9.8254e-10
1.2831e-09
1.2911e-09
6.8057e-09
-1.2175e-09
-1.2099e-09
1.6237e-09
1.6317e-09
6.7122e-09
-1.5103e-09
-1.519e-09
2.0636e-09
2.0553e-09
6.7187e-09
-1.8927e-09
-1.9016e-09
2.576e-09
2.5676e-09
6.6764e-09
-2.2664e-09
-2.2755e-09
3.0968e-09
3.0885e-09
6.3897e-09
-2.7226e-09
-2.7237e-09
3.6183e-09
3.618e-09
6.133e-09
-3.334e-09
-3.3353e-09
4.3921e-09
4.3918e-09
5.8227e-09
-4.0119e-09
-4.0218e-09
5.2669e-09
5.2583e-09
5.4912e-09
-4.7818e-09
-4.7757e-09
6.299e-09
6.3067e-09
5.0606e-09
-5.5461e-09
-5.4581e-09
7.3435e-09
7.2687e-09
4.5793e-09
-6.3133e-09
-6.2426e-09
8.2282e-09
8.1372e-09
3.9964e-09
-7.093e-09
-7.1128e-09
9.1915e-09
9.1741e-09
3.3615e-09
-7.7947e-09
-7.8067e-09
1.0159e-08
1.015e-08
2.7209e-09
-8.3432e-09
-8.3473e-09
1.1043e-08
1.1042e-08
2.2806e-09
-8.7486e-09
-8.7444e-09
1.1669e-08
1.1677e-08
1.835e-09
-8.769e-09
-8.7646e-09
1.1615e-08
1.1622e-08
2.0521e-09
-8.1693e-09
-8.1728e-09
1.0856e-08
1.0855e-08
2.0622e-09
-6.9469e-09
-6.9581e-09
9.2897e-09
9.2808e-09
5.1634e-10
-5.0302e-09
-5.0488e-09
6.6849e-09
6.6681e-09
0
-2.4707e-09
-2.4882e-09
3.2736e-09
3.2571e-09
-1.1997e-21
1.6645e-10
1.6703e-10
-1.6703e-10
-1.6647e-10
2.0716e-09
2.4776e-09
2.4962e-09
-3.2631e-09
-3.2454e-09
2.067e-09
4.4843e-09
4.5791e-09
-5.9031e-09
-5.9766e-09
2.0605e-09
6.4118e-09
6.499e-09
-8.3619e-09
-8.4431e-09
2.0523e-09
8.5709e-09
8.5763e-09
-1.1169e-08
-1.1167e-08
3.5657e-09
1.0789e-08
1.0796e-08
-1.4121e-08
-1.4118e-08
3.5419e-09
1.2607e-08
1.2613e-08
-1.6601e-08
-1.6599e-08
2.5085e-09
1.3119e-08
1.3125e-08
-1.7515e-08
-1.7513e-08
1.9947e-09
1.1618e-08
1.1623e-08
-1.5811e-08
-1.5809e-08
1.4777e-09
7.9768e-09
7.9883e-09
-1.1081e-08
-1.1072e-08
2.7883e-09
2.7976e-09
-3.9735e-09
-3.9649e-09
1.9536e-09
-8.1388e-11
1.5543e-13
8.9349e-11
0
-1.5485e-10
-8.1448e-11
1.7928e-10
1.9532e-09
-6.5311e-11
-8.1707e-11
9.8063e-11
1.9531e-09
7.9219e-12
-3.8854e-13
8.5469e-12
3.9055e-09
6.5086e-11
8.9429e-11
-8.9178e-11
3.9062e-09
5.7148e-11
8.9788e-11
-9.831e-11
3.9067e-09
-8.9275e-11
-8.0989e-11
-8.8828e-12
4.8841e-09
-1.5467e-10
-1.7076e-10
8.0897e-11
3.9073e-09
-1.4624e-10
-8.9034e-11
1.7871e-10
3.9075e-09
-2.1971e-10
-8.913e-11
2.765e-10
5.8616e-09
-2.7664e-10
-1.8671e-10
3.6593e-10
4.8859e-09
-2.521e-10
-2.7623e-10
3.8146e-10
5.8634e-09
-3.255e-10
-3.5802e-10
4.7986e-10
5.8644e-09
-3.0855e-10
-3.5675e-10
5.7652e-10
6.2571e-09
-3.6588e-10
-4.3894e-10
6.0919e-10
6.259e-09
-5.04e-10
-6.0957e-10
8.0405e-10
6.4569e-09
-5.4433e-10
-7.8811e-10
1.0807e-09
6.6552e-09
-6.4917e-10
-9.7423e-10
1.283e-09
6.7579e-09
-7.464e-10
-1.1615e-09
1.5829e-09
6.7633e-09
-9.9911e-10
-1.5113e-09
1.9903e-09
6.6717e-09
-1.2428e-09
-1.8613e-09
2.4786e-09
6.5816e-09
-1.4624e-09
-2.1376e-09
3.0735e-09
6.3452e-09
-1.7396e-09
-2.5861e-09
3.6854e-09
6.1234e-09
-2.2534e-09
-3.2805e-09
4.4769e-09
5.8283e-09
-2.8259e-09
-3.9919e-09
5.4601e-09
5.4487e-09
-3.2035e-09
-4.641e-09
6.4539e-09
5.0184e-09
-3.6724e-09
-5.2838e-09
7.543e-09
4.588e-09
-4.2506e-09
-6.0785e-09
8.5464e-09
4.0055e-09
-4.733e-09
-6.885e-09
9.4747e-09
3.3189e-09
-5.1438e-09
-7.5326e-09
1.04e-08
2.8303e-09
-5.5987e-09
-8.0839e-09
1.1217e-08
2.3895e-09
-5.9414e-09
-8.459e-09
1.1827e-08
1.9439e-09
-6.0392e-09
-8.5648e-09
1.1861e-08
2.0594e-09
-5.5409e-09
-7.874e-09
1.109e-08
2.0699e-09
-4.6286e-09
-6.6151e-09
9.3872e-09
1.0365e-09
-3.3766e-09
-4.8042e-09
6.7803e-09
1.2038e-21
-1.734e-09
-2.3711e-09
3.4434e-09
1.2042e-21
-2.5292e-11
9.2285e-11
-1.0068e-10
2.0803e-09
1.6498e-09
2.3719e-09
-3.3489e-09
2.0751e-09
3.121e-09
4.4624e-09
-6.1033e-09
1.5474e-09
4.5245e-09
6.4678e-09
-8.7405e-09
2.0593e-09
5.9807e-09
8.5475e-09
-1.1667e-08
3.0651e-09
7.3267e-09
1.0619e-08
-1.4584e-08
2.5354e-09
8.4496e-09
1.2208e-08
-1.7042e-08
2.0166e-09
8.7252e-09
1.2527e-08
-1.7794e-08
1.9972e-09
7.7409e-09
1.104e-08
-1.5821e-08
1.9756e-09
5.4715e-09
7.5946e-09
-1.1032e-08
1.9849e-09
2.6683e-09
-3.9476e-09
1.9535e-09
1.6367e-11
-7.9453e-12
8.9388e-11
-7.2292e-26
-4.0757e-11
-9.7781e-11
1.9557e-10
1.9532e-09
-4.0756e-11
-9.7898e-11
1.2247e-10
1.9531e-09
1.6125e-11
-8.5469e-12
1.675e-11
3.9058e-09
7.3264e-11
8.1094e-12
-1.7885e-10
3.9062e-09
7.3411e-11
8.1953e-12
-1.878e-10
3.907e-09
1.2497e-13
-8.1236e-11
-8.9766e-12
4.3953e-09
8.23e-12
-8.9017e-11
8.9248e-11
3.9074e-09
-4.8655e-11
-9.7135e-11
1.9493e-10
3.9079e-09
-2.4241e-11
-1.9512e-10
2.1102e-10
5.8621e-09
-7.8602e-12
-2.192e-10
3.0896e-10
4.8861e-09
-1.4657e-10
-3.1718e-10
4.2244e-10
5.864e-09
-1.9543e-10
-4.1487e-10
5.286e-10
5.865e-09
-1.6233e-10
-4.2208e-10
5.683e-10
6.2573e-09
-1.2955e-10
-5.1192e-10
6.1715e-10
6.2593e-09
-1.5399e-10
-6.2546e-10
8.2823e-10
6.4573e-09
-2.3547e-10
-7.5514e-10
1.0641e-09
6.6567e-09
-3.165e-10
-9.7415e-10
1.307e-09
6.7597e-09
-2.9182e-10
-1.1203e-09
1.5749e-09
6.7653e-09
-4.0559e-10
-1.5192e-09
1.9489e-09
6.6743e-09
-6.5843e-10
-1.9343e-09
2.5028e-09
6.5355e-09
-8.8608e-10
-2.2844e-09
3.1707e-09
6.398e-09
-1.0902e-09
-2.8065e-09
3.7989e-09
6.1189e-09
-1.1474e-09
-3.3613e-09
4.6322e-09
5.8325e-09
-1.3354e-09
-4.0318e-09
5.6561e-09
5.4535e-09
-1.6883e-09
-4.7961e-09
6.6251e-09
5.0242e-09
-1.9594e-09
-5.4715e-09
7.6815e-09
4.5943e-09
-2.1589e-09
-6.135e-09
8.7272e-09
3.9618e-09
-2.3509e-09
-6.9013e-09
9.6216e-09
3.3763e-09
-2.5608e-09
-7.5817e-09
1.0507e-08
2.8876e-09
-2.8133e-09
-8.1503e-09
1.1432e-08
2.3955e-09
-2.9024e-09
-8.5092e-09
1.2033e-08
1.9492e-09
-2.852e-09
-8.5991e-09
1.1977e-08
2.0653e-09
-2.7109e-09
-7.9675e-09
1.1173e-08
2.0762e-09
-2.2665e-09
-6.575e-09
9.4789e-09
1.5618e-09
-1.689e-09
-4.7723e-09
6.8335e-09
-1.2083e-21
-8.7597e-10
-2.4472e-09
3.4674e-09
-3.6245e-21
-2.5266e-11
8.3819e-12
-4.1852e-11
2.0871e-09
7.2532e-10
2.3472e-09
-3.2986e-09
2.0819e-09
1.4827e-09
4.5551e-09
-6.1956e-09
1.5487e-09
2.1971e-09
6.5722e-09
-9.0499e-09
2.577e-09
2.9489e-09
8.6599e-09
-1.2042e-08
3.0723e-09
3.6056e-09
1.0671e-08
-1.4933e-08
2.5417e-09
4.2098e-09
1.2199e-08
-1.7384e-08
2.5196e-09
4.4103e-09
1.2565e-08
-1.8062e-08
1.9993e-09
3.9346e-09
1.1079e-08
-1.6068e-08
1.9768e-09
2.7075e-09
7.6346e-09
-1.1196e-08
9.2704e-10
2.7087e-09
-3.9799e-09
1.9534e-09
0
-2.4244e-11
7.8594e-12
2.2593e-21
0
-6.5193e-11
1.0593e-10
1.9535e-09
0
-6.5279e-11
1.0606e-10
1.9531e-09
0
-2.4799e-11
8.7031e-12
3.9061e-09
0
1.6149e-11
-8.9418e-11
3.9063e-09
0
3.2688e-11
-8.984e-11
3.9066e-09
0
1.6578e-11
-4.3751e-13
4.3951e-09
0
-1.5626e-11
7.269e-12
3.9075e-09
0
-1.3802e-10
2.3245e-11
3.9077e-09
8.1345e-12
-1.7876e-10
3.213e-11
5.8621e-09
8.1736e-12
-1.2139e-10
1.2116e-10
4.8857e-09
0
-2.3568e-10
3.8183e-10
5.8634e-09
0
-3.6582e-10
5.6118e-10
5.8657e-09
8.1275e-11
-4.2229e-10
5.0242e-10
6.2579e-09
8.1845e-11
-4.7907e-10
5.2778e-10
6.2599e-09
0
-5.6816e-10
7.2217e-10
6.458e-09
0
-7.6329e-10
1.015e-09
6.6578e-09
0
-9.7448e-10
1.4702e-09
6.76e-09
0
-1.1446e-09
1.7793e-09
6.766e-09
0
-1.5027e-09
2.1035e-09
6.724e-09
0
-1.9099e-09
2.7638e-09
6.586e-09
0
-2.3577e-09
3.2766e-09
6.4983e-09
0
-2.9368e-09
3.8967e-09
6.116e-09
0
-3.4346e-09
4.7955e-09
5.8847e-09
0
-4.0647e-09
5.6303e-09
5.4558e-09
0
-4.8696e-09
6.6412e-09
5.0277e-09
0
-5.5949e-09
7.8198e-09
4.4976e-09
8.2448e-12
-6.2342e-09
8.8344e-09
3.9651e-09
8.2902e-12
-6.976e-09
9.7701e-09
3.43e-09
-8.242e-12
-7.6976e-09
1.0704e-08
2.8407e-09
-8.2246e-12
-8.2588e-09
1.1539e-08
2.3476e-09
0
-8.6024e-09
1.2167e-08
1.9004e-09
0
-8.5763e-09
1.2111e-08
2.0686e-09
0
-8.0115e-09
1.1241e-08
2.0796e-09
8.4011e-12
-6.6685e-09
9.4289e-09
2.0878e-09
1.6837e-11
-4.7986e-09
6.7693e-09
1.2099e-21
8.4303e-12
-2.4729e-09
3.3987e-09
1.2102e-21
0
1.678e-11
-1.9284e-10
2.0908e-09
0
2.348e-09
-3.483e-09
2.0853e-09
0
4.5484e-09
-6.4469e-09
2.0692e-09
0
6.6064e-09
-9.2181e-09
3.0957e-09
0
8.7469e-09
-1.2185e-08
3.0761e-09
0
1.0783e-08
-1.5116e-08
3.0517e-09
-8.4026e-12
1.2306e-08
-1.7351e-08
3.0243e-09
-8.3582e-12
1.2653e-08
-1.802e-08
2.0003e-09
0
1.1119e-08
-1.6183e-08
1.9771e-09
0
7.618e-09
-1.117e-08
0
2.6921e-09
-3.914e-09
1.9534e-09
-1.6367e-11
-2.4244e-11
7.8594e-12
0
4.0757e-11
-6.5193e-11
1.0593e-10
1.9535e-09
4.0756e-11
-6.5279e-11
1.0606e-10
1.9531e-09
-1.6125e-11
-2.4799e-11
8.7031e-12
3.9064e-09
8.0625e-12
1.6149e-11
-8.0859e-12
3.9063e-09
8.2266e-12
3.2688e-11
-8.1953e-12
3.9066e-09
-1.2497e-13
1.6578e-11
-4.3751e-13
4.3951e-09
-8.23e-12
-1.5626e-11
7.269e-12
3.9075e-09
4.8655e-11
-1.3802e-10
2.3245e-11
3.9077e-09
1.6075e-11
-1.7876e-10
4.0296e-11
5.8621e-09
-2.7523e-13
-1.2139e-10
1.2929e-10
4.8857e-09
1.4657e-10
-2.3568e-10
3.8183e-10
5.8634e-09
1.9543e-10
-3.6582e-10
5.6118e-10
5.8652e-09
1.6233e-10
-4.2229e-10
5.0239e-10
6.2579e-09
1.2955e-10
-4.7907e-10
5.2775e-10
6.2599e-09
1.5399e-10
-5.6816e-10
7.2217e-10
6.458e-09
2.3547e-10
-7.6329e-10
1.015e-09
6.6578e-09
3.165e-10
-9.7448e-10
1.4702e-09
6.76e-09
2.9182e-10
-1.1446e-09
1.7793e-09
6.766e-09
4.0559e-10
-1.5027e-09
2.1035e-09
6.724e-09
6.5843e-10
-1.9099e-09
2.7638e-09
6.586e-09
8.8608e-10
-2.3577e-09
3.2766e-09
6.4983e-09
1.0902e-09
-2.9368e-09
3.8967e-09
6.116e-09
1.1474e-09
-3.4346e-09
4.7955e-09
5.8848e-09
1.3436e-09
-4.0565e-09
5.6303e-09
5.4558e-09
1.6965e-09
-4.8614e-09
6.6412e-09
5.0277e-09
1.9512e-09
-5.6032e-09
7.8198e-09
4.4976e-09
2.1425e-09
-6.2506e-09
8.8344e-09
3.9651e-09
2.3428e-09
-6.9842e-09
9.7701e-09
3.43e-09
2.5608e-09
-7.6975e-09
1.0704e-08
2.8407e-09
2.8133e-09
-8.2588e-09
1.1539e-08
2.3476e-09
2.9107e-09
-8.5942e-09
1.2167e-08
1.9004e-09
2.8604e-09
-8.568e-09
1.2111e-08
2.0686e-09
2.7193e-09
-8.0033e-09
1.1241e-08
2.0796e-09
2.275e-09
-6.6602e-09
9.4289e-09
2.0878e-09
1.689e-09
-4.7986e-09
6.7693e-09
-1.2099e-21
8.7602e-10
-2.4729e-09
3.3987e-09
2.4205e-21
3.3693e-11
2.5145e-11
-1.9284e-10
2.0908e-09
-7.1691e-10
2.3564e-09
-3.483e-09
2.0854e-09
-1.4911e-09
4.54e-09
-6.4469e-09
2.0692e-09
-2.1971e-09
6.6064e-09
-9.2181e-09
3.0957e-09
-2.9405e-09
8.7553e-09
-1.2185e-08
3.0761e-09
-3.6056e-09
1.0775e-08
-1.5125e-08
3.0517e-09
-4.2098e-09
1.2298e-08
-1.7359e-08
3.0243e-09
-4.4103e-09
1.2653e-08
-1.802e-08
2.0003e-09
-3.9346e-09
1.1119e-08
-1.6183e-08
1.9771e-09
-2.7075e-09
7.618e-09
-1.117e-08
-9.2704e-10
2.6921e-09
-3.914e-09
1.9535e-09
8.1388e-11
-7.9453e-12
8.9388e-11
-2.2594e-21
1.5485e-10
-9.7781e-11
1.9557e-10
1.9532e-09
6.5311e-11
-9.7898e-11
1.2247e-10
1.9531e-09
-7.9219e-12
-8.5469e-12
1.675e-11
3.9058e-09
-8.1397e-11
-4.6875e-14
-8.9365e-11
3.9062e-09
-8.1576e-11
6.25e-14
-8.9865e-11
3.907e-09
-5e-13
4.0627e-13
-8.4376e-13
4.3953e-09
7.3338e-11
-7.6597e-12
8.9248e-11
3.9074e-09
1.4624e-10
-9.7135e-11
1.9493e-10
3.9079e-09
2.1971e-10
-1.9512e-10
2.1918e-10
5.8622e-09
2.8478e-10
-2.1106e-10
3.1709e-10
4.8861e-09
2.6028e-10
-3.0901e-10
4.2244e-10
5.864e-09
3.255e-10
-4.1487e-10
5.286e-10
5.865e-09
3.0855e-10
-4.2208e-10
5.683e-10
6.2573e-09
3.6588e-10
-5.1192e-10
6.1715e-10
6.2593e-09
5.04e-10
-6.2546e-10
8.2823e-10
6.4573e-09
5.4433e-10
-7.5514e-10
1.0641e-09
6.6567e-09
6.4917e-10
-9.7415e-10
1.307e-09
6.7597e-09
7.464e-10
-1.1203e-09
1.5749e-09
6.7653e-09
9.9911e-10
-1.5192e-09
1.9489e-09
6.6743e-09
1.2428e-09
-1.9343e-09
2.5028e-09
6.5355e-09
1.4624e-09
-2.2844e-09
3.1707e-09
6.398e-09
1.7396e-09
-2.8065e-09
3.7989e-09
6.119e-09
2.2453e-09
-3.3695e-09
4.6322e-09
5.8325e-09
2.8178e-09
-4.0318e-09
5.6561e-09
5.4535e-09
3.2035e-09
-4.7878e-09
6.6251e-09
5.0242e-09
3.6724e-09
-5.4797e-09
7.6815e-09
4.5943e-09
4.2506e-09
-6.1514e-09
8.7272e-09
3.9618e-09
4.7412e-09
-6.9094e-09
9.6135e-09
3.3763e-09
5.152e-09
-7.5817e-09
1.0498e-08
2.8876e-09
5.5905e-09
-8.1586e-09
1.1432e-08
2.3955e-09
5.9249e-09
-8.5175e-09
1.2033e-08
1.9492e-09
6.0225e-09
-8.6074e-09
1.1978e-08
2.0653e-09
5.5325e-09
-7.9675e-09
1.1173e-08
2.0762e-09
4.6202e-09
-6.575e-09
9.4789e-09
1.5619e-09
3.3514e-09
-4.789e-09
6.8419e-09
-5.9795e-25
1.7087e-09
-2.4556e-09
3.4842e-09
-6.5417e-25
8.413e-12
8.3819e-12
-3.3494e-11
2.0871e-09
-1.6498e-09
2.3556e-09
-3.2986e-09
2.0819e-09
-3.1211e-09
4.5468e-09
-6.1956e-09
1.5486e-09
-4.533e-09
6.5638e-09
-9.0499e-09
2.577e-09
-5.9891e-09
8.6599e-09
-1.2042e-08
3.0723e-09
-7.3351e-09
1.0654e-08
-1.4941e-08
2.5417e-09
-8.4581e-09
1.2182e-08
-1.7392e-08
2.5196e-09
-8.7336e-09
1.2557e-08
-1.8062e-08
1.9993e-09
-7.7327e-09
1.1087e-08
-1.6068e-08
1.9768e-09
-5.4633e-09
7.6428e-09
-1.1196e-08
-1.9849e-09
2.7087e-09
-3.9799e-09
1.9536e-09
-8.3815e-12
1.5931e-13
8.9349e-11
-2.2593e-21
7.3233e-11
-8.1435e-11
1.7928e-10
1.9532e-09
8.1689e-11
-8.1684e-11
9.8063e-11
1.9531e-09
2.6981e-13
-3.5521e-13
8.5469e-12
3.9055e-09
-8.1104e-11
8.1315e-11
-8.1022e-11
3.9062e-09
-7.3757e-11
8.1701e-11
-9.0146e-11
3.9064e-09
7.6127e-12
6.9869e-13
-8.9141e-12
4.8841e-09
8.1075e-11
-8.9381e-11
8.0897e-11
3.9073e-09
7.2962e-11
-8.8993e-11
1.7871e-10
3.9075e-09
6.4797e-11
-8.9091e-11
2.765e-10
5.8616e-09
1.4609e-10
-1.7854e-10
3.6593e-10
4.8859e-09
2.268e-10
-2.6801e-10
3.8146e-10
5.8634e-09
3.0103e-10
-3.5797e-10
4.7986e-10
5.8644e-09
3.8109e-10
-3.5669e-10
5.7652e-10
6.2571e-09
3.7329e-10
-4.3887e-10
6.0919e-10
6.259e-09
5.1946e-10
-6.0948e-10
8.0405e-10
6.4569e-09
8.3678e-10
-7.88e-10
1.0807e-09
6.6552e-09
9.9038e-10
-9.7411e-10
1.283e-09
6.7579e-09
1.2177e-09
-1.1614e-09
1.5829e-09
6.7633e-09
1.5104e-09
-1.5112e-09
1.9903e-09
6.6717e-09
1.8928e-09
-1.8612e-09
2.4786e-09
6.5816e-09
2.2665e-09
-2.1375e-09
3.0735e-09
6.3452e-09
2.7227e-09
-2.586e-09
3.6854e-09
6.1229e-09
3.3341e-09
-3.2886e-09
4.4769e-09
5.8283e-09
4.012e-09
-3.9999e-09
5.4601e-09
5.4487e-09
4.782e-09
-4.6409e-09
6.4539e-09
5.0184e-09
5.5463e-09
-5.2836e-09
7.543e-09
4.588e-09
6.3136e-09
-6.0783e-09
8.5464e-09
4.0055e-09
7.0933e-09
-6.8848e-09
9.4664e-09
3.3189e-09
7.7951e-09
-7.5324e-09
1.0392e-08
2.8303e-09
8.3436e-09
-8.0919e-09
1.1217e-08
2.3895e-09
8.7489e-09
-8.4752e-09
1.1827e-08
1.9439e-09
8.7692e-09
-8.581e-09
1.1861e-08
2.0594e-09
8.1694e-09
-7.8822e-09
1.109e-08
2.07e-09
6.9552e-09
-6.6235e-09
9.379e-09
1.0365e-09
5.0469e-09
-4.8209e-09
6.772e-09
-3.6122e-21
2.4873e-09
-2.3796e-09
3.4434e-09
-4.8181e-21
-1.5834e-10
8.363e-11
-1.0068e-10
2.0803e-09
-2.4864e-09
2.3716e-09
-3.3406e-09
2.0752e-09
-4.4932e-09
4.462e-09
-6.095e-09
1.5474e-09
-6.4123e-09
6.4591e-09
-8.7405e-09
2.0593e-09
-8.5714e-09
8.5387e-09
-1.1667e-08
3.0651e-09
-1.079e-08
1.061e-08
-1.4584e-08
2.5354e-09
-1.2607e-08
1.2199e-08
-1.7042e-08
2.0166e-09
-1.3119e-08
1.2518e-08
-1.7794e-08
1.9972e-09
-1.1618e-08
1.1047e-08
-1.5821e-08
1.9756e-09
-7.9771e-09
7.6025e-09
-1.1032e-08
-2.7884e-09
2.6682e-09
-3.9476e-09
1.9536e-09
8.3564e-12
7.8302e-12
7.8104e-12
2.2593e-21
-7.3293e-11
8.9586e-11
8.9539e-11
1.9534e-09
-8.1746e-11
1.6332e-10
1.6328e-10
1.9531e-09
-2.9271e-13
8.1917e-11
8.1902e-11
3.9058e-09
8.1127e-11
4.7695e-13
5.0741e-13
3.9062e-09
8.1951e-11
-8.8274e-12
-6.1788e-13
3.9064e-09
6.3619e-13
-8.8777e-12
-5.9891e-13
4.3952e-09
-8.098e-11
-7.2678e-13
-5.8578e-13
3.9073e-09
-7.2869e-11
7.407e-12
7.5616e-12
3.9074e-09
-6.4717e-11
9.7216e-11
9.737e-11
5.862e-09
-1.4604e-10
2.598e-10
2.5994e-10
5.3734e-09
-2.2678e-10
3.408e-10
3.4091e-10
5.8631e-09
-3.0106e-10
3.4925e-10
3.4933e-10
5.8641e-09
-3.8116e-10
5.1105e-10
5.111e-10
6.2566e-09
-3.7341e-10
6.0106e-10
6.0109e-10
6.2584e-09
-5.1961e-10
7.7968e-10
7.797e-10
6.4561e-09
-8.3697e-10
1.1132e-09
1.1132e-09
6.6543e-09
-9.8242e-10
1.283e-09
1.2912e-09
6.8057e-09
-1.2098e-09
1.6236e-09
1.6317e-09
6.7122e-09
-1.5189e-09
2.0635e-09
2.0554e-09
6.7187e-09
-1.9015e-09
2.5759e-09
2.5677e-09
6.6764e-09
-2.2753e-09
3.0967e-09
3.0886e-09
6.3897e-09
-2.7235e-09
3.6182e-09
3.6181e-09
6.1321e-09
-3.3352e-09
4.392e-09
4.3918e-09
5.8227e-09
-4.0217e-09
5.2668e-09
5.2584e-09
5.4913e-09
-4.7838e-09
6.2989e-09
6.2987e-09
5.0606e-09
-5.5483e-09
7.3434e-09
7.343e-09
4.5793e-09
-6.3242e-09
8.228e-09
8.2192e-09
3.9964e-09
-7.1043e-09
9.1914e-09
9.1825e-09
3.3615e-09
-7.7981e-09
1.0159e-08
1.0159e-08
2.7209e-09
-8.347e-09
1.1043e-08
1.1042e-08
2.2806e-09
-8.7441e-09
1.1669e-08
1.1677e-08
1.835e-09
-8.7644e-09
1.1615e-08
1.1622e-08
2.0521e-09
-8.1727e-09
1.0856e-08
1.0855e-08
2.0622e-09
-6.958e-09
9.2814e-09
9.2807e-09
5.1634e-10
-5.0489e-09
6.6684e-09
6.6679e-09
-3.7239e-25
-2.4884e-09
3.2571e-09
3.2568e-09
-4.0979e-25
1.5828e-10
-1.7506e-10
-1.7509e-10
2.0716e-09
2.4874e-09
-3.2544e-09
-3.2541e-09
2.067e-09
4.5786e-09
-5.8944e-09
-5.9769e-09
2.0605e-09
6.4985e-09
-8.3616e-09
-8.4434e-09
2.0524e-09
8.5842e-09
-1.1169e-08
-1.1159e-08
3.5657e-09
1.0812e-08
-1.4121e-08
-1.4102e-08
3.542e-09
1.2613e-08
-1.6601e-08
-1.6599e-08
2.5085e-09
1.3116e-08
-1.7515e-08
-1.7521e-08
1.9947e-09
1.1622e-08
-1.5811e-08
-1.5809e-08
1.4777e-09
7.988e-09
-1.1081e-08
-1.1072e-08
2.7975e-09
-3.9734e-09
-3.9649e-09
1.9536e-09
1.8833e-13
-8.1388e-11
8.9349e-11
2.2593e-21
-8.1363e-11
-1.5485e-10
1.7928e-10
1.9532e-09
-8.1604e-11
-6.5311e-11
9.8063e-11
1.9531e-09
-2.9898e-13
7.9219e-12
8.5469e-12
3.9055e-09
8.1333e-11
8.1397e-11
-8.1022e-11
3.9062e-09
8.1685e-11
8.1576e-11
-9.0146e-11
3.9067e-09
-8.0983e-11
-8.1142e-11
-8.9141e-12
4.8841e-09
-1.7076e-10
-1.5467e-10
8.0897e-11
3.9073e-09
-8.9046e-11
-1.4624e-10
1.7871e-10
3.9075e-09
-8.9132e-11
-2.1971e-10
2.765e-10
5.8616e-09
-1.7855e-10
-2.8478e-10
3.6593e-10
4.8859e-09
-2.6799e-10
-2.6028e-10
3.8146e-10
5.8634e-09
-3.579e-10
-3.255e-10
4.7986e-10
5.8644e-09
-3.5656e-10
-3.0855e-10
5.847e-10
6.2571e-09
-4.3868e-10
-3.6588e-10
6.1733e-10
6.2591e-09
-6.0924e-10
-5.04e-10
8.0405e-10
6.4569e-09
-7.9588e-10
-5.3615e-10
1.0807e-09
6.6552e-09
-9.7375e-10
-6.4099e-10
1.2993e-09
6.758e-09
-1.1528e-09
-7.4645e-10
1.5992e-09
6.7633e-09
-1.5025e-09
-1.0073e-09
1.9821e-09
6.6717e-09
-1.8606e-09
-1.251e-09
2.4623e-09
6.5816e-09
-2.1449e-09
-1.4625e-09
3.0571e-09
6.3452e-09
-2.5933e-09
-1.7315e-09
3.6854e-09
6.1235e-09
-3.2956e-09
-2.2371e-09
4.4769e-09
5.8284e-09
-4.0067e-09
-2.8096e-09
5.452e-09
5.4488e-09
-4.6473e-09
-3.1953e-09
6.4622e-09
5.0189e-09
-5.2815e-09
-3.6726e-09
7.4691e-09
4.5881e-09
-6.0841e-09
-4.2426e-09
8.4564e-09
4.0056e-09
-6.8903e-09
-4.7333e-09
9.4503e-09
3.319e-09
-7.5294e-09
-5.1525e-09
1.0384e-08
2.7804e-09
-8.1722e-09
-5.6655e-09
1.1226e-08
2.3896e-09
-8.555e-09
-5.9913e-09
1.1852e-08
1.944e-09
-8.5699e-09
-6.023e-09
1.1878e-08
2.0595e-09
-7.8713e-09
-5.5413e-09
1.109e-08
2.0701e-09
-6.6131e-09
-4.5455e-09
9.2954e-09
1.0366e-09
-4.803e-09
-3.2934e-09
6.6801e-09
-1.2043e-21
-2.3707e-09
-1.7342e-09
3.4269e-09
-1.2049e-21
9.1725e-11
-2.5292e-11
-1.0068e-10
2.0804e-09
2.3705e-09
1.65e-09
-3.3324e-09
2.0755e-09
4.46e-09
3.113e-09
-6.1876e-09
1.5475e-09
6.4561e-09
4.5251e-09
-8.8329e-09
2.0594e-09
8.5265e-09
5.9981e-09
-1.1667e-08
3.0652e-09
1.0597e-08
7.3525e-09
-1.4576e-08
2.5355e-09
1.2186e-08
8.4837e-09
-1.7026e-08
2.0167e-09
1.2514e-08
8.7508e-09
-1.7778e-08
1.9973e-09
1.1035e-08
7.7498e-09
-1.5813e-08
1.9756e-09
7.5833e-09
5.4717e-09
-1.1032e-08
2.6591e-09
1.9849e-09
-3.9476e-09
1.9532e-09
1.5747e-13
1.2379e-13
2.2593e-21
-8.1456e-11
-8.1543e-11
1.9533e-09
-8.1508e-11
-8.1615e-11
1.9531e-09
-2.3531e-13
-3.2721e-13
3.9058e-09
-8.1032e-12
-6.2052e-15
3.9063e-09
-8.1517e-12
-4.364e-14
3.907e-09
-8.1363e-11
-8.136e-11
5.372e-09
-7.2931e-11
-7.291e-11
3.9071e-09
-7.2889e-11
-7.2863e-11
3.9076e-09
-1.5459e-10
-1.5457e-10
5.8616e-09
-1.3789e-10
-1.4604e-10
3.9086e-09
-2.1148e-10
-2.1971e-10
5.8633e-09
-2.9281e-10
-2.9294e-10
5.8648e-09
-2.9209e-10
-2.923e-10
6.2566e-09
-3.7376e-10
-3.7406e-10
6.258e-09
-4.4675e-10
-4.4713e-10
6.4559e-09
-5.1141e-10
-5.0369e-10
6.6553e-09
-6.4914e-10
-6.4968e-10
6.6585e-09
-7.8706e-10
-7.9588e-10
6.7128e-09
-1.0071e-09
-1.016e-09
6.6693e-09
-1.2263e-09
-1.2271e-09
6.5792e-09
-1.438e-09
-1.4309e-09
6.2933e-09
-1.8048e-09
-1.7979e-09
6.1027e-09
-2.2539e-09
-2.2392e-09
5.7743e-09
-2.687e-09
-2.6726e-09
5.4921e-09
-3.1062e-09
-3.1004e-09
4.9626e-09
-3.5343e-09
-3.537e-09
4.5812e-09
-4.1466e-09
-4.1416e-09
3.9989e-09
-4.6705e-09
-4.6658e-09
3.2621e-09
-5.1158e-09
-5.1197e-09
2.8751e-09
-5.4982e-09
-5.5773e-09
2.3823e-09
-5.7352e-09
-5.8057e-09
1.9873e-09
-5.917e-09
-5.9128e-09
2.05e-09
-5.4852e-09
-5.4889e-09
2.0593e-09
-4.5216e-09
-4.5243e-09
2.0663e-09
-3.273e-09
-3.2746e-09
3.591e-21
-1.7207e-09
-1.7212e-09
1.1971e-21
-9.2291e-11
-9.1594e-11
2.0687e-09
1.5531e-09
1.555e-09
2.0641e-09
3.0442e-09
3.0472e-09
1.0228e-09
4.369e-09
4.3815e-09
2.5579e-09
5.763e-09
5.7849e-09
2.0385e-09
7.1564e-09
7.1792e-09
2.5268e-09
8.1631e-09
8.1864e-09
2.5078e-09
8.3544e-09
8.369e-09
1.9925e-09
7.4603e-09
7.4656e-09
1.9732e-09
5.1702e-09
5.1819e-09
1.8051e-09
1.8145e-09
1.9534e-09
-8.0783e-12
-1.6182e-11
4.8833e-10
-8.1386e-12
-4.0763e-11
1.465e-09
6.0933e-16
-3.2688e-11
1.9531e-09
-1.1154e-13
-8.3953e-12
3.9063e-09
-2.3697e-14
1.6189e-11
3.9062e-09
-3.4917e-16
1.6347e-11
3.9065e-09
6e-18
1.2652e-13
4.3951e-09
3.1218e-13
-1.5803e-11
3.9072e-09
-8.947e-11
-1.1373e-10
3.9074e-09
-8.1341e-11
-1.2188e-10
5.8619e-09
3.8983e-13
-6.4575e-11
3.9085e-09
-8.9524e-11
-1.6262e-10
5.8634e-09
-1.5454e-10
-2.6025e-10
6.3537e-09
-1.6252e-10
-2.9247e-10
6.257e-09
-1.8665e-10
-3.247e-10
6.2585e-09
-1.7848e-10
-3.7349e-10
6.4564e-09
-2.4348e-10
-5.1992e-10
6.6559e-09
-3.3301e-10
-6.7436e-10
6.66e-09
-3.4072e-10
-8.3661e-10
6.6649e-09
-5.0363e-10
-1.0158e-09
6.6716e-09
-6.5856e-10
-1.219e-09
6.5319e-09
-8.1308e-10
-1.5287e-09
6.3443e-09
-1.0744e-09
-1.9448e-09
6.0965e-09
-1.164e-09
-2.3208e-09
5.7776e-09
-1.3194e-09
-2.7302e-09
5.4457e-09
-1.6563e-09
-3.215e-09
5.0161e-09
-1.9118e-09
-3.7018e-09
4.585e-09
-2.0863e-09
-4.2899e-09
3.9523e-09
-2.3365e-09
-4.7982e-09
3.3668e-09
-2.5883e-09
-5.2856e-09
2.8785e-09
-2.759e-09
-5.6446e-09
2.3859e-09
-2.8404e-09
-5.8495e-09
1.9907e-09
-2.8483e-09
-5.9321e-09
2.0532e-09
-2.682e-09
-5.5668e-09
2.0626e-09
-2.1871e-09
-4.6268e-09
2.0697e-09
-1.6083e-09
-3.3099e-09
1.1989e-21
-8.4405e-10
-1.7724e-09
1.1993e-21
8.3535e-12
-9.1715e-11
2.0723e-09
7.6053e-10
1.5726e-09
2.0677e-09
1.5191e-09
3.0825e-09
1.5434e-09
2.2025e-09
4.4585e-09
3.5883e-09
2.9521e-09
5.9165e-09
2.0412e-09
3.603e-09
7.3525e-09
3.5444e-09
4.0832e-09
8.3374e-09
3.5166e-09
4.2292e-09
8.4705e-09
1.9871e-09
3.7142e-09
7.5302e-09
1.4785e-09
2.5553e-09
5.2028e-09
9.0537e-10
1.8113e-09
1.9535e-09
0
-1.618e-11
9.7668e-10
0
-5.6958e-11
9.767e-10
0
-6.5278e-11
1.9531e-09
0
-2.4548e-11
3.9062e-09
0
1.6125e-11
3.9062e-09
0
1.6422e-11
3.9062e-09
0
2.5e-13
3.9069e-09
8.1412e-12
-2.408e-11
3.9072e-09
8.165e-12
-5.6655e-11
3.9075e-09
8.1335e-12
-8.9288e-11
5.8621e-09
8.1728e-12
-1.2988e-10
3.9084e-09
-8.1731e-12
-1.5433e-10
5.8635e-09
-8.1342e-12
-2.0308e-10
6.8419e-09
0
-2.7588e-10
6.2573e-09
0
-3.4093e-10
6.2592e-09
0
-4.222e-10
6.4573e-09
0
-5.3596e-10
6.6561e-09
0
-6.9027e-10
6.6602e-09
0
-8.6907e-10
6.6655e-09
0
-1.0643e-09
6.6225e-09
0
-1.3003e-09
6.4832e-09
0
-1.5935e-09
6.3945e-09
0
-1.9444e-09
6.0929e-09
0
-2.369e-09
5.8285e-09
0
-2.8604e-09
5.3484e-09
0
-3.345e-09
5.0674e-09
0
-3.832e-09
4.4872e-09
-3.7313e-14
-4.3459e-09
3.9543e-09
3.3174e-14
-4.8547e-09
3.4193e-09
-8.2785e-12
-5.3178e-09
2.8298e-09
-1.6497e-11
-5.7013e-09
2.3878e-09
-8.186e-12
-5.9395e-09
1.9413e-09
7.4102e-14
-5.9147e-09
2.055e-09
0
-5.5003e-09
2.0644e-09
-1.6031e-14
-4.6017e-09
2.0716e-09
8.3445e-12
-3.2851e-09
1.1997e-21
8.3708e-12
-1.6891e-09
3.7258e-25
0
8.4086e-12
2.0745e-09
-8.3585e-12
1.6475e-09
2.0697e-09
-8.3507e-12
3.1573e-09
2.0629e-09
-8.3691e-12
4.5832e-09
3.5919e-09
-8.3448e-12
6.028e-09
2.0426e-09
0
7.4022e-09
4.0575e-09
-2.3917e-14
8.3937e-09
4.0249e-09
3.1766e-14
8.5597e-09
1.9861e-09
0
7.5318e-09
9.847e-10
0
5.1888e-09
0
1.8484e-09
1.9535e-09
8.0783e-12
-1.618e-11
9.7668e-10
8.1386e-12
-5.6958e-11
9.767e-10
-6.0933e-16
-6.5278e-11
1.9531e-09
1.1154e-13
-2.4548e-11
3.9062e-09
2.3697e-14
1.6125e-11
3.9062e-09
3.4917e-16
1.6422e-11
3.9062e-09
8.133e-12
-7.883e-12
3.9068e-09
7.8601e-12
-3.2252e-11
3.9072e-09
8.947e-11
-5.6654e-11
3.9075e-09
8.1341e-11
-8.9288e-11
5.8621e-09
-3.8983e-13
-1.2988e-10
3.9083e-09
8.9524e-11
-1.5433e-10
5.8635e-09
1.6267e-10
-2.1121e-10
6.8419e-09
1.707e-10
-2.8406e-10
6.2573e-09
1.8665e-10
-3.4093e-10
6.2592e-09
1.7848e-10
-4.222e-10
6.4573e-09
2.4348e-10
-5.3596e-10
6.6561e-09
3.3301e-10
-6.9027e-10
6.6602e-09
3.4072e-10
-8.6907e-10
6.6655e-09
5.0363e-10
-1.0643e-09
6.6225e-09
6.5856e-10
-1.3003e-09
6.4832e-09
8.1308e-10
-1.5935e-09
6.3945e-09
1.0744e-09
-1.9444e-09
6.0929e-09
1.164e-09
-2.369e-09
5.8285e-09
1.3275e-09
-2.8604e-09
5.3484e-09
1.6644e-09
-3.345e-09
5.0674e-09
1.8953e-09
-3.8402e-09
4.4872e-09
2.0617e-09
-4.3541e-09
3.9543e-09
2.3283e-09
-4.8547e-09
3.4192e-09
2.5883e-09
-5.3178e-09
2.8298e-09
2.759e-09
-5.7012e-09
2.3878e-09
2.8404e-09
-5.9477e-09
1.9413e-09
2.8566e-09
-5.9147e-09
2.055e-09
2.6986e-09
-5.492e-09
2.0644e-09
2.1954e-09
-4.6018e-09
2.0715e-09
1.6083e-09
-3.2851e-09
2.4001e-21
8.4402e-10
-1.6723e-09
2.4019e-21
8.3241e-12
3.3525e-11
2.0745e-09
-7.522e-10
1.6476e-09
2.0697e-09
-1.5357e-09
3.149e-09
2.0628e-09
-2.2108e-09
4.5916e-09
3.5919e-09
-2.9521e-09
6.0364e-09
2.0426e-09
-3.628e-09
7.4023e-09
4.0574e-09
-4.0998e-09
8.4021e-09
4.0249e-09
-4.2211e-09
8.5846e-09
1.9861e-09
-3.7142e-09
7.5484e-09
9.847e-10
-2.5471e-09
5.197e-09
-8.9721e-10
1.8566e-09
1.9534e-09
-1.5461e-13
-1.6179e-11
4.8833e-10
8.1465e-11
-4.0753e-11
1.465e-09
8.1525e-11
-3.2672e-11
1.9531e-09
2.5766e-13
-8.3729e-12
3.9063e-09
-2.6883e-14
1.6215e-11
3.9063e-09
4.5523e-14
1.6374e-11
3.9068e-09
-2.5569e-13
-7.9824e-12
4.3951e-09
-8.4078e-12
-2.3955e-11
3.9072e-09
7.2906e-11
-1.1372e-10
3.9074e-09
1.546e-10
-1.2186e-10
5.8619e-09
1.4604e-10
-6.4556e-11
3.9085e-09
2.1968e-10
-1.6259e-10
5.8633e-09
2.9285e-10
-2.6834e-10
6.3537e-09
2.9215e-10
-3.0059e-10
6.257e-09
3.7385e-10
-3.2461e-10
6.2585e-09
4.4687e-10
-3.7338e-10
6.4564e-09
5.1155e-10
-5.1978e-10
6.6559e-09
6.4929e-10
-6.7421e-10
6.66e-09
7.8722e-10
-8.3645e-10
6.6649e-09
1.0073e-09
-1.0156e-09
6.6716e-09
1.2264e-09
-1.2189e-09
6.5319e-09
1.4382e-09
-1.5286e-09
6.3443e-09
1.805e-09
-1.9446e-09
6.0965e-09
2.2459e-09
-2.3206e-09
5.7776e-09
2.6791e-09
-2.7299e-09
5.4457e-09
3.1065e-09
-3.2148e-09
5.016e-09
3.5346e-09
-3.7097e-09
4.585e-09
4.147e-09
-4.2977e-09
3.9523e-09
4.671e-09
-4.7978e-09
3.3668e-09
5.1163e-09
-5.2852e-09
2.8785e-09
5.4904e-09
-5.6442e-09
2.3859e-09
5.719e-09
-5.8573e-09
1.9907e-09
5.9008e-09
-5.9317e-09
2.0532e-09
5.4772e-09
-5.5583e-09
2.0626e-09
4.5134e-09
-4.6267e-09
2.0696e-09
3.1727e-09
-3.2264e-09
0
1.6286e-09
-1.6723e-09
0
8.3582e-11
-6.7005e-11
2.0724e-09
-1.5536e-09
1.5721e-09
2.0677e-09
-3.0447e-09
3.0737e-09
1.5434e-09
-4.378e-09
4.4663e-09
3.5883e-09
-5.772e-09
5.9242e-09
2.0412e-09
-7.1655e-09
7.3518e-09
3.5444e-09
-8.1722e-09
8.3448e-09
3.5166e-09
-8.3634e-09
8.4945e-09
1.9872e-09
-7.3706e-09
7.4637e-09
1.4785e-09
-5.0802e-09
5.1283e-09
-1.8053e-09
1.8193e-09
1.9532e-09
-1.8445e-13
1.2665e-13
2.2593e-21
8.1376e-11
-8.1533e-11
1.9533e-09
8.1627e-11
-8.1599e-11
1.9531e-09
3.3231e-13
-3.0486e-13
3.9058e-09
-8.9448e-11
-8.1363e-12
3.9063e-09
-8.9772e-11
-8.1498e-12
3.907e-09
-6.1383e-13
3.0681e-13
5.372e-09
8.9475e-11
8.469e-12
3.9071e-09
8.9086e-11
-7.2846e-11
3.9076e-09
8.9171e-11
-1.5455e-10
5.8616e-09
1.8673e-10
-1.3788e-10
3.9086e-09
2.762e-10
-2.1151e-10
5.8633e-09
3.5794e-10
-2.929e-10
5.8648e-09
3.5662e-10
-2.9224e-10
6.2566e-09
4.3876e-10
-3.7397e-10
6.258e-09
6.0933e-10
-4.4702e-10
6.4559e-09
7.8781e-10
-5.1174e-10
6.6553e-09
9.6575e-10
-6.5766e-10
6.6585e-09
1.1529e-09
-7.9572e-10
6.7128e-09
1.5027e-09
-1.0158e-09
6.6693e-09
1.8607e-09
-1.2269e-09
6.5792e-09
2.145e-09
-1.4307e-09
6.2933e-09
2.5934e-09
-1.7977e-09
6.1026e-09
3.2957e-09
-2.239e-09
5.7743e-09
4.0068e-09
-2.6724e-09
5.4922e-09
4.6393e-09
-3.1083e-09
4.9626e-09
5.2736e-09
-3.5449e-09
4.5813e-09
6.0762e-09
-4.1494e-09
3.9989e-09
6.8824e-09
-4.6736e-09
3.2621e-09
7.5296e-09
-5.1192e-09
2.8751e-09
8.1642e-09
-5.5851e-09
2.3822e-09
8.547e-09
-5.8135e-09
1.9873e-09
8.57e-09
-5.9124e-09
2.05e-09
7.8714e-09
-5.4885e-09
2.0593e-09
6.6131e-09
-4.5243e-09
2.0661e-09
4.8112e-09
-3.1829e-09
1.1967e-21
2.3705e-09
-1.6379e-09
2.3955e-21
-9.2044e-11
-9.1967e-11
2.0687e-09
-2.3709e-09
1.5545e-09
2.0641e-09
-4.4604e-09
3.0467e-09
1.0228e-09
-6.4566e-09
4.3809e-09
2.5579e-09
-8.5436e-09
5.7676e-09
2.0385e-09
-1.0606e-08
7.1701e-09
2.5268e-09
-1.2187e-08
8.1855e-09
2.5079e-09
-1.2523e-08
8.36e-09
1.9923e-09
-1.1044e-08
7.3746e-09
1.9732e-09
-7.5836e-09
5.0992e-09
-2.6592e-09
1.8144e-09
1.9536e-09
-8.1388e-11
8.9349e-11
3.6222e-26
-1.5485e-10
1.7928e-10
1.9532e-09
-6.5311e-11
9.8063e-11
1.9531e-09
7.9219e-12
8.5469e-12
3.9055e-09
6.5086e-11