/*--------------------------------*- C++ -*----------------------------------*\
| =========                 |                                                 |
| \\      /  F ield         | OpenFOAM: The Open Source CFD Toolbox           |
|  \\    /   O peration     | Version:  4.1                                   |
|   \\  /    A nd           | Web:      www.OpenFOAM.org                      |
|    \\/     M anipulation  |                                                 |
\*---------------------------------------------------------------------------*/
FoamFile
{
    version     2.0;
    format      ascii;
    class       pointVectorField;
    location    "0.0099";
    object      pointDisplacement_Next;
}
// * * * * * * * * * * * * * * * * * * * * * * * * * * * * * * * * * * * * * //

dimensions      [0 1 0 0 0 0 0];

internalField   uniform (0 0 0);

boundaryField
{
    inlet
    {
        type            fixedValue;
        value           nonuniform 0();
    }
    outlet
    {
        type            fixedValue;
        value           uniform (0 0 0);
    }
    mantle
    {
        type            fixedValue;
        value           nonuniform List<vector> 
416
(
(4.8767e-05 -5.0321e-05 -2.4587e-10)
(4.514e-05 -5.6614e-05 -1.6529e-10)
(4.5153e-05 -5.5402e-05 1.0993e-05)
(4.8798e-05 -4.9273e-05 9.8024e-06)
(4.5177e-05 -5.1959e-05 2.1526e-05)
(4.8839e-05 -4.6239e-05 1.9181e-05)
(4.5182e-05 -4.6615e-05 3.1178e-05)
(4.883e-05 -4.1476e-05 2.7741e-05)
(4.5181e-05 -3.9624e-05 3.9623e-05)
(4.8811e-05 -3.5232e-05 3.5231e-05)
(4.5182e-05 -3.1179e-05 4.6614e-05)
(4.883e-05 -2.7742e-05 4.1475e-05)
(4.5177e-05 -2.1527e-05 5.1958e-05)
(4.8839e-05 -1.9182e-05 4.6238e-05)
(4.5153e-05 -1.0994e-05 5.5401e-05)
(4.8798e-05 -9.8032e-06 4.9271e-05)
(4.5139e-05 -4.0696e-10 5.6613e-05)
(4.8767e-05 -4.827e-10 5.0319e-05)
(4.1195e-05 -6.1041e-05 -3.6123e-10)
(4.1198e-05 -5.9694e-05 1.1827e-05)
(4.1204e-05 -5.5955e-05 2.3167e-05)
(4.1228e-05 -5.0202e-05 3.3582e-05)
(4.1236e-05 -4.27e-05 4.27e-05)
(4.1228e-05 -3.3583e-05 5.0202e-05)
(4.1203e-05 -2.3168e-05 5.5954e-05)
(4.1197e-05 -1.1828e-05 5.9694e-05)
(4.1194e-05 -8.8041e-11 6.1041e-05)
(3.6954e-05 -6.3206e-05 -8.6963e-10)
(3.6951e-05 -6.1854e-05 1.2294e-05)
(3.6957e-05 -5.8005e-05 2.4044e-05)
(3.697e-05 -5.2012e-05 3.4782e-05)
(3.6981e-05 -4.4191e-05 4.4191e-05)
(3.697e-05 -3.4782e-05 5.2012e-05)
(3.6957e-05 -2.4045e-05 5.8005e-05)
(3.695e-05 -1.2295e-05 6.1855e-05)
(3.6953e-05 4.6445e-10 6.3208e-05)
(3.2523e-05 -6.3438e-05 -6.5659e-10)
(3.2516e-05 -6.2129e-05 1.2392e-05)
(3.2511e-05 -5.8302e-05 2.4194e-05)
(3.252e-05 -5.2241e-05 3.4914e-05)
(3.2529e-05 -4.4322e-05 4.4322e-05)
(3.252e-05 -3.4915e-05 5.2241e-05)
(3.251e-05 -2.4196e-05 5.8303e-05)
(3.2515e-05 -1.2393e-05 6.2131e-05)
(3.2522e-05 2.4706e-10 6.3441e-05)
(2.804e-05 -6.2059e-05 -7.4379e-10)
(2.8009e-05 -6.0804e-05 1.2124e-05)
(2.7977e-05 -5.7087e-05 2.366e-05)
(2.7997e-05 -5.1135e-05 3.4143e-05)
(2.8022e-05 -4.3359e-05 4.3359e-05)
(2.7997e-05 -3.4144e-05 5.1136e-05)
(2.7976e-05 -2.3661e-05 5.7089e-05)
(2.8009e-05 -1.2125e-05 6.0807e-05)
(2.8039e-05 3.7449e-10 6.2063e-05)
(2.36e-05 -5.9043e-05 -7.7623e-10)
(2.3545e-05 -5.7865e-05 1.1523e-05)
(2.349e-05 -5.4334e-05 2.2494e-05)
(2.352e-05 -4.8665e-05 3.2476e-05)
(2.3564e-05 -4.1247e-05 4.1247e-05)
(2.352e-05 -3.2477e-05 4.8666e-05)
(2.349e-05 -2.2495e-05 5.4337e-05)
(2.3545e-05 -1.1524e-05 5.7868e-05)
(2.36e-05 4.3932e-10 5.9047e-05)
(1.9401e-05 -5.3913e-05 -7.314e-10)
(1.9362e-05 -5.2764e-05 1.0494e-05)
(1.931e-05 -4.9488e-05 2.0502e-05)
(1.9332e-05 -4.4352e-05 2.9634e-05)
(1.9358e-05 -3.7658e-05 3.7658e-05)
(1.9332e-05 -2.9635e-05 4.4353e-05)
(1.931e-05 -2.0504e-05 4.949e-05)
(1.9362e-05 -1.0495e-05 5.2768e-05)
(1.94e-05 4.2939e-10 5.3917e-05)
(1.5895e-05 -4.5565e-05 -6.452e-10)
(1.5866e-05 -4.451e-05 8.8591e-06)
(1.5795e-05 -4.1715e-05 1.7313e-05)
(1.5827e-05 -3.7391e-05 2.5012e-05)
(1.5842e-05 -3.1809e-05 3.1809e-05)
(1.5827e-05 -2.5013e-05 3.7392e-05)
(1.5795e-05 -1.7314e-05 4.1717e-05)
(1.5865e-05 -8.8601e-06 4.4513e-05)
(1.5895e-05 3.7395e-10 4.5569e-05)
(1.3096e-05 -3.3663e-05 -5.8487e-10)
(1.2993e-05 -3.2999e-05 6.6094e-06)
(1.2879e-05 -3.1004e-05 1.2862e-05)
(1.2937e-05 -2.7743e-05 1.8507e-05)
(1.3016e-05 -2.3492e-05 2.3492e-05)
(1.2937e-05 -1.8507e-05 2.7744e-05)
(1.2879e-05 -1.2863e-05 3.1006e-05)
(1.2993e-05 -6.6102e-06 3.3002e-05)
(1.3096e-05 3.0933e-10 3.3666e-05)
(9.899e-06 -2.0599e-05 -4.6882e-10)
(9.7278e-06 -2.0352e-05 4.1247e-06)
(9.5747e-06 -1.9241e-05 7.9691e-06)
(9.6668e-06 -1.7145e-05 1.1362e-05)
(9.8083e-06 -1.4364e-05 1.4364e-05)
(9.6667e-06 -1.1363e-05 1.7145e-05)
(9.5746e-06 -7.9697e-06 1.9242e-05)
(9.7276e-06 -4.1252e-06 2.0354e-05)
(9.8988e-06 2.26e-10 2.0601e-05)
(5.3345e-06 -9.1474e-06 -2.29e-10)
(5.2603e-06 -9.0512e-06 1.8505e-06)
(5.1767e-06 -8.5827e-06 3.5493e-06)
(5.2253e-06 -7.6393e-06 5.0368e-06)
(5.2842e-06 -6.3806e-06 6.3806e-06)
(5.2252e-06 -5.037e-06 7.6396e-06)
(5.1767e-06 -3.5496e-06 8.5833e-06)
(5.2603e-06 -1.8508e-06 9.0522e-06)
(5.3344e-06 1.0103e-10 9.1485e-06)
(2.0548e-12 -3.2192e-12 -6.9714e-17)
(7.9235e-09 3.2184e-10 1.2737e-08)
(2.5568e-12 7.8919e-13 -2.8808e-13)
(6.2625e-09 -4.0088e-09 -9.5457e-09)
(1.2495e-12 -6.696e-12 6.6957e-12)
(6.2624e-09 9.5416e-09 4.004e-09)
(2.5568e-12 2.8834e-13 -7.892e-13)
(7.9231e-09 -1.2741e-08 -3.1135e-10)
(2.0548e-12 2.6266e-17 3.2196e-12)
(4.5152e-05 1.0993e-05 5.5402e-05)
(4.8797e-05 9.8023e-06 4.9272e-05)
(4.5176e-05 2.1527e-05 5.1959e-05)
(4.8838e-05 1.9181e-05 4.6238e-05)
(4.5181e-05 3.1179e-05 4.6615e-05)
(4.8829e-05 2.7742e-05 4.1475e-05)
(4.518e-05 3.9625e-05 3.9624e-05)
(4.881e-05 3.5232e-05 3.5231e-05)
(4.5181e-05 4.6615e-05 3.1179e-05)
(4.8829e-05 4.1476e-05 2.7741e-05)
(4.5176e-05 5.1959e-05 2.1527e-05)
(4.8838e-05 4.6239e-05 1.9181e-05)
(4.5152e-05 5.5403e-05 1.0993e-05)
(4.8797e-05 4.9274e-05 9.8025e-06)
(4.5138e-05 5.6615e-05 -6.0761e-10)
(4.8766e-05 5.0322e-05 -4.2526e-10)
(4.1197e-05 1.1828e-05 5.9695e-05)
(4.1203e-05 2.3169e-05 5.5956e-05)
(4.1227e-05 3.3584e-05 5.0203e-05)
(4.1234e-05 4.2702e-05 4.2701e-05)
(4.1227e-05 5.0203e-05 3.3583e-05)
(4.1202e-05 5.5956e-05 2.3168e-05)
(4.1197e-05 5.9695e-05 1.1828e-05)
(4.1194e-05 6.1042e-05 -5.4134e-10)
(3.695e-05 1.2295e-05 6.1856e-05)
(3.6956e-05 2.4045e-05 5.8006e-05)
(3.6969e-05 3.4784e-05 5.2014e-05)
(3.698e-05 4.4192e-05 4.4192e-05)
(3.6969e-05 5.2014e-05 3.4782e-05)
(3.6956e-05 5.8006e-05 2.4044e-05)
(3.695e-05 6.1855e-05 1.2294e-05)
(3.6953e-05 6.3207e-05 -9.526e-10)
(3.2515e-05 1.2394e-05 6.2132e-05)
(3.251e-05 2.4196e-05 5.8305e-05)
(3.2519e-05 3.4916e-05 5.2243e-05)
(3.2528e-05 4.4324e-05 4.4323e-05)
(3.2519e-05 5.2243e-05 3.4915e-05)
(3.2509e-05 5.8303e-05 2.4195e-05)
(3.2515e-05 6.213e-05 1.2392e-05)
(3.2521e-05 6.3439e-05 -6.0496e-10)
(2.8008e-05 1.2126e-05 6.0807e-05)
(2.7976e-05 2.3662e-05 5.709e-05)
(2.7996e-05 3.4145e-05 5.1137e-05)
(2.8021e-05 4.336e-05 4.3359e-05)
(2.7996e-05 5.1137e-05 3.4143e-05)
(2.7975e-05 5.7088e-05 2.366e-05)
(2.8008e-05 6.0805e-05 1.2125e-05)
(2.8038e-05 6.206e-05 -5.9627e-10)
(2.3545e-05 1.1525e-05 5.7869e-05)
(2.3489e-05 2.2496e-05 5.4337e-05)
(2.352e-05 3.2478e-05 4.8666e-05)
(2.3563e-05 4.1248e-05 4.1247e-05)
(2.352e-05 4.8666e-05 3.2477e-05)
(2.3489e-05 5.4336e-05 2.2494e-05)
(2.3544e-05 5.7866e-05 1.1523e-05)
(2.3599e-05 5.9044e-05 -5.824e-10)
(1.9362e-05 1.0496e-05 5.2768e-05)
(1.931e-05 2.0504e-05 4.949e-05)
(1.9332e-05 2.9636e-05 4.4353e-05)
(1.9357e-05 3.7659e-05 3.7658e-05)
(1.9332e-05 4.4353e-05 2.9635e-05)
(1.931e-05 4.9489e-05 2.0503e-05)
(1.9362e-05 5.2765e-05 1.0494e-05)
(1.94e-05 5.3914e-05 -5.6203e-10)
(1.5865e-05 8.8608e-06 4.4513e-05)
(1.5795e-05 1.7314e-05 4.1716e-05)
(1.5827e-05 2.5014e-05 3.7391e-05)
(1.5841e-05 3.1809e-05 3.1809e-05)
(1.5827e-05 3.7392e-05 2.5012e-05)
(1.5794e-05 4.1716e-05 1.7313e-05)
(1.5865e-05 4.4511e-05 8.8593e-06)
(1.5895e-05 4.5567e-05 -5.4331e-10)
(1.2993e-05 6.6107e-06 3.3001e-05)
(1.2879e-05 1.2863e-05 3.1005e-05)
(1.2937e-05 1.8508e-05 2.7743e-05)
(1.3016e-05 2.3492e-05 2.3491e-05)
(1.2937e-05 2.7743e-05 1.8506e-05)
(1.2879e-05 3.1004e-05 1.2862e-05)
(1.2993e-05 3.3e-05 6.6094e-06)
(1.3096e-05 3.3664e-05 -5.1709e-10)
(9.7276e-06 4.1256e-06 2.0354e-05)
(9.5745e-06 7.9699e-06 1.9241e-05)
(9.6666e-06 1.1363e-05 1.7145e-05)
(9.8082e-06 1.4364e-05 1.4364e-05)
(9.6666e-06 1.7145e-05 1.1362e-05)
(9.5745e-06 1.9241e-05 7.9689e-06)
(9.7276e-06 2.0352e-05 4.1247e-06)
(9.8988e-06 2.0599e-05 -4.2584e-10)
(5.2602e-06 1.8509e-06 9.052e-06)
(5.1766e-06 3.5496e-06 8.583e-06)
(5.2252e-06 5.0369e-06 7.6391e-06)
(5.2841e-06 6.3804e-06 6.3801e-06)
(5.2252e-06 7.6391e-06 5.0364e-06)
(5.1766e-06 8.5826e-06 3.5491e-06)
(5.2603e-06 9.0512e-06 1.8504e-06)
(5.3344e-06 9.1474e-06 -2.2368e-10)
(7.9241e-09 1.2746e-08 -3.1053e-10)
(2.5568e-12 -2.8838e-13 -7.8928e-13)
(6.2615e-09 -9.547e-09 3.9957e-09)
(1.2495e-12 6.696e-12 6.6956e-12)
(6.2612e-09 4.0053e-09 -9.5495e-09)
(2.5568e-12 -7.8938e-13 -2.8824e-13)
(7.9246e-09 -3.2055e-10 1.2742e-08)
(2.0548e-12 3.2192e-12 -7.6355e-17)
(4.5152e-05 5.5404e-05 -1.0994e-05)
(4.8797e-05 4.9274e-05 -9.8035e-06)
(4.5176e-05 5.1961e-05 -2.1528e-05)
(4.8838e-05 4.6241e-05 -1.9182e-05)
(4.5181e-05 4.6616e-05 -3.118e-05)
(4.8828e-05 4.1477e-05 -2.7743e-05)
(4.5179e-05 3.9625e-05 -3.9625e-05)
(4.881e-05 3.5232e-05 -3.5232e-05)
(4.5181e-05 3.1179e-05 -4.6615e-05)
(4.8829e-05 2.7742e-05 -4.1476e-05)
(4.5176e-05 2.1527e-05 -5.1959e-05)
(4.8838e-05 1.9181e-05 -4.6238e-05)
(4.5152e-05 1.0993e-05 -5.5401e-05)
(4.8797e-05 9.8023e-06 -4.9271e-05)
(4.5139e-05 -2.4054e-10 -5.6612e-05)
(4.8766e-05 -2.9013e-10 -5.0318e-05)
(4.1197e-05 5.9696e-05 -1.1829e-05)
(4.1202e-05 5.5956e-05 -2.3169e-05)
(4.1227e-05 5.0204e-05 -3.3584e-05)
(4.1234e-05 4.2702e-05 -4.2702e-05)
(4.1227e-05 3.3584e-05 -5.0203e-05)
(4.1202e-05 2.3168e-05 -5.5955e-05)
(4.1197e-05 1.1828e-05 -5.9694e-05)
(4.1194e-05 2.0699e-11 -6.104e-05)
(3.695e-05 6.1855e-05 -1.2295e-05)
(3.6956e-05 5.8006e-05 -2.4045e-05)
(3.6969e-05 5.2014e-05 -3.4783e-05)
(3.698e-05 4.4192e-05 -4.4192e-05)
(3.6969e-05 3.4783e-05 -5.2013e-05)
(3.6956e-05 2.4045e-05 -5.8005e-05)
(3.695e-05 1.2295e-05 -6.1854e-05)
(3.6953e-05 -2.1964e-10 -6.3206e-05)
(3.2515e-05 6.213e-05 -1.2393e-05)
(3.251e-05 5.8303e-05 -2.4196e-05)
(3.2519e-05 5.2242e-05 -3.4915e-05)
(3.2528e-05 4.4323e-05 -4.4323e-05)
(3.2519e-05 3.4915e-05 -5.2242e-05)
(3.2509e-05 2.4195e-05 -5.8303e-05)
(3.2515e-05 1.2393e-05 -6.213e-05)
(3.2522e-05 2.583e-10 -6.3439e-05)
(2.8008e-05 6.0804e-05 -1.2126e-05)
(2.7976e-05 5.7087e-05 -2.3661e-05)
(2.7996e-05 5.1135e-05 -3.4143e-05)
(2.8021e-05 4.3359e-05 -4.3359e-05)
(2.7996e-05 3.4143e-05 -5.1135e-05)
(2.7975e-05 2.3661e-05 -5.7088e-05)
(2.8008e-05 1.2126e-05 -6.0805e-05)
(2.8038e-05 3.2605e-10 -6.2061e-05)
(2.3544e-05 5.7865e-05 -1.1524e-05)
(2.3489e-05 5.4334e-05 -2.2495e-05)
(2.352e-05 4.8664e-05 -3.2477e-05)
(2.3563e-05 4.1246e-05 -4.1247e-05)
(2.352e-05 3.2477e-05 -4.8665e-05)
(2.3489e-05 2.2495e-05 -5.4335e-05)
(2.3544e-05 1.1524e-05 -5.7866e-05)
(2.3599e-05 3.4903e-10 -5.9045e-05)
(1.9362e-05 5.2765e-05 -1.0495e-05)
(1.931e-05 4.9488e-05 -2.0503e-05)
(1.9332e-05 4.4351e-05 -2.9635e-05)
(1.9357e-05 3.7657e-05 -3.7658e-05)
(1.9332e-05 2.9634e-05 -4.4352e-05)
(1.931e-05 2.0503e-05 -4.9489e-05)
(1.9362e-05 1.0495e-05 -5.2766e-05)
(1.94e-05 3.0937e-10 -5.3916e-05)
(1.5865e-05 4.451e-05 -8.8602e-06)
(1.5794e-05 4.1714e-05 -1.7313e-05)
(1.5826e-05 3.739e-05 -2.5012e-05)
(1.5841e-05 3.1808e-05 -3.1808e-05)
(1.5826e-05 2.5012e-05 -3.7391e-05)
(1.5794e-05 1.7313e-05 -4.1715e-05)
(1.5865e-05 8.8601e-06 -4.4511e-05)
(1.5895e-05 2.4314e-10 -4.5568e-05)
(1.2993e-05 3.2999e-05 -6.6103e-06)
(1.2879e-05 3.1003e-05 -1.2862e-05)
(1.2937e-05 2.7742e-05 -1.8506e-05)
(1.3016e-05 2.3491e-05 -2.3491e-05)
(1.2937e-05 1.8506e-05 -2.7742e-05)
(1.2879e-05 1.2862e-05 -3.1004e-05)
(1.2993e-05 6.6101e-06 -3.3e-05)
(1.3096e-05 1.7788e-10 -3.3665e-05)
(9.7276e-06 2.0352e-05 -4.1254e-06)
(9.5745e-06 1.924e-05 -7.9694e-06)
(9.6666e-06 1.7144e-05 -1.1362e-05)
(9.8082e-06 1.4363e-05 -1.4364e-05)
(9.6667e-06 1.1362e-05 -1.7144e-05)
(9.5746e-06 7.9692e-06 -1.9241e-05)
(9.7277e-06 4.1252e-06 -2.0352e-05)
(9.899e-06 1.125e-10 -2.0599e-05)
(5.2603e-06 9.051e-06 -1.8508e-06)
(5.1766e-06 8.5823e-06 -3.5494e-06)
(5.2252e-06 7.6388e-06 -5.0366e-06)
(5.2841e-06 6.38e-06 -6.3801e-06)
(5.2252e-06 5.0365e-06 -7.6389e-06)
(5.1767e-06 3.5493e-06 -8.5825e-06)
(5.2603e-06 1.8507e-06 -9.0513e-06)
(5.3345e-06 5.6668e-11 -9.1477e-06)
(7.9245e-09 -3.2283e-10 -1.2746e-08)
(2.5568e-12 -7.8927e-13 2.8821e-13)
(6.2612e-09 4.0032e-09 9.5499e-09)
(1.2494e-12 6.6955e-12 -6.6955e-12)
(6.2608e-09 -9.5465e-09 -4.0025e-09)
(2.5569e-12 -2.8827e-13 7.8931e-13)
(7.9251e-09 1.2744e-08 3.199e-10)
(2.0548e-12 2.1627e-17 -3.2193e-12)
(4.5152e-05 -1.0993e-05 -5.54e-05)
(4.8797e-05 -9.8026e-06 -4.927e-05)
(4.5176e-05 -2.1527e-05 -5.1957e-05)
(4.8839e-05 -1.9181e-05 -4.6237e-05)
(4.5181e-05 -3.1179e-05 -4.6614e-05)
(4.8829e-05 -2.7741e-05 -4.1475e-05)
(4.518e-05 -3.9624e-05 -3.9624e-05)
(4.8811e-05 -3.5232e-05 -3.5231e-05)
(4.5182e-05 -4.6615e-05 -3.1179e-05)
(4.883e-05 -4.1476e-05 -2.7741e-05)
(4.5177e-05 -5.1959e-05 -2.1527e-05)
(4.8839e-05 -4.6239e-05 -1.9181e-05)
(4.5153e-05 -5.5402e-05 -1.0994e-05)
(4.8798e-05 -4.9273e-05 -9.8029e-06)
(4.1197e-05 -1.1828e-05 -5.9694e-05)
(4.1203e-05 -2.3168e-05 -5.5954e-05)
(4.1228e-05 -3.3583e-05 -5.0202e-05)
(4.1235e-05 -4.2701e-05 -4.2701e-05)
(4.1228e-05 -5.0203e-05 -3.3583e-05)
(4.1204e-05 -5.5955e-05 -2.3168e-05)
(4.1198e-05 -5.9694e-05 -1.1828e-05)
(3.695e-05 -1.2294e-05 -6.1854e-05)
(3.6956e-05 -2.4044e-05 -5.8005e-05)
(3.697e-05 -3.4782e-05 -5.2013e-05)
(3.6981e-05 -4.4191e-05 -4.4192e-05)
(3.697e-05 -5.2012e-05 -3.4783e-05)
(3.6957e-05 -5.8005e-05 -2.4045e-05)
(3.6951e-05 -6.1854e-05 -1.2295e-05)
(3.2515e-05 -1.2392e-05 -6.213e-05)
(3.251e-05 -2.4195e-05 -5.8303e-05)
(3.252e-05 -3.4915e-05 -5.2242e-05)
(3.2529e-05 -4.4322e-05 -4.4323e-05)
(3.252e-05 -5.2241e-05 -3.4915e-05)
(3.251e-05 -5.8302e-05 -2.4195e-05)
(3.2516e-05 -6.2129e-05 -1.2393e-05)
(2.8008e-05 -1.2125e-05 -6.0805e-05)
(2.7976e-05 -2.366e-05 -5.7088e-05)
(2.7996e-05 -3.4143e-05 -5.1136e-05)
(2.8022e-05 -4.3358e-05 -4.3359e-05)
(2.7997e-05 -5.1135e-05 -3.4144e-05)
(2.7976e-05 -5.7087e-05 -2.3661e-05)
(2.8009e-05 -6.0803e-05 -1.2126e-05)
(2.3544e-05 -1.1524e-05 -5.7867e-05)
(2.3489e-05 -2.2494e-05 -5.4336e-05)
(2.352e-05 -3.2477e-05 -4.8666e-05)
(2.3564e-05 -4.1247e-05 -4.1248e-05)
(2.352e-05 -4.8664e-05 -3.2477e-05)
(2.349e-05 -5.4334e-05 -2.2495e-05)
(2.3545e-05 -5.7865e-05 -1.1524e-05)
(1.9362e-05 -1.0494e-05 -5.2766e-05)
(1.931e-05 -2.0503e-05 -4.949e-05)
(1.9332e-05 -2.9635e-05 -4.4353e-05)
(1.9358e-05 -3.7658e-05 -3.7659e-05)
(1.9332e-05 -4.4351e-05 -2.9635e-05)
(1.931e-05 -4.9488e-05 -2.0504e-05)
(1.9363e-05 -5.2764e-05 -1.0495e-05)
(1.5865e-05 -8.8597e-06 -4.4512e-05)
(1.5795e-05 -1.7313e-05 -4.1716e-05)
(1.5827e-05 -2.5012e-05 -3.7392e-05)
(1.5842e-05 -3.1808e-05 -3.1809e-05)
(1.5827e-05 -3.739e-05 -2.5013e-05)
(1.5795e-05 -4.1714e-05 -1.7314e-05)
(1.5866e-05 -4.451e-05 -8.8604e-06)
(1.2993e-05 -6.6098e-06 -3.3e-05)
(1.2879e-05 -1.2862e-05 -3.1005e-05)
(1.2938e-05 -1.8506e-05 -2.7743e-05)
(1.3016e-05 -2.3491e-05 -2.3492e-05)
(1.2938e-05 -2.7742e-05 -1.8507e-05)
(1.2879e-05 -3.1003e-05 -1.2863e-05)
(1.2994e-05 -3.2999e-05 -6.6105e-06)
(9.7278e-06 -4.1249e-06 -2.0353e-05)
(9.5748e-06 -7.969e-06 -1.9241e-05)
(9.667e-06 -1.1362e-05 -1.7145e-05)
(9.8085e-06 -1.4363e-05 -1.4364e-05)
(9.667e-06 -1.7144e-05 -1.1362e-05)
(9.5748e-06 -1.924e-05 -7.9696e-06)
(9.7278e-06 -2.0352e-05 -4.1255e-06)
(5.2604e-06 -1.8506e-06 -9.0514e-06)
(5.1768e-06 -3.5492e-06 -8.5827e-06)
(5.2254e-06 -5.0364e-06 -7.6392e-06)
(5.2843e-06 -6.3799e-06 -6.3803e-06)
(5.2254e-06 -7.6387e-06 -5.0368e-06)
(5.1768e-06 -8.5823e-06 -3.5495e-06)
(5.2604e-06 -9.051e-06 -1.8509e-06)
(7.9242e-09 -1.2746e-08 3.1892e-10)
(2.5569e-12 2.8839e-13 7.894e-13)
(6.2625e-09 9.551e-09 -4.0051e-09)
(1.2495e-12 -6.6956e-12 -6.6958e-12)
(6.263e-09 -4.0016e-09 9.5501e-09)
(2.5569e-12 7.8928e-13 2.8824e-13)
(7.9233e-09 3.181e-10 -1.2744e-08)
)
;
    }
    procBoundary3to2
    {
        type            processor;
    }
}


// ************************************************************************* //
