/*--------------------------------*- C++ -*----------------------------------*\
| =========                 |                                                 |
| \\      /  F ield         | OpenFOAM: The Open Source CFD Toolbox           |
|  \\    /   O peration     | Version:  4.1                                   |
|   \\  /    A nd           | Web:      www.OpenFOAM.org                      |
|    \\/     M anipulation  |                                                 |
\*---------------------------------------------------------------------------*/
FoamFile
{
    version     2.0;
    format      ascii;
    class       pointVectorField;
    location    "0.0005";
    object      pointDisplacement;
}
// * * * * * * * * * * * * * * * * * * * * * * * * * * * * * * * * * * * * * //

dimensions      [0 1 0 0 0 0 0];

internalField   nonuniform List<vector> 
1885
(
(0 0 0)
(-3.8551e-10 3.4048e-10 -7.4522e-13)
(-7.3817e-10 5.9961e-10 -1.471e-12)
(-1.036e-09 7.0768e-10 -2.1624e-12)
(-1.2709e-09 6.2963e-10 -2.8298e-12)
(-1.4402e-09 3.8604e-10 -3.5251e-12)
(-1.5383e-09 5.3021e-11 -4.324e-12)
(-1.5597e-09 -2.6265e-10 -5.2772e-12)
(-1.5067e-09 -4.6177e-10 -6.3985e-12)
(-1.3911e-09 -4.8755e-10 -7.7271e-12)
(-1.2324e-09 -3.4438e-10 -9.3735e-12)
(-1.053e-09 -9.3784e-11 -1.146e-11)
(-8.7766e-10 1.7055e-10 -1.4034e-11)
(0 0 0)
(-3.7736e-10 3.0081e-10 -3.6037e-11)
(-7.2399e-10 5.2962e-10 -6.3538e-11)
(-1.0186e-09 6.2552e-10 -7.5245e-11)
(-1.2516e-09 5.5834e-10 -6.7477e-11)
(-1.4192e-09 3.4606e-10 -4.2343e-11)
(-1.5163e-09 5.4697e-11 -7.8858e-12)
(-1.5386e-09 -2.2284e-10 2.4495e-11)
(-1.4887e-09 -3.996e-10 4.4147e-11)
(-1.3783e-09 -4.2505e-10 4.5006e-11)
(-1.2259e-09 -3.0188e-10 2.7663e-11)
(-1.0534e-09 -8.2851e-11 -1.2497e-12)
(-8.851e-10 1.505e-10 -3.1891e-11)
(0 0 0)
(-3.7186e-10 2.5542e-10 -7.89e-11)
(-7.1449e-10 4.497e-10 -1.3881e-10)
(-1.007e-09 5.3172e-10 -1.6381e-10)
(-1.239e-09 4.7653e-10 -1.4611e-10)
(-1.4057e-09 2.9928e-10 -9.0437e-11)
(-1.5022e-09 5.5036e-11 -1.4234e-11)
(-1.525e-09 -1.7866e-10 5.7888e-11)
(-1.4771e-09 -3.2887e-10 1.0285e-10)
(-1.37e-09 -3.5284e-10 1.0734e-10)
(-1.2214e-09 -2.522e-10 7.2328e-11)
(-1.0533e-09 -7.0426e-11 1.1911e-11)
(-8.8969e-10 1.2471e-10 -5.2639e-11)
(0 0 0)
(-3.6856e-10 2.1091e-10 -1.2162e-10)
(-7.0873e-10 3.713e-10 -2.1377e-10)
(-9.9984e-10 4.3932e-10 -2.52e-10)
(-1.2311e-09 3.9474e-10 -2.2453e-10)
(-1.3973e-09 2.501e-10 -1.3879e-10)
(-1.4934e-09 5.0346e-11 -2.1392e-11)
(-1.5166e-09 -1.412e-10 9.0186e-11)
(-1.47e-09 -2.6487e-10 1.607e-10)
(-1.3648e-09 -2.8555e-10 1.696e-10)
(-1.2186e-09 -2.044e-10 1.178e-10)
(-1.0532e-09 -5.6781e-11 2.6343e-11)
(-8.9236e-10 1.0205e-10 -7.2401e-11)
(0 0 0)
(-3.6747e-10 1.6749e-10 -1.6385e-10)
(-7.0682e-10 2.9489e-10 -2.8788e-10)
(-9.9745e-10 3.4908e-10 -3.3916e-10)
(-1.2285e-09 3.1417e-10 -3.0188e-10)
(-1.3944e-09 2.0012e-10 -1.8613e-10)
(-1.4905e-09 4.2436e-11 -2.7646e-11)
(-1.5138e-09 -1.0881e-10 1.2331e-10)
(-1.4675e-09 -2.0644e-10 2.1941e-10)
(-1.3629e-09 -2.2278e-10 2.3284e-10)
(-1.2175e-09 -1.5888e-10 1.644e-10)
(-1.0529e-09 -4.2837e-11 4.1915e-11)
(-8.9302e-10 8.1629e-11 -9.1227e-11)
(0 0 0)
(-3.6859e-10 1.2463e-10 -2.0639e-10)
(-7.0877e-10 2.1954e-10 -3.626e-10)
(-9.9988e-10 2.6012e-10 -4.2694e-10)
(-1.2312e-09 2.3453e-10 -3.7934e-10)
(-1.3973e-09 1.501e-10 -2.3247e-10)
(-1.4934e-09 3.3273e-11 -3.1549e-11)
(-1.5166e-09 -7.8668e-11 1.5984e-10)
(-1.4699e-09 -1.5062e-10 2.8187e-10)
(-1.3645e-09 -1.6218e-10 2.9931e-10)
(-1.2182e-09 -1.1446e-10 2.1305e-10)
(-1.0526e-09 -2.8763e-11 5.8089e-11)
(-8.9168e-10 6.2269e-11 -1.1072e-10)
(0 0 0)
(-3.7192e-10 8.1615e-11 -2.5004e-10)
(-7.1458e-10 1.44e-10 -4.3931e-10)
(-1.007e-09 1.7111e-10 -5.1693e-10)
(-1.239e-09 1.5508e-10 -4.5807e-10)
(-1.4057e-09 1.0057e-10 -2.7806e-10)
(-1.5022e-09 2.4856e-11 -3.2305e-11)
(-1.5249e-09 -4.7619e-11 2.0131e-10)
(-1.4769e-09 -9.3909e-11 3.4972e-10)
(-1.3694e-09 -1.0086e-10 3.7007e-10)
(-1.2206e-09 -6.9641e-11 2.6367e-10)
(-1.0523e-09 -1.4589e-11 7.353e-11)
(-8.8839e-10 4.2782e-11 -1.3303e-10)
(0 0 0)
(-3.7743e-10 3.8752e-11 -2.949e-10)
(-7.2409e-10 6.8739e-11 -5.1824e-10)
(-1.0186e-09 8.2575e-11 -6.0937e-10)
(-1.2517e-09 7.6511e-11 -5.3818e-10)
(-1.4193e-09 5.2568e-11 -3.2283e-10)
(-1.5163e-09 1.8639e-11 -2.9826e-11)
(-1.5385e-09 -1.4035e-11 2.4754e-10)
(-1.4883e-09 -3.4932e-11 4.2218e-10)
(-1.3776e-09 -3.814e-11 4.4354e-10)
(-1.2247e-09 -2.4468e-11 3.1393e-10)
(-1.0519e-09 -8.098e-13 8.5558e-11)
(-8.8328e-10 2.2766e-11 -1.6056e-10)
(0 0 0)
(-3.8559e-10 3.7088e-12 -3.3464e-10)
(-7.3827e-10 7.1737e-12 -5.8846e-10)
(-1.0361e-09 1.0241e-11 -6.9197e-10)
(-1.2709e-09 1.2838e-11 -6.1009e-10)
(-1.4401e-09 1.4909e-11 -3.6355e-10)
(-1.5382e-09 1.638e-11 -2.9087e-11)
(-1.5596e-09 1.7155e-11 2.8602e-10)
(-1.5062e-09 1.7134e-11 4.8252e-10)
(-1.3902e-09 1.62e-11 5.0368e-10)
(-1.231e-09 1.4203e-11 3.5352e-10)
(-1.0512e-09 1.0969e-11 9.29e-11)
(-8.7548e-10 6.3087e-12 -1.8509e-10)
(0 0 0)
(-3.7736e-10 3.0073e-10 3.4493e-11)
(-7.24e-10 5.2947e-10 6.0491e-11)
(-1.0186e-09 6.2532e-10 7.077e-11)
(-1.2516e-09 5.5809e-10 6.1628e-11)
(-1.4192e-09 3.4575e-10 3.508e-11)
(-1.5163e-09 5.4298e-11 -9.7843e-13)
(-1.5386e-09 -2.2336e-10 -3.5275e-11)
(-1.4888e-09 -4.0025e-10 -5.7236e-11)
(-1.3785e-09 -4.2584e-10 -6.0907e-11)
(-1.226e-09 -3.0286e-10 -4.7075e-11)
(-1.0536e-09 -8.4129e-11 -2.2584e-11)
(-8.8525e-10 1.488e-10 2.6343e-12)
(0 0 0)
(-3.6583e-10 2.4231e-10 -8.4944e-13)
(-7.0372e-10 4.264e-10 -1.6703e-12)
(-9.9321e-10 5.0403e-10 -2.439e-12)
(-1.2234e-09 4.5196e-10 -3.1612e-12)
(-1.3887e-09 2.8463e-10 -3.8823e-12)
(-1.4846e-09 5.3803e-11 -4.6808e-12)
(-1.5083e-09 -1.6753e-10 -5.6439e-12)
(-1.4631e-09 -3.1043e-10 -6.8513e-12)
(-1.3602e-09 -3.3406e-10 -8.3807e-12)
(-1.2169e-09 -2.3931e-10 -1.0317e-11)
(-1.0546e-09 -6.6793e-11 -1.2739e-11)
(-8.9674e-10 1.1931e-10 -1.568e-11)
(0 0 0)
(-3.6104e-10 1.975e-10 -3.8055e-11)
(-6.9532e-10 3.4754e-10 -6.685e-11)
(-9.8275e-10 4.1128e-10 -7.8846e-11)
(-1.2119e-09 3.7036e-10 -7.057e-11)
(-1.3765e-09 2.3659e-10 -4.4517e-11)
(-1.4721e-09 5.1467e-11 -9.0362e-12)
(-1.4964e-09 -1.2661e-10 2.4266e-11)
(-1.453e-09 -2.4245e-10 4.4572e-11)
(-1.353e-09 -2.633e-10 4.5662e-11)
(-1.2133e-09 -1.8961e-10 2.7965e-11)
(-1.055e-09 -5.3559e-11 -1.9594e-12)
(-9.0159e-10 9.3816e-11 -3.4159e-11)
(0 0 0)
(-3.5817e-10 1.561e-10 -7.5746e-11)
(-6.9027e-10 2.7473e-10 -1.329e-10)
(-9.764e-10 3.2545e-10 -1.5642e-10)
(-1.2048e-09 2.9408e-10 -1.394e-10)
(-1.369e-09 1.9e-10 -8.6765e-11)
(-1.4644e-09 4.5649e-11 -1.4969e-11)
(-1.4891e-09 -9.3432e-11 5.3043e-11)
(-1.4469e-09 -1.8423e-10 9.5764e-11)
(-1.3486e-09 -2.0124e-10 1.0062e-10)
(-1.211e-09 -1.4484e-10 6.8076e-11)
(-1.0552e-09 -4.0119e-11 1.0842e-11)
(-9.0449e-10 7.3216e-11 -5.136e-11)
(0 0 0)
(-3.5723e-10 1.1712e-10 -1.1316e-10)
(-6.8861e-10 2.0618e-10 -1.9852e-10)
(-9.7429e-10 2.4449e-10 -2.336e-10)
(-1.2024e-09 2.2155e-10 -2.0803e-10)
(-1.3665e-09 1.4444e-10 -1.2908e-10)
(-1.4618e-09 3.7377e-11 -2.115e-11)
(-1.4867e-09 -6.5747e-11 8.1622e-11)
(-1.4448e-09 -1.3299e-10 1.4712e-10)
(-1.347e-09 -1.4551e-10 1.5634e-10)
(-1.2102e-09 -1.0388e-10 1.0956e-10)
(-1.0551e-09 -2.6955e-11 2.5343e-11)
(-9.0524e-10 5.561e-11 -6.7022e-11)
(0 0 0)
(-3.5821e-10 7.9136e-11 -1.514e-10)
(-6.9032e-10 1.3943e-10 -2.6563e-10)
(-9.7645e-10 1.6567e-10 -3.1246e-10)
(-1.2048e-09 1.5081e-10 -2.7789e-10)
(-1.369e-09 9.9647e-11 -1.7148e-10)
(-1.4644e-09 2.8443e-11 -2.5925e-11)
(-1.489e-09 -4.0055e-11 1.1298e-10)
(-1.4467e-09 -8.4505e-11 2.0203e-10)
(-1.3483e-09 -9.2513e-11 2.1553e-10)
(-1.2106e-09 -6.479e-11 1.5359e-10)
(-1.0547e-09 -1.4331e-11 4.0893e-11)
(-9.0382e-10 3.8829e-11 -8.3222e-11)
(0 0 0)
(-3.611e-10 4.1067e-11 -1.9207e-10)
(-6.9542e-10 7.2636e-11 -3.3701e-10)
(-9.8283e-10 8.7006e-11 -3.9623e-10)
(-1.2119e-09 8.0594e-11 -3.5153e-10)
(-1.3765e-09 5.5769e-11 -2.1496e-10)
(-1.472e-09 2.0708e-11 -2.8314e-11)
(-1.4962e-09 -1.3161e-11 1.4972e-10)
(-1.4527e-09 -3.5178e-11 2.6377e-10)
(-1.3524e-09 -3.9305e-11 2.8087e-10)
(-1.2125e-09 -2.6202e-11 2.0116e-10)
(-1.054e-09 -2.7014e-12 5.6389e-11)
(-9.0031e-10 2.0957e-11 -1.0285e-10)
(0 0 0)
(-3.6591e-10 3.5608e-12 -2.3634e-10)
(-7.0384e-10 6.863e-12 -4.1484e-10)
(-9.9332e-10 9.7311e-12 -4.8753e-10)
(-1.2235e-09 1.207e-11 -4.3132e-10)
(-1.3887e-09 1.3809e-11 -2.6089e-10)
(-1.4845e-09 1.487e-11 -2.836e-11)
(-1.5081e-09 1.5178e-11 1.9295e-10)
(-1.4627e-09 1.4659e-11 3.3391e-10)
(-1.3594e-09 1.3213e-11 3.535e-10)
(-1.2158e-09 1.0697e-11 2.5225e-10)
(-1.0531e-09 6.9207e-12 7.0267e-11)
(-8.9495e-10 1.6501e-12 -1.2873e-10)
(0 0 0)
(-3.7745e-10 -3.1585e-11 -2.947e-10)
(-7.2412e-10 -5.4904e-11 -5.1786e-10)
(-1.0187e-09 -6.2887e-11 -6.0886e-10)
(-1.2517e-09 -5.1943e-11 -5.3757e-10)
(-1.4192e-09 -2.4208e-11 -3.2218e-10)
(-1.5162e-09 1.2266e-11 -2.9177e-11)
(-1.5384e-09 4.6056e-11 2.4811e-10)
(-1.4882e-09 6.6455e-11 4.2258e-10)
(-1.3774e-09 6.7327e-11 4.4362e-10)
(-1.2246e-09 4.9199e-11 3.1358e-10)
(-1.0517e-09 1.861e-11 8.4656e-11)
(-8.83e-10 -1.4775e-11 -1.6215e-10)
(0 0 0)
(-3.7189e-10 2.5523e-10 7.7284e-11)
(-7.1453e-10 4.4933e-10 1.3559e-10)
(-1.007e-09 5.312e-10 1.5905e-10)
(-1.239e-09 4.7589e-10 1.3982e-10)
(-1.4057e-09 2.9852e-10 8.2558e-11)
(-1.5022e-09 5.41e-11 4.5681e-12)
(-1.5251e-09 -1.7983e-10 -6.9672e-11)
(-1.4773e-09 -3.3032e-10 -1.1718e-10)
(-1.3702e-09 -3.5464e-10 -1.2479e-10)
(-1.2217e-09 -2.5447e-10 -9.3647e-11)
(-1.0537e-09 -7.3401e-11 -3.8056e-11)
(-8.9003e-10 1.2079e-10 2.0589e-11)
(0 0 0)
(-3.6105e-10 1.9743e-10 3.6269e-11)
(-6.9535e-10 3.4741e-10 6.3314e-11)
(-9.8278e-10 4.1111e-10 7.3633e-11)
(-1.2119e-09 3.7015e-10 6.3736e-11)
(-1.3765e-09 2.3635e-10 3.6033e-11)
(-1.4721e-09 5.1189e-11 -1.2749e-12)
(-1.4964e-09 -1.2695e-10 -3.6754e-11)
(-1.4531e-09 -2.4288e-10 -5.9752e-11)
(-1.3531e-09 -2.6383e-10 -6.4213e-11)
(-1.2134e-09 -1.9032e-10 -5.0734e-11)
(-1.0551e-09 -5.4519e-11 -2.604e-11)
(-9.0174e-10 9.2515e-11 -1.847e-13)
(0 0 0)
(-3.5614e-10 1.5821e-10 -9.7596e-13)
(-6.8662e-10 2.7834e-10 -1.9289e-12)
(-9.717e-10 3.2961e-10 -2.8385e-12)
(-1.1995e-09 2.9775e-10 -3.7109e-12)
(-1.3632e-09 1.9234e-10 -4.5909e-12)
(-1.4585e-09 4.6204e-11 -5.5588e-12)
(-1.4836e-09 -9.4618e-11 -6.712e-12)
(-1.4423e-09 -1.8664e-10 -8.1498e-12)
(-1.3455e-09 -2.0403e-10 -9.9619e-12)
(-1.2097e-09 -1.4713e-10 -1.223e-11)
(-1.0559e-09 -4.1241e-11 -1.5028e-11)
(-9.0728e-10 7.3412e-11 -1.8411e-11)
(0 0 0)
(-3.5319e-10 1.1919e-10 -3.8673e-11)
(-6.8135e-10 2.0982e-10 -6.7938e-11)
(-9.6498e-10 2.4893e-10 -8.0251e-11)
(-1.1919e-09 2.2604e-10 -7.2223e-11)
(-1.3552e-09 1.4836e-10 -4.6374e-11)
(-1.4503e-09 4.0255e-11 -1.096e-11)
(-1.4758e-09 -6.4148e-11 2.2546e-11)
(-1.4358e-09 -1.3266e-10 4.3361e-11)
(-1.3408e-09 -1.4616e-10 4.5109e-11)
(-1.2074e-09 -1.0496e-10 2.7872e-11)
(-1.0563e-09 -2.7823e-11 -2.17e-12)
(-9.1052e-10 5.5428e-11 -3.5268e-11)
(0 0 0)
(-3.5221e-10 8.0642e-11 -7.6582e-11)
(-6.7961e-10 1.4218e-10 -1.3432e-10)
(-9.6275e-10 1.6932e-10 -1.5814e-10)
(-1.1894e-09 1.551e-10 -1.4122e-10)
(-1.3525e-09 1.0432e-10 -8.8564e-11)
(-1.4475e-09 3.3147e-11 -1.6557e-11)
(-1.4732e-09 -3.5803e-11 5.1969e-11)
(-1.4335e-09 -8.1228e-11 9.5517e-11)
(-1.3391e-09 -9.055e-11 1.013e-10)
(-1.2065e-09 -6.4096e-11 6.939e-11)
(-1.0562e-09 -1.4455e-11 1.2028e-11)
(-9.1139e-10 3.8504e-11 -5.1284e-11)
(0 0 0)
(-3.5321e-10 4.2345e-11 -1.1465e-10)
(-6.814e-10 7.5033e-11 -2.0101e-10)
(-9.6502e-10 9.0322e-11 -2.3637e-10)
(-1.1919e-09 8.467e-11 -2.104e-10)
(-1.3552e-09 6.0438e-11 -1.3053e-10)
(-1.4503e-09 2.5677e-11 -2.137e-11)
(-1.4757e-09 -8.3437e-12 8.2709e-11)
(-1.4356e-09 -3.1029e-11 1.4932e-10)
(-1.3405e-09 -3.6204e-11 1.5914e-10)
(-1.207e-09 -2.4211e-11 1.1217e-10)
(-1.0558e-09 -1.5416e-12 2.6834e-11)
(-9.0988e-10 2.1709e-11 -6.746e-11)
(0 0 0)
(-3.5619e-10 4.3645e-12 -1.5314e-10)
(-6.867e-10 8.4634e-12 -2.6853e-10)
(-9.7177e-10 1.2089e-11 -3.1559e-10)
(-1.1995e-09 1.5103e-11 -2.8027e-10)
(-1.3632e-09 1.74e-11 -1.7235e-10)
(-1.4584e-09 1.8873e-11 -2.4944e-11)
(-1.4834e-09 1.9429e-11 1.1563e-10)
(-1.442e-09 1.8986e-11 2.057e-10)
(-1.3449e-09 1.7427e-11 2.1921e-10)
(-1.209e-09 1.4579e-11 1.5619e-10)
(-1.0549e-09 1.0212e-11 4.1534e-11)
(-9.0604e-10 4.0531e-12 -8.4973e-11)
(0 0 0)
(-3.6112e-10 -3.3134e-11 -1.9189e-10)
(-6.9546e-10 -5.7285e-11 -3.3666e-10)
(-9.8287e-10 -6.513e-11 -3.9575e-10)
(-1.2119e-09 -5.3317e-11 -3.5098e-10)
(-1.3765e-09 -2.4399e-11 -2.1439e-10)
(-1.472e-09 1.3251e-11 -2.7785e-11)
(-1.4961e-09 4.8021e-11 1.5015e-10)
(-1.4526e-09 6.9083e-11 2.6404e-10)
(-1.3523e-09 7.0171e-11 2.809e-10)
(-1.2123e-09 5.1627e-11 2.0087e-10)
(-1.0537e-09 1.987e-11 5.5694e-11)
(-8.9998e-10 -1.5359e-11 -1.0405e-10)
(0 0 0)
(-3.7199e-10 -7.39e-11 -2.4926e-10)
(-7.1467e-10 -1.2907e-10 -4.3779e-10)
(-1.0071e-09 -1.4982e-10 -5.1476e-10)
(-1.2391e-09 -1.2845e-10 -4.5539e-10)
(-1.4057e-09 -6.9796e-11 -2.7502e-10)
(-1.5021e-09 8.6846e-12 -2.9072e-11)
(-1.5247e-09 8.2339e-11 2.0454e-10)
(-1.4766e-09 1.2801e-10 3.5272e-10)
(-1.3691e-09 1.3232e-10 3.7256e-10)
(-1.2202e-09 9.6119e-11 2.6534e-10)
(-1.0518e-09 3.3379e-11 7.4077e-11)
(-8.8769e-10 -3.4824e-11 -1.3395e-10)
(0 0 0)
(-3.686e-10 2.106e-10 1.1984e-10)
(-7.0879e-10 3.7071e-10 2.1021e-10)
(-9.9991e-10 4.3848e-10 2.4668e-10)
(-1.2312e-09 3.9371e-10 2.1746e-10)
(-1.3973e-09 2.4891e-10 1.2992e-10)
(-1.4935e-09 4.8934e-11 1.051e-11)
(-1.5168e-09 -1.4291e-10 -1.0345e-10)
(-1.4703e-09 -2.6697e-10 -1.7685e-10)
(-1.3651e-09 -2.8817e-10 -1.8927e-10)
(-1.2191e-09 -2.0774e-10 -1.4184e-10)
(-1.0537e-09 -6.1155e-11 -5.5778e-11)
(-8.9291e-10 9.6337e-11 3.6371e-11)
(0 0 0)
(-3.582e-10 1.5594e-10 7.3897e-11)
(-6.9032e-10 2.7442e-10 1.2921e-10)
(-9.7646e-10 3.2503e-10 1.509e-10)
(-1.2049e-09 2.936e-10 1.3205e-10)
(-1.369e-09 1.8948e-10 7.7493e-11)
(-1.4645e-09 4.5078e-11 3.5631e-12)
(-1.4892e-09 -9.4094e-11 -6.6959e-11)
(-1.4471e-09 -1.8504e-10 -1.1272e-10)
(-1.3488e-09 -2.0226e-10 -1.213e-10)
(-1.2113e-09 -1.462e-10 -9.3344e-11)
(-1.0555e-09 -4.1959e-11 -4.1737e-11)
(-9.0483e-10 7.074e-11 1.3638e-11)
(0 0 0)
(-3.532e-10 1.191e-10 3.6687e-11)
(-6.8138e-10 2.0965e-10 6.3987e-11)
(-9.6502e-10 2.4872e-10 7.4373e-11)
(-1.192e-09 2.2581e-10 6.444e-11)
(-1.3552e-09 1.4813e-10 3.6623e-11)
(-1.4503e-09 4.0035e-11 -9.7186e-13)
(-1.4759e-09 -6.4375e-11 -3.7051e-11)
(-1.4359e-09 -1.3292e-10 -6.1016e-11)
(-1.3409e-09 -1.4651e-10 -6.6657e-11)
(-1.2076e-09 -1.0544e-10 -5.4219e-11)
(-1.0564e-09 -2.8514e-11 -3.0043e-11)
(-9.1071e-10 5.4462e-11 -4.0327e-12)
(0 0 0)
(-3.5018e-10 8.1529e-11 -1.0223e-12)
(-6.7596e-10 1.4376e-10 -2.0368e-12)
(-9.5804e-10 1.7128e-10 -3.0363e-12)
(-1.1841e-09 1.5712e-10 -4.0317e-12)
(-1.3468e-09 1.0612e-10 -5.0658e-12)
(-1.4417e-09 3.4527e-11 -6.2135e-12)
(-1.4678e-09 -3.4957e-11 -7.5658e-12)
(-1.429e-09 -8.091e-11 -9.2153e-12)
(-1.3361e-09 -9.0638e-11 -1.1245e-11)
(-1.2052e-09 -6.4383e-11 -1.3729e-11)
(-1.0569e-09 -1.472e-11 -1.6748e-11)
(-9.1417e-10 3.8392e-11 -2.0387e-11)
(0 0 0)
(-3.4917e-10 4.3332e-11 -3.922e-11)
(-6.7415e-10 7.6849e-11 -6.8885e-11)
(-9.5571e-10 9.2726e-11 -8.1384e-11)
(-1.1814e-09 8.7405e-11 -7.3341e-11)
(-1.3439e-09 6.3266e-11 -4.7319e-11)
(-1.4388e-09 2.8383e-11 -1.1616e-11)
(-1.465e-09 -5.948e-12 2.2243e-11)
(-1.4267e-09 -2.9069e-11 4.3399e-11)
(-1.3343e-09 -3.4709e-11 4.5364e-11)
(-1.2043e-09 -2.3099e-11 2.8097e-11)
(-1.0569e-09 -6.6264e-13 -2.3203e-12)
(-9.1512e-10 2.2472e-11 -3.6148e-11)
(0 0 0)
(-3.502e-10 4.9509e-12 -7.7152e-11)
(-6.76e-10 9.6405e-12 -1.3528e-10)
(-9.5808e-10 1.385e-11 -1.5919e-10)
(-1.1841e-09 1.7416e-11 -1.4209e-10)
(-1.3467e-09 2.0204e-11 -8.9033e-11)
(-1.4417e-09 2.2079e-11 -1.6503e-11)
(-1.4677e-09 2.2917e-11 5.2555e-11)
(-1.4288e-09 2.2607e-11 9.6518e-11)
(-1.3358e-09 2.1014e-11 1.0247e-10)
(-1.2048e-09 1.7939e-11 7.0381e-11)
(-1.0564e-09 1.3132e-11 1.2452e-11)
(-9.1353e-10 6.3e-12 -5.1756e-11)
(0 0 0)
(-3.5325e-10 -3.2861e-11 -1.1439e-10)
(-6.8146e-10 -5.6586e-11 -2.0051e-10)
(-9.6508e-10 -6.386e-11 -2.3568e-10)
(-1.192e-09 -5.1448e-11 -2.0959e-10)
(-1.3552e-09 -2.1958e-11 -1.2966e-10)
(-1.4502e-09 1.63e-11 -2.0506e-11)
(-1.4757e-09 5.1826e-11 8.3515e-11)
(-1.4355e-09 7.3817e-11 1.5002e-10)
(-1.3404e-09 7.5839e-11 1.597e-10)
(-1.2068e-09 5.7854e-11 1.1255e-10)
(-1.0554e-09 2.5874e-11 2.6977e-11)
(-9.0947e-10 -1.057e-11 -6.7636e-11)
(0 0 0)
(-3.5827e-10 -7.011e-11 -1.5083e-10)
(-6.9043e-10 -1.2189e-10 -2.6452e-10)
(-9.7655e-10 -1.4052e-10 -3.109e-10)
(-1.2049e-09 -1.1925e-10 -2.76e-10)
(-1.369e-09 -6.3082e-11 -1.694e-10)
(-1.4643e-09 1.145e-11 -2.3792e-11)
(-1.4889e-09 8.1365e-11 1.1503e-10)
(-1.4465e-09 1.2511e-10 2.0388e-10)
(-1.348e-09 1.3002e-10 2.1704e-10)
(-1.2102e-09 9.6458e-11 1.546e-10)
(-1.0541e-09 3.6963e-11 4.1249e-11)
(-9.0307e-10 -2.8952e-11 -8.3743e-11)
(0 0 0)
(-3.687e-10 -1.1566e-10 -2.0494e-10)
(-7.0895e-10 -2.0211e-10 -3.5975e-10)
(-1e-09 -2.3517e-10 -4.2284e-10)
(-1.2313e-09 -2.0322e-10 -3.7422e-10)
(-1.3973e-09 -1.1382e-10 -2.2662e-10)
(-1.4933e-09 6.3808e-12 -2.5254e-11)
(-1.5163e-09 1.1985e-10 1.6627e-10)
(-1.4695e-09 1.9128e-10 2.8811e-10)
(-1.364e-09 1.9999e-10 3.0496e-10)
(-1.2176e-09 1.4678e-10 2.1768e-10)
(-1.0517e-09 5.2493e-11 6.1218e-11)
(-8.9052e-10 -5.0706e-11 -1.0963e-10)
(0 0 0)
(-3.6752e-10 1.6712e-10 1.618e-10)
(-7.0691e-10 2.9417e-10 2.8378e-10)
(-9.9756e-10 3.4807e-10 3.3304e-10)
(-1.2286e-09 3.1295e-10 2.9379e-10)
(-1.3945e-09 1.9872e-10 1.7603e-10)
(-1.4906e-09 4.084e-11 1.532e-11)
(-1.514e-09 -1.107e-10 -1.3828e-10)
(-1.4679e-09 -2.0875e-10 -2.3761e-10)
(-1.3634e-09 -2.2567e-10 -2.5502e-10)
(-1.2181e-09 -1.6259e-10 -1.915e-10)
(-1.0536e-09 -4.7712e-11 -7.5095e-11)
(-8.9378e-10 7.5248e-11 5.0638e-11)
(0 0 0)
(-3.5727e-10 1.1692e-10 1.1112e-10)
(-6.8867e-10 2.0581e-10 1.9444e-10)
(-9.7437e-10 2.4398e-10 2.2748e-10)
(-1.2025e-09 2.2096e-10 1.9988e-10)
(-1.3666e-09 1.4381e-10 1.1882e-10)
(-1.4619e-09 3.6704e-11 8.5471e-12)
(-1.4868e-09 -6.6511e-11 -9.6984e-11)
(-1.445e-09 -1.339e-10 -1.6583e-10)
(-1.3474e-09 -1.4668e-10 -1.7914e-10)
(-1.2106e-09 -1.0544e-10 -1.3738e-10)
(-1.0556e-09 -2.909e-11 -5.9286e-11)
(-9.058e-10 5.272e-11 2.5652e-11)
(0 0 0)
(-3.5223e-10 8.051e-11 7.4522e-11)
(-6.7965e-10 1.4194e-10 1.3021e-10)
(-9.628e-10 1.6901e-10 1.5197e-10)
(-1.1895e-09 1.5477e-10 1.33e-10)
(-1.3525e-09 1.0401e-10 7.8186e-11)
(-1.4476e-09 3.2873e-11 3.7846e-12)
(-1.4733e-09 -3.6064e-11 -6.7555e-11)
(-1.4337e-09 -8.1519e-11 -1.1451e-10)
(-1.3394e-09 -9.0937e-11 -1.2446e-10)
(-1.2068e-09 -6.4672e-11 -9.7621e-11)
(-1.0566e-09 -1.5327e-11 -4.642e-11)
(-9.1178e-10 3.7239e-11 9.4496e-12)
(0 0 0)
(-3.4918e-10 4.3272e-11 3.7173e-11)
(-6.7417e-10 7.6742e-11 6.4786e-11)
(-9.5574e-10 9.2596e-11 7.5231e-11)
(-1.1814e-09 8.7283e-11 6.5101e-11)
(-1.344e-09 6.3178e-11 3.6877e-11)
(-1.4389e-09 2.834e-11 -1.2835e-12)
(-1.4651e-09 -5.9513e-12 -3.8026e-11)
(-1.4268e-09 -2.9052e-11 -6.2659e-11)
(-1.3345e-09 -3.4701e-11 -6.8846e-11)
(-1.2044e-09 -2.3143e-11 -5.6684e-11)
(-1.057e-09 -8.0414e-13 -3.2424e-11)
(-9.1533e-10 2.2198e-11 -6.0137e-12)
(0 0 0)
(-3.4817e-10 5.1356e-12 -1.0091e-12)
(-6.7234e-10 1.002e-11 -2.0243e-12)
(-9.5337e-10 1.4438e-11 -3.0511e-12)
(-1.1787e-09 1.8222e-11 -4.1061e-12)
(-1.341e-09 2.1228e-11 -5.2301e-12)
(-1.4359e-09 2.33e-11 -6.4905e-12)
(-1.4623e-09 2.4289e-11 -7.9672e-12)
(-1.4244e-09 2.4069e-11 -9.7378e-12)
(-1.3327e-09 2.2487e-11 -1.187e-11)
(-1.2035e-09 1.933e-11 -1.4427e-11)
(-1.057e-09 1.4339e-11 -1.749e-11)
(-9.1631e-10 7.2244e-12 -2.1172e-11)
(0 0 0)
(-3.4921e-10 -3.3005e-11 -3.9112e-11)
(-6.7421e-10 -5.6712e-11 -6.868e-11)
(-9.5577e-10 -6.3735e-11 -8.1107e-11)
(-1.1815e-09 -5.0855e-11 -7.3026e-11)
(-1.3439e-09 -2.0738e-11 -4.7e-11)
(-1.4388e-09 1.8241e-11 -1.1324e-11)
(-1.465e-09 5.4504e-11 2.2484e-11)
(-1.4266e-09 7.7152e-11 4.3575e-11)
(-1.3342e-09 7.9618e-11 4.5472e-11)
(-1.204e-09 6.1717e-11 2.814e-11)
(-1.0565e-09 2.9354e-11 -2.3398e-12)
(-9.1469e-10 -7.9336e-12 -3.6246e-11)
(0 0 0)
(-3.5229e-10 -7.0256e-11 -7.6204e-11)
(-6.7973e-10 -1.2194e-10 -1.336e-10)
(-9.6286e-10 -1.4019e-10 -1.5713e-10)
(-1.1895e-09 -1.1838e-10 -1.4004e-10)
(-1.3525e-09 -6.1612e-11 -8.7301e-11)
(-1.4475e-09 1.3659e-11 -1.5311e-11)
(-1.4731e-09 8.4549e-11 5.312e-11)
(-1.4333e-09 1.2952e-10 9.6514e-11)
(-1.3388e-09 1.357e-10 1.021e-10)
(-1.206e-09 1.0301e-10 6.9938e-11)
(-1.0556e-09 4.3516e-11 1.2272e-11)
(-9.1056e-10 -2.3494e-11 -5.1446e-11)
(0 0 0)
(-3.5735e-10 -1.0665e-10 -1.1238e-10)
(-6.8878e-10 -1.8577e-10 -1.9702e-10)
(-9.7446e-10 -2.1513e-10 -2.3148e-10)
(-1.2026e-09 -1.8457e-10 -2.0546e-10)
(-1.3665e-09 -1.0145e-10 -1.2624e-10)
(-1.4617e-09 9.7454e-12 -1.8234e-11)
(-1.4865e-09 1.1484e-10 8.446e-11)
(-1.4445e-09 1.8167e-10 1.4973e-10)
(-1.3465e-09 1.9112e-10 1.5857e-10)
(-1.2095e-09 1.4334e-10 1.1125e-10)
(-1.0542e-09 5.6682e-11 2.6295e-11)
(-9.0405e-10 -3.9787e-11 -6.706e-11)
(0 0 0)
(-3.6763e-10 -1.5679e-10 -1.6206e-10)
(-7.0707e-10 -2.7408e-10 -2.8437e-10)
(-9.9769e-10 -3.192e-10 -3.3411e-10)
(-1.2286e-09 -2.7661e-10 -2.956e-10)
(-1.3944e-09 -1.5651e-10 -1.7898e-10)
(-1.4903e-09 5.3096e-12 -1.9971e-11)
(-1.5135e-09 1.5856e-10 1.3115e-10)
(-1.4671e-09 2.5585e-10 2.2706e-10)
(-1.3623e-09 2.6923e-10 2.3987e-10)
(-1.2166e-09 1.9936e-10 1.7035e-10)
(-1.0517e-09 7.3839e-11 4.6264e-11)
(-8.9139e-10 -6.4226e-11 -8.9095e-11)
(0 0 0)
(-3.6866e-10 1.2429e-10 2.0411e-10)
(-7.089e-10 2.1888e-10 3.5801e-10)
(-1e-09 2.5921e-10 4.2008e-10)
(-1.2313e-09 2.3343e-10 3.7026e-10)
(-1.3975e-09 1.4886e-10 2.2117e-10)
(-1.4937e-09 3.1879e-11 1.779e-11)
(-1.5169e-09 -8.0301e-11 -1.7653e-10)
(-1.4703e-09 -1.5261e-10 -3.0216e-10)
(-1.3651e-09 -1.6466e-10 -3.2403e-10)
(-1.2189e-09 -1.1768e-10 -2.4322e-10)
(-1.0535e-09 -3.3037e-11 -9.4948e-11)
(-8.9262e-10 5.662e-11 6.5696e-11)
(0 0 0)
(-3.5826e-10 7.8954e-11 1.4918e-10)
(-6.9042e-10 1.3909e-10 2.6117e-10)
(-9.7658e-10 1.6522e-10 3.0578e-10)
(-1.205e-09 1.5031e-10 2.6898e-10)
(-1.3692e-09 9.914e-11 1.6026e-10)
(-1.4646e-09 2.7938e-11 1.2156e-11)
(-1.4893e-09 -4.0594e-11 -1.2976e-10)
(-1.4471e-09 -8.5138e-11 -2.2246e-10)
(-1.3488e-09 -9.3331e-11 -2.4041e-10)
(-1.2112e-09 -6.5933e-11 -1.8388e-10)
(-1.0553e-09 -1.5976e-11 -7.778e-11)
(-9.0457e-10 3.6506e-11 3.8345e-11)
(0 0 0)
(-3.5325e-10 4.2172e-11 1.1248e-10)
(-6.8147e-10 7.4723e-11 1.9667e-10)
(-9.6512e-10 8.9947e-11 2.2985e-10)
(-1.1921e-09 8.4316e-11 2.0169e-10)
(-1.3553e-09 6.0181e-11 1.1951e-10)
(-1.4504e-09 2.5554e-11 7.783e-12)
(-1.4759e-09 -8.3508e-12 -9.9312e-11)
(-1.4359e-09 -3.0976e-11 -1.6956e-10)
(-1.3409e-09 -3.6181e-11 -1.838e-10)
(-1.2075e-09 -2.4338e-11 -1.4217e-10)
(-1.0563e-09 -1.9465e-12 -6.3291e-11)
(-9.1047e-10 2.0926e-11 2.3208e-11)
(0 0 0)
(-3.5023e-10 4.8467e-12 7.5084e-11)
(-6.7604e-10 9.4613e-12 1.3112e-10)
(-9.5814e-10 1.3651e-11 1.5292e-10)
(-1.1842e-09 1.7265e-11 1.3365e-10)
(-1.3468e-09 2.0166e-11 7.8283e-11)
(-1.4418e-09 2.2191e-11 3.1645e-12)
(-1.4678e-09 2.3175e-11 -6.8926e-11)
(-1.429e-09 2.2982e-11 -1.1652e-10)
(-1.336e-09 2.1449e-11 -1.2684e-10)
(-1.2051e-09 1.8361e-11 -9.9982e-11)
(-1.0567e-09 1.3471e-11 -4.8327e-11)
(-9.1394e-10 6.5118e-12 8.3294e-12)
(0 0 0)
(-3.4922e-10 -3.3013e-11 3.7124e-11)
(-6.7423e-10 -5.6721e-11 6.4683e-11)
(-9.558e-10 -6.3729e-11 7.5062e-11)
(-1.1815e-09 -5.0816e-11 6.4855e-11)
(-1.344e-09 -2.0645e-11 3.6548e-11)
(-1.4389e-09 1.8405e-11 -1.6961e-12)
(-1.465e-09 5.4744e-11 -3.851e-11)
(-1.4267e-09 7.7468e-11 -6.3189e-11)
(-1.3343e-09 8.0004e-11 -6.9374e-11)
(-1.2042e-09 6.216e-11 -5.7146e-11)
(-1.0567e-09 2.9837e-11 -3.2747e-11)
(-9.149e-10 -7.4174e-12 -6.1372e-12)
(0 0 0)
(-3.5026e-10 -7.0697e-11 -9.7619e-13)
(-6.7608e-10 -1.2262e-10 -1.959e-12)
(-9.5817e-10 -1.4082e-10 -2.9559e-12)
(-1.1842e-09 -1.1865e-10 -3.9848e-12)
(-1.3468e-09 -6.1279e-11 -5.0872e-12)
(-1.4417e-09 1.4741e-11 -6.329e-12)
(-1.4677e-09 8.6405e-11 -7.7876e-12)
(-1.4288e-09 1.3204e-10 -9.5346e-12)
(-1.3357e-09 1.3865e-10 -1.1627e-11)
(-1.2047e-09 1.0603e-10 -1.4115e-11)
(-1.0562e-09 4.6207e-11 -1.7068e-11)
(-9.1331e-10 -2.1464e-11 -2.06e-11)
(0 0 0)
(-3.5331e-10 -1.0779e-10 -3.8393e-11)
(-6.8155e-10 -1.8757e-10 -6.7404e-11)
(-9.6518e-10 -2.1688e-10 -7.9524e-11)
(-1.1921e-09 -1.8558e-10 -7.1387e-11)
(-1.3552e-09 -1.012e-10 -4.5521e-11)
(-1.4503e-09 1.1565e-11 -1.0172e-11)
(-1.4757e-09 1.1831e-10 2.3205e-11)
(-1.4355e-09 1.8659e-10 4.3848e-11)
(-1.3403e-09 1.9701e-10 4.5403e-11)
(-1.2067e-09 1.4941e-10 2.7973e-11)
(-1.0553e-09 6.1981e-11 -2.2642e-12)
(-9.0925e-10 -3.6072e-11 -3.5604e-11)
(0 0 0)
(-3.5834e-10 -1.4409e-10 -7.5124e-11)
(-6.9053e-10 -2.513e-10 -1.317e-10)
(-9.7666e-10 -2.9171e-10 -1.5474e-10)
(-1.205e-09 -2.515e-10 -1.3739e-10)
(-1.369e-09 -1.4038e-10 -8.4598e-11)
(-1.4643e-09 8.893e-12 -1.2808e-11)
(-1.4889e-09 1.505e-10 5.5059e-11)
(-1.4465e-09 2.412e-10 9.7512e-11)
(-1.348e-09 2.552e-10 1.0198e-10)
(-1.2101e-09 1.9241e-10 6.8952e-11)
(-1.0539e-09 7.7333e-11 1.1102e-11)
(-9.0285e-10 -5.0977e-11 -5.1907e-11)
(0 0 0)
(-3.6878e-10 -1.9845e-10 -1.2002e-10)
(-7.0906e-10 -3.4705e-10 -2.1064e-10)
(-1.0002e-09 -4.0446e-10 -2.4752e-10)
(-1.2313e-09 -3.5087e-10 -2.1899e-10)
(-1.3973e-09 -1.9912e-10 -1.3256e-10)
(-1.4933e-09 5.5779e-12 -1.4808e-11)
(-1.5163e-09 1.9961e-10 9.681e-11)
(-1.4695e-09 3.2313e-10 1.6706e-10)
(-1.364e-09 3.4079e-10 1.7534e-10)
(-1.2175e-09 2.5326e-10 1.2255e-10)
(-1.0516e-09 9.5308e-11 2.9661e-11)
(-8.9029e-10 -7.8513e-11 -7.1039e-11)
(0 0 0)
(-3.72e-10 8.1319e-11 2.4757e-10)
(-7.1472e-10 1.4343e-10 4.3433e-10)
(-1.0072e-09 1.7035e-10 5.0945e-10)
(-1.2393e-09 1.5423e-10 4.4817e-10)
(-1.406e-09 9.9708e-11 2.6576e-10)
(-1.5025e-09 2.3992e-11 1.7343e-11)
(-1.5253e-09 -4.8546e-11 -2.1948e-10)
(-1.4774e-09 -9.5001e-11 -3.7183e-10)
(-1.3701e-09 -1.0226e-10 -3.9699e-10)
(-1.2214e-09 -7.1564e-11 -2.9644e-10)
(-1.0532e-09 -1.7305e-11 -1.135e-10)
(-8.8949e-10 3.901e-11 8.4276e-11)
(0 0 0)
(-3.6116e-10 4.0828e-11 1.8972e-10)
(-6.9554e-10 7.2208e-11 3.3227e-10)
(-9.83e-10 8.6488e-11 3.8909e-10)
(-1.2121e-09 8.011e-11 3.4199e-10)
(-1.3767e-09 5.5432e-11 2.0294e-10)
(-1.4723e-09 2.0569e-11 1.3528e-11)
(-1.4966e-09 -1.3126e-11 -1.6777e-10)
(-1.4532e-09 -3.5049e-11 -2.8576e-10)
(-1.353e-09 -3.921e-11 -3.0762e-10)
(-1.2132e-09 -2.6311e-11 -2.3366e-10)
(-1.0548e-09 -3.1996e-12 -9.5851e-11)
(-9.0125e-10 1.9924e-11 5.4943e-11)
(0 0 0)
(-3.5624e-10 4.1494e-12 1.5091e-10)
(-6.8679e-10 8.0918e-12 2.6404e-10)
(-9.719e-10 1.1672e-11 3.0882e-10)
(-1.1997e-09 1.478e-11 2.7116e-10)
(-1.3634e-09 1.73e-11 1.6078e-10)
(-1.4587e-09 1.9069e-11 1.0632e-11)
(-1.4837e-09 1.9918e-11 -1.3317e-10)
(-1.4423e-09 1.97e-11 -2.2711e-10)
(-1.3454e-09 1.8248e-11 -2.4526e-10)
(-1.2095e-09 1.5363e-11 -1.878e-10)
(-1.0556e-09 1.0824e-11 -7.9839e-11)
(-9.0682e-10 4.4132e-12 3.859e-11)
(0 0 0)
(-3.5328e-10 -3.2915e-11 1.1233e-10)
(-6.8152e-10 -5.6666e-11 1.9635e-10)
(-9.6517e-10 -6.3911e-11 2.2936e-10)
(-1.1921e-09 -5.1397e-11 2.0102e-10)
(-1.3553e-09 -2.1731e-11 1.1866e-10)
(-1.4504e-09 1.6755e-11 6.7879e-12)
(-1.4759e-09 5.2524e-11 -1.0042e-10)
(-1.4358e-09 7.4749e-11 -1.707e-10)
(-1.3407e-09 7.6968e-11 -1.8487e-10)
(-1.2072e-09 5.9127e-11 -1.4306e-10)
(-1.056e-09 2.7237e-11 -6.3832e-11)
(-9.1008e-10 -9.1404e-12 2.3139e-11)
(0 0 0)
(-3.5231e-10 -7.0187e-11 7.4293e-11)
(-6.7977e-10 -1.218e-10 1.2974e-10)
(-9.6293e-10 -1.3998e-10 1.5124e-10)
(-1.1896e-09 -1.1809e-10 1.32e-10)
(-1.3526e-09 -6.1216e-11 7.693e-11)
(-1.4476e-09 1.4182e-11 2.2964e-12)
(-1.4732e-09 8.5225e-11 -6.9219e-11)
(-1.4335e-09 1.3038e-10 -1.1626e-10)
(-1.339e-09 1.3678e-10 -1.2614e-10)
(-1.2063e-09 1.0431e-10 -9.9039e-11)
(-1.0559e-09 4.5061e-11 -4.7364e-11)
(-9.1096e-10 -2.1701e-11 9.1736e-12)
(0 0 0)
(-3.5332e-10 -1.0773e-10 3.6534e-11)
(-6.8157e-10 -1.8746e-10 6.3666e-11)
(-9.6522e-10 -2.1671e-10 7.3866e-11)
(-1.1921e-09 -1.8536e-10 6.3727e-11)
(-1.3553e-09 -1.0092e-10 3.57e-11)
(-1.4503e-09 1.192e-11 -2.0951e-12)
(-1.4758e-09 1.1876e-10 -3.8342e-11)
(-1.4356e-09 1.8716e-10 -6.2408e-11)
(-1.3404e-09 1.9773e-10 -6.8035e-11)
(-1.2068e-09 1.503e-10 -5.5416e-11)
(-1.0555e-09 6.3055e-11 -3.0864e-11)
(-9.0944e-10 -3.48e-11 -4.3119e-12)
(0 0 0)
(-3.5631e-10 -1.4582e-10 -9.1207e-13)
(-6.8689e-10 -2.5417e-10 -1.8222e-12)
(-9.7198e-10 -2.9476e-10 -2.7326e-12)
(-1.1997e-09 -2.5372e-10 -3.6607e-12)
(-1.3633e-09 -1.4095e-10 -4.6487e-12)
(-1.4585e-09 1.0381e-11 -5.7634e-12)
(-1.4834e-09 1.5392e-10 -7.083e-12)
(-1.442e-09 2.4596e-10 -8.6774e-12)
(-1.3448e-09 2.6036e-10 -1.0597e-11)
(-1.2088e-09 1.9696e-10 -1.2879e-11)
(-1.0546e-09 8.0433e-11 -1.5578e-11)
(-9.0561e-10 -4.9672e-11 -1.8787e-11)
(0 0 0)
(-3.6125e-10 -1.8413e-10 -3.7779e-11)
(-6.9566e-10 -3.2145e-10 -6.633e-11)
(-9.8309e-10 -3.7368e-10 -7.816e-11)
(-1.2121e-09 -3.2287e-10 -6.9831e-11)
(-1.3766e-09 -1.8117e-10 -4.3847e-11)
(-1.472e-09 9.5679e-12 -8.538e-12)
(-1.4962e-09 1.9065e-10 2.4516e-11)
(-1.4526e-09 3.0667e-10 4.4524e-11)
(-1.3522e-09 3.2457e-10 4.5291e-11)
(-1.2121e-09 2.4431e-10 2.7275e-11)
(-1.0534e-09 9.7376e-11 -2.9567e-12)
(-8.9954e-10 -6.5904e-11 -3.5506e-11)
(0 0 0)
(-3.7213e-10 -2.4154e-10 -7.7897e-11)
(-7.149e-10 -4.2268e-10 -1.3685e-10)
(-1.0074e-09 -4.9293e-10 -1.6105e-10)
(-1.2392e-09 -4.2773e-10 -1.4279e-10)
(-1.4058e-09 -2.4253e-10 -8.684e-11)
(-1.5021e-09 7.2561e-12 -1.0614e-11)
(-1.5247e-09 2.4378e-10 6.1327e-11)
(-1.4766e-09 3.9395e-10 1.0592e-10)
(-1.3691e-09 4.148e-10 1.0984e-10)
(-1.2201e-09 3.0743e-10 7.4056e-11)
(-1.0514e-09 1.1461e-10 1.2638e-11)
(-8.8725e-10 -9.6693e-11 -5.3224e-11)
(0 0 0)
(-3.7751e-10 3.851e-11 2.923e-10)
(-7.2424e-10 6.8295e-11 5.1299e-10)
(-1.0188e-09 8.2019e-11 6.0147e-10)
(-1.2519e-09 7.5975e-11 5.2773e-10)
(-1.4195e-09 5.2169e-11 3.0988e-10)
(-1.5166e-09 1.8427e-11 1.4087e-11)
(-1.5389e-09 -1.4095e-11 -2.6668e-10)
(-1.4888e-09 -3.4929e-11 -4.4554e-10)
(-1.3783e-09 -3.8209e-11 -4.7198e-10)
(-1.2256e-09 -2.4793e-11 -3.4853e-10)
(-1.053e-09 -1.5972e-12 -1.2769e-10)
(-8.8452e-10 2.1339e-11 1.0924e-10)
(0 0 0)
(-3.6597e-10 3.3303e-12 2.3387e-10)
(-7.0397e-10 6.4635e-12 4.0985e-10)
(-9.9349e-10 9.283e-12 4.7999e-10)
(-1.2237e-09 1.1729e-11 4.2124e-10)
(-1.389e-09 1.3724e-11 2.482e-10)
(-1.4848e-09 1.5125e-11 1.2748e-11)
(-1.5084e-09 1.5769e-11 -2.1202e-10)
(-1.4631e-09 1.551e-11 -3.5715e-10)
(-1.3601e-09 1.4194e-11 -3.8175e-10)
(-1.2166e-09 1.1641e-11 -2.8652e-10)
(-1.0541e-09 7.6699e-12 -1.1181e-10)
(-8.9607e-10 2.1076e-12 7.8374e-11)
(0 0 0)
(-3.6117e-10 -3.3235e-11 1.8958e-10)