/*--------------------------------*- C++ -*----------------------------------*\
  =========                 |
  \\      /  F ield         | OpenFOAM: The Open Source CFD Toolbox
   \\    /   O peration     | Website:  https://openfoam.org
    \\  /    A nd           | Version:  8
     \\/     M anipulation  |
\*---------------------------------------------------------------------------*/
FoamFile
{
    version     2.0;
    format      ascii;
    class       volScalarField;
    location    "0.0090000";
    object      p;
}
// * * * * * * * * * * * * * * * * * * * * * * * * * * * * * * * * * * * * * //

dimensions      [0 2 -2 0 0 0 0];

internalField   nonuniform List<scalar> 
900
(
1150683.15246433
3490007.1232831
5922312.62938173
8397918.42623342
10931413.0577144
13524367.6948635
16179056.8222575
18897703.3413684
21682548.8835728
24535609.9575652
27458916.5778619
30455211.2309823
33527561.8656713
36678530.1047755
39911124.2644777
43228630.9906934
46633937.524829
50130526.0642299
53722303.0459639
57413092.6388712
61206555.5891799
65107205.6646811
69119842.7157216
73248536.3239693
77498233.4165577
81874559.0547188
86382954.7301401
91029603.413302
95820702.3963803
100762357.943913
105861630.312423
111126310.95692
116564322.425209
122183736.517695
127993745.18612
134004113.348048
140224427.30992
146665443.502477
153339142.696119
160258064.496057
167435161.711354
174884190.048852
182620320.141214
190659754.980488
199020607.293721
207721795.452388
216782090.241399
226223369.981033
236069741.108999
246346150.17296
257078903.700366
268297933.217065
280036011.969574
292325121.781091
305203372.907968
318712625.868367
332893579.987768
347794607.84735
363468709.38627
379969798.740254
397358088.924174
415701029.487994
435071252.122191
455542780.707829
477201818.443237
500143215.163775
524457956.276939
550254979.994938
577648370.109855
606761738.069878
637708344.638438
670646984.059015
705667177.378068
742967476.31867
782523527.274151
824688022.787376
869016446.827201
916333959.832838
964861760.363696
1016920401.42986
1066629641.75101
1121263313.90008
1161305084.23384
1210333758.95326
1203348311.53339
1214558394.66179
1008844025.58971
938037472.964356
787964797.146998
695833353.431161
575937058.014868
484610069.257394
387538871.553161
307869690.024179
231909937.136135
169607948.008524
114784174.275605
70761893.6970189
35301016.00097
8618467.05519727
1175578.76957598
3508159.5710912
5944197.67622174
8421712.83556891
10956322.7003282
13549893.4854362
16205000.2633148
18923901.1553761
21708863.6545574
24562023.4209677
27485532.0816799
30482067.4962828
33554576.8091024
36705727.1732049
39938508.0492747
43256127.5325495
46661620.0096619
50158438.0749516
53750400.8880748
57441333.7526761
61235018.8869945
65135879.2371235
69148599.5038942
73277455.218368
77527386.7636015
81903898.3490796
86412506.5288641
91059306.128232
95850492.3560724
100792294.266978
105891775.46797
111156621.661784
116594724.381968
122214303.909727
128024459.861354
134034846.008005
140255250.698057
146696416.602478
153370198.201934
160289107.608823
167466178.753529
174915215.66953
182651284.478352
190690761.249651
199051550.270504
207752394.394511
216812516.521855
226253659.966878
236099708.483099
246375638.493687
257108053.612971
268326704.103506
280063857.979105
292352400.996484
305230032.820686
318737951.428288
332917957.398218
347817949.552708
363490398.400956
379989806.727788
397376472.671954
415717478.907337
435084906.278241
455554071.125518
477210483.490123
500147882.067122
524459038.85479
550252318.376603
577640684.972332
606748805.286933
637690050.514532
670622344.033435
705634609.195966
742927743.348142
782474996.903343
824629990.23735
868948906.2996
916253608.933304
964769398.076067
1016817554.10593
1066515141.87666
1121124316.4197
1161175223.60876
1210190378.82623
1203234652.28971
1214472288.38628
1009077583.38128
938253320.871232
788164763.300418
696008148.8399
576104777.673571
484748504.655711
387671824.810386
307979736.354714
231994649.296489
169687410.392774
114847583.662211
70808799.8210865
35334951.0269358
8614563.44011275
1174037.41212223
3514920.25632476
5958367.0484731
8437441.62326823
10972935.0328328
13567015.8956043
16222451.9523795
18941542.2751355
21726578.352726
24579781.0475061
27503414.2521572
30500107.7396723
33572711.8424708
36723962.4454698
39956840.7106424
43274512.2584406
46680101.8006948
50177054.8505492
53769117.2463318
57460115.7714278
61253921.7362825
65154887.7227526
69167617.1567459
73296533.2233486
77546584.1077662
81923192.0496746
86431899.3810327
91078737.0134808
95869908.3173293
100811752.47231
105911313.395597
111176195.880415
116614296.847753
122233903.087534
128044059.048096
134054368.171645
140274724.071865
146715884.07816
153389616.605272
160308390.472872
167485280.817608
174934153.676541
182670072.355161
190709404.200034
199069926.763197
207770357.760711
216830128.921487
226270933.354168
236116508.100626
246391865.194499
257123733.620846
268341740.665156
280078014.097221
292365738.289161
305242451.672191
318749142.101252
332927950.832591
347826634.930717
363497449.308153
379995101.134803
397379931.26563
415718798.438883
435083703.116118
455550286.68905
477203787.013766
500137691.311943
524445205.437503
550234582.04863
577618417.231342
606721651.273265
637657581.663088
670584001.910911
705589578.255938
742875960.459152
782415442.478238
824562917.219614
868872527.646198
916169453.137925
964674583.384162
1016717153.99283
1066402302.86695
1121013663.86584
1161054030.81547
1210094135.47604
1203149006.63771
1214561620.6691
1009306112.31246
938480634.937069
788381535.055995
696202834.533745
576277336.127529
484903211.929942
387801929.877854
308092476.894609
232092629.416633
169763569.428859
114908971.582832
70859614.6653745
35375055.1278804
8652254.49746931
1168218.05469318
3514356.3101425
5958215.58136337
8437294.70476222
10972849.8611972
13567041.9649883
16222550.3189297
18941640.0516956
21726599.4809276
24579695.935613
27503262.8488302
30499904.7737821
33572416.9723219
36723572.4054341
39956347.4215734
43273887.2948342
46679365.3422412
50176225.4902278
53768169.550363
57459024.4159984
61252712.6606903
65153544.6069193
69166076.9606888
73294820.1004493
77544727.8810456
81921174.9345556
86429713.1888851
91076334.2471652
95867247.9639707
100808864.728862
105908211.151437
111172842.106663
116610663.220215
122229992.019508
128039841.211206
134049789.90589
140269787.326311
146710604.442883
153383955.950873
160302279.139012
167478671.110369
174927040.396956
182662464.533152
190701275.360157
199061174.788054
207760885.815712
216819946.865513
226260029.340176
236104776.09208
246379226.171762
257110171.405584
268327155.454986
280062264.248191
292348804.066224
305224231.981662
318729452.184592
332906740.820512
347803801.350583
363472772.446086
379968458.85663
397351232.638289
415687800.410241
435050171.582329
455514109.941716
477164705.400962
500095366.474455
524399474.266184
550185263.528449
577565138.967975
606664194.169723
637595676.530824
670517386.403721
705517836.775041
742799251.952248
782333252.652544
824476086.972249
868779847.34463
916073682.950487
964573495.170104
1016618194.92338
1066299174.77044
1120927573.57727
1160970168.70078
1210067042.74579
1203156679.53435
1214799403.83414
1009516346.65894
938688202.789468
788580727.931873
696377583.436464
576433203.299093
485039147.078274
387916844.534023
308189680.150568
232174337.065569
169827173.643336
114958914.332391
70899067.8467166
35407050.4018614
8672287.77642717
1169019.19616303
3512054.00887242
5945800.92635918
8422890.40884233
10957690.7140576
13551614.1819304
16206954.4493903
18925855.0136035
21710573.1533746
24563400.7629414
27486713.1469418
30483101.6984864
33555330.3502021
36706194.6923106
39938667.1719607
43255880.5198732
46661038.3901369
50157582.7319354
53749188.7022449
57439682.5472241
61233018.0784063
65133479.252005
69145593.3801855
73273926.0434086
77523432.7029941
81899457.0664279
86407558.9860892
91053704.1747555
95844105.4382644
100785217.918565
105884057.330393
111148146.218135
116585393.866845
122204139.2904
128013373.218533
134022656.799174
140241977.484811
146682112.948208
153354740.910905
160272279.31027
167447840.396184
174895357.605407
182629913.417638
190667822.111052
199026733.362045
207725367.73761
216783340.755772
226222305.156344
236065837.697455
246338995.540639
257068617.436723
268284186.483459
280017749.289374
292302714.500309
305176472.689669
318679857.758565
332855263.723264
347750343.845622
363417148.712869
379910564.976553
397290987.318286
415625014.527467
434984652.100028
455445786.827986
477093394.626422
500020810.569542
524321600.509838
550103974.294434
577480200.018772
606575534.981804
637503233.775139
670421108.840717
705417623.647131
742695551.989089
782226061.214435
824366551.936292
868667868.472903
915962264.408887
964462289.270245
1016515440.38659
1066201922.43108
1120858043.94766
1160920898.07631
1210099814.7873
1203257669.41845
1215176129.24027
1009724373.34972
938880136.650635
788772718.815844
696537627.925382
576579420.130607
485161224.226137
388021382.010481
308274850.206199
232243430.583323
169880330.831075
114999187.227285
70928769.94975
35430255.6629306
8682271.72533504
1159973.36224571
3501174.5141594
5920855.2405665
8394985.15649423
10928591.4331992
13522014.6561004
16177006.6422023
18895552.8191815
21679872.2306547
24532272.0232153
27455154.7432903
30451105.5882515
33522870.4923079
36673259.6396424
39905242.6071516
43221943.5956847
46626585.2998895
50122607.5742187
53713669.1468106
57403595.3517753
61196359.4640617
65096228.8600022
69107711.5590137
73235407.9954972
77484272.9665575
81859629.7419709
86367045.055836
91012467.7119054
95802111.2057368
100742457.934038
105840516.189262
111103787.772488
116540183.020373
122158055.821696
127966381.795159
133974708.611325
140193049.002423
146632182.838579
153303763.390478
160220197.374954
167394606.557712
174840937.484931
182574271.530988
190610916.069644
198968487.16342
207665699.6306
216722221.041143
226159687.733335
236001633.430415
246273126.636552
257001037.818983
268214810.018344
279946457.214631
292229465.269498
305101175.02779
318602368.867708
332775531.048369
347668273.103553
363332589.175061
379823426.698175
397201192.782311
415532422.371882
434889117.985864
455347263.292943
476991762.443985
499915908.659315
524213420.112665
549992487.090241
577365322.735882
606457323.49487
637381802.361594
670296607.744787
705290292.396282
742566036.57796
782094904.55101
824235147.58615
868537188.102885
915835584.04777
964341162.774879
1016408439.98837
1066109847.42018
1120804320.41775
1160904153.06686
1210188979.87293
1203447735.61312
1215692793.94127
1009936595.18988
939059524.898401
788963068.595751
696687400.661595
576719379.047729
485273356.125549
388117527.888584
308350145.458821
232303079.282333
169924158.974995
115030882.991226
70950257.7106629
35445645.6845982
8688337.87787614
1137866.70226011
3476208.86232889
5880831.85601599
8352022.27857676
10884539.9149504
13477424.6405769
16131938.6433585
18849963.1199111
21633706.794406
24485495.8452936
27407752.9865116
30403062.4166937
33474161.244433
36623868.8216921
39855152.8547893
43171131.7015526
46575038.0104185
50070309.5988063
53660596.2439999
57349722.3802346
61141672.1758585
65040703.7788614
69051313.4360285
73178120.2588674
77426076.5007648
81800493.480553
86306943.7939574
90951366.8092874
95739975.2136696
100679264.468656
105776236.757631
111038382.882728
116473613.614322
122090290.619192
127897380.679574
133904422.948448
140121442.283531
146559217.355317
153229388.87392
160144359.020079
167317253.023731
174762020.836681
182493739.493581
190528713.98322
198884545.818917
207579945.691017
216634604.456052
226070144.984957
235910081.31861
246179487.79996
256905247.87295
268116785.444997
279846097.525321
292126708.288771
304995930.807494
318494525.810888
332665022.462487
347555006.501515
363216455.004926
379704346.710774
397079089.502245
415407201.868952
434760697.329836
455215606.563707
476856814.541779
499777627.061682
524071850.084837
549847670.843906
577217350.26705
606306381.820399
637228186.74906
670140692.885109
705132697.859617
742407606.590787
781936779.874616
824079026.477548
868385134.131333
915691331.912838
964208187.166376
1016295889.86481
1066022302.77368
1120767512.37531
1160921892.40925
1210340152.6051
1203735360.79106
1216369001.03949
1010157028.80036
939228306.982664
789154688.479578
696828904.22555
576854757.768499
485376885.150316
388206060.105613
308416098.027016
232353806.091027
169958658.315019
115053896.865996
70963416.9059541
35453146.8770611
8690822.79749453
1096439.02002807
3426728.53581774
5819427.16916678
8289116.52286612
10821274.4869295
13413765.1601049
16067693.4201887
18784997.8383601
21567943.115146
24418889.9762517
27340278.1170016
30334694.7005169
33404875.3540836
36553644.5817552
39783968.935329
43098962.8336445
46501860.8033786
49996098.3281681
53585322.5978915
57273357.4721238
61064190.730921
64962077.4030201
68971508.6690798
73097107.8331462
77343822.0958886
81716958.4524027
86222094.7575588
90865167.9110821
95652388.7123753
100590252.197052
105685754.504795
110946384.582651
116380053.895946
121995124.56068
127800560.26268
133805896.933224
140021158.188279
146457117.643822
153125415.163876
160038455.125649
167209360.126426
174652073.681936
182381665.269692
190414440.259197
198768005.138394
207461070.285531
216513318.751554
225946361.885604
235783718.221616
246050463.096731
256773472.048908
267982170.254624
279708557.637821
291986152.236796
304852261.429219
318347659.796689
332514869.30711
347401466.465075
363059454.917532
379543812.216831
396914933.420593
415239369.375292
434589163.983109
455040337.765978
476677809.46146
499594965.23379
523885620.596451
549657985.538752
577024467.269112
606110638.393977
637030036.343638
669940796.002932
704932003.098138
742207318.889523
781738466.884353
823885129.553519
868198313.700008
915516899.237937
964050219.15042
1016166867.41649
1065927210.42108
1120741180.13367
1160965137.01883
1210558136.86188
1204121608.67291
1217244571.7935
1010387747.84735
939399055.258288
789353418.74046
696970412.457581
576990511.297176
485476986.890378
388290351.418088
308475650.218069
232397290.483954
169985119.790131
115068819.419493
70968439.4676468
35452697.7390633
8689141.77388974
1036052.8327651
3356686.32484105
5741999.29665062
8211862.57522209
10744215.3822858
13336409.7137003
15989694.9660619
18706173.7270875
21488207.6061352
24338198.0635378
27258596.954325
30251995.7831495
33321133.6169688
36468836.5480913
39698070.4523789
43011947.9073618
46413699.448803
49906758.0309438
53494772.5085832
57181566.8019592
60971126.4326914
64867707.2464794
68875801.3837113
73000025.5903075
77245320.5980234
81616994.9358251
86120629.3888582
90762163.5404636
95547806.4705039
100484043.1263
105577864.028764
110836762.277304
116268650.233185
121881884.553209
127685429.600924
133688822.858344
139902077.07509
146335958.050833
153002112.250262
159912950.052544
167081587.875087
174521956.483905
182249116.314775
190279372.851719
198630349.032678
207320759.905769
216370257.957733
225800445.043781
235634859.638457
245898574.575377
256618442.120008
267823899.282317
279546967.428035
291821122.193639
304683678.86399
318175454.610227
332338921.019033
347221657.343428
362875722.490367
379356066.752246
396723062.976893
415043319.225658
434388924.856132
454835845.459511
476469056.403799
499382079.836719
523668661.018766
549437071.334709
576799873.792323
605882772.772286
636799277.852791
669708021.565948
704698002.175166
741973770.028298
781506359.852019
823658217.282158
867977594.544519
915311043.152527
963858878.373379
1016010646.1359
1065800094.45979
1120698038.66412
1160979636.10992
1210782951.41189
1204490095.82288
1218199098.2138
1010594394.65459
939584376.969362
789544692.433799
697116560.677894
577121978.111519
485576918.53121
388370790.497635
308532655.107969
232436583.748523
170008001.505681
115079729.655163
70969737.8862174
35448480.5774111
8686098.89144027
)
;

boundaryField
{
    dieWall
    {
        type            zeroGradient;
    }
    outlet
    {
        type            fixedValue;
        value           uniform 0;
    }
    Wire
    {
        type            zeroGradient;
    }
    inlet
    {
        type            fixedValue;
        value           uniform 0;
    }
    back
    {
        type            wedge;
    }
    front
    {
        type            wedge;
    }
}


// ************************************************************************* //
