/*--------------------------------*- C++ -*----------------------------------*\
| =========                 |                                                 |
| \\      /  F ield         | OpenFOAM: The Open Source CFD Toolbox           |
|  \\    /   O peration     | Version:  4.1                                   |
|   \\  /    A nd           | Web:      www.OpenFOAM.org                      |
|    \\/     M anipulation  |                                                 |
\*---------------------------------------------------------------------------*/
FoamFile
{
    version     2.0;
    format      ascii;
    class       pointVectorField;
    location    "0.0034";
    object      pointDisplacement_Next;
}
// * * * * * * * * * * * * * * * * * * * * * * * * * * * * * * * * * * * * * //

dimensions      [0 1 0 0 0 0 0];

internalField   uniform (0 0 0);

boundaryField
{
    inlet
    {
        type            fixedValue;
        value           nonuniform 0();
    }
    outlet
    {
        type            fixedValue;
        value           nonuniform 0();
    }
    mantle
    {
        type            fixedValue;
        value           nonuniform List<vector> 
416
(
(-2.0944e-05 -0.00011103 -4.7284e-10)
(-2.4447e-05 -0.0001001 6.2709e-11)
(-2.4479e-05 -9.8126e-05 1.9527e-05)
(-2.1004e-05 -0.00010879 2.1624e-05)
(-2.453e-05 -9.2306e-05 3.8263e-05)
(-2.1065e-05 -0.00010227 4.2401e-05)
(-2.4547e-05 -8.2948e-05 5.545e-05)
(-2.1046e-05 -9.1878e-05 6.1453e-05)
(-2.4545e-05 -7.05e-05 7.0499e-05)
(-2.1004e-05 -7.8108e-05 7.8108e-05)
(-2.4548e-05 -5.545e-05 8.2948e-05)
(-2.1047e-05 -6.1452e-05 9.1877e-05)
(-2.453e-05 -3.8263e-05 9.2306e-05)
(-2.1065e-05 -4.2401e-05 0.00010227)
(-2.448e-05 -1.9528e-05 9.8127e-05)
(-2.1005e-05 -2.1624e-05 0.00010879)
(-2.4448e-05 -3.2797e-10 0.0001001)
(-2.0945e-05 7.7716e-11 0.00011103)
(-2.809e-05 -8.7496e-05 -2.3468e-10)
(-2.81e-05 -8.5764e-05 1.7044e-05)
(-2.8139e-05 -8.0699e-05 3.343e-05)
(-2.8181e-05 -7.2586e-05 4.8522e-05)
(-2.8207e-05 -6.1736e-05 6.1736e-05)
(-2.8182e-05 -4.8522e-05 7.2586e-05)
(-2.8139e-05 -3.343e-05 8.0699e-05)
(-2.81e-05 -1.7044e-05 8.5764e-05)
(-2.809e-05 8.8704e-11 8.7497e-05)
(-3.1463e-05 -7.4727e-05 -2.8033e-10)
(-3.1493e-05 -7.3215e-05 1.4506e-05)
(-3.1543e-05 -6.888e-05 2.8519e-05)
(-3.1558e-05 -6.2047e-05 4.151e-05)
(-3.1556e-05 -5.2855e-05 5.2855e-05)
(-3.1558e-05 -4.151e-05 6.2047e-05)
(-3.1543e-05 -2.8519e-05 6.8879e-05)
(-3.1493e-05 -1.4506e-05 7.3214e-05)
(-3.1463e-05 2.6891e-10 7.4725e-05)
(-3.4355e-05 -6.2976e-05 2.7023e-11)
(-3.441e-05 -6.1661e-05 1.2182e-05)
(-3.4475e-05 -5.7977e-05 2.4e-05)
(-3.4451e-05 -5.2329e-05 3.5048e-05)
(-3.4413e-05 -4.4668e-05 4.4668e-05)
(-3.4451e-05 -3.5048e-05 5.2329e-05)
(-3.4475e-05 -2.4e-05 5.7976e-05)
(-3.441e-05 -1.2182e-05 6.1658e-05)
(-3.4355e-05 4.2689e-11 6.2972e-05)
(-3.6667e-05 -5.287e-05 9.4126e-11)
(-3.6694e-05 -5.1798e-05 1.0242e-05)
(-3.673e-05 -4.8766e-05 2.0201e-05)
(-3.672e-05 -4.4026e-05 2.9496e-05)
(-3.6704e-05 -3.7581e-05 3.7581e-05)
(-3.672e-05 -2.9495e-05 4.4025e-05)
(-3.673e-05 -2.02e-05 4.8764e-05)
(-3.6694e-05 -1.0242e-05 5.1794e-05)
(-3.6668e-05 -1.0834e-10 5.2865e-05)
(-3.8223e-05 -4.4436e-05 1.0113e-11)
(-3.8224e-05 -4.3572e-05 8.6258e-06)
(-3.8234e-05 -4.1078e-05 1.7031e-05)
(-3.8243e-05 -3.7089e-05 2.4843e-05)
(-3.8248e-05 -3.1648e-05 3.1648e-05)
(-3.8243e-05 -2.4843e-05 3.7088e-05)
(-3.8234e-05 -1.7031e-05 4.1076e-05)
(-3.8224e-05 -8.6255e-06 4.3568e-05)
(-3.8223e-05 -1.6757e-10 4.4431e-05)
(-3.8947e-05 -3.7283e-05 -1.4005e-09)
(-3.8958e-05 -3.6555e-05 7.227e-06)
(-3.8973e-05 -3.447e-05 1.4268e-05)
(-3.8967e-05 -3.1163e-05 2.0864e-05)
(-3.896e-05 -2.6606e-05 2.6608e-05)
(-3.8967e-05 -2.0864e-05 3.1162e-05)
(-3.8973e-05 -1.4268e-05 3.4468e-05)
(-3.8958e-05 -7.2268e-06 3.6551e-05)
(-3.8947e-05 1.092e-09 3.7279e-05)
(-3.9023e-05 -3.0831e-05 1.2434e-11)
(-3.9051e-05 -3.0194e-05 5.9428e-06)
(-3.9079e-05 -2.8465e-05 1.1765e-05)
(-3.9052e-05 -2.5774e-05 1.7267e-05)
(-3.9024e-05 -2.2059e-05 2.2059e-05)
(-3.9052e-05 -1.7267e-05 2.5773e-05)
(-3.9079e-05 -1.1765e-05 2.8463e-05)
(-3.9051e-05 -5.9428e-06 3.0192e-05)
(-3.9023e-05 -4.327e-10 3.0828e-05)
(-3.8694e-05 -2.4713e-05 6.1249e-10)
(-3.8715e-05 -2.4255e-05 4.7973e-06)
(-3.8734e-05 -2.2922e-05 9.4842e-06)
(-3.8709e-05 -2.0752e-05 1.3888e-05)
(-3.8686e-05 -1.7726e-05 1.7725e-05)
(-3.8709e-05 -1.3888e-05 2.0751e-05)
(-3.8734e-05 -9.4841e-06 2.292e-05)
(-3.8715e-05 -4.7973e-06 2.4252e-05)
(-3.8695e-05 -1.1013e-09 2.4711e-05)
(-3.8097e-05 -1.9293e-05 5.3487e-11)
(-3.8114e-05 -1.8985e-05 3.7821e-06)
(-3.8124e-05 -1.7987e-05 7.4542e-06)
(-3.8104e-05 -1.6288e-05 1.0885e-05)
(-3.8082e-05 -1.388e-05 1.3879e-05)
(-3.8104e-05 -1.0886e-05 1.6287e-05)
(-3.8124e-05 -7.4541e-06 1.7985e-05)
(-3.8114e-05 -3.7822e-06 1.8982e-05)
(-3.8097e-05 -5.7834e-10 1.929e-05)
(-3.7292e-05 -1.5047e-05 3.9866e-11)
(-3.73e-05 -1.4794e-05 2.9397e-06)
(-3.7306e-05 -1.4018e-05 5.8048e-06)
(-3.7287e-05 -1.2713e-05 8.4986e-06)
(-3.7272e-05 -1.0851e-05 1.0851e-05)
(-3.7287e-05 -8.4987e-06 1.2711e-05)
(-3.7306e-05 -5.8046e-06 1.4016e-05)
(-3.73e-05 -2.9398e-06 1.4791e-05)
(-3.7292e-05 -5.9786e-10 1.5043e-05)
(-3.6199e-05 -1.1862e-05 -1.4241e-11)
(-3.6205e-05 -1.1625e-05 2.2804e-06)
(-3.6211e-05 -1.0982e-05 4.5344e-06)
(-3.6189e-05 -9.9893e-06 6.6969e-06)
(-3.6177e-05 -8.5728e-06 8.5723e-06)
(-3.6189e-05 -6.6968e-06 9.988e-06)
(-3.6211e-05 -4.5342e-06 1.0979e-05)
(-3.6205e-05 -2.2804e-06 1.1622e-05)
(-3.6199e-05 -5.6078e-10 1.1859e-05)
(-2.4479e-05 1.9528e-05 9.8128e-05)
(-2.1005e-05 2.1625e-05 0.00010879)
(-2.453e-05 3.8264e-05 9.2308e-05)
(-2.1065e-05 4.2402e-05 0.00010227)
(-2.4547e-05 5.5452e-05 8.2949e-05)
(-2.1046e-05 6.1454e-05 9.1879e-05)
(-2.4545e-05 7.0502e-05 7.0501e-05)
(-2.1004e-05 7.8109e-05 7.8109e-05)
(-2.4547e-05 8.295e-05 5.5452e-05)
(-2.1046e-05 9.188e-05 6.1454e-05)
(-2.453e-05 9.2309e-05 3.8264e-05)
(-2.1065e-05 0.00010227 4.2403e-05)
(-2.4479e-05 9.8129e-05 1.9528e-05)
(-2.1004e-05 0.0001088 2.1625e-05)
(-2.4447e-05 0.0001001 3.8144e-10)
(-2.0944e-05 0.00011103 -1.8855e-10)
(-2.81e-05 1.7045e-05 8.5765e-05)
(-2.8139e-05 3.3431e-05 8.0701e-05)
(-2.8181e-05 4.8523e-05 7.2588e-05)
(-2.8207e-05 6.1739e-05 6.1738e-05)
(-2.8181e-05 7.2589e-05 4.8524e-05)
(-2.8139e-05 8.0702e-05 3.3432e-05)
(-2.81e-05 8.5767e-05 1.7045e-05)
(-2.8089e-05 8.7499e-05 -7.5791e-11)
(-3.1493e-05 1.4506e-05 7.3215e-05)
(-3.1543e-05 2.852e-05 6.8881e-05)
(-3.1558e-05 4.1511e-05 6.2049e-05)
(-3.1556e-05 5.2858e-05 5.2858e-05)
(-3.1558e-05 6.205e-05 4.1512e-05)
(-3.1543e-05 6.8883e-05 2.852e-05)
(-3.1493e-05 7.3218e-05 1.4507e-05)
(-3.1462e-05 7.4728e-05 -2.586e-10)
(-3.441e-05 1.2182e-05 6.1659e-05)
(-3.4475e-05 2.4001e-05 5.7978e-05)
(-3.4451e-05 3.505e-05 5.2331e-05)
(-3.4413e-05 4.467e-05 4.467e-05)
(-3.4451e-05 5.2332e-05 3.505e-05)
(-3.4475e-05 5.7979e-05 2.4001e-05)
(-3.4409e-05 6.1662e-05 1.2183e-05)
(-3.4355e-05 6.2976e-05 -3.1419e-11)
(-3.6694e-05 1.0242e-05 5.1795e-05)
(-3.6729e-05 2.02e-05 4.8765e-05)
(-3.672e-05 2.9496e-05 4.4027e-05)
(-3.6704e-05 3.7583e-05 3.7583e-05)
(-3.6719e-05 4.4028e-05 2.9497e-05)
(-3.6729e-05 4.8767e-05 2.0201e-05)
(-3.6693e-05 5.1798e-05 1.0242e-05)
(-3.6667e-05 5.2869e-05 3.6105e-11)
(-3.8224e-05 8.6253e-06 4.3569e-05)
(-3.8234e-05 1.7031e-05 4.1077e-05)
(-3.8243e-05 2.4843e-05 3.709e-05)
(-3.8248e-05 3.1649e-05 3.1649e-05)
(-3.8242e-05 3.709e-05 2.4844e-05)
(-3.8234e-05 4.1078e-05 1.7032e-05)
(-3.8224e-05 4.3571e-05 8.6259e-06)
(-3.8222e-05 4.4434e-05 -5.4433e-12)
(-3.8958e-05 7.2263e-06 3.6552e-05)
(-3.8973e-05 1.4268e-05 3.4469e-05)
(-3.8967e-05 2.0864e-05 3.1163e-05)
(-3.896e-05 2.6607e-05 2.6609e-05)
(-3.8967e-05 3.1163e-05 2.0865e-05)
(-3.8972e-05 3.447e-05 1.4268e-05)
(-3.8957e-05 3.6554e-05 7.227e-06)
(-3.8946e-05 3.7281e-05 -1.3894e-09)
(-3.9051e-05 5.942e-06 3.0192e-05)
(-3.9079e-05 1.1764e-05 2.8464e-05)
(-3.9052e-05 1.7267e-05 2.5774e-05)
(-3.9024e-05 2.2059e-05 2.2059e-05)
(-3.9052e-05 2.5774e-05 1.7267e-05)
(-3.9079e-05 2.8464e-05 1.1765e-05)
(-3.9051e-05 3.0193e-05 5.9427e-06)
(-3.9023e-05 3.0829e-05 2.2517e-11)
(-3.8715e-05 4.7963e-06 2.4253e-05)
(-3.8734e-05 9.4833e-06 2.2921e-05)
(-3.8709e-05 1.3887e-05 2.0752e-05)
(-3.8686e-05 1.7725e-05 1.7726e-05)
(-3.8709e-05 2.0752e-05 1.3888e-05)
(-3.8734e-05 2.292e-05 9.484e-06)
(-3.8715e-05 2.4252e-05 4.797e-06)
(-3.8694e-05 2.4711e-05 6.0689e-10)
(-3.8114e-05 3.7812e-06 1.8983e-05)
(-3.8124e-05 7.4534e-06 1.7986e-05)
(-3.8104e-05 1.0885e-05 1.6288e-05)
(-3.8082e-05 1.3879e-05 1.388e-05)
(-3.8104e-05 1.6287e-05 1.0886e-05)
(-3.8124e-05 1.7985e-05 7.4541e-06)
(-3.8114e-05 1.8982e-05 3.7819e-06)
(-3.8097e-05 1.929e-05 5.1096e-11)
(-3.73e-05 2.9387e-06 1.4791e-05)
(-3.7306e-05 5.8038e-06 1.4016e-05)
(-3.7286e-05 8.4979e-06 1.2712e-05)
(-3.7272e-05 1.0851e-05 1.0851e-05)
(-3.7286e-05 1.2711e-05 8.4987e-06)
(-3.7306e-05 1.4016e-05 5.8046e-06)
(-3.73e-05 1.4791e-05 2.9395e-06)
(-3.7292e-05 1.5043e-05 3.7662e-11)
(-3.6205e-05 2.2794e-06 1.1622e-05)
(-3.6211e-05 4.5334e-06 1.098e-05)
(-3.6189e-05 6.6959e-06 9.9884e-06)
(-3.6177e-05 8.5717e-06 8.5724e-06)
(-3.6189e-05 9.9878e-06 6.6967e-06)
(-3.6211e-05 1.098e-05 4.5341e-06)
(-3.6205e-05 1.1622e-05 2.2801e-06)
(-3.6199e-05 1.1859e-05 4.2156e-11)
(-2.4479e-05 9.8128e-05 -1.9528e-05)
(-2.1004e-05 0.00010879 -2.1626e-05)
(-2.4529e-05 9.2307e-05 -3.8264e-05)
(-2.1064e-05 0.00010227 -4.2403e-05)
(-2.4547e-05 8.2949e-05 -5.5451e-05)
(-2.1045e-05 9.1879e-05 -6.1454e-05)
(-2.4544e-05 7.05e-05 -7.0499e-05)
(-2.1003e-05 7.8108e-05 -7.8109e-05)
(-2.4547e-05 5.545e-05 -8.2948e-05)
(-2.1045e-05 6.1453e-05 -9.1878e-05)
(-2.4529e-05 3.8263e-05 -9.2307e-05)
(-2.1064e-05 4.2402e-05 -0.00010227)
(-2.4479e-05 1.9528e-05 -9.8128e-05)
(-2.1004e-05 2.1625e-05 -0.00010879)
(-2.4447e-05 7.6354e-10 -0.0001001)
(-2.0945e-05 2.0561e-10 -0.00011103)
(-2.81e-05 8.5766e-05 -1.7045e-05)
(-2.8139e-05 8.0701e-05 -3.3431e-05)
(-2.8181e-05 7.2587e-05 -4.8522e-05)
(-2.8207e-05 6.1736e-05 -6.1737e-05)
(-2.8181e-05 4.8522e-05 -7.2587e-05)
(-2.8138e-05 3.3431e-05 -8.0701e-05)
(-2.8099e-05 1.7045e-05 -8.5766e-05)
(-2.8089e-05 2.6835e-10 -8.7499e-05)
(-3.1493e-05 7.3217e-05 -1.4507e-05)
(-3.1543e-05 6.8882e-05 -2.852e-05)
(-3.1558e-05 6.2048e-05 -4.1511e-05)
(-3.1556e-05 5.2856e-05 -5.2857e-05)
(-3.1558e-05 4.1511e-05 -6.2048e-05)
(-3.1542e-05 2.852e-05 -6.8882e-05)
(-3.1492e-05 1.4507e-05 -7.3217e-05)
(-3.1462e-05 -9.8624e-11 -7.4727e-05)
(-3.4409e-05 6.1662e-05 -1.2183e-05)
(-3.4475e-05 5.7979e-05 -2.4002e-05)
(-3.4451e-05 5.2331e-05 -3.505e-05)
(-3.4412e-05 4.467e-05 -4.467e-05)
(-3.4451e-05 3.505e-05 -5.2331e-05)
(-3.4475e-05 2.4001e-05 -5.7979e-05)
(-3.4409e-05 1.2183e-05 -6.1661e-05)
(-3.4355e-05 -9.9935e-11 -6.2975e-05)
(-3.6693e-05 5.1798e-05 -1.0242e-05)
(-3.6729e-05 4.8767e-05 -2.0202e-05)
(-3.6719e-05 4.4028e-05 -2.9498e-05)
(-3.6704e-05 3.7583e-05 -3.7584e-05)
(-3.6719e-05 2.9497e-05 -4.4028e-05)
(-3.6729e-05 2.0201e-05 -4.8767e-05)
(-3.6693e-05 1.0242e-05 -5.1797e-05)
(-3.6667e-05 -2.6056e-10 -5.2869e-05)
(-3.8224e-05 4.3571e-05 -8.626e-06)
(-3.8234e-05 4.1079e-05 -1.7032e-05)
(-3.8242e-05 3.7091e-05 -2.4845e-05)
(-3.8248e-05 3.1649e-05 -3.165e-05)
(-3.8242e-05 2.4844e-05 -3.7091e-05)
(-3.8234e-05 1.7032e-05 -4.1079e-05)
(-3.8224e-05 8.6258e-06 -4.3572e-05)
(-3.8222e-05 -2.7976e-10 -4.4435e-05)
(-3.8957e-05 3.6554e-05 -7.227e-06)
(-3.8972e-05 3.447e-05 -1.4269e-05)
(-3.8967e-05 3.1163e-05 -2.0865e-05)
(-3.8959e-05 2.6607e-05 -2.661e-05)
(-3.8967e-05 2.0865e-05 -3.1164e-05)
(-3.8972e-05 1.4269e-05 -3.4471e-05)
(-3.8957e-05 7.2269e-06 -3.6555e-05)
(-3.8946e-05 -1.7435e-09 -3.7282e-05)
(-3.9051e-05 3.0193e-05 -5.9427e-06)
(-3.9079e-05 2.8465e-05 -1.1765e-05)
(-3.9051e-05 2.5774e-05 -1.7268e-05)
(-3.9024e-05 2.206e-05 -2.206e-05)
(-3.9051e-05 1.7268e-05 -2.5775e-05)
(-3.9079e-05 1.1765e-05 -2.8467e-05)
(-3.9051e-05 5.9426e-06 -3.0195e-05)
(-3.9023e-05 -4.0958e-10 -3.0831e-05)
(-3.8715e-05 2.4253e-05 -4.797e-06)
(-3.8734e-05 2.2921e-05 -9.4842e-06)
(-3.8709e-05 2.0752e-05 -1.3888e-05)
(-3.8686e-05 1.7725e-05 -1.7727e-05)
(-3.8709e-05 1.3888e-05 -2.0754e-05)
(-3.8734e-05 9.4843e-06 -2.2923e-05)
(-3.8715e-05 4.797e-06 -2.4256e-05)
(-3.8694e-05 -1.0809e-09 -2.4714e-05)
(-3.8114e-05 1.8982e-05 -3.7818e-06)
(-3.8124e-05 1.7986e-05 -7.4541e-06)
(-3.8103e-05 1.6288e-05 -1.0886e-05)
(-3.8081e-05 1.388e-05 -1.3881e-05)
(-3.8103e-05 1.0886e-05 -1.6289e-05)
(-3.8124e-05 7.4543e-06 -1.7988e-05)
(-3.8114e-05 3.7818e-06 -1.8986e-05)
(-3.8097e-05 -5.9925e-10 -1.9294e-05)
(-3.73e-05 1.4791e-05 -2.9393e-06)
(-3.7305e-05 1.4016e-05 -5.8045e-06)
(-3.7286e-05 1.2712e-05 -8.499e-06)
(-3.7272e-05 1.0851e-05 -1.0852e-05)
(-3.7286e-05 8.499e-06 -1.2713e-05)
(-3.7305e-05 5.8047e-06 -1.4019e-05)
(-3.73e-05 2.9393e-06 -1.4795e-05)
(-3.7292e-05 -6.5302e-10 -1.5048e-05)
(-3.6205e-05 1.1622e-05 -2.28e-06)
(-3.6211e-05 1.098e-05 -4.5341e-06)
(-3.6189e-05 9.9884e-06 -6.6971e-06)
(-3.6177e-05 8.5727e-06 -8.5734e-06)
(-3.6189e-05 6.697e-06 -9.99e-06)
(-3.6211e-05 4.5343e-06 -1.0982e-05)
(-3.6204e-05 2.28e-06 -1.1626e-05)
(-3.6199e-05 -6.1124e-10 -1.1863e-05)
(-2.4479e-05 -1.9528e-05 -9.8129e-05)
(-2.1004e-05 -2.1625e-05 -0.00010879)
(-2.453e-05 -3.8263e-05 -9.2307e-05)
(-2.1064e-05 -4.2402e-05 -0.00010227)
(-2.4547e-05 -5.545e-05 -8.2948e-05)
(-2.1046e-05 -6.1452e-05 -9.1878e-05)
(-2.4545e-05 -7.0499e-05 -7.0499e-05)
(-2.1003e-05 -7.8107e-05 -7.8107e-05)
(-2.4547e-05 -8.2947e-05 -5.545e-05)
(-2.1046e-05 -9.1877e-05 -6.1452e-05)
(-2.453e-05 -9.2305e-05 -3.8263e-05)
(-2.1064e-05 -0.00010227 -4.2402e-05)
(-2.4479e-05 -9.8125e-05 -1.9528e-05)
(-2.1004e-05 -0.00010879 -2.1625e-05)
(-2.8099e-05 -1.7045e-05 -8.5766e-05)
(-2.8138e-05 -3.3431e-05 -8.0701e-05)
(-2.8181e-05 -4.8522e-05 -7.2587e-05)
(-2.8207e-05 -6.1736e-05 -6.1736e-05)
(-2.8181e-05 -7.2586e-05 -4.8522e-05)
(-2.8139e-05 -8.0699e-05 -3.3431e-05)
(-2.81e-05 -8.5764e-05 -1.7045e-05)
(-3.1492e-05 -1.4506e-05 -7.3216e-05)
(-3.1542e-05 -2.8519e-05 -6.8881e-05)
(-3.1558e-05 -4.1511e-05 -6.2048e-05)
(-3.1556e-05 -5.2856e-05 -5.2856e-05)
(-3.1558e-05 -6.2047e-05 -4.1511e-05)
(-3.1543e-05 -6.8881e-05 -2.852e-05)
(-3.1493e-05 -7.3216e-05 -1.4506e-05)
(-3.4409e-05 -1.2183e-05 -6.1661e-05)
(-3.4475e-05 -2.4001e-05 -5.7978e-05)
(-3.4451e-05 -3.5049e-05 -5.233e-05)
(-3.4412e-05 -4.4669e-05 -4.4669e-05)
(-3.4451e-05 -5.233e-05 -3.505e-05)
(-3.4475e-05 -5.7978e-05 -2.4001e-05)
(-3.441e-05 -6.1662e-05 -1.2183e-05)
(-3.6693e-05 -1.0242e-05 -5.1797e-05)
(-3.6729e-05 -2.0201e-05 -4.8766e-05)
(-3.6719e-05 -2.9497e-05 -4.4027e-05)
(-3.6704e-05 -3.7583e-05 -3.7583e-05)
(-3.672e-05 -4.4028e-05 -2.9497e-05)
(-3.6729e-05 -4.8767e-05 -2.0201e-05)
(-3.6693e-05 -5.1799e-05 -1.0242e-05)
(-3.8224e-05 -8.6263e-06 -4.3572e-05)
(-3.8234e-05 -1.7032e-05 -4.1079e-05)
(-3.8242e-05 -2.4845e-05 -3.7091e-05)
(-3.8248e-05 -3.165e-05 -3.1649e-05)
(-3.8243e-05 -3.7091e-05 -2.4845e-05)
(-3.8234e-05 -4.108e-05 -1.7032e-05)
(-3.8224e-05 -4.3573e-05 -8.626e-06)
(-3.8957e-05 -7.2276e-06 -3.6555e-05)
(-3.8972e-05 -1.4269e-05 -3.4471e-05)
(-3.8967e-05 -2.0866e-05 -3.1164e-05)
(-3.896e-05 -2.6608e-05 -2.661e-05)
(-3.8967e-05 -3.1165e-05 -2.0866e-05)
(-3.8973e-05 -3.4472e-05 -1.4269e-05)
(-3.8958e-05 -3.6556e-05 -7.2272e-06)
(-3.9051e-05 -5.9435e-06 -3.0195e-05)
(-3.9079e-05 -1.1766e-05 -2.8466e-05)
(-3.9052e-05 -1.7269e-05 -2.5776e-05)
(-3.9024e-05 -2.2061e-05 -2.206e-05)
(-3.9052e-05 -2.5776e-05 -1.7268e-05)
(-3.9079e-05 -2.8467e-05 -1.1766e-05)
(-3.9051e-05 -3.0195e-05 -5.943e-06)
(-3.8715e-05 -4.798e-06 -2.4256e-05)
(-3.8734e-05 -9.4855e-06 -2.2923e-05)
(-3.8709e-05 -1.389e-05 -2.0754e-05)
(-3.8686e-05 -1.7728e-05 -1.7727e-05)
(-3.8709e-05 -2.0754e-05 -1.3889e-05)
(-3.8734e-05 -2.2923e-05 -9.4848e-06)
(-3.8715e-05 -2.4255e-05 -4.7974e-06)
(-3.8114e-05 -3.783e-06 -1.8986e-05)
(-3.8124e-05 -7.4557e-06 -1.7989e-05)
(-3.8104e-05 -1.0888e-05 -1.629e-05)
(-3.8082e-05 -1.3882e-05 -1.3881e-05)
(-3.8104e-05 -1.629e-05 -1.0887e-05)
(-3.8124e-05 -1.7989e-05 -7.4549e-06)
(-3.8114e-05 -1.8986e-05 -3.7822e-06)
(-3.73e-05 -2.9407e-06 -1.4795e-05)
(-3.7306e-05 -5.8063e-06 -1.402e-05)
(-3.7286e-05 -8.5008e-06 -1.2714e-05)
(-3.7272e-05 -1.0854e-05 -1.0853e-05)
(-3.7286e-05 -1.2715e-05 -8.5e-06)
(-3.7306e-05 -1.4019e-05 -5.8054e-06)
(-3.73e-05 -1.4795e-05 -2.9398e-06)
(-3.6205e-05 -2.2813e-06 -1.1626e-05)
(-3.6211e-05 -4.5359e-06 -1.0983e-05)
(-3.6189e-05 -6.6989e-06 -9.991e-06)
(-3.6177e-05 -8.575e-06 -8.5744e-06)
(-3.6189e-05 -9.9913e-06 -6.6982e-06)
(-3.6211e-05 -1.0983e-05 -4.535e-06)
(-3.6205e-05 -1.1626e-05 -2.2805e-06)
)
;
    }
    procBoundary1to0
    {
        type            processor;
    }
    procBoundary1to2
    {
        type            processor;
    }
}


// ************************************************************************* //
