/*--------------------------------*- C++ -*----------------------------------*\
  =========                 |
  \\      /  F ield         | OpenFOAM: The Open Source CFD Toolbox
   \\    /   O peration     | Website:  https://openfoam.org
    \\  /    A nd           | Version:  8
     \\/     M anipulation  |
\*---------------------------------------------------------------------------*/
FoamFile
{
    version     2.0;
    format      ascii;
    class       volScalarField::Internal;
    location    "0.0400000";
    object      V0;
}
// * * * * * * * * * * * * * * * * * * * * * * * * * * * * * * * * * * * * * //

dimensions      [0 3 0 0 0 0 0];

value           nonuniform List<scalar> 
900
(
4.07398144851049e-14
4.02666698955224e-14
3.97941837707362e-14
3.93217646116301e-14
3.88494142996244e-14
3.83773047797843e-14
3.79055586205075e-14
3.74341016129533e-14
3.69627810318825e-14
3.64917391448611e-14
3.60210029166536e-14
3.5550457890713e-14
3.50800680624811e-14
3.46099666117398e-14
3.41401393597895e-14
3.36704522706075e-14
3.32009726070005e-14
3.27317724150214e-14
3.22628051014565e-14
3.17939767802431e-14
3.13254034504563e-14
3.08571154229637e-14
3.03890087324525e-14
2.99210717606518e-14
2.94534328965699e-14
2.8986078329672e-14
2.85188694989651e-14
2.80519063249368e-14
2.75852697237576e-14
2.71188890896384e-14
2.66526344828953e-14
2.61867335149904e-14
2.57212217095463e-14
2.52558736441122e-14
2.47907713097191e-14
2.43261000354214e-14
2.38618163101907e-14
2.33976743990616e-14
2.29339530762484e-14
2.24708094949054e-14
2.20080058775818e-14
2.15453981467167e-14
2.10834900467578e-14
2.06223397737305e-14
2.01613949867152e-14
1.97010165045986e-14
1.92417106323462e-14
1.87832682391177e-14
1.83248557188525e-14
1.78678464536213e-14
1.74126304875247e-14
1.69578430379175e-14
1.65038673286348e-14
1.6052265299789e-14
1.56028340437248e-14
1.51537525839561e-14
1.47071638265849e-14
1.4264477805389e-14
1.38238361412872e-14
1.33840380497417e-14
1.29497933586717e-14
1.25214197926621e-14
1.20934677946449e-14
1.16691173110032e-14
1.12539679249752e-14
1.08474291832334e-14
1.04392200180551e-14
1.00558125870393e-14
9.70391244824795e-15
9.35549700829202e-15
9.03026308561902e-15
8.73582642391554e-15
8.45177920270837e-15
8.17395324639784e-15
7.91617561995549e-15
7.6685833761104e-15
7.42036591432722e-15
7.17789084008842e-15
6.92845470712115e-15
6.66965810266407e-15
6.41282776893909e-15
6.12837005107102e-15
5.81184913326252e-15
5.49870028981855e-15
5.14518278708643e-15
4.76122319327003e-15
4.58911939867061e-15
4.5915653457597e-15
4.55896928392067e-15
4.51690469997744e-15
4.4766732254827e-15
4.4257803108491e-15
4.37005468725376e-15
4.31648391237396e-15
4.25956887779083e-15
4.20187421495089e-15
4.14516074959975e-15
4.08642903598709e-15
4.02700599288711e-15
3.90762462610621e-15
4.17352120727542e-14
4.12394670408558e-14
4.0744447617899e-14
4.02500391200138e-14
3.9756190350654e-14
3.92628751978408e-14
3.87700931622007e-14
3.82778285505342e-14
3.77860637294394e-14
3.72947973649859e-14
3.68040269624284e-14
3.63137382248268e-14
3.58239254425719e-14
3.53345948248703e-14
3.48457433822868e-14
3.43573608208655e-14
3.38694486949508e-14
3.33820135195684e-14
3.28950510150333e-14
3.24085573209056e-14
3.19225399381097e-14
3.14370029137945e-14
3.09519403884419e-14
3.04673550440375e-14
2.99832590480353e-14
2.94996539561792e-14
2.90165357449497e-14
2.85339136335993e-14
2.80517990627997e-14
2.75701892489265e-14
2.70890878788892e-14
2.66085165106251e-14
2.61284854645198e-14
2.56489903076791e-14
2.51700458245077e-14
2.46916797197963e-14
2.42138993383027e-14
2.37367123761263e-14
2.32601560950091e-14
2.27842638089014e-14
2.23090403110349e-14
2.18345156864028e-14
2.13607583211198e-14
2.08878058333562e-14
2.04156758558863e-14
1.99444445414731e-14
1.94742085784854e-14
1.90049995260182e-14
1.85368868016904e-14
1.80700469147612e-14
1.76046002871757e-14
1.71405805082773e-14
1.66781542045679e-14
1.62175911369427e-14
1.57590245898951e-14
1.53025924795876e-14
1.48486552896114e-14
1.43975495716668e-14
1.39494030889892e-14
1.35045782728678e-14
1.30637387014829e-14
1.2627249808069e-14
1.21953840367669e-14
1.17692053911886e-14
1.13503662196558e-14
1.09403507588912e-14
1.05418951975118e-14
1.01591666742965e-14
9.7943781407857e-15
9.44746073975485e-15
9.11893247034464e-15
8.80855884737486e-15
8.51345967735538e-15
8.23095057389821e-15
7.95938263590437e-15
7.69568060912438e-15
7.43581365583878e-15
7.17606380981898e-15
6.91233155772037e-15
6.64103349290904e-15
6.35840111349906e-15
6.05840285895007e-15
5.73771071917503e-15
5.39532642151529e-15
5.0248963789352e-15
4.65238758173989e-15
4.48481511654719e-15
4.49257753898298e-15
4.47963464330304e-15
4.45262548815938e-15
4.41670212133403e-15
4.37360045786049e-15
4.32554982757337e-15
4.27479253484665e-15
4.22224000774517e-15
4.16897065595896e-15
4.11615045552329e-15
4.06487243848528e-15
4.01644891889878e-15
3.98006000081445e-15
4.27259747499895e-14
4.22081172563272e-14
4.16911288442974e-14
4.11750171026019e-14
4.06597183720457e-14
4.01452080034937e-14
3.96314862261581e-14
3.91185362676341e-14
3.86063392637154e-14
3.80948946025228e-14
3.75841997305734e-14
3.70742391801933e-14
3.65650069894982e-14
3.60565102388676e-14
3.55487455660612e-14
3.50417015852276e-14
3.45353802831729e-14
3.40297887229778e-14
3.35249220108701e-14
3.30207755963766e-14
3.25173578623787e-14
3.2014672994415e-14
3.15127141244217e-14
3.10114839305629e-14
3.05109956705592e-14
3.00112505622932e-14
2.95122434203375e-14
2.90139843125646e-14
2.85164854229664e-14
2.8019742985375e-14
2.75237597583032e-14
2.70285594513262e-14
2.65341525159599e-14
2.6040532261129e-14
2.55477143022648e-14
2.50557283628585e-14
2.45645808347959e-14
2.40742771629842e-14
2.35848575888595e-14
2.30963570004575e-14
2.26087769732246e-14
2.21221465343344e-14
2.16365397518885e-14
2.11519940515376e-14
2.06685207656451e-14
2.01862003223971e-14
1.97051356293298e-14
1.92253530356096e-14
1.87469133564947e-14
1.8270010042551e-14
1.77947667066831e-14
1.7321197523717e-14
1.68494739610805e-14
1.63798869262119e-14
1.59125614271654e-14
1.54476106007322e-14
1.49854233411629e-14
1.45263535832436e-14
1.40704927077974e-14
1.36181876690695e-14
1.31701683589305e-14
1.27267912012171e-14
1.22882380877001e-14
1.18556105516093e-14
1.14306388427555e-14
1.10147419101866e-14
1.06105366709808e-14
1.02225495397062e-14
9.85304156824786e-15
9.50157169649867e-15
9.16883732968769e-15
8.85464963231429e-15
8.55589289013095e-15
8.26983375751672e-15
7.99479811921276e-15
7.72764181401825e-15
7.46425425974007e-15
7.20080664874211e-15
6.93324430687074e-15
6.65783065797557e-15
6.3704423259285e-15
6.0657587286861e-15
5.7402983865504e-15
5.3917241172262e-15
5.01567919548308e-15
4.64000099607972e-15
4.47241643562184e-15
4.48106124953348e-15
4.47042480776954e-15
4.44552428815265e-15
4.41086905612067e-15
4.36903148845665e-15
4.32216595296502e-15
4.27223072947287e-15
4.22048063969854e-15
4.16801567004419e-15
4.11602462718802e-15
4.0659510745591e-15
4.02040319874353e-15
3.98939730753962e-15
4.37178438323508e-14
4.31778304805551e-14
4.26388382261693e-14
4.21009962757225e-14
4.15642231275014e-14
4.10284938630524e-14
4.04938083627396e-14
3.99601492591442e-14
3.94274972446213e-14
3.88958515440705e-14
3.83652093051047e-14
3.78355546579831e-14
3.7306881510035e-14
3.67791969251474e-14
3.62524972985231e-14
3.57267709998577e-14
3.52020200180867e-14
3.46782513958533e-14
3.41554600428277e-14
3.36336413251418e-14
3.31128036970332e-14
3.25929512624185e-14
3.20740769866287e-14
3.15561835985474e-14
3.10392844591622e-14
3.05233806644464e-14
3.00084669323932e-14
2.94945534536613e-14
2.89816524401371e-14
2.84697599737787e-14
2.79588788960286e-14
2.74490331698062e-14
2.69402331865214e-14
2.64324721251377e-14
2.59257658336489e-14
2.54201442675215e-14
2.49156137278897e-14
2.44121797700731e-14
2.39098830954472e-14
2.34087587410445e-14
2.29088081760736e-14
2.24100608736155e-14
2.19125915753078e-14
2.14164377475591e-14
2.09216108322193e-14
2.04281921846313e-14
1.99362852948976e-14
1.94459163549112e-14
1.89571470868211e-14
1.84701725386219e-14
1.79851165116076e-14
1.75019930841926e-14
1.70209753685212e-14
1.65423558827168e-14
1.60662595095588e-14
1.55928002579444e-14
1.5122369454414e-14
1.46553216990021e-14
1.41917477616789e-14
1.37319969018678e-14
1.32768017543429e-14
1.28265176820743e-14
1.23813269710858e-14
1.19423370316939e-14
1.15112847023383e-14
1.10895927214809e-14
1.06798901453206e-14
1.02867160866439e-14
9.9123252673011e-15
9.5562610153781e-15
9.21920510242326e-15
8.90094688197313e-15
8.59833800176029e-15
8.30861205871586e-15
8.03006785000984e-15
7.7595320258045e-15
7.4928634365866e-15
7.22620399466346e-15
6.9554734931462e-15
6.67691115611393e-15
6.38636914940504e-15
6.07853196985826e-15
5.74989596362621e-15
5.39807253365907e-15
5.01883250552146e-15
4.64057566120144e-15
4.47308361865702e-15
4.48182467506439e-15
4.47149746579448e-15
4.44695788007793e-15
4.41262111809134e-15
4.37109326829278e-15
4.32452745424957e-15
4.27485982718683e-15
4.22336100266432e-15
4.17113848813117e-15
4.11939012868542e-15
4.0696092516684e-15
4.02449764195574e-15
3.99395210531132e-15
4.47107208365433e-14
4.41485153892289e-14
4.35874904221262e-14
4.30278950876969e-14
4.24696248285862e-14
4.19126542225495e-14
4.13569828241003e-14
4.08025927194606e-14
4.02494641070021e-14
3.96975960279687e-14
3.91469853828046e-14
3.85976158967325e-14
3.80494812910369e-14
3.75025886270661e-14
3.69569341036802e-14
3.64125058211187e-14
3.58693057355077e-14
3.53273408989146e-14
3.47866060454155e-14
3.42470964205125e-14
3.37088205443027e-14
3.31717824789024e-14
3.2635975013734e-14
3.21014008862999e-14
3.15680735813238e-14
3.10359941087638e-14
3.0505157058245e-14
2.99755727201737e-14
2.94472533755798e-14
2.89201949593855e-14
2.8394400332633e-14
2.78698937251924e-14
2.73466855302233e-14
2.68247687596849e-14
2.63041594384506e-14
2.57848878004491e-14
2.52669600844892e-14
2.4750381871875e-14
2.42351943143376e-14
2.37214326864608e-14
2.32090983161596e-14
2.26982209996995e-14
2.21888762182085e-14
2.16811015694062e-14
2.11749084607542e-14
2.0670379117678e-14
2.01676177782948e-14
1.9666650438431e-14
1.916753941887e-14
1.86704815323776e-14
1.81756010494274e-14
1.76829116218315e-14
1.71925877655264e-14
1.67049240109379e-14
1.62200451816573e-14
1.5738065560381e-14
1.52593791245289e-14
1.47843417455877e-14
1.43130430176435e-14
1.3845833805651e-14
1.33834506040047e-14
1.29262480068126e-14
1.24744067225175e-14
1.20290396318688e-14
1.15918914360772e-14
1.11643871808606e-14
1.07491659348319e-14
1.03507860497588e-14
9.97149938501051e-15
9.61082930341974e-15
9.26944297944646e-15
8.9471087903212e-15
8.64064321940505e-15
8.34724585329472e-15
8.065189189633e-15
7.79127261674931e-15
7.52132833639706e-15
7.25147516283237e-15
6.97761430978056e-15
6.69597644714667e-15
6.4024089565711e-15
6.09159382389048e-15
5.7600354934584e-15
5.40535549571552e-15
5.02334876871827e-15
4.64283214790233e-15
4.47558205407798e-15
4.48433953864751e-15
4.47407918477502e-15
4.44965749057797e-15
4.41546525736223e-15
4.37409739192722e-15
4.32769922567632e-15
4.27819826021893e-15
4.22686087366339e-15
4.17479246967213e-15
4.12318992083575e-15
4.07354883477134e-15
4.0285683820259e-15
3.99811472059707e-15
4.57045671876303e-14
4.51201349454324e-14
4.45370495538297e-14
4.39556787441009e-14
4.33758898857252e-14
4.27976566828983e-14
4.22209783783957e-14
4.16458365645501e-14
4.10722108970318e-14
4.05001002058537e-14
3.99295011957148e-14
3.93603971888602e-14
3.87927816632293e-14
3.82266616855072e-14
3.76620333072356e-14
3.70988843392725e-14
3.65372166656351e-14
3.59770373740946e-14
3.54183410485194e-14
3.48611227797335e-14
3.43053911418703e-14
3.37511501947746e-14
3.31983925497323e-14
3.26471209096209e-14
3.20973488957979e-14
3.15490774717317e-14
3.1002301075159e-14
3.04570300664786e-14
2.99132768317951e-14
2.93710371733754e-14
2.88303139149298e-14
2.82911315496025e-14
2.77535005348284e-14
2.7217413698798e-14
2.66828871810751e-14
2.61499515226538e-14
2.56186129410247e-14
2.50888769804925e-14
2.45607852066331e-14
2.40343732069385e-14
2.35096421713111e-14
2.29866221081724e-14
2.2465389247749e-14
2.19459814190061e-14
2.14284099272823e-14
2.09127577537005e-14
2.03991299925065e-14
1.98875525004754e-14
1.93780879769459e-14
1.88709349692338e-14
1.83662184707211e-14
1.78639516438087e-14
1.73643101211515e-14
1.6867590564285e-14
1.63739179545826e-14
1.58834065940621e-14
1.53964529508948e-14
1.49134145319685e-14
1.44343797898986e-14
1.39597007008186e-14
1.34901177373776e-14
1.30259852500084e-14
1.25674818972757e-14
1.21157251435988e-14
1.16724676642152e-14
1.12391366650695e-14
1.08183801037142e-14
1.04147764546676e-14
1.00305773887468e-14
9.6652870347457e-15
9.31955770694661e-15
8.99313746899775e-15
8.68280771738479e-15
8.38573328838178e-15
8.10016003676234e-15
7.82286009383518e-15
7.54963906493635e-15
7.276593033397e-15
6.99960550253418e-15
6.71490037081805e-15
6.4183230253931e-15
6.10455575148907e-15
5.77011627930687e-15
5.4126430599197e-15
5.02795217176068e-15
4.64526159479737e-15
4.47831042341486e-15
4.48708466893862e-15
4.47686156232396e-15
4.45252475293605e-15
4.41845007737748e-15
4.37721963082255e-15
4.33096980615696e-15
4.28161977078573e-15
4.23043011657128e-15
4.17850260096642e-15
4.12703091445839e-15
4.07750730528778e-15
4.03262297894586e-15
4.0022284168254e-15
4.66993454613486e-14
4.60926531070704e-14
4.54874805353548e-14
4.48843130868895e-14
4.42829852083733e-14
4.36834692044943e-14
4.30857640183974e-14
4.24898508026524e-14
4.18957086184183e-14
4.13033360541987e-14
4.07127296722106e-14
4.01238723937676e-14
3.95367573927976e-14
3.89513917487884e-14
3.83677714172397e-14
3.77858838988767e-14
3.72057309640346e-14
3.66273197632935e-14
3.60506447570446e-14
3.54757008458271e-14
3.49024966451388e-14
3.43310362538306e-14
3.37613121029399e-14
3.31933268154793e-14
3.2627094162539e-14
3.20626151025948e-14
3.14998838970939e-14
3.09389109452423e-14
3.03797087755172e-14
2.98222730728432e-14
2.92666065641727e-14
2.87127340019206e-14
2.81606659728515e-14
2.7610395104313e-14
2.70619375856421e-14
2.65153242944928e-14
2.59705614697806e-14
2.54276545535263e-14
2.48866454869396e-14
2.43475702487495e-14
2.38104298943832e-14
2.32752545292482e-14
2.27421211427266e-14
2.22110678988209e-14
2.16821059340313e-14
2.11553188491674e-14
2.06308127185952e-14
2.01086133374112e-14
1.95887835384747e-14
1.90715235764639e-14
1.85569594315175e-14
1.80451037105837e-14
1.75361328687284e-14
1.70303458264347e-14
1.65278679477805e-14
1.60288132914532e-14
1.55335806613349e-14
1.50425295832136e-14
1.45557474014511e-14
1.40735867014799e-14
1.35967920837864e-14
1.31257182031465e-14
1.26605411750435e-14
1.22023821684061e-14
1.17530020070849e-14
1.1313829933072e-14
1.08875217016432e-14
1.04786769777764e-14
1.0089550023685e-14
9.7196263647926e-15
9.36954307194001e-15
9.03902838633195e-15
8.72482838975837e-15
8.42407205058705e-15
8.13497780563652e-15
7.85429000349027e-15
7.57778700569632e-15
7.30154160833889e-15
7.02141919983355e-15
6.73363671213344e-15
6.43403780756697e-15
6.11730527471144e-15
5.77996994957442e-15
5.41968807262731e-15
5.03230046531155e-15
4.647432326103e-15
4.48078126297055e-15
4.48956448460771e-15
4.47937349144657e-15
4.45512169094294e-15
4.42116791428147e-15
4.38008025880767e-15
4.33398549392354e-15
4.28479405763855e-15
4.23376038479364e-15
4.18198211475774e-15
4.13064890989562e-15
4.08124718071625e-15
4.03645493546846e-15
4.00610882698516e-15
4.76951298504362e-14
4.70661624808547e-14
4.64388840989458e-14
4.58139018406553e-14
4.51910177030943e-14
4.4570201911451e-14
4.39514531117646e-14
4.33347520742889e-14
4.27200772138411e-14
4.21074268468316e-14
4.14967974502068e-14
4.08881715483214e-14
4.0281541948837e-14
3.96769157528209e-14
3.90742888770844e-14
3.84736484930524e-14
3.78749962143033e-14
3.72783392833801e-14
3.66836720698177e-14
3.60909892500764e-14
3.55002994685602e-14
3.49116069084665e-14
3.4324903821166e-14
3.37401927059616e-14
3.31574875031593e-14
3.25767892121176e-14
3.1998091895134e-14
3.14214059609427e-14
3.08467441201596e-14
3.0274101962643e-14
2.97034820630923e-14
2.91349094301635e-14
2.85683948499133e-14
2.80039307399573e-14
2.74415332767277e-14
2.6881233706474e-14
2.63230383392513e-14
2.57669524530911e-14
2.521301832978e-14
2.4661272422084e-14
2.41117156611356e-14
2.35643781361325e-14
2.30193376039487e-14
2.24766326709071e-14
2.19362742391607e-14
2.13983464086461e-14
2.08629563394064e-14
2.03301298264663e-14
1.97999296052085e-14
1.92725575793635e-14
1.87481409612888e-14
1.82266917395498e-14
1.77083868649646e-14
1.71935275831852e-14
1.66822398286244e-14
1.61746371233039e-14
1.56711203455466e-14
1.5172051300564e-14
1.4677516206844e-14
1.41878676214941e-14
1.37038541366523e-14
1.32258310523949e-14
1.27539712825221e-14
1.2289398339351e-14
1.183388057012e-14
1.13888483132418e-14
1.09569626525539e-14
1.054284307248e-14
1.01487472106118e-14
9.77414151120032e-15
9.41964570038785e-15
9.08496717599501e-15
8.76681630623749e-15
8.4622848469751e-15
8.16956240128041e-15
7.88536525083204e-15
7.60544475849459e-15
7.32585076975216e-15
7.04243122339863e-15
6.75139661480536e-15
6.44858993965349e-15
6.12869562926598e-15
5.78825618530164e-15
5.42494630571318e-15
5.03465245033627e-15
4.64745056351654e-15
4.48097629197451e-15
4.48968393144199e-15
4.47951265415623e-15
4.45536419967286e-15
4.42156020406158e-15
4.38065082506425e-15
4.33475147671571e-15
4.28576250992919e-15
4.23493135019735e-15
4.18335056074394e-15
4.13220407335767e-15
4.08296496178048e-15
4.03824248773284e-15
4.007798591612e-15
4.86802876723286e-14
4.80250023212272e-14
4.73756100404136e-14
4.67287957226919e-14
4.60843389738258e-14
4.54422066004235e-14
4.4802397387789e-14
4.41648919050808e-14
4.35296679917132e-14
4.28967234020446e-14
4.22660544826199e-14
4.16376436753631e-14
4.10114833990695e-14
4.0387580644958e-14
3.97659311366377e-14
3.9146521924542e-14
3.85293545113968e-14
3.79144362756901e-14
3.73017613704116e-14
3.66913242221739e-14
3.60831335666304e-14
3.54771936553718e-14
3.48734967977446e-14
3.42720453510913e-14
3.36728528207611e-14
3.30759205051788e-14
3.24812425933345e-14
3.18888292164308e-14
3.12986935683376e-14
3.07108310732251e-14
3.01252439527802e-14
2.95419574229042e-14
2.89609827916453e-14
2.83823120888794e-14
2.78059613234633e-14
2.72319621549013e-14
2.666032108195e-14
2.60910433312262e-14
2.55241710185548e-14
2.49597412254387e-14
2.43977550600378e-14
2.38382422574249e-14
2.32812810402819e-14
2.27269108702205e-14
2.21751425940879e-14
2.16260598805442e-14
2.1079771009452e-14
2.05363026221188e-14
1.99957164893781e-14
1.9458215587487e-14
1.89239292725595e-14
1.83928688909844e-14
1.78652107317526e-14
1.73412580617655e-14
1.68211387144101e-14
1.63049646048149e-14
1.57931371988891e-14
1.52860221874151e-14
1.47837044354034e-14
1.42865342063927e-14
1.37952640493971e-14
1.33102519026663e-14
1.28316660083382e-14
1.2360627175605e-14
1.18989097846893e-14
1.14479454894516e-14
1.10103910968926e-14
1.05908814562551e-14
1.01916900520313e-14
9.81226656791197e-15
9.45320912031839e-15
9.11421351446981e-15
8.79196204225507e-15
8.48350774866462e-15
8.18701471236098e-15
7.89917893449875e-15
7.6157283668021e-15
7.33269310604944e-15
7.04590758084611e-15
6.75157627483847e-15
6.44554521115837e-15
6.122501407114e-15
5.7789907366148e-15
5.41270855439583e-15
5.01970415598219e-15
4.63088898783413e-15
4.46455287814243e-15
4.47257212023991e-15
4.46238593919478e-15
4.43833108483207e-15
4.404663959e-15
4.36391732638432e-15
4.31819688238967e-15
4.2693949652421e-15
4.21875316046893e-15
4.16735961178345e-15
4.11639253515148e-15
4.06730669956801e-15
4.02252470463938e-15
3.98913217198724e-15
)
;


// ************************************************************************* //
