# wallShearStress  FACE_DATA 1536
#  x  y  z  wallShearStress_x  wallShearStress_y  wallShearStress_z  
-0.02448 -0.004948 0.00048735 0.00012902 -5.8772e-06 -2.5813e-07
-0.02448 -0.004758 0.0014433 0.00011019 -4.6502e-06 1.2764e-06
-0.02448 -0.004385 0.0023439 0.00010246 -3.634e-06 1.9339e-06
-0.02448 -0.0038435 0.0031543 9.748e-05 -3.4451e-06 2.7166e-06
-0.02448 -0.0031543 0.0038435 9.7488e-05 -2.7101e-06 3.4471e-06
-0.02448 -0.0023439 0.004385 0.00010248 -1.9248e-06 3.6309e-06
-0.02448 -0.0014433 0.004758 0.00011023 -1.2677e-06 4.6363e-06
-0.02448 -0.00048735 0.004948 0.00012908 2.6369e-07 5.8517e-06
-0.023439 -0.0049408 0.00048666 0.00011834 -5.9173e-05 6.9408e-06
-0.023439 -0.0047512 0.0014413 0.00010268 -4.7769e-05 1.6461e-05
-0.023439 -0.0043789 0.0023406 9.5553e-05 -3.8779e-05 2.2663e-05
-0.023439 -0.0038382 0.00315 9.0636e-05 -3.4361e-05 2.793e-05
-0.023439 -0.00315 0.0038382 9.0641e-05 -2.7913e-05 3.4359e-05
-0.023439 -0.0023406 0.0043789 9.557e-05 -2.2638e-05 3.8758e-05
-0.023439 -0.0014413 0.0047512 0.00010271 -1.6436e-05 4.772e-05
-0.023439 -0.00048666 0.0049408 0.00011838 -6.9237e-06 5.9087e-05
-0.022398 -0.0049359 0.00048616 0.00015195 -8.1442e-05 1.0531e-05
-0.022398 -0.0047466 0.0014399 0.0001307 -6.4238e-05 2.1157e-05
-0.022398 -0.0043748 0.0023384 0.00012005 -5.1227e-05 3.0065e-05
-0.022398 -0.0038348 0.0031471 0.0001136 -4.4645e-05 3.6179e-05
-0.022398 -0.0031471 0.0038348 0.00011361 -3.6161e-05 4.4647e-05
-0.022398 -0.0023384 0.0043748 0.00012007 -3.0036e-05 5.1219e-05
-0.022398 -0.0014399 0.0047466 0.00013072 -2.1122e-05 6.4183e-05
-0.022398 -0.00048616 0.0049359 0.00015198 -1.0501e-05 8.1318e-05
-0.021357 -0.0049349 0.00048601 0.00017409 -4.8093e-05 1.0607e-05
-0.021357 -0.0047455 0.0014395 0.00014843 -3.3772e-05 1.34e-05
-0.021357 -0.004374 0.0023379 0.00013483 -2.3195e-05 1.6281e-05
-0.021357 -0.0038342 0.0031467 0.00012823 -2.0224e-05 1.6129e-05
-0.021357 -0.0031467 0.0038342 0.00012823 -1.6104e-05 2.0236e-05
-0.021357 -0.0023379 0.004374 0.00013484 -1.6242e-05 2.3195e-05
-0.021357 -0.0014395 0.0047455 0.00014845 -1.336e-05 3.3722e-05
-0.021357 -0.000486 0.0049349 0.0001741 -1.0581e-05 4.7957e-05
-0.020316 -0.004938 0.00048631 0.00016132 3.3298e-05 5.8315e-06
-0.020316 -0.0047486 0.0014404 0.00013563 3.8548e-05 -8.558e-06
-0.020316 -0.0043768 0.0023394 0.00012118 3.9851e-05 -1.704e-05
-0.020316 -0.0038367 0.0031487 0.00011548 3.4494e-05 -2.8729e-05
-0.020316 -0.0031487 0.0038367 0.00011548 2.8766e-05 -3.4481e-05
-0.020316 -0.0023394 0.0043768 0.00012119 1.7088e-05 -3.9874e-05
-0.020316 -0.0014404 0.0047485 0.00013564 8.5951e-06 -3.8621e-05
-0.020316 -0.00048631 0.004938 0.00016132 -5.8218e-06 -3.344e-05
-0.019276 -0.0049455 0.0004871 9.2231e-05 0.0001449 -1.5028e-06
-0.019276 -0.0047558 0.0014427 7.4465e-05 0.00013563 -3.8138e-05
-0.019276 -0.0043834 0.002343 6.3632e-05 0.00012297 -6.1559e-05
-0.019276 -0.0038423 0.0031533 5.9756e-05 0.00010579 -8.7152e-05
-0.019276 -0.0031533 0.0038423 5.9757e-05 8.7188e-05 -0.00010578
-0.019276 -0.002343 0.0043834 6.3636e-05 6.1609e-05 -0.000123
-0.019276 -0.0014427 0.0047558 7.447e-05 3.8172e-05 -0.00013572
-0.019276 -0.0004871 0.0049455 9.2232e-05 1.5007e-06 -0.00014504
-0.018236 -0.0049574 0.00048829 -3.0209e-05 0.00025091 -1.0221e-05
-0.018236 -0.0047672 0.0014462 -3.3187e-05 0.00022818 -6.8079e-05
-0.018236 -0.0043937 0.0023485 -3.6011e-05 0.00020154 -0.00010475
-0.018236 -0.0038512 0.0031606 -3.6668e-05 0.00017245 -0.00014204
-0.018236 -0.0031606 0.0038512 -3.6664e-05 0.00014208 -0.00017245
-0.018236 -0.0023485 0.0043937 -3.6012e-05 0.00010481 -0.0002016
-0.018236 -0.0014462 0.0047671 -3.3187e-05 6.8118e-05 -0.0002283
-0.018236 -0.00048829 0.0049574 -3.021e-05 1.0209e-05 -0.00025107
-0.017197 -0.0049725 0.00048975 -0.00018468 0.00031914 -1.5766e-05
-0.017197 -0.0047815 0.0014505 -0.00016907 0.00028821 -8.745e-05
-0.017196 -0.0044068 0.0023555 -0.00016124 0.00025196 -0.0001329
-0.017196 -0.0038627 0.00317 -0.0001571 0.00021424 -0.00017651
-0.017196 -0.00317 0.0038627 -0.0001571 0.00017653 -0.00021423
-0.017196 -0.0023555 0.0044068 -0.00016122 0.00013295 -0.00025202
-0.017197 -0.0014505 0.0047815 -0.00016906 8.7483e-05 -0.00028834
-0.017197 -0.00048975 0.0049725 -0.0001847 1.5744e-05 -0.00031928
-0.016157 -0.0049887 0.0004913 -0.00034945 0.00033838 -1.746e-05
-0.016157 -0.0047969 0.0014551 -0.00031504 0.0003051 -9.2942e-05
-0.016157 -0.0044209 0.002363 -0.00029583 0.00026572 -0.00014087
-0.016157 -0.003875 0.0031802 -0.00028617 0.00022542 -0.00018565
-0.016157 -0.0031802 0.003875 -0.00028615 0.00018569 -0.00022542
-0.016157 -0.002363 0.0044209 -0.0002958 0.00014093 -0.00026578
-0.016157 -0.0014551 0.0047969 -0.00031505 9.2983e-05 -0.00030522
-0.016157 -0.0004913 0.0049887 -0.00034949 1.7439e-05 -0.00033851
-0.015117 -0.0050041 0.0004928 -0.00050193 0.00031671 -1.5976e-05
-0.015117 -0.0048116 0.0014595 -0.00045066 0.00028557 -8.6795e-05
-0.015117 -0.0044343 0.0023702 -0.0004211 0.00024866 -0.00013174
-0.015117 -0.0038867 0.0031898 -0.00040647 0.00021111 -0.00017362
-0.015117 -0.0031898 0.0038867 -0.00040647 0.00017369 -0.00021112
-0.015117 -0.0023702 0.0044343 -0.0004211 0.00013184 -0.00024872
-0.015117 -0.0014595 0.0048116 -0.00045069 8.6838e-05 -0.00028568
-0.015117 -0.0004928 0.0050041 -0.00050195 1.594e-05 -0.00031686
-0.014078 -0.0050174 0.00049412 -0.00062886 0.00027712 -1.3434e-05
-0.014078 -0.0048243 0.0014634 -0.00056446 0.00024991 -7.5871e-05
-0.014078 -0.004446 0.0023765 -0.00052668 0.00021791 -0.00011535
-0.014078 -0.0038969 0.0031982 -0.00050808 0.00018547 -0.00015228
-0.014078 -0.0031982 0.0038969 -0.00050808 0.00015234 -0.00018549
-0.014078 -0.0023765 0.004446 -0.0005267 0.00011542 -0.00021797
-0.014078 -0.0014634 0.0048243 -0.00056447 7.5893e-05 -0.00025
-0.014078 -0.00049412 0.0050174 -0.00062887 1.3406e-05 -0.00027725
-0.013039 -0.0050287 0.00049527 -0.00073214 0.00024263 -1.1655e-05
-0.013039 -0.0048353 0.0014668 -0.0006578 0.00021834 -6.6423e-05
-0.013039 -0.004456 0.0023818 -0.00061377 0.00019061 -0.00010108
-0.013039 -0.0039057 0.0032053 -0.00059201 0.00016283 -0.00013357
-0.013039 -0.0032053 0.0039057 -0.00059201 0.00013359 -0.00016284
-0.013039 -0.0023818 0.004456 -0.00061379 0.00010111 -0.00019064
-0.013039 -0.0014668 0.0048353 -0.0006578 6.6438e-05 -0.00021841
-0.013039 -0.00049527 0.0050287 -0.00073215 1.1643e-05 -0.00024273
-0.02448 0.00048735 0.004948 0.00012908 -2.6486e-07 5.8515e-06
-0.02448 0.0014433 0.004758 0.00011022 1.2641e-06 4.6325e-06
-0.02448 0.0023439 0.004385 0.00010248 1.921e-06 3.6249e-06
-0.02448 0.0031543 0.0038435 9.7486e-05 2.7065e-06 3.4411e-06
-0.02448 0.0038435 0.0031543 9.748e-05 3.4408e-06 2.7101e-06
-0.02448 0.004385 0.0023439 0.00010247 3.6294e-06 1.9255e-06
-0.02448 0.004758 0.0014433 0.0001102 4.6401e-06 1.2666e-06
-0.02448 0.004948 0.00048735 0.00012905 5.8608e-06 -2.6517e-07
-0.023439 0.00048666 0.0049408 0.00011838 6.9205e-06 5.9086e-05
-0.023439 0.0014413 0.0047512 0.00010271 1.6429e-05 4.7715e-05
-0.023439 0.0023406 0.0043789 9.556e-05 2.2629e-05 3.875e-05
-0.023439 0.00315 0.0038382 9.0629e-05 2.7903e-05 3.4347e-05
-0.023439 0.0038382 0.00315 9.0624e-05 3.4355e-05 2.7916e-05
-0.023439 0.0043789 0.0023406 9.5545e-05 3.8776e-05 2.2646e-05
-0.023439 0.0047512 0.0014413 0.00010268 4.7749e-05 1.644e-05
-0.023439 0.0049408 0.00048666 0.00011835 5.9127e-05 6.9218e-06
-0.022398 0.00048616 0.0049359 0.00015197 1.0495e-05 8.1317e-05
-0.022398 0.0014399 0.0047466 0.00013071 2.1106e-05 6.4177e-05
-0.022398 0.0023384 0.0043748 0.00012005 3.002e-05 5.1216e-05
-0.022398 0.0031471 0.0038348 0.00011359 3.6152e-05 4.4647e-05
-0.022398 0.0038348 0.0031471 0.00011358 4.4657e-05 3.6179e-05
-0.022398 0.0043748 0.0023384 0.00012004 5.1246e-05 3.0047e-05
-0.022398 0.0047466 0.0014399 0.00013069 6.423e-05 2.1126e-05
-0.022398 0.0049359 0.00048616 0.00015195 8.1397e-05 1.0497e-05
-0.021357 0.00048601 0.0049349 0.0001741 1.0561e-05 4.796e-05
-0.021357 0.0014395 0.0047455 0.00014844 1.3338e-05 3.3721e-05
-0.021357 0.0023379 0.004374 0.00013483 1.6233e-05 2.3207e-05
-0.021357 0.0031467 0.0038342 0.00012821 1.6112e-05 2.0265e-05
-0.021357 0.0038342 0.0031467 0.00012821 2.0253e-05 1.6147e-05
-0.021357 0.004374 0.0023379 0.00013482 2.3232e-05 1.627e-05
-0.021357 0.0047455 0.0014395 0.00014842 3.3799e-05 1.3368e-05
-0.021357 0.0049349 0.00048601 0.00017408 4.8068e-05 1.0562e-05
-0.020316 0.00048631 0.004938 0.00016132 5.7882e-06 -3.3429e-05
-0.020316 0.0014404 0.0047485 0.00013563 -8.6227e-06 -3.8613e-05
-0.020316 0.0023394 0.0043768 0.00012118 -1.7088e-05 -3.9842e-05
-0.020316 0.0031487 0.0038367 0.00011547 -2.874e-05 -3.4439e-05
-0.020316 0.0038367 0.0031487 0.00011547 -3.4457e-05 -2.8705e-05
-0.020316 0.0043768 0.0023394 0.00012117 -3.9808e-05 -1.7045e-05
-0.020316 0.0047486 0.0014404 0.00013563 -3.8525e-05 -8.588e-06
-0.020316 0.004938 0.00048631 0.00016133 -3.3327e-05 5.7888e-06
-0.019276 0.0004871 0.0049455 9.2227e-05 -1.5429e-06 -0.00014502
-0.019276 0.0014427 0.0047558 7.4468e-05 -3.8201e-05 -0.0001357
-0.019276 0.002343 0.0043834 6.3633e-05 -6.1602e-05 -0.00012296
-0.019276 0.0031533 0.0038423 5.9756e-05 -8.7155e-05 -0.00010573
-0.019276 0.0038423 0.0031533 5.9756e-05 -0.00010574 -8.7124e-05
-0.019276 0.0043834 0.002343 6.3635e-05 -0.00012293 -6.1563e-05
-0.019276 0.0047558 0.0014427 7.4472e-05 -0.00013564 -3.8168e-05
-0.019276 0.0049455 0.0004871 9.2233e-05 -0.00014495 -1.5392e-06
-0.018236 0.00048829 0.0049574 -3.0212e-05 -1.0254e-05 -0.00025106
-0.018236 0.0014462 0.0047671 -3.3186e-05 -6.8144e-05 -0.00022827
-0.018236 0.0023485 0.0043937 -3.601e-05 -0.00010481 -0.00020155
-0.018236 0.0031606 0.0038512 -3.6659e-05 -0.00014205 -0.0001724
-0.018236 0.0038512 0.0031606 -3.6659e-05 -0.0001724 -0.00014203
-0.018236 0.0043937 0.0023485 -3.601e-05 -0.00020152 -0.00010477
-0.018236 0.0047672 0.0014462 -3.3184e-05 -0.00022821 -6.8109e-05
-0.018236 0.0049574 0.00048829 -3.0212e-05 -0.00025097 -1.0249e-05
-0.017197 0.00048975 0.0049725 -0.00018471 -1.5794e-05 -0.00031928
-0.017197 0.0014505 0.0047815 -0.00016906 -8.7503e-05 -0.00028831
-0.017196 0.0023555 0.0044068 -0.00016122 -0.00013296 -0.00025197
-0.017196 0.00317 0.0038627 -0.00015709 -0.00017652 -0.00021419
-0.017196 0.0038627 0.00317 -0.00015709 -0.0002142 -0.00017649
-0.017196 0.0044068 0.0023555 -0.00016123 -0.00025195 -0.00013291
-0.017197 0.0047815 0.0014505 -0.00016908 -0.00028825 -8.7472e-05
-0.017197 0.0049725 0.00048975 -0.0001847 -0.00031919 -1.5784e-05
-0.016157 0.0004913 0.0049887 -0.0003495 -1.7482e-05 -0.0003385
-0.016157 0.0014551 0.0047969 -0.00031505 -9.3007e-05 -0.00030517
-0.016157 0.002363 0.0044209 -0.00029579 -0.00014094 -0.00026574
-0.016157 0.0031802 0.003875 -0.00028614 -0.00018569 -0.00022539
-0.016157 0.003875 0.0031802 -0.00028614 -0.00022541 -0.00018563
-0.016157 0.0044209 0.002363 -0.00029581 -0.00026572 -0.00014088
-0.016157 0.0047969 0.0014551 -0.00031506 -0.00030511 -9.2959e-05
-0.016157 0.0049887 0.0004913 -0.00034949 -0.0003384 -1.7459e-05
-0.015117 0.0004928 0.0050041 -0.00050195 -1.5984e-05 -0.00031685
-0.015117 0.0014595 0.0048116 -0.00045068 -8.686e-05 -0.00028565
-0.015117 0.0023702 0.0044343 -0.00042109 -0.00013184 -0.00024871
-0.015117 0.0031898 0.0038867 -0.00040646 -0.00017369 -0.00021111
-0.015117 0.0038867 0.0031898 -0.00040645 -0.00021114 -0.00017363
-0.015117 0.0044343 0.0023702 -0.0004211 -0.00024868 -0.00013176
-0.015117 0.0048116 0.0014595 -0.0004507 -0.00028556 -8.678e-05
-0.015117 0.0050041 0.0004928 -0.00050197 -0.00031668 -1.5961e-05
-0.014078 0.00049412 0.0050174 -0.00062887 -1.3438e-05 -0.00027726
-0.014078 0.0014634 0.0048243 -0.00056447 -7.5925e-05 -0.00025
-0.014078 0.0023765 0.004446 -0.00052669 -0.00011543 -0.00021796
-0.014078 0.0031982 0.0038969 -0.00050806 -0.00015235 -0.00018547
-0.014078 0.003897 0.0031982 -0.00050807 -0.0001855 -0.00015229
-0.014078 0.004446 0.0023765 -0.00052668 -0.00021792 -0.00011534
-0.014078 0.0048243 0.0014634 -0.00056448 -0.00024986 -7.5823e-05
-0.014078 0.0050174 0.00049412 -0.00062887 -0.00027703 -1.3388e-05
-0.013039 0.00049527 0.0050287 -0.00073214 -1.1653e-05 -0.00024274
-0.013039 0.0014668 0.0048353 -0.0006578 -6.6462e-05 -0.0002184
-0.013039 0.0023818 0.004456 -0.00061377 -0.00010113 -0.00019062
-0.013039 0.0032053 0.0039057 -0.000592 -0.0001336 -0.00016281
-0.013039 0.0039057 0.0032053 -0.00059198 -0.00016283 -0.00013354
-0.013039 0.004456 0.0023818 -0.00061375 -0.00019059 -0.00010105
-0.013039 0.0048353 0.0014668 -0.00065775 -0.00021828 -6.6371e-05
-0.013039 0.0050287 0.00049527 -0.0007321 -0.0002425 -1.1621e-05
-0.02448 0.004948 -0.00048735 0.00012905 5.8619e-06 2.6012e-07
-0.02448 0.004758 -0.0014433 0.00011021 4.6409e-06 -1.2723e-06
-0.02448 0.004385 -0.0023439 0.00010247 3.6322e-06 -1.9304e-06
-0.02448 0.0038435 -0.0031543 9.7485e-05 3.4461e-06 -2.7161e-06
-0.02448 0.0031543 -0.0038435 9.7487e-05 2.7138e-06 -3.4486e-06
-0.02448 0.0023439 -0.004385 0.00010248 1.9284e-06 -3.6336e-06
-0.02448 0.0014433 -0.004758 0.00011022 1.272e-06 -4.6438e-06
-0.02448 0.00048735 -0.004948 0.00012905 -2.5908e-07 -5.8645e-06
-0.023439 0.0049408 -0.00048666 0.00011836 5.913e-05 -6.9348e-06
-0.023439 0.0047512 -0.0014413 0.00010269 4.775e-05 -1.6452e-05
-0.023439 0.0043789 -0.0023406 9.5561e-05 3.8783e-05 -2.2659e-05
-0.023439 0.0038382 -0.00315 9.0645e-05 3.4366e-05 -2.7938e-05
-0.023439 0.00315 -0.0038382 9.0643e-05 2.7922e-05 -3.4379e-05
-0.023439 0.0023406 -0.0043789 9.5567e-05 2.2647e-05 -3.8772e-05
-0.023439 0.0014413 -0.0047512 0.00010271 1.6445e-05 -4.7739e-05
-0.023439 0.00048666 -0.0049408 0.00011838 6.9369e-06 -5.913e-05
-0.022398 0.0049359 -0.00048616 0.00015196 8.1401e-05 -1.0523e-05
-0.022398 0.0047466 -0.0014399 0.00013071 6.4233e-05 -2.1153e-05
-0.022398 0.0043748 -0.0023384 0.00012007 5.1237e-05 -3.0067e-05
-0.022398 0.0038348 -0.0031471 0.0001136 4.4656e-05 -3.6185e-05
-0.022398 0.0031471 -0.0038348 0.00011362 3.6175e-05 -4.4674e-05
-0.022398 0.0023384 -0.0043748 0.00012007 3.0043e-05 -5.1245e-05
-0.022398 0.0014399 -0.0047466 0.00013073 2.113e-05 -6.421e-05
-0.022398 0.00048616 -0.0049359 0.00015199 1.0518e-05 -8.1368e-05
-0.021357 0.0049349 -0.000486 0.00017409 4.8053e-05 -1.0606e-05
-0.021357 0.0047455 -0.0014395 0.00014845 3.3752e-05 -1.3398e-05
-0.021357 0.004374 -0.0023379 0.00013485 2.3179e-05 -1.6282e-05
-0.021357 0.0038342 -0.0031467 0.00012825 2.0222e-05 -1.6127e-05
-0.021357 0.0031467 -0.0038342 0.00012824 1.6112e-05 -2.0243e-05
-0.021357 0.0023379 -0.004374 0.00013486 1.6252e-05 -2.3206e-05
-0.021357 0.0014395 -0.0047455 0.00014847 1.3366e-05 -3.3752e-05
-0.021357 0.000486 -0.0049349 0.00017412 1.0588e-05 -4.801e-05
-0.020316 0.004938 -0.00048631 0.00016133 -3.3347e-05 -5.8483e-06
-0.020316 0.0047485 -0.0014404 0.00013565 -3.8592e-05 8.5522e-06
-0.020316 0.0043768 -0.0023394 0.0001212 -3.988e-05 1.7042e-05
-0.020316 0.0038367 -0.0031487 0.0001155 -3.4503e-05 2.8724e-05
-0.020316 0.0031487 -0.0038367 0.00011551 -2.8763e-05 3.4478e-05
-0.020316 0.0023394 -0.0043768 0.00012121 -1.7084e-05 3.9868e-05
-0.020316 0.0014404 -0.0047485 0.00013566 -8.6006e-06 3.8602e-05
-0.020316 0.00048631 -0.004938 0.00016136 5.8141e-06 3.3406e-05
-0.019276 0.0049455 -0.0004871 9.2241e-05 -0.00014497 1.4728e-06
-0.019276 0.0047558 -0.0014427 7.4482e-05 -0.00013569 3.8126e-05
-0.019276 0.0043834 -0.002343 6.3651e-05 -0.00012301 6.1563e-05
-0.019276 0.0038423 -0.0031533 5.9774e-05 -0.0001058 8.7154e-05
-0.019276 0.0031533 -0.0038423 5.9776e-05 -8.7194e-05 0.00010578
-0.019276 0.002343 -0.0043834 6.3657e-05 -6.1614e-05 0.000123
-0.019276 0.0014427 -0.0047558 7.4498e-05 -3.8194e-05 0.00013572
-0.019276 0.0004871 -0.0049455 9.2265e-05 -1.5232e-06 0.00014504
-0.018236 0.0049574 -0.00048829 -3.0207e-05 -0.000251 1.0176e-05
-0.018236 0.0047671 -0.0014462 -3.318e-05 -0.00022829 6.8069e-05
-0.018236 0.0043937 -0.0023485 -3.6002e-05 -0.00020162 0.00010477
-0.018236 0.0038512 -0.0031606 -3.6649e-05 -0.00017248 0.00014206
-0.018236 0.0031606 -0.0038512 -3.6646e-05 -0.0001421 0.00017245
-0.018236 0.0023485 -0.0043937 -3.5994e-05 -0.00010483 0.00020159
-0.018236 0.0014462 -0.0047671 -3.3164e-05 -6.8142e-05 0.00022829
-0.018236 0.00048829 -0.0049574 -3.0186e-05 -1.0238e-05 0.00025107
-0.017197 0.0049725 -0.00048975 -0.00018471 -0.00031921 1.5716e-05
-0.017197 0.0047815 -0.0014505 -0.00016908 -0.00028834 8.7435e-05
-0.017196 0.0044068 -0.0023555 -0.00016123 -0.00025205 0.00013293
-0.017196 0.0038627 -0.00317 -0.0001571 -0.00021428 0.00017652
-0.017196 0.00317 -0.0038627 -0.0001571 -0.00017657 0.00021424
-0.017196 0.0023555 -0.0044068 -0.00016122 -0.000133 0.00025202
-0.017197 0.0014505 -0.0047815 -0.00016906 -8.7515e-05 0.00028835
-0.017197 0.00048975 -0.0049725 -0.00018468 -1.5787e-05 0.0003193
-0.016157 0.0049887 -0.0004913 -0.00034951 -0.00033842 1.7389e-05
-0.016157 0.0047969 -0.0014551 -0.00031507 -0.00030518 9.2934e-05
-0.016157 0.0044209 -0.002363 -0.00029582 -0.0002658 0.00014088
-0.016157 0.003875 -0.0031802 -0.00028616 -0.00022546 0.00018566
-0.016157 0.0031802 -0.003875 -0.00028616 -0.00018573 0.00022541
-0.016157 0.002363 -0.0044209 -0.00029581 -0.00014095 0.00026577
-0.016157 0.0014551 -0.0047969 -0.00031505 -9.3018e-05 0.00030521
-0.016157 0.0004913 -0.0049887 -0.00034948 -1.7465e-05 0.00033855
-0.015117 0.0050041 -0.0004928 -0.00050198 -0.00031671 1.5907e-05
-0.015117 0.0048116 -0.0014595 -0.0004507 -0.00028561 8.6752e-05
-0.015117 0.0044343 -0.0023702 -0.0004211 -0.00024871 0.00013177
-0.015117 0.0038867 -0.0031898 -0.00040647 -0.00021117 0.00017365
-0.015117 0.0031898 -0.0038867 -0.00040647 -0.00017372 0.00021112
-0.015117 0.0023702 -0.0044343 -0.00042111 -0.00013185 0.00024871
-0.015117 0.0014595 -0.0048116 -0.0004507 -8.6852e-05 0.00028567
-0.015117 0.0004928 -0.0050041 -0.00050197 -1.5989e-05 0.00031688
-0.014078 0.0050174 -0.00049412 -0.00062888 -0.00027704 1.3365e-05
-0.014078 0.0048243 -0.0014634 -0.00056447 -0.00024988 7.5821e-05
-0.014078 0.004446 -0.0023765 -0.00052669 -0.00021794 0.00011534
-0.014078 0.003897 -0.0031982 -0.00050808 -0.00018553 0.00015228
-0.014078 0.0031982 -0.0038969 -0.00050809 -0.00015237 0.00018548
-0.014078 0.0023765 -0.004446 -0.0005267 -0.00011544 0.00021796
-0.014078 0.0014634 -0.0048243 -0.00056451 -7.5929e-05 0.00024998
-0.014078 0.00049412 -0.0050174 -0.00062891 -1.3446e-05 0.00027725
-0.013039 0.0050287 -0.00049527 -0.0007321 -0.00024252 1.1609e-05
-0.013039 0.0048353 -0.0014668 -0.00065777 -0.0002183 6.6368e-05
-0.013039 0.004456 -0.0023818 -0.00061377 -0.00019061 0.00010104
-0.013039 0.0039057 -0.0032053 -0.00059201 -0.00016284 0.00013354
-0.013039 0.0032053 -0.0039057 -0.00059202 -0.0001336 0.00016281
-0.013039 0.0023818 -0.004456 -0.0006138 -0.00010115 0.00019064
-0.013039 0.0014668 -0.0048353 -0.00065783 -6.6492e-05 0.00021842
-0.013039 0.00049527 -0.0050287 -0.00073217 -1.1678e-05 0.00024273
-0.02448 -0.00048735 -0.004948 0.00012905 2.6487e-07 -5.8673e-06
-0.02448 -0.0014433 -0.004758 0.0001102 -1.2706e-06 -4.6515e-06
-0.02448 -0.0023439 -0.004385 0.00010245 -1.9317e-06 -3.6457e-06
-0.02448 -0.0031543 -0.0038435 9.7458e-05 -2.7223e-06 -3.4619e-06
-0.02448 -0.0038435 -0.0031543 9.7451e-05 -3.4599e-06 -2.7283e-06
-0.02448 -0.004385 -0.0023439 0.00010244 -3.6502e-06 -1.9403e-06
-0.02448 -0.004758 -0.0014433 0.00011017 -4.6639e-06 -1.2777e-06
-0.02448 -0.004948 -0.00048735 0.00012901 -5.8834e-06 2.621e-07
-0.023439 -0.00048666 -0.0049408 0.00011837 -6.9171e-06 -5.9151e-05
-0.023439 -0.0014413 -0.0047512 0.0001027 -1.6442e-05 -4.7778e-05
-0.023439 -0.0023406 -0.0043789 9.5553e-05 -2.2653e-05 -3.88e-05
-0.023439 -0.00315 -0.0038382 9.0622e-05 -2.7945e-05 -3.4401e-05
-0.023439 -0.0038382 -0.00315 9.0617e-05 -3.4404e-05 -2.7965e-05
-0.023439 -0.0043789 -0.0023406 9.5534e-05 -3.8825e-05 -2.2681e-05
-0.023439 -0.0047512 -0.0014413 0.00010267 -4.7801e-05 -1.6462e-05
-0.023439 -0.0049408 -0.00048666 0.00011834 -5.9181e-05 -6.9244e-06
-0.022398 -0.00048616 -0.0049359 0.00015199 -1.0489e-05 -8.139e-05
-0.022398 -0.0014399 -0.0047466 0.00013072 -2.1122e-05 -6.4261e-05
-0.022398 -0.0023384 -0.0043748 0.00012007 -3.0051e-05 -5.1278e-05
-0.022398 -0.0031471 -0.0038348 0.0001136 -3.619e-05 -4.4712e-05
-0.022398 -0.0038348 -0.0031471 0.0001136 -4.4691e-05 -3.6237e-05
-0.022398 -0.0043748 -0.0023384 0.00012005 -5.1302e-05 -3.0098e-05
-0.022398 -0.0047466 -0.0014399 0.00013069 -6.4306e-05 -2.1162e-05
-0.022398 -0.0049359 -0.00048616 0.00015195 -8.1463e-05 -1.0506e-05
-0.021357 -0.00048601 -0.0049349 0.00017413 -1.0561e-05 -4.8015e-05
-0.021357 -0.0014395 -0.0047455 0.00014847 -1.3353e-05 -3.3787e-05
-0.021357 -0.0023379 -0.004374 0.00013486 -1.6253e-05 -2.3254e-05
-0.021357 -0.0031467 -0.0038342 0.00012825 -1.6125e-05 -2.0302e-05
-0.021357 -0.0038342 -0.0031467 0.00012824 -2.0254e-05 -1.6188e-05
-0.021357 -0.004374 -0.0023379 0.00013484 -2.3254e-05 -1.6313e-05
-0.021357 -0.0047455 -0.0014395 0.00014844 -3.3854e-05 -1.3407e-05
-0.021357 -0.0049349 -0.00048601 0.00017409 -4.8127e-05 -1.0581e-05
-0.020316 -0.00048631 -0.004938 0.00016137 -5.7935e-06 3.3396e-05
-0.020316 -0.0014404 -0.0047485 0.00013568 8.6129e-06 3.8579e-05
-0.020316 -0.0023394 -0.0043768 0.00012122 1.7089e-05 3.9831e-05
-0.020316 -0.0031487 -0.0038367 0.00011552 2.8746e-05 3.443e-05
-0.020316 -0.0038367 -0.0031487 0.00011551 3.4464e-05 2.8682e-05
-0.020316 -0.0043768 -0.0023394 0.0001212 3.9819e-05 1.7015e-05
-0.020316 -0.0047486 -0.0014404 0.00013565 3.8506e-05 8.5496e-06
-0.020316 -0.004938 -0.00048632 0.00016133 3.3281e-05 -5.8189e-06
-0.019276 -0.0004871 -0.0049455 9.2275e-05 1.5304e-06 0.00014504
-0.019276 -0.0014427 -0.0047558 7.4515e-05 3.8201e-05 0.00013572
-0.019276 -0.002343 -0.0043834 6.368e-05 6.1622e-05 0.00012299
-0.019276 -0.0031533 -0.0038423 5.9797e-05 8.7188e-05 0.00010575
-0.019276 -0.0038423 -0.0031533 5.9793e-05 0.00010577 8.712e-05
-0.019276 -0.0043834 -0.002343 6.3666e-05 0.00012295 6.1536e-05
-0.019276 -0.0047558 -0.0014427 7.4491e-05 0.00013562 3.8124e-05
-0.019276 -0.0049455 -0.0004871 9.2243e-05 0.0001449 1.4995e-06
-0.018236 -0.00048829 -0.0049574 -3.0177e-05 1.023e-05 0.00025108
-0.018236 -0.0014462 -0.0047671 -3.3146e-05 6.8145e-05 0.00022832
-0.018236 -0.0023485 -0.0043937 -3.5973e-05 0.00010484 0.0002016
-0.018236 -0.0031606 -0.0038512 -3.6622e-05 0.0001421 0.00017243
-0.018236 -0.0038512 -0.0031606 -3.6625e-05 0.00017246 0.00014203
-0.018236 -0.0043937 -0.0023485 -3.5976e-05 0.00020156 0.00010474
-0.018236 -0.0047672 -0.0014462 -3.3159e-05 0.00022821 6.8062e-05
-0.018236 -0.0049574 -0.00048829 -3.0195e-05 0.00025093 1.0197e-05
-0.017197 -0.00048975 -0.0049725 -0.00018466 1.5762e-05 0.00031931
-0.017197 -0.0014505 -0.0047815 -0.00016905 8.7516e-05 0.00028838
-0.017196 -0.0023555 -0.0044068 -0.0001612 0.000133 0.00025204
-0.017196 -0.00317 -0.0038627 -0.00015706 0.00017658 0.00021424
-0.017196 -0.0038627 -0.00317 -0.00015706 0.00021427 0.00017649
-0.017196 -0.0044068 -0.0023555 -0.00016119 0.000252 0.00013289
-0.017197 -0.0047815 -0.0014505 -0.00016904 0.00028827 8.7417e-05
-0.017197 -0.0049725 -0.00048975 -0.00018468 0.00031916 1.573e-05
-0.016157 -0.0004913 -0.0049887 -0.00034946 1.7433e-05 0.00033856
-0.016157 -0.0014551 -0.0047969 -0.00031504 9.2998e-05 0.00030526
-0.016157 -0.002363 -0.0044209 -0.00029581 0.00014098 0.00026582
-0.016157 -0.0031802 -0.003875 -0.00028614 0.00018574 0.00022545
-0.016157 -0.003875 -0.0031802 -0.00028613 0.00022549 0.00018567
-0.016157 -0.0044209 -0.002363 -0.00029578 0.00026581 0.00014087
-0.016157 -0.0047969 -0.0014551 -0.00031503 0.00030517 9.2924e-05
-0.016157 -0.0049887 -0.0004913 -0.00034946 0.0003384 1.7401e-05
-0.015117 -0.0004928 -0.0050041 -0.00050195 1.5933e-05 0.0003169
-0.015117 -0.0014595 -0.0048116 -0.00045068 8.6826e-05 0.00028573
-0.015117 -0.0023702 -0.0044343 -0.00042109 0.00013185 0.00024877
-0.015117 -0.0031898 -0.0038867 -0.00040649 0.00017373 0.00021116
-0.015117 -0.0038867 -0.0031898 -0.00040647 0.0002112 0.00017368
-0.015117 -0.0044343 -0.0023702 -0.00042109 0.00024875 0.00013178
-0.015117 -0.0048116 -0.0014595 -0.00045068 0.00028564 8.6776e-05
-0.015117 -0.0050041 -0.0004928 -0.00050193 0.00031675 1.5915e-05
-0.014078 -0.00049412 -0.0050174 -0.00062889 1.339e-05 0.00027726
-0.014078 -0.0014634 -0.0048243 -0.00056448 7.5899e-05 0.00025003
-0.014078 -0.0023765 -0.004446 -0.0005267 0.00011544 0.00021802
-0.014078 -0.0031982 -0.0038969 -0.00050811 0.00015238 0.00018554
-0.014078 -0.003897 -0.0031982 -0.00050811 0.00018554 0.00015233
-0.014078 -0.004446 -0.0023765 -0.0005267 0.00021798 0.00011537
-0.014078 -0.0048243 -0.0014634 -0.00056448 0.00024995 7.5845e-05
-0.014078 -0.0050174 -0.00049412 -0.00062886 0.00027714 1.3376e-05
-0.013039 -0.00049527 -0.0050287 -0.00073215 1.1632e-05 0.00024274
-0.013039 -0.0014668 -0.0048353 -0.00065782 6.6454e-05 0.00021845
-0.013039 -0.0023818 -0.004456 -0.00061381 0.00010114 0.00019068
-0.013039 -0.0032053 -0.0039057 -0.00059205 0.00013362 0.00016286
-0.013039 -0.0039057 -0.0032053 -0.00059206 0.00016286 0.00013356
-0.013039 -0.004456 -0.0023818 -0.00061381 0.00019065 0.00010108
-0.013039 -0.0048353 -0.0014668 -0.0006578 0.0002184 6.6414e-05
-0.013039 -0.0050287 -0.00049527 -0.00073214 0.00024267 1.1616e-05
-0.012001 -0.0050388 0.00049628 -0.00082374 0.00022514 -1.1528e-05
-0.012001 -0.004845 0.0014697 -0.00074067 0.00020079 -6.1276e-05
-0.012001 -0.0044649 0.0023866 -0.0006912 0.00017509 -9.325e-05
-0.012001 -0.0039134 0.0032117 -0.00066659 0.00015045 -0.00012337
-0.012001 -0.0032117 0.0039134 -0.00066659 0.00012339 -0.00015043
-0.012001 -0.0023866 0.0044649 -0.0006912 9.326e-05 -0.00017509
-0.012001 -0.0014697 0.004845 -0.00074069 6.1287e-05 -0.00020086
-0.012001 -0.00049628 0.0050388 -0.00082378 1.1535e-05 -0.0002252
-0.010965 -0.0050481 0.00049718 -0.00091437 0.00021574 -1.2242e-05
-0.010964 -0.0048539 0.0014724 -0.00082188 0.00018969 -5.8001e-05
-0.010964 -0.0044731 0.0023909 -0.00076673 0.00016469 -8.824e-05
-0.010964 -0.0039206 0.0032175 -0.00073937 0.00014256 -0.00011694
-0.010964 -0.0032175 0.0039206 -0.00073937 0.00011696 -0.00014256
-0.010964 -0.0023909 0.0044731 -0.00076673 8.8256e-05 -0.00016471
-0.010964 -0.0014724 0.0048539 -0.0008219 5.8025e-05 -0.0001897
-0.010965 -0.00049718 0.0050481 -0.0009144 1.2257e-05 -0.00021574
-0.0099277 -0.005056 0.00049796 -0.0010033 0.00019045 -1.1894e-05
-0.0099276 -0.0048615 0.0014747 -0.00090041 0.00016561 -5.0928e-05
-0.0099276 -0.0044801 0.0023947 -0.00083948 0.00014309 -7.7182e-05
-0.0099277 -0.0039267 0.0032226 -0.00080971 0.00012419 -0.00010183
-0.0099277 -0.0032226 0.0039267 -0.00080972 0.00010183 -0.00012419
-0.0099276 -0.0023947 0.0044801 -0.00083949 7.7178e-05 -0.00014308
-0.0099276 -0.0014747 0.0048615 -0.00090042 5.093e-05 -0.00016557
-0.0099277 -0.00049796 0.005056 -0.0010032 1.1895e-05 -0.00019041
-0.0088906 -0.0050618 0.00049853 -0.0010766 0.00013521 -9.3388e-06
-0.0088906 -0.0048671 0.0014764 -0.00096457 0.00011642 -3.6446e-05
-0.0088906 -0.0044852 0.0023974 -0.00089878 9.9848e-05 -5.4501e-05
-0.0088906 -0.0039312 0.0032262 -0.00086721 8.6568e-05 -7.0681e-05
-0.0088906 -0.0032262 0.0039312 -0.00086719 7.0701e-05 -8.655e-05
-0.0088906 -0.0023974 0.0044852 -0.00089877 5.4496e-05 -9.9823e-05
-0.0088906 -0.0014764 0.0048671 -0.00096456 3.6427e-05 -0.00011638
-0.0088906 -0.00049853 0.0050618 -0.0010765 9.3321e-06 -0.00013519
-0.0078531 -0.0050646 0.00049879 -0.0011158 5.6762e-05 -5.0534e-06
-0.0078531 -0.0048697 0.0014772 -0.00099932 4.6667e-05 -1.5775e-05
-0.0078531 -0.0044876 0.0023987 -0.00093073 3.8269e-05 -2.2137e-05
-0.0078532 -0.0039333 0.003228 -0.00089803 3.3036e-05 -2.6451e-05
-0.0078532 -0.003228 0.0039333 -0.00089801 2.6487e-05 -3.3023e-05
-0.0078531 -0.0023987 0.0044876 -0.00093071 2.2172e-05 -3.84e-05
-0.0078531 -0.0014772 0.0048697 -0.00099929 1.5774e-05 -4.6798e-05
-0.0078531 -0.00049879 0.0050646 -0.0011157 5.0462e-06 -5.6745e-05
-0.0068154 -0.0050637 0.00049867 -0.00111 -2.4645e-05 -1.133e-06
-0.0068155 -0.0048688 0.0014769 -0.00099548 -2.6234e-05 5.6091e-06
-0.0068155 -0.0044868 0.0023983 -0.00092704 -2.6307e-05 1.1765e-05
-0.0068155 -0.0039327 0.0032275 -0.00089442 -2.3208e-05 1.975e-05
-0.0068155 -0.0032275 0.0039327 -0.0008944 -1.9733e-05 2.3201e-05
-0.0068155 -0.0023983 0.0044868 -0.00092701 -1.1731e-05 2.6165e-05
-0.0068155 -0.0014769 0.0048688 -0.00099549 -5.5908e-06 2.6106e-05
-0.0068154 -0.00049868 0.0050637 -0.00111 1.1254e-06 2.4665e-05
-0.0057777 -0.0050591 0.00049822 -0.001066 -9.2953e-05 2.6477e-06
-0.0057778 -0.0048644 0.0014755 -0.00095794 -8.7595e-05 2.4032e-05
-0.0057778 -0.0044828 0.0023962 -0.00089236 -7.9897e-05 3.9943e-05
-0.0057778 -0.0039293 0.0032247 -0.00086113 -6.8984e-05 5.7104e-05
-0.0057778 -0.0032247 0.0039292 -0.00086112 -5.7094e-05 6.8959e-05
-0.0057778 -0.0023962 0.0044828 -0.00089236 -3.9914e-05 7.987e-05
-0.0057778 -0.0014755 0.0048644 -0.00095795 -2.4018e-05 8.7595e-05
-0.0057777 -0.00049822 0.0050591 -0.001066 -2.6284e-06 9.2972e-05
-0.0047401 -0.0050517 0.00049751 -0.0010009 -0.0001362 5.2903e-06
-0.0047402 -0.0048574 0.0014734 -0.0009011 -0.00012765 3.6664e-05
-0.0047402 -0.0044765 0.0023927 -0.00083994 -0.00011463 5.838e-05
-0.0047402 -0.0039236 0.0032201 -0.00081088 -9.773e-05 8.0419e-05
-0.0047402 -0.0032201 0.0039236 -0.00081089 -8.0402e-05 9.7714e-05
-0.0047402 -0.0023927 0.0044765 -0.00083993 -5.834e-05 0.00011457
-0.0047402 -0.0014734 0.0048574 -0.00090113 -3.6639e-05 0.0001276
-0.0047401 -0.00049751 0.0050517 -0.0010009 -5.3045e-06 0.00013618
-0.0037025 -0.0050431 0.00049668 -0.00092863 -0.00015823 6.2663e-06
-0.0037026 -0.0048492 0.001471 -0.00083723 -0.00014814 4.2967e-05
-0.0037026 -0.004469 0.0023887 -0.00078092 -0.00013218 6.7786e-05
-0.0037026 -0.0039171 0.0032147 -0.00075438 -0.00011222 9.2142e-05
-0.0037026 -0.0032147 0.0039171 -0.00075437 -9.2123e-05 0.00011219
-0.0037026 -0.0023887 0.004469 -0.00078095 -6.7763e-05 0.00013211
-0.0037026 -0.001471 0.0048492 -0.00083725 -4.2972e-05 0.00014807
-0.0037025 -0.00049668 0.0050431 -0.00092869 -6.2931e-06 0.00015818
-0.0026646 -0.0050343 0.00049582 -0.00085593 -0.00016729 6.3934e-06
-0.0026647 -0.0048408 0.0014684 -0.00077231 -0.00015607 4.5217e-05