/*--------------------------------*- C++ -*----------------------------------*\
  =========                 |
  \\      /  F ield         | OpenFOAM: The Open Source CFD Toolbox
   \\    /   O peration     | Website:  https://openfoam.org
    \\  /    A nd           | Version:  8
     \\/     M anipulation  |
\*---------------------------------------------------------------------------*/
FoamFile
{
    version     2.0;
    format      ascii;
    class       volVectorField;
    location    "0.0145000";
    object      cellDisplacement;
}
// * * * * * * * * * * * * * * * * * * * * * * * * * * * * * * * * * * * * * //

dimensions      [0 1 0 0 0 0 0];

internalField   nonuniform List<vector> 
900
(
(0 -2.54163970769831e-07 -1.20257418544641e-14)
(0 -2.56464791706789e-07 -1.12572473204013e-14)
(0 -2.60686680502631e-07 -1.38946143814924e-15)
(0 -2.65749748048424e-07 -1.40419870063166e-14)
(0 -2.71343806487938e-07 1.89658779132735e-14)
(0 -2.77558380741041e-07 5.08183696128839e-14)
(0 -2.84348306421684e-07 2.93960395669602e-14)
(0 -2.91536169865433e-07 1.04453730114612e-14)
(0 -2.99165138442001e-07 2.26162587776897e-14)
(0 -3.07253319847031e-07 1.93999661076209e-14)
(0 -3.15703356296744e-07 -3.58581234909729e-15)
(0 -3.24477730047105e-07 -3.22908272436075e-16)
(0 -3.33643271226226e-07 1.79665347835216e-14)
(0 -3.4316457719266e-07 -1.33410972927392e-14)
(0 -3.52957381655704e-07 -2.97863357121792e-14)
(0 -3.63100378278624e-07 4.43246174671125e-15)
(0 -3.73603463536939e-07 2.59032324576795e-15)
(0 -3.84383785992958e-07 -2.67769498052885e-14)
(0 -3.9547775572092e-07 -2.462309064304e-14)
(0 -4.06939391467422e-07 1.67421306792621e-14)
(0 -4.18726038880286e-07 1.0303062290229e-14)
(0 -4.30807227976099e-07 3.19950781518652e-15)
(0 -4.43280142268074e-07 -1.13944985620854e-15)
(0 -4.56142829545452e-07 -7.33382369102053e-15)
(0 -4.69315068943041e-07 2.56366902127149e-14)
(0 -4.82897992985746e-07 4.96303404848363e-14)
(0 -4.96936097526331e-07 2.58053704504169e-14)
(0 -5.11351782453213e-07 -6.51074575300435e-16)
(0 -5.26185191589146e-07 -3.91088159568352e-15)
(0 -5.41541254541442e-07 -2.18347437187042e-15)
(0 -5.57383946002752e-07 1.57559428888489e-15)
(0 -5.73650401952898e-07 -4.66742407014178e-16)
(0 -5.90520970798254e-07 -1.50661252562469e-14)
(0 -6.08023665098095e-07 -1.48377991346562e-14)
(0 -6.26024983453571e-07 -1.68736423692638e-14)
(0 -6.44682201271189e-07 -1.9534131036085e-14)
(0 -6.64096858844858e-07 1.10354651496995e-15)
(0 -6.84168523537882e-07 -2.61357952420463e-14)
(0 -7.04948085599384e-07 -1.53302809163109e-14)
(0 -7.26636009192297e-07 3.00744315466708e-14)
(0 -7.49197559683737e-07 2.46978685907199e-14)
(0 -7.72513456480222e-07 -2.35905407324956e-14)
(0 -7.96928782267645e-07 -4.65621001658469e-14)
(0 -8.2251760780437e-07 4.91901477890884e-15)
(0 -8.49036011544811e-07 4.87599141860759e-15)
(0 -8.76777569881234e-07 -1.22461329429694e-14)
(0 -9.05962941708575e-07 -1.27634320141628e-14)
(0 -9.36423099811254e-07 4.38985609158379e-15)
(0 -9.68227774505905e-07 1.13862278247757e-14)
(0 -1.00180521602283e-06 1.22380804492227e-14)
(0 -1.03712413753264e-06 1.89242833577821e-14)
(0 -1.07391973724539e-06 -8.82263047270587e-15)
(0 -1.11288459351144e-06 -3.05145931645677e-14)
(0 -1.15419210417259e-06 -2.12259248702293e-14)
(0 -1.19735308515132e-06 3.29876749685458e-14)
(0 -1.24291437914813e-06 4.96850657717194e-14)
(0 -1.29134245206328e-06 5.01932987697818e-14)
(0 -1.34231963156289e-06 1.7372699091603e-14)
(0 -1.39590409467646e-06 -1.76154148899719e-14)
(0 -1.45294267051256e-06 -8.24444842313357e-15)
(0 -1.51337007398688e-06 -2.58413530775391e-14)
(0 -1.57660952239988e-06 -2.02009185055221e-14)
(0 -1.64387728561295e-06 -2.90289258944092e-14)
(0 -1.71544828699511e-06 -3.71689507715344e-14)
(0 -1.79037301982259e-06 1.13506684026715e-14)
(0 -1.86944678637028e-06 1.94423980908832e-14)
(0 -1.95335886391543e-06 -3.28454992164182e-16)
(0 -2.0414545442747e-06 -7.16828540025547e-15)
(0 -2.13362276595736e-06 5.09683677726158e-15)
(0 -2.23089146144002e-06 2.84536347708515e-14)
(0 -2.3328117031209e-06 5.51224604656774e-15)
(0 -2.43828493024513e-06 -5.61501198209803e-14)
(0 -2.54832987718519e-06 -4.60732812705585e-14)
(0 -2.66258810425185e-06 1.47502437699292e-14)
(0 -2.77947764897108e-06 -1.51261807289737e-14)
(0 -2.89887933470488e-06 -1.30051080300932e-14)
(0 -3.01969259328915e-06 7.71065571491534e-17)
(0 -3.14012721129604e-06 -9.25028222863076e-15)
(0 -3.25879512573604e-06 4.02202357032155e-14)
(0 -3.3713488600301e-06 3.16238853789186e-14)
(0 -3.47326122243558e-06 -1.29131933549345e-14)
(0 -3.56258679867985e-06 -5.68564132011923e-15)
(0 -3.62506149266283e-06 1.3680008585173e-14)
(0 -3.64452522442667e-06 -1.47294300617957e-14)
(0 -3.61596659533464e-06 -2.40780089099916e-14)
(0 -3.51720276707922e-06 -2.23769501275716e-15)
(0 -3.35565660994125e-06 3.89572756968867e-14)
(0 -3.16551179574368e-06 5.53291488786504e-14)
(0 -2.95488303146894e-06 1.65051367106686e-14)
(0 -2.73024303778202e-06 -1.41039195282256e-14)
(0 -2.50261982183481e-06 -8.85947453803276e-15)
(0 -2.27875942131223e-06 2.17649149458035e-14)
(0 -2.06564983945056e-06 2.53950771904361e-14)
(0 -1.86777212271705e-06 8.77171669514307e-15)
(0 -1.68379998181805e-06 3.78594311605092e-15)
(0 -1.51867863297981e-06 -2.01003752567135e-14)
(0 -1.37660052028014e-06 -2.51203864242126e-16)
(0 -1.25405417837175e-06 2.53491106891137e-14)
(0 -1.15000129554333e-06 1.38127038616691e-14)
(0 -1.06634989935754e-06 1.76003585329171e-15)
(0 -5.45890590230302e-07 -3.54219635535838e-14)
(0 -5.47619992769951e-07 -3.32024402530893e-14)
(0 -5.51064074905342e-07 -4.06662680178962e-15)
(0 -5.55241409958262e-07 -4.14813100686391e-14)
(0 -5.59882915473861e-07 5.57090967991733e-14)
(0 -5.65067161891866e-07 1.49834711710481e-13)
(0 -5.7075466150317e-07 8.68041888188782e-14)
(0 -5.76790688815203e-07 3.08053737203363e-14)
(0 -5.83213311731699e-07 6.67029823851642e-14)
(0 -5.90038394881349e-07 5.73346809246004e-14)
(0 -5.97180927385407e-07 -1.05415825283844e-14)
(0 -6.04608369813216e-07 -1.0275375329124e-15)
(0 -6.12379264122467e-07 5.31159459833727e-14)
(0 -6.20462675141821e-07 -3.92644539779667e-14)
(0 -6.28785104843673e-07 -8.80615434301664e-14)
(0 -6.37415624885231e-07 1.30207510343345e-14)
(0 -6.46362875451503e-07 7.76169201030356e-15)
(0 -6.55554344249506e-07 -7.90753862428554e-14)
(0 -6.65022192602476e-07 -7.29351276095378e-14)
(0 -6.74813847429345e-07 4.94242159876449e-14)
(0 -6.84891938634653e-07 3.05079525730983e-14)
(0 -6.9522976717187e-07 9.49523710540748e-15)
(0 -7.05912887051074e-07 -3.33961133760909e-15)
(0 -7.16939623133552e-07 -2.17964521975825e-14)
(0 -7.28239455024793e-07 7.57159630367453e-14)
(0 -7.39901437127342e-07 1.46937648407389e-13)
(0 -7.5196474485372e-07 7.65491645168735e-14)
(0 -7.64361278232352e-07 -1.85356788989904e-15)
(0 -7.77126353974746e-07 -1.15817572996511e-14)
(0 -7.90352229243324e-07 -6.48506143606792e-15)
(0 -8.04007365618745e-07 4.66617702224585e-15)
(0 -8.18036587578214e-07 -1.3321835955851e-15)
(0 -8.32598590390927e-07 -4.46275046822158e-14)
(0 -8.47718038246178e-07 -4.39885485182589e-14)
(0 -8.63277464203395e-07 -5.00275977346348e-14)
(0 -8.79415557759921e-07 -5.79997492184789e-14)
(0 -8.9622165752472e-07 3.30679231846512e-15)
(0 -9.13607283736437e-07 -7.75218167275158e-14)
(0 -9.31617494563248e-07 -4.56643449501863e-14)
(0 -9.50428834664562e-07 8.91837593077193e-14)
(0 -9.70010821771268e-07 7.34905300671125e-14)
(0 -9.90258364747689e-07 -6.98723424902626e-14)
(0 -1.01147544641036e-06 -1.38404001708145e-13)
(0 -1.03372757486511e-06 1.44869701416866e-14)
(0 -1.05679976094601e-06 1.45394376183371e-14)
(0 -1.08095073577429e-06 -3.63541175009449e-14)
(0 -1.1063751886268e-06 -3.79913675194253e-14)
(0 -1.13292418592575e-06 1.29900633345799e-14)
(0 -1.16065898839397e-06 3.38429357523858e-14)
(0 -1.18995765925143e-06 3.63823491214122e-14)
(0 -1.22079298917084e-06 5.63647281317285e-14)
(0 -1.2529294465897e-06 -2.6124334171645e-14)
(0 -1.28698018551523e-06 -9.07950604012319e-14)
(0 -1.32309927285391e-06 -6.33628736161196e-14)
(0 -1.36085112301315e-06 9.80410315752147e-14)
(0 -1.40072096012396e-06 1.47927901368328e-13)
(0 -1.4431214291459e-06 1.49602487714254e-13)
(0 -1.48777090150365e-06 5.19378903417064e-14)
(0 -1.53472041833141e-06 -5.24299272356624e-14)
(0 -1.58471817585422e-06 -2.45489798113459e-14)
(0 -1.63770818575157e-06 -7.70058827683216e-14)
(0 -1.69317963307304e-06 -6.02240492712661e-14)
(0 -1.75220569186925e-06 -8.65287111315986e-14)
(0 -1.81503229179496e-06 -1.10977816836947e-13)
(0 -1.88082087535484e-06 3.37185360153812e-14)
(0 -1.95027282862202e-06 5.80481468890058e-14)
(0 -2.02399811417066e-06 -9.11466930758911e-16)
(0 -2.10142037388219e-06 -2.14127134402044e-14)
(0 -2.18244150497704e-06 1.51255401117637e-14)
(0 -2.26796891185914e-06 8.49692021635137e-14)
(0 -2.35761066008974e-06 1.66812780304025e-14)
(0 -2.45039837646123e-06 -1.67607846343625e-13)
(0 -2.54722722440628e-06 -1.3784082793491e-13)
(0 -2.64778881604905e-06 4.39984546050521e-14)
(0 -2.75068796519147e-06 -4.5138298504973e-14)
(0 -2.855817913948e-06 -3.89122666863995e-14)
(0 -2.96221250221972e-06 2.20761850303201e-16)
(0 -3.06829414549054e-06 -2.77536051951924e-14)
(0 -3.17282524529622e-06 1.20149246413586e-13)
(0 -3.27199478760228e-06 9.46726175897471e-14)
(0 -3.36181324582573e-06 -3.85180164452221e-14)
(0 -3.44045476717261e-06 -1.70580985415731e-14)
(0 -3.49543927590278e-06 4.08632297355537e-14)
(0 -3.51259989627554e-06 -4.3870168248439e-14)
(0 -3.48730508143133e-06 -7.17687814935903e-14)
(0 -3.4002902142698e-06 -6.73714225603985e-15)
(0 -3.25855159410444e-06 1.16240601694247e-13)
(0 -3.09119262228028e-06 1.6535597932794e-13)
(0 -2.90562345554591e-06 4.94203772376038e-14)
(0 -2.70768977242181e-06 -4.21816401724189e-14)
(0 -2.50708151855318e-06 -2.6564520250992e-14)
(0 -2.3096656195012e-06 6.51926854768693e-14)
(0 -2.12176212105713e-06 7.61430916454602e-14)
(0 -1.94724544097395e-06 2.63127653441203e-14)
(0 -1.78489949749801e-06 1.13667684657523e-14)
(0 -1.6392176046609e-06 -6.03191685834305e-14)
(0 -1.51392900477566e-06 -7.74652550810374e-16)
(0 -1.40580676884948e-06 7.6055843630426e-14)
(0 -1.31399984229179e-06 4.14549569800295e-14)
(0 -1.2389158294641e-06 5.2777967349389e-15)
(0 -8.30980840780904e-07 -5.82946101567423e-14)
(0 -8.32223466918291e-07 -5.47712966433774e-14)
(0 -8.34974205078719e-07 -6.60358688242589e-15)
(0 -8.38354746828744e-07 -6.86021699360922e-14)
(0 -8.42134467215664e-07 9.10957264665288e-14)
(0 -8.46380159064129e-07 2.46752203811804e-13)
(0 -8.51058081955703e-07 1.43328137454937e-13)
(0 -8.56036152092597e-07 5.07268753056857e-14)
(0 -8.61346822238098e-07 1.09831253667406e-13)
(0 -8.6700369307346e-07 9.474788955333e-14)
(0 -8.72934150554976e-07 -1.7247066344043e-14)
(0 -8.79110432374858e-07 -1.92319430762324e-15)
(0 -8.85582624412329e-07 8.77688998536563e-14)
(0 -8.92324320682398e-07 -6.43273168843012e-14)
(0 -8.99272794237054e-07 -1.45443950791895e-13)
(0 -9.06487152280048e-07 2.12553434030442e-14)
(0 -9.13974884834828e-07 1.31247395462674e-14)
(0 -9.21674037456696e-07 -1.30245611081801e-13)
(0 -9.29612212190276e-07 -1.20756719962752e-13)
(0 -9.37830131454378e-07 8.13281838843044e-14)
(0 -9.46295886009278e-07 5.04539320788816e-14)
(0 -9.54986736023645e-07 1.57605675363728e-14)
(0 -9.6397608924851e-07 -5.42109595354012e-15)
(0 -9.73262639226482e-07 -3.62602478702671e-14)
(0 -9.82786096281682e-07 1.24555878910446e-13)
(0 -9.92622895144206e-07 2.42691628803959e-13)
(0 -1.00280680821869e-06 1.26819130466678e-13)
(0 -1.01327960174309e-06 -2.85899879686473e-15)
(0 -1.02407168652084e-06 -1.91261107994089e-14)
(0 -1.0352623940255e-06 -1.07591536337791e-14)
(0 -1.04682483349084e-06 7.7039899756644e-15)
(0 -1.05871185895023e-06 -2.06040357985091e-15)
(0 -1.0710598570523e-06 -7.36708656166216e-14)
(0 -1.08389024384329e-06 -7.26992225943076e-14)
(0 -1.09710239105116e-06 -8.26742928736737e-14)
(0 -1.11081557298499e-06 -9.60590127886146e-14)
(0 -1.12510682597194e-06 5.56445418687702e-15)
(0 -1.13990039512095e-06 -1.28138797006308e-13)
(0 -1.15523524383724e-06 -7.59661292412187e-14)
(0 -1.17126339129084e-06 1.4731513056001e-13)
(0 -1.18795897623134e-06 1.22008277777709e-13)
(0 -1.20523196332268e-06 -1.15166655658954e-13)
(0 -1.22334402944935e-06 -2.29328035884368e-13)
(0 -1.24235199232715e-06 2.36772636105717e-14)
(0 -1.26207131916216e-06 2.41962880973553e-14)
(0 -1.28272487403321e-06 -6.00926299349366e-14)
(0 -1.30448074503624e-06 -6.30345138001986e-14)
(0 -1.32721124620706e-06 2.13679323801647e-14)
(0 -1.35096948645019e-06 5.60159505573325e-14)
(0 -1.37608152132423e-06 6.0226115688815e-14)
(0 -1.40252466011811e-06 9.35428325384276e-14)
(0 -1.43009631688436e-06 -4.29963637325219e-14)
(0 -1.45932529646894e-06 -1.50427982620454e-13)
(0 -1.49034552141979e-06 -1.05431192775221e-13)
(0 -1.52278202028533e-06 1.62143062575858e-13)
(0 -1.55705335440925e-06 2.45191565166759e-13)
(0 -1.59351641038859e-06 2.48291662918811e-13)
(0 -1.6319293747362e-06 8.65274865493482e-14)
(0 -1.67233664082424e-06 -8.68433865644337e-14)
(0 -1.7153843932303e-06 -4.06741703116946e-14)
(0 -1.76102576310629e-06 -1.27714445560902e-13)
(0 -1.80882069287234e-06 -9.99210115970367e-14)
(0 -1.85969577125534e-06 -1.43524279913083e-13)
(0 -1.91386483918169e-06 -1.84439153024984e-13)
(0 -1.97060537698134e-06 5.56938536297973e-14)
(0 -2.0305233041779e-06 9.64464667647196e-14)
(0 -2.09414668733428e-06 -1.38213586837444e-15)
(0 -2.1609791678509e-06 -3.5591507240856e-14)
(0 -2.23093665411433e-06 2.49490502381445e-14)
(0 -2.30480402600965e-06 1.4115631364991e-13)
(0 -2.38224456560797e-06 2.81173564654736e-14)
(0 -2.46242213680979e-06 -2.78269864426888e-13)
(0 -2.5461106499622e-06 -2.29394622555432e-13)
(0 -2.63304563771846e-06 7.2989925325123e-14)
(0 -2.72202173835518e-06 -7.4906694419577e-14)
(0 -2.81294670781845e-06 -6.47499998959241e-14)
(0 -2.90498616892366e-06 3.51550896737714e-16)
(0 -2.99677602982494e-06 -4.63060767710934e-14)
(0 -3.08724651241367e-06 1.9958522902249e-13)
(0 -3.17310151245651e-06 1.57591154613164e-13)
(0 -3.25088691700586e-06 -6.38898943680029e-14)
(0 -3.31902274622548e-06 -2.84357612873896e-14)
(0 -3.36671214221418e-06 6.78811078019971e-14)
(0 -3.38168491505823e-06 -7.2692448834541e-14)
(0 -3.35992071113458e-06 -1.18988336490228e-13)
(0 -3.28473411536515e-06 -1.13744628267925e-14)
(0 -3.16215590077605e-06 1.92867163289855e-13)
(0 -3.01728307712528e-06 2.74777293340679e-13)
(0 -2.8566232721856e-06 8.22805100356306e-14)
(0 -2.68523967008608e-06 -7.01240456636154e-14)
(0 -2.51152267637767e-06 -4.42671729102255e-14)
(0 -2.34055525624543e-06 1.0851304522389e-13)
(0 -2.17781309986134e-06 1.26863961472059e-13)
(0 -2.02665562736825e-06 4.38582160702372e-14)
(0 -1.88603366017178e-06 1.89727809061886e-14)
(0 -1.7598392342092e-06 -1.00566460090366e-13)
(0 -1.65130414988223e-06 -1.31118134230951e-15)
(0 -1.55763814587418e-06 1.26781346461783e-13)
(0 -1.47811150472367e-06 6.91203196117777e-14)
(0 -1.41311134345935e-06 8.86269382724975e-15)
(0 -1.10971828477785e-06 -8.06707137958114e-14)
(0 -1.1105569826877e-06 -7.60590233373319e-14)
(0 -1.11269494849273e-06 -8.95077956903433e-15)
(0 -1.11536183093591e-06 -9.56037737624955e-14)
(0 -1.11836387220679e-06 1.24810374257642e-13)
(0 -1.12175645372547e-06 3.41672867949431e-13)
(0 -1.12551158074284e-06 1.99225690560201e-13)
(0 -1.12951902835491e-06 7.02217284122825e-14)
(0 -1.13380573131519e-06 1.52009878852197e-13)
(0 -1.13838317120558e-06 1.31827464727676e-13)
(0 -1.14319078629801e-06 -2.36394284327108e-14)
(0 -1.1482053525972e-06 -3.13672394447414e-15)
(0 -1.15346873885414e-06 1.22071625474325e-13)
(0 -1.15895899687887e-06 -8.833300360385e-14)
(0 -1.16462375304575e-06 -2.0211463824834e-13)
(0 -1.1705123921574e-06 2.90272057001584e-14)
(0 -1.17663135358833e-06 1.88556365616278e-14)
(0 -1.18292889853684e-06 -1.80226429928258e-13)
(0 -1.18942808827284e-06 -1.68353931586129e-13)
(0 -1.1961631276043e-06 1.12364305294318e-13)
(0 -1.20310745795402e-06 7.02116412682112e-14)
(0 -1.21024206514876e-06 2.20461398710142e-14)
(0 -1.2176284480969e-06 -7.3360679567693e-15)
(0 -1.2252657373644e-06 -5.08783324819639e-14)
(0 -1.23310352482687e-06 1.71953095217911e-13)
(0 -1.24120580732805e-06 3.36978822680915e-13)
(0 -1.24960110581381e-06 1.76845076332378e-13)
(0 -1.25824079608391e-06 -3.56672774667446e-15)
(0 -1.26715037840899e-06 -2.6544235626816e-14)
(0 -1.27639649951001e-06 -1.50303265468346e-14)
(0 -1.28595682721015e-06 1.0687131842526e-14)
(0 -1.29579191572672e-06 -2.58149194288087e-15)
(0 -1.30601621624548e-06 -1.02165661120916e-13)
(0 -1.31664801585979e-06 -1.00973580953981e-13)
(0 -1.32760304968049e-06 -1.14808925610341e-13)
(0 -1.33898141232695e-06 -1.33803859265565e-13)
(0 -1.35084808635226e-06 7.92720203714214e-15)
(0 -1.36313972616684e-06 -1.77969197375508e-13)
(0 -1.37588911250496e-06 -1.06448495191543e-13)
(0 -1.38922412505519e-06 2.04382028622017e-13)
(0 -1.40312344273332e-06 1.70455306987775e-13)
(0 -1.41751159542534e-06 -1.59276166083964e-13)
(0 -1.4326085058208e-06 -3.19479738490436e-13)
(0 -1.44846246701756e-06 3.23610796955439e-14)
(0 -1.46491872854773e-06 3.39048755126323e-14)
(0 -1.48216462621841e-06 -8.34235242820193e-14)
(0 -1.50034199095711e-06 -8.79516573469161e-14)
(0 -1.51934395668993e-06 2.94633239240749e-14)
(0 -1.53921530464467e-06 7.78914393775777e-14)
(0 -1.56023067751549e-06 8.37523879518005e-14)
(0 -1.58237182171898e-06 1.30530169412817e-13)
(0 -1.60546827960451e-06 -5.93216970327341e-14)
(0 -1.62996527550598e-06 -2.09401310213353e-13)
(0 -1.65597693924814e-06 -1.47598976748805e-13)
(0 -1.68318786905928e-06 2.25152542099361e-13)
(0 -1.71195029664125e-06 3.41455664854063e-13)
(0 -1.74256593079763e-06 3.46353071184926e-13)
(0 -1.77483212115281e-06 1.21289469650638e-13)
(0 -1.80878626682588e-06 -1.20816890637931e-13)
(0 -1.8449733345531e-06 -5.66005503515286e-14)
(0 -1.88335534005157e-06 -1.77955797847262e-13)
(0 -1.92356186924104e-06 -1.39288356961591e-13)
(0 -1.96637390072222e-06 -1.999908560795e-13)
(0 -2.0119733394954e-06 -2.57638296155444e-13)
(0 -2.05975228371761e-06 7.71906181344763e-14)
(0 -2.11022161857198e-06 1.34661894921405e-13)
(0 -2.16382790948719e-06 -1.70109515727095e-15)
(0 -2.22015385916098e-06 -4.97153458516657e-14)
(0 -2.27912885639233e-06 3.4517319529163e-14)
(0 -2.34141587272085e-06 1.97022885231447e-13)
(0 -2.40673272247209e-06 3.99327322945812e-14)
(0 -2.47437430277322e-06 -3.88090241626068e-13)
(0 -2.54499385349083e-06 -3.20833045308839e-13)
(0 -2.6183702261218e-06 1.01700693804721e-13)
(0 -2.69348664734379e-06 -1.04411141617525e-13)
(0 -2.77026524762694e-06 -9.0541283767295e-14)
(0 -2.8480026349253e-06 4.67020568297127e-16)
(0 -2.92554727749819e-06 -6.49540285729505e-14)
(0 -3.00199663183389e-06 2.78554073721359e-13)
(0 -3.07456757877294e-06 2.20490158988815e-13)
(0 -3.14034023077064e-06 -8.90349823085096e-14)
(0 -3.19798128557745e-06 -3.98713642012631e-14)
(0 -3.23837171931459e-06 9.48459792550565e-14)
(0 -3.25113434187379e-06 -1.01312329589889e-13)
(0 -3.23286288782936e-06 -1.66118680575946e-13)
(0 -3.16944061269515e-06 -1.61691391223221e-14)
(0 -3.06592592155517e-06 2.6924240679498e-13)
(0 -2.94348308660593e-06 3.84026584206466e-13)
(0 -2.80768148177792e-06 1.15179314837585e-13)
(0 -2.66280022772834e-06 -9.79871786056791e-14)
(0 -2.51593219525184e-06 -6.19827998383437e-14)
(0 -2.37137629015328e-06 1.51732313685886e-13)
(0 -2.23376419829405e-06 1.77521966550957e-13)
(0 -2.10593942068257e-06 6.13953199653733e-14)
(0 -1.98701726462712e-06 2.65871051720636e-14)
(0 -1.88029054562963e-06 -1.40757778779978e-13)
(0 -1.78849473419037e-06 -1.86574601935306e-15)
(0 -1.70927254599298e-06 1.77438459091873e-13)
(0 -1.6420068048976e-06 9.67525587212013e-14)
(0 -1.58703979961807e-06 1.24410089928003e-14)
(0 -1.38237642278288e-06 -1.02575097751896e-13)
(0 -1.38289152161379e-06 -9.71588182673025e-14)
(0 -1.38449175196039e-06 -1.10581524608783e-14)
(0 -1.38652219028638e-06 -1.22672115646445e-13)
(0 -1.38882473996888e-06 1.56542901685173e-13)
(0 -1.39144374896508e-06 4.34685761501304e-13)
(0 -1.39435688351976e-06 2.54747276125293e-13)
(0 -1.39747509262991e-06 8.93046397516468e-14)
(0 -1.40081992673582e-06 1.93243992858995e-13)
(0 -1.40440083636863e-06 1.68754294311918e-13)
(0 -1.4081689801484e-06 -2.96530671777277e-14)
(0 -1.41210549316306e-06 -4.79271086185798e-15)
(0 -1.41624424201939e-06 1.56160908358974e-13)
(0 -1.42056763423622e-06 -1.11085568786397e-13)
(0 -1.42503330388315e-06 -2.58244859639653e-13)
(0 -1.42968114501804e-06 3.62252515113912e-14)
(0 -1.4345165906951e-06 2.51233109947923e-14)
(0 -1.43949781597268e-06 -2.2895180711591e-13)
(0 -1.44464339499147e-06 -2.15983197866824e-13)
(0 -1.44998116229436e-06 1.42440708233393e-13)
(0 -1.45548977940742e-06 8.98479880101406e-14)
(0 -1.46115378675959e-06 2.84014138078719e-14)
(0 -1.46702300482453e-06 -9.03521883514878e-15)
(0 -1.47309700697734e-06 -6.57964304962484e-14)
(0 -1.47933497153984e-06 2.17706116882613e-13)
(0 -1.48578866244932e-06 4.29877733443612e-13)
(0 -1.49248144824538e-06 2.26850592875274e-13)
(0 -1.49937406821698e-06 -3.87594101390137e-15)
(0 -1.50648714083916e-06 -3.38349818653572e-14)
(0 -1.51387484174616e-06 -1.93225393479269e-14)
(0 -1.52151928262114e-06 1.36125880409564e-14)
(0 -1.52938845827329e-06 -2.82750990155762e-15)
(0 -1.53757524320324e-06 -1.30081066727462e-13)
(0 -1.54609484128019e-06 -1.28814830860382e-13)
(0 -1.5548789426966e-06 -1.46425555978852e-13)
(0 -1.56400872150033e-06 -1.71324549911866e-13)
(0 -1.57353728207456e-06 1.04434597839585e-14)
(0 -1.58341339167259e-06 -2.26992494719695e-13)
(0 -1.59366362554538e-06 -1.37318722272196e-13)
(0 -1.60439205790647e-06 2.60294907879673e-13)
(0 -1.61558178021153e-06 2.19028439472463e-13)
(0 -1.62717149507092e-06 -2.02003426604523e-13)
(0 -1.63933991157836e-06 -4.08998044464881e-13)
(0 -1.65212686403954e-06 4.0409883727025e-14)
(0 -1.66540678712882e-06 4.37208857134186e-14)
(0 -1.67933186625331e-06 -1.06308031394818e-13)
(0 -1.69401793522832e-06 -1.12799353832381e-13)
(0 -1.70937852504672e-06 3.72166059845872e-14)
(0 -1.72545000908586e-06 9.94552566232053e-14)
(0 -1.74245614689653e-06 1.06943438804268e-13)
(0 -1.76038294299399e-06 1.6739527826798e-13)
(0 -1.7790914304984e-06 -7.4984291183151e-14)
(0 -1.79894404214653e-06 -2.67700525824305e-13)
(0 -1.82003520977833e-06 -1.90029609050012e-13)
(0 -1.84210819860861e-06 2.86928121739994e-13)
(0 -1.86544939185039e-06 4.36697874528321e-13)
(0 -1.89030569870676e-06 4.43874713499802e-13)
(0 -1.91651297171149e-06 1.56369665660538e-13)
(0 -1.94410142684081e-06 -1.54310837278945e-13)
(0 -1.97351554025579e-06 -7.23085911239287e-14)
(0 -2.00472583361835e-06 -2.2771737889787e-13)
(0 -2.03743059643358e-06 -1.783224097731e-13)
(0 -2.07226621958968e-06 -2.55903255293151e-13)
(0 -2.10938259808387e-06 -3.30656964651664e-13)
(0 -2.14828513166426e-06 9.81224181557836e-14)
(0 -2.18939018697055e-06 1.72717440741223e-13)
(0 -2.23306308268081e-06 -1.829283053387e-15)
(0 -2.27896463079947e-06 -6.37937163103544e-14)
(0 -2.3270373263222e-06 4.37803882017593e-14)
(0 -2.37782274500157e-06 2.52573352230949e-13)
(0 -2.43109243105462e-06 5.2237269423706e-14)
(0 -2.48627126218328e-06 -4.97014555550285e-13)
(0 -2.54389236191337e-06 -4.12243458984103e-13)
(0 -2.60377717363938e-06 1.3010177266661e-13)
(0 -2.66509630533842e-06 -1.33625938173981e-13)
(0 -2.72778613546494e-06 -1.16301839214517e-13)
(0 -2.79127340161581e-06 5.64854437199014e-16)
(0 -2.85461814487743e-06 -8.37340005351547e-14)
(0 -2.91708425555956e-06 3.57025423220078e-13)
(0 -2.97639958180985e-06 2.83411646013712e-13)
(0 -3.0301772056135e-06 -1.1392784480397e-13)
(0 -3.07732974110768e-06 -5.13828746221141e-14)
(0 -3.11041060934899e-06 1.21765213504326e-13)
(0 -3.12093303147998e-06 -1.29711609187146e-13)
(0 -3.10610648153382e-06 -2.13173745585091e-13)
(0 -3.05438021859324e-06 -2.11457381387521e-14)
(0 -2.96984706352575e-06 3.45375297410533e-13)
(0 -2.86978537418365e-06 4.93113129156238e-13)
(0 -2.75879395493013e-06 1.48120577107767e-13)
(0 -2.64036920680025e-06 -1.25770819752679e-13)
(0 -2.52030872535561e-06 -7.97132876506338e-14)
(0 -2.40212804150967e-06 1.9484944800174e-13)
(0 -2.28961533991085e-06 2.28118442674098e-13)
(0 -2.18509787526064e-06 7.89252091939942e-14)
(0 -2.08785435754722e-06 3.42114121645797e-14)
(0 -2.00057843293985e-06 -1.80895624280048e-13)
(0 -1.92550886604929e-06 -2.43944773396064e-15)
(0 -1.86072014289472e-06 2.28030398248152e-13)
(0 -1.80570763695741e-06 1.24356500316595e-13)
(0 -1.76076767247392e-06 1.6015751268427e-14)
(0 -1.64921107764593e-06 -1.24029287354604e-13)
(0 -1.64948058879534e-06 -1.1816198810848e-13)
(0 -1.65061319319459e-06 -1.28742704435596e-14)
(0 -1.65207904124614e-06 -1.49977672566038e-13)
(0 -1.65375491285051e-06 1.85986302714324e-13)
(0 -1.65567451490595e-06 5.25862815959966e-13)
(0 -1.65782101347238e-06 3.10135727454195e-13)
(0 -1.6601259366856e-06 1.07994021727697e-13)
(0 -1.66260562062652e-06 2.33533580151372e-13)
(0 -1.66526751904374e-06 2.05701639095216e-13)
(0 -1.6680741908443e-06 -3.52180017265578e-14)
(0 -1.67101100628334e-06 -7.01403727808382e-15)
(0 -1.67410402289555e-06 1.90162221109441e-13)
(0 -1.67733987904755e-06 -1.32387947040445e-13)
(0 -1.68068592735656e-06 -3.13994127017331e-13)
(0 -1.68417280300524e-06 4.27346326464479e-14)
(0 -1.68780492030293e-06 3.20886507453378e-14)
(0 -1.69155010618668e-06 -2.76348381191039e-13)
(0 -1.69542253567972e-06 -2.63890269607833e-13)
(0 -1.6994437793684e-06 1.71461767344094e-13)
(0 -1.70359757269736e-06 1.09425373865616e-13)
(0 -1.70787190122762e-06 3.48746310686109e-14)
(0 -1.71230512662865e-06 -1.04668227750486e-14)
(0 -1.71689720947715e-06 -8.11516970691657e-14)
(0 -1.72161667561944e-06 2.61614049984276e-13)
(0 -1.72650328757727e-06 5.21456446498579e-13)
(0 -1.73157530181179e-06 2.77052656307466e-13)
(0 -1.73680258442894e-06 -3.68482957753187e-15)
(0 -1.74220094236274e-06 -4.09952308319446e-14)
(0 -1.7478122609044e-06 -2.36590984346712e-14)
(0 -1.75362295837488e-06 1.64758524374268e-14)
(0 -1.75960827741149e-06 -2.73262177759345e-15)
(0 -1.76583986113749e-06 -1.57385645362743e-13)
(0 -1.77232980650072e-06 -1.56225528834627e-13)
(0 -1.77902541241642e-06 -1.77516704518198e-13)
(0 -1.78598921580937e-06 -2.08709803593341e-13)
(0 -1.7932625492154e-06 1.31590636159838e-14)
(0 -1.80080601673091e-06 -2.75184353803005e-13)
(0 -1.80864002024698e-06 -1.68778095600701e-13)
(0 -1.81684512356561e-06 3.14959961748005e-13)
(0 -1.825408651603e-06 2.67916367300631e-13)
(0 -1.83428317729582e-06 -2.43149998435819e-13)
(0 -1.84360673606206e-06 -4.98014507977796e-13)
(0 -1.85341067392403e-06 4.76949451583496e-14)
(0 -1.86359807438549e-06 5.36968920931916e-14)
(0 -1.87428639833108e-06 -1.2870652556468e-13)
(0 -1.8855656626665e-06 -1.37631836192172e-13)
(0 -1.89736937512234e-06 4.45686503324137e-14)
(0 -1.90972550900877e-06 1.20692947862386e-13)
(0 -1.92280741538684e-06 1.29780742529359e-13)
(0 -1.93660506230385e-06 2.0420388047709e-13)
(0 -1.95101057250578e-06 -8.98692811499706e-14)
(0 -1.96630433338421e-06 -3.25308037200439e-13)
(0 -1.98256090695161e-06 -2.32882169306028e-13)
(0 -1.99958152705712e-06 3.47328915677764e-13)
(0 -2.01758732214152e-06 5.30893575508514e-13)
(0 -2.03677059029687e-06 5.40941377376121e-13)
(0 -2.05700499247133e-06 1.91912276270805e-13)
(0 -2.07831355335227e-06 -1.87284905752995e-13)
(0 -2.10104092414655e-06 -8.77787517711379e-14)
(0 -2.12516559961177e-06 -2.76986557771541e-13)
(0 -2.15045380340449e-06 -2.17019593750898e-13)
(0 -2.17739839067552e-06 -3.11235723682406e-13)
(0 -2.20611703362357e-06 -4.03574843653262e-13)
(0 -2.23622711728421e-06 1.18402921221782e-13)
(0 -2.26805109567827e-06 2.10634791103088e-13)
(0 -2.30187321268957e-06 -1.72779320154594e-15)
(0 -2.33743143716016e-06 -7.78352951862274e-14)
(0 -2.37468106434909e-06 5.26886854853373e-14)
(0 -2.41404275262483e-06 3.07810867793921e-13)
(0 -2.45534084887664e-06 6.51394021546711e-14)
(0 -2.49812925866319e-06 -6.04987444691178e-13)
(0 -2.54282159377167e-06 -5.03711804214032e-13)
(0 -2.58928097331682e-06 1.58163674968947e-13)
(0 -2.63686424929269e-06 -1.62525662481053e-13)
(0 -2.6855219625364e-06 -1.42047041645442e-13)
(0 -2.73481003148349e-06 6.42884323756617e-16)
(0 -2.78399910960636e-06 -1.02681988826934e-13)
(0 -2.83251858443258e-06 4.34968279048276e-13)
(0 -2.87860522404423e-06 3.46396257729799e-13)
(0 -2.92040394178957e-06 -1.3854261003467e-13)
(0 -2.95707210227251e-06 -6.29873916972285e-14)
(0 -2.98282983494683e-06 1.48644166130151e-13)
(0 -2.99107874290849e-06 -1.57869814346391e-13)
(0 -2.97964563914251e-06 -2.60159598234411e-13)
(0 -2.93954496686698e-06 -2.63288713418392e-14)
(0 -2.8739174033421e-06 4.21264805394342e-13)
(0 -2.79618827199302e-06 6.02039275113226e-13)
(0 -2.7099591369396e-06 1.81107516851429e-13)
(0 -2.61794522457018e-06 -1.53474253300008e-13)
(0 -2.52465107885108e-06 -9.74605454345293e-14)
(0 -2.4328095533865e-06 2.37863396215183e-13)
(0 -2.34536580613818e-06 2.78654257655599e-13)
(0 -2.26413049083435e-06 9.64486430843641e-14)
(0 -2.1885445657416e-06 4.18467741867358e-14)
(0 -2.12070257428813e-06 -2.20980198017134e-13)
(0 -2.06234632286202e-06 -3.03339518243533e-15)
(0 -2.01198066552676e-06 2.78557078995076e-13)
(0 -1.96921318888993e-06 1.51932373520519e-13)
(0 -1.93429294341697e-06 1.95868512793574e-14)
(0 -1.91046185719047e-06 -1.4505113685827e-13)
(0 -1.91056164482645e-06 -1.39158644709749e-13)
(0 -1.91129236105533e-06 -1.43456142783563e-14)
(0 -1.91226060942081e-06 -1.7767358344695e-13)
(0 -1.91337772903715e-06 2.12835466563608e-13)
(0 -1.91466719884042e-06 6.15256493573187e-13)
(0 -1.91611744641161e-06 3.65626843365444e-13)
(0 -1.91768007100797e-06 1.26313166040751e-13)
(0 -1.91936640067995e-06 2.72872777752675e-13)
(0 -1.92118187559744e-06 2.42834979063696e-13)
(0 -1.92310014388336e-06 -4.02584133937999e-14)
(0 -1.92511074269455e-06 -9.92233264747123e-15)
(0 -1.92723209357474e-06 2.24188332710302e-13)
(0 -1.92945490898483e-06 -1.52040585984103e-13)
(0 -1.9317560412424e-06 -3.69509033876996e-13)
(0 -1.93415708787049e-06 4.84352792430357e-14)
(0 -1.93666138239615e-06 3.99036970985097e-14)
(0 -1.93924617604156e-06 -3.22333698756536e-13)
(0 -1.94192136726238e-06 -3.12309650152896e-13)