/*--------------------------------*- C++ -*----------------------------------*\
| =========                 |                                                 |
| \\      /  F ield         | foam-extend: Open Source CFD                    |
|  \\    /   O peration     | Version:     4.1-20200408                       |
|   \\  /    A nd           | Web:         http://www.foam-extend.org         |
|    \\/     M anipulation  |                                                 |
\*---------------------------------------------------------------------------*/
FoamFile
{
    version     2.0;
    format      ascii;
    class       volScalarField;
    location    "0.0270000";
    object      epsilonPEq;
}
// * * * * * * * * * * * * * * * * * * * * * * * * * * * * * * * * * * * * * //

dimensions      [0 0 0 0 0 0 0];

internalField   nonuniform List<scalar> 
1952
(
0.0115394
0.0115675
0.0116166
0.0116699
0.0117358
0.0117922
0.0118412
0.011848
0.011814
0.0116626
0.0114016
0.0108708
0.0101134
0.00885121
0.00722392
0.011524
0.0116243
0.0116525
0.0117017
0.0117552
0.0118212
0.0118778
0.0119266
0.0119328
0.0118978
0.0117451
0.0114819
0.0109476
0.010186
0.00891825
0.00729041
0.0116088
0.0117098
0.011738
0.0117875
0.011841
0.0119072
0.0119639
0.0120124
0.012018
0.011982
0.011828
0.0115626
0.0110249
0.0102592
0.00898591
0.00735708
0.0116942
0.0117955
0.0118238
0.0118733
0.011927
0.0119932
0.0120501
0.0120983
0.0121032
0.0120663
0.0119111
0.0116435
0.0111025
0.0103327
0.00905383
0.00742374
0.0117798
0.0118813
0.0119097
0.0119593
0.0120131
0.0120793
0.0121364
0.0121841
0.0121884
0.0121507
0.0119943
0.0117245
0.0111801
0.0104063
0.0091217
0.00749035
0.0118656
0.0119674
0.0119957
0.0120455
0.0120992
0.0121655
0.0122227
0.0122698
0.0122738
0.0122351
0.0120776
0.0118057
0.0112578
0.0104799
0.00918956
0.00755849
0.0119516
0.0120552
0.0120835
0.0121335
0.012187
0.0122535
0.0123107
0.0123572
0.0123612
0.0123215
0.0121628
0.0118887
0.0113374
0.0105555
0.00925937
0.00762611
0.0120393
0.0121422
0.0121706
0.0122208
0.0122743
0.0123411
0.0123979
0.0124434
0.0124479
0.0124074
0.0122473
0.0119712
0.0114164
0.0106306
0.00932834
0.00769325
0.0121263
0.0122292
0.0122577
0.012308
0.0123616
0.0124284
0.012485
0.0125301
0.0125346
0.0124932
0.0123316
0.0120536
0.011495
0.0107049
0.0093967
0.00776004
0.0122132
0.012316
0.0123445
0.0123949
0.0124486
0.0125154
0.0125718
0.0126172
0.012621
0.0125786
0.0124158
0.0121356
0.0115734
0.010779
0.0094649
0.00782663
0.0122999
0.0124026
0.0124311
0.0124815
0.0125354
0.0126022
0.0126584
0.0127039
0.012707
0.0126637
0.0124996
0.0122171
0.0116514
0.0108527
0.00953275
0.00789307
0.0123864
0.012489
0.0125177
0.0125681
0.0126219
0.0126888
0.0127448
0.0127904
0.0127928
0.0127484
0.012583
0.0122981
0.0117288
0.0109259
0.00960029
0.00795931
0.0124728
0.0125752
0.0126039
0.0126543
0.0127082
0.012775
0.0128309
0.0128765
0.0128781
0.0128327
0.0126659
0.0123786
0.0118057
0.0109986
0.00966747
0.0080253
0.012559
0.0126612
0.0126899
0.0127404
0.0127942
0.0128611
0.0129167
0.0129623
0.0129631
0.0129167
0.0127485
0.0124588
0.0118824
0.0110711
0.0097345
0.0080915
0.012645
0.0127473
0.012776
0.0128265
0.0128803
0.0129471
0.0130026
0.0130481
0.0130482
0.0130008
0.0128311
0.0125388
0.0119593
0.0111439
0.00980182
0.00815827
0.012731
0.0128339
0.0128625
0.0129132
0.0129668
0.0130337
0.0130889
0.0131344
0.0131337
0.0130854
0.0129141
0.0126194
0.0120371
0.0112175
0.00986991
0.00822533
0.0128176
0.0129204
0.0129491
0.0129997
0.0130535
0.0131203
0.0131754
0.0132208
0.0132193
0.0131703
0.0129974
0.0127001
0.0121153
0.0112917
0.00993819
0.00829265
0.0129041
0.0130072
0.0130358
0.0130866
0.0131404
0.0132072
0.0132623
0.0133077
0.0133056
0.0132558
0.0130812
0.0127817
0.0121941
0.0113664
0.0100068
0.00835898
0.0129908
0.0130927
0.0131217
0.0131724
0.0132264
0.0132932
0.0133482
0.0133935
0.013391
0.0133402
0.0131641
0.0128628
0.0122717
0.0114398
0.0100742
0.00842454
0.013076
0.0131777
0.0132073
0.013258
0.0133121
0.0133789
0.0134338
0.0134791
0.013476
0.0134242
0.0132466
0.0129434
0.0123486
0.0115124
0.0101409
0.00848999
0.0131605
0.0132621
0.0132927
0.0133436
0.0133976
0.0134645
0.0135193
0.0135646
0.0135609
0.0135081
0.0133288
0.0130236
0.0124253
0.0115848
0.0102073
0.00855522
0.0132448
0.0133467
0.0133778
0.0134289
0.0134828
0.0135499
0.0136046
0.0136498
0.0136456
0.0135916
0.0134107
0.0131034
0.0125017
0.0116571
0.0102736
0.00862043
0.0133293
0.0134319
0.0134629
0.0135141
0.013568
0.0136352
0.0136898
0.0137351
0.0137302
0.013675
0.0134926
0.0131831
0.0125783
0.0117294
0.0103394
0.00868529
0.0134144
0.0135167
0.0135477
0.0135992
0.0136531
0.0137204
0.0137749
0.01382
0.0138145
0.0137582
0.0135742
0.0132626
0.0126546
0.0118014
0.010405
0.00875306
0.0134991
0.0136013
0.0136324
0.0136842
0.013738
0.0138053
0.0138596
0.0139047
0.0138985
0.013841
0.0136554
0.013342
0.0127308
0.0118733
0.0104712
0.00882171
0.0135835
0.0136855
0.0137162
0.0137687
0.0138226
0.0138897
0.0139439
0.0139889
0.0139819
0.0139234
0.0137363
0.0134212
0.0128067
0.0119448
0.010537
0.00888932
0.0136678
0.0137692
0.0137993
0.0138528
0.0139068
0.0139734
0.0140278
0.0140725
0.0140646
0.0140055
0.0138168
0.0135
0.0128822
0.0120158
0.0106024
0.00895655
0.0137519
0.0138528
0.0138828
0.0139364
0.0139903
0.0140567
0.0141111
0.0141555
0.0141468
0.0140872
0.0138968
0.0135783
0.0129572
0.0120862
0.0106671
0.00902378
0.0138354
0.0139359
0.0139662
0.0140197
0.0140735
0.0141398
0.0141941
0.0142382
0.0142282
0.0141687
0.0139767
0.0136561
0.0130318
0.0121561
0.0107315
0.00909092
0.0139184
0.0140192
0.0140497
0.0141031
0.0141569
0.0142232
0.0142775
0.0143211
0.0143103
0.0142507
0.014057
0.0137345
0.013107
0.0122268
0.0107966
0.00915738
0.0140016
0.0141023
0.014133
0.0141863
0.0142401
0.0143065
0.0143606
0.0144041
0.0143931
0.0143326
0.0141372
0.013813
0.0131823
0.0122977
0.0108617
0.00922343
0.0140846
0.0141849
0.0142158
0.0142691
0.0143229
0.0143893
0.0144433
0.0144865
0.0144754
0.0144138
0.0142169
0.013891
0.0132567
0.0123678
0.010926
0.00928997
0.0141671
0.0142675
0.0142985
0.0143518
0.0144058
0.014472
0.0145261
0.0145689
0.0145577
0.0144951
0.0142965
0.0139687
0.0133309
0.0124377
0.0109901
0.00935639
0.0142496
0.0143506
0.0143814
0.0144344
0.0144891
0.0145551
0.0146092
0.0146517
0.0146403
0.0145766
0.0143766
0.0140469
0.0134055
0.0125083
0.0110546
0.00942241
0.0143326
0.0144337
0.0144641
0.0145164
0.0145721
0.0146381
0.0146919
0.0147343
0.0147225
0.0146579
0.0144565
0.0141247
0.0134796
0.0125785
0.0111188
0.00948783
0.0144155
0.0145162
0.0145465
0.0145987
0.0146548
0.0147206
0.0147743
0.0148166
0.0148045
0.0147389
0.0145361
0.0142019
0.0135531
0.0126482
0.0111825
0.00955314
0.014498
0.014598
0.0146284
0.0146809
0.0147368
0.0148025
0.0148561
0.0148981
0.0148856
0.0148193
0.0146147
0.0142782
0.0136261
0.0127168
0.0112506
0.0096196
0.0145798
0.0146797
0.0147101
0.0147629
0.0148186
0.0148842
0.0149377
0.0149794
0.0149665
0.0148994
0.014693
0.0143544
0.0136992
0.0127852
0.0113201
0.00968661
0.0146614
0.0147613
0.0147917
0.0148448
0.0149004
0.0149659
0.0150191
0.0150607
0.0150473
0.0149795
0.0147714
0.0144308
0.0137727
0.0128536
0.0113887
0.00975326
0.014743
0.0148427
0.0148731
0.0149264
0.014982
0.0150474
0.0151005
0.0151419
0.0151282
0.0150597
0.0148499
0.0145074
0.0138461
0.0129214
0.0114567
0.00981963
0.0148244
0.0149241
0.0149544
0.015008
0.0150635
0.0151289
0.0151818
0.0152231
0.0152092
0.01514
0.0149287
0.014584
0.0139194
0.0129893
0.0115242
0.00988586
0.0149057
0.0150051
0.0150355
0.0150893
0.0151448
0.0152102
0.015263
0.0153042
0.0152902
0.0152201
0.0150075
0.0146604
0.0139926
0.0130577
0.0115918
0.00995165
0.0149867
0.0150862
0.0151166
0.0151706
0.0152262
0.0152916
0.0153443
0.0153855
0.0153712
0.0153004
0.0150862
0.0147368
0.0140656
0.0131259
0.0116589
0.0100172
0.0150676
0.0151669
0.0151974
0.0152517
0.0153074
0.0153727
0.0154253
0.0154665
0.015452
0.0153803
0.0151646
0.0148127
0.0141381
0.0131937
0.0117257
0.0100828
0.0151483
0.0152476
0.0152781
0.0153327
0.0153882
0.0154537
0.0155062
0.0155474
0.0155326
0.0154599
0.0152426
0.0148883
0.0142102
0.0132613
0.0117926
0.0101484
0.0152289
0.0153282
0.0153589
0.0154136
0.015469
0.0155349
0.0155871
0.0156282
0.0156131
0.0155394
0.0153204
0.0149637
0.0142822
0.0133287
0.0118594
0.0102138
0.0153096
0.0154091
0.0154398
0.0154944
0.0155491
0.0156159
0.015668
0.0157089
0.0156934
0.0156187
0.015398
0.0150389
0.0143542
0.0133961
0.0119261
0.0102792
0.0153904
0.0154899
0.0155207
0.015575
0.0156291
0.0156969
0.0157488
0.0157892
0.0157735
0.0156978
0.0154754
0.015114
0.0144259
0.0134633
0.0119926
0.010344
0.0154712
0.0155703
0.0156011
0.0156554
0.01571
0.0157775
0.0158291
0.0158693
0.0158534
0.0157766
0.0155526
0.0151888
0.0144974
0.0135304
0.0120586
0.0104083
0.0155516
0.0156502
0.0156809
0.0157352
0.0157902
0.0158574
0.0159088
0.0159488
0.0159325
0.0158548
0.0156291
0.0152631
0.0145684
0.0135968
0.0121242
0.0104731
0.0156313
0.0157296
0.0157603
0.0158146
0.0158698
0.0159369
0.015988
0.0160278
0.0160112
0.0159324
0.0157051
0.0153368
0.0146389
0.0136629
0.0121901
0.0105377
0.0157107
0.0158095
0.0158402
0.0158945
0.0159499
0.0160168
0.0160676
0.0161072
0.0160901
0.0160102
0.0157814
0.0154109
0.0147098
0.0137293
0.0122555
0.0106053
0.0157905
0.0158888
0.0159195
0.0159738
0.0160292
0.0160961
0.0161465
0.0161859
0.0161683
0.0160873
0.0158573
0.0154844
0.0147801
0.0137952
0.0123217
0.0106733
0.0158697
0.0159685
0.0159992
0.0160536
0.0161092
0.016176
0.0162261
0.0162654
0.0162472
0.0161648
0.0159341
0.015559
0.0148515
0.0138623
0.0123884
0.010741
0.0159494
0.0160483
0.0160791
0.0161336
0.0161893
0.0162562
0.0163061
0.0163452
0.0163264
0.0162429
0.0160117
0.0156343
0.0149236
0.0139302
0.0124548
0.0108072
0.0160291
0.0161278
0.0161586
0.0162131
0.0162691
0.0163359
0.0163858
0.0164247
0.0164055
0.0163216
0.016089
0.0157094
0.0149955
0.0139976
0.012521
0.0108728
0.0161085
0.0162072
0.0162381
0.0162927
0.016349
0.0164158
0.0164656
0.0165043
0.0164847
0.0164005
0.0161664
0.0157845
0.0150674
0.0140649
0.0125853
0.0109232
0.0161879
0.0162863
0.0163159
0.0163706
0.0164272
0.016494
0.0165437
0.0165822
0.0165622
0.0164774
0.0162418
0.0158579
0.0151402
0.0141296
0.0126489
0.0108547
0.0162666
0.0163627
0.0163936
0.0164484
0.0165052
0.016572
0.0166216
0.0166599
0.0166395
0.0165542
0.0163169
0.0159301
0.0152061
0.014194
0.0125791
0.01057
0.0163433
0.0161245
0.0161543
0.0162067
0.0162609
0.016321
0.0163621
0.0163837
0.0163421
0.0162193
0.0159406
0.0154832
0.0146941
0.0135952
0.0118812
0.00982753
0.0161061
0.0155202
0.0155418
0.0155829
0.0156231
0.0156627
0.015679
0.0156643
0.0155785
0.0153911
0.0150392
0.0144751
0.0135964
0.0123848
0.0106853
0.00878144
0.0155045
0.0145624
0.0145673
0.0145851
0.0145958
0.0145978
0.0145705
0.014501
0.014354
0.0140908
0.0136621
0.0130066
0.0120789
0.0108356
0.00929281
0.00769228
0.0145517
0.0132832
0.0132643
0.0132479
0.0132144
0.013162
0.0130737
0.0129341
0.0127147
0.0123767
0.0118856
0.0111821
0.0102719
0.00910565
0.00783132
0.00662553
0.0132798
0.0117412
0.0116957
0.0116396
0.0115528
0.0114347
0.0112722
0.011052
0.0107538
0.0103462
0.00981024
0.00910616
0.00827603
0.00728183
0.0063498
0.00558817
0.0117463
0.0100041
0.00993485
0.00984174
0.00970322
0.00951827
0.0092762
0.0089735
0.00859663
0.00812525
0.00755428
0.00688026
0.00617006
0.00541718
0.00487694
0.00459013
0.0100167
0.00814231
0.00805521
0.00793525
0.00775777
0.00751833
0.00720618
0.00683242
0.00638927
0.00586722
0.00526795
0.00463181
0.00404642
0.00356141
0.00342438
0.00361986
0.00816059
0.00623344
0.00613274
0.00599662
0.00579866
0.00552903
0.00517248
0.00475121
0.00426216
0.00371212
0.00310652
0.00252112
0.00205177
0.0018108
0.00201044
0.00262302
0.00625663
0.00435606
0.00424116
0.00408832
0.00387311
0.00358907
0.00321921
0.00278237
0.00227262
0.0017319
0.00120752
0.000783432
0.000491102
0.000437382
0.000760382
0.00156301
0.00438515
0.002521
0.00239221
0.00221441
0.00196626
0.00166717
0.00134168
0.000989695
0.000581604
0.000186708
0
0
0
0
0
0.000571673
0.00255662
0.000814468
0.000704388
0.000546493
0.000324634
8.13045e-05
0
0
0
0
0
0
0
0
0
0
0.000846284
0
0
0
0
0
0
0
0
0
0
0
0
0
0
0
0
0
0
0
0
0
0
0
0
0
0
0
0
0
0
0
0
0
0
0
0
0
0
0
0
0
0
0
0
0
0
0
0
0
0
0
0
0
0
0
0
0
0
0
0
0
0
0
0
0
0
0
0
0
0
0
0
0
0
0
0
0
0
0
0
0
0
0
0
0
0
0
0
0
0
0
0
0
0
0
0
0
0
0
0
0
0
0
0
0
0
0
0
0
0
0
0
0
0
0
0
0
0
0
0
0
0
0
0
0
0
0
0
0
0
0
0
0
0
0
0
0
0
0
0
0
0
0
0
0
0
0
0
0
0
0
0
0
0
0
0
0
0
0
0
0
0
0
0
0
0
0
0
0
0
0
0
0
0
0
0
0
0
0
0
0
0
0
0
0
0
0
0
0
0
0
0
0
0
0
0
0
0
0
0
0
0
0
0
0
0
0
0
0
0
0
0
0
0
0
0
0
0
0
0
0
0
0
0
0
0
0
0
0
0
0
0
0
0
0
0
0
0
0
0
0
0
0
0
0
0
0
0
0
0
0
0
0
0
0
0
0
0
0
0
0
0
0
0
0
0
0
0
0
0
0
0
0
0
0
0
0
0
0
0
0
0
0
0
0
0
0
0
0
0
0
0
0
0
0
0
0
0
0
0
0
0
0
0
0
0
0
0
0
0
0
0
0
0
0
0
0
0
0
0
0
0
0
0
0
0
0
0
0
0
0
0
0
0
0
0
0
0
0
0
0
0
0
0
0
0
0
0
0
0
0
0
0
0
0
0
0
0
0
0
0
0
0
0
0
0
0
0
0
0
0
0
0
0
0
0
0
0
0
0
0
0
0
0
0
0
0
0
0
0
0
0
0
0
0
0
0
0
0
0
0
0
0
0
0
0
0
0
0
0
0
0
0
0
0
0
0
0
0
0
0
0
0
0
0
0
0
0
0
0
0
0
0
0
0
0
0
0
0
0
0
0
0
0
0
0
0
0
0
0
0
0
0
0
0
0
0
0
0
0
0
0
0
0
0
0
0
0
0
0
0
0
0
0
0
0
0
0
0
0
0
0
0
0
0
0
0
0
0
0
0
0
0
0
0
0
0
0
0
0
0
0
0
0
0
0
0
0
0
0
0
0
0
0
0
0
0
0
0
0
0
0
0
0
0
0
0
0
0
0
0
0
0
0
0
0
0
0
0
0
0
0
0
0
0
0
0
0
0
0
0
0
0
0
0
0
0
0
0
0
0
0
0
0
0
0
0
0
0
0
0
0
0
0
0
0
0
0
0
0
0
0
0
0
0
0
0
0
0
0
0
0
0
0
0
0
0
0
0
0
0
0
0
0
0
0
0
0
0
0
0
0
0
0
0
0
0
0
0
0
0
0
0
0
0
0
0
0
0
0
0
0
0
0
0
0
0
0
0
0
0
0
0
0
0
0
0
0
0
0
0
0
0
0
0
0
0
0
0
0
0
0
0
0
0
0
0
0
0
0
0
0
0
0
0
0
0
0
0
0
0
0
0
0
0
0
0
0
0
0
0
0
0
0
0
0
0
0
0
0
0
0
0
0
0
0
0
0
0
0
0
0
0
0
0
0
0
0
0
0
0
0
0
0
0
0
0
0
0
0
0
0
0
0
0
0
0
0
0
0
0
0
0
0
0
0
0
0
0
0
0
0
0
0
0
0
0
0
0
0
0
0
0
0
0
0
0
0
0
0
0
0
0
0
0
0
0
0
0
0
0
0
0
0
0
0
0
0
0
0
0
0
0
0
0
0
0
0
0
0
0
0
0
0
0
0
0
0
0
0
0
0
0
0
0
0
0
0
0
0
0
0
0
0
0
0
0
0
0
0
0
0
)
;

boundaryField
{
    wireUpstream
    {
        type            calculated;
        value           uniform 0;
    }
    wireDownstream
    {
        type            calculated;
        value           nonuniform List<scalar> 
16
(
0.0115394
0.0115675
0.0116166
0.0116699
0.0117358
0.0117922
0.0118412
0.011848
0.011814
0.0116626
0.0114016
0.0108708
0.0101134
0.00885121
0.00722392
0.011524
)
;
    }
    wireTopContact
    {
        type            calculated;
        value           nonuniform List<scalar> 
122
(
0.00722375
0.00729014
0.00735652
0.00742285
0.00749071
0.00755804
0.0076249
0.00769141
0.00775771
0.00782387
0.00788982
0.00795553
0.00802144
0.00808791
0.00815465
0.00822167
0.00828768
0.00835294
0.0084181
0.00848321
0.00855061
0.00861768
0.00868558
0.00875399
0.00882138
0.0088884
0.00895542
0.00902236
0.00908859
0.00915445
0.00922085
0.00928711
0.00935294
0.00941817
0.00948327
0.00954935
0.00961593
0.0096822
0.00974817
0.00981404
0.00987946
0.00994465
0.0100099
0.0100751
0.0101402
0.0102052
0.0102696
0.0103343
0.0104002
0.0104664
0.0105337
0.0106014
0.0106687
0.0107346
0.0107999
0.0108456
0.0107704
0.0105161
0.00978359
0.00872
0.00761532
0.00653967
0.00550056
0.00450949
0.00355637
0.00258481
0.00154888
0.000568482
0
0
0
0
0
0
0
0
0
0
0
0
0
0
0
0
0
0
0
0
0
0
0
0
0
0
0
0
0
0
0
0
0
0
0
0
0
0
0
0
0
0
0
0
0
0
0
0
0
0
0
0
0
0.00715753
)
;
    }
    front
    {
        type            wedge;
    }
    back
    {
        type            wedge;
    }
}


// ************************************************************************* //
