/*--------------------------------*- C++ -*----------------------------------*\
| =========                 |                                                 |
| \\      /  F ield         | foam-extend: Open Source CFD                    |
|  \\    /   O peration     | Version:     4.1-20200408                       |
|   \\  /    A nd           | Web:         http://www.foam-extend.org         |
|    \\/     M anipulation  |                                                 |
\*---------------------------------------------------------------------------*/
FoamFile
{
    version     2.0;
    format      ascii;
    class       volScalarField;
    location    "0.0270000";
    object      epsilonTrueEq;
}
// * * * * * * * * * * * * * * * * * * * * * * * * * * * * * * * * * * * * * //

dimensions      [0 0 0 0 0 0 0];

internalField   nonuniform List<scalar> 
1952
(
0.0120883
0.0121108
0.012145
0.0121883
0.0122426
0.0123003
0.0123641
0.0124185
0.0124658
0.0124806
0.0124608
0.0123782
0.0122418
0.0120384
0.0118344
0.012078
0.0122188
0.0122416
0.0122762
0.0123201
0.0123751
0.0124335
0.012498
0.0125522
0.0125997
0.0126129
0.0125909
0.0125019
0.0123556
0.0121305
0.0118836
0.0122083
0.0123376
0.0123604
0.0123951
0.012439
0.012494
0.0125523
0.0126163
0.0126694
0.0127154
0.0127258
0.0126994
0.012603
0.0124464
0.0122085
0.0119595
0.012327
0.0124446
0.0124673
0.0125021
0.0125459
0.0126008
0.0126588
0.0127221
0.0127738
0.0128179
0.0128253
0.0127942
0.0126911
0.0125265
0.0122811
0.012031
0.0124339
0.0125418
0.0125644
0.0125992
0.0126427
0.0126975
0.0127551
0.0128175
0.0128678
0.01291
0.0129147
0.0128795
0.0127714
0.0126017
0.0123538
0.0121078
0.0125311
0.01263
0.0126526
0.0126873
0.0127305
0.012785
0.0128422
0.0129037
0.0129529
0.0129934
0.0129959
0.0129576
0.0128462
0.0126737
0.0124254
0.0121842
0.0126193
0.0127116
0.0127341
0.0127687
0.0128116
0.0128661
0.0129228
0.0129833
0.0130321
0.0130714
0.0130724
0.0130322
0.0129187
0.0127453
0.0124977
0.0122604
0.0127008
0.0127865
0.0128089
0.0128437
0.0128864
0.0129409
0.0129971
0.0130566
0.0131059
0.0131444
0.0131444
0.0131033
0.0129887
0.0128155
0.0125689
0.0123347
0.0127757
0.0128562
0.0128788
0.0129136
0.0129564
0.013011
0.0130669
0.0131261
0.0131757
0.0132139
0.0132135
0.0131722
0.013057
0.0128842
0.0126387
0.0124075
0.0128454
0.0129218
0.0129445
0.0129793
0.0130224
0.0130772
0.0131331
0.013193
0.0132424
0.0132807
0.0132805
0.0132393
0.013124
0.0129518
0.0127075
0.0124786
0.0129109
0.0129842
0.013007
0.013042
0.0130854
0.0131405
0.0131967
0.0132574
0.0133069
0.0133457
0.0133458
0.0133048
0.0131898
0.0130182
0.012775
0.0125482
0.0129733
0.0130442
0.0130673
0.0131025
0.0131462
0.0132018
0.0132584
0.01332
0.0133699
0.0134092
0.01341
0.0133694
0.0132546
0.0130837
0.0128413
0.0126163
0.0130332
0.0131023
0.0131257
0.0131612
0.0132054
0.0132615
0.0133187
0.0133813
0.0134317
0.0134718
0.0134732
0.013433
0.0133185
0.0131482
0.0129066
0.012683
0.0130913
0.0131593
0.0131829
0.0132188
0.0132635
0.0133204
0.0133782
0.0134419
0.0134929
0.0135338
0.0135359
0.0134961
0.0133819
0.013212
0.012971
0.0127486
0.0131481
0.0132153
0.0132393
0.0132756
0.0133209
0.0133785
0.0134371
0.013502
0.0135537
0.0135955
0.0135983
0.0135588
0.013445
0.0132755
0.0130348
0.0128136
0.013204
0.013271
0.0132954
0.0133322
0.0133782
0.0134366
0.0134961
0.0135622
0.0136146
0.0136575
0.013661
0.0136217
0.0135087
0.0133393
0.0130986
0.0128778
0.0132597
0.0133263
0.013351
0.0133884
0.0134351
0.0134945
0.013555
0.0136224
0.0136756
0.0137198
0.0137237
0.0136845
0.0135724
0.0134033
0.013162
0.0129415
0.0133148
0.0133814
0.0134066
0.0134445
0.0134922
0.0135526
0.0136141
0.013683
0.0137372
0.0137826
0.0137871
0.0137483
0.0136367
0.0134675
0.0132251
0.0130038
0.0133697
0.0134355
0.0134615
0.0135
0.0135488
0.0136102
0.0136729
0.0137432
0.0137986
0.0138451
0.0138502
0.0138123
0.0137003
0.0135307
0.0132872
0.0130649
0.0134235
0.013489
0.0135162
0.0135553
0.0136051
0.0136676
0.0137316
0.0138033
0.01386
0.0139075
0.0139132
0.0138759
0.0137633
0.0135931
0.0133485
0.0131255
0.0134764
0.0135417
0.0135703
0.0136104
0.013661
0.0137249
0.0137901
0.0138634
0.0139213
0.0139699
0.0139761
0.0139394
0.0138262
0.0136553
0.0134092
0.0131855
0.0135288
0.013594
0.0136239
0.0136649
0.0137164
0.0137817
0.0138482
0.0139233
0.0139823
0.014032
0.0140388
0.0140025
0.0138889
0.0137174
0.0134698
0.0132452
0.013581
0.0136464
0.0136768
0.0137187
0.0137714
0.0138382
0.0139061
0.0139829
0.0140432
0.014094
0.0141014
0.0140656
0.0139518
0.0137797
0.0135299
0.0133043
0.0136332
0.0136978
0.0137288
0.0137717
0.0138257
0.0138939
0.0139635
0.014042
0.0141037
0.0141556
0.0141638
0.0141285
0.0140148
0.0138418
0.0135903
0.013365
0.0136842
0.013748
0.0137798
0.013824
0.0138791
0.013949
0.0140201
0.0141005
0.0141637
0.014217
0.014226
0.0141916
0.0140776
0.0139041
0.0136517
0.0134267
0.0137341
0.013797
0.0138291
0.0138751
0.0139317
0.014003
0.014076
0.0141584
0.0142231
0.0142779
0.0142879
0.0142547
0.0141407
0.0139666
0.0137132
0.0134879
0.013783
0.0138446
0.0138769
0.013925
0.0139831
0.0140558
0.014131
0.0142154
0.0142817
0.0143385
0.0143498
0.0143177
0.0142038
0.0140292
0.0137748
0.0135494
0.0138307
0.0138908
0.013924
0.0139733
0.014033
0.0141074
0.0141848
0.0142714
0.0143395
0.0143988
0.0144114
0.0143807
0.0142669
0.0140918
0.0138367
0.0136116
0.0138766
0.0139353
0.0139697
0.01402
0.0140815
0.014158
0.0142377
0.0143266
0.0143963
0.0144588
0.0144729
0.0144435
0.0143301
0.0141547
0.0138991
0.0136746
0.0139208
0.0139784
0.0140139
0.0140655
0.0141288
0.0142075
0.0142896
0.0143809
0.0144528
0.0145186
0.0145345
0.0145068
0.0143942
0.0142189
0.0139629
0.0137384
0.0139634
0.0140199
0.0140566
0.0141096
0.0141746
0.0142558
0.0143404
0.0144346
0.0145097
0.0145779
0.014596
0.0145706
0.0144588
0.0142841
0.0140278
0.0138033
0.0140046
0.0140602
0.014098
0.0141524
0.0142192
0.0143028
0.0143901
0.0144872
0.0145657
0.0146366
0.0146573
0.0146343
0.0145236
0.0143499
0.0140935
0.0138704
0.0140445
0.0140996
0.0141385
0.0141942
0.0142631
0.0143489
0.0144391
0.0145391
0.0146211
0.014695
0.0147187
0.0146983
0.014589
0.0144168
0.0141605
0.0139396
0.0140835
0.0141393
0.0141788
0.0142355
0.0143066
0.0143947
0.0144875
0.0145905
0.0146761
0.0147531
0.0147801
0.0147627
0.0146554
0.0144854
0.0142295
0.0140111
0.0141229
0.01418
0.0142197
0.0142768
0.0143502
0.0144404
0.0145354
0.0146415
0.0147305
0.0148108
0.0148416
0.0148273
0.0147225
0.0145555
0.0143001
0.0140849
0.0141632
0.0142225
0.0142623
0.0143201
0.0143947
0.0144865
0.0145833
0.0146922
0.0147845
0.0148681
0.0149029
0.0148917
0.01479
0.0146267
0.0143727
0.014162
0.0142055
0.0142684
0.0143081
0.0143665
0.014441
0.0145339
0.0146319
0.0147429
0.0148379
0.0149248
0.0149632
0.014956
0.0148583
0.0146991
0.0144503
0.0142441
0.0142515
0.0143204
0.0143593
0.0144177
0.0144913
0.0145841
0.0146823
0.0147945
0.0148914
0.0149813
0.0150232
0.0150201
0.0149276
0.0147731
0.0145317
0.0143311
0.0143036
0.0143813
0.0144187
0.0144761
0.0145476
0.0146392
0.0147361
0.0148482
0.014946
0.015038
0.0150831
0.0150843
0.0149979
0.0148486
0.0146154
0.0144225
0.0143649
0.0144549
0.0144899
0.014545
0.0146128
0.0147014
0.0147952
0.0149055
0.0150026
0.0150955
0.0151432
0.0151485
0.0150686
0.014925
0.0147017
0.0145191
0.0144392
0.0145457
0.014577
0.0146285
0.0146907
0.0147741
0.0148623
0.0149683
0.0150626
0.0151544
0.0152036
0.0152123
0.0151392
0.0150027
0.0147909
0.0146212
0.014531
0.0146589
0.0146854
0.0147313
0.0147857
0.0148612
0.0149408
0.0150394
0.0151278
0.0152158
0.0152647
0.0152753
0.0152093
0.0150814
0.0148831
0.014729
0.0146457
0.0148009
0.0148211
0.0148597
0.0149037
0.014968
0.0150353
0.0151227
0.0152012
0.0152816
0.015327
0.0153375
0.0152781
0.0151596
0.0149773
0.0148428
0.0147896
0.0149787
0.0149912
0.0150204
0.015051
0.0151006
0.0151515
0.015223
0.0152864
0.0153545
0.0153919
0.0153991
0.0153446
0.0152357
0.0150728
0.0149625
0.0149699
0.0152
0.0152034
0.015221
0.0152353
0.0152668
0.0152967
0.0153468
0.0153893
0.0154389
0.0154623
0.0154614
0.0154086
0.0153086
0.0151682
0.0150874
0.0151941
0.0154726
0.0154657
0.0154699
0.0154655
0.0154754
0.0154797
0.0155029
0.0155176
0.0155416
0.0155431
0.0155274
0.0154711
0.0153774
0.0152621
0.0152156
0.01547
0.0158038
0.0157861
0.0157754
0.0157498
0.0157361
0.0157111
0.0157019
0.0156822
0.0156723
0.0156426
0.0156027
0.0155342
0.0154413
0.0153514
0.0153444
0.0158049
0.0161996
0.016171
0.0161448
0.0160977
0.0160588
0.0160021
0.0159565
0.0158967
0.0158451
0.0157738
0.0156975
0.0156027
0.0154986
0.015428
0.0154671
0.0162042
0.016663
0.0166242
0.0165838
0.016517
0.0164523
0.016364
0.016281
0.016178
0.0160799
0.0159583
0.015834
0.015696
0.015561
0.0154888
0.0155716
0.0166709
0.017194
0.0171467
0.017094
0.0170102
0.0169225
0.0168055
0.0166878
0.0165434
0.0163995
0.0162263
0.016051
0.0158625
0.0156857
0.0155903
0.0156804
0.0172047
0.0177876
0.0177341
0.0176721
0.0175755
0.0174698
0.0173298
0.0171831
0.0170034
0.0168198
0.0166011
0.016382
0.0161491
0.0159376
0.0158134
0.0158692
0.0178004
0.0184334
0.0183767
0.0183092
0.0182048
0.0180873
0.0179312
0.0177632
0.017556
0.01734
0.0170818
0.016823
0.016545
0.0162919
0.0161161
0.0160884
0.0184474
0.0191141
0.0190571
0.0189883
0.0188818
0.0187592
0.0185951
0.018414
0.0181873
0.0179459
0.0176523
0.0173531
0.0170202
0.0167054
0.0164448
0.0162959
0.0191282
0.0198069
0.0197529
0.0196869
0.0195842
0.0194635
0.0192993
0.0191139
0.0188762
0.018616
0.0182914
0.0179507
0.0175522
0.0171573
0.0167828
0.0164853
0.0198203
0.0204833
0.0204351
0.0203761
0.0202826
0.0201706
0.0200146
0.0198334
0.0195938
0.0193229
0.0189727
0.0185915
0.0181203
0.0176306
0.0171172
0.0166469
0.020495
0.0211106
0.0210707
0.021022
0.0209427
0.0208453
0.0207054
0.0205369
0.0203058
0.0200345
0.0196667
0.0192511
0.0187061
0.0181144
0.0174425
0.0167759
0.0211198
0.0216531
0.0216233
0.021588
0.0215267
0.0214491
0.0213319
0.0211842
0.0209719
0.020711
0.0203386
0.0199001
0.0192891
0.0185989
0.017759
0.0168788
0.0216592
0.0220729
0.022053
0.0220319
0.0219907
0.0219359
0.0218456
0.0217244
0.0215396
0.0212995
0.0209385
0.020495
0.0198372
0.0190663
0.0180555
0.016917
0.0220755
0.0223518
0.0223421
0.0223348
0.0223137
0.022282
0.0222198
0.0221277
0.0219762
0.021765
0.0214327
0.0210051
0.0203338
0.0195181
0.0183198
0.0168434
0.0223508
0.022431
0.0224323
0.0224398
0.0224372
0.0224266
0.0223897
0.0223232
0.0222006
0.0220121
0.0217053
0.0212816
0.020606
0.019746
0.018354
0.0165764
0.0224263
0.0221955
0.0222039
0.022222
0.022233
0.0222364
0.0222153
0.0221606
0.0220474
0.0218529
0.0215333
0.0210575
0.0203224
0.0193367
0.0177854
0.0158616
0.0221878
0.0215944
0.0216016
0.0216196
0.0216312
0.0216335
0.0216102
0.021546
0.0214159
0.021185
0.0208145
0.0202466
0.0194159
0.0182796
0.0166814
0.0148311
0.0215859
0.0206388
0.020635
0.0206389
0.0206326
0.0206124
0.0205636
0.0204659
0.0202949
0.020009
0.0195745
0.0189208
0.0180266
0.0168259
0.0153357
0.0137482
0.0206325
0.019361
0.0193374
0.0193134
0.0192709
0.0192069
0.019109
0.0189555
0.018725
0.018377
0.0178851
0.0171837
0.016292
0.0151462
0.0138947
0.0126872
0.0193601
0.0178196
0.017772
0.0177121
0.0176212
0.0174984
0.017332
0.0171061
0.0168036
0.0163924
0.0158568
0.0151537
0.0143314
0.0133457
0.0124219
0.011657
0.0178259
0.0160832
0.016013
0.0159181
0.0157778
0.0155915
0.0153481
0.0150435
0.0146654
0.0141933
0.0136229
0.0129493
0.0122417
0.0114925
0.0109547
0.010667
0.0160964
0.0142226
0.0141349
0.014014
0.0138355
0.0135959
0.0132836
0.0129092
0.0124656
0.0119443
0.0113463
0.0107113
0.0101274
0.00964489
0.00950851
0.00970428
0.0142412
0.0123153
0.012214
0.0120769
0.0118782
0.011609
0.0112528
0.0108313
0.0103421
0.00979336
0.00918961
0.00860615
0.00813906
0.00790083
0.00810139
0.00871427
0.0123388
0.0104396
0.0103241
0.0101705
0.00995465
0.00967113
0.00930189
0.00886544
0.00835628
0.00781641
0.0072912
0.00686863
0.00657873
0.0065277
0.00685262
0.00765926
0.0104689
0.00860626
0.00847756
0.00829976
0.00805182
0.00775253
0.00742467
0.00707319
0.00666655
0.00627174
0.00595138
0.00576246
0.00566179
0.00571607
0.00598756
0.00666794
0.0086419
0.00689949
0.00678994
0.00663283
0.00641184
0.00616765
0.00594798
0.00575256
0.00553921
0.00535442
0.00520012
0.0051216
0.00511841
0.0052543
0.0055242
0.00599499
0.00693113
0.00560907
0.00554635
0.00546001
0.00534185
0.00521563
0.00507521
0.00493924
0.00480532
0.00470803
0.00463144
0.00461798
0.00468543
0.00488191
0.00519348
0.00562368
0.00562734
0.0047721
0.00472784
0.00467091
0.00459671
0.00451758
0.00441302
0.00430801
0.00421399
0.00416332
0.00415068
0.0042043
0.00432807
0.00455137
0.00487088
0.00529562
0.00478525
0.00410411
0.00406778
0.00402075
0.00396101
0.00390121
0.00383535
0.00378022
0.00374051
0.00373955
0.00377512
0.00386899
0.00402532
0.00426045
0.00457112
0.00495709
0.00411535
0.00353358
0.00351122
0.00348252
0.00344789
0.00341459
0.0033803
0.00335904
0.0033572
0.00339143
0.00346307
0.0035852
0.0037596
0.0039937
0.00428589
0.00463627
0.00354085
0.00307174
0.00305914
0.00304263
0.00302579
0.00301294
0.00300686
0.00301628
0.00304707
0.00310912
0.0032054
0.00334261
0.00352275
0.00374767
0.00401638
0.0043284
0.00307651
0.00269245
0.00268956
0.0026852
0.00268551
0.00269127
0.00270793
0.00273989
0.00279385
0.00287431
0.00298556
0.00312916
0.00330734
0.00351849
0.00376221
0.00403876
0.0026945
0.0023863
0.00239116
0.00239633
0.00241024
0.00243066
0.0024651
0.0025139
0.00258429
0.00267631
0.00279515
0.00293867
0.00310971
0.0033046
0.00352343
0.00376709
0.00238617
0.00213917
0.00215048
0.00216356
0.00218844
0.00222021
0.0022676
0.00232769
0.00240826
0.00250601
0.00262684
0.00276603
0.00292696
0.00310478
0.00329997
0.00351416
0.0021371
0.00194077
0.00195699
0.00197599
0.00200892
0.0020487
0.00210483
0.00217181
0.00225779
0.00235705
0.00247596
0.00260813
0.00275737
0.00291822
0.00309144
0.00327936
0.00193717
0.00178146
0.00180121
0.00182444
0.00186288
0.00190783
0.00196912
0.00203942
0.00212708
0.00222474
0.00233908
0.00246269
0.00259962
0.00274424
0.00289748
0.00306227
0.00177669
0.00165336
0.00167537
0.00170126
0.00174295
0.00179065
0.00185423
0.00192514
0.00201176
0.00210573
0.00221381
0.0023281
0.00245274
0.00258217
0.00271739
0.00286187
0.00164778
0.00154978
0.00157296
0.00160022
0.00164331
0.00169183
0.00175548
0.001825
0.00190865
0.00199755
0.00209841
0.00220315
0.0023159
0.00243133
0.00255046
0.00267725
0.00154373
0.00146526
0.00148874
0.0015163
0.00155932
0.00160719
0.00166926
0.00173599
0.00181538
0.00189839
0.00199155
0.00208689
0.00218838
0.00229105
0.0023959
0.00250731
0.00145902
0.00139537
0.00141844
0.00144551
0.00148735
0.0015335
0.00159284
0.00165584
0.00173016
0.00180688
0.00189221
0.0019785
0.00206948
0.00216062
0.00225285
0.00235092
0.00138915
0.00133653
0.0013587
0.00138467
0.00142456
0.00146826
0.00152409
0.00158282
0.00165162
0.00172192
0.00179955
0.00187729
0.00195857
0.00203937
0.00212048
0.00220705
0.0013305
0.00128591
0.00130683
0.00133131
0.00136874
0.00140954
0.0014614
0.00151556
0.00157869
0.00164266
0.00171288
0.00178265
0.00185506
0.00192659
0.00199795
0.00207458
0.00128019
0.00124128
0.00126075
0.00128351
0.00131818
0.00135582
0.00140351
0.00145302
0.0015105
0.00156838
0.00163159
0.001694
0.00175835
0.00182166
0.00188448
0.00195256
0.00123595
0.00120094
0.00121884
0.00123976
0.00127155
0.00130595
0.00134943
0.00139438
0.00144638
0.00149849
0.00155515
0.00161084
0.00166791
0.00172392
0.00177928
0.00184001
0.00119604
0.00116357
0.00117988
0.00119893
0.00122782
0.00125903
0.00129839
0.00133895
0.00138575
0.00143248
0.00148309
0.00153268
0.00158321
0.00163277
0.00168162
0.00173602
0.0011591
0.00112819
0.00114294
0.00116016
0.00118624
0.00121437
0.0012498
0.00128622
0.00132815
0.00136992
0.00141499
0.00145907
0.00150376
0.00154764
0.00159082
0.00163981
0.00112416
0.00109408
0.00110735
0.00112282
0.00114623
0.00117146
0.00120319
0.00123578
0.0012732
0.00131044
0.00135047
0.00138962
0.0014291
0.00146798
0.00150624
0.00155057
0.00109047
0.00106074
0.00107261
0.00108644
0.00110737
0.00112991
0.00115822
0.00118728
0.00122059
0.00125372
0.00128921
0.00132395
0.00135882
0.00139333
0.00142731
0.00146765
0.00105752
0.0010278
0.00103839
0.00105072
0.00106935
0.00108943
0.00111461
0.00114048
0.00117005
0.00119949
0.00123091
0.00126176
0.00129253
0.00132323
0.00135349
0.00139041
0.00102494
0.000995046
0.00100446
0.00101542
0.00103198
0.00104983
0.00107218
0.00109517
0.00112137
0.00114753
0.00117532
0.00120273
0.00122991
0.00125728
0.00128432
0.00131832
0.000992509
0.000962334
0.000970694
0.000980421
0.000995101
0.00101096
0.00103077
0.0010512
0.0010744
0.00109765
0.00112223
0.00114661
0.00117064
0.00119512
0.00121938
0.00125087
0.000960089
0.000929595
0.000937011
0.000945643
0.000958649
0.000972741
0.000990278
0.00100845
0.00102898
0.00104968
0.00107142
0.00109316
0.00111443
0.00113641
0.00115826
0.0011876
0.000927609
0.000896812
0.00090339
0.000911056
0.000922577
0.00093511
0.000950642
0.00096682
0.00098501
0.00100347
0.00102272
0.00104218
0.00106105
0.00108088
0.00110065
0.00112816
0.000895053
0.000863999
0.000869839
0.000876659
0.000886872
0.000898043
0.000911811
0.000926257
0.000942388
0.000958905
0.000975995
0.000993466
0.00101026
0.00102824
0.00104622
0.00107215
0.00086244
0.000831198
0.000836391
0.000842476
0.000851542
0.000861531
0.000873757
0.000886703
0.00090104
0.000915884
0.000931094
0.000946867
0.00096187
0.000978263
0.00099471
0.0010193
0.000829811
0.000798464
0.000803092
0.000808542
0.000816609
0.000825579
0.000836462
0.000848121
0.000860902
0.000874316
0.000887903
0.000902232
0.000915693
0.000930746
0.000945876
0.000969333
0.000797225
0.000765866
0.000770003
0.000774908
0.000782105
0.000790204
0.000799924
0.000810485
0.000821923
0.000834125
0.00084632
0.00085943
0.000871578
0.000885506
0.000899515
0.00092201
0.000764753
0.000733478
0.000737189
0.000741628
0.000748073
0.000755429
0.000764143
0.000773775
0.000784059
0.000795242
0.000806252
0.000818347
0.000829386
0.000842383
0.00085545
0.000877148
0.000732474
0.000701385
0.000704725
0.000708768
0.000714558
0.000721284
0.00072913
0.000737979
0.000747276
0.00075761
0.000767616
0.000778876
0.000788989
0.000801226
0.000813506
0.000834545
0.000700473
0.000669677
0.000672692
0.000676396
0.000681617
0.000687807
0.000694902
0.000703094
0.000711545
0.000721179
0.00073034
0.000740927
0.000750276
0.000761914
0.000773558
0.000794078
0.000668843
0.000638452
0.000641181
0.000644593
0.000649312
0.000655045
0.000661484
0.000669123
0.000676846
0.000685907
0.000694358
0.000704412
0.000713143
0.000724322
0.000735464
0.000755589
0.000637685
0.000607821
0.000610292
0.000613447
0.000617719
0.000623052
0.000628911
0.000636079
0.000643169
0.000651759
0.000659614
0.000669256
0.000677498
0.00068835
0.000699122
0.00071898
0.000607112
0.000577907
0.000580143
0.000583063
0.000586926
0.000591899
0.000597232
0.000603986
0.000610514
0.000618712
0.000626062
0.000635392
0.000643258
0.000653902
0.000664431
0.000684149
0.000577253
0.000548855
0.000550867
0.000553563
0.000557039
0.000561672
0.000566513
0.000572884
0.000578895
0.000586754
0.000593663
0.00060276
0.000610347
0.00062089
0.000631302
0.000651006
0.000548252
0.000520829
0.00052262
0.000525092
0.00052819
0.00053248
0.00053684
0.000542833
0.000548346
0.000555885
0.000562392
0.00057131
0.000578697
0.000589235
0.000599661
0.000619492
0.000520277
0.000494017
0.000495586
0.000497819
0.000500533
0.000504458
0.000508327
0.000513915
0.000518921
0.000526125
0.000532236
0.000540995
0.000548236
0.000558847
0.000569413
0.00058951
0.00049352
0.000468635
0.000469975
0.000471944
0.000474258
0.000477774
0.000481123
0.000486248
0.000490707
0.000497521
0.000503206
0.000511787
0.000518908
0.000529647
0.00054049
0.000561012
0.000468199
0.000444925
0.000446024
0.000447697
0.000449587
0.000452631
0.000455417
0.000459986
0.000463832
0.000470152
0.000475339
0.000483669
0.000490651
0.000501537
0.000512784
0.000533894
0.000444558
0.000423152
0.000424
0.000425338
0.000426778
0.000429275
0.000431444
0.000435339
0.000438481
0.000444151
0.000448721
0.000456657
0.000463422
0.00047442
0.000486188
0.000508067
0.000422863
0.000403597
0.000404188
0.000405155
0.000406124
0.000407997
0.000409497
0.000412577
0.000414912
0.000419722
0.00042351
0.000430824
0.000437215
0.000448203
0.000460568
0.000483388
0.000403395
0.000386547
0.000386884
0.000387451
0.000387948
0.000389126
0.000389926
0.000392047
0.000393475
0.000397176
0.00039998
0.000406343
0.000412098
0.000422837
0.000435794
0.000459651
0.000386436
0.000372278
0.000372377
0.000372536
0.000372583
0.000373027
0.000373132
0.000374176
0.00037463
0.000376955
0.000378557
0.000383522
0.000388248
0.000398321
0.000411714
0.000436606
0.000372261
0.000361025
0.000360919
0.000360687
0.000360343
0.000360061
0.000359534
0.000359448
0.000358937
0.000359659
0.000359864
0.000362866
0.000365972
0.000374579
0.000387842
0.000413756
0.000361097
0.000352919
0.000352656
0.000352077
0.000351436
0.000350496
0.000349475
0.000348318
0.000346984
0.000346034
0.000344828
0.000345342
0.000346189
0.000351959
0.000363632
0.00039018
0.000353069
0.000348006
0.00034765
0.000346794
0.000345992
0.000344522
0.000343236
0.000341199
0.000339397
0.000337012
0.000334855
0.000332941
0.000331667
0.000333527
0.000341674
0.000366293
0.000348216
0.000347303
0.000346909
0.000345851
0.000345004
0.000343141
0.000341791
0.000339106
0.000337171
0.000333737
0.000331198
0.000327441
0.000324808
0.000322759
0.000325463
0.000341393
0.000347558
0.000348535
0.000348135
0.000346999
0.000346155
0.000344136
0.000342796
0.000339845
0.000337902
0.000334024
0.000331376
0.0003268
0.000323602
0.000319571
0.000319201
0.000327492
0.000348806
)
;

boundaryField
{
    wireUpstream
    {
        type            calculated;
        value           nonuniform List<scalar> 
16
(
0.000350152
0.000349776
0.00034857
0.000347794
0.000345626
0.000344398
0.000341182
0.000339372
0.00033503
0.00033244
0.000326985
0.000323402
0.000317443
0.000314215
0.000312362
0.000350436
)
;
    }
    wireDownstream
    {
        type            calculated;
        value           nonuniform List<scalar> 
16
(
0.0120865
0.0121087
0.0121426
0.0121853
0.0122391
0.0122961
0.0123591
0.0124129
0.0124592
0.0124738
0.0124531
0.0123709
0.012235
0.0120385
0.0118701
0.0120763
)
;
    }
    wireTopContact
    {
        type            calculated;
        value           nonuniform List<scalar> 
122
(
0.0118654
0.0119399
0.0120108
0.0120874
0.0121638
0.0122399
0.0123142
0.0123869
0.0124579
0.0125275
0.0125955
0.012662
0.0127276
0.0127924
0.0128566
0.0129201
0.0129822
0.0130432
0.0131035
0.0131634
0.013223
0.0132822
0.0133428
0.0134042
0.0134653
0.0135265
0.0135884
0.0136512
0.0137147
0.0137793
0.0138461
0.0139149
0.013986
0.0140595
0.0141361
0.0142176
0.014304
0.0143949
0.014491
0.0145927
0.0147002
0.0148138
0.0149337
0.015059
0.015188
0.0153183
0.0154445
0.0155547
0.0156672
0.0158663
0.016092
0.0163023
0.0164934
0.016656
0.0167851
0.0168885
0.0169245
0.0168394
0.0165755
0.0158398
0.0147763
0.0136728
0.0126016
0.01157
0.0105873
0.00964155
0.00867622
0.00764494
0.00666463
0.00599059
0.00562481
0.00529925
0.00496078
0.00463978
0.00433154
0.00404155
0.00376956
0.00351637
0.00328132
0.00306405
0.00286349
0.00267872
0.00250865
0.00235214
0.00220816
0.00207558
0.00195346
0.0018408
0.00173672
0.00164041
0.00155108
0.00146807
0.00139075
0.00131858
0.00125106
0.00118772
0.00112821
0.00107214
0.00101922
0.000969194
0.000921811
0.000876891
0.000834224
0.000793698
0.000755143
0.000718468
0.000683569
0.000650352
0.000618768
0.000588711
0.000560148
0.000532969
0.000507102
0.000482422
0.000458733
0.000435812
0.000413264
0.00039046
0.000367856
0.000344371
0.000330549
0.0118274
)
;
    }
    front
    {
        type            wedge;
    }
    back
    {
        type            wedge;
    }
}


// ************************************************************************* //
