/*--------------------------------*- C++ -*----------------------------------*\
| =========                 |                                                 |
| \\      /  F ield         | OpenFOAM: The Open Source CFD Toolbox           |
|  \\    /   O peration     | Version:  4.1                                   |
|   \\  /    A nd           | Web:      www.OpenFOAM.org                      |
|    \\/     M anipulation  |                                                 |
\*---------------------------------------------------------------------------*/
FoamFile
{
    version     2.0;
    format      ascii;
    class       pointVectorField;
    location    "0.0100";
    object      pointDisplacement;
}
// * * * * * * * * * * * * * * * * * * * * * * * * * * * * * * * * * * * * * //

dimensions      [0 1 0 0 0 0 0];

internalField   nonuniform List<vector> 
1885
(
(3.4595e-05 3.1049e-06 -7.9338e-11)
(3.2469e-05 3.713e-06 -1.9247e-10)
(3.0278e-05 4.2219e-06 -2.9554e-10)
(2.8002e-05 4.5752e-06 -3.8327e-10)
(2.5634e-05 4.7608e-06 -4.5318e-10)
(2.3183e-05 4.7744e-06 -4.9426e-10)
(2.0673e-05 4.5593e-06 -4.9455e-10)
(1.8124e-05 3.9722e-06 -4.4629e-10)
(1.5486e-05 2.9065e-06 -3.4818e-10)
(1.2553e-05 1.5523e-06 -2.221e-10)
(9.0272e-06 4.2231e-07 -1.0926e-10)
(4.7688e-06 -6.3891e-08 -3.7537e-11)
(0 0 0)
(3.4585e-05 2.7899e-06 -3.5022e-07)
(3.2453e-05 3.32e-06 -4.158e-07)
(3.0258e-05 3.7679e-06 -4.7137e-07)
(2.798e-05 4.0815e-06 -5.1047e-07)
(2.5612e-05 4.2457e-06 -5.3113e-07)
(2.3163e-05 4.251e-06 -5.3202e-07)
(2.065e-05 4.0448e-06 -5.0645e-07)
(1.8084e-05 3.512e-06 -4.3996e-07)
(1.5403e-05 2.5801e-06 -3.237e-07)
(1.242e-05 1.4186e-06 -1.789e-07)
(8.8777e-06 4.4634e-07 -5.7453e-08)
(4.6684e-06 -5.6395e-10 -1.0292e-09)
(0 0 0)
(3.4579e-05 2.4645e-06 -7.9581e-07)
(3.2443e-05 2.9212e-06 -9.4132e-07)
(3.0244e-05 3.3098e-06 -1.0654e-06)
(2.7965e-05 3.5836e-06 -1.1529e-06)
(2.5598e-05 3.7265e-06 -1.1984e-06)
(2.3149e-05 3.7265e-06 -1.1982e-06)
(2.0634e-05 3.5363e-06 -1.1372e-06)
(1.8055e-05 3.0632e-06 -9.8558e-07)
(1.5345e-05 2.2577e-06 -7.2696e-07)
(1.2328e-05 1.2682e-06 -4.0857e-07)
(8.7758e-06 4.3746e-07 -1.4094e-07)
(4.6002e-06 3.6307e-08 -1.1656e-08)
(0 0 0)
(3.4575e-05 2.0913e-06 -1.2438e-06)
(3.2436e-05 2.4719e-06 -1.4685e-06)
(3.0236e-05 2.7973e-06 -1.6607e-06)
(2.7955e-05 3.0272e-06 -1.7964e-06)
(2.5588e-05 3.1466e-06 -1.8667e-06)
(2.3141e-05 3.1436e-06 -1.8644e-06)
(2.0624e-05 2.9785e-06 -1.7666e-06)
(1.8036e-05 2.5772e-06 -1.5291e-06)
(1.5309e-05 1.9035e-06 -1.1297e-06)
(1.2273e-05 1.0816e-06 -6.4109e-07)
(8.7151e-06 3.9006e-07 -2.2984e-07)
(4.5599e-06 4.729e-08 -2.6675e-08)
(0 0 0)
(3.4573e-05 1.6805e-06 -1.6802e-06)
(3.2434e-05 1.9836e-06 -1.9833e-06)
(3.0233e-05 2.2431e-06 -2.243e-06)
(2.7952e-05 2.4265e-06 -2.4264e-06)
(2.5585e-05 2.5214e-06 -2.5214e-06)
(2.3138e-05 2.5178e-06 -2.5178e-06)
(2.062e-05 2.3843e-06 -2.3844e-06)
(1.8029e-05 2.0627e-06 -2.0628e-06)
(1.5296e-05 1.5246e-06 -1.5248e-06)
(1.2254e-05 8.6869e-07 -8.6882e-07)
(8.6951e-06 3.1637e-07 -3.1645e-07)
(4.5466e-06 4.0948e-08 -4.0992e-08)
(0 0 0)
(3.4575e-05 1.244e-06 -2.0909e-06)
(3.2436e-05 1.4686e-06 -2.4716e-06)
(3.0236e-05 1.6608e-06 -2.7971e-06)
(2.7955e-05 1.7964e-06 -3.027e-06)
(2.5588e-05 1.8666e-06 -3.1465e-06)
(2.3141e-05 1.8643e-06 -3.1436e-06)
(2.0624e-05 1.7664e-06 -2.9786e-06)
(1.8036e-05 1.529e-06 -2.5773e-06)
(1.5309e-05 1.1295e-06 -1.9036e-06)
(1.2273e-05 6.4097e-07 -1.0817e-06)
(8.7151e-06 2.2976e-07 -3.9016e-07)
(4.5599e-06 2.6635e-08 -4.7343e-08)
(0 0 0)
(3.4579e-05 7.9597e-07 -2.464e-06)
(3.2443e-05 9.4139e-07 -2.9207e-06)
(3.0244e-05 1.0654e-06 -3.3095e-06)
(2.7965e-05 1.1528e-06 -3.5833e-06)
(2.5598e-05 1.1983e-06 -3.7263e-06)
(2.3149e-05 1.198e-06 -3.7264e-06)
(2.0634e-05 1.137e-06 -3.5364e-06)
(1.8055e-05 9.8537e-07 -3.0633e-06)
(1.5345e-05 7.2679e-07 -2.2579e-06)
(1.2328e-05 4.0844e-07 -1.2683e-06)
(8.7758e-06 1.4086e-07 -4.3758e-07)
(4.6002e-06 1.1617e-08 -3.6372e-08)
(0 0 0)
(3.4586e-05 3.5034e-07 -2.7893e-06)
(3.2453e-05 4.1581e-07 -3.3195e-06)
(3.0258e-05 4.713e-07 -3.7675e-06)
(2.798e-05 5.1032e-07 -4.0811e-06)
(2.5613e-05 5.3093e-07 -4.2455e-06)
(2.3163e-05 5.3179e-07 -4.2509e-06)
(2.0651e-05 5.0621e-07 -4.0449e-06)
(1.8084e-05 4.3973e-07 -3.5122e-06)
(1.5403e-05 3.2351e-07 -2.5803e-06)
(1.242e-05 1.7876e-07 -1.4188e-06)
(8.8778e-06 5.7367e-08 -4.465e-07)
(4.6684e-06 9.8996e-10 4.8122e-10)
(0 0 0)
(3.4596e-05 1.8624e-10 -3.1043e-06)
(3.2469e-05 1.9647e-10 -3.7124e-06)
(3.0278e-05 2.1153e-10 -4.2214e-06)
(2.8002e-05 2.2914e-10 -4.5748e-06)
(2.5634e-05 2.4708e-10 -4.7606e-06)
(2.3183e-05 2.556e-10 -4.7743e-06)
(2.0673e-05 2.454e-10 -4.5594e-06)
(1.8124e-05 2.112e-10 -3.9724e-06)
(1.5486e-05 1.5198e-10 -2.9068e-06)
(1.2553e-05 8.1326e-11 -1.5525e-06)
(9.0273e-06 2.5102e-11 -4.2251e-07)
(4.7689e-06 2.1075e-13 6.3787e-08)
(0 0 0)
(3.4585e-05 2.7898e-06 3.4981e-07)
(3.2453e-05 3.32e-06 4.151e-07)
(3.0258e-05 3.7679e-06 4.7042e-07)
(2.798e-05 4.0814e-06 5.0929e-07)
(2.5612e-05 4.2457e-06 5.2979e-07)
(2.3163e-05 4.251e-06 5.306e-07)
(2.065e-05 4.0448e-06 5.0504e-07)
(1.8084e-05 3.512e-06 4.3869e-07)
(1.5403e-05 2.5801e-06 3.227e-07)
(1.242e-05 1.4185e-06 1.7824e-07)
(8.8777e-06 4.4628e-07 5.711e-08)
(4.6684e-06 -6.0497e-10 8.9976e-10)
(0 0 0)
(3.4569e-05 2.3101e-06 -7.308e-10)
(3.2429e-05 2.7283e-06 -9.6751e-10)
(3.0227e-05 3.0869e-06 -1.1843e-09)
(2.7946e-05 3.341e-06 -1.3591e-09)
(2.558e-05 3.4727e-06 -1.4776e-09)
(2.3133e-05 3.4672e-06 -1.5233e-09)
(2.0615e-05 3.2803e-06 -1.4742e-09)
(1.802e-05 2.8344e-06 -1.3057e-09)
(1.5278e-05 2.0963e-06 -1.0139e-09)
(1.2226e-05 1.2031e-06 -6.5456e-10)
(8.6638e-06 4.5075e-07 -3.3201e-10)
(4.5257e-06 6.8785e-08 -1.1961e-10)
(0 0 0)
(3.4562e-05 1.9728e-06 -3.9587e-07)
(3.2418e-05 2.3217e-06 -4.6531e-07)
(3.0213e-05 2.6229e-06 -5.2533e-07)
(2.7931e-05 2.8373e-06 -5.6806e-07)
(2.5565e-05 2.9477e-06 -5.9004e-07)
(2.3118e-05 2.9392e-06 -5.8831e-07)
(2.0597e-05 2.7745e-06 -5.5547e-07)
(1.7988e-05 2.3931e-06 -4.7941e-07)
(1.5221e-05 1.7757e-06 -3.5587e-07)
(1.214e-05 1.0371e-06 -2.077e-07)
(8.5719e-06 4.1279e-07 -8.2358e-08)
(4.4651e-06 8.2524e-08 -1.6213e-08)
(0 0 0)
(3.4558e-05 1.6032e-06 -8.0225e-07)
(3.2412e-05 1.8823e-06 -9.413e-07)
(3.0205e-05 2.1243e-06 -1.0619e-06)
(2.7922e-05 2.2969e-06 -1.1479e-06)
(2.5556e-05 2.3854e-06 -1.192e-06)
(2.3109e-05 2.3766e-06 -1.1875e-06)
(2.0585e-05 2.2404e-06 -1.1196e-06)
(1.7968e-05 1.9308e-06 -9.6518e-07)
(1.5185e-05 1.4356e-06 -7.1774e-07)
(1.2089e-05 8.4671e-07 -4.2299e-07)
(8.5171e-06 3.4781e-07 -1.7318e-07)
(4.4292e-06 7.7724e-08 -3.8265e-08)
(0 0 0)
(3.4556e-05 1.2094e-06 -1.2092e-06)
(3.2409e-05 1.4184e-06 -1.4183e-06)
(3.0202e-05 1.5999e-06 -1.5999e-06)
(2.7919e-05 1.7295e-06 -1.7296e-06)
(2.5553e-05 1.7957e-06 -1.7958e-06)
(2.3106e-05 1.7884e-06 -1.7887e-06)
(2.0581e-05 1.6853e-06 -1.6855e-06)
(1.7961e-05 1.4522e-06 -1.4525e-06)
(1.5173e-05 1.0805e-06 -1.0807e-06)
(1.2072e-05 6.3902e-07 -6.3923e-07)
(8.499e-06 2.6469e-07 -2.6484e-07)
(4.4174e-06 6.0761e-08 -6.0834e-08)
(0 0 0)
(3.4558e-05 8.0239e-07 -1.6029e-06)
(3.2412e-05 9.4134e-07 -1.8821e-06)
(3.0205e-05 1.0618e-06 -2.1242e-06)
(2.7922e-05 1.1478e-06 -2.2969e-06)
(2.5556e-05 1.1917e-06 -2.3855e-06)
(2.3109e-05 1.1872e-06 -2.3767e-06)
(2.0585e-05 1.1192e-06 -2.2406e-06)
(1.7968e-05 9.6486e-07 -1.9311e-06)
(1.5185e-05 7.1745e-07 -1.4358e-06)
(1.2089e-05 4.2276e-07 -8.4691e-07)
(8.5171e-06 1.7303e-07 -3.4796e-07)
(4.4292e-06 3.8191e-08 -7.7799e-08)
(0 0 0)
(3.4562e-05 3.9595e-07 -1.9724e-06)
(3.2418e-05 4.6528e-07 -2.3214e-06)
(3.0214e-05 5.2519e-07 -2.6227e-06)
(2.7931e-05 5.6783e-07 -2.8372e-06)
(2.5565e-05 5.8974e-07 -2.9477e-06)
(2.3118e-05 5.8795e-07 -2.9393e-06)
(2.0597e-05 5.5509e-07 -2.7746e-06)
(1.7988e-05 4.7904e-07 -2.3933e-06)
(1.5221e-05 3.5556e-07 -1.776e-06)
(1.2141e-05 2.0746e-07 -1.0373e-06)
(8.572e-06 8.2201e-08 -4.1294e-07)
(4.4651e-06 1.6137e-08 -8.2604e-08)
(0 0 0)
(3.457e-05 7.8113e-10 -2.3097e-06)
(3.2429e-05 8.9716e-10 -2.7279e-06)
(3.0227e-05 1.0045e-09 -3.0867e-06)
(2.7947e-05 1.0866e-09 -3.3408e-06)
(2.558e-05 1.1324e-09 -3.4726e-06)
(2.3133e-05 1.13e-09 -3.4672e-06)
(2.0615e-05 1.0638e-09 -3.2805e-06)
(1.802e-05 9.1472e-10 -2.8346e-06)
(1.5279e-05 6.7823e-10 -2.0966e-06)
(1.2226e-05 4.0002e-10 -1.2033e-06)
(8.6639e-06 1.6753e-10 -4.5092e-07)
(4.5258e-06 4.0814e-11 -6.8874e-08)
(0 0 0)
(3.4586e-05 -3.4974e-07 -2.7893e-06)
(3.2453e-05 -4.1516e-07 -3.3196e-06)
(3.0258e-05 -4.7058e-07 -3.7676e-06)
(2.798e-05 -5.0954e-07 -4.0812e-06)
(2.5613e-05 -5.3011e-07 -4.2456e-06)
(2.3163e-05 -5.3096e-07 -4.251e-06)
(2.0651e-05 -5.0542e-07 -4.045e-06)
(1.8084e-05 -4.3906e-07 -3.5123e-06)
(1.5403e-05 -3.2301e-07 -2.5804e-06)
(1.242e-05 -1.7848e-07 -1.4188e-06)
(8.8778e-06 -5.726e-08 -4.4649e-07)
(4.6685e-06 -9.7072e-10 4.9598e-10)
(0 0 0)
(3.4579e-05 2.4645e-06 7.9605e-07)
(3.2443e-05 2.9212e-06 9.4137e-07)
(3.0244e-05 3.3099e-06 1.0653e-06)
(2.7965e-05 3.5836e-06 1.1526e-06)
(2.5598e-05 3.7266e-06 1.198e-06)
(2.3149e-05 3.7265e-06 1.1976e-06)
(2.0634e-05 3.5364e-06 1.1366e-06)
(1.8055e-05 3.0632e-06 9.8499e-07)
(1.5345e-05 2.2577e-06 7.2645e-07)
(1.2328e-05 1.2681e-06 4.0816e-07)
(8.7759e-06 4.3735e-07 1.4067e-07)
(4.6003e-06 3.6223e-08 1.1518e-08)
(0 0 0)
(3.4562e-05 1.9727e-06 3.9495e-07)
(3.2418e-05 2.3216e-06 4.6399e-07)
(3.0213e-05 2.6229e-06 5.2365e-07)
(2.7931e-05 2.8372e-06 5.6607e-07)
(2.5565e-05 2.9477e-06 5.8783e-07)
(2.3118e-05 2.9392e-06 5.8599e-07)
(2.0597e-05 2.7744e-06 5.532e-07)
(1.7988e-05 2.3931e-06 4.7737e-07)
(1.5221e-05 1.7757e-06 3.5426e-07)
(1.2141e-05 1.037e-06 2.066e-07)
(8.572e-06 4.127e-07 8.1749e-08)
(4.4652e-06 8.2458e-08 1.5963e-08)
(0 0 0)
(3.4554e-05 1.6227e-06 -8.0786e-10)
(3.2407e-05 1.903e-06 -1.0692e-09)
(3.0199e-05 2.1468e-06 -1.3116e-09)
(2.7915e-05 2.321e-06 -1.509e-09)
(2.5549e-05 2.41e-06 -1.6443e-09)
(2.3102e-05 2.3998e-06 -1.6985e-09)
(2.0577e-05 2.26e-06 -1.646e-09)
(1.7954e-05 1.9462e-06 -1.4613e-09)
(1.516e-05 1.449e-06 -1.1452e-09)
(1.2053e-05 8.6098e-07 -7.5774e-10)
(8.4787e-06 3.6207e-07 -4.0314e-10)
(4.404e-06 8.7081e-08 -1.5566e-10)
(0 0 0)
(3.4549e-05 1.2413e-06 -4.1507e-07)
(3.2399e-05 1.4525e-06 -4.8557e-07)
(3.019e-05 1.6369e-06 -5.4713e-07)
(2.7906e-05 1.7691e-06 -5.9126e-07)
(2.554e-05 1.8363e-06 -6.137e-07)
(2.3092e-05 1.827e-06 -6.1061e-07)
(2.0564e-05 1.7183e-06 -5.7437e-07)
(1.7932e-05 1.4784e-06 -4.9435e-07)
(1.5123e-05 1.103e-06 -3.689e-07)
(1.1999e-05 6.6188e-07 -2.2128e-07)
(8.4232e-06 2.866e-07 -9.5651e-08)
(4.3679e-06 7.4854e-08 -2.4862e-08)
(0 0 0)
(3.4548e-05 8.3459e-07 -8.3446e-07)
(3.2397e-05 9.7569e-07 -9.7567e-07)
(3.0187e-05 1.0991e-06 -1.0991e-06)
(2.7902e-05 1.1875e-06 -1.1877e-06)
(2.5536e-05 1.2324e-06 -1.2327e-06)
(2.3089e-05 1.2258e-06 -1.2261e-06)
(2.0559e-05 1.1523e-06 -1.1527e-06)
(1.7924e-05 9.9133e-07 -9.9172e-07)
(1.511e-05 7.4015e-07 -7.405e-07)
(1.1982e-05 4.4542e-07 -4.457e-07)
(8.4048e-06 1.9448e-07 -1.9467e-07)
(4.356e-06 5.1913e-08 -5.2006e-08)
(0 0 0)
(3.4549e-05 4.1512e-07 -1.2411e-06)
(3.24e-05 4.8549e-07 -1.4524e-06)
(3.019e-05 5.4694e-07 -1.6369e-06)
(2.7906e-05 5.9096e-07 -1.7692e-06)
(2.554e-05 6.1331e-07 -1.8365e-06)
(2.3092e-05 6.1016e-07 -1.8272e-06)
(2.0564e-05 5.7389e-07 -1.7186e-06)
(1.7932e-05 4.9389e-07 -1.4788e-06)
(1.5123e-05 3.685e-07 -1.1034e-06)
(1.2e-05 2.2097e-07 -6.6213e-07)
(8.4232e-06 9.5449e-08 -2.8678e-07)
(4.3679e-06 2.4764e-08 -7.4945e-08)
(0 0 0)
(3.4554e-05 7.8762e-10 -1.6224e-06)
(3.2407e-05 9.1072e-10 -1.9028e-06)
(3.0199e-05 1.0246e-09 -2.1466e-06)
(2.7915e-05 1.1117e-09 -2.321e-06)
(2.5549e-05 1.1602e-09 -2.4101e-06)
(2.3102e-05 1.1582e-09 -2.4e-06)
(2.0577e-05 1.0891e-09 -2.2602e-06)
(1.7954e-05 9.348e-10 -1.9465e-06)
(1.516e-05 6.9527e-10 -1.4493e-06)
(1.2053e-05 4.1713e-10 -8.6121e-07)
(8.4787e-06 1.8304e-10 -3.6224e-07)
(4.4041e-06 5.0167e-11 -8.7173e-08)
(0 0 0)
(3.4562e-05 -3.9499e-07 -1.9723e-06)
(3.2418e-05 -4.6418e-07 -2.3213e-06)
(3.0214e-05 -5.2397e-07 -2.6226e-06)
(2.7931e-05 -5.665e-07 -2.8371e-06)
(2.5565e-05 -5.8835e-07 -2.9476e-06)
(2.3118e-05 -5.8657e-07 -2.9393e-06)
(2.0597e-05 -5.5379e-07 -2.7746e-06)
(1.7988e-05 -4.7793e-07 -2.3933e-06)
(1.5221e-05 -3.5473e-07 -1.7759e-06)
(1.2141e-05 -2.0696e-07 -1.0372e-06)
(8.5721e-06 -8.1981e-08 -4.1288e-07)
(4.4653e-06 -1.6074e-08 -8.2554e-08)
(0 0 0)
(3.4579e-05 -7.9605e-07 -2.464e-06)
(3.2443e-05 -9.4152e-07 -2.9208e-06)
(3.0244e-05 -1.0655e-06 -3.3096e-06)
(2.7965e-05 -1.1529e-06 -3.5835e-06)
(2.5598e-05 -1.1985e-06 -3.7265e-06)
(2.3149e-05 -1.1982e-06 -3.7266e-06)
(2.0635e-05 -1.1371e-06 -3.5366e-06)
(1.8055e-05 -9.8551e-07 -3.0635e-06)
(1.5345e-05 -7.2689e-07 -2.258e-06)
(1.2329e-05 -4.0851e-07 -1.2684e-06)
(8.7761e-06 -1.4089e-07 -4.3756e-07)
(4.6003e-06 -1.1626e-08 -3.6337e-08)
(0 0 0)
(3.4574e-05 2.0913e-06 1.2445e-06)
(3.2436e-05 2.4719e-06 1.4691e-06)
(3.0236e-05 2.7973e-06 1.6612e-06)
(2.7955e-05 3.0272e-06 1.7968e-06)
(2.5588e-05 3.1466e-06 1.8669e-06)
(2.3141e-05 3.1436e-06 1.8645e-06)
(2.0624e-05 2.9785e-06 1.7665e-06)
(1.8036e-05 2.5771e-06 1.529e-06)
(1.5309e-05 1.9034e-06 1.1295e-06)
(1.2273e-05 1.0814e-06 6.4086e-07)
(8.7153e-06 3.8991e-07 2.2962e-07)
(4.56e-06 4.7191e-08 2.6534e-08)
(0 0 0)
(3.4558e-05 1.6029e-06 8.0256e-07)
(3.2412e-05 1.882e-06 9.4141e-07)
(3.0205e-05 2.1239e-06 1.0618e-06)
(2.7922e-05 2.2965e-06 1.1476e-06)
(2.5556e-05 2.385e-06 1.1915e-06)
(2.3109e-05 2.3762e-06 1.1869e-06)
(2.0585e-05 2.24e-06 1.1189e-06)
(1.7968e-05 1.9305e-06 9.6451e-07)
(1.5185e-05 1.4353e-06 7.1712e-07)
(1.2089e-05 8.4648e-07 4.2247e-07)
(8.5173e-06 3.4763e-07 1.7281e-07)
(4.4293e-06 7.7621e-08 3.8064e-08)
(0 0 0)
(3.4549e-05 1.2409e-06 4.1443e-07)
(3.2399e-05 1.4521e-06 4.8454e-07)
(3.019e-05 1.6364e-06 5.4575e-07)
(2.7906e-05 1.7686e-06 5.8957e-07)
(2.554e-05 1.8357e-06 6.1177e-07)
(2.3092e-05 1.8264e-06 6.0856e-07)
(2.0564e-05 1.7177e-06 5.7233e-07)
(1.7932e-05 1.478e-06 4.925e-07)
(1.5123e-05 1.1027e-06 3.674e-07)
(1.2e-05 6.6163e-07 2.2023e-07)
(8.4232e-06 2.8645e-07 9.5041e-08)
(4.3679e-06 7.4787e-08 2.4599e-08)
(0 0 0)
(3.4544e-05 8.4765e-07 -3.1676e-10)
(3.2392e-05 9.8982e-07 -5.1343e-10)
(3.0181e-05 1.1145e-06 -7.0023e-10)
(2.7896e-05 1.204e-06 -8.6053e-10)
(2.553e-05 1.2493e-06 -9.8202e-10)
(2.3082e-05 1.2419e-06 -1.0502e-09)
(2.055e-05 1.1665e-06 -1.0461e-09)
(1.7909e-05 1.0028e-06 -9.5234e-10)
(1.5084e-05 7.4979e-07 -7.7007e-10)
(1.1946e-05 4.5434e-07 -5.3499e-10)
(8.3671e-06 2.0235e-07 -3.0687e-10)
(4.3316e-06 5.6762e-08 -1.3002e-10)
(0 0 0)
(3.4542e-05 4.2854e-07 -4.2851e-07)
(3.239e-05 5.0002e-07 -5.0012e-07)
(3.0178e-05 5.6278e-07 -5.6301e-07)
(2.7892e-05 6.079e-07 -6.0824e-07)
(2.5526e-05 6.3066e-07 -6.311e-07)
(2.3078e-05 6.2678e-07 -6.2728e-07)
(2.0545e-05 5.8846e-07 -5.8899e-07)
(1.7901e-05 5.0579e-07 -5.063e-07)
(1.5071e-05 3.7844e-07 -3.7888e-07)
(1.1927e-05 2.3002e-07 -2.3037e-07)
(8.3485e-06 1.0331e-07 -1.0354e-07)
(4.3195e-06 2.9569e-08 -2.968e-08)
(0 0 0)
(3.4544e-05 2.577e-10 -8.4754e-07)
(3.2392e-05 3.0541e-10 -9.8983e-07)
(3.0181e-05 3.5193e-10 -1.1146e-06)
(2.7896e-05 3.9055e-10 -1.2042e-06)
(2.553e-05 4.1609e-10 -1.2496e-06)
(2.3082e-05 4.2239e-10 -1.2423e-06)
(2.055e-05 4.0109e-10 -1.1669e-06)
(1.7909e-05 3.4369e-10 -1.0033e-06)
(1.5084e-05 2.5058e-10 -7.5019e-07)
(1.1946e-05 1.4208e-10 -4.5466e-07)
(8.3672e-06 5.3278e-11 -2.0257e-07)
(4.3316e-06 8.6099e-12 -5.687e-08)
(0 0 0)
(3.4549e-05 -4.1461e-07 -1.2407e-06)
(3.24e-05 -4.8489e-07 -1.4519e-06)
(3.019e-05 -5.4626e-07 -1.6364e-06)
(2.7906e-05 -5.9021e-07 -1.7686e-06)
(2.554e-05 -6.1252e-07 -1.8358e-06)
(2.3092e-05 -6.0936e-07 -1.8266e-06)
(2.0564e-05 -5.7313e-07 -1.718e-06)
(1.7932e-05 -4.9324e-07 -1.4783e-06)
(1.5123e-05 -3.6803e-07 -1.103e-06)
(1.2e-05 -2.2069e-07 -6.619e-07)
(8.4233e-06 -9.5333e-08 -2.8664e-07)
(4.368e-06 -2.4736e-08 -7.4889e-08)
(0 0 0)
(3.4558e-05 -8.0275e-07 -1.6025e-06)
(3.2412e-05 -9.4177e-07 -1.8816e-06)
(3.0205e-05 -1.0623e-06 -2.1237e-06)
(2.7922e-05 -1.1483e-06 -2.2964e-06)
(2.5556e-05 -1.1923e-06 -2.3849e-06)
(2.3109e-05 -1.1877e-06 -2.3762e-06)
(2.0585e-05 -1.1197e-06 -2.2401e-06)
(1.7968e-05 -9.6528e-07 -1.9307e-06)
(1.5185e-05 -7.1777e-07 -1.4355e-06)
(1.2089e-05 -4.2295e-07 -8.4669e-07)
(8.5173e-06 -1.7311e-07 -3.4781e-07)
(4.4294e-06 -3.821e-08 -7.7721e-08)
(0 0 0)
(3.4575e-05 -1.2446e-06 -2.0909e-06)
(3.2436e-05 -1.4693e-06 -2.4716e-06)
(3.0236e-05 -1.6616e-06 -2.7971e-06)
(2.7955e-05 -1.7973e-06 -3.027e-06)
(2.5589e-05 -1.8675e-06 -3.1465e-06)
(2.3141e-05 -1.8652e-06 -3.1436e-06)
(2.0624e-05 -1.7672e-06 -2.9787e-06)
(1.8036e-05 -1.5297e-06 -2.5774e-06)
(1.5309e-05 -1.1301e-06 -1.9037e-06)
(1.2273e-05 -6.4131e-07 -1.0817e-06)
(8.7154e-06 -2.2991e-07 -3.9012e-07)
(4.56e-06 -2.6679e-08 -4.7304e-08)
(0 0 0)
(3.4573e-05 1.6804e-06 1.6809e-06)
(3.2434e-05 1.9835e-06 1.9838e-06)
(3.0233e-05 2.243e-06 2.2433e-06)
(2.7952e-05 2.4264e-06 2.4266e-06)
(2.5585e-05 2.5212e-06 2.5213e-06)
(2.3138e-05 2.5176e-06 2.5176e-06)
(2.062e-05 2.3842e-06 2.3841e-06)
(1.8029e-05 2.0625e-06 2.0624e-06)
(1.5296e-05 1.5245e-06 1.5244e-06)
(1.2254e-05 8.6852e-07 8.6843e-07)
(8.6952e-06 3.1621e-07 3.1615e-07)
(4.5467e-06 4.0851e-08 4.0819e-08)
(0 0 0)
(3.4556e-05 1.2091e-06 1.2096e-06)
(3.2409e-05 1.4181e-06 1.4185e-06)
(3.0202e-05 1.5996e-06 1.5998e-06)
(2.7919e-05 1.7291e-06 1.7293e-06)
(2.5553e-05 1.7953e-06 1.7954e-06)
(2.3106e-05 1.7881e-06 1.788e-06)
(2.0581e-05 1.6849e-06 1.6848e-06)
(1.7961e-05 1.4519e-06 1.4517e-06)
(1.5173e-05 1.0802e-06 1.0801e-06)
(1.2072e-05 6.388e-07 6.3868e-07)
(8.499e-06 2.6453e-07 2.6444e-07)
(4.4174e-06 6.0672e-08 6.0628e-08)
(0 0 0)
(3.4547e-05 8.3405e-07 8.345e-07)
(3.2397e-05 9.7508e-07 9.7542e-07)
(3.0187e-05 1.0984e-06 1.0986e-06)
(2.7902e-05 1.1868e-06 1.1869e-06)
(2.5536e-05 1.2316e-06 1.2316e-06)
(2.3089e-05 1.225e-06 1.2249e-06)
(2.0559e-05 1.1517e-06 1.1515e-06)
(1.7924e-05 9.9074e-07 9.9056e-07)
(1.511e-05 7.3969e-07 7.3951e-07)
(1.1982e-05 4.4511e-07 4.4496e-07)
(8.4048e-06 1.943e-07 1.942e-07)
(4.356e-06 5.1835e-08 5.1783e-08)
(0 0 0)
(3.4542e-05 4.2816e-07 4.2857e-07)
(3.239e-05 4.996e-07 4.9989e-07)
(3.0178e-05 5.6231e-07 5.6248e-07)
(2.7892e-05 6.0739e-07 6.0745e-07)
(2.5526e-05 6.3014e-07 6.301e-07)
(2.3078e-05 6.2626e-07 6.2613e-07)
(2.0545e-05 5.8798e-07 5.8778e-07)
(1.7901e-05 5.0538e-07 5.0515e-07)
(1.5071e-05 3.7812e-07 3.779e-07)
(1.1927e-05 2.2981e-07 2.2964e-07)
(8.3485e-06 1.032e-07 1.0309e-07)
(4.3195e-06 2.9527e-08 2.9468e-08)
(0 0 0)
(3.454e-05 -2.1553e-10 1.5711e-10)
(3.2387e-05 -2.3197e-10 2.3459e-11)
(3.0175e-05 -2.4344e-10 -1.0726e-10)
(2.7889e-05 -2.4672e-10 -2.2809e-10)
(2.5523e-05 -2.4087e-10 -3.3254e-10)
(2.3075e-05 -2.2665e-10 -4.1117e-10)
(2.0541e-05 -2.0505e-10 -4.5193e-10)
(1.7893e-05 -1.7673e-10 -4.4487e-10)
(1.5058e-05 -1.427e-10 -3.8933e-10)
(1.1909e-05 -1.0521e-10 -2.9827e-10)
(8.3297e-06 -6.7606e-11 -1.9343e-10)
(4.3074e-06 -3.2558e-11 -9.2669e-11)
(0 0 0)
(3.4542e-05 -4.2871e-07 -4.2826e-07)
(3.239e-05 -5.002e-07 -4.9985e-07)
(3.0178e-05 -5.6295e-07 -5.627e-07)
(2.7892e-05 -6.0805e-07 -6.0792e-07)
(2.5526e-05 -6.308e-07 -6.3077e-07)
(2.3078e-05 -6.2689e-07 -6.2696e-07)
(2.0545e-05 -5.8855e-07 -5.8869e-07)
(1.7901e-05 -5.0587e-07 -5.0605e-07)
(1.5071e-05 -3.7851e-07 -3.7869e-07)
(1.1928e-05 -2.3009e-07 -2.3024e-07)
(8.3485e-06 -1.0338e-07 -1.0348e-07)
(4.3195e-06 -2.9606e-08 -2.9654e-08)
(0 0 0)
(3.4548e-05 -8.3494e-07 -8.3385e-07)
(3.2397e-05 -9.7608e-07 -9.7499e-07)
(3.0187e-05 -1.0995e-06 -1.0984e-06)
(2.7903e-05 -1.1879e-06 -1.1869e-06)
(2.5536e-05 -1.2328e-06 -1.2318e-06)
(2.3089e-05 -1.2262e-06 -1.2253e-06)
(2.0559e-05 -1.1527e-06 -1.152e-06)
(1.7925e-05 -9.9165e-07 -9.9108e-07)
(1.511e-05 -7.404e-07 -7.4001e-07)
(1.1982e-05 -4.456e-07 -4.4539e-07)
(8.4048e-06 -1.9458e-07 -1.9451e-07)
(4.356e-06 -5.1954e-08 -5.1947e-08)
(0 0 0)
(3.4556e-05 -1.21e-06 -1.2086e-06)
(3.241e-05 -1.4191e-06 -1.4176e-06)
(3.0202e-05 -1.6007e-06 -1.5992e-06)
(2.7919e-05 -1.7303e-06 -1.7288e-06)
(2.5553e-05 -1.7965e-06 -1.7951e-06)
(2.3106e-05 -1.7893e-06 -1.7879e-06)
(2.0581e-05 -1.686e-06 -1.6848e-06)
(1.7961e-05 -1.4528e-06 -1.4519e-06)
(1.5173e-05 -1.081e-06 -1.0803e-06)
(1.2072e-05 -6.3934e-07 -6.3893e-07)
(8.4991e-06 -2.6485e-07 -2.6468e-07)
(4.4174e-06 -6.0815e-08 -6.0768e-08)
(0 0 0)
(3.4573e-05 -1.681e-06 -1.6799e-06)
(3.2434e-05 -1.9842e-06 -1.9831e-06)
(3.0233e-05 -2.2438e-06 -2.2427e-06)
(2.7952e-05 -2.4272e-06 -2.4262e-06)
(2.5586e-05 -2.5221e-06 -2.5211e-06)
(2.3138e-05 -2.5184e-06 -2.5176e-06)
(2.0621e-05 -2.385e-06 -2.3842e-06)
(1.8029e-05 -2.0632e-06 -2.0627e-06)
(1.5297e-05 -1.5251e-06 -1.5247e-06)
(1.2254e-05 -8.6897e-07 -8.6872e-07)
(8.6953e-06 -3.1651e-07 -3.1639e-07)
(4.5467e-06 -4.0998e-08 -4.0958e-08)
(0 0 0)
(3.4575e-05 1.244e-06 2.0918e-06)
(3.2436e-05 1.4687e-06 2.4723e-06)
(3.0236e-05 1.6609e-06 2.7976e-06)
(2.7955e-05 1.7965e-06 3.0273e-06)
(2.5588e-05 1.8667e-06 3.1466e-06)
(2.3141e-05 1.8644e-06 3.1435e-06)
(2.0624e-05 1.7665e-06 2.9783e-06)
(1.8036e-05 1.529e-06 2.5769e-06)
(1.5309e-05 1.1295e-06 1.9032e-06)
(1.2273e-05 6.4088e-07 1.0813e-06)
(8.7152e-06 2.2963e-07 3.898e-07)
(4.56e-06 2.6542e-08 4.7132e-08)
(0 0 0)
(3.4558e-05 8.021e-07 1.6034e-06)
(3.2412e-05 9.4104e-07 1.8823e-06)
(3.0205e-05 1.0615e-06 2.1242e-06)
(2.7922e-05 1.1475e-06 2.2967e-06)
(2.5556e-05 1.1914e-06 2.385e-06)
(2.3109e-05 1.1869e-06 2.3761e-06)
(2.0585e-05 1.1189e-06 2.2399e-06)
(1.7968e-05 9.646e-07 1.9303e-06)
(1.5185e-05 7.1722e-07 1.4351e-06)
(1.2089e-05 4.2255e-07 8.4632e-07)
(8.5173e-06 1.7286e-07 3.4751e-07)
(4.4293e-06 3.8093e-08 7.756e-08)
(0 0 0)
(3.4549e-05 4.1401e-07 1.2414e-06)
(3.2399e-05 4.8423e-07 1.4525e-06)
(3.019e-05 5.4554e-07 1.6367e-06)
(2.7906e-05 5.8947e-07 1.7687e-06)
(2.554e-05 6.1177e-07 1.8357e-06)
(2.3092e-05 6.0863e-07 1.8263e-06)
(2.0564e-05 5.7247e-07 1.7176e-06)
(1.7932e-05 4.9266e-07 1.4778e-06)
(1.5123e-05 3.6756e-07 1.1025e-06)
(1.2e-05 2.2036e-07 6.6147e-07)
(8.4232e-06 9.5129e-08 2.8633e-07)
(4.368e-06 2.4642e-08 7.4723e-08)
(0 0 0)
(3.4544e-05 -6.8886e-10 8.4809e-07)
(3.2392e-05 -7.709e-10 9.9014e-07)
(3.0181e-05 -8.4163e-10 1.1147e-06)
(2.7896e-05 -8.8777e-10 1.2041e-06)
(2.553e-05 -9.022e-10 1.2492e-06)
(2.3082e-05 -8.8049e-10 1.2418e-06)
(2.055e-05 -8.1626e-10 1.1663e-06)
(1.7909e-05 -7.021e-10 1.0026e-06)
(1.5084e-05 -5.4033e-10 7.4957e-07)
(1.1946e-05 -3.5582e-10 4.5416e-07)
(8.3671e-06 -1.9065e-10 2.0222e-07)
(4.3316e-06 -7.4749e-11 5.6697e-08)
(0 0 0)
(3.4542e-05 -4.2885e-07 4.2883e-07)
(3.239e-05 -5.0035e-07 5.0017e-07)
(3.0178e-05 -5.6311e-07 5.628e-07)
(2.7892e-05 -6.0822e-07 6.0779e-07)
(2.5526e-05 -6.3097e-07 6.3044e-07)
(2.3078e-05 -6.2706e-07 6.2646e-07)
(2.0545e-05 -5.887e-07 5.8809e-07)
(1.7901e-05 -5.06e-07 5.0541e-07)
(1.5071e-05 -3.7861e-07 3.7811e-07)
(1.1927e-05 -2.3016e-07 2.2977e-07)
(8.3485e-06 -1.0341e-07 1.0316e-07)
(4.3195e-06 -2.9619e-08 2.9497e-08)
(0 0 0)
(3.4544e-05 -8.4808e-07 4.8751e-11)
(3.2392e-05 -9.9028e-07 -1.1248e-10)
(3.0181e-05 -1.1149e-06 -2.6515e-10)
(2.7896e-05 -1.2045e-06 -4.0062e-10)
(2.553e-05 -1.2497e-06 -5.1239e-10)
(2.3082e-05 -1.2424e-06 -5.9082e-10)
(2.055e-05 -1.1669e-06 -6.2132e-10)
(1.7909e-05 -1.0032e-06 -5.89e-10)
(1.5084e-05 -7.5007e-07 -4.9116e-10)
(1.1946e-05 -4.5455e-07 -3.4956e-10)
(8.3672e-06 -2.0248e-07 -2.0457e-10)
(4.3316e-06 -5.6825e-08 -8.8094e-11)
(0 0 0)
(3.4549e-05 -1.2418e-06 -4.1461e-07)
(3.24e-05 -1.453e-06 -4.8507e-07)
(3.019e-05 -1.6374e-06 -5.466e-07)
(2.7906e-05 -1.7696e-06 -5.907e-07)
(2.554e-05 -1.8368e-06 -6.1312e-07)
(2.3092e-05 -1.8274e-06 -6.1004e-07)
(2.0564e-05 -1.7187e-06 -5.7384e-07)
(1.7932e-05 -1.4788e-06 -4.939e-07)
(1.5123e-05 -1.1033e-06 -3.6856e-07)
(1.2e-05 -6.6208e-07 -2.2105e-07)
(8.4232e-06 -2.8672e-07 -9.5525e-08)
(4.368e-06 -7.4907e-08 -2.481e-08)
(0 0 0)
(3.4558e-05 -1.6037e-06 -8.0181e-07)
(3.2412e-05 -1.8828e-06 -9.4084e-07)
(3.0205e-05 -2.1249e-06 -1.0614e-06)
(2.7922e-05 -2.2975e-06 -1.1474e-06)
(2.5556e-05 -2.386e-06 -1.1914e-06)
(2.3109e-05 -2.3772e-06 -1.187e-06)
(2.0585e-05 -2.2409e-06 -1.1191e-06)
(1.7968e-05 -1.9313e-06 -9.6479e-07)
(1.5185e-05 -1.436e-06 -7.1744e-07)
(1.2089e-05 -8.4695e-07 -4.2278e-07)
(8.5172e-06 -3.4794e-07 -1.7307e-07)
(4.4293e-06 -7.7777e-08 -3.8216e-08)
(0 0 0)
(3.4575e-05 -2.0918e-06 -1.2435e-06)
(3.2436e-05 -2.4724e-06 -1.4682e-06)
(3.0236e-05 -2.7979e-06 -1.6604e-06)
(2.7955e-05 -3.0277e-06 -1.7962e-06)
(2.5589e-05 -3.1471e-06 -1.8664e-06)
(2.3141e-05 -3.1441e-06 -1.8642e-06)
(2.0624e-05 -2.979e-06 -1.7663e-06)
(1.8036e-05 -2.5776e-06 -1.529e-06)
(1.5309e-05 -1.9038e-06 -1.1295e-06)
(1.2273e-05 -1.0818e-06 -6.41e-07)
(8.7153e-06 -3.9018e-07 -2.2978e-07)
(4.56e-06 -4.7338e-08 -2.6646e-08)
(0 0 0)
(3.4579e-05 7.9555e-07 2.465e-06)
(3.2443e-05 9.4095e-07 2.9216e-06)
(3.0244e-05 1.0649e-06 3.3101e-06)
(2.7965e-05 1.1523e-06 3.5837e-06)
(2.5598e-05 1.1978e-06 3.7265e-06)
(2.3149e-05 1.1975e-06 3.7264e-06)
(2.0634e-05 1.1365e-06 3.5361e-06)
(1.8055e-05 9.8492e-07 3.0629e-06)
(1.5345e-05 7.2641e-07 2.2574e-06)
(1.2328e-05 4.0814e-07 1.2679e-06)
(8.7759e-06 1.4065e-07 4.3717e-07)
(4.6003e-06 1.1508e-08 3.6133e-08)
(0 0 0)
(3.4562e-05 3.9449e-07 1.9733e-06)
(3.2418e-05 4.6362e-07 2.322e-06)
(3.0213e-05 5.2336e-07 2.6231e-06)
(2.7931e-05 5.6587e-07 2.8374e-06)
(2.5565e-05 5.8771e-07 2.9477e-06)
(2.3118e-05 5.8595e-07 2.9391e-06)
(2.0597e-05 5.5322e-07 2.7742e-06)
(1.7988e-05 4.7742e-07 2.3929e-06)
(1.5221e-05 3.5432e-07 1.7754e-06)
(1.2141e-05 2.0665e-07 1.0368e-06)
(8.572e-06 8.1785e-08 4.1254e-07)
(4.4652e-06 1.598e-08 8.2377e-08)
(0 0 0)
(3.4554e-05 -1.2185e-09 1.6232e-06)
(3.2407e-05 -1.3798e-09 1.9034e-06)
(3.0199e-05 -1.5214e-09 2.1471e-06)
(2.7915e-05 -1.6186e-09 2.3212e-06)
(2.5549e-05 -1.6575e-09 2.4101e-06)
(2.3102e-05 -1.6284e-09 2.3998e-06)
(2.0577e-05 -1.5171e-09 2.2599e-06)
(1.7954e-05 -1.3058e-09 1.946e-06)
(1.516e-05 -9.9602e-10 1.4488e-06)
(1.2053e-05 -6.392e-10 8.608e-07)
(8.4787e-06 -3.2569e-10 3.6193e-07)
(4.404e-06 -1.1874e-10 8.7007e-08)
(0 0 0)
(3.4549e-05 -4.1539e-07 1.2419e-06)
(3.24e-05 -4.8576e-07 1.453e-06)
(3.019e-05 -5.4721e-07 1.6373e-06)
(2.7906e-05 -5.9122e-07 1.7693e-06)
(2.554e-05 -6.1354e-07 1.8364e-06)
(2.3092e-05 -6.1036e-07 1.827e-06)
(2.0564e-05 -5.7407e-07 1.7182e-06)
(1.7932e-05 -4.9404e-07 1.4783e-06)
(1.5123e-05 -3.6863e-07 1.1029e-06)
(1.2e-05 -2.2107e-07 6.6173e-07)
(8.4232e-06 -9.5523e-08 2.8648e-07)
(4.3679e-06 -2.4804e-08 7.4785e-08)
(0 0 0)
(3.4548e-05 -8.3457e-07 8.3513e-07)
(3.2397e-05 -9.7562e-07 9.7613e-07)
(3.0187e-05 -1.0989e-06 1.0994e-06)
(2.7902e-05 -1.1874e-06 1.1878e-06)
(2.5536e-05 -1.2322e-06 1.2325e-06)
(2.3089e-05 -1.2255e-06 1.2258e-06)
(2.0559e-05 -1.1521e-06 1.1523e-06)
(1.7924e-05 -9.9113e-07 9.9124e-07)
(1.511e-05 -7.4001e-07 7.4003e-07)
(1.1982e-05 -4.4535e-07 4.453e-07)
(8.4048e-06 -1.9447e-07 1.9437e-07)
(4.356e-06 -5.1923e-08 5.185e-08)
(0 0 0)
(3.4549e-05 -1.2414e-06 4.1491e-07)
(3.24e-05 -1.4526e-06 4.8507e-07)
(3.019e-05 -1.6369e-06 5.4632e-07)
(2.7906e-05 -1.769e-06 5.9018e-07)
(2.554e-05 -1.8362e-06 6.1239e-07)
(2.3092e-05 -1.8268e-06 6.0915e-07)
(2.0564e-05 -1.7181e-06 5.7288e-07)
(1.7932e-05 -1.4783e-06 4.9297e-07)
(1.5123e-05 -1.103e-06 3.6777e-07)
(1.2e-05 -6.6184e-07 2.2047e-07)
(8.4233e-06 -2.8659e-07 9.5177e-08)
(4.368e-06 -7.4854e-08 2.4656e-08)
(0 0 0)
(3.4554e-05 -1.6231e-06 -3.8016e-10)
(3.2407e-05 -1.9035e-06 -6.1361e-10)
(3.0199e-05 -2.1472e-06 -8.2646e-10)
(2.7916e-05 -2.3215e-06 -1.0022e-09)
(2.5549e-05 -2.4105e-06 -1.131e-09)
(2.3102e-05 -2.4003e-06 -1.1998e-09)
(2.0577e-05 -2.2604e-06 -1.1876e-09)
(1.7954e-05 -1.9465e-06 -1.07e-09)
(1.516e-05 -1.4493e-06 -8.4268e-10)
(1.2053e-05 -8.6117e-07 -5.5206e-10)
(8.4787e-06 -3.6219e-07 -2.8476e-10)
(4.4041e-06 -8.7138e-08 -1.045e-10)
(0 0 0)
(3.4562e-05 -1.9733e-06 -3.9549e-07)
(3.2418e-05 -2.3221e-06 -4.6492e-07)
(3.0214e-05 -2.6234e-06 -5.2493e-07)
(2.7931e-05 -2.8378e-06 -5.6764e-07)
(2.5565e-05 -2.9482e-06 -5.8962e-07)
(2.3118e-05 -2.9397e-06 -5.8791e-07)
(2.0597e-05 -2.7749e-06 -5.5511e-07)
(1.7988e-05 -2.3935e-06 -4.791e-07)
(1.5221e-05 -1.776e-06 -3.5563e-07)
(1.2141e-05 -1.0373e-06 -2.0753e-07)
(8.572e-06 -4.1291e-07 -8.2261e-08)
(4.4652e-06 -8.2574e-08 -1.6169e-08)
(0 0 0)
(3.4579e-05 -2.4649e-06 -7.9554e-07)
(3.2443e-05 -2.9216e-06 -9.4107e-07)
(3.0244e-05 -3.3103e-06 -1.0651e-06)
(2.7965e-05 -3.584e-06 -1.1526e-06)
(2.5598e-05 -3.727e-06 -1.1982e-06)
(2.3149e-05 -3.7269e-06 -1.198e-06)
(2.0635e-05 -3.5367e-06 -1.137e-06)
(1.8055e-05 -3.0635e-06 -9.8541e-07)
(1.5345e-05 -2.258e-06 -7.2683e-07)
(1.2329e-05 -1.2684e-06 -4.0848e-07)
(8.7759e-06 -4.3756e-07 -1.4089e-07)
(4.6003e-06 -3.6349e-08 -1.1628e-08)
(0 0 0)
(3.4585e-05 3.4928e-07 2.7904e-06)
(3.2453e-05 4.1464e-07 3.3204e-06)
(3.0258e-05 4.7001e-07 3.7681e-06)
(2.798e-05 5.0895e-07 4.0815e-06)
(2.5612e-05 5.2951e-07 4.2456e-06)
(2.3163e-05 5.3038e-07 4.2507e-06)
(2.065e-05 5.0488e-07 4.0445e-06)
(1.8084e-05 4.3857e-07 3.5116e-06)
(1.5403e-05 3.2261e-07 2.5797e-06)
(1.242e-05 1.7818e-07 1.4182e-06)
(8.8777e-06 5.7068e-08 4.4606e-07)
(4.6684e-06 8.7819e-10 -7.2392e-10)
(0 0 0)
(3.4569e-05 -1.2118e-09 2.3107e-06)
(3.2429e-05 -1.3715e-09 2.7287e-06)
(3.0227e-05 -1.5117e-09 3.0872e-06)
(2.7946e-05 -1.6072e-09 3.3411e-06)
(2.558e-05 -1.6443e-09 3.4727e-06)
(2.3133e-05 -1.6153e-09 3.467e-06)
(2.0615e-05 -1.5073e-09 3.2801e-06)
(1.802e-05 -1.3006e-09 2.8341e-06)
(1.5278e-05 -9.9139e-10 2.096e-06)
(1.2226e-05 -6.3084e-10 1.2028e-06)
(8.6638e-06 -3.1522e-10 4.5056e-07)
(4.5257e-06 -1.1148e-10 6.8684e-08)
(0 0 0)
(3.4562e-05 -3.9631e-07 1.9734e-06)
(3.2418e-05 -4.6566e-07 2.3221e-06)
(3.0213e-05 -5.2559e-07 2.6233e-06)
(2.7931e-05 -5.6822e-07 2.8375e-06)
(2.5565e-05 -5.9011e-07 2.9478e-06)
(2.3118e-05 -5.883e-07 2.9392e-06)
(2.0597e-05 -5.554e-07 2.7743e-06)
(1.7988e-05 -4.793e-07 2.3929e-06)
(1.5221e-05 -3.5576e-07 1.7755e-06)
(1.214e-05 -2.076e-07 1.0369e-06)
(8.5719e-06 -8.2296e-08 4.1263e-07)
(4.4651e-06 -1.6182e-08 8.2437e-08)
(0 0 0)
(3.4558e-05 -8.026e-07 1.6039e-06)
(3.2412e-05 -9.4155e-07 1.8829e-06)
(3.0205e-05 -1.062e-06 2.1248e-06)
(2.7922e-05 -1.148e-06 2.2973e-06)
(2.5556e-05 -1.1919e-06 2.3857e-06)
(2.3109e-05 -1.1873e-06 2.3767e-06)
(2.0585e-05 -1.1193e-06 2.2404e-06)
(1.7968e-05 -9.6492e-07 1.9308e-06)
(1.5185e-05 -7.175e-07 1.4355e-06)