/*--------------------------------*- C++ -*----------------------------------*\
| =========                 |                                                 |
| \\      /  F ield         | OpenFOAM: The Open Source CFD Toolbox           |
|  \\    /   O peration     | Version:  4.1                                   |
|   \\  /    A nd           | Web:      www.OpenFOAM.org                      |
|    \\/     M anipulation  |                                                 |
\*---------------------------------------------------------------------------*/
FoamFile
{
    version     2.0;
    format      ascii;
    class       volScalarField;
    location    "0.0057";
    object      p;
}
// * * * * * * * * * * * * * * * * * * * * * * * * * * * * * * * * * * * * * //

dimensions      [0 2 -2 0 0 0 0];

internalField   nonuniform List<scalar> 
1536
(
0.28442
0.33097
0.38296
0.44087
0.50491
0.57484
0.64989
0.72872
0.80939
0.88953
0.9665
1.0375
0.28593
0.33264
0.38477
0.44275
0.50675
0.57649
0.65118
0.72949
0.8095
0.88888
0.96504
1.0352
0.2869
0.33371
0.38592
0.44394
0.50789
0.57749
0.65195
0.72992
0.8095
0.8884
0.96402
1.0335
0.28741
0.33427
0.38652
0.44456
0.50849
0.57803
0.65237
0.73016
0.80954
0.88819
0.96353
1.0327
0.28743
0.33429
0.38655
0.44458
0.50851
0.57805
0.65239
0.73018
0.80955
0.8882
0.96354
1.0327
0.28697
0.33378
0.386
0.44401
0.50796
0.57755
0.652
0.72996
0.80954
0.88843
0.96404
1.0336
0.28604
0.33276
0.3849
0.44288
0.50686
0.57659
0.65127
0.72956
0.80955
0.88893
0.96508
1.0352
0.28458
0.33114
0.38313
0.44105
0.50508
0.57499
0.65002
0.72882
0.80947
0.8896
0.96656
1.0376
0.28587
0.33258
0.38472
0.44271
0.50671
0.57645
0.65116
0.72948
0.80949
0.88889
0.96505
1.0352
0.28725
0.33409
0.38633
0.44436
0.50829
0.57782
0.65218
0.73
0.80941
0.88811
0.96353
1.0328
0.28819
0.33512
0.38744
0.44549
0.50937
0.57877
0.65288
0.73037
0.80936
0.88757
0.96244
1.0311
0.28868
0.33566
0.38801
0.44607
0.50993
0.57926
0.65326
0.73057
0.80935
0.88733
0.96192
1.0303
0.2887
0.33569
0.38804
0.4461
0.50996
0.57929
0.65328
0.73059
0.80937
0.88734
0.96193
1.0303
0.28826
0.3352
0.38752
0.44557
0.50945
0.57884
0.65295
0.73042
0.8094
0.88761
0.96247
1.0311
0.28737
0.33422
0.38647
0.4445
0.50842
0.57795
0.65229
0.73009
0.80949
0.88818
0.96359
1.0329
0.28604
0.33277
0.38491
0.44291
0.5069
0.57663
0.65132
0.72961
0.80961
0.88898
0.96513
1.0353
0.28679
0.3336
0.38582
0.44384
0.50781
0.57743
0.6519
0.72989
0.80949
0.8884
0.96402
1.0335
0.28813
0.33507
0.38738
0.44544
0.50932
0.57873
0.65285
0.73035
0.80934
0.88757
0.96243
1.0311
0.28905
0.33607
0.38846
0.44653
0.51037
0.57963
0.65352
0.73068
0.80926
0.88701
0.96134
1.0294
0.28953
0.33659
0.38901
0.44709
0.5109
0.5801
0.65386
0.73086
0.80923
0.88674
0.96081
1.0286
0.28955
0.33662
0.38904
0.44713
0.51093
0.58013
0.65389
0.73088
0.80925
0.88676
0.96082
1.0286
0.28913
0.33615
0.38854
0.44662
0.51046
0.57972
0.6536
0.73075
0.80932
0.88706
0.96139
1.0295
0.28826
0.3352
0.38753
0.44559
0.50948
0.57888
0.65299
0.73046
0.80944
0.88765
0.96251
1.0312
0.28696
0.33379
0.38602
0.44406
0.50802
0.57763
0.65209
0.73005
0.80963
0.88852
0.96412
1.0336
0.28723
0.33409
0.38636
0.44441
0.50836
0.57792
0.65228
0.7301
0.8095
0.88817
0.96352
1.0327
0.28855
0.33554
0.3879
0.44597
0.50984
0.57918
0.65319
0.73052
0.80932
0.8873
0.9619
1.0303
0.28946
0.33653
0.38895
0.44704
0.51085
0.58006
0.65383
0.73083
0.80921
0.88672
0.96079
1.0286
0.28993
0.33704
0.3895
0.44759
0.51138
0.58051
0.65416
0.731
0.80917
0.88645
0.96025
1.0277
0.28996
0.33707
0.38953
0.44763
0.51141
0.58054
0.65419
0.73102
0.8092
0.88647
0.96027
1.0277
0.28954
0.33662
0.38905
0.44714
0.51096
0.58015
0.65392
0.73091
0.80929
0.88679
0.96085
1.0286
0.28869
0.33569
0.38806
0.44614
0.51001
0.57935
0.65335
0.73066
0.80944
0.88741
0.96199
1.0303
0.28742
0.3343
0.38658
0.44464
0.5086
0.57815
0.6525
0.7303
0.80967
0.88832
0.96365
1.0328
0.28719
0.33405
0.38632
0.44437
0.50833
0.57789
0.65226
0.73008
0.80948
0.88815
0.9635
1.0327
0.28851
0.3355
0.38786
0.44594
0.50981
0.57916
0.65317
0.7305
0.8093
0.88728
0.96188
1.0302
0.28942
0.33649
0.38892
0.44701
0.51083
0.58003
0.65381
0.73081
0.8092
0.88671
0.96078
1.0285
0.2899
0.33701
0.38947
0.44757
0.51136
0.58049
0.65415
0.73099
0.80917
0.88644
0.96024
1.0277
0.28992
0.33704
0.3895
0.4476
0.5114
0.58053
0.65419
0.73102
0.80919
0.88647
0.96026
1.0277
0.28951
0.33659
0.38902
0.44712
0.51094
0.58015
0.65392
0.73091
0.80929
0.88679
0.96085
1.0286
0.28865
0.33566
0.38803
0.44612
0.51
0.57934
0.65335
0.73067
0.80944
0.88741
0.96199
1.0303
0.28738
0.33427
0.38656
0.44463
0.50859
0.57815
0.65251
0.73031
0.80968
0.88832
0.96365
1.0328
0.28666
0.33348
0.3857
0.44374
0.50771
0.57734
0.65182
0.72981
0.80942
0.88834
0.96396
1.0335
0.288
0.33495
0.38728
0.44534
0.50924
0.57866
0.65279
0.73029
0.80929
0.88752
0.96239
1.0311
0.28893
0.33596
0.38836
0.44644
0.51029
0.57957
0.65346
0.73063
0.80923
0.88698
0.96131
1.0294
0.28941
0.33648
0.38892
0.44702
0.51084
0.58005
0.65382
0.73083
0.80921
0.88672
0.96078
1.0285
0.28944
0.33652
0.38895
0.44705
0.51088
0.58009
0.65386
0.73086
0.80924
0.88675
0.96081
1.0286
0.28901
0.33606
0.38846
0.44656
0.51041
0.57969
0.65358
0.73074
0.80932
0.88706
0.96139
1.0294
0.28815
0.33511
0.38746
0.44554
0.50944
0.57886
0.65299
0.73047
0.80946
0.88767
0.96252
1.0312
0.28686
0.3337
0.38596
0.44401
0.508
0.57763
0.6521
0.73008
0.80966
0.88854
0.96414
1.0336
0.28566
0.33238
0.38453
0.44254
0.50655
0.57631
0.65103
0.72936
0.80939
0.88879
0.96496
1.0351
0.28704
0.3339
0.38616
0.4442
0.50815
0.5777
0.65207
0.72991
0.80933
0.88804
0.96346
1.0328
0.28799
0.33494
0.38727
0.44534
0.50924
0.57866
0.6528
0.73029
0.8093
0.88752
0.96238
1.0311
0.28848
0.33548
0.38785
0.44594
0.50982
0.57918
0.65319
0.73052
0.80931
0.88729
0.96188
1.0302
0.28851
0.33551
0.38789
0.44598
0.50987
0.57922
0.65323
0.73056
0.80935
0.88732
0.9619
1.0303
0.28807
0.33504
0.38738
0.44547
0.50937
0.5788
0.65293
0.73042
0.80941
0.88762
0.96247
1.0311
0.28718
0.33407
0.38635
0.44441
0.50836
0.57792
0.65229
0.73011
0.80952
0.88821
0.9636
1.0329
0.28587
0.33262
0.3848
0.44283
0.50686
0.57663
0.65135
0.72965
0.80966
0.88902
0.96516
1.0353
0.28412
0.33069
0.3827
0.44063
0.5047
0.57465
0.64972
0.72857
0.80925
0.88941
0.96639
1.0374
0.28564
0.33237
0.38452
0.44253
0.50655
0.57631
0.65104
0.72936
0.80939
0.88878
0.96495
1.0351
0.28662
0.33345
0.38569
0.44373
0.50772
0.57735
0.65183
0.72982
0.80942
0.88833
0.96394
1.0334
0.28713
0.33402
0.3863
0.44437
0.50834
0.57791
0.65228
0.7301
0.80949
0.88814
0.96348
1.0327
0.28716
0.33405
0.38634
0.44441
0.50838
0.57795
0.65232
0.73014
0.80953
0.88818
0.96351
1.0327
0.28671
0.33355
0.3858
0.44386
0.50785
0.57749
0.65197
0.72996
0.80955
0.88843
0.96403
1.0335
0.28579
0.33254
0.38472
0.44275
0.50679
0.57656
0.65127
0.72959
0.8096
0.88897
0.96511
1.0352
0.28434
0.33093
0.38298
0.44094
0.50503
0.57499
0.65006
0.72888
0.80954
0.88966
0.96661
1.0376
1.0485
0.97442
0.89469
0.81194
0.72888
0.64803
0.57143
0.50051
0.436
0.37807
0.32637
0.28022
1.0459
0.97292
0.89422
0.81245
0.73025
0.65008
0.57393
0.50323
0.43875
0.38069
0.32875
0.28233
1.0437
0.97124
0.89303
0.81173
0.72998
0.65019
0.57436
0.50387
0.4395
0.38147
0.3295
0.28302
1.0428
0.97076
0.89285
0.81183
0.73032
0.65074
0.57505
0.50464
0.44029
0.38222
0.33019
0.28364
1.0428
0.97077
0.89286
0.81184
0.73034
0.65076
0.57508
0.50467
0.44032
0.38225
0.33021
0.28366
1.0437
0.97127
0.89307
0.81177
0.73002
0.65025
0.57443
0.50395
0.43959
0.38156
0.32958
0.28309
1.046
0.97296
0.89426
0.81251
0.73032
0.65017
0.57405
0.50337
0.4389
0.38083
0.32889
0.28245
1.0486
0.97446
0.89475
0.81203
0.72899
0.64816
0.5716
0.5007
0.43621
0.37828
0.32657
0.2804
1.0649
0.98217
0.89463
0.80461
0.7153
0.6298
0.5504
0.47841
0.41429
0.35785
0.30834
0.26456
1.064
0.9818
0.8948
0.80534
0.71651
0.63135
0.55213
0.48018
0.41602
0.35947
0.30978
0.2658
1.0632
0.98127
0.89452
0.80531
0.71672
0.63176
0.55268
0.4808
0.41666
0.36008
0.31032
0.26625
1.0629
0.98116
0.89457
0.8055
0.71705
0.63221
0.55322
0.48138
0.41723
0.3606
0.31076
0.26662
1.0629
0.98115
0.89457
0.8055
0.71704
0.63221
0.55323
0.48141
0.41727
0.36064
0.31079
0.26664
1.0632
0.98127
0.89452
0.80531
0.71671
0.63177
0.55272
0.48088
0.41676
0.36019
0.31042
0.26634
1.064
0.98181
0.89481
0.80536
0.71653
0.63138
0.55221
0.48031
0.41619
0.35966
0.30995
0.26595
1.0649
0.98217
0.89462
0.80465
0.71537
0.62989
0.55055
0.47861
0.41454
0.35812
0.30857
0.26476
1.0486
0.97451
0.89479
0.81207
0.72904
0.64821
0.57164
0.50074
0.43623
0.37829
0.32657
0.2804
1.0461
0.97308
0.89439
0.81264
0.73046
0.6503
0.57417
0.50346
0.43897
0.38087
0.3289
0.28245
1.0439
0.97145
0.89326
0.81197
0.73022
0.65044
0.5746
0.50409
0.4397
0.38162
0.3296
0.28308
1.0431
0.971
0.89311
0.8121
0.7306
0.651
0.57529
0.50485
0.44046
0.38233
0.33024
0.28364
1.0431
0.97102
0.89313
0.81213
0.73062
0.65102
0.5753
0.50485
0.44044
0.38231
0.33021
0.2836
1.0439
0.97151
0.89333
0.81205
0.73029
0.65049
0.57462
0.50409
0.43966
0.38155
0.32951
0.28296
1.0461
0.97317
0.89451
0.81277
0.73057
0.65038
0.57421
0.50345
0.4389
0.38076
0.32874
0.28224
1.0487
0.97463
0.89495
0.81224
0.72919
0.64832
0.57169
0.50071
0.43613
0.37812
0.32633
0.2801
1.065
0.98225
0.89471
0.80473
0.71546
0.63
0.55064
0.47868
0.41458
0.35813
0.30858
0.26476
1.0643
0.98203
0.89506
0.80562
0.71681
0.63168
0.55247
0.48052
0.41634
0.35973
0.30998
0.26595
1.0636
0.98165
0.89493
0.80574
0.71716
0.63219
0.55309
0.4812
0.417
0.36033
0.31047
0.26635
1.0634
0.98168
0.89512
0.80607
0.7176
0.63272
0.55368
0.48181
0.41758
0.36082
0.31087
0.26664
1.0634
0.98174
0.89519
0.80614
0.71767
0.63278
0.55373
0.48183
0.41757
0.3608
0.31084
0.26659
1.0637
0.98183
0.89512
0.80595
0.71735
0.63234
0.5532
0.48126
0.417
0.36027
0.31038
0.26619
1.0645
0.98231
0.89536
0.80594
0.71712
0.63191
0.55263
0.48061
0.41633
0.35963
0.30981
0.2657
1.0652
0.98256
0.89507
0.80511
0.71582
0.63029
0.55082
0.47875
0.41452
0.35795
0.30831
0.26439
1.0487
0.97457
0.89489
0.81218
0.72912
0.64825
0.57162
0.50064
0.43606
0.37805
0.32626
0.28003
1.046
0.97301
0.89435
0.8126
0.73039
0.65019
0.57401
0.50325
0.4387
0.38055
0.32854
0.28204
1.0436
0.97127
0.89309
0.8118
0.73003
0.6502
0.57432
0.50378
0.43935
0.38124
0.3292
0.28266
1.0428
0.97072
0.89283
0.81181
0.73028
0.65066
0.57492
0.50445
0.44003
0.3819
0.3298
0.2832
1.0427
0.97066
0.89277
0.81174
0.73021
0.65058
0.57484
0.50438
0.43997
0.38184
0.32975
0.28315
1.0435
0.97111
0.89291
0.8116
0.72981
0.64999
0.57411
0.50357
0.43915
0.38106
0.32904
0.28253
1.0457
0.97275
0.89405
0.81227
0.73005
0.64984
0.57365
0.50291
0.43838
0.38027
0.32829
0.28183
1.0484
0.97423
0.8945
0.81174
0.72865
0.64776
0.57113
0.50016
0.43562
0.37765
0.32592
0.27974
1.0651
0.98243
0.89495
0.80498
0.71569
0.63016
0.55068
0.47861
0.41439
0.35782
0.30818
0.26426
1.0641
0.98197
0.89503
0.8056
0.71675
0.63152
0.55223
0.4802
0.41593
0.35925
0.30944
0.26533
1.0632
0.98133
0.89464
0.80545
0.71681
0.63176
0.55261
0.48066
0.4164
0.35969
0.30981
0.26564
1.0627
0.98111
0.89456
0.8055
0.71699
0.63205
0.55299
0.48109
0.41682
0.36005
0.31011
0.26589
1.0626
0.981
0.89444
0.80537
0.71687
0.63193
0.55287
0.48097
0.41672
0.35996
0.31004
0.26584
1.0629
0.98103
0.89429
0.80506
0.71642
0.63138
0.55224
0.48032
0.41609
0.35942
0.30959
0.26547
1.0637
0.98152
0.89451
0.80503
0.71615
0.63092
0.55164
0.47965
0.41542
0.35881
0.30907
0.26503
1.0646
0.98187
0.89431
0.80427
0.71492
0.62937
0.5499
0.47786
0.4137
0.35721
0.30766
0.26383
1.0484
0.97426
0.89452
0.81176
0.72866
0.64777
0.57113
0.50017
0.43563
0.37767
0.32594
0.27976
1.0458
0.97284
0.89412
0.81232
0.73008
0.64986
0.57367
0.50293
0.43841
0.38031
0.32834
0.28189
1.0436
0.97122
0.89299
0.81166
0.72985
0.65001
0.57413
0.50359
0.43919
0.38111
0.32911
0.28262
1.0429
0.97077
0.89284
0.81179
0.73023
0.65059
0.57485
0.50439
0.44
0.3819
0.32984
0.28327
1.0429
0.9708
0.89287
0.81181
0.73026
0.65063
0.57489
0.50444
0.44006
0.38196
0.3299
0.28333
1.0437
0.9713
0.89307
0.81174
0.72995
0.65012
0.57425
0.50374
0.43934
0.38128
0.32929
0.28281
1.046
0.97297
0.89425
0.81247
0.73024
0.65004
0.57388
0.50316
0.43866
0.38058
0.32863
0.2822
1.0486
0.97444
0.8947
0.81195
0.72888
0.64802
0.57142
0.50049
0.43598
0.37804
0.32633
0.28017
1.0647
0.98195
0.89438
0.80432
0.71496
0.6294
0.54993
0.47788
0.41372
0.35724
0.30768
0.26386
1.064
0.98174
0.8947
0.80518
0.71626
0.63101
0.55171
0.4797
0.41549
0.3589
0.30916
0.26514
1.0633
0.98136
0.89456
0.80528
0.71658
0.6315
0.55233
0.48039
0.41619
0.35955
0.30975
0.26564
1.0631
0.98136
0.89472
0.80558
0.71702
0.63206
0.55296
0.48105
0.41683
0.36013
0.31024
0.26606
1.0632
0.98141
0.89478
0.80564
0.7171
0.63215
0.55305
0.48115
0.41693
0.36022
0.31033
0.26616
1.0635
0.98152
0.89473
0.80546
0.71679
0.63174
0.55258
0.48066
0.41647
0.35983
0.31002
0.26593
1.0642
0.982
0.89496
0.80546
0.71657
0.63134
0.55207
0.48011
0.41593
0.35934
0.30961
0.26561
1.065
0.98225
0.89469
0.80466
0.71533
0.6298
0.55038
0.47839
0.41427
0.35781
0.30828
0.2645
)
;

boundaryField
{
    inlet
    {
        type            uniformTotalPressure;
        rho             rho;
        psi             none;
        gamma           1;
        p0              table
        
4
(
(0 1.3332)
(0.003 1.3332)
(0.0031 0)
(0.01 0)
)
;
        value           nonuniform 0();
    }
    outlet
    {
        type            fixedValue;
        value           nonuniform 0();
    }
    mantle
    {
        type            zeroGradient;
    }
    procBoundary2to1
    {
        type            processor;
        value           nonuniform List<scalar> 
128
(
1.0995
1.0961
1.0938
1.0926
1.0926
1.0938
1.0962
1.0996
1.0962
1.0928
1.0904
1.0892
1.0892
1.0904
1.0929
1.0962
1.0938
1.0904
1.088
1.0868
1.0868
1.088
1.0905
1.0939
1.0926
1.0892
1.0868
1.0856
1.0856
1.0869
1.0893
1.0927
1.0926
1.0892
1.0868
1.0856
1.0856
1.0868
1.0892
1.0927
1.0937
1.0903
1.088
1.0868
1.0868
1.088
1.0904
1.0939
1.0961
1.0928
1.0903
1.0891
1.0892
1.0904
1.0929
1.0962
1.0994
1.096
1.0937
1.0925
1.0925
1.0937
1.0962
1.0995
1.1144
1.1102
1.1072
1.106
1.1061
1.1073
1.1102
1.1145
1.1413
1.1397
1.1384
1.1378
1.1378
1.1384
1.1398
1.1413
1.1145
1.1104
1.1074
1.1063
1.1063
1.1075
1.1104
1.1145
1.1414
1.14
1.1388
1.1383
1.1383
1.1389
1.1401
1.1415
1.1145
1.1102
1.1072
1.1059
1.1059
1.1071
1.11
1.1142
1.1414
1.1398
1.1383
1.1376
1.1375
1.1381
1.1394
1.1409
1.1142
1.1101
1.1072
1.1061
1.1061
1.1073
1.1102
1.1144
1.1411
1.1397
1.1386
1.1381
1.1381
1.1387
1.14
1.1413
)
;
    }
    procBoundary2to3
    {
        type            processor;
        value           nonuniform List<scalar> 
128
(
0.24277
0.24412
0.245
0.24546
0.24548
0.24507
0.24423
0.24291
0.24406
0.24532
0.24618
0.24662
0.24664
0.24624
0.24543
0.24422
0.24488
0.24611
0.24696
0.24739
0.24742
0.24703
0.24623
0.24504
0.24528
0.24649
0.24733
0.24776
0.24779
0.2474
0.24662
0.24544
0.24523
0.24645
0.24729
0.24772
0.24775
0.24736
0.24657
0.2454
0.24474
0.24598
0.24683
0.24727
0.24729
0.2469
0.24611
0.24492
0.24383
0.24509
0.24596
0.24641
0.24643
0.24604
0.24522
0.24402
0.24245
0.24381
0.2447
0.24516
0.24519
0.24478
0.24394
0.24263
0.23885
0.24073
0.24139
0.24195
0.24197
0.24146
0.24084
0.23902
0.22523
0.22629
0.22668
0.22699
0.22702
0.22675
0.22642
0.22541
0.23901
0.24082
0.24142
0.24191
0.24186
0.24128
0.24058
0.23866
0.22539
0.22639
0.2267
0.22694
0.22687
0.22651
0.22606
0.22493
0.23859
0.24039
0.24098
0.24147
0.24143
0.24087
0.24021
0.23835
0.22481
0.22571
0.22598
0.2262
0.22615
0.22584
0.22547
0.22446
0.23838
0.24028
0.24097
0.24156
0.24163
0.24117
0.24059
0.23881
0.2245
0.2256
0.22604
0.22642
0.22651
0.22633
0.22608
0.22516
)
;
    }
}


// ************************************************************************* //
