/*--------------------------------*- C++ -*----------------------------------*\
| =========                 |                                                 |
| \\      /  F ield         | OpenFOAM: The Open Source CFD Toolbox           |
|  \\    /   O peration     | Version:  4.1                                   |
|   \\  /    A nd           | Web:      www.OpenFOAM.org                      |
|    \\/     M anipulation  |                                                 |
\*---------------------------------------------------------------------------*/
FoamFile
{
    version     2.0;
    format      ascii;
    class       pointVectorField;
    location    "0.0050";
    object      pointDisplacement;
}
// * * * * * * * * * * * * * * * * * * * * * * * * * * * * * * * * * * * * * //

dimensions      [0 1 0 0 0 0 0];

internalField   nonuniform List<vector> 
1885
(
(-5.6779e-05 -4.2978e-06 9.5796e-10)
(-5.9548e-05 -5.5349e-06 1.1347e-09)
(-6.2043e-05 -7.0078e-06 1.3084e-09)
(-6.4246e-05 -8.7512e-06 1.4836e-09)
(-6.6123e-05 -1.0798e-05 1.6695e-09)
(-6.7636e-05 -1.3196e-05 1.889e-09)
(-6.8752e-05 -1.6014e-05 2.1673e-09)
(-6.9443e-05 -1.9316e-05 2.5064e-09)
(-6.9687e-05 -2.3137e-05 2.9119e-09)
(-6.9466e-05 -2.7466e-05 3.3942e-09)
(-6.8762e-05 -3.2259e-05 3.9483e-09)
(-6.7556e-05 -3.7441e-05 4.571e-09)
(-6.5831e-05 -4.2919e-05 5.2556e-09)
(-5.6708e-05 -3.8797e-06 4.8797e-07)
(-5.9473e-05 -4.9964e-06 6.283e-07)
(-6.1963e-05 -6.323e-06 7.9477e-07)
(-6.4157e-05 -7.892e-06 9.9145e-07)
(-6.6025e-05 -9.7345e-06 1.2224e-06)
(-6.753e-05 -1.1894e-05 1.4932e-06)
(-6.8638e-05 -1.443e-05 1.8108e-06)
(-6.9323e-05 -1.7398e-05 2.182e-06)
(-6.9562e-05 -2.0824e-05 2.6103e-06)
(-6.9336e-05 -2.4703e-05 3.0951e-06)
(-6.8627e-05 -2.8994e-05 3.631e-06)
(-6.7418e-05 -3.3632e-05 4.2096e-06)
(-6.5693e-05 -3.8533e-05 4.8205e-06)
(-5.6659e-05 -3.4391e-06 1.1119e-06)
(-5.9421e-05 -4.4289e-06 1.4318e-06)
(-6.1906e-05 -5.6027e-06 1.8108e-06)
(-6.4095e-05 -6.9903e-06 2.2586e-06)
(-6.5957e-05 -8.62e-06 2.7844e-06)
(-6.7456e-05 -1.0531e-05 3.4008e-06)
(-6.8559e-05 -1.2773e-05 4.1236e-06)
(-6.9239e-05 -1.5393e-05 4.9676e-06)
(-6.9474e-05 -1.8414e-05 5.9405e-06)
(-6.9245e-05 -2.1831e-05 7.0404e-06)
(-6.8533e-05 -2.5609e-05 8.2559e-06)
(-6.7322e-05 -2.9691e-05 9.5684e-06)
(-6.5597e-05 -3.4002e-05 1.0954e-05)
(-5.6628e-05 -2.9247e-06 1.7408e-06)
(-5.9388e-05 -3.7664e-06 2.2417e-06)
(-6.1871e-05 -4.7635e-06 2.8348e-06)
(-6.4056e-05 -5.9417e-06 3.5355e-06)
(-6.5914e-05 -7.3257e-06 4.3583e-06)
(-6.7409e-05 -8.9483e-06 5.3228e-06)
(-6.8508e-05 -1.0851e-05 6.4536e-06)
(-6.9186e-05 -1.3073e-05 7.7734e-06)
(-6.9419e-05 -1.5633e-05 9.2939e-06)
(-6.9188e-05 -1.8526e-05 1.1012e-05)
(-6.8474e-05 -2.1724e-05 1.291e-05)
(-6.7262e-05 -2.5178e-05 1.496e-05)
(-6.5537e-05 -2.8826e-05 1.7125e-05)
(-5.6617e-05 -2.352e-06 2.3528e-06)
(-5.9376e-05 -3.0289e-06 3.0297e-06)
(-6.1858e-05 -3.8305e-06 3.8313e-06)
(-6.4043e-05 -4.7774e-06 4.7782e-06)
(-6.5899e-05 -5.8896e-06 5.8904e-06)
(-6.7392e-05 -7.1933e-06 7.1941e-06)
(-6.8491e-05 -8.7219e-06 8.7227e-06)
(-6.9168e-05 -1.0506e-05 1.0507e-05)
(-6.94e-05 -1.2561e-05 1.2562e-05)
(-6.9168e-05 -1.4883e-05 1.4884e-05)
(-6.8454e-05 -1.7448e-05 1.7449e-05)
(-6.7241e-05 -2.0219e-05 2.022e-05)
(-6.5516e-05 -2.3144e-05 2.3145e-05)
(-5.6628e-05 -1.74e-06 2.9254e-06)
(-5.9388e-05 -2.2408e-06 3.7671e-06)
(-6.1871e-05 -2.8339e-06 4.7643e-06)
(-6.4056e-05 -3.5346e-06 5.9425e-06)
(-6.5914e-05 -4.3574e-06 7.3264e-06)
(-6.7409e-05 -5.3219e-06 8.9489e-06)
(-6.8509e-05 -6.4528e-06 1.0852e-05)
(-6.9186e-05 -7.7726e-06 1.3073e-05)
(-6.9419e-05 -9.2931e-06 1.5633e-05)
(-6.9188e-05 -1.1011e-05 1.8527e-05)
(-6.8474e-05 -1.291e-05 2.1725e-05)
(-6.7262e-05 -1.4959e-05 2.5179e-05)
(-6.5537e-05 -1.7124e-05 2.8826e-05)
(-5.6659e-05 -1.1111e-06 3.4398e-06)
(-5.9421e-05 -1.4309e-06 4.4296e-06)
(-6.1907e-05 -1.8099e-06 5.6034e-06)
(-6.4095e-05 -2.2577e-06 6.9909e-06)
(-6.5957e-05 -2.7835e-06 8.6206e-06)
(-6.7456e-05 -3.3999e-06 1.0531e-05)
(-6.8559e-05 -4.1228e-06 1.2773e-05)
(-6.9239e-05 -4.9668e-06 1.5393e-05)
(-6.9475e-05 -5.9397e-06 1.8414e-05)
(-6.9245e-05 -7.0396e-06 2.1831e-05)
(-6.8533e-05 -8.2551e-06 2.5609e-05)
(-6.7322e-05 -9.5675e-06 2.9691e-05)
(-6.5597e-05 -1.0953e-05 3.4003e-05)
(-5.6708e-05 -4.8718e-07 3.8803e-06)
(-5.9473e-05 -6.2748e-07 4.997e-06)
(-6.1963e-05 -7.9393e-07 6.3236e-06)
(-6.4157e-05 -9.906e-07 7.8926e-06)
(-6.6025e-05 -1.2216e-06 9.735e-06)
(-6.753e-05 -1.4924e-06 1.1895e-05)
(-6.8639e-05 -1.81e-06 1.4431e-05)
(-6.9323e-05 -2.1812e-06 1.7398e-05)
(-6.9562e-05 -2.6096e-06 2.0825e-05)
(-6.9336e-05 -3.0944e-06 2.4703e-05)
(-6.8627e-05 -3.6303e-06 2.8994e-05)
(-6.7418e-05 -4.2089e-06 3.3633e-05)
(-6.5693e-05 -4.8198e-06 3.8533e-05)
(-5.6779e-05 -2.1894e-10 4.2984e-06)
(-5.9548e-05 -3.7142e-10 5.5355e-06)
(-6.2043e-05 -5.39e-10 7.0084e-06)
(-6.4246e-05 -7.2738e-10 8.7517e-06)
(-6.6123e-05 -9.4499e-10 1.0798e-05)
(-6.7636e-05 -1.2149e-09 1.3196e-05)
(-6.8752e-05 -1.5554e-09 1.6014e-05)
(-6.9443e-05 -1.9539e-09 1.9317e-05)
(-6.9687e-05 -2.4072e-09 2.3137e-05)
(-6.9466e-05 -2.9282e-09 2.7466e-05)
(-6.8762e-05 -3.5132e-09 3.2259e-05)
(-6.7556e-05 -4.1477e-09 3.7442e-05)
(-6.5831e-05 -4.8247e-09 4.2919e-05)
(-5.6708e-05 -3.8798e-06 -4.8565e-07)
(-5.9473e-05 -4.9965e-06 -6.2552e-07)
(-6.1963e-05 -6.3231e-06 -7.9151e-07)
(-6.4157e-05 -7.8921e-06 -9.8767e-07)
(-6.6025e-05 -9.7346e-06 -1.2181e-06)
(-6.753e-05 -1.1894e-05 -1.4882e-06)
(-6.8638e-05 -1.4431e-05 -1.805e-06)
(-6.9323e-05 -1.7398e-05 -2.1752e-06)
(-6.9562e-05 -2.0825e-05 -2.6023e-06)
(-6.9336e-05 -2.4703e-05 -3.0858e-06)
(-6.8627e-05 -2.8995e-05 -3.6202e-06)
(-6.7418e-05 -3.3633e-05 -4.1971e-06)
(-6.5693e-05 -3.8533e-05 -4.8061e-06)
(-5.6602e-05 -3.236e-06 1.9289e-09)
(-5.936e-05 -4.1674e-06 2.386e-09)
(-6.1841e-05 -5.2703e-06 2.8915e-09)
(-6.4023e-05 -6.5734e-06 3.4603e-09)
(-6.5877e-05 -8.1045e-06 4.1141e-09)
(-6.7369e-05 -9.9001e-06 4.8832e-09)
(-6.8466e-05 -1.2006e-05 5.797e-09)
(-6.9141e-05 -1.4464e-05 6.8743e-09)
(-6.9372e-05 -1.7296e-05 8.1327e-09)
(-6.9139e-05 -2.0496e-05 9.5805e-09)
(-6.8423e-05 -2.4033e-05 1.12e-08)
(-6.721e-05 -2.7854e-05 1.2967e-08)
(-6.5485e-05 -3.189e-05 1.4855e-08)
(-5.6552e-05 -2.7717e-06 5.5723e-07)
(-5.9308e-05 -3.5695e-06 7.175e-07)
(-6.1784e-05 -4.5129e-06 9.0692e-07)
(-6.3961e-05 -5.6269e-06 1.1305e-06)
(-6.5809e-05 -6.936e-06 1.3932e-06)
(-6.7295e-05 -8.4713e-06 1.7013e-06)
(-6.8387e-05 -1.0271e-05 2.0622e-06)
(-6.9058e-05 -1.2369e-05 2.4829e-06)
(-6.9284e-05 -1.4783e-05 2.967e-06)
(-6.9047e-05 -1.751e-05 3.5135e-06)
(-6.8329e-05 -2.0521e-05 4.1171e-06)
(-6.7114e-05 -2.3774e-05 4.7688e-06)
(-6.539e-05 -2.7209e-05 5.4569e-06)
(-5.6522e-05 -2.2566e-06 1.1303e-06)
(-5.9275e-05 -2.9061e-06 1.4555e-06)
(-6.1749e-05 -3.6734e-06 1.8397e-06)
(-6.3923e-05 -4.5794e-06 2.2931e-06)
(-6.5767e-05 -5.644e-06 2.8259e-06)
(-6.7249e-05 -6.8926e-06 3.4506e-06)
(-6.8338e-05 -8.3554e-06 4.1824e-06)
(-6.9006e-05 -1.006e-05 5.035e-06)
(-6.923e-05 -1.202e-05 6.0154e-06)
(-6.8991e-05 -1.4232e-05 7.1218e-06)
(-6.8271e-05 -1.6675e-05 8.3436e-06)
(-6.7054e-05 -1.9313e-05 9.6626e-06)
(-6.5331e-05 -2.2099e-05 1.1055e-05)
(-5.6512e-05 -1.7033e-06 1.7041e-06)
(-5.9264e-05 -2.1936e-06 2.1945e-06)
(-6.1737e-05 -2.7727e-06 2.7736e-06)
(-6.391e-05 -3.4562e-06 3.4572e-06)
(-6.5753e-05 -4.2595e-06 4.2604e-06)
(-6.7234e-05 -5.2015e-06 5.2024e-06)
(-6.8321e-05 -6.3049e-06 6.3059e-06)
(-6.8988e-05 -7.5902e-06 7.5912e-06)
(-6.9212e-05 -9.068e-06 9.0691e-06)
(-6.8972e-05 -1.0736e-05 1.0737e-05)
(-6.8251e-05 -1.2577e-05 1.2578e-05)
(-6.7034e-05 -1.4565e-05 1.4566e-05)
(-6.5311e-05 -1.6664e-05 1.6665e-05)
(-5.6522e-05 -1.1295e-06 2.2573e-06)
(-5.9275e-05 -1.4546e-06 2.9068e-06)
(-6.1749e-05 -1.8387e-06 3.6742e-06)
(-6.3923e-05 -2.2921e-06 4.5802e-06)
(-6.5767e-05 -2.8248e-06 5.6448e-06)
(-6.7249e-05 -3.4495e-06 6.8934e-06)
(-6.8338e-05 -4.1813e-06 8.3562e-06)
(-6.9006e-05 -5.0338e-06 1.0061e-05)
(-6.923e-05 -6.0142e-06 1.2021e-05)
(-6.8991e-05 -7.1205e-06 1.4233e-05)
(-6.8271e-05 -8.3421e-06 1.6676e-05)
(-6.7054e-05 -9.6609e-06 1.9314e-05)
(-6.5331e-05 -1.1053e-05 2.21e-05)
(-5.6553e-05 -5.5638e-07 2.7724e-06)
(-5.9308e-05 -7.1658e-07 3.5702e-06)
(-6.1784e-05 -9.0594e-07 4.5135e-06)
(-6.3961e-05 -1.1295e-06 5.6275e-06)
(-6.5809e-05 -1.3922e-06 6.9366e-06)
(-6.7295e-05 -1.7002e-06 8.4719e-06)
(-6.8387e-05 -2.0611e-06 1.0271e-05)
(-6.9058e-05 -2.4817e-06 1.2369e-05)
(-6.9284e-05 -2.9657e-06 1.4784e-05)
(-6.9048e-05 -3.5121e-06 1.751e-05)
(-6.8329e-05 -4.1155e-06 2.0522e-05)
(-6.7114e-05 -4.767e-06 2.3775e-05)
(-6.539e-05 -5.455e-06 2.721e-05)
(-5.6602e-05 -1.1055e-09 3.2365e-06)
(-5.936e-05 -1.497e-09 4.168e-06)
(-6.1841e-05 -1.9474e-09 5.2708e-06)
(-6.4023e-05 -2.4715e-09 6.5739e-06)
(-6.5878e-05 -3.0893e-09 8.105e-06)
(-6.7369e-05 -3.8282e-09 9.9005e-06)
(-6.8466e-05 -4.7085e-09 1.2006e-05)
(-6.9142e-05 -5.7347e-09 1.4464e-05)
(-6.9372e-05 -6.9167e-09 1.7296e-05)
(-6.9139e-05 -8.2636e-09 2.0496e-05)
(-6.8423e-05 -9.7599e-09 2.4033e-05)
(-6.721e-05 -1.1379e-08 2.7854e-05)
(-6.5485e-05 -1.3104e-08 3.189e-05)
(-5.6708e-05 4.8639e-07 3.8803e-06)
(-5.9473e-05 6.263e-07 4.997e-06)
(-6.1963e-05 7.9232e-07 6.3236e-06)
(-6.4158e-05 9.8849e-07 7.8926e-06)
(-6.6025e-05 1.2189e-06 9.7351e-06)
(-6.753e-05 1.489e-06 1.1895e-05)
(-6.8639e-05 1.8058e-06 1.4431e-05)
(-6.9323e-05 2.1759e-06 1.7398e-05)
(-6.9562e-05 2.6031e-06 2.0825e-05)
(-6.9336e-05 3.0866e-06 2.4703e-05)
(-6.8627e-05 3.621e-06 2.8995e-05)
(-6.7418e-05 4.198e-06 3.3633e-05)
(-6.5693e-05 4.8071e-06 3.8534e-05)
(-5.6659e-05 -3.4393e-06 -1.1105e-06)
(-5.9421e-05 -4.4292e-06 -1.4301e-06)
(-6.1907e-05 -5.603e-06 -1.809e-06)
(-6.4095e-05 -6.9906e-06 -2.2566e-06)
(-6.5957e-05 -8.6205e-06 -2.7823e-06)
(-6.7456e-05 -1.0531e-05 -3.3985e-06)
(-6.8559e-05 -1.2774e-05 -4.1211e-06)
(-6.9239e-05 -1.5393e-05 -4.9647e-06)
(-6.9475e-05 -1.8415e-05 -5.9372e-06)
(-6.9245e-05 -2.1832e-05 -7.0366e-06)
(-6.8533e-05 -2.561e-05 -8.2516e-06)
(-6.7322e-05 -2.9692e-05 -9.5634e-06)
(-6.5598e-05 -3.4004e-05 -1.0948e-05)
(-5.6553e-05 -2.7717e-06 -5.5407e-07)
(-5.9308e-05 -3.5695e-06 -7.1363e-07)
(-6.1784e-05 -4.5128e-06 -9.0228e-07)
(-6.3961e-05 -5.6268e-06 -1.125e-06)
(-6.5809e-05 -6.9359e-06 -1.3868e-06)
(-6.7295e-05 -8.4712e-06 -1.6937e-06)
(-6.8387e-05 -1.0271e-05 -2.0533e-06)
(-6.9058e-05 -1.2369e-05 -2.4723e-06)
(-6.9285e-05 -1.4783e-05 -2.9545e-06)
(-6.9048e-05 -1.7509e-05 -3.4988e-06)
(-6.8329e-05 -2.0521e-05 -4.0999e-06)
(-6.7114e-05 -2.3774e-05 -4.7489e-06)
(-6.539e-05 -2.7209e-05 -5.4341e-06)
(-5.6501e-05 -2.2867e-06 2.096e-09)
(-5.9252e-05 -2.9449e-06 2.6057e-09)
(-6.1725e-05 -3.7221e-06 3.1719e-09)
(-6.3896e-05 -4.6395e-06 3.8119e-09)
(-6.5737e-05 -5.7177e-06 4.5489e-09)
(-6.7217e-05 -6.9822e-06 5.4137e-09)
(-6.8303e-05 -8.4634e-06 6.4383e-09)
(-6.8969e-05 -1.0188e-05 7.6475e-09)
(-6.9192e-05 -1.2172e-05 9.06e-09)
(-6.8951e-05 -1.4409e-05 1.0683e-08)
(-6.823e-05 -1.6879e-05 1.25e-08)
(-6.7012e-05 -1.9546e-05 1.4485e-08)
(-6.5289e-05 -2.2362e-05 1.6602e-08)
(-5.6469e-05 -1.7525e-06 5.8701e-07)
(-5.9218e-05 -2.2569e-06 7.5585e-07)
(-6.1688e-05 -2.8521e-06 9.5503e-07)
(-6.3856e-05 -3.5544e-06 1.19e-06)
(-6.5693e-05 -4.3799e-06 1.4662e-06)
(-6.7169e-05 -5.348e-06 1.79e-06)
(-6.8252e-05 -6.4815e-06 2.1691e-06)
(-6.8915e-05 -7.8009e-06 2.6104e-06)
(-6.9135e-05 -9.3167e-06 3.1174e-06)
(-6.8892e-05 -1.1026e-05 3.689e-06)
(-6.8168e-05 -1.2913e-05 4.32e-06)
(-6.695e-05 -1.495e-05 5.0011e-06)
(-6.5227e-05 -1.71e-05 5.7201e-06)
(-5.6458e-05 -1.179e-06 1.1798e-06)
(-5.9207e-05 -1.5183e-06 1.5193e-06)
(-6.1675e-05 -1.9187e-06 1.9197e-06)
(-6.3842e-05 -2.391e-06 2.392e-06)
(-6.5678e-05 -2.9461e-06 2.9472e-06)
(-6.7153e-05 -3.5971e-06 3.5983e-06)
(-6.8234e-05 -4.3593e-06 4.3606e-06)
(-6.8896e-05 -5.2462e-06 5.2476e-06)
(-6.9115e-05 -6.265e-06 6.2664e-06)
(-6.8872e-05 -7.4136e-06 7.4153e-06)
(-6.8148e-05 -8.6814e-06 8.6832e-06)
(-6.6928e-05 -1.005e-05 1.0052e-05)
(-6.5206e-05 -1.1494e-05 1.1497e-05)
(-5.6469e-05 -5.8612e-07 1.7532e-06)
(-5.9218e-05 -7.5487e-07 2.2577e-06)
(-6.1688e-05 -9.5396e-07 2.8529e-06)
(-6.3856e-05 -1.1889e-06 3.5553e-06)
(-6.5693e-05 -1.4649e-06 4.3808e-06)
(-6.7169e-05 -1.7887e-06 5.3489e-06)
(-6.8252e-05 -2.1677e-06 6.4825e-06)
(-6.8915e-05 -2.6088e-06 7.8019e-06)
(-6.9135e-05 -3.1156e-06 9.3179e-06)
(-6.8892e-05 -3.6871e-06 1.1027e-05)
(-6.8168e-05 -4.3178e-06 1.2914e-05)
(-6.695e-05 -4.9986e-06 1.4951e-05)
(-6.5227e-05 -5.7173e-06 1.7102e-05)
(-5.6501e-05 -1.1789e-09 2.2874e-06)
(-5.9252e-05 -1.5804e-09 2.9456e-06)
(-6.1725e-05 -2.0425e-09 3.7228e-06)
(-6.3896e-05 -2.5812e-09 4.6402e-06)
(-6.5737e-05 -3.2163e-09 5.7184e-06)
(-6.7217e-05 -3.9721e-09 6.9828e-06)
(-6.8303e-05 -4.8684e-09 8.464e-06)
(-6.8969e-05 -5.9145e-09 1.0189e-05)
(-6.9192e-05 -7.1204e-09 1.2172e-05)
(-6.8951e-05 -8.4921e-09 1.441e-05)
(-6.823e-05 -1.0018e-08 1.688e-05)
(-6.7012e-05 -1.1679e-08 1.9547e-05)
(-6.5289e-05 -1.3454e-08 2.2363e-05)
(-5.6553e-05 5.5495e-07 2.7722e-06)
(-5.9308e-05 7.1461e-07 3.57e-06)
(-6.1784e-05 9.0336e-07 4.5133e-06)
(-6.3961e-05 1.1262e-06 5.6273e-06)
(-6.5809e-05 1.388e-06 6.9363e-06)
(-6.7295e-05 1.695e-06 8.4715e-06)
(-6.8387e-05 2.0547e-06 1.0271e-05)
(-6.9058e-05 2.4739e-06 1.2369e-05)
(-6.9285e-05 2.9563e-06 1.4783e-05)
(-6.9048e-05 3.5008e-06 1.751e-05)
(-6.8329e-05 4.1022e-06 2.0521e-05)
(-6.7114e-05 4.7515e-06 2.3774e-05)
(-6.539e-05 5.437e-06 2.7209e-05)
(-5.6659e-05 1.1112e-06 3.4398e-06)
(-5.9421e-05 1.4309e-06 4.4296e-06)
(-6.1907e-05 1.8098e-06 5.6035e-06)
(-6.4096e-05 2.2575e-06 6.9911e-06)
(-6.5957e-05 2.7832e-06 8.6208e-06)
(-6.7456e-05 3.3994e-06 1.0532e-05)
(-6.8559e-05 4.122e-06 1.2774e-05)
(-6.924e-05 4.9657e-06 1.5393e-05)
(-6.9475e-05 5.9383e-06 1.8415e-05)
(-6.9245e-05 7.0378e-06 2.1832e-05)
(-6.8534e-05 8.2529e-06 2.561e-05)
(-6.7323e-05 9.5648e-06 2.9692e-05)
(-6.5598e-05 1.095e-05 3.4004e-05)
(-5.6628e-05 -2.9248e-06 -1.74e-06)
(-5.9388e-05 -3.7665e-06 -2.2408e-06)
(-6.1871e-05 -4.7637e-06 -2.834e-06)
(-6.4056e-05 -5.942e-06 -3.5348e-06)
(-6.5914e-05 -7.3261e-06 -4.3578e-06)
(-6.7409e-05 -8.9487e-06 -5.3225e-06)
(-6.8509e-05 -1.0852e-05 -6.4535e-06)
(-6.9186e-05 -1.3073e-05 -7.7735e-06)
(-6.9419e-05 -1.5634e-05 -9.2942e-06)
(-6.9188e-05 -1.8527e-05 -1.1012e-05)
(-6.8474e-05 -2.1725e-05 -1.2911e-05)
(-6.7262e-05 -2.5179e-05 -1.4961e-05)
(-6.5537e-05 -2.8827e-05 -1.7125e-05)
(-5.6522e-05 -2.2562e-06 -1.1288e-06)
(-5.9275e-05 -2.9056e-06 -1.4538e-06)
(-6.1749e-05 -3.6729e-06 -1.8378e-06)
(-6.3923e-05 -4.5787e-06 -2.291e-06)
(-6.5767e-05 -5.6432e-06 -2.8236e-06)
(-6.7249e-05 -6.8916e-06 -3.4481e-06)
(-6.8338e-05 -8.3542e-06 -4.1797e-06)
(-6.9006e-05 -1.0058e-05 -5.0319e-06)
(-6.923e-05 -1.2018e-05 -6.0119e-06)
(-6.8991e-05 -1.423e-05 -7.1178e-06)
(-6.8271e-05 -1.6673e-05 -8.3389e-06)
(-6.7054e-05 -1.931e-05 -9.6571e-06)
(-6.5331e-05 -2.2096e-05 -1.1049e-05)
(-5.6469e-05 -1.7519e-06 -5.8414e-07)
(-5.9218e-05 -2.2562e-06 -7.5234e-07)
(-6.1688e-05 -2.8512e-06 -9.5083e-07)
(-6.3856e-05 -3.5533e-06 -1.1851e-06)
(-6.5693e-05 -4.3786e-06 -1.4604e-06)
(-6.7169e-05 -5.3464e-06 -1.7832e-06)
(-6.8252e-05 -6.4796e-06 -2.1612e-06)
(-6.8915e-05 -7.7986e-06 -2.601e-06)
(-6.9135e-05 -9.314e-06 -3.1063e-06)
(-6.8892e-05 -1.1023e-05 -3.676e-06)
(-6.8168e-05 -1.2909e-05 -4.3048e-06)
(-6.695e-05 -1.4945e-05 -4.9835e-06)
(-6.5227e-05 -1.7095e-05 -5.6998e-06)
(-5.6436e-05 -1.1989e-06 1.4534e-09)
(-5.9183e-05 -1.544e-06 1.7804e-09)
(-6.165e-05 -1.9509e-06 2.1307e-09)
(-6.3814e-05 -2.4309e-06 2.5154e-09)
(-6.5648e-05 -2.9951e-06 2.9508e-09)
(-6.7119e-05 -3.6569e-06 3.4594e-09)
(-6.8199e-05 -4.4315e-06 4.0662e-09)
(-6.8859e-05 -5.3325e-06 4.7913e-09)
(-6.9076e-05 -6.3671e-06 5.6493e-09)
(-6.883e-05 -7.5334e-06 6.6465e-09)
(-6.8105e-05 -8.8203e-06 7.7763e-09)
(-6.6885e-05 -1.0209e-05 9.0214e-09)
(-6.5163e-05 -1.1676e-05 1.0353e-08)
(-5.6425e-05 -6.0653e-07 6.0743e-07)
(-5.9171e-05 -7.8115e-07 7.8216e-07)
(-6.1637e-05 -9.8699e-07 9.8811e-07)
(-6.38e-05 -1.2298e-06 1.231e-06)
(-6.5632e-05 -1.5152e-06 1.5165e-06)
(-6.7102e-05 -1.8499e-06 1.8513e-06)
(-6.8181e-05 -2.2416e-06 2.2432e-06)
(-6.8839e-05 -2.6972e-06 2.699e-06)
(-6.9056e-05 -3.2202e-06 3.2222e-06)
(-6.881e-05 -3.8098e-06 3.812e-06)
(-6.8084e-05 -4.4603e-06 4.4628e-06)
(-6.6863e-05 -5.1623e-06 5.1652e-06)
(-6.5141e-05 -5.9034e-06 5.9067e-06)
(-5.6436e-05 -4.8238e-10 1.1997e-06)
(-5.9183e-05 -6.7566e-10 1.5449e-06)
(-6.165e-05 -8.9245e-10 1.9519e-06)
(-6.3814e-05 -1.142e-09 2.432e-06)
(-6.5648e-05 -1.4356e-09 2.9963e-06)
(-6.7119e-05 -1.7868e-09 3.6581e-06)
(-6.8199e-05 -2.2064e-09 4.4328e-06)
(-6.8859e-05 -2.6991e-09 5.334e-06)
(-6.9076e-05 -3.2697e-09 6.3688e-06)
(-6.883e-05 -3.9225e-09 7.5352e-06)
(-6.8105e-05 -4.6565e-09 8.8225e-06)
(-6.6885e-05 -5.4673e-09 1.0212e-05)
(-6.5163e-05 -6.3469e-09 1.1678e-05)
(-5.6469e-05 5.852e-07 1.7526e-06)
(-5.9218e-05 7.5357e-07 2.2569e-06)
(-6.1688e-05 9.5224e-07 2.8519e-06)
(-6.3856e-05 1.1866e-06 3.554e-06)
(-6.5693e-05 1.4621e-06 4.3792e-06)
(-6.7169e-05 1.7852e-06 5.347e-06)
(-6.8252e-05 2.1634e-06 6.4802e-06)
(-6.8915e-05 2.6036e-06 7.7992e-06)
(-6.9135e-05 3.1092e-06 9.3146e-06)
(-6.8892e-05 3.6794e-06 1.1024e-05)
(-6.8168e-05 4.3087e-06 1.291e-05)
(-6.695e-05 4.9879e-06 1.4946e-05)
(-6.5227e-05 5.7049e-06 1.7096e-05)
(-5.6522e-05 1.1298e-06 2.2566e-06)
(-5.9275e-05 1.455e-06 2.906e-06)
(-6.1749e-05 1.8391e-06 3.6733e-06)
(-6.3923e-05 2.2925e-06 4.579e-06)
(-6.5767e-05 2.8253e-06 5.6434e-06)
(-6.7249e-05 3.45e-06 6.8917e-06)
(-6.8338e-05 4.1818e-06 8.3541e-06)
(-6.9006e-05 5.0343e-06 1.0058e-05)
(-6.923e-05 6.0146e-06 1.2018e-05)
(-6.8991e-05 7.1209e-06 1.423e-05)
(-6.8271e-05 8.3425e-06 1.6672e-05)
(-6.7054e-05 9.6613e-06 1.931e-05)
(-6.5331e-05 1.1054e-05 2.2095e-05)
(-5.6628e-05 1.7408e-06 2.9252e-06)
(-5.9388e-05 2.2417e-06 3.7669e-06)
(-6.1871e-05 2.8349e-06 4.7641e-06)
(-6.4056e-05 3.5358e-06 5.9423e-06)
(-6.5914e-05 4.3588e-06 7.3263e-06)
(-6.7409e-05 5.3236e-06 8.9488e-06)
(-6.8509e-05 6.4547e-06 1.0852e-05)
(-6.9186e-05 7.7748e-06 1.3073e-05)
(-6.9419e-05 9.2956e-06 1.5633e-05)
(-6.9188e-05 1.1014e-05 1.8527e-05)
(-6.8474e-05 1.2913e-05 2.1724e-05)
(-6.7262e-05 1.4963e-05 2.5178e-05)
(-6.5537e-05 1.7128e-05 2.8826e-05)
(-5.6617e-05 -2.352e-06 -2.3518e-06)
(-5.9376e-05 -3.0289e-06 -3.0286e-06)
(-6.1858e-05 -3.8306e-06 -3.8302e-06)
(-6.4043e-05 -4.7775e-06 -4.7772e-06)
(-6.5899e-05 -5.8898e-06 -5.8894e-06)
(-6.7392e-05 -7.1936e-06 -7.1932e-06)
(-6.8491e-05 -8.7222e-06 -8.7219e-06)
(-6.9168e-05 -1.0506e-05 -1.0506e-05)
(-6.94e-05 -1.2561e-05 -1.2561e-05)
(-6.9168e-05 -1.4883e-05 -1.4883e-05)
(-6.8454e-05 -1.7449e-05 -1.7448e-05)
(-6.7241e-05 -2.0219e-05 -2.0219e-05)
(-6.5517e-05 -2.3145e-05 -2.3144e-05)
(-5.6512e-05 -1.703e-06 -1.7027e-06)
(-5.9264e-05 -2.1932e-06 -2.1928e-06)
(-6.1737e-05 -2.7723e-06 -2.7717e-06)
(-6.391e-05 -3.4557e-06 -3.4551e-06)
(-6.5753e-05 -4.2588e-06 -4.2583e-06)
(-6.7234e-05 -5.2007e-06 -5.2001e-06)
(-6.8321e-05 -6.3039e-06 -6.3033e-06)
(-6.8988e-05 -7.5889e-06 -7.5883e-06)
(-6.9212e-05 -9.0665e-06 -9.0658e-06)
(-6.8972e-05 -1.0734e-05 -1.0733e-05)
(-6.8251e-05 -1.2575e-05 -1.2574e-05)
(-6.7034e-05 -1.4562e-05 -1.4561e-05)
(-6.5311e-05 -1.6661e-05 -1.6659e-05)
(-5.6458e-05 -1.1783e-06 -1.1778e-06)
(-5.9207e-05 -1.5175e-06 -1.5169e-06)
(-6.1675e-05 -1.9176e-06 -1.9169e-06)
(-6.3842e-05 -2.3896e-06 -2.3889e-06)
(-6.5678e-05 -2.9444e-06 -2.9437e-06)
(-6.7153e-05 -3.5951e-06 -3.5943e-06)
(-6.8234e-05 -4.3568e-06 -4.3559e-06)
(-6.8896e-05 -5.2432e-06 -5.2422e-06)
(-6.9115e-05 -6.2614e-06 -6.2602e-06)
(-6.8872e-05 -7.4093e-06 -7.408e-06)
(-6.8148e-05 -8.6763e-06 -8.6747e-06)
(-6.6929e-05 -1.0044e-05 -1.0042e-05)
(-6.5206e-05 -1.1487e-05 -1.1485e-05)
(-5.6425e-05 -6.0604e-07 -6.0546e-07)
(-5.9171e-05 -7.8052e-07 -7.7981e-07)
(-6.1637e-05 -9.8619e-07 -9.8536e-07)
(-6.38e-05 -1.2288e-06 -1.2279e-06)
(-6.5632e-05 -1.5139e-06 -1.5129e-06)
(-6.7102e-05 -1.8484e-06 -1.8472e-06)
(-6.8181e-05 -2.2398e-06 -2.2385e-06)
(-6.8839e-05 -2.695e-06 -2.6936e-06)
(-6.9056e-05 -3.2176e-06 -3.2159e-06)
(-6.881e-05 -3.8066e-06 -3.8046e-06)
(-6.8084e-05 -4.4566e-06 -4.4542e-06)
(-6.6863e-05 -5.158e-06 -5.1552e-06)
(-6.5141e-05 -5.8985e-06 -5.8952e-06)
(-5.6413e-05 1.4442e-10 8.2735e-10)
(-5.9159e-05 1.34e-10 9.7463e-10)
(-6.1624e-05 1.3259e-10 1.1133e-09)
(-6.3786e-05 1.3747e-10 1.2479e-09)
(-6.5616e-05 1.4467e-10 1.3882e-09)
(-6.7085e-05 1.4946e-10 1.5491e-09)
(-6.8162e-05 1.4891e-10 1.7471e-09)
(-6.882e-05 1.4301e-10 1.9964e-09)
(-6.9036e-05 1.3128e-10 2.3078e-09)
(-6.8789e-05 1.103e-10 2.6887e-09)
(-6.8062e-05 7.4053e-11 3.1384e-09)
(-6.6841e-05 1.51e-11 3.6478e-09)
(-6.5119e-05 -7.1181e-11 4.1997e-09)
(-5.6425e-05 6.0649e-07 6.071e-07)
(-5.9171e-05 7.81e-07 7.8175e-07)
(-6.1637e-05 9.8672e-07 9.8759e-07)
(-6.38e-05 1.2294e-06 1.2304e-06)
(-6.5632e-05 1.5146e-06 1.5157e-06)
(-6.7103e-05 1.8492e-06 1.8503e-06)
(-6.8181e-05 2.2407e-06 2.242e-06)
(-6.884e-05 2.696e-06 2.6975e-06)
(-6.9056e-05 3.2187e-06 3.2205e-06)
(-6.881e-05 3.8079e-06 3.81e-06)
(-6.8084e-05 4.4579e-06 4.4605e-06)
(-6.6863e-05 5.1595e-06 5.1625e-06)
(-6.5141e-05 5.9e-06 5.9036e-06)
(-5.6458e-05 1.1792e-06 1.179e-06)
(-5.9207e-05 1.5186e-06 1.5182e-06)
(-6.1675e-05 1.9189e-06 1.9183e-06)
(-6.3842e-05 2.3912e-06 2.3904e-06)
(-6.5678e-05 2.9463e-06 2.9452e-06)
(-6.7153e-05 3.5973e-06 3.5959e-06)
(-6.8234e-05 4.3595e-06 4.3576e-06)
(-6.8896e-05 5.2463e-06 5.244e-06)
(-6.9115e-05 6.265e-06 6.2622e-06)
(-6.8872e-05 7.4136e-06 7.4102e-06)
(-6.8148e-05 8.6812e-06 8.6773e-06)
(-6.6929e-05 1.0049e-05 1.0045e-05)
(-6.5206e-05 1.1494e-05 1.1489e-05)
(-5.6512e-05 1.704e-06 1.7033e-06)
(-5.9264e-05 2.1943e-06 2.1934e-06)
(-6.1737e-05 2.7736e-06 2.7723e-06)
(-6.391e-05 3.4573e-06 3.4555e-06)
(-6.5753e-05 4.2607e-06 4.2585e-06)
(-6.7234e-05 5.2029e-06 5.2001e-06)
(-6.8321e-05 6.3065e-06 6.303e-06)
(-6.8988e-05 7.5921e-06 7.5877e-06)
(-6.9212e-05 9.0702e-06 9.0649e-06)
(-6.8972e-05 1.0738e-05 1.0732e-05)
(-6.8251e-05 1.258e-05 1.2572e-05)
(-6.7034e-05 1.4568e-05 1.4559e-05)
(-6.5311e-05 1.6667e-05 1.6658e-05)
(-5.6617e-05 2.3525e-06 2.3523e-06)
(-5.9376e-05 3.0295e-06 3.0292e-06)
(-6.1859e-05 3.8311e-06 3.8307e-06)
(-6.4043e-05 4.7782e-06 4.7776e-06)
(-6.5899e-05 5.8905e-06 5.8896e-06)
(-6.7393e-05 7.1944e-06 7.1932e-06)
(-6.8491e-05 8.7232e-06 8.7217e-06)
(-6.9168e-05 1.0507e-05 1.0505e-05)
(-6.94e-05 1.2563e-05 1.256e-05)
(-6.9168e-05 1.4885e-05 1.4882e-05)
(-6.8454e-05 1.745e-05 1.7447e-05)
(-6.7241e-05 2.0221e-05 2.0217e-05)
(-6.5517e-05 2.3147e-05 2.3143e-05)
(-5.6628e-05 -1.7403e-06 -2.9245e-06)
(-5.9388e-05 -2.2412e-06 -3.7662e-06)
(-6.1871e-05 -2.8344e-06 -4.7634e-06)
(-6.4056e-05 -3.5352e-06 -5.9417e-06)
(-6.5914e-05 -4.3582e-06 -7.3258e-06)
(-6.7409e-05 -5.3229e-06 -8.9485e-06)
(-6.8509e-05 -6.4539e-06 -1.0852e-05)
(-6.9186e-05 -7.7739e-06 -1.3073e-05)
(-6.9419e-05 -9.2946e-06 -1.5633e-05)
(-6.9188e-05 -1.1013e-05 -1.8527e-05)
(-6.8474e-05 -1.2911e-05 -2.1725e-05)
(-6.7262e-05 -1.4962e-05 -2.5179e-05)
(-6.5537e-05 -1.7126e-05 -2.8826e-05)
(-5.6522e-05 -1.1292e-06 -2.2559e-06)
(-5.9275e-05 -1.4543e-06 -2.9052e-06)
(-6.1749e-05 -1.8383e-06 -3.6724e-06)
(-6.3923e-05 -2.2916e-06 -4.5782e-06)
(-6.5767e-05 -2.8242e-06 -5.6427e-06)
(-6.7249e-05 -3.4488e-06 -6.8912e-06)
(-6.8338e-05 -4.1804e-06 -8.3538e-06)
(-6.9006e-05 -5.0327e-06 -1.0058e-05)
(-6.923e-05 -6.0128e-06 -1.2018e-05)
(-6.8991e-05 -7.1189e-06 -1.423e-05)
(-6.8271e-05 -8.3402e-06 -1.6672e-05)
(-6.7054e-05 -9.6587e-06 -1.931e-05)
(-6.5331e-05 -1.1051e-05 -2.2094e-05)
(-5.6469e-05 -5.8465e-07 -1.7515e-06)
(-5.9218e-05 -7.5298e-07 -2.2557e-06)
(-6.1688e-05 -9.5157e-07 -2.8507e-06)
(-6.3856e-05 -1.1859e-06 -3.5528e-06)
(-6.5693e-05 -1.4612e-06 -4.378e-06)
(-6.7169e-05 -1.7842e-06 -5.3458e-06)
(-6.8252e-05 -2.1622e-06 -6.479e-06)
(-6.8915e-05 -2.6023e-06 -7.7979e-06)
(-6.9135e-05 -3.1077e-06 -9.3132e-06)
(-6.8892e-05 -3.6777e-06 -1.1022e-05)
(-6.8168e-05 -4.3069e-06 -1.2908e-05)
(-6.695e-05 -4.9859e-06 -1.4944e-05)
(-6.5227e-05 -5.7028e-06 -1.7093e-05)
(-5.6436e-05 7.8852e-10 -1.1984e-06)
(-5.9183e-05 9.6015e-10 -1.5434e-06)
(-6.165e-05 1.1732e-09 -1.9502e-06)
(-6.3814e-05 1.4315e-09 -2.4301e-06)
(-6.5648e-05 1.7383e-09 -2.9943e-06)
(-6.7119e-05 2.0976e-09 -3.656e-06)
(-6.8199e-05 2.5138e-09 -4.4305e-06)
(-6.8858e-05 2.992e-09 -5.3314e-06)
(-6.9076e-05 3.536e-09 -6.3658e-06)
(-6.883e-05 4.1437e-09 -7.5318e-06)
(-6.8105e-05 4.8026e-09 -8.8185e-06)
(-6.6885e-05 5.494e-09 -1.0207e-05)
(-6.5163e-05 6.201e-09 -1.1673e-05)
(-5.6425e-05 6.0665e-07 -6.0577e-07)
(-5.9171e-05 7.8121e-07 -7.8021e-07)
(-6.1637e-05 9.8699e-07 -9.8588e-07)
(-6.38e-05 1.2297e-06 -1.2285e-06)
(-6.5632e-05 1.515e-06 -1.5137e-06)
(-6.7102e-05 1.8497e-06 -1.8482e-06)
(-6.8181e-05 2.2413e-06 -2.2397e-06)
(-6.8839e-05 2.6968e-06 -2.695e-06)
(-6.9056e-05 3.2196e-06 -3.2176e-06)
(-6.881e-05 3.8089e-06 -3.8067e-06)
(-6.8084e-05 4.4592e-06 -4.4566e-06)
(-6.6863e-05 5.1609e-06 -5.1579e-06)
(-6.5141e-05 5.9017e-06 -5.8983e-06)
(-5.6436e-05 1.1992e-06 1.0142e-09)
(-5.9183e-05 1.5442e-06 1.2146e-09)
(-6.165e-05 1.9512e-06 1.4173e-09)
(-6.3814e-05 2.4312e-06 1.6282e-09)
(-6.5648e-05 2.9954e-06 1.8583e-09)
(-6.7119e-05 3.6572e-06 2.1234e-09)
(-6.8199e-05 4.4318e-06 2.4415e-09)
(-6.8859e-05 5.3328e-06 2.8289e-09)
(-6.9076e-05 6.3674e-06 3.2987e-09)
(-6.883e-05 7.5336e-06 3.8588e-09)
(-6.8105e-05 8.8205e-06 4.5063e-09)
(-6.6885e-05 1.0209e-05 5.2281e-09)
(-6.5163e-05 1.1676e-05 6.0039e-09)
(-5.6469e-05 1.7527e-06 5.8643e-07)
(-5.9218e-05 2.2572e-06 7.5512e-07)
(-6.1688e-05 2.8524e-06 9.5412e-07)
(-6.3856e-05 3.5547e-06 1.1889e-06)
(-6.5693e-05 4.3802e-06 1.4648e-06)
(-6.7169e-05 5.3483e-06 1.7883e-06)
(-6.8252e-05 6.4819e-06 2.1671e-06)
(-6.8915e-05 7.8013e-06 2.608e-06)
(-6.9135e-05 9.3172e-06 3.1144e-06)
(-6.8892e-05 1.1027e-05 3.6856e-06)
(-6.8168e-05 1.2913e-05 4.316e-06)
(-6.695e-05 1.495e-05 4.9964e-06)
(-6.5227e-05 1.71e-05 5.7147e-06)
(-5.6522e-05 2.2569e-06 1.1298e-06)
(-5.9275e-05 2.9065e-06 1.4548e-06)
(-6.1749e-05 3.6739e-06 1.8388e-06)
(-6.3923e-05 4.5799e-06 2.292e-06)
(-6.5767e-05 5.6447e-06 2.8246e-06)
(-6.7249e-05 6.8933e-06 3.4491e-06)
(-6.8338e-05 8.3563e-06 4.1806e-06)
(-6.9006e-05 1.0061e-05 5.0328e-06)
(-6.923e-05 1.2021e-05 6.0128e-06)
(-6.8991e-05 1.4233e-05 7.1187e-06)
(-6.8271e-05 1.6677e-05 8.3399e-06)
(-6.7054e-05 1.9315e-05 9.6583e-06)
(-6.5331e-05 2.21e-05 1.105e-05)
(-5.6628e-05 2.925e-06 1.7404e-06)
(-5.9388e-05 3.7667e-06 2.2412e-06)
(-6.1871e-05 4.7639e-06 2.8343e-06)
(-6.4056e-05 5.9422e-06 3.5349e-06)
(-6.5914e-05 7.3263e-06 4.3576e-06)
(-6.7409e-05 8.949e-06 5.322e-06)
(-6.8509e-05 1.0852e-05 6.4527e-06)
(-6.9186e-05 1.3074e-05 7.7723e-06)
(-6.9419e-05 1.5634e-05 9.2926e-06)
(-6.9188e-05 1.8527e-05 1.101e-05)
(-6.8474e-05 2.1725e-05 1.2908e-05)
(-6.7262e-05 2.5179e-05 1.4958e-05)
(-6.5537e-05 2.8827e-05 1.7122e-05)
(-5.6659e-05 -1.1107e-06 -3.439e-06)
(-5.9421e-05 -1.4304e-06 -4.4288e-06)
(-6.1907e-05 -1.8093e-06 -5.6027e-06)
(-6.4095e-05 -2.257e-06 -6.9904e-06)
(-6.5957e-05 -2.7827e-06 -8.6203e-06)
(-6.7456e-05 -3.3989e-06 -1.0531e-05)
(-6.8559e-05 -4.1215e-06 -1.2773e-05)
(-6.9239e-05 -4.9652e-06 -1.5393e-05)
(-6.9474e-05 -5.9377e-06 -1.8415e-05)
(-6.9245e-05 -7.0372e-06 -2.1832e-05)
(-6.8533e-05 -8.2523e-06 -2.561e-05)
(-6.7322e-05 -9.5642e-06 -2.9692e-05)
(-6.5598e-05 -1.0949e-05 -3.4004e-05)
(-5.6553e-05 -5.5447e-07 -2.7714e-06)
(-5.9308e-05 -7.1413e-07 -3.5691e-06)
(-6.1784e-05 -9.0286e-07 -4.5124e-06)
(-6.3961e-05 -1.1257e-06 -5.6264e-06)
(-6.5809e-05 -1.3874e-06 -6.9356e-06)
(-6.7295e-05 -1.6944e-06 -8.471e-06)
(-6.8387e-05 -2.054e-06 -1.0271e-05)
(-6.9058e-05 -2.4732e-06 -1.2369e-05)
(-6.9284e-05 -2.9555e-06 -1.4783e-05)
(-6.9048e-05 -3.5e-06 -1.7509e-05)
(-6.8329e-05 -4.1013e-06 -2.0521e-05)
(-6.7114e-05 -4.7506e-06 -2.3773e-05)
(-6.539e-05 -5.4362e-06 -2.7208e-05)
(-5.6501e-05 1.5335e-09 -2.2864e-06)
(-5.9252e-05 1.911e-09 -2.9445e-06)
(-6.1725e-05 2.3663e-09 -3.7217e-06)
(-6.3896e-05 2.9105e-09 -4.6391e-06)
(-6.5737e-05 3.5552e-09 -5.7174e-06)
(-6.7217e-05 4.3145e-09 -6.982e-06)
(-6.8303e-05 5.2012e-09 -8.4632e-06)
(-6.8969e-05 6.225e-09 -1.0188e-05)
(-6.9192e-05 7.3958e-09 -1.2171e-05)
(-6.8951e-05 8.7138e-09 -1.4409e-05)
(-6.823e-05 1.0158e-08 -1.6879e-05)
(-6.7012e-05 1.1695e-08 -1.9546e-05)
(-6.5289e-05 1.3297e-08 -2.2362e-05)
(-5.6469e-05 5.8621e-07 -1.7521e-06)
(-5.9218e-05 7.5487e-07 -2.2565e-06)
(-6.1688e-05 9.5388e-07 -2.8517e-06)
(-6.3856e-05 1.1887e-06 -3.554e-06)
(-6.5693e-05 1.4647e-06 -4.3795e-06)
(-6.7169e-05 1.7883e-06 -5.3477e-06)
(-6.8252e-05 2.1672e-06 -6.4813e-06)
(-6.8915e-05 2.6081e-06 -7.8007e-06)
(-6.9135e-05 3.1146e-06 -9.3165e-06)
(-6.8892e-05 3.6858e-06 -1.1026e-05)
(-6.8168e-05 4.3162e-06 -1.2913e-05)
(-6.695e-05 4.9966e-06 -1.4949e-05)
(-6.5227e-05 5.7149e-06 -1.7099e-05)
(-5.6458e-05 1.1786e-06 -1.1786e-06)
(-5.9207e-05 1.5178e-06 -1.5179e-06)
(-6.1675e-05 1.9179e-06 -1.9182e-06)
(-6.3842e-05 2.39e-06 -2.3905e-06)
(-6.5678e-05 2.9448e-06 -2.9457e-06)
(-6.7153e-05 3.5955e-06 -3.5967e-06)
(-6.8234e-05 4.3573e-06 -4.3589e-06)
(-6.8896e-05 5.2437e-06 -5.2458e-06)
(-6.9115e-05 6.2619e-06 -6.2645e-06)
(-6.8872e-05 7.4098e-06 -7.4131e-06)
(-6.8148e-05 8.6768e-06 -8.6807e-06)
(-6.6928e-05 1.0044e-05 -1.0049e-05)
(-6.5206e-05 1.1488e-05 -1.1493e-05)
(-5.6469e-05 1.7522e-06 -5.8466e-07)
(-5.9218e-05 2.2564e-06 -7.5303e-07)
(-6.1688e-05 2.8514e-06 -9.5171e-07)
(-6.3856e-05 3.5535e-06 -1.1862e-06)
(-6.5693e-05 4.3787e-06 -1.4617e-06)
(-6.7169e-05 5.3466e-06 -1.7849e-06)
(-6.8252e-05 6.4798e-06 -2.1632e-06)
(-6.8915e-05 7.7987e-06 -2.6035e-06)
(-6.9135e-05 9.3141e-06 -3.1092e-06)
(-6.8892e-05 1.1023e-05 -3.6795e-06)
(-6.8168e-05 1.2909e-05 -4.3089e-06)
(-6.695e-05 1.4945e-05 -4.9882e-06)
(-6.5227e-05 1.7095e-05 -5.7053e-06)
(-5.6501e-05 2.2869e-06 1.6398e-09)
(-5.9252e-05 2.9451e-06 2.0184e-09)
(-6.1725e-05 3.7223e-06 2.4333e-09)
(-6.3896e-05 4.6397e-06 2.8961e-09)
(-6.5738e-05 5.718e-06 3.4233e-09)
(-6.7217e-05 6.9825e-06 4.0365e-09)
(-6.8303e-05 8.4637e-06 4.7585e-09)
(-6.8969e-05 1.0189e-05 5.6116e-09)
(-6.9192e-05 1.2172e-05 6.6156e-09)
(-6.8951e-05 1.4409e-05 7.7796e-09)
(-6.823e-05 1.688e-05 9.093e-09)
(-6.7012e-05 1.9547e-05 1.053e-08)
(-6.5289e-05 2.2362e-05 1.2061e-08)
(-5.6553e-05 2.772e-06 5.5682e-07)