/*--------------------------------*- C++ -*----------------------------------*\
| =========                 |                                                 |
| \\      /  F ield         | OpenFOAM: The Open Source CFD Toolbox           |
|  \\    /   O peration     | Version:  4.1                                   |
|   \\  /    A nd           | Web:      www.OpenFOAM.org                      |
|    \\/     M anipulation  |                                                 |
\*---------------------------------------------------------------------------*/
FoamFile
{
    version     2.0;
    format      ascii;
    class       surfaceScalarField;
    location    "0.0043";
    object      phi;
}
// * * * * * * * * * * * * * * * * * * * * * * * * * * * * * * * * * * * * * //

dimensions      [0 3 -1 0 0 0 0];

internalField   nonuniform List<scalar> 
4288
(
-4.4824e-08
-7.4213e-10
-7.463e-10
1.1285e-09
1.124e-09
-4.1925e-08
-1.089e-09
-1.0942e-09
1.6197e-09
1.6153e-09
-3.8416e-08
-1.3994e-09
-1.4058e-09
2.0654e-09
2.0617e-09
-3.4167e-08
-1.6573e-09
-1.6648e-09
2.4603e-09
2.4555e-09
-2.9039e-08
-1.8239e-09
-1.8322e-09
2.763e-09
2.7584e-09
-2.3081e-08
-1.8606e-09
-1.8689e-09
2.8938e-09
2.8886e-09
-1.6747e-08
-1.6936e-09
-1.7017e-09
2.7932e-09
2.7882e-09
-1.0584e-08
-1.3704e-09
-1.3781e-09
2.442e-09
2.4367e-09
-5.1567e-09
-9.6301e-10
-9.6999e-10
1.9288e-09
1.923e-09
-8.9721e-10
-6.3018e-10
-6.357e-10
1.423e-09
1.418e-09
1.68e-09
-7.812e-10
-7.8482e-10
1.4501e-09
1.4471e-09
-9.8391e-10
-9.8523e-10
1.3288e-09
1.3272e-09
-4.4667e-08
-9.8025e-10
-1.0533e-09
2.2713e-09
-4.1775e-08
-1.3079e-09
-1.5753e-09
3.1587e-09
-3.8235e-08
-1.5981e-09
-2.0408e-09
3.9549e-09
-3.395e-08
-1.8498e-09
-2.44e-09
4.6873e-09
-2.8826e-08
-2.0391e-09
-2.7542e-09
5.3484e-09
-2.2961e-08
-2.1156e-09
-2.9765e-09
5.8591e-09
-1.674e-08
-2.0726e-09
-2.9823e-09
6.1018e-09
-1.0699e-08
-1.8623e-09
-2.8149e-09
5.9608e-09
-5.3683e-09
-1.5279e-09
-2.464e-09
5.3959e-09
-1.1856e-09
-1.1592e-09
-1.9826e-09
4.4356e-09
1.3937e-09
-1.0062e-09
-1.6875e-09
3.4057e-09
-7.9329e-10
-1.193e-09
1.9024e-09
-4.4577e-08
-5.2926e-10
-1.4518e-09
2.1569e-09
-4.1692e-08
-6.9125e-10
-2.039e-09
3.0373e-09
-3.8137e-08
-8.3425e-10
-2.5632e-09
3.8323e-09
-3.3835e-08
-9.5757e-10
-3.0173e-09
4.5526e-09
-2.871e-08
-1.0395e-09
-3.3965e-09
5.183e-09
-2.2889e-08
-1.0791e-09
-3.6102e-09
5.6418e-09
-1.6743e-08
-1.0376e-09
-3.6794e-09
5.8305e-09
-1.0784e-08
-9.1943e-10
-3.5318e-09
5.6649e-09
-5.5425e-09
-7.439e-10
-3.1389e-09
5.1061e-09
-1.4402e-09
-5.605e-10
-2.5504e-09
4.1855e-09
1.1092e-09
-5.0231e-10
-2.0797e-09
3.2403e-09
-3.817e-10
-1.2841e-09
1.8924e-09
-4.4536e-08
-6.5666e-13
-1.4701e-09
2.1852e-09
-4.1652e-08
-7.062e-13
-2.1087e-09
3.1614e-09
-3.8088e-08
-6.092e-13
-2.6807e-09
4.0438e-09
-3.3777e-08
-3.6033e-13
-3.1782e-09
4.8413e-09
-2.8658e-08
-1.0711e-14
-3.583e-09
5.5461e-09
-2.286e-08
2.5168e-13
-3.8634e-09
6.078e-09
-1.6743e-08
5.924e-13
-3.9704e-09
6.3369e-09
-1.0823e-08
9.1629e-13
-3.8524e-09
6.2177e-09
-5.6139e-09
9.8127e-13
-3.4672e-09
5.6543e-09
-1.5453e-09
7.9108e-13
-2.8413e-09
4.662e-09
9.3727e-10
4.5981e-13
-2.2671e-09
3.5665e-09
2.5629e-13
-1.3429e-09
1.9826e-09
-4.4536e-08
5.2769e-10
-1.4698e-09
2.1853e-09
-4.1652e-08
6.8995e-10
-2.1084e-09
3.161e-09
-3.8088e-08
8.3359e-10
-2.6804e-09
4.0432e-09
-3.3777e-08
9.5755e-10
-3.178e-09
4.8404e-09
-2.8658e-08
1.0398e-09
-3.5827e-09
5.5456e-09
-2.286e-08
1.0795e-09
-3.8632e-09
6.078e-09
-1.6743e-08
1.0384e-09
-3.9705e-09
6.3374e-09
-1.0823e-08
9.2079e-10
-3.8526e-09
6.2184e-09
-5.6139e-09
7.454e-10
-3.4675e-09
5.6551e-09
-1.5454e-09
5.6172e-10
-2.8416e-09
4.6628e-09
9.3709e-10
5.0297e-10
-2.2672e-09
3.567e-09
3.8211e-10
-1.343e-09
1.9827e-09
-4.4577e-08
9.7938e-10
-1.4514e-09
2.1561e-09
-4.1692e-08
1.3072e-09
-2.0384e-09
3.0363e-09
-3.8137e-08
1.598e-09
-2.5623e-09
3.831e-09
-3.3835e-08
1.8501e-09
-3.0162e-09
4.5514e-09
-2.871e-08
2.0403e-09
-3.3959e-09
5.1819e-09
-2.2889e-08
2.1161e-09
-3.6097e-09
5.6413e-09
-1.6743e-08
2.0732e-09
-3.6793e-09
5.8307e-09
-1.0785e-08
1.8632e-09
-3.5319e-09
5.6657e-09
-5.5428e-09
1.529e-09
-3.1391e-09
5.107e-09
-1.4404e-09
1.1602e-09
-2.5507e-09
4.186e-09
1.1089e-09
1.0068e-09
-2.0799e-09
3.2407e-09
7.9365e-10
-1.2842e-09
1.8924e-09
-4.4666e-08
7.4139e-10
-1.052e-09
2.2698e-09
-4.1775e-08
1.0888e-09
-1.5741e-09
3.1573e-09
-3.8235e-08
1.4001e-09
-2.0399e-09
3.9536e-09
-3.395e-08
1.6583e-09
-2.4392e-09
4.6864e-09
-2.8826e-08
1.8254e-09
-2.7534e-09
5.3476e-09
-2.2961e-08
1.8616e-09
-2.976e-09
5.8584e-09
-1.674e-08
1.6946e-09
-2.9819e-09
6.1012e-09
-1.0699e-08
1.3717e-09
-2.8148e-09
5.9609e-09
-5.3685e-09
9.6446e-10
-2.4642e-09
5.3961e-09
-1.1858e-09
6.3164e-10
-1.9828e-09
4.4355e-09
1.3931e-09
7.8236e-10
-1.6875e-09
3.4056e-09
9.8426e-10
-1.1931e-09
1.902e-09
-4.4824e-08
-7.4528e-10
1.1273e-09
1.124e-09
-4.1925e-08
-1.0934e-09
1.6187e-09
1.6155e-09
-3.8416e-08
-1.4053e-09
2.0651e-09
2.0627e-09
-3.4167e-08
-1.6645e-09
2.4598e-09
2.4571e-09
-2.9039e-08
-1.832e-09
2.7626e-09
2.7606e-09
-2.3081e-08
-1.8686e-09
2.8928e-09
2.8905e-09
-1.6747e-08
-1.7015e-09
2.792e-09
2.7903e-09
-1.0585e-08
-1.3776e-09
2.4403e-09
2.4396e-09
-5.1568e-09
-9.6953e-10
1.9265e-09
1.9264e-09
-8.9751e-10
-6.356e-10
1.4208e-09
1.4218e-09
1.6795e-09
-7.849e-10
1.4489e-09
1.4497e-09
-9.8517e-10
1.3279e-09
1.3283e-09
-4.4668e-08
-1.0489e-09
-9.8255e-10
2.2685e-09
-4.1777e-08
-1.5694e-09
-1.3111e-09
3.1559e-09
-3.8236e-08
-2.0335e-09
-1.6022e-09
3.9516e-09
-3.3951e-08
-2.4313e-09
-1.8546e-09
4.6834e-09
-2.8827e-08
-2.7446e-09
-2.0447e-09
5.3441e-09
-2.2961e-08
-2.9668e-09
-2.1207e-09
5.8548e-09
-1.674e-08
-2.9724e-09
-2.0776e-09
6.0975e-09
-1.0699e-08
-2.8056e-09
-1.8667e-09
5.9567e-09
-5.3683e-09
-2.4557e-09
-1.5317e-09
5.3919e-09
-1.1854e-09
-1.9759e-09
-1.1619e-09
4.4317e-09
1.3938e-09
-1.6831e-09
-1.0078e-09
3.403e-09
-1.1914e-09
-7.939e-10
1.9014e-09
-4.4311e-08
-7.0425e-10
-7.0847e-10
-4.1446e-08
-1.0721e-09
-1.0779e-09
-3.7903e-08
-1.3999e-09
-1.4072e-09
-3.3615e-08
-1.6791e-09
-1.6876e-09
-2.8532e-08
-1.8927e-09
-1.902e-09
-2.2773e-08
-2.0473e-09
-2.0572e-09
-1.6685e-08
-2.037e-09
-2.0468e-09
-1.0782e-08
-1.9046e-09
-1.9138e-09
-5.5633e-09
-1.6522e-09
-1.6602e-09
-1.4459e-09
-1.3208e-09
-1.3272e-09
1.1225e-09
-1.1505e-09
-1.1546e-09
-7.7711e-10
-7.7856e-10
-4.42e-08
-3.8194e-10
-9.8585e-10
-4.1345e-08
-5.6785e-10
-1.4099e-09
-3.7794e-08
-7.3262e-10
-1.7877e-09
-3.3497e-08
-8.7351e-10
-2.1132e-09
-2.8429e-08
-9.8772e-10
-2.3694e-09
-2.2714e-08
-1.0423e-09
-2.5379e-09
-1.6702e-08
-1.0294e-09
-2.5686e-09
-1.0882e-08
-9.5088e-10
-2.4478e-09
-5.7407e-09
-8.0837e-10
-2.1655e-09
-1.6952e-09
-6.357e-10
-1.7509e-09
7.3048e-10
-5.4897e-10
-1.4128e-09
-3.8664e-10
-8.9011e-10
-4.4145e-08
-3.4717e-13
-1.0102e-09
-4.1293e-08
-2.6513e-13
-1.4661e-09
-3.7736e-08
-1.3352e-13
-1.8731e-09
-3.3436e-08
-2.5345e-14
-2.2264e-09
-2.8379e-08
1.067e-13
-2.5069e-09
-2.2686e-08
2.55e-13
-2.6972e-09
-1.6705e-08
4.7528e-13
-2.7516e-09
-1.0923e-08
6.7068e-13
-2.6424e-09
-5.8144e-09
7.6159e-13
-2.3523e-09
-1.7975e-09
7.1041e-13
-1.9078e-09
6.1804e-10
3.999e-13
-1.5042e-09
1.8122e-13
-9.1193e-10
-4.4145e-08
3.812e-10
-1.0099e-09
-4.1293e-08
5.6735e-10
-1.4657e-09
-3.7736e-08
7.3249e-10
-1.8729e-09
-3.3436e-08
8.736e-10
-2.2262e-09
-2.8379e-08
9.8794e-10
-2.5067e-09
-2.2686e-08
1.0429e-09
-2.697e-09
-1.6705e-08
1.0302e-09
-2.7515e-09
-1.0923e-08
9.5219e-10
-2.6425e-09
-5.8145e-09
8.0979e-10
-2.3524e-09
-1.7976e-09
6.3701e-10
-1.9079e-09
6.18e-10
5.497e-10
-1.5043e-09
3.8699e-10
-9.1197e-10
-4.42e-08
7.0335e-10
-9.8523e-10
-4.1345e-08
1.0717e-09
-1.4092e-09
-3.7794e-08
1.4e-09
-1.7868e-09
-3.3497e-08
1.6795e-09
-2.1124e-09
-2.8429e-08
1.8933e-09
-2.3688e-09
-2.2714e-08
2.0481e-09
-2.5375e-09
-1.6702e-08
2.0379e-09
-2.5683e-09
-1.0882e-08
1.9059e-09
-2.4477e-09
-5.7408e-09
1.6536e-09
-2.1656e-09
-1.6954e-09
1.3222e-09
-1.7511e-09
7.3039e-10
1.1513e-09
-1.413e-09
7.7751e-10
-8.9018e-10
-4.4311e-08
1.0481e-09
-7.072e-10
-4.1446e-08
1.5692e-09
-1.0768e-09
-3.7902e-08
2.0339e-09
-1.4062e-09
-3.3615e-08
2.4321e-09
-1.6868e-09
-2.8532e-08
2.7457e-09
-1.9014e-09
-2.2773e-08
2.9675e-09
-2.0565e-09
-1.6685e-08
2.974e-09
-2.0464e-09
-1.0782e-08
2.8072e-09
-1.9137e-09
-5.5635e-09
2.4576e-09
-1.6605e-09
-1.4461e-09
1.9777e-09
-1.3275e-09
1.1222e-09
1.6842e-09
-1.1547e-09
1.1918e-09
-7.7869e-10
-4.4668e-08
-9.8139e-10
2.2676e-09
-4.1776e-08
-1.3099e-09
3.1558e-09
-3.8236e-08
-1.6015e-09
3.9523e-09
-3.3951e-08
-1.8543e-09
4.6845e-09
-2.8827e-08
-2.0444e-09
5.3454e-09
-2.2961e-08
-2.1207e-09
5.8561e-09
-1.674e-08
-2.0777e-09
6.0993e-09
-1.0699e-08
-1.8672e-09
5.9596e-09
-5.3684e-09
-1.5325e-09
5.3951e-09
-1.1858e-09
-1.1632e-09
4.4352e-09
1.393e-09
-1.0089e-09
3.4056e-09
-7.9448e-10
1.902e-09
-4.4579e-08
-1.4489e-09
-5.2966e-10
2.1561e-09
-4.1694e-08
-2.0353e-09
-6.9194e-10
3.037e-09
-3.8139e-08
-2.5586e-09
-8.3498e-10
3.8317e-09
-3.3836e-08
-3.0117e-09
-9.5849e-10
4.5519e-09
-2.8711e-08
-3.3908e-09
-1.0404e-09
5.1823e-09
-2.289e-08
-3.6042e-09
-1.0797e-09
5.6415e-09
-1.6743e-08
-3.6735e-09
-1.0381e-09
5.8303e-09
-1.0784e-08
-3.5261e-09
-9.198e-10
5.6647e-09
-5.5423e-09
-3.1339e-09
-7.4415e-10
5.1059e-09
-1.44e-09
-2.5464e-09
-5.6042e-10
4.1853e-09
1.1094e-09
-2.0774e-09
-5.0212e-10
3.2404e-09
-1.2834e-09
-3.8179e-10
1.8927e-09
-4.4202e-08
-9.8121e-10
-3.8339e-10
-4.1347e-08
-1.4037e-09
-5.698e-10
-3.7795e-08
-1.7799e-09
-7.3504e-10
-3.3498e-08
-2.1041e-09
-8.7624e-10
-2.843e-08
-2.3593e-09
-9.9052e-10
-2.2715e-08
-2.5274e-09
-1.0453e-09
-1.6702e-08
-2.5579e-09
-1.0324e-09
-1.0882e-08
-2.4376e-09
-9.5361e-10
-5.7406e-09
-2.1564e-09
-8.1073e-10
-1.6951e-09
-1.7438e-09
-6.3759e-10
7.3048e-10
-1.4085e-09
-5.5015e-10
-8.8859e-10
-3.8712e-10
-4.4112e-08
-5.2609e-10
-5.2878e-10
-4.1265e-08
-7.4806e-10
-7.5211e-10
-3.7704e-08
-9.4568e-10
-9.5016e-10
-3.3402e-08
-1.1145e-09
-1.1199e-09
-2.8338e-08
-1.249e-09
-1.2549e-09
-2.2669e-08
-1.3308e-09
-1.3371e-09
-1.6728e-08
-1.3382e-09
-1.3445e-09
-1.0982e-08
-1.2684e-09
-1.2744e-09
-5.906e-09
-1.1163e-09
-1.1216e-09
-1.914e-09
-8.9884e-10
-9.0304e-10
4.8964e-10
-7.1763e-10
-7.2017e-10
-4.5799e-10
-4.5893e-10
-4.407e-08
-5.752e-14
-5.4839e-10
-4.1225e-08
1.1711e-13
-7.9079e-10
-3.7658e-08
2.0895e-13
-1.0067e-09
-3.3351e-08
3.8272e-13
-1.1931e-09
-2.8298e-08
5.0847e-13
-1.3417e-09
-2.265e-08
6.249e-13
-1.4365e-09
-1.6738e-08
7.3406e-13
-1.4558e-09
-1.1023e-08
8.4227e-13
-1.3906e-09
-5.9748e-09
8.5471e-13
-1.2314e-09
-2.0065e-09
6.9755e-13
-9.9367e-10
3.8553e-10
4.118e-13
-7.6828e-10
1.776e-13
-4.7511e-10
-4.407e-08
5.2619e-10
-5.4823e-10
-4.1225e-08
7.4853e-10
-7.9059e-10
-3.7658e-08
9.4593e-10
-1.0064e-09
-3.335e-08
1.1154e-09
-1.1929e-09
-2.8298e-08
1.25e-09
-1.3414e-09
-2.265e-08
1.3322e-09
-1.4363e-09
-1.6738e-08
1.3397e-09
-1.4556e-09
-1.1023e-08
1.2701e-09
-1.3906e-09
-5.9747e-09
1.118e-09
-1.2314e-09
-2.0066e-09
9.0027e-10
-9.9372e-10
3.855e-10
7.1845e-10
-7.6831e-10
4.5835e-10
-4.7515e-10
-4.4112e-08
9.8116e-10
-5.2793e-10
-4.1264e-08
1.404e-09
-7.511e-10
-3.7703e-08
1.7804e-09
-9.493e-10
-3.3401e-08
2.1049e-09
-1.119e-09
-2.8338e-08
2.3604e-09
-1.254e-09
-2.2669e-08
2.5286e-09
-1.3363e-09
-1.6728e-08
2.5593e-09
-1.3439e-09
-1.0982e-08
2.4391e-09
-1.274e-09
-5.9061e-09
2.1581e-09
-1.1215e-09
-1.9141e-09
1.7452e-09
-9.0305e-10
4.8958e-10
1.4093e-09
-7.2023e-10
8.8895e-10
-4.5896e-10
-4.4202e-08
1.4487e-09
-3.8185e-10
-4.1347e-08
2.0353e-09
-5.6816e-10
-3.7795e-08
2.5588e-09
-7.334e-10
-3.3498e-08
3.0121e-09
-8.7459e-10
-2.843e-08
3.3911e-09
-9.8904e-10
-2.2715e-08
3.6048e-09
-1.0438e-09
-1.6702e-08
3.6745e-09
-1.0312e-09
-1.0882e-08
3.5275e-09
-9.5298e-10
-5.7407e-09
3.1351e-09
-8.1035e-10
-1.6953e-09
2.5476e-09
-6.3745e-10
7.3036e-10
2.0781e-09
-5.5e-10
1.2837e-09
-3.8709e-10
-4.4579e-08
-5.2774e-10
2.1557e-09
-4.1694e-08
-6.8988e-10
3.0365e-09
-3.8138e-08
-8.3327e-10
3.8313e-09
-3.3836e-08
-9.5683e-10
4.5512e-09
-2.8711e-08
-1.0389e-09
5.1815e-09
-2.2889e-08
-1.0788e-09
5.6413e-09
-1.6743e-08
-1.0377e-09
5.8311e-09
-1.0784e-08
-9.2013e-10
5.6663e-09
-5.5425e-09
-7.4497e-10
5.1077e-09
-1.4402e-09
-5.6143e-10
4.1865e-09
1.1089e-09
-5.0288e-10
3.2411e-09
-3.8208e-10
1.8926e-09
-4.4537e-08
-1.4686e-09
-1.25e-12
2.1853e-09
-4.1653e-08
-2.1067e-09
-1.4271e-12
3.1615e-09
-3.8089e-08
-2.6782e-09
-1.2341e-12
4.0439e-09
-3.3778e-08
-3.1753e-09
-1.0631e-12
4.8413e-09
-2.8658e-08
-3.5801e-09
-8.4113e-13
5.5462e-09
-2.286e-08
-3.8603e-09
-5.5197e-13
6.0786e-09
-1.6743e-08
-3.9676e-09
-3.2441e-13
6.3378e-09
-1.0823e-08
-3.8498e-09
-4.0906e-14
6.2187e-09
-5.6136e-09
-3.465e-09
1.8367e-14
5.6553e-09
-1.5451e-09
-2.8396e-09
8.0564e-14
4.6631e-09
9.3749e-10
-2.2661e-09
-2.0332e-14
3.5674e-09
-1.3425e-09
5.2175e-14
1.9829e-09
-4.4146e-08
-1.0069e-09
-1.065e-12
-4.1294e-08
-1.4615e-09
-1.0835e-12
-3.7737e-08
-1.8675e-09
-1.0618e-12
-3.3437e-08
-2.2198e-09
-1.0534e-12
-2.838e-08
-2.4996e-09
-9.9587e-13
-2.2686e-08
-2.6896e-09
-9.0855e-13
-1.6706e-08
-2.744e-09
-7.0652e-13
-1.0923e-08
-2.6351e-09
-5.5665e-13
-5.8144e-09
-2.3459e-09
-3.6561e-13
-1.7975e-09
-1.9028e-09
-2.0736e-13
6.1798e-10
-1.5011e-09
-1.7398e-13
-9.1082e-10
-5.4369e-14
-4.4071e-08
-5.4562e-10
-9.0394e-13
-4.1225e-08
-7.8711e-10
-1.0424e-12
-3.7658e-08
-1.002e-09
-1.1016e-12
-3.3351e-08
-1.1876e-09
-1.1093e-12
-2.8298e-08
-1.3356e-09
-1.1288e-12
-2.2651e-08
-1.4301e-09
-1.0796e-12
-1.6738e-08
-1.4493e-09
-1.0157e-12
-1.1023e-08
-1.3844e-09
-8.7297e-13
-5.9748e-09
-1.2259e-09
-7.0148e-13
-2.0067e-09
-9.8934e-10
-5.2425e-13
3.8534e-10
-7.6564e-10
-3.5676e-13
-4.7422e-10
-1.2512e-13
-4.4042e-08
2.2222e-13
-8.8021e-13
-4.1197e-08
3.58e-13
-1.1026e-12
-3.7623e-08
4.8118e-13
-1.2238e-12
-3.331e-08
6.2296e-13
-1.3746e-12
-2.8265e-08
7.3772e-13
-1.4377e-12
-2.2637e-08
7.903e-13
-1.4989e-12
-1.675e-08
8.6607e-13
-1.4866e-12
-1.1064e-08
9.195e-13
-1.3751e-12
-6.0417e-09
8.5781e-13
-1.2067e-12
-2.0944e-09
6.8682e-13
-9.272e-13
3.0868e-10
3.9624e-13
-6.0075e-13
1.4576e-13
-2.0568e-13
-4.4042e-08
5.4615e-10
-7.8384e-13
-4.1197e-08
7.8796e-10
-1.0112e-12
-3.7623e-08
1.0033e-09
-1.2121e-12
-3.331e-08
1.1892e-09
-1.3845e-12
-2.8265e-08
1.3374e-09
-1.5078e-12
-2.2637e-08
1.4321e-09
-1.5761e-12
-1.675e-08
1.4514e-09
-1.618e-12
-1.1064e-08
1.3866e-09
-1.5985e-12
-6.0417e-09
1.2279e-09
-1.4593e-12
-2.0944e-09
9.9096e-10
-1.1891e-12
3.0876e-10
7.6657e-10
-7.8624e-13
4.7463e-10
-2.8492e-13
-4.4071e-08
1.0074e-09
5.4628e-14
-4.1225e-08
1.4624e-09
-7.8912e-15
-3.7658e-08
1.8687e-09
8.4988e-15
-3.3351e-08
2.2213e-09
8.4772e-15
-2.8298e-08
2.5014e-09
3.7841e-14
-2.2651e-08
2.6914e-09
-2.694e-14
-1.6738e-08
2.7459e-09
-1.1387e-13
-1.1023e-08
2.6372e-09
-1.7317e-13
-5.9748e-09
2.3478e-09
-2.8858e-13
-2.0067e-09
1.9042e-09
-2.8397e-13
3.854e-10
1.5019e-09
-2.3908e-13
9.1124e-10
-1.1541e-13
-4.4147e-08
1.4686e-09
1.0442e-12
-4.1294e-08
2.1069e-09
1.3505e-12
-3.7737e-08
2.6785e-09
1.6747e-12
-3.3437e-08
3.1758e-09
1.9773e-12
-2.838e-08
3.5803e-09
2.1408e-12
-2.2686e-08
3.8608e-09
2.2984e-12
-1.6706e-08
3.9681e-09
2.1225e-12
-1.0923e-08
3.8505e-09
1.8264e-12
-5.8143e-09
3.4658e-09
1.4438e-12
-1.7975e-09
2.8402e-09
1.0449e-12
6.1796e-10
2.2664e-09
6.5049e-13
1.3427e-09
2.5827e-13
-4.4537e-08
1.0765e-12
2.1852e-09
-4.1652e-08
1.3934e-12
3.1613e-09
-3.8089e-08
1.5821e-12
4.0434e-09
-3.3778e-08
1.7362e-12
4.8406e-09
-2.8658e-08
2.0036e-12
5.5457e-09
-2.286e-08
1.7285e-12
6.0778e-09
-1.6742e-08
1.425e-12
6.3372e-09
-1.0823e-08
1.0894e-12
6.2184e-09
-5.6137e-09
6.3894e-13
5.655e-09
-1.5452e-09
4.5317e-13
4.6627e-09
9.3713e-10
2.6356e-13
3.567e-09
6.3819e-14
1.9827e-09
-4.4537e-08
-1.4683e-09
5.2728e-10
2.1849e-09
-4.1653e-08
-2.1065e-09
6.8945e-10
3.1609e-09
-3.8089e-08
-2.6782e-09
8.3306e-10
4.0433e-09
-3.3778e-08
-3.1752e-09
9.5685e-10
4.8407e-09
-2.8658e-08
-3.5801e-09
1.0392e-09
5.5458e-09
-2.286e-08
-3.8604e-09
1.0788e-09
6.0785e-09
-1.6743e-08
-3.9678e-09
1.0375e-09
6.3379e-09
-1.0823e-08
-3.85e-09
9.1974e-10
6.219e-09
-5.6137e-09
-3.4652e-09
7.4435e-10
5.6554e-09
-1.5451e-09
-2.8398e-09
5.6084e-10
4.663e-09
9.3743e-10
-2.2662e-09
5.0241e-10
3.5672e-09
-1.3425e-09
3.8192e-10
1.9829e-09
-4.4147e-08
-1.0067e-09
3.8133e-10
-4.1294e-08
-1.4615e-09
5.6784e-10
-3.7737e-08
-1.8676e-09
7.3311e-10
-3.3437e-08
-2.22e-09
8.7437e-10
-2.838e-08
-2.4998e-09
9.888e-10
-2.2686e-08
-2.6899e-09
1.0437e-09
-1.6706e-08
-2.7443e-09
1.0309e-09
-1.0923e-08
-2.6355e-09
9.5266e-10
-5.8144e-09
-2.3463e-09
8.1014e-10
-1.7975e-09
-1.9031e-09
6.3726e-10
6.1798e-10
-1.5013e-09
5.499e-10
-9.1089e-10
3.8702e-10
-4.4071e-08
-5.457e-10
5.2731e-10
-4.1225e-08
-7.8712e-10
7.4991e-10
-3.7658e-08
-1.0022e-09
9.4802e-10
-3.3351e-08
-1.1879e-09
1.1178e-09
-2.8298e-08
-1.3359e-09
1.2527e-09
-2.2651e-08
-1.4305e-09
1.335e-09
-1.6738e-08
-1.4497e-09
1.3426e-09
-1.1023e-08
-1.3849e-09
1.2727e-09
-5.9748e-09
-1.2264e-09
1.1203e-09
-2.0067e-09
-9.8973e-10
9.0199e-10
3.8535e-10
-7.6587e-10
7.1949e-10
-4.7429e-10
4.5868e-10
-4.4042e-08
3.082e-13
5.4647e-10
-4.1197e-08
4.2374e-13
7.8848e-10
-3.7623e-08
4.7573e-13
1.0041e-09
-3.331e-08
5.877e-13
1.1901e-09
-2.8266e-08
6.9386e-13
1.3385e-09
-2.2637e-08
7.2164e-13
1.4332e-09
-1.675e-08
7.2996e-13
1.4525e-09
-1.1064e-08
7.0519e-13
1.3876e-09
-6.0417e-09
6.4373e-13
1.2288e-09
-2.0945e-09
4.6877e-13
9.9159e-10
3.0868e-10
2.524e-13
7.6695e-10
1.0392e-13
4.7467e-10
-4.4042e-08
5.4699e-10
5.4589e-10
-4.1197e-08
7.8893e-10
7.8765e-10
-3.7623e-08
1.0044e-09
1.0027e-09
-3.331e-08
1.1906e-09
1.1886e-09
-2.8265e-08
1.339e-09
1.3368e-09
-2.2637e-08
1.4338e-09
1.4314e-09
-1.675e-08
1.4531e-09
1.4506e-09
-1.1064e-08
1.3881e-09
1.3856e-09
-6.0417e-09
1.2292e-09
1.227e-09
-2.0944e-09
9.9191e-10
9.9012e-10
3.0875e-10
7.6712e-10
7.6603e-10
4.7476e-10
4.7438e-10
-4.407e-08
1.0084e-09
5.2654e-10
-4.1225e-08
1.4638e-09
7.4865e-10
-3.7658e-08
1.8705e-09
9.4628e-10
-3.3351e-08
2.2235e-09
1.1154e-09
-2.8298e-08
2.5038e-09
1.2501e-09
-2.265e-08
2.6941e-09
1.332e-09
-1.6738e-08
2.7486e-09
1.3392e-09
-1.1023e-08
2.6397e-09
1.2694e-09
-5.9748e-09
2.3499e-09
1.1172e-09
-2.0066e-09
1.9058e-09
8.9952e-10
3.8552e-10
1.5028e-09
7.1799e-10
9.1145e-10
4.5814e-10
-4.4146e-08
1.4687e-09
3.8221e-10
-4.1293e-08
2.107e-09
5.6846e-10
-3.7736e-08
2.6788e-09
7.3362e-10
-3.3436e-08
3.1763e-09
8.747e-10
-2.8379e-08
3.5808e-09
9.8896e-10
-2.2686e-08
3.8615e-09
1.0436e-09
-1.6705e-08
3.9686e-09
1.0309e-09
-1.0923e-08
3.8508e-09
9.5218e-10
-5.8144e-09
3.4659e-09
8.0943e-10
-1.7975e-09
2.8402e-09
6.3647e-10
6.181e-10
2.2663e-09
5.4931e-10
1.3426e-09
3.8685e-10
-4.4536e-08
5.2913e-10
2.1845e-09
-4.1652e-08
6.9159e-10
3.1604e-09
-3.8088e-08
8.3495e-10
4.0426e-09
-3.3777e-08
9.5844e-10
4.8401e-09
-2.8658e-08
1.0402e-09
5.5456e-09
-2.2859e-08
1.0797e-09
6.0777e-09
-1.6743e-08
1.0379e-09
6.3368e-09
-1.0823e-08
9.1982e-10
6.2178e-09
-5.6138e-09
7.4424e-10
5.6542e-09
-1.5452e-09
5.6059e-10
4.662e-09
9.373e-10
5.0227e-10
3.5664e-09
3.8179e-10
1.9825e-09
-4.4579e-08
-1.449e-09
9.8137e-10
2.1554e-09
-4.1694e-08
-2.0352e-09
1.3098e-09
3.0359e-09
-3.8139e-08
-2.5584e-09
1.6012e-09
3.8306e-09
-3.3836e-08
-3.0116e-09
1.8539e-09
4.5509e-09
-2.8711e-08
-3.3909e-09
2.0441e-09
5.1816e-09
-2.289e-08
-3.6046e-09
2.1202e-09
5.6416e-09
-1.6743e-08
-3.6742e-09
2.077e-09
5.8311e-09
-1.0785e-08
-3.527e-09
1.8667e-09
5.6658e-09
-5.5424e-09
-3.1347e-09
1.5318e-09
5.1068e-09
-1.4401e-09
-2.5472e-09
1.1626e-09
4.1858e-09
1.1092e-09
-2.0778e-09
1.0083e-09
3.2406e-09
-1.2835e-09
7.9408e-10
1.8927e-09
-4.4202e-08
-9.8132e-10
7.0632e-10
-4.1347e-08
-1.4039e-09
1.0764e-09
-3.7795e-08
-1.7803e-09
1.4058e-09
-3.3498e-08
-2.1048e-09
1.6865e-09
-2.843e-08
-2.3602e-09
1.901e-09
-2.2715e-08
-2.5285e-09
2.0561e-09
-1.6702e-08
-2.5592e-09
2.0459e-09
-1.0882e-08
-2.4389e-09
1.9133e-09
-5.7407e-09
-2.1577e-09
1.6599e-09
-1.6952e-09
-1.7448e-09
1.3271e-09
7.3045e-10
-1.4092e-09
1.1545e-09
-8.8881e-10
7.7849e-10
-4.4112e-08
-5.2615e-10
9.8422e-10
-4.1265e-08
-7.4853e-10
1.4082e-09
-3.7704e-08
-9.4648e-10
1.7859e-09
-3.3402e-08
-1.1156e-09
2.1115e-09
-2.8338e-08
-1.2502e-09
2.3676e-09
-2.2669e-08
-1.3323e-09
2.5363e-09
-1.6728e-08
-1.3399e-09
2.5671e-09
-1.0982e-08
-1.2701e-09
2.4464e-09
-5.906e-09
-1.118e-09
2.1645e-09
-1.914e-09
-9.0022e-10
1.7501e-09
4.8965e-10
-7.1845e-10
1.4123e-09
-4.5827e-10
8.8988e-10
-4.407e-08
-2.7254e-13
1.0085e-09
-4.1225e-08
-5.3079e-13
1.464e-09
-3.7658e-08
-7.4177e-13
1.8706e-09
-3.3351e-08
-9.3193e-13
2.2236e-09
-2.8298e-08
-1.0412e-12
2.504e-09
-2.265e-08
-1.2033e-12
2.6942e-09
-1.6738e-08
-1.2955e-12
2.7486e-09
-1.1023e-08
-1.2567e-12
2.6397e-09
-5.9747e-09
-1.1712e-12
2.3499e-09
-2.0066e-09
-9.3524e-13
1.9059e-09
3.8551e-10
-6.1494e-13
1.503e-09
-1.6591e-13
9.1149e-10
-4.4071e-08
5.2741e-10
1.0073e-09
-4.1225e-08
7.502e-10
1.4624e-09
-3.7658e-08
9.4769e-10
1.8689e-09
-3.3351e-08
1.1173e-09
2.2215e-09
-2.8299e-08
1.2522e-09
2.5014e-09
-2.2651e-08
1.3343e-09
2.6915e-09
-1.6738e-08
1.3417e-09
2.7458e-09
-1.1023e-08
1.2718e-09
2.6369e-09
-5.9747e-09
1.1193e-09
2.3474e-09
-2.0066e-09
9.0128e-10
1.9039e-09
3.8547e-10
7.1905e-10
1.5017e-09
4.5858e-10
9.1105e-10
-4.4112e-08
9.8445e-10
9.8163e-10
-4.1265e-08
1.408e-09
1.4043e-09
-3.7704e-08
1.7853e-09
1.7807e-09
-3.3402e-08
2.1104e-09
2.1051e-09
-2.8338e-08
2.3667e-09
2.3606e-09
-2.2669e-08
2.5352e-09
2.5286e-09
-1.6728e-08
2.5659e-09
2.5589e-09
-1.0982e-08
2.4454e-09
2.4385e-09
-5.906e-09
2.1634e-09
2.1572e-09
-1.914e-09
1.7492e-09
1.7445e-09
4.8973e-10
1.4117e-09
1.4089e-09
8.8976e-10
8.8875e-10
-4.4201e-08
1.4507e-09
7.0423e-10
-4.1346e-08
2.0372e-09
1.0727e-09
-3.7794e-08
2.5609e-09
1.4009e-09
-3.3497e-08
3.0147e-09
1.6802e-09
-2.8429e-08
3.3941e-09
1.8938e-09
-2.2714e-08
3.608e-09
2.0482e-09
-1.6702e-08
3.6775e-09
2.0377e-09
-1.0882e-08
3.53e-09
1.9054e-09
-5.7406e-09
3.1371e-09
1.6528e-09
-1.6951e-09
2.5491e-09
1.3212e-09
7.3062e-10
2.0788e-09
1.1507e-09
1.2838e-09
7.7725e-10
-4.4578e-08
9.8114e-10
2.155e-09
-4.1692e-08
1.3085e-09
3.0356e-09
-3.8137e-08
1.5989e-09
3.8303e-09
-3.3835e-08
1.8503e-09
4.5506e-09
-2.871e-08
2.0398e-09
5.1813e-09
-2.2889e-08
2.1154e-09
5.6406e-09
-1.6743e-08
2.072e-09
5.8297e-09
-1.0784e-08
1.862e-09
5.6642e-09
-5.5424e-09
1.5275e-09
5.1052e-09
-1.4401e-09
1.1589e-09
4.1846e-09
1.1093e-09
1.0057e-09
3.2398e-09
7.9323e-10
1.8922e-09
-4.4668e-08
-1.0482e-09
7.4503e-10
2.2682e-09
-4.1776e-08
-1.5695e-09
1.0935e-09
3.1556e-09
-3.8236e-08
-2.0338e-09
1.4055e-09
3.9515e-09
-3.3951e-08
-2.4321e-09
1.6648e-09
4.6837e-09
-2.8827e-08
-2.7456e-09
1.8322e-09
5.3447e-09
-2.2961e-08
-2.9677e-09
1.8687e-09
5.8555e-09
-1.674e-08
-2.9734e-09
1.7014e-09
6.0983e-09
-1.0699e-08
-2.8065e-09
1.378e-09
5.9578e-09
-5.3683e-09
-2.4567e-09
9.6993e-10
5.393e-09
-1.1855e-09
-1.9769e-09
6.361e-10
4.433e-09
1.3936e-09
-1.684e-09
7.8512e-10
3.4041e-09
-1.1917e-09
9.8533e-10
1.9017e-09
-4.4311e-08
-7.039e-10
1.0514e-09
-4.1446e-08
-1.0724e-09
1.5742e-09
-3.7903e-08
-1.4006e-09
2.04e-09
-3.3615e-08
-1.6804e-09
2.4395e-09
-2.8532e-08
-1.8943e-09
2.7539e-09
-2.2773e-08
-2.049e-09
2.9759e-09
-1.6685e-08
-2.0388e-09
2.9825e-09
-1.0782e-08
-1.9064e-09
2.8151e-09
-5.5634e-09
-1.6538e-09
2.4643e-09
-1.4459e-09
-1.3224e-09
1.9831e-09
1.1224e-09
-1.1516e-09
1.6876e-09
-7.7752e-10
1.193e-09
-4.4201e-08
-3.8196e-10
1.4505e-09
-4.1346e-08
-5.6865e-10
2.0379e-09
-3.7794e-08
-7.34e-10
2.562e-09
-3.3497e-08
-8.7539e-10
3.0161e-09
-2.8429e-08
-9.9003e-10
3.3953e-09
-2.2714e-08
-1.0449e-09
3.6093e-09
-1.6702e-08
-1.0322e-09
3.6788e-09
-1.0882e-08
-9.5389e-10
3.5315e-09
-5.7408e-09
-8.1115e-10
3.1388e-09
-1.6952e-09
-6.381e-10
2.5502e-09
7.305e-10
-5.5043e-10
2.0795e-09
-3.8723e-10
1.284e-09
-4.4146e-08
-1.1704e-12
1.4691e-09
-4.1293e-08
-1.9251e-12
2.1075e-09
-3.7736e-08
-2.5302e-12
2.6792e-09
-3.3436e-08
-3.0249e-12
3.1764e-09
-2.8379e-08
-3.4705e-12
3.5812e-09
-2.2686e-08
-3.7582e-12
3.8616e-09
-1.6705e-08
-3.9588e-12
3.9689e-09
-1.0923e-08
-3.9258e-12
3.8511e-09
-5.8144e-09
-3.5639e-12
3.4663e-09
-1.7975e-09
-2.8984e-12
2.8405e-09
6.1811e-10
-1.9389e-12
2.2666e-09
-7.0042e-13
1.3427e-09
-4.4147e-08
3.8148e-10
1.4686e-09
-4.1294e-08
5.6735e-10
2.107e-09
-3.7737e-08
7.3221e-10
2.6788e-09
-3.3437e-08
8.7305e-10
3.1762e-09
-2.838e-08
9.871e-10
3.5808e-09
-2.2686e-08
1.0418e-09
3.8612e-09
-1.6706e-08
1.0292e-09
3.9681e-09
-1.0923e-08
9.5049e-10
3.8503e-09
-5.8144e-09
8.0795e-10
3.4655e-09
-1.7974e-09
6.3542e-10
2.8398e-09
6.1811e-10
5.4859e-10
2.2662e-09
3.8658e-10
1.3425e-09
-4.4203e-08
7.0666e-10
1.4491e-09
-4.1347e-08
1.076e-09
2.0355e-09
-3.7795e-08
1.405e-09
2.5588e-09
-3.3499e-08
1.6849e-09
3.0123e-09
-2.843e-08
1.8992e-09
3.3916e-09
-2.2715e-08
2.0542e-09
3.605e-09
-1.6702e-08
2.044e-09
3.6742e-09
-1.0882e-08
1.9113e-09
3.5266e-09
-5.7406e-09
1.658e-09
3.1342e-09
-1.6951e-09
1.3255e-09
2.5467e-09
7.3061e-10
1.1534e-09
2.0774e-09
7.7817e-10
1.2834e-09
-4.4311e-08
1.0514e-09
1.0488e-09
-4.1447e-08
1.5736e-09
1.5698e-09
-3.7903e-08
2.039e-09
2.0344e-09
-3.3615e-08
2.4377e-09
2.4323e-09
-2.8532e-08
2.7517e-09
2.7456e-09
-2.2773e-08
2.9738e-09
2.9673e-09
-1.6685e-08
2.9801e-09
2.9733e-09
-1.0782e-08
2.8127e-09
2.806e-09
-5.5632e-09
2.4621e-09
2.456e-09
-1.4458e-09
1.981e-09
1.9763e-09
1.1227e-09
1.6863e-09
1.6832e-09
1.1927e-09
1.1915e-09
-4.4667e-08
7.4314e-10
2.2695e-09
-4.1775e-08
1.0899e-09
3.1573e-09
-3.8235e-08
1.4008e-09
3.953e-09
-3.3951e-08
1.6587e-09
4.6848e-09
-2.8826e-08
1.8253e-09
5.3454e-09
-2.2961e-08
1.8615e-09
5.8557e-09
-1.674e-08
1.6944e-09
6.0984e-09
-1.0699e-08
1.371e-09
5.9583e-09
-5.3682e-09
9.6357e-10
5.3933e-09
-1.1854e-09
6.3077e-10
4.4331e-09
1.3936e-09
7.8145e-10
3.404e-09
9.8382e-10
1.9015e-09
-4.4824e-08
-7.4245e-10
1.1268e-09
1.1257e-09
-4.1925e-08
-1.0897e-09
1.6181e-09
1.6171e-09
-3.8416e-08
-1.4004e-09
2.0656e-09
2.0627e-09
-3.4167e-08
-1.6587e-09
2.4606e-09
2.4567e-09
-2.904e-08
-1.8252e-09
2.7639e-09
2.759e-09
-2.3081e-08
-1.8616e-09
2.8947e-09
2.8887e-09
-1.6747e-08
-1.6947e-09
2.7943e-09
2.7877e-09
-1.0585e-08
-1.371e-09
2.4436e-09
2.4359e-09
-5.1568e-09
-9.6371e-10
1.9299e-09
1.9226e-09
-8.9733e-10
-6.3117e-10
1.4243e-09
1.4181e-09
1.6798e-09
-7.8205e-10
1.4514e-09
1.447e-09
-9.8428e-10
1.3288e-09
1.3274e-09
-4.4667e-08
-9.8012e-10
2.2691e-09
-4.1775e-08
-1.3081e-09
3.1577e-09
-3.8235e-08
-1.5993e-09
3.9546e-09
-3.395e-08
-1.8518e-09
4.6876e-09
-2.8826e-08
-2.0411e-09
5.3489e-09
-2.2961e-08
-2.1177e-09
5.8597e-09
-1.674e-08
-2.0747e-09
6.1028e-09
-1.0699e-08
-1.8646e-09
5.9631e-09
-5.3686e-09
-1.5303e-09
5.3981e-09
-1.1857e-09
-1.1613e-09
4.437e-09
1.3936e-09
-1.0076e-09
3.4063e-09
-7.9381e-10
1.9023e-09
-4.4577e-08
-5.2866e-10
2.1554e-09
-4.1692e-08
-6.918e-10
3.037e-09
-3.8137e-08
-8.3582e-10
3.8317e-09
-3.3835e-08
-9.5974e-10
4.5518e-09
-2.871e-08
-1.0422e-09
5.1824e-09
-2.2889e-08
-1.0823e-09
5.642e-09
-1.6743e-08
-1.0411e-09
5.8315e-09
-1.0785e-08
-9.2327e-10
5.6662e-09
-5.5426e-09
-7.4753e-10
5.1073e-09
-1.4403e-09
-5.6327e-10
4.1859e-09
1.1092e-09
-5.0397e-10
3.2403e-09
-3.8242e-10
1.8924e-09
-4.4536e-08
-9.8939e-13
2.1852e-09
-4.1652e-08
-1.8367e-12
3.1609e-09
-3.8089e-08
-2.5567e-12
4.0429e-09
-3.3778e-08
-3.1259e-12
4.84e-09
-2.8658e-08
-3.3842e-12
5.5451e-09
-2.286e-08
-4.0489e-12
6.0772e-09
-1.6743e-08
-4.2922e-12
6.3365e-09
-1.0823e-08
-4.1469e-12
6.2177e-09
-5.6138e-09
-3.809e-12
5.6543e-09
-1.5452e-09
-3.1224e-12
4.6623e-09
9.3744e-10
-2.0072e-12
3.5667e-09
-6.8474e-13
1.9826e-09
-4.4537e-08
5.275e-10
2.1851e-09
-4.1653e-08
6.8924e-10
3.1612e-09
-3.8089e-08
8.3206e-10
4.0436e-09
-3.3778e-08
9.5537e-10
4.841e-09
-2.8659e-08
1.0371e-09
5.5463e-09
-2.286e-08
1.0763e-09
6.0784e-09
-1.6743e-08
1.0345e-09
6.3375e-09
-1.0823e-08
9.1666e-10
6.2185e-09
-5.6137e-09
7.4155e-10
5.6549e-09
-1.5451e-09
5.5834e-10
4.6626e-09
9.3758e-10
5.0084e-10
3.5669e-09
3.8136e-10
1.9827e-09
-4.4579e-08
9.8165e-10
2.1551e-09
-4.1694e-08
1.3094e-09
3.0362e-09
-3.8139e-08
1.5999e-09
3.8313e-09
-3.3836e-08
1.8518e-09
4.552e-09
-2.8711e-08
2.0421e-09
5.1828e-09
-2.289e-08
2.1176e-09
5.642e-09
-1.6743e-08
2.0744e-09
5.8308e-09
-1.0784e-08
1.8643e-09
5.6649e-09
-5.5423e-09
1.5297e-09
5.1059e-09
-1.4399e-09
1.1604e-09
4.1852e-09
1.1095e-09
1.0068e-09
3.2403e-09
7.937e-10
1.8924e-09
-4.4668e-08
7.4514e-10
2.2685e-09
-4.1777e-08
1.0927e-09
3.1563e-09
-3.8236e-08
1.4042e-09
3.9521e-09
-3.3952e-08
1.6627e-09
4.6841e-09
-2.8827e-08
1.83e-09
5.3448e-09
-2.2962e-08
1.8664e-09
5.855e-09
-1.674e-08
1.6997e-09
6.0972e-09
-1.0699e-08
1.3763e-09
5.9567e-09
-5.3682e-09
9.6866e-10
5.3918e-09
-1.1853e-09
6.3445e-10
4.4319e-09
1.3937e-09
7.8379e-10
3.4034e-09
9.8473e-10
1.9013e-09
-4.4825e-08
1.1265e-09
1.1265e-09
-4.1925e-08
1.6179e-09
1.617e-09
-3.8416e-08
2.0646e-09
2.0626e-09
-3.4168e-08
2.4585e-09
2.4572e-09
-2.904e-08
2.761e-09
2.7601e-09
-2.3081e-08
2.8912e-09
2.89e-09
-1.6747e-08
2.791e-09
2.7893e-09
-1.0584e-08
2.4403e-09
2.4379e-09
-5.1566e-09
1.9267e-09
1.9246e-09
-8.97e-10
1.4208e-09
1.4196e-09
1.6804e-09
1.4481e-09
1.4482e-09
1.3276e-09
1.3277e-09
-8.7845e-09
-7.6285e-10
3.0641e-09
-1.2953e-13
6.9003e-10
-1.0663e-09
3.3397e-09
-8.8168e-13
1.5181e-08
-1.1146e-09
3.0122e-09
-1.5428e-12
3.407e-08
-1.507e-09
3.2951e-09
-2.3533e-12
5.6148e-08
-1.6693e-09
3.2242e-09
-3.2143e-12
7.921e-08
-1.6933e-09
3.0439e-09
-4.0425e-12
1.0057e-07
-1.6172e-09
2.9706e-09
-5.0786e-12
1.1844e-07
-1.4857e-09
2.9471e-09
-5.9973e-12
1.3265e-07
-1.3408e-09
2.8429e-09
-6.2209e-12
1.4425e-07
-1.2346e-09
2.5918e-09
-5.4095e-12
1.542e-07
-1.1416e-09
2.1288e-09
-3.859e-12
-1.0545e-09
1.62e-09
-2.4626e-12
-7.5274e-09
-4.9703e-10
3.8101e-09
3.2217e-09
-8.4786e-10
5.3579e-09
1.9921e-08
-6.7209e-10
6.1864e-09
4.1495e-08
-9.5724e-10
6.9596e-09
6.6777e-08
-1.2028e-09
6.989e-09
9.3325e-08
-1.3483e-09
6.6221e-09
1.1818e-07
-1.372e-09
6.1259e-09
1.3928e-07
-1.2836e-09
5.5679e-09
1.5631e-07
-1.142e-09
4.9431e-09
1.7019e-07
-9.9841e-10
4.2271e-09
1.8187e-07
-8.5371e-10
3.3187e-09
-6.7085e-10
2.2887e-09
-7.7678e-09
-4.0863e-10
3.8714e-09
3.996e-09
-5.9128e-10
5.6259e-09
2.2651e-08
-5.3611e-10
6.4772e-09
4.6637e-08
-7.1739e-10
7.2978e-09
7.4459e-08
-8.4412e-10
7.3381e-09
1.0351e-07
-9.0231e-10
6.9598e-09
1.3074e-07
-9.0378e-10
6.45e-09
1.5401e-07
-8.4967e-10
5.877e-09
1.7294e-07
-7.643e-10
5.2301e-09
1.8844e-07
-6.7982e-10
4.4909e-09
2.0141e-07
-5.9083e-10
3.573e-09
-4.7947e-10