/*--------------------------------*- C++ -*----------------------------------*\
| =========                 |                                                 |
| \\      /  F ield         | OpenFOAM: The Open Source CFD Toolbox           |
|  \\    /   O peration     | Version:  4.1                                   |
|   \\  /    A nd           | Web:      www.OpenFOAM.org                      |
|    \\/     M anipulation  |                                                 |
\*---------------------------------------------------------------------------*/
FoamFile
{
    version     2.0;
    format      ascii;
    class       volVectorField;
    location    "0.0061";
    object      U;
}
// * * * * * * * * * * * * * * * * * * * * * * * * * * * * * * * * * * * * * //

dimensions      [0 1 -1 0 0 0 0];

internalField   nonuniform List<vector> 
1536
(
(0.064249 -0.011273 -8.1588e-07)
(0.073426 -0.013014 -2.4327e-07)
(0.083983 -0.014728 1.9965e-07)
(0.095868 -0.016273 3.9345e-07)
(0.10893 -0.017496 4.4641e-07)
(0.12288 -0.018236 2.2831e-07)
(0.13736 -0.018357 -1.2268e-07)
(0.15187 -0.017791 -4.5904e-07)
(0.16592 -0.016526 -9.3693e-07)
(0.179 -0.014547 -1.5636e-06)
(0.19056 -0.011738 -2.2842e-06)
(0.19991 -0.0078893 -3.2071e-06)
(0.064613 -0.0081244 0.0011218)
(0.073789 -0.0093928 0.0012422)
(0.084317 -0.010648 0.001346)
(0.09614 -0.011795 0.0014092)
(0.1091 -0.012728 0.0014101)
(0.12292 -0.013336 0.0013308)
(0.13723 -0.013525 0.0011618)
(0.15156 -0.013241 0.00090314)
(0.16542 -0.012465 0.0005585)
(0.1783 -0.011177 0.00012696)
(0.18966 -0.0093144 -0.00040034)
(0.19881 -0.0068031 -0.0010354)
(0.064841 -0.0065357 0.0024266)
(0.074014 -0.0075493 0.0027743)
(0.08452 -0.0085512 0.0031102)
(0.096298 -0.0094658 0.0034011)
(0.10919 -0.010209 0.0036121)
(0.12292 -0.010694 0.0037092)
(0.13711 -0.010847 0.0036657)
(0.15132 -0.010622 0.0034687)
(0.16504 -0.0099999 0.0031169)
(0.17778 -0.008957 0.0026074)
(0.18897 -0.0074425 0.0019254)
(0.19795 -0.0053993 0.0010601)
(0.064958 -0.0049845 0.0036048)
(0.07413 -0.0057464 0.0041409)
(0.084625 -0.0064973 0.0046648)
(0.096382 -0.007178 0.0051317)
(0.10924 -0.0077235 0.0054928)
(0.12292 -0.0080671 0.0056992)
(0.13706 -0.0081524 0.0057105)
(0.1512 -0.0079451 0.0055032)
(0.16486 -0.00743 0.0050688)
(0.17752 -0.0065898 0.0043966)
(0.18863 -0.0053865 0.0034595)
(0.19754 -0.0037827 0.0022333)
(0.064958 -0.0035971 0.0049923)
(0.07413 -0.0041335 0.0057538)
(0.084626 -0.0046587 0.0065033)
(0.096383 -0.0051272 0.0071822)
(0.10924 -0.0054905 0.0077255)
(0.12292 -0.0056991 0.0080669)
(0.13706 -0.0057126 0.0081499)
(0.1512 -0.0055076 0.0079404)
(0.16486 -0.0050752 0.0074232)
(0.17752 -0.0044048 0.0065813)
(0.18863 -0.0034692 0.0053762)
(0.19754 -0.0022451 0.0037702)
(0.064841 -0.0024187 0.0065434)
(0.074015 -0.0027672 0.0075563)
(0.084521 -0.0031046 0.0085564)
(0.0963 -0.0033974 0.0094688)
(0.10919 -0.0036105 0.01021)
(0.12292 -0.0037099 0.010693)
(0.13711 -0.0036688 0.010843)
(0.15132 -0.003474 0.010616)
(0.16504 -0.0031239 0.0099914)
(0.17778 -0.0026159 0.0089467)
(0.18897 -0.0019349 0.0074307)
(0.19795 -0.0010711 0.005385)
(0.064613 -0.0011138 0.0081321)
(0.073791 -0.0012348 0.0093995)
(0.08432 -0.0013403 0.010653)
(0.096143 -0.0014056 0.011797)
(0.1091 -0.0014087 0.012727)
(0.12293 -0.0013316 0.013333)
(0.13723 -0.001165 0.01352)
(0.15156 -0.00090854 0.013234)
(0.16542 -0.00056554 0.012456)
(0.1783 -0.00013536 0.011166)
(0.18966 0.0003917 0.0093025)
(0.19881 0.0010259 0.0067891)
(0.06425 7.03e-06 0.011279)
(0.073429 6.2046e-06 0.013019)
(0.083987 4.7796e-06 0.014731)
(0.095873 2.8103e-06 0.016273)
(0.10893 6.262e-07 0.017493)
(0.12289 -1.5735e-06 0.018229)
(0.13736 -3.5454e-06 0.018349)
(0.15187 -5.044e-06 0.01778)
(0.16592 -5.9351e-06 0.016514)
(0.179 -6.2649e-06 0.014534)
(0.19057 -6.1339e-06 0.011724)
(0.19991 -5.7067e-06 0.0078746)
(0.064613 -0.0081237 -0.0011243)
(0.073789 -0.0093918 -0.0012433)
(0.084317 -0.010647 -0.0013461)
(0.096139 -0.011794 -0.001409)
(0.1091 -0.012727 -0.0014098)
(0.12292 -0.013335 -0.0013311)
(0.13723 -0.013524 -0.0011629)
(0.15155 -0.01324 -0.00090499)
(0.16541 -0.012463 -0.00056144)
(0.1783 -0.011175 -0.00013134)
(0.18965 -0.0093125 0.00039438)
(0.1988 -0.0068009 0.0010275)
(0.064993 -0.0065563 -1.6182e-06)
(0.074188 -0.0075905 -1.0081e-06)
(0.084716 -0.0086181 -5.7599e-07)
(0.096516 -0.0095686 -4.2799e-07)
(0.10943 -0.010362 -4.2303e-07)
(0.12318 -0.010915 -6.4693e-07)
(0.13741 -0.011156 -1.0113e-06)
(0.15165 -0.011036 -1.394e-06)
(0.16542 -0.010533 -1.9385e-06)
(0.17821 -0.0096218 -2.6808e-06)
(0.18945 -0.0082544 -3.5579e-06)
(0.1985 -0.006383 -4.8276e-06)
(0.065223 -0.005204 0.0012176)
(0.074419 -0.0060177 0.0014022)
(0.08493 -0.0068253 0.0015839)
(0.096693 -0.0075705 0.0017487)
(0.10955 -0.00819 0.0018816)
(0.12322 -0.0086177 0.0019675)
(0.13735 -0.0087956 0.0019942)
(0.15148 -0.0086855 0.0019551)
(0.16513 -0.0082659 0.0018486)
(0.17779 -0.0075145 0.001673)
(0.18888 -0.006393 0.0014246)
(0.19779 -0.004866 0.0011068)
(0.065338 -0.0038363 0.0025045)
(0.074534 -0.0044298 0.0028867)
(0.085036 -0.0050179 0.0032636)
(0.096781 -0.0055581 0.0036073)
(0.1096 -0.0060035 0.003887)
(0.12324 -0.0063056 0.004071)
(0.13732 -0.0064224 0.0041328)
(0.15139 -0.0063266 0.0040556)
(0.16498 -0.0060033 0.0038314)
(0.17757 -0.0054371 0.0034517)
(0.18859 -0.0046024 0.0029018)
(0.19742 -0.0034803 0.0021741)
(0.065338 -0.0024967 0.003844)
(0.074535 -0.0028794 0.0044372)
(0.085037 -0.0032578 0.0050238)
(0.096781 -0.0036036 0.0055622)
(0.10961 -0.0038857 0.0060053)
(0.12324 -0.0040724 0.0063051)
(0.13732 -0.0041367 0.0064195)
(0.15139 -0.0040618 0.0063214)
(0.16498 -0.0038395 0.0059962)
(0.17757 -0.0034614 0.0054283)
(0.18859 -0.0029128 0.004592)
(0.19742 -0.0021867 0.003468)
(0.065223 -0.0012095 0.0052118)
(0.07442 -0.0013949 0.006025)
(0.084931 -0.0015782 0.006831)
(0.096695 -0.0017453 0.0075744)
(0.10955 -0.0018808 0.0081917)
(0.12322 -0.0019696 0.0086171)
(0.13735 -0.0019991 0.0087928)
(0.15149 -0.0019624 0.0086804)
(0.16514 -0.0018578 0.0082589)
(0.17779 -0.0016836 0.0075057)
(0.18889 -0.0014363 0.0063826)
(0.19779 -0.0011194 0.0048533)
(0.064993 1.0343e-05 0.0065643)
(0.07419 9.226e-06 0.0075978)
(0.084719 7.3289e-06 0.0086234)
(0.096519 4.7362e-06 0.0095719)
(0.10943 1.7563e-06 0.010363)
(0.12319 -1.2697e-06 0.010914)
(0.13741 -3.9784e-06 0.011152)
(0.15166 -6.1164e-06 0.011031)
(0.16543 -7.516e-06 0.010526)
(0.17821 -8.1648e-06 0.0096129)
(0.18945 -8.1416e-06 0.0082443)
(0.19851 -7.607e-06 0.0063702)
(0.064613 0.0011321 0.0081297)
(0.073791 0.0012507 0.0093973)
(0.084321 0.0013527 0.01065)
(0.096144 0.001413 0.011795)
(0.1091 0.0014107 0.012725)
(0.12292 0.0013281 0.013331)
(0.13723 0.0011565 0.013519)
(0.15156 0.00089617 0.013233)
(0.16542 0.0005507 0.012455)
(0.1783 0.00011947 0.011165)
(0.18965 -0.00040729 0.0093022)
(0.1988 -0.0010404 0.0067892)
(0.064841 -0.0065347 -0.0024296)
(0.074014 -0.007548 -0.0027759)
(0.084519 -0.0085496 -0.0031109)
(0.096297 -0.0094641 -0.0034016)
(0.10919 -0.010207 -0.0036128)
(0.12292 -0.010692 -0.0037104)
(0.13711 -0.010845 -0.0036676)
(0.15131 -0.01062 -0.0034713)
(0.16504 -0.0099978 -0.0031204)
(0.17777 -0.008955 -0.0026121)
(0.18896 -0.0074407 -0.0019317)
(0.19794 -0.0053978 -0.0010682)
(0.065223 -0.0052036 -0.0012212)
(0.074418 -0.0060171 -0.0014046)
(0.084929 -0.0068246 -0.0015856)
(0.096691 -0.0075697 -0.0017502)
(0.10954 -0.0081891 -0.0018833)
(0.12322 -0.0086167 -0.0019697)
(0.13735 -0.0087947 -0.001997)
(0.15148 -0.0086845 -0.0019587)
(0.16513 -0.008265 -0.0018531)
(0.17778 -0.0075137 -0.0016788)
(0.18888 -0.0063922 -0.001432)
(0.19778 -0.0048652 -0.0011162)
(0.06544 -0.0038946 -2.0112e-06)
(0.074635 -0.0045005 -1.4722e-06)
(0.085127 -0.0051015 -1.1629e-06)
(0.09685 -0.0056556 -1.1182e-06)
(0.10964 -0.0061154 -1.2393e-06)
(0.12324 -0.0064316 -1.4948e-06)
(0.13726 -0.006561 -1.7951e-06)
(0.15129 -0.006474 -2.1314e-06)
(0.16482 -0.0061528 -2.562e-06)
(0.17734 -0.0055786 -3.1348e-06)
(0.1883 -0.0047231 -3.8828e-06)
(0.19707 -0.0035615 -4.8585e-06)
(0.065548 -0.0025715 0.001272)
(0.074741 -0.0029695 0.0014672)
(0.085222 -0.0033639 0.0016599)
(0.096924 -0.0037266 0.001836)
(0.10968 -0.0040262 0.0019802)
(0.12323 -0.0042303 0.0020764)
(0.13721 -0.0043104 0.0021109)
(0.15117 -0.0042473 0.0020743)
(0.16464 -0.0040291 0.0019613)
(0.17709 -0.0036439 0.0017662)
(0.18797 -0.0030741 0.0014806)
(0.19667 -0.0023065 0.0010987)
(0.065548 -0.001264 0.0025794)
(0.074741 -0.0014597 0.0029768)
(0.085222 -0.0016538 0.0033698)
(0.096925 -0.001832 0.0037305)
(0.10968 -0.0019788 0.0040277)
(0.12323 -0.0020778 0.0042292)
(0.13721 -0.0021149 0.0043068)
(0.15117 -0.0020808 0.0042413)
(0.16464 -0.0019697 0.0040212)
(0.17709 -0.0017761 0.0036344)
(0.18797 -0.0014917 0.0030633)
(0.19667 -0.0011109 0.0022942)
(0.065441 1.0339e-05 0.0039025)
(0.074636 9.2683e-06 0.0045079)
(0.085128 7.5733e-06 0.0051074)
(0.096852 5.3002e-06 0.0056595)
(0.10964 2.6219e-06 0.0061169)
(0.12324 -1.6545e-07 0.0064306)
(0.13727 -2.783e-06 0.0065576)
(0.15129 -4.9306e-06 0.0064683)
(0.16482 -6.4547e-06 0.0061451)
(0.17734 -7.2562e-06 0.0055693)
(0.1883 -7.4281e-06 0.0047122)
(0.19707 -7.1785e-06 0.0035488)
(0.065223 0.0012301 0.0052118)
(0.07442 0.0014131 0.0060247)
(0.084931 0.0015929 0.0068306)
(0.096695 0.0017552 0.0075737)
(0.10955 0.0018852 0.0081908)
(0.12322 0.0019683 0.0086159)
(0.13735 0.0019924 0.0087914)
(0.15148 0.0019515 0.008679)
(0.16513 0.0018439 0.0082575)
(0.17778 0.0016683 0.0075045)
(0.18888 0.0014208 0.0063815)
(0.19778 0.0011044 0.0048522)
(0.064841 0.0024375 0.0065417)
(0.074016 0.0027835 0.0075545)
(0.084523 0.0031174 0.0085543)
(0.096302 0.0034055 0.0094665)
(0.10919 0.0036134 0.010207)
(0.12292 0.0037074 0.01069)
(0.13711 0.0036613 0.010841)
(0.15132 0.0034626 0.010614)
(0.16504 0.0031099 0.0099897)
(0.17777 0.0026006 0.0089452)
(0.18896 0.0019195 0.0074295)
(0.19795 0.0010562 0.0053842)
(0.064959 -0.0049832 -0.0036083)
(0.07413 -0.0057447 -0.004143)
(0.084625 -0.0064952 -0.0046662)
(0.096382 -0.0071756 -0.005133)
(0.10924 -0.0077208 -0.0054943)
(0.12292 -0.0080645 -0.0057012)
(0.13706 -0.00815 -0.0057129)
(0.1512 -0.0079428 -0.0055063)
(0.16486 -0.0074278 -0.0050728)
(0.17752 -0.006588 -0.0044017)
(0.18863 -0.0053848 -0.0034662)
(0.19753 -0.0037812 -0.0022421)
(0.065339 -0.0038354 -0.0025085)
(0.074534 -0.0044288 -0.0028895)
(0.085036 -0.0050165 -0.0032659)
(0.09678 -0.0055566 -0.0036095)
(0.1096 -0.0060019 -0.0038894)
(0.12324 -0.006304 -0.004074)
(0.13731 -0.0064209 -0.0041363)
(0.15139 -0.0063251 -0.0040598)
(0.16498 -0.006002 -0.0038364)
(0.17757 -0.005436 -0.0034578)
(0.18859 -0.0046014 -0.0029095)
(0.19742 -0.0034793 -0.0021839)
(0.065548 -0.002571 -0.0012765)
(0.074741 -0.0029689 -0.0014707)
(0.085221 -0.0033632 -0.0016628)
(0.096923 -0.0037258 -0.001839)
(0.10968 -0.0040254 -0.0019834)
(0.12323 -0.0042295 -0.0020801)
(0.13721 -0.0043097 -0.0021152)
(0.15117 -0.0042465 -0.0020792)
(0.16463 -0.0040284 -0.001967)
(0.17709 -0.0036433 -0.001773)
(0.18797 -0.0030735 -0.0014888)
(0.19667 -0.002306 -0.0011089)
(0.065649 -0.0012802 -2.4564e-06)
(0.074838 -0.0014789 -1.9893e-06)
(0.085306 -0.0016759 -1.8023e-06)
(0.096984 -0.0018572 -1.8429e-06)
(0.10971 -0.0020071 -2.0178e-06)
(0.12321 -0.0021094 -2.2689e-06)
(0.13713 -0.0021498 -2.5438e-06)
(0.15102 -0.0021185 -2.8384e-06)
(0.16442 -0.0020095 -3.2188e-06)
(0.1768 -0.0018167 -3.7209e-06)
(0.1876 -0.0015317 -4.4252e-06)
(0.19623 -0.0011487 -5.3742e-06)
(0.065649 1.0608e-05 0.0012882)
(0.074838 9.6436e-06 0.0014864)
(0.085306 8.044e-06 0.001682)
(0.096985 5.9173e-06 0.0018612)
(0.10971 3.3952e-06 0.0020086)
(0.12321 7.2617e-07 0.0021081)
(0.13713 -1.8289e-06 0.0021458)
(0.15102 -3.9871e-06 0.0021121)
(0.16442 -5.572e-06 0.0020012)
(0.1768 -6.4613e-06 0.0018069)
(0.1876 -6.7172e-06 0.0015207)
(0.19623 -6.4783e-06 0.0011365)
(0.065548 0.0012849 0.0025791)
(0.074741 0.0014786 0.0029764)
(0.085223 0.0016694 0.0033693)
(0.096926 0.0018432 0.0037299)
(0.10969 0.0019848 0.0040269)
(0.12323 0.0020783 0.0042283)
(0.13721 0.0021104 0.0043058)
(0.15117 0.0020719 0.0042403)
(0.16464 0.0019577 0.0040203)
(0.17709 0.0017624 0.0036336)
(0.18797 0.0014775 0.0030625)
(0.19667 0.0010973 0.0022934)
(0.065339 0.0025174 0.0038437)
(0.074536 0.002898 0.0044365)
(0.085039 0.0032729 0.0050229)
(0.096783 0.0036141 0.0055608)
(0.10961 0.0038908 0.0060036)
(0.12324 0.004072 0.006303)
(0.13732 0.0041311 0.0064172)
(0.15139 0.0040519 0.0063192)
(0.16498 0.0038266 0.0059941)
(0.17757 0.0034469 0.0054264)
(0.18859 0.002898 0.0045904)
(0.19742 0.0021724 0.0034664)
(0.064959 0.0036168 0.0049915)
(0.074132 0.0041512 0.0057525)
(0.084629 0.0046727 0.0065015)
(0.096387 0.0051365 0.0071797)
(0.10924 0.0054943 0.0077223)
(0.12293 0.0056975 0.0080632)
(0.13707 0.0057059 0.0081461)
(0.15121 0.0054967 0.0079368)
(0.16486 0.0050614 0.00742)
(0.17752 0.0043893 0.0065785)
(0.18863 0.0034536 0.005374)
(0.19754 0.0022302 0.0037681)
(0.064959 -0.0035955 -0.0049961)
(0.074131 -0.0041314 -0.0057564)
(0.084626 -0.004656 -0.0065055)
(0.096382 -0.0051243 -0.0071844)
(0.10924 -0.0054872 -0.0077279)
(0.12292 -0.0056959 -0.0080697)
(0.13706 -0.0057096 -0.0081532)
(0.1512 -0.0055047 -0.0079443)
(0.16486 -0.0050726 -0.0074279)
(0.17752 -0.0044025 -0.006587)
(0.18863 -0.0034673 -0.0053835)
(0.19753 -0.0022432 -0.0037796)
(0.065339 -0.0024954 -0.0038483)
(0.074535 -0.0028778 -0.0044404)
(0.085037 -0.0032559 -0.0050267)
(0.09678 -0.0036014 -0.0055651)
(0.1096 -0.0038833 -0.0060085)
(0.12324 -0.00407 -0.0063087)
(0.13732 -0.0041344 -0.0064236)
(0.15139 -0.0040596 -0.0063261)
(0.16498 -0.0038375 -0.0060016)
(0.17757 -0.0034596 -0.0054348)
(0.18859 -0.0029113 -0.0045999)
(0.19742 -0.0021853 -0.003478)
(0.065548 -0.0012631 -0.0025842)
(0.074741 -0.0014587 -0.0029807)
(0.085222 -0.0016525 -0.0033734)
(0.096924 -0.0018306 -0.0037342)
(0.10968 -0.0019772 -0.0040318)
(0.12323 -0.0020762 -0.0042337)
(0.13721 -0.0021134 -0.0043118)
(0.15117 -0.0020793 -0.0042469)
(0.16463 -0.0019683 -0.0040275)
(0.17709 -0.0017749 -0.0036417)
(0.18797 -0.0014905 -0.0030719)
(0.19667 -0.0011098 -0.0023048)
(0.065649 1.1029e-05 -0.0012935)
(0.074838 1.0148e-05 -0.0014908)
(0.085306 8.656e-06 -0.0016862)
(0.096984 6.629e-06 -0.0018656)
(0.10971 4.1771e-06 -0.0020134)
(0.12321 1.5297e-06 -0.0021134)
(0.13713 -1.0306e-06 -0.0021516)
(0.15102 -3.2155e-06 -0.0021185)
(0.16442 -4.8496e-06 -0.0020083)
(0.1768 -5.7989e-06 -0.0018149)
(0.1876 -6.1166e-06 -0.0015301)
(0.19623 -5.9204e-06 -0.0011478)
(0.065649 0.0013018 -2.8754e-06)
(0.074839 0.0014986 -2.4874e-06)
(0.085307 0.0016926 -2.4023e-06)
(0.096985 0.0018698 -2.5394e-06)
(0.10971 0.0020147 -2.78e-06)
(0.12321 0.0021117 -3.0437e-06)
(0.13713 0.002147 -3.3079e-06)
(0.15102 0.0021114 -3.5714e-06)
(0.16442 0.0019991 -3.9039e-06)
(0.1768 0.0018045 -4.3498e-06)
(0.1876 0.0015189 -5.0018e-06)
(0.19623 0.0011363 -5.9187e-06)
(0.065548 0.0025928 0.0012713)
(0.074742 0.0029889 0.0014663)
(0.085224 0.0033801 0.0016587)
(0.096927 0.0037385 0.0018346)
(0.10969 0.0040331 0.0019786)
(0.12324 0.0042318 0.0020747)
(0.13721 0.0043069 0.0021092)
(0.15117 0.0042393 0.0020727)
(0.16464 0.004018 0.0019598)
(0.17709 0.003631 0.0017648)
(0.18797 0.0030607 0.0014793)
(0.19667 0.0022936 0.0010975)
(0.065339 0.0038572 0.0025035)
(0.074537 0.0044489 0.0028854)
(0.08504 0.0050337 0.003262)
(0.096785 0.0055695 0.0036053)
(0.10961 0.0060098 0.0038845)
(0.12324 0.0063065 0.0040683)
(0.13732 0.0064181 0.00413)
(0.1514 0.0063179 0.0040529)
(0.16499 0.0059914 0.0038289)
(0.17757 0.0054235 0.0034495)
(0.18859 0.0045884 0.0028998)
(0.19742 0.0034668 0.0021722)
(0.06496 0.0050056 0.0036043)
(0.074133 0.0057656 0.0041398)
(0.08463 0.006513 0.0046629)
(0.096388 0.0071889 0.0051288)
(0.10925 0.0077288 0.0054889)
(0.12293 0.0080668 0.0056946)
(0.13707 0.0081468 0.0057056)
(0.15121 0.007935 0.0054985)
(0.16486 0.0074166 0.0050645)
(0.17752 0.0065746 0.0043927)
(0.18863 0.0053711 0.003456)
(0.19754 0.003768 0.0022301)
(0.064842 -0.002417 -0.0065476)
(0.074015 -0.0027647 -0.0075594)
(0.08452 -0.0031015 -0.0085592)
(0.096298 -0.0033937 -0.0094719)
(0.10919 -0.0036066 -0.010213)
(0.12292 -0.003706 -0.010696)
(0.13711 -0.0036651 -0.010847)
(0.15131 -0.0034705 -0.010621)
(0.16504 -0.0031208 -0.0099967)
(0.17777 -0.0026132 -0.0089528)
(0.18896 -0.0019327 -0.0074379)
(0.19794 -0.001069 -0.0053944)
(0.065224 -0.0012078 -0.0052163)
(0.07442 -0.0013928 -0.0060286)
(0.08493 -0.0015757 -0.0068344)
(0.096693 -0.0017424 -0.007578)
(0.10955 -0.0018778 -0.0081956)
(0.12322 -0.0019665 -0.0086214)
(0.13735 -0.0019961 -0.0087975)
(0.15148 -0.0019595 -0.0086856)
(0.16513 -0.0018551 -0.0082647)
(0.17778 -0.0016812 -0.0075124)
(0.18888 -0.0014342 -0.0063905)
(0.19778 -0.0011175 -0.0048633)
(0.065442 1.1597e-05 -0.0039076)
(0.074636 1.0789e-05 -0.0045122)
(0.085128 9.4086e-06 -0.0051115)
(0.096852 7.4438e-06 -0.0056639)
(0.10964 4.9644e-06 -0.0061217)
(0.12324 2.2224e-06 -0.0064359)
(0.13727 -3.9987e-07 -0.0065634)
(0.15129 -2.6266e-06 -0.0064746)
(0.16482 -4.2972e-06 -0.006152)
(0.17734 -5.2845e-06 -0.0055771)
(0.1883 -5.639e-06 -0.0047213)
(0.19707 -5.4868e-06 -0.0035598)
(0.065549 0.0012857 -0.0025847)
(0.074742 0.0014796 -0.0029813)
(0.085223 0.0016705 -0.0033741)
(0.096926 0.0018446 -0.003735)
(0.10969 0.0019863 -0.0040325)
(0.12324 0.00208 -0.0042344)
(0.13721 0.002112 -0.0043125)
(0.15117 0.0020735 -0.0042475)
(0.16464 0.0019592 -0.0040281)
(0.17709 0.0017638 -0.0036423)
(0.18797 0.0014788 -0.0030725)
(0.19667 0.0010984 -0.0023053)
(0.065549 0.0025932 -0.0012774)
(0.074742 0.0029893 -0.0014717)
(0.085223 0.0033806 -0.0016641)
(0.096926 0.0037392 -0.0018404)
(0.10969 0.0040338 -0.0019849)
(0.12324 0.0042326 -0.0020815)
(0.13721 0.0043076 -0.0021165)
(0.15117 0.00424 -0.0020806)
(0.16464 0.0040186 -0.0019683)
(0.17709 0.0036316 -0.0017741)
(0.18797 0.0030612 -0.0014899)
(0.19667 0.0022941 -0.0011099)
(0.065442 0.0039164 -3.2834e-06)
(0.074637 0.0045206 -2.9657e-06)
(0.08513 0.0051185 -2.9572e-06)
(0.096854 0.0056684 -3.1852e-06)
(0.10965 0.0061231 -3.4831e-06)
(0.12324 0.006434 -3.7672e-06)
(0.13727 0.0065582 -4.0292e-06)
(0.15129 0.0064668 -4.2738e-06)
(0.16482 0.0061422 -4.5717e-06)
(0.17734 0.0055662 -4.9609e-06)
(0.1883 0.0047101 -5.5411e-06)
(0.19707 0.0035491 -6.4174e-06)
(0.065224 0.0052257 0.0012159)
(0.074422 0.0060376 0.0014003)
(0.084934 0.006842 0.0015817)
(0.096698 0.0075828 0.0017462)
(0.10955 0.0081972 0.0018788)
(0.12323 0.0086194 0.0019645)
(0.13736 0.0087921 0.0019912)
(0.15149 0.0086773 0.0019522)
(0.16514 0.0082544 0.0018458)
(0.17779 0.0075011 0.0016705)
(0.18888 0.0063793 0.0014223)
(0.19779 0.004853 0.0011045)
(0.064843 0.0065585 0.0024258)
(0.074018 0.0075702 0.002773)
(0.084526 0.0085685 0.0031082)
(0.096306 0.009478 0.0033983)
(0.1092 0.010215 0.0036083)
(0.12293 0.010695 0.0037048)
(0.13712 0.010842 0.003661)
(0.15132 0.010612 0.0034642)
(0.16505 0.0099863 0.0031126)
(0.17778 0.0089414 0.0026034)
(0.18897 0.007427 0.0019213)
(0.19795 0.005385 0.0010558)
(0.064615 -0.0011118 -0.0081365)
(0.073791 -0.0012321 -0.0094031)
(0.084319 -0.0013369 -0.010656)
(0.096142 -0.0014017 -0.011801)
(0.1091 -0.0014046 -0.012732)
(0.12292 -0.0013276 -0.013338)
(0.13723 -0.0011612 -0.013525)
(0.15156 -0.00090493 -0.013239)
(0.16542 -0.00056228 -0.012462)
(0.1783 -0.00013262 -0.011172)
(0.18965 0.00039363 -0.00931)
(0.1988 0.0010276 -0.0067987)
(0.064995 1.2401e-05 -0.006569)
(0.074191 1.1676e-05 -0.0076018)
(0.084719 1.0138e-05 -0.0086275)
(0.096519 7.9786e-06 -0.0095764)
(0.10943 5.2635e-06 -0.010368)
(0.12319 2.3395e-06 -0.01092)
(0.13741 -3.4029e-07 -0.011158)
(0.15166 -2.5595e-06 -0.011037)
(0.16543 -4.1784e-06 -0.010532)
(0.17821 -5.1918e-06 -0.0096203)
(0.18945 -5.5657e-06 -0.0082527)
(0.1985 -5.4354e-06 -0.0063808)
(0.065225 0.0012317 -0.0052171)
(0.074421 0.0014151 -0.0060294)
(0.084932 0.0015952 -0.0068353)
(0.096696 0.001758 -0.0075789)
(0.10955 0.0018884 -0.0081965)
(0.12323 0.0019715 -0.0086221)
(0.13735 0.0019956 -0.0087981)
(0.15149 0.0019546 -0.0086862)
(0.16514 0.0018468 -0.0082654)
(0.17779 0.001671 -0.0075131)
(0.18888 0.0014232 -0.0063913)
(0.19779 0.0011067 -0.004864)
(0.06534 0.0025186 -0.0038496)
(0.074537 0.0028994 -0.0044418)
(0.085039 0.0032746 -0.0050282)
(0.096784 0.0036161 -0.0055667)
(0.10961 0.0038932 -0.0060101)
(0.12324 0.0040745 -0.0063101)
(0.13732 0.0041336 -0.0064248)
(0.1514 0.0040544 -0.0063272)
(0.16498 0.0038289 -0.0060027)
(0.17757 0.003449 -0.0054358)
(0.18859 0.0029 -0.0046009)
(0.19742 0.0021743 -0.0034788)
(0.06534 0.003858 -0.00251)
(0.074536 0.0044498 -0.0028912)
(0.085039 0.0050347 -0.0032679)
(0.096784 0.0055708 -0.0036117)
(0.10961 0.0060112 -0.0038917)
(0.12324 0.0063079 -0.0040761)
(0.13732 0.0064195 -0.0041383)
(0.15139 0.0063193 -0.0040616)
(0.16498 0.0059927 -0.0038381)
(0.17757 0.0054246 -0.0034594)
(0.18859 0.0045894 -0.0029109)
(0.19742 0.0034678 -0.0021851)
(0.065224 0.0052261 -0.0012228)
(0.074421 0.006038 -0.0014066)
(0.084933 0.0068424 -0.0015881)
(0.096697 0.0075833 -0.0017533)
(0.10955 0.0081978 -0.0018866)
(0.12323 0.00862 -0.0019729)
(0.13735 0.0087926 -0.0020001)
(0.15148 0.0086778 -0.0019616)
(0.16513 0.0082547 -0.0018557)
(0.17778 0.0075013 -0.0016811)
(0.18888 0.0063795 -0.001434)
(0.19778 0.004853 -0.0011178)
(0.064995 0.0065791 -3.7977e-06)
(0.074192 0.0076116 -3.495e-06)
(0.084722 0.0086358 -3.5167e-06)
(0.096523 0.0095816 -3.9045e-06)
(0.10944 0.01037 -4.2625e-06)
(0.12319 0.010918 -4.6013e-06)
(0.13742 0.011152 -4.931e-06)
(0.15166 0.011028 -5.1996e-06)
(0.16543 0.010521 -5.4699e-06)
(0.17821 0.0096081 -5.8038e-06)
(0.18945 0.0082409 -6.206e-06)
(0.1985 0.0063703 -6.8605e-06)
(0.064615 0.0081495 0.001121)
(0.073794 0.0094158 0.0012409)
(0.084325 0.010667 0.001344)
(0.096149 0.011809 0.0014065)
(0.10911 0.012735 0.0014065)
(0.12293 0.013336 0.0013262)
(0.13724 0.01352 0.0011567)
(0.15157 0.013231 0.00089785)
(0.16542 0.012451 0.00055326)
(0.1783 0.01116 0.00012201)
(0.18966 0.0092985 -0.00040556)
(0.19881 0.006789 -0.0010406)
(0.064252 9.0015e-06 -0.011283)
(0.07343 8.456e-06 -0.013022)
(0.083987 7.5756e-06 -0.014734)
(0.095872 6.1357e-06 -0.016277)
(0.10893 4.3011e-06 -0.017498)
(0.12289 2.2119e-06 -0.018236)
(0.13736 1.9262e-07 -0.018356)
(0.15187 -1.5014e-06 -0.017788)
(0.16592 -2.6911e-06 -0.016522)
(0.179 -3.3372e-06 -0.014542)
(0.19056 -3.4485e-06 -0.011733)
(0.19991 -3.3347e-06 -0.0078854)
(0.064616 0.0011343 -0.0081346)
(0.073793 0.0012533 -0.0094014)
(0.084321 0.0013557 -0.010655)
(0.096145 0.0014168 -0.0118)
(0.1091 0.0014152 -0.012731)
(0.12293 0.001333 -0.013338)
(0.13723 0.0011616 -0.013526)
(0.15156 0.00090111 -0.013241)
(0.16542 0.00055538 -0.012464)
(0.1783 0.00012383 -0.011174)
(0.18966 -0.00040312 -0.009312)
(0.19881 -0.001037 -0.0068009)
(0.064843 0.0024394 -0.0065473)
(0.074017 0.0027857 -0.0075594)
(0.084523 0.0031202 -0.0085594)
(0.096303 0.003409 -0.0094721)
(0.10919 0.0036176 -0.010214)
(0.12292 0.0037119 -0.010697)
(0.13712 0.0036659 -0.010848)
(0.15132 0.003467 -0.010622)
(0.16504 0.003114 -0.0099984)
(0.17778 0.0026045 -0.0089547)
(0.18897 0.0019234 -0.00744)
(0.19795 0.0010599 -0.0053966)
(0.064961 0.0036184 -0.0049976)
(0.074133 0.004153 -0.005758)
(0.084629 0.0046749 -0.0065072)
(0.096387 0.0051392 -0.0071861)
(0.10924 0.0054975 -0.0077296)
(0.12293 0.005701 -0.0080712)
(0.13707 0.0057096 -0.0081546)
(0.15121 0.0055004 -0.0079456)
(0.16486 0.0050648 -0.0074293)
(0.17752 0.0043925 -0.0065885)
(0.18863 0.0034567 -0.0053849)
(0.19754 0.0022331 -0.0037808)
(0.06496 0.0050068 -0.0036109)
(0.074133 0.0057669 -0.0041458)
(0.084629 0.0065145 -0.0046692)
(0.096387 0.0071908 -0.0051358)
(0.10924 0.007731 -0.0054968)
(0.12293 0.0080691 -0.0057033)
(0.13707 0.0081492 -0.0057148)
(0.15121 0.0079374 -0.005508)
(0.16486 0.0074188 -0.0050744)
(0.17752 0.0065766 -0.0044032)
(0.18863 0.0053729 -0.0034676)
(0.19753 0.0037697 -0.0022435)
(0.064843 0.0065592 -0.0024327)
(0.074017 0.0075709 -0.0027794)
(0.084524 0.0085692 -0.0031149)
(0.096304 0.0094788 -0.0034056)
(0.10919 0.010216 -0.0036165)
(0.12292 0.010696 -0.0037136)
(0.13712 0.010843 -0.0036703)
(0.15132 0.010613 -0.0034738)
(0.16504 0.009987 -0.0031226)
(0.17777 0.0089419 -0.0026141)
(0.18896 0.0074273 -0.0019332)
(0.19794 0.0053848 -0.0010695)
(0.064615 0.0081493 -0.0011282)
(0.073793 0.0094157 -0.0012478)
(0.084323 0.010667 -0.0013511)
(0.096148 0.011809 -0.0014143)
(0.10911 0.012735 -0.0014152)
(0.12293 0.013336 -0.0013356)
(0.13723 0.01352 -0.0011666)
(0.15156 0.01323 -0.00090814)
(0.16542 0.01245 -0.00056392)
(0.1783 0.011159 -0.00013334)
(0.18965 0.0092978 0.00039322)
(0.1988 0.0067881 0.0010267)
(0.064252 0.011302 -3.2613e-06)
(0.073431 0.013041 -2.9915e-06)
(0.083992 0.01475 -2.9899e-06)
(0.095878 0.016289 -3.3409e-06)
(0.10894 0.017503 -3.6833e-06)
(0.1229 0.018236 -3.9196e-06)
(0.13737 0.01835 -4.143e-06)
(0.15188 0.017778 -4.2871e-06)
(0.16592 0.016509 -4.4484e-06)
(0.179 0.014527 -4.7062e-06)
(0.19056 0.011719 -5.0589e-06)
(0.1999 0.0078729 -5.7502e-06)
(0.20533 -0.021072 0.0020652)
(0.19493 -0.024988 0.0029982)
(0.18242 -0.027515 0.0037237)
(0.16854 -0.029018 0.0042574)
(0.15375 -0.029625 0.0045985)
(0.13853 -0.029344 0.0047469)
(0.1234 -0.028196 0.0047055)
(0.10888 -0.026311 0.004496)
(0.09539 -0.023914 0.0041614)
(0.083212 -0.021232 0.0037477)
(0.072494 -0.018441 0.003294)
(0.063273 -0.01569 0.0028353)
(0.20406 -0.017461 0.0040252)
(0.19412 -0.021146 0.0046293)
(0.18192 -0.023603 0.0050829)
(0.16826 -0.025128 0.0053722)
(0.15367 -0.025834 0.0054881)
(0.13864 -0.025734 0.0054311)
(0.12369 -0.024847 0.0052106)
(0.10931 -0.023285 0.0048539)
(0.095914 -0.02124 0.0044048)
(0.083788 -0.018913 0.0039058)
(0.073085 -0.01647 0.0033889)
(0.063846 -0.014052 0.0028794)
(0.20329 -0.014991 0.0086779)
(0.1935 -0.018248 0.010199)
(0.18144 -0.020447 0.011194)
(0.16789 -0.021832 0.011781)
(0.15341 -0.022493 0.012004)
(0.13848 -0.022443 0.011869)
(0.12363 -0.021703 0.011389)
(0.10933 -0.020368 0.01062)
(0.096009 -0.018604 0.0096517)
(0.083929 -0.016587 0.0085721)
(0.073248 -0.014462 0.0074504)
(0.06401 -0.012356 0.0063434)
(0.20299 -0.013096 0.010026)
(0.19327 -0.015855 0.012248)
(0.18128 -0.017713 0.013749)
(0.16779 -0.018873 0.014694)
(0.15337 -0.019413 0.015145)
(0.1385 -0.019344 0.015112)
(0.12369 -0.018686 0.014611)
(0.10944 -0.017522 0.013708)
(0.09615 -0.015997 0.01252)
(0.084088 -0.01426 0.011166)
(0.073412 -0.012434 0.0097406)
(0.064169 -0.010625 0.008326)
(0.20299 -0.01004 0.013082)
(0.19327 -0.01226 0.015843)
(0.18128 -0.01376 0.017703)
(0.16779 -0.014703 0.018864)
(0.15337 -0.015152 0.019406)
(0.1385 -0.015117 0.019339)
(0.1237 -0.014614 0.018683)
(0.10945 -0.013709 0.017521)
(0.096151 -0.012518 0.015998)
(0.084089 -0.011162 0.014263)
(0.073412 -0.0097351 0.012439)
(0.064169 -0.00832 0.010631)
(0.20329 -0.008691 0.014978)
(0.1935 -0.010211 0.018237)
(0.18144 -0.011204 0.020438)
(0.16789 -0.011789 0.021824)
(0.15341 -0.012011 0.022487)
(0.13848 -0.011873 0.022438)
(0.12363 -0.011391 0.021699)
(0.10934 -0.010619 0.020366)
(0.096011 -0.0096485 0.018605)
(0.083931 -0.0085668 0.01659)
(0.073249 -0.0074441 0.014467)
(0.06401 -0.0063367 0.012362)
(0.20407 -0.0040376 0.017449)
(0.19412 -0.0046411 0.021136)
(0.18192 -0.0050938 0.023595)
(0.16826 -0.0053816 0.025121)
(0.15367 -0.0054958 0.025829)
(0.13864 -0.0054364 0.025729)
(0.12369 -0.005213 0.024844)
(0.10931 -0.0048531 0.023283)
(0.095918 -0.0044011 0.021241)
(0.083792 -0.0038998 0.018916)
(0.073086 -0.0033813 0.016474)
(0.063846 -0.002871 0.014057)
(0.20534 -0.0020754 0.021062)
(0.19494 -0.0030081 0.024979)
(0.18242 -0.0037332 0.027508)
(0.16854 -0.0042655 0.029012)
(0.15376 -0.0046049 0.029619)
(0.13854 -0.0047509 0.029339)
(0.12341 -0.0047066 0.028192)
(0.10889 -0.0044943 0.026309)
(0.095397 -0.0041572 0.023915)
(0.083217 -0.0037415 0.021235)
(0.072496 -0.0032866 0.018446)
(0.063274 -0.0028276 0.015695)
(0.2106 -0.015039 0.0021759)
(0.19765 -0.016963 0.0025116)
(0.18341 -0.018102 0.0027569)
(0.16816 -0.018671 0.0029045)
(0.15209 -0.018735 0.0029566)
(0.13562 -0.018296 0.0029187)
(0.11935 -0.017372 0.0028016)
(0.104 -0.016046 0.0026169)
(0.090052 -0.01446 0.0023802)
(0.077717 -0.012746 0.0021111)
(0.067075 -0.011 0.0018311)
(0.058138 -0.0092979 0.0015564)
(0.21024 -0.013517 0.0035627)
(0.1975 -0.01539 0.0040175)
(0.18342 -0.016525 0.0043153)
(0.16827 -0.017114 0.0044755)
(0.1523 -0.017224 0.0045047)
(0.13592 -0.016863 0.0044082)
(0.11975 -0.01605 0.0042023)
(0.10446 -0.014857 0.0039069)
(0.090534 -0.013413 0.003544)
(0.078202 -0.011839 0.0031413)
(0.06755 -0.010229 0.0027273)
(0.058592 -0.0086563 0.0023233)
(0.21009 -0.011529 0.006195)
(0.1974 -0.013229 0.0070814)
(0.18338 -0.014283 0.0076158)
(0.16827 -0.014854 0.0078995)
(0.15234 -0.014999 0.0079601)
(0.136 -0.014725 0.0078019)
(0.11987 -0.014049 0.0074344)
(0.10461 -0.013037 0.0068947)
(0.090707 -0.011792 0.0062412)
(0.078384 -0.010422 0.0055304)
(0.067732 -0.0090133 0.004802)
(0.058763 -0.0076366 0.0040883)
(0.21 -0.0099951 0.007852)
(0.19737 -0.011465 0.0090687)
(0.18337 -0.012374 0.0098244)
(0.16829 -0.012866 0.010239)
(0.15238 -0.012991 0.010354)
(0.13607 -0.012754 0.010178)
(0.11996 -0.01217 0.0097194)
(0.10473 -0.011295 0.0090248)
(0.090838 -0.010221 0.0081741)
(0.078524 -0.0090395 0.0072428)
(0.06787 -0.0078246 0.0062853)
(0.058889 -0.0066366 0.0053458)
(0.21001 -0.0078655 0.0099827)
(0.19737 -0.0090798 0.011455)
(0.18337 -0.0098335 0.012366)
(0.16829 -0.010246 0.01286)
(0.15238 -0.01036 0.012987)
(0.13607 -0.010182 0.012751)
(0.11996 -0.0097221 0.012168)
(0.10473 -0.0090262 0.011294)
(0.090839 -0.0081731 0.010222)
(0.078525 -0.0072395 0.0090424)
(0.067871 -0.0062799 0.0078296)
(0.058889 -0.0053396 0.0066424)
(0.21009 -0.0062087 0.011519)
(0.19741 -0.0070927 0.013221)
(0.18338 -0.0076252 0.014276)
(0.16827 -0.0079078 0.014849)
(0.15234 -0.0079669 0.014995)
(0.136 -0.0078072 0.014722)
(0.11987 -0.0074377 0.014047)
(0.10462 -0.0068954 0.013036)
(0.090711 -0.0062394 0.011793)
(0.078387 -0.0055264 0.010424)
(0.067734 -0.0047965 0.0090173)
(0.058764 -0.0040822 0.0076413)
(0.21025 -0.0035739 0.01351)
(0.19751 -0.0040285 0.015384)
(0.18343 -0.0043251 0.01652)
(0.16828 -0.0044846 0.017109)
(0.1523 -0.0045126 0.01722)
(0.13592 -0.0044142 0.01686)
(0.11975 -0.0042054 0.016048)