/*--------------------------------*- C++ -*----------------------------------*\
| =========                 |                                                 |
| \\      /  F ield         | OpenFOAM: The Open Source CFD Toolbox           |
|  \\    /   O peration     | Version:  4.1                                   |
|   \\  /    A nd           | Web:      www.OpenFOAM.org                      |
|    \\/     M anipulation  |                                                 |
\*---------------------------------------------------------------------------*/
FoamFile
{
    version     2.0;
    format      ascii;
    class       volScalarField;
    location    "0.000120";
    object      nut;
}
// * * * * * * * * * * * * * * * * * * * * * * * * * * * * * * * * * * * * * //

dimensions      [0 2 -1 0 0 0 0];

internalField   nonuniform List<scalar> 
3072
(
0.00061624349
0.00062243895
0.00062624969
0.00063233141
0.00063646415
0.00064045886
0.00064389338
0.00064459781
0.0006439329
0.00062891557
0.00061229782
0.00058855704
0.0005640322
0.00054067924
0.00051348194
0.00049217867
0.0004694172
0.00045226131
0.00043977726
0.00043018483
0.00043042421
0.00043768792
0.00047250691
0.00068067471
0.00070636389
0.0007081172
0.00070865327
0.00071088068
0.00071236608
0.00071381874
0.0007153569
0.00071484062
0.00071327774
0.00070501363
0.00069490286
0.00068030358
0.00066492223
0.00065004419
0.00063173595
0.00061727073
0.00060147701
0.00058968764
0.00058239821
0.00057753065
0.00058268408
0.00059622685
0.00063601875
0.00077947252
0.00074698587
0.00074531146
0.00074376031
0.00074319773
0.00074304593
0.00074272535
0.00074309793
0.00074180536
0.00074009401
0.00073343954
0.00072569355
0.00071475279
0.00070313161
0.00069278199
0.00067969808
0.00066987382
0.00066042626
0.0006535862
0.00065156938
0.00065125224
0.00065948852
0.00067649357
0.00071371915
0.00080760308
0.00076670889
0.00076127606
0.00075715628
0.00075366068
0.00075145003
0.00074924723
0.00074805004
0.00074612798
0.00074420078
0.00073876492
0.00073315149
0.00072558695
0.00071719021
0.00071047139
0.00070268495
0.00069725375
0.00069378531
0.00069160455
0.00069400645
0.00069878323
0.00070965019
0.00072880762
0.00076129649
0.00082364727
0.0007768138
0.00076725301
0.00075973236
0.00075320432
0.00074823992
0.00074434192
0.00074139944
0.00073897113
0.00073659819
0.00073263237
0.00072893348
0.00072489146
0.00071949346
0.00071587433
0.00071325144
0.00071192856
0.0007134574
0.00071638946
0.00072282632
0.00073305021
0.00074677743
0.00076688443
0.00079526197
0.00083492599
0.0007773377
0.00076313717
0.0007506862
0.0007407381
0.00073241744
0.00072654177
0.00072185697
0.00071877225
0.00071616459
0.00071353087
0.00071159646
0.00071071913
0.0007093988
0.00070904861
0.00071071724
0.0007142473
0.00071994134
0.00072835584
0.00073952998
0.00075415793
0.00077233815
0.00079426179
0.00081941269
0.00084387212
0.00075794911
0.00073582001
0.00071710454
0.00070211061
0.00069033397
0.0006816763
0.00067542342
0.00067120347
0.00066854341
0.00066683648
0.00066641975
0.00066789398
0.00067111874
0.00067569743
0.00068194852
0.00069064824
0.00070216009
0.00071667161
0.00073452819
0.00075558805
0.00077998913
0.00080680928
0.00083380465
0.00085179777
0.00066660688
0.00063690124
0.00061427654
0.00059851119
0.00058829384
0.00058003941
0.00057332561
0.00056814031
0.00056468836
0.00056283991
0.00056300954
0.0005658994
0.00057208574
0.00058137248
0.0005937308
0.00060913917
0.00062735032
0.00064929705
0.00067604167
0.00070812155
0.00074542427
0.00078692703
0.00082954399
0.00086135435
0.00070642348
0.00070810063
0.00070858718
0.0007108031
0.0007122109
0.00071352456
0.00071476242
0.00071405543
0.00071229721
0.00070226634
0.00069191701
0.00067737365
0.00066210862
0.00064744226
0.00062939971
0.00061512332
0.00059968024
0.00058833621
0.00058145113
0.00057687365
0.00058224629
0.00059599338
0.00063599619
0.00077947125
0.00079507838
0.00079468571
0.00079428501
0.00079498428
0.00079552195
0.00079635145
0.00079730791
0.00079724074
0.00079639606
0.00079379912
0.0007905907
0.00078582741
0.00078106866
0.00077632421
0.00077038476
0.00076603064
0.00076096274
0.00075820678
0.0007580905
0.00075950537
0.00076665566
0.00077788705
0.00079910589
0.00084123394
0.00082665103
0.00082625874
0.0008263009
0.00082695405
0.00082778247
0.00082874358
0.00082989935
0.00083012812
0.00082975825
0.00082830267
0.0008263107
0.00082312755
0.00081985784
0.00081673355
0.00081308044
0.00081053514
0.00080818711
0.00080721087
0.00080826885
0.00081033831
0.00081539415
0.00082241523
0.0008327117
0.00084768755
0.00083746174
0.00083663932
0.00083653222
0.00083672259
0.00083727351
0.00083785717
0.00083863692
0.00083873093
0.0008383007
0.00083706769
0.00083556021
0.00083326952
0.000830645
0.00082826205
0.00082572494
0.00082404668
0.00082306241
0.00082286534
0.00082435535
0.00082684123
0.00083090897
0.00083613855
0.00084237659
0.00084951134
0.00084300737
0.00084152783
0.00084083558
0.00084031315
0.00084009256
0.00084009793
0.00084018685
0.00083991616
0.00083913451
0.00083787778
0.00083651539
0.00083487957
0.00083278721
0.00083092551
0.00082941681
0.00082851927
0.00082853863
0.00082923433
0.000831218
0.00083433293
0.00083818429
0.00084260019
0.00084719236
0.00085079439
0.00084430526
0.00084140479
0.00083903227
0.00083700058
0.00083523824
0.00083399722
0.00083295601
0.0008318977
0.00083061425
0.00082916626
0.00082779792
0.0008267015
0.00082559923
0.00082464314
0.00082430908
0.00082482742
0.00082612102
0.00082831003
0.00083154136
0.00083569593
0.00084051522
0.00084539475
0.00084988515
0.00085191475
0.00083119399
0.00082312312
0.00081577405
0.0008092068
0.00080337376
0.00079865087
0.00079457507
0.00079108577
0.00078824516
0.00078596013
0.00078461367
0.00078447432
0.00078527247
0.00078697751
0.00078961411
0.00079346441
0.00079857853
0.00080498519
0.00081272563
0.00082167091
0.00083144172
0.0008410973
0.00084962673
0.00085307354
0.00075892931
0.00073668453
0.00071753155
0.00070234601
0.0006903268
0.00068189224
0.00067556241
0.00067098076
0.00066810106
0.00066648239
0.0006664487
0.00066813733
0.00067168577
0.00067679041
0.000683526
0.00069204522
0.00070328164
0.00071770534
0.00073511013
0.00075615072
0.00078057671
0.00080726575
0.00083399608
0.00085173834
0.00074720451
0.00074546902
0.00074372741
0.00074308788
0.00074276339
0.00074215473
0.00074205327
0.00074035183
0.00073804711
0.0007292293
0.00072081901
0.00070996644
0.00069855621
0.00068858585
0.00067602355
0.00066654385
0.00065748288
0.00065122907
0.00064981569
0.00065003379
0.00065876683
0.00067620844
0.00071381068
0.00080769136
0.0008267784
0.00082631656
0.00082622845
0.00082680519
0.00082752664
0.00082832065
0.00082922097
0.00082925769
0.00082844313
0.00082617439
0.00082373877
0.00082046065
0.00081721777
0.00081427473
0.00081087919
0.0008085097
0.00080639125
0.00080579144
0.00080725627
0.00080969033
0.00081508325
0.00082234751
0.00083279699
0.00084774601
0.00085193642
0.00085334905
0.00085529913
0.00085755081
0.00085980478
0.00086199579
0.00086395656
0.00086500835
0.00086503492
0.00086403632
0.0008624504
0.00086000034
0.00085728545
0.00085443268
0.00085139944
0.00084873405
0.00084622762
0.00084455408
0.0008439694
0.00084410618
0.00084526869
0.00084663328
0.00084828275
0.00085069635
0.00085886286
0.00086105168
0.00086382403
0.00086669401
0.00086948831
0.00087208479
0.00087428835
0.00087553646
0.00087575809
0.00087503547
0.00087363035
0.00087140879
0.0008686304
0.00086556194
0.00086227994
0.00085912243
0.00085611019
0.00085362006
0.0008519883
0.00085104811
0.0008507237
0.0008504756
0.00085041534
0.00085109028
0.00086186478
0.00086434968
0.0008674307
0.0008704772
0.00087332162
0.00087589463
0.00087792595
0.00087901035
0.00087905787
0.00087823492
0.0008767162
0.00087451171
0.0008716346
0.00086842556
0.00086510922
0.00086178133
0.00085863818
0.00085595886
0.00085400376
0.00085272177
0.00085194443
0.00085130552
0.00085104929
0.00085136645
0.00086104586
0.00086287515
0.00086519542
0.00086746448
0.00086952291
0.0008712836
0.0008725295
0.00087299507
0.00087260235
0.00087157179
0.00087001086
0.00086800534
0.00086555808
0.00086289551
0.00086028536
0.000857762
0.00085541215
0.00085355201
0.00085229676
0.00085158459
0.000851367
0.00085128213
0.00085156774
0.00085175262
0.00084452239
0.00084155045
0.0008391837
0.00083714217
0.00083544137
0.00083412438
0.00083289953
0.00083174871
0.00083040973
0.0008291301
0.00082787399
0.0008268827
0.00082601323
0.0008253508
0.00082526358
0.00082569509
0.00082666143
0.00082867909
0.0008317415
0.00083574862
0.00084048058
0.00084529398
0.0008497798
0.00085187413
0.00077784202
0.00076355744
0.00075098402
0.00074090905
0.0007325932
0.0007266466
0.00072164099
0.00071825639
0.0007154498
0.00071312566
0.00071141854
0.00071094715
0.00071040609
0.00071047828
0.00071234023
0.00071548015
0.00072079237
0.00072891438
0.00073975457
0.00075420738
0.00077221822
0.00079402683
0.00081921347
0.00084381316
0.00076713205
0.000761599
0.00075721533
0.00075354003
0.00075113708
0.00074861168
0.00074703692
0.00074450236
0.00074202522
0.00073459929
0.00072792002
0.00072050313
0.00071250691
0.0007062846
0.00069898857
0.00069379941
0.00069052388
0.0006888074
0.00069176002
0.00069716135
0.00070866252
0.00072838836
0.00076131608
0.00082375942
0.00083776226
0.000836828
0.00083647649
0.00083649811
0.0008369143
0.00083727073
0.00083777255
0.00083751047
0.00083662071
0.00083446147
0.00083233035
0.00082985112
0.00082734483
0.00082529495
0.00082313685
0.00082168055
0.00082093559
0.00082117546
0.00082312086
0.00082604482
0.00083052657
0.00083604703
0.00084247449
0.00084960225
0.00085896059
0.00086108651
0.00086374992
0.00086654757
0.00086929963
0.00087180661
0.00087389306
0.00087501892
0.00087506856
0.00087414381
0.00087263653
0.00087040496
0.00086773758
0.00086484974
0.00086175303
0.00085870712
0.00085579092
0.00085344021
0.00085191776
0.00085104588
0.00085076853
0.00085052741
0.00085048515
0.00085114109
0.00086445764
0.00086767974
0.00087142855
0.00087513915
0.00087862515
0.00088173258
0.00088422653
0.00088568938
0.00088600158
0.00088531935
0.00088381126
0.00088143359
0.0008783808
0.00087487549
0.00087109075
0.00086714239
0.00086316893
0.0008596254
0.00085680465
0.00085467439
0.00085313888
0.00085178066
0.00085089808
0.00085115747
0.00086575035
0.00086923623
0.00087324961
0.00087711973
0.00088063855
0.00088369483
0.00088607434
0.00088741826
0.00088761743
0.0008868396
0.00088519107
0.00088269074
0.0008794603
0.00087577235
0.00087186334
0.00086776699
0.00086367593
0.00086001717
0.00085702738
0.00085471956
0.00085304561
0.00085165161
0.00085084833
0.00085117584
0.00086205583
0.0008646341
0.00086778327
0.00087084538
0.00087358724
0.00087593315
0.0008777206
0.0008786341
0.00087858192
0.0008777208
0.00087616907
0.00087397541
0.00087114647
0.00086805473
0.00086487537
0.00086161533
0.00085850208
0.00085586683
0.00085389303
0.00085252539
0.00085174961
0.00085118754
0.00085100311
0.00085135615
0.00084339704
0.00084195001
0.00084126186
0.00084074866
0.00084041039
0.00084011972
0.00083983931
0.00083928436
0.00083839107
0.00083717602
0.00083587468
0.00083444717
0.0008326665
0.00083119665
0.00082987716
0.00082889731
0.00082864262
0.00082915383
0.00083094951
0.00083378052
0.00083754937
0.00084205791
0.00084685829
0.00085071814
0.00077741202
0.00076786023
0.00076028309
0.00075375081
0.00074860508
0.00074433858
0.00074092512
0.00073803384
0.00073548495
0.00073175918
0.00072827285
0.00072484152
0.00072009427
0.00071685331
0.00071434366
0.00071278515
0.00071382717
0.00071631372
0.00072252818
0.00073237053
0.0007459733
0.0007661881
0.00079487534
0.00083484773
0.00077727017
0.00076758823
0.00075981952
0.00075300737
0.00074794088
0.00074379448
0.00074056042
0.0007376823
0.00073501374
0.00072968969
0.00072463448
0.00072028493
0.00071531234
0.00071213356
0.00070972707
0.00070839567
0.00070995718
0.00071321972
0.00072011867
0.00073091423
0.00074535351
0.00076617144
0.0007951301
0.00083499077
0.00084334896
0.00084173493
0.00084077658
0.00084003536
0.00083976459
0.00083961041
0.00083950016
0.00083897932
0.00083795294
0.00083598187
0.0008339859
0.00083203746
0.00083001489
0.000828437
0.00082715906
0.00082634394
0.00082651226
0.00082756022
0.00082990366
0.00083338431
0.00083762776
0.0008423591
0.00084720387
0.0008508603
0.00086195739
0.00086435009
0.00086728944
0.00087026001
0.00087312997
0.00087565754
0.00087761061
0.00087861562
0.00087857514
0.00087763024
0.00087608981
0.00087394671
0.00087125111
0.00086822519
0.00086502061
0.00086172114
0.00085862233
0.00085601296
0.00085406781
0.00085277077
0.00085198406
0.00085131845
0.00085110691
0.00085142463
0.00086561587
0.00086906645
0.00087307481
0.00087696883
0.00088052551
0.00088358701
0.0008859555
0.00088730441
0.00088755613
0.00088687653
0.00088537645
0.00088305618
0.00087999389
0.00087640236
0.00087250516
0.00086836305
0.00086421374
0.00086047421
0.00085736663
0.00085494257
0.00085316973
0.0008516951
0.00085088895
0.00085121801
0.00086447937
0.00086787145
0.00087179585
0.00087556445
0.00087893164
0.0008817933
0.00088406539
0.00088538538
0.00088563312
0.00088491927
0.00088338057
0.00088098055
0.00087790792
0.00087440313
0.000870661
0.0008667457
0.00086285063
0.00085940264
0.00085656602
0.00085438664
0.00085289411
0.00085164297
0.0008508553
0.00085115178
0.00085915098
0.00086154305
0.00086451288
0.0008674137
0.0008700243
0.00087222695
0.00087401739
0.00087497007
0.00087502975
0.00087420651
0.00087273131
0.00087049869
0.00086776019
0.00086479511
0.00086168671
0.00085860753
0.00085565588
0.00085329704
0.00085162646
0.00085056841
0.00085027949
0.00085019512
0.00085031696
0.00085108175
0.00083799052
0.00083729455
0.00083733693
0.00083747503
0.00083778408
0.00083790703
0.00083815408
0.00083782022
0.00083720063
0.00083591268
0.00083441813
0.0008323004
0.00082988922
0.00082771862
0.0008253125
0.00082354023
0.00082223486
0.00082193252
0.00082314682
0.00082527554
0.00082925777
0.00083472284
0.00084155082
0.00084937546
0.00076739703
0.00076204356
0.00075808581
0.00075448231
0.00075194715
0.0007492368
0.00074744633
0.00074494328
0.00074280279
0.00073752769
0.00073213391
0.00072501476
0.00071704955
0.00071060392
0.00070290447
0.00069729195
0.00069314988
0.00069077575
0.000692886
0.00069722234
0.00070793182
0.00072724422
0.00076037433
0.00082349985
0.00077769181
0.00076339555
0.00075072071
0.00074054146
0.00073215056
0.00072615915
0.00072127994
0.00071797865
0.0007151387
0.00071218962
0.00070886039
0.00070678962
0.00070514518
0.0007048531
0.00070644499
0.00070958481
0.00071528871
0.0007240384
0.00073573037
0.00075108218
0.00077019463
0.00079306728
0.00081900627
0.00084384666
0.00084454902
0.00084150887
0.00083893198
0.00083677483
0.00083500645
0.00083371251
0.00083255341
0.00083143844
0.00082995051
0.00082812354
0.00082611956
0.00082440268
0.00082291175
0.0008217125
0.00082120483
0.00082152781
0.00082290578
0.00082551074
0.0008292332
0.00083394953
0.00083939616
0.00084481433
0.00084973451
0.00085193429
0.00086096381
0.00086272778
0.00086496752
0.00086723718
0.00086937185
0.00087115797
0.0008724076
0.00087288982
0.00087249113
0.00087143438
0.00086984256
0.00086778871
0.00086528886
0.00086245867
0.00085958275
0.00085686766
0.00085455054
0.00085275939
0.00085156086
0.00085099663
0.0008509771
0.00085105927
0.00085154127
0.00085179035
0.00086173424
0.00086428968
0.00086743234
0.00087054573
0.00087337919
0.00087577824
0.00087758499
0.00087855238
0.00087862521
0.00087795772
0.00087659491
0.00087454192
0.00087174448
0.00086853318
0.00086512532
0.00086166968
0.000858505
0.00085578074
0.00085368727
0.00085231075
0.00085158341
0.00085107591
0.0008510096
0.00085140371
0.0008588801
0.00086127472
0.00086426735
0.00086721523
0.00086987056
0.00087208084
0.00087385998
0.00087482375
0.00087495822
0.00087425103
0.00087287621
0.00087067536
0.00086790178
0.00086484642
0.00086158499
0.00085839908
0.00085543654
0.0008530305
0.00085133061
0.00085033211
0.00085013863
0.00085012178
0.0008503167
0.00085110948
0.00085213407
0.00085383532
0.00085608924
0.00085843794
0.00086054962
0.00086234346
0.00086386932
0.00086463203
0.00086469455
0.00086381338
0.00086229863
0.00085983802
0.00085705635
0.00085412875
0.00085105696
0.00084826746
0.00084566294
0.00084389236
0.00084303276
0.00084295152
0.00084413465
0.00084576417
0.00084786714
0.0008506463
0.00082714693
0.00082695315
0.00082723095
0.00082786822
0.00082848291
0.00082898899
0.00082958604
0.00082941985
0.00082904589
0.00082767209
0.00082576165
0.00082257812
0.00081923017
0.00081595171
0.00081213487
0.00080920375
0.00080625531
0.00080480322
0.00080518295
0.00080667475
0.00081150505
0.00081892107
0.00083058809
0.00084736142
0.00074757778
0.00074603244
0.00074474786
0.0007440824
0.00074362507
0.00074282168
0.00074257025
0.00074075582
0.00073903318
0.0007325531
0.00072508886
0.00071424417
0.00070272873
0.00069231537
0.00067913838
0.00066901253
0.00065883492
0.00065165931
0.00064911125
0.00064827899
0.00065619066
0.00067330589
0.0007116482
0.00080723569
0.00075852937
0.00073624868
0.00071710339
0.00070205971
0.00069012067
0.00068138106
0.00067514113
0.00067080921
0.00066784246
0.00066632457
0.00066556689
0.00066563299
0.00066727443
0.00067086476
0.00067631929
0.0006843169
0.00069564644
0.00071054099
0.00072886184
0.00075097582
0.00077683308
0.00080506014
0.00083314046
0.00085169722
0.00083119227
0.0008232557
0.00081579988
0.00080913814
0.00080328633
0.0007984618
0.00079442361
0.00079097116
0.00078807742
0.00078551383
0.0007836387
0.00078260763
0.00078231149
0.00078288281
0.00078468361
0.00078801148
0.00079313618
0.00079998219
0.00080843226
0.0008183465
0.00082925213
0.0008399557
0.00084927224
0.00085306728
0.00084421378
0.00084126285
0.00083887945
0.00083688317
0.00083529471
0.000834045
0.00083295629
0.00083193077
0.00083067637
0.00082942603
0.00082803337
0.00082666259
0.00082505424
0.00082348325
0.00082256489
0.00082255678
0.00082358942
0.00082572555
0.00082905161
0.00083359491
0.0008390631
0.00084457517
0.00084960671
0.00085190282
0.00084296837
0.00084159331
0.00084094898
0.00084051671
0.00084029941
0.00084010669
0.00083990998
0.00083948916
0.00083870659
0.00083766725
0.0008364649
0.00083481748
0.00083247018
0.00083033654
0.00082845989
0.00082712719
0.0008268237
0.00082725284
0.00082905597
0.00083224816
0.00083655392
0.00084154638
0.0008467436
0.00085075243
0.00083753296
0.00083691809
0.0008370367
0.00083728556
0.00083770206
0.00083786482
0.00083812948
0.0008378488
0.00083728085
0.00083610848
0.00083462939
0.0008322343
0.00082939692
0.00082680395
0.00082403203
0.0008220099
0.00082067029
0.00082026025
0.00082150489
0.0008240055
0.00082849558
0.00083435943
0.00084147626
0.00084940306
0.00082683418
0.00082669509
0.00082702068
0.00082772583
0.00082839979
0.0008289239
0.00082954799
0.0008293884
0.00082902387
0.00082767225
0.00082564375
0.00082224296
0.00081864895
0.000815156
0.00081114175
0.00080807057
0.00080510691
0.00080361674
0.00080404436
0.00080581163
0.00081100257
0.00081870066
0.00083055408
0.00084737163
0.00079547683
0.00079540498
0.0007952101
0.00079590575
0.00079630626
0.00079681418
0.00079738521
0.0007970099
0.00079664257
0.00079487558
0.00079184066
0.0007866858
0.00078130944
0.0007756958
0.0007687419
0.00076309343
0.00075655977
0.0007523547
0.00075062619
0.00075085437
0.00075736575
0.00076916556
0.00079326316
0.00084017227
0.00070680264
0.0007087366
0.00070952783
0.00071166371
0.00071291763
0.00071403538
0.00071509592
0.00071414493
0.00071291977
0.00070535478
0.00069549218
0.00068057626
0.00066476331
0.00064926934
0.00063028353
0.0006150118
0.0005981569
0.00058566892
0.0005775298
0.00057199961
0.00057665419
0.0005902987
0.00063164839
0.00077835945
0.00066640701
0.00063669658
0.00061398652
0.00059822571
0.00058781612
0.00058006905
0.00057327718
0.00056819309
0.000564763
0.00056293817
0.000562971
0.00056562439
0.00057082455
0.00057865637
0.00058882061
0.00060242136
0.00062002436
0.00064214428
0.00066939156
0.00070236295
0.00074111605
0.00078432696
0.00082841016
0.00086113608
0.00075832125
0.00073605868
0.00071709239
0.00070199203
0.00069011347
0.00068172321
0.00067553966
0.00067128931
0.00066856819
0.00066693159
0.00066663466
0.00066756274
0.00066955763
0.00067287273
0.00067824167
0.00068599542
0.0006970068
0.00071142763
0.00072935835
0.00075124809
0.00077698898
0.00080516553
0.00083317502
0.0008516418
0.00077741221
0.00076323361
0.00075078219
0.00074079304
0.00073253919
0.00072665127
0.00072187146
0.00071879656
0.00071617761
0.00071389505
0.00071205042
0.00071074192
0.00070880867
0.00070788035
0.00070888443
0.00071167869
0.00071672274
0.00072467913
0.00073563824
0.00075060598
0.00076966073
0.00079252659
0.00081866211
0.00084374914
0.0007769551
0.00076757055
0.00076011734
0.00075368859
0.00074865136
0.00074450793
0.00074122723
0.0007386023
0.00073615239
0.00073258901
0.00072916279
0.0007249787
0.00071940617
0.00071544866
0.00071238711
0.00071039011
0.00071115571
0.00071338939
0.00071943232
0.00072967634
0.00074403884
0.00076501495
0.00079439102
0.00083478807
0.00076696659
0.00076176928
0.00075792581
0.00075445626
0.00075206139
0.00074941731
0.00074767258
0.00074530675
0.0007431901
0.00073801931
0.00073256669
0.00072496428
0.00071641335
0.00070939248
0.00070137403
0.00069543612
0.00069114983
0.00068845541
0.00069040681
0.00069513387
0.00070646028
0.00072635524
0.0007600193
0.00082347479
0.00074727673
0.00074581601
0.00074458852
0.0007440094
0.00074365676
0.00074289435
0.000742708
0.00074093864
0.00073920508
0.00073275712
0.0007250646
0.00071390678
0.00070196685
0.00069123106
0.00067785097
0.00066751198
0.00065725567
0.0006499356
0.00064729541
0.00064676877
0.00065512466
0.00067267072
0.0007114246
0.0008071985
0.00070670461
0.00070867394
0.00070944041
0.00071159757
0.00071289504
0.00071403402
0.00071514484
0.00071421576
0.0007129963
0.00070544773
0.00069540499
0.00068035579
0.00066433196
0.00064869871
0.00062960137
0.00061421003
0.0005973322
0.00058484291
0.00057665878
0.00057126916
0.00057610556
0.00058995299
0.00063151972
0.000778316
0.00061643141
0.00062297879
0.0006268523
0.00063280939
0.00063675868
0.00064059388
0.00064381497
0.00064418933
0.00064372315
0.0006312147
0.00061513265
0.00059126756
0.00056660031
0.00054308334
0.00051563013
0.00049411846
0.00047083904
0.00045348022
0.00044059339
0.0004307456
0.00043078904
0.00043785361
0.00047274632
0.00068088534
0.00035458569
0.00024295358
0.00023468874
0.00023376783
0.00023404226
0.00023830115
0.00024361841
0.00025126804
0.00026175486
0.00027202762
0.00028640918
0.00029866005
0.00031336815
0.00032759054
0.00033903011
0.00034969971
0.00034665804
0.00034460806
0.00034052551
0.00033593291
0.00033197164
0.00032604652
0.00032250082
0.00031756295
0.0004476882
0.00030930096
0.00029410174
0.00028998199
0.00028861705
0.00029221942
0.0002967593
0.00030424867
0.00031443799
0.00032455727
0.00033879137
0.00035043397
0.0003645914
0.00037822887
0.00038926245
0.0003998168
0.0003976057
0.00039652364
0.0003932737
0.00039007553
0.00038720151
0.00038317197
0.00038160803
0.00037851861
0.00052140826
0.00037574648
0.00035274865
0.00034400931
0.0003401123
0.0003417261
0.00034363444
0.00034915385
0.00035652666
0.00036459887
0.00037638463
0.00038530144
0.00039695163
0.00040809517
0.00041762666
0.00042683254
0.00042631847
0.00042687427
0.00042543396
0.00042497565
0.00042435803
0.000424035
0.00042556476
0.00042665509
0.0005889438
0.00044270116
0.00041239514
0.00039712807
0.00038930547
0.00038637567
0.00038461164
0.00038679641
0.00038949821
0.00039419924
0.0004012006
0.00040693103
0.00041522685
0.00042294855
0.00043046862
0.00043748331
0.00043847343
0.0004405156
0.00044148115
0.00044413788
0.00044659585
0.00045092902
0.00045631817
0.00046371232
0.00065279805
0.00051453931
0.00047341934
0.00045003147
0.00043572835
0.00042486834
0.00041809286
0.00041431395
0.00041186661
0.0004123675
0.000413411
0.00041578846
0.00042044476
0.00042427443
0.00042904698
0.00043328211
0.00043538985
0.00043808042
0.00044176283
0.00044686726
0.00045314362
0.00046203517
0.00047258971
0.00048736666
0.00071619011
0.00059295158
0.00053810076
0.00050042527
0.00047395955
0.00045397578
0.0004385863
0.00042781518
0.00041996919
0.00041425117
0.00041107342
0.00041029994
0.00040977945
0.00041100047
0.00041246436
0.00041477089
0.00041734699
0.00042052076
0.00042552299
0.00043219241
0.00044127362
0.00045359405
0.00046939243
0.00049044915
0.0007184669
0.00063985808
0.00057105663
0.00051892403
0.00048041102
0.00045166445
0.00043009554
0.00041410719
0.0004021868
0.00039345284
0.00038730623
0.00038354606
0.00038050644
0.00037919409
0.00037941112
0.0003806844
0.00038286658
0.00038554469
0.0003898149
0.00039622641
0.00040557654
0.00041863683
0.00043633991
0.00046028038
0.00061739782
0.00055270399
0.00049442727
0.00044933322
0.00041552841
0.00039026017
0.00037145518
0.00035748538
0.00034721958
0.00033958752
0.00033346025
0.00032930386
0.00032705599
0.0003264256
0.00032639318
0.00032648479
0.00032643425
0.00032380538
0.00032201706
0.00032296695
0.00032718739
0.00033515301
0.00034783463
0.00036649125
8.9698511e-05
8.6695203e-05
8.5217036e-05
8.4206237e-05
8.3427495e-05
8.2760205e-05
8.2162019e-05
8.1617729e-05
8.1127578e-05
8.0688423e-05
8.030652e-05
7.9984915e-05
7.9729256e-05
7.9545075e-05
7.9433417e-05
7.9395186e-05
7.9424125e-05
7.9509127e-05
7.9650093e-05
7.9851379e-05
8.0116464e-05
8.0452039e-05
8.0865652e-05
8.1364879e-05
9.730528e-05
9.5140552e-05
9.3913813e-05
9.302904e-05
9.2330951e-05
9.1726675e-05
9.1184925e-05
9.069148e-05
9.0247231e-05
8.9851648e-05
8.9512439e-05
8.9232545e-05
8.9018174e-05
8.8874411e-05
8.8802777e-05
8.8801796e-05
8.8865265e-05
8.8980329e-05
8.9147076e-05
8.936996e-05
8.9651458e-05
8.9998428e-05
9.0417135e-05
9.0914982e-05
0.00010102984
0.00010026403
9.9589464e-05
9.9059342e-05
9.8638364e-05
9.8281073e-05
9.795973e-05
9.7667415e-05
9.7405466e-05
9.7176643e-05
9.6989888e-05
9.6848699e-05
9.6759882e-05
9.672708e-05
9.6751008e-05
9.6828927e-05
9.6950982e-05
9.7106121e-05
9.7293452e-05
9.751644e-05
9.7776578e-05
9.8080202e-05
9.8432395e-05
9.8840023e-05
0.00010080099
0.00010169042
0.00010173098
0.00010172715
0.00010173463
0.00010176668
0.00010181161
0.0001018644
0.0001019251
0.00010199494
0.00010207913
0.00010217959
0.00010230064
0.00010244492
0.00010261181
0.00010279533
0.00010298387
0.00010316815
0.00010334754
0.00010352507
0.00010370254
0.00010388439
0.00010407567
0.0001042843
9.706575e-05
9.955225e-05
0.00010027225
0.00010079286
0.00010127946
0.00010177291
0.00010226275
0.00010274592
0.00010322121
0.00010368428
0.00010413135
0.00010455739
0.00010495963
0.00010533578
0.0001056794
0.00010598283
0.00010623611
0.00010642952
0.00010656482
0.0001066445
0.00010667223
0.00010665231
0.00010659383
0.00010651061
9.0571329e-05
9.4349396e-05
9.5562573e-05
9.6490451e-05
9.736345e-05
9.8246722e-05
9.9147825e-05
0.00010005256
0.00010094209
0.00010180117
0.00010262095
0.00010338859
0.00010408885
0.00010470982
0.00010523427
0.0001056555
0.00010595982
0.00010614088
0.00010620293
0.00010614761
0.00010598197
0.00010571658
0.00010536877
0.00010496223
8.2218018e-05
8.6873352e-05
8.8321374e-05
8.9463687e-05
9.055767e-05
9.1676469e-05
9.2825776e-05
9.399284e-05
9.5155892e-05
9.6292425e-05
9.7378728e-05
9.8388774e-05
9.9300753e-05
0.00010009502
0.00010074711
0.00010124317
0.00010156806
0.0001017166
0.00010169346
0.00010150145
0.0001011543
0.00010066762
0.00010007196
9.9397521e-05
7.270315e-05
7.7786726e-05
7.9243069e-05
8.0413739e-05
8.1543796e-05
8.2703086e-05
8.3901043e-05
8.5124283e-05
8.6349192e-05
8.7550561e-05
8.870077e-05
8.9774265e-05
9.0744018e-05
9.1582364e-05
9.2259509e-05
9.275623e-05
9.3055609e-05
9.3152506e-05
9.3056608e-05
9.2780087e-05
9.2339747e-05
9.1757198e-05
9.1061699e-05
9.0291891e-05
0.00061729767
0.00055266405
0.00049441818
0.00044932031
0.00041548925
0.00039020556
0.00037138381
0.00035739412
0.00034716607
0.00033949517
0.00033332664
0.00032913371
0.00032683589
0.00032618912
0.00032615184
0.00032619328
0.00032622562
0.00032346729
0.00032167394
0.00032261688
0.00032685357
0.00033493995
0.00034772203
0.00036636468
0.00071858837
0.00063987157
0.00057113301
0.00051896024
0.00048042431
0.00045168631
0.00043008509
0.00041407613
0.00040216709
0.00039338088
0.000387123
0.00038313998
0.00038002783
0.00037849014
0.00037860478
0.00037991143
0.0003821802
0.00038502117
0.00038929052
0.00039580294
0.00040544029
0.00041864602
0.00043642985
0.00046020275
0.00071652766
0.00059320449
0.00053864457
0.00050089195
0.00047434357
0.0004542826
0.0004388864
0.00042812631
0.0004203237
0.00041455321
0.00041116851
0.0004100973
0.00040918555
0.00041003941
0.00041152088
0.00041376449
0.00041647503
0.00041980649
0.00042492307
0.00043169435
0.00044100467
0.0004534396
0.00046927792
0.0004902843
0.00065295699
0.00051467047
0.00047364182
0.00045029351
0.00043610776
0.00042525935
0.0004184669
0.00041475988
0.00041237092
0.00041283963
0.00041370454
0.00041580162
0.00042004115
0.00042322935
0.00042786886
0.00043213029
0.00043434376
0.00043724875
0.000441101
0.00044637718
0.00045284315
0.00046181031
0.00047241395
0.00048716947
0.00058878616
0.00044258566
0.00041237524
0.00039727052
0.00038955119
0.00038675553
0.00038501881
0.00038719826
0.00039002716
0.0003945596
0.00040141413
0.00040692297
0.00041490181
0.00042207097
0.00042935913
0.0004362778
0.00043736657
0.00043963233
0.00044079432
0.00044364163
0.00044630057
0.00045075211
0.00045614314
0.00046355492
0.00052121985
0.00037552781
0.0003526036
0.00034404787
0.00034028224
0.00034201806
0.00034397493
0.00034947293
0.00035692994
0.00036478787
0.00037645971
0.00038524767
0.00039675394
0.00040770362
0.00041703784
0.00042586386
0.00042535269
0.00042609879
0.00042481662
0.00042451868
0.00042408615
0.00042389315
0.00042539951
0.00042651249
0.0004474586
0.00030903327
0.00029386472
0.00028991189
0.00028868041
0.00029239501
0.00029697964
0.00030443643
0.00031469098
0.00032475991
0.00033898773
0.00035061503
0.00036478604
0.0003784709
0.00038938371
0.00039914213
0.00039691197
0.00039597411
0.00039279725
0.00038970363
0.00038697742
0.00038306968
0.00038157629
0.00037839313
0.00035446536
0.00024279625
0.00023450933
0.00023368577
0.00023404915
0.00023838117
0.00024377649
0.00025142839
0.00026198805
0.00027227847