/*--------------------------------*- C++ -*----------------------------------*\
| =========                 |                                                 |
| \\      /  F ield         | foam-extend: Open Source CFD                    |
|  \\    /   O peration     | Version:     4.1-20200408                       |
|   \\  /    A nd           | Web:         http://www.foam-extend.org         |
|    \\/     M anipulation  |                                                 |
\*---------------------------------------------------------------------------*/
FoamFile
{
    version     2.0;
    format      ascii;
    class       volScalarField;
    location    "0.0735000";
    object      ccy;
}
// * * * * * * * * * * * * * * * * * * * * * * * * * * * * * * * * * * * * * //

dimensions      [0 1 0 0 0 0 0];

internalField   nonuniform List<scalar> 
1952
(
6.92041e-05
0.000112709
0.000156785
0.000201057
0.000245426
0.000289851
0.000334316
0.000378815
0.000423341
0.000467896
0.00051248
0.000557098
0.000601753
0.000646444
0.000691161
2.96581e-05
6.9199e-05
0.0001127
0.000156773
0.000201042
0.000245407
0.00028983
0.000334294
0.00037879
0.000423315
0.000467868
0.000512451
0.00055707
0.000601726
0.000646419
0.000691136
2.96561e-05
6.91969e-05
0.000112697
0.000156768
0.000201037
0.0002454
0.000289821
0.000334282
0.000378778
0.000423301
0.000467854
0.000512434
0.000557051
0.000601706
0.000646396
0.000691113
2.96552e-05
6.91946e-05
0.000112693
0.000156763
0.000201029
0.000245392
0.000289811
0.000334272
0.000378764
0.000423286
0.000467837
0.000512416
0.000557031
0.000601684
0.000646374
0.000691087
2.96542e-05
6.91929e-05
0.000112689
0.000156757
0.000201021
0.000245384
0.000289801
0.000334258
0.00037875
0.000423271
0.000467819
0.000512397
0.000557011
0.000601662
0.000646349
0.000691063
2.96531e-05
6.91888e-05
0.000112685
0.000156751
0.000201015
0.000245373
0.00028979
0.000334247
0.000378736
0.000423255
0.000467801
0.000512379
0.000556989
0.00060164
0.000646326
0.000691038
2.9652e-05
6.91876e-05
0.00011268
0.000156745
0.000201006
0.000245365
0.000289778
0.000334234
0.000378722
0.000423239
0.000467784
0.000512358
0.000556969
0.000601617
0.000646302
0.000691014
2.96508e-05
6.91834e-05
0.000112676
0.000156739
0.000200999
0.000245354
0.000289768
0.000334221
0.000378708
0.000423223
0.000467766
0.00051234
0.000556949
0.000601596
0.00064628
0.00069099
2.96497e-05
6.91815e-05
0.000112672
0.000156733
0.000200991
0.000245345
0.000289756
0.000334209
0.000378694
0.000423207
0.00046775
0.000512323
0.000556929
0.000601576
0.000646259
0.000690968
2.9649e-05
6.9179e-05
0.000112668
0.000156728
0.000200984
0.000245337
0.000289746
0.000334197
0.000378681
0.000423193
0.000467733
0.000512305
0.000556912
0.000601557
0.000646239
0.000690947
2.9647e-05
6.91766e-05
0.000112663
0.000156723
0.000200978
0.000245328
0.000289737
0.000334187
0.000378668
0.00042318
0.00046772
0.00051229
0.000556895
0.00060154
0.000646221
0.000690929
2.96464e-05
6.91745e-05
0.00011266
0.000156718
0.000200972
0.000245321
0.000289729
0.000334177
0.000378658
0.000423168
0.000467707
0.000512276
0.000556881
0.000601524
0.000646205
0.000690912
2.96455e-05
6.91727e-05
0.000112657
0.000156713
0.000200967
0.000245314
0.000289722
0.000334168
0.000378648
0.000423159
0.000467696
0.000512265
0.000556868
0.000601511
0.000646191
0.000690897
2.96448e-05
6.91718e-05
0.000112655
0.00015671
0.000200962
0.000245309
0.000289715
0.000334161
0.000378641
0.00042315
0.000467687
0.000512255
0.000556858
0.0006015
0.000646179
0.000690884
2.96441e-05
6.91693e-05
0.000112653
0.000156707
0.000200958
0.000245305
0.00028971
0.000334156
0.000378635
0.000423143
0.000467679
0.000512247
0.000556849
0.000601491
0.000646169
0.000690874
2.96436e-05
6.91691e-05
0.000112652
0.000156706
0.000200956
0.000245303
0.000289706
0.000334152
0.00037863
0.000423137
0.000467673
0.00051224
0.000556842
0.000601483
0.000646161
0.000690865
2.96432e-05
6.91685e-05
0.000112651
0.000156704
0.000200954
0.0002453
0.000289705
0.000334149
0.000378626
0.000423133
0.000467669
0.000512235
0.000556836
0.000601476
0.000646154
0.000690857
2.9643e-05
6.91681e-05
0.00011265
0.000156703
0.000200953
0.000245299
0.000289702
0.000334146
0.000378624
0.00042313
0.000467665
0.000512231
0.000556831
0.000601471
0.000646147
0.00069085
2.96433e-05
6.91678e-05
0.000112649
0.000156703
0.000200952
0.000245298
0.000289701
0.000334145
0.000378622
0.000423128
0.000467663
0.000512227
0.000556828
0.000601467
0.000646143
0.000690844
2.96422e-05
6.91678e-05
0.000112649
0.000156702
0.000200952
0.000245298
0.000289699
0.000334143
0.000378621
0.000423125
0.00046766
0.000512225
0.000556825
0.000601462
0.000646138
0.000690839
2.96427e-05
6.91685e-05
0.000112649
0.000156702
0.000200952
0.000245296
0.000289701
0.000334143
0.000378619
0.000423126
0.000467659
0.000512223
0.000556821
0.000601461
0.000646135
0.000690834
2.96427e-05
6.9167e-05
0.000112649
0.000156702
0.000200952
0.000245298
0.000289699
0.000334142
0.000378619
0.000423124
0.000467657
0.000512221
0.00055682
0.000601457
0.000646131
0.00069083
2.96427e-05
6.91677e-05
0.000112649
0.000156702
0.000200951
0.000245296
0.000289699
0.000334142
0.000378617
0.000423122
0.000467656
0.000512219
0.000556818
0.000601453
0.000646127
0.000690826
2.96427e-05
6.91684e-05
0.000112649
0.000156702
0.000200951
0.000245296
0.000289698
0.000334141
0.000378617
0.000423121
0.000467654
0.000512218
0.000556814
0.000601452
0.000646123
0.000690821
2.96426e-05
6.91668e-05
0.000112649
0.000156701
0.00020095
0.000245295
0.000289698
0.000334139
0.000378616
0.000423119
0.000467652
0.000512214
0.000556812
0.000601447
0.000646119
0.000690816
2.96431e-05
6.91673e-05
0.000112648
0.000156701
0.00020095
0.000245294
0.000289696
0.000334138
0.000378614
0.000423117
0.00046765
0.000512212
0.000556808
0.000601443
0.000646115
0.000690812
2.96425e-05
6.91669e-05
0.000112649
0.0001567
0.000200949
0.000245293
0.000289695
0.000334137
0.000378611
0.000423115
0.000467647
0.000512208
0.000556804
0.000601439
0.00064611
0.000690805
2.96418e-05
6.91672e-05
0.000112646
0.000156699
0.000200948
0.000245291
0.000289693
0.000334135
0.000378609
0.000423112
0.000467643
0.000512205
0.000556799
0.000601435
0.000646104
0.000690799
2.96421e-05
6.9165e-05
0.000112647
0.000156698
0.000200946
0.00024529
0.00028969
0.00033413
0.000378605
0.000423109
0.000467639
0.000512199
0.000556795
0.000601428
0.000646098
0.000690792
2.96418e-05
6.91649e-05
0.000112644
0.000156696
0.000200942
0.000245287
0.000289687
0.000334127
0.000378602
0.000423103
0.000467634
0.000512195
0.000556789
0.000601422
0.000646091
0.000690785
2.96414e-05
6.91637e-05
0.000112643
0.000156694
0.00020094
0.000245282
0.000289683
0.000334124
0.000378596
0.000423098
0.000467629
0.000512188
0.000556782
0.000601414
0.000646084
0.000690776
2.96409e-05
6.9163e-05
0.00011264
0.00015669
0.000200936
0.000245279
0.000289677
0.000334117
0.000378589
0.000423092
0.000467621
0.00051218
0.000556774
0.000601407
0.000646074
0.000690767
2.96403e-05
6.91604e-05
0.000112638
0.000156686
0.000200931
0.000245272
0.000289671
0.00033411
0.000378583
0.000423083
0.000467612
0.000512172
0.000556766
0.000601397
0.000646065
0.000690757
2.96395e-05
6.91573e-05
0.000112634
0.000156681
0.000200924
0.000245264
0.000289662
0.000334101
0.000378572
0.000423073
0.000467602
0.000512162
0.000556754
0.000601386
0.000646053
0.000690745
2.96385e-05
6.91552e-05
0.000112628
0.000156674
0.000200916
0.000245254
0.000289652
0.000334089
0.00037856
0.00042306
0.000467589
0.000512147
0.000556741
0.000601372
0.000646039
0.00069073
2.96373e-05
6.91511e-05
0.000112622
0.000156665
0.000200906
0.000245243
0.000289638
0.000334074
0.000378544
0.000423044
0.000467572
0.000512131
0.000556724
0.000601355
0.000646021
0.000690712
2.96355e-05
6.9146e-05
0.000112615
0.000156655
0.000200893
0.000245227
0.00028962
0.000334055
0.000378523
0.000423022
0.00046755
0.000512109
0.000556702
0.000601333
0.000645999
0.000690689
2.96333e-05
6.91397e-05
0.000112604
0.000156641
0.000200875
0.000245207
0.000289597
0.00033403
0.000378497
0.000422995
0.000467522
0.000512081
0.000556674
0.000601305
0.000645972
0.000690662
2.96306e-05
6.91318e-05
0.000112592
0.000156623
0.000200853
0.000245181
0.000289568
0.000333998
0.000378464
0.00042296
0.000467486
0.000512045
0.000556638
0.00060127
0.000645937
0.000690627
2.96272e-05
6.91219e-05
0.000112576
0.000156602
0.000200826
0.000245149
0.000289532
0.000333958
0.00037842
0.000422915
0.00046744
0.000511999
0.000556592
0.000601225
0.000645893
0.000690583
2.9623e-05
6.91099e-05
0.000112556
0.000156575
0.000200793
0.000245109
0.000289487
0.000333908
0.000378367
0.000422858
0.000467382
0.000511939
0.000556534
0.000601167
0.000645836
0.000690528
2.96178e-05
6.90955e-05
0.000112533
0.000156543
0.000200753
0.000245062
0.000289432
0.000333847
0.000378301
0.000422788
0.000467309
0.000511864
0.000556458
0.000601093
0.000645764
0.000690457
2.96116e-05
6.90785e-05
0.000112505
0.000156506
0.000200705
0.000245005
0.000289366
0.000333774
0.00037822
0.000422702
0.000467218
0.000511771
0.000556363
0.000600997
0.00064567
0.000690365
2.96043e-05
6.9059e-05
0.000112474
0.000156462
0.00020065
0.000244938
0.000289289
0.000333687
0.000378124
0.000422598
0.000467107
0.000511654
0.000556242
0.000600874
0.000645545
0.000690241
2.95959e-05
6.90372e-05
0.000112439
0.000156413
0.000200588
0.000244863
0.000289201
0.000333587
0.000378013
0.000422476
0.000466976
0.000511515
0.000556095
0.00060072
0.000645385
0.000690074
2.95866e-05
6.90134e-05
0.0001124
0.000156359
0.000200519
0.00024478
0.000289104
0.000333476
0.000377889
0.00042234
0.000466828
0.000511355
0.000555924
0.000600539
0.000645194
0.000689873
2.95763e-05
6.89883e-05
0.000112359
0.000156302
0.000200447
0.000244692
0.000289001
0.000333357
0.000377756
0.000422192
0.000466666
0.00051118
0.000555736
0.00060034
0.000644984
0.000689654
2.95656e-05
6.89627e-05
0.000112317
0.000156245
0.000200372
0.000244601
0.000288894
0.000333235
0.000377618
0.000422038
0.000466497
0.000510997
0.000555541
0.000600134
0.000644767
0.000689428
2.95546e-05
6.89379e-05
0.000112277
0.000156189
0.0002003
0.000244513
0.00028879
0.000333114
0.000377481
0.000421886
0.00046633
0.000510815
0.000555347
0.000599929
0.000644552
0.000689207
2.9544e-05
6.89152e-05
0.00011224
0.000156137
0.000200234
0.000244432
0.000288694
0.000333002
0.000377354
0.000421744
0.000466173
0.000510644
0.000555163
0.000599733
0.000644349
0.000689004
2.95343e-05
6.88961e-05
0.000112209
0.000156094
0.000200179
0.000244364
0.000288613
0.000332909
0.000377247
0.000421623
0.000466038
0.000510495
0.000555001
0.00059956
0.000644171
0.000688841
2.95261e-05
6.88827e-05
0.000112187
0.000156063
0.000200139
0.000244315
0.000288555
0.000332841
0.000377169
0.000421534
0.000465938
0.000510383
0.000554879
0.000599431
0.000644051
0.000688756
2.95204e-05
6.88765e-05
0.000112177
0.000156049
0.000200121
0.000244293
0.000288527
0.000332808
0.00037713
0.000421488
0.000465888
0.00051033
0.000554827
0.000599391
0.000644044
0.000688808
2.95177e-05
6.8879e-05
0.000112181
0.000156054
0.000200128
0.000244301
0.000288537
0.000332821
0.000377146
0.000421512
0.000465923
0.000510384
0.00055491
0.000599513
0.000644225
0.000689068
2.95188e-05
6.88922e-05
0.000112202
0.000156085
0.000200168
0.000244353
0.000288605
0.000332909
0.00037726
0.000421657
0.000466108
0.000510618
0.000555203
0.000599876
0.000644669
0.000689603
2.95244e-05
6.89223e-05
0.000112253
0.000156159
0.000200268
0.000244486
0.000288776
0.000333125
0.000377531
0.000421991
0.000466513
0.000511101
0.000555773
0.000600537
0.000645425
0.000690455
2.95372e-05
6.8983e-05
0.000112354
0.000156306
0.000200468
0.000244745
0.000289102
0.000333527
0.000378017
0.000422569
0.000467189
0.000511881
0.000556658
0.000601528
0.000646517
0.000691639
2.95628e-05
6.909e-05
0.000112532
0.00015656
0.000200804
0.00024517
0.000289624
0.000334153
0.000378753
0.00042342
0.00046816
0.000512973
0.000557868
0.00060285
0.00064794
0.000693146
2.96082e-05
6.92536e-05
0.000112801
0.000156938
0.000201297
0.000245782
0.00029036
0.000335017
0.000379748
0.000424549
0.000469421
0.000514365
0.000559386
0.000604482
0.000649671
0.000694952
2.96779e-05
6.94758e-05
0.000113163
0.000157444
0.000201947
0.000246578
0.000291302
0.000336106
0.000380983
0.00042593
0.000470944
0.000516026
0.000561173
0.000606385
0.000651669
0.000697018
2.9773e-05
6.97502e-05
0.000113609
0.000158061
0.000202734
0.000247532
0.000292421
0.000337386
0.00038242
0.00042752
0.000472682
0.000517902
0.000563179
0.000608505
0.00065388
0.000699292
2.98908e-05
7.00629e-05
0.000114115
0.00015876
0.000203621
0.000248602
0.000293668
0.000338804
0.000384003
0.000429261
0.000474573
0.000519934
0.00056534
0.000610778
0.000656244
0.000701717
3.00251e-05
7.0396e-05
0.000114654
0.000159503
0.000204562
0.000249735
0.000294986
0.000340298
0.000385666
0.000431085
0.000476548
0.000522052
0.000567586
0.000613138
0.000658694
0.00070423
3.01683e-05
7.07304e-05
0.000115196
0.000160249
0.000205509
0.000250876
0.000296313
0.000341803
0.000387341
0.000432921
0.000478537
0.000524183
0.000569847
0.000615513
0.000661162
0.000706764
3.03121e-05
7.10486e-05
0.000115712
0.000160962
0.000206416
0.000251972
0.000297591
0.000343257
0.000388963
0.000434703
0.000480471
0.000526259
0.000572053
0.000617837
0.000663581
0.000709256
3.04489e-05
7.13377e-05
0.000116182
0.000161614
0.000207248
0.000252981
0.000298773
0.000344608
0.000390477
0.000436374
0.00048229
0.000528219
0.000574144
0.000620045
0.000665891
0.000711645
3.05729e-05
7.15898e-05
0.000116592
0.000162186
0.000207981
0.000253874
0.000299826
0.000345818
0.00039184
0.000437885
0.000483945
0.000530012
0.000576066
0.000622087
0.000668036
0.000713879
3.06809e-05
7.18027e-05
0.00011694
0.00016267
0.000208604
0.000254637
0.000300729
0.000346862
0.000393024
0.000439207
0.000485402
0.0005316
0.00057778
0.000623919
0.000669977
0.000715915
3.07721e-05
7.19786e-05
0.000117227
0.000163071
0.000209121
0.000255271
0.000301482
0.000347735
0.000394018
0.000440323
0.000486641
0.000532961
0.00057926
0.000625515
0.000671682
0.000717722
3.08474e-05
7.21229e-05
0.000117462
0.000163399
0.000209541
0.000255787
0.000302094
0.000348445
0.000394828
0.000441236
0.000487659
0.000534086
0.000580494
0.00062686
0.000673135
0.000719282
3.09093e-05
7.22416e-05
0.000117655
0.000163665
0.000209883
0.000256202
0.000302584
0.00034901
0.000395471
0.00044196
0.000488467
0.000534982
0.000581485
0.00062795
0.000674331
0.00072059
3.09602e-05
7.23396e-05
0.000117814
0.000163885
0.000210161
0.000256538
0.000302977
0.000349459
0.000395977
0.000442523
0.000489091
0.000535671
0.000582247
0.000628797
0.000675277
0.000721648
3.10024e-05
7.24208e-05
0.000117945
0.000164066
0.00021039
0.000256814
0.000303296
0.000349822
0.00039638
0.000442965
0.000489571
0.000536192
0.000582816
0.000629427
0.000675991
0.00072247
3.10373e-05
7.24873e-05
0.000118053
0.000164215
0.00021058
0.000257043
0.000303562
0.000350122
0.000396711
0.000443324
0.000489954
0.000536598
0.000583246
0.000629893
0.000676517
0.000723083
3.10658e-05
7.25426e-05
0.000118143
0.000164339
0.000210739
0.000257234
0.000303785
0.000350374
0.000396989
0.000443623
0.000490272
0.000536931
0.000583594
0.000630256
0.00067691
0.000723534
3.10894e-05
7.25906e-05
0.00011822
0.000164446
0.000210873
0.000257397
0.000303974
0.000350585
0.000397222
0.000443875
0.000490539
0.000537211
0.000583885
0.000630556
0.000677222
0.000723875
3.11095e-05
7.26312e-05
0.000118287
0.000164538
0.000210989
0.000257535
0.000304133
0.000350765
0.000397418
0.000444085
0.000490762
0.000537446
0.000584127
0.000630808
0.000677482
0.000724148
3.11281e-05
7.26651e-05
0.000118343
0.000164615
0.000211088
0.00025765
0.000304267
0.000350913
0.00039758
0.00044426
0.000490948
0.00053764
0.000584331
0.000631019
0.000677701
0.000724376
3.11425e-05
7.26959e-05
0.00011839
0.000164679
0.000211168
0.000257748
0.000304378
0.000351036
0.000397716
0.000444406
0.000491103
0.000537801
0.000584501
0.000631195
0.000677886
0.000724568
3.11545e-05
7.27191e-05
0.000118429
0.000164732
0.000211234
0.000257828
0.000304468
0.000351139
0.000397827
0.000444525
0.00049123
0.000537936
0.000584642
0.000631344
0.000678041
0.000724732
3.11654e-05
7.2738e-05
0.00011846
0.000164777
0.000211289
0.000257893
0.000304543
0.000351224
0.000397918
0.000444624
0.000491335
0.000538047
0.00058476
0.000631469
0.000678173
0.00072487
3.11745e-05
7.2755e-05
0.000118487
0.00016481
0.000211336
0.000257945
0.000304606
0.000351291
0.000397995
0.000444705
0.000491422
0.000538141
0.000584858
0.000631572
0.000678285
0.000724991
3.11809e-05
7.27688e-05
0.000118507
0.000164841
0.000211369
0.000257991
0.000304654
0.000351348
0.000398055
0.000444773
0.000491494
0.000538219
0.00058494
0.000631662
0.000678379
0.000725094
3.11865e-05
7.27785e-05
0.000118524
0.000164863
0.0002114
0.000258024
0.000304697
0.000351392
0.000398106
0.000444828
0.000491554
0.000538283
0.000585011
0.000631738
0.000678461
0.000725182
3.1191e-05
7.27877e-05
0.000118538
0.000164882
0.000211424
0.000258053
0.000304728
0.00035143
0.000398147
0.000444874
0.000491605
0.000538336
0.000585071
0.000631802
0.000678533
0.00072526
3.11946e-05
7.27928e-05
0.000118549
0.000164898
0.000211442
0.000258076
0.000304754
0.00035146
0.000398181
0.000444911
0.000491646
0.000538383
0.000585121
0.000631858
0.000678594
0.000725328
3.11975e-05
7.2799e-05
0.000118557
0.00016491
0.000211458
0.000258094
0.000304777
0.000351486
0.00039821
0.000444943
0.000491681
0.000538423
0.000585165
0.000631906
0.000678648
0.000725387
3.11998e-05
7.28041e-05
0.000118564
0.000164919
0.000211471
0.00025811
0.000304795
0.000351506
0.000398234
0.00044497
0.000491711
0.000538458
0.000585202
0.000631949
0.000678696
0.00072544
3.12017e-05
7.28068e-05
0.000118571
0.000164927
0.000211481
0.000258122
0.000304809
0.000351524
0.000398253
0.000444993
0.000491739
0.000538486
0.000585238
0.000631988
0.000678738
0.000725489
3.12032e-05
7.28089e-05
0.000118576
0.000164934
0.000211489
0.000258133
0.000304822
0.000351539
0.000398271
0.000445013
0.000491762
0.000538513
0.000585266
0.000632022
0.000678777
0.000725531
3.1205e-05
7.2813e-05
0.000118578
0.00016494
0.000211496
0.000258141
0.000304835
0.000351551
0.000398286
0.000445031
0.000491782
0.000538536
0.000585294
0.000632052
0.000678812
0.000725572
3.12054e-05
7.28142e-05
0.000118582
0.000164944
0.000211503
0.000258149
0.000304842
0.000351563
0.000398302
0.000445047
0.0004918
0.000538559
0.000585319
0.000632082
0.000678844
0.000725607
3.12063e-05
7.2816e-05
0.000118586
0.000164949
0.000211507
0.000258157
0.000304851
0.000351574
0.000398313
0.000445062
0.000491818
0.000538578
0.000585342
0.000632107
0.000678875
0.000725641
3.12065e-05
7.28177e-05
0.000118588
0.000164952
0.000211514
0.000258163
0.000304859
0.000351583
0.000398324
0.000445076
0.000491834
0.000538598
0.000585363
0.000632133
0.000678902
0.000725672
3.12084e-05
7.28192e-05
0.00011859
0.000164956
0.000211518
0.000258169
0.000304868
0.000351593
0.000398335
0.000445088
0.00049185
0.000538615
0.000585384
0.000632155
0.000678928
0.000725703
3.12085e-05
7.28207e-05
0.000118593
0.000164959
0.000211523
0.000258175
0.000304874
0.000351601
0.000398347
0.000445101
0.000491864
0.000538632
0.000585404
0.000632177
0.000678954
0.000725729
3.12091e-05
7.28222e-05
0.000118595
0.000164963
0.000211527
0.000258181
0.000304882
0.00035161
0.000398356
0.000445114
0.000491878
0.000538649
0.000585422
0.000632198
0.000678977
0.000725756
3.12097e-05
7.28236e-05
0.000118599
0.000164966
0.000211531
0.000258185
0.000304889
0.000351618
0.000398366
0.000445126
0.000491891
0.000538664
0.00058544
0.000632219
0.000679
0.000725782
3.12103e-05
7.28258e-05
0.000118599
0.000164969
0.000211536
0.000258192
0.000304895
0.000351626
0.000398376
0.000445135
0.000491906
0.000538679
0.000585457
0.000632238
0.000679022
0.000725806
3.12109e-05
7.28264e-05
0.000118602
0.000164973
0.00021154
0.000258197
0.000304902
0.000351634
0.000398385
0.000445148
0.000491917
0.000538695
0.000585474
0.000632257
0.000679042
0.000725829
3.12115e-05
7.28278e-05
0.000118605
0.000164975
0.000211545
0.000258203
0.000304908
0.000351643
0.000398394
0.000445158
0.000491931
0.000538708
0.000585491
0.000632276
0.000679062
0.000725851
3.12115e-05
7.28284e-05
0.000118607
0.00016498
0.000211549
0.000258207
0.000304915
0.00035165
0.000398405
0.000445169
0.000491943
0.000538723
0.000585506
0.000632292
0.000679083
0.000725873
3.12133e-05
7.28315e-05
0.00011861
0.000164982
0.000211554
0.000258214
0.000304922
0.000351658
0.000398413
0.00044518
0.000491955
0.000538736
0.000585522
0.000632311
0.000679101
0.000725894
3.12133e-05
7.28321e-05
0.000118612
0.000164987
0.000211557
0.00025822
0.000304928
0.000351666
0.000398422
0.000445191
0.000491967
0.00053875
0.000585537
0.000632327
0.000679119
0.000725914
3.12134e-05
7.28335e-05
0.000118613
0.000164989
0.000211563
0.000258224
0.000304936
0.000351674
0.000398431
0.000445201
0.000491979
0.000538763
0.000585551
0.000632343
0.000679138
0.000725932
3.12151e-05
7.2835e-05
0.000118617
0.000164993
0.000211566
0.000258231
0.000304941
0.000351682
0.00039844
0.000445211
0.00049199
0.000538776
0.000585566
0.000632359
0.000679155
0.000725953
3.12152e-05
7.28364e-05
0.000118619
0.000164996
0.000211571
0.000258234
0.000304949
0.000351689
0.000398449
0.00044522
0.000492002
0.000538788
0.000585579
0.000632374
0.000679171
0.000725969
3.12152e-05
7.28377e-05
0.000118621
0.000164998
0.000211575
0.000258241
0.000304954
0.000351695
0.000398458
0.00044523
0.000492012
0.0005388
0.000585593
0.00063239
0.000679187
0.000725986
3.12169e-05
7.2839e-05
0.000118623
0.000165003
0.000211578
0.000258245
0.00030496
0.000351704
0.000398464
0.00044524
0.000492021
0.000538812
0.000585605
0.000632403
0.000679203
0.000726003
3.12169e-05
7.28403e-05
0.000118625
0.000165005
0.000211583
0.00025825
0.000304964
0.00035171
0.000398474
0.000445247
0.000492033
0.000538823
0.000585618
0.000632415
0.000679218
0.000726019
3.12175e-05
7.28415e-05
0.000118627
0.000165008
0.000211586
0.000258254
0.000304971
0.000351715
0.00039848
0.000445257
0.000492041
0.000538832
0.00058563
0.000632429
0.00067923
0.000726035
3.1218e-05
7.28426e-05
0.000118629
0.00016501
0.000211589
0.000258259
0.000304976
0.000351722
0.000398487
0.000445264
0.00049205
0.000538843
0.00058564
0.000632442
0.000679245
0.000726049
3.12184e-05
7.28437e-05
0.000118631
0.000165013
0.000211592
0.000258263
0.000304981
0.000351728
0.000398493
0.000445272
0.000492059
0.000538853
0.00058565
0.000632453
0.000679257
0.000726062
3.12189e-05
7.28446e-05
0.000118632
0.000165015
0.000211595
0.000258265
0.000304985
0.000351733
0.000398499
0.000445278
0.000492066
0.000538861
0.000585661
0.000632462
0.000679269
0.000726075
3.12193e-05
7.28454e-05
0.000118634
0.000165016
0.000211598
0.00025827
0.000304988
0.000351737
0.000398504
0.000445284
0.000492073
0.000538868
0.000585669
0.000632473
0.000679279
0.000726086
3.12196e-05
7.28461e-05
0.000118635
0.000165018
0.0002116
0.000258271
0.000304991
0.000351741
0.000398509
0.000445289
0.000492078
0.000538875
0.000585676
0.000632481
0.000679288
0.000726096
3.12199e-05
7.28466e-05
0.000118636
0.000165019
0.000211601
0.000258274
0.000304994
0.000351743
0.000398512
0.000445293
0.000492083
0.000538879
0.000585682
0.000632489
0.000679296
0.000726106
3.12202e-05
7.28471e-05
0.000118636
0.00016502
0.000211603
0.000258275
0.000304996
0.000351745
0.000398514
0.000445296
0.000492087
0.000538885
0.000585687
0.000632494
0.000679303
0.000726113
3.12203e-05
7.28473e-05
0.000118637
0.000165021
0.000211604
0.000258276
0.000304997
0.000351747
0.000398516
0.000445298
0.000492089
0.000538887
0.00058569
0.000632497
0.000679307
0.000726118
3.12204e-05
7.28475e-05
0.000118637
0.000165022
0.000211604
0.000258277
0.000304997
0.000351748
0.000398517
0.000445299
0.00049209
0.000538889
0.000585692
0.000632499
0.000679309
0.000726121
3.12205e-05
7.28475e-05
0.000118637
0.000165022
0.000211604
0.000258277
0.000304998
0.000351748
0.000398518
0.0004453
0.000492091
0.000538889
0.000585692
0.000632499
0.00067931
0.000726122
3.12205e-05
7.28475e-05
0.000118637
0.000165022
0.000211604
0.000258277
0.000304998
0.000351748
0.000398518
0.0004453
0.000492091
0.000538889
0.000585692
0.000632499
0.00067931
0.000726122
3.12205e-05
)
;

boundaryField
{
    wireUpstream
    {
        type            calculated;
        value           nonuniform List<scalar> 
16
(
7.28475e-05
0.000118637
0.000165022
0.000211604
0.000258277
0.000304998
0.000351748
0.000398518
0.0004453
0.000492091
0.000538889
0.000585692
0.000632499
0.00067931
0.000726122
3.12205e-05
)
;
    }
    wireDownstream
    {
        type            calculated;
        value           nonuniform List<scalar> 
16
(
6.92017e-05
0.000112704
0.000156779
0.00020105
0.000245417
0.000289842
0.000334307
0.000378805
0.000423332
0.000467888
0.000512474
0.000557094
0.000601753
0.000646449
0.000691168
2.96572e-05
)
;
    }
    wireTopContact
    {
        type            calculated;
        value           nonuniform List<scalar> 
122
(
0.000713265
0.000713241
0.000713216
0.00071319
0.000713165
0.00071314
0.000713116
0.000713094
0.000713073
0.000713054
0.000713037
0.000713021
0.000713008
0.000712997
0.000712988
0.000712979
0.000712972
0.000712966
0.00071296
0.000712955
0.000712951
0.000712946
0.000712941
0.000712936
0.00071293
0.000712924
0.000712918
0.000712911
0.000712903
0.000712894
0.000712884
0.000712874
0.000712861
0.000712846
0.000712827
0.000712805
0.000712777
0.000712742
0.000712698
0.000712642
0.000712572
0.000712481
0.000712356
0.000712188
0.000711983
0.000711759
0.00071153
0.000711309
0.000711111
0.000710962
0.000710903
0.000710994
0.000711301
0.000711886
0.000712786
0.000714012
0.000715556
0.000717391
0.000719482
0.000721777
0.000724222
0.000726755
0.000729312
0.00073183
0.000734251
0.000736522
0.0007386
0.000740455
0.000742068
0.000743432
0.000744549
0.000745429
0.000746095
0.000746586
0.00074695
0.000747232
0.000747465
0.000747662
0.00074783
0.000747975
0.000748098
0.000748205
0.000748298
0.000748379
0.00074845
0.000748513
0.000748569
0.00074862
0.000748665
0.000748707
0.000748746
0.000748781
0.000748814
0.000748845
0.000748875
0.000748903
0.000748929
0.000748955
0.000748979
0.000749002
0.000749024
0.000749046
0.000749067
0.000749087
0.000749107
0.000749125
0.000749143
0.000749161
0.000749177
0.000749193
0.000749207
0.000749221
0.000749235
0.000749247
0.000749257
0.000749267
0.000749275
0.00074928
0.000749283
0.000749284
0.000749284
0.000713288
)
;
    }
    front
    {
        type            wedge;
    }
    back
    {
        type            wedge;
    }
}


// ************************************************************************* //
