/*--------------------------------*- C++ -*----------------------------------*\
| =========                 |                                                 |
| \\      /  F ield         | OpenFOAM: The Open Source CFD Toolbox           |
|  \\    /   O peration     | Version:  4.1                                   |
|   \\  /    A nd           | Web:      www.OpenFOAM.org                      |
|    \\/     M anipulation  |                                                 |
\*---------------------------------------------------------------------------*/
FoamFile
{
    version     2.0;
    format      ascii;
    class       volVectorField;
    location    "0.0009";
    object      cellDisplacement;
}
// * * * * * * * * * * * * * * * * * * * * * * * * * * * * * * * * * * * * * //

dimensions      [0 1 0 0 0 0 0];

internalField   nonuniform List<vector> 
6144
(
(-6.2869e-11 1.6833e-10 -1.0958e-11)
(-1.8384e-10 4.8326e-10 -3.1931e-11)
(-2.978e-10 7.279e-10 -5.0967e-11)
(-4.1998e-10 8.5176e-10 -6.9728e-11)
(-5.8344e-10 8.2245e-10 -9.2052e-11)
(-8.312e-10 6.4108e-10 -1.2036e-10)
(-1.2088e-09 3.4306e-10 -1.5438e-10)
(-1.762e-09 -1.5987e-11 -1.9303e-10)
(-2.5408e-09 -3.8057e-10 -2.3542e-10)
(-3.6067e-09 -7.1009e-10 -2.7987e-10)
(-5.0416e-09 -9.799e-10 -3.237e-10)
(-6.9546e-09 -1.1813e-09 -3.6415e-10)
(-9.4883e-09 -1.3425e-09 -3.9894e-10)
(-1.2837e-08 -1.542e-09 -4.2568e-10)
(-1.7288e-08 -1.8596e-09 -4.4168e-10)
(-2.3244e-08 -2.3085e-09 -4.4427e-10)
(-3.1175e-08 -2.8686e-09 -4.3161e-10)
(-4.1564e-08 -3.5996e-09 -4.0308e-10)
(-5.5004e-08 -4.6837e-09 -3.5916e-10)
(-7.2344e-08 -6.3047e-09 -3.011e-10)
(-9.4661e-08 -8.4119e-09 -2.3128e-10)
(-1.2299e-07 -1.0746e-08 -1.5409e-10)
(-1.58e-07 -1.3571e-08 -7.5827e-11)
(-2.0001e-07 -1.8316e-08 -3.3623e-12)
(-2.4986e-07 -2.6674e-08 5.634e-11)
(-3.0907e-07 -3.9001e-08 9.6428e-11)
(-3.7789e-07 -5.4687e-08 1.111e-10)
(-4.5272e-07 -7.5085e-08 9.791e-11)
(-5.2716e-07 -1.0715e-07 5.9331e-11)
(-5.9609e-07 -1.624e-07 3.0521e-12)
(-6.5768e-07 -2.4728e-07 -6.0313e-11)
(-7.0864e-07 -3.5672e-07 -1.1978e-10)
(-7.3251e-07 -4.8995e-07 -1.6007e-10)
(-6.9433e-07 -6.7906e-07 -1.5638e-10)
(-5.5597e-07 -9.9481e-07 -7.6335e-11)
(-2.9886e-07 -1.513e-06 1.1025e-10)
(8.1161e-08 -2.2672e-06 4.1954e-10)
(6.2217e-07 -3.2427e-06 8.5735e-10)
(1.4521e-06 -4.4697e-06 1.4444e-09)
(2.7858e-06 -6.1784e-06 2.247e-09)
(4.8029e-06 -8.8466e-06 3.3993e-09)
(7.4217e-06 -1.2988e-05 5.0119e-09)
(1.0103e-05 -1.8635e-05 6.9484e-09)
(1.1903e-05 -2.4722e-05 8.69e-09)
(1.1934e-05 -2.8892e-05 9.3353e-09)
(9.9597e-06 -2.818e-05 8.3409e-09)
(6.4722e-06 -2.0751e-05 5.9456e-09)
(2.2218e-06 -7.6046e-06 2.2427e-09)
(-6.3181e-11 1.388e-10 -3.1892e-11)
(-1.8579e-10 3.9711e-10 -9.1846e-11)
(-3.039e-10 5.9402e-10 -1.4075e-10)
(-4.3301e-10 6.8671e-10 -1.7413e-10)
(-6.0532e-10 6.4766e-10 -1.9226e-10)
(-8.628e-10 4.7819e-10 -1.9896e-10)
(-1.2505e-09 2.0927e-10 -2e-10)
(-1.8149e-09 -1.1085e-10 -2.0221e-10)
(-2.6071e-09 -4.3407e-10 -2.1146e-10)
(-3.6905e-09 -7.2497e-10 -2.3007e-10)
(-5.1485e-09 -9.6252e-10 -2.5662e-10)
(-7.0923e-09 -1.1413e-09 -2.8701e-10)
(-9.6686e-09 -1.2868e-09 -3.1252e-10)
(-1.3078e-08 -1.4635e-09 -3.1825e-10)
(-1.7611e-08 -1.7353e-09 -2.8975e-10)
(-2.3664e-08 -2.1162e-09 -2.2187e-10)
(-3.1703e-08 -2.5981e-09 -1.1483e-10)
(-4.2224e-08 -3.2371e-09 4.0201e-11)
(-5.5839e-08 -4.1839e-09 2.6716e-10)
(-7.3386e-08 -5.5849e-09 5.8938e-10)
(-9.59e-08 -7.4055e-09 9.9864e-10)
(-1.2438e-07 -9.4813e-09 1.4604e-09)
(-1.5949e-07 -1.2091e-08 2.0106e-09)
(-2.0166e-07 -1.6413e-08 2.8376e-09)
(-2.5169e-07 -2.3817e-08 4.1639e-09)
(-3.108e-07 -3.4669e-08 6.0445e-09)
(-3.7892e-07 -4.8707e-08 8.4327e-09)
(-4.5261e-07 -6.7408e-08 1.1579e-08)
(-5.2599e-07 -9.6737e-08 1.6488e-08)
(-5.9408e-07 -1.4602e-07 2.4727e-08)
(-6.542e-07 -2.2055e-07 3.7192e-08)
(-7.0144e-07 -3.1735e-07 5.3425e-08)
(-7.1885e-07 -4.3822e-07 7.3791e-08)
(-6.7371e-07 -6.1176e-07 1.0312e-07)
(-5.3053e-07 -8.9719e-07 1.5133e-07)
(-2.6904e-07 -1.3573e-06 2.2895e-07)
(1.2231e-07 -2.022e-06 3.4098e-07)
(6.8852e-07 -2.8872e-06 4.8678e-07)
(1.5533e-06 -3.9926e-06 6.7314e-07)
(2.9084e-06 -5.5436e-06 9.3482e-07)
(4.8963e-06 -7.9381e-06 1.3385e-06)
(7.4086e-06 -1.1578e-05 1.9503e-06)
(9.9229e-06 -1.6433e-05 2.7637e-06)
(1.1571e-05 -2.1553e-05 3.6192e-06)
(1.1557e-05 -2.4935e-05 4.183e-06)
(9.6568e-06 -2.4133e-05 4.0474e-06)
(6.298e-06 -1.7687e-05 2.9673e-06)
(2.169e-06 -6.471e-06 1.087e-06)
(-6.3699e-11 1.0739e-10 -4.9584e-11)
(-1.8797e-10 3.0612e-10 -1.4207e-10)
(-3.093e-10 4.5401e-10 -2.1479e-10)
(-4.4335e-10 5.1568e-10 -2.5789e-10)
(-6.2184e-10 4.6786e-10 -2.6865e-10)
(-8.8607e-10 3.1154e-10 -2.5197e-10)
(-1.2808e-09 7.3147e-11 -2.1876e-10)
(-1.8527e-09 -2.0632e-10 -1.8309e-10)
(-2.6542e-09 -4.8611e-10 -1.5758e-10)
(-3.7495e-09 -7.3598e-10 -1.4891e-10)
(-5.2234e-09 -9.3818e-10 -1.573e-10)
(-7.1885e-09 -1.0889e-09 -1.7721e-10)
(-9.7947e-09 -1.2102e-09 -1.9352e-10)
(-1.3246e-08 -1.3544e-09 -1.795e-10)
(-1.7835e-08 -1.5728e-09 -1.0935e-10)
(-2.3956e-08 -1.879e-09 2.5801e-11)
(-3.207e-08 -2.2711e-09 2.2624e-10)
(-4.2685e-08 -2.7988e-09 5.1065e-10)
(-5.642e-08 -3.5857e-09 9.2611e-10)
(-7.4108e-08 -4.7494e-09 1.5175e-09)
(-9.6757e-08 -6.2693e-09 2.2726e-09)
(-1.2534e-07 -8.0393e-09 3.1383e-09)
(-1.6053e-07 -1.0316e-08 4.2014e-09)
(-2.0281e-07 -1.4058e-08 5.8336e-09)
(-2.5294e-07 -2.0366e-08 8.4686e-09)
(-3.1196e-07 -2.9586e-08 1.2236e-08)
(-3.7961e-07 -4.1639e-08 1.7102e-08)
(-4.5253e-07 -5.793e-08 2.363e-08)
(-5.2518e-07 -8.3426e-08 3.3821e-08)
(-5.9263e-07 -1.2564e-07 5.0707e-08)
(-6.5162e-07 -1.8889e-07 7.607e-08)
(-6.9624e-07 -2.7149e-07 1.0925e-07)
(-7.0929e-07 -3.7621e-07 1.5134e-07)
(-6.5941e-07 -5.2744e-07 2.1212e-07)
(-5.1266e-07 -7.7379e-07 3.1111e-07)
(-2.4752e-07 -1.1666e-06 4.6901e-07)
(1.5233e-07 -1.7317e-06 6.9632e-07)
(7.3595e-07 -2.4707e-06 9.938e-07)
(1.6236e-06 -3.4242e-06 1.3777e-06)
(2.9911e-06 -4.7669e-06 1.9178e-06)
(4.9567e-06 -6.8229e-06 2.7433e-06)
(7.3954e-06 -9.9041e-06 3.9775e-06)
(9.7979e-06 -1.3955e-05 5.5975e-06)
(1.1347e-05 -1.8164e-05 7.2793e-06)
(1.1301e-05 -2.0875e-05 8.3626e-06)
(9.4483e-06 -2.01e-05 8.0533e-06)
(6.1756e-06 -1.4686e-05 5.8859e-06)
(2.1314e-06 -5.3668e-06 2.1527e-06)
(-6.4338e-11 7.5877e-11 -6.3406e-11)
(-1.9012e-10 2.1522e-10 -1.8076e-10)
(-3.135e-10 3.1508e-10 -2.701e-10)
(-4.5029e-10 3.4717e-10 -3.167e-10)
(-6.3204e-10 2.9198e-10 -3.1536e-10)
(-8.9974e-10 1.4991e-10 -2.7228e-10)
(-1.2979e-09 -5.7214e-11 -2.0341e-10)
(-1.8735e-09 -2.9546e-10 -1.2991e-10)
(-2.6793e-09 -5.313e-10 -7.0963e-11)
(-3.7803e-09 -7.3969e-10 -3.7496e-11)
(-5.2618e-09 -9.0578e-10 -3.1058e-11)
(-7.2374e-09 -1.0264e-09 -4.4298e-11)
(-9.8583e-09 -1.1193e-09 -5.5371e-11)
(-1.3331e-08 -1.2258e-09 -2.5658e-11)
(-1.7948e-08 -1.3871e-09 8.1905e-11)
(-2.4102e-08 -1.6149e-09 2.8045e-10)
(-3.2255e-08 -1.9095e-09 5.7168e-10)
(-4.2917e-08 -2.3123e-09 9.848e-10)
(-5.6713e-08 -2.9225e-09 1.5897e-09)
(-7.4471e-08 -3.8351e-09 2.4518e-09)
(-9.7188e-08 -5.0396e-09 3.5554e-09)
(-1.2582e-07 -6.4629e-09 4.8317e-09)
(-1.6105e-07 -8.3166e-09 6.4213e-09)
(-2.0339e-07 -1.1359e-08 8.8776e-09)
(-2.5356e-07 -1.646e-08 1.2841e-08)
(-3.1253e-07 -2.391e-08 1.8521e-08)
(-3.7993e-07 -3.3707e-08 2.5906e-08)
(-4.5249e-07 -4.7039e-08 3.5888e-08)
(-5.2477e-07 -6.7884e-08 5.146e-08)
(-5.9188e-07 -1.0217e-07 7.7097e-08)
(-6.5027e-07 -1.5339e-07 1.1546e-07)
(-6.9353e-07 -2.2046e-07 1.6576e-07)
(-7.0439e-07 -3.0603e-07 2.2995e-07)
(-6.5213e-07 -4.2983e-07 3.2284e-07)
(-5.035e-07 -6.305e-07 4.7348e-07)
(-2.3629e-07 -9.4893e-07 7.1267e-07)
(1.6809e-07 -1.4064e-06 1.0565e-06)
(7.606e-07 -2.0062e-06 1.5076e-06)
(1.6595e-06 -2.7838e-06 2.0924e-06)
(3.0326e-06 -3.8799e-06 2.9163e-06)
(4.9861e-06 -5.5501e-06 4.1704e-06)
(7.3873e-06 -8.0342e-06 6.0341e-06)
(9.734e-06 -1.1276e-05 8.4649e-06)
(1.1234e-05 -1.4619e-05 1.0972e-05)
(1.1173e-05 -1.6746e-05 1.2566e-05)
(9.3421e-06 -1.6085e-05 1.2071e-05)
(6.1123e-06 -1.1735e-05 8.8082e-06)
(2.1117e-06 -4.2868e-06 3.2187e-06)
(-6.505e-11 4.5714e-11 -7.2747e-11)
(-1.9206e-10 1.2853e-10 -2.0629e-10)
(-3.1625e-10 1.8343e-10 -3.0436e-10)
(-4.5345e-10 1.888e-10 -3.4795e-10)
(-6.3542e-10 1.2845e-10 -3.2966e-10)
(-9.0321e-10 1.9237e-12 -2.5715e-10)
(-1.3012e-09 -1.7349e-10 -1.5159e-10)
(-1.8763e-09 -3.7084e-10 -4.1139e-11)
(-2.6814e-09 -5.6373e-10 4.8706e-11)
(-3.7815e-09 -7.3225e-10 1.0312e-10)
(-5.2619e-09 -8.6409e-10 1.1942e-10)
(-7.2363e-09 -9.5592e-10 1.0691e-10)
(-9.8559e-09 -1.0205e-09 9.4503e-11)
(-1.3327e-08 -1.0892e-09 1.3318e-10)
(-1.7943e-08 -1.193e-09 2.7165e-10)
(-2.4096e-08 -1.3409e-09 5.2728e-10)
(-3.2248e-08 -1.5337e-09 9.0299e-10)
(-4.2909e-08 -1.8031e-09 1.4384e-09)
(-5.6703e-08 -2.2256e-09 2.2268e-09)
(-7.446e-08 -2.8755e-09 3.3541e-09)
(-9.7176e-08 -3.7484e-09 4.7979e-09)
(-1.2581e-07 -4.7903e-09 6.4695e-09)
(-1.6104e-07 -6.1583e-09 8.5617e-09)
(-2.0337e-07 -8.4226e-09 1.1814e-08)
(-2.5355e-07 -1.2238e-08 1.7079e-08)
(-3.1252e-07 -1.7825e-08 2.4634e-08)
(-3.7993e-07 -2.518e-08 3.4466e-08)
(-4.5248e-07 -3.5198e-08 4.7759e-08)
(-5.2477e-07 -5.0867e-08 6.8495e-08)
(-5.9188e-07 -7.665e-08 1.0262e-07)
(-6.5027e-07 -1.1519e-07 1.5363e-07)
(-6.9354e-07 -1.6567e-07 2.2048e-07)
(-7.044e-07 -2.3004e-07 3.0585e-07)
(-6.5214e-07 -3.2306e-07 4.2947e-07)
(-5.0351e-07 -4.7379e-07 6.3004e-07)
(-2.363e-07 -7.1299e-07 9.4844e-07)
(1.6809e-07 -1.0568e-06 1.4059e-06)
(7.606e-07 -1.5078e-06 2.0059e-06)
(1.6595e-06 -2.0923e-06 2.7837e-06)
(3.0326e-06 -2.9159e-06 3.8801e-06)
(4.9861e-06 -4.1698e-06 5.5506e-06)
(7.3873e-06 -6.0332e-06 8.0349e-06)
(9.734e-06 -8.4638e-06 1.1277e-05)
(1.1234e-05 -1.0971e-05 1.462e-05)
(1.1172e-05 -1.2565e-05 1.6747e-05)
(9.3421e-06 -1.207e-05 1.6086e-05)
(6.1123e-06 -8.8073e-06 1.1736e-05)
(2.1117e-06 -3.2183e-06 4.287e-06)
(-6.5836e-11 1.7929e-11 -7.7825e-11)
(-1.9381e-10 4.898e-11 -2.1939e-10)
(-3.1752e-10 6.3488e-11 -3.1908e-10)
(-4.5278e-10 4.6063e-11 -3.5397e-10)
(-6.3193e-10 -1.6649e-11 -3.1451e-10)
(-8.9646e-10 -1.2616e-10 -2.0996e-10)
(-1.2907e-09 -2.6969e-10 -6.6793e-11)
(-1.8613e-09 -4.2719e-10 7.9797e-11)
(-2.6606e-09 -5.7933e-10 1.9822e-10)
(-3.7533e-09 -7.1123e-10 2.7003e-10)
(-5.2239e-09 -8.1278e-10 2.9141e-10)
(-7.1854e-09 -8.7995e-10 2.734e-10)
(-9.7877e-09 -9.202e-10 2.5198e-10)
(-1.3236e-08 -9.5428e-10 2.9151e-10)
(-1.7821e-08 -1.0032e-09 4.5338e-10)
(-2.3938e-08 -1.0728e-09 7.5871e-10)
(-3.2048e-08 -1.163e-09 1.2098e-09)
(-4.2659e-08 -1.296e-09 1.8559e-09)
(-5.6391e-08 -1.5258e-09 2.8153e-09)
(-7.4076e-08 -1.906e-09 4.1967e-09)
(-9.6724e-08 -2.4355e-09 5.9665e-09)
(-1.253e-07 -3.075e-09 8.0016e-09)
(-1.6049e-07 -3.927e-09 1.0538e-08)
(-2.0278e-07 -5.3786e-09 1.4512e-08)
(-2.5291e-07 -7.8759e-09 2.1004e-08)
(-3.1194e-07 -1.1558e-08 3.0341e-08)
(-3.7959e-07 -1.6398e-08 4.2435e-08)
(-4.5252e-07 -2.296e-08 5.868e-08)
(-5.2517e-07 -3.324e-08 8.4051e-08)
(-5.9263e-07 -5.026e-08 1.2607e-07)
(-6.5163e-07 -7.5782e-08 1.8909e-07)
(-6.9625e-07 -1.0912e-07 2.7143e-07)
(-7.093e-07 -1.5137e-07 3.759e-07)
(-6.5943e-07 -2.1227e-07 5.2692e-07)
(-5.1268e-07 -3.1132e-07 7.7314e-07)
(-2.4754e-07 -4.6921e-07 1.1659e-06)
(1.5231e-07 -6.9645e-07 1.7311e-06)
(7.3593e-07 -9.9379e-07 2.4702e-06)
(1.6236e-06 -1.3775e-06 3.4239e-06)
(2.9911e-06 -1.9173e-06 4.7668e-06)
(4.9567e-06 -2.7425e-06 6.8232e-06)
(7.3954e-06 -3.9765e-06 9.9046e-06)
(9.7979e-06 -5.5962e-06 1.3956e-05)
(1.1347e-05 -7.2779e-06 1.8165e-05)
(1.1301e-05 -8.3612e-06 2.0875e-05)
(9.4483e-06 -8.052e-06 2.0101e-05)
(6.1756e-06 -5.8849e-06 1.4686e-05)
(2.1314e-06 -2.1524e-06 5.367e-06)
(-6.6743e-11 -6.9981e-12 -7.9609e-11)
(-1.9549e-10 -2.2094e-11 -2.2301e-10)
(-3.1747e-10 -4.2722e-11 -3.1915e-10)
(-4.485e-10 -7.8464e-11 -3.414e-10)
(-6.2188e-10 -1.4034e-10 -2.779e-10)
(-8.7994e-10 -2.3119e-10 -1.393e-10)
(-1.267e-09 -3.4279e-10 4.251e-11)
(-1.8292e-09 -4.6194e-10 2.252e-10)
(-2.6179e-09 -5.7635e-10 3.711e-10)
(-3.6969e-09 -6.7595e-10 4.583e-10)
(-5.1495e-09 -7.5251e-10 4.8168e-10)
(-7.0873e-09 -8.0099e-10 4.5315e-10)
(-9.6573e-09 -8.2313e-10 4.1528e-10)
(-1.306e-08 -8.2859e-10 4.4731e-10)
(-1.7587e-08 -8.2767e-10 6.2534e-10)
(-2.3634e-08 -8.228e-10 9.7317e-10)
(-3.1666e-08 -8.1381e-10 1.4889e-09)
(-4.2182e-08 -8.1339e-10 2.2293e-09)
(-5.579e-08 -8.5264e-10 3.3409e-09)
(-7.3333e-08 -9.6381e-10 4.9607e-09)
(-9.5845e-08 -1.1493e-09 7.0405e-09)
(-1.2432e-07 -1.3879e-09 9.3972e-09)
(-1.5943e-07 -1.7313e-09 1.2286e-08)
(-2.0161e-07 -2.3825e-09 1.6861e-08)
(-2.5164e-07 -3.5755e-09 2.4466e-08)
(-3.1076e-07 -5.3744e-09 3.5448e-08)
(-3.7889e-07 -7.7381e-09 4.9528e-08)
(-4.5259e-07 -1.0918e-08 6.8175e-08)
(-5.2598e-07 -1.5915e-08 9.7358e-08)
(-5.9408e-07 -2.4282e-08 1.4642e-07)
(-6.5421e-07 -3.6899e-08 2.2067e-07)
(-7.0146e-07 -5.3288e-08 3.1717e-07)
(-7.1888e-07 -7.3797e-08 4.3775e-07)
(-6.7374e-07 -1.0323e-07 6.1104e-07)
(-5.3057e-07 -1.515e-07 8.963e-07)
(-2.6908e-07 -2.2911e-07 1.3564e-06)
(1.2228e-07 -3.4107e-07 2.0211e-06)
(6.8849e-07 -4.8672e-07 2.8864e-06)
(1.5533e-06 -6.7289e-07 3.9921e-06)
(2.9084e-06 -9.3433e-07 5.5433e-06)
(4.8963e-06 -1.3378e-06 7.9382e-06)
(7.4086e-06 -1.9493e-06 1.1578e-05)
(9.9228e-06 -2.7624e-06 1.6433e-05)
(1.1571e-05 -3.6178e-06 2.1554e-05)
(1.1557e-05 -4.1816e-06 2.4935e-05)
(9.6567e-06 -4.0461e-06 2.4133e-05)
(6.298e-06 -2.9663e-06 1.7688e-05)
(2.169e-06 -1.0867e-06 6.4711e-06)
(-6.7825e-11 -2.9748e-11 -7.9226e-11)
(-1.9726e-10 -8.6625e-11 -2.2057e-10)
(-3.1639e-10 -1.3791e-10 -3.1038e-10)
(-4.4102e-10 -1.8737e-10 -3.1827e-10)
(-6.0596e-10 -2.4411e-10 -2.2955e-10)
(-8.547e-10 -3.1303e-10 -5.5741e-11)
(-1.2316e-09 -3.9118e-10 1.6599e-10)
(-1.7818e-09 -4.728e-10 3.8601e-10)
(-2.5559e-09 -5.5267e-10 5.6035e-10)
(-3.6158e-09 -6.2495e-10 6.6356e-10)
(-5.0435e-09 -6.8255e-10 6.8878e-10)
(-6.9481e-09 -7.1903e-10 6.4711e-10)
(-9.4731e-09 -7.3004e-10 5.8641e-10)
(-1.2813e-08 -7.1308e-10 6.0264e-10)
(-1.7256e-08 -6.6694e-10 7.897e-10)
(-2.3204e-08 -5.9149e-10 1.1725e-09)
(-3.1125e-08 -4.8849e-10 1.7395e-09)
(-4.1506e-08 -3.6251e-10 2.5523e-09)
(-5.4938e-08 -2.2037e-10 3.7895e-09)
(-7.2272e-08 -6.9627e-11 5.6256e-09)
(-9.4585e-08 8.1897e-11 7.9957e-09)
(-1.2292e-07 2.253e-10 1.062e-08)
(-1.5792e-07 3.5123e-10 1.3737e-08)
(-1.9994e-07 4.52e-10 1.8749e-08)
(-2.4979e-07 5.2311e-10 2.732e-08)
(-3.0902e-07 5.6304e-10 3.9782e-08)
(-3.7785e-07 5.72e-10 5.5508e-08)
(-4.5269e-07 5.5102e-10 7.584e-08)
(-5.2715e-07 5.0277e-10 1.0774e-07)
(-5.9609e-07 4.3206e-10 1.6273e-07)
(-6.577e-07 3.4578e-10 2.473e-07)
(-7.0867e-07 2.5105e-10 3.5641e-07)
(-7.3255e-07 1.5032e-10 4.893e-07)
(-6.9438e-07 3.8483e-11 6.7813e-07)
(-5.5602e-07 -9.8466e-11 9.937e-07)
(-2.9891e-07 -2.7807e-10 1.5119e-06)
(8.1117e-08 -5.138e-10 2.2661e-06)
(6.2214e-07 -8.1683e-10 3.2417e-06)
(1.452e-06 -1.2179e-09 4.4689e-06)
(2.7858e-06 -1.7943e-09 6.1779e-06)
(4.8028e-06 -2.699e-09 8.8465e-06)
(7.4217e-06 -4.0736e-09 1.2988e-05)
(1.0103e-05 -5.8152e-09 1.8635e-05)
(1.1902e-05 -7.4406e-09 2.4723e-05)
(1.1934e-05 -8.0775e-09 2.8892e-05)
(9.9596e-06 -7.2078e-09 2.818e-05)
(6.4721e-06 -5.1467e-09 2.0751e-05)
(2.2218e-06 -1.9551e-09 7.6046e-06)
(-6.292e-11 1.4666e-10 1.8562e-11)
(-1.8509e-10 4.2026e-10 5.2886e-11)
(-3.0293e-10 6.3109e-10 7.7631e-11)
(-4.3191e-10 7.3554e-10 8.4406e-11)
(-6.0411e-10 7.058e-10 6.6394e-11)
(-8.6148e-10 5.4296e-10 2.2629e-11)
(-1.2491e-09 2.7759e-10 -4.1423e-11)
(-1.8135e-09 -4.2383e-11 -1.173e-10)
(-2.6059e-09 -3.6892e-10 -1.9709e-10)
(-3.6896e-09 -6.6638e-10 -2.7483e-10)
(-5.148e-09 -9.1336e-10 -3.4639e-10)
(-7.0923e-09 -1.1039e-09 -4.0996e-10)
(-9.6692e-09 -1.2628e-09 -4.6882e-10)
(-1.3079e-08 -1.4539e-09 -5.3225e-10)
(-1.7612e-08 -1.7402e-09 -6.0858e-10)
(-2.3666e-08 -2.135e-09 -6.97e-10)
(-3.1706e-08 -2.6294e-09 -7.9269e-10)
(-4.2228e-08 -3.2788e-09 -9.0218e-10)
(-5.5843e-08 -4.2336e-09 -1.0494e-09)
(-7.339e-08 -5.6399e-09 -1.2599e-09)
(-9.5905e-08 -7.4631e-09 -1.5305e-09)
(-1.2438e-07 -9.5389e-09 -1.8357e-09)
(-1.5949e-07 -1.2146e-08 -2.2249e-09)
(-2.0167e-07 -1.6465e-08 -2.9013e-09)
(-2.5169e-07 -2.3864e-08 -4.1033e-09)
(-3.1081e-07 -3.4714e-08 -5.9014e-09)
(-3.7893e-07 -4.8751e-08 -8.2617e-09)
(-4.5261e-07 -6.7453e-08 -1.1441e-08)
(-5.2599e-07 -9.6787e-08 -1.6439e-08)
(-5.9408e-07 -1.4608e-07 -2.4809e-08)
(-6.542e-07 -2.2061e-07 -3.7426e-08)
(-7.0144e-07 -3.1743e-07 -5.3806e-08)
(-7.1886e-07 -4.383e-07 -7.4281e-08)
(-6.7373e-07 -6.1184e-07 -1.0363e-07)
(-5.3056e-07 -8.9725e-07 -1.5172e-07)
(-2.6907e-07 -1.3574e-06 -2.2902e-07)
(1.2227e-07 -2.022e-06 -3.405e-07)
(6.8846e-07 -2.8871e-06 -4.8549e-07)
(1.5532e-06 -3.9925e-06 -6.7075e-07)
(2.9083e-06 -5.5433e-06 -9.3095e-07)
(4.8962e-06 -7.9377e-06 -1.3326e-06)
(7.4086e-06 -1.1577e-05 -1.9416e-06)
(9.923e-06 -1.6432e-05 -2.7518e-06)
(1.1571e-05 -2.1553e-05 -3.6045e-06)
(1.1557e-05 -2.4935e-05 -4.1674e-06)
(9.6571e-06 -2.4133e-05 -4.0333e-06)
(6.2982e-06 -1.7688e-05 -2.9572e-06)
(2.1691e-06 -6.4712e-06 -1.0833e-06)
(-6.3139e-11 1.1847e-10 -3.356e-12)
(-1.8688e-10 3.3844e-10 -9.9034e-12)
(-3.0905e-10 5.0508e-10 -1.6672e-11)
(-4.4537e-10 5.8228e-10 -2.5812e-11)
(-6.2697e-10 5.4684e-10 -4.0653e-11)
(-8.9467e-10 3.9945e-10 -6.3554e-11)
(-1.2932e-09 1.6554e-10 -9.4994e-11)
(-1.8696e-09 -1.1469e-10 -1.3439e-10)
(-2.6767e-09 -4.0054e-10 -1.8066e-10)
(-3.7795e-09 -6.6103e-10 -2.3187e-10)
(-5.2634e-09 -8.7744e-10 -2.8519e-10)
(-7.2419e-09 -1.0454e-09 -3.3746e-10)
(-9.8659e-09 -1.186e-09 -3.8561e-10)
(-1.3342e-08 -1.3501e-09 -4.2647e-10)
(-1.7963e-08 -1.5874e-09 -4.5665e-10)
(-2.4121e-08 -1.9121e-09 -4.7291e-10)
(-3.2278e-08 -2.3245e-09 -4.7259e-10)
(-4.2945e-08 -2.8751e-09 -4.5408e-10)
(-5.6747e-08 -3.6846e-09 -4.1695e-10)
(-7.4513e-08 -4.8657e-09 -3.6204e-10)
(-9.7238e-08 -6.3996e-09 -2.9194e-10)
(-1.2587e-07 -8.1981e-09 -2.1147e-10)
(-1.6111e-07 -1.0536e-08 -1.2735e-10)
(-2.0345e-07 -1.4359e-08 -4.7244e-11)
(-2.5364e-07 -2.0744e-08 2.0749e-11)
(-3.1262e-07 -3.0056e-08 6.8396e-11)
(-3.8001e-07 -4.2297e-08 8.8902e-11)
(-4.5253e-07 -5.8966e-08 7.9809e-11)
(-5.2479e-07 -8.5035e-08 4.5414e-11)
(-5.9191e-07 -1.2785e-07 -3.7578e-12)
(-6.503e-07 -1.917e-07 -5.4723e-11)
(-6.9351e-07 -2.753e-07 -9.3827e-11)
(-7.0424e-07 -3.8216e-07 -1.0024e-10)
(-6.5185e-07 -5.3702e-07 -3.6429e-11)
(-5.032e-07 -7.8808e-07 1.4995e-10)
(-2.3617e-07 -1.186e-06 5.0989e-10)
(1.6798e-07 -1.757e-06 1.0729e-09)
(7.6047e-07 -2.5053e-06 1.8541e-09)
(1.6597e-06 -3.4761e-06 2.9029e-09)
(3.0331e-06 -4.8461e-06 4.3629e-09)
(4.9861e-06 -6.9351e-06 6.48e-09)
(7.385e-06 -1.0042e-05 9.4417e-09)
(9.7277e-06 -1.4095e-05 1.303e-08)
(1.1224e-05 -1.8271e-05 1.6367e-08)
(1.1164e-05 -2.092e-05 1.7958e-08)
(9.3375e-06 -2.0086e-05 1.6753e-08)
(6.1108e-06 -1.465e-05 1.2053e-08)
(2.1107e-06 -5.3494e-06 4.412e-09)
(-6.3622e-11 9.0564e-11 -2.2263e-11)
(-1.8899e-10 2.5787e-10 -6.3639e-11)
(-3.1446e-10 3.8196e-10 -9.6141e-11)
(-4.5592e-10 4.336e-10 -1.1635e-10)
(-6.4398e-10 3.9356e-10 -1.2462e-10)
(-9.1878e-10 2.6201e-10 -1.2458e-10)
(-1.3247e-09 5.964e-11 -1.2202e-10)
(-1.9094e-09 -1.8061e-10 -1.2371e-10)
(-2.7265e-09 -4.2505e-10 -1.3525e-10)
(-3.8422e-09 -6.4761e-10 -1.5899e-10)
(-5.3433e-09 -8.322e-10 -1.9353e-10)
(-7.3451e-09 -9.7504e-10 -2.3405e-10)
(-1.0001e-08 -1.0929e-09 -2.7088e-10)
(-1.3523e-08 -1.2249e-09 -2.8906e-10)
(-1.8203e-08 -1.4095e-09 -2.7416e-10)
(-2.4432e-08 -1.6597e-09 -2.1911e-10)
(-3.2671e-08 -1.9798e-09 -1.2048e-10)
(-4.3437e-08 -2.4129e-09 3.3148e-11)
(-5.7366e-08 -3.0543e-09 2.6481e-10)
(-7.5279e-08 -3.9919e-09 5.9444e-10)
(-9.8145e-08 -5.218e-09 1.016e-09)
(-1.2689e-07 -6.6877e-09 1.5099e-09)
(-1.6222e-07 -8.6415e-09 2.1246e-09)
(-2.0466e-07 -1.1821e-08 3.0352e-09)
(-2.5494e-07 -1.7062e-08 4.4418e-09)
(-3.1381e-07 -2.4689e-08 6.4169e-09)
(-3.8071e-07 -3.4822e-08 8.9834e-09)
(-4.5247e-07 -4.8799e-08 1.2475e-08)
(-5.2396e-07 -7.0604e-08 1.7897e-08)
(-5.9034e-07 -1.0593e-07 2.6694e-08)
(-6.4744e-07 -1.5819e-07 3.9747e-08)
(-6.8788e-07 -2.27e-07 5.6975e-08)
(-6.9415e-07 -3.1619e-07 7.9342e-08)
(-6.369e-07 -4.4607e-07 1.1196e-07)
(-4.8434e-07 -6.5476e-07 1.6443e-07)
(-2.1299e-07 -9.8216e-07 2.4684e-07)
(2.0039e-07 -1.4502e-06 3.6478e-07)
(8.1053e-07 -2.0664e-06 5.2019e-07)
(1.7317e-06 -2.8732e-06 7.2363e-07)
(3.1151e-06 -4.015e-06 1.0113e-06)
(5.0426e-06 -5.7415e-06 1.4455e-06)
(7.3655e-06 -8.2739e-06 2.0815e-06)
(9.596e-06 -1.1529e-05 2.8978e-06)
(1.0994e-05 -1.483e-05 3.7255e-06)
(1.0903e-05 -1.6867e-05 4.2361e-06)
(9.1231e-06 -1.6109e-05 4.0469e-06)
(5.9834e-06 -1.1711e-05 2.9431e-06)
(2.0711e-06 -4.2717e-06 1.074e-06)
(-6.4237e-11 6.3113e-11 -3.7517e-11)
(-1.9109e-10 1.7899e-10 -1.0651e-10)
(-3.1865e-10 2.623e-10 -1.5796e-10)
(-4.6294e-10 2.9033e-10 -1.8345e-10)
(-6.544e-10 2.4732e-10 -1.8075e-10)
(-9.3285e-10 1.3274e-10 -1.5484e-10)
(-1.3426e-09 -3.7436e-11 -1.1667e-10)
(-1.9312e-09 -2.3724e-10 -8.01e-11)
(-2.753e-09 -4.3995e-10 -5.7307e-11)
(-3.8749e-09 -6.2439e-10 -5.4845e-11)
(-5.3844e-09 -7.7696e-10 -7.2654e-11)
(-7.3974e-09 -8.9367e-10 -1.0393e-10)
(-1.007e-08 -9.8623e-10 -1.3206e-10)
(-1.3613e-08 -1.083e-09 -1.3039e-10)
(-1.8323e-08 -1.2123e-09 -7.3474e-11)
(-2.4588e-08 -1.3843e-09 5.0327e-11)
(-3.2867e-08 -1.6039e-09 2.4664e-10)
(-4.3684e-08 -1.9053e-09 5.3757e-10)
(-5.7676e-08 -2.361e-09 9.6812e-10)
(-7.5663e-08 -3.0381e-09 1.5774e-09)
(-9.8599e-08 -3.9362e-09 2.3567e-09)
(-1.274e-07 -5.0318e-09 3.2778e-09)
(-1.6277e-07 -6.5133e-09 4.4502e-09)
(-2.0527e-07 -8.9334e-09 6.2276e-09)
(-2.5559e-07 -1.2912e-08 9.0109e-09)
(-3.144e-07 -1.8709e-08 1.2961e-08)
(-3.8106e-07 -2.6457e-08 1.816e-08)
(-4.5243e-07 -3.7213e-08 2.5309e-08)
(-5.2354e-07 -5.3972e-08 3.6413e-08)
(-5.8952e-07 -8.0957e-08 5.431e-08)
(-6.4593e-07 -1.2074e-07 8.0745e-08)
(-6.8495e-07 -1.7327e-07 1.157e-07)
(-6.8899e-07 -2.4178e-07 1.6133e-07)
(-6.2931e-07 -3.4172e-07 2.2796e-07)
(-4.747e-07 -5.0157e-07 3.3465e-07)
(-2.0099e-07 -7.5117e-07 5.0139e-07)
(2.1722e-07 -1.1074e-06 7.3952e-07)
(8.3625e-07 -1.5778e-06 1.054e-06)
(1.7681e-06 -2.1961e-06 1.4674e-06)
(3.1559e-06 -3.072e-06 2.0528e-06)
(5.0699e-06 -4.3905e-06 2.9334e-06)
(7.3544e-06 -6.3105e-06 4.2149e-06)
(9.5294e-06 -8.76e-06 5.8494e-06)
(1.0879e-05 -1.1226e-05 7.4943e-06)
(1.0772e-05 -1.2724e-05 8.4941e-06)
(9.0148e-06 -1.2118e-05 8.0897e-06)
(5.9184e-06 -8.7964e-06 5.8729e-06)
(2.0508e-06 -3.2079e-06 2.1423e-06)
(-6.4917e-11 3.6829e-11 -4.855e-11)
(-1.9295e-10 1.0377e-10 -1.3694e-10)
(-3.2132e-10 1.4908e-10 -1.999e-10)
(-4.6605e-10 1.5621e-10 -2.2448e-10)
(-6.5776e-10 1.1251e-10 -2.0619e-10)
(-9.3633e-10 1.6443e-11 -1.515e-10)
(-1.3459e-09 -1.207e-10 -7.6492e-11)
(-1.9341e-09 -2.7993e-10 -2.0053e-12)
(-2.7552e-09 -4.4143e-10 5.3432e-11)
(-3.8763e-09 -5.8893e-10 7.9262e-11)
(-5.3846e-09 -7.1103e-10 7.4364e-11)
(-7.3965e-09 -8.0289e-10 4.7688e-11)
(-1.0067e-08 -8.7064e-10 2.2981e-11)
(-1.361e-08 -9.3209e-10 3.8957e-11)
(-1.8319e-08 -1.0056e-09 1.3233e-10)
(-2.4582e-08 -1.0977e-09 3.1943e-10)
(-3.286e-08 -1.2122e-09 6.0813e-10)
(-4.3675e-08 -1.3731e-09 1.0313e-09)
(-5.7666e-08 -1.6313e-09 1.656e-09)
(-7.5652e-08 -2.0349e-09 2.5405e-09)
(-9.8588e-08 -2.5871e-09 3.6717e-09)
(-1.2739e-07 -3.2749e-09 5.0104e-09)
(-1.6276e-07 -4.2253e-09 6.726e-09)
(-2.0526e-07 -5.8095e-09 9.3521e-09)
(-2.5558e-07 -8.4441e-09 1.3492e-08)
(-3.1439e-07 -1.2303e-08 1.9388e-08)
(-3.8105e-07 -1.7475e-08 2.7167e-08)
(-4.5243e-07 -2.4665e-08 3.7879e-08)
(-5.2354e-07 -3.5873e-08 5.4525e-08)
(-5.8952e-07 -5.3924e-08 8.1341e-08)
(-6.4594e-07 -8.0543e-08 1.2092e-07)
(-6.8496e-07 -1.1569e-07 1.7323e-07)
(-6.89e-07 -1.615e-07 2.4154e-07)
(-6.2932e-07 -2.2827e-07 3.4131e-07)
(-4.7471e-07 -3.3503e-07 5.0107e-07)
(-2.0099e-07 -5.0176e-07 7.5066e-07)
(2.1721e-07 -7.398e-07 1.107e-06)
(8.3624e-07 -1.0541e-06 1.5775e-06)
(1.7681e-06 -1.4673e-06 2.1961e-06)
(3.1559e-06 -2.0523e-06 3.0723e-06)
(5.0699e-06 -2.9326e-06 4.3911e-06)
(7.3544e-06 -4.2138e-06 6.3114e-06)
(9.5294e-06 -5.8479e-06 8.7612e-06)
(1.0879e-05 -7.4926e-06 1.1227e-05)
(1.0772e-05 -8.4924e-06 1.2726e-05)
(9.0147e-06 -8.0879e-06 1.212e-05)
(5.9184e-06 -5.8716e-06 8.7974e-06)
(2.0508e-06 -2.1419e-06 3.2082e-06)
(-6.5648e-11 1.2516e-11 -5.5422e-11)
(-1.9455e-10 3.4495e-11 -1.5523e-10)
(-3.2238e-10 4.5683e-11 -2.2264e-10)
(-4.6512e-10 3.5411e-11 -2.4064e-10)
(-6.5393e-10 -6.2832e-12 -2.0264e-10)
(-9.291e-10 -8.2188e-11 -1.1664e-10)
(-1.3347e-09 -1.8581e-10 -3.9531e-12)
(-1.9181e-09 -3.0511e-10 1.0767e-10)
(-2.7332e-09 -4.2719e-10 1.9356e-10)
(-3.8463e-09 -5.4049e-10 2.3942e-10)
(-5.3442e-09 -6.3553e-10 2.4307e-10)
(-7.3423e-09 -7.0621e-10 2.1544e-10)
(-9.9947e-09 -7.5266e-10 1.874e-10)
(-1.3512e-08 -7.8193e-10 2.1035e-10)
(-1.8189e-08 -8.0212e-10 3.3296e-10)
(-2.4414e-08 -8.1597e-10 5.7574e-10)
(-3.2649e-08 -8.2552e-10 9.4731e-10)
(-4.3411e-08 -8.4464e-10 1.4906e-09)
(-5.7336e-08 -9.0245e-10 2.2959e-09)
(-7.5246e-08 -1.0278e-09 3.442e-09)
(-9.8111e-08 -1.2265e-09 4.9084e-09)
(-1.2686e-07 -1.4936e-09 6.6329e-09)
(-1.6218e-07 -1.8943e-09 8.8358e-09)
(-2.0463e-07 -2.6203e-09 1.2237e-08)
(-2.5491e-07 -3.886e-09 1.7652e-08)
(-3.1378e-07 -5.7752e-09 2.5389e-08)
(-3.8069e-07 -8.3182e-09 3.5554e-08)
(-4.5245e-07 -1.1851e-08 4.9483e-08)
(-5.2396e-07 -1.7372e-08 7.1162e-08)
(-5.9034e-07 -2.6314e-08 1.063e-07)
(-6.4745e-07 -3.9541e-08 1.5833e-07)
(-6.8789e-07 -5.6947e-08 2.2688e-07)
(-6.9417e-07 -7.9475e-08 3.1584e-07)
(-6.3692e-07 -1.1221e-07 4.4553e-07)
(-4.8436e-07 -1.6474e-07 6.5409e-07)
(-2.1301e-07 -2.4713e-07 9.8147e-07)
(2.0037e-07 -3.6496e-07 1.4495e-06)
(8.1052e-07 -5.2019e-07 2.0659e-06)
(1.7317e-06 -7.2337e-07 2.8729e-06)
(3.1151e-06 -1.0107e-06 4.015e-06)
(5.0426e-06 -1.4446e-06 5.7419e-06)
(7.3654e-06 -2.0801e-06 8.2745e-06)
(9.596e-06 -2.8962e-06 1.1529e-05)
(1.0994e-05 -3.7236e-06 1.4831e-05)
(1.0903e-05 -4.2341e-06 1.6867e-05)
(9.123e-06 -4.0448e-06 1.611e-05)
(5.9834e-06 -2.9415e-06 1.1712e-05)
(2.0711e-06 -1.0735e-06 4.2719e-06)
(-6.6478e-11 -9.5619e-12 -5.8915e-11)
(-1.9601e-10 -2.8145e-11 -1.637e-10)
(-3.2196e-10 -4.6906e-11 -2.3002e-10)
(-4.6031e-10 -7.0909e-11 -2.37e-10)
(-6.4313e-10 -1.0778e-10 -1.7592e-10)
(-9.1152e-10 -1.6186e-10 -5.632e-11)
(-1.3096e-09 -2.3167e-10 9.5108e-11)
(-1.884e-09 -3.1224e-10 2.4351e-10)
(-2.6878e-09 -3.9749e-10 3.5817e-10)
(-3.7863e-09 -4.8036e-10 4.213e-10)
(-5.2649e-09 -5.5291e-10 4.2966e-10)
(-7.2374e-09 -6.0759e-10 3.9566e-10)
(-9.8551e-09 -6.383e-10 3.5704e-10)
(-1.3325e-08 -6.4077e-10 3.7897e-10)
(-1.794e-08 -6.1237e-10 5.2334e-10)
(-2.4092e-08 -5.5221e-10 8.1369e-10)
(-3.2242e-08 -4.617e-10 1.2562e-09)
(-4.2902e-08 -3.4503e-10 1.9023e-09)
(-5.6698e-08 -2.0887e-10 2.8684e-09)
(-7.446e-08 -6.1328e-11 4.258e-09)
(-9.7182e-08 8.8665e-11 6.0388e-09)
(-1.2582e-07 2.3135e-10 8.1041e-09)
(-1.6105e-07 3.5683e-10 1.0706e-08)
(-2.0339e-07 4.5656e-10 1.4767e-08)
(-2.5359e-07 5.2487e-10 2.1341e-08)
(-3.1257e-07 5.5923e-10 3.0771e-08)
(-3.7998e-07 5.5948e-10 4.3046e-08)
(-4.5251e-07 5.2641e-10 5.9659e-08)
(-5.2478e-07 4.6136e-10 8.5585e-08)
(-5.9191e-07 3.6705e-10 1.2819e-07)
(-6.5031e-07 2.4922e-10 1.9177e-07)
(-6.9353e-07 1.1541e-10 2.7509e-07)
(-7.0427e-07 -3.3022e-11 3.8167e-07)
(-6.5188e-07 -2.0992e-10 5.363e-07)
(-5.0324e-07 -4.4622e-10 7.8722e-07)
(-2.362e-07 -7.7776e-10 1.1851e-06)
(1.6795e-07 -1.2293e-09 1.7561e-06)
(7.6045e-07 -1.8195e-09 2.5046e-06)
(1.6597e-06 -2.6055e-09 3.4756e-06)
(3.0331e-06 -3.7405e-09 4.8459e-06)
(4.986e-06 -5.4868e-09 6.9351e-06)
(7.385e-06 -8.0634e-09 1.0043e-05)
(9.7277e-06 -1.1303e-08 1.4095e-05)
(1.1224e-05 -1.4397e-08 1.8271e-05)
(1.1164e-05 -1.5913e-08 2.092e-05)
(9.3374e-06 -1.4805e-08 2.0086e-05)
(6.1108e-06 -1.0652e-08 1.465e-05)
(2.1107e-06 -3.9176e-09 5.3495e-06)
(-6.7519e-11 -3.0059e-11 -6.0067e-11)
(-1.9759e-10 -8.6085e-11 -1.654e-10)
(-3.2044e-10 -1.317e-10 -2.268e-10)
(-4.52e-10 -1.6633e-10 -2.1954e-10)
(-6.2587e-10 -1.9547e-10 -1.3249e-10)
(-8.8436e-10 -2.255e-10 2.327e-11)
(-1.2716e-09 -2.605e-10 2.1521e-10)
(-1.8333e-09 -3.03e-10 4.0091e-10)
(-2.6212e-09 -3.5381e-10 5.434e-10)
(-3.6991e-09 -4.0995e-10 6.2172e-10)
(-5.1504e-09 -4.6459e-10 6.3169e-10)
(-7.0866e-09 -5.0868e-10 5.8635e-10)
(-9.6549e-09 -5.2987e-10 5.2975e-10)
(-1.3056e-08 -5.1154e-10 5.4244e-10)
(-1.7581e-08 -4.3942e-10 7.0152e-10)
(-2.3627e-08 -3.1002e-10 1.0316e-09)
(-3.1657e-08 -1.2669e-10 1.5315e-09)
(-4.217e-08 1.1461e-10 2.2587e-09)
(-5.5777e-08 4.316e-10 3.3601e-09)
(-7.3318e-08 8.4088e-10 4.9726e-09)
(-9.5829e-08 1.328e-09 7.0477e-09)
(-1.243e-07 1.8529e-09 9.4011e-09)
(-1.5942e-07 2.4481e-09 1.2287e-08)
(-2.0159e-07 3.3008e-09 1.6859e-08)
(-2.5163e-07 4.6354e-09 2.4459e-08)
(-3.1075e-07 6.5121e-09 3.5435e-08)
(-3.7888e-07 8.8899e-09 4.9507e-08)
(-4.5258e-07 1.2024e-08 6.8144e-08)
(-5.2598e-07 1.6919e-08 9.7316e-08)
(-5.9408e-07 2.5144e-08 1.4636e-07)
(-6.5421e-07 3.759e-08 2.206e-07)
(-7.0147e-07 5.3796e-08 3.1709e-07)
(-7.189e-07 7.4116e-08 4.3766e-07)
(-6.7377e-07 1.0335e-07 6.1093e-07)
(-5.306e-07 1.5139e-07 8.9617e-07)
(-2.6912e-07 2.2871e-07 1.3562e-06)
(1.2223e-07 3.403e-07 2.0209e-06)
(6.8843e-07 4.8547e-07 2.8862e-06)
(1.5532e-06 6.7099e-07 3.9918e-06)
(2.9082e-06 9.3149e-07 5.5429e-06)
(4.8962e-06 1.3334e-06 7.9375e-06)
(7.4086e-06 1.9428e-06 1.1577e-05)
(9.923e-06 2.7533e-06 1.6432e-05)
(1.1571e-05 3.6063e-06 2.1553e-05)
(1.1557e-05 4.1691e-06 2.4935e-05)
(9.657e-06 4.0348e-06 2.4133e-05)
(6.2982e-06 2.9583e-06 1.7688e-05)
(2.1691e-06 1.0837e-06 6.4712e-06)
(-6.3131e-11 1.2148e-10 4.6313e-11)
(-1.8644e-10 3.4758e-10 1.3245e-10)
(-3.0716e-10 5.2029e-10 1.9789e-10)
(-4.4091e-10 6.0277e-10 2.28e-10)
(-6.1921e-10 5.7117e-10 2.1299e-10)
(-8.8327e-10 4.2604e-10 1.5282e-10)
(-1.2779e-09 1.931e-10 5.7372e-11)
(-1.85e-09 -8.7227e-11 -5.8123e-11)
(-2.6518e-09 -3.7424e-10 -1.7882e-10)
(-3.7478e-09 -6.3732e-10 -2.9401e-10)
(-5.2225e-09 -8.5797e-10 -3.9756e-10)
(-7.1888e-09 -1.0313e-09 -4.8845e-10)
(-9.7961e-09 -1.1781e-09 -5.7534e-10)
(-1.3249e-08 -1.3491e-09 -6.7841e-10)
(-1.7839e-08 -1.5944e-09 -8.1645e-10)
(-2.396e-08 -1.9261e-09 -9.9143e-10)
(-3.2076e-08 -2.3406e-09 -1.1979e-09)
(-4.2692e-08 -2.8867e-09 -1.4509e-09)
(-5.6428e-08 -3.6869e-09 -1.7965e-09)
(-7.4116e-08 -4.8588e-09 -2.2813e-09)
(-9.6766e-08 -6.3817e-09 -2.8982e-09)
(-1.2534e-07 -8.1496e-09 -3.6037e-09)
(-1.6054e-07 -1.042e-08 -4.4989e-09)
(-2.0282e-07 -1.4153e-08 -5.9734e-09)
(-2.5295e-07 -2.0453e-08 -8.4796e-09)
(-3.1197e-07 -2.9666e-08 -1.2166e-08)
(-3.7961e-07 -4.1719e-08 -1.7012e-08)
(-4.5254e-07 -5.8015e-08 -2.3592e-08)