/*--------------------------------*- C++ -*----------------------------------*\
  =========                 |
  \\      /  F ield         | OpenFOAM: The Open Source CFD Toolbox
   \\    /   O peration     | Website:  https://openfoam.org
    \\  /    A nd           | Version:  8
     \\/     M anipulation  |
\*---------------------------------------------------------------------------*/
FoamFile
{
    version     2.0;
    format      ascii;
    class       surfaceVectorField;
    location    "0.0035000";
    object      Uf;
}
// * * * * * * * * * * * * * * * * * * * * * * * * * * * * * * * * * * * * * //

dimensions      [0 1 -1 0 0 0 0];

internalField   nonuniform List<vector> 
1094
(
(0.688074092954658 0.000444086147430864 9.02279146361086e-19)
(0.458809592690688 0.00146060163437574 -5.99316292136058e-19)
(0.688644311201199 0.000307535537545674 4.57260350566903e-19)
(0.461195807102425 0.0015956086801095 4.81946622786857e-18)
(0.689166516539187 0.000285021633916084 8.01198131816841e-18)
(0.461935922919091 0.00165220832702142 3.05135177104516e-18)
(0.689544879677294 0.00031136465650699 2.22056610145243e-17)
(0.462573259560568 0.00177115120941506 1.52699606978506e-17)
(0.689827159803906 0.000327888784930442 8.31670157754653e-18)
(0.463025038204415 0.00185181946224288 2.2973193403911e-17)
(0.69006900605729 0.000336093309376779 -1.10303333590316e-17)
(0.463366180787372 0.00189251292352159 -9.50987259426346e-18)
(0.69029787535995 0.000340215119960123 -1.92987802822264e-17)
(0.463668587558242 0.00190917416846753 -1.34558233785158e-17)
(0.690527065204286 0.000342957951369835 3.22843995691228e-18)
(0.46396447214054 0.00191554485147949 -1.1537814329224e-17)
(0.690762686405364 0.00034530197594501 5.85763987004785e-17)
(0.464266415200313 0.00191873821220015 3.76940091694102e-17)
(0.691005073670565 0.000347349193594784 3.8991420677195e-17)
(0.464578714772686 0.00192062320893928 7.93879437653619e-17)
(0.691253398684566 0.000349094717401871 2.1603104769749e-18)
(0.464901619616231 0.00192197951918689 1.44712533944635e-17)
(0.69150909366132 0.000350334804363902 1.19711916736064e-17)
(0.465234717273093 0.00192287704669951 3.41419564624267e-17)
(0.691774229832838 0.000351244310515928 1.94283968945381e-17)
(0.46558024880265 0.00192312644508536 2.62073509673448e-17)
(0.692046778249998 0.000352461471817382 1.45789813044129e-17)
(0.465938540312595 0.00192318335872713 5.47439184743999e-17)
(0.692325753810266 0.000354147710080671 -3.6398210274979e-18)
(0.466307727077929 0.00192396093922941 1.85111918977208e-17)
(0.692613103648375 0.000355670936186044 -1.66510599055542e-17)
(0.466689027383315 0.00192527507576118 -1.81694022560068e-17)
(0.69290788388622 0.000356753402981919 -2.05433013864537e-17)
(0.467083174446085 0.00192566683593456 -3.05415727802018e-17)
(0.693210436081798 0.000357838952143603 -4.89666618878382e-17)
(0.467490004836965 0.00192569625192834 -2.74995647810052e-17)
(0.693522147840228 0.000359020548446543 -5.0299947840341e-17)
(0.46791048351248 0.00192606569360057 -7.98380975655603e-17)
(0.693843153239062 0.000360021030196004 -1.57856194601788e-17)
(0.468345599958401 0.001926293337152 -2.93045962421088e-17)
(0.694173092929655 0.000360997517294318 3.38934723101425e-17)
(0.468795468762081 0.00192610122078128 -5.00960812356066e-18)
(0.694512680185475 0.000362333048519904 4.56920977131361e-17)
(0.46926068864718 0.00192620296677009 5.84058407388747e-17)
(0.694863058508123 0.00036373065057874 -1.60839388440129e-17)
(0.469742594193059 0.00192698188400762 2.32196138428318e-17)
(0.695222918438934 0.000364656192194857 -5.2882971858542e-17)
(0.470241376497794 0.00192711710509615 -9.94564730641883e-17)
(0.695594081810488 0.000365320658097884 -2.68872748780338e-17)
(0.470756902729514 0.00192644568403261 -1.27414081044979e-16)
(0.695980359719127 0.000366124794513566 -2.55102471920984e-17)
(0.471293017435274 0.00192605214051254 -5.42670774937119e-17)
(0.69637918751235 0.000367192121848779 -9.80317350192571e-17)
(0.471850626465776 0.00192569727072036 -1.17666600064363e-16)
(0.696789720252367 0.000368586185367958 -4.55290095514241e-17)
(0.472427799327915 0.00192573237344133 -1.53222261906014e-16)
(0.697214376288674 0.000370112165078223 6.96148681251734e-17)
(0.473026735113474 0.00192631199839531 4.36811841722719e-17)
(0.697654156482112 0.00037134387397505 7.76535379252579e-17)
(0.473649400538982 0.0019267720562404 1.81341634938239e-16)
(0.698108626007614 0.000372464250462238 3.87874924859517e-17)
(0.474296326050824 0.00192642010551336 1.32310497383268e-16)
(0.698579064568942 0.00037406300083823 -5.1675155099072e-17)
(0.474968730420525 0.00192639535549699 2.54492482868099e-17)
(0.699068303269197 0.00037562030935694 -2.24983661702083e-17)
(0.475669065191571 0.00192741142830107 -1.1350735540922e-16)
(0.699575129895244 0.000376851087436731 5.24095379172483e-17)
(0.476398603990864 0.00192719811524737 1.54792165910254e-16)
(0.70010040590819 0.0003786867782691 -6.74948781959438e-18)
(0.477158296283838 0.00192701501588999 2.17302791299159e-16)
(0.700648149453972 0.000380719225370375 -1.80122380847074e-17)
(0.477951009366957 0.00192856433367952 3.92962185328329e-17)
(0.701217483665622 0.000382235449757192 -1.90874307322232e-17)
(0.478778983390693 0.00192886816263844 3.97249296780821e-17)
(0.70180895668285 0.00038411619336368 -7.84601613095482e-17)
(0.479643295133686 0.00192864885121288 -9.63543969682328e-17)
(0.702425827433855 0.00038661866934968 -2.47923014264863e-17)
(0.480546553169961 0.0019298949051651 -2.2631760329531e-16)
(0.703070288496094 0.000388741831588563 2.55532852896514e-17)
(0.481492434511891 0.00193141377920947 1.41694125992973e-18)
(0.703741885559424 0.000390722679960262 -8.73461539508926e-17)
(0.482482854967107 0.00193135451695204 -1.53026051045869e-17)
(0.704442785980008 0.000393837033362143 -2.3765259479998e-17)
(0.483520326037625 0.00193208332643011 -1.11338706825363e-16)
(0.70517871969989 0.000396885822097102 -7.36063254212159e-17)
(0.484609723067696 0.00193533408851746 4.59611858545742e-17)
(0.705947918751226 0.000399117416234781 -1.94174763988553e-16)
(0.485754076240824 0.00193567591440818 -4.34982606562437e-16)
(0.706752467087585 0.000402608032153692 -9.2538507983023e-17)
(0.486956158470473 0.00193592439977589 -2.82677262834912e-16)
(0.707599791419666 0.000406678994558087 -3.33377814711635e-17)
(0.48822170837077 0.00193992979013476 -1.17280015242896e-16)
(0.708489683986213 0.000409745506254681 7.4302058318552e-17)
(0.489555901163381 0.00194164642788536 -6.30065227935706e-18)
(0.709423917188504 0.000413461322005009 9.53015303478514e-17)
(0.490962444826198 0.00194203014236494 7.9157725569856e-17)
(0.710408745527832 0.000418484725511646 -1.21573834613043e-17)
(0.492447337106951 0.00194529793790017 7.35849343307546e-17)
(0.71144900220107 0.000422776662236296 -4.94468790239178e-17)
(0.4940182665439 0.00194928514156815 -8.46007008467717e-17)
(0.712545450981092 0.000426623950155635 8.81277566963789e-18)
(0.495680648787639 0.00194976804943425 -7.8630741471293e-17)
(0.713703332590665 0.00043271633811247 5.30505089546271e-17)
(0.497441849128943 0.00195150917351432 7.75146932733003e-18)
(0.714933995560052 0.00043870412580343 6.55041506226081e-17)
(0.499312422773391 0.0019584166920815 9.91681889132619e-17)
(0.7162369835768 0.000442820184273532 1.55440224627414e-16)
(0.501300676970982 0.00195914311144675 1.50236545361981e-16)
(0.717618080252019 0.00044897366516938 6.78138386180327e-17)
(0.503415947126346 0.00195902847903605 2.88650676099309e-16)
(0.719090566598636 0.000456118792115399 -9.14538247248194e-17)
(0.50567065726689 0.00196524748977577 -1.0889209813503e-16)
(0.720658556264892 0.000461176787370079 7.06211403798191e-17)
(0.508077726469317 0.00196716785208095 -1.08017569858546e-16)
(0.722328880059582 0.000466984099358093 5.23638028736637e-17)
(0.510650298108901 0.00196544068697268 2.15921161722032e-16)
(0.724115257616312 0.000474823491411966 -7.36718247065308e-17)
(0.513404913256445 0.00196822152046197 -9.11465448257977e-17)
(0.726029762587111 0.000480612700652983 -5.53483486292766e-18)
(0.516359912364818 0.00197130001346929 -4.93887672544799e-17)
(0.728079942369541 0.000484571687455445 -3.01803574708386e-17)
(0.519532898720829 0.00196588639549436 3.35735803699331e-17)
(0.730280289504478 0.000491710215712989 -7.00127374113891e-17)
(0.522947404643651 0.00196088967757221 -1.5311223723273e-16)
(0.732654006033426 0.000497639576223946 1.04038628693725e-18)
(0.526628756973717 0.00196313295768448 -1.34999019023759e-16)
(0.735209659810047 0.000498909847261935 2.24548088765662e-17)
(0.530602678744905 0.00195174045793989 1.37063740505857e-16)
(0.737969024720088 0.000501880469336232 -8.21654012508901e-17)
(0.534901740941389 0.00193623707190052 -3.81765695073747e-17)
(0.740961052017284 0.000506906646616817 -1.28541935772506e-16)
(0.539563574443142 0.00192669192632657 -3.43792960238214e-16)
(0.744208903756763 0.000510720779211654 -4.02644295204593e-17)
(0.544631878967712 0.00191343209485524 -2.28472322037007e-16)
(0.747746605471222 0.000511768013224403 -2.32084799764914e-17)
(0.550155229561905 0.00189538393327119 -5.57742744200796e-17)
(0.751605398040715 0.00050897162130414 -4.82966951550163e-18)
(0.556190810874447 0.00186794039921084 -1.63515054257979e-16)
(0.755822503497804 0.000497910711500151 5.33378760567955e-17)
(0.562792237748248 0.00183133349606457 1.39337913497763e-16)
(0.760433883935479 0.000478413800142795 6.58444684525843e-17)
(0.570019155471691 0.0017709287724864 7.54521115231399e-17)
(0.765493487114456 0.000456834797634015 1.12456998172036e-16)
(0.577954240030512 0.00169974427144915 1.06391923787514e-16)
(0.771064487859396 0.000430080908094976 1.18175368792443e-16)
(0.586686050722965 0.00162249927564469 2.4124383119271e-16)
(0.777213293405466 0.00039496789180898 3.1295645854157e-17)
(0.596325732235043 0.00152380638670908 1.93274044613457e-16)
(0.784024337480886 0.00035279107529345 6.32613517659059e-17)
(0.607002356063587 0.00140722136644187 -8.34809503558154e-17)
(0.791606298367371 0.000299292935603711 8.28925146679521e-17)
(0.618876709922762 0.00126991907266329 1.03584389738082e-16)
(0.800076965284878 0.000234928751525079 4.87192842866039e-19)
(0.632113524820846 0.00109915558562516 1.85199047936128e-18)
(0.809607352567916 0.000167410549182428 -3.37669336156221e-17)
(0.647018238415843 0.000906319991435944 -1.18993136590725e-18)
(0.82037405835898 7.43060748111551e-05 -2.76733486226917e-17)
(0.663728809829823 0.000690396455356861 -5.89069861914817e-17)
(0.832671112923381 -2.6404101929176e-05 9.38031063998382e-18)
(0.682910755039763 0.000392540776606688 2.19568666643634e-17)
(0.846724440982085 -0.00013523935601096 -7.07439667964569e-18)
(0.704414150259438 9.96124795396117e-05 5.74921535459011e-18)
(0.863313842341989 -0.000228362773720566 -7.12967705743197e-18)
(0.730330020560552 -0.000265536522465458 -4.51726177464792e-17)
(0.882466972464727 -0.000395588107578087 2.59355977844072e-17)
(0.758436110901042 -0.000640671373260343 -1.11025247002836e-17)
(0.906520035082841 -0.000398466861703677 3.93194513210722e-17)
(0.796738088214122 -0.00120272082516223 6.23129175059794e-17)
(0.934490168020479 -0.000585260949909563 8.81108035999517e-18)
(0.833572409645025 -0.00149203795045295 4.91933962218452e-17)
(0.969484934902004 0.000131133176696477 -4.15740889362479e-18)
(0.900334743949676 -0.00206782586993182 -1.45819608361468e-17)
(0.964327323608623 3.80067480676209e-05 3.53948491183428e-18)
(0.92356461897996 1.02736524750375e-05 1.62260244544153e-17)
(0.962857226268837 3.26596129841477e-05 -4.8577546904458e-18)
(0.908434337379701 -0.00030380115668993 -1.71755023267847e-18)
(0.959518156021326 -3.38887797939245e-05 3.67381659843593e-19)
(0.90893256300418 -0.000232165454102654 -1.56640670631053e-17)
(0.95664358979045 -6.82017660103396e-05 1.03604230385794e-17)
(0.901636530213022 -0.00031597866118172 6.64919221594196e-18)
(0.9533138972664 -0.000109011393386428 5.7488712525281e-18)
(0.897345757703154 -0.000318991173633977 1.285343823946e-17)
(0.950038468002056 -0.000137578382364787 -1.23740375778397e-18)
(0.891382505255448 -0.000350549022028635 3.44716300484723e-19)
(0.946684143645434 -0.000163846532742435 -2.57574452700098e-18)
(0.886016021418315 -0.000358946493581973 -6.1307106535134e-18)
(0.943397101847375 -0.000182062203634501 -1.70420608593658e-18)
(0.880373011593667 -0.000367045125729293 -4.94595689813341e-18)
(0.940174638536018 -0.000189262391913794 -1.84237723415453e-18)
(0.874957513843645 -0.000369328240961288 -1.87309082648353e-18)
(0.937126987509093 -0.000190140092478494 -1.41814542416716e-18)
(0.869709637177118 -0.000360715258467861 -5.57458365541819e-18)
(0.934384768638705 -0.000184002782017794 -2.42427291403473e-19)
(0.864876608664488 -0.000321540094749793 1.56504419759696e-18)
(0.931928488873794 -0.000171072950278891 1.56611215806999e-22)
(0.860534364679322 -0.000297624919772987 2.11171940648913e-19)
(0.929906718047268 -0.000111555995584211 2.92042024828984e-20)
(0.856653620593755 -0.000275539401401103 7.93116614446529e-19)
(0.854158415783409 -0.000180124972190123 -5.60909413956356e-19)
(0.229748383414245 0.00283103531487901 3.34276331210118e-18)
(0.0762939636387517 0.00438640325894754 -2.83879251656015e-18)
(0.23153924529863 0.00325109722403329 7.45131626141796e-18)
(0.0799069124571517 0.00476250430717835 1.00721846048184e-18)
(0.232711473662781 0.00354340795259024 1.03467680024601e-17)
(0.0809981761682132 0.00531455680708469 5.67830184523953e-18)
(0.233457093131687 0.00376138134122684 1.60170706237596e-17)
(0.0818304289112537 0.00576558172021776 1.42894825189904e-17)
(0.233979417513635 0.00388385086300372 5.06333826362829e-18)
(0.0824045566225636 0.00602090588996011 2.79270482858817e-17)
(0.234408285126003 0.00394025636967166 -1.19484555759646e-17)
(0.0828428041219169 0.00613880591908777 6.64597942135741e-18)
(0.234807716732465 0.00396241320826996 -5.61472909598115e-18)
(0.0832363617273289 0.00618445363064227 8.15897066171191e-18)
(0.235206248129905 0.0039704630061813 2.31389731459533e-17)
(0.0836247203016163 0.00619858187912903 1.46611532541921e-17)
(0.235615731990718 0.00397363808337708 5.85926737258364e-17)
(0.0840229209617557 0.0062013766244738 5.08441113013129e-17)
(0.236039305871613 0.0039751350197488 5.48157511393195e-17)
(0.0844363526399203 0.00620045563370556 8.98148838277987e-17)
(0.236477493414282 0.00397589063433833 4.6731692913999e-17)
(0.0848660823061192 0.00619832552374789 4.21274535550879e-17)
(0.236931122656062 0.00397597702229983 4.85528771030035e-17)
(0.085312425962852 0.00619549024954531 2.90863578835984e-17)
(0.237400807171114 0.00397559229552605 6.18048915482644e-17)
(0.0857764006977498 0.00619187615553036 3.93727494487734e-17)
(0.237886194056843 0.00397541558617608 5.88222403968866e-17)
(0.0862582327647575 0.00618803548624286 8.86384432661566e-17)
(0.23838794914003 0.00397573353125299 3.93759531158592e-18)
(0.0867579234508909 0.00618467417243572 5.60754638295306e-17)
(0.238907511446979 0.00397577553132624 -3.2165364410148e-17)
(0.0872770041779939 0.00618145943161339 -1.46477566249826e-17)
(0.239444669013293 0.00397509953863122 -3.75746255688946e-17)
(0.0878162376593235 0.00617737149355037 -7.94326426469284e-17)
(0.239999942439623 0.0039742301219623 -5.85395527190165e-17)
(0.0883756655407432 0.00617264771345905 -1.24833651346468e-16)
(0.240574884670786 0.00397330063536278 -5.87638616007799e-17)
(0.0889564925297279 0.00616785883124359 -1.03902226512537e-16)
(0.241170245816533 0.0039719963028812 -1.84831254418625e-17)
(0.0895600839273053 0.00616270436208807 -4.39047941478532e-17)
(0.241786339602768 0.00397053971717989 1.95899895984636e-17)
(0.0901869557813616 0.00615698470388209 2.57822240446925e-17)
(0.242424532419918 0.00396941113322059 3.58012598858553e-17)
(0.0908380769576004 0.00615129332572598 3.40179318310405e-17)
(0.24308652908225 0.0039681385162675 -6.06608568418301e-17)
(0.0915153825746089 0.00614581213720931 -2.57704283403304e-17)
(0.243772517543734 0.00396599998454273 -1.74601669740181e-16)
(0.0922199129136525 0.00613952995924359 -2.29883741745189e-16)
(0.244483802992089 0.0039633741892207 -1.55170347028767e-16)
(0.0929520625346975 0.00613216876915104 -2.01204431699489e-16)
(0.245222978527375 0.00396074802584714 -1.47115365661509e-16)
(0.0937143650629149 0.00612450990989355 -1.46602230912972e-16)
(0.245990435316907 0.003958263677589 -1.73272171598142e-16)
(0.0945085439655062 0.00611677406905754 -2.46518265330836e-16)
(0.246787142628837 0.00395611657521432 -6.35594192658131e-17)
(0.0953350273749776 0.00610913781387715 -2.54043016781929e-16)
(0.247615654974733 0.00395400345475177 1.56140714546036e-16)
(0.0961962785026255 0.00610162948106001 1.61508385080225e-17)
(0.248477729455865 0.00395123679804692 2.36509176520666e-16)
(0.0970948371079636 0.00609360416837728 2.56485743524827e-16)
(0.249374132335757 0.00394805346346897 1.18992850187318e-16)
(0.0980318897776288 0.00608448312325214 2.78443745427387e-16)
(0.250307373081716 0.00394531559434078 -3.67209842735011e-17)
(0.0990092361257478 0.00607527198996216 5.11972238054936e-17)
(0.251280897596692 0.00394226470996191 6.49000503829773e-17)
(0.100030503339871 0.00606637668280448 -8.35088779321549e-17)
(0.252295326526792 0.00393845451028291 3.20890713228962e-16)
(0.101097897313136 0.00605608002012213 2.07737323599494e-16)
(0.253353138454822 0.00393526581766018 2.63825257001093e-16)
(0.102212950519265 0.00604538767961768 3.45501365746571e-16)
(0.254459172303755 0.00393206069200227 9.74584553766946e-17)
(0.103380111317763 0.00603553496349095 1.85380203073275e-16)
(0.25561472484503 0.00392772903200925 -3.80328289781549e-17)
(0.104602942040787 0.00602417986807368 1.12527961866211e-16)
(0.256822082538142 0.00392359217560092 -2.45212139262976e-16)
(0.105883137557633 0.00601172878764584 -5.46458123917482e-17)
(0.258086472145474 0.00392003590980584 -1.99983020709743e-16)
(0.107225053136236 0.00599999438262374 -3.77458695372937e-16)
(0.259411924586814 0.00391548751463803 -3.97156799625801e-17)
(0.108634362876797 0.00598780801902508 -7.97597442582115e-17)
(0.26080034776778 0.00391025841300735 -3.94563399967229e-17)
(0.110114049916004 0.00597350726318297 -2.80796956002507e-17)
(0.262257041331596 0.0039063641064129 -4.1133462448999e-17)
(0.111667940069803 0.00595936611551377 -3.69865688212034e-17)
(0.263789656120575 0.0039018480017615 -3.17864471413001e-16)
(0.113304163607968 0.00594647167728203 1.76638271925516e-17)
(0.265399846183353 0.00389542035237831 -5.23978115784606e-16)
(0.115027762043714 0.00593020702899093 -5.96965103109829e-16)
(0.267093152042465 0.00389044628114786 -3.07479953819014e-16)
(0.116842112385065 0.00591299353616562 -3.39420699021767e-16)
(0.268880158287074 0.00388575839980552 -9.0003662498487e-17)
(0.118757175994533 0.00589810108012676 -2.22860565977652e-16)
(0.27076501099615 0.00387865847932276 -1.34453128500816e-18)
(0.120781603275315 0.00588019110153797 -1.80928029427133e-16)
(0.272753457875407 0.00387183021814738 5.7311116857684e-17)
(0.122920048720776 0.00585973761696986 -2.37845810956131e-17)
(0.274857113205393 0.00386632440248658 5.55814797756863e-19)
(0.125182640496062 0.00584087013382481 1.66969458727997e-16)
(0.277085867295938 0.00385861154956015 -1.13935836833042e-16)
(0.127582733001092 0.0058212362409326 -1.715849507171e-16)
(0.279445693501014 0.0038490491151293 -7.95712575190425e-17)
(0.130128316434086 0.00579666607899341 -1.62830914500401e-16)
(0.281949436506797 0.00384220219074714 5.42565994538733e-17)
(0.132829334785279 0.00577206694399709 -9.0190857912573e-17)
(0.28461521780123 0.0038338626088773 1.84418996072478e-16)
(0.135705457404778 0.00575029849284759 9.85898725951628e-17)
(0.287450004074079 0.00382076209859318 2.84372542376914e-16)
(0.138770398832789 0.00572072518877059 2.88838278659095e-16)
(0.290468215189981 0.00380963656031908 1.10246967699801e-16)
(0.142034421636906 0.00568813840253854 4.33235602902316e-16)
(0.293693942260248 0.00379848301796918 -1.25530203517731e-16)
(0.145521379218864 0.00565928956651199 -6.88920194659609e-17)
(0.297141768129948 0.00378162263559019 3.87545871015522e-17)
(0.149254115901835 0.00562373159994319 -1.37084258648162e-16)
(0.300829282252104 0.00376388297735478 7.0948156618291e-17)
(0.153248425843734 0.00558143261151618 1.26476738444174e-16)
(0.304785779918717 0.00374732873668568 -6.66386151462306e-17)
(0.15753172420415 0.00554068131811989 -4.40302317557851e-17)
(0.309038575049597 0.00372428892408101 -9.8600809206669e-18)
(0.162138998175349 0.00549645805178171 -8.86472920611824e-17)
(0.313609146821973 0.00369481706048731 -9.04703893416306e-17)
(0.167095360170431 0.00543935969800339 8.4977679870062e-17)
(0.318532991322292 0.00366770547865215 -2.18277104527782e-16)
(0.17243142532464 0.00537885533151155 -1.39523870974467e-16)
(0.323856836369708 0.00363446209462325 2.56589461421565e-18)
(0.178198982204369 0.00532016791664621 -1.35505273091039e-16)
(0.329610219337803 0.00358829423925242 7.54988287447451e-17)
(0.184440263507271 0.00524221860895108 1.76857221222175e-16)
(0.335840000230339 0.00354043403047718 -3.0201412777055e-16)
(0.19119371521312 0.0051533987747186 -6.90000379398059e-17)
(0.34261216724649 0.00349101214606321 -4.43500058803548e-16)
(0.19852655041498 0.00506433765193494 -5.8086785463823e-16)
(0.349990921454915 0.00343312406962062 -2.43168529696603e-16)
(0.206515472551028 0.00496490824239237 -3.25515607847998e-16)
(0.358049800925111 0.0033627898919127 -1.97051368780707e-16)
(0.215237698287402 0.00485088184405187 -2.27228290841069e-16)
(0.36686613105716 0.00327680782378626 -1.72526132486723e-17)
(0.224780363297359 0.00471720576565645 -2.22071302510623e-16)
(0.376526058741844 0.00316572429539143 1.61120741357574e-16)
(0.23523861175563 0.0045604258411777 2.91723370130189e-16)
(0.387115154699564 0.00302819626664572 1.16291646299568e-16)
(0.246704323966899 0.00436506304234515 1.25811056331009e-16)
(0.39875551910232 0.00287464014604563 2.36376734592481e-16)
(0.259292430299419 0.0041434015365325 1.3867456035394e-16)
(0.411599402304666 0.00269758636151143 3.16130203213823e-16)
(0.27316361793997 0.00389897619931223 4.034243471092e-16)
(0.425809305548962 0.00248879872449719 7.61174164698137e-17)
(0.288499621475828 0.00361344211798729 2.47161557686838e-16)
(0.441586696653216 0.00224780892326765 -4.15073156134028e-17)
(0.305497279783806 0.00328711045085853 -1.76325997691398e-16)
(0.459176048394639 0.00196342940395711 2.15147852600605e-17)
(0.324429760399168 0.00291267950510908 2.59545932704044e-17)
(0.478863973119161 0.00163312802686103 1.43129125717518e-19)
(0.345549040740322 0.00247459457358271 2.5626050262165e-19)
(0.501033140715189 0.00126408956784608 -2.69682576465147e-17)
(0.369325203757044 0.0019802562956538 -1.81547573313102e-18)
(0.526151440687629 0.000810442251393678 -8.31355894358088e-18)
(0.396051070732522 0.00141953632928542 -4.54409162381778e-17)
(0.554761808359483 0.000294743728468761 1.81141916574087e-17)
(0.426726655699956 0.000723113530107263 -2.18831664144405e-17)
(0.587712784256215 -0.000292516357703748 -3.30493379291671e-17)
(0.461071105110286 -1.43516993066483e-05 1.69323290058621e-18)
(0.62614636259528 -0.000934885562178378 -4.85670171461852e-17)
(0.502547243532895 -0.000915483830618603 -9.06679311473775e-17)
(0.671517433699653 -0.00179985198330384 2.65540024539735e-17)
(0.547587063711572 -0.00187507289363421 -4.93233684116844e-17)
(0.726274605874643 -0.00252246008506593 7.18454450059415e-17)
(0.608723884754701 -0.00321532944140888 1.00233646133524e-16)
(0.794110723472469 -0.00350940094263222 2.43752426690067e-17)
(0.667565389026118 -0.00422514340226217 7.66897962209563e-17)
(0.86843588372201 -0.00144265529462138 6.13340398919023e-18)
(0.773986232240812 -0.00554713377856792 -1.05598478770398e-17)
(0.86291102307581 -0.000253566700649044 1.09098760304162e-17)
(0.811218500991073 -1.97498161055346e-05 2.86152699333494e-17)
(0.856958266271546 -0.000236393095563296 -1.25479401420664e-17)
(0.786987654301207 -0.000383719263786283 -6.74331948302332e-18)
(0.850154751094439 -0.000324766651992327 -9.31194093946465e-18)
(0.787653635167172 -0.000308238782187627 -2.97766144638577e-17)
(0.842866893371335 -0.000352364405583184 9.16070090756101e-18)
(0.775912276049853 -0.000406623682354507 -3.88678043065419e-19)
(0.835238588556527 -0.000394936350102949 7.41380500133692e-18)
(0.768958691744626 -0.00041530914116005 7.98057719001851e-18)
(0.827437102260237 -0.000417626365813691 -4.56751143802314e-18)
(0.759361005282066 -0.000453304206557107 -7.5195289877443e-18)
(0.819607679156695 -0.000437107897448335 -8.49984506366409e-18)
(0.750709877274229 -0.000465023414859034 -1.30646413999311e-17)
(0.811877467135779 -0.000445663267510566 -5.10852256874325e-18)
(0.741645444144286 -0.000475049345690456 -9.93007883954145e-18)
(0.804339140705164 -0.000439358845749712 -5.61884280824448e-18)
(0.732941299032171 -0.00047812919847105 -3.79412964268493e-18)
(0.797216979389261 -0.000418222121014528 -2.57664573388464e-18)
(0.724434637573178 -0.000464945511526512 -7.39980177331303e-18)
(0.790807729128538 -0.000386726955791324 2.01906304507684e-18)
(0.716669677385337 -0.000417491168780488 1.32554515919972e-18)
(0.785058926496199 -0.000352748482376966 1.00654727951324e-18)
(0.709778247773424 -0.000384784430451347 1.31377556076091e-18)
(0.78024694550866 -0.000245255391549102 1.9986877806004e-19)
(0.703470996751371 -0.000361911058557832 1.49306474562078e-18)
(0.698530004136428 -0.000213850329901377 -8.63640814019384e-19)
(-0.0746084561255629 0.00636727984876588 -5.21589485620074e-18)
(-0.153406440889776 0.0071611406850571 -3.70913124088533e-18)
(-0.0726748638059246 0.00695642316254989 -8.03401678144779e-19)
(-0.150741011450052 0.00773749185933131 -4.1405262938197e-18)
(-0.0715553656270596 0.00772363418312763 9.63435123502595e-18)
(-0.150097212984043 0.00892922942751278 2.99697293012804e-19)
(-0.0708799750234388 0.00822476685681861 2.6284345594532e-17)
(-0.149598179485817 0.00972301926004258 1.34816415337535e-17)
(-0.0703948721766545 0.00847979853512408 2.9600999866919e-17)
(-0.149208853453703 0.01012701015989 2.48365092070818e-17)
(-0.0699784783115211 0.00858980727416505 2.696848960822e-17)
(-0.148866329136287 0.010303475033255 3.26785458788746e-17)
(-0.0695781227980453 0.00862962225997487 2.86329852233679e-17)
(-0.148528941878011 0.0103692028595317 5.31858918727786e-17)
(-0.0691719656798186 0.00864044649787569 4.25465314654411e-17)
(-0.148181375815307 0.0103878376451035 5.21387917225321e-17)
(-0.0687511577832178 0.00864096251865778 8.22747849218762e-17)
(-0.147818606477658 0.0103892956809308 5.59419293184751e-17)
(-0.0683128741893141 0.00863813142067056 7.71391560236406e-17)
(-0.147438625682962 0.0103852059910297 9.01854851988061e-17)
(-0.0678562887352619 0.00863410479753242 2.4338258651835e-17)
(-0.147040818362629 0.0103794056220535 4.30574511487731e-17)
(-0.067380730243253 0.00862930634089239 1.9782842230208e-17)
(-0.146624735922395 0.0103728115122444 8.66945192898133e-18)
(-0.0668857413705547 0.00862395946686006 6.63399459671739e-17)
(-0.146189734031049 0.0103654891981857 3.12962025684414e-17)
(-0.0663709363105391 0.00861857776609392 8.59520685229411e-17)
(-0.145735385930287 0.0103577688469258 6.65689479766618e-17)
(-0.0658351900184591 0.00861334227225008 3.74914861953535e-17)
(-0.145260985405387 0.0103500919192034 4.38495767705015e-17)
(-0.0652772221887151 0.00860764370116645 -6.22117058745502e-17)
(-0.144765103923416 0.0103422245154184 2.95510655907141e-18)
(-0.0646966546378481 0.00860110225775542 -1.67419554584243e-16)
(-0.14424689721221 0.0103334528437495 -8.65825567287762e-17)
(-0.0640927767292398 0.00859406747552979 -1.70675308554989e-16)
(-0.14370597194955 0.0103238786230345 -2.06387949968799e-16)
(-0.0634641451285774 0.00858665156653401 -8.9038677533101e-17)
(-0.143141189788395 0.0103138680232895 -1.30892245070181e-16)
(-0.0628097024214924 0.00857863452533011 6.19512385473553e-19)
(-0.142551228874574 0.010303231121437 -5.52958029195079e-17)
(-0.062128621596888 0.00857018877954675 4.03246917337631e-17)
(-0.141935250032351 0.0102918345583333 2.43624435562925e-17)
(-0.0614193044467435 0.00856165270653783 -2.79898789205019e-17)
(-0.141292084029608 0.0102800636045682 2.11183987073614e-17)
(-0.0606799449985042 0.00855262518925622 -1.96112791477505e-16)
(-0.140619852828613 0.010268005331642 -1.19776522063727e-16)
(-0.0599096409132102 0.00854250859677202 -2.56769484737336e-16)
(-0.139917200030972 0.0102549323859798 -2.74574799443421e-16)
(-0.059107110349532 0.00853155384756691 -1.926534245084e-16)
(-0.139183335620547 0.0102406221071435 -1.97270016594841e-16)
(-0.0582702303266209 0.00852018848439313 -2.46692330547625e-16)
(-0.138416414260819 0.0102256026160308 -1.83065750050854e-16)
(-0.05739742823187 0.00850857312045855 -3.27953250704368e-16)
(-0.137614538018071 0.0102100480835412 -3.24223133430915e-16)
(-0.0564868453032762 0.00849682032350682 -1.74043595481748e-16)
(-0.136776192532489 0.0101940726696574 -3.35385442409197e-16)
(-0.0555358152895754 0.00848462695452074 1.17007970422282e-16)
(-0.135898899508618 0.0101776589246092 -1.60134763980346e-17)
(-0.0545421932455417 0.00847140015077922 2.98729756436594e-16)
(-0.134980128841024 0.0101602918982324 2.48678966908029e-16)
(-0.0535043976560007 0.00845731176661754 2.10352326934841e-16)
(-0.134018232665327 0.010141525986649 3.45011880010241e-16)
(-0.0524194615019264 0.0084430061683902 4.17343550043051e-18)
(-0.133011090847729 0.0101220410702362 3.83527683537491e-17)
(-0.0512838431981981 0.00842786046806517 6.01745521171568e-17)
(-0.1319551099007 0.0101020828022981 -8.52511895411587e-17)
(-0.0500956860531717 0.00841151445954175 2.32434055697015e-16)
(-0.130847668767292 0.0100804186745483 1.42687608494675e-16)
(-0.0488517313071193 0.00839500233987599 2.66575523707104e-16)
(-0.12968663800237 0.010057710353882 2.5375242684113e-16)
(-0.0475470874432702 0.00837777719793581 2.00593456933467e-16)
(-0.12846751086201 0.0100347827024382 3.05966765585619e-16)
(-0.0461790904614294 0.00835890607949659 9.5857833752519e-17)
(-0.127186387801018 0.0100099273273026 2.05962630975757e-16)
(-0.0447444130517606 0.00833940525803927 -1.8773411028881e-16)