/*--------------------------------*- C++ -*----------------------------------*\
| =========                 |                                                 |
| \\      /  F ield         | OpenFOAM: The Open Source CFD Toolbox           |
|  \\    /   O peration     | Version:  4.1                                   |
|   \\  /    A nd           | Web:      www.OpenFOAM.org                      |
|    \\/     M anipulation  |                                                 |
\*---------------------------------------------------------------------------*/
FoamFile
{
    version     2.0;
    format      ascii;
    class       pointVectorField;
    location    "0.0093";
    object      pointDisplacement;
}
// * * * * * * * * * * * * * * * * * * * * * * * * * * * * * * * * * * * * * //

dimensions      [0 1 0 0 0 0 0];

internalField   nonuniform List<vector> 
7105
(
(0 0 0)
(4.9112e-06 -7.0433e-06 8.4246e-10)
(9.6179e-06 -1.4461e-05 1.6966e-09)
(1.4064e-05 -2.2158e-05 2.5461e-09)
(1.8403e-05 -2.9618e-05 3.3603e-09)
(2.2865e-05 -3.6272e-05 4.1168e-09)
(2.7584e-05 -4.1818e-05 4.7922e-09)
(3.2563e-05 -4.6223e-05 5.3593e-09)
(3.773e-05 -4.9529e-05 5.7936e-09)
(4.2998e-05 -5.1736e-05 6.0792e-09)
(4.8271e-05 -5.28e-05 6.2266e-09)
(5.3453e-05 -5.2687e-05 6.2546e-09)
(5.8445e-05 -5.1402e-05 6.1507e-09)
(6.3153e-05 -4.8972e-05 5.9036e-09)
(6.7495e-05 -4.5427e-05 5.5314e-09)
(7.1412e-05 -4.084e-05 5.0496e-09)
(7.4859e-05 -3.5374e-05 4.4723e-09)
(7.7806e-05 -2.9276e-05 3.827e-09)
(8.0222e-05 -2.2841e-05 3.1477e-09)
(8.2082e-05 -1.6378e-05 2.4626e-09)
(8.3365e-05 -1.0178e-05 1.7982e-09)
(8.4061e-05 -4.4886e-06 1.1836e-09)
(8.4174e-05 5.0959e-07 6.356e-10)
(8.3731e-05 4.7187e-06 1.6303e-10)
(8.2784e-05 8.0973e-06 -2.2847e-10)
(8.1411e-05 1.0606e-05 -5.3342e-10)
(7.9696e-05 1.2178e-05 -7.4355e-10)
(7.7707e-05 1.2754e-05 -8.5684e-10)
(7.5489e-05 1.2346e-05 -8.7689e-10)
(7.3061e-05 1.1074e-05 -8.1848e-10)
(7.0434e-05 9.1585e-06 -7.0583e-10)
(6.7619e-05 6.9048e-06 -5.6722e-10)
(6.4633e-05 4.6546e-06 -4.354e-10)
(6.1505e-05 2.7237e-06 -3.3982e-10)
(5.8277e-05 1.3369e-06 -3.0235e-10)
(5.4992e-05 5.8847e-07 -3.3072e-10)
(5.1682e-05 4.4064e-07 -4.1589e-10)
(4.8357e-05 7.6229e-07 -5.3963e-10)
(4.5007e-05 1.3827e-06 -6.7596e-10)
(4.1607e-05 2.1324e-06 -8.0135e-10)
(3.8134e-05 2.8639e-06 -8.9877e-10)
(3.4577e-05 3.4477e-06 -9.4688e-10)
(3.0941e-05 3.7143e-06 -9.3045e-10)
(2.7232e-05 3.405e-06 -8.4474e-10)
(2.3358e-05 2.3453e-06 -6.9192e-10)
(1.9e-05 8.2463e-07 -4.9579e-10)
(1.37e-05 -3.7143e-07 -2.9922e-10)
(7.249e-06 -6.0018e-07 -1.3428e-10)
(0 0 0)
(0 0 0)
(4.8722e-06 -6.3463e-06 7.9398e-07)
(9.5681e-06 -1.2986e-05 1.6242e-06)
(1.4041e-05 -1.9834e-05 2.4798e-06)
(1.8423e-05 -2.6463e-05 3.3072e-06)
(2.2914e-05 -3.2395e-05 4.0471e-06)
(2.7639e-05 -3.7363e-05 4.6664e-06)
(3.2605e-05 -4.1317e-05 5.1592e-06)
(3.7753e-05 -4.4283e-05 5.5284e-06)
(4.2997e-05 -4.6259e-05 5.774e-06)
(4.8245e-05 -4.721e-05 5.8921e-06)
(5.3402e-05 -4.7109e-05 5.8796e-06)
(5.837e-05 -4.5959e-05 5.7368e-06)
(6.3057e-05 -4.3784e-05 5.4659e-06)
(6.7383e-05 -4.0613e-05 5.071e-06)
(7.1288e-05 -3.6519e-05 4.5611e-06)
(7.4726e-05 -3.1646e-05 3.9541e-06)
(7.7665e-05 -2.6212e-05 3.2769e-06)
(8.0076e-05 -2.048e-05 2.5618e-06)
(8.1931e-05 -1.472e-05 1.8431e-06)
(8.3213e-05 -9.1905e-06 1.1531e-06)
(8.3911e-05 -4.1125e-06 5.1924e-07)
(8.4032e-05 3.5487e-07 -3.8702e-08)
(8.3601e-05 4.1211e-06 -5.0951e-07)
(8.2673e-05 7.1439e-06 -8.8743e-07)
(8.1319e-05 9.3852e-06 -1.1674e-06)
(7.962e-05 1.0789e-05 -1.3429e-06)
(7.7643e-05 1.1308e-05 -1.4085e-06)
(7.5431e-05 1.0959e-05 -1.366e-06)
(7.3007e-05 9.8467e-06 -1.228e-06)
(7.0384e-05 8.168e-06 -1.0192e-06)
(6.7574e-05 6.1901e-06 -7.7336e-07)
(6.4596e-05 4.2119e-06 -5.2769e-07)
(6.1477e-05 2.5091e-06 -3.1634e-07)
(5.8259e-05 1.2786e-06 -1.6347e-07)
(5.4981e-05 6.0453e-07 -7.9477e-08)
(5.1674e-05 4.5733e-07 -6.0947e-08)
(4.8349e-05 7.2544e-07 -9.43e-08)
(4.4994e-05 1.2607e-06 -1.6105e-07)
(4.1588e-05 1.9136e-06 -2.4243e-07)
(3.8112e-05 2.5518e-06 -3.22e-07)
(3.4551e-05 3.054e-06 -3.8475e-07)
(3.0906e-05 3.2667e-06 -4.1129e-07)
(2.7165e-05 2.977e-06 -3.7487e-07)
(2.3225e-05 2.0618e-06 -2.6043e-07)
(1.8789e-05 7.785e-07 -1.0029e-07)
(1.3465e-05 -2.3153e-07 2.6063e-08)
(7.0919e-06 -4.5286e-07 5.4763e-08)
(0 0 0)
(0 0 0)
(4.8457e-06 -5.6135e-06 1.8069e-06)
(9.5344e-06 -1.1459e-05 3.6883e-06)
(1.4025e-05 -1.746e-05 5.6194e-06)
(1.8435e-05 -2.3263e-05 7.4857e-06)
(2.2947e-05 -2.8469e-05 9.1588e-06)
(2.7676e-05 -3.2843e-05 1.0564e-05)
(3.2634e-05 -3.633e-05 1.1685e-05)
(3.7768e-05 -3.8944e-05 1.2525e-05)
(4.2995e-05 -4.0683e-05 1.3083e-05)
(4.8226e-05 -4.1519e-05 1.3351e-05)
(5.3366e-05 -4.143e-05 1.3323e-05)
(5.8317e-05 -4.0419e-05 1.2998e-05)
(6.299e-05 -3.8504e-05 1.2383e-05)
(6.7305e-05 -3.5716e-05 1.1488e-05)
(7.1202e-05 -3.2121e-05 1.0333e-05)
(7.4634e-05 -2.7845e-05 8.9596e-06)
(7.7568e-05 -2.308e-05 7.4289e-06)
(7.9974e-05 -1.8052e-05 5.8134e-06)
(8.1827e-05 -1.2999e-05 4.1896e-06)
(8.3107e-05 -8.1471e-06 2.63e-06)
(8.3807e-05 -3.6871e-06 1.1964e-06)
(8.3933e-05 2.4049e-07 -6.6541e-08)
(8.3512e-05 3.5544e-06 -1.1326e-06)
(8.2595e-05 6.2141e-06 -1.9881e-06)
(8.1255e-05 8.1842e-06 -2.6217e-06)
(7.9567e-05 9.4175e-06 -3.0186e-06)
(7.7598e-05 9.878e-06 -3.1678e-06)
(7.539e-05 9.5815e-06 -3.0743e-06)
(7.2969e-05 8.6214e-06 -2.7678e-06)
(7.0348e-05 7.1688e-06 -2.3031e-06)
(6.7542e-05 5.4554e-06 -1.755e-06)
(6.4569e-05 3.7392e-06 -1.206e-06)
(6.1458e-05 2.2583e-06 -7.3223e-07)
(5.8246e-05 1.183e-06 -3.8791e-07)
(5.4974e-05 5.8731e-07 -1.9677e-07)
(5.1669e-05 4.4789e-07 -1.5162e-07)
(4.8343e-05 6.7042e-07 -2.2252e-07)
(4.4985e-05 1.1277e-06 -3.6863e-07)
(4.1576e-05 1.6897e-06 -5.4817e-07)
(3.8096e-05 2.2396e-06 -7.2365e-07)
(3.4533e-05 2.6677e-06 -8.6022e-07)
(3.088e-05 2.8379e-06 -9.1454e-07)
(2.7117e-05 2.575e-06 -8.3024e-07)
(2.3131e-05 1.7917e-06 -5.7841e-07)
(1.8644e-05 7.1238e-07 -2.3064e-07)
(1.3305e-05 -1.3797e-07 4.3773e-08)
(6.9852e-06 -3.4379e-07 1.1051e-07)
(0 0 0)
(0 0 0)
(4.8308e-06 -4.7628e-06 2.8272e-06)
(9.5155e-06 -9.7096e-06 5.764e-06)
(1.4016e-05 -1.4776e-05 8.7718e-06)
(1.8444e-05 -1.9671e-05 1.1678e-05)
(2.2967e-05 -2.4067e-05 1.4286e-05)
(2.7699e-05 -2.7768e-05 1.6482e-05)
(3.2653e-05 -3.0722e-05 1.8234e-05)
(3.7777e-05 -3.2937e-05 1.9548e-05)
(4.2995e-05 -3.4409e-05 2.0421e-05)
(4.8215e-05 -3.5116e-05 2.084e-05)
(5.3343e-05 -3.504e-05 2.0796e-05)
(5.8284e-05 -3.4185e-05 2.0288e-05)
(6.2948e-05 -3.2565e-05 1.9327e-05)
(6.7257e-05 -3.0208e-05 1.7929e-05)
(7.1148e-05 -2.7169e-05 1.6127e-05)
(7.4576e-05 -2.3559e-05 1.3986e-05)
(7.7507e-05 -1.9536e-05 1.1599e-05)
(7.991e-05 -1.5292e-05 9.0817e-06)
(8.1761e-05 -1.1026e-05 6.551e-06)
(8.304e-05 -6.9277e-06 4.1199e-06)
(8.3741e-05 -3.1593e-06 1.884e-06)
(8.3871e-05 1.6144e-07 -8.6465e-08)
(8.3455e-05 2.9646e-06 -1.75e-06)
(8.2547e-05 5.2142e-06 -3.085e-06)
(8.1214e-05 6.8797e-06 -4.0734e-06)
(7.9534e-05 7.9225e-06 -4.6925e-06)
(7.7569e-05 8.3142e-06 -4.9257e-06)
(7.5364e-05 8.0697e-06 -4.7822e-06)
(7.2944e-05 7.2683e-06 -4.3086e-06)
(7.0325e-05 6.0536e-06 -3.5902e-06)
(6.7521e-05 4.6196e-06 -2.7419e-06)
(6.4552e-05 3.1818e-06 -1.8913e-06)
(6.1445e-05 1.9389e-06 -1.1558e-06)
(5.8238e-05 1.0337e-06 -6.1992e-07)
(5.4969e-05 5.289e-07 -3.2081e-07)
(5.1666e-05 4.059e-07 -2.4767e-07)
(4.8339e-05 5.8685e-07 -3.5442e-07)
(4.4979e-05 9.6576e-07 -5.7827e-07)
(4.1569e-05 1.4337e-06 -8.5458e-07)
(3.8087e-05 1.8915e-06 -1.1246e-06)
(3.4521e-05 2.2454e-06 -1.3332e-06)
(3.0864e-05 2.3807e-06 -1.413e-06)
(2.7086e-05 2.1556e-06 -1.28e-06)
(2.3073e-05 1.5043e-06 -8.9356e-07)
(1.8556e-05 6.1442e-07 -3.6386e-07)
(1.321e-05 -8.7509e-08 5.4251e-08)
(6.9221e-06 -2.6631e-07 1.6009e-07)
(0 0 0)
(0 0 0)
(4.8261e-06 -3.8235e-06 3.8237e-06)
(9.5096e-06 -7.7917e-06 7.7921e-06)
(1.4014e-05 -1.1853e-05 1.1853e-05)
(1.8447e-05 -1.5776e-05 1.5777e-05)
(2.2974e-05 -1.93e-05 1.9301e-05)
(2.7707e-05 -2.2267e-05 2.2268e-05)
(3.2659e-05 -2.4637e-05 2.4639e-05)
(3.7781e-05 -2.6414e-05 2.6415e-05)
(4.2994e-05 -2.7595e-05 2.7596e-05)
(4.8211e-05 -2.8162e-05 2.8163e-05)
(5.3335e-05 -2.8102e-05 2.8102e-05)
(5.8273e-05 -2.7415e-05 2.7416e-05)
(6.2934e-05 -2.6116e-05 2.6117e-05)
(6.724e-05 -2.4227e-05 2.4227e-05)
(7.1129e-05 -2.1791e-05 2.1791e-05)
(7.4556e-05 -1.8898e-05 1.8898e-05)
(7.7486e-05 -1.5674e-05 1.5674e-05)
(7.9888e-05 -1.2273e-05 1.2273e-05)
(8.1738e-05 -8.8547e-06 8.8544e-06)
(8.3018e-05 -5.5703e-06 5.57e-06)
(8.3719e-05 -2.5493e-06 2.5492e-06)
(8.385e-05 1.1341e-07 -1.1344e-07)
(8.3436e-05 2.3614e-06 -2.3614e-06)
(8.253e-05 4.1655e-06 -4.1653e-06)
(8.1201e-05 5.5011e-06 -5.5008e-06)
(7.9522e-05 6.3375e-06 -6.3372e-06)
(7.7559e-05 6.6526e-06 -6.6522e-06)
(7.5355e-05 6.4589e-06 -6.4586e-06)
(7.2936e-05 5.8202e-06 -5.8198e-06)
(7.0317e-05 4.8512e-06 -4.8508e-06)
(6.7514e-05 3.7066e-06 -3.7063e-06)
(6.4546e-05 2.5585e-06 -2.5583e-06)
(6.1441e-05 1.5653e-06 -1.5653e-06)
(5.8235e-05 8.4114e-07 -8.412e-07)
(5.4967e-05 4.3623e-07 -4.3642e-07)
(5.1665e-05 3.3614e-07 -3.3647e-07)
(4.8338e-05 4.7888e-07 -4.7934e-07)
(4.4978e-05 7.7997e-07 -7.8055e-07)
(4.1566e-05 1.1523e-06 -1.153e-06)
(3.8084e-05 1.5164e-06 -1.5172e-06)
(3.4518e-05 1.797e-06 -1.7977e-06)
(3.0858e-05 1.903e-06 -1.9037e-06)
(2.7075e-05 1.7224e-06 -1.723e-06)
(2.3053e-05 1.2032e-06 -1.2038e-06)
(1.8527e-05 4.9428e-07 -4.9479e-07)
(1.3179e-05 -6.5206e-08 6.4832e-08)
(6.9014e-06 -2.0923e-07 2.0903e-07)
(0 0 0)
(0 0 0)
(4.8308e-06 -2.827e-06 4.763e-06)
(9.5155e-06 -5.7635e-06 9.7099e-06)
(1.4016e-05 -8.7711e-06 1.4776e-05)
(1.8444e-05 -1.1677e-05 1.9672e-05)
(2.2967e-05 -1.4285e-05 2.4068e-05)
(2.7699e-05 -1.648e-05 2.7769e-05)
(3.2653e-05 -1.8233e-05 3.0723e-05)
(3.7777e-05 -1.9547e-05 3.2938e-05)
(4.2995e-05 -2.042e-05 3.4409e-05)
(4.8215e-05 -2.0839e-05 3.5116e-05)
(5.3343e-05 -2.0795e-05 3.5041e-05)
(5.8284e-05 -2.0287e-05 3.4185e-05)
(6.2948e-05 -1.9327e-05 3.2565e-05)
(6.7257e-05 -1.7929e-05 3.0207e-05)
(7.1148e-05 -1.6127e-05 2.7169e-05)
(7.4576e-05 -1.3985e-05 2.3558e-05)
(7.7507e-05 -1.1599e-05 1.9535e-05)
(7.991e-05 -9.0818e-06 1.5291e-05)
(8.1761e-05 -6.5512e-06 1.1025e-05)
(8.3041e-05 -4.12e-06 6.9274e-06)
(8.3742e-05 -1.8841e-06 3.1591e-06)
(8.3871e-05 8.6444e-08 -1.6149e-07)
(8.3455e-05 1.7501e-06 -2.9645e-06)
(8.2547e-05 3.0851e-06 -5.2139e-06)
(8.1214e-05 4.0736e-06 -6.8794e-06)
(7.9534e-05 4.6927e-06 -7.9221e-06)
(7.7569e-05 4.926e-06 -8.3137e-06)
(7.5364e-05 4.7825e-06 -8.0692e-06)
(7.2944e-05 4.309e-06 -7.2678e-06)
(7.0325e-05 3.5905e-06 -6.0532e-06)
(6.7521e-05 2.7421e-06 -4.6192e-06)
(6.4552e-05 1.8914e-06 -3.1816e-06)
(6.1445e-05 1.1558e-06 -1.9388e-06)
(5.8238e-05 6.1979e-07 -1.0337e-06)
(5.4969e-05 3.2053e-07 -5.2899e-07)
(5.1666e-05 2.4723e-07 -4.0611e-07)
(4.8339e-05 3.5383e-07 -5.8716e-07)
(4.4979e-05 5.7754e-07 -9.6618e-07)
(4.1568e-05 8.5375e-07 -1.4342e-06)
(3.8087e-05 1.1237e-06 -1.8921e-06)
(3.4521e-05 1.3323e-06 -2.2459e-06)
(3.0863e-05 1.4122e-06 -2.3812e-06)
(2.7086e-05 1.2792e-06 -2.1561e-06)
(2.3073e-05 8.9285e-07 -1.5048e-06)
(1.8556e-05 3.6328e-07 -6.1486e-07)
(1.321e-05 -5.4666e-08 8.7179e-08)
(6.9221e-06 -1.603e-07 2.6613e-07)
(0 0 0)
(0 0 0)
(4.8458e-06 -1.8066e-06 5.6136e-06)
(9.5344e-06 -3.6878e-06 1.1459e-05)
(1.4025e-05 -5.6186e-06 1.7461e-05)
(1.8435e-05 -7.4848e-06 2.3264e-05)
(2.2947e-05 -9.1577e-06 2.8469e-05)
(2.7676e-05 -1.0563e-05 3.2843e-05)
(3.2634e-05 -1.1683e-05 3.633e-05)
(3.7768e-05 -1.2523e-05 3.8945e-05)
(4.2995e-05 -1.3081e-05 4.0684e-05)
(4.8226e-05 -1.335e-05 4.152e-05)
(5.3366e-05 -1.3321e-05 4.1431e-05)
(5.8317e-05 -1.2997e-05 4.0419e-05)
(6.299e-05 -1.2382e-05 3.8504e-05)
(6.7306e-05 -1.1487e-05 3.5716e-05)
(7.1202e-05 -1.0332e-05 3.212e-05)
(7.4634e-05 -8.9595e-06 2.7844e-05)
(7.7568e-05 -7.4289e-06 2.3079e-05)
(7.9974e-05 -5.8135e-06 1.8052e-05)
(8.1827e-05 -4.1897e-06 1.2999e-05)
(8.3107e-05 -2.6302e-06 8.1466e-06)
(8.3807e-05 -1.1965e-06 3.6869e-06)
(8.3933e-05 6.6516e-08 -2.4055e-07)
(8.3512e-05 1.1326e-06 -3.5543e-06)
(8.2596e-05 1.9883e-06 -6.2138e-06)
(8.1255e-05 2.6219e-06 -8.1838e-06)
(7.9567e-05 3.0188e-06 -9.417e-06)
(7.7598e-05 3.1681e-06 -9.8774e-06)
(7.539e-05 3.0746e-06 -9.581e-06)
(7.2968e-05 2.7681e-06 -8.6209e-06)
(7.0348e-05 2.3034e-06 -7.1683e-06)
(6.7542e-05 1.7552e-06 -5.455e-06)
(6.4569e-05 1.2061e-06 -3.7389e-06)
(6.1458e-05 7.322e-07 -2.2581e-06)
(5.8246e-05 3.8773e-07 -1.1829e-06)
(5.4974e-05 1.9641e-07 -5.8732e-07)
(5.1669e-05 1.5108e-07 -4.4799e-07)
(4.8343e-05 2.2181e-07 -6.706e-07)
(4.4985e-05 3.6777e-07 -1.1279e-06)
(4.1576e-05 5.472e-07 -1.69e-06)
(3.8096e-05 7.2262e-07 -2.2399e-06)
(3.4533e-05 8.5919e-07 -2.668e-06)
(3.088e-05 9.1356e-07 -2.8382e-06)
(2.7117e-05 8.2934e-07 -2.5754e-06)
(2.3131e-05 5.7763e-07 -1.7921e-06)
(1.8644e-05 2.3001e-07 -7.1274e-07)
(1.3305e-05 -4.4221e-08 1.3768e-07)
(6.9852e-06 -1.1075e-07 3.4362e-07)
(0 0 0)
(0 0 0)
(4.8722e-06 -7.9373e-07 6.3464e-06)
(9.5682e-06 -1.6238e-06 1.2986e-05)
(1.4041e-05 -2.4791e-06 1.9834e-05)
(1.8423e-05 -3.3064e-06 2.6463e-05)
(2.2914e-05 -4.0461e-06 3.2395e-05)
(2.7639e-05 -4.6653e-06 3.7363e-05)
(3.2605e-05 -5.158e-06 4.1317e-05)
(3.7753e-05 -5.5272e-06 4.4283e-05)
(4.2997e-05 -5.7727e-06 4.6259e-05)
(4.8245e-05 -5.8909e-06 4.721e-05)
(5.3402e-05 -5.8786e-06 4.7109e-05)
(5.837e-05 -5.7359e-06 4.5959e-05)
(6.3057e-05 -5.4652e-06 4.3783e-05)
(6.7383e-05 -5.0705e-06 4.0613e-05)
(7.1288e-05 -4.5608e-06 3.6518e-05)
(7.4727e-05 -3.954e-06 3.1645e-05)
(7.7666e-05 -3.277e-06 2.6211e-05)
(8.0076e-05 -2.562e-06 2.0479e-05)
(8.1932e-05 -1.8433e-06 1.4719e-05)
(8.3213e-05 -1.1532e-06 9.19e-06)
(8.3911e-05 -5.1936e-07 4.1122e-06)
(8.4032e-05 3.8661e-08 -3.5493e-07)
(8.3602e-05 5.0956e-07 -4.1209e-06)
(8.2673e-05 8.8758e-07 -7.1435e-06)
(8.1319e-05 1.1677e-06 -9.3847e-06)
(7.962e-05 1.3432e-06 -1.0788e-05)
(7.7643e-05 1.4089e-06 -1.1307e-05)
(7.5431e-05 1.3664e-06 -1.0958e-05)
(7.3007e-05 1.2284e-06 -9.8461e-06)
(7.0384e-05 1.0195e-06 -8.1674e-06)
(6.7574e-05 7.7357e-07 -6.1896e-06)
(6.4595e-05 5.2779e-07 -4.2115e-06)
(6.1477e-05 3.1629e-07 -2.5088e-06)
(5.8259e-05 1.6326e-07 -1.2784e-06)
(5.4981e-05 7.907e-08 -6.0444e-07)
(5.1674e-05 6.0339e-08 -4.5731e-07)
(4.8348e-05 9.3502e-08 -7.2549e-07)
(4.4994e-05 1.6009e-07 -1.2608e-06)
(4.1588e-05 2.4136e-07 -1.9138e-06)
(3.8111e-05 3.2087e-07 -2.5519e-06)
(3.4551e-05 3.8363e-07 -3.0542e-06)
(3.0905e-05 4.1023e-07 -3.2669e-06)
(2.7165e-05 3.7391e-07 -2.9772e-06)
(2.3225e-05 2.596e-07 -2.0621e-06)
(1.8789e-05 9.9623e-08 -7.7879e-07)
(1.3465e-05 -2.6537e-08 2.3129e-07)
(7.0918e-06 -5.501e-08 4.5271e-07)
(0 0 0)
(0 0 0)
(4.9113e-06 -6.5546e-10 7.0433e-06)
(9.618e-06 -1.3362e-09 1.4461e-05)
(1.4064e-05 -2.0378e-09 2.2158e-05)
(1.8403e-05 -2.7369e-09 2.9618e-05)
(2.2865e-05 -3.406e-09 3.6272e-05)
(2.7584e-05 -4.0029e-09 4.1818e-05)
(3.2563e-05 -4.4949e-09 4.6223e-05)
(3.773e-05 -4.8906e-09 4.9529e-05)
(4.2998e-05 -5.2108e-09 5.1736e-05)
(4.8271e-05 -5.4508e-09 5.2799e-05)
(5.3453e-05 -5.5982e-09 5.2686e-05)
(5.8445e-05 -5.6478e-09 5.1402e-05)
(6.3153e-05 -5.5918e-09 4.8972e-05)
(6.7496e-05 -5.4148e-09 4.5426e-05)
(7.1412e-05 -5.1111e-09 4.0839e-05)
(7.4859e-05 -4.6865e-09 3.5373e-05)
(7.7806e-05 -4.1477e-09 2.9275e-05)
(8.0223e-05 -3.5177e-09 2.284e-05)
(8.2083e-05 -2.8237e-09 1.6377e-05)
(8.3366e-05 -2.0931e-09 1.0177e-05)
(8.4062e-05 -1.3703e-09 4.4883e-06)
(8.4174e-05 -6.9442e-10 -5.0963e-07)
(8.3731e-05 -8.6097e-11 -4.7185e-06)
(8.2784e-05 4.3733e-10 -8.097e-06)
(8.1411e-05 8.5333e-10 -1.0606e-05)
(7.9696e-05 1.1444e-09 -1.2177e-05)
(7.7707e-05 1.3058e-09 -1.2753e-05)
(7.5489e-05 1.3385e-09 -1.2346e-05)
(7.3061e-05 1.2526e-09 -1.1073e-05)
(7.0434e-05 1.0717e-09 -9.1579e-06)
(6.7619e-05 8.2861e-10 -6.9043e-06)
(6.4633e-05 5.6074e-10 -4.6542e-06)
(6.1505e-05 3.0036e-10 -2.7234e-06)
(5.8276e-05 7.1846e-11 -1.3367e-06)
(5.4991e-05 -1.1045e-10 -5.883e-07)
(5.1681e-05 -2.4202e-10 -4.4052e-07)
(4.8357e-05 -3.2145e-10 -7.6222e-07)
(4.5007e-05 -3.5241e-10 -1.3827e-06)
(4.1606e-05 -3.3973e-10 -2.1324e-06)
(3.8134e-05 -2.9111e-10 -2.8639e-06)
(3.4577e-05 -2.2854e-10 -3.4478e-06)
(3.0941e-05 -1.754e-10 -3.7143e-06)
(2.7232e-05 -1.5102e-10 -3.4052e-06)
(2.3358e-05 -1.6597e-10 -2.3455e-06)
(1.9e-05 -1.963e-10 -8.2486e-07)
(1.37e-05 -1.9248e-10 3.7121e-07)
(7.2489e-06 -1.226e-10 6.0005e-07)
(0 0 0)
(0 0 0)
(4.8722e-06 -6.3465e-06 -7.9166e-07)
(9.5681e-06 -1.2987e-05 -1.6196e-06)
(1.4041e-05 -1.9835e-05 -2.4728e-06)
(1.8423e-05 -2.6464e-05 -3.298e-06)
(2.2914e-05 -3.2396e-05 -4.0358e-06)
(2.7639e-05 -3.7364e-05 -4.6532e-06)
(3.2605e-05 -4.1318e-05 -5.1445e-06)
(3.7753e-05 -4.4284e-05 -5.5126e-06)
(4.2997e-05 -4.6259e-05 -5.7573e-06)
(4.8245e-05 -4.7211e-05 -5.875e-06)
(5.3402e-05 -4.711e-05 -5.8626e-06)
(5.837e-05 -4.596e-05 -5.72e-06)
(6.3057e-05 -4.3784e-05 -5.4498e-06)
(6.7383e-05 -4.0614e-05 -5.056e-06)
(7.1288e-05 -3.652e-05 -4.5474e-06)
(7.4726e-05 -3.1646e-05 -3.9421e-06)
(7.7665e-05 -2.6213e-05 -3.2667e-06)
(8.0076e-05 -2.048e-05 -2.5535e-06)
(8.1931e-05 -1.472e-05 -1.8367e-06)
(8.3213e-05 -9.1907e-06 -1.1485e-06)
(8.3911e-05 -4.1126e-06 -5.1641e-07)
(8.4032e-05 3.5487e-07 4.0012e-08)
(8.3601e-05 4.1211e-06 5.0952e-07)
(8.2673e-05 7.144e-06 8.8637e-07)
(8.1319e-05 9.3853e-06 1.1655e-06)
(7.962e-05 1.0789e-05 1.3405e-06)
(7.7643e-05 1.1308e-05 1.4058e-06)
(7.5431e-05 1.0959e-05 1.3633e-06)
(7.3007e-05 9.8468e-06 1.2255e-06)
(7.0384e-05 8.168e-06 1.0171e-06)
(6.7574e-05 6.1901e-06 7.7168e-07)
(6.4596e-05 4.2119e-06 5.2645e-07)
(6.1478e-05 2.509e-06 3.1544e-07)
(5.8259e-05 1.2785e-06 1.6277e-07)
(5.4981e-05 6.0444e-07 7.8783e-08)
(5.1675e-05 4.5725e-07 6.0107e-08)
(4.8349e-05 7.2539e-07 9.3198e-08)
(4.4994e-05 1.2607e-06 1.5963e-07)
(4.1588e-05 1.9137e-06 2.4071e-07)
(3.8112e-05 2.5518e-06 3.2004e-07)
(3.4551e-05 3.0541e-06 3.8267e-07)
(3.0906e-05 3.2668e-06 4.0923e-07)
(2.7165e-05 2.9771e-06 3.73e-07)
(2.3225e-05 2.0619e-06 2.5892e-07)
(1.8789e-05 7.7854e-07 9.9248e-08)
(1.3465e-05 -2.3155e-07 -2.666e-08)
(7.0919e-06 -4.5288e-07 -5.5015e-08)
(0 0 0)
(0 0 0)
(4.818e-06 -5.2754e-06 2.408e-09)
(9.4999e-06 -1.0744e-05 4.8606e-09)
(1.401e-05 -1.6333e-05 7.3119e-09)
(1.8451e-05 -2.1734e-05 9.6708e-09)
(2.2985e-05 -2.6592e-05 1.1847e-08)
(2.7719e-05 -3.0689e-05 1.3745e-08)
(3.2668e-05 -3.3963e-05 1.5288e-08)
(3.7786e-05 -3.6418e-05 1.6445e-08)
(4.2995e-05 -3.8049e-05 1.721e-08)
(4.8205e-05 -3.8833e-05 1.7591e-08)
(5.3324e-05 -3.8749e-05 1.76e-08)
(5.8256e-05 -3.7801e-05 1.7221e-08)
(6.2913e-05 -3.6006e-05 1.6445e-08)
(6.7215e-05 -3.3396e-05 1.5302e-08)
(7.1101e-05 -3.0035e-05 1.3837e-08)
(7.4525e-05 -2.6043e-05 1.21e-08)
(7.7453e-05 -2.1598e-05 1.0165e-08)
(7.9854e-05 -1.6909e-05 8.1255e-09)
(8.1702e-05 -1.2197e-05 6.0769e-09)
(8.2982e-05 -7.671e-06 4.1087e-09)
(8.3683e-05 -3.508e-06 2.2964e-09)
(8.3815e-05 1.614e-07 6.9124e-10)
(8.3405e-05 3.2595e-06 -6.7331e-10)
(8.2504e-05 5.7453e-06 -1.7767e-09)
(8.1179e-05 7.5846e-06 -2.6055e-09)
(7.9505e-05 8.7356e-06 -3.1442e-09)
(7.7545e-05 9.1686e-06 -3.3826e-09)
(7.5344e-05 8.9012e-06 -3.3315e-09)
(7.2927e-05 8.0206e-06 -3.0331e-09)
(7.031e-05 6.6853e-06 -2.5549e-09)
(6.7508e-05 5.1082e-06 -1.9835e-09)
(6.4541e-05 3.5263e-06 -1.4148e-09)
(6.1437e-05 2.1574e-06 -9.3689e-10)
(5.8233e-05 1.1581e-06 -6.1414e-10)
(5.4966e-05 5.9788e-07 -4.7454e-10)
(5.1663e-05 4.5742e-07 -5.0783e-10)
(4.8335e-05 6.5225e-07 -6.7442e-10)
(4.4973e-05 1.0663e-06 -9.1783e-10)
(4.156e-05 1.5795e-06 -1.179e-09)
(3.8077e-05 2.0816e-06 -1.4046e-09)
(3.451e-05 2.4671e-06 -1.546e-09)
(3.0848e-05 2.6094e-06 -1.5599e-09)
(2.7059e-05 2.3574e-06 -1.4095e-09)
(2.3023e-05 1.6485e-06 -1.0891e-09)
(1.8482e-05 6.8898e-07 -6.7483e-10)
(1.3129e-05 -6.7953e-08 -3.0837e-10)
(6.8682e-06 -2.6974e-07 -9.0441e-11)
(0 0 0)
(0 0 0)
(4.7961e-06 -4.5081e-06 9.0327e-07)
(9.4722e-06 -9.1638e-06 1.8362e-06)
(1.3997e-05 -1.3904e-05 2.7863e-06)
(1.8463e-05 -1.8481e-05 3.7033e-06)
(2.3016e-05 -2.2604e-05 4.5292e-06)
(2.7754e-05 -2.6092e-05 5.2277e-06)
(3.2697e-05 -2.8885e-05 5.7869e-06)
(3.7801e-05 -3.0978e-05 6.2061e-06)
(4.2994e-05 -3.2367e-05 6.4842e-06)
(4.8187e-05 -3.3034e-05 6.6176e-06)
(5.3288e-05 -3.2963e-05 6.6034e-06)
(5.8204e-05 -3.2156e-05 6.4418e-06)
(6.2846e-05 -3.0628e-05 6.1359e-06)
(6.7137e-05 -2.8408e-05 5.6914e-06)
(7.1014e-05 -2.5552e-05 5.1196e-06)
(7.4432e-05 -2.2164e-05 4.4413e-06)
(7.7355e-05 -1.8392e-05 3.6861e-06)
(7.9751e-05 -1.4413e-05 2.8895e-06)
(8.1597e-05 -1.0414e-05 2.0889e-06)
(8.2875e-05 -6.5715e-06 1.3196e-06)
(8.3579e-05 -3.0344e-06 6.1154e-07)
(8.3717e-05 8.6024e-08 -1.3137e-08)
(8.3316e-05 2.7225e-06 -5.4095e-07)
(8.2426e-05 4.8378e-06 -9.6442e-07)
(8.1114e-05 6.4019e-06 -1.2775e-06)
(7.9451e-05 7.3808e-06 -1.4736e-06)
(7.7499e-05 7.752e-06 -1.5482e-06)
(7.5303e-05 7.5321e-06 -1.5049e-06)
(7.2889e-05 6.796e-06 -1.3583e-06)
(7.0276e-05 5.6769e-06 -1.1352e-06)
(6.7478e-05 4.3537e-06 -8.7141e-07)
(6.4516e-05 3.0246e-06 -6.0639e-07)
(6.1418e-05 1.8718e-06 -3.7649e-07)
(5.8221e-05 1.0265e-06 -2.0789e-07)
(5.4958e-05 5.4788e-07 -1.1236e-07)
(5.1657e-05 4.2125e-07 -8.7072e-08)
(4.8328e-05 5.774e-07 -1.1822e-07)
(4.4964e-05 9.1973e-07 -1.8649e-07)
(4.1548e-05 1.3471e-06 -2.7165e-07)
(3.8062e-05 1.7652e-06 -3.549e-07)
(3.4491e-05 2.0828e-06 -4.1811e-07)
(3.0819e-05 2.1924e-06 -4.3998e-07)
(2.7007e-05 1.9744e-06 -3.9644e-07)
(2.293e-05 1.3873e-06 -2.7877e-07)
(1.8346e-05 6.0397e-07 -1.2131e-07)
(1.2984e-05 -1.5248e-08 3.3185e-09)
(6.7732e-06 -1.9408e-07 3.9247e-08)
(0 0 0)
(0 0 0)
(4.7836e-06 -3.6632e-06 1.8315e-06)
(9.4564e-06 -7.4387e-06 3.7193e-06)
(1.399e-05 -1.1275e-05 5.6379e-06)
(1.8471e-05 -1.4976e-05 7.4887e-06)
(2.3034e-05 -1.8315e-05 9.1579e-06)
(2.7775e-05 -2.1144e-05 1.0572e-05)
(3.2714e-05 -2.3411e-05 1.1705e-05)
(3.781e-05 -2.511e-05 1.2555e-05)
(4.2993e-05 -2.6238e-05 1.3118e-05)
(4.8176e-05 -2.6778e-05 1.3388e-05)
(5.3266e-05 -2.672e-05 1.3359e-05)
(5.8172e-05 -2.6066e-05 1.3032e-05)
(6.2805e-05 -2.4827e-05 1.2413e-05)
(6.7089e-05 -2.3027e-05 1.1513e-05)
(7.0961e-05 -2.0714e-05 1.0357e-05)
(7.4375e-05 -1.7971e-05 8.9857e-06)
(7.7294e-05 -1.4918e-05 7.4597e-06)
(7.9688e-05 -1.1698e-05 5.8504e-06)
(8.1532e-05 -8.4614e-06 4.2328e-06)
(8.281e-05 -5.3503e-06 2.678e-06)
(8.3515e-05 -2.4858e-06 1.2465e-06)
(8.3656e-05 4.2493e-08 -1.7047e-08)
(8.326e-05 2.1794e-06 -1.085e-06)
(8.2378e-05 3.8939e-06 -1.9417e-06)
(8.1073e-05 5.1612e-06 -2.575e-06)
(7.9417e-05 5.9545e-06 -2.9715e-06)
(7.7471e-05 6.2568e-06 -3.123e-06)
(7.5278e-05 6.0827e-06 -3.0366e-06)
(7.2866e-05 5.493e-06 -2.7428e-06)
(7.0254e-05 4.5949e-06 -2.2951e-06)
(6.7459e-05 3.5322e-06 -1.7652e-06)
(6.45e-05 2.4638e-06 -1.2323e-06)
(6.1407e-05 1.5357e-06 -7.6943e-07)
(5.8213e-05 8.5333e-07 -4.2906e-07)
(5.4953e-05 4.6458e-07 -2.3512e-07)
(5.1653e-05 3.5852e-07 -1.8219e-07)
(4.8324e-05 4.8026e-07 -2.429e-07)
(4.4958e-05 7.5258e-07 -3.7866e-07)
(4.154e-05 1.094e-06 -5.4882e-07)
(3.8052e-05 1.4281e-06 -7.1518e-07)
(3.4478e-05 1.68e-06 -8.4061e-07)
(3.0801e-05 1.7635e-06 -8.8222e-07)
(2.6974e-05 1.5854e-06 -7.9341e-07)
(2.2873e-05 1.1174e-06 -5.5934e-07)
(1.8264e-05 4.9757e-07 -2.4869e-07)
(1.2898e-05 6.8227e-09 -2.5956e-09)
(6.7169e-06 -1.4135e-07 7.1445e-08)
(0 0 0)
(0 0 0)
(4.7795e-06 -2.7619e-06 2.7623e-06)
(9.4513e-06 -5.6068e-06 5.6074e-06)
(1.3988e-05 -8.4958e-06 8.4967e-06)
(1.8473e-05 -1.1283e-05 1.1284e-05)
(2.304e-05 -1.3797e-05 1.3798e-05)
(2.7782e-05 -1.5928e-05 1.593e-05)
(3.2719e-05 -1.7637e-05 1.7638e-05)
(3.7813e-05 -1.8918e-05 1.892e-05)
(4.2993e-05 -1.9767e-05 1.9769e-05)
(4.8172e-05 -2.0175e-05 2.0176e-05)
(5.3259e-05 -2.0131e-05 2.0133e-05)
(5.8161e-05 -1.9638e-05 1.964e-05)
(6.2791e-05 -1.8705e-05 1.8706e-05)
(6.7073e-05 -1.7349e-05 1.735e-05)
(7.0943e-05 -1.5607e-05 1.5607e-05)
(7.4356e-05 -1.3541e-05 1.3541e-05)
(7.7273e-05 -1.1242e-05 1.1243e-05)
(7.9666e-05 -8.818e-06 8.8181e-06)
(8.151e-05 -6.3811e-06 6.3812e-06)
(8.2788e-05 -4.0386e-06 4.0385e-06)
(8.3493e-05 -1.8814e-06 1.8814e-06)
(8.3635e-05 2.2924e-08 -2.2942e-08)
(8.3242e-05 1.6326e-06 -1.6326e-06)
(8.2362e-05 2.9241e-06 -2.924e-06)
(8.106e-05 3.8786e-06 -3.8785e-06)
(7.9406e-05 4.4762e-06 -4.476e-06)
(7.7461e-05 4.7045e-06 -4.7043e-06)
(7.5269e-05 4.5748e-06 -4.5745e-06)
(7.2858e-05 4.1327e-06 -4.1325e-06)
(7.0247e-05 3.4591e-06 -3.4589e-06)
(6.7453e-05 2.6617e-06 -2.6615e-06)
(6.4495e-05 1.8597e-06 -1.8596e-06)
(6.1403e-05 1.1625e-06 -1.1625e-06)
(5.821e-05 6.4948e-07 -6.4959e-07)
(5.4951e-05 3.5657e-07 -3.5681e-07)
(5.1652e-05 2.758e-07 -2.7618e-07)
(4.8322e-05 3.6613e-07 -3.6665e-07)
(4.4956e-05 5.697e-07 -5.7035e-07)
(4.1537e-05 8.2533e-07 -8.2607e-07)
(3.8048e-05 1.0753e-06 -1.0761e-06)
(3.4474e-05 1.2635e-06 -1.2643e-06)
(3.0795e-05 1.3249e-06 -1.3257e-06)
(2.6963e-05 1.1907e-06 -1.1914e-06)
(2.2854e-05 8.4003e-07 -8.4067e-07)
(1.8237e-05 3.7636e-07 -3.7688e-07)
(1.2869e-05 8.9846e-09 -9.3609e-09)
(6.6983e-06 -1.0325e-07 1.0306e-07)
(0 0 0)
(0 0 0)
(4.7836e-06 -1.8311e-06 3.6635e-06)
(9.4564e-06 -3.7186e-06 7.4391e-06)
(1.399e-05 -5.6368e-06 1.1276e-05)
(1.8471e-05 -7.4873e-06 1.4977e-05)
(2.3034e-05 -9.1563e-06 1.8316e-05)
(2.7775e-05 -1.057e-05 2.1145e-05)
(3.2714e-05 -1.1703e-05 2.3412e-05)
(3.781e-05 -1.2552e-05 2.5112e-05)
(4.2993e-05 -1.3116e-05 2.6239e-05)
(4.8176e-05 -1.3386e-05 2.6779e-05)
(5.3266e-05 -1.3357e-05 2.6722e-05)
(5.8172e-05 -1.303e-05 2.6067e-05)
(6.2805e-05 -1.2411e-05 2.4828e-05)
(6.7089e-05 -1.1512e-05 2.3028e-05)
(7.0961e-05 -1.0356e-05 2.0714e-05)
(7.4375e-05 -8.9849e-06 1.7971e-05)
(7.7294e-05 -7.4591e-06 1.4918e-05)
(7.9688e-05 -5.8501e-06 1.1698e-05)
(8.1532e-05 -4.2327e-06 8.4612e-06)
(8.281e-05 -2.6779e-06 5.3501e-06)
(8.3515e-05 -1.2465e-06 2.4857e-06)
(8.3656e-05 1.7044e-08 -4.2535e-08)
(8.326e-05 1.085e-06 -2.1794e-06)
(8.2378e-05 1.9418e-06 -3.8938e-06)
(8.1074e-05 2.5751e-06 -5.161e-06)
(7.9417e-05 2.9717e-06 -5.9541e-06)
(7.7471e-05 3.1231e-06 -6.2564e-06)
(7.5278e-05 3.0368e-06 -6.0824e-06)
(7.2866e-05 2.7429e-06 -5.4926e-06)
(7.0254e-05 2.2952e-06 -4.5946e-06)
(6.7459e-05 1.7653e-06 -3.532e-06)
(6.45e-05 1.2324e-06 -2.4637e-06)
(6.1407e-05 7.6939e-07 -1.5356e-06)
(5.8213e-05 4.289e-07 -8.5338e-07)
(5.4953e-05 2.3481e-07 -4.6475e-07)
(5.1653e-05 1.8173e-07 -3.5882e-07)
(4.8323e-05 2.4227e-07 -4.8068e-07)
(4.4958e-05 3.779e-07 -7.5311e-07)
(4.154e-05 5.4795e-07 -1.0947e-06)
(3.8052e-05 7.1424e-07 -1.4287e-06)
(3.4478e-05 8.3967e-07 -1.6807e-06)
(3.0801e-05 8.8132e-07 -1.7641e-06)
(2.6974e-05 7.9258e-07 -1.586e-06)
(2.2873e-05 5.5862e-07 -1.118e-06)
(1.8264e-05 2.4811e-07 -4.9804e-07)
(1.2898e-05 2.1882e-09 -7.1656e-09)
(6.7169e-06 -7.1656e-08 1.4116e-07)
(0 0 0)
(0 0 0)
(4.7962e-06 -9.0287e-07 4.5082e-06)
(9.4723e-06 -1.8354e-06 9.164e-06)
(1.3997e-05 -2.7852e-06 1.3905e-05)
(1.8463e-05 -3.7018e-06 1.8481e-05)
(2.3016e-05 -4.5275e-06 2.2605e-05)
(2.7754e-05 -5.2257e-06 2.6093e-05)
(3.2697e-05 -5.7846e-06 2.8885e-05)
(3.7801e-05 -6.2037e-06 3.0979e-05)
(4.2994e-05 -6.4818e-06 3.2368e-05)
(4.8187e-05 -6.6152e-06 3.3034e-05)
(5.3288e-05 -6.6011e-06 3.2963e-05)
(5.8204e-05 -6.4397e-06 3.2156e-05)
(6.2846e-05 -6.1341e-06 3.0628e-05)
(6.7137e-05 -5.6898e-06 2.8408e-05)
(7.1014e-05 -5.1184e-06 2.5552e-05)
(7.4432e-05 -4.4403e-06 2.2163e-05)
(7.7355e-05 -3.6854e-06 1.8391e-05)
(7.9751e-05 -2.8891e-06 1.4413e-05)
(8.1597e-05 -2.0887e-06 1.0414e-05)
(8.2876e-05 -1.3195e-06 6.5711e-06)
(8.3579e-05 -6.1152e-07 3.0342e-06)
(8.3717e-05 1.3131e-08 -8.6088e-08)
(8.3316e-05 5.4095e-07 -2.7224e-06)
(8.2426e-05 9.6444e-07 -4.8375e-06)
(8.1114e-05 1.2776e-06 -6.4015e-06)
(7.9451e-05 1.4737e-06 -7.3804e-06)
(7.7499e-05 1.5483e-06 -7.7514e-06)
(7.5303e-05 1.505e-06 -7.5316e-06)
(7.2889e-05 1.3584e-06 -6.7955e-06)
(7.0276e-05 1.1354e-06 -5.6764e-06)
(6.7478e-05 8.7149e-07 -4.3534e-06)
(6.4516e-05 6.0642e-07 -3.0244e-06)
(6.1418e-05 3.7642e-07 -1.8716e-06)
(5.822e-05 2.0769e-07 -1.0265e-06)
(5.4958e-05 1.1201e-07 -5.4798e-07)
(5.1657e-05 8.6538e-08 -4.2147e-07)
(4.8328e-05 1.1751e-07 -5.7773e-07)
(4.4963e-05 1.8562e-07 -9.2015e-07)
(4.1547e-05 2.7067e-07 -1.3476e-06)
(3.8061e-05 3.5385e-07 -1.7657e-06)
(3.449e-05 4.1706e-07 -2.0833e-06)
(3.0819e-05 4.3898e-07 -2.1929e-06)
(2.7007e-05 3.9553e-07 -1.9748e-06)
(2.293e-05 2.7799e-07 -1.3878e-06)
(1.8346e-05 1.2068e-07 -6.0437e-07)
(1.2984e-05 -3.7527e-09 1.4939e-08)
(6.7732e-06 -3.947e-08 1.9391e-07)
(0 0 0)
(0 0 0)
(4.8181e-06 -2.0428e-09 5.2754e-06)
(9.4999e-06 -4.141e-09 1.0744e-05)
(1.401e-05 -6.26e-09 1.6333e-05)
(1.8451e-05 -8.3161e-09 2.1734e-05)
(2.2985e-05 -1.0222e-08 2.6592e-05)
(2.7719e-05 -1.1882e-08 3.0689e-05)
(3.2668e-05 -1.3229e-08 3.3964e-05)
(3.7786e-05 -1.4253e-08 3.6418e-05)
(4.2995e-05 -1.4969e-08 3.8049e-05)
(4.8205e-05 -1.5384e-08 3.8833e-05)
(5.3324e-05 -1.5495e-08 3.8749e-05)
(5.8256e-05 -1.5288e-08 3.7801e-05)
(6.2913e-05 -1.4747e-08 3.6006e-05)
(6.7215e-05 -1.3879e-08 3.3396e-05)
(7.1101e-05 -1.2709e-08 3.0034e-05)
(7.4526e-05 -1.1268e-08 2.6043e-05)
(7.7453e-05 -9.6064e-09 2.1597e-05)
(7.9854e-05 -7.7971e-09 1.6908e-05)
(8.1703e-05 -5.923e-09 1.2197e-05)
(8.2982e-05 -4.068e-09 7.6705e-06)
(8.3684e-05 -2.3112e-09 3.5077e-06)
(8.3816e-05 -7.1631e-10 -1.6148e-07)
(8.3405e-05 6.6991e-10 -3.2593e-06)
(8.2504e-05 1.8133e-09 -5.7449e-06)
(8.1179e-05 2.6861e-09 -7.5841e-06)
(7.9505e-05 3.2638e-09 -8.735e-06)
(7.7545e-05 3.533e-09 -9.1679e-06)
(7.5344e-05 3.502e-09 -8.9005e-06)
(7.2927e-05 3.2066e-09 -8.02e-06)
(7.031e-05 2.7087e-09 -6.6847e-06)
(6.7508e-05 2.0915e-09 -5.1078e-06)
(6.4541e-05 1.4478e-09 -3.526e-06)
(6.1437e-05 8.6234e-10 -2.1572e-06)
(5.8233e-05 3.9715e-10 -1.158e-06)
(5.4965e-05 8.4146e-11 -5.9791e-07)
(5.1663e-05 -7.4698e-11 -4.5755e-07)
(4.8334e-05 -9.9203e-11 -6.5247e-07)
(4.4973e-05 -2.2319e-11 -1.0666e-06)
(4.156e-05 1.1812e-10 -1.5799e-06)
(3.8077e-05 2.8198e-10 -2.0819e-06)
(3.451e-05 4.2395e-10 -2.4675e-06)
(3.0848e-05 4.9551e-10 -2.6098e-06)
(2.7059e-05 4.4899e-10 -2.3578e-06)
(2.3023e-05 2.6794e-10 -1.6489e-06)
(1.8482e-05 2.3448e-11 -6.8932e-07)
(1.3129e-05 -1.4533e-10 6.7675e-08)
(6.8682e-06 -1.429e-10 2.6958e-07)
(0 0 0)
(0 0 0)
(4.8723e-06 7.919e-07 6.3464e-06)
(9.5682e-06 1.62e-06 1.2986e-05)
(1.4041e-05 2.4735e-06 1.9835e-05)
(1.8423e-05 3.2988e-06 2.6464e-05)
(2.2914e-05 4.0368e-06 3.2396e-05)
(2.7639e-05 4.6544e-06 3.7364e-05)
(3.2605e-05 5.1458e-06 4.1318e-05)
(3.7753e-05 5.514e-06 4.4283e-05)