/*--------------------------------*- C++ -*----------------------------------*\
| =========                 |                                                 |
| \\      /  F ield         | OpenFOAM: The Open Source CFD Toolbox           |
|  \\    /   O peration     | Version:  4.1                                   |
|   \\  /    A nd           | Web:      www.OpenFOAM.org                      |
|    \\/     M anipulation  |                                                 |
\*---------------------------------------------------------------------------*/
FoamFile
{
    version     2.0;
    format      ascii;
    class       pointVectorField;
    location    "0.0087";
    object      pointDisplacement;
}
// * * * * * * * * * * * * * * * * * * * * * * * * * * * * * * * * * * * * * //

dimensions      [0 1 0 0 0 0 0];

internalField   nonuniform List<vector> 
1885
(
(5.3945e-05 -5.6394e-05 6.9857e-09)
(5.8906e-05 -5.7079e-05 7.0812e-09)
(6.3653e-05 -5.6701e-05 7.0584e-09)
(6.8108e-05 -5.5162e-05 6.9202e-09)
(7.2205e-05 -5.2433e-05 6.6596e-09)
(7.5889e-05 -4.8562e-05 6.2699e-09)
(7.9115e-05 -4.3659e-05 5.7748e-09)
(8.1848e-05 -3.7911e-05 5.2058e-09)
(8.4059e-05 -3.159e-05 4.5848e-09)
(8.572e-05 -2.5014e-05 3.9375e-09)
(8.6799e-05 -1.8487e-05 3.2843e-09)
(8.7269e-05 -1.2256e-05 2.6408e-09)
(8.7125e-05 -6.5053e-06 2.0213e-09)
(5.3908e-05 -5.047e-05 6.3013e-06)
(5.8847e-05 -5.1068e-05 6.3751e-06)
(6.3573e-05 -5.0717e-05 6.3309e-06)
(6.8011e-05 -4.9331e-05 6.1585e-06)
(7.2094e-05 -4.6888e-05 5.8545e-06)
(7.5766e-05 -4.3429e-05 5.4236e-06)
(7.8983e-05 -3.9053e-05 4.8783e-06)
(8.1708e-05 -3.393e-05 4.24e-06)
(8.3913e-05 -2.8298e-05 3.5383e-06)
(8.5567e-05 -2.2438e-05 2.8077e-06)
(8.664e-05 -1.6616e-05 2.0813e-06)
(8.7111e-05 -1.1052e-05 1.3868e-06)
(8.6973e-05 -5.9147e-06 7.4534e-07)
(5.3881e-05 -4.4419e-05 1.4288e-05)
(5.8805e-05 -4.4936e-05 1.4453e-05)
(6.3518e-05 -4.4617e-05 1.435e-05)
(6.7944e-05 -4.3393e-05 1.3956e-05)
(7.2017e-05 -4.1242e-05 1.3265e-05)
(7.5681e-05 -3.8201e-05 1.2288e-05)
(7.8891e-05 -3.4359e-05 1.1054e-05)
(8.1611e-05 -2.9865e-05 9.6108e-06)
(8.3811e-05 -2.4926e-05 8.0246e-06)
(8.546e-05 -1.9785e-05 6.3729e-06)
(8.653e-05 -1.4674e-05 4.7302e-06)
(8.7001e-05 -9.7867e-06 3.1591e-06)
(8.6868e-05 -5.2719e-06 1.7077e-06)
(5.3865e-05 -3.7587e-05 2.2311e-05)
(5.8779e-05 -3.8019e-05 2.2566e-05)
(6.3483e-05 -3.7744e-05 2.2402e-05)
(6.7901e-05 -3.6705e-05 2.1786e-05)
(7.1968e-05 -3.4885e-05 2.0706e-05)
(7.5628e-05 -3.2314e-05 1.9181e-05)
(7.8834e-05 -2.9068e-05 1.7256e-05)
(8.155e-05 -2.5273e-05 1.5005e-05)
(8.3746e-05 -2.1104e-05 1.2532e-05)
(8.5393e-05 -1.6763e-05 9.9573e-06)
(8.6461e-05 -1.2446e-05 7.3959e-06)
(8.6932e-05 -8.3159e-06 4.9455e-06)
(8.6802e-05 -4.4999e-06 2.6815e-06)
(5.3859e-05 -3.0151e-05 3.0152e-05)
(5.877e-05 -3.0495e-05 3.0497e-05)
(6.3471e-05 -3.0273e-05 3.0275e-05)
(6.7887e-05 -2.9439e-05 2.944e-05)
(7.1952e-05 -2.7979e-05 2.798e-05)
(7.5609e-05 -2.5918e-05 2.5919e-05)
(7.8814e-05 -2.3316e-05 2.3317e-05)
(8.1529e-05 -2.0275e-05 2.0276e-05)
(8.3724e-05 -1.6934e-05 1.6935e-05)
(8.537e-05 -1.3455e-05 1.3457e-05)
(8.6438e-05 -9.995e-06 9.9963e-06)
(8.6908e-05 -6.6841e-06 6.6854e-06)
(8.6779e-05 -3.6249e-06 3.6262e-06)
(5.3865e-05 -2.231e-05 3.7588e-05)
(5.8779e-05 -2.2565e-05 3.802e-05)
(6.3483e-05 -2.2401e-05 3.7745e-05)
(6.7901e-05 -2.1784e-05 3.6706e-05)
(7.1968e-05 -2.0704e-05 3.4885e-05)
(7.5628e-05 -1.9179e-05 3.2314e-05)
(7.8834e-05 -1.7254e-05 2.9069e-05)
(8.155e-05 -1.5004e-05 2.5274e-05)
(8.3746e-05 -1.2531e-05 2.1105e-05)
(8.5393e-05 -9.9559e-06 1.6764e-05)
(8.6461e-05 -7.3945e-06 1.2447e-05)
(8.6932e-05 -4.9441e-06 8.3171e-06)
(8.6802e-05 -2.6801e-06 4.5012e-06)
(5.3881e-05 -1.4286e-05 4.4419e-05)
(5.8805e-05 -1.4451e-05 4.4936e-05)
(6.3518e-05 -1.4348e-05 4.4617e-05)
(6.7944e-05 -1.3954e-05 4.3393e-05)
(7.2017e-05 -1.3264e-05 4.1242e-05)
(7.5681e-05 -1.2287e-05 3.8201e-05)
(7.8891e-05 -1.1053e-05 3.4359e-05)
(8.1611e-05 -9.6093e-06 2.9865e-05)
(8.3811e-05 -8.0231e-06 2.4926e-05)
(8.546e-05 -6.3714e-06 1.9786e-05)
(8.653e-05 -4.7288e-06 1.4675e-05)
(8.7001e-05 -3.1576e-06 9.7877e-06)
(8.6868e-05 -1.7062e-06 5.2731e-06)
(5.3908e-05 -6.2996e-06 5.047e-05)
(5.8847e-05 -6.3734e-06 5.1068e-05)
(6.3573e-05 -6.3292e-06 5.0716e-05)
(6.8011e-05 -6.1569e-06 4.9331e-05)
(7.2094e-05 -5.8529e-06 4.6888e-05)
(7.5767e-05 -5.4221e-06 4.3428e-05)
(7.8983e-05 -4.8769e-06 3.9053e-05)
(8.1708e-05 -4.2386e-06 3.3929e-05)
(8.3913e-05 -3.5369e-06 2.8298e-05)
(8.5567e-05 -2.8063e-06 2.2438e-05)
(8.664e-05 -2.0799e-06 1.6616e-05)
(8.7111e-05 -1.3853e-06 1.1053e-05)
(8.6973e-05 -7.439e-07 5.9157e-06)
(5.3945e-05 -5.6668e-09 5.6394e-05)
(5.8906e-05 -5.7534e-09 5.7078e-05)
(6.3653e-05 -5.7522e-09 5.67e-05)
(6.8108e-05 -5.6535e-09 5.516e-05)
(7.2205e-05 -5.4452e-09 5.2432e-05)
(7.5889e-05 -5.1191e-09 4.8561e-05)
(7.9115e-05 -4.671e-09 4.3658e-05)
(8.1848e-05 -4.0998e-09 3.791e-05)
(8.406e-05 -3.4285e-09 3.1589e-05)
(8.5721e-05 -2.707e-09 2.5014e-05)
(8.6799e-05 -1.9804e-09 1.8488e-05)
(8.7269e-05 -1.2771e-09 1.2257e-05)
(8.7125e-05 -6.226e-10 6.5062e-06)
(5.3908e-05 -5.0471e-05 -6.2824e-06)
(5.8847e-05 -5.1069e-05 -6.356e-06)
(6.3573e-05 -5.0718e-05 -6.3119e-06)
(6.8011e-05 -4.9332e-05 -6.1399e-06)
(7.2094e-05 -4.6889e-05 -5.8367e-06)
(7.5767e-05 -4.343e-05 -5.4069e-06)
(7.8983e-05 -3.9054e-05 -4.8631e-06)
(8.1708e-05 -3.393e-05 -4.2264e-06)
(8.3913e-05 -2.8299e-05 -3.5265e-06)
(8.5567e-05 -2.2438e-05 -2.7977e-06)
(8.664e-05 -1.6616e-05 -2.0732e-06)
(8.7111e-05 -1.1052e-05 -1.3804e-06)
(8.6973e-05 -5.9149e-06 -7.4074e-07)
(5.3853e-05 -4.1575e-05 1.917e-08)
(5.8758e-05 -4.205e-05 1.9388e-08)
(6.3455e-05 -4.1743e-05 1.9258e-08)
(6.7866e-05 -4.059e-05 1.8769e-08)
(7.1927e-05 -3.8574e-05 1.7905e-08)
(7.5582e-05 -3.5728e-05 1.667e-08)
(7.8783e-05 -3.2138e-05 1.5116e-08)
(8.1497e-05 -2.7942e-05 1.3322e-08)
(8.369e-05 -2.3336e-05 1.1366e-08)
(8.5333e-05 -1.854e-05 9.3306e-09)
(8.64e-05 -1.3769e-05 7.2956e-09)
(8.6871e-05 -9.2053e-06 5.3304e-09)
(8.6743e-05 -4.9885e-06 3.4938e-09)
(5.3827e-05 -3.539e-05 7.0915e-06)
(5.8717e-05 -3.5788e-05 7.1707e-06)
(6.34e-05 -3.552e-05 7.1167e-06)
(6.7799e-05 -3.4534e-05 6.9193e-06)
(7.185e-05 -3.2817e-05 6.5754e-06)
(7.5496e-05 -3.0398e-05 6.0908e-06)
(7.8691e-05 -2.7348e-05 5.4802e-06)
(8.1399e-05 -2.3787e-05 4.7673e-06)
(8.3586e-05 -1.9878e-05 3.9847e-06)
(8.5226e-05 -1.5808e-05 3.1698e-06)
(8.629e-05 -1.1757e-05 2.3587e-06)
(8.6761e-05 -7.8784e-06 1.5823e-06)
(8.6638e-05 -4.294e-06 8.6473e-07)
(5.3811e-05 -2.8701e-05 1.4351e-05)
(5.8692e-05 -2.902e-05 1.4511e-05)
(6.3366e-05 -2.8799e-05 1.44e-05)
(6.7758e-05 -2.7998e-05 1.3999e-05)
(7.1802e-05 -2.6605e-05 1.3303e-05)
(7.5443e-05 -2.4644e-05 1.2322e-05)
(7.8634e-05 -2.2173e-05 1.1088e-05)
(8.1338e-05 -1.9291e-05 9.6467e-06)
(8.3523e-05 -1.6127e-05 8.0654e-06)
(8.5159e-05 -1.2832e-05 6.4186e-06)
(8.6222e-05 -9.5517e-06 4.7791e-06)
(8.6693e-05 -6.4106e-06 3.2093e-06)
(8.6573e-05 -3.5069e-06 1.7581e-06)
(5.3806e-05 -2.1627e-05 2.163e-05)
(5.8684e-05 -2.1867e-05 2.1869e-05)
(6.3354e-05 -2.1699e-05 2.1701e-05)
(6.7744e-05 -2.1095e-05 2.1097e-05)
(7.1786e-05 -2.0045e-05 2.0047e-05)
(7.5425e-05 -1.8568e-05 1.8569e-05)
(7.8615e-05 -1.6707e-05 1.6709e-05)
(8.1318e-05 -1.4537e-05 1.4538e-05)
(8.3501e-05 -1.2154e-05 1.2156e-05)
(8.5137e-05 -9.6732e-06 9.6747e-06)
(8.6199e-05 -7.2031e-06 7.2046e-06)
(8.667e-05 -4.8375e-06 4.8389e-06)
(8.6551e-05 -2.6506e-06 2.652e-06)
(5.3811e-05 -1.4349e-05 2.8702e-05)
(5.8692e-05 -1.4508e-05 2.9021e-05)
(6.3366e-05 -1.4397e-05 2.88e-05)
(6.7758e-05 -1.3997e-05 2.7999e-05)
(7.1802e-05 -1.33e-05 2.6606e-05)
(7.5443e-05 -1.232e-05 2.4645e-05)
(7.8634e-05 -1.1085e-05 2.2174e-05)
(8.1338e-05 -9.6448e-06 1.9292e-05)
(8.3523e-05 -8.0636e-06 1.6128e-05)
(8.5159e-05 -6.4168e-06 1.2833e-05)
(8.6222e-05 -4.7775e-06 9.5529e-06)
(8.6693e-05 -3.2077e-06 6.4118e-06)
(8.6573e-05 -1.7566e-06 3.5081e-06)
(5.3827e-05 -7.0885e-06 3.5391e-05)
(5.8717e-05 -7.1678e-06 3.5788e-05)
(6.34e-05 -7.1139e-06 3.552e-05)
(6.7799e-05 -6.9165e-06 3.4535e-05)
(7.185e-05 -6.5727e-06 3.2817e-05)
(7.5496e-05 -6.0884e-06 3.0398e-05)
(7.8691e-05 -5.4779e-06 2.7348e-05)
(8.1399e-05 -4.7652e-06 2.3788e-05)
(8.3587e-05 -3.9827e-06 1.9879e-05)
(8.5226e-05 -3.1679e-06 1.5808e-05)
(8.629e-05 -2.357e-06 1.1757e-05)
(8.6761e-05 -1.5807e-06 7.8795e-06)
(8.6638e-05 -8.6323e-07 4.2951e-06)
(5.3853e-05 -1.6406e-08 4.1575e-05)
(5.8758e-05 -1.6619e-08 4.205e-05)
(6.3455e-05 -1.6542e-08 4.1743e-05)
(6.7866e-05 -1.6153e-08 4.059e-05)
(7.1927e-05 -1.5427e-08 3.8573e-05)
(7.5582e-05 -1.4359e-08 3.5727e-05)
(7.8784e-05 -1.2979e-08 3.2137e-05)
(8.1497e-05 -1.1336e-08 2.7942e-05)
(8.369e-05 -9.501e-09 2.3336e-05)
(8.5333e-05 -7.5652e-09 1.854e-05)
(8.64e-05 -5.6214e-09 1.377e-05)
(8.6871e-05 -3.75e-09 9.2061e-06)
(8.6743e-05 -2.0189e-09 4.9895e-06)
(5.3908e-05 6.2843e-06 5.047e-05)
(5.8847e-05 6.3579e-06 5.1068e-05)
(6.3573e-05 6.3137e-06 5.0717e-05)
(6.8011e-05 6.1417e-06 4.9331e-05)
(7.2095e-05 5.8383e-06 4.6888e-05)
(7.5767e-05 5.4084e-06 4.3429e-05)
(7.8983e-05 4.8645e-06 3.9053e-05)
(8.1708e-05 4.2277e-06 3.393e-05)
(8.3913e-05 3.5278e-06 2.8298e-05)
(8.5567e-05 2.7991e-06 2.2438e-05)
(8.664e-05 2.0745e-06 1.6616e-05)
(8.7111e-05 1.3818e-06 1.1053e-05)
(8.6973e-05 7.4211e-07 5.9157e-06)
(5.3881e-05 -4.4422e-05 -1.4281e-05)
(5.8805e-05 -4.4939e-05 -1.4445e-05)
(6.3518e-05 -4.462e-05 -1.4342e-05)
(6.7944e-05 -4.3395e-05 -1.3948e-05)
(7.2017e-05 -4.1245e-05 -1.3258e-05)
(7.5681e-05 -3.8204e-05 -1.2282e-05)
(7.8891e-05 -3.4361e-05 -1.1048e-05)
(8.1611e-05 -2.9867e-05 -9.6048e-06)
(8.3811e-05 -2.4928e-05 -8.0191e-06)
(8.546e-05 -1.9787e-05 -6.368e-06)
(8.6531e-05 -1.4675e-05 -4.7259e-06)
(8.7001e-05 -9.7874e-06 -3.1553e-06)
(8.6868e-05 -5.2724e-06 -1.7045e-06)
(5.3827e-05 -3.539e-05 -7.0622e-06)
(5.8717e-05 -3.5788e-05 -7.1412e-06)
(6.34e-05 -3.552e-05 -7.0873e-06)
(6.7799e-05 -3.4534e-05 -6.8906e-06)
(7.185e-05 -3.2817e-05 -6.548e-06)
(7.5496e-05 -3.0398e-05 -6.0653e-06)
(7.8691e-05 -2.7348e-05 -5.457e-06)
(8.1399e-05 -2.3787e-05 -4.7468e-06)
(8.3587e-05 -1.9878e-05 -3.9671e-06)
(8.5226e-05 -1.5808e-05 -3.1552e-06)
(8.629e-05 -1.1757e-05 -2.3472e-06)
(8.6761e-05 -7.8784e-06 -1.5737e-06)
(8.6638e-05 -4.2939e-06 -8.5884e-07)
(5.38e-05 -2.9019e-05 2.1265e-08)
(5.8674e-05 -2.934e-05 2.1507e-08)
(6.3342e-05 -2.9115e-05 2.1356e-08)
(6.7728e-05 -2.8304e-05 2.0795e-08)
(7.1768e-05 -2.6895e-05 1.9815e-08)
(7.5405e-05 -2.4913e-05 1.8431e-08)
(7.8593e-05 -2.2418e-05 1.6696e-08)
(8.1294e-05 -1.9507e-05 1.4691e-08)
(8.3477e-05 -1.6312e-05 1.2505e-08)
(8.5112e-05 -1.2984e-05 1.0236e-08)
(8.6173e-05 -9.6699e-06 7.9721e-09)
(8.6645e-05 -6.4954e-06 5.7931e-09)
(8.6527e-05 -3.5602e-06 3.7625e-09)
(5.3784e-05 -2.2159e-05 7.41e-06)
(5.8648e-05 -2.2402e-05 7.4909e-06)
(6.3306e-05 -2.2227e-05 7.4325e-06)
(6.7685e-05 -2.1606e-05 7.2247e-06)
(7.1718e-05 -2.053e-05 6.8649e-06)
(7.5349e-05 -1.9017e-05 6.3592e-06)
(7.8533e-05 -1.7114e-05 5.7231e-06)
(8.1231e-05 -1.4895e-05 4.9812e-06)
(8.341e-05 -1.246e-05 4.1673e-06)
(8.5042e-05 -9.9233e-06 3.3195e-06)
(8.6101e-05 -7.3967e-06 2.475e-06)
(8.6573e-05 -4.9757e-06 1.6658e-06)
(8.6459e-05 -2.7367e-06 9.1749e-07)
(5.3779e-05 -1.4886e-05 1.4889e-05)
(5.8639e-05 -1.5048e-05 1.5051e-05)
(6.3295e-05 -1.493e-05 1.4933e-05)
(6.767e-05 -1.4513e-05 1.4516e-05)
(7.1701e-05 -1.379e-05 1.3792e-05)
(7.5331e-05 -1.2774e-05 1.2776e-05)
(7.8513e-05 -1.1496e-05 1.1498e-05)
(8.1209e-05 -1.0006e-05 1.0008e-05)
(8.3387e-05 -8.3715e-06 8.3734e-06)
(8.5018e-05 -6.6686e-06 6.6705e-06)
(8.6077e-05 -4.9723e-06 4.974e-06)
(8.6549e-05 -3.3467e-06 3.3484e-06)
(8.6436e-05 -1.8434e-06 1.8449e-06)
(5.3784e-05 -7.4062e-06 2.2161e-05)
(5.8648e-05 -7.487e-06 2.2404e-05)
(6.3307e-05 -7.4287e-06 2.2229e-05)
(6.7685e-05 -7.2211e-06 2.1608e-05)
(7.1718e-05 -6.8615e-06 2.0532e-05)
(7.5349e-05 -6.3561e-06 1.9019e-05)
(7.8533e-05 -5.7201e-06 1.7116e-05)
(8.1231e-05 -4.9786e-06 1.4896e-05)
(8.341e-05 -4.1649e-06 1.2461e-05)
(8.5042e-05 -3.3173e-06 9.9247e-06)
(8.6101e-05 -2.473e-06 7.3981e-06)
(8.6573e-05 -1.664e-06 4.9771e-06)
(8.6459e-05 -9.1592e-07 2.7381e-06)
(5.3801e-05 -1.6891e-08 2.902e-05)
(5.8675e-05 -1.712e-08 2.934e-05)
(6.3342e-05 -1.7047e-08 2.9115e-05)
(6.7729e-05 -1.6645e-08 2.8304e-05)
(7.1768e-05 -1.5894e-08 2.6895e-05)
(7.5405e-05 -1.4794e-08 2.4913e-05)
(7.8593e-05 -1.3372e-08 2.2418e-05)
(8.1295e-05 -1.168e-08 1.9507e-05)
(8.3477e-05 -9.7934e-09 1.6312e-05)
(8.5112e-05 -7.8055e-09 1.2985e-05)
(8.6173e-05 -5.8117e-09 9.6708e-06)
(8.6645e-05 -3.896e-09 6.4965e-06)
(8.6527e-05 -2.1264e-09 3.5613e-06)
(5.3827e-05 7.0663e-06 3.5389e-05)
(5.8717e-05 7.1453e-06 3.5787e-05)
(6.34e-05 7.0914e-06 3.5519e-05)
(6.7799e-05 6.8945e-06 3.4533e-05)
(7.185e-05 6.5517e-06 3.2816e-05)
(7.5496e-05 6.0687e-06 3.0397e-05)
(7.8691e-05 5.4601e-06 2.7347e-05)
(8.1399e-05 4.7496e-06 2.3787e-05)
(8.3587e-05 3.9696e-06 1.9878e-05)
(8.5226e-05 3.1575e-06 1.5808e-05)
(8.629e-05 2.3492e-06 1.1757e-05)
(8.6761e-05 1.5755e-06 7.8791e-06)
(8.6638e-05 8.6043e-07 4.2948e-06)
(5.3881e-05 1.4283e-05 4.4421e-05)
(5.8805e-05 1.4448e-05 4.4937e-05)
(6.3518e-05 1.4344e-05 4.4619e-05)
(6.7944e-05 1.3951e-05 4.3394e-05)
(7.2017e-05 1.326e-05 4.1243e-05)
(7.5681e-05 1.2284e-05 3.8202e-05)
(7.8891e-05 1.105e-05 3.436e-05)
(8.1611e-05 9.6065e-06 2.9866e-05)
(8.3811e-05 8.0207e-06 2.4927e-05)
(8.546e-05 6.3695e-06 1.9786e-05)
(8.6531e-05 4.7274e-06 1.4675e-05)
(8.7001e-05 3.1567e-06 9.7879e-06)
(8.6868e-05 1.7059e-06 5.2732e-06)
(5.3865e-05 -3.7589e-05 -2.2312e-05)
(5.8779e-05 -3.8021e-05 -2.2567e-05)
(6.3483e-05 -3.7747e-05 -2.2403e-05)
(6.7902e-05 -3.6707e-05 -2.1786e-05)
(7.1969e-05 -3.4887e-05 -2.0706e-05)
(7.5628e-05 -3.2316e-05 -1.9181e-05)
(7.8834e-05 -2.907e-05 -1.7256e-05)
(8.155e-05 -2.5275e-05 -1.5005e-05)
(8.3746e-05 -2.1105e-05 -1.2532e-05)
(8.5393e-05 -1.6764e-05 -9.9562e-06)
(8.6462e-05 -1.2447e-05 -7.3945e-06)
(8.6932e-05 -8.3166e-06 -4.9437e-06)
(8.6802e-05 -4.5004e-06 -2.6794e-06)
(5.3811e-05 -2.8697e-05 -1.4344e-05)
(5.8692e-05 -2.9016e-05 -1.4503e-05)
(6.3366e-05 -2.8795e-05 -1.4392e-05)
(6.7758e-05 -2.7994e-05 -1.3991e-05)
(7.1802e-05 -2.6601e-05 -1.3295e-05)
(7.5443e-05 -2.464e-05 -1.2315e-05)
(7.8634e-05 -2.2171e-05 -1.1081e-05)
(8.1338e-05 -1.9288e-05 -9.6406e-06)
(8.3523e-05 -1.6125e-05 -8.0599e-06)
(8.516e-05 -1.283e-05 -6.4136e-06)
(8.6222e-05 -9.5504e-06 -4.7748e-06)
(8.6693e-05 -6.4098e-06 -3.2055e-06)
(8.6573e-05 -3.5064e-06 -1.7549e-06)
(5.3784e-05 -2.2153e-05 -7.3843e-06)
(5.8648e-05 -2.2395e-05 -7.4648e-06)
(6.3307e-05 -2.2221e-05 -7.4066e-06)
(6.7685e-05 -2.16e-05 -7.1995e-06)
(7.1718e-05 -2.0524e-05 -6.8408e-06)
(7.5349e-05 -1.9012e-05 -6.3368e-06)
(7.8533e-05 -1.7109e-05 -5.7026e-06)
(8.1231e-05 -1.4891e-05 -4.9631e-06)
(8.341e-05 -1.2456e-05 -4.1517e-06)
(8.5042e-05 -9.9205e-06 -3.3065e-06)
(8.6101e-05 -7.3946e-06 -2.4646e-06)
(8.6573e-05 -4.9743e-06 -1.658e-06)
(8.6459e-05 -2.7359e-06 -9.1204e-07)
(5.3767e-05 -1.5111e-05 1.3122e-08)
(5.8621e-05 -1.5274e-05 1.3281e-08)
(6.327e-05 -1.5154e-05 1.3198e-08)
(6.764e-05 -1.4729e-05 1.2864e-08)
(7.1666e-05 -1.3995e-05 1.2277e-08)
(7.5292e-05 -1.2964e-05 1.1452e-08)
(7.8471e-05 -1.1667e-05 1.0419e-08)
(8.1164e-05 -1.0156e-05 9.2264e-09)
(8.334e-05 -8.4988e-06 7.9312e-09)
(8.4969e-05 -6.7722e-06 6.5893e-09)
(8.6027e-05 -5.0518e-06 5.2523e-09)
(8.65e-05 -3.403e-06 3.9634e-09)
(8.6388e-05 -1.8778e-06 2.7565e-09)
(5.3762e-05 -7.6362e-06 7.6405e-06)
(5.8612e-05 -7.7186e-06 7.7229e-06)
(6.3258e-05 -7.6574e-06 7.6616e-06)
(6.7625e-05 -7.4426e-06 7.4466e-06)
(7.1649e-05 -7.0715e-06 7.0753e-06)
(7.5272e-05 -6.5505e-06 6.554e-06)
(7.8449e-05 -5.8957e-06 5.8989e-06)
(8.1142e-05 -5.1325e-06 5.1354e-06)
(8.3316e-05 -4.2954e-06 4.2981e-06)
(8.4945e-05 -3.4234e-06 3.4258e-06)
(8.6002e-05 -2.5545e-06 2.5566e-06)
(8.6475e-05 -1.7216e-06 1.7234e-06)
(8.6365e-05 -9.5115e-07 9.5276e-07)
(5.3767e-05 -7.7783e-09 1.5114e-05)
(5.8621e-05 -7.9196e-09 1.5277e-05)
(6.327e-05 -7.9282e-09 1.5157e-05)
(6.764e-05 -7.7884e-09 1.4732e-05)
(7.1666e-05 -7.4861e-09 1.3997e-05)
(7.5292e-05 -7.0154e-09 1.2966e-05)
(7.8471e-05 -6.3807e-09 1.167e-05)
(8.1164e-05 -5.6005e-09 1.0159e-05)
(8.334e-05 -4.7107e-09 8.5009e-06)
(8.4969e-05 -3.7599e-09 6.7741e-06)
(8.6027e-05 -2.8001e-09 5.0536e-06)
(8.65e-05 -1.8762e-09 3.4046e-06)
(8.6388e-05 -1.0237e-09 1.8793e-06)
(5.3784e-05 7.3911e-06 2.2154e-05)
(5.8648e-05 7.4717e-06 2.2396e-05)
(6.3307e-05 7.4133e-06 2.2221e-05)
(6.7685e-05 7.206e-06 2.16e-05)
(7.1718e-05 6.847e-06 2.0524e-05)
(7.535e-05 6.3425e-06 1.9012e-05)
(7.8533e-05 5.7078e-06 1.711e-05)
(8.1231e-05 4.9677e-06 1.4891e-05)
(8.341e-05 4.1558e-06 1.2457e-05)
(8.5042e-05 3.31e-06 9.9213e-06)
(8.6101e-05 2.4676e-06 7.3955e-06)
(8.6573e-05 1.6604e-06 4.9753e-06)
(8.6459e-05 9.1394e-07 2.7371e-06)
(5.3811e-05 1.435e-05 2.8695e-05)
(5.8692e-05 1.4509e-05 2.9014e-05)
(6.3366e-05 1.4398e-05 2.8794e-05)
(6.7758e-05 1.3997e-05 2.7992e-05)
(7.1802e-05 1.3301e-05 2.6599e-05)
(7.5443e-05 1.232e-05 2.4639e-05)
(7.8634e-05 1.1086e-05 2.2169e-05)
(8.1338e-05 9.6448e-06 1.9287e-05)
(8.3523e-05 8.0635e-06 1.6124e-05)
(8.516e-05 6.4168e-06 1.283e-05)
(8.6222e-05 4.7775e-06 9.5505e-06)
(8.6693e-05 3.2077e-06 6.4102e-06)
(8.6573e-05 1.7567e-06 3.5072e-06)
(5.3865e-05 2.2316e-05 3.7588e-05)
(5.8779e-05 2.2571e-05 3.8019e-05)
(6.3483e-05 2.2407e-05 3.7744e-05)
(6.7902e-05 2.179e-05 3.6705e-05)
(7.1969e-05 2.0709e-05 3.4885e-05)
(7.5628e-05 1.9184e-05 3.2314e-05)
(7.8834e-05 1.7258e-05 2.9068e-05)
(8.155e-05 1.5007e-05 2.5273e-05)
(8.3746e-05 1.2533e-05 2.1104e-05)
(8.5393e-05 9.958e-06 1.6764e-05)
(8.6461e-05 7.3961e-06 1.2447e-05)
(8.6932e-05 4.9452e-06 8.3169e-06)
(8.6802e-05 2.6808e-06 4.5011e-06)
(5.3859e-05 -3.0152e-05 -3.0151e-05)
(5.877e-05 -3.0496e-05 -3.0495e-05)
(6.3471e-05 -3.0274e-05 -3.0273e-05)
(6.7887e-05 -2.944e-05 -2.9438e-05)
(7.1952e-05 -2.798e-05 -2.7978e-05)
(7.5609e-05 -2.5919e-05 -2.5917e-05)
(7.8814e-05 -2.3317e-05 -2.3316e-05)
(8.1529e-05 -2.0276e-05 -2.0274e-05)
(8.3724e-05 -1.6935e-05 -1.6933e-05)
(8.537e-05 -1.3456e-05 -1.3455e-05)
(8.6438e-05 -9.9956e-06 -9.9941e-06)
(8.6909e-05 -6.6846e-06 -6.6832e-06)
(8.678e-05 -3.6252e-06 -3.6239e-06)
(5.3806e-05 -2.1624e-05 -2.1622e-05)
(5.8684e-05 -2.1863e-05 -2.1861e-05)
(6.3354e-05 -2.1696e-05 -2.1694e-05)
(6.7744e-05 -2.1092e-05 -2.109e-05)
(7.1786e-05 -2.0042e-05 -2.004e-05)
(7.5425e-05 -1.8565e-05 -1.8563e-05)
(7.8615e-05 -1.6705e-05 -1.6703e-05)
(8.1318e-05 -1.4535e-05 -1.4532e-05)
(8.3501e-05 -1.2153e-05 -1.2151e-05)
(8.5137e-05 -9.6719e-06 -9.67e-06)
(8.6199e-05 -7.2021e-06 -7.2004e-06)
(8.667e-05 -4.8369e-06 -4.8353e-06)
(8.6552e-05 -2.6503e-06 -2.6488e-06)
(5.3779e-05 -1.4878e-05 -1.4875e-05)
(5.8639e-05 -1.504e-05 -1.5037e-05)
(6.3294e-05 -1.4922e-05 -1.4919e-05)
(6.767e-05 -1.4505e-05 -1.4502e-05)
(7.1701e-05 -1.3782e-05 -1.3779e-05)
(7.5331e-05 -1.2767e-05 -1.2764e-05)
(7.8513e-05 -1.149e-05 -1.1487e-05)
(8.1209e-05 -1.0001e-05 -9.9978e-06)
(8.3387e-05 -8.3668e-06 -8.3643e-06)
(8.5018e-05 -6.6649e-06 -6.6626e-06)
(8.6077e-05 -4.9695e-06 -4.9675e-06)
(8.6549e-05 -3.3449e-06 -3.3431e-06)
(8.6436e-05 -1.8424e-06 -1.8408e-06)
(5.3762e-05 -7.63e-06 -7.6261e-06)
(5.8612e-05 -7.7123e-06 -7.7083e-06)
(6.3258e-05 -7.6512e-06 -7.6471e-06)
(6.7625e-05 -7.4365e-06 -7.4325e-06)
(7.1648e-05 -7.0657e-06 -7.0617e-06)
(7.5272e-05 -6.5452e-06 -6.5413e-06)
(7.8449e-05 -5.8909e-06 -5.8872e-06)
(8.1142e-05 -5.1284e-06 -5.125e-06)
(8.3316e-05 -4.292e-06 -4.2889e-06)
(8.4945e-05 -3.4206e-06 -3.4179e-06)
(8.6002e-05 -2.5524e-06 -2.55e-06)
(8.6475e-05 -1.7202e-06 -1.7181e-06)
(8.6365e-05 -9.504e-07 -9.4871e-07)
(5.3756e-05 2.6577e-10 5.165e-09)
(5.8603e-05 2.1154e-10 5.2386e-09)
(6.3245e-05 1.3727e-10 5.2204e-09)
(6.761e-05 4.8052e-11 5.11e-09)
(7.1631e-05 -4.6106e-11 4.9114e-09)
(7.5252e-05 -1.3125e-10 4.6325e-09)
(7.8428e-05 -1.9291e-10 4.2873e-09)
(8.1119e-05 -2.2102e-10 3.8944e-09)
(8.3292e-05 -2.1473e-10 3.4735e-09)
(8.492e-05 -1.8274e-10 3.0417e-09)
(8.5977e-05 -1.3764e-10 2.611e-09)
(8.645e-05 -9.0083e-11 2.1904e-09)
(8.634e-05 -4.7124e-11 1.7856e-09)
(5.3762e-05 7.6326e-06 7.6365e-06)
(5.8612e-05 7.7148e-06 7.7188e-06)
(6.3258e-05 7.6535e-06 7.6576e-06)
(6.7625e-05 7.4386e-06 7.4427e-06)
(7.1649e-05 7.0675e-06 7.0715e-06)
(7.5272e-05 6.5467e-06 6.5505e-06)
(7.8449e-05 5.8921e-06 5.8957e-06)
(8.1142e-05 5.1293e-06 5.1327e-06)
(8.3316e-05 4.2927e-06 4.2958e-06)
(8.4945e-05 3.4212e-06 3.4239e-06)
(8.6002e-05 2.5528e-06 2.5552e-06)
(8.6475e-05 1.7205e-06 1.7225e-06)
(8.6364e-05 9.5056e-07 9.5227e-07)
(5.3779e-05 1.4886e-05 1.4879e-05)
(5.8639e-05 1.5048e-05 1.5041e-05)
(6.3295e-05 1.493e-05 1.4923e-05)
(6.767e-05 1.4512e-05 1.4506e-05)
(7.1701e-05 1.3789e-05 1.3783e-05)
(7.5331e-05 1.2773e-05 1.2768e-05)
(7.8513e-05 1.1495e-05 1.149e-05)
(8.1209e-05 1.0005e-05 1.0001e-05)
(8.3387e-05 8.3707e-06 8.3677e-06)
(8.5018e-05 6.668e-06 6.6659e-06)
(8.6077e-05 4.9718e-06 4.9706e-06)
(8.6549e-05 3.3465e-06 3.3461e-06)
(8.6436e-05 1.8433e-06 1.8436e-06)
(5.3806e-05 2.1633e-05 2.162e-05)
(5.8684e-05 2.1872e-05 2.1859e-05)
(6.3354e-05 2.1704e-05 2.1692e-05)
(6.7744e-05 2.11e-05 2.1087e-05)
(7.1786e-05 2.0049e-05 2.0038e-05)
(7.5425e-05 1.8571e-05 1.8561e-05)
(7.8615e-05 1.671e-05 1.6701e-05)
(8.1318e-05 1.4539e-05 1.4531e-05)
(8.3501e-05 1.2156e-05 1.215e-05)
(8.5137e-05 9.6749e-06 9.6702e-06)
(8.6199e-05 7.2044e-06 7.2012e-06)
(8.667e-05 4.8384e-06 4.8367e-06)
(8.6551e-05 2.6511e-06 2.6508e-06)
(5.3859e-05 3.0155e-05 3.0149e-05)
(5.877e-05 3.0499e-05 3.0493e-05)
(6.3471e-05 3.0277e-05 3.0271e-05)
(6.7887e-05 2.9442e-05 2.9436e-05)
(7.1952e-05 2.7982e-05 2.7976e-05)
(7.5609e-05 2.592e-05 2.5915e-05)
(7.8814e-05 2.3318e-05 2.3314e-05)
(8.1529e-05 2.0277e-05 2.0273e-05)
(8.3724e-05 1.6936e-05 1.6933e-05)
(8.537e-05 1.3457e-05 1.3455e-05)
(8.6438e-05 9.9958e-06 9.9949e-06)
(8.6908e-05 6.6847e-06 6.6846e-06)
(8.6779e-05 3.6253e-06 3.6258e-06)
(5.3865e-05 -2.2314e-05 -3.7588e-05)
(5.8779e-05 -2.2569e-05 -3.802e-05)
(6.3483e-05 -2.2405e-05 -3.7745e-05)
(6.7901e-05 -2.1788e-05 -3.6706e-05)
(7.1968e-05 -2.0708e-05 -3.4885e-05)
(7.5628e-05 -1.9183e-05 -3.2314e-05)
(7.8834e-05 -1.7258e-05 -2.9069e-05)
(8.155e-05 -1.5006e-05 -2.5273e-05)
(8.3746e-05 -1.2533e-05 -2.1104e-05)
(8.5393e-05 -9.9578e-06 -1.6763e-05)
(8.6462e-05 -7.396e-06 -1.2446e-05)
(8.6932e-05 -4.9452e-06 -8.3153e-06)
(8.6802e-05 -2.6808e-06 -4.4991e-06)
(5.3811e-05 -1.4346e-05 -2.8696e-05)
(5.8692e-05 -1.4505e-05 -2.9015e-05)
(6.3366e-05 -1.4394e-05 -2.8794e-05)
(6.7758e-05 -1.3994e-05 -2.7992e-05)
(7.1802e-05 -1.3298e-05 -2.6599e-05)
(7.5443e-05 -1.2318e-05 -2.4638e-05)
(7.8634e-05 -1.1083e-05 -2.2169e-05)
(8.1338e-05 -9.6429e-06 -1.9287e-05)
(8.3523e-05 -8.062e-06 -1.6123e-05)
(8.5159e-05 -6.4156e-06 -1.2829e-05)
(8.6222e-05 -4.7766e-06 -9.5489e-06)
(8.6693e-05 -3.2071e-06 -6.4083e-06)
(8.6573e-05 -1.7564e-06 -3.5051e-06)
(5.3784e-05 -7.3877e-06 -2.2151e-05)
(5.8648e-05 -7.4683e-06 -2.2393e-05)
(6.3306e-05 -7.4101e-06 -2.2219e-05)
(6.7685e-05 -7.203e-06 -2.1598e-05)
(7.1718e-05 -6.8443e-06 -2.0522e-05)
(7.5349e-05 -6.3402e-06 -1.9009e-05)
(7.8533e-05 -5.7059e-06 -1.7107e-05)
(8.1231e-05 -4.9662e-06 -1.4889e-05)
(8.341e-05 -4.1546e-06 -1.2454e-05)
(8.5042e-05 -3.3091e-06 -9.9186e-06)
(8.6101e-05 -2.4669e-06 -7.3928e-06)
(8.6573e-05 -1.6599e-06 -4.9727e-06)
(8.6459e-05 -9.1368e-07 -2.7345e-06)
(5.3767e-05 8.3256e-09 -1.5107e-05)
(5.8621e-05 8.3682e-09 -1.5271e-05)
(6.327e-05 8.2361e-09 -1.515e-05)
(6.764e-05 7.9231e-09 -1.4725e-05)
(7.1666e-05 7.4352e-09 -1.3991e-05)
(7.5292e-05 6.794e-09 -1.296e-05)
(7.8471e-05 6.0334e-09 -1.1664e-05)
(8.1164e-05 5.1932e-09 -1.0153e-05)
(8.334e-05 4.3113e-09 -8.4961e-06)
(8.4969e-05 3.4192e-09 -6.7698e-06)
(8.6027e-05 2.5437e-09 -5.0497e-06)
(8.65e-05 1.7097e-09 -3.4011e-06)
(8.6388e-05 9.3853e-10 -1.8763e-06)
(5.3762e-05 7.6347e-06 -7.6302e-06)
(5.8612e-05 7.7169e-06 -7.7124e-06)
(6.3258e-05 7.6556e-06 -7.6512e-06)
(6.7625e-05 7.4407e-06 -7.4364e-06)
(7.1648e-05 7.0695e-06 -7.0654e-06)
(7.5272e-05 6.5485e-06 -6.5448e-06)
(7.8449e-05 5.8937e-06 -5.8903e-06)
(8.1142e-05 5.1307e-06 -5.1277e-06)
(8.3316e-05 4.2939e-06 -4.2911e-06)
(8.4944e-05 3.4221e-06 -3.4197e-06)
(8.6002e-05 2.5535e-06 -2.5513e-06)
(8.6475e-05 1.7209e-06 -1.719e-06)
(8.6364e-05 9.5081e-07 -9.4918e-07)
(5.3767e-05 1.5111e-05 7.5432e-09)
(5.8621e-05 1.5274e-05 7.6359e-09)
(6.327e-05 1.5154e-05 7.5902e-09)
(6.764e-05 1.4729e-05 7.4042e-09)
(7.1666e-05 1.3994e-05 7.0833e-09)
(7.5292e-05 1.2963e-05 6.6393e-09)
(7.8471e-05 1.1667e-05 6.0915e-09)
(8.1164e-05 1.0156e-05 5.466e-09)
(8.334e-05 8.4983e-06 4.7922e-09)
(8.4969e-05 6.7718e-06 4.0983e-09)
(8.6027e-05 5.0515e-06 3.4079e-09)
(8.65e-05 3.4028e-06 2.7394e-09)
(8.6388e-05 1.8777e-06 2.1061e-09)
(5.3784e-05 2.216e-05 7.403e-06)
(5.8648e-05 2.2402e-05 7.4838e-06)
(6.3306e-05 2.2228e-05 7.4254e-06)
(6.7685e-05 2.1606e-05 7.2178e-06)
(7.1718e-05 2.053e-05 6.8583e-06)
(7.5349e-05 1.9017e-05 6.3531e-06)
(7.8533e-05 1.7114e-05 5.7176e-06)
(8.123e-05 1.4895e-05 4.9765e-06)
(8.341e-05 1.246e-05 4.1633e-06)
(8.5042e-05 9.9231e-06 3.3163e-06)
(8.6101e-05 7.3965e-06 2.4727e-06)
(8.6573e-05 4.9756e-06 1.6643e-06)
(8.6459e-05 2.7367e-06 9.1667e-07)
(5.3811e-05 2.8703e-05 1.4345e-05)
(5.8692e-05 2.9022e-05 1.4504e-05)
(6.3366e-05 2.8801e-05 1.4393e-05)
(6.7758e-05 2.8e-05 1.3993e-05)
(7.1802e-05 2.6606e-05 1.3296e-05)
(7.5443e-05 2.4645e-05 1.2317e-05)
(7.8634e-05 2.2174e-05 1.1082e-05)
(8.1338e-05 1.9291e-05 9.6423e-06)
(8.3523e-05 1.6127e-05 8.0617e-06)
(8.5159e-05 1.2832e-05 6.4156e-06)
(8.6222e-05 9.552e-06 4.777e-06)
(8.6693e-05 6.4109e-06 3.2078e-06)
(8.6573e-05 3.507e-06 1.7574e-06)
(5.3865e-05 3.7589e-05 2.2308e-05)
(5.8779e-05 3.8021e-05 2.2563e-05)
(6.3483e-05 3.7746e-05 2.2399e-05)
(6.7901e-05 3.6707e-05 2.1782e-05)
(7.1968e-05 3.4886e-05 2.0702e-05)
(7.5628e-05 3.2315e-05 1.9178e-05)
(7.8834e-05 2.9069e-05 1.7253e-05)
(8.155e-05 2.5274e-05 1.5002e-05)
(8.3746e-05 2.1104e-05 1.253e-05)
(8.5393e-05 1.6764e-05 9.9556e-06)
(8.6461e-05 1.2446e-05 7.3947e-06)
(8.6932e-05 8.3161e-06 4.9448e-06)
(8.6802e-05 4.5002e-06 2.6812e-06)
(5.3881e-05 -1.4282e-05 -4.4421e-05)
(5.8805e-05 -1.4446e-05 -4.4938e-05)
(6.3518e-05 -1.4343e-05 -4.4619e-05)
(6.7944e-05 -1.395e-05 -4.3394e-05)
(7.2017e-05 -1.3259e-05 -4.1243e-05)
(7.5681e-05 -1.2283e-05 -3.8202e-05)
(7.8891e-05 -1.1049e-05 -3.436e-05)
(8.1611e-05 -9.6063e-06 -2.9865e-05)
(8.3811e-05 -8.0207e-06 -2.4926e-05)
(8.546e-05 -6.3696e-06 -1.9785e-05)
(8.6531e-05 -4.7274e-06 -1.4674e-05)
(8.7001e-05 -3.1568e-06 -9.7862e-06)
(8.6868e-05 -1.7059e-06 -5.2712e-06)
(5.3827e-05 -7.0646e-06 -3.5389e-05)
(5.8717e-05 -7.1436e-06 -3.5787e-05)
(6.34e-05 -7.0898e-06 -3.5519e-05)
(6.7799e-05 -6.8931e-06 -3.4533e-05)
(7.185e-05 -6.5506e-06 -3.2816e-05)
(7.5496e-05 -6.0679e-06 -3.0396e-05)
(7.8691e-05 -5.4595e-06 -2.7346e-05)
(8.1399e-05 -4.7491e-06 -2.3786e-05)
(8.3587e-05 -3.9694e-06 -1.9877e-05)
(8.5226e-05 -3.1573e-06 -1.5806e-05)
(8.629e-05 -2.3491e-06 -1.1755e-05)
(8.6761e-05 -1.5754e-06 -7.8772e-06)
(8.6638e-05 -8.6037e-07 -4.2927e-06)
(5.38e-05 1.7483e-08 -2.9019e-05)
(5.8674e-05 1.764e-08 -2.9339e-05)
(6.3342e-05 1.7448e-08 -2.9114e-05)
(6.7728e-05 1.6888e-08 -2.8302e-05)
(7.1768e-05 1.5958e-08 -2.6894e-05)
(7.5405e-05 1.4687e-08 -2.4912e-05)
(7.8593e-05 1.3132e-08 -2.2417e-05)
(8.1294e-05 1.1369e-08 -1.9505e-05)
(8.3477e-05 9.478e-09 -1.631e-05)
(8.5112e-05 7.5342e-09 -1.2983e-05)
(8.6173e-05 5.6089e-09 -9.6686e-06)
(8.6644e-05 3.7681e-09 -6.4942e-06)
(8.6527e-05 2.0674e-09 -3.5589e-06)
(5.3784e-05 7.4039e-06 -2.2159e-05)
(5.8648e-05 7.4846e-06 -2.2401e-05)
(6.3306e-05 7.4262e-06 -2.2226e-05)
(6.7685e-05 7.2185e-06 -2.1605e-05)
(7.1718e-05 6.8589e-06 -2.0529e-05)
(7.5349e-05 6.3535e-06 -1.9016e-05)
(7.8533e-05 5.7177e-06 -1.7113e-05)
(8.123e-05 4.9763e-06 -1.4894e-05)
(8.341e-05 4.163e-06 -1.2459e-05)
(8.5042e-05 3.3157e-06 -9.922e-06)
(8.6101e-05 2.4718e-06 -7.3954e-06)
(8.6573e-05 1.6633e-06 -4.9744e-06)
(8.6459e-05 9.155e-07 -2.7355e-06)
(5.3779e-05 1.4879e-05 -1.4885e-05)
(5.8639e-05 1.5041e-05 -1.5047e-05)
(6.3294e-05 1.4923e-05 -1.4929e-05)
(6.767e-05 1.4505e-05 -1.4512e-05)
(7.1701e-05 1.3782e-05 -1.3788e-05)
(7.5331e-05 1.2767e-05 -1.2772e-05)
(7.8513e-05 1.149e-05 -1.1495e-05)
(8.1209e-05 1e-05 -1.0005e-05)
(8.3387e-05 8.3666e-06 -8.37e-06)
(8.5018e-05 6.6647e-06 -6.6671e-06)
(8.6077e-05 4.9694e-06 -4.9708e-06)
(8.6549e-05 3.3448e-06 -3.3454e-06)
(8.6436e-05 1.8423e-06 -1.842e-06)
(5.3784e-05 2.2153e-05 -7.3913e-06)
(5.8648e-05 2.2395e-05 -7.4719e-06)
(6.3306e-05 2.2221e-05 -7.4136e-06)
(6.7685e-05 2.1599e-05 -7.2063e-06)
(7.1718e-05 2.0523e-05 -6.8473e-06)
(7.5349e-05 1.9011e-05 -6.3428e-06)
(7.8533e-05 1.7108e-05 -5.708e-06)
(8.123e-05 1.489e-05 -4.9678e-06)
(8.341e-05 1.2456e-05 -4.1557e-06)
(8.5042e-05 9.9199e-06 -3.3096e-06)
(8.6101e-05 7.3941e-06 -2.4669e-06)
(8.6573e-05 4.9739e-06 -1.6595e-06)
(8.6459e-05 2.7358e-06 -9.1283e-07)
(5.38e-05 2.902e-05 1.5445e-08)
(5.8674e-05 2.934e-05 1.561e-08)
(6.3342e-05 2.9115e-05 1.5485e-08)
(6.7728e-05 2.8304e-05 1.5065e-08)
(7.1768e-05 2.6895e-05 1.4351e-08)
(7.5405e-05 2.4913e-05 1.336e-08)
(7.8593e-05 2.2417e-05 1.2134e-08)
(8.1294e-05 1.9506e-05 1.0727e-08)
(8.3477e-05 1.6311e-05 9.2033e-09)
(8.5112e-05 1.2983e-05 7.6262e-09)
(8.6173e-05 9.6695e-06 6.0557e-09)
(8.6644e-05 6.4952e-06 4.5436e-09)
(8.6527e-05 3.56e-06 3.1314e-09)
(5.3827e-05 3.5391e-05 7.0867e-06)
(5.8717e-05 3.5789e-05 7.1659e-06)
(6.34e-05 3.5521e-05 7.1119e-06)
(6.7799e-05 3.4535e-05 6.9145e-06)
(7.185e-05 3.2817e-05 6.5708e-06)
(7.5496e-05 3.0398e-05 6.0866e-06)
(7.8691e-05 2.7348e-05 5.4764e-06)
(8.1398e-05 2.3787e-05 4.764e-06)
(8.3586e-05 1.9878e-05 3.982e-06)
(8.5226e-05 1.5807e-05 3.1676e-06)
(8.629e-05 1.1756e-05 2.3571e-06)
(8.6761e-05 7.8784e-06 1.5813e-06)
(8.6638e-05 4.294e-06 8.6424e-07)
(5.3881e-05 4.442e-05 1.4285e-05)
(5.8805e-05 4.4937e-05 1.445e-05)
(6.3518e-05 4.4618e-05 1.4347e-05)
(6.7944e-05 4.3393e-05 1.3953e-05)
(7.2017e-05 4.1242e-05 1.3262e-05)
(7.5681e-05 3.8201e-05 1.2286e-05)
(7.8891e-05 3.4359e-05 1.1052e-05)
(8.1611e-05 2.9864e-05 9.6086e-06)
(8.381e-05 2.4926e-05 8.0228e-06)
(8.546e-05 1.9785e-05 6.3715e-06)
(8.653e-05 1.4674e-05 4.7293e-06)