/*--------------------------------*- C++ -*----------------------------------*\
| =========                 |                                                 |
| \\      /  F ield         | OpenFOAM: The Open Source CFD Toolbox           |
|  \\    /   O peration     | Version:  4.1                                   |
|   \\  /    A nd           | Web:      www.OpenFOAM.org                      |
|    \\/     M anipulation  |                                                 |
\*---------------------------------------------------------------------------*/
FoamFile
{
    version     2.0;
    format      ascii;
    class       volVectorField;
    location    "0.000080";
    object      U;
}
// * * * * * * * * * * * * * * * * * * * * * * * * * * * * * * * * * * * * * //

dimensions      [0 1 -1 0 0 0 0];

internalField   nonuniform List<vector> 
3072
(
(2.3624439 0.015050581 8.2532834e-05)
(2.3818428 0.025419709 0.00018590773)
(2.4211529 0.022570383 0.00020632458)
(2.4585886 0.022097202 0.00018517235)
(2.49223 0.025623019 0.00012776833)
(2.5171723 0.030957971 9.9106416e-05)
(2.5332441 0.036873025 9.2225622e-05)
(2.5401219 0.042723544 9.911053e-05)
(2.5362523 0.047962623 7.0957497e-05)
(2.5245281 0.052133902 -4.6447259e-05)
(2.50522 0.05495257 -0.00016973577)
(2.478697 0.056697341 -0.00017594754)
(2.4452518 0.056989267 -0.00015581306)
(2.4057308 0.056729749 -0.00011660782)
(2.3612776 0.054698846 -7.419184e-05)
(2.3127866 0.052181015 -8.0482206e-05)
(2.2616824 0.047691006 -0.00012833532)
(2.2094998 0.042183786 -0.00013986921)
(2.1589581 0.036084754 -0.0001484965)
(2.113736 0.029594874 -0.00011552057)
(2.0699158 0.023313628 -9.0728049e-05)
(2.0320699 0.017647726 -6.7043185e-05)
(1.994843 0.011970095 -6.9595653e-05)
(1.9620544 0.0066474422 -0.00011440271)
(2.3440787 0.009125962 0.0023382145)
(2.3385669 0.024460627 0.00032169764)
(2.3593802 0.02279184 0.002133987)
(2.3828419 0.022032703 0.0027741358)
(2.404593 0.023785929 0.0026703925)
(2.4215077 0.026889276 0.0021252687)
(2.4322762 0.030584317 0.0014007839)
(2.4359837 0.034120022 0.00048210799)
(2.431429 0.037113043 -0.00047432636)
(2.4202222 0.039213805 -0.0013816135)
(2.4028344 0.040022576 -0.0019902566)
(2.3797166 0.04055283 -0.0022077338)
(2.350935 0.040372752 -0.0022919996)
(2.3173603 0.039637721 -0.0027454299)
(2.2797544 0.037656887 -0.0035228563)
(2.2393489 0.03504938 -0.003962642)
(2.1977551 0.031435138 -0.0047256263)
(2.1560239 0.027302946 -0.0048084138)
(2.1158452 0.023025997 -0.004822952)
(2.079393 0.018725114 -0.0049370711)
(2.0444899 0.014464602 -0.0048417267)
(2.0129205 0.010530455 -0.005038875)
(1.9814222 0.0065216692 -0.0052298105)
(1.952872 0.0029492717 -0.0049998075)
(2.3359861 0.0070271883 0.0046299996)
(2.3227375 0.021171887 0.0048734556)
(2.3342277 0.01995845 0.0074656044)
(2.3495474 0.019741996 0.0084693027)
(2.3640145 0.020716458 0.0078753883)
(2.3754944 0.022708588 0.0066493804)
(2.3821377 0.025186068 0.005118739)
(2.383066 0.027503392 0.0032728879)
(2.3773389 0.029391386 0.0012820116)
(2.3659182 0.030603502 -0.00074137078)
(2.3493158 0.030868607 -0.0026320459)
(2.3282431 0.030926267 -0.0039082161)
(2.3027918 0.030713952 -0.0047418677)
(2.2735245 0.030045801 -0.0056142604)
(2.2409306 0.028765982 -0.0066425695)
(2.2057878 0.026424781 -0.0080199428)
(2.1695705 0.02356764 -0.0091113408)
(2.1334374 0.020250305 -0.0097514377)
(2.0979841 0.016837046 -0.0101825)
(2.0655734 0.013627633 -0.010543029)
(2.0344983 0.010107479 -0.010901343)
(2.005583 0.006695943 -0.011430008)
(1.9781997 0.0034350829 -0.011863993)
(1.9527532 0.00065166977 -0.011472427)
(2.3303098 0.004794705 0.0066065676)
(2.3147319 0.01727057 0.0099858578)
(2.3205369 0.016713144 0.013124989)
(2.3305266 0.016787723 0.014812783)
(2.3405127 0.017452899 0.013818387)
(2.3484416 0.018737611 0.011893057)
(2.3524546 0.020356786 0.0095105668)
(2.3517733 0.021855097 0.0067111344)
(2.3455855 0.023039689 0.0036373895)
(2.3344823 0.023760103 0.00044258281)
(2.3188683 0.023824058 -0.0026358175)
(2.2995416 0.023594235 -0.0051218183)
(2.276397 0.023198973 -0.0071060899)
(2.2497209 0.022619889 -0.0087721397)
(2.220057 0.021680177 -0.010356964)
(2.1879794 0.020053587 -0.012097685)
(2.1546005 0.017848482 -0.013751705)
(2.1211477 0.015161935 -0.014928985)
(2.088295 0.012425139 -0.015790118)
(2.0572128 0.0096774304 -0.016555061)
(2.0280644 0.0067974246 -0.017243813)
(2.0007431 0.003903453 -0.01790841)
(1.9764902 0.0013554714 -0.018408672)
(1.9535934 -0.00070307945 -0.01783108)
(2.3261602 0.0025641469 0.0087237814)
(2.3113473 0.012586182 0.014995953)
(2.3139782 0.013127155 0.019021525)
(2.3204076 0.012908678 0.020413924)
(2.3270949 0.013948271 0.019571235)
(2.331994 0.014865627 0.017102296)
(2.3337948 0.015824654 0.013963715)
(2.3314774 0.016650256 0.010273504)
(2.324491 0.017261795 0.0061870536)
(2.3132194 0.017593868 0.0018373842)
(2.2981224 0.017546576 -0.002434978)
(2.2797869 0.017172428 -0.0062566561)
(2.2579757 0.016608384 -0.0095035322)
(2.2328145 0.01591251 -0.012316263)
(2.2048133 0.015064894 -0.014877966)
(2.1745622 0.013870178 -0.017183603)
(2.1431653 0.012302732 -0.019116272)
(2.1117175 0.010359969 -0.020667448)
(2.0807522 0.0084310732 -0.021815134)
(2.0507446 0.0063911019 -0.022672004)
(2.0227969 0.0043724325 -0.023411905)
(1.9970898 0.0021780221 -0.024088459)
(1.9742758 9.1044681e-05 -0.024611034)
(1.9533479 -0.0013010058 -0.024055224)
(2.3233236 0.00035607753 0.0109011)
(2.312282 0.0074029132 0.019917025)
(2.3144369 0.0088018413 0.024806254)
(2.3184617 0.0087980154 0.025337951)
(2.3225928 0.0099236269 0.024540473)
(2.325136 0.01099889 0.021918097)
(2.3248071 0.011540973 0.018180312)
(2.3207401 0.011820066 0.013647042)
(2.3125198 0.011924629 0.0085777702)
(2.3003161 0.011993949 0.0031544665)
(2.2848305 0.011950923 -0.002255403)
(2.2664474 0.011664988 -0.0073566922)
(2.2449374 0.011117993 -0.011933918)
(2.2204584 0.010428089 -0.015999916)
(2.1934537 0.0095959643 -0.019644704)
(2.1644933 0.0085634352 -0.022848526)
(2.1345717 0.0073750101 -0.02543591)
(2.1045917 0.0060776318 -0.027398754)
(2.0750623 0.0048363484 -0.028702373)
(2.0464452 0.0035596342 -0.029499057)
(2.0192663 0.00224544 -0.029916715)
(1.9942735 0.00085977662 -0.030255884)
(1.9721441 -0.00040028516 -0.030600969)
(1.9518784 -0.0011121082 -0.029988472)
(2.3227182 -0.0011836457 0.013414208)
(2.3192926 0.0024008841 0.025189201)
(2.3236813 0.0039045265 0.030945899)
(2.3275917 0.004698876 0.030924321)
(2.3302651 0.0057378229 0.028989635)
(2.3310846 0.0068842169 0.026185405)
(2.329049 0.0072425738 0.022013203)
(2.3232645 0.0071321828 0.016675932)
(2.3134553 0.0068468474 0.010525569)
(2.2998255 0.0067616647 0.0039969047)
(2.2830929 0.0068287568 -0.0025718098)
(2.263556 0.0067891641 -0.0088569798)
(2.2411928 0.0065171059 -0.014670134)
(2.2163102 0.0060538011 -0.019930282)
(2.1893658 0.0054157698 -0.024706161)
(2.1609172 0.0046444185 -0.028856165)
(2.1317211 0.0038417954 -0.032230434)
(2.1024604 0.0030227763 -0.034805894)
(2.0736061 0.0022205372 -0.036604728)
(2.0455935 0.0014234544 -0.037738838)
(2.018839 0.00064278767 -0.038292571)
(1.9938121 -5.5298944e-05 -0.038404684)
(1.9710402 -0.00058559805 -0.038193916)
(1.9502958 -0.00091359499 -0.037329442)
(2.3243655 -0.00023735795 0.016189621)
(2.3317112 -0.0004272558 0.032879321)
(2.3414645 -0.00023747867 0.039296232)
(2.3481574 -4.637652e-06 0.038063463)
(2.3517968 0.00018703244 0.033973567)
(2.3526994 0.00030696682 0.029247117)
(2.35029 0.00034843016 0.024269101)
(2.3435792 0.00024665804 0.018579743)
(2.3322164 0.00017771604 0.011587318)
(2.317237 0.00028827553 0.0036838144)
(2.2993043 0.00050914302 -0.0044568523)
(2.2785843 0.00064675448 -0.012564767)
(2.2552792 0.00061264491 -0.020293544)
(2.2299935 0.00047805536 -0.027380509)
(2.2031742 0.00030950266 -0.033708167)
(2.1752784 0.00014242649 -0.039126785)
(2.1467224 4.2876055e-05 -0.043542309)
(2.1178394 -1.1709664e-05 -0.046922959)
(2.0889708 -4.2069171e-05 -0.049283784)
(2.0604814 -4.9350011e-05 -0.050708893)
(2.0328087 -3.1665247e-05 -0.051269195)
(2.0063799 3.3985635e-05 -0.051081052)
(1.9815892 0.00014224919 -0.05036207)
(1.9584144 0.00016658412 -0.048976216)
(2.344149 0.0090933849 -0.0021432717)
(2.3385876 0.024417254 7.797906e-05)
(2.35949 0.022711574 -0.0016449889)
(2.3830926 0.021970464 -0.0023485848)
(2.4049818 0.02374263 -0.0023769687)
(2.4221308 0.026864511 -0.0019119862)
(2.4331383 0.03057417 -0.0012258717)
(2.4371194 0.03411759 -0.00032378344)
(2.4328044 0.037123037 0.00054938791)
(2.4217801 0.039262898 0.0012111684)
(2.404243 0.04010609 0.0015897388)
(2.3808842 0.040644977 0.0017916119)
(2.3519501 0.040429481 0.0019971333)
(2.3183515 0.039647303 0.0025833058)
(2.2807864 0.037652391 0.0034791847)
(2.2404304 0.035060611 0.0038938608)
(2.1986823 0.03147494 0.0045314651)
(2.1566815 0.027363106 0.0045504824)
(2.1162116 0.023087437 0.0045432837)
(2.0794851 0.018781721 0.0046876866)
(2.0443648 0.014503163 0.0046350291)
(2.0125912 0.010526004 0.004897025)
(1.9811044 0.0065257989 0.0050808359)
(1.9524781 0.0029585003 0.0047558734)
(2.3373283 0.0045915554 0.00011738934)
(2.3224245 0.020855807 0.00025002783)
(2.3315317 0.020355376 0.0002778923)
(2.344143 0.02063132 0.00023640374)
(2.3558954 0.021731685 0.0001557009)
(2.3646927 0.023533315 0.00010505069)
(2.3691366 0.025695456 7.5541215e-05)
(2.3681878 0.027580041 5.2079062e-05)
(2.3611696 0.029031125 -7.590096e-06)
(2.3485994 0.029834278 -0.00014224022)
(2.3311117 0.029646901 -0.00026156353)
(2.309427 0.029373646 -0.0002612418)
(2.2836653 0.028945403 -0.00015482415)
(2.2547237 0.028006625 -3.619056e-05)
(2.2232846 0.026592967 5.2203477e-05)
(2.1899501 0.024122606 2.6201711e-05)
(2.1559848 0.021513045 -6.9709084e-05)
(2.1223554 0.018560996 -0.00013092807)
(2.0896914 0.015705923 -0.00016030636)
(2.0582423 0.012933931 -0.00013771423)
(2.0280393 0.0099512399 -0.00010915256)
(1.9990743 0.0070068686 -6.2374314e-05)
(1.9690358 0.0038875458 -6.5254258e-05)
(1.9409424 0.0013591461 -0.00012784955)
(2.3334109 0.004249915 0.0039408788)
(2.318412 0.016064122 0.0032358821)
(2.3239713 0.016226038 0.0048052998)
(2.3325725 0.016671101 0.0047743335)
(2.3405517 0.017665524 0.00429506)
(2.3458885 0.019096967 0.0036297303)
(2.347258 0.020679055 0.002858632)
(2.3438637 0.02199296 0.0019723391)
(2.3353246 0.022969156 0.00099727081)
(2.3217518 0.023495098 -2.2564473e-05)
(2.3039735 0.023363077 -0.00092371369)
(2.2829053 0.023099704 -0.0014997449)
(2.2588403 0.022772394 -0.0017988772)
(2.2322617 0.022094164 -0.0023505851)
(2.2035431 0.021134365 -0.0029039837)
(2.173073 0.019451463 -0.0036998387)
(2.1418351 0.017262445 -0.004346064)
(2.1108359 0.014879193 -0.0048579248)
(2.0804602 0.012632445 -0.0053556403)
(2.0509087 0.010309868 -0.0056455636)
(2.0222562 0.0077807374 -0.0059574587)
(1.9946031 0.0050935371 -0.0064030932)
(1.9669505 0.0022805903 -0.0066631244)
(1.9410904 0.00019198488 -0.0064837279)
(2.3303583 0.0025221946 0.0057991222)
(2.3169028 0.011684718 0.0072062888)
(2.3211382 0.012464008 0.0096777386)
(2.3278663 0.012582388 0.010372532)
(2.3340898 0.013573558 0.0095758103)
(2.3379625 0.01474442 0.008265716)
(2.3381275 0.015880967 0.0066728814)
(2.3339014 0.016780926 0.0048536906)
(2.3250544 0.017428306 0.0028306647)
(2.3115968 0.017794418 0.00072090538)
(2.2941777 0.01776996 -0.0012200474)
(2.2737653 0.017554149 -0.0027792575)
(2.2506073 0.017177147 -0.004021992)
(2.2249487 0.01665319 -0.0051213186)
(2.1970764 0.015900082 -0.0063499667)
(2.1673274 0.014802455 -0.0077880163)
(2.1366655 0.013236054 -0.0091508563)
(2.1061499 0.011383257 -0.010195255)
(2.0761506 0.0096143534 -0.011074793)
(2.0469104 0.0077170282 -0.011708219)
(2.018667 0.005719945 -0.012264512)
(1.9917989 0.0034803207 -0.012936498)
(1.966653 0.0012691964 -0.013288924)
(1.9429996 -0.0003140409 -0.01279852)
(2.3274969 0.00085739113 0.0074830543)
(2.3157784 0.0073049122 0.011209636)
(2.3195454 0.0082511406 0.014522681)
(2.3253245 0.0081482781 0.015841636)
(2.3305375 0.0091944104 0.014926006)
(2.3335181 0.010241864 0.013072846)
(2.3329758 0.011018596 0.010691656)
(2.3281081 0.011565199 0.0079444715)
(2.3188855 0.011912 0.0048898327)
(2.305496 0.012138944 0.0016794075)
(2.2884014 0.012223712 -0.001378107)
(2.2683213 0.012089044 -0.004069707)
(2.245425 0.011742102 -0.006324354)
(2.2199071 0.011231295 -0.0083175065)
(2.192086 0.010581446 -0.010284024)
(2.1624235 0.0097089409 -0.012240872)
(2.1319017 0.0085806858 -0.014028025)
(2.1015221 0.0073373793 -0.015497813)
(2.0717243 0.0061810724 -0.016738077)
(2.042792 0.0049430141 -0.017763105)
(2.0151497 0.0036634609 -0.018573481)
(1.9892565 0.002207801 -0.019296892)
(1.9659003 0.00071846738 -0.019683057)
(1.9443226 -0.00019816092 -0.01897603)
(2.3249917 -0.00061728028 0.009292253)
(2.3155009 0.00295857 0.015254822)
(2.3192188 0.0038955673 0.019462043)
(2.3243066 0.0040213839 0.020712858)
(2.3286724 0.0046475564 0.020081342)
(2.3308595 0.0055253049 0.017779599)
(2.3296341 0.0059983671 0.014659397)
(2.3241841 0.0062386648 0.010982381)
(2.3144909 0.0063145381 0.0069169707)
(2.3007642 0.0064701051 0.002633007)
(2.2834169 0.0066631182 -0.0015078989)
(2.2630075 0.0067006916 -0.005302259)
(2.2397626 0.0064627255 -0.0086324639)
(2.2139842 0.0060373481 -0.011594488)
(2.1860562 0.0054728578 -0.014372137)
(2.1565268 0.0047755369 -0.01696315)
(2.1263348 0.0040482587 -0.0191719)
(2.0963469 0.0033333494 -0.020958801)
(2.0670355 0.002680567 -0.02236837)
(2.0387399 0.0020187216 -0.023466016)
(2.0118352 0.0013680013 -0.024342068)
(1.9867996 0.00082973385 -0.025091006)
(1.9643939 0.00037402417 -0.025649306)
(1.9442211 0.00016041726 -0.025005746)
(2.3239529 -0.00046125359 0.012349181)
(2.3182493 -0.0008036933 0.019832753)
(2.3226968 -0.00042864208 0.024671322)
(2.3272995 -2.5402755e-05 0.025543753)
(2.3306919 0.00030828957 0.024674675)
(2.331867 0.0005071864 0.022164558)
(2.3297853 0.00057030115 0.018387756)
(2.323725 0.00038898844 0.013723924)
(2.3135274 0.00026635777 0.0085905856)
(2.2992833 0.00040182858 0.0032572285)
(2.281279 0.00074104623 -0.0019878147)
(2.2600177 0.0010043207 -0.0068435489)
(2.2359801 0.0010199889 -0.011167233)
(2.2096731 0.00085249537 -0.015009934)
(2.181551 0.00056845648 -0.018538524)
(2.1522364 0.00025366054 -0.021691415)
(2.1224937 5.3328695e-05 -0.024324961)
(2.0929712 -5.6458977e-05 -0.026435059)
(2.0641126 -0.00014345423 -0.028049935)
(2.0362886 -0.00021675189 -0.029248346)
(2.0099039 -0.00024852447 -0.030125139)
(1.9854025 -0.0001670454 -0.030803423)
(1.9633623 3.6655557e-05 -0.03128337)
(1.9434152 0.00013591674 -0.030862075)
(2.3247164 0.00053282651 0.013677582)
(2.3234932 -0.0035650899 0.025742875)
(2.3288919 -0.0045653742 0.03136352)
(2.3331396 -0.0047352656 0.031152904)
(2.3356522 -0.0052599143 0.029039142)
(2.3358192 -0.0060643703 0.026018817)
(2.3329638 -0.0063996108 0.02182052)
(2.3266032 -0.0064915795 0.016539715)
(2.3165796 -0.0063455791 0.010423438)
(2.3028807 -0.0060469025 0.0038394996)
(2.2853863 -0.0056163386 -0.0028712404)
(2.2644007 -0.0052169862 -0.0093016415)
(2.2405962 -0.0049760579 -0.015144167)
(2.2146432 -0.0047984964 -0.020330712)
(2.1871183 -0.0045925 -0.024959005)
(2.1587098 -0.0042688878 -0.02894213)
(2.1298904 -0.0037447264 -0.0322142)
(2.1010197 -0.0030818371 -0.03474328)
(2.0724481 -0.0023907007 -0.036496185)
(2.0446063 -0.0016634111 -0.037569986)
(2.0180251 -0.00089034582 -0.038076659)
(1.993181 -5.5810114e-05 -0.038201003)
(1.9704637 0.0007597579 -0.038080124)
(1.9493692 0.0012044007 -0.037267619)
(2.3361324 0.0069981415 -0.0044411216)
(2.3230145 0.021118004 -0.0045264763)
(2.335001 0.019883857 -0.0069876111)
(2.3508239 0.019701186 -0.0080650578)
(2.3656581 0.020713038 -0.0076119825)
(2.3775405 0.02274091 -0.006490664)
(2.3845403 0.025254451 -0.0050312913)
(2.3858538 0.027590367 -0.0032255158)
(2.3804909 0.029498857 -0.0013207026)
(2.3692194 0.03074856 0.00049300021)
(2.3522012 0.031042194 0.0022174383)
(2.3305038 0.031088601 0.00349387)
(2.3046065 0.030781576 0.0044644651)
(2.2752009 0.030027732 0.0055183934)
(2.2426885 0.028690405 0.0066684783)
(2.2076638 0.026367088 0.0080337491)
(2.1712276 0.023536939 0.0090246186)
(2.13463 0.020257007 0.0095977196)
(2.0986925 0.01685293 0.010002326)
(2.065698 0.013622444 0.010351574)
(2.0341837 0.010080098 0.010736924)
(2.0048593 0.0066317292 0.011295883)
(1.9774283 0.0033983437 0.011711143)
(1.9517854 0.00064769817 0.011225397)
(2.3335701 0.0042521702 -0.0037124292)
(2.3188244 0.016052896 -0.0027963854)
(2.3247648 0.016238599 -0.0042675391)
(2.3335729 0.016699721 -0.0043457327)
(2.341597 0.017707161 -0.0040407063)
(2.3470198 0.019150611 -0.0034934836)
(2.348491 0.020753604 -0.0028095903)
(2.3452233 0.022077745 -0.0019890325)
(2.3367192 0.023057302 -0.0011336522)
(2.3230819 0.023576093 -0.00036025975)
(2.3050612 0.023424321 0.00034153507)
(2.2836779 0.023139402 0.00094461558)
(2.2593429 0.022786442 0.0014803314)
(2.2326563 0.022057171 0.0023416422)
(2.2040006 0.021061878 0.0031026369)
(2.1736394 0.019375363 0.0038588317)
(2.1423817 0.017184965 0.0043206401)
(2.1112137 0.01482041 0.004690048)
(2.0806629 0.012577337 0.0051194801)
(2.0509392 0.010244102 0.0054318152)
(2.0220893 0.0077076328 0.0057933212)
(1.9942454 0.0050118872 0.0063208096)
(1.9666492 0.0022302179 0.0065646873)
(1.940667 0.00016920424 0.0062490543)
(2.3313194 0.0044492784 0.00011046304)
(2.3177058 0.011535611 0.00021698662)
(2.3226465 0.012216883 0.00024070911)
(2.330163 0.012271542 0.00017528199)
(2.3369767 0.013079979 8.6790893e-05)
(2.341047 0.014241038 3.1297811e-05)
(2.3412403 0.0154367 -2.0584498e-05)
(2.3369775 0.016400093 -6.2904912e-05)
(2.3278154 0.017136712 -0.0001246692)
(2.3135935 0.017603338 -0.00023867374)
(2.2952594 0.017686639 -0.00032566322)
(2.2739087 0.017644911 -0.00031131531)
(2.2500039 0.017435307 -0.00015222981)
(2.2241024 0.01700598 3.4192987e-05)
(2.1963351 0.016273205 0.00017414401)
(2.166807 0.015161258 0.00015888526)
(2.1363326 0.013497231 4.1005829e-05)
(2.1058395 0.01165116 -5.3052923e-05)
(2.0759095 0.0099098074 -9.5196624e-05)
(2.0466724 0.0079797215 -8.7822391e-05)
(2.018312 0.0058806431 -4.6590215e-05)
(1.991087 0.0035681125 1.8563337e-07)
(1.9646425 0.0010970462 -1.1895962e-05)
(1.940429 -0.00057855342 -9.5130373e-05)
(2.3295449 0.0029143453 0.0019590474)
(2.3168672 0.0074787761 0.0037822443)
(2.3212362 0.0081419029 0.0052210726)
(2.3280666 0.0081832324 0.0055496859)
(2.3343959 0.0088065255 0.0052111834)
(2.3381552 0.0096383191 0.0045520158)
(2.338246 0.010403915 0.003713942)
(2.3342029 0.010991593 0.00275007)
(2.3254816 0.011446522 0.0016335879)
(2.3118044 0.011798983 0.00044534803)
(2.2939829 0.012011347 -0.00064687078)
(2.2730177 0.012110046 -0.0015306198)
(2.249396 0.01201955 -0.0022037567)
(2.2235939 0.011688212 -0.0027706491)
(2.1957257 0.01120643 -0.003327756)
(2.1659531 0.010391099 -0.0041076118)
(2.1351191 0.0092703418 -0.0047795175)
(2.1042584 0.0079722887 -0.0053598496)
(2.0739421 0.0066869506 -0.005832069)
(2.0444053 0.0052979194 -0.0060654573)
(2.0159826 0.0037910444 -0.0062683779)
(1.9891413 0.0020967372 -0.0065369314)
(1.9643062 0.00038996192 -0.0066424137)
(1.9419881 -0.00073057928 -0.0063361771)
(2.3276647 0.0011768817 0.0036512533)
(2.3153954 0.0033217972 0.0073660731)
(2.3190984 0.0038346022 0.0099930046)
(2.3252436 0.0040091579 0.010798914)
(2.3310792 0.0045148336 0.010365008)
(2.3346165 0.0050683586 0.0091926409)
(2.3346664 0.0054549901 0.0076054603)
(2.3305727 0.005692294 0.0057534726)
(2.3219638 0.00585443 0.0036024985)
(2.308789 0.0060696251 0.0013342131)
(2.2916024 0.0063544654 -0.00080375767)
(2.2711129 0.0065661018 -0.0027245875)
(2.2476986 0.0065629733 -0.0043374631)
(2.221809 0.0063628723 -0.0057204684)
(2.1937022 0.0059929489 -0.0070794726)
(2.1636825 0.0053920452 -0.0085133795)
(2.1326535 0.0047087689 -0.009743787)
(2.1016838 0.0039855092 -0.010740904)
(2.0713418 0.00324945 -0.011545453)
(2.0419524 0.0024726586 -0.012074387)
(2.0138744 0.0016470744 -0.012447404)
(1.987632 0.00084590967 -0.012903384)
(1.9641193 9.3081938e-05 -0.013074939)
(1.9433614 -0.00036227579 -0.01245331)
(2.3263824 -0.00054504759 0.0056095433)
(2.3153536 -0.00093322969 0.011087578)
(2.3188422 -0.0005079859 0.014782305)
(2.3243691 -7.3165009e-05 0.015919991)
(2.3295394 0.00030237874 0.015392025)
(2.3325454 0.00051260485 0.013753925)
(2.3320496 0.00053125407 0.011428666)
(2.3273032 0.00037875198 0.0086491594)
(2.318311 0.00025831703 0.0055159979)
(2.3051365 0.00035237827 0.0022276037)
(2.2879556 0.00068614899 -0.00093385678)
(2.2673334 0.0010062048 -0.0038757423)
(2.2437101 0.0011035368 -0.0064636835)
(2.2175267 0.0010207878 -0.008747382)
(2.1891604 0.00077841585 -0.010909171)
(2.159159 0.00043421543 -0.012969629)
(2.1284432 0.00018305754 -0.014704886)
(2.0978898 1.7433354e-05 -0.016084142)
(2.0680158 -0.00013600917 -0.017164272)
(2.0392026 -0.00028368518 -0.017935201)
(2.0118157 -0.00037148269 -0.018527421)
(1.9863383 -0.00029264057 -0.01912261)
(1.9636269 -5.7791584e-05 -0.019428124)
(1.9435169 8.5208901e-05 -0.018623183)
(2.3267107 -0.0003602631 0.0093833042)
(2.3186075 -0.0046645451 0.015388252)
(2.322631 -0.0048478901 0.019531879)
(2.3275858 -0.004158014 0.020751666)
(2.3317258 -0.0040864848 0.020031255)
(2.333536 -0.0044950102 0.017733198)
(2.3318997 -0.0049505758 0.014600473)
(2.3262432 -0.0054565376 0.010917179)
(2.3166305 -0.005732875 0.0068752095)
(2.303007 -0.0056816557 0.0026445594)
(2.2852233 -0.0052622102 -0.0014931258)
(2.2638495 -0.0047596209 -0.0053365681)
(2.239637 -0.0044271874 -0.0087490503)
(2.213071 -0.0042539969 -0.011785038)
(2.1845951 -0.0041978823 -0.014575933)
(2.1549427 -0.0041221179 -0.017109293)
(2.1248995 -0.0038244755 -0.019245352)
(2.0950378 -0.0033754177 -0.020965522)
(2.0657774 -0.0029543587 -0.022298325)
(2.0375494 -0.0025016753 -0.023313546)
(2.0108458 -0.001960105 -0.024149391)
(1.9861096 -0.0012749244 -0.024930818)
(1.9638732 -0.00042054387 -0.025545225)
(1.9433381 2.5342447e-05 -0.024937585)
(2.3269585 -0.00099568515 0.011245926)
(2.3195806 -0.0085473215 0.020601899)
(2.3233514 -0.0094749849 0.025303971)
(2.3280061 -0.0088628347 0.025582681)
(2.3319851 -0.009480276 0.024507013)
(2.333496 -0.010222398 0.021709604)
(2.3318177 -0.010823624 0.0179446)
(2.3268642 -0.011204307 0.013446382)
(2.3184855 -0.011387462 0.0084223332)
(2.306248 -0.011328248 0.0030133594)
(2.2895848 -0.010897929 -0.0025343248)
(2.2687834 -0.010267156 -0.0077999406)
(2.2449135 -0.0096951504 -0.012477866)
(2.2186392 -0.0092087136 -0.016534926)
(2.1905691 -0.0087160798 -0.020050656)
(2.1615174 -0.0080822889 -0.023058988)
(2.1320421 -0.007182989 -0.025494774)
(2.1024946 -0.0060797425 -0.027353369)
(2.0732477 -0.0049964937 -0.02853977)
(2.0448386 -0.0038360033 -0.029201782)
(2.0179554 -0.0025701033 -0.029527282)
(1.9932402 -0.0010773345 -0.029853121)
(1.9712915 0.00045378678 -0.03035604)
(1.950498 0.00134147 -0.029888543)
(2.3305674 0.0047926929 -0.006457468)
(2.3152668 0.017253912 -0.0096833162)
(2.3218885 0.016737928 -0.012748336)
(2.3327442 0.016870377 -0.014509498)
(2.3433308 0.017551902 -0.013633704)
(2.3517323 0.018857709 -0.011810128)
(2.3560958 0.020518976 -0.0095130255)
(2.3557014 0.022034017 -0.0067574742)
(2.3496875 0.023219165 -0.0037398447)
(2.3383808 0.023931289 -0.0006897828)
(2.3219592 0.023976757 0.0022676117)
(2.3015695 0.023703262 0.0047582506)
(2.2776514 0.023234308 0.0068878613)
(2.2507855 0.022524018 0.008726988)
(2.2213979 0.021513012 0.010424565)
(2.1896996 0.019890601 0.012174379)
(2.1562955 0.017710808 0.013758595)
(2.1224275 0.015074752 0.014875685)
(2.0890892 0.012351141 0.015714525)
(2.0574024 0.0095588789 0.016460871)
(2.0278065 0.0066569769 0.017164186)
(2.0000636 0.0037396657 0.017810559)
(1.9756422 0.0012405055 0.01825181)
(1.952461 -0.00075651053 0.017591801)
(2.3306607 0.0025610645 -0.0056072287)
(2.3176174 0.011753035 -0.0068475499)
(2.3224647 0.012576731 -0.0092379778)
(2.3296151 0.012726869 -0.010042191)
(2.3359926 0.013706741 -0.0094034661)
(2.3399516 0.014862446 -0.0082076437)
(2.3401541 0.016023821 -0.0067155324)
(2.335912 0.016930928 -0.0049553807)
(2.3268193 0.017554003 -0.003018827)
(2.3129429 0.017870272 -0.0011035884)
(2.2949153 0.017782716 0.00068419829)
(2.2737717 0.017534169 0.0022841908)
(2.2500013 0.017139361 0.0037387134)
(2.2241721 0.016546588 0.0051577278)
(2.19661 0.015752358 0.0065754249)
(2.1673376 0.014631278 0.0079860283)
(2.1369306 0.013074046 0.0092091577)
(2.1063462 0.011248786 0.010115231)
(2.0761873 0.0094791201 0.010936781)
(2.0467893 0.0075598111 0.011600999)
(2.0183869 0.0055335266 0.012193481)
(1.9913966 0.0033149714 0.012883362)
(1.9663369 0.0011263884 0.013212873)
(1.9425375 -0.00040721888 0.012601644)
(2.3296709 0.0029490476 -0.0017710051)
(2.3171844 0.0075525034 -0.003427614)
(2.3218171 0.0082363308 -0.0048351487)
(2.3287186 0.0082833073 -0.0053025286)
(2.3349595 0.0088762799 -0.0051130008)
(2.3387055 0.0096831687 -0.0045461845)
(2.3387935 0.010459276 -0.0038239915)
(2.3346494 0.011051628 -0.0029447365)
(2.325716 0.011484525 -0.0019267281)
(2.3117811 0.011795858 -0.0009177866)
(2.2936217 0.011968939 4.9768516e-05)
(2.2722579 0.012057688 0.00098925046)
(2.2483047 0.011964251 0.0019336979)
(2.2224338 0.011631545 0.0028940359)
(2.1948378 0.011149385 0.0037161127)
(2.1654541 0.010324552 0.0044709718)
(2.1349023 0.0092032742 0.0049462002)
(2.1041388 0.007911845 0.0053334518)
(2.0737915 0.0066211376 0.0057228341)
(2.0442112 0.0052204722 0.0059968266)
(2.0157767 0.0036870138 0.0062752682)
(1.9889619 0.0019933047 0.0066112516)
(1.96431 0.0003043436 0.0066835727)
(1.942014 -0.00080108939 0.0062155607)
(2.3291138 0.0013785671 7.8477832e-05)
(2.3166222 0.0034173524 0.00014605238)
(2.3208205 0.0039690755 0.00014562212)
(2.3275977 0.004165322 7.260553e-05)
(2.3340121 0.004557905 2.2316198e-05)
(2.3379424 0.0050259012 -2.4582184e-06)
(2.3383803 0.0053894081 -6.6140519e-05)
(2.3349612 0.0056143659 -0.00012296249)
(2.3268211 0.0057708729 -0.00016751515)
(2.3134275 0.0059548951 -0.00023151541)
(2.2956182 0.0062121247 -0.00027129013)
(2.2743957 0.0064559445 -0.00023750934)
(2.250335 0.0065379639 -0.00010029505)
(2.2241436 0.006425704 9.1876279e-05)
(2.1960441 0.0061275095 0.00022202077)
(2.1660203 0.0055268733 0.00021295229)
(2.1347866 0.0048291324 0.00010317021)
(2.1034391 0.0040816757 3.9703447e-06)
(2.0725788 0.0032847999 -3.7643998e-05)
(2.0426057 0.0024715261 -1.3943208e-05)
(2.0140242 0.0016112555 4.8751314e-05)
(1.9873768 0.00070007123 8.8858288e-05)
(1.9634196 -0.00010414383 7.9887749e-05)
(1.9425676 -0.00063384152 -1.1930788e-05)
(2.3287551 -0.00055477563 0.0017354499)
(2.3163477 -0.00095827335 0.003705309)
(2.3201229 -0.00053420368 0.005045296)
(2.3266153 -9.9640424e-05 0.005393655)
(2.3329738 0.0002407955 0.0051949947)
(2.3369311 0.0004561638 0.004621987)
(2.3374744 0.00046931308 0.003811557)
(2.3341795 0.00034337594 0.0028545062)
(2.3262515 0.00021585788 0.001742863)
(2.3132787 0.00025722996 0.00058702591)
(2.2959322 0.000549153 -0.0004880294)
(2.2749838 0.00088334771 -0.0014483718)
(2.2508972 0.0010699102 -0.0022294845)
(2.2243499 0.0011114413 -0.0028668378)
(2.1956984 0.00095262688 -0.0035122831)
(2.1651729 0.00062335475 -0.0042297922)
(2.1335954 0.00033943598 -0.0048824969)
(2.102058 0.00013239831 -0.0053998168)
(2.0711486 -8.0508264e-05 -0.005778274)
(2.0412798 -0.00029154347 -0.0060068823)
(2.0129256 -0.00042716735 -0.0061309135)
(1.9866181 -0.00037201116 -0.0063086153)
(1.9631604 -0.0001623559 -0.0064002453)
(1.9428444 -1.8751591e-05 -0.0060960631)
(2.3291763 -0.0022474214 0.0036681717)
(2.3179629 -0.0051696955 0.0073951366)
(2.3218544 -0.0048579324 0.010005828)
(2.327998 -0.0041862809 0.010788051)
(2.3339083 -0.0039685597 0.010378933)
(2.3374829 -0.0040829808 0.009201297)
(2.337508 -0.0044487785 0.0075986571)
(2.3333828 -0.0049477697 0.0057236355)
(2.3248635 -0.0053430084 0.0035884613)
(2.3118827 -0.0054357793 0.0013856104)
(2.2946225 -0.0051454506 -0.00070328729)
(2.2735885 -0.0047544025 -0.0026488814)
(2.2493145 -0.0044865912 -0.0043577943)
(2.2224035 -0.0043459931 -0.0058494453)
(2.1933526 -0.0043552979 -0.0072897316)
(2.1627515 -0.0043908135 -0.0086913599)
(2.1314363 -0.0042078595 -0.0098558225)
(2.1002419 -0.0038610973 -0.01075186)
(2.0697092 -0.0034695185 -0.01147552)
(2.0403022 -0.0030218184 -0.011940206)
(2.012495 -0.0024042689 -0.012276546)
(1.9867033 -0.0014748137 -0.012760818)
(1.963453 -0.0003154146 -0.012956926)
(1.942567 0.00041491273 -0.012360446)
(2.330701 -0.0017683878 0.0075918974)
(2.3213825 -0.008944962 0.011382076)
(2.325773 -0.0092282327 0.014617244)
(2.3316606 -0.0083443535 0.015886842)
(2.3368277 -0.0087229214 0.014901277)
(2.3394286 -0.0093163403 0.012997729)
(2.3383761 -0.01007633 0.010601823)
(2.333188 -0.010813868 0.0078373783)
(2.3239263 -0.011321419 0.0048296326)
(2.310604 -0.011429018 0.0017236631)
(2.2929618 -0.011050513 -0.0012688699)
(2.2714301 -0.010478124 -0.0040184956)
(2.2468192 -0.0099875225 -0.0064591025)
(2.2196744 -0.0096209572 -0.0086459038)
(2.1905792 -0.0093572314 -0.010680755)
(2.1603584 -0.0089960067 -0.012550484)
(2.1297362 -0.0082779777 -0.014186802)
(2.0992586 -0.0073249491 -0.015505946)
(2.06936 -0.0064232201 -0.016591805)
(2.0405144 -0.0053912649 -0.017485053)
(2.0132806 -0.004242947 -0.018229931)
(1.988002 -0.0026925726 -0.019028755)
(1.9650332 -0.00087689086 -0.019468004)
(1.9431536 0.00030173595 -0.018795418)
(2.3310175 -0.0030881941 0.009068331)
(2.3208092 -0.01356199 0.015670763)
(2.3256061 -0.013757857 0.01949879)
(2.3331326 -0.013033107 0.02067355)
(2.3398967 -0.013604254 0.019506538)
(2.3436166 -0.014275275 0.016872338)
(2.3437782 -0.015210031 0.013663554)
(2.3403622 -0.016091305 0.010021521)
(2.33299 -0.016759818 0.0060258506)
(2.3214932 -0.01703557 0.0017450353)
(2.3050664 -0.016746891 -0.0025837453)
(2.2839149 -0.016134085 -0.006550416)
(2.2592304 -0.015501189 -0.0099849216)
(2.231758 -0.014904163 -0.012900113)
(2.2022366 -0.01427088 -0.015394977)
(2.171595 -0.013363379 -0.017516993)
(2.1404211 -0.012066804 -0.01924309)
(2.1092149 -0.010352691 -0.020622291)
(2.0784354 -0.0086185786 -0.02156221)
(2.0486484 -0.0066625941 -0.022264001)
(2.0209949 -0.0046687468 -0.022869222)
(1.9958781 -0.0023858213 -0.02361739)
(1.9735213 -0.00012655314 -0.024302264)
(1.9522684 0.0014569712 -0.023881634)