/*--------------------------------*- C++ -*----------------------------------*\
| =========                 |                                                 |
| \\      /  F ield         | OpenFOAM: The Open Source CFD Toolbox           |
|  \\    /   O peration     | Version:  4.1                                   |
|   \\  /    A nd           | Web:      www.OpenFOAM.org                      |
|    \\/     M anipulation  |                                                 |
\*---------------------------------------------------------------------------*/
FoamFile
{
    version     2.0;
    format      ascii;
    class       volScalarField;
    location    "0.000520";
    object      nut;
}
// * * * * * * * * * * * * * * * * * * * * * * * * * * * * * * * * * * * * * //

dimensions      [0 2 -1 0 0 0 0];

internalField   nonuniform List<scalar> 
3072
(
0.00026025367
0.00026954724
0.0002784137
0.00028690655
0.00029438384
0.0003010296
0.00030626384
0.00030997011
0.00031195367
0.00030873192
0.00030451528
0.00029804349
0.00029010222
0.00028171534
0.00027214541
0.00026327323
0.00025443087
0.0002473582
0.00024329355
0.00024535072
0.00026042432
0.00030427318
0.00041482862
0.00068559692
0.00034412355
0.00035513871
0.00036581183
0.00037624872
0.00038563226
0.00039429838
0.00040150259
0.00040716715
0.00041081747
0.00040973392
0.00040704687
0.00040153712
0.00039393463
0.00038517621
0.00037437508
0.00036369702
0.00035190395
0.00034110558
0.00033200375
0.00032863192
0.00034201556
0.00039724129
0.000537135
0.00077181404
0.00040498345
0.00041796914
0.00043072397
0.00044335441
0.00045496636
0.00046577768
0.00047497605
0.00048252234
0.00048793474
0.00048889645
0.0004873998
0.00048300859
0.00047571389
0.00046701262
0.00045553776
0.00044372991
0.00043032451
0.00041743599
0.00040634782
0.00040251304
0.00042007972
0.00048508131
0.00062441155
0.00080448463
0.00046031147
0.00047500408
0.00048974686
0.00050445128
0.00051835922
0.00053131913
0.00054275702
0.00055239208
0.00055984508
0.00056374674
0.00056387137
0.0005612881
0.00055465608
0.00054643017
0.0005352415
0.00052294156
0.00050893301
0.00049516534
0.00048385481
0.00048130247
0.0005026419
0.00056936573
0.00069070469
0.0008221428
0.00050742279
0.00052312284
0.00053929286
0.00055554531
0.000571401
0.00058617663
0.00059969329
0.00061144936
0.0006210714
0.000628342
0.00063090302
0.00063072902
0.00062661914
0.00062000344
0.0006108075
0.00059953082
0.0005868713
0.00057420898
0.00056485847
0.00056498234
0.00058839369
0.00064891996
0.00074275928
0.00083314409
0.00054044589
0.00055678902
0.00057401296
0.00059162768
0.00060920144
0.00062597728
0.00064155385
0.00065545427
0.00066733689
0.00067715997
0.00068444037
0.00068714812
0.00068708886
0.00068309743
0.00067736235
0.00066886614
0.0006594835
0.00065027139
0.00064506025
0.00064884678
0.0006717745
0.00071891873
0.00078133942
0.0008397001
0.00054548186
0.00056271294
0.00058104409
0.00060015866
0.00061957554
0.00063835677
0.00065589924
0.00067167505
0.000685384
0.0006970888
0.00070668287
0.00071382642
0.0007183655
0.0007190574
0.00071731849
0.00071383869
0.00070911462
0.00070507725
0.00070471962
0.00071215079
0.00073288452
0.00076709649
0.00080690184
0.00084598744
0.00049396612
0.00051249874
0.00053230342
0.00055325156
0.00057495861
0.00059632633
0.00061626302
0.00063401115
0.0006492908
0.00066228
0.00067301363
0.00068124438
0.00068690387
0.00069037237
0.00069221207
0.00069323463
0.00069282963
0.0006914466
0.00069310269
0.00070234317
0.00072391428
0.00075892882
0.00080436069
0.00085303994
0.00034410102
0.00035506956
0.00036569971
0.00037610332
0.00038545896
0.00039408442
0.0004012349
0.00040685355
0.00041049566
0.00040936453
0.00040672136
0.00040128051
0.00039368391
0.00038494396
0.00037416918
0.00036351867
0.00035174985
0.00034096711
0.00033188966
0.00032855765
0.00034199588
0.00039728297
0.00053720526
0.00077185271
0.00046691712
0.00047816183
0.00048926171
0.00050040675
0.00051051028
0.00052017142
0.00052847434
0.00053550776
0.00054083828
0.00054202262
0.00054206581
0.00053932951
0.00053461566
0.00052821259
0.00051936232
0.00050969052
0.00049781376
0.00048587508
0.00047471036
0.00047077133
0.00049125187
0.00056489549
0.00070098286
0.00082719156
0.00055802732
0.00057087883
0.0005836938
0.00059656773
0.00060835074
0.00061949742
0.00062910755
0.00063737741
0.00064377713
0.00064664845
0.00064784653
0.00064631935
0.00064250009
0.00063680447
0.000628443
0.00061896216
0.00060745297
0.00059630162
0.00058737433
0.00058813507
0.00061453561
0.00068229259
0.0007762983
0.00084159995
0.00063144098
0.00064563442
0.00066000529
0.00067448815
0.00068816572
0.00070097651
0.00071233961
0.00072213805
0.00073004982
0.00073532056
0.00073813047
0.0007383707
0.00073563987
0.00073084318
0.00072334869
0.00071421284
0.00070333233
0.00069277982
0.00068499369
0.00068630039
0.00070816877
0.00075618218
0.00081241014
0.000846695
0.00067913177
0.00069387079
0.00070916133
0.00072464838
0.00073973172
0.00075379554
0.00076661266
0.00077786684
0.00078727341
0.00079463835
0.00079940878
0.00080153864
0.00080093561
0.00079779208
0.00079220927
0.00078443508
0.00077521361
0.00076594089
0.00075921748
0.00075945061
0.00077382717
0.00080266035
0.00083172655
0.0008487239
0.00069688649
0.00071150354
0.00072689914
0.00074272989
0.00075837227
0.00077324846
0.00078687681
0.00079909601
0.00080965764
0.00081841527
0.00082512765
0.00082963053
0.00083154012
0.0008308449
0.00082780245
0.00082273698
0.00081637618
0.00080982638
0.00080529978
0.00080569089
0.00081469974
0.00083006837
0.00084179384
0.00084933105
0.00065945008
0.00067369631
0.00068894562
0.00070484071
0.00072080428
0.00073620148
0.00075066186
0.00076398001
0.00077588795
0.00078626299
0.00079494495
0.00080179143
0.0008065145
0.00080915014
0.0008097567
0.00080859765
0.00080613697
0.000803542
0.00080282539
0.00080688069
0.00081780222
0.00083227146
0.00084179489
0.00084949042
0.00054541566
0.00056257918
0.00058084564
0.00059978325
0.0006189558
0.00063755157
0.00065498243
0.00067083652
0.00068473215
0.00069670215
0.0007064989
0.00071380847
0.00071729397
0.00071834794
0.00071630388
0.00071241302
0.00070769664
0.00070344307
0.00070278541
0.00071041703
0.00073159189
0.00076619048
0.00080636922
0.00084631464
0.00040468219
0.00041758307
0.00043027323
0.00044284701
0.00045439248
0.00046509457
0.00047414662
0.00048157215
0.00048689598
0.00048779727
0.00048641176
0.00048221848
0.00047500276
0.00046639724
0.00045499406
0.00044324559
0.00042992322
0.00041711378
0.00040613773
0.00040246271
0.00042019559
0.00048532199
0.00062463591
0.00080457722
0.00055770187
0.0005705133
0.00058331757
0.00059616426
0.00060790304
0.00061895933
0.00062843895
0.00063659018
0.00064290803
0.00064569588
0.00064695547
0.0006455896
0.00064187791
0.0006362633
0.00062796606
0.00061855303
0.00060711336
0.00059604029
0.00058721258
0.00058809916
0.00061456524
0.00068233686
0.00077635504
0.00084163612
0.00067592033
0.00069037897
0.00070490412
0.0007193336
0.00073244973
0.00074456006
0.00075479476
0.00076347885
0.00077020677
0.00077379572
0.00077551933
0.00077459847
0.00077129243
0.00076592345
0.0007579927
0.00074873448
0.0007380061
0.00072824346
0.00072161972
0.00072395993
0.00074451938
0.00078574311
0.00082857712
0.00084947649
0.00075721046
0.00077306956
0.00078903716
0.00080486419
0.00081962208
0.00083305502
0.00084460181
0.00085431212
0.00086200909
0.00086708243
0.00086972883
0.00086976917
0.00086705579
0.00086204002
0.00085440927
0.00084494498
0.00083395781
0.00082312549
0.000814082
0.00081017935
0.00081644465
0.00083250223
0.00084649184
0.00085124684
0.00079494056
0.00081129236
0.00082789086
0.00084435509
0.00086003677
0.00087424833
0.00088668099
0.00089718619
0.00090564345
0.00091177645
0.00091552303
0.00091648409
0.00091479295
0.00091041211
0.00090360115
0.00089452504
0.00088380453
0.00087237378
0.00086149489
0.00085312764
0.00085034709
0.00085255473
0.00085264738
0.0008513856
0.00078383857
0.00079928821
0.00081514619
0.00083116678
0.00084667842
0.00086095176
0.00087364584
0.00088464816
0.00089374222
0.00090072106
0.00090544806
0.00090781771
0.0009078016
0.00090534055
0.00090037675
0.00089316059
0.00088431698
0.00087467786
0.00086544839
0.00085850064
0.00085591552
0.00085611317
0.00085293289
0.00085091347
0.00069703568
0.00071159429
0.00072687988
0.00074260585
0.00075806159
0.00077273892
0.00078624185
0.00079842522
0.0008090149
0.00081776117
0.00082425307
0.00082845093
0.00083032852
0.00082951432
0.0008263436
0.00082091838
0.00081423293
0.00080725377
0.00080234682
0.00080316998
0.00081310094
0.00082937277
0.00084165146
0.00084946834
0.0005403339
0.00055658679
0.00057367564
0.00059109082
0.00060839137
0.00062494657
0.00064045533
0.00065434448
0.00066643878
0.00067633145
0.00068254922
0.00068554479
0.0006855783
0.00068199231
0.00067590734
0.00066725775
0.00065760217
0.00064792461
0.0006420969
0.00064619222
0.00066982076
0.00071782503
0.00078104199
0.00084014153
0.00045979922
0.0004744002
0.00048907653
0.00050372283
0.00051754041
0.00053033212
0.00054155431
0.00055097469
0.00055827028
0.00056204718
0.00056231511
0.00056003362
0.0005535625
0.00054549507
0.00053443889
0.0005222187
0.00050835733
0.00049475166
0.00048363413
0.00048132492
0.00050288066
0.00056972155
0.00069100438
0.00082230739
0.00063094109
0.00064508838
0.0006594683
0.00067392813
0.00068753319
0.00070017194
0.00071129845
0.00072088189
0.00072861113
0.00073372251
0.00073661361
0.00073706858
0.00073450167
0.00072987623
0.00072251813
0.00071348286
0.00070276178
0.0006923874
0.00068477676
0.0006862675
0.00070821738
0.00075627766
0.00081256388
0.00084680496
0.00075712967
0.00077297135
0.0007889646
0.00080478452
0.00081952618
0.00083290608
0.00084434237
0.00085393859
0.00086150881
0.00086646329
0.00086912882
0.00086924797
0.00086657762
0.00086163135
0.00085405174
0.00084461291
0.00083370151
0.00082297135
0.00081401203
0.00081018655
0.00081648016
0.0008325774
0.00084659864
0.00085130792
0.00082767717
0.00084508834
0.00086245485
0.00087945143
0.00089528799
0.00090943472
0.00092140234
0.00093126431
0.00093890843
0.00094417341
0.00094667909
0.00094649205
0.00094349243
0.00093793083
0.00092960571
0.00091895876
0.00090647629
0.00089311438
0.00087970495
0.00086797156
0.00086088935
0.00085875057
0.00085578115
0.00085219241
0.00084313231
0.00086074503
0.0008782631
0.0008953994
0.00091145942
0.00092573846
0.00093788339
0.00094786779
0.00095555438
0.00096076803
0.00096336263
0.00096324846
0.0009604561
0.00095495588
0.00094666355
0.00093588789
0.00092314047
0.00090910769
0.00089461096
0.00088109734
0.00087086577
0.00086430099
0.00085726508
0.00085217412
0.00079539422
0.00081162169
0.00082803544
0.00084434575
0.00085992526
0.0008740465
0.00088644947
0.00089687799
0.00090517369
0.00091091035
0.00091409873
0.00091485087
0.0009129615
0.00090858625
0.00090150718
0.00089223457
0.00088122446
0.00086948954
0.00085858062
0.00085100067
0.00084939826
0.00085255192
0.00085299094
0.00085158238
0.00067929486
0.0006939099
0.00070899112
0.00072417309
0.0007389661
0.00075280251
0.00076553673
0.00077673912
0.00078601724
0.00079308209
0.0007973803
0.00079951192
0.00079879259
0.00079564678
0.00078971123
0.00078166488
0.00077194784
0.00076202355
0.00075467437
0.00075554784
0.00077134307
0.00080171641
0.00083177618
0.00084900088
0.00050732693
0.00052288824
0.00053887011
0.00055483029
0.00057036789
0.00058491624
0.00059837996
0.00061025364
0.00061986068
0.0006266576
0.0006288669
0.00062880704
0.00062473381
0.00061826901
0.00060874716
0.00059737876
0.00058444609
0.00057125441
0.00056126899
0.00056168929
0.00058586792
0.00064733978
0.00074221813
0.00083346788
0.0005068511
0.0005224648
0.00053858442
0.00055477519
0.00057052317
0.00058510767
0.00059836382
0.00060985914
0.00061926726
0.0006264143
0.00062893776
0.00062900905
0.0006251603
0.00061869526
0.00060962337
0.00059846352
0.00058601021
0.00057358119
0.00056449827
0.00056493817
0.00058858366
0.00064919045
0.00074304927
0.00083337369
0.00067863937
0.00069332085
0.00070863734
0.00072410273
0.00073911775
0.00075302524
0.00076560626
0.00077656959
0.00078570572
0.0007928856
0.00079755925
0.00079987393
0.00079946081
0.00079646898
0.00079099137
0.00078333352
0.00077431908
0.00076530269
0.00075880854
0.00075928961
0.00077379959
0.00080274321
0.00083193667
0.00084887888
0.00079484744
0.00081115896
0.00082777796
0.00084422228
0.0008599085
0.00087410599
0.00088642564
0.00089673972
0.00090499414
0.00091097959
0.00091466296
0.00091559167
0.00091394375
0.00090962434
0.00090288608
0.00089383156
0.00088323622
0.00087201275
0.00086133108
0.00085311642
0.00085043083
0.00085271752
0.00085283906
0.00085148511
0.00084315299
0.00086074275
0.00087825751
0.00089536861
0.00091144165
0.00092575283
0.00093788045
0.00094780324
0.00095542214
0.00096055307
0.00096310468
0.00096296476
0.00096014945
0.00095463659
0.00094636659
0.00093562205
0.00092292192
0.00090897426
0.00089458466
0.00088114196
0.00087094124
0.00086440514
0.00085735725
0.00085221238
0.00082831669
0.00084561282
0.00086276237
0.00087957365
0.00089531094
0.00090942127
0.00092142878
0.00093134924
0.00093864409
0.00094336402
0.00094557887
0.00094486526
0.00094170225
0.00093581245
0.0009272986
0.0009164867
0.00090371891
0.00089005215
0.0008767727
0.00086598362
0.0008601476
0.00085891767
0.00085619972
0.00085238779
0.0007578616
0.0007735764
0.00078925877
0.00080480222
0.00081940316
0.00083277093
0.00084432527
0.00085408249
0.00086133069
0.00086567229
0.00086781166
0.00086714366
0.00086421796
0.00085877609
0.00085087404
0.00084110721
0.00082962339
0.00081822445
0.0008090068
0.00080633345
0.00081455775
0.00083231377
0.0008470324
0.00085159171
0.00063160421
0.00064561212
0.00065968193
0.00067374309
0.00068706
0.00069965607
0.00071096015
0.00072083045
0.00072853727
0.00073304877
0.00073552796
0.00073542085
0.00073275187
0.00072776726
0.00072002462
0.00071071949
0.00069936598
0.00068804409
0.00067948569
0.00068139496
0.00070479026
0.00075465055
0.00081228325
0.00084698823
0.0004602625
0.00047479015
0.00048930387
0.00050366287
0.00051723932
0.00053000493
0.00054140894
0.00055113998
0.00055850267
0.00056170533
0.00056170545
0.00055899042
0.00055255119
0.00054436244
0.00053288426
0.00052055541
0.0005063145
0.00049203553
0.0004801783
0.00047796195
0.00049999377
0.00056750332
0.00068979474
0.00082232478
0.00053991
0.00055620703
0.00057340527
0.00059094833
0.00060839815
0.00062503073
0.0006403698
0.00065398749
0.00066560876
0.00067519758
0.00068233862
0.00068500512
0.00068511868
0.00068127695
0.00067562895
0.0006672592
0.00065814737
0.00064924279
0.00064437235
0.00064854978
0.00067171178
0.00071895006
0.00078150999
0.00083995397
0.00069654664
0.00071114498
0.00072657397
0.00074238883
0.00075795196
0.00077272595
0.00078619258
0.00079814864
0.0008084078
0.00081685047
0.00082337486
0.00082781202
0.00082968916
0.00082903307
0.00082601875
0.00082105807
0.00081491534
0.00080869791
0.00080452944
0.00080525411
0.00081448714
0.0008300023
0.0008418812
0.00084944285
0.00078383772
0.00079926771
0.00081515179
0.00083111332
0.00084660048
0.00086089117
0.00087352899
0.00088438105
0.00089328528
0.0009000675
0.0009045977
0.00090680645
0.00090667587
0.00090417526
0.00089923924
0.00089210854
0.00088344618
0.00087404116
0.00086512291
0.00085844548
0.00085602296
0.00085629463
0.00085308188
0.0008509875
0.00079558121
0.00081180542
0.00082821381
0.00084447116
0.00086006461
0.00087427913
0.00088668056
0.00089706031
0.00090525958
0.00091090021
0.00091391289
0.0009144889
0.00091244982
0.00090796988
0.00090092141
0.00089170932
0.00088077844
0.00086920271
0.00085853133
0.00085113424
0.00084959896
0.00085273206
0.00085306979
0.00085159252
0.00075806482
0.00077378787
0.00078945664
0.00080498721
0.0008195951
0.00083300757
0.0008445368
0.00085427637
0.00086156853
0.00086581644
0.00086786848
0.00086709588
0.00086404409
0.00085855604
0.00085063222
0.00084088583
0.00082941648
0.00081807306
0.00080898373
0.00080642052
0.00081465574
0.00083236459
0.0008470001
0.00085155753
0.0006766608
0.00069094567
0.00070511414
0.00071915786
0.00073207106
0.00074418996
0.00075455767
0.00076331232
0.00076966465
0.00077254159
0.00077367404
0.00077175015
0.00076810084
0.00076219301
0.00075405048
0.00074447844
0.00073313461
0.00072259311
0.00071541621
0.00071876942
0.00074135525
0.00078468104
0.00082875125
0.00084979142
0.00055822739
0.00057085406
0.00058335411
0.0005957609
0.00060717147
0.00061817729
0.00062780289
0.00063608163
0.00064223039
0.00064457092
0.00064549881
0.0006434214
0.00063957053
0.0006336126
0.00062522704
0.00061561577
0.0006036805
0.00059179792
0.00058205539
0.00058317797
0.00061067104
0.00067998341
0.00077554923
0.00084174549
0.00040499644
0.00041781236
0.00043037156
0.00044268463
0.00045400506
0.00046467461
0.00047384901
0.00048143166
0.00048692405
0.00048727192
0.0004856921
0.00048101209
0.00047376158
0.00046489914
0.00045343768
0.00044157381
0.00042795911
0.000414662
0.00040317493
0.00039965953
0.0004177385
0.00048323254
0.00062310011
0.0008043673
0.00054517389
0.00056238376
0.00058067961
0.00059968347
0.00061897149
0.00063761748
0.00065496626
0.00067053635
0.00068396002
0.00069533491
0.00070458331
0.00071147103
0.00071576441
0.00071640638
0.00071477064
0.00071136993
0.00070686818
0.00070330204
0.00070342438
0.00071131151
0.00073238044
0.00076670965
0.00080670672
0.000846094
0.00065935452
0.00067361191
0.00068888246
0.00070472571
0.00072063158
0.00073598646
0.0007503621
0.00076348625
0.00077508923
0.00078508527
0.00079336524
0.00079984221
0.0008042987
0.00080678185
0.00080740355
0.00080637247
0.00080418134
0.00080197362
0.00080178255
0.00080634438
0.00081757944
0.00083215814
0.00084168019
0.0008494883
0.00069729652
0.00071184618
0.0007271285
0.00074282942
0.00075838233
0.00077316204
0.00078672124
0.00079877548
0.00080910386
0.00081749385
0.00082360138
0.00082736883
0.00082893906
0.00082796891
0.0008248733
0.00081956621
0.00081309484
0.00080644903
0.00080203798
0.00080326326
0.00081341144
0.00082966854
0.00084177649
0.00084944772
0.0006796805
0.00069430542
0.00070940251
0.00072460421
0.0007394554
0.00075343698
0.00076620672
0.00077741044
0.00078658422
0.00079349272
0.00079745207
0.00079922517
0.00079822732
0.00079491712
0.00078901841
0.00078103727
0.00077142084
0.00076170415
0.00075472992
0.00075590762
0.00077180403
0.00080207097
0.00083183825
0.00084893895
0.00063192707
0.00064595561
0.00066006981
0.00067420118
0.00068757239
0.00070026743
0.0007115853
0.0007214444
0.00072914392
0.00073363386
0.0007359251
0.00073558713
0.00073270744
0.00072765358
0.00071986798
0.0007105672
0.00069922918
0.00068801731
0.00067969511
0.00068180266
0.00070521746
0.00075493528
0.00081229759
0.00084691264
0.00055840663
0.00057106046
0.00058359832
0.00059607833
0.00060752284
0.00061857169
0.00062823277
0.00063653599
0.0006427343
0.00064502257
0.0006458898
0.00064373599
0.00063982278
0.0006337996
0.00062534307
0.00061571116
0.00060375927
0.00059190776
0.0005822422
0.00058343403
0.00061092732
0.00068016553
0.00077558748
0.00084171391
0.00046721138
0.00047828519
0.00048921146
0.00050003923
0.00050979123
0.00051930368
0.00052761174
0.00053466845
0.000539674
0.00054071166
0.00054052658
0.00053740218
0.0005326601
0.00052600514
0.00051709255
0.00050726432
0.00049496437
0.00048241894
0.00047062189
0.00046690579
0.00048788689
0.00056222658
0.0006993477
0.0008270445
0.00034419913
0.00035510026
0.00036568412
0.00037595343
0.00038514973
0.0003936979
0.00040085686
0.00040653734
0.00041033694
0.000408769
0.00040594869
0.00040020655
0.00039256828
0.00038361622
0.00037278171
0.00036198974
0.00034996597
0.00033884239
0.0003294672
0.00032638904
0.00034016233
0.00039562401
0.00053554409
0.00077122532
0.00049395063
0.00051251785
0.00053235178
0.00055322912
0.00057487408
0.00059617762
0.00061599565
0.000633551
0.00064853591
0.00066113267
0.00067137447
0.0006790842
0.00068429584
0.00068747253
0.00068922969
0.0006903732
0.00069014742
0.00068951258
0.00069161979
0.00070147007
0.00072348068
0.0007586241
0.00080425431
0.00085296145
0.00054563755
0.00056283808
0.00058118768
0.00060020367
0.00061939411
0.00063799532
0.00065536027
0.00067102341
0.00068461145
0.00069617832
0.00070546163
0.00071222429
0.00071532102
0.0007160879
0.00071391138
0.00071038632
0.00070590537
0.00070204767
0.00070198638
0.00071016198
0.00073170112
0.00076639874
0.00080653186
0.00084614071
0.0005406841
0.00055695586
0.00057409531
0.00059157003
0.00060895016
0.00062557437
0.00064114585
0.00065499757
0.00066689885
0.00067649801
0.00068233836
0.00068489429
0.00068459779
0.00068082577
0.00067485652
0.00066632798
0.00065679822
0.00064739438
0.00064201344
0.00064649398
0.00067034208
0.00071832135
0.00078124889
0.00083996818
0.00050762414
0.00052320624
0.00053924807
0.0005552753
0.00057088053
0.00058555172
0.00059910763
0.00061103182
0.00062060732
0.00062732718
0.00062926012
0.00062892575
0.00062461471
0.00061805664
0.00060859975
0.00059726868
0.00058438595
0.00057134926
0.00056168402
0.00056236533
0.00058663972
0.0006480506
0.00074257729
0.00083340027
0.00046043843
0.00047498385
0.00048956522
0.00050401978
0.00051765991
0.00053051433
0.0005419811
0.00055175101
0.00055917568
0.0005623713
0.00056224403
0.00055934944
0.00055277535
0.00054455862
0.00053308814
0.00052075532
0.00050652005
0.00049232986
0.00048066255
0.00047859379
0.00050066769
0.00056814592
0.00069020557
0.00082233575
0.00040511155
0.00041795263
0.00043056381
0.00044296338
0.00045432207
0.00046502791
0.00047424593
0.00048187106
0.00048735993
0.00048774383
0.00048612102
0.00048135709
0.00047404209
0.00046512873
0.00045362466
0.00044174924
0.00042811537
0.00041484802
0.00040344426
0.00039999657
0.00041810853
0.00048362161
0.00062342893
0.00080446923
0.00034424052
0.00035515682
0.00036576801
0.00037607129
0.00038526742
0.00039381928
0.00040098849
0.00040668463
0.00041051085
0.00040891243
0.00040607765
0.00040031546
0.00039265077
0.0003836668
0.00037280528
0.00036200915
0.00034998197
0.0003388693
0.0003295265
0.00032647418
0.0003402677
0.00039576322
0.00053572137
0.00077135269
0.00026023363
0.00026947975
0.00027832641
0.00028675983
0.00029415081
0.00030074592
0.00030597663
0.0003097199
0.00031173056
0.0003083179
0.00030398868
0.00029734549
0.00028936075
0.00028084072
0.0002712466
0.00026229547
0.00025330585
0.00024604544
0.00024182512
0.00024398197
0.00025925492
0.00030326274
0.00041375232
0.00068454772
0.00049452681
0.00028992729
0.00021363096
0.00017890481
0.00016292804
0.00015694744
0.00015625091
0.00015811339
0.00016114396
0.00016435731
0.00016786663
0.00017074283
0.00017342259
0.00017539645
0.00017662766
0.00017735593
0.00017660877
0.00017534044
0.00017356777
0.00017137624
0.00016897596
0.00016629794
0.0001635918
0.00016078821
0.00056927822
0.00032875449
0.00024154992
0.00020461596
0.0001887503
0.00018334554
0.00018337121
0.00018606851
0.00018994333
0.00019394348
0.00019817637
0.00020155142
0.00020463532
0.00020680373
0.00020804717
0.00020855756
0.00020744329
0.00020564251
0.00020321626
0.00020024595
0.00019700033
0.00019339505
0.00018972948
0.00018595199
0.00062102153
0.0003651069
0.00027226952
0.00023378138
0.00021799649
0.00021327626
0.00021418991
0.00021784661
0.00022254851
0.00022723316
0.00023185638
0.00023545128
0.00023857736
0.00024033664
0.00024107854
0.00024068383
0.00023868424
0.00023593969
0.0002325415
0.00022855977
0.00022431244
0.00021974388
0.00021518688
0.00021061983
0.00067224356
0.00041244833
0.00031389132
0.0002729451
0.00025706043
0.00025335494
0.00025561952
0.00026074843
0.00026646495
0.00027196168
0.00027668512
0.00028019145
0.00028276111
0.00028322088
0.0002826833
0.00028024337
0.00027650695
0.00027196373
0.00026678656
0.00026110765
0.00025522672
0.00024926929
0.00024352417
0.00023804163
0.00072587083
0.00047355441
0.00037222728
0.00032926547
0.00031379468
0.0003122594
0.00031700621
0.00032450466
0.00033153899
0.00033783052
0.00034193668
0.00034440717
0.00034447213
0.00034248061
0.00033850258
0.00033239343
0.00032523189
0.00031714424
0.00030847535
0.00029963071
0.00029082491
0.00028244539
0.00027470918
0.00026777257
0.00076194967
0.000541147
0.00044886866
0.00040777854
0.00039418756
0.00039617741
0.00040424609
0.00041372685
0.00042166836
0.00042692053
0.00042945645
0.00042848136
0.00042479969
0.00041749255
0.00040800227
0.00039683346
0.00038441978
0.00037063898
0.00035649611
0.00034232717
0.00032883057
0.00031643938
0.00030559189
0.00029626058
0.00075508011
0.00059120601
0.00051930807
0.00048760676
0.00047866416
0.00048376859
0.00049353758
0.00050214453
0.00050787741
0.00051001658
0.00050818408
0.00050362829
0.00049584548
0.00048479211
0.00047077058
0.00045432208
0.00043605634
0.00041595912
0.00039514527
0.00037458681
0.00035536627
0.00033834713
0.00032390923
0.00031212243
0.00067239279
0.0005469314
0.0004969079
0.00048164564
0.00048199481
0.00049047521
0.00049769515
0.00050219209
0.00050651841
0.00051026938
0.00051179216
0.00050961433
0.00050276172
0.00049093832
0.00047467766
0.00045503856
0.00043288112
0.00040857044
0.000383098
0.00035820953
0.00033567848
0.00031668096
0.0003016822
0.00029061003
9.1719942e-05
9.148299e-05
9.2389646e-05
9.2157809e-05
9.1595004e-05
9.1053725e-05
9.0651895e-05
9.0378306e-05
9.0185553e-05
9.0028366e-05
8.988809e-05
8.9765115e-05
8.9659367e-05
8.957442e-05
8.9506069e-05
8.9465861e-05
8.9436603e-05
8.9378559e-05
8.9306633e-05
8.9226736e-05
8.9142696e-05
8.9061488e-05
8.8994141e-05
8.8950594e-05
9.8233793e-05
9.8299828e-05
9.9557686e-05
9.9670597e-05
9.9367489e-05
9.9004461e-05
9.8719331e-05
9.8528522e-05
9.8404194e-05
9.8313022e-05
9.8239637e-05
9.8180408e-05
9.8134194e-05
9.81002e-05
9.8074736e-05
9.8068945e-05
9.8048762e-05
9.7997539e-05
9.7918251e-05
9.7816283e-05
9.7698947e-05
9.7576359e-05
9.7461274e-05
9.7367345e-05
0.00010100905
0.00010187712
0.00010351907
0.00010401156
0.00010401293
0.00010388796
0.00010379658
0.00010378087
0.00010383019
0.00010391941
0.00010403407
0.00010416361
0.00010430517
0.00010444996
0.00010459206
0.00010473142
0.00010482764
0.00010487446
0.0001048716
0.0001048247
0.00010474318
0.00010464037
0.0001045313
0.00010443134
0.00010001764
0.000102117
0.0001041747
0.0001050612
0.00010538425
0.00010552784
0.00010567829
0.00010590067
0.00010619732
0.00010654826
0.00010693331
0.00010733391
0.00010774252
0.00010814589
0.00010853083
0.00010888639
0.00010917318
0.00010937874
0.00010950245
0.00010955124
0.00010953579
0.00010947161
0.00010937695
0.00010927104
9.566963e-05
9.923443e-05
0.0001017168
0.00010297516
0.00010359083
0.00010398221
0.00010436689
0.00010483034
0.00010538576
0.00010601423
0.00010669106
0.00010738989
0.00010808903
0.00010877395
0.00010943215
0.00011002755
0.00011052066
0.00011088982
0.0001111392
0.00011127777
0.00011131803
0.00011127821
0.00011117919
0.00011104302
8.8718152e-05
9.3771166e-05
9.664188e-05
9.8206535e-05
9.9046016e-05
9.9621903e-05
0.00010018479
0.00010083864
0.00010160413
0.00010246259
0.00010338122
0.00010432759
0.00010526881
0.00010621307
0.00010709195
0.00010786237
0.00010849935
0.00010897479
0.00010929903
0.00010948183
0.00010953778
0.00010948643
0.00010935137
0.00010915616
8.0101685e-05
8.6422135e-05
8.9593286e-05
9.1367747e-05
9.234103e-05
9.3016757e-05
9.3673599e-05
9.4433935e-05
9.5327499e-05
9.6334265e-05
9.745822e-05
9.8613231e-05
9.9729484e-05
0.00010076252
0.00010168362
0.00010246721
0.00010309515
0.00010354905
0.00010384078
0.00010398348
0.00010399274
0.00010388725
0.00010368676
0.00010341333
7.0526863e-05
7.7714786e-05
8.1047564e-05
8.2927753e-05
8.3959941e-05
8.4672856e-05
8.5384649e-05
8.6264214e-05
8.731807e-05
8.8496288e-05
8.9716658e-05
9.0906779e-05
9.2004169e-05
9.2961326e-05
9.3754688e-05
9.4380835e-05
9.4832812e-05
9.5111016e-05
9.5240513e-05
9.5244037e-05
9.5140681e-05
9.4946707e-05
9.4672643e-05
9.432868e-05
0.0006724261
0.00054677643
0.00049673934
0.00048142266
0.0004817373
0.00049025187
0.00049753697
0.00050200847
0.00050631634
0.00051009603
0.0005116564
0.00050950244
0.00050265859
0.00049083815
0.00047456889
0.0004549068
0.00043273296
0.0004084222
0.00038294915
0.00035805963
0.00033552414
0.00031654293
0.00030160063
0.00029055888
0.00075528683
0.00059120779
0.00051910955
0.00048715532
0.00047799957
0.00048308477
0.00049293911
0.00050177257
0.00050765001
0.0005098213
0.00050808202
0.0005035251
0.000495645
0.00048447135
0.00047033473
0.00045377757
0.00043543046
0.00041539295
0.00039461286
0.00037411155
0.00035495894
0.0003380343
0.0003237026
0.00031197948
0.00076247469
0.00054112669
0.00044863296
0.00040729931
0.00039354298
0.00039551449
0.00040369725
0.00041328381
0.00042136319
0.00042677723
0.00042933365
0.0004283143
0.00042456631
0.00041729844
0.00040761557
0.00039631562
0.00038382347
0.00037002679
0.00035592282
0.00034182591
0.00032841609
0.00031611746
0.00030535243
0.00029607739
0.00072582939
0.00047336858
0.00037199864
0.00032896474
0.00031341564
0.00031189139
0.00031672315
0.00032430899
0.00033142211
0.00033779697
0.00034191902
0.00034438146
0.00034434815
0.00034229441
0.00033829596
0.00033202809
0.00032480846
0.00031664583
0.00030798344
0.00029919096
0.00029046687
0.00028217415
0.00027451218
0.00026762629
0.00067224605
0.00041228183
0.00031374764
0.00027279723
0.00025690454
0.00025323309
0.00025555968
0.00026075197
0.00026650543
0.0002720272
0.00027674192
0.00028022383
0.00028273921
0.0002831252
0.00028253031
0.00027999432
0.00027617668
0.00027158214
0.00026639548
0.00026074554
0.00025493294
0.0002490544
0.00024337113
0.00023793497
0.00062095683
0.00036499944
0.00027220036
0.00023373206
0.00021797223
0.00021329206
0.00021424668
0.00021793588
0.0002226436
0.00022732737
0.00023196628
0.00023551129
0.00023860225
0.00024030237
0.00024099936
0.00024052474
0.00023845176
0.00023566994
0.0002322606
0.00022829687
0.00022409988
0.00021958739
0.00021507493
0.00021055161
0.00056896054
0.00032865104
0.00024150767
0.00020461014
0.00018878948
0.00018342654
0.00018348151
0.00018619207
0.00019004904
0.00019403313
0.00019825097
0.00020161236
0.00020467903
0.00020681456
0.00020803173
0.00020848884
0.00020731283
0.00020548425
0.00020305558
0.00020010273
0.00019688663
0.00019330645
0.00018966199
0.00018591716
0.0004943788
0.00028992008
0.00021362669
0.00017891894
0.00016298523
0.00015703822
0.00015636542
0.00015823372
0.00016124437