/*--------------------------------*- C++ -*----------------------------------*\
| =========                 |                                                 |
| \\      /  F ield         | OpenFOAM: The Open Source CFD Toolbox           |
|  \\    /   O peration     | Version:  4.1                                   |
|   \\  /    A nd           | Web:      www.OpenFOAM.org                      |
|    \\/     M anipulation  |                                                 |
\*---------------------------------------------------------------------------*/
FoamFile
{
    version     2.0;
    format      ascii;
    class       pointVectorField;
    location    "0.000520";
    object      pointDisplacement;
}
// * * * * * * * * * * * * * * * * * * * * * * * * * * * * * * * * * * * * * //

dimensions      [0 1 0 0 0 0 0];

internalField   nonuniform List<vector> 
3625
(
(0 0.00019798939 1.1758457e-07)
(0 0.00023114693 1.2744283e-07)
(0 0.00026033498 1.5207814e-07)
(0 0.00028497649 1.5501222e-07)
(0 0.00030448194 1.205332e-07)
(0 0.0003185066 9.0462092e-08)
(0 0.00032690941 8.3480376e-08)
(0 0.00032984336 8.9909299e-08)
(0 0.00032754096 1.089227e-07)
(0 0.00031993446 1.1693944e-07)
(0 0.00030712562 1.1516753e-07)
(0 0.00028935673 1.1463035e-07)
(0 0.00026696075 1.0921561e-07)
(0 0.00024027164 9.844638e-08)
(0 0.00020949984 6.8732572e-08)
(0 0.00017518843 2.4475096e-08)
(0 0.00013802964 -6.7437522e-09)
(0 9.8723747e-05 -2.7704468e-08)
(0 5.808181e-05 -4.5440021e-08)
(0 1.723617e-05 -5.4278824e-08)
(0 -2.2049263e-05 -4.1179608e-08)
(0 -5.6188424e-05 -8.2656642e-09)
(0 -7.7579793e-05 1.9815763e-08)
(0 -6.9796234e-05 2.1622381e-08)
(0 0 0)
(0 0.00017993601 1.9129354e-05)
(0 0.00020940822 1.4793e-05)
(0 0.00023531944 1.0245486e-05)
(0 0.00025714017 5.5212456e-06)
(0 0.00027423937 6.7780476e-07)
(0 0.00028627515 -4.1570921e-06)
(0 0.00029323163 -8.8808261e-06)
(0 0.00029536732 -1.3439923e-05)
(0 0.00029290261 -1.7761009e-05)
(0 0.00028573142 -2.1791709e-05)
(0 0.00027394754 -2.546414e-05)
(0 0.00025776431 -2.8711069e-05)
(0 0.0002374824 -3.1487849e-05)
(0 0.00021342644 -3.3770216e-05)
(0 0.00018579708 -3.5506964e-05)
(0 0.00015504386 -3.6636809e-05)
(0 0.000121763 -3.7130435e-05)
(0 8.6626115e-05 -3.6979119e-05)
(0 5.0361191e-05 -3.6165921e-05)
(0 1.4018556e-05 -3.4640894e-05)
(0 -2.0730814e-05 -3.2291566e-05)
(0 -5.0451814e-05 -2.8873112e-05)
(0 -6.8019614e-05 -2.3796739e-05)
(0 -5.9130944e-05 -1.5554894e-05)
(0 0 0)
(0 0.0001590926 4.3002095e-05)
(0 0.00018497507 3.313935e-05)
(0 0.00020772152 2.2793244e-05)
(0 0.00022686591 1.2102576e-05)
(0 0.00024180256 1.2253319e-06)
(0 0.00025225747 -9.621142e-06)
(0 0.00025828806 -2.0252756e-05)
(0 0.0002601229 -3.0526236e-05)
(0 0.00025789634 -4.0265785e-05)
(0 0.00025153918 -4.9324416e-05)
(0 0.0002411313 -5.7564966e-05)
(0 0.00022683433 -6.4857502e-05)
(0 0.00020889228 -7.1094442e-05)
(0 0.00018761504 -7.6216319e-05)
(0 0.00016329112 -8.0092228e-05)
(0 0.00013628368 -8.2594337e-05)
(0 0.00010707108 -8.3692829e-05)
(0 7.6248225e-05 -8.3366824e-05)
(0 4.4435064e-05 -8.1548034e-05)
(0 1.2576755e-05 -7.8107244e-05)
(0 -1.7778632e-05 -7.2792245e-05)
(0 -4.3472727e-05 -6.4995727e-05)
(0 -5.8088147e-05 -5.3280252e-05)
(0 -4.949079e-05 -3.4265174e-05)
(0 0 0)
(0 0.00013454638 6.6873863e-05)
(0 0.00015649057 5.1441252e-05)
(0 0.0001757222 3.5256365e-05)
(0 0.00019189982 1.8565526e-05)
(0 0.00020450163 1.6348598e-06)
(0 0.00021333655 -1.5241276e-05)
(0 0.00021850922 -3.1800004e-05)
(0 0.0002201399 -4.7794258e-05)
(0 0.0002182965 -6.294163e-05)
(0 0.00021296828 -7.7014012e-05)
(0 0.00020421592 -8.9803694e-05)
(0 0.00019214584 -0.00010111705)
(0 0.00017693685 -0.00011078355)
(0 0.00015888217 -0.00011867041)
(0 0.00013833733 -0.00012460787)
(0 0.0001156011 -0.00012844325)
(0 9.1027491e-05 -0.00013011366)
(0 6.5091977e-05 -0.00012958401)
(0 3.8291524e-05 -0.00012673662)
(0 1.1431382e-05 -0.00012135696)
(0 -1.4151391e-05 -0.00011303803)
(0 -3.5708934e-05 -0.00010078152)
(0 -4.7773748e-05 -8.2294628e-05)
(0 -4.0449413e-05 -5.2487663e-05)
(0 0 0)
(0 0.0001073448 9.0288194e-05)
(0 0.00012508185 6.9405036e-05)
(0 0.00014055452 4.7502154e-05)
(0 0.00015356037 2.4927184e-05)
(0 0.00016370826 2.0444865e-06)
(0 0.00017085798 -2.0760309e-05)
(0 0.00017515402 -4.3149394e-05)
(0 0.00017663467 -6.4767435e-05)
(0 0.00017529411 -8.5217475e-05)
(0 0.00017115635 -0.00010420162)
(0 0.00016426874 -0.00012143555)
(0 0.00015468362 -0.00013665745)
(0 0.00014252215 -0.00014964285)
(0 0.00012805428 -0.00016019336)
(0 0.00011164744 -0.00016811436)
(0 9.3552406e-05 -0.00017322294)
(0 7.4010508e-05 -0.00017541731)
(0 5.3350032e-05 -0.00017464169)
(0 3.1941149e-05 -0.00017074848)
(0 1.0432519e-05 -0.00016345845)
(0 -1.0108227e-05 -0.00015219668)
(0 -2.7464745e-05 -0.00013558224)
(0 -3.7259153e-05 -0.0001104993)
(0 -3.1782897e-05 -7.0308033e-05)
(0 0 0)
(0 7.8655867e-05 0.00011268672)
(0 9.1905909e-05 8.6629537e-05)
(0 0.0001034336 5.9287815e-05)
(0 0.00011311809 3.1094742e-05)
(0 0.00012069563 2.5075152e-06)
(0 0.00012606785 -2.5980931e-05)
(0 0.00012940915 -5.3953329e-05)
(0 0.00013072188 -8.0954855e-05)
(0 0.0001299462 -0.0001064804)
(0 0.00012711218 -0.00013014814)
(0 0.00012223015 -0.00015160392)
(0 0.00011529524 -0.00017052465)
(0 0.00010638884 -0.00018664092)
(0 9.5737424e-05 -0.0001997088)
(0 8.3697133e-05 -0.00020949996)
(0 7.0484112e-05 -0.00021579214)
(0 5.6219673e-05 -0.00021845676)
(0 4.1051525e-05 -0.0002174095)
(0 2.5237062e-05 -0.00021248725)
(0 9.2961993e-06 -0.00020337228)
(0 -6.0171118e-06 -0.00018934172)
(0 -1.9105722e-05 -0.00016868657)
(0 -2.672076e-05 -0.00013754666)
(0 -2.328214e-05 -8.7813206e-05)
(0 0 0)
(0 4.9623456e-05 0.00013345102)
(0 5.82128e-05 0.00010263448)
(0 6.5685077e-05 7.0273712e-05)
(0 7.1968953e-05 3.6887818e-05)
(0 7.6858863e-05 3.0322007e-06)
(0 8.0343079e-05 -3.0719294e-05)
(0 8.2630147e-05 -6.3866315e-05)
(0 8.368074e-05 -9.5855433e-05)
(0 8.3418804e-05 -0.00012609062)
(0 8.187819e-05 -0.00015410589)
(0 7.9026631e-05 -0.00017948218)
(0 7.4798333e-05 -0.00020184234)
(0 6.9224018e-05 -0.00022086467)
(0 6.2489241e-05 -0.00023624064)
(0 5.4912962e-05 -0.00024771936)
(0 4.6653136e-05 -0.00025507465)
(0 3.76954e-05 -0.00025814858)
(0 2.8077934e-05 -0.00025683501)
(0 1.7964597e-05 -0.00025095958)
(0 7.6912757e-06 -0.00024017897)
(0 -2.2805144e-06 -0.00022367435)
(0 -1.0962762e-05 -0.00019949005)
(0 -1.6255266e-05 -0.00016315223)
(0 -1.4736133e-05 -0.00010514869)
(0 0 0)
(0 2.1667631e-05 0.00015205061)
(0 2.5507009e-05 0.00011701444)
(0 2.8817878e-05 8.019341e-05)
(0 3.1582232e-05 4.2187829e-05)
(0 3.3651983e-05 3.6369334e-06)
(0 3.5098781e-05 -3.4801943e-05)
(0 3.6142671e-05 -7.2542813e-05)
(0 3.6727328e-05 -0.00010895506)
(0 3.6792674e-05 -0.00014337862)
(0 3.6353468e-05 -0.00017527273)
(0 3.5357531e-05 -0.00020415539)
(0 3.3696501e-05 -0.00022959024)
(0 3.1347051e-05 -0.00025119932)
(0 2.8463682e-05 -0.00026861756)
(0 2.5274351e-05 -0.00028158146)
(0 2.184584e-05 -0.00028986766)
(0 1.809451e-05 -0.00029328912)
(0 1.3966487e-05 -0.00029173644)
(0 9.5144448e-06 -0.00028503235)
(0 4.9122799e-06 -0.00027282479)
(0 3.5808691e-07 -0.00025426699)
(0 -3.7236818e-06 -0.00022727963)
(0 -6.3574947e-06 -0.00018695524)
(0 -6.2467855e-06 -0.00012253663)
(0 0 0)
(0 2.9885017e-07 0.00017060774)
(0 3.3589894e-07 0.00013148624)
(0 2.8205498e-07 9.0322733e-05)
(0 1.8275481e-07 4.7797304e-05)
(0 -3.9710659e-08 4.6260256e-06)
(0 -2.7424745e-07 -3.8440493e-05)
(0 -3.2347592e-07 -8.0716685e-05)
(0 -2.5877989e-07 -0.00012151744)
(0 -1.1278531e-07 -0.00016013212)
(0 1.1952463e-07 -0.00019593259)
(0 3.8669774e-07 -0.0002283615)
(0 5.8266043e-07 -0.00025691581)
(0 6.6044267e-07 -0.00028115921)
(0 7.2335959e-07 -0.00030069269)
(0 9.0071162e-07 -0.00031521793)
(0 1.1894897e-06 -0.00032448561)
(0 1.4895556e-06 -0.00032829597)
(0 1.6819014e-06 -0.0003265341)
(0 1.7336027e-06 -0.00031903281)
(0 1.6980348e-06 -0.00030545987)
(0 1.5606182e-06 -0.00028499168)
(0 1.3477772e-06 -0.00025552366)
(0 1.2066638e-06 -0.00021185248)
(0 8.4567508e-07 -0.00014218317)
(0 0 0)
(0 0.00017997823 -1.8882989e-05)
(0 0.00020944888 -1.4530607e-05)
(0 0.00023539653 -9.9200029e-06)
(0 0.0002572138 -5.1783184e-06)
(0 0.00027428773 -4.0794856e-07)
(0 0.00028631687 4.3690931e-06)
(0 0.0002932473 9.1002664e-06)
(0 0.00029534465 1.3689181e-05)
(0 0.00029287625 1.8053031e-05)
(0 0.00028570225 2.2096294e-05)
(0 0.00027391617 2.5764085e-05)
(0 0.00025774639 2.9007962e-05)
(0 0.0002375005 3.1766826e-05)
(0 0.00021349359 3.4016276e-05)
(0 0.00018589161 3.567825e-05)
(0 0.00015514886 3.6702229e-05)
(0 0.00012187186 3.7119551e-05)
(0 8.672766e-05 3.6911463e-05)
(0 5.0461028e-05 3.6045816e-05)
(0 1.4133824e-05 3.4487909e-05)
(0 -2.0613252e-05 3.2163029e-05)
(0 -5.0371095e-05 2.8826193e-05)
(0 -6.7953943e-05 2.3828456e-05)
(0 -5.9070388e-05 1.5604372e-05)
(0 0 0)
(0 0.00015172586 1.5040401e-07)
(0 0.0001755622 1.5592568e-07)
(0 0.00019655576 2.0219655e-07)
(0 0.00021412123 2.1902252e-07)
(0 0.00022753887 1.6862296e-07)
(0 0.00023654968 1.3377033e-07)
(0 0.00024130223 1.4933624e-07)
(0 0.00024223456 1.6930206e-07)
(0 0.00023964523 1.9026222e-07)
(0 0.00023330736 1.9391318e-07)
(0 0.00022328976 1.9018424e-07)
(0 0.00020977649 1.8838663e-07)
(0 0.00019301837 1.6835811e-07)
(0 0.00017328847 1.4302095e-07)
(0 0.00015071602 1.0018224e-07)
(0 0.00012562715 3.4386642e-08)
(0 9.8473162e-05 -1.3341945e-08)
(0 6.9844286e-05 -5.0900985e-08)
(0 4.0341302e-05 -9.0057592e-08)
(0 1.0897746e-05 -1.2031077e-07)
(0 -1.7042207e-05 -1.0806078e-07)
(0 -4.0373725e-05 -4.9896767e-08)
(0 -5.2767414e-05 1.1360725e-08)
(0 -4.3240858e-05 3.1566478e-08)
(0 0 0)
(0 0.00012934137 2.1252805e-05)
(0 0.00014960006 1.6377054e-05)
(0 0.00016746047 1.1314637e-05)
(0 0.00018244718 6.0901666e-06)
(0 0.00019383658 7.529201e-07)
(0 0.00020141492 -4.5513209e-06)
(0 0.00020542817 -9.7154934e-06)
(0 0.00020627068 -1.4707232e-05)
(0 0.00020413184 -1.9438032e-05)
(0 0.00019883651 -2.3841561e-05)
(0 0.00019043106 -2.785565e-05)
(0 0.00017903518 -3.1419965e-05)
(0 0.0001648277 -3.4503988e-05)
(0 0.00014805383 -3.7100266e-05)
(0 0.0001289784 -3.9108932e-05)
(0 0.00010784812 -4.0436577e-05)
(0 8.4980434e-05 -4.1074282e-05)
(0 6.0881744e-05 -4.1028636e-05)
(0 3.6004792e-05 -4.0246398e-05)
(0 1.1148475e-05 -3.8622565e-05)
(0 -1.2407123e-05 -3.5992793e-05)
(0 -3.1922678e-05 -3.2010861e-05)
(0 -4.1983381e-05 -2.5940394e-05)
(0 -3.3854623e-05 -1.6166911e-05)
(0 0 0)
(0 0.00010468171 4.2666565e-05)
(0 0.0001211525 3.2779401e-05)
(0 0.00013561444 2.2473677e-05)
(0 0.00014774386 1.1873537e-05)
(0 0.0001569257 1.1251223e-06)
(0 0.00016303498 -9.5678314e-06)
(0 0.00016635433 -2.0036914e-05)
(0 0.00016714412 -3.0149947e-05)
(0 0.00016550747 -3.972091e-05)
(0 0.00016134982 -4.8615323e-05)
(0 0.00015469605 -5.6714311e-05)
(0 0.000145593 -6.3902028e-05)
(0 0.00013415046 -7.0085505e-05)
(0 0.00012061091 -7.5214414e-05)
(0 0.00010531625 -7.9137888e-05)
(0 8.8458514e-05 -8.1717009e-05)
(0 7.0242064e-05 -8.2927184e-05)
(0 5.1032285e-05 -8.2764214e-05)
(0 3.1135444e-05 -8.1110532e-05)
(0 1.1170607e-05 -7.7756811e-05)
(0 -7.8170179e-06 -7.2390185e-05)
(0 -2.3565794e-05 -6.4285891e-05)
(0 -3.1723339e-05 -5.1913539e-05)
(0 -2.5596616e-05 -3.211357e-05)
(0 0 0)
(0 7.8425737e-05 6.4169181e-05)
(0 9.0956128e-05 4.9252375e-05)
(0 0.00010186308 3.3679539e-05)
(0 0.00011099803 1.7666186e-05)
(0 0.00011790027 1.4457254e-06)
(0 0.00012249202 -1.4693951e-05)
(0 0.0001251117 -3.0525594e-05)
(0 0.00012589096 -4.5809713e-05)
(0 0.00012483466 -6.0248321e-05)
(0 0.00012191064 -7.3650638e-05)
(0 0.00011712053 -8.5835955e-05)
(0 0.00011044628 -9.6627308e-05)
(0 0.00010195857 -0.00010587488)
(0 9.1878716e-05 -0.00011345536)
(0 8.0556133e-05 -0.00011920897)
(0 6.8154685e-05 -0.00012298093)
(0 5.4790206e-05 -0.00012469885)
(0 4.064259e-05 -0.00012432663)
(0 2.5876426e-05 -0.0001217215)
(0 1.0955888e-05 -0.00011660649)
(0 -3.376792e-06 -0.00010848253)
(0 -1.5414595e-05 -9.6230972e-05)
(0 -2.1896373e-05 -7.7537175e-05)
(0 -1.800819e-05 -4.7814895e-05)
(0 0 0)
(0 5.152464e-05 8.5325852e-05)
(0 5.9948495e-05 6.5476922e-05)
(0 6.7216583e-05 4.4730721e-05)
(0 7.3276446e-05 2.3384966e-05)
(0 7.7815404e-05 1.7574822e-06)
(0 8.0818787e-05 -1.9771497e-05)
(0 8.2659594e-05 -4.0898368e-05)
(0 8.3393836e-05 -6.1278672e-05)
(0 8.2949166e-05 -8.0506436e-05)
(0 8.1324211e-05 -9.8317889e-05)
(0 7.8472615e-05 -0.00011446423)
(0 7.4315844e-05 -0.00012871937)
(0 6.8888385e-05 -0.0001408992)
(0 6.2364633e-05 -0.00015084258)
(0 5.5107135e-05 -0.00015835752)
(0 4.7262984e-05 -0.00016323205)
(0 3.8805106e-05 -0.0001653765)
(0 2.9735206e-05 -0.00016472983)
(0 2.0115231e-05 -0.00016113267)
(0 1.026358e-05 -0.00015426817)
(0 6.0849803e-07 -0.00014346196)
(0 -7.7376846e-06 -0.00012723364)
(0 -1.2562496e-05 -0.00010252028)
(0 -1.0842822e-05 -6.3332404e-05)
(0 0 0)
(0 2.5086572e-05 0.00010554776)
(0 2.9281873e-05 8.099975e-05)
(0 3.2860923e-05 5.5309228e-05)
(0 3.5816724e-05 2.8856018e-05)
(0 3.7922412e-05 2.0513466e-06)
(0 3.924951e-05 -2.463999e-05)
(0 4.0194805e-05 -5.0833737e-05)
(0 4.0757982e-05 -7.6086773e-05)
(0 4.0840565e-05 -9.9902018e-05)
(0 4.044906e-05 -0.0001219328)
(0 3.9504298e-05 -0.00014186479)
(0 3.7853127e-05 -0.00015942651)
(0 3.5463779e-05 -0.00017439754)
(0 3.2498253e-05 -0.00018655891)
(0 2.9277777e-05 -0.0001956909)
(0 2.588889e-05 -0.00020155562)
(0 2.2184724e-05 -0.00020405246)
(0 1.8055476e-05 -0.00020311468)
(0 1.3465504e-05 -0.0001985557)
(0 8.5929014e-06 -0.00019002016)
(0 3.6089454e-06 -0.00017670993)
(0 -9.710753e-07 -0.00015685326)
(0 -3.9396405e-06 -0.00012671512)
(0 -4.0486919e-06 -7.8870015e-05)
(0 0 0)
(0 5.7908634e-07 0.00012441485)
(0 5.0873755e-07 9.5483707e-05)
(0 3.6660978e-07 6.5172101e-05)
(0 1.7076487e-07 3.3952836e-05)
(0 -2.6583351e-07 2.326254e-06)
(0 -7.5703911e-07 -2.9158693e-05)
(0 -9.0852465e-07 -6.0028752e-05)
(0 -7.7520716e-07 -8.9763859e-05)
(0 -4.3584071e-07 -0.00011780866)
(0 1.0272073e-07 -0.00014374111)
(0 7.5009687e-07 -0.000167188)
(0 1.3099042e-06 -0.00018782069)
(0 1.6978638e-06 -0.00020536053)
(0 2.0823049e-06 -0.00021951095)
(0 2.6673819e-06 -0.00023006363)
(0 3.4278798e-06 -0.00023680864)
(0 4.1890144e-06 -0.00023960302)
(0 4.7635274e-06 -0.00023837933)
(0 5.0268744e-06 -0.00023293712)
(0 5.0430279e-06 -0.00022290057)
(0 4.7448673e-06 -0.00020741265)
(0 4.1335265e-06 -0.00018450708)
(0 3.4505742e-06 -0.00014987943)
(0 2.2253273e-06 -9.4664974e-05)
(0 0 0)
(0 -2.0909414e-05 0.000151984)
(0 -2.4734298e-05 0.00011694777)
(0 -2.8177659e-05 8.0129377e-05)
(0 -3.1209913e-05 4.2128299e-05)
(0 -3.3904121e-05 3.5706726e-06)
(0 -3.599877e-05 -3.487349e-05)
(0 -3.7206653e-05 -7.2591994e-05)
(0 -3.7615228e-05 -0.00010897492)
(0 -3.7267012e-05 -0.00014338996)
(0 -3.6161666e-05 -0.00017528623)
(0 -3.43822e-05 -0.00020417208)
(0 -3.2087078e-05 -0.00022960906)
(0 -2.936902e-05 -0.00025121815)
(0 -2.6134398e-05 -0.00026863085)
(0 -2.2304029e-05 -0.00028159017)
(0 -1.7962362e-05 -0.00028986686)
(0 -1.3293643e-05 -0.00029327513)
(0 -8.5181144e-06 -0.0002917205)
(0 -3.7865025e-06 -0.00028501828)
(0 8.0820856e-07 -0.00027281775)
(0 4.9832571e-06 -0.0002542764)
(0 8.3585798e-06 -0.00022731862)
(0 1.032177e-05 -0.00018702986)
(0 8.8773079e-06 -0.00012261545)
(0 0 0)
(0 0.00015898227 -4.2828903e-05)
(0 0.00018487968 -3.2948521e-05)
(0 0.00020774713 -2.2525685e-05)
(0 0.00022695993 -1.1791507e-05)
(0 0.0002418952 -9.5354907e-07)
(0 0.00025233939 9.8712401e-06)
(0 0.00025831006 2.053784e-05)
(0 0.0002600498 3.0843603e-05)
(0 0.00025781409 4.0617312e-05)
(0 0.00025145085 4.9686896e-05)
(0 0.0002410431 5.7926162e-05)
(0 0.00022679654 6.5218229e-05)
(0 0.00020898343 7.1445328e-05)
(0 0.00018786563 7.652064e-05)
(0 0.00016360308 8.0298253e-05)
(0 0.00013659383 8.2690661e-05)
(0 0.00010736104 8.3705753e-05)
(0 7.6510434e-05 8.3305204e-05)
(0 4.4693858e-05 8.1419258e-05)
(0 1.2882217e-05 7.7941484e-05)
(0 -1.7476866e-05 7.2653336e-05)
(0 -4.3313332e-05 6.494386e-05)
(0 -5.7975977e-05 5.3315992e-05)
(0 -4.9365131e-05 3.4323884e-05)
(0 0 0)
(0 0.0001292103 -2.1032286e-05)
(0 0.0001494825 -1.6151047e-05)
(0 0.00016745776 -1.0978645e-05)
(0 0.00018250863 -5.6852738e-06)
(0 0.00019388637 -4.0460843e-07)
(0 0.00020146514 4.8624413e-06)
(0 0.00020545902 1.007722e-05)
(0 0.00020623887 1.5104208e-05)
(0 0.0002040857 1.9861854e-05)
(0 0.00019876894 2.4272726e-05)
(0 0.00019035063 2.8288103e-05)
(0 0.00017898319 3.1854376e-05)
(0 0.00016485323 3.4903076e-05)
(0 0.00014817602 3.7430745e-05)
(0 0.00012913812 3.9332105e-05)
(0 0.00010799403 4.0528602e-05)
(0 8.5080813e-05 4.1066112e-05)
(0 6.0926902e-05 4.092773e-05)
(0 3.6017127e-05 4.0051198e-05)
(0 1.1171698e-05 3.836231e-05)
(0 -1.2419584e-05 3.576355e-05)
(0 -3.2082177e-05 3.191084e-05)
(0 -4.2142543e-05 2.5977351e-05)
(0 -3.3888308e-05 1.6248885e-05)
(0 0 0)
(0 0.00010660116 1.0704843e-07)
(0 0.0001231452 1.0105622e-07)
(0 0.00013783466 1.5774139e-07)
(0 0.00015017988 2.0018312e-07)
(0 0.00015944058 1.8482831e-07)
(0 0.00016550159 1.7168682e-07)
(0 0.00016867523 1.9346553e-07)
(0 0.00016930241 2.0447417e-07)
(0 0.00016757243 2.1074007e-07)
(0 0.00016330526 2.166319e-07)
(0 0.0001565284 2.2422702e-07)
(0 0.00014732391 2.2290359e-07)
(0 0.00013580113 1.8777902e-07)
(0 0.00012216573 1.4321765e-07)
(0 0.00010672282 9.4388306e-08)
(0 8.9641885e-05 3.4100252e-08)
(0 7.1141875e-05 -1.2870507e-08)
(0 5.1656791e-05 -5.8899689e-08)
(0 3.1523876e-05 -1.0898595e-07)
(0 1.1394008e-05 -1.4578754e-07)
(0 -7.744697e-06 -1.2662313e-07)
(0 -2.360808e-05 -5.0941011e-08)
(0 -3.1561442e-05 2.6639919e-08)
(0 -2.502556e-05 4.9575071e-08)
(0 0 0)
(0 8.1749884e-05 2.1849808e-05)
(0 9.4309952e-05 1.6785855e-05)
(0 0.00010541632 1.1540004e-05)
(0 0.00011475914 6.1411361e-06)
(0 0.0001217005 6.3858082e-07)
(0 0.00012616978 -4.8426835e-06)
(0 0.00012855323 -1.0208395e-05)
(0 0.00012909324 -1.5402799e-05)
(0 0.00012786618 -2.0321402e-05)
(0 0.00012477096 -2.4897896e-05)
(0 0.00011979904 -2.9069276e-05)
(0 0.0001129363 -3.2778457e-05)
(0 0.00010425824 -3.5995888e-05)
(0 9.3976606e-05 -3.8695507e-05)
(0 8.2419644e-05 -4.0777712e-05)
(0 6.9703699e-05 -4.2167042e-05)
(0 5.5972838e-05 -4.2847867e-05)
(0 4.1510701e-05 -4.2825574e-05)
(0 2.6496377e-05 -4.2025648e-05)
(0 1.1372856e-05 -4.0300366e-05)
(0 -3.1458409e-06 -3.7468094e-05)
(0 -1.5272536e-05 -3.3148936e-05)
(0 -2.1524593e-05 -2.6562038e-05)
(0 -1.7213881e-05 -1.6173621e-05)
(0 0 0)
(0 5.5254589e-05 4.3808586e-05)
(0 6.3650347e-05 3.3629681e-05)
(0 7.1022427e-05 2.3023105e-05)
(0 7.7209344e-05 1.2113397e-05)
(0 8.1708587e-05 1.0356459e-06)
(0 8.4522921e-05 -1.000277e-05)
(0 8.6112052e-05 -2.0840165e-05)
(0 8.6606312e-05 -3.1316475e-05)
(0 8.5962472e-05 -4.1218249e-05)
(0 8.412325e-05 -5.0423993e-05)
(0 8.1056413e-05 -5.8813937e-05)
(0 7.6678653e-05 -6.6252358e-05)
(0 7.1039943e-05 -7.2644039e-05)
(0 6.4318139e-05 -7.7922302e-05)
(0 5.6825848e-05 -8.1952009e-05)
(0 4.8679738e-05 -8.4628791e-05)
(0 3.9932759e-05 -8.5898205e-05)
(0 3.0677064e-05 -8.5708234e-05)
(0 2.0950099e-05 -8.3962376e-05)
(0 1.0987697e-05 -8.0435949e-05)
(0 1.1727727e-06 -7.4746862e-05)
(0 -7.2568231e-06 -6.6102826e-05)
(0 -1.1963587e-05 -5.2901177e-05)
(0 -1.0001415e-05 -3.2132959e-05)
(0 0 0)
(0 2.7979648e-05 6.5418712e-05)
(0 3.2039266e-05 5.0204601e-05)
(0 3.5581088e-05 3.4319168e-05)
(0 3.8523914e-05 1.7972723e-05)
(0 4.0492576e-05 1.3827411e-06)
(0 4.1581551e-05 -1.515557e-05)
(0 4.2308167e-05 -3.1401908e-05)
(0 4.271879e-05 -4.7084055e-05)
(0 4.2682833e-05 -6.1881481e-05)
(0 4.2161246e-05 -7.5602687e-05)
(0 4.1095639e-05 -8.80679e-05)
(0 3.9337374e-05 -9.9091002e-05)
(0 3.6862306e-05 -0.00010852616)
(0 3.3813681e-05 -0.00011626443)
(0 3.0504903e-05 -0.00012213354)
(0 2.7025298e-05 -0.00012598096)
(0 2.3296678e-05 -0.00012772869)
(0 1.9247026e-05 -0.00012728069)
(0 1.4774666e-05 -0.00012453634)
(0 9.9527207e-06 -0.0001192305)
(0 4.8500405e-06 -0.00011077391)
(0 1.078102e-07 -9.7972639e-05)
(0 -2.9988479e-06 -7.8441136e-05)
(0 -3.2148288e-06 -4.7733635e-05)
(0 0 0)
(0 1.2527607e-06 8.6058201e-05)
(0 9.1596765e-07 6.6035258e-05)
(0 6.2800522e-07 4.5099748e-05)
(0 3.3092355e-07 2.354362e-05)
(0 -2.8736347e-07 1.6683745e-06)
(0 -9.7486335e-07 -2.0138733e-05)
(0 -1.1873107e-06 -4.1549796e-05)
(0 -9.8399407e-07 -6.2197435e-05)
(0 -5.0978923e-07 -8.167418e-05)
(0 2.0982516e-07 -9.9705928e-05)
(0 1.0977555e-06 -0.0001160331)
(0 1.9159449e-06 -0.00013043619)
(0 2.5451093e-06 -0.00014274109)
(0 3.1501575e-06 -0.00015279567)
(0 3.9766597e-06 -0.00016038009)
(0 5.0269047e-06 -0.00016527346)
(0 6.1348617e-06 -0.00016740573)
(0 7.0912957e-06 -0.00016669897)
(0 7.6716021e-06 -0.00016300734)
(0 7.8582887e-06 -0.0001560059)
(0 7.4351762e-06 -0.00014496984)
(0 6.4395463e-06 -0.00012837436)
(0 5.1766914e-06 -0.00010310655)
(0 3.2053323e-06 -6.3227975e-05)
(0 0 0)
(0 -2.3337037e-05 0.00010541618)
(0 -2.7916276e-05 8.0873691e-05)
(0 -3.1896215e-05 5.5185909e-05)
(0 -3.5351247e-05 2.8736827e-05)
(0 -3.8523649e-05 1.9208706e-06)
(0 -4.0997359e-05 -2.4788523e-05)
(0 -4.2272423e-05 -5.0973252e-05)
(0 -4.2491278e-05 -7.6201304e-05)
(0 -4.1769368e-05 -0.00010000934)
(0 -4.0132229e-05 -0.00012204178)
(0 -3.7680575e-05 -0.00014197004)
(0 -3.468125e-05 -0.00015952477)
(0 -3.1294683e-05 -0.00017448195)
(0 -2.7362e-05 -0.00018661295)
(0 -2.275226e-05 -0.00019570333)
(0 -1.7545405e-05 -0.00020152442)
(0 -1.1969719e-05 -0.00020398268)
(0 -6.3391012e-06 -0.00020302545)
(0 -9.2320096e-07 -0.00019845937)
(0 4.1381504e-06 -0.00018992704)
(0 8.3749563e-06 -0.00017663583)
(0 1.1326675e-05 -0.00015682291)
(0 1.2357908e-05 -0.00012674288)
(0 9.3452373e-06 -7.8920049e-05)
(0 0 0)
(0 -4.8482786e-05 0.00013329368)
(0 -5.720244e-05 0.00010248227)
(0 -6.487379e-05 7.0125397e-05)
(0 -7.151293e-05 3.674376e-05)
(0 -7.7183236e-05 2.8741676e-06)
(0 -8.142738e-05 -3.0890666e-05)
(0 -8.3888527e-05 -6.4006331e-05)
(0 -8.4709319e-05 -9.5947048e-05)
(0 -8.3958691e-05 -0.00012616862)
(0 -8.1651052e-05 -0.00015418987)
(0 -7.7888753e-05 -0.00017957145)
(0 -7.2882625e-05 -0.00020193281)
(0 -6.6784655e-05 -0.00022094821)
(0 -5.954876e-05 -0.00023630002)
(0 -5.1155545e-05 -0.00024774735)
(0 -4.1746288e-05 -0.00025505993)
(0 -3.1614985e-05 -0.00025809102)
(0 -2.1095074e-05 -0.00025676621)
(0 -1.0480722e-05 -0.00025089018)
(0 -8.802792e-08 -0.00024011948)
(0 9.3868032e-06 -0.00022364771)
(0 1.7020913e-05 -0.0001995229)
(0 2.1190497e-05 -0.0001632549)
(0 1.7864094e-05 -0.00010526367)
(0 0 0)
(0 0.00013439779 -6.6745479e-05)
(0 0.0001563623 -5.1307973e-05)
(0 0.00017578293 -3.5048314e-05)
(0 0.00019208175 -1.8299769e-05)
(0 0.00020471759 -1.3655675e-06)
(0 0.00021353323 1.5525893e-05)
(0 0.00021859833 3.2128317e-05)
(0 0.00022009426 4.8142832e-05)
(0 0.00021822917 6.3307011e-05)
(0 0.00021286782 7.7383567e-05)
(0 0.00020409918 9.0174218e-05)
(0 0.00019210204 0.00010149469)
(0 0.00017707417 0.00011116358)
(0 0.00015923426 0.00011900036)
(0 0.00013875893 0.00012483087)
(0 0.00011598934 0.00012856146)
(0 9.1348363e-05 0.00013014731)
(0 6.5344578e-05 0.0001295335)
(0 3.851966e-05 0.00012661351)
(0 1.1712371e-05 0.00012120102)
(0 -1.3904312e-05 0.00011291519)
(0 -3.5707551e-05 0.00010075348)
(0 -4.7854298e-05 8.236075e-05)
(0 -4.0443379e-05 5.2571259e-05)
(0 0 0)
(0 0.00010456815 -4.2546396e-05)
(0 0.00012104495 -3.2657919e-05)
(0 0.00013570996 -2.2231845e-05)
(0 0.00014797404 -1.1533171e-05)
(0 0.00015717096 -7.7758609e-07)
(0 0.0001632596 9.9270512e-06)
(0 0.00016650837 2.0452052e-05)
(0 0.0001671818 3.0584825e-05)
(0 0.00016550094 4.0161833e-05)
(0 0.00016127492 4.9056629e-05)
(0 0.00015457389 5.7162025e-05)
(0 0.00014551869 6.4367191e-05)
(0 0.00013419666 7.0555508e-05)
(0 0.0001207984 7.5620304e-05)
(0 0.00010556273 7.9414743e-05)
(0 8.8651766e-05 8.1863723e-05)
(0 7.030832e-05 8.2963288e-05)
(0 5.0955004e-05 8.2682434e-05)
(0 3.0964999e-05 8.0919284e-05)
(0 1.1009479e-05 7.7507984e-05)
(0 -8.0696675e-06 7.2184141e-05)
(0 -2.4124975e-05 6.4222892e-05)
(0 -3.2303198e-05 5.1995514e-05)
(0 -2.5873729e-05 3.222964e-05)
(0 0 0)
(0 8.1751215e-05 -2.1722878e-05)
(0 9.4296854e-05 -1.6654827e-05)
(0 0.00010550747 -1.1284405e-05)
(0 0.0001149252 -5.7766065e-06)
(0 0.00012187049 -2.5461977e-07)
(0 0.00012632538 5.2386477e-06)
(0 0.00012867035 1.0640651e-05)
(0 0.00012914729 1.583147e-05)
(0 0.00012788751 2.0739381e-05)
(0 0.00012474415 2.5320411e-05)
(0 0.00011973392 2.9513277e-05)
(0 0.00011288595 3.3233497e-05)
(0 0.00010424944 3.641751e-05)
(0 9.402452e-05 3.9039392e-05)
(0 8.2500181e-05 4.1010713e-05)
(0 6.9748391e-05 4.2283228e-05)
(0 5.5926113e-05 4.2863292e-05)
(0 4.1358104e-05 4.2722302e-05)
(0 2.6274059e-05 4.1800783e-05)
(0 1.1145893e-05 4.0004086e-05)
(0 -3.4371466e-06 3.7222095e-05)
(0 -1.5743569e-05 3.3073157e-05)
(0 -2.2003534e-05 2.665044e-05)
(0 -1.747961e-05 1.6297306e-05)
(0 0 0)
(0 5.6674617e-05 5.235921e-08)
(0 6.4996877e-05 6.8120228e-08)
(0 7.2447198e-05 1.2990258e-07)
(0 7.8728033e-05 1.8649798e-07)
(0 8.3214246e-05 2.0833184e-07)
(0 8.5941864e-05 2.2046114e-07)
(0 8.7405045e-05 2.235619e-07)
(0 8.7767347e-05 2.0081232e-07)
(0 8.70321e-05 1.8168169e-07)
(0 8.5102924e-05 1.8158513e-07)
(0 8.1963965e-05 1.9878652e-07)
(0 7.7534274e-05 2.0284583e-07)
(0 7.1852639e-05 1.8362268e-07)
(0 6.5108021e-05 1.5473084e-07)
(0 5.7570923e-05 1.1040694e-07)
(0 4.9301237e-05 5.9521843e-08)
(0 4.0374472e-05 1.354194e-08)
(0 3.0960032e-05 -4.8847229e-08)
(0 2.1142603e-05 -1.1572607e-07)
(0 1.1140366e-05 -1.5401906e-07)
(0 1.2115511e-06 -1.2346666e-07)
(0 -7.3967085e-06 -2.795452e-08)
(0 -1.2108695e-05 5.7050212e-08)
(0 -9.9567704e-06 6.9302699e-08)
(0 0 0)
(0 2.9730294e-05 2.2304882e-05)
(0 3.3633779e-05 1.7144176e-05)
(0 3.7177134e-05 1.1776319e-05)
(0 4.0166027e-05 6.2541005e-06)
(0 4.2073804e-05 6.3061414e-07)
(0 4.3032451e-05 -4.9857304e-06)
(0 4.3626221e-05 -1.051755e-05)
(0 4.3928384e-05 -1.5881666e-05)
(0 4.381352e-05 -2.0948303e-05)
(0 4.3201186e-05 -2.5661921e-05)
(0 4.2066806e-05 -2.9952488e-05)
(0 4.025887e-05 -3.3751419e-05)
(0 3.7752528e-05 -3.7020896e-05)
(0 3.4696103e-05 -3.973744e-05)
(0 3.1346962e-05 -4.18293e-05)
(0 2.7779864e-05 -4.3248249e-05)
(0 2.3966629e-05 -4.3957126e-05)
(0 1.9898296e-05 -4.3910149e-05)
(0 1.5526118e-05 -4.3066215e-05)
(0 1.0801438e-05 -4.1276944e-05)
(0 5.6059889e-06 -3.8323746e-05)
(0 6.6557854e-07 -3.3806263e-05)
(0 -2.6132578e-06 -2.6921981e-05)
(0 -2.916674e-06 -1.620962e-05)
(0 0 0)
(0 1.9638773e-06 4.4281867e-05)
(0 1.3213278e-06 3.399477e-05)
(0 9.1158144e-07 2.3258846e-05)
(0 5.5712853e-07 1.2215114e-05)
(0 -1.8621945e-07 9.8772099e-07)
(0 -1.0233515e-06 -1.0216849e-05)
(0 -1.3041417e-06 -2.1232399e-05)
(0 -1.082887e-06 -3.1880489e-05)
(0 -5.5678188e-07 -4.1930332e-05)
(0 2.1749645e-07 -5.1263487e-05)
(0 1.1918654e-06 -5.975409e-05)
(0 2.1305633e-06 -6.725847e-05)
(0 2.9011949e-06 -7.3684647e-05)
(0 3.6465883e-06 -7.8973555e-05)
(0 4.5939683e-06 -8.2995882e-05)
(0 5.7852647e-06 -8.5681811e-05)
(0 7.1095734e-06 -8.6958605e-05)
(0 8.373259e-06 -8.6705058e-05)
(0 9.3499715e-06 -8.4886853e-05)
(0 9.8367496e-06 -8.129813e-05)
(0 9.3588709e-06 -7.5502254e-05)
(0 8.0621863e-06 -6.6678665e-05)
(0 6.3140791e-06 -5.3200434e-05)
(0 3.7735737e-06 -3.2125652e-05)
(0 0 0)
(0 -2.4809423e-05 6.5311685e-05)
(0 -2.9878507e-05 5.010899e-05)
(0 -3.4095565e-05 3.4224457e-05)
(0 -3.7691564e-05 1.7876348e-05)
(0 -4.1050359e-05 1.2701106e-06)
(0 -4.3649953e-05 -1.5293639e-05)
(0 -4.4841493e-05 -3.1558053e-05)
(0 -4.4818721e-05 -4.725447e-05)
(0 -4.377553e-05 -6.2068439e-05)
(0 -4.1749484e-05 -7.5797171e-05)
(0 -3.8820206e-05 -8.8243855e-05)
(0 -3.5304135e-05 -9.9234929e-05)
(0 -3.1420669e-05 -0.000108632)
(0 -2.7022491e-05 -0.00011632456)
(0 -2.1942402e-05 -0.00012213911)
(0 -1.6184221e-05 -0.000125952)
(0 -9.9705427e-06 -0.00012767905)
(0 -3.6707965e-06 -0.00012720076)
(0 2.3709573e-06 -0.00012445048)
(0 7.8512835e-06 -0.00011915783)
(0 1.1993657e-05 -0.00011071869)
(0 1.4390772e-05 -9.7939912e-05)
(0 1.445939e-05 -7.8436941e-05)
(0 1.0162689e-05 -4.7744606e-05)
(0 0 0)
(0 -4.9221975e-05 8.5116368e-05)
(0 -5.8313686e-05 6.5285496e-05)
(0 -6.6061185e-05 4.4543591e-05)
(0 -7.2691316e-05 2.3196864e-05)
(0 -7.8459073e-05 1.546994e-06)
(0 -8.2716912e-05 -2.0018809e-05)
(0 -8.4898996e-05 -4.1157774e-05)
(0 -8.5250281e-05 -6.153246e-05)
(0 -8.3943727e-05 -8.0773233e-05)
(0 -8.1011114e-05 -9.8595356e-05)
(0 -7.6574074e-05 -0.00011472284)
(0 -7.0955865e-05 -0.00012894238)
(0 -6.4383956e-05 -0.00014107434)
(0 -5.6764904e-05 -0.00015095103)
(0 -4.8004122e-05 -0.00015837786)
(0 -3.8143842e-05 -0.00016317986)
(0 -2.7521063e-05 -0.00016527367)
(0 -1.6613987e-05 -0.00016458014)
(0 -5.8159784e-06 -0.00016097197)
(0 4.4578511e-06 -0.00015412592)
(0 1.3186556e-05 -0.00014335128)
(0 1.9477855e-05 -0.00012717929)
(0 2.1840244e-05 -0.00010253702)
(0 1.6491964e-05 -6.3378148e-05)
(0 0 0)
(0 -7.712128e-05 0.00011248527)
(0 -9.0666407e-05 8.64454e-05)
(0 -0.0001024641 5.9108533e-05)
(0 -0.00011258142 3.0914717e-05)
(0 -0.00012104092 2.3095336e-06)
(0 -0.00012724688 -2.6202738e-05)
(0 -0.00013078186 -5.4159019e-05)
(0 -0.00013184399 -8.1127877e-05)
(0 -0.0001305429 -0.00010665807)
(0 -0.00012690077 -0.00013034195)
(0 -0.00012104546 -0.00015179694)
(0 -0.00011323854 -0.00017070358)
(0 -0.00010368832 -0.00018679239)
(0 -9.2417736e-05 -0.0001998121)
(0 -7.9446437e-05 -0.00020953697)
(0 -6.4925098e-05 -0.00021576525)
(0 -4.9264767e-05 -0.0002183823)
(0 -3.2935735e-05 -0.00021730712)
(0 -1.6377182e-05 -0.00021237968)
(0 -1.4331218e-07 -0.00020328365)
(0 1.4544956e-05 -0.0001892935)
(0 2.6215917e-05 -0.00016870021)
(0 3.2251609e-05 -0.00013763002)
(0 2.6605907e-05 -8.7908482e-05)
(0 0 0)
(0 0.0001072771 -9.0167282e-05)
(0 0.00012499449 -6.9297821e-05)
(0 0.00014067283 -4.733293e-05)
(0 0.00015384047 -2.4699897e-05)
(0 0.00016406574 -1.7792469e-06)
(0 0.00017121336 2.1068624e-05)
(0 0.00017537564 4.3491691e-05)
(0 0.00017668924 6.5102005e-05)
(0 0.00017529563 8.5540754e-05)
(0 0.00017108415 0.00010451869)
(0 0.00016415076 0.0001217577)
(0 0.00015463619 0.00013699704)
(0 0.00014265835 0.00014998612)
(0 0.00012841061 0.00016048625)
(0 0.0001120762 0.00016831306)
(0 9.3908916e-05 0.00017332924)
(0 7.4234062e-05 0.00017544624)
(0 5.3438273e-05 0.00017459526)