/*--------------------------------*- C++ -*----------------------------------*\
| =========                 |                                                 |
| \\      /  F ield         | OpenFOAM: The Open Source CFD Toolbox           |
|  \\    /   O peration     | Version:  4.1                                   |
|   \\  /    A nd           | Web:      www.OpenFOAM.org                      |
|    \\/     M anipulation  |                                                 |
\*---------------------------------------------------------------------------*/
FoamFile
{
    version     2.0;
    format      ascii;
    class       pointVectorField;
    location    "0.0048";
    object      pointDisplacement_Next;
}
// * * * * * * * * * * * * * * * * * * * * * * * * * * * * * * * * * * * * * //

dimensions      [0 1 0 0 0 0 0];

internalField   uniform (0 0 0);

boundaryField
{
    inlet
    {
        type            fixedValue;
        value           uniform (0 0 0);
    }
    outlet
    {
        type            fixedValue;
        value           nonuniform 0();
    }
    mantle
    {
        type            fixedValue;
        value           nonuniform List<vector> 
416
(
(-2.2632e-13 3.1881e-12 3.9648e-18)
(-6.6928e-07 8.4663e-06 1.4411e-11)
(-6.8339e-07 8.17e-06 -1.5619e-06)
(1.8527e-09 3.0718e-08 -1.001e-09)
(-7.2457e-07 7.47e-06 -3.0614e-06)
(-4.185e-13 2.2471e-12 -8.7797e-13)
(-7.7868e-07 6.6453e-06 -4.4651e-06)
(-2.8632e-09 6.6392e-09 -1.9449e-08)
(-8.0648e-07 5.6767e-06 -5.6768e-06)
(-2.5615e-14 2.7995e-12 -2.7995e-12)
(-7.7872e-07 4.4651e-06 -6.6452e-06)
(-2.8643e-09 1.9442e-08 -6.6405e-09)
(-7.2463e-07 3.0614e-06 -7.4697e-06)
(-4.1846e-13 8.7806e-13 -2.2471e-12)
(-6.8344e-07 1.5619e-06 -8.1696e-06)
(1.8514e-09 1.003e-09 -3.0711e-08)
(-6.6931e-07 1.1396e-10 -8.4659e-06)
(-2.2633e-13 4.896e-17 -3.188e-12)
(-1.505e-06 1.5319e-05 1.7276e-11)
(-1.5249e-06 1.4731e-05 -2.8638e-06)
(-1.5852e-06 1.3455e-05 -5.5475e-06)
(-1.6762e-06 1.1896e-05 -7.9792e-06)
(-1.733e-06 1.0138e-05 -1.0138e-05)
(-1.6763e-06 7.979e-06 -1.1896e-05)
(-1.5854e-06 5.5474e-06 -1.3454e-05)
(-1.525e-06 2.8639e-06 -1.473e-05)
(-1.5051e-06 2.222e-10 -1.5318e-05)
(-2.5672e-06 1.7787e-05 -7.8021e-12)
(-2.5706e-06 1.7261e-05 -3.481e-06)
(-2.6003e-06 1.5844e-05 -6.6126e-06)
(-2.6662e-06 1.3817e-05 -9.2262e-06)
(-2.7063e-06 1.1557e-05 -1.1557e-05)
(-2.6663e-06 9.226e-06 -1.3816e-05)
(-2.6005e-06 6.6124e-06 -1.5843e-05)
(-2.5707e-06 3.4811e-06 -1.726e-05)
(-2.5673e-06 3.6225e-10 -1.7786e-05)
(-3.9175e-06 1.5276e-05 -3.2644e-11)
(-3.8939e-06 1.4911e-05 -3.1086e-06)
(-3.8625e-06 1.3713e-05 -5.8068e-06)
(-3.8746e-06 1.1742e-05 -7.813e-06)
(-3.8874e-06 9.6179e-06 -9.6177e-06)
(-3.8747e-06 7.8129e-06 -1.1742e-05)
(-3.8628e-06 5.8067e-06 -1.3711e-05)
(-3.8941e-06 3.1088e-06 -1.491e-05)
(-3.9175e-06 5.3989e-10 -1.5275e-05)
(-5.5792e-06 8.0244e-06 -4.1005e-11)
(-5.5386e-06 7.7232e-06 -1.606e-06)
(-5.4619e-06 6.9026e-06 -2.9144e-06)
(-5.4177e-06 5.7625e-06 -3.8315e-06)
(-5.4045e-06 4.6814e-06 -4.6811e-06)
(-5.4179e-06 3.8315e-06 -5.7616e-06)
(-5.4621e-06 2.9144e-06 -6.9013e-06)
(-5.5388e-06 1.6064e-06 -7.722e-06)
(-5.5792e-06 7.1484e-10 -8.0237e-06)
(-7.4705e-06 -3.8389e-06 -2.2481e-12)
(-7.4123e-06 -3.9941e-06 8.2238e-07)
(-7.3061e-06 -4.1014e-06 1.7155e-06)
(-7.2381e-06 -3.9271e-06 2.624e-06)
(-7.2165e-06 -3.3689e-06 3.3693e-06)
(-7.2383e-06 -2.624e-06 3.9282e-06)
(-7.3064e-06 -1.7154e-06 4.1029e-06)
(-7.4125e-06 -8.2185e-07 3.9954e-06)
(-7.4705e-06 8.6039e-10 3.8394e-06)
(-9.4243e-06 -1.9574e-05 3.3155e-11)
(-9.3346e-06 -1.9285e-05 3.8684e-06)
(-9.2016e-06 -1.8319e-05 7.6179e-06)
(-9.1707e-06 -1.6583e-05 1.1088e-05)
(-9.1898e-06 -1.4119e-05 1.412e-05)
(-9.171e-06 -1.1088e-05 1.6584e-05)
(-9.2019e-06 -7.6178e-06 1.8321e-05)
(-9.3349e-06 -3.8677e-06 1.9286e-05)
(-9.4246e-06 9.3479e-10 1.9575e-05)
(-1.1245e-05 -3.6766e-05 7.3183e-11)
(-1.113e-05 -3.5975e-05 7.1205e-06)
(-1.099e-05 -3.3815e-05 1.4011e-05)
(-1.1002e-05 -3.0443e-05 2.0384e-05)
(-1.1064e-05 -2.5952e-05 2.5952e-05)
(-1.1002e-05 -2.0384e-05 3.0445e-05)
(-1.0991e-05 -1.4011e-05 3.3817e-05)
(-1.113e-05 -7.1198e-06 3.5977e-05)
(-1.1245e-05 9.436e-10 3.6767e-05)
(-1.2901e-05 -5.2957e-05 2.4384e-10)
(-1.2837e-05 -5.178e-05 1.0221e-05)
(-1.2749e-05 -4.8553e-05 2.0086e-05)
(-1.2739e-05 -4.3662e-05 2.9223e-05)
(-1.2763e-05 -3.72e-05 3.72e-05)
(-1.274e-05 -2.9222e-05 4.3663e-05)
(-1.2749e-05 -2.0085e-05 4.8555e-05)
(-1.2837e-05 -1.022e-05 5.1782e-05)
(-1.2901e-05 6.9716e-10 5.2958e-05)
(-1.491e-05 -6.6885e-05 1.2217e-10)
(-1.4897e-05 -6.5354e-05 1.2906e-05)
(-1.4848e-05 -6.1247e-05 2.5355e-05)
(-1.4829e-05 -5.5054e-05 3.6858e-05)
(-1.4807e-05 -4.6925e-05 4.6925e-05)
(-1.4829e-05 -3.6858e-05 5.5055e-05)
(-1.4848e-05 -2.5354e-05 6.1249e-05)
(-1.4897e-05 -1.2905e-05 6.5355e-05)
(-1.491e-05 7.1945e-10 6.6886e-05)
(-1.7814e-05 -7.8211e-05 -5.1008e-12)
(-1.7785e-05 -7.6524e-05 1.518e-05)
(-1.7741e-05 -7.1777e-05 2.9753e-05)
(-1.774e-05 -6.4465e-05 4.3148e-05)
(-1.7751e-05 -5.4852e-05 5.4852e-05)
(-1.774e-05 -4.3148e-05 6.4466e-05)
(-1.7741e-05 -2.9753e-05 7.1778e-05)
(-1.7785e-05 -1.5179e-05 7.6525e-05)
(-1.7814e-05 7.0783e-10 7.8211e-05)
(-2.1688e-05 -8.8062e-05 1.0737e-10)
(-2.1641e-05 -8.625e-05 1.7163e-05)
(-2.1581e-05 -8.0957e-05 3.3592e-05)
(-2.1615e-05 -7.2669e-05 4.8617e-05)
(-2.1654e-05 -6.1744e-05 6.1745e-05)
(-2.1615e-05 -4.8617e-05 7.267e-05)
(-2.1581e-05 -3.3592e-05 8.0957e-05)
(-2.1641e-05 -1.7163e-05 8.625e-05)
(-2.1688e-05 4.1654e-10 8.8062e-05)
(-6.835e-07 -1.5617e-06 -8.1694e-06)
(1.8536e-09 -1.0043e-09 -3.0714e-08)
(-7.2477e-07 -3.061e-06 -7.4694e-06)
(-4.1854e-13 -8.7792e-13 -2.2471e-12)
(-7.7897e-07 -4.4646e-06 -6.6446e-06)
(-2.8659e-09 -1.9446e-08 -6.6345e-09)
(-8.0681e-07 -5.6761e-06 -5.6761e-06)
(-2.5757e-14 -2.7989e-12 -2.7989e-12)
(-7.7905e-07 -6.6446e-06 -4.4646e-06)
(-2.8658e-09 -6.6326e-09 -1.9442e-08)
(-7.2494e-07 -7.4693e-06 -3.061e-06)
(-4.186e-13 -2.2471e-12 -8.7792e-13)
(-6.8373e-07 -8.1694e-06 -1.5617e-06)
(1.8517e-09 -3.0714e-08 -1.0069e-09)
(-6.6959e-07 -8.4658e-06 1.1408e-10)
(-2.2644e-13 -3.1879e-12 5.2068e-17)
(-1.5251e-06 -2.8634e-06 -1.4729e-05)
(-1.5856e-06 -5.5468e-06 -1.3454e-05)
(-1.6767e-06 -7.9781e-06 -1.1895e-05)
(-1.7335e-06 -1.0137e-05 -1.0137e-05)
(-1.6769e-06 -1.1895e-05 -7.978e-06)
(-1.5859e-06 -1.3453e-05 -5.5468e-06)
(-1.5255e-06 -1.4729e-05 -2.8634e-06)
(-1.5056e-06 -1.5318e-05 1.9869e-10)
(-2.5708e-06 -3.4803e-06 -1.7259e-05)
(-2.6007e-06 -6.6115e-06 -1.5842e-05)
(-2.6667e-06 -9.2246e-06 -1.3815e-05)
(-2.7069e-06 -1.1555e-05 -1.1555e-05)
(-2.667e-06 -1.3814e-05 -9.2247e-06)
(-2.6011e-06 -1.5842e-05 -6.6115e-06)
(-2.5713e-06 -1.7259e-05 -3.4804e-06)
(-2.5679e-06 -1.7785e-05 2.7795e-10)
(-3.8941e-06 -3.1077e-06 -1.491e-05)
(-3.8629e-06 -5.8054e-06 -1.371e-05)
(-3.8751e-06 -7.8111e-06 -1.174e-05)
(-3.888e-06 -9.6155e-06 -9.6157e-06)
(-3.8754e-06 -1.1739e-05 -7.8113e-06)
(-3.8634e-06 -1.371e-05 -5.8057e-06)
(-3.8947e-06 -1.4909e-05 -3.108e-06)
(-3.9181e-06 -1.5275e-05 3.5611e-10)
(-5.5388e-06 -1.6049e-06 -7.7216e-06)
(-5.4622e-06 -2.9128e-06 -6.9004e-06)
(-5.4182e-06 -3.8294e-06 -5.7601e-06)
(-5.405e-06 -4.6788e-06 -4.6791e-06)
(-5.4184e-06 -5.7596e-06 -3.8298e-06)
(-5.4627e-06 -6.8999e-06 -2.9131e-06)
(-5.5394e-06 -7.7215e-06 -1.6053e-06)
(-5.58e-06 -8.024e-06 4.241e-10)
(-7.4125e-06 8.2352e-07 3.9955e-06)
(-7.3064e-06 1.7171e-06 4.1034e-06)
(-7.2385e-06 2.626e-06 3.9292e-06)
(-7.2169e-06 3.3713e-06 3.3708e-06)
(-7.2387e-06 3.9297e-06 2.6255e-06)
(-7.3069e-06 4.1036e-06 1.7166e-06)
(-7.4132e-06 3.9952e-06 8.23e-07)
(-7.4714e-06 3.8386e-06 4.794e-10)
(-9.3349e-06 3.8694e-06 1.9286e-05)
(-9.2019e-06 7.6192e-06 1.8321e-05)
(-9.171e-06 1.109e-05 1.6584e-05)
(-9.19e-06 1.4121e-05 1.4121e-05)
(-9.1712e-06 1.6585e-05 1.1089e-05)
(-9.2023e-06 1.8321e-05 7.6187e-06)
(-9.3355e-06 1.9286e-05 3.8688e-06)
(-9.4253e-06 1.9574e-05 4.9692e-10)
(-1.113e-05 7.1214e-06 3.5976e-05)
(-1.0991e-05 1.4012e-05 3.3816e-05)
(-1.1002e-05 2.0385e-05 3.0444e-05)
(-1.1065e-05 2.5953e-05 2.5952e-05)
(-1.1003e-05 3.0445e-05 2.0384e-05)
(-1.0991e-05 3.3816e-05 1.4012e-05)
(-1.1131e-05 3.5976e-05 7.1207e-06)
(-1.1246e-05 3.6766e-05 4.6237e-10)
(-1.2837e-05 1.0221e-05 5.1781e-05)
(-1.2749e-05 2.0086e-05 4.8553e-05)
(-1.274e-05 2.9223e-05 4.3662e-05)
(-1.2763e-05 3.7201e-05 3.72e-05)
(-1.274e-05 4.3663e-05 2.9222e-05)
(-1.2749e-05 4.8554e-05 2.0085e-05)
(-1.2837e-05 5.1781e-05 1.0221e-05)
(-1.2901e-05 5.2957e-05 5.4618e-10)
(-1.4897e-05 1.2907e-05 6.5354e-05)
(-1.4848e-05 2.5355e-05 6.1247e-05)
(-1.4829e-05 3.6858e-05 5.5053e-05)
(-1.4807e-05 4.6925e-05 4.6924e-05)
(-1.4829e-05 5.5054e-05 3.6858e-05)
(-1.4848e-05 6.1247e-05 2.5354e-05)
(-1.4897e-05 6.5354e-05 1.2906e-05)
(-1.4911e-05 6.6885e-05 2.9005e-10)
(-1.7785e-05 1.518e-05 7.6524e-05)
(-1.7741e-05 2.9753e-05 7.1777e-05)
(-1.774e-05 4.3148e-05 6.4464e-05)
(-1.7751e-05 5.4851e-05 5.485e-05)
(-1.774e-05 6.4464e-05 4.3147e-05)
(-1.7741e-05 7.1777e-05 2.9753e-05)
(-1.7785e-05 7.6524e-05 1.5179e-05)
(-1.7814e-05 7.8211e-05 2.7168e-10)
(-2.1641e-05 1.7163e-05 8.6249e-05)
(-2.1581e-05 3.3592e-05 8.0955e-05)
(-2.1615e-05 4.8616e-05 7.2668e-05)
(-2.1654e-05 6.1743e-05 6.1743e-05)
(-2.1615e-05 7.2668e-05 4.8615e-05)
(-2.1581e-05 8.0955e-05 3.3591e-05)
(-2.1641e-05 8.6249e-05 1.7163e-05)
(-2.1688e-05 8.8062e-05 2.1497e-11)
(-6.8377e-07 -8.1695e-06 1.5619e-06)
(1.8522e-09 -3.0715e-08 1.0038e-09)
(-7.25e-07 -7.4695e-06 3.0613e-06)
(-4.1861e-13 -2.2471e-12 8.7801e-13)
(-7.7915e-07 -6.6449e-06 4.465e-06)
(-2.8666e-09 -6.6371e-09 1.9447e-08)
(-8.0693e-07 -5.6764e-06 5.6766e-06)
(-2.5827e-14 -2.7991e-12 2.7993e-12)
(-7.791e-07 -4.4649e-06 6.6451e-06)
(-2.867e-09 -1.9446e-08 6.6353e-09)
(-7.249e-07 -3.0612e-06 7.4698e-06)
(-4.1861e-13 -8.7806e-13 2.2472e-12)
(-6.8362e-07 -1.5618e-06 8.1698e-06)
(1.8537e-09 -1.0047e-09 3.0714e-08)
(-6.6943e-07 -4.3493e-11 8.4663e-06)
(-2.2637e-13 -1.2951e-17 3.1881e-12)
(-1.5256e-06 -1.4729e-05 2.8639e-06)
(-1.586e-06 -1.3454e-05 5.5474e-06)
(-1.6771e-06 -1.1895e-05 7.9788e-06)
(-1.7338e-06 -1.0137e-05 1.0138e-05)
(-1.677e-06 -7.9785e-06 1.1896e-05)
(-1.5858e-06 -5.5471e-06 1.3454e-05)
(-1.5253e-06 -2.8637e-06 1.473e-05)
(-1.5053e-06 -5.8421e-11 1.5319e-05)
(-2.5714e-06 -1.7259e-05 3.481e-06)
(-2.6013e-06 -1.5843e-05 6.6123e-06)
(-2.6672e-06 -1.3815e-05 9.2256e-06)
(-2.7072e-06 -1.1556e-05 1.1556e-05)
(-2.667e-06 -9.2251e-06 1.3816e-05)
(-2.601e-06 -6.6118e-06 1.5843e-05)
(-2.5711e-06 -3.4807e-06 1.726e-05)
(-2.5675e-06 -4.3002e-12 1.7786e-05)
(-3.8948e-06 -1.491e-05 3.1087e-06)
(-3.8636e-06 -1.3711e-05 5.8066e-06)
(-3.8756e-06 -1.174e-05 7.8124e-06)
(-3.8883e-06 -9.6161e-06 9.6168e-06)
(-3.8754e-06 -7.8116e-06 1.1741e-05)
(-3.8633e-06 -5.8058e-06 1.3711e-05)
(-3.8944e-06 -3.1081e-06 1.491e-05)
(-3.9177e-06 8.0496e-11 1.5276e-05)
(-5.5396e-06 -7.7221e-06 1.6062e-06)
(-5.463e-06 -6.9008e-06 2.9143e-06)
(-5.4188e-06 -5.7604e-06 3.831e-06)
(-5.4054e-06 -4.6794e-06 4.6804e-06)
(-5.4186e-06 -3.8299e-06 5.7611e-06)
(-5.4626e-06 -2.9132e-06 6.9012e-06)
(-5.5391e-06 -1.6054e-06 7.7224e-06)
(-5.5795e-06 1.7844e-10 8.0243e-06)
(-7.4134e-06 3.9947e-06 -8.2195e-07)
(-7.3073e-06 4.1029e-06 -1.7153e-06)
(-7.2392e-06 3.929e-06 -2.6242e-06)
(-7.2175e-06 3.3707e-06 -3.3696e-06)
(-7.239e-06 2.6255e-06 -3.9283e-06)
(-7.3069e-06 1.7166e-06 -4.1026e-06)
(-7.4129e-06 8.2299e-07 -3.9947e-06)
(-7.4709e-06 2.7757e-10 -3.8387e-06)
(-9.3358e-06 1.9285e-05 -3.8677e-06)
(-9.2028e-06 1.832e-05 -7.6174e-06)
(-9.1719e-06 1.6584e-05 -1.1088e-05)
(-9.1907e-06 1.4121e-05 -1.412e-05)
(-9.1717e-06 1.1089e-05 -1.6583e-05)
(-9.2025e-06 7.6189e-06 -1.832e-05)
(-9.3354e-06 3.8689e-06 -1.9285e-05)
(-9.425e-06 3.6422e-10 -1.9574e-05)
(-1.1131e-05 3.5976e-05 -7.1197e-06)
(-1.0992e-05 3.3816e-05 -1.4011e-05)
(-1.1003e-05 3.0445e-05 -2.0383e-05)
(-1.1065e-05 2.5953e-05 -2.5952e-05)
(-1.1003e-05 2.0385e-05 -3.0444e-05)
(-1.0991e-05 1.4012e-05 -3.3816e-05)
(-1.1131e-05 7.121e-06 -3.5976e-05)
(-1.1246e-05 4.28e-10 -3.6766e-05)
(-1.2838e-05 5.1781e-05 -1.022e-05)
(-1.275e-05 4.8554e-05 -2.0085e-05)
(-1.2741e-05 4.3663e-05 -2.9222e-05)
(-1.2764e-05 3.7201e-05 -3.72e-05)
(-1.2741e-05 2.9223e-05 -4.3662e-05)
(-1.275e-05 2.0086e-05 -4.8553e-05)
(-1.2838e-05 1.0221e-05 -5.1781e-05)
(-1.2902e-05 3.1457e-10 -5.2957e-05)
(-1.4897e-05 6.5355e-05 -1.2905e-05)
(-1.4849e-05 6.1248e-05 -2.5354e-05)
(-1.483e-05 5.5055e-05 -3.6857e-05)
(-1.4808e-05 4.6926e-05 -4.6924e-05)
(-1.483e-05 3.6859e-05 -5.5054e-05)
(-1.4849e-05 2.5355e-05 -6.1247e-05)
(-1.4898e-05 1.2907e-05 -6.5354e-05)
(-1.4912e-05 4.6908e-10 -6.6886e-05)
(-1.7785e-05 7.6525e-05 -1.5179e-05)
(-1.7741e-05 7.1778e-05 -2.9753e-05)
(-1.7741e-05 6.4465e-05 -4.3147e-05)
(-1.7752e-05 5.4852e-05 -5.4851e-05)
(-1.7741e-05 4.3149e-05 -6.4464e-05)
(-1.7742e-05 2.9754e-05 -7.1777e-05)
(-1.7786e-05 1.518e-05 -7.6524e-05)
(-1.7815e-05 5.9228e-10 -7.8211e-05)
(-2.1641e-05 8.6249e-05 -1.7163e-05)
(-2.1581e-05 8.0956e-05 -3.3591e-05)
(-2.1616e-05 7.2669e-05 -4.8616e-05)
(-2.1655e-05 6.1744e-05 -6.1743e-05)
(-2.1616e-05 4.8617e-05 -7.2669e-05)
(-2.1582e-05 3.3592e-05 -8.0956e-05)
(-2.1642e-05 1.7163e-05 -8.625e-05)
(-2.1689e-05 4.3668e-10 -8.8063e-05)
(-6.8357e-07 1.5618e-06 8.1699e-06)
(1.8529e-09 1.0023e-09 3.0717e-08)
(-7.2481e-07 3.0612e-06 7.4698e-06)
(-4.1857e-13 8.7803e-13 2.2473e-12)
(-7.7896e-07 4.4649e-06 6.6451e-06)
(-2.8654e-09 1.9448e-08 6.6362e-09)
(-8.0676e-07 5.6765e-06 5.6765e-06)
(-2.5781e-14 2.7989e-12 2.7991e-12)
(-7.7895e-07 6.645e-06 4.4649e-06)
(-2.8664e-09 6.6354e-09 1.9444e-08)
(-7.2478e-07 7.4697e-06 3.0613e-06)
(-4.185e-13 2.2474e-12 8.7803e-13)
(-6.835e-07 8.1698e-06 1.5619e-06)
(1.8522e-09 3.0711e-08 1.006e-09)
(-1.5252e-06 2.8637e-06 1.473e-05)
(-1.5857e-06 5.5471e-06 1.3454e-05)
(-1.6767e-06 7.9785e-06 1.1896e-05)
(-1.7335e-06 1.0137e-05 1.0138e-05)
(-1.6767e-06 1.1895e-05 7.9786e-06)
(-1.5857e-06 1.3454e-05 5.5472e-06)
(-1.5251e-06 1.473e-05 2.8637e-06)
(-2.571e-06 3.4807e-06 1.726e-05)
(-2.6008e-06 6.612e-06 1.5843e-05)
(-2.6668e-06 9.2252e-06 1.3815e-05)
(-2.7069e-06 1.1556e-05 1.1556e-05)
(-2.6668e-06 1.3815e-05 9.2252e-06)
(-2.6009e-06 1.5843e-05 6.6119e-06)
(-2.5709e-06 1.726e-05 3.4808e-06)
(-3.8943e-06 3.1083e-06 1.491e-05)
(-3.8631e-06 5.8061e-06 1.3711e-05)
(-3.8752e-06 7.8117e-06 1.174e-05)
(-3.888e-06 9.6159e-06 9.6161e-06)
(-3.8753e-06 1.174e-05 7.8116e-06)
(-3.8631e-06 1.371e-05 5.8059e-06)
(-3.8943e-06 1.491e-05 3.1083e-06)
(-5.5391e-06 1.6058e-06 7.7222e-06)
(-5.4624e-06 2.9135e-06 6.9007e-06)
(-5.4183e-06 3.8299e-06 5.7602e-06)
(-5.4051e-06 4.679e-06 4.6792e-06)
(-5.4183e-06 5.7597e-06 3.8298e-06)
(-5.4624e-06 6.8999e-06 2.9133e-06)
(-5.5389e-06 7.7216e-06 1.6056e-06)
(-7.4128e-06 -8.2248e-07 -3.995e-06)
(-7.3067e-06 -1.7163e-06 -4.1033e-06)
(-7.2387e-06 -2.6256e-06 -3.9295e-06)
(-7.217e-06 -3.3713e-06 -3.3712e-06)
(-7.2386e-06 -3.9301e-06 -2.6258e-06)
(-7.3065e-06 -4.1042e-06 -1.7166e-06)
(-7.4126e-06 -3.9958e-06 -8.2271e-07)
(-9.3352e-06 -3.8683e-06 -1.9286e-05)
(-9.2022e-06 -7.6184e-06 -1.8321e-05)
(-9.1713e-06 -1.1089e-05 -1.6585e-05)
(-9.1901e-06 -1.4121e-05 -1.4121e-05)
(-9.1711e-06 -1.6585e-05 -1.109e-05)
(-9.2019e-06 -1.8322e-05 -7.6188e-06)
(-9.3348e-06 -1.9287e-05 -3.8686e-06)
(-1.1131e-05 -7.1202e-06 -3.5976e-05)
(-1.0991e-05 -1.4012e-05 -3.3817e-05)
(-1.1003e-05 -2.0385e-05 -3.0446e-05)
(-1.1065e-05 -2.5954e-05 -2.5954e-05)
(-1.1003e-05 -3.0446e-05 -2.0385e-05)
(-1.0991e-05 -3.3818e-05 -1.4012e-05)
(-1.113e-05 -3.5977e-05 -7.1206e-06)
(-1.2838e-05 -1.022e-05 -5.1782e-05)
(-1.2749e-05 -2.0086e-05 -4.8555e-05)
(-1.274e-05 -2.9223e-05 -4.3664e-05)
(-1.2763e-05 -3.7202e-05 -3.7202e-05)
(-1.274e-05 -4.3664e-05 -2.9224e-05)
(-1.2749e-05 -4.8555e-05 -2.0086e-05)
(-1.2837e-05 -5.1782e-05 -1.0221e-05)
(-1.4898e-05 -1.2906e-05 -6.5355e-05)
(-1.4849e-05 -2.5355e-05 -6.1249e-05)
(-1.483e-05 -3.6859e-05 -5.5056e-05)
(-1.4807e-05 -4.6927e-05 -4.6927e-05)
(-1.4829e-05 -5.5056e-05 -3.686e-05)
(-1.4848e-05 -6.1249e-05 -2.5355e-05)
(-1.4897e-05 -6.5355e-05 -1.2906e-05)
(-1.7786e-05 -1.5179e-05 -7.6525e-05)
(-1.7742e-05 -2.9753e-05 -7.1779e-05)
(-1.774e-05 -4.3149e-05 -6.4467e-05)
(-1.7751e-05 -5.4853e-05 -5.4853e-05)
(-1.774e-05 -6.4467e-05 -4.3149e-05)
(-1.7741e-05 -7.1779e-05 -2.9754e-05)
(-1.7785e-05 -7.6525e-05 -1.518e-05)
(-2.1642e-05 -1.7163e-05 -8.6251e-05)
(-2.1582e-05 -3.3592e-05 -8.0958e-05)
(-2.1616e-05 -4.8617e-05 -7.2671e-05)
(-2.1654e-05 -6.1745e-05 -6.1746e-05)
(-2.1615e-05 -7.2671e-05 -4.8618e-05)
(-2.1581e-05 -8.0958e-05 -3.3592e-05)
(-2.1641e-05 -8.625e-05 -1.7163e-05)
)
;
    }
    procBoundary0to1
    {
        type            processor;
    }
}


// ************************************************************************* //
