/*--------------------------------*- C++ -*----------------------------------*\
| =========                 |                                                 |
| \\      /  F ield         | foam-extend: Open Source CFD                    |
|  \\    /   O peration     | Version:     4.1-20200408                       |
|   \\  /    A nd           | Web:         http://www.foam-extend.org         |
|    \\/     M anipulation  |                                                 |
\*---------------------------------------------------------------------------*/
FoamFile
{
    version     2.0;
    format      ascii;
    class       volVectorField;
    location    "0.0795000";
    object      Velocity;
}
// * * * * * * * * * * * * * * * * * * * * * * * * * * * * * * * * * * * * * //

dimensions      [0 1 -1 0 0 0 0];

internalField   nonuniform List<vector> 
1952
(
(1.00001 -3.3076e-05 0)
(1.00001 -5.16519e-05 0)
(1.00001 -7.48344e-05 0)
(1.00001 -9.13272e-05 0)
(1.00002 -0.000115346 0)
(1.00002 -0.000129651 0)
(1.00003 -0.000153071 0)
(1.00003 -0.000164782 0)
(1.00004 -0.000186137 0)
(1.00005 -0.000194139 0)
(1.00007 -0.00021118 0)
(1.00009 -0.000213394 0)
(1.00013 -0.000222261 0)
(1.00019 -0.000215375 0)
(1.0003 -0.000207587 0)
(1.00001 -1.39543e-05 0)
(1.00002 -1.51808e-05 0)
(1.00002 -2.3824e-05 0)
(1.00002 -3.38118e-05 0)
(1.00003 -4.1165e-05 0)
(1.00003 -5.07327e-05 0)
(1.00004 -5.63586e-05 0)
(1.00005 -6.47445e-05 0)
(1.00005 -6.8164e-05 0)
(1.00007 -7.44923e-05 0)
(1.00008 -7.501e-05 0)
(1.0001 -7.86076e-05 0)
(1.00012 -7.57899e-05 0)
(1.00014 -7.62524e-05 0)
(1.00017 -7.09717e-05 0)
(1.0002 -7.1886e-05 0)
(1.00002 -6.43536e-06 0)
(1.00002 -1.03842e-05 0)
(1.00002 -1.65656e-05 0)
(1.00003 -2.28548e-05 0)
(1.00003 -2.80763e-05 0)
(1.00004 -3.35702e-05 0)
(1.00004 -3.72385e-05 0)
(1.00005 -4.13931e-05 0)
(1.00006 -4.29956e-05 0)
(1.00007 -4.51576e-05 0)
(1.00009 -4.42529e-05 0)
(1.0001 -4.43322e-05 0)
(1.00012 -4.11545e-05 0)
(1.00015 -3.97041e-05 0)
(1.00018 -3.5727e-05 0)
(1.00021 -3.54253e-05 0)
(1.00002 -4.44477e-06 0)
(1.00003 -6.24964e-06 0)
(1.00003 -9.91575e-06 0)
(1.00004 -1.34684e-05 0)
(1.00004 -1.63111e-05 0)
(1.00005 -1.90269e-05 0)
(1.00005 -2.04932e-05 0)
(1.00006 -2.19452e-05 0)
(1.00007 -2.16276e-05 0)
(1.00008 -2.14466e-05 0)
(1.0001 -1.91897e-05 0)
(1.00012 -1.75366e-05 0)
(1.00013 -1.38811e-05 0)
(1.00016 -1.18392e-05 0)
(1.00018 -8.63827e-06 0)
(1.0002 -9.4393e-06 0)
(1.00003 -2.67979e-06 0)
(1.00004 -2.7977e-06 0)
(1.00004 -4.34188e-06 0)
(1.00005 -5.71288e-06 0)
(1.00005 -6.53836e-06 0)
(1.00006 -7.15664e-06 0)
(1.00006 -6.82598e-06 0)
(1.00007 -6.40696e-06 0)
(1.00008 -4.67899e-06 0)
(1.0001 -3.09045e-06 0)
(1.00011 -7.10042e-08 0)
(1.00013 2.29264e-06 0)
(1.00014 5.84702e-06 0)
(1.00016 7.83816e-06 0)
(1.00018 1.03399e-05 0)
(1.0002 9.8604e-06 0)
(1.00004 -1.20417e-06 0)
(1.00006 -3.6581e-09 0)
(1.00006 1.7384e-07 0)
(1.00006 5.09009e-07 0)
(1.00007 1.30416e-06 0)
(1.00007 2.24071e-06 0)
(1.00008 3.96351e-06 0)
(1.00009 5.66425e-06 0)
(1.0001 8.40953e-06 0)
(1.00011 1.0845e-05 0)
(1.00012 1.43447e-05 0)
(1.00014 1.704e-05 0)
(1.00015 2.04936e-05 0)
(1.00017 2.23787e-05 0)
(1.00018 2.44481e-05 0)
(1.0002 2.39511e-05 0)
(1.00005 -6.84891e-09 0)
(1.00007 2.17794e-06 0)
(1.00007 3.69277e-06 0)
(1.00008 5.32616e-06 0)
(1.00008 7.35466e-06 0)
(1.00009 9.41459e-06 0)
(1.00009 1.21449e-05 0)
(1.0001 1.46865e-05 0)
(1.00011 1.8093e-05 0)
(1.00013 2.09851e-05 0)
(1.00014 2.47062e-05 0)
(1.00015 2.74686e-05 0)
(1.00016 3.07501e-05 0)
(1.00018 3.25193e-05 0)
(1.00019 3.43657e-05 0)
(1.0002 3.41626e-05 0)
(1.00007 9.28952e-07 0)
(1.00009 3.80524e-06 0)
(1.00009 6.3114e-06 0)
(1.00009 8.89075e-06 0)
(1.0001 1.18119e-05 0)
(1.0001 1.46489e-05 0)
(1.00011 1.80739e-05 0)
(1.00012 2.11425e-05 0)
(1.00013 2.49638e-05 0)
(1.00014 2.80851e-05 0)
(1.00015 3.19065e-05 0)
(1.00016 3.46514e-05 0)
(1.00017 3.78083e-05 0)
(1.00018 3.95184e-05 0)
(1.00019 4.12827e-05 0)
(1.0002 4.13529e-05 0)
(1.00009 1.62772e-06 0)
(1.0001 4.95076e-06 0)
(1.00011 8.14973e-06 0)
(1.00011 1.13772e-05 0)
(1.00011 1.49048e-05 0)
(1.00012 1.82407e-05 0)
(1.00013 2.21115e-05 0)
(1.00014 2.5473e-05 0)
(1.00014 2.95285e-05 0)
(1.00015 3.27266e-05 0)
(1.00016 3.6572e-05 0)
(1.00017 3.92559e-05 0)
(1.00018 4.23301e-05 0)
(1.00019 4.40372e-05 0)
(1.0002 4.5834e-05 0)
(1.00021 4.62391e-05 0)
(1.0001 2.12009e-06 0)
(1.00012 5.68716e-06 0)
(1.00012 9.32775e-06 0)
(1.00013 1.29567e-05 0)
(1.00013 1.68583e-05 0)
(1.00014 2.04744e-05 0)
(1.00014 2.4602e-05 0)
(1.00015 2.80888e-05 0)
(1.00016 3.22596e-05 0)
(1.00017 3.54438e-05 0)
(1.00018 3.92845e-05 0)
(1.00019 4.19032e-05 0)
(1.00019 4.49482e-05 0)
(1.0002 4.66996e-05 0)
(1.00021 4.86012e-05 0)
(1.00021 4.93398e-05 0)
(1.00012 2.43707e-06 0)
(1.00014 6.08475e-06 0)
(1.00014 9.96062e-06 0)
(1.00014 1.37905e-05 0)
(1.00015 1.78808e-05 0)
(1.00015 2.16059e-05 0)
(1.00016 2.5849e-05 0)
(1.00017 2.93381e-05 0)
(1.00017 3.35446e-05 0)
(1.00018 3.66565e-05 0)
(1.00019 4.04831e-05 0)
(1.0002 4.30419e-05 0)
(1.0002 4.61034e-05 0)
(1.00021 4.7936e-05 0)
(1.00021 4.99952e-05 0)
(1.00022 5.10714e-05 0)
(1.00014 2.60867e-06 0)
(1.00016 6.20662e-06 0)
(1.00016 1.01512e-05 0)
(1.00016 1.40217e-05 0)
(1.00016 1.81558e-05 0)
(1.00017 2.18578e-05 0)
(1.00017 2.61124e-05 0)
(1.00018 2.95151e-05 0)
(1.00019 3.37071e-05 0)
(1.0002 3.67107e-05 0)
(1.0002 4.05275e-05 0)
(1.00021 4.30369e-05 0)
(1.00021 4.61545e-05 0)
(1.00022 4.80941e-05 0)
(1.00022 5.03449e-05 0)
(1.00023 5.17498e-05 0)
(1.00016 2.66193e-06 0)
(1.00017 6.1076e-06 0)
(1.00017 9.98827e-06 0)
(1.00018 1.37726e-05 0)
(1.00018 1.78386e-05 0)
(1.00019 2.14153e-05 0)
(1.00019 2.56063e-05 0)
(1.0002 2.88566e-05 0)
(1.0002 3.30032e-05 0)
(1.00021 3.58745e-05 0)
(1.00021 3.96912e-05 0)
(1.00022 4.21609e-05 0)
(1.00022 4.53668e-05 0)
(1.00023 4.74314e-05 0)
(1.00023 4.98975e-05 0)
(1.00023 5.16222e-05 0)
(1.00017 2.62034e-06 0)
(1.00019 5.8336e-06 0)
(1.00019 9.54603e-06 0)
(1.00019 1.31446e-05 0)
(1.00019 1.70568e-05 0)
(1.0002 2.04297e-05 0)
(1.0002 2.4503e-05 0)
(1.00021 2.75518e-05 0)
(1.00021 3.16349e-05 0)
(1.00022 3.43571e-05 0)
(1.00023 3.81861e-05 0)
(1.00023 4.0624e-05 0)
(1.00024 4.39445e-05 0)
(1.00024 4.61463e-05 0)
(1.00024 4.88441e-05 0)
(1.00024 5.0879e-05 0)
(1.00019 2.50359e-06 0)
(1.0002 5.42241e-06 0)
(1.0002 8.88526e-06 0)
(1.00021 1.22203e-05 0)
(1.00021 1.59141e-05 0)
(1.00021 1.90215e-05 0)
(1.00022 2.29391e-05 0)
(1.00022 2.57479e-05 0)
(1.00023 2.97583e-05 0)
(1.00023 3.23179e-05 0)
(1.00024 3.61723e-05 0)
(1.00024 3.85836e-05 0)
(1.00025 4.20402e-05 0)
(1.00025 4.43879e-05 0)
(1.00025 4.73301e-05 0)
(1.00025 4.96683e-05 0)
(1.0002 2.3279e-06 0)
(1.00021 4.90457e-06 0)
(1.00022 8.05484e-06 0)
(1.00022 1.10659e-05 0)
(1.00022 1.44923e-05 0)
(1.00023 1.72859e-05 0)
(1.00023 2.10212e-05 0)
(1.00024 2.35589e-05 0)
(1.00024 2.74927e-05 0)
(1.00025 2.98778e-05 0)
(1.00025 3.37705e-05 0)
(1.00025 3.61582e-05 0)
(1.00026 3.97692e-05 0)
(1.00026 4.22698e-05 0)
(1.00026 4.54677e-05 0)
(1.00026 4.81064e-05 0)
(1.00021 2.10639e-06 0)
(1.00023 4.30528e-06 0)
(1.00023 7.09508e-06 0)
(1.00023 9.73528e-06 0)
(1.00023 1.28586e-05 0)
(1.00024 1.52994e-05 0)
(1.00024 1.8835e-05 0)
(1.00025 2.10746e-05 0)
(1.00025 2.49322e-05 0)
(1.00026 2.71308e-05 0)
(1.00026 3.10743e-05 0)
(1.00027 3.34393e-05 0)
(1.00027 3.7221e-05 0)
(1.00027 3.98811e-05 0)
(1.00027 4.3346e-05 0)
(1.00027 4.62876e-05 0)
(1.00023 1.84987e-06 0)
(1.00024 3.64583e-06 0)
(1.00024 6.03978e-06 0)
(1.00024 8.27366e-06 0)
(1.00024 1.10685e-05 0)
(1.00025 1.31249e-05 0)
(1.00025 1.64502e-05 0)
(1.00026 1.8368e-05 0)
(1.00026 2.21526e-05 0)
(1.00027 2.4152e-05 0)
(1.00027 2.81585e-05 0)
(1.00028 3.04999e-05 0)
(1.00028 3.44674e-05 0)
(1.00028 3.72943e-05 0)
(1.00028 4.10392e-05 0)
(1.00029 4.42922e-05 0)
(1.00024 1.5675e-06 0)
(1.00025 2.94599e-06 0)
(1.00025 4.92045e-06 0)
(1.00025 6.72276e-06 0)
(1.00025 9.17353e-06 0)
(1.00026 1.08204e-05 0)
(1.00026 1.39313e-05 0)
(1.00027 1.55053e-05 0)
(1.00027 1.92228e-05 0)
(1.00028 2.10093e-05 0)
(1.00028 2.50908e-05 0)
(1.00029 2.74064e-05 0)
(1.00029 3.15742e-05 0)
(1.0003 3.45765e-05 0)
(1.0003 3.86163e-05 0)
(1.0003 4.21957e-05 0)
(1.00025 1.26775e-06 0)
(1.00026 2.22575e-06 0)
(1.00026 3.76874e-06 0)
(1.00026 5.12454e-06 0)
(1.00026 7.22538e-06 0)
(1.00027 8.44353e-06 0)
(1.00027 1.13423e-05 0)
(1.00028 1.25525e-05 0)
(1.00028 1.62114e-05 0)
(1.00029 1.77703e-05 0)
(1.0003 2.19389e-05 0)
(1.0003 2.42249e-05 0)
(1.00031 2.86077e-05 0)
(1.00031 3.17955e-05 0)
(1.00031 3.61478e-05 0)
(1.00031 4.00758e-05 0)
(1.00025 9.59218e-07 0)
(1.00026 1.50815e-06 0)
(1.00026 2.62141e-06 0)
(1.00027 3.52761e-06 0)
(1.00027 5.28413e-06 0)
(1.00028 6.0618e-06 0)
(1.00028 8.75822e-06 0)
(1.00029 9.5873e-06 0)
(1.00029 1.31995e-05 0)
(1.0003 1.45152e-05 0)
(1.00031 1.87834e-05 0)
(1.00031 2.10347e-05 0)
(1.00032 2.56464e-05 0)
(1.00032 2.90315e-05 0)
(1.00032 3.37159e-05 0)
(1.00032 3.80219e-05 0)
(1.00026 6.51797e-07 0)
(1.00027 8.2151e-07 0)
(1.00027 1.52337e-06 0)
(1.00027 1.99172e-06 0)
(1.00028 3.42348e-06 0)
(1.00028 3.75828e-06 0)
(1.00029 6.27178e-06 0)
(1.0003 6.70569e-06 0)
(1.0003 1.02879e-05 0)
(1.00031 1.13438e-05 0)
(1.00032 1.57251e-05 0)
(1.00032 1.79346e-05 0)
(1.00033 2.27895e-05 0)
(1.00033 2.63841e-05 0)
(1.00034 3.14225e-05 0)
(1.00034 3.61428e-05 0)
(1.00027 3.57626e-07 0)
(1.00027 2.02814e-07 0)
(1.00027 5.3371e-07 0)
(1.00028 5.95473e-07 0)
(1.00028 1.74082e-06 0)
(1.00029 1.64349e-06 0)
(1.00029 4.00628e-06 0)
(1.0003 4.03713e-06 0)
(1.00031 7.61204e-06 0)
(1.00032 8.39211e-06 0)
(1.00033 1.29006e-05 0)
(1.00034 1.50593e-05 0)
(1.00034 2.01696e-05 0)
(1.00035 2.39864e-05 0)
(1.00035 2.94009e-05 0)
(1.00035 3.45779e-05 0)
(1.00027 9.25896e-08 0)
(1.00027 -2.99309e-07 0)
(1.00028 -2.70112e-07 0)
(1.00028 -5.57525e-07 0)
(1.00028 3.64147e-07 0)
(1.00029 -1.36586e-07 0)
(1.0003 2.12461e-06 0)
(1.00031 1.75294e-06 0)
(1.00032 5.35208e-06 0)
(1.00033 5.84037e-06 0)
(1.00034 1.04923e-05 0)
(1.00035 1.25872e-05 0)
(1.00036 1.79638e-05 0)
(1.00036 2.20133e-05 0)
(1.00037 2.78258e-05 0)
(1.00037 3.35072e-05 0)
(1.00027 -1.22461e-07 0)
(1.00027 -6.203e-07 0)
(1.00028 -7.84812e-07 0)
(1.00028 -1.32906e-06 0)
(1.00029 -5.35193e-07 0)
(1.0003 -1.38559e-06 0)
(1.0003 8.46178e-07 0)
(1.00032 8.56887e-08 0)
(1.00033 3.75204e-06 0)
(1.00034 3.93493e-06 0)
(1.00035 8.74781e-06 0)
(1.00036 1.07619e-05 0)
(1.00037 1.64112e-05 0)
(1.00038 2.07001e-05 0)
(1.00038 2.69286e-05 0)
(1.00039 3.31655e-05 0)
(1.00027 -2.5981e-07 0)
(1.00027 -6.7544e-07 0)
(1.00028 -8.75134e-07 0)
(1.00028 -1.53737e-06 0)
(1.00029 -7.32558e-07 0)
(1.0003 -1.845e-06 0)
(1.00031 4.59424e-07 0)
(1.00032 -6.58275e-07 0)
(1.00033 3.13388e-06 0)
(1.00035 3.00028e-06 0)
(1.00036 7.99458e-06 0)
(1.00037 9.90382e-06 0)
(1.00038 1.58268e-05 0)
(1.00039 2.03544e-05 0)
(1.0004 2.7011e-05 0)
(1.00041 3.38556e-05 0)
(1.00027 -2.83118e-07 0)
(1.00027 -3.54524e-07 0)
(1.00027 -3.64538e-07 0)
(1.00028 -9.45096e-07 0)
(1.00029 6.63699e-08 0)
(1.0003 -1.17506e-06 0)
(1.00031 1.34425e-06 0)
(1.00032 -7.34855e-08 0)
(1.00034 3.92372e-06 0)
(1.00035 3.46809e-06 0)
(1.00037 8.66692e-06 0)
(1.00038 1.04388e-05 0)
(1.0004 1.6627e-05 0)
(1.00041 2.13809e-05 0)
(1.00042 2.84663e-05 0)
(1.00043 3.5968e-05 0)
(1.00027 -1.45077e-07 0)
(1.00027 4.83993e-07 0)
(1.00027 9.73397e-07 0)
(1.00028 7.53205e-07 0)
(1.00029 2.23936e-06 0)
(1.0003 1.06191e-06 0)
(1.00031 3.98926e-06 0)
(1.00033 2.36264e-06 0)
(1.00034 6.67094e-06 0)
(1.00036 5.89458e-06 0)
(1.00038 1.13255e-05 0)
(1.00039 1.29147e-05 0)
(1.00041 1.9348e-05 0)
(1.00043 2.42981e-05 0)
(1.00044 3.17967e-05 0)
(1.00045 3.99979e-05 0)
(1.00027 2.15044e-07 0)
(1.00027 2.01928e-06 0)
(1.00027 3.42608e-06 0)
(1.00028 3.94572e-06 0)
(1.00028 6.26807e-06 0)
(1.0003 5.42571e-06 0)
(1.00031 9.02124e-06 0)
(1.00033 7.32325e-06 0)
(1.00035 1.20844e-05 0)
(1.00037 1.10002e-05 0)
(1.00039 1.66959e-05 0)
(1.00041 1.80418e-05 0)
(1.00043 2.46818e-05 0)
(1.00045 2.9773e-05 0)
(1.00046 3.76446e-05 0)
(1.00048 4.65733e-05 0)
(1.00026 8.74157e-07 0)
(1.00026 4.47573e-06 0)
(1.00027 7.35322e-06 0)
(1.00028 9.11972e-06 0)
(1.00028 1.27563e-05 0)
(1.0003 1.26205e-05 0)
(1.00031 1.72281e-05 0)
(1.00033 1.56566e-05 0)
(1.00035 2.10581e-05 0)
(1.00037 1.96937e-05 0)
(1.0004 2.56951e-05 0)
(1.00042 2.67152e-05 0)
(1.00044 3.35018e-05 0)
(1.00047 3.86438e-05 0)
(1.00049 4.68143e-05 0)
(1.00051 5.64767e-05 0)
(1.00026 1.92856e-06 0)
(1.00026 8.12905e-06 0)
(1.00026 1.3198e-05 0)
(1.00027 1.68769e-05 0)
(1.00028 2.24521e-05 0)
(1.0003 2.35225e-05 0)
(1.00031 2.95944e-05 0)
(1.00033 2.84282e-05 0)
(1.00035 3.47183e-05 0)
(1.00038 3.31252e-05 0)
(1.0004 3.94847e-05 0)
(1.00043 4.00711e-05 0)
(1.00046 4.69141e-05 0)
(1.00049 5.19688e-05 0)
(1.00051 6.03175e-05 0)
(1.00054 7.06857e-05 0)
(1.00026 3.4966e-06 0)
(1.00026 1.33147e-05 0)
(1.00026 2.14997e-05 0)
(1.00028 2.79521e-05 0)
(1.00028 3.62696e-05 0)
(1.0003 3.92067e-05 0)
(1.00031 4.73292e-05 0)
(1.00033 4.69512e-05 0)
(1.00035 5.44566e-05 0)
(1.00038 5.27189e-05 0)
(1.00041 5.95074e-05 0)
(1.00044 5.95188e-05 0)
(1.00048 6.62927e-05 0)
(1.00051 7.10583e-05 0)
(1.00054 7.94018e-05 0)
(1.00057 9.04007e-05 0)
(1.00026 5.72225e-06 0)
(1.00027 2.04308e-05 0)
(1.00027 3.29002e-05 0)
(1.00028 4.32229e-05 0)
(1.00028 5.53051e-05 0)
(1.0003 6.09711e-05 0)
(1.00031 7.19006e-05 0)
(1.00033 7.28325e-05 0)
(1.00036 8.19853e-05 0)
(1.00038 8.02382e-05 0)
(1.00042 8.75559e-05 0)
(1.00045 8.68154e-05 0)
(1.00049 9.33514e-05 0)
(1.00053 9.7542e-05 0)
(1.00057 0.000105615 0)
(1.00061 0.000117102 0)
(1.00026 8.77636e-06 0)
(1.00028 2.99437e-05 0)
(1.00028 4.81525e-05 0)
(1.00029 6.37239e-05 0)
(1.00029 8.08554e-05 0)
(1.00031 9.03595e-05 0)
(1.00032 0.000105064 0)
(1.00034 0.000108005 0)
(1.00036 0.000119376 0)
(1.00039 0.000117829 0)
(1.00043 0.000125824 0)
(1.00046 0.000124116 0)
(1.00051 0.000130198 0)
(1.00055 0.000133419 0)
(1.0006 0.00014085 0)
(1.00065 0.000152592 0)
(1.00028 1.2859e-05 0)
(1.0003 4.23804e-05 0)
(1.0003 6.8111e-05 0)
(1.00031 9.06367e-05 0)
(1.0003 0.00011441 0)
(1.00032 0.000129165 0)
(1.00032 0.000148873 0)
(1.00035 0.000154761 0)
(1.00037 0.000169107 0)
(1.00039 0.000168086 0)
(1.00043 0.000176988 0)
(1.00047 0.000174063 0)
(1.00053 0.00017943 0)
(1.00058 0.000181152 0)
(1.00064 0.000187434 0)
(1.00069 0.000199075 0)
(1.0003 1.81964e-05 0)
(1.00034 5.83233e-05 0)
(1.00033 9.3723e-05 0)
(1.00034 0.00012528 0)
(1.00033 0.000157645 0)
(1.00034 0.000179425 0)
(1.00034 0.000205691 0)
(1.00036 0.000215765 0)
(1.00038 0.000234098 0)
(1.0004 0.000234105 0)
(1.00044 0.000244275 0)
(1.00048 0.000239876 0)
(1.00054 0.000244237 0)
(1.0006 0.000243762 0)
(1.00067 0.000248221 0)
(1.00074 0.000259244 0)
(1.00034 2.50382e-05 0)
(1.00039 7.83786e-05 0)
(1.00038 0.000125981 0)
(1.00038 0.000169054 0)
(1.00037 0.000212357 0)
(1.00038 0.000243362 0)
(1.00037 0.000278129 0)
(1.00038 0.000294027 0)
(1.00039 0.000317701 0)
(1.00041 0.000319509 0)
(1.00045 0.000331528 0)
(1.00049 0.000325434 0)
(1.00056 0.000328508 0)
(1.00062 0.000324945 0)
(1.00071 0.000326713 0)
(1.00079 0.000336379 0)
(1.00039 3.36443e-05 0)
(1.00047 0.000103141 0)
(1.00045 0.000165866 0)
(1.00045 0.000223361 0)
(1.00043 0.00028038 0)
(1.00043 0.000323296 0)
(1.00041 0.000368979 0)
(1.00041 0.000392849 0)
(1.00041 0.00042368 0)
(1.00042 0.000428478 0)
(1.00046 0.000443275 0)
(1.0005 0.000435409 0)
(1.00057 0.000436994 0)
(1.00064 0.000429232 0)
(1.00074 0.000427191 0)
(1.00085 0.000434437 0)
(1.00047 4.42691e-05 0)
(1.00058 0.000133121 0)
(1.00055 0.000214236 0)
(1.00055 0.000289461 0)
(1.00051 0.000363405 0)
(1.0005 0.000421449 0)
(1.00047 0.000481004 0)
(1.00045 0.000515632 0)
(1.00044 0.000556062 0)
(1.00044 0.000565651 0)
(1.00047 0.000584736 0)
(1.0005 0.00057535 0)
(1.00058 0.000575522 0)
(1.00066 0.000562261 0)
(1.00078 0.000555049 0)
(1.0009 0.000558369 0)
(1.00058 5.71311e-05 0)
(1.00073 0.00016865 0)
(1.00069 0.000271665 0)
(1.00068 0.000368261 0)
(1.00063 0.000462722 0)
(1.0006 0.000539655 0)
(1.00055 0.000616636 0)
(1.00052 0.000665603 0)
(1.00049 0.000718894 0)
(1.00047 0.000736012 0)
(1.00049 0.000761805 0)
(1.00051 0.000751892 0)
(1.00059 0.000751388 0)
(1.00067 0.000731411 0)
(1.00081 0.000717662 0)
(1.00096 0.000715088 0)
(1.00073 7.23705e-05 0)
(1.00092 0.000209752 0)
(1.00088 0.000338246 0)
(1.00085 0.000460022 0)
(1.00078 0.000578861 0)
(1.00074 0.000678911 0)
(1.00067 0.000777467 0)
(1.00061 0.000845229 0)
(1.00056 0.000915657 0)
(1.00052 0.000944277 0)
(1.00051 0.00098056 0)
(1.00052 0.000972359 0)
(1.00059 0.000973189 0)
(1.00067 0.000945839 0)
(1.00083 0.000924762 0)
(1.00101 0.000913888 0)
(1.00093 8.99958e-05 0)
(1.00117 0.000255966 0)
(1.00112 0.000413288 0)
(1.00108 0.000563958 0)
(1.00099 0.000711051 0)
(1.00092 0.000838758 0)
(1.00082 0.000963517 0)
(1.00074 0.00105547 0)
(1.00066 0.00114845 0)
(1.00058 0.00119418 0)
(1.00055 0.00124653 0)
(1.00053 0.00124413 0)
(1.00059 0.00124998 0)
(1.00067 0.0012153 0)
(1.00084 0.00118631 0)
(1.00106 0.00116309 0)
(1.00118 0.000109807 0)
(1.00148 0.000306186 0)
(1.00142 0.000495056 0)
(1.00136 0.000677822 0)
(1.00125 0.000856693 0)
(1.00116 0.00101653 0)
(1.00103 0.00117234 0)
(1.00091 0.00129468 0)
(1.00079 0.00141684 0)
(1.00068 0.00148735 0)
(1.00061 0.001564 0)
(1.00055 0.00157461 0)
(1.00058 0.00159234 0)
(1.00065 0.0015521 0)
(1.00083 0.00151377 0)
(1.00109 0.00146939 0)
(1.0015 0.000131327 0)
(1.00187 0.000358434 0)
(1.00179 0.000580373 0)
(1.00172 0.000797347 0)
(1.00159 0.00101053 0)
(1.00147 0.00120633 0)
(1.0013 0.00139764 0)
(1.00115 0.00155694 0)
(1.00098 0.00171594 0)
(1.00082 0.00182149 0)
(1.00069 0.00193487 0)
(1.00058 0.00197235 0)
(1.00057 0.00201837 0)
(1.00061 0.00198554 0)
(1.0008 0.00194674 0)
(1.00111 0.00187644 0)
(1.00189 0.000153705 0)
(1.00233 0.000409772 0)
(1.00224 0.000664461 0)
(1.00215 0.000915919 0)
(1.002 0.00116416 0)
(1.00185 0.00139807 0)
(1.00164 0.00162778 0)
(1.00145 0.00182959 0)
(1.00122 0.00203253 0)
(1.00101 0.00218459 0)
(1.00083 0.00235057 0)
(1.00065 0.00243704 0)
(1.00058 0.00254438 0)
(1.00056 0.00256007 0)
(1.00072 0.0025756 0)
(1.00108 0.00253059 0)
(1.00235 0.000175679 0)
(1.00288 0.000456242 0)
(1.00277 0.00074082 0)
(1.00267 0.00102438 0)
(1.00248 0.00130562 0)
(1.0023 0.00157682 0)
(1.00206 0.00184452 0)
(1.00182 0.00209092 0)
(1.00155 0.0023406 0)
(1.00129 0.00254633 0)
(1.00104 0.00277542 0)
(1.0008 0.00292864 0)
(1.00066 0.00312884 0)
(1.00057 0.00324086 0)
(1.00068 0.00339712 0)
(1.00102 0.00349734 0)
(1.0029 0.000195555 0)
(1.0035 0.00049311 0)
(1.00338 0.000801636 0)
(1.00326 0.00111163 0)
(1.00305 0.00142024 0)
(1.00284 0.00172391 0)
(1.00256 0.00202445 0)
(1.00228 0.00231175 0)
(1.00196 0.00260293 0)
(1.00164 0.00285884 0)
(1.00133 0.00314405 0)
(1.00103 0.00335538 0)
(1.00083 0.00363531 0)
(1.00066 0.00381929 0)
(1.0007 0.00408609 0)
(1.00094 0.00429254 0)
(1.00352 0.000211308 0)
(1.00419 0.000515171 0)
(1.00405 0.000838335 0)
(1.00392 0.00116547 0)
(1.00369 0.00149201 0)
(1.00345 0.0018191 0)
(1.00314 0.00214271 0)
(1.00282 0.00246196 0)
(1.00244 0.002783 0)
(1.00207 0.00307827 0)
(1.00168 0.00340164 0)
(1.00131 0.00364862 0)
(1.00103 0.00397223 0)
(1.00077 0.00416551 0)
(1.00071 0.00445217 0)
(1.00081 0.00463607 0)
(1.00422 0.000220711 0)
(1.00493 0.000517091 0)
(1.00479 0.000842144 0)
(1.00464 0.00117351 0)
(1.00439 0.0015048 0)
(1.00412 0.00184233 0)
(1.00377 0.00217535 0)
(1.00341 0.0025138 0)
(1.00298 0.00284973 0)
(1.00254 0.00317219 0)
(1.00208 0.00351571 0)
(1.00162 0.00378422 0)
(1.00123 0.00413069 0)
(1.00084 0.00430268 0)
(1.00067 0.00459693 0)
(1.00063 0.00473291 0)
(1.00496 0.000221481 0)
(1.00571 0.000493821 0)
(1.00556 0.000804763 0)
(1.00539 0.00112393 0)
(1.00512 0.00144333 0)
(1.00483 0.00177456 0)
(1.00445 0.00209993 0)
(1.00404 0.00244125 0)
(1.00356 0.00277445 0)
(1.00306 0.00311051 0)
(1.0025 0.00345596 0)
(1.00194 0.00373906 0)
(1.00142 0.00409074 0)
(1.00087 0.00422997 0)
(1.00057 0.00455908 0)
(1.00038 0.00460993 0)
(1.00575 0.000211461 0)
(1.0065 0.000440977 0)
(1.00634 0.000718935 0)
(1.00616 0.0010063 0)
(1.00587 0.0012937 0)
(1.00556 0.00159796 0)
(1.00514 0.00189452 0)
(1.0047 0.00221741 0)
(1.00416 0.00252592 0)
(1.0036 0.00285742 0)
(1.00295 0.00318404 0)
(1.00227 0.00347832 0)
(1.00157 0.00381559 0)
(1.00086 0.00395117 0)
(1.00042 0.00433263 0)
(0.999956 0.00423123 0)
(1.00654 0.000188774 0)
(1.00727 0.000354785 0)
(1.0071 0.0005783 0)
(1.00691 0.000811063 0)
(1.00661 0.00104252 0)
(1.00627 0.00129401 0)
(1.00583 0.00153428 0)
(1.00534 0.00180865 0)
(1.00476 0.00206268 0)
(1.00413 0.00236277 0)
(1.00339 0.00264632 0)
(1.00259 0.00294595 0)
(1.00171 0.00325848 0)
(1.00082 0.00346917 0)
(1.00013 0.00383735 0)
(0.999205 0.00343585 0)
(1.00731 0.000151811 0)
(1.00799 0.000231051 0)
(1.00781 0.000375404 0)
(1.0076 0.000527207 0)
(1.00729 0.00067572 0)
(1.00692 0.000846461 0)
(1.00645 0.00100201 0)
(1.00592 0.00119858 0)
(1.0053 0.00137299 0)
(1.00462 0.00161612 0)
(1.0038 0.00183693 0)
(1.00291 0.00212959 0)
(1.00189 0.00239803 0)
(1.0008 0.00261746 0)
(0.999498 0.00274027 0)
(0.99784 0.00191472 0)
(1.00804 9.88431e-05 0)
(1.00862 7.03018e-05 0)
(1.00842 0.000112466 0)
(1.0082 0.000160811 0)
(1.00786 0.000206443 0)
(1.00747 0.000280561 0)
(1.00698 0.000343175 0)
(1.00642 0.000463069 0)
(1.00579 0.000555868 0)
(1.0051 0.000702699 0)
(1.00426 0.000782278 0)
(1.00326 0.000937746 0)
(1.00195 0.000965623 0)
(1.00046 0.000819257 0)
(0.998316 0.000385516 0)
(0.995714 -0.000822259 0)
(1.00867 3.0168e-05 0)
(1.00911 -0.000106488 0)
(1.0089 -0.000168461 0)
(1.00868 -0.00022488 0)
(1.00835 -0.000289778 0)
(1.00797 -0.000333516 0)
(1.00749 -0.000402982 0)
(1.00691 -0.000427371 0)
(1.00618 -0.000531322 0)
(1.00535 -0.000659771 0)
(1.00434 -0.000962949 0)
(1.00312 -0.00129722 0)
(1.00141 -0.00188003 0)
(0.999319 -0.0026 0)
(0.996408 -0.00360428 0)
(0.992932 -0.00504369 0)
(1.00916 -4.59016e-05 0)
(1.00957 -0.000309404 0)
(1.00935 -0.000498175 0)
(1.00909 -0.000701697 0)
(1.00869 -0.000948798 0)
(1.00822 -0.00122803 0)
(1.00763 -0.00160051 0)
(1.00691 -0.00202825 0)
(1.00597 -0.0026134 0)
(1.00485 -0.00326735 0)
(1.0035 -0.00415747 0)
(1.00188 -0.00511419 0)
(0.999784 -0.00634232 0)
(0.997224 -0.00757601 0)
(0.993763 -0.00904726 0)
(0.989643 -0.0105955 0)
(1.00962 -0.000133258 0)
(1.00968 -0.000677141 0)
(1.0094 -0.00113677 0)
(1.009 -0.00165607 0)
(1.00844 -0.00226638 0)
(1.00773 -0.00296946 0)
(1.00688 -0.00382434 0)
(1.00585 -0.00480041 0)
(1.00462 -0.00596594 0)
(1.00318 -0.00721251 0)
(1.0015 -0.00868852 0)
(0.999533 -0.0101876 0)
(0.99711 -0.0119257 0)
(0.994197 -0.0135381 0)
(0.990412 -0.0153445 0)
(0.985935 -0.0168919 0)
(1.00976 -0.00028926 0)
(1.00887 -0.00134862 0)
(1.00844 -0.0022558 0)
(1.00785 -0.00325343 0)
(1.00706 -0.00437298 0)
(1.00609 -0.00561198 0)
(1.00493 -0.00701567 0)
(1.00359 -0.0085444 0)
(1.00207 -0.0102515 0)
(1.00033 -0.0120228 0)
(0.998373 -0.0139813 0)
(0.996128 -0.0158979 0)
(0.993494 -0.017997 0)
(0.990386 -0.01984 0)
(0.986517 -0.0218068 0)
(0.981997 -0.0232189 0)
(1.009 -0.000574919 0)
(1.00668 -0.00228506 0)
(1.00612 -0.00377611 0)
(1.00535 -0.00535747 0)
(1.00433 -0.00705254 0)
(1.00311 -0.00885172 0)
(1.00169 -0.010784 0)
(1.00009 -0.0128085 0)
(0.998322 -0.0149675 0)
(0.996363 -0.0171493 0)
(0.994218 -0.0194578 0)
(0.991815 -0.0216565 0)
(0.989109 -0.0239694 0)
(0.985988 -0.025916 0)
(0.982271 -0.0279151 0)
(0.977989 -0.0291389 0)
(1.00687 -0.000975292 0)
(1.00284 -0.00334541 0)
(1.0022 -0.00547862 0)
(1.00131 -0.00767678 0)
(1.00014 -0.00994368 0)
(0.99875 -0.0122659 0)
(0.997166 -0.0146587 0)
(0.995404 -0.0170872 0)
(0.993499 -0.019585 0)
(0.991424 -0.0220548 0)
(0.98921 -0.0245862 0)
(0.986778 -0.0269519 0)
(0.984141 -0.0293663 0)
(0.981169 -0.0313376 0)
(0.977793 -0.0333076 0)
(0.973967 -0.0343634 0)
(1.00308 -0.00143022 0)
(0.997365 -0.00435817 0)
(0.996706 -0.00709405 0)
(0.995772 -0.00985796 0)
(0.994567 -0.0126297 0)
(0.993133 -0.0153947 0)
(0.991509 -0.0181569 0)
(0.989712 -0.0208924 0)
(0.987788 -0.0236271 0)
(0.985715 -0.0262842 0)
(0.983546 -0.0289414 0)
(0.981206 -0.0313936 0)
(0.978759 -0.0338388 0)
(0.97607 -0.0357998 0)
(0.973176 -0.0377212 0)
(0.969972 -0.0386544 0)
(0.997616 -0.00186608 0)
(0.990483 -0.00516625 0)
(0.98987 -0.00837958 0)
(0.98899 -0.0115882 0)
(0.987853 -0.0147496 0)
(0.986494 -0.0178499 0)
(0.98495 -0.0208821 0)
(0.983239 -0.0238345 0)
(0.98141 -0.0267242 0)
(0.979448 -0.0294969 0)
(0.977425 -0.0322167 0)
(0.975277 -0.0347095 0)
(0.973116 -0.0371499 0)
(0.970813 -0.0390961 0)
(0.968504 -0.0409753 0)
(0.96604 -0.0418442 0)
(0.990726 -0.0022147 0)
(0.982629 -0.005662 0)
(0.982105 -0.00916946 0)
(0.981344 -0.0126547 0)
(0.980353 -0.0160596 0)
(0.979156 -0.0193712 0)
(0.977782 -0.0225719 0)
(0.976246 -0.0256595 0)
(0.974599 -0.0286396 0)
(0.972832 -0.031479 0)
(0.971033 -0.0342237 0)
(0.969153 -0.0367358 0)
(0.967348 -0.0391586 0)
(0.965503 -0.0411028 0)
(0.963847 -0.0429591 0)
(0.962201 -0.0438277 0)
(0.982842 -0.00242889 0)
(0.974321 -0.00580149 0)
(0.973901 -0.00939587 0)
(0.973285 -0.01297 0)
(0.972472 -0.0164585 0)
(0.971476 -0.0198501 0)
(0.970318 -0.0231168 0)
(0.969007 -0.0262615 0)
(0.967593 -0.0292757 0)
(0.966073 -0.032143 0)
(0.964546 -0.0348878 0)
(0.962983 -0.0374088 0)
(0.961578 -0.0398119 0)
(0.960236 -0.0417733 0)
(0.95927 -0.043629 0)
(0.958481 -0.0445574 0)
(0.974493 -0.00248922 0)
(0.966063 -0.00560428 0)
(0.965737 -0.00908789 0)
(0.965253 -0.0125693 0)
(0.964609 -0.0159842 0)
(0.963808 -0.0193247 0)
(0.962866 -0.0225533 0)
(0.961787 -0.0256752 0)
(0.960618 -0.028666 0)
(0.959363 -0.0315216 0)
(0.958127 -0.0342416 0)
(0.956904 -0.0367604 0)
(0.955915 -0.0391422 0)
(0.955096 -0.0411375 0)
(0.954826 -0.043012 0)
(0.954896 -0.0440542 0)
(0.966196 -0.00240409 0)
(0.958278 -0.00514224 0)
(0.958016 -0.00835479 0)
(0.957628 -0.0115901 0)
(0.957109 -0.0147911 0)
(0.956463 -0.0179558 0)
(0.955701 -0.0210413 0)
(0.954828 -0.0240548 0)
(0.953884 -0.0269568 0)
(0.952883 -0.0297518 0)
(0.951928 -0.032414 0)
(0.951042 -0.0349104 0)
(0.950461 -0.0372611 0)
(0.950159 -0.0392966 0)
(0.950563 -0.0411972 0)
(0.951454 -0.0423901 0)
(0.958383 -0.00220484 0)
(0.951253 -0.00451886 0)
(0.951021 -0.00735609 0)
(0.950684 -0.0102363 0)
(0.950238 -0.0131129 0)
(0.949688 -0.0159918 0)
(0.949051 -0.0188313 0)
(0.948332 -0.021644 0)
(0.94757 -0.0243809 0)
(0.946787 -0.0270538 0)
(0.946085 -0.0296125 0)
(0.945512 -0.0320535 0)
(0.945309 -0.0343524 0)
(0.945495 -0.0364204 0)
(0.946523 -0.0383423 0)
(0.948161 -0.0397076 0)
(0.951342 -0.00193653 0)
(0.945128 -0.00384214 0)
(0.944902 -0.00626175 0)
(0.94458 -0.00873154 0)
(0.94416 -0.0112148 0)
(0.943655 -0.0137247 0)
(0.943084 -0.016227 0)
(0.94246 -0.0187452 0)
(0.941822 -0.0212301 0)
(0.941206 -0.0237044 0)
(0.940708 -0.0260992 0)
(0.940406 -0.0284366 0)
(0.940534 -0.0306509 0)
(0.941164 -0.0327286 0)
(0.94274 -0.0346539 0)
(0.945013 -0.036194 0)
(0.945211 -0.00164588 0)
(0.939913 -0.00319894 0)
(0.939683 -0.00521281 0)
(0.939359 -0.00727 0)
(0.938942 -0.00934054 0)
(0.93845 -0.0114406 0)
(0.937902 -0.0135441 0)
(0.93732 -0.0156873 0)
(0.936745 -0.0178307 0)
(0.936236 -0.0200159 0)
(0.935884 -0.0221685 0)
(0.935799 -0.0243361 0)
(0.9362 -0.0264186 0)
(0.937215 -0.0284685 0)
(0.939241 -0.0303728 0)
(0.942006 -0.032079 0)
(0.939996 -0.00137016 0)
(0.935526 -0.00264017 0)
(0.935293 -0.00429553 0)
(0.93497 -0.0059783 0)
(0.934556 -0.00766281 0)
(0.934073 -0.00936274 0)
(0.933535 -0.011056 0)
(0.932969 -0.0127841 0)
(0.932415 -0.0145162 0)
(0.931956 -0.01632 0)
(0.931685 -0.0181344 0)
(0.93175 -0.02004 0)
(0.932352 -0.0219199 0)
(0.933675 -0.0238849 0)
(0.936025 -0.0257433 0)
(0.939121 -0.0276108 0)
(0.935609 -0.00113099 0)
(0.931851 -0.00217966 0)
(0.931628 -0.00353619 0)
(0.93132 -0.00490098 0)
(0.930924 -0.00625278 0)
(0.930469 -0.00760157 0)
(0.929959 -0.00892841 0)
(0.929418 -0.0102703 0)
(0.928874 -0.0115818 0)
(0.92843 -0.012943 0)
(0.928182 -0.0143179 0)
(0.928322 -0.0158363 0)
(0.929035 -0.0174038 0)
(0.930551 -0.0191969 0)
(0.933058 -0.020976 0)
(0.93631 -0.0229979 0)
(0.931929 -0.000934141 0)
(0.928773 -0.00180649 0)
(0.928576 -0.00292127 0)
(0.9283 -0.00402662 0)
(0.92794 -0.00510592 0)
(0.927523 -0.00616673 0)
(0.927047 -0.0072014 0)
(0.926546 -0.00824212 0)
(0.92604 -0.00920655 0)
(0.925633 -0.010145 0)
(0.925408 -0.0110317 0)
(0.925584 -0.012046 0)
(0.926308 -0.0131589 0)
(0.927848 -0.0146461 0)
(0.930292 -0.0162728 0)
(0.933508 -0.0184001 0)
(0.928842 -0.000774707 0)
(0.926082 -0.00151137 0)
(0.925916 -0.00244221 0)
(0.925679 -0.00335467 0)
(0.925358 -0.00423406 0)
(0.924975 -0.00507698 0)
(0.924532 -0.00588155 0)
(0.924111 -0.0066608 0)
(0.923824 -0.00737113 0)
(0.923677 -0.00803046 0)
(0.923662 -0.00857292 0)
(0.923894 -0.00916101 0)
(0.924431 -0.00974082 0)
(0.925676 -0.0107076 0)
(0.927771 -0.0119747 0)
(0.930721 -0.0140354 0)
(0.926139 -0.000648233 0)
(0.923907 -0.00127157 0)
(0.923812 -0.00206332 0)
(0.923679 -0.00284511 0)
(0.923504 -0.00360261 0)
(0.923303 -0.00431767 0)
(0.923093 -0.00496942 0)
(0.922948 -0.00553519 0)
(0.9229 -0.00604592 0)
(0.922946 -0.006573 0)
(0.92307 -0.00699401 0)
(0.923336 -0.00742281 0)
(0.923751 -0.00765252 0)
(0.924521 -0.00806845 0)
(0.925801 -0.00867002 0)
(0.928191 -0.0103126 0)
(0.923942 -0.000544815 0)
(0.922815 -0.00105222 0)
(0.922772 -0.00170909 0)
(0.922717 -0.0023648 0)
(0.922656 -0.00300656 0)
(0.9226 -0.00362536 0)
(0.922562 -0.00419653 0)
(0.922555 -0.00472303 0)
(0.922538 -0.00516636 0)
(0.922609 -0.0055917 0)
(0.922773 -0.00591156 0)
(0.923116 -0.00624137 0)
(0.92357 -0.00640168 0)
(0.924161 -0.00667733 0)
(0.924824 -0.00671806 0)
(0.926315 -0.00763599 0)
(0.922831 -0.000451104 0)
(0.922223 -0.00091218 0)
(0.922183 -0.00147489 0)
(0.922131 -0.00203094 0)
(0.922074 -0.00256389 0)
(0.922024 -0.00307252 0)
(0.921996 -0.00353628 0)
(0.922021 -0.00397272 0)
(0.922089 -0.00434092 0)
(0.922245 -0.00468092 0)
(0.922471 -0.00493124 0)
(0.922843 -0.00519173 0)
(0.923287 -0.00534161 0)
(0.923922 -0.00559384 0)
(0.924504 -0.00561968 0)
(0.925302 -0.00601362 0)
(0.922238 -0.000391282 0)
(0.921613 -0.000775433 0)
(0.921601 -0.00125206 0)
(0.921586 -0.00172091 0)
(0.921581 -0.00216641 0)