/*--------------------------------*- C++ -*----------------------------------*\
  =========                 |
  \\      /  F ield         | OpenFOAM: The Open Source CFD Toolbox
   \\    /   O peration     | Website:  https://openfoam.org
    \\  /    A nd           | Version:  8
     \\/     M anipulation  |
\*---------------------------------------------------------------------------*/
FoamFile
{
    version     2.0;
    format      ascii;
    class       volVectorField;
    location    "0.0535000";
    object      U;
}
// * * * * * * * * * * * * * * * * * * * * * * * * * * * * * * * * * * * * * //

dimensions      [0 1 -1 0 0 0 0];

internalField   nonuniform List<vector> 
900
(
(0.732121104319931 0.000360629566490417 -6.35396197438204e-19)
(0.732660123534852 0.000207724322000573 1.62832716856721e-18)
(0.732677068197191 0.000165388427275869 -7.87409218606523e-18)
(0.732790588982856 0.000188627217419011 -1.46965368324218e-19)
(0.732765136222869 0.000196043123909276 2.26703046664806e-18)
(0.732699241525267 0.000201978801956238 5.90908649225712e-18)
(0.732617089497054 0.000206358430423748 1.25254185993564e-17)
(0.732531417050067 0.00020942123461264 -3.06635896211575e-17)
(0.732444077799 0.000211884126670989 -2.61553810417473e-17)
(0.732355511699048 0.000214443134056982 -5.53412565511059e-18)
(0.73226640486654 0.000217343434775467 -2.35740582482898e-17)
(0.732176259748336 0.00021955200234779 5.62763260406768e-19)
(0.732083899297527 0.000221562235406128 6.45806465547669e-18)
(0.731989417542394 0.000223800750787903 1.16995586020816e-17)
(0.731893461927678 0.000226181517738696 8.0067839804929e-18)
(0.731795656731499 0.000228072973127536 8.16507644649647e-18)
(0.731695164860023 0.000229883516376476 4.80047728522615e-17)
(0.731592545944114 0.000232024983224325 3.35248506047623e-17)
(0.731488038045645 0.000234186220129633 -4.25914390092553e-17)
(0.731381003976812 0.000235972356935657 2.61248250137082e-17)
(0.73127112949792 0.000237777508511135 8.0009718893664e-18)
(0.731158925713412 0.000240060316492641 -4.96850005984521e-18)
(0.73104458278743 0.0002421839345006 -2.29128804274208e-17)
(0.730927419392871 0.000244039628402204 -4.84207476517474e-17)
(0.730807012776038 0.000246053140474236 -4.40101254389184e-17)
(0.730684258203417 0.000248758050820743 -6.22852708513798e-17)
(0.730559226171627 0.000251058356555399 -2.1880353756767e-17)
(0.730430900229678 0.000253159868892449 1.70895048006076e-17)
(0.73029920458153 0.000255591439078736 -4.25860728177351e-17)
(0.730165238755167 0.000258901325500226 -3.19392976307944e-17)
(0.730029005227821 0.000261573290435112 -1.486509014011e-17)
(0.729889545237178 0.000264223912210638 5.14995841171967e-17)
(0.729747089321823 0.000267648762461331 2.21741790202941e-17)
(0.729602785496597 0.000271952287795371 1.02100720163191e-16)
(0.729456387225463 0.000275587139883696 4.25115061762664e-17)
(0.729307119617061 0.000279438948232647 8.13701423183496e-17)
(0.729156032028898 0.000284844758774798 -4.70765231107638e-18)
(0.729004635588635 0.00029092680410009 2.82407460299742e-17)
(0.728852325965363 0.000296404755528958 -4.07593779846242e-17)
(0.728698581163505 0.00030263031324639 3.23691858118281e-17)
(0.728545744815959 0.000312083594655288 1.04547704710388e-16)
(0.728395597863282 0.000321505113145026 8.46729581093689e-17)
(0.728247105215941 0.000330419972476594 3.09620620884544e-17)
(0.728101020256801 0.000341132396754764 1.82083573099161e-17)
(0.727961820985694 0.000358646753460161 6.18808139793808e-18)
(0.7278313284633 0.000373729118647127 -9.60263731133907e-17)
(0.727709074071756 0.000389222894317352 -4.66107795161966e-17)
(0.727598413218773 0.000409665675664368 -3.70192949199461e-17)
(0.727506008295724 0.000439057163113979 -4.9737694373148e-17)
(0.727434171323748 0.000464690249569267 1.56506108160792e-17)
(0.727385505631104 0.000492242039775437 -3.023386141483e-17)
(0.727367567283731 0.000531507825005631 7.82525114186517e-17)
(0.727389091023198 0.000579919598516853 1.29550439666186e-19)
(0.727454964085196 0.000623231307638165 -1.56899610639273e-17)
(0.727577305473344 0.000671632731108831 -5.24953568112646e-17)
(0.727768311204286 0.000746126158860031 6.73731382106139e-17)
(0.728040094517135 0.000822738458829783 2.42778103021281e-17)
(0.728405745367304 0.000893606815954045 -1.90482659395389e-17)
(0.728892691279472 0.000975121227366178 -7.39797069198474e-17)
(0.729532662513483 0.00111286852825934 5.95070610096098e-17)
(0.730341421370593 0.00123099735928727 1.09660293415984e-16)
(0.731409173378167 0.0013674796045473 -2.02872840123764e-17)
(0.732959290664758 0.00157400043410861 1.32964189743854e-16)
(0.735311288800345 0.00195912708190729 1.33996980924878e-16)
(0.738587519758798 0.00231178221333353 -2.68114850132144e-17)
(0.742869906191683 0.00268973018944654 -1.18265433097925e-16)
(0.748116652850828 0.00323386876386658 -4.82879294669317e-17)
(0.75420274504772 0.00372425277526018 6.80630361863249e-17)
(0.761230017869961 0.00402358601560185 -4.46051424521958e-17)
(0.769359451420187 0.00426721264832074 -4.09569461481019e-17)
(0.778429781108732 0.0046008441896017 6.46528321577652e-17)
(0.788447769978864 0.00465039896955357 1.33398365953097e-16)
(0.799533174282963 0.00459014906049891 9.92520064079755e-17)
(0.811505087265955 0.00448252609538981 1.04265594624543e-17)
(0.824228189102835 0.00424958455941877 1.12219130293931e-16)
(0.837766689136356 0.00388640036847131 -3.05557672084161e-17)
(0.851843753454986 0.00348268880115693 9.85863646445476e-17)
(0.866626301087875 0.00296477012413616 -4.62298091166809e-17)
(0.881721938502287 0.0024368408332192 -6.35858082313038e-18)
(0.89775046683921 0.00189637792288768 -2.7591229598171e-17)
(0.913588929409781 0.00138603953221393 -2.14610533383317e-18)
(0.931248251258216 0.000804403993279682 3.85969438403623e-18)
(0.947798762696532 0.000437345253274931 -3.32444860727191e-17)
(0.968552024023142 -5.55702022922239e-05 -7.02255682691201e-17)
(0.985645670782648 -0.00013461364045998 -2.73931354579133e-17)
(1.0122592378847 -0.000490518961225504 2.64471086554372e-17)
(1.02273783553876 6.85254494750241e-05 3.14688528990957e-18)
(1.01955683736968 -1.68998522618768e-05 2.01335145679016e-17)
(1.02390023419752 0.000170124359913454 -2.73802694128059e-17)
(1.02280272342907 9.84649274230523e-05 6.24358323725477e-18)
(1.02449874896812 0.000159596622524092 -7.85615548566623e-18)
(1.02389254171744 0.000171210851470518 2.74713075594966e-17)
(1.02407184959479 0.000171889267255779 1.30846098586318e-17)
(1.0234354031207 0.000158027464673824 1.17061278895844e-18)
(1.02304258874923 0.000164786949233609 9.07563009454739e-18)
(1.02227660043853 0.000145321879486291 5.72889027477851e-19)
(1.02164151470545 0.00013517068148403 1.22530691518073e-17)
(1.02085243339294 0.000127174974059768 -3.3129476804772e-18)
(1.02018336381953 0.000117754808810535 -2.5228120421316e-18)
(1.01912278155433 0.000274044730969282 5.48632607620155e-20)
(0.375450037251398 0.00188769489617171 -2.264616294426e-18)
(0.377341861736164 0.00201134668275513 -9.93825544914445e-19)
(0.377518281080512 0.00207386473515525 -1.78010078226524e-17)
(0.377715362642297 0.00220499002778263 -5.64288255336757e-18)
(0.37758383148898 0.00228336901712358 2.0201591975074e-19)
(0.377343928624906 0.00232282257573767 1.81940511102075e-17)
(0.377058959553138 0.00234316110613984 2.51385554615224e-17)
(0.376760733293366 0.00235496467701114 -7.01739709510225e-18)
(0.37645645957044 0.00236405134659182 -7.61845639986326e-18)
(0.376147826141243 0.00237300829711197 -1.01311889150938e-17)
(0.375835697313493 0.00238263846035658 -1.21650304475089e-17)
(0.375519170029354 0.00239120553241324 1.42974030569685e-17)
(0.375196554787112 0.00239950552236397 1.97497632626176e-17)
(0.374867773071993 0.00240822716364774 3.84939147402842e-17)
(0.374533443803671 0.00241725671528027 2.35273599241774e-17)
(0.374192863495416 0.00242549976836112 2.12062956832679e-17)
(0.37384491725983 0.00243366841490977 8.94039766850724e-17)
(0.373489933334044 0.00244249218640995 3.23904048183761e-17)
(0.373128209401639 0.0024514425992106 -4.08378032393195e-17)
(0.372758806080419 0.00245983705556677 9.33062070224493e-17)
(0.372380956264989 0.00246837475984615 2.35419920270654e-17)
(0.371995134523283 0.00247789109194266 -1.38696682773465e-17)
(0.371601462608475 0.00248725632175052 -7.03420322714094e-17)
(0.371198789614334 0.00249628695853782 -9.62149496085837e-17)
(0.37078642422588 0.00250576280453185 -1.35585496145365e-16)
(0.370365254500525 0.0025166805670408 -8.73220521583048e-17)
(0.369935185240637 0.00252702768360707 -6.20535241279493e-17)
(0.369494649943421 0.00253718972954644 -4.26724912783332e-17)
(0.369043248731133 0.00254817606529887 -1.28866554201263e-16)
(0.368582240148935 0.00256103306849743 -9.59111788558627e-17)
(0.368111291707334 0.00257293175867429 -4.57484808644078e-17)
(0.367628719082298 0.00258503355159949 6.52312165509902e-17)
(0.367134681377779 0.00259890530806776 5.75447399173829e-17)
(0.366630716405259 0.00261476606946006 1.14452807773631e-16)
(0.366116115738933 0.00262967319231749 1.07740355579427e-16)
(0.365589377736752 0.00264534724806456 2.4195899737565e-16)
(0.365051869584611 0.0026644455630234 1.30884494564747e-16)
(0.364505709009638 0.00268529092808105 9.48715679237995e-17)
(0.363949693317032 0.00270539334848563 2.83523234332844e-17)
(0.363382891549043 0.00272751580619598 9.62064781503982e-17)
(0.36280918191708 0.00275656289071748 1.60171314024184e-16)
(0.362231614782069 0.00278616946730371 9.83952985653662e-17)
(0.361648219129623 0.00281529837172846 7.61396201742264e-17)
(0.36105992220522 0.00284895246072216 5.50161476358464e-17)
(0.360476023087217 0.00289691540297283 2.24293454394874e-17)
(0.359900607080038 0.00294096717977132 -1.51990109570645e-16)
(0.359331830979057 0.00298641649590414 3.77528789675171e-18)
(0.358776107860908 0.00304327988473827 -1.1002190181088e-16)
(0.358249786148166 0.00311920888659916 -1.5076519981712e-16)
(0.357759057819442 0.00318872043620668 4.84220478003324e-17)
(0.357306602230804 0.00326306743135867 1.3023956578591e-16)
(0.356910780078232 0.00336314695237805 9.43922947548845e-17)
(0.356598217378597 0.00348324563813436 -4.41490597180016e-18)
(0.356380263623232 0.00359391130908005 -4.58884733612614e-17)
(0.356273035504606 0.00371704513212804 -9.58986430640685e-18)
(0.356320193381619 0.00389536466297641 2.09541780600672e-16)
(0.356563601574398 0.0040800948649032 7.18543464120562e-17)
(0.35702692748969 0.00425224010085031 -5.63991489798113e-17)
(0.357753750807508 0.00445158258850168 -2.25992488093538e-16)
(0.358850233841858 0.0047660478684643 1.79245947137475e-16)
(0.360389767530936 0.00504665193959128 2.33877669791099e-16)
(0.362498648112865 0.00536537948082053 2.41310120089524e-17)
(0.365486002636769 0.00585270964892758 3.38111628254764e-16)
(0.369888369906101 0.00671087711540683 2.37047386551638e-16)
(0.376053819100484 0.00751533929040589 5.51553818635089e-17)
(0.384252526264049 0.00837560633515256 -2.67815423597914e-16)
(0.394822555785112 0.00956491785014867 -1.35796070895772e-16)
(0.407960986834599 0.0106166838078277 4.45806504819085e-17)
(0.423712960279084 0.0112286088786254 -1.48332131958989e-16)
(0.442154151814521 0.0117008113871163 -9.20795629952526e-17)
(0.463319231200627 0.0122841345188709 2.02665643817363e-16)
(0.487161762863011 0.0122509303848437 2.4575479108365e-16)
(0.5134850785488 0.011926304204544 2.97718681228923e-16)
(0.542095654570667 0.0114542591410984 3.02637440201499e-17)
(0.572677663183509 0.0106773487926069 2.11879792203255e-16)
(0.605209393631522 0.00959408203624276 -2.04654203674406e-16)
(0.639049324669932 0.00838340442999417 2.10422512518182e-16)
(0.674580368042394 0.00691373852244528 -1.35955963880712e-16)
(0.710688610641696 0.00541173896988841 1.3617303760985e-17)
(0.749013765458099 0.00386332721815435 -8.49309090655843e-17)
(0.786795682857509 0.00237444446609547 -8.44868518139836e-18)
(0.828833966141636 0.000723729393806787 1.44395289744547e-17)
(0.867921485631745 -0.000448595929832376 -9.41420447067643e-17)
(0.917168852272009 -0.00191882680941153 -1.07535493642462e-16)
(0.957244500550333 -0.00250786041166476 -1.38513648306476e-16)
(1.02090119719395 -0.00337696739506294 7.70634704493405e-17)
(1.04442712941447 -0.000185882649236994 9.10110220878154e-18)
(1.03382395081675 -0.00029304338603129 6.00316874630777e-17)
(1.04224645625916 0.000108353312049776 -7.48207700886496e-17)
(1.03742630892303 3.43110059884831e-05 1.89690161382694e-17)
(1.03970725971011 0.000186775627167303 1.75269074392094e-17)
(1.03684861709519 0.000229333493939646 6.29977190251911e-17)
(1.03637809124574 0.000265889452534471 3.90636629600841e-17)
(1.03401428511772 0.000259732685652398 -1.73493148747007e-17)
(1.03248475112185 0.000287502227146663 1.10358878492757e-17)
(1.03017736156306 0.000269278233999223 1.65712768291933e-17)
(1.02824669982141 0.000262805566568893 1.6367332185986e-17)
(1.02600410308948 0.000254785944908638 -5.13513105082313e-19)
(1.02415217588889 0.000250291181705684 -2.86086737396506e-18)
(1.02213046416753 0.00041828428058524 1.48005520885891e-18)
(0.0933378659089539 0.00402692630831119 -7.33573462863555e-18)
(0.0964624412906328 0.00455742960426022 -1.31077302806251e-17)
(0.0968120225098976 0.00499517328291202 -3.04620642225976e-17)
(0.09698897187172 0.00534149151611191 -1.38024220095282e-17)
(0.0967214699855472 0.00553374611555884 5.12860376345177e-18)
(0.096311654726384 0.00562287933917321 4.52157644708726e-18)
(0.0958429923446018 0.00566376739548723 6.16321444775863e-18)
(0.0953551214864522 0.00568535431787595 2.06097483682105e-18)
(0.0948577046604305 0.00570094800633672 1.27946522464374e-17)
(0.094353235006346 0.00571581587048896 -1.31796021072753e-17)
(0.0938427500641369 0.00573129673384845 -7.01598124070523e-17)
(0.0933252927782496 0.00574597566996285 2.94636206566635e-17)
(0.0927989859661326 0.00576043941651392 3.16973811383313e-17)
(0.0922636465863038 0.00577540845504544 5.79420412595217e-17)
(0.0917197816326005 0.00579070683201282 3.78654008575549e-17)
(0.0911665279300547 0.00580534969099193 2.75043505806404e-17)
(0.0906025799599242 0.0058199791636045 1.15734000781786e-17)
(0.0900281180402262 0.00583534023979747 3.55626399374548e-17)
(0.089443396914594 0.00585092963747687 -5.52974544801185e-17)
(0.0888473077558461 0.00586608681889085 7.63231142183845e-17)
(0.0882387877491422 0.00588152689105363 3.13888606194375e-17)
(0.087618257168568 0.00589804200912891 -2.01984529234825e-17)
(0.0869857602990308 0.00591458798238585 -8.05406287541677e-17)
(0.0863398701541941 0.00593092454594552 -1.80899867658905e-16)
(0.0856796485767325 0.00594794805825679 -1.33904694038578e-16)
(0.0850059938486693 0.00596652663507834 -1.11492998823388e-16)
(0.084318710158412 0.00598479530379834 -9.69910463350322e-17)
(0.0836158266168331 0.0060029962512306 -6.93761490434116e-17)
(0.0828966647715709 0.00602236398434218 -1.59783169280475e-16)
(0.0821626389473463 0.00604376049471022 -1.63436456812924e-16)
(0.081413244983136 0.00606453077332676 1.16694492279634e-17)
(0.0806461448709289 0.00608569301261801 9.06707372427882e-17)
(0.0798614475563871 0.00610908627851379 8.75603088736263e-17)
(0.079061063293512 0.00613476812825238 1.53745119982715e-17)
(0.0782440333058357 0.00615986381642705 1.88289524912658e-16)
(0.0774080041652159 0.00618612346724844 2.92485538630711e-16)
(0.0765547076923694 0.00621639538412502 2.2670069945336e-16)
(0.0756869257106079 0.00624892844950599 1.60759125846697e-16)
(0.0748030080378754 0.00628109546481106 1.27274546539467e-16)
(0.0739010184762597 0.00631615489043054 1.5856335488472e-16)
(0.0729865170833648 0.00635891336206494 2.24888077474061e-16)
(0.0720638915677802 0.0064030781436 1.11870972047801e-16)
(0.0711300986387094 0.00644699936442381 -1.8063686479118e-17)
(0.0701846727527073 0.00649735114002314 8.95155266440647e-17)
(0.0692423377414306 0.00656296973048481 1.9050317612447e-16)
(0.0683096588110959 0.006625996725335 -8.35264575008708e-17)
(0.0673810912467579 0.0066905966335378 6.83714806893667e-17)
(0.0664645426685301 0.00676973361984094 -1.75641518301653e-16)
(0.0655867771948461 0.00686945466158513 -2.59335649330785e-16)
(0.0647575969861686 0.00696407082541129 8.43155165629858e-17)
(0.0639734070953518 0.00706471754937998 2.59719109529255e-16)
(0.0632619434482749 0.00719545031761627 8.77054191844447e-17)
(0.0626689806519564 0.0073485360711686 -1.0354038528131e-17)
(0.0622092596474633 0.00749238250982079 -7.60388580743488e-17)
(0.0618883688247556 0.00765309403066061 3.75133697441797e-17)
(0.0617829437395836 0.00787374387933262 2.6856384992132e-16)
(0.0619665487149676 0.00810410315911145 1.17036500284644e-16)
(0.0624602021074699 0.00831790271609503 -9.33735223614274e-17)
(0.0632920896954719 0.00857161128222778 -2.95969503892274e-16)
(0.0646583300431498 0.00894223367840002 1.15335580842838e-16)
(0.0666786317837711 0.00928904216178966 2.66424633532937e-16)
(0.0694483512509257 0.00967318437776667 7.38733001358214e-17)
(0.0732873459058618 0.0102807880507514 3.91271847698176e-16)
(0.079007683825289 0.0112765670447807 2.22927493854411e-16)
(0.0871730610039716 0.0122399974427701 1.38113916841605e-16)
(0.0979668792095902 0.0132735564923596 -4.38915376821136e-16)
(0.112151466295386 0.0146311148056138 -2.55141129149995e-16)
(0.130331836793448 0.0158029457679315 -9.11784748686511e-17)
(0.152327367096527 0.016438042821317 -1.94311180568057e-16)
(0.177960161088571 0.0168909540574711 -1.1176967565196e-16)
(0.207748719464641 0.0173371624210913 2.03922341469609e-16)
(0.241595296103217 0.0170980337470367 3.22640933161849e-16)
(0.278772731562749 0.0164425322084874 2.36122716010169e-16)
(0.319276889467357 0.0155552716845438 4.57865132264584e-17)
(0.362697319847362 0.014278226881724 1.93132336125365e-16)
(0.408822339587446 0.0126187851522225 -4.24379724170347e-16)
(0.456815144075611 0.0107551897162285 1.10726755412577e-16)
(0.507186851149534 0.00858276844197462 -1.03937826160261e-16)
(0.558222327308743 0.00635950042259533 4.14190885773117e-17)
(0.612360855463659 0.00405011154072426 -1.05206205486183e-16)
(0.665753644156766 0.00181600265632478 9.93658254429707e-18)
(0.724891099806531 -0.000628185862770738 3.92387840135718e-17)
(0.779720945750455 -0.00248101614825235 -1.14399917842074e-16)
(0.848810438654285 -0.00473336714095279 -1.46937726883061e-16)
(0.904777108179005 -0.00592290331634811 -2.5795965956035e-16)
(0.993955950238707 -0.00709526861168001 8.28975126461455e-17)
(1.02661445500839 -0.000270683773277072 1.4260693009579e-17)
(1.01082517715665 -0.000415375662772415 5.73302912192028e-17)
(1.02202340488811 4.07304903857119e-05 -6.36816567592264e-17)
(1.01467797741003 1.19722032348047e-05 3.27204235057095e-17)
(1.01733831486178 0.000198985183548081 -2.73867307769037e-18)
(1.01294429376716 0.000234081383578399 6.03735764274964e-17)
(1.01204012254839 0.000303429086804986 6.47989107289189e-17)
(1.00849342374415 0.000301872953670715 -3.59003957671014e-17)
(1.00619162460793 0.000327899393459735 1.23608600958654e-17)
(1.00283663199482 0.000315134463684487 4.15964437955516e-17)
(1.00002636024593 0.000305525546234906 1.08580346086789e-17)
(0.996803867300088 0.000284619801828847 1.97813995930089e-18)
(0.994175082641111 0.000269096388485997 1.62660721873478e-18)
(0.991603615486157 0.00020950268218751 3.31875601788202e-18)
(-0.114033628638387 0.00697775594257235 -1.44444880247057e-17)
(-0.110892661898749 0.00727401379025355 -2.20950887395227e-17)
(-0.110672319361877 0.00827445932539523 -4.60516812157078e-17)
(-0.110700514647229 0.00889181594740542 -1.65252843886316e-17)
(-0.111145890253094 0.0092107570694166 -2.11520860718691e-17)
(-0.111714336212987 0.009351597923793 -7.51731003906738e-18)
(-0.112333533886412 0.00941322295500272 -2.72749446370714e-17)
(-0.112970870334837 0.0094446387163139 9.70826043457419e-18)
(-0.113618877762303 0.00946686131190934 3.8192179987346e-17)
(-0.114275621742923 0.00948766271602482 -8.49814329127511e-18)
(-0.114940322110391 0.0095089659077566 -9.3903767756912e-17)
(-0.115613825251651 0.00952985710244929 1.08500180138895e-18)
(-0.116297792181878 0.00955069059282436 3.79115848540937e-17)
(-0.116992514985489 0.00957206266700194 2.28363162539416e-17)
(-0.117697730830959 0.00959378807499087 5.30434968230138e-17)
(-0.118414305359129 0.0096151081461855 3.37224074517167e-17)
(-0.119143491793006 0.00963652043907521 4.64302381359618e-17)
(-0.119885310369079 0.0096586595946928 -6.29940380430473e-17)
(-0.120639678206556 0.00968112611347493 -1.30882329576977e-16)
(-0.121407680064886 0.00970338489851437 8.71844967106747e-17)
(-0.122190424303804 0.00972604640111298 4.22906987748439e-17)
(-0.122987695685786 0.00974975608924835 -3.15633567192075e-17)
(-0.123799595724268 0.00977369282862237 -7.20270739974755e-17)
(-0.124627529557918 0.00979762672463202 -1.09959745266148e-16)
(-0.125472499555879 0.0098223805281112 -1.36330325247064e-16)
(-0.126333845168424 0.00984862098814245 -1.34785652362762e-16)
(-0.12721187791758 0.00987486271520133 -6.44683101459516e-17)
(-0.128108543253355 0.00990123251464231 -8.92987813560844e-17)
(-0.129024653127991 0.00992890545494836 -1.80561084540544e-16)
(-0.129959024167212 0.00995851948232404 -1.55901607403595e-16)
(-0.130912250953601 0.00998792460801163 -1.55600984349297e-17)
(-0.131886722437941 0.0100179091833112 1.22357421040406e-16)
(-0.132882448558046 0.0100501966592081 1.22297156039252e-16)
(-0.13389765127505 0.0100847576877689 -1.58534288080766e-17)
(-0.134933306129759 0.0101191803276346 1.14504946051861e-16)
(-0.135991903939078 0.0101549792551791 2.4055373528208e-16)
(-0.137071756453279 0.0101947060876399 3.14063623681539e-16)
(-0.138170060983688 0.0102368297094205 2.24007170533562e-16)
(-0.139288389393498 0.0102790168308605 2.38999552660415e-16)
(-0.140428873790627 0.0103243445358606 6.14435842458508e-17)
(-0.141585536854136 0.0103769038823576 3.16584269247468e-16)
(-0.142753573316523 0.010431307767526 1.29844329894109e-16)
(-0.143935890447423 0.0104857795927682 -2.52804399817746e-17)
(-0.145133360438784 0.0105470031762187 1.26655077287072e-16)
(-0.146329281857462 0.0106221280976366 2.37330105616731e-16)
(-0.147515770890592 0.0106957931676578 -3.84187076549957e-17)
(-0.148699122979946 0.0107709760042278 1.81545523640889e-17)
(-0.14987061767436 0.0108605302524582 -2.5876229409912e-16)
(-0.150998947128014 0.0109688467670884 -2.54201626783317e-16)
(-0.15207172971932 0.011073222231227 1.39915104024339e-16)
(-0.153094491766853 0.0111832886423125 2.7134694013224e-16)
(-0.154034759739252 0.0113217413142432 8.16821300109634e-17)
(-0.154837169568176 0.0114805761457665 -1.61478179197515e-17)
(-0.155483406836081 0.0116305696144332 -1.10753001809821e-16)
(-0.155972442564388 0.0117967943950542 1.39108966684667e-16)
(-0.156210118342972 0.0120173636396652 2.34797833896808e-16)
(-0.156105363524563 0.0122464786051056 1.60841739828706e-16)
(-0.155635302000701 0.0124567186699032 -1.31730014404134e-16)
(-0.154780336467059 0.0127062929533059 -3.83931950763431e-16)
(-0.153294193977623 0.0130582374078848 -3.73727753372199e-17)
(-0.151028408646876 0.0133888294125902 2.11804936609871e-16)
(-0.147901984190422 0.0137469490883957 1.70970610694469e-16)
(-0.143598244086003 0.0143243725993717 3.91195756567628e-16)
(-0.137156917216953 0.0152502377380839 3.56356818357212e-16)
(-0.127879922188439 0.0161389926971859 2.16010278512257e-16)
(-0.115632312013313 0.0170788407031508 -5.14680590228441e-16)
(-0.099393350667499 0.0182892427071537 -2.0802640876096e-16)
(-0.0782995642799269 0.0192804517532946 -2.35230138137788e-16)
(-0.0526595310186286 0.0197107992191688 -2.65679268514664e-16)
(-0.0228191652870912 0.0199312900266161 -1.3230216676524e-16)
(0.0120425225693942 0.0200688578735312 2.16544634178132e-16)
(0.0518017028453335 0.0195175140965423 2.25384119994317e-16)
(0.0953930583699204 0.0185108645856518 1.75199920073287e-16)
(0.142935188971808 0.0172347461571038 5.88901030209398e-17)
(0.193963049440898 0.015543799874864 1.84119361488823e-16)
(0.248138940332823 0.0134543241591528 -4.77454938679541e-16)
(0.304513377847488 0.0111306090003441 -5.77520963447226e-17)
(0.363667144950256 0.00849157021457833 -8.19073292961515e-17)
(0.423514514746343 0.00578722286306385 1.46038401060162e-16)
(0.486970461720114 0.00297858551850602 -1.07431611321949e-16)
(0.549550772071802 0.000229738627039983 9.38338261437808e-17)
(0.618698732924474 -0.00273464672508463 -2.80356521912043e-17)
(0.682704453644981 -0.0051348830615374 -1.36561130580889e-16)
(0.763320630867997 -0.00796677661181135 -1.8319609848475e-16)
(0.828465446358284 -0.00973958900849195 -2.46613459020901e-16)
(0.932573010877531 -0.0109888474953456 8.92869790391897e-17)
(0.970655435025138 -0.000345505561948158 1.85633017983774e-17)
(0.951632719251414 -0.000385962570729667 5.58106906709906e-17)
(0.964358552616281 -7.96272393048372e-07 -6.65857560848209e-17)
(0.955506948138185 2.37299943991318e-05 4.74086335732619e-17)
(0.958334819887557 0.000182368921269497 3.28279682085878e-18)
(0.953029376847566 0.000228019054886029 8.67294938771699e-17)
(0.951862658458734 0.000291568022961991 9.07023886144797e-17)
(0.947625336559276 0.000296421064994784 -5.46437919858827e-17)
(0.944877249890365 0.000316767050999197 1.55289233354538e-17)
(0.940920922978239 0.000307170553964017 5.7365506899717e-17)
(0.93760692663192 0.000295633041360385 5.34985764449938e-18)
(0.933823425914344 0.000271425603335791 4.26064877551471e-18)
(0.930747267473224 0.000247810017972178 6.01069281751208e-18)
(0.927876123653903 0.000153700273054129 4.69670342601566e-18)
(-0.247656289053957 0.00914883319107647 -2.10988223569792e-17)
(-0.245970248265344 0.00968132815089404 -3.23485571043313e-17)
(-0.246276999574732 0.0112004722117284 -3.84778518659287e-17)
(-0.246699876951608 0.0120351784575676 -1.39363050031598e-17)
(-0.247346914325871 0.0124430338449065 -1.32145670471588e-17)
(-0.24804348423137 0.0126173941567502 -1.48217572775167e-17)
(-0.248762418376529 0.0126925607316541 -1.31492116622081e-17)
(-0.249491699590568 0.0127312240089816 1.45322515043891e-17)
(-0.250230407913535 0.0127590657202987 2.84225705787193e-17)
(-0.250978435300508 0.0127851184530061 1.00284319401255e-17)
(-0.251735533058612 0.0128116297193227 -8.94398340102826e-17)
(-0.252502384214536 0.0128380622858735 -1.71374017463823e-17)
(-0.253280281059038 0.0128646210879366 5.33468423544823e-17)
(-0.254069570323515 0.0128917319037343 2.83439111101316e-17)
(-0.254870215150143 0.0129192407413916 6.09538587010099e-17)
(-0.255683003937992 0.01294658926195 3.85360731465703e-17)
(-0.256509032316393 0.0129741474148953 9.23534146690038e-17)
(-0.25734848899185 0.0130024083229073 -4.21216231168017e-17)
(-0.25820146357153 0.0130310823387345 -1.17305815307576e-16)
(-0.259068925330233 0.013059771281868 1.31544420852543e-16)
(-0.259951903751099 0.0130889495665891 1.55335892483347e-16)
(-0.260850393945911 0.0131191161397237 -4.96723300779013e-17)
(-0.261764626078981 0.0131496632568599 -3.14269035694567e-17)
(-0.262695846468608 0.0131804121791395 -7.35730207669188e-17)
(-0.263645017053536 0.0132120200819763 -1.50785327173524e-16)
(-0.264611759889399 0.0132449974762599 -1.70656509895438e-16)
(-0.265596468186522 0.0132782208106383 -1.12485846888381e-16)
(-0.266600863072845 0.0133117741720221 -1.15444986215576e-16)
(-0.26762578887479 0.0133466110843137 -1.33666333286676e-16)
(-0.268670402501863 0.0133832223151264 -7.04214099705624e-17)
(-0.269735320154894 0.0134199553565863 -4.33681652107691e-17)
(-0.270822694706548 0.0134574164220078 7.50938621990269e-17)
(-0.271932653810287 0.0134970061049525 8.01135123030402e-17)
(-0.273063742751454 0.0135386971463656 -5.72633670843133e-17)
(-0.274216837226577 0.0135805975424751 7.13773111644947e-17)
(-0.275394221158962 0.0136239151699289 8.5321969934541e-17)
(-0.276594435199051 0.0136707075289465 1.95125957726401e-16)
(-0.277814961633753 0.0137197601750929 2.81658338508939e-16)
(-0.279057078766297 0.0137691954025673 2.45097507888662e-16)
(-0.28032274822369 0.0138215313594352 8.98945801753168e-17)
(-0.281606289148945 0.013880029143829 2.90009567613531e-16)
(-0.282903028870088 0.0139403705094401 1.48807343445004e-16)
(-0.284215258322937 0.0140010379018857 -3.87104045170123e-17)
(-0.285543858176031 0.0140675936469541 1.66455089130698e-16)
(-0.286872283186349 0.0141456719337287 1.66187040730813e-16)
(-0.288192250762778 0.0142228185655709 -1.15730402693216e-17)
(-0.289509454735351 0.0143012843634617 -1.61683912050114e-17)
(-0.290815138648172 0.0143917639364782 -1.79830480062439e-16)
(-0.292077436912157 0.0144975362012553 -1.27904765647274e-16)
(-0.293282671142471 0.0145999087434499 1.67328673746915e-16)
(-0.294436314407743 0.0147066472126071 2.8605237505915e-16)
(-0.295504933926477 0.0148364363734111 7.44789892635449e-17)
(-0.296430678403056 0.0149821736781508 -2.07351514736844e-17)
(-0.297192925048215 0.01511931831643 -1.69014207782881e-16)
(-0.297792523519276 0.0152687151610706 1.50277983595692e-16)
(-0.298130001086879 0.0154612027625337 2.17372166047794e-16)
(-0.298108302971128 0.0156580284289363 2.20775773969602e-16)
(-0.29770229630427 0.0158353330714685 -1.72988783150576e-16)
(-0.296898251478481 0.0160424153994945 -3.98629804051571e-16)
(-0.295432106386365 0.0163289913428088 -1.87118433752492e-16)
(-0.293143753812366 0.0165911316137064 1.60366626214114e-16)
(-0.289961453753712 0.0168675086088 1.89771879680114e-16)
(-0.285588879308921 0.0173199357768942 3.89067822011882e-16)
(-0.279024907736306 0.0180464513887683 3.6096667233058e-16)
(-0.269515953116124 0.0187168094115614 2.20372850968941e-16)
(-0.256959423233241 0.0194020087315726 -4.34382586959505e-16)
(-0.240222100159199 0.0202756249459912 -1.86911615854834e-16)
(-0.218314035842431 0.0209131869906484 -2.26836703174731e-16)
(-0.1916008479951 0.021025529105487 -2.7764151963131e-16)
(-0.16052359214055 0.0209165372392562 -1.51390102443572e-16)
(-0.124111535553013 0.0206799875208892 9.62860095488286e-17)
(-0.0824942372925872 0.0198076454005874 1.27478193515656e-16)
(-0.0369040920686394 0.0185058599793666 1.15016559845817e-16)
(0.0128466850622695 0.0169329438163817 -5.60118226422804e-17)
(0.0662791718071225 0.0149677574537017 6.05023774010378e-17)
(0.122990238061878 0.0126338616760768 -4.66228117427137e-16)