/*--------------------------------*- C++ -*----------------------------------*\
| =========                 |                                                 |
| \\      /  F ield         | OpenFOAM: The Open Source CFD Toolbox           |
|  \\    /   O peration     | Version:  4.1                                   |
|   \\  /    A nd           | Web:      www.OpenFOAM.org                      |
|    \\/     M anipulation  |                                                 |
\*---------------------------------------------------------------------------*/
FoamFile
{
    version     2.0;
    format      ascii;
    class       volScalarField;
    location    "0.000010";
    object      epsilon;
}
// * * * * * * * * * * * * * * * * * * * * * * * * * * * * * * * * * * * * * //

dimensions      [0 2 -3 0 0 0 0];

internalField   nonuniform List<scalar> 
3072
(
15.078657
15.5558
15.874851
16.139008
16.377413
16.590566
16.76622
16.897654
16.99097
17.051751
17.07877
17.069355
17.022259
16.93976
16.822762
16.666894
16.470317
16.239004
15.981516
15.702944
15.407367
15.10373
15.155068
15.711846
15.170107
15.708288
16.090304
16.406538
16.682099
16.921623
17.121526
17.275785
17.389787
17.470015
17.51053
17.504522
17.453828
17.360905
17.224129
17.042659
16.813572
16.541328
16.239769
15.915696
15.573302
15.220831
14.962806
14.994921
15.205926
15.804684
16.250129
16.621255
16.942487
17.218802
17.451616
17.63479
17.773289
17.87655
17.931495
17.925065
17.86333
17.751856
17.588795
17.375013
17.107847
16.791652
16.444268
16.074363
15.681762
15.281279
14.918724
14.787039
15.218695
15.852608
16.341972
16.753188
17.10878
17.413617
17.673639
17.881974
18.042907
18.16587
18.229177
18.216891
18.137608
18.001938
17.809518
17.561501
17.260162
16.911088
16.533141
16.137592
15.722469
15.305462
14.898388
14.666776
15.214443
15.856563
16.363893
16.789423
17.152417
17.459887
17.721251
17.929812
18.089206
18.203046
18.24768
18.215102
18.118629
17.972166
17.772459
17.516507
17.212575
16.867183
16.494633
16.107497
15.708038
15.30114
14.894835
14.591648
15.191104
15.801767
16.287161
16.688222
17.022646
17.303919
17.5384
17.721001
17.857242
17.940811
17.956747
17.913639
17.82384
17.693562
17.516637
17.285391
17.010248
16.701275
16.365801
16.013339
15.647544
15.270776
14.88968
14.556652
15.145218
15.688158
16.118034
16.470549
16.762174
17.008534
17.210505
17.364918
17.476199
17.533379
17.532207
17.490091
17.415745
17.306703
17.154333
16.952078
16.712947
16.450215
16.165163
15.861524
15.544483
15.216401
14.881558
14.559825
15.054326
15.530797
15.903598
16.21082
16.466879
16.684054
16.860736
16.993629
17.083109
17.122117
17.11415
17.075758
17.013373
16.919732
16.784826
16.605185
16.395468
16.171047
15.930029
15.670661
15.398775
15.118048
14.831044
14.548665
15.163397
15.688665
16.055282
16.355341
16.625672
16.871717
17.076345
17.225566
17.326082
17.391106
17.42325
17.417148
17.369317
17.276767
17.139216
16.960734
16.744312
16.489848
16.201087
15.887737
15.555734
15.207992
14.950136
14.99218
15.144483
15.647821
16.027912
16.338875
16.6075
16.844869
17.045098
17.195719
17.301048
17.376069
17.418898
17.418101
17.37239
17.277621
17.133699
16.951888
16.733548
16.474355
16.1825
15.87181
15.54762
15.213326
14.884336
14.625441
15.151827
15.684903
16.105355
16.452645
16.750974
17.011125
17.232568
17.4036
17.527156
17.621474
17.678121
17.677602
17.622106
17.511244
17.347326
17.144456
16.901885
16.612888
16.290541
15.952316
15.60178
15.242469
14.887586
14.575257
15.155635
15.710061
16.161431
16.53826
16.862742
17.144841
17.38727
17.579021
17.722385
17.834131
17.898752
17.893264
17.823909
17.693307
17.506793
17.278902
17.010246
16.694826
16.348602
15.991866
15.626513
15.255016
14.890747
14.555403
15.153108
15.71363
16.17949
16.567505
16.897314
17.184078
17.43112
17.625954
17.770897
17.873463
17.918169
17.895263
17.812771
17.673068
17.481839
17.248824
16.976884
16.662923
16.320908
15.97066
15.613806
15.251148
14.89071
14.547777
15.143024
15.68703
16.141234
16.513086
16.821888
17.092031
17.321039
17.496297
17.622451
17.694624
17.707908
17.673699
17.594846
17.467507
17.295091
17.081113
16.829894
16.543881
16.231545
15.907488
15.574884
15.233908
14.890865
14.556207
15.129243
15.642957
16.067949
16.412868
16.697396
16.946397
17.152138
17.305982
17.412235
17.459237
17.451887
17.413866
17.34517
17.233466
17.078081
16.879348
16.646787
16.391594
16.115126
15.82306
15.520936
15.210033
14.894285
14.582189
15.144178
15.687987
16.122109
16.475663
16.768412
17.020387
17.2244
17.374541
17.471477
17.505243
17.487006
17.442375
17.372626
17.261294
17.100725
16.891356
16.65013
16.395649
16.124813
15.834309
15.530316
15.216196
14.894425
14.58973
15.197183
15.778536
16.202358
16.548341
16.859665
17.146057
17.386217
17.559312
17.668856
17.739116
17.778645
17.77717
17.73134
17.628542
17.464885
17.256034
17.008451
16.720139
16.393456
16.03555
15.65636
15.264297
14.907407
14.787708
15.149721
15.678978
16.094665
16.43407
16.728338
16.993801
17.219772
17.385395
17.492396
17.569179
17.619129
17.624365
17.582446
17.478931
17.312922
17.108736
16.870223
16.59049
16.276764
15.942733
15.593295
15.236373
14.885526
14.57686
15.153575
15.706831
16.158284
16.53054
16.851933
17.138922
17.385064
17.570228
17.695381
17.790899
17.854767
17.861123
17.808672
17.687591
17.50109
17.276841
17.015649
16.70734
16.364901
16.006512
15.636926
15.261168
14.891723
14.552269
15.157652
15.732015
16.213966
16.615531
16.962903
17.272891
17.541451
17.74877
17.894961
18.007259
18.078454
18.080299
18.013071
17.873358
17.665781
17.417728
17.130199
16.793648
16.425683
16.047544
15.662043
15.274274
14.89512
14.541009
15.156155
15.736401
16.231858
16.642829
16.993101
17.308794
17.585487
17.797983
17.946569
18.048461
18.097574
18.082206
18.002589
17.85411
17.64384
17.393068
17.10293
16.767319
16.402583
16.029523
15.65043
15.2689
14.89448
14.53756
15.148629
15.714121
16.196709
16.590211
16.918619
17.217442
17.477258
17.671343
17.801658
17.872447
17.887432
17.858655
17.782301
17.644762
17.453537
17.222712
16.954206
16.647183
16.312441
15.96602
15.611674
15.25187
14.894641
14.549586
15.141784
15.686544
16.144935
16.516039
16.824218
17.103188
17.339441
17.51235
17.624259
17.670782
17.663511
17.627904
17.559442
17.436509
17.260548
17.0411
16.787443
16.508647
16.208149
15.892097
15.565888
15.23269
14.898363
14.574735
15.188705
15.800364
16.293747
16.695242
17.02944
17.323339
17.564141
17.739256
17.850521
17.889214
17.869933
17.822453
17.745437
17.614299
17.422201
17.176971
16.898479
16.60571
16.296749
15.967775
15.623553
15.268675
14.908585
14.603094
15.20831
15.821396
16.2845
16.662973
17.003245
17.319309
17.587536
17.780306
17.896034
17.966244
18.006867
18.005777
17.958199
17.842461
17.651146
17.413089
17.141307
16.831745
16.483079
16.098967
15.694471
15.287252
14.890993
14.670776
15.151694
15.698332
16.139423
16.500644
16.815955
17.104404
17.349946
17.529592
17.640053
17.715929
17.768343
17.778392
17.740052
17.625643
17.433591
17.204617
16.948088
16.654842
16.32858
15.97888
15.613066
15.245517
14.887476
14.558311
15.156111
15.72658
16.202618
16.596761
16.938407
17.245681
17.510623
17.711968
17.843274
17.938192
18.005446
18.020687
17.975179
17.842315
17.627776
17.378128
17.098448
16.775952
16.42038
16.045322
15.657929
15.269569
14.893451
14.541748
15.161555
15.753988
16.260246
16.683801
17.052698
17.384811
17.674832
17.902085
18.058405
18.172341
18.249451
18.264156
18.205165
18.052731
17.820254
17.550243
17.243268
16.889391
16.503287
16.102977
15.694207
15.288576
14.897648
14.531639
15.160083
15.754719
16.269491
16.698822
17.068231
17.405757
17.705841
17.941531
18.105094
18.212863
18.272769
18.275991
18.205843
18.046218
17.815966
17.547201
17.239098
16.883806
16.495553
16.096399
15.690911
15.287482
14.898608
14.532814
15.152462
15.727968
16.223109
16.62999
16.974466
17.293189
17.575925
17.792894
17.93924
18.019934
18.049777
18.040792
17.972057
17.825544
17.614808
17.364832
17.079184
16.752774
16.395973
16.026378
15.648892
15.269312
14.899211
14.550057
15.148288
15.704878
16.174616
16.559129
16.8843
17.182587
17.43991
17.633849
17.76372
17.82622
17.836622
17.813992
17.748482
17.615586
17.419803
17.179878
16.907941
16.60926
16.287502
15.950539
15.603054
15.250062
14.901795
14.574901
15.209114
15.847694
16.361548
16.78636
17.147747
17.467852
17.734356
17.93597
18.073095
18.136669
18.138543
18.096787
18.014267
17.866135
17.647653
17.374243
17.068987
16.747676
16.409799
16.053801
15.68136
15.297915
14.914454
14.642766
15.20269
15.816391
16.284748
16.666636
17.005919
17.311082
17.567692
17.758617
17.874628
17.938892
17.972947
17.97034
17.923299
17.805317
17.60783
17.365177
17.095288
16.793304
16.453729
16.079607
15.684967
15.284754
14.889482
14.598524
15.146932
15.689524
16.128301
16.487662
16.800307
17.077554
17.311413
17.491966
17.608231
17.681603
17.729255
17.741967
17.70644
17.588465
17.38955
17.156467
16.903339
16.620033
16.304693
15.961923
15.602205
15.240577
14.886344
14.550807
15.151753
15.715852
16.185971
16.576872
16.91541
17.208863
17.459372
17.662917
17.804009
17.898151
17.961438
17.982158
17.940349
17.803296
17.582304
17.329109
17.054412
16.743608
16.399132
16.029909
15.645386
15.261976
14.890534
14.536847
15.157145
15.740645
16.237968
16.656891
17.021042
17.336717
17.610227
17.840515
18.010229
18.125602
18.201642
18.226601
18.172344
18.016304
17.780042
17.510721
17.214544
16.873808
16.496077
16.097887
15.688315
15.283356
14.895815
14.530286
15.155422
15.736852
16.237266
16.658235
17.020126
17.339824
17.623223
17.862306
18.042614
18.160797
18.231587
18.253015
18.190284
18.030248
17.801479
17.537549
17.240687
16.895448
16.510781
16.108981
15.697911
15.29012
14.900224
14.538612
15.148662
15.709012
16.185669
16.582026
16.919161
17.220442
17.486854
17.706674
17.871446
17.973368
18.025914
18.03747
17.975431
17.830074
17.622747
17.376578
17.09667
16.775456
16.419876
16.047093
15.663003
15.275962
14.901742
14.55724
15.146739
15.689639
16.139839
16.513623
16.832614
17.114769
17.357184
17.554305
17.703226
17.792754
17.831777
17.828165
17.765893
17.63282
17.439247
17.20232
16.934222
16.636829
16.313656
15.973517
15.61897
15.254948
14.901862
14.582591
15.210946
15.835539
16.326235
16.737352
17.091272
17.3977
17.654422
17.86268
18.020193
18.114042
18.147899
18.125518
18.046436
17.898367
17.682086
17.412286
17.110582
16.787985
16.445384
16.084353
15.699304
15.302987
14.916119
14.713533
15.176983
15.75017
16.185006
16.536872
16.842804
17.108956
17.331714
17.504694
17.61717
17.681746
17.715274
17.712871
17.666137
17.557741
17.3831
17.166904
16.923936
16.650375
16.340081
15.99597
15.631254
15.258391
14.885975
14.563935
15.132405
15.644129
16.052937
16.388234
16.67693
16.921383
17.127342
17.298191
17.420829
17.498833
17.544209
17.553372
17.511295
17.398083
17.220318
17.009441
16.777574
16.517451
16.225218
15.904581
15.566244
15.223771
14.885061
14.556218
15.138357
15.670677
16.10834
16.474566
16.790009
17.050787
17.271038
17.464414
17.613935
17.712841
17.771556
17.785947
17.734318
17.601919
17.404409
17.174186
16.921306
16.63548
16.315752
15.969366
15.606599
15.24295
14.887395
14.543254
15.143422
15.692197
16.155303
16.549719
16.888377
17.167231
17.406127
17.622966
17.798889
17.917862
17.988267
18.004818
17.939769
17.789644
17.5793
17.335308
17.062691
16.750173
16.40161
16.029432
15.644025
15.261334
14.892073
14.540951
15.14327
15.6906
16.155302
16.550873
16.886862
17.167515
17.413405
17.636976
17.822691
17.949449
18.021382
18.035828
17.963497
17.811364
17.608978
17.370546
17.096159
16.778549
16.424395
16.047959
15.658769
15.270128
14.897254
14.550813
15.140052
15.671561
16.114114
16.485707
16.798829
17.062909
17.293452
17.499052
17.670862
17.786827
17.847306
17.854457
17.784769
17.646257
17.462778
17.241467
16.983514
16.686535
16.356325
16.004196
15.636208
15.261952
14.898331
14.567893
15.140116
15.656478
16.072712
16.420845
16.715565
16.963142
17.173387
17.357174
17.510418
17.612228
17.660145
17.657321
17.590383
17.463514
17.290628
17.078059
16.832443
16.557029
16.255596
15.934054
15.594275
15.241636
14.896813
14.598691
15.197101
15.783459
16.226993
16.599441
16.918391
17.186331
17.410432
17.601295
17.755409
17.855046
17.895033
17.879123
17.803931
17.668709
17.478428
17.241147
16.9713
16.677472
16.361149
16.024053
15.660767
15.278198
14.933401
14.826449
15.126988
15.626419
16.004418
16.312221
16.577506
16.805523
16.996517
17.149056
17.258242
17.32686
17.359505
17.349004
17.292059
17.192336
17.050588
16.872746
16.664796
16.425521
16.151995
15.850226
15.533194
15.207517
14.87753
14.562699
15.111592
15.580603
15.953037
16.261849
16.526337
16.745151
16.927988
17.086785
17.213506
17.298539
17.341323
17.335643
17.274083
17.16398
17.015735
16.835541
16.626622
16.387135
16.116312
15.820824
15.512693
15.199815
14.88525
14.574057
15.123599
15.621652
16.027843
16.370698
16.663391
16.898834
17.096169
17.278741
17.433906
17.540639
17.594984
17.590213
17.51559
17.385164
17.216986
17.01555
16.78175
16.514295
16.215167
15.891745
15.556484
15.220178
14.885918
14.559316
15.131886
15.649159
16.079939
16.449382
16.763454
17.014533
17.22981
17.438006
17.619555
17.746031
17.810784
17.805381
17.716813
17.568924
17.386846
17.169292
16.912832
16.619708
16.295619
15.947919
15.590173
15.23584
14.888587
14.557275
15.135038
15.653443
16.084372
16.453388
16.764195
17.015425
17.235319
17.449539
17.640718
17.775778
17.84413
17.839334
17.74809
17.599479
17.421318
17.206054
16.947045
16.649635
16.321489
15.969301
15.604586
15.241891
14.89144
14.568505
15.134503
15.640134
16.049036
16.394354
16.683313
16.918065
17.121088
17.314429
17.490063
17.614165
17.673352
17.66601
17.583262
17.448873
17.285263
17.085357
16.843826
16.566824
16.261205
15.931404
15.584967
15.2333
14.891378
14.59148
15.132919
15.619695
15.997074
16.314232
16.58132
16.797974
16.981193
17.151466
17.304058
17.410542
17.457077
17.443802
17.369056
17.247968
17.09399
16.904188
16.678987
16.425916
16.149359
15.85122
15.53581
15.209953
14.89185
14.645845
15.162923
15.690083
16.070089
16.389859
16.663191
16.888386
17.077753
17.245936
17.387443
17.482147
17.519053
17.49925
17.425268
17.30422
17.142001
16.94021
16.70667
16.449743
16.171603
15.873085
15.553985
15.216653
14.975177
15.028211
15.034182
15.466617
15.793406
16.065309
16.300523
16.49928
16.663773
16.799656
16.906388
16.978491
17.008439
16.987644
16.921832
16.829757
16.714643
16.566513
16.383017
16.168974
15.927026
15.663935
15.390913
15.110477
14.823632
14.540211
15.11904
15.60721
15.986077
16.303164
16.573903
16.795599
16.977971
17.138995
17.276938
17.373483
17.413479
17.386833
17.29994
17.182658
17.045655
16.873175
16.658993
16.40977
16.130605
15.829472
15.519348
15.203176
14.879264
14.566945
15.161477
15.711877
16.146441
16.513768
16.825514
17.074857
17.281194
17.4745
17.649005
17.772852
17.824477
17.793114
17.685167
17.539655
17.374402
17.169779
16.916772
16.625872
16.304548
15.959475
15.60581
15.249812
14.888692
14.572358
15.184018
15.768273
16.234127
16.633189
16.971977
17.242509
17.472153
17.697442
17.907574
18.056058
18.116943
18.08293
17.959515
17.792238
17.604673
17.374585
17.090929
16.768649
16.417213
16.040944
15.656574
15.274973
14.893555
14.610526
15.191338
15.776828
16.237017
16.631355
16.965269
17.234602
17.468217
17.700645
17.921565
18.080098
18.14716
18.119197
18.000868
17.835441
17.64842
17.418364
17.132998
16.807776
16.452422
16.069906
15.671605
15.279793
14.897263
14.685887
15.184398
15.746266
16.1712
16.531452
16.835564
17.080695
17.291301
17.497921
17.693638
17.834934
17.895162
17.872171
17.772058
17.62773
17.459391
17.250386
16.991009
16.694468
16.368234
16.013561
15.638809
15.259892
14.918649
14.806265
15.156696
15.671825
16.042395
16.355211
16.620728
16.835149
17.017288
17.19187
17.353004
17.466902
17.512786
17.490401
17.40705
17.284152
17.133708
16.945991
16.71779
16.459404
16.175822
15.867955
15.542819
15.206671
14.965814
15.015684
15.076594
15.549016
15.870133
16.141354
16.374359
16.566272
16.729497
16.877955
17.005348
17.091587
17.123757
17.102378
17.033199
16.926631
16.788987
16.617364
16.414271
16.187886
15.941579
15.676239
15.394784
15.103228
15.176726
15.743276
22.861127
19.272306
15.85336
16.08071
16.325564
16.558389
16.77261
16.96628
17.132653
17.266022
17.366793
17.437779
17.475453
17.47626
17.441412
17.371479
17.267549
17.131492
16.963722
16.770325
16.56477
16.359693
16.160838
15.917792
20.305044
17.49703
15.494736
15.754144
16.027847
16.293707
16.544387
16.771745
16.964605
17.118995
17.236108
17.316656
17.358652
17.358991
17.31671
17.234296
17.116051
16.964071
16.779337
16.567133
16.335414
16.092209
15.83762
15.490608
18.72068
16.317557
15.434115
15.715884
16.007453
16.293232
16.56749
16.820862
17.039918
17.219606
17.351926
17.442357
17.490021
17.491402
17.443423
17.351579
17.223231
17.059386
16.861413
16.634512
16.383764
16.114821
15.825217
15.431607
17.577212
15.316097
15.38936
15.681943
15.978731
16.270509
16.552376
16.818029
17.055332
17.256574
17.409168
17.517589
17.581881
17.592156
17.544052
17.446233
17.310794
17.138938
16.932336
16.696484
16.432781
16.145019
15.829297
15.404588
16.686309
15.09387
15.357092
15.648734
15.942016
16.230663
16.509835
16.772917
17.010188
17.213835
17.376444
17.497117
17.577847
17.605968
17.573549
17.487281
17.357444
17.184583
16.97654
16.738638
16.469605
16.171553
15.839837
15.397863
15.941706
15.06962
15.338579
15.620229
15.902143
16.178958
16.445768
16.69736
16.927076
17.12509
17.282624
17.400489
17.481079
17.520219
17.509587
17.44516
17.33336
17.177174
16.983111
16.753712
16.489083
16.191616
15.855437
15.409936
15.290272
15.091212
15.348697
15.6129
15.876171
16.133399
16.380444
16.613786
16.828433
17.015434
17.164131
17.273121
17.34862
17.390324
17.389819
17.341227
17.2474
17.11205
16.938843
16.730188
16.485309
16.204657
15.881098
15.448705
15.252386
15.438177
15.673082
15.910911
16.14729
16.377447
16.597682
16.805726
16.998569
17.168308
17.30385
17.402234
17.470535
17.510657
17.516694
17.484449
17.409283
17.291369
17.137939
16.954387
16.741685
16.495714
16.20537
15.813775
147.00508
148.45358
149.95672
151.48242
152.99525
154.46698
155.87488
157.1905
158.37405
159.39397
160.25304
160.95897
161.4856
161.80594
161.91228
161.79398
161.44939
160.88884
160.12996
159.24098
158.37291
157.80113
158.15177
163.67115
132.89683
134.18896
135.52085
136.86792
138.20316
139.50008
140.7365
141.88642
142.91453
143.79606
144.53052
145.11965
145.54667
145.7915
145.8424
145.69468
145.35478
144.83356
144.14858
143.35272
142.55704
141.97471
142.07913
145.89215
124.45098
125.66173
126.90087
128.14688
129.37747
130.56801
131.69627
132.73762
133.66134
134.44739
135.09049
135.58642
135.92707
136.0976
136.08496
135.88978
135.52346
134.99618
134.32545
133.55451
132.76563
132.12163
131.97323
134.49154
120.68303
121.85724
123.05088
124.24444
125.41706
126.54443
127.60488
128.57618
129.43109
130.14933
130.72216
131.14563
131.41506
131.51851
131.44378
131.1927
130.78129
130.22057
129.52625
128.73503
127.90889
127.17044
126.77859
128.29683
121.11497
122.29486
123.48656
124.67217
125.83032
126.93497
127.96629
128.90542
129.72489
130.40321
130.92889
131.29657
131.50804
131.5542
131.41906
131.10768
130.63858
130.01846
129.2659
128.41562
127.51189
126.64809
126.0164
126.73272
125.73866
126.96839
128.20274
129.42528
130.61262
131.73512
132.77636
133.72222
134.54215
135.21106
135.71346
136.04185
136.20579
136.20102
136.00826
135.6357
135.09768
134.39361
133.54834
132.60009
131.58355
130.56925
129.69974
129.75775
135.00951
136.33861
137.66561
138.9745
140.23663
141.42041
142.51606
143.50781
144.35922
145.04902
145.55373
145.85816
145.98898
145.94437
145.69698
145.26378
144.64748
143.83198
142.85873
141.77832
140.61648
139.43108
138.33266
137.86894
149.85445
151.35898
152.85574
154.32615
155.73678
157.05566
158.27597
159.37635
160.31717
161.07903
161.62837
161.94502
162.06654
161.99535
161.70461
161.21084
160.49577
159.53354
158.3868
157.12079
155.76333
154.3677
153.03141
152.20103
15.258577
15.439771
15.672776
15.908523
16.143095
16.371966
16.590485
16.796216
16.986538
17.153044
17.285945
17.384218
17.453598
17.494714
17.502049
17.471524
17.399199
17.283398
17.12999
16.946656
16.735068
16.490275
16.202193
15.812903
15.355808
15.099468
15.34841
15.603395
15.857986
16.107608
16.346495
16.572191
16.782642
16.967962
17.117085
17.227766
17.302908
17.345145
17.353285
17.319545
17.236432
17.105732
16.932511
16.721649
16.477894
16.199544
15.877086
15.447143
16.009336
15.080083
15.336709
15.605013
15.873606
16.137815
16.39144
16.631861
16.857258
17.057098
17.219881
17.340045
17.4169
17.456581
17.460181
17.418047
17.322578
17.173297
16.978954
16.745397
16.481805
16.186675
15.850565
15.407756
16.747513
15.10426
15.353532
15.631255
15.908907
16.18177
16.444779
16.694481
16.928014
17.13644
17.30764
17.43273
17.509081
17.540758
17.522806
17.458957
17.344498
17.178206
16.97074
16.729006
16.460523
16.164403
15.83303
15.394869
17.628971
15.341205
15.386168
15.66655
15.947039
16.222042
16.487454
16.738681
16.97233
17.180916
17.349621
17.467528
17.533148
17.547171
17.507913
17.424464
17.295676
17.126182
16.921417
16.684883
16.421711
16.135174
15.820857
15.401149
18.76482
16.341864
15.431612
15.702795
15.978414
16.247441
16.506059
16.749952
16.969421
17.160952
17.312249
17.415866
17.470429
17.474167
17.43007
17.341654
17.211184
17.044326
16.848365
16.624752
16.374767
16.105698
15.817788
15.428763
20.345796
17.526445
15.493081
15.743703
16.00457
16.257678
16.497115
16.720769
16.918388
17.085803
17.216822
17.3097
17.360175
17.363625
17.321002
17.235198
17.108782
16.949967
16.768069
16.562075
16.331777
16.087557
15.83394
15.489403
22.901926
19.312401
15.853776
16.073763
16.31085
16.539634
16.750507
16.945151
17.119029
17.263795
17.374927
17.45368
17.497287
17.500556
17.461351
17.380712
17.263996
17.120706
16.957618
16.774157
16.572128
16.364213
16.163574
15.919152
149.88266
151.37756
152.86054
154.31102
155.69972
157.00376
158.213
159.29999
160.23076
160.98791
161.53729
161.86148
161.99076
161.92472
161.64988
161.17756
160.47417
159.5172
158.372
157.10497
155.74883
154.35539
153.02173
152.19713
135.06828
136.37551
137.67093
138.93616
140.15154
141.304
142.37843
143.3426
144.17093
144.85224
145.36289
145.68889
145.83384
145.7941
145.57795
145.19002
144.59841
143.79418
142.82516
141.74251
140.58337
139.40376
138.31142
137.86029
125.80432
127.00543
128.19929
129.36792
130.50042
131.58833
132.60673
133.52257
134.31938
134.9867
135.50733
135.86505
136.04377
136.04155
135.87569
135.54914
135.04246
134.35249
133.51088
132.56049
131.54587
130.53711
129.67546
129.74811
121.17462
122.3244
123.47423
124.60536
125.70987
126.77996
127.78743
128.70151
129.50833
130.19826
130.75592
131.15972
131.3856
131.42938
131.31085
131.04114
130.60604
129.99631
129.24363
128.39071
127.48497
126.62237
125.99624
126.72464
120.73249
121.88118
123.03759
124.1806
125.30239
126.3947
127.43029
128.38363
129.24197
129.98955
130.60714
131.07095
131.35445
131.45495
131.39304
131.17917
130.79609
130.23703
129.53722
128.74122
127.90807
127.16318
126.76959
128.29267
124.49319
125.68653
126.89508
128.09398
129.27456
130.4284
131.53189
132.56612
133.5163
134.35434
135.05247
135.58939
135.94556
136.11651
136.11319
135.94575
135.59724
135.05999
134.37897
133.60496
132.80531
132.14537
131.98472
134.49524
132.93758
134.22234
135.52804
136.82747
138.11108
139.37082
140.58918
141.74959
142.82802
143.78316
144.58114
145.20751
145.64825
145.89487
145.94813
145.80921
145.46611
144.92567
144.23621
143.44667
142.64171
142.03584
142.11633
145.90626
147.04747
148.50095
149.97902
151.45164
152.91123
154.35282
155.76038
157.10856
158.3625
159.47325
160.40246
161.14099
161.68234
162.00906
162.10108
161.95245
161.57472
160.9928
160.24339
159.37812
158.50863
157.9043
158.21607
163.69637
22.888874
19.304026
15.854838
16.074785
16.311141
16.540209
16.751992
16.946723
17.119111
17.263418
17.375115
17.454715
17.49979
17.506312
17.469528
17.388386
17.271708
17.12915
16.965571
16.781783
16.579835
16.370599
16.167339
15.920476
20.322831
17.510719
15.490698
15.740058
16.001627
16.258688
16.502739
16.7262
16.9192
17.080856
17.208026
17.301611
17.357964
17.36837
17.326507
17.23203
17.096994
16.937708
16.758886
16.556222
16.329277
16.086068
15.832078
15.488702
18.729832
16.31714
15.424286
15.693564
15.972498
16.248645
16.513223
16.758556
16.972901
17.152608
17.295382
17.401986
17.467702
17.480596
17.435198
17.331471
17.183642
17.011948
16.82097
16.604423
16.360026
16.093637
15.808484
15.425496
17.580938
15.308351
15.376105
15.655804
15.941518
16.224792
16.496216
16.750578
16.979821
17.173802
17.329907
17.450532
17.530279
17.553968
17.511536
17.405374
17.25225
17.073799
16.875762
16.649969
16.392608
16.110071
15.803365
15.395312
16.687924
15.091834
15.344172
15.62371
15.907465
16.18863
16.45831
16.711833
16.94075
17.13355
17.289739
17.415844
17.504773
17.539252
17.508821
17.417604
17.279218
17.107578
16.908678
16.679264
16.416814
16.127032
15.808271
15.386867
15.942291
15.068775
15.329516
15.601926
15.876786
16.148597
16.409064
16.653072
16.872128
17.05502
17.201876
17.320296
17.405224
17.441026
17.421439
17.350346
17.235929
17.084738
16.900322
16.681738
16.425241
16.139739
15.821378
15.398746
15.287583
15.090685
15.343775
15.602787
15.862117
16.117534
16.361657
16.588354
16.790093
16.958331
17.092951
17.200441
17.277942
17.312383
17.298196
17.239823
17.143647
17.013085
16.848156
16.649214
16.41523
16.150855
15.847611
15.438167
15.251371
15.435375
15.669634
15.906924
16.143271
16.374753
16.594741
16.797433
16.977562
17.12948
17.252106
17.347834
17.414654
17.444784
17.435182
17.389407
17.310702
17.197997
17.051987
16.877143
16.676233
16.447667
16.176506
15.805077
147.03758
148.49497
149.97359
151.44439
152.90318
154.34955
155.76533
157.11461
158.35821
159.45407
160.37385
161.11394
161.66499
162.00192
162.09012
161.92098
161.53166
160.95551
160.21286
159.35341
158.49161
157.89138
158.20507
163.69122
132.91192
134.20598
135.51361
136.80974
138.09216
139.36101
140.59584
141.75902
142.81753
143.74617
144.52527
145.14734
145.60684
145.87959
145.92928
145.75007
145.3801
144.85258
144.17844
143.39709
142.606
142.00877
142.09338
145.89579
124.45285
125.65929
126.87349
128.0738
129.25658
130.41714
131.53406
132.57606
133.51484
134.3285
135.00136
135.52473
135.89465
136.09515
136.0987
135.89793
135.52079
134.99313
134.32435
133.55407
132.7651
132.11267
131.95725
134.48325
120.6773
121.84407
123.01482
124.17036
125.30194
126.39851
127.44081
128.40672
129.2696
130.00159
130.58371
131.01241
131.2949
131.42484
131.38059
131.15013
130.74801
130.19331
129.49814
128.69873
127.86673
127.12648
126.7413
128.28126
121.10732
122.28079
123.45511
124.61134
125.7354
126.81122
127.82245
128.75331
129.57386
130.24754
130.75545
131.10282
131.30854
131.37177
131.27242
130.99914
130.55795
129.95515
129.2011
128.33793
127.43187
126.57667
125.96316
126.71207
125.73149
126.95799
128.18145
129.38245
130.54251
131.64129
132.66323
133.59488
134.40295
135.04405
135.50147
135.79013
135.93314
135.93223
135.76867
135.43339
134.92873
134.25166
133.4148
132.46384
131.4555
130.46309
129.62706
129.73116
134.99986
136.32786
137.64813
138.94
140.18122
141.34882
142.42508
143.39305
144.21765
144.8581
145.30227
145.56653
145.66985
145.61029
145.37127
144.94856
144.34946
143.57116
142.62497
141.55976
140.42607
139.28104
138.23289
137.83321
149.82857
151.33227
152.82555
154.28475
155.68438
156.99742
158.19815
159.26382
160.16266
160.86233
161.35495
161.64624
161.73845
161.62965
161.30869
160.77426
160.04247
159.11966
158.02261
156.79833
155.49328
154.16079
152.8984
152.1548
15.252175
15.435917
15.668851
15.904204
16.138569
16.368379
16.586544
16.787895
16.96813
17.121621
17.247536
17.347986
17.418515
17.449523
17.437184
17.383253
17.294784
17.178689
17.03637
16.86568
16.666146
16.439111
16.172135
15.803781
15.281507
15.089855
15.343132
15.602597
15.861361
16.114721
16.354386
16.574053
16.771658
16.944703
17.087678
17.195674
17.265695
17.29331
17.277459
17.22029
17.12409
16.991934
16.826799
16.631995
16.405489
16.147976
15.848727
15.439003
15.932432
15.06647
15.329562
15.60539
15.881468
16.150458
16.403676
16.636761
16.849139
17.037858
17.192644
17.301978
17.366295
17.389623
17.372698
17.31699
17.218052
17.074859
16.888353
16.669226
16.419607
16.144379
15.830378
15.402785
16.675396
15.086794
15.344648
15.629406
15.914848
16.192877
16.455136
16.697046
16.917352
17.113086
17.272887
17.382765
17.445075
17.466495
17.444902
17.382629
17.27617
17.119983
16.91375
16.674757
16.414719
16.135722
15.821159
15.392336
17.56565
15.274373
15.375995
15.661441
15.9486
16.228786
16.493894
16.738214
16.959054
17.152969
17.31067
17.415093
17.469316
17.48136
17.449236
17.377771
17.265729
17.103153
16.892603
16.649681
16.391226
16.118434
15.814998
15.400048
18.710647
16.278203
15.422895
15.698199
15.978626
16.251956
16.51197
16.751667
16.965128
17.142094
17.281193
17.372552
17.417596
17.420973
17.384238
17.311148
17.1994
17.041608
16.83871
16.603864
16.354443
16.095593
15.814816
15.428243
20.297979
17.466306
15.487871
15.743248
16.008289
16.265476
16.509688
16.731098
16.924013
17.078056
17.195289
17.277132
17.3203
17.322895
17.287721
17.21577
17.10698
16.958847
16.769865
16.550852
16.318604
16.080902
15.831233
15.488479
22.85544
19.251733
15.851132
16.077405
16.320182
16.552867
16.770922
16.96519
17.132638
17.265886
17.365675
17.435813
17.473405
17.475089
17.441711
17.373868
17.272853
17.138595
16.970024
16.774514
16.567541
16.361883
16.162289
15.918556
149.82529
151.32158
152.80881
154.26285
155.65793
156.96432
158.15143
159.19869
160.08611
160.79295
161.31003
161.6248
161.72249
161.6041
161.26656
160.71032
159.9585
159.0302
157.94347
156.73198
155.4403
154.12733
152.88355
152.15108
134.99256
136.30262
137.60932
138.88883
140.11677
141.26864
142.31888
143.24699
144.03946
144.68716
145.17883
145.49245
145.60967
145.53142
145.26027
144.79916
144.16497
143.37474
142.44427
141.40649
140.30891
139.20891
138.1998
137.8245
125.72128
126.92438
128.13226
129.31958
130.46319
131.54071
132.52954
133.4119
134.1761
134.81226
135.3076
135.64164
135.79854
135.77917
135.5854
135.21975
134.69098
134.00883