/*--------------------------------*- C++ -*----------------------------------*\
  =========                 |
  \\      /  F ield         | OpenFOAM: The Open Source CFD Toolbox
   \\    /   O peration     | Website:  https://openfoam.org
    \\  /    A nd           | Version:  8
     \\/     M anipulation  |
\*---------------------------------------------------------------------------*/
FoamFile
{
    version     2.0;
    format      ascii;
    class       surfaceVectorField;
    location    "0.0480000";
    object      Uf_0;
}
// * * * * * * * * * * * * * * * * * * * * * * * * * * * * * * * * * * * * * //

dimensions      [0 1 -1 0 0 0 0];

internalField   nonuniform List<vector> 
1691
(
(0.739063563059299 0.000281353978758217 -4.00828330474407e-18)
(0.561092150709798 0.000948285569605944 -2.86827250084985e-18)
(0.739223647038169 0.000184772243252381 -4.02276709855116e-18)
(0.562332308108809 0.000989388068961861 -9.12262434911168e-18)
(0.739396062227037 0.000174609963054178 -5.24335978726992e-20)
(0.562449990151904 0.00100078143521078 -1.7407131058673e-18)
(0.739441346059219 0.000189738196126078 -2.49316347710604e-18)
(0.562633162629772 0.00107033218988397 -5.79598648680119e-18)
(0.739418838500382 0.000196385968827484 -1.43752727903457e-17)
(0.562585281149587 0.00110945038727235 -1.18182063625285e-17)
(0.739365708670551 0.000201638481666003 -1.51921342857574e-17)
(0.562463550679448 0.00113059865373585 -3.45839261893605e-17)
(0.739304214364252 0.000205400424333138 -3.63985820643989e-18)
(0.562311566126041 0.00114271818936487 -8.1178238479064e-18)
(0.739239223917946 0.000208068055273028 3.97233491084863e-19)
(0.562151099479534 0.00114973630682547 1.54288469052236e-17)
(0.739173381832923 0.000210641636056363 7.36276076731564e-18)
(0.561987067786407 0.00115512504400066 6.58565265106002e-18)
(0.739106911235545 0.000213531740187691 2.14285164299279e-17)
(0.561822333283771 0.00116103235919412 2.7419226073838e-17)
(0.739039719665305 0.000215620267487287 3.71843913786118e-19)
(0.561655439430861 0.00116716894397269 3.1404650742127e-17)
(0.738973851658259 0.00021679995951299 -2.36420506122475e-17)
(0.561486491910001 0.00117087950506083 -3.16620034939595e-17)
(0.738909126410849 0.000218946876070015 6.41033983754587e-18)
(0.561318561326981 0.00117455290461289 -5.70335743503983e-19)
(0.738841047344812 0.000222053501193827 4.02085042037568e-17)
(0.561148099728773 0.00118110740276189 3.83110180750949e-17)
(0.738768721106175 0.000224085678184049 7.41612639346541e-18)
(0.560971520429848 0.00118753931843843 4.53126219455775e-17)
(0.738697201159585 0.000225026693699905 -1.80557947578528e-17)
(0.560791129620268 0.00119112374072387 -1.66014486188755e-17)
(0.738627281490572 0.000226794875173718 -5.3446147941502e-18)
(0.560611679824828 0.00119449833686752 1.69362524397957e-18)
(0.738555508133359 0.000229250720574952 -1.6974659380255e-18)
(0.560429708883477 0.00120052862066661 -1.68656308088093e-17)
(0.738480555785211 0.000231182025498211 1.35809177348667e-17)
(0.560242438737296 0.00120599143251142 1.294481077442e-17)
(0.738403675541405 0.000232992281974706 -2.78885518079655e-18)
(0.560051776713602 0.00121064197392438 -1.04517319934355e-17)
(0.738324446346655 0.000235201394594214 -5.13962382875795e-17)
(0.559857018910579 0.00121587246339821 -5.87860383593405e-17)
(0.738243927255186 0.000237195649312434 -5.20686359040081e-17)
(0.559658200412817 0.00122181309719301 -9.26784835933514e-17)
(0.738162561640384 0.000238761404904196 -7.95899190158684e-18)
(0.559456016303728 0.00122654020885218 -6.64981221298072e-17)
(0.738080044708506 0.000240668050870712 -2.83656526893655e-18)
(0.559251042071242 0.00123130422887071 1.89352762076868e-17)
(0.73799537736197 0.000243074681384269 -6.50450724271469e-18)
(0.559041834237464 0.00123719309800692 -3.66126629455932e-18)
(0.737909050934441 0.000245311520017516 5.92115667031499e-19)
(0.558828280705483 0.00124365404840406 1.36624472074934e-17)
(0.737820802337891 0.000247277164715655 8.50304839709248e-18)
(0.558610632590025 0.00124923133145496 -8.14060671471412e-18)
(0.737730626769538 0.000249711434097232 8.80215751991334e-18)
(0.558388631170759 0.00125499307668572 -6.11146550637683e-18)
(0.737639572351661 0.000252467443483828 5.55380477216771e-18)
(0.558162603456126 0.00126223278495654 -1.32613845807576e-17)
(0.737547071924911 0.000254930270245174 1.79805424804283e-17)
(0.557932783698915 0.00126919820248353 2.84508772522703e-17)
(0.737452712612413 0.000257355036007196 1.0205291481544e-17)
(0.557698523815318 0.00127573615760879 4.57172702429851e-17)
(0.737356501782018 0.000260599946637535 -1.3123719284436e-17)
(0.557459622215107 0.00128276762557668 -2.40669558967165e-18)
(0.737260369471552 0.000264244483851961 -3.26065184387209e-17)
(0.557217088111246 0.0012921781337138 -5.06082441456023e-17)
(0.737162141932801 0.000267745301217582 -3.27461908732188e-17)
(0.556970810113115 0.00130075863313826 -3.50673992311425e-17)
(0.73706019917322 0.000271521152069225 1.09832743121468e-17)
(0.556719582639642 0.00130990138427451 5.47245270212785e-18)
(0.736958278516418 0.000275639415042633 4.12471528998494e-17)
(0.556461780373366 0.00131960702008748 1.1140287286659e-16)
(0.736863021619543 0.000279872135180682 -1.9744832898127e-18)
(0.556204899212384 0.00133024805079351 2.6013685562026e-17)
(0.736769450614783 0.000284584570514842 -2.88055097822067e-18)
(0.555950395241876 0.0013407024490702 7.31685318040315e-18)
(0.736673446534812 0.000290944929593556 3.28549531457008e-17)
(0.555691075098721 0.00135310329623791 7.0708039200899e-17)
(0.736577016772691 0.000298699448220708 2.05161249633479e-17)
(0.555428965946103 0.00136924080698198 6.54354428069483e-17)
(0.736480672017358 0.000306146103798094 2.18367135720738e-17)
(0.555164712063641 0.00138656186273589 1.55016667133732e-17)
(0.73638738107145 0.000313369004706801 6.63298357850153e-17)
(0.554898797726342 0.00140220040875876 7.02342918950606e-17)
(0.736300716067121 0.000323382297052932 6.35220019586376e-17)
(0.554637646444829 0.00141918089311381 1.19465100175239e-16)
(0.736226326423933 0.000335180574004941 2.95429860141205e-17)
(0.554384006830347 0.00144434375214025 5.63017978825594e-17)
(0.736162269434623 0.000346577699235922 6.89481241730983e-17)
(0.554140060318344 0.00146769567493545 5.6252125107012e-17)
(0.736106256483291 0.000360135954919982 8.25181690048135e-17)
(0.553907017967767 0.00149216055392349 1.46271199346849e-16)
(0.736058223018717 0.000379211694909688 5.26842044184391e-17)
(0.553683802719137 0.00152302471906181 1.09621607473035e-16)
(0.736028819820849 0.000399749805192969 5.21018427793684e-17)
(0.553477230162535 0.00156605946268006 1.87889270112835e-16)
(0.736015551752633 0.000418883710904567 4.00318269279148e-17)
(0.553292323410741 0.00160255422588306 1.12182297894922e-16)
(0.736022893745999 0.000443620249845934 3.71766551021161e-17)
(0.55313427254307 0.00164171515110616 4.69729834366226e-17)
(0.736060197116631 0.000476571566868204 2.95484677189765e-17)
(0.553013734009982 0.00169712364311091 9.93646987612919e-17)
(0.736131343733422 0.000510451370520867 -3.10997039130981e-17)
(0.552938093564001 0.00176378957163981 4.01213099821547e-17)
(0.73623701525198 0.00054361587025874 -1.51450576168142e-17)
(0.552910911343088 0.0018233621177134 -7.14776754944581e-17)
(0.736387993104755 0.000589502134631625 1.73086209289837e-17)
(0.552952209038962 0.0018886791690396 2.11905570821921e-17)
(0.736607486106765 0.000645292225706229 2.14183573571562e-17)
(0.553081704482508 0.00199019369473563 -1.42076443128603e-17)
(0.736891813532477 0.000698644107498077 7.03375881184622e-17)
(0.553309668637816 0.00208880304873296 8.91863875307091e-17)
(0.73725583625305 0.000756826897457794 6.94351291639975e-17)
(0.553653320188817 0.00218386775335935 1.33040794116997e-16)
(0.737712684296379 0.000839631968874758 2.22138889847409e-17)
(0.554156147184693 0.00229949963580145 9.37435685112987e-17)
(0.738294116048565 0.000931177741171442 -3.90698132225473e-17)
(0.554834963928089 0.00247418792860286 -4.22871030245207e-18)
(0.73900866967541 0.00101453805793942 -7.53675576298985e-17)
(0.555713930341867 0.00261974399253523 -1.01790993488588e-16)
(0.739897700560148 0.00111902333730513 -8.75691026931111e-17)
(0.55687006221943 0.00277075759577743 -1.49104923757991e-16)
(0.741020912949976 0.00127031629906304 -3.33966850962408e-17)
(0.558377443544336 0.00298656540971094 -9.50414624217352e-17)
(0.742505490226008 0.00144891649802009 2.02649765862507e-17)
(0.560337789543722 0.0032900997558211 6.54979846263246e-17)
(0.744573018314914 0.00164655895057543 2.21665351605953e-17)
(0.562940841424556 0.00359932711432056 1.65284460605635e-17)
(0.747426716806705 0.00197766615109867 7.38748578441094e-17)
(0.566620515786434 0.0039829721778102 7.00748477717516e-17)
(0.751243718695393 0.00240815831977216 7.37675035463912e-17)
(0.571622200564958 0.00471473636421905 1.58447119803633e-16)
(0.755980156131971 0.00279067255211742 -2.07210979272785e-17)
(0.577987527548265 0.00541224166878676 4.27197064575506e-18)
(0.761652257994758 0.00315823210117694 -1.35783657869862e-17)
(0.585982563209795 0.00600086874194999 -1.06341623999322e-16)
(0.768184480835714 0.00357242685464346 1.51092496486876e-17)
(0.595737427989323 0.00663597480214174 7.49696839082059e-17)
(0.775614156251188 0.00388331251608432 -3.15003218132698e-17)
(0.607049306347559 0.00731870584223756 -4.04200479976835e-17)
(0.784001131950858 0.00402398371696581 -2.59879386776733e-18)
(0.620025730454349 0.00759720149198278 -8.97919131796319e-17)
(0.793390156268326 0.00413284080853357 -1.07063031056948e-17)
(0.63500501362453 0.00772172106351683 1.06853254663196e-17)
(0.8037146055917 0.00415918742981356 -7.73653309691626e-18)
(0.651613355742169 0.00782165802993397 -1.19637541409253e-16)
(0.814957222481314 0.00403603613695729 7.57142697488878e-17)
(0.669842726663686 0.00763692112781543 2.25066421018547e-17)
(0.827045400185202 0.00382104510385867 6.54732161239144e-17)
(0.689665069346402 0.00723403069627889 2.14764975757635e-16)
(0.839929760329431 0.0035244729123566 2.6570310951968e-17)
(0.710982911389302 0.0067022739368514 4.72163721102651e-17)
(0.853494204375687 0.0031345730268691 -2.76393269335648e-18)
(0.733375659518581 0.00599509677587513 5.92047127311587e-17)
(0.867781119281343 0.00270671426341354 -3.75567003179406e-17)
(0.757304964979195 0.00514630983215696 -6.47625408771013e-17)
(0.882588173892092 0.00221992367686647 -1.07532736542612e-17)
(0.781778589064242 0.00427289061750431 -1.36935750738645e-16)
(0.898219959211623 0.00170936548908612 3.89507831329356e-19)
(0.808095480402922 0.00322543075032953 3.82045243140247e-17)
(0.914263585824041 0.00120333324701562 -8.81347541264315e-18)
(0.834247529877322 0.00225001956718218 -3.66836529140678e-17)
(0.931593716272303 0.000774114256793027 -6.33857882166266e-18)
(0.863851290628623 0.00123844115709159 -4.23115454318718e-20)
(0.949191230459967 0.000321721336407657 1.16141431429507e-19)
(0.89127636182495 0.000441881290467184 -1.15235214753489e-17)
(0.96933263264786 4.04005361939925e-05 -1.13332524270639e-17)
(0.926551283166928 -0.000583291181766132 4.80239619296751e-17)
(0.989281682298169 -0.00028618613738709 -2.91752424240546e-18)
(0.955136398838881 -0.000985973911816857 -4.49002754828105e-17)
(1.01219532227905 -5.20898866564845e-05 3.17679360617094e-17)
(1.00178715074464 -0.00164984436557753 5.52142647845961e-17)
(1.01150307516521 6.70742055395895e-05 1.04341683160149e-17)
(1.01917212488123 -3.76021235951478e-05 4.98287535214322e-17)
(1.0141188996763 8.91101491431667e-05 -8.60552417714695e-18)
(1.01158062092087 -0.000182373545341779 -8.34962906586535e-18)
(1.01425386282285 9.96888132347425e-05 7.76973413281904e-18)
(1.01803084724817 1.83452813344206e-05 -5.03836349134012e-18)
(1.01518715723509 0.000133909943690584 1.07628600175448e-17)
(1.01478712079702 -4.92933094646059e-06 3.88201542505139e-17)
(1.01495486744433 0.000131073573138564 -8.42554185369294e-18)
(1.01647367325296 9.36236039070541e-05 -1.53724980446049e-17)
(1.01489909020097 0.000123126935295472 -1.35939803047542e-17)
(1.01438277352641 8.01257491746787e-05 -2.76384427865097e-17)
(1.01433441454217 0.000124109567496515 -8.00021972142658e-18)
(1.01406105814035 0.00011517157594204 -1.43783919662025e-17)
(1.01372821006937 0.000116559299165148 -5.4636407987972e-18)
(1.01221074739067 0.000111991880707311 -7.37717892440967e-18)
(1.01290608070248 0.000102647189689744 1.96769052721241e-18)
(1.01093545941541 0.000117090849221392 -4.34757726051551e-18)
(1.01207270470221 9.0588482127515e-05 -1.27146027031538e-18)
(1.00908424411936 0.000106219519772747 2.14097192052498e-17)
(1.01118144482897 7.72730204800709e-05 -5.38733420572578e-18)
(1.0074904050833 9.82762157093154e-05 -1.68508975900491e-17)
(1.01029989723392 7.59079366246425e-05 -1.73717621094687e-18)
(1.00567262908154 8.46042830747464e-05 -3.45916451957684e-18)
(1.0093675025387 0.000160221547142144 -9.45414758678394e-19)
(1.00413548209651 7.73185981454405e-05 -2.58981763107303e-18)
(1.00249498394252 5.56117333156285e-05 -1.11573765667062e-18)
(0.383054947099941 0.00193130382259762 -8.01298359530957e-18)
(0.241294170457819 0.00299742137548198 -6.35512511325557e-18)
(0.38379834507693 0.00202496939109333 -6.83820700179509e-18)
(0.243849205487909 0.00326190555606382 -8.80562910307475e-18)
(0.384181842615136 0.00211963987542086 -7.52524848745614e-18)
(0.244160058359682 0.00346368935047922 -4.88298190960848e-18)
(0.384239142911529 0.00222353734783646 -1.51884698031541e-17)
(0.24440515292455 0.00369575518921764 -1.58198471543762e-17)
(0.384110174411185 0.00228234422907325 -3.21505121637234e-17)
(0.244266636656344 0.00382841813181355 -2.61397763975459e-17)
(0.383902122574302 0.00231230539513104 -2.75062613368011e-17)
(0.244003324782033 0.00389196677001804 -4.44866127801074e-17)
(0.3836673249513 0.00232819337580396 1.10628077460007e-17)
(0.243689179379377 0.00392200521570622 -1.03736689834526e-17)
(0.383423365871905 0.00233814266015547 2.16867587230163e-17)
(0.243359776913689 0.00393783032281821 2.72882825943597e-17)
(0.383175406106505 0.00234684983995395 2.67673883454758e-17)
(0.243023583447068 0.00394907637759339 1.07896228018114e-17)
(0.382925204565968 0.00235583023385741 3.74694424928942e-17)
(0.242684008006446 0.00396036166591852 6.11695823569935e-17)
(0.382672910625071 0.00236354340093326 -7.74856437468633e-19)
(0.242341628513069 0.00397171367453257 3.7828583840383e-17)
(0.382417383227015 0.00236992458864902 -8.45947936444097e-18)
(0.241995182620765 0.00398051706122765 -1.70821126109308e-17)
(0.382158035596705 0.0023779591693413 3.15183280538192e-17)
(0.241644096454402 0.00398939469190932 3.78163061758377e-17)
(0.38189454278286 0.00238758027627865 4.34440074378373e-17)
(0.241287993587738 0.00400156825191152 5.62878010230046e-17)
(0.381626266688025 0.00239548684851202 2.12021136092532e-17)
(0.240926513675777 0.00401369463894793 4.12272665376382e-17)
(0.381353380689649 0.00240162242279169 3.2726817537187e-18)
(0.240558881816249 0.00402249717563051 9.11332225234592e-18)
(0.3810762952696 0.00240915057160703 -9.88938010614737e-18)
(0.240185682497137 0.00403109556537437 1.28815432341392e-17)
(0.380794929848605 0.00241793848420107 -2.15186334212273e-18)
(0.239806882354106 0.00404268004832913 -3.73767780863945e-17)
(0.380507841169856 0.00242600738582131 -1.123694383554e-17)
(0.239421740544795 0.00405395788288347 3.88729996390005e-17)
(0.380214541837702 0.00243395950027613 -6.68025281276622e-17)
(0.239029490289222 0.00406429386274201 -7.54126671794063e-17)
(0.379915376821799 0.00244265132137588 -1.00329925518614e-16)
(0.238629572969137 0.00407541244725384 -1.21542567785101e-16)
(0.379611123208147 0.00245105627931602 -1.07234326648401e-16)
(0.238222940596238 0.00408725382313039 -1.37917829382713e-16)
(0.37930106551464 0.00245881530385152 -3.94879787006873e-17)
(0.237809414711386 0.0040978683746101 -1.23431177102266e-16)
(0.378984700596882 0.00246730062189727 1.8121961665993e-17)
(0.237388087823919 0.00410854925156679 5.49871932375191e-17)
(0.378662135031151 0.00247683647035397 1.66312182325986e-17)
(0.236958604193783 0.00412075495288621 3.23031847836247e-17)
(0.378333549038942 0.00248623544217801 4.88376411438215e-18)
(0.236521629381047 0.00413369334555747 3.25207892499513e-17)
(0.377997940493993 0.00249529846718853 -2.28527859773253e-17)
(0.23607652961293 0.00414577818496541 -1.81240432500898e-17)
(0.377655245174147 0.00250538677129162 -2.83161199500384e-17)
(0.235622148177957 0.00415825769626942 -6.56546778780566e-17)
(0.37730659847249 0.00251624612752109 9.77029524762599e-18)
(0.235159475281829 0.00417251749986817 1.23572159511965e-17)
(0.376951319031455 0.00252674756731064 5.63597946887522e-17)
(0.234689052814576 0.00418672383091107 5.97683425161768e-17)
(0.376588361094474 0.0025373935619716 3.30318154389633e-17)
(0.23420933287083 0.00420046222058307 9.96160680579317e-17)
(0.376218044306935 0.00254984692866216 -4.01213008723233e-17)
(0.23371946266901 0.00421524392209629 -4.32051475295992e-18)
(0.375842173836007 0.00256333280009406 -5.30826956523057e-17)
(0.233221539963531 0.00423282370663821 -1.072323972259e-16)
(0.375458967170192 0.00257677929237382 3.38701451679112e-18)
(0.23271567360977 0.0042499808523731 -2.31945235844193e-17)
(0.375067486283564 0.00259097993452771 1.06513374246677e-16)
(0.232199865561236 0.00426784558130487 6.33827550209967e-17)
(0.374670319606853 0.00260615251875732 9.60470036645863e-17)
(0.231673685976574 0.00428676143492708 1.71651816759631e-16)
(0.374271026668117 0.00262189137481166 3.53481610259528e-17)
(0.2311421688505 0.00430670691846157 -5.62794484969227e-18)
(0.373866800399342 0.00263895986840846 8.13566658754272e-17)
(0.230605755247256 0.00432708504689197 9.6940217956503e-17)
(0.373456173346831 0.00265972995053982 1.03463973025339e-16)
(0.230059760995801 0.00435046049865221 1.42933599476243e-16)
(0.373042086611082 0.00268370616479312 6.03513559809474e-17)
(0.22950755871755 0.00437890767684768 1.34369441706314e-16)
(0.372625667728151 0.00270748172487852 6.42096872389338e-17)
(0.228952255545846 0.00440928747132791 2.32356829414564e-17)
(0.372207629599483 0.00273131171542217 1.23701124048146e-16)
(0.228392822309581 0.00443768636153322 1.42579611723728e-16)
(0.371792060272307 0.00276125797325566 1.12131235200041e-16)
(0.22783088021481 0.00446889784151885 1.76479403379088e-16)
(0.371386795395925 0.00279538577813308 8.31457363654422e-17)
(0.227274933022082 0.00451019513261385 1.07503669908551e-16)
(0.370990904477365 0.00282936768730181 1.34090626895929e-16)
(0.226729813742273 0.00455063258164988 1.07102321268993e-16)
(0.37060413694581 0.00286851859882373 1.73448172185616e-16)
(0.226192802458841 0.00459255865127293 2.25388044512785e-16)
(0.370233127462078 0.00291968198204872 2.45610493382722e-16)
(0.225665939927842 0.00464496699541045 2.11015230887404e-16)
(0.369891349883917 0.00297457221338527 2.48110913731327e-16)
(0.225167393373471 0.0047122062552844 3.55936428001342e-16)
(0.36957761424814 0.00302744959450566 1.19024009037764e-16)
(0.224703452554529 0.00477303213182143 2.23052327562387e-16)
(0.369299623259341 0.00309277829199528 1.09556571167353e-16)
(0.224270491123005 0.00483776612768969 9.61163661894238e-17)
(0.369077360079185 0.00317606680504545 1.09849922632097e-16)
(0.223888793394229 0.00492533852242342 2.02202339908912e-16)
(0.368924659776382 0.00326211387553898 -7.05090385559711e-19)
(0.223585915893079 0.00502819229313037 -2.5772478930931e-18)
(0.36884580611766 0.0033479190861902 -3.47457715911635e-17)
(0.223367092471911 0.00512246450757713 -6.69343228015373e-17)
(0.368862311526753 0.00346116704876556 -1.05567295815758e-17)
(0.223237453840838 0.00522784259782347 -2.0782235584583e-17)
(0.369017804718667 0.00359612214839289 5.41407828576856e-17)
(0.223249616261673 0.00537913360003567 -3.50831141036138e-17)
(0.369324965357604 0.00372686543222259 1.52280160671385e-16)
(0.223442918008038 0.00553066489742792 1.90090376927803e-16)
(0.369808092799315 0.00386924056131912 1.57324912116918e-16)
(0.223823240378989 0.00567511972045685 2.18056982865958e-16)
(0.370514724150784 0.00406406691482552 6.687134638449e-17)
(0.224428482127863 0.0058548257636117 1.38235439770271e-16)
(0.371520092019009 0.00427783292147008 -6.75368205609581e-17)
(0.225359967518932 0.00610701855939642 -8.54014097180017e-18)
(0.372851667846184 0.00447555017324373 -1.75993685608948e-16)
(0.226675382332843 0.00632665655956095 -1.54454555639233e-16)
(0.374584784713508 0.00471966730125577 -1.56406799850833e-16)
(0.22840087197642 0.0065505044187426 -2.52049626832729e-16)
(0.376867689301363 0.00506561752156307 4.87217002513291e-18)
(0.230665992022128 0.00687062027754087 -8.70744988870923e-17)
(0.379919909287447 0.00547148958869922 6.15685266803612e-17)
(0.233710111808556 0.00731001696431784 8.74794788768694e-17)
(0.384029916802733 0.0059304198885279 6.48772622217119e-17)
(0.237795501307335 0.00775667032888599 3.13297781885822e-17)
(0.389585540707007 0.00667577588244075 1.55436730406237e-16)
(0.243223318380592 0.00834591652844051 1.37680190335712e-16)
(0.397110476228841 0.00762825661357721 8.81222734372194e-17)
(0.250707513198093 0.00938597219272213 2.01947980210033e-16)
(0.406796724186659 0.00847390201573796 -8.21707115032272e-17)
(0.260764975621839 0.0103964317752243 -5.70023617805817e-17)
(0.418805845924842 0.0092716680393546 -1.67945263649198e-17)
(0.273509582067265 0.01122941871073 -1.65185430463197e-16)
(0.433300647979656 0.0101317939609092 1.88609149293813e-17)
(0.289159026858813 0.0121213286805233 1.21278649842456e-16)
(0.450456602337624 0.010735055114849 -9.9146155254754e-17)
(0.308119054865875 0.0130022440953395 -1.23258881590452e-17)
(0.470172292536168 0.0109465442506774 -7.6206474608462e-17)
(0.330330301505456 0.013308760266635 -1.198199444469e-16)
(0.492430740741875 0.0110384853919462 -9.90578415134596e-17)
(0.355614494086529 0.0133468544130609 -4.40753286304282e-17)
(0.517195974528029 0.0109114246910077 -8.89202792491106e-17)
(0.38398073030761 0.0132910053890016 -2.42220757228172e-16)
(0.544296568438366 0.0104308249669652 1.62452772169812e-16)
(0.415438168821877 0.0128045751325531 -2.13877288667403e-17)
(0.573507621230737 0.00971135308182625 1.95825451292221e-16)
(0.449477374851545 0.0119691456833069 4.31654556932173e-16)
(0.604658208056088 0.00878174312565535 7.98598233011322e-17)
(0.486137449645587 0.0109022877007193 9.34902007349943e-17)
(0.637521046480578 0.00762892809199001 -3.34501866466578e-18)
(0.524707882645242 0.00956703561308918 6.09058979726567e-17)
(0.672002419019197 0.00636586962498318 -1.64092286587401e-16)
(0.565759783668735 0.00800397967610776 -1.4394604441968e-16)
(0.707913883750073 0.00495673889511203 -8.68033741714011e-17)
(0.607808233236057 0.00637972695052744 -2.6897751600142e-16)
(0.745377128117355 0.00348617581385739 7.02150996945075e-19)
(0.652978424355039 0.00448790713188234 8.13044041161128e-17)
(0.784256046772366 0.0020196945471269 -2.7552728798335e-17)
(0.697532188751546 0.00271711569857784 -7.0515959967414e-17)
(0.825317557093435 0.000695398729234474 -5.31872511872822e-18)
(0.74791049973192 0.000842326397069192 -1.36033508302259e-19)
(0.868310494477735 -0.000683336195967299 3.64721060808782e-17)
(0.794645969927071 -0.000682911696598739 1.97488596426617e-17)
(0.915068792160402 -0.00171626342090378 1.32189141959875e-17)
(0.854376044739099 -0.00261571049875036 1.15649238927058e-16)
(0.964884816555708 -0.00263513390185998 1.40139990283055e-17)
(0.902422551472818 -0.00352717597104451 -4.22199770168918e-17)
(1.01521634346973 -0.00139863971567832 7.26501494492722e-17)
(0.981251174380525 -0.00470029071252966 8.77052223955365e-17)
(1.01572706581045 -0.000131861431650956 3.07719540741545e-17)
(1.01006000155864 -4.64775846714054e-05 7.81125633839543e-17)
(1.01756988119462 -4.9122125287424e-05 -4.8279531940169e-18)
(0.996036058031275 -0.000290165051962591 3.23797454319017e-18)
(1.01721400351987 2.37304122787897e-05 2.5859772384399e-17)
(1.00596495411283 3.04892431840535e-05 -1.05230106205251e-17)
(1.01683894109954 0.000109588198981765 1.25771181617026e-17)
(0.999429009953843 -1.25611208350118e-05 5.01438890444565e-17)
(1.01540897122817 0.000140581962024019 -3.43859244214463e-17)
(1.00156995006086 0.000139304200885981 -4.87772794450745e-17)
(1.01383750963787 0.000150672900850628 -2.82896564487164e-17)
(0.997399412641798 0.000118561066562386 -4.21056944491938e-17)
(1.01177669675479 0.000171219787367747 -1.37003283263319e-17)
(0.996363582076552 0.000172768877054762 -2.80619574244064e-17)
(1.00954636804659 0.000173679833653312 -6.2509329063633e-18)
(0.992850318070503 0.00016658556066664 -1.80128945669543e-17)
(1.00708938667255 0.000164319163549862 1.50621599224708e-17)
(0.99041436326887 0.000175534962642708 -8.65937300985559e-18)
(1.00457490921574 0.000153419513711498 5.71357343069075e-18)
(0.987020907076369 0.000158724737776464 4.30238607554828e-17)
(1.00202146203855 0.000140079585508066 -1.48460965921067e-17)
(0.984106233549424 0.000146880042257919 -2.89037540802491e-17)
(0.999543454748815 0.000144100319522248 -4.29924206032537e-18)
(0.980818156779405 0.000125969431189236 -3.20894331314589e-18)
(0.997307663289531 0.00024746764241935 -2.75551907855909e-18)
(0.978059915082693 0.000111945719673618 -2.7969198811234e-18)
(0.975380226423812 7.72122829818478e-05 -2.10451154443585e-18)
(0.101290697285123 0.00425119956668617 -7.14903377077099e-18)
(-0.00393369918933587 0.00548547806132145 -7.28353282965209e-18)
(0.102772775666683 0.00473304024866789 -6.84237140758963e-18)
(-0.000736743407157115 0.0058782392187069 -1.16650404940346e-17)
(0.103270243910909 0.00512073170302732 -1.32242814245635e-17)
(-0.000384317484708079 0.00657174799818107 -1.41685025469197e-17)
(0.103263314948291 0.00538876203964817 -2.68414112411503e-17)
(-0.000231382968571375 0.00704922603304463 -2.6459607045896e-17)
(0.103004462821729 0.00552934142429005 -3.8541197617782e-17)
(-0.000506857020982247 0.00730456529854936 -4.01094181211391e-17)
(0.102643288333151 0.00559427888238759 -2.72798746378202e-17)
(-0.000914227032489828 0.0074197312244879 -4.85786925839405e-17)
(0.102246015711441 0.00562494182588137 5.91275582527303e-18)
(-0.00137481607798033 0.00747053332916194 -1.01324500890152e-17)
(0.101835774944352 0.00564248324136482 1.63334628635752e-17)
(-0.00185242434675648 0.0074958459558924 2.30156517678151e-17)
(0.101419161049642 0.00565669485145006 4.53775641144993e-17)
(-0.00233840129174441 0.00751319639681905 -3.43364691003047e-18)
(0.100998559243153 0.00567072919164979 6.15705939327536e-17)
(-0.00282959657548139 0.00752970874304194 7.91683351289711e-17)
(0.100574039429036 0.00568355354377988 2.14824058477484e-17)
(-0.00332496350968754 0.00754618518450617 4.79321165791647e-17)
(0.100143544730107 0.0056952381530116 2.94657357629355e-17)
(-0.00382609263393777 0.00756059692263685 8.98088953810627e-18)
(0.0997064592775067 0.00570864227673973 6.27473189304734e-17)
(-0.00433468044894006 0.00757522683918348 5.1680963655137e-17)
(0.0992638478771214 0.00572367352865947 5.40752298135259e-17)
(-0.00485001296479253 0.00759283703004165 7.66791017578086e-17)
(0.0988151637860217 0.00573705752318209 2.90906286369461e-17)
(-0.00537130187643961 0.00761048229929269 4.34815360738218e-17)
(0.0983587632376901 0.00574871070018798 1.87881479977948e-17)
(-0.00590035821898233 0.00762521341026473 2.40554838215165e-17)
(0.0978947180747816 0.00576176694813976 -1.47472871988562e-17)
(-0.00643831901015398 0.00763979401789117 3.51747151129117e-17)
(0.0974240558228612 0.00577620965261147 3.86006179756312e-18)
(-0.00698415186713658 0.00765709620184742 -3.52470804216788e-17)
(0.0969455807435328 0.00579010290017931 -2.56430962501845e-17)
(-0.00753770616131819 0.00767432839255524 3.95595289792018e-17)
(0.0964581738129444 0.00580396277662157 -1.30493460786753e-16)
(-0.0081005414581186 0.00769081886756127 -9.42575150643166e-17)
(0.0959622855828677 0.00581860561184251 -1.59376641620215e-16)
(-0.00867320797612295 0.00770809865143572 -1.3178310880184e-16)
(0.0954584158642675 0.00583303024257105 -1.54236340841321e-16)
(-0.00925469733361802 0.00772608114824793 -1.49499773749669e-16)
(0.0949453679132008 0.00584692008561109 -2.84401138168751e-17)
(-0.009845592367184 0.00774306777154842 -1.25382223352224e-16)
(0.0944224921007422 0.00586167743960016 6.9276245536898e-17)
(-0.0104472979964533 0.00776021629176991 7.09205799814052e-17)
(0.093890328977057 0.005877650693368 4.82969695341028e-17)
(-0.011059773416579 0.00777893321657 9.84833437660033e-17)
(0.0933489319922353 0.00589363302890823 9.38524521958399e-18)
(-0.0116821866884969 0.00779847254157479 5.18664420214458e-17)
(0.0927969466096851 0.00590945255116682 -6.11836369541519e-17)
(-0.0123154698556814 0.00781738180860253 -3.06985067402586e-17)
(0.0922342045154241 0.00592645875902698 -2.47439817075859e-17)
(-0.0129610414200833 0.00783681990710827 -7.65584208451101e-17)
(0.0916618313918639 0.00594442291373318 6.26587779652298e-17)
(-0.0136178682935973 0.00785806299310387 8.69356114001398e-17)
(0.0910790828516328 0.0059621973800987 1.03287267808302e-16)
(-0.014285418728363 0.00787945329152129 9.26809913284333e-17)
(0.0904845200017752 0.00598036233331046 6.20343685219212e-17)
(-0.0149654318067847 0.00790054836750274 1.25753064367096e-16)
(0.0898786278526951 0.00600061953473017 -7.18446033128353e-17)
(-0.0156589630378952 0.00792290495287417 -6.35093003193509e-18)
(0.0892632214807555 0.00602221077192594 -7.71495320297511e-17)
(-0.0163637477677073 0.00794809122122245 -1.34701068215324e-16)
(0.0886367672094696 0.00604404749531494 3.717629074276e-17)
(-0.0170795579182254 0.00797318709313786 -9.66402539318352e-18)
(0.0879984168258562 0.00606688614076174 1.289385177701e-16)
(-0.0178084086801736 0.00799910652147853 1.20160327823007e-16)
(0.0873501082020707 0.00609091201601653 6.93123281680958e-17)
(-0.0185502490991867 0.00802628256843282 1.84800890202735e-16)
(0.0866939223535012 0.00611582583597743 5.6369507178058e-17)
(-0.0193018833564912 0.00805460305348326 -6.51372743296865e-17)
(0.0860279855936162 0.00614269669932189 1.58885322652563e-16)
(-0.0200633196699446 0.00808372205816575 1.38316085745277e-16)
(0.0853524098782384 0.0061739778111823 1.73996076396139e-16)