/*--------------------------------*- C++ -*----------------------------------*\
| =========                 |                                                 |
| \\      /  F ield         | OpenFOAM: The Open Source CFD Toolbox           |
|  \\    /   O peration     | Version:  4.1                                   |
|   \\  /    A nd           | Web:      www.OpenFOAM.org                      |
|    \\/     M anipulation  |                                                 |
\*---------------------------------------------------------------------------*/
FoamFile
{
    version     2.0;
    format      ascii;
    class       volVectorField;
    location    "0.0052";
    object      cellDisplacement;
}
// * * * * * * * * * * * * * * * * * * * * * * * * * * * * * * * * * * * * * //

dimensions      [0 1 0 0 0 0 0];

internalField   nonuniform List<vector> 
6144
(
(-4.399e-06 -6.3213e-07 1.5424e-10)
(-1.2709e-05 -1.4333e-06 3.5966e-10)
(-1.9818e-05 -1.2186e-06 3.5802e-10)
(-2.5619e-05 -2.6121e-07 2.0004e-10)
(-3.0513e-05 6.3324e-07 4.6712e-11)
(-3.4967e-05 8.9718e-07 4.1161e-11)
(-3.922e-05 5.3151e-07 1.9926e-10)
(-4.3323e-05 -1.9224e-07 4.7037e-10)
(-4.7257e-05 -1.062e-06 8.0187e-10)
(-5.099e-05 -1.9939e-06 1.1548e-09)
(-5.4486e-05 -2.9836e-06 1.5227e-09)
(-5.7714e-05 -4.0664e-06 1.925e-09)
(-6.0654e-05 -5.2937e-06 2.3776e-09)
(-6.3284e-05 -6.7151e-06 2.8929e-09)
(-6.5583e-05 -8.3734e-06 3.4829e-09)
(-6.7519e-05 -1.0307e-05 4.1595e-09)
(-6.9056e-05 -1.2555e-05 4.9402e-09)
(-7.016e-05 -1.5165e-05 5.8458e-09)
(-7.0805e-05 -1.8178e-05 6.876e-09)
(-7.0969e-05 -2.1612e-05 8.0219e-09)
(-7.0634e-05 -2.5446e-05 9.2955e-09)
(-6.9784e-05 -2.9625e-05 1.0689e-08)
(-6.8403e-05 -3.4073e-05 1.2159e-08)
(-6.648e-05 -3.8703e-05 1.3672e-08)
(-6.4016e-05 -4.3414e-05 1.523e-08)
(-6.1038e-05 -4.808e-05 1.6801e-08)
(-5.7618e-05 -5.253e-05 1.8301e-08)
(-5.3866e-05 -5.6518e-05 1.9613e-08)
(-4.9907e-05 -5.9705e-05 2.0579e-08)
(-4.5825e-05 -6.1695e-05 2.1102e-08)
(-4.1652e-05 -6.2151e-05 2.1205e-08)
(-3.7379e-05 -6.0949e-05 2.0868e-08)
(-3.3019e-05 -5.8208e-05 2.002e-08)
(-2.8651e-05 -5.4183e-05 1.8689e-08)
(-2.4429e-05 -4.9134e-05 1.6957e-08)
(-2.0533e-05 -4.3246e-05 1.491e-08)
(-1.7094e-05 -3.6626e-05 1.2605e-08)
(-1.4151e-05 -2.9377e-05 1.0104e-08)
(-1.1642e-05 -2.171e-05 7.5076e-09)
(-9.4562e-06 -1.4027e-05 4.9343e-09)
(-7.5024e-06 -6.9056e-06 2.5544e-09)
(-5.7563e-06 -9.6064e-07 5.5104e-10)
(-4.2546e-06 3.34e-06 -9.26e-10)
(-3.0435e-06 5.8132e-06 -1.7949e-09)
(-2.1217e-06 6.5533e-06 -2.0823e-09)
(-1.4192e-06 5.8183e-06 -1.8743e-09)
(-8.309e-07 3.9579e-06 -1.2819e-09)
(-2.7597e-07 1.3987e-06 -4.5253e-10)
(-4.3159e-06 -5.1429e-07 8.6082e-08)
(-1.2502e-05 -1.1687e-06 1.9548e-07)
(-1.9584e-05 -1.0026e-06 1.6731e-07)
(-2.544e-05 -2.3093e-07 3.7874e-08)
(-3.0409e-05 5.0303e-07 -8.4769e-08)
(-3.491e-05 7.3082e-07 -1.2226e-07)
(-3.918e-05 4.3103e-07 -7.1519e-08)
(-4.3284e-05 -1.862e-07 3.206e-08)
(-4.7213e-05 -9.4279e-07 1.5885e-07)
(-5.094e-05 -1.762e-06 2.9618e-07)
(-5.4429e-05 -2.6364e-06 4.4279e-07)
(-5.7653e-05 -3.5945e-06 6.0346e-07)
(-6.0588e-05 -4.6799e-06 7.8549e-07)
(-6.3213e-05 -5.9356e-06 9.9601e-07)
(-6.5505e-05 -7.3993e-06 1.2412e-06)
(-6.7434e-05 -9.105e-06 1.5269e-06)
(-6.8964e-05 -1.1088e-05 1.859e-06)
(-7.0062e-05 -1.3389e-05 2.2442e-06)
(-7.0702e-05 -1.6043e-05 2.6882e-06)
(-7.0862e-05 -1.9063e-05 3.1931e-06)
(-7.0523e-05 -2.2431e-05 3.756e-06)
(-6.967e-05 -2.61e-05 4.3692e-06)
(-6.8288e-05 -3.0005e-05 5.0214e-06)
(-6.6366e-05 -3.4068e-05 5.6997e-06)
(-6.3909e-05 -3.8199e-05 6.3891e-06)
(-6.0946e-05 -4.2286e-05 7.071e-06)
(-5.7548e-05 -4.6175e-05 7.7195e-06)
(-5.382e-05 -4.9647e-05 8.2981e-06)
(-4.9877e-05 -5.2409e-05 8.7577e-06)
(-4.5804e-05 -5.4124e-05 9.0425e-06)
(-4.1632e-05 -5.4511e-05 9.106e-06)
(-3.7364e-05 -5.3463e-05 8.9306e-06)
(-3.3021e-05 -5.1075e-05 8.5317e-06)
(-2.8682e-05 -4.7559e-05 7.9448e-06)
(-2.4493e-05 -4.3135e-05 7.2068e-06)
(-2.0621e-05 -3.7967e-05 6.3449e-06)
(-1.719e-05 -3.2155e-05 5.3759e-06)
(-1.4236e-05 -2.5803e-05 4.3165e-06)
(-1.1708e-05 -1.9102e-05 3.1991e-06)
(-9.5061e-06 -1.2404e-05 2.0825e-06)
(-7.5471e-06 -6.2045e-06 1.0494e-06)
(-5.8056e-06 -1.0254e-06 1.8638e-07)
(-4.3106e-06 2.7356e-06 -4.4098e-07)
(-3.099e-06 4.9182e-06 -8.062e-07)
(-2.1662e-06 5.5961e-06 -9.2113e-07)
(-1.4466e-06 4.989e-06 -8.223e-07)
(-8.4314e-07 3.4013e-06 -5.6078e-07)
(-2.7902e-07 1.2033e-06 -1.9836e-07)
(-4.261e-06 -4.1373e-07 1.6635e-07)
(-1.2365e-05 -9.4187e-07 3.7848e-07)
(-1.9426e-05 -8.1286e-07 3.2641e-07)
(-2.5316e-05 -1.96e-07 7.8459e-08)
(-3.0334e-05 3.9714e-07 -1.5895e-07)
(-3.4868e-05 5.8628e-07 -2.3354e-07)
(-3.9151e-05 3.4328e-07 -1.355e-07)
(-4.3257e-05 -1.689e-07 6.9412e-08)
(-4.7183e-05 -8.0492e-07 3.2363e-07)
(-5.0904e-05 -1.4987e-06 6.0119e-07)
(-5.439e-05 -2.242e-06 8.9873e-07)
(-5.761e-05 -3.0574e-06 1.2253e-06)
(-6.0541e-05 -3.9809e-06 1.5952e-06)
(-6.3163e-05 -5.0485e-06 2.0227e-06)
(-6.545e-05 -6.2923e-06 2.5206e-06)
(-6.7374e-05 -7.7414e-06 3.1006e-06)
(-6.8899e-05 -9.4261e-06 3.7747e-06)
(-6.9993e-05 -1.138e-05 4.5562e-06)
(-7.063e-05 -1.3631e-05 5.4565e-06)
(-7.0787e-05 -1.6191e-05 6.4799e-06)
(-7.0446e-05 -1.9043e-05 7.6203e-06)
(-6.9591e-05 -2.215e-05 8.8621e-06)
(-6.8207e-05 -2.5456e-05 1.0183e-05)
(-6.6287e-05 -2.8896e-05 1.1557e-05)
(-6.3835e-05 -3.2391e-05 1.2953e-05)
(-6.0882e-05 -3.5846e-05 1.4333e-05)
(-5.7499e-05 -3.9128e-05 1.5643e-05)
(-5.3787e-05 -4.2052e-05 1.681e-05)
(-4.9856e-05 -4.4371e-05 1.7734e-05)
(-4.5788e-05 -4.5805e-05 1.8305e-05)
(-4.1618e-05 -4.6123e-05 1.8432e-05)
(-3.7355e-05 -4.5239e-05 1.8077e-05)
(-3.3023e-05 -4.3226e-05 1.7273e-05)
(-2.8704e-05 -4.0258e-05 1.6087e-05)
(-2.4537e-05 -3.6517e-05 1.4593e-05)
(-2.0682e-05 -3.2142e-05 1.2846e-05)
(-1.7255e-05 -2.7222e-05 1.0882e-05)
(-1.4295e-05 -2.1852e-05 8.7387e-06)
(-1.1754e-05 -1.6197e-05 6.4821e-06)
(-9.5417e-06 -1.0556e-05 4.2312e-06)
(-7.5789e-06 -5.3395e-06 2.1504e-06)
(-5.8402e-06 -9.8019e-07 4.1165e-07)
(-4.3492e-06 2.1931e-06 -8.5453e-07)
(-3.1373e-06 4.0459e-06 -1.595e-06)
(-2.1974e-06 4.6363e-06 -1.833e-06)
(-1.4665e-06 4.1465e-06 -1.6413e-06)
(-8.5262e-07 2.8317e-06 -1.1214e-06)
(-2.8157e-07 1.0026e-06 -3.9709e-07)
(-4.2339e-06 -3.2596e-07 2.4518e-07)
(-1.2297e-05 -7.428e-07 5.5862e-07)
(-1.9348e-05 -6.4308e-07 4.836e-07)
(-2.5254e-05 -1.5872e-07 1.1945e-07)
(-3.0296e-05 3.088e-07 -2.3137e-07)
(-3.4846e-05 4.5906e-07 -3.4338e-07)
(-3.9136e-05 2.6682e-07 -1.9866e-07)
(-4.3242e-05 -1.419e-07 1.0788e-07)
(-4.7167e-05 -6.5265e-07 4.9079e-07)
(-5.0886e-05 -1.2121e-06 9.1041e-07)
(-5.437e-05 -1.8128e-06 1.361e-06)
(-5.7588e-05 -2.4723e-06 1.8559e-06)
(-6.0518e-05 -3.2191e-06 2.4163e-06)
(-6.3137e-05 -4.0822e-06 3.0639e-06)
(-6.5422e-05 -5.0873e-06 3.8181e-06)
(-6.7343e-05 -6.2583e-06 4.6965e-06)
(-6.8866e-05 -7.6194e-06 5.7174e-06)
(-6.9958e-05 -9.1972e-06 6.9009e-06)
(-7.0593e-05 -1.1015e-05 8.2639e-06)
(-7.0749e-05 -1.308e-05 9.8128e-06)
(-7.0406e-05 -1.5381e-05 1.1538e-05)
(-6.955e-05 -1.7887e-05 1.3417e-05)
(-6.8166e-05 -2.0553e-05 1.5416e-05)
(-6.6246e-05 -2.3326e-05 1.7495e-05)
(-6.3797e-05 -2.6144e-05 1.9607e-05)
(-6.085e-05 -2.8927e-05 2.1693e-05)
(-5.7474e-05 -3.1569e-05 2.3673e-05)
(-5.377e-05 -3.392e-05 2.5435e-05)
(-4.9845e-05 -3.5781e-05 2.6829e-05)
(-4.578e-05 -3.6929e-05 2.769e-05)
(-4.1612e-05 -3.7183e-05 2.7879e-05)
(-3.735e-05 -3.647e-05 2.7344e-05)
(-3.3025e-05 -3.485e-05 2.6129e-05)
(-2.8715e-05 -3.246e-05 2.4337e-05)
(-2.456e-05 -2.9445e-05 2.2077e-05)
(-2.0712e-05 -2.5918e-05 1.9433e-05)
(-1.7289e-05 -2.1952e-05 1.6461e-05)
(-1.4325e-05 -1.7626e-05 1.3219e-05)
(-1.1778e-05 -1.3075e-05 9.8085e-06)
(-9.5601e-06 -8.5396e-06 6.4096e-06)
(-7.5954e-06 -4.3477e-06 3.2684e-06)
(-5.8578e-06 -8.4398e-07 6.4317e-07)
(-4.3688e-06 1.7095e-06 -1.2703e-06)
(-3.1567e-06 3.2051e-06 -2.3915e-06)
(-2.2134e-06 3.6887e-06 -2.7552e-06)
(-1.477e-06 3.3055e-06 -2.4701e-06)
(-8.5781e-07 2.2597e-06 -1.689e-06)
(-2.8302e-07 8.0046e-07 -5.9834e-07)
(-4.2339e-06 -2.4517e-07 3.2597e-07)
(-1.2297e-05 -5.5857e-07 7.4282e-07)
(-1.9348e-05 -4.8351e-07 6.4314e-07)
(-2.5254e-05 -1.1931e-07 1.5883e-07)
(-3.0296e-05 2.3158e-07 -3.086e-07)
(-3.4846e-05 3.4369e-07 -4.5876e-07)
(-3.9136e-05 1.9908e-07 -2.6641e-07)
(-4.3242e-05 -1.0735e-07 1.4244e-07)
(-4.7167e-05 -4.9014e-07 6.533e-07)
(-5.0886e-05 -9.0964e-07 1.2129e-06)
(-5.437e-05 -1.3602e-06 1.8137e-06)
(-5.7588e-05 -1.8549e-06 2.4733e-06)
(-6.0518e-05 -2.4152e-06 3.2202e-06)
(-6.3137e-05 -3.0627e-06 4.0833e-06)
(-6.5422e-05 -3.8168e-06 5.0886e-06)
(-6.7343e-05 -4.6951e-06 6.2595e-06)
(-6.8866e-05 -5.716e-06 7.6207e-06)
(-6.9958e-05 -6.8994e-06 9.1986e-06)
(-7.0593e-05 -8.2624e-06 1.1016e-05)
(-7.0749e-05 -9.8113e-06 1.3081e-05)
(-7.0407e-05 -1.1537e-05 1.5383e-05)
(-6.955e-05 -1.3416e-05 1.7889e-05)
(-6.8166e-05 -1.5414e-05 2.0554e-05)
(-6.6246e-05 -1.7493e-05 2.3328e-05)
(-6.3797e-05 -1.9605e-05 2.6145e-05)
(-6.085e-05 -2.1692e-05 2.8928e-05)
(-5.7474e-05 -2.3672e-05 3.157e-05)
(-5.377e-05 -2.5433e-05 3.3921e-05)
(-4.9845e-05 -2.6827e-05 3.5782e-05)
(-4.578e-05 -2.7688e-05 3.6931e-05)
(-4.1612e-05 -2.7877e-05 3.7184e-05)
(-3.735e-05 -2.7342e-05 3.6471e-05)
(-3.3025e-05 -2.6127e-05 3.4851e-05)
(-2.8715e-05 -2.4335e-05 3.2461e-05)
(-2.456e-05 -2.2076e-05 2.9446e-05)
(-2.0712e-05 -1.9432e-05 2.5919e-05)
(-1.7288e-05 -1.646e-05 2.1953e-05)
(-1.4325e-05 -1.3218e-05 1.7627e-05)
(-1.1778e-05 -9.8077e-06 1.3076e-05)
(-9.5601e-06 -6.4091e-06 8.5399e-06)
(-7.5954e-06 -3.2683e-06 4.3477e-06)
(-5.8579e-06 -6.4326e-07 8.438e-07)
(-4.3688e-06 1.27e-06 -1.7098e-06)
(-3.1567e-06 2.3911e-06 -3.2055e-06)
(-2.2134e-06 2.7548e-06 -3.6891e-06)
(-1.477e-06 2.4697e-06 -3.3059e-06)
(-8.5781e-07 1.6887e-06 -2.26e-06)
(-2.8302e-07 5.9824e-07 -8.0057e-07)
(-4.261e-06 -1.6633e-07 4.1373e-07)
(-1.2365e-05 -3.7842e-07 9.4187e-07)
(-1.9426e-05 -3.2631e-07 8.1289e-07)
(-2.5316e-05 -7.8305e-08 1.9609e-07)
(-3.0334e-05 1.5918e-07 -3.9697e-07)
(-3.4868e-05 2.3386e-07 -5.86e-07)
(-3.9151e-05 1.3592e-07 -3.4288e-07)
(-4.3257e-05 -6.8879e-08 1.6943e-07)
(-4.7183e-05 -3.2298e-07 8.0556e-07)
(-5.0904e-05 -6.0043e-07 1.4995e-06)
(-5.439e-05 -8.9785e-07 2.2428e-06)
(-5.761e-05 -1.2243e-06 3.0584e-06)
(-6.0541e-05 -1.594e-06 3.9819e-06)
(-6.3163e-05 -2.0215e-06 5.0496e-06)
(-6.545e-05 -2.5193e-06 6.2934e-06)
(-6.7374e-05 -3.0992e-06 7.7426e-06)
(-6.8899e-05 -3.7732e-06 9.4273e-06)
(-6.9993e-05 -4.5547e-06 1.1381e-05)
(-7.063e-05 -5.455e-06 1.3632e-05)
(-7.0787e-05 -6.4783e-06 1.6192e-05)
(-7.0446e-05 -7.6187e-06 1.9044e-05)
(-6.9591e-05 -8.8605e-06 2.2151e-05)
(-6.8207e-05 -1.0181e-05 2.5457e-05)
(-6.6287e-05 -1.1555e-05 2.8897e-05)
(-6.3835e-05 -1.2951e-05 3.2392e-05)
(-6.0882e-05 -1.4331e-05 3.5847e-05)
(-5.7499e-05 -1.5641e-05 3.9129e-05)
(-5.3787e-05 -1.6808e-05 4.2053e-05)
(-4.9856e-05 -1.7732e-05 4.4371e-05)
(-4.5788e-05 -1.8303e-05 4.5805e-05)
(-4.1618e-05 -1.8429e-05 4.6124e-05)
(-3.7355e-05 -1.8075e-05 4.524e-05)
(-3.3023e-05 -1.7271e-05 4.3227e-05)
(-2.8704e-05 -1.6085e-05 4.0259e-05)
(-2.4537e-05 -1.4591e-05 3.6518e-05)
(-2.0682e-05 -1.2844e-05 3.2142e-05)
(-1.7255e-05 -1.0881e-05 2.7223e-05)
(-1.4295e-05 -8.7375e-06 2.1852e-05)
(-1.1754e-05 -6.4812e-06 1.6198e-05)
(-9.5417e-06 -4.2307e-06 1.0556e-05)
(-7.5789e-06 -2.1501e-06 5.3394e-06)
(-5.8402e-06 -4.1165e-07 9.7988e-07)
(-4.3492e-06 8.5433e-07 -2.1936e-06)
(-3.1374e-06 1.5946e-06 -4.0464e-06)
(-2.1974e-06 1.8326e-06 -4.6369e-06)
(-1.4665e-06 1.6409e-06 -4.147e-06)
(-8.5264e-07 1.1212e-06 -2.8321e-06)
(-2.8157e-07 3.97e-07 -1.0027e-06)
(-4.3159e-06 -8.6063e-08 5.1427e-07)
(-1.2502e-05 -1.9542e-07 1.1687e-06)
(-1.9584e-05 -1.6721e-07 1.0025e-06)
(-2.544e-05 -3.7715e-08 2.3096e-07)
(-3.0409e-05 8.4997e-08 -5.0291e-07)
(-3.491e-05 1.2257e-07 -7.3058e-07)
(-3.918e-05 7.1935e-08 -4.3066e-07)
(-4.3284e-05 -3.1532e-08 1.867e-07)
(-4.7213e-05 -1.5821e-07 9.4341e-07)
(-5.094e-05 -2.9543e-07 1.7628e-06)
(-5.4429e-05 -4.4192e-07 2.6372e-06)
(-5.7653e-05 -6.0248e-07 3.5954e-06)
(-6.0588e-05 -7.8441e-07 4.6809e-06)
(-6.3213e-05 -9.9483e-07 5.9366e-06)
(-6.5505e-05 -1.24e-06 7.4003e-06)
(-6.7434e-05 -1.5256e-06 9.1061e-06)
(-6.8964e-05 -1.8576e-06 1.1089e-05)
(-7.0062e-05 -2.2428e-06 1.339e-05)
(-7.0702e-05 -2.6867e-06 1.6044e-05)
(-7.0862e-05 -3.1916e-06 1.9064e-05)
(-7.0524e-05 -3.7545e-06 2.2432e-05)
(-6.967e-05 -4.3676e-06 2.6101e-05)
(-6.8288e-05 -5.0198e-06 3.0006e-05)
(-6.6367e-05 -5.698e-06 3.4069e-05)
(-6.3909e-05 -6.3874e-06 3.82e-05)
(-6.0946e-05 -7.0692e-06 4.2287e-05)
(-5.7548e-05 -7.7176e-06 4.6175e-05)
(-5.382e-05 -8.2961e-06 4.9647e-05)
(-4.9877e-05 -8.7556e-06 5.2409e-05)
(-4.5803e-05 -9.0403e-06 5.4124e-05)
(-4.1632e-05 -9.1038e-06 5.4511e-05)
(-3.7364e-05 -8.9285e-06 5.3463e-05)
(-3.302e-05 -8.5297e-06 5.1075e-05)
(-2.8682e-05 -7.9428e-06 4.7559e-05)
(-2.4493e-05 -7.205e-06 4.3136e-05)
(-2.0621e-05 -6.3433e-06 3.7967e-05)
(-1.719e-05 -5.3745e-06 3.2155e-05)
(-1.4236e-05 -4.3154e-06 2.5803e-05)
(-1.1708e-05 -3.1982e-06 1.9102e-05)
(-9.5062e-06 -2.0819e-06 1.2404e-05)
(-7.5472e-06 -1.0491e-06 6.2041e-06)
(-5.8057e-06 -1.8634e-07 1.0249e-06)
(-4.3107e-06 4.4083e-07 -2.7362e-06)
(-3.0991e-06 8.0593e-07 -4.9188e-06)
(-2.1663e-06 9.208e-07 -5.5967e-06)
(-1.4466e-06 8.2199e-07 -4.9895e-06)
(-8.4316e-07 5.6056e-07 -3.4016e-06)
(-2.7903e-07 1.9828e-07 -1.2034e-06)
(-4.399e-06 -1.3662e-10 6.321e-07)
(-1.2709e-05 -3.0353e-10 1.4332e-06)
(-1.9818e-05 -2.5576e-10 1.2185e-06)
(-2.5619e-05 -4.1917e-11 2.6117e-07)
(-3.0513e-05 1.81e-10 -6.3318e-07)
(-3.4967e-05 2.7208e-10 -8.97e-07)
(-3.922e-05 2.1237e-10 -5.3119e-07)
(-4.3323e-05 4.691e-11 1.927e-07)
(-4.7257e-05 -1.7802e-10 1.0626e-06)
(-5.099e-05 -4.2769e-10 1.9946e-06)
(-5.4486e-05 -6.9622e-10 2.9844e-06)
(-5.7715e-05 -1.001e-09 4.0673e-06)
(-6.0654e-05 -1.3579e-09 5.2946e-06)
(-6.3284e-05 -1.7828e-09 6.7161e-06)
(-6.5583e-05 -2.2918e-09 8.3744e-06)
(-6.7519e-05 -2.9005e-09 1.0308e-05)
(-6.9056e-05 -3.6313e-09 1.2556e-05)
(-7.016e-05 -4.5118e-09 1.5165e-05)
(-7.0805e-05 -5.5346e-09 1.8179e-05)
(-7.0969e-05 -6.6805e-09 2.1613e-05)
(-7.0634e-05 -7.9499e-09 2.5447e-05)
(-6.9784e-05 -9.3263e-09 2.9625e-05)
(-6.8403e-05 -1.0778e-08 3.4073e-05)
(-6.6481e-05 -1.2276e-08 3.8703e-05)
(-6.4016e-05 -1.3803e-08 4.3414e-05)
(-6.1038e-05 -1.5325e-08 4.808e-05)
(-5.7617e-05 -1.676e-08 5.253e-05)
(-5.3866e-05 -1.7992e-08 5.6518e-05)
(-4.9906e-05 -1.8901e-08 5.9705e-05)
(-4.5825e-05 -1.9411e-08 6.1694e-05)
(-4.1651e-05 -1.9532e-08 6.215e-05)
(-3.7379e-05 -1.9225e-08 6.0949e-05)
(-3.3018e-05 -1.8432e-08 5.8208e-05)
(-2.865e-05 -1.7207e-08 5.4182e-05)
(-2.4429e-05 -1.562e-08 4.9134e-05)
(-2.0532e-05 -1.3729e-08 4.3246e-05)
(-1.7094e-05 -1.1587e-08 3.6626e-05)
(-1.4151e-05 -9.2535e-09 2.9377e-05)
(-1.1642e-05 -6.8394e-09 2.171e-05)
(-9.4563e-06 -4.4734e-09 1.4027e-05)
(-7.5026e-06 -2.3056e-09 6.9051e-06)
(-5.7564e-06 -4.94e-10 9.6004e-07)
(-4.2547e-06 8.2571e-10 -3.3406e-06)
(-3.0436e-06 1.5842e-09 -5.8139e-06)
(-2.1217e-06 1.8204e-09 -6.554e-06)
(-1.4192e-06 1.6243e-09 -5.8189e-06)
(-8.3093e-07 1.1017e-09 -3.9583e-06)
(-2.7598e-07 3.8641e-10 -1.3989e-06)
(-4.316e-06 -5.1432e-07 -8.5855e-08)
(-1.2502e-05 -1.1688e-06 -1.9494e-07)
(-1.9584e-05 -1.0026e-06 -1.6677e-07)
(-2.544e-05 -2.3096e-07 -3.7538e-08)
(-3.0409e-05 5.0304e-07 8.4904e-08)
(-3.491e-05 7.3083e-07 1.2241e-07)
(-3.918e-05 4.3104e-07 7.195e-08)
(-4.3284e-05 -1.8619e-07 -3.1162e-08)
(-4.7213e-05 -9.4276e-07 -1.5738e-07)
(-5.094e-05 -1.762e-06 -2.941e-07)
(-5.4429e-05 -2.6363e-06 -4.4006e-07)
(-5.7653e-05 -3.5944e-06 -6.0003e-07)
(-6.0588e-05 -4.6797e-06 -7.8128e-07)
(-6.3213e-05 -5.9353e-06 -9.9091e-07)
(-6.5505e-05 -7.399e-06 -1.2351e-06)
(-6.7434e-05 -9.1046e-06 -1.5196e-06)
(-6.8964e-05 -1.1088e-05 -1.8504e-06)
(-7.0062e-05 -1.3389e-05 -2.234e-06)
(-7.0702e-05 -1.6042e-05 -2.6762e-06)
(-7.0862e-05 -1.9062e-05 -3.1791e-06)
(-7.0524e-05 -2.243e-05 -3.7399e-06)
(-6.967e-05 -2.6099e-05 -4.3507e-06)
(-6.8288e-05 -3.0004e-05 -5.0004e-06)
(-6.6366e-05 -3.4067e-05 -5.6761e-06)
(-6.3909e-05 -3.8198e-05 -6.3628e-06)
(-6.0946e-05 -4.2285e-05 -7.042e-06)
(-5.7548e-05 -4.6173e-05 -7.6879e-06)
(-5.382e-05 -4.9645e-05 -8.2643e-06)
(-4.9877e-05 -5.2407e-05 -8.7223e-06)
(-4.5804e-05 -5.4122e-05 -9.0061e-06)
(-4.1632e-05 -5.4509e-05 -9.0695e-06)
(-3.7364e-05 -5.3461e-05 -8.8947e-06)
(-3.3021e-05 -5.1073e-05 -8.4974e-06)
(-2.8682e-05 -4.7557e-05 -7.9127e-06)
(-2.4493e-05 -4.3134e-05 -7.1777e-06)
(-2.0621e-05 -3.7965e-05 -6.3193e-06)
(-1.719e-05 -3.2154e-05 -5.3542e-06)
(-1.4236e-05 -2.5802e-05 -4.2991e-06)
(-1.1708e-05 -1.9101e-05 -3.1861e-06)
(-9.5061e-06 -1.2404e-05 -2.0739e-06)
(-7.5471e-06 -6.2042e-06 -1.0449e-06)
(-5.8056e-06 -1.0252e-06 -1.8526e-07)
(-4.3106e-06 2.7356e-06 4.396e-07)
(-3.099e-06 4.9182e-06 8.0332e-07)
(-2.1662e-06 5.596e-06 9.1772e-07)
(-1.4466e-06 4.9889e-06 8.1921e-07)
(-8.4314e-07 3.4012e-06 5.5866e-07)
(-2.7903e-07 1.2033e-06 1.9761e-07)
(-4.2309e-06 -4.0549e-07 2.8841e-10)
(-1.229e-05 -9.2421e-07 6.6434e-10)
(-1.9341e-05 -8.0108e-07 6.1781e-10)
(-2.525e-05 -1.9937e-07 2.5224e-10)
(-3.0294e-05 3.8377e-07 -1.0673e-10)
(-3.4845e-05 5.7349e-07 -1.8324e-10)
(-3.9135e-05 3.348e-07 6.3376e-11)
(-4.3241e-05 -1.7647e-07 5.3502e-10)
(-4.7166e-05 -8.1624e-07 1.1269e-09)
(-5.0885e-05 -1.517e-06 1.7767e-09)
(-5.4369e-05 -2.269e-06 2.4709e-09)
(-5.7587e-05 -3.0947e-06 3.2296e-09)
(-6.0516e-05 -4.0296e-06 4.0832e-09)
(-6.3136e-05 -5.1099e-06 5.0621e-09)
(-6.5421e-05 -6.3682e-06 6.1944e-09)
(-6.7341e-05 -7.834e-06 7.5066e-09)
(-6.8864e-05 -9.538e-06 9.0302e-09)
(-6.9956e-05 -1.1513e-05 1.0795e-08)
(-7.059e-05 -1.3789e-05 1.2812e-08)
(-7.0746e-05 -1.6375e-05 1.5084e-08)
(-7.0404e-05 -1.9255e-05 1.7614e-08)
(-6.9547e-05 -2.2392e-05 2.0374e-08)
(-6.8163e-05 -2.5729e-05 2.3302e-08)
(-6.6243e-05 -2.92e-05 2.6337e-08)
(-6.3794e-05 -3.2727e-05 2.9439e-08)
(-6.0847e-05 -3.6211e-05 3.2523e-08)
(-5.7471e-05 -3.9517e-05 3.5441e-08)
(-5.3768e-05 -4.2458e-05 3.799e-08)
(-4.9844e-05 -4.4787e-05 3.9911e-08)
(-4.5779e-05 -4.6225e-05 4.1e-08)
(-4.161e-05 -4.6544e-05 4.1193e-08)
(-3.735e-05 -4.5655e-05 4.0442e-08)
(-3.3025e-05 -4.3631e-05 3.8707e-08)
(-2.8717e-05 -4.0642e-05 3.6086e-08)
(-2.4563e-05 -3.687e-05 3.2729e-08)
(-2.0716e-05 -3.2454e-05 2.8773e-08)
(-1.7293e-05 -2.7487e-05 2.4331e-08)
(-1.4329e-05 -2.2067e-05 1.9525e-08)
(-1.1782e-05 -1.6366e-05 1.4532e-08)
(-9.5637e-06 -1.0682e-05 9.5983e-09)
(-7.5987e-06 -5.4264e-06 5.0502e-09)
(-5.861e-06 -1.0325e-06 1.2291e-09)
(-4.3714e-06 2.171e-06 -1.5897e-09)
(-3.1581e-06 4.047e-06 -3.268e-09)
(-2.213e-06 4.6511e-06 -3.8469e-09)
(-1.475e-06 4.1649e-06 -3.4806e-09)
(-8.5567e-07 2.8461e-06 -2.3868e-09)
(-2.8212e-07 1.0081e-06 -8.4461e-10)
(-4.1759e-06 -3.1341e-07 7.8964e-08)
(-1.2151e-05 -7.1578e-07 1.8027e-07)
(-1.918e-05 -6.2471e-07 1.5725e-07)
(-2.5121e-05 -1.631e-07 4.0975e-08)
(-3.0214e-05 2.8958e-07 -7.2633e-08)
(-3.4799e-05 4.4086e-07 -1.1013e-07)
(-3.9103e-05 2.5462e-07 -6.3022e-08)
(-4.3211e-05 -1.5398e-07 3.9545e-08)
(-4.7133e-05 -6.7208e-07 1.6947e-07)
(-5.0848e-05 -1.2439e-06 3.1294e-07)
(-5.4327e-05 -1.8601e-06 4.6759e-07)
(-5.7541e-05 -2.5374e-06 6.3764e-07)
(-6.0467e-05 -3.3042e-06 8.3014e-07)
(-6.3082e-05 -4.1896e-06 1.0524e-06)
(-6.5363e-05 -5.2204e-06 1.3111e-06)
(-6.7278e-05 -6.4209e-06 1.6123e-06)
(-6.8796e-05 -7.8162e-06 1.9624e-06)
(-6.9883e-05 -9.4331e-06 2.368e-06)
(-7.0514e-05 -1.1294e-05 2.8346e-06)
(-7.0666e-05 -1.3407e-05 3.3644e-06)
(-7.0321e-05 -1.5759e-05 3.9542e-06)
(-6.9463e-05 -1.832e-05 4.5961e-06)
(-6.8077e-05 -2.1044e-05 5.2788e-06)
(-6.6159e-05 -2.3877e-05 5.9886e-06)
(-6.3715e-05 -2.6754e-05 6.7093e-06)
(-6.0779e-05 -2.9593e-05 7.4206e-06)
(-5.7419e-05 -3.2283e-05 8.0945e-06)
(-5.3732e-05 -3.4671e-05 8.6924e-06)
(-4.982e-05 -3.6556e-05 9.1641e-06)
(-4.5761e-05 -3.7716e-05 9.4541e-06)
(-4.1596e-05 -3.7969e-05 9.5171e-06)
(-3.7341e-05 -3.7246e-05 9.3355e-06)
(-3.3029e-05 -3.5601e-05 8.9231e-06)
(-2.8741e-05 -3.3169e-05 8.3133e-06)
(-2.4609e-05 -3.0093e-05 7.5427e-06)
(-2.078e-05 -2.6488e-05 6.6398e-06)
(-1.7362e-05 -2.2435e-05 5.6247e-06)
(-1.4392e-05 -1.8017e-05 4.5183e-06)
(-1.1833e-05 -1.3378e-05 3.3567e-06)
(-9.6037e-06 -8.7616e-06 2.201e-06)
(-7.6345e-06 -4.4979e-06 1.1339e-06)
(-5.8989e-06 -9.3152e-07 2.4133e-07)
(-4.4126e-06 1.675e-06 -4.111e-07)
(-3.198e-06 3.2106e-06 -7.9588e-07)
(-2.2448e-06 3.7169e-06 -9.236e-07)
(-1.495e-06 3.3392e-06 -8.3057e-07)
(-8.6502e-07 2.2857e-06 -5.6881e-07)
(-2.8458e-07 8.1023e-07 -2.0165e-07)
(-4.1487e-06 -2.3172e-07 1.5493e-07)
(-1.2083e-05 -5.2974e-07 3.5415e-07)
(-1.9101e-05 -4.6392e-07 3.1011e-07)
(-2.5057e-05 -1.2393e-07 8.2859e-08)
(-3.0172e-05 2.1113e-07 -1.4077e-07)
(-3.4774e-05 3.242e-07 -2.1585e-07)
(-3.9086e-05 1.8573e-07 -1.2313e-07)
(-4.3196e-05 -1.2107e-07 8.1661e-08)
(-4.7116e-05 -5.1257e-07 3.4288e-07)
(-5.0829e-05 -9.4642e-07 6.324e-07)
(-5.4306e-05 -1.4149e-06 9.4506e-07)
(-5.7518e-05 -1.9302e-06 1.289e-06)
(-6.0442e-05 -2.5135e-06 1.6784e-06)
(-6.3055e-05 -3.1869e-06 2.1279e-06)
(-6.5333e-05 -3.9706e-06 2.6509e-06)
(-6.7246e-05 -4.8833e-06 3.2599e-06)
(-6.8761e-05 -5.9439e-06 3.9676e-06)
(-6.9846e-05 -7.1725e-06 4.7874e-06)
(-7.0475e-05 -8.586e-06 5.7305e-06)
(-7.0626e-05 -1.019e-05 6.8007e-06)
(-7.028e-05 -1.1976e-05 7.9919e-06)
(-6.942e-05 -1.3919e-05 9.2882e-06)
(-6.8034e-05 -1.5986e-05 1.0667e-05)
(-6.6116e-05 -1.8135e-05 1.21e-05)
(-6.3675e-05 -2.0318e-05 1.3556e-05)
(-6.0745e-05 -2.247e-05 1.4991e-05)
(-5.7392e-05 -2.4508e-05 1.635e-05)
(-5.3713e-05 -2.6315e-05 1.7555e-05)
(-4.9807e-05 -2.7738e-05 1.8504e-05)
(-4.5752e-05 -2.8613e-05 1.9087e-05)
(-4.1589e-05 -2.8802e-05 1.9213e-05)
(-3.7336e-05 -2.8254e-05 1.8847e-05)
(-3.3031e-05 -2.7008e-05 1.8016e-05)
(-2.8754e-05 -2.5165e-05 1.6787e-05)
(-2.4633e-05 -2.2833e-05 1.5231e-05)
(-2.0812e-05 -2.0098e-05 1.3407e-05)
(-1.7397e-05 -1.7023e-05 1.1357e-05)
(-1.4424e-05 -1.3674e-05 9.1231e-06)
(-1.1859e-05 -1.016e-05 6.7802e-06)
(-9.6243e-06 -6.6672e-06 4.451e-06)
(-7.6529e-06 -3.4426e-06 2.3009e-06)
(-5.9182e-06 -7.4492e-07 5.0229e-07)
(-4.4333e-06 1.2291e-06 -8.1389e-07)
(-3.2181e-06 2.3956e-06 -1.5919e-06)
(-2.261e-06 2.7852e-06 -1.8524e-06)
(-1.5054e-06 2.5069e-06 -1.6679e-06)
(-8.7004e-07 1.7177e-06 -1.1431e-06)
(-2.8595e-07 6.0915e-07 -4.0539e-07)
(-4.1487e-06 -1.5491e-07 2.3172e-07)
(-1.2083e-05 -3.5411e-07 5.2976e-07)
(-1.9101e-05 -3.1004e-07 4.6397e-07)
(-2.5057e-05 -8.2743e-08 1.2403e-07)
(-3.0172e-05 1.4095e-07 -2.1095e-07)
(-3.4774e-05 2.1612e-07 -3.2393e-07)
(-3.9086e-05 1.2351e-07 -1.8535e-07)
(-4.3196e-05 -8.1152e-08 1.2158e-07)
(-4.7116e-05 -3.4223e-07 5.1321e-07)
(-5.0829e-05 -6.3162e-07 9.4719e-07)
(-5.4306e-05 -9.4415e-07 1.4157e-06)
(-5.7518e-05 -1.288e-06 1.9312e-06)
(-6.0442e-05 -1.6772e-06 2.5146e-06)
(-6.3055e-05 -2.1266e-06 3.1881e-06)
(-6.5333e-05 -2.6495e-06 3.9719e-06)
(-6.7246e-05 -3.2584e-06 4.8846e-06)
(-6.8761e-05 -3.966e-06 5.9453e-06)
(-6.9846e-05 -4.7857e-06 7.174e-06)
(-7.0475e-05 -5.7287e-06 8.5876e-06)
(-7.0626e-05 -6.7988e-06 1.0192e-05)
(-7.028e-05 -7.9899e-06 1.1978e-05)
(-6.942e-05 -9.2862e-06 1.3921e-05)
(-6.8034e-05 -1.0665e-05 1.5988e-05)
(-6.6116e-05 -1.2098e-05 1.8137e-05)
(-6.3675e-05 -1.3553e-05 2.0319e-05)
(-6.0745e-05 -1.4989e-05 2.2472e-05)
(-5.7392e-05 -1.6348e-05 2.451e-05)
(-5.3713e-05 -1.7552e-05 2.6317e-05)
(-4.9807e-05 -1.8501e-05 2.774e-05)
(-4.5752e-05 -1.9084e-05 2.8615e-05)
(-4.1589e-05 -1.921e-05 2.8804e-05)
(-3.7336e-05 -1.8844e-05 2.8256e-05)
(-3.3031e-05 -1.8013e-05 2.7011e-05)
(-2.8754e-05 -1.6784e-05 2.5167e-05)
(-2.4633e-05 -1.5229e-05 2.2835e-05)
(-2.0812e-05 -1.3405e-05 2.01e-05)
(-1.7397e-05 -1.1355e-05 1.7025e-05)
(-1.4424e-05 -9.1216e-06 1.3675e-05)
(-1.1859e-05 -6.7791e-06 1.0161e-05)
(-9.6243e-06 -4.4502e-06 6.6677e-06)
(-7.6529e-06 -2.3006e-06 3.4428e-06)
(-5.9182e-06 -5.0226e-07 7.4484e-07)
(-4.4334e-06 8.1368e-07 -1.2293e-06)
(-3.2181e-06 1.5916e-06 -2.396e-06)
(-2.2611e-06 1.852e-06 -2.7857e-06)
(-1.5054e-06 1.6675e-06 -2.5073e-06)
(-8.7005e-07 1.1428e-06 -1.718e-06)
(-2.8595e-07 4.0528e-07 -6.0925e-07)
(-4.1759e-06 -7.8947e-08 3.134e-07)
(-1.2151e-05 -1.8022e-07 7.1577e-07)
(-1.918e-05 -1.5716e-07 6.2472e-07)
(-2.5121e-05 -4.0852e-08 1.6317e-07)
(-3.0214e-05 7.2814e-08 -2.8943e-07)
(-3.4799e-05 1.1039e-07 -4.4061e-07)
(-3.9103e-05 6.3398e-08 -2.5425e-07)
(-4.3211e-05 -3.9041e-08 1.5447e-07)
(-4.7133e-05 -1.6883e-07 6.727e-07)
(-5.0848e-05 -3.1216e-07 1.2447e-06)
(-5.4327e-05 -4.6668e-07 1.8609e-06)
(-5.7541e-05 -6.3659e-07 2.5384e-06)
(-6.0467e-05 -8.2896e-07 3.3052e-06)
(-6.3083e-05 -1.0511e-06 4.1908e-06)
(-6.5363e-05 -1.3097e-06 5.2216e-06)
(-6.7278e-05 -1.6108e-06 6.4221e-06)
(-6.8796e-05 -1.9607e-06 7.8175e-06)
(-6.9883e-05 -2.3662e-06 9.4343e-06)
(-7.0514e-05 -2.8327e-06 1.1295e-05)
(-7.0667e-05 -3.3623e-06 1.3408e-05)
(-7.0321e-05 -3.952e-06 1.5761e-05)
(-6.9463e-05 -4.5937e-06 1.8322e-05)
(-6.8078e-05 -5.2763e-06 2.1046e-05)
(-6.6159e-05 -5.9859e-06 2.3878e-05)
(-6.3715e-05 -6.7065e-06 2.6755e-05)
(-6.0779e-05 -7.4175e-06 2.9594e-05)
(-5.7419e-05 -8.0912e-06 3.2285e-05)
(-5.3731e-05 -8.689e-06 3.4672e-05)
(-4.982e-05 -9.1605e-06 3.6557e-05)
(-4.5761e-05 -9.4505e-06 3.7717e-05)
(-4.1596e-05 -9.5135e-06 3.797e-05)
(-3.734e-05 -9.332e-06 3.7247e-05)
(-3.3028e-05 -8.9197e-06 3.5602e-05)
(-2.8741e-05 -8.3102e-06 3.317e-05)
(-2.4609e-05 -7.5399e-06 3.0094e-05)
(-2.078e-05 -6.6373e-06 2.6489e-05)
(-1.7362e-05 -5.6225e-06 2.2436e-05)
(-1.4392e-05 -4.5165e-06 1.8018e-05)
(-1.1833e-05 -3.3554e-06 1.3378e-05)
(-9.6038e-06 -2.2001e-06 8.7618e-06)
(-7.6346e-06 -1.1334e-06 4.4978e-06)
(-5.899e-06 -2.4121e-07 9.313e-07)
(-4.4126e-06 4.1094e-07 -1.6753e-06)
(-3.1981e-06 7.9554e-07 -3.211e-06)
(-2.2449e-06 9.2318e-07 -3.7174e-06)
(-1.4951e-06 8.3017e-07 -3.3396e-06)
(-8.6504e-07 5.6853e-07 -2.286e-06)
(-2.8459e-07 2.0155e-07 -8.1033e-07)
(-4.2309e-06 -2.7078e-10 4.0547e-07)
(-1.229e-05 -6.1282e-10 9.2416e-07)
(-1.9341e-05 -5.3386e-10 8.0104e-07)
(-2.525e-05 -1.3071e-10 1.9939e-07)
(-3.0294e-05 2.8333e-10 -3.8366e-07)
(-3.4845e-05 4.4169e-10 -5.7326e-07)
(-3.9135e-05 3.0302e-10 -3.3445e-07)
(-4.3241e-05 -4.2469e-11 1.7695e-07)
(-4.7166e-05 -5.0024e-10 8.1683e-07)
(-5.0885e-05 -1.0152e-09 1.5177e-06)
(-5.4369e-05 -1.5762e-09 2.2698e-06)
(-5.7587e-05 -2.2019e-09 3.0956e-06)
(-6.0516e-05 -2.9215e-09 4.0305e-06)
(-6.3136e-05 -3.7666e-09 5.1109e-06)
(-6.5421e-05 -4.7663e-09 6.3692e-06)
(-6.7342e-05 -5.9484e-09 7.835e-06)
(-6.8864e-05 -7.3468e-09 9.539e-06)
(-6.9956e-05 -8.994e-09 1.1514e-05)
(-7.0591e-05 -1.0895e-08 1.379e-05)
(-7.0746e-05 -1.3042e-08 1.6375e-05)
(-7.0404e-05 -1.5429e-08 1.9256e-05)
(-6.9547e-05 -1.8024e-08 2.2393e-05)
(-6.8163e-05 -2.0773e-08 2.573e-05)
(-6.6243e-05 -2.3623e-08 2.9201e-05)
(-6.3794e-05 -2.6525e-08 3.2727e-05)
(-6.0847e-05 -2.9399e-08 3.6211e-05)
(-5.7471e-05 -3.2105e-08 3.9517e-05)
(-5.3768e-05 -3.4459e-08 4.2458e-05)
(-4.9843e-05 -3.6242e-08 4.4787e-05)
(-4.5779e-05 -3.7275e-08 4.6225e-05)
(-4.161e-05 -3.7491e-08 4.6544e-05)
(-3.7349e-05 -3.6832e-08 4.5655e-05)
(-3.3024e-05 -3.5265e-08 4.3631e-05)
(-2.8717e-05 -3.2892e-08 4.0642e-05)
(-2.4562e-05 -2.9844e-08 3.687e-05)
(-2.0716e-05 -2.6239e-08 3.2454e-05)
(-1.7293e-05 -2.2179e-08 2.7487e-05)
(-1.4329e-05 -1.7771e-08 2.2067e-05)
(-1.1782e-05 -1.3191e-08 1.6366e-05)
(-9.5638e-06 -8.6759e-09 1.0681e-05)
(-7.5987e-06 -4.5264e-09 5.4261e-06)
(-5.8611e-06 -1.054e-09 1.0321e-06)
(-4.3715e-06 1.4886e-09 -2.1714e-06)
(-3.1582e-06 2.9801e-09 -4.0475e-06)
(-2.213e-06 3.4726e-09 -4.6515e-06)
(-1.4751e-06 3.1202e-09 -4.1653e-06)
(-8.557e-07 2.1282e-09 -2.8464e-06)
(-2.8213e-07 7.5053e-10 -1.0082e-06)
(-4.316e-06 8.5868e-08 5.1429e-07)
(-1.2502e-05 1.9498e-07 1.1687e-06)
(-1.9584e-05 1.6684e-07 1.0025e-06)
(-2.544e-05 3.765e-08 2.3094e-07)
(-3.0409e-05 -8.4733e-08 -5.0297e-07)
(-3.491e-05 -1.2216e-07 -7.3063e-07)
(-3.918e-05 -7.1593e-08 -4.3071e-07)
(-4.3284e-05 3.1637e-08 1.8664e-07)
(-4.7213e-05 1.5798e-07 9.4332e-07)
(-5.094e-05 2.9482e-07 1.7626e-06)
(-5.4429e-05 4.4089e-07 2.637e-06)
(-5.7653e-05 6.0098e-07 3.5952e-06)
(-6.0588e-05 7.8234e-07 4.6806e-06)
(-6.3213e-05 9.9209e-07 5.9362e-06)
(-6.5505e-05 1.2364e-06 7.3998e-06)
(-6.7434e-05 1.521e-06 9.1055e-06)
(-6.8964e-05 1.8519e-06 1.1089e-05)
(-7.0062e-05 2.2356e-06 1.339e-05)
(-7.0702e-05 2.6779e-06 1.6043e-05)
(-7.0862e-05 3.1809e-06 1.9063e-05)
(-7.0524e-05 3.7417e-06 2.243e-05)
(-6.9671e-05 4.3526e-06 2.6099e-05)
(-6.8288e-05 5.0025e-06 3.0004e-05)
(-6.6367e-05 5.6783e-06 3.4067e-05)
(-6.3909e-05 6.3652e-06 3.8198e-05)
(-6.0946e-05 7.0445e-06 4.2284e-05)
(-5.7548e-05 7.6906e-06 4.6172e-05)
(-5.382e-05 8.2671e-06 4.9645e-05)
(-4.9877e-05 8.7252e-06 5.2407e-05)
(-4.5804e-05 9.0091e-06 5.4121e-05)
(-4.1632e-05 9.0724e-06 5.4508e-05)
(-3.7364e-05 8.8975e-06 5.346e-05)
(-3.302e-05 8.5e-06 5.1072e-05)
(-2.8681e-05 7.9151e-06 4.7556e-05)
(-2.4493e-05 7.1799e-06 4.3133e-05)
(-2.0621e-05 6.3212e-06 3.7965e-05)
(-1.719e-05 5.3559e-06 3.2154e-05)
(-1.4236e-05 4.3005e-06 2.5801e-05)
(-1.1708e-05 3.1872e-06 1.9101e-05)
(-9.5062e-06 2.0747e-06 1.2403e-05)
(-7.5472e-06 1.0453e-06 6.2037e-06)
(-5.8057e-06 1.8544e-07 1.0247e-06)
(-4.3107e-06 -4.3964e-07 -2.7362e-06)
(-3.0991e-06 -8.0352e-07 -4.9187e-06)
(-2.1663e-06 -9.18e-07 -5.5965e-06)
(-1.4467e-06 -8.1948e-07 -4.9893e-06)
(-8.4318e-07 -5.5886e-07 -3.4015e-06)
(-2.7904e-07 -1.9769e-07 -1.2034e-06)
(-4.2612e-06 -4.1389e-07 -1.6649e-07)
(-1.2365e-05 -9.4223e-07 -3.7879e-07)
(-1.9427e-05 -8.1318e-07 -3.2661e-07)
(-2.5317e-05 -1.9609e-07 -7.8338e-08)
(-3.0335e-05 3.9725e-07 1.594e-07)
(-3.4868e-05 5.8645e-07 2.3417e-07)
(-3.9151e-05 3.4339e-07 1.362e-07)
(-4.3257e-05 -1.689e-07 -6.8709e-08)
(-4.7183e-05 -8.0502e-07 -3.2293e-07)
(-5.0905e-05 -1.4989e-06 -6.005e-07)
(-5.439e-05 -2.2423e-06 -8.9807e-07)
(-5.761e-05 -3.0578e-06 -1.2247e-06)
(-6.0542e-05 -3.9814e-06 -1.5946e-06)
(-6.3163e-05 -5.0492e-06 -2.0222e-06)
(-6.545e-05 -6.2931e-06 -2.5202e-06)
(-6.7374e-05 -7.7424e-06 -3.1003e-06)
(-6.8899e-05 -9.4273e-06 -3.7746e-06)
(-6.9994e-05 -1.1381e-05 -4.5564e-06)
(-7.063e-05 -1.3633e-05 -5.457e-06)
(-7.0787e-05 -1.6193e-05 -6.4807e-06)
(-7.0446e-05 -1.9046e-05 -7.6215e-06)
(-6.9591e-05 -2.2153e-05 -8.8638e-06)
(-6.8208e-05 -2.546e-05 -1.0185e-05)
(-6.6287e-05 -2.8899e-05 -1.156e-05)
(-6.3835e-05 -3.2396e-05 -1.2956e-05)
(-6.0883e-05 -3.5851e-05 -1.4336e-05)