/*--------------------------------*- C++ -*----------------------------------*\
| =========                 |                                                 |
| \\      /  F ield         | foam-extend: Open Source CFD                    |
|  \\    /   O peration     | Version:     4.1-20200408                       |
|   \\  /    A nd           | Web:         http://www.foam-extend.org         |
|    \\/     M anipulation  |                                                 |
\*---------------------------------------------------------------------------*/
FoamFile
{
    version     2.0;
    format      ascii;
    class       volScalarField;
    location    "0.0115000";
    object      sigmaCauchyEq;
}
// * * * * * * * * * * * * * * * * * * * * * * * * * * * * * * * * * * * * * //

dimensions      [1 -1 -2 0 0 0 0];

internalField   nonuniform List<scalar> 
1952
(
4.49142e+08
4.48018e+08
4.45181e+08
4.41167e+08
4.36493e+08
4.32579e+08
4.29862e+08
4.30444e+08
4.35179e+08
4.41972e+08
4.56476e+08
4.70972e+08
4.73613e+08
4.77648e+08
4.84913e+08
4.49727e+08
4.62445e+08
4.61481e+08
4.586e+08
4.54757e+08
4.50297e+08
4.46594e+08
4.44146e+08
4.44944e+08
4.50033e+08
4.56706e+08
4.71531e+08
4.86909e+08
4.8809e+08
4.87311e+08
4.78305e+08
4.63035e+08
4.73767e+08
4.72874e+08
4.69812e+08
4.65982e+08
4.61548e+08
4.5782e+08
4.55362e+08
4.55986e+08
4.60938e+08
4.66814e+08
4.81047e+08
4.9645e+08
4.94988e+08
4.89674e+08
4.78001e+08
4.74359e+08
4.82427e+08
4.815e+08
4.78161e+08
4.74192e+08
4.69576e+08
4.65601e+08
4.62845e+08
4.62966e+08
4.67377e+08
4.72039e+08
4.85244e+08
5.00628e+08
4.96874e+08
4.88829e+08
4.76187e+08
4.83032e+08
4.8843e+08
4.87443e+08
4.83795e+08
4.79589e+08
4.74661e+08
4.70293e+08
4.67082e+08
4.66553e+08
4.70222e+08
4.73664e+08
4.85916e+08
5.01797e+08
4.96754e+08
4.87901e+08
4.76608e+08
4.89058e+08
4.91841e+08
4.90664e+08
4.86798e+08
4.82273e+08
4.76967e+08
4.72141e+08
4.68418e+08
4.67227e+08
4.70142e+08
4.72511e+08
4.84027e+08
5.00806e+08
4.95353e+08
4.86534e+08
4.76862e+08
4.92477e+08
4.92742e+08
4.91495e+08
4.87454e+08
4.82606e+08
4.76867e+08
4.71579e+08
4.67365e+08
4.65598e+08
4.67856e+08
4.69372e+08
4.80458e+08
4.98611e+08
4.93426e+08
4.85134e+08
4.77273e+08
4.93414e+08
4.91419e+08
4.90183e+08
4.86021e+08
4.80954e+08
4.74761e+08
4.69049e+08
4.64395e+08
4.62199e+08
4.63937e+08
4.64907e+08
4.75735e+08
4.95453e+08
4.91113e+08
4.83603e+08
4.77344e+08
4.92152e+08
4.88369e+08
4.87012e+08
4.82795e+08
4.77583e+08
4.71076e+08
4.64929e+08
4.59907e+08
4.57423e+08
4.5878e+08
4.59424e+08
4.70195e+08
4.91735e+08
4.88561e+08
4.8191e+08
4.77063e+08
4.89138e+08
4.8383e+08
4.82365e+08
4.78076e+08
4.72716e+08
4.66056e+08
4.59505e+08
4.54214e+08
4.515e+08
4.52768e+08
4.53285e+08
4.64084e+08
4.86843e+08
4.85878e+08
4.79976e+08
4.76403e+08
4.84638e+08
4.78083e+08
4.76516e+08
4.72225e+08
4.66772e+08
4.59989e+08
4.53174e+08
4.47707e+08
4.44834e+08
4.46234e+08
4.468e+08
4.57707e+08
4.81459e+08
4.8305e+08
4.77843e+08
4.7538e+08
4.7892e+08
4.71485e+08
4.69834e+08
4.65611e+08
4.60118e+08
4.53291e+08
4.46374e+08
4.40734e+08
4.37802e+08
4.39323e+08
4.40046e+08
4.51148e+08
4.75879e+08
4.80066e+08
4.75557e+08
4.73977e+08
4.72334e+08
4.64283e+08
4.62584e+08
4.58377e+08
4.52884e+08
4.46066e+08
4.39145e+08
4.33357e+08
4.30437e+08
4.3205e+08
4.32989e+08
4.44358e+08
4.70086e+08
4.76912e+08
4.73065e+08
4.72201e+08
4.65142e+08
4.56578e+08
4.54861e+08
4.50603e+08
4.4515e+08
4.38385e+08
4.31475e+08
4.2563e+08
4.22779e+08
4.24578e+08
4.25799e+08
4.3746e+08
4.64158e+08
4.73623e+08
4.70369e+08
4.70112e+08
4.57445e+08
4.48479e+08
4.46746e+08
4.42514e+08
4.37129e+08
4.30468e+08
4.23608e+08
4.17801e+08
4.15046e+08
4.17124e+08
4.18659e+08
4.30618e+08
4.58226e+08
4.70245e+08
4.67509e+08
4.67743e+08
4.49349e+08
4.40207e+08
4.38471e+08
4.34343e+08
4.29051e+08
4.2252e+08
4.15763e+08
4.10041e+08
4.07398e+08
4.09675e+08
4.1152e+08
4.23755e+08
4.52216e+08
4.66772e+08
4.64466e+08
4.65128e+08
4.41068e+08
4.31886e+08
4.30172e+08
4.26084e+08
4.2089e+08
4.14493e+08
4.07894e+08
4.0232e+08
3.99743e+08
4.0213e+08
4.04288e+08
4.16775e+08
4.4607e+08
4.63196e+08
4.61252e+08
4.62277e+08
4.32737e+08
4.2346e+08
4.21791e+08
4.17678e+08
4.12595e+08
4.06355e+08
3.99943e+08
3.94526e+08
3.92043e+08
3.94582e+08
3.97041e+08
4.09763e+08
4.39863e+08
4.59578e+08
4.57928e+08
4.59246e+08
4.24302e+08
4.14974e+08
4.13344e+08
4.09265e+08
4.04294e+08
3.98244e+08
3.92034e+08
3.86736e+08
3.84411e+08
3.87171e+08
3.89929e+08
4.02843e+08
4.33666e+08
4.55919e+08
4.54519e+08
4.56064e+08
4.158e+08
4.06507e+08
4.04906e+08
4.00948e+08
3.961e+08
3.90238e+08
3.84231e+08
3.79078e+08
3.76929e+08
3.79779e+08
3.82799e+08
3.95862e+08
4.27333e+08
4.52238e+08
4.51028e+08
4.52743e+08
4.07315e+08
3.98087e+08
3.96542e+08
3.92602e+08
3.87881e+08
3.82221e+08
3.76433e+08
3.71431e+08
3.69447e+08
3.72408e+08
3.75697e+08
3.88863e+08
4.20867e+08
4.48515e+08
4.47478e+08
4.49324e+08
3.98877e+08
3.89628e+08
3.88124e+08
3.84247e+08
3.7966e+08
3.74202e+08
3.68633e+08
3.63815e+08
3.62007e+08
3.6507e+08
3.68614e+08
3.8191e+08
4.14422e+08
4.44784e+08
4.43909e+08
4.45849e+08
3.904e+08
3.81146e+08
3.79683e+08
3.75877e+08
3.71427e+08
3.66183e+08
3.60839e+08
3.56221e+08
3.54601e+08
3.57771e+08
3.61548e+08
3.74964e+08
4.07978e+08
4.41023e+08
4.40331e+08
4.42317e+08
3.81898e+08
3.72593e+08
3.71142e+08
3.67443e+08
3.6314e+08
3.58108e+08
3.52996e+08
3.48633e+08
3.4728e+08
3.50491e+08
3.54481e+08
3.68043e+08
4.01549e+08
4.37265e+08
4.36767e+08
4.38774e+08
3.73314e+08
3.63958e+08
3.62511e+08
3.5893e+08
3.54783e+08
3.49988e+08
3.45117e+08
3.41053e+08
3.3997e+08
3.43248e+08
3.47444e+08
3.61152e+08
3.95152e+08
4.33471e+08
4.33243e+08
4.35249e+08
3.64646e+08
3.55186e+08
3.53755e+08
3.50303e+08
3.46333e+08
3.41791e+08
3.37187e+08
3.33447e+08
3.32569e+08
3.36023e+08
3.40417e+08
3.54303e+08
3.88789e+08
4.29709e+08
4.29788e+08
4.31769e+08
3.55838e+08
3.46241e+08
3.44827e+08
3.41511e+08
3.37743e+08
3.33479e+08
3.29176e+08
3.25821e+08
3.25157e+08
3.28818e+08
3.33416e+08
3.47565e+08
3.82455e+08
4.25874e+08
4.26422e+08
4.28414e+08
3.46858e+08
3.37057e+08
3.35679e+08
3.32511e+08
3.28965e+08
3.25017e+08
3.21053e+08
3.18123e+08
3.17715e+08
3.21608e+08
3.26435e+08
3.40902e+08
3.76153e+08
4.2209e+08
4.23195e+08
4.25184e+08
3.37634e+08
3.27597e+08
3.26257e+08
3.23243e+08
3.19959e+08
3.16362e+08
3.12794e+08
3.1034e+08
3.1024e+08
3.14436e+08
3.1952e+08
3.34366e+08
3.69932e+08
4.1819e+08
4.2014e+08
4.22224e+08
3.28138e+08
3.17781e+08
3.16526e+08
3.13669e+08
3.10669e+08
3.07465e+08
3.04356e+08
3.02437e+08
3.02723e+08
3.07282e+08
3.12694e+08
3.27922e+08
3.63808e+08
4.1435e+08
4.17297e+08
4.19479e+08
3.18281e+08
3.07655e+08
3.06443e+08
3.0374e+08
3.01058e+08
2.98278e+08
2.95707e+08
2.9434e+08
2.9514e+08
3.00043e+08
3.05952e+08
3.21568e+08
3.57779e+08
4.09623e+08
4.14825e+08
4.16903e+08
3.08155e+08
2.97104e+08
2.96017e+08
2.93449e+08
2.91095e+08
2.88772e+08
2.868e+08
2.86034e+08
2.87424e+08
2.92716e+08
2.99174e+08
3.15257e+08
3.51846e+08
4.04778e+08
4.12624e+08
4.14604e+08
2.97551e+08
2.85988e+08
2.85144e+08
2.82746e+08
2.80723e+08
2.78897e+08
2.77581e+08
2.77502e+08
2.79561e+08
2.85376e+08
2.92388e+08
3.09078e+08
3.46074e+08
4.00121e+08
4.1072e+08
4.12787e+08
2.86328e+08
2.74342e+08
2.73792e+08
2.71705e+08
2.69983e+08
2.68689e+08
2.68088e+08
2.68794e+08
2.7161e+08
2.78191e+08
2.85793e+08
3.03162e+08
3.40642e+08
3.95834e+08
4.09162e+08
4.11474e+08
2.74569e+08
2.6228e+08
2.62145e+08
2.60446e+08
2.59058e+08
2.5831e+08
2.58468e+08
2.60038e+08
2.63698e+08
2.71108e+08
2.79342e+08
2.97443e+08
3.35494e+08
3.9184e+08
4.08019e+08
4.10697e+08
2.62403e+08
2.49948e+08
2.50137e+08
2.48843e+08
2.47907e+08
2.477e+08
2.48623e+08
2.51133e+08
2.55703e+08
2.63943e+08
2.72951e+08
2.91832e+08
3.3056e+08
3.88138e+08
4.07348e+08
4.10503e+08
2.49928e+08
2.37263e+08
2.37737e+08
2.36907e+08
2.365e+08
2.36832e+08
2.38512e+08
2.42059e+08
2.47606e+08
2.56764e+08
2.66675e+08
2.86421e+08
3.25939e+08
3.84857e+08
4.07259e+08
4.11022e+08
2.37081e+08
2.24443e+08
2.25232e+08
2.24876e+08
2.25018e+08
2.25911e+08
2.2835e+08
2.32974e+08
2.39554e+08
2.49765e+08
2.60673e+08
2.81349e+08
3.21766e+08
3.82112e+08
4.07831e+08
4.12395e+08
2.24117e+08
2.11811e+08
2.12953e+08
2.13046e+08
2.1366e+08
2.15158e+08
2.18303e+08
2.23992e+08
2.3165e+08
2.4287e+08
2.5486e+08
2.76542e+08
3.17985e+08
3.79873e+08
4.09148e+08
4.1471e+08
2.11375e+08
1.99762e+08
2.01086e+08
2.01584e+08
2.02625e+08
2.04701e+08
2.08437e+08
2.15126e+08
2.23843e+08
2.36099e+08
2.49221e+08
2.71986e+08
3.14589e+08
3.78146e+08
4.11277e+08
4.18126e+08
1.99216e+08
1.88658e+08
1.90081e+08
1.9085e+08
1.92194e+08
1.94749e+08
1.98874e+08
2.06422e+08
2.16135e+08
2.29362e+08
2.43664e+08
2.67586e+08
3.11516e+08
3.76951e+08
4.14304e+08
4.22762e+08
1.88052e+08
1.79084e+08
1.80403e+08
1.8125e+08
1.82663e+08
1.85453e+08
1.89741e+08
1.97927e+08
2.08502e+08
2.2267e+08
2.38142e+08
2.63342e+08
3.08768e+08
3.76264e+08
4.18293e+08
4.28821e+08
1.78466e+08
1.71809e+08
1.7282e+08
1.73447e+08
1.74591e+08
1.77179e+08
1.8134e+08
1.89799e+08
2.0099e+08
2.15986e+08
2.32605e+08
2.59119e+08
3.06252e+08
3.76087e+08
4.23279e+08
4.36421e+08
1.71268e+08
1.67746e+08
1.6823e+08
1.68251e+08
1.68663e+08
1.70499e+08
1.74009e+08
1.82195e+08
1.93648e+08
2.09112e+08
2.26815e+08
2.54637e+08
3.03805e+08
3.75973e+08
4.29309e+08
4.45628e+08
1.67405e+08
1.6805e+08
1.67612e+08
1.66585e+08
1.65698e+08
1.661e+08
1.68238e+08
1.75389e+08
1.86495e+08
2.02027e+08
2.2052e+08
2.49664e+08
3.01124e+08
3.7604e+08
4.36264e+08
4.56604e+08
1.68005e+08
1.73914e+08
1.723e+08
1.69802e+08
1.67029e+08
1.65215e+08
1.65106e+08
1.70175e+08
1.80025e+08
1.94946e+08
2.13712e+08
2.44051e+08
2.97969e+08
3.76183e+08
4.43983e+08
4.69469e+08
1.74265e+08
1.86841e+08
1.83894e+08
1.79639e+08
1.74523e+08
1.69768e+08
1.66494e+08
1.68155e+08
1.75499e+08
1.88633e+08
2.06783e+08
2.37767e+08
2.94139e+08
3.76006e+08
4.52287e+08
4.84106e+08
1.8763e+08
2.08394e+08
2.04182e+08
1.98126e+08
1.90522e+08
1.82403e+08
1.75229e+08
1.72202e+08
1.75472e+08
1.84965e+08
2.00936e+08
2.3136e+08
2.89672e+08
3.75064e+08
4.6083e+08
5.00292e+08
2.09619e+08
2.4003e+08
2.34736e+08
2.27089e+08
2.17251e+08
2.05905e+08
1.94709e+08
1.86313e+08
1.84151e+08
1.87705e+08
1.99091e+08
2.26579e+08
2.85261e+08
3.73454e+08
4.689e+08
5.17531e+08
2.41625e+08
2.82859e+08
2.76813e+08
2.68001e+08
2.56509e+08
2.42624e+08
2.28087e+08
2.14698e+08
2.06804e+08
2.02969e+08
2.07215e+08
2.2805e+08
2.83779e+08
3.72261e+08
4.76085e+08
5.34807e+08
2.84837e+08
3.37906e+08
3.31458e+08
3.22004e+08
3.09578e+08
2.94137e+08
2.77418e+08
2.60407e+08
2.47927e+08
2.3704e+08
2.33116e+08
2.44022e+08
2.92244e+08
3.76352e+08
4.85116e+08
5.52281e+08
3.39939e+08
4.054e+08
3.98928e+08
3.8937e+08
3.76761e+08
3.608e+08
3.43178e+08
3.24287e+08
3.09115e+08
2.93317e+08
2.82711e+08
2.83299e+08
3.20517e+08
3.94887e+08
5.03465e+08
5.74786e+08
4.07359e+08
4.84786e+08
4.78653e+08
4.69497e+08
4.57417e+08
4.41917e+08
4.2459e+08
4.05482e+08
3.89494e+08
3.71359e+08
3.56761e+08
3.49452e+08
3.75287e+08
4.35917e+08
5.37815e+08
6.05567e+08
4.86575e+08
5.74642e+08
5.69168e+08
5.60878e+08
5.49952e+08
5.35777e+08
5.19781e+08
5.01889e+08
4.86607e+08
4.6836e+08
4.52197e+08
4.40165e+08
4.56675e+08
5.02366e+08
5.91383e+08
6.45509e+08
5.76188e+08
6.72516e+08
6.67972e+08
6.60944e+08
6.51704e+08
6.39588e+08
6.25794e+08
6.10269e+08
5.96943e+08
5.80331e+08
5.64458e+08
5.50374e+08
5.60033e+08
5.91924e+08
6.63647e+08
6.93893e+08
6.73767e+08
7.74962e+08
7.71546e+08
7.66089e+08
7.5894e+08
7.49456e+08
7.38551e+08
7.26261e+08
7.15959e+08
7.02382e+08
6.88286e+08
6.74325e+08
6.7934e+08
6.99767e+08
7.51983e+08
7.50169e+08
7.75884e+08
8.77695e+08
8.75504e+08
8.71797e+08
8.66982e+08
8.60484e+08
8.52933e+08
8.44509e+08
8.38031e+08
8.28608e+08
8.17623e+08
8.05692e+08
8.08164e+08
8.19915e+08
8.51981e+08
8.12134e+08
8.78277e+08
9.75867e+08
9.74875e+08
9.72921e+08
9.70455e+08
9.67007e+08
9.62957e+08
9.58679e+08
9.56479e+08
9.52013e+08
9.45344e+08
9.37277e+08
9.39722e+08
9.46361e+08
9.59829e+08
8.79289e+08
9.76128e+08
1.06452e+09
1.06455e+09
1.06413e+09
1.06374e+09
1.06302e+09
1.06216e+09
1.06176e+09
1.06369e+09
1.06433e+09
1.06264e+09
1.05986e+09
1.06508e+09
1.07063e+09
1.06941e+09
9.48573e+08
1.06451e+09
1.13909e+09
1.13981e+09
1.1405e+09
1.14156e+09
1.14278e+09
1.1442e+09
1.14653e+09
1.15137e+09
1.15603e+09
1.15876e+09
1.16174e+09
1.17215e+09
1.18051e+09
1.17257e+09
1.02007e+09
1.1389e+09
1.19588e+09
1.19682e+09
1.19795e+09
1.19954e+09
1.20149e+09
1.20368e+09
1.20675e+09
1.21226e+09
1.21865e+09
1.22392e+09
1.23119e+09
1.24412e+09
1.2502e+09
1.24097e+09
1.07861e+09
1.19563e+09
1.23261e+09
1.23333e+09
1.23426e+09
1.23561e+09
1.23732e+09
1.23927e+09
1.24192e+09
1.24652e+09
1.25042e+09
1.25041e+09
1.25038e+09
1.25031e+09
1.25017e+09
1.24045e+09
1.07849e+09
1.23243e+09
1.25035e+09
1.25035e+09
1.25036e+09
1.25037e+09
1.25038e+09
1.25039e+09
1.25041e+09
1.25041e+09
1.2504e+09
1.25036e+09
1.25029e+09
1.25018e+09
1.25006e+09
1.20468e+09
1.06354e+09
1.25035e+09
1.25034e+09
1.25034e+09
1.25034e+09
1.25035e+09
1.25035e+09
1.25035e+09
1.25034e+09
1.25032e+09
1.25028e+09
1.25021e+09
1.25012e+09
1.25004e+09
1.22275e+09
1.16032e+09
1.04694e+09
1.25034e+09
1.25027e+09
1.25027e+09
1.25026e+09
1.25026e+09
1.25025e+09
1.25023e+09
1.25019e+09
1.25015e+09
1.25011e+09
1.25005e+09
1.24164e+09
1.20774e+09
1.16729e+09
1.11044e+09
1.02432e+09
1.25027e+09
1.25013e+09
1.25013e+09
1.25012e+09
1.25011e+09
1.2501e+09
1.25007e+09
1.25004e+09
1.24989e+09
1.22784e+09
1.2039e+09
1.17702e+09
1.14697e+09
1.10723e+09
1.05764e+09
9.96985e+08
1.25013e+09
1.25e+09
1.24784e+09
1.24291e+09
1.23532e+09
1.22543e+09
1.21203e+09
1.19606e+09
1.17798e+09
1.15805e+09
1.1363e+09
1.11136e+09
1.08066e+09
1.04479e+09
1.00586e+09
9.6652e+08
1.25001e+09
1.17959e+09
1.17512e+09
1.16946e+09
1.16108e+09
1.15105e+09
1.13856e+09
1.12482e+09
1.10889e+09
1.08854e+09
1.06593e+09
1.04187e+09
1.01495e+09
9.85348e+08
9.56557e+08
9.3393e+08
1.18068e+09
1.10907e+09
1.10461e+09
1.09858e+09
1.0897e+09
1.07918e+09
1.06618e+09
1.05179e+09
1.03551e+09
1.01722e+09
9.96898e+08
9.75427e+08
9.52136e+08
9.29054e+08
9.096e+08
8.9967e+08
1.11007e+09
1.03457e+09
1.02998e+09
1.02414e+09
1.01566e+09
1.00579e+09
9.93726e+08
9.80506e+08
9.65362e+08
9.48613e+08
9.30267e+08
9.11796e+08
8.93016e+08
8.76426e+08
8.65015e+08
8.64567e+08
1.03569e+09
9.62037e+08
9.5771e+08
9.52172e+08
9.44182e+08
9.3492e+08
9.23634e+08
9.11392e+08
8.97504e+08
8.82931e+08
8.67287e+08
8.52331e+08
8.38039e+08
8.27319e+08
8.22535e+08
8.28964e+08
9.63105e+08
8.9135e+08
8.87359e+08
8.82308e+08
8.75069e+08
8.66754e+08
8.56663e+08
8.45878e+08
8.33722e+08
8.21429e+08
8.08581e+08
7.97154e+08
7.87157e+08
7.81535e+08
7.82038e+08
7.93345e+08
8.92361e+08
8.2435e+08
8.20793e+08
8.16289e+08
8.0987e+08
8.02562e+08
7.93742e+08
7.84502e+08
7.74234e+08
7.64335e+08
7.54352e+08
7.46322e+08
7.40202e+08
7.38826e+08
7.43406e+08
7.5804e+08
8.25268e+08
7.61398e+08
7.58315e+08
7.54416e+08
7.489e+08
7.42692e+08
7.35261e+08
7.27672e+08
7.19386e+08
7.11837e+08
7.04592e+08
6.99649e+08
6.96891e+08
6.98926e+08
7.06529e+08
7.23278e+08
7.62211e+08
7.03037e+08
7.00448e+08
6.97168e+08
6.92573e+08
6.87474e+08
6.81443e+08
6.75486e+08
6.69149e+08
6.63822e+08
6.59105e+08
6.56871e+08
6.56932e+08
6.61624e+08
6.71388e+08
6.89364e+08
7.03735e+08
6.49362e+08
6.47266e+08
6.44605e+08
6.40926e+08
6.3692e+08
6.32262e+08
6.27872e+08
6.2338e+08
6.20077e+08
6.17605e+08
6.17661e+08
6.20001e+08
6.2667e+08
6.37865e+08
6.5636e+08
6.49943e+08
6.00382e+08
5.98762e+08
5.96697e+08
5.93899e+08
5.90928e+08
5.87567e+08
5.84625e+08
5.81817e+08
5.80301e+08
5.7976e+08
5.81694e+08
5.85817e+08
5.93897e+08
6.05961e+08
6.24489e+08
6.00845e+08
5.55933e+08
5.54761e+08
5.53256e+08
5.51281e+08
5.49269e+08
5.47097e+08
5.45456e+08
5.44139e+08
5.44151e+08
5.45221e+08
5.48638e+08
5.54097e+08
5.63109e+08
5.75586e+08
5.93771e+08
5.56283e+08
5.15778e+08
5.15017e+08
5.14025e+08
5.128e+08
5.11648e+08
5.10537e+08
5.10032e+08
5.09996e+08
5.11276e+08
5.13647e+08
5.18192e+08
5.24603e+08
5.34162e+08
5.4671e+08
5.64303e+08
5.16021e+08
4.79614e+08
4.79221e+08
4.78688e+08
4.78129e+08
4.7773e+08
4.77541e+08
4.77999e+08
4.79034e+08
4.81333e+08
4.84718e+08
4.90081e+08
4.9712e+08
5.06921e+08
5.19283e+08
5.36119e+08
4.7976e+08
4.47108e+08
4.47037e+08
4.46903e+08
4.46921e+08
4.47166e+08
4.47756e+08
4.49007e+08
4.50909e+08
4.53999e+08
4.58142e+08
4.64057e+08
4.71457e+08
4.81262e+08
4.9325e+08
5.09217e+08
4.47168e+08
4.17913e+08
4.18117e+08
4.18322e+08
4.18827e+08
4.19605e+08
4.20835e+08
4.22721e+08
4.253e+08
4.28978e+08
4.33656e+08
4.39905e+08
4.47456e+08
4.57092e+08
4.68583e+08
4.83638e+08
4.17898e+08
3.91686e+08
3.92118e+08
3.92603e+08
3.93506e+08
3.94715e+08
3.96453e+08
3.98826e+08
4.01914e+08
4.06002e+08
4.11025e+08
4.17429e+08
4.24963e+08
4.34295e+08
4.452e+08
4.59312e+08
3.91606e+08
3.68094e+08
3.68709e+08
3.69419e+08
3.70638e+08
3.7218e+08
3.74307e+08
3.77037e+08
3.80485e+08
3.84832e+08
3.90046e+08
3.96464e+08
4.03854e+08
4.12797e+08
4.23072e+08
4.3626e+08
3.67962e+08
3.46826e+08
3.47583e+08
3.48466e+08
3.49925e+08
3.51715e+08
3.54124e+08
3.57098e+08
3.60777e+08
3.6526e+08
3.70536e+08
3.76857e+08
3.84008e+08
3.92501e+08
4.0212e+08
4.14407e+08
3.46652e+08
3.27594e+08
3.28455e+08
3.29466e+08
3.31098e+08
3.3306e+08
3.35659e+08
3.3878e+08
3.42584e+08
3.47102e+08
3.52338e+08
3.58481e+08
3.65326e+08
3.73334e+08
3.82296e+08
3.93725e+08
3.27389e+08
3.10138e+08
3.11071e+08
3.12169e+08
3.13916e+08
3.15985e+08
3.18694e+08
3.21883e+08
3.25725e+08
3.30197e+08
3.35317e+08
3.41222e+08
3.47716e+08
3.55223e+08
3.63541e+08
3.74163e+08
3.0991e+08
2.94223e+08
2.952e+08
2.96351e+08
2.98162e+08
3.00285e+08
3.03039e+08
3.06232e+08
3.10042e+08
3.14408e+08
3.19353e+08
3.24979e+08
3.31094e+08
3.38098e+08
3.45793e+08
3.55658e+08
2.9398e+08
2.79643e+08
2.80641e+08
2.81816e+08
2.83651e+08
2.85783e+08
2.88529e+08
2.91675e+08
2.95399e+08
2.99614e+08
3.04343e+08
3.09665e+08
3.1539e+08
3.21902e+08
3.29007e+08
3.38178e+08
2.79392e+08
2.66216e+08
2.67214e+08
2.68391e+08
2.70216e+08
2.72323e+08
2.7502e+08
2.78081e+08
2.81678e+08
2.8571e+08
2.90195e+08
2.95201e+08
3.00532e+08
3.06567e+08
3.13113e+08
3.21638e+08
2.65963e+08
2.53783e+08
2.54767e+08
2.55927e+08
2.57716e+08
2.59771e+08
2.62387e+08
2.65335e+08
2.68777e+08
2.72606e+08
2.76831e+08
2.81517e+08
2.86461e+08
2.92044e+08
2.98071e+08
3.0601e+08
2.53532e+08
2.42208e+08
2.43166e+08
2.44294e+08
2.46028e+08
2.48012e+08
2.50525e+08
2.5334e+08
2.56608e+08
2.60221e+08
2.64178e+08
2.68548e+08
2.73117e+08
2.78273e+08
2.83816e+08
2.91218e+08
2.41962e+08
2.31373e+08
2.32296e+08
2.33384e+08
2.35048e+08
2.36946e+08
2.3934e+08
2.42012e+08
2.45093e+08
2.48487e+08
2.52175e+08
2.56238e+08
2.60449e+08
2.65205e+08
2.70303e+08
2.7722e+08
2.31134e+08
2.21177e+08
2.2206e+08
2.231e+08
2.24685e+08
2.2649e+08
2.28755e+08
2.31276e+08
2.34166e+08
2.37343e+08
2.40768e+08
2.44538e+08
2.48408e+08
2.52795e+08
2.57485e+08
2.63965e+08
2.20948e+08
2.11535e+08
2.12374e+08
2.13362e+08
2.14862e+08
2.1657e+08
2.18701e+08
2.21072e+08
2.23771e+08
2.26736e+08
2.29907e+08
2.334e+08
2.36952e+08
2.40998e+08
2.45313e+08
2.51397e+08
2.11317e+08
2.02375e+08
2.03168e+08
2.04103e+08
2.05516e+08
2.07125e+08
2.09123e+08
2.11345e+08
2.13858e+08
2.16621e+08
2.1955e+08
2.22785e+08
2.26041e+08
2.29777e+08
2.33754e+08
2.39485e+08
2.02168e+08
1.93635e+08
1.94382e+08
1.95264e+08
1.9659e+08
1.98103e+08
1.99968e+08
2.02049e+08
2.04383e+08
2.06955e+08
2.09657e+08
2.12653e+08
2.15637e+08
2.19091e+08
2.22759e+08
2.2817e+08
1.9344e+08
1.85266e+08
1.85967e+08
1.86797e+08
1.88037e+08
1.89458e+08
1.91197e+08
1.93144e+08
1.95308e+08
1.97704e+08
2.00194e+08
2.02973e+08
2.05709e+08
2.08908e+08
2.12299e+08
2.17429e+08
1.85081e+08
1.77223e+08
1.7788e+08
1.7866e+08
1.79819e+08
1.81154e+08
1.82772e+08
1.84594e+08
1.866e+08
1.88834e+08
1.9113e+08
1.93712e+08
1.96222e+08
1.99194e+08
2.02335e+08
2.07212e+08
1.77049e+08
1.69471e+08
1.70086e+08
1.70821e+08
1.71903e+08
1.73157e+08
1.74662e+08
1.76371e+08
1.7823e+08
1.80319e+08
1.82437e+08
1.84844e+08
1.87149e+08
1.89919e+08
1.92838e+08
1.97492e+08
1.69308e+08
1.61982e+08
1.62558e+08
1.6325e+08
1.64259e+08
1.6544e+08
1.66842e+08
1.68448e+08
1.70173e+08
1.72131e+08
1.74089e+08
1.76341e+08
1.78465e+08
1.81058e+08
1.83779e+08
1.88238e+08
1.61828e+08
1.54733e+08
1.55272e+08
1.55926e+08
1.56867e+08
1.57982e+08
1.59288e+08
1.60803e+08
1.62407e+08
1.64251e+08
1.66066e+08
1.68182e+08
1.70145e+08
1.72584e+08
1.75131e+08
1.79419e+08
1.54587e+08
1.47704e+08
1.48209e+08
1.48828e+08
1.49708e+08
1.50764e+08
1.51983e+08
1.53417e+08
1.54912e+08
1.56657e+08
1.58346e+08
1.60346e+08
1.62169e+08
1.64477e+08
1.66874e+08
1.71017e+08
1.47566e+08
1.40884e+08
1.41357e+08
1.41945e+08
1.42768e+08
1.43772e+08
1.4491e+08
1.46275e+08
1.47672e+08
1.49333e+08
1.50911e+08
1.52814e+08
1.54517e+08
1.56715e+08
1.58982e+08
1.63e+08
1.40752e+08
1.34264e+08
1.34707e+08
1.35267e+08
1.36036e+08
1.36994e+08
1.3806e+08
1.39364e+08
1.40674e+08
1.42263e+08
1.43745e+08
1.45569e+08
1.47171e+08
1.49282e+08
1.51441e+08
1.55359e+08
1.34138e+08
1.2784e+08
1.28255e+08
1.28789e+08
1.29508e+08
1.30424e+08
1.31422e+08
1.32673e+08
1.33905e+08
1.35435e+08
1.36834e+08
1.38595e+08
1.40113e+08
1.42156e+08
1.44229e+08
1.48068e+08
1.2772e+08
1.21614e+08
1.22001e+08
1.22511e+08
1.23182e+08
1.24058e+08
1.24993e+08
1.26197e+08
1.27357e+08
1.28838e+08
1.30165e+08
1.31878e+08
1.3333e+08
1.35325e+08
1.37332e+08
1.41114e+08
1.215e+08
1.15594e+08
1.15954e+08
1.16438e+08
1.17062e+08
1.179e+08
1.18773e+08
1.19932e+08
1.21025e+08
1.22463e+08
1.23728e+08
1.25405e+08
1.26806e+08
1.28771e+08
1.30734e+08
1.34484e+08
1.15485e+08
1.09792e+08
1.10124e+08
1.10582e+08
1.11156e+08
1.11954e+08
1.12764e+08
1.13879e+08
1.14905e+08
1.16305e+08
1.17513e+08
1.19165e+08
1.20528e+08
1.22481e+08
1.24423e+08
1.28163e+08
1.09689e+08
1.04229e+08
1.0453e+08
1.04959e+08
1.05481e+08
1.06234e+08
1.06978e+08
1.08044e+08
1.09002e+08
1.10362e+08
1.11515e+08
1.13148e+08
1.14485e+08
1.16443e+08
1.18386e+08
1.22144e+08
1.04133e+08
9.89303e+07
9.91991e+07
9.95931e+07
1.00058e+08
1.00758e+08
1.01429e+08
1.02438e+08
1.0332e+08
1.04635e+08
1.05731e+08
1.07346e+08
1.08665e+08
1.1064e+08
1.12608e+08
1.1641e+08
9.88425e+07
9.39298e+07
9.41624e+07
9.45151e+07
9.49174e+07
9.5553e+07
9.61422e+07
9.70781e+07
9.78743e+07
9.91301e+07
1.0016e+08
1.01752e+08
1.03057e+08
1.0506e+08
1.07078e+08
1.10956e+08
9.38516e+07
8.92674e+07
8.94603e+07
8.97638e+07
9.00958e+07
9.06529e+07
9.11483e+07
9.19921e+07
9.26865e+07
9.38615e+07
9.48096e+07
9.63639e+07
9.76499e+07
9.96843e+07
1.01778e+08
1.05762e+08
8.92007e+07
8.49894e+07
8.51391e+07
8.53847e+07
8.56391e+07
8.61014e+07
8.64903e+07
8.7217e+07
8.77896e+07
8.88526e+07
8.96949e+07
9.1184e+07
9.24363e+07
9.4496e+07
9.66873e+07
1.00813e+08
8.49362e+07
8.11464e+07
8.12506e+07
8.143e+07
8.16011e+07
8.19517e+07
8.22216e+07
8.28026e+07
8.32312e+07
8.41415e+07
8.48451e+07
8.62256e+07
8.74145e+07
8.94777e+07
9.17829e+07
9.60848e+07
8.11085e+07
7.77916e+07
7.78498e+07
7.79564e+07
7.80416e+07
7.82657e+07
7.84079e+07
7.8814e+07
7.90772e+07
7.97858e+07
8.03109e+07
8.15208e+07
8.25975e+07
8.46203e+07
8.70402e+07
9.15379e+07
7.77705e+07
7.49773e+07
7.49917e+07
7.50228e+07
7.50247e+07
7.51128e+07
7.51258e+07
7.53324e+07
7.54146e+07
7.58691e+07
7.6172e+07
7.7127e+07
7.80177e+07
7.99244e+07
8.24335e+07
8.71276e+07
7.49735e+07
7.27488e+07
7.27248e+07
7.26827e+07
7.26108e+07
7.25629e+07
7.24563e+07
7.2451e+07
7.23503e+07
7.25048e+07
7.25453e+07
7.31362e+07
7.37282e+07
7.53712e+07
7.78693e+07
8.27629e+07
7.27617e+07
7.11318e+07
7.10778e+07
7.09703e+07
7.08415e+07
7.06691e+07
7.04673e+07
7.02587e+07
6.99995e+07
6.98368e+07
6.96068e+07
6.97286e+07
6.98936e+07
7.1011e+07
7.32245e+07
7.82601e+07
7.11594e+07
7.01373e+07
7.00652e+07
6.99051e+07
6.97446e+07
6.94709e+07
6.92166e+07
6.884e+07
6.84877e+07
6.80508e+07
6.76339e+07
6.72926e+07
6.70491e+07
6.74274e+07
6.89796e+07
7.36694e+07
7.01765e+07
6.99562e+07
6.98764e+07
6.96776e+07
6.95072e+07
6.91585e+07
6.88897e+07
6.83888e+07
6.8008e+07
6.73705e+07
6.68769e+07
6.61845e+07
6.56788e+07
6.53185e+07
6.58415e+07
6.88971e+07
7.00039e+07
7.017e+07
7.00889e+07
6.98749e+07
6.97047e+07
6.93259e+07
6.90579e+07
6.8506e+07
6.81223e+07
6.73999e+07
6.68839e+07
6.6036e+07
6.54217e+07
6.46863e+07
6.46257e+07
6.62355e+07
7.0221e+07
)
;

boundaryField
{
    wireUpstream
    {
        type            calculated;
        value           nonuniform List<scalar> 
16
(
7.04597e+07
7.03825e+07
7.01547e+07
6.99962e+07
6.95881e+07
6.93396e+07
6.87359e+07
6.8375e+07
6.75627e+07
6.7055e+07
6.60394e+07
6.53506e+07
6.42543e+07
6.36504e+07
6.33306e+07
7.05133e+07
)
;
    }
    wireDownstream
    {
        type            calculated;
        value           nonuniform List<scalar> 
16
(
4.48903e+08
4.47763e+08
4.44912e+08
4.40876e+08
4.36175e+08
4.3223e+08
4.2947e+08
4.29996e+08
4.34652e+08
4.41339e+08
4.55682e+08
4.70031e+08
4.72584e+08
4.77773e+08
4.96637e+08
4.49485e+08
)
;
    }
    wireTopContact
    {
        type            calculated;
        value           nonuniform List<scalar> 
122
(
4.80199e+08
4.78243e+08
4.7584e+08
4.76095e+08
4.76312e+08
4.76748e+08
4.7687e+08
4.76666e+08
4.76049e+08
4.75042e+08
4.73656e+08
4.71897e+08
4.69822e+08
4.67471e+08
4.64876e+08
4.62043e+08
4.59025e+08
4.55855e+08
4.52545e+08
4.49125e+08
4.45645e+08
4.42104e+08
4.38552e+08
4.3501e+08
4.31513e+08
4.28126e+08
4.24862e+08
4.21848e+08
4.19054e+08
4.16498e+08
4.14212e+08
4.12356e+08
4.10964e+08
4.10084e+08
4.09766e+08
4.10128e+08
4.11313e+08
4.13423e+08
4.16607e+08
4.20998e+08
4.26788e+08
4.34115e+08
4.4309e+08
4.53848e+08
4.66521e+08
4.8105e+08
4.97287e+08
5.14876e+08
5.33028e+08
5.51924e+08
5.76329e+08
6.08609e+08
6.49058e+08
6.96615e+08
7.5128e+08
8.11107e+08
8.76481e+08
9.45198e+08
1.0179e+09
1.08396e+09
1.07893e+09
1.05844e+09
1.0399e+09
1.01786e+09
9.91726e+08
9.62376e+08
9.30754e+08
8.9724e+08
8.62746e+08
8.27597e+08
7.92333e+08
7.57303e+08
7.2274e+08
6.88993e+08
6.56097e+08
6.24321e+08
5.93664e+08
5.64244e+08
5.36098e+08
5.09218e+08
4.83662e+08
4.59343e+08
4.36302e+08
4.14451e+08
3.93771e+08
3.7421e+08
3.55701e+08
3.3822e+08
3.21673e+08
3.06042e+08
2.91245e+08
2.77241e+08
2.6398e+08
2.51404e+08
2.39488e+08
2.28164e+08
2.17417e+08
2.07192e+08
1.97464e+08
1.88202e+08
1.79373e+08
1.70964e+08
1.62937e+08
1.55286e+08
1.47983e+08
1.41018e+08
1.34375e+08
1.2804e+08
1.22009e+08
1.16261e+08
1.10794e+08
1.05588e+08
1.00631e+08
9.59016e+07
9.13624e+07
8.69731e+07
8.26613e+07
7.83001e+07
7.39417e+07
6.94308e+07
6.67758e+07
4.94178e+08
)
;
    }
    front
    {
        type            wedge;
    }
    back
    {
        type            wedge;
    }
}


// ************************************************************************* //
