/*--------------------------------*- C++ -*----------------------------------*\
| =========                 |                                                 |
| \\      /  F ield         | foam-extend: Open Source CFD                    |
|  \\    /   O peration     | Version:     4.1-20200408                       |
|   \\  /    A nd           | Web:         http://www.foam-extend.org         |
|    \\/     M anipulation  |                                                 |
\*---------------------------------------------------------------------------*/
FoamFile
{
    version     2.0;
    format      ascii;
    class       volVectorField;
    location    "0.0115000";
    object      U;
}
// * * * * * * * * * * * * * * * * * * * * * * * * * * * * * * * * * * * * * //

dimensions      [0 1 0 0 0 0 0];

internalField   nonuniform List<vector> 
1952
(
(0.0114761 -4.14592e-08 0)
(0.0114761 -6.76282e-08 0)
(0.0114762 -9.40988e-08 0)
(0.0114762 -1.20841e-07 0)
(0.0114763 -1.47634e-07 0)
(0.0114763 -1.75817e-07 0)
(0.0114764 -2.03858e-07 0)
(0.0114765 -2.33323e-07 0)
(0.0114766 -2.62499e-07 0)
(0.0114767 -2.92866e-07 0)
(0.0114768 -3.22156e-07 0)
(0.0114769 -3.54176e-07 0)
(0.011477 -3.85387e-07 0)
(0.0114771 -4.19975e-07 0)
(0.0114773 -4.54632e-07 0)
(0.0114761 -1.77763e-08 0)
(0.011476 -4.49538e-08 0)
(0.011476 -7.32883e-08 0)
(0.0114761 -1.02116e-07 0)
(0.0114761 -1.31149e-07 0)
(0.0114762 -1.60729e-07 0)
(0.0114762 -1.91421e-07 0)
(0.0114763 -2.22359e-07 0)
(0.0114764 -2.54466e-07 0)
(0.0114765 -2.86589e-07 0)
(0.0114766 -3.19752e-07 0)
(0.0114767 -3.52204e-07 0)
(0.0114768 -3.86857e-07 0)
(0.0114769 -4.21476e-07 0)
(0.011477 -4.58649e-07 0)
(0.0114772 -4.95586e-07 0)
(0.011476 -1.92653e-08 0)
(0.0114759 -4.80524e-08 0)
(0.0114759 -7.83794e-08 0)
(0.0114759 -1.09145e-07 0)
(0.011476 -1.40341e-07 0)
(0.011476 -1.72271e-07 0)
(0.0114761 -2.05084e-07 0)
(0.0114762 -2.38319e-07 0)
(0.0114763 -2.72597e-07 0)
(0.0114764 -3.06884e-07 0)
(0.0114764 -3.42161e-07 0)
(0.0114766 -3.7664e-07 0)
(0.0114767 -4.12784e-07 0)
(0.0114768 -4.48828e-07 0)
(0.0114769 -4.86434e-07 0)
(0.0114771 -5.22758e-07 0)
(0.0114759 -2.05932e-08 0)
(0.0114758 -5.06903e-08 0)
(0.0114758 -8.27096e-08 0)
(0.0114758 -1.15104e-07 0)
(0.0114759 -1.48139e-07 0)
(0.0114759 -1.81906e-07 0)
(0.011476 -2.16461e-07 0)
(0.0114761 -2.51413e-07 0)
(0.0114761 -2.8735e-07 0)
(0.0114762 -3.23105e-07 0)
(0.0114763 -3.59815e-07 0)
(0.0114764 -3.95411e-07 0)
(0.0114766 -4.32189e-07 0)
(0.0114767 -4.68628e-07 0)
(0.0114768 -5.0585e-07 0)
(0.011477 -5.41354e-07 0)
(0.0114758 -2.17254e-08 0)
(0.0114757 -5.2866e-08 0)
(0.0114757 -8.61894e-08 0)
(0.0114757 -1.20029e-07 0)
(0.0114758 -1.54632e-07 0)
(0.0114758 -1.89697e-07 0)
(0.0114759 -2.25648e-07 0)
(0.0114759 -2.61793e-07 0)
(0.011476 -2.98933e-07 0)
(0.0114761 -3.35606e-07 0)
(0.0114762 -3.73183e-07 0)
(0.0114763 -4.09267e-07 0)
(0.0114764 -4.46118e-07 0)
(0.0114766 -4.8248e-07 0)
(0.0114767 -5.19062e-07 0)
(0.0114768 -5.54033e-07 0)
(0.0114757 -2.26526e-08 0)
(0.0114755 -5.45783e-08 0)
(0.0114756 -8.88981e-08 0)
(0.0114756 -1.23868e-07 0)
(0.0114756 -1.59695e-07 0)
(0.0114757 -1.95695e-07 0)
(0.0114758 -2.32695e-07 0)
(0.0114758 -2.69619e-07 0)
(0.0114759 -3.07588e-07 0)
(0.011476 -3.44775e-07 0)
(0.0114761 -3.82811e-07 0)
(0.0114762 -4.19006e-07 0)
(0.0114763 -4.55616e-07 0)
(0.0114765 -4.91728e-07 0)
(0.0114766 -5.27672e-07 0)
(0.0114767 -5.62279e-07 0)
(0.0114755 -2.33838e-08 0)
(0.0114754 -5.5801e-08 0)
(0.0114755 -9.09799e-08 0)
(0.0114755 -1.26846e-07 0)
(0.0114755 -1.63439e-07 0)
(0.0114756 -2.00162e-07 0)
(0.0114756 -2.37836e-07 0)
(0.0114757 -2.75254e-07 0)
(0.0114758 -3.13704e-07 0)
(0.0114759 -3.51115e-07 0)
(0.011476 -3.89324e-07 0)
(0.0114761 -4.254e-07 0)
(0.0114762 -4.61603e-07 0)
(0.0114764 -4.97425e-07 0)
(0.0114765 -5.328e-07 0)
(0.0114766 -5.67183e-07 0)
(0.0114754 -2.3917e-08 0)
(0.0114753 -5.66512e-08 0)
(0.0114753 -9.2508e-08 0)
(0.0114754 -1.28976e-07 0)
(0.0114754 -1.6605e-07 0)
(0.0114755 -2.03229e-07 0)
(0.0114755 -2.4129e-07 0)
(0.0114756 -2.78968e-07 0)
(0.0114757 -3.17615e-07 0)
(0.0114758 -3.55075e-07 0)
(0.0114759 -3.93207e-07 0)
(0.011476 -4.29154e-07 0)
(0.0114761 -4.6495e-07 0)
(0.0114762 -5.0042e-07 0)
(0.0114764 -5.35336e-07 0)
(0.0114765 -5.69546e-07 0)
(0.0114753 -2.42777e-08 0)
(0.0114752 -5.73277e-08 0)
(0.0114752 -9.35916e-08 0)
(0.0114753 -1.30343e-07 0)
(0.0114753 -1.67689e-07 0)
(0.0114753 -2.05111e-07 0)
(0.0114754 -2.43308e-07 0)
(0.0114755 -2.81098e-07 0)
(0.0114756 -3.19701e-07 0)
(0.0114757 -3.5713e-07 0)
(0.0114758 -3.94974e-07 0)
(0.0114759 -4.30876e-07 0)
(0.011476 -4.66308e-07 0)
(0.0114761 -5.01374e-07 0)
(0.0114763 -5.35931e-07 0)
(0.0114764 -5.69987e-07 0)
(0.0114752 -2.45653e-08 0)
(0.0114751 -5.77355e-08 0)
(0.0114751 -9.41915e-08 0)
(0.0114751 -1.31053e-07 0)
(0.0114752 -1.68486e-07 0)
(0.0114752 -2.05996e-07 0)
(0.0114753 -2.4416e-07 0)
(0.0114754 -2.81935e-07 0)
(0.0114755 -3.20367e-07 0)
(0.0114756 -3.57679e-07 0)
(0.0114757 -3.9519e-07 0)
(0.0114758 -4.31e-07 0)
(0.0114759 -4.66061e-07 0)
(0.011476 -5.00763e-07 0)
(0.0114762 -5.35009e-07 0)
(0.0114763 -5.68928e-07 0)
(0.0114751 -2.47443e-08 0)
(0.011475 -5.78448e-08 0)
(0.011475 -9.43299e-08 0)
(0.011475 -1.31186e-07 0)
(0.0114751 -1.68579e-07 0)
(0.0114751 -2.06054e-07 0)
(0.0114752 -2.44066e-07 0)
(0.0114753 -2.8175e-07 0)
(0.0114753 -3.19925e-07 0)
(0.0114754 -3.57091e-07 0)
(0.0114755 -3.94243e-07 0)
(0.0114757 -4.29909e-07 0)
(0.0114758 -4.64588e-07 0)
(0.0114759 -4.98981e-07 0)
(0.0114761 -5.32945e-07 0)
(0.0114762 -5.66734e-07 0)
(0.011475 -2.47926e-08 0)
(0.0114749 -5.77385e-08 0)
(0.0114749 -9.41187e-08 0)
(0.0114749 -1.3089e-07 0)
(0.011475 -1.68138e-07 0)
(0.011475 -2.05468e-07 0)
(0.0114751 -2.43244e-07 0)
(0.0114752 -2.80768e-07 0)
(0.0114752 -3.18632e-07 0)
(0.0114753 -3.55618e-07 0)
(0.0114754 -3.92398e-07 0)
(0.0114756 -4.27908e-07 0)
(0.0114757 -4.62215e-07 0)
(0.0114758 -4.96321e-07 0)
(0.011476 -5.30022e-07 0)
(0.0114761 -5.63674e-07 0)
(0.0114749 -2.47463e-08 0)
(0.0114747 -5.74476e-08 0)
(0.0114748 -9.36165e-08 0)
(0.0114748 -1.30218e-07 0)
(0.0114749 -1.67235e-07 0)
(0.0114749 -2.04359e-07 0)
(0.011475 -2.41836e-07 0)
(0.011475 -2.79162e-07 0)
(0.0114751 -3.16669e-07 0)
(0.0114752 -3.53474e-07 0)
(0.0114753 -3.89891e-07 0)
(0.0114755 -4.25272e-07 0)
(0.0114756 -4.59207e-07 0)
(0.0114757 -4.93035e-07 0)
(0.0114759 -5.26478e-07 0)
(0.011476 -5.59981e-07 0)
(0.0114747 -2.46203e-08 0)
(0.0114746 -5.70226e-08 0)
(0.0114747 -9.2898e-08 0)
(0.0114747 -1.29258e-07 0)
(0.0114747 -1.65987e-07 0)
(0.0114748 -2.02868e-07 0)
(0.0114749 -2.40004e-07 0)
(0.0114749 -2.77113e-07 0)
(0.011475 -3.14233e-07 0)
(0.0114751 -3.50858e-07 0)
(0.0114752 -3.86907e-07 0)
(0.0114753 -4.22183e-07 0)
(0.0114755 -4.55759e-07 0)
(0.0114756 -4.89292e-07 0)
(0.0114758 -5.22483e-07 0)
(0.0114759 -5.55815e-07 0)
(0.0114746 -2.44362e-08 0)
(0.0114745 -5.65029e-08 0)
(0.0114746 -9.20272e-08 0)
(0.0114746 -1.28093e-07 0)
(0.0114746 -1.64485e-07 0)
(0.0114747 -2.01092e-07 0)
(0.0114748 -2.37856e-07 0)
(0.0114748 -2.7473e-07 0)
(0.0114749 -3.11454e-07 0)
(0.011475 -3.479e-07 0)
(0.0114751 -3.83562e-07 0)
(0.0114752 -4.18746e-07 0)
(0.0114754 -4.51979e-07 0)
(0.0114755 -4.8521e-07 0)
(0.0114757 -5.18154e-07 0)
(0.0114758 -5.51296e-07 0)
(0.0114745 -2.42115e-08 0)
(0.0114744 -5.59174e-08 0)
(0.0114745 -9.10592e-08 0)
(0.0114745 -1.26793e-07 0)
(0.0114745 -1.62805e-07 0)
(0.0114746 -1.99117e-07 0)
(0.0114747 -2.35485e-07 0)
(0.0114747 -2.72123e-07 0)
(0.0114748 -3.08447e-07 0)
(0.0114749 -3.44728e-07 0)
(0.011475 -3.79998e-07 0)
(0.0114751 -4.15024e-07 0)
(0.0114753 -4.47927e-07 0)
(0.0114754 -4.80869e-07 0)
(0.0114756 -5.13567e-07 0)
(0.0114757 -5.46506e-07 0)
(0.0114744 -2.39589e-08 0)
(0.0114743 -5.53023e-08 0)
(0.0114744 -9.00533e-08 0)
(0.0114744 -1.25424e-07 0)
(0.0114744 -1.61015e-07 0)
(0.0114745 -1.97011e-07 0)
(0.0114746 -2.3296e-07 0)
(0.0114746 -2.69342e-07 0)
(0.0114747 -3.05258e-07 0)
(0.0114748 -3.41343e-07 0)
(0.0114749 -3.76228e-07 0)
(0.011475 -4.11114e-07 0)
(0.0114752 -4.43684e-07 0)
(0.0114753 -4.76349e-07 0)
(0.0114755 -5.08793e-07 0)
(0.0114756 -5.41515e-07 0)
(0.0114743 -2.36941e-08 0)
(0.0114742 -5.46412e-08 0)
(0.0114742 -8.89669e-08 0)
(0.0114743 -1.23961e-07 0)
(0.0114743 -1.59135e-07 0)
(0.0114744 -1.94796e-07 0)
(0.0114745 -2.30321e-07 0)
(0.0114745 -2.66424e-07 0)
(0.0114746 -3.01931e-07 0)
(0.0114747 -3.37788e-07 0)
(0.0114748 -3.72301e-07 0)
(0.0114749 -4.07133e-07 0)
(0.0114751 -4.39358e-07 0)
(0.0114752 -4.71732e-07 0)
(0.0114754 -5.03913e-07 0)
(0.0114755 -5.364e-07 0)
(0.0114742 -2.34093e-08 0)
(0.0114741 -5.39234e-08 0)
(0.0114741 -8.78009e-08 0)
(0.0114742 -1.22433e-07 0)
(0.0114742 -1.57202e-07 0)
(0.0114743 -1.92536e-07 0)
(0.0114744 -2.27637e-07 0)
(0.0114744 -2.63473e-07 0)
(0.0114745 -2.9857e-07 0)
(0.0114746 -3.3423e-07 0)
(0.0114747 -3.68361e-07 0)
(0.0114748 -4.03088e-07 0)
(0.011475 -4.34957e-07 0)
(0.0114751 -4.67032e-07 0)
(0.0114753 -4.98942e-07 0)
(0.0114754 -5.31182e-07 0)
(0.0114741 -2.31011e-08 0)
(0.011474 -5.32294e-08 0)
(0.0114741 -8.66699e-08 0)
(0.0114741 -1.20879e-07 0)
(0.0114741 -1.55214e-07 0)
(0.0114742 -1.90224e-07 0)
(0.0114743 -2.24894e-07 0)
(0.0114743 -2.60457e-07 0)
(0.0114744 -2.95144e-07 0)
(0.0114745 -3.30615e-07 0)
(0.0114746 -3.64358e-07 0)
(0.0114747 -3.98975e-07 0)
(0.0114749 -4.30482e-07 0)
(0.011475 -4.62264e-07 0)
(0.0114752 -4.93898e-07 0)
(0.0114753 -5.25882e-07 0)
(0.011474 -2.28032e-08 0)
(0.0114739 -5.25667e-08 0)
(0.011474 -8.55683e-08 0)
(0.011474 -1.19324e-07 0)
(0.011474 -1.53199e-07 0)
(0.0114741 -1.87868e-07 0)
(0.0114742 -2.22114e-07 0)
(0.0114742 -2.574e-07 0)
(0.0114743 -2.91679e-07 0)
(0.0114744 -3.26956e-07 0)
(0.0114745 -3.60307e-07 0)
(0.0114747 -3.94833e-07 0)
(0.0114748 -4.25969e-07 0)
(0.0114749 -4.57451e-07 0)
(0.0114751 -4.88807e-07 0)
(0.0114752 -5.20525e-07 0)
(0.0114739 -2.25175e-08 0)
(0.0114738 -5.18813e-08 0)
(0.0114739 -8.44394e-08 0)
(0.0114739 -1.1777e-07 0)
(0.0114739 -1.51161e-07 0)
(0.011474 -1.85456e-07 0)
(0.0114741 -2.19298e-07 0)
(0.0114741 -2.54296e-07 0)
(0.0114742 -2.88172e-07 0)
(0.0114743 -3.23256e-07 0)
(0.0114744 -3.56214e-07 0)
(0.0114746 -3.9065e-07 0)
(0.0114747 -4.21404e-07 0)
(0.0114748 -4.5258e-07 0)
(0.011475 -4.83662e-07 0)
(0.0114751 -5.15109e-07 0)
(0.0114738 -2.22227e-08 0)
(0.0114737 -5.11587e-08 0)
(0.0114738 -8.32731e-08 0)
(0.0114738 -1.16173e-07 0)
(0.0114738 -1.49087e-07 0)
(0.0114739 -1.82994e-07 0)
(0.011474 -2.16422e-07 0)
(0.011474 -2.51127e-07 0)
(0.0114741 -2.84604e-07 0)
(0.0114742 -3.1949e-07 0)
(0.0114743 -3.52059e-07 0)
(0.0114745 -3.86431e-07 0)
(0.0114746 -4.16795e-07 0)
(0.0114747 -4.47657e-07 0)
(0.0114749 -4.78476e-07 0)
(0.011475 -5.09646e-07 0)
(0.0114737 -2.19132e-08 0)
(0.0114736 -5.04056e-08 0)
(0.0114737 -8.20584e-08 0)
(0.0114737 -1.14506e-07 0)
(0.0114738 -1.46979e-07 0)
(0.0114738 -1.80469e-07 0)
(0.0114739 -2.13462e-07 0)
(0.011474 -2.47889e-07 0)
(0.011474 -2.80974e-07 0)
(0.0114741 -3.15659e-07 0)
(0.0114742 -3.47862e-07 0)
(0.0114744 -3.82149e-07 0)
(0.0114745 -4.12136e-07 0)
(0.0114746 -4.42669e-07 0)
(0.0114748 -4.7325e-07 0)
(0.011475 -5.04144e-07 0)
(0.0114736 -2.15902e-08 0)
(0.0114736 -4.96252e-08 0)
(0.0114736 -8.08023e-08 0)
(0.0114736 -1.12779e-07 0)
(0.0114737 -1.44789e-07 0)
(0.0114737 -1.77846e-07 0)
(0.0114738 -2.10407e-07 0)
(0.0114739 -2.44531e-07 0)
(0.011474 -2.77247e-07 0)
(0.0114741 -3.11709e-07 0)
(0.0114742 -3.4358e-07 0)
(0.0114743 -3.7778e-07 0)
(0.0114744 -4.07409e-07 0)
(0.0114746 -4.37606e-07 0)
(0.0114747 -4.67982e-07 0)
(0.0114749 -4.98603e-07 0)
(0.0114735 -2.12557e-08 0)
(0.0114735 -4.88051e-08 0)
(0.0114735 -7.94824e-08 0)
(0.0114735 -1.10971e-07 0)
(0.0114736 -1.42485e-07 0)
(0.0114736 -1.75115e-07 0)
(0.0114737 -2.07259e-07 0)
(0.0114738 -2.41033e-07 0)
(0.0114739 -2.73398e-07 0)
(0.011474 -3.07591e-07 0)
(0.0114741 -3.39195e-07 0)
(0.0114742 -3.73179e-07 0)
(0.0114743 -4.02653e-07 0)
(0.0114745 -4.32577e-07 0)
(0.0114746 -4.62698e-07 0)
(0.0114748 -4.93076e-07 0)
(0.0114735 -2.09043e-08 0)
(0.0114734 -4.79417e-08 0)
(0.0114734 -7.80918e-08 0)
(0.0114734 -1.0906e-07 0)
(0.0114735 -1.40068e-07 0)
(0.0114735 -1.72229e-07 0)
(0.0114736 -2.03957e-07 0)
(0.0114737 -2.37335e-07 0)
(0.0114738 -2.69385e-07 0)
(0.0114739 -3.03238e-07 0)
(0.011474 -3.34674e-07 0)
(0.0114741 -3.68318e-07 0)
(0.0114742 -3.97865e-07 0)
(0.0114744 -4.276e-07 0)
(0.0114745 -4.57398e-07 0)
(0.0114747 -4.87573e-07 0)
(0.0114734 -2.05344e-08 0)
(0.0114733 -4.70303e-08 0)
(0.0114733 -7.6621e-08 0)
(0.0114734 -1.07048e-07 0)
(0.0114734 -1.3754e-07 0)
(0.0114735 -1.69211e-07 0)
(0.0114735 -2.00496e-07 0)
(0.0114736 -2.33434e-07 0)
(0.0114737 -2.65224e-07 0)
(0.0114738 -2.98698e-07 0)
(0.0114739 -3.30011e-07 0)
(0.011474 -3.63359e-07 0)
(0.0114741 -3.92945e-07 0)
(0.0114743 -4.22489e-07 0)
(0.0114744 -4.51997e-07 0)
(0.0114746 -4.81982e-07 0)
(0.0114733 -2.01436e-08 0)
(0.0114732 -4.60694e-08 0)
(0.0114732 -7.50759e-08 0)
(0.0114733 -1.04928e-07 0)
(0.0114733 -1.34883e-07 0)
(0.0114734 -1.66031e-07 0)
(0.0114734 -1.96859e-07 0)
(0.0114735 -2.29325e-07 0)
(0.0114736 -2.60868e-07 0)
(0.0114737 -2.93953e-07 0)
(0.0114738 -3.25169e-07 0)
(0.0114739 -3.58255e-07 0)
(0.0114741 -3.87844e-07 0)
(0.0114742 -4.1719e-07 0)
(0.0114743 -4.46457e-07 0)
(0.0114745 -4.76272e-07 0)
(0.0114732 -1.97318e-08 0)
(0.0114731 -4.50543e-08 0)
(0.0114732 -7.34433e-08 0)
(0.0114732 -1.02682e-07 0)
(0.0114732 -1.3208e-07 0)
(0.0114733 -1.62656e-07 0)
(0.0114734 -1.93042e-07 0)
(0.0114734 -2.25032e-07 0)
(0.0114735 -2.56301e-07 0)
(0.0114736 -2.89016e-07 0)
(0.0114737 -3.20114e-07 0)
(0.0114738 -3.5296e-07 0)
(0.011474 -3.82542e-07 0)
(0.0114741 -4.11704e-07 0)
(0.0114743 -4.40757e-07 0)
(0.0114744 -4.70428e-07 0)
(0.0114731 -1.92967e-08 0)
(0.0114731 -4.3985e-08 0)
(0.0114731 -7.17244e-08 0)
(0.0114731 -1.00316e-07 0)
(0.0114732 -1.29133e-07 0)
(0.0114732 -1.59108e-07 0)
(0.0114733 -1.89043e-07 0)
(0.0114733 -2.20545e-07 0)
(0.0114734 -2.5153e-07 0)
(0.0114735 -2.83879e-07 0)
(0.0114736 -3.14823e-07 0)
(0.0114738 -3.47442e-07 0)
(0.0114739 -3.76989e-07 0)
(0.011474 -4.05984e-07 0)
(0.0114742 -4.34858e-07 0)
(0.0114743 -4.64417e-07 0)
(0.011473 -1.88384e-08 0)
(0.011473 -4.28704e-08 0)
(0.011473 -6.99378e-08 0)
(0.011473 -9.7847e-08 0)
(0.0114731 -1.26046e-07 0)
(0.0114731 -1.55395e-07 0)
(0.0114732 -1.8484e-07 0)
(0.0114733 -2.1584e-07 0)
(0.0114734 -2.46503e-07 0)
(0.0114734 -2.78491e-07 0)
(0.0114736 -3.09276e-07 0)
(0.0114737 -3.41686e-07 0)
(0.0114738 -3.71209e-07 0)
(0.0114739 -4.00066e-07 0)
(0.0114741 -4.28784e-07 0)
(0.0114742 -4.58274e-07 0)
(0.011473 -1.83611e-08 0)
(0.0114729 -4.17017e-08 0)
(0.0114729 -6.80574e-08 0)
(0.011473 -9.52614e-08 0)
(0.011473 -1.2283e-07 0)
(0.011473 -1.51532e-07 0)
(0.0114731 -1.80469e-07 0)
(0.0114732 -2.10949e-07 0)
(0.0114733 -2.41267e-07 0)
(0.0114734 -2.72888e-07 0)
(0.0114735 -3.03489e-07 0)
(0.0114736 -3.35705e-07 0)
(0.0114737 -3.65201e-07 0)
(0.0114739 -3.93948e-07 0)
(0.011474 -4.22537e-07 0)
(0.0114742 -4.52006e-07 0)
(0.0114729 -1.78601e-08 0)
(0.0114728 -4.05009e-08 0)
(0.0114729 -6.61242e-08 0)
(0.0114729 -9.26025e-08 0)
(0.0114729 -1.19522e-07 0)
(0.011473 -1.47556e-07 0)
(0.011473 -1.75972e-07 0)
(0.0114731 -2.05881e-07 0)
(0.0114732 -2.35821e-07 0)
(0.0114733 -2.67085e-07 0)
(0.0114734 -2.97474e-07 0)
(0.0114735 -3.2951e-07 0)
(0.0114736 -3.58982e-07 0)
(0.0114738 -3.87654e-07 0)
(0.0114739 -4.16148e-07 0)
(0.0114741 -4.45653e-07 0)
(0.0114728 -1.73454e-08 0)
(0.0114728 -3.92855e-08 0)
(0.0114728 -6.41678e-08 0)
(0.0114728 -8.99078e-08 0)
(0.0114729 -1.16159e-07 0)
(0.0114729 -1.43512e-07 0)
(0.011473 -1.71383e-07 0)
(0.011473 -2.007e-07 0)
(0.0114731 -2.30237e-07 0)
(0.0114732 -2.61137e-07 0)
(0.0114733 -2.91288e-07 0)
(0.0114734 -3.23151e-07 0)
(0.0114736 -3.52597e-07 0)
(0.0114737 -3.81234e-07 0)
(0.0114738 -4.09674e-07 0)
(0.011474 -4.39281e-07 0)
(0.0114728 -1.68244e-08 0)
(0.0114727 -3.80804e-08 0)
(0.0114727 -6.2227e-08 0)
(0.0114727 -8.72256e-08 0)
(0.0114728 -1.12792e-07 0)
(0.0114728 -1.39459e-07 0)
(0.0114729 -1.66751e-07 0)
(0.011473 -1.95488e-07 0)
(0.011473 -2.2461e-07 0)
(0.0114731 -2.55109e-07 0)
(0.0114732 -2.85024e-07 0)
(0.0114734 -3.16712e-07 0)
(0.0114735 -3.46135e-07 0)
(0.0114736 -3.74775e-07 0)
(0.0114738 -4.03202e-07 0)
(0.0114739 -4.32984e-07 0)
(0.0114727 -1.63079e-08 0)
(0.0114726 -3.69201e-08 0)
(0.0114727 -6.03511e-08 0)
(0.0114727 -8.46261e-08 0)
(0.0114727 -1.09519e-07 0)
(0.0114728 -1.355e-07 0)
(0.0114728 -1.62201e-07 0)
(0.0114729 -1.90347e-07 0)
(0.011473 -2.19029e-07 0)
(0.0114731 -2.49112e-07 0)
(0.0114732 -2.78818e-07 0)
(0.0114733 -3.10339e-07 0)
(0.0114734 -3.3977e-07 0)
(0.0114735 -3.68448e-07 0)
(0.0114737 -3.96893e-07 0)
(0.0114738 -4.2693e-07 0)
(0.0114726 -1.58107e-08 0)
(0.0114726 -3.58432e-08 0)
(0.0114726 -5.8597e-08 0)
(0.0114726 -8.21985e-08 0)
(0.0114727 -1.06474e-07 0)
(0.0114727 -1.31792e-07 0)
(0.0114728 -1.57935e-07 0)
(0.0114728 -1.85483e-07 0)
(0.0114729 -2.13741e-07 0)
(0.011473 -2.43399e-07 0)
(0.0114731 -2.72874e-07 0)
(0.0114732 -3.04225e-07 0)
(0.0114733 -3.33662e-07 0)
(0.0114734 -3.62407e-07 0)
(0.0114736 -3.90911e-07 0)
(0.0114737 -4.2129e-07 0)
(0.0114726 -1.53486e-08 0)
(0.0114725 -3.49351e-08 0)
(0.0114725 -5.71157e-08 0)
(0.0114726 -8.01246e-08 0)
(0.0114726 -1.03845e-07 0)
(0.0114726 -1.28551e-07 0)
(0.0114727 -1.5418e-07 0)
(0.0114728 -1.81147e-07 0)
(0.0114728 -2.09009e-07 0)
(0.0114729 -2.38225e-07 0)
(0.011473 -2.67447e-07 0)
(0.0114731 -2.98606e-07 0)
(0.0114732 -3.28062e-07 0)
(0.0114734 -3.56905e-07 0)
(0.0114735 -3.85507e-07 0)
(0.0114737 -4.16321e-07 0)
(0.0114725 -1.49594e-08 0)
(0.0114725 -3.42896e-08 0)
(0.0114725 -5.60579e-08 0)
(0.0114725 -7.86057e-08 0)
(0.0114725 -1.0188e-07 0)
(0.0114726 -1.2606e-07 0)
(0.0114726 -1.51245e-07 0)
(0.0114727 -1.77667e-07 0)
(0.0114728 -2.05145e-07 0)
(0.0114729 -2.33907e-07 0)
(0.0114729 -2.62894e-07 0)
(0.011473 -2.93824e-07 0)
(0.0114732 -3.23334e-07 0)
(0.0114733 -3.5231e-07 0)
(0.0114734 -3.81022e-07 0)
(0.0114736 -4.12375e-07 0)
(0.0114724 -1.46832e-08 0)
(0.0114724 -3.40026e-08 0)
(0.0114724 -5.55718e-08 0)
(0.0114724 -7.78626e-08 0)
(0.0114725 -1.00877e-07 0)
(0.0114725 -1.2468e-07 0)
(0.0114726 -1.49538e-07 0)
(0.0114726 -1.75488e-07 0)
(0.0114727 -2.02622e-07 0)
(0.0114728 -2.30943e-07 0)
(0.0114729 -2.5971e-07 0)
(0.011473 -2.90392e-07 0)
(0.0114731 -3.1994e-07 0)
(0.0114732 -3.49061e-07 0)
(0.0114733 -3.77883e-07 0)
(0.0114735 -4.09878e-07 0)
(0.0114724 -1.45611e-08 0)
(0.0114724 -3.42118e-08 0)
(0.0114724 -5.58881e-08 0)
(0.0114724 -7.82152e-08 0)
(0.0114724 -1.01234e-07 0)
(0.0114725 -1.24876e-07 0)
(0.0114725 -1.49591e-07 0)
(0.0114726 -1.7519e-07 0)
(0.0114726 -2.02084e-07 0)
(0.0114727 -2.29994e-07 0)
(0.0114728 -2.58542e-07 0)
(0.0114729 -2.88955e-07 0)
(0.011473 -3.18491e-07 0)
(0.0114731 -3.47742e-07 0)
(0.0114733 -3.76667e-07 0)
(0.0114734 -4.09401e-07 0)
(0.0114723 -1.46528e-08 0)
(0.0114723 -3.51049e-08 0)
(0.0114723 -5.72985e-08 0)
(0.0114723 -8.00436e-08 0)
(0.0114724 -1.03428e-07 0)
(0.0114724 -1.27216e-07 0)
(0.0114725 -1.5206e-07 0)
(0.0114725 -1.77502e-07 0)
(0.0114726 -2.04308e-07 0)
(0.0114727 -2.31861e-07 0)
(0.0114727 -2.60199e-07 0)
(0.0114728 -2.90309e-07 0)
(0.0114729 -3.19763e-07 0)
(0.011473 -3.49108e-07 0)
(0.0114732 -3.78106e-07 0)
(0.0114733 -4.11665e-07 0)
(0.0114723 -1.50377e-08 0)
(0.0114723 -3.68887e-08 0)
(0.0114723 -6.01325e-08 0)
(0.0114723 -8.37959e-08 0)
(0.0114723 -1.08027e-07 0)
(0.0114724 -1.32386e-07 0)
(0.0114724 -1.57731e-07 0)
(0.0114725 -1.83311e-07 0)
(0.0114725 -2.10218e-07 0)
(0.0114726 -2.37513e-07 0)
(0.0114727 -2.65727e-07 0)
(0.0114728 -2.95499e-07 0)
(0.0114729 -3.24812e-07 0)
(0.011473 -3.54177e-07 0)
(0.0114731 -3.83175e-07 0)
(0.0114732 -4.17624e-07 0)
(0.0114723 -1.58043e-08 0)
(0.0114722 -3.97723e-08 0)
(0.0114722 -6.47465e-08 0)
(0.0114723 -8.99924e-08 0)
(0.0114723 -1.15694e-07 0)
(0.0114723 -1.41184e-07 0)
(0.0114724 -1.67534e-07 0)
(0.0114724 -1.93644e-07 0)
(0.0114725 -2.20979e-07 0)
(0.0114725 -2.48214e-07 0)
(0.0114726 -2.76445e-07 0)
(0.0114727 -3.05871e-07 0)
(0.0114728 -3.34999e-07 0)
(0.0114729 -3.64267e-07 0)
(0.011473 -3.93131e-07 0)
(0.0114731 -4.28498e-07 0)
(0.0114722 -1.70434e-08 0)
(0.0114722 -4.40077e-08 0)
(0.0114722 -7.15545e-08 0)
(0.0114722 -9.9216e-08 0)
(0.0114722 -1.27178e-07 0)
(0.0114723 -1.54526e-07 0)
(0.0114723 -1.82557e-07 0)
(0.0114724 -2.09745e-07 0)
(0.0114724 -2.3802e-07 0)
(0.0114725 -2.65528e-07 0)
(0.0114725 -2.93976e-07 0)
(0.0114726 -3.23102e-07 0)
(0.0114727 -3.52008e-07 0)
(0.0114728 -3.81028e-07 0)
(0.0114729 -4.09584e-07 0)
(0.011473 -4.45843e-07 0)
(0.0114722 -1.88631e-08 0)
(0.0114721 -4.98836e-08 0)
(0.0114721 -8.10176e-08 0)
(0.0114722 -1.12092e-07 0)
(0.0114722 -1.43291e-07 0)
(0.0114722 -1.73427e-07 0)
(0.0114723 -2.04007e-07 0)
(0.0114723 -2.33051e-07 0)
(0.0114724 -2.62955e-07 0)
(0.0114724 -2.91241e-07 0)
(0.0114725 -3.20281e-07 0)
(0.0114726 -3.4925e-07 0)
(0.0114726 -3.77964e-07 0)
(0.0114727 -4.06571e-07 0)
(0.0114728 -4.34615e-07 0)
(0.0114729 -4.71661e-07 0)
(0.0114721 -2.13862e-08 0)
(0.0114721 -5.76691e-08 0)
(0.0114721 -9.35783e-08 0)
(0.0114721 -1.29248e-07 0)
(0.0114721 -1.6486e-07 0)
(0.0114722 -1.98932e-07 0)
(0.0114722 -2.33163e-07 0)
(0.0114723 -2.65096e-07 0)
(0.0114723 -2.97561e-07 0)
(0.0114724 -3.27393e-07 0)
(0.0114724 -3.57694e-07 0)
(0.0114725 -3.86833e-07 0)
(0.0114726 -4.15547e-07 0)
(0.0114726 -4.43599e-07 0)
(0.0114727 -4.70882e-07 0)
(0.0114728 -5.0846e-07 0)
(0.0114721 -2.47278e-08 0)
(0.011472 -6.75878e-08 0)
(0.011472 -1.09623e-07 0)
(0.0114721 -1.51268e-07 0)
(0.0114721 -1.92669e-07 0)
(0.0114721 -2.32067e-07 0)
(0.0114722 -2.71307e-07 0)
(0.0114722 -3.07466e-07 0)
(0.0114723 -3.43751e-07 0)
(0.0114723 -3.76269e-07 0)
(0.0114724 -4.08881e-07 0)
(0.0114724 -4.38872e-07 0)
(0.0114725 -4.68101e-07 0)
(0.0114726 -4.95587e-07 0)
(0.0114726 -5.21841e-07 0)
(0.0114727 -5.59429e-07 0)
(0.011472 -2.89841e-08 0)
(0.011472 -7.98238e-08 0)
(0.011472 -1.29468e-07 0)
(0.011472 -1.78628e-07 0)
(0.011472 -2.27383e-07 0)
(0.0114721 -2.73725e-07 0)
(0.0114721 -3.19611e-07 0)
(0.0114722 -3.61667e-07 0)
(0.0114722 -4.03445e-07 0)
(0.0114723 -4.40269e-07 0)
(0.0114723 -4.76737e-07 0)
(0.0114724 -5.08891e-07 0)
(0.0114724 -5.39795e-07 0)
(0.0114725 -5.67252e-07 0)
(0.0114725 -5.9266e-07 0)
(0.0114726 -6.29744e-07 0)
(0.011472 -3.42338e-08 0)
(0.0114719 -9.44943e-08 0)
(0.0114719 -1.53307e-07 0)
(0.0114719 -2.11612e-07 0)
(0.011472 -2.6942e-07 0)
(0.011472 -3.24512e-07 0)
(0.011472 -3.78925e-07 0)
(0.0114721 -4.28879e-07 0)
(0.0114721 -4.78235e-07 0)
(0.0114722 -5.21526e-07 0)
(0.0114722 -5.64054e-07 0)
(0.0114723 -6.00562e-07 0)
(0.0114723 -6.35392e-07 0)
(0.0114724 -6.64704e-07 0)
(0.0114724 -6.91161e-07 0)
(0.0114725 -7.28829e-07 0)
(0.0114719 -4.05256e-08 0)
(0.0114718 -1.11561e-07 0)
(0.0114718 -1.81105e-07 0)
(0.0114719 -2.5022e-07 0)
(0.0114719 -3.18836e-07 0)
(0.0114719 -3.8459e-07 0)
(0.011472 -4.49567e-07 0)
(0.011472 -5.09671e-07 0)
(0.0114721 -5.69004e-07 0)
(0.0114721 -6.21402e-07 0)
(0.0114722 -6.7285e-07 0)
(0.0114722 -7.16718e-07 0)
(0.0114723 -7.58842e-07 0)
(0.0114723 -7.93343e-07 0)
(0.0114723 -8.24885e-07 0)
(0.0114724 -8.67e-07 0)
(0.0114718 -4.78414e-08 0)
(0.0114717 -1.30831e-07 0)
(0.0114717 -2.12565e-07 0)
(0.0114718 -2.94083e-07 0)
(0.0114718 -3.75211e-07 0)
(0.0114718 -4.53529e-07 0)
(0.0114719 -5.31135e-07 0)
(0.0114719 -6.03749e-07 0)
(0.011472 -6.75609e-07 0)
(0.011472 -7.40045e-07 0)
(0.0114721 -8.03576e-07 0)
(0.0114721 -8.583e-07 0)
(0.0114722 -9.11389e-07 0)
(0.0114722 -9.54888e-07 0)
(0.0114722 -9.95506e-07 0)
(0.0114722 -1.04496e-06 0)
(0.0114717 -5.61e-08 0)
(0.0114716 -1.51989e-07 0)
(0.0114716 -2.47139e-07 0)
(0.0114716 -3.42431e-07 0)
(0.0114717 -4.37593e-07 0)
(0.0114717 -5.30205e-07 0)
(0.0114718 -6.2238e-07 0)
(0.0114718 -7.09784e-07 0)
(0.0114719 -7.96715e-07 0)
(0.0114719 -8.7619e-07 0)
(0.011472 -9.55043e-07 0)
(0.0114721 -1.0244e-06 0)
(0.0114721 -1.09236e-06 0)
(0.0114721 -1.14917e-06 0)
(0.0114721 -1.20334e-06 0)
(0.0114721 -1.26344e-06 0)
(0.0114716 -6.51655e-08 0)
(0.0114715 -1.74516e-07 0)
(0.0114715 -2.83984e-07 0)
(0.0114715 -3.94064e-07 0)
(0.0114716 -5.04441e-07 0)
(0.0114716 -6.12739e-07 0)
(0.0114717 -7.21108e-07 0)
(0.0114717 -8.25285e-07 0)
(0.0114718 -9.29586e-07 0)
(0.0114718 -1.02687e-06 0)
(0.0114719 -1.12416e-06 0)
(0.0114719 -1.21175e-06 0)
(0.011472 -1.29857e-06 0)
(0.011472 -1.37267e-06 0)
(0.011472 -1.44463e-06 0)
(0.011472 -1.51863e-06 0)
(0.0114715 -7.48145e-08 0)
(0.0114713 -1.97698e-07 0)
(0.0114713 -3.21955e-07 0)
(0.0114714 -4.47361e-07 0)
(0.0114714 -5.73618e-07 0)
(0.0114714 -6.98505e-07 0)
(0.0114715 -8.24158e-07 0)
(0.0114716 -9.46558e-07 0)
(0.0114716 -1.06997e-06 0)
(0.0114717 -1.18734e-06 0)
(0.0114718 -1.30574e-06 0)
(0.0114718 -1.41482e-06 0)
(0.0114719 -1.52415e-06 0)
(0.0114719 -1.61934e-06 0)
(0.0114719 -1.71303e-06 0)
(0.0114719 -1.80397e-06 0)
(0.0114713 -8.47413e-08 0)
(0.0114711 -2.20676e-07 0)
(0.0114712 -3.5964e-07 0)
(0.0114712 -5.00344e-07 0)
(0.0114712 -6.42531e-07 0)
(0.0114713 -7.84251e-07 0)
(0.0114713 -9.27563e-07 0)
(0.0114714 -1.06887e-06 0)
(0.0114715 -1.21232e-06 0)
(0.0114715 -1.35119e-06 0)
(0.0114716 -1.49253e-06 0)
(0.0114717 -1.62564e-06 0)
(0.0114717 -1.76049e-06 0)
(0.0114718 -1.88036e-06 0)
(0.0114718 -1.99968e-06 0)
(0.0114717 -2.1109e-06 0)
(0.0114711 -9.45792e-08 0)
(0.0114709 -2.42509e-07 0)
(0.011471 -3.95472e-07 0)
(0.011471 -5.50814e-07 0)
(0.011471 -7.0829e-07 0)
(0.0114711 -8.66275e-07 0)
(0.0114711 -1.02676e-06 0)
(0.0114712 -1.18666e-06 0)
(0.0114713 -1.35e-06 0)
(0.0114714 -1.5106e-06 0)
(0.0114714 -1.6754e-06 0)
(0.0114715 -1.8338e-06 0)
(0.0114716 -1.99595e-06 0)
(0.0114716 -2.14331e-06 0)
(0.0114716 -2.29181e-06 0)
(0.0114716 -2.42759e-06 0)
(0.0114709 -1.03925e-07 0)
(0.0114707 -2.62282e-07 0)
(0.0114707 -4.27919e-07 0)
(0.0114708 -5.96562e-07 0)
(0.0114708 -7.67928e-07 0)
(0.0114709 -9.40733e-07 0)
(0.0114709 -1.11691e-06 0)
(0.011471 -1.29393e-06 0)
(0.0114711 -1.47567e-06 0)
(0.0114711 -1.65666e-06 0)
(0.0114712 -1.84362e-06 0)
(0.0114713 -2.02656e-06 0)
(0.0114714 -2.2155e-06 0)
(0.0114714 -2.39081e-06 0)
(0.0114715 -2.56925e-06 0)
(0.0114715 -2.73115e-06 0)
(0.0114707 -1.12388e-07 0)
(0.0114705 -2.79163e-07 0)
(0.0114705 -4.55597e-07 0)
(0.0114705 -6.35552e-07 0)
(0.0114706 -8.1868e-07 0)
(0.0114706 -1.00403e-06 0)
(0.0114707 -1.19343e-06 0)
(0.0114708 -1.38489e-06 0)
(0.0114708 -1.58201e-06 0)
(0.0114709 -1.78026e-06 0)
(0.011471 -1.98591e-06 0)
(0.0114711 -2.19019e-06 0)
(0.0114712 -2.40269e-06 0)
(0.0114713 -2.60369e-06 0)
(0.0114713 -2.81016e-06 0)
(0.0114713 -2.99801e-06 0)
(0.0114705 -1.19611e-07 0)
(0.0114702 -2.92473e-07 0)
(0.0114703 -4.77368e-07 0)
(0.0114703 -6.66138e-07 0)
(0.0114703 -8.58311e-07 0)
(0.0114704 -1.05323e-06 0)
(0.0114704 -1.25256e-06 0)
(0.0114705 -1.4547e-06 0)
(0.0114706 -1.66286e-06 0)
(0.0114707 -1.87344e-06 0)
(0.0114708 -2.09211e-06 0)
(0.0114709 -2.31162e-06 0)
(0.0114709 -2.54061e-06 0)
(0.011471 -2.76054e-06 0)
(0.0114711 -2.98899e-06 0)
(0.0114712 -3.20148e-06 0)
(0.0114702 -1.25307e-07 0)
(0.01147 -3.01784e-07 0)
(0.01147 -4.92529e-07 0)
(0.01147 -6.87297e-07 0)
(0.0114701 -8.85491e-07 0)
(0.0114701 -1.08662e-06 0)
(0.0114702 -1.29211e-06 0)
(0.0114702 -1.50066e-06 0)
(0.0114703 -1.71499e-06 0)
(0.0114704 -1.93225e-06 0)
(0.0114705 -2.15664e-06 0)
(0.0114706 -2.38171e-06 0)
(0.0114707 -2.61369e-06 0)
(0.0114708 -2.83648e-06 0)
(0.0114709 -3.06606e-06 0)
(0.0114711 -3.27838e-06 0)
(0.01147 -1.29294e-07 0)
(0.0114697 -3.07138e-07 0)
(0.0114697 -5.01175e-07 0)
(0.0114698 -6.99169e-07 0)
(0.0114698 -9.00445e-07 0)
(0.0114699 -1.10453e-06 0)
(0.0114699 -1.31252e-06 0)
(0.01147 -1.52326e-06 0)
(0.0114701 -1.73883e-06 0)
(0.0114701 -1.95686e-06 0)
(0.0114702 -2.17942e-06 0)
(0.0114704 -2.40001e-06 0)
(0.0114705 -2.62277e-06 0)
(0.0114706 -2.83762e-06 0)
(0.0114708 -3.05801e-06 0)
(0.0114709 -3.26032e-06 0)
(0.0114697 -1.31587e-07 0)
(0.0114694 -3.08859e-07 0)
(0.0114695 -5.03816e-07 0)
(0.0114695 -7.02415e-07 0)
(0.0114695 -9.0385e-07 0)
(0.0114696 -1.10755e-06 0)
(0.0114696 -1.31424e-06 0)
(0.0114697 -1.52272e-06 0)
(0.0114698 -1.73392e-06 0)
(0.0114699 -1.94524e-06 0)
(0.01147 -2.15795e-06 0)
(0.0114701 -2.36769e-06 0)
(0.0114703 -2.57797e-06 0)
(0.0114704 -2.78365e-06 0)
(0.0114706 -2.99233e-06 0)
(0.0114708 -3.18363e-06 0)
(0.0114694 -1.3232e-07 0)
(0.0114692 -3.067e-07 0)
(0.0114692 -4.99979e-07 0)
(0.0114692 -6.96285e-07 0)
(0.0114693 -8.94482e-07 0)
(0.0114693 -1.09368e-06 0)
(0.0114694 -1.2946e-06 0)
(0.0114695 -1.49643e-06 0)
(0.0114696 -1.69898e-06 0)
(0.0114697 -1.90003e-06 0)
(0.0114698 -2.10063e-06 0)
(0.0114699 -2.29976e-06 0)
(0.0114701 -2.49967e-06 0)
(0.0114702 -2.69484e-06 0)
(0.0114704 -2.88934e-06 0)
(0.0114707 -3.06967e-06 0)
(0.0114692 -1.31403e-07 0)
(0.0114689 -3.00054e-07 0)
(0.011469 -4.88812e-07 0)
(0.011469 -6.80004e-07 0)
(0.011469 -8.72138e-07 0)
(0.0114691 -1.06411e-06 0)
(0.0114692 -1.25654e-06 0)
(0.0114692 -1.44929e-06 0)
(0.0114693 -1.64182e-06 0)
(0.0114694 -1.8335e-06 0)
(0.0114696 -2.02429e-06 0)
(0.0114697 -2.21305e-06 0)
(0.0114699 -2.40067e-06 0)
(0.0114701 -2.58341e-06 0)
(0.0114703 -2.76352e-06 0)
(0.0114705 -2.93336e-06 0)
(0.0114689 -1.28572e-07 0)
(0.0114687 -2.89544e-07 0)
(0.0114687 -4.71467e-07 0)
(0.0114688 -6.55542e-07 0)
(0.0114688 -8.40171e-07 0)
(0.0114689 -1.0247e-06 0)
(0.0114689 -1.2088e-06 0)
(0.011469 -1.39231e-06 0)
(0.0114691 -1.57473e-06 0)
(0.0114692 -1.75606e-06 0)
(0.0114694 -1.93569e-06 0)
(0.0114695 -2.11297e-06 0)
(0.0114697 -2.28766e-06 0)
(0.0114699 -2.45811e-06 0)
(0.0114701 -2.62513e-06 0)
(0.0114704 -2.78535e-06 0)
(0.0114687 -1.24085e-07 0)
(0.0114685 -2.77282e-07 0)
(0.0114685 -4.51324e-07 0)
(0.0114685 -6.27234e-07 0)
(0.0114686 -8.03349e-07 0)
(0.0114687 -9.79135e-07 0)
(0.0114687 -1.15398e-06 0)
(0.0114688 -1.32777e-06 0)
(0.0114689 -1.49982e-06 0)
(0.0114691 -1.67039e-06 0)
(0.0114692 -1.8385e-06 0)
(0.0114694 -2.00431e-06 0)
(0.0114695 -2.16681e-06 0)
(0.0114697 -2.32585e-06 0)
(0.01147 -2.48122e-06 0)
(0.0114702 -2.6327e-06 0)
(0.0114685 -1.18836e-07 0)