/*--------------------------------*- C++ -*----------------------------------*\
| =========                 |                                                 |
| \\      /  F ield         | foam-extend: Open Source CFD                    |
|  \\    /   O peration     | Version:     4.1-20200408                       |
|   \\  /    A nd           | Web:         http://www.foam-extend.org         |
|    \\/     M anipulation  |                                                 |
\*---------------------------------------------------------------------------*/
FoamFile
{
    version     2.0;
    format      ascii;
    class       volScalarField::DimensionedInternalField;
    location    "0.0115000";
    object      V0;
}
// * * * * * * * * * * * * * * * * * * * * * * * * * * * * * * * * * * * * * //

dimensions      [0 3 0 0 0 0 0];

value           nonuniform List<scalar> 
1952
(
1.43519e-14
2.39198e-14
3.34874e-14
4.30541e-14
5.26213e-14
6.21869e-14
7.17531e-14
8.13184e-14
9.08826e-14
1.00448e-13
1.10013e-13
1.19574e-13
1.29134e-13
1.38688e-13
1.4823e-13
4.78407e-15
1.4351e-14
2.39183e-14
3.34853e-14
4.30513e-14
5.26179e-14
6.21828e-14
7.17484e-14
8.13129e-14
9.08764e-14
1.00441e-13
1.10005e-13
1.19567e-13
1.29126e-13
1.38681e-13
1.48227e-13
4.78378e-15
1.43502e-14
2.39169e-14
3.34833e-14
4.30487e-14
5.26147e-14
6.2179e-14
7.1744e-14
8.13079e-14
9.08709e-14
1.00435e-13
1.09999e-13
1.19561e-13
1.2912e-13
1.38677e-13
1.48225e-13
4.78349e-15
1.43494e-14
2.39155e-14
3.34814e-14
4.30463e-14
5.26118e-14
6.21755e-14
7.17401e-14
8.13035e-14
9.08661e-14
1.0043e-13
1.09993e-13
1.19556e-13
1.29116e-13
1.38673e-13
1.48223e-13
4.78323e-15
1.43487e-14
2.39143e-14
3.34797e-14
4.30441e-14
5.26091e-14
6.21724e-14
7.17366e-14
8.12995e-14
9.08619e-14
1.00425e-13
1.09989e-13
1.19552e-13
1.29113e-13
1.38671e-13
1.48222e-13
4.78298e-15
1.4348e-14
2.39131e-14
3.34781e-14
4.3042e-14
5.26067e-14
6.21695e-14
7.17333e-14
8.12959e-14
9.08581e-14
1.00421e-13
1.09985e-13
1.19549e-13
1.2911e-13
1.38668e-13
1.4822e-13
4.78275e-15
1.43473e-14
2.39121e-14
3.34767e-14
4.30402e-14
5.26045e-14
6.21669e-14
7.17305e-14
8.12927e-14
9.08547e-14
1.00418e-13
1.09982e-13
1.19546e-13
1.29107e-13
1.38666e-13
1.48219e-13
4.78254e-15
1.43468e-14
2.39111e-14
3.34753e-14
4.30385e-14
5.26024e-14
6.21645e-14
7.17278e-14
8.12899e-14
9.08517e-14
1.00415e-13
1.09978e-13
1.19543e-13
1.29105e-13
1.38664e-13
1.48218e-13
4.78235e-15
1.43462e-14
2.39103e-14
3.34741e-14
4.3037e-14
5.26006e-14
6.21624e-14
7.17255e-14
8.12873e-14
9.0849e-14
1.00412e-13
1.09976e-13
1.19541e-13
1.29103e-13
1.38663e-13
1.48217e-13
4.78217e-15
1.43457e-14
2.39094e-14
3.3473e-14
4.30355e-14
5.25989e-14
6.21604e-14
7.17233e-14
8.1285e-14
9.08466e-14
1.00409e-13
1.09973e-13
1.19538e-13
1.29101e-13
1.38661e-13
1.48215e-13
4.782e-15
1.43453e-14
2.39087e-14
3.3472e-14
4.30343e-14
5.25974e-14
6.21587e-14
7.17214e-14
8.12829e-14
9.08443e-14
1.00407e-13
1.09971e-13
1.19536e-13
1.291e-13
1.3866e-13
1.48214e-13
4.78186e-15
1.43449e-14
2.3908e-14
3.34711e-14
4.30331e-14
5.2596e-14
6.21571e-14
7.17195e-14
8.12809e-14
9.08422e-14
1.00405e-13
1.09969e-13
1.19534e-13
1.29098e-13
1.38658e-13
1.48213e-13
4.78172e-15
1.43445e-14
2.39074e-14
3.34702e-14
4.30321e-14
5.25947e-14
6.21557e-14
7.17179e-14
8.12792e-14
9.08404e-14
1.00403e-13
1.09967e-13
1.19532e-13
1.29097e-13
1.38657e-13
1.48211e-13
4.7816e-15
1.43442e-14
2.39069e-14
3.34695e-14
4.30311e-14
5.25936e-14
6.21544e-14
7.17164e-14
8.12777e-14
9.08388e-14
1.00401e-13
1.09965e-13
1.19531e-13
1.29095e-13
1.38656e-13
1.4821e-13
4.78149e-15
1.4344e-14
2.39065e-14
3.3469e-14
4.30305e-14
5.25929e-14
6.21536e-14
7.17155e-14
8.12767e-14
9.08377e-14
1.004e-13
1.09964e-13
1.19529e-13
1.29095e-13
1.38655e-13
1.4821e-13
4.78141e-15
1.43439e-14
2.39063e-14
3.34687e-14
4.30302e-14
5.25925e-14
6.21533e-14
7.17151e-14
8.12763e-14
9.08372e-14
1.004e-13
1.09963e-13
1.19529e-13
1.29095e-13
1.38655e-13
1.4821e-13
4.78138e-15
1.43436e-14
2.39059e-14
3.34681e-14
4.30295e-14
5.25916e-14
6.21522e-14
7.17139e-14
8.12749e-14
9.08357e-14
1.00398e-13
1.09962e-13
1.19528e-13
1.29094e-13
1.38654e-13
1.48209e-13
4.78129e-15
1.43433e-14
2.39055e-14
3.34675e-14
4.30287e-14
5.25907e-14
6.21512e-14
7.17127e-14
8.12736e-14
9.08343e-14
1.00397e-13
1.0996e-13
1.19526e-13
1.29093e-13
1.38653e-13
1.48207e-13
4.7812e-15
1.43431e-14
2.39051e-14
3.3467e-14
4.30281e-14
5.25899e-14
6.21503e-14
7.17118e-14
8.12725e-14
9.08331e-14
1.00395e-13
1.09958e-13
1.19524e-13
1.29091e-13
1.38652e-13
1.48206e-13
4.78113e-15
1.43429e-14
2.39048e-14
3.34665e-14
4.30274e-14
5.25891e-14
6.21493e-14
7.17106e-14
8.12712e-14
9.08316e-14
1.00394e-13
1.09957e-13
1.19523e-13
1.2909e-13
1.3865e-13
1.48205e-13
4.78105e-15
1.43426e-14
2.39043e-14
3.34659e-14
4.30267e-14
5.25882e-14
6.21483e-14
7.17094e-14
8.127e-14
9.08301e-14
1.00392e-13
1.09955e-13
1.19521e-13
1.29089e-13
1.38649e-13
1.48203e-13
4.78097e-15
1.43424e-14
2.3904e-14
3.34654e-14
4.3026e-14
5.25874e-14
6.21474e-14
7.17083e-14
8.12687e-14
9.08287e-14
1.00391e-13
1.09953e-13
1.19519e-13
1.29087e-13
1.38647e-13
1.48202e-13
4.78089e-15
1.43422e-14
2.39036e-14
3.34648e-14
4.30253e-14
5.25865e-14
6.21464e-14
7.17072e-14
8.12675e-14
9.08273e-14
1.00389e-13
1.09952e-13
1.19517e-13
1.29086e-13
1.38646e-13
1.482e-13
4.78082e-15
1.43419e-14
2.39032e-14
3.34643e-14
4.30246e-14
5.25857e-14
6.21454e-14
7.1706e-14
8.12663e-14
9.08258e-14
1.00388e-13
1.0995e-13
1.19516e-13
1.29085e-13
1.38644e-13
1.48198e-13
4.78074e-15
1.43417e-14
2.39028e-14
3.34637e-14
4.30239e-14
5.25848e-14
6.21445e-14
7.17049e-14
8.12651e-14
9.08244e-14
1.00386e-13
1.09948e-13
1.19514e-13
1.29083e-13
1.38643e-13
1.48197e-13
4.78066e-15
1.43415e-14
2.39024e-14
3.34632e-14
4.30232e-14
5.25839e-14
6.21435e-14
7.17037e-14
8.12638e-14
9.0823e-14
1.00385e-13
1.09946e-13
1.19512e-13
1.29082e-13
1.38642e-13
1.48195e-13
4.78058e-15
1.43412e-14
2.3902e-14
3.34626e-14
4.30225e-14
5.25831e-14
6.21425e-14
7.17026e-14
8.12626e-14
9.08215e-14
1.00383e-13
1.09945e-13
1.19511e-13
1.29081e-13
1.3864e-13
1.48194e-13
4.78049e-15
1.43409e-14
2.39015e-14
3.3462e-14
4.30217e-14
5.25821e-14
6.21414e-14
7.17014e-14
8.12613e-14
9.082e-14
1.00382e-13
1.09943e-13
1.19509e-13
1.2908e-13
1.38639e-13
1.48192e-13
4.78041e-15
1.43407e-14
2.39011e-14
3.34613e-14
4.30209e-14
5.25812e-14
6.21403e-14
7.17002e-14
8.126e-14
9.08185e-14
1.0038e-13
1.09941e-13
1.19507e-13
1.29078e-13
1.38638e-13
1.48191e-13
4.78032e-15
1.43404e-14
2.39006e-14
3.34607e-14
4.30201e-14
5.25802e-14
6.21392e-14
7.16989e-14
8.12586e-14
9.0817e-14
1.00379e-13
1.0994e-13
1.19505e-13
1.29077e-13
1.38636e-13
1.4819e-13
4.78022e-15
1.43401e-14
2.39001e-14
3.346e-14
4.30192e-14
5.25791e-14
6.2138e-14
7.16977e-14
8.12572e-14
9.08156e-14
1.00377e-13
1.09938e-13
1.19504e-13
1.29076e-13
1.38636e-13
1.48189e-13
4.78011e-15
1.43397e-14
2.38995e-14
3.34592e-14
4.30183e-14
5.25781e-14
6.21368e-14
7.16964e-14
8.12558e-14
9.08142e-14
1.00376e-13
1.09937e-13
1.19503e-13
1.29075e-13
1.38635e-13
1.48189e-13
4.78e-15
1.43394e-14
2.3899e-14
3.34584e-14
4.30173e-14
5.25769e-14
6.21355e-14
7.16951e-14
8.12544e-14
9.08129e-14
1.00374e-13
1.09936e-13
1.19501e-13
1.29074e-13
1.38635e-13
1.48189e-13
4.77988e-15
1.4339e-14
2.38984e-14
3.34576e-14
4.30163e-14
5.25758e-14
6.21342e-14
7.16937e-14
8.1253e-14
9.08116e-14
1.00373e-13
1.09934e-13
1.195e-13
1.29073e-13
1.38635e-13
1.48189e-13
4.77976e-15
1.43386e-14
2.38977e-14
3.34567e-14
4.30151e-14
5.25744e-14
6.21328e-14
7.16922e-14
8.12514e-14
9.08101e-14
1.00371e-13
1.09933e-13
1.19499e-13
1.29072e-13
1.38635e-13
1.48189e-13
4.77962e-15
1.43382e-14
2.3897e-14
3.34558e-14
4.30141e-14
5.25733e-14
6.21315e-14
7.1691e-14
8.12502e-14
9.08091e-14
1.00371e-13
1.09933e-13
1.19499e-13
1.29072e-13
1.38637e-13
1.48191e-13
4.77948e-15
1.43377e-14
2.38961e-14
3.34546e-14
4.30126e-14
5.25716e-14
6.21296e-14
7.1689e-14
8.12482e-14
9.08073e-14
1.00369e-13
1.09931e-13
1.19498e-13
1.29072e-13
1.38637e-13
1.48192e-13
4.77929e-15
1.4337e-14
2.38951e-14
3.34533e-14
4.30109e-14
5.25696e-14
6.21275e-14
7.16869e-14
8.1246e-14
9.08052e-14
1.00367e-13
1.0993e-13
1.19497e-13
1.29072e-13
1.38638e-13
1.48194e-13
4.77908e-15
1.43363e-14
2.38939e-14
3.34517e-14
4.30089e-14
5.25674e-14
6.2125e-14
7.16843e-14
8.12434e-14
9.08029e-14
1.00365e-13
1.09928e-13
1.19496e-13
1.29072e-13
1.38639e-13
1.48196e-13
4.77884e-15
1.43354e-14
2.38925e-14
3.34497e-14
4.30065e-14
5.25646e-14
6.21219e-14
7.16811e-14
8.12402e-14
9.07998e-14
1.00362e-13
1.09926e-13
1.19494e-13
1.29071e-13
1.3864e-13
1.48199e-13
4.77855e-15
1.43344e-14
2.38909e-14
3.34475e-14
4.30037e-14
5.25613e-14
6.21182e-14
7.16773e-14
8.12363e-14
9.07961e-14
1.00358e-13
1.09923e-13
1.19492e-13
1.29071e-13
1.38642e-13
1.48202e-13
4.77821e-15
1.43333e-14
2.38889e-14
3.34448e-14
4.30005e-14
5.25575e-14
6.21139e-14
7.16727e-14
8.12316e-14
9.07916e-14
1.00354e-13
1.0992e-13
1.19489e-13
1.2907e-13
1.38643e-13
1.48205e-13
4.77781e-15
1.43319e-14
2.38867e-14
3.34418e-14
4.29967e-14
5.25531e-14
6.21089e-14
7.16673e-14
8.1226e-14
9.07861e-14
1.00349e-13
1.09915e-13
1.19486e-13
1.29068e-13
1.38643e-13
1.48208e-13
4.77737e-15
1.43304e-14
2.38842e-14
3.34383e-14
4.29922e-14
5.25478e-14
6.21029e-14
7.16608e-14
8.12192e-14
9.07793e-14
1.00342e-13
1.0991e-13
1.19481e-13
1.29066e-13
1.38644e-13
1.48212e-13
4.77685e-15
1.43286e-14
2.38813e-14
3.34343e-14
4.29872e-14
5.25418e-14
6.2096e-14
7.16532e-14
8.1211e-14
9.07711e-14
1.00334e-13
1.09903e-13
1.19475e-13
1.29062e-13
1.38644e-13
1.48216e-13
4.77627e-15
1.43266e-14
2.3878e-14
3.34297e-14
4.29813e-14
5.25347e-14
6.20879e-14
7.1644e-14
8.12011e-14
9.07608e-14
1.00324e-13
1.09893e-13
1.19467e-13
1.29057e-13
1.38642e-13
1.48219e-13
4.77561e-15
1.43244e-14
2.38743e-14
3.34245e-14
4.29747e-14
5.25266e-14
6.20784e-14
7.16332e-14
8.11892e-14
9.07481e-14
1.00311e-13
1.0988e-13
1.19455e-13
1.29048e-13
1.38638e-13
1.48222e-13
4.77487e-15
1.4322e-14
2.38702e-14
3.34187e-14
4.29672e-14
5.25174e-14
6.20675e-14
7.16206e-14
8.11751e-14
9.07326e-14
1.00294e-13
1.09864e-13
1.19439e-13
1.29035e-13
1.3863e-13
1.48224e-13
4.77407e-15
1.43193e-14
2.38658e-14
3.34124e-14
4.2959e-14
5.25072e-14
6.20552e-14
7.16062e-14
8.11586e-14
9.07141e-14
1.00274e-13
1.09842e-13
1.19417e-13
1.29015e-13
1.38614e-13
1.48218e-13
4.77319e-15
1.43165e-14
2.38609e-14
3.34056e-14
4.295e-14
5.24959e-14
6.20415e-14
7.15898e-14
8.11395e-14
9.0692e-14
1.00249e-13
1.09815e-13
1.19388e-13
1.28985e-13
1.38586e-13
1.48197e-13
4.77224e-15
1.43134e-14
2.38558e-14
3.33982e-14
4.29403e-14
5.24836e-14
6.20264e-14
7.15716e-14
8.11178e-14
9.06665e-14
1.0022e-13
1.09781e-13
1.1935e-13
1.28944e-13
1.38542e-13
1.48155e-13
4.77123e-15
1.43103e-14
2.38505e-14
3.33906e-14
4.29302e-14
5.24707e-14
6.20104e-14
7.15518e-14
8.10941e-14
9.06378e-14
1.00186e-13
1.0974e-13
1.19303e-13
1.28889e-13
1.38481e-13
1.48087e-13
4.7702e-15
1.43071e-14
2.38451e-14
3.33828e-14
4.29198e-14
5.24573e-14
6.19936e-14
7.1531e-14
8.10686e-14
9.06065e-14
1.00148e-13
1.09694e-13
1.19247e-13
1.28822e-13
1.38402e-13
1.47993e-13
4.76915e-15
1.4304e-14
2.38397e-14
3.3375e-14
4.29094e-14
5.24438e-14
6.19766e-14
7.15096e-14
8.10421e-14
9.05734e-14
1.00107e-13
1.09643e-13
1.19184e-13
1.28742e-13
1.38306e-13
1.47874e-13
4.7681e-15
1.43009e-14
2.38346e-14
3.33676e-14
4.28993e-14
5.24307e-14
6.19599e-14
7.14886e-14
8.10158e-14
9.05401e-14
1.00065e-13
1.09589e-13
1.19117e-13
1.28655e-13
1.38196e-13
1.47733e-13
4.7671e-15
1.42981e-14
2.38297e-14
3.33605e-14
4.28897e-14
5.24183e-14
6.19441e-14
7.14686e-14
8.09905e-14
9.0508e-14
1.00025e-13
1.09536e-13
1.19048e-13
1.28563e-13
1.38078e-13
1.47573e-13
4.76615e-15
1.42954e-14
2.38252e-14
3.3354e-14
4.2881e-14
5.2407e-14
6.19298e-14
7.14505e-14
8.09678e-14
9.04789e-14
9.99875e-14
1.09487e-13
1.18983e-13
1.28474e-13
1.37957e-13
1.474e-13
4.76528e-15
1.42931e-14
2.38213e-14
3.33484e-14
4.28735e-14
5.23973e-14
6.19175e-14
7.14351e-14
8.09486e-14
9.04547e-14
9.99568e-14
1.09447e-13
1.1893e-13
1.284e-13
1.37853e-13
1.47235e-13
4.76452e-15
1.42912e-14
2.3818e-14
3.33437e-14
4.28673e-14
5.23894e-14
6.19077e-14
7.14228e-14
8.09336e-14
9.04365e-14
9.99353e-14
1.0942e-13
1.18896e-13
1.28352e-13
1.37783e-13
1.4712e-13
4.76389e-15
1.42897e-14
2.38154e-14
3.33401e-14
4.28625e-14
5.23835e-14
6.19006e-14
7.14146e-14
8.0924e-14
9.04254e-14
9.99229e-14
1.09405e-13
1.18877e-13
1.28327e-13
1.37751e-13
1.47094e-13
4.76337e-15
1.42887e-14
2.38137e-14
3.33376e-14
4.28594e-14
5.23799e-14
6.18965e-14
7.141e-14
8.09184e-14
9.04181e-14
9.99127e-14
1.09392e-13
1.18862e-13
1.28315e-13
1.37753e-13
1.47142e-13
4.76303e-15
1.42878e-14
2.38123e-14
3.33355e-14
4.28565e-14
5.2376e-14
6.18912e-14
7.14032e-14
8.09089e-14
9.04053e-14
9.98973e-14
1.09378e-13
1.18855e-13
1.28323e-13
1.37782e-13
1.47214e-13
4.76277e-15
1.42863e-14
2.38097e-14
3.33316e-14
4.28509e-14
5.23683e-14
6.18808e-14
7.13901e-14
8.08939e-14
9.03907e-14
9.98871e-14
1.09378e-13
1.18868e-13
1.2835e-13
1.37827e-13
1.47288e-13
4.76228e-15
1.42834e-14
2.38048e-14
3.33249e-14
4.28424e-14
5.23583e-14
6.187e-14
7.13799e-14
8.08868e-14
9.03902e-14
9.98953e-14
1.09396e-13
1.18894e-13
1.28387e-13
1.37877e-13
1.47358e-13
4.76131e-15
1.42812e-14
2.38013e-14
3.33206e-14
4.2838e-14
5.23549e-14
6.18692e-14
7.13834e-14
8.08954e-14
9.04046e-14
9.99142e-14
1.0942e-13
1.18923e-13
1.28426e-13
1.37927e-13
1.47423e-13
4.76055e-15
1.42819e-14
2.38027e-14
3.33228e-14
4.28416e-14
5.23605e-14
6.18772e-14
7.13942e-14
8.09091e-14
9.04217e-14
9.99346e-14
1.09445e-13
1.18954e-13
1.28465e-13
1.37976e-13
1.47482e-13
4.76076e-15
1.42833e-14
2.38052e-14
3.33266e-14
4.28468e-14
5.23672e-14
6.18857e-14
7.14046e-14
8.09218e-14
9.04377e-14
9.99547e-14
1.0947e-13
1.18984e-13
1.28502e-13
1.38019e-13
1.47534e-13
4.76123e-15
1.42847e-14
2.38077e-14
3.33303e-14
4.2852e-14
5.23742e-14
6.18947e-14
7.1416e-14
8.09359e-14
9.04548e-14
9.99752e-14
1.09495e-13
1.19014e-13
1.28537e-13
1.3806e-13
1.47581e-13
4.7617e-15
1.42865e-14
2.38107e-14
3.33347e-14
4.28578e-14
5.23817e-14
6.1904e-14
7.14275e-14
8.09498e-14
9.04716e-14
9.99953e-14
1.09519e-13
1.19042e-13
1.2857e-13
1.38097e-13
1.47623e-13
4.76227e-15
1.42883e-14
2.38137e-14
3.33391e-14
4.28637e-14
5.23893e-14
6.19135e-14
7.14391e-14
8.09638e-14
9.04883e-14
1.00015e-13
1.09542e-13
1.19068e-13
1.28599e-13
1.3813e-13
1.4766e-13
4.76286e-15
1.42901e-14
2.38168e-14
3.33436e-14
4.28697e-14
5.23968e-14
6.19228e-14
7.14503e-14
8.09771e-14
9.05039e-14
1.00033e-13
1.09562e-13
1.19092e-13
1.28626e-13
1.3816e-13
1.47693e-13
4.76347e-15
1.4292e-14
2.382e-14
3.3348e-14
4.28756e-14
5.24043e-14
6.19319e-14
7.14612e-14
8.099e-14
9.05189e-14
1.0005e-13
1.09582e-13
1.19114e-13
1.28651e-13
1.38186e-13
1.47721e-13
4.76408e-15
1.42938e-14
2.3823e-14
3.33524e-14
4.28813e-14
5.24115e-14
6.19407e-14
7.14717e-14
8.10022e-14
9.05329e-14
1.00066e-13
1.096e-13
1.19133e-13
1.28672e-13
1.3821e-13
1.47746e-13
4.76468e-15
1.42956e-14
2.38261e-14
3.33567e-14
4.2887e-14
5.24185e-14
6.19492e-14
7.14816e-14
8.10138e-14
9.05462e-14
1.00081e-13
1.09617e-13
1.19152e-13
1.28692e-13
1.38231e-13
1.47769e-13
4.76528e-15
1.42973e-14
2.3829e-14
3.33609e-14
4.28923e-14
5.24252e-14
6.19572e-14
7.1491e-14
8.10245e-14
9.05583e-14
1.00095e-13
1.09632e-13
1.19168e-13
1.2871e-13
1.3825e-13
1.47788e-13
4.76586e-15
1.4299e-14
2.38318e-14
3.33648e-14
4.28974e-14
5.24314e-14
6.19646e-14
7.14997e-14
8.10345e-14
9.05696e-14
1.00107e-13
1.09645e-13
1.19183e-13
1.28725e-13
1.38266e-13
1.47805e-13
4.7664e-15
1.43006e-14
2.38344e-14
3.33685e-14
4.29022e-14
5.24373e-14
6.19717e-14
7.15079e-14
8.10438e-14
9.05799e-14
1.00119e-13
1.09658e-13
1.19196e-13
1.2874e-13
1.38281e-13
1.4782e-13
4.76693e-15
1.43021e-14
2.3837e-14
3.33721e-14
4.29068e-14
5.2443e-14
6.19784e-14
7.15156e-14
8.10526e-14
9.05897e-14
1.00129e-13
1.09669e-13
1.19209e-13
1.28753e-13
1.38294e-13
1.47834e-13
4.76744e-15
1.43035e-14
2.38393e-14
3.33754e-14
4.29111e-14
5.24482e-14
6.19845e-14
7.15227e-14
8.10605e-14
9.05985e-14
1.00139e-13
1.0968e-13
1.19219e-13
1.28764e-13
1.38306e-13
1.47846e-13
4.76791e-15
1.43048e-14
2.38415e-14
3.33784e-14
4.29149e-14
5.24529e-14
6.199e-14
7.1529e-14
8.10676e-14
9.06063e-14
1.00147e-13
1.09689e-13
1.19229e-13
1.28774e-13
1.38316e-13
1.47856e-13
4.76834e-15
1.4306e-14
2.38435e-14
3.33813e-14
4.29186e-14
5.24574e-14
6.19953e-14
7.1535e-14
8.10744e-14
9.06138e-14
1.00156e-13
1.09697e-13
1.19238e-13
1.28783e-13
1.38326e-13
1.47865e-13
4.76875e-15
1.43072e-14
2.38454e-14
3.33839e-14
4.2922e-14
5.24615e-14
6.20002e-14
7.15405e-14
8.10805e-14
9.06205e-14
1.00163e-13
1.09705e-13
1.19246e-13
1.28791e-13
1.38334e-13
1.47874e-13
4.76913e-15
1.43082e-14
2.38472e-14
3.33864e-14
4.29252e-14
5.24653e-14
6.20046e-14
7.15456e-14
8.10861e-14
9.06266e-14
1.00169e-13
1.09712e-13
1.19253e-13
1.28799e-13
1.38342e-13
1.47881e-13
4.76949e-15
1.43092e-14
2.38488e-14
3.33886e-14
4.2928e-14
5.24688e-14
6.20086e-14
7.15501e-14
8.10912e-14
9.06321e-14
1.00175e-13
1.09718e-13
1.1926e-13
1.28805e-13
1.38349e-13
1.47888e-13
4.76981e-15
1.43101e-14
2.38503e-14
3.33907e-14
4.29307e-14
5.2472e-14
6.20124e-14
7.15543e-14
8.10959e-14
9.06372e-14
1.00181e-13
1.09724e-13
1.19266e-13
1.28812e-13
1.38355e-13
1.47894e-13
4.77011e-15
1.4311e-14
2.38517e-14
3.33926e-14
4.29332e-14
5.24749e-14
6.20158e-14
7.15583e-14
8.11002e-14
9.06419e-14
1.00186e-13
1.09729e-13
1.19271e-13
1.28817e-13
1.3836e-13
1.47899e-13
4.77039e-15
1.43117e-14
2.3853e-14
3.33944e-14
4.29354e-14
5.24777e-14
6.2019e-14
7.15618e-14
8.11042e-14
9.06462e-14
1.0019e-13
1.09734e-13
1.19276e-13
1.28822e-13
1.38366e-13
1.47905e-13
4.77065e-15
1.43124e-14
2.38541e-14
3.3396e-14
4.29375e-14
5.24801e-14
6.20218e-14
7.1565e-14
8.11077e-14
9.065e-14
1.00194e-13
1.09738e-13
1.19281e-13
1.28827e-13
1.3837e-13
1.47909e-13
4.77089e-15
1.43131e-14
2.38552e-14
3.33975e-14
4.29394e-14
5.24824e-14
6.20245e-14
7.15681e-14
8.11111e-14
9.06536e-14
1.00198e-13
1.09742e-13
1.19285e-13
1.28831e-13
1.38375e-13
1.47913e-13
4.7711e-15
1.43137e-14
2.38562e-14
3.33989e-14
4.29411e-14
5.24845e-14
6.2027e-14
7.15708e-14
8.11141e-14
9.06569e-14
1.00202e-13
1.09746e-13
1.19289e-13
1.28835e-13
1.38378e-13
1.47917e-13
4.7713e-15
1.43142e-14
2.38571e-14
3.34002e-14
4.29427e-14
5.24865e-14
6.20292e-14
7.15733e-14
8.11169e-14
9.06599e-14
1.00205e-13
1.09749e-13
1.19292e-13
1.28838e-13
1.38382e-13
1.47921e-13
4.77149e-15
1.43147e-14
2.38579e-14
3.34013e-14
4.29441e-14
5.24881e-14
6.20311e-14
7.15755e-14
8.11193e-14
9.06625e-14
1.00208e-13
1.09752e-13
1.19295e-13
1.28842e-13
1.38385e-13
1.47924e-13
4.77165e-15
1.43152e-14
2.38587e-14
3.34023e-14
4.29454e-14
5.24897e-14
6.2033e-14
7.15776e-14
8.11216e-14
9.0665e-14
1.0021e-13
1.09755e-13
1.19298e-13
1.28844e-13
1.38388e-13
1.47927e-13
4.7718e-15
1.43155e-14
2.38593e-14
3.34032e-14
4.29465e-14
5.2491e-14
6.20345e-14
7.15793e-14
8.11234e-14
9.06669e-14
1.00212e-13
1.09757e-13
1.193e-13
1.28847e-13
1.3839e-13
1.47929e-13
4.77192e-15
1.43159e-14
2.38598e-14
3.34039e-14
4.29475e-14
5.24922e-14
6.20358e-14
7.15808e-14
8.11251e-14
9.06687e-14
1.00214e-13
1.09759e-13
1.19303e-13
1.28849e-13
1.38393e-13
1.47931e-13
4.77204e-15
1.43162e-14
2.38604e-14
3.34046e-14
4.29484e-14
5.24933e-14
6.20371e-14
7.15822e-14
8.11266e-14
9.06704e-14
1.00216e-13
1.09761e-13
1.19304e-13
1.28851e-13
1.38395e-13
1.47933e-13
4.77214e-15
1.43164e-14
2.38608e-14
3.34052e-14
4.29492e-14
5.24942e-14
6.20381e-14
7.15834e-14
8.11279e-14
9.06718e-14
1.00218e-13
1.09762e-13
1.19306e-13
1.28852e-13
1.38396e-13
1.47935e-13
4.77223e-15
1.43167e-14
2.38612e-14
3.34058e-14
4.29499e-14
5.24951e-14
6.20392e-14
7.15845e-14
8.11292e-14
9.06732e-14
1.00219e-13
1.09764e-13
1.19308e-13
1.28854e-13
1.38398e-13
1.47936e-13
4.77231e-15
1.4317e-14
2.38617e-14
3.34064e-14
4.29507e-14
5.2496e-14
6.20403e-14
7.15858e-14
8.11306e-14
9.06747e-14
1.00221e-13
1.09766e-13
1.19309e-13
1.28856e-13
1.384e-13
1.47938e-13
4.7724e-15
1.43171e-14
2.38619e-14
3.34068e-14
4.29512e-14
5.24966e-14
6.20409e-14
7.15865e-14
8.11314e-14
9.06755e-14
1.00222e-13
1.09767e-13
1.1931e-13
1.28857e-13
1.38401e-13
1.47939e-13
4.77246e-15
1.43173e-14
2.38622e-14
3.34072e-14
4.29517e-14
5.24972e-14
6.20416e-14
7.15873e-14
8.11323e-14
9.06765e-14
1.00223e-13
1.09768e-13
1.19311e-13
1.28858e-13
1.38402e-13
1.4794e-13
4.77252e-15
1.43175e-14
2.38625e-14
3.34076e-14
4.29521e-14
5.24977e-14
6.20422e-14
7.1588e-14
8.1133e-14
9.06773e-14
1.00223e-13
1.09769e-13
1.19312e-13
1.28859e-13
1.38403e-13
1.47941e-13
4.77257e-15
1.43176e-14
2.38627e-14
3.34078e-14
4.29525e-14
5.24981e-14
6.20427e-14
7.15885e-14
8.11336e-14
9.0678e-14
1.00224e-13
1.09769e-13
1.19313e-13
1.2886e-13
1.38404e-13
1.47942e-13
4.77261e-15
1.43177e-14
2.38629e-14
3.34082e-14
4.29529e-14
5.24987e-14
6.20433e-14
7.15892e-14
8.11344e-14
9.06788e-14
1.00225e-13
1.0977e-13
1.19314e-13
1.28861e-13
1.38405e-13
1.47943e-13
4.77266e-15
1.43178e-14
2.3863e-14
3.34083e-14
4.29531e-14
5.24989e-14
6.20436e-14
7.15895e-14
8.11347e-14
9.06792e-14
1.00226e-13
1.09771e-13
1.19315e-13
1.28861e-13
1.38405e-13
1.47944e-13
4.77268e-15
1.43178e-14
2.38631e-14
3.34084e-14
4.29532e-14
5.24991e-14
6.20438e-14
7.15898e-14
8.1135e-14
9.06795e-14
1.00226e-13
1.09771e-13
1.19315e-13
1.28862e-13
1.38406e-13
1.47944e-13
4.7727e-15
1.43179e-14
2.38632e-14
3.34085e-14
4.29533e-14
5.24992e-14
6.20439e-14
7.15899e-14
8.11352e-14
9.06796e-14
1.00226e-13
1.09771e-13
1.19315e-13
1.28862e-13
1.38406e-13
1.47945e-13
4.77271e-15
1.43179e-14
2.38633e-14
3.34087e-14
4.29535e-14
5.24994e-14
6.20442e-14
7.15902e-14
8.11355e-14
9.068e-14
1.00226e-13
1.09772e-13
1.19316e-13
1.28863e-13
1.38407e-13
1.47945e-13
4.77273e-15
1.43179e-14
2.38633e-14
3.34087e-14
4.29535e-14
5.24994e-14
6.20442e-14
7.15902e-14
8.11355e-14
9.06801e-14
1.00226e-13
1.09772e-13
1.19316e-13
1.28863e-13
1.38407e-13
1.47945e-13
4.77273e-15
1.43179e-14
2.38632e-14
3.34085e-14
4.29533e-14
5.24992e-14
6.20439e-14
7.15899e-14
8.11352e-14
9.06797e-14
1.00226e-13
1.09771e-13
1.19315e-13
1.28862e-13
1.38406e-13
1.47945e-13
4.77271e-15
1.43179e-14
2.38631e-14
3.34085e-14
4.29533e-14
5.24991e-14
6.20439e-14
7.15899e-14
8.11351e-14
9.06797e-14
1.00226e-13
1.09771e-13
1.19315e-13
1.28862e-13
1.38406e-13
1.47945e-13
4.7727e-15
1.43178e-14
2.3863e-14
3.34083e-14
4.29531e-14
5.24989e-14
6.20436e-14
7.15895e-14
8.11347e-14
9.06792e-14
1.00226e-13
1.09771e-13
1.19315e-13
1.28862e-13
1.38406e-13
1.47945e-13
4.77268e-15
1.43177e-14
2.38629e-14
3.34081e-14
4.29528e-14
5.24985e-14
6.20432e-14
7.15891e-14
8.11343e-14
9.06787e-14
1.00225e-13
1.0977e-13
1.19315e-13
1.28861e-13
1.38406e-13
1.47945e-13
4.77265e-15
1.43176e-14
2.38627e-14
3.34079e-14
4.29525e-14
5.24982e-14
6.20428e-14
7.15886e-14
8.11337e-14
9.06781e-14
1.00224e-13
1.0977e-13
1.19314e-13
1.28861e-13
1.38405e-13
1.47944e-13
4.77261e-15
1.43175e-14
2.38625e-14
3.34076e-14
4.29521e-14
5.24977e-14
6.20423e-14
7.1588e-14
8.11331e-14
9.06774e-14
1.00224e-13
1.09769e-13
1.19313e-13
1.2886e-13
1.38404e-13
1.47944e-13
4.77258e-15
1.43174e-14
2.38623e-14
3.34074e-14
4.29518e-14
5.24974e-14
6.20418e-14
7.15875e-14
8.11325e-14
9.06767e-14
1.00223e-13
1.09768e-13
1.19312e-13
1.28859e-13
1.38404e-13
1.47944e-13
4.77254e-15
1.43172e-14
2.38621e-14
3.3407e-14
4.29514e-14
5.24968e-14
6.20411e-14
7.15867e-14
8.11316e-14
9.06757e-14
1.00222e-13
1.09767e-13
1.19311e-13
1.28858e-13
1.38403e-13
1.47943e-13
4.77249e-15
1.43171e-14
2.38618e-14
3.34066e-14
4.29509e-14
5.24962e-14
6.20403e-14
7.15858e-14
8.11305e-14
9.06745e-14
1.0022e-13
1.09765e-13
1.19309e-13
1.28856e-13
1.38401e-13
1.47941e-13
4.77244e-15
1.43169e-14
2.38615e-14
3.34062e-14
4.29503e-14
5.24955e-14
6.20395e-14
7.15848e-14
8.11293e-14
9.06731e-14
1.00219e-13
1.09764e-13
1.19307e-13
1.28853e-13
1.38397e-13
1.47937e-13
4.77237e-15
1.43167e-14
2.38611e-14
3.34057e-14
4.29496e-14
5.24947e-14
6.20385e-14
7.15837e-14
8.11281e-14
9.06717e-14
1.00217e-13
1.09762e-13
1.19305e-13
1.28851e-13
1.38394e-13
1.47932e-13
4.7723e-15
1.43164e-14
2.38608e-14
3.34052e-14
4.2949e-14
5.24939e-14
6.20376e-14
7.15826e-14
8.11269e-14
9.06704e-14
1.00216e-13
1.0976e-13
1.19303e-13
1.28849e-13
1.38392e-13
1.4793e-13
4.77223e-15
0
2.52435e-29
-5.04871e-29
-5.04871e-29
2.52435e-29
7.57306e-29
0
-1.00974e-28
2.01948e-28
-1.00974e-28
-1.00974e-28
1.00974e-28
1.00974e-28
1.51461e-28
1.00974e-28
1.26218e-29
)
;


// ************************************************************************* //
