/*--------------------------------*- C++ -*----------------------------------*\
  =========                 |
  \\      /  F ield         | OpenFOAM: The Open Source CFD Toolbox
   \\    /   O peration     | Website:  https://openfoam.org
    \\  /    A nd           | Version:  8
     \\/     M anipulation  |
\*---------------------------------------------------------------------------*/
FoamFile
{
    version     2.0;
    format      ascii;
    class       surfaceVectorField;
    location    "0.0360000";
    object      Uf_0;
}
// * * * * * * * * * * * * * * * * * * * * * * * * * * * * * * * * * * * * * //

dimensions      [0 1 -1 0 0 0 0];

internalField   nonuniform List<vector> 
1094
(
(0.637875597983356 0.00051106064300723 -2.44316898273025e-18)
(0.403585647380407 0.00168520130582477 -4.52332462495912e-18)
(0.638223423078743 0.000364218052784724 -3.2252950943297e-18)
(0.40566500375062 0.00182295824730361 -1.0887500618946e-17)
(0.63848620776956 0.000349810935203059 -3.73203292510979e-18)
(0.405988337231392 0.00190814147113665 -9.33279109740344e-18)
(0.638570412708796 0.000381130140421532 9.85301007245432e-18)
(0.406162370752404 0.00204808600739033 -5.18918799498937e-18)
(0.638543091455764 0.000399009470587209 6.61455669050863e-18)
(0.406109102804732 0.00213641084050324 3.31014720660353e-17)
(0.638466613351535 0.00040854628517561 -1.21662715814962e-17)
(0.405928839481838 0.00218003415448611 -7.17204108623802e-18)
(0.638374710788719 0.000414562802146488 -1.05046761430761e-17)
(0.405701540888698 0.00220169891023288 -3.21547978045758e-17)
(0.638276810254045 0.000418870182157999 -1.35310103317446e-17)
(0.405459067363673 0.00221330709548804 -7.71292373067682e-18)
(0.63817665229767 0.000422805667463249 -1.12648916296769e-17)
(0.405210634023219 0.00222176978218527 3.26390448343254e-18)
(0.638075689734094 0.000426775674812093 -1.63441480039118e-18)
(0.404959096245528 0.0022299557017278 1.19957101865702e-18)
(0.637974106138847 0.000430416105452271 -6.9790173400659e-18)
(0.404705309545987 0.00223810843794689 -4.49390407555889e-20)
(0.637870229596864 0.000433713785709991 -4.42650915292096e-17)
(0.404448346787592 0.00224555000630416 -1.39013747785168e-17)
(0.637763903931504 0.000437036446640915 -5.85093957079893e-17)
(0.404187216099275 0.00225293878317667 -7.34467903206063e-17)
(0.637656525219572 0.000440304697332057 -2.44882421611407e-17)
(0.403922112721892 0.00226070161394511 -8.0122804601142e-17)
(0.63754728946585 0.000443474151872218 -4.37930512566147e-18)
(0.403653581920937 0.00226817567745117 -9.41609541769388e-18)
(0.637434426679988 0.00044667063396439 2.78663692494683e-17)
(0.403380523091346 0.00227576079285927 -3.21589425123537e-18)
(0.637317978275858 0.000449877416033805 4.45267524336516e-17)
(0.403101034681049 0.00228339135317301 4.02412858850899e-17)
(0.637200379190515 0.000453096150236007 7.13705899420608e-17)
(0.4028173509452 0.00229137263518816 4.48286472182319e-17)
(0.637079143824705 0.000456200162170845 1.18552220275e-16)
(0.402529305112535 0.00229923782638083 1.42150293043097e-16)
(0.636953931355555 0.00045909014029528 9.54834434419031e-17)
(0.402234322758834 0.0023069512443954 1.72735042626699e-16)
(0.63682603802447 0.000462051329326653 1.31436946920265e-17)
(0.401933790373889 0.00231451920187278 1.25549504070889e-16)
(0.636696487635009 0.000465020884476236 -6.81510487806074e-18)
(0.401628429135877 0.00232275687574816 -1.59510155775087e-17)
(0.636563422199793 0.000467815081498885 7.9773637033348e-18)
(0.401317340611276 0.00233056153134374 5.67019499133953e-17)
(0.636426664744049 0.000470854739039067 1.28508216649548e-17)
(0.400999819138786 0.0023385017353049 5.62971400776077e-17)
(0.636287304083781 0.000474090059318755 2.31541956179464e-17)
(0.400676073699526 0.00234733481962325 1.39811052232756e-18)
(0.636145403746649 0.000477022192622778 5.22889847123505e-17)
(0.400346475809955 0.00235617531927642 1.47977716761637e-17)
(0.636000244510616 0.000480039409864793 -2.62229089208229e-17)
(0.400010465020983 0.00236454096022377 6.47931242164299e-17)
(0.63585057646568 0.000483978447333344 -8.49050351292691e-17)
(0.399667852927721 0.00237391157245621 -1.79940458449514e-16)
(0.635697319216538 0.00048808747721612 -1.23888731798816e-17)
(0.399317597442625 0.00238524592892419 -4.00089641777116e-17)
(0.635540198116005 0.00049147320437676 -1.30522064401455e-17)
(0.3989599535117 0.00239553819327618 7.79110575421101e-18)
(0.635379651148354 0.000494943831897086 6.9041684625947e-18)
(0.398595521515627 0.00240526537618544 7.67540394482794e-17)
(0.635215595185111 0.000499373392174914 1.96866915497622e-17)
(0.398223626884108 0.00241617355364134 9.7556127484088e-17)
(0.63505032885539 0.000503971561186597 8.12802501525601e-19)
(0.397845469198433 0.00242917392697648 -9.50134580185946e-18)
(0.634881427766453 0.000508110111006006 2.16347521098912e-17)
(0.397460791557048 0.00244109515896859 4.70216957751914e-18)
(0.634709330084868 0.000513020248578522 5.19494549844576e-17)
(0.397068400425811 0.00245321923363329 7.85169255111427e-17)
(0.634535108357692 0.000519421788400117 6.0376544255408e-17)
(0.396669921716448 0.00246800899137133 1.30134885608179e-16)
(0.634358621318105 0.000525927674238374 9.82842613389665e-17)
(0.396265332920361 0.00248511076934536 1.02538910312812e-16)
(0.634178560571508 0.000532017996223569 9.54742665128116e-18)
(0.39585323026834 0.00250085847950494 3.07589476695199e-16)
(0.633996159438406 0.000539790254331981 -6.69520715887074e-17)
(0.395435156513795 0.00251728952773593 -1.97112178012699e-17)
(0.633816348072354 0.000549130739961762 -1.92427157132483e-17)
(0.395013356918172 0.00253887753576678 -1.65419976749675e-17)
(0.633637302787386 0.000558195660576694 -6.04756740629771e-17)
(0.394589496061271 0.00256077751262965 -4.29705229226769e-17)
(0.633458061623344 0.000568019087741362 -3.10715747636202e-17)
(0.394162403920765 0.00258232216183489 -2.05314073475521e-16)
(0.63327907878838 0.000581700033832327 2.99617079004666e-17)
(0.393733143982919 0.00260707616617637 7.56805133750926e-17)
(0.6331108973064 0.000597067584470851 6.13822839843104e-17)
(0.393307539091877 0.00264140024071782 4.80709556345163e-17)
(0.63294745909555 0.000611568113567644 5.82573412870927e-17)
(0.392887733365143 0.00267233064126101 9.04995083905277e-17)
(0.632790837541117 0.000629362095520381 1.80493815422238e-17)
(0.392473543813226 0.00270471939927441 3.59904068678058e-17)
(0.632646457625155 0.00065321558344151 -4.06016601523846e-17)
(0.392071041012766 0.00274665125446778 -6.85169278067314e-17)
(0.632521488090961 0.000678521540101733 -4.02778317768342e-17)
(0.391687572799709 0.0027987298481868 -1.05123563562105e-16)
(0.632412350775947 0.000703600629598561 1.27765064152593e-16)
(0.39132473606458 0.00284638521005146 1.24619790701941e-16)
(0.632323180782305 0.000736950137344913 1.49256505410367e-16)
(0.390989954525042 0.00289834751226639 3.98349232553942e-16)
(0.63227377919427 0.000778104842583026 2.49550772958905e-17)
(0.390696379345872 0.00297274453025976 1.13242351619541e-16)
(0.632264786972604 0.000818645660041704 9.53527142064842e-17)
(0.390457375416119 0.00305009122666134 -3.56381075287208e-17)
(0.632298730360365 0.000862082777621038 1.12655624384218e-16)
(0.390277139435179 0.00312389002695642 2.33734241578596e-16)
(0.632381124778969 0.00092435796880388 2.74746051776639e-17)
(0.390173762261663 0.00321031681001873 4.52319582932848e-17)
(0.632558616874119 0.000994822033280952 3.86800746830773e-17)
(0.39017641695053 0.00334393967540515 5.77566024537195e-17)
(0.632815786215876 0.00106029181698221 8.32014837283704e-17)
(0.390303596569785 0.00345726328419809 9.54457903601008e-17)
(0.633168439618374 0.00114046347958596 -1.80762752089702e-17)
(0.390577621786984 0.0035755032969796 8.47022568139787e-17)
(0.633648359497758 0.00124652939952718 -1.4080749220506e-17)
(0.391032258402433 0.003734708697248 -3.23378723801483e-16)
(0.634301054234719 0.00135667499853009 1.12444240995997e-16)
(0.391720927046425 0.00393374116202099 1.00937538268697e-16)
(0.635129223148484 0.00146360041960534 1.05749271765124e-17)
(0.392676363740802 0.00410651482740768 6.23355378552617e-17)
(0.636163188188596 0.00160886030089781 -3.71494906401691e-17)
(0.393962165617696 0.00429476763536432 -1.67127965505559e-16)
(0.637510836895872 0.00179348532666719 6.19486454296453e-17)
(0.39566564919064 0.00458532345840162 1.02822266117285e-17)
(0.639253548502539 0.00198943473813545 6.16549459931935e-17)
(0.397910875868597 0.00489543070389328 2.40370911899616e-16)
(0.64159340294401 0.00223090319811461 5.20476013425916e-17)
(0.400862837368732 0.00522363360308846 9.12320509088384e-18)
(0.644778065823121 0.0026605105205607 1.15406881615952e-16)
(0.404913247002364 0.00567742534228992 7.0111123603325e-17)
(0.649296626942037 0.00319081608295946 -2.03885045835201e-17)
(0.41054890568466 0.00657649816667329 1.4280178396029e-16)
(0.655080725361878 0.00367121130149206 -1.33912459916283e-16)
(0.418024315602813 0.00733359149329067 -1.21755048856745e-16)
(0.66216370018867 0.00422417765332678 -9.2636655280999e-17)
(0.427664247968059 0.00807260446843032 3.40682779274409e-17)
(0.670687367889057 0.00479990867247721 3.35397511098582e-17)
(0.439613300113443 0.00901264686890901 -7.36991024969487e-17)
(0.680651650255075 0.00519346300836305 1.23434394075567e-16)
(0.453952801025308 0.00977078838547985 3.12323604423006e-16)
(0.692036075166369 0.00541615828329843 1.25821043619093e-17)
(0.470759726644958 0.0101125402661 1.90172554212251e-16)
(0.704858429817716 0.00561994826417041 -3.43331779422156e-17)
(0.490141727193135 0.0103013156940612 -1.34148890452875e-16)
(0.719256281550663 0.00567691273310534 -2.76477624427459e-17)
(0.5119737257666 0.0104989017088923 -5.56537037716831e-18)
(0.734988580530612 0.00550524711912727 -3.66460554031698e-17)
(0.536175511948313 0.0101762892090749 -1.06848093371315e-17)
(0.752015796352657 0.00523529113345602 -2.80850948263442e-17)
(0.5626947372704 0.0096331459771622 -4.15030942533566e-17)
(0.770253726865722 0.00483622227863442 -6.56332394188644e-17)
(0.591191515320397 0.00893067661171566 -6.89042618117677e-17)
(0.789562574659123 0.00430881345696852 -7.13198898104274e-17)
(0.621535941927356 0.00794002293298904 -1.05257325172906e-16)
(0.809865575660812 0.00372243158433198 -6.09587640815864e-17)
(0.653651173441706 0.00680537539361095 -9.22325990367422e-17)
(0.831148287156308 0.00303403107405284 1.57328837480182e-18)
(0.687225248678919 0.00557666180770747 -6.86025650586761e-17)
(0.853310502842404 0.00230575378230852 6.32310752280463e-17)
(0.722356420299217 0.00410051858750098 7.36250204347894e-17)
(0.876468021476198 0.00162376086873888 2.89476668550884e-18)
(0.758870979031934 0.00272804538635233 9.67710704256084e-17)
(0.900946026086505 0.000975208519124058 -4.61265610642154e-17)
(0.797509324636409 0.00136718087236279 -8.23849067666022e-17)
(0.926619910850431 0.000336015520154636 4.28836550305792e-17)
(0.837200238147389 3.66102027437222e-05 -2.81226457947416e-17)
(0.954685406256281 -9.39659745819028e-05 7.94222617981219e-17)
(0.88181876285654 -0.00128163212852791 1.98580122222433e-16)
(0.984264300980551 -0.000567637984050289 9.42483653041029e-18)
(0.924977559453975 -0.0021033529774728 1.15685070629418e-16)
(1.01611632034091 -2.19544837044189e-05 9.50066013575882e-19)
(0.983747599729842 -0.00296935850834063 -1.38471776464589e-17)
(1.01540626583739 0.000251548587228883 7.97356564594783e-19)
(1.00762948646409 2.28159605186237e-05 1.73807076715609e-17)
(1.01756356611017 0.000194464038587149 3.08003557262291e-18)
(1.00047267672987 -0.00020848055429174 -1.51629479873104e-17)
(1.0178053074453 0.000235097487551577 3.59296185954332e-17)
(1.00495814101088 -6.99552281999193e-06 2.70811333167801e-17)
(1.01801118068982 0.000248489535991936 2.62645798560043e-17)
(1.0028935923541 1.62322470739345e-05 8.81430827893011e-17)
(1.01751274276572 0.000228562499642348 9.0765879880425e-18)
(1.00259592752317 8.20721235129915e-05 -1.11724127542854e-17)
(1.01680311542966 0.000213672467846113 3.76292299809435e-18)
(1.00074062639884 9.25980717838422e-05 1.83197136409556e-17)
(1.01574864312945 0.000201963066103943 -2.28674981844718e-18)
(0.998985045511519 0.000114756727191601 -3.38006759583483e-17)
(1.01449107269155 0.000177530955279305 9.18184603517973e-18)
(0.996688640419275 0.000118224960825216 9.11033364975502e-18)
(1.0130865324725 0.000152082999953907 5.59580418555265e-18)
(0.994276077493329 0.000113874060537036 1.33430077052152e-17)
(1.01159447812654 0.000125358270927064 -1.68839316125594e-18)
(0.991678281116967 0.000104278419617407 8.69894998567213e-18)
(1.01007082283774 9.62070290789366e-05 -7.90339324925057e-18)
(0.989038327127835 8.96769191229678e-05 -1.60197122880511e-17)
(1.00854090191064 9.12117028883488e-05 -3.81553231154442e-18)
(0.986374585511649 7.54774927162261e-05 -1.61997318236585e-17)
(1.0070038132176 0.000182107700058491 2.34649599524546e-19)
(0.983874542604015 7.05638920515924e-05 9.29307160544005e-19)
(0.981639920247118 5.14835536229938e-05 3.4509567926812e-20)
(0.168786764675538 0.00325517826230413 -1.30508042537367e-17)
(0.0142936146349472 0.00497383869079624 -1.21654425990871e-17)
(0.170103606085218 0.00374184558936292 -1.70828988484531e-17)
(0.0174201065940378 0.00546101470244483 -1.9787795458183e-17)
(0.170663431429036 0.00408460261845015 -1.08276095042433e-17)
(0.0178273230824215 0.00611729951017973 -1.65918112044732e-17)
(0.17072366626049 0.004329015907869 1.8192520254244e-17)
(0.017908021590739 0.00662358853642903 -1.62363409725671e-17)
(0.17052799112655 0.00446201157876886 1.93111515037436e-17)
(0.0176781681845881 0.00689880966438825 2.54132196083188e-17)
(0.170221470008441 0.00452572926396128 -2.73090994733633e-17)
(0.0172888555161891 0.00702606833085954 -6.73638179039805e-18)
(0.169873472172823 0.00455675459699654 -2.9428526366664e-17)
(0.0168395046921585 0.00708277446459335 -3.68202614343265e-17)
(0.169509781107503 0.00457484062927384 9.24654935577541e-18)
(0.0163690779350901 0.00711063103514378 -8.95755543216183e-18)
(0.169138956384199 0.00458918586952972 1.58898057895304e-17)
(0.0158890048751779 0.00712887144110139 1.70080881571414e-17)
(0.168763868509898 0.0046029152935678 2.81320281916466e-18)
(0.0154029133866055 0.00714512537324256 3.92745449588611e-18)
(0.168384635517985 0.00461629048150388 -6.9987733748379e-18)
(0.014911836688297 0.00716111919114939 7.28935737491671e-18)
(0.167999786460196 0.0046293688871222 -4.32131502366149e-17)
(0.0144148405453769 0.00717672088846555 -5.44244575241595e-17)
(0.167608914752187 0.00464261007292307 -9.52907464815988e-17)
(0.0139108464056436 0.0071923780067527 -7.39349262883165e-17)
(0.167212502064612 0.0046559342263726 -6.5119598155727e-17)
(0.0133999286641386 0.00720837015506333 -9.66725436421746e-17)
(0.166809769308365 0.00466922863633409 -8.26010898002264e-18)
(0.0128820977455647 0.00722430978584155 9.52721665571935e-18)
(0.166399757269603 0.00468265112614238 9.15812186580512e-18)
(0.0123564203547698 0.00724042035546502 -1.10446246232186e-17)
(0.165982378758599 0.00469630634005512 4.05319720178139e-17)
(0.0118219737255309 0.00725675529989145 1.133647938945e-17)
(0.165558291274594 0.00471011606315018 1.16096311226128e-16)
(0.0112795130715136 0.0072733773026669 6.07953788238539e-17)
(0.16512645544607 0.00472383623921001 1.96836750319821e-16)
(0.0107288330810835 0.00729012956230567 1.36419821462236e-16)
(0.16468614775643 0.0047374491993476 2.0326122150766e-16)
(0.010168465924227 0.00730677542638081 1.92938537714551e-16)
(0.164237595843007 0.00475135039798024 9.65323069888057e-17)
(0.00959841073895106 0.00732346738160366 1.88505192315302e-16)
(0.163781306701297 0.00476542183317569 4.80449513213845e-17)
(0.00901905759745246 0.0073407457157296 -1.54670086452755e-17)
(0.163315969074641 0.00477945858297858 1.05526410006581e-16)
(0.0084297753894989 0.00735793219697319 4.92991788046401e-17)
(0.16284112866118 0.00479408185332993 4.48598072377836e-17)
(0.00782953775641533 0.00737541708495741 1.27303915683873e-16)
(0.162357502721933 0.00480923420674266 -7.0742375559318e-18)
(0.00721852920575748 0.00739384939022309 -1.45489227849719e-17)
(0.161864728500664 0.00482426857278011 2.73170089056383e-17)
(0.00659700235525132 0.00741250391046899 2.37978545485085e-17)
(0.161361521120573 0.00483975285749083 -8.99316662707083e-17)
(0.00596383081268553 0.00743099400150834 5.00599749637116e-17)
(0.160847738609441 0.00485688333189379 -1.34883553579622e-16)
(0.00531840477858527 0.00745082640829047 -1.59971621556357e-16)
(0.16032454128595 0.00487459619294526 -1.97240383390105e-17)
(0.00466130848722397 0.00747260230567186 -5.41496135728504e-17)
(0.159790695513646 0.00489159498882757 9.83277849496577e-17)
(0.00399254757945556 0.00749378199163319 5.34243416411022e-18)
(0.159245287537046 0.00490904740140782 1.68218788702447e-16)
(0.00331076873405031 0.0075145413604454 1.66778749665924e-16)
(0.158689025246949 0.00492833430615073 6.82606921404375e-17)
(0.00261541894063117 0.007536873772335 2.24420087636971e-16)
(0.158123522564638 0.00494830701090507 -5.59632049533794e-18)
(0.00190822297713692 0.00756128979467911 -4.42521334854943e-17)
(0.157546676076471 0.00496804583894859 6.19994216416396e-17)
(0.00118881047441075 0.00758525891717158 -1.51231081634572e-18)
(0.156957978340821 0.00498952969668003 1.57331445399182e-16)
(0.000455102032724317 0.00760972880295208 3.07893522513202e-17)
(0.156359404327 0.00501389184290757 1.72689913963131e-16)
(-0.000291604728861079 0.00763734029877734 1.43410304698572e-16)
(0.155751937586686 0.00503898100423106 3.13448179504215e-16)
(-0.00104924222425752 0.00766759714725873 1.60064853440438e-16)
(0.155133420308767 0.00506402515468372 2.78326482007828e-16)
(-0.00181904465365827 0.00769704618333582 4.60612762728758e-16)
(0.154504735597199 0.00509246085181595 3.11126668769049e-17)
(-0.00260207657891041 0.00772784726879671 1.53077888064302e-16)
(0.153871150836822 0.005124127928253 -4.04499153384472e-17)
(-0.00339465596096842 0.00776399766955299 -2.56663542823474e-17)
(0.15323213474458 0.00515608741864334 -1.88910857445035e-16)
(-0.00419358077933395 0.00780135772164992 -6.49114184544015e-17)
(0.152586140951514 0.0051901045313186 -9.77752352238543e-17)
(-0.00500104887470588 0.00783871352117637 -3.64141457812024e-16)
(0.151936914595443 0.00523150879111887 9.39300556792678e-17)
(-0.00581660268242178 0.00788085919179495 -3.17867752255167e-17)
(0.151295131230719 0.00527665880137837 7.74133562953672e-17)
(-0.00663022435633083 0.00793248950846356 8.64272957681473e-17)
(0.150657229960753 0.00532125551937568 6.80524300216337e-17)
(-0.00743804348125243 0.00798232709425093 8.25001841912673e-17)
(0.150025208464817 0.00537251108533957 -5.12516973724496e-17)
(-0.00824345052489447 0.00803400458514319 7.87321856311434e-17)
(0.149411001696232 0.00543530416545335 -1.33522098675606e-16)
(-0.00903791485750881 0.00809716550241382 -2.5101327125072e-16)
(0.148826662938203 0.00550168354349216 6.11023611969495e-17)
(-0.0098048133971653 0.00817123117616513 -1.41036446829297e-16)
(0.148270151364402 0.00556873098660688 3.97316737877803e-16)
(-0.010540602732125 0.00824190574980265 2.45497394546442e-16)
(0.147751429886417 0.00565151390138965 3.61784484809957e-16)
(-0.0112440688636705 0.00831885717997858 5.63041637121226e-16)
(0.147300815801345 0.00574921268271773 5.20624285430867e-17)
(-0.0118894810840924 0.00841964853092439 2.10062571701248e-16)
(0.146928339154876 0.00584683015448432 1.04024824373489e-16)
(-0.0124498621058213 0.00852538364457833 -1.21784476027122e-16)
(0.146638444372235 0.00595062103973854 1.65578979386079e-16)
(-0.0129235964179818 0.0086267633998025 3.28516061012807e-16)
(0.146460036331276 0.00608951019079245 7.5725904672416e-17)
(-0.0132969751461207 0.00874673920884936 7.45928319483813e-17)
(0.146460093093003 0.0062439693793983 1.14943153058445e-16)
(-0.0135022097661547 0.00891368103479238 1.19976642646004e-16)
(0.146637451124034 0.00638972057604508 9.69321288021314e-17)
(-0.0135026106322904 0.00906323491205567 1.94549453871301e-16)
(0.147021411148799 0.00656254086392827 -2.23350079234519e-16)
(-0.0132963707045831 0.00921591976565334 3.64036265862063e-17)
(0.147692294277922 0.00678299349614392 -2.06641073304921e-16)
(-0.012820112569971 0.00941664896915154 -3.98280733782968e-16)
(0.148734945140156 0.0070101906760478 5.04419388607912e-17)
(-0.011957664434789 0.00965773510537309 7.81992006598468e-17)
(0.150170700924139 0.00723037219179668 -1.17016795774087e-16)
(-0.0106618251856552 0.00986953437014182 -1.11858713400486e-17)
(0.152085904903667 0.0075203335393384 -1.18899977513844e-16)
(-0.00889732993951528 0.0101011538417031 -2.15462916119547e-16)
(0.154690785927498 0.00788208366921218 1.90412549617559e-16)
(-0.00647760391335123 0.0104409526448289 1.78460919080174e-17)
(0.158147597882217 0.00826316659491671 1.86801798874851e-16)
(-0.0031785299478849 0.0108070832772433 5.06879910699598e-16)
(0.162706209935768 0.0087309246489774 2.74807232801183e-17)
(0.0011621374300521 0.0111824024961472 7.28448572486391e-18)
(0.168871374455459 0.00954825743686564 9.78913910727427e-17)
(0.00687613854151305 0.0117412786511022 1.32459768484027e-17)
(0.177533050186792 0.0105416077802529 4.00708461614456e-17)
(0.0149478928016109 0.0127600219558934 3.80551424965114e-17)
(0.188867091921312 0.0114216223593745 4.77486156174071e-17)
(0.025994964163769 0.0136359975919419 -3.15076856340295e-17)
(0.203177743879473 0.0124027766446167 5.28936976147214e-17)
(0.0401600364926701 0.0144599102220301 1.92395160584967e-16)
(0.221041404456956 0.0133791116023191 2.07728842837106e-16)
(0.0580931123140171 0.0154606563668684 -5.40627428781846e-17)
(0.242545664119447 0.0139561224348619 3.79180016058239e-16)
(0.0803239055754693 0.0161915813328666 5.33972506374661e-16)
(0.267455475166189 0.014156585312306 4.18548148588461e-17)
(0.106591803582616 0.0163722043793044 2.96350188887601e-16)
(0.295839088961683 0.0142574901005669 -1.04946309981287e-16)
(0.136706651850539 0.0163246764260627 -1.82626819408649e-16)
(0.32792538077046 0.014016091220176 1.14400202631593e-17)
(0.171052569595567 0.0161753574291606 -9.16273526850424e-18)
(0.363176203140164 0.0132871369367563 -1.56490333925314e-17)
(0.209400193041791 0.0153882218362947 7.37339013763778e-17)
(0.401365036096567 0.0123120381701646 -8.24934508901636e-17)
(0.251163216538534 0.0142569271671659 -8.17832679525431e-17)
(0.442321667149848 0.0110416966933656 -1.08710019749731e-16)
(0.29619731226648 0.0128742164463528 -1.37333533595062e-16)
(0.48570076175232 0.00948679117265021 -1.26067719986779e-16)
(0.344179384300607 0.0111121451160878 -1.22859630706109e-16)
(0.531325591541042 0.00777577498871904 -9.97195529562443e-17)
(0.394800395692034 0.00913662141904305 -1.84015529889159e-16)
(0.579083203201906 0.0058376754582955 4.22780646976656e-18)
(0.447879768859584 0.0069873722003531 -5.6396596459364e-17)
(0.628694429954723 0.00380138582756647 1.071471965954e-16)
(0.50324787514647 0.00454597802034955 6.38230575501953e-17)
(0.680523915374709 0.00182460559420663 1.02911017852304e-17)
(0.560477432757038 0.00218943734724894 1.89407081835942e-16)
(0.734991095399823 -0.00012947590223529 -6.38937686525755e-17)
(0.621156607329736 -0.000187697794322925 -8.6400952134011e-17)
(0.792493823561548 -0.00208849234290889 1.28973158419372e-16)
(0.683349119543436 -0.00253557835069518 -5.72923643366632e-17)
(0.854150395529205 -0.0036990696480266 2.32708152828395e-16)
(0.752892402342017 -0.00492247645861756 2.60458249082812e-16)
(0.921466203943575 -0.00505193656851569 9.02779149860832e-17)
(0.819993310776673 -0.00667112123619878 2.88639610054104e-16)
(0.98688794794827 -0.00249183151560444 2.71806216125406e-18)
(0.911643337215605 -0.00797670436203601 3.09421917230208e-17)
(0.988921522510062 -7.27025468289655e-05 1.41394572400777e-18)
(0.948583944851106 -2.96826736759192e-05 3.31132482517121e-17)
(0.989879037344361 -5.07186231678771e-05 8.79744003418509e-18)
(0.936352293087099 -0.000261619097053297 -3.0894402654856e-17)
(0.989424453304577 6.51323170103051e-05 7.90075498262803e-17)
(0.942400259151836 -1.89144460198802e-05 5.36686863558376e-17)
(0.988010380321533 0.00014306064419957 5.03959967462028e-17)
(0.938347017277745 1.56950251302567e-05 1.20619136888566e-16)
(0.985842364772759 0.00015692214085234 -1.81998732818569e-18)
(0.93725010242507 9.50861921852823e-05 6.56986972717204e-18)
(0.983169876629462 0.000172101923773109 -1.91991276442525e-17)
(0.933809097755545 0.00011106494572486 6.47800139177629e-18)
(0.98007783436563 0.00018682873684363 -2.22170574957023e-17)
(0.930646327307133 0.000137414748007882 -4.27255390759346e-17)
(0.97667011924095 0.000179582929592925 1.32603027541058e-17)
(0.926754731722771 0.000141984737673168 4.59951160193413e-18)
(0.973049871652365 0.000166634347920959 1.63868380251731e-17)
(0.922739977093082 0.000136632799565442 2.59402905801328e-17)
(0.969304347495637 0.000149245052470776 -5.66564009679444e-18)
(0.918473023429013 0.000124392517968953 1.72605969674606e-17)
(0.965530242884745 0.000127573370022642 -2.42519732949496e-17)
(0.914170116556701 0.000106267310400538 -2.01015468147976e-17)
(0.961845830202243 0.000141778259782441 -1.13929262326962e-17)
(0.90984060021226 8.7673677992874e-05 -2.5691005892882e-17)
(0.958583668461647 0.00027099341798699 7.26378914746048e-19)
(0.905814242883529 7.56889725689772e-05 2.0884314711788e-18)
(0.902350780980736 5.88142162601727e-05 5.81298012337662e-20)
(-0.138380253643411 0.0072583462289745 -1.89553976367509e-17)
(-0.213681347505257 0.00812182116103916 -1.96040356067172e-17)
(-0.137082990922109 0.00800065873601202 -1.93038364923051e-17)
(-0.211746989002145 0.00889840933270469 -2.12367026638501e-17)
(-0.136776499699456 0.00888399191724122 -2.20692702734628e-17)
(-0.211932328065641 0.0102871167143136 -1.85218661696397e-17)
(-0.136984685177519 0.00943510855609792 -9.09359607457705e-18)
(-0.212297574555416 0.0111642901943173 -1.98370516275737e-17)
(-0.137414518416759 0.00970966984806835 -8.2598514308968e-19)
(-0.212807010308852 0.0115972971726977 1.72271424681516e-18)
(-0.137934035526783 0.00983359250907152 -1.62469873349488e-17)
(-0.213385225958649 0.011789263744246 -1.14372765947428e-17)
(-0.138488311024031 0.00989015063034889 -1.62090459642039e-17)
(-0.213988226242129 0.011872760396199 -1.90211412544091e-17)
(-0.139057435606388 0.00992083654943313 -1.19925210968079e-18)
(-0.214601775969318 0.0119134549906257 -8.44368009688397e-18)
(-0.139635118477395 0.00994358761650414 4.95241780319091e-18)
(-0.215223013640391 0.0119400207663672 1.86948085726296e-18)
(-0.140219303230917 0.00996468539880045 8.44375100094684e-18)
(-0.215851094103418 0.0119633013879479 -1.30658316778969e-19)
(-0.140809970730133 0.00998546672784286 -4.04703296397454e-17)
(-0.216485746606278 0.0119861994913981 3.93889249915048e-19)
(-0.141408132835011 0.0100061908112972 -8.54300895585964e-17)
(-0.217127653995164 0.012009013637784 -1.12279845585468e-16)
(-0.142014259659088 0.0100271908004172 -7.52591250980636e-17)
(-0.217777594081036 0.0120320463964778 -7.72129989484893e-17)
(-0.142628346942677 0.0100484100241772 -2.15292105040875e-17)
(-0.218435685369048 0.0120554650991089 -7.00995433527371e-17)
(-0.143250988936401 0.0100697596207985 6.77449492555274e-18)
(-0.21910213424125 0.0120790142886518 -6.24016748731309e-18)
(-0.143882847973131 0.01009135871522 -8.90832268488794e-18)
(-0.219777582302865 0.0121028139604807 -3.03828373737072e-17)
(-0.144524117122853 0.0101132892241211 3.16766408742594e-17)
(-0.220462564427068 0.0121269241692884 -1.7375331388075e-17)
(-0.145174797283939 0.0101354904908802 8.11268586877586e-17)
(-0.221157001533851 0.01215139376515 7.81289741888025e-17)
(-0.145835507716699 0.0101577698514032 1.32331420704958e-16)
(-0.22186117259735 0.0121760976160885 5.64320204960986e-17)
(-0.146507020118607 0.0101801172928068 1.78041187057085e-16)
(-0.222575969942525 0.0122008754471859 1.48117453787914e-16)
(-0.147189530791149 0.0102028500415917 7.58602246350292e-17)
(-0.223301833913531 0.0122258610100162 1.51354125931438e-16)
(-0.14788302449605 0.0102259024814929 -1.43517697832236e-17)
(-0.224038784393867 0.0122514166613615 -2.09577498636345e-17)
(-0.148588439343353 0.0102491538731735 7.11189522666561e-17)
(-0.22478733438728 0.0122771141449677 -4.89036870951044e-17)
(-0.149306287628807 0.0102730925750383 6.76136815572911e-17)
(-0.225548346326987 0.0123032328232157 1.84679743407195e-17)
(-0.150036295134953 0.0102976860883318 1.65450050149637e-17)
(-0.226321841761092 0.0123302337026765 -3.69786010260873e-18)
(-0.150778978007428 0.0103224445406194 4.67081677923783e-17)
(-0.227107825161752 0.0123576254860789 3.92127885437523e-17)
(-0.151535484629836 0.0103478824342888 -2.02611665992186e-17)
(-0.227907336449809 0.0123851606532092 1.05022777688191e-16)
(-0.1523056683763 0.0103749700431349 -7.86650557810881e-17)
(-0.22872092759075 0.012413937591313 -7.37734720816562e-17)
(-0.153088713234351 0.0104028177215023 -2.89473549960605e-17)
(-0.229547824473028 0.0124443689009615 -5.86945417018914e-17)
(-0.153885890930708 0.0104303404705166 7.41753977519265e-17)
(-0.230388178703546 0.0124746386646684 -2.59412897615221e-17)
(-0.15469847788476 0.0104585346950161 2.23403699749416e-16)
(-0.231243627297737 0.0125048385734966 1.33680486201119e-16)
(-0.155525820701206 0.0104885814525994 1.11250669336247e-16)
(-0.232114709787388 0.0125364754887327 2.87619256873979e-16)
(-0.156366913264168 0.0105195525891309 -4.01808118240639e-17)
(-0.233000088620515 0.0125699266019844 -9.89479368298694e-18)
(-0.157223362549176 0.0105507182339298 -3.30215911704312e-17)
(-0.233900094789803 0.0126033807001358 -1.89840336199576e-18)
(-0.158095848844015 0.0105837777728009 1.66517783430611e-17)
(-0.234816548993247 0.0126375217107417 -3.05347748671842e-17)
(-0.158982357914381 0.0106197325723729 1.3066795488476e-16)
(-0.235748527615121 0.0126743662836082 1.71374356801046e-16)
(-0.159881673266886 0.0106567323248151 3.08241764934399e-16)
(-0.23669372921935 0.0127135359594763 1.63187114376144e-16)
(-0.160795744173295 0.0106941646565413 3.3451113042527e-16)
(-0.237652900394394 0.0127524353277502 3.55818683822617e-16)
(-0.161723820755098 0.0107349628506038 9.59154235712343e-17)