/*--------------------------------*- C++ -*----------------------------------*\
| =========                 |                                                 |
| \\      /  F ield         | foam-extend: Open Source CFD                    |
|  \\    /   O peration     | Version:     4.1-20200408                       |
|   \\  /    A nd           | Web:         http://www.foam-extend.org         |
|    \\/     M anipulation  |                                                 |
\*---------------------------------------------------------------------------*/
FoamFile
{
    version     2.0;
    format      ascii;
    class       pointVectorField;
    location    "0.0380000";
    object      pointDU;
}
// * * * * * * * * * * * * * * * * * * * * * * * * * * * * * * * * * * * * * //

dimensions      [0 1 0 0 0 0 0];

internalField   nonuniform List<vector> 
4059
(
(0 1.27771e-17 -3.35947e-16)
(0 -1.54799e-14 6.54514e-16)
(0 -3.16229e-08 1.38069e-09)
(0 1.27561e-17 -3.35361e-16)
(0 -1.54799e-14 -1.01203e-15)
(0 -3.16229e-08 -1.38069e-09)
(0 2.23588e-14 -9.97557e-16)
(0 8.27648e-15 -3.82711e-16)
(0 4.64769e-15 -2.24275e-16)
(0 2.70237e-15 -1.3934e-16)
(0 1.45332e-15 -8.48068e-17)
(0 4.90123e-16 -4.27528e-17)
(0 -2.5017e-16 -1.04297e-17)
(0 -8.21618e-16 1.4521e-17)
(0 -1.30519e-15 3.56321e-17)
(0 -1.54852e-15 4.62558e-17)
(0 -1.79607e-15 5.70663e-17)
(0 -1.67033e-15 5.15757e-17)
(0 -1.66647e-15 5.14059e-17)
(0 -1.16421e-15 2.94772e-17)
(0 -1.15129e-15 2.89138e-17)
(0 -2.97529e-08 1.29904e-09)
(0 -2.79086e-08 1.21852e-09)
(0 -2.60487e-08 1.13731e-09)
(0 -2.41494e-08 1.05438e-09)
(0 -2.22238e-08 9.70313e-10)
(0 -2.02788e-08 8.85392e-10)
(0 -1.83114e-08 7.99493e-10)
(0 -1.63231e-08 7.12684e-10)
(0 -1.432e-08 6.25225e-10)
(0 -1.22974e-08 5.36917e-10)
(0 -1.02818e-08 4.48912e-10)
(0 -8.24379e-09 3.59931e-10)
(0 -6.19586e-09 2.70517e-10)
(0 -4.13592e-09 1.80578e-10)
(0 -2.07009e-09 9.03822e-11)
(0 2.23588e-14 6.40042e-16)
(0 8.27648e-15 2.51952e-17)
(0 4.64769e-15 -1.33241e-16)
(0 2.70237e-15 -2.18176e-16)
(0 1.45332e-15 -2.72711e-16)
(0 4.90123e-16 -3.14766e-16)
(0 -2.5017e-16 -3.47087e-16)
(0 -8.21618e-16 -3.72036e-16)
(0 -1.30519e-15 -3.93151e-16)
(0 -1.54852e-15 -4.03775e-16)
(0 -1.79607e-15 -4.14582e-16)
(0 -1.67033e-15 -4.09092e-16)
(0 -1.66647e-15 -4.08925e-16)
(0 -1.16421e-15 -3.86996e-16)
(0 -1.15129e-15 -3.86431e-16)
(0 -2.97529e-08 -1.29904e-09)
(0 -2.79086e-08 -1.21852e-09)
(0 -2.60487e-08 -1.13731e-09)
(0 -2.41494e-08 -1.05439e-09)
(0 -2.22238e-08 -9.70316e-10)
(0 -2.02788e-08 -8.85395e-10)
(0 -1.83114e-08 -7.99495e-10)
(0 -1.63231e-08 -7.12686e-10)
(0 -1.432e-08 -6.25227e-10)
(0 -1.22974e-08 -5.36919e-10)
(0 -1.02818e-08 -4.48914e-10)
(0 -8.24379e-09 -3.59933e-10)
(0 -6.19586e-09 -2.70518e-10)
(0 -4.13592e-09 -1.80579e-10)
(0 -2.07009e-09 -9.03828e-11)
(5.00004e-05 3.32563e-11 -1.45202e-12)
(5.00004e-05 3.32563e-11 1.45165e-12)
(5.00004e-05 1.65799e-11 7.23543e-13)
(5.00004e-05 1.65799e-11 -7.23916e-13)
(5.00004e-05 4.24828e-11 -1.85486e-12)
(5.00004e-05 4.24828e-11 1.85449e-12)
(5.00004e-05 4.60896e-11 -2.01234e-12)
(5.00004e-05 4.60896e-11 2.01197e-12)
(5.00004e-05 4.10579e-11 -1.79265e-12)
(5.00004e-05 4.10579e-11 1.79228e-12)
(5.00003e-05 2.64553e-11 -1.15508e-12)
(5.00003e-05 2.64553e-11 1.15471e-12)
(5.00003e-05 8.46169e-12 -3.69467e-13)
(5.00003e-05 8.46169e-12 3.69094e-13)
(5.00003e-05 -1.7225e-11 7.52039e-13)
(5.00003e-05 -1.7225e-11 -7.52416e-13)
(5.00004e-05 -4.60595e-11 2.01098e-12)
(5.00004e-05 -4.60595e-11 -2.01136e-12)
(5.00004e-05 -7.95288e-11 3.47228e-12)
(5.00004e-05 -7.95288e-11 -3.47266e-12)
(5.00005e-05 -1.09365e-10 4.77496e-12)
(5.00005e-05 -1.09365e-10 -4.77534e-12)
(5.00006e-05 -1.36584e-10 5.96335e-12)
(5.00006e-05 -1.36584e-10 -5.96374e-12)
(5.00008e-05 -1.46529e-10 6.39759e-12)
(5.00008e-05 -1.46529e-10 -6.39798e-12)
(5.0001e-05 -1.34174e-10 5.85815e-12)
(5.0001e-05 -1.34174e-10 -5.85854e-12)
(5.00013e-05 -1.15221e-10 5.03061e-12)
(5.00013e-05 -1.15221e-10 -5.031e-12)
(5.00017e-05 -9.81046e-11 4.28332e-12)
(5.00017e-05 -9.81046e-11 -4.2837e-12)
(5.00004e-05 1.33999e-17 -3.52322e-16)
(5.00005e-05 1.83803e-11 -8.02524e-13)
(5.00005e-05 1.83803e-11 8.02151e-13)
(5.00005e-05 9.95003e-12 4.34076e-13)
(5.00005e-05 9.95003e-12 -4.3445e-13)
(5.00005e-05 2.5606e-11 -1.11801e-12)
(5.00005e-05 2.5606e-11 1.11763e-12)
(5.00005e-05 3.01094e-11 -1.31463e-12)
(5.00005e-05 3.01094e-11 1.31425e-12)
(5.00005e-05 3.1726e-11 -1.38521e-12)
(5.00005e-05 3.1726e-11 1.38484e-12)
(5.00005e-05 3.17454e-11 -1.38606e-12)
(5.00005e-05 3.17454e-11 1.38569e-12)
(5.00005e-05 3.18977e-11 -1.39271e-12)
(5.00005e-05 3.18977e-11 1.39234e-12)
(5.00005e-05 3.40077e-11 -1.48483e-12)
(5.00005e-05 3.40077e-11 1.48446e-12)
(5.00005e-05 3.6521e-11 -1.59456e-12)
(5.00005e-05 3.6521e-11 1.59419e-12)
(5.00006e-05 4.39675e-11 -1.91968e-12)
(5.00006e-05 4.39675e-11 1.91931e-12)
(5.00007e-05 5.45483e-11 -2.38165e-12)
(5.00007e-05 5.45483e-11 2.38128e-12)
(5.00008e-05 7.34512e-11 -3.20697e-12)
(5.00008e-05 7.34512e-11 3.2066e-12)
(5.0001e-05 1.0086e-10 -4.40365e-12)
(5.0001e-05 1.0086e-10 4.40329e-12)
(5.00012e-05 1.37854e-10 -6.01887e-12)
(5.00012e-05 1.37854e-10 6.01851e-12)
(5.00014e-05 1.68479e-10 -7.35596e-12)
(5.00014e-05 1.68479e-10 7.3556e-12)
(5.00017e-05 1.84876e-10 -8.07189e-12)
(5.00017e-05 1.84876e-10 8.07154e-12)
(5.00005e-05 1.33999e-17 -3.52323e-16)
(5.00006e-05 1.88641e-11 -8.23646e-13)
(5.00006e-05 1.88641e-11 8.23273e-13)
(5.00006e-05 9.94102e-12 4.33683e-13)
(5.00006e-05 9.94102e-12 -4.34057e-13)
(5.00006e-05 2.91553e-11 -1.27297e-12)
(5.00006e-05 2.91553e-11 1.2726e-12)
(5.00006e-05 3.89817e-11 -1.702e-12)
(5.00006e-05 3.89817e-11 1.70163e-12)
(5.00006e-05 4.97689e-11 -2.17298e-12)
(5.00006e-05 4.97689e-11 2.17261e-12)
(5.00006e-05 6.28424e-11 -2.74378e-12)
(5.00006e-05 6.28424e-11 2.74341e-12)
(5.00006e-05 7.85048e-11 -3.42761e-12)
(5.00006e-05 7.85048e-11 3.42725e-12)
(5.00007e-05 9.97038e-11 -4.35318e-12)
(5.00007e-05 9.97038e-11 4.35282e-12)
(5.00007e-05 1.23522e-10 -5.39309e-12)
(5.00007e-05 1.23522e-10 5.39273e-12)
(5.00008e-05 1.54612e-10 -6.75052e-12)
(5.00008e-05 1.54612e-10 6.75016e-12)
(5.00009e-05 1.8857e-10 -8.23317e-12)
(5.00009e-05 1.8857e-10 8.23282e-12)
(5.0001e-05 2.29632e-10 -1.0026e-11)
(5.0001e-05 2.29632e-10 1.00256e-11)
(5.00011e-05 2.7249e-10 -1.18972e-11)
(5.00011e-05 2.7249e-10 1.18968e-11)
(5.00013e-05 3.16892e-10 -1.38358e-11)
(5.00013e-05 3.16892e-10 1.38355e-11)
(5.00015e-05 3.48879e-10 -1.52324e-11)
(5.00015e-05 3.48879e-10 1.52321e-11)
(5.00017e-05 3.62286e-10 -1.58178e-11)
(5.00017e-05 3.62286e-10 1.58174e-11)
(5.00006e-05 1.33999e-17 -3.52324e-16)
(5.00008e-05 2.56183e-11 -1.11854e-12)
(5.00008e-05 2.56183e-11 1.11817e-12)
(5.00008e-05 1.30318e-11 5.6863e-13)
(5.00008e-05 1.30318e-11 -5.69003e-13)
(5.00008e-05 4.07505e-11 -1.77923e-12)
(5.00008e-05 4.07505e-11 1.77886e-12)
(5.00008e-05 5.69455e-11 -2.48632e-12)
(5.00008e-05 5.69455e-11 2.48595e-12)
(5.00008e-05 7.60942e-11 -3.32237e-12)
(5.00008e-05 7.60942e-11 3.322e-12)
(5.00008e-05 9.94109e-11 -4.3404e-12)
(5.00008e-05 9.94109e-11 4.34003e-12)
(5.00008e-05 1.26599e-10 -5.52747e-12)
(5.00008e-05 1.26599e-10 5.52711e-12)
(5.00008e-05 1.60512e-10 -7.00814e-12)
(5.00008e-05 1.60512e-10 7.00779e-12)
(5.00009e-05 1.97705e-10 -8.63202e-12)
(5.00009e-05 1.97705e-10 8.63167e-12)
(5.00009e-05 2.41922e-10 -1.05625e-11)
(5.00009e-05 2.41922e-10 1.05622e-11)
(5.0001e-05 2.87748e-10 -1.25634e-11)
(5.0001e-05 2.87748e-10 1.2563e-11)
(5.00012e-05 3.37925e-10 -1.47541e-11)
(5.00012e-05 3.37925e-10 1.47538e-11)
(5.00013e-05 3.85859e-10 -1.6847e-11)
(5.00013e-05 3.85859e-10 1.68467e-11)
(5.00014e-05 4.3054e-10 -1.87978e-11)
(5.00014e-05 4.3054e-10 1.87975e-11)
(5.00016e-05 4.62421e-10 -2.01898e-11)
(5.00016e-05 4.62421e-10 2.01894e-11)
(5.00017e-05 4.78617e-10 -2.08969e-11)
(5.00017e-05 4.78617e-10 2.08966e-11)
(5.00008e-05 1.34e-17 -3.52324e-16)
(5.00009e-05 3.42544e-11 -1.4956e-12)
(5.00009e-05 3.42544e-11 1.49523e-12)
(5.00009e-05 1.71597e-11 7.48856e-13)
(5.00009e-05 1.71597e-11 -7.49229e-13)
(5.00009e-05 5.43519e-11 -2.37308e-12)
(5.00009e-05 5.43519e-11 2.37271e-12)
(5.00009e-05 7.63863e-11 -3.33512e-12)
(5.00009e-05 7.63863e-11 3.33476e-12)
(5.00009e-05 1.02216e-10 -4.46288e-12)
(5.00009e-05 1.02216e-10 4.46252e-12)
(5.0001e-05 1.3293e-10 -5.80388e-12)
(5.0001e-05 1.3293e-10 5.80352e-12)
(5.0001e-05 1.67802e-10 -7.3264e-12)
(5.0001e-05 1.67802e-10 7.32604e-12)
(5.0001e-05 2.09338e-10 -9.1399e-12)
(5.0001e-05 2.09338e-10 9.13955e-12)
(5.00011e-05 2.53953e-10 -1.10879e-11)
(5.00011e-05 2.53953e-10 1.10875e-11)
(5.00011e-05 3.04504e-10 -1.32949e-11)
(5.00011e-05 3.04504e-10 1.32946e-11)
(5.00012e-05 3.55513e-10 -1.55221e-11)
(5.00012e-05 3.55513e-10 1.55217e-11)
(5.00013e-05 4.08647e-10 -1.78419e-11)
(5.00013e-05 4.08647e-10 1.78416e-11)
(5.00014e-05 4.57466e-10 -1.99734e-11)
(5.00014e-05 4.57466e-10 1.99731e-11)
(5.00016e-05 5.01048e-10 -2.18763e-11)
(5.00016e-05 5.01048e-10 2.18759e-11)
(5.00017e-05 5.32936e-10 -2.32685e-11)
(5.00017e-05 5.32936e-10 2.32682e-11)
(5.00018e-05 5.51683e-10 -2.4087e-11)
(5.00018e-05 5.51683e-10 2.40867e-11)
(5.00009e-05 1.34e-17 -3.52325e-16)
(5.00011e-05 4.20386e-11 -1.83547e-12)
(5.00011e-05 4.20386e-11 1.8351e-12)
(5.00011e-05 2.09495e-11 9.14322e-13)
(5.00011e-05 2.09495e-11 -9.14695e-13)
(5.00011e-05 6.62253e-11 -2.89148e-12)
(5.00011e-05 6.62253e-11 2.89111e-12)
(5.00011e-05 9.27377e-11 -4.04904e-12)
(5.00011e-05 9.27377e-11 4.04867e-12)
(5.00011e-05 1.23203e-10 -5.37917e-12)
(5.00011e-05 1.23203e-10 5.37881e-12)
(5.00011e-05 1.58652e-10 -6.92692e-12)
(5.00011e-05 1.58652e-10 6.92657e-12)
(5.00012e-05 1.98017e-10 -8.64561e-12)
(5.00012e-05 1.98017e-10 8.64526e-12)
(5.00012e-05 2.43531e-10 -1.06328e-11)
(5.00012e-05 2.43531e-10 1.06325e-11)
(5.00013e-05 2.91535e-10 -1.27287e-11)
(5.00013e-05 2.91535e-10 1.27284e-11)
(5.00013e-05 3.44302e-10 -1.50326e-11)
(5.00013e-05 3.44302e-10 1.50322e-11)
(5.00014e-05 3.9659e-10 -1.73155e-11)
(5.00014e-05 3.9659e-10 1.73152e-11)
(5.00015e-05 4.49503e-10 -1.96257e-11)
(5.00015e-05 4.49503e-10 1.96254e-11)
(5.00016e-05 4.9745e-10 -2.17192e-11)
(5.00016e-05 4.9745e-10 2.17188e-11)
(5.00017e-05 5.39738e-10 -2.35655e-11)
(5.00017e-05 5.39738e-10 2.35652e-11)
(5.00018e-05 5.7237e-10 -2.49902e-11)
(5.00018e-05 5.7237e-10 2.49899e-11)
(5.00019e-05 5.94569e-10 -2.59594e-11)
(5.00019e-05 5.94569e-10 2.59591e-11)
(5.00011e-05 1.34e-17 -3.52326e-16)
(5.00012e-05 4.7258e-11 -2.06335e-12)
(5.00012e-05 4.7258e-11 2.06298e-12)
(5.00012e-05 2.35151e-11 1.02634e-12)
(5.00012e-05 2.35151e-11 -1.02671e-12)
(5.00012e-05 7.40252e-11 -3.23203e-12)
(5.00012e-05 7.40252e-11 3.23166e-12)
(5.00012e-05 1.03233e-10 -4.50729e-12)
(5.00012e-05 1.03233e-10 4.50692e-12)
(5.00013e-05 1.36226e-10 -5.94778e-12)
(5.00013e-05 1.36226e-10 5.94742e-12)
(5.00013e-05 1.7406e-10 -7.59965e-12)
(5.00013e-05 1.7406e-10 7.5993e-12)
(5.00013e-05 2.15354e-10 -9.40259e-12)
(5.00013e-05 2.15354e-10 9.40224e-12)
(5.00014e-05 2.62246e-10 -1.14499e-11)
(5.00014e-05 2.62246e-10 1.14496e-11)
(5.00014e-05 3.11034e-10 -1.35801e-11)
(5.00014e-05 3.11034e-10 1.35797e-11)
(5.00015e-05 3.63736e-10 -1.58811e-11)
(5.00015e-05 3.63736e-10 1.58807e-11)
(5.00016e-05 4.15462e-10 -1.81395e-11)
(5.00016e-05 4.15462e-10 1.81392e-11)
(5.00017e-05 4.67111e-10 -2.03945e-11)
(5.00017e-05 4.67111e-10 2.03942e-11)
(5.00017e-05 5.13979e-10 -2.24408e-11)
(5.00017e-05 5.13979e-10 2.24405e-11)
(5.00018e-05 5.55588e-10 -2.42575e-11)
(5.00018e-05 5.55588e-10 2.42572e-11)
(5.00019e-05 5.89546e-10 -2.57401e-11)
(5.00019e-05 5.89546e-10 2.57398e-11)
(5.0002e-05 6.15056e-10 -2.68539e-11)
(5.0002e-05 6.15056e-10 2.68536e-11)
(5.00012e-05 1.34001e-17 -3.52328e-16)
(5.00014e-05 4.91145e-11 -2.14441e-12)
(5.00014e-05 4.91145e-11 2.14404e-12)
(5.00014e-05 2.44275e-11 1.06618e-12)
(5.00014e-05 2.44275e-11 -1.06655e-12)
(5.00014e-05 7.66971e-11 -3.34869e-12)
(5.00014e-05 7.66971e-11 3.34832e-12)
(5.00014e-05 1.06727e-10 -4.65981e-12)
(5.00014e-05 1.06727e-10 4.65945e-12)
(5.00014e-05 1.40268e-10 -6.12427e-12)
(5.00014e-05 1.40268e-10 6.12391e-12)
(5.00015e-05 1.78493e-10 -7.7932e-12)
(5.00015e-05 1.78493e-10 7.79285e-12)
(5.00015e-05 2.19733e-10 -9.59378e-12)
(5.00015e-05 2.19733e-10 9.59343e-12)
(5.00016e-05 2.66195e-10 -1.16223e-11)
(5.00016e-05 2.66195e-10 1.1622e-11)
(5.00016e-05 3.14143e-10 -1.37158e-11)
(5.00016e-05 3.14143e-10 1.37155e-11)
(5.00017e-05 3.65562e-10 -1.59608e-11)
(5.00017e-05 3.65562e-10 1.59605e-11)
(5.00018e-05 4.15927e-10 -1.81598e-11)
(5.00018e-05 4.15927e-10 1.81594e-11)
(5.00018e-05 4.66104e-10 -2.03506e-11)
(5.00018e-05 4.66104e-10 2.03502e-11)
(5.00019e-05 5.12196e-10 -2.2363e-11)
(5.00019e-05 5.12196e-10 2.23627e-11)
(5.0002e-05 5.53814e-10 -2.418e-11)
(5.0002e-05 5.53814e-10 2.41797e-11)
(5.0002e-05 5.89639e-10 -2.57442e-11)
(5.0002e-05 5.89639e-10 2.57439e-11)
(5.00021e-05 6.18515e-10 -2.7005e-11)
(5.00021e-05 6.18515e-10 2.70046e-11)
(5.00014e-05 1.34001e-17 -3.52329e-16)
(5.00015e-05 4.72266e-11 -2.06198e-12)
(5.00015e-05 4.72266e-11 2.06161e-12)
(5.00015e-05 2.34755e-11 1.02461e-12)
(5.00015e-05 2.34755e-11 -1.02499e-12)
(5.00015e-05 7.37614e-11 -3.22051e-12)
(5.00015e-05 7.37614e-11 3.22015e-12)
(5.00016e-05 1.02762e-10 -4.48669e-12)
(5.00016e-05 1.02762e-10 4.48633e-12)
(5.00016e-05 1.35035e-10 -5.89577e-12)
(5.00016e-05 1.35035e-10 5.89541e-12)
(5.00016e-05 1.71964e-10 -7.50812e-12)
(5.00016e-05 1.71964e-10 7.50776e-12)
(5.00017e-05 2.11606e-10 -9.23894e-12)
(5.00017e-05 2.11606e-10 9.23859e-12)
(5.00017e-05 2.5638e-10 -1.11938e-11)
(5.00017e-05 2.5638e-10 1.11934e-11)
(5.00018e-05 3.0251e-10 -1.32079e-11)
(5.00018e-05 3.0251e-10 1.32076e-11)
(5.00019e-05 3.5209e-10 -1.53726e-11)
(5.00019e-05 3.5209e-10 1.53722e-11)
(5.00019e-05 4.00922e-10 -1.75047e-11)
(5.00019e-05 4.00922e-10 1.75043e-11)
(5.0002e-05 4.49899e-10 -1.9643e-11)
(5.0002e-05 4.49899e-10 1.96427e-11)
(5.0002e-05 4.9577e-10 -2.16458e-11)
(5.0002e-05 4.9577e-10 2.16455e-11)
(5.00021e-05 5.38088e-10 -2.34935e-11)
(5.00021e-05 5.38088e-10 2.34931e-11)
(5.00021e-05 5.76219e-10 -2.51583e-11)
(5.00021e-05 5.76219e-10 2.5158e-11)
(5.00022e-05 6.08435e-10 -2.65649e-11)
(5.00022e-05 6.08435e-10 2.65645e-11)
(5.00015e-05 1.34002e-17 -3.5233e-16)
(5.00017e-05 4.15176e-11 -1.81272e-12)
(5.00017e-05 4.15176e-11 1.81235e-12)
(5.00017e-05 2.06076e-11 8.99399e-13)
(5.00017e-05 2.06076e-11 -8.99771e-13)
(5.00017e-05 6.51583e-11 -2.84489e-12)
(5.00017e-05 6.51583e-11 2.84453e-12)
(5.00017e-05 9.13696e-11 -3.9893e-12)
(5.00017e-05 9.13696e-11 3.98894e-12)
(5.00018e-05 1.20725e-10 -5.27097e-12)
(5.00018e-05 1.20725e-10 5.27061e-12)
(5.00018e-05 1.54916e-10 -6.7638e-12)
(5.00018e-05 1.54916e-10 6.76344e-12)
(5.00019e-05 1.91728e-10 -8.37106e-12)
(5.00019e-05 1.91728e-10 8.37071e-12)
(5.00019e-05 2.33905e-10 -1.02125e-11)
(5.00019e-05 2.33905e-10 1.02122e-11)
(5.0002e-05 2.77613e-10 -1.21209e-11)
(5.0002e-05 2.77613e-10 1.21205e-11)
(5.0002e-05 3.25132e-10 -1.41956e-11)
(5.0002e-05 3.25132e-10 1.41952e-11)
(5.00021e-05 3.72542e-10 -1.62656e-11)
(5.00021e-05 3.72542e-10 1.62652e-11)
(5.00022e-05 4.20743e-10 -1.837e-11)
(5.00022e-05 4.20743e-10 1.83697e-11)
(5.00022e-05 4.66993e-10 -2.03894e-11)
(5.00022e-05 4.66993e-10 2.0389e-11)
(5.00023e-05 5.10647e-10 -2.22953e-11)
(5.00023e-05 5.10647e-10 2.2295e-11)
(5.00023e-05 5.51507e-10 -2.40793e-11)
(5.00023e-05 5.51507e-10 2.4079e-11)
(5.00023e-05 5.87156e-10 -2.56358e-11)
(5.00023e-05 5.87156e-10 2.56355e-11)
(5.00016e-05 1.34002e-17 -3.52331e-16)
(5.00018e-05 3.20344e-11 -1.39867e-12)
(5.00018e-05 3.20344e-11 1.3983e-12)
(5.00018e-05 1.58394e-11 6.91211e-13)
(5.00018e-05 1.58394e-11 -6.91585e-13)
(5.00018e-05 5.09887e-11 -2.22624e-12)
(5.00018e-05 5.09887e-11 2.22587e-12)
(5.00018e-05 7.27511e-11 -3.1764e-12)
(5.00018e-05 7.27511e-11 3.17603e-12)
(5.00019e-05 9.76743e-11 -4.26457e-12)
(5.00019e-05 9.76743e-11 4.26421e-12)
(5.00019e-05 1.27864e-10 -5.58269e-12)
(5.00019e-05 1.27864e-10 5.58233e-12)
(5.0002e-05 1.60818e-10 -7.0215e-12)
(5.0002e-05 1.60818e-10 7.02115e-12)
(5.00021e-05 1.997e-10 -8.71912e-12)
(5.00021e-05 1.997e-10 8.71876e-12)
(5.00021e-05 2.40596e-10 -1.05047e-11)
(5.00021e-05 2.40596e-10 1.05043e-11)
(5.00022e-05 2.86003e-10 -1.24872e-11)
(5.00022e-05 2.86003e-10 1.24868e-11)
(5.00022e-05 3.32231e-10 -1.45055e-11)
(5.00022e-05 3.32231e-10 1.45052e-11)
(5.00023e-05 3.80132e-10 -1.65969e-11)
(5.00023e-05 3.80132e-10 1.65966e-11)
(5.00024e-05 4.27366e-10 -1.86592e-11)
(5.00024e-05 4.27366e-10 1.86589e-11)
(5.00024e-05 4.72956e-10 -2.06497e-11)
(5.00024e-05 4.72956e-10 2.06494e-11)
(5.00024e-05 5.16983e-10 -2.2572e-11)
(5.00024e-05 5.16983e-10 2.25717e-11)
(5.00024e-05 5.56256e-10 -2.42867e-11)
(5.00024e-05 5.56256e-10 2.42864e-11)
(5.00018e-05 1.34002e-17 -3.52331e-16)
(5.00019e-05 1.88727e-11 -8.24022e-13)
(5.00019e-05 1.88727e-11 8.23649e-13)
(5.00019e-05 9.21439e-12 4.01957e-13)
(5.00019e-05 9.21439e-12 -4.02331e-13)
(5.00019e-05 3.14091e-11 -1.37137e-12)
(5.00019e-05 3.14091e-11 1.371e-12)
(5.0002e-05 4.71459e-11 -2.05846e-12)
(5.0002e-05 4.71459e-11 2.05809e-12)
(5.0002e-05 6.62194e-11 -2.89122e-12)
(5.0002e-05 6.62194e-11 2.89085e-12)
(5.00021e-05 9.12534e-11 -3.98423e-12)
(5.00021e-05 9.12534e-11 3.98387e-12)
(5.00021e-05 1.19435e-10 -5.21468e-12)
(5.00021e-05 1.19435e-10 5.21432e-12)
(5.00022e-05 1.54428e-10 -6.74251e-12)
(5.00022e-05 1.54428e-10 6.74215e-12)
(5.00023e-05 1.92214e-10 -8.39225e-12)
(5.00023e-05 1.92214e-10 8.3919e-12)
(5.00023e-05 2.35511e-10 -1.02827e-11)
(5.00023e-05 2.35511e-10 1.02823e-11)
(5.00024e-05 2.80831e-10 -1.22614e-11)
(5.00024e-05 2.80831e-10 1.2261e-11)
(5.00025e-05 3.28897e-10 -1.436e-11)
(5.00025e-05 3.28897e-10 1.43596e-11)
(5.00025e-05 3.77705e-10 -1.6491e-11)
(5.00025e-05 3.77705e-10 1.64907e-11)
(5.00025e-05 4.25823e-10 -1.85919e-11)
(5.00025e-05 4.25823e-10 1.85915e-11)
(5.00025e-05 4.73513e-10 -2.0674e-11)
(5.00025e-05 4.73513e-10 2.06737e-11)
(5.00026e-05 5.16741e-10 -2.25614e-11)
(5.00026e-05 5.16741e-10 2.25611e-11)
(5.00019e-05 1.34003e-17 -3.52332e-16)
(5.0002e-05 2.14052e-12 -9.34794e-14)
(5.0002e-05 2.14052e-12 9.31047e-14)
(5.0002e-05 7.84896e-13 3.39168e-14)
(5.0002e-05 7.84896e-13 -3.42917e-14)
(5.0002e-05 6.58349e-12 -2.87464e-13)
(5.0002e-05 6.58349e-12 2.8709e-13)
(5.00021e-05 1.47843e-11 -6.45519e-13)
(5.00021e-05 1.47843e-11 6.45146e-13)
(5.00021e-05 2.66529e-11 -1.16371e-12)
(5.00021e-05 2.66529e-11 1.16334e-12)
(5.00022e-05 4.5443e-11 -1.98411e-12)
(5.00022e-05 4.5443e-11 1.98374e-12)
(5.00023e-05 6.79959e-11 -2.96878e-12)
(5.00023e-05 6.79959e-11 2.96842e-12)
(5.00023e-05 9.85498e-11 -4.3028e-12)
(5.00023e-05 9.85498e-11 4.30244e-12)
(5.00024e-05 1.32957e-10 -5.80505e-12)
(5.00024e-05 1.32957e-10 5.80469e-12)
(5.00025e-05 1.74154e-10 -7.60375e-12)
(5.00025e-05 1.74154e-10 7.60339e-12)
(5.00026e-05 2.18836e-10 -9.5546e-12)
(5.00026e-05 2.18836e-10 9.55425e-12)
(5.00026e-05 2.67513e-10 -1.16799e-11)
(5.00026e-05 2.67513e-10 1.16795e-11)
(5.00027e-05 3.18484e-10 -1.39053e-11)
(5.00027e-05 3.18484e-10 1.3905e-11)
(5.00027e-05 3.69744e-10 -1.61434e-11)
(5.00027e-05 3.69744e-10 1.61431e-11)
(5.00027e-05 4.21681e-10 -1.8411e-11)
(5.00027e-05 4.21681e-10 1.84107e-11)
(5.00027e-05 4.69345e-10 -2.04921e-11)
(5.00027e-05 4.69345e-10 2.04917e-11)
(5.0002e-05 1.34003e-17 -3.52333e-16)
(5.00021e-05 -1.8071e-11 7.88975e-13)
(5.00021e-05 -1.8071e-11 -7.89352e-13)
(5.00021e-05 -9.40387e-12 -4.10936e-13)
(5.00021e-05 -9.40387e-12 4.1056e-13)
(5.00021e-05 -2.33578e-11 1.0198e-12)
(5.00021e-05 -2.33578e-11 -1.02018e-12)
(5.00022e-05 -2.41618e-11 1.0549e-12)
(5.00022e-05 -2.41618e-11 -1.05528e-12)
(5.00022e-05 -2.08244e-11 9.09191e-13)
(5.00022e-05 -2.08244e-11 -9.09568e-13)
(5.00023e-05 -9.34298e-12 4.07901e-13)
(5.00023e-05 -9.34298e-12 -4.08277e-13)
(5.00024e-05 6.73385e-12 -2.94029e-13)
(5.00024e-05 6.73385e-12 2.93655e-13)
(5.00025e-05 3.22922e-11 -1.40993e-12)
(5.00025e-05 3.22922e-11 1.40956e-12)
(5.00026e-05 6.30406e-11 -2.75243e-12)
(5.00026e-05 6.30406e-11 2.75207e-12)
(5.00026e-05 1.02114e-10 -4.45843e-12)
(5.00026e-05 1.02114e-10 4.45807e-12)
(5.00027e-05 1.46405e-10 -6.39219e-12)
(5.00027e-05 1.46405e-10 6.39183e-12)
(5.00028e-05 1.96115e-10 -8.56259e-12)
(5.00028e-05 1.96115e-10 8.56224e-12)
(5.00028e-05 2.49852e-10 -1.09088e-11)
(5.00028e-05 2.49852e-10 1.09084e-11)
(5.00029e-05 3.04918e-10 -1.3313e-11)
(5.00029e-05 3.04918e-10 1.33127e-11)
(5.00029e-05 3.618e-10 -1.57966e-11)
(5.00029e-05 3.618e-10 1.57962e-11)
(5.00029e-05 4.14554e-10 -1.80998e-11)
(5.00029e-05 4.14554e-10 1.80995e-11)
(5.0002e-05 1.34003e-17 -3.52333e-16)
(5.00021e-05 -4.16628e-11 1.81901e-12)
(5.00021e-05 -4.16628e-11 -1.81939e-12)
(5.00021e-05 -2.13014e-11 -9.30395e-13)
(5.00021e-05 -2.13014e-11 9.30018e-13)
(5.00022e-05 -5.82767e-11 2.54439e-12)
(5.00022e-05 -5.82767e-11 -2.54477e-12)
(5.00022e-05 -6.95185e-11 3.03522e-12)
(5.00022e-05 -6.95185e-11 -3.0356e-12)
(5.00023e-05 -7.60214e-11 3.31914e-12)
(5.00023e-05 -7.60214e-11 -3.31953e-12)
(5.00024e-05 -7.29043e-11 3.18305e-12)
(5.00024e-05 -7.29043e-11 -3.18343e-12)
(5.00025e-05 -6.41589e-11 2.80122e-12)
(5.00025e-05 -6.41589e-11 -2.8016e-12)
(5.00026e-05 -4.41747e-11 1.92869e-12)
(5.00026e-05 -4.41747e-11 -1.92907e-12)
(5.00027e-05 -1.73937e-11 7.59403e-13)
(5.00027e-05 -1.73937e-11 -7.5978e-13)
(5.00028e-05 1.94974e-11 -8.51297e-13)
(5.00028e-05 1.94974e-11 8.50925e-13)
(5.00029e-05 6.36222e-11 -2.77783e-12)
(5.00029e-05 6.36222e-11 2.77746e-12)
(5.00029e-05 1.14778e-10 -5.01135e-12)
(5.00029e-05 1.14778e-10 5.01098e-12)
(5.0003e-05 1.71917e-10 -7.50606e-12)
(5.0003e-05 1.71917e-10 7.50571e-12)
(5.0003e-05 2.31527e-10 -1.01087e-11)
(5.0003e-05 2.31527e-10 1.01083e-11)
(5.0003e-05 2.94192e-10 -1.28447e-11)
(5.0003e-05 2.94192e-10 1.28444e-11)
(5.0003e-05 3.52876e-10 -1.54069e-11)
(5.0003e-05 3.52876e-10 1.54066e-11)
(5.00021e-05 1.34003e-17 -3.52334e-16)
(5.00021e-05 -6.85191e-11 2.99158e-12)
(5.00021e-05 -6.85191e-11 -2.99197e-12)
(5.00021e-05 -3.48486e-11 -1.52188e-12)
(5.00021e-05 -3.48486e-11 1.5215e-12)
(5.00022e-05 -9.80164e-11 4.27947e-12)
(5.00022e-05 -9.80164e-11 -4.27985e-12)
(5.00023e-05 -1.21094e-10 5.28704e-12)
(5.00023e-05 -1.21094e-10 -5.28743e-12)
(5.00024e-05 -1.38735e-10 6.05729e-12)
(5.00024e-05 -1.38735e-10 -6.05769e-12)
(5.00024e-05 -1.45041e-10 6.33258e-12)
(5.00024e-05 -1.45041e-10 -6.33297e-12)
(5.00026e-05 -1.44504e-10 6.30914e-12)
(5.00026e-05 -1.44504e-10 -6.30954e-12)
(5.00027e-05 -1.3071e-10 5.70689e-12)
(5.00027e-05 -1.3071e-10 -5.70728e-12)
(5.00028e-05 -1.08245e-10 4.72604e-12)
(5.00028e-05 -1.08245e-10 -4.72642e-12)
(5.00029e-05 -7.36421e-11 3.21526e-12)
(5.00029e-05 -7.36421e-11 -3.21564e-12)
(5.0003e-05 -2.94799e-11 1.2871e-12)
(5.0003e-05 -2.94799e-11 -1.28748e-12)
(5.00031e-05 2.35284e-11 -1.0273e-12)
(5.00031e-05 2.35284e-11 1.02692e-12)
(5.00032e-05 8.47505e-11 -3.70031e-12)
(5.00032e-05 8.47505e-11 3.69994e-12)
(5.00032e-05 1.49732e-10 -6.53747e-12)
(5.00032e-05 1.49732e-10 6.53711e-12)
(5.00032e-05 2.19176e-10 -9.56943e-12)
(5.00032e-05 2.19176e-10 9.56908e-12)
(5.00032e-05 2.8484e-10 -1.24364e-11)
(5.00032e-05 2.8484e-10 1.24361e-11)
(5.00021e-05 1.34003e-17 -3.52334e-16)
(5.00021e-05 -9.84517e-11 4.29847e-12)
(5.00021e-05 -9.84517e-11 -4.29885e-12)
(5.00021e-05 -4.99486e-11 -2.18116e-12)
(5.00021e-05 -4.99486e-11 2.18078e-12)
(5.00022e-05 -1.42315e-10 6.2136e-12)
(5.00022e-05 -1.42315e-10 -6.214e-12)
(5.00023e-05 -1.78563e-10 7.79619e-12)
(5.00023e-05 -1.78563e-10 -7.79659e-12)
(5.00024e-05 -2.0861e-10 9.10808e-12)
(5.00024e-05 -2.0861e-10 -9.10848e-12)
(5.00025e-05 -2.2538e-10 9.84026e-12)
(5.00025e-05 -2.2538e-10 -9.84067e-12)
(5.00026e-05 -2.33939e-10 1.0214e-11)
(5.00026e-05 -2.33939e-10 -1.02144e-11)
(5.00028e-05 -2.26978e-10 9.91007e-12)
(5.00028e-05 -2.26978e-10 -9.91047e-12)
(5.00029e-05 -2.09211e-10 9.13431e-12)
(5.00029e-05 -2.09211e-10 -9.13471e-12)
(5.0003e-05 -1.77041e-10 7.72975e-12)
(5.0003e-05 -1.77041e-10 -7.73014e-12)
(5.00032e-05 -1.32652e-10 5.7917e-12)
(5.00032e-05 -1.32652e-10 -5.79209e-12)
(5.00033e-05 -7.73801e-11 3.37847e-12)
(5.00033e-05 -7.73801e-11 -3.37885e-12)
(5.00033e-05 -1.13324e-11 4.94763e-13)
(5.00033e-05 -1.13324e-11 -4.95138e-13)
(5.00034e-05 5.99525e-11 -2.61761e-12)
(5.00034e-05 5.99525e-11 2.61724e-12)
(5.00034e-05 1.37342e-10 -5.99652e-12)
(5.00034e-05 1.37342e-10 5.99616e-12)
(5.00034e-05 2.11263e-10 -9.22395e-12)
(5.00034e-05 2.11263e-10 9.22359e-12)
(5.00021e-05 1.34003e-17 -3.52333e-16)
(5.0002e-05 -1.31158e-10 5.72648e-12)
(5.0002e-05 -1.31158e-10 -5.72687e-12)
(5.0002e-05 -6.64476e-11 -2.90152e-12)
(5.0002e-05 -6.64476e-11 2.90114e-12)
(5.00021e-05 -1.90749e-10 8.32828e-12)
(5.00021e-05 -1.90749e-10 -8.32867e-12)
(5.00022e-05 -2.41394e-10 1.05395e-11)
(5.00022e-05 -2.41394e-10 -1.05399e-11)
(5.00024e-05 -2.85046e-10 1.24453e-11)
(5.00024e-05 -2.85046e-10 -1.24457e-11)
(5.00025e-05 -3.1328e-10 1.36781e-11)
(5.00025e-05 -3.1328e-10 -1.36785e-11)
(5.00026e-05 -3.31812e-10 1.44872e-11)
(5.00026e-05 -3.31812e-10 -1.44876e-11)
(5.00028e-05 -3.32346e-10 1.45105e-11)
(5.00028e-05 -3.32346e-10 -1.45109e-11)
(5.0003e-05 -3.19683e-10 1.39576e-11)
(5.0003e-05 -3.19683e-10 -1.3958e-11)
(5.00031e-05 -2.90128e-10 1.26672e-11)
(5.00031e-05 -2.90128e-10 -1.26676e-11)
(5.00033e-05 -2.45337e-10 1.07116e-11)
(5.00033e-05 -2.45337e-10 -1.0712e-11)
(5.00034e-05 -1.87386e-10 8.18141e-12)
(5.00034e-05 -1.87386e-10 -8.18181e-12)
(5.00035e-05 -1.15709e-10 5.05195e-12)
(5.00035e-05 -1.15709e-10 -5.05234e-12)
(5.00036e-05 -3.70796e-11 1.61891e-12)
(5.00036e-05 -3.70796e-11 -1.61929e-12)
(5.00036e-05 4.96105e-11 -2.16607e-12)
(5.00036e-05 4.96105e-11 2.1657e-12)
(5.00036e-05 1.33308e-10 -5.82037e-12)
(5.00036e-05 1.33308e-10 5.82001e-12)
(5.0002e-05 1.34003e-17 -3.52333e-16)
(5.00019e-05 -1.6615e-10 7.25424e-12)
(5.00019e-05 -1.6615e-10 -7.25464e-12)
(5.00019e-05 -8.40959e-11 -3.67207e-12)
(5.00019e-05 -8.40959e-11 3.67168e-12)
(5.0002e-05 -2.42621e-10 1.0593e-11)
(5.0002e-05 -2.42621e-10 -1.05934e-11)
(5.00021e-05 -3.08704e-10 1.34783e-11)
(5.00021e-05 -3.08704e-10 -1.34787e-11)
(5.00023e-05 -3.67027e-10 1.60247e-11)
(5.00023e-05 -3.67027e-10 -1.60251e-11)
(5.00025e-05 -4.07629e-10 1.77974e-11)
(5.00025e-05 -4.07629e-10 -1.77978e-11)
(5.00027e-05 -4.36961e-10 1.90781e-11)
(5.00027e-05 -4.36961e-10 -1.90785e-11)
(5.00028e-05 -4.45638e-10 1.94569e-11)
(5.00028e-05 -4.45638e-10 -1.94574e-11)
(5.0003e-05 -4.38494e-10 1.9145e-11)
(5.0003e-05 -4.38494e-10 -1.91454e-11)
(5.00032e-05 -4.11764e-10 1.7978e-11)
(5.00032e-05 -4.11764e-10 -1.79784e-11)
(5.00034e-05 -3.66404e-10 1.59975e-11)
(5.00034e-05 -3.66404e-10 -1.59979e-11)
(5.00036e-05 -3.05355e-10 1.33321e-11)
(5.00036e-05 -3.05355e-10 -1.33325e-11)
(5.00037e-05 -2.27185e-10 9.91907e-12)
(5.00037e-05 -2.27185e-10 -9.91947e-12)
(5.00038e-05 -1.4006e-10 6.11512e-12)
(5.00038e-05 -1.4006e-10 -6.11551e-12)
(5.00038e-05 -4.25221e-11 1.85653e-12)
(5.00038e-05 -4.25221e-11 -1.85691e-12)
(5.00038e-05 5.27332e-11 -2.30241e-12)
(5.00038e-05 5.27332e-11 2.30203e-12)
(5.00019e-05 1.34002e-17 -3.52332e-16)
(5.00018e-05 -2.02656e-10 8.84814e-12)
(5.00018e-05 -2.02656e-10 -8.84853e-12)
(5.00017e-05 -1.02503e-10 -4.47573e-12)
(5.00017e-05 -1.02503e-10 4.47535e-12)
(5.00019e-05 -2.96825e-10 1.29596e-11)
(5.00019e-05 -2.96825e-10 -1.296e-11)
(5.0002e-05 -3.79087e-10 1.65512e-11)
(5.0002e-05 -3.79087e-10 -1.65517e-11)
(5.00022e-05 -4.52914e-10 1.97746e-11)
(5.00022e-05 -4.52914e-10 -1.97751e-11)
(5.00024e-05 -5.06608e-10 2.2119e-11)
(5.00024e-05 -5.06608e-10 -2.21194e-11)
(5.00026e-05 -5.47455e-10 2.39024e-11)
(5.00026e-05 -5.47455e-10 -2.39028e-11)
(5.00029e-05 -5.64865e-10 2.46625e-11)
(5.00029e-05 -5.64865e-10 -2.4663e-11)
(5.00031e-05 -5.63636e-10 2.46089e-11)
(5.00031e-05 -5.63636e-10 -2.46093e-11)
(5.00033e-05 -5.39961e-10 2.35752e-11)
(5.00033e-05 -5.39961e-10 -2.35756e-11)
(5.00036e-05 -4.93876e-10 2.15631e-11)
(5.00036e-05 -4.93876e-10 -2.15635e-11)
(5.00038e-05 -4.2932e-10 1.87445e-11)
(5.00038e-05 -4.2932e-10 -1.87449e-11)
(5.00039e-05 -3.43741e-10 1.5008e-11)
(5.00039e-05 -3.43741e-10 -1.50085e-11)
(5.0004e-05 -2.46874e-10 1.07787e-11)
(5.0004e-05 -2.46874e-10 -1.07791e-11)
(5.00041e-05 -1.3675e-10 5.97062e-12)
(5.00041e-05 -1.3675e-10 -5.97101e-12)
(5.00041e-05 -2.78867e-11 1.21753e-12)
(5.00041e-05 -2.78867e-11 -1.21792e-12)
(5.00017e-05 1.34002e-17 -3.52331e-16)
(5.00015e-05 -2.3954e-10 1.04585e-11)
(5.00015e-05 -2.3954e-10 -1.04589e-11)
(5.00015e-05 -1.21091e-10 -5.28733e-12)
(5.00015e-05 -1.21091e-10 5.28694e-12)
(5.00017e-05 -3.51721e-10 1.53564e-11)
(5.00017e-05 -3.51721e-10 -1.53568e-11)
(5.00018e-05 -4.50447e-10 1.96669e-11)
(5.00018e-05 -4.50447e-10 -1.96673e-11)
(5.00021e-05 -5.40251e-10 2.35878e-11)
(5.00021e-05 -5.40251e-10 -2.35883e-11)
(5.00023e-05 -6.07475e-10 2.65229e-11)
(5.00023e-05 -6.07475e-10 -2.65234e-11)
(5.00026e-05 -6.60356e-10 2.88317e-11)
(5.00026e-05 -6.60356e-10 -2.88322e-11)
(5.00028e-05 -6.86982e-10 2.99942e-11)
(5.00028e-05 -6.86982e-10 -2.99947e-11)
(5.00031e-05 -6.92014e-10 3.02139e-11)
(5.00031e-05 -6.92014e-10 -3.02144e-11)
(5.00034e-05 -6.71632e-10 2.93241e-11)
(5.00034e-05 -6.71632e-10 -2.93245e-11)
(5.00037e-05 -6.24683e-10 2.72742e-11)
(5.00037e-05 -6.24683e-10 -2.72747e-11)
(5.00039e-05 -5.5624e-10 2.42859e-11)
(5.00039e-05 -5.5624e-10 -2.42864e-11)
(5.00041e-05 -4.6231e-10 2.01849e-11)
(5.00041e-05 -4.6231e-10 -2.01853e-11)
(5.00043e-05 -3.54377e-10 1.54724e-11)
(5.00043e-05 -3.54377e-10 -1.54728e-11)
(5.00043e-05 -2.29746e-10 1.00309e-11)
(5.00043e-05 -2.29746e-10 -1.00313e-11)
(5.00044e-05 -1.04948e-10 4.58211e-12)
(5.00044e-05 -1.04948e-10 -4.5825e-12)
(5.00014e-05 1.34001e-17 -3.52329e-16)
(5.00013e-05 -2.75141e-10 1.20129e-11)
(5.00013e-05 -2.75141e-10 -1.20133e-11)
(5.00012e-05 -1.3902e-10 -6.07013e-12)
(5.00012e-05 -1.3902e-10 6.06973e-12)
(5.00014e-05 -4.04904e-10 1.76785e-11)
(5.00014e-05 -4.04904e-10 -1.76789e-11)
(5.00016e-05 -5.19704e-10 2.26907e-11)
(5.00016e-05 -5.19704e-10 -2.26912e-11)
(5.00019e-05 -6.25403e-10 2.73056e-11)
(5.00019e-05 -6.25403e-10 -2.73061e-11)
(5.00021e-05 -7.06152e-10 3.08312e-11)
(5.00021e-05 -7.06152e-10 -3.08317e-11)
(5.00024e-05 -7.7127e-10 3.36743e-11)