/*--------------------------------*- C++ -*----------------------------------*\
| =========                 |                                                 |
| \\      /  F ield         | foam-extend: Open Source CFD                    |
|  \\    /   O peration     | Version:     4.1-20200408                       |
|   \\  /    A nd           | Web:         http://www.foam-extend.org         |
|    \\/     M anipulation  |                                                 |
\*---------------------------------------------------------------------------*/
FoamFile
{
    version     2.0;
    format      ascii;
    class       volScalarField;
    location    "0.0380000";
    object      rho;
}
// * * * * * * * * * * * * * * * * * * * * * * * * * * * * * * * * * * * * * //

dimensions      [1 -3 0 0 0 0 0];

internalField   nonuniform List<scalar> 
1952
(
7849.61
7849.12
7848.44
7847.56
7846.36
7845
7843.34
7841.38
7839.03
7835.99
7832.38
7827.2
7821.29
7813.51
7808.07
7849.81
7849.65
7849.16
7848.47
7847.58
7846.36
7845
7843.33
7841.36
7838.98
7835.93
7832.3
7827.12
7821.2
7813.42
7807.99
7849.85
7849.68
7849.18
7848.48
7847.59
7846.37
7845
7843.32
7841.35
7838.96
7835.91
7832.27
7827.08
7821.16
7813.38
7807.97
7849.87
7849.7
7849.2
7848.5
7847.6
7846.37
7845
7843.32
7841.34
7838.95
7835.89
7832.24
7827.06
7821.13
7813.35
7807.94
7849.89
7849.72
7849.22
7848.51
7847.62
7846.38
7845.01
7843.32
7841.33
7838.94
7835.87
7832.22
7827.03
7821.11
7813.32
7807.92
7849.92
7849.74
7849.23
7848.53
7847.63
7846.38
7845.01
7843.32
7841.33
7838.93
7835.86
7832.2
7827.01
7821.09
7813.29
7807.9
7849.93
7849.76
7849.25
7848.54
7847.64
7846.39
7845.02
7843.32
7841.33
7838.92
7835.85
7832.18
7827
7821.07
7813.26
7807.88
7849.96
7849.78
7849.27
7848.56
7847.65
7846.4
7845.03
7843.32
7841.33
7838.92
7835.84
7832.17
7826.98
7821.04
7813.24
7807.85
7849.98
7849.8
7849.29
7848.57
7847.66
7846.41
7845.03
7843.33
7841.33
7838.92
7835.83
7832.15
7826.96
7821.02
7813.21
7807.83
7850
7849.82
7849.31
7848.59
7847.68
7846.42
7845.04
7843.33
7841.33
7838.92
7835.83
7832.14
7826.95
7821
7813.19
7807.8
7850.02
7849.84
7849.33
7848.61
7847.69
7846.43
7845.05
7843.34
7841.34
7838.91
7835.82
7832.13
7826.93
7820.98
7813.16
7807.77
7850.04
7849.86
7849.35
7848.63
7847.7
7846.44
7845.06
7843.35
7841.34
7838.91
7835.81
7832.11
7826.92
7820.96
7813.13
7807.75
7850.06
7849.88
7849.36
7848.64
7847.72
7846.45
7845.07
7843.35
7841.34
7838.91
7835.81
7832.1
7826.9
7820.94
7813.1
7807.72
7850.08
7849.9
7849.38
7848.66
7847.73
7846.46
7845.08
7843.36
7841.34
7838.91
7835.8
7832.08
7826.89
7820.92
7813.07
7807.69
7850.1
7849.92
7849.4
7848.67
7847.75
7846.47
7845.09
7843.36
7841.35
7838.91
7835.8
7832.07
7826.87
7820.89
7813.04
7807.66
7850.13
7849.94
7849.42
7848.69
7847.76
7846.49
7845.1
7843.37
7841.35
7838.9
7835.79
7832.05
7826.85
7820.87
7813.01
7807.63
7850.15
7849.96
7849.44
7848.71
7847.77
7846.5
7845.11
7843.38
7841.35
7838.9
7835.78
7832.04
7826.83
7820.84
7812.98
7807.59
7850.17
7849.99
7849.46
7848.73
7847.79
7846.51
7845.12
7843.38
7841.35
7838.89
7835.77
7832.02
7826.81
7820.82
7812.95
7807.56
7850.19
7850.01
7849.49
7848.74
7847.8
7846.52
7845.14
7843.39
7841.36
7838.89
7835.76
7832
7826.79
7820.79
7812.92
7807.52
7850.22
7850.03
7849.51
7848.76
7847.82
7846.54
7845.15
7843.39
7841.36
7838.89
7835.75
7831.98
7826.77
7820.76
7812.88
7807.48
7850.24
7850.06
7849.53
7848.78
7847.84
7846.55
7845.16
7843.4
7841.36
7838.88
7835.74
7831.96
7826.75
7820.73
7812.84
7807.44
7850.27
7850.09
7849.56
7848.81
7847.86
7846.57
7845.17
7843.4
7841.36
7838.88
7835.73
7831.94
7826.72
7820.69
7812.8
7807.4
7850.3
7850.12
7849.59
7848.83
7847.87
7846.59
7845.18
7843.41
7841.36
7838.87
7835.72
7831.92
7826.7
7820.66
7812.76
7807.36
7850.33
7850.15
7849.62
7848.86
7847.9
7846.61
7845.2
7843.42
7841.37
7838.87
7835.71
7831.89
7826.67
7820.62
7812.71
7807.3
7850.37
7850.19
7849.65
7848.89
7847.93
7846.63
7845.22
7843.43
7841.37
7838.86
7835.69
7831.87
7826.64
7820.58
7812.66
7807.25
7850.41
7850.23
7849.69
7848.92
7847.96
7846.65
7845.24
7843.44
7841.37
7838.86
7835.68
7831.84
7826.6
7820.53
7812.6
7807.19
7850.45
7850.28
7849.74
7848.97
7847.99
7846.69
7845.26
7843.46
7841.38
7838.86
7835.67
7831.81
7826.57
7820.49
7812.54
7807.12
7850.5
7850.34
7849.8
7849.02
7848.04
7846.72
7845.29
7843.48
7841.4
7838.86
7835.65
7831.79
7826.53
7820.43
7812.48
7807.05
7850.57
7850.41
7849.87
7849.08
7848.09
7846.77
7845.33
7843.5
7841.41
7838.86
7835.64
7831.76
7826.5
7820.38
7812.41
7806.97
7850.64
7850.5
7849.94
7849.15
7848.16
7846.83
7845.38
7843.54
7841.43
7838.87
7835.63
7831.74
7826.46
7820.32
7812.34
7806.88
7850.72
7850.6
7850.04
7849.24
7848.24
7846.9
7845.44
7843.59
7841.47
7838.88
7835.63
7831.71
7826.43
7820.26
7812.26
7806.79
7850.82
7850.72
7850.16
7849.35
7848.34
7846.99
7845.52
7843.65
7841.52
7838.9
7835.64
7831.69
7826.39
7820.19
7812.18
7806.68
7850.95
7850.86
7850.3
7849.48
7848.46
7847.1
7845.62
7843.73
7841.58
7838.94
7835.65
7831.69
7826.37
7820.13
7812.09
7806.57
7851.09
7851.03
7850.46
7849.64
7848.61
7847.23
7845.74
7843.83
7841.66
7839
7835.69
7831.69
7826.34
7820.07
7812
7806.44
7851.27
7851.24
7850.67
7849.83
7848.79
7847.4
7845.89
7843.96
7841.77
7839.07
7835.74
7831.7
7826.33
7820.01
7811.91
7806.31
7851.48
7851.49
7850.91
7850.06
7849.01
7847.6
7846.08
7844.12
7841.91
7839.18
7835.81
7831.74
7826.33
7819.95
7811.81
7806.17
7851.73
7851.77
7851.2
7850.33
7849.27
7847.85
7846.31
7844.32
7842.09
7839.32
7835.92
7831.8
7826.35
7819.92
7811.73
7806.03
7852.02
7852.11
7851.53
7850.65
7849.59
7848.15
7846.6
7844.58
7842.32
7839.51
7836.07
7831.9
7826.41
7819.9
7811.66
7805.88
7852.36
7852.51
7851.93
7851.04
7849.96
7848.51
7846.94
7844.89
7842.61
7839.75
7836.28
7832.04
7826.5
7819.91
7811.6
7805.74
7852.76
7852.97
7852.39
7851.49
7850.4
7848.93
7847.35
7845.28
7842.97
7840.07
7836.55
7832.25
7826.65
7819.96
7811.58
7805.61
7853.22
7853.49
7852.91
7852.01
7850.92
7849.44
7847.85
7845.75
7843.42
7840.47
7836.91
7832.54
7826.87
7820.07
7811.6
7805.5
7853.74
7854.08
7853.51
7852.6
7851.52
7850.03
7848.43
7846.32
7843.96
7840.98
7837.37
7832.93
7827.19
7820.27
7811.68
7805.43
7854.33
7854.74
7854.18
7853.27
7852.19
7850.71
7849.12
7847
7844.63
7841.62
7837.97
7833.45
7827.64
7820.57
7811.87
7805.41
7854.99
7855.46
7854.91
7854.01
7852.96
7851.49
7849.91
7847.8
7845.44
7842.41
7838.73
7834.15
7828.27
7821.03
7812.18
7805.48
7855.71
7856.22
7855.71
7854.82
7853.8
7852.36
7850.82
7848.74
7846.4
7843.38
7839.69
7835.06
7829.12
7821.71
7812.69
7805.67
7856.47
7857.03
7856.54
7855.69
7854.71
7853.33
7851.83
7849.82
7847.53
7844.56
7840.89
7836.26
7830.26
7822.69
7813.47
7806.02
7857.26
7857.83
7857.38
7856.57
7855.66
7854.36
7852.95
7851.04
7848.84
7845.97
7842.38
7837.79
7831.82
7824.11
7814.69
7806.65
7858.06
7858.6
7858.19
7857.45
7856.62
7855.43
7854.14
7852.38
7850.32
7847.63
7844.19
7839.76
7833.9
7826.18
7816.7
7808.11
7858.81
7859.27
7858.93
7858.26
7857.54
7856.49
7855.36
7853.8
7851.95
7849.52
7846.34
7842.22
7836.68
7829.27
7820.19
7811.84
7859.46
7859.79
7859.51
7858.94
7858.35
7857.48
7856.54
7855.25
7853.67
7851.6
7848.77
7845.13
7840.08
7833.28
7825.06
7817.73
7859.95
7860.06
7859.86
7859.41
7858.97
7858.3
7857.6
7856.62
7855.36
7853.73
7851.34
7848.31
7843.86
7837.82
7830.5
7824.07
7860.2
7860
7859.89
7859.55
7859.29
7858.85
7858.41
7857.78
7856.91
7855.8
7853.92
7851.61
7847.85
7842.71
7836.34
7830.71
7860.11
7859.49
7859.47
7859.27
7859.19
7859
7858.85
7858.6
7858.15
7857.61
7856.32
7854.85
7851.84
7847.84
7842.45
7837.59
7859.57
7858.43
7858.5
7858.43
7858.55
7858.6
7858.75
7858.91
7858.9
7858.98
7858.32
7857.81
7855.63
7853.05
7848.62
7844.85
7858.47
7856.67
7856.84
7856.92
7857.23
7857.53
7857.99
7858.54
7859
7859.69
7859.71
7860.19
7858.89
7858.05
7854.77
7852.6
7856.69
7854.15
7854.42
7854.63
7855.11
7855.62
7856.32
7857.17
7858.02
7859.26
7859.99
7861.52
7861.39
7862.41
7860.71
7860.87
7854.14
7850.56
7850.9
7851.24
7851.92
7852.67
7853.67
7854.9
7856.18
7858
7859.45
7861.98
7863.06
7865.86
7866.06
7869.34
7850.52
7846.16
7846.64
7847.19
7848.17
7849.32
7850.79
7852.55
7854.45
7856.92
7859.08
7862.43
7864.58
7868.94
7870.87
7877.4
7846.07
7842.16
7842.84
7843.68
7845
7846.56
7848.51
7850.8
7853.28
7856.36
7859.22
7863.26
7866.27
7871.77
7874.98
7883.97
7841.99
7839.21
7840.08
7841.19
7842.82
7844.73
7847.06
7849.74
7852.67
7856.18
7859.57
7864.1
7867.76
7873.96
7878
7888.19
7838.95
7837.44
7838.42
7839.7
7841.54
7843.69
7846.28
7849.24
7852.49
7856.26
7860.02
7864.81
7868.9
7875.37
7879.86
7890.27
7837.11
7836.85
7837.87
7839.25
7841.18
7843.45
7846.19
7849.26
7852.69
7856.56
7860.51
7865.33
7869.61
7875.94
7880.55
7890.45
7836.48
7837.39
7838.4
7839.78
7841.71
7843.98
7846.74
7849.8
7853.25
7857.05
7861.04
7865.66
7869.92
7875.76
7880.17
7888.97
7837
7838.99
7839.93
7841.24
7843.09
7845.25
7847.91
7850.83
7854.18
7857.77
7861.62
7865.85
7869.88
7874.93
7878.86
7886.1
7838.61
7841.54
7842.39
7843.57
7845.26
7847.22
7849.69
7852.35
7855.48
7858.73
7862.3
7865.97
7869.57
7873.58
7876.76
7882.06
7841.2
7844.93
7845.67
7846.69
7848.16
7849.86
7852.04
7854.37
7857.17
7859.97
7863.13
7866.09
7869.08
7871.82
7874.02
7877.11
7844.63
7848.96
7849.61
7850.46
7851.72
7853.13
7854.98
7856.9
7859.28
7861.54
7864.17
7866.29
7868.49
7869.76
7870.77
7871.56
7848.71
7853.45
7854.02
7854.75
7855.82
7856.97
7858.49
7859.99
7861.91
7863.55
7865.53
7866.69
7867.89
7867.53
7867.17
7865.68
7853.23
7858.21
7858.73
7859.35
7860.3
7861.25
7862.51
7863.63
7865.08
7866.08
7867.31
7867.4
7867.41
7865.26
7863.43
7859.83
7858.01
7863.04
7863.5
7864.03
7864.86
7865.66
7866.75
7867.61
7868.67
7869.09
7869.58
7868.57
7867.25
7863.23
7859.9
7854.43
7862.86
7867.74
7868.16
7868.61
7869.34
7870.06
7871.12
7871.92
7872.79
7872.81
7872.61
7870.47
7867.69
7861.83
7857.1
7850.09
7867.58
7872.8
7873.23
7873.68
7874.35
7874.97
7875.72
7875.99
7876.05
7875.06
7873.61
7870.24
7866.42
7860
7855.03
7847.21
7872.63
7876.76
7877
7877.16
7877.31
7877.14
7876.76
7875.8
7874.53
7872.34
7869.84
7866.07
7862.42
7856.96
7852.81
7845.68
7876.65
7875.88
7875.71
7875.33
7874.8
7873.89
7872.75
7871.19
7869.44
7867.05
7864.53
7861.18
7858.08
7853.75
7850.22
7844.74
7875.93
7871.72
7871.38
7870.8
7870.04
7869
7867.88
7866.48
7864.88
7862.75
7860.47
7857.5
7854.6
7850.86
7847.55
7843.47
7871.84
7867.55
7867.25
7866.75
7866.06
7865.13
7864.02
7862.6
7861.01
7859
7856.88
7854.24
7851.66
7848.46
7845.46
7841.92
7867.66
7863.9
7863.56
7863.06
7862.36
7861.46
7860.4
7859.09
7857.62
7855.81
7853.9
7851.56
7849.26
7846.47
7843.85
7840.7
7864.02
7860.56
7860.24
7859.77
7859.12
7858.29
7857.29
7856.07
7854.71
7853.07
7851.35
7849.29
7847.26
7844.85
7842.58
7839.88
7860.67
7857.58
7857.26
7856.83
7856.21
7855.45
7854.53
7853.42
7852.19
7850.72
7849.19
7847.39
7845.61
7843.53
7841.58
7839.26
7857.68
7854.92
7854.62
7854.22
7853.65
7852.96
7852.12
7851.12
7850.01
7848.71
7847.36
7845.79
7844.24
7842.45
7840.78
7838.82
7855.01
7852.55
7852.27
7851.91
7851.39
7850.76
7850
7849.11
7848.12
7846.98
7845.79
7844.43
7843.09
7841.55
7840.14
7838.47
7852.63
7850.44
7850.19
7849.87
7849.39
7848.84
7848.16
7847.37
7846.49
7845.49
7844.45
7843.27
7842.12
7840.81
7839.61
7838.2
7850.52
7848.58
7848.35
7848.06
7847.64
7847.15
7846.54
7845.85
7845.08
7844.21
7843.3
7842.29
7841.3
7840.18
7839.17
7837.97
7848.65
7846.94
7846.72
7846.48
7846.1
7845.66
7845.13
7844.52
7843.85
7843.09
7842.31
7841.44
7840.59
7839.65
7838.79
7837.78
7847
7845.49
7845.29
7845.07
7844.74
7844.36
7843.89
7843.36
7842.77
7842.12
7841.45
7840.7
7839.98
7839.18
7838.45
7837.6
7845.54
7844.2
7844.03
7843.84
7843.54
7843.21
7842.8
7842.34
7841.84
7841.27
7840.69
7840.06
7839.45
7838.77
7838.16
7837.43
7844.25
7843.07
7842.91
7842.75
7842.49
7842.2
7841.84
7841.45
7841.01
7840.53
7840.03
7839.49
7838.97
7838.4
7837.88
7837.27
7843.11
7842.06
7841.93
7841.78
7841.56
7841.31
7841
7840.66
7840.28
7839.87
7839.44
7838.98
7838.54
7838.06
7837.62
7837.1
7842.1
7841.17
7841.05
7840.93
7840.73
7840.52
7840.25
7839.96
7839.63
7839.28
7838.92
7838.53
7838.15
7837.74
7837.38
7836.93
7841.2
7840.38
7840.27
7840.17
7840
7839.81
7839.58
7839.33
7839.05
7838.75
7838.44
7838.11
7837.79
7837.45
7837.14
7836.76
7840.41
7839.67
7839.58
7839.49
7839.34
7839.18
7838.98
7838.77
7838.53
7838.27
7838.01
7837.73
7837.46
7837.17
7836.91
7836.58
7839.69
7839.04
7838.96
7838.88
7838.75
7838.62
7838.45
7838.26
7838.06
7837.84
7837.62
7837.38
7837.15
7836.9
7836.68
7836.39
7839.06
7838.47
7838.4
7838.33
7838.22
7838.11
7837.96
7837.8
7837.63
7837.44
7837.25
7837.05
7836.86
7836.65
7836.45
7836.2
7838.49
7837.96
7837.9
7837.84
7837.74
7837.65
7837.52
7837.39
7837.24
7837.08
7836.91
7836.74
7836.58
7836.4
7836.23
7836.01
7837.97
7837.49
7837.44
7837.39
7837.31
7837.22
7837.12
7837
7836.87
7836.74
7836.6
7836.45
7836.31
7836.16
7836.01
7835.81
7837.51
7837.07
7837.02
7836.98
7836.91
7836.84
7836.74
7836.65
7836.54
7836.42
7836.3
7836.17
7836.05
7835.92
7835.79
7835.62
7837.08
7836.68
7836.64
7836.61
7836.55
7836.48
7836.4
7836.32
7836.22
7836.12
7836.02
7835.91
7835.81
7835.69
7835.58
7835.42
7836.69
7836.33
7836.29
7836.26
7836.21
7836.15
7836.09
7836.01
7835.93
7835.84
7835.76
7835.66
7835.57
7835.47
7835.37
7835.22
7836.34
7836
7835.97
7835.94
7835.9
7835.85
7835.79
7835.73
7835.65
7835.58
7835.5
7835.42
7835.34
7835.25
7835.16
7835.02
7836.01
7835.7
7835.67
7835.65
7835.61
7835.57
7835.51
7835.46
7835.39
7835.33
7835.26
7835.19
7835.12
7835.04
7834.96
7834.83
7835.7
7835.41
7835.39
7835.37
7835.34
7835.3
7835.25
7835.2
7835.15
7835.09
7835.03
7834.97
7834.9
7834.83
7834.75
7834.63
7835.42
7835.15
7835.13
7835.11
7835.08
7835.05
7835.01
7834.96
7834.92
7834.86
7834.81
7834.75
7834.7
7834.63
7834.56
7834.44
7835.16
7834.91
7834.89
7834.87
7834.84
7834.81
7834.78
7834.74
7834.69
7834.65
7834.6
7834.55
7834.5
7834.44
7834.37
7834.26
7834.91
7834.68
7834.66
7834.64
7834.62
7834.59
7834.56
7834.52
7834.48
7834.44
7834.4
7834.35
7834.3
7834.25
7834.18
7834.07
7834.68
7834.46
7834.44
7834.43
7834.41
7834.38
7834.35
7834.32
7834.28
7834.24
7834.2
7834.16
7834.11
7834.06
7834
7833.89
7834.46
7834.26
7834.24
7834.23
7834.21
7834.19
7834.16
7834.13
7834.09
7834.06
7834.02
7833.98
7833.93
7833.88
7833.82
7833.72
7834.26
7834.07
7834.05
7834.04
7834.02
7834
7833.97
7833.94
7833.91
7833.88
7833.84
7833.8
7833.76
7833.71
7833.65
7833.54
7834.07
7833.89
7833.88
7833.87
7833.85
7833.83
7833.8
7833.77
7833.74
7833.71
7833.67
7833.63
7833.59
7833.54
7833.48
7833.38
7833.89
7833.72
7833.71
7833.7
7833.68
7833.66
7833.64
7833.61
7833.58
7833.54
7833.51
7833.47
7833.43
7833.38
7833.31
7833.21
7833.73
7833.57
7833.56
7833.54
7833.53
7833.51
7833.48
7833.45
7833.42
7833.39
7833.35
7833.31
7833.27
7833.22
7833.16
7833.05
7833.57
7833.42
7833.41
7833.4
7833.38
7833.36
7833.34
7833.31
7833.28
7833.24
7833.21
7833.16
7833.12
7833.07
7833
7832.9
7833.42
7833.29
7833.28
7833.27
7833.25
7833.23
7833.2
7833.18
7833.14
7833.11
7833.07
7833.03
7832.98
7832.93
7832.86
7832.75
7833.29
7833.16
7833.16
7833.14
7833.13
7833.11
7833.08
7833.05
7833.02
7832.98
7832.94
7832.9
7832.85
7832.79
7832.72
7832.6
7833.17
7833.05
7833.04
7833.03
7833.01
7832.99
7832.97
7832.94
7832.9
7832.87
7832.82
7832.78
7832.72
7832.66
7832.58
7832.46
7833.06
7832.95
7832.94
7832.93
7832.91
7832.89
7832.87
7832.84
7832.8
7832.76
7832.72
7832.67
7832.61
7832.54
7832.46
7832.33
7832.95
7832.86
7832.85
7832.84
7832.82
7832.8
7832.78
7832.75
7832.71
7832.67
7832.62
7832.57
7832.51
7832.43
7832.34
7832.2
7832.86
7832.78
7832.77
7832.76
7832.74
7832.72
7832.7
7832.67
7832.63
7832.59
7832.54
7832.49
7832.42
7832.34
7832.24
7832.09
7832.78
7832.71
7832.7
7832.69
7832.68
7832.66
7832.63
7832.6
7832.57
7832.53
7832.48
7832.42
7832.35
7832.27
7832.15
7831.98
7832.72
7832.65
7832.65
7832.64
7832.62
7832.6
7832.58
7832.55
7832.52
7832.47
7832.43
7832.37
7832.3
7832.21
7832.09
7831.9
7832.66
7832.61
7832.6
7832.59
7832.58
7832.56
7832.54
7832.51
7832.48
7832.44
7832.39
7832.34
7832.27
7832.19
7832.06
7831.85
7832.61
7832.56
7832.56
7832.55
7832.54
7832.52
7832.5
7832.48
7832.45
7832.42
7832.38
7832.33
7832.28
7832.21
7832.12
7831.97
7832.57
7832.55
7832.54
7832.53
7832.52
7832.51
7832.49
7832.47
7832.44
7832.41
7832.38
7832.34
7832.3
7832.25
7832.19
7832.08
7832.55
)
;

boundaryField
{
    wireUpstream
    {
        type            calculated;
        value           nonuniform List<scalar> 
16
(
7832.52
7832.52
7832.51
7832.5
7832.49
7832.47
7832.45
7832.43
7832.41
7832.38
7832.35
7832.31
7832.28
7832.25
7832.23
7832.53
)
;
    }
    wireDownstream
    {
        type            calculated;
        value           nonuniform List<scalar> 
16
(
7849.61
7849.12
7848.44
7847.55
7846.36
7844.99
7843.34
7841.38
7839.03
7835.99
7832.38
7827.21
7821.3
7813.55
7808.16
7849.8
)
;
    }
    wireTopContact
    {
        type            calculated;
        value           nonuniform List<scalar> 
122
(
7807.61
7807.58
7807.56
7807.54
7807.51
7807.49
7807.46
7807.44
7807.41
7807.38
7807.36
7807.33
7807.3
7807.27
7807.23
7807.2
7807.17
7807.13
7807.09
7807.05
7807.01
7806.96
7806.91
7806.86
7806.8
7806.73
7806.66
7806.58
7806.49
7806.39
7806.29
7806.17
7806.05
7805.92
7805.78
7805.64
7805.5
7805.37
7805.24
7805.14
7805.09
7805.09
7805.18
7805.41
7805.83
7806.56
7807.97
7811.73
7817.82
7824.25
7831.02
7837.97
7845.1
7852.55
7860.5
7868.73
7876.75
7883.31
7887.44
7889.49
7889.71
7888.31
7885.52
7881.58
7876.75
7871.32
7865.62
7860.01
7854.93
7850.87
7848.17
7846.53
7844.97
7843.37
7841.89
7840.69
7839.86
7839.23
7838.77
7838.42
7838.14
7837.92
7837.72
7837.55
7837.38
7837.22
7837.06
7836.89
7836.72
7836.54
7836.36
7836.17
7835.98
7835.79
7835.59
7835.4
7835.2
7835.01
7834.81
7834.62
7834.43
7834.24
7834.06
7833.88
7833.71
7833.54
7833.37
7833.2
7833.04
7832.89
7832.74
7832.59
7832.46
7832.32
7832.2
7832.08
7831.98
7831.9
7831.85
7831.95
7832.03
7807.68
)
;
    }
    front
    {
        type            wedge;
    }
    back
    {
        type            wedge;
    }
}


// ************************************************************************* //
