/*--------------------------------*- C++ -*----------------------------------*\
| =========                 |                                                 |
| \\      /  F ield         | OpenFOAM: The Open Source CFD Toolbox           |
|  \\    /   O peration     | Version:  4.1                                   |
|   \\  /    A nd           | Web:      www.OpenFOAM.org                      |
|    \\/     M anipulation  |                                                 |
\*---------------------------------------------------------------------------*/
FoamFile
{
    version     2.0;
    format      ascii;
    class       pointVectorField;
    location    "0.0049";
    object      pointDisplacement_Next;
}
// * * * * * * * * * * * * * * * * * * * * * * * * * * * * * * * * * * * * * //

dimensions      [0 1 0 0 0 0 0];

internalField   uniform (0 0 0);

boundaryField
{
    inlet
    {
        type            fixedValue;
        value           nonuniform 0();
    }
    outlet
    {
        type            fixedValue;
        value           uniform (0 0 0);
    }
    mantle
    {
        type            fixedValue;
        value           nonuniform List<vector> 
416
(
(-5.75e-05 -5.6465e-06 4.1538e-10)
(-5.445e-05 -4.3563e-06 2.817e-10)
(-5.4441e-05 -4.274e-06 8.4645e-07)
(-5.7497e-05 -5.5424e-06 1.0958e-06)
(-5.4432e-05 -4.0401e-06 1.6713e-06)
(-5.7496e-05 -5.2418e-06 2.1678e-06)
(-5.4431e-05 -3.663e-06 2.4498e-06)
(-5.7488e-05 -4.7527e-06 3.181e-06)
(-5.4435e-05 -3.1305e-06 3.1313e-06)
(-5.7488e-05 -4.0634e-06 4.0644e-06)
(-5.4431e-05 -2.4488e-06 3.6638e-06)
(-5.7488e-05 -3.1801e-06 4.7536e-06)
(-5.4432e-05 -1.6703e-06 4.0408e-06)
(-5.7496e-05 -2.1669e-06 5.2426e-06)
(-5.4441e-05 -8.455e-07 4.2746e-06)
(-5.7497e-05 -1.0949e-06 5.5431e-06)
(-5.445e-05 5.684e-10 4.3568e-06)
(-5.75e-05 4.3652e-10 5.6471e-06)
(-5.1121e-05 -3.2559e-06 3.3797e-10)
(-5.1115e-05 -3.1888e-06 6.3467e-07)
(-5.11e-05 -3.0053e-06 1.2473e-06)
(-5.1108e-05 -2.7334e-06 1.825e-06)
(-5.1107e-05 -2.3336e-06 2.3346e-06)
(-5.1108e-05 -1.824e-06 2.7343e-06)
(-5.11e-05 -1.2463e-06 3.006e-06)
(-5.1115e-05 -6.3372e-07 3.1893e-06)
(-5.1122e-05 4.9648e-10 3.2562e-06)
(-4.7497e-05 -2.1435e-06 9.3149e-10)
(-4.7498e-05 -2.0926e-06 3.969e-07)
(-4.75e-05 -1.9525e-06 8.0959e-07)
(-4.7492e-05 -1.772e-06 1.2085e-06)
(-4.7487e-05 -1.5305e-06 1.5305e-06)
(-4.7492e-05 -1.2075e-06 1.7728e-06)
(-4.75e-05 -8.0859e-07 1.9531e-06)
(-4.7498e-05 -3.9597e-07 2.093e-06)
(-4.7497e-05 -1.2788e-10 2.1437e-06)
(-4.3681e-05 -9.4698e-07 2.3135e-10)
(-4.3682e-05 -8.7827e-07 1.2371e-07)
(-4.3678e-05 -7.4964e-07 3.1113e-07)
(-4.3679e-05 -7.1125e-07 5.3636e-07)
(-4.3677e-05 -6.7242e-07 6.7329e-07)
(-4.3679e-05 -5.3541e-07 7.1199e-07)
(-4.3678e-05 -3.1016e-07 7.5022e-07)
(-4.3682e-05 -1.2281e-07 8.7865e-07)
(-4.3681e-05 5.2645e-10 9.4718e-07)
(-3.9762e-05 4.5416e-07 1.7345e-10)
(-3.971e-05 6.4106e-07 -2.4173e-07)
(-3.966e-05 8.1163e-07 -3.3544e-07)
(-3.971e-05 6.2395e-07 -2.8092e-07)
(-3.9762e-05 3.2072e-07 -3.1991e-07)
(-3.971e-05 2.8181e-07 -6.2327e-07)
(-3.966e-05 3.3634e-07 -8.1111e-07)
(-3.971e-05 2.4256e-07 -6.4073e-07)
(-3.9762e-05 5.2213e-10 -4.54e-07)
(-3.5617e-05 2.5329e-06 1.1859e-10)
(-3.5509e-05 2.8052e-06 -6.7884e-07)
(-3.5422e-05 2.9017e-06 -1.2006e-06)
(-3.551e-05 2.463e-06 -1.5008e-06)
(-3.5618e-05 1.7891e-06 -1.7884e-06)
(-3.551e-05 1.5016e-06 -2.4624e-06)
(-3.5422e-05 1.2014e-06 -2.9013e-06)
(-3.5509e-05 6.7958e-07 -2.8049e-06)
(-3.5617e-05 4.9118e-10 -2.5328e-06)
(-3.139e-05 4.7958e-06 7.4401e-11)
(-3.1372e-05 4.7037e-06 -9.6722e-07)
(-3.1341e-05 4.466e-06 -1.8479e-06)
(-3.1371e-05 4.0089e-06 -2.6386e-06)
(-3.1389e-05 3.3886e-06 -3.388e-06)
(-3.1371e-05 2.6393e-06 -4.0084e-06)
(-3.1341e-05 1.8485e-06 -4.4656e-06)
(-3.1372e-05 9.6785e-07 -4.7035e-06)
(-3.139e-05 4.2965e-10 -4.7958e-06)
(-2.8096e-05 3.5246e-06 4.0523e-11)
(-2.8147e-05 3.195e-06 -6.3677e-07)
(-2.812e-05 2.9584e-06 -1.2244e-06)
(-2.8146e-05 2.7092e-06 -1.807e-06)
(-2.8094e-05 2.4912e-06 -2.4907e-06)
(-2.8145e-05 1.8076e-06 -2.7088e-06)
(-2.812e-05 1.225e-06 -2.9582e-06)
(-2.8147e-05 6.3729e-07 -3.1949e-06)
(-2.8096e-05 3.6099e-10 -3.5248e-06)
(-2.5725e-05 -3.0096e-06 1.9631e-11)
(-2.555e-05 -2.6554e-06 3.3663e-07)
(-2.5385e-05 -2.1562e-06 8.9295e-07)
(-2.5549e-05 -2.1144e-06 1.6385e-06)
(-2.5723e-05 -2.1261e-06 2.1265e-06)
(-2.5549e-05 -1.6381e-06 2.1147e-06)
(-2.5385e-05 -8.925e-07 2.1563e-06)
(-2.555e-05 -3.3622e-07 2.6553e-06)
(-2.5725e-05 2.9661e-10 3.0094e-06)
(-2.1245e-05 -8.4919e-06 4.5588e-12)
(-2.0849e-05 -7.4619e-06 1.1246e-06)
(-2.0545e-05 -6.2852e-06 2.6024e-06)
(-2.0849e-05 -6.0693e-06 4.478e-06)
(-2.1244e-05 -6.0006e-06 6.0008e-06)
(-2.0849e-05 -4.4777e-06 6.0694e-06)
(-2.0544e-05 -2.6021e-06 6.2852e-06)
(-2.0849e-05 -1.1243e-06 7.4617e-06)
(-2.1245e-05 2.2105e-10 8.4915e-06)
(-1.2109e-05 -6.6039e-06 -9.8973e-12)
(-1.1935e-05 -6.0691e-06 9.6657e-07)
(-1.1763e-05 -5.2719e-06 2.1829e-06)
(-1.1934e-05 -4.9734e-06 3.6057e-06)
(-1.2109e-05 -4.667e-06 4.6671e-06)
(-1.1934e-05 -3.6056e-06 4.9735e-06)
(-1.1763e-05 -2.1828e-06 5.2719e-06)
(-1.1934e-05 -9.6644e-07 6.0689e-06)
(-1.2109e-05 1.146e-10 6.6037e-06)
(-4.8355e-12 -2.6902e-12 -1.0691e-17)
(-1.962e-08 -5.1806e-08 -4.0627e-08)
(-5.7668e-12 -5.2053e-12 1.9771e-12)
(-1.9617e-08 -7.804e-09 6.531e-08)
(-3.4172e-12 1.1963e-12 -1.1961e-12)
(-1.9618e-08 -6.5309e-08 7.8063e-09)
(-5.7668e-12 -1.9771e-12 5.2053e-12)
(-1.9619e-08 4.0628e-08 5.1803e-08)
(-4.8355e-12 4.1818e-17 2.6901e-12)
(-5.4441e-05 8.4637e-07 4.2743e-06)
(-5.7497e-05 1.0957e-06 5.5428e-06)
(-5.4432e-05 1.671e-06 4.0404e-06)
(-5.7496e-05 2.1675e-06 5.2421e-06)
(-5.4431e-05 2.4493e-06 3.6632e-06)
(-5.7488e-05 3.1805e-06 4.753e-06)
(-5.4436e-05 3.1308e-06 3.1307e-06)
(-5.7488e-05 4.0636e-06 4.0637e-06)
(-5.4431e-05 3.6629e-06 2.4492e-06)
(-5.7488e-05 4.7527e-06 3.1805e-06)
(-5.4432e-05 4.0398e-06 1.6708e-06)
(-5.7496e-05 5.2415e-06 2.1674e-06)
(-5.4441e-05 4.2736e-06 8.4621e-07)
(-5.7497e-05 5.5419e-06 1.0956e-06)
(-5.445e-05 4.3558e-06 5.1671e-10)
(-5.75e-05 5.646e-06 4.6932e-10)
(-5.1116e-05 6.3466e-07 3.1891e-06)
(-5.11e-05 1.2471e-06 3.0055e-06)
(-5.1108e-05 1.8246e-06 2.7337e-06)
(-5.1107e-05 2.334e-06 2.334e-06)
(-5.1108e-05 2.7335e-06 1.8244e-06)
(-5.11e-05 3.0052e-06 1.2469e-06)
(-5.1116e-05 3.1885e-06 6.3444e-07)
(-5.1122e-05 3.2556e-06 3.537e-10)
(-4.7498e-05 3.9696e-07 2.0928e-06)
(-4.75e-05 8.0947e-07 1.9527e-06)
(-4.7492e-05 1.2082e-06 1.7724e-06)
(-4.7487e-05 1.531e-06 1.53e-06)
(-4.7492e-05 1.7723e-06 1.208e-06)
(-4.75e-05 1.9526e-06 8.0921e-07)
(-4.7498e-05 2.0925e-06 3.967e-07)
(-4.7497e-05 2.1434e-06 9.379e-10)
(-4.3682e-05 1.2384e-07 8.7849e-07)
(-4.3678e-05 3.111e-07 7.4993e-07)
(-4.3679e-05 5.3623e-07 7.1162e-07)
(-4.3677e-05 6.7308e-07 6.7289e-07)
(-4.3679e-05 7.1174e-07 5.3597e-07)
(-4.3678e-05 7.4997e-07 3.1082e-07)
(-4.3682e-05 8.7848e-07 1.2354e-07)
(-4.3681e-05 9.4715e-07 2.3228e-10)
(-3.971e-05 -2.4154e-07 -6.4086e-07)
(-3.966e-05 -3.3539e-07 -8.1134e-07)
(-3.971e-05 -2.8095e-07 -6.2357e-07)
(-3.9762e-05 -3.1998e-07 -3.2023e-07)
(-3.971e-05 -6.2334e-07 -2.8122e-07)
(-3.966e-05 -8.1113e-07 -3.3568e-07)
(-3.971e-05 -6.4065e-07 -2.4186e-07)
(-3.9762e-05 -4.5377e-07 1.7004e-10)
(-3.5509e-05 -6.7863e-07 -2.805e-06)
(-3.5422e-05 -1.2005e-06 -2.9015e-06)
(-3.5509e-05 -1.5007e-06 -2.4626e-06)
(-3.5618e-05 -1.7884e-06 -1.7886e-06)
(-3.5509e-05 -2.4623e-06 -1.501e-06)
(-3.5422e-05 -2.9011e-06 -1.2008e-06)
(-3.5509e-05 -2.8047e-06 -6.7894e-07)
(-3.5617e-05 -2.5324e-06 1.1183e-10)
(-3.1372e-05 -9.6701e-07 -4.7036e-06)
(-3.1341e-05 -1.8478e-06 -4.4658e-06)
(-3.1371e-05 -2.6386e-06 -4.0086e-06)
(-3.1389e-05 -3.3879e-06 -3.3882e-06)
(-3.1371e-05 -4.0083e-06 -2.6388e-06)
(-3.1341e-05 -4.4654e-06 -1.848e-06)
(-3.1372e-05 -4.7031e-06 -9.6729e-07)
(-3.139e-05 -4.7953e-06 6.4879e-11)
(-2.8147e-05 -6.3659e-07 -3.195e-06)
(-2.812e-05 -1.2243e-06 -2.9583e-06)
(-2.8145e-05 -1.807e-06 -2.709e-06)
(-2.8094e-05 -2.4906e-06 -2.4909e-06)
(-2.8145e-05 -2.7086e-06 -1.8072e-06)
(-2.812e-05 -2.9579e-06 -1.2245e-06)
(-2.8147e-05 -3.1945e-06 -6.3682e-07)
(-2.8096e-05 -3.5242e-06 3.1635e-11)
(-2.555e-05 3.3679e-07 2.6553e-06)
(-2.5385e-05 8.9302e-07 2.1562e-06)
(-2.5549e-05 1.6386e-06 2.1145e-06)
(-2.5723e-05 2.1266e-06 2.1263e-06)
(-2.5549e-05 2.1148e-06 1.6384e-06)
(-2.5385e-05 2.1566e-06 8.9286e-07)
(-2.555e-05 2.6557e-06 3.3659e-07)
(-2.5725e-05 3.0099e-06 1.4535e-11)
(-2.0849e-05 1.1247e-06 7.4616e-06)
(-2.0544e-05 2.6025e-06 6.2851e-06)
(-2.0849e-05 4.478e-06 6.0693e-06)
(-2.1244e-05 6.0009e-06 6.0007e-06)
(-2.0849e-05 6.0695e-06 4.4779e-06)
(-2.0544e-05 6.2854e-06 2.6023e-06)
(-2.0849e-05 7.462e-06 1.1246e-06)
(-2.1245e-05 8.492e-06 3.9462e-12)
(-1.1934e-05 9.6665e-07 6.0689e-06)
(-1.1762e-05 2.183e-06 5.2718e-06)
(-1.1934e-05 3.6058e-06 4.9734e-06)
(-1.2109e-05 4.6672e-06 4.6671e-06)
(-1.1934e-05 4.9736e-06 3.6057e-06)
(-1.1762e-05 5.272e-06 2.1829e-06)
(-1.1934e-05 6.0691e-06 9.6656e-07)
(-1.2109e-05 6.6039e-06 -8.1302e-12)
(-1.962e-08 -4.0627e-08 5.1803e-08)
(-5.7668e-12 1.9772e-12 5.2053e-12)
(-1.9617e-08 6.5309e-08 7.8053e-09)
(-3.4172e-12 -1.1962e-12 -1.1962e-12)
(-1.9617e-08 7.8052e-09 6.5309e-08)
(-5.7668e-12 5.2054e-12 1.9771e-12)
(-1.9619e-08 5.1804e-08 -4.0626e-08)
(-4.8355e-12 2.6902e-12 -9.3022e-18)
(-5.4441e-05 4.2736e-06 -8.4539e-07)
(-5.7497e-05 5.5419e-06 -1.0947e-06)
(-5.4432e-05 4.0398e-06 -1.67e-06)
(-5.7496e-05 5.2414e-06 -2.1665e-06)
(-5.4431e-05 3.6629e-06 -2.4484e-06)
(-5.7488e-05 4.7526e-06 -3.1795e-06)
(-5.4436e-05 3.1307e-06 -3.1298e-06)
(-5.7488e-05 4.0635e-06 -4.0627e-06)
(-5.4431e-05 2.4493e-06 -3.6623e-06)
(-5.7488e-05 3.1804e-06 -4.752e-06)
(-5.4432e-05 1.671e-06 -4.0395e-06)
(-5.7496e-05 2.1674e-06 -5.241e-06)
(-5.4441e-05 8.4633e-07 -4.2735e-06)
(-5.7497e-05 1.0956e-06 -5.5417e-06)
(-5.445e-05 5.407e-10 -4.356e-06)
(-5.75e-05 3.9387e-10 -5.646e-06)
(-5.1116e-05 3.1886e-06 -6.3374e-07)
(-5.11e-05 3.0052e-06 -1.2462e-06)
(-5.1108e-05 2.7336e-06 -1.8238e-06)
(-5.1107e-05 2.3341e-06 -2.3333e-06)
(-5.1108e-05 1.8246e-06 -2.7331e-06)
(-5.11e-05 1.2471e-06 -3.005e-06)
(-5.1115e-05 6.3467e-07 -3.1885e-06)
(-5.1121e-05 4.8254e-10 -3.2558e-06)
(-4.7498e-05 2.0926e-06 -3.9613e-07)
(-4.75e-05 1.9527e-06 -8.0868e-07)
(-4.7492e-05 1.7725e-06 -1.2075e-06)
(-4.7487e-05 1.5312e-06 -1.5296e-06)
(-4.7492e-05 1.2084e-06 -1.772e-06)
(-4.75e-05 8.0959e-07 -1.9524e-06)
(-4.7498e-05 3.9703e-07 -2.0926e-06)
(-4.7497e-05 1.159e-09 -2.1436e-06)
(-4.3682e-05 8.786e-07 -1.231e-07)
(-4.3678e-05 7.5018e-07 -3.1044e-07)
(-4.3679e-05 7.1199e-07 -5.3568e-07)
(-4.3677e-05 6.7334e-07 -6.727e-07)
(-4.3679e-05 5.3647e-07 -7.1153e-07)
(-4.3678e-05 3.113e-07 -7.4993e-07)
(-4.3682e-05 1.2396e-07 -8.7858e-07)
(-4.3681e-05 5.3223e-10 -9.4733e-07)
(-3.971e-05 -6.405e-07 2.4217e-07)
(-3.966e-05 -8.1086e-07 3.3591e-07)
(-3.971e-05 -6.2301e-07 2.8134e-07)
(-3.9762e-05 -3.1963e-07 3.2021e-07)
(-3.971e-05 -2.8062e-07 6.2341e-07)
(-3.966e-05 -3.3512e-07 8.1106e-07)
(-3.971e-05 -2.4138e-07 6.4048e-07)
(-3.9762e-05 5.3147e-10 4.5356e-07)
(-3.5509e-05 -2.8045e-06 6.7913e-07)
(-3.5422e-05 -2.9008e-06 1.2009e-06)
(-3.5509e-05 -2.4619e-06 1.501e-06)
(-3.5618e-05 -1.7879e-06 1.7884e-06)
(-3.5509e-05 -1.5003e-06 2.4623e-06)
(-3.5422e-05 -1.2002e-06 2.9009e-06)
(-3.5509e-05 -6.7843e-07 2.8044e-06)
(-3.5617e-05 5.0154e-10 2.5321e-06)
(-3.1372e-05 -4.7029e-06 9.6738e-07)
(-3.1341e-05 -4.4651e-06 1.848e-06)
(-3.1371e-05 -4.0078e-06 2.6386e-06)
(-3.1389e-05 -3.3875e-06 3.3879e-06)
(-3.1371e-05 -2.6381e-06 4.0081e-06)
(-3.1341e-05 -1.8474e-06 4.4651e-06)
(-3.1372e-05 -9.6679e-07 4.7027e-06)
(-3.139e-05 4.3968e-10 4.7949e-06)
(-2.8147e-05 -3.1943e-06 6.3685e-07)
(-2.812e-05 -2.9576e-06 1.2244e-06)
(-2.8145e-05 -2.7082e-06 1.8069e-06)
(-2.8094e-05 -2.4901e-06 2.4904e-06)
(-2.8145e-05 -1.8065e-06 2.7083e-06)
(-2.812e-05 -1.2239e-06 2.9575e-06)
(-2.8147e-05 -6.3637e-07 3.194e-06)
(-2.8096e-05 3.6829e-10 3.5237e-06)
(-2.555e-05 2.6559e-06 -3.366e-07)
(-2.5385e-05 2.1569e-06 -8.9297e-07)
(-2.5549e-05 2.1152e-06 -1.6387e-06)
(-2.5723e-05 2.127e-06 -2.1268e-06)
(-2.5549e-05 1.639e-06 -2.1151e-06)
(-2.5385e-05 8.9337e-07 -2.157e-06)
(-2.555e-05 3.3698e-07 -2.6562e-06)
(-2.5725e-05 3.0158e-10 -3.0104e-06)
(-2.0849e-05 7.4621e-06 -1.1246e-06)
(-2.0544e-05 6.2857e-06 -2.6025e-06)
(-2.0849e-05 6.0698e-06 -4.4781e-06)
(-2.1244e-05 6.0012e-06 -6.0011e-06)
(-2.0849e-05 4.4784e-06 -6.0698e-06)
(-2.0544e-05 2.6027e-06 -6.2858e-06)
(-2.0849e-05 1.1249e-06 -7.4624e-06)
(-2.1245e-05 2.2309e-10 -8.4924e-06)
(-1.1934e-05 6.0692e-06 -9.6659e-07)
(-1.1762e-05 5.2721e-06 -2.1829e-06)
(-1.1934e-05 4.9737e-06 -3.6058e-06)
(-1.2109e-05 4.6673e-06 -4.6673e-06)
(-1.1934e-05 3.6059e-06 -4.9737e-06)
(-1.1762e-05 2.1831e-06 -5.2722e-06)
(-1.1934e-05 9.6672e-07 -6.0693e-06)
(-1.2109e-05 1.1394e-10 -6.6041e-06)
(-1.9619e-08 5.1804e-08 4.0628e-08)
(-5.7668e-12 5.2053e-12 -1.9772e-12)
(-1.9617e-08 7.8063e-09 -6.5309e-08)
(-3.4172e-12 -1.196e-12 1.1961e-12)
(-1.9617e-08 6.531e-08 -7.8046e-09)
(-5.7668e-12 1.9772e-12 -5.2054e-12)
(-1.9619e-08 -4.0627e-08 -5.1806e-08)
(-4.8355e-12 4.1066e-17 -2.6903e-12)
(-5.4441e-05 -8.4552e-07 -4.2738e-06)
(-5.7497e-05 -1.0949e-06 -5.542e-06)
(-5.4431e-05 -1.6703e-06 -4.0401e-06)
(-5.7496e-05 -2.1668e-06 -5.2416e-06)
(-5.4431e-05 -2.4489e-06 -3.6631e-06)
(-5.7488e-05 -3.18e-06 -4.7527e-06)
(-5.4435e-05 -3.1306e-06 -3.1306e-06)
(-5.7488e-05 -4.0634e-06 -4.0634e-06)
(-5.4431e-05 -3.663e-06 -2.4491e-06)
(-5.7488e-05 -4.7527e-06 -3.1801e-06)
(-5.4431e-05 -4.0401e-06 -1.6705e-06)
(-5.7496e-05 -5.2417e-06 -2.1669e-06)
(-5.444e-05 -4.274e-06 -8.4567e-07)
(-5.7497e-05 -5.5423e-06 -1.095e-06)
(-5.1115e-05 -6.3377e-07 -3.1889e-06)
(-5.11e-05 -1.2464e-06 -3.0055e-06)
(-5.1108e-05 -1.8241e-06 -2.7338e-06)
(-5.1107e-05 -2.3338e-06 -2.334e-06)
(-5.1108e-05 -2.7336e-06 -1.8244e-06)
(-5.11e-05 -3.0054e-06 -1.2467e-06)
(-5.1115e-05 -3.1888e-06 -6.34e-07)
(-4.7498e-05 -3.9606e-07 -2.0929e-06)
(-4.75e-05 -8.0877e-07 -1.9529e-06)
(-4.7492e-05 -1.2078e-06 -1.7726e-06)
(-4.7487e-05 -1.5308e-06 -1.5302e-06)
(-4.7492e-05 -1.7723e-06 -1.2081e-06)
(-4.75e-05 -1.9526e-06 -8.0908e-07)
(-4.7498e-05 -2.0927e-06 -3.9635e-07)
(-4.3682e-05 -1.2293e-07 -8.7881e-07)
(-4.3678e-05 -3.104e-07 -7.5033e-07)
(-4.3679e-05 -5.3573e-07 -7.1202e-07)
(-4.3677e-05 -6.7278e-07 -6.7318e-07)
(-4.3679e-05 -7.1158e-07 -5.3611e-07)
(-4.3678e-05 -7.4989e-07 -3.1076e-07)
(-4.3682e-05 -8.784e-07 -1.2327e-07)
(-3.971e-05 2.4241e-07 6.4031e-07)
(-3.9659e-05 3.3606e-07 8.1076e-07)
(-3.971e-05 2.8143e-07 6.2305e-07)
(-3.9762e-05 3.2031e-07 3.1985e-07)
(-3.971e-05 6.2357e-07 2.8103e-07)
(-3.966e-05 8.1134e-07 3.3568e-07)
(-3.971e-05 6.409e-07 2.4205e-07)
(-3.5509e-05 6.7941e-07 2.8043e-06)
(-3.5422e-05 1.2011e-06 2.9007e-06)
(-3.551e-05 1.5012e-06 2.462e-06)
(-3.5618e-05 1.7887e-06 1.7882e-06)
(-3.551e-05 2.4626e-06 1.5008e-06)
(-3.5422e-05 2.9014e-06 1.2008e-06)
(-3.5509e-05 2.805e-06 6.7905e-07)
(-3.1372e-05 9.6766e-07 4.7027e-06)
(-3.1341e-05 1.8482e-06 4.4649e-06)
(-3.1371e-05 2.6389e-06 4.0079e-06)
(-3.1389e-05 3.3882e-06 3.3877e-06)
(-3.1371e-05 4.0085e-06 2.6385e-06)
(-3.1341e-05 4.4656e-06 1.8479e-06)
(-3.1372e-05 4.7035e-06 9.6734e-07)
(-2.8147e-05 6.3709e-07 3.194e-06)
(-2.812e-05 1.2246e-06 2.9574e-06)
(-2.8146e-05 1.8071e-06 2.7082e-06)
(-2.8094e-05 2.4907e-06 2.4903e-06)
(-2.8146e-05 2.7087e-06 1.8068e-06)
(-2.812e-05 2.9581e-06 1.2244e-06)
(-2.8147e-05 3.1948e-06 6.3682e-07)
(-2.555e-05 -3.364e-07 -2.6563e-06)
(-2.5385e-05 -8.9283e-07 -2.1571e-06)
(-2.5549e-05 -1.6385e-06 -2.1153e-06)
(-2.5723e-05 -2.1266e-06 -2.1269e-06)
(-2.5549e-05 -2.1148e-06 -1.6388e-06)
(-2.5385e-05 -2.1566e-06 -8.9304e-07)
(-2.555e-05 -2.6556e-06 -3.3663e-07)
(-2.0849e-05 -1.1244e-06 -7.4625e-06)
(-2.0545e-05 -2.6024e-06 -6.2859e-06)
(-2.0849e-05 -4.478e-06 -6.0699e-06)
(-2.1244e-05 -6.001e-06 -6.0012e-06)
(-2.0849e-05 -6.0696e-06 -4.4782e-06)
(-2.0545e-05 -6.2854e-06 -2.6025e-06)
(-2.0849e-05 -7.462e-06 -1.1246e-06)
(-1.1935e-05 -9.6651e-07 -6.0694e-06)
(-1.1763e-05 -2.1829e-06 -5.2723e-06)
(-1.1934e-05 -3.6058e-06 -4.9738e-06)
(-1.2109e-05 -4.6672e-06 -4.6674e-06)
(-1.1934e-05 -4.9736e-06 -3.6059e-06)
(-1.1763e-05 -5.2721e-06 -2.183e-06)
(-1.1935e-05 -6.0691e-06 -9.6661e-07)
(-1.9619e-08 4.0628e-08 -5.1805e-08)
(-5.7668e-12 -1.9771e-12 -5.2054e-12)
(-1.9618e-08 -6.5311e-08 -7.8058e-09)
(-3.4172e-12 1.1961e-12 1.196e-12)
(-1.9617e-08 -7.8055e-09 -6.531e-08)
(-5.7669e-12 -5.2053e-12 -1.9772e-12)
(-1.962e-08 -5.1805e-08 4.0628e-08)
)
;
    }
    procBoundary3to2
    {
        type            processor;
    }
}


// ************************************************************************* //
