/*--------------------------------*- C++ -*----------------------------------*\
  =========                 |
  \\      /  F ield         | OpenFOAM: The Open Source CFD Toolbox
   \\    /   O peration     | Website:  https://openfoam.org
    \\  /    A nd           | Version:  8
     \\/     M anipulation  |
\*---------------------------------------------------------------------------*/
FoamFile
{
    version     2.0;
    format      ascii;
    class       volScalarField;
    location    "0.0210000";
    object      p;
}
// * * * * * * * * * * * * * * * * * * * * * * * * * * * * * * * * * * * * * //

dimensions      [0 2 -2 0 0 0 0];

internalField   nonuniform List<scalar> 
600
(
1212997.98474804
3679930.26956878
6231565.09683329
8839741.88794882
11508993.3158818
14244114.103
17047713.5709789
19922204.6638927
22870094.5004281
25893978.0500915
28996645.0503158
32181186.5379466
35450820.7528038
38808803.706379
42258692.5176636
45804192.6954183
49449221.4242388
53197942.1788422
57054723.6394369
61024192.6283726
65111218.7959762
69320927.8827895
73658797.4542008
78130691.6176178
82742620.2144258
87501098.9794668
92413199.1572771
97486080.4699891
102727603.91424
108146303.158909
113751049.488637
119550997.042228
125556374.781546
131778335.894185
138228006.688702
144917854.558344
151861342.64167
159072365.892046
166566443.709045
174360335.46112
182471706.200967
190919256.322077
199723887.583955
208908389.181596
218496171.362693
228513428.582782
238988901.119986
249953246.374098
261439057.778364
273483359.95329
286127270.344695
299411115.187353
313382933.056049
328095752.03473
343604202.195863
359968188.765454
377256326.40213
395543775.613506
414904955.406505
435429743.548849
457219501.524253
480368501.043939
504989775.740499
531212168.947525
559166334.178309
588976252.338707
620797215.068529
654808114.411977
691112711.308036
729877239.007057
771274233.928505
815380539.761001
862155806.575798
911564209.038685
963354102.418643
1016940840.08498
1071884177.73673
1127496066.26017
1182795304.37916
1236803843.40984
1287602817.64229
1333517563.44515
1369963636.85067
1394644343.43268
1389212037.25029
1358265168.35073
1213477459.08331
1114737313.36684
996850765.34612
890253656.166434
781402525.426023
677406208.037413
575932246.974751
479086809.279687
387015342.44857
300688877.329231
220662093.441477
147925746.758975
82221133.1966817
24115880.0533168
1226129.81785837
3694952.0783779
6253282.81418996
8864778.4678586
11535567.5954467
14271463.2879214
17075508.5546425
19950259.5879881
22898310.742531
25922329.5442298
29025156.6289545
32209848.8428734
35479601.362323
38837726.251166
42287756.6523638
45833402.3979321
49478577.2719765
53227448.8020073
57084379.7972337
61053979.0596765
65141140.2186017
69350990.2888079
73688998.4923405
78160998.151351
82773053.5569839
87531676.7666753
92443854.6083132
97516860.8464298
102758522.21491
108177295.579045
113782066.096662
119582096.016039
125587568.703694
131809485.466217
138259175.100055
144949039.9004
151892441.488288
159103439.372386
166597484.958972
174391242.85851
182502360.79693
190949745.405685
199754189.953244
208938223.520448
218525617.852056
228542467.956864
239017340.280158
249980888.486695
261466034.001394
273509632.22101
286152007.447594
299434747.332636
313405334.235961
328116193.377054
343622443.997844
359984379.736438
377270081.228582
395553623.847332
414911657.869064
435433140.156038
457216819.776188
480360491.051488
504976399.542873
531191437.02721
559135472.913637
588936930.391723
620749796.405511
654742363.509761
691034825.793766
729786463.949505
771161545.673127
815238114.422051
861990665.881495
911366679.515694
963110078.231466
1016680804.42465
1071601898.00636
1127196693.63707
1182497825.94925
1236502425.65289
1287315307.43081
1333265130.28162
1369736487.89132
1394466266.95542
1389126176.41192
1358339534.46397
1213776104.86183
1114988054.97021
997117995.930858
890500950.405644
781619534.809628
677604158.186742
576111242.335074
479240647.210293
387152849.648927
300806817.720109
220753385.884566
148008315.352446
82280326.9591478
24034665.5306268
1227100.80501124
3698877.85965895
6257565.09913304
8868989.96697953
11540031.7598331
14276179.0188341
17080363.6916058
19955141.1785067
22903140.3330038
25927079.7774475
29029826.534479
32214421.9636002
35484054.8987004
38842060.2664876
42291964.7459676
45837481.0176301
49482525.3949353
53231252.892303
57088028.0523762
61057459.6293429
65144436.141952
69354096.878593
73691905.6514397
78163671.8344303
82775492.8429891
87533877.6448711
92445774.4762319
97518502.4251176
102759883.781602
108178319.908031
113782694.405216
119582352.337882
125587440.424498
131808871.517928
138258075.607616
144947430.429936
151890248.768715
159100672.715693
166594105.499704
174387141.110996
182497450.704628
190944028.084627
199747596.498838
208930578.510242
218516884.313079
228532585.066995
239006137.786446
249968209.554912
261451879.420711
273493836.634193
286134123.407227
299414821.043689
313383204.362925
328091357.56012
343594630.606707
359953505.611256
377235694.707447
395514962.53271
414868756.456947
435385532.350465
457163159.557891
480300612.838742
504909958.308688
531116982.758253
559051578.909203
588843765.450979
620646114.331632
654624650.948447
690903739.273084
729640851.906527
770996520.420319
815050280.003261
861779736.844301
911128964.977195
962845309.137837
1016397948.76486
1071307127.53733
1126897363.20359
1182203156.67187
1236222142.87827
1287060807.81878
1333053206.97701
1369573159.42431
1394393489.49372
1389161737.58461
1358634054.08822
1214057670.13324
1115302375.91034
997399042.155366
890757942.603149
781854450.618752
677815077.677034
576297941.820768
479405655.63566
387294027.867782
300926887.864315
220855965.012709
148087571.03637
82345351.7079476
24113267.1297357
1220926.76206402
3685557.12253094
6229881.76253489
8836105.24882737
11505607.2648323
14241091.3066634
17044779.4058875
19919049.9299941
22866491.8207598
25889837.1199849
28991965.3839507
32175915.0588549
35444874.870225
38802187.5907572
42251378.5863482
45796160.771861
49440451.8654452
53188397.9404022
57044364.3695546
61012961.0984916
65099069.4870488
69307835.8326444
73644720.1096836
78115519.0249955
82726343.7317211
87483699.9353523
92394520.3482915
97466137.3755772
102706373.837604
108123602.718451
113726702.702455
119525058.965764
125528796.919346
131748788.164159
138196502.755654
144884307.253447
151825492.054584
159034231.299768
166525901.222777
174317057.738435
182425388.780648
190869914.738767
199671321.883269
208851993.408297
218435879.302793
228449044.711342
238919889.86396
249879086.605709
261359773.919539
273398541.107208
286035345.313
299312426.493262
313276986.521179
327980951.693969
343479762.253173
359833970.186929
377111095.393892
395384841.894172
414732897.654149
435243487.090252
457014242.315797
480144480.083587
504746251.745473
530944850.352697
558870331.355691
588653274.79735
620445444.801743
654412794.350146
690680604.10496
729406079.123821
770748442.692108
814788581.684566
861504893.307357
910841370.255985
962548830.749084
1016098224.75529
1071011903.87431
1126614745.03223
1181941937.49567
1235995013.77831
1286881231.15502
1332940664.23847
1369546851.40139
1394506857.11319
1389452477.11962
1359267312.47197
1214338146.53821
1115589370.4257
997669230.925182
890995976.459043
782072045.972456
678006286.861561
576464547.181387
479548678.449065
387412853.615568
301023786.889398
220933908.51055
148144152.225873
82390718.2118843
24156934.8941853
1187553.64254495
3635030.24988057
6160366.18270114
8760133.92825205
11427717.6090567
14162139.5727843
16964835.6190086
19838050.0796349
22784358.3415572
25806511.0898493
28907403.0008577
32090076.3351294
35357721.2172531
38713683.2319076
42161485.9327476
45704840.8405165
49347665.0080532
53094099.9433478
56948510.2140228
60915504.7833383
64999960.4438805
69207024.6639861
73542154.1682658
78011138.54023
82620092.4479207
87375517.9275894
92284338.8862515
97353890.686049
102591994.440459
108007010.551995
113607812.459335
119403797.606811
125405079.520859
131622510.428513
138067574.070204
144752626.528559
151690944.0203
158896709.43506
166385283.720179
174173206.499854
182278167.055184
190719187.264063
199516934.542465
208693773.391865
218273660.906581
228282650.705893
238749117.63804
249703725.050466
261179622.541375
273213360.701864
285844863.028386
299116411.80209
313075166.693969
327773007.433594
343265396.537819
359612884.814375
376882933.424475
395149233.982222
414489524.94826
434991955.981094
456754142.272041
479875487.81923
504468010.470154
530656959.774839
558572520.948759
588345396.380113
620127217.588225
654084290.813732
690342166.327586
729058111.012439
770391851.134168
814425484.532518
861138064.702779
910474654.751065
962188383.283159
1015750569.39756
1070684644.21242
1126317200.88471
1181684812.6728
1235792545.59215
1286750920.20063
1332907689.94859
1369642015.59232
1394798816.7664
1390005904.8336
1360275354.41387
1214639604.23405
1115865465.32653
997946429.539698
891231784.558091
782286213.38946
678189869.530517
576621397.187681
479677941.436397
387516053.784372
301102461.661227
220990320.893098
148180240.492922
82413826.8478584
24166342.63915
1127562.76242422
3550893.69126039
6058881.73887635
8653632.57938957
11319754.4943031
14053142.8072695
16854710.523482
19726666.0639555
22671616.0938252
25692342.2788993
28791756.1261648
31972906.3524235
35238984.8308588
38593336.6111032
42039482.8468923
45581133.1961317
49222202.7909773
52966830.4335095
56819379.3331976
60784456.6587818
64866935.6363407
69071961.7279952
73404989.024711
77871803.0502011
82478515.9893975
87231626.3295096
92138053.2324124
97205128.8498205
102440671.050552
107853036.978467
113451095.267757
119244238.847443
125242575.001203
131456950.522067
137898845.738382
144580607.525098
151515504.534376
158717712.716298
166202584.626322
173986657.383618
182087612.913202
190524458.524421
199317853.486866
208490158.471581
218065315.90222
228069363.946367
238530672.820395
249479891.765497
260950145.32035
272977981.275057
285603331.859648
298868436.985102
312820434.638376
327511232.486214
342996269.052141
359336043.283828
376598038.099224
394855980.817027
414187511.974039
434680796.898663
456433606.176198
479545226.773015
504127625.372216
530306286.761348
558211532.178878
587973830.823892
619745040.178032
653692287.022692
689940671.812864
728647749.695248
769974883.108423
814005247.368471
860718044.983136
910060418.629472
961787406.821453
1015368846.16373
1070329519.09224
1125998355.28787
1181412682.69357
1235582443.73209
1286619687.72043
1332884813.22146
1369756026.1735
1395136786.19451
1390612584.20976
1361432354.48204
1214909403.26342
1116138956.77916
998211196.825973
891459826.281551
782489647.597868
678363203.52979
576767094.36181
479795556.350836
387607286.549772
301168833.229092
221033864.412991
148204356.801531
82424261.1793121
24168836.7766722
)
;

boundaryField
{
    dieWall
    {
        type            zeroGradient;
    }
    outlet
    {
        type            fixedValue;
        value           uniform 0;
    }
    Wire
    {
        type            zeroGradient;
    }
    inlet
    {
        type            fixedValue;
        value           uniform 0;
    }
    back
    {
        type            wedge;
    }
    front
    {
        type            wedge;
    }
}


// ************************************************************************* //
