/*--------------------------------*- C++ -*----------------------------------*\
  =========                 |
  \\      /  F ield         | OpenFOAM: The Open Source CFD Toolbox
   \\    /   O peration     | Website:  https://openfoam.org
    \\  /    A nd           | Version:  8
     \\/     M anipulation  |
\*---------------------------------------------------------------------------*/
FoamFile
{
    version     2.0;
    format      ascii;
    class       surfaceVectorField;
    location    "0.0210000";
    object      Uf;
}
// * * * * * * * * * * * * * * * * * * * * * * * * * * * * * * * * * * * * * //

dimensions      [0 1 -1 0 0 0 0];

internalField   nonuniform List<vector> 
1094
(
(0.667603775533986 0.000479899168775544 -6.41122292514487e-19)
(0.434140361845098 0.00158378407359156 5.64678801930365e-21)
(0.66806945719438 0.000337439138633003 -2.62708198384942e-18)
(0.436396738819143 0.00172041851509844 -1.54422669510191e-18)
(0.668467601450252 0.000319414419696506 -6.63367833914439e-18)
(0.436936153409454 0.00179308446440822 -7.01620601510917e-18)
(0.668702707814696 0.000348084590179958 -7.87324347722989e-18)
(0.437348276755128 0.00192350079781613 -1.16522878481484e-17)
(0.66883432867129 0.000364926452776259 -5.32373883217344e-18)
(0.437553412175393 0.00200778374723825 -1.30541311504696e-17)
(0.66892235872501 0.000373609697635392 -7.50296327661194e-18)
(0.437639332039949 0.00204991818976749 -1.3678300878879e-17)
(0.668995980223791 0.000378899250378105 -3.93672975280005e-17)
(0.437682714451096 0.00206881523801125 -1.73636748435293e-17)
(0.669065853033986 0.000383302787378416 -3.97383354253644e-17)
(0.437715614711912 0.00207863006944421 -4.91758863130252e-17)
(0.669136552513346 0.000387064070047347 1.59736218365926e-17)
(0.437747415188549 0.00208575384764178 -8.03288129279302e-18)
(0.669211367748198 0.000389778643127222 2.37384654803254e-17)
(0.43778312347686 0.00209110668192969 5.09364355004571e-17)
(0.669289290294222 0.00039212986385164 -5.80508491300507e-18)
(0.43782416993834 0.00209500097287588 -2.74717957169458e-18)
(0.669369753249133 0.000394933682438439 -1.43522001511035e-17)
(0.437869134924703 0.0020992438175479 -3.43624991149064e-17)
(0.669454029796657 0.000397893120624571 -3.40799807564706e-17)
(0.437918527691749 0.00210444530934621 -2.4369318056822e-17)
(0.669540297458027 0.000400661291975216 -3.28150042618525e-17)
(0.43797238395733 0.00210920725752656 -7.8649421552062e-17)
(0.669627662905184 0.00040316217976162 1.15930620739062e-17)
(0.438029874470724 0.0021138169880448 -9.62329155263513e-18)
(0.669718110776906 0.000405109041827609 -2.14344102535602e-17)
(0.438090082469823 0.00211788951467277 -4.06528317295333e-18)
(0.669814362404044 0.00040695959263911 -4.27807035577275e-17)
(0.438156486118413 0.00212131038585053 -9.87898773748224e-17)
(0.669913147242959 0.000409104633301278 1.02021868523051e-18)
(0.438229423674595 0.00212509477214906 -1.89811730465093e-18)
(0.670014223093726 0.000411201536870526 -2.54478785114227e-17)
(0.438304594949415 0.00212905899912686 3.21617501812981e-17)
(0.6701211434183 0.000413447992513614 -4.88772871397761e-17)
(0.438386511034341 0.00213308723285889 -4.92689321616704e-17)
(0.670230859626338 0.00041576054349862 -1.24362151049204e-17)
(0.438475364911273 0.00213756842922569 -6.81643806811736e-17)
(0.67034351444407 0.000417755681106322 1.99555666815898e-17)
(0.438567290255913 0.00214165096197786 2.43683349640521e-17)
(0.670461256334348 0.000420119799759145 3.0058866723109e-17)
(0.43866678539749 0.00214557929563901 5.85166450006792e-17)
(0.670582629668612 0.000422678073849062 1.80252570679954e-17)
(0.438773168159651 0.00215075923982864 6.60347618892465e-17)
(0.670707151120001 0.000424638580836033 7.04858950792867e-17)
(0.438884191341737 0.002155164540053 -1.54653959279277e-17)
(0.670836955237764 0.00042672991049099 1.74119851799691e-16)
(0.439002868769913 0.00215882286981713 2.78159943363308e-16)
(0.670974729346759 0.000428878161082918 1.13421263992302e-16)
(0.439130676272098 0.00216383644845629 2.94088054240949e-16)
(0.671118551156147 0.000430253752381748 2.50116760650843e-17)
(0.439267567857674 0.00216767664561462 -7.54919399992387e-18)
(0.67127031683786 0.000432057827303617 -2.58573579961008e-17)
(0.439413222852958 0.00217066491412493 -7.92297153574227e-17)
(0.671429672833918 0.000435552109645537 -1.92573665625053e-17)
(0.439571531623892 0.00217604590195679 -6.16164908228955e-17)
(0.671592049026923 0.000438845234503634 3.63349913451689e-17)
(0.439738688848881 0.00218368044287539 1.12432341387098e-16)
(0.67176078672448 0.000440786606387189 6.91404573934307e-17)
(0.439911759737475 0.00218864796326534 4.16269252360414e-17)
(0.671939579316458 0.000443864586664901 1.19605083000151e-17)
(0.440100564336755 0.00219293834928437 1.07101802160302e-16)
(0.67212653289663 0.000447917235166921 -1.03390533811254e-16)
(0.440302582456825 0.00220133254225987 -5.7641875968432e-17)
(0.672318923774979 0.000451325766929556 -8.20456167274631e-17)
(0.440514435433664 0.00220838407060765 -1.01953988327662e-16)
(0.67251845745238 0.00045502889747984 -6.46695083359871e-17)
(0.440741009166359 0.00221497645176392 -7.61173192361518e-17)
(0.672730644232311 0.000458276013980436 -7.53384939577672e-17)
(0.440981259993658 0.00222320291592132 -1.71686826031548e-16)
(0.672959812715341 0.000460635015310405 -1.32250295434157e-16)
(0.441241259610233 0.00222885452878109 -1.20915973871739e-16)
(0.673203478972521 0.000464343860143611 -1.23821011835043e-16)
(0.441525030298704 0.00223467213844436 -1.55806082636907e-16)
(0.673459056727462 0.000469877810098696 -3.41273551437444e-17)
(0.441827215866106 0.00224419308255881 -8.9819648344936e-17)
(0.673731434851114 0.000475058207043267 -6.90518330397802e-17)
(0.442151467363283 0.00225572849126421 -2.27015472044179e-17)
(0.674019401455013 0.000479623586979188 -1.05488610947361e-16)
(0.442501118563095 0.00226465410981692 -2.53063456251118e-16)
(0.674323887186652 0.000486163830182312 -3.29374024317511e-17)
(0.44287611149873 0.00227433291354483 -1.83851384421953e-16)
(0.674652054100723 0.000494001811907853 -5.66680847374861e-17)
(0.443282219367806 0.00228962984688735 -5.28938515756175e-17)
(0.674999679461342 0.000501183895334344 -9.63732340945318e-17)
(0.443721578553925 0.00230350617428634 -1.77423644645635e-16)
(0.67536751791259 0.000509431752551295 -8.6151605049715e-17)
(0.444193812018947 0.00231678922591908 -1.00265056697799e-16)
(0.675762709439978 0.000519776610492345 -6.50394693687429e-17)
(0.444705254436923 0.00233414622051868 -1.29833098638982e-16)
(0.676191982188271 0.00052932921142113 4.83395652454313e-17)
(0.445263114481891 0.00235420331185803 -2.85614411726995e-17)
(0.67665679507821 0.000538362058386924 9.25333315301242e-17)
(0.445870858843781 0.0023695718127438 1.22791054169339e-16)
(0.67715852537382 0.000552933252189645 7.45630255957496e-17)
(0.446537625556441 0.00238775022416244 1.42706742539541e-16)
(0.677710044751514 0.00056938969662255 5.21434434020657e-17)
(0.447269225810336 0.00242056251721263 4.92460640301702e-17)
(0.678306066601015 0.000583341907669 1.88502899270898e-19)
(0.448070374488457 0.0024448883584988 -3.75159280579767e-17)
(0.678951522140728 0.000602004269054582 -4.90288037262335e-17)
(0.448951522947577 0.00246964484456134 -5.7741596575172e-17)
(0.679657637872605 0.000626189990254073 -6.25293217365866e-17)
(0.449920877266959 0.00250870816140598 -1.33617878838728e-16)
(0.680430767152938 0.000649338006016639 -3.30586033731667e-17)
(0.450991057974814 0.00255063440888601 -1.18639541956517e-16)
(0.681275995537936 0.000673306874371971 -5.74593726036435e-18)
(0.452173793040514 0.00258643834482834 -2.04430947556558e-17)
(0.682209147536308 0.000706077032623438 3.8774811223037e-18)
(0.45348835017838 0.00263029717381483 -2.11958324678553e-18)
(0.683257298982311 0.000740144566988333 4.60485616989294e-17)
(0.454960687165139 0.00269346763716477 1.5068837248045e-17)
(0.684413211937702 0.000770934159224858 6.46929733829167e-17)
(0.45660421248697 0.00274124882621298 1.64067538529754e-16)
(0.685688431342841 0.000814943858763422 3.6839600234747e-17)
(0.458441273385393 0.00279267189610179 9.34728910714069e-17)
(0.687130563471099 0.000866387011101725 4.66776954462359e-17)
(0.460507835051347 0.002880828634783 5.07425382947746e-17)
(0.6887453618225 0.000911181760407549 7.8300835163118e-17)
(0.462838116038968 0.00295456805425233 1.34056685322904e-16)
(0.690550105862411 0.000963851268230571 5.42476412414268e-17)
(0.465468496043628 0.00302040209487239 4.28445486802284e-17)
(0.69258252041042 0.00103528181667331 -9.1691479728295e-18)
(0.468447416668404 0.00311617342969366 3.53841641667155e-17)
(0.69488978872983 0.00110365732956512 6.45361704703452e-18)
(0.471831857130241 0.00323726414492404 5.62515354053825e-17)
(0.697495180662793 0.00116338065750916 -1.14359902660859e-16)
(0.4756694647164 0.00332120690017574 -1.76043586854256e-17)
(0.70043479393781 0.00125759220837281 -1.49905069608839e-16)
(0.480062398123669 0.00341197459840197 -3.15694490739029e-16)
(0.703823142261702 0.00135968553725946 -9.05028329172597e-18)
(0.485094467432451 0.00359499079280523 -4.7290000419375e-17)
(0.707683862899265 0.00143745744191946 2.22966180507493e-17)
(0.490850753654653 0.00370458623717659 1.04474407758492e-17)
(0.712134812017007 0.00155232338533038 4.80795359719982e-17)
(0.497511744406541 0.00380934368340263 6.28283706725935e-17)
(0.717381245995828 0.00172653393648142 5.41293409973312e-17)
(0.505288458214746 0.00402227661238334 1.16898615644475e-16)
(0.723650720120802 0.0019023089721019 5.05207156522003e-17)
(0.514471550411785 0.0042924696916346 9.40015142755519e-17)
(0.731069603455184 0.00208272923344515 -2.33530514515106e-17)
(0.525371972980873 0.00449872660225256 1.04162735413071e-16)
(0.739747960913886 0.00229626789612552 -3.95022361334666e-17)
(0.53832300704412 0.00476139673309118 -1.05380130289302e-16)
(0.749764015392807 0.00241397206561513 4.0400438158393e-17)
(0.553398073142051 0.00501411776601475 3.52672812574953e-17)
(0.761057536598139 0.00239663157808133 5.65610864653579e-18)
(0.570711925130541 0.00494842993118366 4.4686010353994e-17)
(0.773733131303257 0.00230574781006964 -8.66813808074032e-17)
(0.590381427430682 0.00474735542514781 -2.3395613128653e-17)
(0.787874561335562 0.00211185216487997 -7.85413793058011e-17)
(0.612405772139381 0.00438521655296931 -1.68363207397361e-16)
(0.803511167752194 0.00183719955099355 -4.28287055529511e-17)
(0.636851611999827 0.00382188043211523 -7.09013533549175e-17)
(0.820846788493589 0.00150611022247825 -2.60780337431341e-17)
(0.664092629800669 0.00315533161955194 -9.89438837738459e-17)
(0.839907157529434 0.00108178126707539 -2.0693372217815e-17)
(0.693692726225742 0.00233974171374998 -5.88636904111662e-18)
(0.861219332092526 0.000688763297411767 4.8346047179962e-18)
(0.727340156594668 0.00136939857049761 -7.45953659403541e-17)
(0.884779600641803 0.000263279573434687 -5.41064321685272e-18)
(0.762924438013365 0.000521873644209657 9.33616250237692e-17)
(0.912610162710035 -2.00505022990023e-05 -2.23145696541944e-17)
(0.807240418537287 -0.000538185176780846 -6.08687620738565e-17)
(0.943346142092224 -0.000425730485691135 1.02925125617031e-18)
(0.849566324301309 -0.00132479554666494 2.02112554952807e-17)
(0.979926513824512 0.000187028604650122 -1.04067516679952e-17)
(0.918522950751053 -0.00212830486739841 -1.53663641495191e-17)
(0.976290264676132 0.000167135851160829 -1.30301370512658e-17)
(0.944005917918755 0.000118907310761237 -2.62187718930841e-17)
(0.975829013874308 0.000151652097540482 -7.80497758043324e-18)
(0.930818815649444 -0.000218375249728218 -6.8559778683601e-18)
(0.97316771588599 5.72001477699226e-05 -1.36899156588861e-18)
(0.932317197370024 -0.00013854935334324 -4.43636002922885e-18)
(0.970749375682831 1.48017349282778e-05 1.04275521284121e-17)
(0.925755530397246 -0.00022910384766579 -3.54351599006304e-20)
(0.967589154418033 -3.49330562083471e-05 1.38947146564882e-17)
(0.921767568758453 -0.000248968542623707 3.27730715205075e-17)
(0.96424841600329 -8.72134644792334e-05 9.51433510577421e-18)
(0.915742219226809 -0.000300912620683882 1.40658812122426e-17)
(0.960619449556016 -0.000131617272833215 -3.02668973990447e-18)
(0.90994170731613 -0.000335061455721684 2.39235781990973e-17)
(0.956837777611222 -0.000171268969263247 -8.2281061907628e-18)
(0.903542059736129 -0.000372783223588153 -2.73242860513822e-17)
(0.952944907758844 -0.000207601691924298 5.05612349988329e-19)
(0.89706198026538 -0.000397169716671865 2.93809870014629e-18)
(0.949057183930215 -0.000229759022055115 -3.6221120536698e-18)
(0.890435678259879 -0.000420214054931535 -8.85325373010764e-19)
(0.945241083404237 -0.000244780702220322 -3.02099100340436e-18)
(0.883897774100496 -0.000435614003982013 -9.65960131595185e-18)
(0.941624416920862 -0.000255006556919493 6.27959558388518e-19)
(0.877623607419183 -0.000419782624899214 1.57737895677023e-18)
(0.938465079977312 -0.000138526599908134 1.59161598044813e-19)
(0.871639391141969 -0.000408608233103362 9.83969148345188e-19)
(0.867464511568579 -0.0003144091472914 -3.59299443857175e-19)
(0.200515067072596 0.00306512965988288 -9.02147780580671e-19)
(0.0454055479279735 0.0047150854720404 1.01600567542185e-18)
(0.202086052472361 0.00352199371054628 -5.96508110362405e-18)
(0.0488096807195348 0.00514948915948304 -5.85468800489248e-19)
(0.202964712283302 0.00384250761123334 -1.20778567526491e-17)
(0.0495702180284803 0.00575945199820674 -1.33663438035148e-17)
(0.203376209459334 0.00407510062501828 -1.68913759068449e-17)
(0.0500365750357758 0.00624201367592863 -1.60510761911239e-17)
(0.203546253780688 0.00420310573203598 -2.1508281774788e-17)
(0.0502162944728598 0.00650847741659708 -2.72950883043241e-17)
(0.203614211830933 0.00426313127583279 -2.36437016139604e-17)
(0.0502474798768611 0.00663125860259803 -3.42897259917559e-17)
(0.203646607844591 0.0042900776874462 -2.71665712045417e-17)
(0.0502264433819982 0.00668234968824403 -2.91743865284506e-17)
(0.203671054030813 0.00430423037733885 -1.72508187519226e-17)
(0.0501927048197492 0.00670407090523789 -2.09693139378428e-17)
(0.203698256831527 0.00431381440231691 2.7121484089481e-17)
(0.0501597414255857 0.00671576838984729 -5.88824140306676e-18)
(0.20373121416026 0.00432122646669463 2.43374847371085e-17)
(0.0501324736379703 0.0067236761217872 4.65678978595739e-17)
(0.203769340541988 0.00432799742655163 -3.15203858875202e-17)
(0.0501113982790761 0.00672995571805565 -2.48684089781798e-17)
(0.203812850109614 0.00433534339571097 -4.45268862274986e-17)
(0.0500958677439102 0.00673645083284244 -3.63870494081555e-17)
(0.203862748504191 0.00434296593941769 -6.92565632870616e-17)
(0.0500867839764189 0.00674367013245242 -2.89430065516136e-17)
(0.203918194438592 0.00435028777012808 -5.54239993020598e-17)
(0.0500844412320674 0.00675068773594045 -6.86776487583301e-17)
(0.203978920187031 0.00435714193086105 -2.54697752587957e-17)
(0.0500882886589798 0.00675737529417153 1.93428015385517e-17)
(0.204045772842653 0.00436330961958369 -8.19673479296308e-17)
(0.0500981973257907 0.00676339996098516 -7.3113670879565e-17)
(0.204119411714941 0.00436926006891147 -5.77562672771782e-17)
(0.0501153842598346 0.0067686666148016 -9.37893780610195e-17)
(0.204199391108282 0.00437544562682457 2.94741603613521e-17)
(0.0501400952791909 0.0067741954491737 2.89155410104186e-17)
(0.204285996453649 0.00438174226108122 8.31603006030735e-18)
(0.0501713094666985 0.00677987684844448 1.00140862928867e-16)
(0.204380492699052 0.0043882735645202 -6.8703849633711e-17)
(0.0502108841237797 0.00678550274119587 -2.98940918902357e-17)
(0.204482730930578 0.00439480670603823 -3.12219535728163e-17)
(0.0502595011154832 0.00679154662263446 -8.25605680469123e-17)
(0.204592564574536 0.00440106161595955 6.32312519402315e-17)
(0.0503160582061361 0.00679716795776277 -1.76496442266195e-17)
(0.204710897520571 0.00440780773639485 9.48292176979328e-17)
(0.0503820422157092 0.00680262476094833 4.01499393166263e-17)
(0.20483862573309 0.00441471788124924 3.23999625650272e-17)
(0.0504582863517394 0.00680902741087764 1.56764547422074e-16)
(0.2049753333153 0.00442085726235199 1.93576705543797e-16)
(0.0505445195032584 0.00681470060073801 1.35561620336001e-17)
(0.205121967013997 0.00442715615040744 3.99229191207836e-16)
(0.0506414416431102 0.00681965304020847 3.98392277918419e-16)
(0.205281038202551 0.00443341395431027 1.72564214172308e-16)
(0.0507508053715244 0.00682535696088445 3.49417918121678e-16)
(0.205451816129529 0.00443867024016803 -1.12618721755049e-16)
(0.0508734035743907 0.00683007157679332 -9.98195945464664e-17)
(0.205634524765109 0.00444475139203717 -1.15341773057126e-16)
(0.0510083794837156 0.00683395028271524 -2.09053323428839e-16)
(0.205831099444669 0.00445322706216788 7.09738978027641e-17)
(0.0511581960838813 0.00684010119539236 -2.82260045261799e-17)
(0.206042182410194 0.00446147144785173 1.17873264687262e-16)
(0.0513243005123473 0.00684838607859003 1.34982326257477e-16)
(0.206267449843012 0.00446800436263796 7.98289763936853e-17)
(0.0515056975305906 0.00685408046854304 5.16155619594562e-17)
(0.206508787557664 0.00447622141945941 3.71076870225714e-17)
(0.0517049686597528 0.00685910092259568 1.16076536989409e-16)
(0.20676925104576 0.00448585067121367 -5.61448876858913e-17)
(0.0519241765096414 0.00686767231406146 -5.60747565701054e-18)
(0.207047526325712 0.00449458436351447 -9.60019995318436e-17)
(0.0521639027642749 0.00687526629760716 -7.28924651591519e-17)
(0.207345083360952 0.00450370098631551 -1.8391990543215e-16)
(0.0524254811246982 0.00688220914531769 -1.23553731358122e-16)
(0.207666878958528 0.00451210303956182 -2.17663729319409e-16)
(0.0527109636736571 0.00689007703886975 -3.7607925016013e-16)
(0.208014172674417 0.00451919233311758 -1.44635401672862e-16)
(0.0530240062364836 0.00689529208053878 -2.26076346769517e-16)
(0.208387314229204 0.00452838272990992 -1.21573800030921e-16)
(0.053365778050521 0.00690059498917719 -7.24169503170887e-17)
(0.208789637858902 0.00454060882392539 -7.83297723383346e-17)
(0.05373722887171 0.00690972684319565 -5.40695373932702e-17)
(0.209225664991119 0.00455245051382678 -2.08032433604647e-16)
(0.0541445194363049 0.00692048051333482 4.89249973179196e-18)
(0.209695011651277 0.00456333661684192 -3.32000190275553e-16)
(0.0545899368376958 0.00692867133373211 -3.19864111005911e-16)
(0.21020115798378 0.00457755949360119 -2.03939274607417e-16)
(0.0550736993552085 0.0069376678800952 -3.78606274472377e-16)
(0.210753007311731 0.00459398893997554 -1.74523842972628e-16)
(0.0556043989308098 0.0069516095017533 -1.93127192739081e-16)
(0.21135093788118 0.00460932317708211 -1.81312905663752e-16)
(0.0561876804050974 0.00696445876596527 -2.71558731703059e-16)
(0.21199763603013 0.00462644277271348 -1.44256137171035e-16)
(0.0568237541899884 0.00697633376477085 -1.87974171791531e-16)
(0.212703158004122 0.00464706877768668 -9.30455183566057e-17)
(0.0575203562792132 0.00699206257302207 -1.64984015710975e-16)
(0.213476414672443 0.00466631984768328 4.64976210318374e-17)
(0.058289377715865 0.00700981404750941 -6.27727113074484e-17)
(0.214319039241039 0.00468462795231344 1.73301488090697e-16)
(0.0591343074056817 0.00702234269350659 2.5571349767512e-16)
(0.215240496533121 0.00471249943929256 1.17124505022708e-16)
(0.0600607065194752 0.0070384492100583 2.9368093440851e-16)
(0.216261877208571 0.00474354775714857 -4.10708078339797e-17)
(0.0610888503521529 0.00706794929128872 9.19291716234397e-17)
(0.217382841687176 0.00477002207641733 -9.58186094372863e-17)
(0.062230165697038 0.00708935411956035 -8.29520080866907e-17)
(0.218613588335662 0.00480453941159417 -1.42947448483105e-16)
(0.0634877652555985 0.00711026374807151 -1.28114272459746e-17)
(0.219979977724127 0.00484850420789826 -1.90016827628057e-16)
(0.0648835399507409 0.00714554591096894 -1.75591963289856e-16)
(0.221498574119931 0.0048901179199585 -1.05752654443966e-16)
(0.066445404785858 0.00718311471130369 -2.59484799001216e-16)
(0.22318022269077 0.00493251973567333 -1.67560605445174e-17)
(0.0681845771696785 0.00721300943255453 -3.77998664978898e-17)
(0.225055999291997 0.00499000589048434 9.17237612577048e-18)
(0.0701213547304381 0.00725134912250466 -3.39806320264686e-18)
(0.227169224619354 0.00504868777566612 1.34083546962572e-16)
(0.0723067378956689 0.00730678567350567 1.79689116517487e-17)
(0.229527051156561 0.00509997813166915 1.9278800757204e-16)
(0.0747658643316371 0.00734508651937456 1.77821120402673e-16)
(0.232165175654619 0.00517386665563858 1.07312762428884e-16)
(0.0775127086340451 0.00738677403427841 1.84558461108249e-16)
(0.235163090285882 0.00525934628228611 1.38807509109943e-16)
(0.0806254131764992 0.00746313455821529 9.29959101853635e-17)
(0.238549548138984 0.005329903749593 9.81163907197413e-17)
(0.0841692361577818 0.00752267476372396 2.79674161870061e-16)
(0.242366579876065 0.00541181804462305 2.38691366153776e-17)
(0.0881681795036069 0.00756900027706691 -5.15072014631185e-17)
(0.246710895796022 0.00552466629649829 1.01174613788199e-16)
(0.0927023452657698 0.00764568975569421 6.74339317211311e-17)
(0.251683631178 0.00562675202856238 3.17820896573986e-17)
(0.097908377609036 0.00774250621147345 1.21038011021215e-16)
(0.257332649523677 0.00570730080892517 -2.21107677293251e-16)
(0.103852999339038 0.00779113063668491 -1.46916754465473e-16)
(0.263776597895078 0.00584503184109181 -2.11402083783981e-16)
(0.110604453701188 0.00784719072325583 -4.04301549571957e-16)
(0.271250059552165 0.00598845655435737 -2.74304920801675e-17)
(0.118413195571275 0.00798636169893136 -8.81368780218776e-17)
(0.279829089135124 0.00607678814701804 5.14110496461305e-17)
(0.127446368129378 0.00803970018213363 9.75410971936902e-18)
(0.289726423342882 0.00622327159668563 1.32220806741979e-16)
(0.137801448779235 0.00807367629226941 9.64461176579672e-17)
(0.301377448074366 0.00646604890067606 1.56817413283789e-16)
(0.149856000338521 0.00822018350397715 2.33852038538088e-16)
(0.315224352786015 0.00669200247837172 1.47928860896119e-16)
(0.164181991732793 0.00840861915247369 1.73629790716881e-16)
(0.331585917245697 0.00690059883063154 2.05865530862485e-17)
(0.181151242781679 0.00850826751695028 2.13280128251946e-16)
(0.350923968723723 0.00712978617109935 -2.94832770845847e-17)
(0.201240102590269 0.00863966482175107 -1.27084470874865e-16)
(0.373581647543599 0.00713117459781173 3.96331976350981e-17)
(0.225052283514817 0.00869396477624906 7.34715588398155e-17)
(0.399442690825515 0.00682692623516366 1.5075820790095e-17)
(0.252656838735051 0.00833979650332779 7.41729859311896e-18)
(0.428627238715018 0.00632574840027272 -1.06329829829426e-16)
(0.283956379362762 0.00775100700899404 3.31624049537033e-17)
(0.461251421946591 0.00557738058754059 -1.59856187842513e-16)
(0.31918852401802 0.00691330279988745 -1.88955570260295e-16)
(0.49739165378951 0.00462071910845246 -1.27249745479424e-16)
(0.35824834566129 0.00579195509229848 -1.39004777230618e-16)
(0.537345116622403 0.00349412098379544 -7.77277754528968e-17)
(0.401753283409732 0.00447602049520478 -1.32035862587103e-16)
(0.581382753838777 0.00213850920788654 -6.04876724166649e-17)
(0.449106645129632 0.00293305848045191 -9.5681300951773e-18)
(0.630123975744868 0.000766103775791161 1.60550249285208e-17)
(0.502649780259317 0.00114593056711771 -1.46093443656861e-16)
(0.684862343438607 -0.000743925859408747 3.55123621857902e-17)
(0.5591844440471 -0.000542792443670574 1.34730816222508e-16)
(0.747344336645064 -0.0021253635775241 -1.69856525908854e-17)
(0.629770825710003 -0.00263108222363352 -7.16227906563047e-17)
(0.820188740808646 -0.00356285556488218 3.11707929402988e-18)
(0.696691192418079 -0.00433016105657502 4.05188011706044e-17)
(0.896896282078388 -0.00153226689933782 -3.1145738529355e-17)
(0.805525119768785 -0.00592642752235041 -1.12636144385445e-17)
(0.894164579519644 -9.32825683326333e-05 -1.99608363331844e-17)
(0.845854915821074 0.000114277576543225 -3.30088225616825e-17)
(0.889941153630765 -8.42872244956133e-05 -3.504980166119e-18)
(0.824432810216446 -0.000271826129648286 5.2216715724411e-18)
(0.884212256679317 -0.000204298116845285 -3.0853687022398e-18)
(0.826323514616727 -0.000190295779264243 -6.93469604744664e-18)
(0.877540673376224 -0.000244205849177376 2.23699316528301e-17)
(0.81557654379734 -0.000296108964612887 3.07802446681318e-20)
(0.869984082076421 -0.000302271965237796 3.28351491201667e-17)
(0.808948654636428 -0.000325632617278211 4.81786742776317e-17)
(0.861754109776153 -0.000361479473357906 2.84686665615467e-17)
(0.799115017046816 -0.000390791175573013 1.9656286476056e-17)
(0.853020266808692 -0.000412190755607792 -5.55080471727058e-19)
(0.789663361221743 -0.00043556860819962 3.91022296074888e-17)
(0.843930758851846 -0.000455445470467108 -1.60433329024857e-17)
(0.779261523376786 -0.000482885920347992 -3.76460826852377e-17)
(0.834664395307328 -0.000493819403776818 1.53321271271224e-18)
(0.768767546395086 -0.000514645033779955 6.05888742743079e-18)
(0.825368474563847 -0.000514179486604429 -6.95046705788873e-18)
(0.758078986808105 -0.000544235810792296 -1.8602967158867e-18)
(0.81623802816056 -0.000519847045439468 -5.02529739044753e-18)
(0.747428364614773 -0.000562237101055037 -1.5362106278543e-17)
(0.807608255151399 -0.000516695521829487 1.93194627359964e-18)
(0.737217052234809 -0.00054367748658743 3.31845458056251e-18)
(0.800015063336068 -0.000335734205674184 4.59967370573498e-19)
(0.727592026818875 -0.00054320419568878 9.82794106319176e-19)
(0.719229105206507 -0.000366415024050063 -7.65748458940183e-19)
(-0.10750152202839 0.00686421845617395 1.34304034579034e-18)
(-0.185119879174843 0.00770034000851878 1.92325482851712e-18)
(-0.105866583736917 0.00753556397754428 -8.02524241989826e-18)
(-0.182792712991415 0.00838148327646366 5.59198626132435e-19)
(-0.105140846559794 0.00836806590399145 -1.73765768030314e-17)
(-0.182555786411863 0.00968317811149976 -2.27551265030804e-17)
(-0.104898474395161 0.00889798597161737 -2.65349745644094e-17)
(-0.182481323572375 0.0105254677790694 -1.41815418132988e-17)
(-0.104863641927021 0.00916398364513499 -4.02000949776541e-17)
(-0.182534733864696 0.0109464043804252 -1.98215500516589e-17)
(-0.104908087530459 0.00928113805120858 -3.99031375533184e-17)
(-0.182646155564788 0.0111311547845 -3.72756380047029e-17)
(-0.104977674166952 0.00932959976932243 -2.29352941381786e-17)
(-0.182772201674519 0.0112057273925343 -1.97107353578556e-17)
(-0.10505095635602 0.00935114419984108 -9.530246576898e-18)
(-0.182897789107504 0.0112357961430599 2.6734132829193e-18)
(-0.105119886085261 0.00936336937763523 1.35987639038097e-17)
(-0.18301849832313 0.0112505021118436 -1.83305169385976e-17)
(-0.105182443314143 0.00937231744809973 -2.94825359082184e-18)
(-0.183132828005506 0.0112601953286436 3.8585431410986e-18)
(-0.105238849576072 0.00938043957168155 -2.97515065979359e-17)
(-0.183240983370463 0.0112682501738066 -2.99018270702248e-17)
(-0.105288731704712 0.00938895650263122 -2.06573934886887e-17)
(-0.183343213117229 0.0112763530412146 1.89137693570992e-18)
(-0.10533128815994 0.00939770249231322 -2.82374245245362e-17)
(-0.183438720338842 0.0112849337765769 -1.4721162873413e-17)
(-0.105366670888753 0.00940616803079861 6.62309087088663e-18)
(-0.183527067819072 0.0112933561784345 -2.16412678957965e-17)
(-0.10539494541653 0.00941412755412565 -2.85368952507793e-17)
(-0.183608388164643 0.0113014203891359 3.34967830809148e-17)
(-0.105415750737724 0.00942141265013892 -8.50011436444213e-17)
(-0.183682637365621 0.0113088852858981 -8.23645117505133e-17)
(-0.105428882834399 0.00942840666110592 -6.55762132403389e-18)
(-0.18374944774899 0.0113157146832255 -5.76583654367891e-17)
(-0.105434084469664 0.0094354996261305 1.00113508190962e-16)
(-0.183808564046992 0.0113225608444873 8.00891994523293e-17)
(-0.105430850661547 0.00944262703932353 6.18710745060557e-17)
(-0.183859892031732 0.0113294134303463 1.58038182201102e-16)
(-0.105418417899964 0.00944987309226551 -4.37622090229905e-17)
(-0.183902494391731 0.0113361642044839 -3.81734545260937e-17)
(-0.105396239479025 0.00945704103504929 -6.90042476554129e-17)
(-0.183935640036642 0.0113430584715843 -5.11475032360949e-17)
(-0.105364233695871 0.00946391784444368 -4.10789464152268e-17)
(-0.183959340512153 0.0113495485283734 -5.93965291099727e-17)
(-0.105321675943121 0.0094710813502227 1.02429746026563e-16)
(-0.183972958534448 0.0113558209063318 -2.05091006634074e-18)
(-0.105267352451306 0.0094782513960687 1.38028202374162e-16)
(-0.183975436775345 0.0113625685648673 1.66573903656637e-16)
(-0.10520128864938 0.00948469012378976 2.19539558202661e-16)
(-0.183966317002667 0.0113686549059501 1.17431557119582e-16)
(-0.10512282262452 0.00949106080264189 3.48214443283993e-16)
(-0.183945412433907 0.0113740627964921 3.24723060272712e-16)
(-0.105030146708602 0.00949721409717904 7.53386926541595e-17)
(-0.183911386235119 0.0113797543785204 2.76698587773428e-16)
(-0.104923326936988 0.00950246450329744 -1.96937161088291e-16)
(-0.183863327575715 0.011384565297052 -1.62843459165953e-16)
(-0.104802126328354 0.0095083383347308 -1.21440685230426e-16)
(-0.183801734615159 0.0113886478453192 -1.39023757152059e-16)
(-0.104663943995589 0.00951613288735242 3.61130752158639e-17)
(-0.183724747437899 0.0113942302153663 -9.40644775175835e-18)
(-0.104506696118957 0.00952362520412378 6.82662442054944e-17)
(-0.183629478225183 0.011401165039668 6.54939156740528e-17)
(-0.104331036438005 0.00952954947678573 8.80932131769077e-17)
(-0.183515779150287 0.0114060293615055 2.18947032082269e-17)
(-0.104135502515095 0.00953668912354992 7.31331122957879e-17)
(-0.183383304739392 0.0114101689141574 1.67875961650823e-16)
(-0.103916172066479 0.00954487788417306 -2.24305156397597e-17)
(-0.183229050742935 0.0114166143173241 3.23586788094169e-17)
(-0.103672845696256 0.00955216660267264 -1.00624385605988e-16)
(-0.183050881285865 0.0114221308459126 -4.85950047316103e-17)
(-0.103404036527226 0.00955941413615965 -3.17053237217176e-16)
(-0.182848132412684 0.0114268225468645 -1.29525695518997e-16)
(-0.103105963596377 0.00956567402103953 -3.84636155643781e-16)
(-0.182618303935605 0.0114317491027762 -4.08346182404349e-16)
(-0.10277798622642 0.00957056688833533 -1.53373135615183e-16)