/*--------------------------------*- C++ -*----------------------------------*\
| =========                 |                                                 |
| \\      /  F ield         | OpenFOAM: The Open Source CFD Toolbox           |
|  \\    /   O peration     | Version:  4.1                                   |
|   \\  /    A nd           | Web:      www.OpenFOAM.org                      |
|    \\/     M anipulation  |                                                 |
\*---------------------------------------------------------------------------*/
FoamFile
{
    version     2.0;
    format      ascii;
    class       volVectorField;
    location    "0.00013";
    object      wallShearStress;
}
// * * * * * * * * * * * * * * * * * * * * * * * * * * * * * * * * * * * * * //

dimensions      [0 2 -2 0 0 0 0];

internalField   uniform (0 0 0);

boundaryField
{
    inlet
    {
        type            calculated;
        value           uniform (0 0 0);
    }
    outlet
    {
        type            calculated;
        value           uniform (0 0 0);
    }
    mantle
    {
        type            calculated;
        value           nonuniform List<vector> 
1536
(
(1.44031 0.313787 -3.14991)
(-0.26517 -0.590445 -4.63758)
(-0.54588 -0.392127 -1.54718)
(-0.0921545 -0.918594 -1.02202)
(-0.132941 -0.645186 -0.465341)
(-0.379507 -0.264019 -0.196089)
(-0.275964 -0.105861 -0.136188)
(-0.119721 -0.0407234 -0.0322019)
(-0.192574 -0.0930508 -1.65029)
(-0.795345 -0.833774 -1.5687)
(-0.305543 -0.537565 -0.393745)
(-0.181734 -0.330949 -0.0702597)
(-0.369788 0.0293634 -0.00109487)
(-0.386425 0.0333134 -0.084708)
(-0.220161 0.000320553 -0.0405377)
(-0.106313 -0.00640571 -0.0143876)
(0.640329 0.140694 -1.06265)
(-0.0296687 -0.487833 -0.482034)
(-0.341446 -0.18922 0.0111715)
(-0.16861 0.0394869 0.0908942)
(-0.229468 0.107233 0.0493952)
(-0.190871 0.0490707 -0.0022615)
(-0.118845 0.0163997 -0.000155413)
(-0.0938978 0.00665896 -0.00282845)
(-0.433587 0.336551 -0.161703)
(-0.270044 0.0204795 0.0663705)
(-0.165284 0.0476669 0.074299)
(-0.10079 0.0434566 0.0265973)
(-0.1056 0.0334726 0.0172833)
(-0.0923784 0.0194 0.00768744)
(-0.0853763 0.0121113 0.00482438)
(-0.0846921 0.00783226 0.00140735)
(-0.219715 0.0383652 0.0438594)
(-0.094285 0.0127026 0.0254665)
(-0.0755823 0.0160681 0.015419)
(-0.0685707 0.0152782 0.00907182)
(-0.0729027 0.0132827 0.00799982)
(-0.074673 0.0110476 0.00545321)
(-0.07724 0.00861304 0.00370285)
(-0.0794293 0.00641052 0.00193203)
(-0.0850575 0.00528772 0.00981056)
(-0.0644578 0.00816116 0.00527175)
(-0.0637184 0.00751899 0.0059706)
(-0.065612 0.00811112 0.00548829)
(-0.0687964 0.00782136 0.00502615)
(-0.0715695 0.00723766 0.00387977)
(-0.0741345 0.00622605 0.00277919)
(-0.076308 0.00502862 0.00170954)
(-0.0655239 0.00378109 0.00385025)
(-0.0640385 0.00476463 0.00377407)
(-0.0648502 0.0049756 0.0040137)
(-0.0662774 0.00529894 0.00373487)
(-0.0681957 0.00518543 0.0034389)
(-0.0702163 0.00490712 0.00282001)
(-0.0722582 0.00444923 0.00210603)
(-0.0742236 0.0037958 0.0013744)
(-0.0653583 0.00242279 0.00248312)
(-0.0653062 0.00294512 0.00270243)
(-0.0658726 0.00327407 0.00270239)
(-0.0667626 0.00345289 0.00255171)
(-0.0680201 0.00346237 0.00233142)
(-0.0694795 0.00335379 0.00196848)
(-0.0711203 0.00314301 0.00151283)
(-0.0728616 0.0027814 0.00102288)
(-0.0667989 0.00173263 0.00154972)
(-0.0665547 0.00196358 0.00173324)
(-0.0667062 0.00216592 0.00175697)
(-0.0671929 0.00228186 0.00168636)
(-0.0680108 0.00231413 0.00155974)
(-0.0690988 0.00228933 0.0013483)
(-0.070447 0.00220164 0.00105736)
(-0.0719896 0.00200116 0.000729604)
(-0.0680062 0.00117516 0.00100177)
(-0.0674886 0.00130506 0.00113704)
(-0.0673354 0.00144327 0.00115386)
(-0.067537 0.00152051 0.00111885)
(-0.0680676 0.00155959 0.0010456)
(-0.0689052 0.00156723 0.000917032)
(-0.0700444 0.00153585 0.00072869)
(-0.0714313 0.0014234 0.000507542)
(-0.0687877 0.000767699 0.000658776)
(-0.0681047 0.000862116 0.00075467)
(-0.0677689 0.000963172 0.000766438)
(-0.0677855 0.00101993 0.000746461)
(-0.0681356 0.00105752 0.00070168)
(-0.0688075 0.00107591 0.000620608)
(-0.0698013 0.00106932 0.000496844)
(-0.0710728 0.00100519 0.000346062)
(-0.0693082 0.000510648 0.000435778)
(-0.0685187 0.000576578 0.000501432)
(-0.068068 0.000647786 0.000510563)
(-0.0679659 0.00069008 0.000498046)
(-0.068199 0.000720932 0.000470387)
(-0.0687605 0.000740417 0.000418171)
(-0.0696537 0.000743826 0.000335823)
(-0.0708418 0.000706595 0.000231668)
(-0.0696604 0.000345087 0.000290587)
(-0.0688014 0.000390298 0.000334373)
(-0.068276 0.000439647 0.000340917)
(-0.0680966 0.000470486 0.00033257)
(-0.0682527 0.000494052 0.000314893)
(-0.06874 0.000510921 0.000280442)
(-0.069564 0.000517426 0.000225088)
(-0.0706928 0.000495309 0.000152092)
(-0.0698989 0.000236462 0.000194908)
(-0.0689951 0.00026687 0.000223725)
(-0.0684209 0.000300982 0.000228156)
(-0.0681909 0.000323149 0.000222038)
(-0.0682959 0.00034027 0.000210282)
(-0.0687332 0.000353551 0.000187067)
(-0.0695097 0.000360226 0.000149492)
(-0.0705967 0.000346704 9.7504e-05)
(-0.0700616 0.000164615 0.000131236)
(-0.0691285 0.000184455 0.000149873)
(-0.0685222 0.000207848 0.000152755)
(-0.068259 0.000223625 0.000147977)
(-0.06833 0.000235583 0.000139833)
(-0.0687335 0.000245441 0.000123857)
(-0.0694772 0.000251158 9.81224e-05)
(-0.0705351 0.000242598 6.05077e-05)
(-0.0701736 0.000116458 8.85939e-05)
(-0.0692212 0.000129008 0.000100411)
(-0.0685934 0.000145 0.000101942)
(-0.0683083 0.000155778 9.82572e-05)
(-0.0683564 0.000164033 9.2437e-05)
(-0.068737 0.000171024 8.11509e-05)
(-0.0694583 0.000175462 6.34148e-05)
(-0.0704958 0.000169821 3.58517e-05)
(-0.0702513 8.37297e-05 5.98589e-05)
(-0.0692861 9.13428e-05 6.72103e-05)
(-0.0686441 0.00010227 6.76953e-05)
(-0.0683441 0.000109327 6.47929e-05)
(-0.0683768 0.000114932 6.05205e-05)
(-0.0687419 0.000119682 5.2345e-05)
(-0.0694477 0.000122874 4.00866e-05)
(-0.0704712 0.000118973 1.9728e-05)
(-0.0703058 6.1205e-05 4.04635e-05)
(-0.069332 6.55711e-05 4.48566e-05)
(-0.0686805 7.29211e-05 4.46198e-05)
(-0.0683704 7.73904e-05 4.22869e-05)
(-0.0683927 8.11051e-05 3.90476e-05)
(-0.0687472 8.41708e-05 3.29797e-05)
(-0.0694424 8.62842e-05 2.45184e-05)
(-0.0704562 8.34648e-05 9.41458e-06)
(-0.0703443 4.54749e-05 2.73704e-05)
(-0.0693647 4.77794e-05 2.97902e-05)
(-0.0687068 5.25527e-05 2.9096e-05)
(-0.06839 5.53125e-05 2.71995e-05)
(-0.0684052 5.77021e-05 2.46471e-05)
(-0.0687524 5.95422e-05 2.00403e-05)
(-0.0694403 6.07847e-05 1.42159e-05)
(-0.0704473 5.86656e-05 2.99724e-06)
(-0.0703717 3.42396e-05 1.85346e-05)
(-0.0693884 3.52963e-05 1.9681e-05)
(-0.0687261 3.82944e-05 1.87026e-05)
(-0.0684046 3.99488e-05 1.71342e-05)
(-0.0684151 4.14129e-05 1.50344e-05)
(-0.0687574 4.23721e-05 1.15349e-05)
(-0.0694402 4.3012e-05 7.49934e-06)
(-0.0704424 4.13586e-05 -8.6141e-07)
(-0.0703914 2.61021e-05 1.24736e-05)
(-0.0694056 2.64269e-05 1.28399e-05)
(-0.0687403 2.82603e-05 1.17821e-05)
(-0.0684158 2.91998e-05 1.04339e-05)
(-0.0684229 3.00177e-05 8.66874e-06)
(-0.0687618 3.03866e-05 6.01885e-06)
(-0.0694411 3.06509e-05 3.14447e-06)
(-0.0704401 2.93063e-05 -3.14167e-06)
(-0.0704058 2.03545e-05 8.22646e-06)
(-0.0694183 2.01689e-05 8.13487e-06)
(-0.068751 2.11833e-05 7.10686e-06)
(-0.0684244 2.16022e-05 5.96631e-06)
(-0.0684293 2.19891e-05 4.50591e-06)
(-0.0687659 2.20414e-05 2.50257e-06)
(-0.0694427 2.21104e-05 2.65159e-07)
(-0.0704395 2.09221e-05 -4.52625e-06)
(-0.0704166 1.63278e-05 5.20836e-06)
(-0.0694279 1.57503e-05 4.88952e-06)
(-0.0687592 1.61996e-05 3.90044e-06)
(-0.0684311 1.61733e-05 2.98356e-06)
(-0.0684346 1.63114e-05 1.83067e-06)
(-0.0687695 1.62161e-05 2.1507e-07)
(-0.0694448 1.61296e-05 -1.56096e-06)
(-0.07044 1.50976e-05 -5.34832e-06)
(-0.0704248 1.32749e-05 3.09926e-06)
(-0.0694352 1.2443e-05 2.73013e-06)
(-0.0687656 1.25978e-05 1.76821e-06)
(-0.0684365 1.22451e-05 1.03654e-06)
(-0.0684389 1.22411e-05 1.4201e-07)
(-0.0687728 1.20447e-05 -1.24104e-06)
(-0.0694471 1.17774e-05 -2.56451e-06)
(-0.0704412 1.09316e-05 -5.54384e-06)
(-0.0704311 1.06834e-05 1.66907e-06)
(-0.0694409 9.73625e-06 1.36583e-06)
(-0.0687707 9.80393e-06 4.86546e-07)
(-0.0684409 9.29978e-06 -1.26769e-07)
(-0.0684426 9.19707e-06 -8.26853e-07)
(-0.0687757 8.89701e-06 -1.98509e-06)
(-0.0694493 8.4891e-06 -2.86422e-06)
(-0.0704426 7.84205e-06 -5.11023e-06)
(-0.0704358 8.43645e-06 7.514e-07)
(-0.0694452 7.53858e-06 4.9555e-07)
(-0.0687746 7.48939e-06 -2.22755e-07)
(-0.0684443 7.00331e-06 -7.22467e-07)
(-0.0684455 6.82152e-06 -1.27451e-06)
(-0.0687782 6.46979e-06 -2.14944e-06)
(-0.0694511 6.03277e-06 -2.76176e-06)
(-0.070444 5.49416e-06 -4.33676e-06)
(-0.0704394 6.66433e-06 1.53413e-07)
(-0.0694485 5.87614e-06 -6.17136e-08)
(-0.0687776 5.71421e-06 -6.54034e-07)
(-0.068447 5.26257e-06 -1.04523e-06)
(-0.0684478 5.01986e-06 -1.46413e-06)
(-0.0687801 4.66328e-06 -2.08052e-06)
(-0.0694527 4.22739e-06 -2.52356e-06)
(-0.0704452 3.73379e-06 -3.53644e-06)
(-0.0704422 5.53647e-06 -2.30073e-07)
(-0.0694511 4.79217e-06 -4.82467e-07)
(-0.0687799 4.50579e-06 -9.80899e-07)
(-0.068449 4.06604e-06 -1.29239e-06)
(-0.0684496 3.77051e-06 -1.61405e-06)
(-0.0687816 3.40212e-06 -2.05221e-06)
(-0.069454 2.95557e-06 -2.36892e-06)
(-0.0704462 2.49785e-06 -2.97546e-06)
(-0.0704445 4.87747e-06 -4.36666e-07)
(-0.0694532 4.16462e-06 -7.80306e-07)
(-0.0687818 3.75628e-06 -1.22722e-06)
(-0.0684507 3.31339e-06 -1.50528e-06)
(-0.0684511 2.96452e-06 -1.77975e-06)
(-0.0687829 2.56156e-06 -2.0854e-06)
(-0.0694551 2.15024e-06 -2.3008e-06)
(-0.0704471 1.71574e-06 -2.78835e-06)
(-0.0704466 4.43132e-06 -4.72624e-07)
(-0.0694551 3.78406e-06 -9.32052e-07)
(-0.0687835 3.29837e-06 -1.37851e-06)
(-0.0684523 2.84998e-06 -1.63143e-06)
(-0.0684525 2.47973e-06 -1.88801e-06)
(-0.0687841 2.07015e-06 -2.14334e-06)
(-0.0694561 1.67131e-06 -2.32662e-06)
(-0.070448 1.22073e-06 -2.76763e-06)
(-0.0704483 4.0425e-06 -3.8777e-07)
(-0.0694568 3.4699e-06 -9.27024e-07)
(-0.0687851 2.98062e-06 -1.37993e-06)
(-0.0684537 2.54133e-06 -1.62597e-06)
(-0.0684538 2.19141e-06 -1.88195e-06)
(-0.0687853 1.788e-06 -2.13913e-06)
(-0.0694572 1.39485e-06 -2.34175e-06)
(-0.0704489 9.39421e-07 -2.75087e-06)
(-0.0704499 3.57157e-06 -2.15662e-07)
(-0.0694582 3.09742e-06 -7.733e-07)
(-0.0687864 2.68022e-06 -1.21755e-06)
(-0.068455 2.28363e-06 -1.46822e-06)
(-0.068455 1.97464e-06 -1.72501e-06)
(-0.0687864 1.60924e-06 -1.99098e-06)
(-0.0694582 1.24253e-06 -2.22365e-06)
(-0.0704499 8.00048e-07 -2.62307e-06)
(-0.0704512 2.92239e-06 1.8865e-08)
(-0.0694595 2.58682e-06 -4.92434e-07)
(-0.0687876 2.29307e-06 -8.8604e-07)
(-0.0684561 1.98953e-06 -1.13794e-06)
(-0.068456 1.74585e-06 -1.38617e-06)
(-0.0687874 1.45084e-06 -1.64831e-06)
(-0.0694591 1.14541e-06 -1.90821e-06)
(-0.0704508 7.38465e-07 -2.28694e-06)
(-0.0704521 2.07113e-06 2.84043e-07)
(-0.0694604 1.91303e-06 -1.19377e-07)
(-0.0687885 1.77717e-06 -4.14859e-07)
(-0.0684569 1.6048e-06 -6.48426e-07)
(-0.0684568 1.45069e-06 -8.671e-07)
(-0.0687882 1.26106e-06 -1.10135e-06)
(-0.0694599 1.05127e-06 -1.36804e-06)
(-0.0704515 7.07993e-07 -1.70163e-06)
(-0.0704527 1.04712e-06 5.62551e-07)
(-0.0694609 1.08623e-06 3.13657e-07)
(-0.068789 1.11459e-06 1.62292e-07)
(-0.0684574 1.10695e-06 -2.12564e-08)
(-0.0684573 1.0703e-06 -1.89132e-07)
(-0.0687887 1.00469e-06 -3.75483e-07)
(-0.0694604 9.25035e-07 -6.13787e-07)
(-0.070452 6.90194e-07 -8.85957e-07)
(-0.0704528 -8.0316e-08 8.48523e-07)
(-0.069461 1.65047e-07 7.82161e-07)
(-0.0687891 3.34516e-07 8.013e-07)
(-0.0684575 5.08598e-07 7.0248e-07)
(-0.0684574 6.0175e-07 5.99753e-07)
(-0.0687888 6.7438e-07 4.90925e-07)
(-0.0694605 7.51723e-07 2.97311e-07)
(-0.0704521 6.6508e-07 1.36795e-07)
(-0.0704524 -1.25762e-06 1.13049e-06)
(-0.0694606 -8.05134e-07 1.26894e-06)
(-0.0687887 -4.93094e-07 1.45621e-06)
(-0.0684571 -1.43178e-07 1.45306e-06)
(-0.068457 8.36046e-08 1.43341e-06)
(-0.0687884 3.02854e-07 1.42701e-06)
(-0.0694602 5.41331e-07 1.28595e-06)
(-0.0704518 6.28471e-07 1.29391e-06)
(-0.0704516 -2.42414e-06 1.39985e-06)
(-0.0694598 -1.71236e-06 1.72182e-06)
(-0.0687878 -1.27869e-06 2.04506e-06)
(-0.0684562 -7.66449e-07 2.14666e-06)
(-0.0684562 -3.9868e-07 2.21118e-06)
(-0.0687876 -3.63443e-08 2.28486e-06)
(-0.0694594 3.52275e-07 2.20925e-06)
(-0.0704511 6.3152e-07 2.34111e-06)
(-0.0704504 -3.35943e-06 1.58566e-06)
(-0.0694585 -2.46428e-06 2.07798e-06)
(-0.0687865 -1.89574e-06 2.51285e-06)
(-0.068455 -1.25465e-06 2.69087e-06)
(-0.0684549 -7.6037e-07 2.82476e-06)
(-0.0687864 -2.70843e-07 2.94051e-06)
(-0.0694582 2.37985e-07 2.90749e-06)
(-0.07045 6.81471e-07 3.09019e-06)
(-0.0704489 -3.9376e-06 1.68204e-06)
(-0.069457 -2.95252e-06 2.27952e-06)
(-0.068785 -2.2949e-06 2.80089e-06)
(-0.0684535 -1.55537e-06 3.02648e-06)
(-0.0684535 -9.72879e-07 3.20168e-06)
(-0.068785 -3.8898e-07 3.33405e-06)
(-0.0694569 2.02963e-07 3.3066e-06)
(-0.0704488 7.45208e-07 3.48282e-06)
(-0.0704472 -4.17665e-06 1.69329e-06)
(-0.0694553 -3.17361e-06 2.32465e-06)
(-0.0687834 -2.48715e-06 2.89656e-06)
(-0.0684519 -1.69997e-06 3.15054e-06)
(-0.0684519 -1.07855e-06 3.34435e-06)
(-0.0687835 -4.45341e-07 3.49411e-06)
(-0.0694555 1.90512e-07 3.46007e-06)
(-0.0704475 7.6748e-07 3.62008e-06)
(-0.0704456 -4.20498e-06 1.63167e-06)
(-0.0694537 -3.20925e-06 2.24334e-06)
(-0.0687818 -2.55681e-06 2.83733e-06)
(-0.0684503 -1.7717e-06 3.10727e-06)
(-0.0684504 -1.16079e-06 3.32235e-06)
(-0.0687821 -5.2013e-07 3.50442e-06)
(-0.0694541 1.22622e-07 3.49252e-06)
(-0.0704462 7.04198e-07 3.6781e-06)
(-0.070444 -4.07772e-06 1.49414e-06)
(-0.0694521 -3.13822e-06 2.06493e-06)
(-0.0687802 -2.54997e-06 2.65208e-06)
(-0.0684488 -1.82082e-06 2.94003e-06)
(-0.0684489 -1.25474e-06 3.18434e-06)
(-0.0687806 -6.4926e-07 3.42152e-06)
(-0.0694528 -2.62983e-08 3.47345e-06)
(-0.0704449 5.48435e-07 3.74757e-06)
(-0.0704425 -3.78534e-06 1.28647e-06)
(-0.0694506 -2.95319e-06 1.79894e-06)
(-0.0687787 -2.45709e-06 2.35733e-06)
(-0.0684473 -1.82518e-06 2.66293e-06)
(-0.0684475 -1.33122e-06 2.93296e-06)
(-0.0687792 -7.96997e-07 3.23363e-06)
(-0.0694514 -2.11519e-07 3.37291e-06)
(-0.0704436 3.48648e-07 3.73597e-06)
(-0.0704412 -3.32598e-06 1.03278e-06)
(-0.0694493 -2.63323e-06 1.47558e-06)
(-0.0687774 -2.24287e-06 1.97294e-06)
(-0.068446 -1.73568e-06 2.28187e-06)
(-0.0684461 -1.32809e-06 2.56439e-06)
(-0.0687779 -8.7957e-07 2.89244e-06)
(-0.0694501 -3.6036e-07 3.0995e-06)
(-0.0704423 1.59401e-07 3.50984e-06)
(-0.0704401 -2.52283e-06 7.39341e-07)
(-0.0694482 -2.00334e-06 1.06365e-06)
(-0.0687762 -1.71925e-06 1.42911e-06)
(-0.0684448 -1.36457e-06 1.68376e-06)
(-0.068445 -1.07357e-06 1.92318e-06)
(-0.0687767 -7.54912e-07 2.21318e-06)
(-0.0694489 -3.69133e-07 2.43365e-06)
(-0.0704411 3.85268e-08 2.8289e-06)
(-0.0704399 -1.9941e-06 5.10807e-07)
(-0.069448 -1.67223e-06 8.00679e-07)
(-0.068776 -1.48344e-06 1.10488e-06)
(-0.0684446 -1.23218e-06 1.33536e-06)
(-0.0684447 -1.00901e-06 1.5479e-06)
(-0.0687763 -7.55132e-07 1.78702e-06)
(-0.0694485 -4.36311e-07 1.97591e-06)
(-0.0704407 -8.45666e-08 2.26833e-06)
(-0.0704381 -1.0186e-06 2.1292e-07)
(-0.0694461 -9.15504e-07 3.8535e-07)
(-0.0687741 -8.39244e-07 5.56933e-07)
(-0.0684426 -7.24562e-07 6.91036e-07)
(-0.0684427 -6.08964e-07 8.11167e-07)
(-0.0687744 -4.69388e-07 9.29612e-07)
(-0.0694466 -2.9491e-07 1.01544e-06)
(-0.0704388 -1.01363e-07 1.12835e-06)
(-0.0808366 -0.0160278 -0.00780045)
(-0.0801625 -0.00867629 -0.00361184)
(-0.081003 -0.00546198 -0.0025164)
(-0.0816091 -0.00410625 -0.00202497)
(-0.0822609 -0.00363822 -0.00160606)
(-0.0831658 -0.00363695 -0.00116646)
(-0.0844521 -0.00397516 -0.000634541)
(-0.08617 -0.00448657 0.000399947)
(-0.0898066 -0.00569303 -0.00508118)
(-0.0857697 -0.00433689 -0.00166586)
(-0.0838559 -0.00280308 7.59339e-05)
(-0.0829767 -0.0015552 0.000793516)
(-0.0828008 -0.000724451 0.00107335)
(-0.083227 -0.000180953 0.00120908)
(-0.084211 0.000153815 0.00132339)
(-0.0857179 0.000484789 0.0015864)
(-0.0892038 0.00228055 -0.00131909)
(-0.0854705 0.000568301 -5.33091e-05)
(-0.08311 0.000290226 0.00090423)
(-0.0817801 0.000479721 0.00139047)
(-0.0812361 0.00074948 0.00163413)
(-0.0813413 0.00103703 0.00178026)
(-0.0820268 0.00129059 0.00189516)
(-0.083201 0.00165249 0.0021285)
(-0.0841266 0.00474645 0.000694577)
(-0.0821299 0.00289309 0.000795656)
(-0.0805936 0.00203733 0.00111879)
(-0.079643 0.00168418 0.00135421)
(-0.079241 0.00154158 0.00152384)
(-0.0793416 0.00152638 0.0016853)
(-0.0799394 0.00157877 0.00184862)
(-0.0809514 0.00178672 0.00215588)
(-0.0798646 0.00473423 0.0010619)
(-0.078782 0.0033836 0.000895191)
(-0.077843 0.00254916 0.00097395)
(-0.0772578 0.00207226 0.00111604)
(-0.0770655 0.00179516 0.00125303)
(-0.0772614 0.00163584 0.00141286)
(-0.0778631 0.00157797 0.0016045)
(-0.0788209 0.00168166 0.00193429)
(-0.0768971 0.00408286 0.000963634)
(-0.0761271 0.00312994 0.000740423)
(-0.0754848 0.00245432 0.000739943)
(-0.0751143 0.00200553 0.000835307)
(-0.0750587 0.00171444 0.000959363)
(-0.0753403 0.00151743 0.00111233)
(-0.0759618 0.00141721 0.00130478)
(-0.0769042 0.00146493 0.00161891)
(-0.0748001 0.00326582 0.000776286)
(-0.0741264 0.0026114 0.000554978)
(-0.0736128 0.00210553 0.000528854)
(-0.073353 0.00173666 0.000594142)
(-0.0733758 0.00147636 0.000702817)
(-0.0737087 0.0012957 0.000843877)
(-0.0743517 0.00118802 0.00101555)
(-0.0752948 0.00120671 0.001293)
(-0.0733524 0.00248754 0.000574774)
(-0.0726773 0.00204961 0.000390739)
(-0.0721995 0.00168664 0.000361398)
(-0.0719825 0.00140464 0.000409762)
(-0.0720428 0.00119391 0.000501105)
(-0.072399 0.00104457 0.000622143)
(-0.0730595 0.000947 0.000767601)
(-0.0740094 0.000952882 0.000999124)
(-0.0723754 0.00183738 0.000403842)
(-0.0716568 0.00154773 0.0002639)
(-0.0711686 0.0012933 0.000239198)
(-0.0709561 0.00108602 0.000276561)
(-0.0710265 0.000925035 0.000350718)
(-0.071391 0.000807985 0.00044931)
(-0.072062 0.000727339 0.000568168)
(-0.0730195 0.000728286 0.000753251)
(-0.0717216 0.00132996 0.00027461)
(-0.0709484 0.00113884 0.000173251)
(-0.0704318 0.000962686 0.000154751)
(-0.0702063 0.000813856 0.000183862)
(-0.0702726 0.000694832 0.000242015)
(-0.0706368 0.000606024 0.000319721)
(-0.071313 0.000543067 0.000414057)
(-0.0722777 0.000542205 0.000557442)
(-0.0712855 0.000949266 0.000181687)
(-0.070461 0.000822542 0.000110806)
(-0.0699124 0.000701321 9.80554e-05)
(-0.069668 0.000596041 0.000120828)
(-0.0697241 0.000509944 0.000164939)
(-0.0700845 0.000443656 0.000224723)
(-0.0707622 0.00039623 0.000298101)
(-0.0717333 0.000394432 0.000406476)
(-0.0709952 0.000670645 0.000116758)
(-0.0701278 0.000585849 6.8751e-05)
(-0.06955 0.000502726 6.06688e-05)
(-0.0692864 0.000428863 7.82956e-05)
(-0.0693311 0.000367209 0.000111277)
(-0.0696869 0.000318506 0.000156473)
(-0.070364 0.000283431 0.000212275)
(-0.0713404 0.000281157 0.000292906)
(-0.0708022 0.000470043 7.22618e-05)
(-0.0699012 0.000412641 4.09222e-05)
(-0.0692992 0.00035585 3.63912e-05)
(-0.069019 0.000304243 4.97505e-05)
(-0.0690531 0.000260129 7.44187e-05)
(-0.069404 0.000224964 0.000108141)
(-0.07008 0.000199138 0.000149522)
(-0.0710604 0.000196603 0.000209067)
(-0.0706742 0.000327247 4.22022e-05)
(-0.0697478 0.000287854 2.27935e-05)
(-0.0691269 0.000249202 2.08352e-05)
(-0.0688332 0.000213306 3.08894e-05)
(-0.0688586 0.000181789 4.9158e-05)
(-0.0692046 0.000156611 7.40728e-05)
(-0.0698798 0.000137534 0.000104312)
(-0.0708632 0.000134802 0.000147986)
(-0.0705898 0.000226467 2.22418e-05)
(-0.0696445 0.000199088 1.1245e-05)
(-0.0690091 0.00017288 1.0928e-05)
(-0.0687051 0.000147984 1.85073e-05)
(-0.0687237 0.000125477 3.18934e-05)
(-0.0690657 0.000107406 5.02143e-05)
(-0.0697402 9.3459e-05 7.21339e-05)
(-0.0707258 9.04181e-05 0.000103886)
(-0.0705343 0.000155846 9.39453e-06)
(-0.0695753 0.000136687 4.11719e-06)
(-0.0689293 0.000118888 4.53153e-06)
(-0.0686174 0.000101546 1.03426e-05)
(-0.0686309 8.54912e-05 2.00691e-05)
(-0.0689698 7.22834e-05 3.35485e-05)
(-0.0696438 6.23865e-05 4.95255e-05)
(-0.0706309 5.91604e-05 7.23386e-05)
(-0.0704983 0.000106736 1.5131e-06)
(-0.0695294 9.32247e-05 -2.58571e-07)
(-0.0688756 8.10076e-05 3.95153e-07)
(-0.068558 6.88244e-05 4.94955e-06)
(-0.0685676 5.73668e-05 1.20046e-05)
(-0.0689044 4.75148e-05 2.19926e-05)
(-0.0695777 4.07975e-05 3.37228e-05)
(-0.070566 3.73961e-05 4.9895e-05)
(-0.0704752 7.28163e-05 -3.05597e-06)
(-0.0694992 6.31629e-05 -2.93122e-06)
(-0.06884 5.46196e-05 -2.22843e-06)
(-0.0685183 4.59679e-05 1.4235e-06)
(-0.068525 3.77513e-05 6.61538e-06)
(-0.0688603 3.04539e-05 1.40622e-05)
(-0.0695329 2.58466e-05 2.2595e-05)
(-0.0705222 2.23949e-05 3.40731e-05)
(-0.0704607 4.95064e-05 -5.53888e-06)
(-0.0694797 4.25267e-05 -4.47302e-06)
(-0.0688166 3.63929e-05 -3.82556e-06)
(-0.068492 3.01596e-05 -8.42974e-07)
(-0.0684967 2.4213e-05 3.04964e-06)
(-0.0688308 1.88427e-05 8.64038e-06)
(-0.0695031 1.55947e-05 1.48364e-05)
(-0.070493 1.23741e-05 2.30513e-05)
(-0.0704518 3.35686e-05 -6.72636e-06)
(-0.0694674 2.84421e-05 -5.31928e-06)
(-0.0688017 2.38987e-05 -4.7482e-06)
(-0.0684749 1.93224e-05 -2.27955e-06)
(-0.0684782 1.498e-05 6.87813e-07)
(-0.0688114 1.09742e-05 4.89967e-06)
(-0.0694834 8.59625e-06 9.47627e-06)
(-0.0704739 5.81228e-06 1.54348e-05)
(-0.0704467 2.27084e-05 -7.2323e-06)
(-0.06946 1.88576e-05 -5.7743e-06)
(-0.0687924 1.53762e-05 -5.27181e-06)
(-0.0684641 1.19189e-05 -3.23596e-06)
(-0.0684664 8.68369e-06 -9.35731e-07)
(-0.068799 5.62325e-06 2.24328e-06)
(-0.0694708 3.77918e-06 5.72533e-06)
(-0.0704616 1.47024e-06 1.01654e-05)
(-0.0704441 1.52978e-05 -7.38049e-06)
(-0.0694559 1.23213e-05 -6.03201e-06)
(-0.068787 9.57341e-06 -5.59912e-06)
(-0.0684577 6.87997e-06 -3.92825e-06)
(-0.0684592 4.38097e-06 -2.1161e-06)
(-0.0687914 1.96474e-06 3.30469e-07)
(-0.0694631 4.44777e-07 3.06747e-06)
(-0.0704541 -1.50657e-06 6.47967e-06)
(-0.0704433 1.02289e-05 -7.31749e-06)
(-0.069454 7.8994e-06 -6.03586e-06)
(-0.0687842 5.67974e-06 -5.72002e-06)
(-0.0684543 3.52841e-06 -4.34193e-06)
(-0.0684553 1.53006e-06 -2.91515e-06)
(-0.0687872 -4.24603e-07 -9.67826e-07)
(-0.0694589 -1.72351e-06 1.23886e-06)
(-0.07045 -3.46771e-06 3.93496e-06)
(-0.0704435 6.7867e-06 -6.91509e-06)
(-0.0694536 4.99697e-06 -5.70777e-06)
(-0.0687832 3.20086e-06 -5.52415e-06)
(-0.0684528 1.43275e-06 -4.39342e-06)
(-0.0684535 -1.71347e-07 -3.23849e-06)
(-0.0687853 -1.76713e-06 -1.70496e-06)
(-0.069457 -2.89145e-06 7.619e-08)
(-0.0704483 -4.4991e-06 2.22469e-06)
(-0.0704443 4.49412e-06 -6.06226e-06)
(-0.0694539 3.13761e-06 -5.05469e-06)
(-0.0687832 1.70799e-06 -4.9385e-06)
(-0.0684525 2.64235e-07 -4.06554e-06)
(-0.068453 -9.98724e-07 -3.12173e-06)
(-0.0687847 -2.26783e-06 -1.94833e-06)
(-0.0694564 -3.22603e-06 -5.29526e-07)
(-0.0704478 -4.62308e-06 1.13164e-06)
(-0.0704453 2.96665e-06 -4.94424e-06)
(-0.0694545 1.94042e-06 -4.20355e-06)
(-0.0687836 8.51637e-07 -4.03504e-06)
(-0.0684527 -2.44059e-07 -3.40412e-06)
(-0.0684531 -1.20922e-06 -2.67172e-06)
(-0.0687848 -2.1776e-06 -1.80581e-06)
(-0.0694565 -2.93758e-06 -7.14403e-07)
(-0.0704479 -4.06017e-06 4.92731e-07)
(-0.0704461 1.91019e-06 -3.8575e-06)
(-0.0694551 1.14831e-06 -3.34521e-06)
(-0.068784 3.35337e-07 -3.11508e-06)
(-0.068453 -4.31674e-07 -2.64099e-06)
(-0.0684534 -1.12864e-06 -2.09859e-06)
(-0.0687849 -1.83368e-06 -1.47739e-06)
(-0.0694567 -2.39851e-06 -6.59237e-07)
(-0.0704482 -3.2241e-06 1.62806e-07)
(-0.0704468 1.1204e-06 -3.10903e-06)
(-0.0694557 5.70121e-07 -2.64727e-06)
(-0.0687844 -2.42658e-08 -2.40901e-06)
(-0.0684533 -5.48482e-07 -2.01462e-06)
(-0.0684536 -1.03281e-06 -1.60278e-06)
(-0.0687851 -1.53005e-06 -1.15173e-06)
(-0.0694569 -1.93712e-06 -5.55338e-07)
(-0.0704485 -2.55554e-06 6.6331e-09)
(-0.0704475 4.98834e-07 -2.75916e-06)
(-0.0694562 1.03274e-07 -2.22877e-06)
(-0.0687848 -3.36717e-07 -1.99018e-06)
(-0.0684536 -7.07232e-07 -1.62384e-06)
(-0.0684538 -1.04905e-06 -1.28801e-06)
(-0.0687854 -1.41927e-06 -9.36984e-07)
(-0.0694572 -1.72331e-06 -4.88365e-07)
(-0.0704488 -2.24827e-06 -7.50882e-08)
(-0.0704483 7.23934e-08 -2.6292e-06)
(-0.0694568 -2.57e-07 -2.06893e-06)
(-0.0687853 -6.22543e-07 -1.79477e-06)
(-0.068454 -9.06885e-07 -1.43748e-06)
(-0.0684542 -1.17267e-06 -1.13671e-06)
(-0.0687857 -1.47299e-06 -8.36018e-07)
(-0.0694575 -1.73606e-06 -4.61503e-07)
(-0.0704492 -2.19504e-06 -9.78178e-08)
(-0.0704491 -1.69426e-07 -2.58518e-06)
(-0.0694575 -5.01628e-07 -2.03164e-06)
(-0.0687859 -8.50353e-07 -1.71802e-06)
(-0.0684546 -1.09084e-06 -1.35701e-06)
(-0.0684547 -1.32485e-06 -1.07043e-06)
(-0.0687862 -1.58859e-06 -7.81032e-07)
(-0.0694581 -1.82912e-06 -4.29812e-07)
(-0.0704497 -2.22161e-06 -5.66154e-08)
(-0.0704499 -2.59708e-07 -2.49219e-06)
(-0.0694583 -6.21213e-07 -1.97741e-06)
(-0.0687866 -9.73466e-07 -1.6465e-06)
(-0.0684552 -1.19926e-06 -1.28466e-06)
(-0.0684553 -1.41694e-06 -9.97003e-07)
(-0.0687868 -1.64875e-06 -6.98511e-07)
(-0.0694587 -1.85491e-06 -3.56793e-07)
(-0.0704504 -2.16296e-06 4.89557e-08)
(-0.0704507 -2.23425e-07 -2.22271e-06)
(-0.0694591 -6.03883e-07 -1.78374e-06)
(-0.0687873 -9.49165e-07 -1.46719e-06)
(-0.0684559 -1.16225e-06 -1.12108e-06)
(-0.0684559 -1.35533e-06 -8.33711e-07)
(-0.0687874 -1.53265e-06 -5.28778e-07)
(-0.0694593 -1.68145e-06 -2.05353e-07)
(-0.070451 -1.86291e-06 2.11174e-07)
(-0.0704514 -8.09444e-08 -1.71201e-06)
(-0.0694597 -4.53617e-07 -1.39813e-06)
(-0.0687879 -7.59724e-07 -1.12407e-06)
(-0.0684564 -9.46565e-07 -8.2036e-07)
(-0.0684564 -1.09177e-06 -5.49686e-07)
(-0.0687879 -1.19283e-06 -2.5928e-07)
(-0.0694597 -1.25701e-06 2.40084e-08)
(-0.0704515 -1.27569e-06 4.07091e-07)
(-0.0704519 1.53683e-07 -9.71374e-07)
(-0.0694601 -1.77448e-07 -8.27951e-07)
(-0.0687882 -4.10517e-07 -6.23391e-07)
(-0.0684567 -5.52856e-07 -3.95814e-07)
(-0.0684567 -6.35039e-07 -1.7014e-07)
(-0.0687881 -6.51486e-07 7.1345e-08)
(-0.0694599 -6.32404e-07 2.89553e-07)
(-0.0704517 -4.78432e-07 6.09476e-07)
(-0.070452 4.83575e-07 -4.05925e-08)
(-0.0694601 2.10686e-07 -1.31732e-07)
(-0.0687882 6.83808e-08 -2.01532e-08)
(-0.0684566 -2.42056e-08 8.86593e-08)
(-0.0684565 -5.54522e-08 2.37667e-07)
(-0.068788 4.44398e-09 4.01543e-07)
(-0.0694597 5.58372e-08 5.33445e-07)
(-0.0704515 3.71092e-07 7.81801e-07)
(-0.0704517 9.08771e-07 9.98374e-07)
(-0.0694597 6.66607e-07 5.73931e-07)
(-0.0687877 6.01119e-07 6.09262e-07)
(-0.0684561 5.59285e-07 5.52805e-07)
(-0.068456 5.51297e-07 5.98397e-07)
(-0.0687874 6.67805e-07 6.64429e-07)
(-0.0694592 6.97638e-07 7.11664e-07)
(-0.070451 1.16406e-06 9.0761e-07)
(-0.0704509 1.31535e-06 1.90206e-06)
(-0.069459 1.11666e-06 1.19496e-06)
(-0.0687869 1.08271e-06 1.09092e-06)
(-0.0684553 1.06329e-06 9.07094e-07)
(-0.0684552 1.06995e-06 8.49698e-07)
(-0.0687866 1.20293e-06 8.32786e-07)
(-0.0694585 1.23383e-06 8.15553e-07)
(-0.0704503 1.77174e-06 9.53514e-07)
(-0.0704499 1.63582e-06 2.51033e-06)
(-0.0694579 1.44567e-06 1.58688e-06)
(-0.0687859 1.4244e-06 1.37876e-06)
(-0.0684543 1.41443e-06 1.10907e-06)
(-0.0684542 1.42376e-06 9.70295e-07)
(-0.0687856 1.54212e-06 8.95598e-07)
(-0.0694575 1.57368e-06 8.436e-07)
(-0.0704494 2.14399e-06 9.51354e-07)
(-0.0704487 1.82455e-06 2.7968e-06)
(-0.0694567 1.62322e-06 1.76031e-06)
(-0.0687847 1.60594e-06 1.49672e-06)
(-0.0684531 1.59739e-06 1.18181e-06)
(-0.0684531 1.60623e-06 1.00424e-06)
(-0.0687846 1.71724e-06 8.9813e-07)
(-0.0694565 1.74979e-06 8.27612e-07)
(-0.0704484 2.33446e-06 9.34366e-07)
(-0.0704475 1.88798e-06 2.90417e-06)
(-0.0694556 1.68237e-06 1.83479e-06)
(-0.0687836 1.68313e-06 1.5634e-06)
(-0.068452 1.68481e-06 1.22435e-06)
(-0.068452 1.7036e-06 1.03688e-06)
(-0.0687835 1.83188e-06 9.14056e-07)
(-0.0694555 1.87935e-06 8.1903e-07)
(-0.0704474 2.47697e-06 9.17822e-07)
(-0.0704463 1.85704e-06 3.00999e-06)
(-0.0694544 1.68648e-06 1.95545e-06)
(-0.0687824 1.73278e-06 1.69324e-06)
(-0.0684509 1.76384e-06 1.3339e-06)
(-0.0684509 1.81355e-06 1.14038e-06)
(-0.0687825 1.98648e-06 9.98662e-07)
(-0.0694545 2.06866e-06 8.57146e-07)
(-0.0704464 2.68562e-06 9.10875e-07)
(-0.0704451 1.75922e-06 3.18049e-06)
(-0.0694532 1.66995e-06 2.15814e-06)
(-0.0687812 1.77897e-06 1.8925e-06)
(-0.0684497 1.85659e-06 1.51421e-06)
(-0.0684497 1.95444e-06 1.30531e-06)
(-0.0687813 2.18623e-06 1.13352e-06)
(-0.0694534 2.30826e-06 9.32056e-07)
(-0.0704453 2.96338e-06 9.14116e-07)
(-0.0704438 1.59528e-06 3.29572e-06)
(-0.0694519 1.60609e-06 2.32971e-06)
(-0.0687799 1.77608e-06 2.05695e-06)
(-0.0684484 1.90285e-06 1.67114e-06)
(-0.0684485 2.04759e-06 1.44538e-06)
(-0.0687801 2.32414e-06 1.24586e-06)
(-0.0694521 2.48794e-06 9.94377e-07)
(-0.0704441 3.16718e-06 8.98644e-07)
(-0.0704425 1.36249e-06 3.2048e-06)
(-0.0694506 1.45648e-06 2.3401e-06)
(-0.0687786 1.66752e-06 2.07257e-06)
(-0.0684471 1.82908e-06 1.69712e-06)
(-0.0684472 1.99649e-06 1.46669e-06)
(-0.0687788 2.28703e-06 1.25985e-06)
(-0.0694508 2.47821e-06 9.86784e-07)
(-0.0704428 3.13462e-06 8.30725e-07)
(-0.0704413 1.04353e-06 2.6305e-06)
(-0.0694494 1.14872e-06 1.92665e-06)
(-0.0687774 1.32223e-06 1.69295e-06)
(-0.0684459 1.45949e-06 1.38291e-06)
(-0.0684459 1.59813e-06 1.19571e-06)
(-0.0687775 1.84829e-06 1.03956e-06)
(-0.0694496 2.03272e-06 8.16842e-07)
(-0.0704416 2.59685e-06 6.70045e-07)
(-0.0704409 7.34746e-07 2.16033e-06)
(-0.069449 9.08207e-07 1.68585e-06)
(-0.068777 1.09658e-06 1.50231e-06)
(-0.0684455 1.24999e-06 1.25981e-06)
(-0.0684456 1.39247e-06 1.08577e-06)
(-0.0687772 1.60314e-06 9.2968e-07)
(-0.0694492 1.7599e-06 7.0707e-07)
(-0.0704412 2.15609e-06 5.10207e-07)
(-0.070439 3.01507e-07 1.0931e-06)
(-0.069447 4.39069e-07 9.25506e-07)
(-0.0687751 5.71768e-07 8.41367e-07)
(-0.0684436 6.80158e-07 7.23853e-07)
(-0.0684436 7.74456e-07 6.17839e-07)
(-0.0687752 8.81415e-07 5.0988e-07)
(-0.0694472 9.55122e-07 3.64172e-07)
(-0.0704393 1.09593e-06 2.18573e-07)
(-0.0868548 -0.00423646 0.00129236)
(-0.086717 -0.00308047 0.00256542)
(-0.0872971 -0.00175043 0.00339022)
(-0.0888374 -0.000195024 0.00424287)
(-0.0916289 0.00196726 0.00524193)
(-0.0961899 0.00533619 0.00659238)
(-0.103415 0.0112959 0.00837011)
(-0.114969 0.0240698 0.0106844)
(-0.0862172 0.00100284 0.00164563)
(-0.0857107 0.00187886 0.00214982)
(-0.0857465 0.00314096 0.002441)
(-0.0864333 0.00479812 0.00272275)
(-0.0878332 0.00721675 0.0029525)
(-0.0900279 0.0108621 0.00306407)
(-0.0931044 0.0167225 0.00276788)
(-0.0970393 0.0266031 0.0014626)
(-0.0834161 0.00226869 0.00208244)
(-0.0825318 0.00321382 0.00249255)