/*--------------------------------*- C++ -*----------------------------------*\
| =========                 |                                                 |
| \\      /  F ield         | OpenFOAM: The Open Source CFD Toolbox           |
|  \\    /   O peration     | Version:  4.1                                   |
|   \\  /    A nd           | Web:      www.OpenFOAM.org                      |
|    \\/     M anipulation  |                                                 |
\*---------------------------------------------------------------------------*/
FoamFile
{
    version     2.0;
    format      ascii;
    class       surfaceScalarField;
    location    "0.0094";
    object      meshPhi;
}
// * * * * * * * * * * * * * * * * * * * * * * * * * * * * * * * * * * * * * //

dimensions      [0 3 -1 0 0 0 0];

internalField   nonuniform List<scalar> 
17536
(
2.2706e-21
-2.2719e-10
-2.2726e-10
3.4085e-10
3.4083e-10
2.2845e-21
-6.8311e-10
-6.9146e-10
8.6221e-10
8.5401e-10
0
-9.9464e-10
-9.9493e-10
1.2071e-09
1.207e-09
4.6236e-21
-9.9712e-10
-9.8928e-10
1.292e-09
1.3e-09
5.0139e-10
-8.3558e-10
-8.4418e-10
1.1263e-09
1.1179e-09
9.1755e-25
-6.074e-10
-6.0769e-10
9.4836e-10
9.4815e-10
-2.3408e-21
-2.3019e-10
-2.1373e-10
5.1018e-10
5.2645e-10
-2.3466e-21
3.0464e-10
3.1314e-10
-2.7197e-10
-2.6374e-10
0
1.0785e-09
1.0709e-09
-1.3102e-09
-1.3182e-09
2.0337e-09
2.0035e-09
1.9964e-09
-2.6159e-09
-2.6237e-09
-1.1764e-21
2.9911e-09
2.9187e-09
-4.0165e-09
-3.9252e-09
3.3898e-24
4.146e-09
4.074e-09
-5.5025e-09
-5.4109e-09
-2.2636e-24
5.288e-09
5.299e-09
-7.073e-09
-7.0637e-09
2.0208e-09
6.3503e-09
6.362e-09
-8.4629e-09
-8.4536e-09
2.0108e-09
7.3392e-09
7.343e-09
-9.66e-09
-9.6588e-09
2.4031e-09
8.0903e-09
8.0944e-09
-1.0688e-08
-1.0686e-08
2.6399e-09
8.608e-09
8.6122e-09
-1.1445e-08
-1.1444e-08
3.123e-09
8.8275e-09
8.8317e-09
-1.1675e-08
-1.1674e-08
3.3538e-09
8.6628e-09
8.6587e-09
-1.1471e-08
-1.1478e-08
3.6827e-09
8.2651e-09
8.2609e-09
-1.0937e-08
-1.0944e-08
4.0091e-09
7.5605e-09
7.5642e-09
-9.9829e-09
-9.9816e-09
4.2869e-09
6.5596e-09
6.5629e-09
-8.8492e-09
-8.8479e-09
4.566e-09
5.5718e-09
5.5746e-09
-7.632e-09
-7.6308e-09
4.6859e-09
4.7507e-09
4.7531e-09
-6.3386e-09
-6.3375e-09
4.7604e-09
3.6971e-09
3.7071e-09
-4.8793e-09
-4.8702e-09
4.8327e-09
2.4839e-09
2.4935e-09
-3.3423e-09
-3.3335e-09
4.687e-09
1.3532e-09
1.3622e-09
-1.8077e-09
-1.7991e-09
4.7388e-09
3.0338e-10
3.1185e-10
-3.5403e-10
-3.4567e-10
4.6467e-09
-5.1173e-10
-5.1175e-10
7.6925e-10
7.6934e-10
4.4614e-09
-1.1927e-09
-1.193e-09
1.7089e-09
1.7088e-09
4.4215e-09
-1.5015e-09
-1.5021e-09
2.2135e-09
2.2132e-09
4.2826e-09
-1.4299e-09
-1.4223e-09
2.0456e-09
2.0534e-09
4.046e-09
-1.124e-09
-1.1164e-09
1.5447e-09
1.5526e-09
3.9034e-09
-7.5193e-10
-7.5228e-10
8.6442e-10
8.6422e-10
3.9053e-09
-3.0682e-10
-3.0696e-10
2.5709e-10
2.5696e-10
3.9053e-09
2.2048e-10
2.2869e-10
-4.3275e-10
-4.2465e-10
3.9039e-09
5.9423e-10
6.0263e-10
-9.5279e-10
-9.446e-10
3.9015e-09
7.4769e-10
7.4799e-10
-1.122e-09
-1.122e-09
3.8995e-09
9.0192e-10
9.1041e-10
-1.2927e-09
-1.2845e-09
1.9483e-09
9.0323e-10
9.1176e-10
-1.2125e-09
-1.2042e-09
1.9477e-09
6.7545e-10
6.7579e-10
-9.5256e-10
-9.5246e-10
1.9471e-09
5.2948e-10
5.2982e-10
-6.9244e-10
-6.9232e-10
4.8681e-10
3.755e-10
3.7583e-10
-4.4128e-10
-4.4112e-10
1.9491e-09
3.03e-10
3.0332e-10
-4.3507e-10
-4.3491e-10
1.464e-09
3.1271e-10
3.1299e-10
-4.2946e-10
-4.2931e-10
9.768e-10
3.1199e-10
3.1223e-10
-3.4621e-10
-3.4609e-10
4.8847e-10
3.1949e-10
3.1146e-10
-3.3591e-10
-3.4403e-10
1.6362e-10
1.5548e-10
-1.6394e-10
-1.7211e-10
0
-1.1363e-10
-1.7861e-10
2.9227e-10
-2.2859e-21
-2.7657e-10
-5.2908e-10
7.897e-10
2.3006e-21
-4.5679e-10
-7.9183e-10
1.1843e-09
2.3151e-21
-5.8066e-10
-8.9235e-10
1.2945e-09
-2.3278e-21
-5.1649e-10
-8.1265e-10
1.1175e-09
0
-4.1086e-10
-5.4304e-10
9.0622e-10
0
-1.728e-10
-1.8134e-10
4.0443e-10
-2.3528e-21
2.5573e-10
3.6338e-10
-3.9705e-10
0
8.0818e-10
1.0818e-09
-1.4889e-09
2.0392e-09
1.4037e-09
1.9022e-09
-2.7918e-09
1.4023e-24
2.0467e-09
2.9013e-09
-4.1232e-09
1.1765e-21
2.8398e-09
4.0676e-09
-5.6395e-09
1.176e-21
3.5385e-09
5.1548e-09
-7.1568e-09
2.0254e-09
4.25e-09
6.1452e-09
-8.6488e-09
2.0151e-09
4.99e-09
7.1943e-09
-9.93e-09
2.4073e-09
5.5309e-09
8.0598e-09
-1.084e-08
2.5947e-09
5.8727e-09
8.5026e-09
-1.1603e-08
3.1773e-09
5.9822e-09
8.5805e-09
-1.1934e-08
3.357e-09
5.8468e-09
8.3814e-09
-1.1698e-08
3.6357e-09
5.5265e-09
8.0053e-09
-1.1093e-08
4.0111e-09
5.1101e-09
7.3634e-09
-1.0191e-08
4.239e-09
4.5749e-09
6.4745e-09
-8.9956e-09
4.5176e-09
3.9128e-09
5.5826e-09
-7.6126e-09
4.6659e-09
3.2705e-09
4.6875e-09
-6.3912e-09
4.7489e-09
2.5729e-09
3.6165e-09
-4.9968e-09
4.7343e-09
1.7237e-09
2.468e-09
-3.3555e-09
4.6852e-09
8.7495e-10
1.3288e-09
-1.7893e-09
4.6871e-09
1.5667e-10
3.6051e-10
-3.2886e-10
4.5968e-09
-3.5225e-10
-4.3915e-10
7.7646e-10
4.4591e-09
-8.3826e-10
-1.1441e-09
1.6592e-09
4.3709e-09
-1.1069e-09
-1.4046e-09
2.1227e-09
4.233e-09
-9.4492e-10
-1.3247e-09
1.9546e-09
3.9957e-09
-7.685e-10
-1.1491e-09
1.4875e-09
3.9024e-09
-5.5822e-10
-7.8497e-10
9.7791e-10
3.9047e-09
-1.2035e-10
-1.6834e-10
3.7119e-10
3.9042e-09
2.4535e-10
2.6987e-10
-4.0848e-10
3.9037e-09
3.9856e-10
5.3704e-10
-9.1193e-10
3.9011e-09
5.9384e-10
7.9723e-10
-1.1138e-09
3.8985e-09
7.482e-10
9.6769e-10
-1.2841e-09
1.9481e-09
6.6746e-10
8.9542e-10
-1.2776e-09
1.9471e-09
4.5585e-10
6.3505e-10
-1.001e-09
1.9468e-09
3.5038e-10
5.2975e-10
-7.0867e-10
4.8668e-10
3.1041e-10
4.3315e-10
-5.1432e-10
1.9491e-09
2.5406e-10
3.4452e-10
-4.095e-10
9.7569e-10
2.6303e-10
3.4476e-10
-3.9651e-10
9.7675e-10
1.0718e-10
2.6181e-10
-3.0611e-10
9.7696e-10
-4.0737e-11
1.8033e-10
-1.9716e-10
-1.6527e-11
8.9934e-11
-8.9804e-11
0
2.4197e-14
-1.2988e-10
2.4354e-10
3.2741e-25
-1.7092e-10
-4.558e-10
7.2458e-10
-2.3038e-21
-3.0192e-10
-7.5913e-10
1.0944e-09
0
-2.618e-10
-8.7594e-10
1.229e-09
0
-2.8717e-10
-8.7016e-10
1.1175e-09
0
-2.1371e-10
-6.5002e-10
8.6496e-10
2.3513e-21
-4.9277e-11
-2.2255e-10
3.7962e-10
2.3579e-21
2.4478e-11
3.3861e-10
-3.7217e-10
-2.3627e-21
2.6364e-10
1.1066e-09
-1.4557e-09
2.0437e-09
6.196e-10
2.0016e-09
-2.7586e-09
-1.1822e-21
9.1627e-10
3.009e-09
-4.1148e-09
2.3598e-21
1.4292e-09
4.1922e-09
-5.7637e-09
5.066e-10
1.94e-09
5.2954e-09
-7.4052e-09
2.0294e-09
2.2075e-09
6.2987e-09
-8.8553e-09
1.9689e-09
2.5167e-09
7.36e-09
-1.0162e-08
2.411e-09
2.8414e-09
8.192e-09
-1.1211e-08
2.6987e-09
2.9577e-09
8.6246e-09
-1.1898e-08
3.0816e-09
3.0333e-09
8.7356e-09
-1.2188e-08
3.3606e-09
3.0845e-09
8.6011e-09
-1.201e-08
3.6872e-09
2.9234e-09
8.2406e-09
-1.1321e-08
3.9636e-09
2.698e-09
7.5735e-09
-1.0459e-08
4.2396e-09
2.4098e-09
6.7005e-09
-9.3533e-09
4.4681e-09
1.9931e-09
5.8165e-09
-7.8807e-09
4.6543e-09
1.6917e-09
4.832e-09
-6.5533e-09
4.7424e-09
1.2782e-09
3.6477e-09
-5.1181e-09
4.7328e-09
7.9256e-10
2.4749e-09
-3.4202e-09
4.7793e-09
3.8076e-10
1.3203e-09
-1.7972e-09
4.6373e-09
1.7228e-11
3.3592e-10
-3.1268e-10
4.5463e-09
-2.5712e-10
-4.4734e-10
8.6597e-10
4.5057e-09
-4.8405e-10
-1.1679e-09
1.6997e-09
4.4173e-09
-5.2448e-10
-1.4771e-09
2.0571e-09
4.2321e-09
-5.4196e-10
-1.3895e-09
1.9708e-09
3.9945e-09
-4.123e-10
-1.1727e-09
1.528e-09
3.9023e-09
-1.8563e-10
-7.4421e-10
9.37e-10
3.9043e-09
9.2016e-12
-1.2743e-10
2.4066e-10
3.9048e-09
1.3081e-10
3.1077e-10
-4.5786e-10
3.903e-09
1.3008e-10
5.6167e-10
-8.627e-10
3.901e-09
1.2143e-10
7.7244e-10
-1.114e-09
3.8983e-09
2.5991e-10
9.5129e-10
-1.2923e-09
1.9479e-09
3.5826e-10
9.5229e-10
-1.2776e-09
1.9469e-09
2.4424e-10
6.7568e-10
-1.0663e-09
1.9467e-09
1.5465e-10
4.6432e-10
-8.2271e-10
9.7344e-10
5.7385e-11
4.252e-10
-5.1436e-10
1.949e-09
9.8496e-11
4.0186e-10
-3.9322e-10
9.7564e-10
1.9682e-10
3.9363e-10
-4.618e-10
9.7675e-10
2.1306e-10
3.1076e-10
-3.5516e-10
9.7699e-10
1.7209e-10
1.3101e-10
-2.302e-10
5.7278e-11
1.6378e-11
-1.0587e-10
-2.2736e-21
0
-1.2988e-10
2.9227e-10
0
8.151e-12
-5.2096e-10
7.1642e-10
-4.6101e-21
1.6356e-11
-8.49e-10
1.0373e-09
0
8.2046e-12
-9.4161e-10
1.229e-09
-2.3332e-21
0
-9.1134e-10
1.2162e-09
-2.3448e-21
0
-6.6656e-10
9.1443e-10
0
0
-2.2257e-10
3.2189e-10
-4.7208e-21
0
3.3868e-10
-3.3084e-10
0
0
1.0986e-09
-1.3648e-09
2.0463e-09
-8.3167e-12
2.0434e-09
-2.8415e-09
1.4422e-24
-8.3125e-12
3.0593e-09
-4.355e-09
-2.0143e-24
0
4.2261e-09
-5.8963e-09
1.0155e-09
-8.3235e-12
5.3869e-09
-7.4302e-09
2.0313e-09
-8.3078e-12
6.4277e-09
-8.9466e-09
1.9706e-09
0
7.4271e-09
-1.0419e-08
2.4136e-09
0
8.1685e-09
-1.15e-08
2.7503e-09
0
8.6173e-09
-1.2095e-08
3.0332e-09
0
8.8099e-09
-1.236e-08
3.3619e-09
0
8.7245e-09
-1.2288e-08
3.7383e-09
0
8.3629e-09
-1.1582e-08
3.9642e-09
0
7.6715e-09
-1.05e-08
4.2885e-09
0
6.7818e-09
-9.4501e-09
4.4676e-09
0
5.8244e-09
-8.0585e-09
4.6484e-09
0
4.8068e-09
-6.5769e-09
4.7318e-09
0
3.6555e-09
-5.1584e-09
4.828e-09
0
2.4827e-09
-3.6471e-09
4.8265e-09
0
1.3527e-09
-1.8945e-09
4.6359e-09
0
3.5193e-10
-1.7479e-10
4.5937e-09
0
-4.7155e-10
9.3872e-10
4.5044e-09
0
-1.1354e-09
1.6673e-09
4.4172e-09
0
-1.4117e-09
1.9836e-09
4.2795e-09
0
-1.3895e-09
1.9793e-09
3.9944e-09
0
-1.1399e-09
1.5847e-09
3.902e-09
0
-7.0337e-10
9.0413e-10
3.9038e-09
0
-2.1712e-10
4.5006e-11
3.9045e-09
0
2.5356e-10
-5.6419e-10
3.9026e-09
0
5.7814e-10
-9.0314e-10
3.9004e-09
0
7.2349e-10
-1.2037e-09
3.8978e-09
0
8.4511e-10
-1.3004e-09
1.9478e-09
0
8.8714e-10
-1.2941e-09
1.947e-09
0
7.2457e-10
-1.0175e-09
1.9465e-09
8.1593e-12
5.4583e-10
-7.2484e-10
9.7337e-10
8.1514e-12
4.5788e-10
-5.2257e-10
1.9489e-09
0
4.0184e-10
-4.9924e-10
9.7551e-10
0
3.6092e-10
-5.7603e-10
9.7659e-10
0
3.2711e-10
-5.5973e-10
9.7697e-10
0
1.965e-10
-3.6943e-10
0
4.0939e-11
-9.7682e-11
-3.6254e-25
-2.4197e-14
-1.2988e-10
2.9227e-10
-2.2884e-21
1.7092e-10
-5.2096e-10
7.1642e-10
2.305e-21
3.0192e-10
-8.4899e-10
1.0373e-09
0
2.618e-10
-9.416e-10
1.229e-09
-2.334e-21
2.8717e-10
-9.1134e-10
1.2162e-09
-2.3448e-21
2.1371e-10
-6.6656e-10
9.1443e-10
0
5.7562e-11
-2.2257e-10
3.1364e-10
-2.3604e-21
-1.6182e-11
3.3868e-10
-3.391e-10
2.3641e-21
-2.6364e-10
1.0986e-09
-1.3648e-09
2.0463e-09
-6.196e-10
2.0434e-09
-2.8415e-09
2.367e-21
-9.2457e-10
3.0592e-09
-4.3468e-09
1.1802e-21
-1.4375e-09
4.2261e-09
-5.888e-09
1.0155e-09
-1.9317e-09
5.3952e-09
-7.4302e-09
2.0313e-09
-2.1992e-09
6.436e-09
-8.9466e-09
1.9706e-09
-2.5167e-09
7.4271e-09
-1.0419e-08
2.4136e-09
-2.8497e-09
8.1603e-09
-1.15e-08
2.7503e-09
-2.9659e-09
8.6091e-09
-1.2095e-08
3.0332e-09
-3.0333e-09
8.8099e-09
-1.236e-08
3.3619e-09
-3.0845e-09
8.7245e-09
-1.2288e-08
3.7383e-09
-2.9234e-09
8.3629e-09
-1.1582e-08
3.9642e-09
-2.7062e-09
7.6715e-09
-1.0492e-08
4.2885e-09
-2.418e-09
6.7818e-09
-9.4419e-09
4.4676e-09
-1.9931e-09
5.8244e-09
-8.0585e-09
4.6484e-09
-1.6998e-09
4.8068e-09
-6.5688e-09
4.7318e-09
-1.2863e-09
3.6555e-09
-5.1503e-09
4.828e-09
-7.9256e-10
2.4827e-09
-3.6471e-09
4.8265e-09
-3.8076e-10
1.3527e-09
-1.8945e-09
4.6359e-09
-1.7228e-11
3.5193e-10
-1.7479e-10
4.5937e-09
2.5712e-10
-4.7155e-10
9.3872e-10
4.5044e-09
4.8405e-10
-1.1354e-09
1.6673e-09
4.4172e-09
5.2448e-10
-1.4117e-09
1.9836e-09
4.2795e-09
5.4196e-10
-1.3895e-09
1.9793e-09
3.9944e-09
4.123e-10
-1.1399e-09
1.5847e-09
3.902e-09
1.8563e-10
-7.0337e-10
9.0413e-10
3.9038e-09
-1.0237e-12
-2.0895e-10
4.5006e-11
3.9045e-09
-1.2267e-10
2.6171e-10
-5.6419e-10
3.9026e-09
-1.3008e-10
5.7814e-10
-9.0314e-10
3.9004e-09
-1.2143e-10
7.2349e-10
-1.2037e-09
3.8978e-09
-2.5991e-10
8.4511e-10
-1.3004e-09
1.9478e-09
-3.5824e-10
8.953e-10
-1.286e-09
1.947e-09
-2.4425e-10
7.3271e-10
-1.0094e-09
1.9465e-09
-1.5465e-10
5.4583e-10
-7.2484e-10
9.7338e-10
-6.5536e-11
4.5788e-10
-5.1442e-10
1.9489e-09
-1.0666e-10
4.0184e-10
-4.9107e-10
9.7551e-10
-2.1315e-10
3.5275e-10
-5.6787e-10
9.7659e-10
-2.376e-10
3.1075e-10
-5.5154e-10
9.7697e-10
-1.8028e-10
1.8831e-10
-3.6943e-10
-5.7278e-11
4.0939e-11
-9.7682e-11
-2.2731e-21
1.1363e-10
-1.2988e-10
2.4354e-10
-2.2878e-21
2.7657e-10
-4.558e-10
7.2458e-10
0
4.6497e-10
-7.5913e-10
1.0863e-09
-7.322e-25
5.8885e-10
-8.7594e-10
1.2208e-09
0
5.1648e-10
-8.7016e-10
1.1175e-09
0
4.1086e-10
-6.5002e-10
8.6496e-10
2.3513e-21
1.7281e-10
-2.2255e-10
3.7138e-10
-4.7152e-21
-2.6404e-10
3.3037e-10
-3.8042e-10
-2.3627e-21
-8.1649e-10
1.0984e-09
-1.4557e-09
2.0437e-09
-1.4037e-09
2.0016e-09
-2.7586e-09
1.4416e-24
-2.0467e-09
3.009e-09
-4.1065e-09
1.1808e-21
-2.8398e-09
4.1922e-09
-5.7554e-09
5.0661e-10
-3.5469e-09
5.2954e-09
-7.4052e-09
2.0294e-09
-4.2583e-09
6.2987e-09
-8.8553e-09
1.9689e-09
-4.99e-09
7.36e-09
-1.0162e-08
2.411e-09
-5.5309e-09
8.1837e-09
-1.1211e-08
2.6987e-09
-5.8727e-09
8.6164e-09
-1.1898e-08
3.0816e-09
-5.9822e-09
8.7356e-09
-1.2188e-08
3.3606e-09
-5.8468e-09
8.6011e-09
-1.201e-08
3.6872e-09
-5.5265e-09
8.2406e-09
-1.1321e-08
3.9636e-09
-5.1101e-09
7.5735e-09
-1.0451e-08
4.2885e-09
-4.5746e-09
6.7001e-09
-9.3452e-09
4.4681e-09
-3.9128e-09
5.8164e-09
-7.8807e-09
4.6547e-09
-3.2705e-09
4.832e-09
-6.5451e-09
4.7424e-09
-2.5729e-09
3.6477e-09
-5.1099e-09
4.7328e-09
-1.7237e-09
2.4749e-09
-3.4202e-09
4.7793e-09
-8.7495e-10
1.3203e-09
-1.7972e-09
4.6373e-09
-1.5667e-10
3.3592e-10
-3.1268e-10
4.5463e-09
3.5225e-10
-4.4734e-10
8.6597e-10
4.5057e-09
8.3826e-10
-1.1679e-09
1.6997e-09
4.4173e-09
1.0988e-09
-1.4771e-09
2.0653e-09
4.2321e-09
9.3679e-10
-1.3895e-09
1.9789e-09
3.9945e-09
7.685e-10
-1.1727e-09
1.528e-09
3.9023e-09
5.5822e-10
-7.4421e-10
9.37e-10
3.9043e-09
1.2035e-10
-1.1926e-10
2.4066e-10
3.9048e-09
-2.535e-10
3.1892e-10
-4.4971e-10
3.903e-09
-4.0675e-10
5.6167e-10
-8.5452e-10
3.901e-09
-5.9384e-10
7.7244e-10
-1.114e-09
3.8983e-09
-7.482e-10
9.5129e-10
-1.2923e-09
1.9479e-09
-6.6746e-10
9.6047e-10
-1.2695e-09
1.9469e-09
-4.5585e-10
6.8383e-10
-1.0581e-09
1.9467e-09
-3.5038e-10
4.6432e-10
-8.2271e-10
9.7346e-10
-3.1857e-10
4.252e-10
-4.9806e-10
1.949e-09
-2.6222e-10
4.0186e-10
-3.769e-10
9.7566e-10
-2.6303e-10
3.8547e-10
-4.5364e-10
9.7675e-10
-1.0718e-10
2.944e-10
-3.4698e-10
9.7699e-10
4.0737e-11
1.2282e-10
-2.302e-10
1.6527e-11
1.6378e-11
-1.0587e-10
-1.0148e-24
2.2722e-10
-1.7858e-10
2.9227e-10
-4.5728e-21
6.832e-10
-5.29e-10
7.897e-10
-1.0578e-24
9.9479e-10
-7.9169e-10
1.1761e-09
0
9.9733e-10
-8.9215e-10
1.2863e-09
2.3278e-21
8.4408e-10
-8.124e-10
1.1093e-09
-2.3384e-21
6.1595e-10
-5.4275e-10
8.9802e-10
-2.3466e-21
2.3046e-10
-1.8107e-10
4.0443e-10
2.2077e-25
-3.0446e-10
3.5532e-10
-3.9705e-10
-2.3573e-21
-1.0785e-09
1.0736e-09
-1.4889e-09
2.0392e-09
-2.0036e-09
1.9021e-09
-2.7918e-09
-1.1794e-21
-2.9913e-09
2.9011e-09
-4.1232e-09
-2.3566e-21
-4.1464e-09
4.0673e-09
-5.6395e-09
-2.3766e-24
-5.2884e-09
5.1461e-09
-7.1568e-09
2.0254e-09
-6.3508e-09
6.1365e-09
-8.6488e-09
2.0151e-09
-7.3397e-09
7.1939e-09
-9.93e-09
2.4073e-09
-8.0991e-09
8.0594e-09
-1.0832e-08
2.5947e-09
-8.6168e-09
8.5022e-09
-1.1595e-08
3.1773e-09
-8.8279e-09
8.5801e-09
-1.1934e-08
3.357e-09
-8.6632e-09
8.381e-09
-1.1698e-08
3.6357e-09
-8.2655e-09
8.005e-09
-1.1093e-08
4.0111e-09
-7.5609e-09
7.363e-09
-1.0191e-08
4.2881e-09
-6.5601e-09
6.4736e-09
-8.9956e-09
4.5176e-09
-5.5722e-09
5.582e-09
-7.6126e-09
4.6664e-09
-4.7512e-09
4.687e-09
-6.3912e-09
4.7489e-09
-3.6976e-09
3.616e-09
-4.9968e-09
4.7343e-09
-2.4843e-09
2.4676e-09
-3.3555e-09
4.6852e-09
-1.3535e-09
1.3285e-09
-1.7893e-09
4.6871e-09
-3.0362e-10
3.6027e-10
-3.2886e-10
4.5968e-09
5.1158e-10
-4.393e-10
7.7646e-10
4.4591e-09
1.1926e-09
-1.1441e-09
1.6592e-09
4.3709e-09
1.5016e-09
-1.4046e-09
2.1309e-09
4.233e-09
1.4299e-09
-1.3247e-09
1.9628e-09
3.9957e-09
1.1241e-09
-1.149e-09
1.4875e-09
3.9024e-09
7.5204e-10
-7.8487e-10
9.7791e-10
3.9047e-09
3.0693e-10
-1.6822e-10
3.7119e-10
3.9042e-09
-2.2851e-10
2.6999e-10
-3.9218e-10
3.9037e-09
-6.0228e-10
5.3717e-10
-8.9558e-10
3.9011e-09
-7.4755e-10
7.9737e-10
-1.1138e-09
3.8985e-09
-9.0992e-10
9.6784e-10
-1.2759e-09
1.9481e-09
-9.1125e-10
8.9557e-10
-1.2694e-09
1.9471e-09
-6.753e-10
6.352e-10
-1.001e-09
1.9468e-09
-5.2935e-10
5.2988e-10
-7.0867e-10
4.8668e-10
-3.7539e-10
4.3326e-10
-5.0617e-10
1.9491e-09
-3.0291e-10
3.4461e-10
-4.0134e-10
9.7569e-10
-3.1263e-10
3.4483e-10
-3.9651e-10
9.7675e-10
-3.1193e-10
2.6187e-10
-3.0611e-10
9.7696e-10
-3.1126e-10
1.8036e-10
-2.0536e-10
-1.5541e-10
8.9947e-11
-9.7998e-11
-2.2711e-21
-2.2723e-10
3.4082e-10
3.4086e-10
0
-6.9137e-10
8.6211e-10
8.5411e-10
4.597e-21
-9.9478e-10
1.2069e-09
1.2071e-09
-6.5804e-25
-9.8906e-10
1.2917e-09
1.3003e-09
5.0139e-10
-8.3568e-10
1.1178e-09
1.1264e-09
-4.6663e-21
-5.9914e-10
9.3979e-10
9.5672e-10
-2.3412e-21
-2.2175e-10
5.0984e-10
5.1857e-10
0
3.1334e-10
-2.7221e-10
-2.635e-10
0
1.0792e-09
-1.3103e-09
-1.3099e-09
2.0337e-09
1.9963e-09
-2.6159e-09
-2.6238e-09
-2.3488e-21
3.0009e-09
-4.0163e-09
-4.0078e-09
0
4.1562e-09
-5.5023e-09
-5.4937e-09
-2.2636e-24
5.2986e-09
-7.0727e-09
-7.064e-09
2.0208e-09
6.3615e-09
-8.4626e-09
-8.4539e-09
2.0108e-09
7.3426e-09
-9.6597e-09
-9.6591e-09
2.4031e-09
8.0939e-09
-1.0679e-08
-1.0687e-08
2.6399e-09
8.6118e-09
-1.1437e-08
-1.1444e-08
3.123e-09
8.8313e-09
-1.1675e-08
-1.1674e-08
3.3538e-09
8.6583e-09
-1.1471e-08
-1.1478e-08
3.6827e-09
8.2605e-09
-1.0937e-08
-1.0944e-08
4.0091e-09
7.5638e-09
-9.9826e-09
-9.9819e-09
4.2869e-09
6.5625e-09
-8.8488e-09
-8.8483e-09
4.566e-09
5.5742e-09
-7.6316e-09
-7.6312e-09
4.6859e-09
4.7527e-09
-6.3382e-09
-6.3379e-09
4.7604e-09
3.7067e-09
-4.8788e-09
-4.8707e-09
4.8327e-09
2.4931e-09
-3.3419e-09
-3.3339e-09
4.687e-09
1.3619e-09
-1.8073e-09
-1.7994e-09
4.7388e-09
3.1161e-10
-3.5378e-10
-3.4592e-10
4.6467e-09
-5.1189e-10
7.6941e-10
7.6918e-10
4.4614e-09
-1.1931e-09
1.709e-09
1.7087e-09
4.4215e-09
-1.5021e-09
2.2135e-09
2.2132e-09
4.2826e-09
-1.4223e-09
2.0455e-09
2.0535e-09
4.046e-09
-1.1163e-09
1.5446e-09
1.5527e-09
3.9034e-09
-7.5217e-10
8.643e-10
8.6434e-10
3.9052e-09
-3.0684e-10
2.5695e-10
2.571e-10
3.9054e-09
2.2881e-10
-4.2475e-10
-4.245e-10
3.9039e-09
6.0276e-10
-9.4478e-10
-9.4444e-10
3.9015e-09
7.4814e-10
-1.1222e-09
-1.1218e-09
3.8996e-09
9.1057e-10
-1.2848e-09
-1.2843e-09
1.9483e-09
9.1192e-10
-1.2045e-09
-1.204e-09
1.9477e-09
6.7594e-10
-9.5274e-10
-9.5229e-10
1.9471e-09
5.2995e-10
-6.926e-10
-6.9216e-10
4.8681e-10
3.7594e-10
-4.4141e-10
-4.41e-10
1.9491e-09
3.0341e-10
-4.3518e-10
-4.348e-10
1.464e-09
3.1307e-10
-4.2955e-10
-4.2922e-10
9.768e-10
3.1228e-10
-3.4628e-10
-3.4602e-10
4.8847e-10
3.1968e-10
-3.4415e-10
-3.3579e-10
1.6369e-10
-1.7215e-10
-1.6389e-10
-2.2723e-21
-1.7854e-10
-1.1363e-10
2.9227e-10
2.2869e-21
-5.289e-10
-2.7657e-10
7.8157e-10
-2.3017e-21
-7.9156e-10
-4.6499e-10
1.1761e-09
-2.3158e-21
-8.9204e-10
-5.8888e-10
1.2945e-09
0
-8.1234e-10
-5.0826e-10
1.1175e-09
2.3391e-21
-5.4278e-10
-4.1089e-10
9.0625e-10
1.4405e-28
-1.8124e-10
-1.8939e-10
4.0444e-10
-2.3528e-21
3.5495e-10
2.4746e-10
-4.053e-10
2.3574e-21
1.0812e-09
7.9996e-10
-1.5054e-09
2.0393e-09
1.9012e-09
1.3295e-09
-2.7089e-09
1.1807e-21
2.8916e-09
1.9807e-09
-3.941e-09
-3.5314e-21
4.0658e-09
2.8483e-09
-5.5404e-09
-1.1761e-21
5.1442e-09
3.5471e-09
-7.1488e-09
2.0255e-09
6.1342e-09
4.2503e-09
-8.6489e-09
2.0152e-09
7.1911e-09
4.9903e-09
-9.9302e-09
2.4074e-09
8.0563e-09
5.5396e-09
-1.0832e-08
2.5947e-09
8.4906e-09
5.8977e-09
-1.1587e-08
3.1774e-09
8.5685e-09
5.9906e-09
-1.1934e-08
3.3571e-09
8.3775e-09
5.8388e-09
-1.1714e-08
3.6357e-09
8.0015e-09
5.5185e-09
-1.1109e-08
4.0111e-09
7.368e-09
5.102e-09
-1.0191e-08
4.2881e-09
6.479e-09
4.5745e-09
-8.9874e-09
4.5175e-09
5.5796e-09
3.9046e-09
-7.6207e-09
4.6663e-09
4.685e-09
3.2623e-09
-6.3993e-09
4.7489e-09
3.6226e-09
2.5648e-09
-4.9887e-09
4.7343e-09
2.4746e-09
1.7156e-09
-3.3473e-09
4.6851e-09
1.336e-09
8.6683e-10
-1.7812e-09
4.6871e-09
3.6012e-10
1.5667e-10
-3.2076e-10
4.5968e-09
-4.3909e-10
-3.5224e-10
7.7649e-10
4.4591e-09
-1.1355e-09
-8.4637e-10
1.6592e-09
4.3709e-09
-1.4122e-09
-1.0988e-09
2.1227e-09
4.233e-09
-1.3241e-09
-9.449e-10
1.9628e-09
3.9957e-09
-1.1404e-09
-7.7663e-10
1.4956e-09
3.9024e-09
-7.8462e-10
-5.5822e-10
9.7791e-10
3.9047e-09
-1.682e-10
-1.2035e-10
3.7119e-10
3.9042e-09
2.6981e-10
2.535e-10
-3.9218e-10
3.9037e-09
5.3683e-10
4.0675e-10
-8.9558e-10
3.9011e-09
8.051e-10
5.8566e-10
-1.1138e-09
3.8985e-09
9.7548e-10
7.4005e-10
-1.2759e-09
1.9481e-09
8.8691e-10
6.756e-10
-1.2694e-09
1.947e-09
6.2654e-10
4.64e-10
-1.001e-09
1.9468e-09
5.2941e-10
3.5038e-10
-7.0867e-10
4.8668e-10
4.4099e-10
3.104e-10
-5.0617e-10
1.9491e-09
3.5236e-10
2.5407e-10
-4.0134e-10
9.7569e-10
3.4447e-10
2.6303e-10
-3.9651e-10
9.7675e-10
2.6157e-10
1.0718e-10
-3.0611e-10
9.7696e-10
1.8017e-10
-4.0737e-11
-2.0536e-10
8.9877e-11
-1.6527e-11
-9.7998e-11
2.2711e-21
-1.4607e-10
-1.4616e-10
-2.2837e-21
-3.6612e-10
-3.6635e-10
-2.2974e-21
-5.1412e-10
-5.1445e-10
2.3096e-21
-5.8109e-10
-5.8148e-10
4.6425e-21
-5.8271e-10
-5.831e-10
2.3308e-21
-4.442e-10
-4.4448e-10
0
-1.4835e-10
-1.4842e-10
0
2.9722e-10
3.0573e-10
0
8.1729e-10
8.1799e-10
2.031e-09
1.323e-09
1.3242e-09
1.176e-21
1.9751e-09
1.9851e-09
2.3458e-21
2.7112e-09
2.7136e-09
5.0386e-10
3.4355e-09
3.4467e-09
2.0187e-09
4.1621e-09
4.1737e-09
2.0104e-09
4.9052e-09
4.909e-09
2.4023e-09
5.5773e-09
5.5814e-09
2.5908e-09
5.8444e-09
5.8569e-09
3.124e-09
5.8138e-09
5.8265e-09
3.3562e-09
5.735e-09
5.7394e-09
3.5865e-09
5.4292e-09
5.4333e-09
4.1106e-09
4.9868e-09
4.9825e-09
4.1932e-09
4.4765e-09
4.4715e-09
4.4723e-09
3.8953e-09
3.8983e-09
4.6506e-09
3.2444e-09
3.247e-09
4.7399e-09
2.4496e-09
2.4436e-09
4.7404e-09
1.6572e-09
1.6507e-09
4.6907e-09
9.3906e-10
9.3191e-10
4.6441e-09
2.9429e-10
2.9472e-10
4.6496e-09
-1.9818e-10
-1.9823e-10
4.4622e-09
-6.2663e-10
-6.352e-10
4.3241e-09
-9.3588e-10
-9.2835e-10
4.2825e-09
-9.3654e-10
-9.3722e-10
3.9472e-09
-7.9262e-10
-8.0134e-10
3.9022e-09
-5.0924e-10
-5.0964e-10
3.9042e-09
-7.1262e-11
-7.1437e-11
3.9044e-09
2.2075e-10
2.2079e-10
3.9033e-09
4.3945e-10
4.3965e-10
3.9018e-09
6.671e-10
6.5923e-10
3.8991e-09
7.4022e-10
7.3243e-10
1.9486e-09
6.5099e-10
6.595e-10
1.9478e-09
4.2312e-10
4.3164e-10
1.9477e-09
2.8487e-10
2.8522e-10
1.4609e-09
3.0233e-10
2.945e-10
1.4622e-09
3.1095e-10
3.0313e-10
-2.2572e-21
3.1074e-10
3.1104e-10
4.5182e-21
2.2885e-10
2.291e-10
4.8839e-10
6.5412e-11
6.5585e-11
-8.2199e-12
-8.1586e-12
2.2717e-21
-6.222e-15
-1.4616e-10
2.2849e-21
-1.6285e-10
-4.3154e-10
4.5966e-21
-3.2651e-10
-6.0432e-10
-2.3117e-21
-3.3568e-10
-6.4712e-10
-2.3235e-21
-3.3661e-10
-6.2429e-10
2.3329e-21
-2.4689e-10
-4.6934e-10
4.6818e-21
-7.4214e-11
-1.6496e-10
-2.3463e-21
9.0894e-11
2.9762e-10
-4.7019e-21
3.305e-10
8.0184e-10
1.5243e-09
6.6196e-10
1.3578e-09
5.0718e-10
1.0006e-09
2.0521e-09
-1.1769e-21
1.4302e-09
2.763e-09
1.5181e-09
1.8592e-09
3.5553e-09
2.0208e-09
2.1925e-09
4.346e-09
2.0129e-09
2.5118e-09
5.0016e-09
2.4047e-09
2.7451e-09
5.5751e-09
2.6929e-09
2.9107e-09
5.9071e-09
3.0764e-09
2.9861e-09
5.9585e-09
3.4074e-09
2.9707e-09
5.9032e-09
3.6867e-09
2.8828e-09
5.5965e-09
4.0134e-09
2.6333e-09
5.1213e-09
4.1936e-09
2.3122e-09
4.5855e-09
4.4722e-09
1.9765e-09
3.9304e-09
4.6397e-09
1.6349e-09
3.2545e-09
4.7296e-09
1.2375e-09
2.4677e-09
4.7392e-09
8.33e-10
1.6829e-09
4.7378e-09
4.1317e-10
9.8862e-10
4.6436e-09
9.0214e-11
2.9449e-10
4.5999e-09
-1.5168e-10
-2.3869e-10
4.51e-09
-4.0279e-10
-6.0264e-10
4.4201e-09
-4.9209e-10
-8.7105e-10
4.2332e-09
-5.0132e-10
-9.5352e-10
4.0441e-09
-4.2057e-10
-7.8493e-10
3.9018e-09
-2.5088e-10
-4.688e-10
3.9037e-09
-7.2332e-11
-1.4477e-10
3.9043e-09
8.1775e-11
1.7176e-10
3.9029e-09
1.6291e-10
4.6433e-10
3.9012e-09
1.7042e-10
6.1841e-10
3.8992e-09
2.4359e-10
6.3444e-10
1.9485e-09
3.3383e-10
6.188e-10
1.9479e-09
2.6051e-10
4.968e-10
1.9476e-09
1.7106e-10
3.6677e-10
1.948e-09
1.6354e-10
3.1906e-10
9.7461e-10
1.7189e-10
2.7832e-10
2.2568e-21
1.7177e-10
2.6964e-10
-2.2589e-21
1.6356e-10
2.6181e-10
0
8.188e-11
1.4746e-10
6.9867e-16
2.4594e-11
2.2718e-21
0
-1.2989e-10
-4.5698e-21
8.1374e-12
-3.6632e-10
-7.2924e-25
1.6313e-11
-5.3891e-10
0
1.6364e-11
-6.2244e-10
2.3239e-21
8.2034e-12
-5.9955e-10
3.3063e-25
0
-4.5281e-10
0
8.2403e-12
-1.567e-10
-2.3479e-21
8.2467e-12
2.5621e-10
-1.0694e-24
8.2462e-12
7.7689e-10
1.0164e-09
1.7283e-16
1.4154e-09
1.0158e-09
-8.2453e-12
2.1345e-09
0
0
2.8936e-09
2.0277e-09
-8.2416e-12
3.6704e-09
2.0218e-09
-5.0085e-15
4.4194e-09
1.9634e-09
1.6429e-11
5.0835e-09
2.4063e-09
8.2093e-12
5.5989e-09
2.6939e-09
0
5.922e-09
3.1273e-09
0
6.0386e-09
3.4082e-09
0
5.9504e-09
3.6872e-09
0
5.6764e-09
4.0141e-09
0
5.2177e-09
4.2918e-09
0
4.6157e-09
4.4723e-09
0
3.9775e-09
4.6338e-09
0
3.2854e-09
4.7195e-09
0
2.5151e-09
4.7386e-09
0
1.747e-09
4.7375e-09
0
9.881e-10
4.6911e-09
0
2.6173e-10
4.5995e-09
0
-3.1967e-10
4.5095e-09
0
-7.324e-10
4.4687e-09
0
-9.3555e-10
4.1839e-09
0
-9.3708e-10
4.0927e-09
0
-7.5188e-10
3.9012e-09
0
-4.3599e-10
3.9033e-09
0
-1.1204e-10
3.9036e-09
0
1.8816e-10
3.9029e-09
0
4.3159e-10
3.9011e-09
0
5.6934e-10
3.8989e-09
-8.1388e-12
6.0965e-10
1.9485e-09
-8.1687e-12
5.7775e-10
1.9478e-09
0
4.9663e-10
1.9474e-09
8.1588e-12
3.9927e-10
1.948e-09
-5.2308e-16
2.944e-10
9.7465e-10
-8.1614e-12
2.2103e-10
0
0
1.8782e-10
2.2592e-21
0
1.7991e-10
4.5183e-21
0
1.4738e-10
0
5.7316e-11
0
6.222e-15
-1.2989e-10
6.9071e-25
1.6285e-10
-3.6632e-10
2.2988e-21
3.2651e-10
-5.3891e-10
0
3.3568e-10
-6.2244e-10
-2.3246e-21
3.4482e-10
-6.0777e-10
0
2.5511e-10
-4.4457e-10
2.3422e-21
7.4209e-11
-1.4021e-10
0
-9.9144e-11
2.4795e-10
2.3522e-21
-3.3876e-10
7.8516e-10
1.0164e-09
-6.5373e-10
1.4403e-09
1.0158e-09
-9.9233e-10
2.1427e-09
0
-1.422e-09
2.9019e-09
2.0277e-09
-1.8427e-09
3.6953e-09
2.0218e-09
-2.1842e-09
4.4359e-09
1.9634e-09
-2.5036e-09
5.0917e-09
2.4063e-09
-2.7369e-09
5.6154e-09
2.6939e-09
-2.9106e-09
5.9303e-09
3.1273e-09
-2.9861e-09
6.0386e-09
3.4082e-09
-2.9707e-09
5.9504e-09
3.6872e-09
-2.8828e-09
5.6764e-09
4.0141e-09
-2.6333e-09
5.2177e-09
4.2918e-09
-2.3122e-09
4.6157e-09
4.4723e-09
-1.9765e-09
3.9775e-09
4.6338e-09
-1.6349e-09
3.2854e-09
4.7195e-09
-1.2375e-09
2.5151e-09
4.7386e-09
-8.33e-10
1.747e-09
4.7375e-09
-4.1317e-10
9.881e-10
4.6911e-09
-9.0214e-11
2.6173e-10
4.5995e-09
1.5168e-10
-3.1967e-10
4.5095e-09
4.0279e-10
-7.324e-10
4.4687e-09
4.9209e-10
-9.3555e-10
4.1839e-09
5.0132e-10
-9.3708e-10
4.0927e-09
4.2057e-10
-7.5188e-10
3.9012e-09
2.5088e-10
-4.3599e-10
3.9033e-09
8.0509e-11
-1.1204e-10
3.9036e-09
-8.1775e-11
1.8001e-10
3.9029e-09
-1.7108e-10
4.2341e-10
3.9011e-09
-1.7856e-10
5.6119e-10
3.8989e-09
-2.5176e-10
6.0148e-10
1.9485e-09
-3.2566e-10
5.7775e-10
1.9478e-09
-2.4421e-10
4.8847e-10
1.9474e-09
-1.7106e-10
3.8297e-10
1.948e-09
-1.717e-10
2.8623e-10
9.7464e-10
-1.6373e-10
2.2919e-10
0
-1.636e-10
1.8782e-10
2.2588e-21
-1.7174e-10
1.7173e-10
2.2592e-21
-9.0069e-11
1.4738e-10
-6.9867e-16
5.7316e-11
-2.8988e-25
1.4611e-10
-1.4613e-10
2.2847e-21
3.6623e-10
-4.3143e-10
-5.4682e-25
5.1429e-10
-6.0415e-10
-2.3112e-21
5.8132e-10
-6.4689e-10
-2.3235e-21
5.8298e-10
-6.3225e-10
-2.3329e-21
4.4448e-10
-4.6083e-10
-2.3409e-21
1.4858e-10
-1.4824e-10
2.3469e-21
-3.0533e-10
2.8949e-10
2.3498e-21
-8.2554e-10
8.1009e-10
1.5243e-09
-1.3232e-09
1.3825e-09
5.0719e-10
-1.9754e-09
2.06e-09
1.7312e-24
-2.7116e-09
2.7708e-09
1.5181e-09
-3.4443e-09
3.5796e-09
2.0208e-09
-4.1709e-09
4.362e-09
2.0129e-09
-4.9058e-09
5.0092e-09
2.4047e-09
-5.5779e-09
5.591e-09
2.693e-09
-5.8449e-09
5.9148e-09
3.0764e-09
-5.8143e-09
5.958e-09
3.4074e-09
-5.7355e-09
5.9028e-09
3.6867e-09
-5.4296e-09
5.596e-09
4.0134e-09
-4.9873e-09
5.1208e-09
4.2422e-09
-4.4767e-09
4.585e-09
4.4722e-09
-3.8957e-09
3.9299e-09
4.6397e-09
-3.2449e-09
3.254e-09
4.7296e-09
-2.4501e-09
2.4672e-09
4.7392e-09
-1.6577e-09
1.6824e-09
4.7378e-09
-9.3942e-10
9.8826e-10
4.6436e-09
-2.9455e-10
2.9423e-10
4.5999e-09
1.9803e-10
-2.3884e-10
4.51e-09
6.2658e-10
-6.0269e-10
4.4201e-09
9.3591e-10
-8.7102e-10
4.2332e-09
9.3663e-10
-9.5343e-10
4.0441e-09
7.9274e-10
-7.848e-10
3.9018e-09
5.0938e-10
-4.6866e-10
3.9038e-09
7.1408e-11
-1.4462e-10
3.9043e-09
-2.206e-10
1.6376e-10
3.9029e-09
-4.3929e-10
4.5631e-10
3.9012e-09
-6.6694e-10
6.1043e-10
3.8992e-09
-7.4005e-10
6.2644e-10
1.9485e-09
-6.5081e-10
6.1897e-10
1.9479e-09
-4.2295e-10
4.888e-10
1.9476e-09
-2.8472e-10
3.5064e-10
1.948e-09
-3.022e-10
3.1102e-10
9.746e-10
-3.1084e-10
2.8659e-10
-2.2568e-21
-3.1065e-10
2.6972e-10
-7.2629e-26
-2.2879e-10
2.537e-10
0
-6.5373e-11
1.475e-10
8.2332e-12
2.4608e-11
4.5423e-21
1.7857e-10
-1.4612e-10
-2.2837e-21
5.3712e-10
-3.5811e-10
-6.5606e-25
7.9986e-10
-5.0613e-10
0
8.9225e-10
-5.8125e-10
-2.3214e-21
8.126e-10
-5.8283e-10
0
5.4306e-10
-4.4421e-10
0
1.815e-10
-1.4819e-10
0
-3.5477e-10
3.0586e-10
0
-1.0729e-09
8.2623e-10
2.031e-09
-1.8931e-09
1.3323e-09
3.5243e-21
-2.8918e-09
1.9848e-09
0
-4.0661e-09
2.7131e-09
5.0386e-10
-5.1446e-09
3.4462e-09
2.0187e-09
-6.1345e-09
4.1732e-09
2.0104e-09
-7.1915e-09
4.9084e-09
2.4023e-09
-8.0566e-09
5.5808e-09
2.5908e-09
-8.491e-09
5.8564e-09
3.124e-09
-8.5688e-09
5.8259e-09
3.3562e-09
-8.3779e-09
5.7389e-09
3.5865e-09
-8.0019e-09
5.4328e-09
4.1106e-09
-7.3683e-09
4.982e-09
4.2419e-09
-6.4794e-09
4.471e-09
4.4723e-09
-5.5801e-09
3.8977e-09
4.6506e-09
-4.6855e-09
3.2464e-09
4.7399e-09
-3.6231e-09
2.4431e-09
4.7404e-09
-2.475e-09
1.6502e-09
4.6907e-09
-1.3364e-09
9.3155e-10
4.6441e-09
-3.6035e-10
2.9446e-10
4.6496e-09
4.3894e-10
-1.9838e-10
4.4622e-09
1.1355e-09
-6.3525e-10
4.3241e-09
1.4122e-09
-9.2832e-10
4.2825e-09
1.3242e-09
-9.3713e-10
3.9472e-09
1.1405e-09
-8.0121e-10
3.9022e-09
7.8473e-10
-5.095e-10
3.9042e-09
1.6831e-10
-7.1292e-11
3.9044e-09
-2.6969e-10
2.2094e-10
3.9033e-09
-5.367e-10
4.3981e-10
3.9018e-09
-7.9678e-10
6.6757e-10
3.8991e-09
-9.6718e-10
7.4075e-10
1.9486e-09
-8.8676e-10
6.5968e-10
1.9478e-09
-6.2639e-10
4.3181e-10
1.9477e-09
-5.2927e-10
2.8537e-10
1.4609e-09
-4.3271e-10
3.028e-10
1.4622e-09
-3.4412e-10
3.1138e-10
7.2257e-26
-3.444e-10
3.1112e-10
4.5182e-21
-2.6152e-10
2.2917e-10
4.8839e-10
-1.8013e-10
6.5623e-11
-8.9864e-11
-8.1452e-12
-2.2723e-21
-1.1363e-10
2.9227e-10
-2.2859e-21
-2.6842e-10
7.8157e-10
-4.6033e-21
-4.5681e-10
1.1761e-09
2.3151e-21
-5.8888e-10
1.2945e-09
2.3278e-21
-5.1651e-10
1.1175e-09
2.339e-21
-4.1916e-10
9.0625e-10
-2.3467e-21
-1.8939e-10
3.9621e-10
2.3531e-21
2.4745e-10
-4.0529e-10
2.3561e-21
8.0825e-10
-1.4972e-09
2.0393e-09
1.3295e-09
-2.7172e-09
-1.1767e-21
1.9724e-09
-4.0321e-09
0
2.8483e-09
-5.6232e-09
-1.1761e-21
3.5554e-09
-7.1406e-09
2.0255e-09
4.2586e-09
-8.6407e-09
2.0152e-09
4.9903e-09
-9.9302e-09
2.4074e-09
5.5314e-09
-1.084e-08
2.5948e-09
5.8814e-09
-1.1603e-08
3.1774e-09
5.9825e-09