/*--------------------------------*- C++ -*----------------------------------*\
| =========                 |                                                 |
| \\      /  F ield         | OpenFOAM: The Open Source CFD Toolbox           |
|  \\    /   O peration     | Version:  4.1                                   |
|   \\  /    A nd           | Web:      www.OpenFOAM.org                      |
|    \\/     M anipulation  |                                                 |
\*---------------------------------------------------------------------------*/
FoamFile
{
    version     2.0;
    format      ascii;
    class       pointVectorField;
    location    "0.0094";
    object      pointDisplacement_Next;
}
// * * * * * * * * * * * * * * * * * * * * * * * * * * * * * * * * * * * * * //

dimensions      [0 1 0 0 0 0 0];

internalField   uniform (0 0 0);

boundaryField
{
    inlet
    {
        type            fixedValue;
        value           uniform (0 0 0);
    }
    outlet
    {
        type            fixedValue;
        value           uniform (0 0 0);
    }
    mantle
    {
        type            fixedValue;
        value           nonuniform List<vector> 
1568
(
(3.802e-12 -1.8091e-12 -3.6293e-17)
(9.5411e-06 -4.3537e-06 -1.0013e-10)
(9.4037e-06 -3.9583e-06 6.0281e-07)
(1.5386e-08 -3.9192e-08 -3.1286e-08)
(9.2678e-06 -3.3896e-06 1.4031e-06)
(4.5491e-12 -4.0339e-12 1.5351e-12)
(9.402e-06 -3.2281e-06 2.3731e-06)
(1.5314e-08 -5.7756e-09 4.9799e-08)
(9.5387e-06 -3.0812e-06 3.0808e-06)
(2.6632e-12 1.4295e-12 -1.4297e-12)
(9.402e-06 -2.3734e-06 3.2278e-06)
(1.5313e-08 -4.9802e-08 5.7752e-09)
(9.2678e-06 -1.4034e-06 3.3893e-06)
(4.5492e-12 -1.5351e-12 4.0337e-12)
(9.4037e-06 -6.0312e-07 3.9581e-06)
(1.5386e-08 3.1286e-08 3.9192e-08)
(9.5412e-06 -1.9047e-10 4.3534e-06)
(3.802e-12 -7.7191e-17 1.809e-12)
(1.6796e-05 -4.9596e-06 -2.0508e-10)
(1.6484e-05 -4.2038e-06 5.6098e-07)
(1.6242e-05 -3.3969e-06 1.4051e-06)
(1.6481e-05 -3.3769e-06 2.5777e-06)
(1.6791e-05 -3.5146e-06 3.514e-06)
(1.648e-05 -2.5784e-06 3.3764e-06)
(1.6242e-05 -1.4057e-06 3.3964e-06)
(1.6484e-05 -5.6158e-07 4.2034e-06)
(1.6796e-05 -3.512e-10 4.9592e-06)
(2.0458e-05 1.7066e-07 -2.9555e-10)
(2.0318e-05 3.8568e-07 -2.2257e-07)
(2.0185e-05 6.1445e-07 -2.5743e-07)
(2.0314e-05 4.1573e-07 -1.102e-07)
(2.0452e-05 1.0518e-07 -1.0594e-07)
(2.0314e-05 1.0933e-07 -4.1631e-07)
(2.0184e-05 2.5655e-07 -6.1488e-07)
(2.0318e-05 2.2174e-07 -3.8607e-07)
(2.0458e-05 -4.7328e-10 -1.711e-07)
(2.2535e-05 6.1313e-06 -3.6781e-10)
(2.2572e-05 5.8007e-06 -1.1545e-06)
(2.2546e-05 5.4077e-06 -2.2427e-06)
(2.2569e-05 4.8977e-06 -3.2753e-06)
(2.253e-05 4.3117e-06 -4.3125e-06)
(2.2568e-05 3.2743e-06 -4.8982e-06)
(2.2546e-05 2.2416e-06 -5.4079e-06)
(2.2572e-05 1.1535e-06 -5.8008e-06)
(2.2535e-05 -5.6948e-10 -6.1315e-06)
(2.5399e-05 8.0174e-06 -4.2817e-10)
(2.5382e-05 7.8599e-06 -1.5907e-06)
(2.5354e-05 7.4213e-06 -3.0737e-06)
(2.5381e-05 6.6597e-06 -4.4176e-06)
(2.5398e-05 5.6406e-06 -5.6415e-06)
(2.538e-05 4.4164e-06 -6.6601e-06)
(2.5354e-05 3.0724e-06 -7.4213e-06)
(2.5381e-05 1.5895e-06 -7.8596e-06)
(2.5399e-05 -6.5955e-10 -8.0172e-06)
(2.9017e-05 7.123e-06 -4.6901e-10)
(2.8929e-05 7.2432e-06 -1.5424e-06)
(2.8858e-05 7.0213e-06 -2.9067e-06)
(2.8932e-05 6.1882e-06 -4.0125e-06)
(2.902e-05 5.0055e-06 -5.0064e-06)
(2.8931e-05 4.0111e-06 -6.1885e-06)
(2.8858e-05 2.9052e-06 -7.0209e-06)
(2.8929e-05 1.541e-06 -7.2425e-06)
(2.9017e-05 -7.2613e-10 -7.1223e-06)
(3.2548e-05 6.2423e-06 -4.8771e-10)
(3.2504e-05 6.2776e-06 -1.3449e-06)
(3.2465e-05 6.0747e-06 -2.5168e-06)
(3.251e-05 5.3667e-06 -3.4726e-06)
(3.2556e-05 4.3845e-06 -4.3854e-06)
(3.251e-05 3.4711e-06 -5.3668e-06)
(3.2464e-05 2.5151e-06 -6.0741e-06)
(3.2504e-05 1.3434e-06 -6.2766e-06)
(3.2547e-05 -7.5198e-10 -6.2413e-06)
(3.5855e-05 5.5467e-06 -4.8197e-10)
(3.5856e-05 5.4807e-06 -1.1361e-06)
(3.5859e-05 5.2297e-06 -2.1708e-06)
(3.5868e-05 4.6665e-06 -3.0694e-06)
(3.5872e-05 3.9075e-06 -3.9083e-06)
(3.5868e-05 3.068e-06 -4.6665e-06)
(3.5859e-05 2.1691e-06 -5.2289e-06)
(3.5856e-05 1.1345e-06 -5.4795e-06)
(3.5855e-05 -7.411e-10 -5.5455e-06)
(3.9053e-05 4.5468e-06 6.0085e-11)
(3.9056e-05 4.4703e-06 -9.0772e-07)
(3.9068e-05 4.2388e-06 -1.7597e-06)
(3.9077e-05 3.822e-06 -2.5379e-06)
(3.9084e-05 3.2399e-06 -3.2414e-06)
(3.9077e-05 2.5365e-06 -3.8219e-06)
(3.9068e-05 1.7581e-06 -4.2379e-06)
(3.9056e-05 9.0625e-07 -4.469e-06)
(3.9053e-05 -1.2211e-09 -4.5456e-06)
(4.2128e-05 3.2099e-06 -3.8512e-10)
(4.2127e-05 3.1535e-06 -6.1754e-07)
(4.2127e-05 2.9943e-06 -1.2407e-06)
(4.2159e-05 2.7332e-06 -1.8352e-06)
(4.2168e-05 2.3478e-06 -2.3484e-06)
(4.2159e-05 1.834e-06 -2.733e-06)
(4.2127e-05 1.2392e-06 -2.9934e-06)
(4.2127e-05 6.1624e-07 -3.1522e-06)
(4.2127e-05 -6.431e-10 -3.2086e-06)
(4.5089e-05 1.7328e-06 -1.3259e-10)
(4.5086e-05 1.7049e-06 -3.1775e-07)
(4.5092e-05 1.6419e-06 -6.6769e-07)
(4.5111e-05 1.5451e-06 -1.042e-06)
(4.5126e-05 1.3576e-06 -1.3579e-06)
(4.5111e-05 1.0409e-06 -1.5448e-06)
(4.5092e-05 6.6644e-07 -1.6409e-06)
(4.5086e-05 3.1665e-07 -1.7035e-06)
(4.5089e-05 -7.007e-10 -1.7315e-06)
(4.8049e-05 3.5267e-07 -1.8427e-10)
(4.8052e-05 3.5679e-07 -4.6695e-08)
(4.8062e-05 3.8735e-07 -1.4206e-07)
(4.8069e-05 4.3818e-07 -3.0129e-07)
(4.8073e-05 4.2876e-07 -4.2911e-07)
(4.8069e-05 3.0045e-07 -4.3783e-07)
(4.8062e-05 1.4104e-07 -3.8634e-07)
(4.8052e-05 4.5823e-08 -3.5541e-07)
(4.8049e-05 -4.105e-10 -3.5132e-07)
(5.1084e-05 -5.6942e-07 -1.0775e-10)
(5.1075e-05 -5.1681e-07 1.057e-07)
(5.1071e-05 -4.0068e-07 1.6832e-07)
(5.108e-05 -2.7948e-07 1.8286e-07)
(5.1091e-05 -2.0537e-07 2.0524e-07)
(5.108e-05 -1.8345e-07 2.7987e-07)
(5.1071e-05 -1.6904e-07 4.0164e-07)
(5.1075e-05 -1.063e-07 5.181e-07)
(5.1084e-05 -2.4628e-10 5.7073e-07)
(5.4163e-05 -5.158e-07 4.5559e-11)
(5.4147e-05 -4.4443e-07 8.0072e-08)
(5.4129e-05 -3.1868e-07 1.2392e-07)
(5.4141e-05 -2.1412e-07 1.3712e-07)
(5.4153e-05 -1.6329e-07 1.6326e-07)
(5.4141e-05 -1.3744e-07 2.1452e-07)
(5.4129e-05 -1.2432e-07 3.1952e-07)
(5.4147e-05 -8.0382e-08 4.4556e-07)
(5.4163e-05 -1.693e-10 5.1699e-07)
(5.7237e-05 8.9513e-07 1.8742e-10)
(5.7211e-05 9.0789e-07 -1.732e-07)
(5.7183e-05 9.2524e-07 -3.8236e-07)
(5.7193e-05 9.1523e-07 -6.2319e-07)
(5.7212e-05 8.2026e-07 -8.2011e-07)
(5.7193e-05 6.2314e-07 -9.1486e-07)
(5.7183e-05 3.8226e-07 -9.2458e-07)
(5.7211e-05 1.7316e-07 -9.07e-07)
(5.7237e-05 -1.0557e-10 -8.9416e-07)
(6.024e-05 3.6169e-06 2.5342e-10)
(6.0211e-05 3.5423e-06 -6.7607e-07)
(6.0177e-05 3.3555e-06 -1.3716e-06)
(6.0178e-05 3.1045e-06 -2.088e-06)
(6.0193e-05 2.7012e-06 -2.701e-06)
(6.0178e-05 2.0882e-06 -3.1042e-06)
(6.0177e-05 1.3718e-06 -3.3551e-06)
(6.0211e-05 6.7626e-07 -3.5417e-06)
(6.024e-05 -1.1264e-12 -3.6163e-06)
(6.3122e-05 7.3525e-06 4.5593e-10)
(6.309e-05 7.1983e-06 -1.4073e-06)
(6.3046e-05 6.7725e-06 -2.7901e-06)
(6.3034e-05 6.1263e-06 -4.1018e-06)
(6.3042e-05 5.2406e-06 -5.2401e-06)
(6.3034e-05 4.1021e-06 -6.1261e-06)
(6.3046e-05 2.7905e-06 -6.7723e-06)
(6.309e-05 1.4077e-06 -7.1981e-06)
(6.3122e-05 -7.4097e-11 -7.3523e-06)
(6.5865e-05 1.1661e-05 3.8094e-10)
(6.5837e-05 1.1415e-05 -2.266e-06)
(6.5784e-05 1.0712e-05 -4.4376e-06)
(6.577e-05 9.5998e-06 -6.4194e-06)
(6.5764e-05 8.1585e-06 -8.1582e-06)
(6.5771e-05 6.4198e-06 -9.5997e-06)
(6.5784e-05 4.4381e-06 -1.0712e-05)
(6.5837e-05 2.2664e-06 -1.1415e-05)
(6.5865e-05 5.6159e-11 -1.1661e-05)
(6.8446e-05 1.5954e-05 5.8133e-10)
(6.8411e-05 1.5614e-05 -3.1225e-06)
(6.8363e-05 1.4621e-05 -6.0755e-06)
(6.8352e-05 1.306e-05 -8.7304e-06)
(6.8361e-05 1.1062e-05 -1.1062e-05)
(6.8352e-05 8.7309e-06 -1.306e-05)
(6.8363e-05 6.076e-06 -1.4621e-05)
(6.8411e-05 3.1229e-06 -1.5615e-05)
(6.8446e-05 -1.8239e-10 -1.5955e-05)
(7.0809e-05 1.9622e-05 3.8766e-10)
(7.0777e-05 1.9189e-05 -3.8372e-06)
(7.0741e-05 1.7944e-05 -7.4622e-06)
(7.0739e-05 1.6001e-05 -1.0698e-05)
(7.0755e-05 1.3541e-05 -1.3541e-05)
(7.0739e-05 1.0698e-05 -1.6001e-05)
(7.0741e-05 7.4626e-06 -1.7945e-05)
(7.0777e-05 3.8376e-06 -1.919e-05)
(7.0809e-05 -8.4728e-11 -1.9622e-05)
(7.2926e-05 2.2064e-05 3.7236e-10)
(7.2904e-05 2.1544e-05 -4.2749e-06)
(7.2881e-05 2.0107e-05 -8.3313e-06)
(7.2883e-05 1.7944e-05 -1.1998e-05)
(7.2897e-05 1.5216e-05 -1.5216e-05)
(7.2883e-05 1.1999e-05 -1.7944e-05)
(7.2881e-05 8.3316e-06 -2.0108e-05)
(7.2904e-05 4.2752e-06 -2.1544e-05)
(7.2926e-05 -1.9034e-10 -2.2064e-05)
(7.4874e-05 2.2835e-05 3.797e-10)
(7.4871e-05 2.2265e-05 -4.4038e-06)
(7.4857e-05 2.0758e-05 -8.584e-06)
(7.4864e-05 1.8528e-05 -1.2391e-05)
(7.4862e-05 1.5738e-05 -1.5739e-05)
(7.4864e-05 1.2391e-05 -1.8528e-05)
(7.4858e-05 8.584e-06 -2.0758e-05)
(7.4871e-05 4.4038e-06 -2.2265e-05)
(7.4874e-05 -3.485e-10 -2.2835e-05)
(7.672e-05 2.1704e-05 1.0592e-10)
(7.6717e-05 2.1202e-05 -4.2221e-06)
(7.6718e-05 1.9786e-05 -8.2075e-06)
(7.6718e-05 1.7638e-05 -1.179e-05)
(7.6721e-05 1.4937e-05 -1.4937e-05)
(7.6718e-05 1.179e-05 -1.7639e-05)
(7.6718e-05 8.2074e-06 -1.9787e-05)
(7.6717e-05 4.222e-06 -2.1202e-05)
(7.672e-05 -2.6539e-10 -2.1704e-05)
(7.8384e-05 1.9106e-05 3.0614e-10)
(7.839e-05 1.8702e-05 -3.759e-06)
(7.8403e-05 1.7474e-05 -7.2772e-06)
(7.8401e-05 1.5539e-05 -1.0381e-05)
(7.8399e-05 1.3108e-05 -1.3108e-05)
(7.8401e-05 1.038e-05 -1.5539e-05)
(7.8403e-05 7.2767e-06 -1.7474e-05)
(7.839e-05 3.7586e-06 -1.8702e-05)
(7.8385e-05 -6.8702e-10 -1.9106e-05)
(7.9742e-05 1.5426e-05 3.2082e-10)
(7.9738e-05 1.5066e-05 -3.0124e-06)
(7.9745e-05 1.4043e-05 -5.8358e-06)
(7.9761e-05 1.2481e-05 -8.3429e-06)
(7.9775e-05 1.0549e-05 -1.0549e-05)
(7.9761e-05 8.3423e-06 -1.2481e-05)
(7.9745e-05 5.8352e-06 -1.4044e-05)
(7.9738e-05 3.0117e-06 -1.5067e-05)
(7.9743e-05 -9.4468e-10 -1.5426e-05)
(8.0634e-05 1.052e-05 1.8219e-10)
(8.0632e-05 1.0241e-05 -2.0325e-06)
(8.0636e-05 9.5086e-06 -3.9347e-06)
(8.0665e-05 8.4299e-06 -5.6299e-06)
(8.0679e-05 7.1299e-06 -7.1306e-06)
(8.0665e-05 5.629e-06 -8.4305e-06)
(8.0636e-05 3.9338e-06 -9.5091e-06)
(8.0632e-05 2.0315e-06 -1.0241e-05)
(8.0634e-05 -1.0424e-09 -1.052e-05)
(8.0937e-05 4.1127e-06 4.4123e-10)
(8.0947e-05 4.0002e-06 -8.0463e-07)
(8.0971e-05 3.6785e-06 -1.5237e-06)
(8.0978e-05 3.1991e-06 -2.1233e-06)
(8.0982e-05 2.6635e-06 -2.6641e-06)
(8.0978e-05 2.1223e-06 -3.2e-06)
(8.0971e-05 1.5226e-06 -3.6792e-06)
(8.0947e-05 8.0348e-07 -4.0007e-06)
(8.0937e-05 -8.8793e-10 -4.1129e-06)
(8.062e-05 -3.6587e-06 7.8562e-11)
(8.0652e-05 -3.5761e-06 6.7847e-07)
(8.0697e-05 -3.3922e-06 1.3897e-06)
(8.0685e-05 -3.1565e-06 2.1308e-06)
(8.0666e-05 -2.7617e-06 2.7605e-06)
(8.0685e-05 -2.1321e-06 3.1555e-06)
(8.0697e-05 -1.391e-06 3.3914e-06)
(8.0652e-05 -6.7981e-07 3.5754e-06)
(8.0621e-05 -1.3291e-09 3.6582e-06)
(7.9712e-05 -1.2536e-05 6.8128e-10)
(7.9729e-05 -1.2287e-05 2.4209e-06)
(7.9762e-05 -1.1581e-05 4.7846e-06)
(7.9772e-05 -1.048e-05 7.013e-06)
(7.9773e-05 -8.9537e-06 8.9532e-06)
(7.9772e-05 -7.0144e-06 1.0479e-05)
(7.9762e-05 -4.7861e-06 1.158e-05)
(7.973e-05 -2.4224e-06 1.2286e-05)
(7.9713e-05 -2.0874e-09 1.2536e-05)
(7.8194e-05 -2.225e-05 -3.2987e-11)
(7.8208e-05 -2.181e-05 4.3266e-06)
(7.8234e-05 -2.053e-05 8.5079e-06)
(7.8261e-05 -1.8485e-05 1.2363e-05)
(7.8267e-05 -1.5736e-05 1.5734e-05)
(7.8261e-05 -1.2365e-05 1.8483e-05)
(7.8234e-05 -8.5095e-06 2.0529e-05)
(7.8209e-05 -4.3282e-06 2.1809e-05)
(7.8195e-05 -1.48e-09 2.2249e-05)
(7.6081e-05 -3.245e-05 8.9816e-11)
(7.6104e-05 -3.1788e-05 6.3148e-06)
(7.6144e-05 -2.9881e-05 1.2388e-05)
(7.6149e-05 -2.6866e-05 1.7975e-05)
(7.6145e-05 -2.2859e-05 2.2857e-05)
(7.6149e-05 -1.7976e-05 2.6864e-05)
(7.6145e-05 -1.2389e-05 2.9879e-05)
(7.6105e-05 -6.3164e-06 3.1787e-05)
(7.6081e-05 -1.6373e-09 3.2448e-05)
(7.3429e-05 -4.2617e-05 -1.4992e-10)
(7.3471e-05 -4.1726e-05 8.2834e-06)
(7.3526e-05 -3.9185e-05 1.6244e-05)
(7.3509e-05 -3.5214e-05 2.3562e-05)
(7.3482e-05 -2.9959e-05 2.9957e-05)
(7.3509e-05 -2.3563e-05 3.5213e-05)
(7.3527e-05 -1.6246e-05 3.9183e-05)
(7.3472e-05 -8.285e-06 4.1725e-05)
(7.343e-05 -1.3628e-09 4.2615e-05)
(7.031e-05 -5.216e-05 -5.5806e-10)
(7.0329e-05 -5.1057e-05 1.0122e-05)
(7.0361e-05 -4.7926e-05 1.9849e-05)
(7.0366e-05 -4.3059e-05 2.8802e-05)
(7.0363e-05 -3.6633e-05 3.6632e-05)
(7.0366e-05 -2.8804e-05 4.3057e-05)
(7.0362e-05 -1.985e-05 4.7925e-05)
(7.0329e-05 -1.0123e-05 5.1055e-05)
(7.0311e-05 -8.6581e-10 5.2158e-05)
(6.668e-05 -6.0492e-05 -2.7509e-10)
(6.6684e-05 -5.9188e-05 1.173e-05)
(6.67e-05 -5.5545e-05 2.3003e-05)
(6.6721e-05 -4.9891e-05 3.3374e-05)
(6.6734e-05 -4.2457e-05 4.2456e-05)
(6.6721e-05 -3.3375e-05 4.9889e-05)
(6.67e-05 -2.3004e-05 5.5543e-05)
(6.6684e-05 -1.1732e-05 5.9186e-05)
(6.668e-05 -1.0087e-09 6.049e-05)
(6.2528e-05 -6.7128e-05 -4.6528e-10)
(6.2532e-05 -6.5718e-05 1.305e-05)
(6.2549e-05 -6.1686e-05 2.5567e-05)
(6.2562e-05 -5.5384e-05 3.7048e-05)
(6.257e-05 -4.7092e-05 4.7091e-05)
(6.2562e-05 -3.705e-05 5.5382e-05)
(6.2549e-05 -2.5568e-05 6.1684e-05)
(6.2532e-05 -1.3051e-05 6.5716e-05)
(6.2528e-05 -6.2709e-10 6.7126e-05)
(5.7925e-05 -7.2181e-05 -3.8607e-10)
(5.7939e-05 -7.0685e-05 1.4056e-05)
(5.7963e-05 -6.6355e-05 2.7521e-05)
(5.7958e-05 -5.9558e-05 3.9838e-05)
(5.7951e-05 -5.0611e-05 5.061e-05)
(5.7958e-05 -3.9839e-05 5.9557e-05)
(5.7962e-05 -2.7522e-05 6.6354e-05)
(5.7939e-05 -1.4057e-05 7.0683e-05)
(5.7925e-05 -4.8256e-10 7.2179e-05)
(5.2991e-05 -7.5682e-05 -3.4366e-10)
(5.2993e-05 -7.4085e-05 1.4704e-05)
(5.3001e-05 -6.9526e-05 2.8806e-05)
(5.3004e-05 -6.2411e-05 4.1743e-05)
(5.3006e-05 -5.3062e-05 5.3061e-05)
(5.3003e-05 -4.1744e-05 6.241e-05)
(5.3e-05 -2.8807e-05 6.9524e-05)
(5.2993e-05 -1.4705e-05 7.4084e-05)
(5.2991e-05 -2.8241e-10 7.568e-05)
(4.7819e-05 -7.7317e-05 -4.9188e-10)
(4.7816e-05 -7.5646e-05 1.499e-05)
(4.7805e-05 -7.0967e-05 2.9382e-05)
(4.7822e-05 -6.3712e-05 4.2615e-05)
(4.7823e-05 -5.4199e-05 5.4198e-05)
(4.7822e-05 -4.2616e-05 6.3712e-05)
(4.7804e-05 -2.9383e-05 7.0966e-05)
(4.7815e-05 -1.499e-05 7.5646e-05)
(4.7818e-05 1.1222e-10 7.7316e-05)
(4.2501e-05 -7.6737e-05 -9.0316e-10)
(4.2486e-05 -7.5117e-05 1.4916e-05)
(4.2472e-05 -7.0495e-05 2.9207e-05)
(4.2478e-05 -6.3275e-05 4.2311e-05)
(4.249e-05 -5.3787e-05 5.3788e-05)
(4.2478e-05 -4.2312e-05 6.3275e-05)
(4.2472e-05 -2.9207e-05 7.0495e-05)
(4.2485e-05 -1.4916e-05 7.5116e-05)
(4.25e-05 7.6063e-10 7.6736e-05)
(3.7139e-05 -7.4273e-05 -5.2073e-10)
(3.7114e-05 -7.2747e-05 1.4487e-05)
(3.7085e-05 -6.8314e-05 2.8332e-05)
(3.7094e-05 -6.1294e-05 4.0972e-05)
(3.7111e-05 -5.2056e-05 5.2056e-05)
(3.7094e-05 -4.0972e-05 6.1294e-05)
(3.7085e-05 -2.8332e-05 6.8314e-05)
(3.7114e-05 -1.4487e-05 7.2747e-05)
(3.7139e-05 5.8661e-10 7.4273e-05)
(3.1837e-05 -7.0264e-05 -4.9781e-10)
(3.1791e-05 -6.8867e-05 1.3725e-05)
(3.1738e-05 -6.4723e-05 2.6825e-05)
(3.176e-05 -5.8058e-05 3.8778e-05)
(3.1793e-05 -4.9273e-05 4.9273e-05)
(3.176e-05 -3.8777e-05 5.8058e-05)
(3.1738e-05 -2.6825e-05 6.4723e-05)
(3.1791e-05 -1.3725e-05 6.8867e-05)
(3.1837e-05 7.4322e-10 7.0265e-05)
(2.6668e-05 -6.4846e-05 -4.5557e-10)
(2.6601e-05 -6.3592e-05 1.2665e-05)
(2.6532e-05 -5.9792e-05 2.4761e-05)
(2.6566e-05 -5.3635e-05 3.5808e-05)
(2.6617e-05 -4.5496e-05 4.5497e-05)
(2.6566e-05 -3.5808e-05 5.3636e-05)
(2.6532e-05 -2.4761e-05 5.9792e-05)
(2.6601e-05 -1.2664e-05 6.3593e-05)
(2.6667e-05 8.2954e-10 6.4847e-05)
(2.1817e-05 -5.7684e-05 -3.9484e-10)
(2.1772e-05 -5.6484e-05 1.1226e-05)
(2.1713e-05 -5.3052e-05 2.1977e-05)
(2.1743e-05 -4.7634e-05 3.1837e-05)
(2.1775e-05 -4.0489e-05 4.049e-05)
(2.1743e-05 -3.1836e-05 4.7634e-05)
(2.1713e-05 -2.1976e-05 5.3053e-05)
(2.1772e-05 -1.1225e-05 5.6485e-05)
(2.1817e-05 8.3612e-10 5.7685e-05)
(1.7763e-05 -4.7627e-05 -3.2804e-10)
(1.773e-05 -4.6538e-05 9.2443e-06)
(1.7658e-05 -4.3675e-05 1.8109e-05)
(1.7703e-05 -3.9236e-05 2.625e-05)
(1.7726e-05 -3.343e-05 3.3431e-05)
(1.7703e-05 -2.625e-05 3.9237e-05)
(1.7658e-05 -1.8108e-05 4.3675e-05)
(1.773e-05 -9.2438e-06 4.6538e-05)
(1.7763e-05 7.7981e-10 4.7627e-05)
(1.4515e-05 -3.4321e-05 -2.7219e-10)
(1.4408e-05 -3.3675e-05 6.7402e-06)
(1.4295e-05 -3.1703e-05 1.3142e-05)
(1.4373e-05 -2.8424e-05 1.8955e-05)
(1.4465e-05 -2.4086e-05 2.4087e-05)
(1.4373e-05 -1.8954e-05 2.8424e-05)
(1.4295e-05 -1.3142e-05 3.1703e-05)
(1.4408e-05 -6.7397e-06 3.3675e-05)
(1.4515e-05 6.692e-10 3.4321e-05)
(1.0887e-05 -2.0407e-05 -2.0488e-10)
(1.0708e-05 -2.022e-05 4.1126e-06)
(1.0556e-05 -1.9185e-05 7.9457e-06)
(1.067e-05 -1.7111e-05 1.1323e-05)
(1.083e-05 -1.4312e-05 1.4312e-05)
(1.067e-05 -1.1323e-05 1.7111e-05)
(1.0556e-05 -7.9453e-06 1.9185e-05)
(1.0708e-05 -4.1122e-06 2.022e-05)
(1.0887e-05 4.9336e-10 2.0407e-05)
(5.8377e-06 -8.8376e-06 -1.0441e-10)
(5.7609e-06 -8.7735e-06 1.8075e-06)
(5.6783e-06 -8.3588e-06 3.4586e-06)
(5.7386e-06 -7.4411e-06 4.893e-06)
(5.8056e-06 -6.1972e-06 6.1974e-06)
(5.7386e-06 -4.8928e-06 7.4413e-06)
(5.6783e-06 -3.4584e-06 8.3589e-06)
(5.761e-06 -1.8073e-06 8.7735e-06)
(5.8378e-06 2.4204e-10 8.8376e-06)
(2.2407e-12 -3.0782e-12 -3.667e-17)
(8.2031e-09 4.604e-09 1.3723e-08)
(2.8365e-12 1.0683e-12 -3.9483e-13)
(7.1356e-09 -3.644e-09 -1.3168e-08)
(1.3046e-12 -6.8102e-12 6.8105e-12)
(7.1348e-09 1.3169e-08 3.646e-09)
(2.8366e-12 3.9482e-13 -1.0683e-12)
(8.2043e-09 -1.3723e-08 -4.6042e-09)
(2.2407e-12 8.1702e-17 3.0782e-12)
(9.4038e-06 6.0273e-07 3.958e-06)
(1.5386e-08 -3.1285e-08 3.9191e-08)
(9.2679e-06 1.403e-06 3.3892e-06)
(4.5492e-12 1.535e-12 4.0338e-12)
(9.4021e-06 2.3729e-06 3.2277e-06)
(1.5315e-08 4.98e-08 5.7738e-09)
(9.5389e-06 3.0807e-06 3.0807e-06)
(2.6632e-12 -1.4298e-12 -1.4298e-12)
(9.4021e-06 3.2277e-06 2.373e-06)
(1.5315e-08 5.7741e-09 4.98e-08)
(9.2679e-06 3.3891e-06 1.4031e-06)
(4.5491e-12 4.0338e-12 1.5351e-12)
(9.4038e-06 3.9579e-06 6.0276e-07)
(1.5386e-08 3.9192e-08 -3.1285e-08)
(9.5412e-06 4.3533e-06 -1.4148e-10)
(3.802e-12 1.809e-12 -5.3121e-17)
(1.6484e-05 5.6085e-07 4.2032e-06)
(1.6242e-05 1.4049e-06 3.3962e-06)
(1.6481e-05 2.5775e-06 3.3761e-06)
(1.6792e-05 3.5137e-06 3.5138e-06)
(1.6481e-05 3.376e-06 2.5776e-06)
(1.6242e-05 3.396e-06 1.405e-06)
(1.6484e-05 4.2031e-06 5.609e-07)
(1.6796e-05 4.9589e-06 -2.8102e-10)
(2.0318e-05 -2.2273e-07 -3.8631e-07)
(2.0185e-05 -2.5763e-07 -6.1528e-07)
(2.0314e-05 -1.1052e-07 -4.1675e-07)
(2.0452e-05 -1.0641e-07 -1.063e-07)
(2.0314e-05 -4.169e-07 -1.1044e-07)
(2.0185e-05 -6.1549e-07 -2.5758e-07)
(2.0318e-05 -3.8662e-07 -2.2268e-07)
(2.0458e-05 -1.7153e-07 -3.9781e-10)
(2.2572e-05 -1.1547e-06 -5.8011e-06)
(2.2546e-05 -2.2429e-06 -5.4085e-06)
(2.2569e-05 -3.2757e-06 -4.8988e-06)
(2.253e-05 -4.3131e-06 -4.313e-06)
(2.2569e-05 -4.899e-06 -3.2756e-06)
(2.2546e-05 -5.4088e-06 -2.2429e-06)
(2.2572e-05 -5.8016e-06 -1.1547e-06)
(2.2535e-05 -6.1322e-06 -4.9325e-10)
(2.5381e-05 -1.5909e-06 -7.86e-06)
(2.5354e-05 -3.0739e-06 -7.4219e-06)
(2.5381e-05 -4.418e-06 -6.6607e-06)
(2.5398e-05 -5.6422e-06 -5.642e-06)
(2.5381e-05 -6.6611e-06 -4.4179e-06)
(2.5354e-05 -7.4225e-06 -3.0739e-06)
(2.5382e-05 -7.8608e-06 -1.5909e-06)
(2.5399e-05 -8.0182e-06 -5.7832e-10)
(2.8929e-05 -1.5425e-06 -7.2429e-06)
(2.8858e-05 -2.9068e-06 -7.0216e-06)
(2.8932e-05 -4.0129e-06 -6.1892e-06)
(2.902e-05 -5.0072e-06 -5.007e-06)
(2.8932e-05 -6.1897e-06 -4.0128e-06)
(2.8858e-05 -7.0224e-06 -2.9068e-06)
(2.8929e-05 -7.2441e-06 -1.5426e-06)
(2.9017e-05 -7.1238e-06 -6.394e-10)
(3.2504e-05 -1.345e-06 -6.277e-06)
(3.2464e-05 -2.5168e-06 -6.0748e-06)
(3.251e-05 -3.473e-06 -5.3676e-06)
(3.2556e-05 -4.3863e-06 -4.386e-06)
(3.251e-05 -5.3682e-06 -3.4729e-06)
(3.2465e-05 -6.0759e-06 -2.5169e-06)
(3.2504e-05 -6.2785e-06 -1.3451e-06)
(3.2548e-05 -6.243e-06 -6.6381e-10)
(3.5856e-05 -1.1361e-06 -5.48e-06)
(3.5859e-05 -2.1708e-06 -5.2297e-06)
(3.5868e-05 -3.0698e-06 -4.6673e-06)
(3.5872e-05 -3.9093e-06 -3.9089e-06)
(3.5868e-05 -4.6681e-06 -3.0697e-06)
(3.5859e-05 -5.2309e-06 -2.1709e-06)
(3.5856e-05 -5.4816e-06 -1.1362e-06)
(3.5855e-05 -5.5474e-06 -6.5043e-10)
(3.9056e-05 -9.0774e-07 -4.4694e-06)
(3.9068e-05 -1.7597e-06 -4.2386e-06)
(3.9077e-05 -2.5382e-06 -3.8225e-06)
(3.9083e-05 -3.2416e-06 -3.2419e-06)
(3.9077e-05 -3.8234e-06 -2.5381e-06)
(3.9068e-05 -4.2398e-06 -1.7598e-06)
(3.9056e-05 -4.4711e-06 -9.0778e-07)
(3.9053e-05 -4.5476e-06 -8.5355e-11)
(4.2127e-05 -6.1757e-07 -3.1525e-06)
(4.2126e-05 -1.2407e-06 -2.9939e-06)
(4.2158e-05 -1.8354e-06 -2.7335e-06)
(4.2168e-05 -2.3492e-06 -2.3487e-06)
(4.2158e-05 -2.7343e-06 -1.8353e-06)
(4.2126e-05 -2.9952e-06 -1.2407e-06)
(4.2127e-05 -3.1542e-06 -6.1756e-07)
(4.2128e-05 -3.2105e-06 -4.8573e-10)
(4.5085e-05 -3.1774e-07 -1.7037e-06)
(4.5092e-05 -6.6758e-07 -1.6412e-06)
(4.5111e-05 -1.0421e-06 -1.545e-06)
(4.5125e-05 -1.3586e-06 -1.358e-06)
(4.5111e-05 -1.5459e-06 -1.0419e-06)
(4.5092e-05 -1.6424e-06 -6.6754e-07)
(4.5086e-05 -1.7053e-06 -3.1767e-07)
(4.5089e-05 -1.7332e-06 -4.8482e-10)
(4.8052e-05 -4.6643e-08 -3.5543e-07)
(4.8061e-05 -1.4184e-07 -3.8634e-07)
(4.8069e-05 -3.0118e-07 -4.3773e-07)
(4.8073e-05 -4.2935e-07 -4.2888e-07)
(4.8069e-05 -4.3854e-07 -3.0096e-07)
(4.8061e-05 -3.8749e-07 -1.4172e-07)
(4.8052e-05 -3.5684e-07 -4.6481e-08)
(4.8049e-05 -3.5283e-07 -1.2176e-10)
(5.1075e-05 1.0576e-07 5.1825e-07)
(5.1071e-05 1.6858e-07 4.0192e-07)
(5.1079e-05 1.8313e-07 2.803e-07)
(5.1091e-05 2.0524e-07 2.0576e-07)
(5.1079e-05 2.7957e-07 1.8342e-07)
(5.1071e-05 4.0094e-07 1.6882e-07)
(5.1075e-05 5.1711e-07 1.0604e-07)
(5.1084e-05 5.6956e-07 5.1965e-11)
(5.4147e-05 8.0099e-08 4.4587e-07)
(5.4128e-05 1.2418e-07 3.2009e-07)
(5.4141e-05 1.375e-07 2.1525e-07)
(5.4153e-05 1.6357e-07 1.6404e-07)
(5.4141e-05 2.1461e-07 1.3787e-07)
(5.4129e-05 3.193e-07 1.2454e-07)
(5.4147e-05 4.4502e-07 8.0511e-08)
(5.4164e-05 5.162e-07 2.9666e-10)
(5.7211e-05 -1.7322e-07 -9.0653e-07)
(5.7183e-05 -3.8213e-07 -9.2376e-07)
(5.7193e-05 -6.2276e-07 -9.1387e-07)
(5.7212e-05 -8.1961e-07 -8.1915e-07)
(5.7193e-05 -9.1445e-07 -6.223e-07)
(5.7183e-05 -9.244e-07 -3.8163e-07)
(5.7211e-05 -9.0712e-07 -1.7268e-07)
(5.7237e-05 -8.9462e-07 5.1909e-10)
(6.0211e-05 -6.7617e-07 -3.5411e-06)
(6.0177e-05 -1.3714e-06 -3.3541e-06)
(6.0178e-05 -2.0876e-06 -3.103e-06)
(6.0193e-05 -2.7004e-06 -2.6999e-06)
(6.0178e-05 -3.1036e-06 -2.087e-06)
(6.0177e-05 -3.3546e-06 -1.3708e-06)
(6.0212e-05 -3.5415e-06 -6.755e-07)
(6.024e-05 -3.6164e-06 6.5052e-10)
(6.309e-05 -1.4075e-06 -7.1975e-06)
(6.3046e-05 -2.7901e-06 -6.7713e-06)
(6.3034e-05 -4.1014e-06 -6.1248e-06)
(6.3042e-05 -5.2397e-06 -5.2389e-06)
(6.3034e-05 -6.1254e-06 -4.1007e-06)
(6.3046e-05 -6.7717e-06 -2.7893e-06)
(6.309e-05 -7.1977e-06 -1.4068e-06)
(6.3122e-05 -7.3523e-06 8.9057e-10)
(6.5837e-05 -2.2663e-06 -1.1415e-05)
(6.5784e-05 -4.4377e-06 -1.0711e-05)
(6.5771e-05 -6.4191e-06 -9.5985e-06)
(6.5764e-05 -8.1577e-06 -8.157e-06)
(6.5771e-05 -9.5991e-06 -6.4184e-06)
(6.5784e-05 -1.0711e-05 -4.4369e-06)
(6.5837e-05 -1.1415e-05 -2.2654e-06)
(6.5865e-05 -1.1661e-05 8.3044e-10)
(6.8411e-05 -3.1228e-06 -1.5614e-05)
(6.8363e-05 -6.0757e-06 -1.4621e-05)
(6.8352e-05 -8.7304e-06 -1.3059e-05)
(6.8361e-05 -1.1061e-05 -1.1061e-05)
(6.8352e-05 -1.3059e-05 -8.7296e-06)
(6.8364e-05 -1.4621e-05 -6.0749e-06)
(6.8411e-05 -1.5615e-05 -3.122e-06)
(6.8446e-05 -1.5955e-05 1.0339e-09)
(7.0777e-05 -3.8377e-06 -1.9189e-05)
(7.0742e-05 -7.4625e-06 -1.7944e-05)
(7.074e-05 -1.0698e-05 -1.6e-05)
(7.0756e-05 -1.3541e-05 -1.354e-05)
(7.074e-05 -1.6001e-05 -1.0697e-05)
(7.0742e-05 -1.7944e-05 -7.4616e-06)
(7.0778e-05 -1.9189e-05 -3.8367e-06)
(7.0809e-05 -1.9622e-05 8.2538e-10)
(7.2904e-05 -4.2755e-06 -2.1544e-05)
(7.2882e-05 -8.3318e-06 -2.0107e-05)
(7.2884e-05 -1.1999e-05 -1.7944e-05)
(7.2897e-05 -1.5216e-05 -1.5215e-05)
(7.2884e-05 -1.7944e-05 -1.1998e-05)
(7.2882e-05 -2.0107e-05 -8.3307e-06)
(7.2904e-05 -2.1544e-05 -4.2745e-06)
(7.2926e-05 -2.2064e-05 7.7107e-10)
(7.4871e-05 -4.4045e-06 -2.2264e-05)
(7.4858e-05 -8.5845e-06 -2.0757e-05)
(7.4865e-05 -1.2391e-05 -1.8527e-05)
(7.4862e-05 -1.5739e-05 -1.5738e-05)
(7.4865e-05 -1.8528e-05 -1.239e-05)
(7.4858e-05 -2.0758e-05 -8.5833e-06)
(7.4871e-05 -2.2265e-05 -4.4033e-06)
(7.4874e-05 -2.2835e-05 7.391e-10)
(7.6717e-05 -4.2229e-06 -2.1202e-05)
(7.6718e-05 -8.2081e-06 -1.9786e-05)
(7.6718e-05 -1.179e-05 -1.7638e-05)
(7.6721e-05 -1.4937e-05 -1.4936e-05)
(7.6718e-05 -1.7638e-05 -1.1789e-05)
(7.6719e-05 -1.9786e-05 -8.2067e-06)
(7.6718e-05 -2.1202e-05 -4.2216e-06)
(7.672e-05 -2.1704e-05 9.3143e-10)
(7.839e-05 -3.7599e-06 -1.8701e-05)
(7.8403e-05 -7.2779e-06 -1.7473e-05)
(7.8401e-05 -1.0381e-05 -1.5538e-05)
(7.84e-05 -1.3108e-05 -1.3107e-05)
(7.8401e-05 -1.5539e-05 -1.0379e-05)
(7.8403e-05 -1.7474e-05 -7.2763e-06)
(7.8391e-05 -1.8702e-05 -3.7584e-06)
(7.8385e-05 -1.9106e-05 6.2844e-10)
(7.9739e-05 -3.0134e-06 -1.5066e-05)
(7.9746e-05 -5.8367e-06 -1.4043e-05)
(7.9762e-05 -8.3435e-06 -1.248e-05)
(7.9775e-05 -1.055e-05 -1.0548e-05)
(7.9762e-05 -1.2481e-05 -8.3419e-06)
(7.9746e-05 -1.4044e-05 -5.8349e-06)
(7.9739e-05 -1.5067e-05 -3.0118e-06)
(7.9743e-05 -1.5426e-05 6.4181e-10)
(8.0632e-05 -2.0336e-06 -1.0241e-05)
(8.0636e-05 -3.9357e-06 -9.5086e-06)
(8.0665e-05 -5.6307e-06 -8.4298e-06)
(8.068e-05 -7.1313e-06 -7.1297e-06)
(8.0666e-05 -8.431e-06 -5.629e-06)
(8.0637e-05 -9.5095e-06 -3.9339e-06)
(8.0633e-05 -1.0242e-05 -2.0319e-06)
(8.0635e-05 -1.0521e-05 4.9081e-10)
(8.0947e-05 -8.0584e-07 -4.0005e-06)
(8.0971e-05 -1.5248e-06 -3.6787e-06)
(8.0979e-05 -2.1243e-06 -3.1994e-06)
(8.0982e-05 -2.6654e-06 -2.6633e-06)
(8.0979e-05 -3.2008e-06 -2.1226e-06)
(8.0971e-05 -3.6799e-06 -1.5231e-06)
(8.0947e-05 -4.0015e-06 -8.0413e-07)
(8.0938e-05 -4.114e-06 8.6399e-11)
(8.0653e-05 6.7717e-07 3.5756e-06)
(8.0697e-05 1.3885e-06 3.3917e-06)
(8.0686e-05 2.1296e-06 3.156e-06)
(8.0667e-05 2.7595e-06 2.7611e-06)
(8.0686e-05 3.1545e-06 2.1314e-06)
(8.0697e-05 3.3904e-06 1.3902e-06)
(8.0652e-05 3.5744e-06 6.7888e-07)
(8.0621e-05 3.6571e-06 2.8208e-10)
(7.973e-05 2.4196e-06 1.2286e-05)
(7.9762e-05 4.7833e-06 1.158e-05)
(7.9772e-05 7.0118e-06 1.0479e-05)
(7.9773e-05 8.9512e-06 8.9536e-06)
(7.9772e-05 1.0478e-05 7.0134e-06)
(7.9762e-05 1.1579e-05 4.785e-06)
(7.9729e-05 1.2285e-05 2.4213e-06)
(7.9712e-05 1.2535e-05 -5.0035e-10)
(7.8209e-05 4.3252e-06 2.1809e-05)
(7.8234e-05 8.5066e-06 2.0529e-05)
(7.8262e-05 1.2362e-05 1.8483e-05)
(7.8268e-05 1.5733e-05 1.5734e-05)
(7.8262e-05 1.8482e-05 1.2363e-05)
(7.8234e-05 2.0528e-05 8.5082e-06)
(7.8209e-05 2.1809e-05 4.3268e-06)
(7.8194e-05 2.2249e-05 2.1473e-11)
(7.6105e-05 6.3135e-06 3.1787e-05)
(7.6145e-05 1.2387e-05 2.9879e-05)
(7.615e-05 1.7973e-05 2.6864e-05)
(7.6145e-05 2.2856e-05 2.2857e-05)
(7.615e-05 2.6863e-05 1.7975e-05)
(7.6145e-05 2.9879e-05 1.2388e-05)
(7.6104e-05 3.1786e-05 6.315e-06)
(7.6081e-05 3.2448e-05 -3.0593e-10)
(7.3472e-05 8.2823e-06 4.1725e-05)
(7.3527e-05 1.6243e-05 3.9183e-05)
(7.3509e-05 2.3561e-05 3.5213e-05)
(7.3482e-05 2.9957e-05 2.9957e-05)
(7.3509e-05 3.5212e-05 2.3562e-05)
(7.3526e-05 3.9183e-05 1.6244e-05)
(7.3471e-05 4.1725e-05 8.2835e-06)
(7.3429e-05 4.2616e-05 -2.6813e-10)
(7.0329e-05 1.0121e-05 5.1055e-05)
(7.0361e-05 1.9848e-05 4.7925e-05)
(7.0366e-05 2.8802e-05 4.3058e-05)
(7.0363e-05 3.6632e-05 3.6632e-05)
(7.0366e-05 4.3057e-05 2.8802e-05)
(7.0361e-05 4.7925e-05 1.9849e-05)
(7.0329e-05 5.1056e-05 1.0122e-05)
(7.031e-05 5.2159e-05 -7.4469e-10)
(6.6684e-05 1.173e-05 5.9186e-05)
(6.67e-05 2.3003e-05 5.5543e-05)
(6.6721e-05 3.3373e-05 4.989e-05)
(6.6734e-05 4.2456e-05 4.2456e-05)
(6.6721e-05 4.989e-05 3.3374e-05)
(6.67e-05 5.5544e-05 2.3003e-05)
(6.6684e-05 5.9187e-05 1.173e-05)
(6.6679e-05 6.0491e-05 -5.0215e-10)
(6.2532e-05 1.305e-05 6.5716e-05)
(6.2549e-05 2.5567e-05 6.1684e-05)
(6.2561e-05 3.7048e-05 5.5382e-05)
(6.257e-05 4.7091e-05 4.7091e-05)
(6.2561e-05 5.5383e-05 3.7048e-05)
(6.2549e-05 6.1685e-05 2.5567e-05)
(6.2532e-05 6.5717e-05 1.305e-05)
(6.2527e-05 6.7127e-05 -4.3159e-10)
(5.7939e-05 1.4056e-05 7.0684e-05)
(5.7962e-05 2.7521e-05 6.6354e-05)
(5.7958e-05 3.9838e-05 5.9557e-05)
(5.7951e-05 5.0611e-05 5.061e-05)
(5.7958e-05 5.9558e-05 3.9838e-05)
(5.7962e-05 6.6355e-05 2.7521e-05)
(5.7939e-05 7.0685e-05 1.4056e-05)
(5.7924e-05 7.218e-05 -5.9581e-10)
(5.2993e-05 1.4705e-05 7.4084e-05)
(5.3e-05 2.8807e-05 6.9525e-05)
(5.3003e-05 4.1744e-05 6.241e-05)
(5.3006e-05 5.3062e-05 5.3061e-05)
(5.3003e-05 6.2411e-05 4.1743e-05)
(5.3e-05 6.9526e-05 2.8806e-05)
(5.2993e-05 7.4085e-05 1.4704e-05)
(5.2991e-05 7.5682e-05 -7.2291e-10)
(4.7815e-05 1.499e-05 7.5646e-05)
(4.7804e-05 2.9383e-05 7.0967e-05)
(4.7821e-05 4.2616e-05 6.3712e-05)
(4.7823e-05 5.4199e-05 5.4199e-05)
(4.7821e-05 6.3713e-05 4.2616e-05)
(4.7804e-05 7.0967e-05 2.9382e-05)
(4.7815e-05 7.5646e-05 1.499e-05)
(4.7818e-05 7.7317e-05 -6.1299e-10)
(4.2485e-05 1.4917e-05 7.5117e-05)
(4.2472e-05 2.9208e-05 7.0495e-05)
(4.2478e-05 4.2312e-05 6.3275e-05)
(4.249e-05 5.3788e-05 5.3788e-05)
(4.2478e-05 6.3276e-05 4.2311e-05)
(4.2472e-05 7.0495e-05 2.9207e-05)
(4.2485e-05 7.5117e-05 1.4916e-05)
(4.25e-05 7.6736e-05 -9.5907e-10)
(3.7114e-05 1.4488e-05 7.2747e-05)
(3.7085e-05 2.8334e-05 6.8314e-05)
(3.7094e-05 4.0974e-05 6.1294e-05)
(3.7111e-05 5.2057e-05 5.2056e-05)
(3.7094e-05 6.1295e-05 4.0972e-05)
(3.7085e-05 6.8315e-05 2.8332e-05)
(3.7114e-05 7.2747e-05 1.4487e-05)
(3.7139e-05 7.4273e-05 -5.1925e-10)
(3.1791e-05 1.3726e-05 6.8867e-05)
(3.1738e-05 2.6826e-05 6.4723e-05)
(3.176e-05 3.8779e-05 5.8058e-05)
(3.1793e-05 4.9274e-05 4.9273e-05)
(3.176e-05 5.8058e-05 3.8777e-05)
(3.1738e-05 6.4724e-05 2.6824e-05)
(3.179e-05 6.8867e-05 1.3725e-05)
(3.1837e-05 7.0264e-05 -4.534e-10)
(2.6601e-05 1.2666e-05 6.3593e-05)
(2.6532e-05 2.4763e-05 5.9792e-05)
(2.6566e-05 3.5809e-05 5.3635e-05)
(2.6617e-05 4.5497e-05 4.5496e-05)
(2.6566e-05 5.3636e-05 3.5808e-05)
(2.6532e-05 5.9792e-05 2.4761e-05)
(2.6601e-05 6.3593e-05 1.2664e-05)
(2.6667e-05 6.4846e-05 -3.918e-10)
(2.1772e-05 1.1227e-05 5.6484e-05)
(2.1714e-05 2.1978e-05 5.3052e-05)
(2.1743e-05 3.1838e-05 4.7634e-05)
(2.1775e-05 4.049e-05 4.0489e-05)
(2.1743e-05 4.7634e-05 3.1836e-05)
(2.1713e-05 5.3053e-05 2.1977e-05)
(2.1772e-05 5.6485e-05 1.1225e-05)
(2.1817e-05 5.7685e-05 -3.3343e-10)
(1.7731e-05 9.2453e-06 4.6538e-05)
(1.7658e-05 1.8109e-05 4.3675e-05)
(1.7703e-05 2.6251e-05 3.9236e-05)
(1.7726e-05 3.3431e-05 3.3431e-05)
(1.7704e-05 3.9237e-05 2.625e-05)
(1.7658e-05 4.3675e-05 1.8108e-05)
(1.7731e-05 4.6538e-05 9.2441e-06)
(1.7763e-05 4.7627e-05 -2.8306e-10)
(1.4408e-05 6.741e-06 3.3675e-05)
(1.4296e-05 1.3143e-05 3.1703e-05)
(1.4373e-05 1.8955e-05 2.8424e-05)
(1.4465e-05 2.4087e-05 2.4086e-05)
(1.4373e-05 2.8424e-05 1.8954e-05)