/*--------------------------------*- C++ -*----------------------------------*\
| =========                 |                                                 |
| \\      /  F ield         | OpenFOAM: The Open Source CFD Toolbox           |
|  \\    /   O peration     | Version:  4.1                                   |
|   \\  /    A nd           | Web:      www.OpenFOAM.org                      |
|    \\/     M anipulation  |                                                 |
\*---------------------------------------------------------------------------*/
FoamFile
{
    version     2.0;
    format      ascii;
    class       volVectorField;
    location    "0.0046";
    object      cellDisplacement;
}
// * * * * * * * * * * * * * * * * * * * * * * * * * * * * * * * * * * * * * //

dimensions      [0 1 0 0 0 0 0];

internalField   nonuniform List<vector> 
1536
(
(-3.3737e-06 -4.3234e-07 7.05e-11)
(-9.7508e-06 -9.7017e-07 1.4226e-10)
(-1.5223e-05 -7.9938e-07 7.5404e-11)
(-1.9733e-05 -1.3142e-07 -8.748e-11)
(-2.3606e-05 4.5671e-07 -2.3145e-10)
(-2.7205e-05 5.9201e-07 -2.6495e-10)
(-3.0703e-05 3.28e-07 -1.8641e-10)
(-3.4122e-05 -1.0664e-07 -3.9057e-11)
(-3.7441e-05 -5.6156e-07 1.3736e-10)
(-4.0638e-05 -9.9839e-07 3.1648e-10)
(-4.3699e-05 -1.4359e-06 4.9465e-10)
(-4.661e-05 -1.9144e-06 6.8389e-10)
(-3.311e-06 -3.5089e-07 5.8733e-08)
(-9.5957e-06 -7.8929e-07 1.3199e-07)
(-1.5051e-05 -6.5659e-07 1.0943e-07)
(-1.9606e-05 -1.193e-07 1.9117e-08)
(-2.3538e-05 3.6346e-07 -6.1709e-08)
(-2.7172e-05 4.8426e-07 -8.1587e-08)
(-3.068e-05 2.7098e-07 -4.5543e-08)
(-3.4099e-05 -9.7373e-08 1.6291e-08)
(-3.7415e-05 -4.9334e-07 8.2686e-08)
(-4.061e-05 -8.7928e-07 1.4745e-07)
(-4.3667e-05 -1.2684e-06 2.1277e-07)
(-4.6576e-05 -1.6942e-06 2.8428e-07)
(-3.2697e-06 -2.8186e-07 1.1339e-07)
(-9.493e-06 -6.3518e-07 2.5537e-07)
(-1.4936e-05 -5.3187e-07 2.1361e-07)
(-1.9519e-05 -1.0281e-07 4.0908e-08)
(-2.3489e-05 2.8751e-07 -1.1552e-07)
(-2.7147e-05 3.8981e-07 -1.5579e-07)
(-3.0664e-05 2.1884e-07 -8.6885e-08)
(-3.4083e-05 -8.5368e-08 3.4754e-08)
(-3.7397e-05 -4.1821e-07 1.6773e-07)
(-4.0589e-05 -7.4611e-07 2.9892e-07)
(-4.3645e-05 -1.0783e-06 4.3201e-07)
(-4.6552e-05 -1.4422e-06 5.7788e-07)
(-3.2493e-06 -2.2196e-07 1.67e-07)
(-9.4423e-06 -5.0073e-07 3.7666e-07)
(-1.4878e-05 -4.2075e-07 3.1643e-07)
(-1.9475e-05 -8.3919e-08 6.3054e-08)
(-2.3464e-05 2.2388e-07 -1.6804e-07)
(-2.7134e-05 3.0582e-07 -2.2907e-07)
(-3.0656e-05 1.714e-07 -1.2793e-07)
(-3.4075e-05 -7.0672e-08 5.3544e-08)
(-3.7388e-05 -3.3783e-07 2.5376e-07)
(-4.0579e-05 -6.0261e-07 4.5236e-07)
(-4.3634e-05 -8.7168e-07 6.543e-07)
(-4.6539e-05 -1.1666e-06 8.7571e-07)
(-3.2493e-06 -1.6701e-07 2.2194e-07)
(-9.4423e-06 -3.7669e-07 5.0069e-07)
(-1.4878e-05 -3.1647e-07 4.2069e-07)
(-1.9475e-05 -6.3083e-08 8.3865e-08)
(-2.3464e-05 1.6803e-07 -2.2392e-07)
(-2.7134e-05 2.2909e-07 -3.0583e-07)
(-3.0655e-05 1.28e-07 -1.7137e-07)
(-3.4075e-05 -5.3424e-08 7.0753e-08)
(-3.7388e-05 -2.5358e-07 3.3797e-07)
(-4.0579e-05 -4.521e-07 6.0284e-07)
(-4.3634e-05 -6.5395e-07 8.7199e-07)
(-4.6539e-05 -8.7529e-07 1.167e-06)
(-3.2697e-06 -1.134e-07 2.8183e-07)
(-9.4929e-06 -2.5539e-07 6.3512e-07)
(-1.4936e-05 -2.1363e-07 5.3179e-07)
(-1.9519e-05 -4.092e-08 1.0272e-07)
(-2.3489e-05 1.1553e-07 -2.8758e-07)
(-2.7147e-05 1.5583e-07 -3.8985e-07)
(-3.0664e-05 8.6977e-08 -2.1885e-07)
(-3.4083e-05 -3.4605e-08 8.5398e-08)
(-3.7397e-05 -1.6751e-07 4.183e-07)
(-4.0589e-05 -2.9863e-07 7.4628e-07)
(-4.3645e-05 -4.3164e-07 1.0786e-06)
(-4.6552e-05 -5.7743e-07 1.4425e-06)
(-3.311e-06 -5.8741e-08 3.5086e-07)
(-9.5956e-06 -1.3201e-07 7.8921e-07)
(-1.5051e-05 -1.0944e-07 6.5648e-07)
(-1.9606e-05 -1.912e-08 1.1918e-07)
(-2.3538e-05 6.1733e-08 -3.6356e-07)
(-2.7172e-05 8.1648e-08 -4.8434e-07)
(-3.068e-05 4.5651e-08 -2.7104e-07)
(-3.4099e-05 -1.6125e-08 9.7346e-08)
(-3.7415e-05 -8.2453e-08 4.9337e-07)
(-4.0609e-05 -1.4714e-07 8.7939e-07)
(-4.3667e-05 -2.1239e-07 1.2686e-06)
(-4.6576e-05 -2.8383e-07 1.6945e-06)
(-3.3737e-06 -7.9989e-11 4.323e-07)
(-9.7507e-06 -1.642e-10 9.7008e-07)
(-1.5223e-05 -9.3892e-11 7.9925e-07)
(-1.9732e-05 8.9303e-11 1.3128e-07)
(-2.3606e-05 2.6524e-10 -4.5684e-07)
(-2.7205e-05 3.3848e-10 -5.9212e-07)
(-3.0703e-05 3.0774e-10 -3.2811e-07)
(-3.4122e-05 2.1783e-10 1.0656e-07)
(-3.7441e-05 1.0801e-10 5.6154e-07)
(-4.0638e-05 1.3157e-12 9.9845e-07)
(-4.3699e-05 -1.0425e-10 1.4361e-06)
(-4.661e-05 -2.2819e-10 1.9147e-06)
(-3.3111e-06 -3.5091e-07 -5.8639e-08)
(-9.5959e-06 -7.8932e-07 -1.318e-07)
(-1.5051e-05 -6.5661e-07 -1.0935e-07)
(-1.9606e-05 -1.1927e-07 -1.9282e-08)
(-2.3538e-05 3.6351e-07 6.133e-08)
(-2.7172e-05 4.8431e-07 8.1157e-08)
(-3.0681e-05 2.7102e-07 4.524e-08)
(-3.41e-05 -9.7335e-08 -1.6349e-08)
(-3.7415e-05 -4.9329e-07 -8.2443e-08)
(-4.061e-05 -8.7922e-07 -1.4689e-07)
(-4.3667e-05 -1.2683e-06 -2.1189e-07)
(-4.6576e-05 -1.6941e-06 -2.8307e-07)
(-3.2472e-06 -2.7595e-07 1.6894e-10)
(-9.4373e-06 -6.2266e-07 3.6856e-10)
(-1.4873e-05 -5.2387e-07 2.7826e-10)
(-1.9472e-05 -1.0577e-07 -2.0229e-11)
(-2.3462e-05 2.7793e-07 -2.9505e-10)
(-2.7133e-05 3.8174e-07 -3.6756e-10)
(-3.0655e-05 2.149e-07 -2.3055e-10)
(-3.4074e-05 -8.7933e-08 3.1036e-11)
(-3.7387e-05 -4.227e-07 3.4e-10)
(-4.0578e-05 -7.5438e-07 6.5827e-10)
(-4.3633e-05 -1.0912e-06 9.8351e-10)
(-4.6539e-05 -1.4604e-06 1.334e-09)
(-3.2058e-06 -2.1293e-07 5.3661e-08)
(-9.3339e-06 -4.8148e-07 1.2128e-07)
(-1.4756e-05 -4.0814e-07 1.0268e-07)
(-1.9381e-05 -8.7807e-08 2.1881e-08)
(-2.3409e-05 2.1019e-07 -5.3004e-08)
(-2.7105e-05 2.9455e-07 -7.3904e-08)
(-3.0636e-05 1.6605e-07 -4.1443e-08)
(-3.4057e-05 -7.4685e-08 1.895e-08)
(-3.7368e-05 -3.4569e-07 8.688e-08)
(-4.0557e-05 -6.1716e-07 1.55e-07)
(-4.361e-05 -8.943e-07 2.2461e-07)
(-4.6513e-05 -1.1983e-06 3.01e-07)
(-3.1854e-06 -1.5732e-07 1.052e-07)
(-9.2829e-06 -3.5612e-07 2.3809e-07)
(-1.4697e-05 -3.03e-07 2.025e-07)
(-1.9335e-05 -6.716e-08 4.4777e-08)
(-2.3382e-05 1.535e-07 -1.0258e-07)
(-2.7091e-05 2.171e-07 -1.448e-07)
(-3.0627e-05 1.2221e-07 -8.1308e-08)
(-3.4048e-05 -5.8023e-08 3.8959e-08)
(-3.7358e-05 -2.6272e-07 1.755e-07)
(-4.0546e-05 -4.6896e-07 3.1315e-07)
(-4.3598e-05 -6.8011e-07 4.5413e-07)
(-4.65e-05 -9.1189e-07 6.089e-07)
(-3.1854e-06 -1.052e-07 1.573e-07)
(-9.2828e-06 -2.3812e-07 3.5609e-07)
(-1.4697e-05 -2.0254e-07 3.0295e-07)
(-1.9335e-05 -4.4806e-08 6.7111e-08)
(-2.3382e-05 1.0256e-07 -1.5354e-07)
(-2.7091e-05 1.4481e-07 -2.1711e-07)
(-3.0627e-05 8.1359e-08 -1.2219e-07)
(-3.4048e-05 -3.8854e-08 5.8098e-08)
(-3.7358e-05 -1.7533e-07 2.6286e-07)
(-4.0546e-05 -3.1289e-07 4.6918e-07)
(-4.3598e-05 -4.5378e-07 6.8042e-07)
(-4.65e-05 -6.0847e-07 9.1229e-07)
(-3.2057e-06 -5.3666e-08 2.1291e-07)
(-9.3338e-06 -1.2129e-07 4.8142e-07)
(-1.4755e-05 -1.027e-07 4.0807e-07)
(-1.9381e-05 -2.1896e-08 8.7735e-08)
(-2.3409e-05 5.3003e-08 -2.1025e-07)
(-2.7105e-05 7.393e-08 -2.9458e-07)
(-3.0636e-05 4.1512e-08 -1.6605e-07)
(-3.4057e-05 -1.8824e-08 7.472e-08)
(-3.7368e-05 -8.6683e-08 3.4578e-07)
(-4.0557e-05 -1.5472e-07 6.1734e-07)
(-4.361e-05 -2.2424e-07 8.9457e-07)
(-4.6513e-05 -3.0054e-07 1.1987e-06)
(-3.2471e-06 -1.7313e-10 2.7592e-07)
(-9.4372e-06 -3.7934e-10 6.2258e-07)
(-1.4873e-05 -2.9051e-10 5.2377e-07)
(-1.9472e-05 1.4297e-11 1.0567e-07)
(-2.3462e-05 3.0519e-10 -2.7801e-07)
(-2.7133e-05 4.0591e-10 -3.818e-07)
(-3.0655e-05 3.116e-10 -2.1494e-07)
(-3.4074e-05 1.0825e-10 8.7924e-08)
(-3.7387e-05 -1.2825e-10 4.2275e-07)
(-4.0578e-05 -3.6308e-10 7.5449e-07)
(-4.3633e-05 -5.9905e-10 1.0914e-06)
(-4.6539e-05 -8.6111e-10 1.4607e-06)
(-3.3111e-06 5.8633e-08 3.5087e-07)
(-9.5958e-06 1.3179e-07 7.8923e-07)
(-1.5051e-05 1.0933e-07 6.5649e-07)
(-1.9606e-05 1.9281e-08 1.1916e-07)
(-2.3538e-05 -6.1308e-08 -3.6361e-07)
(-2.7172e-05 -8.1105e-08 -4.8439e-07)
(-3.068e-05 -4.5146e-08 -2.7109e-07)
(-3.4099e-05 1.6498e-08 9.7283e-08)
(-3.7415e-05 8.2661e-08 4.9329e-07)
(-4.0609e-05 1.4719e-07 8.7928e-07)
(-4.3667e-05 2.1228e-07 1.2684e-06)
(-4.6576e-05 2.8354e-07 1.6944e-06)
(-3.2699e-06 -2.8195e-07 -1.1354e-07)
(-9.4934e-06 -6.3539e-07 -2.5573e-07)
(-1.4936e-05 -5.3202e-07 -2.1398e-07)
(-1.952e-05 -1.0278e-07 -4.1141e-08)
(-2.3489e-05 2.8767e-07 1.1542e-07)
(-2.7147e-05 3.8999e-07 1.5573e-07)
(-3.0664e-05 2.1897e-07 8.6807e-08)
(-3.4083e-05 -8.5319e-08 -3.4859e-08)
(-3.7397e-05 -4.1822e-07 -1.6783e-07)
(-4.0589e-05 -7.4616e-07 -2.9901e-07)
(-4.3645e-05 -1.0784e-06 -4.3209e-07)
(-4.6552e-05 -1.4423e-06 -5.7795e-07)
(-3.2059e-06 -2.1296e-07 -5.3586e-08)
(-9.3342e-06 -4.8155e-07 -1.2113e-07)
(-1.4756e-05 -4.0818e-07 -1.0262e-07)
(-1.9381e-05 -8.7775e-08 -2.2003e-08)
(-2.3409e-05 2.1027e-07 5.2708e-08)
(-2.7106e-05 2.9462e-07 7.3564e-08)
(-3.0636e-05 1.6609e-07 4.1215e-08)
(-3.4057e-05 -7.464e-08 -1.8948e-08)
(-3.7368e-05 -3.4562e-07 -8.6588e-08)
(-4.0557e-05 -6.1706e-07 -1.544e-07)
(-4.361e-05 -8.9415e-07 -2.2369e-07)
(-4.6513e-05 -1.1981e-06 -2.9974e-07)
(-3.1642e-06 -1.5433e-07 1.1458e-10)
(-9.2299e-06 -3.4979e-07 2.5038e-10)
(-1.4636e-05 -2.9895e-07 1.8554e-10)
(-1.9288e-05 -6.8617e-08 -2.3296e-11)
(-2.3353e-05 1.4882e-07 -2.147e-10)
(-2.7075e-05 2.1324e-07 -2.649e-10)
(-3.0616e-05 1.2026e-07 -1.6237e-10)
(-3.4038e-05 -5.9837e-08 3.6347e-11)
(-3.7348e-05 -2.6637e-07 2.7492e-10)
(-4.0535e-05 -4.7557e-07 5.2432e-10)
(-4.3585e-05 -6.9027e-07 7.8085e-10)
(-4.6487e-05 -9.2605e-07 1.0562e-09)
(-3.1437e-06 -1.017e-07 5.1122e-08)
(-9.1783e-06 -2.3078e-07 1.1599e-07)
(-1.4577e-05 -1.9804e-07 9.9497e-08)
(-1.924e-05 -4.686e-08 2.3474e-08)
(-2.3324e-05 9.6832e-08 -4.8707e-08)
(-2.7059e-05 1.4026e-07 -7.0439e-08)
(-3.0606e-05 7.9e-08 -3.9603e-08)
(-3.4029e-05 -4.1509e-08 2.0937e-08)
(-3.7338e-05 -1.8097e-07 9.0988e-08)
(-4.0523e-05 -3.2304e-07 1.6238e-07)
(-4.3573e-05 -4.6925e-07 2.3587e-07)
(-4.6473e-05 -6.2992e-07 3.1664e-07)
(-3.1437e-06 -5.1126e-08 1.0169e-07)
(-9.1782e-06 -1.16e-07 2.3075e-07)
(-1.4577e-05 -9.9518e-08 1.98e-07)
(-1.924e-05 -2.35e-08 4.6819e-08)
(-2.3324e-05 4.8686e-08 -9.6865e-08)
(-2.7059e-05 7.0438e-08 -1.4028e-07)
(-3.0606e-05 3.964e-08 -7.8978e-08)
(-3.4029e-05 -2.0843e-08 4.1583e-08)
(-3.7338e-05 -9.082e-08 1.8111e-07)
(-4.0523e-05 -1.6212e-07 3.2327e-07)
(-4.3573e-05 -2.3552e-07 4.6958e-07)
(-4.6473e-05 -3.1618e-07 6.3034e-07)
(-3.1642e-06 -1.133e-10 1.5431e-07)
(-9.2298e-06 -2.4976e-10 3.4974e-07)
(-1.4636e-05 -1.9168e-10 2.9889e-07)
(-1.9287e-05 9.0188e-12 6.8558e-08)
(-2.3353e-05 2.0081e-10 -1.4886e-07)
(-2.7075e-05 2.6906e-10 -2.1327e-07)
(-3.0616e-05 2.0648e-10 -1.2025e-07)
(-3.4038e-05 6.9299e-11 5.9883e-08)
(-3.7348e-05 -8.9155e-11 2.6647e-07)
(-4.0535e-05 -2.4365e-10 4.7576e-07)
(-4.3585e-05 -3.9517e-10 6.9055e-07)
(-4.6487e-05 -5.6108e-10 9.2642e-07)
(-3.2058e-06 5.359e-08 2.1293e-07)
(-9.3341e-06 1.2114e-07 4.8147e-07)
(-1.4756e-05 1.0262e-07 4.0808e-07)
(-1.9381e-05 2.1995e-08 8.7694e-08)
(-2.3409e-05 -5.2717e-08 -2.1032e-07)
(-2.7105e-05 -7.3557e-08 -2.9465e-07)
(-3.0636e-05 -4.1169e-08 -1.6611e-07)
(-3.4057e-05 1.9059e-08 7.4648e-08)
(-3.7368e-05 8.6782e-08 3.4567e-07)
(-4.0557e-05 1.5469e-07 6.1717e-07)
(-4.361e-05 2.2409e-07 8.9434e-07)
(-4.6513e-05 3.0025e-07 1.1984e-06)
(-3.2698e-06 1.1354e-07 2.8191e-07)
(-9.4933e-06 2.5572e-07 6.3529e-07)
(-1.4936e-05 2.1397e-07 5.319e-07)
(-1.9519e-05 4.1132e-08 1.0268e-07)
(-2.3489e-05 -1.1542e-07 -2.8774e-07)
(-2.7147e-05 -1.5571e-07 -3.9004e-07)
(-3.0664e-05 -8.6753e-08 -2.1901e-07)
(-3.4083e-05 3.4965e-08 8.5288e-08)
(-3.7397e-05 1.6801e-07 4.1822e-07)
(-4.0589e-05 2.9928e-07 7.4622e-07)
(-4.3645e-05 4.3245e-07 1.0785e-06)
(-4.6552e-05 5.7842e-07 1.4425e-06)
(-3.2494e-06 -2.2198e-07 -1.6709e-07)
(-9.4425e-06 -5.0078e-07 -3.7688e-07)
(-1.4879e-05 -4.2076e-07 -3.1668e-07)
(-1.9475e-05 -8.3873e-08 -6.3248e-08)
(-2.3464e-05 2.2397e-07 1.679e-07)
(-2.7134e-05 3.0592e-07 2.2897e-07)
(-3.0656e-05 1.7148e-07 1.2784e-07)
(-3.4075e-05 -7.0601e-08 -5.3608e-08)
(-3.7388e-05 -3.3775e-07 -2.5378e-07)
(-4.0579e-05 -6.0253e-07 -4.5232e-07)
(-4.3634e-05 -8.7158e-07 -6.542e-07)
(-4.654e-05 -1.1665e-06 -8.7556e-07)
(-3.1854e-06 -1.5724e-07 -1.0526e-07)
(-9.283e-06 -3.5595e-07 -2.3826e-07)
(-1.4697e-05 -3.0283e-07 -2.0271e-07)
(-1.9335e-05 -6.7095e-08 -4.4953e-08)
(-2.3382e-05 1.5347e-07 1.0244e-07)
(-2.7091e-05 2.1703e-07 1.4469e-07)
(-3.0627e-05 1.2219e-07 8.122e-08)
(-3.4048e-05 -5.7948e-08 -3.9e-08)
(-3.7358e-05 -2.6252e-07 -1.7547e-07)
(-4.0546e-05 -4.6862e-07 -3.1303e-07)
(-4.3598e-05 -6.7963e-07 -4.5392e-07)
(-4.65e-05 -9.1125e-07 -6.0861e-07)
(-3.1437e-06 -1.0167e-07 -5.1077e-08)
(-9.1783e-06 -2.307e-07 -1.1591e-07)
(-1.4577e-05 -1.9797e-07 -9.9479e-08)
(-1.924e-05 -4.6832e-08 -2.3594e-08)
(-2.3324e-05 9.6813e-08 4.8471e-08)
(-2.7059e-05 1.4023e-07 7.0184e-08)
(-3.0606e-05 7.8986e-08 3.944e-08)
(-3.4029e-05 -4.1476e-08 -2.0925e-08)
(-3.7338e-05 -1.8087e-07 -9.0758e-08)
(-4.0523e-05 -3.2288e-07 -1.6192e-07)
(-4.3573e-05 -4.6903e-07 -2.3517e-07)
(-4.6473e-05 -6.2962e-07 -3.1568e-07)
(-3.123e-06 -5.0452e-08 8.2297e-12)
(-9.1261e-06 -1.1463e-07 1.0199e-11)
(-1.4516e-05 -9.8781e-08 -1.795e-11)
(-1.9192e-05 -2.4092e-08 -6.4803e-11)
(-2.3294e-05 4.7444e-08 -1.0137e-10)
(-2.7042e-05 6.9543e-08 -1.0353e-10)
(-3.0595e-05 3.9153e-08 -6.5925e-11)
(-3.4019e-05 -2.164e-08 2.0578e-12)
(-3.7327e-05 -9.2637e-08 8.6905e-11)
(-4.0512e-05 -1.6536e-07 1.7808e-10)
(-4.356e-05 -2.404e-07 2.709e-10)
(-4.646e-05 -3.2291e-07 3.6598e-10)
(-3.123e-06 -6.9826e-12 5.045e-08)
(-9.1261e-06 -1.0324e-11 1.1462e-07)
(-1.4516e-05 8.7317e-12 9.8762e-08)
(-1.9192e-05 4.3623e-11 2.4062e-08)
(-2.3294e-05 7.628e-11 -4.7475e-08)
(-2.7042e-05 9.2608e-11 -6.9559e-08)
(-3.0595e-05 9.1895e-11 -3.9132e-08)
(-3.4019e-05 8.3378e-11 2.1719e-08)
(-3.7327e-05 7.7818e-11 9.2796e-08)
(-4.0512e-05 8.213e-11 1.6562e-07)
(-4.356e-05 9.6617e-11 2.4077e-07)
(-4.646e-05 1.1553e-10 3.2338e-07)
(-3.1437e-06 5.1089e-08 1.0166e-07)
(-9.1782e-06 1.1593e-07 2.3068e-07)
(-1.4577e-05 9.9493e-08 1.9793e-07)
(-1.924e-05 2.3583e-08 4.679e-08)
(-2.3324e-05 -4.85e-08 -9.685e-08)
(-2.7059e-05 -7.0206e-08 -1.4025e-07)
(-3.0606e-05 -3.9422e-08 -7.8973e-08)
(-3.4029e-05 2.1013e-08 4.1541e-08)
(-3.7338e-05 9.0938e-08 1.8101e-07)
(-4.0523e-05 1.6221e-07 3.2311e-07)
(-4.3573e-05 2.3558e-07 4.6936e-07)
(-4.6473e-05 3.1623e-07 6.3006e-07)
(-3.1854e-06 1.0529e-07 1.572e-07)
(-9.2828e-06 2.3832e-07 3.5584e-07)
(-1.4697e-05 2.0275e-07 3.0272e-07)
(-1.9335e-05 4.495e-08 6.7026e-08)
(-2.3382e-05 -1.0248e-07 -1.5348e-07)
(-2.7091e-05 -1.4473e-07 -2.1702e-07)
(-3.0626e-05 -8.1218e-08 -1.2217e-07)
(-3.4048e-05 3.9085e-08 5.7976e-08)
(-3.7358e-05 1.7567e-07 2.6257e-07)
(-4.0546e-05 3.1335e-07 4.6872e-07)
(-4.3598e-05 4.5439e-07 6.7979e-07)
(-4.65e-05 6.0924e-07 9.1147e-07)
(-3.2494e-06 1.6708e-07 2.2193e-07)
(-9.4423e-06 3.7687e-07 5.0065e-07)
(-1.4878e-05 3.1667e-07 4.2063e-07)
(-1.9475e-05 6.3232e-08 8.379e-08)
(-2.3463e-05 -1.6792e-07 -2.24e-07)
(-2.7134e-05 -2.2898e-07 -3.0592e-07)
(-3.0655e-05 -1.2783e-07 -1.7148e-07)
(-3.4075e-05 5.3667e-08 7.0597e-08)
(-3.7388e-05 2.5391e-07 3.3776e-07)
(-4.0579e-05 4.5255e-07 6.0257e-07)
(-4.3634e-05 6.5454e-07 8.7168e-07)
(-4.6539e-05 8.7603e-07 1.1667e-06)
(-3.2494e-06 -1.6706e-07 -2.2201e-07)
(-9.4425e-06 -3.7679e-07 -5.0085e-07)
(-1.4879e-05 -3.1653e-07 -4.2087e-07)
(-1.9475e-05 -6.3051e-08 -8.4024e-08)
(-2.3464e-05 1.6814e-07 2.2379e-07)
(-2.7134e-05 2.2922e-07 3.0573e-07)
(-3.0656e-05 1.281e-07 1.713e-07)
(-3.4075e-05 -5.3364e-08 -7.0775e-08)
(-3.7388e-05 -2.5355e-07 -3.3792e-07)
(-4.0579e-05 -4.521e-07 -6.027e-07)
(-4.3634e-05 -6.5397e-07 -8.7176e-07)
(-4.654e-05 -8.7533e-07 -1.1667e-06)
(-3.1854e-06 -1.0524e-07 -1.5726e-07)
(-9.283e-06 -2.382e-07 -3.5601e-07)
(-1.4697e-05 -2.0259e-07 -3.0293e-07)
(-1.9335e-05 -4.479e-08 -6.7225e-08)
(-2.3382e-05 1.0263e-07 1.5332e-07)
(-2.7091e-05 1.449e-07 2.1687e-07)
(-3.0627e-05 8.1422e-08 1.2204e-07)
(-3.4048e-05 -3.8818e-08 -5.8079e-08)
(-3.7358e-05 -1.7531e-07 -2.6263e-07)
(-4.0546e-05 -3.1288e-07 -4.6873e-07)
(-4.3598e-05 -4.5378e-07 -6.7975e-07)
(-4.65e-05 -6.0847e-07 -9.114e-07)
(-3.1437e-06 -5.1063e-08 -1.0168e-07)
(-9.1783e-06 -1.1586e-07 -2.3075e-07)
(-1.4577e-05 -9.9387e-08 -1.9805e-07)
(-1.924e-05 -2.3457e-08 -4.6949e-08)
(-2.3324e-05 4.8641e-08 9.6674e-08)
(-2.7059e-05 7.0363e-08 1.4009e-07)
(-3.0606e-05 3.9603e-08 7.8858e-08)
(-3.4029e-05 -2.0792e-08 -4.1578e-08)
(-3.7338e-05 -9.0661e-08 -1.8095e-07)
(-4.0523e-05 -1.6185e-07 -3.2294e-07)
(-4.3573e-05 -2.3512e-07 -4.6908e-07)
(-4.6473e-05 -3.1564e-07 -6.2968e-07)
(-3.123e-06 1.6493e-11 -5.046e-08)
(-9.1261e-06 4.3392e-11 -1.1466e-07)
(-1.4516e-05 5.6291e-11 -9.8851e-08)
(-1.9192e-05 5.7246e-11 -2.4204e-08)
(-2.3294e-05 5.5584e-11 4.7301e-08)
(-2.7042e-05 5.9995e-11 6.9396e-08)
(-3.0595e-05 7.4227e-11 3.9028e-08)
(-3.4019e-05 9.9139e-11 -2.1727e-08)
(-3.7327e-05 1.3559e-10 -9.2682e-08)
(-4.0512e-05 1.8486e-10 -1.6537e-07)
(-4.356e-05 2.4682e-10 -2.4039e-07)
(-4.646e-05 3.1873e-10 -3.2288e-07)
(-3.123e-06 5.046e-08 -4.8176e-12)
(-9.1261e-06 1.1466e-07 -1.9782e-11)
(-1.4516e-05 9.884e-08 -4.4837e-11)
(-1.9192e-05 2.4184e-08 -7.2948e-11)
(-2.3294e-05 -4.7323e-08 -8.9807e-11)
(-2.7042e-05 -6.9405e-08 -8.4294e-11)
(-3.0595e-05 -3.9004e-08 -5.463e-11)
(-3.4019e-05 2.1803e-08 -6.242e-12)
(-3.7327e-05 9.2831e-08 5.2853e-11)
(-4.0512e-05 1.6561e-07 1.153e-10)
(-4.356e-05 2.4073e-07 1.7686e-10)
(-4.646e-05 3.2333e-07 2.3681e-10)
(-3.1437e-06 1.017e-07 5.1094e-08)
(-9.1782e-06 2.308e-07 1.1593e-07)
(-1.4577e-05 1.9808e-07 9.9435e-08)
(-1.924e-05 4.694e-08 2.3447e-08)
(-2.3324e-05 -9.6717e-08 -4.8698e-08)
(-2.7059e-05 -1.4013e-07 -7.0419e-08)
(-3.0606e-05 -7.8863e-08 -3.9602e-08)
(-3.4029e-05 4.1648e-08 2.0896e-08)
(-3.7338e-05 1.8112e-07 9.0894e-08)
(-4.0523e-05 3.2323e-07 1.6223e-07)
(-4.3573e-05 4.695e-07 2.3566e-07)
(-4.6473e-05 6.3025e-07 3.1636e-07)
(-3.1854e-06 1.5735e-07 1.0515e-07)
(-9.2828e-06 3.562e-07 2.3799e-07)
(-1.4697e-05 3.0309e-07 2.024e-07)
(-1.9335e-05 6.7248e-08 4.4722e-08)
(-2.3382e-05 -1.5343e-07 -1.0258e-07)
(-2.7091e-05 -2.1702e-07 -1.4479e-07)
(-3.0626e-05 -1.2212e-07 -8.1336e-08)
(-3.4048e-05 5.8155e-08 3.8865e-08)
(-3.7358e-05 2.629e-07 1.7533e-07)
(-4.0546e-05 4.6922e-07 3.1289e-07)
(-4.3598e-05 6.8048e-07 4.5379e-07)
(-4.65e-05 9.1239e-07 6.0848e-07)
(-3.2493e-06 2.2199e-07 1.6697e-07)
(-9.4422e-06 5.0082e-07 3.766e-07)
(-1.4878e-05 4.2084e-07 3.1636e-07)
(-1.9475e-05 8.4003e-08 6.2982e-08)
(-2.3463e-05 -2.2381e-07 -1.681e-07)
(-2.7134e-05 -3.0576e-07 -2.2914e-07)
(-3.0655e-05 -1.7132e-07 -1.2804e-07)
(-3.4075e-05 7.0789e-08 5.3394e-08)
(-3.7388e-05 3.38e-07 2.5356e-07)
(-4.0579e-05 6.0287e-07 4.5211e-07)
(-4.3634e-05 8.7206e-07 6.54e-07)
(-4.6539e-05 1.1671e-06 8.7537e-07)
(-3.2699e-06 -1.1351e-07 -2.8197e-07)
(-9.4934e-06 -2.5563e-07 -6.3544e-07)
(-1.4936e-05 -2.1381e-07 -5.321e-07)
(-1.952e-05 -4.0912e-08 -1.0288e-07)
(-2.3489e-05 1.157e-07 2.8756e-07)
(-2.7147e-05 1.5604e-07 3.8989e-07)
(-3.0664e-05 8.7113e-08 2.1887e-07)
(-3.4083e-05 -3.4565e-08 -8.5401e-08)
(-3.7397e-05 -1.6756e-07 -4.183e-07)
(-4.0589e-05 -2.9875e-07 -7.4626e-07)
(-4.3645e-05 -4.3184e-07 -1.0785e-06)
(-4.6552e-05 -5.7771e-07 -1.4425e-06)
(-3.2059e-06 -5.3563e-08 -2.1298e-07)
(-9.3342e-06 -1.2105e-07 -4.816e-07)
(-1.4756e-05 -1.0248e-07 -4.0825e-07)
(-1.9381e-05 -2.1817e-08 -8.7863e-08)
(-2.3409e-05 5.2935e-08 2.1017e-07)
(-2.7106e-05 7.3808e-08 2.9453e-07)
(-3.0636e-05 4.1454e-08 1.6602e-07)
(-3.4057e-05 -1.8733e-08 -7.4703e-08)
(-3.7368e-05 -8.6402e-08 -3.4568e-07)
(-4.0557e-05 -1.5424e-07 -6.1712e-07)
(-4.361e-05 -2.2354e-07 -8.9425e-07)
(-4.6514e-05 -2.9961e-07 -1.1983e-06)
(-3.1642e-06 1.2676e-10 -1.5435e-07)
(-9.2299e-06 2.9526e-10 -3.4984e-07)
(-1.4636e-05 2.7886e-10 -2.9902e-07)
(-1.9288e-05 1.247e-10 -6.8706e-08)
(-2.3353e-05 -2.529e-11 1.4872e-07)
(-2.7075e-05 -6.2854e-11 2.1315e-07)
(-3.0616e-05 2.164e-11 1.2018e-07)
(-3.4038e-05 1.8147e-10 -5.9892e-08)
(-3.7348e-05 3.741e-10 -2.6641e-07)
(-4.0535e-05 5.8183e-10 -4.7561e-07)
(-4.3586e-05 8.056e-10 -6.9033e-07)
(-4.6487e-05 1.0545e-09 -9.2613e-07)
(-3.1437e-06 5.112e-08 -1.0171e-07)
(-9.1783e-06 1.16e-07 -2.3082e-07)
(-1.4577e-05 9.9552e-08 -1.981e-07)
(-1.924e-05 2.3593e-08 -4.6956e-08)
(-2.3324e-05 -4.854e-08 9.6717e-08)
(-2.7059e-05 -7.0262e-08 1.4015e-07)
(-3.0606e-05 -3.9458e-08 7.8907e-08)
(-3.4029e-05 2.1022e-08 -4.157e-08)
(-3.7338e-05 9.1004e-08 -1.8099e-07)
(-4.0523e-05 1.6233e-07 -3.2304e-07)
(-4.3573e-05 2.3577e-07 -4.6925e-07)
(-4.6473e-05 3.1649e-07 -6.2992e-07)
(-3.1437e-06 1.0168e-07 -5.1102e-08)
(-9.1782e-06 2.3074e-07 -1.1596e-07)
(-1.4577e-05 1.9803e-07 -9.9525e-08)
(-1.924e-05 4.692e-08 -2.3599e-08)
(-2.3324e-05 -9.6706e-08 4.8509e-08)
(-2.7059e-05 -1.4011e-07 7.0241e-08)
(-3.0606e-05 -7.8856e-08 3.9485e-08)
(-3.4029e-05 4.1626e-08 -2.0915e-08)
(-3.7338e-05 1.8106e-07 -9.0797e-08)
(-4.0523e-05 3.2314e-07 -1.6201e-07)
(-4.3573e-05 4.6938e-07 -2.3533e-07)
(-4.6473e-05 6.3009e-07 -3.1591e-07)
(-3.1642e-06 1.5433e-07 9.1764e-11)
(-9.2298e-06 3.4981e-07 1.9793e-10)
(-1.4636e-05 2.9898e-07 1.3839e-10)
(-1.9287e-05 6.8678e-08 -3.7593e-11)
(-2.3353e-05 -1.4874e-07 -1.9385e-10)
(-2.7075e-05 -2.1316e-07 -2.2966e-10)
(-3.0616e-05 -1.2017e-07 -1.407e-10)
(-3.4038e-05 5.9927e-08 2.2671e-11)
(-3.7348e-05 2.6648e-07 2.1368e-10)
(-4.0535e-05 4.7574e-07 4.091e-10)
(-4.3585e-05 6.9052e-07 6.0616e-10)
(-4.6487e-05 9.2641e-07 8.1428e-10)
(-3.2057e-06 2.1294e-07 5.3637e-08)
(-9.3338e-06 4.8151e-07 1.2122e-07)
(-1.4755e-05 4.0818e-07 1.0263e-07)
(-1.9381e-05 8.7851e-08 2.1848e-08)
(-2.3409e-05 -2.1015e-07 -5.301e-08)
(-2.7105e-05 -2.9451e-07 -7.3903e-08)
(-3.0636e-05 -1.6601e-07 -4.1461e-08)
(-3.4057e-05 7.4726e-08 1.8893e-08)
(-3.7368e-05 3.4576e-07 8.6774e-08)
(-4.0557e-05 6.173e-07 1.5484e-07)
(-4.361e-05 8.9454e-07 2.244e-07)
(-4.6513e-05 1.1987e-06 3.0073e-07)
(-3.2697e-06 2.8187e-07 1.1337e-07)
(-9.4929e-06 6.3521e-07 2.5532e-07)
(-1.4936e-05 5.319e-07 2.1355e-07)
(-1.9519e-05 1.0283e-07 4.0855e-08)
(-2.3489e-05 -2.8749e-07 -1.1557e-07)
(-2.7147e-05 -3.8981e-07 -1.5584e-07)
(-3.0664e-05 -2.1885e-07 -8.6961e-08)
(-3.4083e-05 8.5362e-08 3.4642e-08)
(-3.7397e-05 4.1823e-07 1.6757e-07)
(-4.0589e-05 7.462e-07 2.9873e-07)
(-4.3645e-05 1.0785e-06 4.3179e-07)
(-4.6552e-05 1.4425e-06 5.7762e-07)
(-3.3111e-06 -5.8604e-08 -3.5092e-07)
(-9.5959e-06 -1.3169e-07 -7.8935e-07)
(-1.5051e-05 -1.0917e-07 -6.5665e-07)
(-1.9606e-05 -1.9034e-08 -1.1931e-07)
(-2.3538e-05 6.163e-08 3.6349e-07)
(-2.7172e-05 8.1486e-08 4.843e-07)
(-3.0681e-05 4.5574e-08 2.7102e-07)
(-3.41e-05 -1.6025e-08 -9.7317e-08)
(-3.7415e-05 -8.214e-08 -4.9328e-07)
(-4.061e-05 -1.4661e-07 -8.7923e-07)
(-4.3668e-05 -2.1163e-07 -1.2683e-06)
(-4.6576e-05 -2.8282e-07 -1.6942e-06)
(-3.2472e-06 1.9342e-10 -2.7597e-07)
(-9.4372e-06 4.4657e-10 -6.227e-07)
(-1.4873e-05 4.1682e-10 -5.2392e-07)
(-1.9472e-05 1.7777e-10 -1.0581e-07)
(-2.3462e-05 -5.2002e-11 2.779e-07)
(-2.7133e-05 -1.0423e-10 3.8173e-07)
(-3.0655e-05 2.7176e-11 2.149e-07)
(-3.4074e-05 2.6462e-10 -8.7917e-08)
(-3.7387e-05 5.4153e-10 -4.2269e-07)
(-4.0578e-05 8.2928e-10 -7.5439e-07)
(-4.3633e-05 1.1301e-09 -1.0913e-06)
(-4.6539e-05 1.4612e-09 -1.4605e-06)
(-3.2058e-06 5.3671e-08 -2.1295e-07)
(-9.3339e-06 1.2132e-07 -4.8154e-07)
(-1.4756e-05 1.0278e-07 -4.0821e-07)
(-1.9381e-05 2.2031e-08 -8.7866e-08)
(-2.3409e-05 -5.2808e-08 2.1015e-07)
(-2.7105e-05 -7.3695e-08 2.9453e-07)
(-3.0636e-05 -4.1255e-08 1.6604e-07)
(-3.4057e-05 1.9093e-08 -7.4682e-08)
(-3.7368e-05 8.6971e-08 -3.4569e-07)
(-4.0557e-05 1.5504e-07 -6.1719e-07)
(-4.361e-05 2.2461e-07 -8.9437e-07)
(-4.6513e-05 3.0097e-07 -1.1985e-06)
(-3.1854e-06 1.0518e-07 -1.5736e-07)
(-9.2829e-06 2.3807e-07 -3.5623e-07)
(-1.4697e-05 2.0253e-07 -3.0311e-07)
(-1.9335e-05 4.4881e-08 -6.7247e-08)
(-2.3382e-05 -1.0241e-07 1.5345e-07)
(-2.7091e-05 -1.4462e-07 2.1707e-07)
(-3.0627e-05 -8.1171e-08 1.2219e-07)
(-3.4048e-05 3.9015e-08 -5.8054e-08)
(-3.7358e-05 1.7547e-07 -2.6276e-07)
(-4.0546e-05 3.1302e-07 -4.6903e-07)
(-4.3598e-05 4.5392e-07 -6.8023e-07)
(-4.65e-05 6.0863e-07 -9.1208e-07)
(-3.1854e-06 1.5722e-07 -1.053e-07)
(-9.2829e-06 3.5591e-07 -2.3834e-07)
(-1.4697e-05 3.0283e-07 -2.0276e-07)
(-1.9335e-05 6.7162e-08 -4.4945e-08)
(-2.3382e-05 -1.5334e-07 1.0252e-07)
(-2.7091e-05 -2.1688e-07 1.448e-07)
(-3.0627e-05 -1.2205e-07 8.1319e-08)
(-3.4048e-05 5.8065e-08 -3.8948e-08)
(-3.7358e-05 2.6263e-07 -1.7549e-07)
(-4.0546e-05 4.6877e-07 -3.1312e-07)
(-4.3598e-05 6.7983e-07 -4.5411e-07)
(-4.65e-05 9.1153e-07 -6.0891e-07)
(-3.2059e-06 2.1295e-07 -5.3604e-08)
(-9.3341e-06 4.8153e-07 -1.2117e-07)
(-1.4756e-05 4.0818e-07 -1.0264e-07)
(-1.9381e-05 8.781e-08 -2.1996e-08)
(-2.3409e-05 -2.102e-07 5.2754e-08)
(-2.7105e-05 -2.9455e-07 7.3631e-08)
(-3.0636e-05 -1.6605e-07 4.1278e-08)
(-3.4057e-05 7.4672e-08 -1.8912e-08)
(-3.7368e-05 3.4566e-07 -8.6593e-08)
(-4.0557e-05 6.1714e-07 -1.5445e-07)
(-4.361e-05 8.9431e-07 -2.238e-07)
(-4.6513e-05 1.1984e-06 -2.9993e-07)
(-3.2471e-06 2.7595e-07 1.5495e-10)
(-9.4371e-06 6.2265e-07 3.3648e-10)
(-1.4873e-05 5.2386e-07 2.4951e-10)
(-1.9472e-05 1.0578e-07 -2.842e-11)
(-2.3462e-05 -2.7792e-07 -2.8031e-10)
(-2.7133e-05 -3.8175e-07 -3.4204e-10)
(-3.0655e-05 -2.1492e-07 -2.1229e-10)
(-3.4074e-05 8.7888e-08 2.6463e-11)
(-3.7387e-05 4.2267e-07 3.0268e-10)
(-4.0578e-05 7.544e-07 5.8214e-10)
(-4.3633e-05 1.0913e-06 8.632e-10)
(-4.6539e-05 1.4606e-06 1.1627e-09)
(-3.311e-06 3.5088e-07 5.8721e-08)
(-9.5956e-06 7.8927e-07 1.3196e-07)
(-1.5051e-05 6.5658e-07 1.0939e-07)
(-1.9606e-05 1.1928e-07 1.9091e-08)
(-2.3538e-05 -3.6349e-07 -6.1727e-08)
(-2.7172e-05 -4.8432e-07 -8.1605e-08)
(-3.068e-05 -2.7107e-07 -4.5574e-08)
(-3.4099e-05 9.7255e-08 1.6237e-08)
(-3.7415e-05 4.9323e-07 8.2606e-08)
(-4.061e-05 8.7923e-07 1.4734e-07)
(-4.3667e-05 1.2684e-06 2.1263e-07)
(-4.6576e-05 1.6944e-06 2.8412e-07)
(-3.3737e-06 1.0757e-10 -4.3234e-07)
(-9.7508e-06 2.5515e-10 -9.7018e-07)
(-1.5223e-05 2.6425e-10 -7.9938e-07)
(-1.9733e-05 1.6984e-10 -1.314e-07)
(-2.3606e-05 7.8328e-11 4.5675e-07)
(-2.7205e-05 7.52e-11 5.9208e-07)
(-3.0703e-05 1.6183e-10 3.281e-07)
(-3.4122e-05 3.0048e-10 -1.0652e-07)
(-3.7441e-05 4.592e-10 -5.6145e-07)
(-4.0638e-05 6.19e-10 -9.9832e-07)
(-4.3699e-05 7.806e-10 -1.4359e-06)
(-4.661e-05 9.5593e-10 -1.9145e-06)
(-3.311e-06 5.876e-08 -3.509e-07)
(-9.5957e-06 1.3207e-07 -7.8931e-07)
(-1.5051e-05 1.0957e-07 -6.5661e-07)
(-1.9606e-05 1.9322e-08 -1.1929e-07)
(-2.3538e-05 -6.1461e-08 3.6349e-07)
(-2.7172e-05 -8.1318e-08 4.8432e-07)
(-3.0681e-05 -4.5278e-08 2.7106e-07)
(-3.41e-05 1.6534e-08 -9.7271e-08)
(-3.7415e-05 8.2901e-08 -4.9324e-07)
(-4.061e-05 1.4763e-07 -8.7922e-07)
(-4.3667e-05 2.1293e-07 -1.2684e-06)
(-4.6576e-05 2.8443e-07 -1.6943e-06)
(-3.2697e-06 1.1341e-07 -2.8188e-07)
(-9.493e-06 2.5543e-07 -6.3523e-07)
(-1.4936e-05 2.1371e-07 -5.3192e-07)
(-1.9519e-05 4.1059e-08 -1.0283e-07)
(-2.3489e-05 -1.1533e-07 2.8752e-07)
(-2.7147e-05 -1.5559e-07 3.8985e-07)
(-3.0664e-05 -8.671e-08 2.1891e-07)
(-3.4083e-05 3.489e-08 -8.5294e-08)
(-3.7397e-05 1.6782e-07 -4.1814e-07)
(-4.0589e-05 2.9897e-07 -7.4607e-07)
(-4.3645e-05 4.3203e-07 -1.0783e-06)
(-4.6552e-05 5.7788e-07 -1.4423e-06)
(-3.2493e-06 1.67e-07 -2.22e-07)
(-9.4423e-06 3.7668e-07 -5.0083e-07)
(-1.4878e-05 3.1649e-07 -4.2085e-07)
(-1.9475e-05 6.3155e-08 -8.3979e-08)
(-2.3464e-05 -1.6791e-07 2.2387e-07)
(-2.7134e-05 -2.2895e-07 3.0584e-07)
(-3.0656e-05 -1.2784e-07 1.7143e-07)
(-3.4075e-05 5.3574e-08 -7.0646e-08)
(-3.7388e-05 2.5373e-07 -3.3782e-07)
(-4.0579e-05 4.5227e-07 -6.0265e-07)
(-4.3634e-05 6.5416e-07 -8.7178e-07)
(-4.654e-05 8.7554e-07 -1.1668e-06)
(-3.2494e-06 2.2195e-07 -1.6709e-07)
(-9.4424e-06 5.0072e-07 -3.7688e-07)
(-1.4878e-05 4.2074e-07 -3.1667e-07)
(-1.9475e-05 8.393e-08 -6.3199e-08)
(-2.3464e-05 -2.2385e-07 1.68e-07)
(-2.7134e-05 -3.0578e-07 2.291e-07)
(-3.0656e-05 -1.7136e-07 1.2799e-07)
(-3.4075e-05 7.0692e-08 -5.3473e-08)
(-3.7388e-05 3.3783e-07 -2.5367e-07)
(-4.0579e-05 6.0263e-07 -4.5226e-07)
(-4.3634e-05 8.7173e-07 -6.542e-07)
(-4.654e-05 1.1667e-06 -8.7564e-07)
(-3.2698e-06 2.8193e-07 -1.1355e-07)
(-9.4933e-06 6.3535e-07 -2.5574e-07)
(-1.4936e-05 5.32e-07 -2.1397e-07)
(-1.9519e-05 1.0279e-07 -4.1102e-08)
(-2.3489e-05 -2.8763e-07 1.155e-07)
(-2.7147e-05 -3.8996e-07 1.5584e-07)
(-3.0664e-05 -2.1896e-07 8.692e-08)
(-3.4083e-05 8.5293e-08 -3.4751e-08)
(-3.7397e-05 4.1819e-07 -1.6774e-07)
(-4.0589e-05 7.4617e-07 -2.9896e-07)
(-4.3645e-05 1.0785e-06 -4.3208e-07)
(-4.6552e-05 1.4425e-06 -5.7801e-07)
(-3.3111e-06 3.5089e-07 -5.8644e-08)
(-9.5957e-06 7.8928e-07 -1.3181e-07)
(-1.5051e-05 6.5657e-07 -1.0935e-07)
(-1.9606e-05 1.1925e-07 -1.9264e-08)
(-2.3538e-05 -3.6354e-07 6.137e-08)
(-2.7172e-05 -4.8436e-07 8.1214e-08)
(-3.068e-05 -2.7111e-07 4.5302e-08)
(-3.4099e-05 9.7209e-08 -1.6291e-08)
(-3.7415e-05 4.9317e-07 -8.2402e-08)
(-4.061e-05 8.7914e-07 -1.4687e-07)
(-4.3667e-05 1.2683e-06 -2.1192e-07)
(-4.6576e-05 1.6943e-06 -2.8314e-07)
(-3.3737e-06 4.3232e-07 6.5027e-11)
(-9.7507e-06 9.7013e-07 1.3005e-10)
(-1.5223e-05 7.9933e-07 6.5024e-11)
(-1.9732e-05 1.3137e-07 -8.9106e-11)
(-2.3605e-05 -4.5678e-07 -2.2266e-10)
(-2.7205e-05 -5.9212e-07 -2.4972e-10)
(-3.0703e-05 -3.2817e-07 -1.7203e-10)
(-3.4122e-05 1.0643e-07 -3.3114e-11)
(-3.7441e-05 5.6135e-07 1.2923e-10)
(-4.0638e-05 9.9824e-07 2.9017e-10)
(-4.3699e-05 1.4359e-06 4.4624e-10)
(-4.661e-05 1.9145e-06 6.0818e-10)
(-4.6733e-05 -2.4602e-06 2.1732e-07)
(-4.3812e-05 -1.8576e-06 1.6389e-07)
(-4.0742e-05 -1.3054e-06 1.1474e-07)
(-3.7533e-05 -7.4299e-07 6.4328e-08)
(-3.4203e-05 -1.2868e-07 9.0795e-09)
(-3.0777e-05 5.1235e-07 -4.7824e-08)
(-2.7307e-05 9.6562e-07 -8.6469e-08)
(-2.3834e-05 8.1011e-07 -7.1976e-08)
(-2.0193e-05 -1.4246e-07 8.404e-09)
(-1.5881e-05 -1.2944e-06 1.0406e-07)
(-1.0356e-05 -1.6169e-06 1.3161e-07)
(-3.6208e-06 -7.2545e-07 5.8944e-08)
(-4.6699e-05 -2.2928e-06 6.158e-07)
(-4.3781e-05 -1.7268e-06 4.6328e-07)
(-4.0714e-05 -1.208e-06 3.2345e-07)
(-3.7508e-05 -6.8236e-07 1.8196e-07)
(-3.4181e-05 -1.1675e-07 3.0427e-08)
(-3.0759e-05 4.5409e-07 -1.211e-07)
(-2.7286e-05 8.3276e-07 -2.2018e-07)
(-2.3778e-05 6.7543e-07 -1.7834e-07)
(-2.0062e-05 -1.3953e-07 3.3568e-08)
(-1.568e-05 -1.0987e-06 2.8185e-07)
(-1.0166e-05 -1.3606e-06 3.5011e-07)
(-3.5423e-06 -6.0972e-07 1.5685e-07)
(-4.6675e-05 -2.0595e-06 1.0218e-06)
(-4.3759e-05 -1.5482e-06 7.6768e-07)
(-4.0693e-05 -1.0798e-06 5.3516e-07)