/*--------------------------------*- C++ -*----------------------------------*\
| =========                 |                                                 |
| \\      /  F ield         | OpenFOAM: The Open Source CFD Toolbox           |
|  \\    /   O peration     | Version:  4.1                                   |
|   \\  /    A nd           | Web:      www.OpenFOAM.org                      |
|    \\/     M anipulation  |                                                 |
\*---------------------------------------------------------------------------*/
FoamFile
{
    version     2.0;
    format      ascii;
    class       pointVectorField;
    location    "0.000320";
    object      pointDisplacement;
}
// * * * * * * * * * * * * * * * * * * * * * * * * * * * * * * * * * * * * * //

dimensions      [0 1 0 0 0 0 0];

internalField   nonuniform List<vector> 
3625
(
(0 0 0)
(0 -0.00013674201 1.1805843e-08)
(0 -0.00021478471 2.4694205e-08)
(0 -0.00026096641 3.0509886e-08)
(0 -0.00029076584 2.6628828e-08)
(0 -0.00031053725 1.7673717e-08)
(0 -0.00032283383 1.4187472e-09)
(0 -0.00032868145 -1.4936114e-08)
(0 -0.00032852785 -2.2398694e-08)
(0 -0.0003225268 -2.5134185e-08)
(0 -0.000310785 -1.9789091e-08)
(0 -0.00029348077 -6.7507515e-09)
(0 -0.00027084076 5.3820785e-09)
(0 -0.00024336403 9.076853e-09)
(0 -0.00021157728 5.5103136e-10)
(0 -0.00017599354 -1.3886413e-08)
(0 -0.00013717493 -1.6152186e-08)
(0 -9.5845029e-05 -4.1737424e-09)
(0 -5.2770985e-05 1.43055e-08)
(0 -8.7158454e-06 3.8932306e-08)
(0 3.5537352e-05 6.1016271e-08)
(0 7.9154509e-05 7.8973849e-08)
(0 0.00012128842 1.0109287e-07)
(0 0.00016113174 1.1682611e-07)
(0 0.000198153 1.2053112e-07)
(0 0 0)
(0 -0.00011865246 -2.208794e-05)
(0 -0.0001895786 -2.992376e-05)
(0 -0.00023200446 -3.1921159e-05)
(0 -0.00025917787 -3.1190134e-05)
(0 -0.00027698541 -2.9026425e-05)
(0 -0.00028789517 -2.5993122e-05)
(0 -0.00029296795 -2.2355994e-05)
(0 -0.0002927071 -1.8261129e-05)
(0 -0.0002872581 -1.3818842e-05)
(0 -0.00027669891 -9.1251642e-06)
(0 -0.00026115995 -4.2682491e-06)
(0 -0.00024081765 6.6468056e-07)
(0 -0.00021617726 5.5836201e-06)
(0 -0.00018771602 1.039676e-05)
(0 -0.00015586152 1.5015598e-05)
(0 -0.00012108107 1.9360957e-05)
(0 -8.4034646e-05 2.3368962e-05)
(0 -4.5416105e-05 2.6975931e-05)
(0 -5.9057185e-06 3.0110917e-05)
(0 3.3791173e-05 3.2708463e-05)
(0 7.2915003e-05 3.4721346e-05)
(0 0.00011068927 3.6128062e-05)
(0 0.00014632833 3.6894972e-05)
(0 0.00017939389 3.7004376e-05)
(0 0 0)
(0 -0.00010161377 -4.8344732e-05)
(0 -0.00016435761 -6.6889346e-05)
(0 -0.0002023857 -7.2075121e-05)
(0 -0.00022670189 -7.0756199e-05)
(0 -0.00024252491 -6.599475e-05)
(0 -0.00025212268 -5.9148375e-05)
(0 -0.00025654928 -5.0878135e-05)
(0 -0.00025633223 -4.1553857e-05)
(0 -0.00025159887 -3.1427752e-05)
(0 -0.00024240328 -2.0731589e-05)
(0 -0.00022882388 -9.6706198e-06)
(0 -0.00021101567 1.5644747e-06)
(0 -0.00018944735 1.2773625e-05)
(0 -0.00016454116 2.3748343e-05)
(0 -0.00013664826 3.4271385e-05)
(0 -0.00010615571 4.4140071e-05)
(0 -7.3644828e-05 5.32055e-05)
(0 -3.9719897e-05 6.1325923e-05)
(0 -4.9878014e-06 6.8348811e-05)
(0 2.9946494e-05 7.4144598e-05)
(0 6.4380538e-05 7.8608414e-05)
(0 9.7633191e-05 8.1676388e-05)
(0 0.00012902481 8.3299089e-05)
(0 0.00015816115 8.3454531e-05)
(0 0 0)
(0 -8.4587195e-05 -7.3764488e-05)
(0 -0.00013746669 -0.00010300839)
(0 -0.00016993512 -0.00011161846)
(0 -0.00019075756 -0.00010986617)
(0 -0.00020426382 -0.00010259809)
(0 -0.00021238466 -9.2008026e-05)
(0 -0.00021611889 -7.9153041e-05)
(0 -0.00021598349 -6.4626194e-05)
(0 -0.00021205457 -4.8844259e-05)
(0 -0.00020438111 -3.2167701e-05)
(0 -0.00019301622 -1.4911358e-05)
(0 -0.00017806787 2.6268314e-06)
(0 -0.00015995306 2.0134982e-05)
(0 -0.00013904186 3.727981e-05)
(0 -0.00011560256 5.3722519e-05)
(0 -8.9943571e-05 6.9159686e-05)
(0 -6.2548563e-05 8.3332591e-05)
(0 -3.3922947e-05 9.5986445e-05)
(0 -4.5852871e-06 0.00010689658)
(0 2.4937757e-05 0.00011588029)
(0 5.4037951e-05 0.00012277734)
(0 8.2170448e-05 0.00012749125)
(0 0.00010879466 0.00012995115)
(0 0.00013355635 0.00013011861)
(0 0 0)
(0 -6.7547118e-05 -9.8750479e-05)
(0 -0.00010951318 -0.00013802189)
(0 -0.00013552537 -0.00014988037)
(0 -0.00015230139 -0.00014767782)
(0 -0.00016319827 -0.00013796678)
(0 -0.00016971144 -0.00012375962)
(0 -0.00017270833 -0.00010647859)
(0 -0.00017265017 -8.6918091e-05)
(0 -0.00016957835 -6.5661403e-05)
(0 -0.00016353644 -4.3192305e-05)
(0 -0.00015454811 -1.9926958e-05)
(0 -0.00014268048 3.7347751e-06)
(0 -0.00012829091 2.7367054e-05)
(0 -0.00011167152 5.0517116e-05)
(0 -9.3025687e-05 7.2737225e-05)
(0 -7.2602277e-05 9.3620714e-05)
(0 -5.0762223e-05 0.00011279583)
(0 -2.7902562e-05 0.00012990662)
(0 -4.4378083e-06 0.00014464594)
(0 1.9193747e-05 0.00015676558)
(0 4.2488408e-05 0.00016605571)
(0 6.5051292e-05 0.00017239673)
(0 8.6487125e-05 0.00017569174)
(0 0.00010649595 0.00017588349)
(0 0 0)
(0 -5.0372078e-05 -0.00012380488)
(0 -8.0894975e-05 -0.00017184674)
(0 -9.992423e-05 -0.00018634498)
(0 -0.00011231094 -0.00018348307)
(0 -0.00012040706 -0.00017134756)
(0 -0.00012524704 -0.00015366431)
(0 -0.00012749447 -0.00013218922)
(0 -0.00012750102 -0.00010789417)
(0 -0.00012530302 -8.1486862e-05)
(0 -0.00012092791 -5.3557378e-05)
(0 -0.00011437921 -2.4624794e-05)
(0 -0.00010570816 4.8120509e-06)
(0 -9.5168879e-05 3.4220572e-05)
(0 -8.2966847e-05 6.304369e-05)
(0 -6.9275774e-05 9.0729167e-05)
(0 -5.4294893e-05 0.0001167682)
(0 -3.8261296e-05 0.00014068955)
(0 -2.1447768e-05 0.0001620584)
(0 -4.1520774e-06 0.00018049113)
(0 1.3275793e-05 0.0001956538)
(0 3.0430822e-05 0.00020728518)
(0 4.7087082e-05 0.00021522672)
(0 6.3026826e-05 0.00021936086)
(0 7.7990493e-05 0.00021963591)
(0 0 0)
(0 -3.284717e-05 -0.00014946638)
(0 -5.1863864e-05 -0.0002044327)
(0 -6.375697e-05 -0.00022056912)
(0 -7.1614329e-05 -0.00021668027)
(0 -7.6831022e-05 -0.00020211343)
(0 -7.9984727e-05 -0.00018112901)
(0 -8.1498599e-05 -0.00015575037)
(0 -8.1586197e-05 -0.00012709479)
(0 -8.0254068e-05 -9.5963242e-05)
(0 -7.7519241e-05 -6.3030363e-05)
(0 -7.3388849e-05 -2.8909646e-05)
(0 -6.7905942e-05 5.805073e-06)
(0 -6.1224942e-05 4.0490359e-05)
(0 -5.3471001e-05 7.4494482e-05)
(0 -4.4773746e-05 0.00010717681)
(0 -3.5268276e-05 0.00013794731)
(0 -2.5095761e-05 0.00016625157)
(0 -1.4410664e-05 0.00019156004)
(0 -3.3917279e-06 0.0002134119)
(0 7.7165305e-06 0.00023141777)
(0 1.8626448e-05 0.00024526899)
(0 2.9226898e-05 0.0002547626)
(0 3.94445e-05 0.00025975778)
(0 4.911584e-05 0.00026019925)
(0 0 0)
(0 -1.4890848e-05 -0.00017607296)
(0 -2.2877884e-05 -0.00023528078)
(0 -2.7915624e-05 -0.00025171872)
(0 -3.1348164e-05 -0.00024634323)
(0 -3.3696263e-05 -0.00022936811)
(0 -3.5138507e-05 -0.00020535924)
(0 -3.5867038e-05 -0.00017649213)
(0 -3.5973531e-05 -0.00014397543)
(0 -3.5433021e-05 -0.00010867711)
(0 -3.4248386e-05 -7.1340164e-05)
(0 -3.2426358e-05 -3.2653614e-05)
(0 -2.999943e-05 6.7043136e-06)
(0 -2.7054155e-05 4.6031121e-05)
(0 -2.3648525e-05 8.4599221e-05)
(0 -1.9841485e-05 0.00012169575)
(0 -1.5688834e-05 0.00015665632)
(0 -1.1240539e-05 0.00018885712)
(0 -6.5628301e-06 0.00021768236)
(0 -1.7320527e-06 0.00024259686)
(0 3.1429328e-06 0.00026317339)
(0 7.8855805e-06 0.00027906263)
(0 1.2462493e-05 0.00029002114)
(0 1.6910267e-05 0.00029588026)
(0 2.1184774e-05 0.00029656449)
(0 0 0)
(0 3.1976446e-07 -0.00020625336)
(0 5.8957387e-07 -0.00026763716)
(0 6.8417864e-07 -0.00028335961)
(0 6.3409813e-07 -0.00027601661)
(0 5.348273e-07 -0.00025644071)
(0 4.6623868e-07 -0.00022936177)
(0 3.9406607e-07 -0.00019703163)
(0 3.0144157e-07 -0.00016071735)
(0 2.2515999e-07 -0.00012133674)
(0 1.7761898e-07 -7.9693115e-05)
(0 1.6076485e-07 -3.6549288e-05)
(0 1.6525324e-07 7.3347069e-06)
(0 1.5724971e-07 5.1180503e-05)
(0 1.2618732e-07 9.419424e-05)
(0 7.7446438e-08 0.00013559215)
(0 2.7734549e-08 0.00017463238)
(0 -1.2849567e-09 0.00021061966)
(0 -1.1854632e-08 0.00024288372)
(0 -2.8400909e-09 0.00027083573)
(0 -4.1694841e-09 0.00029399256)
(0 -7.8492258e-08 0.00031195974)
(0 -1.8806408e-07 0.0003244489)
(0 -2.4358439e-07 0.00033126122)
(0 -2.0607848e-07 0.00033229818)
(0 0 0)
(0 -0.00011866455 2.2116428e-05)
(0 -0.00018960874 2.998187e-05)
(0 -0.00023205778 3.1989455e-05)
(0 -0.00025924581 3.1247778e-05)
(0 -0.00027705382 2.9063906e-05)
(0 -0.00028795737 2.599459e-05)
(0 -0.00029301447 2.2320118e-05)
(0 -0.00029272409 1.8209485e-05)
(0 -0.00028724585 1.3761031e-05)
(0 -0.00027666989 9.0656193e-06)
(0 -0.00026113698 4.2119208e-06)
(0 -0.00024081637 -7.1902847e-07)
(0 -0.00021616994 -5.6384068e-06)
(0 -0.00018767961 -1.0461846e-05)
(0 -0.00015580205 -1.5101197e-05)
(0 -0.00012101147 -1.944065e-05)
(0 -8.396001e-05 -2.3409722e-05)
(0 -4.5339096e-05 -2.6963491e-05)
(0 -5.8344229e-06 -3.0029553e-05)
(0 3.3874075e-05 -3.2563858e-05)
(0 7.3031659e-05 -3.452818e-05)
(0 0.00011081713 -3.5876335e-05)
(0 0.00014645788 -3.6601626e-05)
(0 0.00017951979 -3.670515e-05)
(0 0 0)
(0 -9.1597762e-05 1.958422e-08)
(0 -0.00015145351 3.9362683e-08)
(0 -0.00018812505 4.4002153e-08)
(0 -0.0002115015 3.5910758e-08)
(0 -0.0002265833 2.4075874e-08)
(0 -0.00023562268 2.9067398e-09)
(0 -0.00023972228 -1.6470226e-08)
(0 -0.0002394702 -1.9375961e-08)
(0 -0.00023499825 -1.9781937e-08)
(0 -0.00022634927 -2.8692228e-08)
(0 -0.00021359492 -4.5082236e-08)
(0 -0.0001968103 -6.1277283e-08)
(0 -0.00017646703 -6.7017809e-08)
(0 -0.00015299715 -6.888699e-08)
(0 -0.00012673717 -7.2528882e-08)
(0 -9.8021046e-05 -5.4757863e-08)
(0 -6.7410342e-05 -1.4274382e-08)
(0 -3.5486914e-05 2.5174863e-08)
(0 -2.8203218e-06 7.3398624e-08)
(0 3.0034033e-05 1.2464108e-07)
(0 6.2424185e-05 1.6463894e-07)
(0 9.3612018e-05 2.1542315e-07)
(0 0.00012287521 2.5350029e-07)
(0 0.0001499288 2.6005207e-07)
(0 0 0)
(0 -7.4738049e-05 -2.2483943e-05)
(0 -0.00012542282 -3.2454512e-05)
(0 -0.00015709715 -3.5617892e-05)
(0 -0.00017741965 -3.5297054e-05)
(0 -0.00019051806 -3.3095813e-05)
(0 -0.00019831308 -2.9767853e-05)
(0 -0.00020188999 -2.5666587e-05)
(0 -0.00020185559 -2.0991938e-05)
(0 -0.00019829868 -1.5901191e-05)
(0 -0.00019124343 -1.053483e-05)
(0 -0.00018069739 -5.0040784e-06)
(0 -0.00016669512 6.1333358e-07)
(0 -0.00014968509 6.2268763e-06)
(0 -0.00013004572 1.1721916e-05)
(0 -0.00010801129 1.6969889e-05)
(0 -8.3836246e-05 2.1863e-05)
(0 -5.7990406e-05 2.63471e-05)
(0 -3.0953734e-05 3.0354551e-05)
(0 -3.223924e-06 3.3810884e-05)
(0 2.4737678e-05 3.6651669e-05)
(0 5.2334015e-05 3.8815987e-05)
(0 7.8944539e-05 4.027751e-05)
(0 0.00010394788 4.1011582e-05)
(0 0.00012709591 4.1012302e-05)
(0 0 0)
(0 -5.8778403e-05 -4.4393376e-05)
(0 -9.9332609e-05 -6.4665622e-05)
(0 -0.00012512576 -7.1325999e-05)
(0 -0.0001418588 -7.0837156e-05)
(0 -0.00015267457 -6.6473056e-05)
(0 -0.0001590704 -5.9792861e-05)
(0 -0.00016204319 -5.1538454e-05)
(0 -0.00016217831 -4.2130651e-05)
(0 -0.00015951921 -3.1880239e-05)
(0 -0.00015407938 -2.1051015e-05)
(0 -0.0001458117 -9.8608212e-06)
(0 -0.00013470579 1.5142407e-06)
(0 -0.00012118147 1.2878071e-05)
(0 -0.00010555932 2.399764e-05)
(0 -8.7984392e-05 3.4618226e-05)
(0 -6.862467e-05 4.4532185e-05)
(0 -4.7840053e-05 5.3595566e-05)
(0 -2.6025313e-05 6.1654633e-05)
(0 -3.5889008e-06 6.856072e-05)
(0 1.9081569e-05 7.4200095e-05)
(0 4.1469556e-05 7.8478494e-05)
(0 6.3116258e-05 8.1330251e-05)
(0 8.3549797e-05 8.2722044e-05)
(0 0.00010252801 8.2648503e-05)
(0 0 0)
(0 -4.3400602e-05 -6.5938841e-05)
(0 -7.3372232e-05 -9.6222805e-05)
(0 -9.2715879e-05 -0.00010633779)
(0 -0.00010545554 -0.00010569091)
(0 -0.00011374783 -9.9200323e-05)
(0 -0.00011863139 -8.9230556e-05)
(0 -0.00012093558 -7.6907643e-05)
(0 -0.00012118445 -6.2856038e-05)
(0 -0.00011938756 -4.7538981e-05)
(0 -0.00011552353 -3.1338389e-05)
(0 -0.00010952697 -1.4560812e-05)
(0 -0.0001013659 2.5172962e-06)
(0 -9.1391556e-05 1.9587702e-05)
(0 -7.9857893e-05 3.6300371e-05)
(0 -6.6856578e-05 5.2296134e-05)
(0 -5.248851e-05 6.7274959e-05)
(0 -3.6997112e-05 8.0974137e-05)
(0 -2.0676129e-05 9.3132087e-05)
(0 -3.8220853e-06 0.00010352454)
(0 1.3251867e-05 0.00011199116)
(0 3.0117923e-05 0.00011839867)
(0 4.649345e-05 0.00012267521)
(0 6.2076539e-05 0.00012475753)
(0 7.6637001e-05 0.00012460927)
(0 0 0)
(0 -2.8460969e-05 -8.7564853e-05)
(0 -4.7829351e-05 -0.00012711155)
(0 -6.049177e-05 -0.00014027682)
(0 -6.9027058e-05 -0.00013930995)
(0 -7.4668581e-05 -0.00013068014)
(0 -7.7990603e-05 -0.00011749805)
(0 -7.9610666e-05 -0.00010124564)
(0 -7.9924447e-05 -8.2731224e-05)
(0 -7.8905866e-05 -6.2549451e-05)
(0 -7.65083e-05 -4.1187192e-05)
(0 -7.2691277e-05 -1.903698e-05)
(0 -6.7428344e-05 3.5335873e-06)
(0 -6.0945284e-05 2.6107852e-05)
(0 -5.341308e-05 4.8228514e-05)
(0 -4.4916772e-05 6.9441168e-05)
(0 -3.5538099e-05 8.9346446e-05)
(0 -2.5408968e-05 0.0001075678)
(0 -1.4692882e-05 0.000123773)
(0 -3.5617576e-06 0.0001376772)
(0 7.7498178e-06 0.00014902114)
(0 1.8895145e-05 0.0001576086)
(0 2.9762884e-05 0.00016335002)
(0 4.0248294e-05 0.0001661678)
(0 5.0146211e-05 0.00016602778)
(0 0 0)
(0 -1.3796408e-05 -0.00010983889)
(0 -2.2885437e-05 -0.00015743866)
(0 -2.8962329e-05 -0.00017290909)
(0 -3.3274721e-05 -0.00017130072)
(0 -3.6231793e-05 -0.0001604731)
(0 -3.7975477e-05 -0.00014416406)
(0 -3.8884382e-05 -0.00012415825)
(0 -3.9192836e-05 -0.00010142256)
(0 -3.8838527e-05 -7.6651436e-05)
(0 -3.777638e-05 -5.0417346e-05)
(0 -3.5980554e-05 -2.3204278e-05)
(0 -3.3446949e-05 4.5289934e-06)
(0 -3.0308883e-05 3.2273446e-05)
(0 -2.6643116e-05 5.9476731e-05)
(0 -2.251785e-05 8.5600736e-05)
(0 -1.7993082e-05 0.00011016794)
(0 -1.310382e-05 0.00013270651)
(0 -7.9043896e-06 0.00015279547)
(0 -2.4606311e-06 0.00017008511)
(0 3.0751309e-06 0.00018423611)
(0 8.4780158e-06 0.00019499855)
(0 1.3768802e-05 0.00020224442)
(0 1.89979e-05 0.000205877)
(0 2.4034187e-05 0.00020586867)
(0 0 0)
(0 7.8012083e-07 -0.00013324174)
(0 1.3055613e-06 -0.00018695437)
(0 1.3842213e-06 -0.00020363584)
(0 1.1371479e-06 -0.00020094816)
(0 8.6519554e-07 -0.00018787406)
(0 7.5885842e-07 -0.00016859217)
(0 6.7602336e-07 -0.0001450995)
(0 5.2123533e-07 -0.00011847689)
(0 3.6997639e-07 -8.9487811e-05)
(0 2.6346365e-07 -5.8775081e-05)
(0 2.2593618e-07 -2.6905887e-05)
(0 2.4727586e-07 5.5692749e-06)
(0 2.5196168e-07 3.8061802e-05)
(0 2.2779202e-07 6.9946727e-05)
(0 1.6528951e-07 0.00010061103)
(0 6.4634804e-08 0.00012950148)
(0 -2.848212e-08 0.00015608536)
(0 -1.0366743e-07 0.00017982762)
(0 -1.5127813e-07 0.00020028105)
(0 -1.8420826e-07 0.00021708383)
(0 -3.1355514e-07 0.00022994892)
(0 -4.5446562e-07 0.00023869747)
(0 -4.5725887e-07 0.00024320242)
(0 -3.3504106e-07 0.00024341863)
(0 0 0)
(0 1.5875377e-05 -0.00017609502)
(0 2.4585945e-05 -0.00023528659)
(0 2.9807734e-05 -0.0002517092)
(0 3.3013411e-05 -0.00024632386)
(0 3.5050336e-05 -0.00022934517)
(0 3.6328185e-05 -0.0002053372)
(0 3.689998e-05 -0.00017647818)
(0 3.6774667e-05 -0.00014397287)
(0 3.6025875e-05 -0.00010868004)
(0 3.4699547e-05 -7.1342837e-05)
(0 3.282029e-05 -3.2652302e-05)
(0 3.0402761e-05 6.709784e-06)
(0 2.7441529e-05 4.6039378e-05)
(0 2.3972648e-05 8.4612984e-05)
(0 2.0054937e-05 0.00012171556)
(0 1.5765263e-05 0.00015668026)
(0 1.120833e-05 0.0001888836)
(0 6.4570687e-06 0.00021770489)
(0 1.596598e-06 0.00024261101)
(0 -3.2910383e-06 0.00026317975)
(0 -8.1981993e-06 0.00027906325)
(0 -1.3002278e-05 0.00029001557)
(0 -1.7520243e-05 0.00029587085)
(0 -2.1665075e-05 0.00029655458)
(0 0 0)
(0 -0.00010166827 4.8379208e-05)
(0 -0.00016448075 6.695699e-05)
(0 -0.00020256351 7.2151168e-05)
(0 -0.00022689182 7.0820033e-05)
(0 -0.00024271123 6.6040249e-05)
(0 -0.0002522974 5.9165064e-05)
(0 -0.00025668925 5.0871737e-05)
(0 -0.00025639633 4.15478e-05)
(0 -0.00025158185 3.142428e-05)
(0 -0.00024233703 2.0712815e-05)
(0 -0.00022878017 9.622441e-06)
(0 -0.00021102914 -1.6404292e-06)
(0 -0.00018943978 -1.2861748e-05)
(0 -0.00016443436 -2.384244e-05)
(0 -0.00013644863 -3.4382815e-05)
(0 -0.00010591714 -4.4258837e-05)
(0 -7.3384953e-05 -5.3305632e-05)
(0 -3.9452449e-05 -6.1377408e-05)
(0 -4.737929e-06 -6.8327713e-05)
(0 3.0163619e-05 -7.4071652e-05)
(0 6.4631535e-05 -7.8507022e-05)
(0 9.7927345e-05 -8.1535724e-05)
(0 0.00012931944 -8.3135402e-05)
(0 0.00015843513 -8.3302541e-05)
(0 0 0)
(0 -7.4851859e-05 2.2533545e-05)
(0 -0.00012564487 3.2551697e-05)
(0 -0.00015737703 3.5723461e-05)
(0 -0.00017768718 3.5384271e-05)
(0 -0.00019075571 3.3161847e-05)
(0 -0.00019851924 2.9801864e-05)
(0 -0.00020204508 2.5693527e-05)
(0 -0.00020192202 2.1051596e-05)
(0 -0.00019827698 1.597948e-05)
(0 -0.00019116815 1.0583325e-05)
(0 -0.0001806384 4.9785603e-06)
(0 -0.00016668378 -7.1078457e-07)
(0 -0.00014963611 -6.3537502e-06)
(0 -0.00012987545 -1.1853396e-05)
(0 -0.00010773205 -1.710742e-05)
(0 -8.3510845e-05 -2.1979316e-05)
(0 -5.7640315e-05 -2.6404273e-05)
(0 -3.0600442e-05 -3.0345059e-05)
(0 -2.9049287e-06 -3.3710542e-05)
(0 2.4996123e-05 -3.6465435e-05)
(0 5.2595409e-05 -3.8572757e-05)
(0 7.9217131e-05 -3.9950224e-05)
(0 0.00010420254 -4.0625088e-05)
(0 0.00012732382 -4.0633727e-05)
(0 0 0)
(0 -5.8400273e-05 3.2834923e-08)
(0 -9.9654528e-05 6.2568731e-08)
(0 -0.00012601157 6.7737807e-08)
(0 -0.00014305101 5.8779852e-08)
(0 -0.00015400841 5.0476916e-08)
(0 -0.00016044064 4.0915943e-08)
(0 -0.00016337771 5.6854036e-08)
(0 -0.00016342194 9.6332194e-08)
(0 -0.00016066906 1.1658364e-07)
(0 -0.00015515827 9.5488176e-08)
(0 -0.00014685111 3.6326723e-08)
(0 -0.00013569369 -2.2388992e-08)
(0 -0.00012201186 -4.9347335e-08)
(0 -0.00010613723 -5.5071429e-08)
(0 -8.8299369e-05 -5.353322e-08)
(0 -6.8710538e-05 -3.3985373e-08)
(0 -4.7701239e-05 6.6941339e-09)
(0 -2.5658841e-05 3.1603355e-08)
(0 -3.0162954e-06 6.311161e-08)
(0 1.9872865e-05 1.1073699e-07)
(0 4.254805e-05 1.4625365e-07)
(0 6.4450281e-05 2.0092828e-07)
(0 8.504708e-05 2.4198328e-07)
(0 0.00010414993 2.2896803e-07)
(0 0 0)
(0 -4.2847135e-05 -2.2214809e-05)
(0 -7.376448e-05 -3.298269e-05)
(0 -9.3957718e-05 -3.670396e-05)
(0 -0.000107231 -3.660859e-05)
(0 -0.00011578758 -3.4418586e-05)
(0 -0.00012073435 -3.0982019e-05)
(0 -0.00012298616 -2.6685725e-05)
(0 -0.00012313307 -2.1764995e-05)
(0 -0.00012124243 -1.6420875e-05)
(0 -0.00011730405 -1.0811892e-05)
(0 -0.00011122017 -5.046133e-06)
(0 -0.0001029222 8.1424804e-07)
(0 -9.2721151e-05 6.6851281e-06)
(0 -8.0892118e-05 1.2435308e-05)
(0 -6.7572215e-05 1.7910303e-05)
(0 -5.2857426e-05 2.3004742e-05)
(0 -3.6982623e-05 2.7652123e-05)
(0 -2.0267823e-05 3.1760143e-05)
(0 -3.0346282e-06 3.5258129e-05)
(0 1.4445605e-05 3.8104681e-05)
(0 3.1764404e-05 4.0257688e-05)
(0 4.8542957e-05 4.1666907e-05)
(0 6.4405535e-05 4.2318136e-05)
(0 7.9178961e-05 4.2211993e-05)
(0 0 0)
(0 -2.7835746e-05 -4.3960234e-05)
(0 -4.8063915e-05 -6.5451586e-05)
(0 -6.1598067e-05 -7.29831e-05)
(0 -7.072643e-05 -7.2850375e-05)
(0 -7.6650233e-05 -6.8515202e-05)
(0 -7.9996518e-05 -6.1688705e-05)
(0 -8.150382e-05 -5.3178906e-05)
(0 -8.1697696e-05 -4.344023e-05)
(0 -8.0595136e-05 -3.2827778e-05)
(0 -7.8128101e-05 -2.1628818e-05)
(0 -7.4215025e-05 -1.0050421e-05)
(0 -6.8792598e-05 1.7332188e-06)
(0 -6.2098831e-05 1.3517938e-05)
(0 -5.436135e-05 2.5053768e-05)
(0 -4.5643281e-05 3.6062018e-05)
(0 -3.595649e-05 4.6331917e-05)
(0 -2.5453691e-05 5.5688591e-05)
(0 -1.434839e-05 6.3954923e-05)
(0 -2.826315e-06 7.0960522e-05)
(0 8.9184735e-06 7.6619835e-05)
(0 2.0544195e-05 8.0888619e-05)
(0 3.1848701e-05 8.3678054e-05)
(0 4.2659022e-05 8.4956435e-05)
(0 5.2817279e-05 8.4726461e-05)
(0 0 0)
(0 -1.3218669e-05 -6.5360507e-05)
(0 -2.2803639e-05 -9.688235e-05)
(0 -2.9515608e-05 -0.0001078746)
(0 -3.4316946e-05 -0.00010758633)
(0 -3.7487273e-05 -0.00010113127)
(0 -3.9188622e-05 -9.1028795e-05)
(0 -3.9936659e-05 -7.8482658e-05)
(0 -4.0122159e-05 -6.4145799e-05)
(0 -3.9707524e-05 -4.8505784e-05)
(0 -3.860791e-05 -3.1965689e-05)
(0 -3.6761276e-05 -1.4822367e-05)
(0 -3.4117844e-05 2.6511533e-06)
(0 -3.0841183e-05 2.013003e-05)
(0 -2.7072297e-05 3.7251074e-05)
(0 -2.2846175e-05 5.3637131e-05)
(0 -1.8168488e-05 6.8967128e-05)
(0 -1.308751e-05 8.2952021e-05)
(0 -7.6815879e-06 9.5338351e-05)
(0 -2.0124872e-06 0.00010589119)
(0 3.8057674e-06 0.00011444267)
(0 9.5205528e-06 0.00012087692)
(0 1.5097991e-05 0.00012510683)
(0 2.0561683e-05 0.00012708318)
(0 2.5792952e-05 0.00012679495)
(0 0 0)
(0 1.1976512e-06 -8.707476e-05)
(0 1.8937579e-06 -0.0001275052)
(0 1.8412051e-06 -0.00014125493)
(0 1.3406916e-06 -0.00014051385)
(0 9.3266324e-07 -0.00013189842)
(0 8.7205115e-07 -0.00011862564)
(0 8.9582466e-07 -0.00010224009)
(0 7.752925e-07 -8.3566671e-05)
(0 5.8939381e-07 -6.3197072e-05)
(0 4.2188546e-07 -4.1629101e-05)
(0 3.4422111e-07 -1.9255473e-05)
(0 3.6877728e-07 3.5557071e-06)
(0 3.6484995e-07 2.6374629e-05)
(0 3.0270293e-07 4.8734039e-05)
(0 1.7979062e-07 7.0172045e-05)
(0 3.5473121e-09 9.0284605e-05)
(0 -1.6770508e-07 0.00010867234)
(0 -3.1775999e-07 0.00012500893)
(0 -4.2045686e-07 0.00013902559)
(0 -4.7924657e-07 0.00015044242)
(0 -6.3756677e-07 0.00015905779)
(0 -7.9263112e-07 0.00016477905)
(0 -7.7321653e-07 0.00016754628)
(0 -6.1739714e-07 0.00016734742)
(0 0 0)
(0 1.5765717e-05 -0.00010978479)
(0 2.6088374e-05 -0.0001573562)
(0 3.2229375e-05 -0.00017279854)
(0 3.5832114e-05 -0.00017116956)
(0 3.8129167e-05 -0.00016033924)
(0 3.9706946e-05 -0.00014404383)
(0 4.0544811e-05 -0.0001240726)
(0 4.0561272e-05 -0.00010138169)
(0 3.9855894e-05 -7.6641842e-05)
(0 3.8514775e-05 -5.0422091e-05)
(0 3.6592626e-05 -2.3210953e-05)
(0 3.4084615e-05 4.5225651e-06)
(0 3.0928321e-05 3.2266087e-05)
(0 2.7157607e-05 5.9474437e-05)
(0 2.2834667e-05 8.5606574e-05)
(0 1.8038546e-05 0.00011018624)
(0 1.2887167e-05 0.00013274167)
(0 7.4596833e-06 0.00015283172)
(0 1.8733536e-06 0.00017010665)
(0 -3.7525791e-06 0.00018424311)
(0 -9.4407277e-06 0.00019499552)
(0 -1.5010416e-05 0.00020222685)
(0 -2.0203346e-05 0.00020585066)
(0 -2.4951474e-05 0.00020584592)
(0 0 0)
(0 3.4124523e-05 -0.00014945932)
(0 5.3992099e-05 -0.00020439589)
(0 6.6014595e-05 -0.00022049973)
(0 7.351378e-05 -0.00021658845)
(0 7.835221e-05 -0.00020201506)
(0 8.1375234e-05 -0.00018103868)
(0 8.2792373e-05 -0.00015568605)
(0 8.2655419e-05 -0.00012706618)
(0 8.1076513e-05 -9.5957692e-05)
(0 7.8147521e-05 -6.3031155e-05)
(0 7.3914414e-05 -2.8905953e-05)
(0 6.841613e-05 5.8142219e-06)
(0 6.1690536e-05 4.0502491e-05)
(0 5.3831272e-05 7.4514178e-05)
(0 4.4973567e-05 0.00010720705)
(0 3.5283375e-05 0.00013799289)
(0 2.4942998e-05 0.00016631191)
(0 1.4122826e-05 0.00019161453)
(0 3.0372932e-06 0.00021344469)
(0 -8.1061877e-06 0.0002314301)
(0 -1.919181e-05 0.00024526749)
(0 -2.9991099e-05 0.0002547443)
(0 -4.0219951e-05 0.00025972909)
(0 -4.9715088e-05 0.00026017232)
(0 0 0)
(0 -8.4761904e-05 7.3803539e-05)
(0 -0.00013780142 0.00010308306)
(0 -0.00017036804 0.00011170015)
(0 -0.00019118794 0.00010993486)
(0 -0.00020466643 0.00010265369)
(0 -0.00021275602 9.2047753e-05)
(0 -0.0002164168 7.9200834e-05)
(0 -0.00021613675 6.4707686e-05)
(0 -0.00021206315 4.894177e-05)
(0 -0.00020429554 3.2241305e-05)
(0 -0.00019294248 1.4925962e-05)
(0 -0.00017806012 -2.6718785e-06)
(0 -0.00015989259 -2.0210962e-05)
(0 -0.00013879952 -3.7367082e-05)
(0 -0.0001151877 -5.3828736e-05)
(0 -8.9453867e-05 -6.928311e-05)
(0 -6.2024624e-05 -8.3453736e-05)
(0 -3.3400788e-05 -9.6063114e-05)
(0 -4.1217342e-06 -0.00010690321)
(0 2.5336153e-05 -0.0001158483)
(0 5.4485497e-05 -0.00012273045)
(0 8.2698517e-05 -0.00012742193)
(0 0.00010935713 -0.00012987548)
(0 0.00013409168 -0.00013006412)
(0 0 0)
(0 -5.9088551e-05 4.4447509e-05)
(0 -9.9901616e-05 6.4771821e-05)
(0 -0.00012582401 7.1441264e-05)
(0 -0.00014252148 7.0935747e-05)
(0 -0.00015325999 6.6558695e-05)
(0 -0.00015958031 5.9866672e-05)
(0 -0.00016243238 5.1649474e-05)
(0 -0.00016236328 4.2321291e-05)
(0 -0.00015950504 3.2112109e-05)
(0 -0.00015393564 2.1246337e-05)
(0 -0.00014566837 9.9482873e-06)
(0 -0.00013462617 -1.5367015e-06)
(0 -0.00012100582 -1.2954339e-05)
(0 -0.00010512565 -2.4088422e-05)
(0 -8.7312443e-05 -3.4729414e-05)
(0 -6.7843429e-05 -4.4656275e-05)
(0 -4.7012053e-05 -5.3706882e-05)
(0 -2.5209649e-05 -6.1704964e-05)
(0 -2.8747827e-06 -6.8515456e-05)
(0 1.9675538e-05 -7.4102485e-05)
(0 4.2080585e-05 -7.8359755e-05)
(0 6.3774148e-05 -8.117029e-05)
(0 8.421338e-05 -8.2544074e-05)
(0 0.0001031437 -8.2493473e-05)
(0 0 0)
(0 -4.3075497e-05 2.2292983e-05)
(0 -7.4172932e-05 3.3129831e-05)
(0 -9.4441564e-05 3.6867267e-05)
(0 -0.00010767814 3.6761901e-05)
(0 -0.00011617596 3.4566742e-05)
(0 -0.00012106681 3.1130468e-05)
(0 -0.00012323764 2.6902046e-05)
(0 -0.00012325377 2.2098658e-05)
(0 -0.00012123372 1.6814249e-05)
(0 -0.00011721733 1.1151924e-05)
(0 -0.00011113054 5.2363681e-06)
(0 -0.00010285334 -7.7028947e-07)
(0 -9.2570429e-05 -6.7146828e-06)
(0 -8.0565706e-05 -1.2489488e-05)
(0 -6.7089828e-05 -1.7978631e-05)
(0 -5.2299953e-05 -2.3060016e-05)
(0 -3.6395582e-05 -2.7661612e-05)
(0 -1.9696366e-05 -3.1726674e-05)
(0 -2.5402992e-06 -3.5159898e-05)
(0 1.4855382e-05 -3.7936629e-05)
(0 3.217485e-05 -4.0043128e-05)
(0 4.8974332e-05 -4.1374898e-05)
(0 6.4842222e-05 -4.197532e-05)
(0 7.959053e-05 -4.1908236e-05)
(0 0 0)
(0 -2.7868522e-05 5.3304182e-08)
(0 -4.8570972e-05 9.7650332e-08)
(0 -6.2498766e-05 1.1308528e-07)
(0 -7.1824933e-05 1.1626108e-07)
(0 -7.781886e-05 1.2059064e-07)
(0 -8.1143327e-05 1.2713628e-07)
(0 -8.2556459e-05 1.7056994e-07)
(0 -8.2607683e-05 2.3908188e-07)
(0 -8.1374335e-05 2.72581e-07)
(0 -7.8820177e-05 2.3794896e-07)
(0 -7.4850339e-05 1.4950478e-07)
(0 -6.9363912e-05 6.6874649e-08)
(0 -6.2512541e-05 2.4898143e-08)
(0 -5.4544466e-05 6.9937672e-09)
(0 -4.5606786e-05 -3.8503922e-09)
(0 -3.5719899e-05 3.0232945e-09)
(0 -2.5028024e-05 2.9580157e-08)
(0 -1.3773687e-05 4.3162023e-08)
(0 -2.158496e-06 6.4343215e-08)
(0 9.6781527e-06 1.0579015e-07)
(0 2.1458193e-05 1.3509976e-07)
(0 3.2911696e-05 1.8085788e-07)
(0 4.3813855e-05 2.1038079e-07)
(0 5.4024597e-05 1.740735e-07)
(0 0 0)
(0 -1.308344e-05 -2.2091988e-05)
(0 -2.3066503e-05 -3.3230532e-05)
(0 -3.0230142e-05 -3.7231593e-05)
(0 -3.5321649e-05 -3.7246611e-05)
(0 -3.8599849e-05 -3.5063809e-05)
(0 -4.0256419e-05 -3.1580299e-05)
(0 -4.0866301e-05 -2.7206208e-05)
(0 -4.0902978e-05 -2.2182719e-05)
(0 -4.0382877e-05 -1.6720615e-05)
(0 -3.9212534e-05 -1.098452e-05)
(0 -3.7310809e-05 -5.0735101e-06)
(0 -3.4604843e-05 9.4870856e-07)
(0 -3.1214619e-05 6.9962145e-06)
(0 -2.7324492e-05 1.2924264e-05)
(0 -2.298641e-05 1.856981e-05)
(0 -1.8161632e-05 2.3824907e-05)
(0 -1.2924623e-05 2.8598418e-05)
(0 -7.3973379e-06 3.2797553e-05)
(0 -1.6378934e-06 3.6320206e-05)
(0 4.2954819e-06 3.914806e-05)
(0 1.0181748e-05 4.1286616e-05)
(0 1.5922589e-05 4.267144e-05)
(0 2.150807e-05 4.3277458e-05)
(0 2.6835552e-05 4.309659e-05)
(0 0 0)
(0 1.4478017e-06 -4.3770486e-05)
(0 2.1456952e-06 -6.5612317e-05)
(0 1.8615848e-06 -7.3409456e-05)
(0 1.1426631e-06 -7.3381868e-05)
(0 6.7166014e-07 -6.9059768e-05)
(0 7.080903e-07 -6.220206e-05)
(0 9.0437295e-07 -5.3648938e-05)
(0 9.1472119e-07 -4.3853772e-05)
(0 7.7907134e-07 -3.3159669e-05)
(0 6.0569793e-07 -2.1854738e-05)
(0 4.9976548e-07 -1.0139253e-05)
(0 5.1259618e-07 1.8044513e-06)
(0 5.1215776e-07 1.3761216e-05)
(0 4.2860509e-07 2.5475197e-05)
(0 2.5800399e-07 3.6663325e-05)
(0 3.2048255e-08 4.7093324e-05)
(0 -2.0562593e-07 5.6579285e-05)
(0 -4.5296968e-07 6.4951283e-05)
(0 -6.5300716e-07 7.2007368e-05)
(0 -7.6406058e-07 7.7678768e-05)
(0 -9.3078048e-07 8.195117e-05)
(0 -1.0801905e-06 8.4721616e-05)
(0 -1.0286868e-06 8.5958129e-05)
(0 -8.4223715e-07 8.5664386e-05)
(0 0 0)
(0 1.5890697e-05 -6.5327369e-05)
(0 2.6882498e-05 -9.6824799e-05)
(0 3.3269759e-05 -0.00010778441)
(0 3.6857568e-05 -0.00010746637)
(0 3.9151544e-05 -0.00010099943)
(0 4.0826711e-05 -9.0906346e-05)
(0 4.1790711e-05 -7.8398038e-05)
(0 4.1854113e-05 -6.411366e-05)
(0 4.1102075e-05 -4.8513e-05)
(0 3.9663377e-05 -3.1990285e-05)
(0 3.7633035e-05 -1.4844552e-05)
(0 3.5013701e-05 2.6374581e-06)
(0 3.1707366e-05 2.0121071e-05)
(0 2.7744059e-05 3.7245901e-05)
(0 2.3181801e-05 5.3635256e-05)
(0 1.8095251e-05 6.8961855e-05)
(0 1.2602527e-05 8.2944153e-05)
(0 6.7968274e-06 9.5330802e-05)
(0 8.4412893e-07 0.00010588263)
(0 -5.1133914e-06 0.00011443336)
(0 -1.1117976e-05 0.00012086499)
(0 -1.6957936e-05 0.00012508431)
(0 -2.2338518e-05 0.00012705469)
(0 -2.7244287e-05 0.00012677337)
(0 0 0)
(0 3.0680199e-05 -8.74954e-05)
(0 5.1310594e-05 -0.00012700295)
(0 6.3859729e-05 -0.00014011858)
(0 7.1498674e-05 -0.00013910734)
(0 7.6434687e-05 -0.0001304611)
(0 7.9675713e-05 -0.00011729667)
(0 8.1373264e-05 -0.00010110045)
(0 8.1484567e-05 -8.2662125e-05)
(0 8.0121635e-05 -6.2536989e-05)
(0 7.7424268e-05 -4.1199073e-05)
(0 7.3444542e-05 -1.9047765e-05)
(0 6.8179219e-05 3.5315768e-06)
(0 6.1633758e-05 2.6110778e-05)
(0 5.3891956e-05 4.8236681e-05)
(0 4.5081132e-05 6.9457148e-05)
(0 3.5366183e-05 8.9371429e-05)
(0 2.4906269e-05 0.0001076015)
(0 1.3875812e-05 0.00012380305)
(0 2.5505525e-06 0.0001376931)
(0 -8.8391839e-06 0.00014902159)
(0 -2.0206113e-05 0.00015759551)
(0 -3.125353e-05 0.00016331334)
(0 -4.1643437e-05 0.00016611518)
(0 -5.1258713e-05 0.00016598307)
(0 0 0)
(0 5.1783939e-05 -0.00012378398)
(0 8.315896e-05 -0.00017179678)
(0 0.00010219514 -0.00018625156)
(0 0.00011409944 -0.00018335282)
(0 0.00012178609 -0.00017120065)
(0 0.00012654895 -0.00015352456)
(0 0.00012879323 -0.00013208506)
(0 0.00012862766 -0.00010784057)
(0 0.00012618299 -8.1467614e-05)
(0 0.0001215925 -5.3547392e-05)
(0 0.00011491861 -2.4608037e-05)
(0 0.000106224 4.8374785e-06)
(0 9.5614621e-05 3.4251163e-05)
(0 8.32476e-05 6.3080221e-05)
(0 6.9328594e-05 9.0774305e-05)
(0 5.4115152e-05 0.00011682718)
(0 3.78639e-05 0.00014075904)
(0 2.0861699e-05 0.00016211745)
(0 3.4700933e-06 0.00018052584)
(0 -1.3988308e-05 0.00019566377)
(0 -3.1274773e-05 0.00020727659)
(0 -4.8037415e-05 0.00021519422)
(0 -6.39102e-05 0.00021931239)
(0 -7.8676654e-05 0.0002195928)
(0 0 0)
(0 -6.7862738e-05 9.8786812e-05)
(0 -0.00011007867 0.00013809293)
(0 -0.00013623153 0.00014995764)
(0 -0.00015300253 0.00014774541)
(0 -0.00016384377 0.00013803012)
(0 -0.00017029819 0.00012382338)
(0 -0.00017317579 0.00010657731)
(0 -0.0001729105 8.7075173e-05)
(0 -0.00016964039 6.5845479e-05)
(0 -0.00016346056 4.3349568e-05)
(0 -0.00015444092 2.0008947e-05)
(0 -0.00014260221 -3.7298195e-06)