/*--------------------------------*- C++ -*----------------------------------*\
| =========                 |                                                 |
| \\      /  F ield         | foam-extend: Open Source CFD                    |
|  \\    /   O peration     | Version:     4.1-20200408                       |
|   \\  /    A nd           | Web:         http://www.foam-extend.org         |
|    \\/     M anipulation  |                                                 |
\*---------------------------------------------------------------------------*/
FoamFile
{
    version     2.0;
    format      ascii;
    class       volScalarField;
    location    "0.0600000";
    object      ccz;
}
// * * * * * * * * * * * * * * * * * * * * * * * * * * * * * * * * * * * * * //

dimensions      [0 1 0 0 0 0 0];

internalField   nonuniform List<scalar> 
1952
(
8.32685e-13
4.16862e-12
-1.79048e-12
-1.1203e-11
-4.84537e-12
-1.04748e-22
4.51819e-22
1.58694e-22
2.54585e-11
2.45835e-11
4.04382e-22
-3.174e-22
1.46352e-21
1.81088e-21
9.29968e-22
3.22021e-12
-5.55402e-13
1.6667e-12
-2.97625e-12
-1.25e-11
-6.06054e-12
1.28205e-11
1.2222e-11
-1.27456e-11
1.31586e-11
2.46036e-11
1.15252e-21
6.35657e-22
1.27411e-21
-3.64585e-22
-1.78948e-21
3.22011e-12
-2.77784e-13
2.83333e-12
-2.97625e-12
-1.37963e-11
-7.2729e-12
2.56413e-11
2.44441e-11
-2.54905e-11
-1.18402e-11
1.23015e-11
9.22075e-22
-1.0597e-22
3.92093e-22
1.2644e-11
1.2365e-11
1.5534e-12
-2.77779e-13
4.16691e-12
-1.78542e-12
-1.25e-11
6.81881e-12
3.78205e-11
2.44441e-11
-2.54897e-11
-1.18416e-11
1.23008e-11
-4.6102e-22
6.35727e-22
1.26545e-11
2.5e-11
1.23648e-11
1.55337e-12
-5.55562e-13
1.66671e-12
-1.66699e-12
-1.12962e-11
6.81848e-12
3.78208e-11
2.44441e-11
-1.27458e-11
1.31584e-11
2.46036e-11
-1.26817e-11
-1.23329e-11
1.26549e-11
2.5e-11
1.2365e-11
3.22006e-12
-5.55562e-13
1.66668e-12
-2.97625e-12
-1.25e-11
-6.06056e-12
1.28208e-11
1.22218e-11
-1.27451e-11
4.38394e-13
1.23011e-11
-1.26816e-11
-1.23331e-11
1.26546e-11
3.7644e-11
2.47303e-11
3.22006e-12
-2.77864e-13
4.16647e-12
-3.09531e-12
-1.24073e-11
8.03035e-12
2.49997e-11
1.22223e-11
-2.54905e-11
-1.18404e-11
1.23012e-11
-1.26813e-11
-1.23329e-11
2.53094e-11
3.7356e-11
1.23653e-11
1.55339e-12
1.1111e-12
5.33335e-12
-3.09531e-12
-1.24074e-11
2.09094e-11
3.71795e-11
1.22218e-11
-1.27454e-11
1.31584e-11
2.46027e-11
-1.26811e-11
-2.5e-11
3.09635e-13
2.5e-11
1.2365e-11
1.55339e-12
1.11112e-12
5.33352e-12
-3.09531e-12
-1.24075e-11
8.03063e-12
2.5e-11
1.22224e-11
-4.68686e-22
1.272e-11
1.23015e-11
0
-1.26672e-11
-1.23454e-11
1.26442e-11
1.23653e-11
1.55343e-12
-2.77698e-13
2.83338e-12
-2.97625e-12
-1.12037e-11
-4.84844e-12
1.28203e-11
1.22218e-11
3.51468e-22
1.2719e-11
2.49998e-11
-3.63669e-13
-1.23329e-11
1.07862e-21
1.2644e-11
1.2365e-11
1.55343e-12
-1.66666e-12
1.66668e-12
-1.66673e-12
-1.12963e-11
-6.06053e-12
1.28209e-11
1.22224e-11
-7.81169e-22
1.27197e-11
2.50002e-11
-3.62854e-13
-2.5e-11
-1.23451e-11
1.26442e-11
1.23653e-11
1.55344e-12
-2.77889e-13
4.16648e-12
-1.78613e-12
-1.37962e-11
-7.27241e-12
1.28203e-11
1.22218e-11
-1.27447e-11
4.39831e-13
1.23012e-11
1.15313e-21
-1.26672e-11
-1.23454e-11
1.2644e-11
1.2365e-11
1.55337e-12
2.22222e-12
5.33352e-12
-1.78542e-12
-1.25e-11
-6.06077e-12
-1.02227e-22
8.85597e-22
-2.54905e-11
-1.18426e-11
1.23011e-11
5.76598e-23
-4.24061e-22
-3.92302e-22
1.26442e-11
1.23653e-11
3.22009e-12
1.11112e-12
5.33335e-12
-4.76247e-13
-1.12963e-11
-6.06054e-12
-1.02244e-22
3.98624e-22
-1.27458e-11
4.38689e-13
1.23013e-11
-1.26813e-11
-2.49998e-11
-1.23452e-11
1.2644e-11
1.2365e-11
1.55345e-12
1.1111e-12
5.33319e-12
-1.78614e-12
-1.25e-11
-6.06056e-12
5.62262e-22
1.32858e-22
-2.34384e-22
1.27196e-11
1.23015e-11
-1.26815e-11
-2.50003e-11
-1.23454e-11
1.26443e-11
1.23653e-11
1.55345e-12
2.22222e-12
5.33352e-12
-3.0949e-12
-1.24074e-11
8.03089e-12
1.21792e-11
0
-1.95353e-22
1.27198e-11
1.23013e-11
1.38412e-21
7.42243e-22
2.94281e-22
1.2644e-11
1.2365e-11
3.22005e-12
-2.77754e-13
4.1667e-12
-1.78617e-12
-1.12037e-11
2.09084e-11
2.43587e-11
1.55051e-21
-1.27455e-11
1.31587e-11
2.46027e-11
-1.21118e-21
-3.18125e-22
1.26546e-11
2.5e-11
1.23649e-11
1.55346e-12
-2.77807e-13
4.16668e-12
-4.75917e-13
-1.12963e-11
6.81911e-12
1.21795e-11
4.42944e-22
-1.27454e-11
4.39011e-13
1.23019e-11
-5.76842e-23
-2.33309e-21
1.26548e-11
2.5e-11
1.2365e-11
1.55346e-12
2.22222e-12
5.33335e-12
-1.78576e-12
-1.25e-11
-6.06077e-12
1.28209e-11
1.2222e-11
7.42417e-22
1.27194e-11
1.23012e-11
-1.26813e-11
-2.49999e-11
-1.23451e-11
1.26447e-11
1.23657e-11
3.22006e-12
1.11112e-12
4.00003e-12
-2.97658e-12
-1.12038e-11
-4.84827e-12
1.28204e-11
1.22218e-11
-1.27452e-11
1.31574e-11
2.46019e-11
-1.26815e-11
-3.76671e-11
-2.46906e-11
3.65023e-22
8.53155e-23
1.55347e-12
-1.38888e-12
2.83335e-12
-2.97592e-12
-1.25e-11
6.81822e-12
1.21793e-11
-2.65845e-22
-1.27454e-11
1.31609e-11
3.73017e-11
1.23184e-11
-1.26671e-11
3.09932e-13
2.49998e-11
1.2365e-11
-1.13203e-13
-2.77778e-12
3.00003e-12
-1.78616e-12
-1.25e-11
6.81846e-12
2.5e-11
1.2222e-11
-1.27451e-11
4.384e-13
2.50003e-11
1.23187e-11
1.06075e-22
1.26548e-11
2.50003e-11
1.23653e-11
-1.13206e-13
-2.77786e-12
2.99979e-12
-4.76246e-13
-1e-11
8.03036e-12
3.78201e-11
2.44433e-11
-1.27454e-11
-1.22807e-11
0
-5.76965e-22
-5.30359e-22
1.96254e-22
-6.38913e-22
8.53233e-23
-1.13198e-13
-2.7777e-12
3.00028e-12
-1.78577e-12
-1.12037e-11
8.03063e-12
2.50002e-11
1.22222e-11
-1.27451e-11
-1.22804e-11
1.26989e-11
1.23188e-11
-1.26669e-11
3.09409e-13
2.49997e-11
1.23655e-11
-1.1319e-13
-1.3889e-12
4.16668e-12
-1.78579e-12
-1.25e-11
-6.06054e-12
2.04586e-22
-1.32954e-22
-2.54914e-11
-2.4561e-11
1.26987e-11
-3.62538e-13
-3.76669e-11
-1.20345e-11
2.50002e-11
1.23653e-11
-1.13193e-13
1.1111e-12
5.33352e-12
-4.75917e-13
-1.12963e-11
-6.06056e-12
2.55796e-22
-4.87534e-22
-1.27454e-11
-1.22807e-11
3.79431e-22
-1.26819e-11
-2.50003e-11
3.09193e-13
1.23557e-11
-3.41363e-22
1.55347e-12
8.33222e-13
4.1665e-12
-1.78613e-12
-1.12037e-11
-4.84827e-12
-7.67283e-22
8.86383e-23
-9.77338e-22
1.27194e-11
1.23012e-11
5.77105e-23
-4.2439e-22
1.26549e-11
1.2356e-11
2.47507e-21
3.22015e-12
8.33434e-13
4.16668e-12
-3.09531e-12
-1.37036e-11
-6.06074e-12
6.13987e-22
0
-1.27452e-11
1.31599e-11
2.46027e-11
-8.07997e-22
-2.01618e-21
1.26545e-11
2.49997e-11
1.23646e-11
3.22022e-12
8.33342e-13
4.1667e-12
-3.09531e-12
-1.37037e-11
-6.06035e-12
1.28205e-11
1.2222e-11
-1.27454e-11
1.31584e-11
3.73013e-11
-3.63671e-13
-1.23329e-11
1.26548e-11
2.50002e-11
1.23653e-11
3.22016e-12
-2.77784e-13
4.16668e-12
-1.78579e-12
-1.12037e-11
8.03031e-12
2.5e-11
1.22218e-11
-1.27452e-11
4.39224e-13
2.50003e-11
-3.62844e-13
-1.23331e-11
4.90908e-22
1.26444e-11
1.23655e-11
1.55352e-12
7.02257e-23
4.00003e-12
-1.6667e-12
-1e-11
2.09094e-11
3.71788e-11
1.22224e-11
-2.54914e-11
-1.18417e-11
2.49998e-11
1.23184e-11
1.48591e-21
1.17814e-21
2.52874e-11
2.47295e-11
-1.13164e-13
1.11106e-12
4e-12
-2.97625e-12
-1.12036e-11
8.03065e-12
3.78203e-11
2.44433e-11
-2.54897e-11
8.79652e-13
3.73015e-11
1.23187e-11
-1.26672e-11
-1.23456e-11
2.52891e-11
2.47303e-11
1.55345e-12
8.33347e-13
4.16671e-12
-3.09572e-12
-1.24075e-11
-4.84844e-12
1.28212e-11
1.22222e-11
-2.54905e-11
8.78002e-13
2.46019e-11
-1.26813e-11
-2.5e-11
-1.23455e-11
2.52883e-11
2.47303e-11
3.22018e-12
8.33305e-13
4.16668e-12
-3.09531e-12
-1.24074e-11
-4.84844e-12
8.18973e-22
5.76526e-22
-1.27458e-11
1.31583e-11
2.46027e-11
-1.26816e-11
-1.23331e-11
1.26549e-11
2.5e-11
1.23653e-11
3.22018e-12
2.2223e-12
5.33352e-12
-1.7858e-12
-1.12037e-11
-4.84843e-12
5.11904e-23
0
-1.27451e-11
4.39399e-13
2.5e-11
1.23181e-11
-1.06145e-22
1.26548e-11
1.23561e-11
2.56162e-22
3.22025e-12
-2.77805e-13
4.16652e-12
-1.78575e-12
-1.25e-11
6.81875e-12
1.21791e-11
3.10464e-22
-1.27455e-11
4.39533e-13
3.76985e-11
2.46371e-11
-1.48629e-21
-2.94609e-22
1.82678e-22
-1.26351e-11
1.55353e-12
-2.77778e-12
3.00004e-12
-3.09528e-12
-1.37037e-11
6.81835e-12
1.21796e-11
-4.43578e-23
-1.27452e-11
1.31583e-11
3.73013e-11
1.23186e-11
-2.01721e-21
1.26549e-11
1.23556e-11
-1.26352e-11
-1.13138e-13
-2.77773e-12
3.00019e-12
-1.78568e-12
-1.12037e-11
8.03013e-12
2.49995e-11
1.22217e-11
-2.54907e-11
-1.18409e-11
1.23015e-11
-1.26814e-11
-1.23326e-11
1.26551e-11
1.23558e-11
-9.39284e-22
-1.13131e-13
-2.77778e-12
3.00004e-12
-4.76227e-13
-1e-11
8.03082e-12
3.78211e-11
2.44441e-11
-2.54906e-11
-2.45608e-11
-2.53191e-22
-1.26818e-11
-2.5e-11
-1.23449e-11
1.26442e-11
1.23647e-11
-1.1313e-13
-1.38895e-12
4.16663e-12
-1.78574e-12
-1.12037e-11
-4.84844e-12
2.56413e-11
2.44441e-11
-2.54907e-11
-1.18417e-11
1.23009e-11
-1.26813e-11
-2.5e-11
-1.23452e-11
2.52888e-11
2.47297e-11
-1.13126e-13
1.11105e-12
4.00007e-12
-2.97621e-12
-1.12038e-11
8.02985e-12
2.5e-11
1.22225e-11
-1.27456e-11
1.31584e-11
2.46025e-11
-1.26818e-11
-1.23331e-11
-5.8943e-22
1.26447e-11
1.2365e-11
1.55345e-12
1.11119e-12
3.99993e-12
-2.97617e-12
-1.24999e-11
6.81911e-12
1.218e-11
-6.214e-22
-2.74048e-22
1.272e-11
1.23017e-11
-1.26812e-11
-1.23325e-11
1.26547e-11
1.23552e-11
-1.02492e-21
1.55366e-12
1.11103e-12
5.33332e-12
-1.7858e-12
-1.25002e-11
-6.06069e-12
1.28197e-11
1.22214e-11
-1.27445e-11
4.38928e-13
1.23008e-11
-1.2682e-11
-2.5e-11
3.10649e-13
1.23556e-11
-3.41658e-22
1.55342e-12
1.11121e-12
5.33331e-12
-4.76154e-13
-1e-11
-4.8485e-12
1.28214e-11
1.22231e-11
-2.54902e-11
-1.18411e-11
2.5e-11
-3.62994e-13
-3.76668e-11
-1.2035e-11
1.2355e-11
-1.0251e-21
1.55371e-12
1.95932e-22
4.00013e-12
-1.66646e-12
-1e-11
-4.84853e-12
1.28192e-11
1.22213e-11
-1.2746e-11
-1.22816e-11
1.26993e-11
-3.62736e-13
-2.50012e-11
3.10178e-13
1.23556e-11
-4.2716e-22
-1.13103e-13
-1.38873e-12
2.83328e-12
-1.66672e-12
-1e-11
8.02876e-12
2.50001e-11
1.22236e-11
5.87745e-22
-1.19154e-21
1.26765e-22
-8.09656e-22
4.7844e-22
1.26543e-11
2.49988e-11
-2.72425e-13
-1.131e-13
-1.66677e-12
2.99994e-12
-1.78538e-12
-1.12036e-11
8.03153e-12
1.21813e-11
-6.66483e-22
-1.27434e-11
-1.22795e-11
1.26798e-22
-1.26799e-11
-1.2332e-11
1.26561e-11
2.50021e-11
-2.72412e-13
1.55336e-12
-2.77798e-13
2.8333e-12
-4.28539e-12
-1.24075e-11
8.02823e-12
1.21782e-11
6.22194e-22
-1.27463e-11
-1.22827e-11
-6.34212e-22
-1.26826e-11
-1.23347e-11
-1.18109e-21
1.73914e-21
-1.28328e-21
1.55379e-12
-6.95087e-23
3.99977e-12
-4.28566e-12
-1.24075e-11
8.03169e-12
1.21815e-11
2.2226e-22
2.74489e-22
1.27172e-11
1.23003e-11
-4.053e-22
-4.2584e-22
1.26529e-11
1.23543e-11
-1.19873e-21
-1.13086e-13
2.78047e-23
5.33325e-12
-1.78564e-12
-1.12039e-11
-4.84866e-12
1.28183e-11
-5.54424e-13
-2.49966e-11
4.40925e-13
1.23039e-11
-6.95131e-22
-3.19562e-22
2.53084e-11
3.73547e-11
1.2364e-11
-1.13082e-13
6.91728e-23
5.33325e-12
-1.7853e-12
-1.24997e-11
-6.06067e-12
1.28217e-11
-5.54319e-13
-3.77461e-11
-2.4563e-11
5.07929e-22
-1.26786e-11
-2.4997e-11
3.10662e-13
2.50026e-11
1.23666e-11
-1.13077e-13
1.11101e-12
5.33324e-12
-1.78559e-12
-1.37964e-11
-7.27304e-12
2.82247e-22
-7.11572e-22
-2.54885e-11
-2.45632e-11
1.26958e-11
-3.63231e-13
-3.7667e-11
-2.46933e-11
-2.38727e-21
-1.03022e-21
1.55342e-12
1.11121e-12
5.33324e-12
-4.75893e-13
-1.25925e-11
5.60411e-12
1.21791e-11
-8.89512e-23
-2.54884e-11
-2.45636e-11
1.26986e-11
-3.56734e-13
-3.76638e-11
-2.46943e-11
2.75689e-22
0
1.55372e-12
-1.24189e-22
3.99997e-12
-2.97578e-12
-1.37962e-11
1.84833e-11
3.71795e-11
1.22224e-11
-2.54883e-11
-1.18464e-11
2.49982e-11
-3.60896e-13
-2.50017e-11
-1.23488e-11
9.19681e-22
8.60319e-23
-1.13063e-13
-1.38887e-12
2.83323e-12
-4.28537e-12
-1.37038e-11
6.8173e-12
2.50002e-11
1.22233e-11
-2.5488e-11
8.72044e-13
5e-11
2.46418e-11
-7.47306e-22
-1.68106e-21
1.26407e-11
1.2373e-11
-1.13058e-13
-2.77624e-13
2.8332e-12
-2.97585e-12
-1.25e-11
6.81778e-12
2.50015e-11
1.22242e-11
-2.54875e-11
-1.18483e-11
2.49971e-11
-3.6084e-13
-1.23386e-11
-3.95747e-22
1.26353e-11
1.23697e-11
1.55368e-12
1.111e-12
4.00004e-12
-1.66611e-12
-1.1296e-11
1.96948e-11
3.71784e-11
1.22212e-11
-1.27406e-11
4.40698e-13
1.23074e-11
-1.26743e-11
-1.23332e-11
1.26535e-11
1.23667e-11
6.90707e-22
1.55341e-12
-8.46201e-23
3.99949e-12
-1.66641e-12
-1.12966e-11
6.81196e-12
1.21771e-11
-4.44273e-23
0
1.27117e-11
1.22992e-11
-1.26835e-11
-1.2343e-11
1.26432e-11
2.50001e-11
1.23789e-11
-1.13044e-13
-2.77806e-13
1.49928e-12
-2.8565e-12
-1.12956e-11
-6.06085e-12
-4.86788e-22
-1.77699e-22
-1.27494e-11
4.33309e-13
1.23117e-11
-1.26701e-11
-1.23305e-11
9.90555e-22
1.2631e-11
1.23678e-11
1.55427e-12
-1.66716e-12
1.66701e-12
-2.97527e-12
-1.12046e-11
-4.84923e-12
1.28265e-11
-5.51194e-13
-2.49997e-11
1.31574e-11
2.46098e-11
2.32275e-22
-2.67269e-22
-6.93524e-22
1.26453e-11
1.23782e-11
1.55264e-12
-2.75771e-13
4.16705e-12
-3.09393e-12
-1.24077e-11
8.03745e-12
3.78277e-11
1.16843e-11
-2.50004e-11
4.13075e-13
1.22954e-11
-5.22705e-22
-1.26721e-11
-1.23583e-11
1.26316e-11
1.23645e-11
1.55487e-12
2.22234e-12
5.33294e-12
-1.78336e-12
-1.12028e-11
8.01621e-12
2.49782e-11
1.22141e-11
-1.27314e-11
4.54033e-13
1.23149e-11
5.80822e-22
-1.26537e-11
3.19918e-13
1.23674e-11
9.51077e-22
3.22025e-12
8.32131e-13
4.1651e-12
-4.75208e-13
-1e-11
8.03994e-12
2.50232e-11
1.22358e-11
2.74672e-22
1.27054e-11
1.22938e-11
-1.2689e-11
-1.23456e-11
2.53038e-11
2.4717e-11
1.03722e-21
3.22026e-12
-1.66763e-12
2.99951e-12
-1.78605e-12
-8.61018e-12
2.3332e-11
5e-11
2.44486e-11
-6.27968e-22
1.27282e-11
1.23146e-11
-1.26685e-11
-1.23256e-11
1.26437e-11
1.23494e-11
-1.64145e-21
1.55197e-12
-2.75314e-13
4.16745e-12
-3.09425e-12
-7.22296e-12
2.57547e-11
5e-11
2.44482e-11
-1.27545e-11
1.31413e-11
2.46071e-11
6.39077e-22
4.278e-22
-1.08953e-21
-1.84523e-22
-2.07217e-21
1.55522e-12
2.22229e-12
5.33307e-12
-1.78379e-12
-1.89912e-11
7.33388e-13
2.49787e-11
1.22134e-11
-1.27328e-11
4.35089e-13
1.22932e-11
-1.26898e-11
-1.23427e-11
-6.93189e-22
1.10676e-21
4.31419e-22
3.22028e-12
2.22229e-12
5.33308e-12
-4.75558e-13
-1.77672e-11
-1.21131e-11
1.28291e-11
1.22329e-11
-7.85807e-23
1.27275e-11
1.23116e-11
-2.53614e-11
-3.73416e-11
-1.23521e-11
2.76596e-22
8.62299e-22
3.22029e-12
2.2223e-12
5.3331e-12
-1.78582e-12
-6.01978e-12
4.85734e-22
1.28109e-11
-5.69468e-13
-2.50163e-11
1.3147e-11
2.46045e-11
-1.26732e-11
-2.49845e-11
3.28435e-13
1.23594e-11
1.72332e-22
3.22029e-12
1.11052e-12
5.3331e-12
-1.78431e-12
-6.01832e-12
1.28848e-11
1.21872e-11
-1.27698e-11
-2.49865e-11
1.3162e-11
2.46038e-11
0
-2.24576e-21
1.26507e-11
1.23453e-11
-1.72218e-21
1.55271e-12
5.48414e-23
5.33312e-12
-1.78569e-12
-6.01947e-12
1.28721e-11
1.21752e-11
-4.01306e-22
7.08273e-22
2.54373e-11
2.46035e-11
-1.26874e-11
-2.50111e-11
-1.23477e-11
-2.76263e-22
-1.72125e-22
-1.1301e-13
1.11158e-12
5.33317e-12
-3.09459e-12
-2.01896e-11
7.56206e-13
1.21847e-11
-5.35395e-22
-6.69283e-22
2.54378e-11
2.46029e-11
-1.26781e-11
-2.49917e-11
-1.23375e-11
8.28584e-22
-1.26468e-11
1.55432e-12
2.22227e-12
3.99947e-12
-2.97585e-12
-1.89768e-11
1.36381e-11
2.43602e-11
8.9266e-23
-1.27479e-11
4.32877e-13
1.22984e-11
2.90757e-22
-1.26712e-11
-1.23459e-11
0
-1.2635e-11
3.22031e-12
2.22224e-12
4.00031e-12
-2.97608e-12
-6.01895e-12
1.28754e-11
1.21767e-11
-1.33859e-22
-1.27427e-11
-1.22781e-11
1.91055e-22
-1.2684e-11
-2.5e-11
-1.2342e-11
-2.76108e-22
-6.88208e-22
3.22032e-12
2.22223e-12
5.33329e-12
-1.78534e-12
-1.8984e-11
-1.21238e-11
1.28231e-11
1.22244e-11
1.18012e-22
1.27217e-11
1.23027e-11
-1.26805e-11
-1.23307e-11
1.97741e-22
9.20107e-23
1.54842e-21
3.22032e-12
-2.78253e-13
4.16644e-12
-4.76135e-13
-1.77754e-11
-1.21191e-11
2.56412e-11
2.4444e-11
7.47031e-22
2.54397e-11
2.46018e-11
-1.26835e-11
-1.23334e-11
1.26568e-11
1.23561e-11
3.44036e-22
1.55333e-12
-1.38866e-12
4.16685e-12
-4.76192e-13
-1.77798e-11
7.57927e-13
3.78223e-11
2.44439e-11
-1.2747e-11
4.36855e-13
1.22997e-11
-1.26809e-11
-1.23311e-11
2.5311e-11
3.73561e-11
-2.7177e-13
-1.13005e-13
-1.38908e-12
4.16652e-12
-1.78596e-12
-1.89801e-11
1.36384e-11
5e-11
2.44438e-11
-1.27443e-11
4.41936e-13
1.2302e-11
1.04451e-21
-1.26685e-11
3.08956e-13
3.76439e-11
1.2094e-11
-1.13005e-13
-2.77517e-13
4.16683e-12
-1.78543e-12
-6.01829e-12
1.28776e-11
2.49977e-11
1.22208e-11
-3.14212e-22
2.54404e-11
2.4602e-11
1.68254e-21
-1.26667e-11
-1.2344e-11
1.2644e-11
1.2364e-11
1.55386e-12
1.11105e-12
5.33351e-12
-4.76196e-13
-4.81463e-12
9.10567e-23
4.1092e-22
-4.45115e-22
3.14112e-22
2.54386e-11
2.46015e-11
-1.26827e-11
-2.50014e-11
-1.23456e-11
1.26452e-11
1.23652e-11
1.55351e-12
2.78249e-23
5.33316e-12
-1.7862e-12
-6.0186e-12
1.28801e-11
1.21798e-11
5.33933e-22
-1.27458e-11
4.38994e-13
1.23006e-11
-2.5364e-11
-3.73319e-11
-1.23447e-11
1.26438e-11
1.23641e-11
-1.13005e-13
5.48072e-23
5.33351e-12
-1.78562e-12
-6.01846e-12
2.57584e-11
2.4359e-11
1.33469e-22
-2.54919e-11
-1.18403e-11
1.23018e-11
-2.53631e-11
-2.46659e-11
7.9015e-22
1.26446e-11
1.23659e-11
-1.13005e-13
1.11117e-12
5.33333e-12
-1.78615e-12
-1.89822e-11
1.36371e-11
3.71796e-11
1.22228e-11
-1.2745e-11
1.31596e-11
2.46015e-11
-1.2681e-11
-2.5e-11
3.09384e-13
3.76446e-11
2.47296e-11
1.55374e-12
2.22223e-12
5.33333e-12
-1.78565e-12
-1.89812e-11
1.36368e-11
5e-11
2.44428e-11
9.41659e-22
1.27192e-11
1.23008e-11
-1.26824e-11
-3.7667e-11
-1.20351e-11
2.49989e-11
1.23651e-11
3.22033e-12
-2.7794e-13
4.16663e-12
-4.76172e-13
-4.81465e-12
1.28784e-11
3.78206e-11
2.44445e-11
-1.27463e-11
4.39391e-13
1.23021e-11
-1.26812e-11
-2.49992e-11
3.09418e-13
1.23564e-11
1.7203e-22
1.55361e-12
-2.77777e-12
1.66684e-12
-1.66668e-12
-4.81482e-12
5.45813e-22
1.28206e-11
1.22219e-11
-2.5491e-11
-1.18413e-11
1.23009e-11
2.89901e-22
0
2.53094e-11
2.47119e-11
5.16081e-22
-1.13005e-13
-2.77777e-12
3.33328e-13
-4.16698e-12
-6.01855e-12
1.21274e-22
1.28208e-11
1.2222e-11
-1.27447e-11
-1.228e-11
2.54019e-22
1.04359e-21
-4.26716e-22
1.26543e-11
2.5e-11
1.23652e-11
-1.13005e-13
-1.38886e-12
2.83337e-12
-4.28567e-12
-7.22197e-12
1.2879e-11
2.5e-11
1.22216e-11
8.6301e-22
1.272e-11
1.23019e-11
-4.63896e-22
0
1.2655e-11
2.5e-11
1.23653e-11
-1.13005e-13
-4.19481e-22
5.33333e-12
-1.78607e-12
-6.01851e-12
1.28786e-11
2.5e-11
1.2222e-11
-2.35366e-22
1.2719e-11
1.2301e-11
5.79788e-22
-1.26669e-11
3.08821e-13
1.2356e-11
1.72076e-22
-1.13001e-13
1.11109e-12
5.33333e-12
-4.7617e-13
-4.81483e-12
-4.24424e-22
2.56418e-11
2.44445e-11
7.84475e-23
3.50939e-22
-1.27004e-22
0
-1.26668e-11
3.09118e-13
1.23562e-11
1.54828e-21
1.55365e-12
-2.77714e-13
4.16686e-12
-4.76172e-13
-4.81482e-12
-6.06271e-23
2.5641e-11
2.44445e-11
-1.27453e-11
4.40295e-13
1.23019e-11
8.69662e-22
-1.26669e-11
1.29626e-11
3.73562e-11
1.23659e-11
1.55368e-12
-2.77777e-12
1.66665e-12
-1.66697e-12
-4.81482e-12
-1.21259e-22
2.5641e-11
2.44436e-11
-1.27453e-11
4.38521e-13
2.5e-11
1.23187e-11
-1.26664e-11
1.29644e-11
3.73561e-11
1.23653e-11
-1.13005e-13
-2.77837e-13
1.50001e-12
-4.16636e-12
-6.01832e-12
6.9719e-22
1.28208e-11
1.22221e-11
-5.49165e-22
1.27194e-11
2.5e-11
1.23187e-11
-3.20059e-22
1.2654e-11
1.23561e-11
-1.11846e-21
1.55364e-12
1.1111e-12
4.00001e-12
-2.97615e-12
-1.89818e-11
-1.21213e-11
8.72065e-22
-2.66761e-22
7.84536e-23
1.27191e-11
1.23015e-11
-4.63882e-22
-7.46817e-22
1.26545e-11
1.23561e-11
-9.46485e-22
1.55368e-12
1.11116e-12
4.00011e-12
-1.66666e-12
-1.77777e-11
7.57751e-13
1.21797e-11
1.33386e-22
-1.27452e-11
4.39438e-13
1.23018e-11
-8.11809e-22
-2.13377e-22
1.26541e-11
1.23561e-11
8.60431e-22
1.55367e-12
2.22214e-12
3.99988e-12
-1.66695e-12
-4.81482e-12
1.28786e-11
1.2179e-11
-2.22272e-22
-1.2745e-11
4.3855e-13
2.5e-11
-3.62266e-13
-1.2334e-11
-1.08681e-21
1.26439e-11
1.23654e-11
3.22027e-12
1.11115e-12
5.33351e-12
-4.76177e-13
-4.81482e-12
3.03119e-23
1.28206e-11
1.22224e-11
-1.27452e-11
-1.22804e-11
2.53968e-11
-7.24532e-13
-2.46658e-11
-4.93911e-22
1.26435e-11
1.23654e-11
1.55368e-12
-1.3889e-12
4.16665e-12
-4.76178e-13
-4.81482e-12
-9.094e-23
2.56401e-11
2.44436e-11
-2.5491e-11
-2.45623e-11
1.26982e-11
-3.62267e-13
-1.23327e-11
1.26545e-11
2.50004e-11
1.23657e-11
-1.13005e-13
-2.7784e-13
4.16645e-12
-1.78611e-12
-6.01854e-12
1.2126e-22
1.28208e-11
1.22221e-11
-2.54893e-11
-1.18407e-11
1.23018e-11
1.10174e-21
-3.20095e-22
1.26541e-11
3.7644e-11
2.47312e-11
1.55367e-12
-2.77708e-13
2.83349e-12
-2.97583e-12
-6.01829e-12
1.81881e-22
1.28206e-11
1.22223e-11
-2.54902e-11
8.77141e-13
2.46023e-11
7.53928e-22
9.60415e-22
7.90397e-22
2.52873e-11
2.47312e-11
1.55365e-12
-1.38888e-12
2.83336e-12
-1.66696e-12
-4.81499e-12
9.09548e-23
1.28204e-11
1.22221e-11
-2.5491e-11
-1.18423e-11
1.23015e-11
-8.11862e-22
1.06705e-22
1.26549e-11
2.5e-11
1.2365e-11
-1.13005e-13
1.11108e-12
5.33333e-12
-4.75828e-13
-4.81464e-12
0
-2.05227e-22
1.02262e-21
-1.27449e-11
4.38775e-13
1.23017e-11
4.05989e-22
7.47048e-22
1.26542e-11
1.23562e-11
0
1.55364e-12
1.1111e-12
5.33316e-12
-4.76531e-13
-4.81499e-12
-1.21274e-22
5.13039e-23
7.11503e-22
-3.5314e-22
2.54386e-11
2.46032e-11
-1.26817e-11
-1.23335e-11
-4.94054e-22
5.51991e-22
-7.74618e-22
1.55368e-12
-2.77777e-13
4.16666e-12
-4.76181e-13
-1.77782e-11
-1.21217e-11
1.5392e-22
0
-1.27447e-11
4.38293e-13
1.23015e-11
-1.2681e-11
-1.23332e-11
9.88246e-23
1.26438e-11
1.23658e-11
1.55367e-12
-1.66667e-12
1.66688e-12
-1.66667e-12
-1.77774e-11
-1.21207e-11
1.53947e-22
4.44731e-22
-1.2745e-11
-1.22801e-11
2.54066e-22
8.11921e-22
-9.60434e-22
1.26544e-11
2.5e-11
1.23655e-11
1.55362e-12
-1.66665e-12
1.66668e-12
-2.97583e-12
-6.01831e-12
1.28789e-11
2.50002e-11
1.22223e-11
3.92362e-23
4.91545e-22
6.35331e-23
-1.26813e-11
-1.23335e-11
1.26542e-11
1.23562e-11
-8.60713e-23
1.55371e-12
-2.77773e-13
4.16667e-12
-1.7857e-12
-6.01851e-12
1.28787e-11
3.78204e-11
2.44445e-11
-1.27452e-11
-1.22804e-11
4.44708e-22
-2.53632e-11
-3.73335e-11
-1.23458e-11
1.26438e-11
1.23662e-11
1.55365e-12
1.11112e-12
5.33333e-12
-1.78611e-12
-1.89815e-11
-1.21218e-11
1.28208e-11
1.22222e-11
-2.54902e-11
-1.1842e-11
1.23016e-11
-1.2681e-11
-2.49998e-11
3.08903e-13
2.5e-11
1.2365e-11
1.55367e-12
2.22223e-12
3.99986e-12
-2.97618e-12
-1.89814e-11
7.58637e-13
1.21795e-11
-4.00274e-22
-2.54911e-11
-1.18435e-11
2.5e-11
1.23194e-11
-1.06747e-22
1.26542e-11
1.23562e-11
-4.30421e-22
3.22033e-12
2.22231e-12
4.00014e-12
-1.66665e-12
-4.81481e-12
1.28787e-11
2.5e-11
1.22223e-11
-2.54902e-11
-1.18407e-11
2.5e-11
1.23183e-11
4.26971e-22
1.26549e-11
1.23564e-11
-1.80788e-21
3.22033e-12
-2.77875e-13
4.16666e-12
-1.78571e-12
-1.89816e-11
-1.21218e-11
2.5641e-11
2.44436e-11
-1.2745e-11
1.31567e-11
2.46023e-11
-1.74042e-22
1.28099e-21
2.53086e-11
3.73564e-11
1.23653e-11
1.55365e-12
-1.66666e-12
3e-12
-1.78569e-12
-1.89814e-11
7.58632e-13
2.5e-11
1.22226e-11
-1.27452e-11
1.31592e-11
2.46032e-11
-6.38189e-22
-1.26672e-11
1.29615e-11
3.73562e-11
-2.68958e-13
1.55367e-12
-2.77773e-13
4.16667e-12
-4.76185e-13
-4.81482e-12
2.57576e-11
3.71796e-11
1.22223e-11
-2.54902e-11
-1.18422e-11
1.23015e-11
2.90108e-22
-2.53333e-11
-1.20358e-11
2.5e-11
-2.68616e-13
1.55365e-12
1.11112e-12
5.33333e-12
-4.76184e-13
-1.77779e-11
7.57436e-13
3.78205e-11
2.44436e-11
-2.54902e-11
-1.18421e-11
1.23021e-11
-1.26817e-11
-2.5e-11
-1.2346e-11
1.26441e-11
1.23655e-11
1.55367e-12
2.22223e-12
5.33333e-12
-1.78571e-12
-1.89815e-11
-1.21212e-11
2.5641e-11
2.44444e-11
-2.54902e-11
8.77211e-13
2.46023e-11
-1.26811e-11
-1.23337e-11
1.26548e-11
1.23565e-11
-3.44397e-22
3.22033e-12
2.22223e-12
5.33333e-12
-1.7857e-12
-6.01851e-12
1.28789e-11
2.5e-11
1.22222e-11
-2.54902e-11
-1.18422e-11
1.23015e-11
-4.64224e-22
4.27091e-22
1.26542e-11
1.23563e-11
1.37783e-21
3.22033e-12
8.33333e-13
4.16667e-12
-1.78571e-12
-6.01852e-12
2.57576e-11
2.43599e-11
8.45411e-22
-2.54902e-11
-2.45614e-11
-8.26336e-22
-1.26812e-11
-2.50001e-11
3.08642e-13
1.23564e-11
1.20556e-21
3.22033e-12
-1.66666e-12
3e-12
-1.78571e-12
-6.01851e-12
2.57576e-11
2.43581e-11
-4.4485e-23
-1.27451e-11
-1.22806e-11
4.44846e-22
-1.26811e-11
-2.49999e-11
1.2963e-11
2.47127e-11
1.20564e-21
1.55366e-12
-2.77777e-12
3e-12
-4.76186e-13
-1.77778e-11
7.57559e-13
2.5e-11
1.22222e-11
-3.92588e-22
-3.51274e-22
-1.46208e-21
-1.26812e-11
-1.23329e-11
2.53086e-11
2.47126e-11
4.30619e-22
-1.13005e-13
-2.77773e-13
4.16667e-12
-4.76186e-13
-1.77778e-11
7.57593e-13
2.5e-11
-5.55657e-13
-1.22549e-11
1.40537e-22
-8.26377e-22
-2.53623e-11
-2.46667e-11
1.26543e-11
2.5e-11
1.23657e-11
1.55366e-12
1.11111e-12
5.33333e-12
-1.78571e-12
-6.01852e-12
1.28788e-11
1.21795e-11
-1.27778e-11
-1.22549e-11
-4.21606e-22
1.26984e-11
-3.6222e-13
-2.5e-11
3.08648e-13
2.5e-11
1.23656e-11
1.55366e-12
-5.56282e-23
5.33333e-12
-3.09523e-12
-7.22222e-12
2.42742e-22
0
4.00521e-22
1.57066e-22
-1.40535e-22
2.53968e-11
2.46377e-11
-2.53333e-11
6.17296e-13
2.47126e-11
1.72277e-22
-1.13005e-13
-1.66885e-22
5.33333e-12
-3.09523e-12
-7.22222e-12
3.03428e-22
4.10786e-22
8.90056e-23
-1.57066e-22
1.47562e-21
2.53968e-11
2.46377e-11
-2.53333e-11
6.17296e-13
2.47126e-11
8.61384e-22
-1.13005e-13
)
;

boundaryField
{
    wireUpstream
    {
        type            calculated;
        value           nonuniform List<scalar> 
16
(
0
5.33333e-12
-3.09523e-12
-7.22222e-12
0
0
0
-2.48339e-22
0
2.53968e-11
2.46377e-11
-2.53333e-11
6.17296e-13
2.47126e-11
5.63006e-22
-1.13005e-13
)
;
    }
    wireDownstream
    {
        type            calculated;
        value           nonuniform List<scalar> 
16
(
2.22222e-12
5.33335e-12
-4.76245e-13
-1e-11
-4.84844e-12
-4.47866e-22
3.88021e-22
0
2.5439e-11
2.46027e-11
5.05275e-22
0
0
7.99306e-22
0
3.22004e-12
)
;
    }
    wireTopContact
    {
        type            calculated;
        value           nonuniform List<scalar> 
122
(
0
-6.59002e-22
-6.5889e-22
0
0
0
0
6.59123e-22
6.59144e-22
0
6.59186e-22
0
1.31846e-21
0
0
0
0
0
0
0
0
0
0
0
0
0
0
-6.59408e-22
0
6.59451e-22
0
0
-6.59391e-22
0
-2.49998e-11
-2.50002e-11
0
0
0
0
0
0
0
0
-2.4999e-11
-2.50013e-11
-6.60356e-22
-6.6081e-22
6.61312e-22
0
0
0
6.64905e-22
0
0
-1.33984e-21
0
0
0
0
0
0
1.34733e-21
-6.73609e-22
0
0
6.73819e-22
0
-6.74744e-22
-2.50046e-11
-2.49965e-11
0
0
0
-2.50013e-11
-2.49989e-11
0
0
0
0
0
6.80505e-22
0
0
-1.36149e-21
-6.80985e-22
0
-6.81043e-22
0
6.81402e-22
0
0
-1.3632e-21
6.81571e-22
-6.81689e-22
0
0
0
0
0
0
0
0
0
0
0
0
-6.82443e-22
0
-2.50001e-11
-2.49999e-11
0
0
0
0
0
0
6.82768e-22
0
0
0
-6.53463e-22
)
;
    }
    front
    {
        type            wedge;
    }
    back
    {
        type            wedge;
    }
}


// ************************************************************************* //
