/*--------------------------------*- C++ -*----------------------------------*\
| =========                 |                                                 |
| \\      /  F ield         | foam-extend: Open Source CFD                    |
|  \\    /   O peration     | Version:     4.1-20200408                       |
|   \\  /    A nd           | Web:         http://www.foam-extend.org         |
|    \\/     M anipulation  |                                                 |
\*---------------------------------------------------------------------------*/
FoamFile
{
    version     2.0;
    format      ascii;
    class       volScalarField;
    location    "0.0600000";
    object      epsilonTrueEq;
}
// * * * * * * * * * * * * * * * * * * * * * * * * * * * * * * * * * * * * * //

dimensions      [0 0 0 0 0 0 0];

internalField   nonuniform List<scalar> 
1952
(
0.0576194
0.0576962
0.0577969
0.0579146
0.0580327
0.0581327
0.0581976
0.0581987
0.0581143
0.0579186
0.0575946
0.0571307
0.0565793
0.0560067
0.0556938
0.0575846
0.0576709
0.0577478
0.0578477
0.057966
0.0580828
0.0581836
0.0582472
0.0582487
0.0581634
0.0579688
0.0576458
0.0571845
0.0566378
0.0560725
0.0557691
0.0576361
0.0577272
0.0578041
0.057904
0.0580223
0.0581391
0.0582398
0.0583036
0.0583056
0.0582209
0.0580269
0.057705
0.0572445
0.0566987
0.0561327
0.0558239
0.0576925
0.0577858
0.0578629
0.0579628
0.0580812
0.0581982
0.0582991
0.0583633
0.0583657
0.0582816
0.0580879
0.0577669
0.0573064
0.0567609
0.0561943
0.0558833
0.0577511
0.057847
0.0579241
0.0580242
0.0581427
0.05826
0.0583611
0.0584258
0.0584284
0.0583449
0.0581514
0.0578308
0.05737
0.056824
0.0562556
0.0559413
0.0578123
0.0579101
0.0579874
0.0580876
0.0582063
0.0583238
0.0584252
0.0584903
0.0584932
0.05841
0.0582164
0.0578961
0.0574342
0.0568873
0.0563173
0.0560006
0.0578754
0.0579752
0.0580526
0.0581529
0.0582719
0.0583896
0.0584911
0.0585565
0.0585592
0.0584762
0.0582823
0.0579619
0.057499
0.0569506
0.0563789
0.0560602
0.0579405
0.0580418
0.0581193
0.0582197
0.0583387
0.0584566
0.0585581
0.0586237
0.0586262
0.0585429
0.0583485
0.0580277
0.057563
0.0570142
0.0564412
0.0561209
0.0580071
0.0581092
0.0581867
0.0582871
0.0584062
0.058524
0.0586256
0.0586911
0.0586936
0.0586102
0.0584153
0.0580941
0.057628
0.0570776
0.0565036
0.0561822
0.0580745
0.0581777
0.0582552
0.0583555
0.0584746
0.0585923
0.0586938
0.0587592
0.0587612
0.0586773
0.0584817
0.0581601
0.0576931
0.0571415
0.0565665
0.0562443
0.0581429
0.0582458
0.0583232
0.0584236
0.0585426
0.0586603
0.0587617
0.0588269
0.0588288
0.0587447
0.0585485
0.0582264
0.0577586
0.0572054
0.0566296
0.0563068
0.058211
0.0583144
0.0583918
0.0584922
0.0586111
0.0587286
0.0588298
0.0588948
0.0588963
0.0588119
0.0586151
0.0582926
0.0578248
0.0572701
0.0566931
0.0563697
0.0582796
0.058382
0.0584595
0.0585599
0.0586788
0.0587963
0.0588975
0.0589622
0.058964
0.0588794
0.0586821
0.0583591
0.0578903
0.0573348
0.0567571
0.056433
0.0583472
0.0584499
0.0585274
0.0586279
0.0587468
0.0588644
0.0589656
0.05903
0.0590311
0.0589464
0.0587488
0.0584253
0.0579562
0.0573996
0.0568214
0.0564967
0.0584151
0.0585167
0.0585943
0.0586949
0.0588139
0.0589317
0.0590329
0.0590976
0.0590984
0.0590133
0.0588153
0.0584913
0.0580217
0.0574648
0.0568863
0.0565612
0.0584819
0.0585834
0.0586611
0.0587619
0.058881
0.0589989
0.0591001
0.0591648
0.0591653
0.0590801
0.0588818
0.0585575
0.0580874
0.0575298
0.0569512
0.0566261
0.0585486
0.0586495
0.0587273
0.0588282
0.0589475
0.0590656
0.0591669
0.0592323
0.0592318
0.0591462
0.0589478
0.0586232
0.0581533
0.0575955
0.0570167
0.0566913
0.0586146
0.0587149
0.0587929
0.0588938
0.0590133
0.0591315
0.0592329
0.0592989
0.0592983
0.0592129
0.0590143
0.0586897
0.0582191
0.057661
0.0570825
0.0567569
0.05868
0.05878
0.0588581
0.0589593
0.059079
0.0591975
0.059299
0.0593651
0.0593642
0.059279
0.0590803
0.0587557
0.0582852
0.0577269
0.0571483
0.0568227
0.0587451
0.0588441
0.0589223
0.0590237
0.0591436
0.0592624
0.0593641
0.0594308
0.05943
0.0593452
0.0591466
0.0588221
0.0583517
0.0577935
0.0572146
0.0568887
0.0588091
0.0589075
0.058986
0.0590876
0.0592078
0.059327
0.059429
0.0594963
0.0594956
0.0594116
0.0592133
0.058889
0.0584181
0.0578596
0.057281
0.0569552
0.0588725
0.05897
0.0590487
0.0591508
0.0592713
0.0593912
0.0594937
0.0595611
0.0595606
0.0594774
0.0592794
0.0589553
0.0584847
0.0579262
0.0573478
0.0570223
0.0589348
0.0590313
0.0591102
0.0592128
0.0593336
0.0594542
0.0595572
0.0596253
0.0596255
0.0595428
0.0593454
0.0590217
0.0585516
0.0579934
0.0574155
0.0570901
0.058996
0.0590913
0.0591705
0.0592736
0.0593948
0.0595162
0.0596197
0.0596889
0.0596901
0.059608
0.0594114
0.0590885
0.0586188
0.058061
0.0574836
0.0571586
0.059056
0.0591503
0.0592298
0.0593334
0.0594551
0.0595774
0.0596817
0.0597518
0.0597539
0.0596729
0.0594772
0.0591551
0.0586865
0.0581293
0.0575524
0.057228
0.0591148
0.0592077
0.0592875
0.0593918
0.0595141
0.0596374
0.0597426
0.059814
0.0598175
0.0597376
0.0595432
0.0592222
0.0587544
0.058198
0.057622
0.0572982
0.0591721
0.0592642
0.0593444
0.0594494
0.0595723
0.0596967
0.0598029
0.0598756
0.0598804
0.0598019
0.059609
0.0592892
0.0588227
0.0582672
0.0576924
0.0573696
0.0592284
0.0593195
0.0594001
0.0595059
0.0596295
0.0597552
0.0598624
0.0599364
0.0599428
0.0598657
0.0596746
0.0593562
0.0588913
0.0583372
0.0577638
0.0574423
0.0592836
0.0593744
0.0594553
0.0595619
0.059686
0.0598129
0.0599211
0.0599967
0.0600046
0.0599292
0.0597401
0.0594234
0.0589604
0.0584078
0.0578364
0.0575166
0.0593383
0.0594292
0.0595102
0.0596176
0.0597421
0.0598702
0.0599793
0.0600564
0.060066
0.0599924
0.0598054
0.0594906
0.0590299
0.0584792
0.0579104
0.0575929
0.059393
0.0594848
0.0595658
0.0596737
0.0597984
0.0599275
0.0600373
0.0601159
0.0601271
0.0600552
0.0598706
0.0595579
0.0591001
0.0585516
0.0579859
0.0576713
0.0594484
0.0595421
0.0596228
0.0597311
0.0598555
0.0599853
0.0600955
0.0601752
0.0601879
0.0601177
0.0599357
0.0596253
0.0591709
0.0586254
0.0580633
0.0577522
0.0595057
0.0596024
0.0596825
0.0597908
0.0599144
0.0600445
0.0601546
0.0602352
0.0602491
0.0601805
0.0600011
0.0596931
0.0592424
0.0587001
0.0581426
0.0578356
0.0595661
0.0596679
0.0597469
0.0598547
0.0599769
0.0601065
0.0602156
0.0602962
0.0603107
0.0602432
0.0600665
0.0597609
0.0593145
0.058776
0.0582238
0.0579219
0.0596317
0.0597405
0.0598178
0.0599245
0.0600442
0.0601725
0.0602796
0.0603595
0.0603738
0.0603067
0.0601322
0.0598289
0.0593872
0.0588531
0.0583069
0.0580114
0.0597047
0.0598236
0.0598984
0.0600031
0.060119
0.0602446
0.0603482
0.0604258
0.0604387
0.0603711
0.0601984
0.0598972
0.0594603
0.0589311
0.0583919
0.0581038
0.0597884
0.0599208
0.0599921
0.0600936
0.0602041
0.0603253
0.0604235
0.0604971
0.0605068
0.0604372
0.0602652
0.0599653
0.0595332
0.0590093
0.058479
0.0582
0.0598865
0.0600368
0.0601034
0.0602002
0.0603033
0.0604178
0.0605081
0.0605749
0.060579
0.0605054
0.0603325
0.0600329
0.0596059
0.0590875
0.0585676
0.0583001
0.0600037
0.0601766
0.0602371
0.0603274
0.0604206
0.0605256
0.0606048
0.0606621
0.0606572
0.0605769
0.0604009
0.0601
0.0596784
0.0591662
0.0586578
0.0584039
0.0601453
0.0603467
0.0603994
0.0604811
0.0605614
0.0606537
0.0607179
0.0607622
0.0607447
0.0606541
0.0604721
0.0601676
0.0597497
0.0592435
0.0587487
0.0585106
0.0603176
0.0605544
0.0605976
0.0606684
0.0607328
0.0608087
0.0608538
0.0608799
0.0608447
0.0607392
0.0605468
0.0602352
0.059819
0.0593178
0.0588388
0.0586202
0.0605281
0.0608075
0.0608394
0.0608968
0.060942
0.0609975
0.0610184
0.0610209
0.0609619
0.0608357
0.060627
0.0603035
0.0598865
0.0593887
0.0589266
0.0587311
0.0607846
0.061114
0.0611329
0.0611745
0.061197
0.0612277
0.0612193
0.0611931
0.0611036
0.0609497
0.0607177
0.0603755
0.0599522
0.0594544
0.0590104
0.0588414
0.0610951
0.0614825
0.061487
0.0615106
0.0615076
0.0615097
0.0614669
0.0614056
0.0612782
0.0610891
0.0608244
0.0604551
0.0600171
0.0595131
0.0590871
0.0589479
0.0614681
0.0619202
0.0619092
0.0619132
0.0618823
0.0618527
0.0617713
0.0616692
0.0614964
0.0612639
0.060956
0.0605482
0.0600847
0.0595644
0.0591514
0.0590457
0.0619106
0.0624315
0.0624047
0.0623881
0.0623283
0.062265
0.0621424
0.0619969
0.0617734
0.0614907
0.0611291
0.0606704
0.0601643
0.0596092
0.0591941
0.0591241
0.0624269
0.0630191
0.0629769
0.0629403
0.0628521
0.0627552
0.0625911
0.0624007
0.0621244
0.061789
0.0613677
0.0608506
0.0602893
0.0596802
0.0592369
0.0591814
0.0630196
0.0636794
0.063623
0.0635675
0.063453
0.0633247
0.0631219
0.0628894
0.0625626
0.0621781
0.061699
0.0611282
0.0605147
0.0598534
0.0593703
0.0592786
0.0636844
0.0644039
0.0643351
0.0642631
0.0641256
0.0639693
0.063732
0.0634619
0.0630893
0.0626615
0.0621288
0.0615129
0.0608537
0.0601477
0.0596253
0.05946
0.0644131
0.0651771
0.0650981
0.0650123
0.064856
0.0646759
0.0644094
0.0641061
0.0636916
0.0632236
0.0626353
0.0619712
0.0612521
0.0604779
0.0598872
0.0596104
0.0651896
0.0659766
0.0658899
0.0657933
0.0656225
0.0654231
0.065133
0.0648018
0.0643504
0.0638438
0.0631954
0.0624757
0.0616705
0.0607983
0.0601108
0.0597036
0.0659918
0.0667743
0.0666823
0.0665781
0.0663976
0.0661838
0.0658764
0.0655222
0.06504
0.0644972
0.0637864
0.0630045
0.062085
0.0610966
0.0602854
0.0596889
0.0667913
0.0675362
0.067441
0.0673322
0.0671464
0.0669229
0.0666047
0.0662329
0.0657278
0.0651529
0.0643835
0.0635346
0.0624816
0.061375
0.0603989
0.0594938
0.0675543
0.0682242
0.0681271
0.0680156
0.0678273
0.0675968
0.0672718
0.0668873
0.0663688
0.0657697
0.0649549
0.0640437
0.0628684
0.0616467
0.0603824
0.0590019
0.0682428
0.0687933
0.0686947
0.068581
0.0683916
0.0681554
0.0678275
0.0674392
0.0669243
0.0663206
0.0654891
0.0645306
0.0632351
0.0618283
0.0600615
0.0580503
0.0688123
0.0692069
0.0691101
0.0690004
0.0688195
0.0685904
0.0682728
0.0678794
0.067354
0.0667243
0.0658587
0.0648244
0.0633556
0.0616432
0.0592713
0.0565932
0.0692249
0.0694668
0.0693662
0.0692514
0.0690673
0.0688297
0.0685009
0.068062
0.0674615
0.0667218
0.0657316
0.0645246
0.0628268
0.0607917
0.0579366
0.0547275
0.069485
0.0694531
0.0693233
0.0691614
0.0689191
0.0686014
0.0681796
0.0676269
0.0668978
0.0659933
0.0648243
0.0633927
0.0614665
0.0591595
0.0560105
0.0524972
0.0694804
0.0688153
0.0686321
0.0683865
0.0680407
0.0675947
0.0670308
0.0663297
0.065456
0.0643861
0.0630497
0.0614153
0.0593073
0.0567837
0.0534973
0.0498971
0.0688615
0.0672106
0.0669708
0.066638
0.0661866
0.0656195
0.0649284
0.0640984
0.0631032
0.0619032
0.0604454
0.0586654
0.0564504
0.0538036
0.0505432
0.0470711
0.0672789
0.0644312
0.0641562
0.0637677
0.0632502
0.0626103
0.0618448
0.0609419
0.059882
0.0586158
0.0571064
0.0552623
0.0530338
0.0503804
0.0472997
0.0441365
0.0645151
0.0604337
0.060161
0.0597708
0.0592523
0.0586124
0.0578482
0.0569484
0.0558966
0.0546394
0.0531536
0.0513314
0.0491808
0.0466313
0.043851
0.0411308
0.0605191
0.0553701
0.0551362
0.0547968
0.0543401
0.05377
0.0530789
0.0522548
0.0512812
0.050104
0.0487106
0.0469891
0.0449957
0.0426457
0.0402605
0.0380852
0.0554419
0.049544
0.0493696
0.049112
0.0487555
0.0482993
0.0477291
0.047032
0.0461877
0.0451451
0.0438975
0.0423409
0.0405685
0.0384983
0.036585
0.0350326
0.0495928
0.043341
0.0432236
0.0430476
0.0427939
0.0424588
0.0420221
0.0414714
0.0407803
0.0399029
0.0388341
0.0374884
0.0359837
0.0342588
0.0328774
0.0320023
0.0433665
0.0371481
0.0370653
0.036943
0.036762
0.0365201
0.0361944
0.0357758
0.0352314
0.0345232
0.0336443
0.0325364
0.0313295
0.0300007
0.0291937
0.0290234
0.0371587
0.0312862
0.0312071
0.031097
0.0309406
0.030742
0.0304792
0.0301509
0.0297185
0.0291573
0.0284574
0.0275952
0.0267003
0.0258032
0.0255909
0.0261182
0.0312945
0.0259671
0.0258661
0.0257321
0.0255548
0.0253472
0.0250911
0.0247957
0.0244201
0.02396
0.0234071
0.0227794
0.0221958
0.0217508
0.0221286
0.0233077
0.0259838
0.0212828
0.0211509
0.0209767
0.0207531
0.0205012
0.0202067
0.0198904
0.0195111
0.0190921
0.0186347
0.0182083
0.0179175
0.0179242
0.0188557
0.0206011
0.0213121
0.0172261
0.0170738
0.0168684
0.0166015
0.0162986
0.0159482
0.0155808
0.0151555
0.0147233
0.0143
0.0140161
0.0139713
0.0143907
0.0157901
0.0179795
0.0172646
0.0137378
0.0135877
0.0133787
0.0130959
0.0127632
0.0123688
0.0119493
0.0114669
0.0109997
0.0105724
0.0103657
0.0104853
0.0112102
0.0129147
0.0153818
0.0137769
0.0107235
0.010594
0.0104079
0.010142
0.00981407
0.00940584
0.00895738
0.00844606
0.00799854
0.00764654
0.00751888
0.00768868
0.00850009
0.0102352
0.012743
0.0107567
0.00805693
0.00796264
0.00782674
0.0076254
0.00737201
0.00704543
0.00668482
0.00629164
0.00600544
0.00582642
0.00579844
0.00595855
0.00659232
0.00793093
0.0101525
0.00808104
0.00604101
0.00597952
0.00589528
0.00577335
0.00562908
0.00544921
0.00526817
0.00508631
0.0049743
0.00490696
0.0049774
0.00518586
0.0056106
0.00637509
0.00796329
0.00605756
0.00487905
0.00482698
0.00475761
0.0046632
0.004561
0.00444595
0.00435068
0.0042719
0.00425375
0.00427565
0.00443876
0.00471388
0.00512972
0.00562721
0.00653212
0.0048941
0.00401221
0.00396875
0.00391068
0.00383539
0.00375823
0.00368002
0.00363051
0.00361203
0.00366499
0.00377343
0.00399755
0.00430648
0.00474894
0.00521617
0.00580999
0.00402553
0.00324544
0.00321781
0.00318112
0.00313903
0.00310251
0.00307786
0.00308603
0.00313207
0.00324053
0.00340463
0.00366071
0.00398371
0.00440105
0.0048542
0.00539469
0.00325486
0.00265282
0.00263946
0.00262095
0.00260722
0.00260327
0.00262091
0.00267161
0.00276482
0.00291208
0.003113
0.00338173
0.00370433
0.00409411
0.00452046
0.00501114
0.00265886
0.00217373
0.00217576
0.0021766
0.00219197
0.00221986
0.00227648
0.00236312
0.00249251
0.00266403
0.00288312
0.00315016
0.0034608
0.00381669
0.00420559
0.00463873
0.00217567
0.00180695
0.00182299
0.00184083
0.00188113
0.00193454
0.00202081
0.00213203
0.00228405
0.00246716
0.00269153
0.00294824
0.00324026
0.00356185
0.00391029
0.0042895
0.00180489
0.00152589
0.0015546
0.0015874
0.00164867
0.00172213
0.00183005
0.00195699
0.00212131
0.00230686
0.00252747
0.00276859
0.0030381
0.00332562
0.00363354
0.00396218
0.00151989
0.00131714
0.00135623
0.00140086
0.00147777
0.00156493
0.00168622
0.00182084
0.001989
0.00217052
0.0023817
0.0026047
0.00285036
0.00310577
0.00337574
0.00365938
0.00130763
0.00116434
0.00121122
0.0012644
0.00135173
0.00144701
0.00157496
0.00171134
0.0018775
0.00205097
0.00224946
0.00245343
0.00267529
0.00290097
0.00313633
0.00338035
0.00115197
0.00105547
0.00110728
0.00116567
0.00125851
0.00135712
0.00148635
0.00162016
0.00178034
0.00194337
0.00212752
0.00231265
0.00251172
0.00271046
0.00291498
0.00312471
0.00104107
0.000979727
0.00103378
0.00109437
0.00118862
0.00128689
0.00141349
0.00154187
0.00169357
0.00184496
0.00201418
0.00218124
0.002359
0.00253358
0.00271093
0.0028912
0.000964197
0.000928684
0.000982663
0.001043
0.00113544
0.00123066
0.0013519
0.00147299
0.00161475
0.00175403
0.0019084
0.00205847
0.00221664
0.00236972
0.00252333
0.00267836
0.000912853
0.000895489
0.000947612
0.00100582
0.00109417
0.00118447
0.00129856
0.00141129
0.00154235
0.00166955
0.00180953
0.00194386
0.00208419
0.00221829
0.00235129
0.00248489
0.000880031
0.000874812
0.00092385
0.000978665
0.00106138
0.00114558
0.00125145
0.00135526
0.00147535
0.00159079
0.00171708
0.00183696
0.00196116
0.00207853
0.00219366
0.00230898
0.00086021
0.00086248
0.000907697
0.000958341
0.00103454
0.00111199
0.00120909
0.00130382
0.00141303
0.00151721
0.00163063
0.0017373
0.00184701
0.0019497
0.00204944
0.0021493
0.00084903
0.000855291
0.000896344
0.00094244
0.00101173
0.00108216
0.00117036
0.00125612
0.00135476
0.00144831
0.00154973
0.00164441
0.00174111
0.00183091
0.00191734
0.00200409
0.000843136
0.000850812
0.000887644
0.000929111
0.00099146
0.00105491
0.00113435
0.00121146
0.00130001
0.00138363
0.00147396
0.00155779
0.00164286
0.00172136
0.00179632
0.00187198
0.000839985
0.000847238
0.000879983
0.000916941
0.00097257
0.00102929
0.00110033
0.00116924
0.0012483
0.00132272
0.00140289
0.00147693
0.00155163
0.00162024
0.00168534
0.00175167
0.000837695
0.000843266
0.000872175
0.000904875
0.000954168
0.00100454
0.00106769
0.00112895
0.00119919
0.00126518
0.00133608
0.00140134
0.00146682
0.0015268
0.0015834
0.00164186
0.00083492
0.000837997
0.000863382
0.000892152
0.00093559
0.000980087
0.00103593
0.00109014
0.00115229
0.00121061
0.00127312
0.00133055
0.00138786
0.00144033
0.00148965
0.00154149
0.00083074
0.000830847
0.00085305
0.00087825
0.000916361
0.000955502
0.00100467
0.00105247
0.00110724
0.00115865
0.00121361
0.00126409
0.0013142
0.00136014
0.00140321
0.00144947
0.000824563
0.000821482
0.000840842
0.000862845
0.000896167
0.000930483
0.000973623
0.00101565
0.00106377
0.00110899
0.00115721
0.00120154
0.00124532
0.00128561
0.00132333
0.00136492
0.000816056
0.000809754
0.000826599
0.000845767
0.000874826
0.000904842
0.000942587
0.000979453
0.00102164
0.00106136
0.0011036
0.00114252
0.00118076
0.00121618
0.00124933
0.00128701
0.000805076
0.000795654
0.000810291
0.000826967
0.00085226
0.000878477
0.000911435
0.000943738
0.000980646
0.00101552
0.00105248
0.00108669
0.00112009
0.00115132
0.00118058
0.00121498
0.000791625
0.000779277
0.000791986
0.000806486
0.000828478
0.000851364
0.000880103
0.0009084
0.000940656
0.000971283
0.00100361
0.00103372
0.00106294
0.00109059
0.00111653
0.00114821
0.000775806
0.000760785
0.000771819
0.000784434
0.000803545
0.000823533
0.000848577
0.000873382
0.000901564
0.000928499
0.000956782
0.000983364
0.00100897
0.00103356
0.00105671
0.00108612
0.000757791
0.00074039
0.000749974
0.000760962
0.000777573
0.000795053
0.000816881
0.000838662
0.000863295
0.000887044
0.000911823
0.000935377
0.000957875
0.000979895
0.00100068
0.00102821
0.000737802
0.00071833
0.000726664
0.000736256
0.000750704
0.000766028
0.000785068
0.000804247
0.000825805
0.000846823
0.000868581
0.000889562
0.000909414
0.000929275
0.000948085
0.00097409
0.000716088
0.000694863
0.00070212
0.000710519
0.000723102
0.000736579
0.00075321
0.000770165
0.000789071
0.000807763
0.000826932
0.000845741
0.00086335
0.000881414
0.000898578
0.00092333
0.000692913
0.000670254
0.000676585
0.000683966
0.000694943
0.000706842
0.000721399
0.000736458
0.000753086
0.000769811
0.000786773
0.000803768
0.000819494
0.000836087
0.000851903
0.00087567
0.000668551
0.000644772
0.000650305
0.000656817
0.00066641
0.000676965
0.000689734
0.000703184
0.000717858
0.000732928
0.000748018
0.000763511
0.000777669
0.000793074
0.000807795
0.000830782
0.000643278
0.000618688
0.00062353
0.000629298
0.000637694
0.000647099
0.000658326
0.000670409
0.000683405
0.000697089
0.000710595
0.000724861
0.000737732
0.000752206
0.00076607
0.000788481
0.000617372
0.000592274
0.000596515
0.00060164
0.000608993
0.000617407
0.000627293
0.000638208
0.000649758
0.000662279
0.000674445
0.000687717
0.000699543
0.000713309
0.000726529
0.000748547
0.00059111
0.000565806
0.000569515
0.000574076
0.00058051
0.000588057
0.000596765
0.000606667
0.000616956
0.000628492
0.000639518
0.000651987
0.000662974
0.000676222
0.000688986
0.000710777
0.000564774
0.000539561
0.000542795
0.000546849
0.00055246
0.000559228
0.000566881
0.000575884
0.000585052
0.000595737
0.000605778
0.000617598
0.000627919
0.00064082
0.000653315
0.000675059
0.000538647
0.00051383
0.000516628
0.000520212
0.000525069
0.000531115
0.000537801
0.000545973
0.00055412
0.000564038
0.000573203
0.000584482
0.000594276
0.000606968
0.000619365
0.000641225
0.000513026
0.000488911
0.000491302
0.000494435
0.000498585
0.000503932
0.000509705
0.000517073
0.000524253
0.000533439
0.000541792
0.000552592
0.00056196
0.000574557
0.000587027
0.000609183
0.000488211
0.000465115
0.000467118
0.000469801
0.000473272
0.000477917
0.000482802
0.000489349
0.000495576
0.000504009
0.000511562
0.000521891
0.000530888
0.000543467
0.000556172
0.000578802
0.000464519
0.000442764
0.000444391
0.000446615
0.000449423
0.000453336
0.000457338
0.000463007
0.000468258
0.00047586
0.000482571
0.000492368
0.000500993
0.000513581
0.00052667
0.000549959
0.000442274
0.000422188
0.00042345
0.000425198
0.000427353
0.00043049
0.000433598
0.000438299
0.000442524
0.000449154
0.000454928
0.000464049
0.000472227
0.000484781
0.000498381
0.000522523
0.000421808
0.000403715
0.000404626
0.000405883
0.000407399
0.000409711
0.000411917
0.000415537
0.00041867
0.000424134
0.000428823
0.000437028
0.000444589
0.000456962
0.000471141
0.000496307
0.000403449
0.000387667
0.000388247
0.000389005
0.000389913
0.000391362
0.000392676
0.000395103
0.000397086
0.00040115
0.00040457
0.00041151
0.00041817
0.000430078
0.000444804
0.000471079
0.000387514
0.000374336
0.00037462
0.00037489
0.000375244
0.000375822
0.000376294
0.000377449
0.000378264
0.000380686
0.000382646
0.000387855
0.000393181
0.000404123
0.000419163
0.000446527
0.000374295
0.000363965
0.000364
0.000363817
0.000363704
0.000363453
0.000363189
0.000363066
0.000362779
0.000363383
0.000363744
0.000366663
0.000370045
0.000379101
0.000393713
0.000422052
0.000364025
0.000356683
0.000356528
0.000355953
0.000355491
0.000354507
0.000353685
0.000352388
0.000351203
0.00034999
0.000348831
0.000349017
0.000349895
0.000355666
0.000368231
0.00039684
0.00035683
0.000352505
0.000352235
0.000351353
0.000350698
0.000349134
0.000348012
0.00034577
0.000344086
0.000341358
0.00033922
0.000336851
0.000335519
0.000337074
0.000345707
0.000371876
0.000352718
0.000352533
0.000352209
0.000351104
0.00035038
0.000348389
0.000347178
0.000344242
0.000342404
0.000338565
0.000336024
0.000331706
0.000328944
0.000326311
0.000329031
0.000345572
0.000352794
0.000354148
0.000353811
0.000352619
0.00035189
0.000349729
0.000348517
0.000345297
0.000343442
0.00033913
0.000336466
0.000331276
0.000327906
0.000323154
0.000322571
0.000330847
0.000354427
)
;

boundaryField
{
    wireUpstream
    {
        type            calculated;
        value           nonuniform List<scalar> 
16
(
0.000356129
0.000355812
0.000354548
0.000353884
0.00035157
0.000350471
0.000346978
0.000345263
0.00034047
0.00033787
0.000331753
0.000327963
0.000321113
0.000317471
0.00031502
0.00035642
)
;
    }
    wireDownstream
    {
        type            calculated;
        value           nonuniform List<scalar> 
16
(
0.0576205
0.0576969
0.0577983
0.0579153
0.0580347
0.0581338
0.0582001
0.0582006
0.0581173
0.057921
0.0575972
0.0571319
0.0565779
0.0559984
0.05567
0.0575855
)
;
    }
    wireTopContact
    {
        type            calculated;
        value           nonuniform List<scalar> 
122
(
0.0557293
0.055784
0.0558433
0.0559012
0.0559605
0.05602
0.0560807
0.0561419
0.056204
0.0562665
0.0563293
0.0563926
0.0564563
0.0565208
0.0565856
0.0566509
0.0567164
0.0567822
0.0568482
0.0569147
0.0569818
0.0570496
0.0571181
0.0571874
0.0572576
0.0573289
0.0574016
0.0574759
0.0575521
0.0576305
0.0577113
0.0577946
0.0578809
0.0579703
0.0580628
0.0581591
0.0582593
0.0583633
0.0584704
0.0585806
0.0586925
0.0588042
0.0589125
0.0590132
0.0590966
0.0591582
0.0592581
0.0594526
0.0596087
0.0597079
0.0596972
0.0594994
0.0589977
0.0580325
0.0565599
0.0546784
0.0524322
0.0498045
0.0469499
0.0439907
0.0409642
0.0379036
0.0348437
0.0318145
0.0288463
0.0259605
0.0231768
0.0205025
0.0179173
0.0153576
0.0127515
0.0101819
0.0079924
0.00653611
0.00580767
0.00539784
0.00501541
0.00464249
0.00429273
0.0039649
0.00366178
0.00338248
0.00312667
0.00289305
0.00268011
0.00248658
0.00231057
0.00215083
0.00200551
0.00187331
0.00175289
0.00164294
0.00154245
0.00145031
0.00136563
0.00128759
0.00121543
0.00114854
0.00108634
0.00102832
0.000974095
0.000923228
0.000875474
0.000830488
0.000788096
0.000748071
0.000710204
0.000674398
0.000640472
0.000608345
0.000577887
0.000548981
0.00052151
0.000495303
0.000470148
0.000445763
0.000421679
0.000397352
0.000373877
0.00034907
0.000334457
0.0556517
)
;
    }
    front
    {
        type            wedge;
    }
    back
    {
        type            wedge;
    }
}


// ************************************************************************* //
