/*--------------------------------*- C++ -*----------------------------------*\
| =========                 |                                                 |
| \\      /  F ield         | foam-extend: Open Source CFD                    |
|  \\    /   O peration     | Version:     4.1-20200408                       |
|   \\  /    A nd           | Web:         http://www.foam-extend.org         |
|    \\/     M anipulation  |                                                 |
\*---------------------------------------------------------------------------*/
FoamFile
{
    version     2.0;
    format      ascii;
    class       pointVectorField;
    location    "0.0600000";
    object      pointDU;
}
// * * * * * * * * * * * * * * * * * * * * * * * * * * * * * * * * * * * * * //

dimensions      [0 1 0 0 0 0 0];

internalField   nonuniform List<vector> 
4059
(
(0 7.5394e-18 -1.96999e-16)
(0 -7.02947e-15 2.9493e-16)
(0 -2.2051e-08 9.62769e-10)
(0 7.52682e-18 -1.9666e-16)
(0 -7.02947e-15 -5.04042e-16)
(0 -2.2051e-08 -9.62771e-10)
(0 1.4201e-14 -6.32014e-16)
(0 5.27113e-15 -2.42125e-16)
(0 2.96978e-15 -1.41647e-16)
(0 1.73631e-15 -8.77919e-17)
(0 9.38606e-16 -5.29638e-17)
(0 3.18826e-16 -2.59038e-17)
(0 -1.64381e-16 -4.80572e-18)
(0 -5.44474e-16 1.179e-17)
(0 -8.69093e-16 2.59618e-17)
(0 -1.04499e-15 3.36414e-17)
(0 -1.21614e-15 4.11155e-17)
(0 -1.152e-15 3.83148e-17)
(0 -1.14667e-15 3.80809e-17)
(0 -8.16545e-16 2.36677e-17)
(0 -7.50133e-16 2.07686e-17)
(0 -2.07187e-08 9.04597e-10)
(0 -1.94004e-08 8.4704e-10)
(0 -1.80917e-08 7.899e-10)
(0 -1.67764e-08 7.32473e-10)
(0 -1.5435e-08 6.73905e-10)
(0 -1.40769e-08 6.14611e-10)
(0 -1.27063e-08 5.54768e-10)
(0 -1.13256e-08 4.94486e-10)
(0 -9.95155e-09 4.34494e-10)
(0 -8.56126e-09 3.73793e-10)
(0 -7.1576e-09 3.12507e-10)
(0 -5.74224e-09 2.50711e-10)
(0 -4.31728e-09 1.88497e-10)
(0 -2.88299e-09 1.25874e-10)
(0 -1.44331e-09 6.30163e-11)
(0 1.4201e-14 4.22904e-16)
(0 5.27113e-15 3.30145e-17)
(0 2.96978e-15 -6.74645e-17)
(0 1.73631e-15 -1.21319e-16)
(0 9.38606e-16 -1.56148e-16)
(0 3.18826e-16 -1.83209e-16)
(0 -1.64381e-16 -2.04305e-16)
(0 -5.44474e-16 -2.209e-16)
(0 -8.69093e-16 -2.35075e-16)
(0 -1.04499e-15 -2.42754e-16)
(0 -1.21614e-15 -2.50226e-16)
(0 -1.152e-15 -2.47426e-16)
(0 -1.14667e-15 -2.47194e-16)
(0 -8.16545e-16 -2.3278e-16)
(0 -7.50133e-16 -2.2988e-16)
(0 -2.07187e-08 -9.046e-10)
(0 -1.94004e-08 -8.47043e-10)
(0 -1.80917e-08 -7.89902e-10)
(0 -1.67764e-08 -7.32475e-10)
(0 -1.5435e-08 -6.73907e-10)
(0 -1.40769e-08 -6.14613e-10)
(0 -1.27063e-08 -5.54769e-10)
(0 -1.13256e-08 -4.94487e-10)
(0 -9.95155e-09 -4.34495e-10)
(0 -8.56126e-09 -3.73794e-10)
(0 -7.1576e-09 -3.12508e-10)
(0 -5.74224e-09 -2.50712e-10)
(0 -4.31728e-09 -1.88497e-10)
(0 -2.88299e-09 -1.25875e-10)
(0 -1.44331e-09 -6.30167e-11)
(4.99996e-05 -5.27325e-10 2.30235e-11)
(4.99996e-05 -5.27325e-10 -2.30238e-11)
(4.99996e-05 -2.66457e-10 -1.1634e-11)
(4.99996e-05 -2.66457e-10 1.16337e-11)
(4.99996e-05 -7.8855e-10 3.44288e-11)
(4.99996e-05 -7.8855e-10 -3.44291e-11)
(4.99997e-05 -1.03899e-09 4.53633e-11)
(4.99997e-05 -1.03899e-09 -4.53636e-11)
(4.99998e-05 -1.28241e-09 5.59914e-11)
(4.99998e-05 -1.28241e-09 -5.59917e-11)
(4.99999e-05 -1.5094e-09 6.59019e-11)
(4.99999e-05 -1.5094e-09 -6.59023e-11)
(5e-05 -1.72073e-09 7.51287e-11)
(5e-05 -1.72073e-09 -7.51291e-11)
(5.00002e-05 -1.90602e-09 8.32185e-11)
(5.00002e-05 -1.90602e-09 -8.32189e-11)
(5.00004e-05 -2.06095e-09 8.99829e-11)
(5.00004e-05 -2.06095e-09 -8.99834e-11)
(5.00008e-05 -2.17694e-09 9.50474e-11)
(5.00008e-05 -2.17694e-09 -9.50479e-11)
(5.00011e-05 -2.25378e-09 9.84022e-11)
(5.00011e-05 -2.25378e-09 -9.84027e-11)
(5.00017e-05 -2.2796e-09 9.95294e-11)
(5.00017e-05 -2.2796e-09 -9.95299e-11)
(5.00023e-05 -2.26205e-09 9.87631e-11)
(5.00023e-05 -2.26205e-09 -9.87635e-11)
(5.00031e-05 -2.1911e-09 9.56653e-11)
(5.00031e-05 -2.1911e-09 -9.56658e-11)
(5.0004e-05 -2.11173e-09 9.22001e-11)
(5.0004e-05 -2.11173e-09 -9.22006e-11)
(5.00052e-05 -2.09498e-09 9.14687e-11)
(5.00052e-05 -2.09498e-09 -9.14691e-11)
(4.99995e-05 8.00756e-18 -2.09231e-16)
(4.99997e-05 -3.78691e-10 1.6534e-11)
(4.99997e-05 -3.78691e-10 -1.65342e-11)
(4.99997e-05 -1.90663e-10 -8.32476e-12)
(4.99997e-05 -1.90663e-10 8.32451e-12)
(4.99997e-05 -5.60959e-10 2.4492e-11)
(4.99997e-05 -5.60959e-10 -2.44922e-11)
(4.99998e-05 -7.32611e-10 3.19865e-11)
(4.99998e-05 -7.32611e-10 -3.19868e-11)
(4.99999e-05 -8.92569e-10 3.89704e-11)
(4.99999e-05 -8.92569e-10 -3.89707e-11)
(5e-05 -1.03306e-09 4.51042e-11)
(5e-05 -1.03306e-09 -4.51045e-11)
(5.00002e-05 -1.15447e-09 5.04051e-11)
(5.00002e-05 -1.15447e-09 -5.04055e-11)
(5.00004e-05 -1.24654e-09 5.44252e-11)
(5.00004e-05 -1.24654e-09 -5.44256e-11)
(5.00007e-05 -1.30922e-09 5.71618e-11)
(5.00007e-05 -1.30922e-09 -5.71622e-11)
(5.0001e-05 -1.33351e-09 5.82221e-11)
(5.0001e-05 -1.33351e-09 -5.82225e-11)
(5.00014e-05 -1.32562e-09 5.78778e-11)
(5.00014e-05 -1.32562e-09 -5.78782e-11)
(5.00019e-05 -1.27857e-09 5.58236e-11)
(5.00019e-05 -1.27857e-09 -5.5824e-11)
(5.00025e-05 -1.20981e-09 5.28216e-11)
(5.00025e-05 -1.20981e-09 -5.2822e-11)
(5.00033e-05 -1.11819e-09 4.88213e-11)
(5.00033e-05 -1.11819e-09 -4.88217e-11)
(5.00041e-05 -1.04779e-09 4.57473e-11)
(5.00041e-05 -1.04779e-09 -4.57476e-11)
(5.0005e-05 -1.03238e-09 4.50747e-11)
(5.0005e-05 -1.03238e-09 -4.5075e-11)
(4.99996e-05 8.00758e-18 -2.09232e-16)
(4.99999e-05 -2.40724e-10 1.05102e-11)
(4.99999e-05 -2.40724e-10 -1.05105e-11)
(4.99999e-05 -1.21556e-10 -5.30745e-12)
(4.99999e-05 -1.21556e-10 5.30721e-12)
(5e-05 -3.52475e-10 1.53894e-11)
(5e-05 -3.52475e-10 -1.53896e-11)
(5e-05 -4.53685e-10 1.98083e-11)
(5e-05 -4.53685e-10 -1.98086e-11)
(5.00002e-05 -5.41659e-10 2.36493e-11)
(5.00002e-05 -5.41659e-10 -2.36496e-11)
(5.00003e-05 -6.10244e-10 2.66438e-11)
(5.00003e-05 -6.10244e-10 -2.66441e-11)
(5.00005e-05 -6.59621e-10 2.87996e-11)
(5.00005e-05 -6.59621e-10 -2.87999e-11)
(5.00007e-05 -6.8163e-10 2.97606e-11)
(5.00007e-05 -6.8163e-10 -2.97609e-11)
(5.0001e-05 -6.78686e-10 2.9632e-11)
(5.0001e-05 -6.78686e-10 -2.96323e-11)
(5.00013e-05 -6.44182e-10 2.81256e-11)
(5.00013e-05 -6.44182e-10 -2.81259e-11)
(5.00018e-05 -5.87028e-10 2.56302e-11)
(5.00018e-05 -5.87028e-10 -2.56305e-11)
(5.00022e-05 -5.04292e-10 2.20179e-11)
(5.00022e-05 -5.04292e-10 -2.20181e-11)
(5.00028e-05 -4.15607e-10 1.81458e-11)
(5.00028e-05 -4.15607e-10 -1.8146e-11)
(5.00034e-05 -3.252e-10 1.41985e-11)
(5.00034e-05 -3.252e-10 -1.41988e-11)
(5.00041e-05 -2.73087e-10 1.19232e-11)
(5.00041e-05 -2.73087e-10 -1.19235e-11)
(5.00048e-05 -2.78512e-10 1.21601e-11)
(5.00048e-05 -2.78512e-10 -1.21603e-11)
(4.99999e-05 8.00761e-18 -2.09233e-16)
(5.00002e-05 -1.21302e-10 5.29613e-12)
(5.00002e-05 -1.21302e-10 -5.29637e-12)
(5.00002e-05 -6.18136e-11 -2.69906e-12)
(5.00002e-05 -6.18136e-11 2.69883e-12)
(5.00003e-05 -1.73346e-10 7.56844e-12)
(5.00003e-05 -1.73346e-10 -7.56868e-12)
(5.00004e-05 -2.15431e-10 9.40589e-12)
(5.00004e-05 -2.15431e-10 -9.40614e-12)
(5.00005e-05 -2.44807e-10 1.06885e-11)
(5.00005e-05 -2.44807e-10 -1.06887e-11)
(5.00006e-05 -2.56516e-10 1.11997e-11)
(5.00006e-05 -2.56516e-10 -1.12e-11)
(5.00008e-05 -2.51249e-10 1.09697e-11)
(5.00008e-05 -2.51249e-10 -1.097e-11)
(5.00011e-05 -2.22853e-10 9.72995e-12)
(5.00011e-05 -2.22853e-10 -9.7302e-12)
(5.00014e-05 -1.7543e-10 7.65943e-12)
(5.00014e-05 -1.7543e-10 -7.65967e-12)
(5.00017e-05 -1.04886e-10 4.57943e-12)
(5.00017e-05 -1.04886e-10 -4.57966e-12)
(5.00021e-05 -2.12862e-11 9.29363e-13)
(5.00021e-05 -2.12862e-11 -9.29589e-13)
(5.00026e-05 7.52456e-11 -3.28531e-12)
(5.00026e-05 7.52456e-11 3.28509e-12)
(5.00031e-05 1.66465e-10 -7.26802e-12)
(5.00031e-05 1.66465e-10 7.26781e-12)
(5.00036e-05 2.47073e-10 -1.07874e-11)
(5.00036e-05 2.47073e-10 1.07873e-11)
(5.00042e-05 2.89456e-10 -1.26379e-11)
(5.00042e-05 2.89456e-10 1.26377e-11)
(5.00047e-05 2.86178e-10 -1.24948e-11)
(5.00047e-05 2.86178e-10 1.24946e-11)
(5.00001e-05 8.00766e-18 -2.09234e-16)
(5.00006e-05 -2.21845e-11 9.68581e-13)
(5.00006e-05 -2.21845e-11 -9.68806e-13)
(5.00005e-05 -1.21607e-11 -5.31158e-13)
(5.00005e-05 -1.21607e-11 5.30934e-13)
(5.00006e-05 -2.55443e-11 1.11528e-12)
(5.00006e-05 -2.55443e-11 -1.1155e-12)
(5.00007e-05 -2.00163e-11 8.73917e-13)
(5.00007e-05 -2.00163e-11 -8.74141e-13)
(5.00009e-05 -3.52486e-12 1.53886e-13)
(5.00009e-05 -3.52486e-12 -1.54108e-13)
(5.0001e-05 2.80131e-11 -1.22309e-12)
(5.0001e-05 2.80131e-11 1.22287e-12)
(5.00012e-05 7.30824e-11 -3.19086e-12)
(5.00012e-05 7.30824e-11 3.19064e-12)
(5.00015e-05 1.36291e-10 -5.95062e-12)
(5.00015e-05 1.36291e-10 5.95042e-12)
(5.00018e-05 2.12449e-10 -9.27572e-12)
(5.00018e-05 2.12449e-10 9.27552e-12)
(5.00021e-05 3.03956e-10 -1.3271e-11)
(5.00021e-05 3.03956e-10 1.32708e-11)
(5.00025e-05 4.00787e-10 -1.74987e-11)
(5.00025e-05 4.00787e-10 1.74986e-11)
(5.00029e-05 5.01465e-10 -2.18944e-11)
(5.00029e-05 5.01465e-10 2.18943e-11)
(5.00034e-05 5.90506e-10 -2.5782e-11)
(5.00034e-05 5.90506e-10 2.57819e-11)
(5.00038e-05 6.62998e-10 -2.89471e-11)
(5.00038e-05 6.62998e-10 2.8947e-11)
(5.00043e-05 6.99661e-10 -3.05478e-11)
(5.00043e-05 6.99661e-10 3.05477e-11)
(5.00047e-05 6.98292e-10 -3.04881e-11)
(5.00047e-05 6.98292e-10 3.04879e-11)
(5.00005e-05 8.00772e-18 -2.09235e-16)
(5.0001e-05 5.6444e-11 -2.46441e-12)
(5.0001e-05 5.6444e-11 2.46419e-12)
(5.0001e-05 2.73072e-11 1.19205e-12)
(5.0001e-05 2.73072e-11 -1.19227e-12)
(5.00011e-05 9.11367e-11 -3.97913e-12)
(5.00011e-05 9.11367e-11 3.97892e-12)
(5.00012e-05 1.33337e-10 -5.82163e-12)
(5.00012e-05 1.33337e-10 5.82142e-12)
(5.00013e-05 1.84228e-10 -8.04359e-12)
(5.00013e-05 1.84228e-10 8.04339e-12)
(5.00015e-05 2.4727e-10 -1.0796e-11)
(5.00015e-05 2.4727e-10 1.07959e-11)
(5.00017e-05 3.20059e-10 -1.39741e-11)
(5.00017e-05 3.20059e-10 1.39739e-11)
(5.00019e-05 4.062e-10 -1.77351e-11)
(5.00019e-05 4.062e-10 1.77349e-11)
(5.00022e-05 4.99837e-10 -2.18233e-11)
(5.00022e-05 4.99837e-10 2.18232e-11)
(5.00025e-05 6.02398e-10 -2.63013e-11)
(5.00025e-05 6.02398e-10 2.63011e-11)
(5.00029e-05 7.04498e-10 -3.07591e-11)
(5.00029e-05 7.04498e-10 3.07589e-11)
(5.00032e-05 8.04274e-10 -3.51154e-11)
(5.00032e-05 8.04274e-10 3.51152e-11)
(5.00036e-05 8.8943e-10 -3.88333e-11)
(5.00036e-05 8.8943e-10 3.88332e-11)
(5.0004e-05 9.56181e-10 -4.17478e-11)
(5.0004e-05 9.56181e-10 4.17477e-11)
(5.00044e-05 9.92333e-10 -4.33262e-11)
(5.00044e-05 9.92333e-10 4.33261e-11)
(5.00047e-05 9.98267e-10 -4.35853e-11)
(5.00047e-05 9.98267e-10 4.35852e-11)
(5.00009e-05 8.00778e-18 -2.09237e-16)
(5.00014e-05 1.1564e-10 -5.04898e-12)
(5.00014e-05 1.1564e-10 5.04877e-12)
(5.00014e-05 5.70855e-11 2.4922e-12)
(5.00014e-05 5.70855e-11 -2.49242e-12)
(5.00015e-05 1.78575e-10 -7.79675e-12)
(5.00015e-05 1.78575e-10 7.79655e-12)
(5.00016e-05 2.47578e-10 -1.08095e-11)
(5.00016e-05 2.47578e-10 1.08093e-11)
(5.00018e-05 3.22935e-10 -1.40996e-11)
(5.00018e-05 3.22935e-10 1.40994e-11)
(5.00019e-05 4.07723e-10 -1.78016e-11)
(5.00019e-05 4.07723e-10 1.78014e-11)
(5.00021e-05 4.98732e-10 -2.17751e-11)
(5.00021e-05 4.98732e-10 2.1775e-11)
(5.00024e-05 5.99057e-10 -2.61554e-11)
(5.00024e-05 5.99057e-10 2.61552e-11)
(5.00026e-05 7.02505e-10 -3.0672e-11)
(5.00026e-05 7.02505e-10 3.06719e-11)
(5.00029e-05 8.10155e-10 -3.53721e-11)
(5.00029e-05 8.10155e-10 3.5372e-11)
(5.00033e-05 9.13562e-10 -3.9887e-11)
(5.00033e-05 9.13562e-10 3.98868e-11)
(5.00036e-05 1.01105e-09 -4.41432e-11)
(5.00036e-05 1.01105e-09 4.41431e-11)
(5.00039e-05 1.0932e-09 -4.77301e-11)
(5.00039e-05 1.0932e-09 4.773e-11)
(5.00042e-05 1.15722e-09 -5.05251e-11)
(5.00042e-05 1.15722e-09 5.0525e-11)
(5.00045e-05 1.19577e-09 -5.22082e-11)
(5.00045e-05 1.19577e-09 5.22082e-11)
(5.00047e-05 1.20992e-09 -5.28261e-11)
(5.00047e-05 1.20992e-09 5.2826e-11)
(5.00014e-05 8.00786e-18 -2.09239e-16)
(5.00019e-05 1.57263e-10 -6.86625e-12)
(5.00019e-05 1.57263e-10 6.86605e-12)
(5.00019e-05 7.80696e-11 3.40839e-12)
(5.00019e-05 7.80696e-11 -3.4086e-12)
(5.0002e-05 2.39745e-10 -1.04675e-11)
(5.0002e-05 2.39745e-10 1.04673e-11)
(5.00021e-05 3.27001e-10 -1.42772e-11)
(5.00021e-05 3.27001e-10 1.4277e-11)
(5.00022e-05 4.18496e-10 -1.82719e-11)
(5.00022e-05 4.18496e-10 1.82717e-11)
(5.00024e-05 5.17162e-10 -2.25798e-11)
(5.00024e-05 5.17162e-10 2.25796e-11)
(5.00026e-05 6.19095e-10 -2.70303e-11)
(5.00026e-05 6.19095e-10 2.70301e-11)
(5.00028e-05 7.27275e-10 -3.17535e-11)
(5.00028e-05 7.27275e-10 3.17534e-11)
(5.00031e-05 8.35374e-10 -3.64732e-11)
(5.00031e-05 8.35374e-10 3.64731e-11)
(5.00034e-05 9.44523e-10 -4.12387e-11)
(5.00034e-05 9.44523e-10 4.12386e-11)
(5.00036e-05 1.04729e-09 -4.57255e-11)
(5.00036e-05 1.04729e-09 4.57254e-11)
(5.00039e-05 1.14238e-09 -4.98775e-11)
(5.00039e-05 1.14238e-09 4.98774e-11)
(5.00042e-05 1.22288e-09 -5.33922e-11)
(5.00042e-05 1.22288e-09 5.33922e-11)
(5.00045e-05 1.28668e-09 -5.61776e-11)
(5.00045e-05 1.28668e-09 5.61775e-11)
(5.00047e-05 1.32998e-09 -5.80681e-11)
(5.00047e-05 1.32998e-09 5.80681e-11)
(5.00048e-05 1.3536e-09 -5.90996e-11)
(5.00048e-05 1.3536e-09 5.90995e-11)
(5.00018e-05 8.00793e-18 -2.09241e-16)
(5.00024e-05 1.83453e-10 -8.00973e-12)
(5.00024e-05 1.83453e-10 8.00953e-12)
(5.00024e-05 9.13082e-11 3.9864e-12)
(5.00024e-05 9.13082e-11 -3.98661e-12)
(5.00025e-05 2.77973e-10 -1.21366e-11)
(5.00025e-05 2.77973e-10 1.21364e-11)
(5.00026e-05 3.76246e-10 -1.64273e-11)
(5.00026e-05 3.76246e-10 1.64271e-11)
(5.00027e-05 4.77021e-10 -2.08272e-11)
(5.00027e-05 4.77021e-10 2.0827e-11)
(5.00029e-05 5.83319e-10 -2.54683e-11)
(5.00029e-05 5.83319e-10 2.54681e-11)
(5.00031e-05 6.90639e-10 -3.0154e-11)
(5.00031e-05 6.90639e-10 3.01538e-11)
(5.00033e-05 8.02161e-10 -3.50231e-11)
(5.00033e-05 8.02161e-10 3.5023e-11)
(5.00035e-05 9.11529e-10 -3.97982e-11)
(5.00035e-05 9.11529e-10 3.97981e-11)
(5.00038e-05 1.02017e-09 -4.45416e-11)
(5.00038e-05 1.02017e-09 4.45415e-11)
(5.0004e-05 1.12161e-09 -4.89705e-11)
(5.0004e-05 1.12161e-09 4.89704e-11)
(5.00043e-05 1.21498e-09 -5.30471e-11)
(5.00043e-05 1.21498e-09 5.3047e-11)
(5.00045e-05 1.29535e-09 -5.65562e-11)
(5.00045e-05 1.29535e-09 5.65561e-11)
(5.00047e-05 1.36093e-09 -5.94196e-11)
(5.00047e-05 1.36093e-09 5.94196e-11)
(5.00049e-05 1.41043e-09 -6.15806e-11)
(5.00049e-05 1.41043e-09 6.15806e-11)
(5.0005e-05 1.44383e-09 -6.3039e-11)
(5.0005e-05 1.44383e-09 6.30389e-11)
(5.00023e-05 8.00801e-18 -2.09243e-16)
(5.00029e-05 1.96423e-10 -8.57601e-12)
(5.00029e-05 1.96423e-10 8.57581e-12)
(5.00028e-05 9.78949e-11 4.27398e-12)
(5.00028e-05 9.78949e-11 -4.27419e-12)
(5.0003e-05 2.9663e-10 -1.29512e-11)
(5.0003e-05 2.9663e-10 1.2951e-11)
(5.0003e-05 3.99921e-10 -1.74609e-11)
(5.0003e-05 3.99921e-10 1.74607e-11)
(5.00032e-05 5.04417e-10 -2.20233e-11)
(5.00032e-05 5.04417e-10 2.20232e-11)
(5.00033e-05 6.13447e-10 -2.67837e-11)
(5.00033e-05 6.13447e-10 2.67835e-11)
(5.00035e-05 7.2198e-10 -3.15223e-11)
(5.00035e-05 7.2198e-10 3.15222e-11)
(5.00037e-05 8.33632e-10 -3.63972e-11)
(5.00037e-05 8.33632e-10 3.6397e-11)
(5.00039e-05 9.42055e-10 -4.1131e-11)
(5.00039e-05 9.42055e-10 4.11309e-11)
(5.00042e-05 1.0491e-09 -4.58045e-11)
(5.00042e-05 1.0491e-09 4.58044e-11)
(5.00044e-05 1.14913e-09 -5.01721e-11)
(5.00044e-05 1.14913e-09 5.0172e-11)
(5.00046e-05 1.24161e-09 -5.42099e-11)
(5.00046e-05 1.24161e-09 5.42099e-11)
(5.00048e-05 1.32321e-09 -5.77726e-11)
(5.00048e-05 1.32321e-09 5.77726e-11)
(5.0005e-05 1.39212e-09 -6.07815e-11)
(5.0005e-05 1.39212e-09 6.07814e-11)
(5.00051e-05 1.44884e-09 -6.32577e-11)
(5.00051e-05 1.44884e-09 6.32576e-11)
(5.00052e-05 1.49222e-09 -6.51517e-11)
(5.00052e-05 1.49222e-09 6.51516e-11)
(5.00028e-05 8.00808e-18 -2.09245e-16)
(5.00033e-05 1.98227e-10 -8.65481e-12)
(5.00033e-05 1.98227e-10 8.65461e-12)
(5.00033e-05 9.88519e-11 4.31577e-12)
(5.00033e-05 9.88519e-11 -4.31598e-12)
(5.00034e-05 2.98818e-10 -1.30467e-11)
(5.00034e-05 2.98818e-10 1.30465e-11)
(5.00035e-05 4.02192e-10 -1.75601e-11)
(5.00035e-05 4.02192e-10 1.75599e-11)
(5.00036e-05 5.05922e-10 -2.20891e-11)
(5.00036e-05 5.05922e-10 2.20889e-11)
(5.00038e-05 6.13845e-10 -2.68011e-11)
(5.00038e-05 6.13845e-10 2.68009e-11)
(5.0004e-05 7.20433e-10 -3.14548e-11)
(5.0004e-05 7.20433e-10 3.14546e-11)
(5.00041e-05 8.29915e-10 -3.62349e-11)
(5.00041e-05 8.29915e-10 3.62348e-11)
(5.00043e-05 9.35944e-10 -4.08642e-11)
(5.00043e-05 9.35944e-10 4.08641e-11)
(5.00046e-05 1.04083e-09 -4.54438e-11)
(5.00046e-05 1.04083e-09 4.54437e-11)
(5.00047e-05 1.13969e-09 -4.97599e-11)
(5.00047e-05 1.13969e-09 4.97598e-11)
(5.00049e-05 1.23214e-09 -5.37962e-11)
(5.00049e-05 1.23214e-09 5.37961e-11)
(5.00051e-05 1.31612e-09 -5.74632e-11)
(5.00051e-05 1.31612e-09 5.74632e-11)
(5.00053e-05 1.38954e-09 -6.06686e-11)
(5.00053e-05 1.38954e-09 6.06686e-11)
(5.00053e-05 1.45417e-09 -6.34902e-11)
(5.00053e-05 1.45417e-09 6.34902e-11)
(5.00054e-05 1.50754e-09 -6.58204e-11)
(5.00054e-05 1.50754e-09 6.58204e-11)
(5.00033e-05 8.00816e-18 -2.09247e-16)
(5.00038e-05 1.90704e-10 -8.32632e-12)
(5.00038e-05 1.90704e-10 8.32612e-12)
(5.00037e-05 9.50971e-11 4.15183e-12)
(5.00037e-05 9.50971e-11 -4.15204e-12)
(5.00038e-05 2.87281e-10 -1.25429e-11)
(5.00038e-05 2.87281e-10 1.25428e-11)
(5.00039e-05 3.8671e-10 -1.68841e-11)
(5.00039e-05 3.8671e-10 1.68839e-11)
(5.00041e-05 4.86055e-10 -2.12216e-11)
(5.00041e-05 4.86055e-10 2.12214e-11)
(5.00042e-05 5.89857e-10 -2.57537e-11)
(5.00042e-05 5.89857e-10 2.57536e-11)
(5.00044e-05 6.92082e-10 -3.0217e-11)
(5.00044e-05 6.92082e-10 3.02168e-11)
(5.00046e-05 7.97721e-10 -3.48293e-11)
(5.00046e-05 7.97721e-10 3.48291e-11)
(5.00047e-05 9.00384e-10 -3.93116e-11)
(5.00047e-05 9.00384e-10 3.93115e-11)
(5.00049e-05 1.00286e-09 -4.37858e-11)
(5.00049e-05 1.00286e-09 4.37857e-11)
(5.00051e-05 1.10087e-09 -4.8065e-11)
(5.00051e-05 1.10087e-09 4.80649e-11)
(5.00053e-05 1.19405e-09 -5.21334e-11)
(5.00053e-05 1.19405e-09 5.21333e-11)
(5.00054e-05 1.2814e-09 -5.5947e-11)
(5.00054e-05 1.2814e-09 5.59469e-11)
(5.00055e-05 1.36023e-09 -5.9389e-11)
(5.00055e-05 1.36023e-09 5.93889e-11)
(5.00056e-05 1.4333e-09 -6.25794e-11)
(5.00056e-05 1.4333e-09 6.25794e-11)
(5.00056e-05 1.49669e-09 -6.53468e-11)
(5.00056e-05 1.49669e-09 6.53468e-11)
(5.00037e-05 8.00823e-18 -2.09249e-16)
(5.00042e-05 1.75411e-10 -7.65862e-12)
(5.00042e-05 1.75411e-10 7.65842e-12)
(5.00041e-05 8.74128e-11 3.81633e-12)
(5.00041e-05 8.74128e-11 -3.81654e-12)
(5.00042e-05 2.64332e-10 -1.1541e-11)
(5.00042e-05 2.64332e-10 1.15408e-11)
(5.00043e-05 3.56518e-10 -1.55659e-11)
(5.00043e-05 3.56518e-10 1.55657e-11)
(5.00045e-05 4.48537e-10 -1.95836e-11)
(5.00045e-05 4.48537e-10 1.95834e-11)
(5.00046e-05 5.45822e-10 -2.38311e-11)
(5.00046e-05 5.45822e-10 2.38309e-11)
(5.00048e-05 6.41797e-10 -2.80215e-11)
(5.00048e-05 6.41797e-10 2.80213e-11)
(5.00049e-05 7.42333e-10 -3.24109e-11)
(5.00049e-05 7.42333e-10 3.24108e-11)
(5.00051e-05 8.40951e-10 -3.67167e-11)
(5.00051e-05 8.40951e-10 3.67166e-11)
(5.00053e-05 9.40894e-10 -4.10803e-11)
(5.00053e-05 9.40894e-10 4.10802e-11)
(5.00055e-05 1.03841e-09 -4.5338e-11)
(5.00055e-05 1.03841e-09 4.53379e-11)
(5.00056e-05 1.13299e-09 -4.94675e-11)
(5.00056e-05 1.13299e-09 4.94674e-11)
(5.00058e-05 1.22452e-09 -5.34636e-11)
(5.00058e-05 1.22452e-09 5.34636e-11)
(5.00059e-05 1.30953e-09 -5.71752e-11)
(5.00059e-05 1.30953e-09 5.71751e-11)
(5.00059e-05 1.39152e-09 -6.07551e-11)
(5.00059e-05 1.39152e-09 6.0755e-11)
(5.00059e-05 1.465e-09 -6.39634e-11)
(5.00059e-05 1.465e-09 6.39633e-11)
(5.00041e-05 8.00829e-18 -2.0925e-16)
(5.00045e-05 1.53653e-10 -6.70864e-12)
(5.00045e-05 1.53653e-10 6.70844e-12)
(5.00045e-05 7.64551e-11 3.3379e-12)
(5.00045e-05 7.64551e-11 -3.33811e-12)
(5.00046e-05 2.31892e-10 -1.01247e-11)
(5.00046e-05 2.31892e-10 1.01245e-11)
(5.00047e-05 3.14124e-10 -1.37149e-11)
(5.00047e-05 3.14124e-10 1.37148e-11)
(5.00048e-05 3.96401e-10 -1.73073e-11)
(5.00048e-05 3.96401e-10 1.73071e-11)
(5.0005e-05 4.85231e-10 -2.11856e-11)
(5.0005e-05 4.85231e-10 2.11855e-11)
(5.00052e-05 5.73438e-10 -2.50368e-11)
(5.00052e-05 5.73438e-10 2.50367e-11)
(5.00053e-05 6.67883e-10 -2.91604e-11)
(5.00053e-05 6.67883e-10 2.91603e-11)
(5.00055e-05 7.61947e-10 -3.32673e-11)
(5.00055e-05 7.61947e-10 3.32672e-11)
(5.00057e-05 8.59294e-10 -3.75176e-11)
(5.00057e-05 8.59294e-10 3.75175e-11)
(5.00058e-05 9.56652e-10 -4.17683e-11)
(5.00058e-05 9.56652e-10 4.17682e-11)
(5.0006e-05 1.0532e-09 -4.59839e-11)
(5.0006e-05 1.0532e-09 4.59838e-11)
(5.00061e-05 1.14963e-09 -5.01941e-11)
(5.00061e-05 1.14963e-09 5.0194e-11)
(5.00062e-05 1.24149e-09 -5.42047e-11)
(5.00062e-05 1.24149e-09 5.42046e-11)
(5.00062e-05 1.33291e-09 -5.81959e-11)
(5.00062e-05 1.33291e-09 5.81959e-11)
(5.00062e-05 1.41671e-09 -6.18548e-11)
(5.00062e-05 1.41671e-09 6.18547e-11)
(5.00045e-05 8.00835e-18 -2.09252e-16)
(5.00049e-05 1.26514e-10 -5.52372e-12)
(5.00049e-05 1.26514e-10 5.52351e-12)
(5.00048e-05 6.27714e-11 2.74045e-12)
(5.00048e-05 6.27714e-11 -2.74067e-12)
(5.0005e-05 1.9155e-10 -8.36325e-12)
(5.0005e-05 1.9155e-10 8.36305e-12)
(5.0005e-05 2.61582e-10 -1.14209e-11)
(5.0005e-05 2.61582e-10 1.14208e-11)
(5.00052e-05 3.32105e-10 -1.45e-11)
(5.00052e-05 3.32105e-10 1.44998e-11)
(5.00053e-05 4.10883e-10 -1.79395e-11)
(5.00053e-05 4.10883e-10 1.79394e-11)
(5.00055e-05 4.90063e-10 -2.13966e-11)
(5.00055e-05 4.90063e-10 2.13964e-11)
(5.00057e-05 5.77601e-10 -2.52186e-11)
(5.00057e-05 5.77601e-10 2.52185e-11)
(5.00059e-05 6.66695e-10 -2.91085e-11)
(5.00059e-05 6.66695e-10 2.91084e-11)
(5.0006e-05 7.61391e-10 -3.32431e-11)
(5.0006e-05 7.61391e-10 3.32429e-11)
(5.00062e-05 8.58889e-10 -3.74999e-11)
(5.00062e-05 8.58889e-10 3.74998e-11)
(5.00063e-05 9.57907e-10 -4.18231e-11)
(5.00063e-05 9.57907e-10 4.1823e-11)
(5.00064e-05 1.05991e-09 -4.62767e-11)
(5.00064e-05 1.05991e-09 4.62766e-11)
(5.00065e-05 1.15928e-09 -5.06152e-11)
(5.00065e-05 1.15928e-09 5.06151e-11)
(5.00065e-05 1.2607e-09 -5.50435e-11)
(5.00065e-05 1.2607e-09 5.50434e-11)
(5.00065e-05 1.35523e-09 -5.91705e-11)
(5.00065e-05 1.35523e-09 5.91704e-11)
(5.00048e-05 8.00841e-18 -2.09253e-16)
(5.00052e-05 9.49171e-11 -4.14418e-12)
(5.00052e-05 9.49171e-11 4.14397e-12)
(5.00051e-05 4.68291e-11 2.0444e-12)
(5.00051e-05 4.68291e-11 -2.04462e-12)
(5.00053e-05 1.44647e-10 -6.31541e-12)
(5.00053e-05 1.44647e-10 6.31521e-12)
(5.00053e-05 2.00622e-10 -8.75937e-12)
(5.00053e-05 2.00622e-10 8.75918e-12)
(5.00055e-05 2.57695e-10 -1.12512e-11)
(5.00055e-05 2.57695e-10 1.1251e-11)
(5.00056e-05 3.25085e-10 -1.41935e-11)
(5.00056e-05 3.25085e-10 1.41934e-11)
(5.00058e-05 3.94162e-10 -1.72095e-11)
(5.00058e-05 3.94162e-10 1.72093e-11)
(5.0006e-05 4.74089e-10 -2.06992e-11)
(5.0006e-05 4.74089e-10 2.0699e-11)
(5.00062e-05 5.57843e-10 -2.43559e-11)
(5.00062e-05 5.57843e-10 2.43558e-11)
(5.00064e-05 6.49821e-10 -2.83718e-11)
(5.00064e-05 6.49821e-10 2.83717e-11)
(5.00065e-05 7.47721e-10 -3.26462e-11)
(5.00065e-05 7.47721e-10 3.26461e-11)
(5.00067e-05 8.49643e-10 -3.70962e-11)
(5.00067e-05 8.49643e-10 3.70961e-11)
(5.00068e-05 9.57883e-10 -4.18221e-11)
(5.00068e-05 9.57883e-10 4.1822e-11)
(5.00069e-05 1.06545e-09 -4.65187e-11)
(5.00069e-05 1.06545e-09 4.65186e-11)
(5.00069e-05 1.17761e-09 -5.14155e-11)
(5.00069e-05 1.17761e-09 5.14154e-11)
(5.00069e-05 1.28349e-09 -5.60382e-11)
(5.00069e-05 1.28349e-09 5.60381e-11)
(5.00051e-05 8.00845e-18 -2.09255e-16)
(5.00054e-05 5.97126e-11 -2.60712e-12)
(5.00054e-05 5.97126e-11 2.60691e-12)
(5.00054e-05 2.90591e-11 1.26854e-12)
(5.00054e-05 2.90591e-11 -1.26876e-12)
(5.00055e-05 9.24117e-11 -4.03479e-12)
(5.00055e-05 9.24117e-11 4.03458e-12)
(5.00056e-05 1.32816e-10 -5.7989e-12)
(5.00056e-05 1.32816e-10 5.79869e-12)
(5.00058e-05 1.75019e-10 -7.64151e-12)
(5.00058e-05 1.75019e-10 7.64131e-12)
(5.00059e-05 2.29903e-10 -1.00378e-11)
(5.00059e-05 2.29903e-10 1.00376e-11)
(5.00061e-05 2.87945e-10 -1.2572e-11)
(5.00061e-05 2.87945e-10 1.25718e-11)
(5.00063e-05 3.59634e-10 -1.5702e-11)
(5.00063e-05 3.59634e-10 1.57018e-11)
(5.00065e-05 4.37704e-10 -1.91106e-11)
(5.00065e-05 4.37704e-10 1.91104e-11)
(5.00067e-05 5.26873e-10 -2.30038e-11)
(5.00067e-05 5.26873e-10 2.30036e-11)
(5.00069e-05 6.25405e-10 -2.73058e-11)
(5.00069e-05 6.25405e-10 2.73056e-11)
(5.0007e-05 7.30636e-10 -3.19002e-11)
(5.0007e-05 7.30636e-10 3.19001e-11)
(5.00072e-05 8.45785e-10 -3.69278e-11)
(5.00072e-05 8.45785e-10 3.69277e-11)
(5.00072e-05 9.6232e-10 -4.20158e-11)
(5.00072e-05 9.6232e-10 4.20157e-11)
(5.00073e-05 1.0861e-09 -4.74201e-11)
(5.00073e-05 1.0861e-09 4.742e-11)
(5.00072e-05 1.20421e-09 -5.25771e-11)
(5.00072e-05 1.20421e-09 5.2577e-11)
(5.00053e-05 8.00849e-18 -2.09256e-16)
(5.00056e-05 2.17475e-11 -9.49529e-13)
(5.00056e-05 2.17475e-11 9.49309e-13)
(5.00055e-05 9.89137e-12 4.31658e-13)
(5.00055e-05 9.89137e-12 -4.31879e-13)
(5.00057e-05 3.60665e-11 -1.57471e-12)
(5.00057e-05 3.60665e-11 1.57449e-12)
(5.00058e-05 5.97223e-11 -2.60755e-12)
(5.00058e-05 5.97223e-11 2.60733e-12)
(5.0006e-05 8.59004e-11 -3.7505e-12)
(5.0006e-05 8.59004e-11 3.75029e-12)
(5.00062e-05 1.27365e-10 -5.56089e-12)
(5.00062e-05 1.27365e-10 5.56069e-12)
(5.00064e-05 1.73572e-10 -7.57834e-12)
(5.00064e-05 1.73572e-10 7.57814e-12)
(5.00066e-05 2.36463e-10 -1.03242e-11)
(5.00066e-05 2.36463e-10 1.0324e-11)
(5.00068e-05 3.08525e-10 -1.34705e-11)
(5.00068e-05 3.08525e-10 1.34703e-11)
(5.0007e-05 3.94765e-10 -1.72358e-11)
(5.0007e-05 3.94765e-10 1.72356e-11)
(5.00072e-05 4.94135e-10 -2.15744e-11)
(5.00072e-05 4.94135e-10 2.15742e-11)
(5.00074e-05 6.0305e-10 -2.63297e-11)
(5.00074e-05 6.0305e-10 2.63296e-11)
(5.00075e-05 7.25819e-10 -3.16899e-11)
(5.00075e-05 7.25819e-10 3.16898e-11)
(5.00076e-05 8.52164e-10 -3.72063e-11)
(5.00076e-05 8.52164e-10 3.72062e-11)
(5.00077e-05 9.88658e-10 -4.31657e-11)
(5.00077e-05 9.88658e-10 4.31656e-11)
(5.00076e-05 1.12018e-09 -4.8908e-11)
(5.00076e-05 1.12018e-09 4.89079e-11)
(5.00055e-05 8.00852e-18 -2.09256e-16)
(5.00057e-05 -1.79991e-11 7.85844e-13)
(5.00057e-05 -1.79991e-11 -7.86068e-13)
(5.00057e-05 -1.01771e-11 -4.44551e-13)
(5.00057e-05 -1.01771e-11 4.44328e-13)
(5.00058e-05 -2.29784e-11 1.00324e-12)
(5.00058e-05 -2.29784e-11 -1.00347e-12)
(5.0006e-05 -1.68589e-11 7.36062e-13)
(5.0006e-05 -1.68589e-11 -7.36286e-13)
(5.00062e-05 -7.55515e-12 3.29852e-13)
(5.00062e-05 -7.55515e-12 -3.30075e-13)
(5.00064e-05 1.98176e-11 -8.65267e-13)
(5.00064e-05 1.98176e-11 8.65048e-13)
(5.00066e-05 5.35464e-11 -2.3379e-12)
(5.00066e-05 5.35464e-11 2.33768e-12)
(5.00069e-05 1.07162e-10 -4.67883e-12)
(5.00069e-05 1.07162e-10 4.67861e-12)
(5.00071e-05 1.72922e-10 -7.54995e-12)
(5.00071e-05 1.72922e-10 7.54975e-12)
(5.00073e-05 2.56094e-10 -1.11813e-11)
(5.00073e-05 2.56094e-10 1.11811e-11)
(5.00076e-05 3.56485e-10 -1.55645e-11)
(5.00076e-05 3.56485e-10 1.55643e-11)
(5.00078e-05 4.69438e-10 -2.04961e-11)
(5.00078e-05 4.69438e-10 2.04959e-11)
(5.00079e-05 6.00575e-10 -2.62217e-11)
(5.00079e-05 6.00575e-10 2.62215e-11)
(5.0008e-05 7.37671e-10 -3.22074e-11)
(5.0008e-05 7.37671e-10 3.22073e-11)
(5.00081e-05 8.88172e-10 -3.87784e-11)
(5.00081e-05 8.88172e-10 3.87783e-11)
(5.00081e-05 1.03456e-09 -4.51699e-11)
(5.00081e-05 1.03456e-09 4.51698e-11)
(5.00056e-05 8.00854e-18 -2.09257e-16)
(5.00058e-05 -5.83342e-11 2.54691e-12)
(5.00058e-05 -5.83342e-11 -2.54714e-12)
(5.00057e-05 -3.0541e-11 -1.33366e-12)
(5.00057e-05 -3.0541e-11 1.33344e-12)
(5.00059e-05 -8.30007e-11 3.62388e-12)
(5.00059e-05 -8.30007e-11 -3.62411e-12)
(5.00061e-05 -9.47281e-11 4.1359e-12)
(5.00061e-05 -9.47281e-11 -4.13614e-12)
(5.00063e-05 -1.02766e-10 4.48687e-12)
(5.00063e-05 -1.02766e-10 -4.4871e-12)
(5.00065e-05 -8.98584e-11 3.92329e-12)
(5.00065e-05 -8.98584e-11 -3.92352e-12)
(5.00068e-05 -6.90487e-11 3.01472e-12)
(5.00068e-05 -6.90487e-11 -3.01495e-12)
(5.00071e-05 -2.50674e-11 1.09445e-12)
(5.00071e-05 -2.50674e-11 -1.09468e-12)
(5.00074e-05 3.41431e-11 -1.49073e-12)
(5.00074e-05 3.41431e-11 1.49052e-12)
(5.00076e-05 1.14094e-10 -4.98148e-12)
(5.00076e-05 1.14094e-10 4.98127e-12)
(5.00079e-05 2.15671e-10 -9.41643e-12)
(5.00079e-05 2.15671e-10 9.41623e-12)
(5.00081e-05 3.32984e-10 -1.45384e-11)
(5.00081e-05 3.32984e-10 1.45382e-11)
(5.00083e-05 4.73271e-10 -2.06635e-11)
(5.00083e-05 4.73271e-10 2.06633e-11)
(5.00085e-05 6.22144e-10 -2.71634e-11)
(5.00085e-05 6.22144e-10 2.71633e-11)
(5.00085e-05 7.88155e-10 -3.44116e-11)
(5.00085e-05 7.88155e-10 3.44114e-11)
(5.00085e-05 9.51185e-10 -4.15296e-11)
(5.00085e-05 9.51185e-10 4.15295e-11)
(5.00057e-05 8.00855e-18 -2.09257e-16)
(5.00058e-05 -9.76699e-11 4.26434e-12)
(5.00058e-05 -9.76699e-11 -4.26458e-12)
(5.00057e-05 -5.03957e-11 -2.20054e-12)
(5.00057e-05 -5.03957e-11 2.20031e-12)
(5.0006e-05 -1.41704e-10 6.18689e-12)
(5.0006e-05 -1.41704e-10 -6.18713e-12)
(5.00061e-05 -1.70944e-10 7.46355e-12)
(5.00061e-05 -1.70944e-10 -7.46379e-12)
(5.00064e-05 -1.9627e-10 8.5693e-12)
(5.00064e-05 -1.9627e-10 -8.56954e-12)
(5.00066e-05 -1.97779e-10 8.63518e-12)
(5.00066e-05 -1.97779e-10 -8.63543e-12)
(5.00069e-05 -1.90036e-10 8.29713e-12)
(5.00069e-05 -1.90036e-10 -8.29738e-12)
(5.00073e-05 -1.55869e-10 6.80536e-12)
(5.00073e-05 -1.55869e-10 -6.8056e-12)
(5.00076e-05 -1.03366e-10 4.51306e-12)
(5.00076e-05 -1.03366e-10 -4.51329e-12)
(5.00079e-05 -2.67856e-11 1.16947e-12)
(5.00079e-05 -2.67856e-11 -1.16969e-12)
(5.00082e-05 7.61167e-11 -3.32334e-12)
(5.00082e-05 7.61167e-11 3.32313e-12)
(5.00085e-05 1.98062e-10 -8.64758e-12)
(5.00085e-05 1.98062e-10 8.64738e-12)
(5.00088e-05 3.4829e-10 -1.52067e-11)
(5.00088e-05 3.4829e-10 1.52065e-11)
(5.00089e-05 5.10025e-10 -2.22682e-11)
(5.00089e-05 5.10025e-10 2.2268e-11)
(5.0009e-05 6.93235e-10 -3.02673e-11)
(5.0009e-05 6.93235e-10 3.02672e-11)
(5.0009e-05 8.74979e-10 -3.82024e-11)
(5.0009e-05 8.74979e-10 3.82023e-11)
(5.00057e-05 8.00855e-18 -2.09257e-16)
(5.00057e-05 -1.33902e-10 5.84629e-12)
(5.00057e-05 -1.33902e-10 -5.84652e-12)
(5.00057e-05 -6.86753e-11 -2.99865e-12)
(5.00057e-05 -6.86753e-11 2.99842e-12)
(5.00059e-05 -1.96035e-10 8.55906e-12)
(5.00059e-05 -1.96035e-10 -8.55931e-12)
(5.00061e-05 -2.41594e-10 1.05482e-11)
(5.00061e-05 -2.41594e-10 -1.05485e-11)
(5.00064e-05 -2.8344e-10 1.23752e-11)
(5.00064e-05 -2.8344e-10 -1.23755e-11)
(5.00067e-05 -2.98743e-10 1.30434e-11)
(5.00067e-05 -2.98743e-10 -1.30437e-11)
(5.0007e-05 -3.03802e-10 1.32642e-11)
(5.0007e-05 -3.03802e-10 -1.32645e-11)
(5.00074e-05 -2.79363e-10 1.21972e-11)