/*--------------------------------*- C++ -*----------------------------------*\
| =========                 |                                                 |
| \\      /  F ield         | foam-extend: Open Source CFD                    |
|  \\    /   O peration     | Version:     4.1-20200408                       |
|   \\  /    A nd           | Web:         http://www.foam-extend.org         |
|    \\/     M anipulation  |                                                 |
\*---------------------------------------------------------------------------*/
FoamFile
{
    version     2.0;
    format      ascii;
    class       volScalarField;
    location    "0.0600000";
    object      rho_0;
}
// * * * * * * * * * * * * * * * * * * * * * * * * * * * * * * * * * * * * * //

dimensions      [1 -3 0 0 0 0 0];

internalField   nonuniform List<scalar> 
1952
(
7861.47
7860.33
7858.79
7856.95
7854.68
7852.13
7849.12
7845.72
7842.01
7837.32
7831.99
7824.67
7816.78
7808.24
7802.71
7861.99
7861.3
7860.16
7858.62
7856.78
7854.51
7851.96
7848.95
7845.56
7841.86
7837.17
7831.85
7824.55
7816.69
7808.2
7802.75
7861.82
7861.16
7860.02
7858.47
7856.64
7854.37
7851.83
7848.82
7845.43
7841.74
7837.06
7831.75
7824.47
7816.63
7808.16
7802.73
7861.67
7861.03
7859.89
7858.35
7856.52
7854.25
7851.71
7848.7
7845.32
7841.64
7836.97
7831.67
7824.4
7816.58
7808.13
7802.74
7861.55
7860.92
7859.78
7858.24
7856.42
7854.15
7851.61
7848.61
7845.23
7841.56
7836.9
7831.6
7824.35
7816.54
7808.11
7802.74
7861.44
7860.83
7859.69
7858.15
7856.32
7854.06
7851.53
7848.52
7845.16
7841.48
7836.83
7831.54
7824.3
7816.51
7808.1
7802.74
7861.35
7860.75
7859.61
7858.07
7856.25
7853.98
7851.45
7848.45
7845.09
7841.42
7836.78
7831.49
7824.26
7816.48
7808.08
7802.74
7861.26
7860.67
7859.54
7858
7856.18
7853.92
7851.39
7848.39
7845.03
7841.37
7836.73
7831.45
7824.23
7816.45
7808.06
7802.74
7861.19
7860.61
7859.48
7857.94
7856.12
7853.86
7851.33
7848.33
7844.98
7841.33
7836.69
7831.41
7824.19
7816.42
7808.04
7802.72
7861.13
7860.56
7859.42
7857.89
7856.07
7853.81
7851.28
7848.28
7844.94
7841.28
7836.65
7831.37
7824.16
7816.39
7808.02
7802.71
7861.08
7860.51
7859.38
7857.84
7856.02
7853.76
7851.23
7848.24
7844.89
7841.24
7836.61
7831.33
7824.13
7816.36
7808
7802.69
7861.03
7860.47
7859.33
7857.8
7855.98
7853.72
7851.19
7848.2
7844.86
7841.21
7836.57
7831.29
7824.09
7816.33
7807.97
7802.67
7860.99
7860.44
7859.3
7857.77
7855.94
7853.69
7851.16
7848.16
7844.82
7841.17
7836.54
7831.26
7824.06
7816.29
7807.94
7802.64
7860.96
7860.41
7859.26
7857.73
7855.91
7853.65
7851.12
7848.12
7844.78
7841.14
7836.5
7831.22
7824.02
7816.25
7807.91
7802.61
7860.93
7860.38
7859.23
7857.7
7855.88
7853.62
7851.09
7848.09
7844.75
7841.1
7836.47
7831.18
7823.98
7816.22
7807.87
7802.58
7860.9
7860.35
7859.21
7857.68
7855.85
7853.59
7851.06
7848.05
7844.72
7841.07
7836.43
7831.14
7823.95
7816.18
7807.84
7802.54
7860.87
7860.33
7859.18
7857.65
7855.83
7853.56
7851.03
7848.02
7844.68
7841.03
7836.39
7831.1
7823.9
7816.13
7807.79
7802.5
7860.85
7860.31
7859.16
7857.63
7855.8
7853.54
7851
7847.99
7844.65
7841
7836.35
7831.05
7823.86
7816.09
7807.75
7802.46
7860.83
7860.29
7859.14
7857.61
7855.78
7853.51
7850.97
7847.95
7844.62
7840.96
7836.32
7831.01
7823.82
7816.04
7807.7
7802.41
7860.81
7860.27
7859.12
7857.59
7855.76
7853.49
7850.94
7847.92
7844.58
7840.93
7836.28
7830.96
7823.77
7815.98
7807.65
7802.36
7860.8
7860.26
7859.11
7857.58
7855.74
7853.47
7850.92
7847.89
7844.55
7840.89
7836.24
7830.91
7823.72
7815.93
7807.6
7802.31
7860.79
7860.25
7859.1
7857.56
7855.73
7853.45
7850.9
7847.86
7844.52
7840.85
7836.19
7830.86
7823.67
7815.87
7807.54
7802.25
7860.78
7860.25
7859.09
7857.56
7855.72
7853.43
7850.88
7847.84
7844.49
7840.82
7836.15
7830.81
7823.61
7815.81
7807.48
7802.18
7860.78
7860.25
7859.09
7857.55
7855.71
7853.42
7850.86
7847.81
7844.46
7840.78
7836.11
7830.76
7823.56
7815.74
7807.41
7802.11
7860.78
7860.27
7859.1
7857.56
7855.71
7853.42
7850.85
7847.79
7844.44
7840.75
7836.07
7830.71
7823.5
7815.67
7807.34
7802.03
7860.79
7860.29
7859.12
7857.57
7855.72
7853.42
7850.85
7847.78
7844.42
7840.72
7836.03
7830.65
7823.44
7815.6
7807.27
7801.95
7860.82
7860.32
7859.15
7857.6
7855.74
7853.43
7850.85
7847.77
7844.41
7840.69
7836
7830.6
7823.38
7815.53
7807.19
7801.86
7860.85
7860.37
7859.19
7857.64
7855.78
7853.46
7850.87
7847.78
7844.4
7840.67
7835.96
7830.55
7823.32
7815.45
7807.1
7801.76
7860.9
7860.43
7859.25
7857.69
7855.82
7853.5
7850.9
7847.79
7844.41
7840.66
7835.94
7830.5
7823.26
7815.37
7807.01
7801.65
7860.97
7860.52
7859.33
7857.77
7855.89
7853.55
7850.94
7847.82
7844.42
7840.66
7835.92
7830.46
7823.2
7815.28
7806.91
7801.53
7861.05
7860.63
7859.44
7857.87
7855.99
7853.63
7851.01
7847.87
7844.46
7840.68
7835.92
7830.43
7823.15
7815.2
7806.81
7801.41
7861.17
7860.77
7859.57
7858
7856.11
7853.74
7851.1
7847.95
7844.52
7840.71
7835.93
7830.41
7823.11
7815.12
7806.71
7801.27
7861.31
7860.94
7859.75
7858.16
7856.26
7853.88
7851.23
7848.05
7844.61
7840.77
7835.97
7830.4
7823.08
7815.05
7806.61
7801.13
7861.49
7861.16
7859.96
7858.37
7856.46
7854.06
7851.39
7848.2
7844.74
7840.86
7836.03
7830.42
7823.07
7814.98
7806.52
7800.99
7861.7
7861.42
7860.22
7858.61
7856.7
7854.29
7851.6
7848.38
7844.9
7840.99
7836.13
7830.47
7823.08
7814.94
7806.43
7800.84
7861.97
7861.74
7860.53
7858.92
7857
7854.57
7851.87
7848.63
7845.12
7841.18
7836.28
7830.57
7823.14
7814.92
7806.36
7800.69
7862.29
7862.11
7860.9
7859.28
7857.36
7854.91
7852.2
7848.94
7845.41
7841.43
7836.49
7830.71
7823.24
7814.94
7806.32
7800.55
7862.66
7862.54
7861.34
7859.71
7857.78
7855.33
7852.61
7849.32
7845.77
7841.75
7836.78
7830.93
7823.4
7815
7806.32
7800.43
7863.09
7863.04
7861.84
7860.21
7858.28
7855.82
7853.09
7849.8
7846.23
7842.17
7837.16
7831.25
7823.65
7815.14
7806.37
7800.34
7863.59
7863.6
7862.41
7860.79
7858.86
7856.41
7853.67
7850.38
7846.79
7842.71
7837.67
7831.68
7824.02
7815.38
7806.51
7800.3
7864.15
7864.22
7863.05
7861.43
7859.53
7857.08
7854.36
7851.07
7847.49
7843.39
7838.32
7832.27
7824.55
7815.76
7806.77
7800.33
7864.77
7864.89
7863.74
7862.14
7860.26
7857.85
7855.15
7851.89
7848.32
7844.24
7839.16
7833.06
7825.27
7816.34
7807.2
7800.47
7865.43
7865.59
7864.48
7862.9
7861.07
7858.7
7856.05
7852.85
7849.32
7845.29
7840.22
7834.1
7826.27
7817.18
7807.87
7800.75
7866.13
7866.31
7865.24
7863.7
7861.92
7859.62
7857.05
7853.94
7850.5
7846.55
7841.54
7835.46
7827.64
7818.42
7808.94
7801.29
7866.84
7866.99
7865.97
7864.49
7862.79
7860.59
7858.12
7855.16
7851.83
7848.05
7843.16
7837.23
7829.5
7820.26
7810.72
7802.55
7867.51
7867.59
7866.63
7865.23
7863.63
7861.56
7859.23
7856.47
7853.32
7849.79
7845.11
7839.45
7832
7823.01
7813.84
7805.84
7868.1
7868.05
7867.16
7865.84
7864.38
7862.47
7860.33
7857.81
7854.9
7851.7
7847.34
7842.11
7835.07
7826.61
7818.18
7811.02
7868.53
7868.28
7867.47
7866.26
7864.95
7863.24
7861.31
7859.1
7856.49
7853.71
7849.72
7845.05
7838.52
7830.7
7823.04
7816.55
7868.74
7868.18
7867.47
7866.38
7865.24
7863.75
7862.09
7860.22
7857.97
7855.68
7852.15
7848.15
7842.19
7835.17
7828.28
7822.28
7868.61
7867.64
7867.03
7866.08
7865.13
7863.89
7862.52
7861.04
7859.19
7857.48
7854.46
7851.27
7845.93
7839.95
7833.72
7828.16
7868.04
7866.54
7866.04
7865.23
7864.49
7863.52
7862.46
7861.4
7860
7858.9
7856.48
7854.25
7849.63
7845.05
7839.36
7834.33
7866.91
7864.73
7864.35
7863.68
7863.16
7862.46
7861.75
7861.13
7860.22
7859.77
7858.03
7856.82
7853.1
7850.17
7845.27
7841
7865.07
7862.09
7861.84
7861.32
7861.03
7860.61
7860.23
7860.02
7859.53
7859.61
7858.55
7858.47
7856.12
7854.95
7851.13
7848.41
7862.4
7858.51
7858.36
7857.95
7857.81
7857.59
7857.52
7857.75
7857.85
7858.58
7858.34
7859.41
7858.38
7859
7856.52
7856.48
7858.78
7853.58
7853.59
7853.39
7853.54
7853.7
7854.14
7854.98
7855.82
7857.37
7858.05
7860.13
7860.17
7862.68
7861.64
7864.72
7853.81
7847.86
7848.2
7848.44
7849.14
7849.95
7851.07
7852.58
7854.11
7856.45
7858.01
7861.08
7862.11
7866.12
7866.38
7872.32
7847.97
7842.82
7843.5
7844.22
7845.48
7846.92
7848.7
7850.85
7853.02
7855.95
7858.22
7862.03
7863.93
7869.09
7870.45
7878.58
7842.76
7839.07
7840.02
7841.11
7842.78
7844.68
7846.95
7849.58
7852.27
7855.66
7858.52
7862.87
7865.5
7871.47
7873.75
7883.38
7838.86
7836.57
7837.67
7839
7840.94
7843.15
7845.77
7848.73
7851.83
7855.53
7858.86
7863.55
7866.76
7873.2
7876.2
7886.7
7836.24
7835.26
7836.4
7837.88
7839.96
7842.34
7845.18
7848.32
7851.7
7855.57
7859.23
7864.06
7867.7
7874.28
7877.81
7888.58
7834.83
7835
7836.14
7837.68
7839.81
7842.26
7845.19
7848.39
7851.91
7855.8
7859.66
7864.43
7868.34
7874.76
7878.6
7889.06
7834.52
7835.71
7836.82
7838.35
7840.46
7842.88
7845.81
7848.95
7852.49
7856.26
7860.17
7864.71
7868.71
7874.68
7878.61
7888.24
7835.21
7837.32
7838.36
7839.84
7841.85
7844.16
7846.99
7849.97
7853.41
7856.95
7860.78
7864.92
7868.84
7874.09
7877.86
7886.17
7836.84
7839.78
7840.73
7842.08
7843.93
7846.05
7848.69
7851.42
7854.66
7857.86
7861.48
7865.09
7868.76
7873.05
7876.44
7883
7839.35
7843.05
7843.87
7845.02
7846.65
7848.5
7850.87
7853.27
7856.21
7858.99
7862.28
7865.24
7868.49
7871.61
7874.37
7878.85
7842.69
7847.03
7847.69
7848.62
7849.97
7851.49
7853.5
7855.5
7858.06
7860.34
7863.19
7865.39
7868.05
7869.82
7871.75
7873.94
7846.75
7851.57
7852.09
7852.78
7853.85
7855.01
7856.63
7858.16
7860.25
7861.95
7864.24
7865.59
7867.47
7867.74
7868.64
7868.49
7851.36
7856.47
7856.88
7857.39
7858.21
7859.04
7860.27
7861.32
7862.89
7863.93
7865.55
7865.93
7866.82
7865.45
7865.17
7862.77
7856.31
7861.53
7861.88
7862.26
7862.91
7863.5
7864.41
7865.03
7866.08
7866.44
7867.26
7866.54
7866.21
7863.07
7861.49
7857.11
7861.4
7866.53
7866.85
7867.16
7867.7
7868.13
7868.81
7869.14
7869.77
7869.51
7869.52
7867.6
7865.85
7860.84
7857.93
7851.84
7866.41
7871.27
7871.59
7871.85
7872.33
7872.67
7873.25
7873.49
7873.95
7873.27
7872.52
7869.37
7866
7859.16
7854.94
7847.42
7871.15
7876.15
7876.49
7876.78
7877.28
7877.6
7878.09
7878.11
7877.99
7876.51
7874.65
7870.33
7865.84
7858.1
7852.86
7844.28
7876.03
7880.22
7880.39
7880.47
7880.61
7880.43
7880.12
7879.08
7877.74
7875.26
7872.52
7867.95
7863.57
7856.38
7851.46
7842.57
7880.15
7879.78
7879.58
7879.15
7878.58
7877.64
7876.45
7874.61
7872.65
7869.89
7867.1
7863.06
7859.46
7853.6
7849.73
7842
7879.85
7875.41
7875.05
7874.43
7873.6
7872.42
7871.04
7869.26
7867.44
7864.91
7862.33
7858.71
7855.4
7850.72
7847.32
7841.71
7875.55
7870.77
7870.43
7869.86
7869.09
7868.02
7866.74
7865.06
7863.24
7860.85
7858.43
7855.23
7852.25
7848.28
7844.9
7840.78
7870.9
7866.79
7866.41
7865.83
7865.03
7863.98
7862.73
7861.15
7859.45
7857.28
7855.07
7852.25
7849.57
7846.19
7843.18
7839.51
7866.92
7863.08
7862.71
7862.17
7861.41
7860.44
7859.27
7857.82
7856.24
7854.27
7852.26
7849.78
7847.4
7844.48
7841.82
7838.61
7863.21
7859.79
7859.42
7858.91
7858.19
7857.29
7856.2
7854.88
7853.43
7851.68
7849.87
7847.7
7845.6
7843.09
7840.79
7838.03
7859.91
7856.83
7856.48
7856.01
7855.34
7854.52
7853.52
7852.33
7851.02
7849.46
7847.85
7845.96
7844.12
7841.95
7839.97
7837.62
7856.94
7854.2
7853.87
7853.44
7852.82
7852.08
7851.17
7850.11
7848.93
7847.55
7846.13
7844.49
7842.89
7841.03
7839.34
7837.34
7854.3
7851.85
7851.55
7851.17
7850.6
7849.93
7849.12
7848.17
7847.13
7845.92
7844.67
7843.25
7841.86
7840.28
7838.84
7837.14
7851.95
7849.78
7849.5
7849.16
7848.65
7848.06
7847.33
7846.49
7845.57
7844.51
7843.43
7842.19
7841
7839.65
7838.43
7836.99
7849.86
7847.95
7847.69
7847.39
7846.94
7846.41
7845.77
7845.03
7844.22
7843.3
7842.36
7841.3
7840.28
7839.13
7838.09
7836.88
7848.02
7846.33
7846.1
7845.83
7845.43
7844.97
7844.4
7843.76
7843.05
7842.25
7841.43
7840.53
7839.65
7838.68
7837.81
7836.79
7846.4
7844.9
7844.69
7844.46
7844.1
7843.7
7843.2
7842.64
7842.02
7841.34
7840.64
7839.86
7839.12
7838.29
7837.56
7836.7
7844.96
7843.64
7843.46
7843.25
7842.94
7842.59
7842.15
7841.67
7841.13
7840.54
7839.94
7839.28
7838.64
7837.95
7837.33
7836.6
7843.69
7842.53
7842.36
7842.19
7841.91
7841.61
7841.23
7840.81
7840.35
7839.84
7839.32
7838.76
7838.23
7837.64
7837.12
7836.5
7842.57
7841.55
7841.4
7841.25
7841
7840.74
7840.41
7840.05
7839.66
7839.22
7838.78
7838.3
7837.85
7837.36
7836.92
7836.39
7841.58
7840.67
7840.54
7840.41
7840.2
7839.98
7839.69
7839.38
7839.04
7838.67
7838.29
7837.89
7837.51
7837.09
7836.72
7836.28
7840.71
7839.9
7839.79
7839.67
7839.49
7839.3
7839.05
7838.79
7838.49
7838.18
7837.86
7837.51
7837.19
7836.84
7836.52
7836.14
7839.93
7839.21
7839.11
7839.01
7838.86
7838.69
7838.48
7838.25
7838
7837.73
7837.46
7837.17
7836.89
7836.6
7836.33
7836
7839.23
7838.59
7838.51
7838.42
7838.29
7838.14
7837.96
7837.77
7837.55
7837.33
7837.09
7836.85
7836.61
7836.36
7836.14
7835.85
7838.61
7838.04
7837.97
7837.89
7837.78
7837.65
7837.5
7837.33
7837.15
7836.95
7836.76
7836.55
7836.35
7836.14
7835.94
7835.69
7838.06
7837.54
7837.48
7837.42
7837.31
7837.21
7837.07
7836.93
7836.78
7836.61
7836.44
7836.26
7836.1
7835.92
7835.75
7835.53
7837.56
7837.09
7837.04
7836.98
7836.9
7836.81
7836.69
7836.57
7836.43
7836.29
7836.15
7836
7835.85
7835.7
7835.55
7835.36
7837.11
7836.68
7836.63
7836.59
7836.51
7836.44
7836.34
7836.23
7836.12
7836
7835.87
7835.74
7835.62
7835.49
7835.36
7835.18
7836.69
7836.31
7836.27
7836.23
7836.16
7836.1
7836.01
7835.92
7835.82
7835.72
7835.61
7835.5
7835.39
7835.28
7835.16
7835.01
7836.32
7835.97
7835.93
7835.9
7835.84
7835.78
7835.71
7835.63
7835.54
7835.45
7835.36
7835.27
7835.17
7835.07
7834.97
7834.82
7835.98
7835.65
7835.62
7835.59
7835.54
7835.49
7835.43
7835.36
7835.28
7835.21
7835.13
7835.04
7834.96
7834.87
7834.78
7834.64
7835.66
7835.36
7835.33
7835.31
7835.26
7835.22
7835.16
7835.1
7835.04
7834.97
7834.9
7834.82
7834.75
7834.67
7834.59
7834.46
7835.37
7835.09
7835.07
7835.05
7835.01
7834.97
7834.92
7834.87
7834.81
7834.75
7834.68
7834.62
7834.55
7834.48
7834.4
7834.28
7835.1
7834.84
7834.82
7834.8
7834.77
7834.73
7834.69
7834.64
7834.59
7834.53
7834.48
7834.42
7834.36
7834.29
7834.22
7834.1
7834.85
7834.61
7834.59
7834.57
7834.54
7834.51
7834.47
7834.43
7834.38
7834.33
7834.28
7834.22
7834.17
7834.11
7834.03
7833.92
7834.62
7834.39
7834.37
7834.36
7834.33
7834.3
7834.26
7834.22
7834.18
7834.13
7834.09
7834.03
7833.98
7833.92
7833.85
7833.74
7834.4
7834.19
7834.17
7834.16
7834.13
7834.1
7834.07
7834.03
7833.99
7833.95
7833.9
7833.85
7833.8
7833.75
7833.68
7833.57
7834.19
7834
7833.99
7833.97
7833.95
7833.92
7833.89
7833.85
7833.81
7833.77
7833.73
7833.68
7833.63
7833.58
7833.51
7833.4
7834
7833.82
7833.81
7833.8
7833.77
7833.75
7833.72
7833.68
7833.65
7833.6
7833.56
7833.51
7833.47
7833.41
7833.34
7833.23
7833.83
7833.66
7833.65
7833.63
7833.61
7833.59
7833.56
7833.52
7833.49
7833.45
7833.4
7833.36
7833.31
7833.25
7833.18
7833.07
7833.66
7833.51
7833.5
7833.48
7833.46
7833.44
7833.41
7833.37
7833.34
7833.3
7833.25
7833.21
7833.15
7833.1
7833.02
7832.91
7833.51
7833.37
7833.36
7833.34
7833.32
7833.3
7833.27
7833.24
7833.2
7833.16
7833.11
7833.06
7833.01
7832.95
7832.87
7832.76
7833.37
7833.24
7833.23
7833.21
7833.19
7833.17
7833.14
7833.11
7833.07
7833.03
7832.98
7832.93
7832.87
7832.81
7832.73
7832.61
7833.24
7833.12
7833.11
7833.1
7833.08
7833.05
7833.02
7832.99
7832.95
7832.91
7832.86
7832.81
7832.75
7832.68
7832.59
7832.46
7833.13
7833.02
7833.01
7832.99
7832.97
7832.95
7832.92
7832.89
7832.85
7832.8
7832.75
7832.7
7832.63
7832.56
7832.46
7832.32
7833.02
7832.92
7832.91
7832.9
7832.88
7832.85
7832.83
7832.79
7832.75
7832.71
7832.66
7832.6
7832.53
7832.45
7832.34
7832.19
7832.92
7832.84
7832.83
7832.81
7832.8
7832.77
7832.74
7832.71
7832.67
7832.63
7832.57
7832.51
7832.44
7832.35
7832.24
7832.08
7832.84
7832.76
7832.75
7832.74
7832.72
7832.7
7832.68
7832.64
7832.6
7832.56
7832.51
7832.44
7832.37
7832.28
7832.15
7831.97
7832.77
7832.7
7832.69
7832.68
7832.66
7832.64
7832.62
7832.59
7832.55
7832.51
7832.46
7832.39
7832.32
7832.22
7832.09
7831.89
7832.7
7832.65
7832.64
7832.63
7832.61
7832.6
7832.57
7832.54
7832.51
7832.47
7832.42
7832.36
7832.29
7832.2
7832.07
7831.85
7832.65
7832.6
7832.59
7832.58
7832.57
7832.55
7832.53
7832.51
7832.48
7832.44
7832.4
7832.36
7832.3
7832.23
7832.13
7831.97
7832.6
7832.58
7832.57
7832.56
7832.55
7832.54
7832.52
7832.5
7832.47
7832.44
7832.41
7832.36
7832.32
7832.27
7832.2
7832.09
7832.58
7832.58
7832.57
7832.56
7832.55
7832.54
7832.52
7832.5
7832.47
7832.44
7832.41
7832.36
7832.32
7832.27
7832.2
7832.09
7832.58
)
;

boundaryField
{
    wireUpstream
    {
        type            calculated;
        value           nonuniform List<scalar> 
16
(
7832.55
7832.55
7832.54
7832.53
7832.52
7832.5
7832.48
7832.46
7832.43
7832.4
7832.37
7832.33
7832.29
7832.27
7832.24
7832.55
)
;
    }
    wireDownstream
    {
        type            calculated;
        value           nonuniform List<scalar> 
16
(
7861.47
7860.33
7858.79
7856.95
7854.68
7852.13
7849.12
7845.72
7842.01
7837.32
7831.99
7824.67
7816.78
7808.24
7802.71
7861.99
)
;
    }
    wireTopContact
    {
        type            calculated;
        value           nonuniform List<scalar> 
122
(
7802.22
7802.21
7802.21
7802.22
7802.22
7802.21
7802.21
7802.2
7802.18
7802.16
7802.14
7802.12
7802.09
7802.05
7802.02
7801.98
7801.94
7801.89
7801.84
7801.78
7801.72
7801.66
7801.59
7801.51
7801.43
7801.34
7801.24
7801.13
7801.01
7800.89
7800.76
7800.62
7800.47
7800.33
7800.19
7800.06
7799.95
7799.88
7799.86
7799.92
7800.1
7800.45
7801.06
7802.3
7805.64
7811.02
7816.67
7822.59
7828.6
7834.73
7841.2
7848.25
7855.89
7863.86
7871.29
7877.38
7882.11
7885.44
7887.38
7887.96
7887.26
7885.33
7882.31
7878.32
7873.6
7868.36
7862.89
7857.52
7852.58
7848.46
7845.52
7843.84
7842.96
7841.83
7840.63
7839.47
7838.59
7837.99
7837.57
7837.28
7837.08
7836.93
7836.82
7836.73
7836.64
7836.55
7836.45
7836.35
7836.23
7836.1
7835.97
7835.82
7835.66
7835.5
7835.33
7835.16
7834.98
7834.81
7834.63
7834.44
7834.26
7834.09
7833.91
7833.73
7833.56
7833.39
7833.22
7833.06
7832.9
7832.75
7832.6
7832.45
7832.32
7832.19
7832.07
7831.97
7831.89
7831.85
7831.95
7832.04
7832.04
7802.19
)
;
    }
    front
    {
        type            wedge;
    }
    back
    {
        type            wedge;
    }
}


// ************************************************************************* //
