/*--------------------------------*- C++ -*----------------------------------*\
| =========                 |                                                 |
| \\      /  F ield         | foam-extend: Open Source CFD                    |
|  \\    /   O peration     | Version:     4.1-20200408                       |
|   \\  /    A nd           | Web:         http://www.foam-extend.org         |
|    \\/     M anipulation  |                                                 |
\*---------------------------------------------------------------------------*/
FoamFile
{
    version     2.0;
    format      ascii;
    class       volVectorField;
    location    "0.0220000";
    object      DU;
}
// * * * * * * * * * * * * * * * * * * * * * * * * * * * * * * * * * * * * * //

dimensions      [0 1 0 0 0 0 0];

internalField   nonuniform List<vector> 
1952
(
(5.00019e-05 4.08847e-09 0)
(5.00019e-05 6.63549e-09 0)
(5.00019e-05 9.16696e-09 0)
(5.00018e-05 1.16268e-08 0)
(5.00018e-05 1.40597e-08 0)
(5.00017e-05 1.63063e-08 0)
(5.00016e-05 1.85757e-08 0)
(5.00016e-05 2.05452e-08 0)
(5.00015e-05 2.26048e-08 0)
(5.00013e-05 2.42797e-08 0)
(5.00012e-05 2.61156e-08 0)
(5.0001e-05 2.75076e-08 0)
(5.00005e-05 2.90475e-08 0)
(4.99994e-05 2.99938e-08 0)
(4.99957e-05 3.04142e-08 0)
(5.00019e-05 1.75478e-09 0)
(5.00048e-05 3.26726e-09 0)
(5.00047e-05 5.29087e-09 0)
(5.00047e-05 7.30858e-09 0)
(5.00046e-05 9.25512e-09 0)
(5.00044e-05 1.11651e-08 0)
(5.00043e-05 1.29302e-08 0)
(5.00041e-05 1.466e-08 0)
(5.00038e-05 1.61704e-08 0)
(5.00036e-05 1.76464e-08 0)
(5.00032e-05 1.88239e-08 0)
(5.00028e-05 1.99416e-08 0)
(5.00021e-05 2.06486e-08 0)
(5.00011e-05 2.11633e-08 0)
(4.99993e-05 2.10629e-08 0)
(4.99961e-05 2.04551e-08 0)
(5.00048e-05 1.40126e-09 0)
(5.00064e-05 2.59569e-09 0)
(5.00063e-05 4.19627e-09 0)
(5.00062e-05 5.79262e-09 0)
(5.00061e-05 7.32159e-09 0)
(5.00059e-05 8.81015e-09 0)
(5.00056e-05 1.01769e-08 0)
(5.00053e-05 1.14837e-08 0)
(5.0005e-05 1.26122e-08 0)
(5.00045e-05 1.36545e-08 0)
(5.0004e-05 1.44481e-08 0)
(5.00033e-05 1.51078e-08 0)
(5.00022e-05 1.54203e-08 0)
(5.00008e-05 1.55199e-08 0)
(4.99986e-05 1.51855e-08 0)
(4.99953e-05 1.4651e-08 0)
(5.00065e-05 1.1129e-09 0)
(5.00075e-05 2.01576e-09 0)
(5.00074e-05 3.25435e-09 0)
(5.00073e-05 4.48501e-09 0)
(5.0007e-05 5.65327e-09 0)
(5.00068e-05 6.77928e-09 0)
(5.00064e-05 7.79557e-09 0)
(5.00061e-05 8.74475e-09 0)
(5.00056e-05 9.53451e-09 0)
(5.0005e-05 1.02264e-08 0)
(5.00043e-05 1.06986e-08 0)
(5.00034e-05 1.10369e-08 0)
(5.00022e-05 1.10873e-08 0)
(5.00006e-05 1.09997e-08 0)
(4.99984e-05 1.06149e-08 0)
(4.99956e-05 1.03169e-08 0)
(5.00075e-05 8.64363e-10 0)
(5.00081e-05 1.50767e-09 0)
(5.00079e-05 2.42975e-09 0)
(5.00078e-05 3.34103e-09 0)
(5.00075e-05 4.19512e-09 0)
(5.00072e-05 5.00858e-09 0)
(5.00068e-05 5.72322e-09 0)
(5.00064e-05 6.37391e-09 0)
(5.00057e-05 6.88381e-09 0)
(5.00051e-05 7.3047e-09 0)
(5.00042e-05 7.54037e-09 0)
(5.00032e-05 7.6717e-09 0)
(5.00019e-05 7.58451e-09 0)
(5.00002e-05 7.43524e-09 0)
(4.99982e-05 7.10417e-09 0)
(4.99957e-05 6.93646e-09 0)
(5.00081e-05 6.4663e-10 0)
(5.00082e-05 1.07182e-09 0)
(5.0008e-05 1.72292e-09 0)
(5.00079e-05 2.36188e-09 0)
(5.00076e-05 2.94928e-09 0)
(5.00072e-05 3.50055e-09 0)
(5.00067e-05 3.96443e-09 0)
(5.00063e-05 4.3736e-09 0)
(5.00056e-05 4.662e-09 0)
(5.00048e-05 4.87977e-09 0)
(5.00039e-05 4.94821e-09 0)
(5.00028e-05 4.94875e-09 0)
(5.00015e-05 4.79209e-09 0)
(4.99999e-05 4.63235e-09 0)
(4.99981e-05 4.3672e-09 0)
(4.99961e-05 4.30013e-09 0)
(5.00083e-05 4.59832e-10 0)
(5.0008e-05 7.03303e-10 0)
(5.00078e-05 1.12593e-09 0)
(5.00076e-05 1.5367e-09 0)
(5.00073e-05 1.90214e-09 0)
(5.00069e-05 2.23826e-09 0)
(5.00064e-05 2.49947e-09 0)
(5.00059e-05 2.71872e-09 0)
(5.00051e-05 2.83856e-09 0)
(5.00044e-05 2.90951e-09 0)
(5.00034e-05 2.86622e-09 0)
(5.00023e-05 2.78875e-09 0)
(5.0001e-05 2.60516e-09 0)
(4.99996e-05 2.45551e-09 0)
(4.9998e-05 2.25026e-09 0)
(4.99963e-05 2.23419e-09 0)
(5.0008e-05 3.01858e-10 0)
(5.00075e-05 3.97074e-10 0)
(5.00073e-05 6.30489e-10 0)
(5.00071e-05 8.53607e-10 0)
(5.00067e-05 1.03801e-09 0)
(5.00064e-05 1.20118e-09 0)
(5.00058e-05 1.3023e-09 0)
(5.00053e-05 1.37538e-09 0)
(5.00045e-05 1.36997e-09 0)
(5.00038e-05 1.33672e-09 0)
(5.00028e-05 1.22043e-09 0)
(5.00018e-05 1.09712e-09 0)
(5.00006e-05 9.06913e-10 0)
(4.99993e-05 7.72044e-10 0)
(4.99979e-05 6.12863e-10 0)
(4.99966e-05 6.24782e-10 0)
(5.00075e-05 1.70552e-10 0)
(5.00068e-05 1.4708e-10 0)
(5.00066e-05 2.26647e-10 0)
(5.00064e-05 2.98321e-10 0)
(5.0006e-05 3.37967e-10 0)
(5.00056e-05 3.64959e-10 0)
(5.00051e-05 3.42362e-10 0)
(5.00046e-05 3.05406e-10 0)
(5.00038e-05 2.09155e-10 0)
(5.00031e-05 1.03669e-10 0)
(5.00021e-05 -5.87573e-11 0)
(5.00012e-05 -2.07989e-10 0)
(5.00001e-05 -3.95267e-10 0)
(4.9999e-05 -5.17312e-10 0)
(4.99978e-05 -6.44746e-10 0)
(4.99967e-05 -6.24657e-10 0)
(5.00068e-05 6.33277e-11 0)
(5.00059e-05 -5.33885e-11 0)
(5.00057e-05 -9.66605e-11 0)
(5.00055e-05 -1.44989e-10 0)
(5.00051e-05 -2.1894e-10 0)
(5.00048e-05 -2.97189e-10 0)
(5.00042e-05 -4.13575e-10 0)
(5.00037e-05 -5.31892e-10 0)
(5.0003e-05 -6.92834e-10 0)
(5.00023e-05 -8.47717e-10 0)
(5.00014e-05 -1.03871e-09 0)
(5.00006e-05 -1.20249e-09 0)
(4.99996e-05 -1.38385e-09 0)
(4.99986e-05 -1.49719e-09 0)
(4.99977e-05 -1.60475e-09 0)
(4.99968e-05 -1.5878e-09 0)
(5.00059e-05 -2.26794e-11 0)
(5.00049e-05 -2.11209e-10 0)
(5.00047e-05 -3.50757e-10 0)
(5.00045e-05 -4.92398e-10 0)
(5.00042e-05 -6.53817e-10 0)
(5.00038e-05 -8.11838e-10 0)
(5.00033e-05 -9.97967e-10 0)
(5.00028e-05 -1.17528e-09 0)
(5.00021e-05 -1.38141e-09 0)
(5.00015e-05 -1.56946e-09 0)
(5.00007e-05 -1.77767e-09 0)
(4.99999e-05 -1.94956e-09 0)
(4.99991e-05 -2.12506e-09 0)
(4.99983e-05 -2.23412e-09 0)
(4.99975e-05 -2.33127e-09 0)
(4.99968e-05 -2.32528e-09 0)
(5.00049e-05 -9.04103e-11 0)
(5.00038e-05 -3.33267e-10 0)
(5.00036e-05 -5.46938e-10 0)
(5.00034e-05 -7.59845e-10 0)
(5.00031e-05 -9.87411e-10 0)
(5.00028e-05 -1.20481e-09 0)
(5.00023e-05 -1.44188e-09 0)
(5.00019e-05 -1.66124e-09 0)
(5.00012e-05 -1.89836e-09 0)
(5.00007e-05 -2.10839e-09 0)
(4.99999e-05 -2.32676e-09 0)
(4.99993e-05 -2.50341e-09 0)
(4.99985e-05 -2.67446e-09 0)
(4.99979e-05 -2.78302e-09 0)
(4.99972e-05 -2.87665e-09 0)
(4.99967e-05 -2.88596e-09 0)
(5.00039e-05 -1.4281e-10 0)
(5.00027e-05 -4.26042e-10 0)
(5.00025e-05 -6.95795e-10 0)
(5.00023e-05 -9.62166e-10 0)
(5.0002e-05 -1.23888e-09 0)
(5.00017e-05 -1.49968e-09 0)
(5.00013e-05 -1.77326e-09 0)
(5.00009e-05 -2.02203e-09 0)
(5.00003e-05 -2.27999e-09 0)
(4.99998e-05 -2.50435e-09 0)
(4.99992e-05 -2.72859e-09 0)
(4.99986e-05 -2.9083e-09 0)
(4.9998e-05 -3.07667e-09 0)
(4.99974e-05 -3.18763e-09 0)
(4.99969e-05 -3.28258e-09 0)
(4.99965e-05 -3.30944e-09 0)
(5.00027e-05 -1.82652e-10 0)
(5.00015e-05 -4.95536e-10 0)
(5.00013e-05 -8.0711e-10 0)
(5.00012e-05 -1.11299e-09 0)
(5.00009e-05 -1.42569e-09 0)
(5.00007e-05 -1.71771e-09 0)
(5.00002e-05 -2.01707e-09 0)
(4.99999e-05 -2.28607e-09 0)
(4.99994e-05 -2.55781e-09 0)
(4.9999e-05 -2.7914e-09 0)
(4.99984e-05 -3.01903e-09 0)
(4.9998e-05 -3.20106e-09 0)
(4.99974e-05 -3.36841e-09 0)
(4.9997e-05 -3.48372e-09 0)
(4.99965e-05 -3.58309e-09 0)
(4.99962e-05 -3.62809e-09 0)
(5.00015e-05 -2.12507e-10 0)
(5.00003e-05 -5.47095e-10 0)
(5.00002e-05 -8.89564e-10 0)
(5e-05 -1.22434e-09 0)
(4.99998e-05 -1.56314e-09 0)
(4.99996e-05 -1.87737e-09 0)
(4.99992e-05 -2.19475e-09 0)
(4.99989e-05 -2.4775e-09 0)
(4.99985e-05 -2.75825e-09 0)
(4.99981e-05 -2.99775e-09 0)
(4.99976e-05 -3.22737e-09 0)
(4.99973e-05 -3.4114e-09 0)
(4.99968e-05 -3.57906e-09 0)
(4.99965e-05 -3.69981e-09 0)
(4.99961e-05 -3.80539e-09 0)
(4.99959e-05 -3.86798e-09 0)
(5.00003e-05 -2.34667e-10 0)
(4.99991e-05 -5.85389e-10 0)
(4.9999e-05 -9.5072e-10 0)
(4.99989e-05 -1.30665e-09 0)
(4.99986e-05 -1.66444e-09 0)
(4.99985e-05 -1.99449e-09 0)
(4.99982e-05 -2.3245e-09 0)
(4.99979e-05 -2.61664e-09 0)
(4.99975e-05 -2.90331e-09 0)
(4.99973e-05 -3.14668e-09 0)
(4.99969e-05 -3.37762e-09 0)
(4.99966e-05 -3.56351e-09 0)
(4.99962e-05 -3.7324e-09 0)
(4.9996e-05 -3.85895e-09 0)
(4.99957e-05 -3.97144e-09 0)
(4.99955e-05 -4.05024e-09 0)
(4.99991e-05 -2.51132e-10 0)
(4.99979e-05 -6.14433e-10 0)
(4.99978e-05 -9.97067e-10 0)
(4.99977e-05 -1.36884e-09 0)
(4.99975e-05 -1.74079e-09 0)
(4.99974e-05 -2.08245e-09 0)
(4.99971e-05 -2.42159e-09 0)
(4.9997e-05 -2.72041e-09 0)
(4.99966e-05 -3.01118e-09 0)
(4.99965e-05 -3.25725e-09 0)
(4.99961e-05 -3.48925e-09 0)
(4.99959e-05 -3.67687e-09 0)
(4.99956e-05 -3.84752e-09 0)
(4.99954e-05 -3.9796e-09 0)
(4.99952e-05 -4.09891e-09 0)
(4.99951e-05 -4.19192e-09 0)
(4.99979e-05 -2.63626e-10 0)
(4.99967e-05 -6.37537e-10 0)
(4.99966e-05 -1.03394e-09 0)
(4.99966e-05 -1.4182e-09 0)
(4.99964e-05 -1.80136e-09 0)
(4.99963e-05 -2.15211e-09 0)
(4.99961e-05 -2.49837e-09 0)
(4.9996e-05 -2.80239e-09 0)
(4.99957e-05 -3.09634e-09 0)
(4.99956e-05 -3.34455e-09 0)
(4.99953e-05 -3.57759e-09 0)
(4.99952e-05 -3.76678e-09 0)
(4.99949e-05 -3.93935e-09 0)
(4.99948e-05 -4.0762e-09 0)
(4.99947e-05 -4.20159e-09 0)
(4.99946e-05 -4.30637e-09 0)
(4.99967e-05 -2.73569e-10 0)
(4.99955e-05 -6.5749e-10 0)
(4.99954e-05 -1.06583e-09 0)
(4.99954e-05 -1.4609e-09 0)
(4.99953e-05 -1.85382e-09 0)
(4.99953e-05 -2.21253e-09 0)
(4.99951e-05 -2.56508e-09 0)
(4.9995e-05 -2.87381e-09 0)
(4.99948e-05 -3.17072e-09 0)
(4.99948e-05 -3.42099e-09 0)
(4.99945e-05 -3.6552e-09 0)
(4.99945e-05 -3.84571e-09 0)
(4.99943e-05 -4.02004e-09 0)
(4.99943e-05 -4.1605e-09 0)
(4.99941e-05 -4.29075e-09 0)
(4.99941e-05 -4.40451e-09 0)
(4.99955e-05 -2.82156e-10 0)
(4.99943e-05 -6.76406e-10 0)
(4.99942e-05 -1.09614e-09 0)
(4.99942e-05 -1.50155e-09 0)
(4.99942e-05 -1.90394e-09 0)
(4.99942e-05 -2.27053e-09 0)
(4.9994e-05 -2.62936e-09 0)
(4.99941e-05 -2.94303e-09 0)
(4.99939e-05 -3.24316e-09 0)
(4.99939e-05 -3.49568e-09 0)
(4.99938e-05 -3.73125e-09 0)
(4.99938e-05 -3.92273e-09 0)
(4.99936e-05 -4.09842e-09 0)
(4.99937e-05 -4.24098e-09 0)
(4.99936e-05 -4.37448e-09 0)
(4.99936e-05 -4.49417e-09 0)
(4.99943e-05 -2.90297e-10 0)
(4.9993e-05 -6.96011e-10 0)
(4.9993e-05 -1.12764e-09 0)
(4.99931e-05 -1.54395e-09 0)
(4.9993e-05 -1.95643e-09 0)
(4.99931e-05 -2.33167e-09 0)
(4.9993e-05 -2.69749e-09 0)
(4.99931e-05 -3.0169e-09 0)
(4.9993e-05 -3.32088e-09 0)
(4.99931e-05 -3.57613e-09 0)
(4.9993e-05 -3.81331e-09 0)
(4.99931e-05 -4.00534e-09 0)
(4.9993e-05 -4.18178e-09 0)
(4.9993e-05 -4.32468e-09 0)
(4.9993e-05 -4.45952e-09 0)
(4.9993e-05 -4.58182e-09 0)
(4.9993e-05 -2.98732e-10 0)
(4.99918e-05 -7.17392e-10 0)
(4.99918e-05 -1.16208e-09 0)
(4.99919e-05 -1.5905e-09 0)
(4.99919e-05 -2.01426e-09 0)
(4.9992e-05 -2.39945e-09 0)
(4.9992e-05 -2.77336e-09 0)
(4.99921e-05 -3.0997e-09 0)
(4.99921e-05 -3.40839e-09 0)
(4.99922e-05 -3.66695e-09 0)
(4.99922e-05 -3.906e-09 0)
(4.99924e-05 -4.09807e-09 0)
(4.99923e-05 -4.27449e-09 0)
(4.99924e-05 -4.41571e-09 0)
(4.99924e-05 -4.54974e-09 0)
(4.99925e-05 -4.67112e-09 0)
(4.99918e-05 -3.07929e-10 0)
(4.99905e-05 -7.41304e-10 0)
(4.99905e-05 -1.20068e-09 0)
(4.99906e-05 -1.64287e-09 0)
(4.99907e-05 -2.0795e-09 0)
(4.99909e-05 -2.47639e-09 0)
(4.99909e-05 -2.85981e-09 0)
(4.99911e-05 -3.19459e-09 0)
(4.99911e-05 -3.50899e-09 0)
(4.99914e-05 -3.77164e-09 0)
(4.99914e-05 -4.01284e-09 0)
(4.99916e-05 -4.20445e-09 0)
(4.99916e-05 -4.37996e-09 0)
(4.99918e-05 -4.51733e-09 0)
(4.99918e-05 -4.64821e-09 0)
(4.99919e-05 -4.76489e-09 0)
(4.99905e-05 -3.18211e-10 0)
(4.99892e-05 -7.67865e-10 0)
(4.99892e-05 -1.24363e-09 0)
(4.99894e-05 -1.70136e-09 0)
(4.99895e-05 -2.15253e-09 0)
(4.99897e-05 -2.56299e-09 0)
(4.99898e-05 -2.95738e-09 0)
(4.99901e-05 -3.30222e-09 0)
(4.99902e-05 -3.62341e-09 0)
(4.99905e-05 -3.89096e-09 0)
(4.99906e-05 -4.13462e-09 0)
(4.99909e-05 -4.32516e-09 0)
(4.9991e-05 -4.49883e-09 0)
(4.99912e-05 -4.62998e-09 0)
(4.99912e-05 -4.75523e-09 0)
(4.99913e-05 -4.8632e-09 0)
(4.99892e-05 -3.29631e-10 0)
(4.99878e-05 -7.96786e-10 0)
(4.99879e-05 -1.29049e-09 0)
(4.99881e-05 -1.76542e-09 0)
(4.99882e-05 -2.23267e-09 0)
(4.99885e-05 -2.65856e-09 0)
(4.99887e-05 -3.06533e-09 0)
(4.9989e-05 -3.42195e-09 0)
(4.99892e-05 -3.75098e-09 0)
(4.99896e-05 -4.02438e-09 0)
(4.99898e-05 -4.27078e-09 0)
(4.99902e-05 -4.45975e-09 0)
(4.99903e-05 -4.6306e-09 0)
(4.99906e-05 -4.75312e-09 0)
(4.99907e-05 -4.87013e-09 0)
(4.99908e-05 -4.96511e-09 0)
(4.99878e-05 -3.42064e-10 0)
(4.99864e-05 -8.27081e-10 0)
(4.99865e-05 -1.33969e-09 0)
(4.99867e-05 -1.83296e-09 0)
(4.99869e-05 -2.31736e-09 0)
(4.99873e-05 -2.76022e-09 0)
(4.99875e-05 -3.18051e-09 0)
(4.99879e-05 -3.55047e-09 0)
(4.99882e-05 -3.88832e-09 0)
(4.99887e-05 -4.16847e-09 0)
(4.9989e-05 -4.41796e-09 0)
(4.99894e-05 -4.60482e-09 0)
(4.99896e-05 -4.77197e-09 0)
(4.999e-05 -4.88331e-09 0)
(4.99901e-05 -4.98944e-09 0)
(4.99903e-05 -5.06691e-09 0)
(4.99863e-05 -3.55088e-10 0)
(4.99849e-05 -8.57131e-10 0)
(4.9985e-05 -1.38866e-09 0)
(4.99853e-05 -1.90058e-09 0)
(4.99855e-05 -2.4024e-09 0)
(4.9986e-05 -2.86325e-09 0)
(4.99862e-05 -3.29765e-09 0)
(4.99868e-05 -3.68234e-09 0)
(4.99871e-05 -4.02974e-09 0)
(4.99878e-05 -4.31762e-09 0)
(4.99881e-05 -4.57055e-09 0)
(4.99887e-05 -4.75494e-09 0)
(4.9989e-05 -4.91756e-09 0)
(4.99894e-05 -5.01523e-09 0)
(4.99896e-05 -5.10784e-09 0)
(4.99898e-05 -5.163e-09 0)
(4.99848e-05 -3.68008e-10 0)
(4.99833e-05 -8.84459e-10 0)
(4.99835e-05 -1.43344e-09 0)
(4.99838e-05 -1.963e-09 0)
(4.99841e-05 -2.48131e-09 0)
(4.99846e-05 -2.96023e-09 0)
(4.9985e-05 -3.40858e-09 0)
(4.99856e-05 -3.80889e-09 0)
(4.99861e-05 -4.16629e-09 0)
(4.99868e-05 -4.46281e-09 0)
(4.99872e-05 -4.71958e-09 0)
(4.99879e-05 -4.90126e-09 0)
(4.99883e-05 -5.05878e-09 0)
(4.99889e-05 -5.14033e-09 0)
(4.99891e-05 -5.2169e-09 0)
(4.99894e-05 -5.2447e-09 0)
(4.99832e-05 -3.7976e-10 0)
(4.99816e-05 -9.05558e-10 0)
(4.99818e-05 -1.46845e-09 0)
(4.99822e-05 -2.01273e-09 0)
(4.99825e-05 -2.54488e-09 0)
(4.99831e-05 -3.04061e-09 0)
(4.99836e-05 -3.50161e-09 0)
(4.99844e-05 -3.91776e-09 0)
(4.99849e-05 -4.28512e-09 0)
(4.99858e-05 -4.59112e-09 0)
(4.99864e-05 -4.85219e-09 0)
(4.99872e-05 -5.03118e-09 0)
(4.99877e-05 -5.18334e-09 0)
(4.99883e-05 -5.24655e-09 0)
(4.99887e-05 -5.30477e-09 0)
(4.9989e-05 -5.3e-09 0)
(4.99815e-05 -3.88839e-10 0)
(4.99798e-05 -9.15766e-10 0)
(4.99801e-05 -1.48624e-09 0)
(4.99805e-05 -2.03981e-09 0)
(4.99809e-05 -2.58079e-09 0)
(4.99816e-05 -3.09025e-09 0)
(4.99822e-05 -3.56106e-09 0)
(4.99831e-05 -3.99234e-09 0)
(4.99837e-05 -4.36893e-09 0)
(4.99847e-05 -4.6851e-09 0)
(4.99855e-05 -4.95099e-09 0)
(4.99864e-05 -5.12769e-09 0)
(4.99871e-05 -5.27467e-09 0)
(4.99879e-05 -5.31769e-09 0)
(4.99883e-05 -5.35564e-09 0)
(4.99887e-05 -5.31295e-09 0)
(4.99798e-05 -3.93244e-10 0)
(4.9978e-05 -9.08822e-10 0)
(4.99783e-05 -1.47681e-09 0)
(4.99788e-05 -2.03077e-09 0)
(4.99792e-05 -2.57248e-09 0)
(4.998e-05 -3.08999e-09 0)
(4.99807e-05 -3.56572e-09 0)
(4.99817e-05 -4.00994e-09 0)
(4.99825e-05 -4.39418e-09 0)
(4.99836e-05 -4.7209e-09 0)
(4.99845e-05 -4.99223e-09 0)
(4.99857e-05 -5.16748e-09 0)
(4.99865e-05 -5.31018e-09 0)
(4.99874e-05 -5.33172e-09 0)
(4.9988e-05 -5.34815e-09 0)
(4.99886e-05 -5.26221e-09 0)
(4.99779e-05 -3.90286e-10 0)
(4.99761e-05 -8.76844e-10 0)
(4.99764e-05 -1.42754e-09 0)
(4.99769e-05 -1.96862e-09 0)
(4.99774e-05 -2.49893e-09 0)
(4.99783e-05 -3.01559e-09 0)
(4.99791e-05 -3.48857e-09 0)
(4.99802e-05 -3.94177e-09 0)
(4.99812e-05 -4.33071e-09 0)
(4.99825e-05 -4.6681e-09 0)
(4.99836e-05 -4.94546e-09 0)
(4.99849e-05 -5.12088e-09 0)
(4.99859e-05 -5.261e-09 0)
(4.9987e-05 -5.26071e-09 0)
(4.99878e-05 -5.25524e-09 0)
(4.99885e-05 -5.12094e-09 0)
(4.9976e-05 -3.7658e-10 0)
(4.99741e-05 -8.09626e-10 0)
(4.99744e-05 -1.32209e-09 0)
(4.9975e-05 -1.83128e-09 0)
(4.99756e-05 -2.33291e-09 0)
(4.99766e-05 -2.83529e-09 0)
(4.99774e-05 -3.29436e-09 0)
(4.99787e-05 -3.74986e-09 0)
(4.99798e-05 -4.13897e-09 0)
(4.99813e-05 -4.48636e-09 0)
(4.99826e-05 -4.7705e-09 0)
(4.99841e-05 -4.94843e-09 0)
(4.99854e-05 -5.08897e-09 0)
(4.99867e-05 -5.06769e-09 0)
(4.99877e-05 -5.04136e-09 0)
(4.99886e-05 -4.85409e-09 0)
(4.9974e-05 -3.47743e-10 0)
(4.99721e-05 -6.94737e-10 0)
(4.99724e-05 -1.14049e-09 0)
(4.99731e-05 -1.59175e-09 0)
(4.99737e-05 -2.04088e-09 0)
(4.99748e-05 -2.5101e-09 0)
(4.99757e-05 -2.9394e-09 0)
(4.99771e-05 -3.38734e-09 0)
(4.99784e-05 -3.76961e-09 0)
(4.99801e-05 -4.12566e-09 0)
(4.99816e-05 -4.41704e-09 0)
(4.99833e-05 -4.60114e-09 0)
(4.99848e-05 -4.74642e-09 0)
(4.99865e-05 -4.7069e-09 0)
(4.99877e-05 -4.66251e-09 0)
(4.99888e-05 -4.41855e-09 0)
(4.99719e-05 -2.98437e-10 0)
(4.99701e-05 -5.16636e-10 0)
(4.99704e-05 -8.57792e-10 0)
(4.99711e-05 -1.21607e-09 0)
(4.99718e-05 -1.58074e-09 0)
(4.99729e-05 -1.99057e-09 0)
(4.99739e-05 -2.3684e-09 0)
(4.99755e-05 -2.79411e-09 0)
(4.99769e-05 -3.15956e-09 0)
(4.99788e-05 -3.52131e-09 0)
(4.99805e-05 -3.82027e-09 0)
(4.99825e-05 -4.01532e-09 0)
(4.99843e-05 -4.17175e-09 0)
(4.99863e-05 -4.11906e-09 0)
(4.99878e-05 -4.06206e-09 0)
(4.99892e-05 -3.75907e-09 0)
(4.99699e-05 -2.21988e-10 0)
(4.99681e-05 -2.56968e-10 0)
(4.99685e-05 -4.44389e-10 0)
(4.99692e-05 -6.63961e-10 0)
(4.99699e-05 -9.02151e-10 0)
(4.99711e-05 -1.21754e-09 0)
(4.99722e-05 -1.51451e-09 0)
(4.99738e-05 -1.89762e-09 0)
(4.99754e-05 -2.23176e-09 0)
(4.99775e-05 -2.59445e-09 0)
(4.99794e-05 -2.90038e-09 0)
(4.99817e-05 -3.11302e-09 0)
(4.99839e-05 -3.28904e-09 0)
(4.99861e-05 -3.23166e-09 0)
(4.9988e-05 -3.17079e-09 0)
(4.99898e-05 -2.80857e-09 0)
(4.9968e-05 -1.10512e-10 0)
(4.99664e-05 1.06312e-10 0)
(4.99667e-05 1.35295e-10 0)
(4.99674e-05 1.13382e-10 0)
(4.99681e-05 5.59183e-11 0)
(4.99693e-05 -1.18476e-10 0)
(4.99704e-05 -2.95639e-10 0)
(4.99722e-05 -6.07573e-10 0)
(4.99739e-05 -8.90174e-10 0)
(4.99761e-05 -1.24553e-09 0)
(4.99783e-05 -1.55658e-09 0)
(4.99809e-05 -1.79483e-09 0)
(4.99834e-05 -2.00165e-09 0)
(4.99861e-05 -1.95226e-09 0)
(4.99884e-05 -1.9008e-09 0)
(4.99907e-05 -1.48217e-09 0)
(4.99662e-05 4.54543e-11 0)
(4.99649e-05 5.98204e-10 0)
(4.99652e-05 9.21811e-10 0)
(4.99659e-05 1.17175e-09 0)
(4.99664e-05 1.36391e-09 0)
(4.99677e-05 1.39071e-09 0)
(4.99688e-05 1.38458e-09 0)
(4.99706e-05 1.18255e-09 0)
(4.99723e-05 9.80043e-10 0)
(4.99747e-05 6.44873e-10 0)
(4.99772e-05 3.33542e-10 0)
(4.99801e-05 5.99031e-11 0)
(4.9983e-05 -1.91503e-10 0)
(4.99861e-05 -1.68475e-10 0)
(4.9989e-05 -1.454e-10 0)
(4.99917e-05 3.22478e-10 0)
(4.99647e-05 2.56645e-10 0)
(4.99638e-05 1.2471e-09 0)
(4.9964e-05 1.96134e-09 0)
(4.99647e-05 2.57529e-09 0)
(4.99651e-05 3.10322e-09 0)
(4.99663e-05 3.40858e-09 0)
(4.99673e-05 3.63992e-09 0)
(4.99691e-05 3.60066e-09 0)
(4.99709e-05 3.51785e-09 0)
(4.99733e-05 3.22378e-09 0)
(4.9976e-05 2.92165e-09 0)
(4.99792e-05 2.60255e-09 0)
(4.99825e-05 2.29018e-09 0)
(4.99862e-05 2.26172e-09 0)
(4.99897e-05 2.23006e-09 0)
(4.99931e-05 2.7341e-09 0)
(4.99637e-05 5.3524e-10 0)
(4.99634e-05 2.08313e-09 0)
(4.99635e-05 3.30325e-09 0)
(4.9964e-05 4.39311e-09 0)
(4.99643e-05 5.36278e-09 0)
(4.99653e-05 6.04398e-09 0)
(4.99661e-05 6.59836e-09 0)
(4.99678e-05 6.79241e-09 0)
(4.99695e-05 6.88466e-09 0)
(4.9972e-05 6.66396e-09 0)
(4.99748e-05 6.38914e-09 0)
(4.99783e-05 6.01552e-09 0)
(4.99821e-05 5.62471e-09 0)
(4.99863e-05 5.51125e-09 0)
(4.99905e-05 5.38974e-09 0)
(4.99947e-05 5.9087e-09 0)
(4.99633e-05 8.94167e-10 0)
(4.99638e-05 3.13737e-09 0)
(4.99637e-05 4.99881e-09 0)
(4.99641e-05 6.69808e-09 0)
(4.99641e-05 8.2375e-09 0)
(4.99648e-05 9.41573e-09 0)
(4.99654e-05 1.04019e-08 0)
(4.99668e-05 1.09237e-08 0)
(4.99683e-05 1.12675e-08 0)
(4.99707e-05 1.11709e-08 0)
(4.99736e-05 1.09553e-08 0)
(4.99773e-05 1.05238e-08 0)
(4.99815e-05 1.00384e-08 0)
(4.99864e-05 9.7973e-09 0)
(4.99914e-05 9.54029e-09 0)
(4.99967e-05 1.00414e-08 0)
(4.99638e-05 1.34674e-09 0)
(4.99654e-05 4.4385e-09 0)
(4.9965e-05 7.09599e-09 0)
(4.99651e-05 9.55969e-09 0)
(4.99648e-05 1.18204e-08 0)
(4.99652e-05 1.36432e-08 0)
(4.99653e-05 1.51981e-08 0)
(4.99663e-05 1.61718e-08 0)
(4.99675e-05 1.68732e-08 0)
(4.99697e-05 1.69779e-08 0)
(4.99725e-05 1.68763e-08 0)
(4.99763e-05 1.63957e-08 0)
(4.9981e-05 1.58062e-08 0)
(4.99865e-05 1.5385e-08 0)
(4.99924e-05 1.4934e-08 0)
(4.99989e-05 1.5367e-08 0)
(4.99654e-05 1.90523e-09 0)
(4.99684e-05 6.00952e-09 0)
(4.99677e-05 9.6342e-09 0)
(4.99675e-05 1.30373e-08 0)
(4.99667e-05 1.6194e-08 0)
(4.99666e-05 1.88382e-08 0)
(4.99661e-05 2.11308e-08 0)
(4.99666e-05 2.27188e-08 0)
(4.99672e-05 2.39229e-08 0)
(4.9969e-05 2.43471e-08 0)
(4.99715e-05 2.44509e-08 0)
(4.99753e-05 2.39571e-08 0)
(4.99803e-05 2.32726e-08 0)
(4.99864e-05 2.26135e-08 0)
(4.99935e-05 2.18982e-08 0)
(5.00013e-05 2.2189e-08 0)
(4.99684e-05 2.57944e-09 0)
(4.99732e-05 7.86177e-09 0)
(4.99722e-05 1.26347e-08 0)
(4.99716e-05 1.71671e-08 0)
(4.99702e-05 2.14146e-08 0)
(4.99694e-05 2.50849e-08 0)
(4.99682e-05 2.83205e-08 0)
(4.99678e-05 3.07301e-08 0)
(4.99677e-05 3.26338e-08 0)
(4.99687e-05 3.35528e-08 0)
(4.99708e-05 3.40117e-08 0)
(4.99742e-05 3.35911e-08 0)
(4.99794e-05 3.28638e-08 0)
(4.99861e-05 3.19214e-08 0)
(4.99944e-05 3.08764e-08 0)
(5.0004e-05 3.09267e-08 0)
(4.99733e-05 3.37416e-09 0)
(4.99802e-05 9.98836e-09 0)
(4.99788e-05 1.60898e-08 0)
(4.99777e-05 2.19464e-08 0)
(4.99756e-05 2.74921e-08 0)
(4.9974e-05 3.24178e-08 0)
(4.99718e-05 3.68361e-08 0)
(4.99704e-05 4.03261e-08 0)
(4.99692e-05 4.31885e-08 0)
(4.99693e-05 4.48561e-08 0)
(4.99704e-05 4.59027e-08 0)
(4.99733e-05 4.57265e-08 0)
(4.99784e-05 4.50848e-08 0)
(4.99855e-05 4.38557e-08 0)
(4.99951e-05 4.24512e-08 0)
(5.00067e-05 4.21361e-08 0)
(4.99804e-05 4.2863e-09 0)
(4.99897e-05 1.23555e-08 0)
(4.99879e-05 1.99483e-08 0)
(4.99862e-05 2.73138e-08 0)
(4.99833e-05 3.43642e-08 0)
(4.99808e-05 4.0787e-08 0)
(4.99775e-05 4.66571e-08 0)
(4.99748e-05 5.15368e-08 0)
(4.99723e-05 5.56893e-08 0)
(4.99709e-05 5.84559e-08 0)
(4.99708e-05 6.04356e-08 0)
(4.99727e-05 6.07954e-08 0)
(4.99773e-05 6.04712e-08 0)
(4.99845e-05 5.90053e-08 0)
(4.99954e-05 5.72202e-08 0)
(5.00093e-05 5.6309e-08 0)
(4.99901e-05 5.3012e-09 0)
(5.00022e-05 1.48936e-08 0)
(4.99999e-05 2.41009e-08 0)
(4.99977e-05 3.31267e-08 0)
(4.99939e-05 4.18644e-08 0)
(4.99903e-05 5.00188e-08 0)
(4.99857e-05 5.76217e-08 0)
(4.99816e-05 6.42431e-08 0)
(4.99774e-05 7.00921e-08 0)
(4.99743e-05 7.44327e-08 0)
(4.99724e-05 7.78556e-08 0)
(4.99727e-05 7.92518e-08 0)
(4.99761e-05 7.96838e-08 0)
(4.9983e-05 7.81793e-08 0)
(4.9995e-05 7.59715e-08 0)
(5.00115e-05 7.39707e-08 0)
(5.00027e-05 6.38889e-09 0)
(5.0018e-05 1.74893e-08 0)
(5.00152e-05 2.83654e-08 0)
(5.00123e-05 3.91385e-08 0)
(5.00077e-05 4.96899e-08 0)
(5.00029e-05 5.97673e-08 0)
(4.9997e-05 6.93613e-08 0)
(4.99913e-05 7.80874e-08 0)
(4.99851e-05 8.60971e-08 0)
(4.998e-05 9.26234e-08 0)
(4.99758e-05 9.82394e-08 0)
(4.99738e-05 1.01567e-07 0)
(4.99752e-05 1.03765e-07 0)
(4.99807e-05 1.03152e-07 0)
(4.99932e-05 1.01194e-07 0)
(5.00128e-05 9.79971e-08 0)
(5.00186e-05 7.50054e-09 0)
(5.0037e-05 1.99804e-08 0)
(5.00339e-05 3.2478e-08 0)
(5.00304e-05 4.49835e-08 0)
(5.00249e-05 5.7375e-08 0)
(5.00191e-05 6.94704e-08 0)
(5.00118e-05 8.12266e-08 0)
(5.00045e-05 9.23522e-08 0)
(4.99963e-05 1.0295e-07 0)
(4.9989e-05 1.12311e-07 0)
(4.99821e-05 1.21028e-07 0)
(4.99773e-05 1.27589e-07 0)
(4.99758e-05 1.33398e-07 0)
(4.99787e-05 1.36134e-07 0)
(4.99899e-05 1.37695e-07 0)
(5.00119e-05 1.36562e-07 0)
(5.00378e-05 8.56662e-09 0)
(5.00594e-05 2.21593e-08 0)
(5.00559e-05 3.60972e-08 0)
(5.00519e-05 5.01798e-08 0)
(5.00457e-05 6.42888e-08 0)
(5.0039e-05 7.83385e-08 0)
(5.00304e-05 9.22527e-08 0)
(5.00216e-05 1.0588e-07 0)
(5.00116e-05 1.19267e-07 0)
(5.00021e-05 1.31856e-07 0)
(4.99927e-05 1.44267e-07 0)
(4.99852e-05 1.55045e-07 0)
(4.99806e-05 1.6601e-07 0)
(4.99805e-05 1.74562e-07 0)
(4.99891e-05 1.8392e-07 0)
(5.00097e-05 1.91068e-07 0)
(5.00603e-05 9.4982e-09 0)
(5.00849e-05 2.37844e-08 0)
(5.00811e-05 3.88241e-08 0)
(5.00767e-05 5.41587e-08 0)
(5.007e-05 6.96812e-08 0)
(5.00624e-05 8.54135e-08 0)
(5.00528e-05 1.01246e-07 0)
(5.00427e-05 1.17183e-07 0)
(5.0031e-05 1.33185e-07 0)
(5.00196e-05 1.48872e-07 0)
(5.00078e-05 1.64766e-07 0)
(4.99976e-05 1.79473e-07 0)
(4.999e-05 1.94908e-07 0)
(4.99867e-05 2.08036e-07 0)
(4.99916e-05 2.22721e-07 0)
(5.00068e-05 2.34213e-07 0)
(5.00858e-05 1.01919e-08 0)
(5.01127e-05 2.45997e-08 0)
(5.01088e-05 4.02348e-08 0)
(5.01042e-05 5.63168e-08 0)
(5.00971e-05 7.27521e-08 0)
(5.00889e-05 8.96817e-08 0)
(5.00786e-05 1.06951e-07 0)
(5.00674e-05 1.24745e-07 0)
(5.00543e-05 1.42883e-07 0)
(5.00411e-05 1.61209e-07 0)
(5.00268e-05 1.80004e-07 0)
(5.00138e-05 1.97975e-07 0)
(5.00023e-05 2.1681e-07 0)
(4.99946e-05 2.33011e-07 0)
(4.99938e-05 2.50507e-07 0)
(5.00013e-05 2.63032e-07 0)
(5.01138e-05 1.05382e-08 0)
(5.01422e-05 2.43551e-08 0)
(5.01383e-05 3.99154e-08 0)
(5.01335e-05 5.60613e-08 0)
(5.01262e-05 7.27194e-08 0)
(5.01178e-05 9.01458e-08 0)
(5.0107e-05 1.08146e-07 0)
(5.0095e-05 1.27087e-07 0)
(5.00807e-05 1.46631e-07 0)
(5.00658e-05 1.66883e-07 0)
(5.0049e-05 1.87787e-07 0)
(5.00328e-05 2.08273e-07 0)
(5.00168e-05 2.29596e-07 0)
(5.00035e-05 2.48041e-07 0)
(4.99952e-05 2.67412e-07 0)
(4.99935e-05 2.80464e-07 0)
(5.01432e-05 1.04301e-08 0)
(5.0172e-05 2.28284e-08 0)
(5.01682e-05 3.74969e-08 0)
(5.01635e-05 5.2863e-08 0)
(5.01564e-05 6.88785e-08 0)
(5.01479e-05 8.5909e-08 0)
(5.01369e-05 1.03724e-07 0)
(5.01244e-05 1.22882e-07 0)
(5.01092e-05 1.42875e-07 0)
(5.00928e-05 1.64138e-07 0)
(5.00736e-05 1.86208e-07 0)
(5.0054e-05 2.08415e-07 0)
(5.00329e-05 2.31427e-07 0)
(5.0013e-05 2.51599e-07 0)
(4.99959e-05 2.72419e-07 0)
(4.99833e-05 2.85955e-07 0)
(5.0173e-05 9.77278e-09 0)
(5.02008e-05 1.98472e-08 0)
(5.01973e-05 3.26899e-08 0)
(5.01928e-05 4.6301e-08 0)
(5.01859e-05 6.06596e-08 0)
(5.01777e-05 7.6227e-08 0)
(5.01669e-05 9.27483e-08 0)
(5.01543e-05 1.10969e-07 0)
(5.01386e-05 1.30227e-07 0)
(5.0121e-05 1.51351e-07 0)
(5.00996e-05 1.73444e-07 0)
(5.00767e-05 1.96447e-07 0)
(5.00502e-05 2.2031e-07 0)
(5.00229e-05 2.41751e-07 0)
(4.99956e-05 2.63709e-07 0)
(4.99707e-05 2.77725e-07 0)
(5.02018e-05 8.49249e-09 0)
(5.02271e-05 1.53081e-08 0)
(5.02238e-05 2.53169e-08 0)
(5.02197e-05 3.61053e-08 0)
(5.02134e-05 4.76794e-08 0)
(5.02056e-05 6.0569e-08 0)
(5.01952e-05 7.45074e-08 0)
(5.01829e-05 9.04068e-08 0)
(5.01672e-05 1.07489e-07 0)
(5.01489e-05 1.27021e-07 0)
(5.01259e-05 1.47686e-07 0)
(5.00999e-05 1.70309e-07 0)
(5.00681e-05 1.93998e-07 0)
(5.00331e-05 2.16264e-07 0)
(4.99946e-05 2.39432e-07 0)
(4.9956e-05 2.54349e-07 0)
(5.0228e-05 6.54531e-09 0)
(5.0249e-05 9.21757e-09 0)
(5.02461e-05 1.538e-08 0)
(5.02424e-05 2.22588e-08 0)
(5.02367e-05 2.98787e-08 0)
(5.02296e-05 3.87983e-08 0)
(5.022e-05 4.87438e-08 0)
(5.02082e-05 6.07437e-08 0)
(5.01929e-05 7.39422e-08 0)
(5.01745e-05 9.00399e-08 0)
(5.01506e-05 1.07357e-07 0)
(5.01225e-05 1.27909e-07 0)
(5.0086e-05 1.49816e-07 0)
(5.00438e-05 1.72301e-07 0)
(4.99933e-05 1.97082e-07 0)
(4.99388e-05 2.13221e-07 0)
(5.02498e-05 3.93426e-09 0)
(5.02647e-05 1.74575e-09 0)
(5.02622e-05 3.15479e-09 0)
(5.0259e-05 5.15464e-09 0)
(5.02539e-05 7.78117e-09 0)
(5.02474e-05 1.15611e-08 0)
(5.02387e-05 1.6207e-08 0)
(5.02277e-05 2.27465e-08 0)
(5.02132e-05 3.02591e-08 0)
(5.01954e-05 4.07046e-08 0)
(5.01716e-05 5.21007e-08 0)
(5.01426e-05 6.77699e-08 0)
(5.01031e-05 8.45578e-08 0)
(5.00554e-05 1.0504e-07 0)
(4.99931e-05 1.28548e-07 0)
(4.99163e-05 1.43553e-07 0)
(5.02653e-05 7.33125e-10 0)
(5.02746e-05 -6.85198e-09 0)
(5.02725e-05 -1.09507e-08 0)
(5.02698e-05 -1.46527e-08 0)
(5.02654e-05 -1.79185e-08 0)
(5.02597e-05 -2.03219e-08 0)
(5.02518e-05 -2.21888e-08 0)
(5.02415e-05 -2.26479e-08 0)
(5.02279e-05 -2.27176e-08 0)
(5.02106e-05 -2.05785e-08 0)
(5.01875e-05 -1.84972e-08 0)
(5.01584e-05 -1.25513e-08 0)
(5.01178e-05 -7.4662e-09 0)
(5.00665e-05 3.45357e-09 0)
(4.99912e-05 1.34917e-08 0)
(4.9889e-05 1.98422e-08 0)
(5.02751e-05 -2.94757e-09 0)
(5.02702e-05 -1.67065e-08 0)
(5.02684e-05 -2.71837e-08 0)
(5.02661e-05 -3.76332e-08 0)
(5.02622e-05 -4.80426e-08 0)
(5.02569e-05 -5.81232e-08 0)
(5.02493e-05 -6.82903e-08 0)
(5.0239e-05 -7.78697e-08 0)
(5.02252e-05 -8.80644e-08 0)
(5.02069e-05 -9.74158e-08 0)
(5.01827e-05 -1.08574e-07 0)
(5.01511e-05 -1.18253e-07 0)
(5.01076e-05 -1.32282e-07 0)
(5.00506e-05 -1.42869e-07 0)
(4.99638e-05 -1.61495e-07 0)
(4.98449e-05 -1.7544e-07 0)
(5.02707e-05 -7.16837e-09 0)
(5.02441e-05 -2.76296e-08 0)
(5.02422e-05 -4.52397e-08 0)
(5.02397e-05 -6.33729e-08 0)
(5.02355e-05 -8.20751e-08 0)
(5.02297e-05 -1.01233e-07 0)
(5.02214e-05 -1.21366e-07 0)
(5.02098e-05 -1.41991e-07 0)
(5.01942e-05 -1.6448e-07 0)
(5.01729e-05 -1.87584e-07 0)
(5.0145e-05 -2.14223e-07 0)
(5.01076e-05 -2.41376e-07 0)
(5.00582e-05 -2.75028e-07 0)
(4.99928e-05 -3.06584e-07 0)
(4.99015e-05 -3.47908e-07 0)
(4.97836e-05 -3.74565e-07 0)
(5.02446e-05 -1.18415e-08 0)
(5.01971e-05 -3.84187e-08 0)
(5.01944e-05 -6.31047e-08 0)
(5.0191e-05 -8.89198e-08 0)
(5.01856e-05 -1.15998e-07 0)
(5.01781e-05 -1.44414e-07 0)
(5.01678e-05 -1.74766e-07 0)
(5.01536e-05 -2.06738e-07 0)
(5.01347e-05 -2.41695e-07 0)
(5.01093e-05 -2.78383e-07 0)
(5.00767e-05 -3.1954e-07 0)
(5.00335e-05 -3.61706e-07 0)
(4.99795e-05 -4.10144e-07 0)
(4.99103e-05 -4.54545e-07 0)
(4.98245e-05 -5.05365e-07 0)
(4.97228e-05 -5.33602e-07 0)
(5.01978e-05 -1.64511e-08 0)
(5.01298e-05 -4.79665e-08 0)
(5.01259e-05 -7.88736e-08 0)
(5.01207e-05 -1.114e-07 0)
(5.0113e-05 -1.45769e-07 0)
(5.01027e-05 -1.82232e-07 0)
(5.00892e-05 -2.21432e-07 0)
(5.00714e-05 -2.63183e-07 0)
(5.00485e-05 -3.08641e-07 0)
(5.00188e-05 -3.56407e-07 0)
(4.99821e-05 -4.08604e-07 0)
(4.99354e-05 -4.61174e-07 0)
(4.98811e-05 -5.18069e-07 0)
(4.98155e-05 -5.68092e-07 0)
(4.97445e-05 -6.20254e-07 0)
(4.9668e-05 -6.46492e-07 0)
(5.01309e-05 -2.05277e-08 0)
(5.00455e-05 -5.54686e-08 0)
(5.00399e-05 -9.11434e-08 0)
(5.00325e-05 -1.28654e-07 0)
(5.00218e-05 -1.68258e-07 0)
(5.0008e-05 -2.10348e-07 0)
(4.99906e-05 -2.55603e-07 0)
(4.99685e-05 -3.03969e-07 0)
(4.99415e-05 -3.56268e-07 0)
(4.99082e-05 -4.11041e-07 0)
(4.98692e-05 -4.69642e-07 0)
(4.98225e-05 -5.27797e-07 0)
(4.97726e-05 -5.87882e-07 0)
(4.97173e-05 -6.39173e-07 0)
(4.96666e-05 -6.8907e-07 0)
(4.96192e-05 -7.13309e-07 0)
(5.00471e-05 -2.37334e-08 0)
(4.99483e-05 -6.05369e-08 0)
(4.99412e-05 -9.92792e-08 0)
(4.99314e-05 -1.39757e-07 0)
(4.99176e-05 -1.82133e-07 0)