/*--------------------------------*- C++ -*----------------------------------*\
| =========                 |                                                 |
| \\      /  F ield         | foam-extend: Open Source CFD                    |
|  \\    /   O peration     | Version:     4.1-20200408                       |
|   \\  /    A nd           | Web:         http://www.foam-extend.org         |
|    \\/     M anipulation  |                                                 |
\*---------------------------------------------------------------------------*/
FoamFile
{
    version     2.0;
    format      ascii;
    class       volScalarField;
    location    "0.0220000";
    object      sigmaHyd;
}
// * * * * * * * * * * * * * * * * * * * * * * * * * * * * * * * * * * * * * //

dimensions      [1 -1 -2 0 0 0 0];

internalField   nonuniform List<scalar> 
1952
(
7.06164e+07
7.12528e+07
7.05299e+07
7.10048e+07
7.05815e+07
7.19025e+07
7.2936e+07
7.69766e+07
8.15357e+07
9.23085e+07
1.05448e+08
1.32165e+08
1.64819e+08
2.25388e+08
2.9539e+08
7.10032e+07
5.98403e+07
6.05188e+07
5.99976e+07
6.05797e+07
6.04377e+07
6.19383e+07
6.32945e+07
6.75838e+07
7.24516e+07
8.34331e+07
9.67076e+07
1.234e+08
1.55651e+08
2.15635e+08
2.84198e+08
6.01787e+07
5.08066e+07
5.15367e+07
5.11779e+07
5.1875e+07
5.19705e+07
5.36526e+07
5.53101e+07
5.98802e+07
6.51109e+07
7.6454e+07
9.0146e+07
1.17339e+08
1.50146e+08
2.11324e+08
2.82213e+08
5.11009e+07
4.27533e+07
4.35388e+07
4.33207e+07
4.41401e+07
4.44555e+07
4.63274e+07
4.82797e+07
5.31524e+07
5.87702e+07
7.05426e+07
8.47437e+07
1.12598e+08
1.46171e+08
2.08591e+08
2.80973e+08
4.30084e+07
3.54295e+07
3.62763e+07
3.61889e+07
3.71434e+07
3.76759e+07
3.97498e+07
4.20099e+07
4.72145e+07
5.32637e+07
6.55404e+07
8.03539e+07
1.09006e+08
1.43533e+08
2.07262e+08
2.81221e+08
3.56505e+07
2.8763e+07
2.96743e+07
2.97101e+07
3.08066e+07
3.15497e+07
3.38355e+07
3.6412e+07
4.19545e+07
4.84557e+07
6.12559e+07
7.67085e+07
1.06171e+08
1.41632e+08
2.06595e+08
2.81789e+08
2.89529e+07
2.27332e+07
2.3712e+07
2.38657e+07
2.51089e+07
2.60584e+07
2.85746e+07
3.14627e+07
3.73458e+07
4.43103e+07
5.76346e+07
7.37435e+07
1.04011e+08
1.40398e+08
2.0652e+08
2.82836e+08
2.2895e+07
1.72647e+07
1.8312e+07
1.85782e+07
1.99669e+07
2.11199e+07
2.38672e+07
2.7051e+07
3.32704e+07
4.06938e+07
5.4519e+07
7.12848e+07
1.02307e+08
1.39641e+08
2.06802e+08
2.84213e+08
1.74008e+07
1.23646e+07
1.34831e+07
1.38544e+07
1.53891e+07
1.67375e+07
1.97095e+07
2.31832e+07
2.97377e+07
3.76061e+07
5.19116e+07
6.93031e+07
1.01027e+08
1.39229e+08
2.07316e+08
2.85653e+08
1.24785e+07
7.90971e+06
9.10111e+06
9.57323e+06
1.12523e+07
1.27903e+07
1.59788e+07
1.97387e+07
2.66187e+07
3.49135e+07
4.96787e+07
6.76624e+07
1.00039e+08
1.39022e+08
2.07974e+08
2.86989e+08
8.00276e+06
3.86379e+06
5.12825e+06
5.6954e+06
7.51371e+06
9.23344e+06
1.26261e+07
1.66596e+07
2.38459e+07
3.25412e+07
4.7745e+07
6.62691e+07
9.92473e+07
1.38942e+08
2.08698e+08
2.88266e+08
3.93786e+06
158088
1.49342e+06
2.14818e+06
4.09776e+06
5.98646e+06
9.56774e+06
1.38591e+07
2.1326e+07
3.03956e+07
4.60062e+07
6.50198e+07
9.85562e+07
1.38896e+08
2.09397e+08
2.89457e+08
214924
-3.23905e+06
-1.83511e+06
-1.09844e+06
975363
3.02041e+06
6.77844e+06
1.13072e+07
1.90318e+07
2.84472e+07
4.44276e+07
6.38968e+07
9.79467e+07
1.38876e+08
2.10073e+08
2.90557e+08
-3.19868e+06
-6.39747e+06
-4.92815e+06
-4.1155e+06
-1.92436e+06
265071
4.18932e+06
8.93708e+06
1.68997e+07
2.66363e+07
4.29608e+07
6.28509e+07
9.73794e+07
1.38847e+08
2.107e+08
2.91567e+08
-6.3726e+06
-9.33693e+06
-7.80597e+06
-6.92085e+06
-4.6202e+06
-2.29707e+06
1.78197e+06
6.72944e+06
1.49107e+07
2.49495e+07
4.15891e+07
6.18748e+07
9.68474e+07
1.38827e+08
2.11295e+08
2.92513e+08
-9.32762e+06
-1.20369e+07
-1.04492e+07
-9.49563e+06
-7.09563e+06
-4.65155e+06
-430292
4.69322e+06
1.30789e+07
2.33898e+07
4.03199e+07
6.09688e+07
9.63553e+07
1.38805e+08
2.1185e+08
2.93371e+08
-1.20433e+07
-1.45727e+07
-1.29328e+07
-1.19141e+07
-9.42369e+06
-6.86199e+06
-2.50816e+06
2.78203e+06
1.13559e+07
2.19231e+07
3.91259e+07
6.01167e+07
9.58938e+07
1.38785e+08
2.12375e+08
2.94145e+08
-1.45945e+07
-1.69895e+07
-1.53026e+07
-1.42199e+07
-1.16474e+07
-8.96994e+06
-4.49193e+06
952972
9.70633e+06
2.05127e+07
3.79738e+07
5.9291e+07
9.54383e+07
1.38746e+08
2.12852e+08
2.94839e+08
-1.70276e+07
-1.93327e+07
-1.76023e+07
-1.64592e+07
-1.38112e+07
-1.10235e+07
-6.43287e+06
-836896
8.08471e+06
1.91139e+07
3.68227e+07
5.84543e+07
9.49572e+07
1.3867e+08
2.13283e+08
2.95482e+08
-1.93868e+07
-2.16221e+07
-1.98508e+07
-1.86478e+07
-1.59296e+07
-1.30351e+07
-8.33668e+06
-2.58712e+06
6.48309e+06
1.77245e+07
3.56688e+07
5.76022e+07
9.44473e+07
1.38557e+08
2.13672e+08
2.96086e+08
-2.16934e+07
-2.38662e+07
-2.20569e+07
-2.0795e+07
-1.80121e+07
-1.50129e+07
-1.02094e+07
-4.31482e+06
4.8981e+06
1.6345e+07
3.45178e+07
5.67418e+07
9.39204e+07
1.38417e+08
2.14034e+08
2.96672e+08
-2.3955e+07
-2.60811e+07
-2.42369e+07
-2.2914e+07
-2.00719e+07
-1.69643e+07
-1.20614e+07
-6.02352e+06
3.33568e+06
1.49846e+07
3.338e+07
5.58885e+07
9.33917e+07
1.38281e+08
2.1439e+08
2.9726e+08
-2.61893e+07
-2.82037e+07
-2.63261e+07
-2.4944e+07
-2.20433e+07
-1.88282e+07
-1.38268e+07
-7.64449e+06
1.85604e+06
1.37041e+07
3.23172e+07
5.50968e+07
9.29247e+07
1.38181e+08
2.14766e+08
2.9783e+08
-2.83295e+07
-3.03084e+07
-2.84012e+07
-2.6956e+07
-2.39985e+07
-2.06738e+07
-1.55727e+07
-9.24342e+06
403273
1.24587e+07
3.12939e+07
5.43508e+07
9.24989e+07
1.38118e+08
2.15171e+08
2.984e+08
-3.04543e+07
-3.24198e+07
-3.04761e+07
-2.89672e+07
-2.59485e+07
-2.2507e+07
-1.73061e+07
-1.08169e+07
-1.02333e+06
1.12537e+07
3.03116e+07
5.36456e+07
9.21103e+07
1.38081e+08
2.15596e+08
2.98974e+08
-3.25812e+07
-3.46013e+07
-3.26243e+07
-3.10472e+07
-2.79616e+07
-2.43976e+07
-1.90877e+07
-1.24287e+07
-2.47788e+06
1.0034e+07
2.93209e+07
5.29428e+07
9.17294e+07
1.38058e+08
2.1605e+08
2.99589e+08
-3.47856e+07
-3.68295e+07
-3.48157e+07
-3.31643e+07
-3.00135e+07
-2.63112e+07
-2.08903e+07
-1.40461e+07
-3.93261e+06
8.82579e+06
2.83479e+07
5.22836e+07
9.13829e+07
1.38088e+08
2.16552e+08
3.00259e+08
-3.70302e+07
-3.91303e+07
-3.70747e+07
-3.53459e+07
-3.21219e+07
-2.82707e+07
-2.27314e+07
-1.5686e+07
-5.39737e+06
7.62546e+06
2.74018e+07
5.16702e+07
9.11009e+07
1.38188e+08
2.17131e+08
3.00977e+08
-3.93363e+07
-4.1551e+07
-3.94705e+07
-3.76468e+07
-3.43479e+07
-3.03299e+07
-2.46637e+07
-1.73952e+07
-6.91819e+06
6.39568e+06
2.64406e+07
5.10745e+07
9.08561e+07
1.38361e+08
2.178e+08
3.01757e+08
-4.17899e+07
-4.41612e+07
-4.20475e+07
-4.0123e+07
-3.67341e+07
-3.25337e+07
-2.67254e+07
-1.92093e+07
-8.52621e+06
5.10716e+06
2.54507e+07
5.04868e+07
9.06485e+07
1.38627e+08
2.18595e+08
3.02697e+08
-4.44364e+07
-4.70022e+07
-4.48495e+07
-4.2809e+07
-3.9322e+07
-3.49211e+07
-2.89529e+07
-2.11609e+07
-1.02517e+07
3.7462e+06
2.44128e+07
4.99065e+07
9.04707e+07
1.39035e+08
2.19518e+08
3.03904e+08
-4.73218e+07
-5.01349e+07
-4.79352e+07
-4.57684e+07
-4.21704e+07
-3.75486e+07
-3.13944e+07
-2.32959e+07
-1.21283e+07
2.27258e+06
2.32933e+07
4.93005e+07
9.0296e+07
1.39528e+08
2.20548e+08
3.05276e+08
-5.04997e+07
-5.35942e+07
-5.13227e+07
-4.90249e+07
-4.5295e+07
-4.04274e+07
-3.40544e+07
-2.5613e+07
-1.41513e+07
695653
2.21144e+07
4.86859e+07
9.01553e+07
1.40112e+08
2.21624e+08
3.06823e+08
-5.39941e+07
-5.74076e+07
-5.50576e+07
-5.26144e+07
-4.87337e+07
-4.3593e+07
-3.69713e+07
-2.81502e+07
-1.63521e+07
-1.00788e+06
2.08536e+07
4.80597e+07
9.00513e+07
1.40838e+08
2.22838e+08
3.08546e+08
-5.78464e+07
-6.16911e+07
-5.92534e+07
-5.6646e+07
-5.25909e+07
-4.71548e+07
-4.02442e+07
-3.10042e+07
-1.88025e+07
-2.91905e+06
1.9474e+07
4.73637e+07
9.00475e+07
1.41659e+08
2.2435e+08
3.10418e+08
-6.21653e+07
-6.65609e+07
-6.40292e+07
-6.12396e+07
-5.69919e+07
-5.1231e+07
-4.39923e+07
-3.4285e+07
-2.16209e+07
-5.13312e+06
1.78748e+07
4.65219e+07
9.00166e+07
1.4249e+08
2.26035e+08
3.1255e+08
-6.70756e+07
-7.21579e+07
-6.95283e+07
-6.65366e+07
-6.20717e+07
-5.59576e+07
-4.83467e+07
-3.81233e+07
-2.49332e+07
-7.76493e+06
1.59432e+07
4.54411e+07
8.98326e+07
1.43313e+08
2.27734e+08
3.14999e+08
-7.27186e+07
-7.85827e+07
-7.58555e+07
-7.26413e+07
-6.7944e+07
-6.14503e+07
-5.34296e+07
-4.26422e+07
-2.8864e+07
-1.09426e+07
1.35622e+07
4.40118e+07
8.94332e+07
1.44048e+08
2.29501e+08
3.17697e+08
-7.91963e+07
-8.58523e+07
-8.30317e+07
-7.95752e+07
-7.46384e+07
-6.77412e+07
-5.92767e+07
-4.78816e+07
-3.34545e+07
-1.47e+07
1.06945e+07
4.2215e+07
8.87702e+07
1.44662e+08
2.31237e+08
3.2058e+08
-8.65311e+07
-9.42293e+07
-9.13241e+07
-8.76192e+07
-8.24379e+07
-7.51203e+07
-6.61888e+07
-5.41478e+07
-3.90174e+07
-1.93464e+07
7.02866e+06
3.97738e+07
8.75907e+07
1.45017e+08
2.32881e+08
3.23657e+08
-9.49753e+07
-1.03955e+08
-1.00986e+08
-9.70364e+07
-9.16126e+07
-8.38746e+07
-7.44668e+07
-6.17573e+07
-4.58792e+07
-2.52219e+07
2.23567e+06
3.63589e+07
8.56472e+07
1.44876e+08
2.34335e+08
3.26906e+08
-1.0477e+08
-1.15017e+08
-1.12009e+08
-1.07828e+08
-1.02185e+08
-9.40464e+07
-8.41726e+07
-7.07933e+07
-5.41444e+07
-3.24444e+07
-3.81792e+06
3.18374e+07
8.27785e+07
1.44068e+08
2.35437e+08
3.30186e+08
-1.15896e+08
-1.27553e+08
-1.24542e+08
-1.20162e+08
-1.14341e+08
-1.05848e+08
-9.55405e+07
-8.15227e+07
-6.41011e+07
-4.13309e+07
-1.14557e+07
2.58814e+07
7.86707e+07
1.4235e+08
2.35922e+08
3.33349e+08
-1.28488e+08
-1.4169e+08
-1.38725e+08
-1.342e+08
-1.28272e+08
-1.19504e+08
-1.0884e+08
-9.42615e+07
-7.61155e+07
-5.22967e+07
-2.11384e+07
1.79926e+07
7.28237e+07
1.39247e+08
2.35438e+08
3.36162e+08
-1.42664e+08
-1.57464e+08
-1.54604e+08
-1.50016e+08
-1.44083e+08
-1.35173e+08
-1.24279e+08
-1.09286e+08
-9.05267e+07
-6.57624e+07
-3.33466e+07
7.62304e+06
6.46602e+07
1.34185e+08
2.3346e+08
3.38269e+08
-1.58451e+08
-1.74898e+08
-1.72219e+08
-1.6769e+08
-1.61896e+08
-1.53035e+08
-1.4211e+08
-1.26942e+08
-1.0778e+08
-8.22856e+07
-4.87603e+07
-6.00246e+06
5.33161e+07
1.2629e+08
2.29236e+08
3.39084e+08
-1.75865e+08
-1.93898e+08
-1.91496e+08
-1.87179e+08
-1.81714e+08
-1.73162e+08
-1.62493e+08
-1.47498e+08
-1.2827e+08
-1.02436e+08
-6.80952e+07
-2.38231e+07
3.77626e+07
1.14417e+08
2.21745e+08
3.38002e+08
-1.94802e+08
-2.14306e+08
-2.12289e+08
-2.0838e+08
-2.03483e+08
-1.9558e+08
-1.85542e+08
-1.71199e+08
-1.52404e+08
-1.26817e+08
-9.22239e+07
-4.69526e+07
1.64596e+07
9.68862e+07
2.09444e+08
3.34447e+08
-2.15092e+08
-2.35837e+08
-2.3434e+08
-2.3106e+08
-2.27032e+08
-2.20184e+08
-2.11271e+08
-1.98209e+08
-1.80554e+08
-1.56116e+08
-1.22172e+08
-7.70213e+07
-1.26434e+07
7.09065e+07
1.88916e+08
3.25414e+08
-2.36449e+08
-2.57921e+08
-2.57061e+08
-2.5468e+08
-2.51865e+08
-2.46547e+08
-2.39341e+08
-2.28342e+08
-2.12717e+08
-1.90615e+08
-1.58599e+08
-1.15247e+08
-5.18683e+07
3.23937e+07
1.53172e+08
2.99812e+08
-2.58295e+08
-2.79669e+08
-2.79638e+08
-2.78388e+08
-2.77138e+08
-2.73856e+08
-2.6901e+08
-2.60902e+08
-2.48374e+08
-2.30037e+08
-2.01808e+08
-1.62846e+08
-1.04055e+08
-2.46947e+07
8.99577e+07
2.30032e+08
-2.79748e+08
-3.00089e+08
-3.01074e+08
-3.0126e+08
-3.01964e+08
-3.01197e+08
-2.99345e+08
-2.9502e+08
-2.86651e+08
-2.73441e+08
-2.50838e+08
-2.18694e+08
-1.67256e+08
-9.69382e+07
6.81515e+06
1.3227e+08
-2.99817e+08
-3.17984e+08
-3.20106e+08
-3.22042e+08
-3.25084e+08
-3.27334e+08
-3.29118e+08
-3.29264e+08
-3.26108e+08
-3.19376e+08
-3.03963e+08
-2.80853e+08
-2.391e+08
-1.80903e+08
-9.03929e+07
1.84168e+07
-3.17275e+08
-3.31983e+08
-3.35281e+08
-3.39113e+08
-3.44762e+08
-3.50386e+08
-3.56329e+08
-3.61669e+08
-3.64641e+08
-3.65629e+08
-3.58735e+08
-3.46553e+08
-3.1643e+08
-2.72987e+08
-1.97811e+08
-1.07834e+08
-3.30825e+08
-3.40682e+08
-3.4519e+08
-3.50952e+08
-3.59281e+08
-3.6852e+08
-3.78985e+08
-3.90107e+08
-3.99846e+08
-4.09577e+08
-4.12389e+08
-4.1277e+08
-3.96068e+08
-3.69893e+08
-3.12385e+08
-2.44077e+08
-3.39076e+08
-3.42334e+08
-3.48049e+08
-3.55788e+08
-3.66841e+08
-3.79758e+08
-3.94877e+08
-4.12027e+08
-4.28962e+08
-4.47936e+08
-4.61305e+08
-4.75543e+08
-4.73856e+08
-4.67501e+08
-4.30323e+08
-3.86924e+08
-3.4028e+08
-3.35294e+08
-3.4215e+08
-3.5177e+08
-3.65478e+08
-3.81956e+08
-4.01644e+08
-4.24676e+08
-4.48804e+08
-4.77114e+08
-5.01445e+08
-5.30423e+08
-5.45108e+08
-5.61389e+08
-5.47998e+08
-5.34492e+08
-3.32832e+08
-3.18421e+08
-3.26302e+08
-3.37599e+08
-3.53706e+08
-3.73369e+08
-3.9722e+08
-4.25543e+08
-4.56359e+08
-4.93351e+08
-5.28371e+08
-5.72089e+08
-6.03841e+08
-6.45802e+08
-6.59837e+08
-6.8699e+08
-3.1561e+08
-2.88031e+08
-2.96647e+08
-3.09187e+08
-3.27124e+08
-3.49264e+08
-3.76466e+08
-4.09091e+08
-4.45514e+08
-4.89782e+08
-5.34154e+08
-5.91051e+08
-6.39218e+08
-7.08395e+08
-7.53441e+08
-8.34177e+08
-2.84981e+08
-2.51372e+08
-2.60369e+08
-2.7365e+08
-2.92754e+08
-3.16628e+08
-3.46318e+08
-3.82308e+08
-4.23274e+08
-4.73518e+08
-5.25905e+08
-5.93743e+08
-6.57088e+08
-7.5031e+08
-8.25784e+08
-9.66636e+08
-2.48217e+08
-2.26462e+08
-2.35692e+08
-2.49363e+08
-2.6921e+08
-2.94234e+08
-3.25758e+08
-3.64281e+08
-4.0891e+08
-4.63901e+08
-5.22661e+08
-5.9832e+08
-6.71861e+08
-7.77923e+08
-8.68979e+08
-1.03697e+09
-2.23289e+08
-2.18621e+08
-2.28044e+08
-2.41841e+08
-2.62099e+08
-2.87672e+08
-3.20288e+08
-3.60189e+08
-4.07164e+08
-4.64868e+08
-5.27575e+08
-6.07084e+08
-6.85279e+08
-7.93964e+08
-8.85807e+08
-1.04673e+09
-2.15475e+08
-2.26514e+08
-2.36098e+08
-2.49796e+08
-2.70107e+08
-2.95565e+08
-3.28325e+08
-3.68146e+08
-4.1562e+08
-4.73248e+08
-5.36534e+08
-6.14652e+08
-6.91599e+08
-7.93128e+08
-8.75906e+08
-1.01205e+09
-2.23387e+08
-2.49852e+08
-2.59612e+08
-2.73104e+08
-2.93224e+08
-3.18022e+08
-3.50034e+08
-3.88352e+08
-4.34451e+08
-4.89195e+08
-5.49701e+08
-6.21454e+08
-6.91784e+08
-7.77929e+08
-8.44238e+08
-9.45764e+08
-2.46692e+08
-2.86808e+08
-2.96763e+08
-3.1004e+08
-3.29895e+08
-3.53746e+08
-3.84405e+08
-4.20162e+08
-4.63342e+08
-5.12828e+08
-5.67595e+08
-6.2875e+08
-6.87838e+08
-7.52297e+08
-7.96762e+08
-8.58303e+08
-2.83565e+08
-3.3541e+08
-3.45503e+08
-3.58555e+08
-3.78167e+08
-4.01066e+08
-4.30193e+08
-4.62946e+08
-5.02255e+08
-5.4489e+08
-5.91665e+08
-6.39025e+08
-6.82931e+08
-7.20827e+08
-7.39321e+08
-7.58159e+08
-3.32091e+08
-3.93592e+08
-4.03636e+08
-4.16261e+08
-4.35435e+08
-4.57295e+08
-4.84856e+08
-5.14587e+08
-5.49547e+08
-5.8461e+08
-6.22278e+08
-6.54411e+08
-6.80392e+08
-6.88268e+08
-6.77867e+08
-6.53372e+08
-3.90269e+08
-4.58334e+08
-4.68043e+08
-4.79789e+08
-4.97849e+08
-5.18128e+08
-5.43964e+08
-5.71187e+08
-6.0224e+08
-6.30585e+08
-6.60267e+08
-6.7845e+08
-6.84958e+08
-6.60489e+08
-6.19889e+08
-5.54636e+08
-4.55092e+08
-5.26251e+08
-5.35702e+08
-5.46692e+08
-5.63595e+08
-5.82535e+08
-6.07668e+08
-6.34642e+08
-6.63465e+08
-6.8559e+08
-7.05036e+08
-7.01796e+08
-6.8297e+08
-6.28667e+08
-5.69763e+08
-4.74305e+08
-5.23015e+08
-6.03083e+08
-6.1309e+08
-6.2462e+08
-6.41394e+08
-6.58858e+08
-6.80552e+08
-6.98103e+08
-7.12117e+08
-7.1299e+08
-7.05345e+08
-6.7562e+08
-6.38334e+08
-5.73753e+08
-5.11696e+08
-4.16505e+08
-5.99474e+08
-6.74342e+08
-6.81253e+08
-6.88264e+08
-6.97173e+08
-7.02399e+08
-7.05494e+08
-7.00385e+08
-6.90713e+08
-6.685e+08
-6.38643e+08
-5.98123e+08
-5.5618e+08
-5.00866e+08
-4.43241e+08
-3.6812e+08
-6.71642e+08
-6.81037e+08
-6.80718e+08
-6.78186e+08
-6.74388e+08
-6.66365e+08
-6.54024e+08
-6.36728e+08
-6.16608e+08
-5.89379e+08
-5.59273e+08
-5.23367e+08
-4.84327e+08
-4.34045e+08
-3.81585e+08
-3.20817e+08
-6.81089e+08
-6.27492e+08
-6.24135e+08
-6.17747e+08
-6.09093e+08
-5.97075e+08
-5.83156e+08
-5.67803e+08
-5.49427e+08
-5.25097e+08
-4.97378e+08
-4.62714e+08
-4.26005e+08
-3.80511e+08
-3.34078e+08
-2.77087e+08
-6.2873e+08
-5.66629e+08
-5.63597e+08
-5.58115e+08
-5.5057e+08
-5.40039e+08
-5.26907e+08
-5.10368e+08
-4.91221e+08
-4.67319e+08
-4.41073e+08
-4.09318e+08
-3.75939e+08
-3.35398e+08
-2.94586e+08
-2.45443e+08
-5.67762e+08
-5.14647e+08
-5.10938e+08
-5.04948e+08
-4.96747e+08
-4.86012e+08
-4.7307e+08
-4.57376e+08
-4.39354e+08
-4.17295e+08
-3.93184e+08
-3.64166e+08
-3.34042e+08
-2.97956e+08
-2.62234e+08
-2.19027e+08
-5.1599e+08
-4.65345e+08
-4.61661e+08
-4.56053e+08
-4.48239e+08
-4.38167e+08
-4.2589e+08
-4.1092e+08
-3.93884e+08
-3.73432e+08
-3.51356e+08
-3.25196e+08
-2.98314e+08
-2.66501e+08
-2.35383e+08
-1.97966e+08
-4.66622e+08
-4.21085e+08
-4.17341e+08
-4.11957e+08
-4.04379e+08
-3.94859e+08
-3.833e+08
-3.69423e+08
-3.53722e+08
-3.35119e+08
-3.15172e+08
-2.91766e+08
-2.67932e+08
-2.39986e+08
-2.1295e+08
-1.80507e+08
-4.22337e+08
-3.80714e+08
-3.7709e+08
-3.72109e+08
-3.64993e+08
-3.56202e+08
-3.45494e+08
-3.32752e+08
-3.18395e+08
-3.01581e+08
-2.83677e+08
-2.62883e+08
-2.41878e+08
-2.17455e+08
-1.9403e+08
-1.65993e+08
-3.81882e+08
-3.44355e+08
-3.40881e+08
-3.36295e+08
-3.29662e+08
-3.21607e+08
-3.11784e+08
-3.00226e+08
-2.87243e+08
-2.72187e+08
-2.56238e+08
-2.37872e+08
-2.19447e+08
-1.98176e+08
-1.77924e+08
-1.5372e+08
-3.4544e+08
-3.11577e+08
-3.08309e+08
-3.04147e+08
-2.98048e+08
-2.9075e+08
-2.81827e+08
-2.71426e+08
-2.5977e+08
-2.4637e+08
-2.32241e+08
-2.16096e+08
-1.99997e+08
-1.81529e+08
-1.64047e+08
-1.43158e+08
-3.12567e+08
-2.82134e+08
-2.79092e+08
-2.75342e+08
-2.69781e+08
-2.63217e+08
-2.55174e+08
-2.45883e+08
-2.35489e+08
-2.23633e+08
-2.11178e+08
-1.97046e+08
-1.83028e+08
-1.67035e+08
-1.51969e+08
-1.33958e+08
-2.83031e+08
-2.55701e+08
-2.52901e+08
-2.49548e+08
-2.44519e+08
-2.38657e+08
-2.31455e+08
-2.23205e+08
-2.13986e+08
-2.03544e+08
-1.9261e+08
-1.8028e+08
-1.68107e+08
-1.54286e+08
-1.4131e+08
-1.2577e+08
-2.56507e+08
-2.3199e+08
-2.29433e+08
-2.26454e+08
-2.21935e+08
-2.16729e+08
-2.10317e+08
-2.03027e+08
-1.94888e+08
-1.85728e+08
-1.76164e+08
-1.65437e+08
-1.5489e+08
-1.42965e+08
-1.31796e+08
-1.18379e+08
-2.32709e+08
-2.10715e+08
-2.08398e+08
-2.05764e+08
-2.01727e+08
-1.97127e+08
-1.91444e+08
-1.8503e+08
-1.77873e+08
-1.69863e+08
-1.6152e+08
-1.5221e+08
-1.43087e+08
-1.3281e+08
-1.23195e+08
-1.11595e+08
-2.11353e+08
-1.91615e+08
-1.89528e+08
-1.87209e+08
-1.83619e+08
-1.79571e+08
-1.74555e+08
-1.6893e+08
-1.62656e+08
-1.55671e+08
-1.48411e+08
-1.40343e+08
-1.32462e+08
-1.23608e+08
-1.15322e+08
-1.05265e+08
-1.92179e+08
-1.74445e+08
-1.72575e+08
-1.70541e+08
-1.67362e+08
-1.6381e+08
-1.59398e+08
-1.54479e+08
-1.48993e+08
-1.42915e+08
-1.36607e+08
-1.29625e+08
-1.22821e+08
-1.15195e+08
-1.08046e+08
-9.93044e+07
-1.74941e+08
-1.58984e+08
-1.57315e+08
-1.55536e+08
-1.5273e+08
-1.49623e+08
-1.45751e+08
-1.4146e+08
-1.36673e+08
-1.31391e+08
-1.25919e+08
-1.1988e+08
-1.14006e+08
-1.07432e+08
-1.01249e+08
-9.36164e+07
-1.5942e+08
-1.45032e+08
-1.43548e+08
-1.41995e+08
-1.39525e+08
-1.36812e+08
-1.33422e+08
-1.29684e+08
-1.25513e+08
-1.20928e+08
-1.16183e+08
-1.10961e+08
-1.05889e+08
-1.00218e+08
-9.48569e+07
-8.81661e+07
-1.45412e+08
-1.32407e+08
-1.31092e+08
-1.2974e+08
-1.27569e+08
-1.25204e+08
-1.22241e+08
-1.18988e+08
-1.15358e+08
-1.11379e+08
-1.07266e+08
-1.02748e+08
-9.83651e+07
-9.34635e+07
-8.87992e+07
-8.2903e+07
-1.3274e+08
-1.20952e+08
-1.19789e+08
-1.18612e+08
-1.16708e+08
-1.14648e+08
-1.1206e+08
-1.09231e+08
-1.06072e+08
-1.0262e+08
-9.90534e+07
-9.51418e+07
-9.13482e+07
-8.71026e+07
-8.30278e+07
-7.78005e+07
-1.21243e+08
-1.10525e+08
-1.09498e+08
-1.08474e+08
-1.06806e+08
-1.05012e+08
-1.02753e+08
-1.00292e+08
-9.75437e+07
-9.45464e+07
-9.14508e+07
-8.80592e+07
-8.47696e+07
-8.10824e+07
-7.75069e+07
-7.28465e+07
-1.10778e+08
-1.01002e+08
-1.00096e+08
-9.92054e+07
-9.77436e+07
-9.61812e+07
-9.42092e+07
-9.20674e+07
-8.96744e+07
-8.70691e+07
-8.43787e+07
-8.14321e+07
-7.85718e+07
-7.53582e+07
-7.22027e+07
-6.80155e+07
-1.01222e+08
-9.22736e+07
-9.14756e+07
-9.07e+07
-8.94191e+07
-8.80573e+07
-8.63345e+07
-8.44685e+07
-8.23823e+07
-8.01138e+07
-7.77711e+07
-7.52046e+07
-7.27101e+07
-6.98987e+07
-6.70984e+07
-6.33117e+07
-9.24659e+07
-8.42462e+07
-8.35428e+07
-8.28667e+07
-8.17434e+07
-8.05548e+07
-7.90479e+07
-7.74192e+07
-7.55972e+07
-7.36175e+07
-7.15724e+07
-6.93302e+07
-6.71465e+07
-6.46756e+07
-6.21739e+07
-5.87223e+07
-8.44141e+07
-7.68374e+07
-7.6217e+07
-7.56264e+07
-7.46399e+07
-7.36004e+07
-7.22798e+07
-7.0855e+07
-6.926e+07
-6.75275e+07
-6.57367e+07
-6.37707e+07
-6.18512e+07
-5.96691e+07
-5.74199e+07
-5.42515e+07
-7.69842e+07
-6.99762e+07
-6.94282e+07
-6.8911e+07
-6.80429e+07
-6.71312e+07
-6.59709e+07
-6.47207e+07
-6.33203e+07
-6.17989e+07
-6.02251e+07
-5.84943e+07
-5.67991e+07
-5.48622e+07
-5.28269e+07
-4.98994e+07
-7.01049e+07
-6.36014e+07
-6.31163e+07
-6.26618e+07
-6.18957e+07
-6.10933e+07
-6.00708e+07
-5.89697e+07
-5.77356e+07
-5.6394e+07
-5.5005e+07
-5.34741e+07
-5.19692e+07
-5.02398e+07
-4.83847e+07
-4.56589e+07
-6.37145e+07
-5.76604e+07
-5.72298e+07
-5.68285e+07
-5.61502e+07
-5.5441e+07
-5.45362e+07
-5.35622e+07
-5.24698e+07
-5.12813e+07
-5.00494e+07
-4.86883e+07
-4.73448e+07
-4.57922e+07
-4.40906e+07
-4.15393e+07
-5.77603e+07
-5.21081e+07
-5.17245e+07
-5.13685e+07
-5.07652e+07
-5.01351e+07
-4.93307e+07
-4.84644e+07
-4.74926e+07
-4.64338e+07
-4.5335e+07
-4.41176e+07
-4.29105e+07
-4.15071e+07
-3.99343e+07
-3.75286e+07
-5.21968e+07
-4.69063e+07
-4.6563e+07
-4.6245e+07
-4.57057e+07
-4.51424e+07
-4.44232e+07
-4.36479e+07
-4.27781e+07
-4.18288e+07
-4.08424e+07
-3.97466e+07
-3.86546e+07
-3.73778e+07
-3.59143e+07
-3.36337e+07
-4.69855e+07
-4.20222e+07
-4.17134e+07
-4.14272e+07
-4.09421e+07
-4.04348e+07
-3.97876e+07
-3.90886e+07
-3.83046e+07
-3.74473e+07
-3.65552e+07
-3.55615e+07
-3.4566e+07
-3.33959e+07
-3.2024e+07
-2.9849e+07
-4.20936e+07
-3.74285e+07
-3.7149e+07
-3.68891e+07
-3.64497e+07
-3.59888e+07
-3.54019e+07
-3.47664e+07
-3.4054e+07
-3.32732e+07
-3.24597e+07
-3.15511e+07
-3.0636e+07
-2.95552e+07
-2.82597e+07
-2.61734e+07
-3.74934e+07
-3.31022e+07
-3.28473e+07
-3.26089e+07
-3.22076e+07
-3.17848e+07
-3.12478e+07
-3.06645e+07
-3.00111e+07
-2.92932e+07
-2.85443e+07
-2.7706e+07
-2.68571e+07
-2.58508e+07
-2.46191e+07
-2.26098e+07
-3.31618e+07
-2.90242e+07
-2.879e+07
-2.85687e+07
-2.81987e+07
-2.78066e+07
-2.73103e+07
-2.6769e+07
-2.61634e+07
-2.54962e+07
-2.47993e+07
-2.40176e+07
-2.32217e+07
-2.22756e+07
-2.10944e+07
-1.91464e+07
-2.90795e+07
-2.51789e+07
-2.49618e+07
-2.47538e+07
-2.44092e+07
-2.4041e+07
-2.35773e+07
-2.30688e+07
-2.25009e+07
-2.18734e+07
-2.1217e+07
-2.04798e+07
-1.97251e+07
-1.8827e+07
-1.7686e+07
-1.57901e+07
-2.52311e+07
-2.15542e+07
-2.13511e+07
-2.11527e+07
-2.08283e+07
-2.04781e+07
-2.00394e+07
-1.95555e+07
-1.90161e+07
-1.84179e+07
-1.77914e+07
-1.70869e+07
-1.63618e+07
-1.54989e+07
-1.43859e+07
-1.25279e+07
-2.1604e+07
-1.81403e+07
-1.79486e+07
-1.77568e+07
-1.74477e+07
-1.711e+07
-1.66897e+07
-1.62228e+07
-1.57032e+07
-1.51249e+07
-1.45184e+07
-1.38355e+07
-1.3129e+07
-1.22895e+07
-1.11936e+07
-9.36211e+06
-1.81887e+07
-1.49303e+07
-1.47476e+07
-1.45595e+07
-1.42617e+07
-1.39315e+07
-1.35235e+07
-1.30666e+07
-1.2559e+07
-1.19916e+07
-1.13953e+07
-1.07232e+07
-1.00244e+07
-9.19589e+06
-8.10548e+06
-6.28779e+06
-1.49779e+07
-1.19194e+07
-1.17437e+07
-1.15569e+07
-1.12665e+07
-1.09395e+07
-1.05383e+07
-1.00851e+07
-9.58215e+06
-9.01721e+06
-8.42178e+06
-7.74984e+06
-7.04752e+06
-6.21725e+06
-5.11947e+06
-3.30038e+06
-1.19668e+07
-9.10474e+06
-8.93445e+06
-8.7467e+06
-8.46072e+06
-8.13313e+06
-7.73387e+06
-7.27863e+06
-6.77346e+06
-6.20303e+06
-5.59956e+06
-4.91727e+06
-4.20029e+06
-3.3554e+06
-2.23787e+06
-404632
-9.15245e+06
-6.48504e+06
-6.31893e+06
-6.12857e+06
-5.84434e+06
-5.513e+06
-5.11155e+06
-4.64933e+06
-4.13588e+06
-3.55261e+06
-2.93244e+06
-2.22926e+06
-1.48571e+06
-611501
541491
2.40924e+06
-6.53351e+06
-4.0605e+06
-3.89768e+06
-3.70349e+06
-3.41908e+06
-3.08164e+06
-2.67475e+06
-2.20156e+06
-1.67468e+06
-1.07215e+06
-427284
306784
1.08867e+06
2.00672e+06
3.21045e+06
5.13025e+06
-4.10998e+06
-1.83228e+06
-1.67229e+06
-1.47363e+06
-1.18787e+06
-842934
-428447
58459.5
602690
1.22968e+06
1.90633e+06
2.68078e+06
3.51328e+06
4.49155e+06
5.76527e+06
7.76295e+06
-1.8829e+06
197827
355060
558120
845522
1.19817e+06
1.62105e+06
2.12279e+06
2.68653e+06
3.34127e+06
4.05506e+06
4.87775e+06
5.77243e+06
6.82712e+06
8.19151e+06
1.02954e+07
146154
2.02799e+06
2.18209e+06
2.38871e+06
2.67701e+06
3.03622e+06
3.46659e+06
3.98223e+06
4.56528e+06
5.24838e+06
6.002e+06
6.87818e+06
7.8451e+06
8.99185e+06
1.047e+07
1.27137e+07
1.97554e+06
3.6569e+06
3.80705e+06
4.01554e+06
4.30287e+06
4.66595e+06
5.10089e+06
5.62696e+06
6.22598e+06
6.93434e+06
7.72629e+06
8.65663e+06
9.70226e+06
1.09536e+07
1.25703e+07
1.4992e+07
3.60414e+06
5.08399e+06
5.22896e+06
5.43682e+06
5.72016e+06
6.08277e+06
6.5172e+06
7.04736e+06
7.65517e+06
8.38086e+06
9.2036e+06
1.01818e+07
1.13058e+07
1.26675e+07
1.44497e+07
1.70874e+07
5.03158e+06
6.31165e+06
6.44985e+06
6.65379e+06
6.92903e+06
7.28526e+06
7.7118e+06
8.23654e+06
8.84143e+06
9.57043e+06
1.04078e+07
1.14172e+07
1.26071e+07
1.40751e+07
1.60585e+07
1.89806e+07
6.26039e+06
7.34397e+06
7.47352e+06
7.66966e+06
7.93184e+06
8.27442e+06
8.68374e+06
9.19054e+06
9.77614e+06
1.04873e+07
1.13118e+07
1.23194e+07
1.35369e+07
1.50793e+07
1.72682e+07
2.05626e+07
7.29479e+06
8.16749e+06
8.28696e+06
8.47205e+06
8.71698e+06
9.03961e+06
9.42334e+06
9.90054e+06
1.04506e+07
1.11215e+07
1.19003e+07
1.28613e+07
1.40396e+07
1.55761e+07
1.78647e+07
2.15007e+07
8.12109e+06
8.91587e+06
9.02109e+06
9.1879e+06
9.40588e+06
9.69506e+06
1.00355e+07
1.04588e+07
1.09398e+07
1.15215e+07
1.21791e+07
1.29735e+07
1.39044e+07
1.50804e+07
1.68087e+07
1.9536e+07
8.874e+06
9.18885e+06
9.28374e+06
9.43649e+06
9.63457e+06
9.89883e+06
1.02077e+07
1.05925e+07
1.10253e+07
1.15466e+07
1.21239e+07
1.2807e+07
1.35614e+07
1.44416e+07
1.55092e+07
1.75217e+07
9.15045e+06
)
;

boundaryField
{
    wireUpstream
    {
        type            zeroGradient;
    }
    wireDownstream
    {
        type            zeroGradient;
    }
    wireTopContact
    {
        type            zeroGradient;
    }
    front
    {
        type            wedge;
    }
    back
    {
        type            wedge;
    }
}


// ************************************************************************* //
