/*--------------------------------*- C++ -*----------------------------------*\
| =========                 |                                                 |
| \\      /  F ield         | foam-extend: Open Source CFD                    |
|  \\    /   O peration     | Version:     4.1-20200408                       |
|   \\  /    A nd           | Web:         http://www.foam-extend.org         |
|    \\/     M anipulation  |                                                 |
\*---------------------------------------------------------------------------*/
FoamFile
{
    version     2.0;
    format      ascii;
    class       volVectorField;
    location    "0.0220000";
    object      U;
}
// * * * * * * * * * * * * * * * * * * * * * * * * * * * * * * * * * * * * * //

dimensions      [0 1 0 0 0 0 0];

internalField   nonuniform List<vector> 
1952
(
(0.0219397 -1.92124e-07 0)
(0.0219397 -3.13451e-07 0)
(0.0219397 -4.36053e-07 0)
(0.0219397 -5.61202e-07 0)
(0.0219397 -6.85463e-07 0)
(0.0219397 -8.13352e-07 0)
(0.0219397 -9.38889e-07 0)
(0.0219397 -1.0698e-06 0)
(0.0219398 -1.19621e-06 0)
(0.0219398 -1.33039e-06 0)
(0.0219398 -1.45653e-06 0)
(0.0219399 -1.59203e-06 0)
(0.0219399 -1.71264e-06 0)
(0.02194 -1.8423e-06 0)
(0.0219401 -1.94141e-06 0)
(0.0219397 -8.23335e-08 0)
(0.0219394 -1.97799e-07 0)
(0.0219394 -3.2262e-07 0)
(0.0219394 -4.48919e-07 0)
(0.0219394 -5.77552e-07 0)
(0.0219394 -7.05584e-07 0)
(0.0219394 -8.3694e-07 0)
(0.0219394 -9.66342e-07 0)
(0.0219394 -1.10068e-06 0)
(0.0219395 -1.23108e-06 0)
(0.0219395 -1.36883e-06 0)
(0.0219395 -1.49906e-06 0)
(0.0219395 -1.63807e-06 0)
(0.0219396 -1.76261e-06 0)
(0.0219397 -1.89527e-06 0)
(0.0219398 -1.99672e-06 0)
(0.0219394 -8.47586e-08 0)
(0.0219391 -2.02896e-07 0)
(0.0219391 -3.30875e-07 0)
(0.0219391 -4.60453e-07 0)
(0.0219391 -5.92222e-07 0)
(0.0219391 -7.23536e-07 0)
(0.0219391 -8.58017e-07 0)
(0.0219391 -9.90689e-07 0)
(0.0219391 -1.12801e-06 0)
(0.0219391 -1.26158e-06 0)
(0.0219392 -1.40223e-06 0)
(0.0219392 -1.53541e-06 0)
(0.0219392 -1.67681e-06 0)
(0.0219393 -1.80353e-06 0)
(0.0219394 -1.93743e-06 0)
(0.0219395 -2.03919e-06 0)
(0.0219391 -8.69393e-08 0)
(0.0219388 -2.07431e-07 0)
(0.0219388 -3.38234e-07 0)
(0.0219388 -4.70688e-07 0)
(0.0219388 -6.05245e-07 0)
(0.0219388 -7.39353e-07 0)
(0.0219388 -8.76635e-07 0)
(0.0219388 -1.01197e-06 0)
(0.0219388 -1.15191e-06 0)
(0.0219388 -1.28811e-06 0)
(0.0219388 -1.43096e-06 0)
(0.0219389 -1.56632e-06 0)
(0.0219389 -1.70936e-06 0)
(0.021939 -1.83744e-06 0)
(0.0219391 -1.97202e-06 0)
(0.0219392 -2.07402e-06 0)
(0.0219388 -8.88822e-08 0)
(0.0219385 -2.11436e-07 0)
(0.0219385 -3.44741e-07 0)
(0.0219385 -4.79688e-07 0)
(0.0219385 -6.16726e-07 0)
(0.0219385 -7.53223e-07 0)
(0.0219385 -8.92915e-07 0)
(0.0219385 -1.03045e-06 0)
(0.0219385 -1.17259e-06 0)
(0.0219385 -1.31094e-06 0)
(0.0219385 -1.45553e-06 0)
(0.0219386 -1.59256e-06 0)
(0.0219386 -1.73679e-06 0)
(0.0219387 -1.86588e-06 0)
(0.0219387 -2.00099e-06 0)
(0.0219389 -2.10352e-06 0)
(0.0219384 -9.05988e-08 0)
(0.0219381 -2.14943e-07 0)
(0.0219381 -3.50444e-07 0)
(0.0219381 -4.87545e-07 0)
(0.0219381 -6.2677e-07 0)
(0.0219381 -7.65323e-07 0)
(0.0219382 -9.07075e-07 0)
(0.0219382 -1.04649e-06 0)
(0.0219382 -1.19044e-06 0)
(0.0219382 -1.33053e-06 0)
(0.0219382 -1.47654e-06 0)
(0.0219382 -1.61493e-06 0)
(0.0219383 -1.76013e-06 0)
(0.0219383 -1.89011e-06 0)
(0.0219384 -2.0258e-06 0)
(0.0219385 -2.12902e-06 0)
(0.0219381 -9.21029e-08 0)
(0.0219378 -2.18006e-07 0)
(0.0219378 -3.55422e-07 0)
(0.0219378 -4.94403e-07 0)
(0.0219378 -6.35518e-07 0)
(0.0219378 -7.75849e-07 0)
(0.0219378 -9.19377e-07 0)
(0.0219378 -1.06039e-06 0)
(0.0219379 -1.20586e-06 0)
(0.0219379 -1.34741e-06 0)
(0.0219379 -1.49464e-06 0)
(0.0219379 -1.63418e-06 0)
(0.0219379 -1.78026e-06 0)
(0.021938 -1.91109e-06 0)
(0.0219381 -2.04744e-06 0)
(0.0219382 -2.15148e-06 0)
(0.0219378 -9.34173e-08 0)
(0.0219375 -2.20677e-07 0)
(0.0219375 -3.59764e-07 0)
(0.0219375 -5.00383e-07 0)
(0.0219375 -6.43143e-07 0)
(0.0219375 -7.85021e-07 0)
(0.0219375 -9.30075e-07 0)
(0.0219375 -1.07247e-06 0)
(0.0219375 -1.21926e-06 0)
(0.0219375 -1.36208e-06 0)
(0.0219376 -1.5104e-06 0)
(0.0219376 -1.65097e-06 0)
(0.0219376 -1.79789e-06 0)
(0.0219377 -1.92958e-06 0)
(0.0219378 -2.06665e-06 0)
(0.0219379 -2.17155e-06 0)
(0.0219375 -9.45639e-08 0)
(0.0219372 -2.23025e-07 0)
(0.0219372 -3.63573e-07 0)
(0.0219372 -5.05644e-07 0)
(0.0219372 -6.49813e-07 0)
(0.0219372 -7.93092e-07 0)
(0.0219372 -9.39401e-07 0)
(0.0219372 -1.0831e-06 0)
(0.0219372 -1.23115e-06 0)
(0.0219372 -1.37502e-06 0)
(0.0219372 -1.52437e-06 0)
(0.0219373 -1.66587e-06 0)
(0.0219373 -1.81362e-06 0)
(0.0219374 -1.94616e-06 0)
(0.0219374 -2.084e-06 0)
(0.0219376 -2.18981e-06 0)
(0.0219372 -9.55712e-08 0)
(0.0219368 -2.25104e-07 0)
(0.0219368 -3.66944e-07 0)
(0.0219368 -5.10297e-07 0)
(0.0219368 -6.55704e-07 0)
(0.0219369 -8.00226e-07 0)
(0.0219369 -9.47635e-07 0)
(0.0219369 -1.09252e-06 0)
(0.0219369 -1.24173e-06 0)
(0.0219369 -1.3866e-06 0)
(0.0219369 -1.53693e-06 0)
(0.0219369 -1.67932e-06 0)
(0.021937 -1.82792e-06 0)
(0.021937 -1.96135e-06 0)
(0.0219371 -2.10002e-06 0)
(0.0219372 -2.20676e-06 0)
(0.0219368 -9.64634e-08 0)
(0.0219365 -2.26972e-07 0)
(0.0219365 -3.69975e-07 0)
(0.0219365 -5.14482e-07 0)
(0.0219365 -6.61025e-07 0)
(0.0219365 -8.06675e-07 0)
(0.0219365 -9.55125e-07 0)
(0.0219365 -1.10107e-06 0)
(0.0219365 -1.25133e-06 0)
(0.0219366 -1.39716e-06 0)
(0.0219366 -1.54843e-06 0)
(0.0219366 -1.69173e-06 0)
(0.0219366 -1.84118e-06 0)
(0.0219367 -1.97554e-06 0)
(0.0219368 -2.11502e-06 0)
(0.0219369 -2.22268e-06 0)
(0.0219365 -9.72648e-08 0)
(0.0219362 -2.28672e-07 0)
(0.0219362 -3.72733e-07 0)
(0.0219362 -5.18295e-07 0)
(0.0219362 -6.65889e-07 0)
(0.0219362 -8.1255e-07 0)
(0.0219362 -9.61938e-07 0)
(0.0219362 -1.1089e-06 0)
(0.0219362 -1.26016e-06 0)
(0.0219362 -1.40693e-06 0)
(0.0219362 -1.55915e-06 0)
(0.0219363 -1.70337e-06 0)
(0.0219363 -1.85371e-06 0)
(0.0219364 -1.98901e-06 0)
(0.0219365 -2.12933e-06 0)
(0.0219366 -2.23789e-06 0)
(0.0219362 -9.79937e-08 0)
(0.0219359 -2.30235e-07 0)
(0.0219359 -3.75283e-07 0)
(0.0219359 -5.21798e-07 0)
(0.0219359 -6.70412e-07 0)
(0.0219359 -8.17929e-07 0)
(0.0219359 -9.683e-07 0)
(0.0219359 -1.11632e-06 0)
(0.0219359 -1.26847e-06 0)
(0.0219359 -1.4162e-06 0)
(0.0219359 -1.5693e-06 0)
(0.0219359 -1.71448e-06 0)
(0.021936 -1.86573e-06 0)
(0.021936 -2.00196e-06 0)
(0.0219361 -2.14319e-06 0)
(0.0219363 -2.25265e-06 0)
(0.0219359 -9.86646e-08 0)
(0.0219355 -2.31693e-07 0)
(0.0219355 -3.77656e-07 0)
(0.0219355 -5.25084e-07 0)
(0.0219355 -6.74634e-07 0)
(0.0219355 -8.23007e-07 0)
(0.0219355 -9.74346e-07 0)
(0.0219355 -1.1234e-06 0)
(0.0219356 -1.27645e-06 0)
(0.0219356 -1.42511e-06 0)
(0.0219356 -1.5791e-06 0)
(0.0219356 -1.72525e-06 0)
(0.0219356 -1.87742e-06 0)
(0.0219357 -2.01457e-06 0)
(0.0219358 -2.15672e-06 0)
(0.0219359 -2.26704e-06 0)
(0.0219355 -9.92895e-08 0)
(0.0219352 -2.33077e-07 0)
(0.0219352 -3.79906e-07 0)
(0.0219352 -5.28216e-07 0)
(0.0219352 -6.78633e-07 0)
(0.0219352 -8.27877e-07 0)
(0.0219352 -9.80163e-07 0)
(0.0219352 -1.13021e-06 0)
(0.0219352 -1.28416e-06 0)
(0.0219352 -1.43381e-06 0)
(0.0219352 -1.58872e-06 0)
(0.0219353 -1.73583e-06 0)
(0.0219353 -1.88894e-06 0)
(0.0219354 -2.02702e-06 0)
(0.0219355 -2.17008e-06 0)
(0.0219356 -2.28126e-06 0)
(0.0219352 -9.98828e-08 0)
(0.0219349 -2.34418e-07 0)
(0.0219349 -3.82069e-07 0)
(0.0219349 -5.31275e-07 0)
(0.0219349 -6.82484e-07 0)
(0.0219349 -8.32691e-07 0)
(0.0219349 -9.85954e-07 0)
(0.0219349 -1.13692e-06 0)
(0.0219349 -1.29179e-06 0)
(0.0219349 -1.44239e-06 0)
(0.0219349 -1.59822e-06 0)
(0.0219349 -1.74629e-06 0)
(0.021935 -1.90035e-06 0)
(0.021935 -2.03933e-06 0)
(0.0219351 -2.18332e-06 0)
(0.0219352 -2.29535e-06 0)
(0.0219349 -1.00456e-07 0)
(0.0219345 -2.35738e-07 0)
(0.0219345 -3.84209e-07 0)
(0.0219345 -5.34315e-07 0)
(0.0219345 -6.86335e-07 0)
(0.0219345 -8.37502e-07 0)
(0.0219345 -9.91678e-07 0)
(0.0219345 -1.14354e-06 0)
(0.0219345 -1.29933e-06 0)
(0.0219346 -1.45086e-06 0)
(0.0219346 -1.60763e-06 0)
(0.0219346 -1.75666e-06 0)
(0.0219346 -1.91165e-06 0)
(0.0219347 -2.05155e-06 0)
(0.0219348 -2.19645e-06 0)
(0.0219349 -2.30927e-06 0)
(0.0219345 -1.0102e-07 0)
(0.0219342 -2.37044e-07 0)
(0.0219342 -3.86336e-07 0)
(0.0219342 -5.37294e-07 0)
(0.0219342 -6.90155e-07 0)
(0.0219342 -8.42278e-07 0)
(0.0219342 -9.97331e-07 0)
(0.0219342 -1.15013e-06 0)
(0.0219342 -1.30682e-06 0)
(0.0219342 -1.4593e-06 0)
(0.0219342 -1.61699e-06 0)
(0.0219343 -1.76698e-06 0)
(0.0219343 -1.9229e-06 0)
(0.0219344 -2.06372e-06 0)
(0.0219344 -2.20952e-06 0)
(0.0219346 -2.32312e-06 0)
(0.0219342 -1.01578e-07 0)
(0.0219339 -2.38311e-07 0)
(0.0219339 -3.88423e-07 0)
(0.0219339 -5.4016e-07 0)
(0.0219339 -6.93909e-07 0)
(0.0219339 -8.4705e-07 0)
(0.0219339 -1.00295e-06 0)
(0.0219339 -1.15672e-06 0)
(0.0219339 -1.31431e-06 0)
(0.0219339 -1.46773e-06 0)
(0.0219339 -1.62634e-06 0)
(0.0219339 -1.77732e-06 0)
(0.0219339 -1.93415e-06 0)
(0.021934 -2.07589e-06 0)
(0.0219341 -2.2226e-06 0)
(0.0219342 -2.33703e-06 0)
(0.0219339 -1.02122e-07 0)
(0.0219335 -2.39597e-07 0)
(0.0219335 -3.9049e-07 0)
(0.0219335 -5.43095e-07 0)
(0.0219335 -6.97776e-07 0)
(0.0219335 -8.51839e-07 0)
(0.0219335 -1.00861e-06 0)
(0.0219335 -1.16332e-06 0)
(0.0219335 -1.32182e-06 0)
(0.0219335 -1.47621e-06 0)
(0.0219336 -1.63575e-06 0)
(0.0219336 -1.78772e-06 0)
(0.0219336 -1.94547e-06 0)
(0.0219337 -2.08814e-06 0)
(0.0219337 -2.23578e-06 0)
(0.0219339 -2.35103e-06 0)
(0.0219335 -1.0267e-07 0)
(0.0219332 -2.40893e-07 0)
(0.0219332 -3.92587e-07 0)
(0.0219332 -5.46122e-07 0)
(0.0219332 -7.01689e-07 0)
(0.0219332 -8.56623e-07 0)
(0.0219332 -1.01426e-06 0)
(0.0219332 -1.1699e-06 0)
(0.0219332 -1.3293e-06 0)
(0.0219332 -1.48465e-06 0)
(0.0219332 -1.64516e-06 0)
(0.0219332 -1.7981e-06 0)
(0.0219333 -1.95681e-06 0)
(0.0219333 -2.1004e-06 0)
(0.0219334 -2.24896e-06 0)
(0.0219335 -2.36501e-06 0)
(0.0219332 -1.03224e-07 0)
(0.0219329 -2.4216e-07 0)
(0.0219329 -3.94722e-07 0)
(0.0219329 -5.49196e-07 0)
(0.0219329 -7.05578e-07 0)
(0.0219329 -8.61423e-07 0)
(0.0219329 -1.01991e-06 0)
(0.0219329 -1.17648e-06 0)
(0.0219329 -1.3368e-06 0)
(0.0219329 -1.49311e-06 0)
(0.0219329 -1.6546e-06 0)
(0.0219329 -1.80851e-06 0)
(0.0219329 -1.96821e-06 0)
(0.021933 -2.11274e-06 0)
(0.021933 -2.26221e-06 0)
(0.0219332 -2.37908e-06 0)
(0.0219329 -1.03767e-07 0)
(0.0219325 -2.43524e-07 0)
(0.0219325 -3.96947e-07 0)
(0.0219325 -5.52288e-07 0)
(0.0219325 -7.09479e-07 0)
(0.0219325 -8.66218e-07 0)
(0.0219325 -1.02554e-06 0)
(0.0219325 -1.18302e-06 0)
(0.0219325 -1.34429e-06 0)
(0.0219325 -1.50155e-06 0)
(0.0219325 -1.66405e-06 0)
(0.0219325 -1.81893e-06 0)
(0.0219326 -1.97962e-06 0)
(0.0219326 -2.1251e-06 0)
(0.0219327 -2.27551e-06 0)
(0.0219328 -2.39319e-06 0)
(0.0219325 -1.0435e-07 0)
(0.0219322 -2.44905e-07 0)
(0.0219322 -3.99164e-07 0)
(0.0219322 -5.55336e-07 0)
(0.0219322 -7.13347e-07 0)
(0.0219322 -8.70986e-07 0)
(0.0219322 -1.03112e-06 0)
(0.0219322 -1.18952e-06 0)
(0.0219322 -1.35175e-06 0)
(0.0219322 -1.50996e-06 0)
(0.0219322 -1.67346e-06 0)
(0.0219322 -1.82934e-06 0)
(0.0219322 -1.99104e-06 0)
(0.0219323 -2.13748e-06 0)
(0.0219323 -2.28882e-06 0)
(0.0219325 -2.40734e-06 0)
(0.0219322 -1.04941e-07 0)
(0.0219318 -2.46224e-07 0)
(0.0219318 -4.013e-07 0)
(0.0219318 -5.58307e-07 0)
(0.0219318 -7.17158e-07 0)
(0.0219318 -8.75664e-07 0)
(0.0219318 -1.03666e-06 0)
(0.0219318 -1.19597e-06 0)
(0.0219318 -1.35916e-06 0)
(0.0219318 -1.51833e-06 0)
(0.0219318 -1.68283e-06 0)
(0.0219318 -1.83971e-06 0)
(0.0219319 -2.00242e-06 0)
(0.0219319 -2.14984e-06 0)
(0.021932 -2.30213e-06 0)
(0.0219321 -2.42149e-06 0)
(0.0219318 -1.05506e-07 0)
(0.0219315 -2.47501e-07 0)
(0.0219315 -4.03376e-07 0)
(0.0219315 -5.61197e-07 0)
(0.0219315 -7.20893e-07 0)
(0.0219315 -8.80236e-07 0)
(0.0219315 -1.04213e-06 0)
(0.0219315 -1.20234e-06 0)
(0.0219315 -1.36647e-06 0)
(0.0219315 -1.52662e-06 0)
(0.0219315 -1.69212e-06 0)
(0.0219315 -1.85002e-06 0)
(0.0219315 -2.01374e-06 0)
(0.0219316 -2.16215e-06 0)
(0.0219316 -2.31541e-06 0)
(0.0219318 -2.43564e-06 0)
(0.0219315 -1.06053e-07 0)
(0.0219312 -2.48729e-07 0)
(0.0219312 -4.05383e-07 0)
(0.0219312 -5.64004e-07 0)
(0.0219311 -7.24529e-07 0)
(0.0219311 -8.84708e-07 0)
(0.0219311 -1.04748e-06 0)
(0.0219311 -1.20861e-06 0)
(0.0219311 -1.37367e-06 0)
(0.0219311 -1.53481e-06 0)
(0.0219311 -1.7013e-06 0)
(0.0219311 -1.86023e-06 0)
(0.0219312 -2.02496e-06 0)
(0.0219312 -2.17436e-06 0)
(0.0219313 -2.32858e-06 0)
(0.0219314 -2.44967e-06 0)
(0.0219312 -1.06579e-07 0)
(0.0219308 -2.49913e-07 0)
(0.0219308 -4.07322e-07 0)
(0.0219308 -5.6672e-07 0)
(0.0219308 -7.28057e-07 0)
(0.0219308 -8.89058e-07 0)
(0.0219308 -1.05269e-06 0)
(0.0219308 -1.21473e-06 0)
(0.0219308 -1.38072e-06 0)
(0.0219308 -1.54285e-06 0)
(0.0219308 -1.71033e-06 0)
(0.0219308 -1.87029e-06 0)
(0.0219308 -2.03603e-06 0)
(0.0219308 -2.18644e-06 0)
(0.0219309 -2.34163e-06 0)
(0.021931 -2.4636e-06 0)
(0.0219308 -1.07086e-07 0)
(0.0219305 -2.51055e-07 0)
(0.0219305 -4.09194e-07 0)
(0.0219305 -5.69348e-07 0)
(0.0219305 -7.31471e-07 0)
(0.0219304 -8.93283e-07 0)
(0.0219304 -1.05777e-06 0)
(0.0219304 -1.22071e-06 0)
(0.0219304 -1.38762e-06 0)
(0.0219304 -1.55075e-06 0)
(0.0219304 -1.71922e-06 0)
(0.0219304 -1.88023e-06 0)
(0.0219304 -2.04701e-06 0)
(0.0219305 -2.19846e-06 0)
(0.0219306 -2.35467e-06 0)
(0.0219307 -2.47759e-06 0)
(0.0219305 -1.07575e-07 0)
(0.0219301 -2.52162e-07 0)
(0.0219301 -4.11011e-07 0)
(0.0219301 -5.719e-07 0)
(0.0219301 -7.34792e-07 0)
(0.0219301 -8.97399e-07 0)
(0.0219301 -1.06272e-06 0)
(0.0219301 -1.22655e-06 0)
(0.0219301 -1.39438e-06 0)
(0.0219301 -1.5585e-06 0)
(0.0219301 -1.72797e-06 0)
(0.0219301 -1.89004e-06 0)
(0.0219301 -2.05789e-06 0)
(0.0219301 -2.21041e-06 0)
(0.0219302 -2.36769e-06 0)
(0.0219303 -2.4916e-06 0)
(0.0219301 -1.08049e-07 0)
(0.0219298 -2.53235e-07 0)
(0.0219298 -4.12771e-07 0)
(0.0219298 -5.74376e-07 0)
(0.0219298 -7.38017e-07 0)
(0.0219298 -9.014e-07 0)
(0.0219297 -1.06755e-06 0)
(0.0219297 -1.23225e-06 0)
(0.0219297 -1.40098e-06 0)
(0.0219297 -1.56611e-06 0)
(0.0219297 -1.73655e-06 0)
(0.0219297 -1.8997e-06 0)
(0.0219297 -2.06864e-06 0)
(0.0219298 -2.22225e-06 0)
(0.0219298 -2.38062e-06 0)
(0.0219299 -2.50553e-06 0)
(0.0219298 -1.08508e-07 0)
(0.0219294 -2.54285e-07 0)
(0.0219294 -4.14493e-07 0)
(0.0219294 -5.76798e-07 0)
(0.0219294 -7.41175e-07 0)
(0.0219294 -9.05321e-07 0)
(0.0219294 -1.07229e-06 0)
(0.0219294 -1.23785e-06 0)
(0.0219294 -1.40749e-06 0)
(0.0219293 -1.57362e-06 0)
(0.0219293 -1.74503e-06 0)
(0.0219293 -1.90924e-06 0)
(0.0219294 -2.0793e-06 0)
(0.0219294 -2.23402e-06 0)
(0.0219295 -2.39351e-06 0)
(0.0219296 -2.51946e-06 0)
(0.0219294 -1.08957e-07 0)
(0.0219291 -2.55325e-07 0)
(0.0219291 -4.16198e-07 0)
(0.0219291 -5.79196e-07 0)
(0.0219291 -7.443e-07 0)
(0.0219291 -9.09196e-07 0)
(0.021929 -1.07697e-06 0)
(0.021929 -1.24337e-06 0)
(0.021929 -1.41392e-06 0)
(0.021929 -1.58102e-06 0)
(0.021929 -1.75342e-06 0)
(0.021929 -1.91871e-06 0)
(0.021929 -2.0899e-06 0)
(0.021929 -2.24577e-06 0)
(0.0219291 -2.40641e-06 0)
(0.0219292 -2.53348e-06 0)
(0.0219291 -1.09403e-07 0)
(0.0219287 -2.56385e-07 0)
(0.0219287 -4.17931e-07 0)
(0.0219287 -5.81627e-07 0)
(0.0219287 -7.47462e-07 0)
(0.0219287 -9.13104e-07 0)
(0.0219287 -1.08169e-06 0)
(0.0219287 -1.24892e-06 0)
(0.0219286 -1.42038e-06 0)
(0.0219286 -1.58841e-06 0)
(0.0219286 -1.76183e-06 0)
(0.0219286 -1.92821e-06 0)
(0.0219286 -2.10052e-06 0)
(0.0219287 -2.25758e-06 0)
(0.0219287 -2.41941e-06 0)
(0.0219288 -2.54765e-06 0)
(0.0219287 -1.09856e-07 0)
(0.0219284 -2.57496e-07 0)
(0.0219284 -4.19743e-07 0)
(0.0219284 -5.8416e-07 0)
(0.0219284 -7.50747e-07 0)
(0.0219283 -9.17134e-07 0)
(0.0219283 -1.08654e-06 0)
(0.0219283 -1.25458e-06 0)
(0.0219283 -1.42694e-06 0)
(0.0219283 -1.59591e-06 0)
(0.0219282 -1.7703e-06 0)
(0.0219282 -1.93779e-06 0)
(0.0219282 -2.11116e-06 0)
(0.0219283 -2.26948e-06 0)
(0.0219283 -2.43239e-06 0)
(0.0219285 -2.56197e-06 0)
(0.0219284 -1.10332e-07 0)
(0.0219281 -2.58705e-07 0)
(0.021928 -4.21707e-07 0)
(0.021928 -5.86891e-07 0)
(0.021928 -7.54265e-07 0)
(0.021928 -9.21416e-07 0)
(0.021928 -1.09166e-06 0)
(0.0219279 -1.26051e-06 0)
(0.0219279 -1.43375e-06 0)
(0.0219279 -1.60368e-06 0)
(0.0219279 -1.77902e-06 0)
(0.0219279 -1.94764e-06 0)
(0.0219279 -2.12208e-06 0)
(0.0219279 -2.28165e-06 0)
(0.021928 -2.44565e-06 0)
(0.0219281 -2.57669e-06 0)
(0.0219281 -1.10849e-07 0)
(0.0219277 -2.60068e-07 0)
(0.0219277 -4.23915e-07 0)
(0.0219277 -5.89952e-07 0)
(0.0219277 -7.58183e-07 0)
(0.0219276 -9.2615e-07 0)
(0.0219276 -1.09728e-06 0)
(0.0219276 -1.26693e-06 0)
(0.0219276 -1.44105e-06 0)
(0.0219275 -1.61195e-06 0)
(0.0219275 -1.78823e-06 0)
(0.0219275 -1.95801e-06 0)
(0.0219275 -2.1335e-06 0)
(0.0219275 -2.2944e-06 0)
(0.0219276 -2.45957e-06 0)
(0.0219277 -2.59213e-06 0)
(0.0219277 -1.11432e-07 0)
(0.0219274 -2.61664e-07 0)
(0.0219273 -4.26493e-07 0)
(0.0219273 -5.93508e-07 0)
(0.0219273 -7.62709e-07 0)
(0.0219273 -9.31587e-07 0)
(0.0219273 -1.10366e-06 0)
(0.0219272 -1.27415e-06 0)
(0.0219272 -1.44915e-06 0)
(0.0219272 -1.62106e-06 0)
(0.0219271 -1.79824e-06 0)
(0.0219271 -1.9692e-06 0)
(0.0219271 -2.1457e-06 0)
(0.0219272 -2.30804e-06 0)
(0.0219272 -2.47441e-06 0)
(0.0219273 -2.60859e-06 0)
(0.0219274 -1.12116e-07 0)
(0.021927 -2.63596e-07 0)
(0.021927 -4.29606e-07 0)
(0.021927 -5.97784e-07 0)
(0.021927 -7.68108e-07 0)
(0.0219269 -9.38056e-07 0)
(0.0219269 -1.11114e-06 0)
(0.0219269 -1.28261e-06 0)
(0.0219268 -1.45854e-06 0)
(0.0219268 -1.63146e-06 0)
(0.0219268 -1.80953e-06 0)
(0.0219268 -1.98167e-06 0)
(0.0219267 -2.15915e-06 0)
(0.0219268 -2.32293e-06 0)
(0.0219268 -2.49049e-06 0)
(0.0219269 -2.62633e-06 0)
(0.021927 -1.12943e-07 0)
(0.0219267 -2.65989e-07 0)
(0.0219266 -4.33455e-07 0)
(0.0219266 -6.03054e-07 0)
(0.0219266 -7.74729e-07 0)
(0.0219266 -9.4594e-07 0)
(0.0219266 -1.12018e-06 0)
(0.0219265 -1.29276e-06 0)
(0.0219265 -1.4697e-06 0)
(0.0219264 -1.64363e-06 0)
(0.0219264 -1.82262e-06 0)
(0.0219264 -1.9959e-06 0)
(0.0219264 -2.17433e-06 0)
(0.0219264 -2.33954e-06 0)
(0.0219264 -2.50824e-06 0)
(0.0219265 -2.64584e-06 0)
(0.0219267 -1.13969e-07 0)
(0.0219263 -2.68999e-07 0)
(0.0219263 -4.38292e-07 0)
(0.0219263 -6.09663e-07 0)
(0.0219263 -7.83007e-07 0)
(0.0219262 -9.55754e-07 0)
(0.0219262 -1.13139e-06 0)
(0.0219262 -1.30523e-06 0)
(0.0219261 -1.4833e-06 0)
(0.0219261 -1.65831e-06 0)
(0.021926 -1.83824e-06 0)
(0.021926 -2.01262e-06 0)
(0.021926 -2.19197e-06 0)
(0.021926 -2.35857e-06 0)
(0.021926 -2.52844e-06 0)
(0.0219261 -2.6678e-06 0)
(0.0219263 -1.15259e-07 0)
(0.021926 -2.72811e-07 0)
(0.0219259 -4.44415e-07 0)
(0.0219259 -6.18015e-07 0)
(0.0219259 -7.93457e-07 0)
(0.0219259 -9.68108e-07 0)
(0.0219258 -1.14546e-06 0)
(0.0219258 -1.3208e-06 0)
(0.0219257 -1.50018e-06 0)
(0.0219257 -1.67634e-06 0)
(0.0219257 -1.85724e-06 0)
(0.0219256 -2.03268e-06 0)
(0.0219256 -2.21287e-06 0)
(0.0219256 -2.3808e-06 0)
(0.0219256 -2.55174e-06 0)
(0.0219257 -2.69292e-06 0)
(0.021926 -1.16893e-07 0)
(0.0219256 -2.7764e-07 0)
(0.0219256 -4.52178e-07 0)
(0.0219256 -6.28602e-07 0)
(0.0219255 -8.06698e-07 0)
(0.0219255 -9.83739e-07 0)
(0.0219255 -1.16324e-06 0)
(0.0219254 -1.3404e-06 0)
(0.0219254 -1.52135e-06 0)
(0.0219253 -1.6988e-06 0)
(0.0219253 -1.88076e-06 0)
(0.0219252 -2.0572e-06 0)
(0.0219252 -2.23818e-06 0)
(0.0219252 -2.40732e-06 0)
(0.0219252 -2.57921e-06 0)
(0.0219253 -2.72219e-06 0)
(0.0219256 -1.18965e-07 0)
(0.0219253 -2.83723e-07 0)
(0.0219252 -4.61978e-07 0)
(0.0219252 -6.41976e-07 0)
(0.0219252 -8.23436e-07 0)
(0.0219252 -1.00351e-06 0)
(0.0219251 -1.18573e-06 0)
(0.0219251 -1.36516e-06 0)
(0.021925 -1.54804e-06 0)
(0.021925 -1.72699e-06 0)
(0.0219249 -1.91014e-06 0)
(0.0219249 -2.08755e-06 0)
(0.0219248 -2.26924e-06 0)
(0.0219248 -2.43943e-06 0)
(0.0219248 -2.61211e-06 0)
(0.0219249 -2.75688e-06 0)
(0.0219253 -1.21572e-07 0)
(0.0219249 -2.91324e-07 0)
(0.0219249 -4.74246e-07 0)
(0.0219249 -6.58755e-07 0)
(0.0219248 -8.44464e-07 0)
(0.0219248 -1.02839e-06 0)
(0.0219248 -1.21406e-06 0)
(0.0219247 -1.39639e-06 0)
(0.0219246 -1.58173e-06 0)
(0.0219246 -1.76251e-06 0)
(0.0219245 -1.94708e-06 0)
(0.0219245 -2.12546e-06 0)
(0.0219244 -2.30783e-06 0)
(0.0219244 -2.4788e-06 0)
(0.0219244 -2.6521e-06 0)
(0.0219245 -2.79855e-06 0)
(0.0219249 -1.24832e-07 0)
(0.0219245 -3.00743e-07 0)
(0.0219245 -4.89449e-07 0)
(0.0219245 -6.796e-07 0)
(0.0219245 -8.70633e-07 0)
(0.0219244 -1.05943e-06 0)
(0.0219244 -1.24952e-06 0)
(0.0219243 -1.43558e-06 0)
(0.0219243 -1.62411e-06 0)
(0.0219242 -1.80724e-06 0)
(0.0219241 -1.99364e-06 0)
(0.0219241 -2.17309e-06 0)
(0.021924 -2.35613e-06 0)
(0.021924 -2.52763e-06 0)
(0.021924 -2.70123e-06 0)
(0.0219241 -2.84916e-06 0)
(0.0219245 -1.28874e-07 0)
(0.0219242 -3.1227e-07 0)
(0.0219241 -5.08062e-07 0)
(0.0219241 -7.05148e-07 0)
(0.0219241 -9.02803e-07 0)
(0.0219241 -1.09771e-06 0)
(0.021924 -1.29343e-06 0)
(0.021924 -1.4843e-06 0)
(0.0219239 -1.67703e-06 0)
(0.0219238 -1.8633e-06 0)
(0.0219238 -2.05218e-06 0)
(0.0219237 -2.23301e-06 0)
(0.0219236 -2.41686e-06 0)
(0.0219236 -2.58867e-06 0)
(0.0219236 -2.76224e-06 0)
(0.0219236 -2.91133e-06 0)
(0.0219242 -1.33818e-07 0)
(0.0219238 -3.26134e-07 0)
(0.0219238 -5.30478e-07 0)
(0.0219237 -7.35975e-07 0)
(0.0219237 -9.41763e-07 0)
(0.0219237 -1.14428e-06 0)
(0.0219236 -1.34709e-06 0)
(0.0219236 -1.5442e-06 0)
(0.0219235 -1.74248e-06 0)
(0.0219235 -1.93305e-06 0)
(0.0219234 -2.12545e-06 0)
(0.0219233 -2.30831e-06 0)
(0.0219232 -2.49341e-06 0)
(0.0219232 -2.66539e-06 0)
(0.0219232 -2.83862e-06 0)
(0.0219232 -2.98825e-06 0)
(0.0219238 -1.39762e-07 0)
(0.0219234 -3.42497e-07 0)
(0.0219234 -5.56971e-07 0)
(0.0219233 -7.72519e-07 0)
(0.0219233 -9.88135e-07 0)
(0.0219233 -1.19998e-06 0)
(0.0219232 -1.41165e-06 0)
(0.0219232 -1.61677e-06 0)
(0.0219231 -1.82237e-06 0)
(0.0219231 -2.01891e-06 0)
(0.021923 -2.21643e-06 0)
(0.0219229 -2.40256e-06 0)
(0.0219228 -2.58993e-06 0)
(0.0219228 -2.7624e-06 0)
(0.0219228 -2.93515e-06 0)
(0.0219228 -3.08442e-06 0)
(0.0219234 -1.46776e-07 0)
(0.021923 -3.61427e-07 0)
(0.0219229 -5.87667e-07 0)
(0.0219229 -8.1499e-07 0)
(0.0219229 -1.04225e-06 0)
(0.0219229 -1.26534e-06 0)
(0.0219228 -1.48788e-06 0)
(0.0219228 -1.70314e-06 0)
(0.0219227 -1.91827e-06 0)
(0.0219227 -2.12307e-06 0)
(0.0219226 -2.32807e-06 0)
(0.0219225 -2.51966e-06 0)
(0.0219224 -2.71153e-06 0)
(0.0219224 -2.88608e-06 0)
(0.0219223 -3.05968e-06 0)
(0.0219223 -3.20867e-06 0)
(0.021923 -1.54889e-07 0)
(0.0219225 -3.82819e-07 0)
(0.0219225 -6.22457e-07 0)
(0.0219225 -8.63277e-07 0)
(0.0219225 -1.104e-06 0)
(0.0219224 -1.34036e-06 0)
(0.0219224 -1.57592e-06 0)
(0.0219224 -1.80374e-06 0)
(0.0219223 -2.031e-06 0)
(0.0219223 -2.2469e-06 0)
(0.0219222 -2.4625e-06 0)
(0.0219221 -2.66281e-06 0)
(0.021922 -2.86289e-06 0)
(0.021922 -3.04321e-06 0)
(0.0219219 -3.22198e-06 0)
(0.0219219 -3.37442e-06 0)
(0.0219225 -1.64058e-07 0)
(0.0219221 -4.06388e-07 0)
(0.0219221 -6.60897e-07 0)
(0.021922 -9.16798e-07 0)
(0.021922 -1.17269e-06 0)
(0.021922 -1.42429e-06 0)
(0.021922 -1.67503e-06 0)
(0.0219219 -1.91791e-06 0)
(0.0219219 -2.16005e-06 0)
(0.0219218 -2.39022e-06 0)
(0.0219218 -2.61993e-06 0)
(0.0219217 -2.83284e-06 0)
(0.0219216 -3.04557e-06 0)
(0.0219215 -3.2363e-06 0)
(0.0219215 -3.42594e-06 0)
(0.0219214 -3.5872e-06 0)
(0.0219221 -1.74161e-07 0)
(0.0219216 -4.31646e-07 0)
(0.0219216 -7.02165e-07 0)
(0.0219216 -9.74431e-07 0)
(0.0219216 -1.24696e-06 0)
(0.0219215 -1.51551e-06 0)
(0.0219215 -1.78338e-06 0)
(0.0219215 -2.04368e-06 0)
(0.0219214 -2.30335e-06 0)
(0.0219214 -2.55092e-06 0)
(0.0219213 -2.7982e-06 0)
(0.0219213 -3.02759e-06 0)
(0.0219212 -3.2572e-06 0)
(0.0219211 -3.46238e-06 0)
(0.021921 -3.6672e-06 0)
(0.021921 -3.84012e-06 0)
(0.0219216 -1.84985e-07 0)
(0.0219211 -4.57861e-07 0)
(0.0219211 -7.45075e-07 0)
(0.0219211 -1.03453e-06 0)
(0.0219211 -1.3247e-06 0)
(0.021921 -1.61149e-06 0)
(0.021921 -1.89805e-06 0)
(0.021921 -2.17775e-06 0)
(0.021921 -2.45719e-06 0)
(0.0219209 -2.72498e-06 0)
(0.0219209 -2.993e-06 0)
(0.0219208 -3.24249e-06 0)
(0.0219207 -3.49287e-06 0)
(0.0219207 -3.71627e-06 0)
(0.0219206 -3.94015e-06 0)
(0.0219205 -4.12728e-06 0)
(0.0219211 -1.96216e-07 0)
(0.0219205 -4.84088e-07 0)
(0.0219205 -7.88079e-07 0)
(0.0219205 -1.09492e-06 0)
(0.0219205 -1.40309e-06 0)
(0.0219205 -1.70878e-06 0)
(0.0219205 -2.01492e-06 0)
(0.0219205 -2.31532e-06 0)
(0.0219205 -2.61621e-06 0)
(0.0219204 -2.90642e-06 0)
(0.0219204 -3.19773e-06 0)
(0.0219203 -3.47037e-06 0)
(0.0219203 -3.74487e-06 0)
(0.0219202 -3.98977e-06 0)
(0.0219201 -4.23617e-06 0)
(0.0219201 -4.43972e-06 0)
(0.0219205 -2.07449e-07 0)
(0.02192 -5.09197e-07 0)
(0.02192 -8.29316e-07 0)
(0.02192 -1.15296e-06 0)
(0.02192 -1.47872e-06 0)
(0.02192 -1.80309e-06 0)
(0.02192 -2.12885e-06 0)
(0.0219199 -2.45033e-06 0)
(0.0219199 -2.77343e-06 0)
(0.0219199 -3.08739e-06 0)
(0.0219199 -3.40361e-06 0)
(0.0219199 -3.7018e-06 0)
(0.0219198 -4.00303e-06 0)
(0.0219198 -4.27237e-06 0)
(0.0219197 -4.54431e-06 0)
(0.0219196 -4.76624e-06 0)
(0.02192 -2.182e-07 0)
(0.0219194 -5.31919e-07 0)
(0.0219194 -8.66678e-07 0)
(0.0219194 -1.20574e-06 0)
(0.0219194 -1.54773e-06 0)
(0.0219194 -1.88956e-06 0)
(0.0219194 -2.23388e-06 0)
(0.0219194 -2.57569e-06 0)
(0.0219194 -2.9205e-06 0)
(0.0219194 -3.25829e-06 0)
(0.0219193 -3.59979e-06 0)
(0.0219193 -3.92487e-06 0)
(0.0219193 -4.25441e-06 0)
(0.0219193 -4.5508e-06 0)
(0.0219192 -4.85097e-06 0)
(0.0219192 -5.09363e-06 0)
(0.0219194 -2.27924e-07 0)
(0.0219188 -5.50957e-07 0)
(0.0219188 -8.98016e-07 0)
(0.0219188 -1.25018e-06 0)
(0.0219188 -1.60603e-06 0)
(0.0219188 -1.96298e-06 0)
(0.0219188 -2.32357e-06 0)
(0.0219188 -2.68358e-06 0)
(0.0219188 -3.04806e-06 0)
(0.0219188 -3.40811e-06 0)
(0.0219188 -3.77355e-06 0)
(0.0219188 -4.12517e-06 0)
(0.0219188 -4.48293e-06 0)
(0.0219188 -4.80778e-06 0)
(0.0219187 -5.1378e-06 0)
(0.0219187 -5.4034e-06 0)
(0.0219188 -2.36065e-07 0)
(0.0219181 -5.65096e-07 0)
(0.0219181 -9.2132e-07 0)
(0.0219181 -1.28332e-06 0)
(0.0219181 -1.64967e-06 0)
(0.0219181 -2.01823e-06 0)
(0.0219181 -2.39146e-06 0)
(0.0219181 -2.76596e-06 0)
(0.0219182 -3.14629e-06 0)
(0.0219182 -3.52499e-06 0)
(0.0219182 -3.91068e-06 0)
(0.0219182 -4.28609e-06 0)
(0.0219182 -4.66939e-06 0)
(0.0219182 -5.02201e-06 0)
(0.0219183 -5.38153e-06 0)
(0.0219183 -5.67113e-06 0)
(0.0219181 -2.42108e-07 0)
(0.0219175 -5.7335e-07 0)
(0.0219175 -9.34934e-07 0)
(0.0219175 -1.30276e-06 0)
(0.0219175 -1.67534e-06 0)
(0.0219175 -2.05099e-06 0)
(0.0219175 -2.43195e-06 0)
(0.0219175 -2.81569e-06 0)
(0.0219175 -3.20615e-06 0)
(0.0219175 -3.59753e-06 0)
(0.0219176 -3.99704e-06 0)
(0.0219176 -4.3902e-06 0)
(0.0219176 -4.79274e-06 0)
(0.0219177 -5.16932e-06 0)
(0.0219178 -5.55547e-06 0)
(0.0219179 -5.86959e-06 0)
(0.0219175 -2.45631e-07 0)
(0.0219168 -5.75219e-07 0)
(0.0219168 -9.37991e-07 0)
(0.0219168 -1.30716e-06 0)
(0.0219168 -1.68116e-06 0)
(0.0219168 -2.05859e-06 0)
(0.0219168 -2.44144e-06 0)
(0.0219168 -2.82789e-06 0)
(0.0219169 -3.22118e-06 0)
(0.0219169 -3.61701e-06 0)
(0.0219169 -4.02095e-06 0)
(0.021917 -4.42148e-06 0)
(0.021917 -4.83082e-06 0)
(0.0219171 -5.21905e-06 0)
(0.0219173 -5.61598e-06 0)
(0.0219174 -5.9413e-06 0)
(0.0219168 -2.46422e-07 0)
(0.0219161 -5.70512e-07 0)
(0.0219161 -9.30139e-07 0)
(0.0219161 -1.29594e-06 0)
(0.0219161 -1.66619e-06 0)
(0.0219161 -2.03962e-06 0)
(0.0219162 -2.41784e-06 0)
(0.0219162 -2.79951e-06 0)
(0.0219162 -3.18696e-06 0)
(0.0219162 -3.57712e-06 0)
(0.0219163 -3.97349e-06 0)
(0.0219163 -4.36694e-06 0)
(0.0219164 -4.76489e-06 0)
(0.0219166 -5.14295e-06 0)
(0.0219168 -5.52005e-06 0)
(0.021917 -5.82997e-06 0)
(0.0219161 -2.44399e-07 0)
(0.0219155 -5.58949e-07 0)
(0.0219155 -9.10944e-07 0)
(0.0219155 -1.26852e-06 0)
(0.0219155 -1.62969e-06 0)
(0.0219155 -1.9932e-06 0)
(0.0219155 -2.35999e-06 0)
(0.0219155 -2.72894e-06 0)
(0.0219156 -3.10124e-06 0)
(0.0219156 -3.47465e-06 0)
(0.0219157 -3.85029e-06 0)
(0.0219157 -4.22142e-06 0)
(0.0219159 -4.5906e-06 0)
(0.0219161 -4.94006e-06 0)
(0.0219163 -5.27892e-06 0)
(0.0219167 -5.56448e-06 0)
(0.0219155 -2.39447e-07 0)
(0.0219148 -5.40592e-07 0)
(0.0219148 -8.80575e-07 0)
(0.0219148 -1.2253e-06 0)
(0.0219149 -1.57237e-06 0)
(0.0219149 -1.92043e-06 0)
(0.0219149 -2.26958e-06 0)
(0.0219149 -2.61868e-06 0)
(0.021915 -2.96759e-06 0)
(0.021915 -3.31458e-06 0)
(0.0219151 -3.65834e-06 0)
(0.0219152 -3.99494e-06 0)
(0.0219154 -4.32307e-06 0)
(0.0219156 -4.63352e-06 0)
(0.0219159 -4.92897e-06 0)
(0.0219164 -5.19194e-06 0)
(0.0219148 -2.3159e-07 0)
(0.0219142 -5.15865e-07 0)
(0.0219143 -8.3982e-07 0)
(0.0219143 -1.16759e-06 0)
(0.0219143 -1.49627e-06 0)
(0.0219143 -1.82429e-06 0)
(0.0219143 -2.15089e-06 0)
(0.0219144 -2.47481e-06 0)
(0.0219144 -2.79476e-06 0)
(0.0219145 -3.10927e-06 0)
(0.0219146 -3.41485e-06 0)
(0.0219147 -3.71053e-06 0)
(0.021915 -3.99235e-06 0)
(0.0219152 -4.26015e-06 0)
(0.0219156 -4.5124e-06 0)
(0.0219161 -4.7541e-06 0)
(0.0219142 -2.21008e-07 0)
(0.0219137 -4.85575e-07 0)
(0.0219137 -7.9008e-07 0)
(0.0219137 -1.09749e-06 0)
(0.0219138 -1.40457e-06 0)
(0.0219138 -1.70932e-06 0)
(0.0219138 -2.01013e-06 0)
(0.0219139 -2.30579e-06 0)
(0.021914 -2.59431e-06 0)
(0.0219141 -2.87448e-06 0)
(0.0219142 -3.14121e-06 0)
(0.0219144 -3.3959e-06 0)
(0.0219146 -3.63312e-06 0)
(0.0219149 -3.86064e-06 0)
(0.0219153 -4.07399e-06 0)
(0.0219158 -4.29414e-06 0)
(0.0219137 -2.08042e-07 0)
(0.0219132 -4.51151e-07 0)
(0.0219132 -7.33644e-07 0)
(0.0219133 -1.01817e-06 0)
(0.0219133 -1.30143e-06 0)
(0.0219133 -1.58103e-06 0)
(0.0219134 -1.85465e-06 0)
(0.0219135 -2.12105e-06 0)
(0.0219136 -2.37784e-06 0)
(0.0219137 -2.6245e-06 0)
(0.0219139 -2.8559e-06 0)
(0.0219141 -3.075e-06 0)
(0.0219143 -3.27566e-06 0)
(0.0219147 -3.47191e-06 0)
(0.0219151 -3.65679e-06 0)
(0.0219155 -3.85576e-06 0)
(0.0219132 -1.93304e-07 0)
(0.0219128 -4.14577e-07 0)
(0.0219128 -6.73582e-07 0)
(0.0219128 -9.33545e-07 0)
(0.0219129 -1.19116e-06 0)
(0.0219129 -1.4443e-06 0)
(0.021913 -1.69052e-06 0)
(0.0219131 -1.92828e-06 0)
(0.0219132 -2.15439e-06 0)
(0.0219134 -2.36938e-06 0)
(0.0219136 -2.57116e-06 0)
(0.0219139 -2.76456e-06 0)
(0.0219141 -2.94236e-06 0)
(0.0219145 -3.12012e-06 0)
(0.0219149 -3.28993e-06 0)