/*--------------------------------*- C++ -*----------------------------------*\
| =========                 |                                                 |
| \\      /  F ield         | OpenFOAM: The Open Source CFD Toolbox           |
|  \\    /   O peration     | Version:  4.1                                   |
|   \\  /    A nd           | Web:      www.OpenFOAM.org                      |
|    \\/     M anipulation  |                                                 |
\*---------------------------------------------------------------------------*/
FoamFile
{
    version     2.0;
    format      ascii;
    class       pointVectorField;
    location    "0.0078";
    object      pointDisplacement_Next;
}
// * * * * * * * * * * * * * * * * * * * * * * * * * * * * * * * * * * * * * //

dimensions      [0 1 0 0 0 0 0];

internalField   uniform (0 0 0);

boundaryField
{
    inlet
    {
        type            fixedValue;
        value           nonuniform 0();
    }
    outlet
    {
        type            fixedValue;
        value           nonuniform 0();
    }
    mantle
    {
        type            fixedValue;
        value           nonuniform List<vector> 
416
(
(4.7976e-05 1.003e-05 -1.5684e-10)
(5.1258e-05 1.4608e-05 -2.128e-10)
(5.1228e-05 1.4215e-05 -2.7987e-06)
(4.7939e-05 9.7851e-06 -1.9553e-06)
(5.1191e-05 1.3191e-05 -5.4595e-06)
(4.7896e-05 9.0916e-06 -3.7901e-06)
(5.1186e-05 1.1749e-05 -7.8724e-06)
(4.7892e-05 8.0811e-06 -5.4169e-06)
(5.1198e-05 9.979e-06 -9.9794e-06)
(4.7909e-05 6.8348e-06 -6.8355e-06)
(5.1186e-05 7.8718e-06 -1.175e-05)
(4.7892e-05 5.4162e-06 -8.0818e-06)
(5.1191e-05 5.4589e-06 -1.3191e-05)
(4.7896e-05 3.7894e-06 -9.0922e-06)
(5.1228e-05 2.7982e-06 -1.4215e-05)
(4.7939e-05 1.9547e-06 -9.7855e-06)
(5.1258e-05 -1.5321e-10 -1.4608e-05)
(4.7976e-05 -3.7267e-10 -1.003e-05)
(5.4212e-05 1.7847e-05 -7.8766e-11)
(5.4199e-05 1.7346e-05 -3.4126e-06)
(5.4175e-05 1.6096e-05 -6.6518e-06)
(5.4168e-05 1.4339e-05 -9.5953e-06)
(5.4167e-05 1.2186e-05 -1.2187e-05)
(5.4168e-05 9.5948e-06 -1.4339e-05)
(5.4175e-05 6.6514e-06 -1.6096e-05)
(5.4199e-05 3.4122e-06 -1.7346e-05)
(5.4212e-05 -1.4524e-10 -1.7847e-05)
(5.6962e-05 1.865e-05 4.3736e-11)
(5.6959e-05 1.8199e-05 -3.6309e-06)
(5.6955e-05 1.6937e-05 -7.0288e-06)
(5.6948e-05 1.504e-05 -1.0047e-05)
(5.6946e-05 1.2707e-05 -1.2708e-05)
(5.6948e-05 1.0047e-05 -1.504e-05)
(5.6955e-05 7.0285e-06 -1.6937e-05)
(5.6959e-05 3.6307e-06 -1.8199e-05)
(5.6962e-05 -1.577e-10 -1.865e-05)
(5.9593e-05 1.6969e-05 -4.297e-11)
(5.9605e-05 1.6614e-05 -3.3657e-06)
(5.9622e-05 1.5511e-05 -6.4732e-06)
(5.9618e-05 1.3708e-05 -9.1403e-06)
(5.9611e-05 1.1505e-05 -1.1505e-05)
(5.9618e-05 9.1402e-06 -1.3708e-05)
(5.9622e-05 6.4732e-06 -1.5511e-05)
(5.9605e-05 3.3656e-06 -1.6614e-05)
(5.9593e-05 2.3302e-11 -1.6969e-05)
(6.2138e-05 1.3062e-05 9.3103e-10)
(6.2146e-05 1.2763e-05 -2.5765e-06)
(6.2166e-05 1.1877e-05 -4.944e-06)
(6.2178e-05 1.0479e-05 -6.9852e-06)
(6.2184e-05 8.8011e-06 -8.8e-06)
(6.2178e-05 6.9852e-06 -1.0479e-05)
(6.2166e-05 4.944e-06 -1.1877e-05)
(6.2146e-05 2.5766e-06 -1.2763e-05)
(6.2137e-05 -8.3745e-10 -1.3062e-05)
(6.4498e-05 7.1572e-06 5.5712e-11)
(6.451e-05 6.9572e-06 -1.3968e-06)
(6.4531e-05 6.4243e-06 -2.6563e-06)
(6.4554e-05 5.6141e-06 -3.7309e-06)
(6.456e-05 4.7043e-06 -4.7044e-06)
(6.4554e-05 3.731e-06 -5.6142e-06)
(6.453e-05 2.6565e-06 -6.4246e-06)
(6.4509e-05 1.3971e-06 -6.9578e-06)
(6.4498e-05 1.31e-10 -7.158e-06)
(6.6528e-05 -4.5134e-07 -2.3471e-10)
(6.6549e-05 -4.6189e-07 7.1763e-08)
(6.6585e-05 -5.1532e-07 2.1372e-07)
(6.6589e-05 -5.9345e-07 4.2457e-07)
(6.6585e-05 -5.8443e-07 5.849e-07)
(6.6589e-05 -4.2446e-07 5.9344e-07)
(6.6585e-05 -2.1351e-07 5.1516e-07)
(6.6549e-05 -7.1483e-08 4.6144e-07)
(6.6528e-05 4.5966e-10 4.5059e-07)
(6.8079e-05 -9.186e-06 7.4607e-11)
(6.8117e-05 -8.978e-06 1.7432e-06)
(6.8169e-05 -8.471e-06 3.4939e-06)
(6.8153e-05 -7.7348e-06 5.2019e-06)
(6.8129e-05 -6.6753e-06 6.6754e-06)
(6.8153e-05 -5.2018e-06 7.735e-06)
(6.8169e-05 -3.4937e-06 8.4711e-06)
(6.8116e-05 -1.7429e-06 8.9779e-06)
(6.8078e-05 1.6759e-10 9.1855e-06)
(6.9039e-05 -1.8587e-05 6.5652e-11)
(6.9058e-05 -1.822e-05 3.5987e-06)
(6.9093e-05 -1.7169e-05 7.1002e-06)
(6.9098e-05 -1.5515e-05 1.0382e-05)
(6.9096e-05 -1.3241e-05 1.3241e-05)
(6.9098e-05 -1.0382e-05 1.5515e-05)
(6.9092e-05 -7.1001e-06 1.7169e-05)
(6.9057e-05 -3.5984e-06 1.822e-05)
(6.9038e-05 1.7741e-10 1.8587e-05)
(6.929e-05 -2.8644e-05 1.0374e-10)
(6.9301e-05 -2.8086e-05 5.5742e-06)
(6.9325e-05 -2.6448e-05 1.0962e-05)
(6.9347e-05 -2.3822e-05 1.5933e-05)
(6.9356e-05 -2.0279e-05 2.0279e-05)
(6.9347e-05 -1.5933e-05 2.3823e-05)
(6.9325e-05 -1.0962e-05 2.6449e-05)
(6.9301e-05 -5.574e-06 2.8086e-05)
(6.929e-05 1.8116e-10 2.8644e-05)
(6.88e-05 -3.9418e-05 -7.5403e-11)
(6.8826e-05 -3.8617e-05 7.6664e-06)
(6.8869e-05 -3.6313e-05 1.5053e-05)
(6.8869e-05 -3.2677e-05 2.1869e-05)
(6.8861e-05 -2.7821e-05 2.7821e-05)
(6.8869e-05 -2.1869e-05 3.2678e-05)
(6.8868e-05 -1.5053e-05 3.6314e-05)
(6.8826e-05 -7.6661e-06 3.8618e-05)
(6.8799e-05 4.4105e-10 3.9418e-05)
(6.7675e-05 -5.0681e-05 3.0274e-10)
(6.7727e-05 -4.9622e-05 9.8409e-06)
(6.7793e-05 -4.6607e-05 1.9317e-05)
(6.7769e-05 -4.1928e-05 2.8064e-05)
(6.7733e-05 -3.5699e-05 3.5699e-05)
(6.7769e-05 -2.8064e-05 4.1929e-05)
(6.7792e-05 -1.9317e-05 4.6608e-05)
(6.7726e-05 -9.8406e-06 4.9623e-05)
(6.7674e-05 1.9641e-10 5.0681e-05)
(5.1228e-05 -2.7987e-06 -1.4215e-05)
(4.7939e-05 -1.9554e-06 -9.7854e-06)
(5.1191e-05 -5.4593e-06 -1.3191e-05)
(4.7896e-05 -3.7901e-06 -9.0919e-06)
(5.1186e-05 -7.8721e-06 -1.1749e-05)
(4.7892e-05 -5.4167e-06 -8.0814e-06)
(5.1198e-05 -9.9792e-06 -9.9788e-06)
(4.7909e-05 -6.8353e-06 -6.8351e-06)
(5.1186e-05 -1.175e-05 -7.8718e-06)
(4.7892e-05 -8.0816e-06 -5.4165e-06)
(5.1191e-05 -1.3191e-05 -5.459e-06)
(4.7895e-05 -9.0921e-06 -3.7898e-06)
(5.1228e-05 -1.4216e-05 -2.7984e-06)
(4.7938e-05 -9.7858e-06 -1.9552e-06)
(5.1258e-05 -1.4609e-05 3.3536e-11)
(4.7976e-05 -1.0031e-05 -4.1565e-11)
(5.4199e-05 -3.4125e-06 -1.7346e-05)
(5.4175e-05 -6.6516e-06 -1.6095e-05)
(5.4168e-05 -9.5948e-06 -1.4338e-05)
(5.4167e-05 -1.2186e-05 -1.2186e-05)
(5.4168e-05 -1.4339e-05 -9.5945e-06)
(5.4175e-05 -1.6095e-05 -6.6512e-06)
(5.4199e-05 -1.7346e-05 -3.4121e-06)
(5.4212e-05 -1.7848e-05 3.0232e-10)
(5.6959e-05 -3.6308e-06 -1.8199e-05)
(5.6955e-05 -7.0285e-06 -1.6936e-05)
(5.6948e-05 -1.0046e-05 -1.5039e-05)
(5.6946e-05 -1.2707e-05 -1.2707e-05)
(5.6948e-05 -1.5039e-05 -1.0046e-05)
(5.6955e-05 -1.6936e-05 -7.028e-06)
(5.6959e-05 -1.8199e-05 -3.6303e-06)
(5.6962e-05 -1.865e-05 5.4987e-10)
(5.9605e-05 -3.3656e-06 -1.6614e-05)
(5.9622e-05 -6.4731e-06 -1.551e-05)
(5.9618e-05 -9.1399e-06 -1.3707e-05)
(5.9611e-05 -1.1504e-05 -1.1504e-05)
(5.9618e-05 -1.3707e-05 -9.1394e-06)
(5.9622e-05 -1.551e-05 -6.4725e-06)
(5.9605e-05 -1.6614e-05 -3.365e-06)
(5.9593e-05 -1.6969e-05 5.5879e-10)
(6.2146e-05 -2.5764e-06 -1.2763e-05)
(6.2166e-05 -4.9439e-06 -1.1877e-05)
(6.2178e-05 -6.9849e-06 -1.0478e-05)
(6.2184e-05 -8.8007e-06 -8.7991e-06)
(6.2178e-05 -1.0478e-05 -6.9843e-06)
(6.2166e-05 -1.1876e-05 -4.9432e-06)
(6.2146e-05 -1.2763e-05 -2.5758e-06)
(6.2138e-05 -1.3062e-05 1.5667e-09)
(6.4509e-05 -1.3968e-06 -6.9576e-06)
(6.453e-05 -2.6563e-06 -6.4243e-06)
(6.4554e-05 -3.7307e-06 -5.6137e-06)
(6.456e-05 -4.704e-06 -4.7037e-06)
(6.4554e-05 -5.6136e-06 -3.7301e-06)
(6.4531e-05 -6.4239e-06 -2.6556e-06)
(6.451e-05 -6.9572e-06 -1.3962e-06)
(6.4498e-05 -7.1578e-06 7.0315e-10)
(6.6549e-05 7.1769e-08 4.616e-07)
(6.6584e-05 2.1375e-07 5.1549e-07)
(6.6589e-05 4.2465e-07 5.939e-07)
(6.6585e-05 5.847e-07 5.855e-07)
(6.6589e-05 5.9392e-07 4.2531e-07)
(6.6585e-05 5.1583e-07 2.145e-07)
(6.6549e-05 4.6205e-07 7.2448e-08)
(6.6528e-05 4.5083e-07 4.212e-10)
(6.8116e-05 1.7432e-06 8.9781e-06)
(6.8169e-05 3.494e-06 8.4715e-06)
(6.8152e-05 5.2021e-06 7.7355e-06)
(6.8129e-05 6.6756e-06 6.6761e-06)
(6.8153e-05 7.7354e-06 5.2027e-06)
(6.8169e-05 8.4717e-06 3.4948e-06)
(6.8117e-05 8.9784e-06 1.7439e-06)
(6.8078e-05 9.1857e-06 7.4639e-10)
(6.9057e-05 3.5988e-06 1.822e-05)
(6.9092e-05 7.1005e-06 1.717e-05)
(6.9098e-05 1.0382e-05 1.5516e-05)
(6.9096e-05 1.3242e-05 1.3242e-05)
(6.9098e-05 1.5516e-05 1.0383e-05)
(6.9093e-05 1.717e-05 7.1012e-06)
(6.9058e-05 1.822e-05 3.5995e-06)
(6.9039e-05 1.8587e-05 8.081e-10)
(6.9301e-05 5.5744e-06 2.8086e-05)
(6.9324e-05 1.0963e-05 2.6449e-05)
(6.9347e-05 1.5934e-05 2.3824e-05)
(6.9355e-05 2.0279e-05 2.028e-05)
(6.9347e-05 2.3823e-05 1.5934e-05)
(6.9325e-05 2.6449e-05 1.0963e-05)
(6.9301e-05 2.8086e-05 5.5751e-06)
(6.929e-05 2.8644e-05 8.8069e-10)
(6.8826e-05 7.6665e-06 3.8618e-05)
(6.8868e-05 1.5053e-05 3.6314e-05)
(6.8869e-05 2.1869e-05 3.2679e-05)
(6.886e-05 2.7822e-05 2.7822e-05)
(6.8869e-05 3.2678e-05 2.187e-05)
(6.8868e-05 3.6314e-05 1.5054e-05)
(6.8826e-05 3.8618e-05 7.6672e-06)
(6.8799e-05 3.9418e-05 1.2263e-09)
(6.7726e-05 9.8409e-06 4.9623e-05)
(6.7792e-05 1.9317e-05 4.6609e-05)
(6.7768e-05 2.8064e-05 4.193e-05)
(6.7733e-05 3.57e-05 3.57e-05)
(6.7768e-05 4.1929e-05 2.8065e-05)
(6.7792e-05 4.6608e-05 1.9318e-05)
(6.7726e-05 4.9623e-05 9.8417e-06)
(6.7674e-05 5.0682e-05 1.0011e-09)
(5.1228e-05 -1.4216e-05 2.7988e-06)
(4.7939e-05 -9.7863e-06 1.9552e-06)
(5.1191e-05 -1.3192e-05 5.4597e-06)
(4.7896e-05 -9.093e-06 3.79e-06)
(5.1186e-05 -1.1751e-05 7.8729e-06)
(4.7892e-05 -8.0825e-06 5.4169e-06)
(5.1198e-05 -9.9805e-06 9.98e-06)
(4.7909e-05 -6.836e-06 6.8355e-06)
(5.1186e-05 -7.8731e-06 1.1751e-05)
(4.7892e-05 -5.4172e-06 8.0817e-06)
(5.1191e-05 -5.46e-06 1.3192e-05)
(4.7896e-05 -3.7904e-06 9.092e-06)
(5.1228e-05 -2.7992e-06 1.4216e-05)
(4.7938e-05 -1.9556e-06 9.7855e-06)
(5.1258e-05 -6.3729e-10 1.4609e-05)
(4.7976e-05 -5.217e-10 1.003e-05)
(5.4199e-05 -1.7347e-05 3.4128e-06)
(5.4176e-05 -1.6097e-05 6.6523e-06)
(5.4168e-05 -1.434e-05 9.5961e-06)
(5.4167e-05 -1.2188e-05 1.2188e-05)
(5.4168e-05 -9.5962e-06 1.434e-05)
(5.4176e-05 -6.6525e-06 1.6097e-05)
(5.4199e-05 -3.4131e-06 1.7347e-05)
(5.4212e-05 -5.4967e-10 1.7848e-05)
(5.696e-05 -1.82e-05 3.6314e-06)
(5.6955e-05 -1.6938e-05 7.0295e-06)
(5.6948e-05 -1.5042e-05 1.0048e-05)
(5.6946e-05 -1.2709e-05 1.2709e-05)
(5.6948e-05 -1.0048e-05 1.5042e-05)
(5.6955e-05 -7.0296e-06 1.6938e-05)
(5.696e-05 -3.6315e-06 1.82e-05)
(5.6962e-05 -4.6002e-10 1.8651e-05)
(5.9606e-05 -1.6615e-05 3.3663e-06)
(5.9622e-05 -1.5512e-05 6.4741e-06)
(5.9618e-05 -1.3709e-05 9.1417e-06)
(5.9611e-05 -1.1507e-05 1.1507e-05)
(5.9618e-05 -9.1416e-06 1.371e-05)
(5.9622e-05 -6.4742e-06 1.5513e-05)
(5.9606e-05 -3.3664e-06 1.6615e-05)
(5.9593e-05 -5.8293e-10 1.697e-05)
(6.2146e-05 -1.2764e-05 2.5772e-06)
(6.2166e-05 -1.1878e-05 4.945e-06)
(6.2178e-05 -1.048e-05 6.9867e-06)
(6.2184e-05 -8.8015e-06 8.8031e-06)
(6.2179e-05 -6.9865e-06 1.0481e-05)
(6.2166e-05 -4.945e-06 1.1879e-05)
(6.2146e-05 -2.5772e-06 1.2765e-05)
(6.2138e-05 -1.5129e-09 1.3063e-05)
(6.451e-05 -6.9582e-06 1.3977e-06)
(6.4531e-05 -6.4256e-06 2.6575e-06)
(6.4554e-05 -5.6156e-06 3.7325e-06)
(6.456e-05 -4.7058e-06 4.7062e-06)
(6.4554e-05 -3.7323e-06 5.6161e-06)
(6.4531e-05 -2.6574e-06 6.4263e-06)
(6.451e-05 -1.3977e-06 6.9591e-06)
(6.4498e-05 -5.9034e-10 7.1589e-06)
(6.6549e-05 4.612e-07 -7.0859e-08)
(6.6585e-05 5.1436e-07 -2.126e-07)
(6.6589e-05 5.9222e-07 -4.231e-07)
(6.6585e-05 5.8309e-07 -5.8316e-07)
(6.659e-05 4.2331e-07 -5.9171e-07)
(6.6585e-05 2.127e-07 -5.1368e-07)
(6.6549e-05 7.0948e-08 -4.6029e-07)
(6.6528e-05 -8.8153e-10 -4.4982e-07)
(6.8117e-05 8.9777e-06 -1.7423e-06)
(6.8169e-05 8.4704e-06 -3.4929e-06)
(6.8153e-05 7.734e-06 -5.2006e-06)
(6.8129e-05 6.6743e-06 -6.6739e-06)
(6.8153e-05 5.2009e-06 -7.7335e-06)
(6.8169e-05 3.493e-06 -8.4698e-06)
(6.8117e-05 1.7425e-06 -8.9769e-06)
(6.8079e-05 -5.6287e-10 -9.1848e-06)
(6.9058e-05 1.822e-05 -3.5978e-06)
(6.9093e-05 1.7169e-05 -7.0994e-06)
(6.9098e-05 1.5514e-05 -1.0381e-05)
(6.9096e-05 1.3241e-05 -1.324e-05)
(6.9098e-05 1.0381e-05 -1.5514e-05)
(6.9093e-05 7.0996e-06 -1.7168e-05)
(6.9058e-05 3.598e-06 -1.8219e-05)
(6.9039e-05 -5.879e-10 -1.8586e-05)
(6.9301e-05 2.8086e-05 -5.5734e-06)
(6.9325e-05 2.6448e-05 -1.0962e-05)
(6.9347e-05 2.3822e-05 -1.5932e-05)
(6.9356e-05 2.0278e-05 -2.0278e-05)
(6.9347e-05 1.5933e-05 -2.3822e-05)
(6.9325e-05 1.0962e-05 -2.6448e-05)
(6.9302e-05 5.5737e-06 -2.8085e-05)
(6.929e-05 -5.8234e-10 -2.8643e-05)
(6.8826e-05 3.8617e-05 -7.6654e-06)
(6.8868e-05 3.6313e-05 -1.5052e-05)
(6.8869e-05 3.2678e-05 -2.1868e-05)
(6.8861e-05 2.7821e-05 -2.782e-05)
(6.8869e-05 2.1868e-05 -3.2677e-05)
(6.8869e-05 1.5052e-05 -3.6312e-05)
(6.8826e-05 7.6658e-06 -3.8616e-05)
(6.88e-05 -2.6578e-10 -3.9418e-05)
(6.7726e-05 4.9623e-05 -9.8398e-06)
(6.7792e-05 4.6608e-05 -1.9316e-05)
(6.7768e-05 4.1929e-05 -2.8063e-05)
(6.7733e-05 3.5699e-05 -3.5698e-05)
(6.7769e-05 2.8063e-05 -4.1928e-05)
(6.7793e-05 1.9316e-05 -4.6607e-05)
(6.7727e-05 9.8404e-06 -4.9622e-05)
(6.7675e-05 -4.5035e-10 -5.0681e-05)
(5.1228e-05 2.7981e-06 1.4216e-05)
(4.7938e-05 1.9547e-06 9.7857e-06)
(5.1191e-05 5.459e-06 1.3192e-05)
(4.7895e-05 3.7895e-06 9.0924e-06)
(5.1186e-05 7.8721e-06 1.175e-05)
(4.7891e-05 5.4164e-06 8.082e-06)
(5.1198e-05 9.9793e-06 9.9799e-06)
(4.7909e-05 6.8352e-06 6.8356e-06)
(5.1186e-05 1.175e-05 7.8726e-06)
(4.7892e-05 8.0816e-06 5.4169e-06)
(5.1191e-05 1.3192e-05 5.4595e-06)
(4.7895e-05 9.0921e-06 3.79e-06)
(5.1228e-05 1.4216e-05 2.7986e-06)
(4.7939e-05 9.7854e-06 1.9551e-06)
(5.4199e-05 3.412e-06 1.7347e-05)
(5.4175e-05 6.6514e-06 1.6097e-05)
(5.4168e-05 9.595e-06 1.434e-05)
(5.4166e-05 1.2187e-05 1.2187e-05)
(5.4168e-05 1.4339e-05 9.5956e-06)
(5.4175e-05 1.6096e-05 6.6519e-06)
(5.4199e-05 1.7347e-05 3.4125e-06)
(5.6959e-05 3.6304e-06 1.82e-05)
(5.6955e-05 7.0284e-06 1.6938e-05)
(5.6948e-05 1.0047e-05 1.5041e-05)
(5.6946e-05 1.2708e-05 1.2708e-05)
(5.6948e-05 1.504e-05 1.0047e-05)
(5.6955e-05 1.6937e-05 7.0289e-06)
(5.6959e-05 1.8199e-05 3.6309e-06)
(5.9606e-05 3.3652e-06 1.6615e-05)
(5.9622e-05 6.4728e-06 1.5512e-05)
(5.9618e-05 9.14e-06 1.3708e-05)
(5.9611e-05 1.1505e-05 1.1505e-05)
(5.9617e-05 1.3708e-05 9.1406e-06)
(5.9622e-05 1.5511e-05 6.4734e-06)
(5.9605e-05 1.6614e-05 3.3657e-06)
(6.2146e-05 2.576e-06 1.2764e-05)
(6.2166e-05 4.9435e-06 1.1878e-05)
(6.2178e-05 6.9847e-06 1.0479e-05)
(6.2184e-05 8.8007e-06 8.8001e-06)
(6.2178e-05 1.0478e-05 6.9853e-06)
(6.2166e-05 1.1877e-05 4.944e-06)
(6.2146e-05 1.2763e-05 2.5765e-06)
(6.451e-05 1.3964e-06 6.9582e-06)
(6.4531e-05 2.6559e-06 6.4248e-06)
(6.4554e-05 3.7304e-06 5.6142e-06)
(6.456e-05 4.7037e-06 4.7043e-06)
(6.4554e-05 5.6134e-06 3.7309e-06)
(6.453e-05 6.4237e-06 2.6563e-06)
(6.4509e-05 6.9568e-06 1.3969e-06)
(6.6549e-05 -7.223e-08 -4.612e-07)
(6.6585e-05 -2.143e-07 -5.1527e-07)
(6.6589e-05 -4.2524e-07 -5.9363e-07)
(6.6585e-05 -5.8527e-07 -5.8506e-07)
(6.6589e-05 -5.9445e-07 -4.2476e-07)
(6.6585e-05 -5.1631e-07 -2.1388e-07)
(6.6549e-05 -4.6251e-07 -7.1739e-08)
(6.8117e-05 -1.7437e-06 -8.9778e-06)
(6.8169e-05 -3.4946e-06 -8.4714e-06)
(6.8153e-05 -5.2028e-06 -7.7354e-06)
(6.8129e-05 -6.6764e-06 -6.6758e-06)
(6.8153e-05 -7.7362e-06 -5.2023e-06)
(6.8169e-05 -8.4724e-06 -3.4942e-06)
(6.8117e-05 -8.9789e-06 -1.7432e-06)
(6.9058e-05 -3.5993e-06 -1.822e-05)
(6.9093e-05 -7.1011e-06 -1.717e-05)
(6.9099e-05 -1.0383e-05 -1.5516e-05)
(6.9096e-05 -1.3243e-05 -1.3242e-05)
(6.9098e-05 -1.5517e-05 -1.0383e-05)
(6.9093e-05 -1.717e-05 -7.1006e-06)
(6.9058e-05 -1.8221e-05 -3.5987e-06)
(6.9302e-05 -5.5749e-06 -2.8086e-05)
(6.9325e-05 -1.0963e-05 -2.6449e-05)
(6.9348e-05 -1.5934e-05 -2.3823e-05)
(6.9356e-05 -2.028e-05 -2.028e-05)
(6.9348e-05 -2.3824e-05 -1.5934e-05)
(6.9325e-05 -2.645e-05 -1.0963e-05)
(6.9301e-05 -2.8086e-05 -5.5742e-06)
(6.8826e-05 -7.6669e-06 -3.8617e-05)
(6.8869e-05 -1.5053e-05 -3.6313e-05)
(6.887e-05 -2.187e-05 -3.2678e-05)
(6.8861e-05 -2.7822e-05 -2.7821e-05)
(6.887e-05 -3.2679e-05 -2.1869e-05)
(6.8869e-05 -3.6314e-05 -1.5053e-05)
(6.8826e-05 -3.8618e-05 -7.6661e-06)
(6.7727e-05 -9.8412e-06 -4.9622e-05)
(6.7793e-05 -1.9317e-05 -4.6607e-05)
(6.7769e-05 -2.8064e-05 -4.1929e-05)
(6.7734e-05 -3.57e-05 -3.5699e-05)
(6.7769e-05 -4.193e-05 -2.8064e-05)
(6.7793e-05 -4.6608e-05 -1.9316e-05)
(6.7727e-05 -4.9623e-05 -9.8404e-06)
)
;
    }
    procBoundary1to0
    {
        type            processor;
    }
    procBoundary1to2
    {
        type            processor;
    }
}


// ************************************************************************* //
