/*--------------------------------*- C++ -*----------------------------------*\
| =========                 |                                                 |
| \\      /  F ield         | OpenFOAM: The Open Source CFD Toolbox           |
|  \\    /   O peration     | Version:  4.1                                   |
|   \\  /    A nd           | Web:      www.OpenFOAM.org                      |
|    \\/     M anipulation  |                                                 |
\*---------------------------------------------------------------------------*/
FoamFile
{
    version     2.0;
    format      ascii;
    class       volVectorField;
    location    "0.0078";
    object      U;
}
// * * * * * * * * * * * * * * * * * * * * * * * * * * * * * * * * * * * * * //

dimensions      [0 1 -1 0 0 0 0];

internalField   nonuniform List<vector> 
1536
(
(0.11312 0.029461 -1.8638e-06)
(0.091344 0.02898 -1.0229e-06)
(0.069823 0.02752 -1.1797e-06)
(0.049243 0.025235 -7.2518e-07)
(0.030203 0.022209 -1.5181e-07)
(0.013264 0.018416 5.2236e-07)
(-0.0011244 0.01372 1.8595e-06)
(-0.011979 0.0085101 2.5943e-06)
(-0.019066 0.0033939 3.3672e-06)
(-0.023411 -0.00076211 3.8343e-06)
(-0.02466 -0.0033074 4.361e-06)
(-0.022533 -0.0055324 2.4538e-06)
(0.11279 0.019736 -0.002543)
(0.091291 0.019649 -0.0021255)
(0.070009 0.018875 -0.0016284)
(0.049629 0.017508 -0.0010663)
(0.030756 0.015608 -0.00043048)
(0.013967 0.01318 0.00029035)
(-0.00033459 0.010183 0.0010927)
(-0.011216 0.0071675 0.0018168)
(-0.018355 0.0043024 0.0024223)
(-0.022648 0.0019219 0.0025661)
(-0.023842 -0.00040353 0.0017994)
(-0.021897 -0.0023514 0.001357)
(0.11257 0.016421 -0.0055383)
(0.091252 0.016377 -0.0052976)
(0.070126 0.01578 -0.0048572)
(0.049883 0.014695 -0.0042468)
(0.031141 0.013162 -0.0034814)
(0.014495 0.011174 -0.0025726)
(0.00028828 0.0086994 -0.0015319)
(-0.010546 0.006203 -0.00056387)
(-0.017651 0.003754 0.00024991)
(-0.021755 0.0015106 0.00083793)
(-0.022964 -0.00073996 0.00075561)
(-0.021386 -0.0024212 0.0010016)
(0.11246 0.01216 -0.0088203)
(0.091223 0.012037 -0.0086223)
(0.070177 0.011488 -0.0081184)
(0.050007 0.010565 -0.00735)
(0.031331 0.0092976 -0.0063396)
(0.01475 0.0076883 -0.0050895)
(0.00058444 0.0057332 -0.0035937)
(-0.010238 0.0037702 -0.0021262)
(-0.017341 0.0019456 -0.00080053)
(-0.021427 0.0003538 0.00028825)
(-0.022689 -0.00090036 0.00098394)
(-0.021218 -0.0018983 0.0016527)
(0.11246 0.0088202 -0.01216)
(0.091223 0.0086229 -0.012036)
(0.070178 0.0081188 -0.011488)
(0.050007 0.0073503 -0.010566)
(0.031331 0.0063393 -0.0092987)
(0.01475 0.0050885 -0.0076902)
(0.0005842 0.0035939 -0.0057337)
(-0.010238 0.0021271 -0.0037696)
(-0.017341 0.00080263 -0.0019431)
(-0.021428 -0.00028525 -0.00035023)
(-0.022689 -0.00098007 0.00090532)
(-0.021217 -0.0016499 0.0019017)
(0.11257 0.0055382 -0.016422)
(0.091251 0.0052994 -0.016378)
(0.070126 0.0048591 -0.01578)
(0.049883 0.004248 -0.014696)
(0.031141 0.0034826 -0.013163)
(0.014495 0.0025745 -0.011173)
(0.00028717 0.0015328 -0.0086982)
(-0.010547 0.00056563 -0.0062)
(-0.017652 -0.00024781 -0.0037496)
(-0.021756 -0.00083505 -0.0015051)
(-0.022964 -0.0007531 0.00074549)
(-0.021386 -0.00099893 0.0024261)
(0.11279 0.0025406 -0.019739)
(0.09129 0.002126 -0.019651)
(0.070009 0.0016292 -0.018878)
(0.049629 0.001067 -0.017512)
(0.030756 0.00043024 -0.015611)
(0.013966 -0.00028908 -0.013181)
(-0.00033547 -0.0010913 -0.010182)
(-0.011217 -0.0018151 -0.007164)
(-0.018356 -0.0024209 -0.0042964)
(-0.022649 -0.0025628 -0.0019142)
(-0.023842 -0.0017968 0.00041105)
(-0.021897 -0.0013565 0.0023552)
(0.11312 3.8939e-07 -0.029467)
(0.091343 2.7121e-07 -0.028988)
(0.069824 -1.0736e-07 -0.027528)
(0.049244 -4.5575e-07 -0.025241)
(0.030203 -7.4295e-07 -0.022214)
(0.013262 -1.0161e-06 -0.018417)
(-0.0011268 -9.0932e-08 -0.013718)
(-0.011982 -6.2006e-08 -0.0085041)
(-0.019069 4.1974e-07 -0.0033839)
(-0.023413 7.4817e-07 0.00077463)
(-0.024658 3.6413e-07 0.0033184)
(-0.022533 -1.5911e-08 0.0055404)
(0.11279 0.019737 0.0025379)
(0.091291 0.01965 0.0021221)
(0.070009 0.018876 0.0016256)
(0.04963 0.01751 0.001065)
(0.030757 0.015609 0.00043114)
(0.013968 0.013181 -0.00028718)
(-0.00033315 0.010184 -0.0010876)
(-0.011215 0.007168 -0.0018103)
(-0.018354 0.0043027 -0.0024146)
(-0.022646 0.0019233 -0.0025562)
(-0.023841 -0.00040097 -0.0017911)
(-0.021897 -0.0023496 -0.0013503)
(0.11262 0.016179 -2.9601e-06)
(0.091263 0.016368 -2.4183e-06)
(0.070114 0.016008 -1.1909e-06)
(0.049858 0.015163 -5.1905e-07)
(0.03111 0.013878 4.7787e-07)
(0.014457 0.012152 1.5866e-06)
(0.00021379 0.009961 2.7541e-06)
(-0.010706 0.0077133 3.9006e-06)
(-0.017942 0.0055168 4.6112e-06)
(-0.022246 0.0034427 5.1799e-06)
(-0.023387 0.0008042 4.8522e-06)
(-0.021561 -0.0012601 3.8092e-06)
(0.11248 0.012973 -0.0023063)
(0.091289 0.013086 -0.0023133)
(0.070287 0.012753 -0.0022301)
(0.050164 0.012022 -0.0020697)
(0.03154 0.010925 -0.001842)
(0.015014 0.009473 -0.0015586)
(0.00086452 0.0076778 -0.0012421)
(-0.010019 0.0057428 -0.00094523)
(-0.017214 0.0039413 -0.00078111)
(-0.02138 0.0021162 -0.00070653)
(-0.022589 0.00010375 -0.00071342)
(-0.021115 -0.001462 -0.00040366)
(0.11239 0.009211 -0.0058697)
(0.091279 0.0092677 -0.0058845)
(0.070352 0.0089999 -0.0056943)
(0.050296 0.0084448 -0.0053236)
(0.031734 0.0076272 -0.0047904)
(0.015267 0.0065604 -0.0041043)
(0.0011652 0.0052704 -0.0032897)
(-0.0097084 0.003862 -0.00242)
(-0.016912 0.00265 -0.0017145)
(-0.021103 0.0014657 -0.0010402)
(-0.022391 0.00032542 -0.00032632)
(-0.020977 -0.00068576 0.000443)
(0.11239 0.0058694 -0.009211)
(0.091279 0.0058849 -0.009267)
(0.070352 0.0056946 -0.0089996)
(0.050296 0.005324 -0.0084447)
(0.031734 0.0047909 -0.0076272)
(0.015267 0.0041053 -0.0065604)
(0.001165 0.0032918 -0.0052695)
(-0.0097086 0.0024231 -0.00386)
(-0.016912 0.0017186 -0.0026469)
(-0.021103 0.0010452 -0.0014617)
(-0.022391 0.00033097 -0.00032115)
(-0.020977 -0.00043932 0.00068938)
(0.11248 0.0023056 -0.012974)
(0.091289 0.0023132 -0.013086)
(0.070288 0.0022301 -0.012753)
(0.050164 0.0020699 -0.012021)
(0.03154 0.0018432 -0.010925)
(0.015014 0.0015616 -0.0094736)
(0.00086351 0.0012454 -0.0076773)
(-0.01002 0.0009501 -0.0057415)
(-0.017215 0.00078659 -0.0039386)
(-0.021381 0.00071236 -0.0021126)
(-0.022588 0.00071816 -9.9766e-05)
(-0.021115 0.00040811 0.0014657)
(0.11262 -1.2695e-07 -0.016182)
(0.091262 -1.809e-07 -0.016369)
(0.070113 -3.8306e-07 -0.016008)
(0.049858 -3.5384e-07 -0.015164)
(0.031109 -1.0382e-07 -0.01388)
(0.014455 -7.3269e-08 -0.012152)
(0.0002124 9.7956e-07 -0.0099614)
(-0.010708 5.3715e-07 -0.0077121)
(-0.017943 8.4561e-07 -0.005515)
(-0.022246 1.0366e-06 -0.0034389)
(-0.023387 3.5137e-07 -0.00079896)
(-0.021561 2.4953e-07 0.0012645)
(0.11279 -0.0025386 -0.01974)
(0.091289 -0.0021238 -0.019652)
(0.070009 -0.0016278 -0.018879)
(0.049629 -0.0010663 -0.017513)
(0.030756 -0.00043027 -0.015613)
(0.013966 0.00028947 -0.013183)
(-0.00033545 0.0010918 -0.010184)
(-0.011217 0.0018164 -0.0071667)
(-0.018356 0.0024224 -0.0042991)
(-0.022648 0.0025648 -0.0019166)
(-0.02384 0.001798 0.00040843)
(-0.021896 0.0013568 0.0023522)
(0.11257 0.016421 0.0055338)
(0.091251 0.01638 0.0052943)
(0.070126 0.015781 0.0048535)
(0.049884 0.014696 0.0042451)
(0.031143 0.013163 0.0034819)
(0.014497 0.011174 0.002576)
(0.00028978 0.0087 0.0015375)
(-0.010544 0.0062032 0.00057131)
(-0.01765 0.0037543 -0.0002402)
(-0.021755 0.0015119 -0.00082718)
(-0.022965 -0.00073747 -0.00074685)
(-0.021386 -0.0024193 -0.00099463)
(0.11248 0.012974 0.0023012)
(0.091289 0.013088 0.0023095)
(0.070288 0.012754 0.0022274)
(0.050165 0.012023 0.0020685)
(0.031542 0.010926 0.0018434)
(0.015016 0.009475 0.001563)
(0.00086598 0.0076797 0.0012487)
(-0.010017 0.0057444 0.00095381)
(-0.017212 0.0039429 0.00079132)
(-0.02138 0.0021182 0.00071751)
(-0.022588 0.00010567 0.00072182)
(-0.021114 -0.0014601 0.00041136)
(0.11236 0.0098531 -2.4879e-06)
(0.09133 0.00993 -2.5998e-06)
(0.070472 0.0096712 -1.2873e-06)
(0.050475 0.009112 -4.3456e-07)
(0.031968 0.0082744 8.6504e-07)
(0.015548 0.0071637 2.3526e-06)
(0.0014852 0.0058125 3.3735e-06)
(-0.0093955 0.0042509 4.4823e-06)
(-0.016603 0.0028921 5.2585e-06)
(-0.020701 0.0014509 5.4392e-06)
(-0.021928 -9.6506e-05 4.3774e-06)
(-0.02065 -0.0012466 4.0602e-06)
(0.11227 0.0064157 -0.0032397)
(0.091328 0.0064559 -0.0032535)
(0.070544 0.0062758 -0.0031598)
(0.050613 0.0058987 -0.0029706)
(0.032167 0.0053384 -0.0026935)
(0.015801 0.0045996 -0.0023303)
(0.0017884 0.0037197 -0.0019017)
(-0.0090926 0.0026634 -0.0013862)
(-0.016324 0.001795 -0.00096717)
(-0.020435 0.00087597 -0.00050892)
(-0.021728 -9.6965e-05 5.7509e-05)
(-0.020516 -0.00079714 0.00052429)
(0.11227 0.0032394 -0.0064158)
(0.091328 0.003254 -0.0064556)
(0.070544 0.0031598 -0.0062758)
(0.050613 0.0029708 -0.0058987)
(0.032167 0.0026939 -0.0053382)
(0.015801 0.0023313 -0.0045988)
(0.0017881 0.0019039 -0.0037181)
(-0.0090928 0.0013895 -0.0026606)
(-0.016324 0.00097178 -0.0017911)
(-0.020435 0.00051396 -0.00087136)
(-0.021728 -5.2199e-05 0.00010161)
(-0.020515 -0.00052089 0.00080072)
(0.11236 2.1203e-06 -0.0098541)
(0.09133 1.6671e-06 -0.0099306)
(0.070472 1.2236e-06 -0.0096712)
(0.050475 5.8231e-07 -0.0091122)
(0.031967 3.6404e-07 -0.0082738)
(0.015547 3.5934e-07 -0.007163)
(0.0014842 1.133e-07 -0.005811)
(-0.0093965 1.5452e-07 -0.0042486)
(-0.016604 2.0226e-07 -0.0028885)
(-0.020702 2.2154e-07 -0.0014467)
(-0.021927 -1.3331e-07 9.9892e-05)
(-0.020649 -1.3593e-07 0.0012499)
(0.11248 -0.0023028 -0.012977)
(0.091288 -0.0023109 -0.013088)
(0.070288 -0.0022283 -0.012755)
(0.050164 -0.0020693 -0.012024)
(0.031541 -0.0018428 -0.010928)
(0.015014 -0.001561 -0.0094751)
(0.00086468 -0.0012453 -0.0076795)
(-0.010018 -0.00094928 -0.0057425)
(-0.017213 -0.00078547 -0.0039398)
(-0.02138 -0.00071111 -0.0021139)
(-0.022587 -0.00071781 -0.00010094)
(-0.021114 -0.00040793 0.001464)
(0.11257 -0.0055319 -0.016425)
(0.091251 -0.0052932 -0.016381)
(0.070126 -0.0048545 -0.015783)
(0.049883 -0.0042454 -0.014698)
(0.031141 -0.0034823 -0.013165)
(0.014495 -0.0025739 -0.011176)
(0.00028737 -0.0015338 -0.0087005)
(-0.010547 -0.00056526 -0.0062018)
(-0.017652 0.00024839 -0.0037513)
(-0.021755 0.00083614 -0.0015068)
(-0.022963 0.00075402 0.00074393)
(-0.021384 0.0009991 0.0024241)
(0.11246 0.01216 0.0088151)
(0.091223 0.012037 0.0086177)
(0.070178 0.011487 0.0081142)
(0.050008 0.010565 0.0073481)
(0.031333 0.009297 0.0063399)
(0.014752 0.0076883 0.0050918)
(0.00058628 0.005733 0.0035989)
(-0.010236 0.0037697 0.0021339)
(-0.01734 0.0019453 0.00081055)
(-0.021428 0.00035417 -0.00027731)
(-0.022691 -0.00090003 -0.00097305)
(-0.02122 -0.0018983 -0.0016452)
(0.11239 0.0092115 0.0058648)
(0.091279 0.0092677 0.0058808)
(0.070353 0.0089999 0.0056911)
(0.050297 0.0084451 0.0053223)
(0.031736 0.0076277 0.0047915)
(0.015268 0.0065611 0.0041079)
(0.0011667 0.0052707 0.0032957)
(-0.0097071 0.0038626 0.0024283)
(-0.016911 0.0026508 0.0017247)
(-0.021103 0.0014668 0.0010511)
(-0.022391 0.00032654 0.00033547)
(-0.020978 -0.00068534 -0.00043569)
(0.11227 0.0064153 0.0032348)
(0.091328 0.0064555 0.0032495)
(0.070544 0.0062759 0.0031572)
(0.050614 0.0058988 0.0029697)
(0.032168 0.0053387 0.0026949)
(0.015802 0.0045999 0.0023342)
(0.0017891 0.0037198 0.0019082)
(-0.009092 0.0026639 0.0013947)
(-0.016324 0.0017954 0.00097747)
(-0.020435 0.00087643 0.00051954)
(-0.021729 -9.7315e-05 -4.848e-05)
(-0.020516 -0.00079693 -0.00051644)
(0.11218 0.0031442 -2.1153e-06)
(0.091324 0.0031628 -1.6066e-06)
(0.070618 0.0030708 -1.2525e-06)
(0.050755 0.0028793 -3.4866e-07)
(0.03237 0.0025954 6.8137e-07)
(0.016052 0.0022235 1.9088e-06)
(0.0020938 0.001791 3.3737e-06)
(-0.0087861 0.0012424 4.1661e-06)
(-0.016048 0.00080765 5.0494e-06)
(-0.020163 0.00036131 5.2065e-06)
(-0.021512 -5.7332e-05 4.8942e-06)
(-0.020366 -0.00031612 3.7863e-06)
(0.11218 2.3804e-06 -0.0031442)
(0.091324 2.2592e-06 -0.0031624)
(0.070618 1.6155e-06 -0.0030707)
(0.050755 9.0147e-07 -0.002879)
(0.03237 1.8782e-07 -0.0025949)
(0.016052 -6.1494e-08 -0.0022222)
(0.0020935 -2.6914e-07 -0.0017885)
(-0.0087864 9.1035e-08 -0.0012388)
(-0.016049 2.5539e-07 -0.00080304)
(-0.020163 3.9386e-07 -0.00035611)
(-0.021512 4.3864e-07 6.2429e-05)
(-0.020366 9.6923e-09 0.0003201)
(0.11227 -0.0032344 -0.0064162)
(0.091328 -0.0032499 -0.0064566)
(0.070544 -0.0031566 -0.0062763)
(0.050614 -0.002969 -0.0058991)
(0.032168 -0.0026928 -0.0053379)
(0.015801 -0.002331 -0.0045989)
(0.0017881 -0.0019038 -0.0037178)
(-0.009093 -0.0013892 -0.002661)
(-0.016324 -0.00097119 -0.0017914)
(-0.020435 -0.0005132 -0.0008717)
(-0.021728 5.2555e-05 0.00010061)
(-0.020515 0.00052103 0.00080022)
(0.11239 -0.0058644 -0.0092127)
(0.091279 -0.0058802 -0.0092681)
(0.070352 -0.0056912 -0.0090009)
(0.050296 -0.0053221 -0.0084459)
(0.031735 -0.0047905 -0.0076289)
(0.015267 -0.0041052 -0.0065607)
(0.0011654 -0.0032913 -0.0052696)
(-0.0097083 -0.0024226 -0.0038604)
(-0.016912 -0.0017177 -0.0026472)
(-0.021102 -0.0010437 -0.0014617)
(-0.02239 -0.00033005 -0.00032169)
(-0.020977 0.00043963 0.00068884)
(0.11246 -0.0088127 -0.012163)
(0.091223 -0.0086156 -0.012038)
(0.070179 -0.0081138 -0.011489)
(0.050008 -0.007347 -0.010566)
(0.031332 -0.006339 -0.0092994)
(0.014749 -0.0050885 -0.0076896)
(0.0005838 -0.0035934 -0.0057338)
(-0.010238 -0.0021268 -0.0037686)
(-0.017342 -0.00080189 -0.0019423)
(-0.021428 0.00028626 -0.00034907)
(-0.022689 0.00098146 0.000906)
(-0.021217 0.0016501 0.0019021)
(0.11246 0.0088196 0.012154)
(0.091223 0.0086227 0.012032)
(0.070179 0.0081177 0.011484)
(0.050009 0.0073495 0.010564)
(0.031334 0.0063388 0.0092988)
(0.014752 0.0050883 0.0076927)
(0.00058673 0.0035933 0.0057396)
(-0.010236 0.0021266 0.0037779)
(-0.01734 0.00080278 0.0019533)
(-0.021428 -0.00028417 0.00036148)
(-0.022692 -0.00097808 -0.00089481)
(-0.02122 -0.0016495 -0.0018938)
(0.11239 0.0058689 0.0092066)
(0.091279 0.0058846 0.0092635)
(0.070353 0.0056941 0.0089966)
(0.050297 0.0053236 0.0084437)
(0.031737 0.0047908 0.0076287)
(0.015269 0.0041055 0.0065643)
(0.0011671 0.0032917 0.0052758)
(-0.0097067 0.0024231 0.003869)
(-0.016911 0.0017189 0.0026576)
(-0.021103 0.0010459 0.0014731)
(-0.022392 0.00033134 0.00033094)
(-0.020978 -0.00043917 -0.00068139)
(0.11227 0.0032385 0.006411)
(0.091328 0.0032529 0.0064515)
(0.070545 0.0031596 0.0062732)
(0.050614 0.0029705 0.0058979)
(0.032169 0.002694 0.0053396)
(0.015802 0.0023318 0.0046028)
(0.0017895 0.001904 0.0037244)
(-0.0090918 0.0013897 0.0026693)
(-0.016324 0.00097208 0.0018015)
(-0.020435 0.00051437 0.00088202)
(-0.021729 -5.297e-05 -9.3047e-05)
(-0.020516 -0.00052023 -0.00079311)
(0.11218 2.1575e-06 0.00314)
(0.091325 2.0661e-06 0.0031591)
(0.070618 1.5048e-06 0.0030682)
(0.050756 8.1154e-07 0.0028784)
(0.032371 2.6178e-07 0.0025961)
(0.016052 4.3694e-08 0.0022259)
(0.0020942 -1.4664e-07 0.001795)
(-0.0087858 8.9746e-08 0.0012471)
(-0.016048 2.9943e-07 0.00081301)
(-0.020163 4.7318e-07 0.00036639)
(-0.021512 5.0602e-07 -5.2921e-05)
(-0.020367 2.8058e-07 -0.00031252)
(0.11218 -0.0031393 -1.8725e-06)
(0.091325 -0.0031581 -1.3512e-06)
(0.070618 -0.0030675 -1.0823e-06)
(0.050756 -0.0028775 -1.9437e-07)
(0.03237 -0.0025949 6.8473e-07)
(0.016052 -0.0022235 1.8813e-06)
(0.0020938 -0.0017913 3.3112e-06)
(-0.0087861 -0.0012421 4.2588e-06)
(-0.016048 -0.00080709 5.0747e-06)
(-0.020163 -0.00036048 5.1678e-06)
(-0.021512 5.8393e-05 4.865e-06)
(-0.020366 0.00031656 3.6565e-06)
(0.11227 -0.00641 -0.0032393)
(0.091328 -0.006451 -0.0032538)
(0.070545 -0.006272 -0.0031599)
(0.050614 -0.0058966 -0.0029706)
(0.032168 -0.0053369 -0.0026929)
(0.015801 -0.004599 -0.0023299)
(0.0017881 -0.0037191 -0.0019013)
(-0.009093 -0.0026628 -0.0013861)
(-0.016324 -0.0017942 -0.00096711)
(-0.020435 -0.00087509 -0.00050903)
(-0.021728 9.7525e-05 5.6959e-05)
(-0.020515 0.00079747 0.0005242)
(0.11239 -0.0092048 -0.0058698)
(0.09128 -0.0092614 -0.0058847)
(0.070353 -0.0089954 -0.0056947)
(0.050296 -0.0084421 -0.0053238)
(0.031735 -0.0076267 -0.0047908)
(0.015267 -0.0065597 -0.0041044)
(0.0011651 -0.0052694 -0.0032895)
(-0.0097085 -0.0038613 -0.0024198)
(-0.016912 -0.002649 -0.0017141)
(-0.021103 -0.0014647 -0.0010401)
(-0.022391 -0.00032408 -0.00032655)
(-0.020978 0.00068624 0.00044278)
(0.11246 -0.012153 -0.0088217)
(0.091224 -0.01203 -0.0086232)
(0.070179 -0.011483 -0.0081194)
(0.050009 -0.010562 -0.0073502)
(0.031332 -0.0092972 -0.0063404)
(0.014749 -0.0076886 -0.005089)
(0.00058406 -0.0057338 -0.0035932)
(-0.010238 -0.0037697 -0.0021257)
(-0.017341 -0.0019444 -0.00079967)
(-0.021427 -0.00035219 0.00028926)
(-0.022689 0.0009024 0.00098491)
(-0.021217 0.001899 0.0016536)
(0.11257 0.0055375 0.016416)
(0.091252 0.0052984 0.016374)
(0.070128 0.004857 0.015778)
(0.049886 0.0042469 0.014695)
(0.031145 0.0034812 0.013165)
(0.014499 0.0025736 0.011178)
(0.00029148 0.0015336 0.008706)
(-0.010544 0.00056631 0.0062103)
(-0.01765 -0.00024654 0.003762)
(-0.021756 -0.00083303 0.0015184)
(-0.022966 -0.00075046 -0.00073339)
(-0.021388 -0.00099799 -0.0024161)
(0.11248 0.0023048 0.01297)
(0.091289 0.0023122 0.013083)
(0.070289 0.0022294 0.012751)
(0.050167 0.0020696 0.012021)
(0.031544 0.001843 0.010928)
(0.015017 0.0015613 0.0094786)
(0.00086733 0.0012458 0.007685)
(-0.010016 0.00095038 0.0057517)
(-0.017213 0.00078713 0.0039503)
(-0.021381 0.00071326 0.0021247)
(-0.022589 0.00071876 0.00010991)
(-0.021116 0.00040867 -0.0014566)
(0.11236 2.027e-06 0.0098485)
(0.091331 1.6225e-06 0.0099257)
(0.070473 9.0788e-07 0.0096684)
(0.050476 3.7599e-07 0.0091108)
(0.031969 3.7268e-07 0.0082753)
(0.01555 4.6826e-07 0.0071667)
(0.0014864 4.2139e-07 0.0058166)
(-0.009395 6.473e-07 0.0042571)
(-0.016603 7.1561e-07 0.0028985)
(-0.020702 8.6106e-07 0.0014568)
(-0.021928 8.5722e-07 -9.3042e-05)
(-0.020651 1.1171e-06 -0.0012434)
(0.11227 -0.003234 0.006411)
(0.091328 -0.0032492 0.006452)
(0.070545 -0.0031571 0.0062736)
(0.050615 -0.002969 0.0058977)
(0.032169 -0.0026935 0.0053393)
(0.015802 -0.0023316 0.0046024)
(0.0017893 -0.0019039 0.0037236)
(-0.0090922 -0.0013895 0.002669)
(-0.016324 -0.00097134 0.001801)
(-0.020435 -0.00051329 0.00088148)
(-0.021729 5.404e-05 -9.3357e-05)
(-0.020517 0.00052107 -0.00079373)
(0.11227 -0.0064099 0.003235)
(0.091328 -0.006451 0.0032505)
(0.070545 -0.0062728 0.0031581)
(0.050615 -0.005897 0.0029702)
(0.032169 -0.0053381 0.002695)
(0.015802 -0.0045999 0.0023342)
(0.0017892 -0.0037198 0.001908)
(-0.0090922 -0.0026636 0.0013949)
(-0.016324 -0.001795 0.0009775)
(-0.020435 -0.00087579 0.0005196)
(-0.021728 9.7869e-05 -4.8194e-05)
(-0.020516 0.00079717 -0.00051693)
(0.11236 -0.0098471 -1.8915e-06)
(0.091331 -0.0099249 -2.086e-06)
(0.070473 -0.0096672 -5.7877e-07)
(0.050476 -0.0091096 2.6977e-07)
(0.031969 -0.0082728 1.4789e-06)
(0.015549 -0.007163 2.9368e-06)
(0.001485 -0.0058109 3.8179e-06)
(-0.009396 -0.0042506 4.8317e-06)
(-0.016604 -0.0028915 5.5943e-06)
(-0.020702 -0.0014502 5.6897e-06)
(-0.021927 9.6824e-05 4.4577e-06)
(-0.020649 0.001247 4.036e-06)
(0.11248 -0.012967 -0.0023049)
(0.09129 -0.01308 -0.0023126)
(0.070289 -0.012748 -0.0022298)
(0.050165 -0.012019 -0.0020695)
(0.031541 -0.010925 -0.0018417)
(0.015014 -0.0094731 -0.0015586)
(0.00086464 -0.007678 -0.0012415)
(-0.010018 -0.0057423 -0.00094492)
(-0.017214 -0.0039404 -0.00078038)
(-0.02138 -0.002115 -0.00070538)
(-0.022589 -0.00010232 -0.0007132)
(-0.021115 0.0014626 -0.00040381)
(0.11257 -0.016414 -0.0055371)
(0.091253 -0.016371 -0.0052971)
(0.070129 -0.015774 -0.004858)
(0.049885 -0.014692 -0.0042469)
(0.031142 -0.013161 -0.0034822)
(0.014496 -0.011173 -0.0025729)
(0.00028772 -0.008699 -0.0015322)
(-0.010547 -0.006201 -0.00056352)
(-0.017652 -0.003752 0.00025125)
(-0.021755 -0.0015083 0.00083971)
(-0.022963 0.00074225 0.00075701)
(-0.021386 0.0024223 0.0010027)
(0.11279 0.0025387 0.019733)
(0.091292 0.0021235 0.019647)
(0.070012 0.0016268 0.018876)
(0.049633 0.0010652 0.017512)
(0.030761 0.00042998 0.015614)
(0.013971 -0.00028931 0.013187)
(-0.00033111 -0.0010905 0.01019)
(-0.011213 -0.0018144 0.0071755)
(-0.018354 -0.0024198 0.0043107)
(-0.022649 -0.0025611 0.0019297)
(-0.023844 -0.0017953 -0.00039588)
(-0.0219 -0.0013554 -0.0023445)
(0.11262 -7.3151e-07 0.016176)
(0.091264 -8.7659e-07 0.016365)
(0.070116 -8.0185e-07 0.016006)
(0.049861 -4.041e-07 0.015162)
(0.031113 4.4177e-08 0.01388)
(0.014459 -9.1471e-08 0.012156)
(0.00021573 4.4421e-07 0.0099672)
(-0.010705 -1.7997e-07 0.0077206)
(-0.017942 -2.906e-08 0.0055256)
(-0.022248 5.0994e-07 0.0034504)
(-0.023389 5.633e-07 0.00080945)
(-0.021563 7.0086e-07 -0.0012562)
(0.11248 -0.0023031 0.012971)
(0.09129 -0.0023111 0.013084)
(0.07029 -0.002229 0.012751)
(0.050166 -0.0020698 0.012022)
(0.031543 -0.0018431 0.010927)
(0.015016 -0.0015607 0.0094767)
(0.00086637 -0.0012454 0.0076836)
(-0.010017 -0.00094951 0.0057494)
(-0.017213 -0.00078608 0.0039485)
(-0.021382 -0.00071191 0.0021229)
(-0.02259 -0.00071757 0.00010793)
(-0.021117 -0.00040739 -0.0014587)
(0.11239 -0.0058656 0.0092085)
(0.091281 -0.0058815 0.0092646)
(0.070354 -0.005692 0.0089978)
(0.050298 -0.0053229 0.008445)
(0.031737 -0.004791 0.0076289)
(0.015269 -0.0041058 0.0065637)
(0.0011668 -0.0032919 0.0052748)
(-0.0097071 -0.0024235 0.0038682)
(-0.016912 -0.0017187 0.0026567)
(-0.021104 -0.001045 0.0014718)
(-0.022392 -0.00033081 0.00032967)
(-0.020979 0.00043941 -0.0006829)
(0.11239 -0.0092068 0.0058664)
(0.09128 -0.0092629 0.0058827)
(0.070354 -0.0089966 0.0056928)
(0.050298 -0.008444 0.0053237)
(0.031737 -0.0076276 0.0047923)
(0.015269 -0.0065615 0.0041083)
(0.0011669 -0.005271 0.0032962)
(-0.009707 -0.003863 0.0024289)
(-0.016911 -0.0026509 0.0017249)
(-0.021103 -0.0014667 0.0010512)
(-0.022391 -0.00032621 0.00033555)
(-0.020978 0.00068518 -0.00043576)
(0.11248 -0.012969 0.002302)
(0.09129 -0.013083 0.0023108)
(0.07029 -0.01275 0.0022291)
(0.050166 -0.012021 0.0020702)
(0.031543 -0.010927 0.0018447)
(0.015016 -0.0094753 0.0015642)
(0.00086592 -0.00768 0.001249)
(-0.010017 -0.0057445 0.00095481)
(-0.017213 -0.0039429 0.00079201)
(-0.02138 -0.0021179 0.00071756)
(-0.022588 -0.00010503 0.00072225)
(-0.021114 0.0014601 0.00041169)
(0.11262 -0.016175 -1.3887e-06)
(0.091264 -0.016363 -1.3242e-06)
(0.070116 -0.016002 -4.6054e-08)
(0.04986 -0.01516 6.846e-07)
(0.031111 -0.013877 1.5509e-06)
(0.014457 -0.012151 2.4034e-06)
(0.00021376 -0.0099613 3.7969e-06)
(-0.010706 -0.0077117 4.9667e-06)
(-0.017942 -0.0055162 5.7958e-06)
(-0.022246 -0.0034426 6.2473e-06)
(-0.023387 -0.00080285 5.2735e-06)
(-0.021561 0.0012601 3.7458e-06)
(0.11279 -0.019732 -0.0025384)
(0.091292 -0.019644 -0.0021238)
(0.070011 -0.018869 -0.0016298)
(0.049632 -0.017504 -0.0010674)
(0.030758 -0.015606 -0.00043015)
(0.013967 -0.013179 0.00028955)
(-0.00033491 -0.010181 0.0010921)
(-0.011216 -0.0071661 0.0018172)
(-0.018355 -0.0043014 0.0024243)
(-0.022648 -0.0019206 0.0025689)
(-0.023841 0.00040564 0.0018009)
(-0.021897 0.0023517 0.0013587)
(0.11312 -3.4287e-07 0.029459)
(0.091345 -2.7948e-07 0.028979)
(0.069827 -1.7714e-07 0.027521)
(0.049247 -3.1186e-07 0.025239)
(0.030207 -5.8696e-07 0.022214)
(0.013268 -1.0304e-06 0.018421)
(-0.0011216 -3.5982e-07 0.013727)
(-0.011977 -4.8131e-07 0.0085156)
(-0.019066 -6.7246e-08 0.0033977)
(-0.023414 3.4085e-07 -0.00075909)
(-0.024661 4.7586e-07 -0.0033046)
(-0.022538 3.2344e-07 -0.0055313)
(0.11279 -0.0025388 0.01973)
(0.091292 -0.0021238 0.019645)
(0.070011 -0.0016276 0.018873)
(0.049633 -0.0010663 0.017509)
(0.03076 -0.00043093 0.015612)
(0.01397 0.0002889 0.013185)
(-0.00033163 0.0010899 0.010189)
(-0.011214 0.0018141 0.0071747)
(-0.018355 0.0024194 0.0043096)
(-0.02265 0.0025618 0.0019278)
(-0.023844 0.0017958 -0.00039772)
(-0.0219 0.0013557 -0.0023461)
(0.11257 -0.0055338 0.016418)
(0.091253 -0.0052947 0.016375)
(0.070128 -0.0048551 0.015778)
(0.049886 -0.0042473 0.014695)
(0.031144 -0.0034827 0.013165)
(0.014499 -0.0025745 0.011178)
(0.00029083 -0.0015352 0.0087056)
(-0.010544 -0.00056667 0.0062099)
(-0.017651 0.00024682 0.0037614)
(-0.021757 0.000834 0.0015174)
(-0.022966 0.00075133 -0.00073486)
(-0.021389 0.00099886 -0.0024174)
(0.11246 -0.0088147 0.012158)
(0.091224 -0.0086176 0.012035)
(0.07018 -0.0081142 0.011487)
(0.05001 -0.0073483 0.010566)
(0.031334 -0.0063391 0.0093002)
(0.014752 -0.0050897 0.0076929)
(0.00058672 -0.0035947 0.0057403)
(-0.010236 -0.0021282 0.0037777)
(-0.01734 -0.00080332 0.0019534)
(-0.021428 0.00028448 0.00036108)
(-0.022691 0.00097889 -0.00089507)
(-0.02122 0.0016499 -0.0018946)
(0.11246 -0.012154 0.0088187)
(0.091224 -0.012031 0.0086208)
(0.07018 -0.011484 0.0081171)
(0.05001 -0.010563 0.0073507)
(0.031334 -0.0092979 0.0063414)
(0.014752 -0.0076901 0.0050929)
(0.00058639 -0.0057348 0.0036003)
(-0.010236 -0.0037709 0.0021352)
(-0.01734 -0.0019459 0.00081099)
(-0.021428 -0.00035398 -0.00027744)
(-0.022691 0.00090106 -0.00097348)
(-0.021219 0.0018982 -0.001646)
(0.11257 -0.016416 0.0055352)
(0.091252 -0.016374 0.0052965)
(0.070129 -0.015776 0.0048566)
(0.049886 -0.014694 0.0042477)
(0.031144 -0.013163 0.0034841)
(0.014498 -0.011174 0.0025781)
(0.00028946 -0.0087006 0.0015394)
(-0.010545 -0.0062027 0.00057299)
(-0.01765 -0.003754 -0.00023983)
(-0.021756 -0.0015111 -0.00082786)
(-0.022964 0.00073902 -0.0007473)
(-0.021386 0.0024204 -0.00099515)
(0.11279 -0.019733 0.0025365)
(0.091292 -0.019646 0.0021232)
(0.070011 -0.018871 0.0016293)
(0.049633 -0.017506 0.0010685)
(0.030759 -0.015608 0.00043261)
(0.013969 -0.01318 -0.00028465)
(-0.00033308 -0.010183 -0.001085)
(-0.011215 -0.0071672 -0.0018082)
(-0.018354 -0.0043019 -0.002414)
(-0.022647 -0.001922 -0.0025568)
(-0.023841 0.00040342 -0.0017915)
(-0.021898 0.0023503 -0.0013517)
(0.11312 -0.029453 -2.0686e-07)
(0.091343 -0.028975 6.4872e-07)
(0.069825 -0.027517 5.7755e-07)
(0.049248 -0.025234 1.0428e-06)
(0.030206 -0.02221 1.1663e-06)
(0.013264 -0.018417 1.3122e-06)
(-0.0011246 -0.013721 2.8684e-06)
(-0.011979 -0.0085104 3.9968e-06)
(-0.019066 -0.003392 4.902e-06)
(-0.023412 0.00076637 5.0514e-06)
(-0.024659 0.0033117 4.9955e-06)
(-0.022534 0.0055356 2.9404e-06)
(-0.022961 -0.0051034 0.0020012)
(-0.025384 0.00052048 0.0013534)
(-0.025258 0.0082615 0.00022818)
(-0.022387 0.016854 -0.0012743)
(-0.01576 0.024631 -0.0026578)
(-0.0046173 0.030777 -0.0037565)
(0.010399 0.035733 -0.0049972)
(0.02801 0.039231 -0.0060058)
(0.047638 0.041724 -0.0068372)
(0.068817 0.043213 -0.0074605)
(0.091038 0.043525 -0.007856)
(0.11367 0.04244 -0.0079857)
(-0.021479 -0.0048058 0.00046925)
(-0.023584 -0.00015273 -0.00068678)
(-0.023174 0.0061558 -0.0023819)
(-0.020092 0.013376 -0.0040995)
(-0.013528 0.020244 -0.0051652)
(-0.0027827 0.025858 -0.0057731)
(0.011758 0.030464 -0.0065804)
(0.029049 0.033818 -0.0071783)
(0.048426 0.036275 -0.0076193)
(0.069348 0.037821 -0.0078572)
(0.091258 0.03832 -0.0078638)
(0.11352 0.037579 -0.0076064)
(-0.021639 -0.0038179 0.0017285)
(-0.023719 0.00028306 -0.00078248)
(-0.023167 0.0057027 -0.0042191)
(-0.019703 0.011838 -0.0078682)
(-0.012846 0.017662 -0.01091)
(-0.0020888 0.022459 -0.013246)
(0.012365 0.026462 -0.015178)
(0.029565 0.029391 -0.016523)
(0.048853 0.031546 -0.017464)
(0.069683 0.032908 -0.017994)
(0.091492 0.033353 -0.018037)
(0.11363 0.032719 -0.017509)
(-0.021268 -0.0030338 0.0030032)
(-0.023319 0.00060361 0.00025261)
(-0.022759 0.0054112 -0.0035618)
(-0.019315 0.010766 -0.0078429)
(-0.012529 0.015718 -0.011882)
(-0.0018185 0.019779 -0.015231)
(0.01259 0.023152 -0.018009)
(0.02973 0.025612 -0.020045)
(0.048961 0.027398 -0.021541)
(0.069726 0.028499 -0.02249)
(0.09146 0.028809 -0.022808)
(0.11351 0.028192 -0.022386)
(-0.021268 -0.0029973 0.0030401)
(-0.023318 -0.00024528 -0.00059628)
(-0.022759 0.0035694 -0.0054034)
(-0.019315 0.0078495 -0.010759)
(-0.01253 0.011887 -0.015713)
(-0.0018193 0.015234 -0.019777)
(0.01259 0.01801 -0.023152)
(0.02973 0.020044 -0.025613)
(0.048961 0.021539 -0.0274)
(0.069727 0.022488 -0.028502)
(0.091461 0.022806 -0.028812)
(0.11351 0.022385 -0.028194)
(-0.021638 -0.0017236 0.0038247)
(-0.023718 0.00078869 -0.00027537)
(-0.023167 0.0042253 -0.0056945)
(-0.019704 0.0078749 -0.01183)
(-0.012848 0.010914 -0.017656)
(-0.0020913 0.013248 -0.022457)
(0.012362 0.015178 -0.026462)
(0.029563 0.016522 -0.029393)
(0.048852 0.017462 -0.03155)
(0.069683 0.017991 -0.032912)
(0.091492 0.018036 -0.033357)
(0.11363 0.017508 -0.032721)
(-0.021476 -0.00046259 0.0048132)
(-0.023583 0.00069204 0.00015986)
(-0.023174 0.0023882 -0.0061495)
(-0.020094 0.0041032 -0.013371)
(-0.013533 0.0051676 -0.02024)
(-0.002787 0.0057745 -0.025856)
(0.011754 0.0065815 -0.030465)
(0.029046 0.0071789 -0.033821)
(0.048425 0.0076193 -0.036279)
(0.069348 0.0078558 -0.037826)
(0.09126 0.0078605 -0.038324)
(0.11352 0.0076013 -0.037583)
(-0.022957 -0.0019987 0.0051111)
(-0.025383 -0.0013497 -0.00051444)
(-0.025259 -0.00022402 -0.0082557)
(-0.022391 0.0012751 -0.016849)
(-0.015765 0.0026586 -0.024627)
(-0.0046222 0.0037574 -0.030776)
(0.010395 0.0049985 -0.035734)
(0.028006 0.0060068 -0.039234)
(0.047635 0.0068382 -0.041729)
(0.068814 0.0074609 -0.043219)
(0.091038 0.007855 -0.04353)
(0.11367 0.0079826 -0.042444)
(-0.03482 -0.0019102 0.00058662)
(-0.041662 0.001824 -5.6262e-06)
(-0.043752 0.0070118 -0.00081593)
(-0.039741 0.012207 -0.0017379)
(-0.030247 0.01649 -0.0025238)
(-0.016563 0.019608 -0.0030271)
(0.0005475 0.022064 -0.0034638)
(0.020128 0.023677 -0.0037888)
(0.041382 0.02474 -0.0040254)
(0.064434 0.025225 -0.0041508)
(0.088918 0.025013 -0.0041609)
(0.11413 0.023973 -0.0040385)
(-0.033796 -0.0021994 0.00030374)
(-0.040315 0.0011689 -0.00064028)
(-0.042284 0.0058873 -0.0016497)
(-0.038436 0.010719 -0.0029012)
(-0.029088 0.014854 -0.0039632)
(-0.015552 0.017921 -0.0046988)
(0.0013489 0.020323 -0.0052131)
(0.020761 0.021938 -0.0055546)
(0.041911 0.023018 -0.005789)
(0.064836 0.023551 -0.0058842)
(0.089144 0.023438 -0.0058169)
(0.11416 0.02256 -0.0055598)
(-0.033415 -0.0020374 0.00061194)
(-0.039668 0.00082249 -0.00097768)
(-0.041453 0.0047315 -0.0028533)
(-0.03766 0.0088498 -0.0049723)
(-0.028378 0.012481 -0.0068365)
(-0.014884 0.015212 -0.0083082)
(0.0020109 0.017383 -0.0093194)
(0.021342 0.018862 -0.0099891)
(0.042408 0.019886 -0.010433)
(0.065261 0.020434 -0.010635)
(0.089498 0.020416 -0.010541)
(0.11442 0.019724 -0.0101)
(-0.03314 -0.0015133 0.0012968)