/*--------------------------------*- C++ -*----------------------------------*\
| =========                 |                                                 |
| \\      /  F ield         | OpenFOAM: The Open Source CFD Toolbox           |
|  \\    /   O peration     | Version:  4.1                                   |
|   \\  /    A nd           | Web:      www.OpenFOAM.org                      |
|    \\/     M anipulation  |                                                 |
\*---------------------------------------------------------------------------*/
FoamFile
{
    version     2.0;
    format      ascii;
    class       volVectorField;
    location    "0.0065";
    object      cellDisplacement;
}
// * * * * * * * * * * * * * * * * * * * * * * * * * * * * * * * * * * * * * //

dimensions      [0 1 0 0 0 0 0];

internalField   nonuniform List<vector> 
1536
(
(-3.5229e-06 -6.2016e-07 2.5971e-10)
(-1.0159e-05 -1.5289e-06 6.9529e-10)
(-1.5786e-05 -1.7301e-06 9.6303e-10)
(-2.0307e-05 -1.4836e-06 1.1067e-09)
(-2.404e-05 -1.4498e-06 1.2499e-09)
(-2.7341e-05 -2.0841e-06 1.5059e-09)
(-3.0367e-05 -3.3907e-06 1.9111e-09)
(-3.3117e-05 -5.1749e-06 2.4529e-09)
(-3.5541e-05 -7.3076e-06 3.1082e-09)
(-3.7592e-05 -9.7619e-06 3.8652e-09)
(-3.9233e-05 -1.2553e-05 4.7326e-09)
(-4.043e-05 -1.5692e-05 5.73e-09)
(-3.4528e-06 -5.1602e-07 8.6622e-08)
(-9.984e-06 -1.2821e-06 2.152e-07)
(-1.5585e-05 -1.482e-06 2.4877e-07)
(-2.0149e-05 -1.324e-06 2.2242e-07)
(-2.3938e-05 -1.3376e-06 2.2515e-07)
(-2.727e-05 -1.9003e-06 3.2011e-07)
(-3.0302e-05 -3.0348e-06 5.1058e-07)
(-3.3046e-05 -4.593e-06 7.716e-07)
(-3.5461e-05 -6.4664e-06 1.0852e-06)
(-3.7505e-05 -8.627e-06 1.4468e-06)
(-3.9138e-05 -1.1084e-05 1.8577e-06)
(-4.033e-05 -1.3845e-05 2.3195e-06)
(-3.4065e-06 -4.2195e-07 1.6976e-07)
(-9.8674e-06 -1.0541e-06 4.239e-07)
(-1.545e-05 -1.236e-06 4.9678e-07)
(-2.0039e-05 -1.1335e-06 4.5524e-07)
(-2.3865e-05 -1.169e-06 4.6971e-07)
(-2.7219e-05 -1.65e-06 6.6331e-07)
(-3.0256e-05 -2.6045e-06 1.046e-06)
(-3.2996e-05 -3.919e-06 1.5718e-06)
(-3.5406e-05 -5.5051e-06 2.206e-06)
(-3.7444e-05 -7.3372e-06 2.9386e-06)
(-3.9072e-05 -9.4206e-06 3.7717e-06)
(-4.026e-05 -1.1762e-05 4.7077e-06)
(-3.3836e-06 -3.3521e-07 2.5215e-07)
(-9.8097e-06 -8.3975e-07 6.3152e-07)
(-1.5383e-05 -9.9144e-07 7.4537e-07)
(-1.9984e-05 -9.2036e-07 6.9157e-07)
(-2.3827e-05 -9.5847e-07 7.2018e-07)
(-2.7192e-05 -1.3491e-06 1.0138e-06)
(-3.0232e-05 -2.1171e-06 1.5903e-06)
(-3.297e-05 -3.1753e-06 2.3839e-06)
(-3.5377e-05 -4.4543e-06 3.3428e-06)
(-3.7412e-05 -5.9328e-06 4.4516e-06)
(-3.9039e-05 -7.6144e-06 5.7126e-06)
(-4.0223e-05 -9.5035e-06 7.1293e-06)
(-3.3835e-06 -2.5211e-07 3.3526e-07)
(-9.8097e-06 -6.314e-07 8.3987e-07)
(-1.5383e-05 -7.452e-07 9.9161e-07)
(-1.9984e-05 -6.9138e-07 9.2055e-07)
(-2.3827e-05 -7.2e-07 9.5864e-07)
(-2.7192e-05 -1.0137e-06 1.3492e-06)
(-3.0232e-05 -1.5902e-06 2.1172e-06)
(-3.297e-05 -2.3838e-06 3.1753e-06)
(-3.5377e-05 -3.3428e-06 4.4543e-06)
(-3.7412e-05 -4.4515e-06 5.9329e-06)
(-3.9038e-05 -5.7125e-06 7.6145e-06)
(-4.0223e-05 -7.129e-06 9.5037e-06)
(-3.4065e-06 -1.6972e-07 4.2199e-07)
(-9.8674e-06 -4.2378e-07 1.0542e-06)
(-1.545e-05 -4.966e-07 1.2362e-06)
(-2.0039e-05 -4.5504e-07 1.1337e-06)
(-2.3865e-05 -4.6953e-07 1.1692e-06)
(-2.7219e-05 -6.6317e-07 1.6501e-06)
(-3.0255e-05 -1.0459e-06 2.6045e-06)
(-3.2996e-05 -1.5718e-06 3.919e-06)
(-3.5406e-05 -2.206e-06 5.5051e-06)
(-3.7444e-05 -2.9385e-06 7.3372e-06)
(-3.9072e-05 -3.7715e-06 9.4206e-06)
(-4.0259e-05 -4.7073e-06 1.1762e-05)
(-3.4528e-06 -8.6577e-08 5.1606e-07)
(-9.9839e-06 -2.1507e-07 1.2822e-06)
(-1.5585e-05 -2.4859e-07 1.4822e-06)
(-2.0149e-05 -2.2222e-07 1.3242e-06)
(-2.3938e-05 -2.2497e-07 1.3377e-06)
(-2.727e-05 -3.1997e-07 1.9004e-06)
(-3.0302e-05 -5.105e-07 3.0348e-06)
(-3.3046e-05 -7.7155e-07 4.5929e-06)
(-3.5461e-05 -1.0851e-06 6.4662e-06)
(-3.7505e-05 -1.4467e-06 8.6268e-06)
(-3.9138e-05 -1.8575e-06 1.1084e-05)
(-4.033e-05 -2.3191e-06 1.3845e-05)
(-3.5229e-06 -2.1626e-10 6.202e-07)
(-1.0159e-05 -5.7492e-10 1.529e-06)
(-1.5786e-05 -7.9073e-10 1.7303e-06)
(-2.0307e-05 -9.1761e-10 1.4839e-06)
(-2.404e-05 -1.0824e-09 1.45e-06)
(-2.7341e-05 -1.3897e-09 2.0842e-06)
(-3.0367e-05 -1.8579e-09 3.3907e-06)
(-3.3117e-05 -2.4516e-09 5.1748e-06)
(-3.554e-05 -3.1279e-09 7.3074e-06)
(-3.7592e-05 -3.8602e-09 9.7616e-06)
(-3.9233e-05 -4.6475e-09 1.2553e-05)
(-4.043e-05 -5.5105e-09 1.5692e-05)
(-3.4529e-06 -5.1604e-07 -8.618e-08)
(-9.9842e-06 -1.2821e-06 -2.1399e-07)
(-1.5586e-05 -1.482e-06 -2.4705e-07)
(-2.0149e-05 -1.324e-06 -2.2038e-07)
(-2.3938e-05 -1.3375e-06 -2.2281e-07)
(-2.727e-05 -1.9002e-06 -3.1732e-07)
(-3.0302e-05 -3.0346e-06 -5.0711e-07)
(-3.3046e-05 -4.5928e-06 -7.6722e-07)
(-3.5461e-05 -6.4661e-06 -1.0797e-06)
(-3.7505e-05 -8.6266e-06 -1.44e-06)
(-3.9138e-05 -1.1083e-05 -1.8495e-06)
(-4.033e-05 -1.3845e-05 -2.3095e-06)
(-3.3812e-06 -4.1743e-07 4.0829e-10)
(-9.8043e-06 -1.0462e-06 1.0747e-09)
(-1.5377e-05 -1.2372e-06 1.4319e-09)
(-1.998e-05 -1.1516e-06 1.578e-09)
(-2.3825e-05 -1.2007e-06 1.7751e-09)
(-2.7191e-05 -1.6882e-06 2.2461e-09)
(-3.023e-05 -2.648e-06 3.0511e-09)
(-3.2968e-05 -3.9726e-06 4.1495e-09)
(-3.5375e-05 -5.5744e-06 5.4894e-09)
(-3.741e-05 -7.4262e-06 7.0513e-09)
(-3.9036e-05 -9.532e-06 8.841e-09)
(-4.0221e-05 -1.1898e-05 1.0872e-08)
(-3.3346e-06 -3.2865e-07 8.2877e-08)
(-9.6867e-06 -8.2866e-07 2.0891e-07)
(-1.524e-05 -9.947e-07 2.5067e-07)
(-1.9866e-05 -9.5016e-07 2.3931e-07)
(-2.3747e-05 -1.01e-06 2.5443e-07)
(-2.7135e-05 -1.4121e-06 3.5573e-07)
(-3.018e-05 -2.1907e-06 5.5136e-07)
(-3.2915e-05 -3.2678e-06 8.2151e-07)
(-3.5316e-05 -4.575e-06 1.1492e-06)
(-3.7346e-05 -6.0886e-06 1.5287e-06)
(-3.8966e-05 -7.8102e-06 1.9604e-06)
(-4.0146e-05 -9.7435e-06 2.4451e-06)
(-3.3117e-06 -2.4531e-07 1.6404e-07)
(-9.6286e-06 -6.2036e-07 4.148e-07)
(-1.5171e-05 -7.5011e-07 5.0144e-07)
(-1.9809e-05 -7.2532e-07 4.847e-07)
(-2.3706e-05 -7.7808e-07 5.199e-07)
(-2.7105e-05 -1.0852e-06 7.2511e-07)
(-3.0154e-05 -1.6747e-06 1.1186e-06)
(-3.2888e-05 -2.4905e-06 1.6629e-06)
(-3.5286e-05 -3.4822e-06 2.3245e-06)
(-3.7313e-05 -4.6316e-06 3.0913e-06)
(-3.8931e-05 -5.939e-06 3.9635e-06)
(-4.0109e-05 -7.4069e-06 4.9428e-06)
(-3.3117e-06 -1.6399e-07 2.4535e-07)
(-9.6285e-06 -4.1466e-07 6.2049e-07)
(-1.5171e-05 -5.0124e-07 7.5031e-07)
(-1.9809e-05 -4.8446e-07 7.2554e-07)
(-2.3706e-05 -5.1968e-07 7.7828e-07)
(-2.7105e-05 -7.2491e-07 1.0854e-06)
(-3.0154e-05 -1.1184e-06 1.6748e-06)
(-3.2888e-05 -1.6628e-06 2.4906e-06)
(-3.5286e-05 -2.3243e-06 3.4824e-06)
(-3.7313e-05 -3.091e-06 4.6318e-06)
(-3.8931e-05 -3.963e-06 5.9393e-06)
(-4.0109e-05 -4.9422e-06 7.4074e-06)
(-3.3346e-06 -8.2822e-08 3.2869e-07)
(-9.6867e-06 -2.0876e-07 8.2878e-07)
(-1.524e-05 -2.5045e-07 9.9488e-07)
(-1.9866e-05 -2.3906e-07 9.5036e-07)
(-2.3747e-05 -2.5419e-07 1.0102e-06)
(-2.7134e-05 -3.5551e-07 1.4122e-06)
(-3.018e-05 -5.5116e-07 2.1908e-06)
(-3.2915e-05 -8.213e-07 3.2678e-06)
(-3.5316e-05 -1.149e-06 4.575e-06)
(-3.7346e-05 -1.5284e-06 6.0886e-06)
(-3.8966e-05 -1.9598e-06 7.8103e-06)
(-4.0146e-05 -2.4443e-06 9.7437e-06)
(-3.3812e-06 -3.5242e-10 4.1747e-07)
(-9.8042e-06 -9.1963e-10 1.0464e-06)
(-1.5377e-05 -1.209e-09 1.2373e-06)
(-1.998e-05 -1.326e-09 1.1518e-06)
(-2.3825e-05 -1.5282e-09 1.2009e-06)
(-2.7191e-05 -2.022e-09 1.6883e-06)
(-3.023e-05 -2.8463e-09 2.648e-06)
(-3.2968e-05 -3.9371e-09 3.9725e-06)
(-3.5375e-05 -5.2238e-09 5.5742e-06)
(-3.741e-05 -6.6726e-09 7.426e-06)
(-3.9036e-05 -8.2824e-09 9.5319e-06)
(-4.0221e-05 -1.0069e-08 1.1897e-05)
(-3.4529e-06 8.6232e-08 5.1608e-07)
(-9.9841e-06 2.1413e-07 1.2822e-06)
(-1.5585e-05 2.4726e-07 1.4822e-06)
(-2.0149e-05 2.2062e-07 1.3242e-06)
(-2.3938e-05 2.2304e-07 1.3376e-06)
(-2.727e-05 3.1751e-07 1.9002e-06)
(-3.0302e-05 5.0726e-07 3.0346e-06)
(-3.3046e-05 7.6735e-07 4.5926e-06)
(-3.5461e-05 1.0799e-06 6.4659e-06)
(-3.7505e-05 1.4403e-06 8.6263e-06)
(-3.9138e-05 1.8499e-06 1.1083e-05)
(-4.033e-05 2.3101e-06 1.3844e-05)
(-3.4067e-06 -4.2208e-07 -1.697e-07)
(-9.8679e-06 -1.0544e-06 -4.2364e-07)
(-1.5451e-05 -1.2363e-06 -4.9618e-07)
(-2.004e-05 -1.1337e-06 -4.5426e-07)
(-2.3865e-05 -1.1691e-06 -4.6848e-07)
(-2.7219e-05 -1.6502e-06 -6.6206e-07)
(-3.0256e-05 -2.6048e-06 -1.0449e-06)
(-3.2996e-05 -3.9195e-06 -1.571e-06)
(-3.5406e-05 -5.5059e-06 -2.2056e-06)
(-3.7444e-05 -7.3382e-06 -2.9386e-06)
(-3.9073e-05 -9.4218e-06 -3.772e-06)
(-4.026e-05 -1.1763e-05 -4.7084e-06)
(-3.3348e-06 -3.2867e-07 -8.2468e-08)
(-9.6871e-06 -8.2869e-07 -2.0777e-07)
(-1.524e-05 -9.9467e-07 -2.4901e-07)
(-1.9867e-05 -9.5e-07 -2.3729e-07)
(-2.3747e-05 -1.0098e-06 -2.5208e-07)
(-2.7135e-05 -1.4118e-06 -3.5291e-07)
(-3.018e-05 -2.1903e-06 -5.4786e-07)
(-3.2915e-05 -3.2673e-06 -8.1711e-07)
(-3.5317e-05 -4.5743e-06 -1.1437e-06)
(-3.7346e-05 -6.0877e-06 -1.5219e-06)
(-3.8966e-05 -7.809e-06 -1.952e-06)
(-4.0147e-05 -9.742e-06 -2.435e-06)
(-3.2879e-06 -2.4348e-07 3.1904e-10)
(-9.5682e-06 -6.178e-07 8.5449e-10)
(-1.51e-05 -7.5321e-07 1.1692e-09)
(-1.9749e-05 -7.3823e-07 1.3266e-09)
(-2.3664e-05 -7.9939e-07 1.5125e-09)
(-2.7075e-05 -1.1118e-06 1.8867e-09)
(-3.0127e-05 -1.7069e-06 2.4995e-09)
(-3.286e-05 -2.5318e-06 3.3283e-09)
(-3.5255e-05 -3.5365e-06 4.3431e-09)
(-3.7278e-05 -4.7019e-06 5.5345e-09)
(-3.8894e-05 -6.0277e-06 6.9086e-09)
(-4.0069e-05 -7.5161e-06 8.4744e-09)
(-3.2647e-06 -1.6229e-07 8.1652e-08)
(-9.5093e-06 -4.131e-07 2.0785e-07)
(-1.503e-05 -5.0754e-07 2.5538e-07)
(-1.9689e-05 -5.0365e-07 2.5345e-07)
(-2.3621e-05 -5.5022e-07 2.7688e-07)
(-2.7044e-05 -7.6352e-07 3.841e-07)
(-3.0099e-05 -1.1662e-06 5.8638e-07)
(-3.2831e-05 -1.7249e-06 8.669e-07)
(-3.5224e-05 -2.4064e-06 1.2091e-06)
(-3.7244e-05 -3.1976e-06 1.6064e-06)
(-3.8856e-05 -4.0978e-06 2.0585e-06)
(-4.0029e-05 -5.1083e-06 2.566e-06)
(-3.2647e-06 -8.1591e-08 1.6234e-07)
(-9.5093e-06 -2.0768e-07 4.1325e-07)
(-1.503e-05 -2.5514e-07 5.0776e-07)
(-1.9689e-05 -2.5316e-07 5.0391e-07)
(-2.3621e-05 -2.7659e-07 5.5048e-07)
(-2.7044e-05 -3.8382e-07 7.6376e-07)
(-3.0099e-05 -5.861e-07 1.1665e-06)
(-3.2831e-05 -8.6658e-07 1.7251e-06)
(-3.5224e-05 -1.2087e-06 2.4067e-06)
(-3.7244e-05 -1.6059e-06 3.198e-06)
(-3.8856e-05 -2.0577e-06 4.0984e-06)
(-4.0029e-05 -2.5649e-06 5.1092e-06)
(-3.2879e-06 -2.4912e-10 2.4352e-07)
(-9.5682e-06 -6.6105e-10 6.1793e-07)
(-1.51e-05 -8.9199e-10 7.534e-07)
(-1.9749e-05 -1.0095e-09 7.3845e-07)
(-2.3664e-05 -1.1857e-09 7.9961e-07)
(-2.7075e-05 -1.5562e-09 1.112e-06)
(-3.0127e-05 -2.1456e-09 1.707e-06)
(-3.286e-05 -2.9086e-09 2.5319e-06)
(-3.5255e-05 -3.7973e-09 3.5366e-06)
(-3.7278e-05 -4.7896e-09 4.7021e-06)
(-3.8893e-05 -5.8865e-09 6.028e-06)
(-4.0069e-05 -7.1004e-09 7.5166e-06)
(-3.3348e-06 8.2544e-08 3.287e-07)
(-9.687e-06 2.0798e-07 8.2878e-07)
(-1.524e-05 2.4931e-07 9.948e-07)
(-1.9867e-05 2.3764e-07 9.5017e-07)
(-2.3747e-05 2.5243e-07 1.0099e-06)
(-2.7135e-05 3.5328e-07 1.4118e-06)
(-3.018e-05 5.4825e-07 2.1903e-06)
(-3.2915e-05 8.1758e-07 3.2671e-06)
(-3.5316e-05 1.1443e-06 4.574e-06)
(-3.7346e-05 1.5227e-06 6.0874e-06)
(-3.8966e-05 1.9532e-06 7.8088e-06)
(-4.0147e-05 2.4365e-06 9.7418e-06)
(-3.4066e-06 1.6977e-07 4.221e-07)
(-9.8678e-06 4.2383e-07 1.0545e-06)
(-1.5451e-05 4.9645e-07 1.2364e-06)
(-2.004e-05 4.5457e-07 1.1338e-06)
(-2.3865e-05 4.6879e-07 1.1692e-06)
(-2.7219e-05 6.6235e-07 1.6502e-06)
(-3.0256e-05 1.0452e-06 2.6047e-06)
(-3.2996e-05 1.5714e-06 3.9193e-06)
(-3.5406e-05 2.206e-06 5.5055e-06)
(-3.7444e-05 2.9391e-06 7.3377e-06)
(-3.9073e-05 3.7728e-06 9.4214e-06)
(-4.026e-05 4.7095e-06 1.1763e-05)
(-3.3837e-06 -3.3524e-07 -2.5201e-07)
(-9.81e-06 -8.3982e-07 -6.3108e-07)
(-1.5383e-05 -9.9148e-07 -7.4459e-07)
(-1.9984e-05 -9.2033e-07 -6.9046e-07)
(-2.3827e-05 -9.5838e-07 -7.1884e-07)
(-2.7192e-05 -1.349e-06 -1.0124e-06)
(-3.0232e-05 -2.117e-06 -1.5889e-06)
(-3.297e-05 -3.1752e-06 -2.3826e-06)
(-3.5377e-05 -4.454e-06 -3.3417e-06)
(-3.7412e-05 -5.9325e-06 -4.4505e-06)
(-3.9039e-05 -7.6139e-06 -5.7117e-06)
(-4.0224e-05 -9.5029e-06 -7.1284e-06)
(-3.3117e-06 -2.4518e-07 -1.6388e-07)
(-9.6287e-06 -6.2004e-07 -4.1429e-07)
(-1.5171e-05 -7.4969e-07 -5.0058e-07)
(-1.9809e-05 -7.2485e-07 -4.835e-07)
(-2.3706e-05 -7.7752e-07 -5.1847e-07)
(-2.7105e-05 -1.0844e-06 -7.2355e-07)
(-3.0154e-05 -1.6735e-06 -1.117e-06)
(-3.2888e-05 -2.4889e-06 -1.6613e-06)
(-3.5286e-05 -3.4799e-06 -2.3228e-06)
(-3.7313e-05 -4.6285e-06 -3.0895e-06)
(-3.8931e-05 -5.935e-06 -3.9616e-06)
(-4.0109e-05 -7.4019e-06 -4.9408e-06)
(-3.2647e-06 -1.6223e-07 -8.1316e-08)
(-9.5094e-06 -4.1294e-07 -2.0691e-07)
(-1.503e-05 -5.0733e-07 -2.5399e-07)
(-1.9689e-05 -5.0342e-07 -2.5175e-07)
(-2.3621e-05 -5.4995e-07 -2.7491e-07)
(-2.7044e-05 -7.6315e-07 -3.8178e-07)
(-3.01e-05 -1.1657e-06 -5.8359e-07)
(-3.2831e-05 -1.7241e-06 -8.635e-07)
(-3.5224e-05 -2.4053e-06 -1.205e-06)
(-3.7244e-05 -3.1961e-06 -1.6014e-06)
(-3.8856e-05 -4.0959e-06 -2.0524e-06)
(-4.0029e-05 -5.1059e-06 -2.5586e-06)
(-3.2413e-06 -8.1498e-08 1.4156e-10)
(-9.4497e-06 -2.0814e-07 4.0041e-10)
(-1.4958e-05 -2.5777e-07 6.0275e-10)
(-1.9628e-05 -2.5903e-07 7.5048e-10)
(-2.3577e-05 -2.8545e-07 8.7296e-10)
(-2.7012e-05 -3.952e-07 1.0051e-09)
(-3.0071e-05 -6.0065e-07 1.1699e-09)
(-3.2802e-05 -8.8589e-07 1.378e-09)
(-3.5191e-05 -1.2344e-06 1.6343e-09)
(-3.7208e-05 -1.6394e-06 1.9442e-09)
(-3.8818e-05 -2.1003e-06 2.3139e-09)
(-3.9989e-05 -2.6175e-06 2.7496e-09)
(-3.2413e-06 -6.9115e-11 8.1566e-08)
(-9.4497e-06 -1.9956e-10 2.0833e-07)
(-1.4958e-05 -3.1372e-10 2.5804e-07)
(-1.9628e-05 -4.176e-10 2.5935e-07)
(-2.3577e-05 -5.2598e-10 2.8578e-07)
(-2.7012e-05 -6.4862e-10 3.9553e-07)
(-3.0071e-05 -7.8227e-10 6.0101e-07)
(-3.2802e-05 -9.143e-10 8.8631e-07)
(-3.5191e-05 -1.0316e-09 1.235e-06)
(-3.7208e-05 -1.1273e-09 1.6402e-06)
(-3.8818e-05 -1.2038e-09 2.1013e-06)
(-3.9989e-05 -1.2709e-09 2.6188e-06)
(-3.2647e-06 8.1408e-08 1.6229e-07)
(-9.5093e-06 2.0716e-07 4.1311e-07)
(-1.503e-05 2.5435e-07 5.0757e-07)
(-1.9689e-05 2.5215e-07 5.0371e-07)
(-2.3621e-05 2.7534e-07 5.5024e-07)
(-2.7044e-05 3.8224e-07 7.6343e-07)
(-3.0099e-05 5.8413e-07 1.166e-06)
(-3.2831e-05 8.6418e-07 1.7244e-06)
(-3.5224e-05 1.2058e-06 2.4057e-06)
(-3.7244e-05 1.6026e-06 3.1967e-06)
(-3.8856e-05 2.054e-06 4.0967e-06)
(-4.0029e-05 2.5608e-06 5.107e-06)
(-3.3117e-06 1.64e-07 2.4519e-07)
(-9.6286e-06 4.1461e-07 6.2006e-07)
(-1.5171e-05 5.0102e-07 7.4976e-07)
(-1.9809e-05 4.84e-07 7.2497e-07)
(-2.3706e-05 5.19e-07 7.7762e-07)
(-2.7105e-05 7.2415e-07 1.0844e-06)
(-3.0154e-05 1.1177e-06 1.6734e-06)
(-3.2888e-05 1.6623e-06 2.4885e-06)
(-3.5286e-05 2.3241e-06 3.4795e-06)
(-3.7313e-05 3.0912e-06 4.6279e-06)
(-3.8931e-05 3.9639e-06 5.9343e-06)
(-4.0108e-05 4.9437e-06 7.4012e-06)
(-3.3836e-06 2.5209e-07 3.3524e-07)
(-9.8099e-06 6.3131e-07 8.3983e-07)
(-1.5383e-05 7.4493e-07 9.9153e-07)
(-1.9984e-05 6.9086e-07 9.2042e-07)
(-2.3827e-05 7.1927e-07 9.5845e-07)
(-2.7192e-05 1.0128e-06 1.349e-06)
(-3.0232e-05 1.5894e-06 2.1168e-06)
(-3.297e-05 2.3831e-06 3.1747e-06)
(-3.5377e-05 3.3424e-06 4.4534e-06)
(-3.7412e-05 4.4515e-06 5.9317e-06)
(-3.9039e-05 5.7129e-06 7.613e-06)
(-4.0223e-05 7.1301e-06 9.5018e-06)
(-3.3837e-06 -2.5218e-07 -3.3508e-07)
(-9.8101e-06 -6.3157e-07 -8.3935e-07)
(-1.5383e-05 -7.4537e-07 -9.9073e-07)
(-1.9984e-05 -6.9148e-07 -9.1934e-07)
(-2.3827e-05 -7.2005e-07 -9.5722e-07)
(-2.7192e-05 -1.0138e-06 -1.3477e-06)
(-3.0232e-05 -1.5904e-06 -2.1156e-06)
(-3.297e-05 -2.3841e-06 -3.1738e-06)
(-3.5377e-05 -3.3432e-06 -4.4527e-06)
(-3.7412e-05 -4.452e-06 -5.9312e-06)
(-3.9039e-05 -5.713e-06 -7.6127e-06)
(-4.0224e-05 -7.1297e-06 -9.5017e-06)
(-3.3117e-06 -1.6404e-07 -2.4503e-07)
(-9.6287e-06 -4.1477e-07 -6.1958e-07)
(-1.5171e-05 -5.0133e-07 -7.4896e-07)
(-1.9809e-05 -4.8449e-07 -7.239e-07)
(-2.3706e-05 -5.1965e-07 -7.7638e-07)
(-2.7105e-05 -7.2489e-07 -1.0832e-06)
(-3.0154e-05 -1.1185e-06 -1.6722e-06)
(-3.2888e-05 -1.6628e-06 -2.4874e-06)
(-3.5286e-05 -2.3244e-06 -3.4785e-06)
(-3.7313e-05 -3.0911e-06 -4.6271e-06)
(-3.8931e-05 -3.9632e-06 -5.9336e-06)
(-4.0109e-05 -4.9424e-06 -7.4006e-06)
(-3.2647e-06 -8.148e-08 -1.6207e-07)
(-9.5094e-06 -2.0739e-07 -4.1249e-07)
(-1.503e-05 -2.5475e-07 -5.0661e-07)
(-1.9689e-05 -2.5274e-07 -5.0247e-07)
(-2.3622e-05 -2.7609e-07 -5.4881e-07)
(-2.7044e-05 -3.8313e-07 -7.6186e-07)
(-3.01e-05 -5.8508e-07 -1.1643e-06)
(-3.2831e-05 -8.651e-07 -1.7226e-06)
(-3.5224e-05 -1.2067e-06 -2.4037e-06)
(-3.7244e-05 -1.6031e-06 -3.1945e-06)
(-3.8856e-05 -2.0542e-06 -4.0943e-06)
(-4.0029e-05 -2.5606e-06 -5.1043e-06)
(-3.2413e-06 -2.5374e-11 -8.1334e-08)
(-9.4498e-06 -8.4178e-11 -2.0767e-07)
(-1.4958e-05 -1.5951e-10 -2.5702e-07)
(-1.9628e-05 -2.4422e-10 -2.5805e-07)
(-2.3578e-05 -3.1977e-10 -2.8427e-07)
(-2.7012e-05 -3.6649e-10 -3.9385e-07)
(-3.0071e-05 -3.7051e-10 -5.9915e-07)
(-3.2802e-05 -3.23e-10 -8.8424e-07)
(-3.5191e-05 -2.1824e-10 -1.2327e-06)
(-3.7208e-05 -5.3972e-11 -1.6375e-06)
(-3.8818e-05 1.6616e-10 -2.0982e-06)
(-3.9989e-05 4.3304e-10 -2.6153e-06)
(-3.2413e-06 8.1405e-08 1.1504e-10)
(-9.4497e-06 2.0787e-07 3.293e-10)
(-1.4958e-05 2.5731e-07 5.0458e-10)
(-1.9628e-05 2.5838e-07 6.3555e-10)
(-2.3578e-05 2.8462e-07 7.3313e-10)
(-2.7012e-05 3.942e-07 8.1492e-10)
(-3.0071e-05 5.9951e-07 8.967e-10)
(-3.2802e-05 8.8467e-07 9.9019e-10)
(-3.5191e-05 1.2332e-06 1.1044e-09)
(-3.7208e-05 1.6382e-06 1.2468e-09)
(-3.8818e-05 2.0992e-06 1.4238e-09)
(-3.9989e-05 2.6167e-06 1.6408e-09)
(-3.2647e-06 1.6218e-07 8.1603e-08)
(-9.5093e-06 4.1279e-07 2.0772e-07)
(-1.503e-05 5.0703e-07 2.552e-07)
(-1.9689e-05 5.0294e-07 2.5324e-07)
(-2.3621e-05 5.4931e-07 2.7663e-07)
(-2.7044e-05 7.6241e-07 3.8375e-07)
(-3.0099e-05 1.1649e-06 5.8587e-07)
(-3.2831e-05 1.7234e-06 8.6617e-07)
(-3.5224e-05 2.4049e-06 1.2081e-06)
(-3.7244e-05 3.196e-06 1.6051e-06)
(-3.8856e-05 4.0963e-06 2.0568e-06)
(-4.0029e-05 5.1069e-06 2.5639e-06)
(-3.3117e-06 2.4525e-07 1.6398e-07)
(-9.6286e-06 6.2018e-07 4.1462e-07)
(-1.5171e-05 7.4975e-07 5.012e-07)
(-1.9809e-05 7.2476e-07 4.8443e-07)
(-2.3706e-05 7.7731e-07 5.1958e-07)
(-2.7105e-05 1.0843e-06 7.2465e-07)
(-3.0154e-05 1.6737e-06 1.1179e-06)
(-3.2888e-05 2.4895e-06 1.6619e-06)
(-3.5286e-05 3.4814e-06 2.3231e-06)
(-3.7313e-05 4.6309e-06 3.0894e-06)
(-3.8931e-05 5.9386e-06 3.9611e-06)
(-4.0108e-05 7.4069e-06 4.9398e-06)
(-3.3836e-06 3.3517e-07 2.5213e-07)
(-9.8098e-06 8.3959e-07 6.3146e-07)
(-1.5383e-05 9.911e-07 7.4529e-07)
(-1.9984e-05 9.1981e-07 6.9146e-07)
(-2.3827e-05 9.5773e-07 7.2002e-07)
(-2.7192e-05 1.3482e-06 1.0136e-06)
(-3.0232e-05 2.1162e-06 1.5899e-06)
(-3.297e-05 3.1744e-06 2.3833e-06)
(-3.5377e-05 4.4535e-06 3.342e-06)
(-3.7412e-05 5.9323e-06 4.4505e-06)
(-3.9038e-05 7.6142e-06 5.7112e-06)
(-4.0223e-05 9.5037e-06 7.1275e-06)
(-3.4067e-06 -1.6987e-07 -4.2193e-07)
(-9.868e-06 -4.2415e-07 -1.054e-06)
(-1.5451e-05 -4.9698e-07 -1.2356e-06)
(-2.004e-05 -4.553e-07 -1.1327e-06)
(-2.3865e-05 -4.6972e-07 -1.168e-06)
(-2.7219e-05 -6.6345e-07 -1.649e-06)
(-3.0256e-05 -1.0464e-06 -2.6036e-06)
(-3.2996e-05 -1.5726e-06 -3.9183e-06)
(-3.5406e-05 -2.2072e-06 -5.5047e-06)
(-3.7444e-05 -2.9401e-06 -7.3371e-06)
(-3.9073e-05 -3.7735e-06 -9.4209e-06)
(-4.026e-05 -4.7098e-06 -1.1762e-05)
(-3.3348e-06 -8.2636e-08 -3.2853e-07)
(-9.6872e-06 -2.0826e-07 -8.2827e-07)
(-1.524e-05 -2.4979e-07 -9.9399e-07)
(-1.9867e-05 -2.3831e-07 -9.491e-07)
(-2.3747e-05 -2.5329e-07 -1.0087e-06)
(-2.7135e-05 -3.5429e-07 -1.4106e-06)
(-3.018e-05 -5.4936e-07 -2.1891e-06)
(-3.2915e-05 -8.1871e-07 -3.266e-06)
(-3.5317e-05 -1.1454e-06 -4.573e-06)
(-3.7346e-05 -1.5236e-06 -6.0865e-06)
(-3.8966e-05 -1.9538e-06 -7.808e-06)
(-4.0147e-05 -2.4367e-06 -9.741e-06)
(-3.2879e-06 1.4817e-10 -2.4333e-07)
(-9.5683e-06 3.5856e-10 -6.1738e-07)
(-1.51e-05 3.8954e-10 -7.5253e-07)
(-1.9749e-05 3.1029e-10 -7.3733e-07)
(-2.3664e-05 2.9612e-10 -7.9833e-07)
(-2.7075e-05 4.9175e-10 -1.1106e-06)
(-3.0127e-05 9.3875e-10 -1.7056e-06)
(-3.286e-05 1.6137e-09 -2.5305e-06)
(-3.5255e-05 2.4879e-09 -3.5352e-06)
(-3.7278e-05 3.5484e-09 -4.7006e-06)
(-3.8893e-05 4.7901e-09 -6.0265e-06)
(-4.0069e-05 6.2059e-09 -7.5149e-06)
(-3.2647e-06 8.147e-08 -1.6213e-07)
(-9.5094e-06 2.0733e-07 -4.1265e-07)
(-1.503e-05 2.5457e-07 -5.0682e-07)
(-1.9689e-05 2.524e-07 -5.0271e-07)
(-2.3622e-05 2.7563e-07 -5.4909e-07)
(-2.7044e-05 3.8264e-07 -7.6224e-07)
(-3.01e-05 5.8471e-07 -1.1648e-06)
(-3.2831e-05 8.65e-07 -1.7234e-06)
(-3.5224e-05 1.207e-06 -2.4048e-06)
(-3.7244e-05 1.604e-06 -3.1959e-06)
(-3.8856e-05 2.0559e-06 -4.0961e-06)
(-4.0029e-05 2.5631e-06 -5.1065e-06)
(-3.2647e-06 1.6215e-07 -8.1372e-08)
(-9.5094e-06 4.127e-07 -2.0706e-07)
(-1.503e-05 5.0692e-07 -2.542e-07)
(-1.9689e-05 5.0284e-07 -2.5199e-07)
(-2.3622e-05 5.4921e-07 -2.752e-07)
(-2.7044e-05 7.6227e-07 -3.8217e-07)
(-3.01e-05 1.1647e-06 -5.8415e-07)
(-3.2831e-05 1.7231e-06 -8.6428e-07)
(-3.5224e-05 2.4043e-06 -1.206e-06)
(-3.7244e-05 3.1953e-06 -1.6027e-06)
(-3.8856e-05 4.0954e-06 -2.0542e-06)
(-4.0029e-05 5.1057e-06 -2.5608e-06)
(-3.2879e-06 2.4339e-07 2.6984e-10)
(-9.5683e-06 6.1754e-07 7.214e-10)
(-1.51e-05 7.5277e-07 9.8208e-10)
(-1.9749e-05 7.3761e-07 1.1025e-09)
(-2.3664e-05 7.986e-07 1.2363e-09)
(-2.7075e-05 1.1109e-06 1.5121e-09)
(-3.0127e-05 1.7058e-06 1.9662e-09)
(-3.286e-05 2.5306e-06 2.5772e-09)
(-3.5255e-05 3.5353e-06 3.3222e-09)
(-3.7278e-05 4.7007e-06 4.1954e-09)
(-3.8893e-05 6.0267e-06 5.2017e-09)
(-4.0069e-05 7.5153e-06 6.3487e-09)
(-3.3347e-06 3.2858e-07 8.2836e-08)
(-9.6868e-06 8.2844e-07 2.088e-07)
(-1.524e-05 9.9432e-07 2.5051e-07)
(-1.9866e-05 9.496e-07 2.3912e-07)
(-2.3747e-05 1.0093e-06 2.5419e-07)
(-2.7135e-05 1.4112e-06 3.554e-07)
(-3.018e-05 2.1897e-06 5.5087e-07)
(-3.2915e-05 3.2667e-06 8.2082e-07)
(-3.5316e-05 4.5739e-06 1.1483e-06)
(-3.7345e-05 6.0877e-06 1.5275e-06)
(-3.8966e-05 7.8095e-06 1.9588e-06)
(-4.0146e-05 9.743e-06 2.4431e-06)
(-3.4065e-06 4.2189e-07 1.6974e-07)
(-9.8675e-06 1.0539e-06 4.2386e-07)
(-1.545e-05 1.2357e-06 4.9671e-07)
(-2.004e-05 1.133e-06 4.5515e-07)
(-2.3865e-05 1.1683e-06 4.6959e-07)
(-2.7219e-05 1.6492e-06 6.6312e-07)
(-3.0256e-05 2.6035e-06 1.0457e-06)
(-3.2996e-05 3.918e-06 1.5714e-06)
(-3.5406e-05 5.5042e-06 2.2054e-06)
(-3.7444e-05 7.3364e-06 2.9378e-06)
(-3.9072e-05 9.4201e-06 3.7706e-06)
(-4.0259e-05 1.1761e-05 4.7062e-06)
(-3.453e-06 -8.6355e-08 -5.159e-07)
(-9.9843e-06 -2.145e-07 -1.2817e-06)
(-1.5586e-05 -2.4786e-07 -1.4813e-06)
(-2.0149e-05 -2.2144e-07 -1.3231e-06)
(-2.3938e-05 -2.2407e-07 -1.3365e-06)
(-2.727e-05 -3.1873e-07 -1.899e-06)
(-3.0302e-05 -5.0863e-07 -3.0335e-06)
(-3.3046e-05 -7.688e-07 -4.5917e-06)
(-3.5461e-05 -1.0813e-06 -6.4651e-06)
(-3.7505e-05 -1.4416e-06 -8.6257e-06)
(-3.9138e-05 -1.851e-06 -1.1082e-05)
(-4.033e-05 -2.311e-06 -1.3844e-05)
(-3.3812e-06 2.3959e-10 -4.173e-07)
(-9.8044e-06 5.8267e-10 -1.0459e-06)
(-1.5378e-05 6.5305e-10 -1.2365e-06)
(-1.9981e-05 5.586e-10 -1.1507e-06)
(-2.3825e-05 5.5868e-10 -1.1997e-06)
(-2.7191e-05 8.6769e-10 -1.6871e-06)
(-3.023e-05 1.5411e-09 -2.6469e-06)
(-3.2968e-05 2.5376e-09 -3.9715e-06)
(-3.5375e-05 3.8063e-09 -5.5734e-06)
(-3.741e-05 5.3231e-09 -7.4253e-06)
(-3.9036e-05 7.0808e-09 -9.5313e-06)
(-4.0221e-05 9.0746e-09 -1.1897e-05)
(-3.3347e-06 8.2704e-08 -3.2853e-07)
(-9.6868e-06 2.0841e-07 -8.2831e-07)
(-1.524e-05 2.4988e-07 -9.9412e-07)
(-1.9866e-05 2.3829e-07 -9.4937e-07)
(-2.3747e-05 2.5321e-07 -1.0091e-06)
(-2.7135e-05 3.5433e-07 -1.4111e-06)
(-3.018e-05 5.4977e-07 -2.1897e-06)
(-3.2915e-05 8.1976e-07 -3.2668e-06)
(-3.5316e-05 1.1473e-06 -4.5741e-06)
(-3.7345e-05 1.5267e-06 -6.0878e-06)
(-3.8966e-05 1.9581e-06 -7.8096e-06)
(-4.0146e-05 2.4427e-06 -9.7431e-06)
(-3.3117e-06 1.6384e-07 -2.4521e-07)
(-9.6287e-06 4.1423e-07 -6.2006e-07)
(-1.5171e-05 5.0058e-07 -7.4959e-07)
(-1.9809e-05 4.836e-07 -7.2458e-07)
(-2.3706e-05 5.1859e-07 -7.7716e-07)
(-2.7105e-05 7.2356e-07 -1.0842e-06)
(-3.0154e-05 1.1168e-06 -1.6737e-06)
(-3.2888e-05 1.6608e-06 -2.4897e-06)
(-3.5286e-05 2.322e-06 -3.4815e-06)
(-3.7313e-05 3.0884e-06 -4.6311e-06)
(-3.8931e-05 3.9602e-06 -5.9387e-06)
(-4.0108e-05 4.9391e-06 -7.4069e-06)
(-3.3117e-06 2.4506e-07 -1.6397e-07)
(-9.6287e-06 6.1968e-07 -4.1452e-07)
(-1.5171e-05 7.4914e-07 -5.009e-07)
(-1.9809e-05 7.2415e-07 -4.8387e-07)
(-2.3706e-05 7.7665e-07 -5.1892e-07)
(-2.7105e-05 1.0834e-06 -7.2415e-07)
(-3.0154e-05 1.6722e-06 -1.1178e-06)
(-3.2888e-05 2.4874e-06 -1.6625e-06)
(-3.5286e-05 3.4783e-06 -2.3244e-06)
(-3.7312e-05 4.6268e-06 -3.0915e-06)
(-3.8931e-05 5.9333e-06 -3.9642e-06)
(-4.0108e-05 7.4003e-06 -4.944e-06)
(-3.3348e-06 3.2858e-07 -8.2521e-08)
(-9.6871e-06 8.2842e-07 -2.0792e-07)
(-1.524e-05 9.9422e-07 -2.4922e-07)
(-1.9867e-05 9.4938e-07 -2.3755e-07)
(-2.3747e-05 1.009e-06 -2.5239e-07)
(-2.7135e-05 1.4108e-06 -3.5333e-07)
(-3.018e-05 2.1892e-06 -5.4844e-07)
(-3.2915e-05 3.266e-06 -8.179e-07)
(-3.5316e-05 4.5729e-06 -1.1448e-06)
(-3.7346e-05 6.0864e-06 -1.5233e-06)
(-3.8966e-05 7.8078e-06 -1.9537e-06)
(-4.0147e-05 9.7409e-06 -2.4371e-06)
(-3.3812e-06 4.1736e-07 3.7289e-10)
(-9.8043e-06 1.046e-06 9.7703e-10)
(-1.5378e-05 1.2368e-06 1.2891e-09)
(-1.9981e-05 1.151e-06 1.3992e-09)
(-2.3825e-05 1.2e-06 1.5495e-09)
(-2.7191e-05 1.6873e-06 1.942e-09)
(-3.023e-05 2.647e-06 2.6265e-09)
(-3.2968e-05 3.9715e-06 3.5617e-09)
(-3.5375e-05 5.5732e-06 4.7004e-09)
(-3.741e-05 7.4251e-06 6.0247e-09)
(-3.9036e-05 9.5311e-06 7.537e-09)
(-4.0221e-05 1.1897e-05 9.2465e-09)
(-3.4528e-06 5.1596e-07 8.6606e-08)
(-9.984e-06 1.2819e-06 2.1515e-07)
(-1.5585e-05 1.4817e-06 2.487e-07)
(-2.0149e-05 1.3235e-06 2.2233e-07)
(-2.3938e-05 1.3369e-06 2.2503e-07)
(-2.727e-05 1.8994e-06 3.1993e-07)
(-3.0302e-05 3.0338e-06 5.1032e-07)
(-3.3046e-05 4.592e-06 7.7122e-07)
(-3.5461e-05 6.4653e-06 1.0847e-06)
(-3.7505e-05 8.626e-06 1.4461e-06)
(-3.9138e-05 1.1083e-05 1.8568e-06)
(-4.033e-05 1.3845e-05 2.3183e-06)
(-3.523e-06 8.7591e-11 -6.2004e-07)
(-1.0159e-05 1.919e-10 -1.5285e-06)
(-1.5786e-05 1.6354e-10 -1.7295e-06)
(-2.0307e-05 6.0035e-11 -1.4829e-06)
(-2.404e-05 7.533e-12 -1.4489e-06)
(-2.7341e-05 1.1629e-10 -2.0832e-06)
(-3.0367e-05 4.2168e-10 -3.3897e-06)
(-3.3117e-05 9.1243e-10 -5.174e-06)
(-3.554e-05 1.5666e-09 -7.3068e-06)
(-3.7592e-05 2.3673e-09 -9.7612e-06)
(-3.9232e-05 3.3083e-09 -1.2552e-05)
(-4.043e-05 4.3863e-09 -1.5692e-05)
(-3.4529e-06 8.6461e-08 -5.1591e-07)
(-9.9841e-06 2.1472e-07 -1.2817e-06)
(-1.5586e-05 2.4801e-07 -1.4814e-06)
(-2.0149e-05 2.2143e-07 -1.3233e-06)
(-2.3938e-05 2.2397e-07 -1.3367e-06)
(-2.727e-05 3.1878e-07 -1.8993e-06)
(-3.0302e-05 5.0914e-07 -3.0338e-06)
(-3.3046e-05 7.7007e-07 -4.5921e-06)
(-3.5461e-05 1.0836e-06 -6.4656e-06)
(-3.7505e-05 1.4452e-06 -8.6264e-06)
(-3.9138e-05 1.8561e-06 -1.1083e-05)
(-4.033e-05 2.3179e-06 -1.3845e-05)
(-3.4065e-06 1.6961e-07 -4.2185e-07)
(-9.8676e-06 4.2345e-07 -1.0538e-06)
(-1.5451e-05 4.9605e-07 -1.2355e-06)
(-2.004e-05 4.5428e-07 -1.1328e-06)
(-2.3865e-05 4.6856e-07 -1.1681e-06)
(-2.7219e-05 6.62e-07 -1.6491e-06)
(-3.0256e-05 1.0445e-06 -2.6036e-06)
(-3.2996e-05 1.5702e-06 -3.9182e-06)
(-3.5406e-05 2.2043e-06 -5.5045e-06)
(-3.7444e-05 2.9369e-06 -7.3368e-06)
(-3.9072e-05 3.7698e-06 -9.4204e-06)
(-4.0259e-05 4.7057e-06 -1.1762e-05)
(-3.3836e-06 2.5199e-07 -3.3513e-07)
(-9.8099e-06 6.3107e-07 -8.3949e-07)
(-1.5383e-05 7.4465e-07 -9.9096e-07)
(-1.9984e-05 6.9062e-07 -9.1967e-07)
(-2.3827e-05 7.1903e-07 -9.5763e-07)
(-2.7192e-05 1.0125e-06 -1.3482e-06)
(-3.0232e-05 1.5888e-06 -2.1163e-06)
(-3.297e-05 2.3822e-06 -3.1746e-06)
(-3.5377e-05 3.341e-06 -4.4538e-06)
(-3.7412e-05 4.4495e-06 -5.9326e-06)
(-3.9038e-05 5.7104e-06 -7.6145e-06)
(-4.0223e-05 7.1268e-06 -9.5039e-06)
(-3.3837e-06 3.3511e-07 -2.5207e-07)
(-9.81e-06 8.3945e-07 -6.3124e-07)
(-1.5383e-05 9.9093e-07 -7.4483e-07)
(-1.9984e-05 9.1961e-07 -6.9077e-07)
(-2.3827e-05 9.5749e-07 -7.1923e-07)
(-2.7192e-05 1.3479e-06 -1.0129e-06)
(-3.0232e-05 2.1157e-06 -1.5895e-06)
(-3.297e-05 3.1736e-06 -2.3834e-06)
(-3.5377e-05 4.4523e-06 -3.3427e-06)
(-3.7412e-05 5.9307e-06 -4.4519e-06)
(-3.9038e-05 7.6121e-06 -5.7134e-06)
(-4.0223e-05 9.501e-06 -7.1305e-06)
(-3.4067e-06 4.2198e-07 -1.6975e-07)
(-9.868e-06 1.0541e-06 -4.2377e-07)
(-1.5451e-05 1.2358e-06 -4.9638e-07)
(-2.004e-05 1.1331e-06 -4.5451e-07)
(-2.3865e-05 1.1683e-06 -4.6879e-07)
(-2.7219e-05 1.6492e-06 -6.6245e-07)
(-3.0256e-05 2.6036e-06 -1.0454e-06)
(-3.2996e-05 3.9182e-06 -1.5717e-06)
(-3.5406e-05 5.5045e-06 -2.2064e-06)
(-3.7444e-05 7.3368e-06 -2.9397e-06)
(-3.9072e-05 9.4205e-06 -3.7734e-06)
(-4.026e-05 1.1762e-05 -4.71e-06)
(-3.4529e-06 5.1597e-07 -8.6214e-08)
(-9.9842e-06 1.2819e-06 -2.1408e-07)
(-1.5586e-05 1.4816e-06 -2.4719e-07)
(-2.0149e-05 1.3235e-06 -2.2057e-07)
(-2.3938e-05 1.3368e-06 -2.2305e-07)
(-2.727e-05 1.8993e-06 -3.1762e-07)
(-3.0302e-05 3.0336e-06 -5.075e-07)
(-3.3046e-05 4.5917e-06 -7.6773e-07)
(-3.5461e-05 6.4649e-06 -1.0804e-06)
(-3.7505e-05 8.6254e-06 -1.4408e-06)
(-3.9138e-05 1.1082e-05 -1.8505e-06)
(-4.033e-05 1.3844e-05 -2.3108e-06)
(-3.523e-06 6.201e-07 2.4082e-10)
(-1.0159e-05 1.5287e-06 6.4202e-10)
(-1.5786e-05 1.7298e-06 8.8148e-10)
(-2.0307e-05 1.4832e-06 9.9985e-10)
(-2.404e-05 1.4492e-06 1.1124e-09)
(-2.7341e-05 2.0833e-06 1.3227e-09)
(-3.0367e-05 3.3897e-06 1.6618e-09)
(-3.3117e-05 5.1739e-06 2.1166e-09)
(-3.554e-05 7.3065e-06 2.6666e-09)
(-3.7592e-05 9.7609e-06 3.3006e-09)
(-3.9232e-05 1.2552e-05 4.0214e-09)
(-4.043e-05 1.5691e-05 4.8387e-09)
(-4.0789e-05 -2.0347e-05 1.7918e-06)
(-3.957e-05 -1.6239e-05 1.4318e-06)
(-3.7904e-05 -1.2595e-05 1.1116e-06)
(-3.5824e-05 -9.3917e-06 8.291e-07)
(-3.3369e-05 -6.5888e-06 5.8144e-07)
(-3.0592e-05 -4.1929e-06 3.7042e-07)
(-2.7577e-05 -2.393e-06 2.1316e-07)
(-2.4389e-05 -1.5709e-06 1.4085e-07)
(-2.0882e-05 -1.8406e-06 1.5995e-07)
(-1.6547e-05 -2.4841e-06 2.0972e-07)
(-1.0841e-05 -2.3456e-06 1.96e-07)
(-3.7983e-06 -9.7339e-07 8.0762e-08)
(-4.0693e-05 -1.8893e-05 5.0577e-06)
(-3.9479e-05 -1.5093e-05 4.0443e-06)
(-3.782e-05 -1.1719e-05 3.1431e-06)
(-3.5748e-05 -8.7495e-06 2.3491e-06)
(-3.3301e-05 -6.156e-06 1.6556e-06)
(-3.0534e-05 -3.9573e-06 1.0689e-06)
(-2.7519e-05 -2.3263e-06 6.3418e-07)
(-2.4301e-05 -1.5685e-06 4.2934e-07)
(-2.0719e-05 -1.7359e-06 4.6557e-07)
(-1.6316e-05 -2.2087e-06 5.8148e-07)
(-1.0627e-05 -2.0348e-06 5.3158e-07)
(-3.7112e-06 -8.3804e-07 2.1819e-07)
(-4.0622e-05 -1.6921e-05 8.3762e-06)
(-3.9413e-05 -1.3528e-05 6.7004e-06)
(-3.7759e-05 -1.0512e-05 5.2104e-06)
(-3.5692e-05 -7.8585e-06 3.8992e-06)