/*--------------------------------*- C++ -*----------------------------------*\
| =========                 |                                                 |
| \\      /  F ield         | OpenFOAM: The Open Source CFD Toolbox           |
|  \\    /   O peration     | Version:  4.1                                   |
|   \\  /    A nd           | Web:      www.OpenFOAM.org                      |
|    \\/     M anipulation  |                                                 |
\*---------------------------------------------------------------------------*/
FoamFile
{
    version     2.0;
    format      ascii;
    class       pointVectorField;
    location    "0.0065";
    object      pointDisplacement_Next;
}
// * * * * * * * * * * * * * * * * * * * * * * * * * * * * * * * * * * * * * //

dimensions      [0 1 0 0 0 0 0];

internalField   uniform (0 0 0);

boundaryField
{
    inlet
    {
        type            fixedValue;
        value           nonuniform 0();
    }
    outlet
    {
        type            fixedValue;
        value           uniform (0 0 0);
    }
    mantle
    {
        type            fixedValue;
        value           nonuniform List<vector> 
416
(
(-3.8676e-05 -3.1046e-05 -1.3073e-10)
(-3.7993e-05 -2.4962e-05 -2.4918e-10)
(-3.8009e-05 -2.4478e-05 4.8452e-06)
(-3.8699e-05 -3.0411e-05 6.0038e-06)
(-3.8026e-05 -2.309e-05 9.5595e-06)
(-3.8724e-05 -2.8641e-05 1.1849e-05)
(-3.8011e-05 -2.087e-05 1.3969e-05)
(-3.8705e-05 -2.5883e-05 1.7331e-05)
(-3.7996e-05 -1.7815e-05 1.7813e-05)
(-3.8684e-05 -2.211e-05 2.2109e-05)
(-3.8011e-05 -1.397e-05 2.0869e-05)
(-3.8705e-05 -1.7332e-05 2.5882e-05)
(-3.8026e-05 -9.5605e-06 2.3089e-05)
(-3.8724e-05 -1.185e-05 2.864e-05)
(-3.8009e-05 -4.8462e-06 2.4477e-05)
(-3.8699e-05 -6.005e-06 3.041e-05)
(-3.7993e-05 -7.8242e-10 2.4961e-05)
(-3.8676e-05 -1.0067e-09 3.1046e-05)
(-3.6844e-05 -1.9611e-05 3.6787e-10)
(-3.6855e-05 -1.9259e-05 3.8273e-06)
(-3.6864e-05 -1.8198e-05 7.5471e-06)
(-3.6855e-05 -1.6463e-05 1.1008e-05)
(-3.6843e-05 -1.4033e-05 1.4032e-05)
(-3.6855e-05 -1.1008e-05 1.6462e-05)
(-3.6864e-05 -7.548e-06 1.8197e-05)
(-3.6855e-05 -3.8282e-06 1.9258e-05)
(-3.6844e-05 -1.2429e-09 1.961e-05)
(-3.5212e-05 -1.5038e-05 1.1157e-09)
(-3.5227e-05 -1.4762e-05 2.9125e-06)
(-3.5241e-05 -1.3942e-05 5.7717e-06)
(-3.5223e-05 -1.263e-05 8.4653e-06)
(-3.5207e-05 -1.0795e-05 1.0793e-05)
(-3.5223e-05 -8.4659e-06 1.2629e-05)
(-3.5241e-05 -5.7724e-06 1.3942e-05)
(-3.5227e-05 -2.9132e-06 1.4762e-05)
(-3.5212e-05 -1.8228e-09 1.5038e-05)
(-3.3153e-05 -1.1095e-05 8.0481e-10)
(-3.3164e-05 -1.0839e-05 2.0896e-06)
(-3.3169e-05 -1.0178e-05 4.2031e-06)
(-3.3157e-05 -9.2714e-06 6.2599e-06)
(-3.3144e-05 -7.9983e-06 7.9979e-06)
(-3.3157e-05 -6.2603e-06 9.271e-06)
(-3.3169e-05 -4.2036e-06 1.0177e-05)
(-3.3164e-05 -2.0901e-06 1.0838e-05)
(-3.3154e-05 -1.3086e-09 1.1094e-05)
(-3.0721e-05 -7.513e-06 9.8149e-10)
(-3.0685e-05 -7.2093e-06 1.322e-06)
(-3.0648e-05 -6.6526e-06 2.7501e-06)
(-3.0676e-05 -6.1461e-06 4.2332e-06)
(-3.0707e-05 -5.4484e-06 5.4482e-06)
(-3.0676e-05 -4.2335e-06 6.146e-06)
(-3.0648e-05 -2.7503e-06 6.6526e-06)
(-3.0685e-05 -1.3223e-06 7.2093e-06)
(-3.0721e-05 -1.2361e-09 7.513e-06)
(-2.7859e-05 -3.7623e-06 1.0988e-09)
(-2.7773e-05 -3.4338e-06 5.731e-07)
(-2.7702e-05 -3.048e-06 1.2647e-06)
(-2.7763e-05 -2.9281e-06 2.0911e-06)
(-2.7844e-05 -2.7791e-06 2.7791e-06)
(-2.7763e-05 -2.0912e-06 2.9283e-06)
(-2.7702e-05 -1.2648e-06 3.0483e-06)
(-2.7773e-05 -5.7319e-07 3.4342e-06)
(-2.7859e-05 -1.1115e-09 3.7627e-06)
(-2.4765e-05 -1.6047e-07 1.1342e-09)
(-2.4755e-05 -1.5837e-07 -6.2125e-09)
(-2.4732e-05 -1.4301e-07 6.2171e-08)
(-2.4746e-05 -1.8828e-07 1.7312e-07)
(-2.4752e-05 -2.1358e-07 2.1375e-07)
(-2.4746e-05 -1.7308e-07 1.8861e-07)
(-2.4732e-05 -6.2185e-08 1.435e-07)
(-2.4755e-05 6.2522e-09 1.5901e-07)
(-2.4765e-05 -9.6497e-10 1.612e-07)
(-2.2363e-05 2.7968e-07 1.083e-09)
(-2.2411e-05 6.1086e-08 -2.5444e-08)
(-2.2392e-05 -9.9608e-10 -4.4962e-09)
(-2.2403e-05 -6.8362e-09 1.6094e-08)
(-2.2351e-05 1.1597e-07 -1.1573e-07)
(-2.2403e-05 -1.5985e-08 7.2599e-09)
(-2.2392e-05 4.5517e-09 1.6079e-09)
(-2.2411e-05 2.557e-08 -6.0298e-08)
(-2.2363e-05 -8.0752e-10 -2.7877e-07)
(-2.0696e-05 -3.8875e-06 9.585e-10)
(-2.0553e-05 -3.5774e-06 5.4924e-07)
(-2.0414e-05 -3.1073e-06 1.2842e-06)
(-2.0542e-05 -2.9676e-06 2.1716e-06)
(-2.0681e-05 -2.8081e-06 2.8084e-06)
(-2.0542e-05 -2.1714e-06 2.968e-06)
(-2.0414e-05 -1.284e-06 3.1079e-06)
(-2.0553e-05 -5.4906e-07 3.5781e-06)
(-2.0696e-05 -6.5171e-10 3.8884e-06)
(-1.7248e-05 -7.5581e-06 7.2895e-10)
(-1.6917e-05 -6.7197e-06 1.045e-06)
(-1.666e-05 -5.7435e-06 2.3795e-06)
(-1.6906e-05 -5.5204e-06 4.0339e-06)
(-1.7231e-05 -5.3816e-06 5.3819e-06)
(-1.6906e-05 -4.0337e-06 5.5207e-06)
(-1.666e-05 -2.3793e-06 5.744e-06)
(-1.6917e-05 -1.0448e-06 6.7203e-06)
(-1.7248e-05 -4.658e-10 7.5588e-06)
(-9.8851e-06 -5.5822e-06 3.8478e-10)
(-9.7389e-06 -5.1492e-06 8.3121e-07)
(-9.5926e-06 -4.5004e-06 1.8653e-06)
(-9.7324e-06 -4.2413e-06 3.0635e-06)
(-9.8758e-06 -3.9632e-06 3.9634e-06)
(-9.7324e-06 -3.0634e-06 4.2415e-06)
(-9.5926e-06 -1.8652e-06 4.5007e-06)
(-9.7389e-06 -8.3109e-07 5.1495e-06)
(-9.8851e-06 -2.3328e-10 5.5826e-06)
(-3.9631e-12 -2.2441e-12 1.4603e-16)
(-1.6371e-08 -4.075e-08 -3.3219e-08)
(-4.6366e-12 -4.3229e-12 1.6453e-12)
(-1.6064e-08 -6.2025e-09 5.2351e-08)
(-2.934e-12 9.5486e-13 -9.5486e-13)
(-1.6064e-08 -5.2352e-08 6.2026e-09)
(-4.6366e-12 -1.6452e-12 4.323e-12)
(-1.6371e-08 3.3218e-08 4.0751e-08)
(-3.9632e-12 -8.4911e-17 2.2442e-12)
(-3.8009e-05 4.8441e-06 2.4478e-05)
(-3.8699e-05 6.0031e-06 3.0411e-05)
(-3.8026e-05 9.5587e-06 2.309e-05)
(-3.8724e-05 1.1848e-05 2.8641e-05)
(-3.8011e-05 1.3968e-05 2.087e-05)
(-3.8704e-05 1.7331e-05 2.5883e-05)
(-3.7996e-05 1.7813e-05 1.7814e-05)
(-3.8683e-05 2.211e-05 2.2111e-05)
(-3.8011e-05 2.0869e-05 1.397e-05)
(-3.8704e-05 2.5882e-05 1.7332e-05)
(-3.8025e-05 2.3089e-05 9.5603e-06)
(-3.8724e-05 2.8641e-05 1.1849e-05)
(-3.8009e-05 2.4478e-05 4.8456e-06)
(-3.8698e-05 3.0411e-05 6.0043e-06)
(-3.7993e-05 2.4961e-05 4.5905e-10)
(-3.8675e-05 3.1046e-05 -1.1191e-10)
(-3.6855e-05 3.8258e-06 1.9259e-05)
(-3.6864e-05 7.5458e-06 1.8198e-05)
(-3.6854e-05 1.1007e-05 1.6463e-05)
(-3.6843e-05 1.4031e-05 1.4033e-05)
(-3.6854e-05 1.6462e-05 1.1009e-05)
(-3.6863e-05 1.8197e-05 7.5478e-06)
(-3.6855e-05 1.9258e-05 3.8276e-06)
(-3.6844e-05 1.961e-05 3.1595e-10)
(-3.5227e-05 2.9107e-06 1.4762e-05)
(-3.5241e-05 5.77e-06 1.3942e-05)
(-3.5223e-05 8.4639e-06 1.263e-05)
(-3.5207e-05 1.0793e-05 1.0794e-05)
(-3.5223e-05 1.2629e-05 8.4661e-06)
(-3.524e-05 1.3941e-05 5.7723e-06)
(-3.5226e-05 1.4761e-05 2.9128e-06)
(-3.5211e-05 1.5037e-05 1.0788e-09)
(-3.3164e-05 2.0875e-06 1.0839e-05)
(-3.3169e-05 4.2012e-06 1.0178e-05)
(-3.3157e-05 6.2582e-06 9.2717e-06)
(-3.3144e-05 7.9965e-06 7.9986e-06)
(-3.3157e-05 9.2698e-06 6.2605e-06)
(-3.3169e-05 1.0176e-05 4.2037e-06)
(-3.3163e-05 1.0838e-05 2.0899e-06)
(-3.3153e-05 1.1093e-05 8.0021e-10)
(-3.0685e-05 1.3199e-06 7.2097e-06)
(-3.0648e-05 2.7481e-06 6.6531e-06)
(-3.0676e-05 4.2315e-06 6.1466e-06)
(-3.0707e-05 5.4467e-06 5.4489e-06)
(-3.0676e-05 6.1447e-06 4.2339e-06)
(-3.0648e-05 6.6515e-06 2.7506e-06)
(-3.0685e-05 7.2084e-06 1.3223e-06)
(-3.0721e-05 7.5121e-06 9.8736e-10)
(-2.7773e-05 5.7103e-07 3.4345e-06)
(-2.7702e-05 1.2628e-06 3.0488e-06)
(-2.7763e-05 2.0895e-06 2.929e-06)
(-2.7844e-05 2.7777e-06 2.7799e-06)
(-2.7763e-05 2.9271e-06 2.0918e-06)
(-2.7702e-05 3.0472e-06 1.2652e-06)
(-2.7774e-05 3.4332e-06 5.7342e-07)
(-2.786e-05 3.7618e-06 1.0995e-09)
(-2.4755e-05 -8.1223e-09 1.593e-07)
(-2.4732e-05 6.0473e-08 1.4401e-07)
(-2.4746e-05 1.7162e-07 1.8926e-07)
(-2.4752e-05 2.1243e-07 2.1446e-07)
(-2.4746e-05 1.8746e-07 1.7382e-07)
(-2.4732e-05 1.4247e-07 6.2744e-08)
(-2.4755e-05 1.5803e-07 -5.8943e-09)
(-2.4765e-05 1.6019e-07 1.1192e-09)
(-2.2411e-05 -2.7141e-08 -6.0043e-08)
(-2.2392e-05 -5.9905e-09 2.07e-09)
(-2.2403e-05 1.4758e-08 7.8505e-09)
(-2.2351e-05 -1.1692e-07 -1.1508e-07)
(-2.2403e-05 6.2193e-09 1.6747e-08)
(-2.2392e-05 6.7059e-10 -3.9494e-09)
(-2.2412e-05 -6.1241e-08 -2.5151e-08)
(-2.2363e-05 -2.7979e-07 1.0513e-09)
(-2.0553e-05 5.478e-07 3.5784e-06)
(-2.0414e-05 1.2829e-06 3.1083e-06)
(-2.0543e-05 2.1704e-06 2.9685e-06)
(-2.0681e-05 2.8074e-06 2.809e-06)
(-2.0543e-05 2.9672e-06 2.1721e-06)
(-2.0415e-05 3.1071e-06 1.2846e-06)
(-2.0553e-05 3.5773e-06 5.4947e-07)
(-2.0696e-05 3.8875e-06 9.2546e-10)
(-1.6917e-05 1.0439e-06 6.7204e-06)
(-1.666e-05 2.3785e-06 5.7443e-06)
(-1.6906e-05 4.033e-06 5.5211e-06)
(-1.7231e-05 5.3811e-06 5.3823e-06)
(-1.6906e-05 5.52e-06 4.0343e-06)
(-1.666e-05 5.7434e-06 2.3798e-06)
(-1.6918e-05 6.7197e-06 1.0452e-06)
(-1.7248e-05 7.5582e-06 7.0175e-10)
(-9.7389e-06 8.3064e-07 5.1495e-06)
(-9.5927e-06 1.8648e-06 4.5008e-06)
(-9.7325e-06 3.063e-06 4.2417e-06)
(-9.8759e-06 3.963e-06 3.9636e-06)
(-9.7325e-06 4.2411e-06 3.0637e-06)
(-9.5928e-06 4.5004e-06 1.8654e-06)
(-9.739e-06 5.1491e-06 8.3128e-07)
(-9.8853e-06 5.5823e-06 3.6955e-10)
(-1.6371e-08 -3.322e-08 4.0752e-08)
(-4.6367e-12 1.6451e-12 4.3229e-12)
(-1.6065e-08 5.2351e-08 6.2033e-09)
(-2.934e-12 -9.5498e-13 -9.5461e-13)
(-1.6064e-08 6.2019e-09 5.2353e-08)
(-4.6367e-12 4.3228e-12 1.6453e-12)
(-1.6372e-08 4.0753e-08 -3.3219e-08)
(-3.9632e-12 2.2441e-12 1.4018e-16)
(-3.8009e-05 2.4478e-05 -4.8454e-06)
(-3.8698e-05 3.0411e-05 -6.0044e-06)
(-3.8025e-05 2.3089e-05 -9.5601e-06)
(-3.8724e-05 2.864e-05 -1.185e-05)
(-3.801e-05 2.0869e-05 -1.397e-05)
(-3.8704e-05 2.5882e-05 -1.7332e-05)
(-3.7995e-05 1.7814e-05 -1.7814e-05)
(-3.8683e-05 2.2109e-05 -2.2111e-05)
(-3.801e-05 1.3969e-05 -2.087e-05)
(-3.8704e-05 1.7331e-05 -2.5883e-05)
(-3.8025e-05 9.5589e-06 -2.309e-05)
(-3.8724e-05 1.1848e-05 -2.8641e-05)
(-3.8009e-05 4.8442e-06 -2.4478e-05)
(-3.8698e-05 6.0032e-06 -3.0411e-05)
(-3.7993e-05 -7.761e-10 -2.4962e-05)
(-3.8675e-05 -9.6451e-10 -3.1047e-05)
(-3.6855e-05 1.9258e-05 -3.827e-06)
(-3.6863e-05 1.8197e-05 -7.5472e-06)
(-3.6854e-05 1.6462e-05 -1.1008e-05)
(-3.6843e-05 1.4032e-05 -1.4033e-05)
(-3.6854e-05 1.1007e-05 -1.6463e-05)
(-3.6863e-05 7.5462e-06 -1.8198e-05)
(-3.6855e-05 3.826e-06 -1.9259e-05)
(-3.6844e-05 -1.2613e-09 -1.9611e-05)
(-3.5226e-05 1.4762e-05 -2.9118e-06)
(-3.524e-05 1.3942e-05 -5.7713e-06)
(-3.5223e-05 1.2629e-05 -8.4653e-06)
(-3.5206e-05 1.0794e-05 -1.0794e-05)
(-3.5223e-05 8.4645e-06 -1.263e-05)
(-3.524e-05 5.7705e-06 -1.3942e-05)
(-3.5226e-05 2.911e-06 -1.4762e-05)
(-3.5211e-05 -7.8329e-10 -1.5038e-05)
(-3.3163e-05 1.0838e-05 -2.0883e-06)
(-3.3169e-05 1.0177e-05 -4.2023e-06)
(-3.3157e-05 9.2706e-06 -6.2595e-06)
(-3.3144e-05 7.9973e-06 -7.9978e-06)
(-3.3157e-05 6.2589e-06 -9.2711e-06)
(-3.3168e-05 4.2018e-06 -1.0178e-05)
(-3.3163e-05 2.0878e-06 -1.0838e-05)
(-3.3153e-05 -1.2646e-09 -1.1094e-05)
(-3.0685e-05 7.2087e-06 -1.3204e-06)
(-3.0648e-05 6.6521e-06 -2.7489e-06)
(-3.0676e-05 6.1454e-06 -4.2324e-06)
(-3.0707e-05 5.4475e-06 -5.4477e-06)
(-3.0676e-05 4.2322e-06 -6.1457e-06)
(-3.0648e-05 2.7486e-06 -6.6523e-06)
(-3.0685e-05 1.3202e-06 -7.2089e-06)
(-3.0721e-05 -1.1846e-09 -7.5123e-06)
(-2.7774e-05 3.4335e-06 -5.7127e-07)
(-2.7702e-05 3.0477e-06 -1.2632e-06)
(-2.7763e-05 2.9276e-06 -2.0901e-06)
(-2.7844e-05 2.7783e-06 -2.7783e-06)
(-2.7763e-05 2.09e-06 -2.9276e-06)
(-2.7702e-05 1.2632e-06 -3.0476e-06)
(-2.7773e-05 5.7126e-07 -3.4333e-06)
(-2.7859e-05 -1.0715e-09 -3.7616e-06)
(-2.4755e-05 1.582e-07 8.1049e-09)
(-2.4732e-05 1.4278e-07 -6.0612e-08)
(-2.4746e-05 1.8782e-07 -1.7182e-07)
(-2.4752e-05 2.1279e-07 -2.126e-07)
(-2.4746e-05 1.7195e-07 -1.8753e-07)
(-2.4732e-05 6.0729e-08 -1.4235e-07)
(-2.4755e-05 -7.9717e-09 -1.5766e-07)
(-2.4765e-05 -9.4212e-10 -1.5955e-07)
(-2.2412e-05 -6.1138e-08 2.7261e-08)
(-2.2392e-05 8.5043e-10 6.0381e-09)
(-2.2403e-05 6.434e-09 -1.4726e-08)
(-2.2352e-05 -1.1671e-07 1.1701e-07)
(-2.2403e-05 1.4958e-08 -6.0104e-09)
(-2.2392e-05 -5.829e-09 -2.7203e-10)
(-2.2412e-05 -2.7049e-08 6.1871e-08)
(-2.2363e-05 -7.9736e-10 2.8066e-07)
(-2.0553e-05 3.5774e-06 -5.4763e-07)
(-2.0415e-05 3.1072e-06 -1.2828e-06)
(-2.0543e-05 2.9673e-06 -2.1704e-06)
(-2.0682e-05 2.8076e-06 -2.8073e-06)
(-2.0543e-05 2.1706e-06 -2.9669e-06)
(-2.0415e-05 1.283e-06 -3.1066e-06)
(-2.0553e-05 5.4787e-07 -3.5767e-06)
(-2.0697e-05 -6.4376e-10 -3.8867e-06)
(-1.6918e-05 6.7198e-06 -1.0438e-06)
(-1.666e-05 5.7435e-06 -2.3784e-06)
(-1.6907e-05 5.5203e-06 -4.033e-06)
(-1.7231e-05 5.3814e-06 -5.3811e-06)
(-1.6907e-05 4.0332e-06 -5.5199e-06)
(-1.666e-05 2.3786e-06 -5.7431e-06)
(-1.6918e-05 1.044e-06 -6.7193e-06)
(-1.7248e-05 -4.5671e-10 -7.5577e-06)
(-9.7391e-06 5.1492e-06 -8.3055e-07)
(-9.5929e-06 4.5005e-06 -1.8647e-06)
(-9.7327e-06 4.2413e-06 -3.063e-06)
(-9.8762e-06 3.9632e-06 -3.963e-06)
(-9.7327e-06 3.0632e-06 -4.2411e-06)
(-9.5929e-06 1.8649e-06 -4.5003e-06)
(-9.7392e-06 8.3068e-07 -5.149e-06)
(-9.8854e-06 -2.2615e-10 -5.582e-06)
(-1.6371e-08 4.0751e-08 3.3221e-08)
(-4.6368e-12 4.3228e-12 -1.645e-12)
(-1.6066e-08 6.204e-09 -5.2353e-08)
(-2.9341e-12 -9.5483e-13 9.5487e-13)
(-1.6066e-08 5.2353e-08 -6.2032e-09)
(-4.6368e-12 1.6451e-12 -4.3227e-12)
(-1.6372e-08 -3.3221e-08 -4.0753e-08)
(-3.9633e-12 -8.0869e-17 -2.244e-12)
(-3.8009e-05 -4.8465e-06 -2.4478e-05)
(-3.8698e-05 -6.0051e-06 -3.0411e-05)
(-3.8025e-05 -9.5611e-06 -2.309e-05)
(-3.8724e-05 -1.185e-05 -2.8641e-05)
(-3.8011e-05 -1.3971e-05 -2.087e-05)
(-3.8704e-05 -1.7333e-05 -2.5883e-05)
(-3.7996e-05 -1.7815e-05 -1.7814e-05)
(-3.8684e-05 -2.2111e-05 -2.211e-05)
(-3.8011e-05 -2.0871e-05 -1.3969e-05)
(-3.8704e-05 -2.5883e-05 -1.7332e-05)
(-3.8026e-05 -2.309e-05 -9.5596e-06)
(-3.8724e-05 -2.8641e-05 -1.1849e-05)
(-3.8009e-05 -2.4478e-05 -4.845e-06)
(-3.8699e-05 -3.0411e-05 -6.0041e-06)
(-3.6855e-05 -3.8285e-06 -1.9259e-05)
(-3.6863e-05 -7.5486e-06 -1.8198e-05)
(-3.6854e-05 -1.1009e-05 -1.6463e-05)
(-3.6843e-05 -1.4034e-05 -1.4032e-05)
(-3.6854e-05 -1.6464e-05 -1.1007e-05)
(-3.6864e-05 -1.8198e-05 -7.5467e-06)
(-3.6855e-05 -1.9259e-05 -3.8267e-06)
(-3.5226e-05 -2.9136e-06 -1.4762e-05)
(-3.524e-05 -5.773e-06 -1.3942e-05)
(-3.5223e-05 -8.4668e-06 -1.263e-05)
(-3.5207e-05 -1.0796e-05 -1.0793e-05)
(-3.5223e-05 -1.2631e-05 -8.4647e-06)
(-3.524e-05 -1.3943e-05 -5.7708e-06)
(-3.5227e-05 -1.4763e-05 -2.9114e-06)
(-3.3163e-05 -2.0904e-06 -1.0838e-05)
(-3.3168e-05 -4.2042e-06 -1.0177e-05)
(-3.3157e-05 -6.2611e-06 -9.2705e-06)
(-3.3144e-05 -7.9992e-06 -7.9972e-06)
(-3.3157e-05 -9.2722e-06 -6.2588e-06)
(-3.3169e-05 -1.0178e-05 -4.2018e-06)
(-3.3163e-05 -1.0839e-05 -2.088e-06)
(-3.0685e-05 -1.3225e-06 -7.2087e-06)
(-3.0648e-05 -2.7508e-06 -6.6518e-06)
(-3.0676e-05 -4.2341e-06 -6.145e-06)
(-3.0707e-05 -5.4491e-06 -5.447e-06)
(-3.0676e-05 -6.1468e-06 -4.2317e-06)
(-3.0648e-05 -6.6532e-06 -2.7483e-06)
(-3.0685e-05 -7.2097e-06 -1.3201e-06)
(-2.7773e-05 -5.7336e-07 -3.433e-06)
(-2.7702e-05 -1.2651e-06 -3.047e-06)
(-2.7763e-05 -2.0917e-06 -2.9268e-06)
(-2.7844e-05 -2.7797e-06 -2.7775e-06)
(-2.7763e-05 -2.9287e-06 -2.0893e-06)
(-2.7702e-05 -3.0485e-06 -1.2626e-06)
(-2.7773e-05 -3.4341e-06 -5.7094e-07)
(-2.4755e-05 6.147e-09 -1.5732e-07)
(-2.4732e-05 -6.2391e-08 -1.4174e-07)
(-2.4746e-05 -1.7335e-07 -1.8677e-07)
(-2.4752e-05 -2.1388e-07 -2.1181e-07)
(-2.4746e-05 -1.886e-07 -1.7107e-07)
(-2.4732e-05 -1.4329e-07 -6.0019e-08)
(-2.4755e-05 -1.5855e-07 8.4447e-09)
(-2.2412e-05 2.5507e-08 6.2208e-08)
(-2.2392e-05 4.4463e-09 3.2177e-10)
(-2.2403e-05 -1.6093e-08 -5.2982e-09)
(-2.2351e-05 1.1587e-07 1.1774e-07)
(-2.2403e-05 -6.9906e-09 -1.4046e-08)
(-2.2392e-05 -1.1694e-09 6.592e-09)
(-2.2411e-05 6.0973e-08 2.759e-08)
(-2.0553e-05 -5.491e-07 -3.5764e-06)
(-2.0415e-05 -1.2841e-06 -3.1062e-06)
(-2.0543e-05 -2.1715e-06 -2.9663e-06)
(-2.0681e-05 -2.8082e-06 -2.8067e-06)
(-2.0543e-05 -2.9677e-06 -2.1698e-06)
(-2.0414e-05 -3.1074e-06 -1.2823e-06)
(-2.0553e-05 -3.5775e-06 -5.4735e-07)
(-1.6918e-05 -1.0449e-06 -6.7191e-06)
(-1.666e-05 -2.3794e-06 -5.7428e-06)
(-1.6906e-05 -4.0338e-06 -5.5195e-06)
(-1.7231e-05 -5.3818e-06 -5.3806e-06)
(-1.6906e-05 -5.5205e-06 -4.0326e-06)
(-1.666e-05 -5.7437e-06 -2.3781e-06)
(-1.6917e-05 -6.7198e-06 -1.0436e-06)
(-9.7391e-06 -8.3111e-07 -5.1489e-06)
(-9.5928e-06 -1.8652e-06 -4.5001e-06)
(-9.7326e-06 -3.0635e-06 -4.2409e-06)
(-9.876e-06 -3.9634e-06 -3.9628e-06)
(-9.7325e-06 -4.2414e-06 -3.0628e-06)
(-9.5927e-06 -4.5005e-06 -1.8646e-06)
(-9.7389e-06 -5.1492e-06 -8.3046e-07)
(-1.6373e-08 3.3219e-08 -4.0752e-08)
(-4.6368e-12 -1.6452e-12 -4.3228e-12)
(-1.6064e-08 -5.2353e-08 -6.2017e-09)
(-2.934e-12 9.5474e-13 9.5515e-13)
(-1.6066e-08 -6.2042e-09 -5.2353e-08)
(-4.6367e-12 -4.3229e-12 -1.6451e-12)
(-1.637e-08 -4.075e-08 3.3221e-08)
)
;
    }
    procBoundary3to2
    {
        type            processor;
    }
}


// ************************************************************************* //
