/*--------------------------------*- C++ -*----------------------------------*\
| =========                 |                                                 |
| \\      /  F ield         | foam-extend: Open Source CFD                    |
|  \\    /   O peration     | Version:     4.1-20200408                       |
|   \\  /    A nd           | Web:         http://www.foam-extend.org         |
|    \\/     M anipulation  |                                                 |
\*---------------------------------------------------------------------------*/
FoamFile
{
    version     2.0;
    format      ascii;
    class       volScalarField;
    location    "0.0655000";
    object      ccx;
}
// * * * * * * * * * * * * * * * * * * * * * * * * * * * * * * * * * * * * * //

dimensions      [0 1 0 0 0 0 0];

internalField   nonuniform List<scalar> 
1952
(
0.0028945
0.00289434
0.00289412
0.00289382
0.00289347
0.00289306
0.00289261
0.00289213
0.00289164
0.00289115
0.00289068
0.00289027
0.00288993
0.0028897
0.00288957
0.00289458
0.00276391
0.0027636
0.00276315
0.00276256
0.00276186
0.00276104
0.00276014
0.00275918
0.0027582
0.00275721
0.00275628
0.00275546
0.00275478
0.00275431
0.00275404
0.00276408
0.00271375
0.00271344
0.00271299
0.0027124
0.00271169
0.00271088
0.00270998
0.00270902
0.00270803
0.00270705
0.00270612
0.00270529
0.00270461
0.00270414
0.00270387
0.00271392
0.00266359
0.00266328
0.00266283
0.00266224
0.00266153
0.00266072
0.00265982
0.00265886
0.00265787
0.00265688
0.00265595
0.00265512
0.00265444
0.00265397
0.0026537
0.00266376
0.00261343
0.00261312
0.00261267
0.00261208
0.00261137
0.00261055
0.00260965
0.00260869
0.0026077
0.00260671
0.00260578
0.00260495
0.00260427
0.0026038
0.00260353
0.00261359
0.00256327
0.00256296
0.00256251
0.00256192
0.00256121
0.00256039
0.00255949
0.00255853
0.00255753
0.00255655
0.00255561
0.00255478
0.0025541
0.00255363
0.00255335
0.00256343
0.00251311
0.0025128
0.00251235
0.00251176
0.00251104
0.00251022
0.00250932
0.00250836
0.00250737
0.00250638
0.00250545
0.00250461
0.00250393
0.00250346
0.00250318
0.00251327
0.00246295
0.00246264
0.00246218
0.00246159
0.00246088
0.00246006
0.00245915
0.00245819
0.0024572
0.00245621
0.00245528
0.00245444
0.00245376
0.00245329
0.00245301
0.00246311
0.00241278
0.00241247
0.00241202
0.00241143
0.00241071
0.00240989
0.00240899
0.00240803
0.00240703
0.00240605
0.00240511
0.00240427
0.00240359
0.00240311
0.00240284
0.00241295
0.00236262
0.00236231
0.00236185
0.00236126
0.00236055
0.00235973
0.00235882
0.00235786
0.00235687
0.00235588
0.00235494
0.0023541
0.00235342
0.00235294
0.00235267
0.00236278
0.00231246
0.00231215
0.00231169
0.00231109
0.00231038
0.00230956
0.00230865
0.00230769
0.0023067
0.00230571
0.00230477
0.00230393
0.00230325
0.00230277
0.00230249
0.00231262
0.00226229
0.00226198
0.00226152
0.00226093
0.00226021
0.00225939
0.00225849
0.00225752
0.00225653
0.00225554
0.00225459
0.00225376
0.00225308
0.0022526
0.00225232
0.00226246
0.00221213
0.00221182
0.00221136
0.00221076
0.00221005
0.00220923
0.00220832
0.00220735
0.00220636
0.00220537
0.00220442
0.00220358
0.0022029
0.00220243
0.00220215
0.00221229
0.00216196
0.00216165
0.00216119
0.0021606
0.00215988
0.00215906
0.00215815
0.00215718
0.00215619
0.00215519
0.00215425
0.00215341
0.00215273
0.00215225
0.00215198
0.00216213
0.00211179
0.00211148
0.00211103
0.00211043
0.00210971
0.00210889
0.00210798
0.00210701
0.00210602
0.00210502
0.00210408
0.00210324
0.00210256
0.00210208
0.0021018
0.00211196
0.00206163
0.00206132
0.00206086
0.00206026
0.00205954
0.00205872
0.00205781
0.00205684
0.00205584
0.00205485
0.00205391
0.00205307
0.00205238
0.00205191
0.00205163
0.00206179
0.00201146
0.00201115
0.00201069
0.00201009
0.00200937
0.00200855
0.00200764
0.00200667
0.00200567
0.00200468
0.00200373
0.00200289
0.00200221
0.00200173
0.00200145
0.00201163
0.00196129
0.00196098
0.00196052
0.00195992
0.0019592
0.00195838
0.00195747
0.0019565
0.0019555
0.0019545
0.00195356
0.00195272
0.00195203
0.00195156
0.00195128
0.00196146
0.00191112
0.00191081
0.00191035
0.00190975
0.00190903
0.00190821
0.0019073
0.00190633
0.00190533
0.00190433
0.00190339
0.00190254
0.00190186
0.00190138
0.0019011
0.00191129
0.00186095
0.00186064
0.00186018
0.00185958
0.00185886
0.00185804
0.00185713
0.00185616
0.00185515
0.00185415
0.00185321
0.00185237
0.00185168
0.00185121
0.00185093
0.00186112
0.00181079
0.00181047
0.00181001
0.00180941
0.00180869
0.00180787
0.00180696
0.00180599
0.00180498
0.00180398
0.00180304
0.00180219
0.00180151
0.00180103
0.00180075
0.00181095
0.00176062
0.00176031
0.00175984
0.00175924
0.00175852
0.00175769
0.00175678
0.00175581
0.00175481
0.00175381
0.00175286
0.00175202
0.00175133
0.00175085
0.00175057
0.00176079
0.00171045
0.00171014
0.00170967
0.00170907
0.00170835
0.00170752
0.00170661
0.00170564
0.00170463
0.00170363
0.00170268
0.00170184
0.00170115
0.00170067
0.00170039
0.00171062
0.00166028
0.00165997
0.0016595
0.0016589
0.00165818
0.00165735
0.00165644
0.00165546
0.00165446
0.00165346
0.00165251
0.00165166
0.00165097
0.0016505
0.00165022
0.00166045
0.00161011
0.0016098
0.00160933
0.00160873
0.00160801
0.00160718
0.00160626
0.00160529
0.00160428
0.00160328
0.00160233
0.00160149
0.0016008
0.00160032
0.00160004
0.00161028
0.00155994
0.00155963
0.00155916
0.00155857
0.00155784
0.00155701
0.00155609
0.00155512
0.00155411
0.0015531
0.00155215
0.00155131
0.00155062
0.00155014
0.00154986
0.00156011
0.00150977
0.00150946
0.001509
0.0015084
0.00150767
0.00150684
0.00150592
0.00150494
0.00150393
0.00150293
0.00150198
0.00150113
0.00150044
0.00149996
0.00149968
0.00150994
0.00145961
0.00145929
0.00145883
0.00145823
0.0014575
0.00145666
0.00145575
0.00145477
0.00145376
0.00145275
0.0014518
0.00145095
0.00145026
0.00144978
0.0014495
0.00145977
0.00140944
0.00140912
0.00140866
0.00140806
0.00140733
0.00140649
0.00140557
0.00140459
0.00140358
0.00140257
0.00140162
0.00140077
0.00140008
0.0013996
0.00139932
0.00140961
0.00135927
0.00135896
0.00135849
0.00135789
0.00135716
0.00135632
0.0013554
0.00135442
0.00135341
0.0013524
0.00135144
0.00135059
0.0013499
0.00134941
0.00134913
0.00135944
0.00130911
0.00130879
0.00130832
0.00130772
0.00130699
0.00130615
0.00130523
0.00130425
0.00130323
0.00130222
0.00130126
0.00130041
0.00129972
0.00129923
0.00129895
0.00130927
0.00125894
0.00125862
0.00125815
0.00125755
0.00125682
0.00125598
0.00125505
0.00125407
0.00125305
0.00125204
0.00125108
0.00125023
0.00124953
0.00124905
0.00124876
0.00125911
0.00120877
0.00120845
0.00120798
0.00120738
0.00120665
0.00120581
0.00120488
0.0012039
0.00120288
0.00120186
0.0012009
0.00120004
0.00119934
0.00119886
0.00119857
0.00120894
0.0011586
0.00115828
0.00115782
0.00115721
0.00115648
0.00115564
0.00115471
0.00115372
0.0011527
0.00115169
0.00115072
0.00114986
0.00114916
0.00114867
0.00114838
0.00115877
0.00110844
0.00110812
0.00110765
0.00110704
0.00110631
0.00110547
0.00110454
0.00110355
0.00110253
0.00110151
0.00110054
0.00109967
0.00109897
0.00109848
0.00109819
0.0011086
0.00105827
0.00105795
0.00105748
0.00105687
0.00105614
0.0010553
0.00105437
0.00105338
0.00105235
0.00105133
0.00105036
0.00104949
0.00104879
0.00104829
0.001048
0.00105844
0.0010081
0.00100778
0.00100731
0.0010067
0.00100597
0.00100513
0.0010042
0.0010032
0.00100218
0.00100115
0.00100018
0.000999307
0.000998597
0.000998097
0.0009978
0.00100827
0.000957922
0.000957606
0.000957135
0.000956527
0.000955793
0.00095495
0.000954019
0.000953024
0.000951997
0.000950971
0.000949995
0.000949122
0.000948407
0.000947903
0.000947602
0.000958092
0.000907744
0.000907428
0.000906958
0.000906351
0.000905617
0.000904774
0.000903842
0.000902847
0.000901819
0.000900791
0.000899812
0.000898935
0.000898217
0.000897707
0.0008974
0.000907913
0.000857559
0.000857244
0.000856774
0.000856168
0.000855436
0.000854593
0.000853662
0.000852668
0.000851639
0.00085061
0.000849628
0.000848748
0.000848024
0.000847509
0.000847194
0.000857728
0.000807366
0.000807052
0.000806584
0.00080598
0.000805249
0.000804409
0.00080348
0.000802486
0.000801457
0.000800428
0.000799445
0.00079856
0.000797832
0.000797309
0.000796986
0.000807534
0.000757164
0.000756851
0.000756385
0.000755784
0.000755056
0.000754219
0.000753293
0.000752302
0.000751275
0.000750246
0.000749261
0.000748374
0.00074764
0.00074711
0.000746777
0.000757331
0.000706948
0.000706637
0.000706174
0.000705576
0.000704852
0.00070402
0.000703098
0.000702112
0.000701088
0.000700061
0.000699077
0.000698187
0.000697448
0.000696909
0.000696564
0.000707114
0.000656715
0.000656406
0.000655947
0.000655353
0.000654635
0.000653809
0.000652894
0.000651914
0.000650896
0.000649874
0.000648892
0.000648001
0.000647257
0.000646709
0.00064635
0.000656879
0.000606461
0.000606156
0.000605701
0.000605113
0.000604402
0.000603584
0.000602678
0.000601706
0.000600697
0.000599681
0.000598705
0.000597816
0.000597069
0.000596511
0.000596134
0.000606625
0.000556183
0.000555882
0.000555432
0.000554852
0.000554149
0.000553341
0.000552445
0.000551484
0.000550486
0.000549481
0.000548513
0.000547629
0.000546882
0.000546317
0.000545919
0.000556345
0.000505877
0.00050558
0.000505137
0.000504565
0.000503872
0.000503075
0.000502193
0.000501246
0.000500261
0.000499269
0.000498313
0.000497438
0.000496695
0.000496124
0.000495708
0.000506036
0.00045554
0.000455247
0.000454812
0.000454249
0.000453568
0.000452784
0.000451916
0.000450986
0.000450018
0.000449042
0.000448101
0.000447239
0.000446503
0.000445932
0.000445504
0.000455696
0.000405167
0.00040488
0.000404452
0.0004039
0.000403231
0.000402463
0.000401611
0.000400699
0.000399751
0.000398796
0.000397874
0.000397029
0.000396306
0.00039574
0.000395308
0.000405321
0.000354756
0.000354475
0.000354055
0.000353514
0.000352859
0.000352108
0.000351276
0.000350384
0.000349459
0.000348528
0.00034763
0.000346807
0.000346104
0.00034555
0.000345125
0.000354907
0.000304307
0.000304032
0.000303622
0.000303092
0.000302453
0.000301719
0.000300908
0.000300041
0.000299141
0.000298238
0.00029737
0.000296577
0.000295902
0.000295369
0.000294959
0.000304455
0.000253819
0.000253551
0.00025315
0.000252634
0.000252011
0.000251296
0.000250507
0.000249666
0.000248795
0.000247925
0.000247092
0.000246337
0.000245699
0.000245199
0.00024482
0.000253964
0.000203295
0.000203033
0.000202643
0.00020214
0.000201534
0.000200839
0.000200074
0.000199261
0.000198422
0.000197589
0.000196796
0.000196087
0.000195498
0.000195047
0.000194724
0.000203436
0.000152738
0.000152484
0.000152104
0.000151616
0.000151027
0.000150354
0.000149614
0.000148829
0.000148025
0.000147231
0.000146485
0.00014583
0.000145304
0.000144932
0.000144701
0.000152876
0.000102153
0.000101906
0.000101538
0.000101064
0.000100494
9.98435e-05
9.91291e-05
9.83747e-05
9.76072e-05
9.68574e-05
9.61655e-05
9.5577e-05
9.51365e-05
9.48748e-05
9.47816e-05
0.000102287
5.15467e-05
5.13075e-05
5.09504e-05
5.04923e-05
4.99429e-05
4.93165e-05
4.86327e-05
4.79141e-05
4.71892e-05
4.64926e-05
4.58667e-05
4.53615e-05
4.50284e-05
4.49065e-05
4.49897e-05
5.16765e-05
9.30046e-07
7.00307e-07
3.57687e-07
-8.11675e-08
-6.05702e-07
-1.19969e-06
-1.84509e-06
-2.51741e-06
-3.18772e-06
-3.81901e-06
-4.36481e-06
-4.77083e-06
-4.97862e-06
-4.93987e-06
-4.65447e-06
1.05505e-06
-4.96695e-05
-4.98858e-05
-5.02082e-05
-5.06202e-05
-5.111e-05
-5.16621e-05
-5.22569e-05
-5.2871e-05
-5.34735e-05
-5.40265e-05
-5.44794e-05
-5.47741e-05
-5.4845e-05
-5.46362e-05
-5.4139e-05
-4.95513e-05
-0.000100201
-0.000100399
-0.000100694
-0.00010107
-0.000101515
-0.000102014
-0.000102547
-0.000103091
-0.000103615
-0.000104079
-0.000104429
-0.000104606
-0.000104536
-0.000104159
-0.000103456
-0.000100093
-0.000150601
-0.000150776
-0.000151038
-0.00015137
-0.000151762
-0.000152199
-0.000152661
-0.000153127
-0.000153564
-0.000153933
-0.000154178
-0.000154235
-0.000154029
-0.000153493
-0.000152605
-0.000150504
-0.000200801
-0.000200952
-0.000201176
-0.000201461
-0.000201795
-0.000202165
-0.000202554
-0.000202937
-0.000203284
-0.000203556
-0.000203696
-0.00020364
-0.000203309
-0.000202635
-0.00020159
-0.000200718
-0.000250739
-0.000250865
-0.000251053
-0.000251289
-0.000251566
-0.00025187
-0.000252184
-0.000252485
-0.000252745
-0.000252924
-0.000252966
-0.000252806
-0.000252367
-0.000251579
-0.000250413
-0.000250669
-0.000300365
-0.000300469
-0.000300622
-0.000300814
-0.000301038
-0.000301279
-0.000301523
-0.000301748
-0.000301927
-0.000302019
-0.000301973
-0.000301725
-0.000301198
-0.000300326
-0.000299077
-0.000300307
-0.000349652
-0.000349736
-0.000349859
-0.000350013
-0.000350189
-0.000350375
-0.000350556
-0.000350713
-0.000350818
-0.000350836
-0.000350715
-0.000350395
-0.000349804
-0.000348878
-0.000347588
-0.000349605
-0.000398595
-0.000398662
-0.000398761
-0.000398881
-0.000399016
-0.000399153
-0.00039928
-0.000399377
-0.000399421
-0.000399375
-0.000399194
-0.000398822
-0.000398191
-0.000397244
-0.000395953
-0.000398558
-0.000447207
-0.00044726
-0.000447336
-0.000447427
-0.000447526
-0.000447622
-0.000447703
-0.00044775
-0.000447742
-0.000447645
-0.00044742
-0.000447013
-0.000446367
-0.00044543
-0.000444177
-0.000447178
-0.000495513
-0.000495552
-0.000495608
-0.000495673
-0.00049574
-0.0004958
-0.000495841
-0.000495846
-0.000495795
-0.00049566
-0.000495404
-0.000494981
-0.000494342
-0.000493444
-0.000492265
-0.000495492
-0.00054355
-0.000543575
-0.000543611
-0.000543651
-0.000543688
-0.000543715
-0.00054372
-0.000543689
-0.000543604
-0.000543439
-0.000543165
-0.000542743
-0.000542133
-0.0005413
-0.000540223
-0.000543535
-0.00059135
-0.000591363
-0.00059138
-0.000591396
-0.000591405
-0.0005914
-0.000591371
-0.000591308
-0.000591193
-0.000591007
-0.000590725
-0.000590318
-0.000589755
-0.000589007
-0.000588056
-0.000591343
-0.000638948
-0.000638949
-0.000638949
-0.000638942
-0.000638924
-0.000638888
-0.000638829
-0.000638735
-0.000638594
-0.000638392
-0.000638109
-0.000637726
-0.000637223
-0.000636578
-0.000635766
-0.000638946
-0.000686373
-0.000686364
-0.000686349
-0.000686322
-0.000686278
-0.000686215
-0.000686127
-0.000686005
-0.00068584
-0.000685624
-0.000685344
-0.000684993
-0.000684557
-0.00068402
-0.000683354
-0.000686376
-0.000733648
-0.000733631
-0.000733602
-0.000733558
-0.000733495
-0.000733409
-0.000733297
-0.000733153
-0.00073297
-0.000732745
-0.000732472
-0.000732152
-0.00073178
-0.000731343
-0.000730817
-0.000733656
-0.000780799
-0.000780774
-0.000780734
-0.000780678
-0.000780602
-0.000780504
-0.000780379
-0.000780223
-0.000780033
-0.000779808
-0.000779547
-0.000779252
-0.000778927
-0.000778568
-0.000778157
-0.000780811
-0.000827866
-0.000827835
-0.000827789
-0.000827726
-0.000827644
-0.000827539
-0.00082741
-0.000827252
-0.000827064
-0.000826846
-0.000826599
-0.000826326
-0.000826032
-0.000825725
-0.000825396
-0.00082788
-0.000874883
-0.000874851
-0.000874802
-0.000874735
-0.000874649
-0.000874542
-0.000874412
-0.000874256
-0.000874074
-0.000873866
-0.000873636
-0.000873384
-0.000873118
-0.000872847
-0.000872569
-0.000874899
-0.000921866
-0.000921833
-0.000921783
-0.000921714
-0.000921627
-0.00092152
-0.000921391
-0.00092124
-0.000921066
-0.000920871
-0.000920657
-0.000920429
-0.00092019
-0.000919948
-0.000919708
-0.000921883
-0.000968821
-0.000968788
-0.000968737
-0.000968669
-0.000968582
-0.000968477
-0.000968352
-0.000968208
-0.000968044
-0.000967863
-0.000967667
-0.000967459
-0.000967246
-0.000967033
-0.000966825
-0.000968838
-0.00101575
-0.00101572
-0.00101567
-0.0010156
-0.00101552
-0.00101542
-0.0010153
-0.00101516
-0.00101501
-0.00101484
-0.00101466
-0.00101448
-0.00101429
-0.0010141
-0.00101392
-0.00101577
-0.00106267
-0.00106264
-0.00106259
-0.00106253
-0.00106245
-0.00106235
-0.00106224
-0.00106211
-0.00106197
-0.00106181
-0.00106165
-0.00106149
-0.00106132
-0.00106115
-0.001061
-0.00106269
-0.00110957
-0.00110954
-0.0011095
-0.00110944
-0.00110936
-0.00110927
-0.00110916
-0.00110904
-0.00110891
-0.00110878
-0.00110863
-0.00110849
-0.00110834
-0.00110819
-0.00110806
-0.00110959
-0.00115647
-0.00115644
-0.0011564
-0.00115634
-0.00115626
-0.00115618
-0.00115608
-0.00115597
-0.00115586
-0.00115573
-0.0011556
-0.00115547
-0.00115534
-0.00115522
-0.0011551
-0.00115648
-0.00120335
-0.00120333
-0.00120329
-0.00120323
-0.00120317
-0.00120309
-0.001203
-0.0012029
-0.00120279
-0.00120268
-0.00120256
-0.00120245
-0.00120233
-0.00120222
-0.00120212
-0.00120336
-0.00125023
-0.00125021
-0.00125017
-0.00125012
-0.00125006
-0.00124999
-0.00124991
-0.00124982
-0.00124972
-0.00124962
-0.00124952
-0.00124942
-0.00124932
-0.00124922
-0.00124913
-0.00125024
-0.00129711
-0.00129708
-0.00129705
-0.00129701
-0.00129695
-0.00129689
-0.00129681
-0.00129673
-0.00129665
-0.00129656
-0.00129647
-0.00129638
-0.00129629
-0.0012962
-0.00129613
-0.00129712
-0.00134398
-0.00134396
-0.00134393
-0.00134389
-0.00134384
-0.00134378
-0.00134371
-0.00134364
-0.00134357
-0.00134349
-0.0013434
-0.00134332
-0.00134325
-0.00134317
-0.00134311
-0.00134399
-0.00139085
-0.00139083
-0.00139081
-0.00139077
-0.00139072
-0.00139067
-0.00139061
-0.00139055
-0.00139048
-0.00139041
-0.00139034
-0.00139027
-0.0013902
-0.00139013
-0.00139008
-0.00139087
-0.00143772
-0.0014377
-0.00143768
-0.00143765
-0.00143761
-0.00143756
-0.00143751
-0.00143745
-0.00143739
-0.00143733
-0.00143727
-0.0014372
-0.00143714
-0.00143708
-0.00143703
-0.00143774
-0.00148459
-0.00148457
-0.00148455
-0.00148453
-0.00148449
-0.00148445
-0.0014844
-0.00148435
-0.0014843
-0.00148424
-0.00148419
-0.00148413
-0.00148408
-0.00148403
-0.00148398
-0.0014846
-0.00153146
-0.00153144
-0.00153142
-0.0015314
-0.00153137
-0.00153133
-0.00153129
-0.00153124
-0.00153119
-0.00153115
-0.0015311
-0.00153105
-0.00153101
-0.00153096
-0.00153092
-0.00153147
-0.00157833
-0.00157831
-0.00157829
-0.00157827
-0.00157824
-0.00157821
-0.00157817
-0.00157813
-0.00157809
-0.00157805
-0.00157801
-0.00157797
-0.00157792
-0.00157788
-0.00157785
-0.00157834
-0.00162519
-0.00162518
-0.00162516
-0.00162514
-0.00162512
-0.00162509
-0.00162506
-0.00162502
-0.00162498
-0.00162495
-0.00162491
-0.00162487
-0.00162484
-0.0016248
-0.00162477
-0.0016252
-0.00167206
-0.00167205
-0.00167203
-0.00167201
-0.00167199
-0.00167196
-0.00167193
-0.00167191
-0.00167187
-0.00167184
-0.00167181
-0.00167178
-0.00167174
-0.00167171
-0.00167168
-0.00167206
-0.00171892
-0.00171891
-0.0017189
-0.00171888
-0.00171886
-0.00171884
-0.00171881
-0.00171878
-0.00171876
-0.00171873
-0.0017187
-0.00171867
-0.00171864
-0.00171861
-0.00171859
-0.00171892
-0.00176578
-0.00176577
-0.00176576
-0.00176575
-0.00176573
-0.00176571
-0.00176569
-0.00176566
-0.00176564
-0.00176561
-0.00176559
-0.00176556
-0.00176553
-0.00176551
-0.00176548
-0.00176578
-0.00181264
-0.00181263
-0.00181263
-0.00181261
-0.00181259
-0.00181258
-0.00181255
-0.00181254
-0.00181251
-0.00181249
-0.00181247
-0.00181244
-0.00181242
-0.0018124
-0.00181237
-0.00181264
-0.00185949
-0.00185949
-0.00185948
-0.00185947
-0.00185946
-0.00185944
-0.00185942
-0.0018594
-0.00185939
-0.00185937
-0.00185934
-0.00185932
-0.0018593
-0.00185928
-0.00185926
-0.0018595
-0.00190635
-0.00190634
-0.00190633
-0.00190632
-0.00190631
-0.0019063
-0.00190628
-0.00190627
-0.00190625
-0.00190623
-0.00190621
-0.0019062
-0.00190618
-0.00190616
-0.00190614
-0.00190635
-0.0019532
-0.00195319
-0.00195319
-0.00195318
-0.00195317
-0.00195316
-0.00195314
-0.00195313
-0.00195311
-0.00195309
-0.00195308
-0.00195306
-0.00195305
-0.00195303
-0.00195301
-0.0019532
-0.00200005
-0.00200004
-0.00200004
-0.00200003
-0.00200002
-0.00200001
-0.002
-0.00199998
-0.00199997
-0.00199996
-0.00199994
-0.00199993
-0.00199991
-0.00199989
-0.00199988
-0.00200005
-0.00204689
-0.00204689
-0.00204688
-0.00204688
-0.00204687
-0.00204686
-0.00204685
-0.00204684
-0.00204682
-0.00204681
-0.0020468
-0.00204678
-0.00204677
-0.00204675
-0.00204674
-0.00204689
-0.00209373
-0.00209373
-0.00209373
-0.00209372
-0.00209371
-0.00209371
-0.0020937
-0.00209369
-0.00209367
-0.00209366
-0.00209365
-0.00209364
-0.00209362
-0.00209361
-0.00209359
-0.00209373
-0.00214057
-0.00214057
-0.00214056
-0.00214056
-0.00214056
-0.00214055
-0.00214054
-0.00214053
-0.00214052
-0.00214051
-0.0021405
-0.00214049
-0.00214048
-0.00214046
-0.00214045
-0.00214057
-0.00218741
-0.00218741
-0.0021874
-0.0021874
-0.00218739
-0.00218739
-0.00218738
-0.00218737
-0.00218737
-0.00218736
-0.00218735
-0.00218734
-0.00218732
-0.00218731
-0.00218729
-0.00218741
-0.00223424
-0.00223424
-0.00223424
-0.00223423
-0.00223423
-0.00223422
-0.00223421
-0.00223421
-0.0022342
-0.00223419
-0.00223419
-0.00223418
-0.00223417
-0.00223415
-0.00223414
-0.00223424
-0.00228107
-0.00228107
-0.00228106
-0.00228106
-0.00228106
-0.00228105
-0.00228105
-0.00228104
-0.00228103
-0.00228103
-0.00228102
-0.00228101
-0.002281
-0.00228099
-0.00228098
-0.00228107
-0.00232789
-0.00232789
-0.00232789
-0.00232789
-0.00232788
-0.00232788
-0.00232787
-0.00232787
-0.00232786
-0.00232786
-0.00232785
-0.00232784
-0.00232783
-0.00232782
-0.00232781
-0.00232789
-0.00237471
-0.00237471
-0.00237471
-0.00237471
-0.00237471
-0.0023747
-0.0023747
-0.00237469
-0.00237469
-0.00237468
-0.00237468
-0.00237467
-0.00237466
-0.00237465
-0.00237464
-0.00237471
-0.00242153
-0.00242153
-0.00242153
-0.00242153
-0.00242152
-0.00242152
-0.00242152
-0.00242151
-0.00242151
-0.00242151
-0.0024215
-0.00242149
-0.00242149
-0.00242148
-0.00242147
-0.00242153
-0.00246835
-0.00246835
-0.00246834
-0.00246834
-0.00246834
-0.00246834
-0.00246833
-0.00246833
-0.00246833
-0.00246832
-0.00246832
-0.00246831
-0.00246831
-0.0024683
-0.00246829
-0.00246835
-0.00251516
-0.00251516
-0.00251516
-0.00251515
-0.00251515
-0.00251515
-0.00251515
-0.00251515
-0.00251514
-0.00251514
-0.00251513
-0.00251513
-0.00251512
-0.00251511
-0.0025151
-0.00251516
-0.00256196
-0.00256196
-0.00256196
-0.00256196
-0.00256196
-0.00256196
-0.00256196
-0.00256195
-0.00256195
-0.00256195
-0.00256194
-0.00256194
-0.00256193
-0.00256193
-0.00256192
-0.00256196
-0.00260876
-0.00260876
-0.00260876
-0.00260876
-0.00260876
-0.00260876
-0.00260876
-0.00260876
-0.00260875
-0.00260875
-0.00260875
-0.00260874
-0.00260874
-0.00260873
-0.00260873
-0.00260876
-0.00265556
-0.00265556
-0.00265556
-0.00265556
-0.00265556
-0.00265556
-0.00265556
-0.00265556
-0.00265556
-0.00265555
-0.00265555
-0.00265555
-0.00265554
-0.00265554
-0.00265553
-0.00265556
-0.00270236
-0.00270236
-0.00270236
-0.00270236
-0.00270236
-0.00270236
-0.00270236
-0.00270236
-0.00270236
-0.00270235
-0.00270235
-0.00270235
-0.00270234
-0.00270234
-0.00270234
-0.00270236
-0.00274916
-0.00274916
-0.00274916
-0.00274916
-0.00274915
-0.00274915
-0.00274915
-0.00274915
-0.00274915
-0.00274915
-0.00274915
-0.00274915
-0.00274914
-0.00274914
-0.00274913
-0.00274916
-0.00279594
-0.00279594
-0.00279594
-0.00279594
-0.00279594
-0.00279594
-0.00279594
-0.00279594
-0.00279594
-0.00279594
-0.00279594
-0.00279594
-0.00279594
-0.00279593
-0.00279593
-0.00279594
-0.00284273
-0.00284273
-0.00284273
-0.00284273
-0.00284273
-0.00284273
-0.00284273
-0.00284273
-0.00284273
-0.00284273
-0.00284273
-0.00284273
-0.00284273
-0.00284272
-0.00284272
-0.00284273
-0.00288951
-0.00288951
-0.00288951
-0.00288951
-0.00288951
-0.00288951
-0.00288951
-0.00288951
-0.00288951
-0.00288951
-0.00288951
-0.00288951
-0.00288951
-0.00288951
-0.00288951
-0.00288951
-0.00293629
-0.00293629
-0.00293629
-0.00293629
-0.00293629
-0.00293629
-0.00293629
-0.00293629
-0.00293629
-0.00293629
-0.00293629
-0.00293629
-0.00293629
-0.00293629
-0.00293629
-0.00293629
-0.00298307
-0.00298307
-0.00298307
-0.00298307
-0.00298307
-0.00298307
-0.00298307
-0.00298307
-0.00298307
-0.00298307
-0.00298307
-0.00298307
-0.00298307
-0.00298307
-0.00298307
-0.00298307
-0.00302984
-0.00302985
-0.00302985
-0.00302984
-0.00302984
-0.00302985
-0.00302984
-0.00302984
-0.00302984
-0.00302985
-0.00302984
-0.00302985
-0.00302985
-0.00302984
-0.00302985
-0.00302984
-0.00307662
-0.00307661
-0.00307662
-0.00307661
-0.00307661
-0.00307662
-0.00307661
-0.00307661
-0.00307662
-0.00307661
-0.00307661
-0.00307662
-0.00307661
-0.00307661
-0.00307662
-0.00307661
)
;

boundaryField
{
    wireUpstream
    {
        type            calculated;
        value           nonuniform List<scalar> 
16
(
-0.0031
-0.0031
-0.0031
-0.0031
-0.0031
-0.0031
-0.0031
-0.0031
-0.0031
-0.0031
-0.0031
-0.0031
-0.0031
-0.0031
-0.0031
-0.0031
)
;
    }
    wireDownstream
    {
        type            calculated;
        value           nonuniform List<scalar> 
16
(
0.003
0.003
0.003
0.003
0.003
0.003
0.003
0.003
0.003
0.003
0.003
0.003
0.003
0.003
0.003
0.003
)
;
    }
    wireTopContact
    {
        type            calculated;
        value           nonuniform List<scalar> 
122
(
0.00275395
0.00270378
0.00265361
0.00260344
0.00255326
0.00250309
0.00245292
0.00240275
0.00235258
0.0023024
0.00225223
0.00220206
0.00215188
0.00210171
0.00205154
0.00200136
0.00195119
0.00190101
0.00185083
0.00180066
0.00175048
0.0017003
0.00165012
0.00159994
0.00154976
0.00149958
0.0014494
0.00139922
0.00134904
0.00129885
0.00124867
0.00119848
0.00114829
0.00109809
0.0010479
0.000997698
0.000947495
0.000897291
0.000847082
0.000796869
0.000746654
0.000696436
0.000646213
0.000595986
0.000545757
0.000495532
0.000445319
0.00039512
0.000344939
0.00029478
0.000244658
0.000194594
0.000144622
9.47768e-05
4.50815e-05
-4.45115e-06
-5.38196e-05
-0.000103026
-0.000152076
-0.000200978
-0.000249738
-0.000298361
-0.000346855
-0.000395225
-0.000443474
-0.000491606
-0.000539624
-0.000587527
-0.000635315
-0.000682984
-0.000730525
-0.000777932
-0.000825221
-0.000872428
-0.000919589
-0.000966723
-0.00101383
-0.00106092
-0.00110799
-0.00115504
-0.00120208
-0.0012491
-0.0012961
-0.00134308
-0.00139005
-0.00143701
-0.00148396
-0.0015309
-0.00157783
-0.00162475
-0.00167167
-0.00171857
-0.00176547
-0.00181236
-0.00185925
-0.00190613
-0.001953
-0.00199987
-0.00204673
-0.00209359
-0.00214044
-0.00218729
-0.00223413
-0.00228097
-0.00232781
-0.00237464
-0.00242146
-0.00246828
-0.0025151
-0.00256191
-0.00260872
-0.00265553
-0.00270233
-0.00274913
-0.00279593
-0.00284272
-0.00288951
-0.00293629
-0.00298307
-0.00302984
-0.00307661
0.00288952
)
;
    }
    front
    {
        type            wedge;
    }
    back
    {
        type            wedge;
    }
}


// ************************************************************************* //
