/*--------------------------------*- C++ -*----------------------------------*\
| =========                 |                                                 |
| \\      /  F ield         | foam-extend: Open Source CFD                    |
|  \\    /   O peration     | Version:     4.1-20200408                       |
|   \\  /    A nd           | Web:         http://www.foam-extend.org         |
|    \\/     M anipulation  |                                                 |
\*---------------------------------------------------------------------------*/
FoamFile
{
    version     2.0;
    format      ascii;
    class       volVectorField;
    location    "0.0655000";
    object      DU;
}
// * * * * * * * * * * * * * * * * * * * * * * * * * * * * * * * * * * * * * //

dimensions      [0 1 0 0 0 0 0];

internalField   nonuniform List<vector> 
1952
(
(4.99997e-05 -1.13856e-09 0)
(4.99997e-05 -1.76477e-09 0)
(4.99997e-05 -2.5954e-09 0)
(4.99998e-05 -3.15889e-09 0)
(4.99999e-05 -4.04343e-09 0)
(5e-05 -4.56656e-09 0)
(5.00001e-05 -5.45923e-09 0)
(5.00003e-05 -5.93959e-09 0)
(5.00005e-05 -6.7873e-09 0)
(5.00008e-05 -7.18071e-09 0)
(5.00013e-05 -7.90421e-09 0)
(5.00019e-05 -8.1212e-09 0)
(5.0003e-05 -8.55501e-09 0)
(5.00049e-05 -8.43403e-09 0)
(5.00087e-05 -8.20305e-09 0)
(4.99997e-05 -4.77834e-10 0)
(4.99996e-05 -6.02484e-10 0)
(4.99996e-05 -9.46556e-10 0)
(4.99997e-05 -1.35131e-09 0)
(4.99998e-05 -1.65781e-09 0)
(5e-05 -2.05707e-09 0)
(5.00001e-05 -2.31481e-09 0)
(5.00004e-05 -2.67665e-09 0)
(5.00006e-05 -2.8621e-09 0)
(5.0001e-05 -3.15509e-09 0)
(5.00014e-05 -3.24126e-09 0)
(5.0002e-05 -3.42801e-09 0)
(5.00027e-05 -3.36562e-09 0)
(5.00036e-05 -3.41077e-09 0)
(5.00047e-05 -3.2159e-09 0)
(5.0006e-05 -3.22e-09 0)
(4.99996e-05 -2.54975e-10 0)
(4.99997e-05 -4.35829e-10 0)
(4.99997e-05 -6.98304e-10 0)
(4.99998e-05 -9.66582e-10 0)
(4.99999e-05 -1.20116e-09 0)
(5.00001e-05 -1.44578e-09 0)
(5.00002e-05 -1.62849e-09 0)
(5.00005e-05 -1.82128e-09 0)
(5.00008e-05 -1.92549e-09 0)
(5.00012e-05 -2.04632e-09 0)
(5.00016e-05 -2.05362e-09 0)
(5.00023e-05 -2.0841e-09 0)
(5.0003e-05 -1.97729e-09 0)
(5.00039e-05 -1.93046e-09 0)
(5.00049e-05 -1.76842e-09 0)
(5.00062e-05 -1.73743e-09 0)
(4.99996e-05 -1.86473e-10 0)
(4.99999e-05 -2.86528e-10 0)
(4.99999e-05 -4.58388e-10 0)
(5.00001e-05 -6.24768e-10 0)
(5.00002e-05 -7.70197e-10 0)
(5.00004e-05 -9.05776e-10 0)
(5.00005e-05 -1.00007e-09 0)
(5.00009e-05 -1.08421e-09 0)
(5.00011e-05 -1.10655e-09 0)
(5.00016e-05 -1.12576e-09 0)
(5.0002e-05 -1.06544e-09 0)
(5.00027e-05 -1.01699e-09 0)
(5.00033e-05 -8.80744e-10 0)
(5.00042e-05 -8.00533e-10 0)
(5.0005e-05 -6.61163e-10 0)
(5.0006e-05 -6.75384e-10 0)
(4.99999e-05 -1.22857e-10 0)
(5.00002e-05 -1.57679e-10 0)
(5.00003e-05 -2.498e-10 0)
(5.00004e-05 -3.32929e-10 0)
(5.00005e-05 -4.00029e-10 0)
(5.00008e-05 -4.52452e-10 0)
(5.00009e-05 -4.73598e-10 0)
(5.00013e-05 -4.80787e-10 0)
(5.00016e-05 -4.41596e-10 0)
(5.00021e-05 -3.98018e-10 0)
(5.00025e-05 -2.98273e-10 0)
(5.00031e-05 -2.13531e-10 0)
(5.00037e-05 -7.48691e-11 0)
(5.00044e-05 7.16712e-12 0)
(5.00051e-05 1.17575e-10 0)
(5.00059e-05 1.09557e-10 0)
(5.00002e-05 -6.78294e-11 0)
(5.00007e-05 -5.06436e-11 0)
(5.00007e-05 -7.63485e-11 0)
(5.00009e-05 -9.29114e-11 0)
(5.0001e-05 -9.54909e-11 0)
(5.00013e-05 -8.50175e-11 0)
(5.00014e-05 -4.83609e-11 0)
(5.00018e-05 -1.99746e-12 0)
(5.00021e-05 8.17909e-11 0)
(5.00026e-05 1.63808e-10 0)
(5.00029e-05 2.87948e-10 0)
(5.00035e-05 3.89769e-10 0)
(5.0004e-05 5.26365e-10 0)
(5.00047e-05 6.05318e-10 0)
(5.00053e-05 6.96975e-10 0)
(5.00059e-05 6.8552e-10 0)
(5.00007e-05 -2.19938e-11 0)
(5.00012e-05 3.53409e-11 0)
(5.00013e-05 6.26981e-11 0)
(5.00014e-05 9.81191e-11 0)
(5.00015e-05 1.45717e-10 0)
(5.00018e-05 2.02546e-10 0)
(5.0002e-05 2.81624e-10 0)
(5.00023e-05 3.64034e-10 0)
(5.00026e-05 4.77304e-10 0)
(5.00031e-05 5.80905e-10 0)
(5.00034e-05 7.16943e-10 0)
(5.0004e-05 8.23762e-10 0)
(5.00044e-05 9.53995e-10 0)
(5.0005e-05 1.0279e-09 0)
(5.00055e-05 1.10806e-09 0)
(5.00059e-05 1.10511e-09 0)
(5.00012e-05 1.48696e-11 0)
(5.00018e-05 1.01129e-10 0)
(5.00018e-05 1.68821e-10 0)
(5.0002e-05 2.43054e-10 0)
(5.00021e-05 3.27831e-10 0)
(5.00024e-05 4.1749e-10 0)
(5.00025e-05 5.26483e-10 0)
(5.00029e-05 6.32099e-10 0)
(5.00031e-05 7.64237e-10 0)
(5.00036e-05 8.79162e-10 0)
(5.00039e-05 1.02083e-09 0)
(5.00044e-05 1.12783e-09 0)
(5.00048e-05 1.25262e-09 0)
(5.00053e-05 1.32315e-09 0)
(5.00056e-05 1.3978e-09 0)
(5.0006e-05 1.40347e-09 0)
(5.00017e-05 4.31055e-11 0)
(5.00024e-05 1.4885e-10 0)
(5.00024e-05 2.45553e-10 0)
(5.00026e-05 3.47231e-10 0)
(5.00027e-05 4.57916e-10 0)
(5.00029e-05 5.69414e-10 0)
(5.00031e-05 6.9804e-10 0)
(5.00035e-05 8.17286e-10 0)
(5.00037e-05 9.6037e-10 0)
(5.00041e-05 1.07988e-09 0)
(5.00044e-05 1.22326e-09 0)
(5.00049e-05 1.32814e-09 0)
(5.00052e-05 1.44882e-09 0)
(5.00056e-05 1.51803e-09 0)
(5.00059e-05 1.59194e-09 0)
(5.00062e-05 1.60893e-09 0)
(5.00023e-05 6.36051e-11 0)
(5.0003e-05 1.80702e-10 0)
(5.0003e-05 2.96625e-10 0)
(5.00032e-05 4.16012e-10 0)
(5.00033e-05 5.43344e-10 0)
(5.00035e-05 6.67784e-10 0)
(5.00037e-05 8.08291e-10 0)
(5.0004e-05 9.34066e-10 0)
(5.00042e-05 1.08292e-09 0)
(5.00046e-05 1.20283e-09 0)
(5.00049e-05 1.3463e-09 0)
(5.00053e-05 1.44847e-09 0)
(5.00055e-05 1.56707e-09 0)
(5.00059e-05 1.63689e-09 0)
(5.00061e-05 1.71329e-09 0)
(5.00064e-05 1.74195e-09 0)
(5.00029e-05 7.73056e-11 0)
(5.00036e-05 1.99058e-10 0)
(5.00036e-05 3.25904e-10 0)
(5.00038e-05 4.54956e-10 0)
(5.00039e-05 5.91289e-10 0)
(5.00041e-05 7.21686e-10 0)
(5.00043e-05 8.68006e-10 0)
(5.00046e-05 9.95171e-10 0)
(5.00048e-05 1.14615e-09 0)
(5.00052e-05 1.26385e-09 0)
(5.00053e-05 1.40671e-09 0)
(5.00057e-05 1.50629e-09 0)
(5.00059e-05 1.62468e-09 0)
(5.00062e-05 1.69672e-09 0)
(5.00064e-05 1.77805e-09 0)
(5.00066e-05 1.81883e-09 0)
(5.00035e-05 8.52153e-11 0)
(5.00042e-05 2.06114e-10 0)
(5.00042e-05 3.37047e-10 0)
(5.00044e-05 4.69096e-10 0)
(5.00045e-05 6.08419e-10 0)
(5.00047e-05 7.39143e-10 0)
(5.00048e-05 8.86883e-10 0)
(5.00051e-05 1.01151e-09 0)
(5.00053e-05 1.16239e-09 0)
(5.00057e-05 1.27615e-09 0)
(5.00058e-05 1.41846e-09 0)
(5.00062e-05 1.51579e-09 0)
(5.00063e-05 1.63565e-09 0)
(5.00066e-05 1.71114e-09 0)
(5.00067e-05 1.79905e-09 0)
(5.00068e-05 1.85192e-09 0)
(5.00041e-05 8.82786e-11 0)
(5.00047e-05 2.0386e-10 0)
(5.00048e-05 3.33239e-10 0)
(5.00049e-05 4.62932e-10 0)
(5.0005e-05 6.00368e-10 0)
(5.00053e-05 7.27087e-10 0)
(5.00054e-05 8.72821e-10 0)
(5.00057e-05 9.92093e-10 0)
(5.00058e-05 1.14129e-09 0)
(5.00061e-05 1.25008e-09 0)
(5.00063e-05 1.39208e-09 0)
(5.00066e-05 1.48763e-09 0)
(5.00067e-05 1.61035e-09 0)
(5.00069e-05 1.69023e-09 0)
(5.0007e-05 1.78595e-09 0)
(5.00071e-05 1.85084e-09 0)
(5.00047e-05 8.73421e-11 0)
(5.00053e-05 1.93983e-10 0)
(5.00053e-05 3.17266e-10 0)
(5.00055e-05 4.40205e-10 0)
(5.00055e-05 5.72002e-10 0)
(5.00058e-05 6.9115e-10 0)
(5.00059e-05 8.32475e-10 0)
(5.00062e-05 9.44078e-10 0)
(5.00063e-05 1.09075e-09 0)
(5.00066e-05 1.19369e-09 0)
(5.00067e-05 1.33589e-09 0)
(5.0007e-05 1.42999e-09 0)
(5.00071e-05 1.5568e-09 0)
(5.00073e-05 1.64176e-09 0)
(5.00074e-05 1.74622e-09 0)
(5.00074e-05 1.82303e-09 0)
(5.00052e-05 8.31343e-11 0)
(5.00058e-05 1.77917e-10 0)
(5.00058e-05 2.91396e-10 0)
(5.0006e-05 4.04083e-10 0)
(5.0006e-05 5.27194e-10 0)
(5.00063e-05 6.36013e-10 0)
(5.00064e-05 7.71012e-10 0)
(5.00067e-05 8.73224e-10 0)
(5.00068e-05 1.01673e-09 0)
(5.00071e-05 1.11325e-09 0)
(5.00072e-05 1.2561e-09 0)
(5.00074e-05 1.34907e-09 0)
(5.00075e-05 1.48095e-09 0)
(5.00077e-05 1.57158e-09 0)
(5.00077e-05 1.68553e-09 0)
(5.00078e-05 1.77427e-09 0)
(5.00057e-05 7.62667e-11 0)
(5.00062e-05 1.56815e-10 0)
(5.00063e-05 2.57515e-10 0)
(5.00064e-05 3.57053e-10 0)
(5.00065e-05 4.69145e-10 0)
(5.00067e-05 5.65266e-10 0)
(5.00068e-05 6.92617e-10 0)
(5.00071e-05 7.83873e-10 0)
(5.00072e-05 9.23943e-10 0)
(5.00075e-05 1.01342e-09 0)
(5.00076e-05 1.15746e-09 0)
(5.00079e-05 1.24949e-09 0)
(5.00079e-05 1.38732e-09 0)
(5.00081e-05 1.48412e-09 0)
(5.00081e-05 1.60826e-09 0)
(5.00082e-05 1.7091e-09 0)
(5.00062e-05 6.72373e-11 0)
(5.00066e-05 1.31673e-10 0)
(5.00067e-05 2.17189e-10 0)
(5.00068e-05 3.01266e-10 0)
(5.00069e-05 4.00454e-10 0)
(5.00072e-05 4.81974e-10 0)
(5.00072e-05 6.0062e-10 0)
(5.00076e-05 6.79636e-10 0)
(5.00076e-05 8.16072e-10 0)
(5.0008e-05 8.97976e-10 0)
(5.0008e-05 1.04366e-09 0)
(5.00083e-05 1.13489e-09 0)
(5.00084e-05 1.27946e-09 0)
(5.00085e-05 1.38291e-09 0)
(5.00085e-05 1.51794e-09 0)
(5.00086e-05 1.63127e-09 0)
(5.00066e-05 5.6471e-11 0)
(5.0007e-05 1.03308e-10 0)
(5.0007e-05 1.71735e-10 0)
(5.00072e-05 2.38446e-10 0)
(5.00073e-05 3.23297e-10 0)
(5.00076e-05 3.88541e-10 0)
(5.00076e-05 4.97764e-10 0)
(5.0008e-05 5.633e-10 0)
(5.0008e-05 6.96076e-10 0)
(5.00084e-05 7.69793e-10 0)
(5.00085e-05 9.17616e-10 0)
(5.00087e-05 1.00809e-09 0)
(5.00088e-05 1.16014e-09 0)
(5.0009e-05 1.27079e-09 0)
(5.0009e-05 1.41748e-09 0)
(5.0009e-05 1.54395e-09 0)
(5.0007e-05 4.43202e-11 0)
(5.00073e-05 7.25297e-11 0)
(5.00074e-05 1.2244e-10 0)
(5.00075e-05 1.70308e-10 0)
(5.00076e-05 2.39782e-10 0)
(5.00079e-05 2.87342e-10 0)
(5.0008e-05 3.86676e-10 0)
(5.00083e-05 4.37588e-10 0)
(5.00084e-05 5.66777e-10 0)
(5.00088e-05 6.31658e-10 0)
(5.00089e-05 7.82093e-10 0)
(5.00092e-05 8.71797e-10 0)
(5.00092e-05 1.03206e-09 0)
(5.00094e-05 1.15047e-09 0)
(5.00094e-05 1.30969e-09 0)
(5.00095e-05 1.45021e-09 0)
(5.00073e-05 3.11331e-11 0)
(5.00075e-05 4.01327e-11 0)
(5.00076e-05 7.05527e-11 0)
(5.00078e-05 9.85166e-11 0)
(5.00079e-05 1.51936e-10 0)
(5.00082e-05 1.80666e-10 0)
(5.00083e-05 2.69862e-10 0)
(5.00087e-05 3.05099e-10 0)
(5.00088e-05 4.3084e-10 0)
(5.00092e-05 4.86222e-10 0)
(5.00093e-05 6.39707e-10 0)
(5.00096e-05 7.2861e-10 0)
(5.00097e-05 8.97784e-10 0)
(5.00099e-05 1.02464e-09 0)
(5.00099e-05 1.19735e-09 0)
(5.001e-05 1.35318e-09 0)
(5.00075e-05 1.72491e-11 0)
(5.00077e-05 7.08741e-12 0)
(5.00078e-05 1.76418e-11 0)
(5.0008e-05 2.51025e-11 0)
(5.00081e-05 6.23338e-11 0)
(5.00084e-05 7.13189e-11 0)
(5.00085e-05 1.50539e-10 0)
(5.0009e-05 1.6906e-10 0)
(5.00091e-05 2.91728e-10 0)
(5.00095e-05 3.36819e-10 0)
(5.00097e-05 4.93884e-10 0)
(5.001e-05 5.8183e-10 0)
(5.00102e-05 7.60648e-10 0)
(5.00104e-05 8.96657e-10 0)
(5.00104e-05 1.08394e-09 0)
(5.00105e-05 1.25662e-09 0)
(5.00077e-05 3.08743e-12 0)
(5.00078e-05 -2.54343e-11 0)
(5.00079e-05 -3.44679e-11 0)
(5.00082e-05 -4.74454e-11 0)
(5.00083e-05 -2.60521e-11 0)
(5.00086e-05 -3.72417e-11 0)
(5.00088e-05 3.24173e-11 0)
(5.00092e-05 3.34507e-11 0)
(5.00094e-05 1.53463e-10 0)
(5.00099e-05 1.87561e-10 0)
(5.00101e-05 3.48652e-10 0)
(5.00105e-05 4.35502e-10 0)
(5.00106e-05 6.2463e-10 0)
(5.00109e-05 7.70608e-10 0)
(5.0011e-05 9.7363e-10 0)
(5.0011e-05 1.16506e-09 0)
(5.00078e-05 -1.08525e-11 0)
(5.00079e-05 -5.58645e-11 0)
(5.0008e-05 -8.32257e-11 0)
(5.00082e-05 -1.1583e-10 0)
(5.00084e-05 -1.09005e-10 0)
(5.00088e-05 -1.40404e-10 0)
(5.00089e-05 -7.91706e-11 0)
(5.00095e-05 -9.63386e-11 0)
(5.00097e-05 2.18752e-11 0)
(5.00102e-05 4.41119e-11 0)
(5.00105e-05 2.09847e-10 0)
(5.00109e-05 2.95263e-10 0)
(5.00111e-05 4.95375e-10 0)
(5.00114e-05 6.52103e-10 0)
(5.00115e-05 8.72079e-10 0)
(5.00116e-05 1.08441e-09 0)
(5.00078e-05 -2.38932e-11 0)
(5.00079e-05 -8.21304e-11 0)
(5.0008e-05 -1.25387e-10 0)
(5.00083e-05 -1.75613e-10 0)
(5.00084e-05 -1.81193e-10 0)
(5.00089e-05 -2.31917e-10 0)
(5.00091e-05 -1.77464e-10 0)
(5.00096e-05 -2.12996e-10 0)
(5.00099e-05 -9.55731e-11 0)
(5.00105e-05 -8.5873e-11 0)
(5.00108e-05 8.50349e-11 0)
(5.00113e-05 1.68654e-10 0)
(5.00116e-05 3.80279e-10 0)
(5.0012e-05 5.48533e-10 0)
(5.00122e-05 7.86676e-10 0)
(5.00123e-05 1.02236e-09 0)
(5.00078e-05 -3.51507e-11 0)
(5.00078e-05 -1.01477e-10 0)
(5.00079e-05 -1.56483e-10 0)
(5.00082e-05 -2.20944e-10 0)
(5.00084e-05 -2.35198e-10 0)
(5.00089e-05 -3.03506e-10 0)
(5.00091e-05 -2.52993e-10 0)
(5.00098e-05 -3.06745e-10 0)
(5.00101e-05 -1.88407e-10 0)
(5.00108e-05 -1.92039e-10 0)
(5.00112e-05 -1.52182e-11 0)
(5.00118e-05 6.59405e-11 0)
(5.00121e-05 2.89492e-10 0)
(5.00126e-05 4.69867e-10 0)
(5.00128e-05 7.27252e-10 0)
(5.0013e-05 9.88911e-10 0)
(5.00077e-05 -4.34365e-11 0)
(5.00076e-05 -1.10243e-10 0)
(5.00077e-05 -1.70732e-10 0)
(5.00081e-05 -2.43944e-10 0)
(5.00083e-05 -2.6145e-10 0)
(5.00089e-05 -3.43978e-10 0)
(5.00091e-05 -2.93499e-10 0)
(5.00099e-05 -3.64357e-10 0)
(5.00103e-05 -2.42955e-10 0)
(5.0011e-05 -2.60415e-10 0)
(5.00115e-05 -7.6983e-11 0)
(5.00122e-05 8.85499e-13 0)
(5.00127e-05 2.36489e-10 0)
(5.00132e-05 4.29334e-10 0)
(5.00135e-05 7.06821e-10 0)
(5.00138e-05 9.97188e-10 0)
(5.00075e-05 -4.71854e-11 0)
(5.00074e-05 -1.03686e-10 0)
(5.00075e-05 -1.60478e-10 0)
(5.00079e-05 -2.34459e-10 0)
(5.00081e-05 -2.47195e-10 0)
(5.00088e-05 -3.38854e-10 0)
(5.00091e-05 -2.82587e-10 0)
(5.00099e-05 -3.68607e-10 0)
(5.00104e-05 -2.40935e-10 0)
(5.00112e-05 -2.72704e-10 0)
(5.00119e-05 -8.17371e-11 0)
(5.00126e-05 -8.45733e-12 0)
(5.00132e-05 2.38962e-10 0)
(5.00139e-05 4.44139e-10 0)
(5.00143e-05 7.42115e-10 0)
(5.00146e-05 1.06387e-09 0)
(5.00073e-05 -4.43554e-11 0)
(5.00071e-05 -7.56311e-11 0)
(5.00072e-05 -1.15905e-10 0)
(5.00077e-05 -1.79159e-10 0)
(5.00079e-05 -1.761e-10 0)
(5.00086e-05 -2.69066e-10 0)
(5.0009e-05 -1.99171e-10 0)
(5.00099e-05 -2.96777e-10 0)
(5.00105e-05 -1.58656e-10 0)
(5.00114e-05 -2.04764e-10 0)
(5.00122e-05 -5.27845e-12 0)
(5.00131e-05 6.16926e-11 0)
(5.00138e-05 3.2015e-10 0)
(5.00146e-05 5.36844e-10 0)
(5.00151e-05 8.55069e-10 0)
(5.00156e-05 1.21066e-09 0)
(5.0007e-05 -3.23028e-11 0)
(5.00067e-05 -1.82816e-11 0)
(5.00069e-05 -2.44554e-11 0)
(5.00074e-05 -6.12212e-11 0)
(5.00076e-05 -2.7169e-11 0)
(5.00085e-05 -1.10455e-10 0)
(5.00089e-05 -1.60669e-11 0)
(5.00099e-05 -1.19946e-10 0)
(5.00105e-05 3.4424e-11 0)
(5.00116e-05 -2.57675e-11 0)
(5.00125e-05 1.83467e-10 0)
(5.00135e-05 2.41645e-10 0)
(5.00144e-05 5.09589e-10 0)
(5.00153e-05 7.35938e-10 0)
(5.0016e-05 1.07311e-09 0)
(5.00167e-05 1.46447e-09 0)
(5.00067e-05 -7.67442e-12 0)
(5.00064e-05 7.82327e-11 0)
(5.00066e-05 1.29637e-10 0)
(5.00071e-05 1.40758e-10 0)
(5.00074e-05 2.25999e-10 0)
(5.00082e-05 1.67825e-10 0)
(5.00087e-05 3.01089e-10 0)
(5.00098e-05 1.98943e-10 0)
(5.00106e-05 3.77216e-10 0)
(5.00117e-05 3.03926e-10 0)
(5.00128e-05 5.24405e-10 0)
(5.00139e-05 5.70479e-10 0)
(5.0015e-05 8.45412e-10 0)
(5.00161e-05 1.07814e-09 0)
(5.0017e-05 1.43163e-09 0)
(5.00178e-05 1.85983e-09 0)
(5.00063e-05 3.37612e-11 0)
(5.00061e-05 2.26081e-10 0)
(5.00063e-05 3.65963e-10 0)
(5.00068e-05 4.53239e-10 0)
(5.00071e-05 6.16358e-10 0)
(5.0008e-05 6.04122e-10 0)
(5.00085e-05 7.95385e-10 0)
(5.00097e-05 7.06229e-10 0)
(5.00105e-05 9.18634e-10 0)
(5.00118e-05 8.34025e-10 0)
(5.0013e-05 1.06761e-09 0)
(5.00143e-05 1.09707e-09 0)
(5.00157e-05 1.37509e-09 0)
(5.0017e-05 1.60893e-09 0)
(5.00181e-05 1.97405e-09 0)
(5.00191e-05 2.43885e-09 0)
(5.0006e-05 9.72333e-11 0)
(5.00059e-05 4.40197e-10 0)
(5.0006e-05 7.08474e-10 0)
(5.00066e-05 9.08823e-10 0)
(5.00069e-05 1.18435e-09 0)
(5.00078e-05 1.2459e-09 0)
(5.00084e-05 1.52007e-09 0)
(5.00096e-05 1.45962e-09 0)
(5.00105e-05 1.71969e-09 0)
(5.00119e-05 1.62689e-09 0)
(5.00133e-05 1.87617e-09 0)
(5.00148e-05 1.8831e-09 0)
(5.00163e-05 2.1588e-09 0)
(5.00179e-05 2.38585e-09 0)
(5.00193e-05 2.75539e-09 0)
(5.00206e-05 3.2546e-09 0)
(5.00058e-05 1.89148e-10 0)
(5.00059e-05 7.38457e-10 0)
(5.0006e-05 1.18601e-09 0)
(5.00066e-05 1.54677e-09 0)
(5.00067e-05 1.97898e-09 0)
(5.00077e-05 2.15085e-09 0)
(5.00082e-05 2.54025e-09 0)
(5.00095e-05 2.52991e-09 0)
(5.00105e-05 2.85552e-09 0)
(5.0012e-05 2.75949e-09 0)
(5.00135e-05 3.02795e-09 0)
(5.00152e-05 3.00469e-09 0)
(5.0017e-05 3.2705e-09 0)
(5.00188e-05 3.47932e-09 0)
(5.00206e-05 3.84249e-09 0)
(5.00222e-05 4.37122e-09 0)
(5.00058e-05 3.17184e-10 0)
(5.00061e-05 1.14205e-09 0)
(5.00061e-05 1.83268e-09 0)
(5.00067e-05 2.41383e-09 0)
(5.00068e-05 3.05864e-09 0)
(5.00078e-05 3.38818e-09 0)
(5.00082e-05 3.93422e-09 0)
(5.00095e-05 4.00294e-09 0)
(5.00105e-05 4.41771e-09 0)
(5.0012e-05 4.32631e-09 0)
(5.00137e-05 4.61918e-09 0)
(5.00156e-05 4.55627e-09 0)
(5.00177e-05 4.80239e-09 0)
(5.00198e-05 4.97705e-09 0)
(5.0022e-05 5.31858e-09 0)
(5.0024e-05 5.8682e-09 0)
(5.0006e-05 4.9043e-10 0)
(5.00067e-05 1.67531e-09 0)
(5.00066e-05 2.68794e-09 0)
(5.00072e-05 3.56423e-09 0)
(5.00071e-05 4.49157e-09 0)
(5.0008e-05 5.03933e-09 0)
(5.00084e-05 5.79502e-09 0)
(5.00095e-05 5.98143e-09 0)
(5.00106e-05 6.5167e-09 0)
(5.00121e-05 6.44196e-09 0)
(5.00139e-05 6.76723e-09 0)
(5.0016e-05 6.6531e-09 0)
(5.00184e-05 6.86718e-09 0)
(5.00208e-05 6.98575e-09 0)
(5.00234e-05 7.28451e-09 0)
(5.00259e-05 7.84132e-09 0)
(5.00066e-05 7.19337e-10 0)
(5.00079e-05 2.36566e-09 0)
(5.00077e-05 3.79621e-09 0)
(5.00082e-05 5.05957e-09 0)
(5.00079e-05 6.35552e-09 0)
(5.00086e-05 7.19816e-09 0)
(5.00088e-05 8.23041e-09 0)
(5.00098e-05 8.58596e-09 0)
(5.00108e-05 9.28334e-09 0)
(5.00123e-05 9.24395e-09 0)
(5.00142e-05 9.61421e-09 0)
(5.00163e-05 9.43614e-09 0)
(5.00191e-05 9.60346e-09 0)
(5.00219e-05 9.63695e-09 0)
(5.0025e-05 9.86437e-09 0)
(5.0028e-05 1.0408e-08 0)
(5.00078e-05 1.01566e-09 0)
(5.00099e-05 3.24259e-09 0)
(5.00095e-05 5.20571e-09 0)
(5.00098e-05 6.96717e-09 0)
(5.00092e-05 8.73656e-09 0)
(5.00098e-05 9.96976e-09 0)
(5.00096e-05 1.1363e-08 0)
(5.00104e-05 1.19557e-08 0)
(5.00111e-05 1.28709e-08 0)
(5.00125e-05 1.28955e-08 0)
(5.00144e-05 1.3331e-08 0)
(5.00166e-05 1.30761e-08 0)
(5.00197e-05 1.31807e-08 0)
(5.00229e-05 1.30912e-08 0)
(5.00266e-05 1.321e-08 0)
(5.00303e-05 1.37111e-08 0)
(5.00098e-05 1.39206e-09 0)
(5.00128e-05 4.33647e-09 0)
(5.00122e-05 6.96618e-09 0)
(5.00123e-05 9.3575e-09 0)
(5.00114e-05 1.17256e-08 0)
(5.00116e-05 1.34673e-08 0)
(5.0011e-05 1.53269e-08 0)
(5.00114e-05 1.6246e-08 0)
(5.00118e-05 1.74536e-08 0)
(5.00129e-05 1.75862e-08 0)
(5.00147e-05 1.81199e-08 0)
(5.00169e-05 1.77783e-08 0)
(5.00202e-05 1.78053e-08 0)
(5.00238e-05 1.75449e-08 0)
(5.00282e-05 1.75069e-08 0)
(5.00328e-05 1.79241e-08 0)
(5.00128e-05 1.86154e-09 0)
(5.00171e-05 5.67566e-09 0)
(5.00162e-05 9.12482e-09 0)
(5.0016e-05 1.22986e-08 0)
(5.00146e-05 1.54125e-08 0)
(5.00143e-05 1.78058e-08 0)
(5.00131e-05 2.02619e-08 0)
(5.0013e-05 2.16242e-08 0)
(5.00129e-05 2.32245e-08 0)
(5.00135e-05 2.35324e-08 0)
(5.00151e-05 2.42173e-08 0)
(5.00171e-05 2.37882e-08 0)
(5.00207e-05 2.37284e-08 0)
(5.00247e-05 2.32378e-08 0)
(5.00298e-05 2.29821e-08 0)
(5.00354e-05 2.32562e-08 0)
(5.00172e-05 2.43624e-09 0)
(5.00231e-05 7.28318e-09 0)
(5.00218e-05 1.17206e-08 0)
(5.00212e-05 1.58487e-08 0)
(5.00192e-05 1.98767e-08 0)
(5.00183e-05 2.30917e-08 0)
(5.00163e-05 2.6303e-08 0)
(5.00155e-05 2.82597e-08 0)
(5.00146e-05 3.03875e-08 0)
(5.00145e-05 3.09728e-08 0)
(5.00156e-05 3.18948e-08 0)
(5.00173e-05 3.13981e-08 0)
(5.00209e-05 3.12584e-08 0)
(5.00253e-05 3.04705e-08 0)
(5.00313e-05 2.9923e-08 0)
(5.00381e-05 2.99704e-08 0)
(5.00232e-05 3.12598e-09 0)
(5.00311e-05 9.17077e-09 0)
(5.00293e-05 1.47749e-08 0)
(5.00283e-05 2.00435e-08 0)
(5.00255e-05 2.51721e-08 0)
(5.00238e-05 2.94053e-08 0)
(5.00209e-05 3.35616e-08 0)
(5.0019e-05 3.63055e-08 0)
(5.00171e-05 3.91403e-08 0)
(5.0016e-05 4.01565e-08 0)
(5.00163e-05 4.14537e-08 0)
(5.00174e-05 4.09522e-08 0)
(5.0021e-05 4.07803e-08 0)
(5.00256e-05 3.96356e-08 0)
(5.00325e-05 3.87265e-08 0)
(5.00407e-05 3.844e-08 0)
(5.00314e-05 3.93572e-09 0)
(5.00416e-05 1.13321e-08 0)
(5.00393e-05 1.82804e-08 0)
(5.00377e-05 2.48806e-08 0)
(5.0034e-05 3.13064e-08 0)
(5.00313e-05 3.67769e-08 0)
(5.00272e-05 4.20974e-08 0)
(5.00241e-05 4.58676e-08 0)
(5.00207e-05 4.96435e-08 0)
(5.00184e-05 5.13132e-08 0)
(5.00176e-05 5.31988e-08 0)
(5.00176e-05 5.28282e-08 0)
(5.00208e-05 5.27424e-08 0)
(5.00254e-05 5.12172e-08 0)
(5.00332e-05 4.99102e-08 0)
(5.00432e-05 4.91593e-08 0)
(5.0042e-05 4.86266e-09 0)
(5.00551e-05 1.37343e-08 0)
(5.00522e-05 2.21867e-08 0)
(5.00499e-05 3.0299e-08 0)
(5.00451e-05 3.82154e-08 0)
(5.00413e-05 4.5153e-08 0)
(5.00357e-05 5.188e-08 0)
(5.0031e-05 5.69621e-08 0)
(5.0026e-05 6.1974e-08 0)
(5.00219e-05 6.46069e-08 0)
(5.00195e-05 6.73941e-08 0)
(5.00181e-05 6.73927e-08 0)
(5.00204e-05 6.76064e-08 0)
(5.00247e-05 6.57168e-08 0)
(5.00334e-05 6.39826e-08 0)
(5.00453e-05 6.25366e-08 0)
(5.00556e-05 5.8925e-09 0)
(5.00719e-05 1.63074e-08 0)
(5.00683e-05 2.63837e-08 0)
(5.00653e-05 3.61545e-08 0)
(5.00594e-05 4.57289e-08 0)
(5.00542e-05 5.43549e-08 0)
(5.00469e-05 6.27362e-08 0)
(5.00405e-05 6.94554e-08 0)
(5.00333e-05 7.60618e-08 0)
(5.00271e-05 8.00811e-08 0)
(5.00225e-05 8.42314e-08 0)
(5.0019e-05 8.50192e-08 0)
(5.00198e-05 8.59306e-08 0)
(5.00232e-05 8.3804e-08 0)
(5.00326e-05 8.15671e-08 0)
(5.00466e-05 7.89232e-08 0)
(5.00725e-05 6.99514e-09 0)
(5.00923e-05 1.89364e-08 0)
(5.00881e-05 3.06861e-08 0)
(5.00842e-05 4.21963e-08 0)
(5.00771e-05 5.35368e-08 0)
(5.00705e-05 6.40275e-08 0)
(5.00614e-05 7.42828e-08 0)
(5.00529e-05 8.29733e-08 0)
(5.00434e-05 9.15812e-08 0)
(5.00346e-05 9.75436e-08 0)
(5.00272e-05 1.03749e-07 0)
(5.00209e-05 1.06123e-07 0)
(5.00193e-05 1.08693e-07 0)
(5.00207e-05 1.07147e-07 0)
(5.00301e-05 1.05006e-07 0)
(5.00468e-05 1.00998e-07 0)
(5.00932e-05 8.1211e-09 0)
(5.01167e-05 2.14539e-08 0)
(5.01118e-05 3.48213e-08 0)
(5.01071e-05 4.80458e-08 0)
(5.00987e-05 6.11555e-08 0)
(5.00906e-05 7.35878e-08 0)
(5.00797e-05 8.58406e-08 0)
(5.00691e-05 9.67685e-08 0)
(5.00569e-05 1.07737e-07 0)
(5.00454e-05 1.16242e-07 0)
(5.00347e-05 1.25352e-07 0)
(5.0025e-05 1.30533e-07 0)
(5.002e-05 1.36614e-07 0)
(5.00181e-05 1.38044e-07 0)
(5.00257e-05 1.3928e-07 0)
(5.00444e-05 1.37158e-07 0)
(5.01177e-05 9.19857e-09 0)
(5.0145e-05 2.36436e-08 0)
(5.01395e-05 3.84334e-08 0)
(5.01339e-05 5.32003e-08 0)
(5.01244e-05 6.79261e-08 0)
(5.01148e-05 8.2208e-08 0)
(5.0102e-05 9.63934e-08 0)
(5.00893e-05 1.09617e-07 0)
(5.00746e-05 1.23049e-07 0)
(5.00602e-05 1.34421e-07 0)
(5.00464e-05 1.46925e-07 0)
(5.00332e-05 1.55776e-07 0)
(5.00247e-05 1.66932e-07 0)
(5.0019e-05 1.73776e-07 0)
(5.00234e-05 1.82935e-07 0)
(5.00404e-05 1.89295e-07 0)
(5.01462e-05 1.0135e-08 0)
(5.01769e-05 2.52505e-08 0)
(5.01708e-05 4.11012e-08 0)
(5.01645e-05 5.70596e-08 0)
(5.01539e-05 7.30544e-08 0)
(5.01429e-05 8.88736e-08 0)
(5.01284e-05 1.04667e-07 0)
(5.01136e-05 1.19929e-07 0)
(5.00964e-05 1.35491e-07 0)
(5.00794e-05 1.49467e-07 0)
(5.00622e-05 1.64889e-07 0)
(5.00457e-05 1.76786e-07 0)
(5.00339e-05 1.92006e-07 0)
(5.00242e-05 2.02414e-07 0)
(5.00245e-05 2.16764e-07 0)
(5.00356e-05 2.27715e-07 0)
(5.01783e-05 1.08212e-08 0)
(5.02121e-05 2.60032e-08 0)
(5.02054e-05 4.23768e-08 0)
(5.01984e-05 5.89859e-08 0)
(5.01868e-05 7.57007e-08 0)
(5.01745e-05 9.25207e-08 0)
(5.01583e-05 1.09355e-07 0)
(5.01416e-05 1.26125e-07 0)
(5.01218e-05 1.4317e-07 0)
(5.01021e-05 1.59149e-07 0)
(5.00813e-05 1.7654e-07 0)
(5.0061e-05 1.90361e-07 0)
(5.00447e-05 2.07881e-07 0)
(5.00297e-05 2.18863e-07 0)
(5.00243e-05 2.34186e-07 0)
(5.00277e-05 2.43789e-07 0)
(5.02136e-05 1.11412e-08 0)
(5.02495e-05 2.56304e-08 0)
(5.02425e-05 4.18137e-08 0)
(5.02348e-05 5.83457e-08 0)
(5.02222e-05 7.50379e-08 0)
(5.02087e-05 9.21105e-08 0)
(5.0191e-05 1.09208e-07 0)
(5.01724e-05 1.26743e-07 0)
(5.01501e-05 1.44436e-07 0)
(5.01275e-05 1.61717e-07 0)
(5.01026e-05 1.80093e-07 0)
(5.00779e-05 1.95092e-07 0)
(5.00558e-05 2.13853e-07 0)
(5.00335e-05 2.23993e-07 0)
(5.00213e-05 2.39841e-07 0)
(5.00175e-05 2.46774e-07 0)
(5.02512e-05 1.09789e-08 0)
(5.02882e-05 2.38852e-08 0)
(5.02807e-05 3.90054e-08 0)
(5.02725e-05 5.45622e-08 0)
(5.02592e-05 7.03138e-08 0)
(5.02445e-05 8.66979e-08 0)
(5.02255e-05 1.03091e-07 0)
(5.0205e-05 1.20437e-07 0)
(5.01803e-05 1.37778e-07 0)
(5.01547e-05 1.5554e-07 0)
(5.01253e-05 1.73851e-07 0)
(5.00956e-05 1.89591e-07 0)
(5.00662e-05 2.08644e-07 0)
(5.00353e-05 2.1754e-07 0)
(5.00152e-05 2.35158e-07 0)
(5.00021e-05 2.37645e-07 0)
(5.02901e-05 1.02286e-08 0)
(5.03268e-05 2.05629e-08 0)
(5.03189e-05 3.36098e-08 0)
(5.03101e-05 4.71393e-08 0)
(5.02961e-05 6.08604e-08 0)
(5.02804e-05 7.54043e-08 0)
(5.02602e-05 8.98959e-08 0)
(5.02382e-05 1.05801e-07 0)
(5.02113e-05 1.21521e-07 0)
(5.01827e-05 1.38618e-07 0)
(5.01487e-05 1.55601e-07 0)
(5.01137e-05 1.71759e-07 0)
(5.00756e-05 1.90044e-07 0)
(5.00355e-05 1.99204e-07 0)
(5.00064e-05 2.1922e-07 0)
(4.99772e-05 2.14661e-07 0)
(5.03287e-05 8.80289e-09 0)
(5.03635e-05 1.54879e-08 0)
(5.03553e-05 2.5326e-08 0)
(5.0346e-05 3.56227e-08 0)
(5.03314e-05 4.60225e-08 0)
(5.03147e-05 5.73024e-08 0)
(5.02935e-05 6.83993e-08 0)
(5.027e-05 8.12809e-08 0)
(5.02413e-05 9.38513e-08 0)
(5.02098e-05 1.08779e-07 0)
(5.01716e-05 1.231e-07 0)
(5.01312e-05 1.39185e-07 0)
(5.00843e-05 1.5575e-07 0)
(5.00347e-05 1.68467e-07 0)
(4.9991e-05 1.87372e-07 0)
(4.99365e-05 1.7003e-07 0)
(5.03656e-05 6.62759e-09 0)
(5.03967e-05 8.48864e-09 0)
(5.03881e-05 1.38962e-08 0)
(5.03782e-05 1.97108e-08 0)
(5.03628e-05 2.55008e-08 0)
(5.0345e-05 3.21937e-08 0)
(5.03228e-05 3.8632e-08 0)
(5.02979e-05 4.71578e-08 0)
(5.02678e-05 5.53866e-08 0)
(5.0234e-05 6.69105e-08 0)
(5.0193e-05 7.77383e-08 0)
(5.01489e-05 9.2095e-08 0)
(5.00958e-05 1.03791e-07 0)
(5.00351e-05 1.15288e-07 0)
(4.99601e-05 1.21709e-07 0)
(4.98684e-05 8.74433e-08 0)
(5.03989e-05 3.62929e-09 0)
(5.04239e-05 -2.05662e-10 0)
(5.04149e-05 -2.1249e-10 0)
(5.04044e-05 2.74062e-10 0)
(5.03883e-05 8.74889e-10 0)
(5.03696e-05 2.91713e-09 0)
(5.03473e-05 4.76131e-09 0)
(5.03227e-05 8.13911e-09 0)
(5.0293e-05 1.01505e-08 0)
(5.02586e-05 1.47884e-08 0)
(5.02147e-05 1.70621e-08 0)
(5.01624e-05 2.1231e-08 0)
(5.0097e-05 1.76159e-08 0)
(5.00184e-05 9.87489e-09 0)
(4.99053e-05 -9.21365e-09 0)
(4.97694e-05 -5.66652e-08 0)
(5.04262e-05 -1.0406e-10 0)
(5.04458e-05 -9.38481e-09 0)
(5.0437e-05 -1.52139e-08 0)
(5.04269e-05 -2.0816e-08 0)
(5.04115e-05 -2.66425e-08 0)
(5.03926e-05 -3.1138e-08 0)
(5.03677e-05 -3.71411e-08 0)
(5.03388e-05 -4.40387e-08 0)
(5.03042e-05 -5.56037e-08 0)
(5.02635e-05 -6.79722e-08 0)
(5.02124e-05 -8.76913e-08 0)
(5.01482e-05 -1.07984e-07 0)
(5.00647e-05 -1.38755e-07 0)
(4.99623e-05 -1.72189e-07 0)
(4.98192e-05 -2.16177e-07 0)
(4.96463e-05 -2.70644e-07 0)
(5.04479e-05 -4.04547e-09 0)
(5.04605e-05 -2.14373e-08 0)
(5.04499e-05 -3.55285e-08 0)
(5.04372e-05 -5.09371e-08 0)
(5.04185e-05 -6.85545e-08 0)
(5.0395e-05 -8.8148e-08 0)
(5.03633e-05 -1.12208e-07 0)
(5.03246e-05 -1.39187e-07 0)
(5.02787e-05 -1.73339e-07 0)
(5.02248e-05 -2.10686e-07 0)
(5.01599e-05 -2.5779e-07 0)
(5.00814e-05 -3.0551e-07 0)
(4.99825e-05 -3.63988e-07 0)
(4.98623e-05 -4.19501e-07 0)
(4.96998e-05 -4.84554e-07 0)
(4.95031e-05 -5.43688e-07 0)
(5.04631e-05 -9.1846e-09 0)
(5.04479e-05 -4.4198e-08 0)
(5.0433e-05 -7.36426e-08 0)
(5.04135e-05 -1.06098e-07 0)
(5.03862e-05 -1.42832e-07 0)
(5.0352e-05 -1.83987e-07 0)
(5.03096e-05 -2.31297e-07 0)
(5.02592e-05 -2.82825e-07 0)
(5.02008e-05 -3.42049e-07 0)
(5.01332e-05 -4.04735e-07 0)
(5.00553e-05 -4.76674e-07 0)
(4.99636e-05 -5.47857e-07 0)
(4.98527e-05 -6.28473e-07 0)
(4.97197e-05 -7.0069e-07 0)
(4.95481e-05 -7.80965e-07 0)
(4.93423e-05 -8.40846e-07 0)
(5.04521e-05 -1.88724e-08 0)
(5.03838e-05 -7.90521e-08 0)
(5.03638e-05 -1.30874e-07 0)
(5.03365e-05 -1.86437e-07 0)
(5.02997e-05 -2.46871e-07 0)
(5.02546e-05 -3.11985e-07 0)
(5.0201e-05 -3.83124e-07 0)
(5.01388e-05 -4.58473e-07 0)
(5.00685e-05 -5.40518e-07 0)
(4.9989e-05 -6.24882e-07 0)
(4.99003e-05 -7.16625e-07 0)
(4.97987e-05 -8.05509e-07 0)
(4.96812e-05 -9.01385e-07 0)
(4.95429e-05 -9.83642e-07 0)
(4.93731e-05 -1.07085e-06 0)
(4.91734e-05 -1.12569e-06 0)
(5.03901e-05 -3.37475e-08 0)
(5.02544e-05 -1.21716e-07 0)
(5.023e-05 -1.99899e-07 0)
(5.01961e-05 -2.81375e-07 0)
(5.01514e-05 -3.66659e-07 0)
(5.00974e-05 -4.55375e-07 0)
(5.00347e-05 -5.48453e-07 0)
(4.99634e-05 -6.4432e-07 0)
(4.98846e-05 -7.44723e-07 0)
(4.97971e-05 -8.45544e-07 0)
(4.9702e-05 -9.51084e-07 0)
(4.95955e-05 -1.05141e-06 0)
(4.94776e-05 -1.15585e-06 0)
(4.93421e-05 -1.24256e-06 0)
(4.91847e-05 -1.331e-06 0)
(4.90035e-05 -1.37906e-06 0)
(5.02627e-05 -5.20163e-08 0)
(5.00539e-05 -1.6533e-07 0)
(5.00274e-05 -2.6983e-07 0)
(4.999e-05 -3.764e-07 0)
(4.99412e-05 -4.84684e-07 0)
(4.98825e-05 -5.94227e-07 0)
(4.98151e-05 -7.05512e-07 0)
(4.97392e-05 -8.17401e-07 0)
(4.96565e-05 -9.3114e-07 0)
(4.95659e-05 -1.04322e-06 0)
(4.94694e-05 -1.15721e-06 0)
(4.93636e-05 -1.26393e-06 0)
(4.92512e-05 -1.372e-06 0)
(4.91258e-05 -1.45979e-06 0)
(4.89885e-05 -1.54692e-06 0)
(4.88348e-05 -1.58957e-06 0)
(5.00635e-05 -7.07491e-08 0)
(4.97887e-05 -2.02482e-07 0)
(4.97626e-05 -3.29143e-07 0)
(4.97254e-05 -4.56577e-07 0)
(4.96768e-05 -5.8353e-07 0)
(4.96184e-05 -7.09527e-07 0)
(4.95512e-05 -8.34576e-07 0)
(4.94757e-05 -9.5801e-07 0)
(4.9394e-05 -1.08064e-06 0)
(4.93051e-05 -1.19977e-06 0)
(4.92122e-05 -1.3182e-06 0)
(4.91123e-05 -1.42796e-06 0)
(4.90105e-05 -1.53663e-06 0)
(4.89007e-05 -1.62408e-06 0)
(4.87891e-05 -1.70915e-06 0)
(4.8669e-05 -1.74859e-06 0)
(4.97985e-05 -8.67448e-08 0)
(4.94745e-05 -2.27471e-07 0)
(4.94509e-05 -3.69054e-07 0)
(4.94168e-05 -5.10617e-07 0)
(4.93721e-05 -6.50178e-07 0)
(4.93179e-05 -7.87264e-07 0)
(4.92551e-05 -9.21383e-07 0)
(4.91844e-05 -1.05224e-06 0)
(4.91078e-05 -1.18014e-06 0)
(4.9025e-05 -1.3032e-06 0)
(4.89397e-05 -1.42342e-06 0)
(4.88498e-05 -1.53429e-06 0)
(4.87624e-05 -1.64209e-06 0)
(4.86723e-05 -1.72905e-06 0)
(4.859e-05 -1.8124e-06 0)
(4.85077e-05 -1.85122e-06 0)
(4.94837e-05 -9.75209e-08 0)
(4.91329e-05 -2.37406e-07 0)
(4.91126e-05 -3.85104e-07 0)
(4.90832e-05 -5.32766e-07 0)
(4.90443e-05 -6.7798e-07 0)
(4.89965e-05 -8.20294e-07 0)
(4.89408e-05 -9.58702e-07 0)
(4.88776e-05 -1.09312e-06 0)
(4.88091e-05 -1.22322e-06 0)
(4.87352e-05 -1.34785e-06 0)
(4.86605e-05 -1.46806e-06 0)
(4.85834e-05 -1.57898e-06 0)
(4.85132e-05 -1.6853e-06 0)
(4.84453e-05 -1.77227e-06 0)
(4.83944e-05 -1.85465e-06 0)
(4.83518e-05 -1.89543e-06 0)
(4.91408e-05 -1.01807e-07 0)
(4.87861e-05 -2.32522e-07 0)
(4.8769e-05 -3.77588e-07 0)
(4.87441e-05 -5.23272e-07 0)
(4.8711e-05 -6.67071e-07 0)
(4.86701e-05 -8.08611e-07 0)
(4.86222e-05 -9.46439e-07 0)
(4.85676e-05 -1.08055e-06 0)
(4.85085e-05 -1.20992e-06 0)
(4.84452e-05 -1.33396e-06 0)
(4.83824e-05 -1.45267e-06 0)
(4.832e-05 -1.56286e-06 0)
(4.82681e-05 -1.66739e-06 0)
(4.82238e-05 -1.75493e-06 0)