/*--------------------------------*- C++ -*----------------------------------*\
| =========                 |                                                 |
| \\      /  F ield         | OpenFOAM: The Open Source CFD Toolbox           |
|  \\    /   O peration     | Version:  4.1                                   |
|   \\  /    A nd           | Web:      www.OpenFOAM.org                      |
|    \\/     M anipulation  |                                                 |
\*---------------------------------------------------------------------------*/
FoamFile
{
    version     2.0;
    format      ascii;
    class       volVectorField;
    location    "0.000770";
    object      cellDisplacement;
}
// * * * * * * * * * * * * * * * * * * * * * * * * * * * * * * * * * * * * * //

dimensions      [0 1 0 0 0 0 0];

internalField   nonuniform List<vector> 
3072
(
(0 -5.0103704e-05 3.0458331e-08)
(0 -0.00010890626 8.3372585e-08)
(0 -0.00012323837 1.5809948e-07)
(0 -0.00011194491 1.900883e-07)
(0 -8.7086559e-05 1.9450168e-07)
(0 -5.5606675e-05 2.1297926e-07)
(0 -2.0319529e-05 2.2632448e-07)
(0 1.6302587e-05 2.3152217e-07)
(0 5.3217717e-05 2.2481361e-07)
(0 8.9260923e-05 1.9941491e-07)
(0 0.00012364643 1.6791348e-07)
(0 0.00015589348 1.3744441e-07)
(0 0.00018495072 5.095619e-08)
(0 0.0002107861 7.6545015e-08)
(0 0.00023297289 2.9006806e-08)
(0 0.0002509963 -1.6613523e-08)
(0 0.00026465664 -4.5984085e-08)
(0 0.00027370624 -5.5505875e-08)
(0 0.00027797993 -4.8325377e-08)
(0 0.00027748516 -3.8271245e-08)
(0 0.00027229736 -1.4212043e-08)
(0 0.0002626167 1.0733939e-08)
(0 0.0002486224 9.3599613e-10)
(0 0.0002307089 1.1046345e-08)
(0 -4.0411331e-05 9.6269752e-06)
(0 -9.1129596e-05 2.2935366e-05)
(0 -0.00010551233 3.1084485e-05)
(0 -9.7260147e-05 3.6069147e-05)
(0 -7.6479405e-05 3.904982e-05)
(0 -4.9454383e-05 4.0680581e-05)
(0 -1.8767978e-05 4.1281392e-05)
(0 1.3243099e-05 4.1000788e-05)
(0 4.5613157e-05 3.9926374e-05)
(0 7.7264375e-05 3.8125509e-05)
(0 0.0001075214 3.5667059e-05)
(0 0.00013602017 3.2587251e-05)
(0 0.00016175428 2.8988102e-05)
(0 0.00018456517 2.4933535e-05)
(0 0.00020426507 2.0488645e-05)
(0 0.00022024128 1.5710926e-05)
(0 0.00023242761 1.0727089e-05)
(0 0.0002405824 5.6116408e-06)
(0 0.00024446416 4.5532532e-07)
(0 0.00024412502 -4.7073541e-06)
(0 0.00023961569 -9.7880855e-06)
(0 0.00023115689 -1.467568e-05)
(0 0.00021889133 -1.9293277e-05)
(0 0.00020320001 -2.3646369e-05)
(0 -3.2720866e-05 1.8560207e-05)
(0 -7.5105867e-05 4.5500534e-05)
(0 -8.8228513e-05 6.2503351e-05)
(0 -8.2265284e-05 7.2926403e-05)
(0 -6.5251265e-05 7.9101538e-05)
(0 -4.2814844e-05 8.2431284e-05)
(0 -1.6967321e-05 8.3616949e-05)
(0 1.0037395e-05 8.2987223e-05)
(0 3.7464506e-05 8.0732728e-05)
(0 6.429453e-05 7.7022202e-05)
(0 9.0029353e-05 7.1980514e-05)
(0 0.00011443279 6.5668974e-05)
(0 0.00013642569 5.8350831e-05)
(0 0.00015603089 5.0131515e-05)
(0 0.00017285751 4.1074628e-05)
(0 0.00018651054 3.1423643e-05)
(0 0.00019691081 2.1341031e-05)
(0 0.00020387055 1.1003323e-05)
(0 0.00020716443 5.5852276e-07)
(0 0.00020685899 -9.8866173e-06)
(0 0.00020297952 -2.0117777e-05)
(0 0.00019578006 -2.9969178e-05)
(0 0.00018538048 -3.9347075e-05)
(0 0.00017211434 -4.8100736e-05)
(0 -2.6177708e-05 2.7297852e-05)
(0 -6.0159006e-05 6.7986965e-05)
(0 -7.1184214e-05 9.415116e-05)
(0 -6.6858663e-05 0.00011022986)
(0 -5.3656182e-05 0.00011968657)
(0 -3.583402e-05 0.00012475826)
(0 -1.5183648e-05 0.00012650074)
(0 6.5329493e-06 0.00012548172)
(0 2.8626094e-05 0.00012200818)
(0 5.030579e-05 0.00011632928)
(0 7.1180067e-05 0.00010867064)
(0 9.1145705e-05 9.9165988e-05)
(0 0.0001096376 8.8106986e-05)
(0 0.00012562518 7.5579611e-05)
(0 0.00013947962 6.192261e-05)
(0 0.0001505762 4.7290504e-05)
(0 0.00015907445 3.2028632e-05)
(0 0.00016478381 1.6365391e-05)
(0 0.00016744303 5.4383378e-07)
(0 0.00016711417 -1.5225631e-05)
(0 0.00016395629 -3.0690428e-05)
(0 0.0001581599 -4.5617481e-05)
(0 0.00014969926 -5.979066e-05)
(0 0.00013896242 -7.3030155e-05)
(0 -2.0112683e-05 3.6082488e-05)
(0 -4.5796569e-05 9.0432659e-05)
(0 -5.419741e-05 0.00012552446)
(0 -5.1024995e-05 0.00014705631)
(0 -4.1421036e-05 0.00015982614)
(0 -2.8266572e-05 0.00016666574)
(0 -1.2933959e-05 0.00016900157)
(0 3.2861113e-06 0.00016765599)
(0 1.9818076e-05 0.00016302966)
(0 3.6085944e-05 0.00015541504)
(0 5.184876e-05 0.00014516344)
(0 6.7064075e-05 0.00013245171)
(0 8.1381323e-05 0.00011766637)
(0 9.3922408e-05 0.0001009783)
(0 0.00010446225 8.2688038e-05)
(0 0.00011305914 6.3139382e-05)
(0 0.00011957411 4.2705953e-05)
(0 0.00012392306 2.172834e-05)
(0 0.00012595058 5.4140007e-07)
(0 0.00012569619 -2.0561927e-05)
(0 0.0001232749 -4.1267287e-05)
(0 0.00011895879 -6.1261205e-05)
(0 0.00011272803 -8.0213746e-05)
(0 0.00010473421 -9.7905642e-05)
(0 -1.4110201e-05 4.5189829e-05)
(0 -3.1328121e-05 0.00011289245)
(0 -3.6740228e-05 0.0001562252)
(0 -3.4696014e-05 0.00018269658)
(0 -2.8496626e-05 0.00019844201)
(0 -1.996926e-05 0.00020691003)
(0 -9.9690769e-06 0.00020991568)
(0 6.7223648e-07 0.00020832215)
(0 1.1549632e-05 0.00020266994)
(0 2.2272566e-05 0.00019331218)
(0 3.2726599e-05 0.00018058279)
(0 4.3081761e-05 0.00016483868)
(0 5.2991388e-05 0.0001464668)
(0 6.1448662e-05 0.00012571323)
(0 6.8787431e-05 0.00010295286)
(0 7.4680702e-05 7.8625111e-05)
(0 7.9158776e-05 5.3166547e-05)
(0 8.2144984e-05 2.6995379e-05)
(0 8.3557474e-05 5.6031252e-07)
(0 8.3439022e-05 -2.5751914e-05)
(0 8.1858517e-05 -5.1572697e-05)
(0 7.9066411e-05 -7.6476852e-05)
(0 7.5034417e-05 -0.00010008663)
(0 6.9864314e-05 -0.00012205224)
(0 -7.7161241e-06 5.5066477e-05)
(0 -1.6388035e-05 0.00013557622)
(0 -1.8833012e-05 0.00018598519)
(0 -1.7675335e-05 0.00021665859)
(0 -1.4720729e-05 0.00023485915)
(0 -1.0700454e-05 0.00024469142)
(0 -5.9171217e-06 0.00024821174)
(0 -7.7829036e-07 0.00024639738)
(0 4.502514e-06 0.00023983262)
(0 9.7264687e-06 0.00022890134)
(0 1.4892404e-05 0.00021397939)
(0 2.0052791e-05 0.0001954517)
(0 2.5160137e-05 0.00017373157)
(0 2.97706e-05 0.00014916945)
(0 3.35486e-05 0.00012221578)
(0 3.6667218e-05 9.3386129e-05)
(0 3.9023469e-05 6.3171699e-05)
(0 4.0619552e-05 3.2080639e-05)
(0 4.138496e-05 6.6177686e-07)
(0 4.1372821e-05 -3.061425e-05)
(0 4.0644393e-05 -6.1291862e-05)
(0 3.9310624e-05 -9.0860719e-05)
(0 3.7399038e-05 -0.00011886834)
(0 3.4929524e-05 -0.00014489643)
(0 6.1402127e-08 6.6483827e-05)
(0 3.1523398e-07 0.00015882995)
(0 5.7237767e-07 0.0002147404)
(0 6.4812605e-07 0.00024840023)
(0 4.1923742e-07 0.00026844424)
(0 9.0426566e-08 0.00027937403)
(0 -1.4822369e-07 0.00028332609)
(0 -3.139224e-07 0.00028133086)
(0 -4.4169038e-07 0.0002739717)
(0 -5.5933821e-07 0.0002616478)
(0 -6.2129939e-07 0.00024474929)
(0 -4.1962608e-07 0.00022367586)
(0 -3.9334626e-09 0.00019888901)
(0 2.7877059e-07 0.00017084587)
(0 4.3247316e-07 0.00014002439)
(0 5.3336976e-07 0.00010702255)
(0 5.264515e-07 7.2420737e-05)
(0 4.4841066e-07 3.6812076e-05)
(0 2.8662001e-07 8.0700231e-07)
(0 7.3629594e-08 -3.5024201e-05)
(0 -1.4306871e-07 -7.0123853e-05)
(0 -3.160982e-07 -0.00010391158)
(0 -4.2771778e-07 -0.00013587204)
(0 -4.9561476e-07 -0.00016551462)
(0 -4.0400559e-05 -9.5558722e-06)
(0 -9.1132382e-05 -2.2760458e-05)
(0 -0.00010545551 -3.078072e-05)
(0 -9.7069385e-05 -3.5700838e-05)
(0 -7.6257268e-05 -3.8704046e-05)
(0 -4.9204029e-05 -4.0315749e-05)
(0 -1.8481118e-05 -4.0908149e-05)
(0 1.356163e-05 -4.063492e-05)
(0 4.5956004e-05 -3.9594826e-05)
(0 7.7630314e-05 -3.7864137e-05)
(0 0.00010786276 -3.5479092e-05)
(0 0.0001362789 -3.2502884e-05)
(0 0.00016171216 -2.8993063e-05)
(0 0.00018457992 -2.494998e-05)
(0 0.00020423675 -2.0552756e-05)
(0 0.00022019837 -1.5873236e-05)
(0 0.00023235094 -1.0928263e-05)
(0 0.00024045929 -5.8042802e-06)
(0 0.00024433452 -5.8321629e-07)
(0 0.00024401976 4.6020696e-06)
(0 0.00023951046 9.7132743e-06)
(0 0.00023103686 1.4684908e-05)
(0 0.00021878053 1.9435559e-05)
(0 0.000203063 2.3837657e-05)
(0 -3.1051854e-05 4.6695827e-08)
(0 -7.3549948e-05 1.3441487e-07)
(0 -8.7441834e-05 2.4460958e-07)
(0 -8.1914297e-05 3.0984348e-07)
(0 -6.5111352e-05 2.2892354e-07)
(0 -4.2614675e-05 2.3686992e-07)
(0 -1.6618663e-05 2.4013231e-07)
(0 1.0649353e-05 2.3583721e-07)
(0 3.8356045e-05 2.1213719e-07)
(0 6.5493692e-05 1.6911769e-07)
(0 9.1502329e-05 1.1821462e-07)
(0 0.00011600703 7.4778428e-08)
(0 0.00013810248 1.8035381e-08)
(0 0.00015779555 2.2482096e-08)
(0 0.00017491723 -4.435012e-08)
(0 0.00018883356 -9.4067026e-08)
(0 0.00019942671 -1.2047744e-07)
(0 0.00020652024 -1.1622662e-07)
(0 0.00020993495 -8.4757505e-08)
(0 0.00020973796 -8.9763241e-08)
(0 0.00020584293 -7.1201173e-08)
(0 0.00019856245 -1.194713e-09)
(0 0.00018796429 5.0446912e-08)
(0 0.00017444938 8.8668538e-08)
(0 -2.3966166e-05 8.9188368e-06)
(0 -5.8056028e-05 2.2816941e-05)
(0 -7.0238579e-05 3.1832364e-05)
(0 -6.6642883e-05 3.7413335e-05)
(0 -5.3583441e-05 4.0680846e-05)
(0 -3.56157e-05 4.2423307e-05)
(0 -1.4560089e-05 4.3012165e-05)
(0 7.6302161e-06 4.2649822e-05)
(0 3.025665e-05 4.1436284e-05)
(0 5.2457663e-05 3.9474941e-05)
(0 7.3820185e-05 3.6826215e-05)
(0 9.4081715e-05 3.3477567e-05)
(0 0.00011255605 2.9685515e-05)
(0 0.00012887074 2.5444414e-05)
(0 0.00014302926 2.0821763e-05)
(0 0.00015441649 1.5847255e-05)
(0 0.00016313178 1.0701971e-05)
(0 0.00016900782 5.4455833e-06)
(0 0.00017175707 1.3162759e-07)
(0 0.00017154315 -5.2170239e-06)
(0 0.00016824375 -1.0460393e-05)
(0 0.00016220648 -1.5490399e-05)
(0 0.00015345679 -2.0267725e-05)
(0 0.00014237824 -2.4768445e-05)
(0 -1.7861458e-05 1.7457147e-05)
(0 -4.3532016e-05 4.5322698e-05)
(0 -5.3090878e-05 6.3821713e-05)
(0 -5.0811029e-05 7.5267119e-05)
(0 -4.1358547e-05 8.1971459e-05)
(0 -2.8029618e-05 8.5500207e-05)
(0 -1.2221904e-05 8.6625216e-05)
(0 4.5321226e-06 8.5846864e-05)
(0 2.1672473e-05 8.3370011e-05)
(0 3.8533692e-05 7.9420556e-05)
(0 5.4853512e-05 7.4102803e-05)
(0 7.0741141e-05 6.7477573e-05)
(0 8.5427253e-05 5.9919746e-05)
(0 9.8102222e-05 5.1375873e-05)
(0 0.000109033 4.2039692e-05)
(0 0.00011783248 3.2082316e-05)
(0 0.00012450424 2.1692476e-05)
(0 0.00012895846 1.1028792e-05)
(0 0.00013096732 2.5618236e-07)
(0 0.0001305547 -1.0520367e-05)
(0 0.00012791868 -2.111596e-05)
(0 0.00012327329 -3.1328731e-05)
(0 0.00011656451 -4.1051653e-05)
(0 0.00010810219 -5.020136e-05)
(0 -1.2101265e-05 2.5922457e-05)
(0 -2.9204817e-05 6.7682432e-05)
(0 -3.566176e-05 9.5602079e-05)
(0 -3.4265712e-05 0.00011285647)
(0 -2.825726e-05 0.00012301321)
(0 -1.9605254e-05 0.00012837295)
(0 -9.2224673e-06 0.00013010487)
(0 1.87869e-06 0.00012897451)
(0 1.326866e-05 0.00012526876)
(0 2.4515604e-05 0.00011931502)
(0 3.5527598e-05 0.00011133929)
(0 4.642643e-05 0.00010150007)
(0 5.6920554e-05 9.0135425e-05)
(0 6.5827425e-05 7.7314237e-05)
(0 7.3439648e-05 6.328818e-05)
(0 7.9333012e-05 4.8313932e-05)
(0 8.3846735e-05 3.2658817e-05)
(0 8.6853082e-05 1.6575018e-05)
(0 8.8107331e-05 3.2757871e-07)
(0 8.7701764e-05 -1.588685e-05)
(0 8.5764777e-05 -3.1827495e-05)
(0 8.2581973e-05 -4.7247687e-05)
(0 7.8025026e-05 -6.1924469e-05)
(0 7.2316634e-05 -7.5663142e-05)
(0 -6.2869382e-06 3.4585538e-05)
(0 -1.4714379e-05 8.9870721e-05)
(0 -1.7694658e-05 0.00012649129)
(0 -1.6994002e-05 0.00014899951)
(0 -1.4205949e-05 0.00016238146)
(0 -1.0158542e-05 0.00016950511)
(0 -5.1865698e-06 0.00017199705)
(0 1.8670827e-07 0.00017061734)
(0 5.7184218e-06 0.00016586161)
(0 1.1194402e-05 0.00015806321)
(0 1.6630361e-05 0.00014756041)
(0 2.2335164e-05 0.00013461331)
(0 2.8081662e-05 0.0001195687)
(0 3.2905493e-05 0.00010258958)
(0 3.682305e-05 8.4009381e-05)
(0 3.9908231e-05 6.4149857e-05)
(0 4.217952e-05 4.3368917e-05)
(0 4.3632218e-05 2.199222e-05)
(0 4.4142758e-05 3.9812167e-07)
(0 4.3798985e-05 -2.1128918e-05)
(0 4.2673676e-05 -4.2303991e-05)
(0 4.0949873e-05 -6.2767589e-05)
(0 3.8667182e-05 -8.2194972e-05)
(0 3.5832416e-05 -0.00010033586)
(0 1.1243124e-07 4.3904533e-05)
(0 5.0960351e-07 0.00011217319)
(0 8.3103238e-07 0.0001563717)
(0 8.4459217e-07 0.00018343659)
(0 4.7598388e-07 0.00019952051)
(0 7.529999e-09 0.00020813833)
(0 -3.0513037e-07 0.00021120996)
(0 -5.5430251e-07 0.00020961137)
(0 -7.7985741e-07 0.00020392034)
(0 -1.0093841e-06 0.00019450453)
(0 -1.1206889e-06 0.0001817245)
(0 -6.8528107e-07 0.00016588922)
(0 1.0128655e-07 0.00014739133)
(0 5.3879868e-07 0.00012653886)
(0 7.9991974e-07 0.00010363994)
(0 8.8848615e-07 7.9173179e-05)
(0 8.5203651e-07 5.3540417e-05)
(0 7.3539537e-07 2.7162728e-05)
(0 4.8024081e-07 4.9156154e-07)
(0 1.6558161e-07 -2.6095165e-05)
(0 -1.6584681e-07 -5.2216282e-05)
(0 -4.0945624e-07 -7.7425513e-05)
(0 -5.5706431e-07 -0.00010135431)
(0 -6.3630671e-07 -0.0001236516)
(0 7.901167e-06 5.5065436e-05)
(0 1.7214249e-05 0.00013558586)
(0 2.0192133e-05 0.00018599697)
(0 1.9212668e-05 0.00021668373)
(0 1.5678048e-05 0.00023486836)
(0 1.0873579e-05 0.00024468807)
(0 5.5527644e-06 0.00024819316)
(0 -5.3627402e-09 0.00024637269)
(0 -5.6338464e-06 0.00023980334)
(0 -1.120599e-05 0.00022887387)
(0 -1.648643e-05 0.00021395066)
(0 -2.1171875e-05 0.00019541348)
(0 -2.5196292e-05 0.0001736715)
(0 -2.8918698e-05 0.00014910285)
(0 -3.2336228e-05 0.00012214467)
(0 -3.5291822e-05 9.3321897e-05)
(0 -3.7685801e-05 6.3116433e-05)
(0 -3.9456196e-05 3.2036248e-05)
(0 -4.0628551e-05 6.1372815e-07)
(0 -4.1136563e-05 -3.0670816e-05)
(0 -4.0939535e-05 -6.135334e-05)
(0 -4.0013583e-05 -9.0919054e-05)
(0 -3.8357041e-05 -0.00011892551)
(0 -3.6034776e-05 -0.00014495508)
(0 -3.2721136e-05 -1.8504885e-05)
(0 -7.4992495e-05 -4.5364772e-05)
(0 -8.8045637e-05 -6.2334908e-05)
(0 -8.1906752e-05 -7.2761519e-05)
(0 -6.4912526e-05 -7.890788e-05)
(0 -4.2304504e-05 -8.2234559e-05)
(0 -1.6423341e-05 -8.3443578e-05)
(0 1.0688975e-05 -8.2840223e-05)
(0 3.8138986e-05 -8.0645876e-05)
(0 6.5015788e-05 -7.7015477e-05)
(0 9.0722775e-05 -7.206321e-05)
(0 0.00011479249 -6.5868071e-05)
(0 0.00013662195 -5.8636161e-05)
(0 0.00015606659 -5.0382359e-05)
(0 0.00017287435 -4.1397518e-05)
(0 0.00018647453 -3.1765702e-05)
(0 0.00019679802 -2.1669211e-05)
(0 0.00020370452 -1.1275417e-05)
(0 0.0002069984 -7.2485473e-07)
(0 0.0002067172 9.7721489e-06)
(0 0.00020284645 2.006469e-05)
(0 0.00019561757 3.0064478e-05)
(0 0.00018511448 3.9545686e-05)
(0 0.00017173108 4.8377212e-05)
(0 -2.3929905e-05 -8.834133e-06)
(0 -5.7973506e-05 -2.2598953e-05)
(0 -7.0092161e-05 -3.1493419e-05)
(0 -6.6411074e-05 -3.7016072e-05)
(0 -5.33384e-05 -4.0358186e-05)
(0 -3.5267175e-05 -4.2100891e-05)
(0 -1.4169274e-05 -4.269832e-05)
(0 8.0809854e-06 -4.235966e-05)
(0 3.0724597e-05 -4.1209153e-05)
(0 5.29507e-05 -3.9342151e-05)
(0 7.4276196e-05 -3.6801496e-05)
(0 9.4378435e-05 -3.3559368e-05)
(0 0.00011254067 -2.9906257e-05)
(0 0.0001289146 -2.5718161e-05)
(0 0.00014300362 -2.1137177e-05)
(0 0.00015441458 -1.6238435e-05)
(0 0.00016308872 -1.1085096e-05)
(0 0.00016893821 -5.7723549e-06)
(0 0.00017169599 -3.6933433e-07)
(0 0.00017151028 5.0097052e-06)
(0 0.00016821416 1.0291919e-05)
(0 0.00016212753 1.5465316e-05)
(0 0.00015334569 2.0420597e-05)
(0 0.00014219069 2.5027795e-05)
(0 -1.7187144e-05 5.0136511e-08)
(0 -4.2817012e-05 1.4513688e-07)
(0 -5.2698567e-05 2.3801778e-07)
(0 -5.0632659e-05 2.9403746e-07)
(0 -4.1147931e-05 1.6259113e-07)
(0 -2.7608361e-05 1.5591612e-07)
(0 -1.1532042e-05 1.7992911e-07)
(0 5.4890054e-06 1.7532163e-07)
(0 2.2871626e-05 1.4943814e-07)
(0 3.9953139e-05 1.043694e-07)
(0 5.6443947e-05 5.2225405e-08)
(0 7.227962e-05 -6.1050626e-09)
(0 8.6740074e-05 -4.1162108e-08)
(0 9.9368895e-05 -1.1316946e-07)
(0 0.00011045308 -1.5327997e-07)
(0 0.00011922757 -1.7163928e-07)
(0 0.00012591311 -1.6972039e-07)
(0 0.00013040797 -1.5654168e-07)
(0 0.0001324287 -1.2783241e-07)
(0 0.00013199181 -1.2523073e-07)
(0 0.0001292924 -1.2683629e-07)
(0 0.0001245132 -5.3913537e-08)
(0 0.00011762329 4.7461965e-08)
(0 0.00010901501 1.2831345e-07)
(0 -1.1295057e-05 8.6551096e-06)
(0 -2.8372646e-05 2.3002251e-05)
(0 -3.530069e-05 3.274353e-05)
(0 -3.4261271e-05 3.8812735e-05)
(0 -2.8232161e-05 4.2328353e-05)
(0 -1.935511e-05 4.4156523e-05)
(0 -8.6261946e-06 4.4636023e-05)
(0 2.7985361e-06 4.4176786e-05)
(0 1.4510253e-05 4.2850179e-05)
(0 2.6062935e-05 4.0752688e-05)
(0 3.7332128e-05 3.7948683e-05)
(0 4.8450741e-05 3.4441923e-05)
(0 5.8956267e-05 3.0536049e-05)
(0 6.7994308e-05 2.6120096e-05)
(0 7.5693787e-05 2.1330281e-05)
(0 8.1642628e-05 1.6261412e-05)
(0 8.6173678e-05 1.0965251e-05)
(0 8.9204612e-05 5.5267845e-06)
(0 9.0440104e-05 4.3330259e-08)
(0 8.9840721e-05 -5.4672874e-06)
(0 8.7819724e-05 -1.0890069e-05)
(0 8.4448164e-05 -1.6088501e-05)
(0 7.9626047e-05 -2.1040057e-05)
(0 7.3702429e-05 -2.5739498e-05)
(0 -5.6388944e-06 1.7083549e-05)
(0 -1.4000195e-05 4.5571334e-05)
(0 -1.7445013e-05 6.5082294e-05)
(0 -1.7078461e-05 7.7225874e-05)
(0 -1.4391192e-05 8.4343141e-05)
(0 -1.0273914e-05 8.8041418e-05)
(0 -5.1250751e-06 8.9063358e-05)
(0 4.5014588e-07 8.8195406e-05)
(0 6.2051487e-06 8.554499e-05)
(0 1.1920953e-05 8.1402054e-05)
(0 1.7611826e-05 7.5843281e-05)
(0 2.3767027e-05 6.9045621e-05)
(0 2.9894161e-05 6.1276787e-05)
(0 3.4865152e-05 5.2483668e-05)
(0 3.8999021e-05 4.2945534e-05)
(0 4.2010815e-05 3.2759211e-05)
(0 4.4255969e-05 2.2129981e-05)
(0 4.5717851e-05 1.1202664e-05)
(0 4.6155644e-05 1.7383159e-07)
(0 4.5661579e-05 -1.084649e-05)
(0 4.4395817e-05 -2.1713563e-05)
(0 4.2448802e-05 -3.2202764e-05)
(0 3.9910781e-05 -4.2183301e-05)
(0 3.6789265e-05 -5.1593036e-05)
(0 1.9879217e-07 2.5553944e-05)
(0 7.270514e-07 6.7723982e-05)
(0 9.8169778e-07 9.6331714e-05)
(0 8.4223646e-07 0.00011406754)
(0 3.2462182e-07 0.00012455552)
(0 -2.5971322e-07 0.00013007541)
(0 -6.5194799e-07 0.00013185549)
(0 -9.9159714e-07 0.00013071229)
(0 -1.3115043e-06 0.00012691767)
(0 -1.6178234e-06 0.00012085383)
(0 -1.6898349e-06 0.00011272336)
(0 -1.0123989e-06 0.00010273224)
(0 1.6301188e-07 9.118395e-05)
(0 8.7269229e-07 7.819301e-05)
(0 1.2322711e-06 6.3972163e-05)
(0 1.1763044e-06 4.8840807e-05)
(0 1.0824584e-06 3.3007086e-05)
(0 9.5649512e-07 1.6724934e-05)
(0 6.3393686e-07 2.8046983e-07)
(0 2.4559993e-07 -1.6128893e-05)
(0 -1.8834597e-07 -3.2291182e-05)
(0 -5.133159e-07 -4.7915663e-05)
(0 -7.2765655e-07 -6.2758562e-05)
(0 -8.5283532e-07 -7.6655308e-05)
(0 6.5921453e-06 3.4556594e-05)
(0 1.5922581e-05 8.9839357e-05)
(0 1.9479637e-05 0.00012645782)
(0 1.8771724e-05 0.00014896909)
(0 1.5103134e-05 0.00016234494)
(0 9.994324e-06 0.00016946656)
(0 4.3269338e-06 0.00017196489)
(0 -1.6061281e-06 0.00017059178)
(0 -7.6787076e-06 0.00016584671)
(0 -1.3700173e-05 0.00015806368)
(0 -1.933708e-05 0.00014757176)
(0 -2.4036971e-05 0.00013463136)
(0 -2.7851142e-05 0.00011956085)
(0 -3.1420414e-05 0.00010255125)
(0 -3.4832708e-05 8.3956583e-05)
(0 -3.7872099e-05 6.4127672e-05)
(0 -4.0259308e-05 4.335983e-05)
(0 -4.1944586e-05 2.1986117e-05)
(0 -4.3026964e-05 3.821206e-07)
(0 -4.3388279e-05 -2.115833e-05)
(0 -4.3018482e-05 -4.2349131e-05)
(0 -4.1855406e-05 -6.2819049e-05)
(0 -3.9913766e-05 -8.2255959e-05)
(0 -3.727157e-05 -0.00010040084)
(0 1.437058e-05 4.5168896e-05)
(0 3.2388934e-05 0.00011290377)
(0 3.8296309e-05 0.00015623636)
(0 3.6136353e-05 0.00018273021)
(0 2.9156812e-05 0.00019845201)
(0 1.9674365e-05 0.00020689467)
(0 9.0368141e-06 0.0002098675)
(0 -2.0846894e-06 0.00020827261)
(0 -1.3380967e-05 0.00020262672)
(0 -2.4508878e-05 0.00019328182)
(0 -3.5114195e-05 0.00018056732)
(0 -4.4572603e-05 0.00016482142)
(0 -5.2943531e-05 0.00014640599)
(0 -6.0534365e-05 0.0001256291)
(0 -6.7360834e-05 0.00010286948)
(0 -7.3142513e-05 7.8569093e-05)
(0 -7.7659872e-05 5.3127301e-05)
(0 -8.083051e-05 2.6963439e-05)
(0 -8.268293e-05 5.1654191e-07)
(0 -8.3128729e-05 -2.5817647e-05)
(0 -8.2146423e-05 -5.1663784e-05)
(0 -7.9793464e-05 -7.657933e-05)
(0 -7.6046364e-05 -0.00010019176)
(0 -7.1019994e-05 -0.00012216538)
(0 -2.610698e-05 -2.724037e-05)
(0 -6.0033927e-05 -6.7869128e-05)
(0 -7.0983082e-05 -9.4002397e-05)
(0 -6.6451082e-05 -0.00011007349)
(0 -5.3108141e-05 -0.00011950151)
(0 -3.5008996e-05 -0.00012456879)
(0 -1.4204608e-05 -0.0001263377)
(0 7.6509699e-06 -0.000125353)
(0 2.9808614e-05 -0.00012194458)
(0 5.1557035e-05 -0.0001163518)
(0 7.2379417e-05 -0.00010879237)
(0 9.1971658e-05 -9.9377041e-05)
(0 0.00010963876 -8.8404944e-05)
(0 0.00012573781 -7.593384e-05)
(0 0.00013944357 -6.2277783e-05)
(0 0.00015056582 -4.7663336e-05)
(0 0.000158991 -3.2375885e-05)
(0 0.00016466942 -1.6661807e-05)
(0 0.00016736002 -7.4082772e-07)
(0 0.00016709848 1.50922e-05)
(0 0.00016394808 3.0599836e-05)
(0 0.0001580416 4.56485e-05)
(0 0.00014952635 5.9959016e-05)
(0 0.00013862949 7.3279839e-05)
(0 -1.7796477e-05 -1.7389953e-05)
(0 -4.3340498e-05 -4.5161918e-05)
(0 -5.2814544e-05 -6.3635393e-05)
(0 -5.0416852e-05 -7.5097488e-05)
(0 -4.0855866e-05 -8.1723685e-05)
(0 -2.7290542e-05 -8.5250677e-05)
(0 -1.136047e-05 -8.6424031e-05)
(0 5.499082e-06 -8.569035e-05)
(0 2.2679897e-05 -8.3291378e-05)
(0 3.9583488e-05 -7.94452e-05)
(0 5.5863637e-05 -7.4238972e-05)
(0 7.1291278e-05 -6.7764328e-05)
(0 8.541371e-05 -6.0256868e-05)
(0 9.7986837e-05 -5.1812912e-05)
(0 0.00010898566 -4.2504097e-05)
(0 0.00011772661 -3.2531323e-05)
(0 0.00012436868 -2.209239e-05)
(0 0.0001288481 -1.1368733e-05)
(0 0.00013091622 -4.9379374e-07)
(0 0.0001306088 1.0331865e-05)
(0 0.00012797862 2.0953999e-05)
(0 0.00012326719 3.130776e-05)
(0 0.0001163967 4.1207723e-05)
(0 0.00010775223 5.0454583e-05)
(0 -1.1243408e-05 -8.5710994e-06)
(0 -2.8251404e-05 -2.2775205e-05)
(0 -3.509593e-05 -3.2442696e-05)
(0 -3.4025093e-05 -3.8482361e-05)
(0 -2.7929044e-05 -4.206318e-05)
(0 -1.8929151e-05 -4.3899471e-05)
(0 -8.1235774e-06 -4.4378924e-05)
(0 3.3336867e-06 -4.3951818e-05)
(0 1.5049863e-05 -4.2693373e-05)
(0 2.6607787e-05 -4.0693127e-05)
(0 3.782486e-05 -3.7997144e-05)
(0 4.8729174e-05 -3.4593366e-05)
(0 5.8812721e-05 -3.0756435e-05)
(0 6.7849028e-05 -2.648671e-05)
(0 7.5510448e-05 -2.175077e-05)
(0 8.152463e-05 -1.6638065e-05)
(0 8.6053016e-05 -1.1303395e-05)
(0 8.9114198e-05 -5.832555e-06)
(0 9.0388843e-05 -2.8630477e-07)
(0 8.9839448e-05 5.2354994e-06)
(0 8.7826812e-05 1.0654178e-05)
(0 8.4412613e-05 1.5966044e-05)
(0 7.9535571e-05 2.1098561e-05)
(0 7.3540212e-05 2.594486e-05)
(0 -5.3960098e-06 3.8257511e-08)
(0 -1.3678229e-05 1.0052501e-07)
(0 -1.7267496e-05 1.5487473e-07)
(0 -1.7017794e-05 1.7545921e-07)
(0 -1.4309196e-05 1.1864463e-07)
(0 -1.0051374e-05 1.1456201e-07)
(0 -4.7560384e-06 1.4322327e-07)
(0 9.0097606e-07 1.3390264e-07)
(0 6.7427633e-06 1.0721721e-07)
(0 1.2549305e-05 6.6281627e-08)
(0 1.8320475e-05 5.2727883e-08)
(0 2.4432165e-05 1.3822966e-08)
(0 3.0370584e-05 2.1996005e-08)
(0 3.5331678e-05 -1.0971348e-07)
(0 3.9606801e-05 -1.1465605e-07)
(0 4.2610195e-05 -1.1422372e-07)
(0 4.4872411e-05 -1.0423701e-07)
(0 4.6396647e-05 -1.0886413e-07)
(0 4.6874648e-05 -1.0371003e-07)
(0 4.6375823e-05 -1.2094885e-07)
(0 4.5097532e-05 -1.4182425e-07)
(0 4.3118911e-05 -1.194219e-07)
(0 4.0396841e-05 1.7531399e-09)
(0 3.7109595e-05 9.2484035e-08)
(0 2.9444482e-07 8.603712e-06)
(0 9.4464903e-07 2.3136027e-05)
(0 1.1296898e-06 3.31408e-05)
(0 8.6318185e-07 3.9406248e-05)
(0 2.6285642e-07 4.3032712e-05)
(0 -3.5782998e-07 4.4895766e-05)
(0 -7.98998e-07 4.5277533e-05)
(0 -1.2490392e-06 4.4764729e-05)
(0 -1.6408066e-06 4.339477e-05)
(0 -1.9742004e-06 4.1244742e-05)
(0 -1.9656298e-06 3.8415101e-05)
(0 -1.2683991e-06 3.4955496e-05)
(0 -2.2257616e-08 3.1019034e-05)
(0 9.3752576e-07 2.6526726e-05)
(0 1.3550974e-06 2.166428e-05)
(0 1.2189153e-06 1.6538097e-05)
(0 1.0989019e-06 1.1168327e-05)
(0 1.0012234e-06 5.6377451e-06)
(0 6.8021977e-07 6.006619e-08)
(0 2.9044923e-07 -5.5233395e-06)
(0 -1.8983678e-07 -1.1041722e-05)
(0 -5.9686076e-07 -1.633563e-05)
(0 -9.0617816e-07 -2.1373131e-05)
(0 -1.1156792e-06 -2.6193755e-05)
(0 6.1199469e-06 1.7065342e-05)
(0 1.5605402e-05 4.5527714e-05)
(0 1.9503944e-05 6.5022807e-05)
(0 1.8792781e-05 7.7159627e-05)
(0 1.4971966e-05 8.4278947e-05)
(0 9.6163815e-06 8.7984224e-05)
(0 3.6286446e-06 8.9023141e-05)
(0 -2.6567524e-06 8.816491e-05)
(0 -9.11575e-06 8.5528281e-05)
(0 -1.5472935e-05 8.1406913e-05)
(0 -2.1336263e-05 7.5875787e-05)
(0 -2.5931559e-05 6.9107369e-05)
(0 -2.9604698e-05 6.1328488e-05)
(0 -3.3087229e-05 5.2513317e-05)
(0 -3.6480238e-05 4.2958308e-05)
(0 -3.9660804e-05 3.2800898e-05)
(0 -4.2112372e-05 2.217656e-05)
(0 -4.3787725e-05 1.1240629e-05)
(0 -4.4851382e-05 1.9448345e-07)
(0 -4.5124934e-05 -1.0841488e-05)
(0 -4.4757362e-05 -2.1730152e-05)
(0 -4.3537656e-05 -3.2234695e-05)
(0 -4.1495408e-05 -4.2243947e-05)
(0 -3.8689355e-05 -5.1664277e-05)
(0 1.2511077e-05 2.5893431e-05)
(0 3.0691966e-05 6.7609169e-05)
(0 3.7620064e-05 9.5477543e-05)
(0 3.5919117e-05 0.00011272445)
(0 2.8868851e-05 0.00012288622)
(0 1.9017574e-05 0.00012825996)
(0 7.8848726e-06 0.00013003632)
(0 -3.807312e-06 0.00012892677)
(0 -1.5773666e-05 0.00012524896)
(0 -2.7592642e-05 0.00011932895)
(0 -3.8734472e-05 0.0001113898)
(0 -4.8369643e-05 0.00010156026)
(0 -5.6774298e-05 9.0163755e-05)
(0 -6.4392649e-05 7.7326182e-05)
(0 -7.1375013e-05 6.3291583e-05)
(0 -7.7369671e-05 4.8345289e-05)
(0 -8.1991201e-05 3.2708212e-05)
(0 -8.5159771e-05 1.6618149e-05)
(0 -8.6956205e-05 3.4242098e-07)
(0 -8.723804e-05 -1.5899233e-05)
(0 -8.6076057e-05 -3.1884292e-05)
(0 -8.3473174e-05 -4.7338738e-05)
(0 -7.9330038e-05 -6.2038989e-05)
(0 -7.3845861e-05 -7.5793491e-05)
(0 2.0428651e-05 3.6059441e-05)
(0 4.69119e-05 9.0393804e-05)
(0 5.5647464e-05 0.00012546011)
(0 5.234056e-05 0.00014700099)
(0 4.1850301e-05 0.00015975837)
(0 2.7626124e-05 0.00016658596)
(0 1.1635507e-05 0.00016892421)
(0 -5.0602432e-06 0.0001675864)
(0 -2.2041889e-05 0.00016297766)
(0 -3.8735029e-05 0.00015538869)
(0 -5.4572413e-05 0.00014514824)
(0 -6.879056e-05 0.00013245198)
(0 -8.1506988e-05 0.00011763613)
(0 -9.2929965e-05 0.00010092733)
(0 -0.0001030681 8.2641481e-05)
(0 -0.00011156505 6.3140344e-05)
(0 -0.00011810199 4.2730865e-05)
(0 -0.00012258178 2.1742755e-05)
(0 -0.00012501903 5.2208416e-07)
(0 -0.00012532036 -2.0615641e-05)
(0 -0.0001235106 -4.1364284e-05)
(0 -0.00011966667 -6.1391963e-05)
(0 -0.00011371628 -8.0385153e-05)
(0 -0.00010586458 -9.8092823e-05)
(0 -2.0061298e-05 -3.602649e-05)
(0 -4.5662751e-05 -9.0316234e-05)
(0 -5.398708e-05 -0.00012537859)
(0 -5.0798307e-05 -0.00014693656)
(0 -4.0959773e-05 -0.00015968629)
(0 -2.7458515e-05 -0.00016651562)
(0 -1.1927667e-05 -0.00016886499)
(0 4.4280909e-06 -0.00016754597)
(0 2.1025555e-05 -0.00016297253)
(0 3.7368714e-05 -0.00015543446)
(0 5.3095734e-05 -0.00014526538)
(0 6.7900485e-05 -0.00013265677)
(0 8.1429999e-05 -0.00011790968)
(0 9.3724584e-05 -0.00010129134)
(0 0.00010431348 -8.3017737e-05)
(0 0.00011287959 -6.3452219e-05)
(0 0.00011936434 -4.2993415e-05)
(0 0.00012376792 -2.1993558e-05)
(0 0.00012588415 -7.2704526e-07)
(0 0.000125735 2.0442962e-05)
(0 0.00012333682 4.1176342e-05)
(0 0.00011895119 6.1268413e-05)
(0 0.00011251979 8.0348382e-05)
(0 0.00010431659 9.8119077e-05)
(0 -1.2023799e-05 -2.5848686e-05)
(0 -2.9067614e-05 -6.7509874e-05)
(0 -3.5391808e-05 -9.5381954e-05)
(0 -3.3939571e-05 -0.00011265714)
(0 -2.7721889e-05 -0.00012279579)
(0 -1.8750267e-05 -0.00012816251)
(0 -8.1737441e-06 -0.00012994715)
(0 3.0118408e-06 -0.0001288577)
(0 1.4427608e-05 -0.00012522172)
(0 2.5716515e-05 -0.00011936205)
(0 3.6659434e-05 -0.00011149782)
(0 4.7117001e-05 -0.00010176001)
(0 5.6705385e-05 -9.0438125e-05)
(0 6.5556399e-05 -7.7721915e-05)
(0 7.3090031e-05 -6.3707579e-05)
(0 7.9092729e-05 -4.8687346e-05)
(0 8.3606612e-05 -3.298681e-05)
(0 8.6693527e-05 -1.6868105e-05)
(0 8.8042202e-05 -5.4097813e-07)
(0 8.7740213e-05 1.5727821e-05)
(0 8.5826309e-05 3.1679425e-05)
(0 8.254721e-05 4.7207894e-05)
(0 7.7851612e-05 6.2018953e-05)
(0 7.1961195e-05 7.5856507e-05)
(0 -5.5356179e-06 -1.7006299e-05)
(0 -1.3733976e-05 -4.5395024e-05)
(0 -1.7122874e-05 -6.4878317e-05)
(0 -1.6730858e-05 -7.704097e-05)
(0 -1.3920679e-05 -8.4145103e-05)
(0 -9.5835481e-06 -8.7849341e-05)
(0 -4.3091408e-06 -8.8914443e-05)
(0 1.2646099e-06 -8.8097232e-05)
(0 7.0052208e-06 -8.5526023e-05)
(0 1.2732045e-05 -8.1484752e-05)
(0 1.8411909e-05 -7.6047829e-05)
(0 2.4108037e-05 -6.9336866e-05)
(0 2.9561464e-05 -6.1554357e-05)
(0 3.4356479e-05 -5.2947178e-05)
(0 3.8553243e-05 -4.3379581e-05)
(0 4.1652651e-05 -3.3133943e-05)
(0 4.3950057e-05 -2.2434491e-05)
(0 4.5519379e-05 -1.1467239e-05)
(0 4.6054884e-05 -3.7179633e-07)
(0 4.5654409e-05 1.0670974e-05)
(0 4.4396737e-05 2.1514147e-05)
(0 4.2448591e-05 3.2091787e-05)
(0 3.9743052e-05 4.2255402e-05)
(0 3.6518779e-05 5.1776594e-05)
(0 3.5299119e-07 -8.5373513e-06)
(0 1.0831292e-06 -2.2976272e-05)
(0 1.3094346e-06 -3.2921354e-05)
(0 1.048978e-06 -3.9184687e-05)
(0 5.246794e-07 -4.2855707e-05)
(0 1.0155892e-08 -4.4724234e-05)
(0 -3.8849507e-07 -4.5095168e-05)
(0 -9.0134459e-07 -4.4627731e-05)
(0 -1.3180563e-06 -4.3328732e-05)
(0 -1.6371858e-06 -4.1265214e-05)
(0 -1.6256208e-06 -3.8471089e-05)
(0 -1.117588e-06 -3.5045637e-05)
(0 -2.1360199e-07 -3.1066976e-05)
(0 6.2174415e-07 -2.6726092e-05)
(0 1.0639093e-06 -2.1898221e-05)
(0 1.0151303e-06 -1.6712654e-05)
(0 9.4908922e-07 -1.130888e-05)
(0 9.293908e-07 -5.7828873e-06)
(0 6.5982011e-07 -1.8970967e-07)
(0 3.1349488e-07 5.3683539e-06)
(0 -1.4688749e-07 1.0828552e-05)
(0 -5.8500349e-07 1.6171688e-05)
(0 -9.6116743e-07 2.1370333e-05)
(0 -1.2350699e-06 2.6333424e-05)
(0 6.0731754e-06 2.8950386e-08)
(0 1.5743784e-05 6.4352318e-08)
(0 1.9745644e-05 1.1915527e-07)
(0 1.8949317e-05 1.3346941e-07)
(0 1.5082227e-05 7.7776745e-08)
(0 9.6501799e-06 7.5376854e-08)
(0 3.4876349e-06 1.0769484e-07)
(0 -3.1289919e-06 9.4684178e-08)
(0 -9.7817853e-06 6.7936822e-08)
(0 -1.6223107e-05 4.0462579e-08)
(0 -2.2003279e-05 5.9280646e-08)
(0 -2.6629124e-05 6.301532e-08)
(0 -3.0437454e-05 1.0187995e-07)
(0 -3.3973845e-05 1.9684607e-08)
(0 -3.7303187e-05 5.2807166e-09)
(0 -4.0470472e-05 6.1445728e-09)
(0 -4.2909364e-05 2.5643208e-09)
(0 -4.4539299e-05 -2.1213151e-08)
(0 -4.5571055e-05 -3.8073804e-08)
(0 -4.5778433e-05 -7.230909e-08)
(0 -4.5417913e-05 -1.0993753e-07)
(0 -4.4273825e-05 -1.0458204e-07)
(0 -4.223881e-05 -2.3430218e-08)
(0 -3.9424141e-05 5.3669451e-08)
(0 1.1911409e-05 8.6313529e-06)
(0 3.0313589e-05 2.2930365e-05)
(0 3.7725958e-05 3.2663912e-05)
(0 3.6221861e-05 3.8715792e-05)
(0 2.9070122e-05 4.2235913e-05)
(0 1.8961404e-05 4.4071389e-05)