/*--------------------------------*- C++ -*----------------------------------*\
| =========                 |                                                 |
| \\      /  F ield         | OpenFOAM: The Open Source CFD Toolbox           |
|  \\    /   O peration     | Version:  4.1                                   |
|   \\  /    A nd           | Web:      www.OpenFOAM.org                      |
|    \\/     M anipulation  |                                                 |
\*---------------------------------------------------------------------------*/
FoamFile
{
    version     2.0;
    format      ascii;
    class       volVectorField;
    location    "0.0047";
    object      cellDisplacement;
}
// * * * * * * * * * * * * * * * * * * * * * * * * * * * * * * * * * * * * * //

dimensions      [0 1 0 0 0 0 0];

internalField   nonuniform List<vector> 
1536
(
(-2.284e-05 -5.2552e-05 1.8215e-08)
(-1.9405e-05 -4.697e-05 1.6218e-08)
(-1.6419e-05 -4.0442e-05 1.3923e-08)
(-1.389e-05 -3.2968e-05 1.138e-08)
(-1.1722e-05 -2.477e-05 8.6746e-09)
(-9.7812e-06 -1.6393e-05 5.964e-09)
(-7.9607e-06 -8.6327e-06 3.4634e-09)
(-6.2126e-06 -2.3309e-06 1.4212e-09)
(-4.5516e-06 1.8575e-06 2.6362e-11)
(-3.0325e-06 3.6441e-06 -6.5727e-10)
(-1.7023e-06 3.2208e-06 -6.9135e-10)
(-5.4385e-07 1.2578e-06 -2.8073e-10)
(-2.2905e-05 -4.6131e-05 7.7059e-06)
(-1.9492e-05 -4.1218e-05 6.8855e-06)
(-1.6507e-05 -3.5476e-05 5.9272e-06)
(-1.3961e-05 -2.8926e-05 4.8348e-06)
(-1.1768e-05 -2.1772e-05 3.6423e-06)
(-9.8065e-06 -1.4486e-05 2.428e-06)
(-7.9766e-06 -7.7482e-06 1.3047e-06)
(-6.2311e-06 -2.2736e-06 3.9137e-07)
(-4.5798e-06 1.3811e-06 -2.191e-07)
(-3.0683e-06 2.9737e-06 -4.8653e-07)
(-1.7338e-06 2.6718e-06 -4.3921e-07)
(-5.5657e-07 1.0488e-06 -1.7261e-07)
(-2.295e-05 -3.905e-05 1.5603e-05)
(-1.9551e-05 -3.4883e-05 1.3939e-05)
(-1.6567e-05 -3.0016e-05 1.1994e-05)
(-1.4009e-05 -2.4477e-05 9.7831e-06)
(-1.18e-05 -1.8446e-05 7.3766e-06)
(-9.8245e-06 -1.2319e-05 4.9325e-06)
(-7.9882e-06 -6.6606e-06 2.6751e-06)
(-6.2444e-06 -2.0612e-06 8.3985e-07)
(-4.5995e-06 1.0192e-06 -3.9067e-07)
(-3.0927e-06 2.382e-06 -9.3757e-07)
(-1.7551e-06 2.1684e-06 -8.5684e-07)
(-5.6513e-07 8.5461e-07 -3.3807e-07)
(-2.2973e-05 -3.1485e-05 2.3607e-05)
(-1.9581e-05 -2.8123e-05 2.1085e-05)
(-1.6598e-05 -2.4196e-05 1.8141e-05)
(-1.4034e-05 -1.9733e-05 1.4796e-05)
(-1.1816e-05 -1.4882e-05 1.1161e-05)
(-9.8339e-06 -9.96e-06 7.4729e-06)
(-7.9943e-06 -5.4174e-06 4.0692e-06)
(-6.2514e-06 -1.7245e-06 1.3018e-06)
(-4.6097e-06 7.5373e-07 -5.5609e-07)
(-3.1052e-06 1.86e-06 -1.3869e-06)
(-1.7659e-06 1.7068e-06 -1.2747e-06)
(-5.6942e-07 6.743e-07 -5.038e-07)
(-2.2973e-05 -2.3604e-05 3.1487e-05)
(-1.9581e-05 -2.1083e-05 2.8124e-05)
(-1.6598e-05 -1.8139e-05 2.4197e-05)
(-1.4034e-05 -1.4795e-05 1.9734e-05)
(-1.1816e-05 -1.116e-05 1.4883e-05)
(-9.8339e-06 -7.4719e-06 9.9608e-06)
(-7.9943e-06 -4.0685e-06 5.4179e-06)
(-6.2514e-06 -1.3015e-06 1.7247e-06)
(-4.6097e-06 5.5624e-07 -7.5373e-07)
(-3.1052e-06 1.3869e-06 -1.8601e-06)
(-1.7659e-06 1.2746e-06 -1.7069e-06)
(-5.6942e-07 5.0378e-07 -6.7434e-07)
(-2.295e-05 -1.5601e-05 3.9051e-05)
(-1.9551e-05 -1.3936e-05 3.4884e-05)
(-1.6567e-05 -1.1992e-05 3.0017e-05)
(-1.4009e-05 -9.7812e-06 2.4478e-05)
(-1.18e-05 -7.375e-06 1.8447e-05)
(-9.8245e-06 -4.9313e-06 1.232e-05)
(-7.9882e-06 -2.6743e-06 6.6608e-06)
(-6.2445e-06 -8.3934e-07 2.0612e-06)
(-4.5996e-06 3.9094e-07 -1.0193e-06)
(-3.0928e-06 9.3768e-07 -2.3823e-06)
(-1.7552e-06 8.5687e-07 -2.1686e-06)
(-5.6513e-07 3.3807e-07 -8.5467e-07)
(-2.2905e-05 -7.7032e-06 4.6131e-05)
(-1.9492e-05 -6.883e-06 4.1219e-05)
(-1.6507e-05 -5.9249e-06 3.5477e-05)
(-1.3961e-05 -4.8329e-06 2.8926e-05)
(-1.1768e-05 -3.6407e-06 2.1772e-05)
(-9.8065e-06 -2.4267e-06 1.4486e-05)
(-7.9766e-06 -1.3038e-06 7.7481e-06)
(-6.2312e-06 -3.9077e-07 2.2733e-06)
(-4.5799e-06 2.1945e-07 -1.3815e-06)
(-3.0683e-06 4.8671e-07 -2.9741e-06)
(-1.7338e-06 4.3928e-07 -2.6721e-06)
(-5.5657e-07 1.7263e-07 -1.0489e-06)
(-2.284e-05 -1.5852e-08 5.2552e-05)
(-1.9405e-05 -1.3999e-08 4.697e-05)
(-1.6419e-05 -1.1907e-08 4.0442e-05)
(-1.389e-05 -9.6141e-09 3.2968e-05)
(-1.1722e-05 -7.1927e-09 2.477e-05)
(-9.7813e-06 -4.7859e-09 1.6392e-05)
(-7.9607e-06 -2.5848e-09 8.6323e-06)
(-6.2127e-06 -8.1388e-10 2.3304e-06)
(-4.5517e-06 3.5906e-10 -1.858e-06)
(-3.0325e-06 8.7947e-10 -3.6447e-06)
(-1.7023e-06 8.0194e-10 -3.2212e-06)
(-5.4385e-07 3.1353e-10 -1.2579e-06)
(-2.2905e-05 -4.6129e-05 -7.6746e-06)
(-1.9492e-05 -4.1217e-05 -6.8576e-06)
(-1.6507e-05 -3.5475e-05 -5.9032e-06)
(-1.3961e-05 -2.8925e-05 -4.8152e-06)
(-1.1768e-05 -2.1771e-05 -3.6274e-06)
(-9.8065e-06 -1.4485e-05 -2.4176e-06)
(-7.9766e-06 -7.7478e-06 -1.2985e-06)
(-6.2312e-06 -2.2733e-06 -3.8864e-07)
(-4.5798e-06 1.3813e-06 2.1946e-07)
(-3.0683e-06 2.9738e-06 4.8569e-07)
(-1.7338e-06 2.6718e-06 4.3821e-07)
(-5.5657e-07 1.0488e-06 1.7219e-07)
(-2.2974e-05 -3.9425e-05 3.5108e-08)
(-1.9584e-05 -3.5217e-05 3.1273e-08)
(-1.6601e-05 -3.0302e-05 2.6847e-08)
(-1.4038e-05 -2.4714e-05 2.1924e-08)
(-1.182e-05 -1.8636e-05 1.6677e-08)
(-9.838e-06 -1.2468e-05 1.1416e-08)
(-7.9978e-06 -6.7732e-06 6.5642e-09)
(-6.2536e-06 -2.1431e-06 2.598e-09)
(-4.6103e-06 9.6227e-07 -1.1147e-10)
(-3.1048e-06 2.3452e-06 -1.4183e-09)
(-1.7652e-06 2.1481e-06 -1.4429e-09)
(-5.6919e-07 8.4821e-07 -5.8345e-10)
(-2.3022e-05 -3.2176e-05 8.0645e-06)
(-1.9646e-05 -2.8736e-05 7.2022e-06)
(-1.6664e-05 -2.4719e-05 6.1957e-06)
(-1.409e-05 -2.0163e-05 5.0546e-06)
(-1.1856e-05 -1.5224e-05 3.8178e-06)
(-9.86e-06 -1.0222e-05 2.5659e-06)
(-8.0128e-06 -5.6107e-06 1.4116e-06)
(-6.2693e-06 -1.8601e-06 4.7271e-07)
(-4.6312e-06 6.6346e-07 -1.5961e-07)
(-3.1292e-06 1.804e-06 -4.4641e-07)
(-1.7861e-06 1.6771e-06 -4.1649e-07)
(-5.7747e-07 6.6514e-07 -1.6535e-07)
(-2.3045e-05 -2.4412e-05 1.6284e-05)
(-1.9677e-05 -2.18e-05 1.4542e-05)
(-1.6696e-05 -1.875e-05 1.2508e-05)
(-1.4117e-05 -1.5296e-05 1.0204e-05)
(-1.1875e-05 -1.1557e-05 7.7109e-06)
(-9.8712e-06 -7.7756e-06 5.1896e-06)
(-8.0206e-06 -4.2912e-06 2.8664e-06)
(-6.2774e-06 -1.4569e-06 9.7646e-07)
(-4.6417e-06 4.5359e-07 -2.9788e-07)
(-3.1415e-06 1.324e-06 -8.7924e-07)
(-1.7964e-06 1.2416e-06 -8.2563e-07)
(-5.8158e-07 4.9369e-07 -3.284e-07)
(-2.3045e-05 -1.6281e-05 2.4414e-05)
(-1.9677e-05 -1.4539e-05 2.1802e-05)
(-1.6696e-05 -1.2505e-05 1.8752e-05)
(-1.4117e-05 -1.0202e-05 1.5298e-05)
(-1.1875e-05 -7.709e-06 1.1558e-05)
(-9.8713e-06 -5.1883e-06 7.7767e-06)
(-8.0206e-06 -2.8655e-06 4.2919e-06)
(-6.2774e-06 -9.7594e-07 1.4572e-06)
(-4.6418e-06 2.9811e-07 -4.535e-07)
(-3.1415e-06 8.7929e-07 -1.3241e-06)
(-1.7964e-06 8.2561e-07 -1.2417e-06)
(-5.8158e-07 3.2839e-07 -4.9372e-07)
(-2.3022e-05 -8.0606e-06 3.2177e-05)
(-1.9646e-05 -7.1987e-06 2.8738e-05)
(-1.6664e-05 -6.1926e-06 2.4721e-05)
(-1.409e-05 -5.052e-06 2.0165e-05)
(-1.1856e-05 -3.8157e-06 1.5225e-05)
(-9.86e-06 -2.5643e-06 1.0223e-05)
(-8.0128e-06 -1.4105e-06 5.611e-06)
(-6.2693e-06 -4.7205e-07 1.8602e-06)
(-4.6312e-06 1.5993e-07 -6.6352e-07)
(-3.1293e-06 4.4653e-07 -1.8041e-06)
(-1.7861e-06 4.1651e-07 -1.6772e-06)
(-5.7747e-07 1.6534e-07 -6.6519e-07)
(-2.2974e-05 -3.1161e-08 3.9425e-05)
(-1.9584e-05 -2.7656e-08 3.5218e-05)
(-1.6601e-05 -2.364e-08 3.0302e-05)
(-1.4038e-05 -1.9193e-08 2.4714e-05)
(-1.182e-05 -1.4468e-08 1.8637e-05)
(-9.838e-06 -9.7404e-09 1.2468e-05)
(-7.9978e-06 -5.396e-09 6.7732e-06)
(-6.2536e-06 -1.8681e-09 2.143e-06)
(-4.6104e-06 5.0468e-10 -9.6249e-07)
(-3.1048e-06 1.5902e-09 -2.3454e-06)
(-1.7653e-06 1.4979e-09 -2.1483e-06)
(-5.6919e-07 5.9327e-10 -8.4828e-07)
(-2.2905e-05 7.6779e-06 4.6129e-05)
(-1.9492e-05 6.8607e-06 4.1216e-05)
(-1.6507e-05 5.906e-06 3.5475e-05)
(-1.3961e-05 4.8176e-06 2.8925e-05)
(-1.1768e-05 3.6293e-06 2.1771e-05)
(-9.8065e-06 2.4191e-06 1.4485e-05)
(-7.9767e-06 1.2996e-06 7.7475e-06)
(-6.2312e-06 3.8935e-07 2.2729e-06)
(-4.5799e-06 -2.1904e-07 -1.3817e-06)
(-3.0683e-06 -4.8547e-07 -2.9741e-06)
(-1.7338e-06 -4.3811e-07 -2.6721e-06)
(-5.5657e-07 -1.7217e-07 -1.0489e-06)
(-2.295e-05 -3.9055e-05 -1.5608e-05)
(-1.9551e-05 -3.4888e-05 -1.3942e-05)
(-1.6567e-05 -3.0021e-05 -1.1997e-05)
(-1.4009e-05 -2.4481e-05 -9.7856e-06)
(-1.18e-05 -1.8449e-05 -7.3782e-06)
(-9.8245e-06 -1.2321e-05 -4.9332e-06)
(-7.9882e-06 -6.6613e-06 -2.675e-06)
(-6.2444e-06 -2.0611e-06 -8.3902e-07)
(-4.5995e-06 1.0198e-06 3.9191e-07)
(-3.0927e-06 2.3828e-06 9.3884e-07)
(-1.7551e-06 2.169e-06 8.5778e-07)
(-5.6512e-07 8.5484e-07 3.3841e-07)
(-2.3021e-05 -3.2172e-05 -8.0326e-06)
(-1.9645e-05 -2.8732e-05 -7.1739e-06)
(-1.6664e-05 -2.4716e-05 -6.1713e-06)
(-1.409e-05 -2.0161e-05 -5.0347e-06)
(-1.1856e-05 -1.5222e-05 -3.8026e-06)
(-9.8599e-06 -1.0221e-05 -2.5552e-06)
(-8.0128e-06 -5.6096e-06 -1.4051e-06)
(-6.2693e-06 -1.8593e-06 -4.6962e-07)
(-4.6311e-06 6.6394e-07 1.6031e-07)
(-3.1292e-06 1.8042e-06 4.4585e-07)
(-1.786e-06 1.6772e-06 4.1568e-07)
(-5.7745e-07 6.6518e-07 1.65e-07)
(-2.307e-05 -2.4742e-05 2.7181e-08)
(-1.9709e-05 -2.2092e-05 2.4229e-08)
(-1.6729e-05 -1.8999e-05 2.0812e-08)
(-1.4145e-05 -1.5499e-05 1.7012e-08)
(-1.1895e-05 -1.1716e-05 1.2975e-08)
(-9.8848e-06 -7.8948e-06 8.9463e-09)
(-8.0303e-06 -4.3759e-06 5.247e-09)
(-6.2867e-06 -1.5133e-06 2.2198e-09)
(-4.6529e-06 4.1866e-07 1.3401e-10)
(-3.1538e-06 1.3042e-06 -9.0067e-10)
(-1.8066e-06 1.2321e-06 -9.8164e-10)
(-5.8557e-07 4.9093e-07 -4.047e-10)
(-2.3095e-05 -1.6787e-05 8.4306e-06)
(-1.9741e-05 -1.4987e-05 7.5267e-06)
(-1.6762e-05 -1.2887e-05 6.4722e-06)
(-1.4173e-05 -1.0514e-05 5.2806e-06)
(-1.1915e-05 -7.9527e-06 3.9945e-06)
(-9.8976e-06 -5.3689e-06 2.6973e-06)
(-8.0394e-06 -2.991e-06 1.5036e-06)
(-6.2957e-06 -1.0564e-06 5.3231e-07)
(-4.6639e-06 2.5146e-07 -1.2442e-07)
(-3.1661e-06 8.5544e-07 -4.2802e-07)
(-1.8168e-06 8.1553e-07 -4.0851e-07)
(-5.8961e-07 3.258e-07 -1.6325e-07)
(-2.3095e-05 -8.4261e-06 1.679e-05)
(-1.9741e-05 -7.5226e-06 1.499e-05)
(-1.6762e-05 -6.4685e-06 1.289e-05)
(-1.4173e-05 -5.2775e-06 1.0517e-05)
(-1.1915e-05 -3.9921e-06 7.9547e-06)
(-9.8976e-06 -2.6955e-06 5.3703e-06)
(-8.0394e-06 -1.5024e-06 2.9919e-06)
(-6.2957e-06 -5.3162e-07 1.0569e-06)
(-4.6639e-06 1.2473e-07 -2.5126e-07)
(-3.1662e-06 4.281e-07 -8.5542e-07)
(-1.8168e-06 4.0849e-07 -8.1558e-07)
(-5.8961e-07 1.6323e-07 -3.2583e-07)
(-2.307e-05 -2.161e-08 2.4744e-05)
(-1.9709e-05 -1.9173e-08 2.2094e-05)
(-1.6729e-05 -1.6377e-08 1.9001e-05)
(-1.4145e-05 -1.3285e-08 1.5501e-05)
(-1.1895e-05 -1.0013e-08 1.1717e-05)
(-9.8848e-06 -6.7577e-09 7.8958e-06)
(-8.0304e-06 -3.7815e-09 4.3764e-06)
(-6.2868e-06 -1.3667e-09 1.5136e-06)
(-4.6529e-06 2.631e-10 -4.1858e-07)
(-3.1538e-06 1.0169e-09 -1.3043e-06)
(-1.8066e-06 9.7669e-10 -1.2321e-06)
(-5.8557e-07 3.8982e-10 -4.9096e-07)
(-2.3021e-05 8.0388e-06 3.2171e-05)
(-1.9645e-05 7.1794e-06 2.8732e-05)
(-1.6664e-05 6.1762e-06 2.4716e-05)
(-1.409e-05 5.0388e-06 2.0161e-05)
(-1.1856e-05 3.8058e-06 1.5222e-05)
(-9.8599e-06 2.5576e-06 1.0221e-05)
(-8.0128e-06 1.4067e-06 5.6096e-06)
(-6.2693e-06 4.7057e-07 1.8593e-06)
(-4.6312e-06 -1.5986e-07 -6.6399e-07)
(-3.1292e-06 -4.4571e-07 -1.8043e-06)
(-1.786e-06 -4.1568e-07 -1.6772e-06)
(-5.7745e-07 -1.6501e-07 -6.652e-07)
(-2.295e-05 1.5612e-05 3.9054e-05)
(-1.9551e-05 1.3946e-05 3.4887e-05)
(-1.6567e-05 1.2001e-05 3.002e-05)
(-1.4009e-05 9.7888e-06 2.448e-05)
(-1.18e-05 7.3808e-06 1.8448e-05)
(-9.8245e-06 4.9352e-06 1.2321e-05)
(-7.9882e-06 2.6764e-06 6.661e-06)
(-6.2445e-06 8.399e-07 2.0608e-06)
(-4.5996e-06 -3.9142e-07 -1.02e-06)
(-3.0927e-06 -9.3861e-07 -2.383e-06)
(-1.7551e-06 -8.5769e-07 -2.1691e-06)
(-5.6512e-07 -3.3839e-07 -8.5487e-07)
(-2.2973e-05 -3.1484e-05 -2.3605e-05)
(-1.9581e-05 -2.8121e-05 -2.1084e-05)
(-1.6598e-05 -2.4195e-05 -1.814e-05)
(-1.4034e-05 -1.9732e-05 -1.4795e-05)
(-1.1816e-05 -1.4881e-05 -1.116e-05)
(-9.8339e-06 -9.9596e-06 -7.4719e-06)
(-7.9943e-06 -5.4171e-06 -4.0682e-06)
(-6.2514e-06 -1.7242e-06 -1.3008e-06)
(-4.6097e-06 7.5395e-07 5.5703e-07)
(-3.1052e-06 1.8601e-06 1.3877e-06)
(-1.7659e-06 1.7069e-06 1.2752e-06)
(-5.6942e-07 6.7434e-07 5.0398e-07)
(-2.3045e-05 -2.4396e-05 -1.6279e-05)
(-1.9677e-05 -2.1785e-05 -1.4537e-05)
(-1.6696e-05 -1.8738e-05 -1.2504e-05)
(-1.4117e-05 -1.5286e-05 -1.0201e-05)
(-1.1875e-05 -1.1549e-05 -7.7081e-06)
(-9.8713e-06 -7.7705e-06 -5.1874e-06)
(-8.0207e-06 -4.2883e-06 -2.8646e-06)
(-6.2774e-06 -1.4558e-06 -9.7513e-07)
(-4.6418e-06 4.5351e-07 2.9886e-07)
(-3.1416e-06 1.3234e-06 8.7992e-07)
(-1.7965e-06 1.241e-06 8.2603e-07)
(-5.8159e-07 4.9342e-07 3.2853e-07)
(-2.3095e-05 -1.6779e-05 -8.4078e-06)
(-1.9741e-05 -1.498e-05 -7.5064e-06)
(-1.6762e-05 -1.2881e-05 -6.4546e-06)
(-1.4173e-05 -1.0509e-05 -5.2662e-06)
(-1.1915e-05 -7.9491e-06 -3.9834e-06)
(-9.8976e-06 -5.3664e-06 -2.6895e-06)
(-8.0394e-06 -2.9896e-06 -1.4987e-06)
(-6.2958e-06 -1.0558e-06 -5.2987e-07)
(-4.6639e-06 2.5145e-07 1.2514e-07)
(-3.1662e-06 8.5515e-07 4.2779e-07)
(-1.8168e-06 8.1524e-07 4.0805e-07)
(-5.8962e-07 3.2568e-07 1.6304e-07)
(-2.312e-05 -8.5888e-06 8.3378e-09)
(-1.9774e-05 -7.667e-06 7.4616e-09)
(-1.6796e-05 -6.5917e-06 6.4466e-09)
(-1.4201e-05 -5.3781e-06 5.3251e-09)
(-1.1936e-05 -4.0702e-06 4.1443e-09)
(-9.9113e-06 -2.7524e-06 2.9749e-09)
(-8.0492e-06 -1.5405e-06 1.9037e-09)
(-6.3053e-06 -5.5445e-07 1.0175e-09)
(-4.6752e-06 1.1311e-07 3.8079e-10)
(-3.1786e-06 4.2352e-07 1.6447e-11)
(-1.8271e-06 4.074e-07 -1.0319e-10)
(-5.9363e-07 1.6317e-07 -5.4296e-11)
(-2.312e-05 -2.5649e-09 8.5941e-06)
(-1.9774e-05 -2.2279e-09 7.6718e-06)
(-1.6796e-05 -1.8605e-09 6.596e-06)
(-1.4201e-05 -1.4761e-09 5.3817e-06)
(-1.1936e-05 -1.0903e-09 4.073e-06)
(-9.9113e-06 -7.233e-10 2.7545e-06)
(-8.0492e-06 -3.9993e-10 1.5418e-06)
(-6.3053e-06 -1.4549e-10 5.552e-07)
(-4.6752e-06 2.145e-11 -1.1281e-07)
(-3.1786e-06 9.6715e-11 -4.2347e-07)
(-1.8271e-06 9.3027e-11 -4.0745e-07)
(-5.9363e-07 3.7048e-11 -1.6319e-07)
(-2.3095e-05 8.4157e-06 1.6783e-05)
(-1.9741e-05 7.5135e-06 1.4984e-05)
(-1.6762e-05 6.4609e-06 1.2885e-05)
(-1.4173e-05 5.2714e-06 1.0512e-05)
(-1.1915e-05 3.9875e-06 7.9513e-06)
(-9.8976e-06 2.6924e-06 5.3681e-06)
(-8.0395e-06 1.5006e-06 2.9906e-06)
(-6.2958e-06 5.3096e-07 1.0564e-06)
(-4.6639e-06 -1.2467e-07 -2.5124e-07)
(-3.1662e-06 -4.277e-07 -8.5515e-07)
(-1.8169e-06 -4.081e-07 -8.153e-07)
(-5.8962e-07 -1.6307e-07 -3.2571e-07)
(-2.3045e-05 1.629e-05 2.4394e-05)
(-1.9677e-05 1.4547e-05 2.1784e-05)
(-1.6696e-05 1.2512e-05 1.8737e-05)
(-1.4117e-05 1.0208e-05 1.5285e-05)
(-1.1875e-05 7.7134e-06 1.1549e-05)
(-9.8713e-06 5.1912e-06 7.7701e-06)
(-8.0207e-06 2.8671e-06 4.2882e-06)
(-6.2775e-06 9.7646e-07 1.4558e-06)
(-4.6418e-06 -2.9836e-07 -4.5335e-07)
(-3.1416e-06 -8.799e-07 -1.3232e-06)
(-1.7965e-06 -8.2616e-07 -1.2408e-06)
(-5.816e-07 -3.2861e-07 -4.9337e-07)
(-2.2973e-05 2.3612e-05 3.1481e-05)
(-1.9581e-05 2.109e-05 2.8119e-05)
(-1.6598e-05 1.8145e-05 2.4192e-05)
(-1.4034e-05 1.48e-05 1.973e-05)
(-1.1816e-05 1.1163e-05 1.488e-05)
(-9.8339e-06 7.4745e-06 9.9587e-06)
(-7.9944e-06 4.07e-06 5.4166e-06)
(-6.2515e-06 1.3019e-06 1.724e-06)
(-4.6098e-06 -5.5643e-07 -7.5392e-07)
(-3.1052e-06 -1.3874e-06 -1.86e-06)
(-1.7659e-06 -1.2751e-06 -1.7068e-06)
(-5.6943e-07 -5.0397e-07 -6.7429e-07)
(-2.2973e-05 -2.3607e-05 -3.1482e-05)
(-1.9581e-05 -2.1086e-05 -2.812e-05)
(-1.6598e-05 -1.8142e-05 -2.4193e-05)
(-1.4034e-05 -1.4797e-05 -1.9731e-05)
(-1.1816e-05 -1.1161e-05 -1.488e-05)
(-9.834e-06 -7.4729e-06 -9.9586e-06)
(-7.9944e-06 -4.069e-06 -5.4163e-06)
(-6.2515e-06 -1.3015e-06 -1.7235e-06)
(-4.6097e-06 5.5653e-07 7.5459e-07)
(-3.1052e-06 1.3873e-06 1.8606e-06)
(-1.7659e-06 1.275e-06 1.7073e-06)
(-5.6943e-07 5.039e-07 6.7445e-07)
(-2.3045e-05 -1.6282e-05 -2.4394e-05)
(-1.9677e-05 -1.454e-05 -2.1783e-05)
(-1.6696e-05 -1.2506e-05 -1.8736e-05)
(-1.4117e-05 -1.0203e-05 -1.5285e-05)
(-1.1875e-05 -7.7096e-06 -1.1548e-05)
(-9.8714e-06 -5.1886e-06 -7.7694e-06)
(-8.0207e-06 -2.8656e-06 -4.2874e-06)
(-6.2775e-06 -9.7581e-07 -1.455e-06)
(-4.6418e-06 2.9839e-07 4.541e-07)
(-3.1416e-06 8.7961e-07 1.3238e-06)
(-1.7965e-06 8.2586e-07 1.2412e-06)
(-5.816e-07 3.2848e-07 4.9351e-07)
(-2.3095e-05 -8.4119e-06 -1.6776e-05)
(-1.9741e-05 -7.51e-06 -1.4977e-05)
(-1.6762e-05 -6.4578e-06 -1.2879e-05)
(-1.4173e-05 -5.2688e-06 -1.0507e-05)
(-1.1915e-05 -3.9855e-06 -7.9473e-06)
(-9.8977e-06 -2.6911e-06 -5.365e-06)
(-8.0395e-06 -1.4998e-06 -2.9885e-06)
(-6.2958e-06 -5.3059e-07 -1.055e-06)
(-4.6639e-06 1.2472e-07 2.5198e-07)
(-3.1662e-06 4.2758e-07 8.5549e-07)
(-1.8169e-06 4.0795e-07 8.1542e-07)
(-5.8962e-07 1.6301e-07 3.2574e-07)
(-2.312e-05 2.9956e-09 -8.5839e-06)
(-1.9774e-05 2.6985e-09 -7.6626e-06)
(-1.6796e-05 2.3402e-09 -6.5879e-06)
(-1.4201e-05 1.9286e-09 -5.375e-06)
(-1.1936e-05 1.4813e-09 -4.0677e-06)
(-9.9113e-06 1.0294e-09 -2.7505e-06)
(-8.0493e-06 6.1242e-10 -1.5392e-06)
(-6.3053e-06 2.6942e-10 -5.5364e-07)
(-4.6753e-06 2.9678e-11 1.1357e-07)
(-3.1787e-06 -9.3786e-11 4.2373e-07)
(-1.8271e-06 -1.086e-10 4.0748e-07)
(-5.9364e-07 -4.5602e-11 1.6318e-07)
(-2.312e-05 8.5892e-06 4.7449e-09)
(-1.9774e-05 7.6675e-06 4.2845e-09)
(-1.6796e-05 6.5922e-06 3.7446e-09)
(-1.4201e-05 5.3786e-06 3.1419e-09)
(-1.1936e-05 4.0706e-06 2.5e-09)
(-9.9113e-06 2.7527e-06 1.856e-09)
(-8.0493e-06 1.5407e-06 1.2564e-09)
(-6.3053e-06 5.5457e-07 7.4855e-10)
(-4.6753e-06 -1.1307e-07 3.6849e-10)
(-3.1787e-06 -4.2352e-07 1.299e-10)
(-1.8271e-06 -4.0742e-07 1.9035e-11)
(-5.9364e-07 -1.6318e-07 -3.9809e-12)
(-2.3095e-05 1.6785e-05 8.4235e-06)
(-1.9741e-05 1.4986e-05 7.5205e-06)
(-1.6762e-05 1.2886e-05 6.4669e-06)
(-1.4173e-05 1.0513e-05 5.2763e-06)
(-1.1915e-05 7.9522e-06 3.9913e-06)
(-9.8977e-06 5.3686e-06 2.6951e-06)
(-8.0395e-06 2.9908e-06 1.5023e-06)
(-6.2958e-06 1.0563e-06 5.3179e-07)
(-4.664e-06 -2.5146e-07 -1.2444e-07)
(-3.1662e-06 -8.5541e-07 -4.2779e-07)
(-1.8169e-06 -8.1551e-07 -4.0827e-07)
(-5.8963e-07 -3.2579e-07 -1.6315e-07)
(-2.3045e-05 2.4415e-05 1.6274e-05)
(-1.9677e-05 2.1803e-05 1.4533e-05)
(-1.6696e-05 1.8753e-05 1.25e-05)
(-1.4117e-05 1.5298e-05 1.0198e-05)
(-1.1875e-05 1.1559e-05 7.7062e-06)
(-9.8714e-06 7.7768e-06 5.1864e-06)
(-8.0207e-06 4.2919e-06 2.8645e-06)
(-6.2775e-06 1.4571e-06 9.7571e-07)
(-4.6419e-06 -4.5368e-07 -2.979e-07)
(-3.1416e-06 -1.3243e-06 -8.789e-07)
(-1.7965e-06 -1.2419e-06 -8.2527e-07)
(-5.816e-07 -4.9378e-07 -3.2826e-07)
(-2.2973e-05 3.1489e-05 2.36e-05)
(-1.9581e-05 2.8126e-05 2.108e-05)
(-1.6598e-05 2.4199e-05 1.8137e-05)
(-1.4034e-05 1.9736e-05 1.4793e-05)
(-1.1816e-05 1.4884e-05 1.1158e-05)
(-9.834e-06 9.9615e-06 7.471e-06)
(-7.9944e-06 5.4183e-06 4.0681e-06)
(-6.2515e-06 1.7248e-06 1.3013e-06)
(-4.6098e-06 -7.5381e-07 -5.5618e-07)
(-3.1053e-06 -1.8602e-06 -1.3868e-06)
(-1.7659e-06 -1.7071e-06 -1.2745e-06)
(-5.6945e-07 -6.7441e-07 -5.0373e-07)
(-2.295e-05 -1.561e-05 -3.9054e-05)
(-1.9551e-05 -1.3944e-05 -3.4887e-05)
(-1.6567e-05 -1.1999e-05 -3.002e-05)
(-1.4009e-05 -9.787e-06 -2.448e-05)
(-1.18e-05 -7.3794e-06 -1.8448e-05)
(-9.8246e-06 -4.9341e-06 -1.232e-05)
(-7.9883e-06 -2.6757e-06 -6.6604e-06)
(-6.2446e-06 -8.3954e-07 -2.0603e-06)
(-4.5996e-06 3.9154e-07 1.0206e-06)
(-3.0928e-06 9.3859e-07 2.3835e-06)
(-1.7551e-06 8.5763e-07 2.1695e-06)
(-5.6513e-07 3.3836e-07 8.5498e-07)
(-2.3022e-05 -8.036e-06 -3.217e-05)
(-1.9646e-05 -7.1769e-06 -2.8731e-05)
(-1.6664e-05 -6.1739e-06 -2.4715e-05)
(-1.409e-05 -5.0368e-06 -2.016e-05)
(-1.1856e-05 -3.8043e-06 -1.5221e-05)
(-9.8601e-06 -2.5565e-06 -1.022e-05)
(-8.013e-06 -1.406e-06 -5.6087e-06)
(-6.2694e-06 -4.7021e-07 -1.8585e-06)
(-4.6312e-06 1.5996e-07 6.6465e-07)
(-3.1293e-06 4.4566e-07 1.8048e-06)
(-1.7861e-06 4.1559e-07 1.6776e-06)
(-5.7747e-07 1.6497e-07 6.6531e-07)
(-2.307e-05 2.2082e-08 -2.474e-05)
(-1.9709e-05 1.9686e-08 -2.209e-05)
(-1.673e-05 1.6901e-08 -1.8997e-05)
(-1.4145e-05 1.3786e-08 -1.5498e-05)
(-1.1895e-05 1.0456e-08 -1.1715e-05)
(-9.8849e-06 7.1152e-09 -7.8938e-06)
(-8.0305e-06 4.0418e-09 -4.3749e-06)
(-6.2869e-06 1.5317e-09 -1.5125e-06)
(-4.653e-06 -1.7986e-10 4.1929e-07)
(-3.1539e-06 -9.9163e-10 1.3047e-06)
(-1.8066e-06 -9.7943e-10 1.2324e-06)
(-5.8559e-07 -3.9427e-10 4.9103e-07)
(-2.3095e-05 8.4231e-06 -1.6783e-05)
(-1.9741e-05 7.5201e-06 -1.4984e-05)
(-1.6763e-05 6.4665e-06 -1.2884e-05)
(-1.4173e-05 5.2759e-06 -1.0512e-05)
(-1.1915e-05 3.9909e-06 -7.9506e-06)
(-9.8977e-06 2.6948e-06 -5.3673e-06)
(-8.0395e-06 1.502e-06 -2.9898e-06)
(-6.2959e-06 5.3152e-07 -1.0555e-06)
(-4.664e-06 -1.2466e-07 2.5201e-07)
(-3.1662e-06 -4.2796e-07 8.5577e-07)
(-1.8169e-06 -4.0837e-07 8.1571e-07)
(-5.8963e-07 -1.6318e-07 3.2586e-07)
(-2.3095e-05 1.6781e-05 -8.4148e-06)
(-1.9741e-05 1.4982e-05 -7.5125e-06)
(-1.6763e-05 1.2883e-05 -6.4599e-06)
(-1.4173e-05 1.0511e-05 -5.2704e-06)
(-1.1915e-05 7.9504e-06 -3.9866e-06)
(-9.8977e-06 5.3673e-06 -2.6916e-06)
(-8.0395e-06 2.9901e-06 -1.4999e-06)
(-6.2959e-06 1.0561e-06 -5.3037e-07)
(-4.664e-06 -2.5139e-07 1.2513e-07)
(-3.1662e-06 -8.552e-07 4.2803e-07)
(-1.8169e-06 -8.1531e-07 4.083e-07)
(-5.8963e-07 -3.2571e-07 1.6314e-07)
(-2.307e-05 2.4742e-05 2.0356e-08)
(-1.9709e-05 2.2092e-05 1.8206e-08)
(-1.673e-05 1.8999e-05 1.5703e-08)
(-1.4145e-05 1.55e-05 1.2897e-08)
(-1.1895e-05 1.1716e-05 9.8869e-09)
(-9.8849e-06 7.8951e-06 6.8511e-09)
(-8.0305e-06 4.376e-06 4.0373e-09)
(-6.2869e-06 1.5133e-06 1.7166e-09)
(-4.653e-06 -4.1866e-07 1.0823e-10)
(-3.1539e-06 -1.3043e-06 -6.9302e-10)
(-1.8066e-06 -1.2321e-06 -7.5714e-10)
(-5.8559e-07 -4.9095e-07 -3.1225e-10)
(-2.3022e-05 3.2177e-05 8.0578e-06)
(-1.9646e-05 2.8737e-05 7.1963e-06)
(-1.6664e-05 2.4721e-05 6.1907e-06)
(-1.409e-05 2.0165e-05 5.0506e-06)
(-1.1856e-05 1.5225e-05 3.8148e-06)
(-9.8601e-06 1.0223e-05 2.5639e-06)
(-8.013e-06 5.611e-06 1.4105e-06)
(-6.2695e-06 1.8602e-06 4.7221e-07)
(-4.6313e-06 -6.6352e-07 -1.5964e-07)
(-3.1294e-06 -1.8041e-06 -4.4622e-07)
(-1.7861e-06 -1.6772e-06 -4.1628e-07)
(-5.775e-07 -6.6519e-07 -1.6526e-07)
(-2.295e-05 3.9052e-05 1.5599e-05)
(-1.9551e-05 3.4885e-05 1.3934e-05)
(-1.6567e-05 3.0018e-05 1.1991e-05)
(-1.401e-05 2.4479e-05 9.7802e-06)
(-1.18e-05 1.8447e-05 7.3744e-06)
(-9.8247e-06 1.232e-05 4.931e-06)
(-7.9884e-06 6.661e-06 2.6743e-06)
(-6.2446e-06 2.0613e-06 8.3949e-07)
(-4.5997e-06 -1.0192e-06 -3.9072e-07)
(-3.0929e-06 -2.3822e-06 -9.3745e-07)
(-1.7552e-06 -2.1686e-06 -8.5671e-07)
(-5.6517e-07 -8.5467e-07 -3.3801e-07)
(-2.2905e-05 -7.6767e-06 -4.6129e-05)
(-1.9492e-05 -6.8595e-06 -4.1216e-05)
(-1.6507e-05 -5.9048e-06 -3.5475e-05)
(-1.3961e-05 -4.8166e-06 -2.8925e-05)
(-1.1768e-05 -3.6284e-06 -2.177e-05)
(-9.8067e-06 -2.4184e-06 -1.4485e-05)
(-7.9768e-06 -1.2991e-06 -7.7469e-06)
(-6.2314e-06 -3.8904e-07 -2.2723e-06)
(-4.58e-06 2.192e-07 1.3822e-06)
(-3.0684e-06 4.8552e-07 2.9746e-06)
(-1.7339e-06 4.3812e-07 2.6724e-06)
(-5.5659e-07 1.7216e-07 1.049e-06)
(-2.2975e-05 3.1714e-08 -3.9424e-05)
(-1.9584e-05 2.8253e-08 -3.5217e-05)
(-1.6601e-05 2.4251e-08 -3.0302e-05)
(-1.4038e-05 1.9785e-08 -2.4713e-05)
(-1.1821e-05 1.5006e-08 -1.8636e-05)
(-9.8382e-06 1.0192e-08 -1.2468e-05)
(-7.998e-06 5.7424e-09 -6.7725e-06)
(-6.2538e-06 2.1059e-09 -2.1423e-06)
(-4.6105e-06 -3.655e-10 9.631e-07)
(-3.1049e-06 -1.5269e-09 2.3459e-06)
(-1.7653e-06 -1.4792e-09 2.1486e-06)
(-5.6921e-07 -5.9098e-10 8.4838e-07)
(-2.3022e-05 8.0589e-06 -3.2176e-05)
(-1.9646e-05 7.1972e-06 -2.8736e-05)
(-1.6664e-05 6.1914e-06 -2.4719e-05)
(-1.409e-05 5.0511e-06 -2.0163e-05)
(-1.1856e-05 3.8151e-06 -1.5224e-05)
(-9.8602e-06 2.564e-06 -1.0222e-05)
(-8.013e-06 1.4104e-06 -5.6101e-06)
(-6.2695e-06 4.7208e-07 -1.8594e-06)
(-4.6313e-06 -1.5983e-07 6.6419e-07)
(-3.1294e-06 -4.464e-07 1.8046e-06)
(-1.7861e-06 -4.1641e-07 1.6775e-06)
(-5.7749e-07 -1.6531e-07 6.653e-07)
(-2.3046e-05 1.6274e-05 -2.4414e-05)
(-1.9677e-05 1.4533e-05 -2.1802e-05)
(-1.6696e-05 1.25e-05 -1.8752e-05)
(-1.4117e-05 1.0198e-05 -1.5297e-05)
(-1.1875e-05 7.7061e-06 -1.1558e-05)
(-9.8715e-06 5.1863e-06 -7.7758e-06)
(-8.0208e-06 2.8644e-06 -4.291e-06)
(-6.2776e-06 9.7558e-07 -1.4564e-06)
(-4.6419e-06 -2.9801e-07 4.5428e-07)
(-3.1417e-06 -8.7899e-07 1.3247e-06)
(-1.7965e-06 -8.2533e-07 1.2421e-06)
(-5.8161e-07 -3.2828e-07 4.9387e-07)
(-2.3046e-05 2.4393e-05 -1.6289e-05)
(-1.9677e-05 2.1783e-05 -1.4546e-05)
(-1.6696e-05 1.8736e-05 -1.2511e-05)
(-1.4117e-05 1.5285e-05 -1.0207e-05)
(-1.1875e-05 1.1548e-05 -7.7126e-06)
(-9.8715e-06 7.7698e-06 -5.1905e-06)
(-8.0208e-06 4.288e-06 -2.8664e-06)
(-6.2776e-06 1.4557e-06 -9.7583e-07)
(-4.6419e-06 -4.5338e-07 2.9888e-07)
(-3.1417e-06 -1.3232e-06 8.8029e-07)
(-1.7965e-06 -1.2408e-06 8.264e-07)
(-5.8161e-07 -4.9336e-07 3.2869e-07)
(-2.3022e-05 3.2171e-05 -8.0392e-06)
(-1.9646e-05 2.8732e-05 -7.1797e-06)
(-1.6664e-05 2.4715e-05 -6.1763e-06)
(-1.409e-05 2.016e-05 -5.0386e-06)
(-1.1856e-05 1.5221e-05 -3.8055e-06)
(-9.8601e-06 1.0221e-05 -2.5572e-06)
(-8.013e-06 5.6094e-06 -1.4062e-06)
(-6.2695e-06 1.8593e-06 -4.7007e-07)
(-4.6313e-06 -6.6394e-07 1.6031e-07)
(-3.1293e-06 -1.8042e-06 4.4607e-07)
(-1.7861e-06 -1.6772e-06 4.1591e-07)
(-5.7748e-07 -6.6518e-07 1.6509e-07)
(-2.2975e-05 3.9425e-05 2.9979e-08)
(-1.9584e-05 3.5218e-05 2.6782e-08)
(-1.6601e-05 3.0302e-05 2.3076e-08)
(-1.4038e-05 2.4714e-05 1.8925e-08)
(-1.1821e-05 1.8637e-05 1.4461e-08)
(-9.8382e-06 1.2468e-05 9.9375e-09)
(-7.998e-06 6.7733e-06 5.729e-09)
(-6.2538e-06 2.1431e-06 2.2651e-09)
(-4.6105e-06 -9.6235e-07 -1.1176e-10)
(-3.1049e-06 -2.3453e-06 -1.2607e-09)
(-1.7653e-06 -2.1482e-06 -1.2791e-09)
(-5.6922e-07 -8.4824e-07 -5.1668e-10)
(-2.2905e-05 4.6132e-05 7.7021e-06)
(-1.9492e-05 4.1219e-05 6.8822e-06)
(-1.6507e-05 3.5477e-05 5.9244e-06)
(-1.3961e-05 2.8927e-05 4.8327e-06)
(-1.1768e-05 2.1772e-05 3.6408e-06)
(-9.8068e-06 1.4486e-05 2.427e-06)
(-7.9769e-06 7.7483e-06 1.3041e-06)
(-6.2314e-06 2.2735e-06 3.9115e-07)
(-4.5801e-06 -1.3813e-06 -2.191e-07)
(-3.0684e-06 -2.9739e-06 -4.8643e-07)
(-1.7339e-06 -2.6719e-06 -4.391e-07)
(-5.5661e-07 -1.0489e-06 -1.7256e-07)
(-2.284e-05 1.6515e-08 -5.2552e-05)
(-1.9406e-05 1.4711e-08 -4.697e-05)
(-1.6419e-05 1.2635e-08 -4.0442e-05)
(-1.389e-05 1.0329e-08 -3.2968e-05)
(-1.1722e-05 7.8588e-09 -2.477e-05)
(-9.7816e-06 5.3613e-09 -1.6392e-05)
(-7.961e-06 3.0427e-09 -8.6318e-06)
(-6.2129e-06 1.1443e-09 -2.3299e-06)
(-4.5518e-06 -1.501e-10 1.8585e-06)
(-3.0327e-06 -7.6982e-10 3.6451e-06)
(-1.7024e-06 -7.5814e-10 3.2215e-06)
(-5.4388e-07 -3.0359e-10 1.258e-06)
(-2.2905e-05 7.7032e-06 -4.6131e-05)
(-1.9492e-05 6.8831e-06 -4.1218e-05)
(-1.6507e-05 5.9252e-06 -3.5477e-05)
(-1.3961e-05 4.8331e-06 -2.8926e-05)
(-1.1768e-05 3.641e-06 -2.1772e-05)
(-9.8068e-06 2.4271e-06 -1.4485e-05)
(-7.9769e-06 1.3041e-06 -7.7475e-06)
(-6.2314e-06 3.9102e-07 -2.2727e-06)
(-4.5801e-06 -2.1927e-07 1.3821e-06)
(-3.0684e-06 -4.866e-07 2.9745e-06)
(-1.7339e-06 -4.3923e-07 2.6724e-06)
(-5.5661e-07 -1.7261e-07 1.049e-06)
(-2.295e-05 1.5599e-05 -3.9051e-05)
(-1.9552e-05 1.3935e-05 -3.4884e-05)
(-1.6568e-05 1.1991e-05 -3.0017e-05)
(-1.401e-05 9.7806e-06 -2.4478e-05)
(-1.18e-05 7.3746e-06 -1.8446e-05)
(-9.8248e-06 4.9311e-06 -1.2319e-05)
(-7.9885e-06 2.6743e-06 -6.6601e-06)
(-6.2447e-06 8.3941e-07 -2.0605e-06)
(-4.5998e-06 -3.9082e-07 1.02e-06)
(-3.0929e-06 -9.3755e-07 2.3828e-06)
(-1.7553e-06 -8.5678e-07 2.169e-06)
(-5.6517e-07 -3.3804e-07 8.5479e-07)
(-2.2973e-05 2.3601e-05 -3.1489e-05)
(-1.9581e-05 2.108e-05 -2.8126e-05)
(-1.6598e-05 1.8137e-05 -2.4198e-05)
(-1.4034e-05 1.4793e-05 -1.9735e-05)
(-1.1817e-05 1.1158e-05 -1.4883e-05)
(-9.8341e-06 7.471e-06 -9.9606e-06)
(-7.9945e-06 4.068e-06 -5.4174e-06)
(-6.2516e-06 1.3013e-06 -1.724e-06)
(-4.6099e-06 -5.562e-07 7.5446e-07)
(-3.1053e-06 -1.3868e-06 1.8607e-06)
(-1.766e-06 -1.2745e-06 1.7074e-06)
(-5.6946e-07 -5.0373e-07 6.7451e-07)
(-2.2973e-05 3.1481e-05 -2.3611e-05)
(-1.9581e-05 2.8119e-05 -2.1089e-05)
(-1.6598e-05 2.4192e-05 -1.8145e-05)
(-1.4034e-05 1.973e-05 -1.4799e-05)
(-1.1817e-05 1.488e-05 -1.1162e-05)
(-9.8341e-06 9.9586e-06 -7.4737e-06)
(-7.9945e-06 5.4166e-06 -4.0692e-06)
(-6.2516e-06 1.7241e-06 -1.3012e-06)
(-4.6099e-06 -7.5385e-07 5.5702e-07)
(-3.1053e-06 -1.8599e-06 1.3879e-06)
(-1.766e-06 -1.7068e-06 1.2754e-06)
(-5.6946e-07 -6.7427e-07 5.0406e-07)
(-2.295e-05 3.9054e-05 -1.5612e-05)
(-1.9551e-05 3.4887e-05 -1.3946e-05)
(-1.6567e-05 3.002e-05 -1.2001e-05)
(-1.4009e-05 2.448e-05 -9.7883e-06)
(-1.18e-05 1.8448e-05 -7.3802e-06)
(-9.8247e-06 1.2321e-05 -4.9345e-06)
(-7.9884e-06 6.661e-06 -2.6757e-06)
(-6.2447e-06 2.061e-06 -8.3928e-07)
(-4.5997e-06 -1.0198e-06 3.9195e-07)
(-3.0929e-06 -2.3828e-06 9.3901e-07)
(-1.7552e-06 -2.169e-06 8.5794e-07)
(-5.6515e-07 -8.5483e-07 3.3848e-07)
(-2.2905e-05 4.6129e-05 -7.6783e-06)
(-1.9492e-05 4.1216e-05 -6.8608e-06)
(-1.6507e-05 3.5475e-05 -5.9058e-06)
(-1.3961e-05 2.8925e-05 -4.8172e-06)
(-1.1768e-05 2.1771e-05 -3.6288e-06)
(-9.8068e-06 1.4485e-05 -2.4185e-06)
(-7.9769e-06 7.7476e-06 -1.299e-06)
(-6.2314e-06 2.2731e-06 -3.8879e-07)
(-4.5801e-06 -1.3814e-06 2.1952e-07)
(-3.0684e-06 -2.9739e-06 4.8584e-07)
(-1.7339e-06 -2.6719e-06 4.3835e-07)
(-5.5661e-07 -1.0488e-06 1.7225e-07)
(-2.284e-05 5.2553e-05 1.5472e-08)
(-1.9406e-05 4.697e-05 1.3866e-08)
(-1.6419e-05 4.0442e-05 1.2007e-08)
(-1.389e-05 3.2968e-05 9.9209e-09)
(-1.1722e-05 2.477e-05 7.6539e-09)
(-9.7816e-06 1.6393e-05 5.334e-09)
(-7.961e-06 8.6326e-06 3.1522e-09)
(-6.213e-06 2.3308e-06 1.3436e-09)
(-4.5519e-06 -1.8576e-06 9.0917e-11)
(-3.0327e-06 -3.6443e-06 -5.3764e-10)
(-1.7025e-06 -3.221e-06 -5.8794e-10)
(-5.439e-07 -1.2579e-06 -2.4062e-10)
(-4.9415e-07 1.9293e-06 -1.6229e-07)
(-1.5807e-06 5.0126e-06 -4.2131e-07)
(-2.8975e-06 5.9144e-06 -4.9497e-07)
(-4.4494e-06 3.6701e-06 -2.9885e-07)
(-6.1507e-06 -1.9718e-06 1.9279e-07)
(-7.9105e-06 -1.057e-05 9.4271e-07)
(-9.6971e-06 -2.1164e-05 1.8656e-06)
(-1.1561e-05 -3.2529e-05 2.8545e-06)
(-1.3633e-05 -4.3515e-05 3.8108e-06)
(-1.6093e-05 -5.3376e-05 4.6712e-06)
(-1.9085e-05 -6.1879e-05 5.416e-06)
(-2.2603e-05 -6.9137e-05 6.0529e-06)
(-5.11e-07 1.6852e-06 -4.3292e-07)
(-1.6212e-06 4.3558e-06 -1.1164e-06)
(-2.94e-06 5.0672e-06 -1.2886e-06)
(-4.4766e-06 2.9588e-06 -7.2265e-07)
(-6.1599e-06 -2.2042e-06 6.474e-07)
(-7.912e-06 -1.0035e-05 2.7216e-06)
(-9.7071e-06 -1.9679e-05 5.2734e-06)
(-1.1595e-05 -3.0046e-05 8.0164e-06)
(-1.3699e-05 -4.0113e-05 1.0682e-05)
(-1.6184e-05 -4.92e-05 1.3095e-05)
(-1.9176e-05 -5.7075e-05 1.5191e-05)
(-2.2669e-05 -6.38e-05 1.6984e-05)
(-5.2286e-07 1.4376e-06 -6.9345e-07)
(-1.6499e-06 3.7002e-06 -1.7807e-06)
(-2.9706e-06 4.2509e-06 -2.0318e-06)