/*--------------------------------*- C++ -*----------------------------------*\
| =========                 |                                                 |
| \\      /  F ield         | foam-extend: Open Source CFD                    |
|  \\    /   O peration     | Version:     4.1-20200408                       |
|   \\  /    A nd           | Web:         http://www.foam-extend.org         |
|    \\/     M anipulation  |                                                 |
\*---------------------------------------------------------------------------*/
FoamFile
{
    version     2.0;
    format      ascii;
    class       volScalarField;
    location    "0.0320000";
    object      ccy;
}
// * * * * * * * * * * * * * * * * * * * * * * * * * * * * * * * * * * * * * //

dimensions      [0 1 0 0 0 0 0];

internalField   nonuniform List<scalar> 
1952
(
7.21376e-05
0.000117481
0.000163414
0.000209543
0.000255762
0.000302029
0.000348326
0.000394644
0.000440976
0.000487323
0.00053368
0.000580053
0.000626443
0.000672855
0.000719292
3.0916e-05
7.2129e-05
0.000117469
0.000163396
0.00020952
0.000255735
0.000301997
0.00034829
0.000394603
0.000440933
0.000487276
0.000533633
0.000580005
0.000626396
0.00067281
0.000719249
3.09129e-05
7.21255e-05
0.000117461
0.000163386
0.000209508
0.000255719
0.000301979
0.00034827
0.000394581
0.000440909
0.000487249
0.000533604
0.000579974
0.000626363
0.000672776
0.000719213
3.0911e-05
7.21215e-05
0.000117455
0.000163378
0.000209497
0.000255705
0.000301963
0.000348252
0.00039456
0.000440885
0.000487224
0.000533577
0.000579946
0.000626333
0.000672744
0.000719181
3.09093e-05
7.21178e-05
0.000117449
0.000163369
0.000209486
0.000255693
0.000301949
0.000348233
0.000394541
0.000440863
0.000487202
0.000533552
0.000579919
0.000626305
0.000672715
0.000719149
3.09078e-05
7.21143e-05
0.000117443
0.000163361
0.000209477
0.00025568
0.000301933
0.000348218
0.000394522
0.000440844
0.000487178
0.000533529
0.000579894
0.000626278
0.000672687
0.00071912
3.09063e-05
7.21117e-05
0.000117437
0.000163354
0.000209467
0.000255669
0.000301921
0.000348201
0.000394506
0.000440824
0.000487158
0.000533506
0.00057987
0.000626252
0.000672659
0.000719091
3.09048e-05
7.21078e-05
0.000117433
0.000163347
0.000209457
0.000255658
0.000301907
0.000348188
0.000394489
0.000440806
0.000487138
0.000533484
0.000579847
0.000626228
0.000672633
0.000719063
3.09035e-05
7.21049e-05
0.000117428
0.00016334
0.000209449
0.000255648
0.000301895
0.000348173
0.000394472
0.00044079
0.000487119
0.000533463
0.000579824
0.000626203
0.000672607
0.000719036
3.09022e-05
7.2102e-05
0.000117423
0.000163334
0.000209441
0.000255637
0.000301883
0.00034816
0.000394458
0.000440771
0.000487101
0.000533443
0.000579802
0.00062618
0.000672582
0.000719009
3.0901e-05
7.20992e-05
0.000117419
0.000163327
0.000209432
0.000255628
0.000301873
0.000348147
0.000394443
0.000440755
0.000487082
0.000533423
0.00057978
0.000626156
0.000672557
0.000718983
3.08998e-05
7.20965e-05
0.000117415
0.00016332
0.000209424
0.000255619
0.00030186
0.000348133
0.000394429
0.000440739
0.000487064
0.000533403
0.000579759
0.000626133
0.000672533
0.000718957
3.08986e-05
7.20938e-05
0.00011741
0.000163315
0.000209417
0.000255608
0.00030185
0.000348121
0.000394413
0.000440723
0.000487046
0.000533384
0.000579738
0.000626111
0.000672508
0.000718931
3.08974e-05
7.20911e-05
0.000117406
0.000163309
0.00020941
0.000255598
0.000301838
0.000348108
0.0003944
0.000440706
0.000487028
0.000533364
0.000579717
0.000626087
0.000672484
0.000718905
3.08963e-05
7.20885e-05
0.000117401
0.000163304
0.000209401
0.00025559
0.000301826
0.000348096
0.000394384
0.000440689
0.000487011
0.000533345
0.000579696
0.000626066
0.00067246
0.000718879
3.08952e-05
7.2086e-05
0.000117397
0.000163297
0.000209394
0.00025558
0.000301817
0.000348083
0.000394369
0.000440675
0.000486993
0.000533326
0.000579675
0.000626044
0.000672436
0.000718855
3.08941e-05
7.20834e-05
0.000117393
0.000163292
0.000209386
0.000255571
0.000301805
0.00034807
0.000394357
0.000440659
0.000486976
0.000533307
0.000579655
0.000626021
0.000672414
0.000718828
3.0893e-05
7.20809e-05
0.000117389
0.000163286
0.000209379
0.000255563
0.000301795
0.000348058
0.000394342
0.000440643
0.000486959
0.000533289
0.000579633
0.000625999
0.000672389
0.000718804
3.08919e-05
7.20784e-05
0.000117385
0.00016328
0.000209372
0.000255553
0.000301784
0.000348046
0.000394329
0.000440629
0.000486941
0.00053327
0.000579615
0.000625977
0.000672366
0.00071878
3.08909e-05
7.20759e-05
0.000117381
0.000163275
0.000209365
0.000255545
0.000301774
0.000348034
0.000394316
0.000440612
0.000486926
0.000533251
0.000579594
0.000625956
0.000672343
0.000718756
3.08898e-05
7.20735e-05
0.000117377
0.000163269
0.000209358
0.000255536
0.000301764
0.000348023
0.000394302
0.000440598
0.000486908
0.000533233
0.000579575
0.000625936
0.00067232
0.00071873
3.08888e-05
7.20711e-05
0.000117373
0.000163264
0.000209351
0.000255528
0.000301755
0.00034801
0.000394288
0.000440584
0.000486892
0.000533215
0.000579555
0.000625914
0.000672298
0.000718707
3.08877e-05
7.20687e-05
0.000117369
0.000163257
0.000209344
0.000255519
0.000301744
0.000348
0.000394276
0.000440569
0.000486876
0.000533198
0.000579536
0.000625894
0.000672276
0.000718685
3.08867e-05
7.20664e-05
0.000117366
0.000163253
0.000209337
0.000255511
0.000301734
0.000347988
0.000394263
0.000440555
0.000486861
0.000533181
0.000579518
0.000625874
0.000672255
0.000718661
3.08857e-05
7.20642e-05
0.000117361
0.000163249
0.000209331
0.000255503
0.000301725
0.000347977
0.000394252
0.000440541
0.000486845
0.000533164
0.000579499
0.000625854
0.000672234
0.000718639
3.08853e-05
7.20621e-05
0.000117359
0.000163242
0.000209325
0.000255495
0.000301715
0.000347966
0.000394239
0.000440527
0.00048683
0.000533148
0.000579481
0.000625834
0.000672213
0.000718616
3.08834e-05
7.20599e-05
0.000117355
0.000163239
0.000209317
0.000255488
0.000301706
0.000347956
0.000394226
0.000440514
0.000486815
0.00053313
0.000579464
0.000625815
0.000672192
0.000718594
3.08829e-05
7.20578e-05
0.000117351
0.000163233
0.000209312
0.000255479
0.000301698
0.000347945
0.000394215
0.0004405
0.000486801
0.000533115
0.000579446
0.000625796
0.000672172
0.000718572
3.0882e-05
7.20558e-05
0.000117348
0.000163229
0.000209306
0.000255474
0.000301688
0.000347936
0.000394203
0.000440488
0.000486785
0.0005331
0.000579429
0.000625778
0.000672151
0.000718551
3.08812e-05
7.20537e-05
0.000117345
0.000163224
0.0002093
0.000255466
0.000301681
0.000347926
0.000394192
0.000440475
0.000486772
0.000533083
0.000579412
0.000625759
0.000672131
0.000718528
3.08808e-05
7.20523e-05
0.000117341
0.00016322
0.000209294
0.000255458
0.000301672
0.000347916
0.00039418
0.000440462
0.000486757
0.000533069
0.000579394
0.00062574
0.000672111
0.000718507
3.08789e-05
7.20487e-05
0.000117338
0.000163215
0.000209289
0.000255451
0.000301663
0.000347905
0.000394169
0.000440449
0.000486743
0.000533052
0.000579377
0.000625721
0.000672091
0.000718484
3.0879e-05
7.20473e-05
0.000117334
0.00016321
0.00020928
0.000255444
0.000301654
0.000347894
0.000394157
0.000440435
0.000486729
0.000533036
0.000579359
0.000625702
0.000672069
0.000718462
3.08775e-05
7.20449e-05
0.00011733
0.000163204
0.000209275
0.000255434
0.000301645
0.000347884
0.000394145
0.000440422
0.000486713
0.000533019
0.000579342
0.000625682
0.000672048
0.000718439
3.08765e-05
7.20431e-05
0.000117326
0.000163198
0.000209267
0.000255427
0.000301634
0.000347872
0.000394131
0.000440408
0.000486697
0.000533001
0.000579322
0.000625662
0.000672026
0.000718414
3.08749e-05
7.20394e-05
0.000117321
0.000163192
0.000209259
0.000255416
0.000301622
0.000347859
0.000394117
0.000440391
0.000486681
0.000532983
0.000579303
0.00062564
0.000672002
0.00071839
3.08741e-05
7.20352e-05
0.000117316
0.000163184
0.000209249
0.000255404
0.00030161
0.000347844
0.000394101
0.000440373
0.000486661
0.000532963
0.00057928
0.000625617
0.000671978
0.000718362
3.08732e-05
7.20327e-05
0.000117309
0.000163175
0.000209238
0.000255392
0.000301594
0.000347827
0.000394083
0.000440354
0.000486639
0.000532939
0.000579255
0.000625591
0.000671951
0.000718335
3.08709e-05
7.20271e-05
0.000117302
0.000163165
0.000209225
0.000255375
0.000301576
0.000347808
0.00039406
0.00044033
0.000486615
0.000532914
0.000579229
0.000625563
0.00067192
0.000718302
3.08683e-05
7.20211e-05
0.000117292
0.000163152
0.000209209
0.000255357
0.000301554
0.000347783
0.000394034
0.000440302
0.000486586
0.000532884
0.000579198
0.00062553
0.000671887
0.000718266
3.08666e-05
7.20142e-05
0.000117281
0.000163136
0.000209189
0.000255333
0.000301528
0.000347755
0.000394003
0.00044027
0.000486551
0.000532848
0.000579161
0.000625492
0.000671848
0.000718226
3.08633e-05
7.20055e-05
0.000117267
0.000163117
0.000209166
0.000255305
0.000301496
0.000347719
0.000393965
0.00044023
0.00048651
0.000532805
0.000579117
0.000625448
0.000671802
0.000718179
3.08596e-05
7.19952e-05
0.00011725
0.000163095
0.000209137
0.000255272
0.000301457
0.000347676
0.000393919
0.000440181
0.000486459
0.000532753
0.000579065
0.000625395
0.000671748
0.000718124
3.08551e-05
7.19826e-05
0.00011723
0.000163067
0.000209102
0.00025523
0.00030141
0.000347624
0.000393863
0.000440121
0.000486397
0.00053269
0.000579
0.00062533
0.000671683
0.000718058
3.08497e-05
7.19679e-05
0.000117206
0.000163034
0.000209061
0.000255181
0.000301354
0.000347562
0.000393795
0.000440049
0.000486322
0.000532612
0.000578922
0.000625252
0.000671605
0.000717979
3.08433e-05
7.19506e-05
0.000117178
0.000162996
0.000209013
0.000255123
0.000301287
0.000347486
0.000393713
0.000439961
0.00048623
0.000532518
0.000578826
0.000625155
0.00067151
0.000717884
3.08359e-05
7.19307e-05
0.000117146
0.000162951
0.000208956
0.000255055
0.000301208
0.000347398
0.000393615
0.000439856
0.000486118
0.000532402
0.000578707
0.000625036
0.000671391
0.000717767
3.08273e-05
7.19081e-05
0.000117109
0.000162901
0.000208892
0.000254977
0.000301117
0.000347295
0.000393501
0.000439732
0.000485985
0.000532261
0.000578561
0.000624887
0.000671241
0.000717618
3.08178e-05
7.18834e-05
0.000117069
0.000162845
0.00020882
0.00025489
0.000301015
0.000347178
0.000393371
0.000439588
0.000485828
0.000532094
0.000578384
0.000624701
0.000671048
0.000717421
3.08071e-05
7.18568e-05
0.000117026
0.000162784
0.000208743
0.000254796
0.000300904
0.00034705
0.000393225
0.000439426
0.000485651
0.0005319
0.000578175
0.000624479
0.000670813
0.000717173
3.07957e-05
7.18292e-05
0.000116981
0.000162721
0.000208662
0.000254697
0.000300786
0.000346913
0.000393069
0.000439251
0.000485457
0.000531687
0.000577944
0.000624229
0.000670546
0.00071689
3.07839e-05
7.18015e-05
0.000116935
0.000162658
0.00020858
0.000254596
0.000300666
0.000346772
0.000392908
0.000439068
0.000485253
0.000531463
0.000577699
0.000623964
0.000670263
0.000716591
3.07721e-05
7.17751e-05
0.000116892
0.000162598
0.000208501
0.000254498
0.000300549
0.000346635
0.000392749
0.000438888
0.00048505
0.000531236
0.000577451
0.000623696
0.000669976
0.000716289
3.07608e-05
7.17514e-05
0.000116853
0.000162542
0.000208429
0.000254409
0.000300441
0.000346507
0.000392601
0.000438718
0.000484857
0.000531021
0.000577212
0.000623436
0.000669697
0.000715995
3.07507e-05
7.17319e-05
0.000116821
0.000162497
0.00020837
0.000254334
0.00030035
0.000346399
0.000392474
0.00043857
0.000484688
0.000530829
0.000576998
0.0006232
0.000669442
0.000715725
3.07423e-05
7.17182e-05
0.000116798
0.000162465
0.000208328
0.00025428
0.000300284
0.000346319
0.000392378
0.000438457
0.000484556
0.000530677
0.000576824
0.000623004
0.000669227
0.000715496
3.07366e-05
7.17121e-05
0.000116788
0.00016245
0.000208307
0.000254253
0.000300249
0.000346276
0.000392325
0.000438391
0.000484477
0.000530581
0.000576711
0.000622872
0.000669077
0.000715336
3.07339e-05
7.17147e-05
0.000116792
0.000162455
0.000208312
0.000254259
0.000300253
0.000346278
0.000392324
0.000438387
0.000484466
0.000530564
0.000576686
0.000622836
0.000669033
0.000715287
3.07351e-05
7.17279e-05
0.000116814
0.000162484
0.00020835
0.000254304
0.000300306
0.000346338
0.000392391
0.000438461
0.000484548
0.000530653
0.000576782
0.000622941
0.000669145
0.000715408
3.07407e-05
7.17541e-05
0.000116856
0.000162544
0.000208427
0.000254398
0.000300418
0.000346468
0.000392541
0.000438633
0.000484743
0.000530873
0.000577029
0.000623216
0.000669449
0.000715736
3.0752e-05
7.17947e-05
0.000116923
0.000162637
0.000208547
0.000254547
0.000300597
0.000346679
0.000392785
0.000438913
0.000485062
0.000531234
0.000577433
0.000623664
0.00066994
0.000716261
3.07693e-05
7.18494e-05
0.000117012
0.000162763
0.000208711
0.000254751
0.000300842
0.000346968
0.000393121
0.000439297
0.000485497
0.000531723
0.000577978
0.000624263
0.000670585
0.000716942
3.07927e-05
7.19165e-05
0.000117122
0.000162918
0.000208912
0.000255001
0.000301143
0.000347323
0.000393533
0.000439768
0.000486028
0.000532316
0.000578631
0.000624973
0.000671344
0.000717734
3.08213e-05
7.19921e-05
0.000117247
0.000163093
0.00020914
0.000255284
0.000301484
0.000347724
0.000393996
0.000440296
0.000486623
0.000532975
0.000579353
0.000625752
0.000672169
0.000718592
3.08537e-05
7.20727e-05
0.000117379
0.000163279
0.000209381
0.000255583
0.000301843
0.000348146
0.000394483
0.00044085
0.000487243
0.000533662
0.0005801
0.000626555
0.000673017
0.000719471
3.0888e-05
7.21545e-05
0.000117512
0.000163466
0.000209624
0.000255882
0.000302202
0.000348566
0.000394965
0.000441396
0.000487853
0.000534334
0.000580832
0.00062734
0.000673845
0.000720331
3.09229e-05
7.22345e-05
0.000117643
0.000163648
0.000209858
0.00025617
0.000302544
0.000348964
0.00039542
0.000441907
0.000488422
0.000534959
0.000581512
0.00062807
0.000674617
0.000721135
3.09573e-05
7.23107e-05
0.000117767
0.00016382
0.000210078
0.000256438
0.000302861
0.000349329
0.000395833
0.000442368
0.000488929
0.000535513
0.000582109
0.00062871
0.000675297
0.000721852
3.099e-05
7.23811e-05
0.000117881
0.000163979
0.000210281
0.000256684
0.000303148
0.000349656
0.0003962
0.000442773
0.000489368
0.000535983
0.00058261
0.000629242
0.000675863
0.000722456
3.10202e-05
7.24445e-05
0.000117985
0.000164122
0.000210464
0.000256905
0.000303405
0.000349946
0.00039652
0.000443121
0.00048974
0.000536375
0.00058302
0.000629671
0.000676316
0.000722943
3.10473e-05
7.25007e-05
0.000118076
0.000164248
0.000210625
0.000257099
0.000303629
0.000350198
0.000396795
0.000443416
0.000490053
0.000536703
0.000583361
0.000630022
0.000676681
0.000723329
3.10714e-05
7.25498e-05
0.000118155
0.000164357
0.000210762
0.000257262
0.000303818
0.00035041
0.000397028
0.000443666
0.000490317
0.00053698
0.000583649
0.000630318
0.000676986
0.000723645
3.10926e-05
7.25918e-05
0.000118223
0.000164449
0.000210878
0.000257401
0.000303978
0.000350589
0.000397224
0.000443877
0.000490542
0.000537215
0.000583892
0.00063057
0.000677245
0.000723912
3.11107e-05
7.26272e-05
0.00011828
0.000164528
0.000210977
0.000257519
0.000304113
0.000350741
0.00039739
0.000444055
0.000490731
0.000537414
0.000584099
0.000630783
0.000677465
0.00072414
3.11259e-05
7.26572e-05
0.000118328
0.000164594
0.00021106
0.000257618
0.000304228
0.000350869
0.00039753
0.000444206
0.000490891
0.000537581
0.000584273
0.000630965
0.000677653
0.000724336
3.11387e-05
7.26824e-05
0.000118369
0.00016465
0.00021113
0.000257702
0.000304324
0.000350976
0.000397648
0.000444332
0.000491025
0.000537722
0.000584421
0.000631119
0.000677815
0.000724505
3.11496e-05
7.27033e-05
0.000118403
0.000164696
0.000211189
0.000257772
0.000304404
0.000351066
0.000397746
0.000444438
0.000491137
0.000537842
0.000584547
0.000631252
0.000677954
0.000724652
3.11586e-05
7.27209e-05
0.000118431
0.000164735
0.000211238
0.00025783
0.000304471
0.000351141
0.000397828
0.000444527
0.000491233
0.000537943
0.000584655
0.000631365
0.000678074
0.000724779
3.11662e-05
7.27353e-05
0.000118454
0.000164767
0.000211278
0.000257879
0.000304527
0.000351203
0.000397898
0.000444602
0.000491314
0.00053803
0.000584746
0.000631463
0.000678178
0.00072489
3.11725e-05
7.27469e-05
0.000118474
0.000164794
0.000211312
0.000257919
0.000304573
0.000351256
0.000397956
0.000444666
0.000491383
0.000538103
0.000584825
0.000631547
0.000678269
0.000724988
3.11779e-05
7.2758e-05
0.00011849
0.000164817
0.00021134
0.000257952
0.000304613
0.0003513
0.000398005
0.00044472
0.000491441
0.000538167
0.000584894
0.000631623
0.000678348
0.000725075
3.11813e-05
7.27648e-05
0.000118503
0.000164835
0.000211363
0.000257981
0.000304645
0.000351338
0.000398046
0.000444766
0.000491492
0.000538223
0.000584954
0.000631686
0.00067842
0.00072515
3.1186e-05
7.27733e-05
0.000118515
0.00016485
0.000211384
0.000258005
0.000304673
0.00035137
0.000398083
0.000444806
0.000491536
0.000538271
0.000585006
0.000631744
0.000678482
0.000725218
3.11879e-05
7.27784e-05
0.000118524
0.000164864
0.0002114
0.000258025
0.000304698
0.000351398
0.000398114
0.000444841
0.000491575
0.000538314
0.000585054
0.000631796
0.000678538
0.00072528
3.11915e-05
7.27834e-05
0.000118532
0.000164875
0.000211415
0.000258043
0.000304719
0.000351421
0.000398141
0.000444873
0.000491609
0.000538351
0.000585097
0.000631842
0.000678589
0.000725335
3.11931e-05
7.27885e-05
0.000118539
0.000164885
0.000211427
0.000258059
0.000304737
0.000351443
0.000398166
0.000444899
0.00049164
0.000538385
0.000585135
0.000631884
0.000678635
0.000725387
3.11944e-05
7.27908e-05
0.000118546
0.000164893
0.000211438
0.000258072
0.000304753
0.000351462
0.000398188
0.000444924
0.000491667
0.000538417
0.000585168
0.000631922
0.000678678
0.000725432
3.11971e-05
7.2795e-05
0.000118551
0.000164901
0.000211448
0.000258085
0.000304768
0.000351479
0.000398206
0.000444947
0.000491694
0.000538445
0.000585201
0.000631958
0.000678717
0.000725476
3.1198e-05
7.27988e-05
0.000118556
0.000164908
0.000211458
0.000258095
0.00030478
0.000351495
0.000398226
0.000444967
0.000491717
0.000538472
0.00058523
0.000631991
0.000678752
0.000725515
3.11988e-05
7.28e-05
0.000118561
0.000164916
0.000211465
0.000258107
0.000304794
0.000351508
0.000398243
0.000444987
0.000491739
0.000538497
0.000585257
0.000632021
0.000678788
0.000725553
3.12011e-05
7.28034e-05
0.000118565
0.000164921
0.000211474
0.000258115
0.000304805
0.000351523
0.000398258
0.000445006
0.000491759
0.00053852
0.000585283
0.000632051
0.000678819
0.000725589
3.12017e-05
7.28066e-05
0.000118569
0.000164926
0.000211481
0.000258125
0.000304816
0.000351535
0.000398273
0.000445022
0.00049178
0.000538541
0.000585308
0.000632078
0.00067885
0.00072562
3.12022e-05
7.28074e-05
0.000118574
0.000164932
0.000211488
0.000258133
0.000304826
0.000351548
0.000398288
0.000445038
0.000491798
0.000538563
0.000585332
0.000632103
0.000678877
0.000725653
3.12042e-05
7.28105e-05
0.000118577
0.000164937
0.000211495
0.000258142
0.000304837
0.00035156
0.000398301
0.000445054
0.000491815
0.000538583
0.000585354
0.000632128
0.000678905
0.000725682
3.12047e-05
7.28134e-05
0.00011858
0.000164943
0.000211501
0.00025815
0.000304846
0.000351572
0.000398314
0.000445069
0.000491833
0.000538602
0.000585375
0.000632152
0.000678931
0.00072571
3.12056e-05
7.28148e-05
0.000118585
0.000164946
0.000211507
0.000258158
0.000304856
0.000351583
0.000398327
0.000445084
0.000491849
0.00053862
0.000585396
0.000632174
0.000678955
0.000725737
3.12065e-05
7.28168e-05
0.000118587
0.000164952
0.000211514
0.000258165
0.000304866
0.000351592
0.00039834
0.000445099
0.000491865
0.000538638
0.000585415
0.000632196
0.00067898
0.000725763
3.12074e-05
7.28188e-05
0.00011859
0.000164956
0.00021152
0.000258173
0.000304873
0.000351604
0.000398352
0.000445112
0.00049188
0.000538655
0.000585433
0.000632217
0.000679001
0.000725788
3.12077e-05
7.28208e-05
0.000118594
0.000164961
0.000211525
0.00025818
0.000304883
0.000351613
0.000398363
0.000445125
0.000491895
0.000538671
0.000585453
0.000632237
0.000679024
0.000725812
3.12096e-05
7.28228e-05
0.000118597
0.000164965
0.000211531
0.000258187
0.00030489
0.000351624
0.000398374
0.000445138
0.000491909
0.000538688
0.00058547
0.000632256
0.000679046
0.000725834
3.12099e-05
7.28246e-05
0.0001186
0.000164969
0.000211537
0.000258194
0.0003049
0.000351632
0.000398385
0.000445151
0.000491923
0.000538703
0.000585487
0.000632275
0.000679066
0.000725857
3.12107e-05
7.28265e-05
0.000118602
0.000164974
0.000211542
0.000258201
0.000304907
0.000351642
0.000398397
0.000445161
0.000491937
0.000538718
0.000585504
0.000632294
0.000679085
0.000725878
3.12115e-05
7.28283e-05
0.000118607
0.000164978
0.000211547
0.000258208
0.000304914
0.000351652
0.000398406
0.000445175
0.00049195
0.000538732
0.00058552
0.00063231
0.000679104
0.000725898
3.12123e-05
7.28301e-05
0.000118609
0.000164982
0.000211553
0.000258214
0.000304922
0.00035166
0.000398417
0.000445185
0.000491963
0.000538747
0.000585536
0.000632327
0.000679121
0.000725919
3.12131e-05
7.28318e-05
0.000118611
0.000164986
0.000211559
0.00025822
0.00030493
0.000351669
0.000398427
0.000445196
0.000491975
0.00053876
0.00058555
0.000632344
0.000679141
0.000725936
3.12138e-05
7.28335e-05
0.000118614
0.00016499
0.000211563
0.000258226
0.000304937
0.000351677
0.000398437
0.000445206
0.000491988
0.000538773
0.000585564
0.000632359
0.000679157
0.000725956
3.12145e-05
7.28351e-05
0.000118618
0.000164994
0.000211568
0.000258231
0.000304945
0.000351685
0.000398444
0.000445218
0.000491998
0.000538787
0.000585578
0.000632374
0.000679173
0.000725973
3.12152e-05
7.28367e-05
0.00011862
0.000164997
0.000211572
0.000258238
0.00030495
0.000351693
0.000398455
0.000445226
0.00049201
0.000538798
0.000585592
0.000632389
0.000679189
0.000725989
3.12159e-05
7.28381e-05
0.000118622
0.000165
0.000211576
0.000258242
0.000304957
0.000351701
0.000398463
0.000445238
0.000492019
0.00053881
0.000585605
0.000632404
0.000679203
0.000726005
3.12165e-05
7.28388e-05
0.000118624
0.000165003
0.00021158
0.000258247
0.000304964
0.000351708
0.00039847
0.000445246
0.000492031
0.00053882
0.000585618
0.000632415
0.000679219
0.000726021
3.12171e-05
7.28416e-05
0.000118626
0.000165006
0.000211584
0.000258252
0.000304969
0.000351714
0.000398479
0.000445254
0.00049204
0.000538833
0.000585628
0.00063243
0.000679231
0.000726035
3.12171e-05
7.28421e-05
0.000118628
0.000165009
0.000211588
0.000258257
0.000304974
0.00035172
0.000398485
0.000445264
0.000492049
0.000538842
0.000585639
0.000632441
0.000679245
0.000726049
3.12187e-05
7.28433e-05
0.00011863
0.000165012
0.000211591
0.000258261
0.000304979
0.000351726
0.000398493
0.00044527
0.000492057
0.000538851
0.00058565
0.000632451
0.000679258
0.000726062
3.12187e-05
7.28443e-05
0.000118632
0.000165014
0.000211595
0.000258265
0.000304983
0.000351731
0.000398498
0.000445276
0.000492066
0.00053886
0.000585659
0.000632463
0.000679267
0.000726075
3.12191e-05
7.28451e-05
0.000118633
0.000165016
0.000211597
0.000258268
0.000304987
0.000351736
0.000398503
0.000445284
0.000492072
0.000538868
0.000585668
0.000632471
0.000679279
0.000726086
3.12195e-05
7.28459e-05
0.000118635
0.000165018
0.000211599
0.000258271
0.000304991
0.00035174
0.000398508
0.000445288
0.000492078
0.000538875
0.000585675
0.000632481
0.000679287
0.000726097
3.12198e-05
7.28465e-05
0.000118636
0.000165019
0.000211601
0.000258273
0.000304993
0.000351743
0.000398511
0.000445292
0.000492083
0.00053888
0.000585682
0.000632487
0.000679296
0.000726105
3.12201e-05
7.2847e-05
0.000118636
0.00016502
0.000211603
0.000258275
0.000304996
0.000351745
0.000398514
0.000445296
0.000492086
0.000538884
0.000585687
0.000632493
0.000679303
0.000726113
3.12203e-05
7.28473e-05
0.000118637
0.000165021
0.000211604
0.000258276
0.000304997
0.000351747
0.000398516
0.000445298
0.000492089
0.000538887
0.00058569
0.000632497
0.000679307
0.000726118
3.12204e-05
7.28474e-05
0.000118637
0.000165022
0.000211604
0.000258277
0.000304997
0.000351748
0.000398517
0.000445299
0.00049209
0.000538889
0.000585692
0.000632499
0.000679309
0.000726121
3.12205e-05
7.28475e-05
0.000118637
0.000165022
0.000211604
0.000258277
0.000304998
0.000351748
0.000398518
0.0004453
0.000492091
0.000538889
0.000585692
0.000632499
0.00067931
0.000726122
3.12205e-05
7.28475e-05
0.000118637
0.000165022
0.000211604
0.000258277
0.000304998
0.000351748
0.000398518
0.0004453
0.000492091
0.000538889
0.000585692
0.000632499
0.00067931
0.000726122
3.12205e-05
)
;

boundaryField
{
    wireUpstream
    {
        type            calculated;
        value           nonuniform List<scalar> 
16
(
7.28475e-05
0.000118637
0.000165022
0.000211604
0.000258277
0.000304998
0.000351748
0.000398518
0.0004453
0.000492091
0.000538889
0.000585692
0.000632499
0.00067931
0.000726122
3.12205e-05
)
;
    }
    wireDownstream
    {
        type            calculated;
        value           nonuniform List<scalar> 
16
(
7.21369e-05
0.00011748
0.000163412
0.000209541
0.000255759
0.000302026
0.000348323
0.00039464
0.000440973
0.000487321
0.000533681
0.000580056
0.000626449
0.000672866
0.000719307
3.09159e-05
)
;
    }
    wireTopContact
    {
        type            calculated;
        value           nonuniform List<scalar> 
122
(
0.000742232
0.000742196
0.000742162
0.00074213
0.000742099
0.00074207
0.000742041
0.000742013
0.000741986
0.000741959
0.000741932
0.000741905
0.000741878
0.000741852
0.000741826
0.0007418
0.000741775
0.00074175
0.000741725
0.0007417
0.000741675
0.000741651
0.000741628
0.000741604
0.000741581
0.000741558
0.000741536
0.000741513
0.00074149
0.000741468
0.000741445
0.000741421
0.000741397
0.000741372
0.000741346
0.000741318
0.000741289
0.000741256
0.000741219
0.000741177
0.000741129
0.000741073
0.000741007
0.000740928
0.000740832
0.000740716
0.000740566
0.000740366
0.000740113
0.000739824
0.000739519
0.000739211
0.000738912
0.000738638
0.000738405
0.000738244
0.000738199
0.000738326
0.000738664
0.0007392
0.000739893
0.000740695
0.000741563
0.000742452
0.000743322
0.000744139
0.000744871
0.000745494
0.000746
0.000746402
0.000746727
0.000746998
0.00074723
0.000747431
0.000747605
0.000747755
0.000747887
0.000748002
0.000748103
0.000748192
0.000748272
0.000748343
0.000748407
0.000748465
0.000748518
0.000748567
0.000748612
0.000748654
0.000748693
0.000748729
0.000748764
0.000748796
0.000748827
0.000748857
0.000748885
0.000748912
0.000748938
0.000748962
0.000748986
0.000749009
0.000749031
0.000749052
0.000749072
0.000749092
0.000749111
0.000749129
0.000749147
0.000749163
0.000749179
0.000749194
0.000749208
0.000749222
0.000749235
0.000749247
0.000749257
0.000749267
0.000749275
0.00074928
0.000749283
0.000749284
0.000749284
0.000742271
)
;
    }
    front
    {
        type            wedge;
    }
    back
    {
        type            wedge;
    }
}


// ************************************************************************* //
