/*--------------------------------*- C++ -*----------------------------------*\
| =========                 |                                                 |
| \\      /  F ield         | foam-extend: Open Source CFD                    |
|  \\    /   O peration     | Version:     4.1-20200408                       |
|   \\  /    A nd           | Web:         http://www.foam-extend.org         |
|    \\/     M anipulation  |                                                 |
\*---------------------------------------------------------------------------*/
FoamFile
{
    version     2.0;
    format      ascii;
    class       volScalarField;
    location    "0.0320000";
    object      sigmaCauchyEq;
}
// * * * * * * * * * * * * * * * * * * * * * * * * * * * * * * * * * * * * * //

dimensions      [1 -1 -2 0 0 0 0];

internalField   nonuniform List<scalar> 
1952
(
5.8991e+07
5.4689e+07
5.06818e+07
4.25065e+07
3.27304e+07
1.90823e+07
1.8679e+07
4.52865e+07
8.73604e+07
1.51351e+08
2.34001e+08
3.64172e+08
5.32065e+08
7.91513e+08
1.03384e+09
5.92348e+07
5.33174e+07
4.9195e+07
4.53738e+07
3.76539e+07
2.86162e+07
1.76379e+07
2.3327e+07
5.06899e+07
9.25922e+07
1.56109e+08
2.38551e+08
3.68071e+08
5.35427e+08
7.93281e+08
1.03086e+09
5.35234e+07
4.94249e+07
4.54572e+07
4.18179e+07
3.45381e+07
2.62492e+07
1.7845e+07
2.67807e+07
5.43142e+07
9.59614e+07
1.59012e+08
2.41111e+08
3.70029e+08
5.36925e+08
7.94467e+08
1.03208e+09
4.95812e+07
4.70912e+07
4.32745e+07
3.98207e+07
3.2987e+07
2.54381e+07
1.90851e+07
2.94061e+07
5.66712e+07
9.79938e+07
1.60584e+08
2.42372e+08
3.70874e+08
5.37622e+08
7.9536e+08
1.03266e+09
4.71914e+07
4.61412e+07
4.24543e+07
3.9163e+07
3.2702e+07
2.57073e+07
2.04963e+07
3.10328e+07
5.78174e+07
9.88219e+07
1.61044e+08
2.42651e+08
3.71014e+08
5.37968e+08
7.9638e+08
1.03385e+09
4.61906e+07
4.62213e+07
4.263e+07
3.94559e+07
3.32511e+07
2.65622e+07
2.17344e+07
3.18493e+07
5.80791e+07
9.88149e+07
1.60809e+08
2.42365e+08
3.7083e+08
5.38188e+08
7.97381e+08
1.03486e+09
4.62309e+07
4.72044e+07
4.36673e+07
4.05546e+07
3.44753e+07
2.78418e+07
2.27864e+07
3.19969e+07
5.75872e+07
9.81392e+07
1.60006e+08
2.41686e+08
3.70405e+08
5.38393e+08
7.9823e+08
1.03592e+09
4.71875e+07
4.90773e+07
4.55524e+07
4.24411e+07
3.63617e+07
2.95509e+07
2.37631e+07
3.15459e+07
5.63673e+07
9.68097e+07
1.58649e+08
2.40613e+08
3.6972e+08
5.38464e+08
7.98713e+08
1.03676e+09
4.9048e+07
5.1541e+07
4.79912e+07
4.4833e+07
3.86604e+07
3.15322e+07
2.47616e+07
3.07557e+07
5.472e+07
9.50968e+07
1.5702e+08
2.39324e+08
3.68917e+08
5.38425e+08
7.99187e+08
1.03741e+09
5.15115e+07
5.43602e+07
5.07579e+07
4.75144e+07
4.11887e+07
3.36706e+07
2.58427e+07
2.98421e+07
5.28702e+07
9.3245e+07
1.55325e+08
2.38029e+08
3.68159e+08
5.38437e+08
7.99519e+08
1.03789e+09
5.43411e+07
5.76172e+07
5.39393e+07
5.05824e+07
4.40595e+07
3.61041e+07
2.71748e+07
2.88777e+07
5.07814e+07
9.11638e+07
1.53454e+08
2.36598e+08
3.67281e+08
5.3832e+08
7.99723e+08
1.03819e+09
5.7616e+07
6.11704e+07
5.74028e+07
5.39148e+07
4.71726e+07
3.87717e+07
2.87827e+07
2.80164e+07
4.85714e+07
8.89487e+07
1.51492e+08
2.35081e+08
3.66334e+08
5.3811e+08
7.99804e+08
1.03831e+09
6.11925e+07
6.48833e+07
6.10161e+07
5.73858e+07
5.04151e+07
4.15814e+07
3.06314e+07
2.73831e+07
4.63655e+07
8.67191e+07
1.49523e+08
2.33557e+08
3.65362e+08
5.37848e+08
7.99805e+08
1.03827e+09
6.49322e+07
6.87171e+07
6.47451e+07
6.09677e+07
5.37682e+07
4.45241e+07
3.27198e+07
2.70595e+07
4.42111e+07
8.44998e+07
1.47567e+08
2.32042e+08
3.64384e+08
5.37552e+08
7.99703e+08
1.03808e+09
6.87945e+07
7.26511e+07
6.8571e+07
6.46431e+07
5.72168e+07
4.75837e+07
3.50236e+07
2.70894e+07
4.21372e+07
8.23039e+07
1.45625e+08
2.30532e+08
3.63383e+08
5.37209e+08
7.99518e+08
1.03777e+09
7.27584e+07
7.66562e+07
7.24674e+07
6.83895e+07
6.07442e+07
5.07476e+07
3.75277e+07
2.7517e+07
4.01817e+07
8.01432e+07
1.43686e+08
2.29025e+08
3.6236e+08
5.36835e+08
7.99224e+08
1.03737e+09
7.67933e+07
8.07803e+07
7.64834e+07
7.22561e+07
6.43989e+07
5.40578e+07
4.02497e+07
2.83458e+07
3.83309e+07
7.79618e+07
1.4172e+08
2.27462e+08
3.61291e+08
5.36361e+08
7.98889e+08
1.03678e+09
8.09471e+07
8.48775e+07
8.04725e+07
7.60967e+07
6.80351e+07
5.73711e+07
4.30516e+07
2.95342e+07
3.67292e+07
7.59204e+07
1.39854e+08
2.25983e+08
3.60268e+08
5.35933e+08
7.98536e+08
1.03617e+09
8.50736e+07
8.90447e+07
8.45337e+07
8.00093e+07
7.17523e+07
6.07786e+07
4.60039e+07
3.10712e+07
3.53234e+07
7.39232e+07
1.37985e+08
2.2452e+08
3.59251e+08
5.35526e+08
7.98058e+08
1.03553e+09
8.92701e+07
9.34106e+07
8.87935e+07
8.41203e+07
7.56713e+07
6.43971e+07
4.92015e+07
3.29999e+07
3.41271e+07
7.18893e+07
1.36052e+08
2.22963e+08
3.58152e+08
5.35004e+08
7.976e+08
1.0348e+09
9.36648e+07
9.77447e+07
9.30223e+07
8.81975e+07
7.95624e+07
6.7995e+07
5.24211e+07
3.51539e+07
3.32797e+07
7.00388e+07
1.34252e+08
2.21535e+08
3.57179e+08
5.34618e+08
7.97167e+08
1.03408e+09
9.80281e+07
1.0218e+08
9.73513e+07
9.23702e+07
8.35506e+07
7.16903e+07
5.57647e+07
3.7561e+07
3.27814e+07
6.83101e+07
1.32516e+08
2.20187e+08
3.56268e+08
5.34302e+08
7.9673e+08
1.03338e+09
1.02493e+08
1.06848e+08
1.01913e+08
9.67729e+07
8.77717e+07
7.5619e+07
5.93582e+07
4.0303e+07
3.26423e+07
6.65987e+07
1.30738e+08
2.1879e+08
3.5532e+08
5.33954e+08
7.96308e+08
1.03272e+09
1.07191e+08
1.11682e+08
1.06641e+08
1.01336e+08
9.2155e+07
7.97076e+07
6.31265e+07
4.33033e+07
3.29189e+07
6.49836e+07
1.28978e+08
2.17409e+08
3.54397e+08
5.33656e+08
7.95953e+08
1.03214e+09
1.12055e+08
1.1671e+08
1.11563e+08
1.06088e+08
9.6727e+07
8.39811e+07
6.70898e+07
4.6568e+07
3.36633e+07
6.34985e+07
1.27258e+08
2.1606e+08
3.53513e+08
5.33416e+08
7.95697e+08
1.03165e+09
1.17114e+08
1.2192e+08
1.16667e+08
1.11014e+08
1.01474e+08
8.84237e+07
7.12271e+07
5.00634e+07
3.48705e+07
6.21675e+07
1.25599e+08
2.14742e+08
3.527e+08
5.33253e+08
7.95609e+08
1.03112e+09
1.22357e+08
1.27306e+08
1.21947e+08
1.16107e+08
1.06386e+08
9.30235e+07
7.55229e+07
5.37636e+07
3.65315e+07
6.10579e+07
1.24042e+08
2.1352e+08
3.52002e+08
5.33235e+08
7.95686e+08
1.03075e+09
1.27776e+08
1.32908e+08
1.27444e+08
1.21411e+08
1.11509e+08
9.78253e+07
8.00196e+07
5.76932e+07
3.86322e+07
6.01792e+07
1.22574e+08
2.12401e+08
3.5142e+08
5.33388e+08
7.95906e+08
1.03063e+09
1.33413e+08
1.38798e+08
1.33233e+08
1.26999e+08
1.16921e+08
1.0291e+08
8.4797e+07
6.19199e+07
4.1182e+07
5.95109e+07
1.2113e+08
2.11314e+08
3.50889e+08
5.33659e+08
7.96269e+08
1.03077e+09
1.39338e+08
1.45007e+08
1.39349e+08
1.32912e+08
1.22665e+08
1.08322e+08
8.9902e+07
6.64814e+07
4.418e+07
5.90475e+07
1.19677e+08
2.10207e+08
3.50387e+08
5.3401e+08
7.96823e+08
1.03119e+09
1.45583e+08
1.51412e+08
1.45672e+08
1.39031e+08
1.28628e+08
1.13958e+08
9.52341e+07
7.12897e+07
4.75642e+07
5.88722e+07
1.18299e+08
2.09144e+08
3.49984e+08
5.34506e+08
7.977e+08
1.03195e+09
1.52023e+08
1.57789e+08
1.51983e+08
1.45145e+08
1.34603e+08
1.19618e+08
1.00602e+08
7.61655e+07
5.11844e+07
5.90664e+07
1.17109e+08
2.08262e+08
3.498e+08
5.35298e+08
7.98915e+08
1.03316e+09
1.58435e+08
1.64109e+08
1.58258e+08
1.51235e+08
1.40584e+08
1.25304e+08
1.06014e+08
8.11102e+07
5.49781e+07
5.95421e+07
1.16021e+08
2.07493e+08
3.49777e+08
5.36359e+08
8.00455e+08
1.03486e+09
1.64787e+08
1.7029e+08
1.64428e+08
1.57244e+08
1.46524e+08
1.3099e+08
1.11454e+08
8.61087e+07
5.88767e+07
6.0179e+07
1.1493e+08
2.06722e+08
3.49844e+08
5.37613e+08
8.02363e+08
1.03713e+09
1.70996e+08
1.75978e+08
1.70146e+08
1.62841e+08
1.52108e+08
1.36378e+08
1.16642e+08
9.09073e+07
6.26502e+07
6.08985e+07
1.13867e+08
2.05994e+08
3.5005e+08
5.39118e+08
8.04738e+08
1.04004e+09
1.76706e+08
1.80789e+08
1.7504e+08
1.67671e+08
1.57e+08
1.41159e+08
1.21293e+08
9.52362e+07
6.60273e+07
6.15041e+07
1.12779e+08
2.05309e+08
3.50424e+08
5.40941e+08
8.07605e+08
1.04366e+09
1.81528e+08
1.84305e+08
1.78707e+08
1.71356e+08
1.60843e+08
1.45009e+08
1.25107e+08
9.88154e+07
6.87136e+07
6.17007e+07
1.11535e+08
2.04583e+08
3.50915e+08
5.43035e+08
8.10992e+08
1.04805e+09
1.8504e+08
1.85927e+08
1.80564e+08
1.73345e+08
1.63119e+08
1.4745e+08
1.27646e+08
1.01237e+08
7.02963e+07
6.10975e+07
1.09963e+08
2.03725e+08
3.51474e+08
5.45385e+08
8.14923e+08
1.05328e+09
1.86635e+08
1.8495e+08
1.79928e+08
1.72996e+08
1.6322e+08
1.47928e+08
1.28401e+08
1.02019e+08
7.02806e+07
5.91782e+07
1.07846e+08
2.02613e+08
3.52025e+08
5.47915e+08
8.19363e+08
1.05941e+09
1.85598e+08
1.80486e+08
1.75934e+08
1.69503e+08
1.6039e+08
1.45754e+08
1.26747e+08
1.00579e+08
6.80664e+07
5.53257e+07
1.04991e+08
2.01148e+08
3.52476e+08
5.50558e+08
8.24294e+08
1.06653e+09
1.81024e+08
1.71468e+08
1.6755e+08
1.61915e+08
1.53745e+08
1.40141e+08
1.2199e+08
9.62673e+07
6.2977e+07
4.8772e+07
1.01268e+08
1.99237e+08
3.52717e+08
5.53184e+08
8.29557e+08
1.07463e+09
1.71815e+08
1.56851e+08
1.53784e+08
1.49386e+08
1.42546e+08
1.30512e+08
1.13699e+08
8.87562e+07
5.46369e+07
3.87207e+07
9.67423e+07
1.96745e+08
3.52528e+08
5.55502e+08
8.3506e+08
1.08363e+09
1.56872e+08
1.35204e+08
1.3331e+08
1.30867e+08
1.25942e+08
1.16315e+08
1.01615e+08
7.80558e+07
4.3377e+07
2.51048e+07
9.25359e+07
1.94075e+08
3.51988e+08
5.57329e+08
8.40646e+08
1.09349e+09
1.34641e+08
1.052e+08
1.05076e+08
1.05991e+08
1.04012e+08
9.83036e+07
8.7176e+07
6.65526e+07
3.45401e+07
1.7142e+07
9.15587e+07
1.9228e+08
3.51361e+08
5.58627e+08
8.46005e+08
1.10399e+09
1.03466e+08
6.68836e+07
7.01519e+07
7.78613e+07
8.09301e+07
8.20702e+07
7.73836e+07
6.37821e+07
4.5469e+07
3.95509e+07
9.92028e+07
1.93537e+08
3.51371e+08
5.5925e+08
8.50704e+08
1.11477e+09
6.20109e+07
3.32952e+07
4.42995e+07
6.39968e+07
7.38286e+07
8.39553e+07
8.77322e+07
8.44345e+07
8.09832e+07
8.00207e+07
1.21762e+08
2.01787e+08
3.5364e+08
5.59533e+08
8.54533e+08
1.12518e+09
1.25591e+07
7.08045e+07
7.83776e+07
9.60641e+07
1.06367e+08
1.19504e+08
1.27617e+08
1.30686e+08
1.34428e+08
1.34753e+08
1.63377e+08
2.23303e+08
3.61757e+08
5.60179e+08
8.56689e+08
1.13429e+09
6.0735e+07
1.47861e+08
1.51962e+08
1.64337e+08
1.72049e+08
1.83819e+08
1.92367e+08
1.97737e+08
2.04377e+08
2.05074e+08
2.2559e+08
2.65284e+08
3.82118e+08
5.64221e+08
8.56152e+08
1.14019e+09
1.4186e+08
2.42414e+08
2.44757e+08
2.539e+08
2.59441e+08
2.6928e+08
2.77016e+08
2.83019e+08
2.90944e+08
2.9227e+08
3.09071e+08
3.34083e+08
4.26796e+08
5.82751e+08
8.58857e+08
1.14206e+09
2.37885e+08
3.51553e+08
3.52826e+08
3.59837e+08
3.63781e+08
3.7194e+08
3.7863e+08
3.84743e+08
3.9331e+08
3.95812e+08
4.12086e+08
4.30033e+08
5.05216e+08
6.34779e+08
8.86941e+08
1.15276e+09
3.47823e+08
4.72925e+08
4.73517e+08
4.79001e+08
4.81788e+08
4.88576e+08
4.94204e+08
5.00181e+08
5.08734e+08
5.12269e+08
5.28647e+08
5.43501e+08
6.08236e+08
7.18032e+08
9.47001e+08
1.18644e+09
4.69741e+08
6.03205e+08
6.03387e+08
6.07722e+08
6.09683e+08
6.15338e+08
6.19921e+08
6.25513e+08
6.33288e+08
6.37078e+08
6.52283e+08
6.63875e+08
7.18641e+08
8.08998e+08
1.01064e+09
1.2155e+09
6.00462e+08
7.37766e+08
7.37742e+08
7.41195e+08
7.42593e+08
7.47306e+08
7.50909e+08
7.55943e+08
7.62363e+08
7.65737e+08
7.78458e+08
7.85987e+08
8.29915e+08
8.99846e+08
1.07034e+09
1.23683e+09
7.35419e+08
8.70801e+08
8.70727e+08
8.73498e+08
8.7456e+08
8.785e+08
8.81269e+08
8.85691e+08
8.90487e+08
8.9314e+08
9.02466e+08
9.05579e+08
9.38011e+08
9.87252e+08
1.12513e+09
1.25133e+09
8.68836e+08
9.95494e+08
9.95482e+08
9.97719e+08
9.98635e+08
1.00195e+09
1.00412e+09
1.00801e+09
1.01131e+09
1.01341e+09
1.01918e+09
1.0186e+09
1.03975e+09
1.06893e+09
1.17334e+09
1.25658e+09
9.9391e+08
1.10436e+09
1.10446e+09
1.10624e+09
1.10711e+09
1.10989e+09
1.1117e+09
1.11512e+09
1.11738e+09
1.11939e+09
1.12235e+09
1.11994e+09
1.1313e+09
1.14383e+09
1.21466e+09
1.25658e+09
1.10316e+09
1.1888e+09
1.18896e+09
1.19027e+09
1.19107e+09
1.19323e+09
1.19479e+09
1.19772e+09
1.19959e+09
1.202e+09
1.20377e+09
1.20231e+09
1.20692e+09
1.21033e+09
1.24817e+09
1.25652e+09
1.18799e+09
1.24329e+09
1.24349e+09
1.24433e+09
1.24505e+09
1.24663e+09
1.24812e+09
1.25068e+09
1.25287e+09
1.25602e+09
1.2583e+09
1.25878e+09
1.25841e+09
1.25789e+09
1.25719e+09
1.2564e+09
1.24285e+09
1.25907e+09
1.25909e+09
1.25911e+09
1.25914e+09
1.25916e+09
1.25918e+09
1.2592e+09
1.25918e+09
1.25912e+09
1.25898e+09
1.25876e+09
1.25838e+09
1.25785e+09
1.25708e+09
1.25619e+09
1.25906e+09
1.25899e+09
1.259e+09
1.25902e+09
1.25904e+09
1.25906e+09
1.25907e+09
1.25906e+09
1.25902e+09
1.25894e+09
1.25878e+09
1.25853e+09
1.25811e+09
1.25756e+09
1.25676e+09
1.25585e+09
1.25898e+09
1.25873e+09
1.25874e+09
1.25875e+09
1.25876e+09
1.25877e+09
1.25877e+09
1.25874e+09
1.25867e+09
1.25855e+09
1.25835e+09
1.25806e+09
1.25761e+09
1.25703e+09
1.25624e+09
1.25538e+09
1.25872e+09
1.2583e+09
1.2583e+09
1.2583e+09
1.2583e+09
1.25829e+09
1.25827e+09
1.25821e+09
1.25812e+09
1.25797e+09
1.25773e+09
1.2574e+09
1.25694e+09
1.25634e+09
1.25561e+09
1.25486e+09
1.25829e+09
1.25768e+09
1.25768e+09
1.25767e+09
1.25766e+09
1.25763e+09
1.25758e+09
1.2575e+09
1.25738e+09
1.2572e+09
1.25695e+09
1.2566e+09
1.25614e+09
1.25557e+09
1.25493e+09
1.25433e+09
1.25768e+09
1.25692e+09
1.2569e+09
1.25688e+09
1.25685e+09
1.2568e+09
1.25674e+09
1.25664e+09
1.2565e+09
1.2563e+09
1.25604e+09
1.25569e+09
1.25526e+09
1.25475e+09
1.25424e+09
1.2538e+09
1.25692e+09
1.25604e+09
1.25602e+09
1.25598e+09
1.25593e+09
1.25587e+09
1.25578e+09
1.25566e+09
1.2555e+09
1.2553e+09
1.25504e+09
1.25471e+09
1.25434e+09
1.25391e+09
1.25354e+09
1.25328e+09
1.25605e+09
1.25511e+09
1.25507e+09
1.25502e+09
1.25495e+09
1.25486e+09
1.25475e+09
1.25461e+09
1.25444e+09
1.25424e+09
1.25399e+09
1.2537e+09
1.25339e+09
1.25307e+09
1.25286e+09
1.25277e+09
1.25512e+09
1.25416e+09
1.25411e+09
1.25405e+09
1.25396e+09
1.25385e+09
1.25372e+09
1.25357e+09
1.25338e+09
1.25317e+09
1.25293e+09
1.25268e+09
1.25244e+09
1.25224e+09
1.25219e+09
1.25229e+09
1.25417e+09
1.25322e+09
1.25317e+09
1.2531e+09
1.253e+09
1.25288e+09
1.25273e+09
1.25256e+09
1.25237e+09
1.25215e+09
1.25191e+09
1.2517e+09
1.25153e+09
1.25144e+09
1.25155e+09
1.25182e+09
1.25323e+09
1.25232e+09
1.25227e+09
1.2522e+09
1.2521e+09
1.25197e+09
1.25182e+09
1.25164e+09
1.25144e+09
1.25123e+09
1.25101e+09
1.25083e+09
1.25071e+09
1.25072e+09
1.25093e+09
1.25133e+09
1.25233e+09
1.25147e+09
1.25143e+09
1.25136e+09
1.25126e+09
1.25114e+09
1.25099e+09
1.25082e+09
1.25063e+09
1.25046e+09
1.25031e+09
1.25021e+09
1.25015e+09
1.25019e+09
1.25039e+09
1.25082e+09
1.25149e+09
1.2507e+09
1.25065e+09
1.25058e+09
1.2505e+09
1.25042e+09
1.25032e+09
1.2502e+09
1.25008e+09
1.23332e+09
1.18481e+09
1.15698e+09
1.15054e+09
1.18355e+09
1.25004e+09
1.25035e+09
1.25071e+09
1.25012e+09
1.25008e+09
1.25003e+09
1.23606e+09
1.20388e+09
1.16551e+09
1.12441e+09
1.08278e+09
1.05085e+09
1.02589e+09
1.02068e+09
1.03379e+09
1.07923e+09
1.15376e+09
1.25005e+09
1.25013e+09
1.08151e+09
1.06799e+09
1.05095e+09
1.02913e+09
1.00531e+09
9.78544e+08
9.53758e+08
9.31323e+08
9.16177e+08
9.05641e+08
9.15281e+08
9.43486e+08
1.00068e+09
1.07789e+09
1.17906e+09
1.08568e+09
9.09342e+08
9.01448e+08
8.91241e+08
8.7558e+08
8.56374e+08
8.35781e+08
8.18721e+08
8.06095e+08
8.03492e+08
8.09111e+08
8.31609e+08
8.69726e+08
9.29686e+08
1.00751e+09
1.10521e+09
9.11724e+08
7.66014e+08
7.59663e+08
7.51507e+08
7.40947e+08
7.29703e+08
7.18967e+08
7.12392e+08
7.10915e+08
7.18281e+08
7.34114e+08
7.64247e+08
8.07858e+08
8.67972e+08
9.42306e+08
1.0311e+09
7.68077e+08
6.50252e+08
6.46879e+08
6.42285e+08
6.36681e+08
6.31151e+08
6.2755e+08
6.2836e+08
6.34974e+08
6.49844e+08
6.73324e+08
7.08119e+08
7.53949e+08
8.1179e+08
8.80756e+08
9.6057e+08
6.51461e+08
5.56447e+08
5.55195e+08
5.53328e+08
5.52186e+08
5.52111e+08
5.55106e+08
5.62374e+08
5.75575e+08
5.95707e+08
6.23694e+08
6.60369e+08
7.05977e+08
7.602e+08
8.22794e+08
8.93302e+08
5.57119e+08
4.81942e+08
4.82803e+08
4.8356e+08
4.86264e+08
4.90441e+08
4.98419e+08
5.1029e+08
5.27995e+08
5.51361e+08
5.81701e+08
6.1848e+08
6.62361e+08
7.12262e+08
7.68328e+08
8.30185e+08
4.82017e+08
4.22938e+08
4.25534e+08
4.28446e+08
4.34291e+08
4.4183e+08
4.536e+08
4.68737e+08
4.89371e+08
5.14399e+08
5.4542e+08
5.81058e+08
6.22288e+08
6.67604e+08
7.17356e+08
7.71326e+08
4.22508e+08
3.76792e+08
3.80809e+08
3.85451e+08
3.93689e+08
4.03627e+08
4.17962e+08
4.3508e+08
4.57261e+08
4.82734e+08
5.13299e+08
5.47051e+08
5.85168e+08
6.25935e+08
6.69809e+08
7.16753e+08
3.75918e+08
3.40843e+08
3.45915e+08
3.51823e+08
3.61739e+08
3.73259e+08
3.89156e+08
4.07274e+08
4.29975e+08
4.55043e+08
4.84402e+08
5.15849e+08
5.50681e+08
5.87113e+08
6.25649e+08
6.66435e+08
3.3962e+08
3.13004e+08
3.18785e+08
3.25528e+08
3.36473e+08
3.48867e+08
3.6549e+08
3.83833e+08
4.06286e+08
4.30369e+08
4.58058e+08
4.87012e+08
5.1857e+08
5.50966e+08
5.8471e+08
6.20116e+08
3.11527e+08
2.91449e+08
2.97623e+08
3.0482e+08
3.16246e+08
3.28949e+08
3.45658e+08
3.63668e+08
3.85342e+08
4.08076e+08
4.33839e+08
4.6026e+08
4.8867e+08
5.17379e+08
5.4688e+08
5.77639e+08
2.89814e+08
2.74718e+08
2.81019e+08
2.88354e+08
2.9982e+08
3.12399e+08
3.28718e+08
3.46002e+08
3.66542e+08
3.87714e+08
4.11435e+08
4.35378e+08
4.60825e+08
4.86199e+08
5.11958e+08
5.38705e+08
2.73011e+08
2.61613e+08
2.67828e+08
2.75056e+08
2.86231e+08
2.98372e+08
3.13967e+08
3.30267e+08
3.49458e+08
3.68967e+08
3.90625e+08
4.12201e+08
4.34904e+08
4.57285e+08
4.79764e+08
5.03066e+08
2.59903e+08
2.51184e+08
2.57158e+08
2.641e+08
2.74749e+08
2.86237e+08
3.00888e+08
3.16049e+08
3.33774e+08
3.51597e+08
3.71235e+08
3.90589e+08
4.10775e+08
4.30488e+08
4.50104e+08
4.70457e+08
2.49526e+08
2.42681e+08
2.48308e+08
2.54842e+08
2.64812e+08
2.75514e+08
2.89093e+08
3.03038e+08
3.19254e+08
3.35419e+08
3.53122e+08
3.70416e+08
3.88312e+08
4.05656e+08
4.22775e+08
4.40599e+08
2.41112e+08
2.35521e+08
2.40736e+08
2.4679e+08
2.55994e+08
2.65838e+08
2.78284e+08
2.90993e+08
3.05712e+08
3.20286e+08
3.36164e+08
3.51567e+08
3.67395e+08
3.82645e+08
3.97597e+08
4.13269e+08
2.34064e+08
2.29256e+08
2.34029e+08
2.39568e+08
2.47968e+08
2.5693e+08
2.68233e+08
2.79727e+08
2.92998e+08
3.06069e+08
3.20249e+08
3.33928e+08
3.47896e+08
3.61299e+08
3.74368e+08
3.88198e+08
2.27923e+08
2.23549e+08
2.27873e+08
2.3289e+08
2.40486e+08
2.48577e+08
2.58765e+08
2.69093e+08
2.8099e+08
2.92662e+08
3.05276e+08
3.17396e+08
3.29702e+08
3.41483e+08
3.52922e+08
3.65186e+08
2.22345e+08
2.18154e+08
2.22039e+08
2.26545e+08
2.33363e+08
2.40618e+08
2.49742e+08
2.58974e+08
2.69586e+08
2.7997e+08
2.91154e+08
3.01872e+08
3.12696e+08
3.23055e+08
3.33083e+08
3.44014e+08
2.17076e+08
2.12891e+08
2.1636e+08
2.20381e+08
2.26463e+08
2.32932e+08
2.41061e+08
2.49276e+08
2.58703e+08
2.67913e+08
2.778e+08
2.87265e+08
2.96775e+08
3.05889e+08
3.14699e+08
3.24495e+08
2.11933e+08
2.07638e+08
2.10719e+08
2.1429e+08
2.19688e+08
2.25431e+08
2.32641e+08
2.39926e+08
2.48272e+08
2.56421e+08
2.65142e+08
2.73492e+08
2.8184e+08
2.89869e+08
2.97628e+08
3.06462e+08
2.06791e+08
2.02315e+08
2.0504e+08
2.08198e+08
2.12972e+08
2.18053e+08
2.24426e+08
2.30869e+08
2.38236e+08
2.45435e+08
2.53113e+08
2.60478e+08
2.67801e+08
2.74887e+08
2.81739e+08
2.89754e+08
2.01569e+08
1.96873e+08
1.99277e+08
2.02062e+08
2.06271e+08
2.10755e+08
2.16374e+08
2.22062e+08
2.28551e+08
2.34905e+08
2.41656e+08
2.48153e+08
2.54579e+08
2.60848e+08
2.66921e+08
2.74243e+08
1.96218e+08
1.91288e+08
1.93405e+08
1.95856e+08
1.99559e+08
2.03511e+08
2.08455e+08
2.13472e+08
2.19181e+08
2.24787e+08
2.30719e+08
2.36458e+08
2.421e+08
2.47662e+08
2.53065e+08
2.59798e+08
1.90715e+08
1.85555e+08
1.87416e+08
1.89572e+08
1.92826e+08
1.96307e+08
2.00653e+08
2.05078e+08
2.10096e+08
2.15048e+08
2.2026e+08
2.25338e+08
2.30297e+08
2.35251e+08
2.4008e+08
2.46313e+08
1.85053e+08
1.79679e+08
1.81315e+08
1.83212e+08
1.86069e+08
1.89138e+08
1.92956e+08
1.96864e+08
2.01275e+08
2.05655e+08
2.10238e+08
2.14745e+08
2.19112e+08
2.23546e+08
2.27882e+08
2.33693e+08
1.79239e+08
1.73675e+08
1.75113e+08
1.76785e+08
1.79295e+08
1.82004e+08
1.8536e+08
1.88818e+08
1.92699e+08
1.96585e+08
2.00622e+08
2.04636e+08
2.08492e+08
2.1248e+08
2.16396e+08
2.21848e+08
1.73289e+08
1.67563e+08
1.6883e+08
1.70305e+08
1.72513e+08
1.74912e+08
1.77866e+08
1.80935e+08
1.84356e+08
1.87817e+08
1.9138e+08
1.94973e+08
1.98391e+08
2.02002e+08
2.05559e+08
2.10709e+08
1.67224e+08
1.61367e+08
1.62485e+08
1.63792e+08
1.65737e+08
1.67869e+08
1.70474e+08
1.73211e+08
1.76234e+08
1.79332e+08
1.82489e+08
1.85725e+08
1.88768e+08
1.92059e+08
1.95311e+08
2.00208e+08
1.61068e+08
1.55113e+08
1.56101e+08
1.57265e+08
1.58983e+08
1.60887e+08
1.63191e+08
1.65645e+08
1.68326e+08
1.71117e+08
1.73926e+08
1.76861e+08
1.79587e+08
1.82612e+08
1.85607e+08
1.90292e+08
1.54847e+08
1.48826e+08
1.49703e+08
1.50745e+08
1.52267e+08
1.53977e+08
1.56023e+08
1.58238e+08
1.60625e+08
1.63158e+08
1.65673e+08
1.68358e+08
1.70816e+08
1.73621e+08
1.76401e+08
1.80912e+08
1.48589e+08
1.42535e+08
1.43316e+08
1.44254e+08
1.45608e+08
1.47154e+08
1.48978e+08
1.5099e+08
1.53128e+08
1.55447e+08
1.57712e+08
1.60191e+08
1.62426e+08
1.65053e+08
1.67656e+08
1.72025e+08
1.42323e+08
1.36268e+08
1.36966e+08
1.37815e+08
1.39023e+08
1.4043e+08
1.42063e+08
1.43907e+08
1.45831e+08
1.47973e+08
1.50028e+08
1.52342e+08
1.54394e+08
1.56879e+08
1.59339e+08
1.63597e+08
1.36076e+08
1.30054e+08
1.30679e+08
1.31452e+08
1.32533e+08
1.33823e+08
1.35289e+08
1.36991e+08
1.38734e+08
1.40729e+08
1.42609e+08
1.44791e+08
1.46694e+08
1.49072e+08
1.5142e+08
1.55594e+08
1.2988e+08
1.23924e+08
1.24484e+08
1.25191e+08
1.2616e+08
1.27347e+08
1.28669e+08
1.3025e+08
1.31835e+08
1.33711e+08
1.35444e+08
1.37522e+08
1.39308e+08
1.41608e+08
1.43874e+08
1.47993e+08
1.23765e+08
1.17909e+08
1.18411e+08
1.19059e+08
1.19927e+08
1.21023e+08
1.22215e+08
1.23692e+08
1.25139e+08
1.26915e+08
1.28524e+08
1.30523e+08
1.32218e+08
1.34466e+08
1.36678e+08
1.40768e+08
1.17764e+08
1.12046e+08
1.12494e+08
1.13087e+08
1.13861e+08
1.14873e+08
1.15946e+08
1.17327e+08
1.18648e+08
1.20338e+08
1.2184e+08
1.23779e+08
1.25406e+08
1.27627e+08
1.29812e+08
1.33901e+08
1.11914e+08
1.06374e+08
1.0677e+08
1.07308e+08
1.07993e+08
1.08922e+08
1.09881e+08
1.11171e+08
1.12373e+08
1.13984e+08
1.15389e+08
1.1728e+08
1.18857e+08
1.21073e+08
1.23259e+08
1.27376e+08
1.06254e+08
1.00935e+08
1.0128e+08
1.01763e+08
1.02359e+08
1.03203e+08
1.04047e+08
1.05242e+08
1.06326e+08
1.07857e+08
1.09168e+08
1.11018e+08
1.12557e+08
1.14784e+08
1.16999e+08
1.21173e+08
1.00828e+08
9.57792e+07
9.60717e+07
9.64948e+07
9.69999e+07
9.7751e+07
9.84781e+07
9.95666e+07
1.00527e+08
1.01967e+08
1.0318e+08
1.04985e+08
1.06493e+08
1.08744e+08
1.11016e+08
1.1528e+08
9.56856e+07
9.0958e+07
9.11971e+07
9.15544e+07
9.19653e+07
9.26119e+07
9.32138e+07
9.41789e+07
9.50028e+07
9.63314e+07
9.74332e+07
9.9179e+07
1.00653e+08
1.0293e+08
1.05286e+08
1.09674e+08
9.08797e+07
8.65286e+07
8.67129e+07
8.69973e+07
8.73099e+07
8.78376e+07
8.83049e+07
8.91231e+07
8.97934e+07
9.09794e+07
9.19458e+07
9.36032e+07
9.50266e+07
9.73236e+07
9.97867e+07
1.04336e+08
8.64673e+07
8.25505e+07
8.26793e+07
8.2884e+07
8.30954e+07
8.34891e+07
8.38128e+07
8.44561e+07
8.49527e+07
8.59539e+07
8.67515e+07
8.82732e+07
8.96134e+07
9.19041e+07
9.44901e+07
9.92356e+07
8.25076e+07
7.90835e+07
7.91581e+07
7.92781e+07
7.93888e+07
7.96353e+07
7.981e+07
8.02501e+07
8.0554e+07
8.13195e+07
8.19075e+07
8.32253e+07
8.4428e+07
8.66618e+07
8.93686e+07
9.43293e+07
7.90602e+07
7.61851e+07
7.62094e+07
7.62434e+07
7.62592e+07
7.63514e+07
7.63796e+07
7.65934e+07
7.66925e+07
7.71683e+07
7.75026e+07
7.85245e+07
7.95077e+07
8.15963e+07
8.43895e+07
8.95642e+07
7.61814e+07
7.39035e+07
7.38847e+07
7.38368e+07
7.37705e+07
7.37112e+07
7.36073e+07
7.35856e+07
7.34832e+07
7.36244e+07
7.36671e+07
7.42769e+07
7.49187e+07
7.66942e+07
7.94521e+07
8.48352e+07
7.39183e+07
7.22654e+07
7.22135e+07
7.20935e+07
7.19652e+07
7.17691e+07
7.15627e+07
7.13187e+07
7.10464e+07
7.08409e+07
7.05919e+07
7.06848e+07
7.08565e+07
7.20372e+07
7.44551e+07
7.99565e+07
7.22964e+07
7.12793e+07
7.12079e+07
7.10305e+07
7.08686e+07
7.05626e+07
7.03016e+07
6.98757e+07
6.95072e+07
6.90059e+07
6.85619e+07
6.81537e+07
6.7889e+07
6.82591e+07
6.99419e+07
7.50319e+07
7.13229e+07
7.11563e+07
7.10768e+07
7.08575e+07
7.0686e+07
7.02989e+07
7.00244e+07
6.94647e+07
6.90689e+07
6.83511e+07
6.7829e+07
6.70401e+07
6.64953e+07
6.6056e+07
6.66095e+07
6.98904e+07
7.12089e+07
7.14199e+07
7.13392e+07
7.11037e+07
7.09329e+07
7.05134e+07
7.02409e+07
6.96263e+07
6.92289e+07
6.84194e+07
6.78747e+07
6.69166e+07
6.62549e+07
6.54054e+07
6.53222e+07
6.7019e+07
7.14761e+07
)
;

boundaryField
{
    wireUpstream
    {
        type            calculated;
        value           nonuniform List<scalar> 
16
(
7.17619e+07
7.1686e+07
7.14362e+07
7.12794e+07
7.08295e+07
7.05802e+07
6.99112e+07
6.95417e+07
6.86366e+07
6.81044e+07
6.69649e+07
6.62235e+07
6.49736e+07
6.4299e+07
6.39e+07
7.18206e+07
)
;
    }
    wireDownstream
    {
        type            calculated;
        value           nonuniform List<scalar> 
16
(
5.9252e+07
5.49323e+07
5.09157e+07
4.27026e+07
3.28726e+07
1.90481e+07
1.82331e+07
4.49135e+07
8.69915e+07
1.51027e+08
2.33659e+08
3.63898e+08
5.31979e+08
7.92455e+08
1.0393e+09
5.94962e+07
)
;
    }
    wireTopContact
    {
        type            calculated;
        value           nonuniform List<scalar> 
122
(
1.03388e+09
1.03504e+09
1.03558e+09
1.03676e+09
1.03777e+09
1.03882e+09
1.03965e+09
1.0403e+09
1.04078e+09
1.04108e+09
1.0412e+09
1.04117e+09
1.04097e+09
1.04066e+09
1.04025e+09
1.03967e+09
1.03905e+09
1.03841e+09
1.03767e+09
1.03682e+09
1.03594e+09
1.03511e+09
1.03434e+09
1.03365e+09
1.0331e+09
1.03271e+09
1.03257e+09
1.03269e+09
1.03308e+09
1.03381e+09
1.03499e+09
1.03666e+09
1.03889e+09
1.04175e+09
1.04533e+09
1.04969e+09
1.05487e+09
1.06097e+09
1.06806e+09
1.07615e+09
1.08518e+09
1.0951e+09
1.10572e+09
1.1167e+09
1.1274e+09
1.13699e+09
1.14377e+09
1.14598e+09
1.155e+09
1.18913e+09
1.2175e+09
1.23803e+09
1.25185e+09
1.25654e+09
1.25654e+09
1.25649e+09
1.25636e+09
1.25615e+09
1.25583e+09
1.25536e+09
1.25483e+09
1.25429e+09
1.25376e+09
1.25324e+09
1.25274e+09
1.25226e+09
1.2518e+09
1.25132e+09
1.25082e+09
1.25035e+09
1.25005e+09
1.17906e+09
1.106e+09
1.03197e+09
9.61386e+08
8.94013e+08
8.30804e+08
7.7187e+08
7.17226e+08
6.66866e+08
6.20499e+08
5.77993e+08
5.39029e+08
5.03362e+08
4.70731e+08
4.40846e+08
4.13496e+08
3.884e+08
3.65367e+08
3.44172e+08
3.24631e+08
3.06578e+08
2.89849e+08
2.74319e+08
2.59855e+08
2.46353e+08
2.33716e+08
2.21856e+08
2.10702e+08
2.00186e+08
1.90257e+08
1.80863e+08
1.71962e+08
1.6352e+08
1.55503e+08
1.47887e+08
1.40648e+08
1.33766e+08
1.27226e+08
1.21007e+08
1.151e+08
1.09482e+08
1.04136e+08
9.90358e+07
9.41404e+07
8.9402e+07
8.47377e+07
8.00212e+07
7.5366e+07
7.05174e+07
6.76634e+07
1.03798e+09
)
;
    }
    front
    {
        type            wedge;
    }
    back
    {
        type            wedge;
    }
}


// ************************************************************************* //
