/*--------------------------------*- C++ -*----------------------------------*\
| =========                 |                                                 |
| \\      /  F ield         | foam-extend: Open Source CFD                    |
|  \\    /   O peration     | Version:     4.1-20200408                       |
|   \\  /    A nd           | Web:         http://www.foam-extend.org         |
|    \\/     M anipulation  |                                                 |
\*---------------------------------------------------------------------------*/
FoamFile
{
    version     2.0;
    format      ascii;
    class       pointVectorField;
    location    "0.0930000";
    object      pointDU;
}
// * * * * * * * * * * * * * * * * * * * * * * * * * * * * * * * * * * * * * //

dimensions      [0 1 0 0 0 0 0];

internalField   nonuniform List<vector> 
4059
(
(0 6.03533e-18 -1.56516e-16)
(0 -1.94729e-15 7.60187e-17)
(0 -1.94033e-08 8.47167e-10)
(0 6.0275e-18 -1.56308e-16)
(0 -1.94729e-15 -2.41642e-16)
(0 -1.94033e-08 -8.47169e-10)
(0 6.40413e-15 -2.88612e-16)
(0 2.34055e-15 -1.11192e-16)
(0 1.29907e-15 -6.57205e-17)
(0 7.32506e-16 -4.09836e-17)
(0 3.8856e-16 -2.59668e-17)
(0 1.2531e-16 -1.44731e-17)
(0 -6.14184e-17 -6.32008e-18)
(0 -1.88769e-16 -7.59681e-19)
(0 -3.10277e-16 4.54499e-18)
(0 -3.23869e-16 5.1384e-18)
(0 -4.21444e-16 9.39917e-18)
(0 -3.16195e-16 4.80367e-18)
(0 -4.30054e-16 9.77458e-18)
(0 -2.1504e-16 3.86957e-19)
(0 -4.94719e-16 1.25982e-17)
(0 -1.82008e-08 7.94665e-10)
(0 -1.70025e-08 7.42343e-10)
(0 -1.5819e-08 6.90671e-10)
(0 -1.46508e-08 6.39669e-10)
(0 -1.34675e-08 5.88005e-10)
(0 -1.22776e-08 5.36052e-10)
(0 -1.10966e-08 4.84487e-10)
(0 -9.90149e-09 4.32308e-10)
(0 -8.69175e-09 3.7949e-10)
(0 -7.47254e-09 3.26258e-10)
(0 -6.24717e-09 2.72757e-10)
(0 -5.01145e-09 2.18805e-10)
(0 -3.76637e-09 1.64443e-10)
(0 -2.515e-09 1.09807e-10)
(0 -1.25855e-09 5.49493e-11)
(0 6.40413e-15 1.22989e-16)
(0 2.34055e-15 -5.4431e-17)
(0 1.29907e-15 -9.99027e-17)
(0 7.32506e-16 -1.2464e-16)
(0 3.8856e-16 -1.39657e-16)
(0 1.2531e-16 -1.51151e-16)
(0 -6.14184e-17 -1.59303e-16)
(0 -1.88769e-16 -1.64863e-16)
(0 -3.10277e-16 -1.70169e-16)
(0 -3.23869e-16 -1.70762e-16)
(0 -4.21444e-16 -1.75022e-16)
(0 -3.16195e-16 -1.70427e-16)
(0 -4.30054e-16 -1.75398e-16)
(0 -2.1504e-16 -1.66011e-16)
(0 -4.94719e-16 -1.78222e-16)
(0 -1.82008e-08 -7.94667e-10)
(0 -1.70025e-08 -7.42345e-10)
(0 -1.5819e-08 -6.90673e-10)
(0 -1.46508e-08 -6.39671e-10)
(0 -1.34675e-08 -5.88007e-10)
(0 -1.22776e-08 -5.36053e-10)
(0 -1.10966e-08 -4.84488e-10)
(0 -9.90149e-09 -4.3231e-10)
(0 -8.69175e-09 -3.79491e-10)
(0 -7.47254e-09 -3.26259e-10)
(0 -6.24717e-09 -2.72758e-10)
(0 -5.01145e-09 -2.18805e-10)
(0 -3.76637e-09 -1.64444e-10)
(0 -2.515e-09 -1.09808e-10)
(0 -1.25855e-09 -5.49496e-11)
(5.00037e-05 -8.05076e-10 3.51504e-11)
(5.00037e-05 -8.05076e-10 -3.51506e-11)
(5.00036e-05 -4.09169e-10 -1.78649e-11)
(5.00036e-05 -4.09169e-10 1.78647e-11)
(5.00038e-05 -1.19472e-09 5.21627e-11)
(5.00038e-05 -1.19472e-09 -5.2163e-11)
(5.00041e-05 -1.55269e-09 6.77917e-11)
(5.00041e-05 -1.55269e-09 -6.77921e-11)
(5.00044e-05 -1.88772e-09 8.24195e-11)
(5.00044e-05 -1.88772e-09 -8.24199e-11)
(5.00048e-05 -2.17633e-09 9.50206e-11)
(5.00048e-05 -2.17633e-09 -9.5021e-11)
(5.00052e-05 -2.42371e-09 1.05822e-10)
(5.00052e-05 -2.42371e-09 -1.05822e-10)
(5.00058e-05 -2.60816e-09 1.13875e-10)
(5.00058e-05 -2.60816e-09 -1.13875e-10)
(5.00065e-05 -2.74038e-09 1.19648e-10)
(5.00065e-05 -2.74038e-09 -1.19648e-10)
(5.00073e-05 -2.79932e-09 1.22221e-10)
(5.00073e-05 -2.79932e-09 -1.22221e-10)
(5.00082e-05 -2.7967e-09 1.22107e-10)
(5.00082e-05 -2.7967e-09 -1.22107e-10)
(5.00093e-05 -2.7189e-09 1.1871e-10)
(5.00093e-05 -2.7189e-09 -1.1871e-10)
(5.00106e-05 -2.60064e-09 1.13546e-10)
(5.00106e-05 -2.60064e-09 -1.13547e-10)
(5.00121e-05 -2.44744e-09 1.06857e-10)
(5.00121e-05 -2.44744e-09 -1.06858e-10)
(5.00138e-05 -2.34853e-09 1.02539e-10)
(5.00138e-05 -2.34853e-09 -1.0254e-10)
(5.00155e-05 -2.41278e-09 1.05344e-10)
(5.00155e-05 -2.41278e-09 -1.05345e-10)
(5.00035e-05 6.64137e-18 -1.72233e-16)
(5.00041e-05 -4.87572e-10 2.12878e-11)
(5.00041e-05 -4.87572e-10 -2.12881e-11)
(5.0004e-05 -2.47683e-10 -1.08143e-11)
(5.0004e-05 -2.47683e-10 1.08141e-11)
(5.00043e-05 -7.15807e-10 3.12528e-11)
(5.00043e-05 -7.15807e-10 -3.12531e-11)
(5.00045e-05 -9.18519e-10 4.01034e-11)
(5.00045e-05 -9.18519e-10 -4.01037e-11)
(5.00049e-05 -1.0969e-09 4.78918e-11)
(5.00049e-05 -1.0969e-09 -4.78921e-11)
(5.00053e-05 -1.23478e-09 5.39118e-11)
(5.00053e-05 -1.23478e-09 -5.39122e-11)
(5.00058e-05 -1.33411e-09 5.82484e-11)
(5.00058e-05 -1.33411e-09 -5.82487e-11)
(5.00064e-05 -1.38047e-09 6.02726e-11)
(5.00064e-05 -1.38047e-09 -6.02729e-11)
(5.0007e-05 -1.38235e-09 6.03549e-11)
(5.0007e-05 -1.38235e-09 -6.03552e-11)
(5.00079e-05 -1.32833e-09 5.79962e-11)
(5.00079e-05 -1.32833e-09 -5.79966e-11)
(5.00088e-05 -1.23133e-09 5.37611e-11)
(5.00088e-05 -1.23133e-09 -5.37614e-11)
(5.00099e-05 -1.0908e-09 4.76252e-11)
(5.00099e-05 -1.0908e-09 -4.76255e-11)
(5.00111e-05 -9.41871e-10 4.11229e-11)
(5.00111e-05 -9.41871e-10 -4.11232e-11)
(5.00124e-05 -7.96863e-10 3.47918e-11)
(5.00124e-05 -7.96863e-10 -3.4792e-11)
(5.00138e-05 -7.23306e-10 3.15802e-11)
(5.00138e-05 -7.23306e-10 -3.15805e-11)
(5.00152e-05 -7.53434e-10 3.28956e-11)
(5.00152e-05 -7.53434e-10 -3.28959e-11)
(5.0004e-05 6.64144e-18 -1.72234e-16)
(5.00048e-05 -2.1963e-10 9.58923e-12)
(5.00048e-05 -2.1963e-10 -9.58944e-12)
(5.00047e-05 -1.12897e-10 -4.92936e-12)
(5.00047e-05 -1.12897e-10 4.92916e-12)
(5.0005e-05 -3.15016e-10 1.37539e-11)
(5.0005e-05 -3.15016e-10 -1.37541e-11)
(5.00053e-05 -3.89215e-10 1.69935e-11)
(5.00053e-05 -3.89215e-10 -1.69937e-11)
(5.00056e-05 -4.41682e-10 1.92843e-11)
(5.00056e-05 -4.41682e-10 -1.92845e-11)
(5.0006e-05 -4.60475e-10 2.01048e-11)
(5.0006e-05 -4.60475e-10 -2.0105e-11)
(5.00065e-05 -4.48176e-10 1.95678e-11)
(5.00065e-05 -4.48176e-10 -1.9568e-11)
(5.00071e-05 -3.94693e-10 1.72327e-11)
(5.00071e-05 -3.94693e-10 -1.72329e-11)
(5.00078e-05 -3.08381e-10 1.34642e-11)
(5.00078e-05 -3.08381e-10 -1.34644e-11)
(5.00086e-05 -1.83658e-10 8.01865e-12)
(5.00086e-05 -1.83658e-10 -8.01885e-12)
(5.00095e-05 -3.51968e-11 1.53672e-12)
(5.00095e-05 -3.51968e-11 -1.5369e-12)
(5.00105e-05 1.32433e-10 -5.78215e-12)
(5.00105e-05 1.32433e-10 5.78198e-12)
(5.00115e-05 2.874e-10 -1.25482e-11)
(5.00115e-05 2.874e-10 1.2548e-11)
(5.00127e-05 4.15303e-10 -1.81325e-11)
(5.00127e-05 4.15303e-10 1.81324e-11)
(5.00138e-05 4.60563e-10 -2.01086e-11)
(5.00138e-05 4.60563e-10 2.01085e-11)
(5.00148e-05 4.08509e-10 -1.78359e-11)
(5.00148e-05 4.08509e-10 1.78358e-11)
(5.00047e-05 6.64153e-18 -1.72237e-16)
(5.00056e-05 -3.17697e-12 1.387e-13)
(5.00056e-05 -3.17697e-12 -1.38882e-13)
(5.00055e-05 -4.11205e-12 -1.79709e-13)
(5.00055e-05 -4.11205e-12 1.79526e-13)
(5.00058e-05 7.18085e-12 -3.13533e-13)
(5.00058e-05 7.18085e-12 3.13351e-13)
(5.00061e-05 3.47411e-11 -1.51684e-12)
(5.00061e-05 3.47411e-11 1.51666e-12)
(5.00064e-05 7.94452e-11 -3.46866e-12)
(5.00064e-05 7.94452e-11 3.46849e-12)
(5.00068e-05 1.50579e-10 -6.57444e-12)
(5.00068e-05 1.50579e-10 6.57427e-12)
(5.00073e-05 2.4412e-10 -1.06585e-11)
(5.00073e-05 2.4412e-10 1.06584e-11)
(5.00079e-05 3.67175e-10 -1.60312e-11)
(5.00079e-05 3.67175e-10 1.60311e-11)
(5.00086e-05 5.10508e-10 -2.22893e-11)
(5.00086e-05 5.10508e-10 2.22892e-11)
(5.00093e-05 6.75994e-10 -2.95145e-11)
(5.00093e-05 6.75994e-10 2.95144e-11)
(5.00102e-05 8.48681e-10 -3.70542e-11)
(5.00102e-05 8.48681e-10 3.70541e-11)
(5.00111e-05 1.02174e-09 -4.46101e-11)
(5.00111e-05 1.02174e-09 4.461e-11)
(5.0012e-05 1.1695e-09 -5.10616e-11)
(5.0012e-05 1.1695e-09 5.10616e-11)
(5.0013e-05 1.28022e-09 -5.58956e-11)
(5.0013e-05 1.28022e-09 5.58956e-11)
(5.00139e-05 1.31934e-09 -5.76036e-11)
(5.00139e-05 1.31934e-09 5.76036e-11)
(5.00146e-05 1.28586e-09 -5.61417e-11)
(5.00146e-05 1.28586e-09 5.61417e-11)
(5.00055e-05 6.64164e-18 -1.72239e-16)
(5.00066e-05 1.65691e-10 -7.23425e-12)
(5.00066e-05 1.65691e-10 7.23409e-12)
(5.00065e-05 8.08297e-11 3.52894e-12)
(5.00065e-05 8.08297e-11 -3.52911e-12)
(5.00068e-05 2.57434e-10 -1.12398e-11)
(5.00068e-05 2.57434e-10 1.12397e-11)
(5.0007e-05 3.62625e-10 -1.58325e-11)
(5.0007e-05 3.62625e-10 1.58324e-11)
(5.00074e-05 4.79703e-10 -2.09443e-11)
(5.00074e-05 4.79703e-10 2.09442e-11)
(5.00078e-05 6.16333e-10 -2.69097e-11)
(5.00078e-05 6.16333e-10 2.69096e-11)
(5.00083e-05 7.66775e-10 -3.34781e-11)
(5.00083e-05 7.66775e-10 3.3478e-11)
(5.00088e-05 9.36431e-10 -4.08855e-11)
(5.00088e-05 9.36431e-10 4.08854e-11)
(5.00094e-05 1.11537e-09 -4.86982e-11)
(5.00094e-05 1.11537e-09 4.86982e-11)
(5.00101e-05 1.30371e-09 -5.69214e-11)
(5.00101e-05 1.30371e-09 5.69213e-11)
(5.00109e-05 1.48747e-09 -6.49442e-11)
(5.00109e-05 1.48747e-09 6.49442e-11)
(5.00117e-05 1.65962e-09 -7.24607e-11)
(5.00117e-05 1.65962e-09 7.24607e-11)
(5.00125e-05 1.8006e-09 -7.86159e-11)
(5.00125e-05 1.8006e-09 7.8616e-11)
(5.00133e-05 1.901e-09 -8.29994e-11)
(5.00133e-05 1.901e-09 8.29994e-11)
(5.0014e-05 1.93886e-09 -8.46526e-11)
(5.0014e-05 1.93886e-09 8.46526e-11)
(5.00146e-05 1.91736e-09 -8.37139e-11)
(5.00146e-05 1.91736e-09 8.37139e-11)
(5.00064e-05 6.64176e-18 -1.72243e-16)
(5.00076e-05 2.91889e-10 -1.27442e-11)
(5.00076e-05 2.91889e-10 1.2744e-11)
(5.00075e-05 1.44403e-10 6.30462e-12)
(5.00075e-05 1.44403e-10 -6.30479e-12)
(5.00078e-05 4.43672e-10 -1.93711e-11)
(5.00078e-05 4.43672e-10 1.9371e-11)
(5.0008e-05 6.05443e-10 -2.64342e-11)
(5.0008e-05 6.05443e-10 2.64341e-11)
(5.00083e-05 7.73964e-10 -3.3792e-11)
(5.00083e-05 7.73964e-10 3.37919e-11)
(5.00087e-05 9.55942e-10 -4.17373e-11)
(5.00087e-05 9.55942e-10 4.17372e-11)
(5.00092e-05 1.14409e-09 -4.99521e-11)
(5.00092e-05 1.14409e-09 4.9952e-11)
(5.00097e-05 1.34297e-09 -5.86352e-11)
(5.00097e-05 1.34297e-09 5.86352e-11)
(5.00103e-05 1.54219e-09 -6.73335e-11)
(5.00103e-05 1.54219e-09 6.73335e-11)
(5.00109e-05 1.7413e-09 -7.6027e-11)
(5.00109e-05 1.7413e-09 7.6027e-11)
(5.00116e-05 1.92797e-09 -8.4177e-11)
(5.00116e-05 1.92797e-09 8.41771e-11)
(5.00123e-05 2.09594e-09 -9.15107e-11)
(5.00123e-05 2.09594e-09 9.15108e-11)
(5.0013e-05 2.23149e-09 -9.7429e-11)
(5.0013e-05 2.23149e-09 9.74291e-11)
(5.00136e-05 2.3276e-09 -1.01625e-10)
(5.00136e-05 2.3276e-09 1.01625e-10)
(5.00142e-05 2.37275e-09 -1.03596e-10)
(5.00142e-05 2.37275e-09 1.03597e-10)
(5.00146e-05 2.3715e-09 -1.03542e-10)
(5.00146e-05 2.3715e-09 1.03542e-10)
(5.00074e-05 6.64189e-18 -1.72246e-16)
(5.00086e-05 3.81115e-10 -1.66398e-11)
(5.00086e-05 3.81115e-10 1.66397e-11)
(5.00085e-05 1.89434e-10 8.2707e-12)
(5.00085e-05 1.89434e-10 -8.27086e-12)
(5.00088e-05 5.74758e-10 -2.50945e-11)
(5.00088e-05 5.74758e-10 2.50944e-11)
(5.0009e-05 7.75441e-10 -3.38565e-11)
(5.0009e-05 7.75441e-10 3.38564e-11)
(5.00093e-05 9.78364e-10 -4.27163e-11)
(5.00093e-05 9.78364e-10 4.27162e-11)
(5.00097e-05 1.18982e-09 -5.19485e-11)
(5.00097e-05 1.18982e-09 5.19485e-11)
(5.00101e-05 1.40121e-09 -6.11783e-11)
(5.00101e-05 1.40121e-09 6.11782e-11)
(5.00106e-05 1.61697e-09 -7.05986e-11)
(5.00106e-05 1.61697e-09 7.05986e-11)
(5.00112e-05 1.82657e-09 -7.97497e-11)
(5.00112e-05 1.82657e-09 7.97497e-11)
(5.00117e-05 2.02975e-09 -8.86209e-11)
(5.00117e-05 2.02975e-09 8.86209e-11)
(5.00123e-05 2.21606e-09 -9.67554e-11)
(5.00123e-05 2.21606e-09 9.67555e-11)
(5.00129e-05 2.38029e-09 -1.03926e-10)
(5.00129e-05 2.38029e-09 1.03926e-10)
(5.00135e-05 2.51355e-09 -1.09744e-10)
(5.00135e-05 2.51355e-09 1.09744e-10)
(5.0014e-05 2.6103e-09 -1.13968e-10)
(5.0014e-05 2.6103e-09 1.13968e-10)
(5.00145e-05 2.66602e-09 -1.16401e-10)
(5.00145e-05 2.66602e-09 1.16401e-10)
(5.00148e-05 2.68457e-09 -1.17211e-10)
(5.00148e-05 2.68457e-09 1.17211e-10)
(5.00084e-05 6.64203e-18 -1.7225e-16)
(5.00096e-05 4.39182e-10 -1.91751e-11)
(5.00096e-05 4.39182e-10 1.9175e-11)
(5.00095e-05 2.18805e-10 9.55308e-12)
(5.00095e-05 2.18805e-10 -9.55324e-12)
(5.00098e-05 6.59572e-10 -2.87975e-11)
(5.00098e-05 6.59572e-10 2.87974e-11)
(5.001e-05 8.84694e-10 -3.86266e-11)
(5.001e-05 8.84694e-10 3.86265e-11)
(5.00103e-05 1.10838e-09 -4.8393e-11)
(5.00103e-05 1.10838e-09 4.8393e-11)
(5.00107e-05 1.33696e-09 -5.83728e-11)
(5.00107e-05 1.33696e-09 5.83728e-11)
(5.00111e-05 1.56076e-09 -6.81442e-11)
(5.00111e-05 1.56076e-09 6.81442e-11)
(5.00115e-05 1.78459e-09 -7.79168e-11)
(5.00115e-05 1.78459e-09 7.79168e-11)
(5.0012e-05 1.99793e-09 -8.72314e-11)
(5.0012e-05 1.99793e-09 8.72315e-11)
(5.00125e-05 2.20117e-09 -9.61053e-11)
(5.00125e-05 2.20117e-09 9.61054e-11)
(5.0013e-05 2.3857e-09 -1.04162e-10)
(5.0013e-05 2.3857e-09 1.04162e-10)
(5.00136e-05 2.54729e-09 -1.11217e-10)
(5.00136e-05 2.54729e-09 1.11217e-10)
(5.0014e-05 2.68104e-09 -1.17057e-10)
(5.0014e-05 2.68104e-09 1.17057e-10)
(5.00145e-05 2.78221e-09 -1.21474e-10)
(5.00145e-05 2.78221e-09 1.21474e-10)
(5.00148e-05 2.85139e-09 -1.24494e-10)
(5.00148e-05 2.85139e-09 1.24495e-10)
(5.0015e-05 2.89087e-09 -1.26218e-10)
(5.0015e-05 2.89087e-09 1.26218e-10)
(5.00095e-05 6.64217e-18 -1.72253e-16)
(5.00107e-05 4.71612e-10 -2.0591e-11)
(5.00107e-05 4.71612e-10 2.05909e-11)
(5.00106e-05 2.35265e-10 1.02717e-11)
(5.00106e-05 2.35265e-10 -1.02719e-11)
(5.00108e-05 7.06463e-10 -3.08449e-11)
(5.00108e-05 7.06463e-10 3.08448e-11)
(5.0011e-05 9.44447e-10 -4.12354e-11)
(5.0011e-05 9.44447e-10 4.12354e-11)
(5.00113e-05 1.17823e-09 -5.14425e-11)
(5.00113e-05 1.17823e-09 5.14425e-11)
(5.00116e-05 1.41455e-09 -6.17606e-11)
(5.00116e-05 1.41455e-09 6.17605e-11)
(5.0012e-05 1.64283e-09 -7.17276e-11)
(5.0012e-05 1.64283e-09 7.17276e-11)
(5.00124e-05 1.86865e-09 -8.1587e-11)
(5.00124e-05 1.86865e-09 8.15871e-11)
(5.00129e-05 2.08157e-09 -9.08831e-11)
(5.00129e-05 2.08157e-09 9.08832e-11)
(5.00133e-05 2.28282e-09 -9.96702e-11)
(5.00133e-05 2.28282e-09 9.96703e-11)
(5.00138e-05 2.46542e-09 -1.07643e-10)
(5.00138e-05 2.46542e-09 1.07643e-10)
(5.00142e-05 2.62593e-09 -1.1465e-10)
(5.00142e-05 2.62593e-09 1.14651e-10)
(5.00146e-05 2.76258e-09 -1.20617e-10)
(5.00146e-05 2.76258e-09 1.20617e-10)
(5.00149e-05 2.87073e-09 -1.25339e-10)
(5.00149e-05 2.87073e-09 1.25339e-10)
(5.00152e-05 2.95463e-09 -1.29002e-10)
(5.00152e-05 2.95463e-09 1.29002e-10)
(5.00153e-05 3.01444e-09 -1.31613e-10)
(5.00153e-05 3.01444e-09 1.31613e-10)
(5.00105e-05 6.64231e-18 -1.72257e-16)
(5.00117e-05 4.83358e-10 -2.11039e-11)
(5.00117e-05 4.83358e-10 2.11037e-11)
(5.00116e-05 2.41289e-10 1.05348e-11)
(5.00116e-05 2.41289e-10 -1.05349e-11)
(5.00118e-05 7.22861e-10 -3.15608e-11)
(5.00118e-05 7.22861e-10 3.15607e-11)
(5.0012e-05 9.64598e-10 -4.21153e-11)
(5.0012e-05 9.64598e-10 4.21152e-11)
(5.00123e-05 1.20022e-09 -5.24027e-11)
(5.00123e-05 1.20022e-09 5.24027e-11)
(5.00126e-05 1.43724e-09 -6.27512e-11)
(5.00126e-05 1.43724e-09 6.27512e-11)
(5.00129e-05 1.66424e-09 -7.26622e-11)
(5.00129e-05 1.66424e-09 7.26622e-11)
(5.00133e-05 1.88785e-09 -8.24251e-11)
(5.00133e-05 1.88785e-09 8.24251e-11)
(5.00137e-05 2.09768e-09 -9.15866e-11)
(5.00137e-05 2.09768e-09 9.15867e-11)
(5.00141e-05 2.2959e-09 -1.00241e-10)
(5.00141e-05 2.2959e-09 1.00241e-10)
(5.00145e-05 2.4769e-09 -1.08144e-10)
(5.00145e-05 2.4769e-09 1.08144e-10)
(5.00148e-05 2.63773e-09 -1.15166e-10)
(5.00148e-05 2.63773e-09 1.15166e-10)
(5.00152e-05 2.77914e-09 -1.2134e-10)
(5.00152e-05 2.77914e-09 1.2134e-10)
(5.00154e-05 2.89606e-09 -1.26444e-10)
(5.00154e-05 2.89606e-09 1.26445e-10)
(5.00156e-05 2.99542e-09 -1.30783e-10)
(5.00156e-05 2.99542e-09 1.30783e-10)
(5.00157e-05 3.07499e-09 -1.34257e-10)
(5.00157e-05 3.07499e-09 1.34257e-10)
(5.00115e-05 6.64244e-18 -1.7226e-16)
(5.00126e-05 4.78704e-10 -2.09007e-11)
(5.00126e-05 4.78704e-10 2.09006e-11)
(5.00125e-05 2.39024e-10 1.04359e-11)
(5.00125e-05 2.39024e-10 -1.0436e-11)
(5.00128e-05 7.15148e-10 -3.12241e-11)
(5.00128e-05 7.15148e-10 3.1224e-11)
(5.0013e-05 9.53587e-10 -4.16345e-11)
(5.0013e-05 9.53587e-10 4.16344e-11)
(5.00132e-05 1.18475e-09 -5.17274e-11)
(5.00132e-05 1.18475e-09 5.17274e-11)
(5.00135e-05 1.41724e-09 -6.18782e-11)
(5.00135e-05 1.41724e-09 6.18782e-11)
(5.00138e-05 1.6388e-09 -7.15517e-11)
(5.00138e-05 1.6388e-09 7.15517e-11)
(5.00141e-05 1.85735e-09 -8.10936e-11)
(5.00141e-05 1.85735e-09 8.10936e-11)
(5.00145e-05 2.06246e-09 -9.00488e-11)
(5.00145e-05 2.06246e-09 9.00489e-11)
(5.00148e-05 2.25722e-09 -9.85524e-11)
(5.00148e-05 2.25722e-09 9.85525e-11)
(5.00152e-05 2.43716e-09 -1.06409e-10)
(5.00152e-05 2.43716e-09 1.06409e-10)
(5.00155e-05 2.59953e-09 -1.13498e-10)
(5.00155e-05 2.59953e-09 1.13498e-10)
(5.00158e-05 2.7471e-09 -1.19941e-10)
(5.00158e-05 2.7471e-09 1.19941e-10)
(5.0016e-05 2.87392e-09 -1.25478e-10)
(5.0016e-05 2.87392e-09 1.25478e-10)
(5.00161e-05 2.98896e-09 -1.30501e-10)
(5.00161e-05 2.98896e-09 1.30501e-10)
(5.00162e-05 3.08742e-09 -1.348e-10)
(5.00162e-05 3.08742e-09 1.348e-10)
(5.00125e-05 6.64257e-18 -1.72264e-16)
(5.00135e-05 4.61231e-10 -2.01378e-11)
(5.00135e-05 4.61231e-10 2.01376e-11)
(5.00135e-05 2.3027e-10 1.00537e-11)
(5.00135e-05 2.3027e-10 -1.00538e-11)
(5.00137e-05 6.88632e-10 -3.00663e-11)
(5.00137e-05 6.88632e-10 3.00662e-11)
(5.00138e-05 9.18373e-10 -4.0097e-11)
(5.00138e-05 9.18373e-10 4.00969e-11)
(5.00141e-05 1.14031e-09 -4.97872e-11)
(5.00141e-05 1.14031e-09 4.97871e-11)
(5.00143e-05 1.36442e-09 -5.95718e-11)
(5.00143e-05 1.36442e-09 5.95718e-11)
(5.00146e-05 1.57755e-09 -6.88773e-11)
(5.00146e-05 1.57755e-09 6.88773e-11)
(5.00149e-05 1.78908e-09 -7.81131e-11)
(5.00149e-05 1.78908e-09 7.81131e-11)
(5.00152e-05 1.98845e-09 -8.68177e-11)
(5.00152e-05 1.98845e-09 8.68177e-11)
(5.00156e-05 2.17963e-09 -9.51646e-11)
(5.00156e-05 2.17963e-09 9.51647e-11)
(5.00159e-05 2.35907e-09 -1.02999e-10)
(5.00159e-05 2.35907e-09 1.02999e-10)
(5.00161e-05 2.52394e-09 -1.10198e-10)
(5.00161e-05 2.52394e-09 1.10198e-10)
(5.00164e-05 2.6787e-09 -1.16955e-10)
(5.00164e-05 2.6787e-09 1.16955e-10)
(5.00165e-05 2.81617e-09 -1.22957e-10)
(5.00165e-05 2.81617e-09 1.22957e-10)
(5.00166e-05 2.94693e-09 -1.28666e-10)
(5.00166e-05 2.94693e-09 1.28666e-10)
(5.00166e-05 3.06347e-09 -1.33754e-10)
(5.00166e-05 3.06347e-09 1.33754e-10)
(5.00134e-05 6.64269e-18 -1.72267e-16)
(5.00144e-05 4.3386e-10 -1.89428e-11)
(5.00144e-05 4.3386e-10 1.89426e-11)
(5.00143e-05 2.16499e-10 9.45238e-12)
(5.00143e-05 2.16499e-10 -9.45254e-12)
(5.00145e-05 6.47621e-10 -2.82757e-11)
(5.00145e-05 6.47621e-10 2.82756e-11)
(5.00147e-05 8.64572e-10 -3.7748e-11)
(5.00147e-05 8.64572e-10 3.77479e-11)
(5.00149e-05 1.07369e-09 -4.68785e-11)
(5.00149e-05 1.07369e-09 4.68784e-11)
(5.00151e-05 1.28659e-09 -5.61736e-11)
(5.00151e-05 1.28659e-09 5.61735e-11)
(5.00154e-05 1.48913e-09 -6.50167e-11)
(5.00154e-05 1.48913e-09 6.50166e-11)
(5.00157e-05 1.69232e-09 -7.38881e-11)
(5.00157e-05 1.69232e-09 7.38881e-11)
(5.0016e-05 1.88531e-09 -8.23143e-11)
(5.0016e-05 1.88531e-09 8.23143e-11)
(5.00163e-05 2.07292e-09 -9.05055e-11)
(5.00163e-05 2.07292e-09 9.05055e-11)
(5.00166e-05 2.25236e-09 -9.83401e-11)
(5.00166e-05 2.25236e-09 9.83402e-11)
(5.00168e-05 2.4205e-09 -1.05681e-10)
(5.00168e-05 2.4205e-09 1.05681e-10)
(5.0017e-05 2.58322e-09 -1.12786e-10)
(5.0017e-05 2.58322e-09 1.12786e-10)
(5.00171e-05 2.73183e-09 -1.19274e-10)
(5.00171e-05 2.73183e-09 1.19274e-10)
(5.00172e-05 2.87825e-09 -1.25667e-10)
(5.00172e-05 2.87825e-09 1.25667e-10)
(5.00172e-05 3.0122e-09 -1.31516e-10)
(5.00172e-05 3.0122e-09 1.31516e-10)
(5.00143e-05 6.64281e-18 -1.7227e-16)
(5.00152e-05 3.98948e-10 -1.74185e-11)
(5.00152e-05 3.98948e-10 1.74183e-11)
(5.00151e-05 1.98899e-10 8.68397e-12)
(5.00151e-05 1.98899e-10 -8.68413e-12)
(5.00153e-05 5.95568e-10 -2.60031e-11)
(5.00153e-05 5.95568e-10 2.6003e-11)
(5.00155e-05 7.9666e-10 -3.47829e-11)
(5.00155e-05 7.9666e-10 3.47828e-11)
(5.00157e-05 9.90261e-10 -4.32357e-11)
(5.00157e-05 9.90261e-10 4.32357e-11)
(5.00159e-05 1.18987e-09 -5.19507e-11)
(5.00159e-05 1.18987e-09 5.19507e-11)
(5.00162e-05 1.38024e-09 -6.02625e-11)
(5.00162e-05 1.38024e-09 6.02624e-11)
(5.00165e-05 1.57415e-09 -6.8729e-11)
(5.00165e-05 1.57415e-09 6.8729e-11)
(5.00167e-05 1.76036e-09 -7.68589e-11)
(5.00167e-05 1.76036e-09 7.6859e-11)
(5.0017e-05 1.94446e-09 -8.48971e-11)
(5.0017e-05 1.94446e-09 8.48972e-11)
(5.00172e-05 2.12435e-09 -9.27512e-11)
(5.00172e-05 2.12435e-09 9.27512e-11)
(5.00175e-05 2.29632e-09 -1.0026e-10)
(5.00175e-05 2.29632e-09 1.0026e-10)
(5.00176e-05 2.46764e-09 -1.07739e-10)
(5.00176e-05 2.46764e-09 1.07739e-10)
(5.00178e-05 2.62777e-09 -1.14731e-10)
(5.00178e-05 2.62777e-09 1.14731e-10)
(5.00178e-05 2.78987e-09 -1.21808e-10)
(5.00178e-05 2.78987e-09 1.21808e-10)
(5.00178e-05 2.94077e-09 -1.28397e-10)
(5.00178e-05 2.94077e-09 1.28397e-10)
(5.00151e-05 6.64291e-18 -1.72272e-16)
(5.00159e-05 3.58393e-10 -1.56478e-11)
(5.00159e-05 3.58393e-10 1.56476e-11)
(5.00159e-05 1.78432e-10 7.79035e-12)
(5.00159e-05 1.78432e-10 -7.79051e-12)
(5.00161e-05 5.35247e-10 -2.33694e-11)
(5.00161e-05 5.35247e-10 2.33693e-11)
(5.00162e-05 7.18209e-10 -3.13577e-11)
(5.00162e-05 7.18209e-10 3.13576e-11)
(5.00164e-05 8.94266e-10 -3.90445e-11)
(5.00164e-05 8.94266e-10 3.90444e-11)
(5.00167e-05 1.07907e-09 -4.71133e-11)
(5.00167e-05 1.07907e-09 4.71133e-11)
(5.00169e-05 1.25611e-09 -5.48428e-11)
(5.00169e-05 1.25611e-09 5.48427e-11)
(5.00172e-05 1.44008e-09 -6.28753e-11)
(5.00172e-05 1.44008e-09 6.28753e-11)
(5.00174e-05 1.61922e-09 -7.06966e-11)
(5.00174e-05 1.61922e-09 7.06967e-11)
(5.00177e-05 1.79988e-09 -7.85846e-11)
(5.00177e-05 1.79988e-09 7.85846e-11)
(5.00179e-05 1.98058e-09 -8.64738e-11)
(5.00179e-05 1.98058e-09 8.64739e-11)
(5.00181e-05 2.15683e-09 -9.41693e-11)
(5.00181e-05 2.15683e-09 9.41693e-11)
(5.00183e-05 2.33727e-09 -1.02047e-10)
(5.00183e-05 2.33727e-09 1.02047e-10)
(5.00184e-05 2.50927e-09 -1.09557e-10)
(5.00184e-05 2.50927e-09 1.09557e-10)
(5.00184e-05 2.68722e-09 -1.17326e-10)
(5.00184e-05 2.68722e-09 1.17326e-10)
(5.00184e-05 2.85489e-09 -1.24647e-10)
(5.00184e-05 2.85489e-09 1.24647e-10)
(5.00158e-05 6.64301e-18 -1.72275e-16)
(5.00166e-05 3.13771e-10 -1.36995e-11)
(5.00166e-05 3.13771e-10 1.36994e-11)
(5.00166e-05 1.55896e-10 6.80641e-12)
(5.00166e-05 1.55896e-10 -6.80657e-12)
(5.00168e-05 4.68948e-10 -2.04747e-11)
(5.00168e-05 4.68948e-10 2.04746e-11)
(5.00169e-05 6.32157e-10 -2.76006e-11)
(5.00169e-05 6.32157e-10 2.76004e-11)
(5.00171e-05 7.89181e-10 -3.44564e-11)
(5.00171e-05 7.89181e-10 3.44563e-11)
(5.00173e-05 9.58105e-10 -4.18318e-11)
(5.00173e-05 9.58105e-10 4.18317e-11)
(5.00176e-05 1.12093e-09 -4.8941e-11)
(5.00176e-05 1.12093e-09 4.89409e-11)
(5.00179e-05 1.29448e-09 -5.65182e-11)
(5.00179e-05 1.29448e-09 5.65182e-11)
(5.00181e-05 1.46634e-09 -6.40217e-11)
(5.00181e-05 1.46634e-09 6.40217e-11)
(5.00184e-05 1.6436e-09 -7.17611e-11)
(5.00184e-05 1.6436e-09 7.17611e-11)
(5.00186e-05 1.8254e-09 -7.96987e-11)
(5.00186e-05 1.8254e-09 7.96987e-11)
(5.00188e-05 2.0063e-09 -8.7597e-11)
(5.00188e-05 2.0063e-09 8.7597e-11)
(5.0019e-05 2.19637e-09 -9.58956e-11)
(5.0019e-05 2.19637e-09 9.58957e-11)
(5.00191e-05 2.38065e-09 -1.03941e-10)
(5.00191e-05 2.38065e-09 1.03942e-10)
(5.00191e-05 2.57479e-09 -1.12418e-10)
(5.00191e-05 2.57479e-09 1.12418e-10)
(5.00191e-05 2.75941e-09 -1.20479e-10)
(5.00191e-05 2.75941e-09 1.20479e-10)
(5.00165e-05 6.6431e-18 -1.72277e-16)
(5.00172e-05 2.6648e-10 -1.16348e-11)
(5.00172e-05 2.6648e-10 1.16346e-11)
(5.00172e-05 1.32001e-10 5.76313e-12)
(5.00172e-05 1.32001e-10 -5.76329e-12)
(5.00174e-05 3.98695e-10 -1.74074e-11)
(5.00174e-05 3.98695e-10 1.74072e-11)
(5.00175e-05 5.41091e-10 -2.36245e-11)
(5.00175e-05 5.41091e-10 2.36244e-11)
(5.00177e-05 6.78048e-10 -2.96042e-11)
(5.00177e-05 6.78048e-10 2.96041e-11)
(5.0018e-05 8.30365e-10 -3.62545e-11)
(5.0018e-05 8.30365e-10 3.62544e-11)
(5.00182e-05 9.78354e-10 -4.27159e-11)
(5.00182e-05 9.78354e-10 4.27158e-11)
(5.00185e-05 1.14112e-09 -4.98225e-11)
(5.00185e-05 1.14112e-09 4.98224e-11)
(5.00188e-05 1.30553e-09 -5.70008e-11)
(5.00188e-05 1.30553e-09 5.70008e-11)
(5.0019e-05 1.4794e-09 -6.4592e-11)
(5.0019e-05 1.4794e-09 6.4592e-11)
(5.00193e-05 1.66256e-09 -7.25888e-11)
(5.00193e-05 1.66256e-09 7.25888e-11)
(5.00195e-05 1.84841e-09 -8.07031e-11)
(5.00195e-05 1.84841e-09 8.07032e-11)
(5.00197e-05 2.04863e-09 -8.94453e-11)
(5.00197e-05 2.04863e-09 8.94454e-11)
(5.00198e-05 2.24568e-09 -9.80485e-11)
(5.00198e-05 2.24568e-09 9.80485e-11)
(5.00198e-05 2.45662e-09 -1.07258e-10)
(5.00198e-05 2.45662e-09 1.07258e-10)
(5.00198e-05 2.65872e-09 -1.16082e-10)
(5.00198e-05 2.65872e-09 1.16082e-10)
(5.00171e-05 6.64318e-18 -1.72279e-16)
(5.00178e-05 2.17889e-10 -9.51325e-12)
(5.00178e-05 2.17889e-10 9.51309e-12)
(5.00177e-05 1.07441e-10 4.69083e-12)
(5.00177e-05 1.07441e-10 -4.691e-12)
(5.00179e-05 3.26463e-10 -1.42537e-11)
(5.00179e-05 3.26463e-10 1.42535e-11)
(5.00181e-05 4.47535e-10 -1.95398e-11)
(5.00181e-05 4.47535e-10 1.95397e-11)
(5.00183e-05 5.63826e-10 -2.46172e-11)
(5.00183e-05 5.63826e-10 2.4617e-11)
(5.00185e-05 6.99151e-10 -3.05256e-11)
(5.00185e-05 6.99151e-10 3.05255e-11)
(5.00188e-05 8.31895e-10 -3.63213e-11)
(5.00188e-05 8.31895e-10 3.63212e-11)
(5.00191e-05 9.83655e-10 -4.29473e-11)
(5.00191e-05 9.83655e-10 4.29472e-11)
(5.00194e-05 1.14049e-09 -4.9795e-11)
(5.00194e-05 1.14049e-09 4.97949e-11)
(5.00197e-05 1.31095e-09 -5.72371e-11)
(5.00197e-05 1.31095e-09 5.72371e-11)
(5.002e-05 1.49567e-09 -6.53024e-11)
(5.002e-05 1.49567e-09 6.53024e-11)
(5.00202e-05 1.68673e-09 -7.36442e-11)
(5.00202e-05 1.68673e-09 7.36442e-11)
(5.00204e-05 1.89768e-09 -8.28546e-11)
(5.00204e-05 1.89768e-09 8.28546e-11)
(5.00205e-05 2.10809e-09 -9.20411e-11)
(5.00205e-05 2.10809e-09 9.20411e-11)
(5.00205e-05 2.3367e-09 -1.02022e-10)
(5.00205e-05 2.3367e-09 1.02022e-10)
(5.00205e-05 2.55719e-09 -1.11649e-10)
(5.00205e-05 2.55719e-09 1.11649e-10)
(5.00177e-05 6.64325e-18 -1.72281e-16)
(5.00182e-05 1.69512e-10 -7.40105e-12)
(5.00182e-05 1.69512e-10 7.40088e-12)
(5.00182e-05 8.29855e-11 3.62306e-12)
(5.00182e-05 8.29855e-11 -3.62324e-12)
(5.00184e-05 2.54441e-10 -1.11092e-11)
(5.00184e-05 2.54441e-10 1.1109e-11)
(5.00186e-05 3.54284e-10 -1.54684e-11)
(5.00186e-05 3.54284e-10 1.54682e-11)
(5.00188e-05 4.49794e-10 -1.96384e-11)
(5.00188e-05 4.49794e-10 1.96383e-11)
(5.00191e-05 5.68131e-10 -2.48051e-11)
(5.00191e-05 5.68131e-10 2.4805e-11)
(5.00194e-05 6.85479e-10 -2.99287e-11)
(5.00194e-05 6.85479e-10 2.99286e-11)
(5.00197e-05 8.26155e-10 -3.60707e-11)
(5.00197e-05 8.26155e-10 3.60706e-11)
(5.002e-05 9.75353e-10 -4.25848e-11)
(5.002e-05 9.75353e-10 4.25848e-11)
(5.00203e-05 1.14236e-09 -4.98766e-11)
(5.00203e-05 1.14236e-09 4.98765e-11)
(5.00206e-05 1.32884e-09 -5.80183e-11)
(5.00206e-05 1.32884e-09 5.80183e-11)
(5.00209e-05 1.52533e-09 -6.65972e-11)
(5.00209e-05 1.52533e-09 6.65972e-11)
(5.00211e-05 1.74761e-09 -7.63022e-11)
(5.00211e-05 1.74761e-09 7.63022e-11)
(5.00212e-05 1.97207e-09 -8.61026e-11)
(5.00212e-05 1.97207e-09 8.61026e-11)
(5.00213e-05 2.21948e-09 -9.69047e-11)
(5.00213e-05 2.21948e-09 9.69048e-11)
(5.00213e-05 2.45967e-09 -1.07391e-10)
(5.00213e-05 2.45967e-09 1.07392e-10)
(5.00181e-05 6.64331e-18 -1.72283e-16)
(5.00186e-05 1.23173e-10 -5.37787e-12)
(5.00186e-05 1.23173e-10 5.3777e-12)
(5.00185e-05 5.9559e-11 2.60024e-12)
(5.00185e-05 5.9559e-11 -2.60041e-12)
(5.00188e-05 1.85272e-10 -8.08914e-12)
(5.00188e-05 1.85272e-10 8.08898e-12)
(5.0019e-05 2.64717e-10 -1.15578e-11)
(5.0019e-05 2.64717e-10 1.15577e-11)
(5.00192e-05 3.39935e-10 -1.48419e-11)
(5.00192e-05 3.39935e-10 1.48417e-11)
(5.00195e-05 4.41766e-10 -1.92879e-11)
(5.00195e-05 4.41766e-10 1.92878e-11)
(5.00199e-05 5.43902e-10 -2.37473e-11)
(5.00199e-05 5.43902e-10 2.37472e-11)
(5.00202e-05 6.73624e-10 -2.9411e-11)
(5.00202e-05 6.73624e-10 2.94109e-11)
(5.00206e-05 8.1521e-10 -3.55929e-11)
(5.00206e-05 8.1521e-10 3.55928e-11)
(5.0021e-05 9.78742e-10 -4.27328e-11)
(5.0021e-05 9.78742e-10 4.27327e-11)
(5.00213e-05 1.16713e-09 -5.09579e-11)
(5.00213e-05 1.16713e-09 5.09578e-11)
(5.00216e-05 1.36921e-09 -5.97811e-11)
(5.00216e-05 1.36921e-09 5.97811e-11)
(5.00219e-05 1.60345e-09 -7.00082e-11)
(5.00219e-05 1.60345e-09 7.00082e-11)
(5.0022e-05 1.84276e-09 -8.04568e-11)
(5.0022e-05 1.84276e-09 8.04568e-11)
(5.00221e-05 2.11035e-09 -9.214e-11)
(5.00221e-05 2.11035e-09 9.21401e-11)
(5.00221e-05 2.37192e-09 -1.0356e-10)
(5.00221e-05 2.37192e-09 1.0356e-10)
(5.00185e-05 6.64336e-18 -1.72284e-16)
(5.00189e-05 8.12249e-11 -3.54637e-12)
(5.00189e-05 8.12249e-11 3.54619e-12)
(5.00188e-05 3.83528e-11 1.67435e-12)
(5.00188e-05 3.83528e-11 -1.67453e-12)
(5.00191e-05 1.22365e-10 -5.3426e-12)
(5.00191e-05 1.22365e-10 5.34243e-12)
(5.00193e-05 1.83211e-10 -7.99919e-12)
(5.00193e-05 1.83211e-10 7.99903e-12)
(5.00196e-05 2.39421e-10 -1.04533e-11)
(5.00196e-05 2.39421e-10 1.04532e-11)
(5.002e-05 3.25879e-10 -1.42282e-11)
(5.002e-05 3.25879e-10 1.4228e-11)
(5.00203e-05 4.13446e-10 -1.80515e-11)
(5.00203e-05 4.13446e-10 1.80513e-11)
(5.00207e-05 5.32648e-10 -2.32559e-11)
(5.00207e-05 5.32648e-10 2.32558e-11)
(5.00211e-05 6.66803e-10 -2.91132e-11)
(5.00211e-05 6.66803e-10 2.91131e-11)
(5.00216e-05 8.26858e-10 -3.61014e-11)
(5.00216e-05 8.26858e-10 3.61013e-11)
(5.0022e-05 1.01728e-09 -4.44152e-11)
(5.0022e-05 1.01728e-09 4.44151e-11)
(5.00223e-05 1.22505e-09 -5.34867e-11)
(5.00223e-05 1.22505e-09 5.34866e-11)
(5.00226e-05 1.47185e-09 -6.42624e-11)
(5.00226e-05 1.47185e-09 6.42624e-11)
(5.00229e-05 1.72683e-09 -7.5395e-11)
(5.00229e-05 1.72683e-09 7.5395e-11)
(5.0023e-05 2.01618e-09 -8.80285e-11)
(5.0023e-05 2.01618e-09 8.80285e-11)
(5.0023e-05 2.30117e-09 -1.00471e-10)
(5.0023e-05 2.30117e-09 1.00471e-10)
(5.00188e-05 6.6434e-18 -1.72285e-16)
(5.00191e-05 4.67584e-11 -2.04153e-12)
(5.00191e-05 4.67584e-11 2.04135e-12)
(5.00191e-05 2.09323e-11 9.13753e-13)
(5.00191e-05 2.09323e-11 -9.13933e-13)
(5.00194e-05 7.02193e-11 -3.06585e-12)
(5.00194e-05 7.02193e-11 3.06568e-12)
(5.00196e-05 1.15541e-10 -5.04463e-12)
(5.00196e-05 1.15541e-10 5.04446e-12)
(5.00199e-05 1.55102e-10 -6.7719e-12)
(5.00199e-05 1.55102e-10 6.77173e-12)
(5.00203e-05 2.28197e-10 -9.96331e-12)
(5.00203e-05 2.28197e-10 9.96316e-12)
(5.00207e-05 3.02486e-10 -1.32068e-11)
(5.00207e-05 3.02486e-10 1.32067e-11)
(5.00212e-05 4.12035e-10 -1.79899e-11)
(5.00212e-05 4.12035e-10 1.79897e-11)
(5.00217e-05 5.39165e-10 -2.35405e-11)