/*--------------------------------*- C++ -*----------------------------------*\
| =========                 |                                                 |
| \\      /  F ield         | OpenFOAM: The Open Source CFD Toolbox           |
|  \\    /   O peration     | Version:  4.1                                   |
|   \\  /    A nd           | Web:      www.OpenFOAM.org                      |
|    \\/     M anipulation  |                                                 |
\*---------------------------------------------------------------------------*/
FoamFile
{
    version     2.0;
    format      ascii;
    class       volScalarField;
    location    "0.000120";
    object      nut;
}
// * * * * * * * * * * * * * * * * * * * * * * * * * * * * * * * * * * * * * //

dimensions      [0 2 -1 0 0 0 0];

internalField   nonuniform List<scalar> 
3072
(
0.00056655934
0.00038848635
0.00034199474
0.00032321501
0.00031134551
0.00030526785
0.00030202775
0.00030058607
0.00030304142
0.00030334692
0.00030681838
0.00031385394
0.00032423177
0.00033984108
0.00035765661
0.00038112036
0.00040803827
0.00043912942
0.00047502917
0.00051239149
0.00055441169
0.00059181708
0.00060666349
0.00061219664
0.00071115012
0.00055412855
0.00049625058
0.00047040644
0.00045374401
0.00044451649
0.00043913343
0.000435776
0.00043736083
0.00043533961
0.00043765312
0.00044403982
0.00045448337
0.00047076874
0.00048904064
0.00051281156
0.00053906281
0.00056805336
0.0006000951
0.00063147965
0.00066459504
0.00069313258
0.00070468532
0.00070695076
0.00076617032
0.00065397761
0.00060356488
0.00057895615
0.00056286668
0.000552905
0.00054678417
0.00054179179
0.00054128173
0.00053698949
0.00053714926
0.00054145137
0.00054928711
0.00056240539
0.00057785669
0.00059717998
0.00061907615
0.00064209047
0.00066743988
0.00069192903
0.00071678341
0.00073928846
0.00075065732
0.00075088838
0.00079773501
0.00072377694
0.00068541961
0.0006646279
0.00065085545
0.00064075114
0.0006341278
0.0006273806
0.00062399828
0.00061733496
0.00061451999
0.00061572251
0.00061958384
0.00062796313
0.00063920486
0.00065282339
0.00066937617
0.00068670515
0.00070564985
0.0007252115
0.0007442204
0.00076279823
0.00077496817
0.00077361537
0.00082029254
0.00077861352
0.00075392348
0.00073820758
0.0007271832
0.00071751962
0.00070984669
0.00070188061
0.00069523762
0.0006865767
0.00067999057
0.00067699448
0.00067656703
0.00067943531
0.00068583457
0.00069379023
0.00070444461
0.00071726934
0.00073081039
0.00074593592
0.00076088182
0.00077576512
0.00078776597
0.00078724372
0.00083867721
0.00082268811
0.00080961292
0.00079990903
0.00079154123
0.00078334387
0.00077499017
0.00076625806
0.0007569078
0.00074718405
0.00073682868
0.00072890946
0.00072400238
0.00072162222
0.00072172506
0.0007246858
0.00072995712
0.00073710406
0.00074652354
0.00075713762
0.00076868774
0.00078065195
0.00079100295
0.00079308547
0.00085655406
0.0008559048
0.00085028466
0.00084514389
0.00083973323
0.00083368003
0.00082653473
0.00081813735
0.00080783392
0.00079614546
0.00078353012
0.00077114773
0.00075998838
0.00075093305
0.0007440729
0.00073979328
0.00073832359
0.00073963658
0.00074351575
0.00074968996
0.00075804029
0.00076738719
0.00077690876
0.00078135865
0.00087337383
0.00087517631
0.00086982628
0.00086537414
0.00086115447
0.00085687138
0.00085222972
0.00084581331
0.00083367959
0.00081590163
0.00079373883
0.00076922394
0.00074555968
0.00072319535
0.00070346808
0.00068757104
0.00067591179
0.00066855083
0.00066552793
0.00066669949
0.00067171741
0.00068026186
0.00069142368
0.00069981279
0.00071121845
0.00055421621
0.00049634687
0.00047051032
0.0004538356
0.0004445893
0.00043915993
0.00043577153
0.00043722188
0.00043454416
0.00043672185
0.00044302505
0.00045339002
0.00046956323
0.00048774357
0.00051148719
0.00053781228
0.00056693589
0.0005991268
0.00063073794
0.00066408768
0.00069284551
0.00070470978
0.00070703741
0.00082889203
0.0007610699
0.00071793782
0.00069413813
0.00067720063
0.00066656349
0.00065918056
0.00065326917
0.00065139925
0.00064571754
0.00064445442
0.00064666137
0.00065290559
0.00066370704
0.00067614087
0.00069227943
0.00070925155
0.00072729555
0.00074579295
0.00076286067
0.00077952666
0.00079248488
0.00079685888
0.00079734629
0.00084884025
0.00082277306
0.00080256785
0.000789882
0.00078020663
0.00077331627
0.0007680563
0.00076298951
0.00076016067
0.00075486008
0.00075228802
0.00075206709
0.00075434127
0.00075960557
0.00076594679
0.00077434771
0.00078334665
0.00079260177
0.00080213559
0.00081071194
0.00081884941
0.0008253991
0.00082810091
0.0008288146
0.00085410923
0.00084298925
0.00083408523
0.0008279362
0.00082308969
0.00081899328
0.00081559572
0.00081164443
0.00080858662
0.00080404554
0.00080088105
0.00079928942
0.00079897066
0.00080045993
0.00080305795
0.00080668082
0.0008112293
0.00081600742
0.00082121013
0.00082640106
0.00083130662
0.00083587438
0.00083878555
0.00083979871
0.00085688259
0.00085255107
0.00084912514
0.00084636195
0.00084405619
0.0008416671
0.00083930951
0.00083633358
0.00083322482
0.00082928203
0.00082559379
0.0008228388
0.00082095949
0.00082006191
0.00082028916
0.00082126799
0.0008232001
0.00082596943
0.00082918804
0.00083294969
0.00083678867
0.00084065647
0.00084396721
0.00084575735
0.00085899692
0.00085784296
0.00085653264
0.00085527605
0.00085398394
0.00085248857
0.00085064822
0.00084824138
0.00084517332
0.00084159867
0.00083770251
0.00083408846
0.00083111247
0.00082890448
0.00082754705
0.00082711452
0.00082771445
0.00082927219
0.00083166208
0.00083476593
0.0008383076
0.00084207457
0.00084557422
0.00084832352
0.00086136116
0.00086126692
0.00085982048
0.00085839656
0.00085692711
0.00085525447
0.0008531921
0.00085045024
0.00084677141
0.00084232928
0.00083729082
0.00083199927
0.00082702074
0.00082275524
0.00081944358
0.00081739177
0.00081675672
0.00081749475
0.00081954971
0.00082277974
0.00082692344
0.00083160704
0.00083629466
0.00083978295
0.00085663088
0.000855767
0.00084999524
0.00084468938
0.00083919906
0.00083305154
0.0008258859
0.00081744982
0.00080716042
0.00079549438
0.00078290054
0.00077025527
0.00075905797
0.00074997439
0.00074315681
0.00073901711
0.00073785659
0.00073953891
0.00074384699
0.00075020154
0.00075850191
0.00076805952
0.00077805605
0.00078239686
0.00076631034
0.0006541888
0.00060376105
0.00057913513
0.00056301735
0.00055302171
0.00054677763
0.00054165592
0.00054053723
0.00053521974
0.00053506728
0.00053916227
0.0005468165
0.00055973288
0.0005750461
0.00059443957
0.00061661783
0.00064006776
0.0006657743
0.0006907427
0.00071602466
0.00073891996
0.0007507631
0.00075112748
0.00084887992
0.00082283961
0.00080261432
0.00078992222
0.00078024973
0.00077335673
0.00076804358
0.0007629063
0.00075971864
0.00075392465
0.00075114482
0.00075076079
0.0007529188
0.00075811122
0.00076442666
0.00077295149
0.00078218985
0.0007917746
0.00080157162
0.00081032909
0.00081861802
0.00082531832
0.00082819232
0.00082896348
0.0008586774
0.00085513438
0.00085179534
0.00084922639
0.00084687834
0.00084492329
0.00084304518
0.00084075617
0.00083888587
0.00083588827
0.00083384778
0.0008325947
0.00083224531
0.0008330155
0.00083419027
0.00083620544
0.00083843851
0.00084080444
0.00084325892
0.00084541431
0.00084746416
0.00084915321
0.00085015017
0.00085224473
0.00085977837
0.00086022997
0.0008612054
0.00086181964
0.00086214997
0.00086222046
0.00086196625
0.00086117219
0.00086019636
0.00085857315
0.00085704937
0.00085568214
0.00085441927
0.0008534088
0.00085256135
0.00085201725
0.00085174056
0.00085168266
0.00085198492
0.00085252331
0.00085327789
0.00085429293
0.00085552975
0.00085843779
0.00085980551
0.00086060973
0.00086223841
0.00086352509
0.0008645358
0.000865218
0.00086552732
0.00086533574
0.00086468042
0.00086347368
0.00086194827
0.00086034445
0.00085870881
0.00085704271
0.00085548939
0.00085422477
0.00085332759
0.00085287041
0.00085291561
0.00085348512
0.00085447711
0.00085588398
0.00085769935
0.00086117502
0.00085975226
0.00086006797
0.00086106234
0.00086188143
0.00086248738
0.00086283346
0.0008628508
0.00086238145
0.00086135069
0.00085981522
0.00085788338
0.00085584809
0.00085391011
0.00085213426
0.00085060367
0.00084956137
0.00084911547
0.0008492331
0.00084992389
0.00085121306
0.00085296784
0.00085502906
0.00085728103
0.00086088304
0.00085893299
0.00085775886
0.000856432
0.00085512811
0.00085373213
0.00085207023
0.00085007165
0.00084758094
0.00084449015
0.00084084878
0.00083688219
0.00083325468
0.00083029158
0.000828107
0.00082680548
0.00082651422
0.00082730276
0.00082904734
0.00083153314
0.00083475611
0.00083848735
0.0008423404
0.00084588537
0.00084858284
0.00083870388
0.00082247562
0.00080914742
0.00079921775
0.00079067663
0.00078231413
0.0007738862
0.00076510178
0.0007557235
0.00074538253
0.00073511478
0.00072729163
0.00072236727
0.00071982613
0.00071990464
0.0007230344
0.00072868494
0.00073617049
0.00074593423
0.0007569609
0.00076894162
0.00078147356
0.00079201057
0.00079376297
0.00079787124
0.00072397484
0.00068554882
0.00066471798
0.00065091126
0.00064075406
0.0006339196
0.00062689629
0.00062244642
0.00061461418
0.00061135154
0.00061221717
0.00061587287
0.00062407814
0.00063526229
0.000649155
0.00066626679
0.00068426832
0.00070381476
0.00072391407
0.0007434427
0.00076252167
0.00077516553
0.00077402341
0.00085412909
0.00084298918
0.00083400992
0.00082782114
0.00082294862
0.00081881395
0.00081529949
0.00081118459
0.00080764972
0.00080246563
0.00079900283
0.00079712226
0.00079661983
0.000798057
0.00080073511
0.00080466167
0.00080970655
0.0008149771
0.00082054542
0.00082597111
0.00083106647
0.00083585158
0.00083897239
0.00084009564
0.00085975219
0.00086014584
0.000861049
0.00086160561
0.00086187568
0.00086189864
0.00086157996
0.00086066724
0.00085955532
0.00085784597
0.00085629551
0.00085481163
0.00085344552
0.00085243335
0.00085168144
0.00085132367
0.00085128767
0.00085145771
0.00085187718
0.00085245382
0.00085323516
0.00085430459
0.00085561447
0.00085855249
0.0008603185
0.00086222628
0.00086498422
0.00086715097
0.00086887298
0.0008701713
0.00087098507
0.00087126873
0.00087111934
0.00087049888
0.00086955635
0.00086824714
0.0008665927
0.00086473948
0.00086282455
0.00086103828
0.00085942003
0.00085809426
0.00085722559
0.00085684809
0.00085698886
0.00085775412
0.00085926536
0.00086310058
0.00086021789
0.00086195001
0.00086470295
0.00086701306
0.00086891141
0.00087035027
0.00087134114
0.00087192736
0.00087202285
0.00087150559
0.00087049543
0.00086910786
0.00086734754
0.000865299
0.00086316905
0.00086118147
0.00085942818
0.00085803385
0.00085717285
0.00085696026
0.00085735202
0.00085836928
0.00086010983
0.00086418924
0.00085981853
0.00086063003
0.00086229356
0.00086363042
0.00086461092
0.00086516011
0.00086535816
0.00086520262
0.00086465806
0.00086347819
0.00086192719
0.00086023613
0.0008584897
0.00085673607
0.0008551348
0.00085388281
0.00085307023
0.00085270513
0.00085280974
0.00085347954
0.00085461739
0.00085606804
0.00085782829
0.00086127568
0.00085671797
0.00085211422
0.00084850422
0.0008456039
0.00084311501
0.00084048282
0.00083793028
0.00083498061
0.00083203436
0.00082805742
0.00082443246
0.00082167694
0.00081980837
0.00081888191
0.00081909664
0.00082019581
0.0008223607
0.00082537753
0.0008287919
0.00083282872
0.00083704808
0.00084108167
0.00084436822
0.00084605088
0.00082029528
0.0007782867
0.00075325049
0.00073723241
0.00072599009
0.00071614946
0.00070829417
0.00070033948
0.0006939017
0.00068494008
0.00067835469
0.00067533111
0.00067490216
0.00067753064
0.00068367621
0.00069173019
0.00070267294
0.00071578176
0.00072974295
0.0007453921
0.00076112948
0.00077652888
0.00078857102
0.00078775903
0.00082034746
0.00077860755
0.00075375734
0.0007379171
0.00072678205
0.00071697229
0.00070904882
0.00070062569
0.00069303319
0.00068281781
0.00067587596
0.00067270054
0.00067204916
0.00067485902
0.00068141701
0.00068983395
0.00070127053
0.00071484044
0.00072904198
0.00074465601
0.00076013849
0.00077550364
0.00078787959
0.00078770748
0.00085680689
0.00085230757
0.00084867201
0.00084573706
0.00084327521
0.00084069211
0.00083809217
0.00083488969
0.00083146447
0.00082694995
0.00082310384
0.00082022281
0.00081817193
0.00081732612
0.00081781561
0.00081924271
0.00082177256
0.00082508719
0.00082865386
0.00083258934
0.00083660677
0.00084063704
0.00084413283
0.00084607638
0.00085970051
0.00086030479
0.00086169383
0.00086275483
0.00086355033
0.0008640179
0.00086409877
0.00086370318
0.00086295321
0.00086176514
0.00086036426
0.00085875685
0.00085704325
0.0008554654
0.00085417393
0.00085327391
0.00085277576
0.00085265295
0.00085286376
0.00085344644
0.0008544372
0.00085586725
0.00085775742
0.00086128733
0.00086015226
0.00086175953
0.00086435787
0.00086651347
0.00086827542
0.00086961671
0.00087048646
0.00087088117
0.0008708757
0.00087049021
0.00086965974
0.00086827784
0.00086647821
0.00086447993
0.00086249506
0.00086071834
0.00085918248
0.00085795299
0.00085716383
0.00085691744
0.00085725176
0.00085825099
0.00086001938
0.00086409419
0.00086034862
0.00086228315
0.00086509598
0.00086734151
0.00086906545
0.00087024968
0.00087096851
0.00087134644
0.0008714038
0.00087093244
0.00086999635
0.000868589
0.00086677757
0.00086475085
0.00086271101
0.00086086859
0.00085926191
0.00085794099
0.00085706202
0.00085673482
0.00085695672
0.00085772771
0.00085916902
0.00086298046
0.00085976344
0.00086008008
0.000860975
0.00086157675
0.0008618183
0.00086167146
0.00086126889
0.00086064686
0.00086001198
0.00085865619
0.0008572022
0.00085576026
0.00085433527
0.00085311142
0.00085207947
0.00085146011
0.00085122784
0.00085124152
0.00085161446
0.0008523275
0.00085331337
0.00085443284
0.00085562923
0.00085850247
0.00085367661
0.00084163347
0.00083212741
0.00082562115
0.00082052078
0.00081616908
0.00081262382
0.00080896977
0.00080637193
0.00080227254
0.00079940984
0.00079800662
0.00079775589
0.00079916492
0.00080165152
0.00080528622
0.0008100164
0.00081500051
0.00082048132
0.00082609918
0.00083143866
0.00083625716
0.00083916681
0.0008401032
0.00079756996
0.00072288663
0.00068396561
0.00066282019
0.00064887928
0.0006385987
0.00063174228
0.00062522954
0.00062228564
0.00061582398
0.00061312856
0.00061444915
0.00061823129
0.00062626745
0.00063715872
0.00065062634
0.00066732083
0.00068491789
0.00070427591
0.00072459189
0.00074435477
0.00076348041
0.00077562794
0.00077407383
0.00083864347
0.00082249584
0.00080919455
0.00079928265
0.00079069614
0.00078224741
0.00077362342
0.0007645445
0.00075446199
0.00074302632
0.00073256014
0.00072465157
0.00071979016
0.0007172053
0.00071773888
0.00072128801
0.00072726229
0.00073515035
0.00074505856
0.0007560775
0.00076800805
0.00078043833
0.00079113375
0.00079354962
0.00085884222
0.00085740709
0.00085577912
0.00085423461
0.00085267992
0.00085089071
0.00084875034
0.00084618929
0.00084302881
0.00083921289
0.0008353077
0.00083173331
0.00082883518
0.00082678681
0.00082571331
0.00082570157
0.00082674754
0.00082871098
0.00083138367
0.00083458431
0.00083818462
0.00084201268
0.00084565937
0.00084857252
0.00085960484
0.00085964437
0.00086030371
0.00086080219
0.00086112157
0.00086117178
0.00086089643
0.0008602789
0.00085925604
0.00085782933
0.00085610928
0.00085423214
0.00085238874
0.00085077117
0.00084954467
0.00084886718
0.00084874839
0.0008491075
0.0008499008
0.00085113301
0.00085278043
0.00085479668
0.00085711261
0.00086079438
0.00085971614
0.00086034777
0.00086178423
0.0008629046
0.00086371252
0.00086413537
0.00086417331
0.0008638194
0.00086317636
0.00086212034
0.00086078262
0.00085917352
0.00085744502
0.00085579348
0.00085442192
0.00085346495
0.00085287494
0.00085262796
0.0008527622
0.00085334839
0.00085433793
0.00085571226
0.00085749938
0.00086096359
0.00085971409
0.00085996671
0.00086079122
0.00086133217
0.00086153485
0.00086139868
0.0008609725
0.000860231
0.00085949767
0.00085819013
0.00085681656
0.00085536097
0.0008539072
0.00085272003
0.00085181797
0.00085133035
0.00085117401
0.00085121146
0.00085157143
0.0008522346
0.0008531165
0.00085416855
0.00085536997
0.00085823391
0.00085842234
0.00085414059
0.00085025208
0.00084737141
0.00084480169
0.00084263002
0.00084067117
0.00083874049
0.00083748589
0.00083525614
0.00083360126
0.0008325709
0.0008322485
0.00083286827
0.00083389242
0.00083575559
0.00083788951
0.00084019522
0.00084270888
0.00084504148
0.00084734029
0.00084913795
0.00085010242
0.00085214272
0.00084767618
0.00081920932
0.00079765592
0.00078431308
0.00077440626
0.00076742834
0.00076221394
0.0007577906
0.00075577521
0.00075177377
0.00074993391
0.00075034835
0.00075295297
0.00075829758
0.00076456273
0.00077292094
0.0007819689
0.00079137624
0.00080124304
0.00081025954
0.00081885063
0.00082565395
0.00082839559
0.00082903918
0.00076543275
0.00065176214
0.00060061156
0.00057570129
0.00055961096
0.00054963927
0.00054337213
0.00053875403
0.00053881052
0.00053529635
0.00053574943
0.00054037022
0.00054819194
0.00056102551
0.00057611308
0.00059515762
0.00061703373
0.00064019708
0.00066589041
0.00069121191
0.00071680159
0.00073975858
0.00075117198
0.00075125711
0.00085650118
0.00085571106
0.00084992887
0.00084463412
0.00083904579
0.00083273853
0.00082536566
0.00081679426
0.00080617908
0.00079372592
0.00078070343
0.00076768289
0.00075646592
0.00074734659
0.00074096274
0.0007375357
0.00073672459
0.00073850496
0.00074245901
0.00074889366
0.00075752726
0.00076718332
0.00077700361
0.00078174262
0.0008612465
0.00086095451
0.00085927193
0.00085761483
0.00085593557
0.00085403088
0.00085174789
0.00084893293
0.0008452273
0.00084069939
0.00083566334
0.00083030153
0.00082542835
0.00082132157
0.00081830543
0.00081655323
0.00081617012
0.00081714557
0.00081932623
0.00082254947
0.00082664629
0.00083129754
0.00083602302
0.00083964174
0.0008588293
0.00085747224
0.00085588625
0.00085433305
0.00085272468
0.00085084359
0.00084863338
0.00084604308
0.00084292881
0.00083930287
0.00083544689
0.00083194267
0.00082914245
0.00082717957
0.00082615364
0.00082611867
0.00082708088
0.00082890936
0.00083140677
0.00083451904
0.00083807871
0.00084182726
0.00084536866
0.00084818554
0.0008566256
0.00085188618
0.0008480865
0.00084502011
0.00084240367
0.00083965884
0.00083697469
0.00083388347
0.00083084287
0.0008268433
0.00082328319
0.000820613
0.00081882219
0.00081807331
0.00081858861
0.0008200241
0.00082233047
0.00082534751
0.00082871267
0.00083260396
0.00083663631
0.0008405087
0.00084377242
0.00084552973
0.00085361117
0.000841503
0.00083192158
0.00082536383
0.00082022601
0.00081588501
0.00081228667
0.00080853243
0.00080583767
0.00080167917
0.00079879088
0.00079736806
0.00079709331
0.00079859954
0.00080136314
0.00080522336
0.00081003349
0.00081497775
0.00082037881
0.0008258883
0.00083103377
0.00083571425
0.00083861777
0.00083957142
0.00084763945
0.00081913505
0.00079755605
0.00078421071
0.00077430044
0.0007673489
0.00076211302
0.00075765582
0.00075558936
0.00075154819
0.0007496973
0.00075004809
0.000752605
0.00075797163
0.00076441823
0.00077290504
0.0007819761
0.00079133881
0.00080112386
0.00081008176
0.00081855798
0.00082528558
0.00082804616
0.00082869924
0.0008258484
0.00075331854
0.00070855316
0.00068430771
0.00066760114
0.00065731619
0.00065025348
0.00064528429
0.00064454347
0.00064114693
0.00064104051
0.00064423339
0.00065107293
0.00066216715
0.000674824
0.00069104
0.00070805297
0.00072617268
0.00074502896
0.00076249821
0.00077961812
0.00079275368
0.00079710197
0.00079746404
0.0007091952
0.00055024301
0.00049198247
0.00046617629
0.00044982209
0.00044081601
0.00043538755
0.0004323993
0.00043455163
0.00043361153
0.00043629732
0.00044302014
0.00045351729
0.00046961905
0.00048765775
0.00051116124
0.00053734779
0.00056639355
0.00059883256
0.00063082424
0.00066463026
0.00069355343
0.00070508101
0.00070718546
0.00087335879
0.00087516215
0.00086976384
0.00086523855
0.00086090979
0.00085646308
0.00085166675
0.00084526151
0.00083287472
0.00081464985
0.00079202946
0.00076699067
0.00074292356
0.00072031879
0.00070116171
0.0006858777
0.0006746918
0.00066772325
0.00066489752
0.00066608528
0.00067109734
0.00067962305
0.00069075456
0.00069927672
0.00085657649
0.00085566707
0.00084981053
0.00084439171
0.00083877797
0.00083248146
0.00082510342
0.00081652414
0.00080604468
0.00079403965
0.00078138216
0.0007684722
0.00075752955
0.00074875123
0.00074243512
0.00073870462
0.00073767285
0.00073938914
0.00074352957
0.00074967114
0.00075771953
0.00076704547
0.00077691928
0.0007814805
0.0008386095
0.00082229563
0.00080883364
0.0007987794
0.00079010587
0.00078156921
0.00077291321
0.00076392451
0.00075432657
0.0007437699
0.00073350413
0.00072570633
0.00072110476
0.00071900591
0.00071960588
0.00072310107
0.00072887088
0.00073627391
0.00074592202
0.00075674393
0.00076840519
0.00078074699
0.00079112468
0.00079313336
0.0008201666
0.00077805094
0.00075289362
0.00073679976
0.00072545933
0.000715498
0.00070749233
0.00069933203
0.00069274103
0.0006837015
0.00067709064
0.0006741157
0.00067384389
0.00067683804
0.00068346498
0.00069193633
0.00070293154
0.00071593215
0.00072978048
0.00074520458
0.00076067177
0.00077580379
0.00078772059
0.00078711926
0.00079742768
0.00072265401
0.00068368538
0.00066253853
0.000648549
0.0006382945
0.00063133868
0.0006247553
0.00062173404
0.00061519584
0.00061242235
0.00061372372
0.00061749433
0.00062573264
0.00063705606
0.00065080298
0.0006675197
0.00068498838
0.00070421861
0.00072435203
0.00074384839
0.00076277276
0.00077493117
0.00077348527
0.00076528413
0.0006515296
0.00060037753
0.0005754992
0.00055941759
0.00054950951
0.00054321227
0.00053857658
0.00053856101
0.00053501213
0.00053547561
0.00054000091
0.00054776075
0.00056066955
0.00057602856
0.00059527538
0.00061712932
0.00064021701
0.0006657823
0.000690955
0.0007163539
0.00073918127
0.00075070153
0.00075088175
0.00070908343
0.00055009567
0.00049185343
0.00046607529
0.00044974001
0.00044077043
0.0004353432
0.00043235435
0.00043446792
0.00043351738
0.0004362239
0.0004428915
0.00045335251
0.00046949053
0.00048761834
0.00051121072
0.00053739084
0.00056640612
0.00059878355
0.00063068993
0.00066441385
0.00069327203
0.00070490601
0.00070706955
0.00056735947
0.00038891177
0.00034215954
0.00032330117
0.00031145426
0.00030535854
0.00030187189
0.00030046037
0.00030323112
0.00030419287
0.0003077102
0.00031472021
0.00032490222
0.0003402114
0.00035767172
0.00038076765
0.00040741181
0.00043833485
0.00047436199
0.00051204099
0.0005546212
0.00059220064
0.00060684363
0.00061222876
0.00031430338
0.00031211227
0.00030520897
0.00028549324
0.00026447346
0.000247732
0.00023297008
0.00022074308
0.00021099865
0.00020240751
0.00019627231
0.00019105978
0.00018772071
0.00018576852
0.00018490333
0.00018533732
0.00018437521
0.0001849474
0.00018601425
0.00018792031
0.00019155185
0.00019638164
0.0002078953
0.00027478942
0.0003778395
0.00037747637
0.00036785614
0.00034497441
0.00032135715
0.00030216651
0.00028463011
0.00027015349
0.00025822078
0.00024785089
0.00024040769
0.00023395554
0.00022998185
0.00022769961
0.00022694325
0.00022795199
0.00022717666
0.00022840843
0.0002302004
0.00023324117
0.00023857521
0.00024600643
0.00026327973
0.00035397602
0.00043063241
0.00043333237
0.00041941389
0.00039472389
0.00037094258
0.00035113144
0.00033240684
0.00031734133
0.00030426853
0.00029337919
0.00028537163
0.00027843749
0.00027450298
0.00027232844
0.00027215627
0.00027432322
0.00027421651
0.00027645942
0.0002790989
0.00028354934
0.00029052343
0.00030064481
0.00032302565
0.00042456372
0.00047351324
0.00047967558
0.00046070609
0.00043523527
0.00041263095
0.00039243038
0.00037475456
0.000360411
0.00034725647
0.00033723592
0.00032934423
0.00032343378
0.00032068875
0.00031947791
0.00032093984
0.00032509646
0.00032675638
0.00033090557
0.00033489415
0.00034148111
0.00035019809
0.00036333735
0.00038977509
0.00049081445
0.00050418293
0.00050904537
0.0004876348
0.00046473112
0.0004440491
0.0004254584
0.00041050188
0.00039684698
0.00038634719
0.00037854016
0.00037247516
0.00036953891
0.00036928943
0.00037124293
0.00037652867
0.0003839237
0.00038952268
0.00039672442
0.00040408793
0.0004139851
0.00042523919
0.00044188417
0.00046973965
0.00055413957
0.00051637256
0.00051480204
0.00049538157
0.00047581484
0.00045908123
0.00044433996
0.00043305041
0.00042401707
0.00041773546
0.00041462108
0.00041412916
0.00041629551
0.0004220222
0.00043152931
0.00044465964
0.0004576465
0.0004714372
0.00048525536
0.00049986703
0.00051498102
0.00053115832
0.00055008794
0.0005770906
0.00061721577
0.00049060544
0.00048054635
0.00046316191
0.00044816116
0.00043667005
0.00042852079
0.00042380746
0.00042262127
0.00042493406
0.00043099688
0.00044094537
0.00045517682
0.00047414052
0.00049737086
0.00052385742
0.00055229804
0.0005811373
0.00060828618
0.00063323454
0.00065520154
0.00067506941
0.00069197354
0.0007077365
0.00066906253
0.00039055092
0.00038298446
0.00037445121
0.00036836887
0.00036510192
0.00036471567
0.00036754242
0.00037389617
0.00038418095
0.00039895149
0.00041888088
0.00044383536
0.00047423552
0.00051150974
0.00055213148
0.00059010506
0.00061059984
0.00061516567
0.00061899445
0.00062260681
0.00062623301
0.00062980979
0.00063400241
0.00060495056
8.1960474e-05
8.2668803e-05
8.3498507e-05
8.4358153e-05
8.5226185e-05
8.6083046e-05
8.6911344e-05
8.7697283e-05
8.8418792e-05
8.906295e-05
8.9613515e-05
9.006399e-05
9.0405838e-05
9.0631952e-05
9.0743503e-05
9.0738829e-05
9.0656423e-05
9.0477009e-05
9.0204729e-05
8.9850001e-05
8.9452592e-05
8.910894e-05
8.9061764e-05
9.1069882e-05
9.1504329e-05
9.2202122e-05
9.3003412e-05
9.382352e-05
9.4641485e-05
9.5440637e-05
9.620212e-05
9.6912105e-05
9.7550572e-05
9.810605e-05
9.8558805e-05
9.8907341e-05
9.9150291e-05
9.9287111e-05
9.9321238e-05
9.9256744e-05
9.9123555e-05
9.8912537e-05
9.8627137e-05
9.8272582e-05
9.7878183e-05
9.7513938e-05
9.7357556e-05
9.8629315e-05
9.9315604e-05
9.9878264e-05
0.00010050413
0.00010111962
0.0001017031
0.00010224734
0.00010274204
0.0001031734
0.00010352755
0.0001037982
0.00010397836
0.00010407656
0.00010408907
0.00010402744
0.0001039008
0.00010372076
0.00010351297
0.00010327455
0.00010300707
0.00010270768
0.00010238662
0.00010206619
0.00010181551
0.00010212318
0.00010452555
0.0001048236
0.00010513435
0.00010539851
0.00010560011
0.00010574574
0.00010581947
0.00010582401
0.00010576719
0.00010565287
0.00010548366
0.00010527054
0.00010501524
0.00010473183
0.00010442643
0.0001041197
0.00010383555
0.00010357516
0.0001033393
0.00010311634
0.0001028936
0.00010263879
0.00010229802
0.00010156365
0.00010642455
0.00010636927
0.00010628156
0.00010611914
0.00010586235
0.00010554532
0.00010516754
0.00010473887
0.0001042713
0.00010377627
0.00010326872
0.00010276267
0.00010227065
0.00010180223
0.00010136006
0.00010096216
0.0001006232
0.00010035124
0.00010014486
9.9988178e-05
9.9846562e-05
9.9641345e-05
9.9208092e-05
9.7494425e-05
0.00010452946
0.00010411635
0.00010363328
0.00010306501
0.00010241885
0.00010171988
0.0001009765
0.00010020542
9.9424174e-05
9.8647483e-05
9.7893486e-05
9.7178406e-05
9.6518687e-05
9.5923323e-05
9.5399881e-05
9.495793e-05
9.4601542e-05
9.4334577e-05
9.4152102e-05
9.4038083e-05
9.3946433e-05
9.3766818e-05
9.3250647e-05
9.0733734e-05
9.8692501e-05
9.801937e-05
9.7276758e-05
9.6455605e-05
9.5570799e-05
9.4643579e-05
9.3695665e-05
9.2743072e-05
9.1805065e-05
9.0896567e-05
9.0033767e-05
8.9230484e-05
8.8502672e-05
8.7859608e-05
8.7311276e-05
8.6859939e-05
8.6514306e-05
8.6269744e-05
8.6119529e-05
8.6046287e-05
8.5998901e-05
8.5846549e-05
8.5284811e-05
8.2207641e-05
8.9504515e-05
8.8753083e-05
8.7935241e-05
8.7048495e-05
8.61097e-05
8.5138169e-05
8.4153489e-05
8.3174413e-05
8.2220122e-05
8.1305171e-05
8.0443402e-05
7.9647108e-05
7.89302e-05
7.8303774e-05
7.7779301e-05
7.7362607e-05
7.7061896e-05
7.6869583e-05
7.6768643e-05
7.6735584e-05
7.6718497e-05
7.6585168e-05
7.6008334e-05
7.2625617e-05
0.00039062756
0.00038302862
0.00037437214
0.0003681257
0.00036469007
0.00036418343
0.0003669204
0.00037318019
0.00038337317
0.00039807216
0.00041797295
0.00044345428
0.00047393648
0.0005113655
0.00055201543
0.00059015403
0.00061068931
0.00061528213
0.00061908712
0.000622742
0.00062634876
0.00062996239
0.00063412871
0.00060519232
0.00049038417
0.00048066561
0.00046309129
0.00044773295
0.00043585005
0.00042743501
0.00042255125
0.00042116235
0.00042329436
0.00042926192
0.00043923263
0.00045367039
0.00047272714
0.00049657205
0.00052319823
0.00055197872
0.00058098232
0.00060817351
0.00063277744
0.00065498407
0.00067486091
0.00069245121
0.00070858212
0.00066935029
0.00051632452
0.00051509263
0.00049533849
0.00047531036
0.00045809688
0.00044310381
0.00043164995
0.00042240539
0.00041599132
0.00041290367
0.00041262238
0.00041502644
0.0004208646
0.00043049101
0.00044388253
0.00045731064
0.00047140995
0.00048540534
0.00050000828
0.00051516328
0.00053130763
0.00055032114
0.00057738409
0.00061750654
0.0005040912
0.00050920835
0.00048756199
0.00046421638
0.00044305819
0.00042423447
0.00040913963
0.00039537015
0.00038483962
0.00037714195
0.00037138765
0.00036874064
0.00036861081
0.00037071255
0.00037618715
0.00038378741
0.00038945017
0.00039681254
0.00040431557
0.00041419291
0.00042543394
0.00044209677
0.00046993365
0.00055445065
0.00047341424
0.00047964207
0.00046056755
0.00043476477
0.00041178821
0.0003913336
0.00037355104
0.00035913369
0.00034603817
0.00033623943
0.00032869526
0.00032307047
0.00032048634
0.00031937509
0.00032096328
0.00032507204
0.00032669151
0.0003308505
0.00033501788
0.00034163077
0.00035028953
0.00036342307
0.0003898737
0.00049111262
0.00043055229
0.00043324467
0.00041929579
0.00039433679
0.0003702459
0.00035020829
0.00033140918
0.00031637506
0.00030340887
0.00029278015
0.00028507925
0.00027838456
0.00027458518
0.00027245405
0.00027234823
0.00027431489
0.00027411778
0.00027632933
0.00027911279
0.00028356614
0.00029047837
0.00030058472
0.00032301322
0.00042476107
0.0003777459
0.00037737878
0.00036778092
0.00034468437
0.00032081352
0.00030147108
0.00028388478
0.00026947769
0.00025766975
0.00024753706
0.00024032188
0.000234029
0.0002301537
0.00022790189
0.00022716915
0.00022791382
0.00022703995
0.00022822926
0.00023013366
0.00023316019
0.00023842946
0.00024583634
0.00026314539
0.0003540094
0.00031419298
0.00031199749
0.00030515415
0.00028528953
0.00026407456
0.0002472335
0.00023244294
0.0002202703
0.0002106282
0.00020220851