/*--------------------------------*- C++ -*----------------------------------*\
| =========                 |                                                 |
| \\      /  F ield         | OpenFOAM: The Open Source CFD Toolbox           |
|  \\    /   O peration     | Version:  4.1                                   |
|   \\  /    A nd           | Web:      www.OpenFOAM.org                      |
|    \\/     M anipulation  |                                                 |
\*---------------------------------------------------------------------------*/
FoamFile
{
    version     2.0;
    format      ascii;
    class       volScalarField;
    location    "0.000710";
    object      nut;
}
// * * * * * * * * * * * * * * * * * * * * * * * * * * * * * * * * * * * * * //

dimensions      [0 2 -1 0 0 0 0];

internalField   nonuniform List<scalar> 
3072
(
0.00023037964
0.00019157682
0.00017864029
0.00016928499
0.0001635792
0.00015944889
0.00015662536
0.00015490442
0.00015424764
0.00015458331
0.00015597956
0.00015870704
0.00016258895
0.00016767618
0.00017395189
0.00018130004
0.00018965201
0.00019873347
0.00020838386
0.00021840403
0.00022878241
0.00023945566
0.00025054041
0.00026187738
0.00030709265
0.00026716303
0.00024680175
0.00023298945
0.00022467702
0.00021901065
0.00021541554
0.00021363378
0.00021365318
0.00021540527
0.00021900129
0.00022416316
0.00023092871
0.00023938218
0.00024909223
0.00026025737
0.00027223259
0.00028500737
0.00029802309
0.00031101506
0.00032398496
0.00033678078
0.00034992028
0.00036315783
0.00034154079
0.00029957385
0.00027569028
0.0002609697
0.00025182113
0.00024575092
0.00024202913
0.00024045166
0.00024095881
0.00024351917
0.00024820538
0.00025469842
0.00026309923
0.00027343553
0.00028528147
0.00029882149
0.00031323967
0.00032857603
0.00034406234
0.00035936448
0.000374378
0.00038901551
0.00040391497
0.00041887089
0.00037774441
0.00033001658
0.00030214777
0.00028570015
0.00027511101
0.00026802231
0.00026355816
0.000261546
0.00026189184
0.00026462931
0.0002697736
0.00027699043
0.00028642045
0.00029810138
0.00031163036
0.00032718303
0.0003438409
0.00036167398
0.00037968872
0.00039744753
0.0004146902
0.00043141845
0.0004482132
0.00046513284
0.00041320575
0.00036027069
0.00032928604
0.00031114483
0.00029911759
0.00029085112
0.0002854335
0.00028269014
0.00028254121
0.00028509531
0.00029034439
0.00029800315
0.00030816434
0.00032091882
0.00033586858
0.00035318919
0.00037201267
0.00039221526
0.00041261692
0.00043267377
0.00045182472
0.00047017743
0.00048803819
0.0005060467
0.00043680207
0.00038095169
0.00034841606
0.00032909008
0.00031584135
0.00030631643
0.00029974966
0.0002959747
0.00029503013
0.00029704998
0.00030205929
0.00030990092
0.00032053426
0.00033413684
0.00035040795
0.00036936473
0.00039032313
0.00041281214
0.00043568618
0.00045806353
0.00047905437
0.00049876423
0.0005174347
0.00053619071
0.00042771197
0.00037573448
0.00034422262
0.00032478405
0.00031093068
0.00030052057
0.00029303702
0.00028846081
0.00028689943
0.0002884114
0.00029305516
0.00030089416
0.00031177583
0.00032600158
0.00034346666
0.00036403604
0.00038738825
0.00041254049
0.00043866599
0.00046413451
0.00048809935
0.00051013302
0.00053079009
0.00055125217
0.00034672428
0.00030815037
0.00028510892
0.00027104209
0.00026031185
0.00025182324
0.00024535091
0.00024109195
0.00023935344
0.00024045998
0.00024477268
0.0002526261
0.000263927
0.00027884116
0.00029739478
0.00031956334
0.00034506533
0.0003732676
0.00040288832
0.0004321566
0.00045948298
0.00048410122
0.00050636475
0.00052726702
0.00030712063
0.00026715857
0.00024677166
0.00023293694
0.00022460205
0.00021891578
0.00021530488
0.00021351681
0.00021353795
0.00021529467
0.00021889713
0.00022406497
0.0002308359
0.00023930382
0.00024904092
0.00026023196
0.00027222445
0.00028501466
0.00029803283
0.00031101161
0.00032394233
0.00033671292
0.00034981375
0.00036301937
0.00042254809
0.00038683528
0.00035958187
0.00034214106
0.0003316134
0.00032497302
0.00032126929
0.00032021344
0.00032180904
0.00032599455
0.00033280155
0.00034108927
0.00035124791
0.00036325821
0.00037620668
0.00039057585
0.00040497456
0.00041972307
0.00043380063
0.00044692271
0.00045917986
0.00047063284
0.00048221148
0.0004937605
0.00048068803
0.0004382138
0.00040641492
0.00038747775
0.00037554878
0.00036796691
0.00036354535
0.00036203242
0.00036338068
0.00036754323
0.00037452142
0.00038330716
0.00039417464
0.0004070829
0.00042115393
0.0004368182
0.00045265166
0.00046887068
0.00048438051
0.00049881758
0.00051224137
0.00052475509
0.00053749546
0.00055023451
0.00054383223
0.00049390078
0.00045708248
0.0004352603
0.00042101268
0.00041150695
0.00040540825
0.00040246989
0.00040262027
0.00040585753
0.00041214851
0.00042060782
0.00043139442
0.00044457845
0.00045929818
0.00047590404
0.0004930562
0.00051086638
0.00052819062
0.00054454744
0.000559908
0.00057448853
0.00058920027
0.00060411016
0.0005961396
0.00054371558
0.00050483608
0.00048134726
0.00046542845
0.0004541738
0.00044634847
0.0004417325
0.00044031025
0.00044220581
0.00044733085
0.00045508315
0.0004654149
0.00047848304
0.00049352793
0.00051074785
0.00052910011
0.00054835728
0.00056735294
0.00058558928
0.00060263649
0.00061894922
0.00063493223
0.0006512693
0.0006181291
0.00056711113
0.00052861418
0.00050440194
0.0004872116
0.00047421409
0.00046451227
0.00045798719
0.00045479828
0.00045505858
0.00045875951
0.00046569217
0.00047554413
0.00048848525
0.00050403969
0.00052208524
0.00054192047
0.00056291867
0.00058407522
0.0006044409
0.00062357747
0.00064145903
0.0006586113
0.00067586078
0.00057266375
0.00052357945
0.0004856552
0.00046143391
0.0004440161
0.00043051201
0.00042025735
0.00041328476
0.00040983729
0.00041003732
0.00041388501
0.00042133945
0.00043191968
0.0004457278
0.00046260858
0.00048220195
0.00050396926
0.00052715588
0.00055066392
0.00057316346
0.00059385421
0.00061256244
0.00062996332
0.00064731319
0.0004273446
0.00037531821
0.00034390352
0.00032452124
0.00031078234
0.00030045407
0.00029299337
0.00028835728
0.00028673111
0.00028820967
0.00029286623
0.00030073292
0.00031159263
0.00032580062
0.00034329724
0.00036392645
0.00038733404
0.00041253875
0.00043866968
0.00046427818
0.0004882608
0.00051010635
0.00053042803
0.00055061235
0.00034123999
0.0002991638
0.00027523679
0.00026048048
0.00025129025
0.00024518323
0.00024142902
0.00023982193
0.0002403134
0.00024286978
0.00024756415
0.00025408955
0.00026253343
0.00027293526
0.00028486674
0.00029848747
0.0003129655
0.00032832683
0.00034379306
0.00035904033
0.00037397123
0.00038848864
0.00040324384
0.00041808475
0.00048018095
0.00043757739
0.00040574654
0.00038678812
0.000374833
0.00036722412
0.00036276614
0.00036120091
0.00036251303
0.00036666614
0.00037366104
0.00038250051
0.00039345609
0.00040647071
0.00042066351
0.00043643493
0.00045234775
0.00046860278
0.00048409529
0.00049848382
0.00051183503
0.00052427866
0.00053690089
0.00054953538
0.00056320333
0.00051075493
0.00047255906
0.00045041472
0.00043628265
0.00042729198
0.00042181831
0.00041951404
0.00042026062
0.00042400718
0.00043078065
0.00043967016
0.00045091658
0.00046444305
0.00047941284
0.00049621164
0.00051336973
0.0005311132
0.00054823006
0.00056440436
0.00057964118
0.00059416293
0.00060899753
0.00062380937
0.00065130984
0.00059641128
0.00055371867
0.00052819917
0.00051147044
0.00050049897
0.00049346434
0.00048990241
0.00048959822
0.00049249546
0.00049857964
0.00050705783
0.00051812197
0.00053177095
0.00054717634
0.00056465336
0.00058289558
0.00060203935
0.00062091553
0.00063913413
0.00065659236
0.00067347785
0.00069062129
0.00070791169
0.00070913271
0.00065933738
0.0006178685
0.00059215172
0.00057440947
0.00056205659
0.00055355122
0.00054843465
0.00054657831
0.00054802863
0.00055272745
0.00056018988
0.00057042684
0.00058342013
0.00059860494
0.00061593657
0.0006346245
0.00065432256
0.00067407198
0.0006934022
0.00071198061
0.00073011322
0.00074813533
0.00076657783
0.00070771407
0.00066095654
0.00062138999
0.00059624948
0.00057817128
0.00056483087
0.0005550449
0.00054849598
0.00054521237
0.0005453285
0.00054889707
0.00055575978
0.00056555372
0.00057825823
0.0005935925
0.00061110857
0.00063035893
0.00065062329
0.00067107934
0.0006910313
0.00071000869
0.00072809754
0.00074585466
0.00076403702
0.00061707418
0.00056586253
0.00052730432
0.0005031185
0.00048603873
0.00047325743
0.00046379153
0.0004574568
0.00045431935
0.00045460025
0.00045836955
0.00046545461
0.00047538501
0.00048840103
0.00050406386
0.00052223692
0.00054218999
0.00056325516
0.0005844755
0.00060485421
0.00062386829
0.00064144797
0.00065828909
0.00067537596
0.00043598854
0.00037999159
0.00034750649
0.00032827397
0.00031513222
0.00030569806
0.00029923683
0.00029550877
0.00029455546
0.0002965619
0.00030159784
0.00030949911
0.00032020767
0.00033388679
0.00035023404
0.00036928333
0.00039033985
0.00041292393
0.00043588314
0.00045828624
0.00047918188
0.00049859493
0.00051686
0.0005352302
0.00037730634
0.00032940407
0.00030146975
0.0002849683
0.00027431426
0.00026716391
0.0002626449
0.00026058221
0.00026088343
0.00026358344
0.00026871584
0.00027596908
0.00028545489
0.00029721498
0.00031084241
0.00032649632
0.0003432331
0.00036110351
0.00037910303
0.00039681526
0.00041398485
0.00043057221
0.00044717146
0.00046393469
0.00054323474
0.0004931012
0.00045621623
0.00043434572
0.00042004208
0.00041046938
0.00040429351
0.00040127211
0.00040134257
0.00040452699
0.00041081614
0.00041934108
0.00043025513
0.00044358448
0.00045845533
0.00047521036
0.00049247167
0.00051035906
0.00052770569
0.00054406751
0.00055939095
0.00057384228
0.00058838926
0.000603178
0.00065106501
0.00059607968
0.00055335353
0.00052782212
0.00051108123
0.00050007358
0.00049299033
0.00048938719
0.0004890475
0.00049193866
0.00049805232
0.00050657566
0.00051771417
0.00053144324
0.00054692273
0.00056448779
0.00058279054
0.00060199332
0.00062090726
0.00063915053
0.00065658719
0.00067344817
0.00069054295
0.00070784061
0.00073426301
0.00068434746
0.00064146073
0.00061485972
0.00059688307
0.00058500262
0.00057733341
0.00057322926
0.00057237645
0.00057468132
0.00058009923
0.00058807893
0.00059879038
0.00061215389
0.00062751515
0.0006450225
0.00066372073
0.00068354602
0.00070354991
0.00072324169
0.00074239545
0.00076121179
0.00078018591
0.00079934194
0.00075888692
0.0007135815
0.00067310328
0.00064760485
0.00062987696
0.00061786171
0.00060989228
0.00060529427
0.00060379804
0.00060532739
0.0006098748
0.00061728491
0.00062737893
0.00064002017
0.00065500448
0.00067206343
0.00069069227
0.00071039908
0.00073049414
0.00075042211
0.00076993438
0.0007890907
0.00080822441
0.00082770386
0.00070818993
0.00065810121
0.00061657942
0.00059090475
0.00057329473
0.00056117267
0.00055295676
0.00054808593
0.0005463824
0.00054787827
0.00055263144
0.00056028955
0.00057059425
0.00058354457
0.00059876202
0.0006161863
0.00063498852
0.00065472444
0.00067450073
0.00069383326
0.00071238444
0.00073037288
0.00074816766
0.00076651804
0.00059410345
0.00054130855
0.00050244073
0.0004791148
0.00046347459
0.00045255675
0.00044510005
0.0004407908
0.00043957031
0.00044155918
0.00044681092
0.00045481596
0.00046532898
0.0004784866
0.00049367295
0.00051105445
0.00052957953
0.00054894018
0.00056800009
0.00058620867
0.00060312985
0.00061906248
0.00063456789
0.00065059092
0.00041160675
0.00035858851
0.00032774052
0.00030977032
0.00029793226
0.0002898471
0.00028461308
0.00028199915
0.00028191986
0.00028450228
0.00028980751
0.00029754555
0.00030779642
0.00032061719
0.00033563765
0.00035304717
0.00037199839
0.00039234871
0.00041284434
0.00043294348
0.0004519914
0.00047003404
0.00048745388
0.00050503437
0.00041278805
0.00035965693
0.00032858231
0.00031036608
0.00029825503
0.00028990414
0.00028441819
0.0002816134
0.00028140916
0.00028391295
0.00028914766
0.00029685017
0.00030708253
0.0003199357
0.00033500042
0.00035243009
0.00037133025
0.00039157909
0.00041198822
0.00043201905
0.00045108762
0.00046927238
0.0004869239
0.00050476205
0.0005956452
0.00054302674
0.00050403072
0.00048045473
0.00046444584
0.0004530941
0.00044518104
0.00044047539
0.00043896098
0.00044077635
0.00044588665
0.00045370219
0.00046417254
0.00047741535
0.00049264059
0.00051001577
0.00052848576
0.00054783229
0.00056688689
0.00058514926
0.00060215572
0.00061831528
0.00063413295
0.0006503844
0.00070884327
0.00065892374
0.00061735705
0.00059157874
0.00057379758
0.00056139542
0.0005528322
0.00054765103
0.00054573911
0.00054717028
0.00055188606
0.00055938786
0.00056972505
0.00058284876
0.00059815845
0.0006156143
0.00063441601
0.00065421722
0.00067404326
0.00069341382
0.00071198759
0.00073004083
0.00074802413
0.00076647092
0.00075871905
0.0007133293
0.00067280847
0.00064729736
0.00062957411
0.00061754459
0.00060954269
0.00060492214
0.00060342627
0.00060498192
0.00060957461
0.00061703679
0.00062719628
0.00063988327
0.00065491922
0.00067201958
0.00069067569
0.00071042351
0.00073053969
0.00075047579
0.00076991597
0.00078900352
0.00080815122
0.00082767094
0.00073334929
0.00068316625
0.00064032334
0.00061381789
0.00059602831
0.00058441653
0.0005770332
0.00057319089
0.00057251306
0.00057485015
0.00058031201
0.0005885385
0.00059927213
0.00061242876
0.00062775978
0.00064525375
0.00066400941
0.00068384876
0.00070379873
0.00072358214
0.00074283913
0.00076154815
0.00078035397
0.00079942812
0.00064947261
0.00059416719
0.00055149565
0.00052611734
0.00050966692
0.00049907531
0.0004924354
0.00048923316
0.0004891864
0.00049220504
0.00049842901
0.00050719675
0.00051838005
0.0005319639
0.00054741773
0.00056498143
0.00058338213
0.00060262457
0.00062151055
0.00063985819
0.00065737404
0.00067412996
0.00069102055
0.00070819952
0.00054070627
0.00049043874
0.0004537755
0.00043225161
0.00041840516
0.00040935394
0.00040371432
0.00040118767
0.00040163409
0.00040503884
0.00041150377
0.00042024597
0.00043122208
0.0004444625
0.00045930888
0.00047607881
0.00049347518
0.00051150664
0.00052894874
0.00054540888
0.0005606531
0.00057482494
0.00058899578
0.0006034664
0.00037549455
0.00032782025
0.00030016996
0.00028396567
0.00027363501
0.00026678469
0.00026253852
0.00026070559
0.00026116264
0.00026395277
0.00026916385
0.00027645615
0.00028595266
0.00029766781
0.00031122355
0.00032683805
0.00034362454
0.000361623
0.00037978273
0.00039764757
0.00041482314
0.0004312883
0.00044769857
0.00046425732
0.00043653537
0.00038050532
0.0003478675
0.00032844951
0.00031511041
0.00030549188
0.00029884887
0.00029499344
0.00029395959
0.00029591509
0.000300907
0.00030878815
0.00031949784
0.00033321439
0.000349617
0.00036868671
0.0003897199
0.00041226303
0.00043514511
0.00045750298
0.00047845221
0.00049799632
0.0005164685
0.0005350937
0.00061780431
0.00056665892
0.00052802782
0.00050368951
0.00048637888
0.00047327916
0.00046351527
0.00045691022
0.00045357268
0.00045372193
0.00045740248
0.00046438695
0.00047436831
0.00048748688
0.00050323749
0.00052144285
0.0005414021
0.00056251129
0.00058374728
0.00060413026
0.00062325358
0.00064097553
0.00065805026
0.00067531371
0.00070752295
0.00066064626
0.00062097394
0.00059574392
0.00057761008
0.00056421649
0.00055435474
0.00054771702
0.00054436519
0.00054446749
0.00054806592
0.00055499772
0.00056492292
0.00057771741
0.00059314351
0.00061075312
0.0006300875
0.00065043699
0.00067097565
0.00069091257
0.00070985902
0.00072790946
0.00074571655
0.00076392413
0.00070797681
0.00065776939
0.000616204
0.00059053315
0.0005729432
0.00056080501
0.00055253651
0.00054764322
0.00054597672
0.00054754134
0.00055239352
0.00056021281
0.00057059876
0.00058353123
0.00059874948
0.00061617228
0.00063496038
0.00065473561
0.00067455035
0.00069389975
0.00071241471
0.00073030415
0.00074813478
0.00076655539
0.0006493831
0.00059405932
0.00055137379
0.00052599659
0.00050953898
0.00049891808
0.00049224988
0.00048905142
0.00048904397
0.00049212315
0.00049843035
0.00050730091
0.00051852832
0.00053208665
0.00054754049
0.00056509935
0.00058349858
0.0006027607
0.00062167349
0.00064002025
0.00065753436
0.00067424443
0.00069114229
0.00070838459
0.00056043327
0.00050765142
0.0004695532
0.00044764274
0.00043388932
0.00042536293
0.0004203699
0.00041852871
0.00041966464
0.00042366626
0.00043068024
0.00043988811
0.00045127006
0.00046475644
0.0004797768
0.00049666796
0.00051405765
0.00053202593
0.00054931366
0.00056567945
0.00058098024
0.00059524466
0.00060974696
0.00062432374
0.00047656202
0.00043407777
0.00040264588
0.00038413414
0.00037269858
0.00036563659
0.00036173127
0.00036068967
0.00036239356
0.00036676854
0.00037395088
0.0003829923
0.00039399207
0.00040688967
0.00042102758
0.00043681284
0.0004529161
0.00046942945
0.00048516244
0.00049974783
0.00051306861
0.00052517315
0.00053741382
0.00054971562
0.00033889288
0.0002971808
0.00027362899
0.00025922676
0.00025037334
0.00024457133
0.00024109188
0.00023971186
0.00024034562
0.0002429767
0.00024774243
0.00025430522
0.00026275046
0.0002730908
0.00028492855
0.00029849423
0.00031301563
0.00032851099
0.00034415796
0.00035956308
0.00037452146
0.00038894145
0.00040355542
0.00041827784
0.00042757997
0.00037553319
0.00034388522
0.0003243719
0.00031047433
0.00030000934
0.0002924523
0.00028779027
0.00028614201
0.00028760534
0.00029225769
0.00030008487
0.00031101863
0.00032533388
0.00034289849
0.00036355689
0.00038697447
0.00041219033
0.00043828884
0.00046379358
0.00048773852
0.00050972192
0.00053026251
0.00055063869
0.0005725192
0.00052333254
0.00048534188
0.0004610306
0.00044352457
0.00042993504
0.00041964651
0.00041265337
0.00040909287
0.00040920078
0.00041305537
0.00042057539
0.00043128779
0.00044518681
0.00046218106
0.00048185538
0.00050368331
0.00052690821
0.00055040757
0.00057293742
0.00059359186
0.00061225972
0.00062967814
0.00064709337
0.00061700017
0.00056569034
0.00052710096
0.00050291717
0.000485799
0.0004729673
0.00046346926
0.00045711155
0.00045396723
0.00045427986
0.0004581214
0.00046535959
0.00047536736
0.00048837143
0.00050401046
0.00052217609
0.00054211411
0.00056319709
0.00058445613
0.0006049315
0.00062382882
0.00064132248
0.00065828919
0.00067554074
0.00059429642
0.00054149667
0.0005025954
0.00047923773
0.000463558
0.00045259264
0.00044507632
0.00044075344
0.00043957234
0.00044161494
0.00044693309
0.00045505704
0.00046558905
0.00047865088
0.00049378035
0.00051112664
0.00052962589
0.00054901502
0.00056811012
0.00058634733
0.00060333975
0.00061932843
0.00063492327
0.00065108916
0.00054110245
0.00049088162
0.00045416314
0.00043258153
0.00041867666
0.00040957087
0.00040387896
0.00040132441
0.00040178168
0.00040521538
0.00041171996
0.00042052611
0.00043148471
0.00044463935
0.00045945775
0.00047621449
0.00049360249
0.0005116476
0.00052913262
0.00054563835
0.00056097704
0.00057524594
0.00058951219
0.00060408671
0.00047687314
0.00043439694
0.00040291407
0.00038436099
0.00037289164
0.00036580697
0.00036187591
0.00036080126
0.0003624934
0.0003668742
0.00037407124
0.00038314078
0.00039413787
0.00040701489
0.0004211651
0.00043696128
0.00045305964
0.00046956998
0.00048532186
0.00049994824
0.00051334923
0.00052552455
0.00053781564
0.00055014913
0.00041844875
0.0003831535
0.00035648631
0.00033958288
0.00032957812
0.00032345313
0.0003202412
0.00031960896
0.00032148783
0.0003258106
0.00033276984
0.00034122772
0.00035143349
0.00036333359
0.00037624473
0.00039063467
0.00040519095
0.00042014567
0.00043441129
0.00044767187
0.00045985685
0.00047098774
0.00048221156
0.0004934692
0.0003047707
0.00026520319
0.00024523533
0.00023175997
0.00022372869
0.0002183088
0.00021492447
0.0002133021
0.0002134116
0.00021520845
0.00021887229
0.00022408766
0.00023088108
0.00023931846
0.00024899843
0.00026015208
0.00027216562
0.00028502922
0.00029814895
0.00031121744
0.00032414931
0.000336792
0.00034975921
0.00036292039
0.00034652776
0.00030789434
0.00028485011
0.00027075647
0.0002600002
0.0002514828
0.00024498541
0.00024069961
0.00023892833
0.0002400113
0.00024433312
0.0002522404
0.00026359104
0.00027853702
0.00029714819
0.00031936538
0.00034490313
0.00037307682
0.00040267121
0.00043193808
0.00045926058
0.00048394658
0.00050624494
0.00052718043
0.00042715912
0.00037508335
0.00034368969
0.00032428653
0.00031051642
0.00030015126
0.00029267329
0.00028804944
0.00028642121
0.00028789634
0.00029257032
0.00030053738
0.00031147694
0.00032572363
0.00034324286
0.00036390831
0.00038732095
0.0004125324
0.00043876647
0.00046426189
0.00048811393
0.00051003041
0.00053056127
0.00055091308
0.00043588677
0.00037993198
0.00034745233
0.000328207
0.00031505699
0.00030560888
0.00029913535
0.00029542283
0.00029449863
0.00029653941
0.00030162386
0.00030960316
0.00032035971
0.0003340372
0.00035036745
0.00036940523
0.0003904485
0.00041302944
0.00043600813
0.00045842966
0.00047929106
0.00049874082
0.0005171535
0.00053568061
0.00041178778
0.00035881513
0.0003279459
0.00030994218
0.00029807745
0.00028997152
0.00028471796
0.0002821104
0.00028205422
0.0002846544
0.00028997762
0.0002977525
0.00030800626
0.00032079388
0.0003357951
0.00035318894
0.0003721243
0.00039247248
0.00041298948
0.0004331183
0.00045222618
0.00047035616
0.00048785812
0.0005055401
0.00037580516
0.00032814092
0.00030045398
0.00028421275
0.00027385086
0.00026698408
0.00026272594
0.00026088625
0.00026134341
0.00026413051
0.00026933737
0.00027663346
0.00028611548
0.00029780859
0.00031136282
0.00032697742
0.00034375446
0.00036174925
0.0003799244
0.00039783119
0.00041509252
0.00043164526
0.00044810464
0.00046471537
0.00033907594
0.00029736918
0.00027379819
0.00025937918
0.00025051532
0.00024470969
0.00024122296
0.00023982753
0.00024045153
0.00024307803
0.00024784033
0.00025440141
0.00026284238
0.00027318857
0.00028505071
0.00029863009
0.00031314336
0.00032862634
0.00034427521
0.00035971013
0.00037472866
0.00038920053
0.00040383044
0.00041855952
0.00030475215
0.00026520727
0.00024525603
0.00023179089
0.00022376769
0.00021835113
0.00021496414
0.00021333446
0.00021343998
0.00021523734
0.00021890157
0.00022411187
0.00023090264
0.00023934426
0.00024903695
0.00026019396
0.00027219644
0.00028504643
0.00029815857
0.0003112295
0.00032417353
0.00033682311
0.00034978637
0.00036293919
0.00022930065
0.00019069213
0.0001779581
0.00016877564
0.00016320771
0.00015918481
0.00015643569
0.00015475505
0.00015411253
0.00015445979
0.00015588087
0.00015862545
0.00016251673
0.00016761938
0.00017388004
0.00018121386
0.00018956357
0.00019867935
0.00020839064
0.00021845789
0.00022883429
0.0002394492
0.00025044433
0.00026179914
0.00018542792
0.00018259693
0.00017968712
0.00017679156
0.00017368808
0.00017045781
0.00016694833
0.00016326139
0.00015951377
0.00015569336
0.00015210337
0.00014855789
0.0001453512
0.00014241129
0.0001397746
0.0001376728
0.0001360921
0.00013507152
0.00013457313
0.00013464367
0.00013535231
0.00013689744
0.00013901082
0.0001443984
0.00020012842
0.00019619539
0.00019224335
0.00018833127
0.00018427879
0.00018012135
0.00017576338
0.00017131188
0.00016692218
0.00016265058
0.00015873279
0.0001551052
0.00015193984
0.00014923639
0.00014700996
0.00014539922
0.00014437073
0.00014395971
0.00014414895
0.00014499364
0.00014655625
0.00014916901
0.00015247656
0.0001619856
0.0002148494
0.00020990458
0.00020510157
0.00020045748
0.00019576397
0.00019101302
0.00018614277
0.00018124336
0.00017652253
0.00017201413
0.000167959
0.00016432707
0.00016124981
0.00015873263
0.00015678302
0.0001554968
0.00015487377
0.00015492557
0.00015565135
0.00015708653
0.00015933579
0.00016276385
0.00016734867
0.00017894256
0.00023764786
0.00023058418
0.00022411561
0.00021813498
0.0002123768
0.00020673567
0.00020117184
0.00019572946
0.00019067772
0.00018598859
0.00018190404
0.00017838483
0.00017553422
0.00017335671
0.00017181725
0.00017103696
0.00017102808
0.00017178457
0.0001733144
0.00017562698
0.00017886454
0.00018346821
0.00018988366
0.00020451764
0.00027686422
0.00026445673
0.00025374801
0.00024433755
0.000235893
0.00022811642
0.00022097691
0.00021443041
0.00020872409
0.00020378026
0.0001997365
0.00019653189
0.00019419598
0.00019268572
0.00019197998
0.00019219897
0.00019336471
0.00019540861
0.00019830704
0.0002021218
0.00020694812
0.00021338965
0.00022222665
0.00024117051
0.00033884361
0.00031558085
0.00029588666
0.00027919894
0.0002649336
0.00025277913
0.00024244505
0.00023391942
0.00022711959
0.0002219003
0.00021813459
0.00021564049
0.0002143752
0.00021416753
0.00021505198
0.00021713624
0.00022036098
0.00022466837
0.00022995578
0.00023625714
0.00024360128
0.00025272478
0.00026411221
0.0002861955
0.00040953084
0.00037004428
0.00033678035
0.00030917287
0.00028662856
0.00026856695
0.00025455706
0.0002440767
0.00023662972
0.00023180179
0.00022906849
0.0002280808
0.00022867222
0.00023057052
0.00023386241
0.00023858771
0.00024472957
0.00025218544
0.00026073748
0.0002703035
0.00028059101
0.00029262535
0.00030500716
0.00032504542
0.00045908673
0.0003979851
0.00034705065
0.00030649172
0.00027586992
0.00025423608
0.00023986043
0.00023096279
0.00022614924
0.00022426666
0.00022455027
0.00022653216
0.00022992879
0.00023471203
0.00024091329
0.00024851665
0.00025748526
0.00026771737
0.00027896963
0.00029104747
0.00030320735
0.00031634579
0.0003262662
0.00033897077
0.00010334369
0.00010314254
0.00010285443
0.00010247298
0.00010200535
0.00010145245
0.00010079912
0.00010006915
9.9270534e-05
9.8452885e-05
9.7626817e-05
9.6848089e-05
9.6127071e-05
9.5648254e-05
9.5447327e-05
9.5279709e-05
9.5139195e-05
9.5022059e-05
9.4933338e-05
9.4870289e-05
9.4819676e-05
9.4778408e-05
9.4595829e-05
9.3666421e-05
0.00010930027
0.00010907651
0.0001088039
0.00010848168
0.00010812153
0.00010771247
0.00010725171
0.00010673943
0.00010618134
0.00010560568
0.00010501039
0.00010443516
0.00010387279
0.00010344272
0.00010317235
0.00010292505
0.00010269924
0.00010249429
0.00010231419
0.00010215902
0.00010202041
0.00010190148
0.00010169893
0.00010114503
0.0001140065
0.00011373843
0.00011345314
0.00011315358
0.00011284312
0.00011251469
0.00011215613
0.00011176361
0.00011133307
0.00011087823
0.00011039884
0.00010991104
0.00010941925
0.00010898916
0.000108651
0.0001083313
0.00010802964
0.0001077481
0.00010749159
0.00010726454
0.00010706779
0.00010691687
0.00010677171
0.00010670648
0.00011693565
0.00011650099
0.00011608199
0.00011568469
0.00011531196
0.00011495286
0.00011459018
0.0001142119
0.00011380717
0.0001133799
0.00011292679
0.00011245646
0.00011197256
0.00011152459
0.00011113828
0.00011077227
0.00011042674
0.00011010519
0.00010981275
0.00010955959
0.00010935705
0.00010923596
0.0001092182
0.00010969714
0.00011755526
0.00011678193
0.00011606583
0.00011542126
0.00011485287
0.00011434647
0.0001138778
0.00011342557
0.00011297039
0.0001125047
0.00011202178
0.00011152526
0.0001110172
0.00011054756
0.00011013348
0.00010974818
0.00010939005
0.00010906429
0.0001087758
0.00010853747
0.00010837197
0.0001083251
0.00010847896
0.00010952115
0.00011546674
0.00011422043
0.00011307875
0.00011206754
0.00011119576
0.00011044752
0.00010979168
0.00010919522
0.0001086302
0.0001080781
0.00010752803
0.00010697677
0.00010642498
0.0001059354
0.00010550714
0.00010511987
0.00010477457
0.00010447273
0.0001042203
0.0001040309
0.00010393227
0.00010398939
0.00010434019
0.00010609274
0.00011040285
0.00010865055
0.00010706085
0.00010566329
0.00010446452
0.00010344386
0.00010256259
0.0001017799
0.0001010624
0.00010038545
9.9736131e-05
9.9108396e-05
9.8500481e-05
9.8004097e-05
9.7573253e-05
9.7198359e-05
9.6882296e-05
9.6628061e-05
9.6440802e-05
9.6330712e-05
9.6327003e-05
9.649861e-05
9.7041815e-05
9.9701197e-05
0.00010322104
0.00010080893
9.869304e-05
9.6888552e-05
9.5370301e-05
9.4090832e-05
9.2992454e-05
9.2022409e-05
9.1142064e-05
9.0330197e-05
8.9575409e-05
8.8873451e-05
8.8269626e-05
8.778536e-05
8.7387719e-05
8.7068304e-05
8.6826212e-05
8.6659603e-05
8.6567886e-05
8.6555688e-05
8.6646626e-05
8.6906228e-05
8.7554107e-05
9.1332217e-05
0.00045898389
0.00039789067
0.0003469619
0.00030642178
0.00027581174
0.00025416783
0.00023977542
0.00023087773
0.00022605308
0.00022415508
0.00022442508
0.00022639867
0.00022979017
0.00023457675
0.00024078759
0.00024840369
0.0002573854
0.00026762583
0.00027888102
0.00029096053
0.00030312414
0.00031626619
0.00032619445
0.0003389196
0.00040908451
0.00036969511
0.00033651954
0.00030899789
0.00028650107
0.00026845209
0.00025443811
0.0002439404
0.00023645816
0.00023158756
0.00022881739
0.00022780647
0.00022838853
0.0002302826
0.00023358848
0.00023832903
0.00024448383
0.00025194784
0.00026051643
0.00027010213
0.00028041257
0.0002924587
0.00030484792
0.00032486252
0.00033855513
0.0003153665
0.00029571997
0.00027908412
0.00026485126
0.0002527074
0.00024236166
0.00023380456
0.0002269623
0.00022169445
0.0002178799
0.00021534884
0.00021405483
0.00021382933
0.00021471265
0.00021680341
0.00022003776
0.00022435567
0.00022963742
0.00023590998
0.00024321303
0.00025231165
0.00026367676
0.00028572246
0.00027670761
0.00026435138
0.00025366568
0.0002442865
0.00023585848
0.00022807852
0.00022091379
0.00021433101
0.00020858393
0.00020359847
0.00019951349
0.00019627006
0.00019390195
0.00019236805
0.00019164635
0.0001918571
0.00019302686
0.00019506392
0.00019794193
0.00020172417
0.00020650662
0.00021290007
0.00022168585
0.00024056497
0.00023752314
0.00023050702
0.00022406519
0.00021811563
0.0002123704
0.00020671488
0.00020111972
0.00019563764
0.00019054909
0.00018582473
0.00018170809
0.00017815651
0.00017527815
0.0001730773
0.00017151636
0.00017071987
0.00017070055
0.00017144288
0.00017294903
0.00017522558
0.00017841733
0.00018296685
0.00018932592
0.00020388677
0.00021475035
0.00020984568
0.00020507339
0.00020046424
0.00019578695
0.00019102415
0.00018612068
0.0001811814
0.00017642673
0.00017189094
0.00016781229
0.00016415464
0.00016105432
0.0001585147
0.00015654073
0.00015523271
0.00015459246
0.00015462371
0.00015532092
0.00015671882
0.00015892258
0.00016229896
0.00016683162
0.00017834762
0.00020006029
0.00019615136
0.00019222541
0.0001883422
0.00018430507
0.00018014406
0.00017576569
0.00017128653
0.00016687285
0.00016258351
0.00015865222
0.00015500808
0.00015182439
0.00014909946
0.00014684876
0.000145216
0.00014417093
0.00014373888
0.00014389882
0.00014470599
0.00014622246
0.00014878621
0.00015204365
0.00016147538
0.00018533887
0.00018251593
0.00017962576
0.00017674544
0.00017365065
0.00017042879
0.00016692137
0.00016322719
0.00015946802
0.00015563943