/*--------------------------------*- C++ -*----------------------------------*\
  =========                 |
  \\      /  F ield         | OpenFOAM: The Open Source CFD Toolbox
   \\    /   O peration     | Website:  https://openfoam.org
    \\  /    A nd           | Version:  8
     \\/     M anipulation  |
\*---------------------------------------------------------------------------*/
FoamFile
{
    version     2.0;
    format      ascii;
    class       volVectorField;
    location    "0.0940000";
    object      U;
}
// * * * * * * * * * * * * * * * * * * * * * * * * * * * * * * * * * * * * * //

dimensions      [0 1 -1 0 0 0 0];

internalField   nonuniform List<vector> 
900
(
(0.694666047603178 0.000379028227488583 -8.08530847434597e-19)
(0.695083572806949 0.000209864730330484 -1.67278753335595e-18)
(0.695019830178542 0.000175096567579668 -2.67170340028277e-18)
(0.695027915714055 0.000199598487422875 -2.94249859787959e-18)
(0.694892548868784 0.000207443067386255 -1.51508769045733e-17)
(0.694719552842874 0.00021310522366216 -4.68518046918528e-18)
(0.694529607690152 0.00021696528706971 1.66997030328724e-18)
(0.69433433236847 0.000220926460010601 3.86459092415435e-18)
(0.69413528818167 0.000224468783117632 9.17516364769793e-18)
(0.693931725300379 0.000227456240753535 2.73866636263525e-17)
(0.693722893408414 0.00023015022271206 4.67248223231911e-17)
(0.693509868758476 0.000232960120692087 2.20879053257668e-17)
(0.693292183679848 0.000236027283671387 2.72332482790917e-17)
(0.6930687623332 0.000238558854212133 -9.70857926895155e-18)
(0.692839771063063 0.000240794582443637 -2.27631348545944e-17)
(0.692604760720918 0.00024311451850269 -7.50010774367796e-17)
(0.692364337310957 0.000245956324082226 -3.09109186043034e-17)
(0.692117448610739 0.000248520043618073 7.01423781666477e-18)
(0.691862878464953 0.000250778954448241 -5.09640990588758e-18)
(0.691601605719134 0.000253039003867818 -8.4293203359493e-18)
(0.691333301522564 0.000255782139086555 2.09566368940944e-17)
(0.691057823540089 0.000258456818740787 1.4388229005479e-17)
(0.690775432627686 0.00026078317726173 -3.22774121091899e-18)
(0.69048542868016 0.000263278053382394 -3.01244497321495e-17)
(0.690186599301833 0.000266350181076049 -3.63128754812199e-17)
(0.689879013719309 0.000270078962089585 -5.15372877283067e-17)
(0.68956234326412 0.000273405047619027 7.86972600125894e-17)
(0.689235608265265 0.000276664341691623 -6.48829949893198e-18)
(0.688899245205747 0.000280166998353055 1.01657276355954e-17)
(0.688555359386837 0.000284935272544802 -9.48840903175792e-18)
(0.68820233886865 0.000289753445336538 2.31973459443088e-17)
(0.687837872553465 0.00029452670481625 -4.92880430631382e-17)
(0.687463315669691 0.000299647682158433 2.41685719271819e-17)
(0.68708005258014 0.000306584035027976 6.45129468099696e-17)
(0.686687284620794 0.000314744279744061 2.19095551088593e-17)
(0.68628468068269 0.000322595244792393 -4.68221246821033e-17)
(0.685872930484956 0.000331094559887217 6.99377929323232e-17)
(0.685451620866084 0.000342003733886801 6.68647689135581e-18)
(0.685022648696975 0.000356978678993411 2.1839913622938e-17)
(0.684586960160829 0.000371222451628477 3.53829899988563e-17)
(0.68414373816646 0.000386297180923851 -2.81510557275088e-17)
(0.683695673028484 0.000404455357813064 -3.83100037430515e-17)
(0.683246189488639 0.000431501746699367 3.04475531475801e-17)
(0.682797285767958 0.000458258198288686 9.67376065472972e-18)
(0.68234955416784 0.000486132841600354 9.37855360781594e-17)
(0.68190391030598 0.000518080060748083 -6.11024085813971e-17)
(0.681471018649297 0.000562111941224707 -2.66270529359017e-17)
(0.681058364238587 0.0006138580869003 -6.32313885107266e-17)
(0.680668496846387 0.000664835043711078 -1.12660200440835e-16)
(0.680305987912419 0.000720711880450184 8.57872600253226e-17)
(0.679985738954345 0.000792422923270282 2.22179598296342e-17)
(0.679723943142752 0.000890509255547504 2.71462852201554e-17)
(0.679530565424301 0.0009819968672411 -4.16868971269223e-17)
(0.6794191094292 0.00107771331364033 -7.14744665773904e-17)
(0.679435822139822 0.00118984718909391 2.3985280245574e-18)
(0.679613199652017 0.00137616786915901 4.8109312222269e-17)
(0.680110138886768 0.00161334605371612 1.54177734462813e-16)
(0.681231147947555 0.00190218225474185 -4.65772678005766e-17)
(0.683321779607778 0.0022788352633306 -5.9628885437499e-18)
(0.686612436435063 0.00294330028814217 2.45880028435535e-17)
(0.691078621629808 0.00366322410519614 -4.03389712672081e-17)
(0.696750182983116 0.00429145450497164 1.57646520136368e-16)
(0.703708207885907 0.00489577739896554 6.21462966932087e-17)
(0.711960512868707 0.00561810307996634 1.65927677805934e-17)
(0.721452561426874 0.00623179145370222 8.17194023661625e-17)
(0.732269198667423 0.00657591615636616 3.49441633999772e-17)
(0.744429315269087 0.00679798188293288 -1.18528469789797e-17)
(0.757746011377632 0.0070144579409725 -5.66719549691727e-17)
(0.772031650057202 0.00700325066055121 9.42657103868451e-17)
(0.78720703299408 0.00673192832029611 2.67066106340061e-17)
(0.803087064660717 0.00633965223072372 -3.27934528149825e-17)
(0.819429939649515 0.00586069261702013 -7.98983889961447e-17)
(0.836100152685798 0.0052086876912249 3.12311303584129e-18)
(0.853007735759737 0.00448387844696173 -3.58023214932049e-17)
(0.869956690887001 0.00373116145947054 -1.23323373993159e-16)
(0.886943248865327 0.00291044115031034 -4.84227969652206e-17)
(0.903875572101809 0.00213176448771925 1.47654627508754e-18)
(0.92087706376218 0.00139949129477773 -1.37628919446716e-17)
(0.937747706958292 0.000723975387140623 -1.21676648427148e-16)
(0.954935779191806 0.000109047724004328 4.44558121936239e-17)
(0.971822381986575 -0.000367601279336545 2.75067447133067e-17)
(0.989932265047587 -0.000824407927167672 -5.6350452576856e-17)
(1.00721172884224 -0.00100089096395938 -3.24795217143007e-17)
(1.02744518800208 -0.00122889122095991 -4.86767179558999e-17)
(1.0448121149866 -0.00114069694187175 3.96984311561453e-17)
(1.06988705096636 -0.0013592264548956 3.01044846469865e-17)
(1.07993229625143 -0.00010065906029994 1.53810816649557e-17)
(1.07749297309666 -0.000224711811546707 -8.08417815029794e-19)
(1.08206823666603 7.62331305615826e-05 4.61763520954106e-17)
(1.0817941830866 0.000179085076505309 -9.21631920933987e-17)
(1.08357538191285 0.00032340216986271 -2.23167588122224e-17)
(1.08353574749335 0.000333229523374204 1.44508484013883e-17)
(1.08416158521539 0.000388360060737784 -8.1942210274944e-18)
(1.08402825947664 0.000400479653940949 -7.82202536029176e-19)
(1.08410296743836 0.000400369909825978 -4.01514903773988e-18)
(1.08393051780596 0.000391573433167221 -1.20769592830558e-17)
(1.08384813433575 0.000372796848075905 1.28759333490833e-17)
(1.08364753456168 0.000349287706249447 1.53661715165772e-17)
(1.08343805678438 0.000339666560870778 -4.86662270846117e-18)
(1.08273500760037 0.000323868906086456 1.22656505182004e-18)
(0.342643105671569 0.00197717137889085 -2.30320192733627e-18)
(0.344266808370542 0.00206569977301761 -4.59103293591798e-18)
(0.344215887506721 0.00214520529554472 -7.79643483807745e-18)
(0.344143858213028 0.00228061201749482 -1.12619717853003e-17)
(0.343735606984192 0.00235764901213773 -1.56745951740582e-17)
(0.343223077590512 0.00239529801884298 -7.81671831373894e-18)
(0.342662848756485 0.00241521013054101 5.69792247625944e-18)
(0.342084721176962 0.00243016158210126 1.0807077332672e-17)
(0.34149501096402 0.00244325548258118 3.06340396600717e-17)
(0.340893423348853 0.0024553286919694 6.99910217980673e-17)
(0.340278423590075 0.00246704879931909 7.34238183517577e-17)
(0.33964991402317 0.00247911818477927 5.74328937842708e-17)
(0.339007584285761 0.00249173718639053 7.11989021532771e-17)
(0.338350202542878 0.00250352092088183 -2.58265500951958e-17)
(0.337676559802222 0.00251490623603312 -6.7165148721468e-17)
(0.336985808738124 0.00252658112071657 -1.51190272788614e-16)
(0.336278229636245 0.00253936674062927 -8.1852518546442e-17)
(0.335552832015435 0.00255181347235162 2.50741895225189e-17)
(0.334807796362103 0.00256389775053935 3.15185694117182e-17)
(0.334042585423651 0.00257618638087406 -3.34076065146216e-18)
(0.333256877327686 0.00258956798996471 6.8962567554912e-17)
(0.332450197975701 0.00260307001141104 4.82409582249024e-17)
(0.331621420665106 0.00261619075613948 -1.21253363788358e-17)
(0.330768947036269 0.00262992001281427 8.5131017159619e-18)
(0.329891685659244 0.00264508224102701 -1.17416661451868e-16)
(0.328989508974759 0.00266184347255737 -6.23301328163068e-17)
(0.328061249205965 0.00267818261115006 6.8422704249538e-17)
(0.327104778981313 0.00269473351070236 5.05933543590649e-17)
(0.32611923288171 0.00271219738216366 3.34045548789948e-17)
(0.325105667767169 0.00273255704510333 5.89144264434433e-17)
(0.324062779416265 0.00275349144600134 -9.67925431023954e-18)
(0.322987672633372 0.00277482315547895 -8.11372348557552e-17)
(0.321879404482478 0.0027974545481658 7.46653351377271e-17)
(0.32073885553165 0.00282431215078993 1.89183771480575e-16)
(0.319566224148141 0.00285426256086204 6.61160999122685e-17)
(0.31836007632517 0.00288431027503198 -1.5960882140949e-16)
(0.317118613252176 0.00291642835868396 1.28215368046184e-16)
(0.315842003418693 0.00295440124889623 6.8376458288966e-18)
(0.314534376698532 0.00300144687135948 6.22391607364714e-17)
(0.313196744975835 0.00304810872871419 5.84052941260038e-17)
(0.311826183872465 0.00309734289771561 2.45967704898612e-17)
(0.310424966444961 0.00315444043500449 2.55696073303651e-17)
(0.309003091760892 0.00323085152043216 9.93703744151673e-17)
(0.307566412864741 0.003308338761195 2.44227455140786e-17)
(0.306114481537571 0.0033891111804149 1.5625157512265e-16)
(0.304650134608929 0.00348023644700331 -6.36109871598149e-17)
(0.30319308556992 0.00359830552759931 7.76524028274214e-17)
(0.301764010013939 0.00373424287070779 -1.76812633692873e-16)
(0.300371787830619 0.00387030918386649 -9.71823880708434e-17)
(0.299024467021009 0.0040182055797918 2.49413608131603e-16)
(0.297753653174364 0.00420291764608507 1.75208110824581e-16)
(0.296612222500227 0.00444387190208881 9.1464675931695e-17)
(0.295633196462032 0.00467447571627578 -2.53088682397402e-17)
(0.294837390402477 0.00491332078292444 -1.13524193692618e-16)
(0.294289425021187 0.005194923981578 7.71425381202461e-18)
(0.294131226459682 0.00563823659591431 1.36361051649776e-16)
(0.294625086072693 0.00620208228562241 3.40182946304068e-16)
(0.296138522602002 0.00688213522852952 -1.43307958135496e-16)
(0.299146685510341 0.00778237432754767 -1.83597213916891e-17)
(0.304324322909641 0.00929301407961385 1.00069709384763e-16)
(0.312158538028948 0.0109297530441187 -1.26628616178675e-16)
(0.322872533915147 0.0123504017037472 1.32333522719081e-16)
(0.336643011854962 0.0137070098593206 1.8289490448527e-16)
(0.353801494533873 0.0152701958578279 4.747906107575e-17)
(0.374505960018279 0.0165522366005319 2.47063671582858e-16)
(0.398621651155802 0.0172078445328675 9.55878524976454e-17)
(0.425931726888179 0.0175566997389494 -1.83180942756561e-16)
(0.456270563717191 0.0178208280930791 -2.71733114885594e-17)
(0.489306946198628 0.0175407852859683 2.83828820287345e-16)
(0.524510077658297 0.0166532694685913 8.2165451157292e-17)
(0.5613375347776 0.0154634161068313 -2.39406358093037e-16)
(0.599345128874111 0.0140398081106471 -2.41627189683075e-16)
(0.638097715025588 0.0122262466342869 1.03947385999821e-17)
(0.677233376958916 0.0102406749608262 -1.03766328509944e-16)
(0.716364357598241 0.00817979620164771 -3.85347250925246e-16)
(0.755393508551773 0.00598074100497628 -1.44133367309279e-16)
(0.794016969618803 0.00388444609265747 8.18746643100781e-18)
(0.832615861283847 0.00189935289365899 -3.86431711007452e-17)
(0.870680664699142 5.01410188195921e-05 -2.12128061745653e-16)
(0.909313409419168 -0.00166062518952387 1.11260639396924e-16)
(0.947027081863246 -0.00303489621956999 7.83745421802494e-17)
(0.987392795244757 -0.00436027452440936 -2.31672663279765e-17)
(1.02558885347581 -0.00509782443770269 4.62384724219755e-17)
(1.0709824923121 -0.00593652688536331 -1.44597175619846e-16)
(1.10931697614954 -0.00602277044936467 1.17659396394174e-16)
(1.16593180662769 -0.00627953269699844 8.90475066885431e-17)
(1.18667817184288 -0.000788955923264175 4.58160752000328e-17)
(1.17737488768156 -0.000819060736004714 1.14990909469533e-20)
(1.1850219784307 -0.000118138761838485 1.35944277751167e-16)
(1.18161695440327 0.000157731600578774 -1.90113602593494e-16)
(1.18408442542398 0.000506380910119902 -6.31342847484098e-17)
(1.18265011312421 0.000579733203484971 4.42322935092134e-17)
(1.18324681538102 0.000723602992863196 3.80443386814069e-17)
(1.18240669335769 0.000777620729751059 -1.68703578299662e-18)
(1.18226259815136 0.000805542508877419 -1.23363689341487e-17)
(1.18161416276938 0.000807426845682487 -3.77916585348574e-17)
(1.18125672697399 0.000789101947285249 3.96094385294552e-17)
(1.18064747303096 0.000757618324701109 -1.09504939646791e-18)
(1.18020956595832 0.000739971532402667 -7.85398460167966e-18)
(1.17925444638145 0.000628300788171664 6.03827839798077e-19)
(0.0645062033832126 0.00421606381235275 -4.09467743321762e-18)
(0.0672949165702797 0.0047088517100474 -7.10561168322917e-18)
(0.0673033073209498 0.00517423129162217 -1.25220367337613e-17)
(0.0670931311548928 0.00552108869725088 -2.0543750744358e-17)
(0.0664340984069141 0.00570711533423399 -1.84036547305081e-17)
(0.0656366568454055 0.00579171138814116 -1.19923869824932e-17)
(0.0647757051983625 0.00583273386348011 1.09126809848293e-17)
(0.0638883144981441 0.00585978612898176 1.50729924779663e-17)
(0.062983053913891 0.00588275007091136 4.72210530547355e-17)
(0.062060101503012 0.00590441759625453 1.05832402503064e-16)
(0.0611177390258031 0.0059258930132452 1.03052984318963e-16)
(0.060155276231435 0.00594795024069643 8.68755550210028e-17)
(0.0591723586508639 0.00597069638904403 9.14299306829297e-17)
(0.0581675723455173 0.0059928201709153 -5.07694208074307e-17)
(0.0571390077462948 0.00601465857376452 -1.00922301073258e-16)
(0.056085478271948 0.00603705052509496 -1.74962750466001e-16)
(0.0550069876084479 0.00606072035446238 -1.34723956097903e-16)
(0.053902482198508 0.00608435758137063 2.81727655764301e-17)
(0.0527697004965076 0.00610780678281285 5.97360971450469e-17)
(0.0516072831895469 0.00613175785437465 1.5520463851137e-17)
(0.0504146965491753 0.00615708631095197 3.84156408304195e-17)
(0.0491911831596016 0.0061828489599351 9.43410101560336e-17)
(0.0479347549483191 0.0062085437051999 -2.29791747629605e-17)
(0.0466432558523613 0.00623522828941171 -3.38112209329259e-17)
(0.0453154729030251 0.0062638972194547 -8.43459732919592e-17)
(0.043951189500216 0.00629458172542053 -1.46720432378294e-17)
(0.0425486699023721 0.00632533049939235 7.40588121553116e-17)
(0.041104931185215 0.00635662356846788 1.32667091997871e-16)
(0.0396181597993303 0.00638950115974217 5.18150580501897e-17)
(0.0380888317682483 0.00642584993813785 4.39305560335253e-17)
(0.0365157753016986 0.00646352566981444 -5.0296753659457e-17)
(0.0348954254907256 0.00650209729669291 -2.81502288017806e-17)
(0.0332254349122068 0.00654282401816659 1.35994632106397e-16)
(0.0315062331187 0.00658882581407709 2.73230414838297e-16)
(0.0297388676213335 0.00663891123997213 1.1536185662212e-16)
(0.0279209657346839 0.00668994574225181 -1.73037640231753e-16)
(0.0260490632176495 0.00674400248950204 1.29950065216316e-16)
(0.0241230981924214 0.00680586637967624 -2.26294755244695e-17)
(0.0221496662055966 0.00687820558343494 1.02112353687916e-16)
(0.0201299193814371 0.00695170922810964 6.23332737434846e-17)
(0.0180588013374253 0.00702857996335501 7.0647145025663e-17)
(0.0159371919289373 0.007116546390356 8.42036402794127e-17)
(0.0137813903324212 0.00722620104296631 3.03617518746611e-16)
(0.0116013163277531 0.00733949656167962 2.969580521638e-17)
(0.00939333132006777 0.00745695188415585 2.2558441617694e-16)
(0.00716075295792264 0.0075885476834328 -3.45007859714398e-17)
(0.00492993488784199 0.00775184332126897 -2.64767360972794e-17)
(0.0027357879902767 0.00793669023749632 -3.0583445917511e-16)
(0.000589043321283716 0.00812375666249253 -1.23342646524645e-16)
(-0.00150306507435524 0.00832524517145986 4.33208321394268e-16)
(-0.00350178141857179 0.00857338536557429 2.15169853549643e-16)
(-0.00531428700149788 0.00888252299466731 1.46850050736938e-16)
(-0.00689100013069424 0.009185975332682 -9.35139271318683e-18)
(-0.00821673898137526 0.00949458843115991 -1.62996025874353e-16)
(-0.00923124014538526 0.00986493873766401 1.26709437534143e-17)
(-0.00971372546321682 0.0104192800499885 1.2630625169342e-16)
(-0.0093113296567837 0.0111255520054656 4.67866420126297e-16)
(-0.00761772943786505 0.0119641806420302 -1.89886893725739e-16)
(-0.00417025143747345 0.0131066783772316 -3.07370347202873e-17)
(0.00210985714385376 0.0149182227647483 2.9472441663731e-17)
(0.012252319277916 0.0168841511498505 -3.0681408728657e-16)
(0.0264829816627229 0.0185775106481932 1.48911415209977e-16)
(0.0449092223409173 0.0201841050740404 1.417709101764e-16)
(0.068232260796027 0.0219500427406566 7.23313232432739e-17)
(0.0969481049158913 0.0233342914211315 2.66299158975547e-16)
(0.130574615541882 0.0239484097854667 3.07801576331742e-16)
(0.168565804490263 0.0241514151063194 -2.1213737387031e-16)
(0.210995842221387 0.0241517972206457 -1.75675225569432e-18)
(0.25752540136543 0.0234726809303283 4.77786037801605e-16)
(0.307081885342586 0.0220393826480797 1.41117595296762e-16)
(0.358832284331594 0.0201998819214319 -4.46048084314666e-16)
(0.412340355870655 0.0180292946332912 -2.60956947365946e-16)
(0.466886772318319 0.0153996492947882 2.28618621926397e-17)
(0.521820733915457 0.0125456677363914 -1.69340050180391e-16)
(0.576731400853609 0.00958328334977543 -2.14466770396344e-16)
(0.631359587200692 0.00647817962748323 -2.35995491314934e-16)
(0.685208250793651 0.00349712161764065 1.87689440174999e-16)
(0.738913394540365 0.000659897474674238 -5.89872299422007e-17)
(0.791760597674638 -0.00199953003278876 -3.02921967997534e-16)
(0.845166744320502 -0.00449961439637545 8.58624236960622e-17)
(0.897134827922582 -0.00656014423736744 1.22014218335391e-16)
(0.952603697470952 -0.00855303531507812 7.24665521356465e-18)
(1.00485606758358 -0.00987253801974317 1.23564953081677e-16)
(1.06701665709463 -0.0113433624335154 -1.09037811239766e-16)
(1.11925956582576 -0.011771854928749 1.96763387956536e-16)
(1.19670623740508 -0.0118294679878972 1.46792725202733e-16)
(1.22465394481887 -0.0011820250327079 7.53291892493771e-17)
(1.21077899033857 -0.00107224495480265 8.36785008687985e-17)
(1.22043585682732 -0.00018921244910946 1.40313829385731e-16)
(1.21503897353604 0.000129109250427139 -2.86452373125971e-16)
(1.21808638453587 0.000561050517095032 -3.54223049813838e-17)
(1.21582878179707 0.000678722998067767 6.99683480171853e-17)
(1.21647630946201 0.000852986347566378 8.36526940175961e-17)
(1.21525338201819 0.000920387019398905 -2.92234547067234e-18)
(1.21504410159069 0.000964581752809853 -2.20706233263514e-17)
(1.21415499507126 0.000965842975813065 -3.62351584765586e-17)
(1.21369747883246 0.000947336313064427 3.72455697740924e-17)
(1.21291419607299 0.000907904768222686 4.36695043152824e-18)
(1.21250181083899 0.000855861281773257 -8.01218937462655e-18)
(1.21177532793069 0.000597747688633077 9.5169613079382e-19)
(-0.139211246414326 0.00724589329300912 -6.46547002936799e-18)
(-0.136463513481297 0.0075476631774804 -8.91902559209357e-18)
(-0.136650150070693 0.00858926485391897 -1.67491711253749e-17)
(-0.137129952096246 0.00919841014818178 -3.42030107275294e-17)
(-0.138027966986457 0.00950449426458955 -2.58181971397597e-17)
(-0.13904823031285 0.00963808090262061 -1.75316830607294e-17)
(-0.140126850244656 0.0097007882588066 1.86556421223301e-17)
(-0.141233449381537 0.00974014588533649 1.1356998879774e-17)
(-0.142361426285993 0.00977315749490729 6.13353495629269e-17)
(-0.143510826903277 0.00980473878530255 9.06730417293714e-17)
(-0.144683350628937 0.00983640119670944 1.33423264643541e-16)
(-0.145879983455692 0.00986886295189934 1.16607768863953e-16)
(-0.147101258466563 0.0099021469949185 1.01684769519927e-16)
(-0.148348650952724 0.00993519478236353 -2.57607830325053e-17)
(-0.149624254825921 0.00996823441997964 -1.45981852787162e-16)
(-0.150929465893779 0.0100020566682649 -9.02515888502815e-17)
(-0.15226463707968 0.0100372272343325 -1.56739199825723e-16)
(-0.15363092338574 0.0100727333566105 2.13736413270413e-17)
(-0.155030667620957 0.0101083831241523 6.08499471209751e-17)
(-0.156465629780043 0.0101448319674467 4.45597906835603e-17)
(-0.15793665646012 0.0101828196542961 7.68213800637925e-18)
(-0.159444800005866 0.0102215853543454 9.25434161339353e-17)
(-0.160992408206606 0.0102607207261034 -4.86484123329772e-17)
(-0.162581840971965 0.0103011691447723 -6.44653989531856e-17)
(-0.164214461406548 0.0103438839431787 -7.56458664447179e-17)
(-0.16589074522342 0.0103888322864361 4.13025161558388e-17)
(-0.167612728362358 0.0104344027875364 8.57239735796181e-17)
(-0.169383687104717 0.0104809292508791 1.13601624340818e-16)
(-0.171205967583096 0.0105295066084089 6.57293939355031e-17)
(-0.173079714495228 0.0105817125973031 3.51948256737723e-17)
(-0.175006155319314 0.0106358241537179 -1.00598346513265e-16)
(-0.176988985524509 0.0106913545104211 -2.550304710872e-18)
(-0.179031194089533 0.0107496005846428 1.74213753554411e-16)
(-0.18113286011051 0.0108133656665786 2.23282227417107e-16)
(-0.183292800233556 0.0108816090289501 1.7735137142922e-16)
(-0.18551374998207 0.0109515772670187 -2.54989294406708e-16)
(-0.187799703859115 0.0110251260813873 6.78573298695169e-17)
(-0.190150905603645 0.0111069543977315 -2.60771263577484e-17)
(-0.192560050624129 0.0111990904244527 1.4949504958727e-16)
(-0.195025930120821 0.0112935387060339 1.4686322216791e-17)
(-0.197553959510121 0.0113918080088956 1.09909170472917e-16)
(-0.200143822655629 0.0115019348563137 1.3040796850571e-16)
(-0.202776729873581 0.0116327090362752 4.08353311969143e-16)
(-0.205440684559626 0.0117684003825011 1.01498303963134e-17)
(-0.208139916854698 0.0119085484376917 1.87570154041819e-16)
(-0.210870111322224 0.0120633797237298 -2.31738696525059e-16)
(-0.213602094674439 0.0122487922469004 -2.38505428780834e-16)
(-0.216293733749707 0.0124551516709568 -2.84115622298308e-16)
(-0.218932183717333 0.0126644389428027 -1.69344689038165e-16)
(-0.221508652917654 0.0128875319009436 4.401067746988e-16)
(-0.223980672137122 0.0131564523551823 2.54290809446194e-16)
(-0.226234353003652 0.013481115178202 2.30454665424823e-17)
(-0.228209924394114 0.013801594824549 6.57963638466865e-18)
(-0.229891680544189 0.0141235420716462 -1.20921722193001e-16)
(-0.231220191128891 0.0145074002779064 1.90536748286476e-17)
(-0.231930279572433 0.0150635014293131 1.9958713539299e-16)
(-0.231622739657413 0.0157655357309749 5.89960478011815e-16)
(-0.229870897170078 0.0165861350516597 -9.35454964947178e-17)
(-0.226225789904453 0.0177068235591603 -4.27499324709641e-17)
(-0.219383514036809 0.019443825965546 -1.23544063033638e-16)
(-0.207986760660179 0.021307571935494 -4.46800180582455e-16)
(-0.191786013799848 0.0228687916705633 6.84244601149048e-17)
(-0.170706534326778 0.0243100883710367 1.49169812071492e-16)
(-0.143833884580429 0.0258438951390716 9.1395890417458e-17)
(-0.110462926565715 0.0269476156559648 2.52738180052203e-16)
(-0.0712748288373243 0.0272496330543592 3.69378272139185e-16)
(-0.027020679924362 0.0271013779557408 -2.5466993861472e-16)
(0.0225145732078727 0.0266886107610462 1.75736622308122e-17)
(0.0769960658364075 0.0255670342952697 6.79110463342417e-16)
(0.13502382106976 0.0236726964329012 2.04037643367708e-16)
(0.195581563631186 0.0213490639022445 -5.03772462388571e-16)
(0.258239910092655 0.0186694388729587 -2.8149579062582e-16)
(0.322104420631416 0.0155347911036634 4.16727416161453e-17)
(0.386338596962803 0.0121724845801271 -2.3750439338166e-16)
(0.450520218081011 0.00869668943711461 -6.48151705226458e-17)
(0.514280616805756 0.00509578027028584 -3.29336470221475e-16)
(0.576995837012118 0.00162154793735464 3.32939384548146e-16)
(0.639451779384322 -0.00170199377108587 -7.61341331092275e-17)
(0.70081220032036 -0.00484443372723483 -3.97679844597683e-16)
(0.762655173702813 -0.00781928193080309 1.64745562315423e-16)
(0.822690073252798 -0.010362297083291 1.84839249362276e-17)
(0.886629013513793 -0.0128292187612321 3.37891571517754e-17)
(0.946659274429036 -0.0146671146543473 6.56467846163495e-17)
(1.01802704476374 -0.0166517658231187 -8.10974128208691e-17)
(1.07778859009499 -0.0175785309493799 2.78268861381818e-16)
(1.16688331011649 -0.0172795088870199 2.04732985807599e-16)
(1.19879316098811 -0.00133046286950239 1.05144328014742e-16)
(1.18192538721484 -0.00104714893826406 5.05837701916339e-17)
(1.192585281381 -0.000219120131381976 1.44692478136892e-16)
(1.18603127318738 0.000130376104177995 -2.80391330285875e-16)
(1.18938938996929 0.000525380908961787 -4.30794600712073e-18)
(1.1866879971233 0.000663739647664686 1.08198864224229e-16)
(1.18738674203776 0.000823917994418398 1.29577645405987e-16)
(1.18599114033105 0.000895004517730282 -4.83441767287838e-18)
(1.18579123942348 0.000937183800520644 -2.95574081113939e-17)
(1.18481650696724 0.000939253290647479 -3.5098307486192e-17)
(1.18435473972303 0.000920403196202106 2.14577420103791e-17)
(1.18352993506068 0.000879229888277896 1.07011866137878e-17)
(1.18320049732015 0.000814947671628343 -1.45361473833676e-17)
(1.18268366810926 0.000549614715527473 1.12029973550438e-18)
(-0.269211451170583 0.00950648788904535 -7.25661581799153e-18)
(-0.267994524374072 0.01007552005996 -1.05218282077088e-17)
(-0.268723443734468 0.0116433127655947 -1.77902961531388e-17)
(-0.269606351258094 0.01246105444602 -2.23111854544343e-17)
(-0.270714021125485 0.012851067982906 6.1790587902686e-18)
(-0.271876932021932 0.0130172393150874 9.66964978675282e-20)
(-0.273073824093402 0.0130951479036834 3.44098209983866e-17)
(-0.27429338788295 0.0131442113530492 6.2737805928068e-18)
(-0.27553470237396 0.0131857811083899 6.72339503489287e-17)
(-0.276798888060932 0.013226035369278 7.31386163937463e-17)
(-0.278087613543772 0.0132666662878988 1.72707625403285e-16)
(-0.279401953381348 0.0133082696423843 1.41276003095256e-16)
(-0.280742571704064 0.013350827033297 8.9625382170338e-17)
(-0.282110887086035 0.013393536376814 -5.3284277502198e-17)
(-0.283508900411689 0.0134365613990776 -1.19072794038873e-16)
(-0.284938077313248 0.0134805384953172 4.52804800748492e-18)
(-0.286399056868424 0.0135259097586819 -1.06985256555437e-16)
(-0.287893041322719 0.0135719321055529 -3.1187993131761e-18)
(-0.289422240062286 0.0136184582775239 5.46745078697218e-17)
(-0.290988531689832 0.0136660239933319 9.18118298003764e-17)
(-0.292593004376164 0.0137152185430319 -4.56219708553977e-18)
(-0.2942369027581 0.0137654842446509 2.86814357667825e-17)
(-0.295922612878967 0.013816528689238 -8.60125093260926e-17)
(-0.297652457281016 0.0138691161803683 -9.10552616460165e-17)
(-0.299427877725326 0.0139240401640132 -1.06797147850402e-16)
(-0.301249584599759 0.0139812817065759 4.97620296216873e-18)
(-0.303119686567485 0.0140396002906698 1.00263090063121e-16)
(-0.305041389503954 0.0140992588456436 1.27613289531611e-16)
(-0.307017242797808 0.0141611955118374 7.5261461130205e-17)
(-0.309047880993382 0.0142266790198293 -5.0887263564007e-17)
(-0.311134587783039 0.014294388889563 -8.56998164264542e-17)
(-0.313280851770195 0.0143639401679519 1.80187001715505e-19)
(-0.315489814444931 0.014436439356399 1.53426474956963e-16)
(-0.317761972239767 0.0145141738447845 2.037753527351e-16)
(-0.320096299464091 0.0145963280815213 1.96404780836499e-16)
(-0.322495524991845 0.0146807130633772 -2.44829522525739e-16)
(-0.324963548693138 0.0147688523028472 -1.05540648976684e-17)
(-0.327500755708812 0.0148646640472584 -2.22285233787597e-17)
(-0.33010009781276 0.0149697280334993 2.07497040365776e-16)
(-0.33276037584343 0.0150776065296684 -4.33665220101746e-17)
(-0.335486513336693 0.0151894417527109 1.39596752887704e-17)
(-0.338278433407881 0.0153120162994503 2.52219839057516e-17)
(-0.341117283051679 0.0154523450142175 3.70323780976674e-16)
(-0.343990469258575 0.0155975451161998 -3.84697550081943e-17)
(-0.346901688042832 0.0157470327441328 1.76535486565851e-16)
(-0.349845898497872 0.015909383186101 -2.70888765617485e-16)
(-0.352794038038082 0.016097573340107 -3.25413936197047e-16)
(-0.35570200037959 0.0163033176656334 -3.16574684213631e-16)
(-0.358555639147318 0.016511448774672 -2.37387357924175e-16)
(-0.36134455772639 0.0167307347028203 3.72099851888839e-16)
(-0.364026252272631 0.0169879208875103 2.6646462866842e-16)
(-0.366480283689672 0.0172899596991607 -1.24934366301748e-17)
(-0.36864296646841 0.0175865949185665 3.13196714071796e-17)
(-0.370496878102808 0.0178814169899824 -8.70494660374271e-17)
(-0.371985031200729 0.0182257179436847 2.405546925375e-17)
(-0.372828502981606 0.018709596780519 1.71618054766307e-16)
(-0.37262051447074 0.0193087696345487 5.58090105264008e-16)
(-0.370940038327294 0.0199953729641284 5.02233470848296e-17)
(-0.367368730500177 0.0209215101654104 6.47202911397788e-17)
(-0.360530296067048 0.0223400904319532 -1.2460762102725e-16)
(-0.34892421559151 0.0238246575022 -4.43247241430394e-16)
(-0.332284455267681 0.0250039557590052 1.98387985931504e-16)
(-0.310556232107411 0.0260315246128439 1.93765097212834e-16)
(-0.282740022910952 0.0270768461009513 1.05289903760411e-16)
(-0.248029010443195 0.0276885359358596 1.62866246485449e-16)
(-0.207189116958029 0.0275562648955992 4.41935559530446e-16)
(-0.161069377439447 0.0269869882499547 -3.13719216240288e-16)
(-0.109383111873715 0.0261345901485772 2.84967369571854e-17)
(-0.0524435618499415 0.0246254721017461 7.45140525951184e-16)
(0.00821051617042607 0.0224199862634636 4.14001250672627e-16)
(0.0714874281327198 0.0198209169121742 -4.25674231297249e-16)
(0.136977228293738 0.0168942253938512 -3.02883809912735e-16)
(0.203715051823468 0.0135679598774998 6.77833761645284e-17)
(0.270780673254456 0.0100450571672113 -3.12799188117981e-16)
(0.337759614406754 0.00642429222024977 8.0843983353239e-17)
(0.404228744148584 0.0027068860394983 -4.28953098427099e-16)
(0.469505822287649 -0.000893127991113698 3.80304154148147e-16)