/*--------------------------------*- C++ -*----------------------------------*\
  =========                 |
  \\      /  F ield         | OpenFOAM: The Open Source CFD Toolbox
   \\    /   O peration     | Website:  https://openfoam.org
    \\  /    A nd           | Version:  8
     \\/     M anipulation  |
\*---------------------------------------------------------------------------*/
FoamFile
{
    version     2.0;
    format      ascii;
    class       volScalarField;
    location    "0.0420000";
    object      p;
}
// * * * * * * * * * * * * * * * * * * * * * * * * * * * * * * * * * * * * * //

dimensions      [0 2 -2 0 0 0 0];

internalField   nonuniform List<scalar> 
600
(
1335169.47535808
4060923.48087452
6882433.11581558
9770822.23829739
12732076.4096291
15771642.530642
18892854.7641372
22098633.1745486
25392179.7123339
28776950.1900841
32256722.6230847
35835285.2843759
39516830.8691554
43305719.457438
47206584.7290301
51224334.0382453
55364161.4773319
59631554.1528048
64032381.6994321
68572760.8148118
73259315.769522
78099099.8413245
83099497.7506974
88268415.1265699
93614360.7340207
99146366.4894918
104873913.375726
110807373.203653
116957789.636635
123337056.461816
129957715.925736
136833402.546744
143978769.545002
151409744.990469
159142924.761291
167196740.041176
175591105.700677
184347424.176457
193488440.615245
203039476.855203
213028093.733461
223483569.402649
234437584.902654
245925471.56091
257986339.060563
270660512.75716
283993043.725184
298033973.637348
312839716.880459
328465499.421394
344976624.076976
362445106.258268
380950922.805339
400570346.906066
421397158.716158
443535226.952492
467090886.340261
492168733.308511
518895985.207362
547416454.290642
577850030.69332
610328181.707263
644974654.970466
681962498.34932
721174846.759488
762528117.341787
805881399.456839
850916271.265144
896942020.308007
943530144.258041
990163631.244765
1035982930.7018
1080261904.65134
1122372534.32488
1161604522.67328
1197204454.41567
1228626104.65229
1255221219.61374
1276341564.7852
1291422615.84419
1299507244.84185
1299564073.08658
1289973826.3078
1269368904.09449
1232177335.6432
1179130272.78483
1089986858.60699
1014636144.57506
934197208.106266
856284438.306977
777174235.291369
698224671.977112
618541898.003461
538342887.714033
457436290.958053
375832284.798791
293498418.216935
210439968.26752
126728212.708604
42396749.0015288
1349201.8933694
4077885.52529421
6906568.76495856
9798441.89488697
12761323.4535566
15801751.8563951
18923422.1742826
22129505.7772023
25423294.6385293
28808298.1444814
32288253.1510993
35867034.9307766
39548793.0928414
43337901.2490906
47238986.7299228
51256966.2710759
55397023.2119745
59664651.4065685
64065700.5724554
68606328.4765145
73293135.1556854
78133147.5365299
83133776.7397729
88302940.2312142
93649121.890738
99181327.2779915
104909111.861897
110842807.831854
116993462.787124
123372907.823198
129993776.894394
136869662.699449
144015227.814334
151446286.537543
159179621.02253
167233570.682764
175628010.078326
184384285.572408
193525334.269732
203076362.17532
213064777.792617
223519947.778284
234473716.82975
245961326.794344
258021383.425361
270694772.460152
284026481.838931
298066587.605556
312870226.051743
328494382.063882
345003616.911345
362469896.102582
380971396.793746
400587495.958366
421410514.89816
443543026.495783
467090838.701756
492161879.795423
518882015.574348
547389640.150166
577810255.35477
610272330.187558
644906665.158208
681846995.112283
721022595.135501
762337395.696466
805642373.516307
850601554.490122
896594018.478334
943150190.221212
989731631.319356
1035525919.03288
1079799078.19207
1121906714.15193
1161140706.94999
1196770080.98433
1228219783.77511
1254853862.94336
1276027391.6111
1291155966.60216
1299287570.94817
1299409119.0991
1289867233.77254
1269321495.24468
1232171266.89412
1179188234.1208
1090232364.503
1014853076.99339
934357088.453318
856442517.357233
777313278.317995
698335226.612319
618639779.440377
538425104.566464
457501402.019493
375881030.573171
293531515.458681
210451565.155634
126719201.992956
42273128.8574601
1350534.04904649
4082134.02084745
6911237.24443002
9803095.36880616
12766283.4806054
15806990.6698736
18928779.6493116
22134871.7606116
25428614.7380244
28813543.1399596
32293387.0548543
35872055.6303582
39553691.543134
43342671.7713692
47243624.2890139
51261459.7533917
55401362.3924354
59668828.2992601
64069697.0645217
68610144.6939315
73296759.0431536
78136550.3642417
83136944.7546431
88305862.9101407
93651769.2474532
99183665.9962813
104911141.837719
110844508.956373
116994804.58192
123373843.735775
129994283.568336
136869712.677603
144014777.759879
151445250.035556
159177988.111316
167231298.814486
175625008.184232
184380455.929824
193520656.369523
203070751.691772
213058060.204082
223511999.180795
234464499.594901
245950700.804891
258008996.535182
270680488.778933
284010217.775419
298048080.173323
312848783.226618
328469943.907799
344975978.603758
362438448.811527
380935041.475968
400546243.169902
421363882.524172
443489593.780931
467029232.910063
492092022.073419
518802883.892431
547298257.365853
577704945.680835
610151639.820989
644766340.264544
681673860.290591
720815045.184526
762094116.445949
805355613.831348
850266623.062542
896224634.423358
942751892.101498
989304272.330238
1035082405.88423
1079353479.8051
1121467096.85359
1160716864.0026
1196375415.03007
1227862104.52218
1254541968.32401
1275769058.91056
1290953031.50255
1299143670.14631
1299335233.22356
1289854975.75314
1269383062.10467
1232300629.07627
1179448730.66308
1090442934.26141
1015077090.86688
934549821.488173
856613054.003976
777461756.362422
698465824.29824
618751198.516155
538519651.133442
457579302.34011
375942539.994712
293576613.361196
210481006.530911
126731312.277725
42294185.822271
1343002.56841843
4066202.39230558
6879941.41282232
9766452.50123365
12728052.6929937
15768011.7429589
18889178.2566958
22094620.6918069
25387665.316366
28771848.833391
32250904.9982557
35828755.9090248
39509545.9007825
43297651.6711908
47197701.8342946
51214600.9676279
55353534.0315989
59619996.0778895
64019821.3926627
68559191.1554418
73244686.7450991
78083309.1312306
83082489.0976607
88250146.1073711
93594732.7416282
99125250.3601259
104851297.333962
110783175.2492
116931910.940117
123309314.770131
129928043.053275
136801684.987698
143944870.937133
151373354.84746
159104017.490418
167155151.938246
175546551.038229
184299553.483722
193437193.902525
202984581.023453
212968986.065016
223419842.09469
234369110.113244
245851862.320736
257906410.587827
270573917.396088
283899462.885406
297932800.071296
312728515.172347
328344403.386683
344844879.952208
362301215.035554
380791009.475048
400395080.198208
421205108.395159
443322248.812894
466852479.302953
491905477.197896
518605690.394721
547088992.33758
577482409.472891
609915409.02985
644513340.187556
681400265.707643
720519734.413874
761778043.595772
805016473.915781
849906847.43885
895851257.28294
942370732.478565
988920049.256987
1034703672.43145
1078989984.25706
1121126162.89198
1160406977.704
1196104609.74439
1227637911.363
1254371332.76666
1275657898.42421
1290906211.63189
1299168238.43633
1299440184.77259
1290044935.74573
1269674381.05204
1232707819.42068
1180003731.6337
1090632752.63015
1015280935.61163
934739889.030203
856779509.237937
777610812.089895
698599066.79362
618867430.05135
538619808.556658
457663816.812461
376011377.273381
293629694.799748
210519414.961481
126756021.023516
42319913.1907274
1305225.75959053
4008819.61162279
6802287.68857025
9682112.82491001
12641632.8835974
15680303.6408783
18800208.5145459
22004303.2993631
25295912.8359357
28678589.6599741
32156078.6877203
35732310.794376
39411430.8934076
43197814.2183954
47096087.9563619
51111152.2931429
55248190.4271225
59512694.700221
63910494.5513349
68447770.704802
73131099.3714148
77967475.2412124
82964327.9444281
88129573.1124053
93471655.2539349
98999571.3623974
104722918.863545
110651990.250291
116797804.663693
123172166.115841
129787724.427803
136658063.431317
143797802.213281
151222680.878646
158949581.157367
166996782.448587
175384058.784448
184132739.517684
193265855.841451
202808495.045445
212787903.872739
223233508.057302
234177263.477971
245654209.893953
257702622.788273
270363667.553176
283682415.094424
297708567.038934
312496663.024256
328104531.632239
344596555.298748
362043927.230234
380524224.608124
400118329.213797
420917849.347722
443023860.04482
466542400.752833
491583223.790856
518270672.484014
546740675.135787
577120435.091138
609539801.608115
644124069.629548
680998453.19864
720107652.874136
761358678.167306
804593317.491247
849485785.66663
895438368.121653
941971574.823355
988541459.007033
1034353079.7245
1078674001.24625
1120851022.85471
1160179424.53333
1195930485.97673
1227522946.41441
1254321470.21088
1275679033.18865
1291005181.53033
1299354657.85308
1299725325.20141
1290443390.3747
1270210202.47811
1233415523.46231
1180886514.34586
1090821941.00459
1015479584.77108
934936129.170651
856952597.101694
777770449.198402
698742278.740596
618995297.030799
538731492.598148
457759535.010847
376090755.438381
293692536.524973
210565927.026911
126787313.618719
42333992.1227105
1237988.0181399
3915352.16310227
6690476.83100529
9565075.85012292
12522909.0843691
15560241.3408991
18678673.9482666
21881146.1739502
25171020.4521548
28551880.4837696
32027486.3465148
35601774.1428735
39278888.1298764
43063201.5434365
46959338.678492
50972196.0203688
55106953.7597543
59369101.0016886
63764462.5335172
68299215.4330375
72979931.5294168
77813601.3432182
82807650.0819515
87969987.9076926
93309053.6684212
98833838.7356132
104553933.221122
110479621.500476
116621916.921544
122992616.556717
129604360.684149
136470724.025912
143606317.897828
151026871.855082
158749255.342457
166791734.322854
175174073.715449
183917589.542915
193045294.282718
202582261.214792
212555728.037708
222995100.293841
233932305.559711
245402371.382017
257443569.49069
270097031.54763
283407787.003361
297425537.893841
312204838.052913
327803446.879328
344285695.088294
361722821.703123
380192446.012793
399775315.271385
420563012.63276
442656779.776657
466162698.182292
491190311.890804
517864060.590026
546320356.267358
576686454.377092
609092306.564321
643664289.944824
680530605.850102
719635366.265762
760885593.529601
804125933.368208
849032303.730982
895003215.373103
941559946.805711
988161805.381859
1034011580.52517
1078375144.03579
1120600477.87827
1159982915.65126
1195792081.22678
1227447404.56445
1254313906.65857
1275744650.33604
1291151922.04149
1299592221.16044
1300066716.6259
1290904171.50886
1270824257.59689
1234209963.64147
1181900729.79637
1090982186.87596
1015676704.40621
935124642.512875
857124075.737482
777928490.736904
698885588.546258
619124047.085315
538844815.315548
457857287.713232
376172492.009941
293757948.732838
210614791.374101
126820919.10703
42354791.1473277
)
;

boundaryField
{
    dieWall
    {
        type            zeroGradient;
    }
    outlet
    {
        type            fixedValue;
        value           uniform 0;
    }
    Wire
    {
        type            zeroGradient;
    }
    inlet
    {
        type            fixedValue;
        value           uniform 0;
    }
    back
    {
        type            wedge;
    }
    front
    {
        type            wedge;
    }
}


// ************************************************************************* //
