/*--------------------------------*- C++ -*----------------------------------*\
| =========                 |                                                 |
| \\      /  F ield         | OpenFOAM: The Open Source CFD Toolbox           |
|  \\    /   O peration     | Version:  4.1                                   |
|   \\  /    A nd           | Web:      www.OpenFOAM.org                      |
|    \\/     M anipulation  |                                                 |
\*---------------------------------------------------------------------------*/
FoamFile
{
    version     2.0;
    format      ascii;
    class       volScalarField;
    location    "0.000230";
    object      epsilon;
}
// * * * * * * * * * * * * * * * * * * * * * * * * * * * * * * * * * * * * * //

dimensions      [0 2 -3 0 0 0 0];

internalField   nonuniform List<scalar> 
3072
(
45.810095
46.329482
46.888728
47.097974
47.35242
47.289
47.223741
47.261261
46.982928
47.111978
46.900413
46.711489
46.306769
45.686034
45.109056
44.143563
43.272563
42.009585
40.561259
38.893957
36.644678
33.717675
28.565523
19.623064
32.524805
32.99752
33.478764
33.711615
33.977852
34.018222
34.083283
34.192309
34.097438
34.268459
34.200154
34.181094
33.975888
33.64555
33.319321
32.747078
32.219457
31.419623
30.500793
29.397102
27.884893
25.875424
22.562517
17.431989
25.617038
25.993177
26.346243
26.550422
26.772181
26.845487
26.957861
27.094809
27.116563
27.292281
27.320001
27.399985
27.332694
27.196961
27.048543
26.7614
26.445815
25.97289
25.406939
24.695307
23.70166
22.280566
20.00584
16.590681
21.826084
22.159852
22.440714
22.642548
22.833995
22.930551
23.071348
23.212452
23.299431
23.463096
23.554297
23.650157
23.663536
23.634118
23.561354
23.432187
23.230136
22.968548
22.591553
22.101174
21.418548
20.357424
18.677553
16.15963
19.526799
19.845564
20.101445
20.319523
20.497678
20.612249
20.769181
20.903088
21.023095
21.158601
21.276596
21.365006
21.432705
21.439372
21.407992
21.34895
21.217244
21.054786
20.788267
20.435467
19.926529
19.122257
17.841071
15.884632
18.209238
18.51921
18.78639
19.013057
19.190922
19.318219
19.480583
19.601286
19.7371
19.848413
19.962474
20.038082
20.110355
20.13287
20.128593
20.078121
19.992666
19.845529
19.635995
19.341046
18.928904
18.291655
17.278437
15.688908
18.112454
18.41016
18.66011
18.860444
19.012891
19.132174
19.263929
19.384725
19.498151
19.625847
19.734453
19.809278
19.863406
19.88217
19.865374
19.80239
19.693151
19.522383
19.27521
18.951687
18.521983
17.927562
17.027152
15.592161
21.77879
22.017295
22.091667
21.996181
21.773288
21.569154
21.4371
21.401939
21.467412
21.596375
21.750934
21.89073
21.946368
21.916012
21.806719
21.622571
21.358551
21.001619
20.542594
19.980783
19.306238
18.492457
17.361034
15.607073
32.527126
32.99856
33.478249
33.709053
33.973474
34.012702
34.076813
34.186961
34.099651
34.290278
34.220822
34.19718
33.990363
33.664087
33.341087
32.768454
32.235996
31.428252
30.504089
29.399647
27.886258
25.873742
22.55944
17.431261
21.220561
21.528427
21.845729
22.039743
22.260792
22.367021
22.50944
22.671607
22.74089
22.954387
23.043213
23.174186
23.200127
23.172222
23.140058
22.980165
22.847121
22.556664
22.195499
21.714025
20.987859
19.953604
18.282684
15.895748
16.835265
16.995192
17.167249
17.299426
17.457707
17.574651
17.726206
17.900021
18.037637
18.25189
18.415806
18.612677
18.755606
18.875792
18.991634
19.051976
19.104539
19.080735
19.006143
18.847578
18.529071
17.966231
16.981952
15.506082
15.119536
15.217022
15.324971
15.432785
15.561691
15.683354
15.837305
16.008833
16.173821
16.378246
16.570387
16.777671
16.964454
17.14196
17.312423
17.463635
17.593688
17.693977
17.743371
17.730365
17.598323
17.24198
16.532086
15.384342
14.31665
14.393835
14.483583
14.590673
14.713985
14.844307
15.004299
15.175327
15.354014
15.550974
15.753572
15.959725
16.167204
16.36287
16.552964
16.735367
16.897747
17.043241
17.145041
17.196545
17.146416
16.898648
16.329655
15.332647
13.987051
14.071634
14.177244
14.302997
14.443169
14.591939
14.766956
14.945115
15.138349
15.335957
15.537793
15.740577
15.942203
16.137947
16.32495
16.500139
16.658322
16.796014
16.899555
16.95675
16.928393
16.728891
16.237689
15.311933
14.51986
14.666207
14.823053
14.984774
15.146415
15.311157
15.491356
15.682542
15.882371
16.083134
16.279969
16.468529
16.647717
16.813538
16.963128
17.084215
17.173145
17.229803
17.246605
17.214472
17.101994
16.838375
16.312515
15.343375
18.098243
18.394887
18.644057
18.843851
18.996359
19.106547
19.234894
19.367435
19.497025
19.631396
19.734708
19.816061
19.872142
19.886619
19.864662
19.796578
19.667312
19.480276
19.232352
18.909561
18.482724
17.893703
17.004402
15.585733
25.6183
25.991372
26.341755
26.542191
26.760142
26.830424
26.940963
27.081188
27.115465
27.322265
27.347693
27.421576
27.351094
27.22195
27.080233
26.793922
26.471237
25.985582
25.411065
24.697404
23.701799
22.278044
20.003697
16.590968
16.835547
16.994033
17.164527
17.294144
17.45047
17.566371
17.718492
17.894691
18.039114
18.266662
18.433373
18.628492
18.771072
18.894574
19.013551
19.074101
19.122782
19.091936
19.011251
18.849222
18.529262
17.966356
16.983883
15.507712
14.034429
14.060613
14.114887
14.180644
14.279708
14.388208
14.531986
14.704015
14.879376
15.100663
15.315692
15.554376
15.782497
16.009753
16.240559
16.451416
16.658142
16.82752
16.963614
17.042914
17.010406
16.78619
16.235664
15.28348
13.206191
13.181884
13.189498
13.2271
13.29935
13.39855
13.533192
13.696188
13.877221
14.089972
14.317025
14.565679
14.821553
15.085581
15.356898
15.626339
15.891116
16.140938
16.36366
16.538224
16.614102
16.49802
16.063946
15.23738
12.944895
12.908434
12.905731
12.939252
13.007691
13.108623
13.244043
13.404973
13.58879
13.797353
14.026888
14.273759
14.53655
14.808233
15.089191
15.372583
15.653429
15.92638
16.176506
16.381692
16.4934
16.416671
16.023371
15.229658
13.018784
13.003567
13.023212
13.078416
13.164987
13.280365
13.42672
13.596012
13.786607
13.996459
14.221229
14.459132
14.708657
14.966933
15.22962
15.490195
15.745372
15.991647
16.21659
16.399941
16.497309
16.419774
16.038903
15.240618
13.978015
14.060753
14.165215
14.291453
14.431484
14.580116
14.753427
14.93835
15.138262
15.342169
15.547874
15.748333
15.950397
16.146758
16.331133
16.497918
16.643392
16.772069
16.873247
16.931096
16.904444
16.709044
16.224837
15.308167
18.196135
18.501891
18.766934
18.992444
19.16897
19.293699
19.454111
19.584669
19.737369
19.862546
19.985024
20.060776
20.133782
20.158488
20.149335
20.079753
19.964266
19.796483
19.577646
19.279908
18.866917
18.237434
17.242141
15.678298
21.826116
22.156176
22.434737
22.63388
22.821274
22.913191
23.050846
23.197484
23.298358
23.495854
23.590018
23.677193
23.688215
23.667211
23.604854
23.479246
23.270254
22.992963
22.603801
22.110285
21.420943
20.356392
18.679023
16.161499
15.119092
15.214628
15.321352
15.427646
15.55481
15.674714
15.82861
16.004279
16.178382
16.400108
16.599402
16.807525
16.997042
17.179655
17.355489
17.507801
17.631993
17.720414
17.758076
17.737284
17.599769
17.242588
16.536506
15.387445
13.206344
13.181171
13.18845
13.226004
13.298481
13.397799
13.532833
13.697651
13.882234
14.100673
14.331854
14.583408
14.841887
15.108594
15.381973
15.651401
15.913205
16.157354
16.373994
16.543258
16.61558
16.499023
16.067282
15.239626
12.715507
12.648578
12.617839
12.625717
12.672493
12.756329
12.87852
13.033673
13.216508
13.431613
13.671756
13.937658
14.221407
14.520586
14.83123
15.146
15.459568
15.764935
16.049935
16.288353
16.428014
16.369507
15.985408
15.213149
12.644266
12.572683
12.537842
12.543262
12.588067
12.671488
12.792812
12.946362
13.128777
13.340905
13.580275
13.844061
14.128771
14.430148
14.744026
15.06255
15.381231
15.695641
15.992234
16.244003
16.397031
16.35024
15.975766
15.211056
12.940847
12.90327
12.900384
12.934538
13.004007
13.104914
13.239099
13.401487
13.588614
13.798519
14.029529
14.276749
14.538782
14.811779
15.092544
15.370053
15.643352
15.910984
16.159907
16.366978
16.48033
16.405435
16.015864
15.227303
14.307447
14.381207
14.469793
14.577709
14.703105
14.83466
14.994003
15.172448
15.361776
15.56543
15.774522
15.982314
16.189991
16.388841
16.577175
16.745004
16.887554
17.01732
17.112742
17.164376
17.1151
16.869762
16.30906
15.326017
19.519218
19.830136
20.081861
20.298697
20.478025
20.594107
20.750712
20.897835
21.035543
21.184197
21.316312
21.408074
21.478835
21.492293
21.456248
21.371224
21.203503
21.009016
20.725212
20.369431
19.859793
19.059652
17.796379
15.871201
19.523596
19.838994
20.093469
20.311662
20.486602
20.595981
20.748438
20.887473
21.019302
21.184092
21.314325
21.397562
21.464821
21.480495
21.461843
21.40803
21.269316
21.092101
20.810535
20.450818
19.932347
19.124126
17.8442
15.887182
14.313196
14.388768
14.478216
14.586051
14.708455
14.836497
14.995363
15.1709
15.358584
15.572448
15.787849
15.999697
16.213057
16.415258
16.611169
16.794565
16.950477
17.082293
17.169315
17.208074
17.148903
16.899982
16.335406
15.336303
12.942792
12.905721
12.903174
12.937741
13.006998
13.107823
13.24353
13.407149
13.595975
13.812552
14.050911
14.305576
14.575613
14.852038
15.135027
15.417783
15.693872
15.957432
16.196449
16.391238
16.496019
16.418482
16.029413
15.233383
12.643255
12.571437
12.536804
12.54292
12.588505
12.672464
12.794506
12.949286
13.13392
13.349217
13.59318
13.862742
14.152616
14.456589
14.770868
15.088687
15.405058
15.714817
16.005455
16.251305
16.40007
16.352335
15.979743
15.213566
12.713225
12.645488
12.614565
12.622968
12.669966
12.753305
12.873984
13.028541
13.211451
13.425135
13.665343
13.932772
14.218555
14.518907
14.829149
15.139906
15.449171
15.752593
16.038121
16.278647
16.419936
16.362164
15.979839
15.211245
13.20057
13.174134
13.181531
13.220812
13.294987
13.394693
13.527867
13.692526
13.876271
14.089919
14.319785
14.571535
14.830459
15.097296
15.368417
15.629235
15.883277
16.126392
16.347398
16.523259
16.600302
16.48421
16.052176
15.232752
15.111481
15.203127
15.309555
15.419667
15.552841
15.678036
15.83344
16.013594
16.190082
16.402379
16.604979
16.819808
17.012078
17.196487
17.366095
17.501317
17.609097
17.691028
17.729726
17.712724
17.578261
17.219439
16.51128
15.376151
21.823842
22.145178
22.420086
22.62133
22.816004
22.916591
23.059855
23.215227
23.320529
23.497467
23.607081
23.714012
23.733519
23.718434
23.642838
23.486221
23.247804
22.951938
22.55188
22.054022
21.367629
20.306318
18.635018
16.145755
18.201458
18.509399
18.77585
19.003054
19.17722
19.297191
19.454273
19.576333
19.719685
19.849264
19.983564
20.067146
20.14706
20.178863
20.186962
20.144452
20.054823
19.902252
19.677505
19.367935
18.943218
18.297996
17.284227
15.692105
13.981062
14.06406
14.169853
14.296582
14.435737
14.581493
14.755328
14.936597
15.136192
15.347402
15.564323
15.779748
15.992146
16.196092
16.387483
16.564935
16.720279
16.846415
16.933822
16.975785
16.935962
16.733111
16.245437
15.315923
13.015817
13.000531
13.02058
13.076699
13.164067
13.279669
13.426279
13.597852
13.791938
14.0086
14.243645
14.493545
14.754704
15.019203
15.283418
15.543488
15.795119
16.03259
16.245136
16.415954
16.504031
16.424038
16.046665
15.244405
12.938933
12.901414
12.899095
12.934174
13.004722
13.10665
13.241862
13.40509
13.594152
13.807974
14.044791
14.301948
14.574162
14.851966
15.132604
15.409719
15.681667
15.944959
16.185796
16.383531
16.489581
16.411567
16.02299
15.230867
13.198904
13.172298
13.179771
13.219203
13.294047
13.39499
13.528954
13.694001
13.878828
14.094205
14.326233
14.583077
14.846896
15.116315
15.387078
15.648457
15.903252
16.145666
16.363942
16.535308
16.608178
16.489747
16.05712
15.235171
14.024434
14.047318
14.101949
14.171623
14.275794
14.388539
14.532798
14.709219
14.890109
15.110143
15.331194
15.579505
15.81607
16.047509
16.277866
16.476776
16.671944
16.83434
16.968097
17.045273
17.009779
16.779089
16.223191
15.276661
16.825407
16.97705
17.147911
17.285017
17.451738
17.577737
17.735128
17.922488
18.076276
18.297893
18.478299
18.693379
18.849891
18.978596
19.096756
19.140949
19.172423
19.130541
19.043114
18.873302
18.545721
17.96869
16.970632
15.497881
25.617155
25.977599
26.324274
26.529689
26.757613
26.839648
26.958559
27.113083
27.153893
27.340715
27.394562
27.492923
27.442133
27.320134
27.172798
26.860834
26.514387
26.011841
25.422109
24.696067
23.695341
22.262375
19.978087
16.578463
18.104573
18.40425
18.651675
18.850119
18.998861
19.109225
19.235404
19.355911
19.471666
19.599516
19.716133
19.808245
19.885226
19.923368
19.925631
19.88143
19.773126
19.594867
19.338296
18.998546
18.549948
17.942449
17.03718
15.596154
14.516882
14.662341
14.818963
14.980925
15.141772
15.30556
15.486047
15.676001
15.876358
16.082587
16.289707
16.492475
16.689117
16.869363
17.023839
17.149192
17.240385
17.292464
17.297496
17.249588
17.12139
16.848802
16.321545
15.347303
13.978113
14.061519
14.166851
14.293338
14.43473
14.584858
14.759217
14.942744
15.142122
15.34673
15.559652
15.773458
15.990725
16.196565
16.383176
16.551509
16.69944
16.824365
16.917493
16.962626
16.923118
16.719469
16.233533
15.311714
14.304442
14.379045
14.468602
14.577235
14.704195
14.83781
14.998258
15.17585
15.36545
15.570712
15.78335
16.002213
16.222696
16.428117
16.616831
16.78721
16.934839
17.067281
17.158395
17.197985
17.137798
16.884009
16.319489
15.330252
15.106454
15.198851
15.305658
15.415625
15.550006
15.677902
15.834719
16.015407
16.193666
16.407139
16.610656
16.831558
17.030619
17.218928
17.38837
17.527561
17.641972
17.72909
17.767599
17.743071
17.599771
17.233076
16.520377
15.379917
16.822188
16.974385
17.145185
17.281528
17.448848
17.577232
17.736183
17.925082
18.08058
18.303034
18.483294
18.698405
18.856428
18.985548
19.104902
19.151353
19.187933
19.150929
19.065428
18.892398
18.559067
17.976802
16.975005
15.499717
21.212277
21.506758
21.822752
22.024342
22.2595
22.383713
22.540898
22.72719
22.820339
23.034979
23.149597
23.311879
23.360397
23.347235
23.320009
23.145248
22.998293
22.69388
22.320134
21.818248
21.070542
20.002807
18.292007
15.890359
32.531596
32.983323
33.458207
33.693288
33.968355
34.022387
34.099899
34.232639
34.160962
34.324762
34.280823
34.29313
34.109387
33.797089
33.47725
32.889444
32.342035
31.523074
30.592299
29.473594
27.94965
25.911367
22.561791
17.424514
21.775642
22.012501
22.088761
21.990973
21.767202
21.555117
21.422536
21.378348
21.437687
21.55788
21.706912
21.847399
21.923687
21.925996
21.858647
21.702785
21.452228
21.098738
20.633485
20.054488
19.354765
18.518721
17.374531
15.611389
18.101263
18.395605
18.646213
18.848574
18.999985
19.110881
19.242626
19.370494
19.490075
19.620079
19.726497
19.817921
19.896154
19.928648
19.918587
19.852594
19.738137
19.563184
19.309232
18.970618
18.521732
17.914371
17.015307
15.589787
18.197614
18.50339
18.76829
18.994213
19.17346
19.301979
19.464363
19.591577
19.739984
19.859173
19.983933
20.072786
20.162402
20.196903
20.190772
20.126626
20.024638
19.866418
19.644451
19.335934
18.906238
18.259503
17.253274
15.682198
19.514807
19.826818
20.079104
20.296136
20.478178
20.598407
20.756706
20.902327
21.04028
21.186666
21.316184
21.417428
21.500218
21.518413
21.483343
21.406041
21.256105
21.077173
20.796424
20.426445
19.901109
19.08361
17.808358
15.875106
21.815283
22.13814
22.413537
22.614995
22.812031
22.917265
23.063554
23.220407
23.329055
23.504564
23.609685
23.719519
23.74558
23.731111
23.654028
23.507907
23.28705
23.008845
22.615865
22.106317
21.405545
20.326283
18.643157
16.148189
25.610016
25.971091
26.317848
26.523286
26.752635
26.839283
26.962181
27.120603
27.166624
27.352568
27.399648
27.497836
27.446896
27.324725
27.17659
26.871944
26.539424
26.051905
25.471523
24.739227
23.724353
22.276229
19.981123
16.579294
32.529381
32.980616
33.45535
33.690308
33.965941
34.022549
34.103102
34.23871
34.170378
34.334695
34.288605
34.297192
34.111854
33.796779
33.478108
32.893405
32.354086
31.5434
30.618855
29.497702
27.96493
25.918019
22.561568
17.42417
45.829142
46.321903
46.871662
47.078885
47.33749
47.28328
47.22478
47.280664
47.006977
47.093541
46.888596
46.71828
46.320576
45.703701
45.123499
44.143976
43.258463
41.990455
40.550554
38.882196
36.631946
33.696085
28.529256
19.609014
36.301917
55.934358
64.445672
68.112437
70.724959
72.515792
73.991513
75.157594
75.811001
76.518024
76.709102
76.951085
76.902814
76.601665
76.306307
75.65128
75.444424
74.932802
74.550202
74.217757
73.656583
73.240451
72.554996
72.027956
28.969
44.406354
51.706226
55.043952
57.32694
58.856764
60.080626
61.028633
61.540411
62.090675
62.217123
62.366456
62.28565
61.992128
61.716656
61.154046
60.959929
60.526975
60.209788
59.952881
59.496015
59.152719
58.57704
58.092709
25.005979
36.752554
42.792428
45.779643
47.738838
49.094225
50.159643
51.000931
51.523781
51.971784
52.112719
52.227982
52.180144
51.923836
51.703237
51.254784
51.066856
50.711965
50.436441
50.226428
49.837788
49.530025
49.039303
48.553206
22.341807
31.187598
36.090981
38.756251
40.471903
41.762664
42.78834
43.556483
44.146856
44.550718
44.778434
44.891103
44.908922
44.74915
44.572453
44.254131
44.087013
43.82279
43.580017
43.412917
43.10008
42.787192
42.35481
41.826763
20.446417
26.884083
30.75581
33.098799
34.721723
35.978248
37.047145
37.826725
38.49366
38.946504
39.274388
39.496106
39.53947
39.535405
39.418041
39.27589
39.152065
39.0148
38.811329
38.701538
38.464404
38.132898
37.729242
37.174526
19.307464
23.743007
26.712047
28.779106
30.352999
31.637236
32.73571
33.578745
34.299355
34.822267
35.267268
35.529583
35.744057
35.846866
35.911107
35.916627
35.918873
35.907138
35.817394
35.787032
35.651459
35.368806
34.966273
34.433167
19.929816
23.215141
25.497848
27.304667
28.817802
30.081866
31.111198
31.903395
32.48653
32.940666
33.299832
33.556119
33.800704
33.998264
34.15948
34.305552
34.45519
34.662154
34.878671
35.058842
35.157497
35.08304
34.842332
34.426486
24.371201
27.917672
29.814693
31.406283
32.858087
34.126585
35.182675
36.001542
36.595242
37.005524
37.298814
37.454909
37.466938
37.346195
37.147014
36.919302
36.873894
37.39953
38.191552
39.000798
39.723374
40.179713
40.35234
40.243546
236.42671
189.60838
175.36411
167.65598
162.30432
157.893
153.90021
150.15441
146.6145
143.25196
140.08664
137.1164
134.36687
131.84906
129.57772
127.57347
125.85359
124.45717
123.40138
122.69777
122.37073
122.45807
122.99504
124.05119
204.64888
169.29633
157.73535
151.11544
146.36218
142.379
138.75345
135.34653
132.12544
129.06681
126.19546
123.50328
121.01208
118.73088
116.66852
114.84487
113.26338
111.97077
110.98961
110.33355
110.02513
110.09742
110.58491
111.54611
186.30831
157.3697
147.29586
141.26111
136.8296
133.07262
129.63902
126.39952
123.32686
120.40893
117.66472
115.09524
112.71646
110.54242
108.57231
106.82768
105.31306
104.06987
103.12192
102.48524
102.18265
102.24403
102.70384
103.61504
177.7627
151.95261
142.46153
136.64404
132.35015
128.70108
125.36319
122.20797
119.20389
116.34757
113.6464
111.11733
108.76635
106.61724
104.66986
102.93757
101.43354
100.19005
99.234371
98.584137
98.262637
98.299167
98.729351
99.602994
177.58051
152.44718
142.68597
136.70469
132.35346
128.69538
125.36292
122.21861
119.21557
116.35433
113.63815
111.08509
108.70539
106.51686
104.52795
102.74429
101.19542
99.901178
98.895635
98.195012
97.825087
97.816071
98.207858
99.050547
185.69221
158.91297
147.99171
141.43079
136.81215
133.01902
129.60041
126.38713
123.3206
120.39274
117.60334
114.97607
112.51359
110.23683
108.14667
106.25941
104.6077
103.20916
102.10445
101.31267
100.85924
100.77699
101.11242
101.92308
203.57877
172.25136
159.18295
151.59128
146.48514
142.41771
138.80849
135.43357
132.21337
129.12791
126.17897
123.38071
120.73764
118.28353
116.0211
113.96649
112.14275
110.57409
109.29872
108.34687
107.74713
107.52986
107.75897
108.50764
234.57697
194.28607
177.82519
168.62652
162.72239
158.16047
154.17302
150.46579
146.93174
143.5433
140.29701
137.20751
134.2843
131.53637
128.95709
126.55913
124.36012
122.40226
120.77052
119.52103
118.69857
118.32725
118.46296
119.19088
24.38047
27.928942
29.821526
31.408245
32.856932
34.121783
35.173019
35.989523
36.580919
36.994917
37.293678
37.453666
37.467821
37.346536
37.146472
36.924279
36.877935
37.407608
38.202049
39.008526
39.734606
40.187717
40.354917
40.24648
19.931638
23.214864
25.487994
27.287304
28.796281
30.057997
31.087397
31.880752
32.465682
32.928438
33.300144
33.560213
33.805516
34.008042
34.164264
34.311562
34.454963
34.659412
34.875754
35.056087
35.148408
35.072612
34.834353
34.427591
19.304681
23.720351
26.669419
28.725314
30.292095
31.580803
32.683536
33.531522
34.265112
34.803766
35.258598
35.530081
35.75118
35.860344
35.918169
35.916697
35.914367
35.89878
35.80826
35.785765
35.650121
35.367963
34.965776
34.437014
20.434793
26.84976
30.698658
33.028419
34.642021
35.895792
36.973148
37.769745
38.458661
38.929817
39.26865
39.493193
39.539185
39.542954
39.421549
39.273964
39.147127
39.006623
38.80921
38.70125
38.463781
38.132814
37.731088
37.181165
22.336359
31.156247
36.033434
38.677977
40.381078
41.670073
42.708291
43.501508
44.113745
44.541349
44.777484
44.88885
44.90427
44.746387
44.566292
44.248408
44.081343
43.815769
43.579404
43.41387
43.100323
42.787343
42.357614
41.837262
25.003027
36.722495
42.737417
45.702667
47.649906
49.00519
50.083155
50.949482
51.493607
51.966304
52.115706
52.227639
52.175482
51.91168
51.688704
51.249901
51.065872
50.7108
50.441392
50.231382
49.841037
49.531042
49.042216
48.564578
28.969314
44.385621
51.666285
54.984667
57.256232
58.784158
60.015824
60.98258
61.517094
62.084077
62.217813
62.366376
62.285074
61.982712
61.704813
61.165351
60.976488
60.540583
60.226682
59.966277
59.504839
59.157758
58.58173
58.108359
36.301378
55.913769
64.408085
68.057158
70.659362
72.446774
73.922487
75.102784
75.771999
76.49468
76.696555
76.947259
76.90398
76.602662
76.31168
75.699374
75.496266
74.971421
74.583572
74.241867
73.672436
73.251522
72.56551
72.051146
234.58874
194.29611
177.82407
168.61701
162.70784
158.14305
154.15339
150.44478
146.91121
143.52355
140.27606
137.18293
134.25227
131.49525
128.91166
126.51686
124.32614
122.37537
120.74662
119.50062
118.68158
118.31369
118.45295
119.18513
203.57316
172.24503
159.16567
151.5646
146.45164
142.37964
138.76877
135.39505
132.17899
129.09705
126.14634
123.34086
120.68417
118.21255
115.94124
113.89149
112.08161
110.52564
109.25557
108.30867
107.71528
107.50399
107.73899
108.49499
185.6903
158.89519
147.95943
141.38939
136.76479
132.96928
129.55322
126.34677
123.28987
120.36863
117.57786
114.94094
112.46117
110.16399
108.06316
106.17928
104.54005
103.15388
102.05529
101.26865
100.82218
100.74616
101.08745
101.90596
177.55968
152.40688
142.6371
136.65037
132.29752
128.64238
125.31857
122.18721
119.19848
116.34588
113.62821
111.06407
108.66752
106.459
104.45854
102.67448
101.1337
99.848374
98.848459
98.153184
97.789257
97.785286
98.182107
99.032005
177.74683
151.90942
142.40245
136.58045
132.29023
128.6512
125.3296
122.19283
119.20471
116.3553
113.65258
111.1127
108.74818
106.58327
104.62466
102.88737
101.38599
100.14756
99.1954
98.548553
98.230718
98.270703
98.704811
99.584442
186.28647
157.31526
147.22247
141.18743
136.76753
133.02866
129.61681
126.39781
123.34033
120.42756
117.68358
115.10725
112.72156
110.53985
108.55992
106.80519
105.28648
104.04366
103.09554
102.45806
102.15567
102.21902
102.6821
103.59814
204.61701
169.22399
157.64111
151.02467
146.28895
142.32826
138.72719
135.34124
132.13412
129.08328
126.21888
123.53043
121.04265
118.76279
116.69408
114.85673
113.26417
111.96548
110.97846
110.31643
110.0052
110.07941
110.57126
111.53747
236.38193
189.51479
175.245
167.54216
162.21136
157.82403
153.85834
150.13663
146.61304
143.26435
140.11627
137.16295
134.42802
131.92159
129.6519
127.63528
125.8958
124.48092
123.40922
122.69297
122.35979
122.44933
122.99261
124.0551
36.30165
55.915532
64.42041
68.076583
70.680279
72.468316
73.941315
75.118586
75.785028
76.505013
76.703697
76.953411
76.907556
76.605398
76.313676
75.699211
75.493624
74.96647
74.5764
74.233957
73.6655
73.245667
72.560645
72.047526
28.967153
44.385428
51.687118
55.024878
57.304463
58.830893
60.050573
61.00871
61.534097
62.095139
62.227972
62.378461
62.296007
61.994217
61.715561
61.173315
60.979002
60.538035
60.219076
59.955933
59.494906
59.148618
58.573643
58.101807
25.000808
36.723658
42.762956
45.753952
47.715677
49.071299
50.133103
50.979944
51.508748
51.972114
52.123643
52.23818
52.184877
51.923994
51.700498
51.261805
51.071809
50.711513
50.436651
50.222484
49.831586
49.521336
49.033154
48.555315
22.336162
31.163059
36.064308
38.735758
40.457605
41.748846
42.770734
43.537742
44.12886
44.544285
44.78271
44.892621
44.904886
44.746961
44.571029
44.257265
44.087096
43.819102
43.578003
43.407743
43.091524
42.778211
42.348421
41.826086
20.441839
26.867114
30.739037
33.092963
34.725122
35.982828
37.045178
37.817947
38.483539
38.94026
39.276582
39.496012
39.53272
39.532193
39.415856
39.274517
39.147932
39.009148
38.808891
38.69684
38.456349
38.125127
37.723238
37.172084
19.305102
23.738321
26.715445
28.799165
30.385963
31.673932
32.763032
33.596908
34.311725
34.837254
35.281844
35.54149
35.745753
35.843737
35.903304
35.908093
35.910083
35.898738
35.807892
35.781454
35.644181
35.360475
34.960808
34.431456
19.931412
23.229102
25.531058
27.363887
28.898809
30.171701
31.196591
31.977131
32.545356
32.99384
33.33455
33.581606
33.798152
33.990158
34.146012
34.295969
34.443454
34.652126
34.869622
35.050505
35.147227
35.074084
34.838466
34.429074
24.371791
27.937073
29.862929
31.491201
32.976419
34.26145
35.317914
36.129883
36.712637
37.098747
37.315673
37.440728
37.441846
37.32466
37.131462
36.910322
36.863418
37.392925
38.187106
38.998526
39.726205
40.185648
40.355811
40.247122
236.37779
189.51121
175.24727
167.54921
162.21896
157.82647
153.85808
150.13929
146.62029
143.27406
140.12599
137.1721
134.43473
131.92432
129.65273
127.63495
125.89326
124.4762
123.40412
122.69012
122.36045
122.45304
122.99811
124.06135
204.60838
169.21673
157.64692
151.04042
146.30376
142.33431
138.72835
135.34216
132.13879
129.08999
126.22734
123.54213
121.05389
118.76991
116.69902
114.86086
113.26637
111.9653
110.97846
110.3201
110.01398
110.0924
110.58656
111.5536
186.27588
157.30653
147.22874
141.20549
136.78472
133.03822
129.62248
126.40303
123.34761
120.43547
117.69288
115.12323
112.74219
110.55933
108.57745
106.82141
105.30015
104.05567
103.10882
102.47365
102.17369
102.23892
102.70224
103.61685
177.73714
151.90279
142.40818
136.59658
132.3055
128.66013
125.33459
122.1963
119.20681
116.35737
113.65916
111.13079
108.77713
106.61619
104.65767
102.91934
101.41511
100.17579
99.225337
98.577966
98.257789
98.295508
98.726603
99.601855
177.56015
152.40747
142.64105
136.65829
132.3006
128.63627
125.30558
122.16945
119.17666
116.32533
113.61797
111.07114
108.69215
106.49508
104.50068
102.7185
101.17623
99.890811
98.892828
98.194639
97.824192
97.814277
98.205415
99.048736
185.67616
158.8816
147.95241
141.38055
136.74288
132.93047
129.50094
126.28544
123.22398
120.30774
117.53282
114.91667
112.45868
110.18138
108.09673
106.22212
104.58527
103.20064
102.10538
101.31591
100.86127
100.77722
101.1113
101.92242
203.56565
172.22479
159.14324
151.52929
146.39074
142.29047
138.65629
135.26839
132.04994
128.97844
126.0475
123.26336
120.63026
118.18379
115.94023
113.91113
112.10982
110.55967
109.29704
108.35027
107.75137
107.53299
107.76101
108.51042
234.56448
194.25923
177.77836
168.54526
162.59453
157.98597
153.95987
150.22984
146.69471
143.32161
140.09766
137.02556
134.11677
131.38853
128.843
126.48074
124.30769
122.37133
120.75838
119.52056
118.70319
118.33205
118.46635
119.19421
24.382107
27.952234
29.875334
31.502484
32.990129
34.282882
35.34878
36.164586
36.745938
37.127682
37.330702
37.444003
37.441677
37.32921
37.138398
36.916878
36.878054
37.4037
38.195602
39.002487
39.726194
40.181508
40.349503
40.239921
19.93487
23.240762
25.545566
27.381682
28.924462
30.208057
31.245454
32.034608
32.60612
33.04724
33.383086
33.626328
33.820149
34.008103
34.162161
34.304368
34.449763
34.655255
34.870942
35.05227
35.146732
35.070808
34.831591
34.418765
19.313308
23.759378
26.745216
28.834408
30.428625
31.726156
32.829904
33.66652
34.375689
34.887628
35.320389
35.57952
35.784949
35.896819
35.937046
35.917725
35.908186
35.895985
35.808377
35.785697
35.650896
35.369831
34.967357
34.436186
20.443786
26.893119
30.77689
33.133415
34.768594
36.027674
37.096814
37.87494
38.537187
38.982224
39.300597
39.517914
39.567659
39.58182
39.466967
39.28445
39.144682
39.003028
38.806666
38.701138
38.466156
38.135599
37.733533
37.181559
22.341062
31.194818
36.104438
38.776469
40.496128
41.786105
42.811243
43.581536
44.169894
44.570863
44.793761
44.901878
44.9253
44.781145
44.615784
44.256732
44.075069
43.807769
43.572687
43.410501
43.101625
42.791543
42.360996
41.835332
25.005264
36.751397
42.797709
45.789668
47.750265
49.10321
50.170681
51.017124
51.542295
51.990661
52.12998
52.241198
52.194399
51.945809
51.731207
51.247409
51.048707
50.695214
50.427646
50.222389
49.838271
49.53366
49.044745
48.560416
28.968628
44.404475
51.711684
55.053921
57.337492
58.866557
60.095638
61.05311
61.570234
62.119501
62.242121
62.386059
62.305379
62.010379
61.735702
61.146025
60.943849
60.513709
60.203674
59.950394
59.497062
59.156097
58.581821
58.098471
36.298795
55.93134
64.451202
68.124577
70.739593
72.53556
74.019859
75.192584
75.849094
76.555622
76.742729
76.981861
76.93128
76.629407
76.332584
75.661767
75.445329
74.929925
74.548388
74.217617
73.658269
73.243582
72.559316
72.032868
234.58156
194.27705
177.7835
168.53986
162.5829
157.97044
153.93986
150.20313
146.65947
143.27745
140.04772
136.97631
134.0714
131.3456
128.79962
126.43559
124.26304
122.33064
120.72384
119.49533
118.68556
118.31923
118.4565
119.18589
203.57294
172.24024
159.14779
151.52169
146.37586
142.2692
138.62388
135.22038
131.98486
128.89541
125.94963
123.16066
120.53328
118.09266
115.84974
113.81997
112.02354
110.48316
109.23302
108.30227
107.71772
107.50934
107.74359
108.49643
185.69677
158.90707
147.96845
141.38421
136.73621
132.91212
129.46505
126.22749
123.1437
120.20664
117.41472
114.78924
112.33002
110.05471
107.97286