/*--------------------------------*- C++ -*----------------------------------*\
| =========                 |                                                 |
| \\      /  F ield         | foam-extend: Open Source CFD                    |
|  \\    /   O peration     | Version:     4.1-20200408                       |
|   \\  /    A nd           | Web:         http://www.foam-extend.org         |
|    \\/     M anipulation  |                                                 |
\*---------------------------------------------------------------------------*/
FoamFile
{
    version     2.0;
    format      ascii;
    class       volScalarField;
    location    "0.0890000";
    object      sigmaY;
}
// * * * * * * * * * * * * * * * * * * * * * * * * * * * * * * * * * * * * * //

dimensions      [1 -1 -2 0 0 0 0];

internalField   nonuniform List<scalar> 
1952
(
1.2851e+09
1.28515e+09
1.28525e+09
1.28536e+09
1.28549e+09
1.28561e+09
1.28575e+09
1.2858e+09
1.28577e+09
1.28552e+09
1.28507e+09
1.28427e+09
1.28319e+09
1.28238e+09
1.28192e+09
1.28505e+09
1.28512e+09
1.28517e+09
1.28527e+09
1.28538e+09
1.28551e+09
1.28563e+09
1.28577e+09
1.28583e+09
1.2858e+09
1.28555e+09
1.28509e+09
1.28429e+09
1.28321e+09
1.2824e+09
1.28194e+09
1.28507e+09
1.28514e+09
1.28519e+09
1.28529e+09
1.2854e+09
1.28554e+09
1.28565e+09
1.28579e+09
1.28585e+09
1.28582e+09
1.28557e+09
1.28512e+09
1.28431e+09
1.28323e+09
1.28242e+09
1.28196e+09
1.28509e+09
1.28516e+09
1.28521e+09
1.28532e+09
1.28542e+09
1.28556e+09
1.28567e+09
1.28581e+09
1.28587e+09
1.28584e+09
1.28559e+09
1.28514e+09
1.28434e+09
1.28325e+09
1.28245e+09
1.28198e+09
1.28512e+09
1.28519e+09
1.28523e+09
1.28534e+09
1.28545e+09
1.28558e+09
1.2857e+09
1.28583e+09
1.28589e+09
1.28586e+09
1.28561e+09
1.28516e+09
1.28436e+09
1.28328e+09
1.28247e+09
1.28201e+09
1.28514e+09
1.28521e+09
1.28526e+09
1.28536e+09
1.28547e+09
1.2856e+09
1.28572e+09
1.28586e+09
1.28592e+09
1.28588e+09
1.28563e+09
1.28518e+09
1.28438e+09
1.2833e+09
1.28249e+09
1.28203e+09
1.28516e+09
1.28523e+09
1.28528e+09
1.28538e+09
1.28549e+09
1.28562e+09
1.28574e+09
1.28588e+09
1.28594e+09
1.28591e+09
1.28566e+09
1.2852e+09
1.2844e+09
1.28332e+09
1.28251e+09
1.28205e+09
1.28518e+09
1.28525e+09
1.2853e+09
1.2854e+09
1.28551e+09
1.28564e+09
1.28576e+09
1.2859e+09
1.28596e+09
1.28593e+09
1.28568e+09
1.28523e+09
1.28442e+09
1.28334e+09
1.28253e+09
1.28207e+09
1.2852e+09
1.28527e+09
1.28532e+09
1.28542e+09
1.28553e+09
1.28567e+09
1.28578e+09
1.28592e+09
1.28598e+09
1.28595e+09
1.2857e+09
1.28525e+09
1.28445e+09
1.28336e+09
1.28255e+09
1.28209e+09
1.28523e+09
1.28529e+09
1.28534e+09
1.28545e+09
1.28556e+09
1.28569e+09
1.28581e+09
1.28595e+09
1.286e+09
1.28597e+09
1.28572e+09
1.28527e+09
1.28447e+09
1.28338e+09
1.28258e+09
1.28211e+09
1.28525e+09
1.28532e+09
1.28536e+09
1.28547e+09
1.28558e+09
1.28571e+09
1.28583e+09
1.28597e+09
1.28603e+09
1.28599e+09
1.28575e+09
1.28529e+09
1.28449e+09
1.28341e+09
1.2826e+09
1.28214e+09
1.28527e+09
1.28534e+09
1.28539e+09
1.28549e+09
1.2856e+09
1.28573e+09
1.28585e+09
1.28599e+09
1.28605e+09
1.28601e+09
1.28577e+09
1.28531e+09
1.28451e+09
1.28343e+09
1.28262e+09
1.28216e+09
1.28529e+09
1.28536e+09
1.28541e+09
1.28551e+09
1.28562e+09
1.28575e+09
1.28587e+09
1.28601e+09
1.28607e+09
1.28604e+09
1.28579e+09
1.28534e+09
1.28453e+09
1.28345e+09
1.28264e+09
1.28218e+09
1.28531e+09
1.28538e+09
1.28543e+09
1.28553e+09
1.28564e+09
1.28577e+09
1.28589e+09
1.28603e+09
1.28609e+09
1.28606e+09
1.28581e+09
1.28536e+09
1.28455e+09
1.28347e+09
1.28266e+09
1.2822e+09
1.28533e+09
1.2854e+09
1.28545e+09
1.28555e+09
1.28566e+09
1.28579e+09
1.28591e+09
1.28605e+09
1.28611e+09
1.28608e+09
1.28583e+09
1.28538e+09
1.28457e+09
1.28349e+09
1.28268e+09
1.28222e+09
1.28535e+09
1.28542e+09
1.28547e+09
1.28557e+09
1.28568e+09
1.28582e+09
1.28594e+09
1.28608e+09
1.28614e+09
1.2861e+09
1.28585e+09
1.2854e+09
1.2846e+09
1.28351e+09
1.28271e+09
1.28224e+09
1.28538e+09
1.28544e+09
1.28549e+09
1.2856e+09
1.28571e+09
1.28584e+09
1.28596e+09
1.2861e+09
1.28616e+09
1.28612e+09
1.28588e+09
1.28542e+09
1.28462e+09
1.28353e+09
1.28273e+09
1.28227e+09
1.2854e+09
1.28546e+09
1.28551e+09
1.28562e+09
1.28573e+09
1.28586e+09
1.28598e+09
1.28612e+09
1.28618e+09
1.28614e+09
1.2859e+09
1.28545e+09
1.28464e+09
1.28356e+09
1.28275e+09
1.28229e+09
1.28542e+09
1.28549e+09
1.28553e+09
1.28564e+09
1.28575e+09
1.28588e+09
1.286e+09
1.28614e+09
1.2862e+09
1.28617e+09
1.28592e+09
1.28547e+09
1.28466e+09
1.28358e+09
1.28277e+09
1.28231e+09
1.28544e+09
1.28551e+09
1.28556e+09
1.28566e+09
1.28577e+09
1.2859e+09
1.28602e+09
1.28616e+09
1.28622e+09
1.28619e+09
1.28594e+09
1.28549e+09
1.28468e+09
1.2836e+09
1.28279e+09
1.28233e+09
1.28546e+09
1.28553e+09
1.28558e+09
1.28568e+09
1.28579e+09
1.28592e+09
1.28604e+09
1.28619e+09
1.28625e+09
1.28621e+09
1.28597e+09
1.28551e+09
1.2847e+09
1.28362e+09
1.28282e+09
1.28235e+09
1.28548e+09
1.28555e+09
1.2856e+09
1.2857e+09
1.28581e+09
1.28594e+09
1.28607e+09
1.28621e+09
1.28627e+09
1.28623e+09
1.28599e+09
1.28553e+09
1.28473e+09
1.28364e+09
1.28284e+09
1.28238e+09
1.2855e+09
1.28557e+09
1.28562e+09
1.28573e+09
1.28583e+09
1.28597e+09
1.28609e+09
1.28623e+09
1.28629e+09
1.28625e+09
1.28601e+09
1.28556e+09
1.28475e+09
1.28366e+09
1.28286e+09
1.2824e+09
1.28553e+09
1.28559e+09
1.28564e+09
1.28575e+09
1.28586e+09
1.28599e+09
1.28611e+09
1.28625e+09
1.28631e+09
1.28628e+09
1.28603e+09
1.28558e+09
1.28477e+09
1.28369e+09
1.28288e+09
1.28242e+09
1.28555e+09
1.28562e+09
1.28567e+09
1.28577e+09
1.28588e+09
1.28601e+09
1.28613e+09
1.28627e+09
1.28633e+09
1.2863e+09
1.28605e+09
1.2856e+09
1.28479e+09
1.28371e+09
1.2829e+09
1.28244e+09
1.28557e+09
1.28564e+09
1.28569e+09
1.28579e+09
1.2859e+09
1.28603e+09
1.28616e+09
1.2863e+09
1.28636e+09
1.28632e+09
1.28608e+09
1.28562e+09
1.28481e+09
1.28373e+09
1.28293e+09
1.28246e+09
1.28559e+09
1.28566e+09
1.28571e+09
1.28581e+09
1.28592e+09
1.28605e+09
1.28618e+09
1.28632e+09
1.28638e+09
1.28634e+09
1.2861e+09
1.28565e+09
1.28483e+09
1.28375e+09
1.28295e+09
1.28249e+09
1.28561e+09
1.28568e+09
1.28573e+09
1.28583e+09
1.28594e+09
1.28608e+09
1.2862e+09
1.28634e+09
1.2864e+09
1.28637e+09
1.28612e+09
1.28567e+09
1.28486e+09
1.28377e+09
1.28297e+09
1.28251e+09
1.28563e+09
1.2857e+09
1.28575e+09
1.28586e+09
1.28597e+09
1.2861e+09
1.28622e+09
1.28636e+09
1.28642e+09
1.28639e+09
1.28614e+09
1.28569e+09
1.28488e+09
1.2838e+09
1.28299e+09
1.28253e+09
1.28566e+09
1.28573e+09
1.28578e+09
1.28588e+09
1.28599e+09
1.28612e+09
1.28624e+09
1.28639e+09
1.28645e+09
1.28641e+09
1.28617e+09
1.28571e+09
1.2849e+09
1.28382e+09
1.28301e+09
1.28255e+09
1.28568e+09
1.28575e+09
1.2858e+09
1.2859e+09
1.28601e+09
1.28614e+09
1.28627e+09
1.28641e+09
1.28647e+09
1.28643e+09
1.28619e+09
1.28573e+09
1.28492e+09
1.28384e+09
1.28303e+09
1.28257e+09
1.2857e+09
1.28577e+09
1.28582e+09
1.28592e+09
1.28603e+09
1.28616e+09
1.28629e+09
1.28643e+09
1.28649e+09
1.28645e+09
1.28621e+09
1.28576e+09
1.28494e+09
1.28386e+09
1.28306e+09
1.28259e+09
1.28572e+09
1.28579e+09
1.28584e+09
1.28594e+09
1.28605e+09
1.28618e+09
1.28631e+09
1.28645e+09
1.28651e+09
1.28647e+09
1.28623e+09
1.28578e+09
1.28496e+09
1.28388e+09
1.28308e+09
1.28261e+09
1.28574e+09
1.28581e+09
1.28586e+09
1.28596e+09
1.28607e+09
1.2862e+09
1.28633e+09
1.28647e+09
1.28653e+09
1.28649e+09
1.28625e+09
1.2858e+09
1.28498e+09
1.2839e+09
1.2831e+09
1.28264e+09
1.28576e+09
1.28583e+09
1.28588e+09
1.28599e+09
1.2861e+09
1.28623e+09
1.28635e+09
1.28649e+09
1.28655e+09
1.28652e+09
1.28627e+09
1.28582e+09
1.285e+09
1.28392e+09
1.28312e+09
1.28266e+09
1.28579e+09
1.28585e+09
1.2859e+09
1.28601e+09
1.28612e+09
1.28625e+09
1.28637e+09
1.28651e+09
1.28657e+09
1.28654e+09
1.2863e+09
1.28584e+09
1.28503e+09
1.28394e+09
1.28314e+09
1.28268e+09
1.28581e+09
1.28587e+09
1.28592e+09
1.28603e+09
1.28614e+09
1.28627e+09
1.28639e+09
1.28654e+09
1.2866e+09
1.28656e+09
1.28632e+09
1.28586e+09
1.28505e+09
1.28396e+09
1.28316e+09
1.2827e+09
1.28583e+09
1.28589e+09
1.28594e+09
1.28605e+09
1.28616e+09
1.28629e+09
1.28641e+09
1.28656e+09
1.28662e+09
1.28658e+09
1.28634e+09
1.28588e+09
1.28507e+09
1.28398e+09
1.28318e+09
1.28272e+09
1.28585e+09
1.28591e+09
1.28596e+09
1.28607e+09
1.28618e+09
1.28631e+09
1.28644e+09
1.28658e+09
1.28664e+09
1.2866e+09
1.28636e+09
1.2859e+09
1.28509e+09
1.284e+09
1.2832e+09
1.28274e+09
1.28587e+09
1.28594e+09
1.28598e+09
1.28609e+09
1.2862e+09
1.28633e+09
1.28646e+09
1.2866e+09
1.28666e+09
1.28662e+09
1.28638e+09
1.28593e+09
1.28511e+09
1.28403e+09
1.28323e+09
1.28276e+09
1.28589e+09
1.28596e+09
1.286e+09
1.28611e+09
1.28622e+09
1.28635e+09
1.28648e+09
1.28662e+09
1.28668e+09
1.28664e+09
1.2864e+09
1.28595e+09
1.28513e+09
1.28405e+09
1.28325e+09
1.28279e+09
1.28591e+09
1.28598e+09
1.28603e+09
1.28613e+09
1.28624e+09
1.28637e+09
1.2865e+09
1.28664e+09
1.2867e+09
1.28666e+09
1.28642e+09
1.28597e+09
1.28515e+09
1.28407e+09
1.28327e+09
1.28281e+09
1.28593e+09
1.286e+09
1.28605e+09
1.28615e+09
1.28626e+09
1.28639e+09
1.28652e+09
1.28666e+09
1.28672e+09
1.28668e+09
1.28644e+09
1.28599e+09
1.28517e+09
1.28409e+09
1.28329e+09
1.28283e+09
1.28595e+09
1.28602e+09
1.28607e+09
1.28617e+09
1.28628e+09
1.28641e+09
1.28654e+09
1.28668e+09
1.28674e+09
1.28671e+09
1.28647e+09
1.28601e+09
1.28519e+09
1.28411e+09
1.28331e+09
1.28285e+09
1.28597e+09
1.28604e+09
1.28609e+09
1.28619e+09
1.2863e+09
1.28643e+09
1.28656e+09
1.28671e+09
1.28677e+09
1.28673e+09
1.28649e+09
1.28603e+09
1.28521e+09
1.28413e+09
1.28333e+09
1.28287e+09
1.28599e+09
1.28606e+09
1.28611e+09
1.28621e+09
1.28632e+09
1.28645e+09
1.28658e+09
1.28673e+09
1.28679e+09
1.28675e+09
1.28651e+09
1.28605e+09
1.28524e+09
1.28415e+09
1.28336e+09
1.28289e+09
1.28601e+09
1.28608e+09
1.28613e+09
1.28624e+09
1.28635e+09
1.28648e+09
1.28661e+09
1.28675e+09
1.28681e+09
1.28677e+09
1.28653e+09
1.28608e+09
1.28526e+09
1.28417e+09
1.28338e+09
1.28291e+09
1.28603e+09
1.2861e+09
1.28615e+09
1.28626e+09
1.28637e+09
1.2865e+09
1.28663e+09
1.28677e+09
1.28683e+09
1.28679e+09
1.28655e+09
1.2861e+09
1.28528e+09
1.2842e+09
1.2834e+09
1.28293e+09
1.28606e+09
1.28613e+09
1.28618e+09
1.28628e+09
1.28639e+09
1.28652e+09
1.28665e+09
1.28679e+09
1.28685e+09
1.28681e+09
1.28657e+09
1.28612e+09
1.2853e+09
1.28422e+09
1.28342e+09
1.28294e+09
1.28608e+09
1.28615e+09
1.2862e+09
1.2863e+09
1.28641e+09
1.28654e+09
1.28667e+09
1.28681e+09
1.28688e+09
1.28683e+09
1.2866e+09
1.28614e+09
1.28532e+09
1.28424e+09
1.28344e+09
1.28288e+09
1.2861e+09
1.28617e+09
1.28622e+09
1.28632e+09
1.28643e+09
1.28656e+09
1.28669e+09
1.28684e+09
1.2869e+09
1.28686e+09
1.28662e+09
1.28616e+09
1.28534e+09
1.28426e+09
1.28342e+09
1.28268e+09
1.28612e+09
1.28619e+09
1.28624e+09
1.28634e+09
1.28645e+09
1.28658e+09
1.28671e+09
1.28686e+09
1.28692e+09
1.28688e+09
1.28664e+09
1.28618e+09
1.28536e+09
1.28428e+09
1.28326e+09
1.28224e+09
1.28614e+09
1.28621e+09
1.28626e+09
1.28636e+09
1.28647e+09
1.2866e+09
1.28674e+09
1.28688e+09
1.28694e+09
1.2869e+09
1.28666e+09
1.28621e+09
1.28538e+09
1.28419e+09
1.28286e+09
1.2815e+09
1.28616e+09
1.28623e+09
1.28628e+09
1.28639e+09
1.2865e+09
1.28662e+09
1.28676e+09
1.2869e+09
1.28696e+09
1.28692e+09
1.28662e+09
1.28607e+09
1.2851e+09
1.28375e+09
1.28214e+09
1.2805e+09
1.28618e+09
1.28625e+09
1.2863e+09
1.28641e+09
1.28652e+09
1.28664e+09
1.28674e+09
1.2868e+09
1.28677e+09
1.28661e+09
1.2862e+09
1.28551e+09
1.28439e+09
1.2829e+09
1.28112e+09
1.27931e+09
1.28621e+09
1.28623e+09
1.28625e+09
1.2863e+09
1.28635e+09
1.28639e+09
1.28638e+09
1.28632e+09
1.28615e+09
1.28585e+09
1.2853e+09
1.28448e+09
1.28325e+09
1.28168e+09
1.27983e+09
1.27795e+09
1.28619e+09
1.28591e+09
1.28587e+09
1.28584e+09
1.28579e+09
1.28571e+09
1.28557e+09
1.28537e+09
1.28507e+09
1.28464e+09
1.28398e+09
1.28307e+09
1.28178e+09
1.28019e+09
1.27834e+09
1.27651e+09
1.28589e+09
1.28509e+09
1.285e+09
1.28489e+09
1.28473e+09
1.28453e+09
1.28427e+09
1.28396e+09
1.28355e+09
1.28302e+09
1.28229e+09
1.28133e+09
1.28004e+09
1.27848e+09
1.27672e+09
1.27501e+09
1.2851e+09
1.28367e+09
1.28353e+09
1.28336e+09
1.28312e+09
1.28284e+09
1.28251e+09
1.28212e+09
1.28164e+09
1.28105e+09
1.2803e+09
1.27933e+09
1.27809e+09
1.27661e+09
1.275e+09
1.27347e+09
1.2837e+09
1.28159e+09
1.28144e+09
1.28124e+09
1.28098e+09
1.28067e+09
1.2803e+09
1.27989e+09
1.2794e+09
1.27881e+09
1.27807e+09
1.27715e+09
1.27598e+09
1.27462e+09
1.27319e+09
1.27188e+09
1.28163e+09
1.27892e+09
1.27879e+09
1.2786e+09
1.27836e+09
1.27807e+09
1.27773e+09
1.27735e+09
1.27689e+09
1.27635e+09
1.27567e+09
1.27481e+09
1.27376e+09
1.27253e+09
1.27132e+09
1.27026e+09
1.27896e+09
1.2758e+09
1.2757e+09
1.27557e+09
1.27538e+09
1.27516e+09
1.27489e+09
1.27457e+09
1.27419e+09
1.27372e+09
1.27312e+09
1.27237e+09
1.27145e+09
1.27038e+09
1.26941e+09
1.26861e+09
1.27583e+09
1.27242e+09
1.27237e+09
1.27229e+09
1.27219e+09
1.27205e+09
1.27187e+09
1.27164e+09
1.27135e+09
1.27098e+09
1.27049e+09
1.26985e+09
1.26908e+09
1.26819e+09
1.26746e+09
1.26695e+09
1.27243e+09
1.26898e+09
1.26897e+09
1.26895e+09
1.26892e+09
1.26887e+09
1.26878e+09
1.26865e+09
1.26846e+09
1.26818e+09
1.26781e+09
1.2673e+09
1.26669e+09
1.26599e+09
1.26551e+09
1.26529e+09
1.26897e+09
1.26566e+09
1.26568e+09
1.26571e+09
1.26573e+09
1.26574e+09
1.26572e+09
1.26568e+09
1.26557e+09
1.2654e+09
1.26513e+09
1.26474e+09
1.2643e+09
1.26379e+09
1.26357e+09
1.26365e+09
1.26565e+09
1.26262e+09
1.26265e+09
1.26269e+09
1.26273e+09
1.26278e+09
1.2628e+09
1.26281e+09
1.26277e+09
1.26267e+09
1.2625e+09
1.26224e+09
1.26194e+09
1.26164e+09
1.26168e+09
1.26204e+09
1.2626e+09
1.25993e+09
1.25995e+09
1.25998e+09
1.26002e+09
1.26006e+09
1.2601e+09
1.26013e+09
1.26012e+09
1.26008e+09
1.25998e+09
1.25982e+09
1.25967e+09
1.25955e+09
1.25985e+09
1.26049e+09
1.25991e+09
1.25763e+09
1.25763e+09
1.25764e+09
1.25765e+09
1.25766e+09
1.25768e+09
1.25769e+09
1.25769e+09
1.25766e+09
1.25761e+09
1.25754e+09
1.25751e+09
1.25758e+09
1.25811e+09
1.25898e+09
1.25762e+09
1.2557e+09
1.25568e+09
1.25565e+09
1.25563e+09
1.2556e+09
1.25557e+09
1.25555e+09
1.25552e+09
1.25549e+09
1.25545e+09
1.25544e+09
1.25551e+09
1.25575e+09
1.25647e+09
1.25754e+09
1.2557e+09
1.2541e+09
1.25406e+09
1.25401e+09
1.25395e+09
1.25388e+09
1.25381e+09
1.25374e+09
1.25366e+09
1.2536e+09
1.25354e+09
1.25356e+09
1.25371e+09
1.25409e+09
1.25496e+09
1.25616e+09
1.2541e+09
1.25276e+09
1.25272e+09
1.25266e+09
1.25258e+09
1.25249e+09
1.25238e+09
1.25226e+09
1.25214e+09
1.25203e+09
1.25195e+09
1.25197e+09
1.25215e+09
1.25262e+09
1.25355e+09
1.25481e+09
1.25277e+09
1.25163e+09
1.2516e+09
1.25154e+09
1.25146e+09
1.25136e+09
1.25123e+09
1.25109e+09
1.25093e+09
1.2508e+09
1.25071e+09
1.25072e+09
1.2509e+09
1.25137e+09
1.25227e+09
1.25349e+09
1.25164e+09
1.25067e+09
1.25064e+09
1.25059e+09
1.25053e+09
1.25045e+09
1.25034e+09
1.25023e+09
1.2501e+09
1.25e+09
1.25e+09
1.25e+09
1.25009e+09
1.25044e+09
1.25115e+09
1.25223e+09
1.25067e+09
1.25e+09
1.25e+09
1.25e+09
1.25e+09
1.25e+09
1.25e+09
1.25e+09
1.25e+09
1.25e+09
1.25e+09
1.25e+09
1.25e+09
1.25e+09
1.25034e+09
1.25116e+09
1.25e+09
1.25e+09
1.25e+09
1.25e+09
1.25e+09
1.25e+09
1.25e+09
1.25e+09
1.25e+09
1.25e+09
1.25e+09
1.25e+09
1.25e+09
1.25e+09
1.25e+09
1.2504e+09
1.25e+09
1.25e+09
1.25e+09
1.25e+09
1.25e+09
1.25e+09
1.25e+09
1.25e+09
1.25e+09
1.25e+09
1.25e+09
1.25e+09
1.25e+09
1.25e+09
1.25e+09
1.25e+09
1.25e+09
1.25e+09
1.25e+09
1.25e+09
1.25e+09
1.25e+09
1.25e+09
1.25e+09
1.25e+09
1.25e+09
1.25e+09
1.25e+09
1.25e+09
1.25e+09
1.25e+09
1.25e+09
1.25e+09
1.25e+09
1.25e+09
1.25e+09
1.25e+09
1.25e+09
1.25e+09
1.25e+09
1.25e+09
1.25e+09
1.25e+09
1.25e+09
1.25e+09
1.25e+09
1.25e+09
1.25e+09
1.25e+09
1.25e+09
1.25e+09
1.25e+09
1.25e+09
1.25e+09
1.25e+09
1.25e+09
1.25e+09
1.25e+09
1.25e+09
1.25e+09
1.25e+09
1.25e+09
1.25e+09
1.25e+09
1.25e+09
1.25e+09
1.25e+09
1.25e+09
1.25e+09
1.25e+09
1.25e+09
1.25e+09
1.25e+09
1.25e+09
1.25e+09
1.25e+09
1.25e+09
1.25e+09
1.25e+09
1.25e+09
1.25e+09
1.25e+09
1.25e+09
1.25e+09
1.25e+09
1.25e+09
1.25e+09
1.25e+09
1.25e+09
1.25e+09
1.25e+09
1.25e+09
1.25e+09
1.25e+09
1.25e+09
1.25e+09
1.25e+09
1.25e+09
1.25e+09
1.25e+09
1.25e+09
1.25e+09
1.25e+09
1.25e+09
1.25e+09
1.25e+09
1.25e+09
1.25e+09
1.25e+09
1.25e+09
1.25e+09
1.25e+09
1.25e+09
1.25e+09
1.25e+09
1.25e+09
1.25e+09
1.25e+09
1.25e+09
1.25e+09
1.25e+09
1.25e+09
1.25e+09
1.25e+09
1.25e+09
1.25e+09
1.25e+09
1.25e+09
1.25e+09
1.25e+09
1.25e+09
1.25e+09
1.25e+09
1.25e+09
1.25e+09
1.25e+09
1.25e+09
1.25e+09
1.25e+09
1.25e+09
1.25e+09
1.25e+09
1.25e+09
1.25e+09
1.25e+09
1.25e+09
1.25e+09
1.25e+09
1.25e+09
1.25e+09
1.25e+09
1.25e+09
1.25e+09
1.25e+09
1.25e+09
1.25e+09
1.25e+09
1.25e+09
1.25e+09
1.25e+09
1.25e+09
1.25e+09
1.25e+09
1.25e+09
1.25e+09
1.25e+09
1.25e+09
1.25e+09
1.25e+09
1.25e+09
1.25e+09
1.25e+09
1.25e+09
1.25e+09
1.25e+09
1.25e+09
1.25e+09
1.25e+09
1.25e+09
1.25e+09
1.25e+09
1.25e+09
1.25e+09
1.25e+09
1.25e+09
1.25e+09
1.25e+09
1.25e+09
1.25e+09
1.25e+09
1.25e+09
1.25e+09
1.25e+09
1.25e+09
1.25e+09
1.25e+09
1.25e+09
1.25e+09
1.25e+09
1.25e+09
1.25e+09
1.25e+09
1.25e+09
1.25e+09
1.25e+09
1.25e+09
1.25e+09
1.25e+09
1.25e+09
1.25e+09
1.25e+09
1.25e+09
1.25e+09
1.25e+09
1.25e+09
1.25e+09
1.25e+09
1.25e+09
1.25e+09
1.25e+09
1.25e+09
1.25e+09
1.25e+09
1.25e+09
1.25e+09
1.25e+09
1.25e+09
1.25e+09
1.25e+09
1.25e+09
1.25e+09
1.25e+09
1.25e+09
1.25e+09
1.25e+09
1.25e+09
1.25e+09
1.25e+09
1.25e+09
1.25e+09
1.25e+09
1.25e+09
1.25e+09
1.25e+09
1.25e+09
1.25e+09
1.25e+09
1.25e+09
1.25e+09
1.25e+09
1.25e+09
1.25e+09
1.25e+09
1.25e+09
1.25e+09
1.25e+09
1.25e+09
1.25e+09
1.25e+09
1.25e+09
1.25e+09
1.25e+09
1.25e+09
1.25e+09
1.25e+09
1.25e+09
1.25e+09
1.25e+09
1.25e+09
1.25e+09
1.25e+09
1.25e+09
1.25e+09
1.25e+09
1.25e+09
1.25e+09
1.25e+09
1.25e+09
1.25e+09
1.25e+09
1.25e+09
1.25e+09
1.25e+09
1.25e+09
1.25e+09
1.25e+09
1.25e+09
1.25e+09
1.25e+09
1.25e+09
1.25e+09
1.25e+09
1.25e+09
1.25e+09
1.25e+09
1.25e+09
1.25e+09
1.25e+09
1.25e+09
1.25e+09
1.25e+09
1.25e+09
1.25e+09
1.25e+09
1.25e+09
1.25e+09
1.25e+09
1.25e+09
1.25e+09
1.25e+09
1.25e+09
1.25e+09
1.25e+09
1.25e+09
1.25e+09
1.25e+09
1.25e+09
1.25e+09
1.25e+09
1.25e+09
1.25e+09
1.25e+09
1.25e+09
1.25e+09
1.25e+09
1.25e+09
1.25e+09
1.25e+09
1.25e+09
1.25e+09
1.25e+09
1.25e+09
1.25e+09
1.25e+09
1.25e+09
1.25e+09
1.25e+09
1.25e+09
1.25e+09
1.25e+09
1.25e+09
1.25e+09
1.25e+09
1.25e+09
1.25e+09
1.25e+09
1.25e+09
1.25e+09
1.25e+09
1.25e+09
1.25e+09
1.25e+09
1.25e+09
1.25e+09
1.25e+09
1.25e+09
1.25e+09
1.25e+09
1.25e+09
1.25e+09
1.25e+09
1.25e+09
1.25e+09
1.25e+09
1.25e+09
1.25e+09
1.25e+09
1.25e+09
1.25e+09
1.25e+09
1.25e+09
1.25e+09
1.25e+09
1.25e+09
1.25e+09
1.25e+09
1.25e+09
1.25e+09
1.25e+09
1.25e+09
1.25e+09
1.25e+09
1.25e+09
1.25e+09
1.25e+09
1.25e+09
1.25e+09
1.25e+09
1.25e+09
1.25e+09
1.25e+09
1.25e+09
1.25e+09
1.25e+09
1.25e+09
1.25e+09
1.25e+09
1.25e+09
1.25e+09
1.25e+09
1.25e+09
1.25e+09
1.25e+09
1.25e+09
1.25e+09
1.25e+09
1.25e+09
1.25e+09
1.25e+09
1.25e+09
1.25e+09
1.25e+09
1.25e+09
1.25e+09
1.25e+09
1.25e+09
1.25e+09
1.25e+09
1.25e+09
1.25e+09
1.25e+09
1.25e+09
1.25e+09
1.25e+09
1.25e+09
1.25e+09
1.25e+09
1.25e+09
1.25e+09
1.25e+09
1.25e+09
1.25e+09
1.25e+09
1.25e+09
1.25e+09
1.25e+09
1.25e+09
1.25e+09
1.25e+09
1.25e+09
1.25e+09
1.25e+09
1.25e+09
1.25e+09
1.25e+09
1.25e+09
1.25e+09
1.25e+09
1.25e+09
1.25e+09
1.25e+09
1.25e+09
1.25e+09
1.25e+09
1.25e+09
1.25e+09
1.25e+09
1.25e+09
1.25e+09
1.25e+09
1.25e+09
1.25e+09
1.25e+09
1.25e+09
1.25e+09
1.25e+09
1.25e+09
1.25e+09
1.25e+09
1.25e+09
1.25e+09
1.25e+09
1.25e+09
1.25e+09
1.25e+09
1.25e+09
1.25e+09
1.25e+09
1.25e+09
1.25e+09
1.25e+09
1.25e+09
1.25e+09
1.25e+09
1.25e+09
1.25e+09
1.25e+09
1.25e+09
1.25e+09
1.25e+09
1.25e+09
1.25e+09
1.25e+09
1.25e+09
1.25e+09
1.25e+09
1.25e+09
1.25e+09
1.25e+09
1.25e+09
1.25e+09
1.25e+09
1.25e+09
1.25e+09
1.25e+09
1.25e+09
1.25e+09
1.25e+09
1.25e+09
1.25e+09
1.25e+09
1.25e+09
1.25e+09
1.25e+09
1.25e+09
1.25e+09
1.25e+09
1.25e+09
1.25e+09
1.25e+09
1.25e+09
1.25e+09
1.25e+09
1.25e+09
1.25e+09
1.25e+09
1.25e+09
1.25e+09
1.25e+09
1.25e+09
1.25e+09
1.25e+09
1.25e+09
1.25e+09
1.25e+09
1.25e+09
1.25e+09
1.25e+09
1.25e+09
1.25e+09
1.25e+09
1.25e+09
1.25e+09
1.25e+09
1.25e+09
1.25e+09
1.25e+09
1.25e+09
1.25e+09
1.25e+09
1.25e+09
1.25e+09
1.25e+09
1.25e+09
1.25e+09
1.25e+09
1.25e+09
1.25e+09
1.25e+09
1.25e+09
1.25e+09
1.25e+09
1.25e+09
1.25e+09
1.25e+09
1.25e+09
1.25e+09
1.25e+09
1.25e+09
1.25e+09
1.25e+09
1.25e+09
1.25e+09
1.25e+09
1.25e+09
1.25e+09
1.25e+09
1.25e+09
1.25e+09
1.25e+09
1.25e+09
1.25e+09
1.25e+09
1.25e+09
1.25e+09
1.25e+09
1.25e+09
1.25e+09
1.25e+09
1.25e+09
1.25e+09
1.25e+09
1.25e+09
1.25e+09
1.25e+09
1.25e+09
1.25e+09
1.25e+09
1.25e+09
1.25e+09
1.25e+09
1.25e+09
1.25e+09
1.25e+09
1.25e+09
1.25e+09
1.25e+09
1.25e+09
1.25e+09
1.25e+09
1.25e+09
1.25e+09
1.25e+09
1.25e+09
1.25e+09
1.25e+09
1.25e+09
1.25e+09
1.25e+09
1.25e+09
1.25e+09
1.25e+09
1.25e+09
1.25e+09
1.25e+09
1.25e+09
1.25e+09
1.25e+09
1.25e+09
1.25e+09
1.25e+09
1.25e+09
1.25e+09
1.25e+09
1.25e+09
1.25e+09
1.25e+09
1.25e+09
1.25e+09
1.25e+09
1.25e+09
1.25e+09
1.25e+09
1.25e+09
1.25e+09
1.25e+09
1.25e+09
1.25e+09
1.25e+09
1.25e+09
1.25e+09
1.25e+09
1.25e+09
1.25e+09
1.25e+09
1.25e+09
1.25e+09
1.25e+09
1.25e+09
1.25e+09
1.25e+09
1.25e+09
1.25e+09
1.25e+09
1.25e+09
1.25e+09
1.25e+09
1.25e+09
1.25e+09
1.25e+09
1.25e+09
1.25e+09
1.25e+09
1.25e+09
1.25e+09
1.25e+09
1.25e+09
1.25e+09
1.25e+09
1.25e+09
1.25e+09
1.25e+09
1.25e+09
1.25e+09
1.25e+09
1.25e+09
1.25e+09
1.25e+09
1.25e+09
1.25e+09
1.25e+09
1.25e+09
1.25e+09
1.25e+09
1.25e+09
1.25e+09
1.25e+09
1.25e+09
1.25e+09
1.25e+09
1.25e+09
1.25e+09
1.25e+09
1.25e+09
1.25e+09
1.25e+09
1.25e+09
1.25e+09
1.25e+09
1.25e+09
1.25e+09
1.25e+09
1.25e+09
1.25e+09
1.25e+09
1.25e+09
1.25e+09
1.25e+09
1.25e+09
1.25e+09
1.25e+09
1.25e+09
1.25e+09
1.25e+09
1.25e+09
1.25e+09
1.25e+09
1.25e+09
1.25e+09
1.25e+09
1.25e+09
1.25e+09
1.25e+09
1.25e+09
1.25e+09
1.25e+09
1.25e+09
1.25e+09
1.25e+09
1.25e+09
1.25e+09
1.25e+09
1.25e+09
1.25e+09
1.25e+09
1.25e+09
1.25e+09
1.25e+09
1.25e+09
1.25e+09
1.25e+09
1.25e+09
1.25e+09
)
;

boundaryField
{
    wireUpstream
    {
        type            calculated;
        value           uniform 1.25e+09;
    }
    wireDownstream
    {
        type            calculated;
        value           nonuniform List<scalar> 
16
(
1.2851e+09
1.28515e+09
1.28525e+09
1.28536e+09
1.28549e+09
1.28561e+09
1.28575e+09
1.2858e+09
1.28577e+09
1.28552e+09
1.28507e+09
1.28427e+09
1.28319e+09
1.28238e+09
1.28192e+09
1.28505e+09
)
;
    }
    wireTopContact
    {
        type            calculated;
        value           nonuniform List<scalar> 
122
(
1.28183e+09
1.28185e+09
1.28187e+09
1.28189e+09
1.28192e+09
1.28194e+09
1.28196e+09
1.28198e+09
1.282e+09
1.28202e+09
1.28205e+09
1.28207e+09
1.28209e+09
1.28211e+09
1.28213e+09
1.28216e+09
1.28218e+09
1.2822e+09
1.28222e+09
1.28224e+09
1.28226e+09
1.28229e+09
1.28231e+09
1.28233e+09
1.28235e+09
1.28237e+09
1.2824e+09
1.28242e+09
1.28244e+09
1.28246e+09
1.28248e+09
1.2825e+09
1.28252e+09
1.28254e+09
1.28257e+09
1.28259e+09
1.28261e+09
1.28263e+09
1.28265e+09
1.28267e+09
1.28269e+09
1.28272e+09
1.28274e+09
1.28276e+09
1.28278e+09
1.2828e+09
1.28282e+09
1.28283e+09
1.28278e+09
1.28257e+09
1.28212e+09
1.28138e+09
1.28038e+09
1.27919e+09
1.27784e+09
1.2764e+09
1.27491e+09
1.27338e+09
1.27179e+09
1.27017e+09
1.26852e+09
1.26686e+09
1.2652e+09
1.26357e+09
1.26197e+09
1.26042e+09
1.25893e+09
1.2575e+09
1.25613e+09
1.2548e+09
1.2535e+09
1.25225e+09
1.25118e+09
1.2504e+09
1.25e+09
1.25e+09
1.25e+09
1.25e+09
1.25e+09
1.25e+09
1.25e+09
1.25e+09
1.25e+09
1.25e+09
1.25e+09
1.25e+09
1.25e+09
1.25e+09
1.25e+09
1.25e+09
1.25e+09
1.25e+09
1.25e+09
1.25e+09
1.25e+09
1.25e+09
1.25e+09
1.25e+09
1.25e+09
1.25e+09
1.25e+09
1.25e+09
1.25e+09
1.25e+09
1.25e+09
1.25e+09
1.25e+09
1.25e+09
1.25e+09
1.25e+09
1.25e+09
1.25e+09
1.25e+09
1.25e+09
1.25e+09
1.25e+09
1.25e+09
1.25e+09
1.25e+09
1.25e+09
1.25e+09
1.28181e+09
)
;
    }
    front
    {
        type            wedge;
    }
    back
    {
        type            wedge;
    }
}


// ************************************************************************* //
