/*--------------------------------*- C++ -*----------------------------------*\
| =========                 |                                                 |
| \\      /  F ield         | OpenFOAM: The Open Source CFD Toolbox           |
|  \\    /   O peration     | Version:  4.1                                   |
|   \\  /    A nd           | Web:      www.OpenFOAM.org                      |
|    \\/     M anipulation  |                                                 |
\*---------------------------------------------------------------------------*/
FoamFile
{
    version     2.0;
    format      ascii;
    class       volScalarField;
    location    "0.000500";
    object      epsilon;
}
// * * * * * * * * * * * * * * * * * * * * * * * * * * * * * * * * * * * * * //

dimensions      [0 2 -3 0 0 0 0];

internalField   nonuniform List<scalar> 
3072
(
106.30835
95.857564
97.373
96.356581
96.206916
95.66436
95.094911
94.417842
93.546765
92.621834
91.334167
89.871866
88.084968
86.081359
84.494108
82.688616
81.133725
79.607898
78.233896
77.226801
76.468273
76.338826
76.359548
76.679232
69.099577
71.533639
73.925186
74.139557
74.65065
74.77218
74.856075
74.804815
74.588751
74.303082
73.69615
72.986912
72.054221
70.974742
69.975454
68.823708
67.762794
66.649112
65.650655
64.870507
64.335134
64.263842
64.307726
64.606945
49.000326
52.092503
53.74856
54.193166
54.621903
54.807982
54.970709
55.019645
54.937678
54.742468
54.320094
53.789805
53.05356
52.215881
51.423943
50.536689
49.74371
48.916597
48.190286
47.634521
47.268021
47.285341
47.435913
47.81688
38.753373
40.390511
41.326879
41.690041
42.001288
42.213957
42.421986
42.527933
42.537903
42.413056
42.135054
41.73595
41.178277
40.540667
39.894851
39.207081
38.565817
37.929043
37.366259
36.934851
36.663471
36.711548
36.933923
37.382088
33.157826
32.958205
33.416911
33.709909
34.037328
34.382713
34.716644
34.979895
35.152267
35.183253
35.085395
34.834724
34.439506
33.949427
33.385745
32.805788
32.195191
31.613022
31.057707
30.611312
30.302122
30.263617
30.434704
30.842606
31.317885
28.285394
28.34033
28.58315
29.054292
29.618321
30.202529
30.731742
31.148341
31.410845
31.508651
31.42446
31.170271
30.74879
30.176401
29.582643
28.891822
28.218434
27.525741
26.934504
26.46333
26.241867
26.271927
26.561828
35.540852
27.508164
26.970583
27.26195
28.109552
29.154646
30.252481
31.280552
32.144148
32.762595
33.093349
33.122024
32.851209
32.305157
31.507504
30.515383
29.443722
28.285831
27.139588
26.098119
25.231407
24.648087
24.406467
24.491269
49.966741
34.420707
32.817522
33.417151
35.008165
36.931896
38.915441
40.763803
42.315402
43.44827
44.102096
44.248829
43.868346
42.99636
41.672289
39.952911
37.912919
35.703214
33.452321
31.280606
29.370983
27.889873
26.973175
26.628395
69.103683
71.543679
73.930299
74.139364
74.649599
74.771019
74.853282
74.803988
74.593598
74.313537
73.71155
73.007625
72.07879
71.000388
70.001378
68.850095
67.788317
66.673049
65.67253
64.89116
64.354527
64.279287
64.320433
64.618018
42.596003
48.95157
51.592674
52.544653
53.343557
53.850859
54.344275
54.734665
55.005506
55.175931
55.063139
54.822109
54.35076
53.724982
53.075664
52.262633
51.470913
50.578205
49.758906
49.073346
48.555913
48.388313
48.264266
48.356733
29.94808
33.632383
35.108736
35.697965
36.084407
36.313852
36.537475
36.696517
36.771716
36.751693
36.56843
36.282594
35.838727
35.307297
34.799224
34.208588
33.663305
33.091421
32.582055
32.184521
31.905953
31.875883
31.92723
32.144714
24.50482
26.146177
26.724788
26.913628
27.025228
27.10001
27.189996
27.241619
27.24527
27.175575
27.020805
26.790168
26.469862
26.101686
25.723322
25.324527
24.950052
24.591551
24.279701
24.054454
23.929287
23.99053
24.160183
24.47283
21.870403
22.170752
22.249246
22.211669
22.226398
22.285691
22.373965
22.448095
22.488977
22.469111
22.391497
22.241083
22.023295
21.762919
21.462229
21.159313
20.8489
20.569141
20.317685
20.139266
20.049789
20.11396
20.30605
20.638283
21.209028
20.158555
19.950497
19.804742
19.841388
19.972693
20.157196
20.341283
20.488784
20.577831
20.595803
20.530297
20.383573
20.157518
19.868691
19.556171
19.223468
18.906518
18.613145
18.387686
18.25589
18.272096
18.445345
18.77631
24.298915
20.980311
20.606102
20.51037
20.779804
21.199829
21.69697
22.191842
22.61984
22.930463
23.0992
23.108476
22.94701
22.631858
22.187968
21.645341
21.044704
20.445438
19.886217
19.406237
19.055642
18.891826
18.954453
19.231395
35.567311
27.5444
27.003681
27.285577
28.128564
29.165492
30.258789
31.282886
32.135221
32.744556
33.080917
33.117163
32.848616
32.300327
31.499194
30.50728
29.435969
28.282415
27.137654
26.098879
25.223925
24.636544
24.388412
24.471163
48.987076
52.090447
53.748171
54.195827
54.6324
54.820487
54.977666
55.024473
54.94599
54.75184
54.325861
53.790679
53.047448
52.202985
51.406508
50.517092
49.721233
48.8927
48.164398
47.608754
47.240307
47.253418
47.398937
47.772869
29.936488
33.623693
35.1052
35.701453
36.096147
36.328534
36.550031
36.706434
36.781241
36.757811
36.566391
36.27132
35.816739
35.277008
34.763146
34.168784
33.622513
33.049766
32.541425
32.147196
31.870071
31.840611
31.891096
32.105798
21.48926
23.121266
23.735977
23.939311
23.999874
23.993796
23.990022
23.96227
23.893566
23.771377
23.572947
23.323825
23.002159
22.643672
22.342125
22.013847
21.730173
21.463784
21.249917
21.118651
21.071723
21.176259
21.364061
21.66444
18.519844
19.018659
19.053359
18.951993
18.819171
18.693834
18.591751
18.488991
18.373509
18.236669
18.073977
17.892469
17.687662
17.477433
17.293787
17.122834
16.984535
16.879969
16.818578
16.819808
16.8918
17.070102
17.331751
17.68518
17.530778
17.501407
17.260503
17.013067
16.811154
16.657303
16.539469
16.431295
16.320163
16.198494
16.06681
15.924482
15.774168
15.624555
15.480923
15.363176
15.266198
15.209015
15.189815
15.225357
15.326666
15.517275
15.795861
16.163965
17.899148
17.517997
17.19215
16.916796
16.749371
16.647561
16.588562
16.544259
16.496331
16.431573
16.343707
16.230782
16.094574
15.939698
15.77531
15.612989
15.470154
15.35594
15.284145
15.267477
15.324995
15.480159
15.743963
16.113778
21.203223
20.186669
19.990881
19.851513
19.894449
20.01041
20.168589
20.337108
20.482637
20.571331
20.584624
20.515154
20.36491
20.138314
19.850901
19.541473
19.210827
18.89649
18.607145
18.385065
18.254282
18.270562
18.444352
18.777411
31.324207
28.32715
28.391668
28.632452
29.113495
29.657387
30.205087
30.709397
31.121432
31.389905
31.488136
31.405783
31.157339
30.739409
30.170945
29.585837
28.89645
28.223108
27.529722
26.937674
26.45965
26.231748
26.25704
26.547232
38.732508
40.380946
41.329038
41.705006
42.028573
42.24319
42.45051
42.558042
42.572696
42.445715
42.159113
41.750621
41.183067
40.538063
39.884621
39.190737
38.544705
37.901861
37.331594
36.89419
36.615399
36.658662
36.875543
37.317281
24.488078
26.134339
26.726171
26.929046
27.05227
27.130457
27.221276
27.275332
27.281781
27.207831
27.04273
26.800214
26.467338
26.091078
25.705826
25.302241
24.924049
24.56059
24.245035
24.017485
23.889388
23.950099
24.119371
24.43128
18.515074
19.015988
19.056072
18.95882
18.828099
18.702186
18.599507
18.497634
18.383376
18.245738
18.0803
17.895514
17.687738
17.476889
17.293126
17.121661
16.982408
16.875611
16.81275
16.813066
16.884752
17.064336
17.327779
17.68287
16.668785
16.602786
16.327607
16.04728
15.788854
15.569905
15.385611
15.218318
15.058222
14.902764
14.751327
14.607997
14.472732
14.352811
14.265382
14.203957
14.176667
14.186736
14.239185
14.34229
14.504279
14.741719
15.0507
15.432811
16.416341
16.216568
15.854116
15.523824
15.239354
15.004815
14.806379
14.627791
14.462503
14.307573
14.162677
14.029181
13.909849
13.809486
13.732209
13.685436
13.671359
13.694824
13.75992
13.874141
14.044958
14.283985
14.595224
14.978888
17.530623
17.526385
17.297919
17.056273
16.856496
16.692202
16.551013
16.423842
16.305521
16.182579
16.049649
15.904452
15.754012
15.607166
15.469016
15.355928
15.264876
15.208321
15.190177
15.229409
15.332413
15.523754
15.803721
16.173788
21.846558
22.203284
22.305245
22.273438
22.292594
22.336925
22.385077
22.428706
22.460217
22.441399
22.365857
22.211366
21.994825
21.738081
21.442833
21.147166
20.843359
20.564958
20.315461
20.143526
20.055922
20.120548
20.314006
20.648841
33.150974
33.018188
33.492989
33.770816
34.090178
34.421513
34.712261
34.942433
35.106541
35.140974
35.049849
34.802064
34.411759
33.932393
33.380944
32.807981
32.202411
31.617522
31.060024
30.612057
30.295897
30.251403
30.417555
30.824174
33.137591
32.946947
33.423511
33.73466
34.074837
34.422446
34.759366
35.029465
35.210517
35.240837
35.135868
34.877254
34.473267
33.97664
33.40594
32.819069
32.201449
31.610589
31.047158
30.591289
30.271505
30.225787
30.38979
30.791937
21.85571
22.16261
22.256079
22.233137
22.257291
22.318951
22.409839
22.489746
22.535932
22.514359
22.429785
22.268088
22.0409
21.772396
21.466342
21.159326
20.845719
20.559936
20.303943
20.119987
20.024892
20.086811
20.277403
20.609864
17.52469
17.498094
17.263071
17.018825
16.816525
16.660067
16.541106
16.434247
16.325363
16.204638
16.072216
15.926843
15.773997
15.623991
15.481728
15.364479
15.267339
15.208375
15.187477
15.220815
15.320499
15.511469
15.791546
16.16128
16.413577
16.212825
15.849955
15.518268
15.231887
14.996013
14.797208
14.619016
14.454653
14.301215
14.157876
14.025644
13.907601
13.808668
13.732724
13.686435
13.67239
13.695642
13.760558
13.874581
14.04546
14.284841
14.596578
14.980337
16.67703
16.624845
16.35636
16.078907
15.821234
15.595641
15.394205
15.209767
15.0421
14.885001
14.734038
14.590652
14.456207
14.339561
14.25529
14.196295
14.175964
14.187824
14.240873
14.34822
14.512261
14.74965
15.058587
15.441539
18.52577
19.065075
19.117559
19.019488
18.884973
18.743449
18.605482
18.468882
18.338807
18.199004
18.036841
17.854615
17.651189
17.447488
17.270674
17.103313
16.97644
16.876097
16.818509
16.828952
16.90655
17.088126
17.353087
17.710128
24.474676
26.197419
26.799995
26.981757
27.08672
27.140853
27.184125
27.193906
27.182717
27.114312
26.966078
26.740331
26.424556
26.067429
25.693913
25.296286
24.929239
24.574088
24.267721
24.05349
23.933508
23.999515
24.173457
24.490204
38.753982
40.491364
41.436176
41.768671
42.059752
42.247375
42.410185
42.475812
42.469458
42.344281
42.070438
41.67605
41.125068
40.502757
39.868406
39.187592
38.552556
37.917121
37.353932
36.923993
36.648047
36.689534
36.907453
37.354142
31.300092
28.276429
28.345922
28.604002
29.083215
29.646202
30.23133
30.771353
31.199846
31.466943
31.562344
31.473692
31.214719
30.785471
30.206895
29.606621
28.909583
28.227861
27.530756
26.932278
26.450722
26.221629
26.246022
26.531812
21.197299
20.151822
19.952464
19.815178
19.855513
19.985895
20.172097
20.365138
20.521606
20.613411
20.62812
20.557453
20.402184
20.168825
19.875013
19.559339
19.224072
18.903701
18.607473
18.379485
18.243223
18.257463
18.430423
18.760532
17.891714
17.506304
17.177336
16.898933
16.729273
16.628002
16.572174
16.531927
16.487886
16.427328
16.343211
16.232202
16.096163
15.941447
15.77813
15.616857
15.473843
15.359024
15.286063
15.268519
15.3244
15.478914
15.743256
16.113417
17.526843
17.513755
17.275511
17.026744
16.824512
16.663064
16.526713
16.40314
16.287086
16.167896
16.040406
15.901384
15.755572
15.610699
15.472136
15.359873
15.268883
15.212449
15.194725
15.234609
15.338029
15.528948
15.807561
16.176714
18.527008
19.059226
19.103129
19.000013
18.86461
18.725614
18.590899
18.456307
18.327929
18.189697
18.029539
17.850312
17.649161
17.447748
17.268952
17.101697
16.97506
16.875355
16.81942
16.832115
16.911578
17.094012
17.358673
17.714886
21.497416
23.195415
23.820672
24.009189
24.053831
24.021679
23.97184
23.897303
23.808492
23.685223
23.494411
23.254953
22.94623
22.603554
22.305402
21.978035
21.71108
21.453256
21.249431
21.137024
21.103139
21.217179
21.412467
21.718081
29.905267
33.698019
35.182545
35.736364
36.100554
36.302388
36.482911
36.598395
36.657156
36.641344
36.472575
36.206172
35.78322
35.267368
34.764158
34.165181
33.635099
33.069458
32.570849
32.189214
31.918147
31.894004
31.950162
32.170441
49.015215
52.226735
53.87679
54.268067
54.665541
54.824762
54.952882
54.961081
54.8586
54.659081
54.237765
53.713913
52.990687
52.167209
51.394388
50.510588
49.737716
48.917247
48.19574
47.64228
47.268136
47.274184
47.412916
47.784762
35.523163
27.479981
26.939866
27.234214
28.085717
29.133078
30.239153
31.28483
32.163206
32.79261
33.131552
33.164334
32.893121
32.340022
31.533491
30.531966
29.45575
28.2941
27.146297
26.104295
25.227912
24.638231
24.393997
24.475915
24.284574
20.955106
20.572447
20.476195
20.751168
21.180252
21.687995
22.195579
22.633946
22.952845
23.125168
23.133368
22.967586
22.646688
22.198073
21.653359
21.051504
20.4515
19.890555
19.409839
19.056776
18.892995
18.955777
19.23246
21.19381
20.157329
19.942056
19.792878
19.837333
19.966037
20.139705
20.318447
20.469174
20.563769
20.58592
20.525261
20.37952
20.151843
19.863205
19.553027
19.224173
18.910849
18.620789
18.398722
18.26809
18.284093
18.456965
18.788552
21.847967
22.182491
22.261445
22.21953
22.240748
22.297185
22.359827
22.411971
22.446722
22.431495
22.361206
22.214004
22.001892
21.745123
21.446888
21.150688
20.848673
20.572105
20.3244
20.155203
20.069385
20.133967
20.325598
20.658393
24.48546
26.188817
26.771947
26.946921
27.055469
27.118185
27.171262
27.185768
27.177448
27.110061
26.961873
26.737597
26.423012
26.065383
25.68927
25.291554
24.926227
24.573335
24.271156
24.062532
23.946899
24.015364
24.189007
24.504737
29.914471
33.695418
35.170112
35.722164
36.088362
36.29427
36.478695
36.595482
36.655101
36.638725
36.468555
36.201744
35.778745
35.263349
34.759635
34.161897
33.631445
33.067692
32.574314
32.200291
31.935968
31.915007
31.972011
32.191614
42.493976
48.963036
51.596089
52.495769
53.275334
53.772926
54.250897
54.62681
54.893951
55.076006
54.984951
54.775585
54.339915
53.742821
53.106754
52.29582
51.506015
50.61973
49.813977
49.13336
48.609282
48.422711
48.28214
48.361738
69.098473
71.62259
74.013247
74.182921
74.677683
74.795443
74.867006
74.78723
74.551236
74.257375
73.641489
72.928324
72.004972
70.948239
69.974857
68.844256
67.799921
66.696842
65.704489
64.920336
64.370802
64.269546
64.280152
64.551118
49.947484
34.382632
32.764763
33.366161
34.969503
36.907273
38.903975
40.767154
42.335084
43.481077
44.142161
44.290364
43.906201
43.027215
41.695839
39.970397
37.926201
35.713484
33.462338
31.292694
29.377703
27.89576
26.9775
26.631566
35.547745
27.504168
26.944857
27.226901
28.085354
29.14496
30.25503
31.294882
32.161378
32.780985
33.11763
33.146438
32.86918
32.314795
31.510238
30.515795
29.444932
28.292617
27.148479
26.108982
25.235785
24.648685
24.402854
24.486022
31.31261
28.285669
28.326012
28.562016
29.053911
29.622373
30.195014
30.71651
31.133655
31.403556
31.504215
31.421758
31.170603
30.747224
30.17421
29.588016
28.900755
28.230413
27.538788
26.949374
26.474114
26.247896
26.27275
26.561217
33.149377
32.986039
33.437567
33.715834
34.049621
34.400619
34.712836
34.956208
35.123604
35.157687
35.062177
34.81211
34.418904
33.934934
33.378267
32.803723
32.200955
31.618972
31.065196
30.621627
30.308755
30.264984
30.428511
30.832371
38.755202
40.459142
41.389853
41.728268
42.034526
42.239771
42.418413
42.492314
42.489651
42.3627
42.082611
41.682995
41.128854
40.503851
39.866096
39.184073
38.551033
37.918093
37.359333
36.934482
36.66254
36.705922
36.921128
37.364179
49.003769
52.189115
53.835499
54.239016
54.650332
54.821705
54.96009
54.974624
54.874647
54.674035
54.248317
53.720226
52.994745
52.174155
51.395789
50.511595
49.739128
48.920564
48.203893
47.656507
47.288588
47.294675
47.431114
47.798658
69.076657
71.588033
73.983113
74.164258
74.669085
74.794236
74.872142
74.798249
74.564667
74.270521
73.6528
72.937258
72.011762
70.952906
69.977818
68.847169
67.801976
66.698904
65.707261
64.923113
64.372795
64.26854
64.27546
64.542795
106.46091
96.023462
97.559325
96.509866
96.330996
95.772088
95.185365
94.450443
93.534114
92.576749
91.256101
89.765566
87.971265
85.994839
84.433496
82.654701
81.135199
79.617981
78.243602
77.235495
76.470324
76.317171
76.304651
76.593304
124.04234
123.82973
123.90722
124.13836
124.69866
125.44614
126.24427
127.04489
127.71826
128.30227
128.74068
129.04136
129.22976
129.34139
129.47506
129.46458
129.56127
129.63219
129.76616
130.02883
130.45369
131.58786
132.04266
149.46612
92.913229
92.387957
92.157888
92.131823
92.532559
93.158516
93.948106
94.833566
95.66828
96.580708
97.382143
98.209066
98.958392
99.594148
100.19665
100.61715
101.05911
101.43209
101.80035
102.21762
102.60978
103.39211
103.18983
111.72838
73.848503
73.300657
73.052782
73.051993
73.479322
74.122789
74.93649
75.84447
76.730479
77.693163
78.577091
79.480517
80.304935
80.97713
81.58602
82.025618
82.393392
82.658747
82.855318
83.050632
83.148306
83.422055
83.03066
86.953312
61.658113
61.167399
61.015545
61.167249
61.720312
62.485797
63.385381
64.359115
65.324698
66.299704
67.215702
68.075824
68.845837
69.444623
69.910718
70.204779
70.337455
70.35089
70.225151
70.077649
69.85021
69.659596
69.172276
72.066028
53.317876
52.939249
52.979956
53.403947
54.215378
55.228353
56.357466
57.491702
58.618422
59.654981
60.62963
61.458114
62.125848
62.588532
62.815721
62.839959
62.630805
62.24355
61.693997
61.052375
60.392438
59.751819
59.179767
63.691368
47.578581
47.465085
47.884735
48.806869
50.132594
51.63855
53.242409
54.78673
56.241624
57.542973
58.667983
59.518381
60.106195
60.376736
60.305239
59.900993
59.161572
58.148905
56.906393
55.558598
54.208794
53.145391
52.664604
62.074474
44.32436
44.872529
46.130759
48.060992
50.447101
53.028293
55.616102
58.111907
60.389968
62.341275
63.913341
65.052114
65.721264
65.883791
65.500962
64.548903
63.033884
61.035253
58.677915
56.173006
53.761448
52.166459
52.319309
69.984075
46.072656
47.794629
50.786594
54.773413
59.335496
64.142698
68.908466
73.371948
77.37964
80.84375
83.653574
85.750817
87.030968
87.408604
86.839821
85.299648
82.773699
79.355358
75.273867
70.91799
66.784869
64.490204
65.134437
94.710064
152.1626
147.47559
143.57452
140.35946
137.82429
135.80397
134.36523
133.46495
133.09972
133.33431
134.0429
135.22851
136.88592
139.02807
141.66298
144.80164
148.45925
152.62493
157.31499
162.53535
168.32382
174.91221
182.2248
194.03923
132.80659
128.82861
125.52673
122.83788
120.71562
119.06481
117.89566
117.18123
116.92148
117.12853
117.75718
118.80404
120.26274
122.14331
124.44676
127.18802
130.37226
133.99436
138.06669
142.59725
147.62521
153.3119
159.72382
169.80969
121.06981
117.41885
114.3901
111.93897
110.00121
108.51786
107.4751
106.85646
106.66083
106.88709
107.51764
108.54704
109.96562
111.77962
113.98509
116.59026
119.59914
123.01038
126.83554
131.08464
135.80109
141.11784
147.23469
156.88738
114.94621
111.41909
108.49978
106.14515
104.28713
102.87646
101.894
101.32753
101.17575
101.43827
102.10554
103.17448
104.63469
106.48454
108.71931
111.33918
114.34646
117.74134
121.53487
125.74168
130.40712
135.6672
141.86656
152.00028
113.32643
109.76117
106.82612
104.46621
102.60882
101.20465
100.23263
99.684061
99.560227
99.861408
100.58155
101.71373
103.25564
105.20351
107.5516
110.29767
113.43623
116.97175
120.90829
125.26716
130.10139
135.57209
142.22867
153.65044
115.93538
112.16245
109.0788
106.60798
104.66552
103.19668
102.18163
101.61147
101.49182
101.81802
102.58841
103.79908
105.45205
107.54564
110.07939
113.04946
116.4472
120.27424
124.53001
129.23933
134.4687
140.43095
147.95961
161.50809
123.16065
118.95898
115.54361
112.81349
110.66294
109.02791
107.87638
107.21647
107.04262
107.3588
108.16676
109.46363
111.25384
113.54403
116.33715
119.63427
123.42917
127.72104
132.50653
137.8062
143.71335
150.51014
159.424
176.10272
136.04719
131.00904
126.8761
123.55701
120.94842
118.98516
117.62055
116.8132
116.56334
116.86799
117.72933
119.14579
121.12645
123.68649
126.84307
130.61549
135.01284
140.03422
145.66309
151.9076
158.87585
166.93279
177.81965
198.84896
46.066272
47.788153
50.783586
54.774017
59.339712
64.14921
68.916235
73.379966
77.388734
80.856845
83.666161
85.759846
87.048038
87.422192
86.848991
85.301125
82.769298
79.344628
75.253719
70.889053
66.750954
64.452347
65.099612
94.689699
44.310845
44.857843
46.117473
48.052463
50.443967
53.030892
55.622674
58.122101
60.403243
62.356947
63.933438
65.077376
65.740203
65.897442
65.510205
64.559732
63.049044
61.052781
58.691379
56.181658
53.759122
52.161629
52.312309
69.972721
47.570548
47.455565
47.877603
48.804292
50.135367
51.644594
53.249859
54.794174
56.250476
57.550849
58.675661
59.525931
60.108401
60.374246
60.304385
59.90617
59.167798
58.157909
56.925929
55.582601
54.224206
53.155252
52.669622
62.072136
53.312454
52.934179
52.977084
53.403504
54.217566
55.23152
56.360014
57.493014
58.61721
59.647812
60.618701
61.442323
62.110049
62.572791
62.802105
62.826005
62.622148
62.252168
61.72252
61.090981
60.430424
59.790523
59.212408
63.703902
61.656298
61.166677
61.016232
61.168382
61.720238
62.481589
63.376606
64.343477
65.301861
66.27008
67.182139
68.039481
68.810136
69.41071
69.877809
70.176825
70.325901
70.365006
70.266786
70.139429
69.922513
69.741057
69.250866
72.105036
73.857126
73.31227
73.065744
73.062502
73.483107
74.115711
74.917326
75.812679
76.689253
77.64582
78.527374
79.430997
80.25796
80.932647
81.545813
81.994736
82.384513
82.683674
82.9115
83.135776
83.254873
83.551964
83.164705
87.030912
92.935414
92.416564
92.189315
92.159337
92.547195
93.155781
93.927514
94.797679
95.624641
96.533763
97.335048
98.165512
98.918152
99.55704
100.16405
100.59625
101.06359
101.47301
101.8734
102.31913
102.73349
103.54332
103.35032
111.81468
124.05161
123.85311
123.93721
124.16226
124.70864
125.43703
126.21449
126.99948
127.66798
128.25565
128.69731
129.00779
129.20184
129.31885
129.45893
129.46528
129.58853
129.69359
129.85018
130.13601
130.58523
131.7449
132.20681
149.57645
136.04055
131.00641
126.87444
123.55508
120.94574
118.98121
117.6148
116.80508
116.55262
116.85472
117.71394
119.12893
121.10866
123.66855
126.82729
130.60512
135.0098
140.03715
145.66619
151.90469
158.86458
166.91676
177.80625
198.84276
123.15063
118.95497
115.54071
112.80951
110.65668
109.0179
107.86098
107.19439
107.01428
107.32585
108.13196
109.42902
111.21979
113.51137
116.30997
119.61938
123.43133
127.73679
132.52386
137.81197
143.70167
150.48748
159.40561
176.09781
115.92673
112.16046
109.07759
106.6046
104.65764
103.18192
102.15771
101.57695
101.44766
101.76728
102.53565
103.74773
105.40278
107.49925
110.04058
113.02585
116.44355
120.28684
124.54634
129.24516
134.45773
140.41071
147.94648
161.50749
113.32109
109.76254
106.82775
104.46435
102.59998
101.18576
100.20115
99.6386
99.501954
99.794514
100.51224
101.64701
103.19288
105.1456
107.50213
110.26288
113.42037
116.97147
120.91334
125.26627
130.08969
135.55918
142.22783
153.65589
114.94241
111.42216
108.50276
106.14339
104.27603
102.85242
101.85441
101.2714
101.10488
101.35766
102.02278
103.09615
104.56322
106.42061
108.66443
111.29682
114.31946
117.72796
121.52885
125.73557
130.39897
135.66892
141.88648
152.01389
121.06373
117.4207
114.39247
111.93606
109.9872
108.48854
107.42813
106.79147
106.58038
106.79711
107.42656
108.46228
109.89047
111.71437
113.9288
116.54338
119.56334
122.98555
126.81909
131.0736
135.79716
141.13384
147.27254
156.90308
132.78959
128.82191
125.52281
122.82982
120.69574
119.02881
117.84199
117.11025
116.83585
117.03534
117.66467
118.71926
120.18897
122.08045
124.39255
127.14066
130.33223
133.96146
138.04004
142.57775
147.61564
153.32371
159.75552
169.80988
152.12452
147.45096
143.55665
140.34003
137.79426
135.75923
134.30558
133.39089
133.01206
133.24138
133.95175
135.14503
136.81327
138.96654
141.60978
144.75275
148.41299
152.57796
157.26451
162.48647
168.28061
174.8832
182.20985
193.99847
124.03607
123.83596
123.92079
124.14937
124.69787
125.42771
126.20716
126.99421
127.66509
128.25106
128.69112
129.0024
129.19614
129.31296
129.45253
129.45894
129.57922
129.68233
129.83571
130.11795
130.56531
131.72428
132.18918
149.57485
92.934092
92.416057
92.187255
92.154633
92.540415
93.147667
93.918358
94.78861
95.615872
96.524631
97.324267
98.150327
98.899116
99.535052
100.13943
100.56837
101.03056
101.43226
101.82502
102.26486
102.6756
103.48045
103.29126
111.78419
73.861616
73.31796
73.070426
73.063908
73.481014
74.11083
74.910025
75.803907
76.678938
77.633949
78.512378
79.411619
80.234798
80.908565
81.521046
81.967236
82.350885
82.639666
82.857492
83.072006
83.184086
83.475708
83.095598
86.990666
61.660361
61.173221
61.023762
61.174537
61.723818
62.482802
63.374801
64.338862
65.294336
66.260171
67.16845
68.021416
68.789141
69.389265
69.857174
70.15408
70.296409
70.324399
70.213538
70.075494
69.852349
69.670536
69.191759
72.075343
53.316261
52.941807
52.987031
53.413572
54.225502
55.236622
56.361972
57.491127
58.611089
59.637852
60.605049
61.426668
62.092767
62.555092
62.783074
62.804876
62.595326
62.213288
61.669927
61.027136
60.36235
59.727201
59.166081
63.682475
47.576167
47.464913
47.889176
48.815624
50.144085
51.650112
53.25253
54.793662
56.245578
57.540697
58.661201
59.510246
60.094833
60.36194
60.287621
59.880468
59.13391
58.114065
56.868048
55.513066
54.153359
53.093996
52.628648
62.050706
44.321298
44.869551
46.129188
48.063107
50.452372
53.035492
55.625008
58.12219
60.400825
62.349979
63.922466
65.063493
65.729545
65.887297
65.493991
64.52903
63.000434
60.989479
58.620905
56.105797
53.6876
52.102457
52.271678
69.949273
46.066312
47.792306
50.789827
54.780877
59.347458
64.155738
68.921055
73.383359
77.391869
80.86084
83.670701
85.765971
87.048525
87.416876
86.83141
85.267313
82.71991
79.284568
75.190453
70.826009
66.690496
64.400449
65.063221
94.665512
152.11655
147.44288
143.54972
140.33388
137.78872
135.75492
134.30338
133.39084
133.0127
133.24121
133.94946
135.14042
136.80758
138.96149
141.60594
144.74823
148.40368
152.56091
157.23934
162.4545
168.24239
174.83622
182.16093
193.97218
132.78358
128.81432
125.51605
122.82331
120.6898
119.02472
117.84127
117.11294
116.83984
117.03782
117.66263
118.7119
120.17866
122.07072
124.38396
127.12828
130.3084
133.92083
137.98263
142.50733
147.53389
153.22594
159.65391
169.75229
121.05857
117.4126
114.38518
111.92948
109.98173
108.48567
107.42931
106.79672
106.58737
106.80175
107.42452
108.45258
109.87656
111.70053
113.91535
116.52429
119.52974
122.93205
126.74749
130.99006
135.70472
141.02793
147.16413
156.83876
114.93886
111.41423
108.49537
106.13715
104.27148
102.85078
101.85685
101.27777
101.11274
101.36222
102.01894
103.08304
104.54506
106.40212
108.64559
111.27112
114.27842
117.66771
121.45245
125.65004
130.30873
135.57233
141.79224
151.95409
113.32004
109.75579
106.82105
104.45885
102.5962
101.18463
100.20363
99.644546
99.508803
99.797175
100.50548
101.63023
103.1709
105.12309
107.47794
110.22984
113.37072
116.90316
120.83049
125.17539
129.99653
135.46783
142.14635
153.60139
115.92809
112.15556
109.07238
106.60044
104.65481
103.18096
102.15952
101.58133
101.45201
101.76648
102.52482
103.72686
105.37696
107.47229
110.0092
112.98146
116.37919
120.20286
124.44804
129.13966
134.35317
140.31557
147.86851
161.4539
123.15235
118.95099
115.53641
112.8062
110.65432
109.01664
107.86156
107.19648
107.01521
107.32063
108.11648
109.40416
111.1905
113.47983
116.27088
119.56277
123.35058
127.63464
132.40793
137.69035
143.58474
150.38649
159.32747
176.04374
136.04088
131.00325
126.8712
123.55264
120.94424
118.98029
117.6147
116.80533
116.55025
116.84506
117.69419
119.10051
121.07543
123.63071
126.77851
130.53683
134.91856
139.9269
145.54375
151.77826
158.74501
166.81551
177.72986
198.7907
46.076645
47.800826
50.796838
54.785979
59.35153
64.160966
68.927533
73.393276
77.404877
80.870356
83.681928
85.778427
87.062197
87.430638
86.843923
85.278387
82.72747
79.288738
75.192267
70.828095
66.693886
64.407364
65.073786
94.674019
44.312291
44.864312
46.129026
48.067201
50.461197
53.04832
55.640852
58.141394
60.424977
62.3826
63.963367
65.110513
65.779978
65.937681
65.544006
64.577376
63.044593
61.027922
58.658283
56.143849
53.722754
52.123408
52.28301
69.95758
47.561984
47.45279
47.880274
48.811347
50.146076
51.658019
53.268098
54.818999
56.28081
57.590022
58.72302
59.580232
60.169709
60.440668
60.368351
59.960162
59.207374
58.176345
56.91952
55.560531
54.203183
53.129869
52.642397
62.054784
53.2939
52.921224
52.968252
53.398872
54.217498
55.237106
56.372912
57.513551
58.645356
59.68636
60.666944
61.500134
62.172554
62.639888
62.873415
62.898902
62.68227
62.283332
61.721854
61.072975
60.4017
59.747337
59.163626
63.66956
61.627644
61.142927
60.996508
61.152754
61.710102
62.479297
63.383566
64.359918
65.326685
66.303136
67.223686
68.089032
68.865418
69.471653
69.945467
70.243957
70.37474
70.382966
70.253531
70.100772
69.862228
69.660947
69.163818
72.047404
73.82373
73.281637
73.037768
73.03841
73.465653
74.107832
74.920985
75.827283
76.712007
77.674705
78.56302
79.473724
80.307036
80.987507
81.603522
82.046475
82.413206
82.677403
82.875859
83.067016
83.155906
83.424566
83.029664
86.942113
92.906944
92.387038
92.159976
92.134529
92.531824
93.153586
93.93957
94.821554
95.65487
96.567083
97.372465
98.205982
98.963965
99.605242
100.21086
100.63087
101.07025
101.44323
101.81343
102.22913
102.61751
103.3991
103.19673
111.73191
124.04638
123.83569
123.91292
124.14473
124.70469
125.45165
126.24875
127.04853
127.7221
128.30517
128.74183
129.04444
129.23441
129.34862
129.48437
129.47243
129.5674
129.63981
129.77499
130.03724
130.46126
131.59492
132.04857
149.47025
136.04057
131.00575
126.87357
123.55407
120.94477
118.98012
117.61363
116.80316
116.54719
116.84202
117.69196
119.09912
121.07372
123.6277
126.77381
130.53073
134.91134
139.91905
145.53898
151.78206
158.75819
166.83183
177.74258
198.79584
123.15236
118.95646
115.54156
112.8101
110.65758
109.01964
107.86402
107.1979
107.01467
107.31922
108.11619
109.40416
111.18663
113.4685
116.25254
119.54231
123.33329
127.6238
132.40879
137.70937
143.61951
150.42465
159.35661
176.05774
115.92285
112.15749
109.07475
106.60222
104.65655
103.183
102.16126
101.58155
101.44951
101.76246
102.52167
103.72366
105.36848
107.45438
109.98367
112.95614