/*--------------------------------*- C++ -*----------------------------------*\
| =========                 |                                                 |
| \\      /  F ield         | OpenFOAM: The Open Source CFD Toolbox           |
|  \\    /   O peration     | Version:  4.1                                   |
|   \\  /    A nd           | Web:      www.OpenFOAM.org                      |
|    \\/     M anipulation  |                                                 |
\*---------------------------------------------------------------------------*/
FoamFile
{
    version     2.0;
    format      ascii;
    class       surfaceScalarField;
    location    "0.000120";
    object      phi;
}
// * * * * * * * * * * * * * * * * * * * * * * * * * * * * * * * * * * * * * //

dimensions      [0 3 -1 0 0 0 0];

internalField   nonuniform List<scalar> 
17536
(
-8.0784089e-07
3.8216652e-07
3.9218459e-07
-5.7088743e-07
-5.625109e-07
-8.4353364e-07
1.1745286e-06
1.1971851e-06
-1.6818234e-06
-1.6631726e-06
-8.6107951e-07
1.5129913e-06
1.538915e-06
-2.0891664e-06
-2.068561e-06
-8.6836867e-07
1.5337453e-06
1.5607121e-06
-2.0797713e-06
-2.0601433e-06
-8.6838869e-07
1.3671237e-06
1.3957542e-06
-1.8431458e-06
-1.8243511e-06
-8.6390663e-07
1.0921143e-06
1.1235653e-06
-1.4770712e-06
-1.4578811e-06
-8.5466784e-07
7.5709963e-07
7.9076649e-07
-1.0379597e-06
-1.0183372e-06
-8.417303e-07
3.8725242e-07
4.204026e-07
-5.5395584e-07
-5.3506414e-07
-8.2603244e-07
1.4432978e-09
3.159772e-08
-4.7983351e-08
-3.0806225e-08
-8.0819604e-07
-3.8934031e-07
-3.6344705e-07
4.6450255e-07
4.7988672e-07
-7.881256e-07
-7.7360933e-07
-7.5280737e-07
9.6812863e-07
9.8198929e-07
-7.6629462e-07
-1.1432166e-06
-1.1282207e-06
1.4524772e-06
1.4643303e-06
-7.4297998e-07
-1.4879917e-06
-1.4779678e-06
1.9043907e-06
1.9135571e-06
-7.1875122e-07
-1.7988622e-06
-1.7911753e-06
2.3117441e-06
2.3189022e-06
-6.9419985e-07
-2.065445e-06
-2.0580616e-06
2.6625213e-06
2.6692172e-06
-6.6955153e-07
-2.2829697e-06
-2.2745305e-06
2.9499703e-06
2.9582191e-06
-6.4543146e-07
-2.4505867e-06
-2.4365274e-06
3.1688044e-06
3.1834755e-06
-6.2210386e-07
-2.5679332e-06
-2.5412642e-06
3.3158297e-06
3.343592e-06
-5.9995767e-07
-2.6363093e-06
-2.589814e-06
3.392072e-06
3.4391727e-06
-5.7912316e-07
-2.6582437e-06
-2.5848181e-06
3.3999811e-06
3.472533e-06
-5.5975742e-07
-2.6323971e-06
-2.5342413e-06
3.3459913e-06
3.443195e-06
-5.4181638e-07
-2.5581806e-06
-2.4496089e-06
3.2425561e-06
3.3504531e-06
-5.2527776e-07
-2.431042e-06
-2.3302219e-06
3.0969392e-06
3.1918175e-06
-5.1060354e-07
-2.2412707e-06
-2.169094e-06
2.903937e-06
2.9638497e-06
-4.9810615e-07
-2.0074085e-06
-1.978085e-06
2.6655825e-06
2.6848119e-06
-4.8797412e-07
-1.7629778e-06
-1.7752868e-06
2.3956562e-06
2.3823398e-06
-4.8026759e-07
-1.5193973e-06
-1.5583783e-06
2.1004913e-06
2.0678425e-06
-4.7494238e-07
-1.2727738e-06
-1.3200905e-06
1.7806802e-06
1.7416574e-06
-4.7174159e-07
-1.0150299e-06
-1.0655413e-06
1.4415334e-06
1.3996885e-06
-4.7149145e-07
-7.4493096e-07
-8.0218218e-07
1.0906427e-06
1.0432299e-06
-4.7377649e-07
-4.6809839e-07
-5.3126944e-07
7.2979482e-07
6.7750336e-07
-4.7880592e-07
-1.9141306e-07
-2.5459578e-07
3.6243125e-07
3.100246e-07
-4.8396867e-07
7.9432973e-08
2.3537037e-08
-8.8457598e-09
-5.4652772e-08
-4.906713e-07
3.3767099e-07
2.9708574e-07
-3.7592168e-07
-4.0776406e-07
-5.0070152e-07
5.8475943e-07
5.6388961e-07
-7.353768e-07
-7.4973806e-07
-5.1419732e-07
8.288745e-07
8.2346612e-07
-1.0866981e-06
-1.0872725e-06
-5.3201276e-07
1.0768149e-06
1.0768008e-06
-1.4286326e-06
-1.424725e-06
-5.5407674e-07
1.3228571e-06
1.3201122e-06
-1.756424e-06
-1.7557977e-06
-5.7993598e-07
1.554291e-06
1.5461064e-06
-2.0620742e-06
-2.0669286e-06
-6.0898914e-07
1.7706188e-06
1.7523967e-06
-2.3423935e-06
-2.3555067e-06
-6.4022805e-07
1.9716795e-06
1.9368692e-06
-2.5941367e-06
-2.6195464e-06
-6.7240936e-07
2.1491002e-06
2.0957526e-06
-2.8105943e-06
-2.8497232e-06
-7.0430832e-07
2.289253e-06
2.2193036e-06
-2.9786991e-06
-3.0313484e-06
-7.3408587e-07
2.3681561e-06
2.2874187e-06
-3.0744237e-06
-3.1379216e-06
-7.5977908e-07
2.3435789e-06
2.2620459e-06
-3.0541623e-06
-3.1208439e-06
-7.7760104e-07
2.1446388e-06
2.0744212e-06
-2.8352203e-06
-2.8936472e-06
-7.8222613e-07
1.6516633e-06
1.6049901e-06
-2.2484479e-06
-2.2878178e-06
6.914335e-07
6.7503684e-07
-9.6918733e-07
-9.8322593e-07
-7.870937e-07
2.5282505e-07
3.620609e-07
-5.5779406e-07
-8.1948076e-07
7.9059509e-07
1.1323538e-06
-1.6746861e-06
-8.3600575e-07
1.0368667e-06
1.4996328e-06
-2.1234866e-06
-8.4338081e-07
1.0578988e-06
1.5486449e-06
-2.1404203e-06
-8.4421981e-07
9.4172087e-07
1.401147e-06
-1.9105591e-06
-8.4084515e-07
7.4770928e-07
1.138773e-06
-1.537643e-06
-8.3328366e-07
5.1198031e-07
8.1046535e-07
-1.0821007e-06
-8.2234401e-07
2.5385432e-07
4.4158661e-07
-5.772833e-07
-8.0873632e-07
-1.4254933e-08
5.168315e-08
-4.6598653e-08
-7.9277155e-07
-2.8417524e-07
-3.4555324e-07
4.9038903e-07
-7.746637e-07
-5.4851297e-07
-7.3915011e-07
1.0194319e-06
-7.5470113e-07
-8.0141682e-07
-1.1190119e-06
1.5263416e-06
-7.3326915e-07
-1.0376623e-06
-1.4727904e-06
1.9981871e-06
-7.1084357e-07
-1.2509803e-06
-1.7866258e-06
2.4196032e-06
-6.8784112e-07
-1.4327518e-06
-2.051474e-06
2.7791153e-06
-6.6469002e-07
-1.5781374e-06
-2.2639316e-06
3.0694521e-06
-6.4171422e-07
-1.687074e-06
-2.4203598e-06
3.2855766e-06
-6.1932937e-07
-1.7605273e-06
-2.5177521e-06
3.4251748e-06
-5.9777889e-07
-1.8002756e-06
-2.5574587e-06
3.4898599e-06
-5.7712779e-07
-1.8073541e-06
-2.5436798e-06
3.4842171e-06
-5.5761836e-07
-1.7802923e-06
-2.486001e-06
3.4165284e-06
-5.391338e-07
-1.7214332e-06
-2.3937962e-06
3.2977355e-06
-5.2196287e-07
-1.6287678e-06
-2.2615522e-06
3.1310831e-06
-5.0673233e-07
-1.4920206e-06
-2.0860252e-06
2.9148169e-06
-4.937289e-07
-1.3246421e-06
-1.8916209e-06
2.6611648e-06
-4.831193e-07
-1.1560026e-06
-1.6994589e-06
2.3859277e-06
-4.7494296e-07
-9.9513186e-07
-1.4954747e-06
2.0874713e-06
-4.6927593e-07
-8.3519379e-07
-1.2669022e-06
1.7637015e-06
-4.6591182e-07
-6.6607936e-07
-1.0224504e-06
1.4226552e-06
-4.6553416e-07
-4.8570514e-07
-7.7139455e-07
1.072898e-06
-4.6788137e-07
-2.9979378e-07
-5.1399238e-07
7.1536016e-07
-4.7309029e-07
-1.1418922e-07
-2.5001864e-07
3.5155852e-07
-4.7947296e-07
6.576302e-08
1.6248623e-08
-1.6459879e-08
-4.8762029e-07
2.3428353e-07
2.7830479e-07
-3.8114458e-07
-4.9843554e-07
3.9311038e-07
5.3364452e-07
-7.38953e-07
-5.1191618e-07
5.5044756e-07
7.8123859e-07
-1.0891183e-06
-5.2853956e-07
7.123429e-07
1.0225612e-06
-1.4307272e-06
-5.4818237e-07
8.754078e-07
1.2557309e-06
-1.7604273e-06
-5.7069956e-07
1.0310667e-06
1.4752e-06
-2.0713709e-06
-5.9582777e-07
1.1795262e-06
1.6772751e-06
-2.359269e-06
-6.2299383e-07
1.3215573e-06
1.85837e-06
-2.6192761e-06
-6.5156965e-07
1.4504751e-06
2.015415e-06
-2.844223e-06
-6.8073943e-07
1.554143e-06
2.1381458e-06
-3.0197724e-06
-7.0927402e-07
1.6138195e-06
2.2048988e-06
-3.1191544e-06
-7.356345e-07
1.5991637e-06
2.1748308e-06
-3.0935716e-06
-7.5679348e-07
1.4584856e-06
1.9761854e-06
-2.8528963e-06
-7.671091e-07
1.1107802e-06
1.4994345e-06
-2.229085e-06
4.5817729e-07
6.1631583e-07
-9.4456943e-07
-7.8179078e-07
1.3992647e-07
3.6333506e-07
-5.5501187e-07
-8.1460166e-07
4.3212357e-07
1.1429114e-06
-1.6835618e-06
-8.3051699e-07
5.6674656e-07
1.5309518e-06
-2.1598571e-06
-8.3757659e-07
5.7350024e-07
1.5942363e-06
-2.1932414e-06
-8.385824e-07
5.0320159e-07
1.4517517e-06
-1.9663114e-06
-8.3567358e-07
3.928201e-07
1.1881387e-06
-1.5870809e-06
-8.2892323e-07
2.6386456e-07
8.549603e-07
-1.1204605e-06
-8.1890733e-07
1.2677082e-07
4.7906821e-07
-6.0137907e-07
-8.0637769e-07
-1.3067311e-08
8.0500739e-08
-5.4896827e-08
-7.9140092e-07
-1.5232056e-07
-3.2610917e-07
4.9879469e-07
-7.7435193e-07
-2.8743961e-07
-7.3031197e-07
1.0447656e-06
-7.5532092e-07
-4.1564417e-07
-1.1212343e-06
1.5681042e-06
-7.3473694e-07
-5.3559954e-07
-1.4847371e-06
2.0545825e-06
-7.1295611e-07
-6.444972e-07
-1.8050675e-06
2.4877672e-06
-6.9044981e-07
-7.36382e-07
-2.0746922e-06
2.8565355e-06
-6.6756109e-07
-8.0769597e-07
-2.2911561e-06
3.1540639e-06
-6.446419e-07
-8.5887071e-07
-2.4504711e-06
3.3751319e-06
-6.2213068e-07
-8.9129913e-07
-2.5490493e-06
3.517117e-06
-6.0026531e-07
-9.0590288e-07
-2.5883272e-06
3.5820995e-06
-5.7915252e-07
-9.0090062e-07
-2.5741303e-06
3.5761019e-06
-5.5905888e-07
-8.7477063e-07
-2.5159968e-06
3.5075525e-06
-5.3999478e-07
-8.3339204e-07
-2.4196104e-06
3.384014e-06
-5.2237032e-07
-7.7932527e-07
-2.2795585e-06
3.2069171e-06
-5.0677676e-07
-7.0588406e-07
-2.0985361e-06
2.9785936e-06
-4.9341818e-07
-6.2033422e-07
-1.9051082e-06
2.7169789e-06
-4.8240508e-07
-5.4011696e-07
-1.7178959e-06
2.4376408e-06
-4.7377973e-07
-4.6911817e-07
-1.5158352e-06
2.1332023e-06
-4.676634e-07
-4.0029083e-07
-1.2852534e-06
1.8004908e-06
-4.6391112e-07
-3.2320736e-07
-1.0387288e-06
1.4505385e-06
-4.6312615e-07
-2.3535236e-07
-7.8676811e-07
1.0926872e-06
-4.6509519e-07
-1.4258281e-07
-5.2888297e-07
7.2747447e-07
-4.6984973e-07
-5.0057136e-08
-2.6346902e-07
3.5564621e-07
-4.7591038e-07
3.743933e-08
5.2834171e-09
-2.0951092e-08
-4.8382894e-07
1.1488757e-07
2.7029918e-07
-3.9457972e-07
-4.9441957e-07
1.8424555e-07
5.287607e-07
-7.6158693e-07
-5.0771525e-07
2.5282231e-07
7.7909587e-07
-1.1203002e-06
-5.2408914e-07
3.2547057e-07
1.0228952e-06
-1.4700505e-06
-5.4337743e-07
4.0157983e-07
1.2596594e-06
-1.8082366e-06
-5.6539404e-07
4.7714668e-07
1.4855414e-06
-2.1292702e-06
-5.8992461e-07
5.5286217e-07
1.6949842e-06
-2.427386e-06
-6.1641952e-07
6.3118884e-07
1.882225e-06
-2.6958169e-06
-6.443891e-07
7.0835419e-07
2.0442401e-06
-2.9268921e-06
-6.7323182e-07
7.7367185e-07
2.1698216e-06
-3.1051029e-06
-7.0197446e-07
8.1492816e-07
2.2358697e-06
-3.2018437e-06
-7.2925059e-07
8.1850853e-07
2.2004794e-06
-3.1658695e-06
-7.5214194e-07
7.5525304e-07
1.9899595e-06
-2.902832e-06
-7.6335746e-07
5.7639099e-07
1.4982215e-06
-2.2462549e-06
2.3529369e-07
6.101744e-07
-9.4302213e-07
-7.8039035e-07
3.4886884e-08
3.623935e-07
-5.5252845e-07
-8.1468135e-07
8.5725531e-08
1.1456803e-06
-1.6855006e-06
-8.3094681e-07
9.7871064e-08
1.5449334e-06
-2.1753485e-06
-8.3814129e-07
8.1912367e-08
1.6159329e-06
-2.2174454e-06
-8.3932009e-07
5.5312481e-08
1.475822e-06
-1.9922641e-06
-8.3661745e-07
3.0999694e-08
1.2112973e-06
-1.6103157e-06
-8.301225e-07
1.3673722e-08
8.7539366e-07
-1.1383813e-06
-8.2035956e-07
3.4404291e-09
4.9584124e-07
-6.1239889e-07
-8.0813995e-07
-1.9125363e-09
9.2639158e-08
-5.7780343e-08
-7.9344782e-07
-4.7675555e-09
-3.1918371e-07
5.0446997e-07
-7.7669576e-07
-6.2719858e-09
-7.2927587e-07
1.0593759e-06
-7.5788736e-07
-6.6552053e-09
-1.1263972e-06
1.5916047e-06
-7.3741925e-07
-6.6390885e-09
-1.4951416e-06
2.0858817e-06
-7.1565237e-07
-6.2050045e-09
-1.8190336e-06
2.5250387e-06
-6.9308554e-07
-3.9946979e-09
-2.0913741e-06
2.8985187e-06
-6.7003628e-07
2.5199161e-10
-2.3101616e-06
3.1999424e-06
-6.4688328e-07
5.4026448e-09
-2.4708341e-06
3.4237889e-06
-6.24068e-07
1.062362e-08
-2.5690013e-06
3.5670047e-06
-6.0184718e-07
1.7379325e-08
-2.6065357e-06
3.6319872e-06
-5.8042113e-07
3.0245686e-08
-2.5916339e-06
3.6263792e-06
-5.6005131e-07
5.0766234e-08
-2.533368e-06
3.5584215e-06
-5.4076894e-07
7.1936402e-08
-2.434325e-06
3.4328369e-06
-5.2306374e-07
8.6352242e-08
-2.2913824e-06
3.2509949e-06
-5.0742821e-07
9.279488e-08
-2.1116987e-06
3.0182083e-06
-4.9399448e-07
8.8790788e-08
-1.9207631e-06
2.7524809e-06
-4.8284691e-07
7.3104458e-08
-1.7321139e-06
2.467434e-06
-4.7401609e-07
5.0948361e-08
-1.5253966e-06
2.155837e-06
-4.6767414e-07
2.85697e-08
-1.2900247e-06
1.8159591e-06
-4.6373117e-07
1.3949043e-08
-1.0404737e-06
1.4600668e-06
-4.6274012e-07
9.1806879e-09
-7.8758661e-07
1.0976928e-06
-4.6450471e-07
8.4973356e-09
-5.2999911e-07
7.2892278e-07
-4.6900125e-07
7.48876e-09
-2.6473463e-07
3.5358741e-07
-4.7484904e-07
2.196347e-09
4.5598056e-09
-2.6763332e-08
-4.8259121e-07
-1.1476791e-08
2.7072051e-07
-4.0455216e-07
-4.9296462e-07
-3.1476451e-08
5.3036575e-07
-7.7569387e-07
-5.0605008e-07
-5.1870953e-08
7.8150393e-07
-1.1381079e-06
-5.2218405e-07
-6.9466755e-08
1.0259777e-06
-1.4915203e-06
-5.411918e-07
-8.1732993e-08
1.2644709e-06
-1.8340498e-06
-5.6291049e-07
-8.8192032e-08
1.4943091e-06
-2.1607689e-06
-5.8715213e-07
-8.7887245e-08
1.7083815e-06
-2.4647527e-06
-6.1338392e-07
-7.6028679e-08
1.899064e-06
-2.7376741e-06
-6.4119348e-07
-5.2363624e-08
2.063344e-06
-2.9715782e-06
-6.7007621e-07
-2.6192685e-08
2.1892644e-06
-3.1501591e-06
-6.9916569e-07
-3.1533712e-09
2.2525776e-06
-3.2437378e-06
-7.2705341e-07
2.2502253e-08
2.2123383e-06
-3.2008166e-06
-7.5079402e-07
4.5555601e-08
1.9955288e-06
-2.9259227e-06
-7.6215212e-07
4.5539533e-08
1.4973588e-06
-2.2539667e-06
1.7279995e-08
6.0750696e-07
-9.4247941e-07
-7.8065209e-07
-6.884215e-08
3.5944878e-07
-5.4997032e-07
-8.1511062e-07
-2.6007186e-07
1.1400678e-06
-1.6802693e-06
-8.314113e-07
-3.7375819e-07
1.5398911e-06
-2.1701106e-06
-8.3858498e-07
-4.1360597e-07
1.6109607e-06
-2.2123734e-06
-8.3971189e-07
-3.9565157e-07
1.4705494e-06
-1.9874993e-06
-8.3693454e-07
-3.3223679e-07
1.2060518e-06
-1.6062337e-06
-8.3035111e-07
-2.3627837e-07
8.7063395e-07
-1.135276e-06
-8.2048649e-07
-1.1854913e-07
4.9180807e-07
-6.1018823e-07
-8.0814986e-07
1.1056312e-08
8.9227122e-08
-5.609283e-08
-7.9335371e-07
1.446611e-07
-3.2200088e-07
5.0573227e-07
-7.7651891e-07
2.7650545e-07
-7.3146676e-07
1.0603973e-06
-7.5763781e-07
4.0349612e-07
-1.1278584e-06
1.5925136e-06
-7.3711623e-07
5.2310368e-07
-1.4961153e-06
2.0866135e-06
-7.1529957e-07
6.325935e-07
-1.8200176e-06
2.5254461e-06
-6.9267395e-07
7.2855499e-07
-2.0926667e-06
2.8987095e-06
-6.6957354e-07
8.0775491e-07
-2.3116551e-06
3.2001949e-06
-6.4638775e-07
8.6821239e-07
-2.4720337e-06
3.424236e-06
-6.2351798e-07
9.0995607e-07
-2.5685653e-06
3.5673063e-06
-6.0126563e-07
9.3658127e-07
-2.6038407e-06
3.6321477e-06
-5.7993469e-07
9.543742e-07
-2.5892252e-06
3.6278044e-06
-5.5971489e-07
9.6591084e-07
-2.5333359e-06
3.562227e-06
-5.4065254e-07
9.6509094e-07
-2.4362222e-06
3.4390154e-06
-5.2326727e-07
9.3951078e-07
-2.2969968e-06
3.2601346e-06
-5.0786749e-07
8.7908885e-07
-2.124595e-06
3.0311545e-06
-4.9456522e-07
7.859915e-07
-1.937479e-06
2.7662153e-06
-4.8347294e-07
6.7523368e-07
-1.7431735e-06
2.4759448e-06
-4.7460878e-07
5.6143182e-07
-1.5275651e-06
2.1574383e-06
-4.6821283e-07
4.5036659e-07
-1.2864798e-06
1.8130712e-06
-4.6423474e-07
3.4645521e-07
-1.0343237e-06
1.455124e-06
-4.6319546e-07
2.5064008e-07
-7.8099516e-07
1.0924114e-06
-4.649097e-07
1.5754631e-07
-5.2428858e-07
7.2428956e-07
-4.6934017e-07
6.3476336e-08
-2.6029304e-07
3.4990155e-07
-4.7511678e-07
-3.4269303e-08
8.2025191e-09
-2.9783186e-08
-4.8279336e-07
-1.3849302e-07
2.7429258e-07
-4.0738737e-07
-4.9308889e-07
-2.4684148e-07
5.3374517e-07
-7.7816677e-07
-5.0609333e-07
-3.5471925e-07
7.8423046e-07
-1.1398713e-06
-5.2214693e-07
-4.6108233e-07
1.0284568e-06
-1.4931943e-06
-5.4108164e-07
-5.6073922e-07
1.2678206e-06
-1.8366322e-06
-5.6273291e-07
-6.4885829e-07
1.4997544e-06
-2.1650702e-06
-5.8692682e-07
-7.2422009e-07
1.7161232e-06
-2.4709013e-06
-6.1308729e-07
-7.7893492e-07
1.9080834e-06
-2.744837e-06
-6.4081586e-07
-8.0782217e-07
2.0723036e-06
-2.9785943e-06
-6.6969387e-07
-8.2063951e-07
2.1963476e-06
-3.1556385e-06
-6.9884501e-07
-8.1702195e-07
2.2556482e-06
-3.2463424e-06
-7.2681077e-07
-7.6977388e-07
2.2120575e-06
-3.2009957e-06
-7.506883e-07
-6.5971886e-07
1.9949913e-06
-2.925523e-06
-7.6274664e-07
-4.8070416e-07
1.4975838e-06
-2.2536327e-06
-1.986614e-07
6.0795119e-07
-9.4266183e-07
-7.8246166e-07
-1.8122034e-07
3.5556671e-07
-5.4815545e-07
-8.1570476e-07
-6.2225224e-07
1.1276639e-06
-1.6691105e-06
-8.3167676e-07
-8.5511277e-07
1.5163481e-06
-2.1446383e-06
-8.3865254e-07
-9.1107277e-07
1.5796369e-06
-2.1783272e-06
-8.3946677e-07
-8.4360048e-07
1.4366576e-06
-1.9523465e-06
-8.3634631e-07
-6.9078483e-07
1.1734845e-06
-1.5752051e-06
-8.2934164e-07
-4.8304746e-07
8.4189385e-07
-1.1113612e-06
-8.1904101e-07
-2.4117051e-07
4.680591e-07
-5.9466863e-07
-8.0618555e-07
1.8184075e-08
7.1227185e-08
-4.9709736e-08
-7.9093385e-07
2.8282508e-07
-3.3382939e-07
5.0294244e-07
-7.7372163e-07
5.4298998e-07
-7.3647505e-07
1.0482793e-06
-7.545665e-07
7.9249514e-07
-1.1257872e-06
1.5711401e-06
-7.3387163e-07
1.0263368e-06
-1.4879964e-06
2.0568507e-06
-7.1199882e-07
1.239499e-06
-1.8079292e-06
2.4889975e-06
-6.8938543e-07
1.4252205e-06
-2.0779919e-06
2.8572281e-06
-6.6640863e-07
1.5773624e-06
-2.2948908e-06
3.1550419e-06
-6.434174e-07
1.6928179e-06
-2.453545e-06
3.3767721e-06
-6.2076255e-07
1.7723613e-06
-2.5484359e-06
3.5186535e-06
-5.988024e-07
1.8202203e-06
-2.5827802e-06
3.5834971e-06
-5.77884e-07
1.8423936e-06
-2.5699357e-06
3.5813986e-06
-5.5815133e-07
1.8432234e-06
-2.5179067e-06
3.519983e-06
-5.3968767e-07
1.8192756e-06
-2.4260753e-06
3.4026554e-06
-5.2292148e-07
1.7541585e-06
-2.2951638e-06
3.2325876e-06
-5.0797221e-07
1.6323515e-06
-2.1326895e-06
3.0133765e-06
-4.9496018e-07
1.4614652e-06
-1.9495527e-06
2.7534269e-06
-4.8407029e-07
1.2665731e-06
-1.7487323e-06
2.4611515e-06
-4.7537084e-07
1.0673609e-06
-1.5237882e-06
2.1390595e-06
-4.691158e-07
8.7088559e-07
-1.2772456e-06
1.7938508e-06
-4.6525916e-07
6.803399e-07
-1.0228454e-06
1.4376356e-06
-4.6433607e-07
4.9579129e-07
-7.6914642e-07
1.0784114e-06
-4.6616002e-07
3.1194395e-07
-5.132841e-07
7.1481076e-07
-4.7072207e-07
1.2585387e-07
-2.5111149e-07
3.4542787e-07
-4.7657958e-07
-6.3659993e-08
1.551693e-08
-2.9388902e-08
-4.8431907e-07
-2.5777503e-07
2.8038083e-07
-4.0260433e-07
-4.9471156e-07
-4.535043e-07
5.3835413e-07
-7.6875525e-07
-5.0780773e-07
-6.4692616e-07
7.869856e-07
-1.1256511e-06
-5.2397837e-07
-8.3900249e-07
1.0302233e-06
-1.4752307e-06
-5.4307676e-07
-1.0227807e-06
1.2693702e-06
-1.8159327e-06
-5.649356e-07
-1.1897687e-06
1.5007926e-06
-2.1416914e-06
-5.8928731e-07
-1.3377568e-06
1.7163367e-06
-2.4448816e-06
-6.1557647e-07
-1.4561356e-06
1.9070004e-06
-2.7161565e-06
-6.4337449e-07
-1.5376389e-06
2.0688924e-06
-2.946935e-06
-6.7213812e-07
-1.5918838e-06
2.1893529e-06
-3.1208171e-06
-7.009764e-07
-1.6101996e-06
2.2445713e-06
-3.2095723e-06
-7.28448e-07
-1.5467213e-06
2.2005482e-06
-3.1672428e-06
-7.5172251e-07
-1.3604375e-06
1.9894411e-06
-2.9025075e-06
-7.6495784e-07
-1.0132282e-06
1.4995193e-06
-2.2454713e-06
-4.2090501e-07
6.1165883e-07
-9.4327732e-07
-7.8794454e-07
-3.1614197e-07
3.523528e-07
-5.4868134e-07
-8.2087229e-07
-1.0225316e-06
1.1119104e-06
-1.6543174e-06
-8.3738788e-07
-1.3546214e-06
1.4774635e-06
-2.099937e-06
-8.4462827e-07
-1.4099973e-06
1.5256584e-06
-2.1165195e-06
-8.4512422e-07
-1.2846289e-06
1.378382e-06
-1.8888285e-06
-8.4143824e-07
-1.0411644e-06
1.1174024e-06
-1.5195755e-06
-8.3344415e-07
-7.2714626e-07
7.9173459e-07
-1.068083e-06
-8.2206719e-07
-3.6915152e-07
4.2567743e-07
-5.6664787e-07
-8.0795517e-07
1.0013307e-08
3.8162229e-08
-3.8108815e-08
-7.9164515e-07
3.9624111e-07
-3.571027e-07
4.9768696e-07
-7.7338851e-07
7.7573906e-07
-7.4885145e-07
1.0259368e-06
-7.5336662e-07
1.1402927e-06
-1.1269028e-06
1.5318361e-06
-7.3188227e-07
1.4811356e-06
-1.4788004e-06
2.0020035e-06
-7.0942621e-07
1.7911177e-06
-1.7912639e-06
2.4216112e-06
-6.8636076e-07
2.06087e-06
-2.0558873e-06
2.7802515e-06
-6.6316396e-07
2.2831685e-06
-2.2685713e-06
3.0709684e-06
-6.4011086e-07
2.4538525e-06
-2.4244428e-06
3.2881338e-06
-6.17546e-07
2.5730892e-06
-2.5184779e-06
3.4282762e-06
-5.9584539e-07
2.6442329e-06
-2.5539221e-06
3.4937723e-06
-5.7533036e-07
2.6713098e-06
-2.5433047e-06
3.4943878e-06
-5.5624321e-07
2.6585577e-06
-2.4939988e-06
3.4376487e-06
-5.3862963e-07
2.6064402e-06
-2.4068567e-06
3.3276053e-06
-5.2269431e-07
2.5026279e-06
-2.2837541e-06
3.167824e-06
-5.0841989e-07
2.3333296e-06
-2.1290794e-06
2.9595057e-06
-4.9594194e-07
2.107391e-06
-1.9479201e-06
2.7069159e-06
-4.8552778e-07
1.8482672e-06
-1.7417467e-06
2.4176374e-06
-4.7727584e-07
1.5751542e-06
-1.5099035e-06
2.0978001e-06
-4.7142924e-07
1.2990425e-06
-1.2589963e-06
1.7563901e-06
-4.6791822e-07
1.0252789e-06
-1.0023089e-06
1.4054711e-06
-4.6734387e-07
7.5440078e-07
-7.4755974e-07
1.0528659e-06
-4.6946864e-07
4.8161722e-07
-4.9186182e-07
6.9700494e-07
-4.7437034e-07
2.0540177e-07
-2.3172696e-07
3.3639608e-07
-4.8042826e-07
-7.4263002e-08
3.1808421e-08
-2.9242687e-08
-4.8828167e-07
-3.5660359e-07
2.9362149e-07
-3.9346056e-07
-4.9881322e-07
-6.3795712e-07
5.4820438e-07
-7.5026582e-07
-5.1200903e-07
-9.1430952e-07
7.9337286e-07
-1.0979732e-06
-5.2832416e-07
-1.1873411e-06
1.0337795e-06
-1.439189e-06
-5.4768583e-07
-1.4495807e-06
1.2698361e-06
-1.772033e-06
-5.6995677e-07
-1.6904955e-06
1.4964096e-06
-2.089256e-06
-5.9477225e-07
-1.905996e-06
1.7064177e-06
-2.3840237e-06
-6.216439e-07
-2.0848634e-06
1.8921399e-06
-2.6480214e-06
-6.500266e-07
-2.2199888e-06
2.0494964e-06
-2.8731007e-06
-6.7906343e-07
-2.3167332e-06
2.1657392e-06
-3.0431687e-06
-7.076664e-07
-2.3586883e-06
2.2186366e-06
-3.131967e-06
-7.3431275e-07
-2.291818e-06
2.178581e-06
-3.0986319e-06
-7.5592226e-07
-2.055663e-06
1.9798594e-06
-2.8561951e-06
-7.6853606e-07
-1.5650989e-06
1.5046593e-06
-2.2313692e-06
-6.5883392e-07
6.2034332e-07
-9.4687605e-07
-8.0853257e-07
3.8345992e-07
-5.6133767e-07
-5.1306622e-07
-8.4468327e-07
1.176959e-06
-1.6591468e-06
-1.5505765e-06
-8.6220682e-07
1.5137328e-06
-2.0609854e-06
-1.9538806e-06
-8.6936155e-07
1.5337237e-06
-2.0510064e-06
-1.9733234e-06
-8.6923038e-07
1.3703874e-06
-1.818427e-06
-1.7664137e-06
-8.6428929e-07
1.1009111e-06
-1.4573683e-06
-1.419865e-06
-8.5459897e-07
7.7132129e-07
-1.0230156e-06
-9.9333488e-07
-8.4099977e-07
4.0378436e-07
-5.4251611e-07
-5.177124e-07
-8.2465125e-07
1.7291768e-08
-3.8670846e-08
-1.7933288e-08
-8.0632861e-07
-3.7609419e-07
4.7275757e-07
4.8944553e-07
-7.8612923e-07
-7.6408189e-07
9.7583631e-07
9.8783569e-07
-7.6423229e-07
-1.1379473e-06
1.459198e-06
1.4659676e-06
-7.4098457e-07
-1.4858055e-06
1.9093918e-06
1.9120354e-06
-7.1687211e-07
-1.7971289e-06
2.3147383e-06
2.3164614e-06
-6.92439e-07
-2.063139e-06
2.6646189e-06
2.6685465e-06
-6.6793242e-07
-2.2794775e-06
2.9523773e-06
2.9602756e-06
-6.4392592e-07
-2.4412852e-06
3.1725248e-06
3.1865442e-06
-6.2057113e-07
-2.5444247e-06
3.3210443e-06
3.3460552e-06
-5.9833677e-07
-2.5913572e-06
3.3996254e-06
3.4405873e-06
-5.7754857e-07
-2.5910039e-06
3.4150186e-06
3.4722768e-06
-5.5855298e-07
-2.5496389e-06
3.3733584e-06
3.4439079e-06
-5.4144621e-07
-2.4704251e-06
3.2796605e-06
3.3592231e-06
-5.2610264e-07
-2.3564361e-06
3.1376681e-06
3.2166763e-06
-5.1244474e-07
-2.2079292e-06
2.9457488e-06
3.010791e-06
-5.0060678e-07
-2.0258361e-06
2.7055107e-06
2.748558e-06
-4.9079921e-07
-1.8133257e-06
2.4248597e-06
2.4447907e-06
-4.8307171e-07
-1.5735657e-06
2.1109239e-06
2.1129354e-06
-4.7760793e-07
-1.3138933e-06
1.7727393e-06
1.7663217e-06
-4.742667e-07
-1.0464777e-06
1.4225335e-06
1.4137667e-06
-4.7381842e-07
-7.787089e-07
1.0683831e-06
1.0582743e-06
-4.7588048e-07
-5.0880748e-07
7.0920421e-07
6.9683343e-07
-4.805948e-07
-2.3524244e-07
3.4519313e-07
3.2996405e-07
-4.8528687e-07
4.0967085e-08
-2.3832464e-08
-4.2205969e-08
-4.9139895e-07
3.1531022e-07
-3.909487e-07
-4.1519114e-07
-5.0090704e-07
5.8263044e-07
-7.5003843e-07
-7.8475333e-07
-5.139378e-07
8.4062983e-07
-1.0990717e-06
-1.1472438e-06
-5.3131277e-07
1.0929898e-06
-1.4403259e-06
-1.502395e-06
-5.529286e-07
1.3381927e-06
-1.7708607e-06
-1.8437496e-06
-5.7832896e-07
1.5695987e-06
-2.0825057e-06
-2.1605475e-06
-6.0689758e-07
1.781363e-06
-2.3691751e-06
-2.4471432e-06
-6.3772953e-07
1.967975e-06
-2.6241345e-06
-2.6935456e-06
-6.6966272e-07
2.1260645e-06
-2.8405809e-06
-2.8917871e-06
-7.0148836e-07
2.243405e-06
-3.0035922e-06
-3.0404744e-06
-7.3146978e-07
2.2994507e-06
-3.0894748e-06
-3.1189391e-06
-7.5761869e-07
2.2671496e-06
-3.0626886e-06
-3.0720342e-06
-7.7602905e-07
2.0815102e-06
-2.842589e-06
-2.8203124e-06
-7.8251097e-07
1.6137094e-06
-2.2542775e-06
-2.218562e-06
6.8124127e-07
-9.7363671e-07
-9.5683719e-07
-7.8669571e-07
3.4844667e-07
2.6025197e-07
-5.4611988e-07
-8.1881387e-07
1.101049e-06
8.0723904e-07
-1.6481199e-06
-8.3519153e-07
1.4624002e-06
1.0573386e-06
-2.093367e-06
-8.4249408e-07
1.509179e-06
1.0832046e-06
-2.1110993e-06
-8.4333118e-07
1.3597506e-06
9.7377344e-07
-1.8825086e-06
-8.4004158e-07
1.0945942e-06
7.872406e-07
-1.509722e-06
-8.3257351e-07
7.6445601e-07
5.5695559e-07
-1.0542415e-06
-8.2172338e-07
3.9716987e-07
2.9934928e-07
-5.5089004e-07
-8.0822193e-07
1.1821883e-08
2.7304286e-08
-2.293742e-08
-7.9236389e-07
-3.7924645e-07
-2.4959563e-07
5.1119805e-07
-7.7436664e-07
-7.6508385e-07
-5.2406713e-07
1.0374891e-06
-7.5449486e-07
-1.136561e-06
-7.8861246e-07
1.5414346e-06
-7.3310149e-07
-1.4842727e-06
-1.0330629e-06
2.0104692e-06
-7.107272e-07
-1.7973452e-06
-1.2476853e-06
2.4305945e-06
-6.8774623e-07
-2.0640058e-06
-1.4274763e-06
2.7902176e-06
-6.6458932e-07
-2.2784502e-06
-1.5722937e-06
3.0822584e-06
-6.4156308e-07
-2.4409603e-06
-1.680541e-06
3.3050639e-06
-6.1910522e-07
-2.5521447e-06
-1.7490522e-06
3.4584349e-06
-5.9749686e-07
-2.6147343e-06
-1.7767367e-06
3.5439506e-06
-5.7689326e-07
-2.6330294e-06
-1.7650287e-06
3.5661896e-06
-5.5741952e-07
-2.6055048e-06
-1.7203193e-06
3.525218e-06
-5.3904682e-07
-2.5312206e-06
-1.6512021e-06
3.4201902e-06
-5.2199584e-07
-2.4024116e-06
-1.5588191e-06
3.2478055e-06
-5.0678977e-07
-2.2047773e-06
-1.4424803e-06
3.0034074e-06
-4.9382517e-07
-1.9594464e-06
-1.313099e-06
2.7061282e-06
-4.832388e-07
-1.7063644e-06
-1.1824885e-06
2.3867886e-06
-4.7510655e-07
-1.4605222e-06
-1.0440233e-06
2.0599201e-06
-4.6943927e-07
-1.2172532e-06
-8.8862008e-07
1.7260689e-06
-4.6605275e-07
-9.6518343e-07
-7.2061179e-07
1.3794731e-06
-4.6563217e-07
-7.0208069e-07
-5.4648111e-07
1.0211214e-06
-4.6789113e-07
-4.3433674e-07
-3.661996e-07
6.5597967e-07
-4.7286801e-07
-1.6907128e-07
-1.7970939e-07
2.9072678e-07
-4.7915318e-07
8.8158145e-08
8.0708282e-09
-7.0409636e-08
-4.874501e-07
3.3051766e-07
1.9174427e-07
-4.1922347e-07
-4.9826407e-07
5.5993506e-07
3.7026781e-07
-7.5638889e-07
-5.1169572e-07
7.8690875e-07
5.4380492e-07
-1.0897811e-06
-5.2827074e-07
1.0212153e-06
7.1318729e-07
-1.4261724e-06
-5.478833e-07
1.2576376e-06
8.7576826e-07
-1.7600464e-06
-5.7037935e-07
1.4817947e-06
1.0271772e-06
-2.0761368e-06
-5.9545246e-07
1.6933522e-06
1.1652149e-06
-2.3711568e-06
-6.2254609e-07
1.8932323e-06
1.2880475e-06
-2.6438294e-06
-6.5101648e-07
2.0725661e-06
1.3954618e-06
-2.8843549e-06
-6.8010225e-07
2.216006e-06
1.481594e-06
-3.0761713e-06
-7.08608e-07
2.2968411e-06
1.5319583e-06
-3.1890834e-06
-7.350358e-07
2.269546e-06
1.5179521e-06
-3.1687509e-06
-7.5633611e-07
2.0607467e-06
1.3871959e-06
-2.9211999e-06
-7.6698639e-07
1.5582925e-06
1.0609954e-06
-2.2767614e-06
6.3796456e-07
4.3992282e-07
-9.6209932e-07
-7.593755e-07
2.3412679e-07
2.4356343e-07
-7.811113e-07
7.4861351e-07
7.7056886e-07
-7.9017291e-07
1.0087948e-06
1.0375511e-06
-7.9324003e-07
1.0455309e-06
1.0813212e-06
-7.9234033e-07
9.3919083e-07
9.8332497e-07
-7.8892736e-07
7.5095738e-07
8.0370259e-07
-7.8270269e-07
5.1921228e-07
5.7762337e-07
-7.7435666e-07
2.6403836e-07
3.220209e-07
-7.6348711e-07
-2.1305184e-09
4.997348e-08
-7.504471e-07
-2.7111554e-07
-2.2863196e-07
-7.3545716e-07
-5.3535695e-07
-5.0691501e-07
-7.1876351e-07
-7.8900958e-07
-7.768594e-07
-7.0075325e-07
-1.027991e-06
-1.0257757e-06
-6.8178532e-07
-1.2451632e-06
-1.2417655e-06
-6.6219603e-07
-1.429379e-06
-1.4209338e-06
-6.4233513e-07
-1.5748833e-06
-1.5647065e-06
-6.2251455e-07
-1.6825311e-06
-1.6716054e-06
-6.0313711e-07
-1.7541358e-06
-1.7376256e-06
-5.8437938e-07
-1.7926248e-06
-1.7612164e-06
-5.6635042e-07
-1.7991766e-06
-1.7441306e-06
-5.4915097e-07
-1.7720087e-06
-1.6939422e-06
-5.3264966e-07
-1.714289e-06
-1.617888e-06
-5.1737633e-07
-1.6209807e-06
-1.5147173e-06
-5.0409149e-07
-1.4776488e-06
-1.3883755e-06
-4.9304824e-07
-1.300436e-06
-1.258753e-06
-4.8430305e-07
-1.1240143e-06
-1.1389754e-06
-4.7790962e-07
-9.6118817e-07
-1.0123237e-06
-4.7396336e-07
-8.0433807e-07
-8.640728e-07
-4.7234194e-07
-6.3873599e-07
-7.0232618e-07
-4.7359554e-07
-4.6110553e-07
-5.3611434e-07
-4.7750523e-07
-2.7921832e-07
-3.6414748e-07
-4.841205e-07
-9.9931352e-08
-1.8429738e-07
-4.9264673e-07
7.1369089e-08
-2.4265328e-09
-5.0306975e-07
2.2848576e-07
1.7490649e-07
-5.1528157e-07
3.7364629e-07
3.4657145e-07
-5.291799e-07
5.1731214e-07
5.1213517e-07
-5.4486356e-07
6.6816131e-07
6.7257893e-07
-5.6202799e-07
8.2320371e-07
8.2704491e-07
-5.8065406e-07
9.7281603e-07
9.7325611e-07
-6.0065497e-07
1.1175202e-06
1.1075235e-06
-6.218399e-07
1.2591055e-06
1.2265485e-06
-6.4419416e-07
1.3904857e-06
1.3311955e-06
-6.67555e-07
1.4975169e-06
1.4156751e-06
-6.9168806e-07
1.5593495e-06
1.4652737e-06
-7.1597808e-07
1.5445803e-06
1.450015e-06
-7.3854052e-07
1.4004107e-06
1.3146234e-06
-7.5314577e-07
1.0499726e-06
9.8705919e-07
4.2426497e-07
4.0017556e-07
-7.549366e-07
1.377595e-07
2.4720367e-07
-7.7637118e-07
4.2772001e-07
7.8615127e-07
-7.8372313e-07
5.7046151e-07
1.0712213e-06
-7.8541446e-07
5.8138485e-07
1.1260751e-06
-7.8395439e-07
5.1088364e-07
1.0309961e-06
-7.8055339e-07
3.9931984e-07
8.4956039e-07
-7.7497894e-07
2.7016425e-07
6.1923501e-07
-7.6748616e-07
1.3361328e-07
3.5773391e-07
-7.5775843e-07
-5.5401491e-09
7.8449335e-08
-7.4579639e-07
-1.4433814e-07
-2.0847293e-07
-7.3201253e-07
-2.7943257e-07
-4.9638764e-07
-7.1640236e-07
-4.0837571e-07
-7.7647718e-07
-6.9941601e-07
-5.304671e-07
-1.034184e-06
-6.813041e-07
-6.4207878e-07
-1.2562301e-06
-6.6241706e-07
-7.3560444e-07
-1.4400219e-06
-6.4310144e-07
-8.0716468e-07
-1.5877495e-06
-6.2363372e-07
-8.5796143e-07
-1.6974284e-06
-6.0448812e-07
-8.9023304e-07
-1.7643014e-06
-5.8581957e-07
-9.0507199e-07
-1.7869752e-06
-5.677546e-07
-8.9903923e-07
-1.7685202e-06
-5.5040067e-07
-8.704167e-07
-1.7162765e-06
-5.3372773e-07
-8.2727862e-07
-1.6350711e-06
-5.1837928e-07
-7.7061572e-07
-1.5255478e-06
-5.050867e-07
-6.9147581e-07
-1.3971675e-06
-4.9402388e-07
-5.997518e-07
-1.2712819e-06
-4.8517916e-07
-5.160848e-07
-1.1573248e-06
-4.7859636e-07
-4.4653586e-07
-1.0327311e-06
-4.7440525e-07
-3.8248606e-07
-8.8234046e-07
-4.7255733e-07
-3.08498e-07
-7.1826179e-07
-4.7353474e-07
-2.2139668e-07
-5.5124309e-07
-4.7716066e-07
-1.3003679e-07
-3.7898874e-07
-4.8338378e-07
-4.0738142e-08
-1.975843e-07
-4.9155584e-07