/*--------------------------------*- C++ -*----------------------------------*\
| =========                 |                                                 |
| \\      /  F ield         | foam-extend: Open Source CFD                    |
|  \\    /   O peration     | Version:     4.1-20200408                       |
|   \\  /    A nd           | Web:         http://www.foam-extend.org         |
|    \\/     M anipulation  |                                                 |
\*---------------------------------------------------------------------------*/
FoamFile
{
    version     2.0;
    format      ascii;
    class       volScalarField;
    location    "0.1000000";
    object      sigmaHyd;
}
// * * * * * * * * * * * * * * * * * * * * * * * * * * * * * * * * * * * * * //

dimensions      [1 -1 -2 0 0 0 0];

internalField   nonuniform List<scalar> 
1952
(
-6.04836e+08
-5.80395e+08
-5.46399e+08
-5.04444e+08
-4.53264e+08
-3.97936e+08
-3.36174e+08
-2.63318e+08
-1.82931e+08
-8.38086e+07
2.35775e+07
1.74327e+08
3.26519e+08
4.79649e+08
5.83284e+08
-6.16736e+08
-5.9501e+08
-5.70547e+08
-5.36541e+08
-4.94671e+08
-4.43431e+08
-3.88254e+08
-3.26451e+08
-2.53828e+08
-1.73471e+08
-7.47005e+07
3.25543e+07
1.82761e+08
3.34679e+08
4.86839e+08
5.90087e+08
-6.06822e+08
-5.90829e+08
-5.6638e+08
-5.32413e+08
-4.90616e+08
-4.39444e+08
-3.84403e+08
-3.22705e+08
-2.50291e+08
-1.70119e+08
-7.16626e+07
3.52558e+07
1.84921e+08
3.36137e+08
4.87225e+08
5.89003e+08
-6.026e+08
-5.8745e+08
-5.63027e+08
-5.29124e+08
-4.87406e+08
-4.36331e+08
-3.81417e+08
-3.19857e+08
-2.47619e+08
-1.67636e+08
-6.94612e+07
3.71633e+07
1.86449e+08
3.37271e+08
4.87852e+08
5.89087e+08
-5.99198e+08
-5.84343e+08
-5.59949e+08
-5.26099e+08
-4.84448e+08
-4.33454e+08
-3.78677e+08
-3.17247e+08
-2.45219e+08
-1.65437e+08
-6.75397e+07
3.87759e+07
1.87652e+08
3.38025e+08
4.88069e+08
5.88677e+08
-5.96073e+08
-5.81657e+08
-5.57296e+08
-5.23494e+08
-4.81924e+08
-4.31019e+08
-3.76358e+08
-3.15075e+08
-2.43228e+08
-1.63663e+08
-6.60015e+07
4.00495e+07
1.88625e+08
3.38641e+08
4.88315e+08
5.88515e+08
-5.93375e+08
-5.79244e+08
-5.54915e+08
-5.21178e+08
-4.79683e+08
-4.2889e+08
-3.74343e+08
-3.13196e+08
-2.41502e+08
-1.62103e+08
-6.46777e+07
4.11307e+07
1.89418e+08
3.39144e+08
4.88505e+08
5.88358e+08
-5.90946e+08
-5.77169e+08
-5.52872e+08
-5.19177e+08
-4.77743e+08
-4.27014e+08
-3.72587e+08
-3.11552e+08
-2.40024e+08
-1.60792e+08
-6.35511e+07
4.20625e+07
1.90133e+08
3.39612e+08
4.88728e+08
5.88323e+08
-5.8886e+08
-5.75296e+08
-5.51033e+08
-5.17381e+08
-4.76018e+08
-4.25375e+08
-3.71035e+08
-3.10113e+08
-2.38706e+08
-1.59607e+08
-6.25343e+07
4.29059e+07
1.90778e+08
3.40062e+08
4.88974e+08
5.88376e+08
-5.86976e+08
-5.73644e+08
-5.49406e+08
-5.158e+08
-4.74488e+08
-4.23905e+08
-3.69656e+08
-3.08819e+08
-2.3753e+08
-1.58542e+08
-6.16171e+07
4.36851e+07
1.9139e+08
3.40543e+08
4.89279e+08
5.88524e+08
-5.85312e+08
-5.72164e+08
-5.47952e+08
-5.14367e+08
-4.73105e+08
-4.2257e+08
-3.68399e+08
-3.07639e+08
-2.36465e+08
-1.57578e+08
-6.07628e+07
4.44336e+07
1.92002e+08
3.41027e+08
4.89639e+08
5.88767e+08
-5.83825e+08
-5.708e+08
-5.46609e+08
-5.13064e+08
-4.71852e+08
-4.21377e+08
-3.67259e+08
-3.06573e+08
-2.35467e+08
-1.56665e+08
-5.99614e+07
4.51511e+07
1.92614e+08
3.41561e+08
4.90057e+08
5.89111e+08
-5.8245e+08
-5.69584e+08
-5.4541e+08
-5.11889e+08
-4.70708e+08
-4.20276e+08
-3.66224e+08
-3.05584e+08
-2.34556e+08
-1.558e+08
-5.91786e+07
4.58738e+07
1.93247e+08
3.42135e+08
4.90543e+08
5.89531e+08
-5.81226e+08
-5.68467e+08
-5.44309e+08
-5.10807e+08
-4.69656e+08
-4.19246e+08
-3.65234e+08
-3.04632e+08
-2.33658e+08
-1.5495e+08
-5.83967e+07
4.6612e+07
1.93907e+08
3.4275e+08
4.91093e+08
5.90038e+08
-5.80101e+08
-5.67422e+08
-5.43274e+08
-5.09788e+08
-4.68659e+08
-4.18273e+08
-3.64298e+08
-3.03722e+08
-2.32798e+08
-1.54125e+08
-5.76305e+07
4.73575e+07
1.94605e+08
3.43414e+08
4.91696e+08
5.90629e+08
-5.7905e+08
-5.66448e+08
-5.42306e+08
-5.08831e+08
-4.67719e+08
-4.17356e+08
-3.63408e+08
-3.02848e+08
-2.31948e+08
-1.53275e+08
-5.68259e+07
4.81424e+07
1.95334e+08
3.4414e+08
4.92363e+08
5.91292e+08
-5.78071e+08
-5.65544e+08
-5.41404e+08
-5.07934e+08
-4.66827e+08
-4.16452e+08
-3.62527e+08
-3.01961e+08
-2.311e+08
-1.52427e+08
-5.60135e+07
4.89583e+07
1.96095e+08
3.44923e+08
4.93089e+08
5.92022e+08
-5.77161e+08
-5.64674e+08
-5.40532e+08
-5.07053e+08
-4.65954e+08
-4.15576e+08
-3.61658e+08
-3.0109e+08
-2.30256e+08
-1.51589e+08
-5.51912e+07
4.97979e+07
1.96911e+08
3.45741e+08
4.93877e+08
5.9283e+08
-5.7629e+08
-5.63834e+08
-5.39687e+08
-5.06217e+08
-4.65122e+08
-4.14755e+08
-3.60834e+08
-3.00258e+08
-2.29416e+08
-1.50721e+08
-5.43512e+07
5.06648e+07
1.97753e+08
3.46624e+08
4.94729e+08
5.93713e+08
-5.75444e+08
-5.63086e+08
-5.3893e+08
-5.0545e+08
-4.64341e+08
-4.13947e+08
-3.60036e+08
-2.99424e+08
-2.28596e+08
-1.4986e+08
-5.34915e+07
5.15726e+07
1.98653e+08
3.47565e+08
4.9565e+08
5.94676e+08
-5.74694e+08
-5.6238e+08
-5.38213e+08
-5.0472e+08
-4.63604e+08
-4.13184e+08
-3.59253e+08
-2.98607e+08
-2.27762e+08
-1.48977e+08
-5.26033e+07
5.25187e+07
1.99594e+08
3.48565e+08
4.9663e+08
5.9572e+08
-5.73986e+08
-5.6174e+08
-5.37557e+08
-5.04052e+08
-4.62915e+08
-4.12461e+08
-3.58512e+08
-2.97809e+08
-2.26944e+08
-1.48083e+08
-5.16981e+07
5.34977e+07
2.00575e+08
3.49638e+08
4.97695e+08
5.96851e+08
-5.73344e+08
-5.61198e+08
-5.36994e+08
-5.03457e+08
-4.62291e+08
-4.11781e+08
-3.57803e+08
-2.97031e+08
-2.26148e+08
-1.47209e+08
-5.07882e+07
5.45113e+07
2.01607e+08
3.50764e+08
4.9883e+08
5.98081e+08
-5.72804e+08
-5.60732e+08
-5.36504e+08
-5.02941e+08
-4.61751e+08
-4.11193e+08
-3.57168e+08
-2.9632e+08
-2.2538e+08
-1.46341e+08
-4.98796e+07
5.55398e+07
2.02684e+08
3.51963e+08
5.00054e+08
5.99423e+08
-5.72339e+08
-5.60418e+08
-5.36161e+08
-5.02564e+08
-4.61328e+08
-4.10703e+08
-3.5663e+08
-2.95675e+08
-2.24674e+08
-1.45484e+08
-4.89663e+07
5.66024e+07
2.03788e+08
3.53237e+08
5.0137e+08
6.00876e+08
-5.72026e+08
-5.60278e+08
-5.35988e+08
-5.02333e+08
-4.61048e+08
-4.10314e+08
-3.5618e+08
-2.95098e+08
-2.24033e+08
-1.44704e+08
-4.80914e+07
5.76669e+07
2.0495e+08
3.54577e+08
5.02778e+08
6.02464e+08
-5.71893e+08
-5.60303e+08
-5.35976e+08
-5.02271e+08
-4.60935e+08
-4.1012e+08
-3.55893e+08
-2.9467e+08
-2.23486e+08
-1.43951e+08
-4.72376e+07
5.87361e+07
2.06113e+08
3.55988e+08
5.04286e+08
6.04194e+08
-5.71922e+08
-5.60616e+08
-5.36247e+08
-5.0247e+08
-4.61057e+08
-4.10098e+08
-3.55785e+08
-2.94376e+08
-2.23085e+08
-1.43331e+08
-4.6476e+07
5.97729e+07
2.07303e+08
3.57478e+08
5.05898e+08
6.06078e+08
-5.72245e+08
-5.61209e+08
-5.36797e+08
-5.0293e+08
-4.61444e+08
-4.10349e+08
-3.55912e+08
-2.94303e+08
-2.22857e+08
-1.42831e+08
-4.57961e+07
6.07713e+07
2.08478e+08
3.58995e+08
5.07609e+08
6.08128e+08
-5.72851e+08
-5.6217e+08
-5.37709e+08
-5.03756e+08
-4.62181e+08
-4.10917e+08
-3.5634e+08
-2.94493e+08
-2.2286e+08
-1.42531e+08
-4.52917e+07
6.16618e+07
2.09618e+08
3.60571e+08
5.09419e+08
6.10354e+08
-5.73824e+08
-5.63589e+08
-5.39079e+08
-5.05006e+08
-4.63328e+08
-4.1188e+08
-3.57152e+08
-2.95029e+08
-2.23186e+08
-1.4248e+08
-4.49718e+07
6.24345e+07
2.10688e+08
3.62131e+08
5.11307e+08
6.12752e+08
-5.75265e+08
-5.65524e+08
-5.40968e+08
-5.06775e+08
-4.6499e+08
-4.13321e+08
-3.58405e+08
-2.95971e+08
-2.23862e+08
-1.42741e+08
-4.49274e+07
6.30057e+07
2.11623e+08
3.63692e+08
5.13241e+08
6.15326e+08
-5.7722e+08
-5.68084e+08
-5.43481e+08
-5.0914e+08
-4.67232e+08
-4.15325e+08
-3.60216e+08
-2.97427e+08
-2.25044e+08
-1.43429e+08
-4.52387e+07
6.33116e+07
2.12351e+08
3.65165e+08
5.15184e+08
6.18043e+08
-5.79806e+08
-5.71343e+08
-5.46702e+08
-5.12208e+08
-4.70184e+08
-4.18015e+08
-3.62673e+08
-2.99513e+08
-2.26802e+08
-1.44667e+08
-4.60441e+07
6.32196e+07
2.12774e+08
3.66477e+08
5.17086e+08
6.20885e+08
-5.83094e+08
-5.75406e+08
-5.50738e+08
-5.16091e+08
-4.73952e+08
-4.21537e+08
-3.65961e+08
-3.02407e+08
-2.29341e+08
-1.46621e+08
-4.75086e+07
6.25857e+07
2.12763e+08
3.67507e+08
5.18862e+08
6.23811e+08
-5.87185e+08
-5.80417e+08
-5.55745e+08
-5.20947e+08
-4.78707e+08
-4.26046e+08
-3.70234e+08
-3.06282e+08
-2.32814e+08
-1.49466e+08
-4.97975e+07
6.12355e+07
2.12166e+08
3.68135e+08
5.20387e+08
6.26756e+08
-5.92224e+08
-5.86479e+08
-5.61832e+08
-5.26901e+08
-4.84579e+08
-4.31692e+08
-3.75662e+08
-3.11306e+08
-2.37423e+08
-1.53379e+08
-5.31048e+07
5.89699e+07
2.10735e+08
3.68177e+08
5.21497e+08
6.29593e+08
-5.98309e+08
-5.93694e+08
-5.69109e+08
-5.34054e+08
-4.9169e+08
-4.38585e+08
-3.82373e+08
-3.17646e+08
-2.43386e+08
-1.58677e+08
-5.77396e+07
5.54823e+07
2.08212e+08
3.67358e+08
5.21964e+08
6.32184e+08
-6.05543e+08
-6.02064e+08
-5.77593e+08
-5.42468e+08
-5.00141e+08
-4.46934e+08
-3.90592e+08
-3.25596e+08
-2.50983e+08
-1.6565e+08
-6.40464e+07
5.03925e+07
2.04196e+08
3.65318e+08
5.21469e+08
6.34331e+08
-6.13921e+08
-6.11661e+08
-5.8737e+08
-5.52258e+08
-5.1006e+08
-4.5687e+08
-4.00524e+08
-3.35399e+08
-2.60532e+08
-1.74679e+08
-7.24546e+07
4.32216e+07
1.98193e+08
3.61603e+08
5.19579e+08
6.35724e+08
-6.23505e+08
-6.22454e+08
-5.98434e+08
-5.63428e+08
-5.21494e+08
-4.68491e+08
-4.12317e+08
-3.4729e+08
-2.7236e+08
-1.862e+08
-8.34638e+07
3.33791e+07
1.89542e+08
3.55505e+08
5.15653e+08
6.35891e+08
-6.34262e+08
-6.34287e+08
-6.10648e+08
-5.75899e+08
-5.34426e+08
-4.8186e+08
-4.26099e+08
-3.61514e+08
-2.86792e+08
-2.00711e+08
-9.77193e+07
2.00595e+07
1.77367e+08
3.46101e+08
5.08824e+08
6.3423e+08
-6.46023e+08
-6.46927e+08
-6.23801e+08
-5.89497e+08
-5.48721e+08
-4.96943e+08
-4.41946e+08
-3.78265e+08
-3.04169e+08
-2.18693e+08
-1.15891e+08
2.3298e+06
1.60489e+08
3.32073e+08
4.97916e+08
6.30186e+08
-6.58549e+08
-6.59994e+08
-6.37539e+08
-6.03901e+08
-5.6412e+08
-5.13502e+08
-4.5972e+08
-3.97554e+08
-3.24695e+08
-2.40673e+08
-1.38779e+08
-2.1008e+07
1.37312e+08
3.1137e+08
4.80561e+08
6.22131e+08
-6.71448e+08
-6.72835e+08
-6.51231e+08
-6.18525e+08
-5.80103e+08
-5.31166e+08
-4.79148e+08
-4.1928e+08
-3.48438e+08
-2.66994e+08
-1.67098e+08
-5.13167e+07
1.05661e+08
2.8053e+08
4.51382e+08
6.02775e+08
-6.84066e+08
-6.84635e+08
-6.64078e+08
-6.32612e+08
-5.95955e+08
-5.49249e+08
-4.99645e+08
-4.42983e+08
-3.7512e+08
-2.97699e+08
-2.01331e+08
-8.99326e+07
6.28996e+07
2.34185e+08
4.00124e+08
5.51313e+08
-6.95573e+08
-6.94299e+08
-6.74999e+08
-6.4507e+08
-6.10605e+08
-5.66709e+08
-5.20233e+08
-4.6775e+08
-4.03954e+08
-3.32167e+08
-2.40955e+08
-1.36643e+08
8.99563e+06
1.71307e+08
3.24536e+08
4.60726e+08
-7.04883e+08
-7.00387e+08
-6.82558e+08
-6.54488e+08
-6.22673e+08
-5.82195e+08
-5.39535e+08
-4.92199e+08
-4.33444e+08
-3.68759e+08
-2.84025e+08
-1.88896e+08
-5.18693e+07
9.946e+07
2.39412e+08
3.6291e+08
-7.10548e+08
-7.01263e+08
-6.85107e+08
-6.5919e+08
-6.30438e+08
-5.93911e+08
-5.55779e+08
-5.14477e+08
-4.61789e+08
-4.05645e+08
-3.2863e+08
-2.44794e+08
-1.17482e+08
2.06433e+07
1.47431e+08
2.61859e+08
-7.1094e+08
-6.94924e+08
-6.80635e+08
-6.5712e+08
-6.31838e+08
-5.99757e+08
-5.66783e+08
-5.32325e+08
-4.86647e+08
-4.40379e+08
-3.72266e+08
-3.01855e+08
-1.8514e+08
-6.35902e+07
5.17229e+07
1.58665e+08
-7.04067e+08
-6.79123e+08
-6.6687e+08
-6.45995e+08
-6.24531e+08
-5.97307e+08
-5.70039e+08
-5.43055e+08
-5.05268e+08
-4.70046e+08
-4.12238e+08
-3.5752e+08
-2.53132e+08
-1.53727e+08
-4.69237e+07
5.23237e+07
-6.87684e+08
-6.51435e+08
-6.41353e+08
-6.23254e+08
-6.05857e+08
-5.83748e+08
-5.62612e+08
-5.43508e+08
-5.14479e+08
-4.91381e+08
-4.45585e+08
-4.08544e+08
-3.20282e+08
-2.47564e+08
-1.50004e+08
-6.13051e+07
-6.5939e+08
-6.09084e+08
-6.01292e+08
-5.86105e+08
-5.73048e+08
-5.56349e+08
-5.41702e+08
-5.3067e+08
-5.10744e+08
-4.99689e+08
-4.65424e+08
-4.46132e+08
-3.80274e+08
-3.40481e+08
-2.55803e+08
-1.87316e+08
-6.16404e+08
-5.49788e+08
-5.44453e+08
-5.3231e+08
-5.23616e+08
-5.11819e+08
-5.02227e+08
-4.97256e+08
-4.85679e+08
-4.88133e+08
-4.69265e+08
-4.72176e+08
-4.29462e+08
-4.22272e+08
-3.56067e+08
-3.26419e+08
-5.56401e+08
-4.68902e+08
-4.6537e+08
-4.55386e+08
-4.50708e+08
-4.45045e+08
-4.43819e+08
-4.48162e+08
-4.48695e+08
-4.66053e+08
-4.64754e+08
-4.89832e+08
-4.68029e+08
-4.93162e+08
-4.51356e+08
-4.73054e+08
-4.75161e+08
-3.64625e+08
-3.65123e+08
-3.60614e+08
-3.64205e+08
-3.69223e+08
-3.80854e+08
-3.99117e+08
-4.1457e+08
-4.46064e+08
-4.60498e+08
-5.05864e+08
-5.05994e+08
-5.61221e+08
-5.42602e+08
-6.17335e+08
-3.69745e+08
-2.569e+08
-2.64885e+08
-2.7031e+08
-2.85322e+08
-3.02635e+08
-3.26874e+08
-3.5882e+08
-3.88937e+08
-4.34495e+08
-4.63266e+08
-5.24338e+08
-5.421e+08
-6.22218e+08
-6.24064e+08
-7.42847e+08
-2.58979e+08
-1.67306e+08
-1.82161e+08
-1.97253e+08
-2.22873e+08
-2.51715e+08
-2.86823e+08
-3.29139e+08
-3.70653e+08
-4.26614e+08
-4.67884e+08
-5.41042e+08
-5.73979e+08
-6.73207e+08
-6.93384e+08
-8.46756e+08
-1.65877e+08
-1.02916e+08
-1.21894e+08
-1.43543e+08
-1.76151e+08
-2.12962e+08
-2.56489e+08
-3.06653e+08
-3.57424e+08
-4.21199e+08
-4.73108e+08
-5.54902e+08
-6.00669e+08
-7.13123e+08
-7.49171e+08
-9.27782e+08
-9.84937e+07
-6.13551e+07
-8.22587e+07
-1.07992e+08
-1.44808e+08
-1.86725e+08
-2.3612e+08
-2.91569e+08
-3.49359e+08
-4.18281e+08
-4.78767e+08
-5.65833e+08
-6.22134e+08
-7.42059e+08
-7.91148e+08
-9.84941e+08
-5.45859e+07
-4.04552e+07
-6.18545e+07
-8.97637e+07
-1.28673e+08
-1.73289e+08
-2.26232e+08
-2.84562e+08
-3.47114e+08
-4.18561e+08
-4.8529e+08
-5.74258e+08
-6.38625e+08
-7.60555e+08
-8.19622e+08
-1.01858e+09
-3.20463e+07
-3.77699e+07
-5.89699e+07
-8.77726e+07
-1.27351e+08
-1.72823e+08
-2.27308e+08
-2.8632e+08
-3.51361e+08
-4.22787e+08
-4.93253e+08
-5.80815e+08
-6.50527e+08
-7.69227e+08
-8.34898e+08
-1.02935e+09
-2.84054e+07
-5.16257e+07
-7.22321e+07
-1.00924e+08
-1.40073e+08
-1.84906e+08
-2.39205e+08
-2.96962e+08
-3.62329e+08
-4.31387e+08
-5.03053e+08
-5.86078e+08
-6.58182e+08
-7.68616e+08
-8.37095e+08
-1.01751e+09
-4.19862e+07
-8.10715e+07
-1.00652e+08
-1.28234e+08
-1.6587e+08
-2.08692e+08
-2.61223e+08
-3.16038e+08
-3.79752e+08
-4.44394e+08
-5.14829e+08
-5.90516e+08
-6.61976e+08
-7.59506e+08
-8.26887e+08
-9.8471e+08
-7.18195e+07
-1.25584e+08
-1.43485e+08
-1.6881e+08
-2.03693e+08
-2.43103e+08
-2.92337e+08
-3.42707e+08
-4.02981e+08
-4.61478e+08
-5.28437e+08
-5.94366e+08
-6.6211e+08
-7.42457e+08
-8.0455e+08
-9.31624e+08
-1.17331e+08
-1.84618e+08
-2.00028e+08
-2.21855e+08
-2.5263e+08
-2.87197e+08
-3.3162e+08
-3.76157e+08
-4.31338e+08
-4.8222e+08
-5.43636e+08
-5.97784e+08
-6.58808e+08
-7.18294e+08
-7.71116e+08
-8.61154e+08
-1.77849e+08
-2.56978e+08
-2.69252e+08
-2.86557e+08
-3.12039e+08
-3.40467e+08
-3.78643e+08
-4.16024e+08
-4.64503e+08
-5.06421e+08
-5.60297e+08
-6.00895e+08
-6.52164e+08
-6.87625e+08
-7.27385e+08
-7.76072e+08
-2.51926e+08
-3.40271e+08
-3.49372e+08
-3.61829e+08
-3.81471e+08
-4.02946e+08
-4.33734e+08
-4.62768e+08
-5.02957e+08
-5.34558e+08
-5.78835e+08
-6.04169e+08
-6.42487e+08
-6.5123e+08
-6.74533e+08
-6.80207e+08
-3.36793e+08
-4.30748e+08
-4.37472e+08
-4.4581e+08
-4.60135e+08
-4.74792e+08
-4.97775e+08
-5.17727e+08
-5.4826e+08
-5.68216e+08
-6.00678e+08
-6.08819e+08
-6.30584e+08
-6.10196e+08
-6.14144e+08
-5.7824e+08
-4.28325e+08
-5.24024e+08
-5.29705e+08
-5.35551e+08
-5.46203e+08
-5.55435e+08
-5.71419e+08
-5.82572e+08
-6.02824e+08
-6.10159e+08
-6.28555e+08
-6.172e+08
-6.18225e+08
-5.66377e+08
-5.48557e+08
-4.75031e+08
-5.21981e+08
-6.16164e+08
-6.21864e+08
-6.26866e+08
-6.35825e+08
-6.41831e+08
-6.52762e+08
-6.56726e+08
-6.67409e+08
-6.62271e+08
-6.65191e+08
-6.32236e+08
-6.08327e+08
-5.23207e+08
-4.81871e+08
-3.75992e+08
-6.14052e+08
-7.03321e+08
-7.0923e+08
-7.14152e+08
-7.22694e+08
-7.2752e+08
-7.35908e+08
-7.35666e+08
-7.39534e+08
-7.24644e+08
-7.13112e+08
-6.578e+08
-6.06051e+08
-4.87194e+08
-4.21434e+08
-2.87802e+08
-7.01146e+08
-7.87588e+08
-7.93733e+08
-7.99129e+08
-8.08321e+08
-8.13982e+08
-8.22652e+08
-8.21769e+08
-8.22055e+08
-8.00266e+08
-7.72823e+08
-6.96369e+08
-6.16286e+08
-4.66244e+08
-3.77085e+08
-2.19312e+08
-7.85412e+08
-8.79274e+08
-8.82685e+08
-8.84518e+08
-8.88417e+08
-8.87808e+08
-8.87711e+08
-8.76259e+08
-8.6161e+08
-8.22942e+08
-7.76434e+08
-6.87961e+08
-5.96191e+08
-4.47498e+08
-3.49014e+08
-1.76742e+08
-8.78052e+08
-9.13251e+08
-9.10195e+08
-9.03169e+08
-8.94331e+08
-8.78948e+08
-8.60638e+08
-8.30646e+08
-7.96389e+08
-7.42192e+08
-6.87483e+08
-6.04747e+08
-5.28109e+08
-4.06774e+08
-3.23841e+08
-1.59106e+08
-9.14446e+08
-8.42136e+08
-8.36208e+08
-8.25485e+08
-8.11298e+08
-7.90261e+08
-7.65319e+08
-7.30121e+08
-6.91686e+08
-6.38644e+08
-5.87583e+08
-5.1424e+08
-4.53047e+08
-3.55032e+08
-2.89976e+08
-1.59917e+08
-8.44437e+08
-7.48568e+08
-7.42523e+08
-7.32201e+08
-7.18424e+08
-6.98694e+08
-6.75367e+08
-6.43169e+08
-6.07983e+08
-5.59963e+08
-5.12115e+08
-4.46707e+08
-3.8785e+08
-3.05439e+08
-2.4391e+08
-1.52048e+08
-7.50891e+08
-6.7407e+08
-6.67224e+08
-6.56336e+08
-6.41583e+08
-6.21425e+08
-5.97616e+08
-5.66281e+08
-5.32291e+08
-4.88112e+08
-4.44101e+08
-3.86511e+08
-3.33796e+08
-2.64074e+08
-2.03635e+08
-1.3091e+08
-6.76593e+08
-6.01052e+08
-5.94154e+08
-5.83749e+08
-5.69451e+08
-5.50485e+08
-5.28013e+08
-4.99178e+08
-4.67795e+08
-4.27994e+08
-3.87819e+08
-3.36958e+08
-2.89262e+08
-2.28687e+08
-1.75436e+08
-1.07684e+08
-6.03489e+08
-5.37055e+08
-5.30115e+08
-5.20146e+08
-5.06252e+08
-4.88335e+08
-4.67038e+08
-4.40426e+08
-4.11437e+08
-3.75667e+08
-3.3939e+08
-2.94769e+08
-2.52411e+08
-2.00372e+08
-1.53406e+08
-9.62568e+07
-5.39412e+08
-4.78506e+08
-4.71778e+08
-4.62529e+08
-4.49445e+08
-4.32963e+08
-4.13278e+08
-3.89168e+08
-3.62824e+08
-3.30963e+08
-2.98469e+08
-2.5938e+08
-2.21972e+08
-1.77017e+08
-1.36368e+08
-8.70265e+07
-4.80704e+08
-4.26448e+08
-4.20008e+08
-4.11502e+08
-3.99294e+08
-3.84242e+08
-3.6618e+08
-3.44461e+08
-3.20679e+08
-2.92443e+08
-2.63565e+08
-2.29486e+08
-1.96744e+08
-1.5815e+08
-1.23144e+08
-8.12927e+07
-4.28479e+08
-3.79826e+08
-3.7377e+08
-3.66062e+08
-3.54838e+08
-3.41262e+08
-3.24888e+08
-3.05504e+08
-2.84228e+08
-2.59351e+08
-2.33856e+08
-2.04238e+08
-1.75739e+08
-1.42642e+08
-1.1269e+08
-7.71309e+07
-3.81674e+08
-3.38432e+08
-3.32799e+08
-3.25873e+08
-3.15645e+08
-3.03489e+08
-2.88756e+08
-2.71558e+08
-2.52647e+08
-2.30833e+08
-2.0846e+08
-1.82818e+08
-1.58152e+08
-1.29873e+08
-1.0434e+08
-7.42414e+07
-3.40097e+08
-3.01672e+08
-2.9649e+08
-2.90321e+08
-2.81085e+08
-2.70286e+08
-2.5713e+08
-2.41967e+08
-2.25264e+08
-2.06224e+08
-1.8669e+08
-1.64564e+08
-1.43309e+08
-1.19199e+08
-9.75055e+07
-7.20416e+07
-3.0316e+08
-2.69127e+08
-2.64401e+08
-2.58943e+08
-2.50661e+08
-2.41123e+08
-2.29448e+08
-2.16145e+08
-2.0147e+08
-1.84918e+08
-1.67943e+08
-1.48912e+08
-1.30668e+08
-1.10168e+08
-9.17837e+07
-7.02715e+07
-2.70447e+08
-2.40326e+08
-2.36049e+08
-2.3125e+08
-2.23871e+08
-2.15494e+08
-2.0519e+08
-1.93574e+08
-1.80742e+08
-1.66407e+08
-1.51714e+08
-1.35393e+08
-1.19783e+08
-1.02384e+08
-8.68259e+07
-6.8631e+07
-2.4149e+08
-2.14858e+08
-2.11012e+08
-2.06813e+08
-2.00276e+08
-1.92952e+08
-1.83903e+08
-1.738e+08
-1.62627e+08
-1.50253e+08
-1.37581e+08
-1.2362e+08
-1.10303e+08
-9.55666e+07
-8.24219e+07
-6.70404e+07
-2.15878e+08
-1.92329e+08
-1.88892e+08
-1.85235e+08
-1.7947e+08
-1.73094e+08
-1.65181e+08
-1.56426e+08
-1.46733e+08
-1.36084e+08
-1.25188e+08
-1.13273e+08
-1.01938e+08
-8.94717e+07
-7.83675e+07
-6.53302e+07
-1.9322e+08
-1.72386e+08
-1.6933e+08
-1.66157e+08
-1.61095e+08
-1.55565e+08
-1.4867e+08
-1.41107e+08
-1.32725e+08
-1.23584e+08
-1.14241e+08
-1.04092e+08
-9.44647e+07
-8.3934e+07
-7.45611e+07
-6.35036e+07
-1.73161e+08
-1.54709e+08
-1.52002e+08
-1.4926e+08
-1.44831e+08
-1.40048e+08
-1.34061e+08
-1.27545e+08
-1.20316e+08
-1.12486e+08
-1.04492e+08
-9.58626e+07
-8.76977e+07
-7.88104e+07
-7.08985e+07
-6.15076e+07
-1.5538e+08
-1.39009e+08
-1.36621e+08
-1.34257e+08
-1.30394e+08
-1.26269e+08
-1.21083e+08
-1.15482e+08
-1.09262e+08
-1.02567e+08
-9.57386e+07
-8.84089e+07
-8.14901e+07
-7.39892e+07
-6.72966e+07
-5.92773e+07
-1.39589e+08
-1.2503e+08
-1.22932e+08
-1.20898e+08
-1.17538e+08
-1.13987e+08
-1.09505e+08
-1.04698e+08
-9.93556e+07
-9.36386e+07
-8.78127e+07
-8.15911e+07
-7.57304e+07
-6.93979e+07
-6.37255e+07
-5.68517e+07
-1.25531e+08
-1.12549e+08
-1.10709e+08
-1.08962e+08
-1.06045e+08
-1.02994e+08
-9.91259e+07
-9.50062e+07
-9.04224e+07
-8.55437e+07
-8.05761e+07
-7.52946e+07
-7.03275e+07
-6.49728e+07
-6.01446e+07
-5.42085e+07
-1.1298e+08
-1.01367e+08
-9.97563e+07
-9.82579e+07
-9.57291e+07
-9.31093e+07
-8.97752e+07
-8.62462e+07
-8.23157e+07
-7.81527e+07
-7.39164e+07
-6.943e+07
-6.52148e+07
-6.06771e+07
-5.65478e+07
-5.13832e+07
-1.01737e+08
-9.13107e+07
-8.99037e+07
-8.86186e+07
-8.64283e+07
-8.41793e+07
-8.13065e+07
-7.8283e+07
-7.49123e+07
-7.13576e+07
-6.77418e+07
-6.39248e+07
-6.03399e+07
-5.6482e+07
-5.29293e+07
-4.83994e+07
-9.16289e+07
-8.22318e+07
-8.10036e+07
-7.99009e+07
-7.8004e+07
-7.60721e+07
-7.3596e+07
-7.10031e+07
-6.81098e+07
-6.50699e+07
-6.19783e+07
-5.87226e+07
-5.56633e+07
-5.23682e+07
-4.92867e+07
-4.527e+07
-8.25054e+07
-7.40008e+07
-7.29288e+07
-7.19812e+07
-7.03374e+07
-6.86754e+07
-6.65386e+07
-6.43109e+07
-6.18229e+07
-5.92167e+07
-5.6566e+07
-5.37792e+07
-5.11567e+07
-4.83265e+07
-4.563e+07
-4.20313e+07
-7.42363e+07
-6.65069e+07
-6.55708e+07
-6.47544e+07
-6.33277e+07
-6.18942e+07
-6.00464e+07
-5.81268e+07
-5.59811e+07
-5.37387e+07
-5.1457e+07
-4.90601e+07
-4.67991e+07
-4.43509e+07
-4.19671e+07
-3.87065e+07
-6.67103e+07
-5.96558e+07
-5.88371e+07
-5.8131e+07
-5.68898e+07
-5.56486e+07
-5.40455e+07
-5.23844e+07
-5.05264e+07
-4.85875e+07
-4.66132e+07
-4.45389e+07
-4.25751e+07
-4.04389e+07
-3.83061e+07
-3.53109e+07
-5.98321e+07
-5.33672e+07
-5.26495e+07
-5.20354e+07
-5.09517e+07
-4.98714e+07
-4.84744e+07
-4.70289e+07
-4.54114e+07
-4.37241e+07
-4.20045e+07
-4.01962e+07
-3.84766e+07
-3.65972e+07
-3.46719e+07
-3.19042e+07
-5.35208e+07
-4.75734e+07
-4.69422e+07
-4.64044e+07
-4.54536e+07
-4.45068e+07
-4.32822e+07
-4.20152e+07
-4.05971e+07
-3.9117e+07
-3.76065e+07
-3.60153e+07
-3.44936e+07
-3.28211e+07
-3.10598e+07
-2.84696e+07
-4.77082e+07
-4.22175e+07
-4.16599e+07
-4.11846e+07
-4.03453e+07
-3.95084e+07
-3.8427e+07
-3.73063e+07
-3.60524e+07
-3.47411e+07
-3.34008e+07
-3.19851e+07
-3.06225e+07
-2.91164e+07
-2.74858e+07
-2.50407e+07
-4.23368e+07
-3.72521e+07
-3.67569e+07
-3.63322e+07
-3.55857e+07
-3.48382e+07
-3.38746e+07
-3.28726e+07
-3.1752e+07
-3.05766e+07
-2.93726e+07
-2.80962e+07
-2.68584e+07
-2.5482e+07
-2.39498e+07
-2.16134e+07
-3.73589e+07
-3.26382e+07
-3.21955e+07
-3.18113e+07
-3.11413e+07
-3.04656e+07
-2.95978e+07
-2.86905e+07
-2.76767e+07
-2.66084e+07
-2.55114e+07
-2.43433e+07
-2.32008e+07
-2.19227e+07
-2.04617e+07
-1.82041e+07
-3.27351e+07
-2.83441e+07
-2.79453e+07
-2.75928e+07
-2.69853e+07
-2.63662e+07
-2.5575e+07
-2.47418e+07
-2.38117e+07
-2.28258e+07
-2.18104e+07
-2.07232e+07
-1.965e+07
-1.84427e+07
-1.70295e+07
-1.48267e+07
-2.84332e+07
-2.43443e+07
-2.3982e+07
-2.36537e+07
-2.30966e+07
-2.25209e+07
-2.179e+07
-2.10131e+07
-2.01467e+07
-1.92216e+07
-1.82653e+07
-1.72351e+07
-1.62081e+07
-1.50468e+07
-1.36593e+07
-1.14869e+07
-2.44274e+07
-2.06182e+07
-2.02863e+07
-1.99758e+07
-1.94588e+07
-1.89154e+07
-1.82307e+07
-1.74946e+07
-1.66746e+07
-1.57916e+07
-1.48748e+07
-1.38803e+07
-1.28789e+07
-1.17411e+07
-1.03594e+07
-8.19549e+06
-2.0697e+07
-1.71502e+07
-1.68434e+07
-1.65453e+07
-1.60597e+07
-1.55394e+07
-1.48888e+07
-1.41808e+07
-1.33922e+07
-1.2535e+07
-1.16404e+07
-1.06627e+07
-9.66793e+06
-8.53309e+06
-7.13908e+06
-4.96494e+06
-1.7226e+07
-1.39282e+07
-1.36422e+07
-1.33524e+07
-1.28909e+07
-1.23861e+07
-1.17597e+07
-1.10687e+07
-1.0299e+07
-9.45359e+06
-8.56581e+06
-7.5878e+06
-6.58198e+06
-5.42952e+06
-4.00287e+06
-1.79245e+06
-1.40021e+07
-1.09434e+07
-1.06747e+07
-1.03898e+07
-9.94687e+06
-9.45149e+06
-8.84127e+06
-8.1587e+06
-7.39729e+06
-6.55209e+06
-5.65799e+06
-4.66458e+06
-3.63167e+06
-2.44316e+06
-966518
1.29884e+06
-1.10161e+07
-8.18935e+06
-7.93533e+06
-7.65307e+06
-7.22435e+06
-6.73414e+06
-6.13407e+06
-5.4534e+06
-4.69215e+06
-3.83782e+06
-2.92622e+06
-1.90411e+06
-828731
414794
1.96145e+06
4.30748e+06
-8.2613e+06
-5.66131e+06
-5.42018e+06
-5.13931e+06
-4.722e+06
-4.23441e+06
-3.64057e+06
-2.95764e+06
-2.19094e+06
-1.32085e+06
-383093
678610
1.81031e+06
3.12668e+06
4.76366e+06
7.2159e+06
-5.73284e+06
-3.35575e+06
-3.12644e+06
-2.84677e+06
-2.43955e+06
-1.95388e+06
-1.36459e+06
-677843
97042.6
986337
1.95588e+06
3.06519e+06
4.26559e+06
5.67251e+06
7.42363e+06
1.00157e+07
-3.42685e+06
-1.26956e+06
-1.05173e+06
-774163
-377240
105309
689298
1.37849e+06
2.16083e+06
3.06884e+06
4.07164e+06
5.23223e+06
6.51062e+06
8.02369e+06
9.91534e+06
1.26889e+07
-1.33995e+06
600701
806714
1.08021e+06
1.46511e+06
1.94131e+06
2.51664e+06
3.2037e+06
3.9887e+06
4.91007e+06
5.94187e+06
7.15089e+06
8.51066e+06
1.01394e+07
1.21975e+07
1.51924e+07
531549
2.25908e+06
2.45234e+06
2.71881e+06
3.0885e+06
3.55324e+06
4.11396e+06
4.79093e+06
5.56928e+06
6.49291e+06
7.54204e+06
8.78785e+06
1.02233e+07
1.19687e+07
1.4224e+07
1.74914e+07
2.19191e+06
3.71272e+06
3.89174e+06
4.14732e+06
4.49733e+06
4.94367e+06
5.4813e+06
6.13678e+06
6.89422e+06
7.8022e+06
8.84691e+06
1.01049e+07
1.1593e+07
1.34383e+07
1.59189e+07
1.95295e+07
3.64846e+06
4.97079e+06
5.13367e+06
5.37377e+06
5.69856e+06
6.11814e+06
6.6221e+06
7.24173e+06
7.95936e+06
8.82679e+06
9.83357e+06
1.10616e+07
1.25494e+07
1.44425e+07
1.71263e+07
2.11575e+07
4.91055e+06
6.01422e+06
6.15964e+06
6.38058e+06
6.6758e+06
7.06177e+06
7.52326e+06
8.09453e+06
8.75489e+06
9.55697e+06
1.04883e+07
1.1632e+07
1.30314e+07
1.4847e+07
1.75349e+07
2.17501e+07
5.95878e+06
7.03578e+06
7.15785e+06
7.34954e+06
7.60207e+06
7.93669e+06
8.33338e+06
8.8272e+06
9.39182e+06
1.00753e+07
1.08518e+07
1.17886e+07
1.28881e+07
1.42709e+07
1.62832e+07
1.94096e+07
6.98769e+06
7.48345e+06
7.58874e+06
7.75817e+06
7.97951e+06
8.27616e+06
8.62606e+06
9.06447e+06
9.56247e+06
1.01653e+07
1.08393e+07
1.16391e+07
1.25297e+07
1.35703e+07
1.48275e+07
1.7124e+07
7.44096e+06
)
;

boundaryField
{
    wireUpstream
    {
        type            zeroGradient;
    }
    wireDownstream
    {
        type            zeroGradient;
    }
    wireTopContact
    {
        type            zeroGradient;
    }
    front
    {
        type            wedge;
    }
    back
    {
        type            wedge;
    }
}


// ************************************************************************* //
