/*--------------------------------*- C++ -*----------------------------------*\
| =========                 |                                                 |
| \\      /  F ield         | foam-extend: Open Source CFD                    |
|  \\    /   O peration     | Version:     4.1-20200408                       |
|   \\  /    A nd           | Web:         http://www.foam-extend.org         |
|    \\/     M anipulation  |                                                 |
\*---------------------------------------------------------------------------*/
FoamFile
{
    version     2.0;
    format      ascii;
    class       volScalarField;
    location    "0.0020000";
    object      ccz;
}
// * * * * * * * * * * * * * * * * * * * * * * * * * * * * * * * * * * * * * //

dimensions      [0 1 0 0 0 0 0];

internalField   nonuniform List<scalar> 
1952
(
-2.7777e-13
8.33377e-13
8.33288e-13
2.22218e-12
2.22222e-12
2.22222e-12
1.11116e-12
-1.38883e-12
-1.66671e-12
-5.5554e-13
8.33262e-13
1.11117e-12
-7.8744e-23
2.62502e-23
-2.62528e-23
1.31274e-22
1.11107e-12
2.22222e-12
2.22222e-12
2.22224e-12
1.11112e-12
0
1.11114e-12
2.22222e-12
2.22222e-12
1.11103e-12
-2.7779e-13
-1.66677e-12
-1.38876e-12
-2.77803e-13
-5.5554e-13
-1.66675e-12
-1.38878e-12
1.11119e-12
2.22222e-12
2.22223e-12
1.11106e-12
-2.77786e-13
-2.77771e-13
-3.92822e-23
1.11113e-12
-2.778e-13
-1.66668e-12
-5.55474e-13
8.33211e-13
8.3346e-13
8.33329e-13
2.22214e-12
1.11112e-12
1.11115e-12
1.11108e-12
-2.77776e-13
8.33328e-13
2.22222e-12
2.22222e-12
8.33341e-13
-2.77778e-13
1.11111e-12
-2.77767e-13
-1.38889e-12
-2.77776e-13
-5.55555e-13
-5.55555e-13
-5.55555e-13
8.3333e-13
1.11111e-12
-6.5428e-23
-2.77777e-13
-2.77778e-13
-2.77697e-13
8.33211e-13
2.2223e-12
8.33216e-13
8.33334e-13
2.22222e-12
1.11111e-12
5.23359e-23
-2.77778e-13
-2.77776e-13
-2.77778e-13
-2.77775e-13
1.11112e-12
2.22222e-12
4.16664e-12
4.16671e-12
4.16663e-12
5.33332e-12
5.33332e-12
5.33332e-12
4.00006e-12
2.83333e-12
2.99998e-12
2.99998e-12
4.16659e-12
5.33331e-12
5.33334e-12
5.33331e-12
5.33332e-12
5.3333e-12
5.33332e-12
5.33332e-12
4.00003e-12
3.99999e-12
5.33331e-12
5.33332e-12
5.33333e-12
5.33333e-12
5.33333e-12
5.33333e-12
2.83313e-12
1.66677e-12
2.8333e-12
2.83335e-12
2.99998e-12
2.99999e-12
2.83331e-12
4.00009e-12
3.99992e-12
4.00007e-12
5.33332e-12
4.16666e-12
4.1667e-12
3.99998e-12
4.00003e-12
4.16668e-12
3e-12
3e-12
4.16666e-12
4.16688e-12
4.16666e-12
3.99988e-12
2.66667e-12
4.00012e-12
5.33317e-12
4.16688e-12
2.83317e-12
3.99999e-12
5.33333e-12
4.16688e-12
2.83333e-12
3.99999e-12
4.16646e-12
4.16666e-12
4.16667e-12
3.00025e-12
3e-12
2.99976e-12
4.16687e-12
5.33333e-12
5.33333e-12
4.16667e-12
4.16667e-12
4.16667e-12
4.16667e-12
5.33333e-12
4.16667e-12
4.16666e-12
5.33317e-12
5.33333e-12
5.33333e-12
4.16666e-12
2.83333e-12
2.8335e-12
2.83333e-12
4.00001e-12
3.99999e-12
-4.76188e-13
-1.78567e-12
-1.78576e-12
-1.78575e-12
-1.78576e-12
-4.76158e-13
-1.66659e-12
-1.66669e-12
-4.76194e-13
-1.78558e-12
-1.78571e-12
-4.76162e-13
-1.78557e-12
-1.78575e-12
-1.78558e-12
-1.78571e-12
-1.78561e-12
-3.09519e-12
-4.28559e-12
-2.97619e-12
-4.76174e-13
-1.78568e-12
-1.78566e-12
-4.76171e-13
-4.76171e-13
-1.78578e-12
-4.28576e-12
-2.97597e-12
-1.66675e-12
-1.66653e-12
-4.76164e-13
-4.76165e-13
-1.66674e-12
-2.97614e-12
-2.97619e-12
-1.66662e-12
-4.76195e-13
-1.78572e-12
-1.78573e-12
-1.66671e-12
-1.66668e-12
-1.78571e-12
-1.78578e-12
-4.76282e-13
-4.76181e-13
-1.7857e-12
-1.78571e-12
-1.66665e-12
-4.16665e-12
-2.9762e-12
-4.76513e-13
-4.75853e-13
-1.66694e-12
-1.66667e-12
-1.7857e-12
-1.78534e-12
-2.97651e-12
-4.28534e-12
-1.78609e-12
-1.78571e-12
-1.78572e-12
-4.75855e-13
-4.76516e-13
-4.76185e-13
-4.76186e-13
-1.78534e-12
-1.78572e-12
-4.76185e-13
-4.76186e-13
-1.78608e-12
-3.09482e-12
-1.78608e-12
-4.75855e-13
-4.76184e-13
-4.76514e-13
-4.76184e-13
-4.76185e-13
-1.78571e-12
-2.97618e-12
-2.97585e-12
-2.97618e-12
-1.66665e-12
-1.66695e-12
-4.81465e-12
-6.01848e-12
-6.01855e-12
-6.01858e-12
-6.01856e-12
-4.81481e-12
-4.81483e-12
-4.81482e-12
-1.77771e-11
-1.8982e-11
-6.01861e-12
-4.81484e-12
-6.01848e-12
-1.89808e-11
-1.89821e-11
-6.01862e-12
-6.01852e-12
-2.01846e-11
-2.01855e-11
-1.89812e-11
-1.77779e-11
-6.01853e-12
-6.0185e-12
-4.81483e-12
-4.81483e-12
-6.01863e-12
-2.01862e-11
-1.89801e-11
-1.7779e-11
-1.77765e-11
-4.81484e-12
-4.81482e-12
-4.81484e-12
-6.01858e-12
-6.01846e-12
-4.81483e-12
-1.77782e-11
-1.89812e-11
-1.89817e-11
-1.77776e-11
-4.8148e-12
-1.89816e-11
-1.89815e-11
-4.81487e-12
-4.81482e-12
-6.01852e-12
-1.89816e-11
-1.77778e-11
-1.89814e-11
-1.89816e-11
-4.81482e-12
-1.77777e-11
-1.77779e-11
-1.77777e-11
-1.89816e-11
-6.01831e-12
-1.89812e-11
-2.01854e-11
-6.01873e-12
-6.01852e-12
-6.01853e-12
-4.81465e-12
-4.81498e-12
-4.81465e-12
-4.81498e-12
-6.01831e-12
-1.89815e-11
-3.07407e-11
-1.77778e-11
-6.01872e-12
-2.01853e-11
-1.89813e-11
-1.7778e-11
-1.77776e-11
-4.81482e-12
-1.77778e-11
-1.77778e-11
-6.01852e-12
-6.01852e-12
-1.89818e-11
-1.89814e-11
-4.81482e-12
-4.81481e-12
1.28792e-11
1.28784e-11
1.28792e-11
3.14656e-22
1.28783e-11
1.28793e-11
1.14458e-22
-2.86181e-22
7.57502e-13
1.36356e-11
1.28794e-11
1.2878e-11
2.57574e-11
1.36369e-11
7.5734e-13
3.7237e-22
1.2878e-11
1.36365e-11
7.57437e-13
7.57454e-13
7.57463e-13
1.28788e-11
1.28784e-11
3.43734e-22
2.29125e-22
8.59089e-23
-1.21224e-11
7.59884e-13
7.55014e-13
7.5995e-13
1.28776e-11
-1.14403e-22
1.28798e-11
2.57575e-11
1.28781e-11
1.42901e-22
-1.21217e-11
-1.21209e-11
7.57788e-13
1.36367e-11
2.57577e-11
1.36366e-11
7.57659e-13
1.28788e-11
1.28788e-11
1.28791e-11
7.56803e-13
-1.21209e-11
-1.21211e-11
-1.21212e-11
2.85517e-23
-1.21212e-11
7.57518e-13
1.36364e-11
7.57579e-13
1.28788e-11
7.57722e-13
7.57532e-13
1.28792e-11
-2.85522e-23
1.28788e-11
2.57568e-11
1.28788e-11
7.42271e-22
1.08498e-21
3.14082e-22
-1.21212e-11
-2.42424e-11
-1.21212e-11
2.28409e-22
7.57583e-13
7.57589e-13
7.57591e-13
7.58422e-13
-2.28376e-22
-1.21216e-11
7.57593e-13
2.57584e-11
1.28787e-11
-1.21217e-11
-1.21211e-11
-2.85432e-22
2.72762e-22
2.50007e-11
1.21791e-11
2.5e-11
2.56413e-11
3.78201e-11
3.78208e-11
1.2821e-11
-5.32738e-22
2.49989e-11
3.71802e-11
1.21802e-11
2.49988e-11
5e-11
3.71803e-11
2.5e-11
1.28211e-11
1.2179e-11
2.43592e-11
1.21801e-11
2.49994e-11
3.78205e-11
2.5e-11
1.21792e-11
1.93915e-22
-7.2709e-22
4.84639e-23
-2.42272e-22
2.50024e-11
2.49974e-11
1.21807e-11
1.21784e-11
1.28216e-11
2.49999e-11
2.4359e-11
2.5e-11
2.56412e-11
2.56411e-11
1.28203e-11
1.21797e-11
3.71795e-11
3.71793e-11
2.43589e-11
1.21794e-11
1.21794e-11
1.21795e-11
1.21795e-11
1.21792e-11
1.93301e-22
-1.4498e-22
4.83278e-23
1.28205e-11
2.5641e-11
3.78205e-11
5e-11
3.7821e-11
2.5e-11
1.21791e-11
2.49999e-11
2.5e-11
1.28204e-11
2.5e-11
3.71795e-11
3.7821e-11
1.28201e-11
9.66297e-23
1.28209e-11
2.56402e-11
1.28206e-11
-3.86544e-22
-1.93256e-22
2.5e-11
3.78209e-11
2.5e-11
2.5e-11
2.5641e-11
2.56419e-11
2.5e-11
2.43598e-11
2.5e-11
1.28204e-11
1.28205e-11
2.5641e-11
2.56418e-11
1.22222e-11
5.03328e-22
1.22218e-11
2.44447e-11
2.44445e-11
2.44444e-11
1.22227e-11
1.67891e-22
1.22218e-11
1.22228e-11
-4.19877e-23
1.22216e-11
2.44447e-11
1.2223e-11
1.22216e-11
1.2223e-11
-3.78171e-22
-2.52134e-22
-3.36204e-22
1.2222e-11
2.44447e-11
1.22223e-11
-6.72374e-22
-1.26057e-22
-7.98251e-22
0
4.19964e-23
1.22235e-11
1.22211e-11
8.81289e-22
2.0978e-22
1.22234e-11
1.22213e-11
-8.38549e-23
1.22228e-11
2.44444e-11
2.44443e-11
1.22219e-11
-7.12266e-22
1.22223e-11
1.22221e-11
1.67557e-22
1.25662e-22
-1.00528e-21
5.02652e-22
4.18803e-22
3.3505e-22
-2.51291e-22
-5.02594e-22
-2.93158e-22
1.22226e-11
2.44436e-11
2.44445e-11
2.44445e-11
2.44445e-11
1.22223e-11
-2.93123e-22
1.22222e-11
1.22223e-11
1.22222e-11
1.22222e-11
1.22217e-11
2.44453e-11
1.22223e-11
-7.11831e-22
1.22222e-11
2.44436e-11
1.22222e-11
-3.35001e-22
2.51228e-22
1.22222e-11
2.44444e-11
1.22222e-11
1.22222e-11
2.44444e-11
2.44453e-11
1.22223e-11
-1.67461e-22
1.22223e-11
1.22222e-11
1.22223e-11
2.44445e-11
2.44437e-11
-1.27443e-11
-1.27455e-11
3.70159e-22
1.11051e-21
8.88524e-22
7.40505e-23
8.14661e-22
4.44413e-22
-1.27445e-11
-1.27456e-11
-1.27444e-11
-1.27457e-11
-7.41168e-23
-1.48252e-22
-1.27442e-11
-2.54898e-11
-2.54898e-11
-2.54898e-11
-1.27454e-11
8.15891e-22
-1.27446e-11
-2.54899e-11
-2.54899e-11
-1.27444e-11
-1.27459e-11
-2.54899e-11
-2.549e-11
-2.54899e-11
-1.27436e-11
-1.27464e-11
-2.54901e-11
-2.54901e-11
-2.54902e-11
-2.54902e-11
-2.54903e-11
-1.27447e-11
-1.27456e-11
-2.54903e-11
-1.27451e-11
-8.87141e-22
-1.27453e-11
-1.27452e-11
-1.27452e-11
-1.2745e-11
-7.39126e-23
-8.12977e-22
1.47819e-22
2.21733e-22
-1.27454e-11
-1.27447e-11
-1.27455e-11
-1.27451e-11
-1.27451e-11
-1.27452e-11
-4.43366e-22
-1.27451e-11
-2.54902e-11
-2.5491e-11
-1.27447e-11
-7.39008e-22
1.4779e-21
-1.27447e-11
-1.27451e-11
-1.27455e-11
-1.27447e-11
-1.27451e-11
-1.27451e-11
-1.2745e-11
-1.27451e-11
-7.38978e-23
-1.27451e-11
-2.54894e-11
-2.5491e-11
-1.27451e-11
-1.27446e-11
-1.27455e-11
-1.27451e-11
-2.54894e-11
-1.27451e-11
-1.27456e-11
-1.27451e-11
-1.27452e-11
-2.5491e-11
4.39436e-13
1.31564e-11
2.54395e-11
1.27195e-11
1.27189e-11
2.54386e-11
1.27197e-11
1.27188e-11
4.39481e-13
4.37205e-13
4.39756e-13
-1.22814e-11
1.27185e-11
2.54383e-11
4.39844e-13
-1.18436e-11
8.76479e-13
8.76104e-13
1.31567e-11
1.27195e-11
4.38114e-13
-1.18427e-11
-1.18424e-11
4.38256e-13
4.3833e-13
8.76701e-13
-1.18441e-11
-2.45616e-11
-1.22794e-11
-1.22821e-11
-1.18411e-11
8.77076e-13
-1.18429e-11
-1.18412e-11
-1.18424e-11
-1.22802e-11
4.38824e-13
8.77938e-13
4.3887e-13
1.32286e-22
4.38925e-13
4.38836e-13
4.38833e-13
1.31592e-11
2.54386e-11
2.54386e-11
2.54386e-11
1.27194e-11
4.38589e-13
1.31591e-11
1.31579e-11
4.38586e-13
4.38591e-13
1.31578e-11
2.54386e-11
4.38739e-13
-2.45614e-11
-2.45614e-11
-1.22807e-11
1.98367e-22
7.93328e-22
4.38612e-13
1.31579e-11
1.31579e-11
4.38602e-13
4.38604e-13
4.38608e-13
4.38612e-13
1.31579e-11
2.54386e-11
4.38732e-13
-2.45614e-11
-2.45614e-11
-1.22811e-11
4.39439e-13
1.31579e-11
4.38586e-13
-2.45614e-11
-1.22807e-11
4.37768e-13
1.3158e-11
4.38407e-13
-1.18396e-11
1.23017e-11
2.46023e-11
2.46032e-11
2.5e-11
2.5e-11
2.46032e-11
1.2302e-11
2.4999e-11
2.5001e-11
1.23011e-11
1.23022e-11
-5.99902e-23
1.2301e-11
2.46034e-11
1.23025e-11
2.49985e-11
3.73026e-11
2.46037e-11
2.46039e-11
2.5e-11
2.5e-11
1.2302e-11
1.23021e-11
1.23012e-11
1.23027e-11
2.46037e-11
2.50001e-11
1.26967e-11
1.26998e-11
1.26969e-11
1.23029e-11
2.46031e-11
1.23006e-11
1.23022e-11
1.23009e-11
-5.98615e-23
1.23016e-11
2.46028e-11
1.23013e-11
-4.18873e-22
1.23014e-11
1.23015e-11
1.23014e-11
3.73015e-11
3.73016e-11
2.46032e-11
2.46024e-11
1.23013e-11
1.23019e-11
2.46032e-11
2.46032e-11
1.23016e-11
1.23011e-11
2.46032e-11
2.4604e-11
1.23012e-11
1.26984e-11
1.26984e-11
5.98352e-23
7.77718e-22
-1.19627e-22
1.23016e-11
2.46032e-11
3.73015e-11
2.5e-11
1.23016e-11
1.23016e-11
2.5e-11
3.73016e-11
2.46023e-11
1.23016e-11
1.26984e-11
1.2698e-11
1.26988e-11
2.5e-11
2.4604e-11
1.23016e-11
-1.7346e-21
-7.17762e-22
1.23016e-11
2.46024e-11
1.23015e-11
1.23013e-11
6.57278e-22
8.20711e-22
-6.01772e-22
1.23183e-11
1.23192e-11
-2.18926e-21
-5.47367e-22
1.23184e-11
1.23193e-11
-1.64274e-22
-1.09531e-22
-1.26805e-11
-1.26817e-11
-9.86246e-22
-1.26803e-11
-3.6341e-13
-3.60231e-13
-1.26815e-11
-5.48392e-23
1.23186e-11
1.23198e-11
6.58224e-22
5.48494e-23
-1.09685e-22
6.57973e-22
1.04151e-21
1.23206e-11
-3.6502e-13
-3.59002e-13
1.23175e-11
3.28296e-22
7.65756e-22
-1.26822e-11
-1.26806e-11
-5.46583e-22
-3.27896e-22
-1.26816e-11
-2.53628e-11
-1.26813e-11
-1.09264e-22
-4.37045e-22
-1.26814e-11
-2.53625e-11
-3.62375e-13
1.23189e-11
-2.13044e-21
2.1849e-22
2.18495e-22
-3.82408e-22
3.82375e-22
0
-8.74023e-22
2.73109e-22
-1.26815e-11
-1.26812e-11
-1.26811e-11
-3.62439e-13
1.23193e-11
-1.26816e-11
-1.26812e-11
-2.1847e-22
-4.91566e-22
-9.83251e-22
1.23192e-11
1.23184e-11
-2.18464e-22
-1.26807e-11
-3.6318e-13
1.23189e-11
-1.74765e-21
-4.36963e-22
1.23184e-11
1.23189e-11
1.23188e-11
1.23193e-11
-4.36942e-22
-5.46123e-23
6.00795e-22
-3.27642e-22
-1.26812e-11
-1.26806e-11
-1.09218e-22
-1.2682e-11
4.97615e-22
1.10742e-21
0
2.21506e-21
-1.20831e-21
-1.20847e-21
-1.26663e-11
-1.26672e-11
1.00739e-22
3.02259e-22
1.51153e-21
-1.23328e-11
-1.2334e-11
1.0082e-21
-1.23328e-11
-1.23342e-11
-2.49984e-11
-2.50015e-11
-3.02754e-22
-4.03735e-22
0
-2.01907e-22
8.07601e-22
-1.00936e-22
-1.26673e-11
-2.53324e-11
-1.26648e-11
-1.23352e-11
-1.23319e-11
-5.03559e-22
8.05373e-22
-7.04434e-22
-2.50019e-11
-2.49986e-11
-1.26674e-11
-1.26668e-11
-2.50004e-11
-3.7333e-11
-1.2333e-11
-1.26669e-11
-1.26669e-11
-1.23332e-11
-2.46663e-11
-2.5e-11
-2.53341e-11
-1.26667e-11
1.00509e-22
2.01019e-21
-5.02548e-22
6.03078e-22
0
-2.0101e-21
1.00518e-22
-2.5e-11
-2.5e-11
-1.23333e-11
-1.23338e-11
-9.04631e-22
-1.23333e-11
-1.23334e-11
-1.26666e-11
-1.26663e-11
1.10551e-21
-1.30667e-21
-8.03959e-22
-1.00506e-21
-1.23329e-11
-1.23333e-11
-8.03991e-22
-1.26666e-11
-1.26666e-11
1.00492e-21
3.0148e-22
-7.03466e-22
2.01013e-22
8.03894e-22
-1.26666e-11
-1.26671e-11
6.02931e-22
-2.5e-11
-2.49999e-11
2.00968e-22
-1.23327e-11
1.26543e-11
1.26546e-11
9.32218e-23
-3.72878e-22
-9.32296e-23
-6.52688e-22
3.08834e-13
1.29627e-11
1.26549e-11
9.32874e-23
1.26539e-11
1.26549e-11
1.26537e-11
2.53086e-11
1.26549e-11
1.26534e-11
3.09577e-13
-1.23468e-11
1.26531e-11
1.26545e-11
-1.86988e-22
1.87007e-22
1.58958e-21
1.86985e-22
-1.23476e-11
-2.46926e-11
-1.23446e-11
1.26557e-11
2.53084e-11
1.2653e-11
-3.72813e-22
3.72649e-22
3.09518e-13
3.09472e-13
-1.23455e-11
3.1001e-13
3.09199e-13
3.09672e-13
1.26546e-11
3.0919e-13
1.29637e-11
1.26545e-11
9.30626e-22
3.09349e-13
-1.20371e-11
-1.23458e-11
1.26543e-11
2.53086e-11
2.53086e-11
2.53095e-11
2.53086e-11
2.53078e-11
2.53095e-11
3.08765e-13
-1.23457e-11
9.30667e-22
-2.79202e-22
-1.11671e-21
9.30598e-22
1.26543e-11
3.08681e-13
-1.23457e-11
1.26543e-11
2.53087e-11
1.26539e-11
1.48894e-21
4.65256e-22
-9.30518e-23
4.65314e-22
-1.23457e-11
-1.23453e-11
1.26543e-11
1.2654e-11
-2.79177e-22
-5.583e-22
1.86101e-22
-1.23457e-11
-1.23457e-11
-1.86125e-21
-1.23461e-11
-1.23457e-11
9.30401e-23
-1.77416e-22
1.23563e-11
1.23567e-11
1.26434e-11
1.26441e-11
8.67997e-22
1.12851e-21
1.23558e-11
2.47124e-11
2.5e-11
2.52876e-11
2.5e-11
2.5e-11
2.5e-11
3.73556e-11
2.50012e-11
1.23558e-11
1.23573e-11
-6.08992e-22
2.49985e-11
2.50014e-11
1.4802e-21
1.74175e-22
1.26423e-11
2.52848e-11
2.52851e-11
1.26412e-11
6.08726e-22
1.23582e-11
3.73579e-11
3.76425e-11
1.26429e-11
-6.07077e-22
1.23566e-11
1.2355e-11
0
1.2356e-11
2.5e-11
2.5e-11
1.23559e-11
1.23561e-11
3.73561e-11
2.49998e-11
-1.12633e-21
1.23565e-11
1.23559e-11
0
1.23563e-11
3.73559e-11
5e-11
5e-11
5e-11
5e-11
5e-11
3.76441e-11
1.26433e-11
-6.93185e-22
1.26437e-11
1.26437e-11
5.19857e-22
1.23564e-11
2.5e-11
1.26437e-11
2.49999e-11
5e-11
2.5e-11
0
-1.55956e-21
1.26436e-11
2.52882e-11
2.52874e-11
2.52865e-11
2.5e-11
1.23563e-11
4.33162e-22
3.46532e-22
1.8195e-21
-8.66264e-23
-1.55943e-21
1.26441e-11
1.26437e-11
-8.6636e-22
-1.03952e-21
1.48582e-21
-2.61086e-21
-1.62358e-22
1.23652e-11
1.23659e-11
8.11962e-22
2.03009e-21
9.74532e-22
0
1.23649e-11
2.47308e-11
1.23659e-11
1.23649e-11
1.2366e-11
1.23649e-11
1.23662e-11
3.25376e-22
1.30188e-21
4.06963e-22
-2.67814e-13
-2.67251e-13
-5.70369e-22
4.89041e-22
1.23674e-11
2.47354e-11
2.47347e-11
1.23652e-11
-2.44087e-21
1.30084e-21
1.23668e-11
2.47304e-11
-2.72511e-13
-1.26342e-11
3.2429e-22
-2.02617e-21
-4.0517e-22
1.1345e-21
1.23652e-11
1.2365e-11
-4.05209e-22
-1.26347e-11
-2.68949e-13
1.23654e-11
-3.24195e-21
1.94534e-21
-6.48346e-22
1.70224e-21
8.10515e-22
1.2366e-11
2.47304e-11
2.47312e-11
2.4732e-11
2.47304e-11
2.47312e-11
2.47312e-11
1.23656e-11
9.72591e-22
1.2366e-11
1.23656e-11
-1.26344e-11
-1.26345e-11
1.23656e-11
1.23652e-11
1.23656e-11
2.4732e-11
1.23652e-11
-1.29683e-21
-6.48419e-22
1.23656e-11
2.47312e-11
2.47312e-11
2.47312e-11
1.23656e-11
-6.48393e-22
-5.67291e-22
-7.29456e-22
-8.10428e-22
-1.26339e-11
-1.26344e-11
1.23656e-11
1.2366e-11
1.78315e-21
-1.1345e-21
-1.26356e-11
1.67012e-12
3.33681e-12
3.33676e-12
3.33682e-12
3.33681e-12
3.33681e-12
1.67021e-12
3.47919e-15
1.67007e-12
3.33682e-12
3.33681e-12
1.67023e-12
3.48075e-15
3.48115e-15
3.48158e-15
3.48204e-15
1.67008e-12
3.33681e-12
3.33682e-12
3.33682e-12
1.67016e-12
3.48507e-15
1.6702e-12
3.33682e-12
3.33682e-12
1.67004e-12
1.67029e-12
1.67001e-12
3.48702e-15
1.6703e-12
3.33682e-12
1.67002e-12
3.48649e-15
1.67026e-12
3.33682e-12
3.33682e-12
1.67009e-12
1.6702e-12
1.67011e-12
3.48417e-15
1.67017e-12
1.67014e-12
1.67015e-12
3.33683e-12
3.33682e-12
3.33682e-12
3.33682e-12
3.33682e-12
1.67016e-12
1.67014e-12
1.67016e-12
1.67014e-12
3.33682e-12
3.33682e-12
3.33682e-12
3.33682e-12
1.67013e-12
1.67017e-12
1.67016e-12
3.48383e-15
1.67014e-12
3.33682e-12
3.33682e-12
3.33682e-12
3.33676e-12
1.67018e-12
3.48477e-15
1.67015e-12
1.67016e-12
1.67015e-12
3.33682e-12
3.33682e-12
3.33682e-12
3.33682e-12
3.33682e-12
1.67015e-12
3.48605e-15
1.67016e-12
1.67015e-12
1.67016e-12
1.67014e-12
1.67017e-12
3.33682e-12
-2.77808e-13
4.16669e-12
-4.76188e-13
-4.81499e-12
1.28785e-11
2.49996e-11
1.2222e-11
-1.27458e-11
4.38626e-13
1.23018e-11
-9.11456e-22
8.38459e-22
-9.70305e-23
2.70955e-22
-5.06795e-22
1.67015e-12
1.11109e-12
5.33333e-12
-4.76187e-13
-4.81481e-12
1.28791e-11
1.21797e-11
-2.51602e-22
-2.54902e-11
8.77227e-13
2.46032e-11
3.8287e-22
-3.0192e-22
1.26545e-11
2.50005e-11
1.23659e-11
1.67014e-12
1.11117e-12
5.3335e-12
-1.78536e-12
-6.01833e-12
2.57576e-11
2.4359e-11
3.7755e-22
-1.27453e-11
4.38603e-13
1.23013e-11
-2.18821e-22
1.00648e-22
1.26541e-11
2.49995e-11
1.23654e-11
1.67018e-12
2.22214e-12
5.33317e-12
-1.78606e-12
-6.0187e-12
1.28791e-11
2.5e-11
1.2222e-11
-1.27449e-11
-1.22809e-11
-5.99209e-22
1.80543e-21
0
1.26546e-11
1.23566e-11
8.1163e-22
3.33676e-12
2.2223e-12
5.33333e-12
-4.76188e-13
-4.81465e-12
6.57736e-22
2.56419e-11
2.44453e-11
-2.5491e-11
-2.45614e-11
-1.79744e-22
9.84672e-22
-3.01969e-22
1.26541e-11
2.5e-11
1.23658e-11
3.33687e-12
1.11105e-12
3.99998e-12
-1.66668e-12
-4.81481e-12
1.2879e-11
2.5e-11
1.2222e-11
-1.27449e-11
4.39078e-13
2.50004e-11
1.23194e-11
-1.26673e-11
-1.23459e-11
1.26431e-11
1.23653e-11
1.67009e-12
1.11113e-12
4.00002e-12
-2.97619e-12
-6.01874e-12
1.2879e-11
2.5e-11
1.22219e-11
-2.22043e-22
2.54395e-11
5e-11
2.46368e-11
-1.26665e-11
3.09117e-13
1.23561e-11
-2.43433e-22
1.67019e-12
1.11114e-12
3.99999e-12
-4.28573e-12
-7.22197e-12
8.57845e-23
1.28208e-11
1.2222e-11
-1.11001e-22
1.27187e-11
2.49996e-11
1.23187e-11
-5.03187e-22
1.26542e-11
2.5e-11
1.23657e-11
1.67012e-12
1.11113e-12
4.00014e-12
-2.97616e-12
-6.01871e-12
1.2879e-11
1.21796e-11
4.19395e-23
-1.48019e-22
1.27199e-11
1.23018e-11
-4.37558e-22
-1.26669e-11
3.09501e-13
2.5e-11
1.23654e-11
1.67016e-12
1.11106e-12
5.33317e-12
-1.78573e-12
-6.01853e-12
1.28791e-11
1.21797e-11
7.96795e-22
-4.43974e-22
1.27187e-11
2.5e-11
1.23185e-11
-1.26665e-11
3.08662e-13
1.23561e-11
1.13597e-21
1.67012e-12
-7.78904e-25
5.3335e-12
-1.7857e-12
-1.89816e-11
7.56776e-13
1.21792e-11
6.28992e-22
-1.27452e-11
4.38631e-13
2.5e-11
1.23186e-11
-1.26668e-11
-1.23458e-11
4.33733e-22
2.4343e-22
3.47675e-15
-5.32859e-23
5.33317e-12
-4.76187e-13
-1.77779e-11
1.36365e-11
2.4359e-11
8.38592e-23
-1.27449e-11
1.31581e-11
2.46032e-11
1.64061e-22
-1.26666e-11
3.08997e-13
1.23565e-11
-1.6229e-21
3.47665e-15
1.11108e-12
3.99998e-12
-2.97621e-12
-6.01853e-12
2.57576e-11
3.71796e-11
1.22224e-11
3.32978e-22
1.27196e-11
1.23015e-11
0
1.60987e-21
1.26542e-11
2.5e-11
1.23657e-11
1.67013e-12
1.11114e-12
4.00014e-12
-4.28532e-12
-2.01854e-11
1.36363e-11
3.71794e-11
1.22221e-11
-7.39908e-23
1.27191e-11
1.23017e-11
-4.37527e-22
-1.26672e-11
3.08673e-13
2.5e-11
1.23655e-11
1.67015e-12
-2.7786e-13
4.16645e-12
-1.78607e-12
-1.89811e-11
7.58416e-13
2.5e-11
1.22227e-11
-1.27453e-11
1.31578e-11
2.46023e-11
-1.8043e-21
-1.26661e-11
3.08669e-13
2.5e-11
1.23657e-11
1.67016e-12
-5.55554e-13
3e-12
-1.78573e-12
-6.01832e-12
-1.71508e-22
1.28204e-11
1.22217e-11
-2.54894e-11
8.78918e-13
3.73022e-11
-3.62341e-13
-1.23335e-11
8.38354e-22
1.26432e-11
1.23654e-11
3.33681e-12
8.33349e-13
4.16668e-12
-1.7857e-12
-6.01851e-12
6.28885e-22
1.28206e-11
1.22224e-11
-1.2745e-11
4.38618e-13
3.76983e-11
1.19567e-11
-2.5e-11
3.07846e-13
2.50002e-11
1.23657e-11
3.33681e-12
1.1111e-12
5.33334e-12
-1.78573e-12
-6.01874e-12
-4.85968e-22
1.28204e-11
1.22221e-11
-2.95919e-22
1.27195e-11
3.76985e-11
2.46377e-11
-1.26665e-11
1.29631e-11
3.73562e-11
1.23655e-11
1.67013e-12
1.11116e-12
5.3335e-12
-1.7857e-12
-6.0185e-12
-4.85889e-22
4.83694e-23
4.61163e-22
-6.65839e-22
1.27192e-11
2.49998e-11
1.23187e-11
1.10658e-21
2.53087e-11
3.73564e-11
1.23657e-11
1.67016e-12
2.22214e-12
5.33317e-12
-4.76188e-13
-4.81465e-12
-3.7158e-22
5.80504e-22
5.44972e-22
-2.2191e-22
-3.97137e-22
-8.38375e-22
1.91346e-21
2.01207e-22
1.26546e-11
3.76432e-11
2.47312e-11
3.33675e-12
2.22222e-12
5.33333e-12
-4.76188e-13
-1.77778e-11
-1.21208e-11
-1.13976e-22
-9.87777e-23
-1.27452e-11
4.39604e-13
1.23017e-11
5.79613e-22
4.7393e-22
1.09702e-21
1.26441e-11
1.23655e-11
3.33687e-12
2.22231e-12
5.3335e-12
-4.76188e-13
-1.77776e-11
-1.21215e-11
1.2821e-11
1.22223e-11
-1.2745e-11
1.31581e-11
2.4604e-11
1.11459e-21
-9.22761e-22
1.3289e-21
1.7675e-22
8.26832e-23
3.33681e-12
8.33203e-13
4.16645e-12
-1.78572e-12
-6.01852e-12
7.17181e-22
1.282e-11
1.22221e-11
-1.27452e-11
1.31579e-11
2.46023e-11
4.93836e-22
1.11068e-21
4.67491e-22
-5.22244e-22
-8.95602e-22
3.33681e-12
8.33347e-13
4.16668e-12
-1.7857e-12
-6.01851e-12
4.86929e-22
1.28206e-11
1.22223e-11
-1.2745e-11
1.31581e-11
2.46032e-11
-1.04103e-21
-6.04825e-22
-6.53277e-22
-1.30346e-21
1.05679e-21
3.33681e-12
2.22222e-12
5.33333e-12
-4.7652e-13
-4.81481e-12
-2.57749e-22
1.28208e-11
1.22221e-11
-1.27452e-11
1.31578e-11
2.46032e-11
-1.31467e-21
1.41107e-21
1.02653e-21
-1.56377e-21
-6.50175e-22
3.33675e-12
1.1111e-12
5.33333e-12
-4.75856e-13
-4.81481e-12
1.71824e-22
1.28207e-11
1.22223e-11
-2.54902e-11
8.77247e-13
2.46032e-11
-1.64324e-21
-1.26668e-11
-1.23458e-11
2.60643e-22
1.62554e-22
1.67016e-12
-1.97382e-22
5.33333e-12
-1.78609e-12
-6.01853e-12
-2.29066e-22
1.282e-11
1.22217e-11
-1.2745e-11
4.38623e-13
2.5e-11
1.23189e-11
-1.26665e-11
-1.23456e-11
-6.95017e-22
-1.26349e-11
3.47558e-15
-2.77698e-13
4.16687e-12
-1.78532e-12
-6.01851e-12
1.14549e-22
0
-4.61969e-22
-3.33532e-22
1.27198e-11
3.76985e-11
1.19564e-11
-1.23334e-11
-8.39799e-22
-1.04248e-21
-1.26344e-11
1.67018e-12
8.33347e-13
4.16668e-12
-4.76186e-13
-1.77779e-11
7.57594e-13
2.50002e-11
1.22219e-11
-1.27451e-11
4.37595e-13
3.76987e-11
1.19566e-11
-1.23332e-11
-3.73228e-22
-6.08033e-22
1.62521e-21
3.33681e-12
8.33205e-13
4.16666e-12
-1.78572e-12
-1.89814e-11
7.57576e-13
3.78204e-11
2.44444e-11
-2.54902e-11
-1.18407e-11
2.5e-11
1.23183e-11
-4.03079e-22
1.95936e-21
1.3899e-21
-1.30024e-21
3.33675e-12
8.33347e-13
4.16647e-12
-1.78607e-12
-6.01851e-12
-1.71803e-22
1.28204e-11
1.22221e-11
-1.27454e-11
1.31567e-11
2.46023e-11
-2.73848e-22
6.0466e-22
-1.3995e-21
1.38986e-21
2.92546e-21
3.33686e-12
1.11114e-12
5.3335e-12
-4.75854e-13
-4.81465e-12
1.28789e-11
2.50002e-11
1.22223e-11
-1.48213e-22
2.54394e-11
2.4604e-11
-1.26816e-11
-1.23338e-11
4.66534e-22
6.94904e-22
-1.62523e-22
1.67013e-12
6.69298e-23
3.99987e-12
-2.97653e-12
-6.01873e-12
1.28791e-11
2.49998e-11
1.22221e-11
1.11155e-22
2.54386e-11
2.46032e-11
-1.26811e-11
-1.23329e-11
1.86588e-21
-1.04233e-21
3.25037e-22
3.47518e-15
1.11112e-12
4.00013e-12
-2.97584e-12
-6.0183e-12
1.14533e-22
1.28206e-11
1.22219e-11
1.25972e-21
2.54386e-11
3.73012e-11
-3.62324e-13
-1.23334e-11
0
1.26437e-11
1.23656e-11
1.67015e-12
2.22222e-12
3.99999e-12
-1.66667e-12
-4.81481e-12
1.28792e-11
2.5e-11
1.22226e-11
-1.27456e-11
1.31578e-11
5e-11
1.19566e-11
-1.23333e-11
1.21301e-21
2.52874e-11
2.47295e-11
3.33681e-12
2.22222e-12
4e-12
-1.66666e-12
-1.77779e-11
7.57443e-13
2.5e-11
1.22218e-11
-1.27446e-11
1.31592e-11
3.73016e-11
1.23188e-11
-5.03811e-22
1.26543e-11
2.5e-11
1.23655e-11
3.33681e-12
2.22222e-12
5.33333e-12
-1.78571e-12
-1.89815e-11
-1.21212e-11
2.56419e-11
2.44453e-11
-1.27456e-11
1.31566e-11
2.46023e-11
-1.36901e-21
-1.26663e-11
1.29642e-11
2.47126e-11
-1.62506e-22
3.33681e-12
2.22222e-12
5.33333e-12
-3.09565e-12
-7.22222e-12
5.72678e-23
2.5641e-11
2.44436e-11
-1.27447e-11
4.3944e-13
2.5e-11
1.23188e-11
-2.53342e-11
6.15628e-13
2.47118e-11
-4.87521e-22
3.33681e-12
2.22222e-12
5.33333e-12
-3.09523e-12
-7.22222e-12
0
2.5641e-11
2.44444e-11
2.22306e-22
-1.06075e-21
2.53968e-11
2.46377e-11
-2.53333e-11
6.18965e-13
2.47126e-11
1.46257e-21
3.33681e-12
)
;

boundaryField
{
    wireUpstream
    {
        type            calculated;
        value           nonuniform List<scalar> 
16
(
2.22222e-12
5.33333e-12
-3.09523e-12
-7.22222e-12
0
2.5641e-11
2.44444e-11
-2.48339e-22
0
2.53968e-11
2.46377e-11
-2.53333e-11
6.17296e-13
2.47126e-11
5.63006e-22
3.33681e-12
)
;
    }
    wireDownstream
    {
        type            calculated;
        value           nonuniform List<scalar> 
16
(
2.22222e-12
2.66667e-12
-2.85714e-12
-4.81482e-12
2.49946e-22
2.5641e-11
2.44445e-11
-2.54902e-11
8.77173e-13
2.46032e-11
-2.53623e-11
-2.46667e-11
-8.14743e-22
7.58558e-22
-2.52688e-11
3.33682e-12
)
;
    }
    wireTopContact
    {
        type            calculated;
        value           nonuniform List<scalar> 
122
(
7.83986e-22
5.01709e-22
-1.41166e-22
1.41166e-22
0
0
0
0
1.41163e-22
-1.41163e-22
0
-7.84113e-22
0
0
-1.4116e-22
-1.28664e-21
-1.41161e-22
-2.49994e-11
-2.50005e-11
1.41165e-22
6.44045e-22
-7.85335e-22
7.85329e-22
-1.41189e-22
1.41194e-22
-6.43392e-22
1.78809e-21
0
-7.8377e-22
-2.50012e-11
-2.49989e-11
-5.00817e-22
0
0
-6.41902e-22
-5.0077e-22
6.41977e-22
1.92609e-21
-2.50001e-11
-2.5e-11
6.42142e-22
0
0
-6.42168e-22
-6.423e-22
0
-1.41172e-22
1.41172e-22
-1.41172e-22
-5.01155e-22
0
-7.8351e-22
-1.14326e-21
-1.41172e-22
0
-1.14355e-21
-7.83409e-22
-2.5e-11
-2.5e-11
-1.41172e-22
0
0
0
0
1.41172e-22
0
0
6.42161e-22
0
0
0
6.42177e-22
-5.01008e-22
-7.83354e-22
7.83228e-22
-2.5e-11
-2.5e-11
-5.00883e-22
0
-6.42175e-22
0
-1.14462e-21
6.68893e-22
0
6.42893e-22
0
0
-6.43049e-22
-6.4289e-22
0
0
0
-6.42912e-22
0
0
0
-6.42952e-22
-6.4306e-22
0
-6.43021e-22
-1.286e-21
0
0
0
6.45384e-22
0
0
1.93292e-21
-2.50001e-11
-2.49999e-11
0
-6.44253e-22
-6.44241e-22
0
6.4422e-22
0
6.44073e-22
6.44195e-22
0
6.44189e-22
0
-2.50001e-11
)
;
    }
    front
    {
        type            wedge;
    }
    back
    {
        type            wedge;
    }
}


// ************************************************************************* //
