/*--------------------------------*- C++ -*----------------------------------*\
| =========                 |                                                 |
| \\      /  F ield         | foam-extend: Open Source CFD                    |
|  \\    /   O peration     | Version:     4.1-20200408                       |
|   \\  /    A nd           | Web:         http://www.foam-extend.org         |
|    \\/     M anipulation  |                                                 |
\*---------------------------------------------------------------------------*/
FoamFile
{
    version     2.0;
    format      ascii;
    class       volVectorField;
    location    "0.0020000";
    object      DU_0;
}
// * * * * * * * * * * * * * * * * * * * * * * * * * * * * * * * * * * * * * //

dimensions      [0 1 0 0 0 0 0];

internalField   nonuniform List<vector> 
1952
(
(4.99539e-05 -5.48429e-09 0)
(4.99578e-05 -5.95527e-09 0)
(4.99622e-05 -6.47125e-09 0)
(4.99671e-05 -7.02807e-09 0)
(4.99725e-05 -7.62575e-09 0)
(4.99786e-05 -8.25569e-09 0)
(4.99854e-05 -8.91104e-09 0)
(4.99929e-05 -9.57601e-09 0)
(5.00012e-05 -1.02332e-08 0)
(5.00102e-05 -1.0856e-08 0)
(5.00201e-05 -1.14129e-08 0)
(5.00306e-05 -1.18632e-08 0)
(5.00419e-05 -1.21592e-08 0)
(5.00536e-05 -1.22458e-08 0)
(5.00656e-05 -1.2062e-08 0)
(5.00776e-05 -1.15451e-08 0)
(5.00892e-05 -1.06339e-08 0)
(5.01001e-05 -9.27749e-09 0)
(5.01096e-05 -7.4416e-09 0)
(5.01173e-05 -5.12088e-09 0)
(5.01227e-05 -2.34662e-09 0)
(5.01252e-05 8.03307e-10 0)
(5.01245e-05 4.20355e-09 0)
(5.01202e-05 7.68369e-09 0)
(5.01125e-05 1.1045e-08 0)
(5.01016e-05 1.4081e-08 0)
(5.00878e-05 1.66082e-08 0)
(5.00718e-05 1.84896e-08 0)
(5.00544e-05 1.9647e-08 0)
(5.00365e-05 2.00636e-08 0)
(5.00186e-05 1.97768e-08 0)
(5.00017e-05 1.88694e-08 0)
(4.99861e-05 1.7456e-08 0)
(4.99725e-05 1.56719e-08 0)
(4.99609e-05 1.36588e-08 0)
(4.99516e-05 1.15539e-08 0)
(4.99446e-05 9.47661e-09 0)
(4.99396e-05 7.52085e-09 0)
(4.99364e-05 5.7499e-09 0)
(4.99349e-05 4.20091e-09 0)
(4.99346e-05 2.8854e-09 0)
(4.99354e-05 1.80096e-09 0)
(4.9937e-05 9.29267e-10 0)
(4.99391e-05 2.49895e-10 0)
(4.99416e-05 -2.65871e-10 0)
(4.99443e-05 -6.42156e-10 0)
(4.99472e-05 -9.06348e-10 0)
(4.99501e-05 -1.07966e-09 0)
(4.99529e-05 -1.1833e-09 0)
(4.99557e-05 -1.23355e-09 0)
(4.99584e-05 -1.24487e-09 0)
(4.99609e-05 -1.22865e-09 0)
(4.99633e-05 -1.19391e-09 0)
(4.99655e-05 -1.14788e-09 0)
(4.99676e-05 -1.09586e-09 0)
(4.99696e-05 -1.04191e-09 0)
(4.99715e-05 -9.88968e-10 0)
(4.99734e-05 -9.38871e-10 0)
(4.99751e-05 -8.93068e-10 0)
(4.99767e-05 -8.52005e-10 0)
(4.99783e-05 -8.16097e-10 0)
(4.99799e-05 -7.84973e-10 0)
(4.99814e-05 -7.58256e-10 0)
(4.99829e-05 -7.35032e-10 0)
(4.99843e-05 -7.14246e-10 0)
(4.99858e-05 -6.94477e-10 0)
(4.99872e-05 -6.74001e-10 0)
(4.99887e-05 -6.50784e-10 0)
(4.99901e-05 -6.22371e-10 0)
(4.99916e-05 -5.85982e-10 0)
(4.9993e-05 -5.38387e-10 0)
(4.99944e-05 -4.76072e-10 0)
(4.99957e-05 -3.95224e-10 0)
(4.9997e-05 -2.92026e-10 0)
(4.99982e-05 -1.62893e-10 0)
(4.99993e-05 -4.99056e-12 0)
(5.00003e-05 1.83135e-10 0)
(5.0001e-05 4.00786e-10 0)
(5.00016e-05 6.44045e-10 0)
(5.00019e-05 9.05119e-10 0)
(5.00019e-05 1.17119e-09 0)
(5.00016e-05 1.4244e-09 0)
(5.00011e-05 1.64483e-09 0)
(4.9954e-05 -8.90851e-09 0)
(4.99579e-05 -9.67173e-09 0)
(4.99622e-05 -1.05082e-08 0)
(4.99671e-05 -1.14114e-08 0)
(4.99724e-05 -1.23816e-08 0)
(4.99784e-05 -1.34052e-08 0)
(4.99851e-05 -1.44715e-08 0)
(4.99925e-05 -1.55553e-08 0)
(5.00007e-05 -1.66289e-08 0)
(5.00096e-05 -1.76497e-08 0)
(5.00193e-05 -1.85668e-08 0)
(5.00298e-05 -1.93146e-08 0)
(5.00409e-05 -1.98155e-08 0)
(5.00525e-05 -1.99797e-08 0)
(5.00645e-05 -1.97072e-08 0)
(5.00765e-05 -1.88942e-08 0)
(5.00882e-05 -1.74385e-08 0)
(5.00991e-05 -1.52535e-08 0)
(5.01088e-05 -1.22793e-08 0)
(5.01168e-05 -8.50259e-09 0)
(5.01223e-05 -3.97035e-09 0)
(5.0125e-05 1.19256e-09 0)
(5.01244e-05 6.781e-09 0)
(5.01203e-05 1.25121e-08 0)
(5.01126e-05 1.80538e-08 0)
(5.01016e-05 2.30589e-08 0)
(5.00876e-05 2.72194e-08 0)
(5.00715e-05 3.03078e-08 0)
(5.0054e-05 3.2196e-08 0)
(5.00358e-05 3.28592e-08 0)
(5.00179e-05 3.23622e-08 0)
(5.00008e-05 3.08445e-08 0)
(4.99853e-05 2.8497e-08 0)
(4.99717e-05 2.55451e-08 0)
(4.99603e-05 2.22238e-08 0)
(4.99512e-05 1.87607e-08 0)
(4.99443e-05 1.5353e-08 0)
(4.99395e-05 1.21546e-08 0)
(4.99366e-05 9.26731e-09 0)
(4.99352e-05 6.7494e-09 0)
(4.9935e-05 4.61705e-09 0)
(4.99359e-05 2.86404e-09 0)
(4.99376e-05 1.45849e-09 0)
(4.99397e-05 3.65888e-10 0)
(4.99423e-05 -4.61581e-10 0)
(4.9945e-05 -1.06355e-09 0)
(4.99478e-05 -1.48491e-09 0)
(4.99507e-05 -1.7601e-09 0)
(4.99535e-05 -1.92352e-09 0)
(4.99562e-05 -2.00152e-09 0)
(4.99588e-05 -2.0173e-09 0)
(4.99613e-05 -1.98925e-09 0)
(4.99636e-05 -1.93178e-09 0)
(4.99658e-05 -1.85652e-09 0)
(4.99679e-05 -1.77191e-09 0)
(4.99699e-05 -1.68444e-09 0)
(4.99717e-05 -1.5988e-09 0)
(4.99735e-05 -1.5179e-09 0)
(4.99752e-05 -1.44405e-09 0)
(4.99768e-05 -1.37792e-09 0)
(4.99784e-05 -1.32019e-09 0)
(4.99799e-05 -1.27023e-09 0)
(4.99814e-05 -1.22744e-09 0)
(4.99829e-05 -1.19034e-09 0)
(4.99843e-05 -1.15724e-09 0)
(4.99858e-05 -1.12586e-09 0)
(4.99872e-05 -1.09342e-09 0)
(4.99886e-05 -1.05665e-09 0)
(4.99901e-05 -1.01161e-09 0)
(4.99915e-05 -9.53803e-10 0)
(4.99929e-05 -8.77993e-10 0)
(4.99943e-05 -7.78457e-10 0)
(4.99956e-05 -6.48952e-10 0)
(4.99969e-05 -4.83158e-10 0)
(4.99982e-05 -2.75068e-10 0)
(4.99993e-05 -1.97929e-11 0)
(5.00002e-05 2.85391e-10 0)
(5.0001e-05 6.39795e-10 0)
(5.00016e-05 1.03749e-09 0)
(5.00019e-05 1.46621e-09 0)
(5.00019e-05 1.90531e-09 0)
(5.00017e-05 2.32581e-09 0)
(5.00012e-05 2.69713e-09 0)
(4.99542e-05 -1.23472e-08 0)
(4.9958e-05 -1.34007e-08 0)
(4.99623e-05 -1.45559e-08 0)
(4.99671e-05 -1.58042e-08 0)
(4.99723e-05 -1.71465e-08 0)
(4.99782e-05 -1.85647e-08 0)
(4.99848e-05 -2.00447e-08 0)
(4.9992e-05 -2.15527e-08 0)
(5e-05 -2.30515e-08 0)
(5.00088e-05 -2.4483e-08 0)
(5.00184e-05 -2.57778e-08 0)
(5.00287e-05 -2.6846e-08 0)
(5.00397e-05 -2.75802e-08 0)
(5.00512e-05 -2.78551e-08 0)
(5.00631e-05 -2.75303e-08 0)
(5.00751e-05 -2.64582e-08 0)
(5.00869e-05 -2.44913e-08 0)
(5.0098e-05 -2.15017e-08 0)
(5.01079e-05 -1.73967e-08 0)
(5.01161e-05 -1.21479e-08 0)
(5.01219e-05 -5.81186e-09 0)
(5.01248e-05 1.44229e-09 0)
(5.01245e-05 9.32711e-09 0)
(5.01204e-05 1.74372e-08 0)
(5.01127e-05 2.52914e-08 0)
(5.01016e-05 3.2381e-08 0)
(5.00875e-05 3.82579e-08 0)
(5.00711e-05 4.2596e-08 0)
(5.00533e-05 4.5217e-08 0)
(5.0035e-05 4.60933e-08 0)
(5.00169e-05 4.53248e-08 0)
(4.99998e-05 4.31164e-08 0)
(4.99843e-05 3.97441e-08 0)
(4.99708e-05 3.55317e-08 0)
(4.99596e-05 3.0816e-08 0)
(4.99507e-05 2.59228e-08 0)
(4.99441e-05 2.11326e-08 0)
(4.99396e-05 1.66604e-08 0)
(4.99369e-05 1.26447e-08 0)
(4.99357e-05 9.16067e-09 0)
(4.99357e-05 6.22454e-09 0)
(4.99367e-05 3.82211e-09 0)
(4.99384e-05 1.90426e-09 0)
(4.99406e-05 4.20097e-10 0)
(4.99431e-05 -6.99258e-10 0)
(4.99458e-05 -1.50963e-09 0)
(4.99486e-05 -2.07404e-09 0)
(4.99514e-05 -2.44003e-09 0)
(4.99541e-05 -2.65505e-09 0)
(4.99568e-05 -2.75511e-09 0)
(4.99593e-05 -2.77176e-09 0)
(4.99617e-05 -2.73003e-09 0)
(4.9964e-05 -2.6492e-09 0)
(4.99661e-05 -2.54511e-09 0)
(4.99682e-05 -2.42893e-09 0)
(4.99701e-05 -2.30943e-09 0)
(4.99719e-05 -2.19279e-09 0)
(4.99736e-05 -2.0829e-09 0)
(4.99753e-05 -1.98279e-09 0)
(4.99769e-05 -1.89333e-09 0)
(4.99784e-05 -1.8154e-09 0)
(4.99799e-05 -1.74809e-09 0)
(4.99814e-05 -1.6906e-09 0)
(4.99828e-05 -1.64088e-09 0)
(4.99843e-05 -1.59667e-09 0)
(4.99857e-05 -1.55486e-09 0)
(4.99871e-05 -1.51169e-09 0)
(4.99885e-05 -1.46271e-09 0)
(4.999e-05 -1.40255e-09 0)
(4.99914e-05 -1.32504e-09 0)
(4.99928e-05 -1.223e-09 0)
(4.99942e-05 -1.08847e-09 0)
(4.99955e-05 -9.127e-10 0)
(4.99968e-05 -6.86727e-10 0)
(4.9998e-05 -4.01834e-10 0)
(4.99992e-05 -5.06585e-11 0)
(5.00002e-05 3.71368e-10 0)
(5.0001e-05 8.64275e-10 0)
(5.00015e-05 1.42084e-09 0)
(5.00019e-05 2.0249e-09 0)
(5.0002e-05 2.64784e-09 0)
(5.00017e-05 3.2483e-09 0)
(5.00012e-05 3.77868e-09 0)
(4.99545e-05 -1.57529e-08 0)
(4.99583e-05 -1.70901e-08 0)
(4.99625e-05 -1.85575e-08 0)
(4.99671e-05 -2.01448e-08 0)
(4.99723e-05 -2.1854e-08 0)
(4.9978e-05 -2.36634e-08 0)
(4.99843e-05 -2.55563e-08 0)
(4.99914e-05 -2.74916e-08 0)
(4.99992e-05 -2.94232e-08 0)
(5.00077e-05 -3.12798e-08 0)
(5.00171e-05 -3.29743e-08 0)
(5.00272e-05 -3.43938e-08 0)
(5.0038e-05 -3.54017e-08 0)
(5.00493e-05 -3.58377e-08 0)
(5.00612e-05 -3.55191e-08 0)
(5.00731e-05 -3.42516e-08 0)
(5.0085e-05 -3.18371e-08 0)
(5.00962e-05 -2.80988e-08 0)
(5.01064e-05 -2.29011e-08 0)
(5.01149e-05 -1.61892e-08 0)
(5.01211e-05 -8.01876e-09 0)
(5.01244e-05 1.40334e-09 0)
(5.01243e-05 1.17068e-08 0)
(5.01205e-05 2.23513e-08 0)
(5.01128e-05 3.26855e-08 0)
(5.01015e-05 4.20087e-08 0)
(5.00871e-05 4.97101e-08 0)
(5.00705e-05 5.53552e-08 0)
(5.00524e-05 5.87166e-08 0)
(5.00338e-05 5.97715e-08 0)
(5.00155e-05 5.86654e-08 0)
(4.99984e-05 5.56787e-08 0)
(4.99829e-05 5.11821e-08 0)
(4.99696e-05 4.56075e-08 0)
(4.99586e-05 3.94032e-08 0)
(4.995e-05 3.3003e-08 0)
(4.99438e-05 2.6778e-08 0)
(4.99396e-05 2.10055e-08 0)
(4.99372e-05 1.58567e-08 0)
(4.99363e-05 1.14178e-08 0)
(4.99366e-05 7.69868e-09 0)
(4.99378e-05 4.67218e-09 0)
(4.99396e-05 2.26785e-09 0)
(4.99418e-05 4.16221e-10 0)
(4.99443e-05 -9.74348e-10 0)
(4.9947e-05 -1.97613e-09 0)
(4.99497e-05 -2.67046e-09 0)
(4.99524e-05 -3.11749e-09 0)
(4.99551e-05 -3.37724e-09 0)
(4.99576e-05 -3.49489e-09 0)
(4.99601e-05 -3.50967e-09 0)
(4.99624e-05 -3.45295e-09 0)
(4.99646e-05 -3.34836e-09 0)
(4.99666e-05 -3.21575e-09 0)
(4.99686e-05 -3.06866e-09 0)
(4.99704e-05 -2.91808e-09 0)
(4.99722e-05 -2.77148e-09 0)
(4.99739e-05 -2.63368e-09 0)
(4.99755e-05 -2.5084e-09 0)
(4.9977e-05 -2.39662e-09 0)
(4.99785e-05 -2.29947e-09 0)
(4.998e-05 -2.21574e-09 0)
(4.99814e-05 -2.14447e-09 0)
(4.99828e-05 -2.08309e-09 0)
(4.99842e-05 -2.02881e-09 0)
(4.99856e-05 -1.97773e-09 0)
(4.9987e-05 -1.92524e-09 0)
(4.99884e-05 -1.86577e-09 0)
(4.99898e-05 -1.7926e-09 0)
(4.99912e-05 -1.69802e-09 0)
(4.99926e-05 -1.5729e-09 0)
(4.9994e-05 -1.40711e-09 0)
(4.99953e-05 -1.18936e-09 0)
(4.99966e-05 -9.07834e-10 0)
(4.99979e-05 -5.50799e-10 0)
(4.9999e-05 -1.0787e-10 0)
(5e-05 4.2814e-10 0)
(5.00009e-05 1.05901e-09 0)
(5.00015e-05 1.77739e-09 0)
(5.00019e-05 2.56447e-09 0)
(5.0002e-05 3.3847e-09 0)
(5.00018e-05 4.18526e-09 0)
(5.00013e-05 4.90547e-09 0)
(4.99549e-05 -1.91164e-08 0)
(4.99586e-05 -2.07275e-08 0)
(4.99627e-05 -2.24966e-08 0)
(4.99672e-05 -2.44124e-08 0)
(4.99722e-05 -2.64787e-08 0)
(4.99777e-05 -2.86705e-08 0)
(4.99839e-05 -3.09702e-08 0)
(4.99907e-05 -3.33301e-08 0)
(4.99982e-05 -3.56978e-08 0)
(5.00065e-05 -3.79894e-08 0)
(5.00155e-05 -4.0103e-08 0)
(5.00254e-05 -4.19037e-08 0)
(5.00359e-05 -4.32277e-08 0)
(5.00471e-05 -4.38795e-08 0)
(5.00587e-05 -4.36337e-08 0)
(5.00706e-05 -4.22458e-08 0)
(5.00825e-05 -3.94613e-08 0)
(5.00939e-05 -3.50442e-08 0)
(5.01044e-05 -2.88036e-08 0)
(5.01133e-05 -2.06428e-08 0)
(5.012e-05 -1.06014e-08 0)
(5.01238e-05 1.08599e-09 0)
(5.01241e-05 1.39668e-08 0)
(5.01205e-05 2.73488e-08 0)
(5.01128e-05 4.03804e-08 0)
(5.01014e-05 5.21208e-08 0)
(5.00867e-05 6.17652e-08 0)
(5.00696e-05 6.87598e-08 0)
(5.00512e-05 7.28337e-08 0)
(5.00323e-05 7.39838e-08 0)
(5.00139e-05 7.24176e-08 0)
(4.99967e-05 6.85064e-08 0)
(4.99813e-05 6.27286e-08 0)
(4.99682e-05 5.56382e-08 0)
(4.99575e-05 4.78078e-08 0)
(4.99494e-05 3.97944e-08 0)
(4.99436e-05 3.20701e-08 0)
(4.99399e-05 2.49744e-08 0)
(4.9938e-05 1.87041e-08 0)
(4.99374e-05 1.33458e-08 0)
(4.99379e-05 8.8931e-09 0)
(4.99392e-05 5.298e-09 0)
(4.99411e-05 2.46234e-09 0)
(4.99434e-05 2.94496e-10 0)
(4.99459e-05 -1.32266e-09 0)
(4.99485e-05 -2.47842e-09 0)
(4.99511e-05 -3.27286e-09 0)
(4.99537e-05 -3.77809e-09 0)
(4.99562e-05 -4.066e-09 0)
(4.99586e-05 -4.19005e-09 0)
(4.99609e-05 -4.19605e-09 0)
(4.99631e-05 -4.12101e-09 0)
(4.99652e-05 -3.99184e-09 0)
(4.99672e-05 -3.83192e-09 0)
(4.9969e-05 -3.65639e-09 0)
(4.99708e-05 -3.47809e-09 0)
(4.99725e-05 -3.30532e-09 0)
(4.99741e-05 -3.14359e-09 0)
(4.99756e-05 -2.99706e-09 0)
(4.99771e-05 -2.86671e-09 0)
(4.99786e-05 -2.75381e-09 0)
(4.998e-05 -2.65684e-09 0)
(4.99814e-05 -2.57468e-09 0)
(4.99828e-05 -2.50427e-09 0)
(4.99842e-05 -2.44236e-09 0)
(4.99855e-05 -2.38441e-09 0)
(4.99869e-05 -2.325e-09 0)
(4.99883e-05 -2.25764e-09 0)
(4.99896e-05 -2.17439e-09 0)
(4.9991e-05 -2.06613e-09 0)
(4.99924e-05 -1.92197e-09 0)
(4.99938e-05 -1.72966e-09 0)
(4.99951e-05 -1.47535e-09 0)
(4.99964e-05 -1.14426e-09 0)
(4.99977e-05 -7.21277e-10 0)
(4.99988e-05 -1.92342e-10 0)
(4.99999e-05 4.53342e-10 0)
(5.00008e-05 1.22069e-09 0)
(5.00015e-05 2.10382e-09 0)
(5.00019e-05 3.08294e-09 0)
(5.0002e-05 4.11617e-09 0)
(5.00018e-05 5.13824e-09 0)
(5.00013e-05 6.06807e-09 0)
(4.99555e-05 -2.24136e-08 0)
(4.99591e-05 -2.42863e-08 0)
(4.9963e-05 -2.63444e-08 0)
(4.99674e-05 -2.85762e-08 0)
(4.99722e-05 -3.09875e-08 0)
(4.99776e-05 -3.35521e-08 0)
(4.99835e-05 -3.62515e-08 0)
(4.999e-05 -3.90343e-08 0)
(4.99972e-05 -4.18425e-08 0)
(5.00051e-05 -4.45835e-08 0)
(5.00138e-05 -4.71419e-08 0)
(5.00233e-05 -4.93645e-08 0)
(5.00334e-05 -5.10617e-08 0)
(5.00443e-05 -5.2005e-08 0)
(5.00557e-05 -5.19256e-08 0)
(5.00675e-05 -5.05263e-08 0)
(5.00794e-05 -4.74892e-08 0)
(5.0091e-05 -4.25085e-08 0)
(5.01017e-05 -3.53203e-08 0)
(5.01111e-05 -2.57651e-08 0)
(5.01183e-05 -1.38423e-08 0)
(5.01227e-05 2.04327e-10 0)
(5.01235e-05 1.58481e-08 0)
(5.01202e-05 3.22271e-08 0)
(5.01126e-05 4.82512e-08 0)
(5.01009e-05 6.26661e-08 0)
(5.00859e-05 7.44286e-08 0)
(5.00684e-05 8.28552e-08 0)
(5.00495e-05 8.7641e-08 0)
(5.00303e-05 8.88225e-08 0)
(5.00118e-05 8.66888e-08 0)
(4.99946e-05 8.17177e-08 0)
(4.99794e-05 7.45065e-08 0)
(4.99666e-05 6.57449e-08 0)
(4.99564e-05 5.61426e-08 0)
(4.99488e-05 4.64012e-08 0)
(4.99436e-05 3.71092e-08 0)
(4.99405e-05 2.8668e-08 0)
(4.9939e-05 2.12887e-08 0)
(4.99388e-05 1.50451e-08 0)
(4.99396e-05 9.903e-09 0)
(4.99411e-05 5.78576e-09 0)
(4.9943e-05 2.56178e-09 0)
(4.99453e-05 1.14773e-10 0)
(4.99477e-05 -1.69934e-09 0)
(4.99502e-05 -2.98642e-09 0)
(4.99527e-05 -3.86479e-09 0)
(4.99552e-05 -4.41731e-09 0)
(4.99575e-05 -4.72663e-09 0)
(4.99598e-05 -4.85357e-09 0)
(4.9962e-05 -4.84944e-09 0)
(4.9964e-05 -4.75641e-09 0)
(4.9966e-05 -4.60387e-09 0)
(4.99678e-05 -4.41854e-09 0)
(4.99696e-05 -4.21666e-09 0)
(4.99712e-05 -4.01286e-09 0)
(4.99728e-05 -3.81607e-09 0)
(4.99744e-05 -3.63241e-09 0)
(4.99758e-05 -3.46646e-09 0)
(4.99773e-05 -3.31916e-09 0)
(4.99787e-05 -3.19198e-09 0)
(4.998e-05 -3.08304e-09 0)
(4.99814e-05 -2.99119e-09 0)
(4.99827e-05 -2.91288e-09 0)
(4.99841e-05 -2.84455e-09 0)
(4.99854e-05 -2.78108e-09 0)
(4.99867e-05 -2.71641e-09 0)
(4.99881e-05 -2.64325e-09 0)
(4.99894e-05 -2.55265e-09 0)
(4.99908e-05 -2.43423e-09 0)
(4.99921e-05 -2.27551e-09 0)
(4.99935e-05 -2.06226e-09 0)
(4.99948e-05 -1.77815e-09 0)
(4.99961e-05 -1.40533e-09 0)
(4.99974e-05 -9.24988e-10 0)
(4.99986e-05 -3.18712e-10 0)
(4.99997e-05 4.29047e-10 0)
(5.00006e-05 1.32812e-09 0)
(5.00014e-05 2.37635e-09 0)
(5.00019e-05 3.5559e-09 0)
(5.00021e-05 4.82125e-09 0)
(5.00019e-05 6.09714e-09 0)
(5.00014e-05 7.28492e-09 0)
(4.99562e-05 -2.56585e-08 0)
(4.99597e-05 -2.7779e-08 0)
(4.99635e-05 -3.01113e-08 0)
(4.99677e-05 -3.26431e-08 0)
(4.99724e-05 -3.53835e-08 0)
(4.99775e-05 -3.83052e-08 0)
(4.99831e-05 -4.1391e-08 0)
(4.99893e-05 -4.45864e-08 0)
(4.99962e-05 -4.7831e-08 0)
(5.00037e-05 -5.10249e-08 0)
(5.00119e-05 -5.40429e-08 0)
(5.00209e-05 -5.67159e-08 0)
(5.00307e-05 -5.88323e-08 0)
(5.00412e-05 -6.01321e-08 0)
(5.00522e-05 -6.03044e-08 0)
(5.00638e-05 -5.89972e-08 0)
(5.00756e-05 -5.58233e-08 0)
(5.00872e-05 -5.03948e-08 0)
(5.00983e-05 -4.23568e-08 0)
(5.01081e-05 -3.14609e-08 0)
(5.0116e-05 -1.76365e-08 0)
(5.01211e-05 -1.11027e-09 0)
(5.01225e-05 1.753e-08 0)
(5.01197e-05 3.723e-08 0)
(5.01122e-05 5.66103e-08 0)
(5.01003e-05 7.39843e-08 0)
(5.00848e-05 8.8016e-08 0)
(5.00668e-05 9.78913e-08 0)
(5.00476e-05 1.03297e-07 0)
(5.00282e-05 1.04345e-07 0)
(5.00095e-05 1.01438e-07 0)
(4.99924e-05 9.51818e-08 0)
(4.99775e-05 8.63047e-08 0)
(4.99651e-05 7.56485e-08 0)
(4.99554e-05 6.40746e-08 0)
(4.99485e-05 5.24615e-08 0)
(4.9944e-05 4.15354e-08 0)
(4.99415e-05 3.17535e-08 0)
(4.99405e-05 2.33199e-08 0)
(4.99407e-05 1.62737e-08 0)
(4.99418e-05 1.05365e-08 0)
(4.99434e-05 5.99124e-09 0)
(4.99454e-05 2.46519e-09 0)
(4.99476e-05 -1.86027e-10 0)
(4.99499e-05 -2.13549e-09 0)
(4.99523e-05 -3.50501e-09 0)
(4.99546e-05 -4.43049e-09 0)
(4.99569e-05 -5.00385e-09 0)
(4.9959e-05 -5.31686e-09 0)
(4.99611e-05 -5.43611e-09 0)
(4.99631e-05 -5.41675e-09 0)
(4.9965e-05 -5.30489e-09 0)
(4.99668e-05 -5.13106e-09 0)
(4.99685e-05 -4.92455e-09 0)
(4.99702e-05 -4.70175e-09 0)
(4.99717e-05 -4.47862e-09 0)
(4.99732e-05 -4.26412e-09 0)
(4.99747e-05 -4.06475e-09 0)
(4.99761e-05 -3.88525e-09 0)
(4.99774e-05 -3.72637e-09 0)
(4.99788e-05 -3.58974e-09 0)
(4.99801e-05 -3.47309e-09 0)
(4.99814e-05 -3.37529e-09 0)
(4.99827e-05 -3.29237e-09 0)
(4.9984e-05 -3.22057e-09 0)
(4.99853e-05 -3.15429e-09 0)
(4.99866e-05 -3.08705e-09 0)
(4.99879e-05 -3.01091e-09 0)
(4.99892e-05 -2.91616e-09 0)
(4.99905e-05 -2.79139e-09 0)
(4.99918e-05 -2.62278e-09 0)
(4.99932e-05 -2.39435e-09 0)
(4.99945e-05 -2.08743e-09 0)
(4.99958e-05 -1.68115e-09 0)
(4.99971e-05 -1.15275e-09 0)
(4.99983e-05 -4.78852e-10 0)
(4.99994e-05 3.62001e-10 0)
(5.00004e-05 1.38651e-09 0)
(5.00012e-05 2.59895e-09 0)
(5.00018e-05 3.98699e-09 0)
(5.00021e-05 5.50436e-09 0)
(5.0002e-05 7.06772e-09 0)
(5.00015e-05 8.55581e-09 0)
(4.9957e-05 -2.88213e-08 0)
(4.99605e-05 -3.11733e-08 0)
(4.99642e-05 -3.37618e-08 0)
(4.99683e-05 -3.65753e-08 0)
(4.99727e-05 -3.96261e-08 0)
(4.99776e-05 -4.28876e-08 0)
(4.99829e-05 -4.63445e-08 0)
(4.99888e-05 -4.99425e-08 0)
(4.99952e-05 -5.36198e-08 0)
(5.00023e-05 -5.72738e-08 0)
(5.001e-05 -6.07723e-08 0)
(5.00185e-05 -6.39357e-08 0)
(5.00277e-05 -6.6534e-08 0)
(5.00377e-05 -6.82809e-08 0)
(5.00483e-05 -6.88264e-08 0)
(5.00595e-05 -6.7764e-08 0)
(5.0071e-05 -6.46332e-08 0)
(5.00827e-05 -5.89518e-08 0)
(5.00939e-05 -5.02512e-08 0)
(5.01042e-05 -3.81598e-08 0)
(5.01127e-05 -2.24909e-08 0)
(5.01186e-05 -3.40583e-09 0)
(5.01208e-05 1.84828e-08 0)
(5.01185e-05 4.19168e-08 0)
(5.01111e-05 6.51698e-08 0)
(5.00989e-05 8.59245e-08 0)
(5.0083e-05 1.0248e-07 0)
(5.00646e-05 1.13899e-07 0)
(5.0045e-05 1.19898e-07 0)
(5.00255e-05 1.20711e-07 0)
(5.00069e-05 1.16885e-07 0)
(4.999e-05 1.09169e-07 0)
(4.99755e-05 9.84263e-08 0)
(4.99637e-05 8.56621e-08 0)
(4.99547e-05 7.18982e-08 0)
(4.99486e-05 5.82442e-08 0)
(4.99449e-05 4.56012e-08 0)
(4.99431e-05 3.4472e-08 0)
(4.99427e-05 2.50244e-08 0)
(4.99433e-05 1.72369e-08 0)
(4.99445e-05 1.09704e-08 0)
(4.99462e-05 6.05849e-09 0)
(4.99482e-05 2.28214e-09 0)
(4.99503e-05 -5.32287e-10 0)
(4.99525e-05 -2.58673e-09 0)
(4.99546e-05 -4.01712e-09 0)
(4.99567e-05 -4.97548e-09 0)
(4.99587e-05 -5.5609e-09 0)
(4.99607e-05 -5.87276e-09 0)
(4.99626e-05 -5.98243e-09 0)
(4.99643e-05 -5.94758e-09 0)
(4.9966e-05 -5.81806e-09 0)
(4.99677e-05 -5.62459e-09 0)
(4.99692e-05 -5.39906e-09 0)
(4.99707e-05 -5.15752e-09 0)
(4.99722e-05 -4.91729e-09 0)
(4.99736e-05 -4.68718e-09 0)
(4.99749e-05 -4.47405e-09 0)
(4.99763e-05 -4.28277e-09 0)
(4.99776e-05 -4.11384e-09 0)
(4.99789e-05 -3.96912e-09 0)
(4.99801e-05 -3.84592e-09 0)
(4.99814e-05 -3.74319e-09 0)
(4.99826e-05 -3.6566e-09 0)
(4.99839e-05 -3.58228e-09 0)
(4.99851e-05 -3.5143e-09 0)
(4.99864e-05 -3.44588e-09 0)
(4.99876e-05 -3.36865e-09 0)
(4.99889e-05 -3.27233e-09 0)
(4.99902e-05 -3.14479e-09 0)
(4.99915e-05 -2.97117e-09 0)
(4.99928e-05 -2.73405e-09 0)
(4.99941e-05 -2.41274e-09 0)
(4.99954e-05 -1.98352e-09 0)
(4.99966e-05 -1.41971e-09 0)
(4.99978e-05 -6.92509e-10 0)
(4.9999e-05 2.26569e-10 0)
(5.00001e-05 1.36333e-09 0)
(5.0001e-05 2.732e-09 0)
(5.00016e-05 4.33129e-09 0)
(5.0002e-05 6.12041e-09 0)
(5.0002e-05 8.01524e-09 0)
(5.00016e-05 9.87632e-09 0)
(4.99581e-05 -3.19419e-08 0)
(4.99615e-05 -3.45097e-08 0)
(4.99651e-05 -3.73367e-08 0)
(4.9969e-05 -4.04119e-08 0)
(4.99733e-05 -4.37517e-08 0)
(4.99779e-05 -4.73301e-08 0)
(4.9983e-05 -5.11354e-08 0)
(4.99885e-05 -5.51139e-08 0)
(4.99945e-05 -5.92059e-08 0)
(5.0001e-05 -6.33075e-08 0)
(5.00082e-05 -6.72838e-08 0)
(5.00161e-05 -7.09481e-08 0)
(5.00246e-05 -7.40576e-08 0)
(5.00339e-05 -7.63041e-08 0)
(5.00439e-05 -7.73039e-08 0)
(5.00545e-05 -7.6598e-08 0)
(5.00656e-05 -7.36523e-08 0)
(5.0077e-05 -6.7881e-08 0)
(5.00883e-05 -5.8683e-08 0)
(5.0099e-05 -4.55286e-08 0)
(5.01081e-05 -2.80635e-08 0)
(5.01149e-05 -6.32484e-09 0)
(5.0118e-05 1.91013e-08 0)
(5.01164e-05 4.67507e-08 0)
(5.01093e-05 7.44815e-08 0)
(5.00968e-05 9.90113e-08 0)
(5.00805e-05 1.18211e-07 0)
(5.00617e-05 1.31081e-07 0)
(5.0042e-05 1.37441e-07 0)
(5.00226e-05 1.37729e-07 0)
(5.00043e-05 1.32686e-07 0)
(4.99879e-05 1.23222e-07 0)
(4.99739e-05 1.10331e-07 0)
(4.99628e-05 9.51898e-08 0)
(4.99546e-05 7.89757e-08 0)
(4.99494e-05 6.31161e-08 0)
(4.99466e-05 4.8736e-08 0)
(4.99455e-05 3.63512e-08 0)
(4.99456e-05 2.60355e-08 0)
(4.99465e-05 1.76676e-08 0)
(4.99479e-05 1.10262e-08 0)
(4.99496e-05 5.8841e-09 0)
(4.99514e-05 1.97054e-09 0)
(4.99534e-05 -9.17763e-10 0)
(4.99553e-05 -3.01018e-09 0)
(4.99571e-05 -4.45354e-09 0)
(4.9959e-05 -5.41288e-09 0)
(4.99607e-05 -5.99127e-09 0)
(4.99624e-05 -6.29279e-09 0)
(4.99641e-05 -6.39115e-09 0)
(4.99656e-05 -6.34436e-09 0)
(4.99671e-05 -6.20437e-09 0)
(4.99686e-05 -6.00063e-09 0)
(4.997e-05 -5.76668e-09 0)
(4.99713e-05 -5.51729e-09 0)
(4.99727e-05 -5.27067e-09 0)
(4.9974e-05 -5.03501e-09 0)
(4.99752e-05 -4.81732e-09 0)
(4.99765e-05 -4.6224e-09 0)
(4.99777e-05 -4.45054e-09 0)
(4.99789e-05 -4.30376e-09 0)
(4.99802e-05 -4.17906e-09 0)
(4.99814e-05 -4.07558e-09 0)
(4.99826e-05 -3.98871e-09 0)
(4.99838e-05 -3.91466e-09 0)
(4.9985e-05 -3.84728e-09 0)
(4.99862e-05 -3.77972e-09 0)
(4.99874e-05 -3.70338e-09 0)
(4.99886e-05 -3.60773e-09 0)
(4.99899e-05 -3.48016e-09 0)
(4.99911e-05 -3.30514e-09 0)
(4.99924e-05 -3.06423e-09 0)
(4.99936e-05 -2.73512e-09 0)
(4.99949e-05 -2.29162e-09 0)
(4.99961e-05 -1.7034e-09 0)
(4.99973e-05 -9.36159e-10 0)
(4.99985e-05 4.62789e-11 0)
(4.99996e-05 1.28066e-09 0)
(5.00006e-05 2.79448e-09 0)
(5.00014e-05 4.60355e-09 0)
(5.00019e-05 6.67994e-09 0)
(5.0002e-05 8.94882e-09 0)
(5.00017e-05 1.12555e-08 0)
(4.99594e-05 -3.49795e-08 0)
(4.99627e-05 -3.77445e-08 0)
(4.99663e-05 -4.07891e-08 0)
(4.99701e-05 -4.41035e-08 0)
(4.99742e-05 -4.7708e-08 0)
(4.99786e-05 -5.1579e-08 0)
(4.99833e-05 -5.57084e-08 0)
(4.99885e-05 -6.00464e-08 0)
(4.9994e-05 -6.4536e-08 0)
(5.00001e-05 -6.90777e-08 0)
(5.00067e-05 -7.35363e-08 0)
(5.00138e-05 -7.77258e-08 0)
(5.00216e-05 -8.13962e-08 0)
(5.00301e-05 -8.42268e-08 0)
(5.00393e-05 -8.58085e-08 0)
(5.00491e-05 -8.56383e-08 0)
(5.00595e-05 -8.3113e-08 0)
(5.00705e-05 -7.7538e-08 0)
(5.00815e-05 -6.81616e-08 0)
(5.00923e-05 -5.42515e-08 0)
(5.01019e-05 -3.5209e-08 0)
(5.01095e-05 -1.08429e-08 0)
(5.01136e-05 1.83985e-08 0)
(5.0113e-05 5.09081e-08 0)
(5.01061e-05 8.40751e-08 0)
(5.00933e-05 1.13034e-07 0)
(5.00765e-05 1.35174e-07 0)
(5.00577e-05 1.4955e-07 0)
(5.00382e-05 1.5617e-07 0)
(5.00193e-05 1.55778e-07 0)
(5.00018e-05 1.49357e-07 0)
(4.99862e-05 1.37972e-07 0)
(4.99731e-05 1.22716e-07 0)
(4.99627e-05 1.04932e-07 0)
(4.99555e-05 8.59179e-08 0)
(4.99513e-05 6.75911e-08 0)
(4.99495e-05 5.1394e-08 0)
(4.99492e-05 3.77978e-08 0)
(4.99497e-05 2.67023e-08 0)
(4.99508e-05 1.78451e-08 0)
(4.99521e-05 1.09089e-08 0)
(4.99536e-05 5.60066e-09 0)
(4.99552e-05 1.59717e-09 0)
(4.99568e-05 -1.33201e-09 0)
(4.99584e-05 -3.44064e-09 0)
(4.99599e-05 -4.88318e-09 0)
(4.99614e-05 -5.83533e-09 0)
(4.99628e-05 -6.40219e-09 0)
(4.99642e-05 -6.69102e-09 0)
(4.99655e-05 -6.77727e-09 0)
(4.99669e-05 -6.71829e-09 0)
(4.99682e-05 -6.5682e-09 0)
(4.99694e-05 -6.35459e-09 0)
(4.99707e-05 -6.11287e-09 0)
(4.99719e-05 -5.85626e-09 0)
(4.99731e-05 -5.60398e-09 0)
(4.99743e-05 -5.36348e-09 0)
(4.99755e-05 -5.14194e-09 0)
(4.99767e-05 -4.94409e-09 0)
(4.99778e-05 -4.7699e-09 0)
(4.9979e-05 -4.62162e-09 0)
(4.99801e-05 -4.49587e-09 0)
(4.99813e-05 -4.39198e-09 0)
(4.99825e-05 -4.30511e-09 0)
(4.99836e-05 -4.23158e-09 0)
(4.99848e-05 -4.16515e-09 0)
(4.9986e-05 -4.09902e-09 0)
(4.99871e-05 -4.02453e-09 0)
(4.99883e-05 -3.93112e-09 0)
(4.99895e-05 -3.80607e-09 0)
(4.99907e-05 -3.63357e-09 0)
(4.99919e-05 -3.39464e-09 0)
(4.99931e-05 -3.06598e-09 0)
(4.99943e-05 -2.61965e-09 0)
(4.99955e-05 -2.02229e-09 0)
(4.99967e-05 -1.23461e-09 0)
(4.99979e-05 -2.12617e-10 0)
(4.9999e-05 1.09283e-09 0)
(5.00001e-05 2.72618e-09 0)
(5.0001e-05 4.72844e-09 0)
(5.00017e-05 7.0968e-09 0)
(5.00019e-05 9.78558e-09 0)
(5.00018e-05 1.26433e-08 0)
(4.9961e-05 -3.80072e-08 0)
(4.99643e-05 -4.09545e-08 0)
(4.99678e-05 -4.41993e-08 0)
(4.99715e-05 -4.77314e-08 0)
(4.99755e-05 -5.1576e-08 0)
(4.99797e-05 -5.57106e-08 0)
(4.99842e-05 -6.01318e-08 0)
(4.9989e-05 -6.47936e-08 0)
(4.99941e-05 -6.96432e-08 0)
(4.99997e-05 -7.45871e-08 0)
(5.00056e-05 -7.94927e-08 0)
(5.0012e-05 -8.41781e-08 0)
(5.00189e-05 -8.83919e-08 0)
(5.00264e-05 -9.18076e-08 0)
(5.00345e-05 -9.40009e-08 0)
(5.00433e-05 -9.44338e-08 0)
(5.00527e-05 -9.24462e-08 0)
(5.00626e-05 -8.72388e-08 0)
(5.0073e-05 -7.79079e-08 0)
(5.00835e-05 -6.34907e-08 0)
(5.00934e-05 -4.30804e-08 0)
(5.01017e-05 -1.61508e-08 0)
(5.01069e-05 1.71176e-08 0)
(5.01075e-05 5.51362e-08 0)
(5.01011e-05 9.48021e-08 0)
(5.00879e-05 1.28601e-07 0)
(5.00711e-05 1.53568e-07 0)
(5.00526e-05 1.6908e-07 0)
(5.00339e-05 1.75478e-07 0)
(5.00161e-05 1.73969e-07 0)
(4.99998e-05 1.65839e-07 0)
(4.99854e-05 1.52287e-07 0)
(4.99734e-05 1.34449e-07 0)
(4.9964e-05 1.13808e-07 0)
(4.99577e-05 9.1669e-08 0)
(4.99547e-05 7.07251e-08 0)
(4.99538e-05 5.28466e-08 0)
(4.9954e-05 3.83188e-08 0)
(4.99548e-05 2.67331e-08 0)
(4.99558e-05 1.76375e-08 0)
(4.9957e-05 1.06092e-08 0)
(4.99582e-05 5.28859e-09 0)
(4.99593e-05 1.30485e-09 0)
(4.99605e-05 -1.59217e-09 0)
(4.99616e-05 -3.67225e-09 0)
(4.99627e-05 -5.09075e-09 0)
(4.99638e-05 -6.02795e-09 0)
(4.99649e-05 -6.58666e-09 0)
(4.9966e-05 -6.87363e-09 0)
(4.9967e-05 -6.96327e-09 0)
(4.99681e-05 -6.91036e-09 0)
(4.99692e-05 -6.76944e-09 0)
(4.99703e-05 -6.56532e-09 0)
(4.99714e-05 -6.3343e-09 0)
(4.99724e-05 -6.08766e-09 0)
(4.99735e-05 -5.84521e-09 0)
(4.99746e-05 -5.61354e-09 0)
(4.99757e-05 -5.39995e-09 0)
(4.99768e-05 -5.2091e-09 0)
(4.99779e-05 -5.04084e-09 0)
(4.9979e-05 -4.89768e-09 0)
(4.99801e-05 -4.7761e-09 0)
(4.99813e-05 -4.67574e-09 0)
(4.99824e-05 -4.59173e-09 0)
(4.99835e-05 -4.52064e-09 0)
(4.99846e-05 -4.45631e-09 0)
(4.99857e-05 -4.39214e-09 0)
(4.99869e-05 -4.31962e-09 0)
(4.9988e-05 -4.2284e-09 0)
(4.99891e-05 -4.10588e-09 0)
(4.99903e-05 -3.93636e-09 0)
(4.99914e-05 -3.70077e-09 0)
(4.99925e-05 -3.37545e-09 0)
(4.99937e-05 -2.93144e-09 0)
(4.99948e-05 -2.33337e-09 0)
(4.9996e-05 -1.53804e-09 0)
(4.99971e-05 -4.94615e-10 0)
(4.99983e-05 8.58061e-10 0)
(4.99994e-05 2.58285e-09 0)
(5.00004e-05 4.7515e-09 0)
(5.00012e-05 7.39838e-09 0)
(5.00017e-05 1.05323e-08 0)
(5.00017e-05 1.40354e-08 0)
(4.99628e-05 -4.09673e-08 0)
(4.99661e-05 -4.40797e-08 0)
(4.99697e-05 -4.7505e-08 0)
(4.99733e-05 -5.12322e-08 0)
(4.99772e-05 -5.52918e-08 0)
(4.99813e-05 -5.96626e-08 0)
(4.99856e-05 -6.43459e-08 0)
(4.99901e-05 -6.93019e-08 0)
(4.99948e-05 -7.44817e-08 0)
(4.99999e-05 -7.98034e-08 0)
(5.00052e-05 -8.51368e-08 0)
(5.00108e-05 -9.03143e-08 0)
(5.00168e-05 -9.50873e-08 0)
(5.00232e-05 -9.9136e-08 0)
(5.00301e-05 -1.02036e-07 0)
(5.00375e-05 -1.03229e-07 0)
(5.00455e-05 -1.02024e-07 0)
(5.0054e-05 -9.75256e-08 0)
(5.00632e-05 -8.86904e-08 0)
(5.00727e-05 -7.42946e-08 0)
(5.00821e-05 -5.30292e-08 0)
(5.00906e-05 -2.38598e-08 0)
(5.00966e-05 1.35435e-08 0)
(5.00986e-05 5.80596e-08 0)
(5.00927e-05 1.06197e-07 0)
(5.00792e-05 1.45668e-07 0)
(5.0063e-05 1.73609e-07 0)
(5.00458e-05 1.90154e-07 0)
(5.00288e-05 1.96069e-07 0)
(5.00131e-05 1.93238e-07 0)
(4.9999e-05 1.83296e-07 0)
(4.99864e-05 1.67496e-07 0)
(4.99759e-05 1.46924e-07 0)
(4.99677e-05 1.23149e-07 0)
(4.99624e-05 9.7223e-08 0)
(4.99606e-05 7.32377e-08 0)
(4.99605e-05 5.3684e-08 0)
(4.99609e-05 3.83951e-08 0)
(4.99615e-05 2.64701e-08 0)
(4.99621e-05 1.72409e-08 0)
(4.99627e-05 1.01925e-08 0)
(4.99632e-05 4.90684e-09 0)
(4.99638e-05 9.71649e-10 0)
(4.99643e-05 -1.87678e-09 0)
(4.99649e-05 -3.9192e-09 0)
(4.99655e-05 -5.30876e-09 0)
(4.99662e-05 -6.22815e-09 0)
(4.99669e-05 -6.77692e-09 0)
(4.99676e-05 -7.06034e-09 0)
(4.99684e-05 -7.15185e-09 0)
(4.99692e-05 -7.10316e-09 0)
(4.99701e-05 -6.96964e-09 0)
(4.9971e-05 -6.77311e-09 0)
(4.99719e-05 -6.55106e-09 0)
(4.99729e-05 -6.31278e-09 0)
(4.99738e-05 -6.07879e-09 0)
(4.99749e-05 -5.85482e-09 0)
(4.99759e-05 -5.64826e-09 0)
(4.99769e-05 -5.46373e-09 0)
(4.9978e-05 -5.3008e-09 0)
(4.9979e-05 -5.16228e-09 0)
(4.99801e-05 -5.04438e-09 0)
(4.99812e-05 -4.94708e-09 0)
(4.99823e-05 -4.86539e-09 0)
(4.99833e-05 -4.79618e-09 0)
(4.99844e-05 -4.73337e-09 0)
(4.99855e-05 -4.67066e-09 0)
(4.99866e-05 -4.59978e-09 0)
(4.99877e-05 -4.51076e-09 0)
(4.99887e-05 -4.39137e-09 0)
(4.99898e-05 -4.22641e-09 0)
(4.99909e-05 -3.99724e-09 0)
(4.99919e-05 -3.6806e-09 0)
(4.9993e-05 -3.24761e-09 0)
(4.99941e-05 -2.66231e-09 0)
(4.99951e-05 -1.87947e-09 0)
(4.99962e-05 -8.43545e-10 0)
(4.99973e-05 5.16803e-10 0)
(4.99984e-05 2.28282e-09 0)
(4.99994e-05 4.56254e-09 0)
(5.00004e-05 7.44308e-09 0)
(5.00011e-05 1.1028e-08 0)
(5.00015e-05 1.5297e-08 0)
(4.99649e-05 -4.39743e-08 0)
(4.99684e-05 -4.72421e-08 0)
(4.9972e-05 -5.08358e-08 0)
(4.99757e-05 -5.47402e-08 0)
(4.99795e-05 -5.89928e-08 0)
(4.99836e-05 -6.35701e-08 0)
(4.99877e-05 -6.84784e-08 0)
(4.9992e-05 -7.36828e-08 0)
(4.99964e-05 -7.91364e-08 0)
(5.0001e-05 -8.47708e-08 0)
(5.00057e-05 -9.04541e-08 0)
(5.00106e-05 -9.60371e-08 0)
(5.00156e-05 -1.01273e-07 0)
(5.00208e-05 -1.05854e-07 0)
(5.00263e-05 -1.09365e-07 0)
(5.0032e-05 -1.11242e-07 0)
(5.0038e-05 -1.10784e-07 0)
(5.00445e-05 -1.07028e-07 0)
(5.00515e-05 -9.8839e-08 0)
(5.00591e-05 -8.47591e-08 0)
(5.0067e-05 -6.30626e-08 0)
(5.00747e-05 -3.21371e-08 0)
(5.00811e-05 9.02934e-09 0)
(5.00847e-05 6.06873e-08 0)
(5.00795e-05 1.19264e-07 0)
(5.00662e-05 1.64268e-07 0)
(5.0052e-05 1.94382e-07 0)
(5.00373e-05 2.11167e-07 0)
(5.00234e-05 2.15812e-07 0)