/*--------------------------------*- C++ -*----------------------------------*\
| =========                 |                                                 |
| \\      /  F ield         | foam-extend: Open Source CFD                    |
|  \\    /   O peration     | Version:     4.1-20200408                       |
|   \\  /    A nd           | Web:         http://www.foam-extend.org         |
|    \\/     M anipulation  |                                                 |
\*---------------------------------------------------------------------------*/
FoamFile
{
    version     2.0;
    format      ascii;
    class       volVectorField;
    location    "0.0020000";
    object      DU_0;
}
// * * * * * * * * * * * * * * * * * * * * * * * * * * * * * * * * * * * * * //

dimensions      [0 1 0 0 0 0 0];

internalField   nonuniform List<vector> 
1952
(
(4.99507e-05 -5.35141e-09 0)
(4.99545e-05 -5.81398e-09 0)
(4.99588e-05 -6.3213e-09 0)
(4.99635e-05 -6.86938e-09 0)
(4.99688e-05 -7.45843e-09 0)
(4.99748e-05 -8.08015e-09 0)
(4.99814e-05 -8.72804e-09 0)
(4.99888e-05 -9.38676e-09 0)
(4.99969e-05 -1.00394e-08 0)
(5.00057e-05 -1.06602e-08 0)
(5.00154e-05 -1.12181e-08 0)
(5.00258e-05 -1.16733e-08 0)
(5.00368e-05 -1.19791e-08 0)
(5.00483e-05 -1.20812e-08 0)
(5.00602e-05 -1.19195e-08 0)
(5.0072e-05 -1.1432e-08 0)
(5.00835e-05 -1.0558e-08 0)
(5.00943e-05 -9.2466e-09 0)
(5.01038e-05 -7.46315e-09 0)
(5.01116e-05 -5.20117e-09 0)
(5.0117e-05 -2.4901e-09 0)
(5.01196e-05 5.94903e-10 0)
(5.01191e-05 3.93176e-09 0)
(5.01151e-05 7.35387e-09 0)
(5.01078e-05 1.0666e-08 0)
(5.00971e-05 1.36648e-08 0)
(5.00838e-05 1.61685e-08 0)
(5.00682e-05 1.80403e-08 0)
(5.00513e-05 1.92015e-08 0)
(5.00337e-05 1.96342e-08 0)
(5.00162e-05 1.93739e-08 0)
(4.99996e-05 1.8501e-08 0)
(4.99843e-05 1.71275e-08 0)
(4.99709e-05 1.53863e-08 0)
(4.99596e-05 1.34168e-08 0)
(4.99505e-05 1.13542e-08 0)
(4.99436e-05 9.31614e-09 0)
(4.99387e-05 7.39558e-09 0)
(4.99356e-05 5.65534e-09 0)
(4.9934e-05 4.1321e-09 0)
(4.99338e-05 2.83794e-09 0)
(4.99346e-05 1.77022e-09 0)
(4.99361e-05 9.11783e-10 0)
(4.99383e-05 2.41938e-10 0)
(4.99407e-05 -2.66649e-10 0)
(4.99435e-05 -6.3842e-10 0)
(4.99463e-05 -8.99558e-10 0)
(4.99492e-05 -1.0715e-09 0)
(4.9952e-05 -1.17461e-09 0)
(4.99548e-05 -1.22527e-09 0)
(4.99574e-05 -1.23745e-09 0)
(4.99599e-05 -1.22252e-09 0)
(4.99623e-05 -1.18924e-09 0)
(4.99646e-05 -1.14484e-09 0)
(4.99667e-05 -1.09444e-09 0)
(4.99687e-05 -1.04215e-09 0)
(4.99707e-05 -9.90754e-10 0)
(4.99725e-05 -9.42183e-10 0)
(4.99742e-05 -8.97747e-10 0)
(4.99759e-05 -8.58001e-10 0)
(4.99775e-05 -8.23254e-10 0)
(4.99791e-05 -7.93222e-10 0)
(4.99806e-05 -7.67457e-10 0)
(4.99822e-05 -7.45105e-10 0)
(4.99837e-05 -7.25064e-10 0)
(4.99851e-05 -7.0595e-10 0)
(4.99866e-05 -6.86005e-10 0)
(4.99881e-05 -6.63212e-10 0)
(4.99896e-05 -6.35088e-10 0)
(4.99911e-05 -5.98851e-10 0)
(4.99925e-05 -5.51243e-10 0)
(4.9994e-05 -4.88736e-10 0)
(4.99954e-05 -4.0749e-10 0)
(4.99967e-05 -3.03666e-10 0)
(4.99979e-05 -1.73658e-10 0)
(4.99991e-05 -1.46191e-11 0)
(5e-05 1.74904e-10 0)
(5.00008e-05 3.94193e-10 0)
(5.00014e-05 6.39281e-10 0)
(5.00017e-05 9.02291e-10 0)
(5.00018e-05 1.17029e-09 0)
(5.00016e-05 1.42524e-09 0)
(5.00011e-05 1.64707e-09 0)
(4.99508e-05 -8.69262e-09 0)
(4.99546e-05 -9.44218e-09 0)
(4.99588e-05 -1.02646e-08 0)
(4.99635e-05 -1.11535e-08 0)
(4.99688e-05 -1.21097e-08 0)
(4.99746e-05 -1.31199e-08 0)
(4.99812e-05 -1.41739e-08 0)
(4.99884e-05 -1.52474e-08 0)
(4.99964e-05 -1.63135e-08 0)
(5.00051e-05 -1.73306e-08 0)
(5.00147e-05 -1.82491e-08 0)
(5.00249e-05 -1.90046e-08 0)
(5.00359e-05 -1.95211e-08 0)
(5.00473e-05 -1.97101e-08 0)
(5.00591e-05 -1.94731e-08 0)
(5.0071e-05 -1.87076e-08 0)
(5.00825e-05 -1.73122e-08 0)
(5.00934e-05 -1.52004e-08 0)
(5.01031e-05 -1.23118e-08 0)
(5.0111e-05 -8.63114e-09 0)
(5.01166e-05 -4.20254e-09 0)
(5.01194e-05 8.53603e-10 0)
(5.01191e-05 6.3376e-09 0)
(5.01152e-05 1.1973e-08 0)
(5.01078e-05 1.74335e-08 0)
(5.00971e-05 2.23775e-08 0)
(5.00836e-05 2.64997e-08 0)
(5.00679e-05 2.95726e-08 0)
(5.00508e-05 3.14675e-08 0)
(5.0033e-05 3.21576e-08 0)
(5.00155e-05 3.17045e-08 0)
(4.99988e-05 3.02437e-08 0)
(4.99835e-05 2.79621e-08 0)
(4.99702e-05 2.50807e-08 0)
(4.9959e-05 2.1831e-08 0)
(4.995e-05 1.84369e-08 0)
(4.99433e-05 1.50935e-08 0)
(4.99386e-05 1.19524e-08 0)
(4.99357e-05 9.11501e-09 0)
(4.99343e-05 6.63885e-09 0)
(4.99342e-05 4.54102e-09 0)
(4.99351e-05 2.81496e-09 0)
(4.99367e-05 1.43075e-09 0)
(4.99389e-05 3.53414e-10 0)
(4.99414e-05 -4.62554e-10 0)
(4.99441e-05 -1.05735e-09 0)
(4.99469e-05 -1.47386e-09 0)
(4.99498e-05 -1.74691e-09 0)
(4.99525e-05 -1.90956e-09 0)
(4.99552e-05 -1.98826e-09 0)
(4.99578e-05 -2.00546e-09 0)
(4.99603e-05 -1.97953e-09 0)
(4.99627e-05 -1.92443e-09 0)
(4.99649e-05 -1.85183e-09 0)
(4.9967e-05 -1.76984e-09 0)
(4.9969e-05 -1.68506e-09 0)
(4.99708e-05 -1.60191e-09 0)
(4.99726e-05 -1.52347e-09 0)
(4.99743e-05 -1.45183e-09 0)
(4.9976e-05 -1.38783e-09 0)
(4.99776e-05 -1.33197e-09 0)
(4.99791e-05 -1.28377e-09 0)
(4.99806e-05 -1.24252e-09 0)
(4.99821e-05 -1.20682e-09 0)
(4.99836e-05 -1.17493e-09 0)
(4.99851e-05 -1.1446e-09 0)
(4.99866e-05 -1.11302e-09 0)
(4.99881e-05 -1.07694e-09 0)
(4.99895e-05 -1.03237e-09 0)
(4.9991e-05 -9.74816e-10 0)
(4.99924e-05 -8.98993e-10 0)
(4.99939e-05 -7.99157e-10 0)
(4.99953e-05 -6.69016e-10 0)
(4.99966e-05 -5.0222e-10 0)
(4.99978e-05 -2.92719e-10 0)
(4.9999e-05 -3.56056e-11 0)
(5e-05 2.7185e-10 0)
(5.00008e-05 6.28925e-10 0)
(5.00014e-05 1.02962e-09 0)
(5.00017e-05 1.46153e-09 0)
(5.00018e-05 1.90381e-09 0)
(5.00016e-05 2.32722e-09 0)
(5.00011e-05 2.70091e-09 0)
(4.9951e-05 -1.20479e-08 0)
(4.99547e-05 -1.30825e-08 0)
(4.99589e-05 -1.42182e-08 0)
(4.99635e-05 -1.54467e-08 0)
(4.99687e-05 -1.67695e-08 0)
(4.99744e-05 -1.81689e-08 0)
(4.99808e-05 -1.96318e-08 0)
(4.99879e-05 -2.11253e-08 0)
(4.99958e-05 -2.26132e-08 0)
(5.00044e-05 -2.40392e-08 0)
(5.00137e-05 -2.53354e-08 0)
(5.00239e-05 -2.64136e-08 0)
(5.00347e-05 -2.71685e-08 0)
(5.0046e-05 -2.74772e-08 0)
(5.00578e-05 -2.72009e-08 0)
(5.00696e-05 -2.61941e-08 0)
(5.00813e-05 -2.43104e-08 0)
(5.00923e-05 -2.14224e-08 0)
(5.01021e-05 -1.74367e-08 0)
(5.01103e-05 -1.23225e-08 0)
(5.01162e-05 -6.13226e-09 0)
(5.01193e-05 9.71143e-10 0)
(5.01191e-05 8.70802e-09 0)
(5.01153e-05 1.66824e-08 0)
(5.0108e-05 2.44215e-08 0)
(5.00972e-05 3.14252e-08 0)
(5.00835e-05 3.72489e-08 0)
(5.00675e-05 4.15661e-08 0)
(5.00502e-05 4.41977e-08 0)
(5.00322e-05 4.51129e-08 0)
(5.00145e-05 4.44073e-08 0)
(4.99978e-05 4.22799e-08 0)
(4.99826e-05 3.9001e-08 0)
(4.99693e-05 3.48882e-08 0)
(4.99583e-05 3.02732e-08 0)
(4.99496e-05 2.54768e-08 0)
(4.99431e-05 2.07762e-08 0)
(4.99386e-05 1.63837e-08 0)
(4.9936e-05 1.2437e-08 0)
(4.99348e-05 9.01049e-09 0)
(4.99349e-05 6.12169e-09 0)
(4.99358e-05 3.75602e-09 0)
(4.99375e-05 1.86721e-09 0)
(4.99397e-05 4.03651e-10 0)
(4.99422e-05 -7.00188e-10 0)
(4.99449e-05 -1.50102e-09 0)
(4.99477e-05 -2.05898e-09 0)
(4.99505e-05 -2.42223e-09 0)
(4.99532e-05 -2.63632e-09 0)
(4.99558e-05 -2.73743e-09 0)
(4.99584e-05 -2.7561e-09 0)
(4.99608e-05 -2.7173e-09 0)
(4.9963e-05 -2.63976e-09 0)
(4.99652e-05 -2.53931e-09 0)
(4.99672e-05 -2.42671e-09 0)
(4.99692e-05 -2.31089e-09 0)
(4.9971e-05 -2.19765e-09 0)
(4.99728e-05 -2.09111e-09 0)
(4.99744e-05 -1.99401e-09 0)
(4.9976e-05 -1.90744e-09 0)
(4.99776e-05 -1.83205e-09 0)
(4.99791e-05 -1.76714e-09 0)
(4.99806e-05 -1.71174e-09 0)
(4.99821e-05 -1.66395e-09 0)
(4.99836e-05 -1.62139e-09 0)
(4.99851e-05 -1.58102e-09 0)
(4.99865e-05 -1.53904e-09 0)
(4.9988e-05 -1.49101e-09 0)
(4.99894e-05 -1.43151e-09 0)
(4.99909e-05 -1.35436e-09 0)
(4.99923e-05 -1.25232e-09 0)
(4.99937e-05 -1.11739e-09 0)
(4.99951e-05 -9.40775e-10 0)
(4.99965e-05 -7.13441e-10 0)
(4.99977e-05 -4.2662e-10 0)
(4.99989e-05 -7.29166e-11 0)
(4.99999e-05 3.52254e-10 0)
(5.00008e-05 8.48885e-10 0)
(5.00014e-05 1.40966e-09 0)
(5.00018e-05 2.01822e-09 0)
(5.00019e-05 2.6457e-09 0)
(5.00017e-05 3.25034e-09 0)
(5.00012e-05 3.78412e-09 0)
(4.99513e-05 -1.53709e-08 0)
(4.9955e-05 -1.6684e-08 0)
(4.99591e-05 -1.81265e-08 0)
(4.99636e-05 -1.96885e-08 0)
(4.99686e-05 -2.13726e-08 0)
(4.99742e-05 -2.31579e-08 0)
(4.99804e-05 -2.50286e-08 0)
(4.99873e-05 -2.69447e-08 0)
(4.99949e-05 -2.88619e-08 0)
(5.00033e-05 -3.07106e-08 0)
(5.00125e-05 -3.24058e-08 0)
(5.00224e-05 -3.38369e-08 0)
(5.0033e-05 -3.487e-08 0)
(5.00442e-05 -3.53476e-08 0)
(5.00558e-05 -3.50896e-08 0)
(5.00677e-05 -3.39043e-08 0)
(5.00794e-05 -3.15954e-08 0)
(5.00905e-05 -2.79868e-08 0)
(5.01006e-05 -2.29424e-08 0)
(5.01091e-05 -1.64046e-08 0)
(5.01154e-05 -8.42379e-09 0)
(5.01188e-05 8.01095e-10 0)
(5.01189e-05 1.09101e-08 0)
(5.01154e-05 2.13759e-08 0)
(5.0108e-05 3.15583e-08 0)
(5.00971e-05 4.07698e-08 0)
(5.00831e-05 4.8403e-08 0)
(5.00669e-05 5.40221e-08 0)
(5.00492e-05 5.73988e-08 0)
(5.0031e-05 5.85062e-08 0)
(5.00131e-05 5.74837e-08 0)
(4.99963e-05 5.46038e-08 0)
(4.99811e-05 5.02296e-08 0)
(4.9968e-05 4.47853e-08 0)
(4.99573e-05 3.8712e-08 0)
(4.99489e-05 3.24372e-08 0)
(4.99427e-05 2.63276e-08 0)
(4.99386e-05 2.06572e-08 0)
(4.99363e-05 1.55964e-08 0)
(4.99354e-05 1.12303e-08 0)
(4.99357e-05 7.5709e-09 0)
(4.99369e-05 4.59047e-09 0)
(4.99387e-05 2.22247e-09 0)
(4.99409e-05 3.9638e-10 0)
(4.99434e-05 -9.74944e-10 0)
(4.99461e-05 -1.96507e-09 0)
(4.99488e-05 -2.65151e-09 0)
(4.99515e-05 -3.09532e-09 0)
(4.99541e-05 -3.35407e-09 0)
(4.99567e-05 -3.47317e-09 0)
(4.99591e-05 -3.49059e-09 0)
(4.99614e-05 -3.43761e-09 0)
(4.99636e-05 -3.33721e-09 0)
(4.99657e-05 -3.20919e-09 0)
(4.99676e-05 -3.06664e-09 0)
(4.99695e-05 -2.92068e-09 0)
(4.99713e-05 -2.77836e-09 0)
(4.9973e-05 -2.64477e-09 0)
(4.99746e-05 -2.52327e-09 0)
(4.99762e-05 -2.41513e-09 0)
(4.99777e-05 -2.32118e-09 0)
(4.99792e-05 -2.24046e-09 0)
(4.99807e-05 -2.17183e-09 0)
(4.99821e-05 -2.11287e-09 0)
(4.99835e-05 -2.06066e-09 0)
(4.9985e-05 -2.01143e-09 0)
(4.99864e-05 -1.96043e-09 0)
(4.99878e-05 -1.90218e-09 0)
(4.99893e-05 -1.82987e-09 0)
(4.99907e-05 -1.73577e-09 0)
(4.99921e-05 -1.61068e-09 0)
(4.99936e-05 -1.44444e-09 0)
(4.99949e-05 -1.22565e-09 0)
(4.99963e-05 -9.42441e-10 0)
(4.99976e-05 -5.82996e-10 0)
(4.99987e-05 -1.36879e-10 0)
(4.99998e-05 4.03131e-10 0)
(5.00007e-05 1.03878e-09 0)
(5.00013e-05 1.76262e-09 0)
(5.00018e-05 2.5556e-09 0)
(5.00019e-05 3.38184e-09 0)
(5.00017e-05 4.18802e-09 0)
(5.00012e-05 4.91289e-09 0)
(4.99517e-05 -1.86527e-08 0)
(4.99553e-05 -2.02346e-08 0)
(4.99593e-05 -2.19736e-08 0)
(4.99637e-05 -2.38587e-08 0)
(4.99685e-05 -2.58943e-08 0)
(4.9974e-05 -2.80566e-08 0)
(4.998e-05 -3.03289e-08 0)
(4.99866e-05 -3.2665e-08 0)
(4.9994e-05 -3.50142e-08 0)
(5.00021e-05 -3.7295e-08 0)
(5.0011e-05 -3.94079e-08 0)
(5.00206e-05 -4.1221e-08 0)
(5.0031e-05 -4.25737e-08 0)
(5.0042e-05 -4.32739e-08 0)
(5.00534e-05 -4.30997e-08 0)
(5.00652e-05 -4.18099e-08 0)
(5.00769e-05 -3.91524e-08 0)
(5.00883e-05 -3.48928e-08 0)
(5.00987e-05 -2.88397e-08 0)
(5.01075e-05 -2.08936e-08 0)
(5.01143e-05 -1.10879e-08 0)
(5.01182e-05 3.52608e-10 0)
(5.01187e-05 1.29885e-08 0)
(5.01154e-05 2.61449e-08 0)
(5.01081e-05 3.89844e-08 0)
(5.0097e-05 5.05868e-08 0)
(5.00827e-05 6.01488e-08 0)
(5.00661e-05 6.71134e-08 0)
(5.0048e-05 7.12092e-08 0)
(5.00296e-05 7.2428e-08 0)
(5.00115e-05 7.09687e-08 0)
(4.99946e-05 6.71927e-08 0)
(4.99796e-05 6.1569e-08 0)
(4.99667e-05 5.46416e-08 0)
(4.99562e-05 4.69741e-08 0)
(4.99482e-05 3.91156e-08 0)
(4.99426e-05 3.15327e-08 0)
(4.99389e-05 2.45613e-08 0)
(4.9937e-05 1.83972e-08 0)
(4.99365e-05 1.31262e-08 0)
(4.9937e-05 8.74445e-09 0)
(4.99383e-05 5.20365e-09 0)
(4.99402e-05 2.41064e-09 0)
(4.99424e-05 2.7237e-10 0)
(4.99449e-05 -1.32249e-09 0)
(4.99475e-05 -2.46508e-09 0)
(4.99501e-05 -3.25061e-09 0)
(4.99527e-05 -3.75247e-09 0)
(4.99552e-05 -4.0395e-09 0)
(4.99576e-05 -4.16549e-09 0)
(4.996e-05 -4.17482e-09 0)
(4.99622e-05 -4.10429e-09 0)
(4.99642e-05 -3.98018e-09 0)
(4.99662e-05 -3.82572e-09 0)
(4.99681e-05 -3.65558e-09 0)
(4.99699e-05 -3.48275e-09 0)
(4.99716e-05 -3.31504e-09 0)
(4.99732e-05 -3.15828e-09 0)
(4.99748e-05 -3.0162e-09 0)
(4.99763e-05 -2.89013e-09 0)
(4.99778e-05 -2.78101e-09 0)
(4.99792e-05 -2.6876e-09 0)
(4.99807e-05 -2.60855e-09 0)
(4.99821e-05 -2.541e-09 0)
(4.99835e-05 -2.48156e-09 0)
(4.99849e-05 -2.42579e-09 0)
(4.99863e-05 -2.36818e-09 0)
(4.99877e-05 -2.30228e-09 0)
(4.99891e-05 -2.22009e-09 0)
(4.99905e-05 -2.11244e-09 0)
(4.99919e-05 -1.96836e-09 0)
(4.99933e-05 -1.77556e-09 0)
(4.99947e-05 -1.52006e-09 0)
(4.99961e-05 -1.18702e-09 0)
(4.99974e-05 -7.6119e-10 0)
(4.99986e-05 -2.28451e-10 0)
(4.99996e-05 4.22057e-10 0)
(5.00006e-05 1.19524e-09 0)
(5.00013e-05 2.0851e-09 0)
(5.00018e-05 3.07162e-09 0)
(5.00019e-05 4.11248e-09 0)
(5.00018e-05 5.14181e-09 0)
(5.00013e-05 6.07771e-09 0)
(4.99523e-05 -2.18697e-08 0)
(4.99558e-05 -2.37083e-08 0)
(4.99596e-05 -2.57311e-08 0)
(4.99639e-05 -2.79268e-08 0)
(4.99686e-05 -3.0302e-08 0)
(4.99738e-05 -3.28315e-08 0)
(4.99796e-05 -3.54981e-08 0)
(4.9986e-05 -3.82521e-08 0)
(4.9993e-05 -4.10375e-08 0)
(5.00008e-05 -4.37641e-08 0)
(5.00093e-05 -4.63196e-08 0)
(5.00186e-05 -4.85541e-08 0)
(5.00286e-05 -5.0282e-08 0)
(5.00393e-05 -5.1279e-08 0)
(5.00505e-05 -5.12804e-08 0)
(5.00621e-05 -4.99933e-08 0)
(5.00739e-05 -4.71032e-08 0)
(5.00853e-05 -4.23066e-08 0)
(5.0096e-05 -3.53399e-08 0)
(5.01054e-05 -2.60407e-08 0)
(5.01126e-05 -1.44021e-08 0)
(5.01171e-05 -6.55754e-10 0)
(5.01181e-05 1.46875e-08 0)
(5.01151e-05 3.07883e-08 0)
(5.01079e-05 4.65743e-08 0)
(5.00966e-05 6.08241e-08 0)
(5.00819e-05 7.24911e-08 0)
(5.00649e-05 8.08841e-08 0)
(5.00464e-05 8.56997e-08 0)
(5.00276e-05 8.69683e-08 0)
(5.00094e-05 8.49673e-08 0)
(4.99926e-05 8.01622e-08 0)
(4.99777e-05 7.31392e-08 0)
(4.99651e-05 6.45753e-08 0)
(4.99551e-05 5.51694e-08 0)
(4.99476e-05 4.56136e-08 0)
(4.99425e-05 3.64896e-08 0)
(4.99394e-05 2.81946e-08 0)
(4.9938e-05 2.09391e-08 0)
(4.99378e-05 1.47964e-08 0)
(4.99386e-05 9.73585e-09 0)
(4.99401e-05 5.68036e-09 0)
(4.99421e-05 2.50471e-09 0)
(4.99443e-05 9.07595e-11 0)
(4.99467e-05 -1.6984e-09 0)
(4.99492e-05 -2.97109e-09 0)
(4.99517e-05 -3.8397e-09 0)
(4.99542e-05 -4.3888e-09 0)
(4.99565e-05 -4.69742e-09 0)
(4.99588e-05 -4.8268e-09 0)
(4.9961e-05 -4.82667e-09 0)
(4.9963e-05 -4.73889e-09 0)
(4.9965e-05 -4.59224e-09 0)
(4.99668e-05 -4.41318e-09 0)
(4.99686e-05 -4.2175e-09 0)
(4.99703e-05 -4.01996e-09 0)
(4.99719e-05 -3.82895e-09 0)
(4.99735e-05 -3.65097e-09 0)
(4.9975e-05 -3.49011e-09 0)
(4.99764e-05 -3.3477e-09 0)
(4.99779e-05 -3.22483e-09 0)
(4.99793e-05 -3.11996e-09 0)
(4.99806e-05 -3.03166e-09 0)
(4.9982e-05 -2.95664e-09 0)
(4.99834e-05 -2.89115e-09 0)
(4.99848e-05 -2.8302e-09 0)
(4.99861e-05 -2.76763e-09 0)
(4.99875e-05 -2.69618e-09 0)
(4.99889e-05 -2.60683e-09 0)
(4.99903e-05 -2.48918e-09 0)
(4.99917e-05 -2.33063e-09 0)
(4.9993e-05 -2.1169e-09 0)
(4.99944e-05 -1.83151e-09 0)
(4.99958e-05 -1.45653e-09 0)
(4.99971e-05 -9.72982e-10 0)
(4.99983e-05 -3.62356e-10 0)
(4.99994e-05 3.90993e-10 0)
(5.00004e-05 1.29692e-09 0)
(5.00012e-05 2.35319e-09 0)
(5.00017e-05 3.54172e-09 0)
(5.0002e-05 4.8165e-09 0)
(5.00019e-05 6.10155e-09 0)
(5.00014e-05 7.29721e-09 0)
(4.9953e-05 -2.50358e-08 0)
(4.99564e-05 -2.71176e-08 0)
(4.99601e-05 -2.94096e-08 0)
(4.99642e-05 -3.19001e-08 0)
(4.99688e-05 -3.45991e-08 0)
(4.99737e-05 -3.74802e-08 0)
(4.99792e-05 -4.05279e-08 0)
(4.99853e-05 -4.36892e-08 0)
(4.9992e-05 -4.69063e-08 0)
(4.99994e-05 -5.00817e-08 0)
(5.00075e-05 -5.30939e-08 0)
(5.00163e-05 -5.57776e-08 0)
(5.00259e-05 -5.79255e-08 0)
(5.00362e-05 -5.92826e-08 0)
(5.00471e-05 -5.95434e-08 0)
(5.00585e-05 -5.83608e-08 0)
(5.00701e-05 -5.53524e-08 0)
(5.00817e-05 -5.01336e-08 0)
(5.00926e-05 -4.23506e-08 0)
(5.01024e-05 -3.1753e-08 0)
(5.01103e-05 -1.82639e-08 0)
(5.01155e-05 -2.09613e-09 0)
(5.01171e-05 1.61818e-08 0)
(5.01145e-05 3.55442e-08 0)
(5.01074e-05 5.46323e-08 0)
(5.00959e-05 7.18164e-08 0)
(5.00808e-05 8.57433e-08 0)
(5.00633e-05 9.55825e-08 0)
(5.00445e-05 1.01028e-07 0)
(5.00255e-05 1.02187e-07 0)
(5.00072e-05 9.94428e-08 0)
(4.99904e-05 9.33867e-08 0)
(4.99757e-05 8.47351e-08 0)
(4.99636e-05 7.43145e-08 0)
(4.99541e-05 6.29726e-08 0)
(4.99473e-05 5.15766e-08 0)
(4.99428e-05 4.08448e-08 0)
(4.99404e-05 3.12301e-08 0)
(4.99395e-05 2.29364e-08 0)
(4.99397e-05 1.60029e-08 0)
(4.99407e-05 1.0356e-08 0)
(4.99424e-05 5.87817e-09 0)
(4.99443e-05 2.40473e-09 0)
(4.99466e-05 -2.11205e-10 0)
(4.99489e-05 -2.13394e-09 0)
(4.99512e-05 -3.4886e-09 0)
(4.99535e-05 -4.40397e-09 0)
(4.99558e-05 -4.97417e-09 0)
(4.9958e-05 -5.28686e-09 0)
(4.99601e-05 -5.4091e-09 0)
(4.99621e-05 -5.3944e-09 0)
(4.9964e-05 -5.28843e-09 0)
(4.99658e-05 -5.12121e-09 0)
(4.99675e-05 -4.92162e-09 0)
(4.99692e-05 -4.70568e-09 0)
(4.99708e-05 -4.48942e-09 0)
(4.99723e-05 -4.28127e-09 0)
(4.99737e-05 -4.08814e-09 0)
(4.99752e-05 -3.91421e-09 0)
(4.99766e-05 -3.7607e-09 0)
(4.99779e-05 -3.6288e-09 0)
(4.99793e-05 -3.51663e-09 0)
(4.99806e-05 -3.42275e-09 0)
(4.9982e-05 -3.34346e-09 0)
(4.99833e-05 -3.2748e-09 0)
(4.99846e-05 -3.21134e-09 0)
(4.9986e-05 -3.14645e-09 0)
(4.99873e-05 -3.07227e-09 0)
(4.99886e-05 -2.97896e-09 0)
(4.999e-05 -2.85511e-09 0)
(4.99914e-05 -2.68678e-09 0)
(4.99927e-05 -2.4579e-09 0)
(4.99941e-05 -2.14967e-09 0)
(4.99954e-05 -1.74108e-09 0)
(4.99967e-05 -1.20919e-09 0)
(4.9998e-05 -5.30482e-10 0)
(4.99991e-05 3.16651e-10 0)
(5.00002e-05 1.34899e-09 0)
(5.0001e-05 2.57077e-09 0)
(5.00017e-05 3.96946e-09 0)
(5.0002e-05 5.49827e-09 0)
(5.00019e-05 7.07303e-09 0)
(5.00015e-05 8.5712e-09 0)
(4.99538e-05 -2.81219e-08 0)
(4.99572e-05 -3.04306e-08 0)
(4.99608e-05 -3.29741e-08 0)
(4.99648e-05 -3.57413e-08 0)
(4.99691e-05 -3.87454e-08 0)
(4.99739e-05 -4.1961e-08 0)
(4.99791e-05 -4.53742e-08 0)
(4.99848e-05 -4.89327e-08 0)
(4.99911e-05 -5.25772e-08 0)
(4.9998e-05 -5.6208e-08 0)
(5.00056e-05 -5.96967e-08 0)
(5.0014e-05 -6.28679e-08 0)
(5.0023e-05 -6.54968e-08 0)
(5.00328e-05 -6.73027e-08 0)
(5.00432e-05 -6.79417e-08 0)
(5.00542e-05 -6.70136e-08 0)
(5.00657e-05 -6.40638e-08 0)
(5.00772e-05 -5.86151e-08 0)
(5.00883e-05 -5.02016e-08 0)
(5.00986e-05 -3.84507e-08 0)
(5.01071e-05 -2.31703e-08 0)
(5.0113e-05 -4.5071e-09 0)
(5.01154e-05 1.69499e-08 0)
(5.01134e-05 3.9976e-08 0)
(5.01064e-05 6.28682e-08 0)
(5.00946e-05 8.34129e-08 0)
(5.00791e-05 9.98585e-08 0)
(5.00611e-05 1.11237e-07 0)
(5.0042e-05 1.17288e-07 0)
(5.00228e-05 1.18239e-07 0)
(5.00046e-05 1.14608e-07 0)
(4.99881e-05 1.0713e-07 0)
(4.99738e-05 9.66532e-08 0)
(4.99621e-05 8.41655e-08 0)
(4.99533e-05 7.06716e-08 0)
(4.99473e-05 5.72678e-08 0)
(4.99437e-05 4.48455e-08 0)
(4.9942e-05 3.39042e-08 0)
(4.99416e-05 2.46115e-08 0)
(4.99422e-05 1.69474e-08 0)
(4.99435e-05 1.07788e-08 0)
(4.99452e-05 5.93923e-09 0)
(4.99471e-05 2.21906e-09 0)
(4.99492e-05 -5.58424e-10 0)
(4.99514e-05 -2.58473e-09 0)
(4.99535e-05 -4.00007e-09 0)
(4.99556e-05 -4.94807e-09 0)
(4.99576e-05 -5.53069e-09 0)
(4.99596e-05 -5.84263e-09 0)
(4.99615e-05 -5.95581e-09 0)
(4.99633e-05 -5.9263e-09 0)
(4.9965e-05 -5.80323e-09 0)
(4.99666e-05 -5.61706e-09 0)
(4.99682e-05 -5.39904e-09 0)
(4.99697e-05 -5.16497e-09 0)
(4.99712e-05 -4.93217e-09 0)
(4.99726e-05 -4.70894e-09 0)
(4.9974e-05 -4.50255e-09 0)
(4.99754e-05 -4.31727e-09 0)
(4.99767e-05 -4.15416e-09 0)
(4.9978e-05 -4.01454e-09 0)
(4.99793e-05 -3.8962e-09 0)
(4.99806e-05 -3.79772e-09 0)
(4.99819e-05 -3.71508e-09 0)
(4.99832e-05 -3.64419e-09 0)
(4.99845e-05 -3.5793e-09 0)
(4.99857e-05 -3.51348e-09 0)
(4.9987e-05 -3.43843e-09 0)
(4.99884e-05 -3.34377e-09 0)
(4.99897e-05 -3.21733e-09 0)
(4.9991e-05 -3.04413e-09 0)
(4.99923e-05 -2.80667e-09 0)
(4.99937e-05 -2.48408e-09 0)
(4.9995e-05 -2.0525e-09 0)
(4.99963e-05 -1.48503e-09 0)
(4.99976e-05 -7.52681e-10 0)
(4.99988e-05 1.73243e-10 0)
(4.99998e-05 1.3187e-09 0)
(5.00008e-05 2.69796e-09 0)
(5.00015e-05 4.30962e-09 0)
(5.00019e-05 6.11239e-09 0)
(5.0002e-05 8.02127e-09 0)
(5.00016e-05 9.89524e-09 0)
(4.99549e-05 -3.11672e-08 0)
(4.99582e-05 -3.36875e-08 0)
(4.99617e-05 -3.6465e-08 0)
(4.99656e-05 -3.94892e-08 0)
(4.99697e-05 -4.27774e-08 0)
(4.99742e-05 -4.63047e-08 0)
(4.99792e-05 -5.0061e-08 0)
(4.99845e-05 -5.39947e-08 0)
(4.99904e-05 -5.80485e-08 0)
(4.99969e-05 -6.21219e-08 0)
(5.00039e-05 -6.60838e-08 0)
(5.00116e-05 -6.97525e-08 0)
(5.002e-05 -7.28905e-08 0)
(5.00291e-05 -7.51961e-08 0)
(5.00389e-05 -7.62925e-08 0)
(5.00494e-05 -7.57285e-08 0)
(5.00604e-05 -7.29771e-08 0)
(5.00716e-05 -6.74593e-08 0)
(5.00828e-05 -5.85787e-08 0)
(5.00934e-05 -4.58066e-08 0)
(5.01026e-05 -2.87856e-08 0)
(5.01094e-05 -7.53797e-09 0)
(5.01126e-05 1.73802e-08 0)
(5.01113e-05 4.45376e-08 0)
(5.01046e-05 7.18174e-08 0)
(5.00926e-05 9.61343e-08 0)
(5.00766e-05 1.15231e-07 0)
(5.00583e-05 1.28052e-07 0)
(5.0039e-05 1.3448e-07 0)
(5.002e-05 1.34941e-07 0)
(5.0002e-05 1.30131e-07 0)
(4.99859e-05 1.20946e-07 0)
(4.99722e-05 1.08366e-07 0)
(4.99612e-05 9.35449e-08 0)
(4.99532e-05 7.76407e-08 0)
(4.99481e-05 6.20646e-08 0)
(4.99453e-05 4.79306e-08 0)
(4.99443e-05 3.57516e-08 0)
(4.99444e-05 2.56029e-08 0)
(4.99453e-05 1.73662e-08 0)
(4.99467e-05 1.08278e-08 0)
(4.99484e-05 5.76058e-09 0)
(4.99503e-05 1.90505e-09 0)
(4.99522e-05 -9.45997e-10 0)
(4.99541e-05 -3.00976e-09 0)
(4.9956e-05 -4.43849e-09 0)
(4.99578e-05 -5.38759e-09 0)
(4.99596e-05 -5.96367e-09 0)
(4.99613e-05 -6.26566e-09 0)
(4.99629e-05 -6.36792e-09 0)
(4.99645e-05 -6.32694e-09 0)
(4.99661e-05 -6.19374e-09 0)
(4.99675e-05 -5.99772e-09 0)
(4.9969e-05 -5.77158e-09 0)
(4.99703e-05 -5.53003e-09 0)
(4.99717e-05 -5.29115e-09 0)
(4.9973e-05 -5.06267e-09 0)
(4.99743e-05 -4.852e-09 0)
(4.99756e-05 -4.66336e-09 0)
(4.99768e-05 -4.49758e-09 0)
(4.99781e-05 -4.35615e-09 0)
(4.99793e-05 -4.23656e-09 0)
(4.99806e-05 -4.13755e-09 0)
(4.99818e-05 -4.05487e-09 0)
(4.99831e-05 -3.98445e-09 0)
(4.99843e-05 -3.92038e-09 0)
(4.99855e-05 -3.85563e-09 0)
(4.99868e-05 -3.78168e-09 0)
(4.99881e-05 -3.68785e-09 0)
(4.99893e-05 -3.56156e-09 0)
(4.99906e-05 -3.38713e-09 0)
(4.99919e-05 -3.146e-09 0)
(4.99932e-05 -2.8157e-09 0)
(4.99945e-05 -2.36988e-09 0)
(4.99958e-05 -1.77792e-09 0)
(4.9997e-05 -1.00532e-09 0)
(4.99983e-05 -1.56129e-11 0)
(4.99994e-05 1.2282e-09 0)
(5.00004e-05 2.75377e-09 0)
(5.00013e-05 4.57693e-09 0)
(5.00018e-05 6.66935e-09 0)
(5.0002e-05 8.95537e-09 0)
(5.00017e-05 1.12785e-08 0)
(4.99562e-05 -3.41317e-08 0)
(4.99594e-05 -3.68453e-08 0)
(4.99629e-05 -3.98362e-08 0)
(4.99666e-05 -4.30952e-08 0)
(4.99706e-05 -4.66433e-08 0)
(4.99749e-05 -5.04582e-08 0)
(4.99796e-05 -5.45333e-08 0)
(4.99846e-05 -5.8821e-08 0)
(4.999e-05 -6.32669e-08 0)
(4.9996e-05 -6.77747e-08 0)
(5.00024e-05 -7.22136e-08 0)
(5.00094e-05 -7.64025e-08 0)
(5.00171e-05 -8.00974e-08 0)
(5.00254e-05 -8.29847e-08 0)
(5.00344e-05 -8.46631e-08 0)
(5.00441e-05 -8.46383e-08 0)
(5.00544e-05 -8.23162e-08 0)
(5.00652e-05 -7.70114e-08 0)
(5.00761e-05 -6.79783e-08 0)
(5.00868e-05 -5.44892e-08 0)
(5.00964e-05 -3.59473e-08 0)
(5.0104e-05 -1.21468e-08 0)
(5.01083e-05 1.65042e-08 0)
(5.01079e-05 4.84129e-08 0)
(5.01014e-05 8.09943e-08 0)
(5.00891e-05 1.09772e-07 0)
(5.00727e-05 1.31831e-07 0)
(5.00543e-05 1.46131e-07 0)
(5.00352e-05 1.52836e-07 0)
(5.00167e-05 1.52664e-07 0)
(4.99995e-05 1.46515e-07 0)
(4.99842e-05 1.3545e-07 0)
(4.99713e-05 1.20555e-07 0)
(4.99611e-05 1.0314e-07 0)
(4.9954e-05 8.44794e-08 0)
(4.995e-05 6.64717e-08 0)
(4.99482e-05 5.05459e-08 0)
(4.99479e-05 3.71724e-08 0)
(4.99484e-05 2.62546e-08 0)
(4.99495e-05 1.7535e-08 0)
(4.99509e-05 1.07057e-08 0)
(4.99524e-05 5.47408e-09 0)
(4.9954e-05 1.52989e-09 0)
(4.99556e-05 -1.36212e-09 0)
(4.99571e-05 -3.44182e-09 0)
(4.99587e-05 -4.87031e-09 0)
(4.99602e-05 -5.8124e-09 0)
(4.99616e-05 -6.37748e-09 0)
(4.9963e-05 -6.66722e-09 0)
(4.99644e-05 -6.75773e-09 0)
(4.99657e-05 -6.70507e-09 0)
(4.99671e-05 -6.56206e-09 0)
(4.99684e-05 -6.35662e-09 0)
(4.99696e-05 -6.123e-09 0)
(4.99709e-05 -5.87458e-09 0)
(4.99721e-05 -5.63031e-09 0)
(4.99733e-05 -5.39727e-09 0)
(4.99745e-05 -5.18301e-09 0)
(4.99757e-05 -4.99168e-09 0)
(4.99769e-05 -4.8238e-09 0)
(4.99781e-05 -4.68109e-09 0)
(4.99793e-05 -4.56065e-09 0)
(4.99805e-05 -4.46144e-09 0)
(4.99817e-05 -4.37896e-09 0)
(4.99829e-05 -4.30927e-09 0)
(4.99841e-05 -4.24635e-09 0)
(4.99853e-05 -4.18321e-09 0)
(4.99865e-05 -4.11131e-09 0)
(4.99877e-05 -4.01993e-09 0)
(4.99889e-05 -3.89635e-09 0)
(4.99902e-05 -3.72462e-09 0)
(4.99914e-05 -3.48566e-09 0)
(4.99927e-05 -3.15598e-09 0)
(4.99939e-05 -2.70745e-09 0)
(4.99952e-05 -2.10643e-09 0)
(4.99964e-05 -1.31335e-09 0)
(4.99976e-05 -2.83875e-10 0)
(4.99988e-05 1.0315e-09 0)
(4.99999e-05 2.67755e-09 0)
(5.00009e-05 4.69549e-09 0)
(5.00016e-05 7.08235e-09 0)
(5.00019e-05 9.79183e-09 0)
(5.00017e-05 1.26705e-08 0)
(4.99577e-05 -3.70874e-08 0)
(4.9961e-05 -3.99798e-08 0)
(4.99644e-05 -4.31671e-08 0)
(4.99681e-05 -4.66397e-08 0)
(4.99719e-05 -5.04236e-08 0)
(4.9976e-05 -5.44976e-08 0)
(4.99804e-05 -5.88598e-08 0)
(4.99851e-05 -6.34663e-08 0)
(4.99902e-05 -6.8267e-08 0)
(4.99956e-05 -7.31718e-08 0)
(5.00014e-05 -7.80523e-08 0)
(5.00077e-05 -8.27321e-08 0)
(5.00144e-05 -8.6966e-08 0)
(5.00218e-05 -9.04351e-08 0)
(5.00298e-05 -9.27237e-08 0)
(5.00384e-05 -9.33035e-08 0)
(5.00477e-05 -9.15256e-08 0)
(5.00575e-05 -8.66018e-08 0)
(5.00678e-05 -7.76362e-08 0)
(5.00782e-05 -6.36749e-08 0)
(5.0088e-05 -4.38223e-08 0)
(5.00963e-05 -1.7537e-08 0)
(5.01016e-05 1.50643e-08 0)
(5.01024e-05 5.23381e-08 0)
(5.00965e-05 9.12132e-08 0)
(5.00839e-05 1.24949e-07 0)
(5.00674e-05 1.49882e-07 0)
(5.00492e-05 1.65255e-07 0)
(5.0031e-05 1.71764e-07 0)
(5.00135e-05 1.70542e-07 0)
(4.99975e-05 1.62724e-07 0)
(4.99834e-05 1.49533e-07 0)
(4.99715e-05 1.32111e-07 0)
(4.99623e-05 1.1189e-07 0)
(4.99561e-05 9.01486e-08 0)
(4.99532e-05 6.95579e-08 0)
(4.99524e-05 5.19723e-08 0)
(4.99526e-05 3.76791e-08 0)
(4.99534e-05 2.6277e-08 0)
(4.99544e-05 1.73216e-08 0)
(4.99556e-05 1.0401e-08 0)
(4.99568e-05 5.15668e-09 0)
(4.9958e-05 1.23202e-09 0)
(4.99592e-05 -1.62879e-09 0)
(4.99603e-05 -3.68012e-09 0)
(4.99615e-05 -5.08524e-09 0)
(4.99626e-05 -6.01247e-09 0)
(4.99637e-05 -6.56963e-09 0)
(4.99648e-05 -6.85758e-09 0)
(4.99659e-05 -6.95143e-09 0)
(4.9967e-05 -6.90488e-09 0)
(4.99681e-05 -6.7709e-09 0)
(4.99692e-05 -6.57496e-09 0)
(4.99703e-05 -6.35193e-09 0)
(4.99714e-05 -6.11346e-09 0)
(4.99725e-05 -5.87898e-09 0)
(4.99736e-05 -5.65476e-09 0)
(4.99748e-05 -5.44847e-09 0)
(4.99759e-05 -5.26417e-09 0)
(4.9977e-05 -5.10228e-09 0)
(4.99782e-05 -4.96475e-09 0)
(4.99793e-05 -4.84857e-09 0)
(4.99805e-05 -4.75299e-09 0)
(4.99816e-05 -4.67348e-09 0)
(4.99828e-05 -4.60635e-09 0)
(4.99839e-05 -4.54566e-09 0)
(4.99851e-05 -4.48463e-09 0)
(4.99862e-05 -4.41485e-09 0)
(4.99874e-05 -4.32582e-09 0)
(4.99886e-05 -4.20494e-09 0)
(4.99897e-05 -4.03638e-09 0)
(4.99909e-05 -3.80096e-09 0)
(4.99921e-05 -3.47481e-09 0)
(4.99933e-05 -3.02879e-09 0)
(4.99945e-05 -2.42723e-09 0)
(4.99957e-05 -1.6266e-09 0)
(4.99969e-05 -5.75666e-10 0)
(4.9998e-05 7.87204e-10 0)
(4.99992e-05 2.52535e-09 0)
(5.00002e-05 4.71105e-09 0)
(5.00011e-05 7.37879e-09 0)
(5.00016e-05 1.05373e-08 0)
(5.00017e-05 1.4067e-08 0)
(4.99595e-05 -3.99775e-08 0)
(4.99628e-05 -4.30317e-08 0)
(4.99662e-05 -4.6396e-08 0)
(4.99698e-05 -5.00601e-08 0)
(4.99736e-05 -5.4055e-08 0)
(4.99776e-05 -5.8361e-08 0)
(4.99818e-05 -6.29807e-08 0)
(4.99862e-05 -6.78765e-08 0)
(4.99909e-05 -7.30022e-08 0)
(4.99958e-05 -7.82792e-08 0)
(5.0001e-05 -8.35818e-08 0)
(5.00065e-05 -8.87476e-08 0)
(5.00124e-05 -9.35346e-08 0)
(5.00187e-05 -9.76312e-08 0)
(5.00255e-05 -1.00622e-07 0)
(5.00328e-05 -1.0196e-07 0)
(5.00406e-05 -1.00965e-07 0)
(5.00491e-05 -9.67577e-08 0)
(5.00581e-05 -8.83016e-08 0)
(5.00675e-05 -7.43871e-08 0)
(5.00769e-05 -5.37371e-08 0)
(5.00854e-05 -2.52922e-08 0)
(5.00915e-05 1.13915e-08 0)
(5.00935e-05 5.49458e-08 0)
(5.00882e-05 1.01937e-07 0)
(5.00754e-05 1.41642e-07 0)
(5.00593e-05 1.69617e-07 0)
(5.00424e-05 1.85868e-07 0)
(5.00259e-05 1.9194e-07 0)
(5.00105e-05 1.89498e-07 0)
(4.99966e-05 1.79897e-07 0)
(4.99843e-05 1.64494e-07 0)
(4.9974e-05 1.44403e-07 0)
(4.99659e-05 1.21105e-07 0)
(4.99607e-05 9.56265e-08 0)
(4.99589e-05 7.20318e-08 0)
(4.99589e-05 5.2792e-08 0)
(4.99593e-05 3.77473e-08 0)
(4.99599e-05 2.60096e-08 0)
(4.99606e-05 1.69218e-08 0)
(4.99612e-05 9.98108e-09 0)
(4.99618e-05 4.77066e-09 0)
(4.99624e-05 8.93992e-10 0)
(4.99629e-05 -1.91935e-09 0)
(4.99635e-05 -3.93332e-09 0)
(4.99642e-05 -5.31022e-09 0)
(4.99649e-05 -6.21981e-09 0)
(4.99656e-05 -6.76728e-09 0)
(4.99664e-05 -7.05183e-09 0)
(4.99672e-05 -7.14751e-09 0)
(4.9968e-05 -7.10532e-09 0)
(4.99689e-05 -6.97862e-09 0)
(4.99698e-05 -6.79034e-09 0)
(4.99708e-05 -6.5762e-09 0)
(4.99718e-05 -6.34611e-09 0)
(4.99728e-05 -6.12005e-09 0)
(4.99739e-05 -5.90355e-09 0)
(4.99749e-05 -5.7043e-09 0)
(4.9976e-05 -5.52635e-09 0)
(4.99771e-05 -5.36983e-09 0)
(4.99782e-05 -5.23699e-09 0)
(4.99793e-05 -5.12458e-09 0)
(4.99804e-05 -5.03212e-09 0)
(4.99815e-05 -4.95504e-09 0)
(4.99826e-05 -4.88989e-09 0)
(4.99837e-05 -4.83084e-09 0)
(4.99848e-05 -4.77139e-09 0)
(4.99859e-05 -4.7034e-09 0)
(4.99871e-05 -4.61673e-09 0)
(4.99882e-05 -4.49917e-09 0)
(4.99893e-05 -4.33536e-09 0)
(4.99904e-05 -4.10658e-09 0)
(4.99915e-05 -3.78936e-09 0)
(4.99926e-05 -3.35463e-09 0)
(4.99937e-05 -2.76613e-09 0)
(4.99948e-05 -1.97828e-09 0)
(4.99959e-05 -9.35093e-10 0)
(4.99971e-05 4.35349e-10 0)
(4.99982e-05 2.21494e-09 0)
(4.99993e-05 4.51256e-09 0)
(5.00003e-05 7.41597e-09 0)
(5.00011e-05 1.10295e-08 0)
(5.00015e-05 1.53319e-08 0)
(4.99616e-05 -4.29147e-08 0)
(4.9965e-05 -4.61215e-08 0)
(4.99685e-05 -4.96512e-08 0)
(4.99721e-05 -5.34893e-08 0)
(4.99759e-05 -5.76739e-08 0)
(4.99799e-05 -6.21829e-08 0)
(4.99839e-05 -6.7024e-08 0)
(4.99882e-05 -7.21643e-08 0)
(4.99925e-05 -7.75596e-08 0)
(4.9997e-05 -8.3145e-08 0)
(5.00016e-05 -8.87928e-08 0)
(5.00064e-05 -9.43593e-08 0)
(5.00113e-05 -9.96042e-08 0)
(5.00165e-05 -1.04229e-07 0)
(5.00218e-05 -1.07827e-07 0)
(5.00274e-05 -1.09844e-07 0)
(5.00334e-05 -1.09598e-07 0)
(5.00399e-05 -1.06139e-07 0)
(5.00468e-05 -9.8336e-08 0)
(5.00543e-05 -8.47524e-08 0)
(5.00621e-05 -6.37342e-08 0)
(5.00699e-05 -3.36059e-08 0)
(5.00762e-05 6.87138e-09 0)
(5.00797e-05 5.72391e-08 0)
(5.00753e-05 1.14084e-07 0)
(5.00627e-05 1.59972e-07 0)
(5.00482e-05 1.90193e-07 0)
(5.00339e-05 2.06371e-07 0)
(5.00205e-05 2.11275e-07 0)