/*--------------------------------*- C++ -*----------------------------------*\
| =========                 |                                                 |
| \\      /  F ield         | foam-extend: Open Source CFD                    |
|  \\    /   O peration     | Version:     4.1-20200408                       |
|   \\  /    A nd           | Web:         http://www.foam-extend.org         |
|    \\/     M anipulation  |                                                 |
\*---------------------------------------------------------------------------*/
FoamFile
{
    version     2.0;
    format      ascii;
    class       volVectorField;
    location    "0.0975000";
    object      DU;
}
// * * * * * * * * * * * * * * * * * * * * * * * * * * * * * * * * * * * * * //

dimensions      [0 1 0 0 0 0 0];

internalField   nonuniform List<vector> 
1952
(
(5.00025e-05 -1.92104e-09 0)
(5.00026e-05 -3.01646e-09 0)
(5.00027e-05 -4.32067e-09 0)
(5.00028e-05 -5.29056e-09 0)
(5.00031e-05 -6.59999e-09 0)
(5.00033e-05 -7.41566e-09 0)
(5.00037e-05 -8.64921e-09 0)
(5.00041e-05 -9.26872e-09 0)
(5.00047e-05 -1.03404e-08 0)
(5.00055e-05 -1.06912e-08 0)
(5.00065e-05 -1.14837e-08 0)
(5.00081e-05 -1.14588e-08 0)
(5.00106e-05 -1.17778e-08 0)
(5.00147e-05 -1.1227e-08 0)
(5.00217e-05 -1.06651e-08 0)
(5.00024e-05 -8.13275e-10 0)
(5.00041e-05 -7.59903e-10 0)
(5.00042e-05 -1.19026e-09 0)
(5.00044e-05 -1.68184e-09 0)
(5.00046e-05 -2.04023e-09 0)
(5.0005e-05 -2.49631e-09 0)
(5.00054e-05 -2.74814e-09 0)
(5.00059e-05 -3.12561e-09 0)
(5.00064e-05 -3.24404e-09 0)
(5.00072e-05 -3.50512e-09 0)
(5.0008e-05 -3.46351e-09 0)
(5.0009e-05 -3.57835e-09 0)
(5.00102e-05 -3.36331e-09 0)
(5.00116e-05 -3.34471e-09 0)
(5.00132e-05 -3.04785e-09 0)
(5.0015e-05 -3.13707e-09 0)
(5.0004e-05 -3.22384e-10 0)
(5.00043e-05 -4.88323e-10 0)
(5.00045e-05 -7.75042e-10 0)
(5.00047e-05 -1.06503e-09 0)
(5.00049e-05 -1.29841e-09 0)
(5.00053e-05 -1.53888e-09 0)
(5.00057e-05 -1.67994e-09 0)
(5.00062e-05 -1.84021e-09 0)
(5.00068e-05 -1.86533e-09 0)
(5.00076e-05 -1.92289e-09 0)
(5.00085e-05 -1.82265e-09 0)
(5.00095e-05 -1.77677e-09 0)
(5.00107e-05 -1.57108e-09 0)
(5.00121e-05 -1.47502e-09 0)
(5.00136e-05 -1.26477e-09 0)
(5.00153e-05 -1.27293e-09 0)
(5.00043e-05 -2.0912e-10 0)
(5.0005e-05 -2.59693e-10 0)
(5.00051e-05 -4.07814e-10 0)
(5.00054e-05 -5.49549e-10 0)
(5.00056e-05 -6.51624e-10 0)
(5.0006e-05 -7.46207e-10 0)
(5.00064e-05 -7.71571e-10 0)
(5.0007e-05 -7.97002e-10 0)
(5.00076e-05 -7.28129e-10 0)
(5.00084e-05 -6.72933e-10 0)
(5.00092e-05 -5.11132e-10 0)
(5.00102e-05 -3.89763e-10 0)
(5.00112e-05 -1.73112e-10 0)
(5.00124e-05 -5.81088e-11 0)
(5.00136e-05 1.03186e-10 0)
(5.00149e-05 3.9608e-11 0)
(5.0005e-05 -1.11417e-10 0)
(5.00057e-05 -7.33742e-11 0)
(5.00059e-05 -1.07513e-10 0)
(5.00061e-05 -1.33132e-10 0)
(5.00064e-05 -1.28102e-10 0)
(5.00068e-05 -1.142e-10 0)
(5.00072e-05 -4.742e-11 0)
(5.00078e-05 1.91083e-11 0)
(5.00084e-05 1.5553e-10 0)
(5.00091e-05 2.75064e-10 0)
(5.00099e-05 4.67548e-10 0)
(5.00108e-05 6.14898e-10 0)
(5.00118e-05 8.17725e-10 0)
(5.00128e-05 9.2576e-10 0)
(5.00139e-05 1.05247e-09 0)
(5.00149e-05 1.01659e-09 0)
(5.00057e-05 -3.17258e-11 0)
(5.00066e-05 7.45114e-11 0)
(5.00068e-05 1.31032e-10 0)
(5.0007e-05 1.94657e-10 0)
(5.00073e-05 2.83999e-10 0)
(5.00077e-05 3.76869e-10 0)
(5.00081e-05 5.13254e-10 0)
(5.00087e-05 6.41475e-10 0)
(5.00092e-05 8.2563e-10 0)
(5.001e-05 9.83104e-10 0)
(5.00107e-05 1.19525e-09 0)
(5.00115e-05 1.35384e-09 0)
(5.00123e-05 1.54776e-09 0)
(5.00132e-05 1.64883e-09 0)
(5.0014e-05 1.75487e-09 0)
(5.00148e-05 1.7227e-09 0)
(5.00066e-05 3.16729e-11 0)
(5.00076e-05 1.87068e-10 0)
(5.00077e-05 3.12236e-10 0)
(5.0008e-05 4.42067e-10 0)
(5.00082e-05 5.93779e-10 0)
(5.00086e-05 7.42244e-10 0)
(5.0009e-05 9.27827e-10 0)
(5.00096e-05 1.09522e-09 0)
(5.00101e-05 1.30951e-09 0)
(5.00108e-05 1.48573e-09 0)
(5.00114e-05 1.7055e-09 0)
(5.00122e-05 1.8638e-09 0)
(5.00129e-05 2.04742e-09 0)
(5.00137e-05 2.14309e-09 0)
(5.00143e-05 2.24096e-09 0)
(5.00149e-05 2.22951e-09 0)
(5.00075e-05 7.99702e-11 0)
(5.00086e-05 2.68821e-10 0)
(5.00088e-05 4.43547e-10 0)
(5.0009e-05 6.20275e-10 0)
(5.00092e-05 8.15883e-10 0)
(5.00096e-05 1.00155e-09 0)
(5.001e-05 1.22001e-09 0)
(5.00105e-05 1.41085e-09 0)
(5.0011e-05 1.64335e-09 0)
(5.00116e-05 1.82791e-09 0)
(5.00122e-05 2.05068e-09 0)
(5.00129e-05 2.20614e-09 0)
(5.00135e-05 2.38337e-09 0)
(5.00141e-05 2.47718e-09 0)
(5.00146e-05 2.57376e-09 0)
(5.00151e-05 2.58021e-09 0)
(5.00086e-05 1.1509e-10 0)
(5.00097e-05 3.24189e-10 0)
(5.00098e-05 5.32217e-10 0)
(5.001e-05 7.3974e-10 0)
(5.00103e-05 9.63947e-10 0)
(5.00106e-05 1.17224e-09 0)
(5.0011e-05 1.41085e-09 0)
(5.00114e-05 1.61344e-09 0)
(5.00119e-05 1.85555e-09 0)
(5.00125e-05 2.04136e-09 0)
(5.0013e-05 2.26409e-09 0)
(5.00136e-05 2.41537e-09 0)
(5.00141e-05 2.58911e-09 0)
(5.00146e-05 2.68431e-09 0)
(5.0015e-05 2.78553e-09 0)
(5.00153e-05 2.81275e-09 0)
(5.00096e-05 1.38901e-10 0)
(5.00107e-05 3.57673e-10 0)
(5.00108e-05 5.85643e-10 0)
(5.0011e-05 8.10898e-10 0)
(5.00113e-05 1.05155e-09 0)
(5.00116e-05 1.27116e-09 0)
(5.00119e-05 1.52043e-09 0)
(5.00124e-05 1.72652e-09 0)
(5.00128e-05 1.97271e-09 0)
(5.00133e-05 2.15574e-09 0)
(5.00137e-05 2.37767e-09 0)
(5.00142e-05 2.52513e-09 0)
(5.00147e-05 2.69853e-09 0)
(5.00151e-05 2.79755e-09 0)
(5.00154e-05 2.90678e-09 0)
(5.00157e-05 2.95402e-09 0)
(5.00106e-05 1.53329e-10 0)
(5.00117e-05 3.73323e-10 0)
(5.00118e-05 6.10421e-10 0)
(5.0012e-05 8.42969e-10 0)
(5.00122e-05 1.09053e-09 0)
(5.00126e-05 1.31275e-09 0)
(5.00128e-05 1.56565e-09 0)
(5.00133e-05 1.76926e-09 0)
(5.00136e-05 2.01589e-09 0)
(5.00141e-05 2.19354e-09 0)
(5.00145e-05 2.41463e-09 0)
(5.00149e-05 2.55884e-09 0)
(5.00153e-05 2.7344e-09 0)
(5.00156e-05 2.83908e-09 0)
(5.00159e-05 2.9588e-09 0)
(5.0016e-05 3.0259e-09 0)
(5.00117e-05 1.60102e-10 0)
(5.00127e-05 3.74734e-10 0)
(5.00128e-05 6.12401e-10 0)
(5.0013e-05 8.4402e-10 0)
(5.00132e-05 1.09118e-09 0)
(5.00135e-05 1.30937e-09 0)
(5.00137e-05 1.56089e-09 0)
(5.00141e-05 1.75769e-09 0)
(5.00144e-05 2.00259e-09 0)
(5.00149e-05 2.17328e-09 0)
(5.00152e-05 2.39409e-09 0)
(5.00156e-05 2.5357e-09 0)
(5.00159e-05 2.71554e-09 0)
(5.00162e-05 2.82703e-09 0)
(5.00164e-05 2.95876e-09 0)
(5.00165e-05 3.04486e-09 0)
(5.00126e-05 1.60763e-10 0)
(5.00136e-05 3.64944e-10 0)
(5.00137e-05 5.96482e-10 0)
(5.00139e-05 8.20802e-10 0)
(5.00141e-05 1.06199e-09 0)
(5.00144e-05 1.27112e-09 0)
(5.00146e-05 1.51765e-09 0)
(5.0015e-05 1.70453e-09 0)
(5.00152e-05 1.94638e-09 0)
(5.00156e-05 2.10907e-09 0)
(5.00159e-05 2.33028e-09 0)
(5.00162e-05 2.46985e-09 0)
(5.00165e-05 2.65562e-09 0)
(5.00167e-05 2.7747e-09 0)
(5.00169e-05 2.91943e-09 0)
(5.0017e-05 3.0238e-09 0)
(5.00136e-05 1.56612e-10 0)
(5.00145e-05 3.46451e-10 0)
(5.00146e-05 5.66702e-10 0)
(5.00148e-05 7.7879e-10 0)
(5.00149e-05 1.00988e-09 0)
(5.00152e-05 1.20608e-09 0)
(5.00154e-05 1.44516e-09 0)
(5.00158e-05 1.61973e-09 0)
(5.0016e-05 1.85792e-09 0)
(5.00164e-05 2.01183e-09 0)
(5.00166e-05 2.23427e-09 0)
(5.00169e-05 2.37215e-09 0)
(5.00171e-05 2.56519e-09 0)
(5.00173e-05 2.69231e-09 0)
(5.00174e-05 2.85072e-09 0)
(5.00175e-05 2.97262e-09 0)
(5.00145e-05 1.48723e-10 0)
(5.00153e-05 3.21292e-10 0)
(5.00154e-05 5.26313e-10 0)
(5.00156e-05 7.22425e-10 0)
(5.00157e-05 9.40328e-10 0)
(5.0016e-05 1.12068e-09 0)
(5.00162e-05 1.35059e-09 0)
(5.00165e-05 1.51106e-09 0)
(5.00168e-05 1.74529e-09 0)
(5.00171e-05 1.88981e-09 0)
(5.00173e-05 2.11423e-09 0)
(5.00176e-05 2.25066e-09 0)
(5.00178e-05 2.45204e-09 0)
(5.0018e-05 2.5875e-09 0)
(5.0018e-05 2.76009e-09 0)
(5.00181e-05 2.89901e-09 0)
(5.00153e-05 1.37969e-10 0)
(5.00161e-05 2.91086e-10 0)
(5.00162e-05 4.77921e-10 0)
(5.00164e-05 6.55183e-10 0)
(5.00165e-05 8.57695e-10 0)
(5.00168e-05 1.01988e-09 0)
(5.0017e-05 1.23955e-09 0)
(5.00173e-05 1.3844e-09 0)
(5.00175e-05 1.61472e-09 0)
(5.00178e-05 1.74921e-09 0)
(5.0018e-05 1.97642e-09 0)
(5.00183e-05 2.11144e-09 0)
(5.00185e-05 2.32211e-09 0)
(5.00186e-05 2.46612e-09 0)
(5.00187e-05 2.65337e-09 0)
(5.00187e-05 2.80901e-09 0)
(5.00161e-05 1.25046e-10 0)
(5.00168e-05 2.57175e-10 0)
(5.00169e-05 4.2365e-10 0)
(5.00171e-05 5.79941e-10 0)
(5.00172e-05 7.65484e-10 0)
(5.00175e-05 9.07719e-10 0)
(5.00177e-05 1.11648e-09 0)
(5.0018e-05 1.24446e-09 0)
(5.00182e-05 1.47104e-09 0)
(5.00185e-05 1.59491e-09 0)
(5.00187e-05 1.8256e-09 0)
(5.0019e-05 1.9592e-09 0)
(5.00191e-05 2.17994e-09 0)
(5.00193e-05 2.33274e-09 0)
(5.00193e-05 2.53515e-09 0)
(5.00193e-05 2.70754e-09 0)
(5.00168e-05 1.1053e-10 0)
(5.00175e-05 2.20688e-10 0)
(5.00175e-05 3.65309e-10 0)
(5.00177e-05 4.99075e-10 0)
(5.00178e-05 6.66666e-10 0)
(5.00181e-05 7.87503e-10 0)
(5.00183e-05 9.85093e-10 0)
(5.00186e-05 1.09503e-09 0)
(5.00189e-05 1.31825e-09 0)
(5.00192e-05 1.43079e-09 0)
(5.00194e-05 1.66572e-09 0)
(5.00196e-05 1.79772e-09 0)
(5.00198e-05 2.02934e-09 0)
(5.00199e-05 2.19117e-09 0)
(5.002e-05 2.40936e-09 0)
(5.002e-05 2.59888e-09 0)
(5.00174e-05 9.49073e-11 0)
(5.0018e-05 1.82701e-10 0)
(5.00181e-05 3.04595e-10 0)
(5.00183e-05 4.1486e-10 0)
(5.00184e-05 5.64004e-10 0)
(5.00187e-05 6.62376e-10 0)
(5.00189e-05 8.48818e-10 0)
(5.00193e-05 9.39696e-10 0)
(5.00195e-05 1.16e-09 0)
(5.00198e-05 1.26051e-09 0)
(5.00201e-05 1.50035e-09 0)
(5.00203e-05 1.63055e-09 0)
(5.00205e-05 1.8738e-09 0)
(5.00207e-05 2.045e-09 0)
(5.00207e-05 2.2797e-09 0)
(5.00207e-05 2.4871e-09 0)
(5.0018e-05 7.86383e-11 0)
(5.00185e-05 1.44321e-10 0)
(5.00186e-05 2.43274e-10 0)
(5.00188e-05 3.29614e-10 0)
(5.00189e-05 4.60383e-10 0)
(5.00193e-05 5.35522e-10 0)
(5.00195e-05 7.11252e-10 0)
(5.00198e-05 7.82097e-10 0)
(5.00201e-05 1.00017e-09 0)
(5.00204e-05 1.0878e-09 0)
(5.00207e-05 1.33332e-09 0)
(5.0021e-05 1.46137e-09 0)
(5.00212e-05 1.71702e-09 0)
(5.00214e-05 1.89801e-09 0)
(5.00215e-05 2.15009e-09 0)
(5.00215e-05 2.37652e-09 0)
(5.00185e-05 6.2199e-11 0)
(5.00189e-05 1.06852e-10 0)
(5.0019e-05 1.83417e-10 0)
(5.00193e-05 2.46095e-10 0)
(5.00194e-05 3.59184e-10 0)
(5.00198e-05 4.10782e-10 0)
(5.002e-05 5.7661e-10 0)
(5.00204e-05 6.26665e-10 0)
(5.00207e-05 8.43313e-10 0)
(5.0021e-05 9.17238e-10 0)
(5.00214e-05 1.16916e-09 0)
(5.00217e-05 1.2947e-09 0)
(5.0022e-05 1.56349e-09 0)
(5.00221e-05 1.75477e-09 0)
(5.00223e-05 2.02524e-09 0)
(5.00223e-05 2.2722e-09 0)
(5.00189e-05 4.61496e-11 0)
(5.00193e-05 7.19252e-11 0)
(5.00194e-05 1.27621e-10 0)
(5.00196e-05 1.67749e-10 0)
(5.00198e-05 2.64686e-10 0)
(5.00202e-05 2.92954e-10 0)
(5.00204e-05 4.503e-10 0)
(5.00209e-05 4.78958e-10 0)
(5.00212e-05 6.95334e-10 0)
(5.00216e-05 7.54624e-10 0)
(5.0022e-05 1.01381e-09 0)
(5.00223e-05 1.13628e-09 0)
(5.00227e-05 1.41897e-09 0)
(5.00229e-05 1.62103e-09 0)
(5.00231e-05 1.91098e-09 0)
(5.00231e-05 2.18036e-09 0)
(5.00192e-05 3.11895e-11 0)
(5.00195e-05 4.16686e-11 0)
(5.00196e-05 7.92811e-11 0)
(5.00199e-05 9.91099e-11 0)
(5.00201e-05 1.8248e-10 0)
(5.00205e-05 1.88434e-10 0)
(5.00208e-05 3.39403e-10 0)
(5.00213e-05 3.46492e-10 0)
(5.00217e-05 5.64038e-10 0)
(5.00222e-05 6.07865e-10 0)
(5.00226e-05 8.75166e-10 0)
(5.0023e-05 9.93955e-10 0)
(5.00235e-05 1.29119e-09 0)
(5.00237e-05 1.50454e-09 0)
(5.0024e-05 1.81507e-09 0)
(5.00241e-05 2.10906e-09 0)
(5.00195e-05 1.82321e-11 0)
(5.00197e-05 1.89113e-11 0)
(5.00198e-05 4.29089e-11 0)
(5.00201e-05 4.62151e-11 0)
(5.00203e-05 1.20048e-10 0)
(5.00208e-05 1.05747e-10 0)
(5.00211e-05 2.53495e-10 0)
(5.00217e-05 2.39296e-10 0)
(5.00222e-05 4.60059e-10 0)
(5.00227e-05 4.87538e-10 0)
(5.00233e-05 7.63996e-10 0)
(5.00237e-05 8.78185e-10 0)
(5.00242e-05 1.19054e-09 0)
(5.00246e-05 1.41548e-09 0)
(5.00249e-05 1.74763e-09 0)
(5.0025e-05 2.06866e-09 0)
(5.00196e-05 8.49065e-12 0)
(5.00198e-05 7.36181e-12 0)
(5.00199e-05 2.44419e-11 0)
(5.00203e-05 1.702e-11 0)
(5.00205e-05 8.72382e-11 0)
(5.00211e-05 5.6228e-11 0)
(5.00214e-05 2.05187e-10 0)
(5.00221e-05 1.70827e-10 0)
(5.00226e-05 3.97456e-10 0)
(5.00232e-05 4.0792e-10 0)
(5.00239e-05 6.94623e-10 0)
(5.00244e-05 8.03102e-10 0)
(5.0025e-05 1.13089e-09 0)
(5.00254e-05 1.3675e-09 0)
(5.00258e-05 1.72209e-09 0)
(5.00261e-05 2.07275e-09 0)
(5.00197e-05 3.5576e-12 0)
(5.00198e-05 1.19238e-11 0)
(5.002e-05 3.17077e-11 0)
(5.00204e-05 2.20694e-11 0)
(5.00206e-05 9.70906e-11 0)
(5.00213e-05 5.49119e-11 0)
(5.00216e-05 2.11303e-10 0)
(5.00224e-05 1.58952e-10 0)
(5.0023e-05 3.95076e-10 0)
(5.00237e-05 3.87976e-10 0)
(5.00245e-05 6.86236e-10 0)
(5.00251e-05 7.87416e-10 0)
(5.00258e-05 1.13062e-09 0)
(5.00264e-05 1.37846e-09 0)
(5.00269e-05 1.75589e-09 0)
(5.00272e-05 2.13871e-09 0)
(5.00198e-05 5.5354e-12 0)
(5.00198e-05 3.8883e-11 0)
(5.002e-05 7.47914e-11 0)
(5.00204e-05 7.49184e-11 0)
(5.00207e-05 1.6643e-10 0)
(5.00214e-05 1.21244e-10 0)
(5.00218e-05 2.93585e-10 0)
(5.00226e-05 2.26925e-10 0)
(5.00233e-05 4.77363e-10 0)
(5.00241e-05 4.52499e-10 0)
(5.0025e-05 7.6382e-10 0)
(5.00258e-05 8.55617e-10 0)
(5.00267e-05 1.21374e-09 0)
(5.00273e-05 1.47166e-09 0)
(5.0028e-05 1.87168e-09 0)
(5.00284e-05 2.289e-09 0)
(5.00197e-05 1.71237e-11 0)
(5.00198e-05 9.63476e-11 0)
(5.00199e-05 1.66655e-10 0)
(5.00204e-05 1.9312e-10 0)
(5.00207e-05 3.16936e-10 0)
(5.00214e-05 2.80468e-10 0)
(5.00219e-05 4.80193e-10 0)
(5.00228e-05 4.05003e-10 0)
(5.00236e-05 6.76116e-10 0)
(5.00245e-05 6.33787e-10 0)
(5.00256e-05 9.59901e-10 0)
(5.00265e-05 1.03951e-09 0)
(5.00275e-05 1.41128e-09 0)
(5.00283e-05 1.67704e-09 0)
(5.00292e-05 2.09834e-09 0)
(5.00297e-05 2.55195e-09 0)
(5.00197e-05 4.17995e-11 0)
(5.00197e-05 1.94447e-10 0)
(5.00198e-05 3.2358e-10 0)
(5.00204e-05 3.98642e-10 0)
(5.00206e-05 5.7596e-10 0)
(5.00215e-05 5.6433e-10 0)
(5.0022e-05 8.06819e-10 0)
(5.0023e-05 7.31455e-10 0)
(5.00239e-05 1.03182e-09 0)
(5.00249e-05 9.72891e-10 0)
(5.00261e-05 1.31604e-09 0)
(5.00271e-05 1.37965e-09 0)
(5.00284e-05 1.76294e-09 0)
(5.00294e-05 2.03274e-09 0)
(5.00304e-05 2.47264e-09 0)
(5.00312e-05 2.96347e-09 0)
(5.00196e-05 8.39131e-11 0)
(5.00197e-05 3.45861e-10 0)
(5.00198e-05 5.65881e-10 0)
(5.00204e-05 7.19133e-10 0)
(5.00206e-05 9.77681e-10 0)
(5.00215e-05 1.013e-09 0)
(5.00221e-05 1.31828e-09 0)
(5.00232e-05 1.25495e-09 0)
(5.00241e-05 1.59563e-09 0)
(5.00253e-05 1.52219e-09 0)
(5.00267e-05 1.88493e-09 0)
(5.00278e-05 1.92766e-09 0)
(5.00293e-05 2.31894e-09 0)
(5.00305e-05 2.5869e-09 0)
(5.00318e-05 3.04062e-09 0)
(5.00328e-05 3.56816e-09 0)
(5.00196e-05 1.48903e-10 0)
(5.00197e-05 5.65988e-10 0)
(5.00198e-05 9.18363e-10 0)
(5.00204e-05 1.18826e-09 0)
(5.00207e-05 1.56416e-09 0)
(5.00216e-05 1.67564e-09 0)
(5.00222e-05 2.0702e-09 0)
(5.00233e-05 2.03552e-09 0)
(5.00244e-05 2.43148e-09 0)
(5.00256e-05 2.34677e-09 0)
(5.00272e-05 2.73282e-09 0)
(5.00285e-05 2.74808e-09 0)
(5.00303e-05 3.14242e-09 0)
(5.00317e-05 3.39976e-09 0)
(5.00333e-05 3.85987e-09 0)
(5.00345e-05 4.42161e-09 0)
(5.00196e-05 2.43381e-10 0)
(5.002e-05 8.73452e-10 0)
(5.002e-05 1.41098e-09 0)
(5.00207e-05 1.84701e-09 0)
(5.00208e-05 2.38632e-09 0)
(5.00218e-05 2.6127e-09 0)
(5.00223e-05 3.13039e-09 0)
(5.00235e-05 3.14765e-09 0)
(5.00246e-05 3.61812e-09 0)
(5.00259e-05 3.52801e-09 0)
(5.00277e-05 3.94197e-09 0)
(5.00292e-05 3.92171e-09 0)
(5.00312e-05 4.31208e-09 0)
(5.00329e-05 4.54625e-09 0)
(5.00348e-05 5.00163e-09 0)
(5.00364e-05 5.59209e-09 0)
(5.00199e-05 3.75338e-10 0)
(5.00205e-05 1.29008e-09 0)
(5.00205e-05 2.07899e-09 0)
(5.00211e-05 2.74368e-09 0)
(5.00211e-05 3.50483e-09 0)
(5.00221e-05 3.896e-09 0)
(5.00226e-05 4.58081e-09 0)
(5.00237e-05 4.68094e-09 0)
(5.00249e-05 5.25195e-09 0)
(5.00263e-05 5.1651e-09 0)
(5.00281e-05 5.61414e-09 0)
(5.00298e-05 5.54813e-09 0)
(5.00322e-05 5.92552e-09 0)
(5.00341e-05 6.11905e-09 0)
(5.00365e-05 6.55384e-09 0)
(5.00385e-05 7.16362e-09 0)
(5.00204e-05 5.54142e-10 0)
(5.00214e-05 1.84109e-09 0)
(5.00213e-05 2.96317e-09 0)
(5.00219e-05 3.93457e-09 0)
(5.00218e-05 4.9903e-09 0)
(5.00227e-05 5.61044e-09 0)
(5.0023e-05 6.51801e-09 0)
(5.00241e-05 6.74317e-09 0)
(5.00252e-05 7.44857e-09 0)
(5.00266e-05 7.37927e-09 0)
(5.00286e-05 7.87352e-09 0)
(5.00304e-05 7.75014e-09 0)
(5.00331e-05 8.10324e-09 0)
(5.00354e-05 8.23231e-09 0)
(5.00382e-05 8.62458e-09 0)
(5.00407e-05 9.23874e-09 0)
(5.00213e-05 7.90607e-10 0)
(5.0023e-05 2.55448e-09 0)
(5.00227e-05 4.10902e-09 0)
(5.00232e-05 5.48287e-09 0)
(5.00229e-05 6.92293e-09 0)
(5.00236e-05 7.85297e-09 0)
(5.00237e-05 9.05425e-09 0)
(5.00247e-05 9.46006e-09 0)
(5.00257e-05 1.03456e-08 0)
(5.0027e-05 1.03153e-08 0)
(5.00291e-05 1.0871e-08 0)
(5.0031e-05 1.06775e-08 0)
(5.00341e-05 1.09935e-08 0)
(5.00367e-05 1.10267e-08 0)
(5.00401e-05 1.1347e-08 0)
(5.00432e-05 1.19434e-08 0)
(5.00229e-05 1.09675e-09 0)
(5.00253e-05 3.46028e-09 0)
(5.00249e-05 5.56562e-09 0)
(5.00252e-05 7.45729e-09 0)
(5.00246e-05 9.39056e-09 0)
(5.00251e-05 1.07316e-08 0)
(5.00249e-05 1.23155e-08 0)
(5.00256e-05 1.2976e-08 0)
(5.00264e-05 1.41024e-08 0)
(5.00275e-05 1.4145e-08 0)
(5.00296e-05 1.47875e-08 0)
(5.00316e-05 1.45124e-08 0)
(5.00349e-05 1.47784e-08 0)
(5.0038e-05 1.46748e-08 0)
(5.0042e-05 1.48847e-08 0)
(5.00458e-05 1.54314e-08 0)
(5.00253e-05 1.48544e-09 0)
(5.00287e-05 4.58866e-09 0)
(5.0028e-05 7.38247e-09 0)
(5.00282e-05 9.92837e-09 0)
(5.00271e-05 1.24845e-08 0)
(5.00273e-05 1.43608e-08 0)
(5.00266e-05 1.64384e-08 0)
(5.0027e-05 1.74509e-08 0)
(5.00274e-05 1.88998e-08 0)
(5.00282e-05 1.90667e-08 0)
(5.00302e-05 1.98366e-08 0)
(5.00321e-05 1.94735e-08 0)
(5.00358e-05 1.96798e-08 0)
(5.00392e-05 1.93882e-08 0)
(5.00439e-05 1.94379e-08 0)
(5.00486e-05 1.98886e-08 0)
(5.00287e-05 1.96959e-09 0)
(5.00335e-05 5.96719e-09 0)
(5.00325e-05 9.60555e-09 0)
(5.00324e-05 1.29626e-08 0)
(5.00308e-05 1.62932e-08 0)
(5.00305e-05 1.88545e-08 0)
(5.00292e-05 2.15625e-08 0)
(5.0029e-05 2.30537e-08 0)
(5.00288e-05 2.49351e-08 0)
(5.00292e-05 2.53054e-08 0)
(5.00309e-05 2.62678e-08 0)
(5.00326e-05 2.58239e-08 0)
(5.00364e-05 2.59709e-08 0)
(5.00402e-05 2.543e-08 0)
(5.00457e-05 2.52578e-08 0)
(5.00515e-05 2.5546e-08 0)
(5.00336e-05 2.56101e-09 0)
(5.00401e-05 7.61648e-09 0)
(5.00387e-05 1.22699e-08 0)
(5.00381e-05 1.66133e-08 0)
(5.00359e-05 2.08899e-08 0)
(5.0035e-05 2.43133e-08 0)
(5.00329e-05 2.7817e-08 0)
(5.00319e-05 2.99506e-08 0)
(5.00309e-05 3.24113e-08 0)
(5.00305e-05 3.31047e-08 0)
(5.00317e-05 3.43643e-08 0)
(5.0033e-05 3.38766e-08 0)
(5.00369e-05 3.39922e-08 0)
(5.0041e-05 3.31405e-08 0)
(5.00474e-05 3.26811e-08 0)
(5.00544e-05 3.27181e-08 0)
(5.00402e-05 3.26846e-09 0)
(5.00488e-05 9.54434e-09 0)
(5.00469e-05 1.53905e-08 0)
(5.00459e-05 2.0907e-08 0)
(5.00429e-05 2.63172e-08 0)
(5.00412e-05 3.0804e-08 0)
(5.00381e-05 3.52989e-08 0)
(5.0036e-05 3.82802e-08 0)
(5.0034e-05 4.15142e-08 0)
(5.00326e-05 4.2707e-08 0)
(5.00329e-05 4.44285e-08 0)
(5.00334e-05 4.39884e-08 0)
(5.00373e-05 4.41544e-08 0)
(5.00414e-05 4.29516e-08 0)
(5.00489e-05 4.21615e-08 0)
(5.00574e-05 4.18379e-08 0)
(5.0049e-05 4.09522e-09 0)
(5.00601e-05 1.17384e-08 0)
(5.00577e-05 1.89499e-08 0)
(5.00561e-05 2.58273e-08 0)
(5.00522e-05 3.25642e-08 0)
(5.00494e-05 3.83346e-08 0)
(5.00451e-05 4.40413e-08 0)
(5.00418e-05 4.8121e-08 0)
(5.00383e-05 5.23754e-08 0)
(5.00355e-05 5.43173e-08 0)
(5.00346e-05 5.67454e-08 0)
(5.0034e-05 5.65258e-08 0)
(5.00374e-05 5.69001e-08 0)
(5.00414e-05 5.53393e-08 0)
(5.00498e-05 5.41936e-08 0)
(5.006e-05 5.33397e-08 0)
(5.00605e-05 5.03585e-09 0)
(5.00744e-05 1.4157e-08 0)
(5.00714e-05 2.28834e-08 0)
(5.00691e-05 3.1292e-08 0)
(5.00642e-05 3.95384e-08 0)
(5.00603e-05 4.68156e-08 0)
(5.00544e-05 5.39704e-08 0)
(5.00496e-05 5.94401e-08 0)
(5.00443e-05 6.50212e-08 0)
(5.00397e-05 6.80559e-08 0)
(5.00371e-05 7.15513e-08 0)
(5.00349e-05 7.18562e-08 0)
(5.00373e-05 7.27246e-08 0)
(5.00408e-05 7.086e-08 0)
(5.00501e-05 6.9299e-08 0)
(5.00623e-05 6.75493e-08 0)
(5.00749e-05 6.07241e-09 0)
(5.00922e-05 1.67205e-08 0)
(5.00885e-05 2.70633e-08 0)
(5.00855e-05 3.71311e-08 0)
(5.00794e-05 4.70325e-08 0)
(5.00741e-05 5.60185e-08 0)
(5.00666e-05 6.48482e-08 0)
(5.006e-05 7.20254e-08 0)
(5.00526e-05 7.92923e-08 0)
(5.00458e-05 8.3884e-08 0)
(5.00409e-05 8.89911e-08 0)
(5.00365e-05 9.04019e-08 0)
(5.00371e-05 9.2425e-08 0)
(5.00393e-05 9.07155e-08 0)
(5.00491e-05 8.8994e-08 0)
(5.00636e-05 8.6014e-08 0)
(5.00928e-05 7.17054e-09 0)
(5.01136e-05 1.93031e-08 0)
(5.01093e-05 3.12859e-08 0)
(5.01055e-05 4.30636e-08 0)
(5.00981e-05 5.46916e-08 0)
(5.00915e-05 6.55216e-08 0)
(5.00822e-05 7.61952e-08 0)
(5.00736e-05 8.53674e-08 0)
(5.00638e-05 9.46777e-08 0)
(5.00546e-05 1.01373e-07 0)
(5.00469e-05 1.08826e-07 0)
(5.00396e-05 1.12328e-07 0)
(5.00376e-05 1.16922e-07 0)
(5.00373e-05 1.17026e-07 0)
(5.00463e-05 1.17211e-07 0)
(5.00632e-05 1.1469e-07 0)
(5.01145e-05 8.2763e-09 0)
(5.01391e-05 2.17312e-08 0)
(5.0134e-05 3.52662e-08 0)
(5.01294e-05 4.86899e-08 0)
(5.01208e-05 6.19947e-08 0)
(5.01127e-05 7.46798e-08 0)
(5.01015e-05 8.72278e-08 0)
(5.00909e-05 9.85448e-08 0)
(5.00786e-05 1.10092e-07 0)
(5.00668e-05 1.19296e-07 0)
(5.00562e-05 1.29681e-07 0)
(5.00458e-05 1.36233e-07 0)
(5.00408e-05 1.4504e-07 0)
(5.00373e-05 1.4938e-07 0)
(5.00441e-05 1.55595e-07 0)
(5.00608e-05 1.58884e-07 0)
(5.01401e-05 9.31532e-09 0)
(5.01684e-05 2.379e-08 0)
(5.01627e-05 3.86502e-08 0)
(5.01572e-05 5.35068e-08 0)
(5.01474e-05 6.82782e-08 0)
(5.01378e-05 8.2648e-08 0)
(5.01248e-05 9.68886e-08 0)
(5.01121e-05 1.10242e-07 0)
(5.00973e-05 1.23866e-07 0)
(5.0083e-05 1.35514e-07 0)
(5.00693e-05 1.48664e-07 0)
(5.00561e-05 1.58122e-07 0)
(5.00482e-05 1.71012e-07 0)
(5.00415e-05 1.79324e-07 0)
(5.00455e-05 1.91819e-07 0)
(5.00579e-05 2.01743e-07 0)
(5.01696e-05 1.01957e-08 0)
(5.02013e-05 2.52378e-08 0)
(5.0195e-05 4.10396e-08 0)
(5.01887e-05 5.69496e-08 0)
(5.01777e-05 7.27994e-08 0)
(5.01666e-05 8.84875e-08 0)
(5.01518e-05 1.04015e-07 0)
(5.01369e-05 1.19038e-07 0)
(5.01196e-05 1.34237e-07 0)
(5.01026e-05 1.47833e-07 0)
(5.00856e-05 1.6289e-07 0)
(5.00691e-05 1.7411e-07 0)
(5.00578e-05 1.89186e-07 0)
(5.0047e-05 1.98159e-07 0)
(5.00471e-05 2.11837e-07 0)
(5.0053e-05 2.20958e-07 0)
(5.02027e-05 1.0814e-08 0)
(5.02374e-05 2.58218e-08 0)
(5.02305e-05 4.20195e-08 0)
(5.02233e-05 5.84324e-08 0)
(5.02111e-05 7.47978e-08 0)
(5.01986e-05 9.12527e-08 0)
(5.01819e-05 1.07482e-07 0)
(5.01649e-05 1.23631e-07 0)
(5.01448e-05 1.39758e-07 0)
(5.01249e-05 1.54745e-07 0)
(5.01039e-05 1.70864e-07 0)
(5.00836e-05 1.83104e-07 0)
(5.00674e-05 1.99295e-07 0)
(5.00508e-05 2.07316e-07 0)
(5.00459e-05 2.21148e-07 0)
(5.00454e-05 2.2818e-07 0)
(5.0239e-05 1.10621e-08 0)
(5.02758e-05 2.52902e-08 0)
(5.02682e-05 4.11776e-08 0)
(5.02603e-05 5.73737e-08 0)
(5.0247e-05 7.35225e-08 0)
(5.0233e-05 9.00165e-08 0)
(5.02145e-05 1.06197e-07 0)
(5.01953e-05 1.22782e-07 0)
(5.01723e-05 1.39085e-07 0)
(5.01491e-05 1.54876e-07 0)
(5.01236e-05 1.71237e-07 0)
(5.00987e-05 1.84113e-07 0)
(5.00761e-05 2.00582e-07 0)
(5.00525e-05 2.06861e-07 0)
(5.00423e-05 2.21728e-07 0)
(5.00355e-05 2.2554e-07 0)
(5.02775e-05 1.08322e-08 0)
(5.03154e-05 2.34083e-08 0)
(5.03073e-05 3.81295e-08 0)
(5.02985e-05 5.32321e-08 0)
(5.02842e-05 6.82746e-08 0)
(5.02687e-05 8.39063e-08 0)
(5.02486e-05 9.91253e-08 0)
(5.02271e-05 1.15275e-07 0)
(5.02013e-05 1.30875e-07 0)
(5.01744e-05 1.46772e-07 0)
(5.01442e-05 1.62566e-07 0)
(5.0114e-05 1.75985e-07 0)
(5.00833e-05 1.91872e-07 0)
(5.00521e-05 1.97247e-07 0)
(5.00364e-05 2.14467e-07 0)
(5.00195e-05 2.11904e-07 0)
(5.03173e-05 1.00237e-08 0)
(5.0355e-05 1.99741e-08 0)
(5.03462e-05 3.25378e-08 0)
(5.03367e-05 4.55133e-08 0)
(5.03214e-05 5.83827e-08 0)
(5.03045e-05 7.20252e-08 0)
(5.02828e-05 8.51048e-08 0)
(5.02592e-05 9.96049e-08 0)
(5.02306e-05 1.13252e-07 0)
(5.02002e-05 1.28114e-07 0)
(5.0165e-05 1.4235e-07 0)
(5.0129e-05 1.56141e-07 0)
(5.0089e-05 1.70971e-07 0)
(5.00501e-05 1.79145e-07 0)
(5.00255e-05 1.96991e-07 0)
(4.99899e-05 1.80812e-07 0)
(5.0357e-05 8.55043e-09 0)
(5.03929e-05 1.47946e-08 0)
(5.03836e-05 2.40677e-08 0)
(5.03733e-05 3.37016e-08 0)
(5.03569e-05 4.30907e-08 0)
(5.03386e-05 5.33143e-08 0)
(5.03154e-05 6.279e-08 0)
(5.02897e-05 7.41521e-08 0)
(5.02585e-05 8.44132e-08 0)
(5.02245e-05 9.69758e-08 0)
(5.0185e-05 1.0882e-07 0)
(5.01434e-05 1.22422e-07 0)
(5.00955e-05 1.3658e-07 0)
(5.00482e-05 1.48299e-07 0)
(4.99997e-05 1.57165e-07 0)
(4.99322e-05 1.18407e-07 0)
(5.03951e-05 6.33148e-09 0)
(5.04274e-05 7.65081e-09 0)
(5.04174e-05 1.24003e-08 0)
(5.04061e-05 1.74368e-08 0)
(5.03885e-05 2.2099e-08 0)
(5.03685e-05 2.7703e-08 0)
(5.03438e-05 3.25682e-08 0)
(5.03162e-05 3.99415e-08 0)
(5.02831e-05 4.63481e-08 0)
(5.02469e-05 5.64774e-08 0)
(5.02055e-05 6.48183e-08 0)
(5.01605e-05 7.43374e-08 0)
(5.01036e-05 8.19216e-08 0)
(5.00362e-05 8.16436e-08 0)
(4.99461e-05 6.56066e-08 0)
(4.98329e-05 1.93817e-09 0)
(5.04298e-05 3.27293e-09 0)
(5.04561e-05 -1.21041e-09 0)
(5.04454e-05 -1.90434e-09 0)
(5.04331e-05 -2.1321e-09 0)
(5.04145e-05 -2.37147e-09 0)
(5.03935e-05 -1.03872e-09 0)
(5.0369e-05 -6.60462e-10 0)
(5.03419e-05 1.3863e-09 0)
(5.03087e-05 9.55993e-10 0)
(5.02689e-05 3.35209e-09 0)
(5.02189e-05 -1.1385e-09 0)
(5.01621e-05 -8.55672e-09 0)
(5.00877e-05 -2.8347e-08 0)
(4.99905e-05 -5.96652e-08 0)
(4.98549e-05 -1.06842e-07 0)
(4.96925e-05 -1.88585e-07 0)
(5.04588e-05 -5.36389e-10 0)
(5.04798e-05 -1.03071e-08 0)
(5.04693e-05 -1.67695e-08 0)
(5.04577e-05 -2.31102e-08 0)
(5.04395e-05 -2.98377e-08 0)
(5.0417e-05 -3.56085e-08 0)
(5.03879e-05 -4.47807e-08 0)
(5.03542e-05 -5.62846e-08 0)
(5.03136e-05 -7.54961e-08 0)
(5.02637e-05 -9.76917e-08 0)
(5.01988e-05 -1.31837e-07 0)
(5.01204e-05 -1.69993e-07 0)
(5.0019e-05 -2.25157e-07 0)
(4.98933e-05 -2.86443e-07 0)
(4.97226e-05 -3.61443e-07 0)
(4.95201e-05 -4.52357e-07 0)
(5.04823e-05 -4.44761e-09 0)
(5.04979e-05 -2.27906e-08 0)
(5.04848e-05 -3.82022e-08 0)
(5.0469e-05 -5.57462e-08 0)
(5.04457e-05 -7.70116e-08 0)
(5.04156e-05 -1.01799e-07 0)
(5.03756e-05 -1.33771e-07 0)
(5.0327e-05 -1.7108e-07 0)
(5.02694e-05 -2.19501e-07 0)
(5.0201e-05 -2.73764e-07 0)
(5.01179e-05 -3.41197e-07 0)
(5.00187e-05 -4.10973e-07 0)
(4.98954e-05 -4.95905e-07 0)
(4.97463e-05 -5.79246e-07 0)
(4.95511e-05 -6.74458e-07 0)
(4.93217e-05 -7.67495e-07 0)
(5.05012e-05 -9.76005e-09 0)
(5.04862e-05 -4.95208e-08 0)
(5.04665e-05 -8.33611e-08 0)
(5.04405e-05 -1.21767e-07 0)
(5.04043e-05 -1.67005e-07 0)
(5.03591e-05 -2.18968e-07 0)
(5.03037e-05 -2.80166e-07 0)
(5.02382e-05 -3.48026e-07 0)
(5.01629e-05 -4.27065e-07 0)
(5.00763e-05 -5.11194e-07 0)
(4.99763e-05 -6.07142e-07 0)
(4.98597e-05 -7.02248e-07 0)
(4.97206e-05 -8.09083e-07 0)
(4.95558e-05 -9.06504e-07 0)
(4.93482e-05 -1.01221e-06 0)
(4.91071e-05 -1.09873e-06 0)
(5.04918e-05 -2.11097e-08 0)
(5.0412e-05 -9.32617e-08 0)
(5.03845e-05 -1.55312e-07 0)
(5.03469e-05 -2.22889e-07 0)
(5.02968e-05 -2.97966e-07 0)
(5.02359e-05 -3.8e-07 0)
(5.01645e-05 -4.70833e-07 0)
(5.00828e-05 -5.67693e-07 0)
(4.99916e-05 -6.737e-07 0)
(4.98899e-05 -7.82498e-07 0)
(4.97769e-05 -9.00224e-07 0)
(4.96489e-05 -1.01334e-06 0)
(4.95018e-05 -1.13419e-06 0)
(4.9331e-05 -1.23848e-06 0)
(4.91242e-05 -1.34701e-06 0)
(4.88864e-05 -1.42246e-06 0)
(5.04208e-05 -3.97535e-08 0)
(5.0255e-05 -1.49069e-07 0)
(5.0221e-05 -2.45491e-07 0)
(5.01736e-05 -3.4665e-07 0)
(5.0112e-05 -4.53567e-07 0)
(5.00386e-05 -5.65458e-07 0)
(4.99547e-05 -6.83494e-07 0)
(4.98609e-05 -8.05085e-07 0)
(4.9759e-05 -9.32423e-07 0)
(4.96476e-05 -1.05949e-06 0)
(4.95276e-05 -1.19184e-06 0)
(4.93947e-05 -1.31612e-06 0)
(4.92476e-05 -1.44444e-06 0)
(4.90802e-05 -1.55077e-06 0)
(4.88851e-05 -1.65813e-06 0)
(4.86633e-05 -1.72263e-06 0)
(5.0267e-05 -6.36437e-08 0)
(5.00055e-05 -2.08512e-07 0)
(4.99682e-05 -3.40548e-07 0)
(4.99157e-05 -4.75347e-07 0)
(4.98482e-05 -6.12595e-07 0)
(4.97684e-05 -7.51412e-07 0)
(4.96783e-05 -8.92356e-07 0)
(4.9579e-05 -1.03345e-06 0)
(4.94728e-05 -1.17634e-06 0)
(4.93583e-05 -1.3159e-06 0)
(4.92377e-05 -1.45707e-06 0)
(4.91067e-05 -1.5875e-06 0)
(4.89665e-05 -1.71881e-06 0)
(4.88103e-05 -1.82472e-06 0)
(4.86356e-05 -1.92939e-06 0)
(4.84396e-05 -1.98486e-06 0)
(5.00195e-05 -8.91886e-08 0)
(4.96685e-05 -2.6225e-07 0)
(4.96319e-05 -4.26017e-07 0)
(4.95798e-05 -5.90303e-07 0)
(4.9513e-05 -7.53401e-07 0)
(4.94339e-05 -9.14423e-07 0)
(4.9345e-05 -1.07336e-06 0)
(4.92472e-05 -1.229e-06 0)
(4.91433e-05 -1.38262e-06 0)
(4.90323e-05 -1.5303e-06 0)
(4.89172e-05 -1.67632e-06 0)
(4.8794e-05 -1.80985e-06 0)
(4.86665e-05 -1.9417e-06 0)
(4.85276e-05 -2.04653e-06 0)
(4.83799e-05 -2.14855e-06 0)
(4.82176e-05 -2.19779e-06 0)
(4.9683e-05 -1.12355e-07 0)
(4.92616e-05 -3.02698e-07 0)
(4.92291e-05 -4.9024e-07 0)
(4.91822e-05 -6.76554e-07 0)
(4.91218e-05 -8.58774e-07 0)
(4.90497e-05 -1.03605e-06 0)
(4.89682e-05 -1.20783e-06 0)
(4.88782e-05 -1.37363e-06 0)
(4.87825e-05 -1.53427e-06 0)
(4.86803e-05 -1.68711e-06 0)
(4.85756e-05 -1.83562e-06 0)
(4.8465e-05 -1.97081e-06 0)
(4.83547e-05 -2.10222e-06 0)
(4.82378e-05 -2.20649e-06 0)
(4.81218e-05 -2.30679e-06 0)
(4.79989e-05 -2.35324e-06 0)
(4.92749e-05 -1.29833e-07 0)
(4.88103e-05 -3.25161e-07 0)
(4.87838e-05 -5.26019e-07 0)
(4.87452e-05 -7.24875e-07 0)
(4.86949e-05 -9.18127e-07 0)
(4.8634e-05 -1.105e-06 0)
(4.85641e-05 -1.28439e-06 0)
(4.84861e-05 -1.45634e-06 0)
(4.84025e-05 -1.62104e-06 0)
(4.83131e-05 -1.777e-06 0)
(4.82223e-05 -1.92666e-06 0)
(4.81277e-05 -2.06301e-06 0)
(4.80377e-05 -2.19387e-06 0)
(4.7946e-05 -2.29868e-06 0)
(4.78651e-05 -2.39857e-06 0)
(4.77854e-05 -2.44566e-06 0)
(4.88213e-05 -1.39552e-07 0)
(4.83428e-05 -3.28187e-07 0)
(4.83229e-05 -5.31119e-07 0)
(4.82933e-05 -7.32387e-07 0)
(4.82542e-05 -9.28122e-07 0)
(4.82058e-05 -1.11765e-06 0)
(4.81493e-05 -1.29935e-06 0)
(4.80851e-05 -1.47353e-06 0)
(4.80157e-05 -1.63958e-06 0)
(4.7941e-05 -1.79692e-06 0)
(4.78662e-05 -1.94673e-06 0)
(4.77896e-05 -2.08403e-06 0)
(4.77215e-05 -2.21455e-06 0)
(4.76571e-05 -2.32116e-06 0)
(4.76128e-05 -2.42206e-06 0)
(4.7578e-05 -2.47329e-06 0)
(4.83512e-05 -1.40861e-07 0)
(4.78856e-05 -3.13368e-07 0)
(4.78712e-05 -5.07953e-07 0)
(4.78496e-05 -7.02115e-07 0)
(4.78204e-05 -8.92143e-07 0)
(4.77836e-05 -1.07753e-06 0)
(4.77397e-05 -1.25617e-06 0)
(4.7689e-05 -1.42847e-06 0)
(4.76337e-05 -1.59292e-06 0)
(4.75741e-05 -1.74963e-06 0)
(4.75155e-05 -1.89839e-06 0)
(4.74575e-05 -2.03616e-06 0)
(4.74119e-05 -2.1663e-06 0)
(4.73752e-05 -2.2756e-06 0)
(4.73676e-05 -2.37841e-06 0)
(4.73778e-05 -2.43643e-06 0)
(4.78916e-05 -1.34454e-07 0)