/*--------------------------------*- C++ -*----------------------------------*\
| =========                 |                                                 |
| \\      /  F ield         | foam-extend: Open Source CFD                    |
|  \\    /   O peration     | Version:     4.1-20200408                       |
|   \\  /    A nd           | Web:         http://www.foam-extend.org         |
|    \\/     M anipulation  |                                                 |
\*---------------------------------------------------------------------------*/
FoamFile
{
    version     2.0;
    format      ascii;
    class       volVectorField;
    location    "0.0975000";
    object      DU_0;
}
// * * * * * * * * * * * * * * * * * * * * * * * * * * * * * * * * * * * * * //

dimensions      [0 1 0 0 0 0 0];

internalField   nonuniform List<vector> 
1952
(
(5.00041e-05 -7.58195e-10 0)
(5.00042e-05 -1.1872e-09 0)
(5.00044e-05 -1.67745e-09 0)
(5.00046e-05 -2.03394e-09 0)
(5.0005e-05 -2.4897e-09 0)
(5.00054e-05 -2.74444e-09 0)
(5.00059e-05 -3.1238e-09 0)
(5.00064e-05 -3.24414e-09 0)
(5.00072e-05 -3.50678e-09 0)
(5.0008e-05 -3.46195e-09 0)
(5.0009e-05 -3.5764e-09 0)
(5.00102e-05 -3.36016e-09 0)
(5.00116e-05 -3.34433e-09 0)
(5.00132e-05 -3.04702e-09 0)
(5.0015e-05 -3.13671e-09 0)
(5.0004e-05 -3.21654e-10 0)
(5.00043e-05 -4.87112e-10 0)
(5.00045e-05 -7.72848e-10 0)
(5.00047e-05 -1.06178e-09 0)
(5.00049e-05 -1.29315e-09 0)
(5.00053e-05 -1.53416e-09 0)
(5.00057e-05 -1.67792e-09 0)
(5.00062e-05 -1.83973e-09 0)
(5.00068e-05 -1.86737e-09 0)
(5.00076e-05 -1.92477e-09 0)
(5.00085e-05 -1.82194e-09 0)
(5.00095e-05 -1.77387e-09 0)
(5.00107e-05 -1.56776e-09 0)
(5.00121e-05 -1.47388e-09 0)
(5.00136e-05 -1.26424e-09 0)
(5.00153e-05 -1.27254e-09 0)
(5.00043e-05 -2.0862e-10 0)
(5.0005e-05 -2.58846e-10 0)
(5.00051e-05 -4.06425e-10 0)
(5.00054e-05 -5.47654e-10 0)
(5.00056e-05 -6.49326e-10 0)
(5.0006e-05 -7.44204e-10 0)
(5.00064e-05 -7.70403e-10 0)
(5.0007e-05 -7.96636e-10 0)
(5.00076e-05 -7.2839e-10 0)
(5.00084e-05 -6.73276e-10 0)
(5.00092e-05 -5.10701e-10 0)
(5.00102e-05 -3.88805e-10 0)
(5.00112e-05 -1.71948e-10 0)
(5.00124e-05 -5.73944e-11 0)
(5.00136e-05 1.03729e-10 0)
(5.00149e-05 4.00084e-11 0)
(5.0005e-05 -1.11056e-10 0)
(5.00057e-05 -7.26796e-11 0)
(5.00059e-05 -1.06362e-10 0)
(5.00061e-05 -1.31617e-10 0)
(5.00064e-05 -1.26246e-10 0)
(5.00068e-05 -1.12712e-10 0)
(5.00072e-05 -4.68636e-11 0)
(5.00078e-05 1.90223e-11 0)
(5.00084e-05 1.54728e-10 0)
(5.00091e-05 2.74452e-10 0)
(5.00099e-05 4.6768e-10 0)
(5.00108e-05 6.15758e-10 0)
(5.00118e-05 8.18796e-10 0)
(5.00128e-05 9.26392e-10 0)
(5.00139e-05 1.05285e-09 0)
(5.00149e-05 1.01681e-09 0)
(5.00057e-05 -3.14283e-11 0)
(5.00066e-05 7.48804e-11 0)
(5.00068e-05 1.31603e-10 0)
(5.0007e-05 1.95362e-10 0)
(5.00073e-05 2.84736e-10 0)
(5.00077e-05 3.77393e-10 0)
(5.00081e-05 5.13445e-10 0)
(5.00087e-05 6.41334e-10 0)
(5.00092e-05 8.25305e-10 0)
(5.001e-05 9.82799e-10 0)
(5.00107e-05 1.19521e-09 0)
(5.00115e-05 1.35402e-09 0)
(5.00123e-05 1.54803e-09 0)
(5.00132e-05 1.64901e-09 0)
(5.0014e-05 1.75496e-09 0)
(5.00148e-05 1.7227e-09 0)
(5.00066e-05 3.18329e-11 0)
(5.00076e-05 1.87322e-10 0)
(5.00078e-05 3.12624e-10 0)
(5.0008e-05 4.4252e-10 0)
(5.00082e-05 5.94219e-10 0)
(5.00086e-05 7.425e-10 0)
(5.0009e-05 9.27769e-10 0)
(5.00096e-05 1.09494e-09 0)
(5.00101e-05 1.30903e-09 0)
(5.00108e-05 1.48533e-09 0)
(5.00114e-05 1.70528e-09 0)
(5.00122e-05 1.86379e-09 0)
(5.00129e-05 2.04748e-09 0)
(5.00137e-05 2.14308e-09 0)
(5.00143e-05 2.24085e-09 0)
(5.00149e-05 2.22929e-09 0)
(5.00075e-05 8.00814e-11 0)
(5.00086e-05 2.68914e-10 0)
(5.00088e-05 4.43675e-10 0)
(5.0009e-05 6.20399e-10 0)
(5.00092e-05 8.15953e-10 0)
(5.00096e-05 1.0015e-09 0)
(5.001e-05 1.21981e-09 0)
(5.00105e-05 1.4105e-09 0)
(5.0011e-05 1.64293e-09 0)
(5.00116e-05 1.82749e-09 0)
(5.00122e-05 2.05033e-09 0)
(5.00129e-05 2.20584e-09 0)
(5.00135e-05 2.3831e-09 0)
(5.00141e-05 2.47687e-09 0)
(5.00146e-05 2.5734e-09 0)
(5.00151e-05 2.57978e-09 0)
(5.00086e-05 1.15131e-10 0)
(5.00097e-05 3.24211e-10 0)
(5.00098e-05 5.32238e-10 0)
(5.001e-05 7.39725e-10 0)
(5.00103e-05 9.63869e-10 0)
(5.00106e-05 1.17205e-09 0)
(5.0011e-05 1.41053e-09 0)
(5.00114e-05 1.61302e-09 0)
(5.00119e-05 1.85505e-09 0)
(5.00125e-05 2.04086e-09 0)
(5.0013e-05 2.26362e-09 0)
(5.00135e-05 2.41493e-09 0)
(5.00141e-05 2.58868e-09 0)
(5.00146e-05 2.68384e-09 0)
(5.0015e-05 2.785e-09 0)
(5.00153e-05 2.81215e-09 0)
(5.00096e-05 1.38913e-10 0)
(5.00107e-05 3.57632e-10 0)
(5.00108e-05 5.85563e-10 0)
(5.0011e-05 8.10768e-10 0)
(5.00113e-05 1.05135e-09 0)
(5.00116e-05 1.27087e-09 0)
(5.00119e-05 1.52004e-09 0)
(5.00124e-05 1.72606e-09 0)
(5.00128e-05 1.97218e-09 0)
(5.00133e-05 2.15518e-09 0)
(5.00137e-05 2.3771e-09 0)
(5.00142e-05 2.52455e-09 0)
(5.00147e-05 2.69792e-09 0)
(5.00151e-05 2.79691e-09 0)
(5.00154e-05 2.90608e-09 0)
(5.00157e-05 2.95327e-09 0)
(5.00106e-05 1.53312e-10 0)
(5.00117e-05 3.73245e-10 0)
(5.00118e-05 6.10289e-10 0)
(5.0012e-05 8.42766e-10 0)
(5.00122e-05 1.09025e-09 0)
(5.00126e-05 1.31239e-09 0)
(5.00128e-05 1.56521e-09 0)
(5.00133e-05 1.76874e-09 0)
(5.00136e-05 2.01531e-09 0)
(5.00141e-05 2.19292e-09 0)
(5.00145e-05 2.41399e-09 0)
(5.00149e-05 2.55817e-09 0)
(5.00153e-05 2.7337e-09 0)
(5.00156e-05 2.83833e-09 0)
(5.00159e-05 2.95801e-09 0)
(5.0016e-05 3.02505e-09 0)
(5.00117e-05 1.60069e-10 0)
(5.00127e-05 3.74634e-10 0)
(5.00128e-05 6.12231e-10 0)
(5.0013e-05 8.43784e-10 0)
(5.00132e-05 1.09086e-09 0)
(5.00135e-05 1.30898e-09 0)
(5.00137e-05 1.5604e-09 0)
(5.00141e-05 1.75715e-09 0)
(5.00144e-05 2.00197e-09 0)
(5.00149e-05 2.17262e-09 0)
(5.00152e-05 2.39337e-09 0)
(5.00156e-05 2.53495e-09 0)
(5.00159e-05 2.71474e-09 0)
(5.00162e-05 2.82619e-09 0)
(5.00164e-05 2.95786e-09 0)
(5.00165e-05 3.04391e-09 0)
(5.00126e-05 1.6072e-10 0)
(5.00136e-05 3.64824e-10 0)
(5.00137e-05 5.96289e-10 0)
(5.00139e-05 8.20521e-10 0)
(5.00141e-05 1.06164e-09 0)
(5.00144e-05 1.27068e-09 0)
(5.00146e-05 1.51714e-09 0)
(5.0015e-05 1.70393e-09 0)
(5.00152e-05 1.94574e-09 0)
(5.00156e-05 2.10836e-09 0)
(5.00159e-05 2.32953e-09 0)
(5.00162e-05 2.46904e-09 0)
(5.00165e-05 2.65477e-09 0)
(5.00167e-05 2.7738e-09 0)
(5.00169e-05 2.91848e-09 0)
(5.0017e-05 3.02281e-09 0)
(5.00136e-05 1.56561e-10 0)
(5.00145e-05 3.46327e-10 0)
(5.00146e-05 5.66496e-10 0)
(5.00148e-05 7.78511e-10 0)
(5.00149e-05 1.00951e-09 0)
(5.00152e-05 1.20565e-09 0)
(5.00154e-05 1.44463e-09 0)
(5.00158e-05 1.61915e-09 0)
(5.0016e-05 1.85725e-09 0)
(5.00164e-05 2.01111e-09 0)
(5.00166e-05 2.23347e-09 0)
(5.00169e-05 2.37131e-09 0)
(5.00171e-05 2.56429e-09 0)
(5.00173e-05 2.69136e-09 0)
(5.00174e-05 2.84971e-09 0)
(5.00175e-05 2.97157e-09 0)
(5.00145e-05 1.4867e-10 0)
(5.00153e-05 3.21156e-10 0)
(5.00154e-05 5.26096e-10 0)
(5.00156e-05 7.22115e-10 0)
(5.00157e-05 9.39947e-10 0)
(5.0016e-05 1.1202e-09 0)
(5.00162e-05 1.35005e-09 0)
(5.00165e-05 1.51043e-09 0)
(5.00168e-05 1.74461e-09 0)
(5.00171e-05 1.88904e-09 0)
(5.00173e-05 2.11343e-09 0)
(5.00176e-05 2.24978e-09 0)
(5.00178e-05 2.45112e-09 0)
(5.0018e-05 2.58652e-09 0)
(5.0018e-05 2.75907e-09 0)
(5.00181e-05 2.89794e-09 0)
(5.00153e-05 1.37911e-10 0)
(5.00161e-05 2.90952e-10 0)
(5.00162e-05 4.77699e-10 0)
(5.00164e-05 6.54885e-10 0)
(5.00165e-05 8.57302e-10 0)
(5.00168e-05 1.01942e-09 0)
(5.0017e-05 1.239e-09 0)
(5.00173e-05 1.38379e-09 0)
(5.00175e-05 1.61402e-09 0)
(5.00178e-05 1.74847e-09 0)
(5.0018e-05 1.97559e-09 0)
(5.00183e-05 2.11057e-09 0)
(5.00185e-05 2.32116e-09 0)
(5.00186e-05 2.46512e-09 0)
(5.00187e-05 2.65232e-09 0)
(5.00187e-05 2.8079e-09 0)
(5.00161e-05 1.24989e-10 0)
(5.00168e-05 2.57033e-10 0)
(5.00169e-05 4.23422e-10 0)
(5.00171e-05 5.79619e-10 0)
(5.00172e-05 7.65086e-10 0)
(5.00175e-05 9.07223e-10 0)
(5.00177e-05 1.11592e-09 0)
(5.0018e-05 1.24381e-09 0)
(5.00182e-05 1.47033e-09 0)
(5.00185e-05 1.59412e-09 0)
(5.00187e-05 1.82477e-09 0)
(5.00189e-05 1.95829e-09 0)
(5.00191e-05 2.17899e-09 0)
(5.00193e-05 2.33172e-09 0)
(5.00193e-05 2.53409e-09 0)
(5.00193e-05 2.70643e-09 0)
(5.00168e-05 1.1047e-10 0)
(5.00175e-05 2.2055e-10 0)
(5.00175e-05 3.65082e-10 0)
(5.00177e-05 4.98768e-10 0)
(5.00178e-05 6.66266e-10 0)
(5.00181e-05 7.87033e-10 0)
(5.00183e-05 9.84528e-10 0)
(5.00186e-05 1.0944e-09 0)
(5.00189e-05 1.31753e-09 0)
(5.00192e-05 1.43003e-09 0)
(5.00194e-05 1.66487e-09 0)
(5.00196e-05 1.79682e-09 0)
(5.00198e-05 2.02838e-09 0)
(5.00199e-05 2.19015e-09 0)
(5.002e-05 2.40828e-09 0)
(5.002e-05 2.59775e-09 0)
(5.00174e-05 9.48481e-11 0)
(5.0018e-05 1.82556e-10 0)
(5.00181e-05 3.04362e-10 0)
(5.00183e-05 4.14534e-10 0)
(5.00184e-05 5.63598e-10 0)
(5.00187e-05 6.61874e-10 0)
(5.00189e-05 8.48252e-10 0)
(5.00193e-05 9.39033e-10 0)
(5.00195e-05 1.15929e-09 0)
(5.00198e-05 1.25971e-09 0)
(5.00201e-05 1.4995e-09 0)
(5.00203e-05 1.62962e-09 0)
(5.00205e-05 1.87282e-09 0)
(5.00206e-05 2.04396e-09 0)
(5.00207e-05 2.27861e-09 0)
(5.00207e-05 2.48596e-09 0)
(5.0018e-05 7.85765e-11 0)
(5.00185e-05 1.44177e-10 0)
(5.00186e-05 2.43041e-10 0)
(5.00188e-05 3.29295e-10 0)
(5.00189e-05 4.59972e-10 0)
(5.00193e-05 5.35037e-10 0)
(5.00195e-05 7.10674e-10 0)
(5.00198e-05 7.8146e-10 0)
(5.00201e-05 9.99446e-10 0)
(5.00204e-05 1.08702e-09 0)
(5.00207e-05 1.33246e-09 0)
(5.0021e-05 1.46046e-09 0)
(5.00212e-05 1.71604e-09 0)
(5.00214e-05 1.89698e-09 0)
(5.00215e-05 2.14901e-09 0)
(5.00215e-05 2.37537e-09 0)
(5.00185e-05 6.21378e-11 0)
(5.00189e-05 1.06703e-10 0)
(5.0019e-05 1.83175e-10 0)
(5.00193e-05 2.4576e-10 0)
(5.00194e-05 3.58764e-10 0)
(5.00198e-05 4.10267e-10 0)
(5.002e-05 5.76027e-10 0)
(5.00204e-05 6.25983e-10 0)
(5.00207e-05 8.42579e-10 0)
(5.0021e-05 9.1641e-10 0)
(5.00214e-05 1.16829e-09 0)
(5.00217e-05 1.29374e-09 0)
(5.0022e-05 1.56249e-09 0)
(5.00221e-05 1.7537e-09 0)
(5.00223e-05 2.02411e-09 0)
(5.00223e-05 2.27102e-09 0)
(5.00189e-05 4.60857e-11 0)
(5.00193e-05 7.17706e-11 0)
(5.00194e-05 1.27371e-10 0)
(5.00196e-05 1.67406e-10 0)
(5.00198e-05 2.64247e-10 0)
(5.00202e-05 2.92435e-10 0)
(5.00204e-05 4.49683e-10 0)
(5.00209e-05 4.78282e-10 0)
(5.00212e-05 6.94561e-10 0)
(5.00216e-05 7.53806e-10 0)
(5.0022e-05 1.01291e-09 0)
(5.00223e-05 1.13533e-09 0)
(5.00227e-05 1.41796e-09 0)
(5.00229e-05 1.61997e-09 0)
(5.00231e-05 1.90986e-09 0)
(5.00231e-05 2.17918e-09 0)
(5.00192e-05 3.11234e-11 0)
(5.00195e-05 4.15096e-11 0)
(5.00196e-05 7.90217e-11 0)
(5.00199e-05 9.87535e-11 0)
(5.00201e-05 1.82031e-10 0)
(5.00205e-05 1.87886e-10 0)
(5.00208e-05 3.38783e-10 0)
(5.00213e-05 3.4577e-10 0)
(5.00217e-05 5.63265e-10 0)
(5.00222e-05 6.06992e-10 0)
(5.00226e-05 8.74251e-10 0)
(5.0023e-05 9.92953e-10 0)
(5.00234e-05 1.29015e-09 0)
(5.00237e-05 1.50342e-09 0)
(5.0024e-05 1.8139e-09 0)
(5.00241e-05 2.10783e-09 0)
(5.00195e-05 1.81637e-11 0)
(5.00197e-05 1.87361e-11 0)
(5.00198e-05 4.2628e-11 0)
(5.00201e-05 4.58268e-11 0)
(5.00203e-05 1.19556e-10 0)
(5.00208e-05 1.05165e-10 0)
(5.00211e-05 2.52807e-10 0)
(5.00217e-05 2.38545e-10 0)
(5.00222e-05 4.59206e-10 0)
(5.00227e-05 4.86642e-10 0)
(5.00233e-05 7.63011e-10 0)
(5.00237e-05 8.77164e-10 0)
(5.00242e-05 1.18945e-09 0)
(5.00246e-05 1.41435e-09 0)
(5.00249e-05 1.74645e-09 0)
(5.0025e-05 2.06743e-09 0)
(5.00196e-05 8.41584e-12 0)
(5.00198e-05 7.18427e-12 0)
(5.00199e-05 2.415e-11 0)
(5.00203e-05 1.66248e-11 0)
(5.00205e-05 8.67344e-11 0)
(5.00211e-05 5.56245e-11 0)
(5.00214e-05 2.04496e-10 0)
(5.00221e-05 1.70037e-10 0)
(5.00226e-05 3.96601e-10 0)
(5.00232e-05 4.06972e-10 0)
(5.00239e-05 6.93624e-10 0)
(5.00244e-05 8.02023e-10 0)
(5.0025e-05 1.12976e-09 0)
(5.00254e-05 1.3663e-09 0)
(5.00258e-05 1.72084e-09 0)
(5.00261e-05 2.07144e-09 0)
(5.00197e-05 3.48093e-12 0)
(5.00198e-05 1.17164e-11 0)
(5.002e-05 3.13778e-11 0)
(5.00204e-05 2.16093e-11 0)
(5.00206e-05 9.65174e-11 0)
(5.00213e-05 5.42256e-11 0)
(5.00216e-05 2.10511e-10 0)
(5.00224e-05 1.58076e-10 0)
(5.0023e-05 3.94102e-10 0)
(5.00237e-05 3.86945e-10 0)
(5.00244e-05 6.85128e-10 0)
(5.00251e-05 7.86266e-10 0)
(5.00258e-05 1.12942e-09 0)
(5.00264e-05 1.37722e-09 0)
(5.00269e-05 1.75461e-09 0)
(5.00272e-05 2.13738e-09 0)
(5.00198e-05 5.44696e-12 0)
(5.00198e-05 3.86732e-11 0)
(5.002e-05 7.44439e-11 0)
(5.00204e-05 7.4456e-11 0)
(5.00207e-05 1.65828e-10 0)
(5.00214e-05 1.20546e-10 0)
(5.00218e-05 2.92761e-10 0)
(5.00226e-05 2.26021e-10 0)
(5.00233e-05 4.76356e-10 0)
(5.00241e-05 4.51427e-10 0)
(5.0025e-05 7.62666e-10 0)
(5.00258e-05 8.54411e-10 0)
(5.00267e-05 1.21246e-09 0)
(5.00273e-05 1.47034e-09 0)
(5.0028e-05 1.8703e-09 0)
(5.00284e-05 2.28757e-09 0)
(5.00197e-05 1.70329e-11 0)
(5.00197e-05 9.60928e-11 0)
(5.00199e-05 1.66252e-10 0)
(5.00204e-05 1.92553e-10 0)
(5.00207e-05 3.16247e-10 0)
(5.00214e-05 2.79622e-10 0)
(5.00219e-05 4.79254e-10 0)
(5.00228e-05 4.03931e-10 0)
(5.00236e-05 6.74976e-10 0)
(5.00245e-05 6.32547e-10 0)
(5.00256e-05 9.58617e-10 0)
(5.00265e-05 1.03816e-09 0)
(5.00275e-05 1.40991e-09 0)
(5.00283e-05 1.67563e-09 0)
(5.00292e-05 2.09691e-09 0)
(5.00297e-05 2.55049e-09 0)
(5.00197e-05 4.16908e-11 0)
(5.00197e-05 1.94185e-10 0)
(5.00198e-05 3.23145e-10 0)
(5.00204e-05 3.9807e-10 0)
(5.00206e-05 5.752e-10 0)
(5.00215e-05 5.6348e-10 0)
(5.0022e-05 8.05779e-10 0)
(5.0023e-05 7.3037e-10 0)
(5.00239e-05 1.03057e-09 0)
(5.00249e-05 9.7162e-10 0)
(5.00261e-05 1.31464e-09 0)
(5.00271e-05 1.37824e-09 0)
(5.00284e-05 1.76144e-09 0)
(5.00294e-05 2.03122e-09 0)
(5.00304e-05 2.47107e-09 0)
(5.00312e-05 2.96185e-09 0)
(5.00196e-05 8.37996e-11 0)
(5.00197e-05 3.4554e-10 0)
(5.00198e-05 5.65376e-10 0)
(5.00204e-05 7.18418e-10 0)
(5.00206e-05 9.7683e-10 0)
(5.00215e-05 1.01193e-09 0)
(5.00221e-05 1.31714e-09 0)
(5.00232e-05 1.2536e-09 0)
(5.00241e-05 1.59426e-09 0)
(5.00253e-05 1.52065e-09 0)
(5.00267e-05 1.8834e-09 0)
(5.00278e-05 1.92603e-09 0)
(5.00293e-05 2.31731e-09 0)
(5.00305e-05 2.58524e-09 0)
(5.00318e-05 3.03896e-09 0)
(5.00328e-05 3.56649e-09 0)
(5.00195e-05 1.48766e-10 0)
(5.00197e-05 5.65655e-10 0)
(5.00198e-05 9.17815e-10 0)
(5.00204e-05 1.18753e-09 0)
(5.00207e-05 1.56319e-09 0)
(5.00216e-05 1.67458e-09 0)
(5.00222e-05 2.06888e-09 0)
(5.00233e-05 2.03418e-09 0)
(5.00244e-05 2.4299e-09 0)
(5.00256e-05 2.34522e-09 0)
(5.00272e-05 2.73109e-09 0)
(5.00285e-05 2.74637e-09 0)
(5.00303e-05 3.14062e-09 0)
(5.00317e-05 3.39796e-09 0)
(5.00332e-05 3.85804e-09 0)
(5.00345e-05 4.41976e-09 0)
(5.00196e-05 2.43237e-10 0)
(5.002e-05 8.73047e-10 0)
(5.002e-05 1.41033e-09 0)
(5.00206e-05 1.84611e-09 0)
(5.00208e-05 2.38525e-09 0)
(5.00218e-05 2.61136e-09 0)
(5.00223e-05 3.12898e-09 0)
(5.00235e-05 3.14595e-09 0)
(5.00246e-05 3.61644e-09 0)
(5.00259e-05 3.52609e-09 0)
(5.00277e-05 3.9401e-09 0)
(5.00292e-05 3.91972e-09 0)
(5.00312e-05 4.31012e-09 0)
(5.00329e-05 4.54428e-09 0)
(5.00348e-05 4.99967e-09 0)
(5.00364e-05 5.59017e-09 0)
(5.00198e-05 3.75164e-10 0)
(5.00205e-05 1.28965e-09 0)
(5.00205e-05 2.07829e-09 0)
(5.00211e-05 2.74274e-09 0)
(5.00211e-05 3.5036e-09 0)
(5.00221e-05 3.89462e-09 0)
(5.00226e-05 4.57912e-09 0)
(5.00237e-05 4.67922e-09 0)
(5.00249e-05 5.24995e-09 0)
(5.00263e-05 5.16314e-09 0)
(5.00281e-05 5.61199e-09 0)
(5.00298e-05 5.54602e-09 0)
(5.00322e-05 5.92335e-09 0)
(5.00341e-05 6.11687e-09 0)
(5.00365e-05 6.55169e-09 0)
(5.00385e-05 7.16147e-09 0)
(5.00204e-05 5.53958e-10 0)
(5.00214e-05 1.84058e-09 0)
(5.00213e-05 2.96235e-09 0)
(5.00219e-05 3.93346e-09 0)
(5.00218e-05 4.98895e-09 0)
(5.00227e-05 5.60878e-09 0)
(5.0023e-05 6.51624e-09 0)
(5.00241e-05 6.74108e-09 0)
(5.00252e-05 7.44648e-09 0)
(5.00266e-05 7.37692e-09 0)
(5.00286e-05 7.87121e-09 0)
(5.00304e-05 7.74772e-09 0)
(5.00331e-05 8.10085e-09 0)
(5.00354e-05 8.22996e-09 0)
(5.00382e-05 8.62226e-09 0)
(5.00407e-05 9.2365e-09 0)
(5.00213e-05 7.90389e-10 0)
(5.0023e-05 2.55393e-09 0)
(5.00227e-05 4.10815e-09 0)
(5.00232e-05 5.48165e-09 0)
(5.00229e-05 6.92141e-09 0)
(5.00236e-05 7.85118e-09 0)
(5.00237e-05 9.05215e-09 0)
(5.00247e-05 9.45784e-09 0)
(5.00257e-05 1.03431e-08 0)
(5.0027e-05 1.03128e-08 0)
(5.00291e-05 1.08684e-08 0)
(5.0031e-05 1.06749e-08 0)
(5.00341e-05 1.09909e-08 0)
(5.00367e-05 1.10241e-08 0)
(5.00401e-05 1.13444e-08 0)
(5.00432e-05 1.19409e-08 0)
(5.00229e-05 1.09651e-09 0)
(5.00253e-05 3.45964e-09 0)
(5.00248e-05 5.56457e-09 0)
(5.00252e-05 7.45591e-09 0)
(5.00246e-05 9.38881e-09 0)
(5.00251e-05 1.07295e-08 0)
(5.00249e-05 1.23132e-08 0)
(5.00256e-05 1.29735e-08 0)
(5.00264e-05 1.40997e-08 0)
(5.00275e-05 1.41421e-08 0)
(5.00296e-05 1.47845e-08 0)
(5.00316e-05 1.45094e-08 0)
(5.00349e-05 1.47754e-08 0)
(5.0038e-05 1.4672e-08 0)
(5.0042e-05 1.48819e-08 0)
(5.00458e-05 1.54287e-08 0)
(5.00253e-05 1.48516e-09 0)
(5.00287e-05 4.58798e-09 0)
(5.0028e-05 7.38141e-09 0)
(5.00281e-05 9.92684e-09 0)
(5.00271e-05 1.24827e-08 0)
(5.00273e-05 1.43586e-08 0)
(5.00266e-05 1.64359e-08 0)
(5.0027e-05 1.74481e-08 0)
(5.00274e-05 1.88968e-08 0)
(5.00282e-05 1.90636e-08 0)
(5.00302e-05 1.98334e-08 0)
(5.00321e-05 1.94704e-08 0)
(5.00357e-05 1.96767e-08 0)
(5.00392e-05 1.93851e-08 0)
(5.00439e-05 1.9435e-08 0)
(5.00486e-05 1.98858e-08 0)
(5.00287e-05 1.9693e-09 0)
(5.00335e-05 5.96643e-09 0)
(5.00325e-05 9.60428e-09 0)
(5.00323e-05 1.29609e-08 0)
(5.00308e-05 1.6291e-08 0)
(5.00305e-05 1.88521e-08 0)
(5.00292e-05 2.15597e-08 0)
(5.0029e-05 2.30507e-08 0)
(5.00288e-05 2.49318e-08 0)
(5.00292e-05 2.5302e-08 0)
(5.00309e-05 2.62642e-08 0)
(5.00325e-05 2.58203e-08 0)
(5.00364e-05 2.59674e-08 0)
(5.00402e-05 2.54267e-08 0)
(5.00457e-05 2.52546e-08 0)
(5.00515e-05 2.5543e-08 0)
(5.00336e-05 2.56067e-09 0)
(5.00401e-05 7.61566e-09 0)
(5.00387e-05 1.22686e-08 0)
(5.00381e-05 1.66114e-08 0)
(5.00359e-05 2.08877e-08 0)
(5.0035e-05 2.43105e-08 0)
(5.00329e-05 2.7814e-08 0)
(5.00319e-05 2.99471e-08 0)
(5.00309e-05 3.24078e-08 0)
(5.00305e-05 3.3101e-08 0)
(5.00317e-05 3.43605e-08 0)
(5.0033e-05 3.38728e-08 0)
(5.00369e-05 3.39885e-08 0)
(5.0041e-05 3.31369e-08 0)
(5.00474e-05 3.26777e-08 0)
(5.00544e-05 3.2715e-08 0)
(5.00402e-05 3.26811e-09 0)
(5.00488e-05 9.54351e-09 0)
(5.00469e-05 1.53892e-08 0)
(5.00459e-05 2.09052e-08 0)
(5.00429e-05 2.63149e-08 0)
(5.00412e-05 3.08015e-08 0)
(5.0038e-05 3.52958e-08 0)
(5.0036e-05 3.8277e-08 0)
(5.0034e-05 4.15106e-08 0)
(5.00325e-05 4.27033e-08 0)
(5.00329e-05 4.44246e-08 0)
(5.00334e-05 4.39846e-08 0)
(5.00372e-05 4.41507e-08 0)
(5.00414e-05 4.29481e-08 0)
(5.00489e-05 4.21581e-08 0)
(5.00574e-05 4.18349e-08 0)
(5.0049e-05 4.09486e-09 0)
(5.00601e-05 1.17375e-08 0)
(5.00577e-05 1.89485e-08 0)
(5.00561e-05 2.58253e-08 0)
(5.00522e-05 3.25618e-08 0)
(5.00494e-05 3.83316e-08 0)
(5.00451e-05 4.4038e-08 0)
(5.00418e-05 4.81171e-08 0)
(5.00383e-05 5.23714e-08 0)
(5.00355e-05 5.43131e-08 0)
(5.00346e-05 5.67414e-08 0)
(5.0034e-05 5.65217e-08 0)
(5.00374e-05 5.68962e-08 0)
(5.00414e-05 5.53355e-08 0)
(5.00498e-05 5.41902e-08 0)
(5.006e-05 5.33366e-08 0)
(5.00604e-05 5.03548e-09 0)
(5.00744e-05 1.41562e-08 0)
(5.00714e-05 2.2882e-08 0)
(5.00691e-05 3.12902e-08 0)
(5.00642e-05 3.95359e-08 0)
(5.00603e-05 4.68129e-08 0)
(5.00544e-05 5.39671e-08 0)
(5.00496e-05 5.94367e-08 0)
(5.00443e-05 6.50173e-08 0)
(5.00397e-05 6.80519e-08 0)
(5.00371e-05 7.15471e-08 0)
(5.00349e-05 7.18521e-08 0)
(5.00373e-05 7.27206e-08 0)
(5.00408e-05 7.08564e-08 0)
(5.00501e-05 6.92956e-08 0)
(5.00623e-05 6.75463e-08 0)
(5.00749e-05 6.07204e-09 0)
(5.00921e-05 1.67197e-08 0)
(5.00885e-05 2.70621e-08 0)
(5.00855e-05 3.71292e-08 0)
(5.00793e-05 4.70303e-08 0)
(5.00741e-05 5.60155e-08 0)
(5.00666e-05 6.4845e-08 0)
(5.006e-05 7.20215e-08 0)
(5.00526e-05 7.92885e-08 0)
(5.00458e-05 8.38798e-08 0)
(5.00409e-05 8.89871e-08 0)
(5.00365e-05 9.03979e-08 0)
(5.00371e-05 9.24212e-08 0)
(5.00393e-05 9.0712e-08 0)
(5.00491e-05 8.89909e-08 0)
(5.00636e-05 8.60114e-08 0)
(5.00928e-05 7.1702e-09 0)
(5.01136e-05 1.93024e-08 0)
(5.01093e-05 3.12848e-08 0)
(5.01055e-05 4.30621e-08 0)
(5.00981e-05 5.46895e-08 0)
(5.00915e-05 6.55195e-08 0)
(5.00822e-05 7.61924e-08 0)
(5.00735e-05 8.53646e-08 0)
(5.00638e-05 9.46743e-08 0)
(5.00546e-05 1.0137e-07 0)
(5.00469e-05 1.08822e-07 0)
(5.00396e-05 1.12325e-07 0)
(5.00376e-05 1.16919e-07 0)
(5.00373e-05 1.17024e-07 0)
(5.00463e-05 1.17209e-07 0)
(5.00632e-05 1.14688e-07 0)
(5.01145e-05 8.27601e-09 0)
(5.0139e-05 2.17307e-08 0)
(5.0134e-05 3.52655e-08 0)
(5.01294e-05 4.86887e-08 0)
(5.01208e-05 6.19933e-08 0)
(5.01127e-05 7.46777e-08 0)
(5.01015e-05 8.72255e-08 0)
(5.00909e-05 9.85418e-08 0)
(5.00786e-05 1.10089e-07 0)
(5.00668e-05 1.19293e-07 0)
(5.00562e-05 1.29678e-07 0)
(5.00458e-05 1.36229e-07 0)
(5.00408e-05 1.45037e-07 0)
(5.00372e-05 1.49377e-07 0)
(5.00441e-05 1.55593e-07 0)
(5.00608e-05 1.58883e-07 0)
(5.01401e-05 9.31512e-09 0)
(5.01684e-05 2.37898e-08 0)
(5.01627e-05 3.86498e-08 0)
(5.01572e-05 5.35063e-08 0)
(5.01474e-05 6.82774e-08 0)
(5.01378e-05 8.26472e-08 0)
(5.01248e-05 9.68873e-08 0)
(5.01121e-05 1.10241e-07 0)
(5.00973e-05 1.23864e-07 0)
(5.0083e-05 1.35512e-07 0)
(5.00693e-05 1.48662e-07 0)
(5.00561e-05 1.58119e-07 0)
(5.00482e-05 1.71009e-07 0)
(5.00415e-05 1.79322e-07 0)
(5.00455e-05 1.91818e-07 0)
(5.00579e-05 2.01742e-07 0)
(5.01696e-05 1.01956e-08 0)
(5.02013e-05 2.52381e-08 0)
(5.0195e-05 4.104e-08 0)
(5.01886e-05 5.69502e-08 0)
(5.01776e-05 7.28001e-08 0)
(5.01666e-05 8.84878e-08 0)
(5.01517e-05 1.04015e-07 0)
(5.01369e-05 1.19037e-07 0)
(5.01196e-05 1.34236e-07 0)
(5.01026e-05 1.47832e-07 0)
(5.00856e-05 1.62889e-07 0)
(5.00691e-05 1.74109e-07 0)
(5.00578e-05 1.89185e-07 0)
(5.0047e-05 1.98158e-07 0)
(5.00471e-05 2.11837e-07 0)
(5.0053e-05 2.20959e-07 0)
(5.02027e-05 1.08141e-08 0)
(5.02374e-05 2.58227e-08 0)
(5.02304e-05 4.2021e-08 0)
(5.02233e-05 5.84343e-08 0)
(5.02111e-05 7.48e-08 0)
(5.01986e-05 9.12554e-08 0)
(5.01819e-05 1.07484e-07 0)
(5.01649e-05 1.23634e-07 0)
(5.01448e-05 1.3976e-07 0)
(5.01249e-05 1.54748e-07 0)
(5.01039e-05 1.70866e-07 0)
(5.00836e-05 1.83106e-07 0)
(5.00674e-05 1.99297e-07 0)
(5.00508e-05 2.07317e-07 0)
(5.00459e-05 2.2115e-07 0)
(5.00454e-05 2.28183e-07 0)
(5.0239e-05 1.10625e-08 0)
(5.02758e-05 2.52919e-08 0)
(5.02682e-05 4.11802e-08 0)
(5.02602e-05 5.73774e-08 0)
(5.0247e-05 7.35272e-08 0)
(5.02329e-05 9.00217e-08 0)
(5.02145e-05 1.06203e-07 0)
(5.01952e-05 1.22788e-07 0)
(5.01723e-05 1.39092e-07 0)
(5.0149e-05 1.54882e-07 0)
(5.01236e-05 1.71243e-07 0)
(5.00987e-05 1.84118e-07 0)
(5.00761e-05 2.00586e-07 0)
(5.00525e-05 2.06865e-07 0)
(5.00423e-05 2.21733e-07 0)
(5.00355e-05 2.25547e-07 0)
(5.02775e-05 1.08329e-08 0)
(5.03154e-05 2.34112e-08 0)
(5.03072e-05 3.81343e-08 0)
(5.02985e-05 5.32384e-08 0)
(5.02842e-05 6.82824e-08 0)
(5.02687e-05 8.39155e-08 0)
(5.02485e-05 9.91353e-08 0)
(5.0227e-05 1.15286e-07 0)
(5.02012e-05 1.30887e-07 0)
(5.01744e-05 1.46784e-07 0)
(5.01441e-05 1.62578e-07 0)
(5.0114e-05 1.75997e-07 0)
(5.00833e-05 1.91884e-07 0)
(5.00521e-05 1.97259e-07 0)
(5.00364e-05 2.14478e-07 0)
(5.00195e-05 2.11919e-07 0)
(5.03173e-05 1.0025e-08 0)
(5.03549e-05 1.99776e-08 0)
(5.03462e-05 3.25434e-08 0)
(5.03367e-05 4.55218e-08 0)
(5.03214e-05 5.83933e-08 0)
(5.03045e-05 7.20381e-08 0)
(5.02828e-05 8.512e-08 0)
(5.02591e-05 9.96214e-08 0)
(5.02306e-05 1.13271e-07 0)
(5.02001e-05 1.28133e-07 0)
(5.0165e-05 1.4237e-07 0)
(5.0129e-05 1.56161e-07 0)
(5.0089e-05 1.70991e-07 0)
(5.00501e-05 1.79167e-07 0)
(5.00255e-05 1.97015e-07 0)
(4.99899e-05 1.80847e-07 0)
(5.0357e-05 8.55192e-09 0)
(5.03928e-05 1.48003e-08 0)
(5.03835e-05 2.40771e-08 0)
(5.03732e-05 3.3714e-08 0)
(5.03569e-05 4.31068e-08 0)
(5.03386e-05 5.33331e-08 0)
(5.03153e-05 6.28109e-08 0)
(5.02896e-05 7.4176e-08 0)
(5.02585e-05 8.44391e-08 0)
(5.02245e-05 9.70058e-08 0)
(5.0185e-05 1.08852e-07 0)
(5.01434e-05 1.22459e-07 0)
(5.00955e-05 1.36619e-07 0)
(5.00482e-05 1.48338e-07 0)
(4.99997e-05 1.57213e-07 0)
(4.99322e-05 1.18477e-07 0)
(5.03951e-05 6.33391e-09 0)
(5.04274e-05 7.65673e-09 0)
(5.04174e-05 1.24098e-08 0)
(5.04061e-05 1.74508e-08 0)
(5.03885e-05 2.21173e-08 0)
(5.03685e-05 2.77267e-08 0)
(5.03437e-05 3.25973e-08 0)
(5.03162e-05 3.9975e-08 0)
(5.02831e-05 4.63888e-08 0)
(5.02469e-05 5.65216e-08 0)
(5.02054e-05 6.48653e-08 0)
(5.01605e-05 7.43881e-08 0)
(5.01036e-05 8.19807e-08 0)
(5.00362e-05 8.17192e-08 0)
(4.99462e-05 6.57009e-08 0)
(4.9833e-05 2.06224e-09 0)
(5.04298e-05 3.27545e-09 0)
(5.04561e-05 -1.20139e-09 0)
(5.04453e-05 -1.88926e-09 0)
(5.04331e-05 -2.11196e-09 0)
(5.04145e-05 -2.34358e-09 0)
(5.03935e-05 -1.00621e-09 0)
(5.0369e-05 -6.23276e-10 0)
(5.03419e-05 1.42885e-09 0)
(5.03087e-05 1.00225e-09 0)
(5.02689e-05 3.40797e-09 0)
(5.02189e-05 -1.06369e-09 0)
(5.01621e-05 -8.46674e-09 0)
(5.00877e-05 -2.82351e-08 0)
(4.99905e-05 -5.95252e-08 0)
(4.9855e-05 -1.06671e-07 0)
(4.96927e-05 -1.88381e-07 0)
(5.04588e-05 -5.32508e-10 0)
(5.04798e-05 -1.02967e-08 0)
(5.04693e-05 -1.6753e-08 0)
(5.04577e-05 -2.30879e-08 0)
(5.04395e-05 -2.98116e-08 0)
(5.0417e-05 -3.55725e-08 0)
(5.03879e-05 -4.47284e-08 0)
(5.03542e-05 -5.62161e-08 0)
(5.03136e-05 -7.54122e-08 0)
(5.02638e-05 -9.75854e-08 0)
(5.01988e-05 -1.31704e-07 0)
(5.01204e-05 -1.69828e-07 0)
(5.00191e-05 -2.2496e-07 0)
(4.98934e-05 -2.86213e-07 0)
(4.97228e-05 -3.61181e-07 0)
(4.95203e-05 -4.52061e-07 0)
(5.04823e-05 -4.44316e-09 0)
(5.04979e-05 -2.2775e-08 0)
(5.04848e-05 -3.81763e-08 0)
(5.0469e-05 -5.57079e-08 0)
(5.04457e-05 -7.69612e-08 0)
(5.04156e-05 -1.0173e-07 0)
(5.03756e-05 -1.33679e-07 0)
(5.03271e-05 -1.70962e-07 0)
(5.02695e-05 -2.19353e-07 0)
(5.02011e-05 -2.73584e-07 0)
(5.0118e-05 -3.40986e-07 0)
(5.00188e-05 -4.10728e-07 0)
(4.98956e-05 -4.95625e-07 0)
(4.97465e-05 -5.78931e-07 0)
(4.95513e-05 -6.7411e-07 0)
(4.93219e-05 -7.67116e-07 0)
(5.05012e-05 -9.75347e-09 0)
(5.04862e-05 -4.94932e-08 0)
(5.04665e-05 -8.33142e-08 0)
(5.04405e-05 -1.21698e-07 0)
(5.04044e-05 -1.66911e-07 0)
(5.03592e-05 -2.18847e-07 0)
(5.03037e-05 -2.80018e-07 0)
(5.02383e-05 -3.47846e-07 0)
(5.0163e-05 -4.2685e-07 0)
(5.00764e-05 -5.10943e-07 0)
(4.99764e-05 -6.06854e-07 0)
(4.98599e-05 -7.01922e-07 0)
(4.97208e-05 -8.0872e-07 0)
(4.9556e-05 -9.06104e-07 0)
(4.93485e-05 -1.01178e-06 0)
(4.91075e-05 -1.09827e-06 0)
(5.04919e-05 -2.1098e-08 0)
(5.04121e-05 -9.32181e-08 0)
(5.03846e-05 -1.5524e-07 0)
(5.0347e-05 -2.22786e-07 0)
(5.02969e-05 -2.97829e-07 0)
(5.02361e-05 -3.79829e-07 0)
(5.01647e-05 -4.70626e-07 0)
(5.00829e-05 -5.67447e-07 0)
(4.99918e-05 -6.73414e-07 0)
(4.98901e-05 -7.82172e-07 0)
(4.97772e-05 -8.99857e-07 0)
(4.96491e-05 -1.01293e-06 0)
(4.9502e-05 -1.13374e-06 0)
(4.93313e-05 -1.238e-06 0)
(4.91245e-05 -1.34649e-06 0)
(4.88869e-05 -1.42192e-06 0)
(5.04209e-05 -3.9735e-08 0)
(5.02552e-05 -1.4901e-07 0)
(5.02212e-05 -2.45394e-07 0)
(5.01738e-05 -3.46513e-07 0)
(5.01122e-05 -4.53389e-07 0)
(5.00388e-05 -5.6524e-07 0)
(4.99549e-05 -6.83235e-07 0)
(4.98612e-05 -8.04784e-07 0)
(4.97593e-05 -9.32079e-07 0)
(4.96479e-05 -1.0591e-06 0)
(4.95279e-05 -1.19141e-06 0)
(4.93951e-05 -1.31565e-06 0)
(4.92479e-05 -1.44393e-06 0)
(4.90806e-05 -1.55023e-06 0)
(4.88855e-05 -1.65755e-06 0)
(4.86637e-05 -1.72204e-06 0)
(5.02672e-05 -6.36183e-08 0)
(5.00058e-05 -2.08439e-07 0)
(4.99685e-05 -3.40429e-07 0)
(4.9916e-05 -4.75182e-07 0)
(4.98485e-05 -6.12383e-07 0)
(4.97687e-05 -7.51155e-07 0)
(4.96787e-05 -8.92054e-07 0)
(4.95794e-05 -1.0331e-06 0)
(4.94731e-05 -1.17595e-06 0)
(4.93587e-05 -1.31546e-06 0)
(4.92381e-05 -1.4566e-06 0)
(4.91072e-05 -1.58698e-06 0)
(4.8967e-05 -1.71825e-06 0)
(4.88108e-05 -1.82413e-06 0)
(4.86361e-05 -1.92878e-06 0)
(4.84401e-05 -1.98422e-06 0)
(5.00198e-05 -8.91573e-08 0)
(4.96689e-05 -2.62167e-07 0)
(4.96323e-05 -4.25882e-07 0)
(4.95802e-05 -5.90117e-07 0)
(4.95134e-05 -7.53165e-07 0)
(4.94344e-05 -9.14138e-07 0)
(4.93454e-05 -1.07303e-06 0)
(4.92477e-05 -1.22862e-06 0)
(4.91438e-05 -1.3822e-06 0)
(4.90328e-05 -1.52983e-06 0)
(4.89177e-05 -1.67581e-06 0)
(4.87945e-05 -1.8093e-06 0)
(4.8667e-05 -1.94111e-06 0)
(4.85282e-05 -2.04591e-06 0)
(4.83804e-05 -2.1479e-06 0)
(4.82181e-05 -2.19713e-06 0)
(4.96834e-05 -1.1232e-07 0)
(4.92621e-05 -3.02611e-07 0)
(4.92296e-05 -4.90099e-07 0)
(4.91827e-05 -6.76359e-07 0)
(4.91223e-05 -8.58527e-07 0)
(4.90503e-05 -1.03576e-06 0)
(4.89688e-05 -1.20749e-06 0)
(4.88788e-05 -1.37324e-06 0)
(4.87831e-05 -1.53383e-06 0)
(4.86809e-05 -1.68663e-06 0)
(4.85762e-05 -1.8351e-06 0)
(4.84656e-05 -1.97025e-06 0)
(4.83553e-05 -2.10163e-06 0)
(4.82384e-05 -2.20586e-06 0)
(4.81224e-05 -2.30615e-06 0)
(4.79995e-05 -2.35258e-06 0)
(4.92755e-05 -1.29795e-07 0)
(4.88109e-05 -3.25076e-07 0)
(4.87845e-05 -5.25881e-07 0)
(4.87459e-05 -7.24685e-07 0)
(4.86955e-05 -9.17886e-07 0)
(4.86346e-05 -1.10471e-06 0)
(4.85648e-05 -1.28405e-06 0)
(4.84868e-05 -1.45596e-06 0)
(4.84032e-05 -1.62062e-06 0)
(4.83137e-05 -1.77654e-06 0)
(4.8223e-05 -1.92616e-06 0)
(4.81284e-05 -2.06247e-06 0)
(4.80384e-05 -2.1933e-06 0)
(4.79467e-05 -2.29808e-06 0)
(4.78658e-05 -2.39794e-06 0)
(4.7786e-05 -2.44502e-06 0)
(4.8822e-05 -1.39515e-07 0)
(4.83435e-05 -3.28106e-07 0)
(4.83236e-05 -5.30989e-07 0)
(4.82941e-05 -7.32208e-07 0)
(4.82549e-05 -9.27895e-07 0)
(4.82066e-05 -1.11738e-06 0)
(4.81501e-05 -1.29903e-06 0)
(4.80859e-05 -1.47317e-06 0)
(4.80165e-05 -1.63918e-06 0)
(4.79418e-05 -1.79648e-06 0)
(4.7867e-05 -1.94626e-06 0)
(4.77904e-05 -2.08352e-06 0)
(4.77223e-05 -2.21401e-06 0)
(4.76578e-05 -2.32059e-06 0)
(4.76135e-05 -2.42147e-06 0)
(4.75788e-05 -2.47268e-06 0)
(4.83519e-05 -1.40827e-07 0)
(4.78864e-05 -3.13297e-07 0)
(4.78721e-05 -5.07839e-07 0)
(4.78505e-05 -7.01957e-07 0)
(4.78213e-05 -8.91943e-07 0)
(4.77845e-05 -1.07729e-06 0)
(4.77406e-05 -1.25589e-06 0)
(4.76899e-05 -1.42814e-06 0)
(4.76346e-05 -1.59256e-06 0)
(4.75749e-05 -1.74923e-06 0)
(4.75164e-05 -1.89796e-06 0)
(4.74584e-05 -2.0357e-06 0)
(4.74128e-05 -2.16581e-06 0)
(4.73761e-05 -2.27508e-06 0)
(4.73684e-05 -2.37786e-06 0)
(4.73786e-05 -2.43586e-06 0)
(4.78925e-05 -1.34424e-07 0)
(4.7461e-05 -2.84726e-07 0)
(4.74503e-05 -4.62634e-07 0)
(4.74341e-05 -6.41774e-07 0)
(4.74121e-05 -8.18896e-07 0)
(4.7384e-05 -9.9375e-07 0)
(4.73502e-05 -1.16394e-06 0)
(4.73109e-05 -1.32988e-06 0)
(4.72681e-05 -1.48927e-06 0)
(4.72223e-05 -1.64271e-06 0)
(4.7179e-05 -1.78861e-06 0)
(4.7139e-05 -1.92571e-06 0)
(4.7115e-05 -2.0549e-06 0)
(4.71053e-05 -2.16715e-06 0)
(4.71331e-05 -2.27224e-06 0)
(4.7186e-05 -2.33909e-06 0)
(4.74653e-05 -1.22087e-07 0)