/*--------------------------------*- C++ -*----------------------------------*\
  =========                 |
  \\      /  F ield         | OpenFOAM: The Open Source CFD Toolbox
   \\    /   O peration     | Website:  https://openfoam.org
    \\  /    A nd           | Version:  8
     \\/     M anipulation  |
\*---------------------------------------------------------------------------*/
FoamFile
{
    version     2.0;
    format      ascii;
    class       surfaceVectorField;
    location    "0.0435000";
    object      Uf_0;
}
// * * * * * * * * * * * * * * * * * * * * * * * * * * * * * * * * * * * * * //

dimensions      [0 1 -1 0 0 0 0];

internalField   nonuniform List<vector> 
1691
(
(0.744599809636046 0.000279404707583961 -4.7987508504143e-18)
(0.566631138820564 0.000938303181331477 -8.9195707557029e-18)
(0.744770422037782 0.000184429244864684 3.94402815473341e-18)
(0.567901676578801 0.000983395463060782 -2.12871659993335e-18)
(0.744954829470464 0.000173708475429528 5.93138192626733e-18)
(0.568042568924896 0.000994100789800506 8.14723403643969e-18)
(0.745015819582902 0.000187456193999059 -2.17690065495044e-18)
(0.568253881178721 0.00106184218064213 6.7627523056272e-18)
(0.745014865713584 0.000192821410628782 1.84992430731126e-18)
(0.56823956092538 0.00109829573348351 -1.10551240447155e-17)
(0.744986217570153 0.000198103008513667 7.10244375002203e-18)
(0.568155497622598 0.00111834804757842 4.03974139026305e-18)
(0.744946293846138 0.000202837663275441 2.91887108278707e-18)
(0.568041379027127 0.00113139387874478 6.46145855432387e-18)
(0.744899782318382 0.000205839712018374 3.01386523434783e-18)
(0.567915876766625 0.00113984390068641 1.63580451807423e-18)
(0.744854360062093 0.000207372888060408 3.93633152789111e-18)
(0.56778631493008 0.00114438767668558 1.10758436636447e-17)
(0.744813959317506 0.000209233504038124 -1.52526449536128e-17)
(0.567660266310951 0.00114792442692741 5.67349307343167e-18)
(0.744773821723101 0.000211890452278336 -2.81073858909759e-17)
(0.567536468804844 0.00115324595776638 -3.77141733112132e-17)
(0.744730132646338 0.000214699645154098 -2.16728517077459e-17)
(0.567408783528636 0.00115907123747632 -4.02813039032915e-17)
(0.744682555350319 0.000217423904621293 -1.24608775747877e-17)
(0.567278472491997 0.00116493607671384 -3.37736830224971e-17)
(0.744634092039752 0.000219199468925475 -5.36120990752584e-18)
(0.567143782075305 0.0011706521041588 -7.91738296919588e-18)
(0.744588031996071 0.000220466681490431 -1.00189086681843e-17)
(0.567008656942783 0.00117388920591099 -1.17444961331095e-17)
(0.744540919524838 0.000222671910308744 -2.28041463751019e-17)
(0.566875317252943 0.00117811249473717 -2.80034579974477e-17)
(0.744489617052991 0.000225056987682034 -1.85860715566883e-17)
(0.566735990210364 0.0011839651379882 -4.10538994443742e-18)
(0.744439256318004 0.000226584337162032 1.13318602004054e-17)
(0.566593941614152 0.00118885945140937 -9.41601623403823e-18)
(0.744390238950694 0.000227836239573306 9.46257336110713e-18)
(0.566453050016143 0.00119235616376342 6.06097252595935e-17)
(0.744341017996475 0.000229274907324527 -3.1538418932838e-17)
(0.566310385452721 0.00119635140197112 -1.62248593641215e-17)
(0.744293260325968 0.000230660335988409 -2.91501267758122e-17)
(0.566166119866572 0.00120046977203739 -1.09997802405874e-16)
(0.744247708867387 0.000232248022114249 6.01819225341024e-18)
(0.566022429481218 0.00120454204368647 -5.92923621115331e-17)
(0.744200170057885 0.00023466964535949 1.2942494008101e-17)
(0.565877890718269 0.00120946927455402 3.43096841098873e-17)
(0.744146330779176 0.000237800422520297 -2.946687955788e-18)
(0.565728122128137 0.00121611281148937 1.62790926123842e-17)
(0.744088454190602 0.000240268459029989 -2.56411900240968e-18)
(0.565571532129692 0.00122335056309911 -1.55747129503587e-17)
(0.744030982602808 0.000241662213796978 -1.64500236550735e-18)
(0.565411882982722 0.00122818886540062 3.87417211163144e-17)
(0.743975330313683 0.000243185299422702 5.83788032493968e-18)
(0.565252540164413 0.00123226297849463 -3.07462734219122e-17)
(0.743920028080909 0.000245520306130135 1.94977127123082e-17)
(0.565091897099348 0.00123754430491754 1.58103352862069e-17)
(0.743865254599292 0.000247990625403864 3.54433064095739e-18)
(0.564929809126379 0.00124426830172797 -2.08200780504634e-17)
(0.743809978851457 0.000250124724839112 -3.60713497634741e-17)
(0.564765961791203 0.00125017179566456 -5.25473968087484e-17)
(0.743754635722453 0.000252362640103116 -6.0106603212446e-17)
(0.564600073445867 0.00125599262956189 -8.86003894445776e-17)
(0.74370177056866 0.000254887471783683 -4.53932816196658e-17)
(0.564432813402967 0.00126244052112611 -1.09485378247199e-16)
(0.743652353958487 0.000257694957420291 -2.13926068936235e-17)
(0.564267003654576 0.00126944497514337 -2.29902349352083e-17)
(0.743601876117669 0.000261247768854942 -1.4399233288157e-17)
(0.564101040369398 0.00127704611290719 -1.93966145388679e-17)
(0.743546042283207 0.000265839428708723 -5.4740053200567e-17)
(0.563930800288846 0.00128650701133381 -4.0109301947738e-17)
(0.743489817532578 0.000269910632671562 -5.67427952634574e-17)
(0.563754973469572 0.00129767039248323 -1.78180571319358e-16)
(0.743439318114776 0.000273097681826846 -4.57574837051735e-17)
(0.563580302745227 0.00130588499991395 -4.79762781859823e-17)
(0.743393166580005 0.000277615726845729 -4.42294669477925e-17)
(0.563411002201082 0.00131454358240927 -1.24349842374647e-16)
(0.743345156215193 0.000284185011675445 -7.62099833666462e-18)
(0.563241372615631 0.00132715192737632 -4.5971692635745e-17)
(0.743298501111819 0.000290386176815484 1.80263405733479e-17)
(0.563069101558802 0.00134266786905469 1.68153297351896e-17)
(0.743258710890933 0.000295835393124729 7.81443240309532e-17)
(0.562899659816234 0.00135461670532588 5.40400056121263e-17)
(0.743224158163049 0.000303604943088956 1.06537382501696e-16)
(0.562739230637383 0.00136806221642857 1.82994061433094e-16)
(0.743192723954417 0.000313404395203461 1.16432887023858e-16)
(0.562581042370264 0.00138775755204452 8.23619045782536e-17)
(0.743171029555698 0.000322374178904779 8.76587315637826e-17)
(0.562428414232947 0.00140818567377773 1.6306648533034e-16)
(0.743163472271694 0.000331635921655713 2.94563425830975e-17)
(0.562289360726254 0.00142585879528587 4.23762286252656e-17)
(0.743164797889509 0.000346064394229931 7.36720105598471e-17)
(0.56216691442089 0.00144758644781845 -1.43958962518858e-17)
(0.743177104391052 0.000362818462167668 7.02476927770725e-17)
(0.562056346011751 0.00148245675975657 1.65684787727023e-16)
(0.743203640411455 0.000377743711734497 3.79870606785925e-17)
(0.561960563328345 0.00151240850665868 -7.7144360786094e-17)
(0.743251624461957 0.000395351189572576 2.4233908727726e-17)
(0.561892263141454 0.00154198186636147 3.64296832324384e-17)
(0.743323205975368 0.000419721329230657 1.78935517671836e-17)
(0.561856029509814 0.00158116094099225 -8.77079981524022e-18)
(0.743426470153605 0.000445458633698865 5.67841768505288e-17)
(0.561856820948114 0.00163328019617752 7.67824871199491e-17)
(0.743564203645907 0.000470151749551231 5.7896987618659e-17)
(0.56190100747571 0.00167785500295814 7.24986220938487e-17)
(0.743739744195262 0.000504191256509086 -2.09597094861176e-17)
(0.56200576503541 0.00172733585762185 2.68255113050363e-17)
(0.74396141944208 0.000547198806538765 -3.27549644861113e-17)
(0.56217545494921 0.00180289302290866 -1.06596745444805e-16)
(0.744233099549208 0.000589074454569546 5.00507926060267e-18)
(0.562418198316132 0.00188234295016964 3.60005094541859e-17)
(0.744565546641017 0.000632157455643066 3.74519588498839e-18)
(0.562750260070987 0.0019553963792822 -2.84476129989665e-17)
(0.74497017672442 0.000694306857147276 3.5654473321556e-17)
(0.563202305265248 0.00203982982032571 2.8568982124793e-17)
(0.745479558468238 0.000764095780656286 -2.04832288379642e-17)
(0.563795017530353 0.00217469881753885 -3.12011118771922e-18)
(0.74609024448949 0.000827270805739233 -4.31234712526344e-17)
(0.564544109000073 0.00228522076185567 -1.47117675776393e-16)
(0.746826468093338 0.000905915688044459 -7.55740659333433e-18)
(0.56549763191818 0.00240042980899365 2.34994020852389e-17)
(0.747716137169865 0.00100977267906381 3.90037632011444e-17)
(0.566696142021619 0.0025611032528155 -4.61129927844506e-18)
(0.748785237818613 0.00111496793108165 5.73850359751139e-17)
(0.568170364135535 0.00275738046911123 1.59935369067944e-16)
(0.750091631486363 0.00121791921123457 2.65373621272462e-17)
(0.56996858405275 0.0029248082275301 2.31343782491811e-17)
(0.751753100662352 0.00139618317788333 3.8253104976271e-17)
(0.572289496841515 0.00312288396484142 3.7265080965077e-17)
(0.754020178707273 0.00165290728473472 4.43970606485614e-17)
(0.575329772156423 0.00353229909548612 7.18802116273356e-17)
(0.757093593799361 0.00192031911459539 3.01037608025419e-17)
(0.579336685288328 0.00398411294854843 6.45432758924823e-17)
(0.761107173274473 0.00223674162825775 1.19520070601919e-17)
(0.584662936108883 0.00444132098213508 4.2080159229943e-18)
(0.765994608971623 0.00266776695333229 8.17683724240305e-18)
(0.591566213962758 0.00505626163071852 -1.05483487472217e-17)
(0.771717559207018 0.00305280424075151 3.46883380692584e-17)
(0.599871178811929 0.00584708370306678 2.93710383164321e-19)
(0.778293468387871 0.00329774664020238 4.03664830303756e-17)
(0.609649561010287 0.00630357908180117 7.22922024324187e-17)
(0.785778305661212 0.00354056907261706 -1.15569112260682e-17)
(0.621303564589769 0.00664504543609351 2.95327098849475e-17)
(0.794173322725554 0.00372028154498464 -6.38883238026062e-17)
(0.634581531296987 0.00702524363523081 -6.75319255840747e-17)
(0.803498820320037 0.00374581645006068 -2.23024296202084e-17)
(0.649440112169176 0.00712221452268486 -1.14337670399232e-16)
(0.813792867050776 0.00368667800568843 -9.57057257528565e-18)
(0.666148631351502 0.00699169322882525 9.48686984078917e-17)
(0.824954842349109 0.00355730324882723 -8.15146839711849e-17)
(0.68441023266113 0.00676225802086353 -1.30348279516236e-16)
(0.836985426121015 0.0033240624896497 -3.69476763357575e-17)
(0.704246531838089 0.00635727277460564 -1.35097333227707e-16)
(0.849756580425005 0.00300801776679882 2.63474440494249e-17)
(0.725356046218237 0.00576603494258261 4.55764369904398e-17)
(0.863348576837708 0.00263287534255545 2.16988710185726e-17)
(0.748112271848353 0.0050605693905731 1.14829271164087e-16)
(0.877560390926633 0.00217933670934367 4.00897399135833e-17)
(0.771532777814731 0.00423516299468947 2.97314559340171e-17)
(0.892713241268346 0.00173511886718819 3.76419164005902e-17)
(0.797167778664251 0.00328067461281391 9.37272024554288e-17)
(0.908325280527017 0.00127053797430571 9.41483470027173e-19)
(0.822602402546076 0.00243488691606653 1.80726978416419e-17)
(0.925375954383484 0.000836425670212633 3.71379777704124e-18)
(0.851754148212687 0.00143123941646927 -5.92642653668427e-18)
(0.942723532733148 0.000386242906693328 2.86206246580544e-17)
(0.878796717041735 0.000601741175958932 2.90985077166621e-17)
(0.96287528313568 0.000109833773429564 2.42433063791078e-17)
(0.914264887900762 -0.000342901450351783 8.47398360512711e-17)
(0.982903258563432 -0.000176786843101414 -1.89014107813328e-17)
(0.94268974913613 -0.000777378310265313 1.27332994834889e-17)
(1.00601866546369 3.01989273549679e-05 -1.8101744980145e-17)
(0.99030779154428 -0.00146006434915675 -4.85929386261188e-17)
(1.00513582039904 4.70427525194993e-05 1.76706985491348e-17)
(1.00770779840322 1.50320804630973e-05 1.48844315392061e-17)
(1.0076598874467 9.7450137136827e-05 4.92753468771777e-18)
(0.999843960342457 -0.000159133459789417 3.70725729671116e-17)
(1.00752902467188 0.000109594681498294 -2.87294968503244e-18)
(1.00622452992283 3.05994389594875e-05 -6.30748656492141e-17)
(1.00822257377378 0.000109376471487292 -1.04955487653875e-17)
(1.00251263095861 -1.81387599598267e-05 2.50273348901466e-17)
(1.00782016898402 9.51548868865858e-05 -6.64971251693967e-18)
(1.00399886484295 5.40180092361184e-05 -5.06952620455797e-17)
(1.00758067107225 9.64071981050954e-05 1.22804387062057e-17)
(1.00162882359706 3.43773686871851e-05 3.99634857228605e-17)
(1.00679989610063 8.80986753592358e-05 9.50724798031213e-18)
(1.00100197983229 6.26024623691095e-05 9.28453487217117e-18)
(1.00602380940584 7.29150193613879e-05 4.81974953764248e-18)
(0.998822322425529 4.78834883871342e-05 1.94427846090728e-17)
(1.00503003645696 6.19579371709461e-05 -1.39911041761908e-18)
(0.997273473473444 4.933626257984e-05 1.44134140378844e-18)
(1.00401436677998 4.63875205548331e-05 2.69808186366191e-18)
(0.995093016876265 3.61076165983916e-05 3.6977805350128e-18)
(1.00294486076147 3.42214425580779e-05 2.86480563736693e-20)
(0.993187925119103 2.67839680679413e-05 7.07008054310553e-18)
(1.00188913592742 3.75500075614561e-05 -2.12131816404702e-18)
(0.991045222869214 1.44029932438459e-05 -3.3801533941991e-18)
(1.00085630481015 0.000123800510496477 -6.96222913053649e-19)
(0.989218278037006 8.23664193643435e-06 -1.47215302162278e-18)
(0.987504193772126 5.41836235775254e-06 -8.45198037393644e-19)
(0.388649222764401 0.00191533167761221 -6.24250753971788e-18)
(0.246823731815541 0.00296892085914685 -8.76267857512385e-18)
(0.389426975345268 0.00201055764600476 2.08687821491433e-18)
(0.249426256325979 0.00323771188391019 -3.41853993883682e-18)
(0.389852475693142 0.00210306811989834 8.98906498766376e-18)
(0.24978387584056 0.00343607924560509 4.51994387934413e-18)
(0.38995626105661 0.00220401027885022 -2.15178410537534e-18)
(0.250084138216716 0.00366498362171089 9.07598840552924e-18)
(0.389876616690896 0.0022604731063745 -8.87968456438427e-18)
(0.250004268084791 0.00379419700708041 -1.26937999114461e-17)
(0.389719499340018 0.00229021646716329 3.38819861449003e-18)
(0.2498012051155 0.00385619262676582 -4.28994603133361e-18)
(0.389535766005145 0.00230732224346211 5.17757364290373e-18)
(0.249548321893714 0.00388706721855641 1.17182384701584e-17)
(0.389343301185797 0.00231741086469277 9.74568954177709e-18)
(0.249280710522712 0.00390409620870025 5.83918002149465e-19)
(0.389148539129225 0.00232403708561789 1.2837502937613e-17)
(0.249007656813693 0.00391386570211461 2.58980410322702e-17)
(0.388953953386768 0.00233098562396593 -1.68898895406238e-17)
(0.248733448356038 0.00392181008717255 1.49440850272379e-17)
(0.38875842669906 0.00233933305009038 -4.99808542286029e-17)
(0.248458608474457 0.00393180217083885 -5.20060262163442e-17)
(0.388559578725679 0.00234811304457524 -5.24887817176291e-17)
(0.248180501875394 0.00394272170747177 -4.67863776545569e-17)
(0.388357025656664 0.00235676618682469 -2.92365087391435e-17)
(0.24789881833836 0.00395383263789742 -3.42404407820137e-17)
(0.388152238726685 0.00236384411300552 -1.43440576736536e-17)
(0.247613351301487 0.00396444339916684 -7.70524260745173e-18)
(0.387945067900076 0.00237006932729048 -2.98424513544139e-17)
(0.247324903618569 0.00397234617557188 -2.02283359676202e-17)
(0.387734429334802 0.00237778552024724 -9.19689034257576e-18)
(0.24703329914641 0.00398129120907076 -6.79346599593845e-17)
(0.387520146714862 0.00238587507719831 5.13993362483524e-18)
(0.246736392931352 0.00399220568057479 -3.88255776759179e-18)
(0.387303654205003 0.00239258222189304 4.01382098463619e-17)
(0.246436041879854 0.0040018914904171 -3.17861008454807e-17)
(0.3870845009822 0.00239873194449093 3.48240684505048e-17)
(0.246132827999637 0.00401002435598342 8.50581091151638e-17)
(0.386862351533828 0.00240521047611698 -9.51468943988085e-17)
(0.245825073587587 0.00401860236338179 -3.21640458331875e-17)
(0.38663795794802 0.00241178859660818 -1.4040360292664e-16)
(0.24551326361623 0.0040273807985065 -1.80168874748248e-16)
(0.386411156989857 0.00241896180204933 -3.08876707973157e-17)
(0.245198251238457 0.0040362682180642 -1.13983380905772e-16)
(0.386179812695687 0.00242779846794065 3.76840895360227e-17)
(0.244878863286744 0.00404649760296373 2.38252941121839e-17)
(0.38594259045511 0.00243803216365392 3.58844784572983e-18)
(0.244553257615946 0.00405908032892705 2.49017871034567e-17)
(0.385700789977841 0.00244715771318796 2.59734121974904e-17)
(0.244221746612166 0.00407223478960721 2.1708667599669e-17)
(0.385455327148865 0.00245436609358698 9.48642311835279e-18)
(0.243885477407327 0.00408253888892538 4.67046464522888e-17)
(0.385206489485665 0.00246183967526942 -2.07304221810285e-17)
(0.243544523467931 0.00409177296863314 -2.09846938532682e-17)
(0.384954489688266 0.00247093629148035 -2.47533054067953e-17)
(0.243198414967577 0.00410266459329467 6.72517281242706e-18)
(0.384699883524812 0.00248046776241515 -7.72588269161586e-17)
(0.24284843753982 0.00411530294666863 -9.18062955319638e-17)
(0.384441492941205 0.00248952301594282 -1.05398207322705e-16)
(0.242494186333989 0.0041272575338223 -9.86008102067708e-17)
(0.384179330669749 0.00249892595031173 -1.38281552834632e-16)
(0.242134442378842 0.00413912567092255 -1.30085032586596e-16)
(0.383915098796949 0.00250910374639303 -8.69459727891917e-17)
(0.241769914340957 0.00415185795337465 -1.80721341301431e-16)
(0.383649244569915 0.00252010442396056 -2.09819027073652e-17)
(0.24140268130885 0.00416543932138598 -3.44842267771897e-17)
(0.383379288318213 0.0025327905353115 -4.52622881373478e-17)
(0.241031454545574 0.00418016286646217 -8.8972954720585e-17)
(0.383104150728035 0.00254769374358991 -1.64307742398262e-16)
(0.240654128477561 0.00419769447341289 -7.08521678630583e-17)
(0.382827254704765 0.00256184353395684 -1.69310142847063e-16)
(0.240272286228546 0.00421708249415479 -2.58104412940945e-16)
(0.382550293156159 0.00257455485946935 -1.27049195901985e-16)
(0.239888975761146 0.0042330982057261 -1.31594490355059e-16)
(0.38227261719373 0.00259013685615315 -1.26052002894329e-16)
(0.239504129504082 0.00424976333579663 -2.555667604875e-16)
(0.381993759507319 0.00261006858965814 -2.13560632268533e-17)
(0.239116515734251 0.0042721358450666 -8.99010133319116e-17)
(0.381716828180004 0.00262967303934338 5.30529290776216e-17)
(0.238729158045774 0.00429806057073974 3.93276138894694e-17)
(0.381442969478507 0.00264819602570859 1.59565036604599e-16)
(0.238343911227436 0.00431997375503929 1.01118181771268e-16)
(0.381172739546698 0.00267169669698381 1.58583759741091e-16)
(0.237961471454754 0.00434417407766648 3.0684352224442e-16)
(0.380909503252607 0.00269968717009001 1.29329608167774e-16)
(0.237583123123493 0.00437676321094529 8.42514284359383e-17)
(0.380657807454367 0.00272652023083142 1.17396943048133e-16)
(0.237215639957986 0.00441058068284143 1.97982240343955e-16)
(0.380419160824551 0.0027545692044401 -1.77362209586762e-18)
(0.236861083213718 0.00444106639981566 8.99906369116661e-17)
(0.380195498556663 0.00279365921057311 7.83459940348414e-17)
(0.236519569879332 0.00447853544234064 -4.4121049971765e-17)
(0.379996052770926 0.00283809546377543 1.71797316878902e-17)
(0.236201283021727 0.00453227556260273 2.12242503627698e-16)
(0.379822856184433 0.00287945990221363 -7.84960570874457e-17)
(0.235913506385818 0.00458139063435329 -2.08911162995575e-16)
(0.379682117644813 0.00292699480839123 3.18454602198483e-18)
(0.235657566146152 0.00462968414909013 1.1531647821638e-17)
(0.379585615343156 0.00298913375054741 5.05640168270376e-17)
(0.235442474819212 0.00469245168326546 -2.46234350024588e-17)
(0.37954844294311 0.00305479860436049 9.25558273593566e-17)
(0.235290817747791 0.00477144734075119 1.55763314182829e-16)
(0.379574334307896 0.00311931537114075 4.11823278172509e-17)
(0.235210639293124 0.00484215160241779 7.00749397261902e-17)
(0.379676118794071 0.00320407053537802 -5.9518400958258e-17)
(0.235205722967736 0.00492102684752173 -1.25450702330372e-17)
(0.379881492271484 0.00330837134206012 -3.71671817726536e-17)
(0.23530670114217 0.00503428821342822 -1.58535481992737e-16)
(0.380205746390514 0.00341096752714619 2.22581452585975e-18)
(0.235546731063351 0.00515460009271149 7.2531109174267e-17)
(0.380664938070156 0.00351739417657718 -3.34972691010957e-18)
(0.235935800913273 0.00526514503776087 -2.22747337903545e-17)
(0.381293509640021 0.00366426907217606 -1.04624927479669e-17)
(0.236492401189667 0.00539717547925908 6.13200115969584e-17)
(0.382153917219504 0.00382772342444256 -1.30730118685587e-16)
(0.23729893854952 0.00559017722981862 -5.78775715908059e-17)
(0.383260023546821 0.00397831827049637 -7.9639843626964e-17)
(0.23839939959782 0.00575710006732955 -2.52274393561235e-16)
(0.384659125053233 0.00416181432135206 2.63561071148951e-17)
(0.239804892487308 0.00592776282312776 3.6820537719793e-18)
(0.386433401741989 0.00439875162006432 1.17406662259008e-16)
(0.241604417948105 0.00616295312916576 3.43753148077609e-17)
(0.388662456241547 0.00463810071950823 1.25023764782848e-16)
(0.243921812047836 0.0064435460742936 2.28101309987553e-16)
(0.391438134172781 0.00487806817854751 3.39599904415481e-17)
(0.2468249344413 0.00668277635109548 4.23969192323075e-17)
(0.394972178263605 0.00528112420633365 7.11868240042321e-17)
(0.25041845861948 0.00698381429695652 2.9476713235167e-17)
(0.399680806606748 0.00585302451810625 9.21071165348673e-17)
(0.255126292038655 0.00756454631603435 1.45029232764329e-16)
(0.405902832992411 0.00645251455849099 3.83039928276322e-17)
(0.261445960467454 0.00821694860413301 8.75486835676186e-17)
(0.413958538142348 0.00715956736053203 -1.84845186074084e-17)
(0.269690885483253 0.00887631961024873 -4.65987270629177e-17)
(0.424140691472437 0.00809201018307666 -1.84618010719515e-17)
(0.280269565035838 0.00977218493634633 -5.28859368316015e-17)
(0.436716047732753 0.00890395609020289 3.83077532566951e-17)
(0.293738284395005 0.0108531577073437 -3.68567701289393e-19)
(0.45167353727051 0.00939883365490481 6.12822802985226e-17)
(0.310204183340686 0.011471179643946 8.67360211695063e-17)
(0.469092775139116 0.00984290289248759 -2.70019216880173e-17)
(0.329565156494846 0.0118872373384099 7.35488884388164e-17)
(0.489078482075775 0.0101122989918131 -1.1835146246618e-16)
(0.352083123442788 0.0122947907677548 -9.2609742461502e-17)
(0.511544233103628 0.0100202966292932 3.92683780104987e-18)
(0.377740452114253 0.0122817197142469 -1.08712290896517e-16)
(0.536395766705899 0.00970421828939651 -2.70429764185906e-17)
(0.406414841061685 0.0119004603994992 1.32299367477639e-16)
(0.563500841308814 0.00919682330761062 -1.84021792252238e-16)
(0.437779271021877 0.0113369948498897 -3.22523435094803e-16)
(0.592753637939156 0.00843596274357677 -5.16770792140572e-17)
(0.472054316034583 0.010483322253365 -2.11698070315822e-16)
(0.623928993985194 0.00746470664268766 1.34258324429401e-16)
(0.508464835041299 0.00934768447850341 9.04119698836909e-17)
(0.656976090399971 0.00633459373457774 1.22182458630866e-16)
(0.547715648970366 0.00799768005454265 2.11418660568979e-16)
(0.691674865327762 0.00502185795768304 8.35838874873119e-17)
(0.588147541308491 0.006470689832335 4.62019159994374e-17)
(0.728220626231433 0.00370721200890186 7.35069698186348e-17)
(0.632120504322145 0.00473167305831456 1.42029354283348e-16)
(0.766454281671155 0.00233231249539552 1.09777846732346e-17)
(0.675695487652274 0.00315059124616339 3.32705861133044e-17)
(0.807124230322219 0.00100040451476696 1.96028955267555e-17)
(0.725763899305356 0.00128305997101538 -5.6578794223625e-18)
(0.849909100932947 -0.000358480609578758 8.52017459793313e-17)
(0.771845581470258 -0.000262990034908305 5.66751977837554e-17)
(0.896978242226185 -0.00137962971796465 7.19744500380009e-17)
(0.832074398315344 -0.0020986522714796 1.36499032312404e-16)
(0.947444884477599 -0.00228424708891685 -1.76796564539181e-17)
(0.880282292986259 -0.00305872071621012 2.36440359517691e-17)
(0.99871897020596 -0.00117345272000878 -1.52758051026877e-17)
(0.961014098813284 -0.004298026034278 -5.27389146163046e-17)
(0.998984612628689 -0.000125788706961753 3.40780675282004e-17)
(0.990101523705045 3.70931934537099e-05 2.98305766214251e-17)
(1.00065542298285 -2.32210792504947e-05 -3.0580384291701e-17)
(0.975526890291169 -0.000251830206201944 3.6566952907178e-17)
(0.999937133450485 3.97776958023452e-05 -3.47168317106121e-17)
(0.985432765421947 4.62085529832977e-05 -1.48768603789883e-16)
(0.999167950520642 6.68374450563327e-05 -1.52490807738685e-17)
(0.97822903605784 -3.20821557172785e-05 5.10275166380269e-17)
(0.997388589845807 7.24270061288086e-05 -3.96127519640057e-18)
(0.980065231375643 8.10146116071447e-05 -8.50522955684124e-17)
(0.995431917690489 8.98397969943225e-05 3.67352215750557e-17)
(0.975407259984254 4.9476167740005e-05 5.25179157157711e-17)
(0.992931031878624 9.30373001282716e-05 1.91763078833655e-17)
(0.973907327697899 9.28497575984173e-05 1.70585395010768e-17)
(0.990272278350657 8.08552214749031e-05 1.59618186872639e-17)
(0.969833389817295 7.03787883933262e-05 2.96178019486355e-17)
(0.987373275556046 7.27855680279409e-05 6.49753597059487e-18)
(0.966896897228953 7.29580099064281e-05 8.76950108741965e-18)
(0.98439806997073 5.60120079065894e-05 8.04902640094631e-18)
(0.962927515318402 5.26878126059999e-05 7.43361872717134e-18)
(0.981380257110418 4.34868296242908e-05 3.62242720172534e-18)
(0.959457040025832 3.87322022035133e-05 1.39724384654779e-17)
(0.978444524200728 5.29476787810842e-05 -2.72524112689823e-18)
(0.955583720058809 1.92689852728192e-05 -3.10102189143687e-18)
(0.975865304697646 0.000165233263197995 -1.61959457868847e-18)
(0.952273149861283 6.25167505586042e-06 -3.00769857879985e-18)
(0.949216263643495 7.62335704689878e-06 -6.55786701512334e-19)
(0.106820305044692 0.00421399528008255 -5.92657139185181e-18)
(0.00144544518303251 0.00543671260131434 -6.7811129588124e-18)
(0.108351827218873 0.00469445851972907 -9.82216461246199e-19)
(0.00470153640826401 0.00582894803800937 -7.08122494285226e-18)
(0.108912548427992 0.00507778769383207 4.59792740301191e-18)
(0.00511682928094369 0.00651507352382093 -4.81376865310433e-20)
(0.108973328836009 0.005342211337251 -1.50879984759416e-18)
(0.00534247032779177 0.00698867745148055 8.41774134792126e-18)
(0.108783757989415 0.00548019127288206 -8.08306234579102e-18)
(0.00514184588022603 0.00724067914546023 -9.74190903391629e-18)
(0.108492989453086 0.00554461862548684 4.07705632193592e-18)
(0.0048099362259817 0.00735422799848221 -1.17412567063025e-17)
(0.108167607497496 0.00557604092026919 7.10827860224436e-18)
(0.00442627966930017 0.00740532045170751 6.06661588702464e-18)
(0.107831234023023 0.00559313698438917 1.68196535652402e-17)
(0.00402770752905919 0.00743104688986794 -7.58153717673279e-18)
(0.107490298712478 0.00560463725837338 2.80400638891673e-17)
(0.0036229923358829 0.00744634729991012 2.07755745597406e-17)
(0.10714682049122 0.00561602680099036 -2.03352958174357e-17)
(0.00321463847578786 0.0074591157076746 7.10979494271197e-18)
(0.106801028114105 0.00562893154944735 -4.87951757954171e-17)
(0.0028036245379661 0.00747365151523349 -5.23599774714029e-17)
(0.106451597125996 0.00564248139956268 -2.84178414856885e-17)
(0.00238908508692328 0.00748926515743401 -2.4345533280486e-17)
(0.106098216974352 0.005655894665265 -1.25849836436834e-17)
(0.00197044894975281 0.00750518529892916 -9.67667661638966e-19)
(0.105741353881294 0.00566770914617095 -1.36162936870556e-17)
(0.00154784998158568 0.00752058851235382 1.96804524407246e-18)
(0.105379731078432 0.00567869675430562 -5.85396042273886e-17)
(0.00112070888190637 0.00753363105887475 -2.32731018565063e-17)
(0.10501302266523 0.0056911655811394 -6.26594463086479e-17)
(0.000688033394494681 0.00754756474175908 -6.85616817173245e-17)
(0.104642022330569 0.00570402012621947 -4.10424508077903e-17)
(0.000249894416243272 0.0075632852774465 -5.17985530910434e-17)
(0.10426681810322 0.00571550017307873 1.33289127960619e-17)
(-0.00019265384833808 0.0075779473601062 -2.13112694438679e-17)
(0.103886448418532 0.00572640072176673 1.77151084819626e-17)
(-0.000640413097499789 0.00759121064864785 2.91819204731156e-17)
(0.103500781897008 0.00573763220751896 -1.17641510856483e-16)
(-0.00109452420011824 0.00760482340879625 -4.7171370936939e-17)
(0.103110206718263 0.0057490930846741 -1.53622411497666e-16)
(-0.00155455913373794 0.00761870887849729 -1.68890025351487e-16)
(0.102714365526307 0.00576139229080566 -5.90031531472223e-17)
(-0.00202029695419246 0.00763287943657284 -1.15983183805746e-16)
(0.10231227061209 0.0057756568444993 1.09569672349863e-17)
(-0.00249250931028146 0.00764851698060799 -2.11506310820756e-17)
(0.101904024427532 0.00579146011919895 4.31431863557172e-17)
(-0.00297159144665616 0.00766652315557834 2.66440608896208e-17)
(0.101490417392312 0.00580611670243448 4.25623222759732e-17)
(-0.00345650750033547 0.00768509501967724 5.88144067594788e-17)
(0.1010706325765 0.00581877245590712 1.60657305185467e-17)
(-0.00394746901850038 0.0077010279750266 3.62251022711695e-17)
(0.100644138763112 0.00583174298599996 6.6356445139315e-18)
(-0.00444593524476873 0.00771592597758389 1.53423010276419e-17)
(0.100211811047154 0.00584650947573336 -6.0723164511111e-17)
(-0.00495199595018106 0.00773248558240544 -2.8231069397422e-17)
(0.0997744760018169 0.00586188789191737 -1.13278530421283e-16)
(-0.00546393397916606 0.0077508086210111 -1.25871429801398e-16)
(0.0993309210330038 0.00587692713635196 -1.23435696130402e-16)
(-0.00598208122010664 0.00776866256747468 -9.17896116794289e-17)
(0.0988808115704089 0.00589242278650598 -1.72780585974512e-16)
(-0.00650788801592162 0.00778651713658465 -1.33737873652482e-16)
(0.0984254144506384 0.00590888556370317 -1.27930143576047e-16)
(-0.00704082479000398 0.00780532158767903 -1.75844778208437e-16)
(0.0979650715571546 0.00592649054338314 -1.02882262744515e-16)
(-0.00757941008502872 0.00782513116331407 -7.20294940447822e-17)
(0.0974984680860615 0.00594625698747082 -1.14702699905315e-16)
(-0.00812444332076757 0.00784630738778888 -1.51047845997849e-16)
(0.0970262573202418 0.00596852413184142 -1.65258329480322e-16)
(-0.00867659886247477 0.00787045924481798 -8.59252303029338e-17)
(0.0965510888948075 0.0059900569893238 -2.20111245898816e-16)
(-0.00923313167093062 0.00789644288865428 -2.43340303644897e-16)
(0.0960722657385901 0.00601025533925113 -2.60891667515922e-16)
(-0.00979313142864136 0.00791932052016515 -2.02420238456958e-16)
(0.0955893288441484 0.00603388882890067 -2.19096502432724e-16)
(-0.0103585920175252 0.00794297618891742 -2.94757225180228e-16)
(0.095105126624324 0.00606247973417423 -2.878568500751e-17)