/*--------------------------------*- C++ -*----------------------------------*\
  =========                 |
  \\      /  F ield         | OpenFOAM: The Open Source CFD Toolbox
   \\    /   O peration     | Website:  https://openfoam.org
    \\  /    A nd           | Version:  8
     \\/     M anipulation  |
\*---------------------------------------------------------------------------*/
FoamFile
{
    version     2.0;
    format      ascii;
    class       volScalarField::Internal;
    location    "0.0435000";
    object      V0;
}
// * * * * * * * * * * * * * * * * * * * * * * * * * * * * * * * * * * * * * //

dimensions      [0 3 0 0 0 0 0];

value           nonuniform List<scalar> 
900
(
4.05543193720502e-14
4.00814531576645e-14
3.96091889985406e-14
3.91369990163091e-14
3.86649031054883e-14
3.81930208983728e-14
3.77215084742413e-14
3.72503094855351e-14
3.67792464298812e-14
3.63084335748951e-14
3.58379310638056e-14
3.53676548136181e-14
3.48975199207508e-14
3.442765377845e-14
3.39580731028422e-14
3.34886613048353e-14
3.3019412439339e-14
3.25504467408994e-14
3.20817538710049e-14
3.16132074546896e-14
3.11448747893222e-14
3.06768217885748e-14
3.02090017736698e-14
2.97413273120652e-14
2.92739238710917e-14
2.88068247326192e-14
2.83399150617422e-14
2.78731868021228e-14
2.74067809899632e-14
2.69406919115452e-14
2.64747724237725e-14
2.60091018125438e-14
2.55437993076041e-14
2.50788122857008e-14
2.46139810102742e-14
2.41495436591615e-14
2.36855735564793e-14
2.32218502283938e-14
2.27583736335035e-14
2.22954682580063e-14
2.18331247464494e-14
2.13709781328581e-14
2.09093101474424e-14
2.04484803918754e-14
1.99883037736984e-14
1.95282448051325e-14
1.90692182830133e-14
1.86115201404293e-14
1.81542751857752e-14
1.76976122338833e-14
1.72427566178123e-14
1.67896394669723e-14
1.63367523307223e-14
1.58856270231014e-14
1.54375668651714e-14
1.49914914929362e-14
1.45455982203836e-14
1.41038963377354e-14
1.36671529245449e-14
1.32311944520034e-14
1.27981602681074e-14
1.2372163203797e-14
1.1952003408202e-14
1.15291156122871e-14
1.11145475269998e-14
1.07200036406907e-14
1.03366156758118e-14
9.96265126676795e-15
9.62475717739439e-15
9.31624070880008e-15
9.00972209655822e-15
8.72837160001729e-15
8.47370740749476e-15
8.2247498962974e-15
7.98541915680836e-15
7.76003416176941e-15
7.53634971461745e-15
7.31372368115086e-15
7.09046422866457e-15
6.84978828575982e-15
6.59756087504397e-15
6.34260354820607e-15
6.05048129521794e-15
5.72175361551147e-15
5.39555400172099e-15
5.04025788233298e-15
4.85228701256165e-15
4.8609259127413e-15
4.84415476295075e-15
4.80056228157819e-15
4.75512618879001e-15
4.71049237127432e-15
4.65809245116174e-15
4.60226927907239e-15
4.54714985292558e-15
4.49003442755506e-15
4.43387674777125e-15
4.37743000302769e-15
4.31188474697036e-15
4.19492818802505e-15
4.15453240018595e-14
4.10498737039156e-14
4.0555141802313e-14
4.00610176644193e-14
3.956745601577e-14
3.90744290346534e-14
3.85819374935504e-14
3.8089967093215e-14
3.75984971576355e-14
3.71075241496468e-14
3.66170486477696e-14
3.61270583912246e-14
3.56375445809024e-14
3.51485117153431e-14
3.46599593827232e-14
3.41718769687101e-14
3.36842636762752e-14
3.31971291509466e-14
3.2710472919051e-14
3.22242871888344e-14
3.17385747221754e-14
3.12533425448034e-14
3.07685878933754e-14
3.02843099969847e-14
2.9800519650355e-14
2.93172229324344e-14
2.88344152350245e-14
2.83521017139944e-14
2.78702983468107e-14
2.73890096269212e-14
2.69082326371814e-14
2.64279794109492e-14
2.59482685975361e-14
2.54691042855935e-14
2.49904945872466e-14
2.45124678504984e-14
2.40350439659558e-14
2.35582252153882e-14
2.30820372648011e-14
2.26065280243356e-14
2.21317196224361e-14
2.1657626137267e-14
2.11843065644545e-14
2.07118312527408e-14
2.02402233407362e-14
1.97695334126393e-14
1.92998882702578e-14
1.88313801602105e-14
1.83640403810326e-14
1.78979928828571e-14
1.74334394559634e-14
1.6970479481005e-14
1.65092095514374e-14
1.60499110246936e-14
1.55928740191495e-14
1.51381945436016e-14
1.4686123248336e-14
1.42371932937763e-14
1.37917389140835e-14
1.33499100062209e-14
1.29122749729165e-14
1.2479634528447e-14
1.20524086104377e-14
1.16317090119454e-14
1.12204210985353e-14
1.08217669874287e-14
1.04379833445096e-14
1.00719376826747e-14
9.72662163994215e-15
9.4018266119004e-15
9.09550976844633e-15
8.80700981824338e-15
8.53500571228038e-15
8.27601555631255e-15
8.02700036390161e-15
7.78529378831764e-15
7.54710179704958e-15
7.30837733563135e-15
7.0646381680187e-15
6.81106923334206e-15
6.54451073325153e-15
6.26126146703443e-15
5.95495099416767e-15
5.62309990260598e-15
5.26553749791843e-15
4.90479105359029e-15
4.74290818087273e-15
4.75587903118257e-15
4.74867265191989e-15
4.72474007436506e-15
4.69047978352983e-15
4.64973246304439e-15
4.60368491233752e-15
4.55402362794435e-15
4.50249204311903e-15
4.45011446649847e-15
4.39801967546666e-15
4.34704905575838e-15
4.29811344966302e-15
4.26124117121658e-15
4.25313562231734e-14
4.20138553922801e-14
4.14972051825093e-14
4.09814293370234e-14
4.04664691910931e-14
3.99522982739709e-14
3.94389184203599e-14
3.89263143202541e-14
3.84144637149976e-14
3.79033636832045e-14
3.73930151051966e-14
3.68834046639169e-14
3.63745228711475e-14
3.58663751387729e-14
3.53589609870083e-14
3.48522686304681e-14
3.43462972790506e-14
3.38410575731629e-14
3.33365486952145e-14
3.28327617264448e-14
3.23296999802405e-14
3.18273710705995e-14
3.13257715387637e-14
3.08248999337058e-14
3.03247682209548e-14
2.98253826732083e-14
2.93267374093583e-14
2.88288376266954e-14
2.83317007530468e-14
2.78353309538935e-14
2.7339723767945e-14
2.68448921701522e-14
2.63508561097782e-14
2.58576186337988e-14
2.53651864458269e-14
2.48735905438203e-14
2.43828514753588e-14
2.38929686743321e-14
2.34039679945874e-14
2.29159013521989e-14
2.24287901148277e-14
2.19426439059686e-14
2.14575253524281e-14
2.09735093955981e-14
2.04906150260638e-14
2.00088869242707e-14
1.95284638460296e-14
1.90494409101959e-14
1.85718359339812e-14
1.80957747651447e-14
1.76214767472756e-14
1.71490362146759e-14
1.6678527744278e-14
1.62102540695953e-14
1.57445244889594e-14
1.52814090467921e-14
1.48211327349725e-14
1.43642895485448e-14
1.39112180892507e-14
1.34619945888552e-14
1.30172158648236e-14
1.25777506919777e-14
1.21439586929218e-14
1.1716798421537e-14
1.12993353327607e-14
1.08949610434112e-14
1.05057202906157e-14
1.01344707841721e-14
9.78456488511803e-15
9.45563796660026e-15
9.14527592954731e-15
8.85301328461906e-15
8.57750673555177e-15
8.31507594773464e-15
8.06263820057131e-15
7.81744023586704e-15
7.57563739046191e-15
7.33303770611984e-15
7.08511032945219e-15
6.82721139086649e-15
6.55579779206866e-15
6.26681781437733e-15
5.95502343636645e-15
5.61756833857117e-15
5.25279288785061e-15
4.88733695478283e-15
4.72661721026762e-15
4.74067358690687e-15
4.73518135363593e-15
4.71386474132287e-15
4.68161629920215e-15
4.64210274083941e-15
4.59726764932628e-15
4.54877188717652e-15
4.49819308827382e-15
4.44675982767604e-15
4.3956181444199e-15
4.34605039222179e-15
4.30076634800673e-15
4.2700401028892e-15
4.35186022711824e-14
4.29790034970412e-14
4.24403972459348e-14
4.19029404506146e-14
4.13665551583811e-14
4.083121466059e-14
4.02969204820255e-14
3.97636567030573e-14
3.92314005406132e-14
3.87001489014739e-14
3.81699024397915e-14
3.76406474363772e-14
3.71123742012526e-14
3.65850881277799e-14
3.60587885335463e-14
3.55334633564317e-14
3.50091117932696e-14
3.44857445489615e-14
3.39633606362222e-14
3.34419509508659e-14
3.29215188294868e-14
3.24020718788657e-14
3.18836064880031e-14
3.13661211894031e-14
3.08496280723448e-14
3.03341333534042e-14
2.9819631007783e-14
2.93061263265205e-14
2.87936368902478e-14
2.82821667692146e-14
2.77717114158619e-14
2.72622839801618e-14
2.67539045418114e-14
2.62465760707648e-14
2.57403053997363e-14
2.52351238630961e-14
2.47310520463102e-14
2.42280893171934e-14
2.37262619181049e-14
2.32256222261796e-14
2.27261915966179e-14
2.22279798009278e-14
2.17310502205318e-14
2.12354782279845e-14
2.07412827838488e-14
2.02485093109103e-14
1.97572977995483e-14
1.92677436621345e-14
1.87798647599487e-14
1.82937883298208e-14
1.78097351252686e-14
1.73277994558136e-14
1.68480567087852e-14
1.63708119878973e-14
1.58963756579104e-14
1.54248173158727e-14
1.49563640712628e-14
1.44916129461766e-14
1.40309022452897e-14
1.3574308114031e-14
1.31224305268832e-14
1.26761405316173e-14
1.22357974455768e-14
1.18023677404779e-14
1.13789327915791e-14
1.09688945167427e-14
1.05743003288112e-14
1.01980113328729e-14
9.8433769237694e-15
9.51001101247639e-15
9.1954693417731e-15
8.89925913237334e-15
8.6200085290134e-15
8.35400128492676e-15
8.09811865014931e-15
7.84957493535841e-15
7.60449367731857e-15
7.3586509837618e-15
7.10748647508414e-15
6.84633245156857e-15
6.57161311033308e-15
6.27925185729595e-15
5.96402971192541e-15
5.62306690063142e-15
5.25467229869659e-15
4.88622531942817e-15
4.72551309087276e-15
4.7396569739841e-15
4.73445575068305e-15
4.7135840622422e-15
4.68177780968033e-15
4.64264688757593e-15
4.59818053711985e-15
4.55004556811458e-15
4.49980463270038e-15
4.44869568297145e-15
4.39788176660815e-15
4.34871949389575e-15
4.304045745215e-15
4.27393802475929e-15
4.4506950232511e-14
4.39452143066751e-14
4.3384620753745e-14
4.28254578445406e-14
4.22676227394374e-14
4.17110882574175e-14
4.11558556335828e-14
4.06019084041803e-14
4.00492232161884e-14
3.94977967639493e-14
3.89476295210045e-14
3.83987073829487e-14
3.78510204062287e-14
3.73045739635291e-14
3.67593672188212e-14
3.62153878206319e-14
3.56726349036831e-14
3.51311192576034e-14
3.4590839767503e-14
3.40517871183753e-14
3.35139646427177e-14
3.29773799705707e-14
3.24420293509307e-14
3.19079112583394e-14
3.13750379068067e-14
3.08434155005423e-14
3.0313037856304e-14
2.97839103130333e-14
2.92560506292723e-14
2.87294628194865e-14
2.82041422109534e-14
2.76801020960718e-14
2.71573627278395e-14
2.66359270084922e-14
2.61158018303672e-14
2.55970188754707e-14
2.50795988353492e-14
2.45635409644262e-14
2.40488718096323e-14
2.35356442740075e-14
2.30238797563381e-14
2.25135880532002e-14
2.20048332526588e-14
2.14976913053075e-14
2.09921811098847e-14
2.04883485843992e-14
1.99863350718894e-14
1.94862364896071e-14
1.89880704995759e-14
1.84919655120636e-14
1.79981440225273e-14
1.75067003965257e-14
1.70177102770982e-14
1.65314812479284e-14
1.60483253465923e-14
1.55683113311939e-14
1.50916675788544e-14
1.4618995105336e-14
1.41506324912034e-14
1.36866543561566e-14
1.32276637296175e-14
1.2774535418596e-14
1.23276269409039e-14
1.18879084340691e-14
1.14584795062022e-14
1.10427568476339e-14
1.06427885801561e-14
1.02614397849102e-14
9.9020640081275e-15
9.56425261184912e-15
9.24552513824741e-15
8.9453622806264e-15
8.66236359550405e-15
8.39277555408532e-15
8.1334443936335e-15
7.8815550838686e-15
7.63320466060273e-15
7.38414680169771e-15
7.1298012150696e-15
6.86548570907487e-15
6.58762141298629e-15
6.29213293446667e-15
5.97380563254292e-15
5.62977075948043e-15
5.25835525094805e-15
4.88738710461826e-15
4.72678969354985e-15
4.74090706081631e-15
4.73576471300352e-15
4.71503174056664e-15
4.68341104209266e-15
4.64448696777804e-15
4.60023939715192e-15
4.55232835072827e-15
4.5023087231618e-15
4.45141418835757e-15
4.40080722143429e-15
4.35184837697756e-15
4.30736996211973e-15
4.2773993473871e-15
4.5496358575616e-14
4.49124479602302e-14
4.43298371036917e-14
4.37489440936908e-14
4.31696358177948e-14
4.2591884242366e-14
4.20156903206872e-14
4.14410371142582e-14
4.08679006593708e-14
4.02962773895012e-14
3.97261676398608e-14
3.91575569434356e-14
3.85904350523771e-14
3.80248073089112e-14
3.74606727730507e-14
3.68980187983769e-14
3.63368444063134e-14
3.57771604840225e-14
3.52189658344052e-14
3.4662250913619e-14
3.41070190176683e-14
3.3553277825747e-14
3.30010234652471e-14
3.24502543155006e-14
3.19009827069115e-14
3.13532148743413e-14
3.08069444725744e-14
3.02621768416653e-14
2.97189299307915e-14
2.91772077425514e-14
2.86370054544164e-14
2.80983364602541e-14
2.7561221217623e-14
2.70256625832669e-14
2.64916674533509e-14
2.5959267843647e-14
2.54284846156999e-14
2.4899316896886e-14
2.43717914540362e-14
2.38459617387129e-14
2.33218492646888e-14
2.27994637838143e-14
2.22788700054609e-14
2.17601445562471e-14
2.12433063143956e-14
2.07284015111299e-14
2.02155728125549e-14
1.97049168304432e-14
1.91964509836815e-14
1.86903046250249e-14
1.81867020805366e-14
1.76857379645271e-14
1.71874879546057e-14
1.66922619197146e-14
1.62003738827592e-14
1.57118918678201e-14
1.52270450500231e-14
1.4746438438451e-14
1.4270411435078e-14
1.37990369620464e-14
1.33329205629697e-14
1.28729411412144e-14
1.24194545119775e-14
1.19734329289698e-14
1.1537993231987e-14
1.11165681398158e-14
1.07112074245205e-14
1.03247801603738e-14
9.96064564111588e-15
9.61837450384993e-15
9.29544977245988e-15
8.99132489390359e-15
8.70457086419588e-15
8.43139662144727e-15
8.16861292559459e-15
7.91337524047326e-15
7.66175427577489e-15
7.40948196404083e-15
7.15195942695247e-15
6.88449217814854e-15
6.60350223662326e-15
6.3049203932916e-15
5.98354062037935e-15
5.63651342079175e-15
5.26218933710165e-15
4.88881732492363e-15
4.72840333025952e-15
4.74249316009558e-15
4.73737526892269e-15
4.71673641265348e-15
4.68526074083113e-15
4.6465121426264e-15
4.60245730391332e-15
4.55474714035706e-15
4.50492853001906e-15
4.45422920439021e-15
4.4038071655408e-15
4.35501769392958e-15
4.31068095773747e-15
4.28079822989978e-15
4.64867866443957e-14
4.5880665300563e-14
4.52760081658752e-14
4.4673362069608e-14
4.40725584169511e-14
4.34735677718919e-14
4.28763908110828e-14
4.2281010193188e-14
4.16874013005485e-14
4.10955602535572e-14
4.05054872925222e-14
3.99171676113919e-14
3.93305906044185e-14
3.87457615722907e-14
3.81626795228415e-14
3.75813315089874e-14
3.70017163848787e-14
3.64238451480998e-14
3.58477165669525e-14
3.5273320850054e-14
3.47006612227112e-14
3.41297454400735e-14
3.3560569527307e-14
3.29931317296291e-14
3.24274444847267e-14
3.18635141030718e-14
3.13013340739764e-14
3.07409096896609e-14
3.01822591028946e-14
2.96253863503428e-14
2.90702864339668e-14
2.85169728062815e-14
2.79654661616919e-14
2.74157693347158e-14
2.6867889167059e-14
2.63218579937429e-14
2.5777696912676e-14
2.52354049099937e-14
2.4695008884109e-14
2.41565628585937e-14
2.36200885362376e-14
2.30855955518457e-14
2.25531491491644e-14
2.20228267249718e-14
2.14946471820542e-14
2.09686568859093e-14
2.0444999789762e-14
1.99237733969569e-14
1.94049948363645e-14
1.88887941652979e-14
1.83753976361918e-14
1.78649003113293e-14
1.73573776723921e-14
1.68531416797787e-14
1.63525086723054e-14
1.58555460445743e-14
1.53624832866334e-14
1.48739294246276e-14
1.43902252530083e-14
1.39114418092588e-14
1.34381866180658e-14
1.29713430644849e-14
1.25112653494325e-14
1.20589262459809e-14
1.16174589364026e-14
1.11903136093826e-14
1.07795426879167e-14
1.03880193379446e-14
1.00191103371974e-14
9.67236731528118e-15
9.34523614835313e-15
9.03714202823828e-15
8.74662705798122e-15
8.46986190661895e-15
8.20362081515545e-15
7.94502887189906e-15
7.69012971200729e-15
7.43463294125266e-15
7.1739207867484e-15
6.90328634822344e-15
6.61915267612759e-15
6.31745739963121e-15
5.99300362305868e-15
5.64296194001646e-15
5.26571203840746e-15
4.88993252460835e-15
4.72970327363317e-15
4.74375471048609e-15
4.73865243439883e-15
4.71810458708853e-15
4.68677436430757e-15
4.64820424687879e-15
4.60434699077928e-15
4.55684378354935e-15
4.50723306244423e-15
4.45673606693513e-15
4.40650508262673e-15
4.35788650153368e-15
4.31368143408617e-15
4.28386906124027e-15
4.74783260455809e-14
4.68499797996142e-14
4.62232570064569e-14
4.55988383234784e-14
4.49765207858243e-14
4.4356272835657e-14
4.37380948676717e-14
4.31219692141941e-14
4.25078705615343e-14
4.18957946645415e-14
4.1285741715608e-14
4.0677696595792e-14
4.00716482873859e-14
3.94676020399724e-14
3.88655568674278e-14
3.82654995187596e-14
3.7667428625663e-14
3.70713553106518e-14
3.64772783618601e-14
3.58851877253082e-14
3.52950865221693e-14
3.47069826140677e-14
3.41208719465053e-14
3.35367525947207e-14
3.29546371021982e-14
3.23745319043588e-14
3.17964303240969e-14
3.12203375601647e-14
3.06462719835981e-14
3.0074237718717e-14
2.95042295734836e-14
2.89362610190459e-14
2.83703530226614e-14
2.78065084287836e-14
2.72447339717047e-14
2.66850622939746e-14
2.61275148025277e-14
2.55720903347316e-14
2.5018815839347e-14
2.44677459379063e-14
2.39189026014747e-14
2.33722952855753e-14
2.28279896767024e-14
2.22860640488438e-14
2.17465373635494e-14
2.12094559407685e-14
2.06749649953578e-14
2.0143163096969e-14
1.96140670453688e-14
1.90878073503188e-14
1.85646122481154e-14
1.80445774313068e-14
1.75277779437283e-14
1.7014527578855e-14
1.65051452334794e-14
1.59996977470547e-14
1.54984143742425e-14
1.50019079871016e-14
1.45105211989682e-14
1.40243228910345e-14
1.35439217738321e-14
1.30702057047404e-14
1.26035270769168e-14
1.21448571032036e-14
1.16973430556095e-14
1.12644522140228e-14
1.08482390866514e-14
1.04515788727357e-14
1.00778447502576e-14
9.72656953920839e-15
9.39516077682888e-15
9.08301291589509e-15
8.78863775676475e-15
8.50816721597159e-15
8.23833812279616e-15
7.97624450610797e-15
7.71790316399785e-15
7.45900212558443e-15
7.19490605693763e-15
6.92089703291296e-15
6.63339965006747e-15
6.32835924836701e-15
6.000588654819e-15
5.64727958162634e-15
5.2668661265525e-15
4.88850997756395e-15
4.72832673065063e-15
4.74223393756691e-15
4.73712372407479e-15
4.71667982433905e-15
4.68551959539649e-15
4.6471586917378e-15
4.60353461137805e-15
4.55627781761402e-15
4.50691723966036e-15
4.45666664283125e-15
4.40667072432487e-15
4.35825742227423e-15
4.3141404759456e-15
4.28420867547811e-15
4.84583405558214e-14
4.7803373416305e-14
4.7154578761532e-14
4.65083693114709e-14
4.58645206500641e-14
4.52229976948779e-14
4.4583800987531e-14
4.39469127576943e-14
4.33123071263289e-14
4.26799791252216e-14
4.20499287842352e-14
4.14221410689388e-14
4.0796604578976e-14
4.01733243154491e-14
3.9552299095901e-14
3.89335156571869e-14
3.83169724471913e-14
3.77026806837895e-14
3.70906390830659e-14
3.64808373840261e-14
3.58732786294653e-14
3.52679706844681e-14
3.46649097348459e-14
3.40640937244346e-14
3.34655345694882e-14
3.28692390819666e-14
3.22752008659679e-14
3.1683424695995e-14
3.10939293717947e-14
3.05067190828891e-14
2.99217883862314e-14
2.9339150646845e-14
2.875882725975e-14
2.8180821029849e-14
2.76051385111583e-14
2.7031812518595e-14
2.64608648989189e-14
2.58922946957711e-14
2.53261282761782e-14
2.4762420740737e-14
2.42011948442532e-14
2.36424597730969e-14
2.30862810413751e-14
2.25327379862539e-14
2.19818503188088e-14
2.14336633108112e-14
2.08883227903028e-14
2.03459295264966e-14
1.98064999499486e-14
1.92701639475769e-14
1.87371516180416e-14
1.82075602330785e-14
1.76814638244394e-14
1.71591763210726e-14
1.66410203377166e-14
1.61270629520242e-14
1.56175308881901e-14
1.51130401900054e-14
1.46139368046162e-14
1.41202871881167e-14
1.36326987261277e-14
1.31520634907003e-14
1.26787340636128e-14
1.2213673132431e-14
1.17600322881989e-14
1.13212981322185e-14
1.08995294367997e-14
1.04975958366697e-14
1.01188790298313e-14
9.76290837546877e-15
9.42705330789646e-15
9.11067349520723e-15
8.81226080715456e-15
8.52791499027739e-15
8.25433636528256e-15
7.98859351661727e-15
7.72668313259887e-15
7.46427550677978e-15
7.19672348553782e-15
6.91930026047499e-15
6.62843061866938e-15
6.32007115174683e-15
5.98904298947005e-15
5.63255421493982e-15
5.24923269014018e-15
4.8691824659294e-15
4.70902351825296e-15
4.72206838201599e-15
4.71690790566439e-15
4.69655393642826e-15
4.66554268651582e-15
4.62736411469119e-15
4.58394351882831e-15
4.53690328341354e-15
4.4877643684576e-15
4.43773433251312e-15
4.38795068703836e-15
4.33971698301671e-15
4.29551879821641e-15
4.26234584675663e-15
)
;


// ************************************************************************* //
