/*--------------------------------*- C++ -*----------------------------------*\
| =========                 |                                                 |
| \\      /  F ield         | foam-extend: Open Source CFD                    |
|  \\    /   O peration     | Version:     4.1-20200408                       |
|   \\  /    A nd           | Web:         http://www.foam-extend.org         |
|    \\/     M anipulation  |                                                 |
\*---------------------------------------------------------------------------*/
FoamFile
{
    version     2.0;
    format      ascii;
    class       volScalarField;
    location    "0.0290000";
    object      rho;
}
// * * * * * * * * * * * * * * * * * * * * * * * * * * * * * * * * * * * * * //

dimensions      [1 -3 0 0 0 0 0];

internalField   nonuniform List<scalar> 
1952
(
7832.74
7832.67
7832.64
7832.53
7832.42
7832.2
7831.94
7831.48
7830.91
7829.94
7828.76
7826.76
7824.37
7820.38
7816.38
7832.73
7833.14
7833.07
7833.03
7832.92
7832.8
7832.58
7832.3
7831.84
7831.25
7830.28
7829.09
7827.1
7824.72
7820.76
7816.82
7833.14
7833.47
7833.4
7833.35
7833.24
7833.11
7832.88
7832.59
7832.12
7831.52
7830.54
7829.33
7827.32
7824.91
7820.91
7816.88
7833.47
7833.77
7833.69
7833.65
7833.53
7833.39
7833.15
7832.85
7832.37
7831.75
7830.76
7829.53
7827.49
7825.05
7821.01
7816.93
7833.77
7834.04
7833.96
7833.91
7833.79
7833.64
7833.39
7833.08
7832.59
7831.95
7830.94
7829.69
7827.62
7825.14
7821.06
7816.92
7834.04
7834.28
7834.2
7834.15
7834.02
7833.86
7833.61
7833.28
7832.78
7832.12
7831.09
7829.82
7827.72
7825.21
7821.09
7816.9
7834.29
7834.5
7834.42
7834.36
7834.22
7834.06
7833.8
7833.46
7832.94
7832.27
7831.22
7829.92
7827.79
7825.25
7821.1
7816.87
7834.51
7834.7
7834.62
7834.55
7834.41
7834.24
7833.97
7833.62
7833.09
7832.4
7831.33
7830.01
7827.85
7825.27
7821.1
7816.84
7834.71
7834.88
7834.79
7834.72
7834.58
7834.4
7834.12
7833.76
7833.21
7832.51
7831.42
7830.08
7827.9
7825.29
7821.09
7816.8
7834.89
7835.05
7834.96
7834.88
7834.73
7834.54
7834.26
7833.88
7833.33
7832.61
7831.51
7830.14
7827.94
7825.3
7821.07
7816.77
7835.05
7835.2
7835.1
7835.03
7834.87
7834.68
7834.38
7834
7833.43
7832.7
7831.58
7830.19
7827.97
7825.31
7821.06
7816.73
7835.21
7835.34
7835.24
7835.16
7835
7834.8
7834.49
7834.1
7833.52
7832.78
7831.64
7830.24
7827.99
7825.31
7821.04
7816.7
7835.35
7835.47
7835.36
7835.28
7835.12
7834.91
7834.6
7834.2
7833.61
7832.85
7831.7
7830.28
7828.01
7825.31
7821.02
7816.66
7835.47
7835.58
7835.48
7835.39
7835.22
7835.01
7834.69
7834.28
7833.69
7832.92
7831.75
7830.32
7828.03
7825.3
7821.01
7816.63
7835.59
7835.69
7835.59
7835.49
7835.32
7835.11
7834.78
7834.36
7833.76
7832.98
7831.8
7830.35
7828.05
7825.3
7820.99
7816.61
7835.7
7835.8
7835.69
7835.59
7835.42
7835.19
7834.86
7834.44
7833.82
7833.04
7831.85
7830.39
7828.07
7825.31
7820.98
7816.59
7835.81
7835.9
7835.79
7835.69
7835.51
7835.28
7834.94
7834.51
7833.89
7833.09
7831.89
7830.42
7828.09
7825.31
7820.96
7816.56
7835.91
7836
7835.89
7835.79
7835.6
7835.37
7835.03
7834.59
7833.95
7833.16
7831.94
7830.46
7828.12
7825.33
7820.95
7816.54
7836.02
7836.1
7835.98
7835.88
7835.69
7835.45
7835.11
7834.66
7834.02
7833.21
7831.99
7830.5
7828.14
7825.33
7820.95
7816.51
7836.11
7836.19
7836.07
7835.96
7835.77
7835.53
7835.18
7834.72
7834.08
7833.25
7832.03
7830.52
7828.16
7825.33
7820.93
7816.5
7836.2
7836.27
7836.15
7836.04
7835.85
7835.61
7835.25
7834.78
7834.13
7833.3
7832.06
7830.55
7828.17
7825.33
7820.92
7816.48
7836.29
7836.35
7836.24
7836.12
7835.93
7835.67
7835.31
7834.84
7834.18
7833.34
7832.1
7830.57
7828.19
7825.34
7820.91
7816.46
7836.37
7836.44
7836.32
7836.2
7836
7835.74
7835.38
7834.89
7834.23
7833.38
7832.14
7830.6
7828.2
7825.34
7820.9
7816.44
7836.45
7836.52
7836.4
7836.28
7836.07
7835.81
7835.44
7834.95
7834.28
7833.43
7832.17
7830.63
7828.22
7825.34
7820.88
7816.42
7836.54
7836.61
7836.48
7836.35
7836.15
7835.88
7835.5
7835.01
7834.34
7833.48
7832.21
7830.65
7828.24
7825.34
7820.87
7816.4
7836.62
7836.69
7836.56
7836.44
7836.23
7835.95
7835.57
7835.08
7834.39
7833.52
7832.25
7830.68
7828.25
7825.35
7820.85
7816.37
7836.71
7836.78
7836.65
7836.52
7836.31
7836.03
7835.64
7835.14
7834.45
7833.57
7832.28
7830.7
7828.26
7825.34
7820.82
7816.34
7836.8
7836.88
7836.75
7836.61
7836.39
7836.1
7835.72
7835.2
7834.5
7833.61
7832.32
7830.72
7828.27
7825.33
7820.79
7816.3
7836.9
7836.98
7836.85
7836.71
7836.49
7836.19
7835.8
7835.27
7834.57
7833.66
7832.35
7830.75
7828.27
7825.32
7820.76
7816.26
7837.01
7837.1
7836.96
7836.82
7836.59
7836.29
7835.89
7835.35
7834.63
7833.71
7832.39
7830.77
7828.28
7825.31
7820.72
7816.21
7837.12
7837.22
7837.08
7836.93
7836.7
7836.39
7835.98
7835.43
7834.7
7833.76
7832.43
7830.79
7828.28
7825.28
7820.68
7816.15
7837.25
7837.36
7837.22
7837.06
7836.82
7836.5
7836.08
7835.52
7834.78
7833.82
7832.47
7830.8
7828.27
7825.26
7820.62
7816.08
7837.39
7837.52
7837.38
7837.21
7836.97
7836.63
7836.2
7835.62
7834.86
7833.89
7832.52
7830.83
7828.27
7825.23
7820.56
7816
7837.55
7837.71
7837.56
7837.38
7837.13
7836.78
7836.34
7835.74
7834.97
7833.97
7832.57
7830.86
7828.27
7825.2
7820.49
7815.91
7837.74
7837.91
7837.76
7837.58
7837.32
7836.95
7836.5
7835.88
7835.08
7834.06
7832.64
7830.89
7828.27
7825.16
7820.42
7815.81
7837.95
7838.16
7838
7837.8
7837.53
7837.15
7836.68
7836.04
7835.22
7834.16
7832.71
7830.93
7828.28
7825.12
7820.34
7815.69
7838.2
7838.44
7838.27
7838.07
7837.79
7837.39
7836.9
7836.23
7835.38
7834.29
7832.81
7830.98
7828.29
7825.09
7820.25
7815.56
7838.48
7838.76
7838.59
7838.38
7838.08
7837.67
7837.16
7836.46
7835.58
7834.46
7832.94
7831.06
7828.32
7825.06
7820.16
7815.42
7838.81
7839.14
7838.97
7838.74
7838.43
7837.99
7837.46
7836.73
7835.83
7834.66
7833.09
7831.16
7828.36
7825.03
7820.07
7815.26
7839.19
7839.57
7839.4
7839.15
7838.84
7838.38
7837.82
7837.06
7836.12
7834.9
7833.29
7831.29
7828.44
7825.03
7819.98
7815.1
7839.63
7840.07
7839.89
7839.64
7839.31
7838.82
7838.25
7837.45
7836.48
7835.21
7833.55
7831.48
7828.55
7825.05
7819.91
7814.94
7840.13
7840.64
7840.46
7840.19
7839.86
7839.35
7838.76
7837.93
7836.91
7835.59
7833.87
7831.72
7828.71
7825.1
7819.86
7814.78
7840.7
7841.29
7841.12
7840.84
7840.5
7839.98
7839.36
7838.5
7837.45
7836.07
7834.29
7832.05
7828.96
7825.22
7819.85
7814.62
7841.36
7842.03
7841.86
7841.58
7841.23
7840.7
7840.07
7839.18
7838.1
7836.67
7834.83
7832.5
7829.3
7825.42
7819.91
7814.49
7842.1
7842.86
7842.7
7842.41
7842.07
7841.53
7840.89
7839.99
7838.88
7837.41
7835.51
7833.08
7829.78
7825.74
7820.05
7814.41
7842.92
7843.77
7843.62
7843.34
7843.01
7842.48
7841.85
7840.94
7839.82
7838.31
7836.37
7833.85
7830.44
7826.21
7820.32
7814.4
7843.83
7844.76
7844.62
7844.36
7844.05
7843.54
7842.94
7842.05
7840.93
7839.42
7837.44
7834.86
7831.34
7826.92
7820.79
7814.51
7844.81
7845.81
7845.7
7845.46
7845.19
7844.72
7844.16
7843.32
7842.25
7840.76
7838.79
7836.17
7832.56
7827.95
7821.54
7814.77
7845.86
7846.9
7846.82
7846.63
7846.41
7846.01
7845.52
7844.76
7843.76
7842.36
7840.45
7837.85
7834.23
7829.47
7822.78
7815.37
7846.94
7848
7847.97
7847.82
7847.68
7847.37
7846.99
7846.35
7845.49
7844.23
7842.46
7840
7836.48
7831.72
7824.96
7817.07
7848.03
7849.07
7849.08
7849.01
7848.96
7848.77
7848.53
7848.07
7847.4
7846.37
7844.84
7842.67
7839.47
7835.1
7828.84
7821.63
7849.08
7850.05
7850.12
7850.13
7850.19
7850.15
7850.08
7849.85
7849.42
7848.7
7847.5
7845.75
7842.99
7839.17
7833.58
7827.27
7850.04
7850.86
7850.99
7851.1
7851.29
7851.43
7851.56
7851.59
7851.46
7851.12
7850.34
7849.11
7846.92
7843.81
7838.99
7833.62
7850.83
7851.44
7851.64
7851.85
7852.19
7852.51
7852.88
7853.21
7853.42
7853.52
7853.21
7852.6
7851.06
7848.78
7844.82
7840.48
7851.38
7851.7
7851.96
7852.29
7852.77
7853.3
7853.92
7854.57
7855.15
7855.73
7855.96
7856.05
7855.25
7853.91
7850.92
7847.7
7851.62
7851.55
7851.88
7852.31
7852.95
7853.68
7854.55
7855.53
7856.5
7857.58
7858.39
7859.23
7859.25
7858.99
7857.11
7855.14
7851.43
7850.9
7851.29
7851.83
7852.61
7853.53
7854.65
7855.95
7857.31
7858.89
7860.28
7861.94
7862.85
7863.85
7863.3
7862.97
7850.76
7849.64
7850.09
7850.72
7851.62
7852.71
7854.05
7855.62
7857.32
7859.36
7861.31
7863.76
7865.58
7868.05
7869.01
7871.09
7849.49
7847.7
7848.19
7848.88
7849.89
7851.12
7852.63
7854.43
7856.43
7858.85
7861.28
7864.41
7867.06
7870.99
7873.54
7878.51
7847.53
7845.63
7846.15
7846.9
7847.98
7849.32
7850.99
7852.99
7855.25
7858.01
7860.88
7864.59
7868.03
7873.2
7877.34
7885.52
7845.45
7844.28
7844.81
7845.59
7846.73
7848.15
7849.94
7852.09
7854.58
7857.6
7860.83
7864.96
7868.93
7874.7
7879.58
7888.83
7844.1
7843.85
7844.4
7845.19
7846.35
7847.81
7849.66
7851.9
7854.52
7857.7
7861.14
7865.46
7869.67
7875.54
7880.42
7889.11
7843.67
7844.31
7844.86
7845.64
7846.8
7848.24
7850.1
7852.34
7854.99
7858.16
7861.64
7865.87
7870.02
7875.46
7879.87
7887.24
7844.13
7845.63
7846.18
7846.93
7848.06
7849.46
7851.26
7853.41
7855.97
7858.98
7862.32
7866.2
7870
7874.61
7878.19
7883.76
7845.46
7847.71
7848.25
7848.98
7850.07
7851.39
7853.1
7855.09
7857.47
7860.19
7863.21
7866.52
7869.74
7873.2
7875.66
7879.15
7847.54
7850.43
7850.97
7851.66
7852.72
7853.96
7855.57
7857.36
7859.5
7861.82
7864.4
7866.97
7869.39
7871.46
7872.6
7873.86
7850.25
7853.65
7854.19
7854.86
7855.88
7857.06
7858.55
7860.15
7862.03
7863.91
7865.95
7867.66
7869.13
7869.61
7869.26
7868.26
7853.47
7857.22
7857.75
7858.4
7859.36
7860.45
7861.82
7863.23
7864.9
7866.37
7867.87
7868.72
7869.15
7867.92
7866.02
7862.82
7857.03
7860.92
7861.46
7862.08
7862.99
7863.99
7865.25
7866.55
7868.15
7869.35
7870.33
7870.33
7869.45
7866.61
7863.31
7858.24
7860.73
7864.94
7865.5
7866.16
7867.08
7868.08
7869.22
7870.35
7871.34
7871.66
7871.42
7870.05
7867.91
7864.24
7860.48
7854.96
7864.73
7869.3
7869.69
7870.13
7870.71
7871.2
7871.57
7871.57
7871.14
7870.14
7868.64
7866.26
7863.79
7860.35
7857.08
7852.48
7869.15
7870.81
7870.81
7870.7
7870.53
7870.17
7869.62
7868.61
7867.42
7865.87
7864.12
7861.85
7859.62
7856.66
7853.82
7850.2
7870.81
7868.11
7867.94
7867.61
7867.14
7866.46
7865.63
7864.54
7863.5
7862.1
7860.54
7858.5
7856.39
7853.73
7851.08
7847.91
7868.18
7864.54
7864.38
7864.08
7863.67
7863.08
7862.34
7861.36
7860.26
7858.87
7857.36
7855.49
7853.58
7851.22
7848.9
7846.07
7864.61
7861.67
7861.47
7861.13
7860.67
7860.04
7859.3
7858.35
7857.32
7856.03
7854.66
7852.97
7851.24
7849.16
7847.12
7844.65
7861.75
7858.86
7858.66
7858.34
7857.89
7857.31
7856.61
7855.74
7854.76
7853.57
7852.31
7850.79
7849.25
7847.42
7845.64
7843.5
7858.93
7856.38
7856.17
7855.86
7855.42
7854.87
7854.21
7853.4
7852.5
7851.43
7850.28
7848.93
7847.57
7845.97
7844.42
7842.57
7856.45
7854.1
7853.89
7853.61
7853.2
7852.69
7852.08
7851.35
7850.52
7849.55
7848.53
7847.33
7846.13
7844.74
7843.4
7841.81
7854.17
7852.06
7851.86
7851.6
7851.22
7850.75
7850.19
7849.53
7848.78
7847.92
7847.01
7845.95
7844.9
7843.69
7842.54
7841.16
7852.12
7850.22
7850.03
7849.79
7849.44
7849.03
7848.51
7847.92
7847.25
7846.48
7845.68
7844.76
7843.84
7842.79
7841.8
7840.61
7850.27
7848.57
7848.4
7848.18
7847.86
7847.49
7847.03
7846.5
7845.9
7845.23
7844.52
7843.71
7842.91
7842.01
7841.16
7840.14
7848.62
7847.09
7846.93
7846.74
7846.45
7846.12
7845.71
7845.24
7844.71
7844.12
7843.5
7842.79
7842.1
7841.32
7840.59
7839.72
7847.14
7845.77
7845.62
7845.45
7845.2
7844.9
7844.54
7844.12
7843.66
7843.14
7842.59
7841.99
7841.39
7840.72
7840.09
7839.34
7845.81
7844.59
7844.45
7844.3
7844.08
7843.81
7843.49
7843.13
7842.72
7842.27
7841.79
7841.27
7840.75
7840.17
7839.63
7838.99
7844.62
7843.53
7843.41
7843.28
7843.07
7842.84
7842.56
7842.24
7841.88
7841.49
7841.08
7840.62
7840.18
7839.68
7839.22
7838.66
7843.56
7842.58
7842.47
7842.35
7842.17
7841.97
7841.72
7841.44
7841.13
7840.79
7840.44
7840.04
7839.66
7839.23
7838.84
7838.35
7842.6
7841.72
7841.63
7841.53
7841.37
7841.19
7840.97
7840.73
7840.46
7840.16
7839.86
7839.52
7839.19
7838.82
7838.48
7838.05
7841.75
7840.95
7840.87
7840.78
7840.64
7840.49
7840.3
7840.09
7839.85
7839.59
7839.33
7839.03
7838.75
7838.44
7838.14
7837.77
7840.97
7840.26
7840.18
7840.11
7839.98
7839.85
7839.68
7839.5
7839.3
7839.07
7838.84
7838.59
7838.35
7838.08
7837.82
7837.49
7840.27
7839.63
7839.56
7839.49
7839.39
7839.27
7839.13
7838.97
7838.79
7838.6
7838.4
7838.18
7837.97
7837.74
7837.51
7837.22
7839.64
7839.05
7839
7838.94
7838.85
7838.74
7838.62
7838.48
7838.33
7838.16
7837.99
7837.8
7837.62
7837.41
7837.22
7836.96
7839.07
7838.53
7838.48
7838.43
7838.35
7838.26
7838.15
7838.03
7837.9
7837.75
7837.61
7837.44
7837.28
7837.11
7836.93
7836.71
7838.54
7838.06
7838.01
7837.97
7837.9
7837.82
7837.72
7837.62
7837.5
7837.38
7837.25
7837.11
7836.97
7836.81
7836.66
7836.45
7838.07
7837.62
7837.58
7837.54
7837.48
7837.41
7837.33
7837.24
7837.14
7837.03
7836.91
7836.79
7836.67
7836.53
7836.4
7836.21
7837.63
7837.21
7837.18
7837.14
7837.09
7837.03
7836.96
7836.88
7836.79
7836.7
7836.6
7836.49
7836.38
7836.26
7836.14
7835.97
7837.22
7836.84
7836.81
7836.78
7836.73
7836.68
7836.62
7836.55
7836.47
7836.39
7836.3
7836.2
7836.11
7836.01
7835.89
7835.74
7836.85
7836.49
7836.46
7836.44
7836.4
7836.35
7836.3
7836.23
7836.17
7836.09
7836.02
7835.93
7835.85
7835.76
7835.65
7835.51
7836.5
7836.17
7836.14
7836.12
7836.08
7836.04
7835.99
7835.94
7835.88
7835.82
7835.75
7835.67
7835.6
7835.52
7835.42
7835.28
7836.17
7835.87
7835.84
7835.82
7835.79
7835.76
7835.71
7835.66
7835.61
7835.55
7835.49
7835.43
7835.36
7835.28
7835.2
7835.07
7835.87
7835.58
7835.56
7835.55
7835.52
7835.48
7835.45
7835.4
7835.35
7835.3
7835.25
7835.19
7835.13
7835.06
7834.98
7834.86
7835.59
7835.32
7835.3
7835.28
7835.26
7835.23
7835.19
7835.15
7835.11
7835.06
7835.02
7834.96
7834.91
7834.84
7834.77
7834.65
7835.32
7835.07
7835.05
7835.04
7835.01
7834.99
7834.95
7834.92
7834.88
7834.84
7834.79
7834.74
7834.69
7834.64
7834.56
7834.45
7835.07
7834.83
7834.82
7834.8
7834.78
7834.76
7834.73
7834.7
7834.66
7834.62
7834.58
7834.54
7834.49
7834.43
7834.37
7834.26
7834.83
7834.61
7834.6
7834.58
7834.56
7834.54
7834.52
7834.49
7834.45
7834.42
7834.38
7834.33
7834.29
7834.24
7834.18
7834.07
7834.61
7834.4
7834.39
7834.38
7834.36
7834.34
7834.31
7834.28
7834.25
7834.22
7834.18
7834.14
7834.1
7834.05
7833.99
7833.89
7834.4
7834.2
7834.19
7834.18
7834.16
7834.14
7834.12
7834.09
7834.06
7834.03
7834
7833.96
7833.92
7833.87
7833.81
7833.71
7834.21
7834.02
7834.01
7834
7833.98
7833.96
7833.94
7833.91
7833.88
7833.85
7833.82
7833.78
7833.74
7833.7
7833.64
7833.54
7834.02
7833.84
7833.83
7833.82
7833.81
7833.79
7833.77
7833.74
7833.71
7833.68
7833.65
7833.61
7833.57
7833.53
7833.47
7833.37
7833.85
7833.68
7833.67
7833.66
7833.64
7833.63
7833.6
7833.58
7833.55
7833.52
7833.49
7833.45
7833.41
7833.37
7833.31
7833.21
7833.68
7833.53
7833.52
7833.51
7833.49
7833.47
7833.45
7833.43
7833.4
7833.37
7833.33
7833.3
7833.26
7833.21
7833.15
7833.05
7833.53
7833.38
7833.37
7833.36
7833.35
7833.33
7833.31
7833.28
7833.25
7833.22
7833.19
7833.15
7833.11
7833.06
7833
7832.89
7833.39
7833.25
7833.24
7833.23
7833.22
7833.2
7833.18
7833.15
7833.12
7833.09
7833.05
7833.01
7832.97
7832.92
7832.85
7832.75
7833.25
7833.13
7833.12
7833.11
7833.09
7833.08
7833.05
7833.03
7833
7832.96
7832.92
7832.88
7832.84
7832.78
7832.71
7832.6
7833.13
7833.02
7833.01
7833
7832.98
7832.96
7832.94
7832.91
7832.88
7832.85
7832.81
7832.76
7832.71
7832.65
7832.58
7832.46
7833.02
7832.92
7832.91
7832.9
7832.88
7832.86
7832.84
7832.81
7832.78
7832.74
7832.7
7832.65
7832.6
7832.54
7832.46
7832.33
7832.92
7832.83
7832.82
7832.81
7832.8
7832.78
7832.75
7832.72
7832.69
7832.65
7832.61
7832.56
7832.5
7832.43
7832.34
7832.21
7832.83
7832.75
7832.75
7832.73
7832.72
7832.7
7832.67
7832.65
7832.61
7832.57
7832.53
7832.47
7832.41
7832.34
7832.24
7832.09
7832.76
7832.69
7832.68
7832.67
7832.65
7832.63
7832.61
7832.58
7832.55
7832.51
7832.46
7832.41
7832.34
7832.26
7832.15
7831.99
7832.69
7832.63
7832.62
7832.61
7832.6
7832.58
7832.56
7832.53
7832.5
7832.46
7832.41
7832.36
7832.29
7832.21
7832.09
7831.91
7832.63
7832.58
7832.58
7832.57
7832.55
7832.54
7832.52
7832.49
7832.46
7832.42
7832.38
7832.33
7832.26
7832.18
7832.05
7831.85
7832.59
7832.54
7832.54
7832.53
7832.52
7832.5
7832.48
7832.46
7832.43
7832.4
7832.36
7832.32
7832.27
7832.21
7832.11
7831.96
7832.55
7832.53
7832.52
7832.51
7832.5
7832.49
7832.47
7832.45
7832.43
7832.4
7832.37
7832.33
7832.29
7832.24
7832.18
7832.07
7832.53
)
;

boundaryField
{
    wireUpstream
    {
        type            calculated;
        value           nonuniform List<scalar> 
16
(
7832.51
7832.5
7832.5
7832.49
7832.47
7832.46
7832.44
7832.42
7832.39
7832.36
7832.33
7832.3
7832.27
7832.24
7832.22
7832.51
)
;
    }
    wireDownstream
    {
        type            calculated;
        value           nonuniform List<scalar> 
16
(
7832.75
7832.68
7832.65
7832.55
7832.43
7832.22
7831.96
7831.5
7830.93
7829.96
7828.78
7826.78
7824.38
7820.32
7815.97
7832.75
)
;
    }
    wireTopContact
    {
        type            calculated;
        value           nonuniform List<scalar> 
122
(
7816.7
7816.75
7816.8
7816.79
7816.77
7816.74
7816.71
7816.67
7816.64
7816.61
7816.57
7816.54
7816.51
7816.48
7816.45
7816.43
7816.4
7816.38
7816.36
7816.34
7816.32
7816.3
7816.28
7816.26
7816.23
7816.2
7816.16
7816.11
7816.06
7816
7815.93
7815.85
7815.75
7815.65
7815.53
7815.39
7815.25
7815.09
7814.93
7814.77
7814.61
7814.46
7814.34
7814.28
7814.3
7814.44
7814.77
7815.43
7816.97
7821.69
7827.39
7833.76
7840.63
7847.87
7855.33
7863.13
7871.05
7878.11
7885.45
7888.59
7888.64
7886.75
7883.31
7878.76
7873.57
7868.16
7862.99
7858.66
7855.41
7852.68
7850.2
7847.94
7846.1
7844.66
7843.5
7842.55
7841.78
7841.13
7840.58
7840.1
7839.68
7839.3
7838.95
7838.62
7838.32
7838.02
7837.74
7837.47
7837.2
7836.94
7836.68
7836.43
7836.19
7835.95
7835.72
7835.49
7835.27
7835.05
7834.84
7834.64
7834.44
7834.25
7834.06
7833.88
7833.7
7833.53
7833.36
7833.2
7833.04
7832.89
7832.74
7832.6
7832.46
7832.33
7832.2
7832.09
7831.99
7831.91
7831.85
7831.95
7832.03
7816.41
)
;
    }
    front
    {
        type            wedge;
    }
    back
    {
        type            wedge;
    }
}


// ************************************************************************* //
