/*--------------------------------*- C++ -*----------------------------------*\
  =========                 |
  \\      /  F ield         | OpenFOAM: The Open Source CFD Toolbox
   \\    /   O peration     | Website:  https://openfoam.org
    \\  /    A nd           | Version:  8
     \\/     M anipulation  |
\*---------------------------------------------------------------------------*/
FoamFile
{
    version     2.0;
    format      ascii;
    class       volScalarField::Internal;
    location    "0.0010000";
    object      V0;
}
// * * * * * * * * * * * * * * * * * * * * * * * * * * * * * * * * * * * * * //

dimensions      [0 3 0 0 0 0 0];

value           nonuniform List<scalar> 
900
(
4.27965222708804e-14
4.23197044632627e-14
4.18430128942948e-14
4.13664475640009e-14
4.08900084723587e-14
4.04136956193898e-14
3.99375090050727e-14
3.94614486294283e-14
3.89855144924361e-14
3.85097065941159e-14
3.80340249344473e-14
3.75584695134523e-14
3.70830403311093e-14
3.66077373874347e-14
3.61325606824263e-14
3.56575102160698e-14
3.51825859883855e-14
3.47077879993541e-14
3.42331162489948e-14
3.37585707372879e-14
3.32841514642542e-14
3.28098584298732e-14
3.23356916341635e-14
3.18616510771058e-14
3.13877367587199e-14
3.09139486789879e-14
3.04402868379218e-14
2.99667512355241e-14
2.94933418717803e-14
2.90200587467059e-14
2.85469018602854e-14
2.80738712125357e-14
2.76009668034399e-14
2.71281886330152e-14
2.66555367012439e-14
2.61830110081444e-14
2.57106115536995e-14
2.52383383379218e-14
2.47661913608042e-14
2.42941706223471e-14
2.38222761225577e-14
2.33505078614244e-14
2.28788658389606e-14
2.24073500551525e-14
2.1935960510012e-14
2.14646972035276e-14
2.09935601357122e-14
2.05225493065525e-14
2.00516647160615e-14
1.95809063642278e-14
1.91102742510598e-14
1.86397683765554e-14
1.8169388740708e-14
1.76991353435281e-14
1.72290081850055e-14
1.6759007265151e-14
1.62891325839537e-14
1.58193841414229e-14
1.5349761937552e-14
1.48802659723436e-14
1.44108962457978e-14
1.39416527579136e-14
1.34725355086928e-14
1.30035444981339e-14
1.25346797262379e-14
1.20659411930051e-14
1.15973288984331e-14
1.11288428425233e-14
1.06604830252758e-14
1.01922494466913e-14
9.72414210676843e-15
9.2561610055086e-15
8.78830614291201e-15
8.32057751897713e-15
7.85297513370356e-15
7.38549898709277e-15
6.91814907914397e-15
6.45092540985889e-15
5.98382797923573e-15
5.51685678727399e-15
5.05001183397556e-15
4.58329311933839e-15
4.11670064336392e-15
3.65023440605205e-15
3.1838944074021e-15
2.74719160966482e-15
2.54409150102993e-15
2.54409150102869e-15
2.54409150102867e-15
2.54409150102979e-15
2.54409150102991e-15
2.54409150102975e-15
2.54409150102995e-15
2.54409150102934e-15
2.54409150103041e-15
2.54409150102992e-15
2.54409150102987e-15
2.54409150103041e-15
2.54409150102946e-15
2.54409150102975e-15
4.3837184625113e-14
4.33375596151295e-14
4.28383133211191e-14
4.233944574311e-14
4.18409568810756e-14
4.13428467350383e-14
4.08451153049707e-14
4.03477625909133e-14
3.98507885928274e-14
3.93541933107385e-14
3.88579767446263e-14
3.8362138894512e-14
3.78666797603726e-14
3.7371599342225e-14
3.68768976400708e-14
3.63825746538936e-14
3.58886303837157e-14
3.5395064829512e-14
3.49018779913013e-14
3.44090698690783e-14
3.39166404628443e-14
3.34245897725883e-14
3.29329177983307e-14
3.24416245400511e-14
3.19507099977668e-14
3.14601741714609e-14
3.09700170611474e-14
3.04802386668224e-14
2.99908389884755e-14
2.95018180261268e-14
2.90131757797568e-14
2.85249122493766e-14
2.80370274349835e-14
2.75495213365825e-14
2.70623939541607e-14
2.65756452877317e-14
2.60892753372829e-14
2.56032841028281e-14
2.51176715843571e-14
2.46324377818715e-14
2.41475826953792e-14
2.36631063248666e-14
2.31790086703459e-14
2.26952897318059e-14
2.22119495092583e-14
2.17289880026977e-14
2.12464052121259e-14
2.07642011375363e-14
2.02823757789399e-14
1.98009291363224e-14
1.93198612096943e-14
1.88391719990588e-14
1.83588615044043e-14
1.78789297257415e-14
1.73993766630604e-14
1.69202023163717e-14
1.64414066856631e-14
1.59629897709497e-14
1.54849515722185e-14
1.50072920894757e-14
1.45300113227198e-14
1.40531092719501e-14
1.35765859371689e-14
1.31004413183743e-14
1.26246754155648e-14
1.21492882287425e-14
1.16742797579094e-14
1.1199650003063e-14
1.07253989642028e-14
1.02515266413307e-14
9.77803303444573e-15
9.30491814354584e-15
8.83218196863243e-15
8.35982450970778e-15
7.88784576677077e-15
7.41624573981984e-15
6.94502442885586e-15
6.47418183387849e-15
6.00371795488886e-15
5.53363279188613e-15
5.06392634487054e-15
4.59459861384273e-15
4.12564959880082e-15
3.65707929974562e-15
3.18888771667883e-15
2.75084113087726e-15
2.54819016462714e-15
2.54819016462838e-15
2.54819016462847e-15
2.54819016462731e-15
2.5481901646273e-15
2.54819016462722e-15
2.54819016462724e-15
2.54819016462779e-15
2.54819016462664e-15
2.54819016462719e-15
2.54819016462726e-15
2.5481901646266e-15
2.54819016462776e-15
2.54819016462722e-15
4.48778020181339e-14
4.43553703007569e-14
4.38335697766787e-14
4.33124004459249e-14
4.27918623084695e-14
4.22719553643342e-14
4.17526796135096e-14
4.12340350559947e-14
4.07160216917923e-14
4.01986395209095e-14
3.96818885433231e-14
3.9165768759062e-14
3.8650280168104e-14
3.81354227704612e-14
3.76211965661347e-14
3.71076015551093e-14
3.65946377374006e-14
3.60823051130089e-14
3.5570603681914e-14
3.50595334441509e-14
3.4549094399686e-14
3.40392865485362e-14
3.35301098907033e-14
3.3021564426172e-14
3.25136501549616e-14
3.20063670770536e-14
3.14997151924621e-14
3.09936945011882e-14
3.04883050032169e-14
2.99835466985597e-14
2.94794195872195e-14
2.89759236691792e-14
2.84730589444659e-14
2.79708254130526e-14
2.74692230749559e-14
2.6968251930175e-14
2.6467911978695e-14
2.59682032205325e-14
2.5469125655686e-14
2.49706792841432e-14
2.44728641059193e-14
2.39756801209999e-14
2.34791273293967e-14
2.29832057311088e-14
2.24879153261215e-14
2.19932561144592e-14
2.14992280960987e-14
2.10058312710527e-14
2.05130656393216e-14
2.00209312008975e-14
1.95294279557878e-14
1.90385559039906e-14
1.85483150455007e-14
1.80587053803291e-14
1.75697269084639e-14
1.70813796299116e-14
1.65936635446713e-14
1.61065786527455e-14
1.56201249541265e-14
1.51343024488212e-14
1.46491111368289e-14
1.41645510181479e-14
1.3680622092778e-14
1.31973243607193e-14
1.27146578219735e-14
1.22326224765389e-14
1.17512183244155e-14
1.12704453656039e-14
1.07903036001037e-14
1.03107930279153e-14
9.8319136490389e-15
9.35366546347546e-15
8.87604847122351e-15
8.39906267228181e-15
7.92270806665198e-15
7.44698465433422e-15
6.97189243532871e-15
6.49743140963427e-15
6.02360157725137e-15
5.55040293818108e-15
5.07783549242052e-15
4.60589923997261e-15
4.13459418083744e-15
3.66392031501423e-15
3.19387764250174e-15
2.75448825648757e-15
2.5522898110149e-15
2.55228981101498e-15
2.55228981101499e-15
2.55228981101487e-15
2.55228981101607e-15
2.55228981101607e-15
2.55228981101497e-15
2.55228981101481e-15
2.5522898110149e-15
2.55228981101487e-15
2.55228981101491e-15
2.55228981101545e-15
2.55228981101557e-15
2.55228981101499e-15
4.59183744499461e-14
4.53731365201487e-14
4.48287822609746e-14
4.4285311672443e-14
4.37427247545478e-14
4.32010215072902e-14
4.26602019306751e-14
4.21202660246844e-14
4.15812137893346e-14
4.10430452246212e-14
4.05057603305469e-14
3.9969359107113e-14
3.94338415543019e-14
3.8899207672135e-14
3.83654574606105e-14
3.78325909197048e-14
3.73006080494523e-14
3.67695088498377e-14
3.62392933208474e-14
3.57099614625037e-14
3.51815132747854e-14
3.46539487577092e-14
3.41272679112695e-14
3.3601470735466e-14
3.30765572303045e-14
3.25525273957686e-14
3.20293812318754e-14
3.15071187386212e-14
3.09857399159913e-14
3.04652447640105e-14
2.9945633282667e-14
2.9426905471951e-14
2.89090613318802e-14
2.83921008624366e-14
2.78760240636276e-14
2.73608309354685e-14
2.68465214779353e-14
2.63330956910413e-14
2.58205535747877e-14
2.53088951291635e-14
2.47981203541784e-14
2.42882292498306e-14
2.37792218161185e-14
2.32710980530456e-14
2.27638579606032e-14
2.22575015388034e-14
2.17520287876327e-14
2.12474397071053e-14
2.07437342972144e-14
2.0240912557954e-14
1.97389744893318e-14
1.92379200913508e-14
1.87377493640008e-14
1.82384623072883e-14
1.77400589212128e-14
1.72425392057736e-14
1.67459031609733e-14
1.62501507868051e-14
1.5755282083277e-14
1.52612970503835e-14
1.47681956881254e-14
1.42759779965048e-14
1.37846439755204e-14
1.32941936251726e-14
1.2804626945461e-14
1.23159439363856e-14
1.18281445979468e-14
1.13412289301439e-14
1.08551969329801e-14
1.037004860645e-14
9.88578395055688e-15
9.40240296529981e-15
8.9199056506786e-15
8.43829200669433e-15
7.95756203334622e-15
7.47771573063586e-15
6.99875309856043e-15
6.5206741371226e-15
6.04347884632021e-15
5.56716722615422e-15
5.09173927662564e-15
4.61719499773223e-15
4.14353438947552e-15
3.67075745185485e-15
3.19886418487052e-15
2.75813298649941e-15
2.55639044019628e-15
2.55639044019611e-15
2.5563904401961e-15
2.55639044019622e-15
2.55639044019502e-15
2.5563904401951e-15
2.55639044019622e-15
2.55639044019618e-15
2.55639044019618e-15
2.5563904401963e-15
2.55639044019618e-15
2.5563904401956e-15
2.55639044019547e-15
2.55639044019618e-15
4.69589019205434e-14
4.63908582733007e-14
4.58239507740038e-14
4.52581794226702e-14
4.46935442193164e-14
4.41300451639034e-14
4.35676822564578e-14
4.30064554969737e-14
4.24463648854594e-14
4.18874104218853e-14
4.13295921062889e-14
4.07729099386558e-14
4.02173639189716e-14
3.96629540472532e-14
3.91096803235032e-14
3.85575427476961e-14
3.80065413198678e-14
3.74566760399943e-14
3.69079469080878e-14
3.6360353924131e-14
3.58138970881405e-14
3.52685764001161e-14
3.47243918600382e-14
3.41813434679374e-14
3.36394312237958e-14
3.30986551276062e-14
3.2559015179383e-14
3.20205113791208e-14
3.14831437268193e-14
3.09469122224785e-14
3.04118168660986e-14
2.98778576576845e-14
2.93450345972225e-14
2.8813347684727e-14
2.82827969201919e-14
2.77533823036175e-14
2.72251038350055e-14
2.66979615143524e-14
2.6171955341665e-14
2.56470853169321e-14
2.51233514401607e-14
2.46007537113591e-14
2.40792921305087e-14
2.35589666976239e-14
2.3039777412702e-14
2.25217242757349e-14
2.20048072867288e-14
2.14890264456903e-14
2.09743817526127e-14
2.04608732074913e-14
1.99485008103339e-14
1.94372645611396e-14
1.89271644599003e-14
1.84182005066228e-14
1.79103727013138e-14
1.74036810439593e-14
1.68981255345678e-14
1.63937061731362e-14
1.58904229596659e-14
1.53882758941571e-14
1.48872649766093e-14
1.43873902070236e-14
1.38886515853991e-14
1.33910491117341e-14
1.28945827860309e-14
1.23992526082892e-14
1.19050585785078e-14
1.14120006966874e-14
1.0920078962828e-14
1.042929337693e-14
9.93964393899262e-15
9.45113064901747e-15
8.96375350700363e-15
8.47751251294961e-15
7.99240766685682e-15
7.50843896872565e-15
7.02560641855506e-15
6.54391001634421e-15
6.06334976209682e-15
5.58392565580898e-15
5.10563769748219e-15
4.62848588711803e-15
4.15247022471348e-15
3.67759071027016e-15
3.203847343789e-15
2.76177532090952e-15
2.56049205216455e-15
2.56049205216472e-15
2.56049205216464e-15
2.56049205216463e-15
2.56049205216463e-15
2.56049205216455e-15
2.56049205216455e-15
2.56049205216455e-15
2.56049205216454e-15
2.56049205216447e-15
2.56049205216455e-15
2.56049205216455e-15
2.56049205216463e-15
2.56049205216455e-15
4.79993844299322e-14
4.74085355602083e-14
4.68190753157696e-14
4.6231003696617e-14
4.56443207027572e-14
4.50590263341708e-14
4.44751205908703e-14
4.38926034728682e-14
4.33114749801504e-14
4.27317351127056e-14
4.21533838705476e-14
4.1576421253693e-14
4.10008472621076e-14
4.04266618958135e-14
3.9853865154803e-14
3.92824570390793e-14
3.87124375486429e-14
3.81438066834918e-14
3.75765644436251e-14
3.70107108290448e-14
3.64462458397511e-14
3.58831694757469e-14
3.53214817370143e-14
3.47611826235816e-14
3.42022721354365e-14
3.3644750272565e-14
3.30886170349841e-14
3.25338724226848e-14
3.19805164356861e-14
3.14285490739599e-14
3.08779703375216e-14
3.03287802263696e-14
2.97809787405043e-14
2.92345658799248e-14
2.86895416446357e-14
2.81459060346199e-14
2.76036590499006e-14
2.70628006904637e-14
2.6523330956317e-14
2.59852498474434e-14
2.5448557363867e-14
2.49132535055776e-14
2.43793382725668e-14
2.38468116648396e-14
2.3315673682409e-14
2.27859243252556e-14
2.22575635933909e-14
2.17305914868118e-14
2.12050080055172e-14
2.06808131495085e-14
2.01580069187877e-14
1.9636589313355e-14
1.91165603331983e-14
1.85979199783356e-14
1.80806682487584e-14
1.75648051444623e-14
1.70503306654521e-14
1.65372448117351e-14
1.60255475832981e-14
1.55152389801479e-14
1.50063190022826e-14
1.44987876497031e-14
1.39926449224097e-14
1.34878908204034e-14
1.2984525343682e-14
1.24825484922448e-14
1.19819602660944e-14
1.14827606652304e-14
1.09849496896514e-14
1.04885273393593e-14
9.99349361435294e-15
9.49984851462979e-15
9.00759204019271e-15
8.51672419104335e-15
8.02724496717984e-15
7.53915436860025e-15
7.05245239530765e-15
6.56713904730125e-15
6.08321432457903e-15
5.60067822714436e-15
5.11953075499544e-15
4.63977190813052e-15
4.16140168655276e-15
3.68442009026063e-15
3.20882711925218e-15
2.76541525971898e-15
2.56459464692803e-15
2.56459464692787e-15
2.56459464692797e-15
2.56459464692793e-15
2.56459464692796e-15
2.56459464692805e-15
2.56459464692801e-15
2.56459464692805e-15
2.56459464692805e-15
2.56459464692801e-15
2.56459464692805e-15
2.56459464692805e-15
2.56459464692801e-15
2.56459464692804e-15
4.90398219781079e-14
4.84261683808854e-14
4.78141558862712e-14
4.72037844942686e-14
4.65950542048752e-14
4.59879650180925e-14
4.53825169339208e-14
4.47787099523604e-14
4.41765440734082e-14
4.35760192970682e-14
4.29771356233334e-14
4.23798930522264e-14
4.17842915837114e-14
4.11903312178125e-14
4.05980119545194e-14
4.00073337938548e-14
3.9418296735781e-14
3.88309007803236e-14
3.82451459274714e-14
3.76610321772399e-14
3.70785595296207e-14
3.6497727984602e-14
3.59185375421918e-14
3.53409882024018e-14
3.47650799652215e-14
3.41908128306444e-14
3.36181867986826e-14
3.30472018693259e-14
3.24778580425875e-14
3.19101553184586e-14
3.13440936969325e-14
3.07796731780184e-14
3.02168937617216e-14
2.96557554480358e-14
2.9096258236952e-14
2.8538402128478e-14
2.79821871226238e-14
2.74276132193757e-14
2.68746804187421e-14
2.63233887207074e-14
2.57737381252937e-14
2.52257286324862e-14
2.46793602422913e-14
2.41346329547035e-14
2.3591546769731e-14
2.30501016873653e-14
2.25102977076101e-14
2.19721348304701e-14
2.14356130559317e-14
2.09007323840112e-14
2.03674928146976e-14
1.98358943479978e-14
1.93059369839003e-14
1.87776207224222e-14
1.8250945563552e-14
1.77259115072908e-14
1.72025185536397e-14
1.66807667025994e-14
1.61606559541688e-14
1.56421863083497e-14
1.51253577651421e-14
1.46101703245437e-14
1.40966239865562e-14
1.3584718751178e-14
1.30744546184107e-14
1.25658315882556e-14
1.20588496607104e-14
1.15535088357743e-14
1.10498091134488e-14
1.05477504937338e-14
1.00473329766296e-14
9.54855656213633e-15
9.05142125025339e-15
8.55592704098037e-15
8.0620739343173e-15
7.56986193026616e-15
7.07929102882462e-15
6.59036122999266e-15
6.10307253377238e-15
5.61742494016164e-15
5.13341844916098e-15
4.65105306077109e-15
4.17032877499158e-15
3.69124559182253e-15
3.21380351126385e-15
2.76905280292666e-15
2.56869822447756e-15
2.56869822447756e-15
2.56869822447747e-15
2.5686982244775e-15
2.56869822447747e-15
2.56869822447746e-15
2.5686982244775e-15
2.56869822447746e-15
2.56869822447746e-15
2.5686982244775e-15
2.56869822447746e-15
2.56869822447738e-15
2.5686982244775e-15
2.56869822447746e-15
5.00802145650705e-14
4.94437567353204e-14
4.8809192485506e-14
4.81765218156261e-14
4.75457447256797e-14
4.69168612156685e-14
4.62898712856048e-14
4.56647749354503e-14
4.50415721652524e-14
4.44202629749834e-14
4.38008473646418e-14
4.31833253342558e-14
4.25676968837863e-14
4.19539620132564e-14
4.13421207226563e-14
4.07321730120094e-14
4.01241188812795e-14
3.95179583304851e-14
3.89136913596366e-14
3.83113179687188e-14
3.77108381577346e-14
3.71122519266854e-14
3.65155592755724e-14
3.59207602043903e-14
3.53278547131594e-14
3.4736842801846e-14
3.41477244704668e-14
3.35604997190343e-14
3.29751685475317e-14
3.23917309559649e-14
3.18101869443329e-14
3.12305365126368e-14
3.06527796608756e-14
3.00769163890488e-14
2.95029466971563e-14
2.89308705852002e-14
2.83606880531737e-14
2.77923991010911e-14
2.72260037289433e-14
2.66615019367184e-14
2.60988937244409e-14
2.5538179092095e-14
2.49793580396828e-14
2.4422430567211e-14
2.38673966746687e-14
2.33142563620592e-14
2.27630096293915e-14
2.22136564766589e-14
2.16661969038517e-14
2.11206309109901e-14
2.05769584980604e-14
2.00351796650647e-14
1.94952944120051e-14
1.89573027388805e-14
1.84212046456909e-14
1.78870001324332e-14
1.73546891991187e-14
1.68242718457307e-14
1.62957480722829e-14
1.57691178787691e-14
1.52443812651894e-14
1.47215382315452e-14
1.42005887778369e-14
1.36815329040639e-14
1.31643706102254e-14
1.2649101896322e-14
1.21357267623526e-14
1.16242452083191e-14
1.11146572342205e-14
1.06069628400571e-14
1.01011620258286e-14
9.59725479153534e-15
9.09524113717863e-15
8.59512106275663e-15
8.09689456826871e-15
7.6005616537161e-15
7.10612231909812e-15
6.61357656441568e-15
6.1229243896684e-15
5.63416579485583e-15
5.1473007799785e-15
4.66232934503659e-15
4.17925149003101e-15
3.6980672149608e-15
3.21877651982502e-15
2.77268795053694e-15
2.57280278482206e-15
2.57280278482223e-15
2.57280278482165e-15
2.57280278482039e-15
2.57280278482156e-15
2.57280278482156e-15
2.57280278482156e-15
2.57280278482156e-15
2.57280278482156e-15
2.57280278482223e-15
2.57280278482223e-15
2.57280278482231e-15
2.57280278482232e-15
2.5728027848229e-15
5.11205621908255e-14
5.0461300623514e-14
4.98041851134788e-14
4.91492156606967e-14
4.84963922651685e-14
4.78457149268996e-14
4.71971836458998e-14
4.65507984221486e-14
4.59065592556703e-14
4.52644661464437e-14
4.46245190944785e-14
4.39867180997739e-14
4.33510631623258e-14
4.27175542821397e-14
4.20861914592072e-14
4.1456974693546e-14
4.08299039851399e-14
4.02049793339928e-14
3.95822007401051e-14
3.89615682034788e-14
3.83430817241065e-14
3.77267413020039e-14
3.71125469371544e-14
3.65004986295604e-14
3.58905963792427e-14
3.52828401861688e-14
3.4677230050354e-14
3.40737659718107e-14
3.34724479505213e-14
3.2873275986487e-14
3.22762500797213e-14
3.16813702302155e-14
3.10886364379604e-14
3.04980487029653e-14
2.99096070252382e-14
2.93233114047678e-14
2.87391618415534e-14
2.81571583356058e-14
2.75773008869183e-14
2.69995894954792e-14
2.64240241613121e-14
2.58506048843996e-14
2.52793316647419e-14
2.47102045023514e-14
2.41432233972184e-14
2.35783883493472e-14
2.30156993587344e-14
2.24551564253797e-14
2.18967595492838e-14
2.1340508730453e-14
2.07864039688776e-14
2.02344452645599e-14
1.96846326175117e-14
1.91369660277148e-14
1.85914454951791e-14
1.80480710199008e-14
1.75068426018878e-14
1.69677602411322e-14
1.64308239376372e-14
1.58960336914008e-14
1.53633895024249e-14
1.48328913707088e-14
1.43045392962523e-14
1.37783332790538e-14
1.3254273319116e-14
1.27323594164393e-14
1.22125915710225e-14
1.16949697828645e-14
1.11794940519662e-14
1.06661643783274e-14
1.01549807619503e-14
9.64594320283244e-15
9.13905170097214e-15
8.63430625637274e-15
8.13170686903409e-15
7.63125353895443e-15
7.13294626613427e-15
6.63678505057535e-15
6.14276989227585e-15
5.650900791235e-15
5.16117774745443e-15
4.67360076093357e-15
4.18816983167189e-15
3.70488495967051e-15
3.22374614492883e-15
2.77632070254197e-15
2.57690832795485e-15
2.57690832795485e-15
2.57690832795546e-15
2.57690832795667e-15
2.57690832795554e-15
2.57690832795554e-15
2.5769083279555e-15
2.57690832795545e-15
2.57690832795554e-15
2.57690832795483e-15
2.57690832795487e-15
2.57690832795477e-15
2.57690832795475e-15
2.5769083279542e-15
)
;


// ************************************************************************* //
