/*--------------------------------*- C++ -*----------------------------------*\
| =========                 |                                                 |
| \\      /  F ield         | OpenFOAM: The Open Source CFD Toolbox           |
|  \\    /   O peration     | Version:  4.1                                   |
|   \\  /    A nd           | Web:      www.OpenFOAM.org                      |
|    \\/     M anipulation  |                                                 |
\*---------------------------------------------------------------------------*/
FoamFile
{
    version     2.0;
    format      ascii;
    class       volScalarField;
    location    "0.000740";
    object      nut;
}
// * * * * * * * * * * * * * * * * * * * * * * * * * * * * * * * * * * * * * //

dimensions      [0 2 -1 0 0 0 0];

internalField   nonuniform List<scalar> 
3072
(
0.0002223604
0.00017820295
0.00016602365
0.0001606951
0.00015929734
0.00015974882
0.00016181413
0.00016521637
0.00016998307
0.00017617126
0.0001836962
0.00019265955
0.0002029576
0.00021456257
0.00022720843
0.00024070877
0.0002546098
0.00026852703
0.0002819536
0.00029450952
0.00030606361
0.00031653032
0.00032604226
0.00033433245
0.0003003786
0.00025556013
0.00023623499
0.00022729996
0.00022500727
0.00022572738
0.00022861742
0.00023322207
0.00023974093
0.00024784677
0.0002578565
0.00026960308
0.00028307133
0.00029813221
0.00031433623
0.00033149152
0.00034885063
0.00036606206
0.00038237807
0.00039741864
0.00041109425
0.00042344264
0.00043487551
0.00044521438
0.00033130438
0.00028544887
0.00026345886
0.00025407131
0.0002512213
0.00025173369
0.00025462691
0.00025949232
0.00026649847
0.00027539553
0.00028640005
0.00029934757
0.000314241
0.00033094305
0.00034899519
0.00036819019
0.00038766181
0.00040703363
0.0004253895
0.0004422663
0.00045751645
0.00047123135
0.0004839722
0.00049564471
0.00036253271
0.00031205422
0.00028631206
0.00027537196
0.0002712983
0.00027100977
0.00027341182
0.00027802019
0.0002850354
0.0002942518
0.00030582863
0.00031961886
0.00033566866
0.00035384859
0.00037371378
0.00039504281
0.00041690843
0.00043886768
0.00045979687
0.00047906335
0.00049641659
0.00051198934
0.00052636517
0.00053968893
0.0003934606
0.00033932265
0.0003104811
0.00029782211
0.00029227258
0.0002907064
0.0002920455
0.00029583699
0.00030220555
0.00031108604
0.00032257116
0.00033661317
0.00035324681
0.00037238351
0.00039359579
0.00041666514
0.00044067433
0.00046498951
0.00048829569
0.00050975846
0.00052890168
0.00054590344
0.0005613126
0.00057574667
0.00041340953
0.00035794215
0.00032728545
0.00031309618
0.0003058887
0.00030253706
0.00030219174
0.00030449206
0.00030946989
0.00031730719
0.00032800949
0.0003416925
0.00035832508
0.00037791843
0.00040012291
0.00042465054
0.0004506831
0.00047733968
0.00050327005
0.00052731757
0.00054872599
0.00056763881
0.00058462018
0.00060060688
0.00040315801
0.00035231357
0.00032216253
0.00030710638
0.00029840346
0.00029354526
0.00029142822
0.00029208552
0.00029555491
0.00030207015
0.00031155267
0.00032439466
0.00034050042
0.00036004303
0.00038284537
0.0004086373
0.00043683488
0.00046629894
0.00049584128
0.0005238116
0.00054928214
0.00057189192
0.00059212256
0.00061072365
0.00032877661
0.00029122773
0.00027010738
0.00025947971
0.00025223723
0.00024725104
0.00024436885
0.00024386096
0.00024598141
0.00025097267
0.00025912245
0.00027066554
0.00028588262
0.00030496581
0.00032797721
0.00035485356
0.00038520003
0.00041816128
0.00045219148
0.00048525747
0.0005153899
0.00054123652
0.00056267244
0.00058061535
0.00030041836
0.00025559173
0.00023624451
0.00022728241
0.00022496484
0.00022566536
0.00022854172
0.00023313603
0.000239642
0.0002477349
0.00025773499
0.0002694772
0.00028294408
0.00029801033
0.00031422428
0.00033138532
0.0003487479
0.00036596256
0.0003822752
0.00039729912
0.00041094523
0.00042327899
0.00043468828
0.00044500298
0.00041308503
0.00037661816
0.00035318481
0.0003426176
0.00033998159
0.00034106532
0.00034447275
0.00034972937
0.00035725631
0.00036626479
0.00037761362
0.00039071892
0.00040567487
0.00042221998
0.00043969805
0.00045789456
0.00047574717
0.00049294998
0.00050860348
0.0005223748
0.00053438012
0.00054496021
0.00055487937
0.00056412142
0.00046583874
0.00042347339
0.00039505162
0.00038298276
0.00037895446
0.00037922937
0.00038217479
0.00038719428
0.00039468909
0.00040400819
0.00041577703
0.00042942651
0.00044503362
0.0004623386
0.00048065225
0.00049978982
0.00051858034
0.00053670228
0.00055314103
0.00056752175
0.00057995031
0.00059079825
0.0006010193
0.00061059177
0.00052259536
0.00047310781
0.00043867511
0.00042361156
0.00041735822
0.00041615699
0.00041818194
0.00042255116
0.00042965721
0.00043904909
0.00045106562
0.000465259
0.00048167158
0.00050007502
0.00051975182
0.00054050161
0.00056116353
0.0005813126
0.00059982688
0.0006161721
0.00063038251
0.00064285492
0.00065448565
0.00066548101
0.00057202738
0.00052018651
0.00048237582
0.0004648303
0.00045655585
0.00045327005
0.00045346156
0.00045645084
0.00046217171
0.00047065846
0.00048190234
0.00049574534
0.00051212322
0.00053085984
0.00055128364
0.00057313247
0.00059537644
0.00061734598
0.00063784655
0.00065619637
0.00067213954
0.00068617268
0.00069900346
0.00071129633
0.00059234124
0.00054178706
0.00050294318
0.00048343554
0.00047272793
0.00046710372
0.00046476611
0.00046561956
0.0004691802
0.00047597874
0.0004858014
0.00049878994
0.00051469823
0.00053342927
0.00055448821
0.00057745236
0.00060144448
0.00062551964
0.00064847899
0.00066932298
0.00068761938
0.00070358168
0.00071800858
0.00073175666
0.00054499588
0.00049571338
0.00045742767
0.00043758925
0.00042613492
0.00041954948
0.00041655488
0.00041661002
0.00041956104
0.00042555429
0.00043484915
0.00044743821
0.00046321215
0.00048215092
0.00050399584
0.00052823196
0.00055404944
0.00058033298
0.00060576009
0.00062902157
0.00064939941
0.00066694945
0.00068259134
0.00069740927
0.00040285969
0.00035206958
0.00032192193
0.00030690933
0.0002982705
0.00029346449
0.00029141043
0.00029198872
0.00029540623
0.00030194851
0.00031147428
0.00032434288
0.00034043838
0.00035998658
0.0003828519
0.00040870611
0.00043691258
0.00046632029
0.00049576077
0.00052373797
0.00054912077
0.00057153621
0.00059152954
0.00060997278
0.0003309795
0.00028506353
0.00026302562
0.00025356695
0.00025064745
0.00025110085
0.00025395385
0.00025878478
0.00026576016
0.00027463627
0.0002856403
0.00029861521
0.00031354799
0.00033029584
0.00034838824
0.00036760023
0.00038705765
0.00040638847
0.00042469191
0.00044149862
0.00045665898
0.00047031426
0.00048301133
0.00049462124
0.00046531385
0.00042284209
0.00039434429
0.00038220256
0.00037809839
0.0003783114
0.00038121434
0.00038620825
0.0003936883
0.00040301603
0.0004148342
0.00042856046
0.00044425391
0.00046163377
0.00047999964
0.00049914906
0.00051790652
0.00053596254
0.00055232857
0.00056664618
0.00057901504
0.00058986052
0.0006000854
0.00060962942
0.00054324457
0.0004914983
0.00045434986
0.00043807367
0.00043137822
0.00043034677
0.00043271445
0.00043761688
0.00044529185
0.00045494884
0.00046732558
0.00048173453
0.00049824067
0.00051655984
0.00053593786
0.00055621206
0.00057610291
0.00059538316
0.00061294279
0.00062848423
0.00064201719
0.00065395096
0.00066510792
0.00067538862
0.0006280757
0.00057369354
0.00052987083
0.00050915647
0.00049934007
0.00049644836
0.00049779658
0.00050210738
0.00050950096
0.00051931563
0.0005319676
0.00054693555
0.00056426231
0.00058367249
0.00060438872
0.00062622002
0.00064797726
0.0006693306
0.00068917631
0.00070711232
0.00072300688
0.00073717936
0.00075034619
0.0007625775
0.0006872056
0.00063812925
0.00059399065
0.00057171126
0.00055980717
0.00055455595
0.00055373883
0.00055638122
0.00056210913
0.00057081507
0.00058243635
0.00059675055
0.00061368513
0.00063298858
0.00065402885
0.00067641271
0.00069921228
0.00072175793
0.00074306886
0.00076261124
0.0007800406
0.00079566109
0.00080999206
0.00082351781
0.000685208
0.00063930507
0.00059675968
0.00057446642
0.00056154968
0.00055491808
0.00055254108
0.00055345158
0.00055754502
0.00056478276
0.00057513252
0.00058858669
0.00060488158
0.00062383087
0.00064498709
0.00066774323
0.00069131666
0.00071475303
0.00073711099
0.00075763697
0.00077584425
0.00079193543
0.00080659501
0.00082047312
0.00059144491
0.00054093373
0.0005019411
0.00048238271
0.00047169818
0.00046633476
0.00046415847
0.00046509567
0.00046876353
0.00047570111
0.0004856199
0.00049874772
0.00051472818
0.00053352122
0.00055466144
0.00057771228
0.00060171904
0.0006256875
0.00064851417
0.00066921895
0.00068733975
0.00070310529
0.00071731364
0.00073093112
0.0004126229
0.00035717001
0.00032654065
0.00031240279
0.00030525434
0.00030198013
0.00030170751
0.00030404455
0.0003090486
0.00031691645
0.00032767484
0.0003414267
0.00035812098
0.00037776751
0.00040003359
0.00042463431
0.00045068957
0.00047728192
0.00050310908
0.00052705668
0.00054835371
0.00056711721
0.00058390394
0.0005997063
0.0003620495
0.00031145451
0.00028561737
0.00027457298
0.00027039077
0.00027000171
0.00027232333
0.00027687846
0.00028383925
0.00029300927
0.00030456639
0.00031838542
0.00033448665
0.00035272996
0.00037265595
0.00039401627
0.00041585885
0.00043774801
0.00045859667
0.00047778914
0.00049506191
0.00051059858
0.00052496683
0.00053823783
0.00052196301
0.00047232492
0.00043777202
0.0004225581
0.00041616816
0.00041485437
0.00041679041
0.00042107897
0.00042813414
0.00043749719
0.00044954024
0.00046381926
0.00048035072
0.0004988672
0.00051863501
0.00053942623
0.00056005529
0.00058012988
0.00059856969
0.00061487658
0.00062904782
0.00064151438
0.00065318027
0.00066417486
0.00062781137
0.00057336469
0.00052947972
0.00050869786
0.00049884273
0.0004959129
0.00049720717
0.00050148409
0.00050885872
0.00051867937
0.00053138809
0.00054643762
0.0005638493
0.00058333772
0.00060412837
0.00062601925
0.00064779876
0.00066916879
0.00068902365
0.00070696698
0.00072285138
0.00073702052
0.00075017695
0.00076242138
0.00071229767
0.00066313126
0.00061648969
0.00059258153
0.00057992563
0.00057524994
0.0005756584
0.0005796872
0.00058709222
0.00059721053
0.00061031824
0.00062593355
0.00064403835
0.00066430353
0.0006860272
0.00070891178
0.00073194657
0.00075465505
0.00077608624
0.0007957578
0.00081337171
0.0008291423
0.00084360585
0.00085698558
0.00073877122
0.00069473084
0.00064988689
0.00062624598
0.00061298451
0.00060738092
0.00060680337
0.00061014907
0.00061677399
0.00062645827
0.00063901938
0.00065428997
0.00067204171
0.00069198746
0.00071367115
0.00073654644
0.00075981695
0.00078274598
0.00080454194
0.000824634
0.00084262374
0.00085864225
0.00087321902
0.00088677016
0.00068636633
0.00063735135
0.00059301899
0.00057067033
0.00055885669
0.00055381486
0.00055320341
0.00055598623
0.00056187032
0.00057068465
0.00058238021
0.00059682973
0.0006137721
0.00063301868
0.00065408179
0.00067652565
0.00069938017
0.00072194931
0.00074329557
0.00076282815
0.00078018919
0.00079569038
0.00080991641
0.00082342894
0.00057017136
0.00051836465
0.00048048224
0.00046299601
0.00045495615
0.00045191222
0.00045237607
0.0004555537
0.00046146196
0.00047009443
0.00048147721
0.00049550661
0.00051197813
0.00053073907
0.00055123182
0.00057316586
0.00059546723
0.0006174126
0.00063783479
0.00065600984
0.00067170589
0.00068542929
0.00069796247
0.00071005616
0.00039190625
0.00033786643
0.00030914572
0.00029661547
0.00029122225
0.00028977329
0.00029126591
0.00029516261
0.0003015926
0.00031050289
0.00032203908
0.00033614463
0.00035282607
0.0003719789
0.00039321981
0.00041634339
0.00044041134
0.00046474816
0.00048801592
0.00050940422
0.00052842892
0.00054528013
0.0005604821
0.00057470325
0.00039302692
0.00033876875
0.00030981316
0.00029702292
0.00029133334
0.00028963776
0.00029087839
0.00029459596
0.00030089907
0.00030972754
0.00032119368
0.00033526784
0.00035195838
0.00037116931
0.00039245765
0.00041556867
0.00043954406
0.00046375487
0.00048694997
0.00050834324
0.00052743606
0.00054444556
0.00055988978
0.00057428159
0.00057154062
0.00051958667
0.00048162958
0.00046388799
0.00045541906
0.00045197423
0.00045205393
0.00045493847
0.000460587
0.00046902621
0.00048028478
0.00049420574
0.00051070917
0.0005295845
0.00055013608
0.00057206016
0.00059429659
0.00061619833
0.00063663284
0.00065495765
0.00067089158
0.00068494201
0.00069783099
0.00071016403
0.00068690357
0.00063774297
0.00059348445
0.00057108944
0.00055910662
0.000553786
0.00055291911
0.00055549044
0.00056119094
0.00056990722
0.00058159861
0.00059601924
0.00061308846
0.00063251946
0.00065366014
0.00067611883
0.00069896637
0.00072154735
0.00074288832
0.00076246679
0.00077993024
0.00079554491
0.00080987412
0.00082342892
0.00073858807
0.0006944792
0.00064960165
0.00062595138
0.00061269644
0.00060710019
0.00060649643
0.00060980862
0.00061642606
0.00062614693
0.00063879384
0.00065416655
0.00067200224
0.00069198301
0.00071368039
0.00073656487
0.00075984864
0.00078279895
0.00080460599
0.00082470934
0.00084267349
0.0008586428
0.00087319274
0.00088677697
0.00071145712
0.00066242347
0.00061564995
0.00059179509
0.0005793097
0.0005747875
0.00057530424
0.00057949068
0.00058699267
0.00059724015
0.00061040617
0.00062616373
0.0006442002
0.00066427559
0.00068597812
0.0007089027
0.00073204861
0.00075486996
0.00077639779
0.00079618023
0.00081376757
0.00082932579
0.00084360416
0.00085696555
0.00062632863
0.00057200296
0.00052799696
0.000507332
0.00049778924
0.00049517992
0.00049677674
0.00050138489
0.00050901167
0.0005189887
0.00053177992
0.00054694092
0.00056427759
0.0005835811
0.00060431772
0.00062624236
0.00064816706
0.00066968318
0.00068963294
0.00070761413
0.00072337558
0.00073728611
0.00075019703
0.000762359
0.00051961408
0.00047025394
0.00043588983
0.00042101969
0.00041516377
0.00041430537
0.00041663348
0.00042130964
0.0004286524
0.00043821271
0.00045037587
0.00046475592
0.00048124423
0.00049961536
0.00051931379
0.0005401497
0.00056097695
0.00058129556
0.00059988098
0.00061614826
0.0006300884
0.00064221643
0.00065350181
0.00066425082
0.00036029751
0.00031005358
0.00028453141
0.00027379322
0.00026991806
0.00026983568
0.00027241765
0.000277183
0.00028428252
0.00029353336
0.00030515725
0.00031899945
0.00033507101
0.00035322269
0.0003730627
0.0003944249
0.00041639048
0.00043847484
0.00045947955
0.00047873283
0.00049596704
0.00051136977
0.00052550488
0.00053862305
0.00041313205
0.00035754838
0.00032677264
0.00031244253
0.00030508327
0.00030159853
0.00030114408
0.00030335208
0.00030826408
0.00031606675
0.00032676933
0.00034049265
0.00035719422
0.00037688076
0.00039918852
0.00042379185
0.00044981983
0.00047639194
0.00050220695
0.00052618101
0.00054757204
0.00056650855
0.00058353399
0.00059951808
0.00059203607
0.00054139742
0.00050238144
0.00048265337
0.00047172296
0.00046596651
0.0004635188
0.00046427343
0.00046774734
0.00047452399
0.00048439282
0.00049747431
0.00051352215
0.00053241065
0.00055362315
0.00057670271
0.00060075088
0.00062482838
0.00064776688
0.00066859612
0.00068691981
0.00070289989
0.00071738922
0.0007312246
0.00068499688
0.00063898424
0.00059632986
0.00057394159
0.00056094815
0.00055424443
0.00055181812
0.00055264256
0.00055669097
0.00056396253
0.00057440194
0.00058797299
0.00060440396
0.00062344401
0.00064466922
0.00066749822
0.00069115937
0.00071469622
0.00073713847
0.00075770096
0.00077594128
0.00079200117
0.00080661268
0.00082047633
0.00068615391
0.00063703288
0.00059269854
0.00057038386
0.00055860005
0.00055356081
0.00055287833
0.00055563597
0.0005615478
0.00057045002
0.00058228627
0.0005969026
0.00061391917
0.00063314577
0.00065419294
0.00067665312
0.00069955797
0.000722212
0.00074362128
0.00076320006
0.00078055455
0.00079592441
0.00081003136
0.00082352984
0.00062625637
0.00057190163
0.00052789166
0.00050723293
0.00049770626
0.00049507077
0.00049664966
0.0005012472
0.00050890686
0.00051896351
0.00053187386
0.00054715627
0.00056453936
0.00058382663
0.0006045651
0.00062650631
0.00064846395
0.00067002243
0.00069000462
0.00070799791
0.00072374978
0.00073757226
0.0007504013
0.00076255595
0.00054055294
0.00048888433
0.00045178577
0.00043576105
0.00042938357
0.00042874721
0.00043150222
0.00043679046
0.00044476887
0.00045472376
0.00046731544
0.00048193649
0.00049846332
0.00051667557
0.0005360523
0.00055644151
0.00057661499
0.00059622846
0.00061402137
0.00062959852
0.00064295333
0.00065453948
0.00066537616
0.00067553598
0.00046189791
0.00041992394
0.00039186306
0.00038026563
0.00037665503
0.00037735224
0.00038067491
0.00038605681
0.00039381878
0.00040332502
0.00041525124
0.00042905383
0.00044468751
0.00046190444
0.00048018428
0.00049939177
0.00051841875
0.00053684979
0.0005534884
0.00056783831
0.00058003996
0.00059057952
0.00060047363
0.00060980589
0.0003286886
0.00028326577
0.00026163957
0.00025253461
0.00024994438
0.0002506994
0.00025380824
0.00025883539
0.00026593649
0.00027487911
0.00028593653
0.00029892292
0.00031380862
0.00033044177
0.00034842449
0.00036762165
0.00038720106
0.00040674254
0.00042522239
0.0004420995
0.00045724622
0.00047079745
0.00048328911
0.00049478316
0.000403034
0.00035212494
0.00032183772
0.00030668572
0.0002978928
0.00029294358
0.0002907481
0.00029130838
0.00029473204
0.00030123703
0.00031073878
0.00032358532
0.00033974579
0.00035937048
0.00038226249
0.00040812647
0.00043635501
0.00046581783
0.00049530002
0.00052327675
0.00054875439
0.0005713654
0.0005915735
0.00061016207
0.00054485869
0.00049549776
0.00045712976
0.00043717421
0.00042560484
0.00041891934
0.00041584873
0.00041585739
0.00041874187
0.0004247005
0.00043403071
0.00044670121
0.0004625975
0.00048163824
0.00050359182
0.00052790852
0.00055379255
0.00058013754
0.00060559331
0.00062886693
0.00064920998
0.00066673876
0.00068239514
0.00069730327
0.00059139246
0.00054080841
0.00050180691
0.00048225618
0.00047156271
0.00046615835
0.0004639304
0.00046483963
0.00046849585
0.00047547351
0.000485473
0.00049872246
0.00051476506
0.00053357123
0.00055473644
0.00057785179
0.00060197479
0.00062613217
0.00064914185
0.00066997385
0.00068802175
0.0007036189
0.00071773137
0.00073135249
0.00057038309
0.0005185551
0.00048065062
0.00046314944
0.00045508538
0.00045202753
0.00045243634
0.00045560829
0.00046154659
0.00047023566
0.0004816998
0.00049583148
0.00051233387
0.00053107778
0.00055161237
0.0005736351
0.0005960673
0.00061819064
0.00063875211
0.00065700587
0.00067274263
0.00068637805
0.00069878369
0.00071089533
0.00052001894
0.00047066685
0.00043624779
0.00042132509
0.00041543538
0.00041452253
0.00041682853
0.00042149019
0.00042884612
0.00043844639
0.00045067623
0.00046512416
0.00048162787
0.00050001834
0.00051981612
0.00054077275
0.00056173135
0.00058219706
0.000600889
0.00061718515
0.00063112007
0.00064317501
0.00065437786
0.00066514629
0.00046220998
0.00042022578
0.00039211208
0.00038049512
0.00037684503
0.00037751431
0.00038082632
0.00038619571
0.00039395112
0.00040347124
0.00041543569
0.0004292712
0.00044491891
0.00046217893
0.00048055603
0.00049985946
0.00051896792
0.00053747683
0.00055416289
0.00056851291
0.00058069617
0.00059119659
0.00060105791
0.00061039999
0.00040927665
0.00037357545
0.00035082931
0.00034079699
0.00033862774
0.00034013654
0.00034388383
0.00034943798
0.00035715268
0.00036625892
0.00037770278
0.00039087306
0.0004057796
0.00042219494
0.00043961701
0.00045786199
0.00047592995
0.0004934432
0.00050931522
0.00052309462
0.00053494697
0.00054527723
0.0005549002
0.00056392728
0.00029810841
0.00025384105
0.00023491742
0.00022631051
0.0002242665
0.00022521173
0.00022828415
0.00023301909
0.00023960174
0.00024774751
0.00025780301
0.00026956996
0.00028300695
0.00029798403
0.00031411019
0.00033124061
0.00034866552
0.00036600493
0.00038242187
0.00039747746
0.00041108444
0.00042328519
0.00043447542
0.00044469118
0.0003285764
0.00029099764
0.00026987234
0.00025921081
0.00025192689
0.00024689392
0.00024396455
0.00024341627
0.00024551313
0.0002504908
0.00025866275
0.00027024971
0.00028551403
0.00030463887
0.00032771286
0.00035463502
0.00038501358
0.00041796573
0.00045199928
0.00048507967
0.00051522508
0.00054116479
0.00056267556
0.00058065576
0.00040268022
0.00035185816
0.0003217403
0.00030670336
0.00029802915
0.00029317633
0.00029108217
0.0002916425
0.00029505046
0.00030160103
0.00031115712
0.00032411932
0.0003402911
0.00035989118
0.00038281399
0.00040876486
0.00043707235
0.00046661905
0.00049622508
0.00052416635
0.00054951107
0.00057196857
0.00059203041
0.00061057679
0.00041258022
0.00035714945
0.00032653435
0.00031239082
0.00030523352
0.00030194568
0.00030164112
0.00030397558
0.00030899781
0.0003168975
0.00032771228
0.0003415423
0.00035829001
0.00037796209
0.00040025948
0.00042492215
0.00045108235
0.00047783125
0.00050381171
0.00052783317
0.0005491185
0.00056785156
0.00058464349
0.0006005379
0.00039212765
0.00033809509
0.00030936634
0.00029681394
0.00029140667
0.00028991428
0.00029138568
0.00029528452
0.00030173224
0.00031066472
0.00032223627
0.00033638666
0.00035309089
0.0003722614
0.00039355327
0.00041675139
0.00044092805
0.00046541298
0.00048881408
0.00051026913
0.00052931301
0.00054613678
0.00056130898
0.00057561893
0.00036062873
0.00031037329
0.00028483515
0.00027406776
0.0002701532
0.00027004024
0.00027260341
0.00027736272
0.00028446256
0.00029371461
0.00030534872
0.00031920269
0.00033527819
0.00035346013
0.00037337772
0.00039482908
0.00041689126
0.00043908591
0.00046017576
0.00047946038
0.00049668815
0.00051205241
0.0005261646
0.00053935138
0.00032889356
0.00028346751
0.00026184073
0.0002527153
0.00025010231
0.00025083588
0.00025392742
0.00025894585
0.00026604122
0.00027498265
0.00028604962
0.00029904243
0.00031393507
0.00033060777
0.00034866501
0.00036793055
0.00038756607
0.00040716169
0.00042567919
0.00044256415
0.00045769401
0.00047121384
0.00048369328
0.0004952223
0.00029810652
0.00025386013
0.00023494675
0.00022635005
0.00022430045
0.00022523646
0.00022829876
0.00023303022
0.00023961146
0.00024775958
0.0002578199
0.00026958705
0.00028302462
0.00029801212
0.00031415665
0.00033129961
0.0003487308
0.00036607515
0.00038249494
0.00039754826
0.00041114532
0.00042333203
0.00043452046
0.00044474562
0.00022122845
0.00017738088
0.00016538651
0.00016021786
0.00015893631
0.00015949216
0.00016164686
0.00016510125
0.0001698959
0.00017610685
0.0001836629
0.00019264074
0.0002029257
0.00021448881
0.00022707758
0.00024054344
0.00025445399
0.00026841558
0.0002818789
0.00029443472
0.00030594176
0.00031628575
0.00032556948
0.00033380667
0.00019996557
0.00019832839
0.00019638831
0.00019419931
0.00019166254
0.00018881025
0.00018557197
0.00018200852
0.00017823376
0.00017432856
0.00017051326
0.000166777
0.00016329054
0.00016006244
0.00015713317
0.00015460948
0.00015230703
0.00015045075
0.00014885332
0.00014762124
0.00014680906
0.00014651767
0.00014661794
0.00015283813
0.00022105235
0.00021852225
0.00021562053
0.00021239174
0.00020872768
0.00020463222
0.00020006188
0.00019510947
0.00018995498
0.00018473226
0.00017968154
0.00017486105
0.00017042447
0.00016641896
0.0001628856
0.00015990561
0.00015738336
0.00015544323
0.00015399478
0.00015312584
0.00015289181
0.00015359591
0.00015544442
0.00016710562
0.00023983875
0.00023595739
0.00023182447
0.00022747508
0.00022278114
0.00021771131
0.00021224269
0.00020646539
0.00020060575
0.00019478389
0.00018923888
0.00018404623
0.00017933159
0.00017514741
0.00017151516
0.00016850085
0.00016604977
0.00016425513
0.00016305795
0.00016256143
0.00016286106
0.00016440379
0.00016777597
0.00018186213
0.00027033734
0.00026313675
0.00025613971
0.00024935159
0.00024262824
0.00023587187
0.00022905687
0.00022223709
0.00021565386
0.00020936739
0.00020357358
0.00019830854
0.00019365991
0.00018965798
0.00018628647
0.00018359811
0.00018153687
0.00018020573
0.00017950147
0.00017961229
0.00018063077
0.00018321544
0.00018844451
0.00020577915
0.00032515315
0.00030968721
0.00029559645
0.0002828638
0.00027133162
0.00026078538
0.00025113814
0.00024234164
0.00023452528
0.00022762871
0.00022168236
0.00021662268
0.00021243955
0.00020908584
0.00020652441
0.00020475236
0.00020372971
0.00020347595
0.0002038993
0.00020523931
0.00020751341
0.00021174247
0.00021945283
0.00024119922
0.00041249421
0.00038094732
0.00035274765
0.000328177
0.0003071061
0.0002893223
0.00027448455
0.00026235976
0.00025265863
0.00024504999
0.00023921771
0.00023486618
0.00023183824
0.0002299401
0.00022912007
0.00022928117
0.0002303987
0.00023230877
0.00023509062
0.00023862976
0.00024336518
0.00025029148
0.00026097865
0.0002863129
0.00052174899
0.00046593615
0.00041571617
0.00037251012
0.00033685657
0.00030858862
0.00028705113
0.00027121901
0.00026000025
0.00025244697
0.00024768376
0.00024507292
0.00024423244
0.00024482394
0.00024671097
0.00024981762
0.0002539917
0.00025920132
0.00026525465
0.00027229439
0.00028035456
0.00029057612
0.00030321704
0.00032764944
0.00062284641
0.0005357459
0.00045601476
0.00038821695
0.00033478839
0.00029595918
0.00026982028
0.00025353591
0.00024440309
0.00024015937
0.0002391973
0.00024049552
0.0002434347
0.00024767764
0.00025302237
0.00025934326
0.00026674823
0.00027520068
0.00028458383
0.00029484736
0.0003056003
0.00031781454
0.00032902371
0.00034686159
0.00010144959
0.00010163297
0.00010181729
0.00010199566
0.00010215756
0.00010229402
0.00010237181
0.00010237371
0.0001022797
0.00010208864
0.00010180504
0.00010143135
0.00010098967
0.00010048707
9.9950087e-05
9.9389892e-05
9.8854313e-05
9.8360708e-05
9.7974435e-05
9.7758586e-05
9.7860253e-05
9.889314e-05
0.00010099184
0.00010955923
0.00010756212
0.00010760808
0.00010765701
0.00010770981
0.00010776624
0.00010781463
0.00010783522
0.00010781007
0.00010772642
0.00010758669
0.00010739052
0.00010714956
0.00010686779
0.00010655787
0.00010623118
0.00010589454
0.00010558135
0.00010529697
0.00010509515
0.00010502352
0.00010522265
0.00010614509
0.00010807004
0.00011567276
0.00011263439
0.00011259868
0.0001125634
0.0001125405
0.00011253648
0.00011254517
0.00011254901
0.00011253176
0.00011247886
0.00011238765
0.00011225518
0.00011208368
0.00011187735
0.00011163741
0.00011137743
0.00011109532
0.00011082125
0.00011055713
0.00011035062
0.00011024618
0.00011038668
0.00011109507
0.00011270586
0.00011920211
0.00011648071
0.00011633109
0.00011616551
0.00011601187
0.00011588983
0.00011580036
0.00011572983
0.0001156608
0.00011557449
0.00011546097
0.00011531012
0.00011511755
0.00011488146
0.00011460195
0.00011428637
0.0001139387
0.0001135764
0.00011321189
0.00011288444
0.00011264056
0.00011263708
0.00011308368
0.00011432009
0.0001198615
0.00011852293
0.00011811673
0.00011767288
0.0001172454
0.00011687229
0.00011656555
0.00011631459
0.00011609858
0.00011589221
0.00011567462
0.00011542704
0.00011513761
0.00011479865
0.00011440893
0.00011397187
0.00011349562
0.00011299297
0.00011248293
0.00011199642
0.00011157896
0.00011144458
0.00011165194
0.00011254325
0.00011738836
0.00011813706
0.00011727049
0.00011636621
0.00011550795
0.00011474985
0.00011411139
0.0001135815
0.00011313211
0.0001127284
0.00011233831
0.0001119349
0.00011149821
0.00011101519
0.00011048381
0.00010990455
0.00010928963
0.00010864764
0.00010800749
0.00010739109
0.00010695957
0.00010670399
0.00010674398
0.00010739612
0.00011197255
0.00011489805
0.00011334269
0.00011181492
0.00011041845
0.00010920577
0.00010818524
0.00010733095
0.00010660051
0.00010594996
0.0001053405
0.00010474121
0.00010412851
0.00010348615
0.00010281238
0.00010210841
0.00010138375
0.00010066004
9.9993029e-05
9.948407e-05
9.9063196e-05
9.8780665e-05
9.8761456e-05
9.9320874e-05
0.00010430088
0.00010973513
0.00010698998
0.00010451066
0.00010241298
0.00010069424
9.9291652e-05
9.812427e-05
9.711818e-05
9.621668e-05
9.5380644e-05
9.458172e-05
9.3798312e-05
9.3019621e-05
9.2247981e-05
9.1496099e-05
9.0884047e-05
9.0345198e-05
8.9855492e-05
8.943263e-05
8.9092915e-05
8.8878455e-05
8.8896735e-05
8.9448306e-05
9.5577791e-05
0.00062308196
0.00053589627
0.00045604151
0.0003881747
0.00033473027
0.00029589955
0.00026975802
0.00025347563
0.00024432979
0.0002400646
0.00023908314
0.00024036963
0.00024330333
0.00024754589
0.00025289722
0.00025922511
0.00026663472
0.00027509601
0.00028448722
0.00029476392
0.00030552802
0.00031775382
0.0003289683
0.00034681027
0.00052132492
0.00046559172
0.00041542464
0.00037228335
0.00033668153
0.00030845041
0.00028694431
0.00027112461
0.00025988404
0.00025228867
0.00024748381
0.00024484377
0.00024398786
0.00024456872
0.00024645269
0.00024955551
0.00025372545
0.00025892688
0.00026498344
0.00027204212
0.00028012701
0.00029037058
0.00030302318
0.00032745077
0.00041201004
0.00038060715
0.00035247525
0.00032796438
0.00030694234
0.0002891981
0.00027438918
0.0002622675
0.00025253599
0.00024487647
0.0002389925
0.00023460147
0.00023154264
0.00022962022
0.00022878516
0.000228935
0.00023004441
0.00023195279
0.00023472541
0.0002382361
0.00024293561
0.0002498374
0.00026050605
0.0002858034
0.00032479935
0.00030945576
0.00029540896
0.00028270652
0.00027119851
0.00026066948
0.00025102674
0.00024221571
0.0002343639
0.00022742371
0.00022143812
0.00021634415
0.00021213019
0.00020875095
0.00020616906
0.0002043819
0.0002033533
0.00020308707
0.00020349101
0.00020479022
0.00020702287
0.00021120724
0.00021887207
0.00024054876
0.00027006543
0.00026294991
0.00025598587
0.00024922299
0.00024252243
0.00023577216
0.00022893981
0.00022208555
0.00021546492
0.00020914591
0.00020332884
0.0001980405
0.00019336638
0.00018934106
0.00018594854
0.00018324384
0.00018116948
0.0001798208
0.00017908764
0.00017915961
0.00018013298
0.00018266326
0.00018783562
0.00020508821
0.00023964235
0.00023581298
0.00023170786
0.000227386
0.00022272079
0.00021766014
0.00021216747
0.00020634852
0.00020045257
0.00019460768
0.00018905042
0.00018384163
0.00017910517
0.00017489845
0.00017124342
0.00016820972
0.00016574109
0.00016392558
0.00016269578
0.000162158
0.00016240175
0.00016388961
0.00016720261
0.00018119609
0.00022093209
0.00021842665
0.00021554723
0.0002123483
0.00020871758
0.0002046376
0.00020005047
0.00019506468
0.00018988367
0.00018464677
0.00017958842
0.00017475446
0.00017029839
0.00016627093
0.00016271401
0.00015971323
0.00015717341
0.00015521303
0.00015373362
0.00015282291
0.00015252917
0.00015317667
0.00015495914
0.00016652834
0.00019991112
0.00019826741
0.00019633227
0.00019416406
0.00019165456
0.00018881719
0.00018556888
0.00018198374
0.000178191