/*--------------------------------*- C++ -*----------------------------------*\
| =========                 |                                                 |
| \\      /  F ield         | foam-extend: Open Source CFD                    |
|  \\    /   O peration     | Version:     4.1-20200408                       |
|   \\  /    A nd           | Web:         http://www.foam-extend.org         |
|    \\/     M anipulation  |                                                 |
\*---------------------------------------------------------------------------*/
FoamFile
{
    version     2.0;
    format      ascii;
    class       volScalarField;
    location    "0.0705000";
    object      epsilonTrueEq;
}
// * * * * * * * * * * * * * * * * * * * * * * * * * * * * * * * * * * * * * //

dimensions      [0 0 0 0 0 0 0];

internalField   nonuniform List<scalar> 
1952
(
0.095851
0.0959075
0.0959813
0.0960641
0.0961369
0.0961931
0.0962061
0.0961568
0.0960203
0.0957697
0.0953887
0.0948475
0.094251
0.0937162
0.09344
0.0958246
0.0959146
0.0959714
0.096044
0.096128
0.0961988
0.0962569
0.0962675
0.0962219
0.0960831
0.0958376
0.0954577
0.0949249
0.0943342
0.0938121
0.0935464
0.0958884
0.095987
0.096044
0.0961166
0.0962009
0.0962719
0.0963301
0.0963412
0.0962965
0.096158
0.0959134
0.0955343
0.0950018
0.0944105
0.0938848
0.0936079
0.0959608
0.0960632
0.0961202
0.096193
0.0962775
0.096349
0.0964072
0.0964185
0.0963744
0.096237
0.0959925
0.0956137
0.095081
0.0944888
0.0939613
0.0936802
0.096037
0.0961444
0.0962015
0.0962742
0.0963587
0.0964309
0.0964893
0.096501
0.0964571
0.0963205
0.0960752
0.0956959
0.0951618
0.0945678
0.0940368
0.0937504
0.0961182
0.0962289
0.096286
0.0963588
0.0964434
0.0965157
0.0965741
0.096586
0.096542
0.0964056
0.0961596
0.0957796
0.0952438
0.0946477
0.094114
0.0938239
0.0962027
0.0963159
0.096373
0.0964459
0.0965303
0.096603
0.0966613
0.0966733
0.0966289
0.0964924
0.0962453
0.0958643
0.0953265
0.0947283
0.0941919
0.0938985
0.0962897
0.0964048
0.0964619
0.0965348
0.0966191
0.0966917
0.0967499
0.0967617
0.0967168
0.09658
0.0963318
0.0959496
0.0954097
0.0948094
0.0942709
0.0939749
0.0963787
0.0964949
0.096552
0.0966248
0.096709
0.0967815
0.0968394
0.096851
0.0968054
0.096668
0.0964185
0.0960352
0.0954931
0.0948913
0.0943507
0.0940527
0.0964688
0.0965859
0.0966428
0.0967155
0.0967994
0.0968718
0.0969292
0.0969404
0.0968941
0.0967563
0.0965057
0.0961213
0.0955771
0.0949735
0.0944314
0.0941316
0.0965598
0.0966771
0.0967339
0.0968064
0.0968901
0.0969623
0.0970193
0.0970301
0.0969833
0.0968445
0.096593
0.0962074
0.095661
0.0950561
0.094513
0.0942119
0.0966511
0.0967686
0.0968252
0.0968976
0.0969809
0.0970528
0.0971092
0.0971197
0.0970721
0.0969326
0.0966799
0.0962935
0.0957458
0.0951392
0.0945953
0.0942936
0.0967426
0.0968597
0.0969161
0.0969884
0.0970713
0.097143
0.0971988
0.0972088
0.0971606
0.0970205
0.096767
0.0963797
0.0958321
0.0952234
0.0946783
0.094376
0.0968337
0.0969503
0.0970065
0.0970786
0.0971612
0.0972327
0.097288
0.0972977
0.0972489
0.0971084
0.0968541
0.0964662
0.0959181
0.095308
0.0947621
0.094459
0.0969244
0.0970401
0.0970962
0.0971682
0.0972504
0.0973218
0.0973767
0.0973862
0.097337
0.0971961
0.0969414
0.0965526
0.0960043
0.0953932
0.0948469
0.0945429
0.0970143
0.0971292
0.0971852
0.0972571
0.0973391
0.0974104
0.097465
0.0974743
0.0974248
0.0972836
0.0970284
0.096639
0.0960905
0.0954787
0.0949321
0.0946274
0.0971033
0.0972172
0.0972731
0.0973451
0.0974269
0.0974984
0.0975527
0.097562
0.0975122
0.0973708
0.0971154
0.0967253
0.096177
0.0955647
0.095018
0.0947126
0.0971914
0.0973043
0.0973602
0.0974322
0.0975139
0.0975855
0.0976397
0.097649
0.0975991
0.0974578
0.0972024
0.0968119
0.0962634
0.0956508
0.0951041
0.0947982
0.0972784
0.0973901
0.097446
0.0975182
0.0975999
0.0976719
0.0977261
0.0977356
0.0976858
0.0975443
0.097289
0.0968983
0.09635
0.095737
0.0951905
0.0948843
0.0973642
0.097475
0.097531
0.0976034
0.097685
0.0977572
0.0978115
0.0978213
0.0977718
0.0976305
0.0973755
0.0969846
0.0964365
0.0958235
0.0952773
0.0949709
0.0974491
0.0975585
0.0976145
0.0976872
0.0977689
0.0978417
0.0978961
0.0979064
0.0978571
0.0977161
0.0974616
0.0970708
0.0965234
0.0959103
0.0953643
0.0950578
0.0975325
0.0976408
0.0976968
0.0977698
0.0978516
0.0979249
0.0979796
0.0979904
0.0979419
0.0978015
0.0975477
0.0971571
0.0966102
0.0959973
0.0954519
0.0951455
0.0976147
0.0977214
0.0977776
0.097851
0.097933
0.0980071
0.0980622
0.0980739
0.098026
0.0978861
0.0976332
0.0972431
0.0966971
0.0960843
0.0955398
0.0952338
0.0976953
0.0978008
0.0978571
0.097931
0.0980132
0.098088
0.0981435
0.0981561
0.0981092
0.0979701
0.0977183
0.0973287
0.0967842
0.0961721
0.0956288
0.0953233
0.0977746
0.0978786
0.0979351
0.0980095
0.0980919
0.0981676
0.0982236
0.0982372
0.0981913
0.0980535
0.0978033
0.0974146
0.0968715
0.0962601
0.0957184
0.0954136
0.0978523
0.0979548
0.0980114
0.0980864
0.0981691
0.0982461
0.0983028
0.0983177
0.0982732
0.0981363
0.0978878
0.0975001
0.0969592
0.0963489
0.0958091
0.0955053
0.0979284
0.0980301
0.0980868
0.0981625
0.0982454
0.0983233
0.0983807
0.098397
0.0983538
0.0982187
0.0979721
0.0975858
0.0970472
0.0964383
0.0959008
0.0955984
0.0980036
0.0981041
0.0981609
0.0982374
0.0983205
0.0983999
0.098458
0.0984757
0.0984341
0.0983005
0.0980564
0.0976716
0.0971359
0.0965287
0.0959936
0.095693
0.0980775
0.0981784
0.0982351
0.0983122
0.0983954
0.0984758
0.0985345
0.0985538
0.0985138
0.0983821
0.0981405
0.0977576
0.0972249
0.0966198
0.0960878
0.0957894
0.0981516
0.0982531
0.0983097
0.0983874
0.0984704
0.098552
0.0986112
0.0986319
0.0985935
0.0984632
0.0982245
0.0978435
0.0973143
0.0967113
0.0961836
0.0958883
0.0982262
0.0983303
0.0983863
0.0984644
0.0985468
0.0986289
0.0986882
0.09871
0.098673
0.0985441
0.0983079
0.097929
0.0974042
0.0968042
0.0962813
0.0959898
0.0983034
0.0984109
0.0984662
0.0985443
0.0986254
0.0987077
0.0987661
0.0987885
0.0987522
0.098625
0.0983919
0.098015
0.0974952
0.0968986
0.096381
0.0960939
0.0983841
0.0984973
0.0985511
0.0986285
0.0987076
0.0987896
0.0988466
0.0988688
0.0988329
0.0987067
0.0984763
0.0981015
0.0975866
0.0969938
0.0964827
0.096201
0.0984707
0.0985922
0.0986439
0.0987202
0.0987961
0.0988767
0.098931
0.0989522
0.0989154
0.098789
0.0985609
0.0981879
0.0976785
0.0970898
0.0965863
0.0963115
0.098566
0.0986992
0.0987481
0.0988222
0.0988938
0.0989711
0.099021
0.0990396
0.0990006
0.098873
0.0986463
0.0982745
0.0977709
0.097187
0.0966925
0.0964258
0.0986735
0.0988221
0.0988672
0.0989379
0.0990033
0.0990759
0.0991193
0.0991332
0.0990898
0.0989594
0.0987329
0.0983614
0.0978637
0.0972846
0.0968005
0.0965437
0.0987974
0.0989664
0.0990063
0.0990722
0.0991293
0.0991949
0.0992291
0.0992357
0.0991853
0.0990495
0.0988211
0.0984485
0.0979565
0.0973827
0.0969102
0.0966653
0.098943
0.099138
0.0991714
0.0992306
0.0992769
0.0993325
0.0993542
0.0993502
0.099289
0.0991452
0.0989122
0.0985363
0.098049
0.0974799
0.0970211
0.0967904
0.0991163
0.0993437
0.0993689
0.0994194
0.0994521
0.0994947
0.0995001
0.0994815
0.0994052
0.0992486
0.0990072
0.0986248
0.0981407
0.0975754
0.097132
0.0969185
0.0993242
0.0995916
0.0996071
0.0996465
0.0996625
0.099688
0.0996725
0.0996346
0.0995377
0.0993636
0.0991084
0.0987152
0.0982314
0.0976681
0.0972417
0.0970487
0.0995749
0.0998897
0.0998936
0.0999197
0.0999158
0.0999206
0.0998793
0.0998168
0.099693
0.0994952
0.0992196
0.0988096
0.0983216
0.097757
0.0973486
0.0971792
0.0998762
0.100247
0.100238
0.100248
0.100221
0.100201
0.100129
0.100037
0.0998792
0.0996508
0.0993464
0.0989119
0.0984125
0.097841
0.0974502
0.097307
0.100237
0.10067
0.100647
0.10064
0.100587
0.100539
0.100433
0.100305
0.100107
0.0998401
0.0994973
0.0990284
0.0985065
0.0979179
0.0975407
0.0974275
0.100665
0.101166
0.101128
0.101102
0.101023
0.100944
0.1008
0.100633
0.100388
0.100077
0.0996865
0.0991723
0.0986137
0.0979913
0.0976134
0.0975309
0.101166
0.101739
0.101686
0.101641
0.101534
0.101424
0.10124
0.101032
0.100738
0.10038
0.0999364
0.0993717
0.0987669
0.0980964
0.0976975
0.0976224
0.101743
0.102389
0.10232
0.102256
0.102122
0.10198
0.101758
0.101511
0.101168
0.100765
0.100269
0.0996586
0.0990112
0.0982964
0.0978711
0.0977615
0.102397
0.103109
0.103026
0.102943
0.102784
0.102612
0.102353
0.102067
0.101677
0.101232
0.100683
0.100034
0.0993467
0.0985914
0.0981394
0.097962
0.103122
0.103888
0.103792
0.103692
0.103509
0.103309
0.103015
0.102692
0.102254
0.101767
0.10116
0.100466
0.0997224
0.0989054
0.0984063
0.0981327
0.103905
0.104709
0.104602
0.104486
0.104281
0.104054
0.103729
0.103369
0.102884
0.102352
0.101678
0.10093
0.100102
0.0991993
0.098638
0.098261
0.104731
0.105549
0.105431
0.105301
0.105078
0.104826
0.104472
0.104077
0.103547
0.102966
0.102219
0.101407
0.100464
0.0994652
0.0988329
0.0983079
0.105574
0.106378
0.10625
0.106108
0.105868
0.105595
0.105218
0.104792
0.104219
0.103588
0.102768
0.101881
0.100797
0.0997074
0.0989545
0.098152
0.106406
0.107162
0.107026
0.106871
0.106618
0.106326
0.105929
0.105475
0.104866
0.104187
0.103302
0.102339
0.101126
0.0999451
0.0988668
0.0975651
0.107192
0.107861
0.107716
0.107549
0.107281
0.106968
0.106555
0.106077
0.105441
0.104733
0.103812
0.102795
0.101459
0.100063
0.0983348
0.0962824
0.107894
0.108427
0.108272
0.108092
0.10781
0.107485
0.107073
0.106594
0.105955
0.105213
0.104223
0.103099
0.101526
0.099681
0.0971163
0.0941959
0.108463
0.108836
0.108681
0.108503
0.108225
0.107887
0.107452
0.106937
0.106252
0.105396
0.104209
0.102799
0.100815
0.098427
0.0951
0.0913973
0.108872
0.109083
0.108914
0.108715
0.10841
0.107997
0.107438
0.106751
0.105871
0.104774
0.1033
0.101512
0.0990857
0.0962081
0.0923082
0.0880283
0.109121
0.108946
0.108702
0.108385
0.107931
0.107331
0.106552
0.105603
0.104441
0.103045
0.101281
0.0991527
0.0963777
0.0931145
0.0888467
0.0842298
0.109009
0.107884
0.107519
0.107016
0.106338
0.10549
0.104459
0.103248
0.101827
0.100172
0.0981749
0.0957926
0.0927938
0.0892868
0.084871
0.0801678
0.107993
0.105368
0.104887
0.104213
0.103334
0.102272
0.101036
0.0996251
0.0980268
0.0962026
0.0940721
0.0915501
0.0884649
0.0848668
0.0805062
0.0759425
0.105526
0.101077
0.100531
0.0997611
0.0987736
0.0976035
0.0962703
0.0947787
0.0931223
0.0912494
0.0891027
0.0865609
0.0835174
0.0799676
0.0758288
0.0715904
0.101269
0.0949505
0.0944173
0.0936598
0.0926934
0.0915549
0.0902664
0.0888318
0.087248
0.0854512
0.0834027
0.0809528
0.0780619
0.0746788
0.0708976
0.0671392
0.0951446
0.0871977
0.0867528
0.086114
0.0852939
0.0843211
0.0832104
0.0819606
0.0805662
0.0789552
0.0771027
0.0748406
0.0721934
0.0690774
0.0657664
0.0626186
0.0873617
0.0782386
0.0779343
0.0774883
0.0769022
0.0761898
0.0753518
0.0743784
0.0732577
0.0719131
0.070329
0.0683301
0.065999
0.0632352
0.0604892
0.0580603
0.0783473
0.0686129
0.068466
0.0682388
0.0679193
0.0675044
0.0669784
0.066323
0.0655165
0.0644823
0.0632091
0.0615257
0.059564
0.0572241
0.055122
0.0534981
0.0686559
0.058886
0.0588767
0.0588445
0.0587659
0.0586256
0.0583933
0.0580452
0.0575482
0.0568297
0.0558779
0.0545375
0.0529782
0.0511187
0.0497205
0.0489606
0.0588701
0.0495667
0.0496463
0.0497456
0.0498361
0.0498988
0.0498939
0.0497973
0.0495644
0.0491317
0.048482
0.0474869
0.0463416
0.045002
0.0443455
0.0444763
0.049512
0.0410435
0.0411506
0.0412987
0.0414622
0.0416279
0.0417538
0.0418217
0.0417774
0.0415714
0.0411785
0.0405079
0.0397669
0.0389671
0.0390614
0.0400689
0.0409765
0.0335507
0.0336297
0.0337493
0.0338923
0.0340582
0.0342098
0.0343405
0.0343912
0.0343326
0.0341317
0.0337446
0.0333793
0.0331184
0.033939
0.0357613
0.0334949
0.027164
0.0271818
0.0272227
0.0272785
0.0273632
0.0274486
0.0275447
0.0275929
0.0275916
0.0275044
0.0273441
0.0273101
0.0275656
0.0290502
0.0315753
0.0271333
0.0218265
0.0217794
0.0217295
0.0216727
0.021634
0.0215939
0.021581
0.0215419
0.02151
0.0214529
0.0214501
0.021688
0.0224107
0.0244546
0.027525
0.0218228
0.017398
0.0173066
0.0171884
0.0170356
0.0168769
0.0166976
0.0165411
0.0163623
0.0162313
0.016127
0.0162037
0.0166364
0.0177382
0.0201853
0.0236111
0.0174132
0.0137172
0.0136119
0.0134653
0.0132612
0.0130238
0.0127363
0.0124487
0.0121233
0.0118635
0.0116618
0.0117419
0.0122718
0.0136106
0.0162415
0.0198068
0.0137395
0.0106221
0.0105239
0.0103818
0.0101717
0.0099105
0.00957393
0.00921023
0.00878818
0.00843857
0.0081764
0.00822339
0.0087418
0.0101034
0.0126245
0.0160839
0.0106439
0.00795931
0.00788284
0.00777267
0.00760583
0.00739573
0.00711714
0.00681102
0.00645737
0.00618237
0.00599405
0.00604907
0.00644171
0.00745341
0.00947359
0.0125434
0.0079772
0.00597796
0.00592455
0.00585155
0.00574463
0.00561941
0.00545992
0.00530135
0.00513153
0.00503157
0.00497988
0.00510254
0.00536829
0.00592669
0.00715786
0.00951054
0.00599196
0.00481145
0.00476483
0.00470251
0.00461658
0.00452443
0.00441805
0.00433335
0.00426203
0.00426782
0.00432419
0.00453379
0.00483111
0.00529325
0.00591184
0.00730986
0.00482489
0.00392251
0.00388331
0.00383063
0.00376172
0.00369244
0.00362097
0.00358116
0.00357076
0.00364467
0.00378159
0.00405362
0.00440066
0.0049071
0.00537089
0.00609279
0.0039346
0.00313545
0.00311046
0.00307681
0.00303854
0.0030072
0.00298798
0.00300601
0.00306449
0.00319826
0.0033933
0.00369377
0.00404825
0.0045269
0.00500776
0.00559902
0.00314426
0.00251917
0.00250806
0.00249199
0.00248218
0.00248373
0.00250897
0.00257197
0.0026818
0.00285527
0.003087
0.00339722
0.00375464
0.00419869
0.00465726
0.00521988
0.00252482
0.00201882
0.00202335
0.00202679
0.00204743
0.00208226
0.00214978
0.00225151
0.00240146
0.00260025
0.00285051
0.00315601
0.00350111
0.00390587
0.00433384
0.00482349
0.00202041
0.00163325
0.00165308
0.00167486
0.00172327
0.00178623
0.00188729
0.00201614
0.00219129
0.00240136
0.00265626
0.0029483
0.00327436
0.00363981
0.00402775
0.00446066
0.00163054
0.00133744
0.00137202
0.00141087
0.00148378
0.00156957
0.00169564
0.00184185
0.00203058
0.00224216
0.00249213
0.00276545
0.00306746
0.00339396
0.00373989
0.00411471
0.00133015
0.00111806
0.00116571
0.00121896
0.00131112
0.00141302
0.00155487
0.00170942
0.00190218
0.00210825
0.00234721
0.00259939
0.00287555
0.00316558
0.00347064
0.00379499
0.00110631
0.000958746
0.00101701
0.00108132
0.00118691
0.00129863
0.00144845
0.0016047
0.00179495
0.00199134
0.00221587
0.00244623
0.00269629
0.00295257
0.00321963
0.00349878
0.000943006
0.000846969
0.000912633
0.000984194
0.0010974
0.0012134
0.00136498
0.00151819
0.00170158
0.00188592
0.00209439
0.00230338
0.00252836
0.00275415
0.00298696
0.00322704
0.0008281
0.000771313
0.000840947
0.000916078
0.00103183
0.00114785
0.00129673
0.00144382
0.00161776
0.00178898
0.0019809
0.00216958
0.00237103
0.00256953
0.00277193
0.00297828
0.000750445
0.000722739
0.00079313
0.000868634
0.00098292
0.00109582
0.00123892
0.00137799
0.00154098
0.00169878
0.00187434
0.00204411
0.00222389
0.00239817
0.00257388
0.00275133
0.000701079
0.000693903
0.00076242
0.000835799
0.000945667
0.00105328
0.00118859
0.00131856
0.00146987
0.00161443
0.00177422
0.00192655
0.00208659
0.0022395
0.00239196
0.0025448
0.000672522
0.000679105
0.000743853
0.000813327
0.000916762
0.00101768
0.00114395
0.00126426
0.00140365
0.00153539
0.00168022
0.00181658
0.00195875
0.00209283
0.00222507
0.00235694
0.000658815
0.000673881
0.000733683
0.000798122
0.000893886
0.000987269
0.00110382
0.00121428
0.00134182
0.00146134
0.00159211
0.00171392
0.00184002
0.00195757
0.0020723
0.00218634
0.000655195
0.000674767
0.000729043
0.000787853
0.000875319
0.000960758
0.00106733
0.00116801
0.00128399
0.00139196
0.00150961
0.00161823
0.00172991
0.00183299
0.00193262
0.00203157
0.000657939
0.000679079
0.000727697
0.000780689
0.000859693
0.000937118
0.00103376
0.00112492
0.0012298
0.00132693
0.00143242
0.00152908
0.00162783
0.00171822
0.0018048
0.00189091
0.000664169
0.000684766
0.000727892
0.000775167
0.000845884
0.000915474
0.00100247
0.00108451
0.00117885
0.0012659
0.00136016
0.00144602
0.00153322
0.00161249
0.00168781
0.00176308
0.000671709
0.000690299
0.000728279
0.000770129
0.000832964
0.000895079
0.000972893
0.00104633
0.00113078
0.0012085
0.00129246
0.00136857
0.00144544
0.00151498
0.00158058
0.00164666
0.000678957
0.000694574
0.000727846
0.000764673
0.000820175
0.000875299
0.000944514
0.00100994
0.00108519
0.00115435
0.0012289
0.00129627
0.00136394
0.00142497
0.00148219
0.00154054
0.000684777
0.000696838
0.000725875
0.000758137
0.00080693
0.000855617
0.000916893
0.000974934
0.00104172
0.00110308
0.0011691
0.00122864
0.00128815
0.00134175
0.00139177
0.00144362
0.000688406
0.000696617
0.000721888
0.000750058
0.000792796
0.000835637
0.000889667
0.000940984
0.00100006
0.00105436
0.00111268
0.00116524
0.00121752
0.00126465
0.00130849
0.00135486
0.000689377
0.000693657
0.000715611
0.000740151
0.000777479
0.000815069
0.000862557
0.000907807
0.000959904
0.00100788
0.00105928
0.00110567
0.00115157
0.00119309
0.00123162
0.00127341
0.000687448
0.000687878
0.000706927
0.000728274
0.000760809
0.000793728
0.000835361
0.000875186
0.000921024
0.000963354
0.0010086
0.00104954
0.00108983
0.0011265
0.0011605
0.00119846
0.000682554
0.000679323
0.000695842
0.0007144
0.000742718
0.000771514
0.000807945
0.000842961
0.000883225
0.000920563
0.000960351
0.000996525
0.00103191
0.0010644
0.00109452
0.00112927
0.000674757
0.000668136
0.000682458
0.000698592
0.000723219
0.000748402
0.000780243
0.000811025
0.000846359
0.000879314
0.000914301
0.000946327
0.000977461
0.00100638
0.00103321
0.00106531
0.000664214
0.000654523
0.000666943
0.000680982
0.000702391
0.000724426
0.000752238
0.000779319
0.000810317
0.000839449
0.000870235
0.000898681
0.000926143
0.000952039
0.000976086
0.00100597
0.000651149
0.000638739
0.000649516
0.000661748
0.00068036
0.000699664
0.000723955
0.000747817
0.000775019
0.000800839
0.000827969
0.000853345
0.000877656
0.000901012
0.000922736
0.000950819
0.000635831
0.00062107
0.000630427
0.000641103
0.000657289
0.000674231
0.000695453
0.000716527
0.000740418
0.000763381
0.000787341
0.000810099
0.000831718
0.000852949
0.000872737
0.000899353
0.000618555
0.000601823
0.000609951
0.000619289
0.000633369
0.000648272
0.00066682
0.000685485
0.000706494
0.000727003
0.000748224
0.000768764
0.0007881
0.000807575
0.000825772
0.000851235
0.000599642
0.000581317
0.00058838
0.000596563
0.000608812
0.000621949
0.000638166
0.00065475
0.000673249
0.000691653
0.000710514
0.000729187
0.000746599
0.000764648
0.00078157
0.000806163
0.000579421
0.000559881
0.000566015
0.000573195
0.000583845
0.000595446
0.000609624
0.0006244
0.000640708
0.000657305
0.000674129
0.000691236
0.000707041
0.000723951
0.000739878
0.000763851
0.000558228
0.00053785
0.000543169
0.000549469
0.000558712
0.000568962
0.000581341
0.000594534
0.000608915
0.000623948
0.000639008
0.000654804
0.000669276
0.000685302
0.000700493
0.000724079
0.000536409
0.000515568
0.000520162
0.000525677
0.000533669
0.000542712
0.000553486
0.000565268
0.000577932
0.000591593
0.000605109
0.000619798
0.00063317
0.000648532
0.000663224
0.000686647
0.000514314
0.000493383
0.000497325
0.000502125
0.000508988
0.000516927
0.000526248
0.00053674
0.000547849
0.00056027
0.000572408
0.000586145
0.000598603
0.000613479
0.000627887
0.000651347
0.000492296
0.000471649
0.000474996
0.00047913
0.000484957
0.00049186
0.000499838
0.000509112
0.000518777
0.000530036
0.000540908
0.00055379
0.000565476
0.00058001
0.000594342
0.000618053
0.000470719
0.000450728
0.000453525
0.000457021
0.000461884
0.000467784
0.000474497
0.000482578
0.000490864
0.000500976
0.000510635
0.000522696
0.000533697
0.000547987
0.000562428
0.000586579
0.000449945
0.000430982
0.000433264
0.000436138
0.000440092
0.000444997
0.000450497
0.000457365
0.000464297
0.000473213
0.000481655
0.000492854
0.000503195
0.000517285
0.000532012
0.000556811
0.000430344
0.000412774
0.000414574
0.000416831
0.000419925
0.000423824
0.000428147
0.000433749
0.000439321
0.00044693
0.00045409
0.000464294
0.000473908
0.000487754
0.000502899
0.00052854
0.000412277
0.000396455
0.000397806
0.000399453
0.000401735
0.000404615
0.000407798
0.00041206
0.000416252
0.000422387
0.000428146
0.000437119
0.000445835
0.000459272
0.000474892
0.000501541
0.000396098
0.000382355
0.000383296
0.000384349
0.000385882
0.000387739
0.000389838
0.000392689
0.000395491
0.000399951
0.000404159
0.000411554
0.000419081
0.000431796
0.000447836
0.000475571
0.000382133
0.00037077
0.000371351
0.00037184
0.000372709
0.00037357
0.000374677
0.000376085
0.000377531
0.000380122
0.00038263
0.000387991
0.000393886
0.000405319
0.000421478
0.000450263
0.000370675
0.000361936
0.000362217
0.000362195
0.000362514
0.000362451
0.000362714
0.00036272
0.000362933
0.000363539
0.000364276
0.00036709
0.00037076
0.000379924
0.000395323
0.000424949
0.000361954
0.000355975
0.000356026
0.000355569
0.000355473
0.000354611
0.000354235
0.000352986
0.000352222
0.000350917
0.000350046
0.000349979
0.000350978
0.000356529
0.000369483
0.000398966
0.000356088
0.00035287
0.000352774
0.000351979
0.000351638
0.00035015
0.000349414
0.000347173
0.000345857
0.000342997
0.000341116
0.000338457
0.000337217
0.000338423
0.000347201
0.000373828
0.000353055
0.000353757
0.000353578
0.000352536
0.00035208
0.000350131
0.000349251
0.000346277
0.000344753
0.000340747
0.000338421
0.000333779
0.000331066
0.00032799
0.000330629
0.00034708
0.000353994
0.000355736
0.000355532
0.000354392
0.000353909
0.000351775
0.000350868
0.000347594
0.000346025
0.00034153
0.000339055
0.00033352
0.000330168
0.000324927
0.000324174
0.000332079
0.000355994
)
;

boundaryField
{
    wireUpstream
    {
        type            calculated;
        value           nonuniform List<scalar> 
16
(
0.00035805
0.000357853
0.000356635
0.000356195
0.000353903
0.000353083
0.000349533
0.00034808
0.000343102
0.000340669
0.000334197
0.000330392
0.000322985
0.000319097
0.000316166
0.000358321
)
;
    }
    wireDownstream
    {
        type            calculated;
        value           nonuniform List<scalar> 
16
(
0.0958499
0.0959061
0.0959813
0.0960633
0.0961384
0.0961933
0.0962091
0.0961576
0.0960238
0.0957698
0.0953894
0.0948416
0.0942391
0.0936882
0.0933874
0.0958232
)
;
    }
    wireTopContact
    {
        type            calculated;
        value           nonuniform List<scalar> 
122
(
0.0935022
0.0935634
0.0936357
0.0937059
0.0937794
0.093854
0.0939304
0.0940082
0.0940871
0.0941674
0.094249
0.0943314
0.0944144
0.0944983
0.0945828
0.094668
0.0947536
0.0948397
0.0949264
0.0950132
0.0951009
0.0951892
0.0952787
0.0953691
0.0954608
0.0955539
0.0956485
0.0957448
0.0958437
0.0959453
0.0960494
0.0961566
0.0962672
0.0963816
0.0964997
0.0966216
0.0967471
0.0968759
0.097007
0.0971387
0.0972682
0.0973916
0.0974994
0.0975936
0.0977362
0.0979472
0.0981233
0.0982585
0.0983134
0.0981595
0.0975669
0.0962696
0.0941617
0.0913409
0.0879486
0.0841221
0.0800318
0.0757786
0.0713989
0.0669214
0.0623783
0.0578033
0.053233
0.0486972
0.0442258
0.0398419
0.0355673
0.0314215
0.0274152
0.023547
0.0197873
0.0161017
0.0125852
0.00955746
0.00733282
0.00608494
0.00559971
0.00522495
0.0048276
0.00446427
0.00411756
0.00379742
0.00350088
0.00322895
0.0029801
0.00275306
0.0025465
0.00235861
0.00218795
0.00203314
0.0018924
0.00176449
0.00164797
0.00154173
0.00144468
0.00135578
0.00127419
0.00119911
0.00112978
0.00106569
0.00100622
0.000950943
0.000899347
0.000851103
0.00080591
0.000763478
0.00072359
0.00068605
0.000650643
0.000617257
0.000585698
0.00055587
0.000527568
0.000500585
0.000474703
0.000449592
0.000424731
0.00039969
0.000376154
0.00035087
0.000335963
0.0933921
)
;
    }
    front
    {
        type            wedge;
    }
    back
    {
        type            wedge;
    }
}


// ************************************************************************* //
