/*--------------------------------*- C++ -*----------------------------------*\
| =========                 |                                                 |
| \\      /  F ield         | foam-extend: Open Source CFD                    |
|  \\    /   O peration     | Version:     4.1-20200408                       |
|   \\  /    A nd           | Web:         http://www.foam-extend.org         |
|    \\/     M anipulation  |                                                 |
\*---------------------------------------------------------------------------*/
FoamFile
{
    version     2.0;
    format      ascii;
    class       volScalarField;
    location    "0.0705000";
    object      rho_0_0;
}
// * * * * * * * * * * * * * * * * * * * * * * * * * * * * * * * * * * * * * //

dimensions      [1 -3 0 0 0 0 0];

internalField   nonuniform List<scalar> 
1952
(
7858.92
7857.97
7856.64
7854.98
7852.9
7850.65
7848.01
7844.96
7841.41
7837.05
7832.2
7825.4
7817.81
7809.19
7803.69
7859.35
7858.8
7857.85
7856.52
7854.86
7852.78
7850.53
7847.9
7844.85
7841.3
7836.96
7832.11
7825.32
7817.75
7809.15
7803.68
7859.22
7858.69
7857.74
7856.41
7854.75
7852.67
7850.43
7847.79
7844.75
7841.21
7836.87
7832.04
7825.26
7817.7
7809.12
7803.68
7859.11
7858.59
7857.64
7856.31
7854.65
7852.58
7850.34
7847.71
7844.67
7841.13
7836.8
7831.98
7825.21
7817.67
7809.1
7803.68
7859.02
7858.51
7857.56
7856.23
7854.57
7852.5
7850.26
7847.64
7844.6
7841.07
7836.75
7831.93
7825.17
7817.64
7809.09
7803.68
7858.94
7858.44
7857.49
7856.16
7854.5
7852.43
7850.2
7847.57
7844.54
7841.01
7836.7
7831.89
7825.13
7817.61
7809.07
7803.68
7858.86
7858.38
7857.43
7856.1
7854.44
7852.38
7850.14
7847.52
7844.49
7840.96
7836.66
7831.85
7825.1
7817.58
7809.06
7803.67
7858.8
7858.32
7857.38
7856.04
7854.39
7852.33
7850.09
7847.47
7844.45
7840.92
7836.62
7831.81
7825.07
7817.56
7809.04
7803.66
7858.75
7858.28
7857.33
7856
7854.34
7852.28
7850.05
7847.43
7844.41
7840.88
7836.58
7831.78
7825.04
7817.53
7809.02
7803.64
7858.7
7858.24
7857.29
7855.96
7854.3
7852.24
7850.01
7847.39
7844.37
7840.84
7836.55
7831.75
7825.01
7817.51
7809
7803.63
7858.66
7858.2
7857.25
7855.92
7854.26
7852.2
7849.98
7847.36
7844.34
7840.81
7836.52
7831.72
7824.98
7817.48
7808.98
7803.61
7858.63
7858.17
7857.22
7855.89
7854.23
7852.17
7849.94
7847.33
7844.31
7840.77
7836.49
7831.69
7824.95
7817.45
7808.95
7803.58
7858.6
7858.14
7857.19
7855.86
7854.2
7852.14
7849.91
7847.29
7844.27
7840.74
7836.46
7831.66
7824.91
7817.41
7808.92
7803.56
7858.57
7858.12
7857.17
7855.83
7854.17
7852.11
7849.89
7847.27
7844.24
7840.71
7836.42
7831.63
7824.88
7817.38
7808.89
7803.53
7858.55
7858.09
7857.14
7855.81
7854.15
7852.09
7849.86
7847.24
7844.22
7840.68
7836.39
7831.6
7824.84
7817.34
7808.86
7803.49
7858.52
7858.08
7857.12
7855.78
7854.12
7852.06
7849.83
7847.21
7844.19
7840.64
7836.36
7831.56
7824.81
7817.31
7808.82
7803.46
7858.5
7858.06
7857.1
7855.77
7854.1
7852.04
7849.81
7847.18
7844.16
7840.61
7836.33
7831.52
7824.77
7817.26
7808.78
7803.42
7858.49
7858.04
7857.09
7855.75
7854.08
7852.02
7849.79
7847.16
7844.13
7840.58
7836.3
7831.49
7824.73
7817.22
7808.74
7803.37
7858.47
7858.03
7857.07
7855.73
7854.06
7852
7849.76
7847.13
7844.1
7840.55
7836.26
7831.45
7824.69
7817.17
7808.7
7803.33
7858.46
7858.02
7857.06
7855.72
7854.04
7851.98
7849.74
7847.1
7844.07
7840.51
7836.23
7831.41
7824.64
7817.12
7808.65
7803.28
7858.45
7858.01
7857.05
7855.7
7854.03
7851.96
7849.72
7847.08
7844.04
7840.48
7836.2
7831.37
7824.6
7817.07
7808.6
7803.22
7858.45
7858.01
7857.05
7855.7
7854.02
7851.95
7849.71
7847.06
7844.01
7840.45
7836.16
7831.32
7824.55
7817.01
7808.55
7803.16
7858.45
7858.02
7857.05
7855.7
7854.01
7851.94
7849.69
7847.04
7843.99
7840.41
7836.13
7831.28
7824.5
7816.96
7808.49
7803.1
7858.45
7858.03
7857.06
7855.7
7854.01
7851.93
7849.69
7847.02
7843.97
7840.38
7836.09
7831.23
7824.44
7816.89
7808.42
7803.03
7858.46
7858.05
7857.08
7855.71
7854.02
7851.94
7849.68
7847.01
7843.95
7840.36
7836.06
7831.18
7824.39
7816.83
7808.36
7802.95
7858.48
7858.08
7857.11
7855.74
7854.04
7851.95
7849.69
7847
7843.93
7840.33
7836.03
7831.14
7824.33
7816.76
7808.28
7802.86
7858.52
7858.12
7857.15
7855.77
7854.07
7851.97
7849.7
7847.01
7843.93
7840.31
7836
7831.09
7824.28
7816.68
7808.2
7802.77
7858.56
7858.18
7857.21
7855.82
7854.11
7852.01
7849.73
7847.02
7843.93
7840.3
7835.97
7831.05
7824.22
7816.61
7808.12
7802.67
7858.62
7858.26
7857.28
7855.89
7854.18
7852.06
7849.78
7847.05
7843.95
7840.3
7835.96
7831.02
7824.17
7816.53
7808.03
7802.56
7858.71
7858.37
7857.38
7855.98
7854.26
7852.13
7849.84
7847.1
7843.98
7840.31
7835.96
7830.99
7824.12
7816.45
7807.94
7802.44
7858.81
7858.5
7857.51
7856.11
7854.37
7852.23
7849.93
7847.17
7844.03
7840.34
7835.97
7830.97
7824.08
7816.38
7807.84
7802.31
7858.95
7858.66
7857.68
7856.26
7854.52
7852.36
7850.05
7847.26
7844.11
7840.4
7836
7830.96
7824.04
7816.31
7807.75
7802.18
7859.11
7858.87
7857.87
7856.45
7854.7
7852.53
7850.2
7847.39
7844.22
7840.48
7836.06
7830.98
7824.03
7816.25
7807.66
7802.04
7859.32
7859.11
7858.12
7856.68
7854.93
7852.74
7850.4
7847.57
7844.37
7840.6
7836.15
7831.02
7824.04
7816.2
7807.57
7801.89
7859.57
7859.41
7858.42
7856.97
7855.2
7853
7850.65
7847.79
7844.58
7840.76
7836.29
7831.11
7824.08
7816.17
7807.5
7801.75
7859.87
7859.76
7858.77
7857.31
7855.54
7853.33
7850.96
7848.08
7844.84
7840.98
7836.47
7831.24
7824.16
7816.18
7807.45
7801.61
7860.22
7860.18
7859.18
7857.72
7855.94
7853.72
7851.34
7848.43
7845.17
7841.28
7836.73
7831.43
7824.3
7816.22
7807.43
7801.48
7860.64
7860.65
7859.66
7858.19
7856.42
7854.19
7851.8
7848.88
7845.59
7841.66
7837.08
7831.71
7824.51
7816.34
7807.47
7801.38
7861.11
7861.19
7860.21
7858.74
7856.97
7854.74
7852.35
7849.41
7846.11
7842.15
7837.54
7832.09
7824.83
7816.53
7807.57
7801.32
7861.65
7861.79
7860.83
7859.36
7857.6
7855.38
7852.99
7850.06
7846.75
7842.78
7838.13
7832.62
7825.29
7816.85
7807.77
7801.31
7862.26
7862.45
7861.51
7860.05
7858.31
7856.11
7853.75
7850.83
7847.53
7843.55
7838.88
7833.32
7825.92
7817.33
7808.12
7801.41
7862.91
7863.16
7862.24
7860.8
7859.1
7856.93
7854.61
7851.74
7848.46
7844.51
7839.85
7834.24
7826.79
7818.04
7808.68
7801.63
7863.61
7863.88
7862.99
7861.59
7859.94
7857.84
7855.57
7852.78
7849.56
7845.68
7841.06
7835.46
7827.98
7819.08
7809.52
7802.01
7864.32
7864.59
7863.75
7862.4
7860.82
7858.8
7856.63
7853.95
7850.84
7847.08
7842.55
7837.03
7829.59
7820.59
7810.87
7802.75
7865.02
7865.25
7864.46
7863.18
7861.69
7859.79
7857.75
7855.24
7852.28
7848.73
7844.37
7839.05
7831.77
7822.83
7813.18
7804.61
7865.67
7865.8
7865.07
7863.87
7862.5
7860.75
7858.88
7856.59
7853.84
7850.59
7846.52
7841.56
7834.67
7826.2
7817.23
7809.46
7866.19
7866.15
7865.51
7864.4
7863.17
7861.61
7859.94
7857.93
7855.46
7852.59
7848.88
7844.42
7838.01
7830.15
7821.98
7815.03
7866.53
7866.23
7865.67
7864.68
7863.61
7862.27
7860.84
7859.16
7857.02
7854.63
7851.35
7847.52
7841.68
7834.57
7827.21
7820.88
7866.58
7865.93
7865.46
7864.6
7863.72
7862.61
7861.46
7860.15
7858.4
7856.54
7853.77
7850.69
7845.47
7839.31
7832.73
7826.93
7866.24
7865.12
7864.76
7864.04
7863.36
7862.51
7861.67
7860.75
7859.43
7858.18
7855.98
7853.77
7849.26
7844.32
7838.42
7833.19
7865.41
7863.69
7863.44
7862.87
7862.39
7861.81
7861.29
7860.79
7859.94
7859.34
7857.79
7856.56
7852.91
7849.52
7844.3
7839.85
7863.94
7861.49
7861.36
7860.94
7860.69
7860.38
7860.19
7860.11
7859.75
7859.77
7858.85
7858.59
7856.06
7854.54
7850.34
7847.17
7861.71
7858.43
7858.41
7858.14
7858.1
7858
7858.06
7858.31
7858.39
7859.1
7858.95
7859.77
7858.49
7858.84
7856.07
7855.21
7858.61
7854.19
7854.26
7854.13
7854.32
7854.55
7854.98
7855.69
7856.36
7857.79
7858.5
7860.43
7860.33
7862.41
7861.26
7863.47
7854.35
7848.93
7849.19
7849.35
7849.96
7850.73
7851.77
7853.17
7854.55
7856.68
7858.19
7861.13
7862.17
7865.88
7866.22
7871.66
7849.02
7843.87
7844.45
7845.06
7846.16
7847.48
7849.15
7851.21
7853.3
7856.1
7858.34
7862.05
7864.02
7868.98
7870.54
7878.41
7843.83
7839.88
7840.76
7841.77
7843.33
7845.12
7847.3
7849.84
7852.49
7855.79
7858.65
7862.93
7865.67
7871.51
7874.05
7883.51
7839.69
7837.17
7838.21
7839.5
7841.36
7843.5
7846.05
7848.95
7852.02
7855.68
7859.02
7863.67
7867.01
7873.37
7876.65
7887.01
7836.86
7835.66
7836.79
7838.23
7840.27
7842.61
7845.41
7848.51
7851.88
7855.73
7859.43
7864.24
7868
7874.53
7878.32
7888.94
7835.26
7835.27
7836.41
7837.93
7840.03
7842.46
7845.37
7848.56
7852.07
7855.97
7859.87
7864.65
7868.66
7875.03
7879.09
7889.38
7834.81
7835.9
7837.01
7838.53
7840.62
7843.03
7845.95
7849.09
7852.63
7856.43
7860.37
7864.92
7869.01
7874.94
7879.02
7888.46
7835.42
7837.48
7838.52
7839.98
7841.98
7844.29
7847.1
7850.1
7853.54
7857.11
7860.95
7865.12
7869.09
7874.3
7878.17
7886.25
7837.02
7839.95
7840.89
7842.22
7844.06
7846.17
7848.79
7851.54
7854.78
7858.01
7861.63
7865.27
7868.95
7873.2
7876.6
7882.93
7839.53
7843.24
7844.04
7845.18
7846.8
7848.64
7850.98
7853.4
7856.33
7859.15
7862.42
7865.4
7868.62
7871.7
7874.4
7878.64
7842.89
7847.24
7847.9
7848.81
7850.16
7851.66
7853.66
7855.67
7858.21
7860.52
7863.34
7865.55
7868.14
7869.86
7871.65
7873.61
7846.96
7851.77
7852.3
7853.01
7854.08
7855.24
7856.84
7858.39
7860.46
7862.19
7864.43
7865.77
7867.54
7867.75
7868.43
7868.08
7851.55
7856.64
7857.08
7857.64
7858.49
7859.34
7860.56
7861.64
7863.19
7864.26
7865.8
7866.16
7866.89
7865.44
7864.89
7862.35
7856.45
7861.64
7862.04
7862.49
7863.2
7863.84
7864.77
7865.44
7866.47
7866.86
7867.6
7866.84
7866.33
7863.09
7861.2
7856.73
7861.49
7866.59
7866.94
7867.3
7867.91
7868.41
7869.19
7869.58
7870.21
7870
7869.94
7868.01
7866.08
7860.96
7857.71
7851.58
7866.45
7871.31
7871.62
7871.92
7872.45
7872.91
7873.7
7874.05
7874.48
7873.87
7873.05
7869.93
7866.4
7859.44
7854.93
7847.4
7871.19
7876.37
7876.7
7877
7877.48
7877.85
7878.3
7878.15
7877.83
7876.31
7874.34
7870.17
7865.64
7858.29
7853.02
7844.58
7876.25
7879.95
7880.09
7880.12
7880.08
7879.7
7879.05
7877.83
7876.29
7873.75
7870.95
7866.68
7862.55
7856.15
7851.49
7843.16
7879.88
7878.29
7878.06
7877.6
7876.96
7875.89
7874.63
7872.89
7870.96
7868.28
7865.55
7861.76
7858.46
7853.19
7849.58
7842.78
7878.37
7873.7
7873.32
7872.68
7871.84
7870.69
7869.51
7867.9
7866.13
7863.71
7861.21
7857.82
7854.68
7850.33
7847.05
7842.18
7873.84
7869.36
7869
7868.44
7867.67
7866.62
7865.4
7863.8
7862.05
7859.79
7857.47
7854.48
7851.67
7848
7844.76
7840.96
7869.48
7865.45
7865.08
7864.51
7863.74
7862.73
7861.57
7860.09
7858.47
7856.43
7854.32
7851.68
7849.16
7845.99
7843.16
7839.62
7865.58
7861.92
7861.56
7861.04
7860.31
7859.38
7858.28
7856.91
7855.4
7853.56
7851.66
7849.34
7847.11
7844.39
7841.9
7838.91
7862.05
7858.76
7858.4
7857.92
7857.23
7856.37
7855.35
7854.11
7852.74
7851.1
7849.4
7847.37
7845.41
7843.06
7840.92
7838.34
7858.87
7855.93
7855.6
7855.15
7854.52
7853.74
7852.8
7851.68
7850.45
7848.99
7847.49
7845.72
7844.01
7842
7840.16
7837.97
7856.04
7853.41
7853.1
7852.7
7852.12
7851.42
7850.57
7849.57
7848.47
7847.18
7845.86
7844.33
7842.84
7841.12
7839.55
7837.7
7853.51
7851.18
7850.89
7850.54
7850.01
7849.38
7848.62
7847.73
7846.76
7845.63
7844.47
7843.15
7841.86
7840.4
7839.07
7837.5
7851.27
7849.21
7848.94
7848.62
7848.15
7847.59
7846.92
7846.14
7845.27
7844.29
7843.28
7842.14
7841.04
7839.79
7838.67
7837.34
7849.29
7847.46
7847.22
7846.94
7846.52
7846.03
7845.43
7844.74
7843.99
7843.14
7842.26
7841.28
7840.34
7839.28
7838.33
7837.21
7847.53
7845.92
7845.7
7845.46
7845.08
7844.65
7844.12
7843.53
7842.87
7842.13
7841.38
7840.54
7839.74
7838.84
7838.04
7837.1
7845.98
7844.56
7844.37
7844.15
7843.82
7843.44
7842.98
7842.46
7841.89
7841.26
7840.61
7839.9
7839.21
7838.45
7837.78
7836.98
7844.61
7843.36
7843.19
7843
7842.71
7842.38
7841.98
7841.53
7841.04
7840.49
7839.94
7839.33
7838.75
7838.11
7837.54
7836.87
7843.41
7842.3
7842.14
7841.98
7841.73
7841.44
7841.09
7840.71
7840.28
7839.82
7839.34
7838.82
7838.33
7837.79
7837.31
7836.74
7842.34
7841.36
7841.22
7841.08
7840.86
7840.62
7840.31
7839.98
7839.61
7839.22
7838.81
7838.37
7837.95
7837.5
7837.09
7836.61
7841.39
7840.52
7840.4
7840.28
7840.09
7839.88
7839.62
7839.33
7839.02
7838.68
7838.33
7837.96
7837.61
7837.23
7836.88
7836.47
7840.55
7839.78
7839.68
7839.57
7839.4
7839.22
7839
7838.76
7838.49
7838.2
7837.9
7837.59
7837.29
7836.97
7836.68
7836.32
7839.81
7839.12
7839.03
7838.94
7838.79
7838.64
7838.44
7838.24
7838.01
7837.76
7837.51
7837.24
7836.99
7836.72
7836.47
7836.16
7839.14
7838.52
7838.44
7838.37
7838.24
7838.11
7837.94
7837.77
7837.57
7837.36
7837.15
7836.92
7836.71
7836.47
7836.26
7836
7838.54
7837.99
7837.92
7837.86
7837.75
7837.63
7837.49
7837.34
7837.17
7836.99
7836.81
7836.62
7836.44
7836.24
7836.06
7835.82
7838.01
7837.51
7837.45
7837.39
7837.3
7837.2
7837.08
7836.95
7836.8
7836.65
7836.5
7836.33
7836.18
7836.01
7835.85
7835.65
7837.52
7837.07
7837.02
7836.97
7836.89
7836.81
7836.7
7836.59
7836.46
7836.33
7836.2
7836.06
7835.93
7835.79
7835.65
7835.46
7837.08
7836.67
7836.62
7836.58
7836.51
7836.44
7836.35
7836.26
7836.15
7836.04
7835.92
7835.8
7835.69
7835.57
7835.44
7835.28
7836.68
7836.3
7836.26
7836.23
7836.17
7836.11
7836.03
7835.95
7835.85
7835.76
7835.66
7835.56
7835.46
7835.35
7835.24
7835.09
7836.31
7835.97
7835.93
7835.9
7835.85
7835.8
7835.73
7835.66
7835.58
7835.49
7835.41
7835.32
7835.23
7835.14
7835.04
7834.9
7835.98
7835.66
7835.63
7835.6
7835.56
7835.51
7835.45
7835.39
7835.32
7835.24
7835.17
7835.09
7835.01
7834.93
7834.84
7834.71
7835.67
7835.37
7835.34
7835.32
7835.28
7835.24
7835.19
7835.13
7835.07
7835.01
7834.94
7834.87
7834.8
7834.73
7834.64
7834.52
7835.38
7835.1
7835.08
7835.06
7835.02
7834.99
7834.94
7834.89
7834.84
7834.78
7834.72
7834.66
7834.6
7834.53
7834.45
7834.33
7835.11
7834.86
7834.83
7834.82
7834.78
7834.75
7834.71
7834.66
7834.62
7834.56
7834.51
7834.45
7834.4
7834.33
7834.26
7834.14
7834.86
7834.62
7834.6
7834.59
7834.56
7834.53
7834.49
7834.45
7834.41
7834.36
7834.31
7834.26
7834.2
7834.14
7834.07
7833.96
7834.63
7834.41
7834.39
7834.37
7834.35
7834.32
7834.28
7834.25
7834.21
7834.16
7834.12
7834.07
7834.02
7833.96
7833.89
7833.78
7834.41
7834.2
7834.19
7834.17
7834.15
7834.12
7834.09
7834.05
7834.02
7833.97
7833.93
7833.88
7833.83
7833.78
7833.71
7833.6
7834.21
7834.01
7834
7833.98
7833.96
7833.94
7833.91
7833.87
7833.84
7833.79
7833.75
7833.71
7833.66
7833.6
7833.54
7833.43
7834.02
7833.84
7833.82
7833.81
7833.79
7833.76
7833.73
7833.7
7833.66
7833.63
7833.58
7833.54
7833.49
7833.44
7833.37
7833.26
7833.84
7833.67
7833.66
7833.65
7833.62
7833.6
7833.57
7833.54
7833.5
7833.46
7833.42
7833.38
7833.33
7833.27
7833.2
7833.09
7833.67
7833.52
7833.51
7833.49
7833.47
7833.45
7833.42
7833.39
7833.35
7833.31
7833.27
7833.22
7833.17
7833.12
7833.04
7832.93
7833.52
7833.38
7833.37
7833.35
7833.33
7833.31
7833.28
7833.25
7833.21
7833.17
7833.13
7833.08
7833.03
7832.97
7832.89
7832.77
7833.38
7833.25
7833.24
7833.22
7833.2
7833.18
7833.15
7833.12
7833.08
7833.04
7832.99
7832.94
7832.89
7832.82
7832.74
7832.62
7833.25
7833.13
7833.12
7833.1
7833.08
7833.06
7833.03
7833
7832.96
7832.92
7832.87
7832.82
7832.76
7832.69
7832.6
7832.47
7833.13
7833.02
7833.01
7833
7832.98
7832.95
7832.93
7832.89
7832.85
7832.81
7832.76
7832.7
7832.64
7832.57
7832.47
7832.33
7833.02
7832.93
7832.92
7832.9
7832.88
7832.86
7832.83
7832.8
7832.76
7832.71
7832.66
7832.6
7832.54
7832.46
7832.35
7832.2
7832.93
7832.84
7832.83
7832.82
7832.8
7832.78
7832.75
7832.72
7832.68
7832.63
7832.58
7832.52
7832.45
7832.36
7832.25
7832.08
7832.84
7832.77
7832.76
7832.75
7832.73
7832.71
7832.68
7832.65
7832.61
7832.56
7832.51
7832.45
7832.37
7832.28
7832.16
7831.97
7832.77
7832.7
7832.7
7832.68
7832.67
7832.65
7832.62
7832.59
7832.55
7832.51
7832.46
7832.4
7832.32
7832.23
7832.09
7831.89
7832.71
7832.65
7832.64
7832.63
7832.62
7832.6
7832.58
7832.55
7832.51
7832.47
7832.42
7832.37
7832.3
7832.2
7832.07
7831.85
7832.66
7832.6
7832.6
7832.59
7832.57
7832.56
7832.54
7832.51
7832.48
7832.45
7832.41
7832.36
7832.3
7832.23
7832.13
7831.97
7832.61
7832.58
7832.58
7832.57
7832.56
7832.54
7832.52
7832.5
7832.47
7832.44
7832.41
7832.37
7832.32
7832.27
7832.2
7832.09
7832.58
7832.58
7832.58
7832.57
7832.56
7832.54
7832.52
7832.5
7832.47
7832.44
7832.41
7832.37
7832.32
7832.27
7832.2
7832.09
7832.58
7832.58
7832.58
7832.57
7832.56
7832.54
7832.52
7832.5
7832.47
7832.44
7832.41
7832.37
7832.32
7832.27
7832.2
7832.09
7832.58
)
;

boundaryField
{
    wireUpstream
    {
        type            calculated;
        value           nonuniform List<scalar> 
16
(
7832.56
7832.55
7832.54
7832.53
7832.52
7832.5
7832.48
7832.46
7832.43
7832.4
7832.37
7832.33
7832.3
7832.27
7832.24
7832.56
)
;
    }
    wireDownstream
    {
        type            calculated;
        value           nonuniform List<scalar> 
16
(
7858.92
7857.97
7856.64
7854.98
7852.9
7850.65
7848.01
7844.96
7841.41
7837.05
7832.2
7825.4
7817.81
7809.19
7803.69
7859.35
)
;
    }
    wireTopContact
    {
        type            calculated;
        value           nonuniform List<scalar> 
122
(
7803.16
7803.17
7803.17
7803.17
7803.16
7803.16
7803.15
7803.13
7803.12
7803.09
7803.07
7803.05
7803.02
7802.98
7802.95
7802.91
7802.87
7802.82
7802.77
7802.72
7802.66
7802.59
7802.52
7802.44
7802.36
7802.27
7802.17
7802.06
7801.94
7801.82
7801.68
7801.55
7801.4
7801.27
7801.13
7801.02
7800.93
7800.89
7800.91
7801.03
7801.3
7801.77
7802.59
7804.33
7809.41
7815.11
7821.11
7827.32
7833.61
7840.1
7847.11
7854.76
7862.66
7870.8
7877.4
7882.39
7885.89
7887.87
7888.4
7887.59
7885.5
7882.31
7878.17
7873.3
7867.97
7862.47
7857.12
7852.3
7848.41
7845.75
7844.3
7843.46
7842.03
7840.87
7839.62
7838.88
7838.31
7837.93
7837.64
7837.44
7837.28
7837.15
7837.04
7836.93
7836.81
7836.69
7836.56
7836.43
7836.28
7836.12
7835.96
7835.79
7835.62
7835.44
7835.25
7835.07
7834.88
7834.69
7834.5
7834.32
7834.13
7833.95
7833.77
7833.59
7833.42
7833.25
7833.08
7832.92
7832.76
7832.61
7832.47
7832.33
7832.2
7832.08
7831.97
7831.89
7831.85
7831.95
7832.04
7832.04
7832.04
7803.18
)
;
    }
    front
    {
        type            wedge;
    }
    back
    {
        type            wedge;
    }
}


// ************************************************************************* //
