/*--------------------------------*- C++ -*----------------------------------*\
| =========                 |                                                 |
| \\      /  F ield         | foam-extend: Open Source CFD                    |
|  \\    /   O peration     | Version:     4.1-20200408                       |
|   \\  /    A nd           | Web:         http://www.foam-extend.org         |
|    \\/     M anipulation  |                                                 |
\*---------------------------------------------------------------------------*/
FoamFile
{
    version     2.0;
    format      ascii;
    class       volScalarField;
    location    "0.0610000";
    object      J;
}
// * * * * * * * * * * * * * * * * * * * * * * * * * * * * * * * * * * * * * //

dimensions      [0 0 0 0 0 0 0];

internalField   nonuniform List<scalar> 
1952
(
0.996286
0.996434
0.99663
0.996867
0.997159
0.99749
0.99788
0.998316
0.998791
0.999399
1.00009
1.00103
1.00205
1.00315
1.00386
0.996218
0.996332
0.99648
0.996677
0.996914
0.997208
0.997539
0.99793
0.998366
0.998841
0.999449
1.00014
1.00108
1.0021
1.00319
1.0039
0.996264
0.996354
0.996502
0.996699
0.996936
0.99723
0.997561
0.997952
0.998386
0.998861
0.999468
1.00016
1.00109
1.00211
1.00319
1.00389
0.996286
0.996373
0.996521
0.996718
0.996954
0.997248
0.997578
0.997969
0.998402
0.998876
0.999482
1.00017
1.00111
1.00212
1.0032
1.00389
0.996305
0.996389
0.996537
0.996734
0.996971
0.997263
0.997594
0.997984
0.998417
0.99889
0.999494
1.00018
1.00111
1.00212
1.0032
1.00389
0.996321
0.996403
0.996552
0.996748
0.996984
0.997277
0.997607
0.997997
0.998428
0.9989
0.999504
1.00019
1.00112
1.00213
1.00321
1.00389
0.996335
0.996415
0.996564
0.99676
0.996996
0.997288
0.997618
0.998008
0.998438
0.998909
0.999512
1.0002
1.00113
1.00213
1.00321
1.00389
0.996348
0.996426
0.996574
0.99677
0.997006
0.997298
0.997627
0.998017
0.998447
0.998917
0.999519
1.0002
1.00113
1.00214
1.00321
1.00389
0.996358
0.996435
0.996584
0.996779
0.997015
0.997307
0.997636
0.998025
0.998454
0.998924
0.999525
1.00021
1.00114
1.00214
1.00321
1.00389
0.996367
0.996443
0.996592
0.996787
0.997023
0.997314
0.997643
0.998032
0.998461
0.99893
0.999531
1.00022
1.00114
1.00214
1.00321
1.00389
0.996375
0.99645
0.996599
0.996794
0.997029
0.997321
0.99765
0.998038
0.998467
0.998935
0.999536
1.00022
1.00115
1.00215
1.00322
1.0039
0.996382
0.996456
0.996605
0.9968
0.997035
0.997327
0.997656
0.998044
0.998472
0.998941
0.999541
1.00023
1.00115
1.00215
1.00322
1.0039
0.996388
0.996461
0.99661
0.996805
0.997041
0.997332
0.997661
0.998049
0.998477
0.998945
0.999545
1.00023
1.00115
1.00215
1.00322
1.0039
0.996393
0.996466
0.996615
0.99681
0.997045
0.997337
0.997666
0.998054
0.998481
0.99895
0.99955
1.00024
1.00116
1.00216
1.00323
1.00391
0.996398
0.99647
0.996619
0.996814
0.99705
0.997342
0.997671
0.998059
0.998486
0.998955
0.999554
1.00024
1.00116
1.00216
1.00323
1.00391
0.996402
0.996474
0.996623
0.996818
0.997054
0.997346
0.997675
0.998063
0.99849
0.998959
0.999559
1.00025
1.00117
1.00217
1.00324
1.00391
0.996406
0.996477
0.996627
0.996822
0.997058
0.99735
0.997679
0.998067
0.998494
0.998963
0.999563
1.00025
1.00117
1.00217
1.00324
1.00392
0.996409
0.99648
0.99663
0.996825
0.997061
0.997353
0.997683
0.998071
0.998498
0.998968
0.999568
1.00026
1.00118
1.00218
1.00325
1.00392
0.996412
0.996483
0.996633
0.996828
0.997064
0.997357
0.997687
0.998075
0.998503
0.998973
0.999573
1.00026
1.00118
1.00219
1.00325
1.00393
0.996415
0.996486
0.996636
0.996831
0.997068
0.99736
0.997691
0.998079
0.998507
0.998977
0.999578
1.00027
1.00119
1.00219
1.00326
1.00394
0.996418
0.996488
0.996638
0.996833
0.99707
0.997364
0.997695
0.998083
0.998511
0.998982
0.999584
1.00027
1.0012
1.0022
1.00327
1.00394
0.99642
0.99649
0.99664
0.996835
0.997073
0.997367
0.997698
0.998087
0.998515
0.998987
0.999589
1.00028
1.0012
1.00221
1.00327
1.00395
0.996421
0.996491
0.996641
0.996837
0.997075
0.997369
0.997701
0.998091
0.998519
0.998991
0.999594
1.00029
1.00121
1.00221
1.00328
1.00396
0.996423
0.996492
0.996642
0.996838
0.997076
0.997371
0.997704
0.998094
0.998523
0.998996
0.9996
1.00029
1.00122
1.00222
1.00329
1.00397
0.996423
0.996491
0.996642
0.996838
0.997077
0.997373
0.997706
0.998097
0.998527
0.999
0.999605
1.0003
1.00122
1.00223
1.0033
1.00398
0.996423
0.99649
0.996641
0.996838
0.997077
0.997374
0.997708
0.998099
0.99853
0.999005
0.999611
1.00031
1.00123
1.00224
1.00331
1.00399
0.996422
0.996488
0.996639
0.996836
0.997076
0.997374
0.997709
0.998101
0.998533
0.999009
0.999616
1.00031
1.00124
1.00225
1.00332
1.004
0.996419
0.996484
0.996635
0.996833
0.997074
0.997372
0.997709
0.998102
0.998535
0.999013
0.999621
1.00032
1.00124
1.00226
1.00333
1.00401
0.996415
0.996478
0.99663
0.996829
0.99707
0.99737
0.997707
0.998102
0.998535
0.999015
0.999625
1.00033
1.00125
1.00227
1.00334
1.00402
0.996409
0.99647
0.996622
0.996822
0.997064
0.997365
0.997704
0.9981
0.998535
0.999017
0.999629
1.00033
1.00126
1.00228
1.00335
1.00404
0.996401
0.99646
0.996612
0.996812
0.997056
0.997358
0.997698
0.998096
0.998532
0.999017
0.999631
1.00034
1.00127
1.00229
1.00336
1.00405
0.99639
0.996446
0.996598
0.9968
0.997044
0.997348
0.997689
0.998089
0.998527
0.999016
0.999632
1.00034
1.00127
1.0023
1.00337
1.00407
0.996376
0.996428
0.996581
0.996783
0.997028
0.997334
0.997677
0.99808
0.99852
0.999011
0.99963
1.00034
1.00128
1.00231
1.00339
1.00409
0.996358
0.996406
0.996559
0.996763
0.997009
0.997316
0.997662
0.998066
0.998509
0.999004
0.999626
1.00034
1.00128
1.00232
1.0034
1.0041
0.996336
0.996379
0.996532
0.996737
0.996984
0.997294
0.997641
0.998048
0.998493
0.998992
0.999618
1.00034
1.00128
1.00233
1.00341
1.00412
0.996308
0.996346
0.996499
0.996705
0.996953
0.997265
0.997614
0.998024
0.998472
0.998975
0.999605
1.00033
1.00128
1.00234
1.00342
1.00414
0.996275
0.996306
0.996459
0.996666
0.996915
0.997229
0.997579
0.997992
0.998443
0.998951
0.999586
1.00032
1.00127
1.00234
1.00343
1.00416
0.996234
0.996258
0.996411
0.996619
0.996869
0.997184
0.997537
0.997953
0.998406
0.99892
0.999559
1.0003
1.00126
1.00234
1.00344
1.00418
0.996187
0.996203
0.996356
0.996565
0.996815
0.997131
0.997485
0.997904
0.99836
0.998878
0.999522
1.00027
1.00124
1.00233
1.00344
1.00419
0.996132
0.99614
0.996292
0.996501
0.996751
0.997068
0.997423
0.997843
0.998301
0.998824
0.999473
1.00023
1.00121
1.00231
1.00343
1.0042
0.996068
0.996069
0.996219
0.996428
0.996676
0.996994
0.997349
0.997768
0.998229
0.998754
0.999408
1.00017
1.00116
1.00228
1.00341
1.00421
0.995997
0.99599
0.996138
0.996346
0.996592
0.996908
0.997261
0.997679
0.998139
0.998666
0.999324
1.0001
1.00109
1.00223
1.00338
1.00421
0.995919
0.995905
0.996049
0.996256
0.996498
0.99681
0.99716
0.997574
0.998032
0.998557
0.999216
0.999995
1.00099
1.00215
1.00332
1.00419
0.995834
0.995816
0.995956
0.996159
0.996396
0.996701
0.997045
0.997451
0.997903
0.998423
0.999079
0.99986
1.00086
1.00204
1.00323
1.00415
0.995745
0.995725
0.995861
0.996058
0.996287
0.996584
0.996918
0.997312
0.997754
0.998261
0.998909
0.999683
1.00069
1.00188
1.00309
1.00408
0.995656
0.995639
0.995768
0.995958
0.996177
0.996461
0.996781
0.997157
0.997582
0.998068
0.9987
0.999455
1.00044
1.00163
1.00285
1.0039
0.995572
0.995564
0.995685
0.995866
0.996072
0.996338
0.99664
0.996991
0.997392
0.997846
0.998449
0.999167
1.00012
1.00127
1.00243
1.00345
0.995499
0.995508
0.99562
0.995789
0.995978
0.996224
0.996502
0.996821
0.997191
0.997602
0.998165
0.998827
0.999724
1.00081
1.00187
1.00278
0.995445
0.995482
0.995583
0.995738
0.995908
0.996129
0.996379
0.996659
0.996991
0.997347
0.997862
0.998451
0.999284
1.00028
1.00125
1.00207
0.995422
0.995498
0.995587
0.995727
0.995875
0.996067
0.996283
0.996519
0.996805
0.997098
0.997555
0.998057
0.998817
0.999712
1.00058
1.00134
0.995441
0.99557
0.995646
0.995769
0.995892
0.996053
0.996232
0.996418
0.996653
0.996873
0.997263
0.997662
0.998344
0.999102
0.999889
1.00059
0.995518
0.995715
0.995777
0.995882
0.995978
0.996106
0.996244
0.996377
0.996555
0.996697
0.997009
0.997287
0.997876
0.998452
0.999171
0.999807
0.995667
0.99595
0.995997
0.996084
0.996152
0.996245
0.996339
0.996417
0.996533
0.996593
0.996818
0.996967
0.99744
0.997802
0.998421
0.998957
0.995906
0.996292
0.996324
0.996391
0.996431
0.996488
0.996539
0.996568
0.996631
0.996622
0.996757
0.996761
0.997062
0.9972
0.99768
0.998012
0.996252
0.996756
0.996776
0.99683
0.99685
0.996881
0.996891
0.99686
0.996851
0.996757
0.996787
0.996641
0.996778
0.99669
0.997001
0.996989
0.996721
0.997393
0.997391
0.997418
0.997399
0.997379
0.997322
0.99721
0.997105
0.996906
0.996823
0.996551
0.996546
0.996222
0.996353
0.995948
0.997362
0.998124
0.998078
0.998047
0.997957
0.997853
0.99771
0.997514
0.997318
0.997019
0.996823
0.996429
0.9963
0.995787
0.995758
0.994998
0.99811
0.998764
0.998673
0.998581
0.998419
0.998234
0.998006
0.997731
0.997454
0.99708
0.996794
0.996309
0.996071
0.995414
0.995247
0.994217
0.998771
0.999236
0.999113
0.998974
0.99876
0.998517
0.998227
0.997892
0.997549
0.997118
0.996756
0.996204
0.995874
0.995116
0.994835
0.993617
0.999263
0.99955
0.999411
0.99924
0.998992
0.99871
0.998375
0.997999
0.997605
0.997135
0.996714
0.996119
0.995716
0.9949
0.994527
0.993202
0.999594
0.999715
0.999569
0.99938
0.999116
0.998812
0.99845
0.998051
0.997621
0.997131
0.996667
0.996056
0.995597
0.994765
0.994325
0.992967
0.99977
0.999746
0.999601
0.999404
0.999133
0.998822
0.998448
0.998042
0.997594
0.997101
0.996612
0.996009
0.995516
0.994705
0.994225
0.992904
0.999808
0.999655
0.999514
0.999318
0.99905
0.998742
0.998369
0.997971
0.997521
0.997043
0.996547
0.995974
0.995468
0.994714
0.994222
0.993005
0.999719
0.99945
0.999317
0.999129
0.998873
0.998579
0.998219
0.99784
0.997403
0.996955
0.99647
0.995947
0.995451
0.994787
0.994313
0.993261
0.999512
0.999137
0.999016
0.998845
0.998608
0.998339
0.998003
0.997656
0.997244
0.996839
0.996381
0.995925
0.99546
0.994917
0.99449
0.993656
0.999193
0.998723
0.998619
0.998471
0.998263
0.998028
0.997727
0.997422
0.997048
0.996697
0.996279
0.995905
0.995493
0.995097
0.994747
0.994175
0.998769
0.998218
0.998133
0.998015
0.997843
0.99765
0.997393
0.99714
0.996814
0.996527
0.996165
0.995886
0.995548
0.995321
0.995075
0.994792
0.998253
0.997641
0.997576
0.997488
0.997353
0.997206
0.996999
0.996805
0.996538
0.996324
0.996032
0.995861
0.99562
0.995583
0.995464
0.995478
0.997667
0.997019
0.996968
0.996904
0.996801
0.996696
0.996539
0.996407
0.996207
0.996075
0.995868
0.995819
0.995703
0.995873
0.995902
0.996199
0.997038
0.996377
0.996334
0.996287
0.996206
0.996132
0.996017
0.995939
0.995806
0.995761
0.995654
0.995744
0.995781
0.996175
0.996365
0.996915
0.996393
0.995743
0.995703
0.995665
0.995598
0.995545
0.99546
0.995422
0.995341
0.995376
0.995372
0.995612
0.995829
0.996458
0.996819
0.997586
0.995758
0.995144
0.995104
0.99507
0.995011
0.99497
0.9949
0.994877
0.994817
0.994904
0.994996
0.995394
0.995815
0.996675
0.997202
0.998154
0.995159
0.994532
0.994489
0.994452
0.99439
0.994349
0.994289
0.994283
0.994292
0.994477
0.994709
0.995257
0.995821
0.996808
0.997469
0.998562
0.994547
0.994007
0.993984
0.993973
0.993955
0.993971
0.994005
0.994125
0.994292
0.994601
0.994946
0.995528
0.99609
0.997018
0.997648
0.998787
0.994016
0.994031
0.994056
0.994109
0.994179
0.994295
0.994441
0.994675
0.994925
0.995275
0.995629
0.996145
0.99661
0.997365
0.997864
0.998864
0.994022
0.994576
0.99462
0.994698
0.994803
0.994952
0.995127
0.99536
0.995591
0.995914
0.996243
0.996706
0.99713
0.997729
0.998162
0.998895
0.994559
0.995169
0.995212
0.995284
0.995381
0.995517
0.995677
0.995894
0.996125
0.99643
0.99674
0.997149
0.997532
0.998042
0.998471
0.999007
0.995152
0.995674
0.995722
0.995795
0.995896
0.996031
0.996189
0.996392
0.996609
0.996887
0.99717
0.997532
0.997875
0.998309
0.998696
0.999166
0.995657
0.996146
0.996194
0.996263
0.996359
0.996483
0.996632
0.996818
0.99702
0.997272
0.997529
0.997848
0.998154
0.99853
0.998871
0.999286
0.99613
0.996566
0.996613
0.996678
0.99677
0.996886
0.997024
0.997194
0.99738
0.997605
0.997836
0.998115
0.998385
0.998709
0.999005
0.99936
0.996551
0.996945
0.996989
0.997049
0.997135
0.99724
0.997367
0.997521
0.997689
0.997889
0.998095
0.998339
0.998576
0.998854
0.999109
0.999413
0.99693
0.997281
0.997323
0.997378
0.997457
0.997553
0.997668
0.997806
0.997957
0.998134
0.998316
0.998528
0.998734
0.998973
0.999191
0.999449
0.997268
0.997581
0.99762
0.997669
0.997741
0.997827
0.997931
0.998053
0.998188
0.998343
0.998503
0.998687
0.998865
0.99907
0.999256
0.999475
0.997569
0.997846
0.997883
0.997926
0.997992
0.998068
0.998161
0.998269
0.998388
0.998524
0.998664
0.998823
0.998976
0.99915
0.999308
0.999493
0.997836
0.998081
0.998114
0.998153
0.998212
0.998279
0.998362
0.998457
0.998561
0.998679
0.998801
0.998938
0.99907
0.999218
0.999352
0.999508
0.998072
0.998289
0.998319
0.998353
0.998405
0.998465
0.998538
0.99862
0.998712
0.998814
0.99892
0.999037
0.999149
0.999275
0.999388
0.99952
0.998281
0.998472
0.998499
0.998529
0.998575
0.998627
0.998691
0.998763
0.998843
0.998931
0.999022
0.999122
0.999218
0.999325
0.99942
0.999531
0.998465
0.998634
0.998658
0.998684
0.998725
0.99877
0.998826
0.998889
0.998958
0.999034
0.999112
0.999197
0.999279
0.999369
0.999449
0.999543
0.998628
0.998777
0.998798
0.998821
0.998857
0.998896
0.998945
0.998999
0.999058
0.999124
0.999191
0.999263
0.999332
0.999408
0.999476
0.999555
0.998771
0.998903
0.998922
0.998942
0.998973
0.999007
0.99905
0.999096
0.999147
0.999203
0.99926
0.999322
0.999381
0.999445
0.999501
0.999569
0.998899
0.999015
0.999032
0.999049
0.999076
0.999105
0.999142
0.999182
0.999226
0.999274
0.999323
0.999375
0.999425
0.999478
0.999526
0.999584
0.999011
0.999115
0.999129
0.999144
0.999168
0.999193
0.999225
0.999259
0.999297
0.999337
0.999379
0.999423
0.999465
0.999511
0.999551
0.9996
0.999111
0.999203
0.999216
0.999229
0.999249
0.999271
0.999298
0.999327
0.99936
0.999394
0.99943
0.999467
0.999503
0.999541
0.999576
0.999618
0.9992
0.999283
0.999294
0.999304
0.999322
0.999341
0.999364
0.999389
0.999417
0.999447
0.999477
0.999509
0.999539
0.999571
0.9996
0.999637
0.99928
0.999353
0.999363
0.999372
0.999388
0.999404
0.999424
0.999445
0.999469
0.999494
0.99952
0.999547
0.999572
0.9996
0.999625
0.999657
0.999351
0.999417
0.999426
0.999434
0.999447
0.999461
0.999478
0.999496
0.999517
0.999538
0.99956
0.999583
0.999605
0.999628
0.99965
0.999678
0.999415
0.999475
0.999483
0.999489
0.999501
0.999512
0.999527
0.999543
0.99956
0.999579
0.999597
0.999617
0.999636
0.999656
0.999674
0.999699
0.999474
0.999528
0.999534
0.99954
0.99955
0.99956
0.999573
0.999586
0.999601
0.999617
0.999633
0.99965
0.999665
0.999683
0.999699
0.999722
0.999526
0.999576
0.999581
0.999586
0.999595
0.999603
0.999615
0.999626
0.999639
0.999652
0.999666
0.999681
0.999694
0.999709
0.999724
0.999744
0.999574
0.999619
0.999624
0.999629
0.999636
0.999644
0.999653
0.999663
0.999674
0.999686
0.999698
0.999711
0.999722
0.999735
0.999749
0.999767
0.999618
0.99966
0.999664
0.999668
0.999674
0.999681
0.999689
0.999698
0.999708
0.999718
0.999728
0.999739
0.99975
0.999761
0.999773
0.99979
0.999659
0.999697
0.999701
0.999704
0.99971
0.999716
0.999723
0.999731
0.999739
0.999748
0.999757
0.999767
0.999776
0.999786
0.999797
0.999814
0.999696
0.999732
0.999735
0.999738
0.999743
0.999748
0.999754
0.999761
0.999769
0.999777
0.999785
0.999793
0.999802
0.999811
0.999821
0.999837
0.999731
0.999764
0.999767
0.999769
0.999774
0.999778
0.999784
0.99979
0.999797
0.999804
0.999811
0.999819
0.999827
0.999835
0.999845
0.99986
0.999763
0.999794
0.999796
0.999799
0.999803
0.999807
0.999812
0.999817
0.999824
0.99983
0.999837
0.999844
0.999851
0.999859
0.999868
0.999882
0.999793
0.999821
0.999824
0.999826
0.99983
0.999833
0.999838
0.999843
0.999849
0.999855
0.999861
0.999868
0.999874
0.999882
0.999891
0.999905
0.999821
0.999847
0.99985
0.999852
0.999855
0.999858
0.999863
0.999868
0.999873
0.999879
0.999884
0.999891
0.999897
0.999904
0.999913
0.999927
0.999847
0.999872
0.999874
0.999875
0.999879
0.999882
0.999886
0.999891
0.999896
0.999901
0.999907
0.999913
0.999919
0.999926
0.999935
0.999949
0.999871
0.999894
0.999896
0.999898
0.999901
0.999904
0.999908
0.999912
0.999917
0.999922
0.999928
0.999934
0.99994
0.999947
0.999956
0.99997
0.999894
0.999915
0.999917
0.999919
0.999921
0.999925
0.999928
0.999933
0.999937
0.999943
0.999948
0.999954
0.999961
0.999968
0.999977
0.999991
0.999915
0.999935
0.999936
0.999938
0.999941
0.999944
0.999948
0.999952
0.999957
0.999962
0.999967
0.999974
0.99998
0.999988
0.999997
1.00001
0.999934
0.999952
0.999954
0.999956
0.999958
0.999962
0.999965
0.99997
0.999974
0.99998
0.999985
0.999992
0.999999
1.00001
1.00002
1.00003
0.999952
0.999969
0.99997
0.999972
0.999975
0.999978
0.999982
0.999986
0.999991
0.999996
1
1.00001
1.00002
1.00002
1.00003
1.00005
0.999969
0.999984
0.999985
0.999987
0.99999
0.999993
0.999997
1
1.00001
1.00001
1.00002
1.00002
1.00003
1.00004
1.00005
1.00007
0.999984
0.999998
0.999999
1
1
1.00001
1.00001
1.00001
1.00002
1.00003
1.00003
1.00004
1.00005
1.00006
1.00007
1.00009
0.999997
1.00001
1.00001
1.00001
1.00002
1.00002
1.00002
1.00003
1.00003
1.00004
1.00004
1.00005
1.00006
1.00007
1.00008
1.0001
1.00001
1.00002
1.00002
1.00002
1.00003
1.00003
1.00003
1.00004
1.00004
1.00005
1.00005
1.00006
1.00007
1.00008
1.0001
1.00012
1.00002
1.00003
1.00003
1.00003
1.00003
1.00004
1.00004
1.00005
1.00005
1.00006
1.00006
1.00007
1.00008
1.00009
1.00011
1.00013
1.00003
1.00004
1.00004
1.00004
1.00004
1.00005
1.00005
1.00005
1.00006
1.00006
1.00007
1.00008
1.00009
1.0001
1.00012
1.00014
1.00004
1.00004
1.00005
1.00005
1.00005
1.00005
1.00005
1.00006
1.00006
1.00007
1.00007
1.00008
1.00009
1.0001
1.00012
1.00015
1.00004
1.00005
1.00005
1.00005
1.00005
1.00006
1.00006
1.00006
1.00007
1.00007
1.00008
1.00008
1.00009
1.0001
1.00011
1.00013
1.00005
1.00005
1.00005
1.00006
1.00006
1.00006
1.00006
1.00006
1.00007
1.00007
1.00008
1.00008
1.00009
1.00009
1.0001
1.00012
1.00005
)
;

boundaryField
{
    wireUpstream
    {
        type            calculated;
        value           nonuniform List<scalar> 
16
(
1.00006
1.00006
1.00006
1.00006
1.00006
1.00006
1.00007
1.00007
1.00007
1.00008
1.00008
1.00009
1.00009
1.00009
1.0001
1.00006
)
;
    }
    wireDownstream
    {
        type            calculated;
        value           nonuniform List<scalar> 
16
(
0.996286
0.996434
0.99663
0.996867
0.997159
0.997489
0.997879
0.998314
0.998787
0.999394
1.00008
1.00102
1.00203
1.00311
1.00379
0.996218
)
;
    }
    wireTopContact
    {
        type            calculated;
        value           nonuniform List<scalar> 
122
(
1.00396
1.00396
1.00396
1.00396
1.00396
1.00396
1.00396
1.00396
1.00396
1.00397
1.00397
1.00397
1.00397
1.00398
1.00398
1.00399
1.00399
1.004
1.004
1.00401
1.00402
1.00403
1.00403
1.00404
1.00405
1.00406
1.00408
1.00409
1.0041
1.00412
1.00413
1.00415
1.00417
1.00419
1.00421
1.00422
1.00424
1.00425
1.00426
1.00427
1.00426
1.00423
1.00419
1.0041
1.00394
1.00347
1.00278
1.00206
1.0013
1.00054
0.999756
0.998934
0.998036
0.997067
0.996059
0.995132
0.994372
0.993781
0.993363
0.99312
0.993044
0.99313
0.993369
0.993745
0.994243
0.994836
0.995494
0.996184
0.996864
0.997492
0.99802
0.998402
0.998624
0.998737
0.998873
0.999026
0.999172
0.999288
0.999364
0.999419
0.999456
0.999482
0.999501
0.999516
0.999528
0.999539
0.99955
0.999562
0.999575
0.99959
0.999605
0.999623
0.999641
0.999661
0.999681
0.999703
0.999725
0.999747
0.99977
0.999793
0.999816
0.999839
0.999861
0.999884
0.999906
0.999929
0.99995
0.999972
0.999992
1.00001
1.00003
1.00005
1.00007
1.00009
1.0001
1.00012
1.00013
1.00014
1.00015
1.00013
1.00012
1.00393
)
;
    }
    front
    {
        type            wedge;
    }
    back
    {
        type            wedge;
    }
}


// ************************************************************************* //
