/*--------------------------------*- C++ -*----------------------------------*\
  =========                 |
  \\      /  F ield         | OpenFOAM: The Open Source CFD Toolbox
   \\    /   O peration     | Website:  https://openfoam.org
    \\  /    A nd           | Version:  8
     \\/     M anipulation  |
\*---------------------------------------------------------------------------*/
FoamFile
{
    version     2.0;
    format      ascii;
    class       surfaceScalarField;
    location    "0.0670000";
    object      meshPhi;
}
// * * * * * * * * * * * * * * * * * * * * * * * * * * * * * * * * * * * * * //

dimensions      [0 3 -1 0 0 0 0];

internalField   nonuniform List<scalar> 
1691
(
-5.62509739447118e-19
-5.2637036489885e-14
-1.12411561881085e-18
-5.25875919786762e-14
-1.68462425867933e-18
-5.25352029987197e-14
-2.24667286700512e-18
-5.24933971350344e-14
-2.81207111425027e-18
-5.24767541134083e-14
-3.38074652728637e-18
-5.24752373279817e-14
-3.94592520763002e-18
-5.24722645363134e-14
-4.52102121895507e-18
-5.24769141357595e-14
-5.09711817312471e-18
-5.24924272815946e-14
-5.66754587339643e-18
-5.2492037547115e-14
-6.23172419008277e-18
-5.24646908412204e-14
-6.79931114888898e-18
-5.24284151460345e-14
-7.36706031240446e-18
-5.23956419203528e-14
-7.93430508377164e-18
-5.23632315347309e-14
-8.50018929254738e-18
-5.23279821345439e-14
-9.06989069822059e-18
-5.23001992839192e-14
-9.66212189413181e-18
-5.23066204047163e-14
-1.02803995834131e-17
-5.23596720221717e-14
-1.08945367173057e-17
-5.24278310269374e-14
-1.14925055249909e-17
-5.24696825498209e-14
-1.20789269590061e-17
-5.24767213886387e-14
-1.26607149958183e-17
-5.24619145462768e-14
-1.32472172001165e-17
-5.24537352247763e-14
-1.38899922770417e-17
-5.24886552064171e-14
-1.45256398057913e-17
-5.25520060447102e-14
-1.51310473545412e-17
-5.25896433014443e-14
-1.57259194964655e-17
-5.2590560377097e-14
-1.63346969635805e-17
-5.25940137249778e-14
-1.70059952722725e-17
-5.26527289276072e-14
-1.77223065620963e-17
-5.27570496014317e-14
-1.83268201620983e-17
-5.28284177815263e-14
-1.89786087974835e-17
-5.28630334497423e-14
-1.9662456566084e-17
-5.29250932818717e-14
-2.03849552742986e-17
-5.30354600379947e-14
-2.11599035635294e-17
-5.31915839909064e-14
-2.19634133679382e-17
-5.33848304350777e-14
-2.27843729067801e-17
-5.35990803939803e-14
-2.36279758330434e-17
-5.38120015560013e-14
-2.44103796595133e-17
-5.4012215673526e-14
-2.5391711711772e-17
-5.42941803783224e-14
-2.67183007839174e-17
-5.484054741769e-14
-2.83355964136446e-17
-5.5601887374644e-14
-2.93798850214103e-17
-5.62523653314467e-14
-3.05674900092909e-17
-5.67293301563658e-14
-3.20018399470715e-17
-5.73148591859311e-14
-3.37491940529866e-17
-5.80981925010691e-14
-3.53766346341457e-17
-5.90113840320607e-14
-3.78592623170944e-17
-6.02414542811974e-14
-4.09818480633211e-17
-6.20223803611686e-14
-4.45181691665288e-17
-6.41140836881663e-14
-4.73610958127232e-17
-6.61940256725394e-14
-5.1899337465723e-17
-6.86514935020124e-14
-5.75608372950494e-17
-7.19956807566259e-14
-6.35037847691868e-17
-7.56354288775496e-14
-6.73211881439863e-17
-7.88167990845847e-14
-7.43884696677414e-17
-8.24024570499142e-14
-8.39420676753343e-17
-8.77489573014815e-14
-9.54143727164043e-17
-9.43306766319362e-14
-1.05153906768071e-16
-1.01576745379131e-13
-1.26295838733753e-16
-1.12368577060108e-13
-1.55694346872774e-16
-1.27967649220192e-13
-1.80762994528658e-16
-1.46784454686163e-13
-2.32099305183465e-16
-1.72541163684318e-13
-2.95934358657211e-16
-2.08764031523877e-13
-3.62126021182157e-16
-2.48510175416755e-13
-4.10558291857423e-16
-2.84908547940329e-13
-4.8572274929808e-16
-3.23135209770174e-13
-5.69323344119235e-16
-3.68702711662538e-13
-6.51018641465509e-16
-4.15323919288627e-13
-7.14457583897621e-16
-4.56880475682528e-13
-7.99849269753429e-16
-4.97895924330838e-13
-8.8463383154787e-16
-5.4184657078135e-13
-9.65445345609719e-16
-5.8487323913227e-13
-1.04337450107178e-15
-6.24668385852372e-13
-1.11921136453669e-15
-6.61396735517159e-13
-1.18611305413114e-15
-6.94727082102231e-13
-1.2579525282671e-15
-7.25415391552392e-13
-1.31827134683776e-15
-7.52672884483552e-13
-1.36808728264393e-15
-7.74326563773991e-13
-1.414763204895e-15
-7.93259800816875e-13
-1.48664105689323e-15
-8.13642368840492e-13
-1.5187777388288e-15
-8.29729520302513e-13
-1.54040593987733e-15
-8.38322728757638e-13
-1.59808855367249e-15
-8.47327915115789e-13
-1.62117743969126e-15
-8.55481216612746e-13
-1.61618856724875e-15
-8.56822992860137e-13
-1.4969448665956e-15
-8.56524347490381e-13
-1.40548181891174e-15
-8.60378711222858e-13
-1.28433814303968e-15
-8.6460094887483e-13
-1.16959520771697e-15
-8.67214503394516e-13
-1.06734692993185e-15
-8.7219618045827e-13
-9.47553420975124e-16
-8.7643875805212e-13
-8.28509824448915e-16
-8.7730844035976e-13
-7.12472344283052e-16
-8.78897905300758e-13
-5.98676807911146e-16
-8.83192248892243e-13
-4.80781226228806e-16
-8.8777467141425e-13
-3.61103886862768e-16
-8.90571615850103e-13
-2.41095928186077e-16
-8.91817981995128e-13
-1.20395479478918e-16
-8.91998231611392e-13
-8.91632209987222e-13
-1.70210725910781e-18
-1.06421755798557e-13
-3.4003738170498e-18
-1.0629167713929e-13
-5.09481361352182e-18
-1.06160372534173e-13
-6.78719880579835e-18
-1.06039608296906e-13
-8.47950546318359e-18
-1.05941165923474e-13
-1.01703026756891e-17
-1.05856309631587e-13
-1.1858627306638e-17
-1.05770017469104e-13
-1.3548382039051e-17
-1.05690601559586e-13
-1.52372736675692e-17
-1.05621032328437e-13
-1.69184030896087e-17
-1.0553712824639e-13
-1.85925364069325e-17
-1.0542927462107e-13
-2.02641757776417e-17
-1.05313677745802e-13
-2.19337966448896e-17
-1.05201303453091e-13
-2.35995199166479e-17
-1.05089235309311e-13
-2.5261433177119e-17
-1.04974473298126e-13
-2.69258156454394e-17
-1.04866334337972e-13
-2.86053820957293e-17
-1.04788780918334e-13
-3.02999120425016e-17
-1.04752673999466e-13
-3.19910818257859e-17
-1.04729700097008e-13
-3.3666603883949e-17
-1.04683227344303e-13
-3.5329069279032e-17
-1.04606097621296e-13
-3.69829939973372e-17
-1.04509811744934e-13
-3.86472303962461e-17
-1.04419141631803e-13
-4.03384890462548e-17
-1.04366766138898e-13
-4.20300205446136e-17
-1.04340052047683e-13
-4.36959551126515e-17
-1.04290474877099e-13
-4.53476625317062e-17
-1.04207705372537e-13
-4.70135535338947e-17
-1.04127061129779e-13
-4.87268648569485e-17
-1.04096052651742e-13
-5.04482138398665e-17
-1.04105964054801e-13
-5.21245295493203e-17
-1.04085865698572e-13
-5.38019872143065e-17
-1.0403292077143e-13
-5.55147389491623e-17
-1.04004869596632e-13
-5.72589607784332e-17
-1.04019181621054e-13
-5.90413966739509e-17
-1.04074248577078e-13
-6.08481289480463e-17
-1.04162369257342e-13
-6.26735803453265e-17
-1.04268841495678e-13
-6.44923011251611e-17
-1.04374630643458e-13
-6.6310979437697e-17
-1.04468034043644e-13
-6.82736856528205e-17
-1.04632267333198e-13
-7.05477007901564e-17
-1.05031328789081e-13
-7.2912132058657e-17
-1.0562373824429e-13
-7.5047922760542e-17
-1.06115708229432e-13
-7.71556444168794e-17
-1.06450989150298e-13
-7.95268475850967e-17
-1.06884045238432e-13
-8.20424478549015e-17
-1.07493382896756e-13
-8.47123638561731e-17
-1.08211972983199e-13
-8.79109423741577e-17
-1.092108544512e-13
-9.17641235999075e-17
-1.10702290796352e-13
-9.57173967871595e-17
-1.12466232791089e-13
-9.97029742723941e-17
-1.14211845524544e-13
-1.04613504490293e-16
-1.16289384097283e-13
-1.10684188712479e-16
-1.19155775649503e-13
-1.16493840835069e-16
-1.2228893282184e-13
-1.21818408092288e-16
-1.24995682878165e-13
-1.2879670828199e-16
-1.28050748666335e-13
-1.38456412763877e-16
-1.32677203802738e-13
-1.48720634114555e-16
-1.38398573323091e-13
-1.60415585458809e-16
-1.44650142170596e-13
-1.79822337982076e-16
-1.54020156674982e-13
-2.04206633251331e-16
-1.67705874533205e-13
-2.32666509317923e-16
-1.84085298314766e-13
-2.76134260901441e-16
-2.06560680289426e-13
-3.33659889305698e-16
-2.38382785628433e-13
-3.89101492886953e-16
-2.73309010006121e-13
-4.40737811346136e-16
-3.05122877067297e-13
-5.04072702538383e-16
-3.38508900237286e-13
-5.7895453128922e-16
-3.78477950862611e-13
-6.48723988324681e-16
-4.19350537225437e-13
-7.13024285226491e-16
-4.55677964373614e-13
-7.84605053617154e-16
-4.91477854048904e-13
-8.60675190983597e-16
-5.29874540079538e-13
-9.32978982144538e-16
-5.67421558097871e-13
-1.00290869629797e-15
-6.02109520327935e-13
-1.06914479473985e-15
-6.34074880002758e-13
-1.13164555504858e-15
-6.63034220809775e-13
-1.19227150224593e-15
-6.89583412306279e-13
-1.24635164205754e-15
-7.13040712896988e-13
-1.29155916293196e-15
-7.31667780003096e-13
-1.3388384282449e-15
-7.47979912866688e-13
-1.38957764926398e-15
-7.65163176799131e-13
-1.42439686756351e-15
-7.78661466960657e-13
-1.45242486779735e-15
-7.86084278606389e-13
-1.48807419179883e-15
-7.9312865230004e-13
-1.51349533554514e-15
-7.99263680111699e-13
-1.51212243572326e-15
-8.00408440362662e-13
-1.40634961306562e-15
-8.0056772861588e-13
-1.30664205178399e-15
-8.03442524976133e-13
-1.20081366371524e-15
-8.06762603643107e-13
-1.09590789139913e-15
-8.09545425531633e-13
-9.93450624065574e-16
-8.13903511984053e-13
-8.84882486149222e-16
-8.17475702611251e-13
-7.74340780245998e-16
-8.18421271267995e-13
-6.66185936324646e-16
-8.20056955950862e-13
-5.58343226187671e-16
-8.23799815111059e-13
-4.48547410073223e-16
-8.27694111616522e-13
-3.37131516932494e-16
-8.30328893066858e-13
-2.24898320343602e-16
-8.31477130185573e-13
-1.12425903521569e-16
-8.31671148151752e-13
-8.31544814781761e-13
-2.87081963886529e-18
-1.61611539696495e-13
-5.7340439938741e-18
-1.61382862589894e-13
-8.5898357440486e-18
-1.61158142614631e-13
-1.14397073322262e-17
-1.60943754097913e-13
-1.42853898931379e-17
-1.60748688751971e-13
-1.71256341372153e-17
-1.6056548726279e-13
-1.9959563263377e-17
-1.60381113983778e-13
-2.27907023379571e-17
-1.60202748107636e-13
-2.56169496744311e-17
-1.60032931539589e-13
-2.84322480164225e-17
-1.59850711950526e-13
-3.1237300241701e-17
-1.59647772629802e-13
-3.4036097001076e-17
-1.59438158200227e-13
-3.68290195405039e-17
-1.59231372221593e-13
-3.96144156999467e-17
-1.59024871596812e-13
-4.23923066807333e-17
-1.58816045004685e-13
-4.51683120652059e-17
-1.58613026060554e-13
-4.79535909697541e-17
-1.58436585124797e-13
-5.07478695373265e-17
-1.58296018345484e-13
-5.35350071290091e-17
-1.58166820069078e-13
-5.63043608506447e-17
-1.5801732683277e-13
-5.90582076213478e-17
-1.57841307316667e-13
-6.18005468258586e-17
-1.57648780471726e-13
-6.45476397573008e-17
-1.57461168832187e-13
-6.73145365163134e-17
-1.57306666718091e-13
-7.00776220826465e-17
-1.57174420872405e-13
-7.28141527781419e-17
-1.57022479819385e-13
-7.5533775423056e-17
-1.56841827284743e-13
-7.82620067834396e-17
-1.56663029416603e-13
-8.10278197489839e-17
-1.56527198351779e-13
-8.37967938791124e-17
-1.56426773459417e-13
-8.65215654604443e-17
-1.56300504899459e-13
-8.92437672278337e-17
-1.56145905552162e-13
-9.19926231020681e-17
-1.56012796805528e-13
-9.47648526967398e-17
-1.55916354603916e-13
-9.75667512334089e-17
-1.55855186335492e-13
-1.00385733432472e-16
-1.55822668756671e-13
-1.03217002972709e-16
-1.55806100954837e-13
-1.06038752831364e-16
-1.55788997151035e-13
-1.08855091342951e-16
-1.55761311247272e-13
-1.11793371735526e-16
-1.55794796124268e-13
-1.15000510487589e-16
-1.56030976539073e-13
-1.18284679853579e-16
-1.56433936665321e-13
-1.21360894307399e-16
-1.56750460383189e-13
-1.24409732143034e-16
-1.56932019392042e-13
-1.27684890870498e-16
-1.57197692460815e-13
-1.31083483381131e-16
-1.57615492354676e-13
-1.3460629308345e-16
-1.58127815900236e-13
-1.38593554316932e-16
-1.5888173767408e-13
-1.43147607445254e-16
-1.60060278227933e-13
-1.47784337010088e-16
-1.61474155897158e-13
-1.52437743285126e-16
-1.62872633532144e-13
-1.57900249740222e-16
-1.64557064873134e-13
-1.64371752235173e-16
-1.66920916035558e-13
-1.70617833609677e-16
-1.69514691182995e-13
-1.76404956964826e-16
-1.71741413930905e-13
-1.83651145425611e-16
-1.74267121007445e-13
-1.93231186137818e-16
-1.78145027194655e-13
-2.03342871175132e-16
-1.82966408989691e-13
-2.14620837559191e-16
-1.88245093946604e-13
-2.32681485325708e-16
-1.96205448286386e-13
-2.55109546979127e-16
-2.07878515040467e-13
-2.80867932325898e-16
-2.21870988011174e-13
-3.19878925815175e-16
-2.41099524835417e-13
-3.71108897620854e-16
-2.6836193800539e-13
-4.20553789221518e-16
-2.98300548040389e-13
-4.66409644644463e-16
-3.25558219947765e-13
-5.22627786606125e-16
-3.5414253336084e-13
-5.88858817489666e-16
-3.88372289378497e-13
-6.50639660129532e-16
-4.23383047373764e-13
-7.07497903746189e-16
-4.54474570476574e-13
-7.70711840762511e-16
-4.85078667832781e-13
-8.37773849676558e-16
-5.17887245923487e-13
-9.01523507108742e-16
-5.49954404201074e-13
-9.63175931731675e-16
-5.79552486919184e-13
-1.02154600269037e-15
-6.06787570004147e-13
-1.07662522369076e-15
-6.31404291243531e-13
-1.12988887105447e-15
-6.53915281600529e-13
-1.17745855691171e-15
-6.73751678247477e-13
-1.21741917141414e-15
-6.89427437260216e-13
-1.25911909367716e-15
-7.03084307660954e-13
-1.30307347821288e-15
-7.17435071100863e-13
-1.33405352211918e-15
-7.28619336927685e-13
-1.3591145001016e-15
-7.34590659224213e-13
-1.38928389073085e-15
-7.40133359442127e-13
-1.4117440413501e-15
-7.44893649343911e-13
-1.41069470052751e-15
-7.45529748969245e-13
-1.31199820618489e-15
-7.45560768141339e-13
-1.21730969313251e-15
-7.47886946027872e-13
-1.11892324511982e-15
-7.50678746438186e-13
-1.02122429744782e-15
-7.53108298188471e-13
-9.25034226158239e-16
-7.5688582231594e-13
-8.23933082100566e-16
-7.59977185725869e-13
-7.21108646976153e-16
-7.60825563885341e-13
-6.20359408208972e-16
-7.62268868076747e-13
-5.19645507248869e-16
-7.65529760123427e-13
-4.17367909717957e-16
-7.68908895247494e-13
-3.13711435046903e-16
-7.71191419097171e-13
-2.0925612595925e-16
-7.7223699017073e-13
-1.04625929681345e-16
-7.72468719315763e-13
-7.72362417513691e-13
-4.06919022588621e-18
-2.18175482848536e-13
-8.12642826921219e-18
-2.17831522267862e-13
-1.21720115491542e-17
-2.174996246071e-13
-1.62071614574725e-17
-2.17177446907899e-13
-2.0233386045915e-17
-2.16871533826636e-13
-2.42496295265819e-17
-2.16575702344937e-13
-2.82551237689599e-17
-2.16278952534275e-13
-3.22528957824715e-17
-2.15987306117198e-13
-3.62411341952945e-17
-2.1570290571699e-13
-4.02146731037217e-17
-2.1540810551954e-13
-4.41741272293701e-17
-2.15095881145553e-13
-4.81228875778407e-17
-2.1477805436237e-13
-5.20613063358071e-17
-2.14462648444855e-13
-5.59879424517131e-17
-2.14147523918446e-13
-5.99028254445361e-17
-2.13830453322017e-13
-6.38108108638794e-17
-2.13518305188192e-13
-6.77213812362493e-17
-2.13228594377961e-13
-7.16343087228417e-17
-2.12969110198026e-13
-7.55358353503255e-17
-2.127192454928e-13
-7.94168420818635e-17
-2.12452354649524e-13
-8.32792508156272e-17
-2.12163148809223e-13
-8.71265728824509e-17
-2.11860110731661e-13
-9.09726077796411e-17
-2.1156124368111e-13
-9.48302278842239e-17
-2.11290208616581e-13
-9.86793320977211e-17
-2.11037976877863e-13
-1.02500473496439e-16
-2.10769304078718e-13
-1.06301820188619e-16
-2.10476491467548e-13
-1.10105221825131e-16
-2.10185200982675e-13
-1.13935392918084e-16
-2.09930055314758e-13
-1.177629897923e-16
-2.09704760321436e-13
-1.21547646578709e-16
-2.09457874341993e-13
-1.253247621476e-16
-2.09187209143041e-13
-1.29119289534294e-16
-2.08934563115978e-13
-1.32928530639938e-16
-2.08712776330767e-13
-1.36757758692077e-16
-2.08520679088326e-13
-1.40596393504275e-16
-2.083527413714e-13
-1.44440217039604e-16
-2.08198314563411e-13
-1.48270717184493e-16
-2.08043516854868e-13
-1.52091362522071e-16
-2.07879909847458e-13
-1.56010543800218e-16
-2.07767583448922e-13
-1.60153564991598e-16
-2.07825321021038e-13
-1.64356866068657e-16
-2.08023085924962e-13
-1.68378292053188e-16
-2.08148645730754e-13
-1.72370884225423e-16
-2.08161114982299e-13
-1.76550741256331e-16
-2.08243899313957e-13
-1.80830721593305e-16
-2.08454297949781e-13
-1.85211297167775e-16
-2.08744080023474e-13
-1.89981593662055e-16
-2.09236257609481e-13
-1.95229442303053e-16
-2.1008447399514e-13
-2.00542961025914e-16
-2.11130443760048e-13
-2.05865482051558e-16
-2.12163659163908e-13
-2.11870698385039e-16
-2.13436225242364e-13
-2.18728996376184e-16
-2.1527796055861e-13
-2.25390859587913e-16
-2.17312640752334e-13
-2.31656883173449e-16
-2.19039712385249e-13
-2.39155895340231e-16
-2.21015848437858e-13
-2.48634162510632e-16
-2.24123593936159e-13
-2.58560534080794e-16
-2.28022000916616e-13
-2.69471293133282e-16
-2.32302174014089e-13
-2.86135219411074e-16
-2.38824016625411e-13
-3.06508260822594e-16
-2.48453193955159e-13
-3.29701072021909e-16
-2.60021328048079e-13
-3.64126523543494e-16
-2.7596169516141e-13
-4.08930783504696e-16
-2.98620626420457e-13
-4.52223703247706e-16
-3.23524140568629e-13
-4.92438358469818e-16
-3.46178219493449e-13
-5.41404130168608e-16
-3.69919905547651e-13
-5.98867939057003e-16
-3.98371803356099e-13
-6.52552635608834e-16
-4.27479010203135e-13
-7.02014603304411e-16
-4.53298793800547e-13
-7.56808085280768e-16
-4.78682579707622e-13
-8.14837303116842e-16
-5.05886293885103e-13
-8.70036523199011e-16
-5.3246111722174e-13
-9.23423121197408e-16
-5.56962602008669e-13
-9.7397210619241e-16
-5.79470650967893e-13
-1.02166117498553e-15
-5.99763837498542e-13
-1.06775908023351e-15
-6.18273503163225e-13
-1.10900087905427e-15
-6.34535322430366e-13
-1.14374833618821e-15
-6.47308303379424e-13
-1.17989380473226e-15
-6.58372028412442e-13
-1.21786533587013e-15
-6.69992194996698e-13
-1.24487275720835e-15
-6.78960083531583e-13
-1.26677678936475e-15
-6.8356219759974e-13
-1.29282320867807e-15
-6.87775507836544e-13
-1.31247195118378e-15
-6.91329652502246e-13
-1.31114997205025e-15
-6.91503925065134e-13
-1.21903167175171e-15
-6.914226331502e-13
-1.13039124608922e-15
-6.93279509560529e-13
-1.0387870991412e-15
-6.95574326160581e-13
-9.47799603264842e-16
-6.97596659458714e-13
-8.58061156318356e-16
-7.00757002447592e-13
-7.64174803170827e-16
-7.03353816360797e-13
-6.68825495335063e-16
-7.0408816156296e-13
-5.75226483840705e-16
-7.05322708673564e-13
-4.81651853250141e-16
-7.08071913043389e-13
-3.86730303190829e-16
-7.10914764312773e-13
-2.90638124126233e-16
-7.12841873284805e-13
-1.93873344397292e-16
-7.13745015664635e-13
-9.6938220905246e-17
-7.13965014793353e-13
-7.13873050104958e-13
-5.29661877390366e-18
-2.7608820235057e-13
-1.05763809566808e-17
-2.75613065417102e-13
-1.58396446225825e-17
-2.75160889669489e-13
-2.10873813435442e-17
-2.74717324571164e-13
-2.63208454158704e-17
-2.7428690939495e-13
-3.15391522418651e-17
-2.73864725110424e-13
-3.67416994451448e-17
-2.73441859860412e-13
-4.19309688104217e-17
-2.73023156001938e-13
-4.71054709540253e-17
-2.72610370264849e-13
-5.22609567205778e-17
-2.72189241306791e-13
-5.73978900129384e-17
-2.71754047755863e-13
-6.25191189254632e-17
-2.71314333004295e-13
-6.76249093412749e-17
-2.70876612410027e-13
-7.27141003357953e-17
-2.70439171078762e-13
-7.77866683498831e-17
-2.70000173524642e-13
-8.28466780634418e-17
-2.69565158682882e-13
-8.7901964140424e-17
-2.6914831188783e-13
-9.2952325907076e-17
-2.68755944013162e-13
-9.79864171243012e-17
-2.6837142961786e-13
-1.02996688559337e-16
-2.67973217193073e-13
-1.07984727501297e-16
-2.67556987792246e-13
-1.12953451333467e-16
-2.67129628097229e-13
-1.1791422232907e-16
-2.66705652362582e-13
-1.2287768280722e-16
-2.66304135813411e-13
-1.27827331950262e-16
-2.65917901961865e-13
-1.32747064667589e-16
-2.65518537733727e-13
-1.37643540181107e-16
-2.6509969522179e-13
-1.42534827667306e-16
-2.64682011568333e-13
-1.47441357587608e-16
-2.64293502370415e-13
-1.52338996124299e-16
-2.63929201082161e-13
-1.57194408105529e-16
-2.63547621379043e-13
-1.62036679520666e-16
-2.63146869599818e-13
-1.66886441524304e-16
-2.62760608183936e-13
-1.71741548476909e-16
-2.623992801899e-13
-1.76606275057957e-16
-2.62061955767856e-13
-1.81472037882539e-16
-2.6174420342289e-13
-1.86335256732102e-16
-2.61437458242833e-13
-1.91180730499402e-16
-2.61130505328861e-13
-1.96011230219397e-16
-2.60816497332602e-13
-2.00915920469235e-16
-2.60543693807625e-13
-2.0599822932593e-16
-2.6040783155301e-13
-2.11123535016913e-16
-2.60384968866214e-13
-2.16092644739181e-16
-2.60304348930424e-13
-2.21030862732587e-16
-2.60132688761856e-13
-2.26116273296187e-16
-2.600173675763e-13
-2.31277516563509e-16
-2.6000481536e-13
-2.36514651880338e-16
-2.6005619982112e-13
-2.42065467915146e-16
-2.60270300086193e-13
-2.48003007462415e-16
-2.60771090853305e-13
-2.53988341302461e-16
-2.61431552207739e-13
-2.59974002382345e-16
-2.62081872580426e-13
-2.66514059454106e-16
-2.62924337147277e-13
-2.73749305889404e-16
-2.64224519502652e-13
-2.80816901796696e-16
-2.65680382476492e-13
-2.87551194871136e-16
-2.66888775603871e-13
-2.95290286944601e-16
-2.68296010956257e-13
-3.04650303799254e-16
-2.70612256071017e-13
-3.14373183693259e-16
-2.73564852768803e-13
-3.24894407412674e-16
-2.76823245624405e-13
-3.40133097975962e-16
-2.81880034776162e-13
-3.58416495774361e-16
-2.89433630877275e-13
-3.79001161664276e-16
-2.98543367339281e-13
-4.08792500411969e-16
-3.11157265620519e-13
-4.47108562693634e-16
-3.29164974740977e-13
-4.84184933860634e-16
-3.48980800314923e-13
-5.18700996850304e-16
-3.66985248280389e-13
-5.60364654792933e-16
-3.85844885046829e-13
-6.08999326603345e-16
-4.08476605769434e-13
-6.54527199966887e-16
-4.31636107058386e-13
-6.96548778916732e-16
-4.52148405226147e-13
-7.42892768210676e-16
-4.72287701011163e-13
-7.91865295877609e-16
-4.93869237248996e-13
-8.38497016264555e-16
-5.14938786720551e-13
-8.83610804498866e-16
-5.34336342547651e-13
-9.26351749368181e-16
-5.52119202158755e-13
-9.66691669210376e-16
-5.68104267065772e-13
-1.00568730865324e-15
-5.82640019489713e-13
-1.04067391733555e-15
-5.95362638735463e-13
-1.07029473769705e-15
-6.05277565909904e-13
-1.10100556309109e-15
-6.13804410495643e-13
-1.13317316734084e-15
-6.22760868160142e-13
-1.15633850798028e-15
-6.29585950383582e-13
-1.17526279993274e-15
-6.32902303578316e-13
-1.19751876326642e-15
-6.35887848764572e-13
-1.21454606671353e-15
-6.38342773381368e-13
-1.21303525701194e-15
-6.38146042309265e-13
-1.12747445945652e-15
-6.3800142636799e-13
-1.04487472556742e-15
-6.39421950284746e-13
-9.59906802076918e-16
-6.41232354533043e-13
-8.75467556780757e-16
-6.4284330041907e-13
-7.92060117774084e-16
-6.45375531582277e-13
-7.05264136865731e-16
-6.47465874147717e-13
-6.17271170288124e-16
-6.4807319564237e-13
-5.30703864326773e-16
-6.49082787867956e-13
-4.44148537063433e-16
-6.51303387625236e-13
-3.56482057422808e-16
-6.53597254387572e-13
-2.6785341075376e-16
-6.55157593700217e-13
-1.78670162927951e-16
-6.55900228584119e-13
-8.93377349910475e-17
-6.56089162333541e-13
-6.56001664467372e-13
-6.55259816178131e-18
-3.35324917194129e-13
-1.3082888754101e-17
-3.34703484311168e-13
-1.95912518328401e-17
-3.34118577495278e-13
-2.60784254933778e-17
-3.33540570549183e-13
-3.25453741878503e-17
-3.32972536864778e-13
-3.8991441036895e-17
-3.3241080896984e-13
-4.54161259620497e-17
-3.31848617029065e-13
-5.18214021889937e-17
-3.31289605132145e-13
-5.8206110195631e-17
-3.30735142332332e-13
-6.45668821723155e-17
-3.30174427060413e-13
-7.09041141089188e-17
-3.29603069853372e-13
-7.72200021015889e-17
-3.29028286923916e-13
-8.35148061306575e-17
-3.28455048652322e-13
-8.97875938474616e-17
-3.27882074745271e-13
-9.60383464174703e-17
-3.27307938717973e-13
-1.02270258546954e-16
-3.26736807186295e-13
-1.08489480379076e-16
-3.26179455194556e-13
-1.14695883436465e-16
-3.25640709188032e-13
-1.20880586367037e-16
-3.25108004212107e-13
-1.27037597121025e-16
-3.24564980758234e-13
-1.33168176427908e-16
-3.24008323676057e-13
-1.39274653710131e-16
-3.23443268713657e-13
-1.45365875063192e-16
-3.22880777764821e-13
-1.51450250458582e-16
-3.22335275870626e-13
-1.57514894245472e-16
-3.21801444325204e-13
-1.63547157437757e-16
-3.21257818472194e-13
-1.69552141624639e-16
-3.20699462554762e-13
-1.75544041979346e-16
-3.20141900791861e-13
-1.81538967114546e-16
-3.19606403254153e-13
-1.87518052636918e-16
-3.19089349130581e-13
-1.93455109601515e-16
-3.18559365919293e-13
-1.9937283919151e-16
-3.1801488225325e-13
-2.05287466110092e-16
-3.17481311675722e-13
-2.11197371419373e-16
-3.16966627213938e-13
-2.17105871645515e-16
-3.16470146208827e-13
-2.23006317640013e-16
-3.15988542944374e-13
-2.28895868028501e-16
-3.15515363724834e-13
-2.34762634413368e-16
-3.15042122630183e-13
-2.40608676109195e-16
-3.14563578973119e-13
-2.46503682602587e-16
-3.1411601890093e-13
-2.52528888030411e-16
-3.13771798211497e-13
-2.58579141115826e-16
-3.13513165352462e-13
-2.64498513589609e-16
-3.13211336851146e-13
-2.70384392859653e-16
-3.12840761607224e-13
-2.76376395056838e-16
-3.12512442784632e-13
-2.82418988445282e-16
-3.12261716738139e-13
-2.88511830443279e-16
-3.12059223914734e-13
-2.94840952523373e-16
-3.11979302861805e-13
-3.01464229513777e-16
-3.12115854329795e-13
-3.08116522736877e-16
-3.12373388947314e-13
-3.147598039739e-16
-3.12623366940174e-13
-3.21827148079188e-16
-3.13017805797551e-13
-3.29429560500965e-16
-3.13757315394374e-13
-3.36892828105866e-16
-3.14614800574438e-13
-3.44085565794954e-16
-3.15285662795972e-13
-3.52052594375276e-16
-3.16105049550791e-13
-3.61278037815619e-16
-3.17608871821407e-13
-3.70779468284908e-16
-3.19593025947713e-13
-3.80891868904722e-16
-3.21806628396021e-13
-3.94677312531802e-16
-3.25372301011325e-13
-4.10835776373925e-16
-3.30818915074981e-13
-4.28775118848741e-16
-3.37436357820199e-13
-4.53883160397523e-16
-3.46685958502617e-13
-4.85644429630959e-16
-3.5999506938904e-13
-5.16436451365763e-16
-3.74670340171271e-13
-5.45200720742887e-16
-3.87978397914981e-13
-5.79509563061048e-16
-4.01915945460401e-13
-6.19250287750513e-16
-4.18684860201059e-13
-6.56559526612517e-16
-4.35852217473737e-13
-6.91097466085597e-16
-4.51021070467746e-13
-7.28962199545167e-16
-4.65891521631787e-13
-7.68853207780436e-16
-4.81833110095525e-13
-8.06899608461333e-16
-4.97383900567555e-13
-8.43733244344735e-16
-5.11670188970818e-13
-8.78677785762344e-16
-5.24730098239796e-13
-9.11704712274671e-16
-5.36422389721731e-13
-9.43649428422801e-16
-5.47010955837945e-13
-9.72445321033175e-16
-5.56228747932378e-13
-9.97024927042687e-16
-5.63329029552761e-13
-1.02240742080751e-15
-5.69373093303084e-13
-1.0488935067404e-15
-5.75727995298516e-13
-1.06835036798949e-15
-5.80478259379017e-13
-1.08445750667216e-15
-5.82586062293066e-13
-1.1031165496842e-15
-5.84432351334082e-13
-1.11771136801959e-15
-5.85881530944782e-13
-1.11616520262285e-15
-5.854000346459e-13
-1.03714194219753e-15
-5.85239412848846e-13
-9.60520898098592e-16
-5.86251641839652e-13
-8.82097960514691e-16
-5.87589323708736e-13
-8.04102751723014e-16
-5.88791564812644e-13
-7.26918983513347e-16
-5.90692029882478e-13
-6.47106489613193e-16
-5.92267659620011e-13
-5.6636331905232e-16
-5.92736416947428e-13
-4.86723166821281e-16
-5.93507939553266e-13
-4.07087715612922e-16
-5.95187021925188e-13
-3.26582689011205e-16
-5.96920546135917e-13
-2.45325683227708e-16
-5.98103532559228e-13
-1.6363343531625e-16
-5.98673053694693e-13
-8.18188047961053e-17
-5.98818767977237e-13
-5.98728876454707e-13
-7.83658790086685e-18
-3.95861762926014e-13
-1.56449482674904e-17
-3.95079668326044e-13
-2.34253762932569e-17
-3.94350212308478e-13
-3.11783737467716e-17
-3.9362524093451e-13
-3.89046667734927e-17
-3.92906999021358e-13
-4.66037624869467e-17
-3.92193056340217e-13
-5.42753413530337e-17
-3.9147884247245e-13
-6.19207769575633e-17
-3.90766786792451e-13
-6.95392700445675e-17
-3.90057853036684e-13
-7.71283911307055e-17
-3.89344774974586e-13
-8.46884020218749e-17
-3.88624540903479e-13
-9.22209155727066e-17
-3.87901995643939e-13
-9.97261017312527e-17
-3.87180518505585e-13
-1.07203327961576e-16
-3.86459265402964e-13
-1.14652520862473e-16
-3.85737247511913e-13
-1.22076005372445e-16
-3.85017234622836e-13
-1.29478234074526e-16
-3.84306500863215e-13
-1.36859154047405e-16
-3.83608354023395e-13
-1.44212327937173e-16
-3.82914361799943e-13
-1.51533437915887e-16
-3.82213473090064e-13
-1.58823378004527e-16
-3.81503421389881e-13
-1.66083845833403e-16
-3.80787738358901e-13
-1.73321185645787e-16
-3.80073775851808e-13
-1.80541490803384e-16
-3.79371237086797e-13
-1.87735552759526e-16
-3.78676641153196e-13
-1.94894214024562e-16
-3.77975581937237e-13
-2.02021067178415e-16
-3.77264629066948e-13
-2.09126334827922e-16
-3.7655413597185e-13
-2.16221706266657e-16
-3.75858465902387e-13
-2.23293675027313e-16
-3.75175319916878e-13
-2.30323301037271e-16
-3.74483605845264e-13
-2.37326849609618e-16
-3.73782136239318e-13
-2.44316050156333e-16
-3.73087969210116e-13
-2.51289781096094e-16
-3.72406522001067e-13
-2.58250422135482e-16
-3.71737358077626e-13
-2.65193237976016e-16
-3.71078263828316e-13
-2.72116157967476e-16
-3.70424915005499e-13
-2.79010660985615e-16
-3.69771615024156e-13
-2.85878095003381e-16
-3.69114772663341e-13
-2.92768455688563e-16
-3.68478594086983e-13
-2.99740385324132e-16
-3.67911706998791e-13
-3.0671862447546e-16
-3.67402541437855e-13
-3.13590925054968e-16
-3.66864754442582e-13
-3.20426707176793e-16
-3.66280782692058e-13
-3.27326563967827e-16
-3.65724943429742e-13
-3.3425083938522e-16
-3.65221196617453e-13
-3.41198894079502e-16
-3.64749766557938e-13
-3.48304438454618e-16
-3.64360347673423e-13
-3.55609730728469e-16
-3.64116256638742e-13
-3.6292428882429e-16
-3.63953760396272e-13
-3.70219919519385e-16
-3.63786265044636e-13
-3.77807421025747e-16
-3.63715166831855e-13
-3.85767488067375e-16
-3.63875281881387e-13
-3.93616462147479e-16
-3.64115069031009e-13
-4.0125812289558e-16
-3.64229787074233e-13
-4.09441553753083e-16
-3.64442827791989e-13
-4.18516542009193e-16
-3.65113805523954e-13
-4.27778740824724e-16
-3.66107213047513e-13
-4.37463758167425e-16
-3.67253494851751e-13
-4.4976874191346e-16
-3.69302714867699e-13
-4.63767126772415e-16
-3.72611376826747e-13
-4.79024410515911e-16
-3.76702894917747e-13
-4.99400772507975e-16
-3.82550797397746e-13
-5.24540382948935e-16
-3.91113922976762e-13
-5.48979142654856e-16
-4.00595008559631e-13
-5.71937201139595e-16
-4.09158957866095e-13
-5.98837660943535e-16
-4.18133534587144e-13
-6.29618831386953e-16
-4.28996195351274e-13
-6.58646893219974e-16
-4.40126250252144e-13
-6.85657479758839e-16
-4.49915162752764e-13
-7.1501262818735e-16
-4.59491969309599e-13
-7.45796478223577e-16
-4.69775465151953e-13