/*--------------------------------*- C++ -*----------------------------------*\
  =========                 |
  \\      /  F ield         | OpenFOAM: The Open Source CFD Toolbox
   \\    /   O peration     | Website:  https://openfoam.org
    \\  /    A nd           | Version:  8
     \\/     M anipulation  |
\*---------------------------------------------------------------------------*/
FoamFile
{
    version     2.0;
    format      ascii;
    class       volVectorField;
    location    "0.0670000";
    object      U;
}
// * * * * * * * * * * * * * * * * * * * * * * * * * * * * * * * * * * * * * //

dimensions      [0 1 -1 0 0 0 0];

internalField   nonuniform List<vector> 
900
(
(0.71739237599435 0.000368879725085349 5.8370775718387e-19)
(0.717882291392172 0.000209432513783849 1.95070614444303e-18)
(0.717864998860956 0.000169813073234013 6.45538420026293e-19)
(0.717935071157126 0.000193548432657876 4.65069654766491e-19)
(0.717864103968597 0.00020126030900979 -4.01186085306621e-18)
(0.717752560940198 0.000207229316093196 2.26189610080831e-18)
(0.717623926265809 0.00021134046588712 9.18657374631922e-18)
(0.717491648850385 0.000214790657036261 1.15014753731083e-18)
(0.717357412091368 0.000217538305929767 -2.94684366749459e-18)
(0.717220414564638 0.000220191707567693 -6.31396982865444e-18)
(0.717080738548267 0.000223119640454891 -2.46630026848728e-17)
(0.716938359838098 0.000225917131042575 1.96266639993115e-17)
(0.71679274837664 0.000228123764063674 2.05652092731273e-17)
(0.716643787165691 0.000230168589167693 3.41437810661413e-17)
(0.716491887096227 0.00023255264960399 -1.17790585433508e-17)
(0.716336767008085 0.000235010524401513 -5.10449495652004e-18)
(0.716177504828499 0.000237104538344374 1.04241993606624e-17)
(0.716013881901342 0.000239137132542307 1.68669534786312e-17)
(0.715846177006204 0.000241522804638138 1.05061426451496e-17)
(0.7156744213417 0.000243931813226304 -5.17814654986727e-17)
(0.715498091213417 0.000245945303565632 5.44053342242755e-17)
(0.715316950298734 0.000247932824965883 -9.6250190366043e-18)
(0.715131322036982 0.000250359591823117 3.21422194382305e-17)
(0.714941472474438 0.000252884619978687 -3.55284114745104e-17)
(0.714746697214083 0.000255071588242136 -6.32390068220828e-17)
(0.714546353168509 0.00025730058968264 -1.62772813568876e-17)
(0.714341114137033 0.000260180758015829 -2.43079311693171e-17)
(0.714130719408997 0.000263284386721184 1.47967824213509e-17)
(0.713914256711139 0.000265989551845703 -4.28220102083858e-17)
(0.713691969435281 0.000268741579435448 -1.26617771897065e-16)
(0.713464790274282 0.000272430288519871 -4.26186586817899e-19)
(0.713232683875542 0.000276496598430693 9.60550712350315e-17)
(0.712994170873072 0.000280286566507181 3.07994124226688e-17)
(0.712748795175304 0.000284368739398511 4.9355844989847e-17)
(0.712498209631487 0.000289913253254963 3.12208973497371e-17)
(0.712243683378646 0.000295902045775315 7.65207983806411e-17)
(0.711983997920596 0.000301644309102591 5.83565514846212e-17)
(0.711718447918716 0.000308150811787392 1.39872976341032e-16)
(0.711448926046367 0.000317414092481566 6.94583366834075e-17)
(0.711177345593233 0.000327442854200773 2.66155449650292e-17)
(0.710902801768121 0.0003371034395412 6.28560505443483e-18)
(0.710624803437639 0.000348180827558507 6.70370119608786e-17)
(0.710346552989066 0.000364416512779416 1.1712695919494e-16)
(0.710070879682983 0.000381810247828504 1.45458965300895e-17)
(0.709797490294151 0.00039859312605408 6.2113152133937e-17)
(0.709528089025549 0.000418046376176119 -3.31628307947104e-18)
(0.709267979450319 0.000447535762883125 5.92936810119937e-18)
(0.709021385153482 0.000478003451398562 -3.37672028992336e-18)
(0.708789504160256 0.000507630438837066 4.35175993675199e-17)
(0.708577588697594 0.000542182593932266 5.04701148857934e-17)
(0.708395174868863 0.000595540817805804 4.56896789874105e-17)
(0.70824941048183 0.00064824633095043 9.88812726869661e-17)
(0.708145407120891 0.000699862432925295 3.55732549599478e-17)
(0.708096279562841 0.000760183845757063 -3.51225347020079e-17)
(0.708120000740867 0.000855820933904649 3.43708531386793e-17)
(0.708224984671093 0.000944975985463878 2.50634059360412e-17)
(0.708429047819392 0.00103191515919633 1.10644587260588e-18)
(0.70877703736365 0.00113314209474865 -5.64658685088884e-17)
(0.709295918553736 0.00130792047207002 3.0736653260369e-17)
(0.710103577936236 0.00150582982228428 7.20305024667394e-17)
(0.711441860236616 0.00173138714233325 -4.25278402851122e-18)
(0.713659852225969 0.00204016540636782 7.43995749506187e-17)
(0.716929017487955 0.00265529346659578 3.51077984297287e-18)
(0.72119987603251 0.00316115075000398 2.33060686007227e-17)
(0.726569407287744 0.0036412197248088 1.32901478434444e-17)
(0.733038732478414 0.00418776049352047 3.45926468076024e-17)
(0.740495330934168 0.00481098844393557 2.87542918970997e-17)
(0.748997999426264 0.00513443772935956 8.34256217686885e-17)
(0.758751163811546 0.00535967650708984 2.65115977035581e-17)
(0.769586740686666 0.0056035973583456 -4.74832818808673e-17)
(0.781397522679593 0.0056843948996787 -4.56105817459669e-18)
(0.794189671197158 0.00553942875319579 7.28443422316208e-17)
(0.807843969844178 0.00530229335177131 -6.70909799635764e-18)
(0.822165278081864 0.0049905160003491 2.92477627211559e-17)
(0.837043106204713 0.00450834363738902 3.77444692744341e-17)
(0.852459609434126 0.00396532023638829 2.52274882868835e-17)
(0.86812920759244 0.0033799559489893 -4.03044536486289e-17)
(0.884237805808491 0.00269937728540578 -1.91243228157336e-17)
(0.900451315725414 0.00208044424699749 -1.65717878836953e-18)
(0.917269700350579 0.00146071493986608 -6.96878974159792e-17)
(0.933846512008791 0.000889272843794563 2.86169683291538e-19)
(0.951846866529945 0.000332985688770326 -1.15340365281533e-17)
(0.968836643304565 -2.26651003410931e-05 1.69257494657901e-17)
(0.98952270815729 -0.000476147786841634 3.41022323878609e-18)
(1.00677633931468 -0.000444754083822992 -4.57227947944016e-17)
(1.03245995570077 -0.000784665376624579 4.3772048497243e-17)
(1.04287198102599 -6.97127200853042e-05 -2.08048593521237e-17)
(1.04018463495168 -6.23631122624647e-05 -1.79382090178615e-17)
(1.0445818206911 0.000146321414199325 3.36996708990793e-17)
(1.04395219928759 0.000115083658445496 2.65185087522981e-18)
(1.04585949923052 0.000226314725222555 -1.82205822889324e-17)
(1.04557347426618 0.00024561326345056 -1.01733980548315e-17)
(1.04600936217296 0.000263519377282994 1.22024398360623e-17)
(1.04567962382438 0.000259190904123697 -9.75926593266979e-18)
(1.04554418105814 0.000271787795721377 -6.5788678059398e-18)
(1.04507381543406 0.000253553984598942 7.45805197071944e-18)
(1.04471720061911 0.00024582259533845 -9.66609073387416e-18)
(1.04420783909095 0.000230127222627089 2.47831801488459e-18)
(1.04377398224714 0.000217243821298275 -5.87107219308254e-18)
(1.04280256294967 0.000323701319454949 2.1452293300461e-19)
(0.361825795325647 0.00192815182773966 1.85837285262258e-18)
(0.36360978152834 0.00203999981099735 6.5268850771937e-18)
(0.363692337342187 0.00210929814236274 1.85785882235062e-18)
(0.363778189373838 0.00224277304319119 2.72761011802694e-18)
(0.363531018493129 0.00232135679188175 -1.23972587961831e-17)
(0.363175673965221 0.00236062073810752 7.10796204126192e-18)
(0.362773551411087 0.0023808280776981 2.82321841275902e-17)
(0.362356451552005 0.00239398838456473 7.48974487660432e-19)
(0.361931317684548 0.00240444302091975 -8.15079067560153e-18)
(0.361498481335912 0.00241457349730659 -1.80723552795284e-17)
(0.361057927879257 0.00242528816796476 -1.27622523969872e-17)
(0.360609450095687 0.00243589443217921 1.1830826935139e-17)
(0.360151828680693 0.00244556549961228 4.79472261392406e-17)
(0.35968408664789 0.00245502516998287 1.06478492382939e-16)
(0.359206376988738 0.00246515200525257 3.50979731265019e-17)
(0.358718639376943 0.00247550881670652 -4.42927099781833e-17)
(0.358219721563524 0.00248534828628667 1.57125588075304e-17)
(0.357708694379868 0.00249520541941104 1.26946952953117e-16)
(0.357185621372965 0.00250581553909134 4.24467756305806e-17)
(0.356650499793175 0.00251660230073906 -5.22843872995537e-17)
(0.356102262453853 0.002526824001012 3.90432242712676e-17)
(0.355539919529638 0.00253715844088074 -4.9691284975809e-17)
(0.354963551614131 0.0025484741563762 3.83241128768724e-18)
(0.354373248536984 0.00256016735253559 -2.95486030645195e-17)
(0.353767781155738 0.00257144531217068 -6.989889042497e-17)
(0.353145848696474 0.00258303784137407 -3.96446883114606e-17)
(0.352507690398771 0.0025961018159007 -7.60926169751657e-17)
(0.351853219567613 0.00260984243194986 5.5732756898603e-17)
(0.351180981050284 0.00262310603705399 -1.2404780562731e-16)
(0.350489934468736 0.00263676880148899 -3.00128872959374e-16)
(0.349780587824058 0.00265255694918674 6.70988280733766e-19)
(0.349053105188458 0.00266943155052587 3.33380780167382e-16)
(0.348305617305145 0.00268615294796167 1.06399230213469e-16)
(0.347536729695441 0.00270387488236385 1.4885531255277e-16)
(0.346747772234878 0.00272490885745008 8.81650772113509e-17)
(0.345939946968581 0.00274731181268157 1.02123917475129e-16)
(0.345111388613329 0.00276974147423119 1.69094842415288e-16)
(0.344260702509186 0.00279431231336812 2.07318770757415e-16)
(0.343390558090585 0.00282500851490497 2.05910162794659e-16)
(0.342503620103113 0.00285794246253025 7.68333664703721e-17)
(0.341598154930914 0.0028908170223117 1.22844313949685e-16)
(0.340673231774953 0.00292744995767041 2.0424837193037e-16)
(0.339734805413603 0.00297536729430487 2.07363786606801e-16)
(0.33878848615946 0.00302664380912723 1.42556936848771e-16)
(0.337833240617955 0.00307752942313797 1.91009414936079e-16)
(0.336870755206614 0.00313525002385194 1.21525817243205e-16)
(0.335914129004644 0.00321460039668056 2.07212318246136e-17)
(0.334974576347063 0.00329746119500991 -1.24043297777526e-17)
(0.334053220453195 0.00337945602827161 1.394693437515e-16)
(0.333157683991412 0.00347381003013224 1.66652128154154e-16)
(0.332315955509428 0.00360817637822192 8.55801640144812e-19)
(0.331550006997328 0.00374344822897088 2.55997716188047e-16)
(0.330867306366983 0.0038768330487904 1.08426368050577e-16)
(0.330289440752008 0.00403206375768543 -9.46942849367197e-17)
(0.329875516153503 0.00426124057030688 1.06681382927949e-16)
(0.329666274787559 0.00448043073997184 5.15513830601997e-17)
(0.329686060250878 0.00469349930569478 1.96506433878605e-18)
(0.329995380877247 0.00494384423249782 -7.35119265227854e-17)
(0.330732811359669 0.00535071947429671 -2.29259444095387e-18)
(0.332104490170416 0.00581704006619866 2.17249540521331e-16)
(0.334397768261216 0.00634369412452933 -1.5346598343262e-17)
(0.338065242202154 0.00708381323435062 2.30706343208485e-16)
(0.343730248258869 0.00844922633731745 6.09236633217034e-18)
(0.351698382747484 0.00960881585252739 2.11931045728931e-16)
(0.362166026669286 0.0106824548365423 3.95256140535288e-17)
(0.375370281097647 0.0118928486333332 1.00749700963716e-16)
(0.391564052728184 0.0132008103914442 8.44703067772412e-17)
(0.410748245298766 0.0138539159698955 2.54164070872465e-16)
(0.432878422773426 0.0142453910343102 1.16819196030002e-16)
(0.457871525849603 0.0146203624316997 -1.10149416373789e-16)
(0.485588996788066 0.0145964175601718 -1.3477486853532e-17)
(0.515740092049525 0.0140478111840407 8.15066863163828e-17)
(0.547932426282618 0.0132571211484727 -2.16158703392198e-17)
(0.581871109426301 0.0122559654139737 8.6972014879415e-17)
(0.61715399383386 0.0108717711726499 1.16091937144992e-16)
(0.653612479454567 0.00932833344220006 8.44596818021728e-17)
(0.690669243146248 0.00767020858602235 -1.19999349183929e-16)
(0.728620660095917 0.00581118392313573 -5.61190593355972e-17)
(0.766597523315016 0.00408272256147317 -4.10985675509328e-18)
(0.805971641245051 0.00234538569803859 -5.51334570421384e-17)
(0.844560558910249 0.00071993301158325 2.28176953288336e-18)
(0.886416682435749 -0.000868147799543796 -3.09579692494067e-17)
(0.925606528780888 -0.00200583193068188 4.85496155112199e-17)
(0.973535396823744 -0.00336728098255989 1.02682494273158e-17)
(1.01306412575982 -0.00369820780000688 -3.04742407899899e-17)
(1.07339481831931 -0.00439678395324471 1.2931270327435e-16)
(1.09583592189605 -0.000540789253573013 -2.30705170703731e-17)
(1.08601282715725 -0.00044781058211676 -5.29356506201739e-17)
(1.09413564055858 4.60188199233765e-05 5.00751752389747e-17)
(1.09005849095357 5.70276410858576e-05 8.68227373676818e-18)
(1.09260488503741 0.000313804155464644 -7.53385215460454e-17)
(1.09045133929969 0.000389338925748589 2.0728339976977e-17)
(1.09053254658085 0.000462238717364314 1.19935278475183e-17)
(1.08893302554678 0.000479497980741593 -2.94728779313511e-17)
(1.08809281084837 0.000523231326559712 -2.07834589773266e-17)
(1.08658523992249 0.000510400577559745 1.61365347150905e-17)
(1.0854177813233 0.000509167133024867 -1.69951567217353e-17)
(1.08396360317783 0.000489980051074963 -9.20387957349239e-19)
(1.08280225777203 0.000477207143485862 -1.2028329532732e-17)
(1.08122099903685 0.000553378787905486 1.97497923056651e-18)
(0.0807699203994047 0.00411142239080597 2.91831353309821e-18)
(0.0837592761960719 0.00463224780174129 1.34092308722282e-17)
(0.083969498193616 0.00508271121503763 1.76639701379157e-18)
(0.0839862652027739 0.00543146011252215 5.57843464924489e-18)
(0.0835546006690343 0.0056229549895613 -9.25996583341432e-18)
(0.0829806337517587 0.00571131640432391 1.60616042678793e-17)
(0.0823452424681948 0.00575256182047478 5.76868810452392e-17)
(0.0816876570502841 0.00577649259016124 8.50288177140453e-18)
(0.0810172207528369 0.00579488520192961 -1.27812990327576e-17)
(0.0803350712786334 0.00581246933655764 -4.54693436992719e-17)
(0.0796413032493032 0.00583072785593308 -6.92597935570573e-18)
(0.0789356388397983 0.00584903620091172 5.38434216525259e-17)
(0.0782165433365525 0.0058665583855786 7.85466673097684e-17)
(0.0774825977356744 0.00588396590719251 1.11429823994454e-16)
(0.0767337343178969 0.00590214297956806 -7.63215800305148e-19)
(0.0759699027050049 0.00592068774285854 -6.69813802412638e-17)
(0.0751898030398243 0.00593887679310119 2.71837544826751e-17)
(0.0743921190489272 0.00595723535824445 1.61914138055868e-16)
(0.0735767186345782 0.00597650083818018 7.27992973206168e-17)
(0.0727434939453458 0.00599610943559725 -2.27805248249865e-17)
(0.0718910328627249 0.00601533061874631 7.70863228939846e-17)
(0.0710178658194398 0.00603486076137607 1.61710092430418e-17)
(0.0701238540241878 0.00605559588070739 -1.23747825133702e-17)
(0.069208936949302 0.00607694623635552 -2.48148266944538e-17)
(0.0682715245187995 0.00609812433173637 -4.97342386669357e-17)
(0.0673098433848722 0.00611990772238792 -1.27220273929585e-16)
(0.0663238650700985 0.00614349016180474 -4.76521457570918e-17)
(0.0653135653675041 0.00616808415134725 3.28275044774678e-17)
(0.064277072822543 0.00619248658458305 -1.13813751623888e-16)
(0.0632124657127233 0.00621766865681928 -3.28495127259193e-16)
(0.0621199932037958 0.00624542719633123 -8.55169894751349e-17)
(0.0609999757639981 0.0062747582590284 3.38886433931359e-16)
(0.0598501943192756 0.00630434250573128 2.28154177509426e-16)
(0.0586684412643299 0.00633551744914935 2.63637558790414e-16)
(0.0574559449212213 0.0063706379805195 1.40029896764709e-16)
(0.0562140513968745 0.00640779606509984 1.27994623144089e-16)
(0.0549402943330914 0.00644550490732184 2.3270354151277e-16)
(0.0536323895455531 0.00648632617854077 2.57031080136034e-16)
(0.0522938102526151 0.00653430024228162 2.01315642304106e-16)
(0.0509282372862327 0.006585509834085 1.13271701124581e-16)
(0.0495330544507739 0.00663728779701644 2.42901539122957e-16)
(0.048106058787926 0.00669438999056195 3.45577902028316e-16)
(0.0466558839164963 0.00676440139627766 3.02489532459607e-16)
(0.0451911771555545 0.0068392896562974 1.26708874618396e-16)
(0.0437095875063324 0.00691440093650279 1.84122268064195e-16)
(0.0422104954324754 0.00699908471559862 2.43909253896215e-16)
(0.0407147210196083 0.00710793219756833 3.20622092846527e-17)
(0.0392407632157705 0.00722263578533497 -2.96619066362301e-17)
(0.0377872938240416 0.00733665962995327 2.06897018495854e-16)
(0.0363585846421534 0.00746796520921812 2.56724212851971e-16)
(0.0350016792918195 0.00764292170921137 -1.28468182437716e-16)
(0.0337538828703357 0.00782227541134664 3.20369878788981e-16)
(0.0326177602827964 0.00799845337242791 6.98503241559871e-17)
(0.0316100666610789 0.00820558834354856 -2.0091574066525e-16)
(0.0308347271636411 0.00849113463705208 8.48977611058783e-17)
(0.0303646836139187 0.00877177642503624 -5.15577683722626e-17)
(0.0302117567267578 0.00904050664482802 2.91669504498111e-18)
(0.030424315870298 0.00936411218013503 -9.41150863740162e-17)
(0.0312366229495219 0.00985910363828596 -3.85268807728411e-17)
(0.0329369257342566 0.010435759429431 2.53065724790067e-16)
(0.0358212847213383 0.0110749919793991 4.70646030672842e-17)
(0.0402779404634834 0.0120204780279325 2.61398274132902e-16)
(0.0474662917431085 0.013603910305305 6.46425782622323e-18)
(0.0580459974346041 0.0150106703590121 2.89946456250368e-16)
(0.0720054653907652 0.0162704257390669 6.1064883894232e-17)
(0.0897922958539074 0.0176821732639214 1.60057175042228e-16)
(0.112187298425489 0.0190944813913352 1.36679840557985e-16)
(0.139073363033331 0.0197677167383681 4.32706476405666e-16)
(0.169916695314058 0.0200668807863718 8.84498980252246e-17)
(0.204951068229811 0.0202637730492169 -1.40725096718073e-16)
(0.244124592789496 0.0199489011201398 -2.2431210274911e-17)
(0.286733767516323 0.0189888691081452 9.18709798742279e-17)
(0.332139712510236 0.0176891650495743 9.6542172822877e-17)
(0.380147365307895 0.016080224490976 1.45379139361605e-16)
(0.430055917975309 0.0140230599875669 1.80875991859486e-16)
(0.481508290865301 0.0117380054785129 2.49152863148723e-16)
(0.533853472113469 0.00929120812174777 -2.00023214019285e-16)
(0.587310895000142 0.00662430650295782 -9.11812211667362e-17)
(0.640628608176866 0.00409717348726759 -5.67565772867284e-18)
(0.695930700546929 0.00154948077144804 -1.77619922850255e-17)
(0.7499697611395 -0.000846126874843862 5.51627963716359e-18)
(0.808360232080565 -0.00321686779037128 -4.578594020953e-17)
(0.862912456857678 -0.00501248267964072 1.1291601401451e-16)
(0.92950676933155 -0.00710817812351332 1.64633504330656e-17)
(0.984200347132246 -0.00798950052995615 3.39066216426064e-17)
(1.06817071661957 -0.00879535828271295 1.60088952418155e-16)
(1.09887490611678 -0.000704598985614956 -2.68392724324217e-17)
(1.08409969037022 -0.000648404287557582 -8.79682738082521e-17)
(1.09478848595777 -2.17161742423806e-05 6.12174918522079e-17)
(1.08842240572536 4.08974014391991e-05 3.52683139083926e-17)
(1.09140930685793 0.000338810022559311 -7.33932406749079e-17)
(1.08804328220898 0.000432588994572202 3.12273266538575e-17)
(1.08792795451437 0.000541543121500744 1.17652237690004e-17)
(1.08549474695762 0.0005686899163181 -2.52627646633448e-17)
(1.08421310804829 0.00061592558320027 -1.37666868050516e-17)
(1.08204161531165 0.000611260162201709 2.14949119026281e-17)
(1.08036457952241 0.000605334699624649 -2.45986043308444e-17)
(1.07832949072893 0.000576768714318969 -5.09581027529407e-18)
(1.07677364515437 0.000548121700224571 -1.81935793349689e-17)
(1.07509175447279 0.000400914038933356 2.79915471186198e-18)
(-0.125461269667712 0.00710239295834212 4.75399486478162e-18)
(-0.122481144744852 0.00740459370458888 7.94526714465873e-18)
(-0.122427736501932 0.00842570766799892 -3.14514374244825e-18)
(-0.122643986189464 0.00904411370457574 8.50028636529061e-18)
(-0.123280096485211 0.00936075479918287 -8.15247890660964e-18)
(-0.124040251821414 0.00950025697208356 2.25045013474169e-17)
(-0.124854774871151 0.0095629028238939 6.85318678194813e-17)
(-0.125691555259417 0.0095977611952548 3.16575194716175e-17)
(-0.126543395752194 0.00962429812226972 -1.40069038513827e-17)
(-0.12740944107388 0.00964952155956139 -3.04500060985046e-17)
(-0.128289718160142 0.00967543306720244 -5.45460452595275e-18)
(-0.129184594629076 0.00970161503049569 4.00536573457811e-17)
(-0.130095578344513 0.00972735213108773 1.25550251241357e-16)
(-0.131024161885594 0.00975315754788889 8.86618735017165e-17)
(-0.131970658396272 0.00977976714474672 -4.97055299048063e-17)
(-0.132935264907775 0.00980687228516935 -1.07964826950767e-16)
(-0.133919260835981 0.00983389075315139 2.03115973293769e-17)
(-0.134924047388594 0.00986125970156642 1.36511021185777e-16)
(-0.13594999176593 0.0098896012241111 1.05715795629662e-16)
(-0.136997406067612 0.00991845773061336 5.39065679621453e-17)
(-0.138067790006755 0.00994723024363447 -4.24037663306961e-18)
(-0.139162762477862 0.00997651973096465 -4.05343853642011e-17)
(-0.140282729224083 0.0100071041808988 -2.46129900650834e-17)
(-0.141427991173305 0.0100385059548072 -1.13585007855859e-16)
(-0.142600228592054 0.0100700726335802 -1.46493868835334e-16)
(-0.143801340433889 0.0101024953038083 -1.38133551731147e-16)
(-0.145031650178151 0.0101368134097474 -5.20823130603189e-17)
(-0.146291333811653 0.0101723733511488 -6.04383957960293e-17)
(-0.147582364319626 0.0102081367077797 -1.92458495220395e-16)
(-0.148906989445053 0.0102449911365998 -3.2217319399012e-16)
(-0.150265303939094 0.0102845160041702 -9.81281466228025e-17)
(-0.151657114199566 0.0103258889612496 3.38955698475018e-16)
(-0.153084641531989 0.0103679496813998 3.56087086618518e-16)
(-0.154550339502315 0.0104119529260597 3.69710610525125e-16)
(-0.156053318887668 0.0104599512306432 1.82239313847758e-16)
(-0.157592431051685 0.0105103420957108 1.50700463382971e-16)
(-0.159170189825174 0.0105617769800863 2.6618821710878e-16)
(-0.160789083641676 0.0106167149961829 2.57199135615419e-16)
(-0.162445598010791 0.0106786801194952 2.0443580628115e-16)
(-0.16413585617069 0.0107442847581905 1.35263368924022e-16)
(-0.165862470461282 0.0108110184640293 3.12566168906182e-16)
(-0.167627888961912 0.0108835101951657 3.50510306191044e-16)
(-0.169422606508519 0.0109683727516578 4.08198617395784e-16)
(-0.171236780102504 0.0110585621716162 9.12561024545406e-17)
(-0.173072624931543 0.0111495139512779 1.76520804564523e-16)
(-0.17493137944199 0.0112504966747767 2.38368212723919e-16)
(-0.176788907502657 0.0113741204917974 3.54988611902183e-17)
(-0.17862318003322 0.0115041983937737 -6.23681442002718e-17)
(-0.18043533587279 0.0116337767669831 1.50371435691533e-16)
(-0.1822221332441 0.0117810355524043 2.72902668694631e-16)
(-0.183927300641968 0.0119684271273167 -2.86129799186474e-17)
(-0.185505304932342 0.0121610258297044 3.77910127982552e-16)
(-0.18695373402061 0.012349500095788 3.39296830357521e-17)
(-0.188257720408515 0.0125691429052981 -1.96178487937136e-16)
(-0.18928990626147 0.0128595002955057 7.84636383790546e-17)
(-0.189958833650952 0.0131461248903129 -5.57308132629282e-17)
(-0.190255920214569 0.013417117218293 7.49101728600654e-18)
(-0.190138737516606 0.0137428471475784 -1.18399243626732e-16)
(-0.189319378267102 0.014225585955663 -8.05278562032052e-17)
(-0.187465989456786 0.0147865012819407 2.119698741573e-16)
(-0.184275339749618 0.0153966475845919 3.54800466551598e-18)
(-0.17941049146892 0.0163146296179074 3.04282521409169e-16)
(-0.171405037594435 0.0178015560597866 -4.08633933265515e-17)
(-0.159374275910532 0.0191157689004471 2.88846661545125e-16)
(-0.14344045076157 0.0202452008496507 7.52716149551589e-17)
(-0.123030659656807 0.0214927000609386 2.24742190822595e-16)
(-0.0970412971983596 0.0226681649570877 1.83238911015989e-16)
(-0.0656491560488638 0.0230967919747511 4.86919109160506e-16)
(-0.0296962880968869 0.023108937548235 9.08073855568975e-17)
(0.0112443006102347 0.0229632730601766 -1.76215533920536e-16)
(0.0571795950885006 0.0222712210388308 -3.08293243479604e-17)
(0.107153035907711 0.0209136609212501 -3.26170778572131e-17)
(0.160369387023923 0.0191859743739499 7.84359344046822e-17)
(0.216701534112606 0.017116099670366 2.0262806528779e-16)
(0.275262945995272 0.014594756441289 2.52758883921179e-16)
(0.335571823913119 0.0118283644628165 2.81118015819388e-16)
(0.396942242351756 0.00888536792639857 -1.55706692795468e-16)
(0.459527043827868 0.00573218324510205 -1.23630278877712e-16)
(0.521840180430134 0.0027052688794114 -6.23199461467274e-18)
(0.586459246861981 -0.000348739768508054 2.10715138218646e-17)
(0.649493655997351 -0.00325181983211289 8.97023738516719e-18)
(0.71744667891507 -0.00613737179368444 5.3991571947162e-17)
(0.780830682063552 -0.00846977762490159 8.93522445299153e-17)
(0.858086186831339 -0.0111120242806847 2.17261444665092e-17)
(0.92136791740997 -0.0125636218512005 4.22515728065127e-17)
(1.01899863188091 -0.0132763771777055 1.90818602833712e-16)
(1.05449555506976 -0.000785675434597259 -3.46956891265468e-17)
(1.03657605428968 -0.000628189794301669 -7.48738077895826e-17)
(1.04864804999538 -6.23204820230008e-05 9.05696741352668e-17)
(1.0409240433268 5.32099633242721e-05 7.94264869254052e-17)
(1.04411378349701 0.000314840112207167 -8.76168917000221e-17)
(1.0400438001563 0.000422271341096575 2.84457720055894e-17)
(1.03981649687333 0.000524039570910037 1.12778493264524e-17)
(1.036914585706 0.000557274311527838 -2.16145191156281e-17)
(1.0353973886417 0.000598537277825444 -8.86390572668847e-18)
(1.03286860489811 0.00059746750336454 2.84579867432007e-17)
(1.03092389221841 0.000588926006432618 -3.23561181839653e-17)
(1.02858475728059 0.000557947294594091 -2.49790645439253e-18)
(1.02683396871777 0.000520545524371489 -2.42959404258452e-17)
(1.02515661582988 0.000340539709418892 3.54746813941501e-18)
(-0.257755676667736 0.00931405984172131 5.84002895911975e-18)
(-0.256266019912848 0.00986570898084316 6.82243895367527e-18)
(-0.256748873598515 0.0114110083952063 1.14861613525136e-18)
(-0.257365855204563 0.0122450365509521 5.18584538614417e-18)
(-0.258208499819231 0.0126493991016806 3.13207738200679e-18)
(-0.25910357102849 0.0128223828949227 2.62045780828018e-17)
(-0.26002590977764 0.0128994292522548 8.70173599987781e-17)
(-0.260963682439373 0.0129426319583743 4.10776361786809e-17)
(-0.261915980454967 0.0129761097602541 -2.2321753244583e-17)
(-0.262883365290251 0.0130080703317604 -3.58846897063787e-17)
(-0.263866179083991 0.0130407367740411 -6.48015146220948e-18)
(-0.264864839490746 0.0130738822992718 2.24965302766836e-17)
(-0.265880651775411 0.0131069378956521 6.8106177885548e-17)
(-0.26691498661973 0.0131402604302181 6.88031528741228e-17)
(-0.267968334217841 0.0131744058759508 9.63578360078106e-18)
(-0.269041040531126 0.0132091561708568 -6.12685754709112e-17)
(-0.270134272656863 0.0132440837624768 9.75528232123884e-17)
(-0.271249356928466 0.0132795273507196 1.27438883249128e-16)
(-0.272386839429714 0.0133159715346486 1.46324195279067e-16)
(-0.273547206722679 0.0133530806037816 4.28779881278034e-17)
(-0.274731893360354 0.0133904082506256 -4.23264295371519e-17)
(-0.275942475229859 0.013428429789438 -1.02187269718412e-16)
(-0.277179564459718 0.0134677651380889 -1.92708807111564e-17)
(-0.278443663680814 0.0135080649690234 -1.40158420642715e-16)
(-0.279736377616138 0.0135488384327395 -1.38256207140385e-16)
(-0.28105952749526 0.0135906416603667 -1.48560052839701e-16)
(-0.282413663269646 0.013634305574875 -6.93999393987333e-17)
(-0.283799137003807 0.0136793364688132 -1.43994925367979e-16)
(-0.285217828179226 0.0137249303111024 -2.74329392451829e-16)
(-0.286671984280919 0.0137718116343927 -2.36641269219209e-16)
(-0.28816199228636 0.013821250818909 -4.40507063586223e-17)
(-0.289687851219342 0.0138726253012575 2.81523874244291e-16)
(-0.291251590625746 0.0139250238696063 3.80650609887089e-16)
(-0.292855590693186 0.0139794779027633 3.99616632065376e-16)
(-0.294499335492567 0.0140376403045669 2.08862243476459e-16)
(-0.29618197590639 0.014098260874719 1.60402800878947e-16)
(-0.297905790225701 0.0141602607122829 2.64941560855572e-16)
(-0.299673126834548 0.0142256716368863 2.66100787464559e-16)
(-0.301480813081503 0.0142973340815239 2.14902285664943e-16)
(-0.303325211532403 0.0143725329483414 1.3632743359458e-16)
(-0.305208540582993 0.0144492057146109 2.09572281613745e-16)
(-0.307133043558807 0.0145311889148213 3.55168330275789e-16)
(-0.309089463021752 0.0146238123619491 3.97168691312941e-16)
(-0.311067947682027 0.0147213371733162 3.63588589632666e-17)
(-0.313070034311519 0.014819928328237 1.6815210574019e-16)
(-0.315096913180852 0.0149273139008756 2.41593231433118e-16)
(-0.317124146324744 0.0150536375236789 3.29835477499289e-17)
(-0.319128901101958 0.0151855524212262 -1.08302515619532e-16)
(-0.32111123173029 0.0153170435597419 6.5796847648092e-17)
(-0.323068209493963 0.0154633663468078 2.61522267102765e-16)
(-0.324941514695337 0.0156425039727357 3.64946512127574e-18)
(-0.326683008100018 0.0158253884946105 4.90429539371376e-16)
(-0.328288889308074 0.0160036302349164 -1.77175655218912e-18)
(-0.329745684432077 0.0162070379261766 -1.50055475642935e-16)
(-0.330919063263451 0.0164670350674675 8.72358605319399e-17)
(-0.331710557470839 0.0167212192856506 -5.07316294584535e-17)
(-0.332111403916438 0.016958342501567 1.61886870701164e-17)
(-0.332084151301663 0.0172381594413624 -1.46745626078266e-16)
(-0.331322896915564 0.0176434180125953 -1.28488936258855e-16)
(-0.329486049857723 0.0181062914902466 1.78147694892387e-16)
(-0.326276259889142 0.0185979110985164 -2.73156349738024e-17)
(-0.321408348718257 0.0193381091188746 2.79910183907785e-16)
(-0.313300083103372 0.0205284351081828 7.06316752421543e-17)
(-0.300960569267582 0.0215372119536056 2.83001713339654e-16)
(-0.284564708065289 0.0223478018546761 8.1942857128726e-17)
(-0.263491343302712 0.0232140420256025 2.89818953159891e-16)
(-0.236485937545798 0.0239581510199826 2.23941499279439e-16)
(-0.203745155873719 0.0240120099126922 4.0890506817657e-16)
(-0.166267957731905 0.0236624193036904 8.30552333022197e-17)
(-0.123531665847352 0.0231245343841483 -2.17617641665709e-16)
(-0.0754906231462096 0.0220677741830611 -3.65165075524759e-17)
(-0.0232143372091592 0.0204020038020079 -1.57997146672407e-16)
(0.032434384127055 0.0183858064885018 1.9372829825464e-16)
(0.0913753602822917 0.0160439860447844 1.28518802990462e-16)
(0.152644093796875 0.0132941070973607 1.33102301945605e-16)
(0.215698286630165 0.0103195770858525 2.90088374513465e-16)
(0.279858602309867 0.00717856819589863 -1.16281752347564e-16)