/*--------------------------------*- C++ -*----------------------------------*\
| =========                 |                                                 |
| \\      /  F ield         | OpenFOAM: The Open Source CFD Toolbox           |
|  \\    /   O peration     | Version:  4.1                                   |
|   \\  /    A nd           | Web:      www.OpenFOAM.org                      |
|    \\/     M anipulation  |                                                 |
\*---------------------------------------------------------------------------*/
FoamFile
{
    version     2.0;
    format      ascii;
    class       pointVectorField;
    location    "0.0038";
    object      pointDisplacement_Next;
}
// * * * * * * * * * * * * * * * * * * * * * * * * * * * * * * * * * * * * * //

dimensions      [0 1 0 0 0 0 0];

internalField   uniform (0 0 0);

boundaryField
{
    inlet
    {
        type            fixedValue;
        value           nonuniform 0();
    }
    outlet
    {
        type            fixedValue;
        value           nonuniform 0();
    }
    mantle
    {
        type            fixedValue;
        value           nonuniform List<vector> 
416
(
(-2.3715e-05 -0.00011938 -6.8449e-10)
(-2.7056e-05 -0.00011598 -2.0721e-10)
(-2.7088e-05 -0.00011356 2.2531e-05)
(-2.3725e-05 -0.00011689 2.3221e-05)
(-2.7137e-05 -0.00010668 4.4195e-05)
(-2.3743e-05 -0.0001098 4.5511e-05)
(-2.7146e-05 -9.5881e-05 6.4136e-05)
(-2.3753e-05 -9.8632e-05 6.5961e-05)
(-2.714e-05 -8.1578e-05 8.1577e-05)
(-2.3754e-05 -8.3881e-05 8.388e-05)
(-2.7146e-05 -6.4136e-05 9.5879e-05)
(-2.3753e-05 -6.5961e-05 9.863e-05)
(-2.7138e-05 -4.4195e-05 0.00010668)
(-2.3743e-05 -4.5511e-05 0.0001098)
(-2.7088e-05 -2.2531e-05 0.00011356)
(-2.3726e-05 -2.3221e-05 0.00011688)
(-2.7057e-05 -4.6483e-10 0.00011598)
(-2.3715e-05 -2.9603e-10 0.00011938)
(-3.0433e-05 -0.0001084 -2.6607e-10)
(-3.0489e-05 -0.00010613 2.103e-05)
(-3.0558e-05 -9.9713e-05 4.1291e-05)
(-3.0563e-05 -8.967e-05 5.9988e-05)
(-3.0541e-05 -7.635e-05 7.635e-05)
(-3.0563e-05 -5.9988e-05 8.9669e-05)
(-3.0558e-05 -4.1291e-05 9.9712e-05)
(-3.0489e-05 -2.103e-05 0.00010613)
(-3.0433e-05 -1.3043e-10 0.0001084)
(-3.4046e-05 -9.7644e-05 -6.4701e-10)
(-3.4102e-05 -9.5643e-05 1.8958e-05)
(-3.4177e-05 -8.9911e-05 3.7231e-05)
(-3.4167e-05 -8.0902e-05 5.4116e-05)
(-3.4138e-05 -6.8873e-05 6.8872e-05)
(-3.4167e-05 -5.4117e-05 8.0901e-05)
(-3.4177e-05 -3.7231e-05 8.991e-05)
(-3.4103e-05 -1.8958e-05 9.5642e-05)
(-3.4046e-05 4.3312e-10 9.7643e-05)
(-3.7738e-05 -8.5645e-05 -5.8424e-11)
(-3.7797e-05 -8.3924e-05 1.6647e-05)
(-3.7875e-05 -7.8929e-05 3.2698e-05)
(-3.7846e-05 -7.1064e-05 4.7544e-05)
(-3.7805e-05 -6.0503e-05 6.0503e-05)
(-3.7846e-05 -4.7544e-05 7.1064e-05)
(-3.7875e-05 -3.2698e-05 7.8929e-05)
(-3.7797e-05 -1.6647e-05 8.3924e-05)
(-3.7738e-05 -3.1314e-11 8.5645e-05)
(-4.1253e-05 -7.4072e-05 3.4069e-11)
(-4.1288e-05 -7.2609e-05 1.4416e-05)
(-4.1337e-05 -6.835e-05 2.8324e-05)
(-4.1331e-05 -6.1553e-05 4.118e-05)
(-4.1314e-05 -5.2409e-05 5.2409e-05)
(-4.1331e-05 -4.118e-05 6.1553e-05)
(-4.1337e-05 -2.8324e-05 6.835e-05)
(-4.1288e-05 -1.4416e-05 7.2609e-05)
(-4.1254e-05 -7.417e-11 7.4072e-05)
(-4.4281e-05 -6.3652e-05 6.8258e-11)
(-4.4298e-05 -6.2408e-05 1.2383e-05)
(-4.4326e-05 -5.8782e-05 2.4362e-05)
(-4.4338e-05 -5.2963e-05 3.5438e-05)
(-4.4338e-05 -4.511e-05 4.511e-05)
(-4.4338e-05 -3.5438e-05 5.2962e-05)
(-4.4326e-05 -2.4362e-05 5.8781e-05)
(-4.4298e-05 -1.2383e-05 6.2408e-05)
(-4.4282e-05 -7.8325e-11 6.3651e-05)
(-4.6607e-05 -5.4495e-05 -7.9149e-10)
(-4.6625e-05 -5.3407e-05 1.057e-05)
(-4.6653e-05 -5.0289e-05 2.0822e-05)
(-4.6651e-05 -4.537e-05 3.0369e-05)
(-4.6643e-05 -3.869e-05 3.8691e-05)
(-4.6651e-05 -3.0369e-05 4.537e-05)
(-4.6653e-05 -2.0822e-05 5.0289e-05)
(-4.6625e-05 -1.057e-05 5.3406e-05)
(-4.6607e-05 7.73e-10 5.4494e-05)
(-4.8157e-05 -4.6333e-05 8.2749e-11)
(-4.8187e-05 -4.5357e-05 8.9409e-06)
(-4.8224e-05 -4.2677e-05 1.7657e-05)
(-4.8198e-05 -3.8566e-05 2.5842e-05)
(-4.8172e-05 -3.2963e-05 3.2963e-05)
(-4.8198e-05 -2.5842e-05 3.8566e-05)
(-4.8224e-05 -1.7656e-05 4.2676e-05)
(-4.8187e-05 -8.9408e-06 4.5356e-05)
(-4.8157e-05 -1.3697e-10 4.6332e-05)
(-4.898e-05 -3.8824e-05 6.9877e-10)
(-4.9001e-05 -3.8037e-05 7.5075e-06)
(-4.9026e-05 -3.5831e-05 1.4834e-05)
(-4.9008e-05 -3.2387e-05 2.1702e-05)
(-4.899e-05 -2.7672e-05 2.7671e-05)
(-4.9008e-05 -2.1702e-05 3.2387e-05)
(-4.9026e-05 -1.4834e-05 3.5831e-05)
(-4.9001e-05 -7.5075e-06 3.8037e-05)
(-4.898e-05 -7.6119e-10 3.8823e-05)
(-4.9226e-05 -3.1982e-05 8.2455e-11)
(-4.9245e-05 -3.136e-05 6.2058e-06)
(-4.926e-05 -2.9575e-05 1.2253e-05)
(-4.9252e-05 -2.6749e-05 1.7917e-05)
(-4.9235e-05 -2.2845e-05 2.2845e-05)
(-4.9252e-05 -1.7917e-05 2.6749e-05)
(-4.926e-05 -1.2253e-05 2.9575e-05)
(-4.9244e-05 -6.2058e-06 3.136e-05)
(-4.9225e-05 -1.5667e-10 3.1982e-05)
(-4.9072e-05 -2.5896e-05 1.1057e-10)
(-4.9087e-05 -2.5404e-05 5.0252e-06)
(-4.9104e-05 -2.3984e-05 9.9285e-06)
(-4.9089e-05 -2.1712e-05 1.4536e-05)
(-4.9075e-05 -1.8547e-05 1.8547e-05)
(-4.9089e-05 -1.4536e-05 2.1712e-05)
(-4.9104e-05 -9.9286e-06 2.3984e-05)
(-4.9087e-05 -5.0253e-06 2.5404e-05)
(-4.9072e-05 -1.8283e-10 2.5896e-05)
(-4.8594e-05 -2.0662e-05 6.3944e-11)
(-4.8611e-05 -2.0258e-05 3.9878e-06)
(-4.8629e-05 -1.9124e-05 7.9029e-06)
(-4.8605e-05 -1.7343e-05 1.1619e-05)
(-4.8585e-05 -1.4846e-05 1.4846e-05)
(-4.8605e-05 -1.1619e-05 1.7343e-05)
(-4.8628e-05 -7.9031e-06 1.9124e-05)
(-4.8611e-05 -3.9879e-06 2.0258e-05)
(-4.8593e-05 -1.3199e-10 2.0662e-05)
(-2.7088e-05 2.2531e-05 0.00011356)
(-2.3725e-05 2.3221e-05 0.00011688)
(-2.7137e-05 4.4195e-05 0.00010668)
(-2.3743e-05 4.5512e-05 0.0001098)
(-2.7145e-05 6.4137e-05 9.5881e-05)
(-2.3753e-05 6.5963e-05 9.8634e-05)
(-2.7139e-05 8.1579e-05 8.1578e-05)
(-2.3754e-05 8.3882e-05 8.3881e-05)
(-2.7146e-05 9.588e-05 6.4135e-05)
(-2.3753e-05 9.8632e-05 6.5961e-05)
(-2.7137e-05 0.00010668 4.4194e-05)
(-2.3743e-05 0.0001098 4.5511e-05)
(-2.7088e-05 0.00011356 2.253e-05)
(-2.3726e-05 0.00011688 2.322e-05)
(-2.7057e-05 0.00011598 -2.5892e-10)
(-2.3715e-05 0.00011938 -5.4805e-10)
(-3.0489e-05 2.103e-05 0.00010613)
(-3.0558e-05 4.1291e-05 9.9713e-05)
(-3.0563e-05 5.9988e-05 8.967e-05)
(-3.0541e-05 7.635e-05 7.635e-05)
(-3.0563e-05 8.9669e-05 5.9987e-05)
(-3.0558e-05 9.9712e-05 4.129e-05)
(-3.0489e-05 0.00010613 2.1029e-05)
(-3.0433e-05 0.0001084 -4.539e-10)
(-3.4102e-05 1.8958e-05 9.5642e-05)
(-3.4176e-05 3.7231e-05 8.991e-05)
(-3.4167e-05 5.4116e-05 8.0901e-05)
(-3.4138e-05 6.8872e-05 6.8872e-05)
(-3.4167e-05 8.0901e-05 5.4116e-05)
(-3.4177e-05 8.991e-05 3.723e-05)
(-3.4102e-05 9.5642e-05 1.8957e-05)
(-3.4046e-05 9.7643e-05 -8.5471e-10)
(-3.7797e-05 1.6647e-05 8.3923e-05)
(-3.7875e-05 3.2698e-05 7.8928e-05)
(-3.7846e-05 4.7543e-05 7.1063e-05)
(-3.7805e-05 6.0502e-05 6.0502e-05)
(-3.7846e-05 7.1063e-05 4.7543e-05)
(-3.7875e-05 7.8928e-05 3.2697e-05)
(-3.7797e-05 8.3923e-05 1.6647e-05)
(-3.7737e-05 8.5645e-05 -2.1096e-10)
(-4.1288e-05 1.4416e-05 7.2608e-05)
(-4.1337e-05 2.8323e-05 6.8349e-05)
(-4.133e-05 4.1179e-05 6.1552e-05)
(-4.1314e-05 5.2408e-05 5.2408e-05)
(-4.1331e-05 6.1552e-05 4.1179e-05)
(-4.1337e-05 6.8349e-05 2.8323e-05)
(-4.1288e-05 7.2609e-05 1.4416e-05)
(-4.1253e-05 7.4072e-05 -6.0803e-11)
(-4.4298e-05 1.2383e-05 6.2407e-05)
(-4.4326e-05 2.4361e-05 5.8781e-05)
(-4.4338e-05 3.5437e-05 5.2961e-05)
(-4.4338e-05 4.5109e-05 4.5109e-05)
(-4.4338e-05 5.2962e-05 3.5437e-05)
(-4.4326e-05 5.8781e-05 2.4361e-05)
(-4.4298e-05 6.2408e-05 1.2383e-05)
(-4.4281e-05 6.3651e-05 1.3966e-12)
(-4.6625e-05 1.057e-05 5.3406e-05)
(-4.6653e-05 2.0822e-05 5.0288e-05)
(-4.665e-05 3.0369e-05 4.5369e-05)
(-4.6643e-05 3.8689e-05 3.869e-05)
(-4.665e-05 4.5369e-05 3.0369e-05)
(-4.6653e-05 5.0289e-05 2.0822e-05)
(-4.6625e-05 5.3406e-05 1.057e-05)
(-4.6607e-05 5.4494e-05 -8.6362e-10)
(-4.8187e-05 8.9406e-06 4.5356e-05)
(-4.8224e-05 1.7656e-05 4.2676e-05)
(-4.8198e-05 2.5841e-05 3.8566e-05)
(-4.8172e-05 3.2963e-05 3.2963e-05)
(-4.8198e-05 3.8566e-05 2.5842e-05)
(-4.8224e-05 4.2676e-05 1.7657e-05)
(-4.8186e-05 4.5357e-05 8.9408e-06)
(-4.8157e-05 4.6332e-05 8.0958e-13)
(-4.9001e-05 7.5072e-06 3.8037e-05)
(-4.9026e-05 1.4834e-05 3.5831e-05)
(-4.9008e-05 2.1702e-05 3.2387e-05)
(-4.899e-05 2.7671e-05 2.7672e-05)
(-4.9008e-05 3.2387e-05 2.1702e-05)
(-4.9026e-05 3.5831e-05 1.4834e-05)
(-4.9001e-05 3.8037e-05 7.5075e-06)
(-4.898e-05 3.8824e-05 6.3775e-10)
(-4.9244e-05 6.2055e-06 3.136e-05)
(-4.926e-05 1.2253e-05 2.9575e-05)
(-4.9252e-05 1.7917e-05 2.6749e-05)
(-4.9235e-05 2.2845e-05 2.2845e-05)
(-4.9252e-05 2.6748e-05 1.7917e-05)
(-4.926e-05 2.9574e-05 1.2253e-05)
(-4.9244e-05 3.136e-05 6.2057e-06)
(-4.9225e-05 3.1982e-05 4.4928e-11)
(-4.9087e-05 5.0249e-06 2.5404e-05)
(-4.9104e-05 9.9281e-06 2.3984e-05)
(-4.9089e-05 1.4535e-05 2.1712e-05)
(-4.9075e-05 1.8547e-05 1.8547e-05)
(-4.9089e-05 2.1711e-05 1.4536e-05)
(-4.9104e-05 2.3983e-05 9.9284e-06)
(-4.9087e-05 2.5404e-05 5.0252e-06)
(-4.9072e-05 2.5896e-05 1.0263e-11)
(-4.8611e-05 3.9875e-06 2.0258e-05)
(-4.8628e-05 7.9025e-06 1.9123e-05)
(-4.8605e-05 1.1618e-05 1.7343e-05)
(-4.8585e-05 1.4846e-05 1.4846e-05)
(-4.8605e-05 1.7342e-05 1.1618e-05)
(-4.8628e-05 1.9123e-05 7.9027e-06)
(-4.8611e-05 2.0257e-05 3.9877e-06)
(-4.8593e-05 2.0661e-05 3.0337e-11)
(-2.7088e-05 0.00011356 -2.2531e-05)
(-2.3725e-05 0.00011688 -2.3222e-05)
(-2.7137e-05 0.00010668 -4.4196e-05)
(-2.3743e-05 0.0001098 -4.5512e-05)
(-2.7145e-05 9.5882e-05 -6.4137e-05)
(-2.3752e-05 9.8633e-05 -6.5964e-05)
(-2.7139e-05 8.1579e-05 -8.1579e-05)
(-2.3753e-05 8.3882e-05 -8.3883e-05)
(-2.7145e-05 6.4136e-05 -9.5881e-05)
(-2.3752e-05 6.5962e-05 -9.8633e-05)
(-2.7137e-05 4.4195e-05 -0.00010668)
(-2.3742e-05 4.5511e-05 -0.0001098)
(-2.7088e-05 2.2531e-05 -0.00011356)
(-2.3725e-05 2.3221e-05 -0.00011688)
(-2.7056e-05 2.0147e-10 -0.00011598)
(-2.3714e-05 -1.8643e-10 -0.00011938)
(-3.0489e-05 0.00010613 -2.103e-05)
(-3.0557e-05 9.9713e-05 -4.1291e-05)
(-3.0562e-05 8.967e-05 -5.9989e-05)
(-3.054e-05 7.635e-05 -7.6351e-05)
(-3.0562e-05 5.9988e-05 -8.967e-05)
(-3.0557e-05 4.1291e-05 -9.9713e-05)
(-3.0489e-05 2.103e-05 -0.00010613)
(-3.0433e-05 5.6004e-11 -0.0001084)
(-3.4102e-05 9.5643e-05 -1.8958e-05)
(-3.4176e-05 8.991e-05 -3.7231e-05)
(-3.4166e-05 8.0901e-05 -5.4117e-05)
(-3.4137e-05 6.8872e-05 -6.8873e-05)
(-3.4166e-05 5.4116e-05 -8.0901e-05)
(-3.4176e-05 3.7231e-05 -8.9911e-05)
(-3.4102e-05 1.8958e-05 -9.5643e-05)
(-3.4046e-05 -3.9831e-10 -9.7644e-05)
(-3.7797e-05 8.3924e-05 -1.6647e-05)
(-3.7875e-05 7.8929e-05 -3.2698e-05)
(-3.7845e-05 7.1063e-05 -4.7543e-05)
(-3.7804e-05 6.0502e-05 -6.0502e-05)
(-3.7845e-05 4.7544e-05 -7.1064e-05)
(-3.7874e-05 3.2698e-05 -7.8929e-05)
(-3.7797e-05 1.6647e-05 -8.3924e-05)
(-3.7737e-05 9.743e-11 -8.5645e-05)
(-4.1287e-05 7.2609e-05 -1.4416e-05)
(-4.1337e-05 6.8349e-05 -2.8324e-05)
(-4.133e-05 6.1552e-05 -4.1179e-05)
(-4.1313e-05 5.2408e-05 -5.2408e-05)
(-4.133e-05 4.118e-05 -6.1553e-05)
(-4.1336e-05 2.8324e-05 -6.835e-05)
(-4.1287e-05 1.4416e-05 -7.2609e-05)
(-4.1253e-05 2.86e-11 -7.4072e-05)
(-4.4298e-05 6.2408e-05 -1.2383e-05)
(-4.4326e-05 5.8781e-05 -2.4362e-05)
(-4.4337e-05 5.2962e-05 -3.5437e-05)
(-4.4337e-05 4.511e-05 -4.511e-05)
(-4.4337e-05 3.5438e-05 -5.2962e-05)
(-4.4325e-05 2.4362e-05 -5.8782e-05)
(-4.4297e-05 1.2383e-05 -6.2408e-05)
(-4.4281e-05 -8.4927e-12 -6.3651e-05)
(-4.6625e-05 5.3406e-05 -1.057e-05)
(-4.6653e-05 5.0289e-05 -2.0822e-05)
(-4.665e-05 4.537e-05 -3.0369e-05)
(-4.6643e-05 3.869e-05 -3.8691e-05)
(-4.665e-05 3.0369e-05 -4.537e-05)
(-4.6653e-05 2.0822e-05 -5.0289e-05)
(-4.6625e-05 1.057e-05 -5.3406e-05)
(-4.6607e-05 -9.3962e-10 -5.4494e-05)
(-4.8186e-05 4.5357e-05 -8.9407e-06)
(-4.8224e-05 4.2677e-05 -1.7656e-05)
(-4.8198e-05 3.8566e-05 -2.5842e-05)
(-4.8172e-05 3.2963e-05 -3.2963e-05)
(-4.8198e-05 2.5842e-05 -3.8566e-05)
(-4.8224e-05 1.7656e-05 -4.2677e-05)
(-4.8187e-05 8.9406e-06 -4.5357e-05)
(-4.8157e-05 -1.093e-10 -4.6332e-05)
(-4.9001e-05 3.8037e-05 -7.5074e-06)
(-4.9026e-05 3.5831e-05 -1.4834e-05)
(-4.9008e-05 3.2387e-05 -2.1702e-05)
(-4.899e-05 2.7671e-05 -2.7672e-05)
(-4.9008e-05 2.1702e-05 -3.2387e-05)
(-4.9026e-05 1.4834e-05 -3.5831e-05)
(-4.9001e-05 7.5072e-06 -3.8037e-05)
(-4.898e-05 -7.3991e-10 -3.8823e-05)
(-4.9244e-05 3.136e-05 -6.2057e-06)
(-4.926e-05 2.9575e-05 -1.2253e-05)
(-4.9252e-05 2.6749e-05 -1.7917e-05)
(-4.9235e-05 2.2845e-05 -2.2845e-05)
(-4.9252e-05 1.7917e-05 -2.6749e-05)
(-4.926e-05 1.2253e-05 -2.9575e-05)
(-4.9245e-05 6.2055e-06 -3.136e-05)
(-4.9225e-05 -1.4213e-10 -3.1982e-05)
(-4.9087e-05 2.5404e-05 -5.0251e-06)
(-4.9104e-05 2.3984e-05 -9.9284e-06)
(-4.9089e-05 2.1712e-05 -1.4536e-05)
(-4.9075e-05 1.8547e-05 -1.8547e-05)
(-4.9089e-05 1.4536e-05 -2.1712e-05)
(-4.9104e-05 9.9283e-06 -2.3984e-05)
(-4.9087e-05 5.025e-06 -2.5404e-05)
(-4.9072e-05 -1.7452e-10 -2.5896e-05)
(-4.8611e-05 2.0257e-05 -3.9877e-06)
(-4.8628e-05 1.9123e-05 -7.9029e-06)
(-4.8605e-05 1.7343e-05 -1.1619e-05)
(-4.8585e-05 1.4846e-05 -1.4846e-05)
(-4.8605e-05 1.1618e-05 -1.7343e-05)
(-4.8629e-05 7.9028e-06 -1.9124e-05)
(-4.8611e-05 3.9876e-06 -2.0258e-05)
(-4.8594e-05 -1.2962e-10 -2.0662e-05)
(-2.7087e-05 -2.2531e-05 -0.00011356)
(-2.3725e-05 -2.3221e-05 -0.00011688)
(-2.7136e-05 -4.4195e-05 -0.00010668)
(-2.3742e-05 -4.5512e-05 -0.0001098)
(-2.7145e-05 -6.4136e-05 -9.5881e-05)
(-2.3752e-05 -6.5962e-05 -9.8633e-05)
(-2.7138e-05 -8.1578e-05 -8.1579e-05)
(-2.3753e-05 -8.3882e-05 -8.3882e-05)
(-2.7145e-05 -9.5881e-05 -6.4137e-05)
(-2.3752e-05 -9.8633e-05 -6.5963e-05)
(-2.7137e-05 -0.00010668 -4.4196e-05)
(-2.3742e-05 -0.0001098 -4.5513e-05)
(-2.7088e-05 -0.00011356 -2.2532e-05)
(-2.3725e-05 -0.00011689 -2.3222e-05)
(-3.0489e-05 -2.103e-05 -0.00010613)
(-3.0557e-05 -4.1291e-05 -9.9712e-05)
(-3.0562e-05 -5.9988e-05 -8.967e-05)
(-3.054e-05 -7.635e-05 -7.6351e-05)
(-3.0562e-05 -8.967e-05 -5.9989e-05)
(-3.0557e-05 -9.9713e-05 -4.1291e-05)
(-3.0489e-05 -0.00010613 -2.103e-05)
(-3.4102e-05 -1.8958e-05 -9.5643e-05)
(-3.4176e-05 -3.7231e-05 -8.9911e-05)
(-3.4166e-05 -5.4116e-05 -8.0901e-05)
(-3.4138e-05 -6.8873e-05 -6.8872e-05)
(-3.4166e-05 -8.0901e-05 -5.4117e-05)
(-3.4176e-05 -8.9911e-05 -3.7231e-05)
(-3.4102e-05 -9.5643e-05 -1.8958e-05)
(-3.7797e-05 -1.6647e-05 -8.3924e-05)
(-3.7874e-05 -3.2698e-05 -7.8929e-05)
(-3.7845e-05 -4.7544e-05 -7.1064e-05)
(-3.7804e-05 -6.0503e-05 -6.0503e-05)
(-3.7846e-05 -7.1064e-05 -4.7544e-05)
(-3.7875e-05 -7.8929e-05 -3.2698e-05)
(-3.7797e-05 -8.3924e-05 -1.6647e-05)
(-4.1287e-05 -1.4416e-05 -7.2609e-05)
(-4.1336e-05 -2.8324e-05 -6.8349e-05)
(-4.133e-05 -4.118e-05 -6.1553e-05)
(-4.1313e-05 -5.2409e-05 -5.2409e-05)
(-4.133e-05 -6.1553e-05 -4.118e-05)
(-4.1337e-05 -6.835e-05 -2.8324e-05)
(-4.1288e-05 -7.2609e-05 -1.4416e-05)
(-4.4298e-05 -1.2383e-05 -6.2408e-05)
(-4.4326e-05 -2.4362e-05 -5.8781e-05)
(-4.4337e-05 -3.5438e-05 -5.2962e-05)
(-4.4337e-05 -4.511e-05 -4.511e-05)
(-4.4337e-05 -5.2962e-05 -3.5438e-05)
(-4.4326e-05 -5.8782e-05 -2.4362e-05)
(-4.4298e-05 -6.2408e-05 -1.2383e-05)
(-4.6625e-05 -1.057e-05 -5.3406e-05)
(-4.6653e-05 -2.0822e-05 -5.0288e-05)
(-4.665e-05 -3.0369e-05 -4.5369e-05)
(-4.6643e-05 -3.869e-05 -3.8691e-05)
(-4.665e-05 -4.537e-05 -3.0369e-05)
(-4.6653e-05 -5.0289e-05 -2.0822e-05)
(-4.6625e-05 -5.3407e-05 -1.057e-05)
(-4.8187e-05 -8.9407e-06 -4.5356e-05)
(-4.8224e-05 -1.7656e-05 -4.2676e-05)
(-4.8198e-05 -2.5842e-05 -3.8566e-05)
(-4.8172e-05 -3.2963e-05 -3.2963e-05)
(-4.8198e-05 -3.8566e-05 -2.5842e-05)
(-4.8224e-05 -4.2677e-05 -1.7656e-05)
(-4.8187e-05 -4.5357e-05 -8.9407e-06)
(-4.9001e-05 -7.5074e-06 -3.8036e-05)
(-4.9026e-05 -1.4834e-05 -3.5831e-05)
(-4.9008e-05 -2.1702e-05 -3.2386e-05)
(-4.899e-05 -2.7672e-05 -2.7671e-05)
(-4.9008e-05 -3.2387e-05 -2.1702e-05)
(-4.9026e-05 -3.5831e-05 -1.4834e-05)
(-4.9001e-05 -3.8037e-05 -7.5073e-06)
(-4.9245e-05 -6.2057e-06 -3.1359e-05)
(-4.926e-05 -1.2253e-05 -2.9574e-05)
(-4.9252e-05 -1.7917e-05 -2.6748e-05)
(-4.9235e-05 -2.2845e-05 -2.2845e-05)
(-4.9252e-05 -2.6749e-05 -1.7917e-05)
(-4.926e-05 -2.9575e-05 -1.2253e-05)
(-4.9245e-05 -3.136e-05 -6.2056e-06)
(-4.9087e-05 -5.0252e-06 -2.5404e-05)
(-4.9104e-05 -9.9284e-06 -2.3983e-05)
(-4.9089e-05 -1.4536e-05 -2.1712e-05)
(-4.9075e-05 -1.8547e-05 -1.8547e-05)
(-4.9089e-05 -2.1712e-05 -1.4536e-05)
(-4.9104e-05 -2.3984e-05 -9.9283e-06)
(-4.9088e-05 -2.5404e-05 -5.0251e-06)
(-4.8611e-05 -3.9878e-06 -2.0258e-05)
(-4.8629e-05 -7.903e-06 -1.9123e-05)
(-4.8605e-05 -1.1619e-05 -1.7343e-05)
(-4.8585e-05 -1.4846e-05 -1.4846e-05)
(-4.8605e-05 -1.7343e-05 -1.1618e-05)
(-4.8629e-05 -1.9124e-05 -7.9028e-06)
(-4.8612e-05 -2.0258e-05 -3.9877e-06)
)
;
    }
    procBoundary1to0
    {
        type            processor;
    }
    procBoundary1to2
    {
        type            processor;
    }
}


// ************************************************************************* //
