/*--------------------------------*- C++ -*----------------------------------*\
| =========                 |                                                 |
| \\      /  F ield         | foam-extend: Open Source CFD                    |
|  \\    /   O peration     | Version:     4.1-20200408                       |
|   \\  /    A nd           | Web:         http://www.foam-extend.org         |
|    \\/     M anipulation  |                                                 |
\*---------------------------------------------------------------------------*/
FoamFile
{
    version     2.0;
    format      ascii;
    class       volScalarField;
    location    "0.0425000";
    object      epsilonTrueEq;
}
// * * * * * * * * * * * * * * * * * * * * * * * * * * * * * * * * * * * * * //

dimensions      [0 0 0 0 0 0 0];

internalField   nonuniform List<scalar> 
1952
(
0.0508193
0.0508968
0.0510001
0.0511232
0.0512496
0.0513585
0.0514349
0.0514569
0.0514007
0.0512292
0.0509286
0.0504889
0.0499634
0.049405
0.0490854
0.0507841
0.050901
0.0509789
0.0510819
0.0512058
0.0513309
0.0514406
0.0515155
0.051538
0.0514805
0.0513101
0.0510095
0.0505715
0.0500484
0.049494
0.0491812
0.0508659
0.0509864
0.0510642
0.0511674
0.0512913
0.0514166
0.0515263
0.0516012
0.0516235
0.0515656
0.0513952
0.0510951
0.0506574
0.0501344
0.0495798
0.0492637
0.0509513
0.0510739
0.0511517
0.0512543
0.0513782
0.0515037
0.0516133
0.0516883
0.0517104
0.0516531
0.0514827
0.051183
0.0507452
0.050222
0.0496669
0.0493493
0.0510387
0.051162
0.0512399
0.0513431
0.051467
0.0515927
0.0517022
0.0517772
0.0517994
0.0517426
0.0515723
0.0512727
0.0508346
0.0503108
0.049754
0.0494338
0.0511269
0.0512516
0.0513296
0.0514331
0.0515573
0.0516831
0.0517926
0.0518679
0.0518901
0.0518333
0.0516626
0.0513631
0.0509242
0.0503995
0.0498413
0.0495196
0.0512166
0.0513429
0.051421
0.0515243
0.0516485
0.0517746
0.0518839
0.0519593
0.0519814
0.0519246
0.0517536
0.0514537
0.0510141
0.0504883
0.0499288
0.0496057
0.0513078
0.0514346
0.0515128
0.0516161
0.0517404
0.0518666
0.0519757
0.0520513
0.0520732
0.0520167
0.0518453
0.0515449
0.0511045
0.0505777
0.0500164
0.049692
0.0513996
0.0515268
0.051605
0.0517087
0.0518331
0.0519593
0.0520682
0.0521442
0.0521659
0.0521088
0.0519368
0.0516359
0.0511945
0.0506667
0.0501045
0.0497791
0.0514918
0.0516196
0.0516979
0.0518014
0.051926
0.0520521
0.0521605
0.052237
0.0522585
0.0522008
0.0520281
0.0517264
0.0512843
0.0507553
0.0501927
0.049867
0.0515846
0.0517122
0.0517906
0.051894
0.0520186
0.0521445
0.0522527
0.0523293
0.0523505
0.0522929
0.0521199
0.0518176
0.0513748
0.0508449
0.0502812
0.0499548
0.0516772
0.051804
0.0518824
0.0519866
0.0521113
0.0522372
0.0523456
0.052422
0.052443
0.0523849
0.0522114
0.0519086
0.0514652
0.0509345
0.0503698
0.0500428
0.051769
0.0518963
0.0519748
0.0520789
0.0522037
0.0523297
0.0524382
0.0525146
0.0525353
0.0524767
0.0523026
0.0519993
0.0515552
0.0510237
0.0504588
0.0501318
0.0518613
0.0519882
0.0520666
0.0521708
0.0522956
0.0524217
0.0525304
0.0526066
0.0526271
0.0525684
0.0523939
0.05209
0.0516455
0.0511132
0.0505479
0.0502207
0.0519531
0.0520792
0.0521578
0.0522623
0.0523873
0.0525135
0.0526223
0.0526985
0.0527189
0.05266
0.0524852
0.0521809
0.051736
0.0512031
0.0506372
0.0503097
0.0520441
0.0521699
0.0522485
0.0523534
0.0524786
0.052605
0.052714
0.0527903
0.0528107
0.0527514
0.0525763
0.0522716
0.0518264
0.0512927
0.050727
0.0503995
0.0521348
0.0522602
0.0523389
0.0524439
0.0525693
0.052696
0.0528052
0.0528817
0.0529021
0.0528428
0.0526675
0.0523625
0.0519171
0.0513827
0.050817
0.0504894
0.052225
0.0523497
0.0524283
0.052534
0.0526597
0.0527866
0.0528961
0.0529727
0.0529932
0.0529343
0.052759
0.0524538
0.0520084
0.0514729
0.0509066
0.0505793
0.0523145
0.0524383
0.0525171
0.0526234
0.0527495
0.0528769
0.0529869
0.053064
0.0530846
0.0530256
0.0528504
0.0525452
0.0520998
0.0515633
0.0509968
0.0506696
0.0524031
0.0525271
0.0526063
0.0527125
0.0528389
0.0529668
0.0530773
0.0531548
0.0531758
0.0531164
0.0529411
0.0526359
0.0521906
0.051654
0.0510872
0.0507603
0.0524918
0.0526148
0.0526942
0.0528003
0.052927
0.0530554
0.0531664
0.0532444
0.0532658
0.0532074
0.0530325
0.0527274
0.0522824
0.0517459
0.0511786
0.0508516
0.0525794
0.0527011
0.0527816
0.052888
0.0530151
0.0531441
0.0532556
0.0533344
0.0533562
0.0532979
0.0531234
0.0528186
0.052374
0.051839
0.0512709
0.0509435
0.0526655
0.0527869
0.0528674
0.0529742
0.0531018
0.0532314
0.0533437
0.0534232
0.0534458
0.0533886
0.0532147
0.0529104
0.0524661
0.0519317
0.0513632
0.0510361
0.0527513
0.052871
0.0529523
0.0530596
0.0531879
0.0533184
0.0534315
0.053512
0.0535353
0.0534793
0.0533063
0.0530029
0.052559
0.0520246
0.0514561
0.0511294
0.0528352
0.0529543
0.0530362
0.0531443
0.0532734
0.053405
0.0535191
0.0536008
0.0536252
0.0535694
0.053397
0.0530944
0.0526509
0.0521177
0.0515495
0.0512233
0.0529183
0.0530371
0.053119
0.0532277
0.0533575
0.0534901
0.0536053
0.0536882
0.0537137
0.0536595
0.0534882
0.0531866
0.052744
0.0522112
0.0516436
0.0513184
0.0530011
0.0531182
0.0532011
0.0533107
0.0534413
0.0535752
0.0536915
0.0537758
0.0538023
0.053749
0.0535788
0.0532785
0.0528369
0.0523052
0.0517387
0.0514145
0.0530819
0.0531992
0.0532822
0.0533927
0.0535239
0.053659
0.0537763
0.0538621
0.05389
0.0538382
0.0536694
0.0533703
0.0529301
0.0524001
0.0518348
0.0515119
0.0531628
0.0532794
0.0533629
0.0534742
0.053606
0.0537423
0.0538606
0.0539479
0.053977
0.0539274
0.0537604
0.053463
0.0530246
0.0524955
0.0519318
0.0516106
0.0532427
0.0533594
0.0534436
0.0535556
0.0536879
0.0538256
0.0539449
0.0540338
0.0540644
0.0540159
0.0538507
0.0535552
0.053119
0.0525918
0.0520303
0.0517111
0.0533226
0.0534409
0.0535247
0.0536373
0.0537698
0.0539085
0.0540285
0.0541189
0.0541509
0.0541043
0.0539412
0.0536477
0.053214
0.0526893
0.0521302
0.0518137
0.053404
0.0535231
0.053607
0.05372
0.0538524
0.053992
0.0541124
0.0542042
0.0542371
0.0541927
0.054032
0.0537408
0.0533102
0.0527876
0.0522317
0.0519184
0.0534861
0.0536083
0.0536919
0.0538052
0.053937
0.054077
0.0541975
0.0542902
0.0543241
0.0542808
0.0541224
0.0538335
0.0534062
0.0528869
0.0523351
0.0520258
0.0535713
0.0536983
0.0537808
0.0538936
0.0540242
0.0541639
0.0542837
0.0543767
0.0544106
0.054369
0.0542131
0.0539265
0.0535032
0.0529877
0.0524406
0.0521363
0.0536616
0.0537945
0.0538757
0.0539877
0.0541161
0.0542547
0.0543727
0.0544652
0.0544983
0.0544577
0.0543042
0.05402
0.0536012
0.0530896
0.0525478
0.0522495
0.0537581
0.0539003
0.0539794
0.0540896
0.0542145
0.0543508
0.0544659
0.0545568
0.0545887
0.0545472
0.0543954
0.0541134
0.0536992
0.0531921
0.052657
0.052366
0.0538643
0.0540194
0.0540952
0.0542025
0.0543225
0.0544548
0.0545651
0.0546526
0.0546818
0.0546378
0.0544867
0.0542063
0.053797
0.0532955
0.0527686
0.0524865
0.0539843
0.0541559
0.0542271
0.05433
0.0544431
0.0545694
0.0546724
0.054754
0.0547788
0.0547305
0.0545789
0.054299
0.0538948
0.0533995
0.0528818
0.0526105
0.054122
0.0543144
0.0543802
0.0544771
0.0545808
0.0546984
0.0547912
0.054864
0.0548813
0.0548268
0.0546727
0.054392
0.0539927
0.0535029
0.0529961
0.052738
0.0542821
0.0545019
0.0545606
0.0546495
0.0547413
0.054847
0.0549261
0.0549863
0.0549914
0.0549274
0.0547679
0.0544842
0.0540889
0.0536052
0.0531115
0.0528689
0.0544716
0.0547256
0.0547749
0.0548534
0.0549299
0.0550199
0.055081
0.055124
0.0551126
0.0550347
0.0548659
0.0545761
0.0541834
0.0537057
0.0532271
0.0530031
0.0546981
0.0549923
0.0550308
0.0550963
0.0551542
0.0552244
0.0552624
0.0552832
0.0552497
0.0551525
0.0549692
0.054669
0.0542762
0.0538029
0.0533409
0.0531392
0.0549682
0.0553105
0.0553367
0.0553869
0.0554226
0.0554688
0.0554786
0.0554713
0.0554087
0.0552856
0.0550808
0.0547642
0.0543669
0.0538949
0.0534506
0.0532751
0.0552903
0.0556891
0.0557011
0.0557335
0.055744
0.055762
0.0557385
0.0556973
0.055598
0.0554412
0.0552063
0.0548654
0.0544565
0.0539806
0.0535546
0.0534085
0.0556733
0.0561359
0.0561321
0.0561447
0.0561277
0.0561141
0.0560527
0.0559717
0.0558279
0.055629
0.0553535
0.0549775
0.0545465
0.0540589
0.0536489
0.0535351
0.0561249
0.0566559
0.0566358
0.0566277
0.0565816
0.056534
0.0564314
0.0563063
0.0561122
0.0558634
0.0555358
0.0551118
0.0546427
0.054127
0.0537218
0.0536464
0.0566499
0.0572516
0.0572159
0.0571872
0.0571121
0.0570302
0.0568857
0.056715
0.056467
0.0561641
0.0557761
0.055293
0.0547685
0.0542007
0.0537737
0.0537271
0.0572505
0.0579216
0.0578714
0.0578235
0.0577215
0.0576072
0.057423
0.0572086
0.0569079
0.0565527
0.0561044
0.0555637
0.0549819
0.0543568
0.053888
0.0538185
0.0579251
0.0586582
0.0585953
0.0585305
0.0584049
0.0582617
0.0580422
0.0577888
0.057441
0.0570405
0.0565378
0.0559505
0.0553228
0.0546545
0.054149
0.0540188
0.058666
0.0594474
0.0593743
0.0592956
0.0591507
0.0589833
0.0587341
0.058447
0.0580568
0.0576157
0.0570593
0.0564259
0.0557432
0.0550138
0.0544455
0.0542069
0.0594584
0.0602683
0.0601877
0.0600984
0.0599392
0.0597526
0.05948
0.0591644
0.0587364
0.0582571
0.0576434
0.0569574
0.0561958
0.0553743
0.0547114
0.054343
0.0602819
0.0610933
0.0610075
0.0609111
0.0607425
0.0605421
0.0602526
0.0599139
0.0594548
0.0589399
0.0582666
0.057522
0.0566546
0.0557168
0.0549308
0.0543929
0.0611087
0.0618889
0.0618007
0.0617005
0.0615274
0.0613185
0.0610192
0.0606634
0.0601803
0.059634
0.058904
0.0580967
0.0571006
0.0560379
0.0550976
0.0542907
0.061905
0.0626178
0.0625287
0.0624273
0.0622534
0.0620401
0.0617367
0.0613688
0.0608701
0.0602991
0.0595244
0.0586566
0.0575292
0.0563463
0.0551727
0.0539466
0.0626339
0.0632359
0.0631465
0.0630446
0.0628719
0.0626566
0.0623528
0.061978
0.0614764
0.0608973
0.0601046
0.0591944
0.0579599
0.0566185
0.0550166
0.0532116
0.0632521
0.0637009
0.0636134
0.0635151
0.0633505
0.0631428
0.062852
0.0624841
0.0619833
0.0613838
0.0605623
0.0595916
0.0582365
0.0566537
0.0544736
0.0520098
0.0637159
0.0640218
0.0639316
0.0638298
0.0636643
0.0634513
0.0631577
0.0627763
0.0622407
0.0615603
0.0606386
0.0595221
0.0579691
0.0561
0.0534307
0.050411
0.0640368
0.0641075
0.0639948
0.0638569
0.0636476
0.0633731
0.0630072
0.0625338
0.0618973
0.0610848
0.0600137
0.0586952
0.0569177
0.0547793
0.0518043
0.0484526
0.0641295
0.0636338
0.0634782
0.0632725
0.0629793
0.062599
0.0621125
0.0615008
0.0607286
0.0597683
0.0585458
0.0570318
0.0550676
0.0527046
0.0495729
0.0461044
0.0636709
0.0622771
0.0620736
0.0617933
0.0614084
0.0609201
0.0603164
0.0595789
0.0586858
0.0575979
0.0562547
0.0545901
0.0525054
0.0499985
0.0468668
0.0434975
0.0623324
0.0598352
0.0595995
0.0592675
0.0588196
0.0582597
0.0575798
0.0567626
0.0557951
0.0546306
0.0532237
0.0514806
0.0493642
0.0468261
0.0438484
0.0407664
0.0599041
0.0562507
0.0560133
0.0556737
0.0552167
0.0546466
0.0539555
0.0531259
0.0521493
0.0509754
0.0495727
0.0478318
0.0457735
0.0433172
0.0406185
0.0379629
0.0563221
0.0516517
0.0514429
0.0511404
0.0507286
0.0502095
0.0495716
0.0487963
0.0478751
0.0467591
0.0454265
0.0437648
0.0418446
0.0395691
0.0372475
0.0351219
0.0517131
0.0463137
0.0461507
0.0459116
0.0455785
0.0451502
0.0446094
0.0439368
0.0431201
0.0421156
0.0409065
0.0393891
0.037672
0.0356607
0.0337941
0.0322764
0.0463574
0.0405952
0.0404754
0.0402991
0.0400463
0.0397151
0.0392836
0.0387328
0.0380446
0.0371837
0.0361333
0.0348084
0.033343
0.0316633
0.0303118
0.0294549
0.0406212
0.0348587
0.0347636
0.034626
0.0344266
0.034167
0.033824
0.0333821
0.0328177
0.0321077
0.0312302
0.0301279
0.0289468
0.0276513
0.0268572
0.0266867
0.034874
0.0294044
0.0293099
0.0291779
0.0289912
0.0287588
0.0284597
0.0280863
0.0276138
0.0270361
0.0263245
0.0254562
0.0245773
0.023704
0.0234882
0.0239951
0.0294187
0.0244305
0.0243184
0.0241658
0.0239573
0.0237096
0.0234041
0.0230444
0.0226108
0.0221229
0.0215479
0.020905
0.020331
0.0199029
0.0202615
0.0213981
0.0244513
0.0200258
0.0198899
0.0197068
0.019462
0.0191774
0.0188327
0.0184403
0.0179896
0.0175333
0.0170441
0.0165933
0.0163057
0.0163219
0.0172174
0.0188981
0.0200563
0.0161949
0.0160411
0.0158339
0.0155595
0.0152433
0.0148594
0.0144225
0.0139243
0.0134475
0.0129813
0.0126611
0.0126062
0.0130202
0.0143602
0.0164608
0.0162336
0.0128983
0.0127419
0.0125276
0.012241
0.0119094
0.0115023
0.0110413
0.0105141
0.0100117
0.00953877
0.00929213
0.00938274
0.010064
0.011665
0.0140113
0.0129399
0.0100407
0.00989839
0.00969629
0.00941457
0.00907661
0.00865425
0.00820099
0.00775189
0.00735391
0.00699087
0.00684814
0.00698335
0.00762827
0.00917775
0.0115193
0.0100792
0.00756567
0.00746
0.00730697
0.00708456
0.00680848
0.00646295
0.00613135
0.00586913
0.00567755
0.0055185
0.00550648
0.00563646
0.00607335
0.00717641
0.00914718
0.00759424
0.00574267
0.00567825
0.00558917
0.00546203
0.0053118
0.00513419
0.00497893
0.00482914
0.00473798
0.00469896
0.00479224
0.0049944
0.0053914
0.00597876
0.00723342
0.00576057
0.00464133
0.00459058
0.00452338
0.00443415
0.00434002
0.00423915
0.004162
0.00407704
0.0040544
0.00409745
0.004274
0.00454731
0.00499211
0.00543275
0.00610694
0.00465636
0.00379933
0.00375851
0.00370423
0.00363607
0.00356894
0.00350558
0.00347546
0.00346675
0.00352202
0.00364085
0.00386788
0.00416978
0.00460522
0.00507005
0.00562562
0.00381226
0.00307814
0.00305444
0.00302314
0.00298965
0.00296353
0.00295126
0.00297072
0.00301918
0.00312654
0.00329489
0.00354826
0.00386482
0.0042733
0.0047155
0.00525029
0.00308667
0.00251836
0.00250917
0.00249612
0.00249048
0.00249555
0.00252298
0.00258171
0.00267772
0.00282371
0.00302389
0.00328636
0.00359995
0.00397709
0.00438995
0.00485869
0.00252333
0.00207221
0.00207818
0.00208399
0.00210619
0.00214093
0.002204
0.0022945
0.00242361
0.00259166
0.00280661
0.00306547
0.00336601
0.00370892
0.00408242
0.00449782
0.002073
0.00173126
0.0017506
0.00177245
0.00181781
0.00187577
0.00196557
0.00207791
0.00222792
0.00240633
0.00262452
0.00287208
0.00315315
0.00346135
0.00379408
0.0041544
0.00172815
0.00147207
0.00150318
0.0015388
0.00160314
0.00167889
0.00178767
0.00191341
0.00207394
0.00225369
0.0024669
0.00269857
0.00295703
0.00323174
0.00352467
0.00383642
0.0014652
0.00128024
0.0013207
0.00136686
0.00144492
0.00153243
0.00165251
0.00178436
0.00194763
0.0021228
0.00232606
0.00253973
0.00277458
0.00301791
0.00327401
0.00354231
0.00127015
0.00114062
0.00118779
0.00124128
0.00132808
0.00142216
0.00154734
0.00167987
0.0018404
0.00200726
0.00219771
0.00239274
0.00260434
0.00281892
0.00304176
0.0032723
0.00112799
0.00104153
0.00109267
0.00115031
0.00124126
0.00133754
0.00146293
0.00159227
0.00174644
0.00190288
0.00207916
0.00225586
0.00244539
0.00263405
0.0028274
0.0030253
0.00102721
0.000972912
0.0010255
0.00108454
0.00117589
0.00127105
0.00139314
0.0015167
0.00166226
0.00180721
0.0019689
0.00212813
0.00229715
0.00246269
0.00263021
0.00280019
0.000957748
0.000926829
0.000978784
0.00103698
0.00112588
0.0012175
0.00133385
0.00144999
0.00158564
0.00171875
0.00186599
0.00200887
0.00215907
0.00230411
0.00244909
0.00259519
0.000911583
0.000896916
0.000946673
0.0010024
0.00108682
0.00117327
0.00128232
0.0013901
0.00151519
0.00163653
0.00176983
0.00189757
0.0020307
0.00215766
0.00228312
0.00240898
0.000882183
0.000878214
0.000924733
0.000976897
0.00105554
0.00113582
0.00123664
0.00133562
0.00144997
0.00155988
0.00167993
0.00179379
0.00191148
0.00202252
0.00213107
0.00223973
0.000864403
0.000866863
0.000909553
0.000957523
0.00102968
0.00110324
0.00119542
0.00128551
0.00138925
0.00148826
0.00159589
0.00169707
0.0018009
0.00189796
0.00199195
0.00208607
0.000854214
0.000859912
0.000898529
0.000942031
0.00100742
0.00107411
0.00115759
0.00123895
0.00133244
0.00142117
0.00151725
0.00160693
0.00169834
0.00178316
0.00186458
0.00194641
0.000848529
0.000855135
0.000889684
0.000928701
0.000987373
0.00104729
0.00112229
0.00119526
0.00127901
0.00135818
0.0014436
0.00152289
0.0016032
0.0016773
0.00174791
0.00181936
0.000845024
0.000850892
0.00088154
0.000916232
0.000968456
0.00102188
0.0010888
0.00115387
0.00122849
0.00129882
0.0013745
0.00144444
0.00151488
0.00157962
0.00164092
0.00170364
0.000842
0.000846019
0.00087303
0.000903665
0.000949848
0.000997197
0.00105656
0.00111428
0.00118045
0.00124271
0.00130953
0.0013711
0.00143277
0.00148934
0.00154265
0.001598
0.000838255
0.000839723
0.000863409
0.000890319
0.000930947
0.000972699
0.00102509
0.00107609
0.00113451
0.00118945
0.00124827
0.00130239
0.00135632
0.00140578
0.00145223
0.00150139
0.000832979
0.000831505
0.000852198
0.000875739
0.000911332
0.000948001
0.000994052
0.00103894
0.00109035
0.0011387
0.00119035
0.00123786
0.00128497
0.00132827
0.00136885
0.0014128
0.00082567
0.000821094
0.000839121
0.000859653
0.000890735
0.000922842
0.000963186
0.00100259
0.0010477
0.00109017
0.00113542
0.00117712
0.00121823
0.0012562
0.00129175
0.00133132
0.000816058
0.000808389
0.000824062
0.000841933
0.00086901
0.000897063
0.000932316
0.000966848
0.00100633
0.0010436
0.00108318
0.00111977
0.00115565
0.00118903
0.0012203
0.00125621
0.000804049
0.000793412
0.000807023
0.00082256
0.000846109
0.000870589
0.000901336
0.000931565
0.000966063
0.000998758
0.00103335
0.00106549
0.00109682
0.00112626
0.00115387
0.00118671
0.000789674
0.000776279
0.000788091
0.000801596
0.000822056
0.000843413
0.0008702
0.00089666
0.00092678
0.000955475
0.000985706
0.00101399
0.00104137
0.00106744
0.00109195
0.00112224
0.000773058
0.000757161
0.000767414
0.00077916
0.000796931
0.000815576
0.000838902
0.000862086
0.000888379
0.000913606
0.000940037
0.000964997
0.000988982
0.00101219
0.00103407
0.00106225
0.000754383
0.000736275
0.00074518
0.000755411
0.000770852
0.000787157
0.000807477
0.000827831
0.000850798
0.000873039
0.000896182
0.000918302
0.000939373
0.000960165
0.00097983
0.00100625
0.000733873
0.000713856
0.0007216
0.000730534
0.000743964
0.000758259
0.000775979
0.000793905
0.000813998
0.000833685
0.000854
0.000873711
0.000892302
0.000911072
0.000928886
0.000953879
0.000711773
0.000690156
0.000696902
0.000704729
0.000716426
0.000729005
0.000744483
0.000760338
0.000777958
0.000795476
0.000813374
0.000831057
0.00084755
0.000864637
0.000880903
0.000904716
0.000688343
0.000665429
0.000671317
0.000678201
0.00068841
0.000699527
0.000713077
0.000727172
0.000742673
0.000758363
0.000774206
0.000790202
0.000804941
0.000820659
0.000835663
0.000858543
0.000663844
0.000639933
0.000645083
0.000651164
0.000660091
0.000669963
0.000681857
0.000694462
0.000708148
0.000722306
0.000736409
0.000751016
0.000764299
0.000778917
0.000792901
0.000815045
0.00063854
0.000613926
0.000618437
0.000623831
0.000631651
0.000640462
0.000650927
0.000662269
0.000674401
0.000687277
0.000699913
0.000713385
0.000725473
0.000739227
0.000752409
0.000774004
0.000612696
0.000587662
0.000591617
0.000596419
0.000603274
0.000611172
0.000620397
0.000630661
0.000641455
0.00065326
0.000664655
0.000677211
0.00068833
0.000701428
0.000714006
0.000735232
0.000586572
0.000561404
0.000564868
0.00056915
0.000575156
0.000582254
0.000590388
0.000599721
0.000609349
0.000620248
0.000630589
0.000642409
0.000652752
0.000665375
0.000677529
0.000698546
0.000560435
0.000535416
0.00053844
0.000542254
0.000547498
0.000553878
0.000561037
0.000569541
0.000578134
0.000588252
0.000597684
0.00060891
0.000618642
0.000630951
0.000642861
0.00066384
0.000534556
0.000509972
0.000512592
0.000515971
0.000520516
0.000526228
0.000532491
0.00054023
0.000547877
0.000557291
0.000565917
0.000576652
0.000585903
0.000598031
0.000609859
0.000630958
0.000509213
0.000485356
0.000487597
0.000490557
0.000494444
0.000499508
0.000504923
0.000511918
0.000518667
0.000527409
0.000535285
0.000545588
0.000554453
0.000566508
0.000578418
0.000599806
0.000484694
0.000461864
0.000463743
0.000466283
0.000469537
0.000473945
0.000478532
0.000484763
0.000490626
0.000498671
0.000505807
0.000515682
0.000524215
0.00053627
0.000548419
0.000570268
0.0004613
0.000439807
0.000441333
0.000443442
0.000446073
0.000449795
0.000453553
0.000458962
0.000463912
0.000471183
0.000477537
0.000486924
0.000495123
0.000507204
0.000519734
0.000542223
0.000439343
0.000419501
0.000420683
0.000422343
0.000424358
0.000427348
0.000430263
0.000434759
0.000438743
0.000445102
0.000450578
0.000459338
0.00046713
0.000479196
0.000492231
0.000515546
0.00041914
0.000401264
0.000402113
0.000403306
0.000404716
0.000406923
0.000408984
0.000412454
0.000415405
0.00042066
0.000425113
0.000433014
0.000440235
0.000452146
0.000465753
0.000490061
0.000401011
0.000385407
0.000385942
0.000386659
0.00038749
0.000388873
0.000390084
0.000392418
0.000394274
0.000398196
0.000401445
0.000408148
0.000414523
0.000426007
0.000440158
0.000465545
0.000385263
0.000372218
0.000372469
0.000372718
0.00037302
0.000373568
0.000373974
0.000375088
0.000375826
0.000378178
0.000380033
0.000385087
0.000390198
0.000400775
0.000415253
0.000441699
0.00037218
0.00036193
0.000361943
0.000361757
0.00036161
0.000361361
0.00036106
0.000360944
0.000360621
0.000361226
0.000361543
0.000364402
0.000367654
0.000376441
0.000390541
0.000417948
0.00036199
0.000354672
0.000354503
0.00035394
0.000353457
0.000352501
0.00035166
0.000350411
0.000349219
0.000348069
0.000346913
0.000347137
0.000347975
0.00035361
0.000365769
0.000393485
0.000354816
0.000350465
0.000350185
0.000349325
0.000348655
0.000347138
0.000346006
0.000343842
0.000342164
0.000339546
0.000337436
0.000335184
0.000333875
0.000335439
0.000343809
0.000369202
0.000350673
0.000350369
0.000350036
0.00034896
0.000348224
0.000346293
0.000345074
0.000342237
0.000340407
0.000336711
0.000334207
0.000330069
0.000327369
0.000324888
0.000327541
0.000343634
0.000350623
0.000351881
0.000351537
0.000350377
0.000349636
0.000347539
0.000346319
0.000343205
0.000341358
0.000337203
0.000334578
0.000329596
0.000326306
0.000321775
0.000321232
0.000329329
0.000352154
)
;

boundaryField
{
    wireUpstream
    {
        type            calculated;
        value           nonuniform List<scalar> 
16
(
0.000353758
0.000353433
0.000352201
0.000351522
0.000349275
0.000348162
0.000344781
0.000343065
0.000338441
0.000335872
0.000329991
0.000326292
0.00031974
0.000316233
0.000313939
0.000354043
)
;
    }
    wireDownstream
    {
        type            calculated;
        value           nonuniform List<scalar> 
16
(
0.0508201
0.0508972
0.0510011
0.0511234
0.0512507
0.0513586
0.0514361
0.0514573
0.0514024
0.0512302
0.0509303
0.0504895
0.0499627
0.0493998
0.0490692
0.0507848
)
;
    }
    wireTopContact
    {
        type            calculated;
        value           nonuniform List<scalar> 
122
(
0.0491417
0.0492241
0.0493097
0.0493941
0.0494799
0.049566
0.0496522
0.0497393
0.0498272
0.049915
0.050003
0.0500919
0.0501809
0.0502699
0.0503596
0.0504495
0.0505393
0.0506297
0.0507204
0.0508117
0.0509037
0.0509963
0.0510896
0.0511835
0.0512785
0.0513745
0.0514719
0.0515705
0.051671
0.0517735
0.0518781
0.0519855
0.0520959
0.052209
0.0523255
0.052446
0.0525702
0.0526978
0.052829
0.0529638
0.0531007
0.0532378
0.0533727
0.0535018
0.0536177
0.0537043
0.0537958
0.05401
0.0542048
0.0543464
0.0544014
0.0542983
0.053946
0.0531981
0.0519821
0.0503682
0.0483962
0.0460217
0.0433854
0.0406286
0.037804
0.034948
0.0320954
0.0292755
0.0265184
0.0238465
0.0212765
0.018809
0.0164081
0.0139953
0.0115329
0.00917531
0.00725285
0.00610111
0.0056267
0.0052554
0.00486295
0.0045016
0.00415753
0.00383907
0.00354464
0.00327438
0.00302721
0.00280201
0.0025969
0.00241063
0.00224127
0.00208753
0.00194777
0.00182061
0.00170478
0.00159901
0.00150228
0.00141357
0.00133196
0.00125674
0.00118712
0.00112253
0.00106243
0.00100632
0.000953858
0.000904594
0.000858336
0.000814745
0.000773615
0.000734755
0.000697978
0.000663187
0.000630218
0.000598986
0.000569374
0.000541267
0.000514557
0.00048908
0.000464632
0.000440943
0.00041756
0.000393943
0.000371075
0.000346938
0.000332717
0.049044
)
;
    }
    front
    {
        type            wedge;
    }
    back
    {
        type            wedge;
    }
}


// ************************************************************************* //
