/*--------------------------------*- C++ -*----------------------------------*\
| =========                 |                                                 |
| \\      /  F ield         | foam-extend: Open Source CFD                    |
|  \\    /   O peration     | Version:     4.1-20200408                       |
|   \\  /    A nd           | Web:         http://www.foam-extend.org         |
|    \\/     M anipulation  |                                                 |
\*---------------------------------------------------------------------------*/
FoamFile
{
    version     2.0;
    format      ascii;
    class       volTensorField;
    location    "0.0425000";
    object      F;
}
// * * * * * * * * * * * * * * * * * * * * * * * * * * * * * * * * * * * * * //

dimensions      [0 0 0 0 0 0 0];

internalField   nonuniform List<tensor> 
1952
(
(1.05119 -0.00371148 -2.05828e-10 -0.000393042 0.97413 -6.9296e-11 6.21517e-11 6.04242e-10 0.974093)
(1.05119 -0.00627556 -1.03166e-10 -0.000624638 0.974175 -8.87749e-10 4.02489e-11 -6.01862e-10 0.974124)
(1.05121 -0.0084748 1.57539e-10 -0.000883644 0.974259 2.83269e-10 -5.28119e-11 -4.28162e-09 0.974139)
(1.05123 -0.0105689 3.97843e-10 -0.00111185 0.974339 1.39876e-09 -1.53788e-10 1.63351e-09 0.974183)
(1.05125 -0.0123745 -1.63648e-10 -0.0013697 0.974469 -3.77936e-10 1.40131e-11 8.26633e-09 0.974212)
(1.05127 -0.0138561 -7.3079e-10 -0.0015933 0.974596 -1.54025e-09 1.9109e-10 1.2012e-09 0.974272)
(1.0513 -0.014957 -2.54949e-10 -0.001844 0.974781 -6.20663e-10 4.89846e-11 -8.52109e-09 0.974315)
(1.05132 -0.0156517 5.19606e-10 -0.00206085 0.974979 7.92466e-10 -1.25697e-10 -1.43653e-09 0.974392)
(1.05135 -0.0157453 -7.47299e-11 -0.00230057 0.975244 -1.73686e-10 -2.58813e-11 8.19512e-09 0.974456)
(1.05137 -0.0151449 -8.01608e-10 -0.0025024 0.975559 -8.87499e-10 1.14203e-10 -1.74855e-09 0.974556)
(1.05139 -0.0135099 1.99773e-10 -0.00272499 0.975946 1.95951e-10 -5.97433e-13 -8.3184e-09 0.974649)
(1.0514 -0.0110582 7.13592e-10 -0.00290942 0.976507 5.89617e-10 -1.12086e-10 1.44018e-09 0.97478)
(1.05141 -0.00751055 -4.98822e-11 -0.00311287 0.977169 -5.79668e-11 -5.33169e-11 8.03138e-09 0.974927)
(1.05141 -0.00316895 -5.79478e-10 -0.00328295 0.978002 -6.65634e-10 7.45196e-11 1.26103e-09 0.975111)
(1.05143 0.000456607 -2.96674e-10 -0.0034987 0.978461 -1.65865e-10 1.25495e-11 -2.54911e-09 0.975325)
(1.05118 -0.00195633 -6.58627e-11 -0.000163439 0.974089 -2.16248e-09 1.4554e-11 -8.75292e-10 0.974107)
(1.05127 -0.00371702 -2.06072e-10 -0.000387467 0.974092 -6.93778e-11 -4.63448e-12 6.05203e-10 0.974055)
(1.05128 -0.00628486 -1.03266e-10 -0.000629379 0.974138 -8.89151e-10 -6.11824e-12 -6.02647e-10 0.974086)
(1.0513 -0.0084868 1.5775e-10 -0.00087463 0.974221 2.83822e-10 -4.87227e-12 -4.28798e-09 0.974102)
(1.05132 -0.0105838 3.98228e-10 -0.00111531 0.974303 1.40161e-09 -1.43663e-11 1.63524e-09 0.974146)
(1.05134 -0.0123925 -1.63853e-10 -0.00135759 0.974433 -3.78398e-10 -2.88296e-11 8.27838e-09 0.974175)
(1.05136 -0.0138758 -7.31816e-10 -0.00159122 0.974561 -1.54315e-09 -2.13135e-11 1.20415e-09 0.974234)
(1.05139 -0.0149777 -2.55314e-10 -0.00182602 0.974746 -6.21192e-10 -1.64692e-12 -8.53291e-09 0.974278)
(1.05141 -0.0156743 5.19841e-10 -0.00204822 0.974946 7.94648e-10 -1.38193e-11 -1.43932e-09 0.974356)
(1.05144 -0.0157664 -7.48364e-11 -0.00227171 0.97521 -1.73842e-10 -4.89003e-11 8.20677e-09 0.97442)
(1.05146 -0.0151651 -8.01527e-10 -0.00247654 0.975525 -8.89584e-10 -3.19988e-11 -1.75017e-09 0.97452)
(1.05148 -0.0135301 2.00193e-10 -0.00268336 0.975911 1.95912e-10 2.47289e-12 -8.3301e-09 0.974614)
(1.05149 -0.0110797 7.13268e-10 -0.00286399 0.976471 5.90835e-10 -2.48733e-11 1.44185e-09 0.974744)
(1.05151 -0.00753536 -4.98615e-11 -0.00304987 0.977133 -5.80394e-11 -6.49918e-11 8.04276e-09 0.974892)
(1.05152 -0.00320373 -5.77529e-10 -0.00320464 0.977962 -6.66178e-10 -5.64371e-11 1.26278e-09 0.975076)
(1.05154 0.000389736 -2.94566e-10 -0.00339698 0.978415 -1.65792e-10 -2.05161e-11 -2.55313e-09 0.975289)
(1.05127 -0.00195961 -6.59718e-11 -0.000166089 0.974051 -2.16535e-09 -1.6381e-12 -8.76569e-10 0.974069)
(1.05137 -0.00372277 -2.06345e-10 -0.000385608 0.974052 -6.94085e-11 -4.64911e-12 6.06126e-10 0.974015)
(1.05137 -0.00629508 -1.03301e-10 -0.000626627 0.974098 -8.90502e-10 -6.13847e-12 -6.03611e-10 0.974045)
(1.05139 -0.00849969 1.5795e-10 -0.000870224 0.974181 2.84348e-10 -4.89437e-12 -4.29463e-09 0.974062)
(1.05141 -0.0105995 3.98479e-10 -0.0011107 0.974263 1.40406e-09 -1.44114e-11 1.63775e-09 0.974105)
(1.05143 -0.0124111 -1.6407e-10 -0.0013509 0.974394 -3.78928e-10 -2.89009e-11 8.29116e-09 0.974135)
(1.05146 -0.0138964 -7.32642e-10 -0.00158389 0.974521 -1.54575e-09 -2.13765e-11 1.206e-09 0.974194)
(1.05148 -0.0149991 -2.5581e-10 -0.00181632 0.974707 -6.21984e-10 -1.67918e-12 -8.54614e-09 0.974239)
(1.05151 -0.0156974 5.19819e-10 -0.00203748 0.974907 7.96392e-10 -1.38703e-11 -1.44158e-09 0.974316)
(1.05153 -0.0157887 -7.49463e-11 -0.00225852 0.975171 -1.74051e-10 -4.90174e-11 8.21945e-09 0.97438)
(1.05155 -0.0151872 -8.01174e-10 -0.00246185 0.975486 -8.91275e-10 -3.21001e-11 -1.75292e-09 0.97448)
(1.05158 -0.013552 2.00752e-10 -0.00266633 0.975872 1.96047e-10 2.44255e-12 -8.34308e-09 0.974574)
(1.05159 -0.0111018 7.12969e-10 -0.00284542 0.976432 5.9209e-10 -2.49389e-11 1.44408e-09 0.974705)
(1.0516 -0.00755701 -4.98462e-11 -0.00302973 0.977093 -5.81228e-11 -6.51431e-11 8.0554e-09 0.974852)
(1.05161 -0.00322254 -5.77649e-10 -0.00318376 0.977921 -6.67221e-10 -5.65992e-11 1.26476e-09 0.975036)
(1.05162 0.000369128 -2.94561e-10 -0.00337611 0.978375 -1.66163e-10 -2.05894e-11 -2.55723e-09 0.975249)
(1.05136 -0.00196312 -6.60817e-11 -0.000165338 0.974011 -2.16842e-09 -1.64369e-12 -8.77928e-10 0.974029)
(1.05146 -0.00372841 -2.06587e-10 -0.000384185 0.974011 -6.94247e-11 -4.66384e-12 6.07076e-10 0.973974)
(1.05147 -0.00630483 -1.03355e-10 -0.000624596 0.974057 -8.91859e-10 -6.15851e-12 -6.04601e-10 0.974004)
(1.05148 -0.00851218 1.5816e-10 -0.000866905 0.97414 2.8485e-10 -4.91671e-12 -4.30148e-09 0.974021)
(1.0515 -0.0106153 3.98695e-10 -0.00110674 0.974222 1.40629e-09 -1.44567e-11 1.64031e-09 0.974064)
(1.05152 -0.0124299 -1.64298e-10 -0.00134542 0.974353 -3.7948e-10 -2.89718e-11 8.30428e-09 0.974094)
(1.05155 -0.0139171 -7.33418e-10 -0.00157784 0.974481 -1.54813e-09 -2.14394e-11 1.20788e-09 0.974153)
(1.05158 -0.0150209 -2.56332e-10 -0.00180857 0.974667 -6.22926e-10 -1.71102e-12 -8.55973e-09 0.974198)
(1.0516 -0.0157207 5.19754e-10 -0.00202917 0.974867 7.97705e-10 -1.39219e-11 -1.44389e-09 0.974275)
(1.05163 -0.0158109 -7.50631e-11 -0.00224825 0.97513 -1.74276e-10 -4.91348e-11 8.23248e-09 0.97434)
(1.05165 -0.0152094 -8.00671e-10 -0.00245021 0.975444 -8.92923e-10 -3.22017e-11 -1.75576e-09 0.974439)
(1.05167 -0.013574 2.01353e-10 -0.0026528 0.97583 1.96248e-10 2.41369e-12 -8.35647e-09 0.974534)
(1.05168 -0.0111236 7.12656e-10 -0.0028308 0.97639 5.93349e-10 -2.50042e-11 1.44639e-09 0.974664)
(1.0517 -0.00757892 -4.98313e-11 -0.00301371 0.977052 -5.8211e-11 -6.5297e-11 8.06848e-09 0.974811)
(1.0517 -0.00324177 -5.77873e-10 -0.00316734 0.97788 -6.68328e-10 -5.67627e-11 1.26681e-09 0.974995)
(1.05172 0.000350701 -2.948e-10 -0.00335999 0.978335 -1.66496e-10 -2.06621e-11 -2.56148e-09 0.975208)
(1.05145 -0.00196656 -6.61685e-11 -0.00016476 0.97397 -2.17157e-09 -1.64928e-12 -8.79325e-10 0.973987)
(1.05155 -0.00373412 -2.06857e-10 -0.000383028 0.973969 -6.94226e-11 -4.67867e-12 6.08041e-10 0.973932)
(1.05156 -0.00631461 -1.03431e-10 -0.000622863 0.974015 -8.93194e-10 -6.17845e-12 -6.05604e-10 0.973962)
(1.05158 -0.00852453 1.58368e-10 -0.000864162 0.974098 2.85374e-10 -4.93898e-12 -4.30845e-09 0.973979)
(1.05159 -0.0106313 3.98836e-10 -0.00110292 0.97418 1.40862e-09 -1.45026e-11 1.64293e-09 0.974022)
(1.05162 -0.0124488 -1.64524e-10 -0.00134047 0.974311 -3.80049e-10 -2.90431e-11 8.3177e-09 0.974052)
(1.05164 -0.0139382 -7.34109e-10 -0.00157189 0.974439 -1.55056e-09 -2.15023e-11 1.20982e-09 0.974112)
(1.05167 -0.0150428 -2.56906e-10 -0.0018015 0.974625 -6.23906e-10 -1.74188e-12 -8.57366e-09 0.974156)
(1.0517 -0.0157449 5.19268e-10 -0.00202093 0.974825 7.98965e-10 -1.39735e-11 -1.44626e-09 0.974233)
(1.05173 -0.0158343 -7.51966e-11 -0.00223869 0.975088 -1.74513e-10 -4.92544e-11 8.24587e-09 0.974298)
(1.05175 -0.015232 -8.00147e-10 -0.00244001 0.975402 -8.94519e-10 -3.23034e-11 -1.75867e-09 0.974397)
(1.05177 -0.013596 2.02015e-10 -0.00264166 0.975788 1.96506e-10 2.38654e-12 -8.37024e-09 0.974492)
(1.05178 -0.0111449 7.1237e-10 -0.00281936 0.976348 5.94576e-10 -2.50693e-11 1.44876e-09 0.974622)
(1.05179 -0.00759904 -4.98147e-11 -0.0030019 0.977011 -5.83024e-11 -6.54525e-11 8.08189e-09 0.974769)
(1.0518 -0.00325725 -5.78248e-10 -0.00315584 0.97784 -6.69557e-10 -5.69272e-11 1.26891e-09 0.974953)
(1.05181 0.000336851 -2.94992e-10 -0.00334878 0.978295 -1.6684e-10 -2.07345e-11 -2.56582e-09 0.975166)
(1.05154 -0.00196999 -6.62691e-11 -0.000164277 0.973928 -2.17479e-09 -1.65488e-12 -8.80743e-10 0.973945)
(1.05165 -0.0037399 -2.07115e-10 -0.000381706 0.973926 -6.94223e-11 -4.69362e-12 6.09025e-10 0.973889)
(1.05166 -0.00632504 -1.03467e-10 -0.000620607 0.973972 -8.94553e-10 -6.19833e-12 -6.06628e-10 0.97392)
(1.05167 -0.00853762 1.58561e-10 -0.000861106 0.974055 2.85905e-10 -4.96075e-12 -4.31556e-09 0.973936)
(1.05169 -0.0106475 3.9899e-10 -0.00109928 0.974137 1.41095e-09 -1.45489e-11 1.6456e-09 0.97398)
(1.05172 -0.0124679 -1.64755e-10 -0.00133598 0.974269 -3.80632e-10 -2.91156e-11 8.3314e-09 0.974009)
(1.05174 -0.0139594 -7.34783e-10 -0.00156665 0.974397 -1.55303e-09 -2.15653e-11 1.21179e-09 0.974069)
(1.05177 -0.015065 -2.57494e-10 -0.00179555 0.974583 -6.24895e-10 -1.77214e-12 -8.58789e-09 0.974113)
(1.05179 -0.0157691 5.18842e-10 -0.00201416 0.974783 8.00302e-10 -1.40252e-11 -1.44869e-09 0.97419)
(1.05182 -0.0158576 -7.5331e-11 -0.00223141 0.975045 -1.7476e-10 -4.93745e-11 8.25955e-09 0.974255)
(1.05184 -0.0152546 -7.99601e-10 -0.00243235 0.975359 -8.96101e-10 -3.24054e-11 -1.76165e-09 0.974354)
(1.05186 -0.0136177 2.02715e-10 -0.00263377 0.975745 1.96796e-10 2.35991e-12 -8.38429e-09 0.974449)
(1.05188 -0.0111655 7.12084e-10 -0.00281145 0.976306 5.95831e-10 -2.51344e-11 1.45117e-09 0.974579)
(1.05189 -0.00761783 -4.9798e-11 -0.00299412 0.97697 -5.83934e-11 -6.56083e-11 8.09553e-09 0.974726)
(1.05189 -0.00327066 -5.7865e-10 -0.00314847 0.977799 -6.70638e-10 -5.70923e-11 1.27104e-09 0.974911)
(1.0519 0.000325952 -2.9523e-10 -0.00334134 0.978255 -1.67177e-10 -2.08067e-11 -2.57023e-09 0.975124)
(1.05164 -0.00197344 -6.63458e-11 -0.000163708 0.973885 -2.17806e-09 -1.66047e-12 -8.8219e-10 0.973903)
(1.05174 -0.00374572 -2.07397e-10 -0.000380644 0.973883 -6.94349e-11 -4.70863e-12 6.10029e-10 0.973845)
(1.05175 -0.0063354 -1.03522e-10 -0.000618844 0.973929 -8.95965e-10 -6.21805e-12 -6.07675e-10 0.973876)
(1.05177 -0.00855063 1.5877e-10 -0.000858791 0.974012 2.86438e-10 -4.98257e-12 -4.32282e-09 0.973892)
(1.05179 -0.010664 3.99117e-10 -0.00109649 0.974094 1.41329e-09 -1.45955e-11 1.64832e-09 0.973936)
(1.05181 -0.012487 -1.6499e-10 -0.00133266 0.974225 -3.81224e-10 -2.91886e-11 8.34535e-09 0.973966)
(1.05184 -0.0139808 -7.35353e-10 -0.00156294 0.974353 -1.55556e-09 -2.16282e-11 1.2138e-09 0.974025)
(1.05186 -0.0150875 -2.58128e-10 -0.00179133 0.974539 -6.25898e-10 -1.80198e-12 -8.60236e-09 0.974069)
(1.05189 -0.0157935 5.18351e-10 -0.00200967 0.97474 8.01731e-10 -1.40771e-11 -1.45115e-09 0.974147)
(1.05192 -0.0158809 -7.54684e-11 -0.00222663 0.975002 -1.75005e-10 -4.94949e-11 8.27344e-09 0.974212)
(1.05194 -0.0152769 -7.98966e-10 -0.00242715 0.975316 -8.97778e-10 -3.25077e-11 -1.76466e-09 0.974311)
(1.05196 -0.0136388 2.03474e-10 -0.00262839 0.975702 1.97084e-10 2.33374e-12 -8.39851e-09 0.974406)
(1.05197 -0.0111849 7.11785e-10 -0.00280604 0.976264 5.97092e-10 -2.51994e-11 1.4536e-09 0.974536)
(1.05198 -0.00763539 -4.97774e-11 -0.00298852 0.976929 -5.84845e-11 -6.57651e-11 8.10932e-09 0.974683)
(1.05198 -0.00328237 -5.791e-10 -0.003143 0.977759 -6.71713e-10 -5.72581e-11 1.27319e-09 0.974868)
(1.05199 0.00031708 -2.95449e-10 -0.00333607 0.978215 -1.6751e-10 -2.08789e-11 -2.57468e-09 0.975081)
(1.05174 -0.00197689 -6.64397e-11 -0.000163249 0.973841 -2.18141e-09 -1.66607e-12 -8.83668e-10 0.973859)
(1.05184 -0.00375158 -2.07658e-10 -0.000380014 0.973838 -6.9441e-11 -4.72368e-12 6.11044e-10 0.973801)
(1.05185 -0.00634568 -1.03573e-10 -0.00061791 0.973885 -8.97387e-10 -6.23768e-12 -6.08733e-10 0.973832)
(1.05187 -0.00856348 1.58975e-10 -0.000857421 0.973968 2.86979e-10 -5.00446e-12 -4.33016e-09 0.973848)
(1.05188 -0.0106805 3.99197e-10 -0.00109455 0.97405 1.41567e-09 -1.46423e-11 1.65107e-09 0.973892)
(1.05191 -0.0125062 -1.65227e-10 -0.00133026 0.974182 -3.81821e-10 -2.92611e-11 8.35945e-09 0.973922)
(1.05193 -0.0140021 -7.35898e-10 -0.00156025 0.97431 -1.55806e-09 -2.16909e-11 1.21583e-09 0.973981)
(1.05196 -0.0151099 -2.58766e-10 -0.00178825 0.974496 -6.26935e-10 -1.83137e-12 -8.61697e-09 0.974026)
(1.05199 -0.0158177 5.17818e-10 -0.00200608 0.974697 8.03075e-10 -1.41291e-11 -1.45363e-09 0.974103)
(1.05202 -0.015904 -7.56089e-11 -0.00222274 0.974958 -1.75253e-10 -4.96165e-11 8.28745e-09 0.974168)
(1.05204 -0.0152987 -7.98387e-10 -0.00242316 0.975273 -8.99473e-10 -3.26101e-11 -1.76771e-09 0.974267)
(1.05206 -0.0136594 2.04224e-10 -0.00262437 0.975659 1.97395e-10 2.30847e-12 -8.41287e-09 0.974362)
(1.05207 -0.0112035 7.11536e-10 -0.0028021 0.976222 5.98306e-10 -2.52645e-11 1.45606e-09 0.974492)
(1.05207 -0.00765159 -4.97553e-11 -0.00298474 0.976888 -5.85768e-11 -6.59229e-11 8.12323e-09 0.97464)
(1.05208 -0.00329255 -5.79491e-10 -0.00313935 0.977719 -6.72796e-10 -5.74244e-11 1.27536e-09 0.974824)
(1.05208 0.000309601 -2.9565e-10 -0.00333225 0.978176 -1.67841e-10 -2.09509e-11 -2.57917e-09 0.975038)
(1.05183 -0.00198039 -6.65452e-11 -0.00016298 0.973797 -2.1848e-09 -1.67167e-12 -8.85164e-10 0.973815)
(1.05194 -0.00375739 -2.07943e-10 -0.000379462 0.973794 -6.94437e-11 -4.73884e-12 6.12066e-10 0.973756)
(1.05195 -0.00635604 -1.03627e-10 -0.000616919 0.97384 -8.98808e-10 -6.25739e-12 -6.09798e-10 0.973787)
(1.05197 -0.00857646 1.5917e-10 -0.000856094 0.973923 2.8753e-10 -5.02606e-12 -4.33755e-09 0.973804)
(1.05198 -0.010697 3.99288e-10 -0.00109289 0.974005 1.41809e-09 -1.46892e-11 1.65385e-09 0.973848)
(1.05201 -0.0125254 -1.65464e-10 -0.00132821 0.974137 -3.82425e-10 -2.93338e-11 8.37369e-09 0.973877)
(1.05203 -0.0140237 -7.36347e-10 -0.00155803 0.974266 -1.5606e-09 -2.17533e-11 1.21787e-09 0.973937)
(1.05206 -0.0151325 -2.59466e-10 -0.00178603 0.974452 -6.27946e-10 -1.85981e-12 -8.63172e-09 0.973981)
(1.05208 -0.0158424 5.17083e-10 -0.00200325 0.974653 8.04612e-10 -1.41808e-11 -1.45615e-09 0.974059)
(1.05211 -0.0159273 -7.57572e-11 -0.00222015 0.974914 -1.75504e-10 -4.97386e-11 8.30161e-09 0.974124)
(1.05213 -0.0153203 -7.97748e-10 -0.00242063 0.975229 -9.0118e-10 -3.27126e-11 -1.77078e-09 0.974223)
(1.05215 -0.0136793 2.05024e-10 -0.00262224 0.975616 1.977e-10 2.28309e-12 -8.42733e-09 0.974318)
(1.05216 -0.0112211 7.11238e-10 -0.00280014 0.97618 5.99577e-10 -2.53295e-11 1.45854e-09 0.974448)
(1.05217 -0.00766625 -4.97332e-11 -0.00298331 0.976847 -5.8667e-11 -6.60802e-11 8.1372e-09 0.974596)
(1.05217 -0.00330061 -5.79801e-10 -0.00313805 0.977678 -6.7378e-10 -5.75909e-11 1.27753e-09 0.974781)
(1.05217 0.000304082 -2.95829e-10 -0.00333047 0.978135 -1.68182e-10 -2.1023e-11 -2.58367e-09 0.974995)
(1.05193 -0.00198382 -6.66393e-11 -0.000162739 0.973752 -2.18822e-09 -1.6773e-12 -8.86671e-10 0.97377)
(1.05204 -0.00376329 -2.08208e-10 -0.000379107 0.973749 -6.94613e-11 -4.75406e-12 6.13097e-10 0.973711)
(1.05205 -0.00636668 -1.03662e-10 -0.000616249 0.973795 -9.00269e-10 -6.2771e-12 -6.10876e-10 0.973742)
(1.05206 -0.00858974 1.59364e-10 -0.000855325 0.973879 2.8808e-10 -5.04749e-12 -4.34502e-09 0.973759)
(1.05208 -0.0107137 3.99385e-10 -0.00109201 0.973961 1.42049e-09 -1.47358e-11 1.65664e-09 0.973803)
(1.0521 -0.0125443 -1.657e-10 -0.00132736 0.974093 -3.83032e-10 -2.94079e-11 8.38802e-09 0.973832)
(1.05213 -0.0140451 -7.3669e-10 -0.0015572 0.974222 -1.56315e-09 -2.18145e-11 1.21993e-09 0.973892)
(1.05216 -0.0151551 -2.60198e-10 -0.00178533 0.974408 -6.28924e-10 -1.88854e-12 -8.64653e-09 0.973937)
(1.05218 -0.0158658 5.16619e-10 -0.00200279 0.974609 8.06319e-10 -1.42322e-11 -1.45867e-09 0.974014)
(1.05221 -0.0159494 -7.58883e-11 -0.0022199 0.974871 -1.75748e-10 -4.98599e-11 8.3158e-09 0.974079)
(1.05223 -0.0153412 -7.97157e-10 -0.00242013 0.975186 -9.02993e-10 -3.28154e-11 -1.77386e-09 0.974179)
(1.05225 -0.0136985 2.05799e-10 -0.00262172 0.975574 1.9798e-10 2.25724e-12 -8.44181e-09 0.974274)
(1.05226 -0.0112381 7.10968e-10 -0.00279952 0.976139 6.00873e-10 -2.53944e-11 1.46101e-09 0.974404)
(1.05226 -0.00768081 -4.97063e-11 -0.00298235 0.976807 -5.87558e-11 -6.62378e-11 8.15117e-09 0.974552)
(1.05226 -0.00330868 -5.80287e-10 -0.00313689 0.977638 -6.74698e-10 -5.77576e-11 1.27971e-09 0.974737)
(1.05227 0.000299182 -2.96001e-10 -0.0033293 0.978095 -1.68518e-10 -2.10953e-11 -2.58818e-09 0.974952)
(1.05203 -0.00198733 -6.67259e-11 -0.000162579 0.973707 -2.19167e-09 -1.68295e-12 -8.88193e-10 0.973725)
(1.05213 -0.00376914 -2.08489e-10 -0.000379234 0.973704 -6.94754e-11 -4.76931e-12 6.1413e-10 0.973666)
(1.05214 -0.00637671 -1.03739e-10 -0.000616575 0.973751 -9.01731e-10 -6.29681e-12 -6.11955e-10 0.973698)
(1.05216 -0.00860243 1.59579e-10 -0.000855721 0.973834 2.88634e-10 -5.06915e-12 -4.35249e-09 0.973714)
(1.05218 -0.0107302 3.99526e-10 -0.00109196 0.973916 1.42296e-09 -1.47819e-11 1.65944e-09 0.973758)
(1.0522 -0.0125627 -1.65933e-10 -0.00132769 0.974049 -3.83635e-10 -2.94835e-11 8.40236e-09 0.973787)
(1.05222 -0.0140668 -7.36798e-10 -0.00155692 0.974178 -1.56571e-09 -2.18745e-11 1.22199e-09 0.973848)
(1.05225 -0.0151782 -2.61e-10 -0.00178498 0.974364 -6.29942e-10 -1.9191e-12 -8.66134e-09 0.973892)
(1.05228 -0.0158898 5.15996e-10 -0.00200263 0.974566 8.07821e-10 -1.42826e-11 -1.46119e-09 0.97397)
(1.05231 -0.0159717 -7.60346e-11 -0.00221949 0.974827 -1.75992e-10 -4.99812e-11 8.32997e-09 0.974035)
(1.05233 -0.0153615 -7.96483e-10 -0.00241978 0.975143 -9.04794e-10 -3.29182e-11 -1.77693e-09 0.974135)
(1.05235 -0.0137171 2.06596e-10 -0.00262109 0.975531 1.98277e-10 2.23184e-12 -8.4563e-09 0.97423)
(1.05235 -0.0112541 7.10681e-10 -0.00279884 0.976096 6.02087e-10 -2.54596e-11 1.46349e-09 0.97436)
(1.05236 -0.0076944 -4.96772e-11 -0.00298128 0.976766 -5.88475e-11 -6.63965e-11 8.16519e-09 0.974509)
(1.05236 -0.00331605 -5.80669e-10 -0.0031357 0.977597 -6.75729e-10 -5.79249e-11 1.28189e-09 0.974694)
(1.05236 0.000294477 -2.96147e-10 -0.00332814 0.978054 -1.68848e-10 -2.11675e-11 -2.5927e-09 0.974908)
(1.05213 -0.00199078 -6.6809e-11 -0.000162637 0.973662 -2.19513e-09 -1.6886e-12 -8.89717e-10 0.97368)
(1.05223 -0.00377506 -2.0877e-10 -0.000379287 0.97366 -6.94784e-11 -4.78455e-12 6.15157e-10 0.973621)
(1.05224 -0.0063873 -1.03785e-10 -0.000616605 0.973706 -9.03166e-10 -6.31655e-12 -6.13026e-10 0.973653)
(1.05226 -0.0086155 1.59778e-10 -0.000855842 0.973789 2.89208e-10 -5.09077e-12 -4.35991e-09 0.973669)
(1.05227 -0.0107465 3.99634e-10 -0.00109198 0.973871 1.4256e-09 -1.48282e-11 1.66224e-09 0.973713)
(1.0523 -0.0125809 -1.66158e-10 -0.00132789 0.974004 -3.84235e-10 -2.95584e-11 8.41666e-09 0.973743)
(1.05232 -0.014088 -7.36919e-10 -0.00155665 0.974134 -1.56846e-09 -2.19347e-11 1.22405e-09 0.973803)
(1.05235 -0.0152007 -2.618e-10 -0.00178469 0.97432 -6.30944e-10 -1.9491e-12 -8.67618e-09 0.973848)
(1.05238 -0.0159133 5.15271e-10 -0.00200212 0.974522 8.09356e-10 -1.43328e-11 -1.46371e-09 0.973925)
(1.05241 -0.015994 -7.61747e-11 -0.00221892 0.974784 -1.76242e-10 -5.01033e-11 8.34419e-09 0.973991)
(1.05242 -0.0153818 -7.96007e-10 -0.00241949 0.9751 -9.06479e-10 -3.30211e-11 -1.78002e-09 0.97409)
(1.05244 -0.0137354 2.07363e-10 -0.00262096 0.975488 1.9859e-10 2.20648e-12 -8.47082e-09 0.974185)
(1.05245 -0.01127 7.10438e-10 -0.00279882 0.976054 6.03291e-10 -2.55248e-11 1.46597e-09 0.974316)
(1.05245 -0.00770717 -4.96487e-11 -0.00298156 0.976725 -5.89387e-11 -6.65547e-11 8.17921e-09 0.974465)
(1.05245 -0.00332218 -5.81007e-10 -0.00313609 0.977557 -6.76681e-10 -5.80923e-11 1.28408e-09 0.97465)
(1.05245 0.000290896 -2.96277e-10 -0.00332812 0.978014 -1.69187e-10 -2.12399e-11 -2.59722e-09 0.974865)
(1.05222 -0.0019943 -6.68834e-11 -0.000162654 0.973617 -2.19856e-09 -1.69425e-12 -8.91233e-10 0.973635)
(1.05233 -0.00378092 -2.09038e-10 -0.000379228 0.973615 -6.94985e-11 -4.79981e-12 6.16188e-10 0.973576)
(1.05234 -0.00639803 -1.03802e-10 -0.000616367 0.973661 -9.04638e-10 -6.33623e-12 -6.14105e-10 0.973608)
(1.05235 -0.00862891 1.59969e-10 -0.000855717 0.973744 2.89771e-10 -5.11247e-12 -4.36737e-09 0.973624)
(1.05237 -0.010763 3.99746e-10 -0.00109211 0.973827 1.42814e-09 -1.48748e-11 1.66504e-09 0.973668)
(1.0524 -0.0125995 -1.66392e-10 -0.00132809 0.97396 -3.84836e-10 -2.9632e-11 8.43097e-09 0.973698)
(1.05242 -0.0141096 -7.37104e-10 -0.00155703 0.97409 -1.57117e-09 -2.19955e-11 1.22611e-09 0.973758)
(1.05245 -0.0152235 -2.62593e-10 -0.00178522 0.974276 -6.31942e-10 -1.97818e-12 -8.69102e-09 0.973803)
(1.05247 -0.0159368 5.14694e-10 -0.00200274 0.974479 8.10939e-10 -1.43837e-11 -1.46624e-09 0.973881)
(1.0525 -0.0160156 -7.63146e-11 -0.00221984 0.97474 -1.76489e-10 -5.02251e-11 8.35839e-09 0.973946)
(1.05252 -0.0154015 -7.9534e-10 -0.0024203 0.975057 -9.08218e-10 -3.31241e-11 -1.7831e-09 0.974046)
(1.05254 -0.0137531 2.08169e-10 -0.00262196 0.975446 1.9888e-10 2.18055e-12 -8.48532e-09 0.974141)
(1.05254 -0.011285 7.10139e-10 -0.00279973 0.976013 6.04546e-10 -2.559e-11 1.46845e-09 0.974272)
(1.05255 -0.00771946 -4.9618e-11 -0.00298249 0.976684 -5.90284e-11 -6.67127e-11 8.19321e-09 0.974421)
(1.05255 -0.00332797 -5.81355e-10 -0.00313687 0.977516 -6.77566e-10 -5.82598e-11 1.28626e-09 0.974607)
(1.05255 0.00028776 -2.96408e-10 -0.00332862 0.977973 -1.69528e-10 -2.13124e-11 -2.60174e-09 0.974821)
(1.05232 -0.00199781 -6.69861e-11 -0.000162619 0.973572 -2.20201e-09 -1.6999e-12 -8.92756e-10 0.97359)
(1.05242 -0.00378685 -2.09311e-10 -0.000379515 0.97357 -6.95184e-11 -4.81503e-12 6.17217e-10 0.973532)
(1.05243 -0.00640849 -1.0385e-10 -0.000616898 0.973617 -9.06111e-10 -6.35585e-12 -6.15181e-10 0.973563)
(1.05245 -0.00864185 1.60162e-10 -0.000856405 0.9737 2.90335e-10 -5.13443e-12 -4.37481e-09 0.97358)
(1.05247 -0.0107794 3.99815e-10 -0.00109283 0.973782 1.4307e-09 -1.49213e-11 1.66783e-09 0.973624)
(1.05249 -0.0126179 -1.66623e-10 -0.00132893 0.973916 -3.85433e-10 -2.97053e-11 8.44524e-09 0.973653)
(1.05251 -0.0141308 -7.37245e-10 -0.001558 0.974046 -1.5739e-09 -2.20563e-11 1.22817e-09 0.973714)
(1.05255 -0.0152459 -2.63397e-10 -0.00178633 0.974232 -6.32932e-10 -2.00785e-12 -8.70582e-09 0.973758)
(1.05257 -0.0159597 5.14097e-10 -0.00200399 0.974436 8.12542e-10 -1.44349e-11 -1.46876e-09 0.973836)
(1.0526 -0.0160372 -7.64483e-11 -0.00222115 0.974697 -1.76732e-10 -5.03468e-11 8.37255e-09 0.973902)
(1.05262 -0.015421 -7.9482e-10 -0.00242143 0.975014 -9.10015e-10 -3.32273e-11 -1.78617e-09 0.974002)
(1.05263 -0.0137708 2.08933e-10 -0.00262301 0.975403 1.99159e-10 2.15472e-12 -8.49977e-09 0.974097)
(1.05264 -0.0113001 7.09918e-10 -0.00280057 0.975971 6.05783e-10 -2.56553e-11 1.47093e-09 0.974228)
(1.05264 -0.0077318 -4.95875e-11 -0.00298302 0.976643 -5.91188e-11 -6.68713e-11 8.20719e-09 0.974377)
(1.05264 -0.00333403 -5.81745e-10 -0.0031371 0.977475 -6.78486e-10 -5.84275e-11 1.28844e-09 0.974563)
(1.05264 0.00028445 -2.96536e-10 -0.00332888 0.977931 -1.69866e-10 -2.1385e-11 -2.60625e-09 0.974778)
(1.05242 -0.00200139 -6.70771e-11 -0.000162743 0.973528 -2.20544e-09 -1.70555e-12 -8.94275e-10 0.973546)
(1.05252 -0.00379271 -2.09569e-10 -0.000379825 0.973526 -6.95298e-11 -4.83023e-12 6.18239e-10 0.973487)
(1.05253 -0.00641903 -1.03876e-10 -0.000617487 0.973572 -9.07558e-10 -6.37549e-12 -6.16249e-10 0.973519)
(1.05255 -0.00865502 1.60354e-10 -0.000857127 0.973655 2.90901e-10 -5.15641e-12 -4.3822e-09 0.973535)
(1.05256 -0.010796 3.99875e-10 -0.00109359 0.973738 1.43326e-09 -1.49678e-11 1.67061e-09 0.973579)
(1.05259 -0.0126366 -1.66858e-10 -0.00132981 0.973872 -3.8603e-10 -2.97788e-11 8.45945e-09 0.973609)
(1.05261 -0.0141524 -7.3743e-10 -0.00155891 0.974002 -1.57659e-09 -2.21173e-11 1.23022e-09 0.973669)
(1.05264 -0.0152686 -2.64195e-10 -0.00178738 0.974189 -6.33925e-10 -2.03755e-12 -8.72056e-09 0.973714)
(1.05267 -0.0159833 5.13421e-10 -0.00200488 0.974392 8.14084e-10 -1.4486e-11 -1.47126e-09 0.973792)
(1.05269 -0.0160588 -7.65934e-11 -0.00222207 0.974654 -1.76975e-10 -5.04691e-11 8.38667e-09 0.973858)
(1.05271 -0.0154402 -7.94187e-10 -0.00242236 0.97497 -9.11804e-10 -3.33304e-11 -1.78924e-09 0.973958)
(1.05273 -0.013788 2.0972e-10 -0.00262398 0.97536 1.99437e-10 2.12894e-12 -8.51421e-09 0.974053)
(1.05274 -0.0113145 7.09682e-10 -0.00280143 0.975928 6.07018e-10 -2.57206e-11 1.4734e-09 0.974184)
(1.05274 -0.00774344 -4.95545e-11 -0.00298393 0.976602 -5.92099e-11 -6.70298e-11 8.22116e-09 0.974334)
(1.05274 -0.00333944 -5.82076e-10 -0.00313793 0.977434 -6.79457e-10 -5.85955e-11 1.29061e-09 0.97452)
(1.05274 0.000281502 -2.96646e-10 -0.00332938 0.97789 -1.70209e-10 -2.14577e-11 -2.61077e-09 0.974735)
(1.05251 -0.002005 -6.7183e-11 -0.00016288 0.973483 -2.20886e-09 -1.71119e-12 -8.95786e-10 0.973501)
(1.05261 -0.00379867 -2.0984e-10 -0.000380083 0.973481 -6.95387e-11 -4.84544e-12 6.19258e-10 0.973442)
(1.05262 -0.00642992 -1.03888e-10 -0.000617823 0.973528 -9.08998e-10 -6.39522e-12 -6.17314e-10 0.973474)
(1.05264 -0.00866842 1.60542e-10 -0.000857645 0.973611 2.91468e-10 -5.1783e-12 -4.38956e-09 0.973491)
(1.05266 -0.0108125 3.99927e-10 -0.00109441 0.973694 1.43584e-09 -1.50143e-11 1.67338e-09 0.973535)
(1.05268 -0.0126551 -1.67093e-10 -0.00133078 0.973827 -3.86624e-10 -2.98523e-11 8.47362e-09 0.973565)
(1.05271 -0.0141737 -7.37584e-10 -0.00156003 0.973958 -1.57934e-09 -2.21784e-11 1.23226e-09 0.973625)
(1.05274 -0.015291 -2.65008e-10 -0.00178868 0.974145 -6.34878e-10 -2.06727e-12 -8.73525e-09 0.97367)
(1.05276 -0.0160063 5.12772e-10 -0.00200615 0.974349 8.1577e-10 -1.45371e-11 -1.47377e-09 0.973748)
(1.05279 -0.0160804 -7.67283e-11 -0.00222357 0.97461 -1.77218e-10 -5.0591e-11 8.40076e-09 0.973814)
(1.05281 -0.0154597 -7.93741e-10 -0.00242372 0.974927 -9.13603e-10 -3.34336e-11 -1.7923e-09 0.973914)
(1.05283 -0.0138055 2.10462e-10 -0.00262546 0.975318 1.99701e-10 2.10263e-12 -8.52861e-09 0.974009)
(1.05283 -0.0113292 7.09531e-10 -0.00280262 0.975886 6.08296e-10 -2.57859e-11 1.47586e-09 0.97414)
(1.05284 -0.00775511 -4.95217e-11 -0.00298516 0.976561 -5.92997e-11 -6.71879e-11 8.2351e-09 0.97429)
(1.05283 -0.00334474 -5.82448e-10 -0.0031389 0.977392 -6.80312e-10 -5.87635e-11 1.29278e-09 0.974476)
(1.05283 0.000278771 -2.96749e-10 -0.00333005 0.977848 -1.70562e-10 -2.15306e-11 -2.61526e-09 0.974691)
(1.05261 -0.00200862 -6.72898e-11 -0.000162988 0.973439 -2.21226e-09 -1.71685e-12 -8.97291e-10 0.973456)
(1.05271 -0.00380447 -2.10092e-10 -0.000380398 0.973437 -6.95588e-11 -4.86066e-12 6.20273e-10 0.973398)
(1.05272 -0.00644076 -1.03862e-10 -0.000618393 0.973484 -9.10448e-10 -6.41501e-12 -6.18376e-10 0.97343)
(1.05274 -0.00868203 1.60729e-10 -0.000858468 0.973567 2.92023e-10 -5.20034e-12 -4.3969e-09 0.973447)
(1.05275 -0.0108294 3.99956e-10 -0.00109541 0.97365 1.43834e-09 -1.50608e-11 1.67613e-09 0.97349)
(1.05278 -0.0126742 -1.67334e-10 -0.00133198 0.973784 -3.87217e-10 -2.99257e-11 8.48772e-09 0.97352)
(1.0528 -0.0141956 -7.37753e-10 -0.00156142 0.973914 -1.58202e-09 -2.22395e-11 1.23429e-09 0.973581)
(1.05283 -0.015314 -2.65825e-10 -0.00179019 0.974101 -6.35842e-10 -2.09765e-12 -8.74988e-09 0.973626)
(1.05286 -0.0160298 5.12213e-10 -0.00200797 0.974306 8.17413e-10 -1.45884e-11 -1.47626e-09 0.973704)
(1.05289 -0.0161018 -7.6871e-11 -0.00222538 0.974567 -1.77455e-10 -5.07124e-11 8.41477e-09 0.97377)
(1.0529 -0.0154787 -7.93146e-10 -0.00242535 0.974884 -9.15498e-10 -3.3537e-11 -1.79534e-09 0.97387)
(1.05292 -0.0138227 2.11225e-10 -0.00262685 0.975275 1.99931e-10 2.07602e-12 -8.54296e-09 0.973966)
(1.05293 -0.0113433 7.09419e-10 -0.00280377 0.975844 6.09627e-10 -2.58513e-11 1.47832e-09 0.974097)
(1.05293 -0.00776685 -4.94858e-11 -0.00298577 0.976519 -5.93895e-11 -6.73467e-11 8.24901e-09 0.974246)
(1.05293 -0.0033506 -5.8296e-10 -0.00313947 0.977351 -6.81279e-10 -5.89319e-11 1.29496e-09 0.974433)
(1.05293 0.000276023 -2.96859e-10 -0.00333078 0.977807 -1.70907e-10 -2.16037e-11 -2.61976e-09 0.974648)
(1.0527 -0.00201231 -6.73861e-11 -0.000163127 0.973394 -2.21565e-09 -1.72251e-12 -8.9879e-10 0.973412)
(1.0528 -0.00381055 -2.10358e-10 -0.000380916 0.973393 -6.95595e-11 -4.87587e-12 6.21283e-10 0.973354)
(1.05281 -0.0064517 -1.03883e-10 -0.000619353 0.97344 -9.1187e-10 -6.43492e-12 -6.1943e-10 0.973386)
(1.05283 -0.0086955 1.60918e-10 -0.000859651 0.973523 2.92587e-10 -5.22267e-12 -4.40419e-09 0.973403)
(1.05285 -0.0108464 3.99959e-10 -0.00109674 0.973606 1.4409e-09 -1.51072e-11 1.67888e-09 0.973447)
(1.05287 -0.0126931 -1.67575e-10 -0.00133344 0.97374 -3.87805e-10 -2.9999e-11 8.50175e-09 0.973477)
(1.0529 -0.0142173 -7.37869e-10 -0.001563 0.97387 -1.58473e-09 -2.23008e-11 1.23631e-09 0.973537)
(1.05293 -0.0153368 -2.6667e-10 -0.00179177 0.974058 -6.36806e-10 -2.12835e-12 -8.76444e-09 0.973582)
(1.05295 -0.0160532 5.11516e-10 -0.00200948 0.974263 8.18963e-10 -1.46397e-11 -1.47874e-09 0.97366)
(1.05298 -0.016124 -7.70081e-11 -0.00222668 0.974523 -1.77696e-10 -5.08345e-11 8.42874e-09 0.973727)
(1.053 -0.0154984 -7.92803e-10 -0.00242666 0.97484 -9.1728e-10 -3.36406e-11 -1.79838e-09 0.973826)
(1.05302 -0.0138404 2.11929e-10 -0.00262799 0.975232 2.002e-10 2.04962e-12 -8.55728e-09 0.973922)
(1.05303 -0.0113578 7.09476e-10 -0.00280471 0.975801 6.10836e-10 -2.59171e-11 1.48078e-09 0.974053)
(1.05303 -0.00777836 -4.94478e-11 -0.0029865 0.976478 -5.94822e-11 -6.75058e-11 8.26291e-09 0.974203)
(1.05303 -0.00335622 -5.83425e-10 -0.0031402 0.977309 -6.82173e-10 -5.91006e-11 1.29712e-09 0.974389)
(1.05303 0.00027331 -2.96963e-10 -0.00333147 0.977765 -1.71245e-10 -2.16769e-11 -2.62426e-09 0.974605)