/*--------------------------------*- C++ -*----------------------------------*\
| =========                 |                                                 |
| \\      /  F ield         | OpenFOAM: The Open Source CFD Toolbox           |
|  \\    /   O peration     | Version:  4.1                                   |
|   \\  /    A nd           | Web:      www.OpenFOAM.org                      |
|    \\/     M anipulation  |                                                 |
\*---------------------------------------------------------------------------*/
FoamFile
{
    version     2.0;
    format      ascii;
    class       pointVectorField;
    location    "0.000420";
    object      pointDisplacement;
}
// * * * * * * * * * * * * * * * * * * * * * * * * * * * * * * * * * * * * * //

dimensions      [0 1 0 0 0 0 0];

internalField   nonuniform List<vector> 
3625
(
(0 0 0)
(0 0.00014796113 -3.171741e-08)
(0 0.00022322312 -5.9350943e-08)
(0 0.0002670596 -1.0066622e-07)
(0 0.00029493433 -1.3359491e-07)
(0 0.00031331546 -1.4417586e-07)
(0 0.00032457711 -1.5962971e-07)
(0 0.0003295365 -1.7106613e-07)
(0 0.00032861958 -1.364766e-07)
(0 0.00032192019 -8.6571662e-08)
(0 0.00030954901 -7.670029e-08)
(0 0.00029179984 -1.0132375e-07)
(0 0.0002690665 -1.2705888e-07)
(0 0.0002417018 -1.2611049e-07)
(0 0.0002101592 -1.0182112e-07)
(0 0.00017497071 -5.3913734e-08)
(0 0.00013676696 1.1145676e-08)
(0 9.6160908e-05 6.5168316e-08)
(0 5.3791246e-05 1.0006524e-07)
(0 1.0455196e-05 1.1442816e-07)
(0 -3.3053648e-05 1.1585794e-07)
(0 -7.5985609e-05 1.0423048e-07)
(0 -0.00011762789 8.1317836e-08)
(0 -0.00015726977 6.3188308e-08)
(0 -0.00019430279 6.8656103e-08)
(0 0 0)
(0 0.00012876612 -1.6535597e-05)
(0 0.00019818166 -2.0831181e-05)
(0 0.00023866763 -2.0431947e-05)
(0 0.00026409818 -1.7785809e-05)
(0 0.00028068996 -1.4024404e-05)
(0 0.0002907629 -9.696541e-06)
(0 0.00029511341 -5.0737327e-06)
(0 0.00029416393 -2.7338114e-07)
(0 0.00028798474 4.5606654e-06)
(0 0.00027668422 9.2676098e-06)
(0 0.0002605473 1.3767473e-05)
(0 0.00023995481 1.8031745e-05)
(0 0.00021522482 2.2024883e-05)
(0 0.00018674807 2.5673025e-05)
(0 0.00015501196 2.8917e-05)
(0 0.0001206135 3.1694166e-05)
(0 8.4063989e-05 3.3921013e-05)
(0 4.5920531e-05 3.5553259e-05)
(0 6.9554372e-06 3.6565814e-05)
(0 -3.2085406e-05 3.6947227e-05)
(0 -7.0506798e-05 3.668459e-05)
(0 -0.00010762937 3.5775477e-05)
(0 -0.00014290166 3.4249447e-05)
(0 -0.00017587823 3.2153402e-05)
(0 0 0)
(0 0.00011055384 -3.5488846e-05)
(0 0.0001727034 -4.586534e-05)
(0 0.00020922682 -4.5396471e-05)
(0 0.00023210213 -3.9616772e-05)
(0 0.00024696307 -3.1226663e-05)
(0 0.00025598841 -2.1504395e-05)
(0 0.00025995044 -1.1104677e-05)
(0 0.00025920884 -3.6965465e-07)
(0 0.00025383381 1.0420775e-05)
(0 0.00024394599 2.0988136e-05)
(0 0.00022977965 3.1143633e-05)
(0 0.00021164623 4.0779879e-05)
(0 0.00018986898 4.9769897e-05)
(0 0.00016479305 5.7952497e-05)
(0 0.00013682886 6.5201123e-05)
(0 0.00010649966 7.1384495e-05)
(0 7.4222526e-05 7.6355697e-05)
(0 4.0518684e-05 8.0029079e-05)
(0 6.100744e-06 8.2349225e-05)
(0 -2.8362326e-05 8.3272387e-05)
(0 -6.2234538e-05 8.2772345e-05)
(0 -9.4912715e-05 8.0826043e-05)
(0 -0.00012595297 7.7464844e-05)
(0 -0.00015502787 7.2765157e-05)
(0 0 0)
(0 9.2021444e-05 -5.3664469e-05)
(0 0.00014491842 -7.0313685e-05)
(0 0.00017627225 -7.0014128e-05)
(0 0.00019594291 -6.1235495e-05)
(0 0.00020873126 -4.8265406e-05)
(0 0.00021654862 -3.3177865e-05)
(0 0.00022006919 -1.7024112e-05)
(0 0.00021959659 -3.6278238e-07)
(0 0.00021520357 1.6379128e-05)
(0 0.00020698782 3.2804077e-05)
(0 0.00019512921 4.8626974e-05)
(0 0.00017987082 6.3645854e-05)
(0 0.0001615327 7.7642489e-05)
(0 0.00014039876 9.0378183e-05)
(0 0.00011678895 0.00010164572)
(0 9.1130544e-05 0.00011124913)
(0 6.3747801e-05 0.00011899109)
(0 3.5135111e-05 0.00012473216)
(0 5.9241406e-06 0.00012837787)
(0 -2.3322941e-05 0.000129857)
(0 -5.2055726e-05 0.00012912026)
(0 -7.9805473e-05 0.00012612295)
(0 -0.00010618727 0.00012090697)
(0 -0.00013089601 0.00011358089)
(0 0 0)
(0 7.319311e-05 -7.1630571e-05)
(0 0.00011548089 -9.4315526e-05)
(0 0.00014075324 -9.4139229e-05)
(0 0.00015668743 -8.2404667e-05)
(0 0.00016713017 -6.4941298e-05)
(0 0.00017361751 -4.4595423e-05)
(0 0.00017666089 -2.2812889e-05)
(0 0.00017650133 -3.4911717e-07)
(0 0.00017320349 2.2222443e-05)
(0 0.00016682413 4.4385311e-05)
(0 0.00015748374 6.5767982e-05)
(0 0.00014538606 8.6063753e-05)
(0 0.0001308125 0.00010497152)
(0 0.00011396205 0.00012218589)
(0 9.5077451e-05 0.00013740733)
(0 7.4497751e-05 0.00015037894)
(0 5.2464832e-05 0.00016086148)
(0 2.9425052e-05 0.00016864472)
(0 5.9224967e-06 0.00017358853)
(0 -1.760462e-05 0.00017560496)
(0 -4.0715996e-05 0.00017461178)
(0 -6.3076191e-05 0.00017056339)
(0 -8.4358643e-05 0.00016351107)
(0 -0.00010428746 0.00015357927)
(0 0 0)
(0 5.4060743e-05 -8.9885363e-05)
(0 8.4914232e-05 -0.00011790174)
(0 0.00010352802 -0.0001174919)
(0 0.00011540203 -0.00010274131)
(0 0.00012329527 -8.0916362e-05)
(0 0.00012831711 -5.552241e-05)
(0 0.00013082134 -2.8351354e-05)
(0 0.00013095107 -3.3849093e-07)
(0 0.00012874197 2.7816679e-05)
(0 0.00012424106 5.5483974e-05)
(0 0.00011751823 8.2200646e-05)
(0 0.00010869506 0.00010756628)
(0 9.8017081e-05 0.00013119793)
(0 8.5646894e-05 0.00015271489)
(0 7.1727847e-05 0.00017173671)
(0 5.6502059e-05 0.00018794405)
(0 4.0127432e-05 0.0002010392)
(0 2.2997052e-05 0.00021075475)
(0 5.5638745e-06 0.00021691271)
(0 -1.1866789e-05 0.0002193988)
(0 -2.897163e-05 0.00021811178)
(0 -4.55518e-05 0.00021301503)
(0 -6.1378061e-05 0.00020415503)
(0 -7.6222501e-05 0.00019166311)
(0 0 0)
(0 3.4707847e-05 -0.00010894184)
(0 5.3899834e-05 -0.00014105077)
(0 6.5645324e-05 -0.00013978341)
(0 7.3301601e-05 -0.0001218863)
(0 7.8504384e-05 -9.5847301e-05)
(0 8.1936555e-05 -6.5699998e-05)
(0 8.3792025e-05 -3.3498658e-05)
(0 8.4101909e-05 -3.2259214e-07)
(0 8.2877907e-05 3.3029195e-05)
(0 8.0172975e-05 6.5839566e-05)
(0 7.6018953e-05 9.7544106e-05)
(0 7.0463821e-05 0.00012765301)
(0 6.3704388e-05 0.00015570333)
(0 5.5856539e-05 0.00018123363)
(0 4.6984916e-05 0.00020378678)
(0 3.7246311e-05 0.00022298443)
(0 2.6685988e-05 0.00023847604)
(0 1.5634318e-05 0.0002499493)
(0 4.4643959e-06 0.00025718989)
(0 -6.6643262e-06 0.00026004712)
(0 -1.754298e-05 0.00025841835)
(0 -2.8126606e-05 0.0002522736)
(0 -3.8294037e-05 0.00024167082)
(0 -4.7862658e-05 0.00022676486)
(0 0 0)
(0 1.534005e-05 -0.00012933984)
(0 2.3320914e-05 -0.00016351754)
(0 2.8335932e-05 -0.00016050525)
(0 3.1713383e-05 -0.00013933418)
(0 3.4107075e-05 -0.00010933452)
(0 3.5787667e-05 -7.4859524e-05)
(0 3.6798591e-05 -3.8122222e-05)
(0 3.7085646e-05 -2.9927352e-07)
(0 3.6654008e-05 3.7736455e-05)
(0 3.5554767e-05 7.5191177e-05)
(0 3.3786265e-05 0.00011140945)
(0 3.1362844e-05 0.00014581738)
(0 2.8416309e-05 0.00017787308)
(0 2.498137e-05 0.00020703447)
(0 2.1058944e-05 0.00023277592)
(0 1.6740337e-05 0.00025465668)
(0 1.1976812e-05 0.00027227983)
(0 7.0060622e-06 0.00028529584)
(0 2.0986262e-06 0.00029345405)
(0 -2.7185575e-06 0.00029657998)
(0 -7.3592851e-06 0.00029457344)
(0 -1.190276e-05 0.00028741647)
(0 -1.6331016e-05 0.00027518967)
(0 -2.0540363e-05 0.00025808258)
(0 0 0)
(0 -5.4030041e-07 -0.00015331203)
(0 -8.3993894e-07 -0.00018781538)
(0 -8.9046652e-07 -0.00018215209)
(0 -8.4076554e-07 -0.00015729902)
(0 -7.0013798e-07 -0.00012319779)
(0 -4.8758797e-07 -8.4356533e-05)
(0 -2.5071017e-07 -4.3063405e-05)
(0 -6.3712793e-08 -5.7877526e-07)
(0 7.2818953e-08 4.214903e-05)
(0 1.9160148e-07 8.4249202e-05)
(0 2.7438675e-07 0.0001249869)
(0 2.9485954e-07 0.00016370114)
(0 3.1941712e-07 0.00019975873)
(0 3.2483615e-07 0.00023253715)
(0 2.4197807e-07 0.00026144904)
(0 1.3743752e-07 0.00028598971)
(0 -8.1046241e-08 0.00030571062)
(0 -2.83746e-07 0.00032022464)
(0 -2.9517643e-07 0.00032925335)
(0 -1.8874993e-07 0.00033260799)
(0 4.0492048e-08 0.00033019238)
(0 2.5007718e-07 0.00032200823)
(0 3.4978705e-07 0.00030816127)
(0 3.7036706e-07 0.00028887626)
(0 0 0)
(0 0.00012863562 1.642862e-05)
(0 0.00019795626 2.0630905e-05)
(0 0.00023845508 2.0113065e-05)
(0 0.00026393563 1.7380066e-05)
(0 0.00028058703 1.3595892e-05)
(0 0.00029071662 9.2496515e-06)
(0 0.00029508128 4.6181389e-06)
(0 0.00029411301 -8.7373832e-08)
(0 0.00028791205 -4.7852845e-06)
(0 0.00027658835 -9.4544809e-06)
(0 0.00026041915 -1.4013535e-05)
(0 0.00023977599 -1.8343877e-05)
(0 0.00021497502 -2.2327946e-05)
(0 0.00018643887 -2.5907428e-05)
(0 0.00015467558 -2.9027217e-05)
(0 0.00012027019 -3.1643688e-05)
(0 8.3732546e-05 -3.3744766e-05)
(0 4.5610916e-05 -3.5301969e-05)
(0 6.6752503e-06 -3.6290562e-05)
(0 -3.2323817e-05 -3.6676774e-05)
(0 -7.0705997e-05 -3.6452662e-05)
(0 -0.00010781135 -3.5611347e-05)
(0 -0.0001430718 -3.4136939e-05)
(0 -0.00017601373 -3.2028347e-05)
(0 0 0)
(0 0.00010020325 -9.5392127e-08)
(0 0.00015946483 -1.7990574e-07)
(0 0.00019445823 -2.762928e-07)
(0 0.00021612252 -3.3817942e-07)
(0 0.00023007184 -3.4859655e-07)
(0 0.00023846598 -3.4820295e-07)
(0 0.00024198948 -3.3901107e-07)
(0 0.00024105647 -2.6522266e-07)
(0 0.0002357217 -1.5267208e-07)
(0 0.00022610782 -1.0503895e-07)
(0 0.00021248412 -1.371567e-07)
(0 0.0001951995 -1.7573093e-07)
(0 0.00017451227 -1.5629447e-07)
(0 0.00015076977 -9.7114358e-08)
(0 0.00012442541 -3.3181614e-09)
(0 9.5990813e-05 1.1032935e-07)
(0 6.5778267e-05 1.9277447e-07)
(0 3.4209363e-05 2.3597978e-07)
(0 2.0360639e-06 2.4158011e-07)
(0 -3.0060857e-05 2.2798973e-07)
(0 -6.1485535e-05 1.8652116e-07)
(0 -9.1660005e-05 1.2302775e-07)
(0 -0.00012028111 7.5425178e-08)
(0 -0.0001471231 7.6206908e-08)
(0 0 0)
(0 8.2374762e-05 -1.6041987e-05)
(0 0.00013327814 -2.1839928e-05)
(0 0.00016383793 -2.2094447e-05)
(0 0.00018289343 -1.9511177e-05)
(0 0.0001952234 -1.5522241e-05)
(0 0.00020274669 -1.0825455e-05)
(0 0.00020609189 -5.7738848e-06)
(0 0.00020557813 -5.1660093e-07)
(0 0.00020124393 4.7972174e-06)
(0 0.00019323273 9.9590658e-06)
(0 0.00018176251 1.485684e-05)
(0 0.0001671118 1.9497198e-05)
(0 0.00014954183 2.3873595e-05)
(0 0.00012934597 2.7899484e-05)
(0 0.00010692593 3.150586e-05)
(0 8.2704107e-05 3.4620979e-05)
(0 5.6871643e-05 3.7146808e-05)
(0 2.9849926e-05 3.9029675e-05)
(0 2.3409947e-06 4.0241487e-05)
(0 -2.5055096e-05 4.0776386e-05)
(0 -5.1802506e-05 4.0622827e-05)
(0 -7.7431688e-05 3.9744095e-05)
(0 -0.00010174373 3.8162447e-05)
(0 -0.00012462164 3.5946787e-05)
(0 0 0)
(0 6.5052e-05 -3.1392486e-05)
(0 0.00010628989 -4.3213145e-05)
(0 0.00013140627 -4.3888112e-05)
(0 0.00014723073 -3.875798e-05)
(0 0.0001575872 -3.0737425e-05)
(0 0.00016402531 -2.1271992e-05)
(0 0.00016706028 -1.1098751e-05)
(0 0.00016695208 -5.7290023e-07)
(0 0.00016372064 1.0022064e-05)
(0 0.00015746151 2.0373988e-05)
(0 0.00014834938 3.0288043e-05)
(0 0.00013659522 3.9690005e-05)
(0 0.00012245322 4.8500688e-05)
(0 0.00010616017 5.6570643e-05)
(0 8.8046921e-05 6.3753864e-05)
(0 6.842384e-05 6.9923613e-05)
(0 4.7380089e-05 7.4944394e-05)
(0 2.5344183e-05 7.8715699e-05)
(0 2.9372359e-06 8.117521e-05)
(0 -1.9352655e-05 8.2292084e-05)
(0 -4.1073035e-05 8.2036161e-05)
(0 -6.1920926e-05 8.0323202e-05)
(0 -8.1722377e-05 7.7172799e-05)
(0 -0.00010035723 7.2693899e-05)
(0 0 0)
(0 4.7946581e-05 -4.6614901e-05)
(0 7.872568e-05 -6.4474846e-05)
(0 9.7752596e-05 -6.5635695e-05)
(0 0.0001099125 -5.7992846e-05)
(0 0.00011803952 -4.5931996e-05)
(0 0.00012325356 -3.1678569e-05)
(0 0.00012590106 -1.6367424e-05)
(0 0.00012618874 -5.5000364e-07)
(0 0.00012410505 1.53558e-05)
(0 0.00011967515 3.0927103e-05)
(0 0.00011302044 4.5893301e-05)
(0 0.00010430247 6.0100752e-05)
(0 9.3763196e-05 7.3390107e-05)
(0 8.1578061e-05 8.5547418e-05)
(0 6.7984e-05 9.6346182e-05)
(0 5.3192273e-05 0.00010560098)
(0 3.721576e-05 0.00011314087)
(0 2.046543e-05 0.00011881427)
(0 3.4796833e-06 0.00012252334)
(0 -1.3380834e-05 0.00012421422)
(0 -2.9767735e-05 0.00012380193)
(0 -4.5537925e-05 0.00012119816)
(0 -6.0558631e-05 0.00011644217)
(0 -7.4682785e-05 0.00010964342)
(0 0 0)
(0 3.0991698e-05 -6.2122082e-05)
(0 5.0896678e-05 -8.5669135e-05)
(0 6.3493978e-05 -8.7095968e-05)
(0 7.1766462e-05 -7.6877401e-05)
(0 7.7468518e-05 -6.083032e-05)
(0 8.130079e-05 -4.1869025e-05)
(0 8.3464344e-05 -2.150082e-05)
(0 8.4049654e-05 -4.6696338e-07)
(0 8.3004877e-05 2.0686737e-05)
(0 8.0355631e-05 4.1428523e-05)
(0 7.616029e-05 6.1410112e-05)
(0 7.0501531e-05 8.0390913e-05)
(0 6.3603882e-05 9.8128025e-05)
(0 5.5609605e-05 0.00011433946)
(0 4.6648102e-05 0.00012872244)
(0 3.6826832e-05 0.00014103387)
(0 2.6076942e-05 0.00015105201)
(0 1.4795512e-05 0.00015856961)
(0 3.4506643e-06 0.00016346042)
(0 -7.7450474e-06 0.0001656415)
(0 -1.8563792e-05 0.00016499435)
(0 -2.9015717e-05 0.00016144741)
(0 -3.9030141e-05 0.00015502494)
(0 -4.8471794e-05 0.0001458155)
(0 0 0)
(0 1.4347177e-05 -7.8389555e-05)
(0 2.3514503e-05 -0.00010685904)
(0 2.9639257e-05 -0.00010809285)
(0 3.3898693e-05 -9.5145878e-05)
(0 3.701796e-05 -7.5151921e-05)
(0 3.9302685e-05 -5.1622887e-05)
(0 4.0819046e-05 -2.6376116e-05)
(0 4.1512774e-05 -3.1575079e-07)
(0 4.1309518e-05 2.5909952e-05)
(0 4.0260225e-05 5.1677319e-05)
(0 3.8372021e-05 7.6533253e-05)
(0 3.5666525e-05 0.0001001402)
(0 3.2338963e-05 0.00012218458)
(0 2.8474595e-05 0.00014231297)
(0 2.4109734e-05 0.00016014857)
(0 1.9261905e-05 0.00017539475)
(0 1.3772637e-05 0.00018776879)
(0 8.0125924e-06 0.00019701104)
(0 2.3801437e-06 0.00020296445)
(0 -3.0693966e-06 0.00020550744)
(0 -8.2284685e-06 0.00020452269)
(0 -1.3258293e-05 0.00019995383)
(0 -1.8167493e-05 0.00019181798)
(0 -2.2857458e-05 0.00018021037)
(0 0 0)
(0 -1.6960532e-06 -9.5942372e-05)
(0 -2.5036081e-06 -0.00012795381)
(0 -2.5664548e-06 -0.00012827099)
(0 -2.3289289e-06 -0.00011241571)
(0 -1.9021236e-06 -8.856739e-05)
(0 -1.353159e-06 -6.0704646e-05)
(0 -7.5204472e-07 -3.0862483e-05)
(0 -2.435813e-07 -6.7749384e-08)
(0 1.0983191e-07 3.0941603e-05)
(0 3.5944205e-07 6.1465411e-05)
(0 4.7395762e-07 9.0950617e-05)
(0 4.5596873e-07 0.00011896683)
(0 4.5747981e-07 0.00014511737)
(0 4.8103423e-07 0.0001689652)
(0 4.8628298e-07 0.00019006776)
(0 4.3682271e-07 0.00020806915)
(0 9.0448367e-08 0.00022263473)
(0 -2.572874e-07 0.00023346139)
(0 -3.0141718e-07 0.00024034975)
(0 -1.3324587e-07 0.00024314551)
(0 2.5846836e-07 0.00024174159)
(0 5.863604e-07 0.0002360965)
(0 7.5898693e-07 0.00022624706)
(0 8.3523388e-07 0.00021233137)
(0 0 0)
(0 -1.7222843e-05 -0.00012935066)
(0 -2.6155409e-05 -0.00016352733)
(0 -3.1273036e-05 -0.0001605057)
(0 -3.4410659e-05 -0.00013931841)
(0 -3.632189e-05 -0.00010930884)
(0 -3.7344332e-05 -7.4830043e-05)
(0 -3.763462e-05 -3.8082795e-05)
(0 -3.733136e-05 -2.4899026e-07)
(0 -3.6481073e-05 3.7801599e-05)
(0 -3.5058293e-05 7.5267672e-05)
(0 -3.311129e-05 0.0001114867)
(0 -3.0683342e-05 0.00014589164)
(0 -2.7706562e-05 0.00017794503)
(0 -2.4248827e-05 0.00020710072)
(0 -2.0420054e-05 0.00023283296)
(0 -1.6252277e-05 0.0002547042)
(0 -1.2002024e-05 0.00027231981)
(0 -7.5349197e-06 0.00028532536)
(0 -2.6755132e-06 0.00029347322)
(0 2.394192e-06 0.00029658815)
(0 7.6041841e-06 0.00029457184)
(0 1.2639587e-05 0.0002874095)
(0 1.7313789e-05 0.0002751753)
(0 2.1619026e-05 0.00025806002)
(0 0 0)
(0 0.00011021774 3.5362461e-05)
(0 0.00017214374 4.5626647e-05)
(0 0.00020872591 4.5036449e-05)
(0 0.00023170796 3.9162832e-05)
(0 0.00024669958 3.073434e-05)
(0 0.00025584176 2.0998743e-05)
(0 0.00025981127 1.0599562e-05)
(0 0.00025903646 -4.6784103e-08)
(0 0.00025362828 -1.0705218e-05)
(0 0.0002436914 -2.1234057e-05)
(0 0.00022943862 -3.1466975e-05)
(0 0.00021118557 -4.1188399e-05)
(0 0.00018925033 -5.017793e-05)
(0 0.00016403676 -5.8297812e-05)
(0 0.00013602404 -6.5429465e-05)
(0 0.00010571187 -7.1464077e-05)
(0 7.3506407e-05 -7.6322043e-05)
(0 3.989508e-05 -7.9932458e-05)
(0 5.5838783e-06 -8.2237112e-05)
(0 -2.8749285e-05 -8.3166874e-05)
(0 -6.2518016e-05 -8.2698794e-05)
(0 -9.5172454e-05 -8.0810363e-05)
(0 -0.00012622677 -7.7487201e-05)
(0 -0.00015525272 -7.2756145e-05)
(0 0 0)
(0 8.2181766e-05 1.5816585e-05)
(0 0.0001329844 2.1418332e-05)
(0 0.00016361389 2.1476788e-05)
(0 0.00018272706 1.8766282e-05)
(0 0.00019511443 1.474398e-05)
(0 0.00020267918 1.0050861e-05)
(0 0.00020599731 5.0260292e-06)
(0 0.00020544285 -8.6064631e-08)
(0 0.00020107128 -5.171578e-06)
(0 0.00019301403 -1.0230524e-05)
(0 0.00018146706 -1.5208508e-05)
(0 0.00016671 -1.9948461e-05)
(0 0.00014900965 -2.42929e-05)
(0 0.00012870987 -2.8196645e-05)
(0 0.00010626372 -3.1619137e-05)
(0 8.2070079e-05 -3.452167e-05)
(0 5.6309894e-05 -3.6896079e-05)
(0 2.9372837e-05 -3.8707657e-05)
(0 1.9584191e-06 -3.9921025e-05)
(0 -2.5328556e-05 -4.0486115e-05)
(0 -5.1993141e-05 -4.0411055e-05)
(0 -7.760507e-05 -3.96541e-05)
(0 -0.00010194007 -3.8157925e-05)
(0 -0.00012480902 -3.5924713e-05)
(0 0 0)
(0 6.4773937e-05 -1.4428086e-07)
(0 0.00010672845 -2.68632e-07)
(0 0.00013254881 -3.808549e-07)
(0 0.00014883286 -4.3885784e-07)
(0 0.00015945945 -4.4778725e-07)
(0 0.00016604197 -4.4489179e-07)
(0 0.00016909368 -4.2242407e-07)
(0 0.00016890146 -3.3935841e-07)
(0 0.00016547033 -2.0995758e-07)
(0 0.00015894174 -1.4205609e-07)
(0 0.00014950288 -1.7617381e-07)
(0 0.00013737268 -2.236428e-07)
(0 0.00012280332 -1.9710203e-07)
(0 0.0001060772 -1.1885411e-07)
(0 8.7617343e-05 -1.9011161e-08)
(0 6.7723037e-05 8.5073101e-08)
(0 4.6444908e-05 1.5819213e-07)
(0 2.4185882e-05 1.8819046e-07)
(0 1.6002061e-06 1.7911876e-07)
(0 -2.0792107e-05 1.6713706e-07)
(0 -4.2566535e-05 1.2500509e-07)
(0 -6.3429083e-05 4.8888943e-08)
(0 -8.324918e-05 -5.2632695e-09)
(0 -0.00010193951 -7.1880932e-09)
(0 0 0)
(0 4.7762243e-05 -1.5564749e-05)
(0 7.9646599e-05 -2.1950377e-05)
(0 9.9649694e-05 -2.2546297e-05)
(0 0.00011244852 -2.0026948e-05)
(0 0.00012093071 -1.5949374e-05)
(0 0.00012629371 -1.1106052e-05)
(0 0.00012893729 -5.891903e-06)
(0 0.00012911307 -4.7863591e-07)
(0 0.0001267686 4.9870416e-06)
(0 0.00012195186 1.0290364e-05)
(0 0.00011484514 1.5304285e-05)
(0 0.00010562309 2.004898e-05)
(0 9.4514258e-05 2.4536795e-05)
(0 8.1739734e-05 2.8678974e-05)
(0 6.7666444e-05 3.2373548e-05)
(0 5.2472693e-05 3.555085e-05)
(0 3.6094678e-05 3.8142289e-05)
(0 1.8948253e-05 4.0088435e-05)
(0 1.6136275e-06 4.135646e-05)
(0 -1.5498443e-05 4.1959599e-05)
(0 -3.2045514e-05 4.1881011e-05)
(0 -4.7918323e-05 4.1037115e-05)
(0 -6.3037062e-05 3.9447229e-05)
(0 -7.7317842e-05 3.7216308e-05)
(0 0 0)
(0 3.0801385e-05 -3.0700369e-05)
(0 5.1830783e-05 -4.3480225e-05)
(0 6.5388428e-05 -4.4711756e-05)
(0 7.427291e-05 -3.9687623e-05)
(0 8.0349147e-05 -3.1504322e-05)
(0 8.4350833e-05 -2.177374e-05)
(0 8.6508244e-05 -1.1325169e-05)
(0 8.7006554e-05 -5.3552771e-07)
(0 8.5761621e-05 1.0314243e-05)
(0 8.2750933e-05 2.0895296e-05)
(0 7.8091199e-05 3.1002252e-05)
(0 7.1922724e-05 4.0589305e-05)
(0 6.4458444e-05 4.9591158e-05)
(0 5.5879721e-05 5.7849285e-05)
(0 4.6460851e-05 6.5190473e-05)
(0 3.6246321e-05 7.148712e-05)
(0 2.5073803e-05 7.6637305e-05)
(0 1.3365923e-05 8.0538337e-05)
(0 1.6287098e-06 8.3119786e-05)
(0 -9.8603672e-06 8.4358368e-05)
(0 -2.0868935e-05 8.4199619e-05)
(0 -3.1469314e-05 8.254236e-05)
(0 -4.1625591e-05 7.9406788e-05)
(0 -5.1223661e-05 7.491991e-05)
(0 0 0)
(0 1.3877486e-05 -4.5851377e-05)
(0 2.3692798e-05 -6.4739948e-05)
(0 3.0478237e-05 -6.6476484e-05)
(0 3.5186506e-05 -5.8938799e-05)
(0 3.8617885e-05 -4.6726241e-05)
(0 4.1072796e-05 -3.2204781e-05)
(0 4.263509e-05 -1.6603973e-05)
(0 4.3332744e-05 -5.083712e-07)
(0 4.3049695e-05 1.5668382e-05)
(0 4.1792476e-05 3.1488326e-05)
(0 3.9581703e-05 4.666105e-05)
(0 3.6499022e-05 6.1064823e-05)
(0 3.2761415e-05 7.4557622e-05)
(0 2.8507586e-05 8.6907469e-05)
(0 2.3889643e-05 9.7873744e-05)
(0 1.881841e-05 0.00010726485)
(0 1.3035364e-05 0.00011493428)
(0 6.9740751e-06 0.00012073688)
(0 1.0825427e-06 0.00012457103)
(0 -4.5258726e-06 0.00012638036)
(0 -9.7544076e-06 0.00012605423)
(0 -1.4853266e-05 0.00012350609)
(0 -1.9833226e-05 0.00011875919)
(0 -2.4579831e-05 0.00011190073)
(0 0 0)
(0 -2.7402266e-06 -6.152752e-05)
(0 -3.8508918e-06 -8.5819524e-05)
(0 -3.7935366e-06 -8.7639028e-05)
(0 -3.3386205e-06 -7.7468342e-05)
(0 -2.6859002e-06 -6.1311614e-05)
(0 -1.9293409e-06 -4.2170079e-05)
(0 -1.1184033e-06 -2.1606676e-05)
(0 -3.9675674e-07 -3.9190916e-07)
(0 1.0484594e-07 2.0947249e-05)
(0 4.2433898e-07 4.1871052e-05)
(0 5.0600586e-07 6.1988526e-05)
(0 3.8576266e-07 8.1083973e-05)
(0 2.9034791e-07 9.894073e-05)
(0 2.8206626e-07 0.00011525956)
(0 3.9902025e-07 0.00012973274)
(0 4.4170547e-07 0.0001421134)
(0 3.300466e-08 0.00015219028)
(0 -3.821554e-07 0.0001597612)
(0 -4.076847e-07 0.00016470516)
(0 -1.1959451e-07 0.00016693129)
(0 4.6187252e-07 0.00016631705)
(0 9.0136649e-07 0.00016279255)
(0 1.1270664e-06 0.00015635799)
(0 1.2365507e-06 0.00014708166)
(0 0 0)
(0 -1.872822e-05 -7.8378959e-05)
(0 -2.9801697e-05 -0.00010683602)
(0 -3.5948524e-05 -0.00010805541)
(0 -3.9520068e-05 -9.5076205e-05)
(0 -4.1567381e-05 -7.5053993e-05)
(0 -4.2553893e-05 -5.1510375e-05)
(0 -4.2671593e-05 -2.6249993e-05)
(0 -4.2142456e-05 -1.8327838e-07)
(0 -4.1083096e-05 2.6055469e-05)
(0 -3.9460572e-05 5.1842296e-05)
(0 -3.7368601e-05 7.6697879e-05)
(0 -3.4795469e-05 0.00010029944)
(0 -3.1540629e-05 0.00012234359)
(0 -2.7634708e-05 0.00014246321)
(0 -2.3140244e-05 0.00016028245)
(0 -1.8304631e-05 0.000175504)
(0 -1.3583776e-05 0.0001878533)
(0 -8.5926726e-06 0.00019706906)
(0 -3.0313922e-06 0.00020300085)
(0 2.8634157e-06 0.00020552269)
(0 8.982699e-06 0.00020452047)
(0 1.4775073e-05 0.00019994266)
(0 2.0073459e-05 0.00019178925)
(0 2.4944641e-05 0.00018016165)
(0 0 0)
(0 -3.7275558e-05 -0.00010894549)
(0 -5.7614305e-05 -0.00014105126)
(0 -6.9391962e-05 -0.00013976908)
(0 -7.6651492e-05 -0.00012183259)
(0 -8.121751e-05 -9.5762146e-05)
(0 -8.3852292e-05 -6.5598306e-05)
(0 -8.4857661e-05 -3.3376462e-05)
(0 -8.4438787e-05 -1.84204e-07)
(0 -8.2693673e-05 3.3191527e-05)
(0 -7.9623642e-05 6.6027999e-05)
(0 -7.53189e-05 9.7737585e-05)
(0 -6.9833206e-05 0.0001278408)
(0 -6.3088837e-05 0.00015588809)
(0 -5.5201779e-05 0.00018140826)
(0 -4.6339831e-05 0.00020393914)
(0 -3.6692622e-05 0.00022310603)
(0 -2.6693178e-05 0.00023857191)
(0 -1.6197021e-05 0.00025001806)
(0 -5.0649053e-06 0.00025723411)
(0 6.3783496e-06 0.00026006648)
(0 1.7954131e-05 0.00025841617)
(0 2.9129397e-05 0.00025225809)
(0 3.9580522e-05 0.00024163473)
(0 4.9274182e-05 0.00022670753)
(0 0 0)
(0 9.1530594e-05 5.3528603e-05)
(0 0.00014413832 7.0053704e-05)
(0 0.00017560511 6.9632865e-05)
(0 0.00019544732 6.0750622e-05)
(0 0.00020843136 4.7726798e-05)
(0 0.00021639752 3.2629979e-05)
(0 0.00021990312 1.6486448e-05)
(0 0.00021936532 -8.7689928e-08)
(0 0.00021490619 -1.6705249e-05)
(0 0.00020659983 -3.3093168e-05)
(0 0.00019458458 -4.8990505e-05)
(0 0.00017912926 -6.4091822e-05)
(0 0.00016055093 -7.8082839e-05)
(0 0.00013921731 -9.0748761e-05)
(0 0.00011555712 -0.0001019104)
(0 8.9942233e-05 -0.00011139205)
(0 6.2694741e-05 -0.00011904302)
(0 3.4254394e-05 -0.0001247376)
(0 5.2278644e-06 -0.00012837827)
(0 -2.3810906e-05 -0.00012987102)
(0 -5.239176e-05 -0.00012916232)
(0 -8.0108086e-05 -0.0001262104)
(0 -0.00010652149 -0.00012102246)
(0 -0.00013119697 -0.00011365452)
(0 0 0)
(0 6.4690287e-05 3.115484e-05)
(0 0.00010578459 4.2777439e-05)
(0 0.00013106057 4.3280409e-05)
(0 0.00014703793 3.8018169e-05)
(0 0.00015751521 2.9933738e-05)
(0 0.00016401545 2.0468248e-05)
(0 0.00016698501 1.0326252e-05)
(0 0.00016677835 -6.3491304e-08)
(0 0.00016343424 -1.0450844e-05)
(0 0.0001570441 -2.0712441e-05)
(0 0.00014773955 -3.0715134e-05)
(0 0.00013573487 -4.0226956e-05)
(0 0.00012133012 -4.9012946e-05)
(0 0.00010485591 -5.6963901e-05)
(0 8.6723827e-05 -6.3991479e-05)
(0 6.7168744e-05 -6.9995722e-05)
(0 4.6272696e-05 -7.4898363e-05)
(0 2.4418296e-05 -7.861925e-05)
(0 2.2093269e-06 -8.1090415e-05)
(0 -1.9860395e-05 -8.2245729e-05)
(0 -4.1425049e-05 -8.2050867e-05)
(0 -6.2230531e-05 -8.0423082e-05)
(0 -8.2069761e-05 -7.73332e-05)
(0 -0.00010072182 -7.2811573e-05)
(0 0 0)
(0 4.7581769e-05 1.5254398e-05)
(0 7.9430117e-05 2.1380932e-05)
(0 9.9537617e-05 2.1773069e-05)
(0 0.00011243066 1.9143336e-05)
(0 0.00012097122 1.5025395e-05)
(0 0.00012634603 1.0181682e-05)
(0 0.00012894097 5.0163948e-06)
(0 0.00012904652 -2.3474499e-07)
(0 0.00012661365 -5.4472359e-06)
(0 0.00012170172 -1.0615217e-05)
(0 0.00011446284 -1.5700407e-05)
(0 0.00010506843 -2.0530315e-05)
(0 9.3805368e-05 -2.4954639e-05)
(0 8.0946117e-05 -2.8941934e-05)
(0 6.6883972e-05 -3.2470322e-05)
(0 5.1740777e-05 -3.5490375e-05)
(0 3.5448937e-05 -3.7965564e-05)
(0 1.8410467e-05 -3.9869313e-05)
(0 1.1912133e-06 -4.1166202e-05)
(0 -1.5797008e-05 -4.1797639e-05)
(0 -3.2262315e-05 -4.1785821e-05)
(0 -4.8112202e-05 -4.1068907e-05)
(0 -6.3249247e-05 -3.9576251e-05)
(0 -7.7554312e-05 -3.733774e-05)
(0 0 0)
(0 3.0667566e-05 -1.7369371e-07)
(0 5.2076563e-05 -3.1552924e-07)
(0 6.6058608e-05 -4.2073707e-07)
(0 7.5238532e-05 -4.678492e-07)
(0 8.1452284e-05 -4.8526979e-07)
(0 8.547199e-05 -4.9069296e-07)
(0 8.7560173e-05 -4.6117122e-07)
(0 8.7957195e-05 -3.6997395e-07)
(0 8.6559921e-05 -2.3164515e-07)
(0 8.3320492e-05 -1.5541717e-07)
(0 7.8371239e-05 -1.8343063e-07)
(0 7.1872549e-05 -2.0310215e-07)
(0 6.4091881e-05 -1.4872168e-07)
(0 5.5253799e-05 -6.529928e-08)
(0 4.5693564e-05 4.74567e-09)
(0 3.5393253e-05 6.2405937e-08)
(0 2.4155549e-05 1.0907098e-07)
(0 1.2394943e-05 1.2197008e-07)
(0 6.1008462e-07 9.736731e-08)
(0 -1.0888776e-05 9.7822637e-08)
(0 -2.1897227e-05 7.9940407e-08)
(0 -3.2525901e-05 3.4444398e-09)
(0 -4.2750779e-05 -6.1647531e-08)
(0 -5.2470943e-05 -7.5894823e-08)
(0 0 0)
(0 1.3604406e-05 -1.5400076e-05)
(0 2.379972e-05 -2.2110828e-05)
(0 3.1043717e-05 -2.2892473e-05)
(0 3.6075826e-05 -2.0403009e-05)
(0 3.9688443e-05 -1.6252184e-05)
(0 4.2204458e-05 -1.129782e-05)
(0 4.3721936e-05 -5.9725564e-06)
(0 4.4353958e-05 -4.4814434e-07)
(0 4.3974678e-05 5.1268342e-06)
(0 4.2514544e-05 1.052302e-05)
(0 4.0002539e-05 1.5620691e-05)
(0 3.6577978e-05 2.0472098e-05)
(0 3.2513307e-05 2.5068407e-05)
(0 2.8000263e-05 2.9291763e-05)
(0 2.3265894e-05 3.3036092e-05)
(0 1.8134853e-05 3.6246409e-05)
(0 1.2298268e-05 3.8880057e-05)
(0 6.1840089e-06 4.0874143e-05)
(0 2.2511174e-07 4.2190552e-05)
(0 -5.4049206e-06 4.2852285e-05)
(0 -1.0629143e-05 4.2813791e-05)
(0 -1.5755178e-05 4.1985077e-05)
(0 -2.0800391e-05 4.0398845e-05)
(0 -2.565431e-05 3.8175851e-05)
(0 0 0)
(0 -3.5246843e-06 -3.0488687e-05)
(0 -4.7699708e-06 -4.3588738e-05)
(0 -4.5167831e-06 -4.5001715e-05)
(0 -3.8598535e-06 -4.0003205e-05)
(0 -3.0507747e-06 -3.1747886e-05)
(0 -2.1936982e-06 -2.1907603e-05)
(0 -1.3241603e-06 -1.1347094e-05)
(0 -5.3430221e-07 -4.4479041e-07)
(0 1.1610878e-08 1.0521931e-05)
(0 3.0740319e-07 2.1205279e-05)
(0 2.6217355e-07 3.1393682e-05)
(0 -4.3034908e-08 4.1077835e-05)
(0 -2.9892158e-07 5.0181409e-05)
(0 -3.6495243e-07 5.8515909e-05)
(0 -1.3730769e-07 6.5916129e-05)
(0 5.0047751e-08 7.2257345e-05)
(0 -2.4479387e-07 7.7448158e-05)
(0 -5.5314325e-07 8.1392747e-05)
(0 -4.8135409e-07 8.4025746e-05)
(0 -3.8520095e-08 8.5315873e-05)
(0 7.159289e-07 8.5181677e-05)
(0 1.2565822e-06 8.3539731e-05)
(0 1.5304875e-06 8.0406228e-05)
(0 1.6537775e-06 7.590019e-05)
(0 0 0)
(0 -2.0271561e-05 -4.5827238e-05)
(0 -3.2473796e-05 -6.4685273e-05)
(0 -3.8943336e-05 -6.6393207e-05)
(0 -4.2508063e-05 -5.8829223e-05)
(0 -4.4446743e-05 -4.6601389e-05)
(0 -4.5260716e-05 -3.207511e-05)
(0 -4.5118821e-05 -1.6467899e-05)
(0 -4.4276022e-05 -3.632573e-07)
(0 -4.2924632e-05 1.5832988e-05)
(0 -4.1038441e-05 3.1669567e-05)
(0 -3.8779345e-05 4.6838444e-05)
(0 -3.6109335e-05 6.1244026e-05)
(0 -3.2698356e-05 7.4740557e-05)
(0 -2.8492264e-05 8.7076898e-05)
(0 -2.3499112e-05 9.8021536e-05)
(0 -1.818625e-05 0.00010738173)
(0 -1.3135839e-05 0.00011501619)
(0 -7.8152987e-06 0.00012078446)
(0 -1.875249e-06 0.00012459701)
(0 4.4661065e-06 0.00012638849)
(0 1.1042024e-05 0.00012605038)
(0 1.7126141e-05 0.00012349781)
(0 2.2600329e-05 0.00011873307)
(0 2.7593409e-05 0.00011184572)
(0 0 0)
(0 -3.6320238e-05 -6.2092274e-05)
(0 -5.8281605e-05 -8.5607471e-05)
(0 -7.0714789e-05 -8.69967e-05)
(0 -7.8066873e-05 -7.6722928e-05)
(0 -8.2510331e-05 -6.0637266e-05)
(0 -8.4913039e-05 -4.1658034e-05)
(0 -8.558502e-05 -2.1271526e-05)
(0 -8.4826988e-05 -2.2634308e-07)
(0 -8.2837773e-05 2.0950606e-05)
(0 -7.9612441e-05 4.1725036e-05)
(0 -7.5310729e-05 6.1708651e-05)
(0 -6.9924734e-05 8.0686578e-05)
(0 -6.3184835e-05 9.8427941e-05)
(0 -5.5131179e-05 0.00011462573)
(0 -4.5886249e-05 0.00012897509)
(0 -3.5935296e-05 0.00014123166)
(0 -2.5915014e-05 0.00015119449)
(0 -1.5353693e-05 0.0001586597)
(0 -3.9918523e-06 0.00016351381)
(0 7.7849919e-06 0.00016566179)
(0 1.9742036e-05 0.00016498982)
(0 3.1079569e-05 0.00016142958)
(0 4.1534961e-05 0.00015497309)
(0 5.1192384e-05 0.00014571908)
(0 0 0)
(0 -5.7337006e-05 -8.9870405e-05)
(0 -8.9435023e-05 -0.00011787659)
(0 -0.00010793604 -0.00011744318)
(0 -0.00011925186 -0.00010263981)
(0 -0.00012638165 -8.0776205e-05)
(0 -0.00013051972 -5.5362341e-05)
(0 -0.00013209998 -2.816628e-05)
(0 -0.00013140122 -1.3571301e-07)
(0 -0.00012859973 2.8044414e-05)
(0 -0.0001237308 5.5744916e-05)
(0 -0.00011692535 8.2471866e-05)
(0 -0.00010826293 0.00010783688)
(0 -9.7640887e-05 0.00013146966)
(0 -8.5196336e-05 0.00015297527)
(0 -7.1184593e-05 0.00017196165)
(0 -5.5969081e-05 0.00018811573)
(0 -4.0125555e-05 0.00020116602)
(0 -2.352073e-05 0.00021084003)
(0 -6.0768178e-06 0.00021696574)
(0 1.1754898e-05 0.00021942094)
(0 2.9677966e-05 0.00021810853)
(0 4.6970366e-05 0.00021299414)
(0 6.3154732e-05 0.00020410082)
(0 7.8142054e-05 0.00019157273)
(0 0 0)
(0 7.2625481e-05 7.1485805e-05)
(0 0.00011465536 9.4032847e-05)
(0 0.0001400917 9.3727837e-05)
(0 0.00015625952 8.188308e-05)
(0 0.00016692446 6.4362984e-05)
(0 0.00017354058 4.401123e-05)
(0 0.0001765328 2.2251362e-05)
(0 0.00017626652 -1.1465342e-07)
(0 0.00017286013 -2.2565755e-05)
(0 0.00016634301 -4.4688109e-05)
(0 0.00015677907 -6.6124301e-05)
(0 0.00014440764 -8.6472738e-05)
(0 0.00012953686 -0.00010534827)
(0 0.00011247859 -0.00012247817)
(0 9.358217e-05 -0.00013760559)
(0 7.3082715e-05 -0.00015048348)
(0 5.123182e-05 -0.00016089538)
(0 2.8426851e-05 -0.00016864657)
(0 5.1644715e-06 -0.00017359529)
(0 -1.8106304e-05 -0.00017563479)
(0 -4.1035952e-05 -0.00017467459)