/*--------------------------------*- C++ -*----------------------------------*\
| =========                 |                                                 |
| \\      /  F ield         | OpenFOAM: The Open Source CFD Toolbox           |
|  \\    /   O peration     | Version:  4.1                                   |
|   \\  /    A nd           | Web:      www.OpenFOAM.org                      |
|    \\/     M anipulation  |                                                 |
\*---------------------------------------------------------------------------*/
FoamFile
{
    version     2.0;
    format      ascii;
    class       pointVectorField;
    location    "0.0065";
    object      pointDisplacement_Next;
}
// * * * * * * * * * * * * * * * * * * * * * * * * * * * * * * * * * * * * * //

dimensions      [0 1 0 0 0 0 0];

internalField   uniform (0 0 0);

boundaryField
{
    inlet
    {
        type            fixedValue;
        value           nonuniform 0();
    }
    outlet
    {
        type            fixedValue;
        value           nonuniform 0();
    }
    mantle
    {
        type            fixedValue;
        value           nonuniform List<vector> 
416
(
(1.4893e-05 8.7633e-06 5.9371e-10)
(1.507e-05 -8.6781e-08 6.5133e-10)
(1.5106e-05 -1.0882e-07 -3.0754e-08)
(1.4934e-05 8.582e-06 -1.7783e-06)
(1.5153e-05 -2.166e-07 6.2213e-08)
(1.4976e-05 7.9598e-06 -3.3473e-06)
(1.5152e-05 -4.1095e-07 3.0395e-07)
(1.4949e-05 6.8956e-06 -4.5773e-06)
(1.5136e-05 -4.8116e-07 4.8042e-07)
(1.4915e-05 5.6882e-06 -5.6887e-06)
(1.5152e-05 -3.0422e-07 4.0976e-07)
(1.4949e-05 4.5772e-06 -6.8968e-06)
(1.5153e-05 -6.2374e-08 2.1496e-07)
(1.4976e-05 3.3474e-06 -7.9616e-06)
(1.5105e-05 3.0489e-08 1.0707e-07)
(1.4933e-05 1.7782e-06 -8.5838e-06)
(1.5069e-05 -1.0362e-09 8.531e-08)
(1.4893e-05 -8.4279e-10 -8.7648e-06)
(1.5088e-05 -1.0717e-05 5.3106e-10)
(1.5122e-05 -1.0531e-05 2.0681e-06)
(1.5173e-05 -1e-05 4.1456e-06)
(1.5185e-05 -9.1504e-06 6.1501e-06)
(1.518e-05 -7.8757e-06 7.8751e-06)
(1.5185e-05 -6.1505e-06 9.1493e-06)
(1.5172e-05 -4.1459e-06 9.9987e-06)
(1.5121e-05 -2.0685e-06 1.053e-05)
(1.5087e-05 -9.8947e-10 1.0715e-05)
(1.4765e-05 -2.2407e-05 1.4214e-10)
(1.4812e-05 -2.1963e-05 4.344e-06)
(1.4875e-05 -2.0712e-05 8.5841e-06)
(1.487e-05 -1.8735e-05 1.2557e-05)
(1.4848e-05 -1.6011e-05 1.601e-05)
(1.4869e-05 -1.2557e-05 1.8734e-05)
(1.4874e-05 -8.5845e-06 2.0711e-05)
(1.4811e-05 -4.3445e-06 2.1962e-05)
(1.4764e-05 -6.0697e-10 2.2406e-05)
(1.3934e-05 -3.4413e-05 4.7537e-10)
(1.3995e-05 -3.3691e-05 6.6621e-06)
(1.4071e-05 -3.1691e-05 1.3121e-05)
(1.4045e-05 -2.8575e-05 1.9132e-05)
(1.4003e-05 -2.4378e-05 2.4378e-05)
(1.4044e-05 -1.9132e-05 2.8574e-05)
(1.407e-05 -1.3122e-05 3.169e-05)
(1.3994e-05 -6.6625e-06 3.3691e-05)
(1.3933e-05 -8.9408e-10 3.4412e-05)
(1.2479e-05 -4.6201e-05 1.0868e-09)
(1.2517e-05 -4.5265e-05 8.9751e-06)
(1.257e-05 -4.2568e-05 1.7622e-05)
(1.257e-05 -3.8309e-05 2.5615e-05)
(1.2555e-05 -3.2607e-05 3.2607e-05)
(1.257e-05 -2.5616e-05 3.8309e-05)
(1.2569e-05 -1.7622e-05 4.2568e-05)
(1.2516e-05 -8.9754e-06 4.5265e-05)
(1.2478e-05 -1.4194e-09 4.6201e-05)
(1.0296e-05 -5.7731e-05 3.4755e-10)
(1.0315e-05 -5.6566e-05 1.1235e-05)
(1.0356e-05 -5.3178e-05 2.2025e-05)
(1.0371e-05 -4.7815e-05 3.1966e-05)
(1.0382e-05 -4.0663e-05 4.0663e-05)
(1.0371e-05 -3.1966e-05 4.7815e-05)
(1.0355e-05 -2.2025e-05 5.3178e-05)
(1.0314e-05 -1.1235e-05 5.6566e-05)
(1.0296e-05 -5.9276e-10 5.7731e-05)
(7.4178e-06 -6.9068e-05 5.9664e-10)
(7.4579e-06 -6.7661e-05 1.3451e-05)
(7.5128e-06 -6.3586e-05 2.636e-05)
(7.5113e-06 -5.7134e-05 3.8213e-05)
(7.4938e-06 -4.8584e-05 4.8583e-05)
(7.5112e-06 -3.8213e-05 5.7135e-05)
(7.5126e-06 -2.636e-05 6.3586e-05)
(7.4577e-06 -1.3451e-05 6.7661e-05)
(7.4176e-06 -7.678e-10 6.9068e-05)
(4.1293e-06 -8.0083e-05 1.4449e-10)
(4.1928e-06 -7.8432e-05 1.5585e-05)
(4.2651e-06 -7.3659e-05 3.0543e-05)
(4.2375e-06 -6.6178e-05 4.4275e-05)
(4.1921e-06 -5.6274e-05 5.6274e-05)
(4.2376e-06 -4.4274e-05 6.6178e-05)
(4.2652e-06 -3.0543e-05 7.3658e-05)
(4.1929e-06 -1.5585e-05 7.8431e-05)
(4.1293e-06 -2.4447e-10 8.0083e-05)
(7.4215e-07 -9.0248e-05 -1.4413e-10)
(7.9064e-07 -8.8333e-05 1.7512e-05)
(8.471e-07 -8.2909e-05 3.4344e-05)
(8.3053e-07 -7.4496e-05 4.984e-05)
(7.9917e-07 -6.3386e-05 6.3387e-05)
(8.3065e-07 -4.984e-05 7.4495e-05)
(8.4731e-07 -3.4344e-05 8.2909e-05)
(7.9088e-07 -1.7512e-05 8.8333e-05)
(7.4235e-07 1.0798e-10 9.0247e-05)
(-2.6653e-06 -9.8356e-05 -5.0688e-11)
(-2.6349e-06 -9.6207e-05 1.9048e-05)
(-2.5942e-06 -9.0262e-05 3.7375e-05)
(-2.6053e-06 -8.1106e-05 5.4268e-05)
(-2.6191e-06 -6.9052e-05 6.9052e-05)
(-2.6051e-06 -5.4267e-05 8.1106e-05)
(-2.594e-06 -3.7374e-05 9.0261e-05)
(-2.6346e-06 -1.9047e-05 9.6206e-05)
(-2.6651e-06 7.1715e-11 9.8355e-05)
(-6.1163e-06 -0.00010323 -3.1411e-10)
(-6.1025e-06 -0.00010104 2.0044e-05)
(-6.0864e-06 -9.484e-05 3.9293e-05)
(-6.0932e-06 -8.5181e-05 5.6984e-05)
(-6.1026e-06 -7.2455e-05 7.2455e-05)
(-6.093e-06 -5.6984e-05 8.518e-05)
(-6.0861e-06 -3.9293e-05 9.4839e-05)
(-6.1023e-06 -2.0043e-05 0.00010104)
(-6.116e-06 3.5055e-10 0.00010323)
(-9.7404e-06 -0.000105 -2.7523e-10)
(-9.743e-06 -0.00010282 2.0441e-05)
(-9.7476e-06 -9.6564e-05 4.0042e-05)
(-9.762e-06 -8.6704e-05 5.7992e-05)
(-9.7678e-06 -7.3698e-05 7.3698e-05)
(-9.7619e-06 -5.7992e-05 8.6703e-05)
(-9.7474e-06 -4.0042e-05 9.6564e-05)
(-9.7428e-06 -2.0441e-05 0.00010282)
(-9.7402e-06 2.8642e-10 0.000105)
(1.5105e-05 -3.2284e-08 1.0761e-07)
(1.4933e-05 -1.7798e-06 -8.5833e-06)
(1.5153e-05 6.0792e-08 2.1582e-07)
(1.4976e-05 -3.3487e-06 -7.9607e-06)
(1.5152e-05 3.0283e-07 4.106e-07)
(1.4949e-05 -4.5784e-06 -6.896e-06)
(1.5136e-05 4.7984e-07 4.8102e-07)
(1.4916e-05 -5.6892e-06 -5.6882e-06)
(1.5152e-05 4.0948e-07 3.0426e-07)
(1.495e-05 -6.8968e-06 -4.5771e-06)
(1.5154e-05 2.1492e-07 6.2329e-08)
(1.4977e-05 -7.9613e-06 -3.3472e-06)
(1.5106e-05 1.0699e-07 -3.0721e-08)
(1.4934e-05 -8.5835e-06 -1.7783e-06)
(1.507e-05 8.5019e-08 6.1988e-10)
(1.4894e-05 -8.7647e-06 5.6777e-10)
(1.5121e-05 2.0666e-06 1.053e-05)
(1.5172e-05 4.1442e-06 9.9995e-06)
(1.5184e-05 6.149e-06 9.1502e-06)
(1.518e-05 7.8742e-06 7.8757e-06)
(1.5185e-05 9.1488e-06 6.1505e-06)
(1.5172e-05 9.9983e-06 4.1458e-06)
(1.5122e-05 1.0529e-05 2.0681e-06)
(1.5088e-05 1.0715e-05 5.0642e-10)
(1.481e-05 4.3426e-06 2.1963e-05)
(1.4874e-05 8.5828e-06 2.0712e-05)
(1.4869e-05 1.2556e-05 1.8735e-05)
(1.4848e-05 1.6009e-05 1.6011e-05)
(1.487e-05 1.8734e-05 1.2557e-05)
(1.4875e-05 2.071e-05 8.5843e-06)
(1.4811e-05 2.1961e-05 4.3441e-06)
(1.4765e-05 2.2405e-05 1.4469e-10)
(1.3994e-05 6.6608e-06 3.3691e-05)
(1.407e-05 1.312e-05 3.1691e-05)
(1.4044e-05 1.9131e-05 2.8575e-05)
(1.4003e-05 2.4377e-05 2.4378e-05)
(1.4044e-05 2.8573e-05 1.9133e-05)
(1.407e-05 3.1689e-05 1.3121e-05)
(1.3994e-05 3.369e-05 6.6622e-06)
(1.3934e-05 3.4411e-05 5.3147e-10)
(1.2516e-05 8.9739e-06 4.5265e-05)
(1.2569e-05 1.7621e-05 4.2569e-05)
(1.2569e-05 2.5614e-05 3.831e-05)
(1.2554e-05 3.2605e-05 3.2608e-05)
(1.257e-05 3.8308e-05 2.5616e-05)
(1.2569e-05 4.2567e-05 1.7622e-05)
(1.2516e-05 4.5263e-05 8.9753e-06)
(1.2479e-05 4.6199e-05 1.2255e-09)
(1.0314e-05 1.1234e-05 5.6566e-05)
(1.0355e-05 2.2024e-05 5.3179e-05)
(1.0371e-05 3.1965e-05 4.7816e-05)
(1.0381e-05 4.0662e-05 4.0663e-05)
(1.0371e-05 4.7814e-05 3.1966e-05)
(1.0355e-05 5.3177e-05 2.2025e-05)
(1.0314e-05 5.6564e-05 1.1235e-05)
(1.0296e-05 5.7729e-05 5.54e-10)
(7.4576e-06 1.345e-05 6.7662e-05)
(7.5124e-06 2.6359e-05 6.3587e-05)
(7.5109e-06 3.8212e-05 5.7135e-05)
(7.4935e-06 4.8583e-05 4.8584e-05)
(7.5109e-06 5.7133e-05 3.8213e-05)
(7.5123e-06 6.3585e-05 2.636e-05)
(7.4573e-06 6.766e-05 1.3451e-05)
(7.4173e-06 6.9066e-05 8.3211e-10)
(4.1928e-06 1.5585e-05 7.8432e-05)
(4.265e-06 3.0543e-05 7.3658e-05)
(4.2373e-06 4.4274e-05 6.6178e-05)
(4.1918e-06 5.6273e-05 5.6274e-05)
(4.2371e-06 6.6178e-05 4.4275e-05)
(4.2646e-06 7.3657e-05 3.0543e-05)
(4.1923e-06 7.843e-05 1.5585e-05)
(4.1287e-06 8.0081e-05 3.7492e-10)
(7.9078e-07 1.7512e-05 8.8333e-05)
(8.4711e-07 3.4343e-05 8.2909e-05)
(8.3037e-07 4.984e-05 7.4495e-05)
(7.9882e-07 6.3386e-05 6.3386e-05)
(8.3012e-07 7.4495e-05 4.984e-05)
(8.4663e-07 8.2908e-05 3.4344e-05)
(7.9009e-07 8.8332e-05 1.7512e-05)
(7.4154e-07 9.0247e-05 2.7115e-11)
(-2.6346e-06 1.9048e-05 9.6206e-05)
(-2.5942e-06 3.7374e-05 9.0261e-05)
(-2.6054e-06 5.4267e-05 8.1106e-05)
(-2.6195e-06 6.9051e-05 6.9051e-05)
(-2.6056e-06 8.1106e-05 5.4267e-05)
(-2.5947e-06 9.0261e-05 3.7374e-05)
(-2.6353e-06 9.6207e-05 1.9047e-05)
(-2.6659e-06 9.8356e-05 5.92e-11)
(-6.1023e-06 2.0044e-05 0.00010104)
(-6.0862e-06 3.9293e-05 9.4839e-05)
(-6.0932e-06 5.6984e-05 8.518e-05)
(-6.1029e-06 7.2455e-05 7.2454e-05)
(-6.0935e-06 8.5181e-05 5.6983e-05)
(-6.0867e-06 9.4839e-05 3.9293e-05)
(-6.1029e-06 0.00010104 2.0044e-05)
(-6.1167e-06 0.00010323 5.2318e-11)
(-9.7429e-06 2.0441e-05 0.00010282)
(-9.7474e-06 4.0043e-05 9.6564e-05)
(-9.762e-06 5.7993e-05 8.6703e-05)
(-9.7679e-06 7.3698e-05 7.3697e-05)
(-9.7622e-06 8.6704e-05 5.7992e-05)
(-9.7478e-06 9.6564e-05 4.0042e-05)
(-9.7432e-06 0.00010282 2.0441e-05)
(-9.7407e-06 0.000105 -2.6038e-10)
(1.5106e-05 1.0709e-07 3.1737e-08)
(1.4934e-05 -8.5835e-06 1.7794e-06)
(1.5154e-05 2.1513e-07 -6.1423e-08)
(1.4977e-05 -7.9612e-06 3.3483e-06)
(1.5153e-05 4.0984e-07 -3.0354e-07)
(1.495e-05 -6.8966e-06 4.5779e-06)
(1.5137e-05 4.8034e-07 -4.8057e-07)
(1.4916e-05 -5.6889e-06 5.6888e-06)
(1.5153e-05 3.0345e-07 -4.1051e-07)
(1.495e-05 -4.5779e-06 6.8962e-06)
(1.5154e-05 6.1397e-08 -2.1619e-07)
(1.4977e-05 -3.3481e-06 7.9604e-06)
(1.5106e-05 -3.1864e-08 -1.0847e-07)
(1.4934e-05 -1.7793e-06 8.5824e-06)
(1.507e-05 -7.7821e-10 -8.6467e-08)
(1.4893e-05 -7.4122e-10 8.7636e-06)
(1.5122e-05 1.053e-05 -2.0671e-06)
(1.5173e-05 9.9985e-06 -4.1449e-06)
(1.5185e-05 9.1492e-06 -6.1498e-06)
(1.5181e-05 7.8748e-06 -7.8753e-06)
(1.5185e-05 6.1496e-06 -9.1501e-06)
(1.5173e-05 4.1448e-06 -9.9998e-06)
(1.5122e-05 2.0669e-06 -1.0531e-05)
(1.5088e-05 -9.5371e-10 -1.0716e-05)
(1.4811e-05 2.1961e-05 -4.3431e-06)
(1.4875e-05 2.0711e-05 -8.5834e-06)
(1.487e-05 1.8734e-05 -1.2557e-05)
(1.4848e-05 1.6009e-05 -1.601e-05)
(1.487e-05 1.2556e-05 -1.8735e-05)
(1.4875e-05 8.5832e-06 -2.0712e-05)
(1.4811e-05 4.3429e-06 -2.1963e-05)
(1.4765e-05 -1.3418e-09 -2.2406e-05)
(1.3995e-05 3.369e-05 -6.6611e-06)
(1.4071e-05 3.1689e-05 -1.312e-05)
(1.4045e-05 2.8573e-05 -1.9132e-05)
(1.4003e-05 2.4377e-05 -2.4378e-05)
(1.4045e-05 1.9131e-05 -2.8575e-05)
(1.4071e-05 1.312e-05 -3.1691e-05)
(1.3995e-05 6.661e-06 -3.3692e-05)
(1.3934e-05 -9.5027e-10 -3.4413e-05)
(1.2516e-05 4.5263e-05 -8.9741e-06)
(1.257e-05 4.2567e-05 -1.7621e-05)
(1.257e-05 3.8308e-05 -2.5615e-05)
(1.2555e-05 3.2606e-05 -3.2606e-05)
(1.257e-05 2.5615e-05 -3.8309e-05)
(1.257e-05 1.7621e-05 -4.2569e-05)
(1.2517e-05 8.974e-06 -4.5265e-05)
(1.2479e-05 -1.5406e-09 -4.6201e-05)
(1.0314e-05 5.6564e-05 -1.1234e-05)
(1.0355e-05 5.3177e-05 -2.2024e-05)
(1.0371e-05 4.7814e-05 -3.1965e-05)
(1.0382e-05 4.0662e-05 -4.0662e-05)
(1.0371e-05 3.1965e-05 -4.7815e-05)
(1.0356e-05 2.2024e-05 -5.3179e-05)
(1.0314e-05 1.1234e-05 -5.6566e-05)
(1.0296e-05 -7.688e-10 -5.7732e-05)
(7.4574e-06 6.766e-05 -1.345e-05)
(7.5124e-06 6.3585e-05 -2.6359e-05)
(7.5111e-06 5.7133e-05 -3.8213e-05)
(7.4937e-06 4.8583e-05 -4.8583e-05)
(7.5112e-06 3.8212e-05 -5.7134e-05)
(7.5127e-06 2.6359e-05 -6.3586e-05)
(7.4578e-06 1.345e-05 -6.7662e-05)
(7.4178e-06 -2.7652e-10 -6.9068e-05)
(4.1923e-06 7.843e-05 -1.5585e-05)
(4.2647e-06 7.3657e-05 -3.0543e-05)
(4.2372e-06 6.6177e-05 -4.4274e-05)
(4.1919e-06 5.6273e-05 -5.6273e-05)
(4.2375e-06 4.4274e-05 -6.6178e-05)
(4.2652e-06 3.0543e-05 -7.3658e-05)
(4.1929e-06 1.5585e-05 -7.8431e-05)
(4.1295e-06 -4.4925e-10 -8.0083e-05)
(7.9008e-07 8.8332e-05 -1.7512e-05)
(8.466e-07 8.2908e-05 -3.4343e-05)
(8.301e-07 7.4495e-05 -4.984e-05)
(7.9881e-07 6.3386e-05 -6.3386e-05)
(8.3041e-07 4.984e-05 -7.4495e-05)
(8.4719e-07 3.4343e-05 -8.2908e-05)
(7.9087e-07 1.7512e-05 -8.8332e-05)
(7.4242e-07 -3.1601e-11 -9.0247e-05)
(-2.6354e-06 9.6207e-05 -1.9047e-05)
(-2.5948e-06 9.0261e-05 -3.7374e-05)
(-2.6058e-06 8.1106e-05 -5.4267e-05)
(-2.6196e-06 6.9051e-05 -6.9051e-05)
(-2.6055e-06 5.4267e-05 -8.1105e-05)
(-2.5942e-06 3.7374e-05 -9.026e-05)
(-2.6346e-06 1.9047e-05 -9.6206e-05)
(-2.6651e-06 -8.0684e-13 -9.8354e-05)
(-6.103e-06 0.00010104 -2.0044e-05)
(-6.0868e-06 9.4839e-05 -3.9293e-05)
(-6.0937e-06 8.518e-05 -5.6983e-05)
(-6.1031e-06 7.2455e-05 -7.2454e-05)
(-6.0934e-06 5.6983e-05 -8.518e-05)
(-6.0864e-06 3.9292e-05 -9.4838e-05)
(-6.1025e-06 2.0044e-05 -0.00010104)
(-6.1162e-06 3.2579e-10 -0.00010322)
(-9.7433e-06 0.00010282 -2.0441e-05)
(-9.7479e-06 9.6564e-05 -4.0042e-05)
(-9.7624e-06 8.6704e-05 -5.7992e-05)
(-9.7683e-06 7.3698e-05 -7.3697e-05)
(-9.7623e-06 5.7992e-05 -8.6703e-05)
(-9.7477e-06 4.0042e-05 -9.6563e-05)
(-9.7431e-06 2.0441e-05 -0.00010282)
(-9.7405e-06 3.1494e-10 -0.00010499)
(1.5106e-05 3.0157e-08 -1.0814e-07)
(1.4934e-05 1.7779e-06 8.5827e-06)
(1.5154e-05 -6.2971e-08 -2.1555e-07)
(1.4976e-05 3.3468e-06 7.961e-06)
(1.5152e-05 -3.0478e-07 -4.0966e-07)
(1.495e-05 4.5767e-06 6.897e-06)
(1.5136e-05 -4.8134e-07 -4.7978e-07)
(1.4916e-05 5.688e-06 5.6896e-06)
(1.5152e-05 -4.1083e-07 -3.0281e-07)
(1.495e-05 6.8959e-06 4.5786e-06)
(1.5153e-05 -2.1626e-07 -6.0972e-08)
(1.4976e-05 7.9604e-06 3.3487e-06)
(1.5106e-05 -1.0854e-07 3.1929e-08)
(1.4934e-05 8.5824e-06 1.7795e-06)
(1.5122e-05 -2.0688e-06 -1.0531e-05)
(1.5173e-05 -4.1465e-06 -9.9992e-06)
(1.5185e-05 -6.1511e-06 -9.1493e-06)
(1.5181e-05 -7.8761e-06 -7.8744e-06)
(1.5185e-05 -9.1505e-06 -6.1492e-06)
(1.5173e-05 -9.9999e-06 -4.1445e-06)
(1.5122e-05 -1.0531e-05 -2.067e-06)
(1.4811e-05 -4.3448e-06 -2.1963e-05)
(1.4875e-05 -8.585e-06 -2.0711e-05)
(1.487e-05 -1.2558e-05 -1.8734e-05)
(1.4848e-05 -1.6011e-05 -1.6009e-05)
(1.487e-05 -1.8735e-05 -1.2556e-05)
(1.4875e-05 -2.0712e-05 -8.5831e-06)
(1.4811e-05 -2.1963e-05 -4.343e-06)
(1.3995e-05 -6.6628e-06 -3.3691e-05)
(1.4071e-05 -1.3122e-05 -3.1691e-05)
(1.4045e-05 -1.9133e-05 -2.8574e-05)
(1.4003e-05 -2.4379e-05 -2.4377e-05)
(1.4045e-05 -2.8575e-05 -1.9132e-05)
(1.4071e-05 -3.1691e-05 -1.312e-05)
(1.3995e-05 -3.3692e-05 -6.6612e-06)
(1.2517e-05 -8.9758e-06 -4.5265e-05)
(1.257e-05 -1.7623e-05 -4.2569e-05)
(1.257e-05 -2.5616e-05 -3.8309e-05)
(1.2555e-05 -3.2607e-05 -3.2607e-05)
(1.257e-05 -3.831e-05 -2.5615e-05)
(1.257e-05 -4.2569e-05 -1.7622e-05)
(1.2517e-05 -4.5265e-05 -8.9743e-06)
(1.0314e-05 -1.1236e-05 -5.6566e-05)
(1.0355e-05 -2.2026e-05 -5.3179e-05)
(1.0371e-05 -3.1966e-05 -4.7816e-05)
(1.0382e-05 -4.0664e-05 -4.0663e-05)
(1.0371e-05 -4.7816e-05 -3.1965e-05)
(1.0356e-05 -5.3179e-05 -2.2024e-05)
(1.0315e-05 -5.6566e-05 -1.1235e-05)
(7.4578e-06 -1.3452e-05 -6.7662e-05)
(7.5127e-06 -2.6361e-05 -6.3587e-05)
(7.5113e-06 -3.8214e-05 -5.7135e-05)
(7.4939e-06 -4.8585e-05 -4.8584e-05)
(7.5113e-06 -5.7136e-05 -3.8213e-05)
(7.5128e-06 -6.3587e-05 -2.636e-05)
(7.4579e-06 -6.7662e-05 -1.3451e-05)
(4.193e-06 -1.5585e-05 -7.8432e-05)
(4.2652e-06 -3.0544e-05 -7.3659e-05)
(4.2376e-06 -4.4275e-05 -6.6179e-05)
(4.1922e-06 -5.6275e-05 -5.6275e-05)
(4.2376e-06 -6.618e-05 -4.4275e-05)
(4.2651e-06 -7.3659e-05 -3.0543e-05)
(4.1929e-06 -7.8432e-05 -1.5585e-05)
(7.909e-07 -1.7512e-05 -8.8333e-05)
(8.4729e-07 -3.4344e-05 -8.2909e-05)
(8.3062e-07 -4.9841e-05 -7.4496e-05)
(7.9915e-07 -6.3387e-05 -6.3387e-05)
(8.3056e-07 -7.4496e-05 -4.9841e-05)
(8.4715e-07 -8.291e-05 -3.4344e-05)
(7.9068e-07 -8.8334e-05 -1.7512e-05)
(-2.6346e-06 -1.9047e-05 -9.6206e-05)
(-2.5941e-06 -3.7374e-05 -9.0261e-05)
(-2.6052e-06 -5.4268e-05 -8.1106e-05)
(-2.6192e-06 -6.9052e-05 -6.9052e-05)
(-2.6053e-06 -8.1107e-05 -5.4268e-05)
(-2.5942e-06 -9.0262e-05 -3.7375e-05)
(-2.6348e-06 -9.6208e-05 -1.9048e-05)
(-6.1024e-06 -2.0043e-05 -0.00010104)
(-6.0863e-06 -3.9292e-05 -9.4839e-05)
(-6.0932e-06 -5.6983e-05 -8.518e-05)
(-6.1027e-06 -7.2455e-05 -7.2455e-05)
(-6.0932e-06 -8.5181e-05 -5.6984e-05)
(-6.0863e-06 -9.484e-05 -3.9293e-05)
(-6.1025e-06 -0.00010104 -2.0044e-05)
(-9.7432e-06 -2.044e-05 -0.00010282)
(-9.7477e-06 -4.0042e-05 -9.6563e-05)
(-9.7622e-06 -5.7992e-05 -8.6703e-05)
(-9.768e-06 -7.3697e-05 -7.3697e-05)
(-9.7621e-06 -8.6703e-05 -5.7992e-05)
(-9.7476e-06 -9.6564e-05 -4.0042e-05)
(-9.743e-06 -0.00010282 -2.0441e-05)
)
;
    }
    procBoundary1to0
    {
        type            processor;
    }
    procBoundary1to2
    {
        type            processor;
    }
}


// ************************************************************************* //
