# Wall shear stress
# Time         	patch          	min            	max            
3.20000000e-04	mantle	(-2.53973443e-01 -1.81916562e-02 -4.62600599e-02)	(-9.84910660e-02 1.82229380e-02 4.62497130e-02)
