/*--------------------------------*- C++ -*----------------------------------*\
| =========                 |                                                 |
| \\      /  F ield         | foam-extend: Open Source CFD                    |
|  \\    /   O peration     | Version:     4.1-20200408                       |
|   \\  /    A nd           | Web:         http://www.foam-extend.org         |
|    \\/     M anipulation  |                                                 |
\*---------------------------------------------------------------------------*/
FoamFile
{
    version     2.0;
    format      ascii;
    class       volScalarField;
    location    "0.0060000";
    object      ccz;
}
// * * * * * * * * * * * * * * * * * * * * * * * * * * * * * * * * * * * * * //

dimensions      [0 1 0 0 0 0 0];

internalField   nonuniform List<scalar> 
1952
(
1.11111e-12
8.33329e-13
-2.77776e-13
5.33333e-12
4.16667e-12
4.16685e-12
-3.09523e-12
-1.7857e-12
-4.76185e-13
-7.22222e-12
-1.89815e-11
-1.77777e-11
1.28784e-11
7.57443e-13
-1.21208e-11
2.5e-11
2.5e-11
-7.84853e-23
1.22222e-11
1.22222e-11
0
-1.27447e-11
-5.17018e-22
-3.60014e-22
1.31592e-11
1.27189e-11
-8.05189e-22
3.73016e-11
1.23015e-11
1.2625e-21
-1.30422e-11
-2.53631e-11
-1.26814e-11
-3.73333e-11
-3.73338e-11
-2.5e-11
-1.2346e-11
3.08686e-13
3.09716e-13
-1.73251e-22
1.23568e-11
1.23556e-11
-1.26338e-11
-1.2634e-11
-7.88303e-22
1.67115e-12
3.33782e-12
1.67115e-12
1.65238e-22
5.33316e-12
-3.09523e-12
-7.22222e-12
2.67539e-22
1.282e-11
1.22221e-11
-2.54911e-11
-1.18421e-11
2.50001e-11
-1.30435e-11
-2.46667e-11
-6.78027e-22
1.082e-21
-1.26349e-11
4.47947e-15
-1.38884e-12
2.83351e-12
-2.97619e-12
-6.01852e-12
1.28788e-11
2.5e-11
1.22222e-11
-1.27447e-11
-1.22807e-11
-4.18637e-22
-1.26811e-11
-1.23334e-11
-2.79099e-22
1.26437e-11
-2.68944e-13
4.47637e-15
-2.77864e-13
2.83317e-12
-2.97619e-12
-6.01852e-12
2.57576e-11
2.4359e-11
-9.21217e-22
-2.21681e-22
-1.98345e-22
4.18723e-22
-1.26808e-11
-1.23334e-11
-3.72235e-22
2.52874e-11
2.47312e-11
1.67114e-12
2.2223e-12
5.33333e-12
-3.09523e-12
-2.01852e-11
7.57695e-13
2.5e-11
1.22226e-11
-1.27455e-11
-1.22811e-11
2.39316e-22
-1.26812e-11
-1.23333e-11
1.26544e-11
3.76437e-11
2.4732e-11
3.3378e-12
1.11107e-12
5.33333e-12
-1.78571e-12
-3.19444e-11
-2.42432e-11
2.56419e-11
2.44444e-11
-2.54894e-11
-1.18408e-11
1.2302e-11
-1.26812e-11
-1.23334e-11
1.26543e-11
2.5e-11
1.23651e-11
1.67114e-12
-2.53496e-23
5.33334e-12
-1.78571e-12
-3.19451e-11
-2.42424e-11
1.28201e-11
1.22222e-11
-1.27451e-11
4.3863e-13
1.23016e-11
-1.26811e-11
-1.23333e-11
-2.79193e-22
-1.38626e-21
-1.53995e-21
4.4666e-15
1.11111e-12
5.33334e-12
-1.78571e-12
-1.89812e-11
7.57606e-13
2.50001e-11
1.22222e-11
-2.5865e-22
1.27189e-11
1.23016e-11
-1.26812e-11
-1.23338e-11
5.58375e-22
1.26433e-11
1.23656e-11
1.67113e-12
2.22222e-12
5.33334e-12
-4.76188e-13
-4.81481e-12
1.28788e-11
2.5e-11
1.22222e-11
-1.27452e-11
1.31579e-11
2.46032e-11
-2.53623e-11
-2.46666e-11
-9.30611e-22
1.26441e-11
1.23656e-11
3.3378e-12
2.22222e-12
5.33334e-12
-4.76189e-13
-4.81498e-12
-5.71109e-23
-6.28217e-22
-8.37593e-23
-1.27447e-11
1.3158e-11
2.46031e-11
-2.53623e-11
-2.46666e-11
1.26548e-11
2.5e-11
1.23656e-11
3.3378e-12
1.11111e-12
4e-12
-1.66667e-12
-4.81481e-12
2.56994e-22
1.28205e-11
1.22223e-11
-1.27452e-11
4.38509e-13
1.23016e-11
-1.26812e-11
-2.5e-11
3.07728e-13
2.5e-11
1.23655e-11
1.67113e-12
1.11111e-12
2.66659e-12
-2.85714e-12
-4.81464e-12
-1.71326e-22
2.5641e-11
2.44444e-11
-1.27446e-11
-1.22807e-11
-1.19667e-22
8.19442e-22
-1.26666e-11
-1.23456e-11
0
-8.1045e-23
1.67113e-12
2.22222e-12
4.00013e-12
-2.97619e-12
-6.01851e-12
-3.42646e-22
1.282e-11
1.22221e-11
-4.80396e-22
1.12415e-21
1.19664e-22
-1.26812e-11
-1.23333e-11
1.7682e-21
-1.73286e-22
-3.2421e-22
3.3378e-12
2.22222e-12
4e-12
-2.97619e-12
-6.01871e-12
1.28788e-11
2.50001e-11
1.22226e-11
3.69569e-23
3.96749e-22
-2.03405e-21
-1.26811e-11
-2.5e-11
3.08684e-13
1.23564e-11
-2.10753e-21
3.3378e-12
1.11111e-12
2.66667e-12
-2.85714e-12
-4.81464e-12
1.28783e-11
2.49999e-11
1.22222e-11
-4.06518e-22
1.27194e-11
1.23016e-11
-4.37004e-22
-1.26666e-11
1.2963e-11
2.47126e-11
-8.10491e-22
1.67112e-12
1.11116e-12
4.00001e-12
-1.66666e-12
-4.81481e-12
1.28789e-11
1.21795e-11
5.026e-22
2.95639e-22
1.27189e-11
2.5e-11
-3.62349e-13
-1.23338e-11
1.26543e-11
2.5e-11
1.23656e-11
1.67114e-12
8.33208e-13
4.16646e-12
-4.76189e-13
-1.77778e-11
7.57456e-13
1.21794e-11
-4.18823e-23
-1.27451e-11
4.38635e-13
2.5e-11
-1.30423e-11
-3.73329e-11
-1.23457e-11
1.26433e-11
1.23656e-11
3.3378e-12
8.33462e-13
4.16688e-12
-1.78572e-12
-1.89812e-11
-1.21208e-11
-5.79968e-22
7.95822e-22
-1.27447e-11
1.31592e-11
2.4604e-11
-1.26816e-11
-2.49999e-11
3.08731e-13
2.5e-11
1.23656e-11
3.3378e-12
1.11107e-12
5.33334e-12
-1.7857e-12
-6.01851e-12
1.14222e-22
-7.73184e-22
-9.21449e-22
2.21737e-22
2.54378e-11
2.46023e-11
2.73133e-22
-1.26671e-11
1.29629e-11
3.73566e-11
1.23656e-11
1.67113e-12
-1.3889e-12
4.16646e-12
-1.78572e-12
-1.89818e-11
-1.21217e-11
1.28206e-11
1.22218e-11
-2.2173e-22
1.27192e-11
1.23015e-11
1.80279e-21
-1.26666e-11
3.08677e-13
1.23563e-11
2.3507e-21
4.47108e-15
-2.77758e-13
4.16688e-12
-1.78533e-12
-1.89814e-11
-1.21211e-11
2.56419e-11
1.16678e-11
-2.50002e-11
-1.22803e-11
1.26981e-11
1.23189e-11
-5.02578e-22
1.76826e-21
-4.33232e-22
2.4317e-21
1.67115e-12
-2.77787e-13
4.16643e-12
-4.76578e-13
-4.81481e-12
2.35561e-22
1.28205e-11
-5.56543e-13
-2.5e-11
-1.22806e-11
1.26984e-11
1.23183e-11
-1.18384e-22
1.26544e-11
1.23563e-11
1.90933e-22
1.67113e-12
-1.38888e-12
4.16688e-12
-4.75851e-13
-4.81481e-12
2.32853e-22
2.46288e-22
-4.26931e-22
7.53397e-23
1.27193e-11
1.23012e-11
1.11354e-22
2.04909e-22
1.26543e-11
2.5e-11
1.23656e-11
4.47465e-15
-1.3889e-12
4.16666e-12
-1.78609e-12
-6.01852e-12
1.28785e-11
1.21791e-11
-6.72667e-22
-1.27451e-11
1.31579e-11
2.4604e-11
1.64518e-22
1.00892e-22
9.34145e-22
1.26437e-11
1.23656e-11
4.47593e-15
-2.77763e-13
4.16667e-12
-3.09482e-12
-2.01853e-11
1.36376e-11
3.71796e-11
1.22227e-11
-1.27454e-11
4.37794e-13
1.23011e-11
-7.11673e-22
-1.26667e-11
3.08672e-13
2.50001e-11
1.23657e-11
1.67118e-12
1.11111e-12
5.33334e-12
-3.09565e-12
-2.01849e-11
1.36364e-11
5e-11
2.44444e-11
2.96271e-22
9.27709e-22
6.59404e-22
4.37899e-22
-1.26666e-11
3.08668e-13
2.5e-11
-2.68044e-13
1.67113e-12
1.11112e-12
5.33334e-12
-1.7857e-12
-6.01851e-12
2.57576e-11
3.71794e-11
1.22217e-11
-1.18494e-21
1.27193e-11
1.23017e-11
-1.09473e-22
-6.04229e-22
-6.52685e-22
1.64957e-21
-1.26348e-11
1.67116e-12
8.33326e-13
4.16666e-12
-1.78535e-12
-6.01832e-12
1.28787e-11
2.5e-11
1.22223e-11
-2.22166e-22
2.54378e-11
3.73016e-11
1.23189e-11
5.03612e-22
1.26543e-11
1.23559e-11
-1.7868e-21
3.33781e-12
-2.77774e-13
4.16668e-12
-3.09565e-12
-7.22222e-12
-5.72296e-23
1.28205e-11
1.22221e-11
-5.1848e-22
1.27196e-11
2.49999e-11
-3.6248e-13
-1.23334e-11
2.53095e-11
3.73568e-11
1.23652e-11
1.67113e-12
1.11112e-12
5.33333e-12
-1.7857e-12
-6.01851e-12
1.28788e-11
1.21796e-11
2.09875e-22
-1.27456e-11
4.38614e-13
1.23016e-11
-1.26811e-11
-1.23329e-11
1.26539e-11
3.76437e-11
2.47312e-11
1.67116e-12
2.22222e-12
5.33333e-12
-1.78572e-12
-6.01853e-12
1.28787e-11
1.2179e-11
2.51792e-22
-1.2745e-11
4.38605e-13
2.5e-11
1.23189e-11
4.02868e-22
2.79769e-22
2.52882e-11
2.4732e-11
3.33781e-12
1.1111e-12
5.33333e-12
-1.7857e-12
-6.01852e-12
1.28789e-11
1.21795e-11
3.77752e-22
-1.27452e-11
4.3943e-13
2.5e-11
1.23188e-11
-3.02146e-22
2.79762e-22
2.52874e-11
2.47304e-11
1.67114e-12
1.11112e-12
5.33333e-12
-4.76183e-13
-4.81465e-12
1.28787e-11
2.5e-11
1.22219e-11
-1.2745e-11
1.3158e-11
2.46024e-11
-3.28407e-22
-1.00714e-22
-5.59453e-22
2.52865e-11
1.20968e-11
1.67116e-12
-2.77793e-13
2.83332e-12
-1.66695e-12
-1.77777e-11
7.57582e-13
3.7821e-11
2.44445e-11
2.03678e-21
1.27193e-11
1.23015e-11
-2.18956e-22
1.00712e-21
-2.79751e-22
1.26437e-11
-2.68798e-13
1.67114e-12
-1.38892e-12
2.83335e-12
-2.97585e-12
-1.89816e-11
7.58407e-13
2.49998e-11
1.22221e-11
-1.27455e-11
4.38596e-13
1.23016e-11
0
1.0072e-22
5.59499e-22
-1.30215e-21
1.5429e-21
4.48267e-15
1.11116e-12
5.33333e-12
-1.78607e-12
-6.01852e-12
5.72438e-23
1.2821e-11
-5.56373e-13
-3.77452e-11
8.77175e-13
2.46024e-11
9.30442e-22
-1.00717e-22
1.26548e-11
1.23563e-11
-8.12216e-23
1.67116e-12
2.22222e-12
5.33333e-12
-1.78571e-12
-6.01852e-12
1.28793e-11
3.78205e-11
1.16668e-11
-2.49999e-11
1.31592e-11
2.46032e-11
-1.14957e-21
2.01432e-22
2.53086e-11
2.47127e-11
-2.35517e-21
3.33787e-12
1.11109e-12
5.33343e-12
-3.09515e-12
-7.22223e-12
2.57578e-11
5e-11
2.44447e-11
-1.27455e-11
1.31579e-11
2.46031e-11
-1.26816e-11
-1.23333e-11
2.53086e-11
2.47119e-11
-9.74577e-22
1.67112e-12
1.31204e-23
5.33335e-12
-3.09531e-12
-7.22217e-12
1.28788e-11
2.49999e-11
1.22221e-11
-2.54903e-11
8.77855e-13
2.46028e-11
-1.26813e-11
-1.23332e-11
1.26545e-11
1.23562e-11
-1.26345e-11
4.4833e-15
-2.77782e-13
4.1667e-12
-1.78571e-12
-6.01848e-12
-1.71748e-22
-5.8127e-22
-9.23558e-22
-2.54906e-11
-1.18416e-11
1.23014e-11
3.28451e-22
0
-7.46004e-22
1.26439e-11
-2.69196e-13
1.67115e-12
-5.55551e-13
1.6667e-12
-2.97624e-12
-6.01849e-12
1.28788e-11
2.49998e-11
1.2222e-11
-1.27453e-11
4.3906e-13
1.23014e-11
-1.26813e-11
-1.2333e-11
-4.6625e-22
2.52878e-11
2.47307e-11
3.33782e-12
-2.77787e-13
2.83332e-12
-2.97622e-12
-6.01848e-12
1.2879e-11
2.50002e-11
1.22222e-11
0
2.54389e-11
2.46027e-11
-1.26814e-11
-1.2333e-11
-1.865e-22
1.2644e-11
1.23654e-11
1.67117e-12
1.11109e-12
5.33334e-12
-4.76226e-13
-1.77776e-11
7.57772e-13
2.49996e-11
1.2222e-11
-9.63176e-22
2.5439e-11
2.46028e-11
5.47476e-23
-8.058e-22
1.26546e-11
1.23559e-11
2.43617e-22
1.67112e-12
-2.77707e-13
4.16671e-12
-4.76228e-13
-3.07408e-11
-1.13631e-11
2.50004e-11
1.22224e-11
-5.18679e-22
1.27196e-11
1.23015e-11
-1.42352e-21
2.01458e-22
1.26547e-11
2.5e-11
1.2365e-11
1.6712e-12
-1.66671e-12
3.00001e-12
-4.76197e-13
-1.77783e-11
7.57015e-13
1.2179e-11
1.25991e-22
-1.27449e-11
4.38909e-13
1.23011e-11
5.47547e-23
-7.05166e-22
1.26547e-11
2.5e-11
1.23651e-11
1.67109e-12
-1.66661e-12
3.00001e-12
-4.76199e-13
-4.8148e-12
2.57576e-11
3.7179e-11
1.22217e-11
-1.27457e-11
1.3158e-11
2.46028e-11
7.11884e-22
6.04485e-22
1.2655e-11
2.5e-11
1.23647e-11
1.67123e-12
-1.38897e-12
4.16661e-12
-4.76169e-13
-4.81482e-12
1.28795e-11
2.50013e-11
1.22228e-11
-1.27446e-11
1.31589e-11
3.73009e-11
-3.62825e-13
-1.23326e-11
9.32751e-22
2.52888e-11
2.47291e-11
4.48346e-15
2.51281e-22
5.33332e-12
-4.76204e-13
-1.77769e-11
-1.21205e-11
1.45456e-22
-2.1009e-22
-1.27459e-11
4.38824e-13
2.50014e-11
-3.62786e-13
-1.23336e-11
-6.53039e-22
2.52889e-11
2.47289e-11
4.48339e-15
2.50613e-23
5.33332e-12
-1.78555e-12
-1.89823e-11
7.55727e-13
1.21785e-11
1.68103e-22
-1.27441e-11
-1.22798e-11
1.26976e-11
-3.62674e-13
-2.49983e-11
-1.23443e-11
1.26452e-11
1.23652e-11
4.48333e-15
-1.31387e-23
4.00011e-12
-2.97621e-12
-1.89804e-11
1.36373e-11
3.71784e-11
1.22212e-11
-1.27462e-11
4.36291e-13
2.5e-11
-1.30428e-11
-5e-11
-1.20369e-11
2.49979e-11
1.23635e-11
4.48326e-15
1.11101e-12
2.66666e-12
-4.1665e-12
-1.89826e-11
1.3635e-11
3.71808e-11
1.22236e-11
-1.27438e-11
1.31591e-11
2.46031e-11
-2.53624e-11
-3.73346e-11
3.09389e-13
2.50026e-11
1.23658e-11
1.671e-12
-2.77536e-13
2.83332e-12
-2.97638e-12
-1.89803e-11
7.59954e-13
2.49999e-11
1.22209e-11
-1.27465e-11
1.31561e-11
2.46033e-11
-2.53623e-11
-3.73317e-11
-1.2344e-11
1.26426e-11
1.23636e-11
1.67131e-12
-1.38902e-12
4.16653e-12
-4.76191e-13
-1.77791e-11
-1.21226e-11
1.28219e-11
1.22237e-11
-8.90886e-22
1.27207e-11
1.23033e-11
-1.26827e-11
-2.50034e-11
-1.23474e-11
2.52875e-11
2.47304e-11
4.48299e-15
-2.77748e-13
2.83357e-12
-2.97591e-12
-6.01841e-12
1.28774e-11
1.21783e-11
2.10403e-22
-1.37384e-21
7.30924e-22
-1.80363e-21
1.15281e-21
-2.02025e-22
6.54735e-22
2.52869e-11
2.47312e-11
1.67099e-12
-2.77799e-13
2.83311e-12
-2.97642e-12
-6.01865e-12
2.57576e-11
2.43592e-11
2.94646e-22
7.42831e-23
1.27176e-11
1.23003e-11
4.94273e-22
0
2.80767e-22
1.2645e-11
1.23679e-11
1.6713e-12
1.11103e-12
5.33332e-12
-4.76172e-13
-4.81481e-12
1.28799e-11
1.21806e-11
3.36805e-22
-1.27437e-11
1.31587e-11
2.46036e-11
0
1.51662e-21
-2.80929e-22
1.26409e-11
1.23651e-11
1.67102e-12
8.33426e-13
4.16674e-12
-1.78561e-12
-6.01844e-12
1.28779e-11
2.49982e-11
1.22213e-11
-2.549e-11
8.7662e-13
2.46036e-11
-3.84702e-22
8.09164e-22
1.26521e-11
2.5e-11
1.23692e-11
3.33782e-12
-2.77788e-13
4.16661e-12
-1.78576e-12
-6.01858e-12
1.28795e-11
2.50013e-11
1.22229e-11
-2.549e-11
-1.18418e-11
1.23025e-11
-1.268e-11
-1.23331e-11
1.26542e-11
1.23585e-11
-5.72115e-22
1.67123e-12
1.11108e-12
4.00004e-12
-1.66661e-12
-4.81482e-12
1.28783e-11
2.49992e-11
1.22219e-11
-1.27453e-11
-1.22812e-11
-1.20401e-22
-1.2681e-11
-1.23341e-11
1.12479e-21
1.26423e-11
1.23681e-11
1.6711e-12
8.33354e-13
1.50001e-12
-2.85713e-12
-4.81483e-12
1.28788e-11
3.78206e-11
2.44447e-11
-1.2745e-11
-1.22809e-11
4.81639e-22
1.15465e-21
4.04794e-22
1.8747e-22
1.26419e-11
1.23668e-11
3.33782e-12
8.33342e-13
2.83334e-12
-1.66661e-12
-4.81482e-12
-6.60512e-22
2.56409e-11
2.44447e-11
-2.54899e-11
-1.18425e-11
1.23024e-11
7.69752e-22
1.92261e-21
-9.37221e-23
-6.11011e-22
6.53522e-22
3.33781e-12
1.1111e-12
5.33333e-12
-4.76175e-13
-4.81484e-12
1.2879e-11
2.5e-11
1.2222e-11
-1.27444e-11
1.31577e-11
2.46038e-11
-1.26814e-11
-1.23346e-11
6.55943e-22
-1.65799e-21
4.89947e-22
1.67112e-12
1.22889e-23
5.33332e-12
-4.76147e-13
-4.81485e-12
1.28783e-11
2.5e-11
1.2223e-11
7.43442e-23
2.5438e-11
2.46038e-11
-1.268e-11
-1.23329e-11
-1.21786e-21
1.26439e-11
1.2367e-11
4.48233e-15
1.11116e-12
5.33332e-12
-4.76151e-13
-4.81483e-12
4.30738e-22
1.28197e-11
1.22218e-11
-1.27456e-11
1.31563e-11
3.73027e-11
1.232e-11
-8.09105e-22
1.26548e-11
3.7644e-11
2.47318e-11
1.67121e-12
1.11106e-12
5.33332e-12
-1.78574e-12
-6.01864e-12
-8.61412e-23
4.37351e-22
-2.94823e-22
-2.54897e-11
8.76466e-13
3.7301e-11
1.23183e-11
7.07823e-22
2.5308e-11
5e-11
2.47316e-11
1.67107e-12
-1.38896e-12
2.83318e-12
-2.97609e-12
-6.01847e-12
-8.61321e-23
1.28211e-11
1.22232e-11
-1.27441e-11
1.31581e-11
2.46036e-11
2.19754e-22
6.0656e-22
2.53082e-11
5e-11
2.47312e-11
4.48217e-15
-2.77622e-13
2.83345e-12
-1.66657e-12
-4.81486e-12
-9.76069e-22
2.56408e-11
2.44448e-11
4.08699e-22
2.54382e-11
2.46035e-11
-1.64784e-22
-1.26673e-11
1.29619e-11
3.73556e-11
1.23649e-11
1.67124e-12
2.22224e-12
5.33334e-12
-4.76129e-13
-1.77785e-11
-1.21221e-11
2.56407e-11
2.44446e-11
7.4298e-23
2.54383e-11
2.46035e-11
-7.13936e-22
-1.26658e-11
3.08471e-13
2.5e-11
1.23661e-11
3.33782e-12
2.22222e-12
5.33331e-12
-4.76162e-13
-1.77769e-11
7.58937e-13
2.5e-11
1.22216e-11
3.34289e-22
1.27185e-11
2.5e-11
1.23196e-11
-3.03092e-22
-7.48358e-22
1.26431e-11
1.23649e-11
3.33782e-12
2.22222e-12
5.33332e-12
-4.7613e-13
-4.81484e-12
1.2878e-11
2.5e-11
1.2223e-11
7.4276e-23
1.272e-11
2.5e-11
1.23182e-11
-8.0809e-22
-2.80581e-22
-3.48291e-22
-4.88727e-22
3.33781e-12
1.11105e-12
5.33332e-12
-1.78576e-12
-6.0186e-12
1.28794e-11
3.78211e-11
2.44446e-11
3.71331e-23
1.27186e-11
2.5e-11
-3.62397e-13
-1.23339e-11
-2.33773e-21
1.21879e-21
1.05872e-21
1.67105e-12
-2.77791e-13
4.16659e-12
-1.78561e-12
-6.01848e-12
2.57575e-11
3.71788e-11
1.22217e-11
-1.27457e-11
-1.22814e-11
1.26979e-11
-1.30441e-11
-3.73338e-11
-1.23461e-11
1.26444e-11
1.23659e-11
1.67124e-12
-1.66672e-12
2.99998e-12
-4.7616e-13
-4.81481e-12
1.28781e-11
1.21789e-11
2.52446e-22
-2.54901e-11
-1.18416e-11
1.23021e-11
-1.26807e-11
-2.4999e-11
3.09781e-13
3.76444e-11
1.20957e-11
1.67106e-12
-1.6666e-12
3e-12
-4.76193e-13
-4.81484e-12
2.86841e-22
-4.36881e-22
-2.10339e-22
-2.54902e-11
-1.18426e-11
1.23011e-11
-1.09731e-22
-4.038e-22
1.2654e-11
3.76434e-11
-5.38454e-13
1.67123e-12
-2.77763e-13
4.16672e-12
-4.76159e-13
-4.81483e-12
-1.43401e-22
1.2821e-11
1.22227e-11
-1.27446e-11
4.39525e-13
2.5001e-11
-3.62438e-13
-1.23337e-11
9.34575e-22
1.26434e-11
-2.69129e-13
1.67107e-12
1.11116e-12
5.33334e-12
-4.76192e-13
-4.81481e-12
-5.73539e-23
2.5641e-11
2.44444e-11
-1.27455e-11
4.37787e-13
2.49991e-11
-3.62491e-13
-1.23328e-11
-7.47563e-22
1.26442e-11
1.23658e-11
1.67122e-12
1.11107e-12
3.99995e-12
-1.66671e-12
-4.81481e-12
-5.16136e-22
2.56411e-11
2.44444e-11
-2.54903e-11
-2.45614e-11
-5.40651e-22
-1.26816e-11
-1.23336e-11
6.54052e-22
1.26435e-11
1.2365e-11
1.67108e-12
-2.77825e-13
2.83329e-12
-2.97619e-12
-6.01847e-12
1.28791e-11
2.5e-11
1.22216e-11
-1.27446e-11
-1.22802e-11
1.2699e-11
-3.61566e-13
-1.23328e-11
1.77516e-21
1.26441e-11
1.23658e-11
1.67118e-12
8.33382e-13
4.16671e-12
-3.09524e-12
-7.22222e-12
1.28784e-11
2.5e-11
1.22226e-11
-1.27454e-11
4.38629e-13
2.5e-11
-3.62955e-13
-2.50007e-11
3.09486e-13
3.76444e-11
2.47312e-11
3.33787e-12
1.11108e-12
5.33333e-12
-3.09523e-12
-7.22222e-12
2.29344e-22
1.28201e-11
1.22219e-11
-1.27451e-11
1.31582e-11
2.46032e-11
-2.53623e-11
-3.73326e-11
3.0863e-13
2.49993e-11
1.23653e-11
1.67107e-12
1.11114e-12
5.33333e-12
-1.78567e-12
-6.01849e-12
-2.00644e-22
6.79108e-22
1.1771e-21
-1.27454e-11
1.31576e-11
2.46032e-11
-1.26812e-11
-1.23331e-11
1.26547e-11
2.50006e-11
1.23655e-11
1.67122e-12
1.11112e-12
5.33333e-12
-4.76517e-13
-1.77778e-11
-1.21211e-11
1.28208e-11
1.22225e-11
-1.27448e-11
4.38596e-13
1.23009e-11
0
4.03505e-22
2.53095e-11
3.7356e-11
1.23653e-11
1.67111e-12
1.11114e-12
5.3335e-12
-1.78536e-12
-3.19451e-11
-2.42432e-11
1.28202e-11
1.22215e-11
-4.07958e-22
1.272e-11
1.23023e-11
-1.42547e-21
-1.26673e-11
3.07174e-13
2.5e-11
1.23658e-11
1.67119e-12
8.33189e-13
4.16644e-12
-1.78568e-12
-1.89812e-11
-1.21206e-11
1.9399e-22
2.10154e-22
-1.27457e-11
4.37241e-13
1.23009e-11
3.28917e-22
-2.53342e-11
-2.46905e-11
1.2643e-11
1.23649e-11
3.33781e-12
-5.55389e-13
1.66685e-12
-1.66669e-12
-4.81481e-12
8.59609e-23
1.28207e-11
1.22229e-11
-1.27453e-11
4.39009e-13
2.50005e-11
1.23187e-11
-2.53325e-11
-2.46914e-11
1.47816e-21
4.88026e-22
3.33781e-12
8.33242e-13
2.83322e-12
-1.66664e-12
-1.77779e-11
7.57594e-13
2.5e-11
1.2222e-11
4.82059e-22
2.54394e-11
3.73014e-11
1.23187e-11
-2.53342e-11
-2.46914e-11
-1.13012e-21
1.05728e-21
3.33781e-12
-2.77816e-13
4.16665e-12
-4.76184e-13
-1.77775e-11
7.57566e-13
2.5e-11
1.2222e-11
1.11221e-21
2.54386e-11
3.73018e-11
1.2319e-11
-1.26665e-11
-1.23455e-11
1.26443e-11
1.23658e-11
1.67112e-12
-2.77654e-13
4.16689e-12
-4.76184e-13
-1.7778e-11
7.57589e-13
2.5e-11
1.2222e-11
-1.27452e-11
1.31577e-11
3.73009e-11
-3.62672e-13
-1.2334e-11
1.26549e-11
2.5e-11
1.23654e-11
1.67117e-12
2.22214e-12
5.33333e-12
-4.76184e-13
-1.77775e-11
7.57569e-13
2.5e-11
1.22224e-11
-2.54902e-11
-1.1841e-11
1.23019e-11
-1.26809e-11
-1.23328e-11
1.26541e-11
1.23562e-11
-2.11435e-21
3.33781e-12
2.22231e-12
5.33333e-12
-4.76184e-13
-4.81465e-12
-4.01034e-22
2.5641e-11
2.44453e-11
-1.27453e-11
4.38946e-13
1.23018e-11
-1.26813e-11
-1.23336e-11
3.73486e-22
6.95468e-22
-7.31901e-22
3.33781e-12
2.22215e-12
5.33317e-12
-4.76515e-13
-4.81498e-12
4.87033e-22
1.28203e-11
1.22216e-11
-1.27453e-11
1.31565e-11
2.46024e-11
-1.2681e-11
-1.23332e-11
1.26549e-11
1.23565e-11
8.13158e-22
3.33781e-12
1.1111e-12
5.33333e-12
-4.76184e-13
-4.81482e-12
6.30227e-22
1.4544e-22
8.40314e-23
-1.2745e-11
4.39421e-13
1.23018e-11
-1.09601e-22
-3.02474e-22
1.26541e-11
2.5e-11
1.23654e-11
1.67113e-12
-1.38886e-12
4.16686e-12
-1.78572e-12
-1.89816e-11
7.57585e-13
1.21797e-11
2.52077e-22
-1.27453e-11
4.38605e-13
1.23013e-11
3.83575e-22
-1.26672e-11
-1.23462e-11
2.52882e-11
2.47312e-11
4.48085e-15
-2.77828e-13
4.16668e-12
-1.78532e-12
-1.89815e-11
7.57572e-13
1.21794e-11
2.5206e-22
-1.2745e-11
1.31581e-11
2.46032e-11
1.04105e-21
-2.53325e-11
-2.46905e-11
1.26431e-11
-2.69016e-13
1.67117e-12
2.22223e-12
3.99986e-12
-2.97655e-12
-6.01874e-12
1.28793e-11
2.50002e-11
1.22223e-11
-1.27453e-11
1.31578e-11
2.46032e-11
-6.57528e-22
-1.26665e-11
-1.23456e-11
-4.34591e-22
-1.26347e-11
3.33781e-12
2.22223e-12
4.00014e-12
-4.28533e-12
-7.22198e-12
1.28783e-11
2.49997e-11
1.22217e-11
-2.54902e-11
-1.18422e-11
1.23015e-11
-1.26813e-11
-1.23335e-11
3.73398e-22
1.26442e-11
1.23662e-11
3.33781e-12
2.22223e-12
5.33333e-12
-1.78569e-12
-6.01852e-12
8.59295e-23
-4.36217e-22
8.40119e-23
-2.54902e-11
-2.45614e-11
-1.20033e-22
-1.2681e-11
-1.23328e-11
1.26544e-11
3.76438e-11
2.47312e-11
3.33781e-12
-2.77798e-13
4.16666e-12
-4.76515e-13
-4.81498e-12
3.43662e-22
-1.93864e-22
-2.94056e-22
-1.27454e-11
4.38802e-13
1.23017e-11
-1.26813e-11
-2.50002e-11
1.29628e-11
3.73566e-11
1.2365e-11
1.67113e-12
-2.77752e-13
4.16667e-12
-1.78572e-12
-6.01853e-12
1.28789e-11
1.21795e-11
2.5201e-22
5.18842e-22
1.27191e-11
1.23015e-11
-1.2681e-11
-2.49998e-11
1.29631e-11
3.7356e-11
1.23657e-11
1.67116e-12
2.22223e-12
5.33333e-12
-3.09482e-12
-2.01855e-11
7.57381e-13
2.5e-11
1.22223e-11
-1.27452e-11
4.38599e-13
1.23017e-11
-1.26817e-11
-1.23334e-11
1.26542e-11
3.76431e-11
2.47312e-11
3.33781e-12
2.22231e-12
5.33333e-12
-3.09564e-12
-2.0185e-11
-1.21215e-11
1.28208e-11
1.22226e-11
-1.27454e-11
1.3158e-11
2.46032e-11
-1.26811e-11
-1.23332e-11
4.66706e-22
1.2644e-11
1.23659e-11
3.33781e-12
8.33206e-13
2.83331e-12
-2.97618e-12
-1.89813e-11
7.58415e-13
2.50003e-11
1.22223e-11
-1.27452e-11
1.31578e-11
2.46032e-11
-1.26813e-11
-1.23334e-11
-4.66679e-22
8.69028e-22
3.57713e-21
3.33781e-12
-2.77773e-13
2.83335e-12
-2.97619e-12
-1.89816e-11
1.36352e-11
3.71794e-11
1.22217e-11
-2.54893e-11
-1.18409e-11
1.23015e-11
-1.26806e-11
-1.23328e-11
1.26544e-11
1.23565e-11
5.69069e-22
1.67113e-12
1.11112e-12
5.33317e-12
-3.09523e-12
-7.22222e-12
1.28791e-11
1.21798e-11
4.20034e-23
-2.5491e-11
-1.18432e-11
1.23013e-11
1.64335e-21
-3.02414e-22
1.26543e-11
1.23558e-11
8.12919e-23
1.67116e-12
1.11111e-12
4.00011e-12
-4.28534e-12
-7.22222e-12
4.00923e-22
9.69186e-23
3.3598e-22
-2.54902e-11
-1.18422e-11
2.5e-11
1.23189e-11
-1.26672e-11
-1.23458e-11
7.82085e-22
-8.12965e-22
1.67114e-12
-1.3889e-12
2.83333e-12
-2.97617e-12
-6.01851e-12
-2.2909e-22
4.84622e-23
8.40005e-22
-2.54902e-11
-2.45606e-11
1.26979e-11
1.23183e-11
-1.26662e-11
-1.23452e-11
1.26438e-11
1.23657e-11
4.48073e-15
-1.38884e-12
4.16667e-12
-1.78609e-12
-6.01853e-12
1.28789e-11
2.50002e-11
1.22224e-11
-1.27451e-11
-1.22806e-11
1.26985e-11
1.23189e-11
-1.51205e-21
1.26544e-11
3.76438e-11
2.47312e-11
4.48073e-15
-2.77857e-13
4.16666e-12
-1.7857e-12
-6.01852e-12
1.28787e-11
2.49998e-11
1.22222e-11
-1.27452e-11
-1.22808e-11
1.26983e-11
-3.62386e-13
-1.2333e-11
1.26539e-11
3.76436e-11
2.47312e-11
1.67116e-12
-2.77773e-13
4.16667e-12
-4.76184e-13
-4.81481e-12
5.72713e-23
1.28206e-11
1.22219e-11
-2.54902e-11
-1.1842e-11
1.23017e-11
-1.26811e-11
-1.23333e-11
-9.33279e-22
1.26436e-11
1.23656e-11
1.67114e-12
-1.38889e-12
4.16666e-12
-1.78572e-12
-6.01853e-12
8.59042e-22
1.28204e-11
1.22221e-11
-2.54902e-11
-1.18434e-11
1.23011e-11
0
-1.008e-21
-1.30667e-21
2.25912e-21
-3.25123e-22
4.4807e-15
-1.38888e-12
4.16667e-12
-1.7857e-12
-6.01852e-12
1.28785e-11
1.21796e-11
5.8802e-22
-1.2745e-11
-1.22802e-11
-7.79882e-22
-1.26808e-11
-2.50001e-11
3.0864e-13
1.23564e-11
-2.03236e-21
4.4807e-15
1.11112e-12
5.33333e-12
-4.76184e-13
-4.81481e-12
1.28791e-11
1.21795e-11
1.25976e-22
-1.27452e-11
4.37771e-13
1.23017e-11
-1.26815e-11
-2.49999e-11
1.29618e-11
3.73559e-11
1.23657e-11
1.67115e-12
2.22223e-12
5.33333e-12
-4.76185e-13
-4.81482e-12
1.28788e-11
2.50001e-11
1.22223e-11
-1.27451e-11
4.39433e-13
1.23015e-11
2.73856e-22
-1.81423e-21
2.53095e-11
3.73562e-11
1.23656e-11
3.33781e-12
8.33334e-13
2.83333e-12
-1.66667e-12
-4.81482e-12
2.57576e-11
3.71795e-11
1.22222e-11
-1.27452e-11
4.38611e-13
1.23016e-11
-1.04084e-21
-1.00787e-22
1.26539e-11
2.5e-11
-2.69625e-13
3.33781e-12
-2.77774e-13
2.83334e-12
-2.97619e-12
-6.01852e-12
2.57576e-11
2.4359e-11
5.03967e-22
-1.27451e-11
4.38611e-13
1.23016e-11
2.19117e-22
2.0159e-22
1.26548e-11
3.76437e-11
1.20981e-11
1.67114e-12
-1.38889e-12
4.16666e-12
-1.78571e-12
-6.01852e-12
1.28788e-11
2.5e-11
1.22222e-11
9.63442e-22
1.32622e-22
-7.79937e-22
-1.26812e-11
-1.23334e-11
1.26543e-11
2.49999e-11
1.23652e-11
4.4807e-15
-2.77773e-13
4.16667e-12
-1.78571e-12
-6.01852e-12
1.28788e-11
2.5e-11
1.22222e-11
-2.96442e-22
1.45884e-21
1.19987e-21
-2.53623e-11
-2.46667e-11
-2.79976e-22
1.26437e-11
1.23657e-11
1.67115e-12
1.11111e-12
5.33333e-12
-3.09523e-12
-7.22222e-12
1.28788e-11
1.21795e-11
1.67982e-22
4.44662e-22
5.96789e-22
1.26984e-11
-3.6222e-13
-2.5e-11
3.08648e-13
2.5e-11
1.23656e-11
1.67115e-12
7.87425e-23
5.33333e-12
-3.09523e-12
-7.22222e-12
1.14535e-22
5.8148e-22
-3.77962e-22
-7.41095e-23
-9.94649e-22
2.53968e-11
2.46377e-11
-2.53333e-11
6.17296e-13
2.47126e-11
0
4.4807e-15
-1.31238e-23
5.33333e-12
-3.09523e-12
-7.22222e-12
0
8.7221e-22
1.25989e-22
0
-8.62029e-22
2.53968e-11
2.46377e-11
-2.53333e-11
6.17296e-13
2.47126e-11
-8.12867e-22
4.4807e-15
)
;

boundaryField
{
    wireUpstream
    {
        type            calculated;
        value           nonuniform List<scalar> 
16
(
0
5.33333e-12
-3.09523e-12
-7.22222e-12
0
0
0
-2.48339e-22
0
2.53968e-11
2.46377e-11
-2.53333e-11
6.17296e-13
2.47126e-11
5.63006e-22
4.4807e-15
)
;
    }
    wireDownstream
    {
        type            calculated;
        value           nonuniform List<scalar> 
16
(
0
5.33334e-12
-4.76184e-13
-4.81482e-12
-4.99983e-22
0
3.66654e-22
3.23518e-22
-5.78939e-22
0
-9.5651e-22
-2.53333e-11
-2.46914e-11
0
7.09669e-22
4.4912e-15
)
;
    }
    wireTopContact
    {
        type            calculated;
        value           nonuniform List<scalar> 
122
(
-2.5e-11
-2.5e-11
-2.5e-11
-2.5e-11
0
0
-6.4219e-22
0
0
0
0
0
0
-6.42282e-22
0
-6.42271e-22
0
0
-6.4225e-22
0
0
6.42352e-22
0
0
-6.44776e-22
0
-2.5e-11
-2.5e-11
0
-6.43579e-22
0
0
-1.28711e-21
-2.5e-11
-2.5e-11
-6.43534e-22
-6.43656e-22
0
6.43621e-22
-2.5e-11
-2.5e-11
0
-6.43449e-22
6.43398e-22
0
-6.4332e-22
-6.43272e-22
6.43216e-22
6.43238e-22
0
6.43471e-22
6.43653e-22
-6.43886e-22
-6.44166e-22
0
6.44809e-22
0
0
0
-6.45783e-22
6.45661e-22
0
6.45309e-22
0
0
0
-6.44679e-22
0
6.44473e-22
6.44401e-22
0
0
0
-2.50005e-11
-5e-11
-2.49995e-11
0
-6.44148e-22
0
0
0
0
-6.4423e-22
0
0
0
-6.44204e-22
-1.28834e-21
0
6.44239e-22
0
0
6.4416e-22
-6.44266e-22
-2.50001e-11
-2.49999e-11
0
0
-6.44292e-22
-6.44275e-22
0
6.44369e-22
0
-1.28868e-21
0
0
0
0
0
-6.44388e-22
0
0
0
0
-2.50001e-11
-2.5e-11
1.28865e-21
0
0
0
0
0
)
;
    }
    front
    {
        type            wedge;
    }
    back
    {
        type            wedge;
    }
}


// ************************************************************************* //
