/*--------------------------------*- C++ -*----------------------------------*\
| =========                 |                                                 |
| \\      /  F ield         | foam-extend: Open Source CFD                    |
|  \\    /   O peration     | Version:     4.1-20200408                       |
|   \\  /    A nd           | Web:         http://www.foam-extend.org         |
|    \\/     M anipulation  |                                                 |
\*---------------------------------------------------------------------------*/
FoamFile
{
    version     2.0;
    format      ascii;
    class       volTensorField;
    location    "0.0060000";
    object      grad(DU);
}
// * * * * * * * * * * * * * * * * * * * * * * * * * * * * * * * * * * * * * //

dimensions      [0 0 0 0 0 0 0];

internalField   nonuniform List<tensor> 
1952
(
(-7.74157e-07 4.26817e-06 -1.38427e-17 4.00713e-07 1.58398e-05 -3.70715e-13 2.334e-14 9.40528e-14 1.57897e-05)
(-5.03637e-06 3.4665e-06 -1.59321e-17 3.53593e-07 1.86682e-05 -4.35395e-13 2.09055e-14 1.17305e-13 1.85436e-05)
(-7.83986e-06 3.32721e-06 7.95709e-13 1.49178e-07 2.09824e-05 -4.88129e-13 9.75436e-15 1.37294e-13 2.07886e-05)
(-7.41102e-07 7.07794e-06 -5.04343e-17 7.22744e-07 1.59988e-05 3.58812e-13 9.13151e-15 5.6712e-13 1.58229e-05)
(-5.18939e-06 5.76378e-06 -7.06126e-17 6.48115e-07 1.90039e-05 4.22425e-13 8.04401e-15 6.63337e-13 1.86313e-05)
(-8.13276e-06 5.59418e-06 5.73577e-15 2.73565e-07 2.14651e-05 4.74447e-13 3.84874e-15 7.42907e-13 2.09277e-05)
(-6.97618e-07 1.01283e-05 -1.12444e-16 1.00168e-06 1.61577e-05 2.62494e-12 -1.45521e-14 -1.55951e-13 1.59067e-05)
(-5.41641e-06 8.26055e-06 -1.23466e-16 9.30436e-07 1.94409e-05 3.10252e-12 -1.5098e-14 -1.93759e-13 1.88008e-05)
(-8.56332e-06 7.85007e-06 -1.13861e-12 3.96974e-07 2.21485e-05 3.49284e-12 -6.42645e-15 -2.25857e-13 2.11666e-05)
(-5.6872e-07 1.34943e-05 1.11279e-17 1.25566e-06 1.64317e-05 -1.0216e-12 -3.67539e-14 -8.0961e-13 1.59699e-05)
(-5.70066e-06 1.10614e-05 1.83118e-17 1.23733e-06 2.01501e-05 -1.21449e-12 -2.61718e-14 -9.35295e-13 1.89868e-05)
(-9.1794e-06 1.04321e-05 -2.25778e-12 5.36528e-07 2.32865e-05 -1.37298e-12 -1.08385e-14 -1.03031e-12 2.14636e-05)
(-3.23337e-07 1.73327e-05 1.48768e-16 1.48085e-06 1.65956e-05 -5.17426e-12 2.28509e-14 2.6698e-13 1.60964e-05)
(-6.019e-06 1.43371e-05 1.68493e-16 1.5809e-06 2.09046e-05 -6.20032e-12 2.40251e-14 3.3327e-13 1.92883e-05)
(-9.96317e-06 1.34345e-05 1.75499e-12 6.99971e-07 2.46369e-05 -7.05017e-12 1.05516e-14 3.90258e-13 2.19323e-05)
(1.28225e-07 2.17353e-05 -1.06983e-16 1.55591e-06 1.68248e-05 -7.63133e-13 1.07102e-13 9.61961e-13 1.61616e-05)
(-6.34388e-06 1.81949e-05 -1.49949e-16 1.90129e-06 2.19881e-05 -9.24512e-13 8.54215e-14 1.14089e-12 1.95745e-05)
(-1.09791e-05 1.67868e-05 2.14955e-12 8.67258e-07 2.66991e-05 -1.05969e-12 3.52648e-14 1.26041e-12 2.2436e-05)
(9.16831e-07 2.69982e-05 -4.57252e-16 1.41858e-06 1.67168e-05 5.40312e-12 4.64077e-14 4.62851e-13 1.62901e-05)
(-6.56153e-06 2.30914e-05 -6.45024e-16 2.18238e-06 2.29951e-05 6.63564e-12 3.5953e-14 5.52209e-13 2.00065e-05)
(-1.21455e-05 2.15045e-05 1.33309e-12 1.03798e-06 2.90797e-05 7.69491e-12 1.42448e-14 6.20691e-13 2.32004e-05)
(2.19036e-06 3.31863e-05 -1.09796e-16 8.18179e-07 1.64593e-05 8.99298e-13 -2.21357e-13 -4.4237e-13 1.62918e-05)
(-6.58818e-06 2.91429e-05 -1.10033e-16 2.27887e-06 2.42507e-05 1.12497e-12 -9.32378e-14 -3.16289e-13 2.03781e-05)
(-1.35134e-05 2.70507e-05 3.67202e-14 1.16039e-06 3.24596e-05 1.32465e-12 -2.65804e-14 -1.87561e-14 2.39974e-05)
(4.21104e-06 4.07319e-05 2.17249e-16 -5.57261e-07 1.53854e-05 -5.24996e-12 7.60224e-15 1.39033e-13 1.63249e-05)
(-6.1332e-06 3.72328e-05 2.41992e-16 1.96251e-06 2.50667e-05 -6.72105e-12 1.81825e-14 2.00973e-13 2.08991e-05)
(-1.48441e-05 3.58769e-05 -2.32875e-12 1.15333e-06 3.62855e-05 -8.08797e-12 9.198e-15 2.65631e-13 2.51491e-05)
(7.17882e-06 4.95726e-05 -3.24228e-16 -3.32734e-06 1.36382e-05 1.10738e-12 5.93792e-13 6.93445e-13 1.61177e-05)
(-4.91136e-06 4.75702e-05 -4.92098e-16 7.46636e-07 2.55793e-05 1.46123e-12 3.9007e-13 6.40186e-13 2.12703e-05)
(-1.59417e-05 4.72188e-05 4.26558e-12 8.30451e-07 4.11627e-05 1.80985e-12 1.41377e-13 1.7113e-13 2.63387e-05)
(1.14365e-05 5.99828e-05 -4.00581e-16 -8.36198e-06 1.01944e-05 5.19174e-12 -3.25992e-13 -4.02551e-13 1.58548e-05)
(-2.25618e-06 6.14258e-05 -8.48537e-16 -2.28067e-06 2.45569e-05 7.10956e-12 -2.32123e-13 -3.47683e-13 2.17113e-05)
(-1.60332e-05 6.60873e-05 5.24375e-12 -1.89863e-07 4.61408e-05 9.14823e-12 -8.48178e-14 -8.01923e-14 2.79359e-05)
(1.68134e-05 7.14042e-05 -2.89488e-17 -1.72721e-05 5.2953e-06 -8.75129e-13 -1.16848e-12 -6.43011e-13 1.51651e-05)
(2.52275e-06 7.90485e-05 8.04128e-18 -9.06259e-06 2.12841e-05 -1.2575e-12 -1.06404e-12 -8.55382e-13 2.17923e-05)
(-1.38992e-05 9.24901e-05 -9.36194e-12 -3.04635e-06 5.06816e-05 -1.70447e-12 -5.034e-13 -2.71643e-13 2.95093e-05)
(2.27857e-05 8.25723e-05 2.37036e-17 -3.17215e-05 -1.83787e-06 -4.58623e-12 -9.08904e-14 1.52614e-14 1.42827e-05)
(1.04554e-05 0.000100963 2.82969e-16 -2.26813e-05 1.37409e-05 -6.94889e-12 -5.50075e-14 8.05353e-14 2.16399e-05)
(-6.36393e-06 0.000137394 1.42676e-11 -1.16828e-05 5.17629e-05 -1.00501e-11 -2.10701e-14 2.14993e-13 3.1306e-05)
(2.63355e-05 9.14235e-05 -1.4634e-16 -5.56157e-05 -9.45817e-06 -6.55065e-13 2.63313e-12 4.15402e-13 1.28095e-05)
(2.0186e-05 0.000125418 -4.12376e-16 -5.06657e-05 1.48499e-07 -1.05704e-12 3.78965e-12 2.00999e-12 2.06663e-05)
(1.30588e-05 0.000215403 -1.65123e-11 -5.1467e-05 4.27206e-05 -1.66947e-12 7.55155e-12 2.96769e-12 3.2571e-05)
(2.03453e-05 9.19289e-05 -1.14385e-16 -8.17808e-05 -1.26081e-05 1.23011e-12 4.39852e-13 -4.82683e-14 1.12101e-05)
(1.44226e-05 0.000145545 -2.3389e-16 -0.000108037 -1.07026e-05 1.88941e-12 3.32678e-12 2.7683e-13 1.88468e-05)
(7.11067e-05 0.000397346 -1.09991e-11 -0.000241535 -4.33586e-06 1.23395e-12 1.56479e-11 4.57687e-12 3.27401e-05)
(-7.72083e-07 1.82466e-06 -1.59668e-17 2.16714e-07 1.58018e-05 5.39601e-13 9.87907e-15 1.46783e-12 1.57694e-05)
(-4.98215e-06 1.48252e-06 -2.10466e-17 1.82397e-07 1.85631e-05 6.33539e-13 7.09105e-15 1.72389e-12 1.85154e-05)
(-7.74844e-06 1.43554e-06 3.36923e-13 7.5759e-08 2.08133e-05 7.10206e-13 2.13621e-15 1.93274e-12 2.07568e-05)
(3.76886e-06 4.64732e-06 -8.94767e-18 3.22045e-07 1.27112e-05 -2.9893e-13 1.71089e-14 6.94687e-14 1.27331e-05)
(3.96359e-06 7.68131e-06 -4.63268e-17 5.6886e-07 1.2697e-05 2.88394e-13 6.48615e-15 4.60133e-13 1.27142e-05)
(4.23767e-06 1.09396e-05 -1.21187e-16 7.50845e-07 1.2593e-05 2.09795e-12 -9.87669e-15 -1.16042e-13 1.27131e-05)
(4.68806e-06 1.44658e-05 1.77261e-17 8.44719e-07 1.24838e-05 -8.10038e-13 -3.87452e-14 -6.61844e-13 1.26609e-05)
(5.34233e-06 1.83719e-05 1.80108e-16 8.473e-07 1.21466e-05 -4.06003e-12 1.39433e-14 1.97989e-13 1.26303e-05)
(6.28447e-06 2.2706e-05 -6.12778e-17 5.92647e-07 1.17223e-05 -5.90196e-13 9.92055e-14 7.47457e-13 1.25031e-05)
(7.6118e-06 2.76205e-05 -4.09076e-16 2.73474e-09 1.08355e-05 4.1091e-12 4.05351e-14 3.61852e-13 1.23884e-05)
(9.42063e-06 3.30893e-05 -8.74657e-17 -1.20769e-06 9.66656e-06 6.68385e-13 -2.97652e-13 -4.36936e-13 1.21106e-05)
(1.18256e-05 3.92441e-05 2.37736e-16 -3.32311e-06 7.66134e-06 -3.79943e-12 -8.12533e-15 8.45938e-14 1.18146e-05)
(1.48266e-05 4.58192e-05 -2.02991e-16 -6.9173e-06 5.12257e-06 7.7387e-13 6.27041e-13 5.23789e-13 1.12614e-05)
(1.83642e-05 5.26862e-05 -3.41041e-16 -1.25122e-05 1.34284e-06 3.48655e-12 -3.18511e-13 -3.49748e-13 1.06476e-05)
(2.17792e-05 5.90162e-05 3.27749e-18 -2.11347e-05 -2.75899e-06 -5.58114e-13 -9.74547e-13 -2.65631e-13 9.66991e-06)
(2.4007e-05 6.38906e-05 9.9457e-17 -3.28515e-05 -7.59953e-06 -2.77921e-12 -1.03826e-13 -1.39734e-14 8.6555e-06)
(2.20821e-05 6.59438e-05 -5.63761e-17 -4.82004e-05 -9.88863e-06 -3.72266e-13 1.16419e-12 -6.07601e-13 7.28214e-06)
(1.10513e-05 6.35503e-05 -4.27794e-17 -6.07621e-05 -7.86999e-06 7.52719e-13 -1.99467e-13 -1.58579e-13 6.26013e-06)
(3.72126e-06 1.987e-06 -1.28781e-17 1.88092e-07 1.27369e-05 4.35373e-13 1.03297e-14 1.18369e-12 1.27227e-05)
(8.51502e-06 4.72406e-06 -4.46178e-18 1.3846e-07 9.44251e-06 -2.23526e-13 4.58104e-15 4.54831e-14 9.52222e-06)
(8.82694e-06 7.77677e-06 -3.35491e-17 2.26561e-07 9.29076e-06 2.14691e-13 1.36551e-15 3.46652e-13 9.46165e-06)
(9.26603e-06 1.10041e-05 -8.68157e-17 2.38917e-07 8.98573e-06 1.55008e-12 -7.82365e-16 -7.72038e-14 9.39307e-06)
(9.92912e-06 1.44187e-05 1.74575e-17 9.42714e-08 8.59891e-06 -5.92067e-13 -3.29758e-14 -4.99456e-13 9.25238e-06)
(1.08353e-05 1.8083e-05 1.29732e-16 -1.9636e-07 7.92378e-06 -2.92715e-12 -1.5127e-15 1.31767e-13 9.10605e-06)
(1.20397e-05 2.19938e-05 -3.33069e-17 -8.27544e-07 7.09962e-06 -4.17379e-13 6.67506e-14 5.20968e-13 8.84486e-06)
(1.35971e-05 2.62109e-05 -2.57457e-16 -1.87434e-06 5.80363e-06 2.84323e-12 2.2252e-14 2.57693e-13 8.5717e-06)
(1.55393e-05 3.06244e-05 -4.18682e-17 -3.60556e-06 4.24598e-06 4.48617e-13 -3.31715e-13 -3.51953e-13 8.12934e-06)
(1.78532e-05 3.52413e-05 1.40951e-16 -6.23196e-06 2.01208e-06 -2.46344e-12 -2.68636e-14 4.06259e-14 7.66023e-06)
(2.04188e-05 3.96992e-05 -9.62468e-17 -1.01905e-05 -4.81836e-07 4.7852e-13 5.54831e-13 2.93299e-13 6.96242e-06)
(2.29397e-05 4.3865e-05 -1.72995e-16 -1.5659e-05 -3.66826e-06 2.04371e-12 -2.71707e-13 -2.60174e-13 6.24138e-06)
(2.47323e-05 4.69455e-05 1.31478e-17 -2.31936e-05 -6.4762e-06 -3.03499e-13 -7.06624e-13 2.05908e-14 5.25784e-06)
(2.474e-05 4.87524e-05 5.3242e-17 -3.20379e-05 -9.1213e-06 -1.39773e-12 -1.08262e-13 -2.62348e-14 4.35312e-06)
(2.1239e-05 4.82853e-05 -2.86287e-17 -4.20158e-05 -9.11472e-06 -1.67206e-13 4.34076e-13 -8.19712e-13 3.2713e-06)
(1.22338e-05 4.67968e-05 -2.13629e-18 -4.76272e-05 -6.51813e-06 3.36694e-13 -4.8442e-13 -1.10876e-13 2.61459e-06)
(8.42887e-06 2.02072e-06 -8.59634e-18 1.05057e-07 9.51884e-06 3.25824e-13 4.97531e-15 8.8522e-13 9.52079e-06)
(1.31551e-05 4.53326e-06 -1.83216e-18 -1.14739e-07 6.17785e-06 -1.47793e-13 -1.11405e-14 2.331e-14 6.29684e-06)
(1.35255e-05 7.4313e-06 -1.60585e-17 -2.35353e-07 5.93447e-06 1.40939e-13 -5.0864e-15 2.31524e-13 6.20813e-06)
(1.40438e-05 1.04445e-05 -3.9851e-17 -4.23069e-07 5.50184e-06 1.00574e-12 1.04929e-14 -4.12218e-14 6.09451e-06)
(1.47886e-05 1.35594e-05 9.65647e-18 -8.23639e-07 4.95024e-06 -3.77502e-13 -1.94807e-14 -3.31086e-13 5.89758e-06)
(1.57655e-05 1.67969e-05 5.4306e-17 -1.39421e-06 4.09804e-06 -1.82611e-12 -1.94679e-14 7.11059e-14 5.68092e-06)
(1.69895e-05 2.01184e-05 -1.53861e-17 -2.33818e-06 3.09529e-06 -2.52108e-13 1.66906e-14 2.98467e-13 5.34562e-06)
(1.84677e-05 2.3529e-05 -9.36745e-17 -3.7084e-06 1.68182e-06 1.65604e-12 -5.00714e-15 1.5757e-13 4.99239e-06)
(2.01719e-05 2.68812e-05 -1.21496e-17 -5.71793e-06 9.4954e-08 2.47363e-13 -3.14422e-13 -2.28521e-13 4.48377e-06)
(2.19891e-05 3.01458e-05 4.21814e-17 -8.4901e-06 -1.95166e-06 -1.2737e-12 -4.35117e-14 6.63378e-15 3.96073e-06)
(2.37487e-05 3.29681e-05 -2.58083e-17 -1.22979e-05 -4.00714e-06 2.23922e-13 4.10756e-13 7.30135e-14 3.25658e-06)
(2.50466e-05 3.53134e-05 -2.82263e-17 -1.7067e-05 -6.32319e-06 8.42446e-13 -2.02402e-13 -1.71272e-13 2.57286e-06)
(2.53545e-05 3.65621e-05 3.46501e-18 -2.30198e-05 -7.92505e-06 -9.94274e-14 -4.27221e-13 2.06739e-13 1.72133e-06)
(2.37829e-05 3.69673e-05 1.76095e-18 -2.9126e-05 -9.01168e-06 -3.25956e-13 -1.03145e-13 -3.01905e-14 1.01521e-06)
(1.95582e-05 3.5893e-05 -1.96492e-18 -3.49333e-05 -7.81938e-06 -1.21803e-14 -4.88114e-14 -8.41661e-13 2.39728e-07)
(1.16251e-05 3.48979e-05 -9.57296e-19 -3.68903e-05 -5.04902e-06 3.27773e-14 -5.10445e-13 -9.21932e-14 -1.23972e-07)
(1.3047e-05 1.94015e-06 -4.137e-18 -1.65214e-08 6.28815e-06 2.15702e-13 2.39118e-16 5.85394e-13 6.30249e-06)
(1.73656e-05 4.15262e-06 -4.00729e-19 -3.91578e-07 3.14517e-06 -7.70253e-14 -2.7674e-14 4.43339e-15 3.28268e-06)
(1.77391e-05 6.77892e-06 -5.61855e-18 -7.33313e-07 2.85997e-06 7.22923e-14 -1.37302e-14 1.22918e-13 3.1809e-06)
(1.82599e-05 9.46486e-06 -1.21084e-17 -1.11826e-06 2.37545e-06 5.02747e-13 2.15562e-14 -1.03421e-14 3.04659e-06)
(1.89782e-05 1.21783e-05 3.86339e-18 -1.75279e-06 1.76767e-06 -1.81065e-13 -2.01445e-15 -1.70154e-13 2.82672e-06)
(1.98918e-05 1.49111e-05 1.35059e-17 -2.55585e-06 8.80658e-07 -8.3067e-13 -3.70793e-14 1.95202e-14 2.58428e-06)
(2.09788e-05 1.76068e-05 -4.46798e-18 -3.72316e-06 -1.23534e-07 -1.04988e-13 -4.0805e-14 9.8301e-14 2.2298e-06)
(2.22139e-05 2.02443e-05 -1.68274e-17 -5.28359e-06 -1.44906e-06 6.18137e-13 -3.47186e-14 6.99314e-14 1.86323e-06)
(2.35337e-05 2.26756e-05 -3.4101e-19 -7.37718e-06 -2.84811e-06 7.51774e-14 -2.64487e-13 -9.8547e-14 1.36447e-06)
(2.47754e-05 2.48766e-05 2.78324e-18 -1.00624e-05 -4.51301e-06 -2.80042e-13 -5.67341e-14 -1.76545e-14 8.70912e-07)
(2.57808e-05 2.65536e-05 -6.50359e-19 -1.34644e-05 -6.02141e-06 1.69301e-14 2.48236e-13 -1.01416e-13 2.43905e-07)
(2.61406e-05 2.77661e-05 -7.17925e-19 -1.7378e-05 -7.52225e-06 -1.07836e-13 -1.3714e-13 -9.97554e-14 -3.29259e-07)
(2.55367e-05 2.8074e-05 -2.0636e-18 -2.18403e-05 -8.25262e-06 5.76275e-14 -1.98195e-13 3.00508e-13 -1.00022e-06)
(2.32989e-05 2.79299e-05 1.04459e-17 -2.58321e-05 -8.4108e-06 4.8302e-13 -9.46905e-14 -3.06676e-14 -1.5043e-06)
(1.92498e-05 2.68911e-05 1.64037e-17 -2.90002e-05 -6.90563e-06 1.035e-13 -2.9072e-13 -7.40794e-13 -2.02251e-06)
(1.29297e-05 2.64361e-05 -2.24532e-17 -2.89543e-05 -4.57184e-06 -2.01369e-13 -4.91116e-13 -7.05051e-14 -2.20007e-06)
(1.72522e-05 1.77826e-06 -1.43835e-18 -1.53884e-07 3.27096e-06 1.12708e-13 -4.23984e-15 3.05186e-13 3.29276e-06)
(2.1003e-05 3.66172e-06 8.54021e-21 -6.54402e-07 4.41807e-07 -1.35903e-14 -4.42112e-14 -1.09419e-14 5.80623e-07)
(2.13364e-05 5.95392e-06 -4.85381e-19 -1.20129e-06 1.55042e-07 1.09871e-14 -2.09367e-14 2.47713e-14 4.78255e-07)
(2.18015e-05 8.26174e-06 -5.90474e-19 -1.75449e-06 -3.22473e-07 5.65606e-14 3.06445e-14 1.5153e-14 3.42894e-07)
(2.24152e-05 1.05427e-05 1.33798e-19 -2.57439e-06 -9.0652e-07 -8.28727e-15 1.65977e-14 -2.38191e-14 1.26117e-07)
(2.3175e-05 1.27715e-05 -1.65469e-19 -3.53888e-06 -1.73119e-06 3.50399e-14 -5.248e-14 -2.27984e-14 -1.08788e-07)
(2.40281e-05 1.48888e-05 5.33346e-19 -4.82642e-06 -2.62699e-06 2.12122e-14 -9.5773e-14 -7.31373e-14 -4.4361e-07)
(2.49333e-05 1.68648e-05 7.20072e-19 -6.44532e-06 -3.75421e-06 -2.5839e-13 -6.28192e-14 -3.08112e-15 -7.79359e-07)
(2.58098e-05 1.85723e-05 -2.12565e-18 -8.4614e-06 -4.8717e-06 -6.75977e-14 -1.98436e-13 1.98778e-14 -1.22229e-06)
(2.6482e-05 2.00055e-05 4.5408e-18 -1.08965e-05 -6.10918e-06 5.27828e-13 -6.52735e-14 -3.44806e-14 -1.64122e-06)
(2.68282e-05 2.0944e-05 -2.86112e-18 -1.37597e-05 -7.10522e-06 -1.4782e-13 9.63423e-14 -2.27369e-13 -2.15386e-06)
(2.64829e-05 2.15052e-05 -3.18154e-17 -1.68056e-05 -7.95494e-06 -8.48884e-13 -8.17865e-14 -4.72955e-14 -2.59246e-06)
(2.5303e-05 2.13928e-05 -7.15428e-18 -1.99774e-05 -8.10402e-06 1.7782e-13 -2.57433e-14 3.39971e-13 -3.08288e-06)
(2.27988e-05 2.10843e-05 4.53528e-17 -2.23955e-05 -7.74895e-06 1.09471e-12 -8.42908e-14 -2.98473e-14 -3.40943e-06)
(1.91091e-05 2.02658e-05 3.09536e-17 -2.38333e-05 -6.22406e-06 1.90609e-13 -4.12662e-13 -6.34521e-13 -3.72606e-06)
(1.39865e-05 2.0073e-05 -5.45205e-17 -2.27129e-05 -4.28733e-06 -3.75498e-13 -4.42449e-13 -6.0248e-14 -3.77132e-06)
(2.0898e-05 1.56889e-06 -1.41617e-19 -2.8802e-07 5.67832e-07 2.03091e-14 -1.54039e-14 5.398e-14 5.92846e-07)
(2.40067e-05 3.12535e-06 -2.10798e-19 -8.77862e-07 -1.88606e-06 4.13243e-14 -5.62189e-14 -2.29883e-14 -1.75864e-06)
(2.42726e-05 5.06288e-06 6.28593e-19 -1.59574e-06 -2.14517e-06 -4.18936e-14 -2.73703e-14 -6.08081e-14 -1.8524e-06)
(2.4647e-05 6.98494e-06 -4.12453e-19 -2.27749e-06 -2.57487e-06 -3.25885e-13 3.84258e-14 3.55199e-14 -1.97456e-06)
(2.51135e-05 8.84558e-06 -1.60087e-18 -3.22639e-06 -3.0825e-06 1.38643e-13 3.43017e-14 1.04096e-13 -2.17016e-06)
(2.56776e-05 1.06116e-05 3.7391e-18 -4.28506e-06 -3.78673e-06 7.63569e-13 -6.43217e-14 -5.6438e-14 -2.37514e-06)
(2.62643e-05 1.22293e-05 1.29925e-18 -5.60734e-06 -4.51575e-06 1.26103e-13 -1.4261e-13 -2.14497e-13 -2.66607e-06)
(2.68309e-05 1.36692e-05 -1.67897e-17 -7.1923e-06 -5.39987e-06 -9.76775e-13 -8.55789e-14 -6.13702e-14 -2.94517e-06)
(2.72952e-05 1.48338e-05 -1.10615e-17 -9.03598e-06 -6.21592e-06 -1.82764e-13 -1.28723e-13 1.19633e-13 -3.30907e-06)
(2.74922e-05 1.57331e-05 2.718e-17 -1.1153e-05 -7.05614e-06 1.16865e-12 -6.96811e-14 -4.57278e-14 -3.63396e-06)
(2.73466e-05 1.6215e-05 -1.73053e-17 -1.34655e-05 -7.6301e-06 -2.76269e-13 -3.10963e-14 -3.12201e-13 -4.02327e-06)
(2.6553e-05 1.64193e-05 -8.67351e-17 -1.57451e-05 -8.00526e-06 -1.41763e-12 -4.01554e-14 -1.1336e-14 -4.3295e-06)
(2.50969e-05 1.61533e-05 -1.26809e-17 -1.78961e-05 -7.80426e-06 2.68885e-13 9.51908e-14 3.46868e-13 -4.66076e-06)
(2.26244e-05 1.58483e-05 8.73526e-17 -1.92014e-05 -7.20655e-06 1.5554e-12 -7.36274e-14 -2.87886e-14 -4.84427e-06)
(1.94139e-05 1.527e-05 4.32702e-17 -1.95668e-05 -5.82542e-06 2.56324e-13 -4.58241e-13 -5.34815e-13 -5.01124e-06)
(1.53283e-05 1.52706e-05 -8.7791e-17 -1.78885e-05 -4.28665e-06 -5.0799e-13 -3.91235e-13 -5.30409e-14 -4.96966e-06)
(2.39191e-05 1.33977e-06 1.1316e-19 -4.05371e-07 -1.77099e-06 -5.97398e-14 -1.68974e-14 -1.63509e-13 -1.74612e-06)
(2.63896e-05 2.59329e-06 -7.32767e-19 -1.0468e-06 -3.83103e-06 8.7434e-14 -6.73896e-14 -3.21223e-14 -3.7229e-06)
(2.6574e-05 4.1864e-06 -9.94101e-19 -1.89279e-06 -4.04488e-06 -8.61457e-14 -3.18421e-14 -1.33104e-13 -3.80236e-06)
(2.68417e-05 5.74501e-06 -7.18904e-18 -2.65826e-06 -4.40358e-06 -6.44087e-13 4.32788e-14 5.13569e-14 -3.90277e-06)
(2.71448e-05 7.22481e-06 -1.65419e-18 -3.68023e-06 -4.80714e-06 2.60019e-13 4.7043e-14 2.12096e-13 -4.06682e-06)
(2.75034e-05 8.5904e-06 1.74523e-17 -4.77262e-06 -5.36527e-06 1.35974e-12 -7.22495e-14 -8.25162e-14 -4.22977e-06)
(2.78267e-05 9.79886e-06 -6.12237e-19 -6.06235e-06 -5.90828e-06 2.10998e-13 -1.77946e-13 -3.27419e-13 -4.46516e-06)
(2.80818e-05 1.08242e-05 -5.16788e-17 -7.5498e-06 -6.54802e-06 -1.55112e-12 -1.02573e-13 -1.06435e-13 -4.67677e-06)
(2.8192e-05 1.15987e-05 -2.29883e-17 -9.16978e-06 -7.08512e-06 -2.73593e-13 -6.50117e-14 1.99018e-13 -4.95506e-06)
(2.8016e-05 1.21423e-05 5.79008e-17 -1.09517e-05 -7.59064e-06 1.66708e-12 -7.06306e-14 -5.30502e-14 -5.18391e-06)
(2.75201e-05 1.23574e-05 -3.52472e-17 -1.27541e-05 -7.84195e-06 -3.74806e-13 -1.28432e-13 -3.66065e-13 -5.45734e-06)
(2.64586e-05 1.23823e-05 -1.46702e-16 -1.4397e-05 -7.89054e-06 -1.84881e-12 -1.08262e-14 1.23179e-14 -5.64645e-06)
(2.48999e-05 1.20937e-05 -1.87523e-17 -1.57715e-05 -7.49407e-06 3.37333e-13 1.73848e-13 3.37908e-13 -5.84671e-06)
(2.25845e-05 1.18494e-05 1.27525e-16 -1.63117e-05 -6.80474e-06 1.90074e-12 -6.36648e-14 -2.78512e-14 -5.91989e-06)
(1.98377e-05 1.14693e-05 5.3878e-17 -1.60229e-05 -5.60719e-06 3.05762e-13 -4.62581e-13 -4.53745e-13 -5.9781e-06)
(1.65627e-05 1.15746e-05 -1.17932e-16 -1.40908e-05 -4.38895e-06 -6.07385e-13 -3.41411e-13 -4.97402e-14 -5.87846e-06)
(2.63242e-05 1.11221e-06 -3.20026e-19 -4.97918e-07 -3.73384e-06 -1.26998e-13 -2.20789e-14 -3.46141e-13 -3.71131e-06)
(2.81988e-05 2.09959e-06 -1.32739e-18 -1.15561e-06 -5.41497e-06 1.25159e-13 -7.3095e-14 -3.88507e-14 -5.33001e-06)
(2.82991e-05 3.37836e-06 -4.26596e-18 -2.08403e-06 -5.57511e-06 -1.22235e-13 -3.37705e-14 -1.92579e-13 -5.39237e-06)
(2.8459e-05 4.61305e-06 -1.75288e-17 -2.89103e-06 -5.85319e-06 -9.02203e-13 4.58025e-14 6.3395e-14 -5.4669e-06)
(2.86027e-05 5.76414e-06 -4.43611e-19 -3.93633e-06 -6.14308e-06 3.57833e-13 5.59167e-14 3.00808e-13 -5.59511e-06)
(2.8769e-05 6.79738e-06 3.544e-17 -5.01611e-06 -6.55141e-06 1.83601e-12 -7.6478e-14 -1.02285e-13 -5.71142e-06)
(2.88574e-05 7.68193e-06 -3.96652e-18 -6.22728e-06 -6.91314e-06 2.78151e-13 -2.00676e-13 -4.15439e-13 -5.88851e-06)
(2.88506e-05 8.39575e-06 -9.24435e-17 -7.58381e-06 -7.33075e-06 -2.00045e-12 -1.13003e-13 -1.40248e-13 -6.03146e-06)
(2.86818e-05 8.89724e-06 -3.5478e-17 -8.96567e-06 -7.62973e-06 -3.43813e-13 -1.10319e-14 2.59912e-13 -6.22773e-06)
(2.82369e-05 9.20961e-06 8.94523e-17 -1.04336e-05 -7.87022e-06 2.04784e-12 -6.89663e-14 -5.76643e-14 -6.36801e-06)
(2.75169e-05 9.27639e-06 -5.22428e-17 -1.17979e-05 -7.88829e-06 -4.49244e-13 -1.98503e-13 -3.98196e-13 -6.54071e-06)
(2.63266e-05 9.2205e-06 -2.02595e-16 -1.294e-05 -7.72392e-06 -2.17163e-12 7.62611e-15 2.71464e-14 -6.63246e-06)
(2.47847e-05 8.96521e-06 -2.51457e-17 -1.37486e-05 -7.23459e-06 3.88308e-13 2.21668e-13 3.21845e-13 -6.72988e-06)
(2.26933e-05 8.79423e-06 1.62366e-16 -1.37822e-05 -6.53898e-06 2.15802e-12 -5.43882e-14 -2.71765e-14 -6.72125e-06)
(2.03796e-05 8.56649e-06 6.29755e-17 -1.31205e-05 -5.53218e-06 3.42818e-13 -4.44163e-13 -3.88974e-13 -6.7028e-06)
(1.77628e-05 8.73728e-06 -1.43585e-16 -1.11167e-05 -4.57905e-06 -6.8217e-13 -2.95553e-13 -4.82522e-14 -6.56689e-06)
(2.81569e-05 9.00868e-07 -1.14672e-18 -5.62066e-07 -5.33899e-06 -1.82057e-13 -2.77081e-14 -4.95571e-13 -5.32009e-06)
(2.95161e-05 1.66396e-06 -1.86108e-18 -1.20539e-06 -6.67559e-06 1.55315e-13 -7.45175e-14 -4.36674e-14 -6.61472e-06)
(2.95368e-05 2.66915e-06 -8.38412e-18 -2.1738e-06 -6.78044e-06 -1.50997e-13 -3.41944e-14 -2.40349e-13 -6.65936e-06)
(2.95968e-05 3.62743e-06 -2.91634e-17 -2.98466e-06 -6.97789e-06 -1.10688e-12 4.56124e-14 7.2355e-14 -6.70724e-06)
(2.95961e-05 4.50571e-06 1.61802e-18 -4.0129e-06 -7.1568e-06 4.34926e-13 5.85717e-14 3.71884e-13 -6.79953e-06)
(2.95948e-05 5.27233e-06 5.42847e-17 -5.04581e-06 -7.4252e-06 2.20836e-12 -7.7605e-14 -1.16973e-13 -6.86983e-06)
(2.94858e-05 5.90812e-06 -7.90503e-18 -6.14992e-06 -7.62379e-06 3.30182e-13 -2.10457e-13 -4.82536e-13 -6.99151e-06)
(2.92705e-05 6.39387e-06 -1.32583e-16 -7.36179e-06 -7.85192e-06 -2.34512e-12 -1.17819e-13 -1.64979e-13 -7.07065e-06)
(2.88924e-05 6.70923e-06 -4.72858e-17 -8.51255e-06 -7.95823e-06 -3.97114e-13 3.06593e-14 3.05221e-13 -7.19389e-06)
(2.82643e-05 6.87559e-06 1.18273e-16 -9.70437e-06 -7.99773e-06 2.33387e-12 -6.50786e-14 -6.04641e-14 -7.25753e-06)
(2.74135e-05 6.866e-06 -6.64237e-17 -1.07088e-05 -7.85438e-06 -5.04644e-13 -2.43559e-13 -4.15842e-13 -7.34702e-06)
(2.61843e-05 6.78201e-06 -2.50779e-16 -1.14718e-05 -7.55796e-06 -2.41022e-12 1.79288e-14 3.60086e-14 -7.36125e-06)
(2.47232e-05 6.57782e-06 -3.15711e-17 -1.18819e-05 -7.03818e-06 4.25862e-13 2.46545e-13 3.03893e-13 -7.38051e-06)
(2.28721e-05 6.47159e-06 1.90985e-16 -1.1596e-05 -6.37842e-06 2.34797e-12 -4.6208e-14 -2.67507e-14 -7.3129e-06)
(2.09404e-05 6.3521e-06 7.0667e-17 -1.07448e-05 -5.54687e-06 3.70367e-13 -4.14166e-13 -3.38592e-13 -7.24158e-06)
(1.88509e-05 6.55436e-06 -1.64591e-16 -8.78017e-06 -4.80399e-06 -7.3783e-13 -2.54312e-13 -4.82131e-14 -7.08424e-06)
(2.94968e-05 7.14239e-07 -2.1552e-18 -5.98161e-07 -6.62155e-06 -2.26092e-13 -2.71503e-14 -6.15028e-13 -6.60678e-06)
(3.04263e-05 1.29659e-06 -2.27857e-18 -1.20096e-06 -7.65995e-06 1.78961e-13 -7.30529e-14 -4.70327e-14 -7.62207e-06)
(3.03761e-05 2.07373e-06 -1.28169e-17 -2.17112e-06 -7.71225e-06 -1.73482e-13 -3.16558e-14 -2.77984e-13 -7.64983e-06)
(3.03495e-05 2.80536e-06 -4.07918e-17 -2.95502e-06 -7.83499e-06 -1.26613e-12 4.39036e-14 7.89163e-14 -7.67234e-06)
(3.02254e-05 3.46526e-06 4.17415e-18 -3.93423e-06 -7.91256e-06 4.94577e-13 5.57112e-14 4.27796e-13 -7.73135e-06)
(3.00858e-05 4.02461e-06 7.22403e-17 -4.89795e-06 -8.05784e-06 2.49424e-12 -7.55922e-14 -1.2769e-13 -7.75924e-06)
(2.98196e-05 4.47464e-06 -1.19042e-17 -5.87987e-06 -8.11696e-06 3.69804e-13 -2.09486e-13 -5.32912e-13 -7.83155e-06)
(2.94471e-05 4.79735e-06 -1.69191e-16 -6.94831e-06 -8.19034e-06 -2.60511e-12 -1.17307e-13 -1.82586e-13 -7.85455e-06)
(2.89216e-05 4.98902e-06 -5.79767e-17 -7.88818e-06 -8.14664e-06 -4.36942e-13 6.10794e-14 3.38375e-13 -7.91596e-06)
(2.81792e-05 5.06571e-06 1.43244e-16 -8.85e-06 -8.03878e-06 2.54561e-12 -6.01676e-14 -6.20711e-14 -7.91604e-06)
(2.72668e-05 5.02158e-06 -7.75185e-17 -9.57086e-06 -7.78854e-06 -5.45335e-13 -2.69568e-13 -4.24422e-13 -7.9393e-06)
(2.60576e-05 4.93519e-06 -2.90903e-16 -1.00597e-05 -7.41569e-06 -2.58451e-12 2.13823e-14 4.08805e-14 -7.89369e-06)
(2.47128e-05 4.78229e-06 -3.77703e-17 -1.02028e-05 -6.9025e-06 4.53261e-13 2.56331e-13 2.86604e-13 -7.85519e-06)
(2.30978e-05 4.72658e-06 2.13997e-16 -9.73275e-06 -6.29766e-06 2.48712e-12 -3.89702e-14 -2.65365e-14 -7.74635e-06)
(2.14995e-05 4.68111e-06 7.70754e-17 -8.81582e-06 -5.62119e-06 3.90725e-13 -3.79349e-13 -2.99523e-13 -7.63972e-06)
(1.98381e-05 4.89451e-06 -1.8158e-16 -6.95912e-06 -5.04666e-06 -7.79104e-13 -2.17268e-13 -4.89535e-14 -7.47147e-06)
(3.04273e-05 5.56762e-07 -3.21153e-18 -6.08128e-07 -7.62677e-06 -2.60634e-13 -2.69937e-14 -7.08697e-13 -7.61617e-06)
(3.10237e-05 9.99486e-07 -2.58118e-18 -1.14986e-06 -8.41797e-06 1.97245e-13 -6.79849e-14 -4.93249e-14 -8.40093e-06)
(3.09127e-05 1.59405e-06 -1.72776e-17 -2.09058e-06 -8.42277e-06 -1.90817e-13 -2.77791e-14 -3.07211e-13 -8.41339e-06)
(3.08137e-05 2.14673e-06 -5.18744e-17 -2.8229e-06 -8.47953e-06 -1.38833e-12 4.03552e-14 8.36576e-14 -8.41298e-06)
(3.05878e-05 2.63796e-06 6.95265e-18 -3.73014e-06 -8.46845e-06 5.40111e-13 4.7909e-14 4.71179e-13 -8.44257e-06)
(3.03383e-05 3.04128e-06 8.8757e-17 -4.61095e-06 -8.5095e-06 2.71082e-12 -7.16745e-14 -1.354e-13 -8.43308e-06)
(2.9951e-05 3.35671e-06 -1.56944e-17 -5.46555e-06 -8.45329e-06 3.9959e-13 -1.98324e-13 -5.70304e-13 -8.46314e-06)
(2.94641e-05 3.56598e-06 -2.01716e-16 -6.3999e-06 -8.40391e-06 -2.79877e-12 -1.12473e-13 -1.94833e-13 -8.43851e-06)
(2.88395e-05 3.67795e-06 -6.75803e-17 -7.1548e-06 -8.24628e-06 -4.66351e-13 8.02082e-14 3.62392e-13 -8.44923e-06)
(2.80327e-05 3.70144e-06 1.64604e-16 -7.93254e-06 -8.033e-06 2.70058e-12 -5.41709e-14 -6.29132e-14 -8.39802e-06)
(2.71044e-05 3.64572e-06 -8.6037e-17 -8.4373e-06 -7.71487e-06 -5.74912e-13 -2.80094e-13 -4.27677e-13 -8.36985e-06)
(2.59483e-05 3.56728e-06 -3.24241e-16 -8.73754e-06 -7.30192e-06 -2.71063e-12 2.04086e-14 4.3177e-14 -8.27898e-06)
(2.47324e-05 3.4577e-06 -4.35642e-17 -8.7133e-06 -6.81494e-06 4.73085e-13 2.5517e-13 2.71235e-13 -8.19862e-06)
(2.33352e-05 3.43657e-06 2.32635e-16 -8.15614e-06 -6.27027e-06 2.58832e-12 -3.27481e-14 -2.64705e-14 -8.0616e-06)
(2.20222e-05 3.43759e-06 8.23138e-17 -7.25526e-06 -5.7269e-06 4.05674e-13 -3.43014e-13 -2.69389e-13 -7.93207e-06)
(2.07086e-05 3.64622e-06 -1.95451e-16 -5.54828e-06 -5.28593e-06 -8.09508e-13 -1.84298e-13 -5.01548e-14 -7.75979e-06)
(3.1042e-05 4.29333e-07 -4.24911e-18 -5.95775e-07 -8.40367e-06 -2.8735e-13 -2.71787e-14 -7.81121e-13 -8.39693e-06)
(3.1392e-05 7.70075e-07 -2.80646e-18 -1.05899e-06 -8.99797e-06 2.11288e-13 -6.07919e-14 -5.08678e-14 -8.9991e-06)
(3.12302e-05 1.22497e-06 -2.16558e-17 -1.94405e-06 -8.96113e-06 -2.04095e-13 -2.24364e-14 -3.29775e-13 -8.99824e-06)
(3.10726e-05 1.64243e-06 -6.23959e-17 -2.60618e-06 -8.96155e-06 -1.4815e-12 3.518e-14 8.70793e-14 -8.9777e-06)
(3.07649e-05 2.00887e-06 9.76413e-18 -3.42429e-06 -8.87497e-06 5.74662e-13 3.5614e-14 5.0475e-13 -8.98219e-06)
(3.043e-05 2.29943e-06 1.0407e-16 -4.21542e-06 -8.82997e-06 2.87393e-12 -6.58337e-14 -1.40906e-13 -8.94059e-06)
(2.99519e-05 2.52129e-06 -1.91973e-17 -4.94329e-06 -8.68023e-06 4.21866e-13 -1.79827e-13 -5.98126e-13 -8.93553e-06)
(2.93844e-05 2.65474e-06 -2.31064e-16 -5.75781e-06 -8.53511e-06 -2.9423e-12 -1.04481e-13 -2.03141e-13 -8.87131e-06)
(2.86968e-05 2.71811e-06 -7.64269e-17 -6.35527e-06 -8.29211e-06 -4.87971e-13 9.07929e-14 3.80044e-13 -8.84138e-06)
(2.78596e-05 2.71208e-06 1.83412e-16 -6.99208e-06 -8.0045e-06 2.81353e-12 -4.79766e-14 -6.32774e-14 -8.74934e-06)
(2.69439e-05 2.65712e-06 -9.29157e-17 -7.33917e-06 -7.645e-06 -5.96342e-13 -2.79785e-13 -4.2826e-13 -8.68184e-06)
(2.5857e-05 2.58947e-06 -3.52976e-16 -7.52025e-06 -7.21444e-06 -2.80163e-12 1.53344e-14 4.38274e-14 -8.55701e-06)
(2.47699e-05 2.51343e-06 -4.88442e-17 -7.4055e-06 -6.76259e-06 4.87404e-13 2.47565e-13 2.58254e-13 -8.44668e-06)
(2.35675e-05 2.51294e-06 2.48469e-16 -6.83165e-06 -6.2762e-06 2.66186e-12 -2.74484e-14 -2.64984e-14 -8.2907e-06)
(2.24972e-05 2.54004e-06 8.64958e-17 -6.00395e-06 -5.84576e-06 4.16654e-13 -3.07711e-13 -2.46075e-13 -8.1468e-06)
(2.14677e-05 2.73298e-06 -2.07288e-16 -4.47266e-06 -5.5115e-06 -8.31943e-13 -1.54733e-13 -5.15155e-14 -7.97477e-06)
(3.14246e-05 3.30892e-07 -5.24958e-18 -5.64335e-07 -9.00012e-06 -3.07874e-13 -2.76746e-14 -8.36744e-13 -8.99682e-06)
(3.16105e-05 6.03592e-07 -3.00693e-18 -9.35864e-07 -9.44525e-06 2.22155e-13 -5.1847e-14 -5.19067e-14 -9.46198e-06)
(3.14065e-05 9.58076e-07 -2.59706e-17 -1.74528e-06 -9.37246e-06 -2.14342e-13 -1.53455e-14 -3.47321e-13 -9.44969e-06)
(3.12017e-05 1.27938e-06 -7.26756e-17 -2.32315e-06 -9.32551e-06 -1.5531e-12 2.89661e-14 8.95839e-14 -9.41174e-06)
(3.08284e-05 1.55907e-06 1.24899e-17 -3.04083e-06 -9.17532e-06 6.01106e-13 1.88684e-14 5.3098e-13 -9.39515e-06)
(3.04275e-05 1.77295e-06 1.18878e-16 -3.73963e-06 -9.06e-06 2.99788e-12 -5.90105e-14 -1.44879e-13 -9.32628e-06)
(2.98814e-05 1.93389e-06 -2.24506e-17 -4.34534e-06 -8.83475e-06 4.3869e-13 -1.54261e-13 -6.19178e-13 -9.29237e-06)
(2.92573e-05 2.01994e-06 -2.58955e-16 -5.05556e-06 -8.61519e-06 -3.04977e-12 -9.38244e-14 -2.08724e-13 -9.19544e-06)
(2.85306e-05 2.05643e-06 -8.50141e-17 -5.52189e-06 -8.30793e-06 -5.04052e-13 9.32975e-14 3.93473e-13 -9.13312e-06)
(2.76835e-05 2.0358e-06 2.01129e-16 -6.05563e-06 -7.96781e-06 2.89686e-12 -4.11685e-14 -6.33645e-14 -9.00856e-06)
(2.67948e-05 1.98717e-06 -9.92496e-17 -6.2932e-06 -7.58362e-06 -6.1208e-13 -2.70634e-13 -4.27936e-13 -8.911e-06)
(2.57802e-05 1.92875e-06 -3.79722e-16 -6.41019e-06 -7.14807e-06 -2.8682e-12 7.86194e-15 4.34729e-14 -8.76045e-06)
(2.48126e-05 1.87585e-06 -5.35579e-17 -6.26245e-06 -6.73299e-06 4.97904e-13 2.35017e-13 2.47832e-13 -8.62856e-06)
(2.37783e-05 1.88347e-06 2.63224e-16 -5.72332e-06 -6.29878e-06 2.71608e-12 -2.27337e-14 -2.65711e-14 -8.45964e-06)
(2.29112e-05 1.92049e-06 8.97092e-17 -5.00747e-06 -5.96251e-06 4.24834e-13 -2.73981e-13 -2.28134e-13 -8.30676e-06)
(2.21127e-05 2.08907e-06 -2.1821e-16 -3.66819e-06 -5.71263e-06 -8.48719e-13 -1.28128e-13 -5.28576e-14 -8.13706e-06)
(3.16547e-05 2.5942e-07 -6.22817e-18 -5.17741e-07 -9.46151e-06 -3.23758e-13 -2.50807e-14 -8.79786e-13 -9.46117e-06)