/*--------------------------------*- C++ -*----------------------------------*\
| =========                 |                                                 |
| \\      /  F ield         | foam-extend: Open Source CFD                    |
|  \\    /   O peration     | Version:     4.1-20200408                       |
|   \\  /    A nd           | Web:         http://www.foam-extend.org         |
|    \\/     M anipulation  |                                                 |
\*---------------------------------------------------------------------------*/
FoamFile
{
    version     2.0;
    format      ascii;
    class       volVectorField;
    location    "0.0060000";
    object      U;
}
// * * * * * * * * * * * * * * * * * * * * * * * * * * * * * * * * * * * * * //

dimensions      [0 1 0 0 0 0 0];

internalField   nonuniform List<vector> 
1952
(
(0.00598826 -5.00678e-08 0)
(0.00598839 -4.93058e-08 0)
(0.00598851 -4.8307e-08 0)
(0.00598826 -8.15682e-08 0)
(0.00598839 -8.03235e-08 0)
(0.00598851 -7.86837e-08 0)
(0.00598826 -1.13406e-07 0)
(0.00598838 -1.11657e-07 0)
(0.00598851 -1.09349e-07 0)
(0.00598826 -1.45565e-07 0)
(0.00598838 -1.43305e-07 0)
(0.00598851 -1.40292e-07 0)
(0.00598825 -1.7754e-07 0)
(0.00598838 -1.74734e-07 0)
(0.0059885 -1.7097e-07 0)
(0.00598825 -2.0999e-07 0)
(0.00598837 -2.06632e-07 0)
(0.0059885 -2.02054e-07 0)
(0.00598824 -2.41965e-07 0)
(0.00598837 -2.37995e-07 0)
(0.00598849 -2.32518e-07 0)
(0.00598824 -2.74749e-07 0)
(0.00598836 -2.70167e-07 0)
(0.00598849 -2.63677e-07 0)
(0.00598823 -3.06717e-07 0)
(0.00598836 -3.01437e-07 0)
(0.00598848 -2.93794e-07 0)
(0.00598822 -3.39946e-07 0)
(0.00598835 -3.33989e-07 0)
(0.00598847 -3.24993e-07 0)
(0.00598822 -3.71892e-07 0)
(0.00598834 -3.65175e-07 0)
(0.00598846 -3.54641e-07 0)
(0.0059882 -4.05617e-07 0)
(0.00598832 -3.98257e-07 0)
(0.00598844 -3.85863e-07 0)
(0.00598819 -4.37249e-07 0)
(0.00598831 -4.29336e-07 0)
(0.00598842 -4.15008e-07 0)
(0.00598818 -4.70896e-07 0)
(0.00598829 -4.62892e-07 0)
(0.0059884 -4.46414e-07 0)
(0.00598816 -5.00476e-07 0)
(0.00598826 -4.93149e-07 0)
(0.00598837 -4.75634e-07 0)
(0.00598826 -2.14576e-08 0)
(0.00598839 -2.11316e-08 0)
(0.00598852 -2.07042e-08 0)
(0.00598815 -5.1591e-08 0)
(0.00598815 -8.40527e-08 0)
(0.00598815 -1.16877e-07 0)
(0.00598814 -1.5003e-07 0)
(0.00598814 -1.83025e-07 0)
(0.00598814 -2.16493e-07 0)
(0.00598813 -2.49518e-07 0)
(0.00598813 -2.83322e-07 0)
(0.00598812 -3.16333e-07 0)
(0.00598812 -3.50497e-07 0)
(0.00598811 -3.83336e-07 0)
(0.0059881 -4.17654e-07 0)
(0.00598809 -4.4967e-07 0)
(0.00598808 -4.83089e-07 0)
(0.00598808 -5.12017e-07 0)
(0.00598815 -2.21099e-08 0)
(0.00598804 -5.29113e-08 0)
(0.00598803 -8.62009e-08 0)
(0.00598803 -1.19868e-07 0)
(0.00598803 -1.53859e-07 0)
(0.00598803 -1.87698e-07 0)
(0.00598803 -2.21984e-07 0)
(0.00598802 -2.55824e-07 0)
(0.00598802 -2.90377e-07 0)
(0.00598801 -3.24095e-07 0)
(0.00598801 -3.58821e-07 0)
(0.005988 -3.92095e-07 0)
(0.005988 -4.26563e-07 0)
(0.00598799 -4.58483e-07 0)
(0.00598799 -4.91407e-07 0)
(0.00598799 -5.19743e-07 0)
(0.00598804 -2.26753e-08 0)
(0.00598792 -5.3936e-08 0)
(0.00598792 -8.78591e-08 0)
(0.00598792 -1.22162e-07 0)
(0.00598792 -1.5676e-07 0)
(0.00598791 -1.91197e-07 0)
(0.00598791 -2.26013e-07 0)
(0.00598791 -2.60362e-07 0)
(0.00598791 -2.95295e-07 0)
(0.0059879 -3.29351e-07 0)
(0.0059879 -3.64195e-07 0)
(0.0059879 -3.97516e-07 0)
(0.0059879 -4.31712e-07 0)
(0.0059879 -4.6331e-07 0)
(0.0059879 -4.95605e-07 0)
(0.0059879 -5.23497e-07 0)
(0.00598792 -2.31143e-08 0)
(0.0059878 -5.47619e-08 0)
(0.0059878 -8.91911e-08 0)
(0.0059878 -1.23993e-07 0)
(0.0059878 -1.59058e-07 0)
(0.0059878 -1.93933e-07 0)
(0.0059878 -2.29123e-07 0)
(0.0059878 -2.63793e-07 0)
(0.0059878 -2.98936e-07 0)
(0.0059878 -3.33118e-07 0)
(0.00598779 -3.6792e-07 0)
(0.00598779 -4.01094e-07 0)
(0.0059878 -4.34929e-07 0)
(0.0059878 -4.66127e-07 0)
(0.0059878 -4.97847e-07 0)
(0.00598782 -5.25409e-07 0)
(0.0059878 -2.34683e-08 0)
(0.00598769 -5.5303e-08 0)
(0.00598769 -9.00554e-08 0)
(0.00598769 -1.2517e-07 0)
(0.00598769 -1.60505e-07 0)
(0.00598769 -1.95625e-07 0)
(0.00598769 -2.30976e-07 0)
(0.00598769 -2.65774e-07 0)
(0.00598769 -3.00911e-07 0)
(0.00598769 -3.35049e-07 0)
(0.00598769 -3.69623e-07 0)
(0.00598769 -4.02548e-07 0)
(0.0059877 -4.35933e-07 0)
(0.0059877 -4.66742e-07 0)
(0.00598771 -4.97941e-07 0)
(0.00598773 -5.25237e-07 0)
(0.00598769 -2.37003e-08 0)
(0.00598757 -5.56745e-08 0)
(0.00598757 -9.06441e-08 0)
(0.00598757 -1.25958e-07 0)
(0.00598757 -1.61455e-07 0)
(0.00598757 -1.96701e-07 0)
(0.00598757 -2.32109e-07 0)
(0.00598758 -2.66911e-07 0)
(0.00598758 -3.01954e-07 0)
(0.00598758 -3.35935e-07 0)
(0.00598758 -3.70228e-07 0)
(0.00598759 -4.02833e-07 0)
(0.0059876 -4.35773e-07 0)
(0.00598761 -4.66192e-07 0)
(0.00598762 -4.96929e-07 0)
(0.00598765 -5.24009e-07 0)
(0.00598757 -2.38598e-08 0)
(0.00598746 -5.58311e-08 0)
(0.00598746 -9.08823e-08 0)
(0.00598746 -1.26264e-07 0)
(0.00598746 -1.61787e-07 0)
(0.00598746 -1.97035e-07 0)
(0.00598746 -2.32371e-07 0)
(0.00598747 -2.67076e-07 0)
(0.00598747 -3.01915e-07 0)
(0.00598747 -3.35675e-07 0)
(0.00598748 -3.6962e-07 0)
(0.00598749 -4.01889e-07 0)
(0.0059875 -4.34379e-07 0)
(0.00598752 -4.64435e-07 0)
(0.00598753 -4.9475e-07 0)
(0.00598756 -5.21625e-07 0)
(0.00598746 -2.39271e-08 0)
(0.00598735 -5.58554e-08 0)
(0.00598735 -9.09073e-08 0)
(0.00598735 -1.26271e-07 0)
(0.00598735 -1.61744e-07 0)
(0.00598735 -1.9691e-07 0)
(0.00598735 -2.32111e-07 0)
(0.00598736 -2.66642e-07 0)
(0.00598736 -3.01234e-07 0)
(0.00598737 -3.34713e-07 0)
(0.00598738 -3.68296e-07 0)
(0.00598739 -4.00204e-07 0)
(0.0059874 -4.32262e-07 0)
(0.00598742 -4.61964e-07 0)
(0.00598745 -4.91891e-07 0)
(0.00598748 -5.18582e-07 0)
(0.00598735 -2.39379e-08 0)
(0.00598723 -5.57331e-08 0)
(0.00598723 -9.06947e-08 0)
(0.00598724 -1.25956e-07 0)
(0.00598724 -1.61292e-07 0)
(0.00598724 -1.96305e-07 0)
(0.00598725 -2.31299e-07 0)
(0.00598725 -2.65606e-07 0)
(0.00598726 -2.99902e-07 0)
(0.00598727 -3.3308e-07 0)
(0.00598728 -3.66284e-07 0)
(0.00598729 -3.97835e-07 0)
(0.00598731 -4.29473e-07 0)
(0.00598733 -4.58835e-07 0)
(0.00598736 -4.88394e-07 0)
(0.00598739 -5.14887e-07 0)
(0.00598723 -2.38855e-08 0)
(0.00598712 -5.55118e-08 0)
(0.00598712 -9.03237e-08 0)
(0.00598713 -1.2542e-07 0)
(0.00598713 -1.60568e-07 0)
(0.00598713 -1.95371e-07 0)
(0.00598714 -2.30117e-07 0)
(0.00598715 -2.64155e-07 0)
(0.00598715 -2.98132e-07 0)
(0.00598717 -3.3098e-07 0)
(0.00598718 -3.63801e-07 0)
(0.0059872 -3.94988e-07 0)
(0.00598722 -4.2622e-07 0)
(0.00598724 -4.55249e-07 0)
(0.00598727 -4.84457e-07 0)
(0.00598731 -5.10757e-07 0)
(0.00598712 -2.37909e-08 0)
(0.00598701 -5.51906e-08 0)
(0.00598701 -8.97916e-08 0)
(0.00598702 -1.24668e-07 0)
(0.00598702 -1.59572e-07 0)
(0.00598703 -1.94124e-07 0)
(0.00598703 -2.28582e-07 0)
(0.00598704 -2.62326e-07 0)
(0.00598705 -2.95964e-07 0)
(0.00598707 -3.28476e-07 0)
(0.00598708 -3.60916e-07 0)
(0.0059871 -3.91745e-07 0)
(0.00598713 -4.22585e-07 0)
(0.00598716 -4.51285e-07 0)
(0.00598719 -4.80149e-07 0)
(0.00598723 -5.06231e-07 0)
(0.00598701 -2.36533e-08 0)
(0.0059869 -5.47923e-08 0)
(0.00598691 -8.91369e-08 0)
(0.00598691 -1.23746e-07 0)
(0.00598691 -1.58369e-07 0)
(0.00598692 -1.92628e-07 0)
(0.00598693 -2.2677e-07 0)
(0.00598694 -2.60192e-07 0)
(0.00598695 -2.93477e-07 0)
(0.00598697 -3.25638e-07 0)
(0.00598699 -3.57697e-07 0)
(0.00598701 -3.88166e-07 0)
(0.00598704 -4.18624e-07 0)
(0.00598707 -4.46999e-07 0)
(0.00598711 -4.75528e-07 0)
(0.00598715 -5.01387e-07 0)
(0.0059869 -2.34827e-08 0)
(0.00598679 -5.43126e-08 0)
(0.0059868 -8.83511e-08 0)
(0.0059868 -1.22649e-07 0)
(0.00598681 -1.56947e-07 0)
(0.00598682 -1.90881e-07 0)
(0.00598683 -2.24678e-07 0)
(0.00598684 -2.57758e-07 0)
(0.00598685 -2.90678e-07 0)
(0.00598687 -3.22485e-07 0)
(0.00598689 -3.54167e-07 0)
(0.00598692 -3.84281e-07 0)
(0.00598695 -4.1437e-07 0)
(0.00598698 -4.42419e-07 0)
(0.00598702 -4.70615e-07 0)
(0.00598707 -4.96223e-07 0)
(0.00598679 -2.32771e-08 0)
(0.00598669 -5.37639e-08 0)
(0.00598669 -8.74556e-08 0)
(0.0059867 -1.21401e-07 0)
(0.0059867 -1.5534e-07 0)
(0.00598671 -1.88915e-07 0)
(0.00598672 -2.22342e-07 0)
(0.00598674 -2.55058e-07 0)
(0.00598675 -2.87602e-07 0)
(0.00598677 -3.19043e-07 0)
(0.0059868 -3.50349e-07 0)
(0.00598683 -3.80108e-07 0)
(0.00598686 -4.09834e-07 0)
(0.0059869 -4.37559e-07 0)
(0.00598694 -4.65427e-07 0)
(0.00598699 -4.90775e-07 0)
(0.00598669 -2.30419e-08 0)
(0.00598658 -5.31234e-08 0)
(0.00598659 -8.64124e-08 0)
(0.00598659 -1.19953e-07 0)
(0.0059866 -1.53482e-07 0)
(0.00598661 -1.86657e-07 0)
(0.00598662 -2.19678e-07 0)
(0.00598664 -2.52001e-07 0)
(0.00598666 -2.84147e-07 0)
(0.00598668 -3.1521e-07 0)
(0.00598671 -3.46136e-07 0)
(0.00598674 -3.75538e-07 0)
(0.00598677 -4.04912e-07 0)
(0.00598681 -4.3231e-07 0)
(0.00598686 -4.59856e-07 0)
(0.00598692 -4.84919e-07 0)
(0.00598658 -2.27673e-08 0)
(0.00598648 -5.24088e-08 0)
(0.00598648 -8.52507e-08 0)
(0.00598649 -1.18343e-07 0)
(0.0059865 -1.51425e-07 0)
(0.00598651 -1.84162e-07 0)
(0.00598652 -2.16747e-07 0)
(0.00598654 -2.48654e-07 0)
(0.00598656 -2.80384e-07 0)
(0.00598659 -3.11057e-07 0)
(0.00598662 -3.41598e-07 0)
(0.00598665 -3.70644e-07 0)
(0.00598669 -3.99667e-07 0)
(0.00598673 -4.26742e-07 0)
(0.00598678 -4.53968e-07 0)
(0.00598684 -4.78737e-07 0)
(0.00598648 -2.2461e-08 0)
(0.00598638 -5.15666e-08 0)
(0.00598638 -8.38824e-08 0)
(0.00598639 -1.16451e-07 0)
(0.0059864 -1.4901e-07 0)
(0.00598641 -1.81243e-07 0)
(0.00598643 -2.13329e-07 0)
(0.00598645 -2.44764e-07 0)
(0.00598647 -2.76032e-07 0)
(0.00598649 -3.06276e-07 0)
(0.00598653 -3.36405e-07 0)
(0.00598656 -3.65072e-07 0)
(0.0059866 -3.93743e-07 0)
(0.00598665 -4.20487e-07 0)
(0.0059867 -4.47407e-07 0)
(0.00598676 -4.71867e-07 0)
(0.00598638 -2.20998e-08 0)
(0.00598628 -5.06347e-08 0)
(0.00598628 -8.23699e-08 0)
(0.00598629 -1.14361e-07 0)
(0.0059863 -1.46347e-07 0)
(0.00598631 -1.7803e-07 0)
(0.00598633 -2.09574e-07 0)
(0.00598635 -2.40502e-07 0)
(0.00598638 -2.71278e-07 0)
(0.0059864 -3.01072e-07 0)
(0.00598644 -3.30773e-07 0)
(0.00598648 -3.59055e-07 0)
(0.00598652 -3.87367e-07 0)
(0.00598657 -4.13786e-07 0)
(0.00598663 -4.40396e-07 0)
(0.00598669 -4.64545e-07 0)
(0.00598627 -2.17002e-08 0)
(0.00598618 -4.95199e-08 0)
(0.00598618 -8.05605e-08 0)
(0.00598619 -1.11861e-07 0)
(0.0059862 -1.43162e-07 0)
(0.00598622 -1.74188e-07 0)
(0.00598624 -2.05085e-07 0)
(0.00598626 -2.35408e-07 0)
(0.00598629 -2.65597e-07 0)
(0.00598632 -2.94855e-07 0)
(0.00598635 -3.24047e-07 0)
(0.00598639 -3.51874e-07 0)
(0.00598644 -3.79772e-07 0)
(0.00598649 -4.0582e-07 0)
(0.00598655 -4.32111e-07 0)
(0.00598662 -4.55948e-07 0)
(0.00598617 -2.12222e-08 0)
(0.00598608 -4.82944e-08 0)
(0.00598609 -7.8572e-08 0)
(0.00598609 -1.09114e-07 0)
(0.00598611 -1.39664e-07 0)
(0.00598612 -1.69969e-07 0)
(0.00598614 -2.00159e-07 0)
(0.00598617 -2.29821e-07 0)
(0.0059862 -2.5937e-07 0)
(0.00598623 -2.88048e-07 0)
(0.00598627 -3.16689e-07 0)
(0.00598631 -3.44035e-07 0)
(0.00598636 -3.71491e-07 0)
(0.00598642 -3.97165e-07 0)
(0.00598648 -4.23126e-07 0)
(0.00598655 -4.4667e-07 0)
(0.00598608 -2.06968e-08 0)
(0.00598599 -4.75338e-08 0)
(0.005986 -7.73381e-08 0)
(0.00598601 -1.07412e-07 0)
(0.00598602 -1.37498e-07 0)
(0.00598604 -1.67362e-07 0)
(0.00598606 -1.97116e-07 0)
(0.00598608 -2.2638e-07 0)
(0.00598611 -2.55533e-07 0)
(0.00598615 -2.83863e-07 0)
(0.00598619 -3.12159e-07 0)
(0.00598624 -3.39209e-07 0)
(0.00598629 -3.66369e-07 0)
(0.00598635 -3.91786e-07 0)
(0.00598641 -4.17483e-07 0)
(0.00598649 -4.40775e-07 0)
(0.00598599 -2.03706e-08 0)
(0.00598591 -4.68838e-08 0)
(0.00598591 -7.62851e-08 0)
(0.00598592 -1.05964e-07 0)
(0.00598594 -1.35658e-07 0)
(0.00598595 -1.65157e-07 0)
(0.00598598 -1.94549e-07 0)
(0.005986 -2.23492e-07 0)
(0.00598604 -2.52326e-07 0)
(0.00598607 -2.80386e-07 0)
(0.00598612 -3.08406e-07 0)
(0.00598616 -3.35231e-07 0)
(0.00598622 -3.62152e-07 0)
(0.00598628 -3.8736e-07 0)
(0.00598635 -4.12816e-07 0)
(0.00598642 -4.35872e-07 0)
(0.0059859 -2.00918e-08 0)
(0.00598581 -4.61123e-08 0)
(0.00598582 -7.50348e-08 0)
(0.00598583 -1.04244e-07 0)
(0.00598585 -1.33473e-07 0)
(0.00598587 -1.6254e-07 0)
(0.00598589 -1.91502e-07 0)
(0.00598592 -2.20066e-07 0)
(0.00598595 -2.48517e-07 0)
(0.00598599 -2.76259e-07 0)
(0.00598604 -3.03949e-07 0)
(0.00598609 -3.30513e-07 0)
(0.00598614 -3.57144e-07 0)
(0.00598621 -3.82129e-07 0)
(0.00598628 -4.07317e-07 0)
(0.00598636 -4.30166e-07 0)
(0.00598581 -1.9761e-08 0)
(0.00598572 -4.52804e-08 0)
(0.00598573 -7.36879e-08 0)
(0.00598574 -1.02394e-07 0)
(0.00598576 -1.31125e-07 0)
(0.00598578 -1.59732e-07 0)
(0.0059858 -1.88242e-07 0)
(0.00598583 -2.16408e-07 0)
(0.00598587 -2.44463e-07 0)
(0.00598591 -2.71877e-07 0)
(0.00598596 -2.9923e-07 0)
(0.00598601 -3.25531e-07 0)
(0.00598607 -3.51872e-07 0)
(0.00598614 -3.76636e-07 0)
(0.00598621 -4.01565e-07 0)
(0.00598629 -4.2423e-07 0)
(0.00598572 -1.94043e-08 0)
(0.00598563 -4.43655e-08 0)
(0.00598564 -7.22067e-08 0)
(0.00598566 -1.0036e-07 0)
(0.00598567 -1.28547e-07 0)
(0.00598569 -1.56652e-07 0)
(0.00598572 -1.84669e-07 0)
(0.00598575 -2.12405e-07 0)
(0.00598579 -2.40034e-07 0)
(0.00598583 -2.67104e-07 0)
(0.00598588 -2.94102e-07 0)
(0.00598593 -3.20143e-07 0)
(0.005986 -3.46195e-07 0)
(0.00598607 -3.70764e-07 0)
(0.00598614 -3.95459e-07 0)
(0.00598623 -4.17978e-07 0)
(0.00598563 -1.90119e-08 0)
(0.00598555 -4.33889e-08 0)
(0.00598556 -7.06263e-08 0)
(0.00598557 -9.81909e-08 0)
(0.00598559 -1.25799e-07 0)
(0.00598561 -1.53371e-07 0)
(0.00598564 -1.80868e-07 0)
(0.00598567 -2.08152e-07 0)
(0.00598571 -2.35338e-07 0)
(0.00598575 -2.62053e-07 0)
(0.0059858 -2.88691e-07 0)
(0.00598586 -3.14473e-07 0)
(0.00598592 -3.40246e-07 0)
(0.005986 -3.6464e-07 0)
(0.00598608 -3.89128e-07 0)
(0.00598617 -4.11539e-07 0)
(0.00598555 -1.8593e-08 0)
(0.00598546 -4.23319e-08 0)
(0.00598547 -6.89159e-08 0)
(0.00598549 -9.58444e-08 0)
(0.00598551 -1.22829e-07 0)
(0.00598553 -1.49827e-07 0)
(0.00598556 -1.76768e-07 0)
(0.00598559 -2.03571e-07 0)
(0.00598563 -2.3029e-07 0)
(0.00598567 -2.56638e-07 0)
(0.00598573 -2.82908e-07 0)
(0.00598579 -3.08442e-07 0)
(0.00598585 -3.33947e-07 0)
(0.00598593 -3.58194e-07 0)
(0.00598601 -3.82506e-07 0)
(0.0059861 -4.04851e-07 0)
(0.00598546 -1.81397e-08 0)
(0.00598538 -4.12054e-08 0)
(0.00598539 -6.70933e-08 0)
(0.0059854 -9.33435e-08 0)
(0.00598542 -1.19665e-07 0)
(0.00598545 -1.46051e-07 0)
(0.00598548 -1.72405e-07 0)
(0.00598551 -1.98698e-07 0)
(0.00598555 -2.2493e-07 0)
(0.0059856 -2.50895e-07 0)
(0.00598565 -2.76792e-07 0)
(0.00598571 -3.02083e-07 0)
(0.00598578 -3.27333e-07 0)
(0.00598586 -3.51463e-07 0)
(0.00598595 -3.7563e-07 0)
(0.00598604 -3.97955e-07 0)
(0.00598538 -1.76565e-08 0)
(0.0059853 -4.00051e-08 0)
(0.00598531 -6.51512e-08 0)
(0.00598533 -9.0679e-08 0)
(0.00598535 -1.16295e-07 0)
(0.00598537 -1.42031e-07 0)
(0.0059854 -1.67763e-07 0)
(0.00598543 -1.93517e-07 0)
(0.00598548 -2.1924e-07 0)
(0.00598552 -2.44812e-07 0)
(0.00598558 -2.7033e-07 0)
(0.00598564 -2.95388e-07 0)
(0.00598571 -3.20397e-07 0)
(0.00598579 -3.44444e-07 0)
(0.00598588 -3.68503e-07 0)
(0.00598598 -3.90856e-07 0)
(0.0059853 -1.71416e-08 0)
(0.00598523 -3.87399e-08 0)
(0.00598524 -6.31037e-08 0)
(0.00598525 -8.78682e-08 0)
(0.00598527 -1.12741e-07 0)
(0.00598529 -1.37787e-07 0)
(0.00598533 -1.62865e-07 0)
(0.00598536 -1.88049e-07 0)
(0.0059854 -2.13239e-07 0)
(0.00598545 -2.38401e-07 0)
(0.00598551 -2.63533e-07 0)
(0.00598557 -2.88366e-07 0)
(0.00598565 -3.13149e-07 0)
(0.00598573 -3.37146e-07 0)
(0.00598582 -3.61135e-07 0)
(0.00598592 -3.83573e-07 0)
(0.00598522 -1.65989e-08 0)
(0.00598515 -3.74215e-08 0)
(0.00598516 -6.09695e-08 0)
(0.00598518 -8.49367e-08 0)
(0.0059852 -1.09034e-07 0)
(0.00598522 -1.33357e-07 0)
(0.00598525 -1.57752e-07 0)
(0.00598529 -1.82338e-07 0)
(0.00598533 -2.06975e-07 0)
(0.00598538 -2.31714e-07 0)
(0.00598544 -2.56454e-07 0)
(0.00598551 -2.81072e-07 0)
(0.00598558 -3.05643e-07 0)
(0.00598566 -3.29631e-07 0)
(0.00598576 -3.53588e-07 0)
(0.00598586 -3.76171e-07 0)
(0.00598515 -1.60334e-08 0)
(0.00598508 -3.6066e-08 0)
(0.00598509 -5.87737e-08 0)
(0.00598511 -8.19169e-08 0)
(0.00598513 -1.05213e-07 0)
(0.00598515 -1.28782e-07 0)
(0.00598518 -1.52469e-07 0)
(0.00598522 -1.76427e-07 0)
(0.00598526 -2.00491e-07 0)
(0.00598531 -2.24789e-07 0)
(0.00598537 -2.49127e-07 0)
(0.00598544 -2.73537e-07 0)
(0.00598552 -2.9791e-07 0)
(0.0059856 -3.21926e-07 0)
(0.00598569 -3.45893e-07 0)
(0.0059858 -3.68691e-07 0)
(0.00598508 -1.5452e-08 0)
(0.00598501 -3.47047e-08 0)
(0.00598502 -5.65667e-08 0)
(0.00598504 -7.88769e-08 0)
(0.00598506 -1.01361e-07 0)
(0.00598508 -1.2416e-07 0)
(0.00598512 -1.47124e-07 0)
(0.00598515 -1.70434e-07 0)
(0.0059852 -1.93909e-07 0)
(0.00598525 -2.17752e-07 0)
(0.00598531 -2.41681e-07 0)
(0.00598537 -2.65888e-07 0)
(0.00598545 -2.90074e-07 0)
(0.00598554 -3.1416e-07 0)
(0.00598563 -3.38179e-07 0)
(0.00598574 -3.61266e-07 0)
(0.00598501 -1.48682e-08 0)
(0.00598495 -3.33718e-08 0)
(0.00598496 -5.44025e-08 0)
(0.00598497 -7.58883e-08 0)
(0.00598499 -9.75674e-08 0)
(0.00598502 -1.1959e-07 0)
(0.00598505 -1.41826e-07 0)
(0.00598509 -1.6447e-07 0)
(0.00598513 -1.87343e-07 0)
(0.00598518 -2.10713e-07 0)
(0.00598524 -2.34222e-07 0)
(0.00598531 -2.58229e-07 0)
(0.00598539 -2.82235e-07 0)
(0.00598547 -3.06429e-07 0)
(0.00598557 -3.30541e-07 0)
(0.00598568 -3.54e-07 0)
(0.00598495 -1.42965e-08 0)
(0.00598489 -3.21254e-08 0)
(0.0059849 -5.23745e-08 0)
(0.00598491 -7.30774e-08 0)
(0.00598493 -9.39877e-08 0)
(0.00598496 -1.15253e-07 0)
(0.00598499 -1.36778e-07 0)
(0.00598502 -1.58754e-07 0)
(0.00598507 -1.81022e-07 0)
(0.00598512 -2.03906e-07 0)
(0.00598518 -2.26986e-07 0)
(0.00598525 -2.50791e-07 0)
(0.00598532 -2.7462e-07 0)
(0.00598541 -2.9896e-07 0)
(0.00598551 -3.23203e-07 0)
(0.00598562 -3.47123e-07 0)
(0.00598488 -1.37621e-08 0)
(0.00598483 -3.10302e-08 0)
(0.00598484 -5.05861e-08 0)
(0.00598485 -7.05835e-08 0)
(0.00598487 -9.07942e-08 0)
(0.0059849 -1.11349e-07 0)
(0.00598493 -1.32201e-07 0)
(0.00598497 -1.5352e-07 0)
(0.00598501 -1.75192e-07 0)
(0.00598506 -1.97577e-07 0)
(0.00598512 -2.20216e-07 0)
(0.00598519 -2.43812e-07 0)
(0.00598526 -2.67457e-07 0)
(0.00598535 -2.91975e-07 0)
(0.00598544 -3.16382e-07 0)
(0.00598555 -3.40856e-07 0)
(0.00598483 -1.32926e-08 0)
(0.00598478 -3.01818e-08 0)
(0.00598479 -4.9191e-08 0)
(0.0059848 -6.86152e-08 0)
(0.00598482 -8.82467e-08 0)
(0.00598484 -1.08181e-07 0)
(0.00598487 -1.28437e-07 0)
(0.00598491 -1.49139e-07 0)
(0.00598495 -1.70243e-07 0)
(0.005985 -1.92127e-07 0)
(0.00598506 -2.14319e-07 0)
(0.00598512 -2.3769e-07 0)
(0.0059852 -2.6114e-07 0)
(0.00598529 -2.85857e-07 0)
(0.00598538 -3.1045e-07 0)
(0.00598549 -3.35578e-07 0)
(0.00598477 -1.29291e-08 0)
(0.00598472 -2.96886e-08 0)
(0.00598474 -4.83639e-08 0)
(0.00598475 -6.74102e-08 0)
(0.00598477 -8.66417e-08 0)
(0.00598479 -1.06097e-07 0)
(0.00598482 -1.25878e-07 0)
(0.00598485 -1.46036e-07 0)
(0.0059849 -1.66626e-07 0)
(0.00598494 -1.88017e-07 0)
(0.005985 -2.09759e-07 0)
(0.00598507 -2.32883e-07 0)
(0.00598514 -2.56111e-07 0)
(0.00598522 -2.81035e-07 0)
(0.00598532 -3.05823e-07 0)
(0.00598543 -3.31703e-07 0)
(0.00598472 -1.27182e-08 0)
(0.00598468 -2.96951e-08 0)
(0.00598469 -4.83379e-08 0)
(0.0059847 -6.72874e-08 0)
(0.00598472 -8.63794e-08 0)
(0.00598474 -1.05572e-07 0)
(0.00598477 -1.25064e-07 0)
(0.0059848 -1.44803e-07 0)
(0.00598484 -1.64976e-07 0)
(0.00598489 -1.85906e-07 0)
(0.00598494 -2.07209e-07 0)
(0.00598501 -2.30057e-07 0)
(0.00598508 -2.53026e-07 0)
(0.00598516 -2.78145e-07 0)
(0.00598526 -3.03117e-07 0)
(0.00598536 -3.29842e-07 0)
(0.00598467 -1.27219e-08 0)
(0.00598463 -3.03644e-08 0)
(0.00598464 -4.9377e-08 0)
(0.00598465 -6.86098e-08 0)
(0.00598467 -8.79178e-08 0)
(0.00598469 -1.07151e-07 0)
(0.00598472 -1.26621e-07 0)
(0.00598475 -1.46133e-07 0)
(0.00598479 -1.66041e-07 0)
(0.00598484 -1.86574e-07 0)
(0.00598489 -2.07473e-07 0)
(0.00598495 -2.30011e-07 0)
(0.00598502 -2.52672e-07 0)
(0.0059851 -2.77947e-07 0)
(0.00598519 -3.03061e-07 0)
(0.0059853 -3.30714e-07 0)
(0.00598463 -1.30102e-08 0)
(0.00598459 -3.18958e-08 0)
(0.0059846 -5.18052e-08 0)
(0.00598461 -7.18253e-08 0)
(0.00598463 -9.18257e-08 0)
(0.00598465 -1.11519e-07 0)
(0.00598468 -1.31341e-07 0)
(0.00598471 -1.50915e-07 0)
(0.00598475 -1.70791e-07 0)
(0.00598479 -1.91053e-07 0)
(0.00598484 -2.11623e-07 0)
(0.0059849 -2.33827e-07 0)
(0.00598496 -2.56127e-07 0)
(0.00598504 -2.81483e-07 0)
(0.00598512 -3.0666e-07 0)
(0.00598523 -3.353e-07 0)
(0.00598459 -1.36687e-08 0)
(0.00598455 -3.45068e-08 0)
(0.00598456 -5.59771e-08 0)
(0.00598457 -7.74276e-08 0)
(0.00598459 -9.87354e-08 0)
(0.00598461 -1.19447e-07 0)
(0.00598464 -1.40127e-07 0)
(0.00598466 -1.60174e-07 0)
(0.0059847 -1.80364e-07 0)
(0.00598474 -2.00566e-07 0)
(0.00598479 -2.20953e-07 0)
(0.00598484 -2.42823e-07 0)
(0.0059849 -2.64715e-07 0)
(0.00598497 -2.90041e-07 0)
(0.00598506 -3.15156e-07 0)
(0.00598515 -3.448e-07 0)
(0.00598455 -1.47905e-08 0)
(0.00598451 -3.84412e-08 0)
(0.00598452 -6.22923e-08 0)
(0.00598453 -8.59772e-08 0)
(0.00598455 -1.09371e-07 0)
(0.00598457 -1.31825e-07 0)
(0.00598459 -1.54038e-07 0)
(0.00598462 -1.75134e-07 0)
(0.00598466 -1.9614e-07 0)
(0.00598469 -2.16631e-07 0)
(0.00598474 -2.37097e-07 0)
(0.00598479 -2.58701e-07 0)
(0.00598485 -2.80183e-07 0)
(0.00598491 -3.05339e-07 0)
(0.00598499 -3.30224e-07 0)
(0.00598508 -3.60837e-07 0)
(0.00598451 -1.64802e-08 0)
(0.00598447 -4.3946e-08 0)
(0.00598448 -7.11577e-08 0)
(0.00598449 -9.80503e-08 0)
(0.00598451 -1.24487e-07 0)
(0.00598453 -1.49598e-07 0)
(0.00598455 -1.74215e-07 0)
(0.00598458 -1.97139e-07 0)
(0.00598461 -2.19671e-07 0)
(0.00598465 -2.40992e-07 0)
(0.00598469 -2.61981e-07 0)
(0.00598474 -2.83517e-07 0)
(0.00598479 -3.0468e-07 0)
(0.00598485 -3.29526e-07 0)
(0.00598492 -3.53994e-07 0)
(0.005985 -3.85456e-07 0)
(0.00598446 -1.88436e-08 0)
(0.00598442 -5.1266e-08 0)
(0.00598443 -8.29794e-08 0)
(0.00598445 -1.14229e-07 0)
(0.00598446 -1.44854e-07 0)
(0.00598448 -1.73749e-07 0)
(0.00598451 -2.01871e-07 0)
(0.00598454 -2.27659e-07 0)
(0.00598457 -2.52694e-07 0)
(0.00598461 -2.75662e-07 0)
(0.00598464 -2.97888e-07 0)
(0.00598469 -3.1978e-07 0)
(0.00598473 -3.40896e-07 0)
(0.00598478 -3.65332e-07 0)
(0.00598484 -3.89171e-07 0)
(0.00598491 -4.21192e-07 0)
(0.00598442 -2.19852e-08 0)
(0.00598437 -6.06113e-08 0)
(0.00598439 -9.81098e-08 0)
(0.0059844 -1.35026e-07 0)
(0.00598442 -1.71169e-07 0)
(0.00598444 -2.0519e-07 0)
(0.00598447 -2.38165e-07 0)
(0.00598449 -2.68144e-07 0)
(0.00598453 -2.9699e-07 0)
(0.00598456 -3.22799e-07 0)
(0.0059846 -3.47382e-07 0)
(0.00598464 -3.70442e-07 0)
(0.00598468 -3.92139e-07 0)
(0.00598472 -4.16248e-07 0)
(0.00598477 -4.39246e-07 0)
(0.00598483 -4.71203e-07 0)
(0.00598437 -2.59949e-08 0)
(0.00598432 -7.21383e-08 0)
(0.00598433 -1.16815e-07 0)
(0.00598435 -1.60841e-07 0)
(0.00598437 -2.03989e-07 0)
(0.00598439 -2.44679e-07 0)
(0.00598442 -2.84102e-07 0)
(0.00598445 -3.19913e-07 0)
(0.00598448 -3.54265e-07 0)
(0.00598451 -3.84587e-07 0)
(0.00598455 -4.1323e-07 0)
(0.00598459 -4.38962e-07 0)
(0.00598462 -4.62664e-07 0)
(0.00598466 -4.87298e-07 0)
(0.00598469 -5.09889e-07 0)
(0.00598473 -5.41297e-07 0)
(0.00598432 -3.09393e-08 0)
(0.00598426 -8.59108e-08 0)
(0.00598427 -1.39212e-07 0)
(0.00598428 -1.91863e-07 0)
(0.00598431 -2.43606e-07 0)
(0.00598433 -2.92653e-07 0)
(0.00598436 -3.40316e-07 0)
(0.00598439 -3.83877e-07 0)
(0.00598443 -4.25794e-07 0)
(0.00598446 -4.62812e-07 0)
(0.0059845 -4.97899e-07 0)
(0.00598453 -5.2874e-07 0)
(0.00598456 -5.57185e-07 0)
(0.00598459 -5.84944e-07 0)
(0.00598462 -6.09975e-07 0)
(0.00598464 -6.42906e-07 0)
(0.00598425 -3.6845e-08 0)
(0.00598418 -1.01876e-07 0)
(0.0059842 -1.65224e-07 0)
(0.00598421 -2.28013e-07 0)
(0.00598424 -2.89956e-07 0)
(0.00598426 -3.49107e-07 0)
(0.0059843 -4.06898e-07 0)
(0.00598433 -4.60293e-07 0)
(0.00598437 -5.12067e-07 0)
(0.0059844 -5.5831e-07 0)
(0.00598444 -6.02693e-07 0)
(0.00598448 -6.4176e-07 0)
(0.0059845 -6.78665e-07 0)
(0.00598453 -7.13606e-07 0)
(0.00598454 -7.46418e-07 0)
(0.00598454 -7.86613e-07 0)
(0.00598418 -4.36892e-08 0)
(0.00598409 -1.19839e-07 0)
(0.00598411 -1.94538e-07 0)
(0.00598413 -2.68869e-07 0)
(0.00598415 -3.42526e-07 0)
(0.00598418 -4.1346e-07 0)
(0.00598422 -4.83223e-07 0)
(0.00598426 -5.48533e-07 0)
(0.0059843 -6.12468e-07 0)
(0.00598434 -6.70521e-07 0)
(0.00598437 -7.27069e-07 0)
(0.00598441 -7.77446e-07 0)
(0.00598443 -8.26216e-07 0)
(0.00598445 -8.71607e-07 0)
(0.00598445 -9.1565e-07 0)
(0.00598443 -9.65454e-07 0)
(0.00598409 -5.13873e-08 0)
(0.00598399 -1.3945e-07 0)
(0.00598401 -2.26588e-07 0)
(0.00598403 -3.13654e-07 0)
(0.00598406 -4.00328e-07 0)
(0.00598409 -4.84526e-07 0)
(0.00598413 -5.67914e-07 0)
(0.00598417 -6.47055e-07 0)
(0.00598421 -7.25302e-07 0)
(0.00598425 -7.97634e-07 0)
(0.00598429 -8.69089e-07 0)
(0.00598433 -9.33777e-07 0)
(0.00598436 -9.97657e-07 0)
(0.00598437 -1.05662e-06 0)
(0.00598436 -1.11508e-06 0)
(0.00598433 -1.17668e-06 0)
(0.00598399 -5.97899e-08 0)
(0.00598387 -1.60208e-07 0)
(0.00598389 -2.60554e-07 0)
(0.00598391 -3.61218e-07 0)
(0.00598394 -4.6188e-07 0)
(0.00598397 -5.60484e-07 0)
(0.00598402 -6.58806e-07 0)
(0.00598406 -7.53354e-07 0)
(0.00598411 -8.47709e-07 0)
(0.00598415 -9.36465e-07 0)
(0.0059842 -1.02521e-06 0)
(0.00598424 -1.10691e-06 0)
(0.00598427 -1.18878e-06 0)
(0.00598428 -1.26414e-06 0)
(0.00598427 -1.33989e-06 0)
(0.00598422 -1.41535e-06 0)
(0.00598387 -6.8682e-08 0)
(0.00598373 -1.81477e-07 0)
(0.00598375 -2.9539e-07 0)
(0.00598377 -4.1009e-07 0)
(0.0059838 -5.25261e-07 0)
(0.00598384 -6.38947e-07 0)
(0.00598389 -7.5302e-07 0)
(0.00598393 -8.64047e-07 0)
(0.00598398 -9.75781e-07 0)
(0.00598403 -1.0826e-06 0)
(0.00598408 -1.19051e-06 0)
(0.00598413 -1.29149e-06 0)
(0.00598416 -1.39382e-06 0)
(0.00598418 -1.4882e-06 0)
(0.00598416 -1.58383e-06 0)
(0.00598411 -1.67502e-06 0)
(0.00598373 -7.77908e-08 0)
(0.00598357 -2.02513e-07 0)
(0.00598359 -3.29871e-07 0)
(0.00598361 -4.58531e-07 0)
(0.00598365 -5.88191e-07 0)
(0.00598369 -7.17051e-07 0)
(0.00598373 -8.47062e-07 0)
(0.00598378 -9.7497e-07 0)
(0.00598384 -1.10464e-06 0)
(0.0059839 -1.23043e-06 0)
(0.00598395 -1.35866e-06 0)
(0.005984 -1.4806e-06 0)
(0.00598404 -1.60534e-06 0)
(0.00598406 -1.72119e-06 0)
(0.00598405 -1.83933e-06 0)
(0.005984 -1.94853e-06 0)
(0.00598357 -8.67982e-08 0)
(0.0059834 -2.22515e-07 0)
(0.00598342 -3.6267e-07 0)
(0.00598344 -5.04654e-07 0)
(0.00598348 -6.48172e-07 0)
(0.00598351 -7.91626e-07 0)
(0.00598356 -9.37022e-07 0)
(0.00598362 -1.08139e-06 0)
(0.00598368 -1.22864e-06 0)
(0.00598373 -1.37337e-06 0)
(0.00598379 -1.52203e-06 0)
(0.00598385 -1.66562e-06 0)
(0.0059839 -1.81384e-06 0)
(0.00598393 -1.95312e-06 0)
(0.00598393 -2.09635e-06 0)
(0.00598389 -2.22678e-06 0)
(0.00598339 -9.53615e-08 0)
(0.0059832 -2.40683e-07 0)
(0.00598322 -3.92459e-07 0)
(0.00598325 -5.46556e-07 0)
(0.00598328 -7.02669e-07 0)
(0.00598332 -8.59427e-07 0)
(0.00598337 -1.01885e-06 0)
(0.00598343 -1.17833e-06 0)
(0.00598349 -1.34174e-06 0)
(0.00598355 -1.50412e-06 0)
(0.00598362 -1.67192e-06 0)
(0.00598368 -1.83632e-06 0)
(0.00598374 -2.00731e-06 0)
(0.00598378 -2.1702e-06 0)
(0.0059838 -2.33897e-06 0)
(0.00598378 -2.49178e-06 0)
(0.0059832 -1.03138e-07 0)
(0.00598299 -2.56285e-07 0)
(0.00598301 -4.18024e-07 0)
(0.00598304 -5.82491e-07 0)
(0.00598308 -7.49347e-07 0)
(0.00598312 -9.17438e-07 0)
(0.00598317 -1.08873e-06 0)
(0.00598322 -1.26103e-06 0)
(0.00598329 -1.43805e-06 0)
(0.00598335 -1.61542e-06 0)
(0.00598342 -1.79941e-06 0)
(0.00598349 -1.98186e-06 0)
(0.00598356 -2.17276e-06 0)
(0.00598362 -2.3573e-06 0)
(0.00598366 -2.55e-06 0)
(0.00598367 -2.72494e-06 0)
(0.00598299 -1.09817e-07 0)
(0.00598277 -2.68729e-07 0)
(0.00598279 -4.38381e-07 0)
(0.00598282 -6.11044e-07 0)
(0.00598285 -7.86307e-07 0)
(0.0059829 -9.63197e-07 0)
(0.00598295 -1.14355e-06 0)
(0.005983 -1.32554e-06 0)
(0.00598307 -1.51259e-06 0)
(0.00598314 -1.70097e-06 0)
(0.00598321 -1.89646e-06 0)
(0.00598329 -2.09188e-06 0)
(0.00598336 -2.29687e-06 0)
(0.00598344 -2.49768e-06 0)
(0.0059835 -2.70966e-06 0)
(0.00598356 -2.90617e-06 0)
(0.00598277 -1.15144e-07 0)
(0.00598254 -2.77618e-07 0)
(0.00598256 -4.52873e-07 0)
(0.00598259 -6.31275e-07 0)
(0.00598263 -8.12302e-07 0)
(0.00598267 -9.95103e-07 0)
(0.00598272 -1.18129e-06 0)
(0.00598278 -1.36934e-06 0)
(0.00598284 -1.56217e-06 0)
(0.00598292 -1.75662e-06 0)
(0.00598299 -1.95753e-06 0)
(0.00598307 -2.15858e-06 0)
(0.00598316 -2.36787e-06 0)
(0.00598325 -2.57275e-06 0)
(0.00598334 -2.78646e-06 0)
(0.00598344 -2.98334e-06 0)
(0.00598254 -1.1895e-07 0)
(0.00598231 -2.82781e-07 0)
(0.00598233 -4.61223e-07 0)
(0.00598235 -6.42807e-07 0)
(0.00598239 -8.26861e-07 0)
(0.00598243 -1.0126e-06 0)
(0.00598249 -1.20135e-06 0)
(0.00598255 -1.39181e-06 0)
(0.00598262 -1.5863e-06 0)
(0.00598269 -1.78209e-06 0)
(0.00598277 -1.98294e-06 0)
(0.00598286 -2.18331e-06 0)
(0.00598296 -2.38939e-06 0)
(0.00598306 -2.5899e-06 0)
(0.00598318 -2.79518e-06 0)
(0.00598332 -2.98273e-06 0)
(0.0059823 -1.21162e-07 0)
(0.00598207 -2.84268e-07 0)
(0.00598209 -4.63529e-07 0)
(0.00598212 -6.458e-07 0)
(0.00598216 -8.30243e-07 0)
(0.0059822 -1.0161e-06 0)
(0.00598226 -1.20437e-06 0)
(0.00598232 -1.39391e-06 0)
(0.00598239 -1.58641e-06 0)
(0.00598247 -1.77957e-06 0)
(0.00598256 -1.97601e-06 0)
(0.00598265 -2.1711e-06 0)
(0.00598276 -2.36916e-06 0)
(0.00598289 -2.56094e-06 0)
(0.00598303 -2.75418e-06 0)
(0.0059832 -2.93131e-06 0)
(0.00598206 -1.21802e-07 0)
(0.00598184 -2.82325e-07 0)
(0.00598186 -4.60207e-07 0)
(0.00598188 -6.40877e-07 0)
(0.00598192 -8.23329e-07 0)
(0.00598197 -1.0068e-06 0)
(0.00598203 -1.19197e-06 0)
(0.00598209 -1.37783e-06 0)
(0.00598217 -1.56547e-06 0)
(0.00598225 -1.75299e-06 0)
(0.00598235 -1.94201e-06 0)
(0.00598245 -2.12886e-06 0)
(0.00598258 -2.3163e-06 0)
(0.00598272 -2.4973e-06 0)
(0.00598288 -2.67743e-06 0)
(0.00598308 -2.84423e-06 0)
(0.00598183 -1.20973e-07 0)
(0.00598161 -2.77339e-07 0)
(0.00598163 -4.51912e-07 0)
(0.00598166 -6.28995e-07 0)
(0.0059817 -8.07429e-07 0)
(0.00598174 -9.86446e-07 0)
(0.00598181 -1.16641e-06 0)
(0.00598187 -1.34645e-06 0)
(0.00598195 -1.52714e-06 0)
(0.00598204 -1.70698e-06 0)