/*--------------------------------*- C++ -*----------------------------------*\
| =========                 |                                                 |
| \\      /  F ield         | foam-extend: Open Source CFD                    |
|  \\    /   O peration     | Version:     4.1-20200408                       |
|   \\  /    A nd           | Web:         http://www.foam-extend.org         |
|    \\/     M anipulation  |                                                 |
\*---------------------------------------------------------------------------*/
FoamFile
{
    version     2.0;
    format      ascii;
    class       volVectorField;
    location    "0.0060000";
    object      U_0;
}
// * * * * * * * * * * * * * * * * * * * * * * * * * * * * * * * * * * * * * //

dimensions      [0 1 0 0 0 0 0];

internalField   nonuniform List<vector> 
1952
(
(0.00593813 -5.19375e-08 0)
(0.00593826 -5.12695e-08 0)
(0.00593839 -5.03085e-08 0)
(0.00593813 -8.46229e-08 0)
(0.00593826 -8.35376e-08 0)
(0.00593839 -8.19648e-08 0)
(0.00593813 -1.17679e-07 0)
(0.00593826 -1.16166e-07 0)
(0.00593839 -1.13962e-07 0)
(0.00593813 -1.51079e-07 0)
(0.00593826 -1.49147e-07 0)
(0.00593838 -1.46288e-07 0)
(0.00593812 -1.8433e-07 0)
(0.00593825 -1.8197e-07 0)
(0.00593838 -1.78435e-07 0)
(0.00593812 -2.18074e-07 0)
(0.00593825 -2.15311e-07 0)
(0.00593837 -2.11066e-07 0)
(0.00593811 -2.51388e-07 0)
(0.00593824 -2.48212e-07 0)
(0.00593837 -2.43231e-07 0)
(0.0059381 -2.85506e-07 0)
(0.00593823 -2.81975e-07 0)
(0.00593836 -2.7621e-07 0)
(0.0059381 -3.1884e-07 0)
(0.00593822 -3.14957e-07 0)
(0.00593835 -3.08399e-07 0)
(0.00593809 -3.53364e-07 0)
(0.00593821 -3.49249e-07 0)
(0.00593834 -3.4185e-07 0)
(0.00593808 -3.86565e-07 0)
(0.0059382 -3.82264e-07 0)
(0.00593833 -3.741e-07 0)
(0.00593807 -4.21323e-07 0)
(0.00593819 -4.17076e-07 0)
(0.00593831 -4.0814e-07 0)
(0.00593805 -4.53785e-07 0)
(0.00593817 -4.49746e-07 0)
(0.00593829 -4.4041e-07 0)
(0.00593804 -4.87819e-07 0)
(0.00593815 -4.84394e-07 0)
(0.00593827 -4.74859e-07 0)
(0.00593803 -5.17458e-07 0)
(0.00593813 -5.14965e-07 0)
(0.00593824 -5.06444e-07 0)
(0.00593813 -2.22583e-08 0)
(0.00593826 -2.19724e-08 0)
(0.00593839 -2.15611e-08 0)
(0.00593802 -5.3323e-08 0)
(0.00593801 -8.68764e-08 0)
(0.00593801 -1.20814e-07 0)
(0.00593801 -1.55087e-07 0)
(0.00593801 -1.89215e-07 0)
(0.005938 -2.23806e-07 0)
(0.005938 -2.5796e-07 0)
(0.00593799 -2.92846e-07 0)
(0.00593799 -3.26917e-07 0)
(0.00593798 -3.62021e-07 0)
(0.00593797 -3.95718e-07 0)
(0.00593796 -4.30657e-07 0)
(0.00593795 -4.63151e-07 0)
(0.00593794 -4.96727e-07 0)
(0.00593794 -5.25844e-07 0)
(0.00593802 -2.28518e-08 0)
(0.0059379 -5.44753e-08 0)
(0.0059379 -8.87455e-08 0)
(0.0059379 -1.23405e-07 0)
(0.00593789 -1.58381e-07 0)
(0.00593789 -1.93201e-07 0)
(0.00593789 -2.28438e-07 0)
(0.00593788 -2.6321e-07 0)
(0.00593788 -2.98625e-07 0)
(0.00593788 -3.3316e-07 0)
(0.00593787 -3.68569e-07 0)
(0.00593786 -4.02443e-07 0)
(0.00593786 -4.37309e-07 0)
(0.00593785 -4.69551e-07 0)
(0.00593785 -5.02595e-07 0)
(0.00593785 -5.31177e-07 0)
(0.0059379 -2.33454e-08 0)
(0.00593778 -5.5313e-08 0)
(0.00593778 -9.0095e-08 0)
(0.00593778 -1.2526e-07 0)
(0.00593778 -1.60704e-07 0)
(0.00593778 -1.95972e-07 0)
(0.00593777 -2.31577e-07 0)
(0.00593777 -2.66683e-07 0)
(0.00593777 -3.02295e-07 0)
(0.00593776 -3.36978e-07 0)
(0.00593776 -3.72325e-07 0)
(0.00593776 -4.06083e-07 0)
(0.00593775 -4.40562e-07 0)
(0.00593775 -4.7242e-07 0)
(0.00593775 -5.04858e-07 0)
(0.00593776 -5.33051e-07 0)
(0.00593778 -2.37045e-08 0)
(0.00593766 -5.59497e-08 0)
(0.00593766 -9.11164e-08 0)
(0.00593766 -1.26653e-07 0)
(0.00593766 -1.62433e-07 0)
(0.00593766 -1.98002e-07 0)
(0.00593766 -2.33839e-07 0)
(0.00593765 -2.69121e-07 0)
(0.00593765 -3.04801e-07 0)
(0.00593765 -3.39472e-07 0)
(0.00593765 -3.74658e-07 0)
(0.00593765 -4.08173e-07 0)
(0.00593765 -4.42238e-07 0)
(0.00593765 -4.73674e-07 0)
(0.00593766 -5.0557e-07 0)
(0.00593767 -5.3345e-07 0)
(0.00593766 -2.39776e-08 0)
(0.00593755 -5.63087e-08 0)
(0.00593755 -9.16832e-08 0)
(0.00593754 -1.27415e-07 0)
(0.00593754 -1.63344e-07 0)
(0.00593754 -1.99037e-07 0)
(0.00593754 -2.34914e-07 0)
(0.00593754 -2.70208e-07 0)
(0.00593754 -3.05771e-07 0)
(0.00593754 -3.40299e-07 0)
(0.00593754 -3.7518e-07 0)
(0.00593754 -4.08388e-07 0)
(0.00593755 -4.4198e-07 0)
(0.00593756 -4.73022e-07 0)
(0.00593757 -5.04423e-07 0)
(0.00593758 -5.32042e-07 0)
(0.00593755 -2.41316e-08 0)
(0.00593743 -5.65112e-08 0)
(0.00593743 -9.19968e-08 0)
(0.00593743 -1.27821e-07 0)
(0.00593743 -1.63806e-07 0)
(0.00593743 -1.9952e-07 0)
(0.00593743 -2.35355e-07 0)
(0.00593743 -2.70559e-07 0)
(0.00593743 -3.05944e-07 0)
(0.00593743 -3.40244e-07 0)
(0.00593744 -3.74792e-07 0)
(0.00593744 -4.07643e-07 0)
(0.00593745 -4.40781e-07 0)
(0.00593746 -4.71431e-07 0)
(0.00593747 -5.02385e-07 0)
(0.0059375 -5.29781e-07 0)
(0.00593743 -2.42187e-08 0)
(0.00593731 -5.65149e-08 0)
(0.00593731 -9.1987e-08 0)
(0.00593731 -1.27784e-07 0)
(0.00593731 -1.63703e-07 0)
(0.00593731 -1.9933e-07 0)
(0.00593732 -2.35011e-07 0)
(0.00593732 -2.70042e-07 0)
(0.00593732 -3.0516e-07 0)
(0.00593732 -3.39186e-07 0)
(0.00593733 -3.73349e-07 0)
(0.00593734 -4.05841e-07 0)
(0.00593735 -4.38521e-07 0)
(0.00593737 -4.68806e-07 0)
(0.00593738 -4.99344e-07 0)
(0.00593741 -5.26524e-07 0)
(0.00593731 -2.42205e-08 0)
(0.0059372 -5.64033e-08 0)
(0.0059372 -9.17923e-08 0)
(0.0059372 -1.27489e-07 0)
(0.0059372 -1.63278e-07 0)
(0.0059372 -1.98749e-07 0)
(0.0059372 -2.34226e-07 0)
(0.00593721 -2.69022e-07 0)
(0.00593721 -3.03842e-07 0)
(0.00593722 -3.37547e-07 0)
(0.00593723 -3.71322e-07 0)
(0.00593724 -4.03433e-07 0)
(0.00593725 -4.35675e-07 0)
(0.00593727 -4.65599e-07 0)
(0.00593729 -4.95748e-07 0)
(0.00593732 -5.22726e-07 0)
(0.0059372 -2.41729e-08 0)
(0.00593708 -5.61616e-08 0)
(0.00593708 -9.13868e-08 0)
(0.00593709 -1.26909e-07 0)
(0.00593709 -1.62493e-07 0)
(0.00593709 -1.97748e-07 0)
(0.00593709 -2.3296e-07 0)
(0.0059371 -2.67483e-07 0)
(0.00593711 -3.01966e-07 0)
(0.00593711 -3.35338e-07 0)
(0.00593713 -3.6871e-07 0)
(0.00593714 -4.00449e-07 0)
(0.00593716 -4.32263e-07 0)
(0.00593718 -4.61838e-07 0)
(0.00593721 -4.91611e-07 0)
(0.00593724 -5.18373e-07 0)
(0.00593708 -2.40694e-08 0)
(0.00593697 -5.58357e-08 0)
(0.00593697 -9.08473e-08 0)
(0.00593697 -1.26142e-07 0)
(0.00593698 -1.61479e-07 0)
(0.00593698 -1.9647e-07 0)
(0.00593699 -2.31386e-07 0)
(0.00593699 -2.65598e-07 0)
(0.005937 -2.99728e-07 0)
(0.00593701 -3.32742e-07 0)
(0.00593703 -3.65712e-07 0)
(0.00593704 -3.9707e-07 0)
(0.00593706 -4.28468e-07 0)
(0.00593709 -4.57698e-07 0)
(0.00593712 -4.8711e-07 0)
(0.00593716 -5.13657e-07 0)
(0.00593697 -2.39299e-08 0)
(0.00593686 -5.5423e-08 0)
(0.00593686 -9.01678e-08 0)
(0.00593686 -1.25189e-07 0)
(0.00593687 -1.60231e-07 0)
(0.00593687 -1.94924e-07 0)
(0.00593688 -2.29509e-07 0)
(0.00593689 -2.63392e-07 0)
(0.0059369 -2.97152e-07 0)
(0.00593691 -3.29806e-07 0)
(0.00593693 -3.62375e-07 0)
(0.00593695 -3.93361e-07 0)
(0.00593697 -4.24354e-07 0)
(0.005937 -4.53241e-07 0)
(0.00593703 -4.82296e-07 0)
(0.00593707 -5.08604e-07 0)
(0.00593686 -2.3753e-08 0)
(0.00593675 -5.49438e-08 0)
(0.00593675 -8.93827e-08 0)
(0.00593675 -1.24089e-07 0)
(0.00593676 -1.58804e-07 0)
(0.00593677 -1.93164e-07 0)
(0.00593677 -2.27396e-07 0)
(0.00593678 -2.60924e-07 0)
(0.0059368 -2.94305e-07 0)
(0.00593681 -3.26585e-07 0)
(0.00593683 -3.58754e-07 0)
(0.00593685 -3.89364e-07 0)
(0.00593688 -4.19961e-07 0)
(0.00593691 -4.48508e-07 0)
(0.00593695 -4.77212e-07 0)
(0.00593699 -5.03276e-07 0)
(0.00593675 -2.35477e-08 0)
(0.00593664 -5.43919e-08 0)
(0.00593664 -8.84808e-08 0)
(0.00593665 -1.22833e-07 0)
(0.00593665 -1.57183e-07 0)
(0.00593666 -1.91181e-07 0)
(0.00593667 -2.25035e-07 0)
(0.00593668 -2.58193e-07 0)
(0.0059367 -2.91182e-07 0)
(0.00593671 -3.23086e-07 0)
(0.00593673 -3.5486e-07 0)
(0.00593676 -3.85099e-07 0)
(0.00593679 -4.15311e-07 0)
(0.00593682 -4.43516e-07 0)
(0.00593686 -4.7187e-07 0)
(0.00593691 -4.97662e-07 0)
(0.00593664 -2.33111e-08 0)
(0.00593653 -5.37774e-08 0)
(0.00593654 -8.74794e-08 0)
(0.00593654 -1.2144e-07 0)
(0.00593655 -1.55394e-07 0)
(0.00593656 -1.88999e-07 0)
(0.00593657 -2.22453e-07 0)
(0.00593658 -2.55219e-07 0)
(0.0059366 -2.87807e-07 0)
(0.00593662 -3.19326e-07 0)
(0.00593664 -3.50703e-07 0)
(0.00593667 -3.80571e-07 0)
(0.0059367 -4.10404e-07 0)
(0.00593674 -4.38268e-07 0)
(0.00593678 -4.66277e-07 0)
(0.00593683 -4.9179e-07 0)
(0.00593653 -2.30477e-08 0)
(0.00593643 -5.30767e-08 0)
(0.00593643 -8.63389e-08 0)
(0.00593644 -1.1986e-07 0)
(0.00593644 -1.5337e-07 0)
(0.00593645 -1.86543e-07 0)
(0.00593647 -2.1956e-07 0)
(0.00593648 -2.51909e-07 0)
(0.0059365 -2.84076e-07 0)
(0.00593652 -3.15195e-07 0)
(0.00593655 -3.46174e-07 0)
(0.00593658 -3.75668e-07 0)
(0.00593661 -4.05132e-07 0)
(0.00593665 -4.32653e-07 0)
(0.0059367 -4.60324e-07 0)
(0.00593675 -4.85532e-07 0)
(0.00593643 -2.27472e-08 0)
(0.00593632 -5.23047e-08 0)
(0.00593633 -8.50846e-08 0)
(0.00593633 -1.18123e-07 0)
(0.00593634 -1.51152e-07 0)
(0.00593635 -1.83859e-07 0)
(0.00593637 -2.16412e-07 0)
(0.00593638 -2.48319e-07 0)
(0.0059364 -2.80047e-07 0)
(0.00593643 -3.10756e-07 0)
(0.00593645 -3.41331e-07 0)
(0.00593649 -3.70451e-07 0)
(0.00593653 -3.99548e-07 0)
(0.00593657 -4.2673e-07 0)
(0.00593662 -4.54063e-07 0)
(0.00593667 -4.7896e-07 0)
(0.00593632 -2.24162e-08 0)
(0.00593622 -5.14083e-08 0)
(0.00593622 -8.3629e-08 0)
(0.00593623 -1.16111e-07 0)
(0.00593624 -1.48587e-07 0)
(0.00593625 -1.80761e-07 0)
(0.00593627 -2.12787e-07 0)
(0.00593629 -2.44199e-07 0)
(0.00593631 -2.75442e-07 0)
(0.00593633 -3.05703e-07 0)
(0.00593636 -3.35847e-07 0)
(0.0059364 -3.64573e-07 0)
(0.00593644 -3.933e-07 0)
(0.00593649 -4.20138e-07 0)
(0.00593654 -4.47148e-07 0)
(0.0059366 -4.71721e-07 0)
(0.00593622 -2.20319e-08 0)
(0.00593612 -5.04226e-08 0)
(0.00593612 -8.20298e-08 0)
(0.00593613 -1.13903e-07 0)
(0.00593614 -1.45775e-07 0)
(0.00593615 -1.7737e-07 0)
(0.00593617 -2.08828e-07 0)
(0.00593619 -2.39709e-07 0)
(0.00593621 -2.70437e-07 0)
(0.00593624 -3.0023e-07 0)
(0.00593628 -3.29927e-07 0)
(0.00593631 -3.58252e-07 0)
(0.00593636 -3.86604e-07 0)
(0.00593641 -4.13102e-07 0)
(0.00593646 -4.39788e-07 0)
(0.00593652 -4.64036e-07 0)
(0.00593612 -2.16092e-08 0)
(0.00593602 -4.92563e-08 0)
(0.00593602 -8.01372e-08 0)
(0.00593603 -1.11289e-07 0)
(0.00593604 -1.42447e-07 0)
(0.00593606 -1.73358e-07 0)
(0.00593608 -2.04144e-07 0)
(0.0059361 -2.34398e-07 0)
(0.00593612 -2.64518e-07 0)
(0.00593615 -2.93757e-07 0)
(0.00593619 -3.22928e-07 0)
(0.00593623 -3.50786e-07 0)
(0.00593628 -3.78709e-07 0)
(0.00593633 -4.04826e-07 0)
(0.00593639 -4.31178e-07 0)
(0.00593645 -4.55103e-07 0)
(0.00593602 -2.11091e-08 0)
(0.00593592 -4.79784e-08 0)
(0.00593593 -7.80641e-08 0)
(0.00593593 -1.08426e-07 0)
(0.00593595 -1.38804e-07 0)
(0.00593596 -1.68966e-07 0)
(0.00593598 -1.99019e-07 0)
(0.00593601 -2.28591e-07 0)
(0.00593603 -2.5805e-07 0)
(0.00593607 -2.86694e-07 0)
(0.0059361 -3.15298e-07 0)
(0.00593615 -3.42662e-07 0)
(0.00593619 -3.70131e-07 0)
(0.00593625 -3.95864e-07 0)
(0.00593631 -4.21876e-07 0)
(0.00593638 -4.45499e-07 0)
(0.00593592 -2.05612e-08 0)
(0.00593583 -4.71546e-08 0)
(0.00593584 -7.6728e-08 0)
(0.00593585 -1.06585e-07 0)
(0.00593586 -1.36461e-07 0)
(0.00593588 -1.6615e-07 0)
(0.0059359 -1.95735e-07 0)
(0.00593592 -2.2488e-07 0)
(0.00593595 -2.53918e-07 0)
(0.00593599 -2.82193e-07 0)
(0.00593603 -3.10432e-07 0)
(0.00593607 -3.37486e-07 0)
(0.00593612 -3.64646e-07 0)
(0.00593618 -3.90112e-07 0)
(0.00593624 -4.15851e-07 0)
(0.00593632 -4.39213e-07 0)
(0.00593583 -2.02079e-08 0)
(0.00593575 -4.64341e-08 0)
(0.00593575 -7.55611e-08 0)
(0.00593576 -1.0498e-07 0)
(0.00593578 -1.34423e-07 0)
(0.00593579 -1.63709e-07 0)
(0.00593582 -1.92898e-07 0)
(0.00593584 -2.2169e-07 0)
(0.00593587 -2.5038e-07 0)
(0.00593591 -2.78361e-07 0)
(0.00593595 -3.06304e-07 0)
(0.005936 -3.33118e-07 0)
(0.00593605 -3.60022e-07 0)
(0.00593611 -3.85272e-07 0)
(0.00593618 -4.1076e-07 0)
(0.00593625 -4.33883e-07 0)
(0.00593574 -1.98989e-08 0)
(0.00593565 -4.55832e-08 0)
(0.00593566 -7.41826e-08 0)
(0.00593567 -1.03085e-07 0)
(0.00593569 -1.32017e-07 0)
(0.0059357 -1.60828e-07 0)
(0.00593573 -1.89547e-07 0)
(0.00593576 -2.17925e-07 0)
(0.00593579 -2.46201e-07 0)
(0.00593583 -2.73837e-07 0)
(0.00593587 -3.01427e-07 0)
(0.00593592 -3.27964e-07 0)
(0.00593598 -3.54566e-07 0)
(0.00593604 -3.79585e-07 0)
(0.00593611 -4.04799e-07 0)
(0.00593619 -4.27713e-07 0)
(0.00593565 -1.9534e-08 0)
(0.00593556 -4.46672e-08 0)
(0.00593557 -7.26996e-08 0)
(0.00593558 -1.01048e-07 0)
(0.0059356 -1.29434e-07 0)
(0.00593562 -1.57739e-07 0)
(0.00593564 -1.85964e-07 0)
(0.00593567 -2.13906e-07 0)
(0.0059357 -2.41754e-07 0)
(0.00593574 -2.69035e-07 0)
(0.00593579 -2.96265e-07 0)
(0.00593584 -3.22524e-07 0)
(0.0059359 -3.48822e-07 0)
(0.00593597 -3.73617e-07 0)
(0.00593604 -3.98568e-07 0)
(0.00593612 -4.21299e-07 0)
(0.00593556 -1.91412e-08 0)
(0.00593548 -4.36651e-08 0)
(0.00593548 -7.10773e-08 0)
(0.0059355 -9.88205e-08 0)
(0.00593551 -1.26611e-07 0)
(0.00593553 -1.54367e-07 0)
(0.00593556 -1.82055e-07 0)
(0.00593559 -2.09529e-07 0)
(0.00593562 -2.36916e-07 0)
(0.00593566 -2.63827e-07 0)
(0.00593571 -2.90678e-07 0)
(0.00593577 -3.16663e-07 0)
(0.00593583 -3.42661e-07 0)
(0.0059359 -3.67258e-07 0)
(0.00593597 -3.91974e-07 0)
(0.00593606 -4.14564e-07 0)
(0.00593547 -1.87114e-08 0)
(0.00593539 -4.25987e-08 0)
(0.0059354 -6.93516e-08 0)
(0.00593541 -9.64513e-08 0)
(0.00593543 -1.23611e-07 0)
(0.00593545 -1.50784e-07 0)
(0.00593547 -1.77907e-07 0)
(0.00593551 -2.04887e-07 0)
(0.00593554 -2.31797e-07 0)
(0.00593559 -2.58323e-07 0)
(0.00593564 -2.84791e-07 0)
(0.00593569 -3.10504e-07 0)
(0.00593575 -3.36213e-07 0)
(0.00593583 -3.60636e-07 0)
(0.0059359 -3.85146e-07 0)
(0.00593599 -4.07638e-07 0)
(0.00593539 -1.8254e-08 0)
(0.00593531 -4.14514e-08 0)
(0.00593532 -6.7495e-08 0)
(0.00593533 -9.39035e-08 0)
(0.00593535 -1.20387e-07 0)
(0.00593537 -1.46935e-07 0)
(0.00593539 -1.73456e-07 0)
(0.00593543 -1.99912e-07 0)
(0.00593546 -2.26318e-07 0)
(0.00593551 -2.52448e-07 0)
(0.00593556 -2.78524e-07 0)
(0.00593562 -3.03976e-07 0)
(0.00593568 -3.29407e-07 0)
(0.00593576 -3.53687e-07 0)
(0.00593584 -3.78026e-07 0)
(0.00593593 -4.00465e-07 0)
(0.0059353 -1.77619e-08 0)
(0.00593523 -4.02365e-08 0)
(0.00593524 -6.55289e-08 0)
(0.00593525 -9.12044e-08 0)
(0.00593527 -1.16972e-07 0)
(0.00593529 -1.42857e-07 0)
(0.00593532 -1.68744e-07 0)
(0.00593535 -1.94646e-07 0)
(0.00593539 -2.20528e-07 0)
(0.00593543 -2.46245e-07 0)
(0.00593549 -2.71923e-07 0)
(0.00593555 -2.97119e-07 0)
(0.00593561 -3.22286e-07 0)
(0.00593569 -3.46455e-07 0)
(0.00593577 -3.70657e-07 0)
(0.00593587 -3.93096e-07 0)
(0.00593522 -1.72408e-08 0)
(0.00593515 -3.89535e-08 0)
(0.00593516 -6.34523e-08 0)
(0.00593517 -8.83532e-08 0)
(0.00593519 -1.13366e-07 0)
(0.00593521 -1.38549e-07 0)
(0.00593524 -1.63769e-07 0)
(0.00593527 -1.89088e-07 0)
(0.00593531 -2.14422e-07 0)
(0.00593536 -2.39713e-07 0)
(0.00593541 -2.64987e-07 0)
(0.00593548 -2.89938e-07 0)
(0.00593554 -3.14856e-07 0)
(0.00593562 -3.38951e-07 0)
(0.00593571 -3.63053e-07 0)
(0.0059358 -3.85547e-07 0)
(0.00593514 -1.66905e-08 0)
(0.00593507 -3.76161e-08 0)
(0.00593508 -6.12867e-08 0)
(0.00593509 -8.53774e-08 0)
(0.00593511 -1.09601e-07 0)
(0.00593514 -1.34046e-07 0)
(0.00593517 -1.58569e-07 0)
(0.0059352 -1.83273e-07 0)
(0.00593524 -2.08037e-07 0)
(0.00593529 -2.32886e-07 0)
(0.00593534 -2.57747e-07 0)
(0.00593541 -2.8246e-07 0)
(0.00593548 -3.07141e-07 0)
(0.00593556 -3.31199e-07 0)
(0.00593564 -3.55243e-07 0)
(0.00593574 -3.77855e-07 0)
(0.00593507 -1.61168e-08 0)
(0.005935 -3.62426e-08 0)
(0.00593501 -5.90616e-08 0)
(0.00593502 -8.23168e-08 0)
(0.00593504 -1.05726e-07 0)
(0.00593506 -1.29406e-07 0)
(0.00593509 -1.53207e-07 0)
(0.00593513 -1.77271e-07 0)
(0.00593517 -2.01446e-07 0)
(0.00593522 -2.25838e-07 0)
(0.00593527 -2.50279e-07 0)
(0.00593534 -2.74763e-07 0)
(0.00593541 -2.99223e-07 0)
(0.00593549 -3.23284e-07 0)
(0.00593558 -3.47311e-07 0)
(0.00593568 -3.70107e-07 0)
(0.005935 -1.55277e-08 0)
(0.00593493 -3.48575e-08 0)
(0.00593494 -5.68155e-08 0)
(0.00593495 -7.9222e-08 0)
(0.00593497 -1.01804e-07 0)
(0.005935 -1.24697e-07 0)
(0.00593503 -1.47759e-07 0)
(0.00593506 -1.71156e-07 0)
(0.0059351 -1.94724e-07 0)
(0.00593515 -2.1864e-07 0)
(0.00593521 -2.42652e-07 0)
(0.00593527 -2.6691e-07 0)
(0.00593534 -2.91159e-07 0)
(0.00593543 -3.15263e-07 0)
(0.00593552 -3.39315e-07 0)
(0.00593562 -3.62374e-07 0)
(0.00593493 -1.49336e-08 0)
(0.00593486 -3.35027e-08 0)
(0.00593487 -5.46157e-08 0)
(0.00593489 -7.61842e-08 0)
(0.00593491 -9.7947e-08 0)
(0.00593493 -1.2005e-07 0)
(0.00593496 -1.42369e-07 0)
(0.00593499 -1.65085e-07 0)
(0.00593504 -1.88035e-07 0)
(0.00593508 -2.11461e-07 0)
(0.00593514 -2.35034e-07 0)
(0.00593521 -2.59072e-07 0)
(0.00593528 -2.83118e-07 0)
(0.00593536 -3.07306e-07 0)
(0.00593545 -3.31424e-07 0)
(0.00593556 -3.54826e-07 0)
(0.00593486 -1.43526e-08 0)
(0.0059348 -3.22257e-08 0)
(0.00593481 -5.25379e-08 0)
(0.00593482 -7.33041e-08 0)
(0.00593484 -9.42789e-08 0)
(0.00593487 -1.15605e-07 0)
(0.0059349 -1.37194e-07 0)
(0.00593493 -1.59222e-07 0)
(0.00593497 -1.81548e-07 0)
(0.00593502 -2.04468e-07 0)
(0.00593508 -2.27591e-07 0)
(0.00593514 -2.51405e-07 0)
(0.00593522 -2.75251e-07 0)
(0.0059353 -2.99559e-07 0)
(0.00593539 -3.23783e-07 0)
(0.0059355 -3.47617e-07 0)
(0.0059348 -1.3805e-08 0)
(0.00593474 -3.11006e-08 0)
(0.00593475 -5.07009e-08 0)
(0.00593477 -7.0743e-08 0)
(0.00593478 -9.09997e-08 0)
(0.00593481 -1.11597e-07 0)
(0.00593484 -1.32495e-07 0)
(0.00593487 -1.53849e-07 0)
(0.00593491 -1.75561e-07 0)
(0.00593496 -1.97964e-07 0)
(0.00593502 -2.20628e-07 0)
(0.00593508 -2.44212e-07 0)
(0.00593515 -2.67854e-07 0)
(0.00593524 -2.92315e-07 0)
(0.00593533 -3.16678e-07 0)
(0.00593543 -3.41039e-07 0)
(0.00593474 -1.33227e-08 0)
(0.00593469 -3.02111e-08 0)
(0.0059347 -4.92393e-08 0)
(0.00593471 -6.86829e-08 0)
(0.00593473 -8.83356e-08 0)
(0.00593475 -1.08289e-07 0)
(0.00593478 -1.28567e-07 0)
(0.00593481 -1.49282e-07 0)
(0.00593485 -1.70404e-07 0)
(0.0059349 -1.92285e-07 0)
(0.00593495 -2.14481e-07 0)
(0.00593502 -2.37819e-07 0)
(0.00593509 -2.61244e-07 0)
(0.00593517 -2.85881e-07 0)
(0.00593527 -3.10406e-07 0)
(0.00593537 -3.35391e-07 0)
(0.00593469 -1.29416e-08 0)
(0.00593464 -2.96747e-08 0)
(0.00593465 -4.8342e-08 0)
(0.00593466 -6.73813e-08 0)
(0.00593468 -8.66079e-08 0)
(0.0059347 -1.06058e-07 0)
(0.00593472 -1.25837e-07 0)
(0.00593476 -1.45986e-07 0)
(0.0059348 -1.66573e-07 0)
(0.00593484 -1.87942e-07 0)
(0.0059349 -2.09668e-07 0)
(0.00593496 -2.32739e-07 0)
(0.00593503 -2.55923e-07 0)
(0.00593511 -2.80744e-07 0)
(0.0059352 -3.05441e-07 0)
(0.00593531 -3.3115e-07 0)
(0.00593463 -1.27122e-08 0)
(0.00593459 -2.96246e-08 0)
(0.0059346 -4.82243e-08 0)
(0.00593461 -6.71322e-08 0)
(0.00593463 -8.61855e-08 0)
(0.00593465 -1.0534e-07 0)
(0.00593467 -1.248e-07 0)
(0.0059347 -1.44502e-07 0)
(0.00593474 -1.64645e-07 0)
(0.00593479 -1.85529e-07 0)
(0.00593484 -2.06795e-07 0)
(0.0059349 -2.29569e-07 0)
(0.00593497 -2.52475e-07 0)
(0.00593505 -2.7747e-07 0)
(0.00593514 -3.02329e-07 0)
(0.00593524 -3.28855e-07 0)
(0.00593458 -1.26916e-08 0)
(0.00593454 -3.02314e-08 0)
(0.00593455 -4.9162e-08 0)
(0.00593456 -6.8315e-08 0)
(0.00593458 -8.75466e-08 0)
(0.0059346 -1.06707e-07 0)
(0.00593463 -1.2611e-07 0)
(0.00593466 -1.45555e-07 0)
(0.00593469 -1.65404e-07 0)
(0.00593473 -1.85867e-07 0)
(0.00593478 -2.06705e-07 0)
(0.00593484 -2.29151e-07 0)
(0.00593491 -2.51732e-07 0)
(0.00593498 -2.76863e-07 0)
(0.00593507 -3.01845e-07 0)
(0.00593517 -3.29272e-07 0)
(0.00593454 -1.29531e-08 0)
(0.0059345 -3.16849e-08 0)
(0.00593451 -5.14638e-08 0)
(0.00593452 -7.13559e-08 0)
(0.00593454 -9.12327e-08 0)
(0.00593455 -1.10808e-07 0)
(0.00593458 -1.3052e-07 0)
(0.00593461 -1.49987e-07 0)
(0.00593464 -1.69768e-07 0)
(0.00593468 -1.8993e-07 0)
(0.00593473 -2.10411e-07 0)
(0.00593479 -2.32502e-07 0)
(0.00593485 -2.54702e-07 0)
(0.00593492 -2.79897e-07 0)
(0.00593501 -3.04926e-07 0)
(0.0059351 -3.33313e-07 0)
(0.0059345 -1.35782e-08 0)
(0.00593446 -3.42091e-08 0)
(0.00593447 -5.54945e-08 0)
(0.00593448 -7.67626e-08 0)
(0.00593449 -9.78928e-08 0)
(0.00593451 -1.18434e-07 0)
(0.00593454 -1.38953e-07 0)
(0.00593456 -1.58847e-07 0)
(0.0059346 -1.78899e-07 0)
(0.00593464 -1.98964e-07 0)
(0.00593468 -2.19231e-07 0)
(0.00593473 -2.40965e-07 0)
(0.00593479 -2.62737e-07 0)
(0.00593486 -2.87888e-07 0)
(0.00593494 -3.12842e-07 0)
(0.00593503 -3.42211e-07 0)
(0.00593445 -1.46627e-08 0)
(0.00593441 -3.80408e-08 0)
(0.00593442 -6.16423e-08 0)
(0.00593443 -8.50794e-08 0)
(0.00593445 -1.0823e-07 0)
(0.00593447 -1.30449e-07 0)
(0.00593449 -1.52438e-07 0)
(0.00593452 -1.73321e-07 0)
(0.00593455 -1.94132e-07 0)
(0.00593459 -2.14438e-07 0)
(0.00593463 -2.3474e-07 0)
(0.00593468 -2.56179e-07 0)
(0.00593473 -2.77516e-07 0)
(0.00593479 -3.02483e-07 0)
(0.00593487 -3.27196e-07 0)
(0.00593496 -3.57514e-07 0)
(0.00593441 -1.63084e-08 0)
(0.00593437 -4.34336e-08 0)
(0.00593438 -7.03245e-08 0)
(0.00593439 -9.68964e-08 0)
(0.00593441 -1.23016e-07 0)
(0.00593443 -1.47818e-07 0)
(0.00593445 -1.72136e-07 0)
(0.00593448 -1.94775e-07 0)
(0.00593451 -2.17041e-07 0)
(0.00593454 -2.38113e-07 0)
(0.00593458 -2.5888e-07 0)
(0.00593463 -2.80209e-07 0)
(0.00593467 -3.01193e-07 0)
(0.00593473 -3.25834e-07 0)
(0.0059348 -3.5012e-07 0)
(0.00593488 -3.81273e-07 0)
(0.00593437 -1.86237e-08 0)
(0.00593433 -5.06289e-08 0)
(0.00593434 -8.19419e-08 0)
(0.00593435 -1.12788e-07 0)
(0.00593437 -1.43011e-07 0)
(0.00593439 -1.71508e-07 0)
(0.00593441 -1.99241e-07 0)
(0.00593444 -2.24652e-07 0)
(0.00593447 -2.49328e-07 0)
(0.0059345 -2.71962e-07 0)
(0.00593454 -2.93885e-07 0)
(0.00593458 -3.15504e-07 0)
(0.00593462 -3.36389e-07 0)
(0.00593467 -3.60597e-07 0)
(0.00593472 -3.8424e-07 0)
(0.00593479 -4.15949e-07 0)
(0.00593433 -2.1712e-08 0)
(0.00593428 -5.98456e-08 0)
(0.00593429 -9.68606e-08 0)
(0.0059343 -1.33286e-07 0)
(0.00593432 -1.68935e-07 0)
(0.00593434 -2.0246e-07 0)
(0.00593437 -2.34942e-07 0)
(0.00593439 -2.64434e-07 0)
(0.00593442 -2.92807e-07 0)
(0.00593445 -3.18165e-07 0)
(0.00593449 -3.42329e-07 0)
(0.00593452 -3.65018e-07 0)
(0.00593456 -3.86399e-07 0)
(0.0059346 -4.10241e-07 0)
(0.00593465 -4.33027e-07 0)
(0.0059347 -4.64698e-07 0)
(0.00593428 -2.56666e-08 0)
(0.00593423 -7.12418e-08 0)
(0.00593424 -1.1535e-07 0)
(0.00593425 -1.58794e-07 0)
(0.00593427 -2.0135e-07 0)
(0.00593429 -2.41436e-07 0)
(0.00593432 -2.80249e-07 0)
(0.00593434 -3.15443e-07 0)
(0.00593438 -3.49178e-07 0)
(0.00593441 -3.78897e-07 0)
(0.00593444 -4.06956e-07 0)
(0.00593447 -4.32154e-07 0)
(0.00593451 -4.55383e-07 0)
(0.00593454 -4.79641e-07 0)
(0.00593457 -5.01955e-07 0)
(0.00593461 -5.33107e-07 0)
(0.00593422 -3.0555e-08 0)
(0.00593416 -8.48923e-08 0)
(0.00593418 -1.37544e-07 0)
(0.00593419 -1.89527e-07 0)
(0.00593421 -2.40581e-07 0)
(0.00593423 -2.88918e-07 0)
(0.00593426 -3.35848e-07 0)
(0.00593429 -3.78652e-07 0)
(0.00593432 -4.19788e-07 0)
(0.00593436 -4.5601e-07 0)
(0.00593439 -4.90292e-07 0)
(0.00593442 -5.20349e-07 0)
(0.00593445 -5.48035e-07 0)
(0.00593448 -5.75131e-07 0)
(0.0059345 -5.99591e-07 0)
(0.00593452 -6.3207e-07 0)
(0.00593416 -3.64086e-08 0)
(0.00593409 -1.00751e-07 0)
(0.0059341 -1.63378e-07 0)
(0.00593412 -2.25421e-07 0)
(0.00593414 -2.86589e-07 0)
(0.00593417 -3.4493e-07 0)
(0.0059342 -4.01872e-07 0)
(0.00593423 -4.54369e-07 0)
(0.00593426 -5.05193e-07 0)
(0.0059343 -5.50432e-07 0)
(0.00593433 -5.9375e-07 0)
(0.00593436 -6.31713e-07 0)
(0.00593439 -6.67455e-07 0)
(0.00593441 -7.01247e-07 0)
(0.00593442 -7.32863e-07 0)
(0.00593442 -7.71945e-07 0)
(0.00593409 -4.3207e-08 0)
(0.005934 -1.18631e-07 0)
(0.00593402 -1.92556e-07 0)
(0.00593403 -2.66082e-07 0)
(0.00593406 -3.38898e-07 0)
(0.00593408 -4.08943e-07 0)
(0.00593412 -4.77764e-07 0)
(0.00593415 -5.42062e-07 0)
(0.00593419 -6.04907e-07 0)
(0.00593423 -6.61773e-07 0)
(0.00593427 -7.17029e-07 0)
(0.0059343 -7.66007e-07 0)
(0.00593432 -8.13242e-07 0)
(0.00593434 -8.57034e-07 0)
(0.00593434 -8.99333e-07 0)
(0.00593432 -9.47499e-07 0)
(0.005934 -5.08703e-08 0)
(0.0059339 -1.38191e-07 0)
(0.00593391 -2.24522e-07 0)
(0.00593393 -3.10745e-07 0)
(0.00593396 -3.96538e-07 0)
(0.00593399 -4.798e-07 0)
(0.00593403 -5.62192e-07 0)
(0.00593407 -6.4025e-07 0)
(0.00593411 -7.1732e-07 0)
(0.00593415 -7.88351e-07 0)
(0.00593419 -8.58365e-07 0)
(0.00593422 -9.2145e-07 0)
(0.00593425 -9.83538e-07 0)
(0.00593426 -1.04056e-06 0)
(0.00593425 -1.09689e-06 0)
(0.00593421 -1.15645e-06 0)
(0.00593389 -5.9251e-08 0)
(0.00593378 -1.58933e-07 0)
(0.0059338 -2.58462e-07 0)
(0.00593381 -3.58274e-07 0)
(0.00593384 -4.58045e-07 0)
(0.00593388 -5.55706e-07 0)
(0.00593392 -6.53025e-07 0)
(0.00593396 -7.46482e-07 0)
(0.00593401 -8.39651e-07 0)
(0.00593405 -9.27086e-07 0)
(0.00593409 -1.01437e-06 0)
(0.00593413 -1.09442e-06 0)
(0.00593416 -1.17444e-06 0)
(0.00593417 -1.24778e-06 0)
(0.00593415 -1.32125e-06 0)
(0.0059341 -1.39447e-06 0)
(0.00593377 -6.81358e-08 0)
(0.00593364 -1.80215e-07 0)
(0.00593366 -2.93323e-07 0)
(0.00593368 -4.07186e-07 0)
(0.00593371 -5.2149e-07 0)
(0.00593374 -6.34263e-07 0)
(0.00593379 -7.47374e-07 0)
(0.00593383 -8.57362e-07 0)
(0.00593388 -9.67981e-07 0)
(0.00593393 -1.07356e-06 0)
(0.00593398 -1.18013e-06 0)
(0.00593402 -1.27959e-06 0)
(0.00593405 -1.38026e-06 0)
(0.00593407 -1.47283e-06 0)
(0.00593405 -1.56651e-06 0)
(0.005934 -1.65583e-06 0)
(0.00593363 -7.72505e-08 0)
(0.00593348 -2.0129e-07 0)
(0.0059335 -3.2787e-07 0)
(0.00593352 -4.55731e-07 0)
(0.00593356 -5.84569e-07 0)
(0.00593359 -7.12578e-07 0)
(0.00593364 -8.41707e-07 0)
(0.00593369 -9.6868e-07 0)
(0.00593374 -1.09737e-06 0)
(0.0059338 -1.2221e-06 0)
(0.00593385 -1.34919e-06 0)
(0.0059339 -1.46985e-06 0)
(0.00593393 -1.59324e-06 0)
(0.00593395 -1.70757e-06 0)
(0.00593394 -1.82416e-06 0)
(0.00593389 -1.93187e-06 0)
(0.00593348 -8.62743e-08 0)
(0.0059333 -2.21342e-07 0)
(0.00593332 -3.60757e-07 0)
(0.00593335 -5.01987e-07 0)
(0.00593338 -6.44743e-07 0)
(0.00593342 -7.87424e-07 0)
(0.00593347 -9.32041e-07 0)
(0.00593352 -1.07561e-06 0)
(0.00593358 -1.22206e-06 0)
(0.00593364 -1.36595e-06 0)
(0.00593369 -1.51376e-06 0)
(0.00593375 -1.65641e-06 0)
(0.00593379 -1.80365e-06 0)
(0.00593382 -1.94174e-06 0)
(0.00593382 -2.08362e-06 0)
(0.00593378 -2.21234e-06 0)
(0.0059333 -9.4859e-08 0)
(0.00593311 -2.39559e-07 0)
(0.00593313 -3.90631e-07 0)
(0.00593315 -5.44019e-07 0)
(0.00593319 -6.99429e-07 0)
(0.00593323 -8.55492e-07 0)
(0.00593328 -1.01423e-06 0)
(0.00593333 -1.17306e-06 0)
(0.00593339 -1.33585e-06 0)
(0.00593345 -1.49764e-06 0)
(0.00593352 -1.66494e-06 0)
(0.00593358 -1.82887e-06 0)
(0.00593363 -1.99954e-06 0)
(0.00593367 -2.16209e-06 0)
(0.00593369 -2.33061e-06 0)
(0.00593367 -2.48281e-06 0)
(0.00593311 -1.02657e-07 0)
(0.0059329 -2.55194e-07 0)
(0.00593292 -4.16254e-07 0)
(0.00593295 -5.80044e-07 0)
(0.00593298 -7.46238e-07 0)
(0.00593302 -9.1369e-07 0)
(0.00593307 -1.08438e-06 0)
(0.00593313 -1.25612e-06 0)
(0.00593319 -1.43265e-06 0)
(0.00593325 -1.60962e-06 0)
(0.00593332 -1.79336e-06 0)
(0.00593339 -1.97568e-06 0)
(0.00593345 -2.1668e-06 0)
(0.00593351 -2.35181e-06 0)
(0.00593355 -2.54569e-06 0)
(0.00593356 -2.72215e-06 0)
(0.0059329 -1.09349e-07 0)
(0.00593268 -2.67645e-07 0)
(0.0059327 -4.36624e-07 0)
(0.00593273 -6.08621e-07 0)
(0.00593276 -7.83237e-07 0)
(0.0059328 -9.59509e-07 0)
(0.00593286 -1.13929e-06 0)
(0.00593291 -1.32075e-06 0)
(0.00593297 -1.50735e-06 0)
(0.00593304 -1.69535e-06 0)
(0.00593311 -1.89059e-06 0)
(0.00593319 -2.08585e-06 0)
(0.00593326 -2.29083e-06 0)
(0.00593333 -2.49167e-06 0)
(0.00593339 -2.70382e-06 0)
(0.00593344 -2.90015e-06 0)
(0.00593268 -1.14679e-07 0)
(0.00593245 -2.76509e-07 0)
(0.00593247 -4.51075e-07 0)
(0.0059325 -6.28797e-07 0)
(0.00593253 -8.09161e-07 0)
(0.00593257 -9.91329e-07 0)
(0.00593263 -1.17692e-06 0)
(0.00593268 -1.36443e-06 0)
(0.00593275 -1.55678e-06 0)
(0.00593282 -1.7508e-06 0)
(0.00593289 -1.95139e-06 0)
(0.00593297 -2.15216e-06 0)
(0.00593305 -2.36126e-06 0)
(0.00593314 -2.56587e-06 0)
(0.00593323 -2.77927e-06 0)
(0.00593333 -2.97533e-06 0)
(0.00593245 -1.18474e-07 0)
(0.00593222 -2.81614e-07 0)
(0.00593224 -4.59331e-07 0)
(0.00593226 -6.40193e-07 0)
(0.0059323 -8.23539e-07 0)
(0.00593234 -1.0086e-06 0)
(0.00593239 -1.1967e-06 0)
(0.00593245 -1.38654e-06 0)
(0.00593252 -1.58045e-06 0)
(0.00593259 -1.77571e-06 0)
(0.00593267 -1.97609e-06 0)
(0.00593276 -2.17602e-06 0)
(0.00593285 -2.3817e-06 0)
(0.00593296 -2.58179e-06 0)
(0.00593307 -2.78669e-06 0)
(0.00593321 -2.97369e-06 0)
(0.00593221 -1.20662e-07 0)
(0.00593198 -2.83015e-07 0)
(0.005932 -4.61492e-07 0)
(0.00593203 -6.4298e-07 0)
(0.00593207 -8.26647e-07 0)
(0.00593211 -1.01174e-06 0)
(0.00593216 -1.19927e-06 0)
(0.00593222 -1.38808e-06 0)
(0.00593229 -1.57988e-06 0)
(0.00593237 -1.77235e-06 0)
(0.00593246 -1.96811e-06 0)
(0.00593255 -2.16252e-06 0)
(0.00593266 -2.35988e-06 0)
(0.00593278 -2.5509e-06 0)
(0.00593292 -2.74334e-06 0)
(0.00593309 -2.91951e-06 0)
(0.00593198 -1.21264e-07 0)
(0.00593175 -2.80962e-07 0)
(0.00593177 -4.57989e-07 0)
(0.00593179 -6.37798e-07 0)
(0.00593184 -8.19389e-07 0)
(0.00593188 -1.00201e-06 0)
(0.00593194 -1.18632e-06 0)
(0.005932 -1.37132e-06 0)
(0.00593207 -1.55811e-06 0)
(0.00593215 -1.74477e-06 0)
(0.00593225 -1.93291e-06 0)
(0.00593235 -2.11884e-06 0)
(0.00593247 -2.3053e-06 0)
(0.00593261 -2.48525e-06 0)
(0.00593277 -2.66421e-06 0)
(0.00593297 -2.82971e-06 0)
(0.00593174 -1.20389e-07 0)
(0.00593152 -2.75853e-07 0)
(0.00593154 -4.49491e-07 0)
(0.00593157 -6.25626e-07 0)
(0.00593161 -8.03104e-07 0)
(0.00593166 -9.8116e-07 0)
(0.00593172 -1.16016e-06 0)
(0.00593178 -1.33921e-06 0)
(0.00593186 -1.5189e-06 0)
(0.00593195 -1.69771e-06 0)
(0.00593205 -1.87643e-06 0)
(0.00593217 -2.05235e-06 0)
(0.0059323 -2.22696e-06 0)
(0.00593246 -2.39542e-06 0)
(0.00593263 -2.56146e-06 0)
(0.00593285 -2.71714e-06 0)
(0.00593152 -1.18205e-07 0)
(0.0059313 -2.68178e-07 0)
(0.00593133 -4.36814e-07 0)
(0.00593135 -6.07643e-07 0)
(0.0059314 -7.79382e-07 0)
(0.00593144 -9.51259e-07 0)
(0.00593151 -1.12338e-06 0)
(0.00593157 -1.29498e-06 0)
(0.00593166 -1.46623e-06 0)