/*--------------------------------*- C++ -*----------------------------------*\
  =========                 |
  \\      /  F ield         | OpenFOAM: The Open Source CFD Toolbox
   \\    /   O peration     | Website:  https://openfoam.org
    \\  /    A nd           | Version:  8
     \\/     M anipulation  |
\*---------------------------------------------------------------------------*/
FoamFile
{
    version     2.0;
    format      ascii;
    class       volVectorField;
    location    "0.0625000";
    object      cellDisplacement;
}
// * * * * * * * * * * * * * * * * * * * * * * * * * * * * * * * * * * * * * //

dimensions      [0 1 0 0 0 0 0];

internalField   nonuniform List<vector> 
900
(
(2.61292862873571e-28 -8.09539676904967e-07 -5.43990335377573e-14)
(2.52140745561944e-28 -8.11954064514814e-07 -5.10624442235095e-14)
(2.4844866338778e-28 -8.1626141862549e-07 -6.12983151735446e-15)
(2.41858421642119e-28 -8.21655939973764e-07 -6.39464896044099e-14)
(2.38210261464673e-28 -8.27795315298253e-07 8.51956067099993e-14)
(2.31498085039838e-28 -8.34527942410759e-07 2.30025506230596e-13)
(2.2791099059518e-28 -8.41896835636253e-07 1.33294327972201e-13)
(2.21418662949956e-28 -8.49904904076002e-07 4.71363130886305e-14)
(2.1789601609694e-28 -8.58421892799805e-07 1.02284086392249e-13)
(2.11598960924339e-28 -8.67368372802562e-07 8.80752061882006e-14)
(2.08129251616659e-28 -8.76790061655984e-07 -1.61736882295608e-14)
(2.02024703426599e-28 -8.86694929084664e-07 -1.72977279657691e-15)
(1.98601860089e-28 -8.96995269802854e-07 8.16176999549599e-14)
(1.92673988925737e-28 -9.07648501580696e-07 -5.99790225140055e-14)
(1.89294104014732e-28 -9.18719179944013e-07 -1.35111989646025e-13)
(1.83544747815802e-28 -9.30215095127364e-07 1.99291911711748e-14)
(1.80205128634465e-28 -9.42057595546523e-07 1.21220917718353e-14)
(1.74622791650044e-28 -9.54231228781711e-07 -1.20998339136951e-13)
(1.71324049603769e-28 -9.66813545938989e-07 -1.11923953031573e-13)
(1.65911010423496e-28 -9.79821270780813e-07 7.56195152076927e-14)
(1.62651210032434e-28 -9.93182690863612e-07 4.6715361664001e-14)
(1.57400344440654e-28 -1.00688681565448e-06 1.45591747947071e-14)
(1.5418311859552e-28 -1.02102441089891e-06 -5.04879862413927e-15)
(1.49096186668482e-28 -1.03561933453911e-06 -3.35710533328455e-14)
(1.45920882376695e-28 -1.0506026531904e-06 1.1546894253432e-13)
(1.40993872125491e-28 -1.06597515527351e-06 2.24639896072965e-13)
(1.3786446217895e-28 -1.08186848704761e-06 1.17156981157209e-13)
(1.33097942921751e-28 -1.09830567716187e-06 -2.77216232220869e-15)
(1.30014673449525e-28 -1.11519343036478e-06 -1.76905296830836e-14)
(1.25407038544762e-28 -1.13256704174258e-06 -9.9309192508709e-15)
(1.22376626388832e-28 -1.15060026765535e-06 7.13156296367865e-15)
(1.17928940518947e-28 -1.16933852858304e-06 -1.91688998898065e-15)
(1.14950771866951e-28 -1.18869323281765e-06 -6.80621926808083e-14)
(1.10662866404862e-28 -1.20873271586854e-06 -6.70771674418223e-14)
(1.07747299869304e-28 -1.22969883587778e-06 -7.62642229591743e-14)
(1.03621293560665e-28 -1.25166206507339e-06 -8.85818793903681e-14)
(1.0076735035542e-28 -1.27453612158262e-06 5.21257640071637e-15)
(9.6804754144951e-29 -1.29848239865606e-06 -1.18178303773764e-13)
(9.4027562493919e-29 -1.3238699298235e-06 -6.99336251906386e-14)
(9.02323691956266e-29 -1.35080495561124e-06 1.35822236808279e-13)
(8.75291580510662e-29 -1.37921086817016e-06 1.1229211041707e-13)
(8.39030908904316e-29 -1.40941590228348e-06 -1.06146094229717e-13)
(8.13402834872256e-29 -1.44200359146018e-06 -2.11044322263667e-13)
(7.82777608739416e-29 -1.47712499686373e-06 2.19577335574076e-14)
(7.40613734802026e-29 -1.51471984265546e-06 2.2244926247979e-14)
(7.22041340913074e-29 -1.55546529937849e-06 -5.52810232731186e-14)
(6.83186046895604e-29 -1.60031311794267e-06 -5.79102245448747e-14)
(6.67323542130545e-29 -1.64940763820125e-06 1.96805417488047e-14)
(6.30406425133128e-29 -1.70267633847599e-06 5.14486506714103e-14)
(6.15380130958297e-29 -1.76148650537932e-06 5.52714736193712e-14)
(5.8110234799977e-29 -1.82740926109265e-06 8.5842459142515e-14)
(5.66715298374255e-29 -1.90050621143664e-06 -3.95333821326652e-14)
(5.34980987249167e-29 -1.98071129103966e-06 -1.37991230674107e-13)
(5.21546459531829e-29 -2.07076834011795e-06 -9.65762938835415e-14)
(4.92554936815771e-29 -2.1729637526122e-06 1.48778459457677e-13)
(4.80023519939899e-29 -2.28694766783643e-06 2.24672958763667e-13)
(4.53625358201425e-29 -2.41297445386231e-06 2.27323348044665e-13)
(4.42475855160467e-29 -2.55639167375576e-06 7.90252357231026e-14)
(4.18820914910047e-29 -2.72061327834825e-06 -7.96121656894862e-14)
(4.08772916341939e-29 -2.90608827901787e-06 -3.72009321473996e-14)
(3.87929182094593e-29 -3.11708384470118e-06 -1.16787341667866e-13)
(3.80384065118739e-29 -3.37630723485027e-06 -9.12284821686569e-14)
(3.63860988589672e-29 -3.70235062125809e-06 -1.31118388857034e-13)
(3.59776671391607e-29 -4.09708586639574e-06 -1.68052331478214e-13)
(3.50235120812363e-29 -4.57434168761349e-06 5.12467021867118e-14)
(3.53662421353492e-29 -5.16145477345804e-06 8.78241942211277e-14)
(3.5071417917432e-29 -5.85458177946422e-06 -1.57168723795587e-15)
(3.6015195061229e-29 -6.63194799694415e-06 -3.2430218863947e-14)
(3.63993369406832e-29 -7.50339749700942e-06 2.32991382834552e-14)
(3.80034766880631e-29 -8.47401145965775e-06 1.2917189235556e-13)
(3.86902013281017e-29 -9.52307000166513e-06 2.42790106437098e-14)
(4.07532918283806e-29 -1.06328282122888e-05 -2.56390108259185e-13)
(4.17877408765796e-29 -1.18043987155615e-05 -2.09576935510755e-13)
(4.41014654129413e-29 -1.30209721834452e-05 6.79872292611749e-14)
(4.50109320852245e-29 -1.42562499910229e-05 -6.9923481208721e-14)
(4.73263097231496e-29 -1.54982832754816e-05 -5.97525156612609e-14)
(4.77514393633998e-29 -1.67244459448875e-05 3.93591343073475e-16)
(4.96849126541194e-29 -1.79135781642507e-05 -4.21995076020646e-14)
(4.92317278846823e-29 -1.90566086461273e-05 1.88357897286515e-13)
(5.0233005891359e-29 -2.01260680511816e-05 1.47256620437174e-13)
(4.84748407020711e-29 -2.10960891778272e-05 -6.13119309079727e-14)
(4.84529057468768e-29 -2.19664104509883e-05 -2.63167631292764e-14)
(4.50535488536943e-29 -2.2729649745052e-05 6.45665090999071e-14)
(4.34334074959548e-29 -2.33490543930881e-05 -7.05782210938561e-14)
(3.88759243567523e-29 -2.38233509054276e-05 -1.13874219855368e-13)
(3.61808303272344e-29 -2.41779762160281e-05 -9.71591063550671e-15)
(3.2509258966785e-29 -2.44016043188233e-05 1.87476834460025e-13)
(3.37054380970992e-29 -2.45058521506255e-05 2.65498142864837e-13)
(3.37050927675854e-29 -2.45281991431318e-05 7.91007357688421e-14)
(3.23650623413588e-29 -2.44855588846395e-05 -6.76680317911929e-14)
(3.26827387748917e-29 -2.43887994288252e-05 -4.24489061565429e-14)
(3.11532908847125e-29 -2.42578706651718e-05 1.04240085204339e-13)
(3.12903694181105e-29 -2.41070729444904e-05 1.2168702496845e-13)
(2.96585041472218e-29 -2.39403087289527e-05 4.20115557803194e-14)
(2.97054028430131e-29 -2.3763994138875e-05 1.81229405193364e-14)
(2.81117546331435e-29 -2.3584364364588e-05 -9.6165705612625e-14)
(2.81304871462476e-29 -2.34051895360691e-05 -1.23967572252544e-15)
(2.66160091954366e-29 -2.32319437176088e-05 1.20865851544724e-13)
(2.65979073684221e-29 -2.30705887827519e-05 6.5716559028155e-14)
(2.49622013238366e-29 -2.29342953984298e-05 8.3899860402219e-15)
(7.34918945862646e-28 -2.17566606447432e-06 -1.60483172215279e-13)
(7.0963017229641e-28 -2.17646943368926e-06 -1.50827976816564e-13)
(6.99177674431906e-28 -2.17909605019854e-06 -1.79767415724751e-14)
(6.80675424994645e-28 -2.18266652769348e-06 -1.89157291024174e-13)
(6.70303452893151e-28 -2.18688713246298e-06 2.50682761157874e-13)
(6.51506256381213e-28 -2.1916256975143e-06 6.79257166804781e-13)
(6.41290949449438e-28 -2.19692169071991e-06 3.94189962991154e-13)
(6.23077441071428e-28 -2.2027786207594e-06 1.39238833866653e-13)
(6.13030772691063e-28 -2.2090810426613e-06 3.02138999348677e-13)
(5.95346136893705e-28 -2.21575925321513e-06 2.60671681712351e-13)
(5.85442918080921e-28 -2.22285457731026e-06 -4.76241369926187e-14)
(5.68279803043108e-28 -2.23037472176549e-06 -5.42901219277575e-15)
(5.58507035930202e-28 -2.23824168595648e-06 2.41634147092053e-13)
(5.41830015380161e-28 -2.2464180142566e-06 -1.76824883480519e-13)
(5.32179779172691e-28 -2.25496162245194e-06 -4.00032986706604e-13)
(5.15992752910844e-28 -2.26387984727227e-06 5.86417451849927e-14)
(5.06459971438833e-28 -2.27310239622778e-06 3.63268449647057e-14)
(4.90736877682893e-28 -2.28261582864343e-06 -3.5787948454582e-13)
(4.8132422450155e-28 -2.29248946264505e-06 -3.31984399115974e-13)
(4.66070323962778e-28 -2.30273849335282e-06 2.23586659056569e-13)
(4.56774384621073e-28 -2.31329858789678e-06 1.3852768685409e-13)
(4.41973645222243e-28 -2.32416008367514e-06 4.32649761502303e-14)
(4.32803977662018e-28 -2.33540413888893e-06 -1.48246609163232e-14)
(4.18459973040292e-28 -2.34705225688929e-06 -9.98867783689391e-14)
(4.09416683765358e-28 -2.35904230995206e-06 3.41586087745039e-13)
(3.9552134892162e-28 -2.3713747382179e-06 6.66075784002744e-13)
(3.86614051905962e-28 -2.38416745843484e-06 3.48023052823714e-13)
(3.73167692696111e-28 -2.39744115118599e-06 -7.89896093931293e-15)
(3.64399165449208e-28 -2.4111112679157e-06 -5.24678088230734e-14)
(3.51399363273715e-28 -2.42520906918349e-06 -2.95350531499346e-14)
(3.427856573346e-28 -2.43989000638358e-06 2.11513523045981e-14)
(3.30234149495846e-28 -2.45519453562829e-06 -5.47465972052388e-15)
(3.21776018054333e-28 -2.4710415129402e-06 -2.01918737608174e-13)
(3.09673409614223e-28 -2.48749114910508e-06 -1.99161713002677e-13)
(3.01395201613719e-28 -2.50475997939639e-06 -2.26455352428809e-13)
(2.8974588603296e-28 -2.52291041869798e-06 -2.63389192266683e-13)
(2.81648374891972e-28 -2.54186170761431e-06 1.56183124861992e-14)
(2.70456756452047e-28 -2.5617565990226e-06 -3.51058472046449e-13)
(2.62574564261165e-28 -2.58292551599676e-06 -2.08569685375611e-13)
(2.51850097875879e-28 -2.60546176685167e-06 4.03387404753806e-13)
(2.44181120624601e-28 -2.62929034399989e-06 3.34583791145242e-13)
(2.33927669095533e-28 -2.65470224124187e-06 -3.1489615208166e-13)
(2.26624663871829e-28 -2.68222043542822e-06 -6.28223152710174e-13)
(2.17856415922099e-28 -2.71197587968212e-06 6.4772793960494e-14)
(2.06373917937141e-28 -2.74390253140776e-06 6.64141816423539e-14)
(2.00773954537088e-28 -2.77860269672741e-06 -1.64358209164472e-13)
(1.90013030324809e-28 -2.81693110702719e-06 -1.72620833116925e-13)
(1.8518909784974e-28 -2.85900787390989e-06 5.83272201128414e-14)
(1.74971651766635e-28 -2.90474395731906e-06 1.53149142434885e-13)
(1.70394307454174e-28 -2.95536088607854e-06 1.64565554359147e-13)
(1.60875404311625e-28 -3.01227260019135e-06 2.5605206044911e-13)
(1.56493188527353e-28 -3.07551439999483e-06 -1.17224955273078e-13)
(1.47656808531193e-28 -3.14497859561533e-06 -4.11200322102462e-13)
(1.43540261338011e-28 -3.22313236980776e-06 -2.8874809484503e-13)
(1.35426761863322e-28 -3.31203680079543e-06 4.42801247032588e-13)
(1.31577426327836e-28 -3.41133000629397e-06 6.69911547118548e-13)
(1.24157477223721e-28 -3.5211557451144e-06 6.78622443508115e-13)
(1.20676316122111e-28 -3.64633728889583e-06 2.36712231963408e-13)
(1.13979480227946e-28 -3.78993151786043e-06 -2.37286953772971e-13)
(1.10830370672224e-28 -3.95219863783643e-06 -1.1094213455965e-13)
(1.04879490336989e-28 -4.1366340697785e-06 -3.48686784049309e-13)
(1.02357170095061e-28 -4.36355930924735e-06 -2.7258190372764e-13)
(9.7492978603297e-29 -4.6497531022474e-06 -3.91653983416209e-13)
(9.58710655914997e-29 -4.99626832648432e-06 -5.03198487855562e-13)
(9.26180262387811e-29 -5.41525888147423e-06 1.52355742058761e-13)
(9.27178647758013e-29 -5.93141538034909e-06 2.63055859813832e-13)
(9.11059026291703e-29 -6.54160634336197e-06 -4.14658442252117e-15)
(9.26223164869422e-29 -7.22549402992856e-06 -9.71636549599379e-14)
(9.24641341076619e-29 -7.99215361779973e-06 6.8900784928945e-14)
(9.55714128027673e-29 -8.84646928820191e-06 3.86442577060279e-13)
(9.62582006802585e-29 -9.7699492166245e-06 7.47372177691983e-14)
(1.00214618982663e-28 -1.07465908280282e-05 -7.65420131696891e-13)
(1.01628848193408e-28 -1.17772045530825e-05 -6.28383723333541e-13)
(1.06440748506075e-28 -1.28475441781203e-05 2.02242668269753e-13)
(1.07455661517507e-28 -1.39339076869047e-05 -2.08002338544485e-13)
(1.12359646695606e-28 -1.50255278294584e-05 -1.78673343725693e-13)
(1.12515560226096e-28 -1.61029693247306e-05 1.07341386616174e-15)
(1.16502186993399e-28 -1.714737896822e-05 -1.26776493592155e-13)
(1.14906865799614e-28 -1.81498293576737e-05 5.59472304896918e-13)
(1.1732966043394e-28 -1.90873229105401e-05 4.39029635972564e-13)
(1.12602769141416e-28 -1.99376209295497e-05 -1.81346066148314e-13)
(1.12426651307783e-28 -2.06989197391878e-05 -7.87258216241082e-14)
(1.04852166597929e-28 -2.13633897659904e-05 1.91562861210278e-13)
(1.01202117389668e-28 -2.19033428863337e-05 -2.08408477851044e-13)
(9.0026757647313e-29 -2.23166513073821e-05 -3.37480282921823e-13)
(8.45405310945257e-29 -2.26212930045075e-05 -2.97571806202616e-14)
(7.59428252740256e-29 -2.28151215392166e-05 5.53967872350017e-13)
(7.90929860436806e-29 -2.2910119771759e-05 7.86528297313623e-13)
(7.92449041152662e-29 -2.29321953685539e-05 2.34940204108521e-13)
(7.60828649454693e-29 -2.28968492468072e-05 -2.00569494623501e-13)
(7.71595598265747e-29 -2.28151262391787e-05 -1.26143272173348e-13)
(7.34275504922102e-29 -2.2702918793003e-05 3.09548403066607e-13)
(7.39545968136278e-29 -2.25721027083407e-05 3.61634671980694e-13)
(7.0000150094122e-29 -2.2427428480811e-05 1.24921898439278e-13)
(7.02918601249698e-29 -2.2274364989392e-05 5.39372175830518e-14)
(6.63858520781792e-29 -2.21181042926378e-05 -2.86038901234717e-13)
(6.66158864645682e-29 -2.19623834746746e-05 -3.69574694761984e-15)
(6.29058104238094e-29 -2.18120563253606e-05 3.59773828294526e-13)
(6.30839957272371e-29 -2.16735884471444e-05 1.95733157282649e-13)
(5.94003953818157e-29 -2.15642907240727e-05 2.49916712057448e-14)
(1.13652351184616e-27 -3.51426408619689e-06 -2.64463526481508e-13)
(1.09895827831868e-27 -3.51383366316731e-06 -2.49102859683931e-13)
(1.08304563367303e-27 -3.51513570129582e-06 -2.92575027163754e-14)
(1.05416244454739e-27 -3.51724537331458e-06 -3.13117079289768e-13)
(1.03831920948236e-27 -3.519913504679e-06 4.10620244573086e-13)
(1.00909818798556e-27 -3.5230267757119e-06 1.12007821764844e-12)
(9.93464352449356e-28 -3.52661877995991e-06 6.51645333050907e-13)
(9.65117478128706e-28 -3.53069267793721e-06 2.29618232814555e-13)
(9.49712632305524e-28 -3.53514949038904e-06 4.98163285289387e-13)
(9.22169800390388e-28 -3.53992966178157e-06 4.31249781364376e-13)
(9.06962730666747e-28 -3.54506848541081e-06 -7.80349269605808e-14)
(8.80213003807528e-28 -3.55057276366518e-06 -9.9280589474606e-15)
(8.65188538395108e-28 -3.55637557426248e-06 3.99706778770665e-13)
(8.39186234427659e-28 -3.56244502934636e-06 -2.90174616138765e-13)
(8.24335710796929e-28 -3.56883071095639e-06 -6.61472172689483e-13)
(7.99085690690767e-28 -3.57553914241587e-06 9.58864590892775e-14)
(7.84404468456928e-28 -3.58250999162217e-06 6.13438487465898e-14)
(7.59872592406396e-28 -3.58973197094198e-06 -5.90281780654601e-13)
(7.45366360298619e-28 -3.59726452484707e-06 -5.50221496244746e-13)
(7.21559742483998e-28 -3.60512096158456e-06 3.6843799404807e-13)
(7.0722582605453e-28 -3.61324604299328e-06 2.29363775935576e-13)
(6.84123512849575e-28 -3.62163174072686e-06 7.18791091088637e-14)
(6.69976646794743e-28 -3.63034772483807e-06 -2.41142850873414e-14)
(6.47582886238175e-28 -3.63941276454934e-06 -1.6625981692583e-13)
(6.33625768074147e-28 -3.64877351517969e-06 5.62798582819127e-13)
(6.11931215708278e-28 -3.65843068027296e-06 1.10154012459582e-12)
(5.98177718758246e-28 -3.66848558969761e-06 5.77195219355234e-13)
(5.77181532536596e-28 -3.67895636856036e-06 -1.21970954763839e-14)
(5.63638673766218e-28 -3.68977042202771e-06 -8.67578909822331e-14)
(5.43339194584104e-28 -3.7009549736452e-06 -4.90482018144273e-14)
(5.3002947537943e-28 -3.71264378724501e-06 3.49649497743615e-14)
(5.10428096052953e-28 -3.72487210946991e-06 -8.47469817519441e-15)
(4.97355848886152e-28 -3.73757032626957e-06 -3.33788440948165e-13)
(4.78454536983036e-28 -3.75079068485525e-06 -3.29592814213472e-13)
(4.65653019205117e-28 -3.76471970326778e-06 -3.74738191391658e-13)
(4.47456898651595e-28 -3.77941170363575e-06 -4.36730833910996e-13)
(4.34931675777751e-28 -3.79479754176253e-06 2.62379609266651e-14)
(4.17447685506859e-28 -3.81100072501552e-06 -5.81045648306995e-13)
(4.05244430022537e-28 -3.82830615882784e-06 -3.4723927579259e-13)
(3.8848509500863e-28 -3.84679509934819e-06 6.67245091878869e-13)
(3.76607484072454e-28 -3.86640361642837e-06 5.5602068664917e-13)
(3.60578103271829e-28 -3.88738324452057e-06 -5.19843534762935e-13)
(3.49220450278687e-28 -3.91018541855467e-06 -1.04216238727274e-12)
(3.35344800636507e-28 -3.93492414208885e-06 1.06063677121706e-13)
(3.18188351870473e-28 -3.96154398260751e-06 1.10611088945738e-13)
(3.08893281850688e-28 -3.99056510406234e-06 -2.72061514239304e-13)
(2.92639520475865e-28 -4.02272599465823e-06 -2.86732076617896e-13)
(2.84520815998487e-28 -4.05813217827998e-06 9.61074355662878e-14)
(2.6908757805465e-28 -4.09670917635577e-06 2.53830692088859e-13)
(2.6137790486067e-28 -4.13951190324725e-06 2.72790808133135e-13)
(2.46958330480702e-28 -4.18776268684158e-06 4.25438719523085e-13)
(2.39586926673208e-28 -4.24149552462269e-06 -1.93248210619262e-13)
(2.26170092602521e-28 -4.30062092539352e-06 -6.82161734285129e-13)
(2.19228788946108e-28 -4.36726953615863e-06 -4.8097545251298e-13)
(2.06862104630274e-28 -4.44322470690626e-06 7.33333814447434e-13)
(2.00364976575179e-28 -4.5281802057787e-06 1.11183480447387e-12)
(1.89020615820495e-28 -4.62226449935236e-06 1.12777835017529e-12)
(1.83092711612412e-28 -4.72964350259882e-06 3.94864100722612e-13)
(1.7280387410307e-28 -4.85296537557264e-06 -3.93546188359629e-13)
(1.67422344459215e-28 -4.99246678442358e-06 -1.8407959754618e-13)
(1.58236418946263e-28 -5.15117391893398e-06 -5.79226800183319e-13)
(1.53774264495424e-28 -5.34663778146864e-06 -4.53100002635836e-13)
(1.46124580850269e-28 -5.59337498422842e-06 -6.50789134228562e-13)
(1.42991716203278e-28 -5.89232806531585e-06 -8.38151941937193e-13)
(1.375709527238e-28 -6.25398413756378e-06 2.51876489147506e-13)
(1.36773397872338e-28 -6.69967667566667e-06 4.38135929358421e-13)
(1.33632053828198e-28 -7.22675013077057e-06 -6.06228035252746e-15)
(1.34891432139176e-28 -7.81762524065854e-06 -1.61873490017283e-13)
(1.33750825452224e-28 -8.48007515708558e-06 1.13465455742356e-13)
(1.3716015063312e-28 -9.21832820266586e-06 6.42919003645156e-13)
(1.37244046183469e-28 -1.00164128167129e-05 1.27308252654834e-13)
(1.41954994793458e-28 -1.0860430169259e-05 -1.27106219513812e-12)
(1.42963571845683e-28 -1.17510294208518e-05 -1.04714480288532e-12)
(1.48804515643231e-28 -1.26759027833455e-05 3.34883836163242e-13)
(1.49434923899894e-28 -1.36145199452714e-05 -3.4439736583761e-13)
(1.5541055537404e-28 -1.45575216779202e-05 -2.97044048946415e-13)
(1.5490477095047e-28 -1.54881034024804e-05 1.65422679714749e-15)
(1.59785402978576e-28 -1.63899201145047e-05 -2.11548020653158e-13)
(1.56948510571936e-28 -1.72552102703703e-05 9.24973957618678e-13)
(1.59750415658496e-28 -1.80641567501039e-05 7.278922057666e-13)
(1.5297879509574e-28 -1.87975308672832e-05 -2.98629054372132e-13)
(1.5234105480333e-28 -1.94536257353434e-05 -1.30819029777717e-13)
(1.41645548265857e-28 -2.00256299556555e-05 3.16137499860884e-13)
(1.36614126491213e-28 -2.04898873007991e-05 -3.42356210799332e-13)
(1.21382224953963e-28 -2.08444481960882e-05 -5.56210012710578e-13)
(1.1358669697359e-28 -2.11047585625524e-05 -5.02197597342217e-14)
(1.02221831591712e-28 -2.12703044643155e-05 9.10180916939838e-13)
(1.0653931123289e-28 -2.13521634817523e-05 1.29544624056557e-12)
(1.06810225033105e-28 -2.13716225432497e-05 3.87813454090957e-13)
(1.02694790907165e-28 -2.13417543560037e-05 -3.30503381423804e-13)
(1.04247844991089e-28 -2.12721185260774e-05 -2.08428144303902e-13)
(9.92636120054823e-29 -2.11762180732107e-05 5.1098373687749e-13)
(1.00041220376462e-28 -2.10641751871437e-05 5.97406845528373e-13)
(9.47507719248968e-29 -2.09401760755705e-05 2.06494278723547e-13)
(9.51831915567632e-29 -2.080893870167e-05 8.9239079174211e-14)
(8.99466329125453e-29 -2.06749079099483e-05 -4.72930996095326e-13)
(9.02951400371471e-29 -2.05413409828352e-05 -6.16868920846189e-15)
(8.53269617877752e-29 -2.04124896159343e-05 5.95267069301764e-13)
(8.569764221139e-29 -2.02941553714607e-05 3.24130617467287e-13)
(8.11011329937187e-29 -2.020104723749e-05 4.16065903513251e-14)
(1.43344184859804e-27 -4.82623834602301e-06 -3.66428242948251e-13)
(1.38933856858565e-27 -4.82494951290485e-06 -3.46269597697113e-13)
(1.36918357037714e-27 -4.82526453626431e-06 -3.97624524672695e-14)
(1.33282797546537e-27 -4.82625469675635e-06 -4.36632975090755e-13)
(1.31274391112109e-27 -4.82771298030949e-06 5.63609289139967e-13)
(1.27607603825041e-27 -4.82954432825715e-06 1.55279657510679e-12)
(1.25623194479058e-27 -4.83177663385917e-06 9.06705603873447e-13)
(1.22061918928672e-27 -4.83441277755438e-06 3.18314742569487e-13)
(1.20104200023561e-27 -4.83736990041724e-06 6.90340942697846e-13)
(1.16641037654854e-27 -4.84059819963454e-06 6.00566689591278e-13)
(1.14706754845728e-27 -4.84412710149353e-06 -1.07119568106783e-13)
(1.11340506970698e-27 -4.84796253702986e-06 -1.57645012510429e-14)
(1.09428296684483e-27 -4.85204843886887e-06 5.5640593598615e-13)
(1.06154057452684e-27 -4.85635820456565e-06 -3.99155925976765e-13)
(1.04263115435263e-27 -4.86093329628005e-06 -9.20125286230123e-13)
(1.01081537670796e-27 -4.86577943968868e-06 1.31177202519555e-13)
(9.92116336407685e-28 -4.87084605366524e-06 8.79081972958547e-14)
(9.61189678294764e-28 -4.87612379926025e-06 -8.17881796710391e-13)
(9.42709250427617e-28 -4.88166247548464e-06 -7.67705462834525e-13)
(9.12681122419732e-28 -4.88747352692674e-06 5.09746191642598e-13)
(8.94418686794828e-28 -4.89351062624368e-06 3.19503013327608e-13)
(8.65266066565364e-28 -4.8997671803546e-06 1.00610591243968e-13)
(8.47239949060976e-28 -4.90630161276516e-06 -3.27127398765191e-14)
(8.18968347950388e-28 -4.91312998377939e-06 -2.33310481590644e-13)
(8.01184332008967e-28 -4.92020754897931e-06 7.78200322822314e-13)
(7.73784726189085e-28 -4.92753507033868e-06 1.53129485006265e-12)
(7.56259395587347e-28 -4.9351976169712e-06 8.05593643210669e-13)
(7.29730738369976e-28 -4.94321078187405e-06 -1.52360225805668e-14)
(7.12475130069268e-28 -4.95151364859284e-06 -1.20553645861126e-13)
(6.86817131219113e-28 -4.96012924979053e-06 -6.85690077405636e-14)
(6.69857873673784e-28 -4.96917003485509e-06 4.8559714690874e-14)
(6.45072422050358e-28 -4.97866607713583e-06 -1.0627828595605e-14)
(6.28417141609679e-28 -4.98855899161454e-06 -4.63515844224633e-13)
(6.04507410093954e-28 -4.9988929147634e-06 -4.58362408055935e-13)
(5.88194850078358e-28 -5.00982480540502e-06 -5.21065248226249e-13)
(5.65167131202304e-28 -5.0214009260304e-06 -6.08952057386367e-13)
(5.4920692437433e-28 -5.03356334874216e-06 3.72678825242546e-14)
(5.27069845212578e-28 -5.04641625862692e-06 -8.0801586565247e-13)
(5.11513944516741e-28 -5.06019966451357e-06 -4.86786798719308e-13)
(4.90282593061195e-28 -5.07498276368396e-06 9.26981055041183e-13)
(4.75139434217295e-28 -5.09071213468565e-06 7.77389823998278e-13)
(4.54819728516519e-28 -5.10759990514573e-06 -7.20138272999428e-13)
(4.40296708379544e-28 -5.12602681188345e-06 -1.4533653554891e-12)
(4.22524880199612e-28 -5.14608986982634e-06 1.45289006475591e-13)
(4.01426162915783e-28 -5.16774324610322e-06 1.55059758144314e-13)
(3.89036646180353e-28 -5.19142542160288e-06 -3.78213130943422e-13)
(3.68937831759294e-28 -5.21775988530141e-06 -4.00454565009628e-13)
(3.57955197255072e-28 -5.24683718252821e-06 1.32771787281301e-13)
(3.38868191418101e-28 -5.27859568366689e-06 3.53417046443554e-13)
(3.28427878705891e-28 -5.31392491835158e-06 3.79855836905257e-13)
(3.10554011910906e-28 -5.3538575755339e-06 5.94239108718311e-13)
(3.00578866850267e-28 -5.39842507791862e-06 -2.67127636815037e-13)
(2.83910518228091e-28 -5.4475532750063e-06 -9.50753841160256e-13)
(2.74504303917476e-28 -5.50303942804218e-06 -6.73839278920369e-13)
(2.59094563559734e-28 -5.56639182534916e-06 1.01974545724257e-12)
(2.50279060148436e-28 -5.63735636632179e-06 1.5502348519073e-12)
(2.36103394633833e-28 -5.71604217152187e-06 1.57494481207394e-12)
(2.28017211490298e-28 -5.80596460829974e-06 5.53955557215143e-13)
(2.15112813270912e-28 -5.90936542088384e-06 -5.48171674759446e-13)
(2.07741712782098e-28 -6.02644933920465e-06 -2.56503416753471e-13)
(1.96171204939738e-28 -6.15976557185516e-06 -8.08120043625414e-13)
(1.89929316219324e-28 -6.32412251237805e-06 -6.32485759860435e-13)
(1.80170534428437e-28 -6.5317944943379e-06 -9.0801725949432e-13)
(1.75539216153297e-28 -6.78359173369824e-06 -1.17246486213592e-12)
(1.6836392558914e-28 -7.08834845136048e-06 3.49328672295651e-13)
(1.66438937788157e-28 -7.46408046394296e-06 6.12649327071339e-13)
(1.61909808700529e-28 -7.90859111530783e-06 -7.22000970043258e-15)
(1.62426799581543e-28 -8.40702076420397e-06 -2.26416917206301e-13)
(1.60222015584106e-28 -8.96587667826427e-06 1.56757900357022e-13)
(1.63224487238513e-28 -9.58873930573216e-06 8.98093814139681e-13)
(1.62485903193684e-28 -1.02621323696448e-05 1.82127241420529e-13)
(1.67072270519162e-28 -1.09742667031721e-05 -1.77256167273916e-12)
(1.6740141891093e-28 -1.17256502911748e-05 -1.46579497810623e-12)
(1.73291895382788e-28 -1.25059031391178e-05 4.65933764162559e-13)
(1.73308927300891e-28 -1.32976675641027e-05 -4.79219894321022e-13)
(1.79392906320813e-28 -1.40930123919286e-05 -4.15157582539955e-13)
(1.78181102173944e-28 -1.48777542147313e-05 2.14112631665468e-15)
(1.83130253086491e-28 -1.56380744140996e-05 -2.96935036960607e-13)
(1.79354870672441e-28 -1.63674220001596e-05 1.2868203331024e-12)
(1.82004196186655e-28 -1.70491064473297e-05 1.01603574085346e-12)
(1.7399288574757e-28 -1.76668866085838e-05 -4.14037192142813e-13)
(1.72852711457237e-28 -1.82192908330611e-05 -1.83124810497501e-13)
(1.60429688690542e-28 -1.87005944640206e-05 4.39774901350825e-13)
(1.54515801607271e-28 -1.9090854736781e-05 -4.74109712741761e-13)
(1.37229055831566e-28 -1.93883759430621e-05 -7.72823336897296e-13)
(1.2809335933245e-28 -1.96062890930506e-05 -7.15991065779662e-14)
(1.15443007573159e-28 -1.97446432273628e-05 1.26146020522702e-12)
(1.2031563947856e-28 -1.98131596395876e-05 1.79839114627404e-12)
(1.20658998622577e-28 -1.98295427496202e-05 5.39372433254889e-13)
(1.16131641443038e-28 -1.98046035567375e-05 -4.58791273247728e-13)
(1.17929808827578e-28 -1.97463228720573e-05 -2.90009069702376e-13)
(1.12377141961864e-28 -1.96660062087251e-05 7.1009189174146e-13)
(1.13288374885303e-28 -1.95721294667056e-05 8.30755524633858e-13)
(1.0738448593856e-28 -1.94682025931486e-05 2.87296139051259e-13)
(1.0789469394356e-28 -1.9358185089173e-05 1.24272981761072e-13)
(1.02042363590052e-28 -1.92458058057921e-05 -6.58007884610054e-13)
(1.02457555254759e-28 -1.91338021449047e-05 -8.68836756048048e-15)
(9.690828390267e-29 -1.90257545720968e-05 8.28603041455933e-13)
(9.74025574822034e-29 -1.89265179014834e-05 4.51456927669217e-13)
(9.24353716981576e-29 -1.88482175000384e-05 5.81034289556434e-14)
(1.58820132208326e-27 -6.11258226051795e-06 -4.66466900343856e-13)
(1.54516735595953e-27 -6.11079623468192e-06 -4.42713440657444e-13)
(1.52211079673254e-27 -6.11043798469228e-06 -4.92798683095799e-14)
(1.4825395489761e-27 -6.11062619988179e-06 -5.60475490883818e-13)
(1.45959480192822e-27 -6.11119370397577e-06 7.08277818439544e-13)
(1.41979373246713e-27 -6.11206321348636e-06 1.97770818960461e-12)
(1.397116182445e-27 -6.1132571029503e-06 1.16041465810704e-12)
(1.35840629692895e-27 -6.11477795434702e-06 4.05387843034043e-13)
(1.33602726003441e-27 -6.11655872704479e-06 8.78658180782943e-13)
(1.29833994389443e-27 -6.118559037537e-06 7.69370948518504e-13)
(1.27622911901626e-27 -6.12080261318733e-06 -1.34581762454536e-13)
(1.23955357172964e-27 -6.12329448176228e-06 -2.34702875668261e-14)
(1.2177001513796e-27 -6.12598924836914e-06 7.12281696644529e-13)
(1.18199049179116e-27 -6.12886535796871e-06 -5.02904091336515e-13)
(1.16038783340111e-27 -6.13195635774891e-06 -1.17667545473794e-12)
(1.12565241654987e-27 -6.1352671308796e-06 1.64020398750034e-13)
(1.10430056598637e-27 -6.1387566882328e-06 1.16733036404495e-13)
(1.07050375127781e-27 -6.14241746967036e-06 -1.04035486637119e-12)
(1.04941251806024e-27 -6.1462898428331e-06 -9.85493378291429e-13)
(1.01656588922297e-27 -6.15038335103255e-06 6.47085094170863e-13)
(9.9573643980073e-28 -6.15466044403436e-06 4.09219182881292e-13)
(9.63818497780047e-28 -6.15911580093086e-06 1.29667506204536e-13)
(9.43270602522597e-28 -6.16379682051269e-06 -4.0409002568352e-14)
(9.12288333894551e-28 -6.1687168179524e-06 -3.01640007275991e-13)
(8.92030004518467e-28 -6.17383952530501e-06 9.86904781657577e-13)
(8.61976933738807e-28 -6.17916560095835e-06 1.95560794568156e-12)
(8.42025333955843e-28 -6.18476413686084e-06 1.03413880610406e-12)
(8.12901062526025e-28 -6.1906481477994e-06 -1.65822105005554e-14)
(7.93269960352896e-28 -6.19676820961945e-06 -1.53844992036521e-13)
(7.65076857876811e-28 -6.2031430548974e-06 -8.8195958164225e-14)
(7.45793668876889e-28 -6.20986413040031e-06 6.19199030950705e-14)
(7.1853468535091e-28 -6.21695629845573e-06 -1.16507822958074e-14)
(6.99609425730621e-28 -6.22437221372236e-06 -5.90953903745751e-13)
(6.73289784307804e-28 -6.23214780683325e-06 -5.85471060444139e-13)
(6.54761855589254e-28 -6.24041083998913e-06 -6.6539671209123e-13)
(6.29389166746434e-28 -6.24919947410595e-06 -7.80407842038698e-13)
(6.11271313788099e-28 -6.25846676840633e-06 4.88983043683839e-14)
(5.868559803576e-28 -6.26829755659178e-06 -1.03185343504834e-12)
(5.6919968445359e-28 -6.27888740972152e-06 -6.28052849652722e-13)
(5.45758733018968e-28 -6.29029339275453e-06 1.18218963999613e-12)
(5.2857661134332e-28 -6.30247229716138e-06 9.99476217081054e-13)
(5.06117186178899e-28 -6.31559692730885e-06 -9.14943903354028e-13)