/*--------------------------------*- C++ -*----------------------------------*\
  =========                 |
  \\      /  F ield         | OpenFOAM: The Open Source CFD Toolbox
   \\    /   O peration     | Website:  https://openfoam.org
    \\  /    A nd           | Version:  8
     \\/     M anipulation  |
\*---------------------------------------------------------------------------*/
FoamFile
{
    version     2.0;
    format      ascii;
    class       surfaceScalarField;
    location    "0.0625000";
    object      phi;
}
// * * * * * * * * * * * * * * * * * * * * * * * * * * * * * * * * * * * * * //

dimensions      [0 3 -1 0 0 0 0];

internalField   nonuniform List<scalar> 
1094
(
9.87662474622173e-10
1.18584820850523e-11
9.7579441393309e-10
1.22660131596896e-11
9.63736012563067e-10
1.25319341705133e-11
9.51384415245191e-10
1.28926151216319e-11
9.38863711167683e-10
1.31022546531066e-11
9.26282363975363e-10
1.32009635123288e-11
9.13687667094308e-10
1.32501505328192e-11
9.01106127985694e-10
1.32823919441595e-11
8.88532753844166e-10
1.33047089050885e-11
8.75968979397124e-10
1.3322888630564e-11
8.63413393894625e-10
1.33413246356877e-11
8.50870672118648e-10
1.33614467294809e-11
8.38337216151328e-10
1.33796274733911e-11
8.25811681150945e-10
1.33953223947136e-11
8.13293791376604e-10
1.34109009747695e-11
8.00785826729082e-10
1.34281201018441e-11
7.88288500372911e-10
1.3445266952449e-11
7.75798498561217e-10
1.34601084854642e-11
7.63316471133139e-10
1.34744335541521e-11
7.50843426315894e-10
1.3490679364787e-11
7.38383034740006e-10
1.35088879561525e-11
7.25930292099296e-10
1.3525179861618e-11
7.13486507763651e-10
1.35407745195562e-11
7.01050254951351e-10
1.35589599237546e-11
6.88629945630307e-10
1.35818640589444e-11
6.76217901796428e-10
1.36023109083216e-11
6.63816424482261e-10
1.36220814752344e-11
6.51423500054945e-10
1.36455704569104e-11
6.39048612621691e-10
1.36763021707647e-11
6.26685699841101e-10
1.3706763829262e-11
6.14335324229423e-10
1.3737017460704e-11
6.01996024163771e-10
1.37715234936369e-11
5.89677607019615e-10
1.38162094854262e-11
5.77378377779495e-10
1.38651725133099e-11
5.65095338586556e-10
1.39144290272336e-11
5.52828044168001e-10
1.39699650076686e-11
5.40586389106316e-10
1.40426265003123e-11
5.28377462154066e-10
1.41284184903472e-11
5.16191596281701e-10
1.42146698325733e-11
5.04030908791856e-10
1.43100999196913e-11
4.91901466241937e-10
1.4433323413521e-11
4.79831205017116e-10
1.45894989350022e-11
4.67796098774275e-10
1.47457186735388e-11
4.55805041725822e-10
1.49138356064966e-11
4.4385090426083e-10
1.5126378109985e-11
4.3200633727265e-10
1.54149877613198e-11
4.20217048135795e-10
1.5698854474192e-11
4.08505760041006e-10
1.59953488259223e-11
3.96840493572692e-10
1.63600862636678e-11
3.85367659417821e-10
1.68772265462193e-11
3.73987129186239e-10
1.73822649714083e-11
3.62736473736091e-10
1.79025325755101e-11
3.51571137922689e-10
1.85284807683084e-11
3.40693327478595e-10
1.94027397691507e-11
3.29999952912507e-10
2.02995159040739e-11
3.19522071435881e-10
2.12237843679584e-11
3.09196676863579e-10
2.23916509038499e-11
2.99441221779271e-10
2.43370394399297e-11
2.90498992895164e-10
2.70302684466976e-11
2.82480250251535e-10
3.02708191218055e-11
2.75239515357134e-10
3.4462832646683e-11
2.69846947707167e-10
4.05614605232528e-11
2.6607426349571e-10
4.7055759746995e-11
2.63452918222655e-10
5.28738180111571e-11
2.61820200335366e-10
5.88692007683192e-11
2.62297978124041e-10
6.59850084473931e-11
2.64237934599737e-10
7.24094298568956e-11
2.67214252848552e-10
7.76251442264191e-11
2.710603060412e-10
8.26568674054213e-11
2.7691351402952e-10
8.79350626538878e-11
2.83315966602744e-10
9.15599357699937e-11
2.90249296945364e-10
9.39562181064911e-11
2.97858766690697e-10
9.5646840800392e-11
3.05796789988907e-10
9.61646679312777e-11
3.13444500527476e-10
9.53724277231005e-11
3.21082673645384e-10
9.3626768481759e-11
3.28388862549403e-10
9.05043619928885e-11
3.34043555395769e-10
8.59805833428626e-11
3.39055995365484e-10
8.109278317374e-11
3.43878805442885e-10
7.52543199230671e-11
3.45579547986685e-10
6.78095701904955e-11
3.45767388201626e-10
6.02019301369111e-11
3.45118354539473e-10
5.28065431400527e-11
3.43181794274742e-10
4.4418415248508e-11
3.36433525912434e-10
3.62779364464113e-11
3.31313482315847e-10
2.67589017944376e-11
3.34462473684117e-10
1.10568686750153e-11
3.34882357433279e-10
4.65620184447238e-12
3.34237811151037e-10
7.15434111533101e-13
3.33429473717995e-10
-2.49586144080351e-12
3.31685093684943e-10
-4.67319843230507e-12
3.29398600946098e-10
-6.24246147085732e-12
3.27168063870844e-10
-7.16786165530359e-12
3.24799249729234e-10
-7.71776527757636e-12
3.22234926120853e-10
-8.00352187892851e-12
3.19765558365382e-10
-8.0560692109564e-12
3.17214311918408e-10
-7.86421778114114e-12
3.1464923784161e-10
-7.32431168903047e-12
3.11928916398457e-10
-6.09681524279875e-12
-2.5168976994312e-12
2.32085588421804e-10
1.22446029713468e-11
2.30840404339552e-10
1.36224017940279e-11
2.28182099207543e-10
1.53012549211107e-11
2.24663126475166e-10
1.65224165326339e-11
2.20742319207341e-10
1.71337054882035e-11
2.16670506596275e-10
1.73832353947214e-11
2.12558563173713e-10
1.7472370183484e-11
2.08448493476035e-10
1.75025567966966e-11
2.04350180388852e-10
1.75129343134451e-11
2.00264835056947e-10
1.75179602197563e-11
1.96192801516085e-10
1.75228979190174e-11
1.92134825832144e-10
1.75287738053281e-11
1.8808979386751e-10
1.75338188578919e-11
1.84056515866649e-10
1.75375641325163e-11
1.80035004789932e-10
1.75411773655275e-11
1.76026170675181e-10
1.75455265090575e-11
1.7203008335545e-10
1.75497417426223e-11
1.68045680419318e-10
1.7552711819384e-11
1.64072854985449e-10
1.75552669837755e-11
1.60112582481263e-10
1.75587714267138e-11
1.56165731771351e-10
1.75633705736506e-11
1.52231214119081e-10
1.75671295354596e-11
1.48308700087934e-10
1.75705144076712e-11
1.44399170666345e-10
1.75755127327504e-11
1.40504586059475e-10
1.75832670542648e-11
1.36623655739627e-10
1.75898525270606e-11
1.32756071397092e-10
1.75960806051044e-11
1.28903033550491e-10
1.76048289772432e-11
1.25067198523036e-10
1.76181465791347e-11
1.21247971665906e-10
1.76317765590384e-11
1.17444955571634e-10
1.76456058500757e-11
1.13659487726124e-10
1.76623625588052e-11
1.09895160840698e-10
1.76856977829041e-11
1.06152839659438e-10
1.77124302878677e-11
1.0243193704543e-10
1.77400397824426e-11
9.87342037512931e-11
1.77721727128955e-11
9.50651162831311e-11
1.78159404583297e-11
9.1428306058084e-11
1.78691976927189e-11
8.78228604788486e-11
1.79238182470709e-11
8.42510768886115e-11
1.79853017478936e-11
8.07211861159419e-11
1.80663225097131e-11
7.72427099078936e-11
1.81707487802381e-11
7.38141659063101e-11
1.82766801537354e-11
7.04385150006028e-11
1.83915475364481e-11
6.71280807148685e-11
1.85384925762277e-11
6.39040060301265e-11
1.87402792995696e-11
6.07631971906363e-11
1.8940337693159e-11
5.77092774434771e-11
1.91493364076901e-11
5.47605053852903e-11
1.94082602265309e-11
5.19570825412173e-11
1.97793482535286e-11
4.92944028462425e-11
2.01428589506657e-11
4.6778060491189e-11
2.05158245962297e-11
4.44360594071153e-11
2.09664367226213e-11
4.23308940411477e-11
2.16029375980678e-11
4.04688294415344e-11
2.22554924950795e-11
3.88644535748651e-11
2.29204283379635e-11
3.7598561240065e-11
2.37478441422479e-11
3.68951953304707e-11
2.51284585578679e-11
3.69726904383791e-11
2.70374616412675e-11
3.80021351032392e-11
2.93206957164799e-11
4.02315707179983e-11
3.23061606719253e-11
4.4071490334257e-11
3.67875298439399e-11
4.95853028303031e-11
4.16000943783377e-11
5.66396593862267e-11
4.58677172002986e-11
6.52820376474238e-11
5.02646532943393e-11
7.57308149025122e-11
5.55645954515411e-11
8.78333687561825e-11
6.03253282562659e-11
1.01341826487321e-10
6.41234998337597e-11
1.16192903428041e-10
6.78008800739789e-11
1.32394826226198e-10
7.17181782158459e-11
1.49578065170294e-10
7.43520924279523e-11
1.67447076088825e-10
7.6052485619031e-11
1.8580164444695e-10
7.72479577697349e-11
2.04355783486808e-10
7.75572582932041e-11
2.22787813454841e-10
7.68788430417335e-11
2.40850612300427e-10
7.5495392558717e-11
2.58201284572904e-10
7.30784378586466e-11
2.74476808667656e-10
6.962387101025e-11
2.89596337350704e-10
6.58883607394163e-11
3.03335307081239e-10
6.14278168052995e-11
3.15193429126685e-10
5.58594610544948e-11
3.25181678158286e-10
5.01181356610291e-11
3.33422689764493e-10
4.44693893926022e-11
3.39624152770388e-10
3.81180222994896e-11
3.43269087047198e-10
3.2531115708858e-11
3.45183274394807e-10
2.47435376896311e-11
3.48468337946603e-10
7.671502010701e-12
3.49815542206836e-10
3.20684286809066e-12
3.49697239733836e-10
7.29910818652568e-13
3.48753107153942e-10
-1.65515721932947e-12
3.4711311886689e-10
-3.13713623208727e-12
3.4498904338971e-10
-4.2229100169521e-12
3.42614025708573e-10
-4.89698750408471e-12
3.4008325360994e-10
-5.2911373246258e-12
3.3745358711867e-10
-5.47878710021254e-12
3.34808520637342e-10
-5.51670878218179e-12
3.32197120087577e-10
-5.35867084626718e-12
3.2968831532463e-10
-4.92150996702189e-12
3.27367505742645e-10
-3.88229236946064e-12
-1.30512310814074e-12
-2.93222776326209e-10
6.13539538024709e-12
-2.87784445014727e-10
8.29955421422368e-12
-2.84245597279143e-10
1.18776589641329e-11
-2.81611652115902e-10
1.40034922340109e-11
-2.79332108337977e-10
1.49689537716764e-11
-2.77176228949617e-10
1.5341919981947e-11
-2.75053478426674e-10
1.54639567504289e-11
-2.72931481656398e-10
1.54946727558e-11
-2.70801765611305e-10
1.54971045473666e-11
-2.68663055416796e-10
1.54929056583463e-11
-2.66514901047563e-10
1.54881683893052e-11
-2.64356965131053e-10
1.54840308977862e-11
-2.62189914164085e-10
1.54797250618874e-11
-2.60014584728549e-10
1.54749514273519e-11
-2.57830990825754e-10
1.54700569332615e-11
-2.55638598312697e-10
1.54653697998185e-11
-2.53437412311419e-10
1.54605629159632e-11
-2.51228097538233e-10
1.54551735124173e-11
-2.49010815755222e-10
1.54495247030784e-11
-2.46784915535472e-10
1.54441780957066e-11
-2.44549864519514e-10
1.54393953538591e-11
-2.42306216323768e-10
1.54343123460536e-11
-2.40054260697309e-10
1.54291373493652e-11
-2.37793122114788e-10
1.54247062413659e-11
-2.35521563902739e-10
1.54217916140262e-11
-2.33240225580409e-10
1.54183437208353e-11
-2.3094941223389e-10
1.54148559170256e-11
-2.28647938783762e-10
1.54127073507974e-11
-2.26333905587656e-10
1.54132080616511e-11
-2.24007382274077e-10
1.54140766136123e-11
-2.21668561786385e-10
1.54153502855016e-11
-2.19316140859631e-10
1.54182619563125e-11
-2.16947358488903e-10
1.54249811771351e-11
-2.14561099489273e-10
1.54339659220651e-11
-2.12157437286696e-10
1.54438979686169e-11
-2.09734615189054e-10
1.54565919447825e-11
-2.0728792893762e-10
1.54762002225429e-11
-2.04813973341268e-10
1.55018834566177e-11
-2.02312733784139e-10
1.55289083390722e-11
-1.99781850979111e-10
1.55604161830682e-11
-1.97213542408269e-10
1.5603653754753e-11
-1.94599399243476e-10
1.56618619236169e-11
-1.91939337734042e-10
1.57214675670019e-11
-1.89230546862299e-10
1.57872000840264e-11
-1.86460222472888e-10
1.58721896325119e-11
-1.83609368638956e-10
1.59929245879772e-11
-1.80678679254122e-10
1.61125416265459e-11
-1.77665671195949e-10
1.62385771434772e-11
-1.74550195612832e-10
1.63943150370367e-11
-1.71294514574646e-10
1.66244337120508e-11
-1.67900216938064e-10
1.68484873010607e-11
-1.64364567941341e-10
1.70790691522376e-11
-1.60656636823238e-10
1.73563167075614e-11
-1.56714297212659e-10
1.77574624046021e-11
-1.52529690064732e-10
1.81666140831374e-11
-1.48096667823541e-10
1.85813958094216e-11
-1.43343392524199e-10
1.90864723975594e-11
-1.38063263071231e-10
1.99380065407571e-11
-1.32056429005555e-10
2.11169620003757e-11
-1.25176302201799e-10
2.25213472963082e-11
-1.17158665763733e-10
2.43624268254996e-11
-1.07528522490055e-10
2.72245281410918e-11
-9.61876802990818e-11
3.031856498105e-11
-8.33067446652745e-11
3.30358351975343e-11
-6.88309794700172e-11
3.58271614106345e-11
-5.24910270178073e-11
3.92534630520959e-11
-3.44582524287496e-11
4.23114912265337e-11
-1.50421859269747e-11
4.47144225207863e-11
5.71196213048449e-12
4.70417510538919e-11
2.78473426954133e-11
4.95677391614753e-11
5.0952251724408e-11
5.12225189798452e-11
7.47018445240817e-11
5.22680661318546e-11
9.89060468679566e-11
5.29993370525461e-11
1.2326099599709e-10
5.31490338390011e-11
1.47429271877774e-10
5.26491675713523e-11
1.71154449051075e-10
5.1701858399423e-11
1.94076812953993e-10
5.00813035796179e-11
2.15842120321295e-10
4.77782405295808e-11
2.36341931108332e-10
4.53045853482027e-11
2.55316342863797e-10
4.23666089569003e-11
2.72380493640068e-10
3.87050293226741e-11
2.8745531664038e-10
3.49503217905275e-11
3.00636092784432e-10
3.11943870296576e-11
3.11542767420369e-10
2.71153919391197e-11
3.20354679890288e-10
2.3621536260296e-11
3.25919979361208e-10
1.90804644773535e-11
3.29428047275452e-10
4.06577098681013e-12
3.30441356658543e-10
2.0948778217195e-12
3.30468844199493e-10
6.02685608767454e-13
3.29504269988213e-10
-7.90684206001016e-13
3.27975543722888e-10
-1.70889337704582e-12
3.25995717538418e-10
-2.34390453576677e-12
3.23759967377407e-10
-2.76202639571002e-12
3.21367148292908e-10
-2.99921130042336e-12
3.18895829371554e-10
-3.10884854678234e-12
3.16407634559866e-10
-3.13054700661307e-12
3.13972940223248e-10
-3.02660469519486e-12
3.11695396533149e-10
-2.74698308491482e-12
3.09795273864356e-10
-2.08543148030729e-12
-5.28952724136643e-13
-5.64645555087295e-10
-1.17677304045742e-12
-5.58374864998526e-10
2.14850792385794e-12
-5.52657382086635e-10
6.27954805489484e-12
-5.47042390654471e-10
8.50760047383363e-12
-5.41401088564932e-10
9.44648119283923e-12
-5.3573107497316e-10
9.79046645421418e-12
-5.30046002092003e-10
9.89717571660374e-12
-5.2435362827919e-10
9.92032513645043e-12
-5.18657446806199e-10
9.91868135234648e-12
-5.12958669907615e-10
9.9116146694834e-12
-5.072573931236e-10
9.90410494675967e-12
-5.01553443630412e-10
9.89702116511954e-12
-4.9584709983946e-10
9.89004328309153e-12
-4.90138748953689e-10
9.88297990855224e-12
-4.84428446278848e-10
9.87584799232915e-12
-4.7871599409366e-10
9.86873143967092e-12
-4.73001428306704e-10
9.86154033253077e-12
-4.67285097732938e-10
9.8541134300284e-12
-4.61567126939867e-10
9.84654527367861e-12
-4.55847244971876e-10
9.83901272778602e-12
-4.50125139149102e-10
9.83173280046114e-12
-4.44401039847944e-10
9.82436883809055e-12
-4.38675035505668e-10
9.81699339253561e-12
-4.32946634481764e-10
9.80987623619757e-12
-4.27215053491804e-10
9.80348936072885e-12
-4.21480588695176e-10
9.79686135068046e-12
-4.15743285120635e-10
9.79025110668298e-12
-4.10002356919234e-10
9.78419826198647e-12
-4.04256484018698e-10
9.77945367707304e-12
-3.98505523631208e-10
9.77491956368386e-12
-3.92749328025524e-10
9.77065600258027e-12
-3.8698694103162e-10
9.76708841821163e-12
-3.81216401652074e-10
9.76535717126058e-12
-3.75436642823755e-10
9.76480738499502e-12
-3.69647276809406e-10
9.76481378661259e-12
-3.63846817224023e-10
9.7660905844674e-12
-3.58031731237053e-10
9.77073217177434e-12
-3.52199107704523e-10
9.77852796544601e-12
-3.46348324972484e-10
9.78703639628297e-12
-3.4047709907731e-10
9.79772260067231e-12
-3.34579371330717e-10
9.81405415509743e-12
-3.28648093405051e-10
9.83828122077435e-12
-3.2268245498569e-10
9.86307103407446e-12
-3.16679368359104e-10
9.89090173445462e-12
-3.10628598515913e-10
9.92773701628384e-12
-3.04513842914645e-10
9.98391259091039e-12
-2.98335016008311e-10
1.00388003543259e-11
-2.92088967424427e-10
1.00969173050931e-11
-2.85759420433671e-10
1.01683843419042e-11
-2.79312903743032e-10
1.02807133214915e-11
-2.7275052178482e-10
1.03880029348104e-11
-2.66069071180284e-10
1.04984230306009e-11
-2.59242990658933e-10
1.06298977930556e-11
-2.52215948999594e-10
1.08290760639658e-11
-2.44981530379885e-10
1.10296524475929e-11
-2.37535626612471e-10
1.12311399565906e-11
-2.29824361968778e-10
1.14686932464966e-11
-2.21676256526999e-10
1.1881076336398e-11
-2.12927075126212e-10
1.24555133495442e-11
-2.03458599139549e-10
1.31349264659232e-11
-1.93041452327793e-10
1.40203251867639e-11
-1.8121479998938e-10
1.54660202206337e-11
-1.67872646906446e-10
1.70365845266703e-11
-1.53181522520178e-10
1.83944726192275e-11
-1.37096892965435e-10
1.97813549954911e-11
-1.19346534487412e-10
2.15323313030601e-11
-1.00094989323618e-10
2.30791685909994e-11
-7.96451760252531e-11
2.42717627634595e-11
-5.80347378331674e-11
2.5426372177343e-11
-3.51980597141188e-11
2.67159520627315e-11
-1.15283331996348e-11
2.75280280844856e-11
1.26751260457915e-11
2.80296540740298e-11
3.72499427701939e-11
2.83799704527784e-11
6.19174864718689e-11
2.84281043813695e-11
8.63671400738063e-11
2.81380574779133e-11
1.10373314243059e-10
2.76273690903989e-11
1.33608836258566e-10
2.67712059750389e-11
1.55747528944542e-10
2.55595826497074e-11
1.76698597594844e-10
2.42700690942059e-11
1.96228991104539e-10
2.27501605727729e-11
2.1399748692453e-10
2.08473209767852e-11
2.29925500798728e-10
1.89307238531139e-11
2.44087107258777e-10
1.69402807787702e-11
2.56150735659965e-10
1.49579903302473e-11
2.66519692421302e-10
1.31575582091142e-11
2.73741135738321e-10
1.17640878169842e-11
2.76444090992927e-10
1.267989799632e-12
2.77061429568248e-10
1.38184243693201e-12
2.77048862069852e-10
5.18619271192236e-13
2.76191255141648e-10
-3.01060936469653e-14
2.74895839236949e-10
-5.10946364452239e-13
2.73240959152271e-10
-7.86864383459513e-13
2.71377160646879e-10
-9.96054358155827e-13
2.69384970309436e-10
-1.10491168308323e-12
2.67333502648991e-10
-1.15573428625851e-12
2.65269547994308e-10
-1.16568773987144e-12
2.632561519542e-10
-1.11307559476177e-12
2.61389145311268e-10
-9.80364471997443e-13
2.59871361012077e-10
-6.68291276787485e-13
4.81110367641773e-14
-5.65365177371871e-10
-3.6693268730218e-12
-5.62443683748815e-10
-6.4929383328211e-13
-5.57950162196321e-10
1.90940790617254e-12
-5.52469227233698e-10
3.14973530123683e-12
-5.46522167750844e-10
3.62218205711825e-12
-5.40392870201249e-10
3.78362049511396e-12
-5.3420387865879e-10
3.83032820255452e-12
-5.28000378731499e-10
3.83866428120596e-12
-5.21796414961861e-10
3.83624933314187e-12
-5.15595296478758e-10
3.83171586402906e-12
-5.0939739854099e-10
3.82711422224283e-12
-5.03202528234798e-10
3.82274455658839e-12
-4.97010677235078e-10
3.81846820558179e-12
-4.90821942062696e-10
3.81419772068976e-12
-4.84636378332461e-10
3.80991103826672e-12
-4.78453960119676e-10
3.80561953520104e-12
-4.72274729106647e-10
3.80130467158085e-12
-4.66098849155528e-10
3.7969157602945e-12
-4.59926419735671e-10
3.79247842529752e-12
-4.53757388614414e-10
3.78802883152797e-12
-4.47591588094521e-10
3.78366558300701e-12
-4.41429090734072e-10
3.77927624524603e-12
-4.35269904471835e-10
3.77487498171883e-12
-4.29113816400541e-10
3.77052515122374e-12
-4.2296035448591e-10
3.7664305850719e-12
-4.16809656490815e-10
3.76222841555795e-12
-4.10661678824411e-10
3.75801325564398e-12
-4.0451599300265e-10
3.75393114618659e-12
-3.98371747345843e-10
3.75028405650401e-12
-3.92228786904128e-10
3.74667723891448e-12
-3.86086887777057e-10
3.74313037662019e-12
-3.79945489882605e-10
3.73973392859582e-12
-3.73803336535849e-10
3.73690669003942e-12
-3.6765962193772e-10
3.73443757641472e-12
-3.61513917508919e-10
3.73209240243804e-12
-3.55365257361057e-10
3.73004629046626e-12
-3.49211309467187e-10
3.72901571005254e-12
-3.43049926889429e-10
3.7289824052854e-12
-3.36880516130891e-10
3.72906060011547e-12
-3.30701455763285e-10
3.72967334065587e-12
-3.24508744671469e-10
3.73190389758009e-12
-3.18297118089412e-10
3.73673766431199e-12
-3.12065955021981e-10
3.74148805448232e-12
-3.05812937658198e-10
3.7469631622171e-12
-2.99531426113884e-10
3.75478498449395e-12
-2.93208805029772e-10
3.76922675284197e-12
-2.86845424048133e-10
3.78264425003817e-12
-2.80438831543791e-10
3.79679995563644e-12
-2.73978835765378e-10
3.81403731919077e-12
-2.67438753551475e-10
3.84540453258062e-12
-2.608207970174e-10
3.87386359096962e-12
-2.54122674176863e-10
3.9029630759518e-12
-2.47328181325903e-10
3.93686302861136e-12
-2.40392388401332e-10
3.99367610521811e-12
-2.33312730903842e-10
4.0491288257837e-12
-2.26088108892296e-10
4.10377224902536e-12
-2.18688687956191e-10
4.16428751483305e-12
-2.10992521322114e-10
4.27753704921994e-12
-2.02885677210896e-10
4.43776317117253e-12
-1.94292030025646e-10
4.62457352186584e-12
-1.85058069185922e-10
4.86250727466119e-12
-1.74808742830469e-10
5.28580162699458e-12
-1.63457909774885e-10
5.74675105750564e-12
-1.51146714054794e-10
6.13370582903681e-12
-1.37850491159013e-10
6.52445683581656e-12
-1.23332214339366e-10
7.04364601358463e-12
-1.07727091635068e-10
7.49351882185794e-12
-9.12784409966702e-11
7.8303958745329e-12
-7.40134524631054e-11
8.15645565258528e-12
-5.58524907798411e-11
8.53981378740562e-12
-3.71144688822746e-11
8.76513454573322e-12
-1.80210815102439e-11
8.90119167491393e-12
1.3163778742526e-12
8.99784782282458e-12
2.06875546930619e-11
9.00346333241057e-12
3.98571960337666e-11
8.90694585232404e-12
5.86662373785485e-11
8.75010059471344e-12
7.687179425409e-11
8.49129927208707e-12
9.42268775084989e-11
8.12491661038494e-12
1.10673713413629e-10
7.74034690979855e-12
1.26046725271816e-10
7.29187901194955e-12
1.40083883541881e-10
6.72199189992528e-12
1.52753775114655e-10
6.1705596536974e-12
1.6405136879266e-10
5.551790013932e-12
1.73873939459112e-10
5.04357042172492e-12
1.82464366287699e-10
4.47435074098406e-12
1.89452007804063e-10
4.68400199730795e-12
1.90462551300569e-10
1.65253463244513e-13
1.90849074973732e-10
9.02358171501674e-13
1.90735136643183e-10
5.38724790095754e-13
1.90142763119091e-10
4.68053499151564e-13
1.89230398054559e-10
3.0674254997157e-13
1.88100914066122e-10
2.47540165446362e-13
1.86825569715929e-10
1.84198818398921e-13
1.85468288875475e-10
1.5720109489273e-13
1.84073229290473e-10
1.43675384672841e-13
1.82669925106705e-10
1.41178308479285e-13
1.81302712539016e-10
1.56863012145222e-13
1.80033048952493e-10
1.91452186360904e-13
1.78995789235183e-10
2.70852602163984e-13
4.17446837682126e-13
-2.81899051337326e-10
-2.83125675969041e-10
-2.81792512907265e-10
-2.79217933556717e-10
-2.76169816420181e-10
-2.72959169146255e-10
-2.69700721373374e-10
-2.66432842054891e-10
-2.63166284536325e-10
-2.59903172437239e-10
-2.56643574661447e-10
-2.53387260294761e-10
-2.50134140270128e-10
-2.46884214100305e-10
-2.43637501645906e-10
-2.40394002186485e-10
-2.37153729361976e-10
-2.33916759185733e-10
-2.30683146987268e-10
-2.27452900788248e-10
-2.24225932633204e-10
-2.21002283533292e-10
-2.17781974511795e-10
-2.14564948182681e-10
-2.11350952145727e-10
-2.0814009861225e-10
-2.04932387746876e-10
-2.01727681918418e-10
-1.98525568025765e-10
-1.95326022056502e-10
-1.92128970968612e-10
-1.88934249286892e-10
-1.85741298199128e-10
-1.82549777713668e-10
-1.7935956796338e-10
-1.7617037549608e-10
-1.72981202541605e-10
-1.6979106237745e-10
-1.66599851332093e-10
-1.63407057083657e-10
-1.60211088944172e-10
-1.57009371977045e-10
-1.53802015576063e-10
-1.50588293708199e-10
-1.47365877430875e-10
-1.44128253612914e-10
-1.40876535424652e-10
-1.37610024302932e-10
-1.34325715640064e-10
-1.31009530096163e-10
-1.27664458184682e-10
-1.2429006093319e-10
-1.20881591476866e-10
-1.17415994215232e-10
-1.13894820910954e-10
-1.10319509050468e-10
-1.06684555960713e-10
-1.02937375610305e-10
-9.90321399021388e-11
-9.49445563945884e-11
-9.06248815365077e-11
-8.58876356220504e-11
-8.06962256339991e-11
-7.51271277502684e-11
-6.91770964622285e-11
-6.27162971835225e-11
-5.5814397635368e-11
-4.85864666434835e-11
-4.1043351895916e-11
-3.31257596828258e-11
-2.49911285980055e-11
-1.67292098801379e-11
-8.37877208150425e-12
-3.00441965862717e-14
8.21565507036061e-12
1.62992733946515e-11
2.41195176256657e-11
3.15697078183855e-11
3.86336003592162e-11
4.52482502990432e-11
5.12917378452357e-11
5.6783310964369e-11
6.16571195365293e-11
6.60234001490502e-11
6.98211371863193e-11
7.38301623303126e-11
7.33207451684882e-11
7.35478519216422e-11
7.34105014353229e-11
7.32021073565202e-11
7.28319337393959e-11
7.24021411466618e-11
7.19089762303961e-11
7.13887168252393e-11
7.08544314630232e-11
7.03168412108145e-11
6.97940785383578e-11
6.93053130878407e-11
6.88956815555636e-11
)
;

boundaryField
{
    dieWall
    {
        type            calculated;
        value           nonuniform List<scalar> 
100
(
7.0671827192133e-13
7.05281388200532e-13
7.03844515837354e-13
7.02407622490719e-13
7.00970733188628e-13
6.99533855323035e-13
6.98096975555631e-13
6.96660095811325e-13
6.95223209822603e-13
6.93786323114981e-13
6.9234944353602e-13
6.90912562905312e-13
6.89475675871754e-13
6.88038786324752e-13
6.866019062532e-13
6.85165027733757e-13
6.83728144059155e-13
6.82291256135623e-13
6.80854372468423e-13
6.79417490722456e-13
6.77980606039853e-13
6.76543723728446e-13
6.75106837035321e-13
6.73669941446495e-13
6.72233057549301e-13
6.70796182344423e-13
6.69359302973276e-13
6.67922424416737e-13
6.66485540007557e-13
6.65048656049265e-13
6.63611773110999e-13
6.621748897352e-13
6.60738003308839e-13
6.59301119629387e-13
6.5786423560371e-13
6.56427351316261e-13
6.54990469893059e-13
6.53553581124296e-13
6.52116694435446e-13
6.50679813011113e-13
6.49242930596283e-13
6.47806044320099e-13
6.46369160183633e-13
6.44932278910352e-13
6.434953887476e-13
6.42058501779371e-13
6.40621625042323e-13
6.39184744915841e-13
6.37747862603175e-13
6.36310978785927e-13
6.34874096449148e-13
6.33437214875325e-13
6.32000327116911e-13
6.30563444909805e-13
6.29126559512383e-13
6.2768967265045e-13
6.26252788759605e-13
6.24815894390018e-13
6.23379016317439e-13
6.21942145522164e-13
6.20505258656124e-13
6.19068376000716e-13
6.17631490768016e-13
6.16194600922644e-13
6.14757718918169e-13
6.13320841433451e-13
6.11883961286582e-13
6.10447068989483e-13
6.09010183203708e-13
6.07573298983281e-13
6.06136406911171e-13
6.04699524293883e-13
6.03262650026546e-13
6.01825771668394e-13
6.00388883685267e-13
5.98951999730497e-13
5.97515111648953e-13
5.96078229712864e-13
5.94641350222975e-13
5.93204467950588e-13
5.91767587696448e-13
5.90330702335883e-13
5.88893806695921e-13
5.87456921008006e-13
5.86020048648788e-13
5.84774862646627e-13
5.8484500571534e-13
5.84845002799031e-13
5.84845009531969e-13
5.84845009999716e-13
5.84844997641904e-13
5.8484499575717e-13
5.84845006567571e-13
5.84845010902509e-13
5.84845011773102e-13
5.8484500755076e-13
5.84845004066613e-13
5.84844999449223e-13
5.84845001486057e-13
5.84845008492445e-13
)
;
    }
    outlet
    {
        type            calculated;
        value           nonuniform List<scalar> 6(3.06728016863661e-10 3.26049343054568e-10 3.08915668258907e-10 2.59193526384722e-10 1.78528229641524e-10 6.86326474280464e-11);
    }
    Wire
    {
        type            calculated;
        value           nonuniform List<scalar> 
100
(
-1.52981844024987e-13
-2.90807593446409e-13
-3.66533886130767e-13
-4.34167569569117e-13
-4.74836450063223e-13
-5.13041341547244e-13
-5.4902976135019e-13
-5.94553748476223e-13
-6.25164867389876e-13
-6.53107891094462e-13
-6.79864039232181e-13
-7.12991082595942e-13
-7.40591809424953e-13
-7.64350031411813e-13
-7.87749950840377e-13
-8.15058696053606e-13
-8.42954253086642e-13
-8.65246926475945e-13
-8.87738007552478e-13
-9.13105843025431e-13
-9.4406526715148e-13
-9.6817507346084e-13
-9.92944163457287e-13
-1.01877459411797e-12
-1.0577734728853e-12
-1.0867115587071e-12
-1.11717810284063e-12
-1.14930980686165e-12
-1.1982576924776e-12
-1.24094144668073e-12
-1.28390306506096e-12
-1.32958303504297e-12
-1.39530479741086e-12
-1.46368499848402e-12
-1.52930900766135e-12
-1.60073645131174e-12
-1.69926914339698e-12
-1.81802420197483e-12
-1.92749882192004e-12
-2.04836949936447e-12
-2.20309129604309e-12
-2.418732871322e-12
-2.61045018106339e-12
-2.82300205400798e-12
-3.0725223906811e-12
-3.47114170226822e-12
-3.81105040435372e-12
-4.18575042027159e-12
-4.59744573929967e-12
-5.30759394971774e-12
-5.90527314492881e-12
-6.55651758609261e-12
-7.26950188269286e-12
-8.43138632118862e-12
-9.51273674853834e-12
-1.06545614143447e-11
-1.19780610458486e-11
-1.44935684109342e-11
-1.80009333262034e-11
-2.21712477659393e-11
-2.71526572723478e-11
-3.51025940253418e-11
-4.32205333357149e-11
-5.02041432519448e-11
-5.72034400349818e-11
-6.64342781935492e-11
-7.43260441148093e-11
-8.0595308253395e-11
-8.65130271794317e-11
-9.38038663683078e-11
-9.79840131287589e-11
-1.00927916143516e-10
-1.03301416889844e-10
-1.04156777512327e-10
-1.03086600631588e-10
-1.01333738797968e-10
-9.788786654418e-11
-9.17232044120433e-11
-8.61945572511554e-11
-8.01613142452597e-11
-6.96065278061342e-11
-6.04974257250702e-11
-5.22497559907228e-11
-4.25842692058435e-11
-2.96444445975587e-11
-2.17433899391152e-11
-1.43034643275118e-11
-5.18295615730095e-12
-1.84112614252004e-13
3.19991570010445e-12
6.30943795269415e-12
8.41771496574749e-12
9.29133629158394e-12
9.979959638089e-12
1.04589320807801e-11
1.04146778092349e-11
1.03054404542839e-11
9.77951690703235e-12
8.70696628358312e-12
7.60740120454231e-12
)
;
    }
    inlet
    {
        type            calculated;
        value           nonuniform List<scalar> 6(-9.99260646408411e-10 -2.32360284216308e-10 2.99447741668338e-10 5.72077690195185e-10 5.67981797248426e-10 2.77651080931963e-10);
    }
    back
    {
        type            wedge;
        value           nonuniform List<scalar> 
600
(
-5.00068884441546e-26
-4.173808707724e-25
-1.03857209999081e-24
-1.07614369080039e-24
-1.02798989325886e-24
-4.5517069515857e-25
-8.76047101718567e-26
-3.51691962135581e-25
-7.49123453120379e-25
-1.00860073871011e-24
-1.10551890869488e-24
-5.84896607246618e-25
5.70244384850446e-26
-4.83787399436255e-25
-1.09777052030329e-24
-1.30943315332676e-24
-1.2058941847834e-24
-5.87498682329892e-25
-4.27943717923243e-26
-6.33179636052973e-25
-9.73129186632937e-25
-1.47850162510703e-24
-1.27086071705732e-24
-6.87699717317778e-25
-1.44435848626766e-26
-5.61051287774535e-25
-1.09573450864287e-24
-1.29579029799352e-24
-1.24501411016381e-24
-4.98297743747609e-25
-1.74893888214783e-25
-5.49905637162812e-25
-9.59631045734465e-25
-1.4143961902498e-24
-1.29927715094074e-24
-6.08070990578256e-25
-1.57632385747247e-25
-6.79201351667346e-25
-1.23679741604145e-24
-1.41019718623429e-24
-1.30142099491583e-24
-5.14066816379439e-25
-1.1558164407587e-25
-3.627202891008e-25
-1.10146874546151e-24
-1.41965254947879e-24