/*--------------------------------*- C++ -*----------------------------------*\
| =========                 |                                                 |
| \\      /  F ield         | foam-extend: Open Source CFD                    |
|  \\    /   O peration     | Version:     4.1-20200408                       |
|   \\  /    A nd           | Web:         http://www.foam-extend.org         |
|    \\/     M anipulation  |                                                 |
\*---------------------------------------------------------------------------*/
FoamFile
{
    version     2.0;
    format      ascii;
    class       volScalarField;
    location    "0.0960000";
    object      sigmaHyd;
}
// * * * * * * * * * * * * * * * * * * * * * * * * * * * * * * * * * * * * * //

dimensions      [1 -1 -2 0 0 0 0];

internalField   nonuniform List<scalar> 
1952
(
-6.04846e+08
-5.8041e+08
-5.46412e+08
-5.04486e+08
-4.53245e+08
-3.97942e+08
-3.36169e+08
-2.6337e+08
-1.82905e+08
-8.38259e+07
2.35591e+07
1.74333e+08
3.26508e+08
4.79629e+08
5.83279e+08
-6.16749e+08
-5.9501e+08
-5.70553e+08
-5.36543e+08
-4.94696e+08
-4.4341e+08
-3.88257e+08
-3.26442e+08
-2.53867e+08
-1.73445e+08
-7.47193e+07
3.25432e+07
1.82766e+08
3.34667e+08
4.86816e+08
5.90081e+08
-6.06827e+08
-5.90821e+08
-5.66378e+08
-5.32407e+08
-4.9063e+08
-4.3942e+08
-3.84403e+08
-3.22689e+08
-2.50312e+08
-1.70074e+08
-7.16627e+07
3.52607e+07
1.84922e+08
3.36132e+08
4.87206e+08
5.88996e+08
-6.02598e+08
-5.87442e+08
-5.63025e+08
-5.29111e+08
-4.87406e+08
-4.36284e+08
-3.81396e+08
-3.19815e+08
-2.47626e+08
-1.67597e+08
-6.94629e+07
3.71763e+07
1.8645e+08
3.3727e+08
4.87826e+08
5.89077e+08
-5.99197e+08
-5.84307e+08
-5.59919e+08
-5.26057e+08
-4.84425e+08
-4.33407e+08
-3.78651e+08
-3.17209e+08
-2.45212e+08
-1.65395e+08
-6.75379e+07
3.87897e+07
1.87651e+08
3.38016e+08
4.8805e+08
5.88662e+08
-5.96044e+08
-5.81613e+08
-5.57258e+08
-5.23453e+08
-4.81894e+08
-4.30974e+08
-3.76338e+08
-3.15038e+08
-2.43215e+08
-1.63616e+08
-6.60059e+07
4.00653e+07
1.88609e+08
3.38633e+08
4.883e+08
5.88499e+08
-5.93335e+08
-5.79208e+08
-5.54888e+08
-5.21135e+08
-4.79649e+08
-4.28837e+08
-3.74323e+08
-3.13159e+08
-2.41495e+08
-1.62086e+08
-6.46963e+07
4.11424e+07
1.89417e+08
3.39131e+08
4.88486e+08
5.88346e+08
-5.90918e+08
-5.77114e+08
-5.52828e+08
-5.1913e+08
-4.77709e+08
-4.2699e+08
-3.72583e+08
-3.11536e+08
-2.40001e+08
-1.6074e+08
-6.35494e+07
4.20845e+07
1.90108e+08
3.3961e+08
4.88712e+08
5.88305e+08
-5.88809e+08
-5.75273e+08
-5.51017e+08
-5.17352e+08
-4.75987e+08
-4.25324e+08
-3.71024e+08
-3.10072e+08
-2.38692e+08
-1.5959e+08
-6.25561e+07
4.29215e+07
1.90757e+08
3.40061e+08
4.88965e+08
5.88356e+08
-5.86958e+08
-5.73599e+08
-5.49372e+08
-5.15747e+08
-4.74446e+08
-4.23875e+08
-3.69647e+08
-3.088e+08
-2.37511e+08
-1.58531e+08
-6.16397e+07
4.36985e+07
1.91368e+08
3.40519e+08
4.89268e+08
5.88514e+08
-5.85274e+08
-5.72123e+08
-5.47919e+08
-5.14335e+08
-4.73076e+08
-4.22562e+08
-3.68418e+08
-3.07639e+08
-2.36448e+08
-1.57563e+08
-6.07966e+07
4.44363e+07
1.9197e+08
3.41027e+08
4.89634e+08
5.88759e+08
-5.83786e+08
-5.70797e+08
-5.46615e+08
-5.13048e+08
-4.71827e+08
-4.21357e+08
-3.67277e+08
-3.0656e+08
-2.35459e+08
-1.56658e+08
-5.99794e+07
4.51728e+07
1.9259e+08
3.41548e+08
4.90055e+08
5.89099e+08
-5.82454e+08
-5.6956e+08
-5.45395e+08
-5.1186e+08
-4.7068e+08
-4.20258e+08
-3.66223e+08
-3.05562e+08
-2.34515e+08
-1.55785e+08
-5.9198e+07
4.58908e+07
1.93224e+08
3.42132e+08
4.90537e+08
5.89527e+08
-5.81207e+08
-5.68442e+08
-5.4429e+08
-5.10772e+08
-4.69613e+08
-4.19229e+08
-3.65246e+08
-3.04617e+08
-2.33631e+08
-1.5493e+08
-5.84074e+07
4.66352e+07
1.93878e+08
3.4275e+08
4.9109e+08
5.90029e+08
-5.80083e+08
-5.67405e+08
-5.43264e+08
-5.09756e+08
-4.6862e+08
-4.18242e+08
-3.6429e+08
-3.03689e+08
-2.32755e+08
-1.54111e+08
-5.76384e+07
4.73842e+07
1.9458e+08
3.43415e+08
4.91693e+08
5.90621e+08
-5.7904e+08
-5.66409e+08
-5.42274e+08
-5.08783e+08
-4.67667e+08
-4.17332e+08
-3.63402e+08
-3.02824e+08
-2.31908e+08
-1.53268e+08
-5.68428e+07
4.81614e+07
1.95306e+08
3.44132e+08
4.92361e+08
5.91287e+08
-5.78038e+08
-5.65511e+08
-5.41378e+08
-5.07894e+08
-4.66781e+08
-4.16437e+08
-3.62533e+08
-3.0195e+08
-2.31064e+08
-1.52424e+08
-5.60331e+07
4.89721e+07
1.96072e+08
3.44918e+08
4.93093e+08
5.9202e+08
-5.77134e+08
-5.64649e+08
-5.40515e+08
-5.07024e+08
-4.65915e+08
-4.15564e+08
-3.61669e+08
-3.0108e+08
-2.30223e+08
-1.51579e+08
-5.52014e+07
4.9818e+07
1.96887e+08
3.45732e+08
4.93883e+08
5.92827e+08
-5.7627e+08
-5.63817e+08
-5.39676e+08
-5.0619e+08
-4.65086e+08
-4.14736e+08
-3.60833e+08
-3.00235e+08
-2.29373e+08
-1.50714e+08
-5.43582e+07
5.06858e+07
1.97737e+08
3.46621e+08
4.94731e+08
5.93718e+08
-5.75432e+08
-5.63058e+08
-5.38907e+08
-5.05412e+08
-4.64296e+08
-4.13929e+08
-3.60033e+08
-2.99403e+08
-2.28552e+08
-1.49842e+08
-5.34855e+07
5.15985e+07
1.98634e+08
3.47568e+08
4.95648e+08
5.94672e+08
-5.74671e+08
-5.62354e+08
-5.38192e+08
-5.04686e+08
-4.6356e+08
-4.13157e+08
-3.59239e+08
-2.98572e+08
-2.27712e+08
-1.48955e+08
-5.25893e+07
5.25472e+07
1.99569e+08
3.48568e+08
4.96638e+08
5.95712e+08
-5.73964e+08
-5.61709e+08
-5.37529e+08
-5.04007e+08
-4.62864e+08
-4.12427e+08
-3.58488e+08
-2.97774e+08
-2.26906e+08
-1.48098e+08
-5.17132e+07
5.35089e+07
2.00559e+08
3.49622e+08
4.97693e+08
5.96848e+08
-5.73318e+08
-5.61149e+08
-5.3695e+08
-5.03412e+08
-4.6225e+08
-4.11788e+08
-3.57813e+08
-2.97043e+08
-2.26122e+08
-1.47212e+08
-5.07982e+07
5.45126e+07
2.01588e+08
3.50754e+08
4.98834e+08
5.98083e+08
-5.72757e+08
-5.60729e+08
-5.36505e+08
-5.02942e+08
-4.61738e+08
-4.11199e+08
-3.57189e+08
-2.96324e+08
-2.25369e+08
-1.46339e+08
-4.98844e+07
5.55517e+07
2.02654e+08
3.51971e+08
5.00055e+08
5.99416e+08
-5.72335e+08
-5.60425e+08
-5.36172e+08
-5.02558e+08
-4.61316e+08
-4.10694e+08
-3.56627e+08
-2.95662e+08
-2.24659e+08
-1.4551e+08
-4.89772e+07
5.66099e+07
2.03778e+08
3.53234e+08
5.01371e+08
6.00872e+08
-5.72037e+08
-5.60254e+08
-5.35965e+08
-5.02318e+08
-4.61033e+08
-4.1034e+08
-3.56194e+08
-2.95115e+08
-2.24014e+08
-1.44703e+08
-4.81016e+07
5.76686e+07
2.04914e+08
3.54579e+08
5.0278e+08
6.02462e+08
-5.71866e+08
-5.60324e+08
-5.35997e+08
-5.02285e+08
-4.60934e+08
-4.10128e+08
-3.55915e+08
-2.94682e+08
-2.23497e+08
-1.43994e+08
-4.72749e+07
5.87251e+07
2.06101e+08
3.55994e+08
5.04295e+08
6.04196e+08
-5.71945e+08
-5.60624e+08
-5.36257e+08
-5.02478e+08
-4.61063e+08
-4.10138e+08
-3.55815e+08
-2.94412e+08
-2.23085e+08
-1.43346e+08
-4.64906e+07
5.97726e+07
2.07283e+08
3.57469e+08
5.05907e+08
6.06085e+08
-5.72253e+08
-5.61239e+08
-5.36825e+08
-5.02963e+08
-4.61465e+08
-4.1038e+08
-3.55948e+08
-2.94329e+08
-2.22863e+08
-1.4286e+08
-4.58311e+07
6.07574e+07
2.0847e+08
3.59008e+08
5.07624e+08
6.08139e+08
-5.72879e+08
-5.62211e+08
-5.37749e+08
-5.03781e+08
-4.62193e+08
-4.10947e+08
-3.56372e+08
-2.94515e+08
-2.22864e+08
-1.42538e+08
-4.52884e+07
6.16763e+07
2.09615e+08
3.60565e+08
5.09428e+08
6.10362e+08
-5.73869e+08
-5.63616e+08
-5.39103e+08
-5.05028e+08
-4.6334e+08
-4.11891e+08
-3.57157e+08
-2.95023e+08
-2.23156e+08
-1.42474e+08
-4.49711e+07
6.2444e+07
2.10686e+08
3.62155e+08
5.1131e+08
6.12762e+08
-5.75291e+08
-5.65542e+08
-5.40981e+08
-5.06771e+08
-4.64971e+08
-4.13314e+08
-3.58402e+08
-2.95956e+08
-2.23845e+08
-1.42728e+08
-4.49057e+07
6.30341e+07
2.11619e+08
3.63697e+08
5.13243e+08
6.15324e+08
-5.77242e+08
-5.68078e+08
-5.43472e+08
-5.09126e+08
-4.67213e+08
-4.15309e+08
-3.60189e+08
-2.97401e+08
-2.25001e+08
-1.43427e+08
-4.52387e+07
6.33203e+07
2.1235e+08
3.65172e+08
5.15188e+08
6.18044e+08
-5.79802e+08
-5.71321e+08
-5.46678e+08
-5.12181e+08
-4.70149e+08
-4.18012e+08
-3.62673e+08
-2.99514e+08
-2.2679e+08
-1.44666e+08
-4.6046e+07
6.32277e+07
2.1277e+08
3.66465e+08
5.17094e+08
6.20886e+08
-5.83074e+08
-5.75403e+08
-5.50736e+08
-5.16088e+08
-4.73942e+08
-4.21536e+08
-3.65962e+08
-3.02409e+08
-2.29321e+08
-1.46626e+08
-4.75153e+07
6.25873e+07
2.12768e+08
3.67508e+08
5.18864e+08
6.23817e+08
-5.87183e+08
-5.80413e+08
-5.55742e+08
-5.20942e+08
-4.78693e+08
-4.2605e+08
-3.70243e+08
-3.06282e+08
-2.328e+08
-1.49445e+08
-4.97776e+07
6.12559e+07
2.1216e+08
3.68134e+08
5.20388e+08
6.26751e+08
-5.92221e+08
-5.86483e+08
-5.61836e+08
-5.26897e+08
-4.84567e+08
-4.3167e+08
-3.7564e+08
-3.11275e+08
-2.37392e+08
-1.53374e+08
-5.30971e+07
5.89832e+07
2.10732e+08
3.68178e+08
5.21494e+08
6.29587e+08
-5.98315e+08
-5.93668e+08
-5.69083e+08
-5.34023e+08
-4.91658e+08
-4.38576e+08
-3.82361e+08
-3.17637e+08
-2.43369e+08
-1.58677e+08
-5.77393e+07
5.54881e+07
2.08204e+08
3.67342e+08
5.21959e+08
6.32177e+08
-6.0552e+08
-6.02046e+08
-5.77575e+08
-5.42456e+08
-5.00127e+08
-4.46937e+08
-3.90596e+08
-3.25602e+08
-2.5097e+08
-1.65649e+08
-6.40539e+07
5.03895e+07
2.04177e+08
3.65316e+08
5.21466e+08
6.34321e+08
-6.13901e+08
-6.11664e+08
-5.87375e+08
-5.52257e+08
-5.10052e+08
-4.5687e+08
-4.00534e+08
-3.35405e+08
-2.60542e+08
-1.74702e+08
-7.24729e+07
4.32171e+07
1.98178e+08
3.61593e+08
5.19575e+08
6.35716e+08
-6.23508e+08
-6.22448e+08
-5.98432e+08
-5.63429e+08
-5.21499e+08
-4.68514e+08
-4.12335e+08
-3.47315e+08
-2.72364e+08
-1.86222e+08
-8.34891e+07
3.33616e+07
1.89518e+08
3.55496e+08
5.15648e+08
6.35884e+08
-6.34255e+08
-6.34301e+08
-6.10663e+08
-5.75918e+08
-5.34438e+08
-4.81889e+08
-4.26137e+08
-3.61547e+08
-2.86817e+08
-2.00741e+08
-9.7753e+07
2.0037e+07
1.77338e+08
3.46087e+08
5.08827e+08
6.34223e+08
-6.46035e+08
-6.46957e+08
-6.23833e+08
-5.89523e+08
-5.48743e+08
-4.96968e+08
-4.41975e+08
-3.78293e+08
-3.0419e+08
-2.18737e+08
-1.1593e+08
2.30356e+06
1.60471e+08
3.32047e+08
4.9791e+08
6.30189e+08
-6.58579e+08
-6.60009e+08
-6.37556e+08
-6.03921e+08
-5.64139e+08
-5.13542e+08
-4.59761e+08
-3.97594e+08
-3.24714e+08
-2.40696e+08
-1.38806e+08
-2.10344e+07
1.37287e+08
3.1135e+08
4.80545e+08
6.22129e+08
-6.71463e+08
-6.72871e+08
-6.51267e+08
-6.18556e+08
-5.80125e+08
-5.31184e+08
-4.79175e+08
-4.19293e+08
-3.4845e+08
-2.67004e+08
-1.67107e+08
-5.13302e+07
1.05625e+08
2.80504e+08
4.51357e+08
6.02749e+08
-6.84102e+08
-6.84652e+08
-6.64095e+08
-6.32616e+08
-5.95955e+08
-5.49241e+08
-4.99637e+08
-4.42971e+08
-3.75118e+08
-2.97729e+08
-2.01353e+08
-8.99555e+07
6.28691e+07
2.34138e+08
4.00065e+08
5.51253e+08
-6.95593e+08
-6.94274e+08
-6.74974e+08
-6.45048e+08
-6.10589e+08
-5.66721e+08
-5.20238e+08
-4.67765e+08
-4.03952e+08
-3.32174e+08
-2.4097e+08
-1.36671e+08
8.94649e+06
1.71261e+08
3.2448e+08
4.6066e+08
-7.04858e+08
-7.00385e+08
-6.82556e+08
-6.54487e+08
-6.22665e+08
-5.82187e+08
-5.39537e+08
-4.92199e+08
-4.33454e+08
-3.68785e+08
-2.84053e+08
-1.88929e+08
-5.19173e+07
9.94103e+07
2.39363e+08
3.62842e+08
-7.10546e+08
-7.01244e+08
-6.85091e+08
-6.5917e+08
-6.30423e+08
-5.93907e+08
-5.55775e+08
-5.14486e+08
-4.61799e+08
-4.05683e+08
-3.28666e+08
-2.44831e+08
-1.17517e+08
2.05801e+07
1.47373e+08
2.61806e+08
-7.10922e+08
-6.94896e+08
-6.8061e+08
-6.57109e+08
-6.31834e+08
-5.99778e+08
-5.66806e+08
-5.32357e+08
-4.8666e+08
-4.40391e+08
-3.72293e+08
-3.01894e+08
-1.85191e+08
-6.3627e+07
5.16694e+07
1.58614e+08
-7.04035e+08
-6.79134e+08
-6.66884e+08
-6.46005e+08
-6.24533e+08
-5.97302e+08
-5.7005e+08
-5.43059e+08
-5.0529e+08
-4.70072e+08
-4.12263e+08
-3.57548e+08
-2.53179e+08
-1.53771e+08
-4.69664e+07
5.22687e+07
-6.87695e+08
-6.51418e+08
-6.41339e+08
-6.23238e+08
-6.05849e+08
-5.83746e+08
-5.62604e+08
-5.43512e+08
-5.14483e+08
-4.91421e+08
-4.45628e+08
-4.08585e+08
-3.20319e+08
-2.47629e+08
-1.50057e+08
-6.13498e+07
-6.59372e+08
-6.09057e+08
-6.01266e+08
-5.8609e+08
-5.73039e+08
-5.56372e+08
-5.41731e+08
-5.30707e+08
-5.10764e+08
-4.99709e+08
-4.6546e+08
-4.46177e+08
-3.80316e+08
-3.4053e+08
-2.55852e+08
-1.8736e+08
-6.16375e+08
-5.49804e+08
-5.44471e+08
-5.32325e+08
-5.2362e+08
-5.11818e+08
-5.0224e+08
-4.97261e+08
-4.85689e+08
-4.88137e+08
-4.69268e+08
-4.72189e+08
-4.29489e+08
-4.22297e+08
-3.56104e+08
-3.26468e+08
-5.56416e+08
-4.68893e+08
-4.65361e+08
-4.5537e+08
-4.5069e+08
-4.45016e+08
-4.43787e+08
-4.48128e+08
-4.48674e+08
-4.66049e+08
-4.64745e+08
-4.89831e+08
-4.68046e+08
-4.93191e+08
-4.51396e+08
-4.73111e+08
-4.75151e+08
-3.64571e+08
-3.65068e+08
-3.6056e+08
-3.64157e+08
-3.69187e+08
-3.80815e+08
-3.99083e+08
-4.14542e+08
-4.46056e+08
-4.60498e+08
-5.05872e+08
-5.06013e+08
-5.61251e+08
-5.42641e+08
-6.17391e+08
-3.69692e+08
-2.56841e+08
-2.64827e+08
-2.70255e+08
-2.85272e+08
-3.026e+08
-3.26845e+08
-3.58798e+08
-3.88922e+08
-4.34489e+08
-4.63268e+08
-5.24347e+08
-5.42117e+08
-6.22246e+08
-6.241e+08
-7.42901e+08
-2.58919e+08
-1.67253e+08
-1.82111e+08
-1.97209e+08
-2.22834e+08
-2.51684e+08
-2.86798e+08
-3.29123e+08
-3.70641e+08
-4.26609e+08
-4.67886e+08
-5.41051e+08
-5.73996e+08
-6.73232e+08
-6.93417e+08
-8.46807e+08
-1.65822e+08
-1.02871e+08
-1.21852e+08
-1.43506e+08
-1.76118e+08
-2.12936e+08
-2.56469e+08
-3.06639e+08
-3.57415e+08
-4.21195e+08
-4.73111e+08
-5.5491e+08
-6.00684e+08
-7.13145e+08
-7.49201e+08
-9.27829e+08
-9.84471e+07
-6.13207e+07
-8.22263e+07
-1.07964e+08
-1.44783e+08
-1.86704e+08
-2.36103e+08
-2.91557e+08
-3.49352e+08
-4.18278e+08
-4.7877e+08
-5.65839e+08
-6.22146e+08
-7.42077e+08
-7.91173e+08
-9.84981e+08
-5.45501e+07
-4.04323e+07
-6.18325e+07
-8.9744e+07
-1.28655e+08
-1.73275e+08
-2.2622e+08
-2.84554e+08
-3.4711e+08
-4.18559e+08
-4.85292e+08
-5.74263e+08
-6.38635e+08
-7.60569e+08
-8.19641e+08
-1.01861e+09
-3.20224e+07
-3.77558e+07
-5.89562e+07
-8.77601e+07
-1.27339e+08
-1.72814e+08
-2.27301e+08
-2.86314e+08
-3.51358e+08
-4.22786e+08
-4.93255e+08
-5.80818e+08
-6.50535e+08
-7.69236e+08
-8.3491e+08
-1.02937e+09
-2.83906e+07
-5.16221e+07
-7.22284e+07
-1.00921e+08
-1.4007e+08
-1.84904e+08
-2.39203e+08
-2.96962e+08
-3.6233e+08
-4.31389e+08
-5.03056e+08
-5.86081e+08
-6.58187e+08
-7.6862e+08
-8.371e+08
-1.01752e+09
-4.19823e+07
-8.10736e+07
-1.00653e+08
-1.28235e+08
-1.65872e+08
-2.08693e+08
-2.61224e+08
-3.16039e+08
-3.79753e+08
-4.44395e+08
-5.14831e+08
-5.90516e+08
-6.61977e+08
-7.59505e+08
-8.26886e+08
-9.84709e+08
-7.18215e+07
-1.25595e+08
-1.43496e+08
-1.6882e+08
-2.03702e+08
-2.43111e+08
-2.92344e+08
-3.42713e+08
-4.02987e+08
-4.61482e+08
-5.2844e+08
-5.94367e+08
-6.6211e+08
-7.42453e+08
-8.04543e+08
-9.31614e+08
-1.17343e+08
-1.84635e+08
-2.00045e+08
-2.21871e+08
-2.52644e+08
-2.8721e+08
-3.31631e+08
-3.76166e+08
-4.31345e+08
-4.82225e+08
-5.43638e+08
-5.97783e+08
-6.58804e+08
-7.18285e+08
-7.71102e+08
-8.61132e+08
-1.77867e+08
-2.57001e+08
-2.69274e+08
-2.86578e+08
-3.12059e+08
-3.40485e+08
-3.78658e+08
-4.16036e+08
-4.64513e+08
-5.06427e+08
-5.603e+08
-6.00895e+08
-6.52159e+08
-6.87613e+08
-7.27366e+08
-7.76041e+08
-2.51949e+08
-3.40299e+08
-3.49399e+08
-3.61855e+08
-3.81495e+08
-4.02968e+08
-4.33753e+08
-4.62785e+08
-5.0297e+08
-5.34567e+08
-5.78839e+08
-6.04169e+08
-6.42481e+08
-6.51216e+08
-6.74509e+08
-6.80169e+08
-3.36821e+08
-4.30779e+08
-4.37502e+08
-4.45839e+08
-4.60163e+08
-4.74818e+08
-4.97799e+08
-5.17748e+08
-5.48277e+08
-5.68229e+08
-6.00686e+08
-6.08821e+08
-6.30579e+08
-6.1018e+08
-6.14116e+08
-5.78195e+08
-4.28356e+08
-5.24057e+08
-5.29738e+08
-5.35583e+08
-5.46234e+08
-5.55465e+08
-5.71447e+08
-5.82598e+08
-6.02847e+08
-6.10176e+08
-6.28567e+08
-6.17205e+08
-6.18221e+08
-5.66361e+08
-5.48528e+08
-4.74985e+08
-5.22015e+08
-6.16197e+08
-6.21897e+08
-6.26898e+08
-6.35857e+08
-6.41862e+08
-6.52791e+08
-6.56754e+08
-6.67435e+08
-6.62293e+08
-6.65209e+08
-6.32247e+08
-6.08325e+08
-5.23192e+08
-4.81842e+08
-3.75946e+08
-6.14085e+08
-7.03354e+08
-7.09263e+08
-7.14184e+08
-7.22725e+08
-7.27551e+08
-7.35938e+08
-7.35695e+08
-7.39562e+08
-7.24672e+08
-7.13138e+08
-6.57816e+08
-6.06052e+08
-4.87184e+08
-4.2141e+08
-2.87761e+08
-7.0118e+08
-7.87621e+08
-7.93766e+08
-7.99162e+08
-8.08354e+08
-8.14014e+08
-8.22683e+08
-8.21799e+08
-8.22083e+08
-8.00294e+08
-7.72843e+08
-6.96375e+08
-6.16287e+08
-4.66237e+08
-3.77068e+08
-2.1928e+08
-7.85445e+08
-8.79296e+08
-8.82708e+08
-8.8454e+08
-8.88437e+08
-8.87827e+08
-8.87728e+08
-8.76273e+08
-8.61618e+08
-8.22943e+08
-7.76426e+08
-6.8795e+08
-5.9618e+08
-4.47483e+08
-3.48998e+08
-1.76719e+08
-8.78074e+08
-9.13248e+08
-9.10191e+08
-9.03163e+08
-8.94323e+08
-8.78939e+08
-8.60626e+08
-8.30631e+08
-7.96369e+08
-7.42166e+08
-6.87457e+08
-6.04726e+08
-5.28087e+08
-4.06753e+08
-3.23823e+08
-1.5909e+08
-9.14442e+08
-8.42122e+08
-8.36193e+08
-8.25469e+08
-8.11281e+08
-7.90242e+08
-7.65298e+08
-7.30098e+08
-6.91661e+08
-6.38618e+08
-5.87562e+08
-5.14219e+08
-4.5302e+08
-3.5501e+08
-2.89954e+08
-1.59901e+08
-8.44423e+08
-7.48553e+08
-7.42507e+08
-7.32185e+08
-7.18408e+08
-6.98676e+08
-6.75348e+08
-6.43149e+08
-6.07962e+08
-5.59941e+08
-5.12094e+08
-4.46687e+08
-3.87829e+08
-3.05419e+08
-2.43889e+08
-1.52031e+08
-7.50876e+08
-6.74053e+08
-6.67207e+08
-6.56318e+08
-6.41565e+08
-6.21406e+08
-5.97596e+08
-5.6626e+08
-5.32271e+08
-4.88092e+08
-4.44082e+08
-3.86492e+08
-3.33776e+08
-2.64057e+08
-2.03618e+08
-1.30894e+08
-6.76576e+08
-6.01032e+08
-5.94134e+08
-5.83729e+08
-5.6943e+08
-5.50465e+08
-5.27993e+08
-4.99158e+08
-4.67775e+08
-4.27974e+08
-3.87799e+08
-3.3694e+08
-2.89244e+08
-2.28672e+08
-1.75422e+08
-1.07672e+08
-6.0347e+08
-5.37034e+08
-5.30094e+08
-5.20125e+08
-5.06231e+08
-4.88315e+08
-4.67018e+08
-4.40406e+08
-4.11418e+08
-3.75648e+08
-3.39372e+08
-2.94752e+08
-2.52395e+08
-2.00358e+08
-1.53394e+08
-9.62474e+07
-5.39392e+08
-4.78486e+08
-4.71758e+08
-4.62509e+08
-4.49425e+08
-4.32944e+08
-4.13259e+08
-3.89149e+08
-3.62805e+08
-3.30946e+08
-2.98453e+08
-2.59365e+08
-2.21959e+08
-1.77005e+08
-1.36358e+08
-8.70197e+07
-4.80685e+08
-4.26428e+08
-4.19988e+08
-4.11482e+08
-3.99275e+08
-3.84223e+08
-3.66162e+08
-3.44443e+08
-3.20662e+08
-2.92427e+08
-2.6355e+08
-2.29473e+08
-1.96731e+08
-1.5814e+08
-1.23136e+08
-8.12875e+07
-4.2846e+08
-3.79807e+08
-3.73751e+08
-3.66043e+08
-3.5482e+08
-3.41244e+08
-3.24871e+08
-3.05487e+08
-2.84212e+08
-2.59336e+08
-2.33843e+08
-2.04226e+08
-1.75729e+08
-1.42633e+08
-1.12684e+08
-7.71273e+07
-3.81655e+08
-3.38413e+08
-3.3278e+08
-3.25855e+08
-3.15627e+08
-3.03472e+08
-2.88739e+08
-2.71542e+08
-2.52632e+08
-2.3082e+08
-2.08447e+08
-1.82807e+08
-1.58143e+08
-1.29865e+08
-1.04335e+08
-7.42391e+07
-3.40079e+08
-3.01654e+08
-2.96472e+08
-2.90304e+08
-2.81068e+08
-2.70269e+08
-2.57114e+08
-2.41951e+08
-2.2525e+08
-2.06211e+08
-1.86678e+08
-1.64554e+08
-1.433e+08
-1.19193e+08
-9.75013e+07
-7.20404e+07
-3.03142e+08
-2.69109e+08
-2.64383e+08
-2.58926e+08
-2.50645e+08
-2.41107e+08
-2.29432e+08
-2.1613e+08
-2.01457e+08
-1.84906e+08
-1.67932e+08
-1.48903e+08
-1.30661e+08
-1.10163e+08
-9.17805e+07
-7.02711e+07
-2.70429e+08
-2.40309e+08
-2.36032e+08
-2.31233e+08
-2.23855e+08
-2.15478e+08
-2.05176e+08
-1.9356e+08
-1.8073e+08
-1.66396e+08
-1.51705e+08
-1.35385e+08
-1.19776e+08
-1.0238e+08
-8.68235e+07
-6.86314e+07
-2.41473e+08
-2.14841e+08
-2.10996e+08
-2.06798e+08
-2.00261e+08
-1.92937e+08
-1.83889e+08
-1.73787e+08
-1.62616e+08
-1.50243e+08
-1.37572e+08
-1.23613e+08
-1.10298e+08
-9.55629e+07
-8.24202e+07
-6.70414e+07
-2.15862e+08
-1.92313e+08
-1.88877e+08
-1.8522e+08
-1.79456e+08
-1.73081e+08
-1.65168e+08
-1.56414e+08
-1.46723e+08
-1.36075e+08
-1.2518e+08
-1.13266e+08
-1.01933e+08
-8.94687e+07
-7.83664e+07
-6.53317e+07
-1.93204e+08
-1.72372e+08
-1.69315e+08
-1.66143e+08
-1.61082e+08
-1.55552e+08
-1.48658e+08
-1.41096e+08
-1.32715e+08
-1.23575e+08
-1.14233e+08
-1.04086e+08
-9.44605e+07
-8.39316e+07
-7.45605e+07
-6.35055e+07
-1.73146e+08
-1.54694e+08
-1.51988e+08
-1.49246e+08
-1.44818e+08
-1.40036e+08
-1.34049e+08
-1.27534e+08
-1.20307e+08
-1.12478e+08
-1.04485e+08
-9.58572e+07
-8.76938e+07
-7.88084e+07
-7.08984e+07
-6.151e+07
-1.55366e+08
-1.38995e+08
-1.36608e+08
-1.34243e+08
-1.30382e+08
-1.26257e+08
-1.21072e+08
-1.15472e+08
-1.09253e+08
-1.02559e+08
-9.57321e+07
-8.84039e+07
-8.14866e+07
-7.39875e+07
-6.72967e+07
-5.92798e+07
-1.39575e+08
-1.25017e+08
-1.22919e+08
-1.20885e+08
-1.17526e+08
-1.13976e+08
-1.09494e+08
-1.04689e+08
-9.93472e+07
-9.36314e+07
-8.78068e+07
-8.15866e+07
-7.57274e+07
-6.93966e+07
-6.3726e+07
-5.68545e+07
-1.25518e+08
-1.12537e+08
-1.10697e+08
-1.0895e+08
-1.06034e+08
-1.02983e+08
-9.91161e+07
-9.49973e+07
-9.04146e+07
-8.55371e+07
-8.05706e+07
-7.52906e+07
-7.03249e+07
-6.49718e+07
-6.01454e+07
-5.42114e+07
-1.12967e+08
-1.01355e+08
-9.97446e+07
-9.82465e+07
-9.57183e+07
-9.30991e+07
-8.97658e+07
-8.62377e+07
-8.23082e+07
-7.81463e+07
-7.39113e+07
-6.94262e+07
-6.52124e+07
-6.06763e+07
-5.65487e+07
-5.13861e+07
-1.01725e+08
-9.12993e+07
-8.98926e+07
-8.86078e+07
-8.64181e+07
-8.41697e+07
-8.12976e+07
-7.8275e+07
-7.49053e+07
-7.13517e+07
-6.77371e+07
-6.39214e+07
-6.03378e+07
-5.64815e+07
-5.29304e+07
-4.84024e+07
-9.16174e+07
-8.22208e+07
-8.09929e+07
-7.98905e+07
-7.79941e+07
-7.60629e+07
-7.35874e+07
-7.09955e+07
-6.81031e+07
-6.50642e+07
-6.19738e+07
-5.87194e+07
-5.56614e+07
-5.23678e+07
-4.92878e+07
-4.5273e+07
-8.24943e+07
-7.39905e+07
-7.29188e+07
-7.19715e+07
-7.03282e+07
-6.86668e+07
-6.65307e+07
-6.43039e+07
-6.18167e+07
-5.92115e+07
-5.65619e+07
-5.37763e+07
-5.11551e+07
-4.83263e+07
-4.56313e+07
-4.20344e+07
-7.4226e+07
-6.64973e+07
-6.55614e+07
-6.47453e+07
-6.33191e+07
-6.18862e+07
-6.0039e+07
-5.81202e+07
-5.59754e+07
-5.37339e+07
-5.14533e+07
-4.90576e+07
-4.67977e+07
-4.43509e+07
-4.19685e+07
-3.87097e+07
-6.67006e+07
-5.96469e+07
-5.88284e+07
-5.81226e+07
-5.68818e+07
-5.56412e+07
-5.40387e+07
-5.23783e+07
-5.05212e+07
-4.85832e+07
-4.66099e+07
-4.45367e+07
-4.2574e+07
-4.04391e+07
-3.83077e+07
-3.53141e+07
-5.9823e+07
-5.33589e+07
-5.26415e+07
-5.20277e+07
-5.09444e+07
-4.98646e+07
-4.84681e+07
-4.70233e+07
-4.54066e+07
-4.37202e+07
-4.20015e+07
-4.01943e+07
-3.84758e+07
-3.65976e+07
-3.46736e+07
-3.19076e+07
-5.35124e+07
-4.75655e+07
-4.69346e+07
-4.6397e+07
-4.54466e+07
-4.45004e+07
-4.32763e+07
-4.201e+07
-4.05927e+07
-3.91134e+07
-3.76038e+07
-3.60136e+07
-3.4493e+07
-3.28216e+07
-3.10616e+07
-2.84729e+07
-4.77002e+07
-4.221e+07
-4.16527e+07
-4.11776e+07
-4.03387e+07
-3.95023e+07
-3.84214e+07
-3.73014e+07
-3.60482e+07
-3.47378e+07
-3.33983e+07
-3.19836e+07
-3.0622e+07
-2.91171e+07
-2.74876e+07
-2.5044e+07
-4.23293e+07
-3.7245e+07
-3.675e+07
-3.63256e+07
-3.55795e+07
-3.48325e+07
-3.38694e+07
-3.2868e+07
-3.17481e+07
-3.05734e+07
-2.93703e+07
-2.80948e+07
-2.6858e+07
-2.54827e+07
-2.39515e+07
-2.16166e+07
-3.73518e+07
-3.26316e+07
-3.21891e+07
-3.18051e+07
-3.11355e+07
-3.04603e+07
-2.95929e+07
-2.86862e+07
-2.76731e+07
-2.66055e+07
-2.55094e+07
-2.43421e+07
-2.32005e+07
-2.19234e+07
-2.04635e+07
-1.82074e+07
-3.27284e+07
-2.8338e+07
-2.79393e+07
-2.75871e+07
-2.69799e+07
-2.63612e+07
-2.55705e+07
-2.47379e+07
-2.38084e+07
-2.28232e+07
-2.18085e+07
-2.07222e+07
-1.96498e+07
-1.84436e+07
-1.70313e+07
-1.48299e+07
-2.8427e+07
-2.43384e+07
-2.39764e+07
-2.36483e+07
-2.30915e+07
-2.25162e+07
-2.17858e+07
-2.10094e+07
-2.01435e+07
-1.92191e+07
-1.82635e+07
-1.72342e+07
-1.6208e+07
-1.50477e+07
-1.36611e+07
-1.149e+07
-2.44216e+07
-2.06127e+07
-2.0281e+07
-1.99706e+07
-1.94539e+07
-1.8911e+07
-1.82266e+07
-1.74911e+07
-1.66717e+07
-1.57893e+07
-1.48732e+07
-1.38795e+07
-1.28788e+07
-1.17419e+07
-1.03612e+07
-8.19847e+06
-2.06915e+07
-1.7145e+07
-1.68383e+07
-1.65405e+07
-1.60552e+07
-1.55353e+07
-1.48851e+07
-1.41775e+07
-1.33895e+07
-1.25328e+07
-1.16389e+07
-1.06619e+07
-9.66792e+06
-8.53395e+06
-7.14081e+06
-4.96783e+06
-1.72208e+07
-1.39233e+07
-1.36374e+07
-1.33478e+07
-1.28866e+07
-1.23821e+07
-1.17561e+07
-1.10656e+07
-1.02963e+07
-9.45152e+06
-8.56436e+06
-7.58706e+06
-6.58194e+06
-5.43031e+06
-4.0045e+06
-1.79518e+06
-1.39971e+07
-1.09388e+07
-1.06702e+07
-1.03855e+07
-9.9428e+06
-9.44774e+06
-8.83787e+06
-8.15574e+06
-7.3948e+06
-6.55016e+06
-5.65663e+06
-4.6639e+06
-3.63166e+06
-2.44393e+06
-968093
1.29622e+06
-1.10114e+07
-8.18496e+06
-7.93107e+06
-7.64898e+06
-7.22049e+06
-6.73057e+06
-6.13084e+06
-5.45058e+06
-4.68977e+06
-3.83596e+06
-2.9249e+06
-1.90343e+06
-828697
414091
1.95997e+06
4.30499e+06
-8.25687e+06
-5.65721e+06
-5.41619e+06
-5.13548e+06
-4.71838e+06
-4.23106e+06
-3.63753e+06
-2.95499e+06
-2.18869e+06
-1.31909e+06
-381848
679266
1.81035e+06
3.12602e+06
4.76225e+06
7.21353e+06
-5.7287e+06
-3.35201e+06
-3.1228e+06
-2.84328e+06
-2.43625e+06
-1.95082e+06
-1.36181e+06
-675424
99080.9
987923
1.95698e+06
3.06575e+06
4.26556e+06
5.67182e+06
7.42222e+06
1.00134e+07
-3.42307e+06
-1.26616e+06
-1.04841e+06
-770981
-374225
108094
691829
1.3807e+06
2.16269e+06
3.0703e+06
4.07265e+06
5.23274e+06
6.51059e+06
8.02306e+06
9.91402e+06
1.26867e+07
-1.33651e+06
603816
809753
1.08313e+06
1.46788e+06
1.94388e+06
2.51899e+06
3.20575e+06
3.99044e+06
4.91144e+06
5.94284e+06
7.15141e+06
8.51068e+06
1.01389e+07
1.21963e+07
1.51904e+07
534699
2.26185e+06
2.45504e+06
2.7214e+06
3.09097e+06
3.55553e+06
4.11606e+06
4.79278e+06
5.57086e+06
6.49417e+06
7.54293e+06
8.78835e+06
1.02234e+07
1.19682e+07
1.42229e+07
1.74896e+07
2.19471e+06
3.71518e+06
3.89416e+06
4.14964e+06
4.49955e+06
4.94575e+06
5.48321e+06
6.13848e+06
6.89569e+06
7.8034e+06
8.8478e+06
1.01054e+07
1.15931e+07
1.3438e+07
1.59181e+07
1.9528e+07
3.65096e+06
4.97291e+06
5.13576e+06
5.37578e+06
5.70049e+06
6.11995e+06
6.62378e+06
7.24325e+06
7.96069e+06
8.82791e+06
9.83443e+06
1.10622e+07
1.25497e+07
1.44424e+07
1.71257e+07
2.11562e+07
4.91269e+06
6.01594e+06
6.16133e+06
6.38221e+06
6.67738e+06
7.06326e+06
7.52465e+06
8.0958e+06
8.75602e+06
9.55795e+06
1.0489e+07
1.16325e+07
1.30317e+07
1.4847e+07
1.75345e+07
2.17492e+07
5.96052e+06
7.03702e+06
7.15908e+06
7.35074e+06
7.60324e+06
7.93781e+06
8.33446e+06
8.8282e+06
9.39274e+06
1.00761e+07
1.08525e+07
1.17892e+07
1.28885e+07
1.42711e+07
1.62832e+07
1.94092e+07
6.98895e+06
7.48437e+06
7.58966e+06
7.75907e+06
7.98041e+06
8.27702e+06
8.6269e+06
9.06528e+06
9.56324e+06
1.0166e+07
1.08399e+07
1.16397e+07
1.25302e+07
1.35707e+07
1.48277e+07
1.7124e+07
7.44189e+06
)
;

boundaryField
{
    wireUpstream
    {
        type            zeroGradient;
    }
    wireDownstream
    {
        type            zeroGradient;
    }
    wireTopContact
    {
        type            zeroGradient;
    }
    front
    {
        type            wedge;
    }
    back
    {
        type            wedge;
    }
}


// ************************************************************************* //
