/*--------------------------------*- C++ -*----------------------------------*\
| =========                 |                                                 |
| \\      /  F ield         | OpenFOAM: The Open Source CFD Toolbox           |
|  \\    /   O peration     | Version:  4.1                                   |
|   \\  /    A nd           | Web:      www.OpenFOAM.org                      |
|    \\/     M anipulation  |                                                 |
\*---------------------------------------------------------------------------*/
FoamFile
{
    version     2.0;
    format      ascii;
    class       pointVectorField;
    location    "0.0033";
    object      pointDisplacement_Next;
}
// * * * * * * * * * * * * * * * * * * * * * * * * * * * * * * * * * * * * * //

dimensions      [0 1 0 0 0 0 0];

internalField   uniform (0 0 0);

boundaryField
{
    inlet
    {
        type            fixedValue;
        value           nonuniform 0();
    }
    outlet
    {
        type            fixedValue;
        value           nonuniform 0();
    }
    mantle
    {
        type            fixedValue;
        value           nonuniform List<vector> 
416
(
(-2.0221e-05 -0.00010665 1.6151e-11)
(-2.3657e-05 -9.4474e-05 6.7272e-10)
(-2.3697e-05 -9.2626e-05 1.8441e-05)
(-2.0285e-05 -0.00010452 2.078e-05)
(-2.3757e-05 -8.7154e-05 3.6131e-05)
(-2.0357e-05 -9.8272e-05 4.0745e-05)
(-2.3768e-05 -7.8324e-05 5.2356e-05)
(-2.0331e-05 -8.8294e-05 5.9052e-05)
(-2.3759e-05 -6.6564e-05 6.6564e-05)
(-2.0286e-05 -7.5051e-05 7.5051e-05)
(-2.3769e-05 -5.2355e-05 7.8323e-05)
(-2.0332e-05 -5.9049e-05 8.829e-05)
(-2.3758e-05 -3.613e-05 8.7152e-05)
(-2.0358e-05 -4.0743e-05 9.8266e-05)
(-2.3698e-05 -1.8441e-05 9.2628e-05)
(-2.0286e-05 -2.0779e-05 0.00010452)
(-2.3658e-05 -6.9771e-10 9.4481e-05)
(-2.0222e-05 -8.3428e-11 0.00010666)
(-2.7167e-05 -8.1352e-05 1.7809e-10)
(-2.7189e-05 -7.9752e-05 1.5854e-05)
(-2.7239e-05 -7.5061e-05 3.1099e-05)
(-2.7271e-05 -6.7531e-05 4.5144e-05)
(-2.7286e-05 -5.7437e-05 5.7438e-05)
(-2.7272e-05 -4.5144e-05 6.7533e-05)
(-2.7239e-05 -3.1099e-05 7.5064e-05)
(-2.719e-05 -1.5854e-05 7.9759e-05)
(-2.7168e-05 -3.6495e-10 8.1361e-05)
(-3.0378e-05 -6.869e-05 -4.456e-10)
(-3.0411e-05 -6.7302e-05 1.333e-05)
(-3.0464e-05 -6.3329e-05 2.622e-05)
(-3.0475e-05 -5.7071e-05 3.8188e-05)
(-3.0469e-05 -4.8634e-05 4.8634e-05)
(-3.0475e-05 -3.8189e-05 5.7075e-05)
(-3.0464e-05 -2.6223e-05 6.3336e-05)
(-3.0412e-05 -1.3331e-05 6.7311e-05)
(-3.0379e-05 1.9396e-10 6.8699e-05)
(-3.3027e-05 -5.7452e-05 -4.8771e-10)
(-3.3075e-05 -5.6244e-05 1.1098e-05)
(-3.3136e-05 -5.2885e-05 2.1888e-05)
(-3.3112e-05 -4.777e-05 3.2007e-05)
(-3.3078e-05 -4.0807e-05 4.0808e-05)
(-3.3112e-05 -3.2009e-05 4.7775e-05)
(-3.3136e-05 -2.1891e-05 5.2893e-05)
(-3.3075e-05 -1.11e-05 5.6254e-05)
(-3.3027e-05 2.6706e-10 5.746e-05)
(-3.4966e-05 -4.8035e-05 -3.6564e-10)
(-3.499e-05 -4.7049e-05 9.2874e-06)
(-3.5022e-05 -4.4294e-05 1.8345e-05)
(-3.5011e-05 -4.0024e-05 2.6829e-05)
(-3.4995e-05 -3.4199e-05 3.4199e-05)
(-3.5011e-05 -2.6832e-05 4.0028e-05)
(-3.5022e-05 -1.8348e-05 4.43e-05)
(-3.499e-05 -9.2893e-06 4.7057e-05)
(-3.4966e-05 5.0349e-11 4.8042e-05)
(-3.6094e-05 -4.0239e-05 -2.2733e-10)
(-3.6097e-05 -3.9441e-05 7.7961e-06)
(-3.6106e-05 -3.7181e-05 1.5417e-05)
(-3.6111e-05 -3.3602e-05 2.2521e-05)
(-3.6113e-05 -2.8705e-05 2.8705e-05)
(-3.611e-05 -2.2523e-05 3.3604e-05)
(-3.6106e-05 -1.5418e-05 3.7185e-05)
(-3.6096e-05 -7.7972e-06 3.9445e-05)
(-3.6093e-05 -1.9098e-10 4.0243e-05)
(-3.6433e-05 -3.3524e-05 -1.4382e-09)
(-3.6446e-05 -3.2869e-05 6.4929e-06)
(-3.646e-05 -3.1002e-05 1.2832e-05)
(-3.6452e-05 -2.805e-05 1.8786e-05)
(-3.6442e-05 -2.3965e-05 2.3967e-05)
(-3.6452e-05 -1.8786e-05 2.805e-05)
(-3.646e-05 -1.2832e-05 3.1002e-05)
(-3.6445e-05 -6.4931e-06 3.2869e-05)
(-3.6433e-05 1.0146e-09 3.3525e-05)
(-3.6226e-05 -2.74e-05 2.3911e-10)
(-3.6255e-05 -2.6844e-05 5.2823e-06)
(-3.6281e-05 -2.5326e-05 1.0465e-05)
(-3.6253e-05 -2.2946e-05 1.5371e-05)
(-3.6224e-05 -1.9643e-05 1.9643e-05)
(-3.6253e-05 -1.5371e-05 2.2944e-05)
(-3.628e-05 -1.0464e-05 2.5323e-05)
(-3.6254e-05 -5.2819e-06 2.6842e-05)
(-3.6226e-05 -5.6183e-10 2.7398e-05)
(-3.5729e-05 -2.1646e-05 9.1567e-10)
(-3.5747e-05 -2.1261e-05 4.2106e-06)
(-3.5762e-05 -2.0119e-05 8.3238e-06)
(-3.5738e-05 -1.8223e-05 1.2189e-05)
(-3.5716e-05 -1.5561e-05 1.556e-05)
(-3.5738e-05 -1.2188e-05 1.8222e-05)
(-3.5762e-05 -8.3229e-06 2.0116e-05)
(-3.5747e-05 -4.2101e-06 2.1259e-05)
(-3.5729e-05 -1.1469e-09 2.1643e-05)
(-3.5024e-05 -1.6677e-05 4.0893e-10)
(-3.5034e-05 -1.6432e-05 3.2827e-06)
(-3.5037e-05 -1.5596e-05 6.4644e-06)
(-3.5019e-05 -1.4127e-05 9.4332e-06)
(-3.5002e-05 -1.2027e-05 1.2027e-05)
(-3.5019e-05 -9.4329e-06 1.4127e-05)
(-3.5038e-05 -6.4642e-06 1.5595e-05)
(-3.5034e-05 -3.2826e-06 1.6432e-05)
(-3.5024e-05 -5.4926e-10 1.6676e-05)
(-3.4105e-05 -1.2965e-05 3.6921e-10)
(-3.4109e-05 -1.2755e-05 2.5388e-06)
(-3.411e-05 -1.21e-05 5.0118e-06)
(-3.4092e-05 -1.0979e-05 7.337e-06)
(-3.4081e-05 -9.37e-06 9.3701e-06)
(-3.4092e-05 -7.3375e-06 1.098e-05)
(-3.411e-05 -5.0125e-06 1.2102e-05)
(-3.4109e-05 -2.5394e-06 1.2758e-05)
(-3.4105e-05 -5.8165e-10 1.2968e-05)
(-3.289e-05 -1.0279e-05 2.8335e-10)
(-3.2894e-05 -1.0068e-05 1.9728e-06)
(-3.2898e-05 -9.5108e-06 3.9268e-06)
(-3.2878e-05 -8.659e-06 5.8076e-06)
(-3.2867e-05 -7.4399e-06 7.4401e-06)
(-3.2878e-05 -5.8087e-06 8.6612e-06)
(-3.2899e-05 -3.9285e-06 9.5153e-06)
(-3.2894e-05 -1.9741e-06 1.0075e-05)
(-3.2891e-05 -6.1927e-10 1.0287e-05)
(-2.3698e-05 1.8441e-05 9.2634e-05)
(-2.0286e-05 2.078e-05 0.00010453)
(-2.3757e-05 3.6133e-05 8.7161e-05)
(-2.0358e-05 4.0746e-05 9.8275e-05)
(-2.3768e-05 5.2358e-05 7.833e-05)
(-2.0332e-05 5.9052e-05 8.8295e-05)
(-2.3759e-05 6.6566e-05 6.6566e-05)
(-2.0286e-05 7.505e-05 7.5051e-05)
(-2.3768e-05 7.8323e-05 5.2354e-05)
(-2.0332e-05 8.8288e-05 5.9048e-05)
(-2.3758e-05 8.7149e-05 3.6128e-05)
(-2.0358e-05 9.8262e-05 4.074e-05)
(-2.3698e-05 9.2619e-05 1.8439e-05)
(-2.0287e-05 0.00010451 2.0777e-05)
(-2.3659e-05 9.4467e-05 2.8386e-10)
(-2.0223e-05 0.00010664 -4.3229e-10)
(-2.7189e-05 1.5855e-05 7.9763e-05)
(-2.7239e-05 3.1102e-05 7.5071e-05)
(-2.7271e-05 4.5148e-05 6.7539e-05)
(-2.7286e-05 5.7441e-05 5.7442e-05)
(-2.7271e-05 6.7534e-05 4.5145e-05)
(-2.7239e-05 7.5061e-05 3.1098e-05)
(-2.719e-05 7.9752e-05 1.5853e-05)
(-2.7168e-05 8.1351e-05 2.7603e-10)
(-3.0411e-05 1.3332e-05 6.7313e-05)
(-3.0463e-05 2.6224e-05 6.334e-05)
(-3.0475e-05 3.8193e-05 5.708e-05)
(-3.0469e-05 4.8638e-05 4.8639e-05)
(-3.0475e-05 5.7075e-05 3.8191e-05)
(-3.0463e-05 6.3333e-05 2.6222e-05)
(-3.0411e-05 6.7305e-05 1.333e-05)
(-3.0378e-05 6.8692e-05 -1.9855e-12)
(-3.3075e-05 1.11e-05 5.6255e-05)
(-3.3135e-05 2.1892e-05 5.2895e-05)
(-3.3112e-05 3.2011e-05 4.7778e-05)
(-3.3077e-05 4.081e-05 4.0811e-05)
(-3.3112e-05 4.7774e-05 3.201e-05)
(-3.3135e-05 5.2889e-05 2.189e-05)
(-3.3075e-05 5.6248e-05 1.1099e-05)
(-3.3026e-05 5.7454e-05 1.2295e-11)
(-3.4989e-05 9.2895e-06 4.7057e-05)
(-3.5021e-05 1.8348e-05 4.4301e-05)
(-3.501e-05 2.6833e-05 4.003e-05)
(-3.4995e-05 3.4201e-05 3.4202e-05)
(-3.501e-05 4.0027e-05 2.6832e-05)
(-3.5021e-05 4.4296e-05 1.8347e-05)
(-3.4989e-05 4.7051e-05 9.2887e-06)
(-3.4966e-05 4.8037e-05 -1.8369e-11)
(-3.6096e-05 7.7968e-06 3.9445e-05)
(-3.6105e-05 1.5418e-05 3.7185e-05)
(-3.611e-05 2.2523e-05 3.3605e-05)
(-3.6112e-05 2.8706e-05 2.8707e-05)
(-3.611e-05 3.3603e-05 2.2523e-05)
(-3.6105e-05 3.7181e-05 1.5418e-05)
(-3.6096e-05 3.9441e-05 7.7966e-06)
(-3.6094e-05 4.0239e-05 -1.0891e-10)
(-3.6445e-05 6.492e-06 3.2868e-05)
(-3.646e-05 1.2831e-05 3.1001e-05)
(-3.6451e-05 1.8785e-05 2.8049e-05)
(-3.6441e-05 2.3963e-05 2.3966e-05)
(-3.6451e-05 2.8047e-05 1.8785e-05)
(-3.646e-05 3.0999e-05 1.2831e-05)
(-3.6445e-05 3.2866e-05 6.4924e-06)
(-3.6433e-05 3.3523e-05 -1.4369e-09)
(-3.6254e-05 5.2804e-06 2.6841e-05)
(-3.628e-05 1.0462e-05 2.5321e-05)
(-3.6253e-05 1.5368e-05 2.2942e-05)
(-3.6224e-05 1.9639e-05 1.964e-05)
(-3.6253e-05 2.2941e-05 1.5368e-05)
(-3.628e-05 2.532e-05 1.0462e-05)
(-3.6254e-05 2.684e-05 5.2811e-06)
(-3.6226e-05 2.7398e-05 2.3516e-10)
(-3.5747e-05 4.2085e-06 2.1257e-05)
(-3.5762e-05 8.3207e-06 2.0114e-05)
(-3.5738e-05 1.2185e-05 1.8219e-05)
(-3.5716e-05 1.5556e-05 1.5557e-05)
(-3.5738e-05 1.8218e-05 1.2186e-05)
(-3.5762e-05 2.0114e-05 8.3214e-06)
(-3.5747e-05 2.1257e-05 4.2094e-06)
(-3.5729e-05 2.1644e-05 7.9576e-10)
(-3.5034e-05 3.2814e-06 1.6431e-05)
(-3.5038e-05 6.4626e-06 1.5594e-05)
(-3.502e-05 9.431e-06 1.4125e-05)
(-3.5003e-05 1.2024e-05 1.2025e-05)
(-3.5019e-05 1.4124e-05 9.4318e-06)
(-3.5037e-05 1.5593e-05 6.4633e-06)
(-3.5034e-05 1.643e-05 3.2821e-06)
(-3.5024e-05 1.6676e-05 2.4657e-10)
(-3.4109e-05 2.5384e-06 1.2758e-05)
(-3.411e-05 5.0116e-06 1.2102e-05)
(-3.4093e-05 7.3367e-06 1.098e-05)
(-3.4081e-05 9.3692e-06 9.3702e-06)
(-3.4092e-05 1.0978e-05 7.3373e-06)
(-3.411e-05 1.21e-05 5.0121e-06)
(-3.4109e-05 1.2756e-05 2.539e-06)
(-3.4105e-05 1.2966e-05 2.0922e-10)
(-3.2894e-05 1.9732e-06 1.0075e-05)
(-3.2899e-05 3.9281e-06 9.5163e-06)
(-3.2878e-05 5.8088e-06 8.6625e-06)
(-3.2867e-05 7.4405e-06 7.4415e-06)
(-3.2878e-05 8.6605e-06 5.8091e-06)
(-3.2898e-05 9.5134e-06 3.9283e-06)
(-3.2894e-05 1.0072e-05 1.9736e-06)
(-3.289e-05 1.0283e-05 1.7699e-10)
(-2.3699e-05 9.2621e-05 -1.844e-05)
(-2.0287e-05 0.00010451 -2.0778e-05)
(-2.3758e-05 8.7152e-05 -3.613e-05)
(-2.0359e-05 9.8265e-05 -4.0743e-05)
(-2.3769e-05 7.8323e-05 -5.2356e-05)
(-2.0333e-05 8.8289e-05 -5.905e-05)
(-2.3759e-05 6.6564e-05 -6.6566e-05)
(-2.0287e-05 7.5048e-05 -7.5051e-05)
(-2.3768e-05 5.2356e-05 -7.8326e-05)
(-2.0332e-05 5.905e-05 -8.8292e-05)
(-2.3757e-05 3.6131e-05 -8.7157e-05)
(-2.0358e-05 4.0745e-05 -9.8272e-05)
(-2.3697e-05 1.8441e-05 -9.2634e-05)
(-2.0285e-05 2.078e-05 -0.00010453)
(-2.3657e-05 2.5972e-10 -9.4486e-05)
(-2.0221e-05 8.69e-11 -0.00010666)
(-2.719e-05 7.9754e-05 -1.5853e-05)
(-2.7239e-05 7.5063e-05 -3.11e-05)
(-2.7271e-05 6.7534e-05 -4.5146e-05)
(-2.7286e-05 5.744e-05 -5.7442e-05)
(-2.7271e-05 4.5145e-05 -6.7536e-05)
(-2.7238e-05 3.11e-05 -7.5067e-05)
(-2.7189e-05 1.5854e-05 -7.9763e-05)
(-2.7167e-05 -2.4706e-10 -8.1365e-05)
(-3.0411e-05 6.7306e-05 -1.333e-05)
(-3.0463e-05 6.3334e-05 -2.6222e-05)
(-3.0474e-05 5.7075e-05 -3.8191e-05)
(-3.0469e-05 4.8636e-05 -4.8638e-05)
(-3.0474e-05 3.819e-05 -5.7076e-05)
(-3.0463e-05 2.6222e-05 -6.3335e-05)
(-3.0411e-05 1.3331e-05 -6.7311e-05)
(-3.0378e-05 -4.5218e-10 -6.87e-05)
(-3.3074e-05 5.6249e-05 -1.1099e-05)
(-3.3135e-05 5.289e-05 -2.189e-05)
(-3.3111e-05 4.7774e-05 -3.201e-05)
(-3.3077e-05 4.0809e-05 -4.081e-05)
(-3.3111e-05 3.2009e-05 -4.7774e-05)
(-3.3135e-05 2.1889e-05 -5.2889e-05)
(-3.3074e-05 1.1099e-05 -5.625e-05)
(-3.3025e-05 -4.499e-11 -5.7459e-05)
(-3.4989e-05 4.7052e-05 -9.289e-06)
(-3.5021e-05 4.4297e-05 -1.8348e-05)
(-3.501e-05 4.0027e-05 -2.6832e-05)
(-3.4995e-05 3.42e-05 -3.42e-05)
(-3.501e-05 2.6831e-05 -4.0026e-05)
(-3.5021e-05 1.8346e-05 -4.4296e-05)
(-3.4989e-05 9.2882e-06 -4.7052e-05)
(-3.4965e-05 -2.4632e-10 -4.8039e-05)
(-3.6096e-05 3.9442e-05 -7.797e-06)
(-3.6105e-05 3.7183e-05 -1.5419e-05)
(-3.611e-05 3.3604e-05 -2.2523e-05)
(-3.6112e-05 2.8705e-05 -2.8706e-05)
(-3.611e-05 2.2522e-05 -3.3603e-05)
(-3.6105e-05 1.5417e-05 -3.7181e-05)
(-3.6096e-05 7.7961e-06 -3.9441e-05)
(-3.6093e-05 -2.9367e-10 -4.024e-05)
(-3.6445e-05 3.2868e-05 -6.4929e-06)
(-3.646e-05 3.1002e-05 -1.2832e-05)
(-3.6451e-05 2.805e-05 -1.8787e-05)
(-3.6441e-05 2.3964e-05 -2.3967e-05)
(-3.6451e-05 1.8785e-05 -2.8049e-05)
(-3.646e-05 1.2831e-05 -3.1e-05)
(-3.6445e-05 6.4919e-06 -3.2866e-05)
(-3.6433e-05 -1.8625e-09 -3.3522e-05)
(-3.6254e-05 2.6843e-05 -5.2815e-06)
(-3.628e-05 2.5324e-05 -1.0464e-05)
(-3.6252e-05 2.2944e-05 -1.537e-05)
(-3.6223e-05 1.9641e-05 -1.9641e-05)
(-3.6252e-05 1.5369e-05 -2.2943e-05)
(-3.628e-05 1.0462e-05 -2.5322e-05)
(-3.6254e-05 5.2807e-06 -2.6839e-05)
(-3.6226e-05 -4.7043e-10 -2.7396e-05)
(-3.5747e-05 2.126e-05 -4.2095e-06)
(-3.5761e-05 2.0117e-05 -8.3225e-06)
(-3.5737e-05 1.8221e-05 -1.2187e-05)
(-3.5716e-05 1.5558e-05 -1.5559e-05)
(-3.5737e-05 1.2186e-05 -1.822e-05)
(-3.5762e-05 8.3213e-06 -2.0115e-05)
(-3.5747e-05 4.2089e-06 -2.1257e-05)
(-3.5729e-05 -9.9029e-10 -2.1642e-05)
(-3.5033e-05 1.6431e-05 -3.2819e-06)
(-3.5037e-05 1.5594e-05 -6.4635e-06)
(-3.5019e-05 1.4125e-05 -9.4322e-06)
(-3.5002e-05 1.2025e-05 -1.2026e-05)
(-3.5019e-05 9.4313e-06 -1.4125e-05)
(-3.5037e-05 6.4628e-06 -1.5594e-05)
(-3.5034e-05 3.2815e-06 -1.6431e-05)
(-3.5024e-05 -3.7778e-10 -1.6676e-05)
(-3.4109e-05 1.2756e-05 -2.5385e-06)
(-3.4109e-05 1.21e-05 -5.0116e-06)
(-3.4092e-05 1.0978e-05 -7.3367e-06)
(-3.4081e-05 9.3689e-06 -9.3694e-06)
(-3.4092e-05 7.3363e-06 -1.0979e-05)
(-3.411e-05 5.0113e-06 -1.2101e-05)
(-3.4109e-05 2.5383e-06 -1.2757e-05)
(-3.4105e-05 -3.9357e-10 -1.2967e-05)
(-3.2894e-05 1.0071e-05 -1.9731e-06)
(-3.2898e-05 9.5124e-06 -3.9275e-06)
(-3.2877e-05 8.6595e-06 -5.808e-06)
(-3.2866e-05 7.4396e-06 -7.44e-06)
(-3.2877e-05 5.8079e-06 -8.6604e-06)
(-3.2898e-05 3.9275e-06 -9.5139e-06)
(-3.2894e-05 1.9729e-06 -1.0073e-05)
(-3.289e-05 -4.087e-10 -1.0284e-05)
(-2.3697e-05 -1.8442e-05 -9.2637e-05)
(-2.0285e-05 -2.0781e-05 -0.00010453)
(-2.3757e-05 -3.6133e-05 -8.7162e-05)
(-2.0358e-05 -4.0745e-05 -9.8274e-05)
(-2.3768e-05 -5.2358e-05 -7.833e-05)
(-2.0332e-05 -5.905e-05 -8.8294e-05)
(-2.3758e-05 -6.6567e-05 -6.6569e-05)
(-2.0286e-05 -7.505e-05 -7.5052e-05)
(-2.3768e-05 -7.8328e-05 -5.2359e-05)
(-2.0331e-05 -8.8293e-05 -5.9052e-05)
(-2.3757e-05 -8.7158e-05 -3.6133e-05)
(-2.0357e-05 -9.8273e-05 -4.0746e-05)
(-2.3697e-05 -9.2628e-05 -1.8442e-05)
(-2.0285e-05 -0.00010452 -2.0781e-05)
(-2.7189e-05 -1.5855e-05 -7.9767e-05)
(-2.7238e-05 -3.1103e-05 -7.5074e-05)
(-2.7271e-05 -4.5149e-05 -6.7542e-05)
(-2.7286e-05 -5.7444e-05 -5.7446e-05)
(-2.7271e-05 -6.7538e-05 -4.5149e-05)
(-2.7238e-05 -7.5067e-05 -3.1102e-05)
(-2.7189e-05 -7.9756e-05 -1.5854e-05)
(-3.0411e-05 -1.3332e-05 -6.7316e-05)
(-3.0463e-05 -2.6226e-05 -6.3343e-05)
(-3.0474e-05 -3.8195e-05 -5.7083e-05)
(-3.0469e-05 -4.8641e-05 -4.8642e-05)
(-3.0474e-05 -5.7079e-05 -3.8193e-05)
(-3.0463e-05 -6.3335e-05 -2.6223e-05)
(-3.0411e-05 -6.7306e-05 -1.3331e-05)
(-3.3074e-05 -1.11e-05 -5.6255e-05)
(-3.3135e-05 -2.1893e-05 -5.2898e-05)
(-3.3111e-05 -3.2013e-05 -4.778e-05)
(-3.3077e-05 -4.0813e-05 -4.0813e-05)
(-3.3111e-05 -4.7776e-05 -3.2011e-05)
(-3.3135e-05 -5.289e-05 -2.189e-05)
(-3.3075e-05 -5.6248e-05 -1.1099e-05)
(-3.4989e-05 -9.2895e-06 -4.7056e-05)
(-3.502e-05 -1.8349e-05 -4.4302e-05)
(-3.5009e-05 -2.6834e-05 -4.0031e-05)
(-3.4994e-05 -3.4202e-05 -3.4202e-05)
(-3.501e-05 -4.0028e-05 -2.6832e-05)
(-3.5021e-05 -4.4297e-05 -1.8347e-05)
(-3.499e-05 -4.7051e-05 -9.2885e-06)
(-3.6096e-05 -7.7972e-06 -3.9444e-05)
(-3.6105e-05 -1.5419e-05 -3.7185e-05)
(-3.611e-05 -2.2524e-05 -3.3605e-05)
(-3.6112e-05 -2.8707e-05 -2.8706e-05)
(-3.611e-05 -3.3604e-05 -2.2523e-05)
(-3.6106e-05 -3.7183e-05 -1.5418e-05)
(-3.6097e-05 -3.9442e-05 -7.7966e-06)
(-3.6445e-05 -6.4929e-06 -3.2867e-05)
(-3.6459e-05 -1.2832e-05 -3.1001e-05)
(-3.6451e-05 -1.8786e-05 -2.805e-05)
(-3.6442e-05 -2.3965e-05 -2.3967e-05)
(-3.6451e-05 -2.805e-05 -1.8786e-05)
(-3.646e-05 -3.1002e-05 -1.2832e-05)
(-3.6446e-05 -3.2869e-05 -6.4929e-06)
(-3.6254e-05 -5.2817e-06 -2.684e-05)
(-3.628e-05 -1.0464e-05 -2.5322e-05)
(-3.6252e-05 -1.537e-05 -2.2943e-05)
(-3.6224e-05 -1.9642e-05 -1.9641e-05)
(-3.6253e-05 -2.2944e-05 -1.537e-05)
(-3.6281e-05 -2.5325e-05 -1.0464e-05)
(-3.6255e-05 -2.6843e-05 -5.2819e-06)
(-3.5747e-05 -4.2099e-06 -2.1257e-05)
(-3.5762e-05 -8.3223e-06 -2.0115e-05)
(-3.5737e-05 -1.2187e-05 -1.822e-05)
(-3.5716e-05 -1.5559e-05 -1.5558e-05)
(-3.5738e-05 -1.8222e-05 -1.2187e-05)
(-3.5762e-05 -2.0117e-05 -8.3227e-06)
(-3.5747e-05 -2.126e-05 -4.2098e-06)
(-3.5034e-05 -3.2823e-06 -1.643e-05)
(-3.5037e-05 -6.4636e-06 -1.5593e-05)
(-3.5019e-05 -9.4319e-06 -1.4125e-05)
(-3.5002e-05 -1.2025e-05 -1.2025e-05)
(-3.5019e-05 -1.4126e-05 -9.4316e-06)
(-3.5037e-05 -1.5594e-05 -6.4632e-06)
(-3.5034e-05 -1.6431e-05 -3.2818e-06)
(-3.4109e-05 -2.539e-06 -1.2756e-05)
(-3.411e-05 -5.0117e-06 -1.21e-05)
(-3.4092e-05 -7.3363e-06 -1.0978e-05)
(-3.4081e-05 -9.3685e-06 -9.3681e-06)
(-3.4092e-05 -1.0977e-05 -7.3355e-06)
(-3.411e-05 -1.2099e-05 -5.0106e-06)
(-3.4109e-05 -1.2755e-05 -2.5379e-06)
(-3.2894e-05 -1.9735e-06 -1.0072e-05)
(-3.2898e-05 -3.9275e-06 -9.512e-06)
(-3.2877e-05 -5.8072e-06 -8.6582e-06)
(-3.2866e-05 -7.4379e-06 -7.4376e-06)
(-3.2877e-05 -8.6571e-06 -5.8058e-06)
(-3.2898e-05 -9.5092e-06 -3.9256e-06)
(-3.2894e-05 -1.0067e-05 -1.972e-06)
)
;
    }
    procBoundary1to0
    {
        type            processor;
    }
    procBoundary1to2
    {
        type            processor;
    }
}


// ************************************************************************* //
