/*--------------------------------*- C++ -*----------------------------------*\
| =========                 |                                                 |
| \\      /  F ield         | OpenFOAM: The Open Source CFD Toolbox           |
|  \\    /   O peration     | Version:  4.1                                   |
|   \\  /    A nd           | Web:      www.OpenFOAM.org                      |
|    \\/     M anipulation  |                                                 |
\*---------------------------------------------------------------------------*/
FoamFile
{
    version     2.0;
    format      ascii;
    class       volScalarField;
    location    "0.000480";
    object      epsilon;
}
// * * * * * * * * * * * * * * * * * * * * * * * * * * * * * * * * * * * * * //

dimensions      [0 2 -3 0 0 0 0];

internalField   nonuniform List<scalar> 
3072
(
75.884855
76.259416
76.894321
77.425578
78.137118
78.69448
79.260199
79.786375
80.199646
80.627623
80.673732
80.59029
80.198085
79.595327
78.809547
77.699196
76.368462
74.407833
71.893792
67.580107
59.503135
47.423506
32.249445
19.669095
62.820854
63.25868
63.82402
64.288508
64.900392
65.335516
65.801393
66.212473
66.569256
66.935766
66.994207
66.98854
66.717307
66.30911
65.731516
64.858998
63.692493
61.675625
58.373118
52.843181
44.421694
34.274608
24.630761
17.810258
46.653819
47.11446
47.674392
48.160578
48.742787
49.202161
49.702837
50.14305
50.529933
50.877985
51.021796
51.068709
50.906041
50.594517
50.085087
49.299398
48.178751
46.411505
43.798308
39.801432
34.08516
27.435974
21.132471
16.698187
36.243714
36.733695
37.283986
37.802222
38.361703
38.869163
39.394675
39.883916
40.336681
40.711411
40.970099
41.096397
41.078423
40.898355
40.517559
39.899196
38.946289
37.505385
35.433386
32.452326
28.389481
23.76518
19.355091
16.174643
29.6434
30.09368
30.568915
31.056994
31.546361
32.051098
32.541451
33.019168
33.468174
33.84884
34.160883
34.343906
34.413487
34.319073
34.038156
33.544186
32.753305
31.600005
29.979158
27.786414
24.879788
21.57235
18.328057
15.897647
25.320694
25.683709
26.07271
26.495052
26.935904
27.40677
27.892446
28.382304
28.853078
29.29224
29.664344
29.94892
30.107142
30.102237
29.902405
29.484523
28.815579
27.854472
26.561051
24.948628
22.83935
20.384362
17.807983
15.781019
23.226963
23.471341
23.785653
24.164417
24.597602
25.100664
25.656073
26.248034
26.855354
27.443983
27.97498
28.406793
28.686917
28.756559
28.591432
28.17255
27.494278
26.565747
25.404347
24.035605
22.299148
20.196185
17.802231
15.81872
25.107607
25.198783
25.440059
25.820541
26.323891
26.965024
27.750348
28.666185
29.670964
30.684485
31.617917
32.379573
32.865862
32.991964
32.709313
31.991995
30.88742
29.477326
27.844448
26.040679
23.880584
21.293978
18.483875
16.168254
62.831514
63.272615
63.839549
64.303855
64.915215
65.350906
65.823512
66.247876
66.617288
66.987631
67.042712
67.034806
66.762432
66.35325
65.775229
64.901939
63.732563
61.709039
58.397945
52.857356
44.428374
34.277241
24.631993
17.81077
46.387055
46.63457
46.949375
47.185117
47.574446
47.823579
48.152418
48.439814
48.738737
49.038131
49.155644
49.263691
49.1875
49.034481
48.719372
48.147922
47.221426
45.495323
42.604872
38.020773
31.87116
25.42633
20.108986
16.395451
30.873124
31.177859
31.547815
31.898773
32.33703
32.72274
33.163506
33.572126
33.97892
34.365486
34.639951
34.859476
34.944918
34.930282
34.760508
34.376945
33.701854
32.541134
30.755644
28.139431
24.780547
21.296007
18.189059
15.801071
23.329933
23.68928
24.10254
24.527372
24.997937
25.46818
25.962596
26.453566
26.935029
27.377846
27.751973
28.043555
28.239833
28.321747
28.259579
28.016583
27.529998
26.716089
25.496499
23.807381
21.723676
19.544118
17.372051
15.550008
19.584984
19.959226
20.373019
20.822026
21.295644
21.798953
22.309857
22.81965
23.310593
23.762427
24.15822
24.469638
24.691414
24.794938
24.761398
24.564564
24.169183
23.545175
22.650598
21.502939
20.139279
18.66132
16.965318
15.426199
17.808281
18.194229
18.622643
19.087423
19.585152
20.102549
20.633317
21.153935
21.650554
22.104878
22.500592
22.816877
23.036598
23.136384
23.09553
22.897151
22.528337
21.982656
21.263003
20.407007
19.435351
18.316465
16.81694
15.378334
18.23621
18.61845
19.05133
19.526295
20.036268
20.568889
21.108636
21.638323
22.144316
22.605135
23.001879
23.31457
23.524247
23.601079
23.523593
23.277298
22.857392
22.272996
21.550709
20.717862
19.779334
18.637043
17.007831
15.436219
23.212655
23.460021
23.773201
24.159335
24.602862
25.105699
25.657637
26.247783
26.857438
27.441582
27.965791
28.392853
28.672381
28.742597
28.578705
28.160272
27.477301
26.549086
25.409128
24.035152
22.290195
20.185986
17.801294
15.81783
46.625225
47.084429
47.638733
48.121086
48.703515
49.16507
49.673102
50.123116
50.522608
50.869175
51.00271
51.044249
50.885935
50.581875
50.078935
49.298205
48.175904
46.405468
43.790205
39.79567
34.08376
27.435286
21.134223
16.699474
30.843475
31.146162
31.51158
31.861447
32.300097
32.686419
33.126167
33.53437
33.941598
34.323959
34.594358
34.811335
34.901906
34.893619
34.730525
34.352767
33.680392
32.524105
30.74493
28.136361
24.783634
21.299861
18.190156
15.801476
20.790845
21.144003
21.551112
21.974008
22.459097
22.932754
23.433685
23.916443
24.384847
24.81786
25.167506
25.446253
25.611872
25.667986
25.584876
25.330482
24.873119
24.158046
23.169534
21.874999
20.299984
18.662592
16.984374
15.453282
16.88421
17.264914
17.694113
18.152256
18.648022
19.156315
19.680445
20.200433
20.70265
21.167364
21.56537
21.885744
22.110607
22.227139
22.214996
22.054825
21.731977
21.235126
20.568739
19.752961
18.805243
17.792057
16.574108
15.332469
15.391053
15.779185
16.209434
16.677941
17.17629
17.698112
18.231642
18.765398
19.278814
19.755292
20.172711
20.512919
20.761196
20.900038
20.912714
20.786149
20.516739
20.112667
19.58755
18.972806
18.284158
17.50607
16.433355
15.2861
15.332298
15.729923
16.171991
16.651904
17.162974
17.696957
18.242236
18.78314
19.304188
19.785468
20.206569
20.548609
20.795346
20.928149
20.930218
20.790363
20.509061
20.099305
19.582499
18.98983
18.341971
17.583843
16.468067
15.285391
17.80303
18.189717
18.620785
19.088189
19.590399
20.109303
20.635937
21.153443
21.651171
22.105947
22.499154
22.811905
23.029736
23.129208
23.089469
22.891377
22.521288
21.974972
21.266569
20.406683
19.430169
18.313407
16.816951
15.378561
25.312056
25.67574
26.066428
26.495609
26.947848
27.424032
27.904786
28.387242
28.854086
29.286863
29.653968
29.933752
30.091784
30.083678
29.879666
29.457411
28.780638
27.816928
26.562653
24.933382
22.818114
20.36815
17.798065
15.779803
36.199618
36.684848
37.228365
37.744298
38.307519
38.820184
39.349685
39.849894
40.315949
40.692791
40.947002
41.078196
41.071858
40.901492
40.528399
39.9135
38.954728
37.505893
35.429206
32.448401
28.388169
23.763327
19.356956
16.175994
23.300746
23.657871
24.067201
24.492356
24.965912
25.440291
25.935923
26.424517
26.906219
27.349119
27.723647
28.021507
28.22794
28.315371
28.257985
28.016696
27.5265
26.709335
25.490405
23.803821
21.723959
19.545164
17.372066
15.550166
16.884131
17.265839
17.694625
18.153329
18.649885
19.159566
19.685174
20.203916
20.707201
21.175148
21.577472
21.902982
22.132568
22.250018
22.237995
22.076271
21.748923
21.246988
20.577649
19.758806
18.809974
17.794918
16.574874
15.332628
14.705886
15.0977
15.533867
16.004662
16.508538
17.030234
17.566958
18.10104
18.617028
19.095284
19.514354
19.859624
20.114171
20.264753
20.295069
20.19257
19.954903
19.590771
19.119076
18.569455
17.957513
17.277312
16.334925
15.26928
14.263654
14.653835
15.087654
15.559323
16.062232
16.586847
17.125778
17.664251
18.183564
18.665773
19.091681
19.444532
19.70811
19.867717
19.908907
19.82201
19.608248
19.27951
18.855856
18.363464
17.82192
17.202673
16.297706
15.257243
15.38711
15.7753
16.205556
16.675235
17.176076
17.702057
18.237576
18.771696
19.286409
19.762656
20.181463
20.523797
20.772284
20.909323
20.919632
20.790008
20.518852
20.118755
19.599629
18.977811
18.2825
17.503445
16.432655
15.286692
19.584011
19.958272
20.371622
20.827802
21.310348
21.819599
22.328396
22.831133
23.316687
23.759856
24.150454
24.460621
24.680607
24.777912
24.735808
24.529933
24.128622
23.502654
22.632822
21.481437
20.120121
18.652615
16.962387
15.426602
29.633431
30.082641
30.556624
31.054816
31.559198
32.077544
32.567793
33.034843
33.47053
33.834518
34.139072
34.32387
34.39866
34.295442
33.99872
33.485223
32.683934
31.531173
29.950796
27.753747
24.846743
21.555107
18.31442
15.896275
29.609502
30.055538
30.52475
31.011407
31.505701
32.016757
32.509757
32.997228
33.453027
33.83978
34.158856
34.354037
34.44211
34.358949
34.085417
33.589028
32.789448
31.623149
29.992867
27.79367
24.884887
21.577079
18.330617
15.89839
19.566197
19.940163
20.351675
20.801304
21.278287
21.78604
22.297017
22.808963
23.302001
23.760366
24.165724
24.489251
24.721391
24.832064
24.803056
24.604182
24.201722
23.567384
22.667103
21.513009
20.147133
18.666126
16.966062
15.425979
15.392195
15.781646
16.212208
16.681649
17.181148
17.704703
18.239823
18.774346
19.291248
19.776048
20.203899
20.554479
20.809015
20.951011
20.963943
20.833585
20.556005
20.141171
19.606709
18.986106
18.292982
17.510695
16.434305
15.286082
14.268145
14.658455
15.092063
15.563099
16.065051
16.589322
17.128123
17.667264
18.189527
18.677247
19.109462
19.467359
19.733561
19.894476
19.935239
19.845817
19.62809
19.294709
18.866659
18.371108
17.827044
17.205258
16.298418
15.257314
14.700923
15.090684
15.525881
15.997059
16.502311
17.026503
17.565557
18.102399
18.618948
19.099378
19.521146
19.868384
20.122544
20.271729
20.298757
20.19262
19.955076
19.598003
19.131987
18.575667
17.95758
17.275972
16.334658
15.270293
16.884084
17.261765
17.688428
18.148367
18.649233
19.165195
19.694955
20.218531
20.719399
21.182922
21.583598
21.908165
22.133722
22.24815
22.22882
22.058534
21.731654
21.239736
20.589346
19.759498
18.802034
17.789341
16.573118
15.334044
23.333757
23.691099
24.10382
24.538973
25.021877
25.504226
26.000134
26.481654
26.945512
27.370537
27.738279
28.031007
28.225512
28.298803
28.218076
27.949563
27.450083
26.634144
25.448063
23.763345
21.691369
19.532062
17.368276
15.551486
36.225938
36.712559
37.26085
37.792723
38.3723
38.901227
39.434165
39.91168
40.340352
40.693301
40.948696
41.083058
41.071174
40.885153
40.481931
39.828479
38.858857
37.422994
35.394715
32.416323
28.35693
23.751437
19.336043
16.173759
25.297984
25.656532
26.04133
26.464111
26.91197
27.386447
27.874044
28.364838
28.846617
29.298759
29.688007
29.987941
30.164433
30.175181
29.981768
29.561845
28.886062
27.910566
26.605478
24.976717
22.858606
20.396841
17.81233
15.781617
17.799079
18.183873
18.612137
19.07771
19.578489
20.098339
20.628493
21.149097
21.653149
22.122986
22.534612
22.865101
23.096567
23.205362
23.169785
22.970712
22.594253
22.035121
21.300823
20.43542
19.4562
18.32979
16.821258
15.378741
15.337498
15.735629
16.177237
16.656772
17.167441
17.7014
18.247371
18.789859
19.316092
19.808388
20.243585
20.598537
20.853509
20.990832
20.994028
20.851105
20.560705
20.139346
19.611572
19.010491
18.355514
17.591171
16.470098
15.285429
15.396166
15.783515
16.212664
16.681076
17.179387
17.701274
18.236054
18.771194
19.29094
19.777273
20.207532
20.559406
20.813242
20.952805
20.962776
20.830443
20.553795
20.146149
19.619919
18.992071
18.291214
17.507171
16.433598
15.286811
16.888906
17.265455
17.692099
18.150409
18.649462
19.16208
19.693147
20.218048
20.722105
21.191624
21.598611
21.928053
22.156988
22.271928
22.252883
22.08145
21.752379
21.256939
20.602773
19.769575
18.809337
17.792587
16.574198
15.334408
20.808701
21.157628
21.562754
21.989805
22.48197
22.966282
23.475223
23.961157
24.420467
24.851686
25.203914
25.489694
25.657528
25.710961
25.613596
25.338708
24.873552
24.15987
23.201583
21.884631
20.295847
18.661333
16.983622
15.455611
30.885898
31.193425
31.56628
31.936173
32.39406
32.797725
33.243666
33.63731
34.009093
34.368238
34.637688
34.862024
34.949816
34.927504
34.725593
34.299602
33.601828
32.427663
30.689937
28.07824
24.737294
21.283146
18.184727
15.803339
46.632982
47.095006
47.653513
48.15779
48.770227
49.257785
49.773431
50.201165
50.552828
50.873897
51.020452
51.083079
50.927978
50.61539
50.079099
49.251644
48.107659
46.339844
43.77801
39.779915
34.06344
27.423518
21.107835
16.696997
23.216347
23.457318
23.768938
24.150157
24.586896
25.089374
25.642369
26.233692
26.849692
27.450903
27.998583
28.448879
28.74949
28.837059
28.682652
28.267321
27.587054
26.647163
25.468467
24.08502
22.332203
20.214812
17.808355
15.819488
18.242259
18.623415
19.055545
19.529989
20.038007
20.569019
21.107687
21.63724
22.148401
22.621837
23.034599
23.363054
23.585129
23.671668
23.600774
23.355302
22.929787
22.333428
21.595216
20.750858
19.803202
18.653049
17.01384
15.437166
17.818745
18.204993
18.635343
19.099743
19.593786
20.10881
20.633934
21.154502
21.659883
22.129495
22.540332
22.867516
23.092981
23.195187
23.155047
22.954101
22.577544
22.020947
21.300241
20.430616
19.445616
18.321563
16.819519
15.378701
19.592357
19.965279
20.377491
20.830433
21.309764
21.812784
22.325154
22.834623
23.331084
23.790287
24.197872
24.521233
24.747467
24.846366
24.802451
24.593792
24.186214
23.551184
22.670339
21.509163
20.137277
18.658454
16.963607
15.426915
23.332655
23.688453
24.100704
24.533689
25.01581
25.495984
26.002329
26.494554
26.968663
27.406899
27.786701
28.088471
28.289505
28.36379
28.282095
28.01098
27.505948
26.681872
25.487367
23.793537
21.711185
19.53975
17.370571
15.55213
30.884888
31.190299
31.565379
31.934502
32.395105
32.801458
33.254349
33.657835
34.036259
34.401895
34.674844
34.902511
34.993356
34.972597
34.772314
34.344958
33.645478
32.466727
30.724967
28.107434
24.758906
21.294619
18.188273
15.803911
46.388936
46.64607
46.97706
47.2522
47.689112
47.972554
48.316176
48.573947
48.80693
49.066253
49.183229
49.312028
49.242005
49.076409
48.706526
48.063113
47.098121
45.342517
42.461553
37.910317
31.805096
25.402827
20.101382
16.39744
62.78306
63.217767
63.785948
64.276276
64.929886
65.403269
65.89508
66.292964
66.605815
66.947808
67.018377
67.042579
66.786612
66.382773
65.773299
64.854483
63.66183
61.639806
58.351316
52.834676
44.418342
34.266933
24.600157
17.807916
25.111746
25.199201
25.434895
25.815053
26.3145
26.951175
27.733588
28.646551
29.651145
30.670521
31.618121
32.400749
32.911729
33.062012
32.799741
32.094511
30.990673
29.567309
27.912671
26.086551
23.908215
21.309427
18.488523
16.169221
23.230399
23.478741
23.789573
24.166138
24.600448
25.098
25.650673
26.243491
26.858058
27.453855
27.996118
28.441283
28.734498
28.817968
28.664544
28.247457
27.560689
26.621491
25.460134
24.070672
22.311859
20.19649
17.805801
15.819097
25.324275
25.688259
26.078884
26.502888
26.945093
27.417686
27.90172
28.392394
28.872337
29.322479
29.711174
30.00799
30.176877
30.175399
29.974781
29.549315
28.8679
27.892772
26.619438
24.974348
22.841084
20.376405
17.799919
15.780435
29.630439
30.077935
30.551175
31.048832
31.551539
32.066817
32.56841
33.049534
33.501201
33.884497
34.206749
34.406563
34.491715
34.394634
34.100468
33.586757
32.778178
31.611878
30.011276
27.797383
24.872058
21.560085
18.316048
15.896649
36.208528
36.693899
37.24258
37.774536
38.356449
38.889761
39.43958
39.937562
40.38001
40.743927
41.006899
41.148865
41.14749
40.968567
40.568775
39.915033
38.938662
37.48949
35.442305
32.448511
28.375597
23.754332
19.338066
16.17396
46.615429
47.075778
47.638788
48.144486
48.760595
49.254946
49.782673
50.227972
50.58864
50.911212
51.05404
51.116728
50.96838
50.664007
50.133187
49.307182
48.160981
46.386279
43.807547
39.797695
34.073869
27.426007
21.111367
16.697303
62.763897
63.199449
63.768965
64.25908
64.914689
65.390916
65.889722
66.294645
66.610179
66.949081
67.014104
67.035511
66.782038
66.382318
65.780086
64.864653
63.673889
61.651692
58.354585
52.833094
44.416359
34.264394
24.603078
17.807937
75.813495
76.18086
76.811562
77.357135
78.104365
78.694323
79.283481
79.80002
80.177933
80.589171
80.644516
80.585462
80.211969
79.627226
78.837483
77.712715
76.378807
74.450127
72.059427
67.704082
59.568935
47.43115
32.197127
19.66398
48.174608
80.104824
102.70041
114.94079
119.37421
121.23098
123.11496
125.18522
126.8798
128.26995
129.24121
129.93691
130.38281
130.48962
130.43232
129.99248
129.47987
128.80127
127.95891
127.05569
125.90401
124.78723
123.54186
122.35706
33.151226
54.7398
73.038519
85.083769
91.095827
93.985434
96.116664
98.030852
99.454416
100.53346
101.19095
101.54777
101.62907
101.39231
100.98377
100.26022
99.462749
98.533946
97.508207
96.460049
95.262138
94.155452
92.987566
91.944222
25.218862
40.693761
55.608401
66.324501
72.356289
75.437011
77.555632
79.328362
80.616909
81.546347
82.081056
82.293142
82.23671
81.885708
81.370625
80.62129
79.789035
78.866864
77.885692
76.920969
75.866358
74.911422
73.92912
73.066286
21.335994
32.682197
44.778983
54.079087
59.887135
63.122915
65.364172
67.146045
68.442096
69.31842
69.795275
69.896964
69.705312
69.245692
68.582003
67.751765
66.836637
65.882299
64.907025
63.989674
63.062408
62.215083
61.386378
60.658978
19.493163
27.892514
37.659332
45.64635
51.311227
54.908174
57.562905
59.588787
61.073907
62.036003
62.514121
62.543262
62.16314
61.496704
60.572056
59.510185
58.381123
57.230134
56.138622
55.105187
54.181628
53.342394
52.606001
51.968122
19.330039
25.756796
33.546762
40.223202
45.670608
49.677247
52.894501
55.341829
57.153032
58.297718
58.828678
58.761711
58.142644
57.141975
55.822346
54.369035
52.85895
51.415323
50.05517
48.865823
47.836002
46.999719
46.316548
45.835094
20.653164
26.389011
33.24314
39.020971
44.237821
48.810864
52.637586
55.736054
58.160764
59.731011
60.335815
59.962289
58.720663
56.829986
54.507001
51.994638
49.531197
47.343315
45.50151
44.072552
43.031665
42.349975
41.986467
41.928936
25.493284
32.440168
40.351506
47.192617
53.861049
60.262392
65.770726
70.455882
74.307771
76.893031
77.808736
76.933592
74.389187
70.564422
65.941032
61.002374
56.22385
52.024714
48.651615
46.15455
44.468505
43.491306
43.119689
43.290195
233.82587
228.57617
226.23975
224.10009
222.83378
222.40904
222.4018
222.10218
220.99091
218.88067
215.7544
211.69252
206.81677
201.25481
195.18338
188.74064
182.10929
175.41682
168.82015
162.45178
156.41579
150.84892
145.80184
141.41829
194.3084
193.43409
193.86517
194.03767
194.32223
194.68631
194.95625
194.767
193.8164
191.98594
189.27898
185.75348
181.51956
176.69484
171.42259
165.84172
160.08368
154.28346
148.56529
143.04417
137.81656
132.97965
128.60242
124.77071
172.74604
174.00567
176.29362
177.89466
179.0591
179.85389
180.26824
180.11896
179.21388
177.47204
174.90463
171.57214
167.57775
163.03811
158.08514
152.85447
147.46671
142.04727
136.70811
131.55368
126.67957
122.16181
118.07824
114.4893
162.27556
164.71759
168.53298
171.14798
172.87426
173.94197
174.4585
174.33384
173.42816
171.68114
169.09925
165.75506
161.75035
157.20865
152.27074
147.06718
141.72677
136.3614
131.08804
126.0051
121.20653
116.76483
112.752
109.22618
159.75815
163.3467
168.73077
172.17373
174.26893
175.50524
176.096
175.99125
175.06409
173.24881
170.54389
167.02659
162.81047
158.03105
152.84486
147.38922
141.80372
136.20467
130.71659
125.44822
120.48501
115.90564
111.77244
108.14706
164.47712
169.49771
176.67097
180.83622
183.1183
184.37938
184.96313
184.83521
183.84885
181.90115
178.97848
175.15503
170.55095
165.32506
159.64719
153.68103
147.57858
141.46804
135.49433
129.76916
124.39387
119.44282
114.98479
111.07664
177.21146
183.97835
193.3408
198.20631
200.48523
201.59672
202.06781
201.87897
200.817
198.70052
195.46653
191.17678
185.96222
180.0137
173.53935
166.74325
159.80646
152.88127
146.11482
139.63664
133.55131
127.94072
122.88216
118.44766
200.3361
209.15112
221.61058
227.65731
230.1511
231.21882
231.6756
231.52302
230.42494
228.06038
224.28069
219.13582
212.79593
205.50801
197.55561
189.21513
180.734
172.30844
164.12325
156.3382
149.07604
142.42001
136.42407
131.13746
25.495028
32.442678
40.364472
47.223435
53.894841
60.298654
65.817846
70.496341
74.343567
76.92911
77.84696
76.974043
74.424807
70.590203
65.956163
61.007336
56.221362
52.018925
48.64736
46.153029
44.469316
43.491295
43.114187
43.2849
20.655822
26.384073
33.239692
39.02599
44.253949
48.821737
52.633831
55.727264
58.151577
59.722246
60.328392
59.957443
58.717711
56.826826
54.499629
51.980753
49.513377
47.327162
45.49246
44.06957
43.031482
42.346378
41.978194
41.919951
19.332801
25.753292
33.532542
40.197564
45.637063
49.63782
52.84304
55.290991
57.105852
58.254381
58.789348
58.727318
58.115902
57.123493
55.810055
54.35763
52.844092
51.400914
50.044233
48.856361
47.825569
46.99046
46.311291
45.833374
19.491014
27.88585
37.639829
45.609833
51.276172
54.866462
57.507118
59.530857
61.020188
61.989805
62.474114
62.507016
62.130052
61.469161
60.552095
59.496113
58.368599
57.218528
56.129608
55.094723
54.168671
53.331029
52.599079
51.966594
21.331249
32.673591
44.761064
54.054931
59.868105
63.099191
65.321541
67.097996
68.400403
69.288173
69.771235
69.873861
69.682537
69.225019
68.565834
67.742076
66.831867
65.880139
64.903698
63.980342
63.048042
62.201266
61.378692
60.658012
25.213807
40.684299
55.590924
66.30691
72.345554
75.425178
77.52694
79.295162
80.588612
81.528746
82.06974
82.282343
82.22775
81.878268
81.366032
80.623636
79.799484
78.879214
77.894428
76.921665
75.860536
74.905462
73.929439
73.072845
33.140158
54.724664
73.019145
85.069807
91.085783
93.974638
96.09435
98.00599
99.437453
100.52643
101.19083
101.54988
101.63665
101.40369
100.99845
100.28534
99.50262
98.57861
97.545708
96.48563
95.27598
94.165614
93.003168
91.965608
48.15142
80.076142
102.66205
114.91061
119.34673
121.2038
123.08207
125.15356
126.85922
128.2622
129.24585
129.94999
130.40737
130.52322
130.47208
130.04788
129.55702
128.88669
128.02893
127.09931
125.92197
124.79342
123.55362
122.37585
200.3419
209.1674
221.63744
227.68765
230.17582
231.23667
231.68738
231.53008
230.4292
228.06242
224.27909
219.12805
212.77719
205.47182
197.50017
189.14266
180.65213
172.23116
164.06038
156.29062
149.04135
142.39574
136.40843
131.12889
177.21494
183.98636
193.3541
198.21909
200.49159
201.59555
202.06232
201.87365
200.81526
198.70236
195.46862
191.17382
185.94454
179.96734
173.45512
166.62314
159.66722
152.7496
146.00757
139.5554
133.49208
127.8999
122.8566
118.43406
164.48131
169.49851
176.66454
180.81941
183.09072
184.34436
184.92663
184.80312
183.82539
181.88647
178.96896
175.14416
170.52693
165.27148
159.5529
153.54657
147.42228
141.32056
135.37486
129.67866
124.32742
119.39634
114.95514
111.06039
159.75452
163.33566
168.70259
172.12706
174.2093
175.43803
176.02893
175.93219
175.01804
173.21621
170.51877
166.99998
162.77199
157.96866
152.75044
147.26247
141.65966
136.06957
130.60631
125.36269
120.41966
115.85792
111.74088
108.12896
162.27611
164.70921
168.49866
171.08424
172.78913
173.84617
174.36407
174.25078
173.36268
171.63269
169.05865
165.71147
161.69733
157.14112
152.18518
146.96404
141.61529
136.25713
130.99986
125.93176
121.14557
116.71682
112.7183
109.20559
172.75089
174.00086
176.25245
177.81116
178.94613
179.72857
180.14662
180.01317
179.13198
177.41218
174.85375
171.51762
167.5165
162.97281
158.01811
152.78483
147.39482
141.97834
136.64515
131.49463
126.62387
122.11351
118.04224
114.46624
194.31154
193.42741
193.81296
193.9324
194.1815
194.53381
194.81251
194.64637
193.72808
191.92671
189.23187
185.70239
181.46468
176.64466
171.38198
165.80619
160.04689
154.24346
148.52097
142.99316
137.76047
132.9275
128.56196
124.74407
233.81728
228.55964
226.17136
223.97029
222.66143
222.22553
222.23477
221.9702
220.90635
218.83672
215.72829
211.66308
206.78565
201.23433
195.17971
188.74467
182.10975
175.40621
168.79345
162.40806
156.36011
150.79432
145.75857
141.38882
48.152088
80.068804
102.65791
114.91173
119.3511
121.21077
123.0925
125.16285
126.86702
128.26858
129.24717
129.94806
130.4037
130.51799
130.46546
130.04063
129.5479
128.87422
128.01398
127.08363
125.9078
124.78075
123.53923
122.36235
33.138103
54.714839
73.011589
85.067796
91.092443
93.988679
96.11799
98.030206
99.459239
100.54477
101.20445
101.56043
101.64448
101.41179
101.0079
100.29528
99.510649
98.581761
97.544145
96.481364
95.270654
94.159021
92.995421
91.956623
25.211981
40.674925
55.584254
66.305738
72.354511
75.445856
77.563204
79.335429
80.627411
81.562753
82.097817
82.305532
82.246465
81.896183
81.385339
80.643224
79.815996
78.88736
77.894397
76.917536
75.85374
74.897189
73.919459
73.061173
21.333572
32.670525
44.76241
54.065335
59.890069
63.13599
65.377501
67.161417
68.463537
69.345529
69.820589
69.91556
69.717238
69.254972
68.592376
67.765884
66.850936
65.889512
64.903316
63.976348
63.042153
62.194271
61.370241
60.647808
19.493104
27.884207
37.649013
45.640477
51.326052
54.935363
57.596246
59.630407
61.122486
62.086758
62.559732
62.578628
62.18741
61.514687
60.587856
59.523779
58.389788
57.232402
56.136036
55.098692
54.17098
53.331569
52.598064
51.963829
19.330305
25.750572
33.540127
40.233963
45.707627
49.740431
52.970754
55.431378
57.250684
58.393976
58.91737
58.837794
58.203464
57.187668
55.852772
54.386752
52.864782
51.41711
50.056488
48.866833
47.836534
47.00045
46.31885
45.839464
20.654383
26.380693
33.241695
39.043955
44.300103
48.912834
52.763172
55.882145
58.317991
59.888517
60.480802
60.085133
58.813408
56.890918
54.539888
52.009424
49.53714
47.345898
45.505248
44.078787
43.040426
42.355127
41.991362
41.934886
25.497148
32.446101
40.366923
47.23114
53.924718
60.365976
65.925175
70.639256
74.505342
77.090598
77.988769
77.080911
74.493941
70.630095
65.977822
61.021328
56.232785
52.028215
48.652936
46.156116
44.471727
43.494938
43.120241
43.288552
233.8143
228.55043
226.16538
223.97022
222.66595
222.23235
222.24214
221.97762
220.91391
218.84509
215.73712
211.67158
206.79363
201.23986
195.18082
188.74123
182.10342
175.39931
168.78811
162.40556
156.36093
150.79617
145.75904
141.38734
194.30312
193.41023
193.80229
193.93242
194.1886
194.544
194.82333
194.65682
193.73701
191.93389
189.23885
185.71156
181.47781
176.65879
171.3915
165.80953
160.04833
154.24638
148.52693
143.004
137.77558
132.94173
128.57113
124.74746
172.74315
173.98693
176.24505
177.81281
178.9525
179.73554
180.15213
180.01705
179.13363
177.41218
174.85534
171.52607
167.5358
162.9998
158.04571
152.80959
147.41743
141.9993
136.66604
131.5182
126.64924
122.13512
118.05585
114.47181
162.27394
164.70502
168.49958
171.08884
172.79268
173.8452
174.35706
174.23873
173.34747
171.61675
169.04783
165.71429
161.71797
157.17744
152.23224
147.01681
141.6676
136.30351
131.0406
125.97035
121.18125
116.74495
112.73591
109.2132
159.75711
163.33941
168.70954
172.13229
174.20687
175.42451
176.00361
175.89668
174.97629
173.17409
170.48486
166.98376
162.77893
157.99879
152.8007
147.32885
141.73367
136.13925
130.66648
125.41489
120.46416
115.89181
111.76219
108.13854
164.47573
169.49289
176.65669
180.80672
183.06908
184.30849
184.87335
184.73313
183.74389
181.80256
178.89403
175.08818
170.49499
165.26571
159.57559
153.59716
147.4921
141.39402
135.44155
129.73778
124.37797
119.43494
114.97987
111.07226
177.20869
183.97138
193.32586
198.1777
200.43546
201.51903
201.95969
201.7438
200.66399
198.54176
195.31459
191.03829
185.83422
179.88737
173.41181
166.6199
159.69656
152.79561
146.05805
139.60563
133.53869
127.93742
122.88132
118.44679
200.33342
209.14129
221.58853
227.61635
230.07891
231.10387
231.51057
231.30767
230.16834
227.77898
223.99584
218.86373
212.54264
205.27415
197.34661
189.03865
180.59362
172.2054
164.0558
156.30111
149.06156
142.41762
136.42532
131.13907
25.496594
32.448493
40.376983
47.247124
53.949149
60.386061
65.929488
70.640132
74.503466
77.085242
77.97722
77.064583
74.476753
70.614195
65.964814
61.008967
56.222834
52.021158
48.647737
46.150725
44.4655
43.48996
43.117857
43.292286
20.657855
26.398096
33.262813
39.059955
44.30283
48.905127
52.758003
55.879963
58.31735
59.887592
60.479721
60.08415
58.810682
56.888096
54.535667
52.00021
49.520912
47.32651
45.483038
44.054154
43.01491
42.334234
41.971817
41.915985
19.334206
25.767017
33.552639
40.23243
45.687163
49.710706
52.954781
55.424208
57.247145
58.393216
58.917091
58.837539
58.198432
57.179369
55.842692
54.369983
52.842088
51.387213
50.023509
48.834216
47.804999
46.972709
46.297057
45.82112
19.492281
27.892497
37.655568
45.63706
51.314276
54.922256
57.592975
59.63025
61.118617
62.07655
62.5457
62.563853
62.174606
61.504329
60.578349
59.506999
58.360899
57.196452
56.101814
55.068032
54.145227
53.311238
52.581839
51.950362
21.333571
32.676774
44.771822
54.069999
59.891661
63.133908
65.382706
67.167172
68.460846
69.329912
69.798256
69.891823
69.696247
69.237586
68.580621
67.744458
66.812175
65.843746
64.864251
63.945332
63.018671
62.176421
61.355021
60.634441
25.21816
40.686077
55.597072
66.313115
72.358412
75.44367
77.56629
79.336777
80.619577
81.540967
82.067523
82.273015
82.213919
81.866049
81.356954
80.601973
79.753336
78.818287
77.834905
76.872402
75.820676
74.871664
73.896547
73.040122
33.149874
54.732398
73.030453
85.079791
91.10415
93.99658
96.1283
98.037292
99.452774
100.52367
101.17355
101.52483
101.60427
101.37012
100.96339
100.23245
99.422361
98.485254
97.45956
96.416518
95.225044
94.125394
92.964592
91.927757
48.171832
80.098707
102.69396
114.93687
119.37914
121.24283
123.12616
125.19486
126.88556
128.27099
129.23886
129.93215
130.37296
130.47792
130.41781
129.97122
129.44994
128.76989
127.9264
127.02558
125.87861
124.76776
123.52775
122.34856
200.34085
209.15799
221.61175
227.63688
230.08705
231.09406
231.48184
231.26197
230.10647
227.70204
223.90635
218.76774
212.44873
205.1903
197.27559
188.97523
180.53167
172.14328
163.9969
156.24977
149.02016
142.38784
136.40726
131.13023
177.21471
183.98047
193.33684
198.18363
200.42782
201.4925
201.91233
201.67366
200.56752
198.41743
195.16363
190.86834
185.6624
179.73128
173.27603
166.49699
159.57811
152.68063
145.95194
139.51322
133.46371
127.88338
122.84835
118.43067
164.48
169.49476
176.65771
180.8063
183.06239
184.29025
184.8376
184.67335
183.65353
181.67787
178.73487
174.90105
170.29774
165.0782
159.40491
153.43887
147.34104
141.25158
135.31314