/*--------------------------------*- C++ -*----------------------------------*\
  =========                 |
  \\      /  F ield         | OpenFOAM: The Open Source CFD Toolbox
   \\    /   O peration     | Website:  https://openfoam.org
    \\  /    A nd           | Version:  8
     \\/     M anipulation  |
\*---------------------------------------------------------------------------*/
FoamFile
{
    version     2.0;
    format      ascii;
    class       surfaceVectorField;
    location    "0.0230000";
    object      Uf_0;
}
// * * * * * * * * * * * * * * * * * * * * * * * * * * * * * * * * * * * * * //

dimensions      [0 1 -1 0 0 0 0];

internalField   nonuniform List<vector> 
1691
(
(0.774523768401984 0.000262314202202784 -3.95013816492471e-18)
(0.597834919479515 0.000872297147614289 -6.0151963157175e-18)
(0.774780325209454 0.000171356124236198 -2.66243044658185e-18)
(0.599285015603808 0.000928891520316025 -5.53202866847609e-18)
(0.775070510401859 0.000157393460881385 -3.15090495501122e-18)
(0.599586432250182 0.000928003517128292 -2.91545283808391e-18)
(0.775245871278216 0.000171587799855631 -5.37072946170861e-18)
(0.599990175059386 0.00099200264629682 -8.70589910004784e-18)
(0.775358733686082 0.000178110061635332 -4.40244729582548e-18)
(0.600178707451119 0.00102914624199491 -1.34801768060902e-17)
(0.775444509964487 0.000182874058057952 3.48322119700848e-18)
(0.600298603457446 0.00105002594604092 -3.61353239545971e-18)
(0.775522671269181 0.000185672699981026 8.5843188773224e-18)
(0.600391931918941 0.00105953535384214 2.40079061696949e-18)
(0.775600839722437 0.000188005474529999 7.18819394260047e-18)
(0.600481056987003 0.00106450809243445 1.27470310739628e-17)
(0.775681739190662 0.000190364747195289 4.03868840374962e-18)
(0.600573105687872 0.00106877154972861 1.33093386330936e-17)
(0.775766048632658 0.000192209226394591 1.18269245673067e-17)
(0.600670136141604 0.00107269391606474 -6.20444082843713e-19)
(0.775853651496853 0.000193586472912722 1.67354698478173e-17)
(0.600772118562555 0.00107530058931929 4.67269002059541e-17)
(0.775944576614347 0.000195373591414666 2.65914466670397e-17)
(0.600879442462049 0.00107788398181886 2.46142642671754e-17)
(0.776038853486318 0.000197335582733671 1.94380431732634e-17)
(0.600991864076685 0.00108175136055879 3.14615653523948e-17)
(0.77613499920087 0.00019879032771419 -4.69484315533155e-18)
(0.601108589696324 0.00108482126493047 -1.21047875584645e-17)
(0.776234197921076 0.00020006066450292 -1.04325883300846e-17)
(0.601229517738685 0.00108717732436445 -1.24131779589676e-17)
(0.776337802919059 0.00020153916903456 -2.45808248463847e-17)
(0.601356246861369 0.00108978838076043 -2.97835178178999e-17)
(0.776444731228108 0.000203082055054406 -2.46118418686326e-17)
(0.601488984505459 0.00109274333781546 -2.44605104797919e-17)
(0.776553734220694 0.000204481505252307 -1.87292376978303e-17)
(0.601626360769698 0.00109549153198815 -6.92899019612862e-17)
(0.776666158447887 0.000205893773580825 -1.86329489308986e-17)
(0.601768459639829 0.00109801429711989 -5.06466328894686e-17)
(0.776783961276706 0.00020730083914216 -1.22828623696417e-17)
(0.601917550033113 0.00110091632551836 -2.77387233393429e-17)
(0.776905004113983 0.000208652737924322 -1.69798391814873e-17)
(0.602073637132428 0.00110342814114258 -1.88161528488826e-17)
(0.777029067956763 0.000210134020230149 -2.82846949072533e-19)
(0.602234875319014 0.00110606778529374 -5.12175699909413e-17)
(0.7771587540614 0.00021156035256577 9.49246697225652e-18)
(0.602403138781736 0.00110906760672934 5.06558798581458e-17)
(0.77729400049209 0.000212895427981951 -2.00379800813848e-17)
(0.6025800076867 0.0011116270893136 -8.3137476398178e-18)
(0.777433138094286 0.000214507187823051 -1.45233026965219e-17)
(0.602764722398421 0.00111432860052244 -4.92363318628986e-17)
(0.77757634845061 0.000216354568273192 2.1757690487735e-17)
(0.602956262904856 0.00111770681122607 1.39292753333899e-17)
(0.777726060489893 0.000217828737916988 3.21377426040845e-17)
(0.60315641631778 0.0011212141588555 7.60650281960443e-17)
(0.777882377242535 0.000219090354149494 2.1156364066478e-17)
(0.603366713908921 0.00112354172126448 6.64626442427769e-17)
(0.77804462499811 0.000221109383341619 -1.21427120807946e-17)
(0.603587150225182 0.00112635089804396 2.75953928719949e-17)
(0.778213632260298 0.000223352978264196 -3.08747292644845e-17)
(0.603817820495846 0.00113108986738576 -3.5167305491855e-17)
(0.778388706792763 0.000225103408867325 -2.14134899684627e-17)
(0.604058977869951 0.00113466442748497 -4.40539265388213e-17)
(0.778570563303373 0.000227158893966283 -3.22260249147952e-17)
(0.604311446693761 0.00113788505952304 -4.16873291882355e-17)
(0.778760193728614 0.000229775528122221 -1.87450117059292e-17)
(0.604576208949531 0.00114247737061636 -5.44067212773352e-17)
(0.77895791499863 0.000232098335335093 -2.20165500469726e-17)
(0.604854112098298 0.00114749094264106 1.99702673009082e-17)
(0.779164101139104 0.000234117013112936 -4.72766250737476e-17)
(0.605145509809678 0.00115121807695956 -5.84514384868649e-17)
(0.779380176851647 0.000236981761443892 -1.41734410012669e-17)
(0.605452429559039 0.0011552625628074 -3.88348608642937e-17)
(0.779608458884185 0.000240028150399549 -1.12148481846346e-17)
(0.605776707257196 0.00116176111488736 -9.01008837927424e-18)
(0.77984752441766 0.0002425069152364 -2.47300506482062e-17)
(0.606118901471051 0.00116645094543639 -7.84272664890012e-17)
(0.780098499146378 0.000245780509492529 1.58308424210375e-17)
(0.606479958532092 0.00117111058718044 -2.5979073766182e-17)
(0.780363961531578 0.000249782596146415 2.19305198603058e-17)
(0.606862321914039 0.00117844424021585 8.64512010821391e-17)
(0.780643080283065 0.000253404985034489 6.84655090932583e-18)
(0.607267285694194 0.0011854961122512 6.54896516973539e-17)
(0.780935948725702 0.000257305659868361 7.43214370467825e-18)
(0.607695099466562 0.00119164849700401 2.74056261134764e-17)
(0.781244648480102 0.000262563489894603 8.18441944063671e-18)
(0.608148630658303 0.00119960306053612 2.39980161585729e-18)
(0.781572263449657 0.0002676647151246 7.97323494273346e-17)
(0.608630437637345 0.00121019465030467 2.61433366986049e-17)
(0.781919462702881 0.000272082939116766 1.11673056067651e-16)
(0.60914260285883 0.00121776927472299 2.21574480660211e-16)
(0.782287278418099 0.000278698243572054 1.37530683446972e-17)
(0.609689911679981 0.00122607913456756 1.29723957048768e-16)
(0.782680063745167 0.000286167592527672 -7.00849134343798e-17)
(0.610273848823176 0.0012408252972799 -2.90996321222623e-17)
(0.783098337339021 0.000292423742707783 -4.11916269637811e-17)
(0.610897660176301 0.00125200648123463 -1.78825814282729e-16)
(0.783543847841288 0.000300298722806857 -5.55397636539294e-17)
(0.611567413283484 0.00126279397028929 -5.44602437708124e-17)
(0.784020028196644 0.000310422438346085 -1.29088412579686e-16)
(0.612285314774315 0.001279211992426 -1.65869824727094e-16)
(0.784531492150997 0.000319844643021921 -7.58009048441789e-17)
(0.613056782832851 0.00129731072452903 -2.1018357638471e-16)
(0.785081201480827 0.000329090065406941 3.12702296125661e-17)
(0.613888346689364 0.00131154907052905 -1.93336449551223e-17)
(0.785672030973152 0.000342686258211996 8.65366443432286e-17)
(0.614788891643576 0.00132895039493343 1.69376036515482e-16)
(0.786311548107761 0.000357196925230402 7.55586091076572e-17)
(0.615763089209839 0.00135724232340155 1.37204713580735e-16)
(0.787000912190241 0.000369598783175179 6.06582279008563e-17)
(0.616816780529748 0.00137771032605801 1.03371923702105e-16)
(0.787745630801993 0.000386721255446581 7.68971930661616e-17)
(0.617965595865965 0.00139901400168705 1.35882403127384e-16)
(0.78855659583349 0.000407108487190292 7.50136338645206e-17)
(0.61921649861558 0.00143453399972988 1.66642669021369e-16)
(0.78944019959531 0.000425095626554445 4.97907847063844e-17)
(0.620580604099306 0.00146629796175586 7.71157334023719e-17)
(0.790404035510813 0.000445314064525345 5.79154434458808e-17)
(0.622077527658065 0.00149393945891539 6.58994464436936e-17)
(0.791457805765308 0.000472643086555431 6.27212713665327e-17)
(0.623723691068428 0.00153251003507623 1.12497548447274e-16)
(0.792615876800962 0.000499253875769027 1.46963822532171e-17)
(0.625532239381816 0.00158242499394031 3.90870891314906e-17)
(0.793890644594549 0.000522654979988359 -3.08591275659544e-17)
(0.627523860893031 0.00161841438898266 -2.79546828674555e-17)
(0.795292859860899 0.000558397553885875 -3.62001485352941e-17)
(0.629741416984178 0.00165787567522005 -4.74803490627429e-17)
(0.79684740646369 0.000597329385191582 1.25638935737003e-17)
(0.632197369561421 0.00173162260615312 -4.89569275538172e-17)
(0.798569043723692 0.000627638016570078 3.03476750527216e-18)
(0.634915667630667 0.00178049021719348 5.49808905184314e-17)
(0.800485135899463 0.000667414139303374 1.66407081332839e-17)
(0.637969525855442 0.0018265133703409 -4.37887041198437e-17)
(0.802621047102797 0.00071687321079508 3.21370156465306e-17)
(0.641384063009229 0.00190262420951252 7.97866994105851e-17)
(0.805009217169752 0.000759587461743911 -3.47916301433317e-17)
(0.645202932737003 0.00197664019376951 -2.13954145465698e-17)
(0.807689787174568 0.000800855373491233 4.83042065629373e-18)
(0.649495339670421 0.00202992578305614 -1.06624314501285e-17)
(0.810705600709994 0.000860772570608913 3.52855347350683e-17)
(0.654377588692111 0.00209760687151749 1.2639219301539e-16)
(0.814103700336471 0.000917488224241457 -7.29770899920073e-18)
(0.659861678599063 0.00220125570953293 1.00336023971721e-17)
(0.817983909733749 0.000958171966800123 -5.83396950693065e-17)
(0.66610283129356 0.0022549602107265 -3.53496678420206e-17)
(0.822433011585462 0.0010390343470132 -8.80881130502889e-17)
(0.67326753887882 0.00231293124416706 -1.2899255420793e-16)
(0.827625151307402 0.00114633246579661 -4.07017223520316e-17)
(0.68164906330275 0.00247668700019601 -1.26446534487921e-16)
(0.833619467297393 0.00121695141486331 1.43279672504876e-17)
(0.691145767819172 0.00259900305752667 -7.48611071146002e-18)
(0.840549458221745 0.0012784008605239 1.07906544279278e-17)
(0.702504041491534 0.00264836950827767 6.42195250771018e-17)
(0.848276095243427 0.00128192069428088 -2.45657484899968e-17)
(0.715003580850831 0.00269334765161651 -2.03000083638366e-17)
(0.857092102072478 0.00121108611141338 -1.33940348810318e-17)
(0.729841518632745 0.00253665301189471 -5.23069541209717e-17)
(0.866707608084665 0.00107677026826766 6.82015615949496e-18)
(0.745429666187606 0.0023076545540457 -5.9694870325007e-18)
(0.877847195750057 0.000899374711809718 -1.87637547937446e-18)
(0.764683656189835 0.00191849696587913 4.41677093466051e-18)
(0.889757189494769 0.000642719012725318 -6.30332880764132e-18)
(0.78324972162752 0.00148187908078132 -3.06250335928788e-17)
(0.904082143509426 0.000473430120165078 -1.2671690452505e-17)
(0.808883155747249 0.000898131800326743 -1.32708328005812e-17)
(0.919010288199998 0.000165970732422236 -1.97794688388449e-17)
(0.830334364117405 0.000511195960034218 -3.45010989600968e-17)
(0.938583372692516 2.16799272256708e-05 -1.35052750661195e-17)
(0.86630729016304 -0.000299497411420068 -4.72938938816797e-17)
(0.958805048818815 -0.000231812491987446 3.62493399440342e-18)
(0.891461387681764 -0.000578753050149412 -1.25383164128032e-17)
(0.985489518558913 0.000137354172260082 2.42725343598064e-18)
(0.948370340662261 -0.00108475510074387 2.19751016915627e-17)
(0.981629941880789 1.31242044946378e-05 -8.66838034103852e-18)
(0.966539131667295 4.7545249213961e-05 -1.6113646838137e-17)
(0.981821304675266 4.27141522997755e-05 -2.66548253604441e-18)
(0.952442969229235 -0.000212607022140244 -2.4128920052205e-17)
(0.979105956322843 -4.52171975908548e-05 1.99093612562718e-18)
(0.956617458426856 -0.000114437639479213 7.76798874078165e-18)
(0.977600580760661 -4.53990007152051e-05 -4.66213982581853e-18)
(0.948455033521881 -0.000232403819721375 1.40161150340185e-19)
(0.974889917884929 -9.32467155586491e-05 -4.1767066163923e-18)
(0.94701770391927 -0.000218808134647393 -1.34753677375366e-17)
(0.972569227940171 -0.000115483576745224 1.13604041461327e-18)
(0.940789249818792 -0.000279784980630728 5.00312911935803e-18)
(0.969772133864785 -0.000142542715367112 1.76893938068637e-20)
(0.93701829487369 -0.000289945141332801 -3.09416619643995e-19)
(0.967115291862119 -0.000162466179680015 -1.40397776898921e-18)
(0.931434800904907 -0.000321332677982422 -2.70949050567674e-18)
(0.964315941397561 -0.00017604883493663 -5.41949359005279e-19)
(0.926813674682085 -0.000329185882128897 -3.13053729767337e-18)
(0.961631138650584 -0.000182081761825822 3.01049300757017e-19)
(0.921590288039745 -0.000342736476327694 9.51556063684591e-19)
(0.959018887992116 -0.000183948616086686 -3.91266998784426e-20)
(0.916947174327016 -0.000334280246361394 2.53697296243679e-19)
(0.956597623398045 -0.000181292012121377 -1.22145361330464e-19)
(0.912267021613908 -0.00031793855164233 -3.76876196305103e-19)
(0.95472991685618 -0.000109189796511494 -3.92168335417919e-20)
(0.908189770068241 -0.000308147877035111 -8.67477119321832e-20)
(0.905774177751704 -0.00022116128476009 -6.48877048464028e-20)
(0.421431353394898 0.00179900874100459 -7.61164144825382e-18)
(0.28013447678703 0.0027809586190381 -8.13058544163878e-18)
(0.422421275313214 0.00189023922099159 -5.79302626909788e-18)
(0.283012046978736 0.00305290988330177 -1.14701537339714e-17)
(0.423103268446174 0.00196973055217361 -8.50398320843477e-18)
(0.283648942514032 0.00322177260216307 -8.84429031731643e-18)
(0.423488628113143 0.00206655483406277 -1.68718720402047e-17)
(0.284279939492388 0.00343813192354207 -1.04437142539203e-17)
(0.423701773367223 0.00212283903694955 -1.27049382315994e-17)
(0.284551406470979 0.00356502858921467 -1.3226900276563e-17)
(0.423843778202636 0.00215026323488711 -4.71648644038035e-18)
(0.284707879678981 0.0036260018144447 -2.65185655468595e-18)
(0.423964061732283 0.00216246059252648 6.57692343855944e-18)
(0.284821028762581 0.00365099556506334 2.95316686458594e-18)
(0.42408253039094 0.0021692486046531 1.89151959250554e-17)
(0.284926168132991 0.00366136019304771 2.56867345678953e-17)
(0.424206533429541 0.00217468024833472 8.63852764929016e-18)
(0.285035335185431 0.00366774217397506 2.83975735255223e-17)
(0.424337746367123 0.00217902717526025 3.44672758163889e-17)
(0.285152706677476 0.00367291427914095 -1.37311559312865e-17)
(0.42447532560613 0.00218263574309207 5.47011574957651e-17)
(0.285277991214638 0.00367660917767535 7.3249614802745e-17)
(0.424619338138014 0.00218691192429989 2.95102999960253e-17)
(0.285410585552105 0.00368031376651092 4.70610306790309e-17)
(0.424770644796449 0.00219144032095156 -2.50574570744699e-19)
(0.285551414130806 0.00368523972690448 2.09482371731337e-17)
(0.424928283975866 0.0021951086885718 -1.98791184869685e-17)
(0.285700511059691 0.00368942188295094 -4.40909162903687e-17)
(0.425092423104532 0.00219844465466469 -3.18808355911693e-17)
(0.285857019229028 0.00369265154239354 -2.35961535714224e-17)
(0.425264209108552 0.00220207814302286 -2.96690166447655e-17)
(0.286021947359042 0.00369602134551271 -3.46547130442388e-17)
(0.425443633460997 0.00220577655597345 -6.94004710479952e-17)
(0.286196196197186 0.00369974005606918 -4.32994509624257e-17)
(0.425630153408075 0.00220921872984827 -1.01449614006428e-16)
(0.28637922084604 0.00370321125085264 -1.35536000918759e-16)
(0.42582465223418 0.00221268969940252 -5.98382597975432e-17)
(0.286571030877345 0.00370638894629761 -1.00981891849694e-16)
(0.426028511532271 0.00221612214420669 -3.43246453130797e-17)
(0.286773430820927 0.00370976129589877 -5.26376229665347e-17)
(0.42624090763184 0.0022194113366329 -5.32546613988087e-17)
(0.286986737821651 0.00371278872870155 -3.28759157049827e-17)
(0.426462150743568 0.00222292629739392 -2.27665707178955e-20)
(0.287210013577466 0.00371588913075897 -6.27289945102777e-17)
(0.426694066270708 0.00222636399883612 3.27752204773567e-17)
(0.28744502705986 0.00371921639117095 6.96510981976938e-17)
(0.426936774543475 0.00222963577251167 -3.7673963024712e-17)
(0.287693066620023 0.00372206612154426 -1.8243781955764e-17)
(0.427189861381063 0.00223337926997714 -2.06376620177924e-17)
(0.287953672166093 0.0037250604617498 -8.88782904278919e-17)
(0.427454410783736 0.00223754138556342 6.85469191980053e-17)
(0.28822712494375 0.0037288179115184 4.72972671405334e-17)
(0.427732110172766 0.00224104327093318 1.10603953238392e-16)
(0.288515582037136 0.00373250176038222 1.1181449235682e-16)
(0.428022819609719 0.00224416235386562 7.29511794804921e-17)
(0.288819694404856 0.00373481907560957 9.91156252891279e-17)
(0.428327181123722 0.00224866669480125 4.44527653800653e-18)
(0.28913926680471 0.00373776031053624 5.24798261584818e-17)
(0.428647175020102 0.00225360801431966 -4.84228709609438e-17)
(0.289476570921769 0.00374272411234545 7.23964224853839e-18)
(0.428982448296899 0.00225767071722237 -6.44446976188768e-17)
(0.28983270868673 0.00374648643937378 -1.00878176546982e-16)
(0.429333695397674 0.0022622984800201 -6.39951526186393e-17)
(0.290207341013771 0.00374969277259497 -8.42128007160697e-17)
(0.429703154427227 0.00226795492052797 -1.54611441230266e-17)
(0.29060245465525 0.00375444165465457 -7.64128495816431e-17)
(0.430092076465737 0.00227305504481226 -1.66872131541064e-17)
(0.291020698269593 0.0037595862992319 8.84497428410539e-18)
(0.430500721743612 0.00227758546815388 -4.99565031587635e-17)
(0.2914622888868 0.00376310249165146 -7.97515158766882e-17)
(0.430931326231124 0.00228371240735441 -3.3629578575918e-17)
(0.291928287951179 0.00376706441240367 -2.79847768245069e-17)
(0.431387392952234 0.0022901819901823 -7.66140758337671e-17)
(0.292423031435463 0.00377355030362423 -5.35909574616228e-17)
(0.431868526414436 0.00229558221084611 -7.96462245305605e-17)
(0.292948236170589 0.00377807858515698 -1.22133788153933e-16)
(0.432376538402835 0.00230252264860342 4.50869329718616e-17)
(0.293503601188341 0.00378245266780251 -5.35577273220993e-17)
(0.432915679663754 0.00231088599018562 1.30206442510833e-16)
(0.294093782669412 0.00378983535164803 1.91608895414708e-16)
(0.43348701637371 0.00231852769887873 8.6109385201326e-17)
(0.294722620969223 0.00379696020630858 1.4356487981781e-16)
(0.43409167962782 0.00232672786007808 2.23208745345846e-17)
(0.295390197800747 0.00380284386276551 5.2804272763879e-17)
(0.434734079961556 0.00233758087507577 2.04723142358261e-17)
(0.296099947854584 0.0038110224604144 1.07487944182983e-18)
(0.435419306429061 0.002348102339685 1.68902455213827e-16)
(0.296858992584547 0.00382198848368479 3.71882209760282e-17)
(0.436148591521928 0.00235729296268885 2.39568262792921e-16)
(0.297670080943583 0.00382921996682922 3.16597547707963e-16)
(0.43692612546141 0.00237083226468105 8.64251867236455e-17)
(0.298535169158343 0.00383761846277134 2.16543961880047e-16)
(0.437760395317116 0.00238605939598853 -1.38569835726369e-16)
(0.299463778272884 0.00385325973255095 1.48744109589411e-17)
(0.438653632055364 0.00239884442106028 -1.91914864581849e-16)
(0.300462670678711 0.00386483011393085 -3.01042245865912e-16)
(0.439610397231232 0.00241482453530689 -1.6546974893619e-16)
(0.301533851066748 0.00387553265337808 -1.67487757439879e-16)
(0.440640328358606 0.00243529001692668 -2.47387015836121e-16)
(0.302686276596635 0.00389324233034883 -2.65489199459079e-16)
(0.441751771688419 0.00245422430600814 -1.53053617936583e-16)
(0.303933402447715 0.00391269281492351 -2.88899692323802e-16)
(0.442950177212659 0.00247277000088968 1.19766934068396e-16)
(0.305281036144863 0.00392685685060361 -3.54413105808514e-17)
(0.44424636446664 0.00250005720502468 2.201506800487e-16)
(0.306736799175472 0.00394568288168061 2.55784794484133e-16)
(0.445656772901029 0.00252901697091143 1.65025841181848e-16)
(0.308322322670224 0.00397686734783892 2.09500899108377e-16)
(0.447187491727479 0.00255353771514379 1.78959677318545e-16)
(0.310050038808003 0.00399849106008964 2.55149524453004e-16)
(0.448852519421912 0.00258742459858773 2.26036830627876e-16)
(0.311927117953339 0.00402097038969708 2.07836385174708e-16)
(0.450676352391443 0.00262769207294533 1.68459761634283e-16)
(0.313981317826329 0.00406044549481859 3.26818184106483e-16)
(0.452674504115392 0.00266256176948704 9.32386963751698e-17)
(0.316239512438876 0.00409501162827567 9.69272568535473e-17)
(0.45486486842853 0.00270156009479335 1.20827548368042e-16)
(0.31871530259115 0.00412304569310599 1.35367589322903e-16)
(0.457277337658637 0.00275459178707852 8.85086286725659e-17)
(0.321437095546161 0.00416534064149703 1.71940316255645e-16)
(0.459945333724338 0.00280507024321733 -3.96385436434903e-18)
(0.324452504027718 0.00422008212576643 2.56142039196753e-17)
(0.462894164551849 0.00284836242885416 -4.47080276488515e-17)
(0.327791489221056 0.00425507613788266 -5.66400492124957e-17)
(0.466162574090975 0.00291583852232719 -6.02816045960024e-17)
(0.331481822382378 0.0042961883303574 -4.65850235168426e-17)
(0.469813207752074 0.00298823677598138 -5.93711180985948e-18)
(0.335604030507718 0.00437620011071342 -9.78077406414276e-17)
(0.473882658521934 0.00304117975413459 7.54453424852025e-18)
(0.340214653475844 0.00442420990709988 6.85672526936011e-17)
(0.478431160668984 0.00311114573014872 2.01616705910047e-17)
(0.345357753573246 0.0044645602164305 -4.77823880336306e-17)
(0.483542484600206 0.00319837777245152 2.55712356277669e-17)
(0.351125472815893 0.00454142067601341 1.04641868480023e-16)
(0.489297690320483 0.00326797499150053 2.85594655205655e-18)
(0.357641654357991 0.00461131610174321 -4.54269184426213e-18)
(0.495785550279279 0.00333113277333437 1.12019565233783e-16)
(0.364971249814068 0.00464797719870271 7.63432536689412e-17)
(0.503130814207272 0.00342708865924404 1.00368012595889e-16)
(0.373267545106642 0.00470163092137819 2.05354333511639e-16)
(0.511483835458332 0.00350923293317482 -1.837738487373e-17)
(0.38267420459507 0.0047916845311628 6.55997352645771e-18)
(0.521018690231334 0.0035552059035619 -1.06815102097552e-16)
(0.393457466672886 0.00480594128451388 -6.91824411505933e-17)
(0.531972939141186 0.00367540044260285 -1.67461039123557e-16)
(0.405648386422041 0.00482904107468645 -1.95049171840894e-16)
(0.544734076522199 0.00383712109699717 -9.23217683970263e-17)
(0.41996157099489 0.00497302648192514 -2.17968243966987e-16)
(0.559553817660574 0.00390942437933437 4.30714063862404e-17)
(0.436391050796664 0.00505543790706025 -1.54411469599486e-17)
(0.576697979644006 0.003930561648688 3.24088860042493e-17)
(0.455954610776359 0.00501159387467216 1.24834925275374e-16)
(0.596257789355039 0.00379760933456809 -4.8352037964638e-17)
(0.477726365164527 0.00492450528345318 -1.4692550246253e-17)
(0.618478028241581 0.00347589722031101 -4.44271681803266e-17)
(0.503834444189012 0.00451719591551391 -5.47773244031852e-17)
(0.643268373021872 0.00297850913437289 -8.25826036619035e-18)
(0.531203348122191 0.00399032832867927 -1.45002965273912e-17)
(0.671216543201329 0.00235298126364955 -2.46697464761836e-17)
(0.565118685288798 0.00315655591831833 8.88937587425212e-18)
(0.702090349713972 0.00154057528200112 -3.72879038219627e-17)
(0.597770458672943 0.00228895491939504 -8.67518390955038e-17)
(0.737362987117033 0.000838784892077284 -3.52821029217044e-17)
(0.642380918982721 0.00110117662711983 -2.63537812831297e-17)
(0.776666257340263 -0.000163037324146816 -6.19138952670707e-17)
(0.680206541552052 0.000246992368805688 -5.37344937708199e-17)
(0.82341236761808 -0.000916268141000397 -4.54100764320349e-17)
(0.742853169225609 -0.0013865784699475 -6.82300028541073e-17)
(0.877429356531728 -0.00176744713468035 6.48827273653049e-18)
(0.786168497068147 -0.00208321215744056 -2.46041026634475e-17)
(0.938193052470721 -0.000704486764227134 2.99992322605838e-18)
(0.884342116273545 -0.00325841069537077 5.21199082846366e-17)
(0.933346778850357 -0.000158370187295877 -3.14382830578898e-17)
(0.915605965440805 8.61410692121385e-05 -3.14923338919118e-17)
(0.930193330789939 -0.000127829757118824 -1.3546335256873e-17)
(0.890737676551608 -0.000331042309580162 -4.88906710012817e-17)
(0.924559400712471 -0.000251081220917397 5.87696543124735e-18)
(0.897591442609414 -0.000173715148694275 1.54469081522132e-17)
(0.919098513980178 -0.000259128503283784 -8.70523028600331e-18)
(0.883115197793478 -0.000357282906522499 2.22933097010595e-19)
(0.912462878576135 -0.000328813378086148 -4.22893165431711e-18)
(0.880300967857619 -0.000334092312025764 -1.67048329400038e-17)
(0.905751263282549 -0.000363883916170775 3.53288351777746e-18)
(0.869201170552135 -0.000429716470262964 1.30917772879979e-17)
(0.898545433637747 -0.000402854049376359 -3.0407283643783e-18)
(0.862394970078004 -0.000443734422804729 -2.87824775744815e-18)
(0.891335182409789 -0.000429864793445644 -4.43457430553628e-18)
(0.852444385174294 -0.000492843080575043 -5.42549352280893e-18)
(0.884041762544326 -0.000446324264493652 -1.62213598323393e-18)
(0.844219082887203 -0.000504922023582213 -6.23369728232655e-18)
(0.876924972914736 -0.000448673883787381 9.01898888570921e-19)
(0.834924410418514 -0.000525198397221765 1.85450159422579e-18)
(0.870107182853553 -0.000438332287044936 -8.59377485963778e-20)
(0.826629673483937 -0.000512802348673559 1.39087888569096e-18)
(0.863779591563762 -0.000424489758068144 -3.40850146876606e-19)
(0.818354282983246 -0.000488417137588285 -1.32123546427143e-18)
(0.858580644115687 -0.000298784105510428 -1.12813521320639e-19)
(0.811143967227092 -0.000484133018791159 -2.17782491061626e-19)
(0.80496836395456 -0.000308171044298032 -1.00935130870042e-19)
(0.141030281788938 0.00395752142350084 -1.20136821843464e-17)
(0.035348220659985 0.00511385048251402 -1.00393724231202e-17)
(0.142849263124561 0.0044099176075042 -1.45516163422545e-17)
(0.0389464825968453 0.00547949808232712 -1.53836394952431e-17)
(0.143777604233696 0.00476362183856572 -1.07964261655086e-17)
(0.0397254765192964 0.0061085885105428 -1.82818105195397e-17)
(0.144239492482361 0.00501710259957932 -6.76436143478608e-18)
(0.0403771485854798 0.00655969082734403 -5.09770589902482e-18)
(0.144467896956196 0.00515178683117525 -3.11443230981201e-18)
(0.0406250583661484 0.0068050351868703 9.89949421884386e-19)
(0.144604948293157 0.00521155051505266 5.06742076702454e-18)
(0.040753296922263 0.00691494745219533 3.66359595968898e-19)
(0.144714528149573 0.00523526532195164 2.21707122284269e-17)
(0.0408388364683666 0.00695774152532457 9.8421774354342e-19)
(0.144821829283542 0.00524555584042285 3.52368264204125e-17)
(0.0409176462428717 0.0069736239454445 2.60411777833317e-17)
(0.144936130325019 0.00525194872247164 5.92686697485391e-18)
(0.0410017923810317 0.0069813559047877 4.88979724777396e-17)
(0.145059718608304 0.00525670987786166 2.52066013078182e-17)
(0.0410956468466007 0.00698681775858383 -2.38427261271949e-17)
(0.145191856433029 0.00526071593432773 6.5591623438446e-17)
(0.0411990656047352 0.00699083393924966 7.9611530649402e-17)
(0.14533274162677 0.00526531928826623 3.84731073777821e-17)
(0.0413113786876388 0.00699485647188217 6.68107699341214e-17)
(0.145483465636993 0.00527012987303291 -2.31212627434839e-17)
(0.0414337833880837 0.00699986943850071 2.35890888211761e-17)
(0.145643452855257 0.00527406802140593 -4.78601266351106e-17)
(0.0415666919825942 0.00700419974909731 -4.46000817859066e-17)
(0.145812567734456 0.00527756151093422 -2.63764290135409e-17)
(0.0417092625543005 0.00700758207177767 -3.14420460224875e-17)
(0.145991844520125 0.00528124706292437 -4.83701143831859e-17)
(0.0418621758734843 0.00701096095483786 -4.02246810799375e-17)
(0.146181746525617 0.0052849366701823 -1.09792567921057e-16)
(0.0420265008959218 0.00701454418076545 -9.81355684646369e-17)
(0.146382130864436 0.00528831731294253 -1.35098391688586e-16)
(0.0422022290593255 0.00701781673508105 -1.81621627889929e-16)
(0.146593762023223 0.00529161022010586 -9.37760678966753e-17)
(0.0423894794696553 0.00702073518179131 -1.58056725334286e-16)
(0.146817806270756 0.00529477932497718 -5.11953777645678e-17)
(0.0425896838468398 0.00702368733701966 -7.15719524011293e-17)
(0.147054074549062 0.00529776113796095 -4.23900112521256e-17)
(0.0428033608444702 0.00702624266237224 -4.12775966463004e-17)
(0.147303155373463 0.00530085128477024 7.30572345992812e-18)
(0.0430302235664561 0.00702874597034343 -3.93572996706762e-17)
(0.147566603884554 0.00530377552717689 1.83593578136086e-17)
(0.0432718588291894 0.00703132466368063 6.62372903116459e-17)
(0.147844747646214 0.0053064906268427 -6.97332500075046e-17)
(0.0435293913322911 0.00703338077561761 -2.98743675141121e-17)
(0.148137822826042 0.00530961842130463 -2.05808647515432e-17)
(0.0438027711716701 0.00703546155042658 -1.12409778037857e-16)
(0.148447385881378 0.00531304345044502 9.08065488274968e-17)
(0.0440929479703613 0.00703812646697291 7.16422648041334e-17)
(0.148774874854867 0.00531568365260332 1.0026046405138e-16)
(0.0444020733584518 0.00704055736206615 1.11120127215022e-16)
(0.14912015513449 0.00531789891190554 7.85308679320929e-17)
(0.0447305522185808 0.00704160636132983 1.01283328120013e-16)
(0.149484586554997 0.00532141849939621 5.52937549052607e-17)
(0.0450783912178277 0.0070431288598351 7.79721434657003e-17)
(0.149870822025001 0.00532530671703358 -4.55179049170891e-17)
(0.0454486735013665 0.00704636334907432 -1.08383404577192e-17)
(0.150278885888629 0.00532824456032889 -1.20756098794527e-16)
(0.0458430046125646 0.0070483932513985 -1.32856546119302e-16)
(0.150709594806874 0.00533162763450673 -9.66979894920035e-17)
(0.0462609419819906 0.00704972656460789 -1.21749445711023e-16)
(0.151165940752837 0.00533593115041795 -5.19490337115648e-17)
(0.0467048970410577 0.00705233047210285 -5.76884830345869e-17)
(0.151649774383818 0.00533951879815688 -5.45929283720658e-17)
(0.0471782377930461 0.00705511008988949 -3.01049024726102e-17)
(0.152161376786206 0.00534242133008489 -5.76384943456441e-17)
(0.0476814583945883 0.00705614027714138 -1.1619619724346e-16)
(0.152703577094819 0.00534677824987336 -4.80649564393476e-17)
(0.0482154165733338 0.00705742111887105 -1.08504882303232e-17)
(0.15328071969666 0.00535133283304922 -9.93904626465821e-17)
(0.0487853489545608 0.00706080434957855 -1.0965284160825e-16)
(0.153893021526891 0.0053547074381495 -9.58601572340367e-17)
(0.0493937382591135 0.00706215711066585 -1.29717316941579e-16)