/*--------------------------------*- C++ -*----------------------------------*\
  =========                 |
  \\      /  F ield         | OpenFOAM: The Open Source CFD Toolbox
   \\    /   O peration     | Website:  https://openfoam.org
    \\  /    A nd           | Version:  8
     \\/     M anipulation  |
\*---------------------------------------------------------------------------*/
FoamFile
{
    version     2.0;
    format      ascii;
    class       surfaceVectorField;
    location    "0.0085000";
    object      Uf;
}
// * * * * * * * * * * * * * * * * * * * * * * * * * * * * * * * * * * * * * //

dimensions      [0 1 -1 0 0 0 0];

internalField   nonuniform List<vector> 
1094
(
(0.685946350430239 0.000450925949322008 -2.19566405655944e-18)
(0.455508340710729 0.0014864873964957 2.43958793127967e-18)
(0.686499243590312 0.000311813580395143 5.20582480197135e-18)
(0.457879121678598 0.00161909041734594 5.38611662569628e-19)
(0.687001525046735 0.000289605683005995 1.71886472029312e-17)
(0.458584714453297 0.00167763334393579 5.90659199836937e-18)
(0.687356612569297 0.000316301059936999 1.42209512122958e-17)
(0.459184282952982 0.00179827338368473 1.67150221275996e-17)
(0.687614140533803 0.000333203140061306 8.18093642555688e-18)
(0.459593996113142 0.00187950537951717 1.5668983245157e-17)
(0.687830141598398 0.000342177100384717 2.06889761374595e-17)
(0.459891894223973 0.0019210004926213 2.20691195303389e-17)
(0.688031893274965 0.000346614751224084 3.30684516976986e-17)
(0.460150114361216 0.00193878255586311 5.53294983180446e-17)
(0.68823459062809 0.000348661354154843 3.76008845917769e-17)
(0.460400371205681 0.00194500248976886 5.0941122668652e-17)
(0.688445727266647 0.000350498307272344 4.31440638894722e-17)
(0.460658126948376 0.00194725593444988 7.91976219162743e-17)
(0.688663455694861 0.000352891063295449 4.07331895992876e-17)
(0.46092663416336 0.0019495188257569 8.483841832943e-17)
(0.68888593913823 0.000355315294620821 2.50494158071126e-17)
(0.461203523231613 0.00195202746273263 7.99778067658917e-17)
(0.689114395729231 0.000357612421908767 -4.91355903539502e-19)
(0.461490111056763 0.00195439218985522 2.25761904550559e-17)
(0.689350002178559 0.000359614278188916 -1.37747875623751e-18)
(0.461787216189966 0.00195683210348514 -2.77432313844797e-17)
(0.689591266376715 0.000361318378270085 -2.26451613727096e-18)
(0.462094518474278 0.00195843653513592 -1.92748716168908e-17)
(0.68983828131539 0.000363371476031809 8.03956522965498e-18)
(0.462411747565659 0.0019599888772263 -4.99471939679618e-17)
(0.690092439180856 0.000365597441312477 2.49954701946325e-17)
(0.462740056971805 0.00196249522340715 7.0559284938563e-17)
(0.69035234812932 0.000366925359242086 2.99444740638623e-17)
(0.463079319630735 0.00196426564352144 3.90395771512994e-17)
(0.690620589284653 0.000367341353361603 7.05405821597768e-17)
(0.463429228635253 0.00196427793781768 7.73496402589345e-17)
(0.690900165788194 0.000368137549052403 8.09609112887105e-17)
(0.463793950881192 0.00196387471940585 1.17053540041149e-16)
(0.691188832658911 0.000369743318256505 4.95219909247196e-17)
(0.464173678581753 0.0019648070361889 1.09768860319424e-16)
(0.691484239492803 0.000371490993349197 1.29740215132679e-17)
(0.464565668864811 0.00196628170472122 7.89062542775872e-17)
(0.691787685430429 0.000373184895202285 -5.93638186441856e-18)
(0.464971005854739 0.00196761426855728 -3.38448335444362e-17)
(0.692101559436345 0.000374724017407741 1.64296567425663e-17)
(0.465391525814393 0.00196919041077095 2.17658605594672e-18)
(0.692424194118816 0.000376333968792465 3.88353414495975e-17)
(0.465827730002493 0.00197011144258826 -1.14891934040356e-17)
(0.692755067774775 0.000378314183418466 2.44745813111911e-17)
(0.46627948275815 0.00197156615517836 5.45504542708455e-18)
(0.693098189765518 0.000379435340579802 1.96266722978433e-17)
(0.466747479373327 0.00197346160300689 -2.65716196510584e-18)
(0.693455385658812 0.000379528530568475 -4.18180957511677e-18)
(0.467234912808068 0.00197269396839626 3.05426266174306e-18)
(0.693826705961517 0.000380604879236361 -2.19959445715406e-17)
(0.467744156329421 0.00197175417483514 -1.07889447099775e-16)
(0.694210628926409 0.000383071681308946 1.75327822354598e-17)
(0.468274018961302 0.00197357976392376 -1.76669474045662e-18)
(0.694606238439508 0.000385358968269597 2.51343066695073e-17)
(0.46882415618303 0.00197638107593342 7.87239153094209e-17)
(0.695014203801009 0.000386993886987604 7.79064474411503e-17)
(0.469395321492512 0.0019777395452815 1.07904580088715e-17)
(0.695437339965432 0.000388847749471325 6.38205940529896e-17)
(0.469990002184799 0.00197871919975605 1.58109334935552e-16)
(0.695878973431207 0.000390702762552595 7.3666206038082e-18)
(0.47061120921472 0.0019807795095991 9.62837480616253e-17)
(0.696337065718325 0.000392304359456307 3.49576640131036e-17)
(0.471259858475148 0.00198166289112243 6.04449185031224e-17)
(0.696812112258233 0.000394611786390844 3.69748114087072e-17)
(0.471936350025947 0.00198272450275521 8.54888807284436e-17)
(0.697308178583044 0.000397220177927346 -8.71595350379556e-18)
(0.472643496478751 0.00198572197006737 7.07680217534569e-17)
(0.697824628702259 0.000399312500529652 -5.09026790394242e-17)
(0.473383650700251 0.00198763933832701 -1.04251122180164e-16)
(0.698361934952523 0.000401664055200496 -1.12437936147375e-16)
(0.474157903321292 0.00198891190023117 -9.6465741018637e-17)
(0.698923750148243 0.00040460554745007 -7.21635146168309e-17)
(0.47496876090322 0.0019915349862739 -2.35143614167111e-16)
(0.699511992809805 0.000407413700706694 8.72423973099032e-17)
(0.475820259879097 0.00199454590892491 6.93513837973938e-17)
(0.700124664461208 0.000410328623819797 1.43681897464662e-16)
(0.476713715789325 0.00199659143668423 1.76835916962649e-16)
(0.700763887413515 0.000414235967914284 9.0881078607124e-17)
(0.477649929247087 0.00199952894508777 1.51879879657333e-16)
(0.701437935789619 0.000417786123963933 4.39093054979154e-17)
(0.478635496604714 0.00200462251281368 6.93607805780047e-17)
(0.702145148355053 0.000420603959604297 1.13121627945992e-16)
(0.479674834452505 0.00200645972548471 8.14074629888609e-17)
(0.702886088399512 0.000425176853570526 1.05456713936913e-16)
(0.480769630426985 0.00200882123207716 1.38024475759554e-16)
(0.703666664025231 0.000430706780266502 3.01173604626469e-18)
(0.481924551355414 0.0020158152820599 5.04529951752896e-17)
(0.704486773966862 0.000435030918228477 6.9579631705161e-17)
(0.483143976824727 0.00202083929030451 4.89145716101468e-17)
(0.705349333246866 0.000439594532639287 9.75461678597889e-17)
(0.484432098025747 0.00202372049635851 1.22910321999788e-16)
(0.706262102547681 0.000445602238828279 3.36188461250761e-17)
(0.485796201804657 0.00202916201008874 5.19408248517322e-17)
(0.707230219074109 0.000451171380133248 4.36026132146086e-17)
(0.487244908359332 0.00203619131455495 6.84549243175036e-17)
(0.708251841412361 0.000456361170565618 6.87168641263349e-17)
(0.488782309418227 0.00203979256964551 1.03219841658394e-16)
(0.709331401560135 0.00046414528406441 6.09830568254231e-17)
(0.490414128680656 0.00204474556781261 7.12273879175439e-17)
(0.710483152753701 0.000471844025969356 1.73304313706848e-17)
(0.492152267870106 0.00205602537493221 7.21384856400615e-17)
(0.71170611144336 0.00047748175574133 3.0365505546346e-17)
(0.494006126473144 0.00206019017374627 -1.0422905867929e-16)
(0.713005819041118 0.000485777873403058 2.27605930738701e-17)
(0.495984856711575 0.00206387390722907 3.39326015358086e-17)
(0.714396788401053 0.000495295437204058 -6.72310952886678e-17)
(0.498101317375861 0.00207558136345793 -3.29975292555718e-17)
(0.715882249249503 0.000502200510799337 -1.10665446072322e-16)
(0.500368558983408 0.0020821278836363 -1.47320570537532e-16)
(0.717469099308443 0.000509978303970644 -8.96689139734898e-17)
(0.50279950824346 0.00208436407521486 -2.05926506399759e-16)
(0.719171387975468 0.000520842594815974 -1.9620398886675e-16)
(0.505411627824501 0.00209219646112794 -1.4030661685462e-16)
(0.721003408543141 0.000529278338603888 -1.87079684874873e-16)
(0.50822427514906 0.0021026331718713 -3.15711212987078e-16)
(0.722971517224151 0.000534661633729392 1.61724398602074e-17)
(0.51125438623019 0.00210130027757356 -1.12912969483374e-16)
(0.725089236758586 0.000545052722655156 -6.49875557905255e-17)
(0.514527672104969 0.00209985922768791 4.27238570341328e-17)
(0.72738309778909 0.000555403166191444 -1.07176646116787e-16)
(0.518069742247958 0.00211195634331876 -3.02543018793984e-16)
(0.729859313370195 0.000559933018095062 6.77684357959467e-17)
(0.52190637416682 0.00210788044490022 1.1407415080603e-17)
(0.732540198594146 0.000566089406373759 4.26047610131788e-17)
(0.526072990600402 0.00209859858113641 1.27775280489052e-16)
(0.735457584900152 0.000571977317234293 8.30922709973539e-17)
(0.530605883672152 0.0020961053799991 -9.84484974298099e-17)
(0.738632398443614 0.00057233079723602 1.85993791359338e-16)
(0.535546394678847 0.00208196269990418 2.9229878375776e-16)
(0.742092898303629 0.00057164711748909 3.31277830525694e-17)
(0.540943273484357 0.00205767500057164 2.03140153979839e-16)
(0.745879484027834 0.000570359897188578 -3.23196248383532e-17)
(0.546851956453594 0.00203475212601052 -1.97308323276992e-16)
(0.750031610499692 0.000562209043269521 5.0373738323992e-17)
(0.553334019703822 0.00200210701425401 5.98128717250573e-17)
(0.754591670122754 0.000548067593673668 6.12341606092984e-17)
(0.5604620113025 0.00195081536758506 1.42014218200913e-16)
(0.759614971612089 0.000531744921825935 2.54160287932831e-17)
(0.568322350573287 0.0018910935979541 -7.22994718565508e-19)
(0.765169338067061 0.000507573062685357 -8.60770322629643e-18)
(0.577008760414467 0.00182229342797066 -1.01829904288387e-16)
(0.771326028438827 0.000473484683138375 -5.23140679512645e-18)
(0.586641936105401 0.00172665540333193 -3.38353217078004e-17)
(0.778177881702334 0.000430090460843188 3.64590061231543e-17)
(0.597356139541547 0.00161294304764091 1.10177272737865e-17)
(0.7858314437905 0.000375227310933688 4.9659276052623e-17)
(0.609321845565231 0.00147144829141896 4.75642189440456e-17)
(0.794410161623316 0.000310075665751478 3.62087699636753e-19)
(0.622710709022091 0.00130214983657378 6.59819689125081e-17)
(0.804101705617817 0.000233770317721681 -1.53558981217206e-17)
(0.637842394272692 0.00110427056815778 -6.37177572025907e-17)
(0.815082804847344 0.000130059494190797 5.45645070137345e-17)
(0.654854349810387 0.000865315468121618 7.30177970338525e-19)
(0.827693227243519 2.48551518198216e-05 1.00885473351813e-16)
(0.674511246561519 0.000556340954700166 1.48404957564019e-16)
(0.842146588254307 -9.55640871712835e-05 3.17184184120135e-17)
(0.696557377512492 0.000250652960516213 1.28542653356907e-16)
(0.859327371866395 -0.00021328710589995 -2.29003700181424e-17)
(0.72340784520677 -0.000151497053861542 -5.93275489436945e-17)
(0.879196671539289 -0.000407223971646239 3.35453421194487e-18)
(0.752337451570743 -0.000585618480205622 -3.29838600564906e-17)
(0.904502819437175 -0.000400979318423588 2.0923806240531e-17)
(0.792758304161341 -0.00117518939967491 2.22027692152328e-17)
(0.934179310955972 -0.00060293429440694 9.59819604107161e-18)
(0.830950920439472 -0.00149581254886576 3.86970157608271e-17)
(0.972120481024476 0.000206781804849808 2.17695922770793e-18)
(0.903393478454583 -0.00214600265892106 4.77232848032181e-19)
(0.965953545852447 2.988103774824e-05 5.20171864759312e-18)
(0.927906410503789 -3.87797163148027e-06 8.09656497422754e-18)
(0.963730415042658 4.01887385042575e-05 7.5849441405687e-18)
(0.910553449204718 -0.000342241088826887 1.27103436451433e-17)
(0.959404423901303 -5.0559249315192e-05 6.97693391267404e-18)
(0.909930188881811 -0.000282670125382314 1.00769407399307e-17)
(0.955548542141411 -9.66852889149726e-05 4.08137223295915e-18)
(0.900802755982481 -0.00037558392252116 2.73201391800912e-18)
(0.951182364301366 -0.000144306716516108 3.42579301474259e-18)
(0.894861191810098 -0.00038757054649035 5.97583152300747e-18)
(0.946887635277591 -0.000179739465318474 7.77607987698633e-19)
(0.887127519283643 -0.000425155660846986 7.63229323535472e-18)
(0.942587928786329 -0.000210245770973017 -1.85861481632293e-18)
(0.880117993413162 -0.000427964116862398 -4.46920225412868e-18)
(0.938424895324006 -0.000222361677146153 1.74684040322821e-19)
(0.872919381783535 -0.000434394623126347 -2.92494457894445e-18)
(0.934418735197973 -0.000227587628712464 3.14891798514241e-19)
(0.86612870817839 -0.00042928268703808 1.96612804646152e-18)
(0.930750315242552 -0.000223353888354063 -5.81621721512942e-19)
(0.859712245662696 -0.000396462604116333 -2.38173533089454e-18)
(0.927443685325338 -0.000209513167726805 -4.45263987229083e-21)
(0.853876509552628 -0.000363999959902648 5.85481447788811e-20)
(0.924515265295652 -0.000192566197569614 1.40571592692218e-19)
(0.848713765986144 -0.000332743469526522 -4.39511598002958e-19)
(0.922179566651684 -0.000137417723918196 1.60102879959295e-19)
(0.844132311325099 -0.000289780920570203 5.47446599357385e-19)
(0.841208562355248 -0.000191730197531236 5.81831283790326e-20)
(0.225193697599177 0.00287936808147049 5.21518537088221e-18)
(0.0711104571681245 0.00445625653272529 8.84744304296583e-18)
(0.226950636315629 0.00330401025360869 1.22596915019465e-18)
(0.07470042768915 0.00484073321349567 1.2156694358512e-17)
(0.228073033767953 0.00360064852625415 5.38417203710603e-18)
(0.075734540375259 0.00540297038734947 6.77512717719443e-18)
(0.228760785806158 0.00382082982551203 1.81842484927663e-17)
(0.0765036230386551 0.0058590112737979 1.60455017155747e-17)
(0.229222218736341 0.0039443029619141 2.9694975520964e-17)
(0.0770092447730333 0.00611567360754186 2.6510762019842e-17)
(0.229589278818507 0.00400174927799795 5.69857465632488e-17)
(0.0773773877222934 0.00623441874298542 4.65581619350718e-17)
(0.229926540360954 0.00402454486320376 7.34223512726854e-17)
(0.0777003007552406 0.00628122721806589 8.50778580610436e-17)
(0.230262138377422 0.004032406931891 9.29072298068957e-17)
(0.078016951740704 0.00629576376833105 7.53788417471992e-17)
(0.230607556909573 0.00403572393224495 1.21337902036979e-16)
(0.0783422905078283 0.006298553242637 1.0891291948378e-16)
(0.230965990278499 0.00403846564947298 1.24532380584757e-16)
(0.0786814325740749 0.00629883360425227 1.21750328924846e-16)
(0.231337664887526 0.00404119303331212 7.76661028055251e-17)
(0.0790350984863646 0.00629885925381098 1.31251027379557e-16)
(0.231723168903851 0.00404383630910709 -4.80856413640154e-18)
(0.0794040612898359 0.00629873616004134 3.77687979767971e-17)
(0.232123286570417 0.00404603812033447 -4.58573348589286e-17)
(0.0797891609575107 0.00629843131311449 -2.50569312899239e-17)
(0.232537355388666 0.00404777359510241 -6.73664095362631e-17)
(0.0801904123971417 0.00629738030805936 -7.01835509397389e-17)
(0.232965857524528 0.00404977943330715 1.28703080387909e-17)
(0.0806077377278083 0.00629612307963609 -7.55206565444649e-17)
(0.233410486489921 0.00405168341770755 8.4836126174607e-17)
(0.0810426017652582 0.00629524773642049 1.11425293928972e-16)
(0.233871241348902 0.00405219550918893 8.6819901751799e-17)
(0.0814958636231567 0.00629350097241235 5.53456096112514e-17)
(0.234348537315201 0.00405146406784537 1.24222633151675e-16)
(0.0819672020557209 0.00628983855645801 6.81771551303498e-17)
(0.234843914208537 0.00405105250642123 1.46163580453128e-16)
(0.0824580596766077 0.0062854743638045 1.47890538694938e-16)
(0.235358234175582 0.00405152760477284 1.39513674801797e-16)
(0.0829697857411463 0.00628210684380563 1.31704591335353e-16)
(0.235891445515875 0.00405221010179353 3.19014238196964e-17)
(0.0835026340888304 0.00627921153546532 9.52932708310335e-17)
(0.236444590805765 0.00405283213184208 -2.57354833684379e-17)
(0.0840576034469964 0.00627608966435044 -3.54483999831054e-17)
(0.237019436267335 0.00405313272559836 -2.59733177101187e-17)
(0.0846364038093723 0.00627277117941998 2.75010068109079e-17)
(0.237615837663464 0.00405328254202012 -4.52105207478645e-17)
(0.0852398812236616 0.00626878422679995 -3.15603469409091e-17)
(0.238235169854528 0.00405363443441552 -2.19068275901736e-17)
(0.0858687451824516 0.00626497645341222 1.07283921075609e-17)
(0.238880400923852 0.00405262401460549 -1.93877519965259e-17)
(0.0865251789978384 0.00626085823313527 -7.82610818982685e-18)
(0.239551650824093 0.00405007881034261 -1.01374889600361e-16)
(0.0872107794421954 0.00625410739611644 -4.22202293729099e-17)
(0.240249818075577 0.00404873780871434 -8.76553413421491e-17)
(0.0879261381808292 0.00624688995361422 -2.04841209034566e-16)
(0.240977401605673 0.00404923678213727 5.9825500049699e-17)
(0.088673153148915 0.00624201970165788 6.21438948277619e-18)
(0.241735766216053 0.00404942763848644 6.43538546475673e-17)
(0.0894545487527585 0.0062379186537447 4.40957732886362e-17)
(0.242525432106979 0.00404852527746851 9.14678063271507e-17)
(0.0902714029332212 0.00623221220570784 -3.60606451375234e-17)
(0.243349071692497 0.00404768305619845 1.90907739604082e-16)
(0.0911253561342846 0.00622569913848804 2.10324952486196e-16)
(0.244210363952719 0.00404656542674973 1.49823449258164e-16)
(0.0920200760458336 0.00621947297056553 1.85933600535515e-16)
(0.245109564004748 0.00404482562107471 1.11349616941829e-16)
(0.0929576217550819 0.00621196803266912 1.05968232202566e-16)
(0.246048901968011 0.00404393747191711 1.19554834256323e-16)
(0.0939391744717394 0.00620427688363982 1.79810040288617e-16)
(0.247033260950701 0.00404326230076949 -2.53705754027526e-17)
(0.0949691472036568 0.00619771835591666 3.69530874625881e-17)
(0.248064023262021 0.00404150369797217 -1.50157837650605e-16)
(0.0960512055282416 0.0061898549366217 -1.10816860221251e-16)
(0.249143286500797 0.00403983787155576 -2.2000716331187e-16)
(0.0971869395107875 0.00618083848183086 -1.62717487692617e-16)
(0.250276173275164 0.00403879172020787 -9.27099056384469e-17)
(0.098380412620905 0.00617246249896785 -4.18129169882774e-16)
(0.251466462470573 0.00403719132489496 1.59555368180147e-16)
(0.0996372356009871 0.00616384934087977 5.49879358291451e-17)
(0.252715701262621 0.00403533868231243 1.85091955239027e-16)
(0.100960253930381 0.00615382846995921 2.46875771386422e-16)
(0.254029202769167 0.00403469873213387 1.30207666365102e-16)
(0.102352758771102 0.00614417647509386 1.77631458033548e-16)
(0.255415234731779 0.00403306292656772 1.07110128246296e-16)
(0.103823403350216 0.00613535929148597 1.17330448461294e-16)
(0.256875193914321 0.00402971171951716 1.06492012535401e-16)
(0.105377342351822 0.00612290756950891 3.66615085569201e-17)
(0.258414177634172 0.00402871951202719 8.26276426575927e-17)
(0.107017342891888 0.00611025972333638 5.33999977138017e-17)
(0.260042577191635 0.00402873058292166 9.66402846358868e-17)
(0.108753401636953 0.0061010420908836 8.27970815645294e-17)
(0.26176461415823 0.00402606380186024 1.02628135697228e-16)
(0.110594279275395 0.00608916685717184 9.13311679717492e-17)
(0.263585875458011 0.00402306405014145 7.69671077020808e-17)
(0.11254437438574 0.00607393606690134 3.89586496692379e-17)
(0.265518392474432 0.00402171328725353 8.69973834440369e-17)
(0.114613612368366 0.00606001705489677 -1.91855089263212e-17)
(0.267572616445067 0.00401872006471291 1.28453617412404e-16)
(0.11681612754977 0.00604624426247213 1.33247503610587e-16)
(0.269753311348061 0.00401406384783106 1.0569875104302e-16)
(0.119159609141132 0.00602780617345638 1.12222439316195e-16)
(0.272073060394129 0.00401287326266372 8.24443342112109e-17)
(0.121652834547894 0.00600967423183897 3.34920177960366e-17)
(0.274551875475071 0.0040103419470303 -5.03695062412956e-17)
(0.124316960114374 0.00599546768432543 1.62365455242609e-16)
(0.277196021122297 0.00400279574666795 -1.00375108467837e-16)
(0.127166267787834 0.00597270149028808 -2.39650557225723e-16)
(0.280020208878881 0.00399843612592105 -2.22451190561463e-17)
(0.130210112710452 0.00594743851532646 -9.25119750143452e-18)
(0.283050372594243 0.00399455327742803 -1.13738493256822e-16)
(0.133474180439045 0.00592770132775482 -6.16757043367042e-17)
(0.28630025525127 0.00398409220879076 -2.43175122656477e-16)
(0.136982118666572 0.00590049770325677 -2.95251593097226e-16)
(0.289786977026176 0.00397306180919669 -2.5661604995687e-16)
(0.140748178415731 0.00586578361890342 -2.4789521857966e-16)
(0.293541616812369 0.00396522577687696 -2.60854409063675e-16)
(0.144800433278581 0.00583413341899664 -2.60507348839128e-16)
(0.297594433197865 0.00395027037757165 -2.40589071042962e-16)
(0.149178001654677 0.00580124465860625 -3.25595533486902e-16)
(0.30196409998515 0.00392672186707159 -8.57251357921401e-17)
(0.153905115926983 0.00575196917771773 -2.18700552961295e-16)
(0.306686516519983 0.00390899474880488 -1.97025828588379e-16)
(0.159009540187451 0.0056991665965534 -3.630398359905e-17)
(0.311815942709202 0.00388734850227516 -1.82290691477152e-16)
(0.164549746713779 0.00565466089194913 -4.92145483920251e-16)
(0.317380575503992 0.00385060696445197 7.21164662813001e-17)
(0.17057217589568 0.00558863262807217 3.4140926521154e-17)
(0.323427469288242 0.00381188573746053 -1.47742053929317e-17)
(0.177113439097833 0.00551025073602731 1.32508959034528e-16)
(0.330024598706982 0.00376708422176696 1.13302063344564e-16)
(0.184243703162676 0.0054317025258099 -2.25687980194933e-16)
(0.337227517768167 0.00370568512116003 3.09051007328685e-16)
(0.192035257547794 0.00533324504022351 3.45230868398937e-16)
(0.345103567468256 0.00363514450687383 -3.01452683837298e-17)
(0.200551745293766 0.0052149386917552 1.67429528008156e-16)
(0.353746100259718 0.00355523817579764 -1.03441386960725e-16)
(0.209887428105805 0.00508798513720892 -3.01156150450436e-16)
(0.363249569331895 0.00345306903646579 1.52201627183214e-16)
(0.22015385226209 0.00493905264001675 1.24876034538983e-16)
(0.373714288941179 0.00332890484836199 7.89694348677782e-17)
(0.231455939324669 0.0047568007690339 1.82006596571124e-16)
(0.385273757516958 0.00318812834212838 -1.28970248441129e-16)
(0.24392538217518 0.00455091009657684 -1.0751142743845e-16)
(0.398087336901157 0.00301825882774904 -1.26602445694665e-16)
(0.257733719477535 0.00431774411699865 -2.08676708497796e-16)
(0.412322764020731 0.00281290479540844 -1.71947015645639e-17)
(0.273067331277312 0.00403675488940879 -6.74894990339687e-17)
(0.428194726889966 0.00257034386641608 2.24590486869668e-17)
(0.290132863551733 0.00371249256207631 2.21774369217918e-17)
(0.445954605758642 0.00228320394867809 6.40805977317862e-17)
(0.309215050356177 0.00333235759252751 8.9429627001904e-18)
(0.465916771517842 0.00194945026158708 5.14291543735734e-19)
(0.330580847873304 0.00289306827399523 1.33738121869415e-16)
(0.48848437187479 0.00156039321929481 -4.69036513513849e-17)
(0.354755951384204 0.00238662274884578 -1.29686636326457e-16)
(0.514135346356824 0.00108155782939418 9.63988094503574e-17)
(0.381984362969036 0.00179374723565799 3.17486908228152e-19)
(0.543493539088746 0.00054851222094444 1.75779164233296e-16)
(0.413423689285967 0.00107352999456558 1.66601075994944e-16)
(0.577475388506736 -7.49611885657246e-05 3.47401414503027e-17)
(0.448675326743146 0.000310575358606692 1.36658269069764e-16)
(0.617294391527135 -0.000782921053797257 -6.89181811954885e-17)
(0.491752986049066 -0.000658021924494346 -1.19983368064675e-16)
(0.664517065096508 -0.00172363488583376 -1.30765787446129e-17)
(0.538142138588137 -0.00170147355180569 -6.59464435725773e-17)
(0.722091155498153 -0.00247878469516444 4.02565156673499e-17)
(0.602653904744796 -0.0031142631138227 2.15721686915158e-17)
(0.794326839502446 -0.00357372548243015 2.85937004614402e-17)
(0.663889467910111 -0.00419841189077614 7.71080600645654e-17)
(0.874664763433078 -0.00139800229652427 6.48477285429031e-18)
(0.779293939799011 -0.00569052972511777 9.10331873996387e-19)
(0.867374690363844 -0.000308580119102869 1.55953841248521e-17)
(0.818470944200922 -3.96677625742071e-05 1.60952907362142e-17)
(0.85941116249819 -0.000266413304254725 1.51802358236705e-17)
(0.790691016770992 -0.000433526835357396 2.54239355319024e-17)
(0.850335965053457 -0.000387457046324445 5.80582686185587e-18)
(0.789498844221954 -0.000373578208891803 1.259287459136e-17)
(0.840656162608712 -0.000427786076037101 4.638828982395e-18)
(0.774765487897516 -0.000484816854698711 -2.08817440484423e-18)
(0.830574224627125 -0.00047792306106334 1.0189857531953e-17)
(0.765142960743765 -0.000504306729553831 1.18868301839322e-17)
(0.820351942232431 -0.000505324968967507 2.34247419615862e-18)
(0.752648131072009 -0.000549524755115314 1.17313920172182e-17)
(0.810276153438924 -0.000525410146065217 -5.53359031313524e-18)
(0.741330910186439 -0.000555087525425603 -8.97683197223372e-18)
(0.800473690625331 -0.000521826150404751 -1.11875725192953e-18)
(0.729777110394144 -0.000562296793419377 -5.79063956044512e-18)
(0.791121891883175 -0.000504826242725145 -7.45255862657707e-19)
(0.718799613830664 -0.00055415858269463 5.73915196597009e-19)
(0.782560142330878 -0.000472509795085325 -1.73731127511257e-18)
(0.708472033217661 -0.00051354154055824 -3.18635531212609e-18)
(0.774852452690197 -0.000431348446164096 -3.78287465838892e-19)
(0.699181065132435 -0.0004708377336022 1.82083304511817e-19)
(0.76800908605394 -0.000387894938706209 -3.09233999458088e-20)
(0.690879885295519 -0.000429058178337467 -1.24451674037248e-18)
(0.762425323279732 -0.000282662713962131 4.45412484391645e-19)
(0.683504919151728 -0.000382506628413187 7.88167466739232e-19)
(0.677766067027596 -0.000226201615558189 1.00132017402797e-19)
(-0.0804802933240441 0.0064706914624806 1.58576289805604e-17)
(-0.159275757782865 0.00727578147560572 1.44853247715243e-17)
(-0.078593181789755 0.00707454185519212 1.77907170642709e-17)
(-0.156657469441591 0.00787131117317129 1.9105748348017e-17)
(-0.0775413095292874 0.00785344414452624 1.75246998645766e-17)
(-0.15608461954125 0.00908419303491363 1.42986768220814e-17)
(-0.0769413020692995 0.00835882964381752 2.44288601923909e-17)
(-0.155659150962249 0.00988576542394273 1.71638823476762e-17)
(-0.0765342009578489 0.00861510460111816 4.3492759008461e-17)
(-0.155346503100735 0.0102914804136249 3.1670285178879e-17)
(-0.0761968487220013 0.00872612382384676 7.48298240411582e-17)
(-0.155082073888868 0.010468721824417 6.1868143742421e-17)
(-0.0758763491145815 0.00876693166791023 8.70887217449181e-17)
(-0.154823726594201 0.0105356753211631 8.97776457379077e-17)
(-0.0755515863403101 0.00877846144086662 9.14484997288393e-17)
(-0.154556645710349 0.0105554528984975 7.74506159467801e-17)
(-0.0752142506399355 0.00878014667841826 1.09288607529084e-16)
(-0.15427638352317 0.0105580773021547 9.72134545201698e-17)
(-0.0748611993272498 0.00877950206318284 1.28510865733659e-16)
(-0.153980974049728 0.0105560740882433 1.07671948157392e-16)
(-0.0744914596274658 0.00877842310400923 9.12174270040454e-17)
(-0.153669523945274 0.0105531695923604 1.30713987963412e-16)
(-0.0741042965828814 0.00877712889949985 1.74949304696238e-17)
(-0.153341273968468 0.0105499960855382 3.57100307397957e-17)
(-0.0736990308731857 0.00877533405481732 -4.95042378419088e-17)
(-0.152995416846408 0.0105465171796807 -2.80821356398958e-17)
(-0.0732756482198084 0.00877299505389303 -7.84058729429054e-17)
(-0.152631609946885 0.0105423243385292 -9.09945008447719e-17)
(-0.0728334140911442 0.00877058790198561 2.3522445785603e-17)
(-0.152249553735069 0.0105377249734987 -8.73642699056075e-17)
(-0.072370881241073 0.00876776806757498 8.17876531100255e-17)
(-0.151847965784135 0.0105330358944901 7.15184575294905e-17)
(-0.0718876244678221 0.00876352216334745 3.64882578764846e-17)
(-0.151425864881563 0.0105273780100523 4.43956637140132e-17)
(-0.0713835661434611 0.00875796726766422 9.18820536527539e-17)
(-0.150983319794677 0.0105200591331256 2.85982514080498e-17)
(-0.0708576057506878 0.00875237353929181 1.33331009541888e-16)
(-0.150519736189879 0.0105119173951917 1.272643884278e-16)
(-0.0703081489126561 0.00874726335994952 8.71484623722125e-17)
(-0.150033675068247 0.0105041181067391 7.39592010568489e-17)
(-0.0697341624245291 0.00874212552022738 2.75949525616382e-17)
(-0.149523829156482 0.0104963676110012 5.41238063640693e-17)
(-0.0691343795230697 0.00873665863785686 1.81487887278988e-17)
(-0.148988974712771 0.0104881653940088 -2.14465463675771e-17)
(-0.0685072716123977 0.00873061956465349 2.19773646755436e-17)
(-0.148427598102769 0.0104794479475341 1.16268094421729e-17)
(-0.0678520746296792 0.00872412392107353 2.48001550049762e-17)
(-0.147838622141291 0.0104698770521445 -2.79067624070558e-18)
(-0.0671669708242782 0.00871732634965117 2.49650292474208e-17)
(-0.1472208678214 0.0104599624129139 4.02770637764946e-17)
(-0.0664497878668122 0.00870896630342826 -3.08005624683563e-17)
(-0.146572182759655 0.01044930026093 -5.52906068520751e-18)
(-0.0657003259746959 0.00869897770778958 -1.4632246393386e-16)
(-0.145891540912318 0.0104363192698214 -4.8352890126159e-17)
(-0.0649171474803986 0.00868961650774027 -1.10481418378226e-16)
(-0.145178494537317 0.0104225379008133 -1.77509992662927e-16)
(-0.0640966798893594 0.0086814445470198 -9.69560166399343e-18)
(-0.144430335158674 0.0104099740089049 -8.40230897625087e-17)
(-0.0632364430569836 0.0086726555901537 -5.70416333996785e-17)
(-0.143643535766708 0.0103975157815817 -1.10978437305154e-16)
(-0.0623353329923659 0.00866248290662977 8.34804206809212e-17)
(-0.142816479949561 0.0103833774868778 -2.60761608115373e-17)
(-0.0613907728794048 0.00865176555842282 2.05335653125732e-16)
(-0.141947641756525 0.0103680236528308 1.88317495343756e-16)
(-0.0603992731570044 0.00864026376001662 1.41807399587326e-16)
(-0.141033703420866 0.0103521921074746 1.4081235819895e-16)
(-0.0593591894847597 0.00862774227883572 1.748961588046e-16)
(-0.140072171794914 0.0103347965916229 1.1098956916362e-16)
(-0.0582674231117792 0.00861532749932965 9.66796243462811e-17)
(-0.139061129070137 0.0103165829659053 1.88325108851067e-16)
(-0.0571190413839077 0.00860246506870381 -4.90465697440568e-17)
(-0.137996085040128 0.0102984456261803 -1.35782683367002e-16)
(-0.055911399293935 0.00858805308267198 -1.23446217041471e-16)
(-0.136873088064132 0.0102785902992769 -1.36714608946542e-16)
(-0.0546414253899527 0.00857298543115985 -3.62179358627792e-16)
(-0.135689869498199 0.010257038497852 -1.82086134857873e-16)