/*--------------------------------*- C++ -*----------------------------------*\
| =========                 |                                                 |
| \\      /  F ield         | OpenFOAM: The Open Source CFD Toolbox           |
|  \\    /   O peration     | Version:  4.1                                   |
|   \\  /    A nd           | Web:      www.OpenFOAM.org                      |
|    \\/     M anipulation  |                                                 |
\*---------------------------------------------------------------------------*/
FoamFile
{
    version     2.0;
    format      ascii;
    class       volVectorField;
    location    "0.0087";
    object      cellDisplacement;
}
// * * * * * * * * * * * * * * * * * * * * * * * * * * * * * * * * * * * * * //

dimensions      [0 1 0 0 0 0 0];

internalField   nonuniform List<vector> 
1536
(
(5.4022e-05 4.2843e-07 -2.4931e-10)
(5.0201e-05 -5.6357e-08 -8.965e-11)
(4.6361e-05 -4.7689e-08 -6.8006e-11)
(4.2514e-05 3.4415e-07 -1.5777e-10)
(3.866e-05 9.4851e-07 -3.047e-10)
(3.4788e-05 1.548e-06 -4.3479e-10)
(3.0874e-05 1.8594e-06 -4.8183e-10)
(2.6846e-05 1.5885e-06 -3.9327e-10)
(2.2478e-05 7.0308e-07 -1.7655e-10)
(1.7355e-05 -3.1672e-07 4.8988e-11)
(1.1117e-05 -7.6587e-07 1.4648e-10)
(3.8459e-06 -3.837e-07 7.5944e-11)
(5.4012e-05 4.3147e-07 -7.4373e-08)
(5.0196e-05 3.0541e-09 -3.3787e-09)
(4.6358e-05 -9.8976e-11 -2.954e-09)
(4.251e-05 3.2716e-07 -5.7333e-08)
(3.8653e-05 8.362e-07 -1.4195e-07)
(3.4773e-05 1.3357e-06 -2.2512e-07)
(3.0838e-05 1.5837e-06 -2.6651e-07)
(2.6766e-05 1.3453e-06 -2.2661e-07)
(2.233e-05 6.1045e-07 -1.0337e-07)
(1.7156e-05 -2.2517e-07 3.7012e-08)
(1.0939e-05 -5.9857e-07 9.996e-08)
(3.7745e-06 -3.0292e-07 5.0671e-08)
(5.4005e-05 3.9819e-07 -1.6244e-07)
(5.0192e-05 3.4227e-08 -1.7666e-08)
(4.6356e-05 2.534e-08 -1.4067e-08)
(4.2508e-05 2.9237e-07 -1.2013e-07)
(3.8648e-05 7.1025e-07 -2.8616e-07)
(3.4761e-05 1.1173e-06 -4.481e-07)
(3.0812e-05 1.3135e-06 -5.2646e-07)
(2.6708e-05 1.1123e-06 -4.4616e-07)
(2.2228e-05 5.1337e-07 -2.0593e-07)
(1.7022e-05 -1.6261e-07 6.5836e-08)
(1.0822e-05 -4.677e-07 1.8845e-07)
(3.7273e-06 -2.3844e-07 9.6075e-08)
(5.4001e-05 3.3587e-07 -2.5372e-07)
(5.0189e-05 4.2051e-08 -3.376e-08)
(4.6354e-05 3.223e-08 -2.6341e-08)
(4.2507e-05 2.4309e-07 -1.8404e-07)
(3.8646e-05 5.7411e-07 -4.3162e-07)
(3.4756e-05 8.9553e-07 -6.7212e-07)
(3.0798e-05 1.0484e-06 -7.867e-07)
(2.6678e-05 8.8667e-07 -6.6558e-07)
(2.2176e-05 4.124e-07 -3.0937e-07)
(1.6956e-05 -1.2151e-07 9.2023e-08)
(1.0764e-05 -3.6349e-07 2.7383e-07)
(3.7041e-06 -1.8592e-07 1.4003e-07)
(5.4001e-05 2.5356e-07 -3.3602e-07)
(5.0189e-05 3.3552e-08 -4.223e-08)
(4.6354e-05 2.6089e-08 -3.2444e-08)
(4.2507e-05 1.8376e-07 -2.4333e-07)
(3.8646e-05 4.3132e-07 -5.7435e-07)
(3.4756e-05 6.7182e-07 -8.9575e-07)
(3.0798e-05 7.8644e-07 -1.0486e-06)
(2.6678e-05 6.6536e-07 -8.8681e-07)
(2.2176e-05 3.0921e-07 -4.1249e-07)
(1.6956e-05 -9.2139e-08 1.2144e-07)
(1.0764e-05 -2.739e-07 3.6345e-07)
(3.7041e-06 -1.4005e-07 1.8591e-07)
(5.4005e-05 1.6226e-07 -3.9831e-07)
(5.0191e-05 1.743e-08 -3.438e-08)
(4.6355e-05 1.3775e-08 -2.5519e-08)
(4.2508e-05 1.1979e-07 -2.9257e-07)
(3.8648e-05 2.8579e-07 -7.1043e-07)
(3.4761e-05 4.4773e-07 -1.1175e-06)
(3.0812e-05 5.2613e-07 -1.3136e-06)
(2.6708e-05 4.4587e-07 -1.1123e-06)
(2.2228e-05 2.057e-07 -5.134e-07)
(1.7022e-05 -6.5999e-08 1.6259e-07)
(1.0822e-05 -1.8855e-07 4.677e-07)
(3.7273e-06 -9.6108e-08 2.3844e-07)
(5.4012e-05 7.4177e-08 -4.3158e-07)
(5.0195e-05 3.1168e-09 -3.1859e-09)
(4.6358e-05 2.6264e-09 -5.2278e-11)
(4.251e-05 5.6948e-08 -3.2732e-07)
(3.8653e-05 1.4153e-07 -8.3635e-07)
(3.4772e-05 2.2469e-07 -1.3358e-06)
(3.0838e-05 2.6611e-07 -1.5837e-06)
(2.6765e-05 2.2627e-07 -1.3453e-06)
(2.233e-05 1.031e-07 -6.1042e-07)
(1.7156e-05 -3.7212e-08 2.2521e-07)
(1.0939e-05 -1.0008e-07 5.9859e-07)
(3.7744e-06 -5.0712e-08 3.0293e-07)
(5.4022e-05 4.5339e-11 -4.2854e-07)
(5.02e-05 -1.928e-10 5.6237e-08)
(4.6361e-05 -2.9039e-10 4.7555e-08)
(4.2513e-05 -2.6573e-10 -3.4429e-07)
(3.8659e-05 -1.603e-10 -9.4863e-07)
(3.4787e-05 -3.6869e-11 -1.548e-06)
(3.0874e-05 4.0862e-11 -1.8594e-06)
(2.6846e-05 1.2135e-11 -1.5885e-06)
(2.2478e-05 -1.3018e-10 -7.0299e-07)
(1.7354e-05 -2.7579e-10 3.1679e-07)
(1.1117e-05 -2.8711e-10 7.6591e-07)
(3.8458e-06 -1.2375e-10 3.8371e-07)
(5.4012e-05 4.3132e-07 7.3893e-08)
(5.0196e-05 2.9384e-09 3.1557e-09)
(4.6358e-05 -1.8628e-10 2.7641e-09)
(4.251e-05 3.2709e-07 5.7001e-08)
(3.8653e-05 8.3616e-07 1.4139e-07)
(3.4773e-05 1.3357e-06 2.2437e-07)
(3.0838e-05 1.5837e-06 2.6572e-07)
(2.6766e-05 1.3453e-06 2.2598e-07)
(2.233e-05 6.1046e-07 1.0308e-07)
(1.7156e-05 -2.2521e-07 -3.6966e-08)
(1.094e-05 -5.9862e-07 -9.9763e-08)
(3.7746e-06 -3.0294e-07 -5.0567e-08)
(5.4002e-05 4.1771e-07 -4.763e-10)
(5.019e-05 4.8497e-08 -1.759e-10)
(4.6354e-05 3.5854e-08 -1.536e-10)
(4.2506e-05 3.0029e-07 -3.4572e-10)
(3.8645e-05 7.157e-07 -6.4597e-10)
(3.4755e-05 1.1187e-06 -9.1881e-10)
(3.0797e-05 1.3093e-06 -1.0222e-09)
(2.6676e-05 1.1064e-06 -8.4396e-10)
(2.2173e-05 5.1507e-07 -4.0395e-10)
(1.695e-05 -1.4896e-07 6.5233e-11)
(1.0758e-05 -4.5025e-07 2.7963e-10)
(3.7016e-06 -2.3056e-07 1.4771e-10)
(5.3994e-05 3.6786e-07 -9.3509e-08)
(5.0185e-05 6.5219e-08 -1.7945e-08)
(4.6352e-05 4.9543e-08 -1.4022e-08)
(4.2503e-05 2.5686e-07 -6.5751e-08)
(3.8639e-05 5.8484e-07 -1.4759e-07)
(3.4741e-05 9.0067e-07 -2.2645e-07)
(3.0767e-05 1.0453e-06 -2.6267e-07)
(2.6614e-05 8.8062e-07 -2.2143e-07)
(2.2066e-05 4.1725e-07 -1.0489e-07)
(1.6814e-05 -9.9109e-08 2.5205e-08)
(1.064e-05 -3.3601e-07 8.4865e-08)
(3.6544e-06 -1.7364e-07 4.3844e-08)
(5.399e-05 2.9e-07 -1.9444e-07)
(5.0183e-05 6.0006e-08 -4.124e-08)
(4.635e-05 4.6055e-08 -3.1951e-08)
(4.2502e-05 1.9996e-07 -1.3446e-07)
(3.8636e-05 4.4437e-07 -2.9722e-07)
(3.4734e-05 6.789e-07 -4.5345e-07)
(3.0751e-05 7.8461e-07 -5.2394e-07)
(2.6582e-05 6.6023e-07 -4.4098e-07)
(2.2012e-05 3.1549e-07 -2.1067e-07)
(1.6747e-05 -6.745e-08 4.5334e-08)
(1.0581e-05 -2.4408e-07 1.6338e-07)
(3.6311e-06 -1.2673e-07 8.4809e-08)
(5.399e-05 1.9424e-07 -2.9018e-07)
(5.0183e-05 4.0988e-08 -6.0231e-08)
(4.635e-05 3.1643e-08 -4.6327e-08)
(4.2502e-05 1.341e-07 -2.0027e-07)
(3.8636e-05 2.9684e-07 -4.4469e-07)
(3.4734e-05 4.5306e-07 -6.7921e-07)
(3.0751e-05 5.2358e-07 -7.8488e-07)
(2.6582e-05 4.4069e-07 -6.6045e-07)
(2.2012e-05 2.1045e-07 -3.1565e-07)
(1.6747e-05 -4.5488e-08 6.7342e-08)
(1.0581e-05 -1.6347e-07 2.4402e-07)
(3.6311e-06 -8.4838e-08 1.2671e-07)
(5.3994e-05 9.329e-08 -3.6803e-07)
(5.0185e-05 1.7665e-08 -6.5424e-08)
(4.6352e-05 1.3674e-08 -4.9786e-08)
(4.2503e-05 6.5339e-08 -2.5712e-07)
(3.8639e-05 1.4713e-07 -5.8511e-07)
(3.4741e-05 2.2599e-07 -9.0091e-07)
(3.0767e-05 2.6224e-07 -1.0455e-06)
(2.6614e-05 2.2106e-07 -8.8076e-07)
(2.2066e-05 1.0461e-07 -4.1735e-07)
(1.6814e-05 -2.5402e-08 9.9045e-08)
(1.0639e-05 -8.4979e-08 3.3597e-07)
(3.6543e-06 -4.388e-08 1.7363e-07)
(5.4001e-05 2.4253e-10 -4.1786e-07)
(5.0189e-05 -1.3177e-10 -4.869e-08)
(4.6354e-05 -2.3468e-10 -3.6079e-08)
(4.2506e-05 -1.1767e-10 -3.0053e-07)
(3.8645e-05 1.302e-10 -7.1593e-07)
(3.4754e-05 3.8914e-10 -1.1189e-06)
(3.0797e-05 5.2379e-10 -1.3095e-06)
(2.6676e-05 4.158e-10 -1.1065e-06)
(2.2172e-05 6.9034e-11 -5.1511e-07)
(1.695e-05 -3.0022e-10 1.4893e-07)
(1.0758e-05 -4.1711e-10 4.5023e-07)
(3.7016e-06 -1.9269e-10 2.3055e-07)
(5.4012e-05 -7.4131e-08 -4.3148e-07)
(5.0195e-05 -3.4846e-09 -3.1337e-09)
(4.6358e-05 -3.1862e-09 -3.7212e-11)
(4.251e-05 -5.7507e-08 -3.2733e-07)
(3.8653e-05 -1.4196e-07 -8.3637e-07)
(3.4772e-05 -2.2495e-07 -1.3358e-06)
(3.0838e-05 -2.6626e-07 -1.5838e-06)
(2.6765e-05 -2.2644e-07 -1.3453e-06)
(2.233e-05 -1.0345e-07 -6.1045e-07)
(1.7156e-05 3.6701e-08 2.2521e-07)
(1.0939e-05 9.9603e-08 5.9861e-07)
(3.7745e-06 5.0514e-08 3.0294e-07)
(5.4005e-05 3.9798e-07 1.6233e-07)
(5.0192e-05 3.4013e-08 1.7467e-08)
(4.6356e-05 2.5181e-08 1.3875e-08)
(4.2508e-05 2.9232e-07 1.2002e-07)
(3.8648e-05 7.1034e-07 2.8619e-07)
(3.4762e-05 1.1176e-06 4.4831e-07)
(3.0812e-05 1.3139e-06 5.2682e-07)
(2.6708e-05 1.1126e-06 4.465e-07)
(2.2228e-05 5.1351e-07 2.0609e-07)
(1.7023e-05 -1.627e-07 -6.5928e-08)
(1.0822e-05 -4.679e-07 -1.8866e-07)
(3.7276e-06 -2.3853e-07 -9.6179e-08)
(5.3994e-05 3.6762e-07 9.2974e-08)
(5.0186e-05 6.504e-08 1.7638e-08)
(4.6352e-05 4.9411e-08 1.3732e-08)
(4.2504e-05 2.5676e-07 6.532e-08)
(3.8639e-05 5.8476e-07 1.4695e-07)
(3.4741e-05 9.0063e-07 2.2566e-07)
(3.0767e-05 1.0453e-06 2.6186e-07)
(2.6614e-05 8.8065e-07 2.2079e-07)
(2.2067e-05 4.1724e-07 1.0457e-07)
(1.6815e-05 -9.9193e-08 -2.5223e-08)
(1.064e-05 -3.3612e-07 -8.4738e-08)
(3.6545e-06 -1.7369e-07 -4.3771e-08)
(5.3987e-05 3.031e-07 -3.8728e-10)
(5.0181e-05 6.9257e-08 -1.7782e-10)
(4.6349e-05 5.2995e-08 -1.7226e-10)
(4.25e-05 2.0577e-07 -3.2014e-10)
(3.8632e-05 4.4939e-07 -5.4003e-10)
(3.4727e-05 6.822e-07 -7.3111e-10)
(3.0735e-05 7.8511e-07 -7.8953e-10)
(2.6548e-05 6.5956e-07 -6.4296e-10)
(2.1957e-05 3.1819e-07 -3.1872e-10)
(1.6676e-05 -5.9189e-08 2.1385e-11)
(1.052e-05 -2.3442e-07 1.8145e-10)
(3.6069e-06 -1.2245e-07 9.792e-11)
(5.3982e-05 2.1278e-07 -1.0725e-07)
(5.0179e-05 5.3791e-08 -2.7529e-08)
(4.6347e-05 4.1311e-08 -2.1295e-08)
(4.2498e-05 1.4263e-07 -7.2134e-08)
(3.8629e-05 3.0489e-07 -1.5351e-07)
(3.4719e-05 4.5938e-07 -2.3099e-07)
(3.0718e-05 5.2649e-07 -2.6465e-07)
(2.6514e-05 4.4176e-07 -2.2208e-07)
(2.1901e-05 2.1502e-07 -1.0811e-07)
(1.6607e-05 -3.4733e-08 1.7474e-08)
(1.0461e-05 -1.514e-07 7.6137e-08)
(3.5834e-06 -7.9543e-08 4.0002e-08)
(5.3982e-05 1.0701e-07 -2.1299e-07)
(5.0179e-05 2.7233e-08 -5.4063e-08)
(4.6347e-05 2.0928e-08 -4.1641e-08)
(4.2498e-05 7.17e-08 -1.4302e-07)
(3.8629e-05 1.5303e-07 -3.053e-07)
(3.4719e-05 2.305e-07 -4.5979e-07)
(3.0717e-05 2.6419e-07 -5.2686e-07)
(2.6514e-05 2.2169e-07 -4.4207e-07)
(2.1901e-05 1.0782e-07 -2.1525e-07)
(1.6607e-05 -1.767e-08 3.4578e-08)
(1.0461e-05 -7.6247e-08 1.5131e-07)
(3.5834e-06 -4.0037e-08 7.9515e-08)
(5.3986e-05 1.2611e-10 -3.033e-07)
(5.0181e-05 -1.5005e-10 -6.9513e-08)
(4.6349e-05 -2.3928e-10 -5.3301e-08)
(4.25e-05 -1.7609e-10 -2.0612e-07)
(3.8632e-05 -2.0021e-11 -4.4974e-07)
(3.4726e-05 1.4879e-10 -6.8253e-07)
(3.0735e-05 2.3794e-10 -7.854e-07)
(2.6548e-05 1.719e-10 -6.5979e-07)
(2.1957e-05 -3.978e-11 -3.1836e-07)
(1.6676e-05 -2.5997e-10 5.9071e-08)
(1.052e-05 -3.1222e-10 2.3435e-07)
(3.6069e-06 -1.3872e-10 1.2243e-07)
(5.3994e-05 -9.3258e-08 -3.678e-07)
(5.0185e-05 -1.7999e-08 -6.5288e-08)
(4.6351e-05 -1.4191e-08 -4.9703e-08)
(4.2503e-05 -6.588e-08 -2.5707e-07)
(3.8639e-05 -1.4759e-07 -5.8506e-07)
(3.4741e-05 -2.2633e-07 -9.0089e-07)
(3.0767e-05 -2.625e-07 -1.0455e-06)
(2.6614e-05 -2.2134e-07 -8.8079e-07)
(2.2066e-05 -1.0499e-07 -4.1734e-07)
(1.6815e-05 2.4945e-08 9.9102e-08)
(1.064e-05 8.4585e-08 3.3605e-07)
(3.6545e-06 4.3723e-08 1.7367e-07)
(5.4005e-05 -1.6261e-07 -3.9818e-07)
(5.0191e-05 -1.7852e-08 -3.427e-08)
(4.6355e-05 -1.4374e-08 -2.5481e-08)
(4.2508e-05 -1.2063e-07 -2.9264e-07)
(3.8648e-05 -2.8688e-07 -7.1062e-07)
(3.4761e-05 -4.4902e-07 -1.1178e-06)
(3.0812e-05 -5.2748e-07 -1.314e-06)
(2.6708e-05 -4.4707e-07 -1.1127e-06)
(2.2228e-05 -2.0654e-07 -5.1358e-07)
(1.7023e-05 6.5615e-08 1.6263e-07)
(1.0822e-05 1.8847e-07 4.6784e-07)
(3.7275e-06 9.6119e-08 2.3851e-07)
(5.4001e-05 3.356e-07 2.5358e-07)
(5.019e-05 4.1843e-08 3.3567e-08)
(4.6355e-05 3.2085e-08 2.6133e-08)
(4.2507e-05 2.43e-07 1.8386e-07)
(3.8646e-05 5.7409e-07 4.3151e-07)
(3.4756e-05 8.9557e-07 6.7211e-07)
(3.0798e-05 1.0485e-06 7.868e-07)
(2.6678e-05 8.8678e-07 6.6571e-07)
(2.2177e-05 4.1246e-07 3.0945e-07)
(1.6957e-05 -1.2151e-07 -9.2055e-08)
(1.0764e-05 -3.6353e-07 -2.7392e-07)
(3.7042e-06 -1.8595e-07 -1.4007e-07)
(5.399e-05 2.8964e-07 1.9427e-07)
(5.0183e-05 5.9838e-08 4.1034e-08)
(4.635e-05 4.5942e-08 3.172e-08)
(4.2502e-05 1.998e-07 1.3422e-07)
(3.8636e-05 4.441e-07 2.9702e-07)
(3.4735e-05 6.7854e-07 4.5331e-07)
(3.0752e-05 7.8422e-07 5.2389e-07)
(2.6582e-05 6.5992e-07 4.4099e-07)
(2.2013e-05 3.1535e-07 2.1067e-07)
(1.6747e-05 -6.7418e-08 -4.5388e-08)
(1.0581e-05 -2.4397e-07 -1.6346e-07)
(3.6311e-06 -1.2667e-07 -8.4846e-08)
(5.3983e-05 2.1261e-07 1.0689e-07)
(5.0179e-05 5.3713e-08 2.728e-08)
(4.6347e-05 4.1261e-08 2.1015e-08)
(4.2498e-05 1.4256e-07 7.173e-08)
(3.8629e-05 3.0477e-07 1.5296e-07)
(3.4719e-05 4.5922e-07 2.3034e-07)
(3.0718e-05 5.2632e-07 2.64e-07)
(2.6514e-05 4.4162e-07 2.2158e-07)
(2.1901e-05 2.1495e-07 1.0785e-07)
(1.6608e-05 -3.4716e-08 -1.7506e-08)
(1.0461e-05 -1.5135e-07 -7.6058e-08)
(3.5835e-06 -7.9517e-08 -3.9954e-08)
(5.3978e-05 1.1218e-07 -1.2025e-10)
(5.0176e-05 3.0638e-08 -1.0539e-10)
(4.6346e-05 2.351e-08 -1.3349e-10)
(4.2496e-05 7.4181e-08 -1.8753e-10)
(3.8625e-05 1.5569e-07 -2.4261e-10)
(3.471e-05 2.3301e-07 -2.7267e-10)
(3.07e-05 2.6599e-07 -2.5939e-10)
(2.6479e-05 2.2289e-07 -1.9948e-10)
(2.1845e-05 1.0945e-07 -1.1058e-10)
(1.6537e-05 -1.5004e-08 -2.822e-11)
(1.0401e-05 -7.3506e-08 1.4779e-11)
(3.5598e-06 -3.8863e-08 1.1731e-11)
(5.3978e-05 -1.4484e-10 -1.1244e-07)
(5.0176e-05 -2.291e-10 -3.0953e-08)
(4.6346e-05 -2.8737e-10 -2.3896e-08)
(4.2496e-05 -3.1998e-10 -7.4638e-08)
(3.8625e-05 -3.2947e-10 -1.562e-07)
(3.471e-05 -3.212e-10 -2.3354e-07)
(3.07e-05 -3.0221e-10 -2.6648e-07)
(2.6479e-05 -2.7909e-10 -2.233e-07)
(2.1844e-05 -2.5205e-10 -1.0976e-07)
(1.6537e-05 -2.1126e-10 1.4804e-08)
(1.0401e-05 -1.4481e-10 7.3398e-08)
(3.5597e-06 -5.2023e-11 3.883e-08)
(5.3982e-05 -1.072e-07 -2.1286e-07)
(5.0179e-05 -2.7652e-08 -5.4019e-08)
(4.6347e-05 -2.1488e-08 -4.1626e-08)
(4.2498e-05 -7.2316e-08 -1.4298e-07)
(3.8629e-05 -1.5364e-07 -3.0522e-07)
(3.4719e-05 -2.3106e-07 -4.5967e-07)
(3.0717e-05 -2.647e-07 -5.2673e-07)
(2.6514e-05 -2.2217e-07 -4.4196e-07)
(2.1901e-05 -1.0829e-07 -2.1521e-07)
(1.6607e-05 1.7225e-08 3.4546e-08)
(1.0461e-05 7.5914e-08 1.5125e-07)
(3.5834e-06 3.9912e-08 7.9487e-08)
(5.399e-05 -1.9463e-07 -2.8984e-07)
(5.0183e-05 -4.1454e-08 -6.0128e-08)
(4.635e-05 -3.2255e-08 -4.6289e-08)
(4.2502e-05 -1.349e-07 -2.0016e-07)
(3.8636e-05 -2.9782e-07 -4.4444e-07)
(3.4734e-05 -4.5418e-07 -6.7881e-07)
(3.0751e-05 -5.2474e-07 -7.8442e-07)
(2.6582e-05 -4.4171e-07 -6.6008e-07)
(2.2012e-05 -2.112e-07 -3.155e-07)
(1.6747e-05 4.5066e-08 6.7262e-08)
(1.0581e-05 1.6331e-07 2.4384e-07)
(3.6311e-06 8.4804e-08 1.2662e-07)
(5.4001e-05 -2.5391e-07 -3.358e-07)
(5.0189e-05 -3.4015e-08 -4.2146e-08)
(4.6354e-05 -2.6716e-08 -3.2444e-08)
(4.2507e-05 -1.8458e-07 -2.4337e-07)
(3.8646e-05 -4.3233e-07 -5.7441e-07)
(3.4755e-05 -6.7296e-07 -8.9582e-07)
(3.0798e-05 -7.876e-07 -1.0486e-06)
(2.6678e-05 -6.664e-07 -8.869e-07)
(2.2176e-05 -3.0998e-07 -4.1258e-07)
(1.6956e-05 9.1686e-08 1.2137e-07)
(1.0764e-05 2.737e-07 3.634e-07)
(3.7041e-06 1.4e-07 1.8589e-07)
(5.4001e-05 2.5332e-07 3.3585e-07)
(5.019e-05 3.3357e-08 4.2017e-08)
(4.6355e-05 2.5966e-08 3.2197e-08)
(4.2507e-05 1.8373e-07 2.4307e-07)
(3.8646e-05 4.3141e-07 5.7412e-07)
(3.4756e-05 6.7202e-07 8.956e-07)
(3.0798e-05 7.8671e-07 1.0485e-06)
(2.6678e-05 6.6562e-07 8.8684e-07)
(2.2177e-05 3.0937e-07 4.1253e-07)
(1.6957e-05 -9.2125e-08 -1.2146e-07)
(1.0764e-05 -2.7396e-07 -3.635e-07)
(3.7042e-06 -1.4009e-07 -1.8593e-07)
(5.399e-05 1.9406e-07 2.8986e-07)
(5.0183e-05 4.0846e-08 5.9999e-08)
(4.635e-05 3.1563e-08 4.6053e-08)
(4.2502e-05 1.341e-07 1.9987e-07)
(3.8636e-05 2.9692e-07 4.4415e-07)
(3.4735e-05 4.5322e-07 6.7859e-07)
(3.0752e-05 5.2379e-07 7.8428e-07)
(2.6582e-05 4.4088e-07 6.6e-07)
(2.2013e-05 2.1056e-07 3.1543e-07)
(1.6747e-05 -4.5481e-08 -6.7346e-08)
(1.0581e-05 -1.6352e-07 -2.4393e-07)
(3.6311e-06 -8.4868e-08 -1.2665e-07)
(5.3983e-05 1.0672e-07 2.1279e-07)
(5.0179e-05 2.7107e-08 5.3866e-08)
(4.6347e-05 2.0857e-08 4.1381e-08)
(4.2498e-05 7.1594e-08 1.4265e-07)
(3.8629e-05 1.5284e-07 3.0484e-07)
(3.4719e-05 2.3023e-07 4.5929e-07)
(3.0718e-05 2.6389e-07 5.264e-07)
(2.6514e-05 2.2145e-07 4.4172e-07)
(2.1901e-05 1.0771e-07 2.1506e-07)
(1.6608e-05 -1.763e-08 -3.462e-08)
(1.0461e-05 -7.6145e-08 -1.5128e-07)
(3.5835e-06 -3.9986e-08 -7.9494e-08)
(5.3978e-05 -2.6206e-10 1.1233e-07)
(5.0176e-05 -2.7565e-10 3.079e-08)
(4.6346e-05 -3.0676e-10 2.3647e-08)
(4.2496e-05 -3.4759e-10 7.4293e-08)
(3.8625e-05 -3.8617e-10 1.5578e-07)
(3.471e-05 -4.0872e-10 2.331e-07)
(3.07e-05 -4.0184e-10 2.6608e-07)
(2.6479e-05 -3.5778e-10 2.2301e-07)
(2.1845e-05 -2.8073e-10 1.0958e-07)
(1.6538e-05 -1.8836e-10 -1.4879e-08)
(1.0401e-05 -1.0192e-10 -7.3413e-08)
(3.5598e-06 -3.1253e-11 -3.8829e-08)
(5.3978e-05 -1.1259e-07 -3.2557e-11)
(5.0176e-05 -3.1142e-08 -7.0653e-11)
(4.6346e-05 -2.4105e-08 -1.2381e-10)
(4.2496e-05 -7.4851e-08 -1.7964e-10)
(3.8625e-05 -1.5641e-07 -2.2204e-10)
(3.471e-05 -2.3375e-07 -2.3684e-10)
(3.07e-05 -2.667e-07 -2.1791e-10)
(2.6479e-05 -2.2354e-07 -1.6973e-10)
(2.1845e-05 -1.0999e-07 -1.0698e-10)
(1.6537e-05 1.4601e-08 -4.9976e-11)
(1.0401e-05 7.3257e-08 -1.426e-11)
(3.5598e-06 3.8779e-08 -1.4688e-12)
(5.3982e-05 -2.1311e-07 -1.0708e-07)
(5.0179e-05 -5.4265e-08 -2.7467e-08)
(4.6347e-05 -4.1901e-08 -2.1283e-08)
(4.2498e-05 -1.4331e-07 -7.2126e-08)
(3.8629e-05 -3.0562e-07 -1.5348e-07)
(3.4719e-05 -4.6013e-07 -2.3093e-07)
(3.0718e-05 -5.2722e-07 -2.6457e-07)
(2.6514e-05 -4.4242e-07 -2.2203e-07)
(2.1901e-05 -2.1558e-07 -1.0811e-07)
(1.6607e-05 3.4303e-08 1.7424e-08)
(1.0461e-05 1.5113e-07 7.6075e-08)
(3.5834e-06 7.9451e-08 3.9974e-08)
(5.399e-05 -2.9036e-07 -1.9421e-07)
(5.0183e-05 -6.0482e-08 -4.116e-08)
(4.635e-05 -4.6669e-08 -3.1946e-08)
(4.2502e-05 -2.0072e-07 -1.3446e-07)
(3.8636e-05 -4.4524e-07 -2.9719e-07)
(3.4734e-05 -6.7985e-07 -4.5337e-07)
(3.0751e-05 -7.8555e-07 -5.2384e-07)
(2.6582e-05 -6.6108e-07 -4.4092e-07)
(2.2013e-05 -3.1616e-07 -2.1069e-07)
(1.6747e-05 6.7e-08 4.525e-08)
(1.0581e-05 2.4384e-07 1.6328e-07)
(3.6311e-06 1.2665e-07 8.4765e-08)
(5.4001e-05 -3.3622e-07 -2.5351e-07)
(5.0189e-05 -4.2528e-08 -3.3693e-08)
(4.6354e-05 -3.2866e-08 -2.6367e-08)
(4.2507e-05 -2.4389e-07 -1.8412e-07)
(3.8646e-05 -5.7505e-07 -4.3172e-07)
(3.4756e-05 -8.9656e-07 -6.7222e-07)
(3.0798e-05 -1.0494e-06 -7.868e-07)
(2.6678e-05 -8.876e-07 -6.6569e-07)
(2.2176e-05 -4.1313e-07 -3.095e-07)
(1.6956e-05 1.2102e-07 9.1908e-08)
(1.0764e-05 3.6323e-07 2.7374e-07)
(3.7041e-06 1.8584e-07 1.3999e-07)
(5.4005e-05 1.6207e-07 3.9822e-07)
(5.0192e-05 1.7231e-08 3.4143e-08)
(4.6356e-05 1.3668e-08 2.5228e-08)
(4.2508e-05 1.1985e-07 2.9231e-07)
(3.8649e-05 2.8605e-07 7.103e-07)
(3.4762e-05 4.4818e-07 1.1176e-06)
(3.0812e-05 5.2669e-07 1.3139e-06)
(2.6708e-05 4.4638e-07 1.1126e-06)
(2.2228e-05 2.0598e-07 5.1355e-07)
(1.7023e-05 -6.6016e-08 -1.6267e-07)
(1.0822e-05 -1.8871e-07 -4.6788e-07)
(3.7276e-06 -9.6198e-08 -2.3853e-07)
(5.3994e-05 9.2762e-08 3.6783e-07)
(5.0186e-05 1.7433e-08 6.5167e-08)
(4.6352e-05 1.3543e-08 4.9468e-08)
(4.2504e-05 6.5154e-08 2.5677e-07)
(3.8639e-05 1.4681e-07 5.8476e-07)
(3.4742e-05 2.2553e-07 9.0063e-07)
(3.0767e-05 2.6173e-07 1.0453e-06)
(2.6614e-05 2.2065e-07 8.8071e-07)
(2.2067e-05 1.0444e-07 4.173e-07)
(1.6815e-05 -2.5338e-08 -9.9142e-08)
(1.064e-05 -8.4816e-08 -3.3609e-07)
(3.6545e-06 -4.3799e-08 -1.7368e-07)
(5.3987e-05 -5.4535e-10 3.0329e-07)
(5.0181e-05 -3.6113e-10 6.9384e-08)
(4.6349e-05 -3.5604e-10 5.307e-08)
(4.25e-05 -4.8739e-10 2.0581e-07)
(3.8633e-05 -6.8637e-10 4.4941e-07)
(3.4727e-05 -8.6564e-10 6.8223e-07)
(3.0735e-05 -9.2681e-10 7.8517e-07)
(2.6548e-05 -7.9327e-10 6.5965e-07)
(2.1957e-05 -4.7905e-10 3.1828e-07)
(1.6676e-05 -1.2875e-10 -5.9119e-08)
(1.052e-05 7.2378e-11 -2.3438e-07)
(3.607e-06 5.7797e-11 -1.2244e-07)
(5.3983e-05 -1.0736e-07 2.1293e-07)
(5.0179e-05 -2.7701e-08 5.3919e-08)
(4.6347e-05 -2.1487e-08 4.1406e-08)
(4.2498e-05 -7.2314e-08 1.427e-07)
(3.8629e-05 -1.5367e-07 3.0493e-07)
(3.4719e-05 -2.3113e-07 4.5943e-07)
(3.0718e-05 -2.6479e-07 5.2655e-07)
(2.6514e-05 -2.2224e-07 4.4184e-07)
(2.1901e-05 -1.083e-07 2.1511e-07)
(1.6608e-05 1.7279e-08 -3.464e-08)
(1.0461e-05 7.5987e-08 -1.5133e-07)
(3.5835e-06 3.9945e-08 -7.952e-08)
(5.3982e-05 -2.1307e-07 1.0707e-07)
(5.0179e-05 -5.4245e-08 2.7349e-08)
(4.6347e-05 -4.1863e-08 2.1037e-08)
(4.2498e-05 -1.4323e-07 7.175e-08)
(3.8629e-05 -3.0549e-07 1.5301e-07)
(3.4719e-05 -4.5996e-07 2.3042e-07)
(3.0718e-05 -5.2703e-07 2.6409e-07)
(2.6514e-05 -4.4226e-07 2.2165e-07)
(2.1901e-05 -2.1548e-07 1.0786e-07)
(1.6607e-05 3.4328e-08 -1.7545e-08)
(1.0461e-05 1.5111e-07 -7.6113e-08)
(3.5835e-06 7.9439e-08 -3.998e-08)
(5.3986e-05 -3.0349e-07 -1.9364e-10)
(5.0181e-05 -6.9756e-08 -1.0275e-10)
(4.6349e-05 -5.3594e-08 -1.6277e-10)
(4.25e-05 -2.0646e-07 -3.3054e-10)
(3.8632e-05 -4.5013e-07 -5.3979e-10)
(3.4727e-05 -6.8296e-07 -7.1087e-10)
(3.0735e-05 -7.8585e-07 -7.6169e-10)
(2.6548e-05 -6.6024e-07 -6.3353e-10)
(2.1957e-05 -3.1875e-07 -3.4867e-10)
(1.6676e-05 5.8768e-08 -4.3336e-11)
(1.052e-05 2.3416e-07 1.148e-10)
(3.6069e-06 1.2236e-07 6.9626e-11)
(5.3994e-05 -3.6823e-07 -9.3301e-08)
(5.0185e-05 -6.5706e-08 -1.7873e-08)
(4.6352e-05 -5.0156e-08 -1.4033e-08)
(4.2503e-05 -2.5759e-07 -6.5798e-08)
(3.8639e-05 -5.8566e-07 -1.4764e-07)
(3.4741e-05 -9.0154e-07 -2.265e-07)
(3.0767e-05 -1.0461e-06 -2.6271e-07)
(2.6614e-05 -8.814e-07 -2.2148e-07)
(2.2066e-05 -4.1789e-07 -1.0497e-07)
(1.6814e-05 9.8651e-08 2.5107e-08)
(1.064e-05 3.3574e-07 8.4781e-08)
(3.6544e-06 1.7356e-07 4.381e-08)
(5.4005e-05 -3.9852e-07 -1.6225e-07)
(5.0191e-05 -3.4709e-08 -1.761e-08)
(4.6355e-05 -2.5976e-08 -1.4109e-08)
(4.2508e-05 -2.9316e-07 -1.2024e-07)
(3.8648e-05 -7.1115e-07 -2.8629e-07)
(3.4761e-05 -1.1183e-06 -4.4825e-07)
(3.0812e-05 -1.3145e-06 -5.2662e-07)
(2.6708e-05 -1.1131e-06 -4.4631e-07)
(2.2228e-05 -5.1408e-07 -2.0608e-07)
(1.7022e-05 1.621e-07 6.5701e-08)
(1.0822e-05 4.6741e-07 1.8835e-07)
(3.7273e-06 2.3834e-07 9.6041e-08)
(5.4012e-05 7.3631e-08 4.3154e-07)
(5.0196e-05 2.9072e-09 3.0197e-09)
(4.6358e-05 2.5316e-09 -2.1341e-10)
(4.2511e-05 5.6791e-08 3.27e-07)
(3.8653e-05 1.4121e-07 8.3604e-07)
(3.4773e-05 2.242e-07 1.3356e-06)
(3.0839e-05 2.6556e-07 1.5836e-06)
(2.6766e-05 2.2583e-07 1.3453e-06)
(2.233e-05 1.0295e-07 6.1048e-07)
(1.7156e-05 -3.707e-08 -2.2519e-07)
(1.094e-05 -9.9828e-08 -5.9861e-07)
(3.7746e-06 -5.0589e-08 -3.0294e-07)
(5.4002e-05 -6.826e-10 4.1791e-07)
(5.019e-05 -3.9041e-10 4.8586e-08)
(4.6355e-05 -3.6335e-10 3.5851e-08)
(4.2507e-05 -5.3948e-10 3.0023e-07)
(3.8645e-05 -8.2064e-10 7.1563e-07)
(3.4755e-05 -1.083e-09 1.1186e-06)
(3.0797e-05 -1.1858e-09 1.3093e-06)
(2.6677e-05 -1.0096e-09 1.1064e-06)
(2.2173e-05 -5.6285e-10 5.1512e-07)
(1.695e-05 -6.8868e-11 -1.4893e-07)
(1.0758e-05 1.8969e-10 -4.5024e-07)
(3.7017e-06 1.1601e-10 -2.3055e-07)
(5.3994e-05 -9.3651e-08 3.6807e-07)
(5.0186e-05 -1.813e-08 6.532e-08)
(4.6352e-05 -1.4219e-08 4.9571e-08)
(4.2504e-05 -6.5937e-08 2.5685e-07)
(3.8639e-05 -1.4775e-07 5.8483e-07)
(3.4742e-05 -2.2661e-07 9.0069e-07)
(3.0767e-05 -2.6283e-07 1.0453e-06)
(2.6614e-05 -2.216e-07 8.8071e-07)
(2.2066e-05 -1.0508e-07 4.1733e-07)
(1.6814e-05 2.5031e-08 -9.9063e-08)
(1.064e-05 8.4739e-08 -3.36e-07)
(3.6544e-06 4.3797e-08 -1.7364e-07)
(5.399e-05 -1.945e-07 2.9022e-07)
(5.0183e-05 -4.14e-08 6.0125e-08)
(4.635e-05 -3.2146e-08 4.6121e-08)
(4.2502e-05 -1.3464e-07 2.0002e-07)
(3.8636e-05 -2.9736e-07 4.4445e-07)
(3.4735e-05 -4.5356e-07 6.7904e-07)
(3.0752e-05 -5.2404e-07 7.8479e-07)
(2.6582e-05 -4.4112e-07 6.6042e-07)
(2.2013e-05 -2.1087e-07 3.1563e-07)
(1.6747e-05 4.5108e-08 -6.7393e-08)
(1.0581e-05 1.632e-07 -2.4408e-07)
(3.6311e-06 8.4737e-08 -1.2673e-07)
(5.399e-05 -2.9008e-07 1.9452e-07)
(5.0183e-05 -6.0367e-08 4.1136e-08)
(4.635e-05 -4.6527e-08 3.1755e-08)
(4.2502e-05 -2.0041e-07 1.3426e-07)
(3.8636e-05 -4.447e-07 2.971e-07)
(3.4734e-05 -6.7911e-07 4.5344e-07)
(3.0752e-05 -7.8474e-07 5.2404e-07)
(2.6582e-05 -6.604e-07 4.411e-07)
(2.2013e-05 -3.1578e-07 2.107e-07)
(1.6747e-05 6.7038e-08 -4.5439e-08)
(1.0581e-05 2.4371e-07 -1.6354e-07)
(3.6311e-06 1.2657e-07 -8.4883e-08)
(5.3994e-05 -3.6802e-07 9.3191e-08)
(5.0185e-05 -6.5546e-08 1.7725e-08)
(4.6352e-05 -5.0001e-08 1.374e-08)
(4.2503e-05 -2.5741e-07 6.5296e-08)
(3.8639e-05 -5.8545e-07 1.4693e-07)
(3.4741e-05 -9.0133e-07 2.2565e-07)
(3.0767e-05 -1.0459e-06 2.6186e-07)
(2.6614e-05 -8.8126e-07 2.2077e-07)
(2.2066e-05 -4.1776e-07 1.0452e-07)
(1.6815e-05 9.8782e-08 -2.5299e-08)
(1.064e-05 3.3585e-07 -8.4809e-08)
(3.6545e-06 1.736e-07 -4.38e-08)
(5.4001e-05 -4.1807e-07 -2.7386e-10)
(5.019e-05 -4.8988e-08 -1.0487e-10)
(4.6354e-05 -3.6459e-08 -1.7348e-10)
(4.2506e-05 -3.01e-07 -4.1809e-10)
(3.8645e-05 -7.1648e-07 -7.4021e-10)
(3.4755e-05 -1.1195e-06 -1.0173e-09)
(3.0797e-05 -1.3101e-06 -1.1208e-09)
(2.6676e-05 -1.1071e-06 -9.4721e-10)
(2.2173e-05 -5.1568e-07 -5.1453e-10)
(1.695e-05 1.4851e-07 -4.2366e-11)
(1.0758e-05 4.4997e-07 1.9817e-10)
(3.7016e-06 2.3046e-07 1.1698e-10)
(5.4012e-05 -4.3181e-07 -7.4189e-08)
(5.0195e-05 -3.5362e-09 -3.3287e-09)
(4.6358e-05 -5.2883e-10 -3.0073e-09)
(4.251e-05 -3.2792e-07 -5.7458e-08)
(3.8653e-05 -8.3707e-07 -1.4212e-07)
(3.4773e-05 -1.3366e-06 -2.253e-07)
(3.0838e-05 -1.5846e-06 -2.667e-07)
(2.6765e-05 -1.3461e-06 -2.268e-07)
(2.233e-05 -6.1115e-07 -1.0355e-07)
(1.7156e-05 2.2466e-07 3.6868e-08)
(1.0939e-05 5.9826e-07 9.9863e-08)
(3.7745e-06 3.0282e-07 5.0637e-08)
(5.4022e-05 -5.0775e-10 4.2864e-07)
(5.0201e-05 -3.4237e-10 -5.6325e-08)
(4.6361e-05 -3.143e-10 -4.7793e-08)
(4.2514e-05 -3.8784e-10 3.4396e-07)
(3.866e-05 -5.1224e-10 9.483e-07)
(3.4788e-05 -6.2933e-10 1.5478e-06)
(3.0874e-05 -6.6945e-10 1.8593e-06)
(2.6846e-05 -5.7059e-10 1.5885e-06)
(2.2479e-05 -3.3096e-10 7.0307e-07)
(1.7355e-05 -6.7359e-11 -3.1672e-07)
(1.1117e-05 7.616e-11 -7.6587e-07)
(3.8459e-06 5.2694e-11 -3.837e-07)
(5.4012e-05 -7.4579e-08 4.3166e-07)
(5.0196e-05 -3.5964e-09 3.0996e-09)
(4.6358e-05 -3.173e-09 -1.6708e-10)
(4.2511e-05 -5.7543e-08 3.2702e-07)
(3.8653e-05 -1.4215e-07 8.3606e-07)
(3.4773e-05 -2.2531e-07 1.3356e-06)
(3.0839e-05 -2.6671e-07 1.5836e-06)
(2.6766e-05 -2.2681e-07 1.3453e-06)
(2.233e-05 -1.0356e-07 6.1048e-07)
(1.7156e-05 3.6863e-08 -2.2516e-07)
(1.094e-05 9.9865e-08 -5.9857e-07)
(3.7745e-06 5.0639e-08 -3.0292e-07)
(5.4005e-05 -1.6259e-07 3.9839e-07)
(5.0192e-05 -1.7852e-08 3.4294e-08)
(4.6356e-05 -1.4269e-08 2.5315e-08)
(4.2508e-05 -1.2033e-07 2.923e-07)
(3.8649e-05 -2.8636e-07 7.1018e-07)
(3.4762e-05 -4.4831e-07 1.1173e-06)
(3.0812e-05 -5.2669e-07 1.3136e-06)
(2.6708e-05 -4.4639e-07 1.1123e-06)
(2.2228e-05 -2.0616e-07 5.1344e-07)
(1.7023e-05 6.5645e-08 -1.6258e-07)
(1.0822e-05 1.8832e-07 -4.677e-07)
(3.7274e-06 9.6031e-08 -2.3844e-07)
(5.4001e-05 -2.5381e-07 3.3609e-07)
(5.019e-05 -3.3921e-08 4.2146e-08)
(4.6355e-05 -2.6541e-08 3.2255e-08)
(4.2507e-05 -1.8426e-07 2.431e-07)
(3.8646e-05 -4.3185e-07 5.7415e-07)
(3.4756e-05 -6.7236e-07 8.9563e-07)
(3.0798e-05 -7.8696e-07 1.0485e-06)
(2.6678e-05 -6.6586e-07 8.8685e-07)
(2.2176e-05 -3.0966e-07 4.1252e-07)
(1.6956e-05 9.1781e-08 -1.2147e-07)
(1.0764e-05 2.7366e-07 -3.6351e-07)
(3.7042e-06 1.3997e-07 -1.8594e-07)
(5.4001e-05 -3.3605e-07 2.5382e-07)
(5.019e-05 -4.2375e-08 3.3675e-08)
(4.6355e-05 -3.2656e-08 2.6162e-08)
(4.2507e-05 -2.4358e-07 1.8385e-07)
(3.8646e-05 -5.7464e-07 4.315e-07)
(3.4756e-05 -8.9608e-07 6.721e-07)
(3.0798e-05 -1.0489e-06 7.8679e-07)
(2.6678e-05 -8.872e-07 6.657e-07)
(2.2177e-05 -4.1286e-07 3.0942e-07)
(1.6956e-05 1.2115e-07 -9.2106e-08)
(1.0764e-05 3.6327e-07 -2.7396e-07)
(3.7042e-06 1.8585e-07 -1.4009e-07)
(5.4005e-05 -3.984e-07 1.6254e-07)
(5.0192e-05 -3.4521e-08 1.7556e-08)
(4.6356e-05 -2.5759e-08 1.3876e-08)
(4.2508e-05 -2.9295e-07 1.1998e-07)
(3.8648e-05 -7.1099e-07 2.8613e-07)
(3.4762e-05 -1.1182e-06 4.4824e-07)
(3.0812e-05 -1.3145e-06 5.2674e-07)
(2.6708e-05 -1.1131e-06 4.4643e-07)
(2.2228e-05 -5.1399e-07 2.0601e-07)
(1.7023e-05 1.6231e-07 -6.601e-08)
(1.0822e-05 4.6764e-07 -1.8872e-07)
(3.7275e-06 2.3844e-07 -9.6203e-08)
(5.4012e-05 -4.317e-07 7.4091e-08)
(5.0195e-05 -3.4279e-09 3.2254e-09)
(4.6358e-05 -4.0376e-10 2.7373e-09)
(4.251e-05 -3.2777e-07 5.691e-08)
(3.8653e-05 -8.369e-07 1.4127e-07)
(3.4773e-05 -1.3364e-06 2.2423e-07)
(3.0838e-05 -1.5844e-06 2.6557e-07)
(2.6766e-05 -1.346e-06 2.2584e-07)
(2.233e-05 -6.1104e-07 1.0295e-07)
(1.7156e-05 2.2476e-07 -3.708e-08)
(1.094e-05 5.9834e-07 -9.9841e-08)
(3.7745e-06 3.0285e-07 -5.0595e-08)
(5.4022e-05 -4.2877e-07 -7.2169e-11)
(5.0201e-05 5.5881e-08 -4.2699e-11)
(4.6361e-05 4.708e-08 -1.2655e-10)
(4.2513e-05 -3.4488e-07 -2.9465e-10)
(3.866e-05 -9.4934e-07 -4.92e-10)
(3.4788e-05 -1.5488e-06 -6.4799e-10)
(3.0874e-05 -1.8602e-06 -7.0052e-10)
(2.6846e-05 -1.5893e-06 -6.014e-10)
(2.2478e-05 -7.0375e-07 -3.6065e-10)
(1.7355e-05 3.1621e-07 -9.6681e-11)
(1.1117e-05 7.6556e-07 5.2538e-11)
(3.8459e-06 3.8359e-07 4.342e-11)
(4.1267e-06 -6.8975e-07 5.4958e-08)
(1.1808e-05 -1.4088e-06 1.1145e-07)
(1.8114e-05 -6.9929e-07 4.9994e-08)
(2.3021e-05 9.7401e-07 -9.0523e-08)
(2.7121e-05 2.3671e-06 -2.0897e-07)
(3.0986e-05 2.7095e-06 -2.401e-07)
(3.4834e-05 2.16e-06 -1.9383e-07)
(3.868e-05 1.2352e-06 -1.133e-07)
(4.2523e-05 3.3438e-07 -3.4663e-08)
(4.637e-05 -2.6427e-07 1.7332e-08)
(5.0218e-05 -3.2965e-07 2.3318e-08)
(5.4055e-05 2.9411e-07 -3.0168e-08)
(4.0378e-06 -5.6575e-07 1.439e-07)
(1.1591e-05 -1.1443e-06 2.896e-07)
(1.7882e-05 -5.3187e-07 1.2794e-07)
(2.2866e-05 8.876e-07 -2.4186e-07)
(2.7052e-05 2.0921e-06 -5.5684e-07)
(3.0962e-05 2.4199e-06 -6.4478e-07)
(3.4825e-05 1.9649e-06 -5.2744e-07)
(3.8676e-05 1.1552e-06 -3.1568e-07)
(4.2522e-05 3.5583e-07 -1.0639e-07)
(4.6368e-05 -1.7075e-07 3.0948e-08)
(5.0213e-05 -2.143e-07 4.1713e-08)
(5.4045e-05 3.6491e-07 -1.1083e-07)
(3.9796e-06 -4.6542e-07 2.2872e-07)
(1.1448e-05 -9.3592e-07 4.5909e-07)
(1.7727e-05 -4.1357e-07 2.0212e-07)
(2.2757e-05 7.847e-07 -3.8709e-07)
(2.7e-05 1.8118e-06 -8.9124e-07)
(3.0943e-05 2.1069e-06 -1.0359e-06)
(3.4819e-05 1.7312e-06 -8.5343e-07)
(3.8674e-05 1.0395e-06 -5.1785e-07)
(4.2521e-05 3.5041e-07 -1.8373e-07)
(4.6367e-05 -1.0105e-07 3.4652e-08)
(5.021e-05 -1.287e-07 4.6475e-08)
(5.4038e-05 3.8947e-07 -2.0795e-07)
(3.9514e-06 -3.8329e-07 3.0764e-07)
(1.1379e-05 -7.6986e-07 6.1788e-07)
(1.7651e-05 -3.347e-07 2.7026e-07)
(2.2702e-05 6.6206e-07 -5.2733e-07)
(2.6972e-05 1.5182e-06 -1.2113e-06)
(3.0934e-05 1.7682e-06 -1.4102e-06)
(3.4816e-05 1.461e-06 -1.1657e-06)
(3.8674e-05 8.8857e-07 -7.1141e-07)
(4.2521e-05 3.1574e-07 -2.5704e-07)
(4.6366e-05 -5.8481e-08 3.9572e-08)
(5.0208e-05 -7.5966e-08 5.2429e-08)