/*--------------------------------*- C++ -*----------------------------------*\
| =========                 |                                                 |
| \\      /  F ield         | OpenFOAM: The Open Source CFD Toolbox           |
|  \\    /   O peration     | Version:  4.1                                   |
|   \\  /    A nd           | Web:      www.OpenFOAM.org                      |
|    \\/     M anipulation  |                                                 |
\*---------------------------------------------------------------------------*/
FoamFile
{
    version     2.0;
    format      ascii;
    class       volVectorField;
    location    "0.000780";
    object      cellDisplacement;
}
// * * * * * * * * * * * * * * * * * * * * * * * * * * * * * * * * * * * * * //

dimensions      [0 1 0 0 0 0 0];

internalField   nonuniform List<vector> 
3072
(
(0 0.00014375855 8.0369559e-09)
(0 0.00011200775 7.1151208e-08)
(0 7.8459961e-05 8.7941317e-08)
(0 4.3663184e-05 8.4650139e-08)
(0 8.173924e-06 6.3038106e-08)
(0 -2.7464332e-05 4.4845163e-08)
(0 -6.2704548e-05 2.0645572e-08)
(0 -9.6960037e-05 5.3447227e-09)
(0 -0.00012993282 -3.4359998e-08)
(0 -0.0001605098 -5.0575636e-08)
(0 -0.00018853272 -8.7927863e-08)
(0 -0.00021351425 -1.0420147e-07)
(0 -0.0002350522 -1.3399459e-07)
(0 -0.00025274702 -1.0414508e-07)
(0 -0.0002663042 -7.5421125e-08)
(0 -0.00027541158 -6.7552278e-08)
(0 -0.00027965041 -6.4700104e-08)
(0 -0.00027880438 -7.5293081e-08)
(0 -0.00027221369 -6.4135049e-08)
(0 -0.00025892392 -5.2067728e-08)
(0 -0.00023677015 -3.0289515e-08)
(0 -0.00020164719 -1.274077e-08)
(0 -0.00014538166 -1.2106938e-08)
(0 -5.5957655e-05 1.8661981e-09)
(0 0.00012676903 -2.9341228e-05)
(0 9.887041e-05 -3.281334e-05)
(0 6.9389976e-05 -3.5733724e-05)
(0 3.8859116e-05 -3.8095443e-05)
(0 7.7477574e-06 -3.9844833e-05)
(0 -2.346724e-05 -4.0921068e-05)
(0 -5.4279379e-05 -4.1328352e-05)
(0 -8.416799e-05 -4.1019226e-05)
(0 -0.00011298151 -4.0016744e-05)
(0 -0.00013965638 -3.8292026e-05)
(0 -0.00016407648 -3.5920787e-05)
(0 -0.00018582907 -3.289633e-05)
(0 -0.00020462245 -2.9307093e-05)
(0 -0.00022022332 -2.5114811e-05)
(0 -0.00023208041 -2.0455625e-05)
(0 -0.00024012062 -1.5460258e-05)
(0 -0.0002439473 -1.0245424e-05)
(0 -0.00024331945 -4.8823646e-06)
(0 -0.00023765143 4.524379e-07)
(0 -0.00022591185 5.5015605e-06)
(0 -0.00020603886 9.8056446e-06)
(0 -0.00017433223 1.2532932e-05)
(0 -0.0001239716 1.2209044e-05)
(0 -4.6671508e-05 6.4242446e-06)
(0 0.00010734432 -5.9515926e-05)
(0 8.373677e-05 -6.645821e-05)
(0 5.8874663e-05 -7.2288704e-05)
(0 3.3149031e-05 -7.6994279e-05)
(0 6.9415117e-06 -8.0411215e-05)
(0 -1.9339086e-05 -8.2463902e-05)
(0 -4.5235536e-05 -8.3210859e-05)
(0 -7.0399619e-05 -8.2515036e-05)
(0 -9.4603709e-05 -8.040981e-05)
(0 -0.00011701509 -7.6878515e-05)
(0 -0.00013753577 -7.2037437e-05)
(0 -0.0001558256 -6.5915615e-05)
(0 -0.00017172483 -5.8641449e-05)
(0 -0.000184954 -5.0246949e-05)
(0 -0.00019508051 -4.0911596e-05)
(0 -0.00020198318 -3.0859049e-05)
(0 -0.00020534061 -2.0314481e-05)
(0 -0.00020499519 -9.4849348e-06)
(0 -0.00020039787 1.2587216e-06)
(0 -0.00019052136 1.1391278e-05)
(0 -0.00017354606 1.9916117e-05)
(0 -0.00014628318 2.5135832e-05)
(0 -0.00010323754 2.3978488e-05)
(0 -3.8563659e-05 1.2154869e-05)
(0 8.6825621e-05 -9.0212034e-05)
(0 6.7764638e-05 -0.00010054534)
(0 4.7760326e-05 -0.0001092525)
(0 2.7116048e-05 -0.00011620812)
(0 6.0888337e-06 -0.00012129888)
(0 -1.4988252e-05 -0.00012427983)
(0 -3.5744728e-05 -0.00012525372)
(0 -5.5887181e-05 -0.00012408924)
(0 -7.528969e-05 -0.0001208195)
(0 -9.3233502e-05 -0.00011541669)
(0 -0.00010965727 -0.00010807094)
(0 -0.0001243133 -9.8815954e-05)
(0 -0.0001371434 -8.7852863e-05)
(0 -0.00014781246 -7.5246167e-05)
(0 -0.0001560247 -6.1234586e-05)
(0 -0.00016169356 -4.6127479e-05)
(0 -0.00016458313 -3.0242352e-05)
(0 -0.00016445482 -1.395347e-05)
(0 -0.00016100217 2.2201049e-06)
(0 -0.00015313094 1.741665e-05)
(0 -0.00013952737 3.0132858e-05)
(0 -0.00011754007 3.7706498e-05)
(0 -8.2891895e-05 3.5600788e-05)
(0 -3.1051635e-05 1.7694414e-05)
(0 6.5698512e-05 -0.00012057187)
(0 5.155291e-05 -0.00013424291)
(0 3.6620204e-05 -0.00014574988)
(0 2.1235873e-05 -0.00015488007)
(0 5.5574909e-06 -0.00016149079)
(0 -1.0173103e-05 -0.00016536258)
(0 -2.5674875e-05 -0.0001664547)
(0 -4.0723248e-05 -0.00016474556)
(0 -5.5231933e-05 -0.00016026259)
(0 -6.8648275e-05 -0.0001529659)
(0 -8.0934443e-05 -0.00014312941)
(0 -9.1882161e-05 -0.00013080536)
(0 -0.00010153369 -0.00011621482)
(0 -0.00010970477 -9.9479953e-05)
(0 -0.00011602331 -8.0922031e-05)
(0 -0.00012041055 -6.0897462e-05)
(0 -0.00012272665 -3.9837038e-05)
(0 -0.0001228089 -1.8202131e-05)
(0 -0.00012046415 3.2531319e-06)
(0 -0.00011476073 2.3438015e-05)
(0 -0.0001047487 4.0291058e-05)
(0 -8.8489994e-05 5.0285175e-05)
(0 -6.2663445e-05 4.7362557e-05)
(0 -2.3762272e-05 2.3382201e-05)
(0 4.4200884e-05 -0.00014989852)
(0 3.4852835e-05 -0.00016680847)
(0 2.507282e-05 -0.00018096722)
(0 1.498516e-05 -0.00019215754)
(0 4.6761962e-06 -0.0002001327)
(0 -5.700579e-06 -0.0002047862)
(0 -1.5940011e-05 -0.00020601801)
(0 -2.5899604e-05 -0.00020370547)
(0 -3.550647e-05 -0.00019802581)
(0 -4.4418748e-05 -0.00018892924)
(0 -5.2541886e-05 -0.00017667843)
(0 -5.9772835e-05 -0.00016138083)
(0 -6.621607e-05 -0.00014327973)
(0 -7.172395e-05 -0.00012258043)
(0 -7.6043136e-05 -9.9653994e-05)
(0 -7.9108805e-05 -7.4915926e-05)
(0 -8.0779083e-05 -4.8888584e-05)
(0 -8.1012704e-05 -2.2182623e-05)
(0 -7.9694285e-05 4.3564838e-06)
(0 -7.6143755e-05 2.9356643e-05)
(0 -6.9758618e-05 5.032397e-05)
(0 -5.9265505e-05 6.2922134e-05)
(0 -4.2423328e-05 5.9554352e-05)
(0 -1.6407176e-05 2.9595388e-05)
(0 2.2393903e-05 -0.00017769491)
(0 1.7865415e-05 -0.0001975155)
(0 1.3118255e-05 -0.00021406806)
(0 8.2108723e-06 -0.00022713776)
(0 3.1746363e-06 -0.00023643676)
(0 -1.9183711e-06 -0.00024180093)
(0 -6.9657722e-06 -0.0002431263)
(0 -1.1917741e-05 -0.00024031201)
(0 -1.6696054e-05 -0.00023349223)
(0 -2.1131884e-05 -0.00022268381)
(0 -2.5150681e-05 -0.00020812269)
(0 -2.867908e-05 -0.00018999581)
(0 -3.1902836e-05 -0.00016856638)
(0 -3.4732745e-05 -0.00014411982)
(0 -3.7036715e-05 -0.00011707322)
(0 -3.8716558e-05 -8.7918929e-05)
(0 -3.9667666e-05 -5.7248029e-05)
(0 -3.9908494e-05 -2.5758835e-05)
(0 -3.9413077e-05 5.5655776e-06)
(0 -3.7856513e-05 3.5144559e-05)
(0 -3.4929e-05 6.0199609e-05)
(0 -3.0025895e-05 7.5692511e-05)
(0 -2.193536e-05 7.2524029e-05)
(0 -8.790581e-06 3.6788907e-05)
(0 -8.6323499e-07 -0.00020258656)
(0 -7.6475257e-07 -0.00022500954)
(0 -6.9997654e-07 -0.00024369316)
(0 -6.1988158e-07 -0.00025837135)
(0 -5.4564516e-07 -0.00026876548)
(0 -4.8040457e-07 -0.000274696)
(0 -4.2508585e-07 -0.00027604956)
(0 -3.9883948e-07 -0.00027275479)
(0 -3.8190414e-07 -0.00026490058)
(0 -3.1697944e-07 -0.00025255607)
(0 -1.818111e-07 -0.00023593855)
(0 5.3027595e-08 -0.00021528899)
(0 1.4739579e-07 -0.00019090242)
(0 1.3255345e-07 -0.00016312578)
(0 5.0084204e-08 -0.00013241799)
(0 -4.945881e-08 -9.9324967e-05)
(0 -8.6168106e-08 -6.4492259e-05)
(0 -1.2354391e-07 -2.8698746e-05)
(0 -2.0451029e-07 6.9736184e-06)
(0 -2.6311859e-07 4.0837783e-05)
(0 -3.2168904e-07 6.9937075e-05)
(0 -3.7351989e-07 8.8754325e-05)
(0 -3.5925649e-07 8.6772266e-05)
(0 -1.3068598e-07 4.5851303e-05)
(0 0.00012657447 2.9351148e-05)
(0 9.8686969e-05 3.3013395e-05)
(0 6.9187e-05 3.5972753e-05)
(0 3.8641929e-05 3.8327573e-05)
(0 7.5229429e-06 4.0017993e-05)
(0 -2.3704587e-05 4.1041426e-05)
(0 -5.4552622e-05 4.1384603e-05)
(0 -8.4535889e-05 4.1022683e-05)
(0 -0.00011338968 3.9935565e-05)
(0 -0.00014007904 3.8173032e-05)
(0 -0.00016447655 3.5724914e-05)
(0 -0.00018617904 3.265222e-05)
(0 -0.00020488775 2.8983921e-05)
(0 -0.00022030574 2.4856866e-05)
(0 -0.00023211819 2.0291441e-05)
(0 -0.00024014115 1.5336648e-05)
(0 -0.00024395393 1.0082135e-05)
(0 -0.00024333818 4.7118885e-06)
(0 -0.00023762879 -6.1424604e-07)
(0 -0.00022588093 -5.6263013e-06)
(0 -0.00020601861 -9.8812277e-06)
(0 -0.00017429359 -1.257579e-05)
(0 -0.00012392832 -1.2228571e-05)
(0 -4.6664575e-05 -6.419246e-06)
(0 0.00010869558 -7.881023e-08)
(0 8.4621645e-05 2.8424123e-08)
(0 5.9347066e-05 7.0000657e-08)
(0 3.3260769e-05 1.0799821e-07)
(0 6.7217736e-06 7.7251395e-08)
(0 -1.9864049e-05 5.0548733e-08)
(0 -4.607304e-05 1.7134165e-08)
(0 -7.151359e-05 -8.4716686e-09)
(0 -9.604669e-05 -4.6854917e-08)
(0 -0.00011860084 -5.4735972e-08)
(0 -0.00013917073 -8.7318799e-08)
(0 -0.00015747097 -1.1024454e-07)
(0 -0.00017326339 -1.5152646e-07)
(0 -0.00018631639 -1.4192738e-07)
(0 -0.00019632803 -1.0572532e-07)
(0 -0.00020320716 -8.6170148e-08)
(0 -0.00020658117 -9.3900757e-08)
(0 -0.00020620009 -9.1813601e-08)
(0 -0.00020147413 -7.9012681e-08)
(0 -0.00019142003 -5.1436828e-08)
(0 -0.00017410514 -2.2068412e-08)
(0 -0.00014625649 4.4307e-09)
(0 -0.00010239722 1.0787601e-08)
(0 -3.7364807e-05 1.4875638e-08)
(0 8.8479213e-05 -3.0848589e-05)
(0 6.8792154e-05 -3.4520008e-05)
(0 4.8225893e-05 -3.7582958e-05)
(0 2.7055147e-05 -4.0109971e-05)
(0 5.5340164e-06 -4.1943978e-05)
(0 -1.5995227e-05 -4.3073678e-05)
(0 -3.7178625e-05 -4.3510613e-05)
(0 -5.7747386e-05 -4.3190602e-05)
(0 -7.757824e-05 -4.2116038e-05)
(0 -9.5757164e-05 -4.0266479e-05)
(0 -0.00011231224 -3.7741982e-05)
(0 -0.00012704558 -3.454492e-05)
(0 -0.00013982186 -3.0764296e-05)
(0 -0.00015045079 -2.6370218e-05)
(0 -0.00015859692 -2.1471246e-05)
(0 -0.00016428716 -1.6191747e-05)
(0 -0.00016721563 -1.0662286e-05)
(0 -0.00016707861 -4.9956351e-06)
(0 -0.00016344491 6.0909833e-07)
(0 -0.0001553383 5.8434195e-06)
(0 -0.00014112958 1.017241e-05)
(0 -0.00011809144 1.2661568e-05)
(0 -8.2015082e-05 1.172477e-05)
(0 -2.9599751e-05 5.5932249e-06)
(0 6.698435e-05 -6.232351e-05)
(0 5.2082776e-05 -6.9595365e-05)
(0 3.6486214e-05 -7.5760867e-05)
(0 2.0503966e-05 -8.0741529e-05)
(0 4.2911417e-06 -8.4359702e-05)
(0 -1.1909226e-05 -8.6493596e-05)
(0 -2.7821496e-05 -8.7248384e-05)
(0 -4.3248109e-05 -8.6517155e-05)
(0 -5.8121638e-05 -8.424947e-05)
(0 -7.1716272e-05 -8.0510382e-05)
(0 -8.4084158e-05 -7.5393933e-05)
(0 -9.5077337e-05 -6.8958493e-05)
(0 -0.00010468749 -6.1336702e-05)
(0 -0.00011278214 -5.2547514e-05)
(0 -0.00011897724 -4.2779351e-05)
(0 -0.00012336861 -3.2236807e-05)
(0 -0.00012573353 -2.1165791e-05)
(0 -0.00012578706 -9.8221301e-06)
(0 -0.00012328395 1.3883909e-06)
(0 -0.00011726783 1.1850707e-05)
(0 -0.00010657681 2.0434118e-05)
(0 -8.9117125e-05 2.5227126e-05)
(0 -6.1841188e-05 2.3156566e-05)
(0 -2.2334085e-05 1.0832354e-05)
(0 4.4609656e-05 -9.3592795e-05)
(0 3.4615759e-05 -0.00010437331)
(0 2.4231819e-05 -0.00011346381)
(0 1.3646739e-05 -0.00012070597)
(0 2.9084624e-06 -0.00012593787)
(0 -7.8276457e-06 -0.00012900589)
(0 -1.8364504e-05 -0.00012993445)
(0 -2.8572166e-05 -0.00012869964)
(0 -3.8420164e-05 -0.000125227)
(0 -4.741925e-05 -0.0001195508)
(0 -5.5545736e-05 -0.00011187351)
(0 -6.2743802e-05 -0.0001022652)
(0 -6.9115261e-05 -9.0887902e-05)
(0 -7.446103e-05 -7.7836458e-05)
(0 -7.8639888e-05 -6.3346578e-05)
(0 -8.1638167e-05 -4.770055e-05)
(0 -8.329282e-05 -3.1259056e-05)
(0 -8.3470144e-05 -1.4405338e-05)
(0 -8.2041567e-05 2.2650467e-06)
(0 -7.8186924e-05 1.7822775e-05)
(0 -7.1156022e-05 3.0579944e-05)
(0 -5.9670452e-05 3.7681605e-05)
(0 -4.1592974e-05 3.4554762e-05)
(0 -1.5155593e-05 1.6090648e-05)
(0 2.182022e-05 -0.00012359454)
(0 1.6872379e-05 -0.00013777733)
(0 1.1772604e-05 -0.00014961418)
(0 6.605269e-06 -0.00015900038)
(0 1.3469449e-06 -0.00016573085)
(0 -3.9335332e-06 -0.00016968166)
(0 -9.1200493e-06 -0.00017078995)
(0 -1.4144142e-05 -0.00016887539)
(0 -1.900097e-05 -0.00016420528)
(0 -2.3421558e-05 -0.00015663731)
(0 -2.734705e-05 -0.00014649893)
(0 -3.0741393e-05 -0.00013385205)
(0 -3.3845083e-05 -0.0001188788)
(0 -3.6522297e-05 -0.00010174902)
(0 -3.8687512e-05 -8.275905e-05)
(0 -4.0267577e-05 -6.2278003e-05)
(0 -4.1145695e-05 -4.0754425e-05)
(0 -4.1322095e-05 -1.8674266e-05)
(0 -4.0809861e-05 3.2070884e-06)
(0 -3.9051584e-05 2.3676436e-05)
(0 -3.5684652e-05 4.054695e-05)
(0 -3.0104288e-05 5.0095105e-05)
(0 -2.1264727e-05 4.6235866e-05)
(0 -7.8842081e-06 2.1726589e-05)
(0 -1.1508529e-06 -0.0001519703)
(0 -1.0779106e-06 -0.00016919674)
(0 -1.075485e-06 -0.0001834875)
(0 -9.8216122e-07 -0.00019483922)
(0 -8.9100225e-07 -0.00020295431)
(0 -8.1919228e-07 -0.00020767294)
(0 -7.4904984e-07 -0.00020890575)
(0 -7.2706131e-07 -0.0002065009)
(0 -7.1286875e-07 -0.00020068164)
(0 -6.1573508e-07 -0.00019139296)
(0 -4.0020466e-07 -0.00017891079)
(0 -4.5693507e-08 -0.00016336635)
(0 1.030074e-07 -0.00014498122)
(0 1.269897e-07 -0.00012400027)
(0 6.9976308e-08 -0.00010078311)
(0 -3.0568525e-08 -7.5764115e-05)
(0 -8.8514176e-08 -4.9462106e-05)
(0 -1.657702e-07 -2.2479709e-05)
(0 -2.9688681e-07 4.2817649e-06)
(0 -3.9455417e-07 2.9399615e-05)
(0 -4.5248767e-07 5.0338574e-05)
(0 -4.9683495e-07 6.2625076e-05)
(0 -4.8388986e-07 5.8629514e-05)
(0 -1.6839212e-07 2.8260092e-05)
(0 -2.4384696e-05 -0.00017775228)
(0 -1.9697672e-05 -0.00019756057)
(0 -1.4853951e-05 -0.00021408254)
(0 -9.7684871e-06 -0.00022712779)
(0 -4.559984e-06 -0.00023640016)
(0 6.7977739e-07 -0.00024174142)
(0 5.8716065e-06 -0.00024304331)
(0 1.0903589e-05 -0.00024021862)
(0 1.5748613e-05 -0.00023337987)
(0 2.0366974e-05 -0.00022255984)
(0 2.4743911e-05 -0.00020798967)
(0 2.8806858e-05 -0.00018986114)
(0 3.226394e-05 -0.00016843034)
(0 3.5092308e-05 -0.00014400184)
(0 3.7257026e-05 -0.00011697923)
(0 3.8750899e-05 -8.7852439e-05)
(0 3.9627213e-05 -5.7196459e-05)
(0 3.9765895e-05 -2.5709375e-05)
(0 3.9041885e-05 5.6096324e-06)
(0 3.730732e-05 3.5174658e-05)
(0 3.4242339e-05 6.0236283e-05)
(0 2.9210801e-05 7.5744933e-05)
(0 2.1112043e-05 7.2574325e-05)
(0 8.4970062e-06 3.6787022e-05)
(0 0.00010692106 5.9627543e-05)
(0 8.3119453e-05 6.6643816e-05)
(0 5.8144055e-05 7.2502808e-05)
(0 3.2352766e-05 7.7173802e-05)
(0 6.1079251e-06 8.0537668e-05)
(0 -2.0217909e-05 8.2549027e-05)
(0 -4.6214754e-05 8.3238164e-05)
(0 -7.1477299e-05 8.2499561e-05)
(0 -9.5768175e-05 8.0327127e-05)
(0 -0.00011818922 7.6779627e-05)
(0 -0.0001386273 7.1884705e-05)
(0 -0.0001568514 6.5722152e-05)
(0 -0.00017248486 5.8371516e-05)
(0 -0.00018531866 4.9987496e-05)
(0 -0.00019516074 4.0708063e-05)
(0 -0.0002020144 3.0691491e-05)
(0 -0.00020544666 2.0132935e-05)
(0 -0.00020506917 9.3084341e-06)
(0 -0.00020034211 -1.4221118e-06)
(0 -0.00019040366 -1.1494948e-05)
(0 -0.00017337876 -1.9965633e-05)
(0 -0.00014610975 -2.512576e-05)
(0 -0.00010305378 -2.3981574e-05)
(0 -3.8510877e-05 -1.2142741e-05)
(0 8.8202208e-05 3.0759588e-05)
(0 6.8419227e-05 3.4583887e-05)
(0 4.7781807e-05 3.7722054e-05)
(0 2.6564674e-05 4.0285887e-05)
(0 5.0162298e-06 4.2058522e-05)
(0 -1.6547333e-05 4.3142795e-05)
(0 -3.7798194e-05 4.3518545e-05)
(0 -5.8442256e-05 4.315355e-05)
(0 -7.830921e-05 4.2017872e-05)
(0 -9.6495817e-05 4.0182934e-05)
(0 -0.00011301322 3.7618235e-05)
(0 -0.00012769867 3.4381129e-05)
(0 -0.00014029305 3.0497495e-05)
(0 -0.00015071449 2.6089419e-05)
(0 -0.00015869233 2.1219891e-05)
(0 -0.00016434513 1.5985018e-05)
(0 -0.0001672898 1.0471062e-05)
(0 -0.00016713666 4.8347516e-06)
(0 -0.00016341108 -7.2732661e-07)
(0 -0.00015525996 -5.909515e-06)
(0 -0.00014101589 -1.0168879e-05)
(0 -0.00011796023 -1.2598784e-05)
(0 -8.1868917e-05 -1.1690472e-05)
(0 -2.9555739e-05 -5.5662088e-06)
(0 6.7253154e-05 -1.4230448e-07)
(0 5.2014375e-05 -4.988861e-08)
(0 3.6148796e-05 1.3692677e-08)
(0 1.9913031e-05 7.6445849e-08)
(0 3.4752779e-06 3.6024359e-08)
(0 -1.2937123e-05 1.1211014e-08)
(0 -2.9077718e-05 -1.8881091e-08)
(0 -4.4749839e-05 -3.9765722e-08)
(0 -5.9829118e-05 -6.095093e-08)
(0 -7.3548106e-05 -1.9269892e-08)
(0 -8.5966953e-05 -2.6226277e-08)
(0 -9.701666e-05 -4.7941186e-08)
(0 -0.00010652365 -1.0478113e-07)
(0 -0.00011441478 -1.412849e-07)
(0 -0.00012048016 -1.4631745e-07)
(0 -0.00012487356 -1.2387207e-07)
(0 -0.00012730434 -1.1711326e-07)
(0 -0.00012734985 -8.8605503e-08)
(0 -0.00012469986 -5.3862724e-08)
(0 -0.00011854493 8.7833374e-10)
(0 -0.00010753719 4.4089418e-08)
(0 -8.955514e-05 6.768518e-08)
(0 -6.1631208e-05 5.3152971e-08)
(0 -2.1919566e-05 2.9448522e-08)
(0 4.5038468e-05 -3.2166054e-05)
(0 3.4615649e-05 -3.59595e-05)
(0 2.3819236e-05 -3.9162849e-05)
(0 1.2857924e-05 -4.1781783e-05)
(0 1.806023e-06 -4.3709594e-05)
(0 -9.2020556e-06 -4.488235e-05)
(0 -1.9997131e-05 -4.5272531e-05)
(0 -3.0483756e-05 -4.4956088e-05)
(0 -4.0577187e-05 -4.3808439e-05)
(0 -4.9696272e-05 -4.1826372e-05)
(0 -5.7884006e-05 -3.9170654e-05)
(0 -6.5154213e-05 -3.5851938e-05)
(0 -7.1438407e-05 -3.1934307e-05)
(0 -7.6590431e-05 -2.7422945e-05)
(0 -8.0625523e-05 -2.2367629e-05)
(0 -8.3620416e-05 -1.6882687e-05)
(0 -8.5326187e-05 -1.1101884e-05)
(0 -8.5495473e-05 -5.1709584e-06)
(0 -8.391885e-05 6.9192763e-07)
(0 -7.9905649e-05 6.1357453e-06)
(0 -7.2462551e-05 1.0532465e-05)
(0 -6.030588e-05 1.2879329e-05)
(0 -4.1471054e-05 1.1568194e-05)
(0 -1.4700888e-05 5.2198262e-06)
(0 2.1899955e-05 -6.4120281e-05)
(0 1.6605275e-05 -7.156e-05)
(0 1.1157622e-05 -7.7885597e-05)
(0 5.7206859e-06 -8.2917143e-05)
(0 2.3473773e-07 -8.6493573e-05)
(0 -5.2282096e-06 -8.8620563e-05)
(0 -1.0584306e-05 -8.9272824e-05)
(0 -1.5767147e-05 -8.8604599e-05)
(0 -2.0787199e-05 -8.6223636e-05)
(0 -2.5263118e-05 -8.2340405e-05)
(0 -2.9189647e-05 -7.7066818e-05)
(0 -3.2608276e-05 -7.0497037e-05)
(0 -3.5598833e-05 -6.2714697e-05)
(0 -3.8069982e-05 -5.3774094e-05)
(0 -4.0051683e-05 -4.3816163e-05)
(0 -4.155054e-05 -3.3045408e-05)
(0 -4.2452196e-05 -2.1699311e-05)
(0 -4.264248e-05 -1.005716e-05)
(0 -4.2095134e-05 1.4530464e-06)
(0 -4.0217619e-05 1.2144352e-05)
(0 -3.653453e-05 2.0798091e-05)
(0 -3.0461123e-05 2.5401878e-05)
(0 -2.1067387e-05 2.2903143e-05)
(0 -7.5170528e-06 1.0308863e-05)
(0 -1.495978e-06 -9.4753573e-05)
(0 -1.5632827e-06 -0.00010568052)
(0 -1.6747105e-06 -0.00011489428)
(0 -1.613254e-06 -0.00012217575)
(0 -1.5311994e-06 -0.00012735517)
(0 -1.4622634e-06 -0.0001304224)
(0 -1.3971456e-06 -0.00013131325)
(0 -1.3891651e-06 -0.00013004917)
(0 -1.3786924e-06 -0.00012649684)
(0 -1.2028783e-06 -0.00012063666)
(0 -8.8891882e-07 -0.00011286026)
(0 -4.94514e-07 -0.00010317262)
(0 -2.0906976e-07 -9.1695455e-05)
(0 3.4157015e-08 -7.8553981e-05)
(0 1.6347211e-07 -6.3965951e-05)
(0 1.3928114e-07 -4.820668e-05)
(0 -1.5625379e-08 -3.1636246e-05)
(0 -1.3515754e-07 -1.4599058e-05)
(0 -3.1098015e-07 2.2643346e-06)
(0 -4.4050456e-07 1.7972262e-05)
(0 -4.6389097e-07 3.0775492e-05)
(0 -4.4715794e-07 3.7745146e-05)
(0 -3.7945744e-07 3.4313021e-05)
(0 -1.2751556e-07 1.5630761e-05)
(0 -2.4454169e-05 -0.00012362818)
(0 -1.9493864e-05 -0.00013783719)
(0 -1.4417386e-05 -0.00014967278)
(0 -9.0790306e-06 -0.00015904225)
(0 -3.6333032e-06 -0.00016576341)
(0 1.8118112e-06 -0.00016970117)
(0 7.1690644e-06 -0.00017079207)
(0 1.2274087e-05 -0.00016886089)
(0 1.720984e-05 -0.00016416696)
(0 2.1904656e-05 -0.00015656697)
(0 2.6367401e-05 -0.00014641175)
(0 3.0484662e-05 -0.00013375616)
(0 3.3996308e-05 -0.00011877217)
(0 3.6893684e-05 -0.00010165922)
(0 3.9076378e-05 -8.2700057e-05)
(0 4.0507116e-05 -6.2255725e-05)
(0 4.1249707e-05 -4.0752464e-05)
(0 4.1231266e-05 -1.8661726e-05)
(0 4.0362176e-05 3.2288791e-06)
(0 3.8333077e-05 2.368362e-05)
(0 3.4840535e-05 4.056836e-05)
(0 2.9199071e-05 5.0139824e-05)
(0 2.0332648e-05 4.6293326e-05)
(0 7.5525508e-06 2.1728104e-05)
(0 -4.633717e-05 -0.00015002895)
(0 -3.6939491e-05 -0.00016694856)
(0 -2.7062303e-05 -0.00018102223)
(0 -1.6802018e-05 -0.00019217709)
(0 -6.3076001e-06 -0.00020011168)
(0 4.2370578e-06 -0.00020472846)
(0 1.4661874e-05 -0.00020591975)
(0 2.4764103e-05 -0.00020360847)
(0 3.4506842e-05 -0.00019789281)
(0 4.367453e-05 -0.00018877047)
(0 5.2231881e-05 -0.00017649361)
(0 5.9997381e-05 -0.00016119045)
(0 6.6712395e-05 -0.00014307482)
(0 7.2284737e-05 -0.0001224055)
(0 7.6575465e-05 -9.9519883e-05)
(0 7.9516586e-05 -7.4838118e-05)
(0 8.1101049e-05 -4.88407e-05)
(0 8.1158944e-05 -2.2120488e-05)
(0 7.9481932e-05 4.4268171e-06)
(0 7.5704105e-05 2.9405405e-05)
(0 6.9157014e-05 5.0382187e-05)
(0 5.8542357e-05 6.2991422e-05)
(0 4.1697509e-05 5.9635301e-05)
(0 1.6171134e-05 2.9585975e-05)
(0 8.624916e-05 9.0232486e-05)
(0 6.7035207e-05 0.0001006411)
(0 4.6877839e-05 0.00010938199)
(0 2.6124915e-05 0.00011632919)
(0 5.032805e-06 0.00012138408)
(0 -1.611508e-05 0.00012433802)
(0 -3.7011759e-05 0.00012526618)
(0 -5.7322508e-05 0.00012407026)
(0 -7.6806382e-05 0.00012074357)
(0 -9.4778529e-05 0.00011534052)
(0 -0.00011113093 0.00010795709)
(0 -0.00012567986 9.8675036e-05)
(0 -0.00013810665 8.7617497e-05)
(0 -0.00014831664 7.4984291e-05)
(0 -0.00015620134 6.099978e-05)
(0 -0.00016179434 4.5928466e-05)
(0 -0.00016471831 3.006782e-05)
(0 -0.00016458513 1.3791527e-05)
(0 -0.00016093345 -2.3415773e-06)
(0 -0.00015299189 -1.7489701e-05)
(0 -0.00013930054 -3.0149309e-05)
(0 -0.00011724917 -3.766905e-05)
(0 -8.2549149e-05 -3.559036e-05)
(0 -3.0950859e-05 -1.7670585e-05)
(0 6.6493074e-05 6.2302705e-05)
(0 5.1327187e-05 6.9652607e-05)
(0 3.5554717e-05 7.5882341e-05)
(0 1.944986e-05 8.0859696e-05)
(0 3.1582769e-06 8.4435132e-05)
(0 -1.3120584e-05 8.6541486e-05)
(0 -2.9163679e-05 8.7249546e-05)
(0 -4.4727754e-05 8.6479512e-05)
(0 -5.9640721e-05 8.4167283e-05)
(0 -7.3231547e-05 8.0453573e-05)
(0 -8.5524165e-05 7.5318076e-05)
(0 -9.6461052e-05 6.8845391e-05)
(0 -0.00010574063 6.1114173e-05)
(0 -0.00011331461 5.2263795e-05)
(0 -0.00011917849 4.2488373e-05)
(0 -0.0001234757 3.1989107e-05)
(0 -0.00012589328 2.0945585e-05)
(0 -0.0001259164 9.6475682e-06)
(0 -0.00012322951 -1.5046918e-06)
(0 -0.00011711737 -1.1857552e-05)
(0 -0.00010633009 -2.0363703e-05)
(0 -8.8817538e-05 -2.5111147e-05)
(0 -6.1480489e-05 -2.3084566e-05)
(0 -2.2211258e-05 -1.0786537e-05)
(0 4.4805562e-05 3.1945603e-05)
(0 3.4266281e-05 3.5824408e-05)
(0 2.3355268e-05 3.9158086e-05)
(0 1.2304824e-05 4.1868632e-05)
(0 1.2018964e-06 4.369089e-05)
(0 -9.8594234e-06 4.4821533e-05)
(0 -2.0732943e-05 4.5161719e-05)
(0 -3.1294241e-05 4.4809828e-05)
(0 -4.1412625e-05 4.3639526e-05)
(0 -5.0488933e-05 4.1824412e-05)
(0 -5.8644412e-05 3.918337e-05)
(0 -6.5885541e-05 3.5829348e-05)
(0 -7.1974011e-05 3.179229e-05)
(0 -7.6923926e-05 2.7154487e-05)
(0 -8.0769451e-05 2.2052849e-05)
(0 -8.3696426e-05 1.6611131e-05)
(0 -8.5453076e-05 1.0846795e-05)
(0 -8.5595638e-05 4.9992275e-06)
(0 -8.3926813e-05 -7.4633008e-07)
(0 -7.9835443e-05 -6.058688e-06)
(0 -7.2331552e-05 -1.0363258e-05)
(0 -6.012725e-05 -1.2668382e-05)
(0 -4.1239645e-05 -1.1434873e-05)
(0 -1.4626802e-05 -5.1519968e-06)
(0 2.1911271e-05 -1.5703123e-07)
(0 1.6301178e-05 -7.3975463e-08)
(0 1.0612217e-05 -1.6040376e-08)
(0 4.9658788e-06 1.0868865e-07)
(0 -6.5741776e-07 3.8386824e-09)
(0 -6.228398e-06 -8.5675376e-09)
(0 -1.1695733e-05 -2.1679163e-08)
(0 -1.701851e-05 -2.7208275e-08)
(0 -2.2131854e-05 -2.6835262e-08)
(0 -2.6637348e-05 2.8033723e-08)
(0 -3.0554037e-05 4.2490112e-08)
(0 -3.4014772e-05 2.1262764e-08)
(0 -3.684749e-05 -4.2754228e-08)
(0 -3.9059913e-05 -1.1271403e-07)
(0 -4.0795173e-05 -1.5239969e-07)
(0 -4.218243e-05 -1.4133631e-07)
(0 -4.3057208e-05 -1.2537389e-07)
(0 -4.3235215e-05 -7.8843875e-08)
(0 -4.2539315e-05 -1.2598791e-08)
(0 -4.0564123e-05 7.9305265e-08)
(0 -3.6734243e-05 1.2681523e-07)
(0 -3.0480169e-05 1.3800345e-07)
(0 -2.0846172e-05 1.0741861e-07)
(0 -7.3488849e-06 4.6952404e-08)
(0 -1.8415198e-06 -3.2749196e-05)
(0 -2.1028196e-06 -3.6643958e-05)
(0 -2.33176e-06 -3.9952064e-05)
(0 -2.3596826e-06 -4.2532125e-05)
(0 -2.3357673e-06 -4.4456711e-05)
(0 -2.3037567e-06 -4.559672e-05)
(0 -2.2828907e-06 -4.5889485e-05)
(0 -2.3145216e-06 -4.5540968e-05)
(0 -2.3283131e-06 -4.4323151e-05)
(0 -2.1425557e-06 -4.2362957e-05)
(0 -1.7809254e-06 -3.9639861e-05)
(0 -1.4321349e-06 -3.6269165e-05)
(0 -9.7198473e-07 -3.2293842e-05)
(0 -4.0821589e-07 -2.7741882e-05)
(0 1.1558996e-08 -2.2662456e-05)
(0 1.5331449e-07 -1.7147275e-05)
(0 2.4508927e-08 -1.1260339e-05)
(0 -1.0355192e-07 -5.238839e-06)
(0 -2.9592772e-07 7.2934844e-07)
(0 -4.2364289e-07 6.271836e-06)
(0 -4.0848566e-07 1.0708386e-05)
(0 -3.110174e-07 1.3012535e-05)
(0 -1.5011172e-07 1.1621585e-05)
(0 -3.9813201e-08 5.1408887e-06)
(0 -2.5188365e-05 -6.4136708e-05)
(0 -2.020135e-05 -7.1603157e-05)
(0 -1.5017262e-05 -7.7959956e-05)
(0 -9.5263267e-06 -8.29819e-05)
(0 -3.9251984e-06 -8.6532767e-05)
(0 1.6607465e-06 -8.8639803e-05)
(0 7.1302658e-06 -8.9268606e-05)
(0 1.2327318e-05 -8.8572469e-05)
(0 1.7376712e-05 -8.616396e-05)
(0 2.2153643e-05 -8.2293827e-05)
(0 2.6718655e-05 -7.7006186e-05)
(0 3.0860835e-05 -7.0421716e-05)
(0 3.456365e-05 -6.2621225e-05)
(0 3.7778748e-05 -5.3692859e-05)
(0 4.0239303e-05 -4.3768239e-05)
(0 4.1861756e-05 -3.3042357e-05)
(0 4.2607267e-05 -2.1705688e-05)
(0 4.2551587e-05 -1.0055241e-05)
(0 4.1591876e-05 1.4666547e-06)
(0 3.941886e-05 1.2154474e-05)
(0 3.5680206e-05 2.081302e-05)
(0 2.9706697e-05 2.5432224e-05)
(0 2.0424426e-05 2.2953559e-05)
(0 7.2930425e-06 1.0318159e-05)
(0 -4.7342756e-05 -9.362167e-05)
(0 -3.7500195e-05 -0.00010445379)
(0 -2.717397e-05 -0.00011359163)
(0 -1.6493894e-05 -0.00012081916)
(0 -5.6021511e-06 -0.0001260616)
(0 5.2939935e-06 -0.00012911839)
(0 1.6003947e-05 -0.00013002547)
(0 2.6316136e-05 -0.0001287401)
(0 3.6266067e-05 -0.00012522044)
(0 4.5509219e-05 -0.00011943525)
(0 5.4167451e-05 -0.00011172107)
(0 6.1954623e-05 -0.0001020979)
(0 6.8786869e-05 -9.0696244e-05)
(0 7.4538961e-05 -7.7671466e-05)
(0 7.8987539e-05 -6.3238293e-05)
(0 8.1997844e-05 -4.7671676e-05)
(0 8.3620068e-05 -3.1276781e-05)
(0 8.3567936e-05 -1.4399551e-05)
(0 8.1692278e-05 2.3049258e-06)
(0 7.7568225e-05 1.7877509e-05)
(0 7.0434553e-05 3.0650601e-05)
(0 5.8911035e-05 3.7766542e-05)
(0 4.0911085e-05 3.4655829e-05)
(0 1.4945066e-05 1.6102983e-05)
(0 -6.77918e-05 -0.00012068633)
(0 -5.3606947e-05 -0.0001344196)
(0 -3.8657807e-05 -0.00014591829)
(0 -2.3187538e-05 -0.00015502245)
(0 -7.3584155e-06 -0.0001616033)
(0 8.5276856e-06 -0.00016544145)
(0 2.4211374e-05 -0.00016649069)
(0 3.9420017e-05 -0.0001647467)
(0 5.4025733e-05 -0.00016020567)
(0 6.7692642e-05 -0.00015285795)
(0 8.0363713e-05 -0.00014297249)
(0 9.1723822e-05 -0.00013062402)
(0 0.00010164788 -0.00011599205)
(0 0.00010993 -9.9288435e-05)
(0 0.00011634399 -8.0787757e-05)
(0 0.00012071928 -6.0823021e-05)
(0 0.00012300753 -3.9778116e-05)
(0 0.00012291588 -1.8126379e-05)
(0 0.00012018503 3.3724418e-06)
(0 0.00011424707 2.3550205e-05)
(0 0.00010410955 4.0414395e-05)
(0 8.7766933e-05 5.0411584e-05)
(0 6.2021542e-05 4.7481327e-05)
(0 2.3556776e-05 2.339962e-05)
(0 6.5122185e-05 0.00012053936)
(0 5.0613143e-05 0.00013427699)
(0 3.5427661e-05 0.00014580589)
(0 1.9871757e-05 0.00015493841)
(0 4.0905647e-06 0.00016153881)
(0 -1.1738304e-05 0.00016539374)
(0 -2.7402436e-05 0.00016645348)
(0 -4.2617387e-05 0.00016472397)
(0 -5.7173852e-05 0.00016020502)
(0 -7.0600055e-05 0.00015289399)
(0 -8.2789823e-05 0.00014303856)
(0 -9.3662974e-05 0.00013068637)
(0 -0.00010288773 0.00011600447)
(0 -0.00011041049 9.9225331e-05)
(0 -0.00011622355 8.0661129e-05)
(0 -0.00012049301 6.06701e-05)
(0 -0.00012288056 3.9640033e-05)
(0 -0.00012296105 1.8044185e-05)
(0 -0.00012040972 -3.373612e-06)
(0 -0.00011456421 -2.3441294e-05)
(0 -0.00010440751 -4.0235946e-05)
(0 -8.8029112e-05 -5.0200067e-05)
(0 -6.2153518e-05 -4.7297692e-05)
(0 -2.3578816e-05 -2.3329321e-05)
(0 4.4109666e-05 9.3451654e-05)
(0 3.3825946e-05 0.00010429776)
(0 2.3163996e-05 0.00011347678)
(0 1.2387031e-05 0.00012073157)
(0 1.5337926e-06 0.00012600306)
(0 -9.3114212e-06 0.00012907948)
(0 -2.0012895e-05 0.000129995)
(0 -3.0380643e-05 0.00012872432)
(0 -4.027648e-05 0.00012522935)
(0 -4.923634e-05 0.00011948829)
(0 -5.7291945e-05 0.0001118076)
(0 -6.4432339e-05 0.0001021664)
(0 -7.0378989e-05 9.068722e-05)
(0 -7.520792e-05 7.7549719e-05)
(0 -7.8951218e-05 6.3032767e-05)
(0 -8.1786946e-05 4.7432684e-05)
(0 -8.3488343e-05 3.1059218e-05)
(0 -8.3625046e-05 1.4252918e-05)
(0 -8.1986343e-05 -2.3369254e-06)
(0 -7.7972107e-05 -1.7767904e-05)
(0 -7.0797819e-05 -3.0452422e-05)
(0 -5.9193878e-05 -3.7522541e-05)
(0 -4.1048738e-05 -3.4438515e-05)
(0 -1.4979938e-05 -1.601656e-05)
(0 2.1589433e-05 6.3922703e-05)
(0 1.5995631e-05 7.1440663e-05)
(0 1.0350591e-05 7.7859561e-05)
(0 4.7323965e-06 8.2894042e-05)
(0 -8.5160767e-07 8.6509966e-05)
(0 -6.3965547e-06 8.8634289e-05)
(0 -1.1857204e-05 8.926708e-05)
(0 -1.7120344e-05 8.8585839e-05)
(0 -2.2152344e-05 8.6199772e-05)
(0 -2.6618805e-05 8.2379366e-05)
(0 -3.0481285e-05 7.7125794e-05)
(0 -3.3895318e-05 7.0509763e-05)
(0 -3.6608809e-05 6.2607024e-05)
(0 -3.8691169e-05 5.3543597e-05)
(0 -4.0298896e-05 4.3522174e-05)
(0 -4.1629028e-05 3.2778503e-05)
(0 -4.2448061e-05 2.1471601e-05)
(0 -4.2615519e-05 9.9076879e-06)
(0 -4.1964161e-05 -1.4816964e-06)
(0 -3.9943413e-05 -1.1995961e-05)
(0 -3.6159817e-05 -2.0562491e-05)
(0 -3.0036959e-05 -2.5148041e-05)
(0 -2.056904e-05 -2.270753e-05)
(0 -7.341888e-06 -1.0212603e-05)
(0 -1.9565061e-06 3.2494469e-05)
(0 -2.4015974e-06 3.6479477e-05)
(0 -2.7122461e-06 3.9871146e-05)
(0 -2.8302827e-06 4.2614375e-05)
(0 -2.8644729e-06 4.4462909e-05)
(0 -2.8639282e-06 4.5609909e-05)
(0 -2.8742798e-06 4.5903808e-05)
(0 -2.9251724e-06 4.5567712e-05)
(0 -2.935353e-06 4.4369618e-05)
(0 -2.8037246e-06 4.2465876e-05)
(0 -2.4134192e-06 3.9781974e-05)
(0 -2.0401295e-06 3.6381209e-05)
(0 -1.4459067e-06 3.2300631e-05)
(0 -7.2886076e-07 2.7604535e-05)
(0 -1.6227532e-07 2.2414439e-05)
(0 8.8947407e-08 1.689206e-05)
(0 1.5393861e-07 1.1043671e-05)
(0 4.6570231e-08 5.1151886e-06)
(0 -1.0236581e-07 -6.9700875e-07)
(0 -1.8161323e-07 -6.0542522e-06)
(0 -1.3655532e-07 -1.0402152e-05)
(0 -2.7427272e-08 -1.2699543e-05)
(0 9.6485038e-08 -1.1355939e-05)
(0 4.5547006e-08 -5.0313519e-06)
(0 -2.5644749e-05 -1.5119541e-07)
(0 -2.0723852e-05 -7.91857e-08)
(0 -1.5563082e-05 -5.0543622e-08)
(0 -1.0045468e-05 8.5154286e-08)
(0 -4.4285926e-06 1.454187e-08)
(0 1.1789971e-06 2.647896e-08)
(0 6.653978e-06 3.7524528e-08)
(0 1.188787e-05 5.3427606e-08)
(0 1.6945158e-05 6.9964594e-08)
(0 2.1729156e-05 6.8615922e-08)
(0 2.6359102e-05 9.0140412e-08)
(0 3.0507378e-05 8.1107462e-08)
(0 3.437457e-05 3.5888366e-08)
(0 3.7836758e-05 -3.0286949e-08)
(0 4.0555715e-05 -9.0698324e-08)
(0 4.2383745e-05 -1.1148136e-07)
(0 4.3208101e-05 -9.0412953e-08)