/*--------------------------------*- C++ -*----------------------------------*\
| =========                 |                                                 |
| \\      /  F ield         | foam-extend: Open Source CFD                    |
|  \\    /   O peration     | Version:     4.1-20200408                       |
|   \\  /    A nd           | Web:         http://www.foam-extend.org         |
|    \\/     M anipulation  |                                                 |
\*---------------------------------------------------------------------------*/
FoamFile
{
    version     2.0;
    format      ascii;
    class       volScalarField;
    location    "0.0495000";
    object      ccx;
}
// * * * * * * * * * * * * * * * * * * * * * * * * * * * * * * * * * * * * * //

dimensions      [0 1 0 0 0 0 0];

internalField   nonuniform List<scalar> 
1952
(
0.00289714
0.00289699
0.00289676
0.00289647
0.00289612
0.00289572
0.00289527
0.0028948
0.00289431
0.00289382
0.00289336
0.00289294
0.0028926
0.00289237
0.00289223
0.00289722
0.00276917
0.00276887
0.00276842
0.00276783
0.00276713
0.00276632
0.00276543
0.00276448
0.0027635
0.00276253
0.0027616
0.00276077
0.00276009
0.00275962
0.00275935
0.00276933
0.00271896
0.00271865
0.0027182
0.00271761
0.00271691
0.0027161
0.00271521
0.00271426
0.00271328
0.0027123
0.00271137
0.00271055
0.00270987
0.00270939
0.00270912
0.00271912
0.00266874
0.00266843
0.00266798
0.0026674
0.00266669
0.00266588
0.00266499
0.00266404
0.00266306
0.00266208
0.00266115
0.00266032
0.00265964
0.00265917
0.00265889
0.0026689
0.00261852
0.00261822
0.00261777
0.00261718
0.00261647
0.00261566
0.00261476
0.00261381
0.00261283
0.00261185
0.00261092
0.00261009
0.00260941
0.00260894
0.00260866
0.00261868
0.0025683
0.002568
0.00256755
0.00256696
0.00256625
0.00256544
0.00256455
0.00256359
0.00256261
0.00256163
0.0025607
0.00255987
0.00255919
0.00255871
0.00255843
0.00256846
0.00251808
0.00251778
0.00251733
0.00251674
0.00251603
0.00251522
0.00251433
0.00251337
0.00251238
0.0025114
0.00251047
0.00250964
0.00250896
0.00250848
0.0025082
0.00251825
0.00246787
0.00246756
0.00246711
0.00246652
0.00246581
0.002465
0.0024641
0.00246314
0.00246216
0.00246118
0.00246024
0.00245941
0.00245873
0.00245825
0.00245797
0.00246803
0.00241765
0.00241734
0.00241689
0.0024163
0.00241559
0.00241478
0.00241388
0.00241292
0.00241193
0.00241095
0.00241002
0.00240918
0.0024085
0.00240802
0.00240774
0.00241781
0.00236742
0.00236712
0.00236667
0.00236608
0.00236537
0.00236455
0.00236365
0.00236269
0.0023617
0.00236072
0.00235979
0.00235895
0.00235827
0.00235779
0.00235751
0.00236759
0.0023172
0.0023169
0.00231644
0.00231585
0.00231514
0.00231433
0.00231343
0.00231247
0.00231148
0.0023105
0.00230956
0.00230872
0.00230804
0.00230756
0.00230727
0.00231736
0.00226698
0.00226667
0.00226622
0.00226563
0.00226492
0.0022641
0.0022632
0.00226224
0.00226125
0.00226027
0.00225933
0.00225849
0.00225781
0.00225733
0.00225704
0.00226714
0.00221676
0.00221645
0.002216
0.00221541
0.00221469
0.00221388
0.00221297
0.00221201
0.00221102
0.00221004
0.0022091
0.00220826
0.00220758
0.0022071
0.00220681
0.00221692
0.00216654
0.00216623
0.00216577
0.00216518
0.00216447
0.00216365
0.00216275
0.00216179
0.0021608
0.00215981
0.00215887
0.00215803
0.00215735
0.00215687
0.00215658
0.0021667
0.00211631
0.00211601
0.00211555
0.00211496
0.00211425
0.00211343
0.00211252
0.00211156
0.00211057
0.00210958
0.00210864
0.0021078
0.00210711
0.00210663
0.00210635
0.00211648
0.00206609
0.00206578
0.00206533
0.00206473
0.00206402
0.0020632
0.00206229
0.00206133
0.00206034
0.00205935
0.00205841
0.00205757
0.00205688
0.0020564
0.00205612
0.00206625
0.00201587
0.00201556
0.0020151
0.00201451
0.00201379
0.00201297
0.00201207
0.0020111
0.00201011
0.00200912
0.00200818
0.00200734
0.00200665
0.00200617
0.00200588
0.00201603
0.00196564
0.00196533
0.00196488
0.00196428
0.00196357
0.00196275
0.00196184
0.00196087
0.00195988
0.00195889
0.00195794
0.0019571
0.00195642
0.00195594
0.00195565
0.00196581
0.00191542
0.00191511
0.00191465
0.00191406
0.00191334
0.00191252
0.00191161
0.00191064
0.00190965
0.00190866
0.00190771
0.00190687
0.00190618
0.0019057
0.00190542
0.00191558
0.00186519
0.00186488
0.00186443
0.00186383
0.00186311
0.00186229
0.00186139
0.00186042
0.00185942
0.00185843
0.00185748
0.00185664
0.00185595
0.00185547
0.00185518
0.00186536
0.00181497
0.00181466
0.0018142
0.0018136
0.00181289
0.00181206
0.00181115
0.00181019
0.00180919
0.00180819
0.00180725
0.0018064
0.00180571
0.00180523
0.00180495
0.00181513
0.00176474
0.00176443
0.00176397
0.00176338
0.00176266
0.00176183
0.00176092
0.00175996
0.00175895
0.00175796
0.00175701
0.00175617
0.00175548
0.001755
0.00175471
0.00176491
0.00171452
0.00171421
0.00171375
0.00171315
0.00171243
0.0017116
0.00171069
0.00170973
0.00170872
0.00170772
0.00170678
0.00170593
0.00170524
0.00170476
0.00170448
0.00171468
0.00166429
0.00166398
0.00166352
0.00166292
0.0016622
0.00166138
0.00166047
0.0016595
0.00165849
0.00165749
0.00165654
0.0016557
0.00165501
0.00165453
0.00165424
0.00166446
0.00161407
0.00161375
0.00161329
0.0016127
0.00161197
0.00161115
0.00161024
0.00160927
0.00160826
0.00160726
0.00160631
0.00160546
0.00160477
0.00160429
0.001604
0.00161423
0.00156384
0.00156353
0.00156307
0.00156247
0.00156175
0.00156092
0.00156001
0.00155903
0.00155803
0.00155703
0.00155608
0.00155523
0.00155454
0.00155405
0.00155377
0.00156401
0.00151362
0.0015133
0.00151284
0.00151224
0.00151152
0.00151069
0.00150978
0.0015088
0.00150779
0.00150679
0.00150584
0.00150499
0.0015043
0.00150381
0.00150353
0.00151378
0.00146339
0.00146308
0.00146262
0.00146202
0.00146129
0.00146046
0.00145954
0.00145857
0.00145756
0.00145656
0.00145561
0.00145475
0.00145406
0.00145357
0.00145329
0.00146356
0.00141317
0.00141285
0.00141239
0.00141179
0.00141107
0.00141023
0.00140931
0.00140834
0.00140733
0.00140633
0.00140537
0.00140452
0.00140382
0.00140333
0.00140305
0.00141333
0.00136294
0.00136263
0.00136217
0.00136157
0.00136084
0.00136
0.00135908
0.00135811
0.0013571
0.00135609
0.00135513
0.00135428
0.00135358
0.00135309
0.00135281
0.00136311
0.00131272
0.00131241
0.00131194
0.00131134
0.00131061
0.00130978
0.00130885
0.00130787
0.00130686
0.00130585
0.00130489
0.00130404
0.00130334
0.00130285
0.00130256
0.00131289
0.0012625
0.00126218
0.00126172
0.00126111
0.00126039
0.00125955
0.00125862
0.00125764
0.00125663
0.00125562
0.00125466
0.0012538
0.0012531
0.00125261
0.00125232
0.00126266
0.00121227
0.00121196
0.00121149
0.00121089
0.00121016
0.00120932
0.00120839
0.00120741
0.00120639
0.00120538
0.00120442
0.00120356
0.00120285
0.00120236
0.00120207
0.00121244
0.00116205
0.00116174
0.00116127
0.00116066
0.00115993
0.00115909
0.00115816
0.00115718
0.00115616
0.00115514
0.00115418
0.00115332
0.00115261
0.00115212
0.00115182
0.00116222
0.00111183
0.00111151
0.00111104
0.00111044
0.0011097
0.00110886
0.00110794
0.00110695
0.00110593
0.00110491
0.00110394
0.00110307
0.00110237
0.00110187
0.00110157
0.00111199
0.0010616
0.00106128
0.00106082
0.00106021
0.00105948
0.00105864
0.00105771
0.00105672
0.00105569
0.00105467
0.0010537
0.00105283
0.00105212
0.00105162
0.00105132
0.00106177
0.00101137
0.00101106
0.00101059
0.00100998
0.00100925
0.00100841
0.00100748
0.00100648
0.00100546
0.00100443
0.00100346
0.00100259
0.00100187
0.00100137
0.00100107
0.00101154
0.000961142
0.000960827
0.000960358
0.000959751
0.000959018
0.000958175
0.000957245
0.00095625
0.000955223
0.000954199
0.000953221
0.000952345
0.000951626
0.000951116
0.000950809
0.00096131
0.000910907
0.000910592
0.000910124
0.000909517
0.000908785
0.000907942
0.000907011
0.000906016
0.000904988
0.000903961
0.000902981
0.0009021
0.000901377
0.000900862
0.000900549
0.000911075
0.000860667
0.000860353
0.000859885
0.00085928
0.000858548
0.000857706
0.000856776
0.000855781
0.000854752
0.000853723
0.000852741
0.000851856
0.000851128
0.000850607
0.000850286
0.000860835
0.000810418
0.000810104
0.000809638
0.000809035
0.000808305
0.000807465
0.000806536
0.000805542
0.000804513
0.000803484
0.000802499
0.000801611
0.000800878
0.00080035
0.000800021
0.000810585
0.000760158
0.000759847
0.000759382
0.000758781
0.000758054
0.000757217
0.000756291
0.000755299
0.000754272
0.000753244
0.000752257
0.000751366
0.000750627
0.000750092
0.000749753
0.000760325
0.000709885
0.000709575
0.000709113
0.000708516
0.000707793
0.00070696
0.000706039
0.000705051
0.000704028
0.000703
0.000702015
0.000701121
0.000700377
0.000699832
0.000699482
0.00071005
0.000659594
0.000659287
0.000658829
0.000658236
0.000657518
0.000656692
0.000655777
0.000654796
0.000653777
0.000652754
0.00065177
0.000650876
0.000650127
0.000649573
0.000649208
0.000659758
0.000609285
0.00060898
0.000608527
0.00060794
0.000607228
0.00060641
0.000605504
0.000604531
0.000603521
0.000602505
0.000601525
0.000600633
0.000599881
0.000599317
0.000598935
0.000609447
0.000558951
0.00055865
0.000558202
0.000557622
0.000556919
0.000556111
0.000555214
0.000554253
0.000553254
0.000552248
0.000551277
0.000550389
0.000549637
0.000549065
0.000548662
0.000559112
0.000508587
0.000508291
0.000507849
0.000507277
0.000506585
0.000505788
0.000504904
0.000503956
0.000502971
0.000501978
0.000501019
0.00050014
0.000499392
0.000498815
0.000498393
0.000508746
0.000458193
0.000457901
0.000457466
0.000456904
0.000456223
0.000455438
0.00045457
0.000453638
0.00045267
0.000451694
0.00045075
0.000449883
0.000449142
0.000448565
0.00044813
0.000458349
0.000407762
0.000407476
0.000407049
0.000406497
0.000405828
0.000405059
0.000404208
0.000403295
0.000402345
0.000401389
0.000400465
0.000399615
0.000398887
0.000398315
0.000397876
0.000407916
0.000357294
0.000357013
0.000356595
0.000356054
0.000355399
0.000354647
0.000353814
0.000352922
0.000351995
0.000351064
0.000350163
0.000349336
0.000348628
0.000348068
0.000347635
0.000357445
0.000306787
0.000306513
0.000306104
0.000305575
0.000304935
0.0003042
0.000303389
0.00030252
0.00030162
0.000300716
0.000299845
0.000299048
0.000298367
0.000297828
0.000297411
0.000306935
0.000256243
0.000255975
0.000255575
0.000255059
0.000254436
0.00025372
0.000252931
0.000252088
0.000251217
0.000250346
0.00024951
0.000248751
0.000248108
0.000247602
0.000247216
0.000256387
0.00020566
0.000205399
0.000205009
0.000204507
0.000203901
0.000203206
0.00020244
0.000201625
0.000200786
0.000199952
0.000199157
0.000198443
0.000197849
0.000197393
0.000197064
0.000205801
0.000155045
0.000154791
0.000154412
0.000153924
0.000153336
0.000152661
0.000151921
0.000151135
0.00015033
0.000149535
0.000148786
0.000148127
0.000147597
0.00014722
0.000146985
0.000155182
0.000104402
0.000104155
0.000103787
0.000103314
0.000102744
0.000102092
0.000101377
0.000100622
9.98531e-05
9.91028e-05
9.84089e-05
9.78168e-05
9.73724e-05
9.71068e-05
9.70094e-05
0.000104535
5.37364e-05
5.34977e-05
5.31414e-05
5.26838e-05
5.2134e-05
5.15071e-05
5.08222e-05
5.01024e-05
4.93769e-05
4.86797e-05
4.80523e-05
4.75438e-05
4.72074e-05
4.70829e-05
4.71634e-05
5.38662e-05
3.06124e-06
2.83194e-06
2.49019e-06
2.05174e-06
1.52733e-06
9.32422e-07
2.86529e-07
-3.86888e-07
-1.05779e-06
-1.6893e-06
-2.2364e-06
-2.64521e-06
-2.85543e-06
-2.81853e-06
-2.53398e-06
3.18617e-06
-4.75953e-05
-4.78112e-05
-4.81325e-05
-4.85438e-05
-4.90338e-05
-4.9586e-05
-5.01816e-05
-5.07962e-05
-5.13994e-05
-5.1952e-05
-5.24062e-05
-5.27032e-05
-5.27762e-05
-5.2568e-05
-5.20704e-05
-4.74773e-05
-9.81825e-05
-9.83797e-05
-9.86736e-05
-9.90484e-05
-9.94935e-05
-9.99926e-05
-0.000100526
-0.000101071
-0.000101594
-0.000102058
-0.00010241
-0.000102588
-0.00010252
-0.000102142
-0.000101438
-9.8074e-05
-0.000148636
-0.00014881
-0.00014907
-0.000149401
-0.000149793
-0.00015023
-0.000150693
-0.000151159
-0.000151596
-0.000151964
-0.00015221
-0.000152269
-0.000152065
-0.000151528
-0.000150638
-0.000148539
-0.000198886
-0.000199037
-0.00019926
-0.000199543
-0.000199877
-0.000200247
-0.000200635
-0.000201019
-0.000201367
-0.000201638
-0.000201779
-0.000201724
-0.000201394
-0.000200719
-0.000199672
-0.000198803
-0.000248872
-0.000248997
-0.000249184
-0.000249419
-0.000249696
-0.000249999
-0.000250313
-0.000250615
-0.000250875
-0.000251053
-0.000251096
-0.000250937
-0.000250499
-0.000249711
-0.000248543
-0.000248802
-0.000298543
-0.000298646
-0.000298799
-0.00029899
-0.000299213
-0.000299454
-0.000299698
-0.000299924
-0.000300102
-0.000300194
-0.000300149
-0.000299902
-0.000299377
-0.000298505
-0.000297255
-0.000298486
-0.000347874
-0.000347958
-0.00034808
-0.000348233
-0.000348408
-0.000348594
-0.000348775
-0.000348932
-0.000349038
-0.000349055
-0.000348935
-0.000348617
-0.000348028
-0.000347104
-0.000345814
-0.000347827
-0.000396859
-0.000396925
-0.000397023
-0.000397142
-0.000397276
-0.000397414
-0.000397541
-0.000397639
-0.000397682
-0.000397636
-0.000397456
-0.000397086
-0.000396458
-0.000395514
-0.000394226
-0.000396821
-0.000445512
-0.000445564
-0.000445639
-0.000445729
-0.000445827
-0.000445924
-0.000446005
-0.000446052
-0.000446044
-0.000445947
-0.000445722
-0.000445319
-0.000444676
-0.000443743
-0.000442496
-0.000445482
-0.000493861
-0.000493899
-0.000493953
-0.000494017
-0.000494083
-0.000494143
-0.000494183
-0.000494189
-0.000494138
-0.000494002
-0.000493747
-0.000493328
-0.000492693
-0.000491801
-0.000490629
-0.000493839
-0.000541939
-0.000541963
-0.000541998
-0.000542036
-0.000542073
-0.000542098
-0.000542103
-0.000542072
-0.000541986
-0.000541821
-0.000541548
-0.00054113
-0.000540525
-0.000539699
-0.000538632
-0.000541924
-0.000589783
-0.000589794
-0.000589809
-0.000589823
-0.000589831
-0.000589824
-0.000589796
-0.000589732
-0.000589616
-0.000589429
-0.000589148
-0.000588745
-0.000588188
-0.000587449
-0.000586509
-0.000589775
-0.000637426
-0.000637425
-0.000637423
-0.000637413
-0.000637393
-0.000637357
-0.000637297
-0.000637202
-0.00063706
-0.000636855
-0.000636573
-0.000636195
-0.000635699
-0.000635063
-0.000634264
-0.000637424
-0.000684896
-0.000684886
-0.000684867
-0.000684837
-0.000684793
-0.000684729
-0.000684639
-0.000684516
-0.00068435
-0.000684132
-0.000683853
-0.000683505
-0.000683076
-0.000682547
-0.000681895
-0.000684899
-0.000732214
-0.000732195
-0.000732164
-0.000732118
-0.000732054
-0.000731968
-0.000731855
-0.00073171
-0.000731526
-0.0007313
-0.000731029
-0.00073071
-0.000730342
-0.000729913
-0.000729398
-0.000732222
-0.000779408
-0.000779383
-0.000779343
-0.000779286
-0.000779209
-0.00077911
-0.000778985
-0.000778828
-0.000778638
-0.000778414
-0.000778154
-0.000777859
-0.000777535
-0.000777182
-0.00077678
-0.000779421
-0.000826521
-0.000826491
-0.000826446
-0.000826383
-0.0008263
-0.000826195
-0.000826065
-0.000825907
-0.000825719
-0.000825502
-0.000825256
-0.000824984
-0.000824692
-0.000824388
-0.000824064
-0.000826536
-0.000873587
-0.000873555
-0.000873506
-0.00087344
-0.000873354
-0.000873247
-0.000873116
-0.00087296
-0.000872779
-0.000872573
-0.000872343
-0.000872093
-0.000871829
-0.000871559
-0.000871284
-0.000873603
-0.000920618
-0.000920585
-0.000920535
-0.000920467
-0.000920381
-0.000920273
-0.000920144
-0.000919993
-0.00091982
-0.000919626
-0.000919414
-0.000919186
-0.00091895
-0.00091871
-0.000918472
-0.000920635
-0.00096762
-0.000967587
-0.000967537
-0.000967469
-0.000967383
-0.000967278
-0.000967153
-0.000967009
-0.000966846
-0.000966666
-0.000966471
-0.000966266
-0.000966054
-0.000965842
-0.000965637
-0.000967637
-0.0010146
-0.00101457
-0.00101452
-0.00101445
-0.00101437
-0.00101427
-0.00101415
-0.00101401
-0.00101386
-0.00101369
-0.00101352
-0.00101333
-0.00101314
-0.00101296
-0.00101278
-0.00101462
-0.00106156
-0.00106153
-0.00106148
-0.00106142
-0.00106134
-0.00106124
-0.00106113
-0.001061
-0.00106086
-0.00106071
-0.00106055
-0.00106039
-0.00106022
-0.00106006
-0.00105991
-0.00106158
-0.00110851
-0.00110848
-0.00110844
-0.00110837
-0.0011083
-0.00110821
-0.00110811
-0.00110799
-0.00110786
-0.00110772
-0.00110758
-0.00110743
-0.00110728
-0.00110714
-0.00110701
-0.00110853
-0.00115545
-0.00115542
-0.00115538
-0.00115532
-0.00115525
-0.00115517
-0.00115507
-0.00115496
-0.00115484
-0.00115472
-0.0011546
-0.00115446
-0.00115433
-0.00115421
-0.00115409
-0.00115546
-0.00120238
-0.00120235
-0.00120231
-0.00120226
-0.00120219
-0.00120212
-0.00120203
-0.00120193
-0.00120183
-0.00120171
-0.0012016
-0.00120148
-0.00120137
-0.00120126
-0.00120116
-0.00120239
-0.0012493
-0.00124928
-0.00124924
-0.00124919
-0.00124913
-0.00124906
-0.00124898
-0.00124889
-0.0012488
-0.0012487
-0.00124859
-0.00124849
-0.0012484
-0.0012483
-0.00124821
-0.00124931
-0.00129622
-0.0012962
-0.00129617
-0.00129612
-0.00129606
-0.001296
-0.00129593
-0.00129585
-0.00129577
-0.00129568
-0.00129558
-0.00129549
-0.00129541
-0.00129533
-0.00129525
-0.00129623
-0.00134314
-0.00134312
-0.00134309
-0.00134305
-0.001343
-0.00134294
-0.00134287
-0.0013428
-0.00134273
-0.00134265
-0.00134257
-0.00134249
-0.00134241
-0.00134234
-0.00134227
-0.00134315
-0.00139005
-0.00139003
-0.00139
-0.00138997
-0.00138992
-0.00138987
-0.00138981
-0.00138975
-0.00138968
-0.00138961
-0.00138954
-0.00138947
-0.0013894
-0.00138934
-0.00138928
-0.00139006
-0.00143696
-0.00143694
-0.00143692
-0.00143689
-0.00143685
-0.0014368
-0.00143675
-0.00143669
-0.00143663
-0.00143657
-0.00143651
-0.00143645
-0.00143639
-0.00143633
-0.00143628
-0.00143697
-0.00148387
-0.00148385
-0.00148383
-0.0014838
-0.00148377
-0.00148372
-0.00148368
-0.00148363
-0.00148357
-0.00148352
-0.00148347
-0.00148341
-0.00148336
-0.00148331
-0.00148326
-0.00148388
-0.00153077
-0.00153076
-0.00153074
-0.00153071
-0.00153068
-0.00153064
-0.0015306
-0.00153056
-0.00153051
-0.00153047
-0.00153042
-0.00153037
-0.00153032
-0.00153028
-0.00153024
-0.00153078
-0.00157767
-0.00157766
-0.00157765
-0.00157762
-0.00157759
-0.00157756
-0.00157753
-0.00157749
-0.00157745
-0.0015774
-0.00157736
-0.00157732
-0.00157728
-0.00157724
-0.00157721
-0.00157768
-0.00162457
-0.00162456
-0.00162455
-0.00162453
-0.0016245
-0.00162448
-0.00162444
-0.00162441
-0.00162437
-0.00162434
-0.0016243
-0.00162426
-0.00162422
-0.00162419
-0.00162416
-0.00162458
-0.00167147
-0.00167146
-0.00167145
-0.00167143
-0.00167141
-0.00167139
-0.00167136
-0.00167133
-0.0016713
-0.00167126
-0.00167123
-0.0016712
-0.00167117
-0.00167114
-0.00167111
-0.00167148
-0.00171837
-0.00171836
-0.00171835
-0.00171834
-0.00171832
-0.00171829
-0.00171827
-0.00171824
-0.00171821
-0.00171818
-0.00171816
-0.00171813
-0.0017181
-0.00171807
-0.00171804
-0.00171838
-0.00176527
-0.00176526
-0.00176525
-0.00176523
-0.00176521
-0.00176519
-0.00176517
-0.00176515
-0.00176512
-0.0017651
-0.00176507
-0.00176505
-0.00176502
-0.001765
-0.00176497
-0.00176527
-0.00181216
-0.00181215
-0.00181214
-0.00181212
-0.00181211
-0.00181209
-0.00181207
-0.00181205
-0.00181203
-0.00181201
-0.00181199
-0.00181196
-0.00181194
-0.00181191
-0.00181189
-0.00181216
-0.00185904
-0.00185903
-0.00185902
-0.00185901
-0.001859
-0.00185899
-0.00185897
-0.00185895
-0.00185893
-0.00185891
-0.00185889
-0.00185887
-0.00185885
-0.00185883
-0.00185881
-0.00185904
-0.00190592
-0.00190592
-0.00190591
-0.0019059
-0.00190589
-0.00190588
-0.00190586
-0.00190585
-0.00190583
-0.00190581
-0.00190579
-0.00190577
-0.00190575
-0.00190573
-0.00190572
-0.00190593
-0.0019528
-0.0019528
-0.00195279
-0.00195279
-0.00195278
-0.00195276
-0.00195275
-0.00195273
-0.00195272
-0.0019527
-0.00195269
-0.00195267
-0.00195265
-0.00195263
-0.00195262
-0.00195281
-0.00199968
-0.00199967
-0.00199967
-0.00199966
-0.00199965
-0.00199964
-0.00199963
-0.00199962
-0.0019996
-0.00199959
-0.00199957
-0.00199956
-0.00199954
-0.00199953
-0.00199951
-0.00199968
-0.00204655
-0.00204655
-0.00204654
-0.00204653
-0.00204653
-0.00204652
-0.00204651
-0.0020465
-0.00204649
-0.00204647
-0.00204646
-0.00204644
-0.00204643
-0.00204641
-0.0020464
-0.00204656
-0.00209342
-0.00209341
-0.00209341
-0.0020934
-0.0020934
-0.00209339
-0.00209338
-0.00209337
-0.00209336
-0.00209335
-0.00209334
-0.00209333
-0.00209331
-0.0020933
-0.00209328
-0.00209342
-0.00214028
-0.00214028
-0.00214027
-0.00214027
-0.00214026
-0.00214026
-0.00214025
-0.00214024
-0.00214023
-0.00214022
-0.00214021
-0.0021402
-0.00214019
-0.00214017
-0.00214016
-0.00214028
-0.00218714
-0.00218714
-0.00218713
-0.00218713
-0.00218713
-0.00218712
-0.00218711
-0.00218711
-0.0021871
-0.00218709
-0.00218708
-0.00218707
-0.00218705
-0.00218704
-0.00218703
-0.00218714
-0.002234
-0.00223399
-0.00223399
-0.00223399
-0.00223398
-0.00223397
-0.00223397
-0.00223396
-0.00223396
-0.00223395
-0.00223394
-0.00223393
-0.00223392
-0.00223391
-0.00223389
-0.002234
-0.00228085
-0.00228084
-0.00228084
-0.00228084
-0.00228083
-0.00228083
-0.00228082
-0.00228082
-0.00228081
-0.0022808
-0.0022808
-0.00228079
-0.00228078
-0.00228077
-0.00228075
-0.00228085
-0.00232769
-0.00232769
-0.00232769
-0.00232768
-0.00232768
-0.00232768
-0.00232767
-0.00232767
-0.00232766
-0.00232765
-0.00232765
-0.00232764
-0.00232763
-0.00232762
-0.00232761
-0.00232769
-0.00237453
-0.00237453
-0.00237453
-0.00237452
-0.00237452
-0.00237452
-0.00237452
-0.00237451
-0.00237451
-0.0023745
-0.00237449
-0.00237449
-0.00237448
-0.00237447
-0.00237446
-0.00237453
-0.00242137
-0.00242137
-0.00242137
-0.00242136
-0.00242136
-0.00242136
-0.00242135
-0.00242135
-0.00242135
-0.00242134
-0.00242134
-0.00242133
-0.00242132
-0.00242132
-0.0024213
-0.00242137
-0.0024682
-0.0024682
-0.0024682
-0.0024682
-0.0024682
-0.00246819
-0.00246819
-0.00246819
-0.00246818
-0.00246818
-0.00246817
-0.00246817
-0.00246816
-0.00246815
-0.00246814
-0.0024682
-0.00251503
-0.00251503
-0.00251502
-0.00251502
-0.00251502
-0.00251502
-0.00251502
-0.00251501
-0.00251501
-0.00251501
-0.002515
-0.002515
-0.00251499
-0.00251498
-0.00251497
-0.00251503
-0.00256185
-0.00256185
-0.00256185
-0.00256185
-0.00256184
-0.00256184
-0.00256184
-0.00256184
-0.00256184
-0.00256183
-0.00256183
-0.00256183
-0.00256182
-0.00256181
-0.0025618
-0.00256185
-0.00260867
-0.00260867
-0.00260867
-0.00260867
-0.00260866
-0.00260866
-0.00260866
-0.00260866
-0.00260866
-0.00260865
-0.00260865
-0.00260865
-0.00260864
-0.00260864
-0.00260863
-0.00260867
-0.00265548
-0.00265548
-0.00265548
-0.00265548
-0.00265548
-0.00265548
-0.00265548
-0.00265548
-0.00265547
-0.00265547
-0.00265547
-0.00265546
-0.00265546
-0.00265546
-0.00265545
-0.00265548
-0.00270229
-0.00270229
-0.00270229
-0.00270229
-0.00270229
-0.00270229
-0.00270229
-0.00270229
-0.00270229
-0.00270229
-0.00270228
-0.00270228
-0.00270228
-0.00270227
-0.00270226
-0.00270229
-0.0027491
-0.0027491
-0.0027491
-0.0027491
-0.00274909
-0.00274909
-0.00274909
-0.00274909
-0.00274909
-0.00274909
-0.00274909
-0.00274909
-0.00274909
-0.00274908
-0.00274907
-0.0027491
-0.0027959
-0.0027959
-0.0027959
-0.0027959
-0.00279589
-0.00279589
-0.00279589
-0.00279589
-0.00279589
-0.00279589
-0.00279589
-0.00279589
-0.00279589
-0.00279588
-0.00279588
-0.0027959
-0.00284269
-0.00284269
-0.00284269
-0.00284269
-0.00284269
-0.00284269
-0.00284269
-0.00284269
-0.00284269
-0.00284269
-0.00284269
-0.00284269
-0.00284269
-0.00284268
-0.00284268
-0.00284269
-0.00288949
-0.00288949
-0.00288949
-0.00288949
-0.00288949
-0.00288949
-0.00288949
-0.00288949
-0.00288948
-0.00288949
-0.00288949
-0.00288949
-0.00288948
-0.00288948
-0.00288948
-0.00288949
-0.00293627
-0.00293627
-0.00293627
-0.00293627
-0.00293627
-0.00293627
-0.00293627
-0.00293627
-0.00293627
-0.00293627
-0.00293627
-0.00293627
-0.00293627
-0.00293627
-0.00293627
-0.00293627
-0.00298306
-0.00298305
-0.00298306
-0.00298306
-0.00298306
-0.00298306
-0.00298306
-0.00298306
-0.00298306
-0.00298305
-0.00298306
-0.00298306
-0.00298305
-0.00298306
-0.00298306
-0.00298306
-0.00302984
-0.00302984
-0.00302984
-0.00302984
-0.00302984
-0.00302984
-0.00302983
-0.00302984
-0.00302984
-0.00302984
-0.00302984
-0.00302983
-0.00302984
-0.00302984
-0.00302983
-0.00302984
-0.00307662
-0.00307661
-0.00307662
-0.00307661
-0.00307661
-0.00307661
-0.00307661
-0.00307661
-0.00307661
-0.00307661
-0.00307661
-0.00307661
-0.00307661
-0.00307661
-0.00307661
-0.00307661
)
;

boundaryField
{
    wireUpstream
    {
        type            calculated;
        value           nonuniform List<scalar> 
16
(
-0.0031
-0.0031
-0.0031
-0.0031
-0.0031
-0.0031
-0.0031
-0.0031
-0.0031
-0.0031
-0.0031
-0.0031
-0.0031
-0.0031
-0.0031
-0.0031
)
;
    }
    wireDownstream
    {
        type            calculated;
        value           nonuniform List<scalar> 
16
(
0.003
0.003
0.003
0.003
0.003
0.003
0.003
0.003
0.003
0.003
0.003
0.003
0.003
0.003
0.003
0.003
)
;
    }
    wireTopContact
    {
        type            calculated;
        value           nonuniform List<scalar> 
122
(
0.00275926
0.00270903
0.0026588
0.00260857
0.00255834
0.00250811
0.00245787
0.00240764
0.00235741
0.00230718
0.00225695
0.00220672
0.00215649
0.00210626
0.00205602
0.00200579
0.00195556
0.00190532
0.00185509
0.00180485
0.00175462
0.00170438
0.00165414
0.00160391
0.00155367
0.00150343
0.00145319
0.00140295
0.00135271
0.00130246
0.00125222
0.00120197
0.00115172
0.00110147
0.00105122
0.00100096
0.000950699
0.000900436
0.00085017
0.000799901
0.000749627
0.00069935
0.000649069
0.000598784
0.000548498
0.000498213
0.000447941
0.000397684
0.000347445
0.000297229
0.000247051
0.00019693
0.000146902
9.70022e-05
4.72539e-05
-2.33111e-06
-5.17505e-05
-0.000101007
-0.000150106
-0.000199058
-0.000247867
-0.000296539
-0.000345081
-0.000393499
-0.000441796
-0.000489974
-0.000538037
-0.000585986
-0.00063382
-0.000681533
-0.000729113
-0.000776561
-0.000823893
-0.000871145
-0.000918354
-0.000965536
-0.0010127
-0.00105983
-0.00110695
-0.00115404
-0.00120112
-0.00124818
-0.00129522
-0.00134224
-0.00138926
-0.00143626
-0.00148324
-0.00153022
-0.00157719
-0.00162415
-0.00167109
-0.00171803
-0.00176496
-0.00181188
-0.0018588
-0.00190571
-0.00195261
-0.0019995
-0.00204639
-0.00209327
-0.00214015
-0.00218702
-0.00223389
-0.00228075
-0.0023276
-0.00237445
-0.0024213
-0.00246814
-0.00251497
-0.0025618
-0.00260862
-0.00265544
-0.00270226
-0.00274907
-0.00279588
-0.00284268
-0.00288948
-0.00293627
-0.00298306
-0.00302983
-0.00307661
0.00289219
)
;
    }
    front
    {
        type            wedge;
    }
    back
    {
        type            wedge;
    }
}


// ************************************************************************* //
