/*--------------------------------*- C++ -*----------------------------------*\
| =========                 |                                                 |
| \\      /  F ield         | foam-extend: Open Source CFD                    |
|  \\    /   O peration     | Version:     4.1-20200408                       |
|   \\  /    A nd           | Web:         http://www.foam-extend.org         |
|    \\/     M anipulation  |                                                 |
\*---------------------------------------------------------------------------*/
FoamFile
{
    version     2.0;
    format      ascii;
    class       volTensorField;
    location    "0.0495000";
    object      grad(DU);
}
// * * * * * * * * * * * * * * * * * * * * * * * * * * * * * * * * * * * * * //

dimensions      [0 0 0 0 0 0 0];

internalField   nonuniform List<tensor> 
1952
(
(2.02019e-06 -1.23781e-05 6.98942e-11 3.89972e-07 -1.3661e-05 5.18631e-13 9.3924e-15 9.95288e-14 -1.4491e-05)
(1.86126e-06 -2.30658e-06 4.82065e-11 8.02431e-07 -1.47322e-05 -1.47266e-13 -1.62089e-14 -2.36794e-13 -1.37015e-05)
(1.45174e-06 -2.28669e-05 -5.08026e-11 1.04179e-06 -1.41532e-05 -2.80219e-12 -9.26165e-15 6.9066e-14 -1.4622e-05)
(1.15188e-06 -1.05352e-05 -1.45254e-10 1.49641e-06 -1.47688e-05 -1.25773e-13 7.02986e-14 -1.46539e-13 -1.38438e-05)
(4.10069e-07 -3.40317e-05 4.24501e-11 1.65546e-06 -1.46622e-05 5.17854e-12 2.71838e-14 -2.42388e-13 -1.46485e-05)
(-1.62656e-08 -2.28105e-05 2.12752e-10 2.20747e-06 -1.4821e-05 2.61892e-12 -1.25618e-13 2.22161e-13 -1.40089e-05)
(-1.14394e-06 -4.64326e-05 5.54948e-11 3.08486e-06 -1.47632e-05 -4.47815e-12 7.91889e-14 -8.64333e-13 -1.46385e-05)
(-2.05604e-06 -3.77128e-05 -1.08398e-10 4.23416e-06 -1.4365e-05 -1.95895e-12 3.50984e-13 -1.17424e-12 -1.40766e-05)
(-3.79278e-06 -6.23035e-05 2.08512e-11 5.71189e-06 -1.38232e-05 4.99986e-12 2.8001e-14 -1.49653e-13 -1.44975e-05)
(-5.4405e-06 -5.72984e-05 1.13355e-10 7.48438e-06 -1.24996e-05 1.57684e-13 -3.22681e-13 9.71711e-13 -1.39015e-05)
(-7.92567e-06 -8.41099e-05 -1.03654e-11 1.08556e-05 -1.09483e-05 -4.85766e-12 1.45278e-13 7.51412e-13 -1.40459e-05)
(-1.07291e-05 -8.21644e-05 -7.65208e-11 1.74412e-05 -7.83808e-06 1.44752e-13 8.74257e-13 -4.61568e-13 -1.32978e-05)
(-1.49234e-05 -0.000112112 8.69731e-12 2.99589e-05 -4.39999e-06 4.33239e-12 2.71838e-14 -3.34341e-14 -1.30223e-05)
(-2.01007e-05 -0.0001213 1.03551e-10 5.71627e-05 2.86814e-06 1.02768e-12 -3.92432e-12 -2.82252e-13 -1.19655e-05)
(-2.79834e-05 -0.000162062 2.66385e-11 0.000115763 1.04295e-05 -8.29086e-13 -3.67419e-12 -6.68536e-13 -1.08945e-05)
(2.11821e-06 1.10529e-06 1.65195e-11 3.24046e-07 -1.47058e-05 -4.66887e-13 1.17077e-14 -1.1779e-12 -1.39335e-05)
(-5.72423e-07 -3.32677e-06 -6.59374e-16 6.51134e-07 -7.47516e-06 1.7937e-13 1.77267e-14 3.31873e-14 -7.78859e-06)
(-6.66373e-07 -4.98209e-06 1.39252e-15 1.40108e-06 -7.72879e-06 -1.88929e-13 -2.95408e-14 -1.85635e-13 -7.49441e-06)
(-8.85961e-07 -7.74161e-06 4.89336e-16 1.73388e-06 -7.36184e-06 -1.33081e-12 -1.0697e-14 5.38689e-14 -7.73254e-06)
(-1.00944e-06 -9.21992e-06 -2.71441e-15 2.5683e-06 -7.40263e-06 4.73997e-13 1.66304e-13 1.30429e-13 -7.39739e-06)
(-1.45402e-06 -1.2421e-05 -5.07866e-17 2.89063e-06 -6.99827e-06 2.4951e-12 4.85254e-14 -1.12093e-13 -7.56625e-06)
(-1.80006e-06 -1.39934e-05 1.82517e-15 3.87521e-06 -6.68349e-06 3.39296e-13 -2.5253e-13 -8.76326e-14 -7.21175e-06)
(-2.53253e-06 -1.75338e-05 9.93554e-16 5.069e-06 -6.08355e-06 -2.4962e-12 1.86111e-13 -3.59114e-13 -7.26173e-06)
(-2.9152e-06 -1.93076e-05 -8.75089e-16 6.5874e-06 -5.48853e-06 -4.04086e-13 6.28354e-13 -3.04031e-13 -6.8627e-06)
(-3.78007e-06 -2.29919e-05 -4.70783e-17 8.39718e-06 -4.57413e-06 2.24232e-12 5.05717e-14 -5.86076e-14 -6.80191e-06)
(-4.23276e-06 -2.48003e-05 -1.26937e-15 1.02167e-05 -3.51679e-06 -4.57553e-13 -4.55965e-13 3.08652e-13 -6.33184e-06)
(-5.23277e-06 -2.82347e-05 1.41138e-15 1.28455e-05 -2.02721e-06 -2.08065e-12 -3.28927e-14 3.4159e-13 -6.13904e-06)
(-5.43069e-06 -2.96617e-05 2.58473e-15 1.63703e-05 -5.07269e-07 3.18974e-13 4.21072e-13 -2.97649e-13 -5.55358e-06)
(-4.95584e-06 -3.19994e-05 -4.24945e-16 2.04545e-05 9.63463e-07 1.71804e-12 3.48256e-14 -9.40935e-15 -5.22908e-06)
(-1.97618e-06 -3.20195e-05 -2.68912e-15 2.48843e-05 1.71155e-06 2.35586e-13 -3.0199e-13 5.57107e-13 -4.5955e-06)
(6.99209e-06 -3.15499e-05 6.73918e-16 3.00729e-05 -6.38831e-07 -5.02985e-13 3.44333e-14 5.07587e-14 -4.2979e-06)
(-5.40915e-07 -1.37032e-06 1.75817e-17 5.28135e-07 -7.86092e-06 -2.72751e-13 1.86836e-14 -6.39696e-13 -7.60891e-06)
(-3.0201e-06 -2.83666e-06 -4.66792e-16 6.74596e-07 -5.57195e-06 1.30542e-13 2.06091e-14 5.2024e-15 -5.66804e-06)
(-3.14274e-06 -4.37111e-06 1.01185e-15 1.49036e-06 -5.5156e-06 -1.40732e-13 -2.99509e-14 -1.82171e-13 -5.57836e-06)
(-3.3355e-06 -6.56592e-06 4.62571e-16 1.80857e-06 -5.24017e-06 -9.57448e-13 -9.6544e-15 5.3972e-14 -5.56292e-06)
(-3.48286e-06 -8.01798e-06 -1.97316e-15 2.73718e-06 -5.05232e-06 3.4588e-13 1.94517e-13 2.52684e-13 -5.39667e-06)
(-3.88923e-06 -1.05123e-05 -2.15321e-16 3.23629e-06 -4.57984e-06 1.76013e-12 5.29434e-14 -6.99726e-14 -5.33738e-06)
(-4.25867e-06 -1.20121e-05 1.30273e-15 4.36708e-06 -4.09468e-06 2.39517e-13 -2.51665e-13 -2.1361e-13 -5.09257e-06)
(-4.88765e-06 -1.46568e-05 8.87218e-16 5.48037e-06 -3.37833e-06 -1.70051e-12 2.18034e-13 -1.85559e-13 -4.94668e-06)
(-5.16884e-06 -1.61987e-05 -4.1331e-16 7.00748e-06 -2.71103e-06 -2.71972e-13 6.93342e-13 8.40726e-15 -4.61932e-06)
(-5.77371e-06 -1.88532e-05 -3.95714e-16 8.78009e-06 -1.79146e-06 1.45158e-12 5.5916e-14 -2.79388e-14 -4.40316e-06)
(-5.89485e-06 -2.02599e-05 -6.36653e-16 1.07479e-05 -9.13686e-07 -2.89285e-13 -5.84812e-13 7.55095e-14 -4.00255e-06)
(-6.40995e-06 -2.25592e-05 1.08263e-15 1.33993e-05 2.65014e-07 -1.26123e-12 -8.19128e-14 1.81128e-13 -3.72117e-06)
(-6.09034e-06 -2.33235e-05 1.51852e-15 1.64751e-05 1.14786e-06 1.86571e-13 3.93514e-13 -1.94548e-13 -3.24803e-06)
(-5.27099e-06 -2.46152e-05 -4.00487e-16 2.02581e-05 1.81901e-06 9.66115e-13 3.51882e-14 -2.07749e-15 -2.94041e-06)
(-3.30398e-06 -2.41798e-05 -1.46027e-15 2.39236e-05 1.85361e-06 1.28356e-13 -1.77836e-13 3.91214e-13 -2.50395e-06)
(3.74381e-07 -2.408e-05 4.49676e-16 2.55733e-05 7.33989e-07 -2.49572e-13 3.49118e-13 -1.08767e-14 -2.29479e-06)
(-3.01484e-06 -1.18322e-06 1.33766e-17 5.12799e-07 -5.67709e-06 -2.02503e-13 1.89329e-14 -4.69568e-13 -5.64624e-06)
(-5.44753e-06 -2.53271e-06 -3.08102e-16 7.67592e-07 -3.67025e-06 8.61565e-14 3.0587e-14 3.82366e-15 -3.74111e-06)
(-5.59942e-06 -4.08805e-06 6.6901e-16 1.71269e-06 -3.53235e-06 -9.28186e-14 -2.87818e-14 -1.28879e-13 -3.67717e-06)
(-5.82562e-06 -5.79579e-06 3.04924e-16 2.05475e-06 -3.26925e-06 -6.20587e-13 -1.27842e-14 3.39056e-14 -3.60557e-06)
(-6.03258e-06 -7.34166e-06 -1.26983e-15 3.11124e-06 -2.9903e-06 2.22371e-13 2.14697e-13 1.97225e-13 -3.46865e-06)
(-6.46331e-06 -9.14677e-06 -1.4322e-16 3.66665e-06 -2.50939e-06 1.1033e-12 5.96874e-14 -3.88811e-14 -3.34555e-06)
(-6.76019e-06 -1.06505e-05 8.01256e-16 4.88719e-06 -2.02553e-06 1.47042e-13 -2.69392e-13 -1.49274e-13 -3.12767e-06)
(-7.30914e-06 -1.24034e-05 5.42385e-16 5.98026e-06 -1.33968e-06 -1.01105e-12 2.53444e-13 -1.05444e-13 -2.94088e-06)
(-7.52124e-06 -1.37613e-05 -2.33866e-16 7.46834e-06 -7.22816e-07 -1.55872e-13 7.43285e-13 3.10597e-14 -2.64773e-06)
(-7.94877e-06 -1.53404e-05 -2.26645e-16 9.11171e-06 8.5982e-08 7.95137e-13 6.18338e-14 -1.18626e-14 -2.41187e-06)
(-7.86922e-06 -1.63786e-05 -3.23668e-16 1.08424e-05 7.60891e-07 -1.49168e-13 -6.0239e-13 7.79842e-14 -2.06328e-06)
(-7.84095e-06 -1.75267e-05 5.35994e-16 1.30127e-05 1.56627e-06 -6.09838e-13 -1.45377e-13 1.04866e-13 -1.79922e-06)
(-6.9396e-06 -1.78657e-05 6.6726e-16 1.50858e-05 1.96066e-06 8.19768e-14 2.99102e-13 -2.0159e-13 -1.42682e-06)
(-5.37382e-06 -1.82486e-05 -1.68909e-16 1.73709e-05 2.08124e-06 3.93263e-13 3.34864e-14 1.09875e-15 -1.19688e-06)
(-2.38163e-06 -1.77978e-05 -5.30874e-16 1.8648e-05 1.23587e-06 4.66486e-14 6.53616e-14 4.50026e-13 -9.10113e-07)
(2.26472e-06 -1.74229e-05 1.69147e-16 1.89308e-05 -4.26958e-07 -1.01958e-13 2.95448e-13 1.19468e-14 -8.64357e-07)
(-5.42559e-06 -1.0797e-06 9.25495e-18 5.21036e-07 -3.74151e-06 -1.34157e-13 1.5372e-14 -3.10417e-13 -3.73993e-06)
(-7.4237e-06 -2.1675e-06 -1.69733e-16 8.46787e-07 -1.99613e-06 4.74472e-14 3.59736e-14 4.56432e-15 -2.06053e-06)
(-7.54589e-06 -3.51411e-06 3.65817e-16 1.87663e-06 -1.83838e-06 -5.06567e-14 -2.69769e-14 -7.50249e-14 -2.00529e-06)
(-7.7331e-06 -4.90071e-06 1.64666e-16 2.23881e-06 -1.59107e-06 -3.3048e-13 -1.41192e-14 1.42629e-14 -1.92002e-06)
(-7.89868e-06 -6.22699e-06 -6.59252e-16 3.38197e-06 -1.30144e-06 1.15354e-13 2.2671e-13 1.16115e-13 -1.79844e-06)
(-8.22396e-06 -7.59395e-06 -7.46566e-17 3.97015e-06 -8.57588e-07 5.48903e-13 6.47875e-14 -1.48724e-14 -1.66443e-06)
(-8.41565e-06 -8.81942e-06 3.77325e-16 5.22503e-06 -4.23215e-07 6.90891e-14 -2.76158e-13 -6.39121e-14 -1.47094e-06)
(-8.76431e-06 -1.00499e-05 2.43197e-16 6.24487e-06 1.63115e-07 -4.43461e-13 2.80585e-13 -5.18619e-14 -1.28977e-06)
(-8.80025e-06 -1.10559e-05 -9.08437e-17 7.63622e-06 6.52003e-07 -6.10984e-14 7.68782e-13 -6.46248e-15 -1.03837e-06)
(-8.92944e-06 -1.20271e-05 -8.07532e-17 9.09827e-06 1.2533e-06 2.73972e-13 6.53062e-14 -1.45215e-15 -8.31022e-07)
(-8.58417e-06 -1.26504e-05 -8.56634e-17 1.05702e-05 1.66599e-06 -3.99361e-14 -6.12526e-13 1.20903e-13 -5.51806e-07)
(-8.16878e-06 -1.31858e-05 1.06029e-16 1.23389e-05 2.09024e-06 -1.18539e-13 -1.89999e-13 5.62072e-14 -3.49736e-07)
(-7.03554e-06 -1.3212e-05 4.08216e-17 1.37318e-05 2.11414e-06 5.03957e-15 2.56736e-13 -2.08328e-13 -8.72603e-08)
(-5.40854e-06 -1.3223e-05 7.02082e-18 1.52221e-05 1.88694e-06 -1.59429e-14 3.14038e-14 2.29688e-15 4.85153e-08)
(-2.91493e-06 -1.27859e-05 1.21631e-16 1.54991e-05 1.03707e-06 -1.06957e-14 1.18669e-13 3.5272e-13 2.08422e-07)
(3.40715e-07 -1.27979e-05 -3.78525e-17 1.48022e-05 -1.71765e-07 2.11191e-14 3.19908e-13 -1.97718e-17 1.89059e-07)
(-7.39147e-06 -9.26522e-07 5.30099e-18 5.48712e-07 -2.05584e-06 -7.42671e-14 1.83409e-14 -1.71316e-13 -2.0699e-06)
(-9.00025e-06 -1.78458e-06 -5.39133e-17 9.2366e-07 -5.94743e-07 1.5058e-14 4.13061e-14 5.50759e-15 -6.54188e-07)
(-9.09206e-06 -2.89179e-06 1.10566e-16 2.02991e-06 -4.46943e-07 -1.53172e-14 -2.62551e-14 -2.71774e-14 -6.04683e-07)
(-9.2464e-06 -3.99245e-06 4.55046e-17 2.4067e-06 -2.218e-07 -9.03315e-14 -1.55666e-14 -2.57074e-15 -5.24867e-07)
(-9.35888e-06 -5.0613e-06 -1.52733e-16 3.60867e-06 3.69853e-08 2.67698e-14 2.35624e-13 3.52557e-14 -4.16122e-07)
(-9.59354e-06 -6.08235e-06 -1.37252e-17 4.18708e-06 4.20301e-07 9.74975e-14 6.87474e-14 3.43414e-15 -2.95691e-07)
(-9.66876e-06 -7.02051e-06 3.29594e-17 5.43017e-06 7.66768e-07 5.92898e-15 -2.84687e-13 2.03048e-14 -1.283e-07)
(-9.85188e-06 -7.86102e-06 -4.3026e-18 6.35506e-06 1.23192e-06 7.67793e-15 3.03896e-13 -1.6524e-14 2.24562e-08)
(-9.73315e-06 -8.56219e-06 1.99365e-17 7.60198e-06 1.57873e-06 1.35672e-14 7.81212e-13 -6.20448e-14 2.29433e-07)
(-9.63604e-06 -9.13446e-06 3.87087e-17 8.83747e-06 1.98549e-06 -1.28213e-13 6.7451e-14 5.03196e-15 3.88851e-07)
(-9.0993e-06 -9.48974e-06 9.28167e-17 9.9729e-06 2.18866e-06 4.3462e-14 -6.02174e-13 1.67353e-13 6.01979e-07)
(-8.41545e-06 -9.71534e-06 -2.26336e-16 1.12907e-05 2.33838e-06 2.49877e-13 -2.27748e-13 2.87685e-14 7.37103e-07)
(-7.12898e-06 -9.64895e-06 -4.26316e-16 1.20309e-05 2.13908e-06 -5.22655e-14 2.21309e-13 -2.13412e-13 9.10479e-07)
(-5.42659e-06 -9.5817e-06 1.42721e-16 1.28186e-05 1.72016e-06 -3.18344e-13 2.82663e-14 2.85225e-15 9.6879e-07)
(-3.0985e-06 -9.30176e-06 6.06563e-16 1.22999e-05 8.37792e-07 -5.32596e-14 1.42407e-13 3.0802e-13 1.03866e-06)
(-2.822e-07 -9.34143e-06 -1.94184e-16 1.1287e-05 -2.31521e-07 1.06824e-13 2.83727e-13 1.42992e-16 9.60782e-07)
(-8.96826e-06 -7.64482e-07 1.74656e-18 5.85588e-07 -6.48079e-07 -2.39066e-14 1.77303e-14 -5.46836e-14 -6.66021e-07)
(-1.01415e-05 -1.40878e-06 3.9684e-17 9.72909e-07 5.3322e-07 -1.10898e-14 4.21696e-14 5.97625e-15 4.81317e-07)
(-1.01921e-05 -2.2771e-06 -9.59567e-17 2.1303e-06 6.56973e-07 1.31693e-14 -2.71537e-14 1.24667e-14 5.23767e-07)
(-1.0297e-05 -3.12171e-06 -5.15729e-17 2.50494e-06 8.50132e-07 1.01611e-13 -1.53929e-14 -1.57155e-14 5.90122e-07)
(-1.0336e-05 -3.93688e-06 2.51044e-16 3.73268e-06 1.05556e-06 -4.36861e-14 2.45264e-13 -3.44076e-14 6.83137e-07)
(-1.04674e-05 -4.67616e-06 3.70302e-17 4.27584e-06 1.36695e-06 -2.56858e-13 7.1031e-14 1.69638e-14 7.78713e-07)
(-1.04254e-05 -5.35382e-06 -2.35771e-16 5.47247e-06 1.61521e-06 -4.32335e-14 -2.95371e-13 9.05023e-14 9.16995e-07)
(-1.04523e-05 -5.90875e-06 -1.99529e-16 6.28256e-06 1.9568e-06 3.53554e-13 3.2158e-13 7.84924e-15 1.0284e-06)
(-1.01903e-05 -6.36587e-06 1.03042e-16 7.3656e-06 2.16347e-06 7.01466e-14 7.88591e-13 -1.14892e-13 1.19004e-06)
(-9.91295e-06 -6.67843e-06 1.31272e-16 8.37703e-06 2.39615e-06 -4.27389e-13 6.79309e-14 8.9914e-15 1.29622e-06)
(-9.24676e-06 -6.85089e-06 2.22132e-16 9.20363e-06 2.43163e-06 1.04599e-13 -5.96538e-13 2.04546e-13 1.4476e-06)
(-8.43269e-06 -6.90644e-06 -4.70807e-16 1.01567e-05 2.38794e-06 5.14973e-13 -2.53325e-13 1.33051e-14 1.51906e-06)
(-7.15209e-06 -6.8011e-06 -7.59021e-16 1.04254e-05 2.07382e-06 -9.30006e-14 2.08619e-13 -2.09759e-13 1.61971e-06)
(-5.5824e-06 -6.72311e-06 2.41413e-16 1.0768e-05 1.5859e-06 -5.31654e-13 2.54649e-14 3.03372e-15 1.61789e-06)
(-3.62247e-06 -6.56302e-06 9.50475e-16 9.81982e-06 8.24565e-07 -8.33866e-14 1.2901e-13 2.5327e-13 1.62628e-06)
(-1.42378e-06 -6.71668e-06 -3.09104e-16 8.64638e-06 -1.42198e-08 1.70172e-13 2.59998e-13 -1.91379e-15 1.52142e-06)
(-1.01169e-05 -6.04213e-07 -1.26691e-18 6.15773e-07 4.87459e-07 1.68443e-14 1.7235e-14 3.9564e-14 4.69685e-07)
(-1.08935e-05 -1.05587e-06 1.11626e-16 9.98838e-07 1.39548e-06 -3.11535e-14 4.37724e-14 6.01805e-15 1.35276e-06)
(-1.09079e-05 -1.7017e-06 -2.54585e-16 2.18938e-06 1.49138e-06 3.49776e-14 -2.8427e-14 4.3291e-14 1.38726e-06)
(-1.09692e-05 -2.31841e-06 -1.26423e-16 2.54577e-06 1.64973e-06 2.47616e-13 -1.41009e-14 -2.53657e-14 1.43817e-06)
(-1.09417e-05 -2.90732e-06 5.5725e-16 3.77541e-06 1.79686e-06 -9.69795e-14 2.56084e-13 -8.94608e-14 1.51452e-06)
(-1.09902e-05 -3.4165e-06 7.65389e-17 4.26254e-06 2.03875e-06 -5.22111e-13 7.17155e-14 2.65806e-14 1.5829e-06)
(-1.08511e-05 -3.87999e-06 -4.35733e-16 5.39028e-06 2.19362e-06 -7.97237e-14 -3.10047e-13 1.44796e-13 1.69299e-06)
(-1.0764e-05 -4.22268e-06 -3.45405e-16 6.07704e-06 2.42848e-06 6.06889e-13 3.356e-13 2.38699e-14 1.7651e-06)
(-1.03992e-05 -4.50363e-06 1.63036e-16 6.98859e-06 2.51886e-06 1.11168e-13 7.9605e-13 -1.58201e-13 1.88638e-06)
(-1.0009e-05 -4.65247e-06 1.99258e-16 7.78672e-06 2.61977e-06 -6.41068e-13 6.74573e-14 1.12654e-14 1.94423e-06)
(-9.27673e-06 -4.72507e-06 3.13025e-16 8.3292e-06 2.54213e-06 1.47833e-13 -5.95581e-13 2.30703e-13 2.04545e-06)
(-8.41561e-06 -4.70809e-06 -6.44519e-16 8.97605e-06 2.38043e-06 7.00297e-13 -2.71555e-13 5.73076e-15 2.06564e-06)
(-7.19082e-06 -4.62085e-06 -9.91405e-16 8.87853e-06 2.02088e-06 -1.2137e-13 2.07789e-13 -2.03814e-13 2.11366e-06)
(-5.76577e-06 -4.57471e-06 3.1162e-16 8.91551e-06 1.52098e-06 -6.80265e-13 2.23661e-14 3.12011e-15 2.07006e-06)
(-4.09397e-06 -4.51512e-06 1.19282e-15 7.70653e-06 8.71369e-07 -1.04559e-13 1.03753e-13 2.15774e-13 2.03922e-06)
(-2.30625e-06 -4.69708e-06 -3.91817e-16 6.53043e-06 1.83921e-07 2.14178e-13 2.31069e-13 -1.51527e-15 1.91907e-06)
(-1.0878e-05 -4.53326e-07 -3.6565e-18 6.37391e-07 1.35822e-06 4.81757e-14 2.37267e-14 1.11941e-13 1.34263e-06)
(-1.12939e-05 -7.40191e-07 1.6401e-16 1.00022e-06 2.01947e-06 -4.57255e-14 4.28047e-14 5.81918e-15 1.9858e-06)
(-1.1277e-05 -1.18918e-06 -3.69907e-16 2.20661e-06 2.0877e-06 5.07826e-14 -3.07114e-14 6.60376e-14 2.01269e-06)
(-1.13004e-05 -1.60896e-06 -1.80803e-16 2.52987e-06 2.21321e-06 3.5267e-13 -1.17544e-14 -3.20709e-14 2.04826e-06)
(-1.12167e-05 -2.00554e-06 7.76961e-16 3.74378e-06 2.30484e-06 -1.35102e-13 2.69376e-13 -1.30853e-13 2.10915e-06)
(-1.12009e-05 -2.32823e-06 1.05203e-16 4.16291e-06 2.48688e-06 -7.09657e-13 7.14049e-14 3.29883e-14 2.15144e-06)
(-1.09889e-05 -2.62217e-06 -5.76299e-16 5.21034e-06 2.56148e-06 -1.05305e-13 -3.29295e-13 1.84949e-13 2.23711e-06)
(-1.08243e-05 -2.80786e-06 -4.476e-16 5.77549e-06 2.71191e-06 7.81883e-13 3.46697e-13 3.32652e-14 2.2739e-06)
(-1.03958e-05 -2.96449e-06 2.04087e-16 6.52323e-06 2.7131e-06 1.39215e-13 8.068e-13 -1.92342e-13 2.36238e-06)
(-9.94835e-06 -3.0087e-06 2.45835e-16 7.13565e-06 2.72103e-06 -7.84725e-13 6.61937e-14 1.2356e-14 2.37984e-06)
(-9.20525e-06 -3.02681e-06 3.73465e-16 7.43934e-06 2.57453e-06 1.76605e-13 -6.02223e-13 2.48524e-13 2.44321e-06)
(-8.36638e-06 -2.97937e-06 -7.60058e-16 7.85291e-06 2.34887e-06 8.22092e-13 -2.83437e-13 3.29425e-15 2.42477e-06)
(-7.25022e-06 -2.92189e-06 -1.14436e-15 7.49398e-06 1.99169e-06 -1.39952e-13 2.16705e-13 -1.96386e-13 2.43722e-06)
(-6.00926e-06 -2.91135e-06 3.58305e-16 7.34173e-06 1.51787e-06 -7.77989e-13 1.98393e-14 3.17255e-15 2.36736e-06)
(-4.61959e-06 -2.92661e-06 1.35517e-15 5.9982e-06 9.9062e-07 -1.18687e-13 7.22004e-14 1.85563e-13 2.31475e-06)
(-3.19494e-06 -3.13779e-06 -4.48956e-16 4.87688e-06 4.36616e-07 2.44198e-13 2.06284e-13 -9.30071e-16 2.19175e-06)
(-1.12874e-05 -3.18129e-07 -5.43054e-18 6.4811e-07 1.99029e-06 7.09772e-14 2.01276e-14 1.64552e-13 1.97769e-06)
(-1.1397e-05 -4.65296e-07 1.99043e-16 9.83472e-07 2.43348e-06 -5.54334e-14 4.08468e-14 5.50154e-15 2.40766e-06)
(-1.13578e-05 -7.44784e-07 -4.4683e-16 2.19376e-06 2.47783e-06 6.12851e-14 -3.41317e-14 8.14431e-14 2.42799e-06)
(-1.13554e-05 -9.9775e-07 -2.16939e-16 2.47317e-06 2.57631e-06 4.21908e-13 -8.50864e-15 -3.63273e-14 2.45027e-06)
(-1.12324e-05 -1.23552e-06 9.21444e-16 3.66133e-06 2.62114e-06 -1.60063e-13 2.85668e-13 -1.59607e-13 2.49842e-06)
(-1.11778e-05 -1.40865e-06 1.24013e-16 4.00662e-06 2.75767e-06 -8.30753e-13 7.0434e-14 3.68387e-14 2.51848e-06)
(-1.09207e-05 -1.57244e-06 -6.66527e-16 4.97074e-06 2.76968e-06 -1.21671e-13 -3.52627e-13 2.12771e-13 2.5853e-06)
(-1.0718e-05 -1.6423e-06 -5.12308e-16 5.42224e-06 2.8611e-06 8.91788e-13 3.55595e-13 3.75202e-14 2.59338e-06)
(-1.02642e-05 -1.71531e-06 2.29844e-16 6.01956e-06 2.80173e-06 1.5665e-13 8.21542e-13 -2.17888e-13 2.65815e-06)
(-9.80762e-06 -1.69428e-06 2.74322e-16 6.47519e-06 2.75302e-06 -8.72204e-13 6.47847e-14 1.26575e-14 2.64505e-06)
(-9.09449e-06 -1.6895e-06 4.10411e-16 6.5804e-06 2.57439e-06 1.93977e-13 -6.14928e-13 2.60296e-13 2.68325e-06)
(-8.31874e-06 -1.63612e-06 -8.29143e-16 6.8176e-06 2.32398e-06 8.94715e-13 -2.91266e-13 4.11888e-15 2.63885e-06)
(-7.32889e-06 -1.61474e-06 -1.23646e-15 6.26994e-06 1.9964e-06 -1.51058e-13 2.30829e-13 -1.89708e-13 2.63061e-06)
(-6.26735e-06 -1.63718e-06 3.86469e-16 6.00321e-06 1.56391e-06 -8.371e-13 1.7464e-14 3.23395e-15 2.54715e-06)
(-5.11707e-06 -1.70619e-06 1.45649e-15 4.59679e-06 1.14523e-06 -1.27448e-13 3.99064e-14 1.6412e-13 2.4856e-06)
(-3.97507e-06 -1.92599e-06 -4.85944e-16 3.56575e-06 6.90282e-07 2.63058e-13 1.83708e-13 3.32886e-16 2.36707e-06)
(-1.13973e-05 -2.00283e-07 -6.63335e-18 6.50175e-07 2.41117e-06 8.6203e-14 2.35157e-14 1.99638e-13 2.40157e-06)
(-1.12514e-05 -2.32047e-07 2.19232e-16 9.54301e-07 2.6693e-06 -6.09865e-14 3.82202e-14 5.21057e-15 2.64908e-06)
(-1.1199e-05 -3.69059e-07 -4.90968e-16 2.16179e-06 2.6944e-06 6.72792e-14 -3.82413e-14 9.06321e-14 2.6647e-06)
(-1.11834e-05 -4.83549e-07 -2.37321e-16 2.39067e-06 2.77419e-06 4.60802e-13 -4.46768e-15 -3.86918e-14 2.676e-06)
(-1.10382e-05 -5.926e-07 1.0026e-15 3.54966e-06 2.7824e-06 -1.73984e-13 3.04761e-13 -1.78175e-13 2.71547e-06)
(-1.09684e-05 -6.46837e-07 1.34115e-16 3.82115e-06 2.88968e-06 -8.96455e-13 6.88286e-14 3.86419e-14 2.71757e-06)
(-1.06932e-05 -7.11925e-07 -7.15295e-16 4.70545e-06 2.85715e-06 -1.30459e-13 -3.79415e-13 2.31443e-13 2.77233e-06)
(-1.04853e-05 -6.96135e-07 -5.45587e-16 5.05646e-06 2.91377e-06 9.48591e-13 3.63223e-13 3.73447e-14 2.75841e-06)
(-1.00402e-05 -7.13454e-07 2.43429e-16 5.52084e-06 2.8195e-06 1.65551e-13 8.40604e-13 -2.37903e-13 2.80901e-06)
(-9.61144e-06 -6.51013e-07 2.87922e-16 5.85022e-06 2.74359e-06 -9.14932e-13 6.31215e-14 1.23723e-14 2.77453e-06)
(-8.96075e-06 -6.3969e-07 4.29006e-16 5.79477e-06 2.56119e-06 2.02379e-13 -6.32025e-13 2.69095e-13 2.79923e-06)
(-8.27595e-06 -5.89832e-07 -8.61521e-16 5.90378e-06 2.31249e-06 9.28927e-13 -2.96178e-13 7.30867e-15 2.73962e-06)
(-7.4255e-06 -6.01826e-07 -1.2812e-15 5.22267e-06 2.03208e-06 -1.56358e-13 2.47637e-13 -1.84516e-13 2.72292e-06)
(-6.53934e-06 -6.50931e-07 4.00156e-16 4.89156e-06 1.648e-06 -8.66257e-13 1.55532e-14 3.30909e-15 2.63578e-06)
(-5.60065e-06 -7.58852e-07 1.51029e-15 3.46491e-06 1.32781e-06 -1.32039e-13 9.31002e-15 1.48793e-13 2.5751e-06)
(-4.69219e-06 -9.83214e-07 -5.07154e-16 2.53282e-06 9.50769e-07 2.73422e-13 1.64597e-13 1.81016e-15 2.46692e-06)
(-1.1256e-05 -1.00221e-07 -7.32807e-18 6.46203e-07 2.65171e-06 9.4953e-14 2.01606e-14 2.19749e-13 2.64496e-06)
(-1.09023e-05 -3.7151e-08 2.26891e-16 9.19893e-07 2.75545e-06 -6.30413e-14 3.41905e-14 4.97303e-15 2.73855e-06)
(-1.08463e-05 -5.61346e-08 -5.0744e-16 2.12316e-06 2.76708e-06 6.94806e-14 -4.18141e-14 9.44669e-14 2.75127e-06)
(-1.08307e-05 -5.69178e-08 -2.44435e-16 2.29934e-06 2.83693e-06 4.74358e-13 2.06066e-16 -3.95183e-14 2.75457e-06)
(-1.06803e-05 -6.29287e-08 1.03101e-15 3.43108e-06 2.81976e-06 -1.7873e-13 3.2496e-13 -1.87837e-13 2.7894e-06)
(-1.06182e-05 -2.28183e-08 1.36948e-16 3.63337e-06 2.91379e-06 -9.16582e-13 6.72241e-14 3.88499e-14 2.77849e-06)
(-1.0349e-05 -1.39466e-08 -7.3007e-16 4.44534e-06 2.85413e-06 -1.33059e-13 -4.0795e-13 2.42419e-13 2.82776e-06)
(-1.01658e-05 6.58774e-08 -5.53399e-16 4.71155e-06 2.89791e-06 9.62523e-13 3.7058e-13 3.38493e-14 2.79877e-06)
(-9.75678e-06 8.45383e-08 2.47196e-16 5.06071e-06 2.79084e-06 1.67625e-13 8.62581e-13 -2.53147e-13 2.84398e-06)
(-9.38518e-06 1.73682e-07 2.89845e-16 5.2916e-06 2.71177e-06 -9.22288e-13 6.1432e-14 1.16959e-14 2.79674e-06)
(-8.81914e-06 1.82084e-07 4.33019e-16 5.10614e-06 2.54679e-06 2.03755e-13 -6.50932e-13 2.75936e-13 2.81805e-06)
(-8.2421e-06 2.24652e-07 -8.6552e-16 5.12294e-06 2.31807e-06 9.33317e-13 -2.9933e-13 1.20056e-14 2.75243e-06)
(-7.53353e-06 1.83105e-07 -1.28928e-15 4.34605e-06 2.09438e-06 -1.5717e-13 2.64172e-13 -1.81041e-13 2.73709e-06)
(-6.81156e-06 1.1332e-07 4.02648e-16 3.98021e-06 1.75998e-06 -8.72284e-13 1.38839e-14 3.40065e-15 2.65403e-06)
(-6.05565e-06 -2.25322e-08 1.52717e-15 2.55504e-06 1.52619e-06 -1.33395e-13 -1.77246e-14 1.38566e-13 2.60152e-06)
(-5.33715e-06 -2.46698e-07 -5.15956e-16 1.71739e-06 1.20778e-06 2.77116e-13 1.48541e-13 3.50699e-15 2.50776e-06)
(-1.09084e-05 -1.65711e-08 -7.58417e-18 6.395e-07 2.7405e-06 9.82381e-14 2.02721e-14 2.27241e-13 2.7361e-06)
(-1.03874e-05 1.23653e-07 2.24139e-16 8.86745e-07 2.71845e-06 -6.21993e-14 3.13535e-14 4.87086e-15 2.70216e-06)
(-1.03363e-05 2.01354e-07 -5.01037e-16 2.09014e-06 2.72167e-06 6.85558e-14 -4.6533e-14 9.39678e-14 2.71414e-06)
(-1.0333e-05 2.93208e-07 -2.40582e-16 2.21486e-06 2.79094e-06 4.67035e-13 3.98922e-15 -3.92162e-14 2.71188e-06)
(-1.01929e-05 3.6908e-07 1.01628e-15 3.32649e-06 2.75833e-06 -1.75992e-13 3.47537e-13 -1.9091e-13 2.74661e-06)
(-1.01585e-05 4.84303e-07 1.33933e-16 3.46744e-06 2.85452e-06 -8.99552e-13 6.59765e-14 3.77812e-14 2.72677e-06)
(-9.91668e-06 5.48396e-07 -7.17466e-16 4.2178e-06 2.78278e-06 -1.3068e-13 -4.38167e-13 2.4841e-13 2.77727e-06)
(-9.78178e-06 6.77191e-07 -5.40857e-16 4.41629e-06 2.83274e-06 9.42008e-13 3.78726e-13 2.7268e-14 2.73898e-06)
(-9.43245e-06 7.18708e-07 2.43109e-16 4.66744e-06 2.73122e-06 1.64286e-13 8.87579e-13 -2.66438e-13 2.78709e-06)
(-9.13926e-06 8.263e-07 2.82577e-16 4.82471e-06 2.66741e-06 -9.01665e-13 6.03551e-14 1.06922e-14 2.7341e-06)
(-8.67561e-06 8.27343e-07 4.25601e-16 4.53356e-06 2.53631e-06 1.99632e-13 -6.70454e-13 2.82868e-13 2.76084e-06)
(-8.21612e-06 8.62567e-07 -8.47325e-16 4.48486e-06 2.33933e-06 9.144e-13 -3.01797e-13 1.80044e-14 2.69651e-06)
(-7.65103e-06 7.95868e-07 -1.26874e-15 3.63672e-06 2.17886e-06 -1.54491e-13 2.79369e-13 -1.79541e-13 2.69049e-06)
(-7.08233e-06 7.10244e-07 3.96377e-16 3.25174e-06 1.8928e-06 -8.60296e-13 1.24884e-14 3.5036e-15 2.61746e-06)
(-6.48771e-06 5.53344e-07 1.51519e-15 1.83489e-06 1.73612e-06 -1.3223e-13 -4.03678e-14 1.32217e-13 2.57874e-06)
(-5.92686e-06 3.29863e-07 -5.15008e-16 1.0775e-06 1.46205e-06 2.75632e-13 1.35847e-13 5.31799e-15 2.50254e-06)
(-1.03922e-05 5.24704e-08 -7.47264e-18 6.33567e-07 2.7036e-06 9.69989e-14 2.03709e-14 2.24284e-13 2.70123e-06)
(-9.73605e-06 2.55582e-07 2.12804e-16 8.61137e-07 2.58028e-06 -5.89775e-14 2.89068e-14 4.87391e-15 2.56237e-06)
(-9.69766e-06 4.12168e-07 -4.75789e-16 2.07334e-06 2.58022e-06 6.50601e-14 -5.04542e-14 8.98152e-14 2.57533e-06)
(-9.71817e-06 5.7939e-07 -2.27779e-16 2.15161e-06 2.65719e-06 4.42647e-13 8.21269e-15 -3.79874e-14 2.57012e-06)
(-9.60145e-06 7.20317e-07 9.66224e-16 3.25338e-06 2.61837e-06 -1.67148e-13 3.71084e-13 -1.88292e-13 2.60858e-06)
(-9.61275e-06 8.95893e-07 1.26218e-16 3.34413e-06 2.73021e-06 -8.52424e-13 6.53968e-14 3.57198e-14 2.58382e-06)
(-9.41594e-06 1.00138e-06 -6.82721e-16 4.04458e-06 2.65944e-06 -1.24284e-13 -4.68214e-13 2.50186e-13 2.64131e-06)
(-9.34997e-06 1.16872e-06 -5.1209e-16 4.19345e-06 2.73158e-06 8.93893e-13 3.87533e-13 1.83732e-14 2.59896e-06)
(-9.07851e-06 1.22454e-06 2.32668e-16 4.36166e-06 2.65048e-06 1.5663e-13 9.12886e-13 -2.77985e-13 2.65693e-06)
(-8.88105e-06 1.3459e-06 2.68125e-16 4.46699e-06 2.61656e-06 -8.58876e-13 5.95145e-14 9.45888e-15 2.60426e-06)
(-8.53223e-06 1.33779e-06 4.08996e-16 4.08831e-06 2.53159e-06 1.9117e-13 -6.86895e-13 2.89982e-13 2.64365e-06)
(-8.19732e-06 1.36664e-06 -8.1174e-16 3.9924e-06 2.37474e-06 8.77168e-13 -3.03758e-13 2.49113e-14 2.58658e-06)
(-7.77489e-06 1.2786e-06 -1.22568e-15 3.08785e-06 2.28137e-06 -1.49074e-13 2.90899e-13 -1.79714e-13 2.59621e-06)
(-7.35024e-06 1.18034e-06 3.83247e-16 2.68783e-06 2.04175e-06 -8.34179e-13 1.14968e-14 3.61651e-15 2.53792e-06)
(-6.89928e-06 1.00667e-06 1.48048e-15 1.27734e-06 1.95446e-06 -1.29083e-13 -5.7491e-14 1.28891e-13 2.51732e-06)
(-6.47129e-06 7.82971e-07 -5.06389e-16 5.77974e-07 1.71345e-06 2.70075e-13 1.26236e-13 7.22157e-15 2.46111e-06)
(-9.73692e-06 1.09132e-07 -7.0611e-18 6.31461e-07 2.56351e-06 9.20338e-14 2.04088e-14 2.12736e-13 2.56264e-06)
(-8.97009e-06 3.63312e-07 1.94401e-16 8.48366e-07 2.35972e-06 -5.38065e-14 2.82222e-14 5.02284e-15 2.33784e-06)
(-8.9511e-06 5.83986e-07 -4.35141e-16 2.08319e-06 2.36029e-06 5.94674e-14 -5.52829e-14 8.2777e-14 2.35364e-06)
(-9.00547e-06 8.12712e-07 -2.07707e-16 2.12211e-06 2.45304e-06 4.04296e-13 1.19051e-14 -3.61022e-14 2.34729e-06)
(-8.92361e-06 1.00512e-06 8.8746e-16 3.22834e-06 2.41519e-06 -1.53359e-13 3.96196e-13 -1.81776e-13 2.39343e-06)
(-8.99585e-06 1.2302e-06 1.14771e-16 3.28151e-06 2.55493e-06 -7.80792e-13 6.55425e-14 3.28423e-14 2.3666e-06)
(-8.85929e-06 1.36651e-06 -6.30147e-16 3.94562e-06 2.49559e-06 -1.14658e-13 -4.97955e-13 2.49713e-13 2.43665e-06)
(-8.87868e-06 1.56583e-06 -4.70315e-16 4.06275e-06 2.60331e-06 8.23472e-13 3.98102e-13 7.15072e-15 2.3941e-06)
(-8.70113e-06 1.63e-06 2.17089e-16 4.16176e-06 2.5548e-06 1.45527e-13 9.39401e-13 -2.89852e-13 2.4683e-06)
(-8.61231e-06 1.76332e-06 2.47945e-16 4.23377e-06 2.56186e-06 -7.98318e-13 5.9384e-14 8.00214e-15 2.42055e-06)
(-8.38981e-06 1.74531e-06 3.85071e-16 3.78062e-06 2.53327e-06 1.7926e-13 -7.00997e-13 2.98469e-13 2.47883e-06)
(-8.18398e-06 1.76957e-06 -7.6227e-16 3.64965e-06 2.42202e-06 8.25352e-13 -3.05948e-13 3.27495e-14 2.43367e-06)
(-7.90542e-06 1.66295e-06 -1.16468e-15 2.69524e-06 2.39952e-06 -1.41488e-13 2.98683e-13 -1.81543e-13 2.46416e-06)
(-7.61759e-06 1.55403e-06 3.64701e-16 2.27717e-06 2.20419e-06 -7.9687e-13 1.06806e-14 3.73681e-15 2.42432e-06)
(-7.29858e-06 1.36555e-06 1.42775e-15 8.62603e-07 2.18118e-06 -1.24372e-13 -6.94953e-14 1.27829e-13 2.42538e-06)
(-6.98554e-06 1.13907e-06 -4.91759e-16 1.95101e-07 1.96493e-06 2.61308e-13 1.20038e-13 9.2168e-15 2.39122e-06)
(-8.96476e-06 1.55405e-07 -6.40971e-18 6.36303e-07 2.33883e-06 8.40192e-14 2.03297e-14 1.94152e-13 2.33918e-06)
(-8.10448e-06 4.51055e-07 1.70221e-16 8.5325e-07 2.072e-06 -4.70499e-14 2.61197e-14 5.27269e-15 2.04437e-06)
(-8.11036e-06 7.23843e-07 -3.81905e-16 2.12772e-06 2.0767e-06 5.21644e-14 -5.97371e-14 7.33388e-14 2.06439e-06)
(-8.20776e-06 1.00284e-06 -1.81763e-16 2.13739e-06 2.19196e-06 3.54599e-13 1.44707e-14 -3.36742e-14 2.05862e-06)
(-8.16995e-06 1.2363e-06 7.85249e-16 3.26396e-06 2.16104e-06 -1.35552e-13 4.21937e-13 -1.72002e-13 2.11561e-06)
(-8.31679e-06 1.50253e-06 1.00369e-16 3.29497e-06 2.33897e-06 -6.89295e-13 6.70242e-14 2.93133e-14 2.08919e-06)
(-8.25282e-06 1.6622e-06 -5.63136e-16 3.93578e-06 2.29951e-06 -1.02419e-13 -5.25757e-13 2.47462e-13 2.17638e-06)
(-8.37217e-06 1.88894e-06 -4.18148e-16 4.04021e-06 2.45385e-06 7.35017e-13 4.10273e-13 -5.96623e-15 2.13684e-06)
(-8.30157e-06 1.95798e-06 1.97306e-16 4.08124e-06 2.44771e-06 1.31644e-13 9.63589e-13 -3.0215e-13 2.23253e-06)
(-8.33314e-06 2.1024e-06 2.23251e-16 4.13671e-06 2.50469e-06 -7.23436e-13 5.98895e-14 6.36343e-15 2.19343e-06)
(-8.2466e-06 2.07478e-06 3.55133e-16 3.61798e-06 2.54075e-06 1.64577e-13 -7.0884e-13 3.08237e-13 2.27571e-06)
(-8.17517e-06 2.09584e-06 -7.01755e-16 3.45888e-06 2.47952e-06 7.61811e-13 -3.08223e-13 4.13844e-14 2.24619e-06)
(-8.0426e-06 1.97273e-06 -1.08923e-15 2.45643e-06 2.53142e-06 -1.32162e-13 3.00361e-13 -1.8472e-13 2.30183e-06)
(-7.88819e-06 1.8537e-06 3.41926e-16 2.01007e-06 2.37908e-06 -7.50617e-13 1.02817e-14 3.86428e-15 2.28353e-06)
(-7.69394e-06 1.65087e-06 1.36062e-15 5.77687e-07 2.4174e-06 -1.18418e-13 -7.48236e-14 1.28462e-13 2.3092e-06)
(-7.48437e-06 1.41786e-06 -4.7248e-16 -9.03544e-08 2.21998e-06 2.50006e-13 1.16985e-13 1.13054e-14 2.29895e-06)
(-8.09087e-06 1.93105e-07 -5.56774e-18 6.50546e-07 2.04539e-06 7.35173e-14 2.35184e-14 1.69839e-13 2.04654e-06)
(-7.14821e-06 5.21688e-07 1.41293e-16 8.79531e-07 1.72971e-06 -3.9e-14 2.72944e-14 5.63365e-15 1.69465e-06)
(-7.18343e-06 8.36303e-07 -3.18417e-16 2.2151e-06 1.74086e-06 4.34701e-14 -6.41849e-14 6.20283e-14 1.72023e-06)