/*--------------------------------*- C++ -*----------------------------------*\
| =========                 |                                                 |
| \\      /  F ield         | foam-extend: Open Source CFD                    |
|  \\    /   O peration     | Version:     4.1-20200408                       |
|   \\  /    A nd           | Web:         http://www.foam-extend.org         |
|    \\/     M anipulation  |                                                 |
\*---------------------------------------------------------------------------*/
FoamFile
{
    version     2.0;
    format      ascii;
    class       pointVectorField;
    location    "0.0495000";
    object      pointDU;
}
// * * * * * * * * * * * * * * * * * * * * * * * * * * * * * * * * * * * * * //

dimensions      [0 1 0 0 0 0 0];

internalField   nonuniform List<vector> 
4059
(
(0 1.04081e-17 -2.7215e-16)
(0 -1.14268e-14 4.82267e-16)
(0 -2.95189e-08 1.28882e-09)
(0 1.04049e-17 -2.72035e-16)
(0 -1.14268e-14 -7.71236e-16)
(0 -2.95189e-08 -1.28883e-09)
(0 1.78628e-14 -7.96547e-16)
(0 6.64047e-15 -3.06568e-16)
(0 3.75184e-15 -1.80448e-16)
(0 2.19922e-15 -1.12659e-16)
(0 1.19481e-15 -6.88059e-17)
(0 4.07337e-16 -3.44243e-17)
(0 -2.10741e-16 -7.43742e-18)
(0 -7.01102e-16 1.39728e-17)
(0 -1.12746e-15 3.25864e-17)
(0 -1.36043e-15 4.27578e-17)
(0 -1.59527e-15 5.30131e-17)
(0 -1.52027e-15 4.97377e-17)
(0 -1.5249e-15 4.99389e-17)
(0 -1.11944e-15 3.22363e-17)
(0 -1.03714e-15 2.86439e-17)
(0 -2.77595e-08 1.21201e-09)
(0 -2.59966e-08 1.13504e-09)
(0 -2.42138e-08 1.05719e-09)
(0 -2.24045e-08 9.78202e-10)
(0 -2.05812e-08 8.98594e-10)
(0 -1.87712e-08 8.1957e-10)
(0 -1.69407e-08 7.39645e-10)
(0 -1.50859e-08 6.58662e-10)
(0 -1.32236e-08 5.77353e-10)
(0 -1.13448e-08 4.95323e-10)
(0 -9.47763e-09 4.13802e-10)
(0 -7.59613e-09 3.31654e-10)
(0 -5.7037e-09 2.49029e-10)
(0 -3.8072e-09 1.66226e-10)
(0 -1.90424e-09 8.31408e-11)
(0 1.78628e-14 5.07581e-16)
(0 6.64047e-15 1.76012e-17)
(0 3.75184e-15 -1.08519e-16)
(0 2.19922e-15 -1.76308e-16)
(0 1.19481e-15 -2.20162e-16)
(0 4.07337e-16 -2.54545e-16)
(0 -2.10741e-16 -2.81529e-16)
(0 -7.01102e-16 -3.02939e-16)
(0 -1.12746e-15 -3.21556e-16)
(0 -1.36043e-15 -3.31727e-16)
(0 -1.59527e-15 -3.41979e-16)
(0 -1.52027e-15 -3.38705e-16)
(0 -1.5249e-15 -3.38908e-16)
(0 -1.11944e-15 -3.21205e-16)
(0 -1.03714e-15 -3.17611e-16)
(0 -2.77595e-08 -1.21201e-09)
(0 -2.59966e-08 -1.13504e-09)
(0 -2.42138e-08 -1.0572e-09)
(0 -2.24045e-08 -9.78205e-10)
(0 -2.05812e-08 -8.98597e-10)
(0 -1.87712e-08 -8.19572e-10)
(0 -1.69407e-08 -7.39647e-10)
(0 -1.50859e-08 -6.58664e-10)
(0 -1.32236e-08 -5.77355e-10)
(0 -1.13448e-08 -4.95325e-10)
(0 -9.47763e-09 -4.13803e-10)
(0 -7.59613e-09 -3.31655e-10)
(0 -5.7037e-09 -2.4903e-10)
(0 -3.8072e-09 -1.66226e-10)
(0 -1.90424e-09 -8.31413e-11)
(4.99996e-05 -5.97632e-10 2.60931e-11)
(4.99996e-05 -5.97632e-10 -2.60935e-11)
(4.99996e-05 -3.02552e-10 -1.321e-11)
(4.99996e-05 -3.02552e-10 1.32097e-11)
(4.99997e-05 -8.93783e-10 3.90234e-11)
(4.99997e-05 -8.93783e-10 -3.90238e-11)
(4.99998e-05 -1.17497e-09 5.13003e-11)
(4.99998e-05 -1.17497e-09 -5.13007e-11)
(4.99999e-05 -1.44884e-09 6.32575e-11)
(4.99999e-05 -1.44884e-09 -6.3258e-11)
(5e-05 -1.70065e-09 7.42518e-11)
(5e-05 -1.70065e-09 -7.42523e-11)
(5.00002e-05 -1.93198e-09 8.43522e-11)
(5.00002e-05 -1.93198e-09 -8.43527e-11)
(5.00005e-05 -2.12929e-09 9.29667e-11)
(5.00005e-05 -2.12929e-09 -9.29672e-11)
(5.00008e-05 -2.29719e-09 1.00297e-10)
(5.00008e-05 -2.29719e-09 -1.00298e-10)
(5.00012e-05 -2.41933e-09 1.0563e-10)
(5.00012e-05 -2.41933e-09 -1.05631e-10)
(5.00017e-05 -2.49988e-09 1.09147e-10)
(5.00017e-05 -2.49988e-09 -1.09148e-10)
(5.00023e-05 -2.51541e-09 1.09825e-10)
(5.00023e-05 -2.51541e-09 -1.09826e-10)
(5.0003e-05 -2.48181e-09 1.08358e-10)
(5.0003e-05 -2.48181e-09 -1.08359e-10)
(5.00039e-05 -2.39802e-09 1.047e-10)
(5.00039e-05 -2.39802e-09 -1.047e-10)
(5.00051e-05 -2.30912e-09 1.00818e-10)
(5.00051e-05 -2.30912e-09 -1.00819e-10)
(5.00063e-05 -2.30173e-09 1.00496e-10)
(5.00063e-05 -2.30173e-09 -1.00496e-10)
(4.99996e-05 1.11257e-17 -2.90912e-16)
(4.99998e-05 -4.20104e-10 1.83421e-11)
(4.99998e-05 -4.20104e-10 -1.83425e-11)
(4.99998e-05 -2.11917e-10 -9.25282e-12)
(4.99998e-05 -2.11917e-10 9.25248e-12)
(4.99999e-05 -6.22327e-10 2.71714e-11)
(4.99999e-05 -6.22327e-10 -2.71718e-11)
(5e-05 -8.11051e-10 3.54112e-11)
(5e-05 -8.11051e-10 -3.54116e-11)
(5.00001e-05 -9.86877e-10 4.3088e-11)
(5.00001e-05 -9.86877e-10 -4.30884e-11)
(5.00003e-05 -1.13902e-09 4.97305e-11)
(5.00003e-05 -1.13902e-09 -4.9731e-11)
(5.00005e-05 -1.26716e-09 5.53255e-11)
(5.00005e-05 -1.26716e-09 -5.53259e-11)
(5.00007e-05 -1.36059e-09 5.94044e-11)
(5.00007e-05 -1.36059e-09 -5.94049e-11)
(5.00011e-05 -1.42354e-09 6.21529e-11)
(5.00011e-05 -1.42354e-09 -6.21534e-11)
(5.00015e-05 -1.44454e-09 6.30698e-11)
(5.00015e-05 -1.44454e-09 -6.30703e-11)
(5.0002e-05 -1.43058e-09 6.24603e-11)
(5.0002e-05 -1.43058e-09 -6.24608e-11)
(5.00026e-05 -1.3693e-09 5.97849e-11)
(5.00026e-05 -1.3693e-09 -5.97854e-11)
(5.00033e-05 -1.28341e-09 5.60349e-11)
(5.00033e-05 -1.28341e-09 -5.60354e-11)
(5.00042e-05 -1.18018e-09 5.15279e-11)
(5.00042e-05 -1.18018e-09 -5.15283e-11)
(5.00051e-05 -1.10464e-09 4.82297e-11)
(5.00051e-05 -1.10464e-09 -4.82301e-11)
(5.00061e-05 -1.09325e-09 4.77324e-11)
(5.00061e-05 -1.09325e-09 -4.77328e-11)
(4.99997e-05 1.11257e-17 -2.90913e-16)
(5.00001e-05 -2.57814e-10 1.12564e-11)
(5.00001e-05 -2.57814e-10 -1.12567e-11)
(5e-05 -1.30519e-10 -5.6989e-12)
(5e-05 -1.30519e-10 5.69857e-12)
(5.00002e-05 -3.77323e-10 1.64742e-11)
(5.00002e-05 -3.77323e-10 -1.64746e-11)
(5.00003e-05 -4.84038e-10 2.11335e-11)
(5.00003e-05 -4.84038e-10 -2.11339e-11)
(5.00004e-05 -5.76127e-10 2.51542e-11)
(5.00004e-05 -5.76127e-10 -2.51546e-11)
(5.00006e-05 -6.45514e-10 2.81837e-11)
(5.00006e-05 -6.45514e-10 -2.81841e-11)
(5.00008e-05 -6.92217e-10 3.02228e-11)
(5.00008e-05 -6.92217e-10 -3.02232e-11)
(5.00011e-05 -7.0798e-10 3.0911e-11)
(5.00011e-05 -7.0798e-10 -3.09114e-11)
(5.00015e-05 -6.97329e-10 3.0446e-11)
(5.00015e-05 -6.97329e-10 -3.04464e-11)
(5.00019e-05 -6.52815e-10 2.85025e-11)
(5.00019e-05 -6.52815e-10 -2.85029e-11)
(5.00024e-05 -5.83744e-10 2.54868e-11)
(5.00024e-05 -5.83744e-10 -2.54872e-11)
(5.0003e-05 -4.85734e-10 2.12076e-11)
(5.0003e-05 -4.85734e-10 -2.12079e-11)
(5.00036e-05 -3.81777e-10 1.66687e-11)
(5.00036e-05 -3.81777e-10 -1.66691e-11)
(5.00044e-05 -2.81187e-10 1.22768e-11)
(5.00044e-05 -2.81187e-10 -1.22772e-11)
(5.00051e-05 -2.26214e-10 9.87671e-12)
(5.00051e-05 -2.26214e-10 -9.87705e-12)
(5.00059e-05 -2.36614e-10 1.03308e-11)
(5.00059e-05 -2.36614e-10 -1.03311e-11)
(5e-05 1.11258e-17 -2.90915e-16)
(5.00004e-05 -1.18815e-10 5.18754e-12)
(5.00004e-05 -1.18815e-10 -5.18786e-12)
(5.00004e-05 -6.0909e-11 -2.65964e-12)
(5.00004e-05 -6.0909e-11 2.65933e-12)
(5.00005e-05 -1.68972e-10 7.37745e-12)
(5.00005e-05 -1.68972e-10 -7.37778e-12)
(5.00006e-05 -2.07376e-10 9.05421e-12)
(5.00006e-05 -2.07376e-10 -9.05454e-12)
(5.00008e-05 -2.31974e-10 1.01282e-11)
(5.00008e-05 -2.31974e-10 -1.01285e-11)
(5.0001e-05 -2.36424e-10 1.03225e-11)
(5.0001e-05 -2.36424e-10 -1.03228e-11)
(5.00013e-05 -2.21642e-10 9.67709e-12)
(5.00013e-05 -2.21642e-10 -9.67743e-12)
(5.00015e-05 -1.81448e-10 7.92217e-12)
(5.00015e-05 -1.81448e-10 -7.9225e-12)
(5.00019e-05 -1.2124e-10 5.29342e-12)
(5.00019e-05 -1.2124e-10 -5.29374e-12)
(5.00023e-05 -3.68629e-11 1.60945e-12)
(5.00023e-05 -3.68629e-11 -1.60976e-12)
(5.00028e-05 6.12515e-11 -2.67432e-12)
(5.00028e-05 6.12515e-11 2.67401e-12)
(5.00033e-05 1.72937e-10 -7.55063e-12)
(5.00033e-05 1.72937e-10 7.55034e-12)
(5.00039e-05 2.77785e-10 -1.21283e-11)
(5.00039e-05 2.77785e-10 1.21281e-11)
(5.00046e-05 3.67215e-10 -1.60329e-11)
(5.00046e-05 3.67215e-10 1.60327e-11)
(5.00052e-05 4.12076e-10 -1.79916e-11)
(5.00052e-05 4.12076e-10 1.79914e-11)
(5.00058e-05 4.05495e-10 -1.77043e-11)
(5.00058e-05 4.05495e-10 1.7704e-11)
(5.00004e-05 1.11259e-17 -2.90917e-16)
(5.00009e-05 -4.43255e-12 1.93511e-13)
(5.00009e-05 -4.43255e-12 -1.93821e-13)
(5.00009e-05 -3.56144e-12 -1.55787e-13)
(5.00009e-05 -3.56144e-12 1.55478e-13)
(5.0001e-05 1.49342e-12 -6.52217e-14)
(5.0001e-05 1.49342e-12 6.4913e-14)
(5.00011e-05 1.77142e-11 -7.73435e-13)
(5.00011e-05 1.77142e-11 7.73128e-13)
(5.00013e-05 4.55486e-11 -1.98871e-12)
(5.00013e-05 4.55486e-11 1.98841e-12)
(5.00015e-05 9.02003e-11 -3.93825e-12)
(5.00015e-05 9.02003e-11 3.93795e-12)
(5.00017e-05 1.49557e-10 -6.52983e-12)
(5.00017e-05 1.49557e-10 6.52954e-12)
(5.0002e-05 2.28363e-10 -9.97056e-12)
(5.0002e-05 2.28363e-10 9.97027e-12)
(5.00024e-05 3.20471e-10 -1.39921e-11)
(5.00024e-05 3.20471e-10 1.39918e-11)
(5.00028e-05 4.28035e-10 -1.86884e-11)
(5.00028e-05 4.28035e-10 1.86881e-11)
(5.00032e-05 5.40623e-10 -2.36041e-11)
(5.00032e-05 5.40623e-10 2.36039e-11)
(5.00037e-05 6.55995e-10 -2.86414e-11)
(5.00037e-05 6.55995e-10 2.86412e-11)
(5.00042e-05 7.5741e-10 -3.30693e-11)
(5.00042e-05 7.5741e-10 3.3069e-11)
(5.00048e-05 8.37868e-10 -3.65821e-11)
(5.00048e-05 8.37868e-10 3.65819e-11)
(5.00053e-05 8.77104e-10 -3.82952e-11)
(5.00053e-05 8.77104e-10 3.8295e-11)
(5.00057e-05 8.7355e-10 -3.814e-11)
(5.00057e-05 8.7355e-10 3.81398e-11)
(5.00008e-05 1.1126e-17 -2.90919e-16)
(5.00014e-05 8.56661e-11 -3.74028e-12)
(5.00014e-05 8.56661e-11 3.73998e-12)
(5.00014e-05 4.16951e-11 1.82016e-12)
(5.00014e-05 4.16951e-11 -1.82046e-12)
(5.00015e-05 1.35118e-10 -5.89942e-12)
(5.00015e-05 1.35118e-10 5.89912e-12)
(5.00016e-05 1.93145e-10 -8.43289e-12)
(5.00016e-05 1.93145e-10 8.4326e-12)
(5.00018e-05 2.60026e-10 -1.1353e-11)
(5.00018e-05 2.60026e-10 1.13527e-11)
(5.0002e-05 3.40225e-10 -1.48545e-11)
(5.0002e-05 3.40225e-10 1.48543e-11)
(5.00023e-05 4.30491e-10 -1.87957e-11)
(5.00023e-05 4.30491e-10 1.87954e-11)
(5.00026e-05 5.34663e-10 -2.33439e-11)
(5.00026e-05 5.34663e-10 2.33436e-11)
(5.00029e-05 6.46036e-10 -2.82066e-11)
(5.00029e-05 6.46036e-10 2.82063e-11)
(5.00033e-05 7.65693e-10 -3.34309e-11)
(5.00033e-05 7.65693e-10 3.34306e-11)
(5.00037e-05 8.83896e-10 -3.85917e-11)
(5.00037e-05 8.83896e-10 3.85915e-11)
(5.00041e-05 9.97826e-10 -4.3566e-11)
(5.00041e-05 9.97826e-10 4.35658e-11)
(5.00046e-05 1.09461e-09 -4.77919e-11)
(5.00046e-05 1.09461e-09 4.77917e-11)
(5.0005e-05 1.16898e-09 -5.10388e-11)
(5.0005e-05 1.16898e-09 5.10386e-11)
(5.00054e-05 1.20843e-09 -5.27613e-11)
(5.00054e-05 1.20843e-09 5.27611e-11)
(5.00057e-05 1.21391e-09 -5.30005e-11)
(5.00057e-05 1.21391e-09 5.30003e-11)
(5.00013e-05 1.11261e-17 -2.90922e-16)
(5.0002e-05 1.53078e-10 -6.68355e-12)
(5.0002e-05 1.53078e-10 6.68326e-12)
(5.00019e-05 7.5627e-11 3.30166e-12)
(5.00019e-05 7.5627e-11 -3.30196e-12)
(5.00021e-05 2.34632e-10 -1.02443e-11)
(5.00021e-05 2.34632e-10 1.0244e-11)
(5.00022e-05 3.23033e-10 -1.41039e-11)
(5.00022e-05 3.23033e-10 1.41037e-11)
(5.00024e-05 4.17514e-10 -1.82291e-11)
(5.00024e-05 4.17514e-10 1.82288e-11)
(5.00026e-05 5.22118e-10 -2.27962e-11)
(5.00026e-05 5.22118e-10 2.27959e-11)
(5.00028e-05 6.32604e-10 -2.76201e-11)
(5.00028e-05 6.32604e-10 2.76199e-11)
(5.00031e-05 7.52406e-10 -3.28508e-11)
(5.00031e-05 7.52406e-10 3.28505e-11)
(5.00034e-05 8.74518e-10 -3.81823e-11)
(5.00034e-05 8.74518e-10 3.81821e-11)
(5.00037e-05 9.99679e-10 -4.36469e-11)
(5.00037e-05 9.99679e-10 4.36467e-11)
(5.00041e-05 1.11919e-09 -4.8865e-11)
(5.00041e-05 1.11919e-09 4.88648e-11)
(5.00045e-05 1.23039e-09 -5.372e-11)
(5.00045e-05 1.23039e-09 5.37198e-11)
(5.00049e-05 1.32382e-09 -5.77991e-11)
(5.00049e-05 1.32382e-09 5.77989e-11)
(5.00053e-05 1.39548e-09 -6.09279e-11)
(5.00053e-05 1.39548e-09 6.09278e-11)
(5.00056e-05 1.43828e-09 -6.27966e-11)
(5.00056e-05 1.43828e-09 6.27965e-11)
(5.00058e-05 1.45366e-09 -6.34682e-11)
(5.00058e-05 1.45366e-09 6.34681e-11)
(5.00019e-05 1.11262e-17 -2.90925e-16)
(5.00025e-05 2.00227e-10 -8.74212e-12)
(5.00025e-05 2.00227e-10 8.74184e-12)
(5.00025e-05 9.94113e-11 4.34011e-12)
(5.00025e-05 9.94113e-11 -4.34041e-12)
(5.00026e-05 3.03877e-10 -1.32675e-11)
(5.00026e-05 3.03877e-10 1.32673e-11)
(5.00027e-05 4.12848e-10 -1.80253e-11)
(5.00027e-05 4.12848e-10 1.80251e-11)
(5.00029e-05 5.25418e-10 -2.29403e-11)
(5.00029e-05 5.25418e-10 2.294e-11)
(5.00031e-05 6.45498e-10 -2.81831e-11)
(5.00031e-05 6.45498e-10 2.81828e-11)
(5.00034e-05 7.68015e-10 -3.35323e-11)
(5.00034e-05 7.68015e-10 3.35321e-11)
(5.00036e-05 8.96397e-10 -3.91375e-11)
(5.00036e-05 8.96397e-10 3.91373e-11)
(5.00039e-05 1.02351e-09 -4.46874e-11)
(5.00039e-05 1.02351e-09 4.46872e-11)
(5.00042e-05 1.1502e-09 -5.0219e-11)
(5.00042e-05 1.1502e-09 5.02188e-11)
(5.00046e-05 1.26892e-09 -5.54022e-11)
(5.00046e-05 1.26892e-09 5.5402e-11)
(5.00049e-05 1.37743e-09 -6.01398e-11)
(5.00049e-05 1.37743e-09 6.01396e-11)
(5.00052e-05 1.46915e-09 -6.41445e-11)
(5.00052e-05 1.46915e-09 6.41444e-11)
(5.00055e-05 1.54092e-09 -6.72782e-11)
(5.00055e-05 1.54092e-09 6.72781e-11)
(5.00058e-05 1.58962e-09 -6.94045e-11)
(5.00058e-05 1.58962e-09 6.94044e-11)
(5.00059e-05 1.61624e-09 -7.05667e-11)
(5.00059e-05 1.61624e-09 7.05666e-11)
(5.00024e-05 1.11263e-17 -2.90929e-16)
(5.00031e-05 2.29788e-10 -1.00328e-11)
(5.00031e-05 2.29788e-10 1.00325e-11)
(5.0003e-05 1.14364e-10 4.99295e-12)
(5.0003e-05 1.14364e-10 -4.99324e-12)
(5.00032e-05 3.46986e-10 -1.51497e-11)
(5.00032e-05 3.46986e-10 1.51495e-11)
(5.00033e-05 4.68319e-10 -2.04473e-11)
(5.00033e-05 4.68319e-10 2.0447e-11)
(5.00035e-05 5.91229e-10 -2.58136e-11)
(5.00035e-05 5.91229e-10 2.58134e-11)
(5.00037e-05 7.19759e-10 -3.14254e-11)
(5.00037e-05 7.19759e-10 3.14252e-11)
(5.00039e-05 8.48135e-10 -3.70304e-11)
(5.00039e-05 8.48135e-10 3.70302e-11)
(5.00041e-05 9.80094e-10 -4.27918e-11)
(5.00041e-05 9.80094e-10 4.27917e-11)
(5.00044e-05 1.10848e-09 -4.83972e-11)
(5.00044e-05 1.10848e-09 4.8397e-11)
(5.00047e-05 1.23451e-09 -5.39e-11)
(5.00047e-05 1.23451e-09 5.38998e-11)
(5.0005e-05 1.35172e-09 -5.90174e-11)
(5.0005e-05 1.35172e-09 5.90172e-11)
(5.00053e-05 1.45833e-09 -6.36723e-11)
(5.00053e-05 1.45833e-09 6.36721e-11)
(5.00056e-05 1.55009e-09 -6.76784e-11)
(5.00056e-05 1.55009e-09 6.76783e-11)
(5.00058e-05 1.62417e-09 -7.0913e-11)
(5.00058e-05 1.62417e-09 7.09128e-11)
(5.0006e-05 1.68028e-09 -7.33624e-11)
(5.0006e-05 1.68028e-09 7.33623e-11)
(5.00061e-05 1.71836e-09 -7.50251e-11)
(5.00061e-05 1.71836e-09 7.5025e-11)
(5.0003e-05 1.11265e-17 -2.90932e-16)
(5.00037e-05 2.44446e-10 -1.06727e-11)
(5.00037e-05 2.44446e-10 1.06725e-11)
(5.00036e-05 1.21814e-10 5.31824e-12)
(5.00036e-05 1.21814e-10 -5.31854e-12)
(5.00038e-05 3.68043e-10 -1.60691e-11)
(5.00038e-05 3.68043e-10 1.60689e-11)
(5.00039e-05 4.94997e-10 -2.1612e-11)
(5.00039e-05 4.94997e-10 2.16118e-11)
(5.0004e-05 6.22018e-10 -2.71579e-11)
(5.0004e-05 6.22018e-10 2.71577e-11)
(5.00042e-05 7.53532e-10 -3.28999e-11)
(5.00042e-05 7.53532e-10 3.28997e-11)
(5.00044e-05 8.83139e-10 -3.85587e-11)
(5.00044e-05 8.83139e-10 3.85585e-11)
(5.00047e-05 1.01513e-09 -4.43217e-11)
(5.00047e-05 1.01513e-09 4.43215e-11)
(5.00049e-05 1.14236e-09 -4.98764e-11)
(5.00049e-05 1.14236e-09 4.98762e-11)
(5.00052e-05 1.26655e-09 -5.52986e-11)
(5.00052e-05 1.26655e-09 5.52985e-11)
(5.00054e-05 1.38219e-09 -6.03475e-11)
(5.00054e-05 1.38219e-09 6.03474e-11)
(5.00057e-05 1.48786e-09 -6.49613e-11)
(5.00057e-05 1.48786e-09 6.49612e-11)
(5.00059e-05 1.58116e-09 -6.90348e-11)
(5.00059e-05 1.58116e-09 6.90347e-11)
(5.00061e-05 1.65921e-09 -7.24427e-11)
(5.00061e-05 1.65921e-09 7.24426e-11)
(5.00062e-05 1.72376e-09 -7.52611e-11)
(5.00062e-05 1.72376e-09 7.5261e-11)
(5.00063e-05 1.77343e-09 -7.74295e-11)
(5.00063e-05 1.77343e-09 7.74294e-11)
(5.00036e-05 1.11266e-17 -2.90935e-16)
(5.00042e-05 2.46678e-10 -1.07702e-11)
(5.00042e-05 2.46678e-10 1.07699e-11)
(5.00042e-05 1.22997e-10 5.3699e-12)
(5.00042e-05 1.22997e-10 -5.37019e-12)
(5.00043e-05 3.70778e-10 -1.61885e-11)
(5.00043e-05 3.70778e-10 1.61882e-11)
(5.00044e-05 4.9788e-10 -2.17379e-11)
(5.00044e-05 4.9788e-10 2.17377e-11)
(5.00046e-05 6.24047e-10 -2.72465e-11)
(5.00046e-05 6.24047e-10 2.72463e-11)
(5.00047e-05 7.54315e-10 -3.29341e-11)
(5.00047e-05 7.54315e-10 3.29339e-11)
(5.00049e-05 8.81689e-10 -3.84954e-11)
(5.00049e-05 8.81689e-10 3.84952e-11)
(5.00052e-05 1.01121e-09 -4.41505e-11)
(5.00052e-05 1.01121e-09 4.41503e-11)
(5.00054e-05 1.13571e-09 -4.9586e-11)
(5.00054e-05 1.13571e-09 4.95858e-11)
(5.00056e-05 1.25747e-09 -5.49022e-11)
(5.00056e-05 1.25747e-09 5.49021e-11)
(5.00059e-05 1.3718e-09 -5.9894e-11)
(5.00059e-05 1.3718e-09 5.98938e-11)
(5.00061e-05 1.47747e-09 -6.45079e-11)
(5.00061e-05 1.47747e-09 6.45078e-11)
(5.00063e-05 1.57357e-09 -6.87035e-11)
(5.00063e-05 1.57357e-09 6.87034e-11)
(5.00064e-05 1.65682e-09 -7.23384e-11)
(5.00064e-05 1.65682e-09 7.23383e-11)
(5.00065e-05 1.73048e-09 -7.55545e-11)
(5.00065e-05 1.73048e-09 7.55544e-11)
(5.00066e-05 1.79162e-09 -7.82238e-11)
(5.00066e-05 1.79162e-09 7.82237e-11)
(5.00041e-05 1.11267e-17 -2.90938e-16)
(5.00047e-05 2.38661e-10 -1.04202e-11)
(5.00047e-05 2.38661e-10 1.04199e-11)
(5.00047e-05 1.19003e-10 5.19548e-12)
(5.00047e-05 1.19003e-10 -5.19578e-12)
(5.00048e-05 3.5844e-10 -1.56499e-11)
(5.00048e-05 3.5844e-10 1.56496e-11)
(5.00049e-05 4.81279e-10 -2.10131e-11)
(5.00049e-05 4.81279e-10 2.10128e-11)
(5.00051e-05 6.0264e-10 -2.63119e-11)
(5.00051e-05 6.0264e-10 2.63116e-11)
(5.00052e-05 7.28381e-10 -3.18018e-11)
(5.00052e-05 7.28381e-10 3.18016e-11)
(5.00054e-05 8.50906e-10 -3.71514e-11)
(5.00054e-05 8.50906e-10 3.71512e-11)
(5.00056e-05 9.76159e-10 -4.262e-11)
(5.00056e-05 9.76159e-10 4.26198e-11)
(5.00058e-05 1.09689e-09 -4.78911e-11)
(5.00058e-05 1.09689e-09 4.78909e-11)
(5.00061e-05 1.21595e-09 -5.30897e-11)
(5.00061e-05 1.21595e-09 5.30895e-11)
(5.00063e-05 1.32935e-09 -5.80406e-11)
(5.00063e-05 1.32935e-09 5.80404e-11)
(5.00065e-05 1.43586e-09 -6.2691e-11)
(5.00065e-05 1.43586e-09 6.26909e-11)
(5.00066e-05 1.53578e-09 -6.70534e-11)
(5.00066e-05 1.53578e-09 6.70533e-11)
(5.00068e-05 1.62516e-09 -7.09561e-11)
(5.00068e-05 1.62516e-09 7.09559e-11)
(5.00068e-05 1.70842e-09 -7.45911e-11)
(5.00068e-05 1.70842e-09 7.4591e-11)
(5.00069e-05 1.78093e-09 -7.7757e-11)
(5.00069e-05 1.78093e-09 7.77569e-11)
(5.00046e-05 1.11268e-17 -2.90941e-16)
(5.00052e-05 2.22253e-10 -9.70378e-12)
(5.00052e-05 2.22253e-10 9.70349e-12)
(5.00052e-05 1.10762e-10 4.83568e-12)
(5.00052e-05 1.10762e-10 -4.83598e-12)
(5.00053e-05 3.33782e-10 -1.45732e-11)
(5.00053e-05 3.33782e-10 1.4573e-11)
(5.00054e-05 4.48807e-10 -1.95954e-11)
(5.00054e-05 4.48807e-10 1.95951e-11)
(5.00056e-05 5.62206e-10 -2.45465e-11)
(5.00056e-05 5.62206e-10 2.45462e-11)
(5.00057e-05 6.80861e-10 -2.9727e-11)
(5.00057e-05 6.80861e-10 2.97268e-11)
(5.00059e-05 7.96529e-10 -3.47772e-11)
(5.00059e-05 7.96529e-10 3.4777e-11)
(5.00061e-05 9.16188e-10 -4.00016e-11)
(5.00061e-05 9.16188e-10 4.00014e-11)
(5.00063e-05 1.03245e-09 -4.50776e-11)
(5.00063e-05 1.03245e-09 4.50774e-11)
(5.00065e-05 1.14871e-09 -5.01539e-11)
(5.00065e-05 1.14871e-09 5.01537e-11)
(5.00067e-05 1.26156e-09 -5.5081e-11)
(5.00067e-05 1.26156e-09 5.50808e-11)
(5.00069e-05 1.36961e-09 -5.97987e-11)
(5.00069e-05 1.36961e-09 5.97985e-11)
(5.0007e-05 1.4742e-09 -6.43648e-11)
(5.0007e-05 1.4742e-09 6.43647e-11)
(5.00071e-05 1.57046e-09 -6.85677e-11)
(5.00071e-05 1.57046e-09 6.85676e-11)
(5.00072e-05 1.66371e-09 -7.26393e-11)
(5.00072e-05 1.66371e-09 7.26392e-11)
(5.00072e-05 1.74756e-09 -7.62999e-11)
(5.00072e-05 1.74756e-09 7.62998e-11)
(5.00051e-05 1.11269e-17 -2.90944e-16)
(5.00057e-05 1.98987e-10 -8.68796e-12)
(5.00057e-05 1.98987e-10 8.68767e-12)
(5.00056e-05 9.90481e-11 4.32425e-12)
(5.00056e-05 9.90481e-11 -4.32455e-12)
(5.00057e-05 2.99063e-10 -1.30574e-11)
(5.00057e-05 2.99063e-10 1.30571e-11)
(5.00059e-05 4.03412e-10 -1.76134e-11)
(5.00059e-05 4.03412e-10 1.76131e-11)
(5.0006e-05 5.06306e-10 -2.21058e-11)
(5.0006e-05 5.06306e-10 2.21055e-11)
(5.00062e-05 6.15848e-10 -2.68885e-11)
(5.00062e-05 6.15848e-10 2.68883e-11)
(5.00063e-05 7.23082e-10 -3.15705e-11)
(5.00063e-05 7.23082e-10 3.15702e-11)
(5.00065e-05 8.36134e-10 -3.65064e-11)
(5.00065e-05 8.36134e-10 3.65062e-11)
(5.00067e-05 9.47415e-10 -4.1365e-11)
(5.00067e-05 9.47415e-10 4.13648e-11)
(5.00069e-05 1.06084e-09 -4.63171e-11)
(5.00069e-05 1.06084e-09 4.63169e-11)
(5.00071e-05 1.1735e-09 -5.12362e-11)
(5.00071e-05 1.1735e-09 5.1236e-11)
(5.00073e-05 1.28369e-09 -5.6047e-11)
(5.00073e-05 1.28369e-09 5.60469e-11)
(5.00074e-05 1.39367e-09 -6.08488e-11)
(5.00074e-05 1.39367e-09 6.08487e-11)
(5.00075e-05 1.49745e-09 -6.53801e-11)
(5.00075e-05 1.49745e-09 6.538e-11)
(5.00075e-05 1.60113e-09 -6.9907e-11)
(5.00075e-05 1.60113e-09 6.99068e-11)
(5.00075e-05 1.69641e-09 -7.40669e-11)
(5.00075e-05 1.69641e-09 7.40667e-11)
(5.00056e-05 1.1127e-17 -2.90947e-16)
(5.00061e-05 1.70143e-10 -7.42862e-12)
(5.00061e-05 1.70143e-10 7.42833e-12)
(5.0006e-05 8.45074e-11 3.68939e-12)
(5.0006e-05 8.45074e-11 -3.68969e-12)
(5.00062e-05 2.56156e-10 -1.1184e-11)
(5.00062e-05 2.56156e-10 1.11837e-11)
(5.00063e-05 3.47519e-10 -1.5173e-11)
(5.00063e-05 3.47519e-10 1.51728e-11)
(5.00064e-05 4.37837e-10 -1.91164e-11)
(5.00064e-05 4.37837e-10 1.91161e-11)
(5.00066e-05 5.36643e-10 -2.34303e-11)
(5.00066e-05 5.36643e-10 2.34301e-11)
(5.00068e-05 6.34166e-10 -2.76883e-11)
(5.00068e-05 6.34166e-10 2.76881e-11)
(5.0007e-05 7.39803e-10 -3.23005e-11)
(5.0007e-05 7.39803e-10 3.23003e-11)
(5.00072e-05 8.45704e-10 -3.69242e-11)
(5.00072e-05 8.45704e-10 3.6924e-11)
(5.00073e-05 9.56249e-10 -4.17508e-11)
(5.00073e-05 9.56249e-10 4.17506e-11)
(5.00075e-05 1.06905e-09 -4.66758e-11)
(5.00075e-05 1.06905e-09 4.66756e-11)
(5.00077e-05 1.18188e-09 -5.16018e-11)
(5.00077e-05 1.18188e-09 5.16016e-11)
(5.00078e-05 1.29791e-09 -5.66681e-11)
(5.00078e-05 1.29791e-09 5.6668e-11)
(5.00079e-05 1.40984e-09 -6.15548e-11)
(5.00079e-05 1.40984e-09 6.15547e-11)
(5.00079e-05 1.52446e-09 -6.65594e-11)
(5.00079e-05 1.52446e-09 6.65592e-11)
(5.00079e-05 1.63147e-09 -7.12314e-11)
(5.00079e-05 1.63147e-09 7.12313e-11)
(5.0006e-05 1.11271e-17 -2.90949e-16)
(5.00064e-05 1.36801e-10 -5.97286e-12)
(5.00064e-05 1.36801e-10 5.97257e-12)
(5.00064e-05 6.76867e-11 2.95498e-12)
(5.00064e-05 6.76867e-11 -2.95528e-12)
(5.00065e-05 2.06633e-10 -9.02179e-12)
(5.00065e-05 2.06633e-10 9.02151e-12)
(5.00066e-05 2.83147e-10 -1.23625e-11)
(5.00066e-05 2.83147e-10 1.23622e-11)
(5.00068e-05 3.59195e-10 -1.56828e-11)
(5.00068e-05 3.59195e-10 1.56825e-11)
(5.0007e-05 4.45943e-10 -1.94703e-11)
(5.0007e-05 4.45943e-10 1.94701e-11)
(5.00071e-05 5.32697e-10 -2.32581e-11)
(5.00071e-05 5.32697e-10 2.32578e-11)
(5.00073e-05 6.30243e-10 -2.7517e-11)
(5.00073e-05 6.30243e-10 2.75168e-11)
(5.00076e-05 7.30418e-10 -3.18908e-11)
(5.00076e-05 7.30418e-10 3.18905e-11)
(5.00078e-05 8.38046e-10 -3.65899e-11)
(5.00078e-05 8.38046e-10 3.65897e-11)
(5.00079e-05 9.51262e-10 -4.1533e-11)
(5.00079e-05 9.51262e-10 4.15328e-11)
(5.00081e-05 1.06716e-09 -4.65932e-11)
(5.00081e-05 1.06716e-09 4.6593e-11)
(5.00082e-05 1.1899e-09 -5.19521e-11)
(5.00082e-05 1.1899e-09 5.1952e-11)
(5.00083e-05 1.31061e-09 -5.72224e-11)
(5.00083e-05 1.31061e-09 5.72223e-11)
(5.00083e-05 1.43683e-09 -6.27332e-11)
(5.00083e-05 1.43683e-09 6.27331e-11)
(5.00083e-05 1.5561e-09 -6.79408e-11)
(5.00083e-05 1.5561e-09 6.79407e-11)
(5.00063e-05 1.11272e-17 -2.90951e-16)
(5.00067e-05 9.99442e-11 -4.36367e-12)
(5.00067e-05 9.99442e-11 4.36338e-12)
(5.00067e-05 4.90843e-11 2.14278e-12)
(5.00067e-05 4.90843e-11 -2.14308e-12)
(5.00068e-05 1.51917e-10 -6.63284e-12)
(5.00068e-05 1.51917e-10 6.63255e-12)
(5.0007e-05 2.12121e-10 -9.26143e-12)
(5.0007e-05 2.12121e-10 9.26114e-12)
(5.00071e-05 2.72524e-10 -1.18987e-11)
(5.00071e-05 2.72524e-10 1.18984e-11)
(5.00073e-05 3.46151e-10 -1.51133e-11)
(5.00073e-05 3.46151e-10 1.5113e-11)
(5.00075e-05 4.21248e-10 -1.83921e-11)
(5.00075e-05 4.21248e-10 1.83918e-11)
(5.00077e-05 5.10121e-10 -2.22724e-11)
(5.00077e-05 5.10121e-10 2.22721e-11)
(5.00079e-05 6.04262e-10 -2.63827e-11)
(5.00079e-05 6.04262e-10 2.63824e-11)
(5.00081e-05 7.08903e-10 -3.09514e-11)
(5.00081e-05 7.08903e-10 3.09511e-11)
(5.00083e-05 8.22776e-10 -3.59232e-11)
(5.00083e-05 8.22776e-10 3.5923e-11)
(5.00085e-05 9.42139e-10 -4.11347e-11)
(5.00085e-05 9.42139e-10 4.11345e-11)
(5.00086e-05 1.07223e-09 -4.68147e-11)
(5.00086e-05 1.07223e-09 4.68145e-11)
(5.00087e-05 1.20244e-09 -5.24995e-11)
(5.00087e-05 1.20244e-09 5.24994e-11)
(5.00087e-05 1.34108e-09 -5.85528e-11)
(5.00087e-05 1.34108e-09 5.85527e-11)
(5.00087e-05 1.47342e-09 -6.4331e-11)
(5.00087e-05 1.47342e-09 6.43308e-11)
(5.00066e-05 1.11273e-17 -2.90953e-16)
(5.0007e-05 6.05464e-11 -2.64353e-12)
(5.0007e-05 6.05464e-11 2.64323e-12)
(5.00069e-05 2.91948e-11 1.27438e-12)
(5.00069e-05 2.91948e-11 -1.27469e-12)
(5.00071e-05 9.34138e-11 -4.07855e-12)
(5.00071e-05 9.34138e-11 4.07825e-12)
(5.00072e-05 1.36234e-10 -5.94814e-12)
(5.00072e-05 1.36234e-10 5.94784e-12)
(5.00074e-05 1.79928e-10 -7.85582e-12)
(5.00074e-05 1.79928e-10 7.85553e-12)
(5.00076e-05 2.39609e-10 -1.04616e-11)
(5.00076e-05 2.39609e-10 1.04613e-11)
(5.00078e-05 3.02318e-10 -1.31995e-11)
(5.00078e-05 3.02318e-10 1.31992e-11)
(5.00081e-05 3.82022e-10 -1.66794e-11)
(5.00081e-05 3.82022e-10 1.66792e-11)
(5.00083e-05 4.69844e-10 -2.05138e-11)
(5.00083e-05 4.69844e-10 2.05136e-11)
(5.00085e-05 5.71404e-10 -2.49481e-11)
(5.00085e-05 5.71404e-10 2.49478e-11)
(5.00087e-05 6.86145e-10 -2.99577e-11)
(5.00087e-05 6.86145e-10 2.99575e-11)
(5.00089e-05 8.09335e-10 -3.53364e-11)
(5.00089e-05 8.09335e-10 3.53361e-11)
(5.00091e-05 9.47463e-10 -4.13671e-11)
(5.00091e-05 9.47463e-10 4.13669e-11)
(5.00092e-05 1.08796e-09 -4.75012e-11)
(5.00092e-05 1.08796e-09 4.75011e-11)
(5.00092e-05 1.24006e-09 -5.4142e-11)
(5.00092e-05 1.24006e-09 5.41419e-11)
(5.00092e-05 1.38657e-09 -6.05388e-11)
(5.00092e-05 1.38657e-09 6.05387e-11)
(5.00069e-05 1.11273e-17 -2.90955e-16)
(5.00072e-05 1.9701e-11 -8.60183e-13)
(5.00072e-05 1.9701e-11 8.59876e-13)
(5.00071e-05 8.57252e-12 3.73994e-13)
(5.00071e-05 8.57252e-12 -3.74302e-13)
(5.00073e-05 3.27002e-11 -1.42774e-12)
(5.00073e-05 3.27002e-11 1.42744e-12)
(5.00074e-05 5.75008e-11 -2.51056e-12)
(5.00074e-05 5.75008e-11 2.51026e-12)
(5.00076e-05 8.37642e-11 -3.65724e-12)
(5.00076e-05 8.37642e-11 3.65694e-12)
(5.00079e-05 1.2895e-10 -5.63008e-12)
(5.00079e-05 1.2895e-10 5.62979e-12)
(5.00081e-05 1.78719e-10 -7.80304e-12)
(5.00081e-05 1.78719e-10 7.80275e-12)
(5.00084e-05 2.48856e-10 -1.08653e-11)
(5.00084e-05 2.48856e-10 1.0865e-11)
(5.00086e-05 3.30112e-10 -1.4413e-11)
(5.00086e-05 3.30112e-10 1.44128e-11)
(5.00089e-05 4.2848e-10 -1.87078e-11)
(5.00089e-05 4.2848e-10 1.87076e-11)
(5.00091e-05 5.44277e-10 -2.37637e-11)
(5.00091e-05 5.44277e-10 2.37634e-11)
(5.00093e-05 6.71624e-10 -2.93237e-11)
(5.00093e-05 6.71624e-10 2.93235e-11)
(5.00095e-05 8.18503e-10 -3.57366e-11)
(5.00095e-05 8.18503e-10 3.57364e-11)
(5.00096e-05 9.70171e-10 -4.23586e-11)
(5.00096e-05 9.70171e-10 4.23584e-11)
(5.00097e-05 1.13697e-09 -4.96412e-11)
(5.00097e-05 1.13697e-09 4.9641e-11)
(5.00097e-05 1.29906e-09 -5.67181e-11)
(5.00097e-05 1.29906e-09 5.67179e-11)
(5.00071e-05 1.11274e-17 -2.90956e-16)
(5.00073e-05 -2.12656e-11 9.28458e-13)
(5.00073e-05 -2.12656e-11 -9.2877e-13)
(5.00072e-05 -1.21089e-11 -5.28977e-13)
(5.00072e-05 -1.21089e-11 5.28667e-13)
(5.00074e-05 -2.83059e-11 1.23585e-12)
(5.00074e-05 -2.83059e-11 -1.23616e-12)
(5.00076e-05 -2.16296e-11 9.44352e-13)
(5.00076e-05 -2.16296e-11 -9.44664e-13)
(5.00078e-05 -1.30875e-11 5.71394e-13)
(5.00078e-05 -1.30875e-11 -5.71704e-13)
(5.00081e-05 1.73892e-11 -7.59248e-13)
(5.00081e-05 1.73892e-11 7.58941e-13)
(5.00083e-05 5.38976e-11 -2.35324e-12)
(5.00083e-05 5.38976e-11 2.35293e-12)
(5.00086e-05 1.14206e-10 -4.98635e-12)
(5.00086e-05 1.14206e-10 4.98605e-12)
(5.00089e-05 1.88708e-10 -8.23917e-12)
(5.00089e-05 1.88708e-10 8.23888e-12)
(5.00092e-05 2.8376e-10 -1.23893e-11)
(5.00092e-05 2.8376e-10 1.2389e-11)
(5.00095e-05 4.0078e-10 -1.74984e-11)
(5.00095e-05 4.0078e-10 1.74982e-11)
(5.00098e-05 5.32577e-10 -2.32528e-11)
(5.00098e-05 5.32577e-10 2.32526e-11)
(5.001e-05 6.88951e-10 -3.00803e-11)
(5.001e-05 6.88951e-10 3.008e-11)
(5.00101e-05 8.5276e-10 -3.72323e-11)
(5.00101e-05 8.5276e-10 3.72321e-11)
(5.00102e-05 1.03571e-09 -4.52201e-11)
(5.00102e-05 1.03571e-09 4.52199e-11)
(5.00102e-05 1.2151e-09 -5.30523e-11)
(5.00102e-05 1.2151e-09 5.30522e-11)
(5.00072e-05 1.11274e-17 -2.90956e-16)
(5.00074e-05 -6.0627e-11 2.64701e-12)
(5.00074e-05 -6.0627e-11 -2.64733e-12)
(5.00073e-05 -3.19752e-11 -1.39636e-12)
(5.00073e-05 -3.19752e-11 1.39605e-12)
(5.00075e-05 -8.71066e-11 3.80314e-12)
(5.00075e-05 -8.71066e-11 -3.80345e-12)
(5.00077e-05 -9.79556e-11 4.27681e-12)
(5.00077e-05 -9.79556e-11 -4.27713e-12)
(5.0008e-05 -1.06853e-10 4.6653e-12)
(5.0008e-05 -1.06853e-10 -4.66562e-12)
(5.00082e-05 -9.08352e-11 3.96593e-12)
(5.00082e-05 -9.08352e-11 -3.96625e-12)
(5.00086e-05 -6.75832e-11 2.95073e-12)
(5.00086e-05 -6.75832e-11 -2.95104e-12)
(5.00089e-05 -1.71625e-11 7.49313e-13)
(5.00089e-05 -1.71625e-11 -7.49626e-13)
(5.00092e-05 5.04967e-11 -2.20475e-12)
(5.00092e-05 5.04967e-11 2.20445e-12)
(5.00096e-05 1.42119e-10 -6.20509e-12)
(5.00096e-05 1.42119e-10 6.2048e-12)
(5.00099e-05 2.60502e-10 -1.13738e-11)
(5.00099e-05 2.60502e-10 1.13735e-11)
(5.00102e-05 3.96986e-10 -1.73328e-11)
(5.00102e-05 3.96986e-10 1.73325e-11)
(5.00105e-05 5.63604e-10 -2.46075e-11)
(5.00105e-05 5.63604e-10 2.46072e-11)
(5.00106e-05 7.4057e-10 -3.2334e-11)
(5.00106e-05 7.4057e-10 3.23338e-11)
(5.00107e-05 9.41311e-10 -4.10985e-11)
(5.00107e-05 9.41311e-10 4.10983e-11)
(5.00108e-05 1.14003e-09 -4.97747e-11)
(5.00108e-05 1.14003e-09 4.97745e-11)
(5.00072e-05 1.11274e-17 -2.90957e-16)
(5.00074e-05 -9.60978e-11 4.1957e-12)
(5.00074e-05 -9.60978e-11 -4.19602e-12)
(5.00073e-05 -4.98683e-11 -2.1776e-12)
(5.00073e-05 -4.98683e-11 2.17728e-12)
(5.00075e-05 -1.40383e-10 6.12924e-12)
(5.00075e-05 -1.40383e-10 -6.12957e-12)
(5.00077e-05 -1.67223e-10 7.30107e-12)
(5.00077e-05 -1.67223e-10 -7.3014e-12)
(5.0008e-05 -1.925e-10 8.4047e-12)
(5.0008e-05 -1.925e-10 -8.40503e-12)
(5.00083e-05 -1.9006e-10 8.29818e-12)
(5.00083e-05 -1.9006e-10 -8.29851e-12)
(5.00087e-05 -1.79605e-10 7.84169e-12)
(5.00087e-05 -1.79605e-10 -7.84202e-12)
(5.00091e-05 -1.38834e-10 6.06161e-12)