/*--------------------------------*- C++ -*----------------------------------*\
| =========                 |                                                 |
| \\      /  F ield         | OpenFOAM: The Open Source CFD Toolbox           |
|  \\    /   O peration     | Version:  4.1                                   |
|   \\  /    A nd           | Web:      www.OpenFOAM.org                      |
|    \\/     M anipulation  |                                                 |
\*---------------------------------------------------------------------------*/
FoamFile
{
    version     2.0;
    format      ascii;
    class       surfaceScalarField;
    location    "0.0093";
    object      phi;
}
// * * * * * * * * * * * * * * * * * * * * * * * * * * * * * * * * * * * * * //

dimensions      [0 3 -1 0 0 0 0];

internalField   nonuniform List<scalar> 
4288
(
-4.1323e-08
-7.9437e-10
-7.9786e-10
1.1503e-09
1.1472e-09
-3.8829e-08
-9.85e-10
-9.8938e-10
1.4529e-09
1.4502e-09
-3.5815e-08
-1.1447e-09
-1.1496e-09
1.7065e-09
1.704e-09
-3.237e-08
-1.251e-09
-1.2573e-09
1.8939e-09
1.8903e-09
-2.8615e-08
-1.2908e-09
-1.2973e-09
1.9921e-09
1.9891e-09
-2.4705e-08
-1.258e-09
-1.2647e-09
1.9934e-09
1.99e-09
-2.0797e-08
-1.1629e-09
-1.1697e-09
1.9033e-09
1.8997e-09
-1.7038e-08
-1.0164e-09
-1.023e-09
1.7333e-09
1.7299e-09
-1.3548e-08
-8.3243e-10
-8.3869e-10
1.5024e-09
1.4993e-09
-1.041e-08
-6.3181e-10
-6.3745e-10
1.2378e-09
1.2352e-09
-7.6801e-09
-4.3994e-10
-4.4501e-10
9.7388e-10
9.7106e-10
-2.8267e-10
-2.8693e-10
7.4976e-10
7.4049e-10
-4.1229e-08
-8.9928e-10
-1.1302e-09
2.1778e-09
-3.8734e-08
-1.0949e-09
-1.4298e-09
2.7408e-09
-3.5735e-08
-1.2633e-09
-1.702e-09
3.2651e-09
-3.2315e-08
-1.3886e-09
-1.9219e-09
3.7049e-09
-2.8594e-08
-1.459e-09
-2.0732e-09
4.0322e-09
-2.472e-08
-1.469e-09
-2.1423e-09
4.2253e-09
-2.0845e-08
-1.4172e-09
-2.1312e-09
4.2649e-09
-1.7113e-08
-1.3071e-09
-2.0476e-09
4.1557e-09
-1.3642e-08
-1.1573e-09
-1.9016e-09
3.9233e-09
-1.0514e-08
-9.8194e-10
-1.7146e-09
3.5982e-09
-7.7931e-09
-7.8966e-10
-1.5108e-09
3.2105e-09
-6.0268e-10
-1.3032e-09
2.7834e-09
-4.1177e-08
-4.7892e-10
-1.4022e-09
2.103e-09
-3.8686e-08
-5.7618e-10
-1.7488e-09
2.6554e-09
-3.5696e-08
-6.5658e-10
-2.0659e-09
3.165e-09
-3.229e-08
-7.1498e-10
-2.3274e-09
3.593e-09
-2.8589e-08
-7.4522e-10
-2.5127e-09
3.9075e-09
-2.4736e-08
-7.4258e-10
-2.6105e-09
4.0855e-09
-2.0882e-08
-7.0854e-10
-2.6133e-09
4.1146e-09
-1.7167e-08
-6.4528e-10
-2.5233e-09
3.9982e-09
-1.3711e-08
-5.5887e-10
-2.356e-09
3.7569e-09
-1.0597e-08
-4.6143e-10
-2.1279e-09
3.4184e-09
-7.8858e-09
-3.5757e-10
-1.8583e-09
3.0179e-09
-2.551e-10
-1.5662e-09
2.5805e-09
-4.1152e-08
1.6165e-12
-1.4705e-09
2.2038e-09
-3.8662e-08
1.6586e-12
-1.8435e-09
2.8069e-09
-3.5677e-08
1.8264e-12
-2.1893e-09
3.3728e-09
-3.2279e-08
1.856e-12
-2.4821e-09
3.8563e-09
-2.8586e-08
1.9522e-12
-2.7008e-09
4.2247e-09
-2.4744e-08
2.0214e-12
-2.8263e-09
4.4536e-09
-2.0901e-08
2.0268e-12
-2.8549e-09
4.5242e-09
-1.7196e-08
1.9974e-12
-2.7853e-09
4.4407e-09
-1.3745e-08
1.9312e-12
-2.6306e-09
4.2226e-09
-1.0636e-08
1.5604e-12
-2.4119e-09
3.9e-09
-7.9294e-09
1.3122e-12
-2.149e-09
3.5064e-09
9.4949e-13
-1.8562e-09
3.0658e-09
-4.1152e-08
4.818e-10
-1.4706e-09
2.2043e-09
-3.8662e-08
5.79e-10
-1.8438e-09
2.8075e-09
-3.5677e-08
6.59e-10
-2.1891e-09
3.3738e-09
-3.2279e-08
7.1757e-10
-2.4825e-09
3.8577e-09
-2.8586e-08
7.4788e-10
-2.701e-09
4.2262e-09
-2.4744e-08
7.4545e-10
-2.8265e-09
4.455e-09
-2.0901e-08
7.1163e-10
-2.8552e-09
4.5255e-09
-1.7196e-08
6.4847e-10
-2.7856e-09
4.4417e-09
-1.3745e-08
5.6211e-10
-2.6308e-09
4.2235e-09
-1.0636e-08
4.6421e-10
-2.412e-09
3.9005e-09
-7.9295e-09
3.6008e-10
-2.149e-09
3.5065e-09
2.5707e-10
-1.8561e-09
3.0656e-09
-4.1177e-08
9.0116e-10
-1.4024e-09
2.1042e-09
-3.8686e-08
1.0963e-09
-1.7488e-09
2.6566e-09
-3.5696e-08
1.265e-09
-2.0666e-09
3.1664e-09
-3.229e-08
1.3899e-09
-2.3274e-09
3.5941e-09
-2.8589e-08
1.4607e-09
-2.513e-09
3.9086e-09
-2.4736e-08
1.4711e-09
-2.6109e-09
4.0867e-09
-2.0882e-08
1.4196e-09
-2.6136e-09
4.1156e-09
-1.7167e-08
1.3097e-09
-2.5236e-09
3.999e-09
-1.3711e-08
1.1606e-09
-2.3563e-09
3.7574e-09
-1.0597e-08
9.8436e-10
-2.1277e-09
3.4183e-09
-7.8858e-09
7.9241e-10
-1.858e-09
3.0172e-09
6.0492e-10
-1.5656e-09
2.5793e-09
-4.1229e-08
7.9563e-10
-1.1302e-09
2.1782e-09
-3.8734e-08
9.8626e-10
-1.4297e-09
2.7403e-09
-3.5735e-08
1.1458e-09
-1.7006e-09
3.264e-09
-3.2315e-08
1.2523e-09
-1.9217e-09
3.7042e-09
-2.8594e-08
1.2924e-09
-2.073e-09
4.0319e-09
-2.472e-08
1.2596e-09
-2.1422e-09
4.2255e-09
-2.0845e-08
1.1647e-09
-2.1315e-09
4.2657e-09
-1.7113e-08
1.0183e-09
-2.0478e-09
4.1566e-09
-1.3642e-08
8.3445e-10
-1.9017e-09
3.9243e-09
-1.0514e-08
6.3368e-10
-1.7148e-09
3.599e-09
-7.7932e-09
4.4179e-10
-1.5107e-09
3.211e-09
2.8452e-10
-1.3027e-09
2.7828e-09
-4.1323e-08
-7.9736e-10
1.1487e-09
1.1497e-09
-3.883e-08
-9.8871e-10
1.4517e-09
1.4514e-09
-3.5816e-08
-1.1495e-09
1.706e-09
1.7052e-09
-3.237e-08
-1.2567e-09
1.8933e-09
1.8911e-09
-2.8615e-08
-1.2974e-09
1.9932e-09
1.9893e-09
-2.4705e-08
-1.2654e-09
1.9952e-09
1.9901e-09
-2.0797e-08
-1.1703e-09
1.9052e-09
1.8997e-09
-1.7038e-08
-1.0235e-09
1.7353e-09
1.7298e-09
-1.3548e-08
-8.3887e-10
1.5042e-09
1.4993e-09
-1.041e-08
-6.3738e-10
1.2393e-09
1.2351e-09
-7.6799e-09
-4.4446e-10
9.7461e-10
9.7104e-10
-2.8611e-10
7.4574e-10
7.4435e-10
-4.123e-08
-1.1262e-09
-9.0197e-10
2.1765e-09
-3.8735e-08
-1.4249e-09
-1.0982e-09
2.7392e-09
-3.5736e-08
-1.695e-09
-1.2677e-09
3.263e-09
-3.2316e-08
-1.916e-09
-1.3928e-09
3.7022e-09
-2.8595e-08
-2.0658e-09
-1.4635e-09
4.0289e-09
-2.472e-08
-2.1343e-09
-1.4737e-09
4.2218e-09
-2.0845e-08
-2.1233e-09
-1.4219e-09
4.2612e-09
-1.7114e-08
-2.0397e-09
-1.3116e-09
4.152e-09
-1.3642e-08
-1.8941e-09
-1.1618e-09
3.9197e-09
-1.0515e-08
-1.7078e-09
-9.8566e-10
3.5949e-09
-7.7934e-09
-1.5047e-09
-7.9344e-10
3.2075e-09
-1.2981e-09
-6.0598e-10
2.7813e-09
-4.098e-08
-7.8149e-10
-7.8603e-10
-3.8502e-08
-9.9133e-10
-9.9667e-10
-3.5527e-08
-1.1802e-09
-1.1862e-09
-3.2144e-08
-1.3301e-09
-1.3377e-09
-2.8469e-08
-1.4308e-09
-1.4385e-09
-2.4638e-08
-1.4748e-09
-1.4826e-09
-2.0803e-08
-1.4618e-09
-1.4698e-09
-1.7107e-08
-1.3987e-09
-1.4066e-09
-1.3662e-08
-1.2946e-09
-1.3021e-09
-1.0555e-08
-1.1642e-09
-1.171e-09
-7.8473e-09
-1.0242e-09
-1.0303e-09
-8.8309e-10
-8.8818e-10
-4.0912e-08
-4.0725e-10
-9.9015e-10
-3.8438e-08
-5.1364e-10
-1.2366e-09
-3.5476e-08
-6.0802e-10
-1.4606e-09
-3.211e-08
-6.8233e-10
-1.643e-09
-2.8454e-08
-7.2818e-10
-1.772e-09
-2.4648e-08
-7.4475e-10
-1.8376e-09
-2.0838e-08
-7.3176e-10
-1.8359e-09
-1.7162e-08
-6.912e-10
-1.772e-09
-1.3733e-08
-6.2908e-10
-1.656e-09
-1.0638e-08
-5.5244e-10
-1.4998e-09
-7.9402e-09
-4.6844e-10
-1.3188e-09
-3.8358e-10
-1.1242e-09
-4.0878e-08
1.2371e-12
-1.0341e-09
-3.8407e-08
1.2604e-12
-1.2985e-09
-3.545e-08
1.2271e-12
-1.5413e-09
-3.2092e-08
1.3569e-12
-1.7435e-09
-2.8447e-08
1.3666e-12
-1.8897e-09
-2.4651e-08
1.3906e-12
-1.9701e-09
-2.0852e-08
1.4712e-12
-1.9811e-09
-1.7185e-08
1.4939e-12
-1.9222e-09
-1.3764e-08
1.5003e-12
-1.8047e-09
-1.0675e-08
1.3964e-12
-1.6435e-09
-7.9824e-09
1.3209e-12
-1.4512e-09
1.1519e-12
-1.2392e-09
-4.0878e-08
4.0949e-10
-1.034e-09
-3.8407e-08
5.1573e-10
-1.2985e-09
-3.545e-08
6.1106e-10
-1.5415e-09
-3.2092e-08
6.8444e-10
-1.7435e-09
-2.8447e-08
7.3074e-10
-1.8897e-09
-2.4652e-08
7.4732e-10
-1.9701e-09
-2.0852e-08
7.3446e-10
-1.9812e-09
-1.7185e-08
6.9401e-10
-1.9222e-09
-1.3764e-08
6.3184e-10
-1.8047e-09
-1.0675e-08
5.5521e-10
-1.6436e-09
-7.9823e-09
4.7103e-10
-1.4511e-09
3.858e-10
-1.2391e-09
-4.0912e-08
7.8344e-10
-9.9014e-10
-3.8438e-08
9.9312e-10
-1.2363e-09
-3.5476e-08
1.1814e-09
-1.4599e-09
-3.211e-08
1.3321e-09
-1.6426e-09
-2.8454e-08
1.4328e-09
-1.7716e-09
-2.4648e-08
1.4768e-09
-1.8374e-09
-2.0838e-08
1.4642e-09
-1.8359e-09
-1.7162e-08
1.4012e-09
-1.7719e-09
-1.3733e-08
1.2972e-09
-1.6559e-09
-1.0638e-08
1.1668e-09
-1.4995e-09
-7.9401e-09
1.0267e-09
-1.3184e-09
8.8525e-10
-1.1235e-09
-4.098e-08
1.1279e-09
-7.8583e-10
-3.8502e-08
1.4258e-09
-9.9606e-10
-3.5527e-08
1.6971e-09
-1.1856e-09
-3.2144e-08
1.9169e-09
-1.3367e-09
-2.8469e-08
2.0671e-09
-1.4377e-09
-2.4638e-08
2.1361e-09
-1.4821e-09
-2.0803e-08
2.1249e-09
-1.4694e-09
-1.7107e-08
2.0416e-09
-1.4062e-09
-1.3662e-08
1.8961e-09
-1.3017e-09
-1.0555e-08
1.7098e-09
-1.1707e-09
-7.8472e-09
1.5068e-09
-1.0298e-09
1.2998e-09
-8.8762e-10
-4.1231e-08
-9.0182e-10
2.1785e-09
-3.8735e-08
-1.0975e-09
2.7398e-09
-3.5736e-08
-1.2662e-09
3.2627e-09
-3.2316e-08
-1.3911e-09
3.7019e-09
-2.8595e-08
-1.462e-09
4.0283e-09
-2.472e-08
-1.4723e-09
4.2211e-09
-2.0845e-08
-1.4209e-09
4.2611e-09
-1.7114e-08
-1.3108e-09
4.1524e-09
-1.3642e-08
-1.1612e-09
3.9206e-09
-1.0514e-08
-9.8499e-10
3.596e-09
-7.7933e-09
-7.9244e-10
3.2088e-09
-6.048e-10
2.7819e-09
-4.1178e-08
-1.3994e-09
-4.801e-10
2.103e-09
-3.8687e-08
-1.7457e-09
-5.7743e-10
2.6553e-09
-3.5697e-08
-2.0625e-09
-6.5747e-10
3.1642e-09
-3.2291e-08
-2.3223e-09
-7.1649e-10
3.5917e-09
-2.859e-08
-2.5077e-09
-7.4626e-10
3.9062e-09
-2.4737e-08
-2.6055e-09
-7.4361e-10
4.0843e-09
-2.0883e-08
-2.608e-09
-7.0965e-10
4.1133e-09
-1.7168e-08
-2.518e-09
-6.4658e-10
3.9968e-09
-1.3712e-08
-2.3509e-09
-5.6017e-10
3.7555e-09
-1.0598e-08
-2.123e-09
-4.6266e-10
3.4169e-09
-7.886e-09
-1.8539e-09
-3.5902e-10
3.0165e-09
-1.5624e-09
-2.5679e-10
2.5797e-09
-4.0913e-08
-9.8544e-10
-4.092e-10
-3.8439e-08
-1.2309e-09
-5.1596e-10
-3.5477e-08
-1.4537e-09
-6.1094e-10
-3.2111e-08
-1.6357e-09
-6.8426e-10
-2.8455e-08
-1.7639e-09
-7.3102e-10
-2.4649e-08
-1.8292e-09
-7.4769e-10
-2.0839e-08
-1.8274e-09
-7.3479e-10
-1.7162e-08
-1.7635e-09
-6.9422e-10
-1.3733e-08
-1.6479e-09
-6.3205e-10
-1.0638e-08
-1.4923e-09
-5.552e-10
-7.9405e-09
-1.312e-09
-4.7097e-10
-1.1182e-09
-3.8579e-10
-4.086e-08
-5.2642e-10
-5.2959e-10
-3.8391e-08
-6.5436e-10
-6.5811e-10
-3.5441e-08
-7.7007e-10
-7.7436e-10
-3.209e-08
-8.6355e-10
-8.6839e-10
-2.8455e-08
-9.2841e-10
-9.3356e-10
-2.4671e-08
-9.5977e-10
-9.6508e-10
-2.0881e-08
-9.5562e-10
-9.6102e-10
-1.7222e-08
-9.1964e-10
-9.2505e-10
-1.3807e-08
-8.5717e-10
-8.6234e-10
-1.0723e-08
-7.7402e-10
-7.7887e-10
-8.0314e-09
-6.7882e-10
-6.8321e-10
-5.7666e-10
-5.8056e-10
-4.0837e-08
1.1654e-12
-5.5942e-10
-3.837e-08
1.2764e-12
-6.9895e-10
-3.5425e-08
1.3534e-12
-8.2638e-10
-3.2082e-08
1.4469e-12
-9.3147e-10
-2.8455e-08
1.5391e-12
-1.0062e-09
-2.4681e-08
1.6047e-12
-1.0456e-09
-2.0902e-08
1.6434e-12
-1.0477e-09
-1.7251e-08
1.6454e-12
-1.0137e-09
-1.3842e-08
1.6208e-12
-9.4944e-10
-1.0762e-08
1.5015e-12
-8.6208e-10
-8.0744e-09
1.3925e-12
-7.5927e-10
1.2187e-12
-6.4627e-10
-4.0837e-08
5.2866e-10
-5.5933e-10
-3.837e-08
6.5678e-10
-6.9883e-10
-3.5425e-08
7.7254e-10
-8.2631e-10
-3.2082e-08
8.6628e-10
-9.313e-10
-2.8455e-08
9.3133e-10
-1.0061e-09
-2.4681e-08
9.6284e-10
-1.0455e-09
-2.0902e-08
9.588e-10
-1.0476e-09
-1.7251e-08
9.2281e-10
-1.0136e-09
-1.3842e-08
8.6034e-10
-9.4935e-10
-1.0762e-08
7.77e-10
-8.6205e-10
-8.0744e-09
6.8155e-10
-7.5919e-10
5.7906e-10
-6.4616e-10
-4.086e-08
9.8735e-10
-5.2931e-10
-3.8391e-08
1.2331e-09
-6.5763e-10
-3.5441e-08
1.456e-09
-7.7368e-10
-3.209e-08
1.638e-09
-8.6764e-10
-2.8455e-08
1.7665e-09
-9.3284e-10
-2.467e-08
1.8319e-09
-9.6448e-10
-2.0881e-08
1.8302e-09
-9.6048e-10
-1.7222e-08
1.7663e-09
-9.2458e-10
-1.3807e-08
1.6507e-09
-8.619e-10
-1.0723e-08
1.4949e-09
-7.7832e-10
-8.0313e-09
1.3145e-09
-6.8263e-10
1.1205e-09
-5.7986e-10
-4.0914e-08
1.4007e-09
-4.0851e-10
-3.8439e-08
1.7473e-09
-5.1499e-10
-3.5477e-08
2.0636e-09
-6.0917e-10
-3.2111e-08
2.3241e-09
-6.8286e-10
-2.8455e-08
2.5097e-09
-7.296e-10
-2.4649e-08
2.6074e-09
-7.4632e-10
-2.0839e-08
2.6101e-09
-7.3351e-10
-1.7162e-08
2.5202e-09
-6.9306e-10
-1.3733e-08
2.3532e-09
-6.3098e-10
-1.0638e-08
2.1251e-09
-5.5427e-10
-7.9404e-09
1.856e-09
-4.701e-10
1.5641e-09
-3.8494e-10
-4.1179e-08
-4.7978e-10
2.1039e-09
-3.8687e-08
-5.7619e-10
2.6558e-09
-3.5697e-08
-6.5626e-10
3.1651e-09
-3.2291e-08
-7.1462e-10
3.5931e-09
-2.859e-08
-7.4449e-10
3.9077e-09
-2.4737e-08
-7.4193e-10
4.0857e-09
-2.0883e-08
-7.0821e-10
4.1147e-09
-1.7168e-08
-6.4534e-10
3.9984e-09
-1.3711e-08
-5.5907e-10
3.7571e-09
-1.0598e-08
-4.6158e-10
3.4183e-09
-7.8858e-09
-3.5775e-10
3.018e-09
-2.5512e-10
2.5803e-09
-4.1152e-08
-1.4689e-09
3.5006e-13
2.2038e-09
-3.8663e-08
-1.8416e-09
3.7835e-13
2.8067e-09
-3.5678e-08
-2.1865e-09
4.8314e-13
3.3726e-09
-3.2279e-08
-2.4802e-09
5.4924e-13
3.8559e-09
-2.8586e-08
-2.698e-09
5.6601e-13
4.2247e-09
-2.4744e-08
-2.8234e-09
5.5987e-13
4.4536e-09
-2.0901e-08
-2.852e-09
5.3809e-13
4.524e-09
-1.7196e-08
-2.7824e-09
5.1861e-13
4.4403e-09
-1.3745e-08
-2.6277e-09
4.1377e-13
4.2221e-09
-1.0636e-08
-2.4092e-09
1.5277e-13
3.8995e-09
-7.9295e-09
-2.1464e-09
-2.3754e-13
3.5057e-09
-1.8539e-09
-4.9247e-13
3.0649e-09
-4.0879e-08
-1.0305e-09
-4.5887e-14
-3.8408e-08
-1.2943e-09
-4.2947e-14
-3.545e-08
-1.5363e-09
-2.2433e-13
-3.2092e-08
-1.7375e-09
-2.8835e-13
-2.8447e-08
-1.8837e-09
-2.143e-13
-2.4652e-08
-1.9639e-09
-2.2525e-13
-2.0853e-08
-1.9748e-09
-2.9542e-13
-1.7186e-08
-1.916e-09
-3.4503e-13
-1.3765e-08
-1.7987e-09
-3.7274e-13
-1.0676e-08
-1.6379e-09
-4.1617e-13
-7.9825e-09
-1.4461e-09
-4.6934e-13
-1.2347e-09
-4.8128e-13
-4.0837e-08
-5.5628e-10
-2.9277e-13
-3.837e-08
-6.9523e-10
-2.9628e-13
-3.5425e-08
-8.2196e-10
-4.2115e-13
-3.2082e-08
-9.2642e-10
-4.4153e-13
-2.8455e-08
-1.001e-09
-4.5197e-13
-2.4681e-08
-1.0402e-09
-4.9392e-13
-2.0902e-08
-1.0422e-09
-5.3334e-13
-1.7251e-08
-1.0083e-09
-5.9825e-13
-1.3842e-08
-9.4417e-10
-6.2057e-13
-1.0762e-08
-8.5718e-10
-6.3171e-13
-8.0745e-09
-7.5476e-10
-6.7663e-13
-6.423e-10
-6.6552e-13
-4.0825e-08
1.1778e-12
-4.8255e-13
-3.8359e-08
1.3181e-12
-5.3074e-13
-3.5418e-08
1.4164e-12
-6.96e-13
-3.2082e-08
1.5709e-12
-7.4622e-13
-2.8464e-08
1.6504e-12
-7.6612e-13
-2.4698e-08
1.6838e-12
-8.2056e-13
-2.0927e-08
1.7235e-12
-9.0209e-13
-1.7284e-08
1.7275e-12
-9.2822e-13
-1.388e-08
1.6976e-12
-9.4414e-13
-1.0804e-08
1.6055e-12
-9.1276e-13
-8.1187e-09
1.5092e-12
-8.748e-13
1.3869e-12
-7.7811e-13
-4.0825e-08
5.5873e-10
-5.1727e-13
-3.836e-08
6.9797e-10
-5.4852e-13
-3.5418e-08
8.2485e-10
-6.7821e-13
-3.2082e-08
9.2973e-10
-7.7638e-13
-2.8464e-08
1.0045e-09
-8.0227e-13
-2.4698e-08
1.0437e-09
-8.8356e-13
-2.0927e-08
1.0458e-09
-9.8426e-13
-1.7284e-08
1.012e-09
-1.0394e-12
-1.388e-08
9.4774e-10
-1.0482e-12
-1.0804e-08
8.6054e-10
-1.0199e-12
-8.1187e-09
7.5792e-10
-9.62e-13
6.452e-10
-8.4638e-13
-4.0837e-08
1.0327e-09
1.6248e-13
-3.8371e-08
1.2968e-09
3.6612e-13
-3.5425e-08
1.5389e-09
3.7999e-13
-3.2082e-08
1.7408e-09
4.4916e-13
-2.8456e-08
1.887e-09
4.2944e-13
-2.4681e-08
1.9672e-09
3.5069e-13
-2.0902e-08
1.9782e-09
2.1572e-13
-1.7251e-08
1.9194e-09
1.0477e-13
-1.3842e-08
1.8021e-09
1.3493e-14
-1.0762e-08
1.6412e-09
-5.2481e-14
-8.0743e-09
1.4491e-09
-5.185e-14
1.2375e-09
-3.0956e-14
-4.0879e-08
1.4704e-09
1.2396e-12
-3.8408e-08
1.843e-09
1.6872e-12
-3.5451e-08
2.189e-09
1.8859e-12
-3.2092e-08
2.4822e-09
2.076e-12
-2.8447e-08
2.7004e-09
2.2202e-12
-2.4652e-08
2.8257e-09
2.1756e-12
-2.0853e-08
2.8544e-09
1.9885e-12
-1.7186e-08
2.7849e-09
1.7921e-12
-1.3764e-08
2.6302e-09
1.5875e-12
-1.0675e-08
2.4116e-09
1.3497e-12
-7.9824e-09
2.1488e-09
1.0664e-12
1.856e-09
9.0545e-13
-4.1152e-08
1.4338e-12
2.2043e-09
-3.8663e-08
1.7578e-12
2.8077e-09
-3.5677e-08
2.1295e-12
3.3739e-09
-3.2279e-08
2.3504e-12
3.8581e-09
-2.8586e-08
2.3629e-12
4.2268e-09
-2.4745e-08
2.2394e-12
4.4558e-09
-2.0901e-08
2.044e-12
4.5263e-09
-1.7196e-08
1.8208e-12
4.4427e-09
-1.3745e-08
1.585e-12
4.2244e-09
-1.0636e-08
1.288e-12
3.9015e-09
-7.9292e-09
1.0954e-12
3.5077e-09
1.024e-12
3.0667e-09
-4.1152e-08
-1.4692e-09
4.8063e-10
2.2042e-09
-3.8663e-08
-1.8421e-09
5.7754e-10
2.8077e-09
-3.5678e-08
-2.1868e-09
6.5755e-10
3.3738e-09
-3.2279e-08
-2.4802e-09
7.1623e-10
3.8572e-09
-2.8586e-08
-2.6985e-09
7.4639e-10
4.2261e-09
-2.4744e-08
-2.824e-09
7.4388e-10
4.4549e-09
-2.0901e-08
-2.8525e-09
7.0996e-10
4.5254e-09
-1.7196e-08
-2.7829e-09
6.4666e-10
4.4417e-09
-1.3745e-08
-2.6282e-09
5.6029e-10
4.2234e-09
-1.0636e-08
-2.4096e-09
4.6247e-10
3.9004e-09
-7.9295e-09
-2.1467e-09
3.5828e-10
3.5062e-09
-1.8541e-09
2.5566e-10
3.0651e-09
-4.0879e-08
-1.0306e-09
4.0887e-10
-3.8408e-08
-1.2944e-09
5.1526e-10
-3.545e-08
-1.5368e-09
6.107e-10
-3.2092e-08
-1.7381e-09
6.8439e-10
-2.8447e-08
-1.8841e-09
7.3044e-10
-2.4652e-08
-1.9643e-09
7.4704e-10
-2.0853e-08
-1.9751e-09
7.3403e-10
-1.7186e-08
-1.9163e-09
6.9342e-10
-1.3764e-08
-1.799e-09
6.3105e-10
-1.0676e-08
-1.6383e-09
5.5428e-10
-7.9824e-09
-1.4463e-09
4.7004e-10
-1.2349e-09
3.8488e-10
-4.0837e-08
-5.5639e-10
5.2898e-10
-3.837e-08
-6.9534e-10
6.5744e-10
-3.5425e-08
-8.2225e-10
7.7333e-10
-3.2082e-08
-9.2675e-10
8.6726e-10
-2.8456e-08
-1.0012e-09
9.3247e-10
-2.4681e-08
-1.0404e-09
9.6397e-10
-2.0902e-08
-1.0424e-09
9.5987e-10
-1.7251e-08
-1.0085e-09
9.237e-10
-1.3842e-08
-9.4442e-10
8.6103e-10
-1.0762e-08
-8.5744e-10
7.7754e-10
-8.0744e-09
-7.5499e-10
6.8182e-10
-6.4248e-10
5.7921e-10
-4.0825e-08
1.1406e-12
5.5835e-10
-3.8359e-08
1.2983e-12
6.9776e-10
-3.5418e-08
1.3986e-12
8.247e-10
-3.2082e-08
1.5738e-12
9.2963e-10
-2.8464e-08
1.6467e-12
1.0044e-09
-2.4698e-08
1.6746e-12
1.0437e-09
-2.0927e-08
1.6973e-12
1.0456e-09
-1.7284e-08
1.6831e-12
1.0117e-09
-1.388e-08
1.6355e-12
9.4733e-10
-1.0804e-08
1.5545e-12
8.6004e-10
-8.1186e-09
1.4538e-12
7.5733e-10
1.3575e-12
6.4456e-10
-4.0825e-08
5.5934e-10
5.5762e-10
-3.836e-08
6.9876e-10
6.9689e-10
-3.5418e-08
8.2597e-10
8.2379e-10
-3.2082e-08
9.3098e-10
9.2848e-10
-2.8464e-08
1.0057e-09
1.0032e-09
-2.4698e-08
1.045e-09
1.0424e-09
-2.0927e-08
1.0471e-09
1.0443e-09
-1.7284e-08
1.0131e-09
1.0103e-09
-1.388e-08
9.4885e-10
9.4604e-10
-1.0804e-08
8.6158e-10
8.5889e-10
-8.1186e-09
7.5884e-10
7.5626e-10
6.46e-10
6.4362e-10
-4.0837e-08
1.0337e-09
5.279e-10
-3.837e-08
1.298e-09
6.5625e-10
-3.5425e-08
1.5406e-09
7.7189e-10
-3.2082e-08
1.7427e-09
8.656e-10
-2.8455e-08
1.8889e-09
9.3063e-10
-2.4681e-08
1.9692e-09
9.6199e-10
-2.0902e-08
1.9802e-09
9.5776e-10
-1.725e-08
1.9213e-09
9.2162e-10
-1.3842e-08
1.8038e-09
8.5904e-10
-1.0762e-08
1.6428e-09
7.756e-10
-8.0742e-09
1.4506e-09
6.8021e-10
1.2388e-09
5.7787e-10
-4.0879e-08
1.471e-09
4.0874e-10
-3.8407e-08
1.8437e-09
5.1534e-10
-3.545e-08
2.1894e-09
6.1042e-10
-3.2092e-08
2.4822e-09
6.8471e-10
-2.8447e-08
2.7008e-09
7.3062e-10
-2.4651e-08
2.8262e-09
7.4725e-10
-2.0852e-08
2.8549e-09
7.3414e-10
-1.7185e-08
2.7853e-09
6.9345e-10
-1.3764e-08
2.6306e-09
6.3105e-10
-1.0675e-08
2.4119e-09
5.5434e-10
-7.9821e-09
2.149e-09
4.7003e-10
1.8562e-09
3.8491e-10
-4.1152e-08
4.8113e-10
2.205e-09
-3.8663e-08
5.7843e-10
2.8079e-09
-3.5677e-08
6.5918e-10
3.3737e-09
-3.2279e-08
7.1771e-10
3.8574e-09
-2.8586e-08
7.4803e-10
4.2261e-09
-2.4744e-08
7.4525e-10
4.4549e-09
-2.0901e-08
7.1114e-10
4.5254e-09
-1.7196e-08
6.4777e-10
4.4418e-09
-1.3745e-08
5.6124e-10
4.2236e-09
-1.0636e-08
4.6339e-10
3.9006e-09
-7.9291e-09
3.5929e-10
3.5068e-09
2.5659e-10
3.066e-09
-4.1179e-08
-1.3999e-09
9.0178e-10
2.1041e-09
-3.8687e-08
-1.7459e-09
1.0976e-09
2.656e-09
-3.5697e-08
-2.0633e-09
1.2668e-09
3.1657e-09
-3.2291e-08
-2.3237e-09
1.3922e-09
3.5934e-09
-2.8589e-08
-2.5088e-09
1.463e-09
3.9078e-09
-2.4737e-08
-2.6066e-09
1.4734e-09
4.0859e-09
-2.0883e-08
-2.6092e-09
1.4216e-09
4.1149e-09
-1.7168e-08
-2.5193e-09
1.3113e-09
3.9985e-09
-1.3712e-08
-2.3521e-09
1.1616e-09
3.7569e-09
-1.0598e-08
-2.1239e-09
9.8529e-10
3.418e-09
-7.886e-09
-1.8543e-09
7.9263e-10
3.0169e-09
-1.5625e-09
6.0553e-10
2.5789e-09
-4.0913e-08
-9.8609e-10
7.8588e-10
-3.8439e-08
-1.2314e-09
9.9648e-10
-3.5477e-08
-1.4541e-09
1.1853e-09
-3.2111e-08
-1.6361e-09
1.3364e-09
-2.8455e-08
-1.7647e-09
1.4377e-09
-2.4649e-08
-1.8301e-09
1.4819e-09
-2.0839e-08
-1.8284e-09
1.4689e-09
-1.7162e-08
-1.7646e-09
1.4056e-09
-1.3733e-08
-1.6489e-09
1.3011e-09
-1.0638e-08
-1.4931e-09
1.1701e-09
-7.9404e-09
-1.3125e-09
1.0294e-09
-1.1185e-09
8.8759e-10
-4.086e-08
-5.2712e-10
9.8949e-10
-3.8391e-08
-6.5512e-10
1.2362e-09
-3.5441e-08
-7.7066e-10
1.4594e-09
-3.209e-08
-8.6429e-10
1.642e-09
-2.8455e-08
-9.2926e-10
1.7709e-09
-2.467e-08
-9.607e-10
1.8365e-09
-2.0881e-08
-9.5665e-10
1.8347e-09
-1.7222e-08
-9.2074e-10
1.7707e-09
-1.3807e-08
-8.5819e-10
1.6547e-09
-1.0723e-08
-7.7488e-10
1.4985e-09
-8.0313e-09
-6.7945e-10
1.3175e-09
-5.7712e-10
1.123e-09
-4.0837e-08
4.7847e-13
1.0329e-09
-3.837e-08
5.4498e-13
1.2973e-09
-3.5425e-08
5.1619e-13
1.5396e-09
-3.2082e-08
5.0863e-13
1.7417e-09
-2.8455e-08
5.0553e-13
1.888e-09
-2.4681e-08
4.6707e-13
1.9684e-09
-2.0902e-08
4.3765e-13
1.9792e-09
-1.7251e-08
4.3647e-13
1.9202e-09
-1.3842e-08
4.4268e-13
1.8027e-09
-1.0762e-08
4.4468e-13
1.6417e-09
-8.0742e-09
5.4965e-13
1.4494e-09
6.2256e-13
1.2376e-09
-4.0837e-08
5.297e-10
1.0318e-09
-3.8371e-08
6.5823e-10
1.296e-09
-3.5425e-08
7.7405e-10
1.5383e-09
-3.2082e-08
8.6804e-10
1.74e-09
-2.8456e-08
9.3324e-10
1.8862e-09
-2.4681e-08
9.6473e-10
1.9664e-09
-2.0902e-08
9.606e-10
1.9771e-09
-1.7251e-08
9.2455e-10
1.9182e-09
-1.3842e-08
8.6191e-10
1.8008e-09
-1.0762e-08
7.7838e-10
1.6399e-09
-8.0743e-09
6.828e-10
1.4477e-09
5.8026e-10
1.2361e-09
-4.086e-08
9.9031e-10
9.8669e-10
-3.8391e-08
1.2368e-09
1.2327e-09
-3.5441e-08
1.4601e-09
1.4552e-09
-3.209e-08
1.6426e-09
1.6375e-09
-2.8455e-08
1.7717e-09
1.766e-09
-2.4671e-08
1.8373e-09
1.8313e-09
-2.0881e-08
1.8356e-09
1.8294e-09
-1.7222e-08
1.7715e-09
1.7653e-09
-1.3807e-08
1.6556e-09
1.6496e-09
-1.0723e-08
1.4993e-09
1.4937e-09
-8.0311e-09
1.3184e-09
1.3132e-09
1.124e-09
1.1192e-09
-4.0912e-08
1.4025e-09
7.8268e-10
-3.8438e-08
1.7492e-09
9.9273e-10
-3.5476e-08
2.0664e-09
1.1812e-09
-3.211e-08
2.3278e-09
1.3316e-09
-2.8454e-08
2.513e-09
1.4325e-09
-2.4648e-08
2.6108e-09
1.4766e-09
-2.0838e-08
2.6135e-09
1.4634e-09
-1.7162e-08
2.5235e-09
1.4002e-09
-1.3732e-08
2.3562e-09
1.2959e-09
-1.0638e-08
2.1279e-09
1.1654e-09
-7.9399e-09
1.8584e-09
1.0252e-09
1.5664e-09
8.838e-10
-4.1177e-08
8.9952e-10
2.1052e-09
-3.8686e-08
1.0956e-09
2.6569e-09
-3.5696e-08
1.264e-09
3.1668e-09
-3.229e-08
1.3891e-09
3.5953e-09
-2.8589e-08
1.4597e-09
3.9097e-09
-2.4736e-08
1.4697e-09
4.0876e-09
-2.0882e-08
1.4179e-09
4.1166e-09
-1.7167e-08
1.3078e-09
4.0001e-09
-1.3711e-08
1.1584e-09
3.7585e-09
-1.0597e-08
9.8239e-10
3.4195e-09
-7.8853e-09
7.9008e-10
3.019e-09
6.0315e-10
2.5814e-09
-4.1231e-08
-1.1269e-09
7.9765e-10
2.1774e-09
-3.8735e-08
-1.4256e-09
9.8897e-10
2.7391e-09
-3.5736e-08
-1.6955e-09
1.1491e-09
3.2627e-09
-3.2316e-08
-1.9162e-09
1.2567e-09
3.7022e-09
-2.8594e-08
-2.0669e-09
1.2968e-09
4.0299e-09
-2.472e-08
-2.1359e-09
1.2643e-09
4.2233e-09
-2.0845e-08
-2.1248e-09
1.1691e-09
4.263e-09
-1.7114e-08
-2.0412e-09
1.0223e-09
4.1538e-09
-1.3642e-08
-1.8954e-09
8.3793e-10
3.9215e-09
-1.0515e-08
-1.7089e-09
6.3668e-10
3.5963e-09
-7.7933e-09
-1.5054e-09
4.4402e-10
3.2084e-09
-1.2984e-09
2.8711e-10
2.7808e-09
-4.098e-08
-7.8252e-10
1.1304e-09
-3.8502e-08
-9.9204e-10
1.4292e-09
-3.5527e-08
-1.1807e-09
1.7009e-09
-3.2144e-08
-1.3309e-09
1.9213e-09
-2.8469e-08
-1.4318e-09
2.0721e-09
-2.4638e-08
-1.4759e-09
2.1412e-09
-2.0803e-08
-1.463e-09
2.1301e-09
-1.7107e-08
-1.4e-09
2.0465e-09
-1.3662e-08
-1.2958e-09
1.9005e-09
-1.0555e-08
-1.1653e-09
1.7137e-09
-7.847e-09
-1.025e-09
1.5101e-09
-8.837e-10
1.303e-09
-4.0912e-08
-4.0806e-10
1.4012e-09
-3.8437e-08
-5.1473e-10
1.7485e-09
-3.5476e-08
-6.09e-10
2.0652e-09
-3.211e-08
-6.8315e-10
2.3263e-09
-2.8454e-08
-7.2944e-10
2.5118e-09
-2.4648e-08
-7.4614e-10
2.6096e-09
-2.0838e-08
-7.3324e-10
2.6122e-09
-1.7162e-08
-6.9271e-10
2.5223e-09
-1.3732e-08
-6.3053e-10
2.355e-09
-1.0638e-08
-5.5374e-10
2.1269e-09
-7.9399e-09
-4.6959e-10
1.8573e-09
-3.8456e-10
1.5654e-09
-4.0879e-08
-3.1411e-13
1.47e-09
-3.8407e-08
-5.0241e-13
1.8426e-09
-3.545e-08
-7.8562e-13
2.1885e-09
-3.2092e-08
-8.8529e-13
2.4818e-09
-2.8447e-08
-1.0847e-12
2.7001e-09
-2.4651e-08
-1.2184e-12
2.8256e-09
-2.0852e-08
-1.2576e-12
2.8541e-09
-1.7185e-08
-1.2249e-12
2.7845e-09
-1.3764e-08
-1.1173e-12
2.6297e-09
-1.0675e-08
-1.0005e-12
2.411e-09
-7.982e-09
-8.3249e-13
2.1481e-09
-6.257e-13
1.8553e-09
-4.0879e-08
4.0898e-10
1.4701e-09
-3.8408e-08
5.155e-10
1.8427e-09
-3.5451e-08
6.1079e-10
2.188e-09
-3.2092e-08
6.8392e-10
2.4817e-09
-2.8447e-08
7.3046e-10
2.6997e-09
-2.4652e-08
7.4705e-10
2.8251e-09
-2.0853e-08
7.3403e-10
2.8536e-09
-1.7186e-08
6.9344e-10
2.784e-09
-1.3764e-08
6.3117e-10
2.6291e-09
-1.0675e-08
5.5454e-10
2.4104e-09
-7.9822e-09
4.7032e-10
2.1474e-09
3.852e-10
1.8547e-09
-4.0914e-08
7.8627e-10
1.4001e-09
-3.8439e-08
9.9674e-10
1.7469e-09
-3.5477e-08
1.1855e-09
2.0642e-09
-3.2111e-08
1.3369e-09
2.3243e-09
-2.8455e-08
1.438e-09
2.5098e-09
-2.4649e-08
1.4821e-09
2.6075e-09
-2.0839e-08
1.4692e-09
2.6098e-09
-1.7162e-08
1.406e-09
2.5196e-09
-1.3733e-08
1.3015e-09
2.3524e-09
-1.0638e-08
1.1706e-09
2.124e-09
-7.9402e-09
1.0299e-09
1.8546e-09
8.8792e-10
1.5628e-09
-4.098e-08
1.1308e-09
1.127e-09
-3.8501e-08
1.43e-09
1.4256e-09
-3.5527e-08
1.7015e-09
1.6959e-09
-3.2145e-08
1.9215e-09
1.9168e-09
-2.8469e-08
2.0729e-09
2.0671e-09
-2.4638e-08
2.1421e-09
2.1356e-09
-2.0803e-08
2.1308e-09
2.1245e-09
-1.7107e-08
2.0472e-09
2.0408e-09
-1.3662e-08
1.9012e-09
1.8949e-09
-1.0555e-08
1.7145e-09
1.7086e-09
-7.8468e-09
1.5107e-09
1.5051e-09
1.3032e-09
1.2981e-09
-4.123e-08
7.9406e-10
2.1789e-09
-3.8734e-08
9.8495e-10
2.7414e-09
-3.5735e-08
1.145e-09
3.2646e-09
-3.2315e-08
1.251e-09
3.7046e-09
-2.8594e-08
1.2909e-09
4.0323e-09
-2.472e-08
1.2583e-09
4.2253e-09
-2.0845e-08
1.1631e-09
4.2648e-09
-1.7113e-08
1.0166e-09
4.1558e-09
-1.3641e-08
8.3247e-10
3.9237e-09
-1.0514e-08
6.3158e-10
3.5988e-09
-7.7926e-09
4.3943e-10
3.2111e-09
2.823e-10
2.7839e-09
-4.1323e-08
-7.947e-10
1.1501e-09
1.1478e-09
-3.883e-08
-9.8519e-10
1.4524e-09
1.45e-09
-3.5815e-08
-1.1454e-09
1.7059e-09
1.7045e-09
-3.237e-08
-1.2524e-09
1.8927e-09
1.892e-09
-2.8615e-08
-1.2926e-09
1.9909e-09
1.9913e-09
-2.4705e-08
-1.2602e-09
1.9922e-09
1.9928e-09
-2.0797e-08
-1.1652e-09
1.9022e-09
1.9024e-09
-1.7038e-08
-1.0184e-09
1.7323e-09
1.7321e-09
-1.3548e-08
-8.3408e-10
1.5016e-09
1.5009e-09
-1.041e-08
-6.3311e-10
1.2374e-09
1.2361e-09
-7.6796e-09
-4.4062e-10
9.7263e-10
9.7129e-10
-2.8366e-10
7.479e-10
7.435e-10
-4.123e-08
-8.9998e-10
2.1786e-09
-3.8734e-08
-1.0957e-09
2.7406e-09
-3.5735e-08
-1.2639e-09
3.2636e-09
-3.2315e-08
-1.3888e-09
3.7026e-09
-2.8594e-08
-1.4593e-09
4.0295e-09
-2.472e-08
-1.4696e-09
4.2226e-09
-2.0845e-08
-1.418e-09
4.2623e-09
-1.7113e-08
-1.308e-09
4.1535e-09
-1.3642e-08
-1.1584e-09
3.9217e-09
-1.0514e-08
-9.8283e-10
3.597e-09
-7.7928e-09
-7.9013e-10
3.2095e-09
-6.0364e-10
2.7833e-09
-4.1177e-08
-4.8051e-10
2.1031e-09
-3.8686e-08
-5.7713e-10
2.655e-09
-3.5696e-08
-6.5763e-10
3.1644e-09
-3.229e-08
-7.1619e-10
3.5927e-09
-2.8589e-08
-7.4605e-10
3.9071e-09
-2.4736e-08
-7.4347e-10
4.0849e-09
-2.0882e-08
-7.0951e-10
4.1138e-09
-1.7167e-08
-6.4634e-10
3.9974e-09
-1.3711e-08
-5.5991e-10
3.7561e-09
-1.0597e-08
-4.6231e-10
3.4174e-09
-7.8854e-09
-3.5818e-10
3.017e-09
-2.5579e-10
2.5795e-09
-4.1152e-08
-4.8168e-14
2.2034e-09
-3.8663e-08
-2.7184e-13
2.8069e-09
-3.5677e-08
-4.7239e-13
3.373e-09
-3.2278e-08
-7.0049e-13
3.8568e-09
-2.8586e-08
-7.6295e-13
4.2259e-09
-2.4744e-08
-8.4559e-13
4.4549e-09
-2.0901e-08
-9.1235e-13
4.5253e-09
-1.7196e-08
-8.7714e-13
4.4417e-09
-1.3745e-08
-7.6017e-13
4.2235e-09
-1.0636e-08
-7.7475e-13
3.9006e-09
-7.9291e-09
-4.2582e-13
3.5067e-09
-1.885e-13
3.0654e-09
-4.1152e-08
4.806e-10
2.2046e-09
-3.8663e-08
5.7751e-10
2.8078e-09
-3.5678e-08
6.577e-10
3.3734e-09
-3.2279e-08
7.1668e-10
3.8571e-09
-2.8586e-08
7.467e-10
4.2258e-09
-2.4745e-08
7.4394e-10
4.4547e-09
-2.0901e-08
7.0981e-10
4.5252e-09
-1.7196e-08
6.4663e-10
4.4415e-09
-1.3745e-08
5.6018e-10
4.2232e-09
-1.0636e-08
4.6247e-10
3.9002e-09
-7.9291e-09
3.5868e-10
3.5063e-09
2.5625e-10
3.0653e-09
-4.1179e-08
9.0159e-10
2.1045e-09
-3.8687e-08
1.0976e-09
2.6567e-09
-3.5697e-08
1.2668e-09
3.1666e-09
-3.2291e-08
1.3917e-09
3.5948e-09
-2.859e-08
1.4627e-09
3.9095e-09
-2.4737e-08
1.4731e-09
4.0872e-09
-2.0883e-08
1.4212e-09
4.1158e-09
-1.7168e-08
1.3109e-09
3.9991e-09
-1.3711e-08
1.1615e-09
3.7574e-09
-1.0597e-08
9.8492e-10
3.4182e-09
-7.8855e-09
7.9276e-10
3.0173e-09
6.0555e-10
2.5795e-09
-4.1231e-08
7.9756e-10
2.1771e-09
-3.8735e-08
9.8898e-10
2.7393e-09
-3.5736e-08
1.1491e-09
3.2627e-09
-3.2316e-08
1.2561e-09
3.7028e-09
-2.8595e-08
1.296e-09
4.0305e-09
-2.472e-08
1.2636e-09
4.2234e-09
-2.0845e-08
1.1687e-09
4.2624e-09
-1.7114e-08
1.0222e-09
4.1529e-09
-1.3642e-08
8.3796e-10
3.9206e-09
-1.0514e-08
6.3674e-10
3.5956e-09
-7.7929e-09
4.444e-10
3.2076e-09
2.8687e-10
2.7804e-09
-4.1323e-08
1.1495e-09
1.1473e-09
-3.883e-08
1.4529e-09
1.4492e-09
-3.5816e-08
1.7064e-09
1.7034e-09
-3.237e-08
1.8927e-09
1.8898e-09
-2.8616e-08
1.9911e-09
1.9885e-09
-2.4705e-08
1.9924e-09
1.9899e-09
-2.0797e-08
1.9025e-09
1.8995e-09
-1.7038e-08
1.7328e-09
1.7295e-09
-1.3548e-08
1.5023e-09
1.4987e-09
-1.041e-08
1.2377e-09
1.2342e-09
-7.6793e-09
9.7346e-10
9.6992e-10
7.4667e-10
7.4262e-10
2.4499e-08
-6.2023e-10
9.9705e-10
-4.5346e-12
3.3935e-08
-7.4631e-10
1.1648e-09
-4.4838e-12
4.4769e-08
-8.7604e-10
1.4717e-09
-4.4479e-12
5.6851e-08
-9.7788e-10
1.7705e-09
-4.6384e-12
6.9933e-08
-1.064e-09
2.006e-09
-4.6372e-12
8.3609e-08
-1.1228e-09
2.1533e-09
-4.1514e-12
9.7333e-08
-1.1345e-09
2.1996e-09
-3.8745e-12
1.1051e-07
-1.0961e-09
2.1439e-09
-3.9209e-12
1.2259e-07
-1.0207e-09
1.997e-09
-3.8835e-12
1.3313e-07
-9.1858e-10
1.7797e-09
-4.3375e-12
1.4179e-07
-7.9434e-10
1.5129e-09
-3.9944e-12
-6.6144e-10
1.2236e-09
-3.4852e-12
3e-08
-5.1319e-10
3.3181e-09
4.0999e-08
-6.0424e-10
3.6216e-09
5.3672e-08
-7.158e-10
4.0175e-09
6.7819e-08
-8.1453e-10
4.3775e-09
8.3117e-08
-8.9817e-10
4.6238e-09
9.9088e-08
-9.5686e-10
4.7081e-09
1.1511e-07
-9.7517e-10
4.6081e-09
1.3052e-07
-9.4783e-10
4.3299e-09
1.4468e-07
-8.8267e-10
3.9031e-09
1.5706e-07
-7.8735e-10
3.3682e-09
1.6729e-07
-6.6789e-10
2.7624e-09
-5.3422e-10
2.1215e-09
3.3688e-08
-4.2915e-10
3.4865e-09
4.5872e-08
-4.8849e-10
3.8132e-09
5.9913e-08
-5.4423e-10
4.2221e-09
7.5563e-08
-5.9353e-10
4.5988e-09
9.2463e-08
-6.3411e-10
4.8516e-09
1.1008e-07
-6.595e-10
4.9336e-09
1.2775e-07
-6.6121e-10
4.8278e-09
1.4473e-07
-6.3532e-10
4.541e-09
1.6033e-07
-5.8809e-10
4.1016e-09
1.7398e-07
-5.2319e-10
3.5497e-09