/*--------------------------------*- C++ -*----------------------------------*\
| =========                 |                                                 |
| \\      /  F ield         | foam-extend: Open Source CFD                    |
|  \\    /   O peration     | Version:     4.1-20200408                       |
|   \\  /    A nd           | Web:         http://www.foam-extend.org         |
|    \\/     M anipulation  |                                                 |
\*---------------------------------------------------------------------------*/
FoamFile
{
    version     2.0;
    format      ascii;
    class       volScalarField;
    location    "0.0910000";
    object      ccx;
}
// * * * * * * * * * * * * * * * * * * * * * * * * * * * * * * * * * * * * * //

dimensions      [0 1 0 0 0 0 0];

internalField   nonuniform List<scalar> 
1952
(
0.00285488
0.00285469
0.00285441
0.00285406
0.00285362
0.00285313
0.00285258
0.002852
0.00285141
0.00285082
0.00285026
0.00284976
0.00284936
0.00284909
0.00284893
0.00285498
0.00268469
0.00268431
0.00268375
0.00268303
0.00268217
0.00268118
0.00268009
0.00267893
0.00267774
0.00267656
0.00267543
0.00267444
0.00267364
0.00267309
0.00267277
0.00268489
0.00263453
0.00263415
0.00263359
0.00263288
0.00263201
0.00263102
0.00262993
0.00262877
0.00262758
0.00262639
0.00262527
0.00262427
0.00262347
0.00262292
0.0026226
0.00263473
0.00258438
0.002584
0.00258344
0.00258272
0.00258185
0.00258086
0.00257977
0.00257861
0.00257742
0.00257623
0.00257511
0.00257411
0.00257331
0.00257275
0.00257243
0.00258458
0.00253422
0.00253384
0.00253328
0.00253257
0.0025317
0.0025307
0.00252961
0.00252845
0.00252726
0.00252607
0.00252494
0.00252395
0.00252314
0.00252259
0.00252226
0.00253442
0.00248406
0.00248369
0.00248313
0.00248241
0.00248154
0.00248054
0.00247945
0.00247829
0.0024771
0.00247591
0.00247478
0.00247378
0.00247298
0.00247242
0.0024721
0.00248427
0.00243391
0.00243353
0.00243297
0.00243225
0.00243138
0.00243039
0.00242929
0.00242813
0.00242693
0.00242574
0.00242462
0.00242361
0.00242281
0.00242225
0.00242193
0.00243411
0.00238375
0.00238337
0.00238281
0.00238209
0.00238122
0.00238022
0.00237913
0.00237797
0.00237677
0.00237558
0.00237445
0.00237345
0.00237264
0.00237208
0.00237176
0.00238395
0.00233359
0.00233321
0.00233265
0.00233193
0.00233106
0.00233006
0.00232897
0.0023278
0.00232661
0.00232542
0.00232429
0.00232328
0.00232247
0.00232192
0.00232159
0.00233379
0.00228343
0.00228305
0.00228249
0.00228177
0.0022809
0.0022799
0.00227881
0.00227764
0.00227644
0.00227525
0.00227412
0.00227311
0.00227231
0.00227175
0.00227142
0.00228363
0.00223327
0.00223289
0.00223233
0.00223161
0.00223074
0.00222974
0.00222864
0.00222748
0.00222628
0.00222508
0.00222395
0.00222294
0.00222214
0.00222158
0.00222125
0.00223347
0.0021831
0.00218272
0.00218217
0.00218144
0.00218057
0.00217957
0.00217848
0.00217731
0.00217611
0.00217492
0.00217378
0.00217278
0.00217197
0.00217141
0.00217108
0.00218331
0.00213294
0.00213256
0.002132
0.00213128
0.00213041
0.00212941
0.00212831
0.00212714
0.00212594
0.00212475
0.00212362
0.00212261
0.0021218
0.00212124
0.00212091
0.00213315
0.00208278
0.0020824
0.00208184
0.00208111
0.00208024
0.00207924
0.00207814
0.00207697
0.00207577
0.00207458
0.00207345
0.00207244
0.00207163
0.00207107
0.00207074
0.00208298
0.00203261
0.00203223
0.00203167
0.00203095
0.00203007
0.00202907
0.00202797
0.00202681
0.0020256
0.00202441
0.00202328
0.00202227
0.00202146
0.0020209
0.00202057
0.00203282
0.00198245
0.00198207
0.0019815
0.00198078
0.00197991
0.00197891
0.00197781
0.00197664
0.00197544
0.00197424
0.00197311
0.0019721
0.00197129
0.00197073
0.0019704
0.00198265
0.00193228
0.0019319
0.00193134
0.00193061
0.00192974
0.00192874
0.00192764
0.00192647
0.00192527
0.00192407
0.00192294
0.00192193
0.00192112
0.00192056
0.00192023
0.00193248
0.00188211
0.00188173
0.00188117
0.00188045
0.00187957
0.00187857
0.00187747
0.0018763
0.0018751
0.0018739
0.00187276
0.00187176
0.00187094
0.00187039
0.00187006
0.00188232
0.00183194
0.00183156
0.001831
0.00183028
0.0018294
0.0018284
0.0018273
0.00182613
0.00182492
0.00182373
0.00182259
0.00182158
0.00182077
0.00182021
0.00181988
0.00183215
0.00178178
0.0017814
0.00178083
0.00178011
0.00177923
0.00177823
0.00177713
0.00177596
0.00177475
0.00177355
0.00177242
0.00177141
0.0017706
0.00177004
0.00176971
0.00178198
0.00173161
0.00173123
0.00173066
0.00172994
0.00172906
0.00172806
0.00172696
0.00172579
0.00172458
0.00172338
0.00172224
0.00172124
0.00172042
0.00171986
0.00171953
0.00173182
0.00168144
0.00168106
0.00168049
0.00167977
0.00167889
0.00167789
0.00167679
0.00167561
0.00167441
0.00167321
0.00167207
0.00167106
0.00167025
0.00166969
0.00166936
0.00168165
0.00163127
0.00163089
0.00163032
0.0016296
0.00162872
0.00162772
0.00162662
0.00162544
0.00162423
0.00162303
0.0016219
0.00162088
0.00162007
0.00161951
0.00161918
0.00163148
0.0015811
0.00158072
0.00158015
0.00157943
0.00157855
0.00157755
0.00157645
0.00157527
0.00157406
0.00157286
0.00157172
0.00157071
0.00156989
0.00156933
0.001569
0.00158131
0.00153093
0.00153055
0.00152998
0.00152926
0.00152838
0.00152738
0.00152627
0.0015251
0.00152389
0.00152269
0.00152155
0.00152053
0.00151972
0.00151915
0.00151882
0.00153114
0.00148076
0.00148038
0.00147981
0.00147909
0.00147821
0.00147721
0.0014761
0.00147492
0.00147371
0.00147251
0.00147137
0.00147035
0.00146954
0.00146897
0.00146864
0.00148097
0.0014306
0.00143021
0.00142964
0.00142892
0.00142804
0.00142703
0.00142593
0.00142475
0.00142354
0.00142233
0.00142119
0.00142018
0.00141936
0.00141879
0.00141846
0.0014308
0.00138043
0.00138005
0.00137948
0.00137875
0.00137787
0.00137686
0.00137576
0.00137458
0.00137336
0.00137216
0.00137102
0.00137
0.00136918
0.00136861
0.00136828
0.00138063
0.00133026
0.00132988
0.00132931
0.00132858
0.0013277
0.00132669
0.00132558
0.0013244
0.00132319
0.00132198
0.00132084
0.00131982
0.001319
0.00131843
0.0013181
0.00133047
0.00128009
0.00127971
0.00127914
0.00127841
0.00127753
0.00127652
0.00127541
0.00127423
0.00127301
0.00127181
0.00127066
0.00126964
0.00126882
0.00126825
0.00126792
0.0012803
0.00122993
0.00122954
0.00122897
0.00122824
0.00122736
0.00122635
0.00122524
0.00122406
0.00122284
0.00122163
0.00122048
0.00121946
0.00121864
0.00121807
0.00121773
0.00123013
0.00117976
0.00117937
0.0011788
0.00117807
0.00117719
0.00117618
0.00117507
0.00117389
0.00117266
0.00117145
0.0011703
0.00116928
0.00116845
0.00116788
0.00116755
0.00117996
0.00112959
0.0011292
0.00112863
0.0011279
0.00112702
0.00112601
0.00112489
0.00112371
0.00112249
0.00112127
0.00112012
0.0011191
0.00111827
0.00111769
0.00111736
0.0011298
0.00107942
0.00107903
0.00107847
0.00107773
0.00107685
0.00107584
0.00107472
0.00107354
0.00107231
0.00107109
0.00106994
0.00106891
0.00106808
0.00106751
0.00106716
0.00107963
0.00102925
0.00102886
0.00102829
0.00102756
0.00102668
0.00102566
0.00102455
0.00102336
0.00102214
0.00102092
0.00101976
0.00101873
0.0010179
0.00101732
0.00101697
0.00102946
0.000979078
0.000978693
0.000978124
0.000977389
0.000976504
0.00097549
0.000974374
0.000973186
0.00097196
0.000970738
0.000969579
0.000968545
0.000967707
0.000967125
0.000966777
0.000979286
0.000928901
0.000928518
0.000927948
0.000927214
0.000926329
0.000925315
0.000924199
0.000923009
0.000921781
0.000920557
0.000919396
0.000918359
0.000917517
0.00091693
0.000916578
0.000929108
0.00087872
0.000878337
0.000877768
0.000877035
0.00087615
0.000875137
0.000874021
0.000872831
0.000871602
0.000870376
0.000869212
0.000868172
0.000867325
0.000866733
0.000866376
0.000878926
0.000828532
0.00082815
0.000827583
0.00082685
0.000825967
0.000824955
0.00082384
0.000822651
0.000821421
0.000820195
0.000819028
0.000817984
0.000817132
0.000816534
0.00081617
0.000828739
0.000778336
0.000777956
0.00077739
0.000776659
0.000775778
0.000774768
0.000773655
0.000772467
0.000771238
0.000770011
0.000768843
0.000767796
0.000766939
0.000766334
0.000765961
0.000778542
0.00072813
0.000727751
0.000727187
0.00072646
0.000725582
0.000724575
0.000723465
0.00072228
0.000721054
0.000719828
0.000718659
0.000717609
0.000716747
0.000716133
0.00071575
0.000728335
0.000677909
0.000677533
0.000676972
0.000676248
0.000675374
0.000674373
0.000673268
0.000672088
0.000670865
0.000669641
0.000668473
0.000667421
0.000666554
0.000665932
0.000665537
0.000678114
0.000627673
0.000627299
0.000626741
0.000626022
0.000625154
0.000624159
0.000623061
0.000621887
0.000620671
0.000619452
0.000618287
0.000617234
0.000616363
0.000615732
0.000615322
0.000627875
0.000577415
0.000577044
0.000576492
0.000575778
0.000574917
0.000573931
0.000572841
0.000571676
0.000570469
0.000569257
0.000568097
0.000567047
0.000566174
0.000565534
0.000565105
0.000577615
0.000527131
0.000526764
0.000526217
0.000525511
0.000524659
0.000523682
0.000522604
0.00052145
0.000520253
0.000519052
0.000517901
0.000516856
0.000515984
0.000515337
0.000514889
0.00052733
0.000476819
0.000476456
0.000475915
0.000475218
0.000474377
0.000473412
0.000472346
0.000471206
0.000470024
0.000468836
0.000467696
0.00046666
0.000465792
0.00046514
0.000464678
0.000477015
0.000426474
0.000426116
0.000425583
0.000424895
0.000424066
0.000423114
0.000422064
0.000420941
0.000419775
0.000418603
0.000417479
0.000416454
0.000415594
0.000414943
0.000414473
0.000426668
0.000376094
0.000375742
0.000375217
0.00037454
0.000373724
0.000372788
0.000371755
0.000370651
0.000369504
0.000368353
0.000367248
0.00036624
0.000365392
0.000364747
0.000364277
0.000376285
0.000325676
0.00032533
0.000324814
0.000324149
0.000323348
0.000322429
0.000321416
0.000320333
0.00031921
0.000318083
0.000317002
0.000316018
0.000315189
0.000314556
0.000314093
0.000325864
0.000275218
0.000274879
0.000274373
0.000273721
0.000272936
0.000272036
0.000271045
0.000269987
0.000268891
0.000267793
0.000266742
0.000265788
0.000264986
0.000264372
0.000263927
0.000275402
0.000224721
0.000224389
0.000223894
0.000223257
0.000222488
0.00022161
0.000220643
0.000219613
0.000218547
0.000217483
0.000216467
0.000215551
0.000214785
0.000214203
0.000213792
0.000224902
0.000174185
0.000173861
0.000173378
0.000172755
0.000172006
0.000171151
0.000170209
0.000169209
0.000168179
0.000167152
0.000166179
0.000165309
0.000164591
0.000164062
0.000163718
0.000174362
0.000123616
0.0001233
0.000122829
0.000122223
0.000121495
0.000120662
0.000119749
0.000118781
0.000117787
0.000116803
0.000115878
0.000115065
0.000114417
0.000113978
0.000113746
0.000123789
7.30176e-05
7.27104e-05
7.22526e-05
7.16641e-05
7.09568e-05
7.01498e-05
6.92653e-05
6.83314e-05
6.73789e-05
6.64448e-05
6.55796e-05
6.48428e-05
6.42952e-05
6.39861e-05
6.39161e-05
7.31858e-05
2.23949e-05
2.20971e-05
2.1653e-05
2.10827e-05
2.03994e-05
1.96216e-05
1.87726e-05
1.7881e-05
1.69799e-05
1.61101e-05
1.53245e-05
1.46878e-05
1.42695e-05
1.4126e-05
1.42618e-05
2.25584e-05
-2.82424e-05
-2.85283e-05
-2.89546e-05
-2.95008e-05
-3.0153e-05
-3.08911e-05
-3.16917e-05
-3.25263e-05
-3.33592e-05
-3.41468e-05
-3.48323e-05
-3.53464e-05
-3.5612e-05
-3.55642e-05
-3.51931e-05
-2.80849e-05
-7.88637e-05
-7.91319e-05
-7.95313e-05
-8.00428e-05
-8.06503e-05
-8.13339e-05
-8.20699e-05
-8.28298e-05
-8.35764e-05
-8.42646e-05
-8.48333e-05
-8.52084e-05
-8.53057e-05
-8.50532e-05
-8.44337e-05
-7.87152e-05
-0.000129411
-0.000129654
-0.000130016
-0.000130479
-0.000131027
-0.00013164
-0.000132296
-0.000132966
-0.000133612
-0.000134186
-0.000134627
-0.000134855
-0.000134778
-0.000134319
-0.000133454
-0.000129275
-0.000179803
-0.000180015
-0.00018033
-0.000180733
-0.000181209
-0.00018174
-0.000182304
-0.000182872
-0.000183408
-0.000183862
-0.00018417
-0.000184248
-0.000184002
-0.000183346
-0.000182252
-0.000179685
-0.000229949
-0.000230126
-0.00023039
-0.000230727
-0.000231124
-0.000231566
-0.000232032
-0.000232494
-0.000232916
-0.000233249
-0.000233426
-0.000233361
-0.000232957
-0.000232125
-0.000230828
-0.00022985
-0.000279764
-0.000279906
-0.000280117
-0.000280388
-0.000280708
-0.000281061
-0.00028143
-0.000281788
-0.0002821
-0.000282317
-0.000282371
-0.000282176
-0.000281632
-0.000280648
-0.000279184
-0.000279683
-0.000329176
-0.000329286
-0.000329451
-0.000329662
-0.000329909
-0.000330181
-0.00033046
-0.000330722
-0.000330932
-0.000331043
-0.000330986
-0.000330679
-0.000330018
-0.000328915
-0.000327324
-0.000329114
-0.00037814
-0.000378224
-0.00037835
-0.00037851
-0.000378696
-0.000378898
-0.000379098
-0.000379275
-0.000379396
-0.000379414
-0.000379264
-0.000378864
-0.000378113
-0.000376925
-0.000375253
-0.000378092
-0.000426638
-0.000426702
-0.000426798
-0.000426917
-0.000427054
-0.000427198
-0.000427334
-0.000427441
-0.000427487
-0.000427428
-0.000427203
-0.000426732
-0.00042592
-0.000424683
-0.000422978
-0.000426602
-0.000474679
-0.000474728
-0.000474801
-0.00047489
-0.00047499
-0.000475088
-0.000475172
-0.000475222
-0.000475209
-0.000475091
-0.000474809
-0.000474291
-0.000473446
-0.000472197
-0.000470505
-0.000474651
-0.000522292
-0.00052233
-0.000522385
-0.000522452
-0.000522522
-0.000522585
-0.000522629
-0.000522635
-0.000522576
-0.000522413
-0.000522094
-0.00052155
-0.0005207
-0.000519475
-0.000517839
-0.00052227
-0.00056952
-0.000569549
-0.00056959
-0.000569637
-0.000569683
-0.000569719
-0.000569731
-0.000569703
-0.00056961
-0.000569417
-0.000569075
-0.000568526
-0.000567698
-0.00056653
-0.000564989
-0.000569503
-0.000616415
-0.000616435
-0.000616462
-0.000616491
-0.000616516
-0.000616527
-0.000616513
-0.000616458
-0.000616339
-0.000616126
-0.000615778
-0.000615241
-0.000614456
-0.000613373
-0.000611962
-0.000616403
-0.000663028
-0.000663038
-0.000663051
-0.000663061
-0.000663065
-0.000663053
-0.000663014
-0.000662936
-0.000662797
-0.000662572
-0.000662226
-0.000661717
-0.000660996
-0.00066002
-0.000658763
-0.000663022
-0.000709405
-0.000709404
-0.000709402
-0.000709394
-0.000709376
-0.00070934
-0.000709278
-0.000709176
-0.00070902
-0.000708787
-0.000708451
-0.00070798
-0.000707337
-0.000706485
-0.000705398
-0.000709404
-0.000755584
-0.000755574
-0.000755557
-0.00075553
-0.000755489
-0.00075543
-0.000755344
-0.00075522
-0.000755047
-0.000754808
-0.000754486
-0.000754059
-0.000753501
-0.000752783
-0.000751873
-0.000755589
-0.000801598
-0.000801579
-0.000801549
-0.000801505
-0.000801444
-0.000801362
-0.000801252
-0.000801106
-0.000800916
-0.000800672
-0.000800365
-0.000799983
-0.000799511
-0.000798925
-0.000798191
-0.000801607
-0.000847469
-0.000847443
-0.000847403
-0.000847346
-0.000847269
-0.000847168
-0.000847038
-0.000846875
-0.000846672
-0.000846426
-0.000846133
-0.000845791
-0.000845396
-0.000844927
-0.000844354
-0.000847482
-0.000893227
-0.000893196
-0.000893149
-0.000893083
-0.000892996
-0.000892885
-0.000892745
-0.000892573
-0.000892367
-0.000892124
-0.000891846
-0.000891534
-0.000891192
-0.000890814
-0.000890374
-0.000893242
-0.000938912
-0.000938879
-0.000938828
-0.000938758
-0.000938666
-0.00093855
-0.000938407
-0.000938235
-0.000938033
-0.0009378
-0.000937537
-0.000937249
-0.000936941
-0.000936621
-0.000936275
-0.000938929
-0.000984558
-0.000984523
-0.000984469
-0.000984396
-0.000984302
-0.000984185
-0.000984043
-0.000983875
-0.000983681
-0.000983459
-0.000983212
-0.000982946
-0.00098267
-0.000982388
-0.000982098
-0.000984574
-0.00103017
-0.00103014
-0.00103008
-0.00103001
-0.00102991
-0.0010298
-0.00102966
-0.00102949
-0.00102931
-0.0010291
-0.00102887
-0.00102863
-0.00102838
-0.00102813
-0.00102788
-0.00103019
-0.00107576
-0.00107572
-0.00107567
-0.0010756
-0.0010755
-0.00107539
-0.00107525
-0.0010751
-0.00107492
-0.00107473
-0.00107453
-0.00107431
-0.00107408
-0.00107386
-0.00107364
-0.00107578
-0.00112133
-0.00112129
-0.00112124
-0.00112117
-0.00112108
-0.00112097
-0.00112084
-0.00112069
-0.00112053
-0.00112035
-0.00112017
-0.00111997
-0.00111977
-0.00111957
-0.00111938
-0.00112135
-0.00116688
-0.00116685
-0.0011668
-0.00116673
-0.00116664
-0.00116653
-0.00116641
-0.00116628
-0.00116613
-0.00116596
-0.00116579
-0.00116562
-0.00116544
-0.00116527
-0.0011651
-0.0011669
-0.00121242
-0.00121239
-0.00121234
-0.00121227
-0.00121219
-0.00121209
-0.00121198
-0.00121186
-0.00121172
-0.00121157
-0.00121142
-0.00121126
-0.0012111
-0.00121095
-0.00121081
-0.00121244
-0.00125795
-0.00125792
-0.00125787
-0.00125781
-0.00125774
-0.00125764
-0.00125754
-0.00125742
-0.0012573
-0.00125717
-0.00125703
-0.00125689
-0.00125675
-0.00125662
-0.0012565
-0.00125796
-0.00130347
-0.00130344
-0.0013034
-0.00130334
-0.00130328
-0.00130319
-0.00130309
-0.00130299
-0.00130288
-0.00130276
-0.00130263
-0.00130251
-0.00130239
-0.00130227
-0.00130217
-0.00130348
-0.00134899
-0.00134896
-0.00134893
-0.00134887
-0.00134881
-0.00134873
-0.00134864
-0.00134855
-0.00134845
-0.00134834
-0.00134823
-0.00134812
-0.00134801
-0.00134791
-0.00134782
-0.001349
-0.00139451
-0.00139448
-0.00139445
-0.0013944
-0.00139434
-0.00139427
-0.00139419
-0.00139411
-0.00139401
-0.00139392
-0.00139382
-0.00139372
-0.00139363
-0.00139354
-0.00139346
-0.00139452
-0.00144002
-0.00144
-0.00143997
-0.00143992
-0.00143987
-0.0014398
-0.00143973
-0.00143966
-0.00143958
-0.00143949
-0.0014394
-0.00143932
-0.00143924
-0.00143916
-0.00143909
-0.00144004
-0.00148554
-0.00148552
-0.00148549
-0.00148544
-0.00148539
-0.00148534
-0.00148527
-0.00148521
-0.00148514
-0.00148506
-0.00148498
-0.0014849
-0.00148483
-0.00148477
-0.00148471
-0.00148555
-0.00153105
-0.00153103
-0.001531
-0.00153096
-0.00153092
-0.00153087
-0.00153081
-0.00153075
-0.00153069
-0.00153062
-0.00153055
-0.00153048
-0.00153042
-0.00153037
-0.00153031
-0.00153106
-0.00157656
-0.00157654
-0.00157651
-0.00157648
-0.00157645
-0.0015764
-0.00157635
-0.00157629
-0.00157623
-0.00157618
-0.00157612
-0.00157606
-0.00157601
-0.00157595
-0.00157591
-0.00157657
-0.00162207
-0.00162205
-0.00162203
-0.001622
-0.00162197
-0.00162193
-0.00162188
-0.00162183
-0.00162178
-0.00162173
-0.00162168
-0.00162163
-0.00162158
-0.00162153
-0.00162149
-0.00162208
-0.00166758
-0.00166756
-0.00166754
-0.00166752
-0.00166749
-0.00166745
-0.00166741
-0.00166737
-0.00166732
-0.00166728
-0.00166723
-0.00166718
-0.00166714
-0.0016671
-0.00166707
-0.00166759
-0.00171309
-0.00171307
-0.00171305
-0.00171303
-0.001713
-0.00171297
-0.00171294
-0.0017129
-0.00171286
-0.00171282
-0.00171278
-0.00171274
-0.0017127
-0.00171267
-0.00171263
-0.00171309
-0.00175859
-0.00175858
-0.00175856
-0.00175854
-0.00175852
-0.00175849
-0.00175846
-0.00175843
-0.0017584
-0.00175836
-0.00175832
-0.00175829
-0.00175825
-0.00175822
-0.00175819
-0.0017586
-0.0018041
-0.00180409
-0.00180407
-0.00180406
-0.00180404
-0.00180401
-0.00180398
-0.00180395
-0.00180392
-0.00180389
-0.00180386
-0.00180383
-0.0018038
-0.00180377
-0.00180374
-0.00180411
-0.00184961
-0.0018496
-0.00184958
-0.00184957
-0.00184955
-0.00184953
-0.0018495
-0.00184948
-0.00184945
-0.00184942
-0.00184939
-0.00184937
-0.00184934
-0.00184932
-0.00184929
-0.00184961
-0.00189511
-0.0018951
-0.00189509
-0.00189508
-0.00189506
-0.00189504
-0.00189502
-0.001895
-0.00189497
-0.00189495
-0.00189493
-0.0018949
-0.00189488
-0.00189485
-0.00189483
-0.00189511
-0.00194061
-0.0019406
-0.00194059
-0.00194058
-0.00194057
-0.00194055
-0.00194053
-0.00194052
-0.00194049
-0.00194047
-0.00194045
-0.00194043
-0.00194041
-0.00194039
-0.00194036
-0.00194062
-0.00198611
-0.0019861
-0.0019861
-0.00198609
-0.00198608
-0.00198606
-0.00198605
-0.00198602
-0.00198601
-0.00198599
-0.00198597
-0.00198595
-0.00198593
-0.00198591
-0.00198589
-0.00198612
-0.00203161
-0.0020316
-0.0020316
-0.00203159
-0.00203158
-0.00203157
-0.00203155
-0.00203154
-0.00203152
-0.00203151
-0.00203149
-0.00203147
-0.00203145
-0.00203143
-0.00203141
-0.00203161
-0.00207711
-0.0020771
-0.00207709
-0.00207708
-0.00207708
-0.00207707
-0.00207706
-0.00207704
-0.00207703
-0.00207701
-0.002077
-0.00207698
-0.00207697
-0.00207695
-0.00207693
-0.00207711
-0.0021226
-0.0021226
-0.00212259
-0.00212258
-0.00212258
-0.00212257
-0.00212256
-0.00212255
-0.00212253
-0.00212252
-0.0021225
-0.00212249
-0.00212248
-0.00212246
-0.00212245
-0.00212261
-0.0021681
-0.00216809
-0.00216809
-0.00216808
-0.00216807
-0.00216806
-0.00216806
-0.00216805
-0.00216803
-0.00216802
-0.00216801
-0.002168
-0.00216798
-0.00216797
-0.00216795
-0.0021681
-0.00221358
-0.00221358
-0.00221358
-0.00221357
-0.00221356
-0.00221356
-0.00221355
-0.00221354
-0.00221353
-0.00221352
-0.00221351
-0.0022135
-0.00221348
-0.00221347
-0.00221345
-0.00221358
-0.00225907
-0.00225906
-0.00225906
-0.00225905
-0.00225905
-0.00225904
-0.00225904
-0.00225903
-0.00225902
-0.00225901
-0.002259
-0.00225899
-0.00225898
-0.00225897
-0.00225895
-0.00225907
-0.00230455
-0.00230454
-0.00230454
-0.00230454
-0.00230453
-0.00230453
-0.00230452
-0.00230452
-0.00230451
-0.0023045
-0.00230449
-0.00230448
-0.00230447
-0.00230446
-0.00230445
-0.00230455
-0.00235003
-0.00235002
-0.00235002
-0.00235002
-0.00235002
-0.00235001
-0.00235001
-0.00235
-0.00234999
-0.00234999
-0.00234998
-0.00234997
-0.00234996
-0.00234995
-0.00234993
-0.00235003
-0.0023955
-0.0023955
-0.0023955
-0.0023955
-0.00239549
-0.00239549
-0.00239548
-0.00239548
-0.00239547
-0.00239547
-0.00239546
-0.00239545
-0.00239545
-0.00239543
-0.00239542
-0.0023955
-0.00244098
-0.00244098
-0.00244097
-0.00244097
-0.00244097
-0.00244096
-0.00244096
-0.00244096
-0.00244095
-0.00244095
-0.00244094
-0.00244093
-0.00244093
-0.00244092
-0.0024409
-0.00244098
-0.00248645
-0.00248645
-0.00248645
-0.00248644
-0.00248644
-0.00248644
-0.00248644
-0.00248643
-0.00248643
-0.00248642
-0.00248641
-0.00248641
-0.0024864
-0.0024864
-0.00248638
-0.00248645
-0.00253191
-0.00253191
-0.00253191
-0.00253191
-0.00253191
-0.00253191
-0.0025319
-0.0025319
-0.0025319
-0.00253189
-0.00253189
-0.00253188
-0.00253188
-0.00253187
-0.00253186
-0.00253191
-0.00257738
-0.00257738
-0.00257737
-0.00257737
-0.00257737
-0.00257737
-0.00257737
-0.00257737
-0.00257736
-0.00257736
-0.00257736
-0.00257735
-0.00257735
-0.00257734
-0.00257733
-0.00257738
-0.00262284
-0.00262284
-0.00262283
-0.00262283
-0.00262283
-0.00262283
-0.00262283
-0.00262283
-0.00262283
-0.00262282
-0.00262282
-0.00262282
-0.00262281
-0.00262281
-0.0026228
-0.00262284
-0.0026683
-0.00266829
-0.00266829
-0.00266829
-0.00266829
-0.00266829
-0.00266829
-0.00266829
-0.00266829
-0.00266828
-0.00266828
-0.00266828
-0.00266828
-0.00266827
-0.00266826
-0.0026683
-0.00271375
-0.00271375
-0.00271375
-0.00271375
-0.00271375
-0.00271375
-0.00271375
-0.00271375
-0.00271374
-0.00271374
-0.00271374
-0.00271374
-0.00271373
-0.00271373
-0.00271372
-0.00271375
-0.0027592
-0.0027592
-0.0027592
-0.0027592
-0.0027592
-0.0027592
-0.0027592
-0.0027592
-0.0027592
-0.0027592
-0.00275919
-0.00275919
-0.00275919
-0.00275918
-0.00275918
-0.0027592
-0.00280465
-0.00280465
-0.00280465
-0.00280465
-0.00280465
-0.00280465
-0.00280465
-0.00280465
-0.00280465
-0.00280465
-0.00280465
-0.00280465
-0.00280464
-0.00280464
-0.00280463
-0.00280465
-0.00285009
-0.00285009
-0.00285009
-0.00285009
-0.00285009
-0.00285009
-0.00285009
-0.00285009
-0.00285009
-0.00285009
-0.00285009
-0.00285009
-0.00285009
-0.00285009
-0.00285008
-0.00285009
-0.00289554
-0.00289554
-0.00289554
-0.00289554
-0.00289554
-0.00289554
-0.00289554
-0.00289554
-0.00289553
-0.00289554
-0.00289554
-0.00289554
-0.00289554
-0.00289553
-0.00289553
-0.00289554
-0.00294098
-0.00294098
-0.00294098
-0.00294098
-0.00294098
-0.00294098
-0.00294098
-0.00294098
-0.00294098
-0.00294098
-0.00294098
-0.00294098
-0.00294098
-0.00294098
-0.00294097
-0.00294098
-0.00298641
-0.00298642
-0.00298642
-0.00298642
-0.00298642
-0.00298642
-0.00298642
-0.00298642
-0.00298641
-0.00298641
-0.00298642
-0.00298642
-0.00298641
-0.00298642
-0.00298641
-0.00298642
-0.00303185
-0.00303185
-0.00303185
-0.00303185
-0.00303185
-0.00303185
-0.00303185
-0.00303185
-0.00303185
-0.00303185
-0.00303185
-0.00303185
-0.00303185
-0.00303185
-0.00303185
-0.00303185
-0.00307728
-0.00307728
-0.00307728
-0.00307729
-0.00307729
-0.00307729
-0.00307729
-0.00307729
-0.00307729
-0.00307728
-0.00307728
-0.00307729
-0.00307728
-0.00307728
-0.00307729
-0.00307729
)
;

boundaryField
{
    wireUpstream
    {
        type            calculated;
        value           nonuniform List<scalar> 
16
(
-0.0031
-0.0031
-0.0031
-0.0031
-0.0031
-0.0031
-0.0031
-0.0031
-0.0031
-0.0031
-0.0031
-0.0031
-0.0031
-0.0031
-0.0031
-0.0031
)
;
    }
    wireDownstream
    {
        type            calculated;
        value           nonuniform List<scalar> 
16
(
0.003
0.003
0.003
0.003
0.003
0.003
0.003
0.003
0.003
0.003
0.003
0.003
0.003
0.003
0.003
0.003
)
;
    }
    wireTopContact
    {
        type            calculated;
        value           nonuniform List<scalar> 
122
(
0.00267266
0.00262249
0.00257232
0.00252215
0.00247199
0.00242182
0.00237165
0.00232148
0.00227131
0.00222114
0.00217097
0.0021208
0.00207063
0.00202046
0.00197029
0.00192012
0.00186994
0.00181977
0.0017696
0.00171942
0.00166924
0.00161907
0.00156889
0.00151871
0.00146853
0.00141835
0.00136817
0.00131799
0.00126781
0.00121762
0.00116743
0.00111724
0.00106705
0.00101685
0.000966655
0.000916453
0.000866248
0.000816038
0.000765825
0.000715609
0.000665389
0.000615165
0.000564937
0.000514707
0.000464485
0.000414274
0.000364078
0.000313898
0.000263742
0.000213629
0.000163594
0.000113684
6.39437e-05
1.44021e-05
-3.49248e-05
-8.40316e-05
-0.000132921
-0.000181597
-0.000230066
-0.000278335
-0.000326411
-0.000374301
-0.000422011
-0.00046955
-0.00051692
-0.000564127
-0.000611174
-0.000658062
-0.000704792
-0.000751365
-0.00079778
-0.000844033
-0.00089013
-0.000936089
-0.000981949
-0.00102776
-0.00107354
-0.00111929
-0.00116503
-0.00121074
-0.00125644
-0.00130212
-0.00134778
-0.00139343
-0.00143906
-0.00148468
-0.00153029
-0.00157589
-0.00162147
-0.00166705
-0.00171262
-0.00175818
-0.00180373
-0.00184928
-0.00189482
-0.00194035
-0.00198588
-0.0020314
-0.00207692
-0.00212244
-0.00216794
-0.00221344
-0.00225894
-0.00230444
-0.00234993
-0.00239541
-0.0024409
-0.00248638
-0.00253185
-0.00257733
-0.00262279
-0.00266826
-0.00271372
-0.00275918
-0.00280463
-0.00285008
-0.00289553
-0.00294097
-0.00298641
-0.00303185
-0.00307728
0.00284887
)
;
    }
    front
    {
        type            wedge;
    }
    back
    {
        type            wedge;
    }
}


// ************************************************************************* //
