/*--------------------------------*- C++ -*----------------------------------*\
| =========                 |                                                 |
| \\      /  F ield         | foam-extend: Open Source CFD                    |
|  \\    /   O peration     | Version:     4.1-20200408                       |
|   \\  /    A nd           | Web:         http://www.foam-extend.org         |
|    \\/     M anipulation  |                                                 |
\*---------------------------------------------------------------------------*/
FoamFile
{
    version     2.0;
    format      ascii;
    class       volScalarField;
    location    "0.0910000";
    object      epsilonPEq;
}
// * * * * * * * * * * * * * * * * * * * * * * * * * * * * * * * * * * * * * //

dimensions      [0 0 0 0 0 0 0];

internalField   nonuniform List<scalar> 
1952
(
0.0978588
0.0979925
0.098275
0.0985742
0.0989273
0.0992771
0.099666
0.0998307
0.0997255
0.0990719
0.0978349
0.0956111
0.092665
0.0904891
0.0892308
0.0977291
0.0979149
0.0980487
0.0983312
0.0986306
0.0989836
0.0993343
0.0997236
0.0998885
0.0997829
0.0991309
0.0978941
0.0956694
0.0927226
0.0905475
0.0892892
0.0977851
0.0979715
0.0981053
0.0983879
0.0986873
0.0990403
0.0993924
0.0997824
0.0999476
0.0998418
0.0991895
0.0979525
0.0957268
0.0927806
0.090606
0.0893474
0.0978417
0.0980292
0.0981631
0.0984459
0.0987454
0.0990983
0.0994505
0.0998408
0.100006
0.0998998
0.0992488
0.0980116
0.0957846
0.092838
0.0906644
0.0894055
0.0978993
0.098087
0.0982209
0.0985037
0.0988033
0.099156
0.0995094
0.0999001
0.100065
0.0999586
0.0993074
0.0980699
0.0958418
0.0928959
0.0907228
0.0894636
0.097957
0.0981458
0.0982797
0.0985625
0.098862
0.0992145
0.099568
0.0999589
0.100124
0.100017
0.0993669
0.0981291
0.0958998
0.0929534
0.0907809
0.0895214
0.0980158
0.0982044
0.0983383
0.098621
0.0989204
0.0992726
0.0996275
0.100019
0.100184
0.100076
0.099426
0.0981879
0.0959573
0.0930112
0.090839
0.0895791
0.0980744
0.0982638
0.0983976
0.0986802
0.0989796
0.0993315
0.0996866
0.100078
0.100243
0.100135
0.0994855
0.0982469
0.0960151
0.0930684
0.0908969
0.0896366
0.0981338
0.0983226
0.0984564
0.098739
0.0990383
0.0993899
0.099746
0.100138
0.100303
0.100193
0.0995443
0.0983054
0.0960722
0.0931262
0.0909549
0.0896943
0.0981926
0.0983816
0.0985153
0.0987979
0.0990971
0.0994485
0.0998047
0.100197
0.100362
0.100252
0.0996038
0.0983646
0.0961302
0.0931833
0.0910126
0.0897517
0.0982515
0.0984398
0.0985735
0.0988561
0.0991552
0.0995063
0.0998638
0.100256
0.100421
0.100311
0.0996623
0.0984228
0.0961871
0.0932406
0.0910704
0.0898091
0.0983097
0.0984981
0.0986318
0.0989144
0.0992135
0.0995645
0.0999219
0.100314
0.100479
0.100368
0.0997212
0.0984812
0.0962443
0.0932974
0.0911281
0.0898667
0.098368
0.0985554
0.0986891
0.0989717
0.0992707
0.0996215
0.0999802
0.100373
0.100538
0.100426
0.0997792
0.098539
0.096301
0.0933547
0.091186
0.0899244
0.0984253
0.0986126
0.0987463
0.0990289
0.0993279
0.0996785
0.100038
0.100431
0.100596
0.100484
0.0998378
0.0985973
0.0963581
0.0934115
0.0912435
0.0899821
0.0984824
0.098669
0.0988027
0.0990853
0.0993844
0.0997348
0.100095
0.100488
0.100654
0.100541
0.0998955
0.0986548
0.0964145
0.0934685
0.0913013
0.0900397
0.0985388
0.0987254
0.0988592
0.0991418
0.0994409
0.0997913
0.100152
0.100546
0.100711
0.100598
0.0999536
0.0987127
0.0964713
0.0935249
0.0913589
0.0900975
0.0985951
0.0987812
0.098915
0.0991977
0.0994969
0.0998471
0.100209
0.100603
0.100769
0.100656
0.100011
0.0987699
0.0965275
0.0935818
0.0914166
0.0901552
0.0986509
0.0988371
0.098971
0.0992538
0.0995531
0.0999032
0.100266
0.10066
0.100826
0.100712
0.100069
0.0988278
0.0965843
0.0936386
0.0914743
0.090213
0.0987068
0.0988927
0.0990266
0.0993095
0.0996088
0.0999588
0.100323
0.100718
0.100883
0.100769
0.100127
0.0988854
0.096641
0.0936954
0.0915319
0.0902707
0.0987623
0.0989488
0.0990828
0.0993657
0.0996652
0.100015
0.100379
0.100775
0.100941
0.100827
0.100185
0.0989429
0.0966974
0.093752
0.0915896
0.0903284
0.0988183
0.0990048
0.0991389
0.0994219
0.0997215
0.100071
0.100436
0.100832
0.100998
0.100884
0.100242
0.0990005
0.096754
0.0938089
0.0916474
0.0903862
0.0988743
0.099061
0.0991951
0.0994782
0.0997778
0.100127
0.100493
0.10089
0.101056
0.100941
0.1003
0.0990583
0.0968107
0.093866
0.0917052
0.0904438
0.0989305
0.0991176
0.0992517
0.0995349
0.0998344
0.100184
0.100551
0.100947
0.101114
0.100998
0.100358
0.0991164
0.0968678
0.0939231
0.0917628
0.0905011
0.098987
0.0991744
0.0993085
0.0995917
0.0998913
0.100241
0.100608
0.101005
0.101172
0.101056
0.100417
0.0991744
0.0969247
0.0939802
0.0918204
0.0905582
0.0990437
0.0992315
0.0993656
0.0996488
0.0999485
0.100298
0.100666
0.101063
0.10123
0.101114
0.100475
0.0992325
0.0969817
0.0940367
0.0918774
0.0906152
0.0991008
0.0992886
0.0994228
0.099706
0.100006
0.100355
0.100724
0.101122
0.101288
0.101171
0.100533
0.0992899
0.0970379
0.0940934
0.0919344
0.0906719
0.0991578
0.099346
0.0994802
0.0997635
0.100063
0.100412
0.100781
0.101179
0.101346
0.101228
0.100591
0.0993476
0.0970945
0.0941493
0.0919915
0.0907288
0.0992152
0.0994031
0.0995372
0.0998205
0.10012
0.100469
0.100839
0.101237
0.101404
0.101286
0.100648
0.0994045
0.0971501
0.0942054
0.0920484
0.0907856
0.0992723
0.0994604
0.0995946
0.0998778
0.100177
0.100526
0.100896
0.101295
0.101461
0.101342
0.100706
0.0994616
0.097206
0.0942621
0.0921056
0.0908427
0.0993296
0.099517
0.0996511
0.0999342
0.100234
0.100582
0.100953
0.101352
0.101519
0.101399
0.100763
0.0995197
0.0972632
0.0943185
0.0921625
0.0908996
0.0993861
0.0995736
0.0997076
0.0999907
0.10029
0.100638
0.101011
0.10141
0.101577
0.101457
0.100821
0.0995767
0.0973191
0.0943744
0.0922192
0.0909563
0.0994427
0.0996301
0.0997642
0.100047
0.100347
0.100695
0.101068
0.101467
0.101634
0.101513
0.100878
0.0996336
0.0973747
0.0944305
0.0922766
0.0910138
0.0994992
0.0996859
0.0998201
0.100103
0.100403
0.100751
0.101124
0.101524
0.101691
0.101569
0.100936
0.0996908
0.0974309
0.094487
0.0923341
0.0910714
0.0995549
0.0997417
0.0998759
0.100159
0.100459
0.100806
0.101181
0.101581
0.101748
0.101626
0.100993
0.0997482
0.0974873
0.0945439
0.0923917
0.0911287
0.0996107
0.0997974
0.0999316
0.100215
0.100514
0.100862
0.101237
0.101638
0.101805
0.101683
0.101051
0.0998062
0.0975443
0.0946008
0.0924492
0.091186
0.0996664
0.0998532
0.0999875
0.100271
0.10057
0.100918
0.101294
0.101696
0.101862
0.10174
0.101109
0.0998639
0.097601
0.0946575
0.0925063
0.0912428
0.0997221
0.0999094
0.100044
0.100327
0.100627
0.100974
0.101351
0.101753
0.10192
0.101798
0.101167
0.0999215
0.0976575
0.0947142
0.0925632
0.0912995
0.0997782
0.0999655
0.1001
0.100384
0.100683
0.101031
0.101409
0.10181
0.101977
0.101855
0.101225
0.0999791
0.0977141
0.0947702
0.0926199
0.0913561
0.0998343
0.100022
0.100157
0.10044
0.10074
0.101087
0.101466
0.101868
0.102035
0.101912
0.101282
0.100036
0.0977695
0.0948258
0.0926767
0.0914126
0.0998908
0.100079
0.100213
0.100497
0.100797
0.101144
0.101523
0.101925
0.102092
0.101968
0.101339
0.100092
0.0978249
0.0948818
0.0927334
0.0914694
0.0999477
0.100136
0.10027
0.100553
0.100853
0.101199
0.101579
0.101982
0.102148
0.102024
0.101396
0.10015
0.0978809
0.0949381
0.0927902
0.0915261
0.100004
0.100192
0.100326
0.10061
0.100909
0.101255
0.101636
0.102039
0.102205
0.102081
0.101454
0.100207
0.0979371
0.0949938
0.0928468
0.0915827
0.100061
0.100249
0.100383
0.100666
0.100966
0.101312
0.101693
0.102096
0.102263
0.102138
0.101511
0.100264
0.0979927
0.0950496
0.0929035
0.0916394
0.100117
0.100305
0.100439
0.100722
0.101022
0.101368
0.10175
0.102153
0.102319
0.102194
0.101568
0.10032
0.0980483
0.0951058
0.0929605
0.0916963
0.100173
0.10036
0.100495
0.100778
0.101078
0.101423
0.101806
0.10221
0.102376
0.102251
0.101626
0.100378
0.0981047
0.0951621
0.0930176
0.0917531
0.100229
0.100416
0.10055
0.100834
0.101134
0.101479
0.101863
0.102267
0.102433
0.102308
0.101683
0.100435
0.0981609
0.0952183
0.0930743
0.0918096
0.100285
0.100472
0.100606
0.10089
0.10119
0.101535
0.101919
0.102324
0.10249
0.102364
0.10174
0.100492
0.098217
0.0952747
0.0931309
0.091866
0.10034
0.100527
0.100662
0.100946
0.101245
0.101591
0.101976
0.102381
0.102547
0.102421
0.101798
0.10055
0.0982734
0.0953306
0.0931874
0.0919225
0.100396
0.100583
0.100718
0.101001
0.101301
0.101646
0.102033
0.102438
0.102605
0.102478
0.101855
0.100606
0.0983288
0.0953861
0.0932437
0.0919313
0.100452
0.100639
0.100774
0.101058
0.101357
0.101703
0.102089
0.102494
0.102661
0.102534
0.101912
0.100662
0.098384
0.0954417
0.0933006
0.0917462
0.100508
0.100695
0.100829
0.101113
0.101413
0.101758
0.102145
0.102551
0.102717
0.10259
0.101969
0.100719
0.0984395
0.0954974
0.0932277
0.091152
0.100563
0.100751
0.100885
0.101169
0.101469
0.101813
0.102201
0.102607
0.102774
0.102646
0.102025
0.100776
0.098495
0.095554
0.0927253
0.0898621
0.100619
0.100807
0.100941
0.101225
0.101524
0.101869
0.102258
0.102664
0.10283
0.102702
0.102083
0.100833
0.0985519
0.0952213
0.0915155
0.0877418
0.100675
0.100862
0.100997
0.10128
0.10158
0.101925
0.102314
0.102721
0.102888
0.10276
0.101914
0.100362
0.0976824
0.0939037
0.0894515
0.0849113
0.10073
0.100918
0.101053
0.101337
0.101637
0.101981
0.102213
0.102382
0.102274
0.101837
0.10065
0.0987063
0.095593
0.0914593
0.0865372
0.0815384
0.100786
0.10082
0.100867
0.101005
0.101116
0.101214
0.101159
0.100974
0.100477
0.0996348
0.0980875
0.0957971
0.0923829
0.0880366
0.0829061
0.0777502
0.10072
0.0998654
0.0997658
0.0996707
0.0994925
0.0992459
0.0988382
0.0982764
0.0974049
0.0961989
0.0943568
0.0918201
0.0882552
0.0838542
0.0787685
0.0737329
0.0998271
0.0975329
0.097277
0.0969438
0.0964797
0.0959124
0.0951834
0.0943001
0.0931363
0.0916622
0.0896324
0.0869705
0.083406
0.0791048
0.0742769
0.0695838
0.0975666
0.0934904
0.093122
0.0926172
0.0919518
0.0911636
0.0902201
0.0891331
0.0878031
0.0861905
0.084099
0.0814342
0.0780004
0.0739237
0.0695047
0.0653091
0.0935836
0.0876456
0.0872409
0.0866747
0.0859399
0.0850768
0.0840669
0.0829235
0.0815683
0.0799526
0.0779229
0.0753664
0.0721676
0.0684096
0.0645032
0.0609121
0.0877685
0.0801774
0.0798159
0.0793016
0.0786323
0.077841
0.0769124
0.0758554
0.0746066
0.0731097
0.0712477
0.0688931
0.0660098
0.0626415
0.0593208
0.0564101
0.0802947
0.0714797
0.0712211
0.0708445
0.0703429
0.0697353
0.0690012
0.0681412
0.0670997
0.0658155
0.0642014
0.0621217
0.0596134
0.0566899
0.0540078
0.0518324
0.0715621
0.0620763
0.0619468
0.0617479
0.0614631
0.0610954
0.0606151
0.0600134
0.0592368
0.0582227
0.056906
0.0551514
0.0530589
0.0506234
0.0486195
0.0472204
0.0621085
0.0525261
0.0525158
0.0524848
0.0524082
0.0522763
0.0520504
0.0517144
0.0512138
0.0504876
0.0494854
0.0480818
0.0464267
0.0445116
0.0432129
0.0426174
0.0525093
0.0433383
0.0434077
0.043494
0.0435688
0.0436174
0.0435961
0.0434862
0.04323
0.0427724
0.0420709
0.0410199
0.0398044
0.0384296
0.0378498
0.0380688
0.0432877
0.0349071
0.0350015
0.0351322
0.0352742
0.0354165
0.0355163
0.0355585
0.0354823
0.0352433
0.0348018
0.0340823
0.0332891
0.0324607
0.032595
0.0336144
0.0348453
0.0274734
0.0275414
0.027645
0.027768
0.0279104
0.0280356
0.0281383
0.0281572
0.0280648
0.0278218
0.027393
0.026988
0.0266966
0.0275163
0.0292874
0.0274222
0.0211207
0.0211301
0.0211586
0.0211989
0.0212645
0.0213287
0.0214009
0.0214229
0.0213925
0.0212723
0.0210781
0.0210136
0.021234
0.0226826
0.0251139
0.0210936
0.0157998
0.0157463
0.0156872
0.015619
0.0155663
0.0155113
0.0154808
0.0154234
0.0153696
0.0152897
0.0152617
0.0154775
0.0161634
0.0181503
0.0211077
0.0157986
0.0113766
0.0112802
0.0111547
0.0109934
0.0108244
0.0106345
0.0104657
0.0102749
0.010129
0.0100107
0.0100707
0.0104899
0.0115594
0.0139465
0.0172612
0.0113937
0.00769422
0.00758492
0.00743265
0.00722179
0.00697626
0.00668056
0.00638382
0.00605007
0.00578031
0.00557041
0.00564034
0.00616319
0.00747789
0.0100603
0.0135328
0.00771798
0.00459357
0.00449251
0.00434622
0.00413104
0.00386364
0.00352079
0.00315027
0.00272268
0.00236673
0.00209983
0.00214053
0.00265429
0.003997
0.00648483
0.00987696
0.00461636
0.00192009
0.0018419
0.00172919
0.00155913
0.00134506
0.00106249
0.0007521
0.000395461
0.000116772
0
0
0.000365239
0.00136271
0.0033605
0.00638384
0.00193859
0
0
0
0
0
0
0
0
0
0
0
0
0
0.0010608
0.00338002
0
0
0
0
0
0
0
0
0
0
0
0
0
0
0
0.00119874
0
0
0
0
0
0
0
0
0
0
0
0
0
0
0
0
0
0
0
0
0
0
0
0
0
0
0
0
0
0
0
0
0
0
0
0
0
0
0
0
0
0
0
0
0
0
0
0
0
0
0
0
0
0
0
0
0
0
0
0
0
0
0
0
0
0
0
0
0
0
0
0
0
0
0
0
0
0
0
0
0
0
0
0
0
0
0
0
0
0
0
0
0
0
0
0
0
0
0
0
0
0
0
0
0
0
0
0
0
0
0
0
0
0
0
0
0
0
0
0
0
0
0
0
0
0
0
0
0
0
0
0
0
0
0
0
0
0
0
0
0
0
0
0
0
0
0
0
0
0
0
0
0
0
0
0
0
0
0
0
0
0
0
0
0
0
0
0
0
0
0
0
0
0
0
0
0
0
0
0
0
0
0
0
0
0
0
0
0
0
0
0
0
0
0
0
0
0
0
0
0
0
0
0
0
0
0
0
0
0
0
0
0
0
0
0
0
0
0
0
0
0
0
0
0
0
0
0
0
0
0
0
0
0
0
0
0
0
0
0
0
0
0
0
0
0
0
0
0
0
0
0
0
0
0
0
0
0
0
0
0
0
0
0
0
0
0
0
0
0
0
0
0
0
0
0
0
0
0
0
0
0
0
0
0
0
0
0
0
0
0
0
0
0
0
0
0
0
0
0
0
0
0
0
0
0
0
0
0
0
0
0
0
0
0
0
0
0
0
0
0
0
0
0
0
0
0
0
0
0
0
0
0
0
0
0
0
0
0
0
0
0
0
0
0
0
0
0
0
0
0
0
0
0
0
0
0
0
0
0
0
0
0
0
0
0
0
0
0
0
0
0
0
0
0
0
0
0
0
0
0
0
0
0
0
0
0
0
0
0
0
0
0
0
0
0
0
0
0
0
0
0
0
0
0
0
0
0
0
0
0
0
0
0
0
0
0
0
0
0
0
0
0
0
0
0
0
0
0
0
0
0
0
0
0
0
0
0
0
0
0
0
0
0
0
0
0
0
0
0
0
0
0
0
0
0
0
0
0
0
0
0
0
0
0
0
0
0
0
0
0
0
0
0
0
0
0
0
0
0
0
0
0
0
0
0
0
0
0
0
0
0
0
0
0
0
0
0
0
0
0
0
0
0
0
0
0
0
0
0
0
0
0
0
0
0
0
0
0
0
0
0
0
0
0
0
0
0
0
0
0
0
0
0
0
0
0
0
0
0
0
0
0
0
0
0
0
0
0
0
0
0
0
0
0
0
0
0
0
0
0
0
0
0
0
0
0
0
0
0
0
0
0
0
0
0
0
0
0
0
0
0
0
0
0
0
0
0
0
0
0
0
0
0
0
0
0
0
0
0
0
0
0
0
0
0
0
0
0
0
0
0
0
0
0
0
0
0
0
0
0
0
0
0
0
0
0
0
0
0
0
0
0
0
0
0
0
0
0
0
0
0
0
0
0
0
0
0
0
0
0
0
0
0
0
0
0
0
0
0
0
0
0
0
0
0
0
0
0
0
0
0
0
0
0
0
0
0
0
0
0
0
0
0
0
0
0
0
0
0
0
0
0
0
0
0
0
0
0
0
0
0
0
0
0
0
0
0
0
0
0
0
0
0
0
0
0
0
0
0
0
0
0
0
0
0
0
0
0
0
0
0
0
0
0
0
0
0
0
0
0
0
0
0
0
0
0
0
0
0
0
0
0
)
;

boundaryField
{
    wireUpstream
    {
        type            calculated;
        value           uniform 0;
    }
    wireDownstream
    {
        type            calculated;
        value           nonuniform List<scalar> 
16
(
0.0978588
0.0979925
0.098275
0.0985742
0.0989273
0.0992771
0.099666
0.0998307
0.0997255
0.0990719
0.0978349
0.0956111
0.092665
0.0904891
0.0892308
0.0977291
)
;
    }
    wireTopContact
    {
        type            calculated;
        value           nonuniform List<scalar> 
122
(
0.0889836
0.0890417
0.0890998
0.0891578
0.0892155
0.0892731
0.0893305
0.0893881
0.0894454
0.0895028
0.0895602
0.0896179
0.0896754
0.089733
0.0897906
0.0898483
0.089906
0.0899636
0.0900212
0.0900789
0.0901364
0.0901936
0.0902507
0.0903076
0.0903642
0.090421
0.0904778
0.0905347
0.0905915
0.0906482
0.0907056
0.0907631
0.0908203
0.0908775
0.0909342
0.0909909
0.0910473
0.0911038
0.0911605
0.0912171
0.0912736
0.0913303
0.091387
0.0914437
0.0915002
0.0915565
0.0916129
0.0916342
0.0914542
0.090854
0.0895472
0.0874066
0.0845696
0.0812144
0.0774469
0.0734493
0.0693176
0.0650549
0.0606639
0.0561634
0.0515847
0.0469726
0.0423735
0.0378357
0.0334007
0.0291017
0.0249635
0.0209974
0.0171941
0.0135095
0.00989199
0.00642459
0.00342675
0.00122169
0
0
0
0
0
0
0
0
0
0
0
0
0
0
0
0
0
0
0
0
0
0
0
0
0
0
0
0
0
0
0
0
0
0
0
0
0
0
0
0
0
0
0
0
0
0
0
0.0889253
)
;
    }
    front
    {
        type            wedge;
    }
    back
    {
        type            wedge;
    }
}


// ************************************************************************* //
