/*--------------------------------*- C++ -*----------------------------------*\
| =========                 |                                                 |
| \\      /  F ield         | OpenFOAM: The Open Source CFD Toolbox           |
|  \\    /   O peration     | Version:  4.1                                   |
|   \\  /    A nd           | Web:      www.OpenFOAM.org                      |
|    \\/     M anipulation  |                                                 |
\*---------------------------------------------------------------------------*/
FoamFile
{
    version     2.0;
    format      ascii;
    class       surfaceScalarField;
    location    "0.0041";
    object      phi;
}
// * * * * * * * * * * * * * * * * * * * * * * * * * * * * * * * * * * * * * //

dimensions      [0 3 -1 0 0 0 0];

internalField   nonuniform List<scalar> 
4288
(
-8.1254e-09
9.4062e-11
9.178e-11
-1.2566e-10
-1.282e-10
-8.5522e-09
1.2284e-10
1.2032e-10
-1.6408e-10
-1.6658e-10
-9.0136e-09
1.5902e-10
1.5632e-10
-2.1286e-10
-2.1548e-10
-9.5347e-09
2.0196e-10
1.9919e-10
-2.7213e-10
-2.7457e-10
-1.0135e-08
2.5073e-10
2.48e-10
-3.4059e-10
-3.4278e-10
-1.0824e-08
3.057e-10
3.032e-10
-4.1813e-10
-4.2003e-10
-1.1608e-08
3.701e-10
3.6807e-10
-5.0858e-10
-5.0987e-10
-1.2509e-08
4.4859e-10
4.4729e-10
-6.1783e-10
-6.189e-10
-1.3571e-08
5.4469e-10
5.4428e-10
-7.5252e-10
-7.5266e-10
-1.4859e-08
6.564e-10
6.5708e-10
-9.1165e-10
-9.1117e-10
-1.6427e-08
7.7705e-10
7.7867e-10
-1.0873e-09
-1.0866e-09
8.9879e-10
9.0113e-10
-1.2714e-09
-1.2653e-09
-8.1319e-09
8.8577e-11
1.2068e-10
-2.0804e-10
-8.5642e-09
1.1424e-10
1.561e-10
-2.6672e-10
-9.0321e-09
1.4659e-10
2.0024e-10
-3.4122e-10
-9.5591e-09
1.8619e-10
2.5434e-10
-4.3506e-10
-1.0164e-08
2.3259e-10
3.1893e-10
-5.4904e-10
-1.0858e-08
2.855e-10
3.946e-10
-6.8209e-10
-1.165e-08
3.4651e-10
4.8354e-10
-8.3588e-10
-1.2563e-08
4.1905e-10
5.8962e-10
-1.0169e-09
-1.3642e-08
5.067e-10
7.1665e-10
-1.2347e-09
-1.4944e-08
6.1e-10
8.6582e-10
-1.4964e-09
-1.6522e-08
7.2522e-10
1.0338e-09
-1.7991e-09
8.452e-10
1.2136e-09
-2.1284e-09
-8.1375e-09
4.7451e-11
1.3701e-10
-2.0913e-10
-8.5733e-09
6.0956e-11
1.7678e-10
-2.6895e-10
-9.0453e-09
7.8025e-11
2.2616e-10
-3.4428e-10
-9.5762e-09
9.8986e-11
2.8694e-10
-4.3804e-10
-1.0184e-08
1.2346e-10
3.6005e-10
-5.5116e-10
-1.0881e-08
1.5126e-10
4.4623e-10
-6.837e-10
-1.1679e-08
1.8309e-10
5.4755e-10
-8.381e-10
-1.2601e-08
2.2074e-10
6.6788e-10
-1.021e-09
-1.369e-08
2.6601e-10
8.1125e-10
-1.2406e-09
-1.5002e-08
3.193e-10
9.7956e-10
-1.502e-09
-1.6586e-08
3.785e-10
1.17e-09
-1.8012e-09
4.3969e-10
1.3754e-09
-2.1249e-09
-8.1402e-09
1.5471e-12
1.454e-10
-2.2357e-10
-8.5777e-09
1.7019e-12
1.8751e-10
-2.876e-10
-9.0518e-09
1.9005e-12
2.3965e-10
-3.6778e-10
-9.5846e-09
2.1614e-12
3.0381e-10
-4.6733e-10
-1.0194e-08
2.3288e-12
3.8122e-10
-5.8768e-10
-1.0894e-08
2.4063e-12
4.7286e-10
-7.2936e-10
-1.1694e-08
2.3248e-12
5.8079e-10
-8.9502e-10
-1.262e-08
2.051e-12
7.0892e-10
-1.0914e-09
-1.3715e-08
1.6729e-12
8.6146e-10
-1.3268e-09
-1.5032e-08
1.314e-12
1.0406e-09
-1.6068e-09
-1.6619e-08
9.9788e-13
1.2439e-09
-1.9278e-09
6.896e-13
1.4644e-09
-2.2773e-09
-8.1401e-09
-4.4438e-11
1.4553e-10
-2.2378e-10
-8.5776e-09
-5.7662e-11
1.8771e-10
-2.8786e-10
-9.0517e-09
-7.4402e-11
2.3989e-10
-3.6804e-10
-9.5846e-09
-9.4927e-11
3.0408e-10
-4.6755e-10
-1.0194e-08
-1.1906e-10
3.8144e-10
-5.8788e-10
-1.0894e-08
-1.4669e-10
4.7304e-10
-7.295e-10
-1.1694e-08
-1.7864e-10
5.8095e-10
-8.9516e-10
-1.2621e-08
-2.1674e-10
7.0906e-10
-1.0916e-09
-1.3715e-08
-2.6269e-10
8.6156e-10
-1.3271e-09
-1.5032e-08
-3.1665e-10
1.0406e-09
-1.6069e-09
-1.6619e-08
-3.7646e-10
1.2438e-09
-1.9278e-09
-4.3823e-10
1.4643e-09
-2.2773e-09
-8.1372e-09
-8.5841e-11
1.3736e-10
-2.0963e-10
-8.573e-09
-1.112e-10
1.7735e-10
-2.6974e-10
-9.045e-09
-1.4329e-10
2.2691e-10
-3.452e-10
-9.576e-09
-1.8264e-10
2.8776e-10
-4.389e-10
-1.0184e-08
-2.2881e-10
3.608e-10
-5.5183e-10
-1.0882e-08
-2.8168e-10
4.4694e-10
-6.8418e-10
-1.168e-08
-3.4271e-10
5.4815e-10
-8.3854e-10
-1.2602e-08
-4.1557e-10
6.6836e-10
-1.0214e-09
-1.3691e-08
-5.0372e-10
8.1158e-10
-1.241e-09
-1.5003e-08
-6.076e-10
9.7967e-10
-1.5022e-09
-1.6586e-08
-7.2314e-10
1.1699e-09
-1.8013e-09
-8.4284e-10
1.3751e-09
-2.1255e-09
-8.1315e-09
-9.1816e-11
1.2122e-10
-2.0863e-10
-8.5637e-09
-1.2026e-10
1.5695e-10
-2.677e-10
-9.0317e-09
-1.5611e-10
2.0138e-10
-3.4254e-10
-9.5588e-09
-1.9888e-10
2.5569e-10
-4.3656e-10
-1.0164e-08
-2.4755e-10
3.2033e-10
-5.5044e-10
-1.0858e-08
-3.0259e-10
3.9601e-10
-6.8338e-10
-1.165e-08
-3.6695e-10
4.848e-10
-8.3696e-10
-1.2564e-08
-4.4579e-10
5.9065e-10
-1.0177e-09
-1.3643e-08
-5.4225e-10
7.1734e-10
-1.2353e-09
-1.4945e-08
-6.5435e-10
8.6611e-10
-1.4967e-09
-1.6523e-08
-7.7526e-10
1.0336e-09
-1.799e-09
-8.9619e-10
1.2126e-09
-2.1274e-09
-8.1248e-09
9.256e-11
-1.2678e-10
-1.2616e-10
-8.5516e-09
1.214e-10
-1.6535e-10
-1.6428e-10
-9.013e-09
1.5768e-10
-2.1452e-10
-2.1272e-10
-9.5343e-09
2.0092e-10
-2.7405e-10
-2.7168e-10
-1.0135e-08
2.5006e-10
-3.4266e-10
-3.3998e-10
-1.0824e-08
3.0552e-10
-4.2042e-10
-4.1734e-10
-1.1609e-08
3.7023e-10
-5.1072e-10
-5.0695e-10
-1.251e-08
4.4916e-10
-6.1983e-10
-6.1625e-10
-1.3573e-08
5.4554e-10
-7.5379e-10
-7.5053e-10
-1.486e-08
6.5762e-10
-9.1242e-10
-9.0923e-10
-1.6427e-08
7.7847e-10
-1.0876e-09
-1.085e-09
8.9932e-10
-1.2674e-09
-1.264e-09
-8.1321e-09
1.2266e-10
8.5885e-11
-2.0996e-10
-8.5643e-09
1.5825e-10
1.1133e-10
-2.6894e-10
-9.0322e-09
2.0252e-10
1.4352e-10
-3.4366e-10
-9.5592e-09
2.566e-10
1.8291e-10
-4.375e-10
-1.0164e-08
3.2107e-10
2.2921e-10
-5.514e-10
-1.0858e-08
3.9646e-10
2.8223e-10
-6.8428e-10
-1.165e-08
4.849e-10
3.4358e-10
-8.377e-10
-1.2563e-08
5.9026e-10
4.1662e-10
-1.0181e-09
-1.3642e-08
7.1643e-10
5.0499e-10
-1.2354e-09
-1.4944e-08
8.6462e-10
6.092e-10
-1.4963e-09
-1.6522e-08
1.0318e-09
7.2532e-10
-1.7986e-09
1.2109e-09
8.4598e-10
-2.128e-09
-8.1346e-09
8.8868e-11
8.6702e-11
-8.5716e-09
1.1457e-10
1.1229e-10
-9.0448e-09
1.4651e-10
1.4416e-10
-9.5761e-09
1.8549e-10
1.8314e-10
-1.0184e-08
2.3176e-10
2.2949e-10
-1.088e-08
2.8566e-10
2.8366e-10
-1.1678e-08
3.4877e-10
3.4723e-10
-1.2601e-08
4.2393e-10
4.2302e-10
-1.3692e-08
5.1386e-10
5.1376e-10
-1.5004e-08
6.1926e-10
6.201e-10
-1.6584e-08
7.3762e-10
7.3941e-10
8.6379e-10
8.6643e-10
-8.1397e-09
4.7543e-11
9.9335e-11
-8.58e-09
6.1134e-11
1.2836e-10
-9.0571e-09
7.8025e-11
1.6437e-10
-9.592e-09
9.8642e-11
2.0854e-10
-1.0203e-08
1.2304e-10
2.6143e-10
-1.0903e-08
1.5134e-10
3.2362e-10
-1.1706e-08
1.8432e-10
3.9667e-10
-1.2636e-08
2.235e-10
4.8347e-10
-1.3736e-08
2.7027e-10
5.8689e-10
-1.5057e-08
3.25e-10
7.0801e-10
-1.6642e-08
3.8627e-10
8.4445e-10
4.5129e-10
9.909e-10
-8.1422e-09
1.3266e-12
1.0635e-10
-8.5842e-09
1.4406e-12
1.3733e-10
-9.0632e-09
1.5597e-12
1.7567e-10
-9.5999e-09
1.7096e-12
2.2272e-10
-1.0212e-08
1.8495e-12
2.792e-10
-1.0914e-08
1.8977e-12
3.4582e-10
-1.1719e-08
1.8318e-12
4.2416e-10
-1.2654e-08
1.6327e-12
5.1716e-10
-1.3759e-08
1.35e-12
6.278e-10
-1.5083e-08
1.0568e-12
7.5736e-10
-1.6671e-08
7.7593e-13
9.0362e-10
5.3727e-13
1.0613e-09
-8.1421e-09
-4.4942e-11
1.0643e-10
-8.5841e-09
-5.8319e-11
1.3745e-10
-9.0631e-09
-7.4987e-11
1.7583e-10
-9.5998e-09
-9.5317e-11
2.2289e-10
-1.0212e-08
-1.1946e-10
2.7935e-10
-1.0914e-08
-1.4767e-10
3.4594e-10
-1.172e-08
-1.8077e-10
4.2424e-10
-1.2654e-08
-2.2031e-10
5.1721e-10
-1.3759e-08
-2.6762e-10
6.2781e-10
-1.5084e-08
-3.2292e-10
7.5732e-10
-1.6671e-08
-3.8472e-10
9.035e-10
-4.5015e-10
1.0611e-09
-8.1394e-09
-8.6437e-11
9.952e-11
-8.5797e-09
-1.1192e-10
1.2869e-10
-9.0568e-09
-1.4364e-10
1.6481e-10
-9.5918e-09
-1.8237e-10
2.0903e-10
-1.0203e-08
-2.2841e-10
2.6189e-10
-1.0903e-08
-2.8223e-10
3.2402e-10
-1.1706e-08
-3.4541e-10
3.9698e-10
-1.2637e-08
-4.209e-10
4.8368e-10
-1.3737e-08
-5.1134e-10
5.8698e-10
-1.5057e-08
-6.1727e-10
7.0791e-10
-1.6642e-08
-7.3605e-10
8.4411e-10
-8.6237e-10
9.903e-10
-8.1341e-09
-1.2048e-10
8.6989e-11
-8.5711e-09
-1.5583e-10
1.1279e-10
-9.0444e-09
-1.9981e-10
1.4484e-10
-9.5758e-09
-2.5365e-10
1.8394e-10
-1.0184e-08
-3.1785e-10
2.3032e-10
-1.088e-08
-3.9309e-10
2.8445e-10
-1.1679e-08
-4.815e-10
3.4784e-10
-1.2602e-08
-5.8722e-10
4.2347e-10
-1.3693e-08
-7.1394e-10
5.1399e-10
-1.5005e-08
-8.6266e-10
6.2001e-10
-1.6585e-08
-1.0301e-09
7.3885e-10
-1.2092e-09
8.6527e-10
-8.1314e-09
8.6208e-11
-2.0795e-10
-8.5637e-09
1.1191e-10
-2.6675e-10
-9.0317e-09
1.4429e-10
-3.4117e-10
-9.5588e-09
1.8392e-10
-4.347e-10
-1.0164e-08
2.304e-10
-5.4818e-10
-1.0858e-08
2.8351e-10
-6.8071e-10
-1.165e-08
3.4456e-10
-8.3383e-10
-1.2564e-08
4.1741e-10
-1.0147e-09
-1.3643e-08
5.0547e-10
-1.2327e-09
-1.4946e-08
6.092e-10
-1.4943e-09
-1.6523e-08
7.2458e-10
-1.797e-09
8.4408e-10
-2.1259e-09
-8.1377e-09
1.3897e-10
4.4545e-11
-2.1119e-10
-8.5736e-09
1.7889e-10
5.7859e-11
-2.7122e-10
-9.0456e-09
2.2836e-10
7.4702e-11
-3.467e-10
-9.5764e-09
2.8913e-10
9.5403e-11
-4.4051e-10
-1.0184e-08
3.6218e-10
1.1973e-10
-5.5373e-10
-1.0881e-08
4.4818e-10
1.475e-10
-6.8617e-10
-1.1679e-08
5.4918e-10
1.7949e-10
-8.4043e-10
-1.2601e-08
6.6904e-10
2.1747e-10
-1.0232e-09
-1.369e-08
8.1184e-10
2.632e-10
-1.2425e-09
-1.5002e-08
9.7947e-10
3.1697e-10
-1.5034e-09
-1.6586e-08
1.1694e-09
3.7674e-10
-1.8024e-09
1.3744e-09
4.3862e-10
-2.1267e-09
-8.1399e-09
1.0127e-10
4.5047e-11
-8.5802e-09
1.3035e-10
5.8487e-11
-9.0572e-09
1.6635e-10
7.5237e-11
-9.5921e-09
2.1045e-10
9.5745e-11
-1.0203e-08
2.6318e-10
1.2011e-10
-1.0903e-08
3.2507e-10
1.485e-10
-1.1706e-08
3.9768e-10
1.8172e-10
-1.2636e-08
4.8389e-10
2.2123e-10
-1.3736e-08
5.8659e-10
2.6845e-10
-1.5057e-08
7.0688e-10
3.237e-10
-1.6642e-08
8.4246e-10
3.8551e-10
9.8815e-10
4.5106e-10
-8.1446e-09
5.4417e-11
5.2228e-11
-8.5882e-09
6.993e-11
6.7663e-11
-9.069e-09
8.9123e-11
8.6814e-11
-9.6074e-09
1.1259e-10
1.1029e-10
-1.0221e-08
1.4055e-10
1.3834e-10
-1.0924e-08
1.7328e-10
1.7127e-10
-1.1732e-08
2.1161e-10
2.099e-10
-1.2671e-08
2.5707e-10
2.5577e-10
-1.378e-08
3.1117e-10
3.1037e-10
-1.5109e-08
3.7445e-10
3.7423e-10
-1.6699e-08
4.4559e-10
4.4597e-10
5.2181e-10
5.2277e-10
-8.1469e-09
1.2065e-12
5.6583e-11
-8.5922e-09
1.3119e-12
7.3244e-11
-9.0749e-09
1.4099e-12
9.3866e-11
-9.615e-09
1.5215e-12
1.1913e-10
-1.023e-08
1.6081e-12
1.494e-10
-1.0935e-08
1.6225e-12
1.8503e-10
-1.1746e-08
1.5475e-12
2.2688e-10
-1.2689e-08
1.3718e-12
2.7655e-10
-1.3802e-08
1.1203e-12
3.356e-10
-1.5135e-08
8.5587e-13
4.0463e-10
-1.6728e-08
5.8129e-13
4.8235e-10
3.4041e-13
5.6587e-10
-8.1468e-09
-5.2045e-11
5.66e-11
-8.5921e-09
-6.7358e-11
7.3287e-11
-9.0748e-09
-8.6362e-11
9.3921e-11
-9.615e-09
-1.096e-10
1.1919e-10
-1.023e-08
-1.374e-10
1.4942e-10
-1.0935e-08
-1.701e-10
1.8502e-10
-1.1746e-08
-2.0857e-10
2.2685e-10
-1.2689e-08
-2.5437e-10
2.765e-10
-1.3803e-08
-3.0897e-10
3.3553e-10
-1.5135e-08
-3.7277e-10
4.0453e-10
-1.6728e-08
-4.4445e-10
4.822e-10
-5.2112e-10
5.6567e-10
-8.1443e-09
-9.9023e-11
5.2247e-11
-8.5879e-09
-1.279e-10
6.7759e-11
-9.0688e-09
-1.6373e-10
8.6951e-11
-9.6072e-09
-2.076e-10
1.1041e-10
-1.0221e-08
-2.6014e-10
1.3838e-10
-1.0924e-08
-3.2197e-10
1.7122e-10
-1.1733e-08
-3.947e-10
2.0976e-10
-1.2671e-08
-4.8123e-10
2.5557e-10
-1.3781e-08
-5.8441e-10
3.1011e-10
-1.5109e-08
-7.0522e-10
3.7385e-10
-1.6699e-08
-8.413e-10
4.4544e-10
-9.8736e-10
5.2204e-10
-8.1394e-09
-1.369e-10
4.5037e-11
-8.5797e-09
-1.7662e-10
5.8599e-11
-9.0568e-09
-2.259e-10
7.542e-11
-9.5918e-09
-2.8642e-10
9.5906e-11
-1.0203e-08
-3.5915e-10
1.2015e-10
-1.0903e-08
-4.4498e-10
1.484e-10
-1.1706e-08
-5.4605e-10
1.8146e-10
-1.2637e-08
-6.6622e-10
2.2087e-10
-1.3737e-08
-8.0954e-10
2.6799e-10
-1.5057e-08
-9.7773e-10
3.2305e-10
-1.6643e-08
-1.1681e-09
3.8456e-10
-1.3735e-09
4.4975e-10
-8.137e-09
4.4449e-11
-2.0936e-10
-8.5729e-09
5.7935e-11
-2.6933e-10
-9.045e-09
7.4878e-11
-3.4465e-10
-9.5759e-09
9.554e-11
-4.3814e-10
-1.0184e-08
1.1969e-10
-5.507e-10
-1.0882e-08
1.4726e-10
-6.827e-10
-1.168e-08
1.7903e-10
-8.37e-10
-1.2602e-08
2.1692e-10
-1.02e-09
-1.3691e-08
2.6261e-10
-1.24e-09
-1.5003e-08
3.1622e-10
-1.5016e-09
-1.6587e-08
3.7561e-10
-1.801e-09
4.3708e-10
-2.1261e-09
-8.1406e-09
1.4731e-10
-1.2407e-12
-2.2545e-10
-8.5782e-09
1.8949e-10
-1.2687e-12
-2.8952e-10
-9.0522e-09
2.4165e-10
-1.2269e-12
-3.6976e-10
-9.5849e-09
3.0581e-10
-1.1135e-12
-4.6935e-10
-1.0195e-08
3.8321e-10
-9.6558e-13
-5.8982e-10
-1.0893e-08
4.7472e-10
-8.2486e-13
-7.3151e-10
-1.1694e-08
5.8245e-10
-7.2489e-13
-8.9714e-10
-1.262e-08
7.1031e-10
-7.1964e-13
-1.0934e-09
-1.3714e-08
8.6252e-10
-7.5847e-13
-1.3288e-09
-1.5031e-08
1.0412e-09
-7.6421e-13
-1.6086e-09
-1.6618e-08
1.2442e-09
-7.3546e-13
-1.9294e-09
1.4644e-09
-6.3027e-13
-2.2788e-09
-8.1425e-09
1.0826e-10
-1.1949e-12
-8.5845e-09
1.3925e-10
-1.222e-12
-9.0634e-09
1.7757e-10
-1.2174e-12
-9.6001e-09
2.2454e-10
-1.146e-12
-1.0212e-08
2.8088e-10
-1.0146e-12
-1.0914e-08
3.4725e-10
-8.8314e-13
-1.1719e-08
4.2525e-10
-7.8583e-13
-1.2654e-08
5.1782e-10
-7.6753e-13
-1.3759e-08
6.2794e-10
-7.7183e-13
-1.5083e-08
7.5691e-10
-7.6763e-13
-1.6671e-08
9.0255e-10
-7.3681e-13
1.0597e-09
-6.5906e-13
-8.1471e-09
5.865e-11
-1.1611e-12
-8.5924e-09
7.5351e-11
-1.166e-12
-9.0751e-09
9.5971e-11
-1.1435e-12
-9.6151e-09
1.2119e-10
-1.0752e-12
-1.023e-08
1.5133e-10
-9.7179e-13
-1.0935e-08
1.8675e-10
-8.6388e-13
-1.1746e-08
2.283e-10
-7.7402e-13
-1.2688e-08
2.7759e-10
-7.3365e-13
-1.3802e-08
3.3618e-10
-7.2385e-13
-1.5135e-08
4.047e-10
-7.086e-13
-1.6728e-08
4.8187e-10
-6.8042e-13
5.6485e-10
-6.2901e-13
-8.1494e-09
1.1361e-12
-1.14e-12
-8.5963e-09
1.2343e-12
-1.1297e-12
-9.0809e-09
1.3147e-12
-1.1031e-12
-9.6228e-09
1.3925e-12
-1.0451e-12
-1.024e-08
1.4329e-12
-9.6737e-13
-1.0946e-08
1.4128e-12
-8.7813e-13
-1.176e-08
1.3179e-12
-7.9668e-13
-1.2706e-08
1.15e-12
-7.4002e-13
-1.3825e-08
9.203e-13
-7.0072e-13
-1.5162e-08
6.7026e-13
-6.6283e-13
-1.6758e-08
3.918e-13
-6.2447e-13
1.2892e-13
-5.7727e-13
-8.1493e-09
-5.6425e-11
-1.1598e-12
-8.5962e-09
-7.2943e-11
-1.1418e-12
-9.0809e-09
-9.3415e-11
-1.1209e-12
-9.6227e-09
-1.1848e-10
-1.0845e-12
-1.024e-08
-1.4856e-10
-1.0422e-12
-1.0946e-08
-1.8402e-10
-9.816e-13
-1.176e-08
-2.2576e-10
-9.142e-13
-1.2707e-08
-2.7539e-10
-8.4797e-13
-1.3825e-08
-3.3445e-10
-7.9085e-13
-1.5162e-08
-4.0348e-10
-7.3792e-13
-1.6758e-08
-4.8121e-10
-6.9732e-13
-5.6473e-10
-6.6105e-13
-8.1468e-09
-1.0613e-10
-1.2929e-12
-8.5921e-09
-1.3696e-10
-1.2887e-12
-9.0748e-09
-1.7515e-10
-1.2994e-12
-9.615e-09
-2.2197e-10
-1.3218e-12
-1.023e-08
-2.7822e-10
-1.3533e-12
-1.0935e-08
-3.4461e-10
-1.3619e-12
-1.1746e-08
-4.2279e-10
-1.3582e-12
-1.2689e-08
-5.1567e-10
-1.3377e-12
-1.3803e-08
-6.2624e-10
-1.3234e-12
-1.5135e-08
-7.557e-10
-1.3325e-12
-1.6728e-08
-9.0189e-10
-1.3705e-12
-1.0595e-09
-1.4286e-12
-8.142e-09
-1.453e-10
-1.5082e-12
-8.584e-09
-1.8733e-10
-1.5199e-12
-9.063e-09
-2.3938e-10
-1.5731e-12
-9.5998e-09
-3.0338e-10
-1.6744e-12
-1.0212e-08
-3.8058e-10
-1.7944e-12
-1.0914e-08
-4.7205e-10
-1.9057e-12
-1.172e-08
-5.799e-10
-1.9832e-12
-1.2655e-08
-7.08e-10
-2.0359e-12
-1.3759e-08
-8.6058e-10
-2.0834e-12
-1.5084e-08
-1.0398e-09
-2.1713e-12
-1.6672e-08
-1.2431e-09
-2.3175e-12
-1.4638e-09
-2.5033e-12
-8.1399e-09
-1.6856e-12
-2.2372e-10
-8.5774e-09
-1.6619e-12
-2.8775e-10
-9.0516e-09
-1.7117e-12
-3.679e-10
-9.5845e-09
-1.865e-12
-4.6737e-10
-1.0194e-08
-2.0591e-12
-5.8758e-10
-1.0894e-08
-2.2421e-12
-7.2913e-10
-1.1694e-08
-2.3507e-12
-8.9483e-10
-1.2621e-08
-2.3858e-12
-1.0912e-09
-1.3715e-08
-2.3649e-12
-1.3268e-09
-1.5032e-08
-2.3731e-12
-1.6069e-09
-1.6619e-08
-2.4476e-12
-1.9282e-09
-2.6126e-12
-2.2778e-09
-8.1406e-09
1.4732e-10
-4.7028e-11
-2.2546e-10
-8.5782e-09
1.895e-10
-6.0375e-11
-2.8955e-10
-9.0523e-09
2.4163e-10
-7.717e-11
-3.697e-10
-9.585e-09
3.057e-10
-9.7703e-11
-4.6911e-10
-1.0195e-08
3.8297e-10
-1.218e-10
-5.8935e-10
-1.0893e-08
4.744e-10
-1.4936e-10
-7.3086e-10
-1.1694e-08
5.821e-10
-1.8116e-10
-8.9644e-10
-1.262e-08
7.1001e-10
-2.1911e-10
-1.0928e-09
-1.3714e-08
8.6228e-10
-2.6491e-10
-1.3283e-09
-1.5031e-08
1.0411e-09
-3.187e-10
-1.6081e-09
-1.6618e-08
1.2441e-09
-3.7838e-10
-1.9291e-09
1.4643e-09
-4.399e-10
-2.2785e-09
-8.1425e-09
1.0825e-10
-4.7426e-11
-8.5845e-09
1.3925e-10
-6.0909e-11
-9.0635e-09
1.7755e-10
-7.7646e-11
-9.6001e-09
2.2447e-10
-9.8033e-11
-1.0212e-08
2.8075e-10
-1.2217e-10
-1.0914e-08
3.4708e-10
-1.5032e-10
-1.1719e-08
4.2506e-10
-1.8334e-10
-1.2654e-08
5.1765e-10
-2.2281e-10
-1.3759e-08
6.2783e-10
-2.7005e-10
-1.5083e-08
7.5686e-10
-3.253e-10
-1.6671e-08
9.0254e-10
-3.8704e-10
1.0596e-09
-4.5238e-10
-8.1471e-09
5.8637e-11
-5.452e-11
-8.5924e-09
7.5347e-11
-6.9964e-11
-9.0751e-09
9.5958e-11
-8.9067e-11
-9.6152e-09
1.2115e-10
-1.124e-10
-1.023e-08
1.5125e-10
-1.4025e-10
-1.0935e-08
1.8664e-10
-1.7296e-10
-1.1746e-08
2.2818e-10
-2.1141e-10
-1.2688e-08
2.7749e-10
-2.572e-10
-1.3802e-08
3.3612e-10
-3.118e-10
-1.5135e-08
4.0469e-10
-3.7563e-10
-1.6728e-08
4.8188e-10
-4.4732e-10
5.6486e-10
-5.2401e-10
-8.1494e-09
1.1176e-12
-5.8814e-11
-8.5964e-09
1.2239e-12
-7.5451e-11
-9.081e-09
1.2986e-12
-9.6013e-11
-9.6228e-09
1.3528e-12
-1.2116e-10
-1.024e-08
1.3562e-12
-1.5126e-10
-1.0946e-08
1.3061e-12
-1.867e-10
-1.176e-08
1.1929e-12
-2.2838e-10
-1.2706e-08
1.0347e-12
-2.7792e-10
-1.3825e-08
8.2835e-13
-3.3689e-10
-1.5162e-08
5.9685e-13
-4.0584e-10
-1.6758e-08
3.2317e-13
-4.8347e-10
4.2117e-14
-5.6688e-10
-8.1493e-09
-5.6503e-11
-5.8806e-11
-8.5963e-09
-7.303e-11
-7.5436e-11
-9.0809e-09
-9.3526e-11
-9.6002e-11
-9.6228e-09
-1.1864e-10
-1.2116e-10
-1.024e-08
-1.4878e-10
-1.5127e-10
-1.0946e-08
-1.8431e-10
-1.8671e-10
-1.176e-08
-2.2612e-10
-2.2835e-10
-1.2706e-08
-2.758e-10
-2.7781e-10
-1.3825e-08
-3.3491e-10
-3.3666e-10
-1.5162e-08
-4.0402e-10
-4.0547e-10
-1.6758e-08
-4.8185e-10
-4.8297e-10
-5.6548e-10
-5.6627e-10
-8.1468e-09
-1.0623e-10
-5.4613e-11
-8.5921e-09
-1.3708e-10
-7.0064e-11
-9.0748e-09
-1.7529e-10
-8.9212e-11
-9.615e-09
-2.2218e-10
-1.1263e-10
-1.023e-08
-2.7851e-10
-1.4057e-10
-1.0935e-08
-3.4501e-10
-1.7331e-10
-1.1746e-08
-4.2327e-10
-2.1171e-10
-1.2689e-08
-5.1623e-10
-2.5734e-10
-1.3803e-08
-6.2689e-10
-3.1169e-10
-1.5135e-08
-7.5647e-10
-3.7526e-10
-1.6728e-08
-9.0279e-10
-4.467e-10
-1.0606e-09
-5.2318e-10
-8.142e-09
-1.4529e-10
-4.7805e-11
-8.584e-09
-1.8731e-10
-6.1344e-11
-9.063e-09
-2.3935e-10
-7.8202e-11
-9.5998e-09
-3.0339e-10
-9.8791e-11
-1.0212e-08
-3.8065e-10
-1.2315e-10
-1.0914e-08
-4.722e-10
-1.5147e-10
-1.172e-08
-5.8009e-10
-1.8453e-10
-1.2655e-08
-7.082e-10
-2.239e-10
-1.3759e-08
-8.6074e-10
-2.7095e-10
-1.5084e-08
-1.0399e-09
-3.2602e-10
-1.6671e-08
-1.2433e-09
-3.8759e-10
-1.464e-09
-4.5286e-10
-8.1399e-09
-4.7688e-11
-2.2359e-10
-8.5775e-09
-6.1111e-11
-2.8757e-10
-9.0516e-09
-7.8113e-11
-3.6768e-10
-9.5845e-09
-9.9002e-11
-4.672e-10
-1.0194e-08
-1.2343e-10
-5.8754e-10
-1.0894e-08
-1.5123e-10
-7.2922e-10
-1.1694e-08
-1.831e-10
-8.9499e-10
-1.2621e-08
-2.2097e-10
-1.0914e-09
-1.3715e-08
-2.6659e-10
-1.3268e-09
-1.5032e-08
-3.2025e-10
-1.6067e-09
-1.6619e-08
-3.7975e-10
-1.9277e-09
-4.413e-10
-2.2775e-09
-8.1379e-09
1.3897e-10
-8.8422e-11
-2.1107e-10
-8.5737e-09
1.7887e-10
-1.1386e-10
-2.7118e-10
-9.0457e-09
2.2827e-10
-1.46e-10
-3.4649e-10
-9.5765e-09
2.8889e-10
-1.8539e-10
-4.3992e-10
-1.0184e-08
3.6169e-10
-2.3157e-10
-5.5269e-10
-1.0881e-08
4.4755e-10
-2.8448e-10
-6.8484e-10
-1.1679e-08
5.4849e-10
-3.4563e-10
-8.3899e-10
-1.2601e-08
6.6847e-10
-4.1866e-10
-1.0219e-09
-1.369e-08
8.1147e-10
-5.0702e-10
-1.2415e-09
-1.5002e-08
9.7931e-10
-6.1119e-10
-1.5028e-09
-1.6586e-08
1.1693e-09
-7.2716e-10
-1.802e-09
1.3742e-09
-8.4703e-10
-2.1262e-09
-8.14e-09
1.0123e-10
-8.9046e-11
-8.5803e-09
1.3031e-10
-1.1465e-10
-9.0574e-09
1.6627e-10
-1.4649e-10
-9.5922e-09
2.1027e-10
-1.8535e-10
-1.0203e-08
2.6286e-10
-2.315e-10
-1.0903e-08
3.2466e-10
-2.8543e-10
-1.1705e-08
3.9723e-10
-3.4878e-10
-1.2636e-08
4.8353e-10
-4.2454e-10
-1.3736e-08
5.8638e-10
-5.1531e-10
-1.5057e-08
7.0682e-10
-6.2168e-10
-1.6642e-08
8.4248e-10
-7.4096e-10
9.8807e-10
-8.677e-10
-8.1447e-09
5.4372e-11
-1.0155e-10
-8.5883e-09
6.9916e-11
-1.3059e-10
-9.0692e-09
8.9092e-11
-1.6654e-10
-9.6075e-09
1.1249e-10
-2.1055e-10
-1.0221e-08
1.4035e-10
-2.6322e-10
-1.0924e-08
1.73e-10
-3.2517e-10
-1.1732e-08
2.1129e-10
-3.9803e-10
-1.2671e-08
2.5683e-10
-4.8477e-10
-1.378e-08
3.1107e-10
-5.8823e-10
-1.5108e-08
3.7449e-10
-7.0937e-10
-1.6699e-08
4.4573e-10
-8.4581e-10
5.2195e-10
-9.922e-10
-8.147e-09
1.1927e-12
-1.0849e-10
-8.5923e-09
1.3413e-12
-1.3945e-10
-9.0751e-09
1.447e-12
-1.7773e-10
-9.6151e-09
1.5177e-12
-2.2463e-10
-1.023e-08
1.5282e-12
-2.8095e-10
-1.0935e-08
1.4889e-12
-3.4737e-10
-1.1746e-08
1.4017e-12
-4.2554e-10
-1.2689e-08
1.3023e-12
-5.1843e-10
-1.3802e-08
1.1788e-12
-6.2902e-10
-1.5135e-08
1.0359e-12
-7.5853e-10
-1.6728e-08
8.5191e-13
-9.0473e-10
6.4382e-13
-1.0623e-09
-8.1469e-09
-5.2181e-11
-1.0849e-10
-8.5922e-09
-6.7491e-11
-1.3944e-10
-9.075e-09
-8.6525e-11
-1.7774e-10
-9.6151e-09
-1.0986e-10
-2.2468e-10
-1.023e-08
-1.3779e-10
-2.81e-10
-1.0935e-08
-1.7061e-10
-3.4741e-10
-1.1746e-08
-2.092e-10
-4.2552e-10
-1.2689e-08
-2.5508e-10
-5.1827e-10
-1.3802e-08
-3.0975e-10
-6.2867e-10
-1.5135e-08
-3.7366e-10
-7.5796e-10
-1.6728e-08
-4.4549e-10
-9.0395e-10
-5.2235e-10
-1.0614e-09
-8.1444e-09
-9.9286e-11
-1.0156e-10
-8.588e-09
-1.2821e-10
-1.3061e-10
-9.0689e-09
-1.6412e-10
-1.6661e-10
-9.6073e-09
-2.0816e-10
-2.1071e-10
-1.0221e-08
-2.6091e-10
-2.6342e-10
-1.0924e-08
-3.23e-10
-3.2532e-10
-1.1733e-08
-3.9597e-10
-3.9801e-10
-1.2671e-08
-4.8275e-10
-4.8438e-10
-1.378e-08
-5.8619e-10
-5.8731e-10
-1.5109e-08
-7.0734e-10
-7.0788e-10
-1.6699e-08
-8.4381e-10
-8.437e-10
-9.9031e-10
-9.8954e-10
-8.1394e-09
-1.3696e-10
-8.9259e-11
-8.5798e-09
-1.7668e-10
-1.1494e-10
-9.0569e-09
-2.2599e-10
-1.4689e-10
-9.5919e-09
-2.8664e-10
-1.8591e-10
-1.0203e-08
-3.5959e-10
-2.3214e-10
-1.0903e-08
-4.4568e-10
-2.8604e-10
-1.1706e-08
-5.4691e-10
-3.4918e-10
-1.2637e-08
-6.6719e-10
-4.245e-10
-1.3737e-08
-8.1053e-10
-5.147e-10
-1.5057e-08
-9.7882e-10
-6.2043e-10
-1.6642e-08
-1.1693e-09
-7.3895e-10
-1.3749e-09
-8.6509e-10
-8.1371e-09
-8.9037e-11
-2.0905e-10
-8.5729e-09
-1.1465e-10
-2.6891e-10
-9.0451e-09
-1.47e-10
-3.4417e-10
-9.576e-09
-1.8667e-10
-4.3779e-10
-1.0184e-08
-2.3307e-10
-5.5078e-10
-1.0882e-08
-2.8591e-10
-6.8327e-10
-1.168e-08
-3.4681e-10
-8.3771e-10
-1.2602e-08
-4.1951e-10
-1.0206e-09
-1.3691e-08
-5.0751e-10
-1.2401e-09
-1.5003e-08
-6.113e-10
-1.5013e-09
-1.6586e-08
-7.2659e-10
-1.8006e-09
-8.4621e-10
-2.1252e-09
-8.1323e-09
1.2266e-10
-9.4193e-11
-2.0987e-10
-8.5646e-09
1.582e-10
-1.2261e-10
-2.6894e-10
-9.0325e-09
2.0232e-10
-1.5852e-10
-3.4355e-10
-9.5594e-09
2.5629e-10
-2.0141e-10
-4.3716e-10
-1.0164e-08
3.2057e-10
-2.5018e-10
-5.5073e-10
-1.0858e-08
3.9588e-10
-3.0534e-10
-6.8341e-10
-1.165e-08
4.8432e-10
-3.7003e-10
-8.3674e-10
-1.2563e-08
5.8988e-10
-4.4918e-10
-1.0175e-09
-1.3642e-08
7.1629e-10
-5.4609e-10
-1.235e-09
-1.4944e-08
8.6472e-10
-6.5875e-10
-1.4964e-09
-1.6522e-08
1.032e-09
-7.8042e-10
-1.7988e-09
1.2104e-09
-9.0175e-10
-2.1271e-09
-8.1348e-09
8.8762e-11
-1.2287e-10
-8.5718e-09
1.1446e-10
-1.5831e-10
-9.045e-09
1.4632e-10
-2.024e-10
-9.5763e-09
1.8519e-10
-2.5633e-10
-1.0184e-08
2.3127e-10
-3.2063e-10
-1.088e-08
2.8509e-10
-3.9597e-10
-1.1678e-08
3.4815e-10
-4.846e-10
-1.2601e-08
4.2342e-10
-5.9061e-10
-1.3692e-08
5.1357e-10
-7.1776e-10
-1.5004e-08
6.1919e-10
-8.6702e-10
-1.6584e-08
7.3765e-10
-1.0351e-09
8.6351e-10
-1.2146e-09
-8.1399e-09
4.7422e-11
-1.3909e-10
-8.5802e-09
6.1084e-11
-1.7893e-10
-9.0573e-09
7.7958e-11
-2.2826e-10
-9.5922e-09
9.8464e-11
-2.8881e-10
-1.0203e-08
1.2266e-10
-3.6159e-10
-1.0903e-08
1.5083e-10
-4.4742e-10
-1.1705e-08
1.8376e-10
-5.485e-10
-1.2636e-08
2.2307e-10
-6.6884e-10
-1.3736e-08
2.7009e-10
-8.1237e-10
-1.5057e-08
3.2506e-10
-9.8082e-10
-1.6642e-08
3.865e-10
-1.1714e-09
4.5156e-10
-1.377e-09
-8.1424e-09
1.2992e-12
-1.4744e-10
-8.5844e-09
1.5167e-12
-1.8955e-10
-9.0634e-09
1.6733e-12
-2.4162e-10
-9.6001e-09
1.772e-12
-3.0564e-10
-1.0212e-08
1.7987e-12
-3.8289e-10
-1.0914e-08
1.7757e-12
-4.7434e-10
-1.1719e-08
1.7288e-12
-5.8216e-10
-1.2654e-08
1.7128e-12
-7.1027e-10
-1.3759e-08
1.7094e-12
-8.6285e-10
-1.5083e-08
1.698e-12
-1.0421e-09
-1.6671e-08
1.6419e-12
-1.2454e-09
1.5468e-12
-1.4659e-09
-8.1423e-09
-4.5025e-11
-1.4756e-10
-8.5843e-09
-5.8326e-11
-1.897e-10
-9.0633e-09
-7.4963e-11
-2.4185e-10
-9.6e-09
-9.5361e-11
-3.0599e-10
-1.0212e-08
-1.196e-10
-3.8332e-10
-1.0914e-08
-1.4789e-10
-4.7486e-10
-1.172e-08
-1.8103e-10
-5.827e-10
-1.2654e-08
-2.2053e-10
-7.1071e-10
-1.3759e-08
-2.6778e-10
-8.6311e-10
-1.5083e-08
-3.2305e-10
-1.0421e-09
-1.6671e-08
-3.8485e-10
-1.2453e-09
-4.5034e-10
-1.4658e-09
-8.1396e-09
-8.6738e-11
-1.3934e-10
-8.5799e-09
-1.1223e-10
-1.7925e-10
-9.0571e-09
-1.4401e-10
-2.2874e-10
-9.5921e-09
-1.8294e-10
-2.8956e-10
-1.0203e-08
-2.2919e-10
-3.6257e-10
-1.0903e-08
-2.832e-10
-4.4862e-10
-1.1706e-08
-3.4662e-10
-5.4971e-10
-1.2637e-08
-4.2239e-10
-6.6969e-10
-1.3737e-08
-5.1318e-10
-8.1262e-10
-1.5057e-08
-6.1957e-10
-9.8049e-10
-1.6642e-08
-7.3883e-10
-1.1705e-09
-8.6572e-10
-1.3755e-09
-8.1342e-09
-1.2073e-10
-1.2317e-10
-8.5713e-09
-1.5611e-10
-1.5873e-10
-9.0446e-09
-2.0018e-10
-2.0301e-10
-9.576e-09
-2.5423e-10
-2.5725e-10
-1.0184e-08
-3.1865e-10
-3.2176e-10
-1.0881e-08
-3.941e-10
-3.9716e-10
-1.1679e-08
-4.8285e-10
-4.8562e-10
-1.2602e-08
-5.8886e-10
-5.9116e-10
-1.3693e-08
-7.159e-10
-7.1757e-10
-1.5004e-08
-8.6513e-10
-8.6606e-10
-1.6585e-08
-1.0331e-09
-1.0332e-09
-1.2127e-09
-1.212e-09
-8.1315e-09
-9.4663e-11
-2.0796e-10
-8.5638e-09
-1.2346e-10
-2.6659e-10
-9.0318e-09
-1.5966e-10
-3.4102e-10
-9.559e-09
-2.0275e-10
-4.3487e-10
-1.0164e-08
-2.5158e-10
-5.4871e-10
-1.0858e-08
-3.0659e-10
-6.814e-10
-1.165e-08
-3.71e-10
-8.3481e-10
-1.2564e-08
-4.4972e-10
-1.0157e-09
-1.3643e-08
-5.4608e-10
-1.2336e-09
-1.4945e-08
-6.5824e-10
-1.4953e-09
-1.6523e-08
-7.7901e-10
-1.7979e-09
-9.001e-10
-2.1269e-09
-8.1257e-09
9.3981e-11
-1.2798e-10
-1.2788e-10
-8.5526e-09
1.2255e-10
-1.6594e-10
-1.6639e-10
-9.014e-09
1.5852e-10
-2.1463e-10
-2.1516e-10
-9.535e-09
2.0148e-10
-2.7378e-10
-2.744e-10
-1.0135e-08
2.5034e-10
-3.4209e-10
-3.4282e-10
-1.0824e-08
3.0546e-10
-4.1959e-10
-4.2025e-10
-1.1608e-08
3.6995e-10
-5.0961e-10
-5.103e-10
-1.2509e-08
4.4862e-10
-6.187e-10
-6.1961e-10
-1.3571e-08
5.4479e-10
-7.5312e-10
-7.5361e-10
-1.4858e-08
6.566e-10
-9.1209e-10
-9.1216e-10
-1.6426e-08
7.7733e-10
-1.0884e-09
-1.0874e-09
8.9764e-10
-1.2675e-09
-1.2671e-09
-8.1322e-09
8.8209e-11
-2.0975e-10
-8.5645e-09
1.1383e-10
-2.6867e-10
-9.0325e-09
1.4611e-10
-3.4317e-10
-9.5594e-09
1.8561e-10
-4.3667e-10
-1.0164e-08
2.3188e-10
-5.5005e-10
-1.0858e-08
2.8473e-10
-6.825e-10
-1.165e-08
3.4559e-10
-8.3563e-10
-1.2563e-08
4.182e-10
-1.0165e-09
-1.3642e-08
5.0602e-10
-1.2347e-09
-1.4944e-08
6.0952e-10
-1.4965e-09
-1.6522e-08
7.2478e-10
-1.7995e-09
8.4392e-10
-2.1286e-09
-8.1377e-09
4.7072e-11
-2.1101e-10
-8.5736e-09
6.072e-11
-2.7106e-10
-9.0456e-09
7.7781e-11
-3.4631e-10
-9.5764e-09
9.8511e-11
-4.3964e-10
-1.0184e-08
1.2266e-10
-5.5208e-10
-1.0881e-08
1.5017e-10
-6.8392e-10
-1.1679e-08
1.8187e-10
-8.3807e-10
-1.2601e-08
2.197e-10
-1.0212e-09
-1.369e-08
2.6529e-10
-1.2412e-09
-1.5002e-08
3.1886e-10
-1.5029e-09
-1.6586e-08
3.7827e-10
-1.8025e-09
4.3972e-10
-2.1276e-09
-8.1404e-09
1.3394e-12
-2.255e-10
-8.578e-09
1.6254e-12
-2.8948e-10
-9.0521e-09
1.8385e-12
-3.6953e-10
-9.5849e-09
1.9171e-12
-4.689e-10
-1.0195e-08
1.8912e-12
-5.8908e-10
-1.0894e-08
1.8337e-12
-7.3063e-10
-1.1694e-08
1.7653e-12
-8.963e-10
-1.262e-08
1.7579e-12
-1.0928e-09
-1.3714e-08
1.7305e-12
-1.3285e-09
-1.5031e-08
1.7252e-12
-1.6086e-09
-1.6618e-08
1.6659e-12
-1.9299e-09
1.5076e-12
-2.2793e-09
-8.1403e-09
-4.4524e-11
-2.2566e-10
-8.5779e-09
-5.762e-11
-2.8972e-10
-9.0521e-09
-7.4291e-11
-3.6989e-10
-9.5849e-09
-9.4883e-11
-4.6947e-10
-1.0195e-08
-1.1909e-10
-5.8985e-10
-1.0894e-08
-1.4674e-10
-7.3158e-10
-1.1694e-08
-1.786e-10
-8.9735e-10
-1.262e-08
-2.1657e-10
-1.0937e-09
-1.3715e-08
-2.6241e-10
-1.3291e-09
-1.5032e-08
-3.1625e-10
-1.6089e-09
-1.6619e-08
-3.7593e-10
-1.93e-09
-4.3758e-10
-2.2797e-09
-8.1374e-09
-8.5927e-11
-2.1153e-10
-8.5733e-09
-1.112e-10
-2.716e-10
-9.0454e-09
-1.4323e-10
-3.4708e-10
-9.5763e-09
-1.8267e-10
-4.4091e-10
-1.0184e-08
-2.2894e-10
-5.5399e-10
-1.0882e-08
-2.818e-10
-6.865e-10
-1.1679e-08
-3.4293e-10
-8.4087e-10
-1.2601e-08
-4.1603e-10
-1.0236e-09
-1.369e-08
-5.0452e-10
-1.2429e-09
-1.5003e-08
-6.0884e-10
-1.5039e-09
-1.6586e-08
-7.2482e-10
-1.8029e-09
-8.4505e-10
-2.1269e-09
-8.1316e-09
-9.1858e-11
-2.1038e-10
-8.564e-09
-1.204e-10
-2.6916e-10
-9.032e-09
-1.563e-10
-3.4387e-10
-9.5592e-09
-1.9913e-10
-4.3805e-10
-1.0164e-08
-2.478e-10
-5.5219e-10
-1.0858e-08
-3.0284e-10
-6.8502e-10
-1.165e-08
-3.6753e-10
-8.3834e-10
-1.2564e-08
-4.4673e-10
-1.019e-09
-1.3643e-08
-5.4372e-10
-1.2366e-09
-1.4945e-08
-6.5661e-10
-1.4978e-09
-1.6523e-08
-7.7818e-10
-1.8e-09
-9.0019e-10
-2.1283e-09
-8.1249e-09
-1.2577e-10
-1.2855e-10
-8.5518e-09
-1.6415e-10
-1.669e-10
-9.0133e-09
-2.1285e-10
-2.158e-10
-9.5346e-09
-2.7181e-10
-2.7537e-10
-1.0135e-08
-3.399e-10
-3.4402e-10
-1.0824e-08
-4.1718e-10
-4.2139e-10
-1.1609e-08
-5.073e-10
-5.1134e-10
-1.251e-08
-6.1661e-10
-6.206e-10
-1.3572e-08
-7.5126e-10
-7.5466e-10
-1.4859e-08
-9.1064e-10
-9.1351e-10
-1.6427e-08
-1.0865e-09
-1.089e-09
-1.2674e-09
-1.2687e-09
5.5068e-08
4.2317e-10
-1.0492e-09
1.4686e-12
4.9771e-08
3.4916e-10
-8.9265e-10
-3.1871e-13
4.5526e-08
2.8342e-10
-7.5839e-10
-2.467e-12
4.2084e-08
2.3272e-10
-6.381e-10
-4.2485e-12
3.9158e-08
1.9643e-10
-5.2409e-10
-6.1165e-12
3.6562e-08
1.6736e-10
-4.1711e-10
-7.5042e-12
3.4248e-08
1.3997e-10
-3.2743e-10
-8.1811e-12
3.2238e-08
1.1271e-10
-2.6007e-10
-8.3555e-12
3.052e-08
8.7249e-11
-2.0963e-10
-8.05e-12
2.9021e-08
6.715e-11
-1.7037e-10
-7.4763e-12
2.7633e-08
5.3075e-11
-1.3503e-10
-6.8046e-12
4.3599e-11
-1.0124e-10
-6.2582e-12
6.5798e-08
4.1778e-10
-2.1669e-09
5.9468e-08
3.5039e-10
-1.8195e-09
5.4349e-08
2.8735e-10
-1.5173e-09
5.0176e-08
2.3523e-10
-1.2617e-09
4.6636e-08
1.964e-10
-1.0404e-09
4.3518e-08
1.6672e-10
-8.4474e-10
4.0752e-08
1.4077e-10
-6.7643e-10
3.8344e-08
1.1562e-10
-5.3747e-10
3.6274e-08
9.1045e-11
-4.259e-10
3.446e-08
7.0074e-11
-3.3822e-10
3.2784e-08
5.4102e-11
-2.6738e-10
4.3461e-11
-2.0755e-10