/*--------------------------------*- C++ -*----------------------------------*\
| =========                 |                                                 |
| \\      /  F ield         | OpenFOAM: The Open Source CFD Toolbox           |
|  \\    /   O peration     | Version:  4.1                                   |
|   \\  /    A nd           | Web:      www.OpenFOAM.org                      |
|    \\/     M anipulation  |                                                 |
\*---------------------------------------------------------------------------*/
FoamFile
{
    version     2.0;
    format      ascii;
    class       pointVectorField;
    location    "0.0041";
    object      pointDisplacement_Next;
}
// * * * * * * * * * * * * * * * * * * * * * * * * * * * * * * * * * * * * * //

dimensions      [0 1 0 0 0 0 0];

internalField   uniform (0 0 0);

boundaryField
{
    inlet
    {
        type            fixedValue;
        value           nonuniform 0();
    }
    outlet
    {
        type            fixedValue;
        value           nonuniform 0();
    }
    mantle
    {
        type            fixedValue;
        value           nonuniform List<vector> 
416
(
(-5.6322e-05 -2.9831e-05 -2.4033e-10)
(-5.6159e-05 -2.4054e-05 1.3843e-10)
(-5.6169e-05 -2.361e-05 4.6754e-06)
(-5.6347e-05 -2.9231e-05 5.7629e-06)
(-5.6178e-05 -2.231e-05 9.234e-06)
(-5.6373e-05 -2.7561e-05 1.1396e-05)
(-5.6162e-05 -2.0187e-05 1.3507e-05)
(-5.6348e-05 -2.4943e-05 1.6705e-05)
(-5.6149e-05 -1.7234e-05 1.7233e-05)
(-5.6323e-05 -2.1328e-05 2.1328e-05)
(-5.6162e-05 -1.3507e-05 2.0188e-05)
(-5.6347e-05 -1.6705e-05 2.4944e-05)
(-5.6178e-05 -9.2345e-06 2.231e-05)
(-5.6373e-05 -1.1396e-05 2.7562e-05)
(-5.6168e-05 -4.6758e-06 2.3611e-05)
(-5.6346e-05 -5.7631e-06 2.9232e-05)
(-5.6158e-05 -3.3171e-10 2.4055e-05)
(-5.6322e-05 1.7688e-10 2.9832e-05)
(-5.5645e-05 -1.9228e-05 -3.1359e-10)
(-5.5646e-05 -1.8914e-05 3.7646e-06)
(-5.5641e-05 -1.7908e-05 7.4287e-06)
(-5.5634e-05 -1.6212e-05 1.0834e-05)
(-5.5627e-05 -1.3804e-05 1.3804e-05)
(-5.5634e-05 -1.0834e-05 1.6212e-05)
(-5.5641e-05 -7.4293e-06 1.7908e-05)
(-5.5645e-05 -3.7651e-06 1.8915e-05)
(-5.5645e-05 -3.4186e-12 1.9229e-05)
(-5.476e-05 -1.5554e-05 -3.6355e-10)
(-5.4758e-05 -1.5278e-05 3.031e-06)
(-5.4755e-05 -1.4453e-05 5.9845e-06)
(-5.4745e-05 -1.3095e-05 8.7592e-06)
(-5.4741e-05 -1.118e-05 1.118e-05)
(-5.4745e-05 -8.7598e-06 1.3095e-05)
(-5.4755e-05 -5.9852e-06 1.4453e-05)
(-5.4758e-05 -3.0317e-06 1.5279e-05)
(-5.476e-05 -6.6536e-11 1.5555e-05)
(-5.3482e-05 -1.2694e-05 -4.059e-10)
(-5.3485e-05 -1.2427e-05 2.4379e-06)
(-5.3489e-05 -1.1722e-05 4.8421e-06)
(-5.3472e-05 -1.0645e-05 7.1377e-06)
(-5.3463e-05 -9.1329e-06 9.1324e-06)
(-5.3472e-05 -7.1384e-06 1.0645e-05)
(-5.3489e-05 -4.8428e-06 1.1722e-05)
(-5.3484e-05 -2.4386e-06 1.2428e-05)
(-5.3481e-05 -9.8037e-11 1.2695e-05)
(-5.183e-05 -1.0284e-05 -4.3196e-10)
(-5.1831e-05 -1.0076e-05 1.9783e-06)
(-5.183e-05 -9.5103e-06 3.9313e-06)
(-5.1819e-05 -8.6353e-06 5.7901e-06)
(-5.1813e-05 -7.4033e-06 7.4028e-06)
(-5.1819e-05 -5.7909e-06 8.6352e-06)
(-5.183e-05 -3.9322e-06 9.5108e-06)
(-5.1831e-05 -1.9791e-06 1.0077e-05)
(-5.183e-05 -1.1071e-10 1.0286e-05)
(-4.9917e-05 -8.2066e-06 -4.375e-10)
(-4.9921e-05 -8.0541e-06 1.5895e-06)
(-4.9918e-05 -7.6072e-06 3.1508e-06)
(-4.9911e-05 -6.9163e-06 4.6331e-06)
(-4.9901e-05 -5.9147e-06 5.9142e-06)
(-4.9911e-05 -4.6339e-06 6.9164e-06)
(-4.9918e-05 -3.1517e-06 7.6079e-06)
(-4.9921e-05 -1.5903e-06 8.0554e-06)
(-4.9917e-05 -9.4665e-11 8.2085e-06)
(-4.7865e-05 -6.4756e-06 -1.01e-09)
(-4.7865e-05 -6.3551e-06 1.256e-06)
(-4.7865e-05 -6.0093e-06 2.4884e-06)
(-4.7856e-05 -5.4579e-06 3.6564e-06)
(-4.7853e-05 -4.6715e-06 4.672e-06)
(-4.7856e-05 -3.6571e-06 5.4581e-06)
(-4.7865e-05 -2.4893e-06 6.0102e-06)
(-4.7864e-05 -1.2568e-06 6.3567e-06)
(-4.7864e-05 5.4228e-10 6.4777e-06)
(-4.5708e-05 -5.0595e-06 -4.2256e-10)
(-4.571e-05 -4.9589e-06 9.7267e-07)
(-4.5713e-05 -4.6833e-06 1.9355e-06)
(-4.5704e-05 -4.2588e-06 2.8573e-06)
(-4.5699e-05 -3.6549e-06 3.6546e-06)
(-4.5704e-05 -2.858e-06 4.2591e-06)
(-4.5713e-05 -1.9363e-06 4.6843e-06)
(-4.571e-05 -9.7337e-07 4.9607e-06)
(-4.5708e-05 5.64e-11 5.0619e-06)
(-4.3448e-05 -3.9545e-06 -4.3017e-10)
(-4.3441e-05 -3.8806e-06 7.6452e-07)
(-4.3435e-05 -3.6714e-06 1.5188e-06)
(-4.3435e-05 -3.3364e-06 2.2357e-06)
(-4.3438e-05 -2.8585e-06 2.8584e-06)
(-4.3434e-05 -2.2362e-06 3.3369e-06)
(-4.3435e-05 -1.5194e-06 3.6726e-06)
(-4.3441e-05 -7.6508e-07 3.8825e-06)
(-4.3447e-05 2.0471e-10 3.9569e-06)
(-4.1074e-05 -3.1227e-06 -4.086e-10)
(-4.1066e-05 -3.0682e-06 6.0765e-07)
(-4.1056e-05 -2.905e-06 1.2044e-06)
(-4.1059e-05 -2.6392e-06 1.7681e-06)
(-4.1063e-05 -2.2581e-06 2.2581e-06)
(-4.1059e-05 -1.7685e-06 2.6397e-06)
(-4.1056e-05 -1.2049e-06 2.9063e-06)
(-4.1066e-05 -6.0804e-07 3.0702e-06)
(-4.1074e-05 3.4321e-10 3.1252e-06)
(-3.8598e-05 -2.5211e-06 -3.4676e-10)
(-3.8591e-05 -2.4727e-06 4.8812e-07)
(-3.8586e-05 -2.3374e-06 9.6789e-07)
(-3.8586e-05 -2.1247e-06 1.4241e-06)
(-3.859e-05 -1.8207e-06 1.8209e-06)
(-3.8586e-05 -1.4243e-06 2.1255e-06)
(-3.8586e-05 -9.6823e-07 2.3389e-06)
(-3.8591e-05 -4.8835e-07 2.4749e-06)
(-3.8598e-05 4.5458e-10 2.5238e-06)
(-3.605e-05 -2.0209e-06 -3.3354e-10)
(-3.6051e-05 -1.9739e-06 3.8589e-07)
(-3.6054e-05 -1.8607e-06 7.684e-07)
(-3.6048e-05 -1.6928e-06 1.1363e-06)
(-3.6046e-05 -1.4572e-06 1.4575e-06)
(-3.6048e-05 -1.1364e-06 1.6936e-06)
(-3.6054e-05 -7.6859e-07 1.8623e-06)
(-3.6051e-05 -3.8597e-07 1.9763e-06)
(-3.605e-05 6.1199e-10 2.0239e-06)
(-5.6168e-05 4.676e-06 2.3611e-05)
(-5.6346e-05 5.7635e-06 2.9232e-05)
(-5.6178e-05 9.2349e-06 2.2311e-05)
(-5.6373e-05 1.1396e-05 2.7562e-05)
(-5.6161e-05 1.3508e-05 2.0188e-05)
(-5.6347e-05 1.6706e-05 2.4944e-05)
(-5.6149e-05 1.7235e-05 1.7234e-05)
(-5.6323e-05 2.1329e-05 2.1329e-05)
(-5.6161e-05 2.0189e-05 1.3508e-05)
(-5.6347e-05 2.4945e-05 1.6706e-05)
(-5.6178e-05 2.2312e-05 9.2346e-06)
(-5.6373e-05 2.7563e-05 1.1396e-05)
(-5.6168e-05 2.3612e-05 4.6756e-06)
(-5.6346e-05 2.9233e-05 5.7631e-06)
(-5.6158e-05 2.4055e-05 -1.1859e-11)
(-5.6322e-05 2.9833e-05 -4.1052e-10)
(-5.5645e-05 3.7652e-06 1.8916e-05)
(-5.5641e-05 7.4296e-06 1.7909e-05)
(-5.5634e-05 1.0835e-05 1.6213e-05)
(-5.5627e-05 1.3805e-05 1.3805e-05)
(-5.5634e-05 1.6213e-05 1.0835e-05)
(-5.5641e-05 1.7909e-05 7.4291e-06)
(-5.5645e-05 1.8916e-05 3.7647e-06)
(-5.5645e-05 1.9229e-05 -4.5655e-10)
(-5.4758e-05 3.0316e-06 1.5279e-05)
(-5.4755e-05 5.9854e-06 1.4454e-05)
(-5.4745e-05 8.7602e-06 1.3096e-05)
(-5.4741e-05 1.1181e-05 1.118e-05)
(-5.4745e-05 1.3096e-05 8.7597e-06)
(-5.4755e-05 1.4453e-05 5.9848e-06)
(-5.4758e-05 1.5279e-05 3.0311e-06)
(-5.476e-05 1.5555e-05 -4.8285e-10)
(-5.3484e-05 2.4385e-06 1.2428e-05)
(-5.3489e-05 4.8429e-06 1.1723e-05)
(-5.3472e-05 7.1387e-06 1.0645e-05)
(-5.3463e-05 9.1333e-06 9.1329e-06)
(-5.3472e-05 1.0645e-05 7.1381e-06)
(-5.3489e-05 1.1722e-05 4.8422e-06)
(-5.3485e-05 1.2428e-05 2.4379e-06)
(-5.3481e-05 1.2695e-05 -5.1741e-10)
(-5.1831e-05 1.979e-06 1.0077e-05)
(-5.183e-05 3.9321e-06 9.5112e-06)
(-5.1819e-05 5.791e-06 8.6356e-06)
(-5.1813e-05 7.4034e-06 7.4031e-06)
(-5.1819e-05 8.6354e-06 5.7903e-06)
(-5.183e-05 9.5104e-06 3.9313e-06)
(-5.1831e-05 1.0076e-05 1.9783e-06)
(-5.183e-05 1.0284e-05 -5.3929e-10)
(-4.9921e-05 1.5902e-06 8.0555e-06)
(-4.9918e-05 3.1516e-06 7.608e-06)
(-4.9911e-05 4.6338e-06 6.9164e-06)
(-4.9901e-05 5.9145e-06 5.9142e-06)
(-4.9911e-05 6.9161e-06 4.633e-06)
(-4.9918e-05 7.607e-06 3.1507e-06)
(-4.9921e-05 8.0538e-06 1.5894e-06)
(-4.9917e-05 8.2064e-06 -5.4668e-10)
(-4.7864e-05 1.2568e-06 6.3566e-06)
(-4.7865e-05 2.4892e-06 6.01e-06)
(-4.7856e-05 3.6569e-06 5.4578e-06)
(-4.7853e-05 4.672e-06 4.6707e-06)
(-4.7856e-05 5.4574e-06 3.656e-06)
(-4.7865e-05 6.0087e-06 2.488e-06)
(-4.7865e-05 6.3544e-06 1.2558e-06)
(-4.7865e-05 6.475e-06 4.0926e-11)
(-4.571e-05 9.7348e-07 4.9605e-06)
(-4.5713e-05 1.9364e-06 4.6839e-06)
(-4.5704e-05 2.8577e-06 4.2585e-06)
(-4.5699e-05 3.6543e-06 3.6538e-06)
(-4.5704e-05 4.258e-06 2.8566e-06)
(-4.5713e-05 4.6824e-06 1.935e-06)
(-4.571e-05 4.9579e-06 9.7235e-07)
(-4.5708e-05 5.0586e-06 -5.2896e-10)
(-4.3441e-05 7.6542e-07 3.8822e-06)
(-4.3435e-05 1.5196e-06 3.672e-06)
(-4.3435e-05 2.2361e-06 3.336e-06)
(-4.3438e-05 2.858e-06 2.8574e-06)
(-4.3435e-05 3.3356e-06 2.2348e-06)
(-4.3436e-05 3.6704e-06 1.5181e-06)
(-4.3442e-05 3.8794e-06 7.6413e-07)
(-4.3448e-05 3.9534e-06 -5.2511e-10)
(-4.1066e-05 6.0867e-07 3.0699e-06)
(-4.1056e-05 1.2053e-06 2.9056e-06)
(-4.1059e-05 1.7686e-06 2.6388e-06)
(-4.1064e-05 2.2578e-06 2.2571e-06)
(-4.1059e-05 2.6386e-06 1.7672e-06)
(-4.1056e-05 2.9041e-06 1.2037e-06)
(-4.1066e-05 3.0672e-06 6.0725e-07)
(-4.1074e-05 3.1217e-06 -4.8921e-10)
(-3.8591e-05 4.8927e-07 2.4745e-06)
(-3.8586e-05 9.6899e-07 2.3383e-06)
(-3.8586e-05 1.4248e-06 2.1247e-06)
(-3.859e-05 1.8209e-06 1.82e-06)
(-3.8586e-05 2.1246e-06 1.4233e-06)
(-3.8586e-05 2.337e-06 9.6727e-07)
(-3.8591e-05 2.4722e-06 4.8776e-07)
(-3.8598e-05 2.5206e-06 -4.7162e-10)
(-3.6051e-05 3.8717e-07 1.9761e-06)
(-3.6054e-05 7.697e-07 1.8619e-06)
(-3.6048e-05 1.1373e-06 1.6931e-06)
(-3.6046e-05 1.4579e-06 1.4569e-06)
(-3.6048e-05 1.6932e-06 1.1358e-06)
(-3.6054e-05 1.8609e-06 7.6795e-07)
(-3.6051e-05 1.9741e-06 3.8563e-07)
(-3.605e-05 2.0211e-06 -3.8104e-10)
(-5.6168e-05 2.3611e-05 -4.6763e-06)
(-5.6346e-05 2.9233e-05 -5.7638e-06)
(-5.6178e-05 2.2311e-05 -9.235e-06)
(-5.6373e-05 2.7562e-05 -1.1397e-05)
(-5.6162e-05 2.0188e-05 -1.3508e-05)
(-5.6347e-05 2.4944e-05 -1.6706e-05)
(-5.6149e-05 1.7234e-05 -1.7234e-05)
(-5.6323e-05 2.1329e-05 -2.1329e-05)
(-5.6162e-05 1.3508e-05 -2.0188e-05)
(-5.6348e-05 1.6706e-05 -2.4944e-05)
(-5.6178e-05 9.2347e-06 -2.2311e-05)
(-5.6373e-05 1.1396e-05 -2.7562e-05)
(-5.6169e-05 4.676e-06 -2.3611e-05)
(-5.6347e-05 5.7635e-06 -2.9232e-05)
(-5.6159e-05 6.3423e-10 -2.4055e-05)
(-5.6322e-05 2.9743e-10 -2.9832e-05)
(-5.5645e-05 1.8915e-05 -3.7655e-06)
(-5.5641e-05 1.7908e-05 -7.4296e-06)
(-5.5634e-05 1.6212e-05 -1.0835e-05)
(-5.5627e-05 1.3804e-05 -1.3805e-05)
(-5.5634e-05 1.0834e-05 -1.6212e-05)
(-5.5642e-05 7.4293e-06 -1.7909e-05)
(-5.5646e-05 3.7652e-06 -1.8915e-05)
(-5.5645e-05 1.3556e-10 -1.9228e-05)
(-5.4758e-05 1.5278e-05 -3.032e-06)
(-5.4755e-05 1.4453e-05 -5.9854e-06)
(-5.4745e-05 1.3095e-05 -8.76e-06)
(-5.4741e-05 1.118e-05 -1.118e-05)
(-5.4745e-05 8.7596e-06 -1.3096e-05)
(-5.4755e-05 5.985e-06 -1.4453e-05)
(-5.4758e-05 3.0315e-06 -1.5279e-05)
(-5.4761e-05 5.7761e-11 -1.5555e-05)
(-5.3485e-05 1.2427e-05 -2.4388e-06)
(-5.3489e-05 1.1721e-05 -4.8429e-06)
(-5.3472e-05 1.0644e-05 -7.1384e-06)
(-5.3464e-05 9.1324e-06 -9.133e-06)
(-5.3472e-05 7.1379e-06 -1.0645e-05)
(-5.3489e-05 4.8425e-06 -1.1722e-05)
(-5.3485e-05 2.4383e-06 -1.2428e-05)
(-5.3482e-05 -1.012e-11 -1.2695e-05)
(-5.1831e-05 1.0075e-05 -1.9792e-06)
(-5.1831e-05 9.5096e-06 -3.932e-06)
(-5.1819e-05 8.6344e-06 -5.7906e-06)
(-5.1813e-05 7.4023e-06 -7.403e-06)
(-5.1819e-05 5.7901e-06 -8.6352e-06)
(-5.1831e-05 3.9315e-06 -9.5105e-06)
(-5.1831e-05 1.9787e-06 -1.0076e-05)
(-5.1831e-05 -2.9162e-11 -1.0285e-05)
(-4.9921e-05 8.0533e-06 -1.5903e-06)
(-4.9918e-05 7.606e-06 -3.1513e-06)
(-4.9912e-05 6.9149e-06 -4.6332e-06)
(-4.9901e-05 5.9132e-06 -5.9139e-06)
(-4.9912e-05 4.6326e-06 -6.9156e-06)
(-4.9918e-05 3.1508e-06 -7.6068e-06)
(-4.9921e-05 1.5898e-06 -8.0539e-06)
(-4.9917e-05 -5.7314e-12 -8.2067e-06)
(-4.7865e-05 6.3538e-06 -1.2567e-06)
(-4.7865e-05 6.0076e-06 -2.4886e-06)
(-4.7857e-05 5.4559e-06 -3.656e-06)
(-4.7853e-05 4.6704e-06 -4.6702e-06)
(-4.7857e-05 3.6555e-06 -5.4566e-06)
(-4.7865e-05 2.4881e-06 -6.0081e-06)
(-4.7865e-05 1.2562e-06 -6.3542e-06)
(-4.7865e-05 -5.1455e-10 -6.475e-06)
(-4.571e-05 4.9572e-06 -9.7322e-07)
(-4.5713e-05 4.6811e-06 -1.9354e-06)
(-4.5704e-05 4.2564e-06 -2.8565e-06)
(-4.5699e-05 3.6526e-06 -3.653e-06)
(-4.5704e-05 2.856e-06 -4.2569e-06)
(-4.5714e-05 1.935e-06 -4.6814e-06)
(-4.571e-05 9.728e-07 -4.9574e-06)
(-4.5708e-05 1.7318e-10 -5.0585e-06)
(-4.3442e-05 3.8787e-06 -7.6497e-07)
(-4.3436e-05 3.669e-06 -1.5185e-06)
(-4.3435e-05 3.3338e-06 -2.2346e-06)
(-4.3438e-05 2.8561e-06 -2.8564e-06)
(-4.3435e-05 2.2343e-06 -3.3341e-06)
(-4.3436e-05 1.5181e-06 -3.6692e-06)
(-4.3442e-05 7.6467e-07 -3.8787e-06)
(-4.3448e-05 3.1206e-10 -3.9531e-06)
(-4.1066e-05 3.0664e-06 -6.0804e-07)
(-4.1056e-05 2.9027e-06 -1.204e-06)
(-4.1059e-05 2.6367e-06 -1.7668e-06)
(-4.1064e-05 2.2558e-06 -2.2559e-06)
(-4.1059e-05 1.7667e-06 -2.6368e-06)
(-4.1056e-05 1.2038e-06 -2.9026e-06)
(-4.1066e-05 6.0789e-07 -3.0662e-06)
(-4.1075e-05 4.3427e-10 -3.1213e-06)
(-3.8592e-05 2.4714e-06 -4.8847e-07)
(-3.8586e-05 2.3356e-06 -9.6749e-07)
(-3.8586e-05 2.1227e-06 -1.4228e-06)
(-3.8591e-05 1.8188e-06 -1.8187e-06)
(-3.8586e-05 1.4228e-06 -2.1226e-06)
(-3.8586e-05 9.6749e-07 -2.3353e-06)
(-3.8592e-05 4.8848e-07 -2.471e-06)
(-3.8598e-05 5.8654e-10 -2.5199e-06)
(-3.6051e-05 1.9734e-06 -3.8621e-07)
(-3.6054e-05 1.8595e-06 -7.6807e-07)
(-3.6048e-05 1.6914e-06 -1.1352e-06)
(-3.6046e-05 1.4559e-06 -1.4556e-06)
(-3.6048e-05 1.1354e-06 -1.691e-06)
(-3.6054e-05 7.6825e-07 -1.859e-06)
(-3.6051e-05 3.864e-07 -1.9727e-06)
(-3.605e-05 6.6515e-10 -2.0202e-06)
(-5.6169e-05 -4.6755e-06 -2.3611e-05)
(-5.6347e-05 -5.7629e-06 -2.9232e-05)
(-5.6178e-05 -9.2342e-06 -2.2311e-05)
(-5.6373e-05 -1.1396e-05 -2.7562e-05)
(-5.6162e-05 -1.3507e-05 -2.0188e-05)
(-5.6348e-05 -1.6705e-05 -2.4944e-05)
(-5.6149e-05 -1.7234e-05 -1.7234e-05)
(-5.6323e-05 -2.1328e-05 -2.1328e-05)
(-5.6162e-05 -2.0187e-05 -1.3508e-05)
(-5.6348e-05 -2.4943e-05 -1.6706e-05)
(-5.6178e-05 -2.231e-05 -9.2347e-06)
(-5.6373e-05 -2.7561e-05 -1.1396e-05)
(-5.6169e-05 -2.361e-05 -4.676e-06)
(-5.6347e-05 -2.9231e-05 -5.7634e-06)
(-5.5646e-05 -3.7649e-06 -1.8915e-05)
(-5.5642e-05 -7.4289e-06 -1.7909e-05)
(-5.5634e-05 -1.0834e-05 -1.6212e-05)
(-5.5628e-05 -1.3804e-05 -1.3805e-05)
(-5.5634e-05 -1.6211e-05 -1.0834e-05)
(-5.5642e-05 -1.7908e-05 -7.4293e-06)
(-5.5646e-05 -1.8914e-05 -3.7653e-06)
(-5.4758e-05 -3.0314e-06 -1.5278e-05)
(-5.4756e-05 -5.9848e-06 -1.4453e-05)
(-5.4745e-05 -8.7592e-06 -1.3095e-05)
(-5.4742e-05 -1.118e-05 -1.118e-05)
(-5.4745e-05 -1.3095e-05 -8.7597e-06)
(-5.4755e-05 -1.4452e-05 -5.9851e-06)
(-5.4758e-05 -1.5278e-05 -3.0317e-06)
(-5.3485e-05 -2.4382e-06 -1.2428e-05)
(-5.3489e-05 -4.8422e-06 -1.1722e-05)
(-5.3472e-05 -7.1376e-06 -1.0645e-05)
(-5.3464e-05 -9.1319e-06 -9.1325e-06)
(-5.3472e-05 -1.0644e-05 -7.138e-06)
(-5.3489e-05 -1.1721e-05 -4.8426e-06)
(-5.3485e-05 -1.2427e-05 -2.4386e-06)
(-5.1831e-05 -1.9787e-06 -1.0076e-05)
(-5.1831e-05 -3.9314e-06 -9.51e-06)
(-5.1819e-05 -5.7898e-06 -8.6346e-06)
(-5.1813e-05 -7.402e-06 -7.4025e-06)
(-5.1819e-05 -8.6341e-06 -5.7903e-06)
(-5.1831e-05 -9.5095e-06 -3.9318e-06)
(-5.1831e-05 -1.0075e-05 -1.9791e-06)
(-4.9921e-05 -1.5897e-06 -8.0537e-06)
(-4.9918e-05 -3.1506e-06 -7.6064e-06)
(-4.9912e-05 -4.6324e-06 -6.9153e-06)
(-4.9901e-05 -5.913e-06 -5.9136e-06)
(-4.9912e-05 -6.9148e-06 -4.633e-06)
(-4.9918e-05 -7.6061e-06 -3.1512e-06)
(-4.9921e-05 -8.0534e-06 -1.5903e-06)
(-4.7865e-05 -1.2561e-06 -6.3541e-06)
(-4.7865e-05 -2.4879e-06 -6.008e-06)
(-4.7857e-05 -3.6554e-06 -5.4565e-06)
(-4.7853e-05 -4.6695e-06 -4.671e-06)
(-4.7857e-05 -5.456e-06 -3.6561e-06)
(-4.7865e-05 -6.0078e-06 -2.4887e-06)
(-4.7865e-05 -6.3543e-06 -1.2567e-06)
(-4.571e-05 -9.7249e-07 -4.9575e-06)
(-4.5714e-05 -1.9348e-06 -4.6816e-06)
(-4.5704e-05 -2.8559e-06 -4.257e-06)
(-4.5699e-05 -3.6526e-06 -3.6533e-06)
(-4.5704e-05 -4.2566e-06 -2.8568e-06)
(-4.5713e-05 -4.6816e-06 -1.9357e-06)
(-4.571e-05 -4.958e-06 -9.7333e-07)
(-4.3442e-05 -7.6412e-07 -3.8788e-06)
(-4.3436e-05 -1.5177e-06 -3.6695e-06)
(-4.3435e-05 -2.234e-06 -3.3344e-06)
(-4.3438e-05 -2.856e-06 -2.8568e-06)
(-4.3435e-05 -3.334e-06 -2.235e-06)
(-4.3436e-05 -3.6696e-06 -1.5188e-06)
(-4.3441e-05 -3.8796e-06 -7.6515e-07)
(-4.1066e-05 -6.0708e-07 -3.0664e-06)
(-4.1056e-05 -1.2031e-06 -2.903e-06)
(-4.1059e-05 -1.7662e-06 -2.6372e-06)
(-4.1064e-05 -2.2555e-06 -2.2564e-06)
(-4.1059e-05 -2.6367e-06 -1.7673e-06)
(-4.1056e-05 -2.903e-06 -1.2044e-06)
(-4.1066e-05 -3.0672e-06 -6.0824e-07)
(-3.8592e-05 -4.8741e-07 -2.4711e-06)
(-3.8586e-05 -9.6652e-07 -2.3356e-06)
(-3.8586e-05 -1.422e-06 -2.1229e-06)
(-3.8591e-05 -1.8182e-06 -1.8191e-06)
(-3.8586e-05 -2.1223e-06 -1.4232e-06)
(-3.8586e-05 -2.3355e-06 -9.6784e-07)
(-3.8591e-05 -2.4716e-06 -4.8865e-07)
(-3.6051e-05 -3.851e-07 -1.9728e-06)
(-3.6054e-05 -7.67e-07 -1.8592e-06)
(-3.6048e-05 -1.1342e-06 -1.6912e-06)
(-3.6046e-05 -1.4548e-06 -1.4558e-06)
(-3.6048e-05 -1.6905e-06 -1.1355e-06)
(-3.6054e-05 -1.8588e-06 -7.6831e-07)
(-3.6051e-05 -1.9729e-06 -3.8635e-07)
)
;
    }
    procBoundary2to1
    {
        type            processor;
    }
    procBoundary2to3
    {
        type            processor;
    }
}


// ************************************************************************* //
