/*--------------------------------*- C++ -*----------------------------------*\
  =========                 |
  \\      /  F ield         | OpenFOAM: The Open Source CFD Toolbox
   \\    /   O peration     | Website:  https://openfoam.org
    \\  /    A nd           | Version:  8
     \\/     M anipulation  |
\*---------------------------------------------------------------------------*/
FoamFile
{
    version     2.0;
    format      ascii;
    class       surfaceScalarField;
    location    "0.0140000";
    object      meshPhi;
}
// * * * * * * * * * * * * * * * * * * * * * * * * * * * * * * * * * * * * * //

dimensions      [0 3 -1 0 0 0 0];

internalField   nonuniform List<scalar> 
1691
(
-5.77377633845774e-19
-5.39631575278399e-14
-1.15771698785135e-18
-5.39725185792909e-14
-1.74370214417131e-18
-5.401302361218e-14
-2.3256535699072e-18
-5.40172677154504e-14
-2.88509847345871e-18
-5.38623617931382e-14
-3.39406585619697e-18
-5.35412552857765e-14
-3.97284593270974e-18
-5.33611975908823e-14
-4.63236577509876e-18
-5.35552070941369e-14
-5.28442946188059e-18
-5.39010859948384e-14
-5.89613631352981e-18
-5.41093753049641e-14
-6.498991389101e-18
-5.41780244629788e-14
-7.12050772204225e-18
-5.42274611960689e-14
-7.74733333596098e-18
-5.42934596973451e-14
-8.35702415542516e-18
-5.43302742577399e-14
-8.94564338235044e-18
-5.43093890744133e-14
-9.5306030899245e-18
-5.42463719328517e-14
-1.0098921425091e-17
-5.41605464762335e-14
-1.06852098475199e-17
-5.41007912831236e-14
-1.13333553246979e-17
-5.40827299854752e-14
-1.18300865019857e-17
-5.39854599485663e-14
-1.23266677223125e-17
-5.37954712251379e-14
-1.29980250627075e-17
-5.3797181272302e-14
-1.40144929371035e-17
-5.42104905854372e-14
-1.49688287940343e-17
-5.48195406094759e-14
-1.57636790333354e-17
-5.52545930350171e-14
-1.63927833494462e-17
-5.534503223409e-14
-1.6693137477026e-17
-5.50583621549946e-14
-1.70649888712091e-17
-5.46981597006916e-14
-1.81148109198079e-17
-5.47741862460699e-14
-1.9104461943597e-17
-5.52332479299075e-14
-1.99657655214171e-17
-5.56339631622892e-14
-2.0701360675304e-17
-5.58247429063345e-14
-2.13863447091899e-17
-5.59087089748134e-14
-2.22504924229769e-17
-5.60582167143502e-14
-2.32407472867359e-17
-5.63293673931533e-14
-2.40248962522541e-17
-5.65560470960789e-14
-2.47021554876549e-17
-5.66219371108755e-14
-2.53714653416634e-17
-5.66075038725928e-14
-2.61590815052267e-17
-5.66643158532827e-14
-2.71899543382035e-17
-5.68696890575829e-14
-2.80481459837207e-17
-5.70693472746506e-14
-2.84842465855445e-17
-5.69951354204056e-14
-2.8729755777052e-17
-5.66915184756923e-14
-2.95860576553505e-17
-5.65851416292996e-14
-3.09359008655495e-17
-5.68885904666837e-14
-3.20360678046987e-17
-5.73762640173537e-14
-3.35047165077224e-17
-5.79279883670248e-14
-3.49192780229599e-17
-5.84885281317193e-14
-3.57109377544259e-17
-5.88126464357755e-14
-3.65254532744166e-17
-5.89071487973187e-14
-3.75777118710505e-17
-5.90499316485339e-14
-3.88014216775066e-17
-5.93347954212261e-14
-3.99818131524327e-17
-5.96845034933312e-14
-4.13486133155545e-17
-6.0095919024429e-14
-4.29500626083571e-17
-6.06408743222378e-14
-4.48579030326217e-17
-6.14103156427986e-14
-4.73988882604477e-17
-6.24517194737699e-14
-4.9468755977495e-17
-6.34036793418053e-14
-5.09233468742616e-17
-6.45248571612529e-14
-5.86992025694823e-17
-6.71844959602988e-14
-6.42969565970232e-17
-7.05893482984187e-14
-6.47955259320914e-17
-7.22812213682407e-14
-6.63865096218227e-17
-7.26394022267724e-14
-7.01363785422175e-17
-7.37224590830978e-14
-7.66687288533913e-17
-7.6605936687669e-14
-8.78362330528242e-17
-8.15567782042166e-14
-9.85551047488253e-17
-8.75926778545259e-14
-1.07739680575766e-16
-9.30755424933082e-14
-1.15425606615462e-16
-9.77124174593369e-14
-1.26331293863457e-16
-1.0266742036232e-13
-1.38955884924451e-16
-1.08722370529387e-13
-1.53434799896749e-16
-1.16100882003442e-13
-1.74602210948076e-16
-1.25735479550099e-13
-2.00255951844276e-16
-1.38009803958801e-13
-2.25081695274164e-16
-1.50559451326774e-13
-2.41560155827809e-16
-1.61974360511366e-13
-2.79222920037713e-16
-1.76530772713383e-13
-3.25122167945307e-16
-1.96737267232189e-13
-3.64332933299847e-16
-2.17805883425126e-13
-3.99495932912221e-16
-2.36657032562286e-13
-4.44903238883931e-16
-2.567550256041e-13
-5.01705286836454e-16
-2.80052516434876e-13
-5.40631146470166e-16
-3.01495443087737e-13
-5.69745364819546e-16
-3.1677813471019e-13
-5.95167476975495e-16
-3.28030400191327e-13
-6.15950443205809e-16
-3.3712931748113e-13
-5.6954810404702e-16
-3.40649524463431e-13
-5.06001922264268e-16
-3.34080678950913e-13
-4.29488789897918e-16
-3.17702015514302e-13
-3.61080047995906e-16
-2.97175599240317e-13
-3.06484612581829e-16
-2.79523613212505e-13
-2.63303525436693e-16
-2.6753443291949e-13
-2.2323480282583e-16
-2.5932616283547e-13
-1.86378572817713e-16
-2.52788891823537e-13
-1.53065124900248e-16
-2.48576222062907e-13
-1.24510950586237e-16
-2.49000875778109e-13
-9.73350981716338e-17
-2.55521416289983e-13
-6.97356287318307e-17
-2.69582847126296e-13
-3.84134183016641e-17
-2.89141961289817e-13
-3.03896725023382e-13
-1.74234039651083e-18
-1.08849408782712e-13
-3.48438944780816e-18
-1.08770537786565e-13
-5.22675753026388e-18
-1.08720977014348e-13
-6.96258034940969e-18
-1.08639445838603e-13
-8.67129315594133e-18
-1.08417129158374e-13
-1.03555783664521e-17
-1.08048115869667e-13
-1.207680236161e-17
-1.07804245451568e-13
-1.3856580373183e-17
-1.07891363229517e-13
-1.56378564258218e-17
-1.08112427279506e-13
-1.73877998312398e-17
-1.08211548136715e-13
-1.9124559335208e-17
-1.08187182416059e-13
-2.08687051581827e-17
-1.0814583086358e-13
-2.26140707921052e-17
-1.08119095444149e-13
-2.43435452279653e-17
-1.08066506068589e-13
-2.60546056369541e-17
-1.07962842567145e-13
-2.77527873169142e-17
-1.07821920385669e-13
-2.94402100283792e-17
-1.0766088756459e-13
-3.11473104738922e-17
-1.07522883855206e-13
-3.2857096618816e-17
-1.07421759584789e-13
-3.44948771885888e-17
-1.07250515604426e-13
-3.61180725846686e-17
-1.06997369142026e-13
-3.79079825775932e-17
-1.06913898125157e-13
-3.99027727846845e-17
-1.07194130774938e-13
-4.19038502029212e-17
-1.07646868107077e-13
-4.37689720620365e-17
-1.07945384364099e-13
-4.54457764980419e-17
-1.07939591009903e-13
-4.69106767803796e-17
-1.07600859901299e-13
-4.8485110259265e-17
-1.0719711916406e-13
-5.04245395328828e-17
-1.07179074415932e-13
-5.24532657433095e-17
-1.074991225639e-13
-5.43503258033282e-17
-1.07767026836239e-13
-5.61412250111478e-17
-1.07849611687229e-13
-5.79113167026279e-17
-1.07837895758782e-13
-5.97963109594211e-17
-1.07884069815361e-13
-6.17438249146799e-17
-1.08037700444562e-13
-6.35808250960716e-17
-1.08151865320512e-13
-6.53059189072573e-17
-1.08123959328301e-13
-6.70245128415338e-17
-1.08025202414469e-13
-6.88572928977468e-17
-1.07989256395295e-13
-7.08142886857216e-17
-1.08084548115807e-13
-7.26478088029745e-17
-1.08174903770437e-13
-7.41556592642069e-17
-1.08023435199373e-13
-7.55886418836779e-17
-1.07669398147904e-13
-7.74206391763524e-17
-1.07489457191617e-13
-7.95774558371767e-17
-1.07671114459519e-13
-8.1765181614759e-17
-1.08014632468465e-13
-8.40786313349324e-17
-1.0841407214737e-13
-8.63230563426985e-17
-1.08822112120897e-13
-8.82120366376435e-17
-1.09021556161516e-13
-9.00222571720281e-17
-1.09017963894194e-13
-9.2016599537192e-17
-1.09057119179767e-13
-9.41293392563609e-17
-1.09221220464919e-13
-9.62797851567185e-17
-1.09442430474656e-13
-9.85511008798884e-17
-1.09717852812986e-13
-1.01025039530292e-16
-1.1011027570168e-13
-1.03840420316149e-16
-1.10699951014352e-13
-1.06993242888093e-16
-1.11529241816029e-13
-1.0967404041522e-16
-1.12279437659704e-13
-1.13307333013897e-16
-1.13175037589283e-13
-1.19786296295443e-16
-1.15425792640256e-13
-1.25422610101182e-16
-1.18334774986258e-13
-1.27897753526425e-16
-1.19732518647838e-13
-1.30328143739404e-16
-1.19956733991016e-13
-1.34701878799247e-16
-1.20819137270484e-13
-1.41902444871658e-16
-1.23261263393397e-13
-1.51965814672433e-16
-1.27520023647927e-13
-1.62453059987144e-16
-1.32732033555278e-13
-1.71476987259684e-16
-1.37455932539549e-13
-1.80070824135382e-16
-1.41434950173788e-13
-1.90369576436443e-16
-1.45692231013338e-13
-2.02483363621573e-16
-1.50913776151064e-13
-2.17080380380419e-16
-1.57294013094404e-13
-2.3638758920072e-16
-1.65651382388731e-13
-2.59564732402606e-16
-1.76321677210671e-13
-2.80639079525944e-16
-1.87230605240851e-13
-3.01393435954321e-16
-1.97150754372284e-13
-3.33124202673548e-16
-2.0981720840599e-13
-3.72629973276333e-16
-2.274157928351e-13
-4.08646403882268e-16
-2.45774735603135e-13
-4.4278350246755e-16
-2.62207484738694e-13
-4.84400941963653e-16
-2.797254355657e-13
-5.30558085969226e-16
-3.00002342987738e-13
-5.67839581425669e-16
-3.18674367346006e-13
-5.95064085785207e-16
-3.31986424077928e-13
-6.19873065817613e-16
-3.41750834935797e-13
-6.3380271117068e-16
-3.49585464663512e-13
-5.87181994504244e-16
-3.52609060936608e-13
-5.23944710681767e-16
-3.46841238400606e-13
-4.52791894926353e-16
-3.32522330599943e-13
-3.86414992061094e-16
-3.14565713259011e-13
-3.31578459998178e-16
-2.99097360554967e-13
-2.85649051480491e-16
-2.88585997926521e-13
-2.43829082587248e-16
-2.81392174138612e-13
-2.0463186475253e-16
-2.75658652670392e-13
-1.68991697571033e-16
-2.71942162527627e-13
-1.36827164456943e-16
-2.72294814133926e-13
-1.06173934856462e-16
-2.77984118528521e-13
-7.52892678376384e-17
-2.9027369526002e-13
-4.01973896164259e-17
-3.07553740941785e-13
-3.20646270254658e-13
-2.93299601664322e-18
-1.64984679023375e-13
-5.8615188171839e-18
-1.64799067113782e-13
-8.78615691751736e-18
-1.64644627737501e-13
-1.17008637058888e-17
-1.64462962871022e-13
-1.45876654677507e-17
-1.64159511989616e-13
-1.74489255747644e-17
-1.63729286352657e-13
-2.03383811593177e-17
-1.6340730416924e-13
-2.32749093023504e-17
-1.6337171405925e-13
-2.62085843555767e-17
-1.63452276102537e-13
-2.9110649765213e-17
-1.63427490266447e-13
-3.19969767190671e-17
-1.6329576169932e-13
-3.48855758236089e-17
-1.63149155578766e-13
-3.77710594803271e-17
-1.63015104931183e-13
-4.06384375723984e-17
-1.62858681494881e-13
-4.3485517395982e-17
-1.62658074970572e-13
-4.63171162975006e-17
-1.62425193369792e-13
-4.91351613373619e-17
-1.62174904186227e-13
-5.1966192970944e-17
-1.61944519320091e-13
-5.4795430957597e-17
-1.61745993272792e-13
-5.75574229106224e-17
-1.61486905192078e-13
-6.0302589824893e-17
-1.61157081600172e-13
-6.31894016668187e-17
-1.60973930521878e-13
-6.6251199323164e-17
-1.61105083915492e-13
-6.93141718307799e-17
-1.6138543152063e-13
-7.22540358873112e-17
-1.61532639643689e-13
-7.50250517886333e-17
-1.61416722379922e-13
-7.76066400385111e-17
-1.61013041543704e-13
-8.027966072874e-17
-1.60553092993706e-13
-8.32677546234617e-17
-1.60426032423871e-13
-8.63294595085193e-17
-1.60591117656727e-13
-8.92719577706736e-17
-1.60711483645322e-13
-9.21174333983988e-17
-1.60671780122992e-13
-9.49404594548092e-17
-1.60550476004135e-13
-9.7859670335912e-17
-1.60479029953356e-13
-1.00829351208472e-16
-1.60500322309841e-13
-1.03698124031511e-16
-1.60487599964075e-13
-1.06464988736454e-16
-1.60352255323377e-13
-1.09221845809586e-16
-1.60155640838985e-13
-1.12074167305165e-16
-1.6001308133007e-13
-1.15030899383066e-16
-1.59983734649212e-13
-1.1787568677106e-16
-1.59950284061751e-13
-1.20431761127444e-16
-1.59708299774725e-13
-1.22918116047741e-16
-1.59291431652174e-13
-1.25748596253487e-16
-1.59024502453941e-13
-1.28858421144452e-16
-1.59069373334285e-13
-1.31990543385501e-16
-1.59253997789381e-13
-1.35227896019103e-16
-1.5948667880144e-13
-1.38402331609083e-16
-1.59727205147159e-13
-1.41260863567541e-16
-1.59788028618416e-13
-1.4404681253235e-16
-1.5967326929993e-13
-1.46988830158555e-16
-1.59595222151627e-13
-1.50029739796527e-16
-1.59624715487039e-13
-1.53099383018002e-16
-1.59703413342147e-13
-1.56269849586646e-16
-1.59828772192083e-13
-1.59612138967086e-16
-1.60054780939202e-13
-1.63247574855661e-16
-1.60450493083589e-13
-1.67173059920428e-16
-1.61052463762108e-13
-1.7068229847129e-16
-1.61586303575041e-13
-1.75012439791507e-16
-1.62244628272032e-13
-1.81821997522911e-16
-1.64068674120471e-13
-1.87892629062743e-16
-1.66460131822699e-13
-1.91202860459408e-16
-1.67551932006269e-13
-1.94470919266228e-16
-1.67632541899196e-13
-1.99423541610651e-16
-1.68260347649728e-13
-2.06828945932687e-16
-1.70246153593799e-13
-2.16722702587077e-16
-1.73794193482474e-13
-2.26979216458705e-16
-1.78162483680534e-13
-2.35957150315275e-16
-1.82111167543473e-13
-2.44553575939898e-16
-1.85418115824282e-13
-2.54626754706958e-16
-1.88962480744639e-13
-2.66270005730138e-16
-1.93334159819087e-13
-2.80062778745511e-16
-1.98699770924118e-13
-2.97940711591482e-16
-2.05762136640541e-13
-3.1917349405806e-16
-2.14810870989377e-13
-3.38573347331357e-16
-2.24064630137856e-13
-3.57697296929497e-16
-2.32465720630085e-13
-3.86318182658937e-16
-2.43219232355151e-13
-4.21676258237008e-16
-2.5820557495059e-13
-4.54016889112375e-16
-2.73845000752073e-13
-4.84726884955306e-16
-2.87826788677501e-13
-5.21894025380636e-16
-3.02732983026129e-13
-5.62942314524129e-16
-3.20003215404331e-13
-5.96368828185738e-16
-3.35894250076393e-13
-6.21034894162272e-16
-3.47181087908159e-13
-6.43588421156153e-16
-3.55417710372696e-13
-6.55509110627837e-16
-3.62008976063113e-13
-6.0747915539634e-16
-3.64595967236627e-13
-5.45087997870423e-16
-3.59646617976341e-13
-4.75854593250658e-16
-3.47367473503218e-13
-4.10724518028909e-16
-3.31964898789244e-13
-3.55596441679272e-16
-3.18694309865324e-13
-3.08199161945695e-16
-3.09675422136197e-13
-2.64370304981876e-16
-3.03502884440448e-13
-2.22811998275683e-16
-2.98583633295906e-13
-1.84332381999554e-16
-2.95394822850689e-13
-1.48883174202724e-16
-2.95696860637614e-13
-1.14735907618388e-16
-3.00577356270711e-13
-8.03985642717039e-17
-3.11120734015053e-13
-4.24331965638965e-17
-3.2594532906614e-13
-3.37166854135836e-13
-4.1499757481917e-18
-2.22340796158073e-13
-8.29067894792045e-18
-2.22030768164931e-13
-1.24226848925881e-17
-2.21757409972682e-13
-1.65407898226332e-17
-2.21461931922695e-13
-2.06296802396862e-17
-2.21064132395703e-13
-2.46913278751353e-17
-2.20559573332804e-13
-2.87716082980179e-17
-2.20145641508767e-13
-3.28867439526149e-17
-2.19972639903641e-13
-3.69941325083787e-17
-2.19897927933666e-13
-4.10691362349069e-17
-2.19734940863366e-13
-4.51252665642759e-17
-2.19481850666267e-13
-4.91778867717315e-17
-2.19216000835158e-13
-5.32224620084786e-17
-2.18960641407934e-13
-5.72461710280557e-17
-2.18686518423875e-13
-6.12471617595453e-17
-2.18375267201492e-13
-6.52294969278817e-17
-2.18036827547593e-13
-6.91948619130583e-17
-2.17683696913892e-13
-7.31658797572529e-17
-2.17347263765461e-13
-7.71300111533487e-17
-2.17037681412372e-13
-8.10313761198319e-17
-2.16677331276127e-13
-8.49129202264291e-17
-2.16257394340092e-13
-8.89098338554814e-17
-2.159604077791e-13
-9.30506961982976e-17
-2.15927527543642e-13
-9.71874020256196e-17
-2.1602046876191e-13
-1.0121372218882e-16
-2.16001957538224e-13
-1.05090491988229e-16
-2.15762383140648e-13
-1.08800275827579e-16
-2.15280884663029e-13
-1.12582268486914e-16
-2.14751588891815e-13
-1.16627407732696e-16
-2.14501384429405e-13
-1.20730309154944e-16
-2.14496888663439e-13
-1.24726312677016e-16
-2.14455400841312e-13
-1.28634044233468e-16
-2.14279513706029e-13
-1.32517091092604e-16
-2.14034858849482e-13
-1.36476615931845e-16
-2.13831857056977e-13
-1.40473844811294e-16
-2.1370675014044e-13
-1.4437976766401e-16
-2.13553313939072e-13
-1.48193386340982e-16
-2.13297010057168e-13
-1.51992851136612e-16
-2.12989071523598e-13
-1.55868115366986e-16
-2.12726248347864e-13
-1.59826990565057e-16
-2.12558426502409e-13
-1.63685437951843e-16
-2.12387502375957e-13
-1.67292511396051e-16
-2.1204187037691e-13
-1.70834475161063e-16
-2.11549266348936e-13
-1.74663704644066e-16
-2.11181938260298e-13
-1.78725545040735e-16
-2.11076007163487e-13
-1.82801164724329e-16
-2.11087539369581e-13
-1.86960485612924e-16
-2.11139313597166e-13
-1.91062216066699e-16
-2.11198144825768e-13
-1.9488866976765e-16
-2.11106581787425e-13
-1.9864784357321e-16
-2.10867343402252e-13
-2.02534068604651e-16
-2.10658631389658e-13
-2.06498991906091e-16
-2.105398838085e-13
-2.10482935469125e-16
-2.10462382722183e-13
-2.14547087336964e-16
-2.10423938977055e-13
-2.18751677723741e-16
-2.10469642732481e-13
-2.23199844078819e-16
-2.1065726409517e-13
-2.27889277627091e-16
-2.11017608019598e-13
-2.32219315936139e-16
-2.11320935320378e-13
-2.37239555835418e-16
-2.11727452624891e-13
-2.44361194458575e-16
-2.13108832402593e-13
-2.50852844918432e-16
-2.14966686582429e-13
-2.54993507008731e-16
-2.15738329622784e-13
-2.5908916590092e-16
-2.15662200991782e-13
-2.64608241821405e-16
-2.16041559772946e-13
-2.72203674047552e-16
-2.1755566223796e-13
-2.81906808871127e-16
-2.2037614357724e-13
-2.91913949722454e-16
-2.2388345971868e-13
-3.00829566411654e-16
-2.27040445797063e-13
-3.09412893168096e-16
-2.29659752554179e-13
-3.19241547291987e-16
-2.32475701131223e-13
-3.30394725974619e-16
-2.35981609860839e-13
-3.43362436828103e-16
-2.40316278551941e-13
-3.59786630104482e-16
-2.46066489532487e-13
-3.79051629655818e-16
-2.53475590045526e-13
-3.96756553980235e-16
-2.61056579397255e-13
-4.14211479645221e-16
-2.67922399380488e-13
-4.39702272720089e-16
-2.76746375006231e-13
-4.70900755282174e-16
-2.8910243620409e-13
-4.99535560697885e-16
-3.02004833738647e-13
-5.26770169504846e-16
-3.13520218188789e-13
-5.59458875424154e-16
-3.25800411745383e-13
-5.95428805867387e-16
-3.40050166685017e-13
-6.24931612324955e-16
-3.53148194182433e-13
-6.46995314370946e-16
-3.62400883111849e-13
-6.67253009634532e-16
-3.69103183858136e-13
-6.77234336196087e-16
-3.7444735360651e-13
-6.27824302014183e-16
-3.76600335839103e-13
-5.66276193302434e-16
-3.72470838532357e-13
-4.9893090021213e-16
-3.62233745046051e-13
-4.35054323711115e-16
-3.49389173887957e-13
-3.79645565259976e-16
-3.383203828637e-13
-3.30783111090396e-16
-3.30796947597405e-13
-2.84943427944578e-16
-3.2564778952482e-13
-2.41026624286511e-16
-3.21544347174108e-13
-1.99716815097974e-16
-3.18884103926298e-13
-1.60973274148907e-16
-3.19135354269852e-13
-1.23332490118142e-16
-3.2320553050005e-13
-8.55310322278023e-17
-3.31999599740369e-13
-4.46572198629995e-17
-3.44365179100363e-13
-3.53713770875083e-13
-5.39270849272673e-18
-2.80891464089451e-13
-1.07707339689307e-17
-2.80439930676345e-13
-1.61346725079198e-17
-2.80034157396701e-13
-2.14802103236085e-17
-2.79611649119249e-13
-2.67946910031657e-17
-2.79106690470537e-13
-3.20796682063371e-17
-2.78515217508147e-13
-3.7372992060865e-17
-2.77996253857107e-13
-4.26882295869867e-17
-2.77671873221342e-13
-4.79902787594568e-17
-2.77427639817315e-13
-5.32586521520048e-17
-2.77112569211968e-13
-5.85044445534964e-17
-2.76724569214516e-13
-6.37403506326049e-17
-2.76325989146188e-13
-6.89627000789716e-17
-2.75935826510019e-13
-7.41608906965927e-17
-2.75530604963814e-13
-7.93333872723177e-17
-2.75095456743141e-13
-8.44835161659213e-17
-2.74638314515797e-13
-8.96126769109455e-17
-2.74169235441185e-13
-9.47395381406813e-17
-2.73713577390613e-13
-9.98538787390398e-17
-2.73279719644029e-13
-1.04909507031973e-16
-2.72805081104169e-13
-1.09941627392933e-16
-2.7228209706147e-13
-1.15061814435683e-16
-2.71857789161657e-13
-1.20293967183014e-16
-2.71646556164069e-13
-1.25516130656762e-16
-2.71537496516782e-13
-1.30640434577033e-16
-2.71339114600508e-13
-1.35634398528959e-16
-2.70962545534387e-13
-1.40483535417117e-16
-2.70390633702148e-13
-1.45384675949408e-16
-2.69779373885816e-13
-1.50495770218275e-16
-2.69392542185351e-13
-1.55648141529416e-16
-2.69204328619174e-13
-1.60705610468555e-16
-2.68986986539681e-13
-1.65683209533536e-16
-2.6866132865469e-13
-1.70633300999474e-16
-2.6827993923215e-13
-1.75639369371286e-16
-2.67931874187161e-13
-1.80669768099218e-16
-2.67646685215086e-13
-1.85618164953721e-16
-2.67338990745326e-13
-1.90483453964466e-16
-2.66948476007688e-13
-1.95329845440542e-16
-2.66516086978809e-13
-2.00231571320083e-16
-2.66119752259883e-13
-2.05195412562531e-16
-2.65799986678888e-13
-2.10070045620593e-16
-2.65478169271689e-13
-2.14730684261872e-16
-2.6501594292517e-13
-2.1933018511637e-16
-2.64434993025139e-13
-2.2415882194376e-16
-2.63954296404105e-13
-2.29172300834836e-16
-2.63683979104423e-13
-2.34190444139016e-16
-2.63508564836269e-13
-2.392702241979e-16
-2.6336559175014e-13
-2.44296862807677e-16
-2.632287261776e-13
-2.49089321916076e-16
-2.62971121395673e-13
-2.53819212128015e-16
-2.62594290175894e-13
-2.58646340461385e-16
-2.62241712812408e-13
-2.63531258935428e-16
-2.61961367519112e-13
-2.68424893899102e-16
-2.61714239285203e-13
-2.73377424369117e-16
-2.6149850434683e-13
-2.7843820293281e-16
-2.61350280530818e-13
-2.83692059032902e-16
-2.61315966169482e-13
-2.89137610149128e-16
-2.61420593450139e-13
-2.9428052832873e-16
-2.61479453328583e-13
-2.99981201672495e-16
-2.616200720352e-13
-3.07402152626341e-16
-2.62543276981593e-13
-3.14302735735857e-16
-2.63851365705426e-13
-3.19264277405081e-16
-2.64288322686093e-13
-3.24177695166796e-16
-2.64042390035499e-13
-3.30251119246683e-16
-2.64159890307311e-13
-3.3802147913829e-16
-2.65187469474314e-13
-3.47516261249648e-16
-2.67263971254416e-13
-3.57255735362998e-16
-2.69893111195638e-13
-3.66091747282812e-16
-2.72241768636027e-13
-3.74645113729679e-16
-2.74157813813111e-13
-3.84211097124069e-16
-2.76229958804539e-13
-3.94854900521372e-16
-2.78854388937529e-13
-4.06976907416662e-16
-2.82142084828708e-13
-4.21924195260322e-16
-2.86563355931748e-13
-4.39196013139701e-16
-2.9231491055177e-13
-4.55182134572275e-16
-2.98205342224749e-13
-4.70945978698161e-16
-3.03519679646638e-13
-4.93281136772675e-16
-3.10398027661816e-13
-5.20291301018706e-16
-3.20106104155853e-13
-5.45193853630306e-16
-3.30253769263896e-13
-5.68930150938388e-16
-3.39287217960613e-13
-5.97117724819759e-16
-3.48927517286421e-13
-6.27986474044861e-16
-3.60143285270667e-13
-6.53547335586074e-16
-3.70436332101001e-13
-6.72996455731007e-16
-3.77646258280123e-13
-6.90948863073303e-16
-3.82808355256429e-13
-6.98985255015615e-16
-3.86901786005371e-13
-6.48195263766167e-16
-3.88622779131356e-13
-5.87489367116334e-16
-3.85314102241793e-13
-5.22033859139299e-16
-3.77121215669318e-13
-4.59413420812259e-16
-3.6683852406907e-13
-4.03724656581637e-16
-3.57975581652137e-13
-3.53396017508733e-16
-3.51950679453381e-13
-3.05543292603946e-16
-3.4782709519459e-13
-2.59265157094614e-16
-3.44541141797095e-13
-2.15121527832397e-16
-3.42410652409444e-13
-1.73079328582211e-16
-3.42611282134106e-13
-1.31940317981339e-16
-3.45869858893605e-13
-9.06700667412431e-17
-3.52911397005135e-13
-4.68841057632311e-17
-3.62813450871823e-13
-3.70285768749413e-13
-6.66064621814143e-18
-3.40611471538128e-13
-1.33006380086155e-17
-3.40001980302019e-13
-1.9920587814411e-17
-3.39450803646134e-13
-2.65170710887988e-17
-3.38888460270545e-13
-3.30801645703887e-17
-3.3826389399019e-13
-3.96109897746225e-17
-3.3757343677118e-13
-4.61392232368907e-17
-3.36937090560359e-13
-5.26757002930666e-17
-3.36448076387993e-13
-5.919294349368e-17
-3.36020571416464e-13
-6.567475103373e-17
-3.35539913485412e-13
-7.21297298308842e-17
-3.35003872288383e-13
-7.85678863677827e-17
-3.34459548988924e-13
-8.49863919544735e-17
-3.33921560581194e-13
-9.13769464939222e-17
-3.33372280534032e-13
-9.77382879291299e-17
-3.32800405133239e-13
-1.04073036694116e-16
-3.32211843463017e-13
-1.1038227164441e-16
-3.31614162158469e-13
-1.16680648423926e-16
-3.3102657169995e-13
-1.2296028580244e-16
-3.30455633062066e-13
-1.29184869942005e-16
-3.29854044725708e-13
-1.3538170304373e-16
-3.29215558167267e-13
-1.41638332035542e-16
-3.28651099091605e-13
-1.47973953450287e-16
-3.28247816876578e-13
-1.54293165265529e-16
-3.27922563036741e-13
-1.60526761460498e-16
-3.27530393674658e-13
-1.6664916225547e-16
-3.27003659583364e-13
-1.72648713293268e-16
-3.26328985241334e-13
-1.78679290936749e-16
-3.25623654090839e-13
-1.84865363783188e-16
-3.25087346383776e-13
-1.91075420121124e-16
-3.24701743649878e-13
-1.97202262890577e-16
-3.24294844214269e-13
-2.03257313892351e-16
-3.23806117355352e-13
-2.09281527503557e-16
-3.23274969840221e-13
-2.15340449713857e-16
-3.22768749189827e-13
-2.21409662885801e-16
-3.22310161657058e-13
-2.27405826471985e-16
-3.2183493101023e-13
-2.33327717413583e-16
-3.21297206082933e-13
-2.39225458688562e-16
-3.20727565879458e-13
-2.45157324738239e-16
-3.20184861257229e-13
-2.5112902892934e-16
-3.19700042722045e-13
-2.57022365226926e-16
-3.1921415170142e-13
-2.62739105546504e-16
-3.18622554766103e-13
-2.68398268192612e-16
-3.17940927004906e-13
-2.74227256319024e-16
-3.17334326159164e-13
-2.80192216913044e-16
-3.16886466204929e-13
-2.86152059207986e-16
-3.16510588379327e-13
-2.92150931662138e-16
-3.16159302109227e-13
-2.98100085965608e-16
-3.15812956631534e-13
-3.03856655866087e-16
-3.15375809570823e-13
-3.09554882908642e-16
-3.14848453888359e-13
-3.15319792771867e-16
-3.14339068035627e-13
-3.21120875416509e-16
-3.13884039363668e-13
-3.26919766952474e-16
-3.1345410961264e-13
-3.3275554308582e-16
-3.13047841308569e-13
-3.38666632702925e-16
-3.12692331302476e-13
-3.44719378683776e-16
-3.12422514355395e-13
-3.50913311501059e-16
-3.12257545239279e-13
-3.56861417030792e-16
-3.12058179105671e-13
-3.63233579861625e-16
-3.11919247798756e-13
-3.70941334345903e-16
-3.12369207374771e-13
-3.78238121882719e-16
-3.13111260861726e-13
-3.84010657749367e-16
-3.13198671880587e-13
-3.89732382791483e-16
-3.12769946352026e-13
-3.96348732891164e-16
-3.12612630533487e-13
-4.04279678923894e-16
-3.13139433977729e-13
-4.13548678244685e-16
-3.14455940832702e-13
-4.23001924937154e-16
-3.16189731398739e-13
-4.31740775678053e-16
-3.17713262989689e-13
-4.40247359908155e-16
-3.18910375848359e-13
-4.49532746294597e-16
-3.20223448608422e-13
-4.59648172396191e-16
-3.21950893733334e-13
-4.70904345021589e-16
-3.24175877172792e-13
-4.84352116557075e-16
-3.27251782344158e-13
-4.99605219628003e-16
-3.31328016700406e-13
-5.13848122209975e-16
-3.35509893917591e-13
-5.27899325249801e-16
-3.3925653586051e-13
-5.47054394676387e-16
-3.44173657036841e-13
-5.69847435322489e-16
-3.51216336597152e-13
-5.90990617920854e-16
-3.5859131113069e-13
-6.11205939388896e-16
-3.65127140524172e-13
-6.34870457070248e-16
-3.72113914776923e-13
-6.60615211511797e-16
-3.80282351748322e-13
-6.82215745754313e-16
-3.87758326393421e-13
-6.99038904156716e-16
-3.92916946630728e-13
-7.14677623492077e-16
-3.96533348625069e-13
-7.20762914025144e-16
-3.99372558424378e-13
-6.68592192632074e-16
-4.00663359045118e-13
-6.08727507255258e-16
-3.9817630067029e-13
-5.45163437163471e-16
-3.9202979740054e-13
-4.83801836601651e-16
-3.84312977631762e-13
-4.2783393013658e-16
-3.77660126552907e-13
-3.76038152904699e-16
-3.73136976660309e-13
-3.26170193405661e-16
-3.7004120098027e-13
-2.77527915402688e-16
-3.67574423165671e-13
-2.30546919447455e-16
-3.659748654083e-13
-1.85201698467838e-16
-3.66124985356594e-13
-1.40559677242912e-16
-3.68570570131444e-13
-9.58157610975422e-17
-3.73856130932644e-13
-4.91137661974884e-17
-3.81289684452727e-13
-3.86881972955034e-13
-7.95326525059552e-18
-4.01476609867407e-13
-1.58793507805135e-17
-4.00693441962574e-13
-2.37789040613502e-17
-3.99984346074297e-13
-3.16494074229642e-17
-3.99269719069722e-13
-3.948370045267e-17
-3.98513412818035e-13
-4.72824788611695e-17
-3.97712385783896e-13
-5.50671143064191e-17
-3.969470268851e-13
-6.28456214036476e-17
-3.9628081913449e-13
-7.05982426526217e-17
-3.95656756888096e-13
-7.8313202839684e-17
-3.94997352617895e-13
-8.59965827769901e-17
-3.94300526757221e-13
-9.36556597967369e-17
-3.93597894599288e-13
-1.01288421803379e-16
-3.92899503488893e-13
-1.0888891935571e-16
-3.92193617365943e-13
-1.16456218723989e-16
-3.91472580382638e-13
-1.23992165540061e-16
-3.90740285221963e-13
-1.31497529015878e-16
-3.9000177918321e-13
-1.38982905450218e-16
-3.89269996335353e-13
-1.46442744036841e-16
-3.88549559190048e-13
-1.53850786172025e-16
-3.87808699977264e-13
-1.61226375958034e-16
-3.8704272071347e-13
-1.68632633749607e-16
-3.86325929254749e-13
-1.76083850545092e-16
-3.85717511237883e-13
-1.83511532958938e-16
-3.85162248085945e-13
-1.90865556384613e-16
-3.84562579089729e-13
-1.98127405895942e-16
-3.83872647583651e-13
-2.0528836654115e-16
-3.83083086757838e-13
-2.124587868234e-16
-3.82272078339664e-13
-2.19728971123809e-16
-3.81574075668649e-13
-2.27004891970855e-16
-3.80977862295268e-13
-2.34208937334858e-16
-3.80367978511598e-13
-2.41348999919652e-16
-3.79703155694868e-13
-2.48454468822755e-16
-3.7900957484721e-13
-2.55572645759618e-16
-3.78332510216801e-13
-2.6268631578047e-16
-3.77687558060672e-13
-2.69735494168609e-16
-3.77031762277588e-13
-2.76718936289383e-16
-3.76334064545699e-13
-2.83672564448189e-16
-3.75614686789703e-13
-2.90638388033509e-16
-3.74913136130081e-13
-2.976209365914e-16
-3.74250503301019e-13
-3.04535453194098e-16
-3.73587578226871e-13
-3.11310825044488e-16
-3.72853988706892e-13
-3.18031952830831e-16
-3.72059624391734e-13
-3.24862536992638e-16
-3.71315014194496e-13
-3.31779023570496e-16
-3.70676874692442e-13
-3.38679906692699e-16
-3.70087347376344e-13
-3.45596584437817e-16
-3.69514427032717e-13
-3.52466010875097e-16
-3.68945087444714e-13
-3.59184786047821e-16
-3.68315118241347e-13
-3.65849095821068e-16
-3.67624462618221e-13
-3.7254885470736e-16
-3.66945572364679e-13
-3.79262441771521e-16
-3.6630303659463e-13
-3.85962319038074e-16
-3.65677376134997e-13
-3.92676403404994e-16
-3.65067571008233e-13
-3.99432156377384e-16
-3.64491673052812e-13
-4.06277235966955e-16
-3.63973059896477e-13
-4.13211902915816e-16
-3.63524819451729e-13
-4.19957731417162e-16
-3.63053661128946e-13
-4.26993160504179e-16
-3.62621968583669e-13
-4.34975472519749e-16
-3.62584052295143e-13
-4.42655070170112e-16
-3.62743692293012e-13
-4.4922836167209e-16
-3.62466348847754e-13
-4.55749338472578e-16
-3.61841895158107e-13
-4.6289790437572e-16
-3.61397259334807e-13
-4.70975847728172e-16
-3.61409605499368e-13
-4.80001928808333e-16
-3.61950509867877e-13
-4.8915010675952e-16
-3.62771813898804e-13
-4.97773955866362e-16
-3.63453245840696e-13
-5.06216971547652e-16
-3.6391568847901e-13
-5.15204055684424e-16
-3.64454527882497e-13
-5.24772392718561e-16
-3.65269668063745e-13
-5.35143133029882e-16
-3.66416488321673e-13
-5.47069305246154e-16