/*--------------------------------*- C++ -*----------------------------------*\
| =========                 |                                                 |
| \\      /  F ield         | OpenFOAM: The Open Source CFD Toolbox           |
|  \\    /   O peration     | Version:  4.1                                   |
|   \\  /    A nd           | Web:      www.OpenFOAM.org                      |
|    \\/     M anipulation  |                                                 |
\*---------------------------------------------------------------------------*/
FoamFile
{
    version     2.0;
    format      ascii;
    class       pointVectorField;
    location    "0.0077";
    object      pointDisplacement_Next_Iter1;
}
// * * * * * * * * * * * * * * * * * * * * * * * * * * * * * * * * * * * * * //

dimensions      [0 1 0 0 0 0 0];

internalField   uniform (0 0 0);

boundaryField
{
    inlet
    {
        type            fixedValue;
        value           uniform (0 0 0);
    }
    outlet
    {
        type            fixedValue;
        value           uniform (0 0 0);
    }
    mantle
    {
        type            fixedValue;
        value           nonuniform List<vector> 
1568
(
(3.2999e-12 -1.7648e-12 7.9905e-17)
(8.2604e-06 -4.3132e-06 1.6921e-10)
(8.1361e-06 -3.9611e-06 6.2985e-07)
(1.3924e-08 -3.3533e-08 -2.7165e-08)
(8.0133e-06 -3.4385e-06 1.4257e-06)
(4.0499e-12 -2.9581e-12 1.1073e-12)
(8.1355e-06 -3.2487e-06 2.3594e-06)
(1.3876e-08 -4.6564e-09 4.2973e-08)
(8.2597e-06 -3.0541e-06 3.0543e-06)
(2.1538e-12 2.2409e-13 -2.243e-13)
(8.1356e-06 -2.3594e-06 3.2491e-06)
(1.3875e-08 -4.2975e-08 4.6531e-09)
(8.0135e-06 -1.4257e-06 3.4392e-06)
(4.0499e-12 -1.107e-12 2.9584e-12)
(8.1363e-06 -6.2988e-07 3.962e-06)
(1.3926e-08 2.7162e-08 3.3541e-08)
(8.2607e-06 -1.0163e-10 4.3143e-06)
(3.3e-12 -3.2379e-17 1.7652e-12)
(1.4433e-05 -5.6355e-06 2.4431e-10)
(1.4152e-05 -4.9561e-06 7.501e-07)
(1.3936e-05 -4.1818e-06 1.7341e-06)
(1.4152e-05 -4.04e-06 2.9809e-06)
(1.4433e-05 -3.9933e-06 3.9935e-06)
(1.4152e-05 -2.9811e-06 4.0407e-06)
(1.3936e-05 -1.7344e-06 4.183e-06)
(1.4152e-05 -7.503e-07 4.9579e-06)
(1.4434e-05 -2.0551e-10 5.6377e-06)
(1.7363e-05 -2.3441e-06 2.3822e-10)
(1.7243e-05 -2.1076e-06 2.9371e-07)
(1.7131e-05 -1.7616e-06 7.3061e-07)
(1.7246e-05 -1.704e-06 1.2885e-06)
(1.7367e-05 -1.6664e-06 1.6666e-06)
(1.7246e-05 -1.2889e-06 1.7048e-06)
(1.7131e-05 -7.3116e-07 1.7632e-06)
(1.7244e-05 -2.9412e-07 2.1098e-06)
(1.7363e-05 -2.6627e-10 2.3468e-06)
(1.8925e-05 1.2831e-06 1.7552e-10)
(1.8969e-05 1.081e-06 -2.1943e-07)
(1.8959e-05 9.9163e-07 -4.1218e-07)
(1.8975e-05 9.1744e-07 -6.0936e-07)
(1.8934e-05 9.0447e-07 -9.0444e-07)
(1.8976e-05 6.0881e-07 -9.1664e-07)
(1.896e-05 4.1138e-07 -9.9e-07)
(1.897e-05 2.1882e-07 -1.0786e-06)
(1.8926e-05 -3.0889e-10 -1.2801e-06)
(2.1329e-05 1.1693e-06 8.09e-11)
(2.1318e-05 1.1631e-06 -2.6088e-07)
(2.1301e-05 1.141e-06 -4.7719e-07)
(2.1325e-05 1.0168e-06 -6.4877e-07)
(2.1338e-05 8.4048e-07 -8.4062e-07)
(2.1325e-05 6.4807e-07 -1.0162e-06)
(2.1301e-05 4.7625e-07 -1.1394e-06)
(2.1319e-05 2.6011e-07 -1.1608e-06)
(2.1329e-05 -3.6958e-10 -1.1664e-06)
(2.458e-05 -1.0206e-06 -2.2938e-11)
(2.4499e-05 -7.6126e-07 6.8338e-08)
(2.4436e-05 -5.2003e-07 2.1317e-07)
(2.4504e-05 -5.5943e-07 4.6817e-07)
(2.4586e-05 -6.8731e-07 6.8697e-07)
(2.4504e-05 -4.6898e-07 5.5979e-07)
(2.4436e-05 -2.1417e-07 5.212e-07)
(2.45e-05 -6.9201e-08 7.6321e-07)
(2.4581e-05 -4.3738e-10 1.0231e-06)
(2.7957e-05 -2.2364e-06 -1.1928e-10)
(2.7914e-05 -2.077e-06 3.5379e-07)
(2.7872e-05 -1.8257e-06 7.5904e-07)
(2.7913e-05 -1.678e-06 1.1933e-06)
(2.7957e-05 -1.5316e-06 1.531e-06)
(2.7914e-05 -1.1942e-06 1.6779e-06)
(2.7873e-05 -7.6006e-07 1.8262e-06)
(2.7915e-05 -3.547e-07 2.0781e-06)
(2.7958e-05 -4.8073e-10 2.2379e-06)
(3.1394e-05 -1.9041e-06 -2.1678e-10)
(3.1389e-05 -1.8844e-06 3.7239e-07)
(3.1376e-05 -1.7718e-06 7.4211e-07)
(3.1376e-05 -1.5613e-06 1.054e-06)
(3.1378e-05 -1.3046e-06 1.3038e-06)
(3.1376e-05 -1.055e-06 1.5606e-06)
(3.1377e-05 -7.431e-07 1.7715e-06)
(3.1389e-05 -3.7331e-07 1.8844e-06)
(3.1395e-05 -5.1822e-10 1.9044e-06)
(3.5014e-05 -2.5903e-07 1.2624e-10)
(3.5011e-05 -2.6761e-07 5.5135e-08)
(3.5001e-05 -2.6821e-07 1.1378e-07)
(3.498e-05 -2.4084e-07 1.6073e-07)
(3.497e-05 -1.9831e-07 1.9664e-07)
(3.498e-05 -1.6168e-07 2.3969e-07)
(3.5001e-05 -1.147e-07 2.6696e-07)
(3.5012e-05 -5.604e-08 2.6632e-07)
(3.5015e-05 -9.9756e-10 2.5785e-07)
(3.8755e-05 2.7653e-06 -4.2684e-10)
(3.8749e-05 2.7256e-06 -5.531e-07)
(3.872e-05 2.5486e-06 -1.0625e-06)
(3.8706e-05 2.2257e-06 -1.4908e-06)
(3.8687e-05 1.8556e-06 -1.8568e-06)
(3.8706e-05 1.4899e-06 -2.2273e-06)
(3.8721e-05 1.0617e-06 -2.5507e-06)
(3.875e-05 5.5223e-07 -2.7279e-06)
(3.8756e-05 -5.6186e-10 -2.7677e-06)
(4.2477e-05 7.0269e-06 -6.7535e-10)
(4.2452e-05 6.8788e-06 -1.3945e-06)
(4.2415e-05 6.4138e-06 -2.6816e-06)
(4.2402e-05 5.6729e-06 -3.7942e-06)
(4.2407e-05 4.7704e-06 -4.7719e-06)
(4.2402e-05 3.7933e-06 -5.6749e-06)
(4.2415e-05 2.6809e-06 -6.4164e-06)
(4.2452e-05 1.3936e-06 -6.8819e-06)
(4.2478e-05 -4.0031e-10 -7.0302e-06)
(4.5977e-05 1.1784e-05 -6.0923e-10)
(4.5942e-05 1.1506e-05 -2.3052e-06)
(4.5901e-05 1.0706e-05 -4.4631e-06)
(4.5898e-05 9.5077e-06 -6.3658e-06)
(4.5915e-05 8.0302e-06 -8.0315e-06)
(4.5898e-05 6.3651e-06 -9.5098e-06)
(4.5901e-05 4.4625e-06 -1.0709e-05)
(4.5942e-05 2.3044e-06 -1.1509e-05)
(4.5978e-05 -5.0686e-10 -1.1787e-05)
(4.9078e-05 1.6009e-05 -7.3985e-10)
(4.9052e-05 1.5585e-05 -3.0741e-06)
(4.902e-05 1.4469e-05 -5.9914e-06)
(4.9017e-05 1.2885e-05 -8.6308e-06)
(4.9028e-05 1.0938e-05 -1.0939e-05)
(4.9017e-05 8.6301e-06 -1.2887e-05)
(4.902e-05 5.9909e-06 -1.4472e-05)
(4.9052e-05 3.0734e-06 -1.5588e-05)
(4.9078e-05 -3.4181e-10 -1.6013e-05)
(5.1851e-05 1.8515e-05 -6.3602e-10)
(5.1844e-05 1.7991e-05 -3.539e-06)
(5.1828e-05 1.6691e-05 -6.8985e-06)
(5.1822e-05 1.4872e-05 -9.9545e-06)
(5.1819e-05 1.2645e-05 -1.2646e-05)
(5.1822e-05 9.9539e-06 -1.4874e-05)
(5.1828e-05 6.8981e-06 -1.6694e-05)
(5.1844e-05 3.5383e-06 -1.7994e-05)
(5.1851e-05 -3.6347e-10 -1.8518e-05)
(5.4445e-05 1.8285e-05 -5.4946e-10)
(5.4449e-05 1.7839e-05 -3.5578e-06)
(5.4452e-05 1.6597e-05 -6.8871e-06)
(5.4444e-05 1.4737e-05 -9.8459e-06)
(5.4439e-05 1.2453e-05 -1.2454e-05)
(5.4444e-05 9.8454e-06 -1.4739e-05)
(5.4452e-05 6.8867e-06 -1.66e-05)
(5.4448e-05 3.5572e-06 -1.7842e-05)
(5.4445e-05 -3.361e-10 -1.8288e-05)
(5.6943e-05 1.5476e-05 -5.8808e-10)
(5.6961e-05 1.5159e-05 -3.0779e-06)
(5.6985e-05 1.4151e-05 -5.909e-06)
(5.6978e-05 1.249e-05 -8.3246e-06)
(5.6966e-05 1.0468e-05 -1.0468e-05)
(5.6977e-05 8.3241e-06 -1.2491e-05)
(5.6984e-05 5.9087e-06 -1.4153e-05)
(5.6961e-05 3.0774e-06 -1.5161e-05)
(5.6942e-05 -1.7555e-10 -1.5478e-05)
(5.936e-05 1.054e-05 4.6288e-10)
(5.9371e-05 1.03e-05 -2.0899e-06)
(5.9395e-05 9.573e-06 -3.9905e-06)
(5.9407e-05 8.413e-06 -5.6031e-06)
(5.9411e-05 7.0437e-06 -7.043e-06)
(5.9407e-05 5.6026e-06 -8.414e-06)
(5.9395e-05 3.9901e-06 -9.5742e-06)
(5.9371e-05 2.0894e-06 -1.0301e-05)
(5.9359e-05 -1.091e-09 -1.0541e-05)
(6.1563e-05 3.7732e-06 -3.821e-10)
(6.1575e-05 3.6503e-06 -7.426e-07)
(6.1598e-05 3.3281e-06 -1.3748e-06)
(6.1622e-05 2.8371e-06 -1.8733e-06)
(6.163e-05 2.3413e-06 -2.3418e-06)
(6.1622e-05 1.8728e-06 -2.8376e-06)
(6.1597e-05 1.3744e-06 -3.3285e-06)
(6.1574e-05 7.4211e-07 -3.6504e-06)
(6.1562e-05 -9.2258e-11 -3.7733e-06)
(6.3378e-05 -4.5283e-06 -5.5358e-10)
(6.3401e-05 -4.4509e-06 8.6402e-07)
(6.3439e-05 -4.2544e-06 1.7637e-06)
(6.3444e-05 -3.9462e-06 2.6672e-06)
(6.3439e-05 -3.4337e-06 3.4338e-06)
(6.3443e-05 -2.6677e-06 3.9462e-06)
(6.3439e-05 -1.7642e-06 4.2548e-06)
(6.34e-05 -8.6447e-07 4.4517e-06)
(6.3377e-05 2.679e-10 4.5292e-06)
(6.4662e-05 -1.384e-05 -1.002e-10)
(6.4704e-05 -1.3535e-05 2.6506e-06)
(6.476e-05 -1.2745e-05 5.2675e-06)
(6.4742e-05 -1.1566e-05 7.7642e-06)
(6.4715e-05 -9.9282e-06 9.9281e-06)
(6.4742e-05 -7.7647e-06 1.1567e-05)
(6.4759e-05 -5.268e-06 1.2746e-05)
(6.4703e-05 -2.651e-06 1.3537e-05)
(6.4662e-05 -1.3862e-11 1.3842e-05)
(6.5325e-05 -2.3743e-05 2.5196e-11)
(6.5346e-05 -2.3266e-05 4.6018e-06)
(6.5383e-05 -2.1902e-05 9.062e-06)
(6.5388e-05 -1.9759e-05 1.3219e-05)
(6.5384e-05 -1.6846e-05 1.6846e-05)
(6.5388e-05 -1.322e-05 1.976e-05)
(6.5383e-05 -9.0624e-06 2.1904e-05)
(6.5345e-05 -4.6022e-06 2.3269e-05)
(6.5324e-05 -3.7387e-11 2.3746e-05)
(6.5261e-05 -3.4202e-05 2.0339e-10)
(6.5272e-05 -3.3525e-05 6.6549e-06)
(6.5297e-05 -3.1551e-05 1.3075e-05)
(6.5319e-05 -2.8398e-05 1.8992e-05)
(6.5328e-05 -2.4166e-05 2.4166e-05)
(6.5319e-05 -1.8992e-05 2.8399e-05)
(6.5297e-05 -1.3076e-05 3.1553e-05)
(6.5272e-05 -6.6551e-06 3.3528e-05)
(6.526e-05 -1.1012e-10 3.4206e-05)
(6.4457e-05 -4.523e-05 1.64e-10)
(6.4484e-05 -4.4309e-05 8.7997e-06)
(6.4528e-05 -4.1656e-05 1.7268e-05)
(6.4528e-05 -3.7467e-05 2.507e-05)
(6.4519e-05 -3.1886e-05 3.1887e-05)
(6.4528e-05 -2.507e-05 3.7468e-05)
(6.4528e-05 -1.7268e-05 4.1657e-05)
(6.4484e-05 -8.7998e-06 4.4312e-05)
(6.4457e-05 1.3482e-10 4.5233e-05)
(6.3054e-05 -5.657e-05 6.572e-10)
(6.3107e-05 -5.5392e-05 1.0991e-05)
(6.3173e-05 -5.2025e-05 2.1565e-05)
(6.3149e-05 -4.6784e-05 3.131e-05)
(6.3112e-05 -3.9818e-05 3.9819e-05)
(6.3149e-05 -3.131e-05 4.6785e-05)
(6.3173e-05 -2.1565e-05 5.2026e-05)
(6.3107e-05 -1.0991e-05 5.5394e-05)
(6.3054e-05 -1.4306e-10 5.6573e-05)
(6.1235e-05 -6.7689e-05 5.8802e-10)
(6.1268e-05 -6.626e-05 1.3133e-05)
(6.1315e-05 -6.2209e-05 2.5766e-05)
(6.1315e-05 -5.5919e-05 3.7412e-05)
(6.1302e-05 -4.7591e-05 4.7591e-05)
(6.1315e-05 -3.7412e-05 5.5919e-05)
(6.1315e-05 -2.5766e-05 6.221e-05)
(6.1268e-05 -1.3133e-05 6.6262e-05)
(6.1235e-05 -3.9954e-11 6.7691e-05)
(5.9032e-05 -7.7669e-05 7.7477e-10)
(5.9051e-05 -7.5998e-05 1.5061e-05)
(5.908e-05 -7.1326e-05 2.9537e-05)
(5.9103e-05 -6.4094e-05 4.2879e-05)
(5.9105e-05 -5.4553e-05 5.4553e-05)
(5.9103e-05 -4.2879e-05 6.4094e-05)
(5.9081e-05 -2.9537e-05 7.1326e-05)
(5.9052e-05 -1.5061e-05 7.5999e-05)
(5.9033e-05 -2.6574e-10 7.767e-05)
(5.6465e-05 -8.5571e-05 9.3655e-10)
(5.6478e-05 -8.3776e-05 1.6636e-05)
(5.6506e-05 -7.8649e-05 3.2597e-05)
(5.6516e-05 -7.0628e-05 4.7246e-05)
(5.6519e-05 -6.0061e-05 6.0061e-05)
(5.6516e-05 -4.7246e-05 7.0627e-05)
(5.6506e-05 -3.2596e-05 7.8648e-05)
(5.6479e-05 -1.6635e-05 8.3774e-05)
(5.6465e-05 -8.0153e-11 8.5569e-05)
(5.354e-05 -9.1195e-05 6.7858e-10)
(5.3557e-05 -8.9304e-05 1.7758e-05)
(5.3579e-05 -8.3853e-05 3.4778e-05)
(5.3571e-05 -7.5276e-05 5.0352e-05)
(5.3561e-05 -6.3978e-05 6.3978e-05)
(5.3571e-05 -5.0351e-05 7.5275e-05)
(5.3579e-05 -3.4776e-05 8.3851e-05)
(5.3557e-05 -1.7757e-05 8.93e-05)
(5.3541e-05 -2.7594e-10 9.1191e-05)
(5.0275e-05 -9.4481e-05 9.351e-10)
(5.0271e-05 -9.2503e-05 1.8366e-05)
(5.0266e-05 -8.6846e-05 3.5984e-05)
(5.0259e-05 -7.7988e-05 5.2158e-05)
(5.0257e-05 -6.631e-05 6.6311e-05)
(5.0259e-05 -5.2157e-05 7.7986e-05)
(5.0266e-05 -3.5983e-05 8.6843e-05)
(5.0271e-05 -1.8365e-05 9.2499e-05)
(5.0275e-05 -4.7258e-10 9.4476e-05)
(4.6657e-05 -9.5336e-05 6.7454e-10)
(4.6638e-05 -9.33e-05 1.8493e-05)
(4.661e-05 -8.7583e-05 3.6266e-05)
(4.6609e-05 -7.8686e-05 5.2628e-05)
(4.6611e-05 -6.6955e-05 6.6955e-05)
(4.6609e-05 -5.2627e-05 7.8685e-05)
(4.661e-05 -3.6265e-05 8.7581e-05)
(4.6638e-05 -1.8492e-05 9.3296e-05)
(4.6657e-05 -1.2289e-10 9.5332e-05)
(4.2719e-05 -9.38e-05 7.2575e-10)
(4.2691e-05 -9.184e-05 1.8216e-05)
(4.2656e-05 -8.6249e-05 3.5727e-05)
(4.2654e-05 -7.7507e-05 5.1846e-05)
(4.2666e-05 -6.594e-05 6.594e-05)
(4.2653e-05 -5.1846e-05 7.7507e-05)
(4.2655e-05 -3.5726e-05 8.6247e-05)
(4.269e-05 -1.8215e-05 9.1838e-05)
(4.2718e-05 -3.738e-11 9.3796e-05)
(3.8572e-05 -9.07e-05 4.7006e-10)
(3.8542e-05 -8.8837e-05 1.7643e-05)
(3.8505e-05 -8.3458e-05 3.4598e-05)
(3.8506e-05 -7.5023e-05 5.0195e-05)
(3.8521e-05 -6.3821e-05 6.3821e-05)
(3.8505e-05 -5.0194e-05 7.5023e-05)
(3.8504e-05 -3.4597e-05 8.3457e-05)
(3.8542e-05 -1.7642e-05 8.8835e-05)
(3.8572e-05 3.4472e-10 9.0698e-05)
(3.4358e-05 -8.6709e-05 2.5902e-10)
(3.4334e-05 -8.4924e-05 1.6858e-05)
(3.4301e-05 -7.9806e-05 3.3076e-05)
(3.4296e-05 -7.176e-05 4.8015e-05)
(3.4304e-05 -6.1068e-05 6.1069e-05)
(3.4296e-05 -4.8014e-05 7.176e-05)
(3.4301e-05 -3.3075e-05 7.9806e-05)
(3.4334e-05 -1.6857e-05 8.4924e-05)
(3.4357e-05 5.288e-10 8.6708e-05)
(3.0257e-05 -8.1858e-05 2.6159e-10)
(3.0242e-05 -8.0153e-05 1.589e-05)
(3.0214e-05 -7.5323e-05 3.1201e-05)
(3.0204e-05 -6.7761e-05 4.5339e-05)
(3.0203e-05 -5.7697e-05 5.7697e-05)
(3.0204e-05 -4.5339e-05 6.7761e-05)
(3.0213e-05 -3.12e-05 7.5323e-05)
(3.0242e-05 -1.5889e-05 8.0153e-05)
(3.0257e-05 4.7105e-10 8.1857e-05)
(2.6408e-05 -7.5937e-05 1.4325e-10)
(2.6377e-05 -7.4376e-05 1.4741e-05)
(2.6339e-05 -6.9916e-05 2.8957e-05)
(2.6344e-05 -6.2917e-05 4.2096e-05)
(2.6361e-05 -5.3573e-05 5.3573e-05)
(2.6344e-05 -4.2095e-05 6.2917e-05)
(2.6339e-05 -2.8956e-05 6.9916e-05)
(2.6377e-05 -1.474e-05 7.4375e-05)
(2.6408e-05 4.9061e-10 7.5937e-05)
(2.2782e-05 -6.9196e-05 6.8281e-11)
(2.2738e-05 -6.7774e-05 1.3432e-05)
(2.2689e-05 -6.3721e-05 2.6396e-05)
(2.271e-05 -5.7369e-05 3.8392e-05)
(2.2743e-05 -4.8866e-05 4.8866e-05)
(2.271e-05 -3.8391e-05 5.7369e-05)
(2.2689e-05 -2.6395e-05 6.3721e-05)
(2.2738e-05 -1.3431e-05 6.7773e-05)
(2.2782e-05 4.3984e-10 6.9195e-05)
(1.9321e-05 -6.1924e-05 -3.5579e-10)
(1.9285e-05 -6.0677e-05 1.2034e-05)
(1.9244e-05 -5.7088e-05 2.3651e-05)
(1.9258e-05 -5.1404e-05 3.4395e-05)
(1.9283e-05 -4.3777e-05 4.3777e-05)
(1.9258e-05 -3.4394e-05 5.1404e-05)
(1.9244e-05 -2.365e-05 5.7088e-05)
(1.9285e-05 -1.2033e-05 6.0677e-05)
(1.9322e-05 7.7201e-10 6.1923e-05)
(1.6067e-05 -5.4474e-05 -5.651e-11)
(1.6043e-05 -5.3391e-05 1.059e-05)
(1.6005e-05 -5.026e-05 2.0825e-05)
(1.602e-05 -4.5273e-05 3.0287e-05)
(1.6029e-05 -3.8557e-05 3.8557e-05)
(1.602e-05 -3.0287e-05 4.5273e-05)
(1.6005e-05 -2.0824e-05 5.026e-05)
(1.6043e-05 -1.0589e-05 5.3391e-05)
(1.6067e-05 3.8949e-10 5.4475e-05)
(1.308e-05 -4.7124e-05 -1.7201e-10)
(1.3049e-05 -4.6187e-05 9.1522e-06)
(1.3016e-05 -4.3482e-05 1.8004e-05)
(1.303e-05 -3.9197e-05 2.6224e-05)
(1.3054e-05 -3.34e-05 3.34e-05)
(1.303e-05 -2.6224e-05 3.9197e-05)
(1.3016e-05 -1.8004e-05 4.3481e-05)
(1.3049e-05 -9.1519e-06 4.6187e-05)
(1.308e-05 4.4076e-10 4.7125e-05)
(1.0387e-05 -4.0119e-05 -1.7641e-10)
(1.0351e-05 -3.9302e-05 7.7716e-06)
(1.0314e-05 -3.699e-05 1.531e-05)
(1.0342e-05 -3.3379e-05 2.2345e-05)
(1.0374e-05 -2.8478e-05 2.8478e-05)
(1.0342e-05 -2.2345e-05 3.3379e-05)
(1.0314e-05 -1.531e-05 3.6989e-05)
(1.0351e-05 -7.7714e-06 3.9302e-05)
(1.0387e-05 3.6162e-10 4.0119e-05)
(8.0007e-06 -3.3607e-05 -2.3016e-10)
(7.9727e-06 -3.2942e-05 6.5234e-06)
(7.9451e-06 -3.1035e-05 1.2852e-05)
(7.9695e-06 -2.8005e-05 1.8745e-05)
(7.9963e-06 -2.3884e-05 2.3884e-05)
(7.9696e-06 -1.8745e-05 2.8005e-05)
(7.9452e-06 -1.2852e-05 3.1034e-05)
(7.9729e-06 -6.5233e-06 3.2942e-05)
(8.001e-06 3.0605e-10 3.3607e-05)
(5.9463e-06 -2.768e-05 -2.4048e-10)
(5.9293e-06 -2.7158e-05 5.3877e-06)
(5.9117e-06 -2.5605e-05 1.0609e-05)
(5.9297e-06 -2.311e-05 1.5465e-05)
(5.9469e-06 -1.9694e-05 1.9694e-05)
(5.9298e-06 -1.5465e-05 2.311e-05)
(5.9118e-06 -1.0609e-05 2.5605e-05)
(5.9295e-06 -5.3877e-06 2.7158e-05)
(5.9465e-06 2.2726e-10 2.7679e-05)
(4.2393e-06 -2.2328e-05 -1.7674e-10)
(4.2208e-06 -2.1896e-05 4.335e-06)
(4.2023e-06 -2.0646e-05 8.5537e-06)
(4.2244e-06 -1.8643e-05 1.248e-05)
(4.2443e-06 -1.5904e-05 1.5904e-05)
(4.2244e-06 -1.248e-05 1.8643e-05)
(4.2023e-06 -8.5536e-06 2.0646e-05)
(4.2209e-06 -4.335e-06 2.1895e-05)
(4.2395e-06 1.3568e-10 2.2327e-05)
(2.8732e-06 -1.7361e-05 -9.7669e-11)
(2.8511e-06 -1.7006e-05 3.3523e-06)
(2.8301e-06 -1.6018e-05 6.6254e-06)
(2.8589e-06 -1.4485e-05 9.7036e-06)
(2.8841e-06 -1.2382e-05 1.2382e-05)
(2.859e-06 -9.7035e-06 1.4484e-05)
(2.8301e-06 -6.6253e-06 1.6018e-05)
(2.8512e-06 -3.3522e-06 1.7005e-05)
(2.8734e-06 5.4582e-11 1.7361e-05)
(1.8202e-06 -1.2603e-05 -4.0031e-11)
(1.8057e-06 -1.2336e-05 2.4248e-06)
(1.7953e-06 -1.1611e-05 4.8035e-06)
(1.8185e-06 -1.0507e-05 7.0476e-06)
(1.8386e-06 -8.9924e-06 8.9923e-06)
(1.8185e-06 -7.0475e-06 1.0507e-05)
(1.7954e-06 -4.8035e-06 1.161e-05)
(1.8059e-06 -2.4248e-06 1.2336e-05)
(1.8205e-06 -1.9901e-11 1.2602e-05)
(1.0275e-06 -8.0268e-06 -1.0309e-11)
(1.0192e-06 -7.8495e-06 1.5423e-06)
(1.0161e-06 -7.3817e-06 3.0574e-06)
(1.0333e-06 -6.6836e-06 4.4886e-06)
(1.0484e-06 -5.7281e-06 5.7281e-06)
(1.0333e-06 -4.4886e-06 6.6835e-06)
(1.0162e-06 -3.0574e-06 7.3815e-06)
(1.0194e-06 -1.5423e-06 7.8492e-06)
(1.0278e-06 -6.7723e-11 8.0264e-06)
(4.2877e-07 -3.736e-06 5.6194e-12)
(4.2674e-07 -3.6572e-06 7.1978e-07)
(4.2723e-07 -3.4414e-06 1.4268e-06)
(4.348e-07 -3.1132e-06 2.0912e-06)
(4.4033e-07 -2.6646e-06 2.6646e-06)
(4.3484e-07 -2.0912e-06 3.1131e-06)
(4.273e-07 -1.4268e-06 3.4413e-06)
(4.2686e-07 -7.1981e-07 3.657e-06)
(4.2892e-07 -6.3413e-11 3.7358e-06)
(1.2802e-13 -1.3218e-12 6.2516e-18)
(2.1318e-11 -2.692e-09 -1.4474e-09)
(3.3976e-13 -5.7643e-13 2.3108e-13)
(4.0002e-10 -2.1232e-09 3.0043e-09)
(-1.8988e-13 -1.7596e-12 1.7597e-12)
(3.9907e-10 -3.0015e-09 2.124e-09)
(3.3981e-13 -2.3114e-13 5.7635e-13)
(2.2798e-11 1.446e-09 2.6895e-09)
(1.2808e-13 -3.3542e-17 1.3217e-12)
(8.1363e-06 6.297e-07 3.9621e-06)
(1.3924e-08 -2.7164e-08 3.3541e-08)
(8.0136e-06 1.4256e-06 3.4393e-06)
(4.05e-12 1.107e-12 2.9583e-12)
(8.1357e-06 2.3594e-06 3.2492e-06)
(1.3877e-08 4.2976e-08 4.6542e-09)
(8.2598e-06 3.0542e-06 3.0544e-06)
(2.1538e-12 -2.2408e-13 -2.2407e-13)
(8.1357e-06 3.2488e-06 2.3595e-06)
(1.3877e-08 4.6555e-09 4.2973e-08)
(8.0135e-06 3.4387e-06 1.4257e-06)
(4.0499e-12 2.9582e-12 1.1073e-12)
(8.1362e-06 3.9614e-06 6.2982e-07)
(1.3924e-08 3.3534e-08 -2.7165e-08)
(8.2606e-06 4.3136e-06 6.1165e-11)
(3.2999e-12 1.765e-12 3.507e-17)
(1.4152e-05 7.4993e-07 4.958e-06)
(1.3936e-05 1.7341e-06 4.1832e-06)
(1.4152e-05 2.9809e-06 4.041e-06)
(1.4433e-05 3.9933e-06 3.9937e-06)
(1.4152e-05 4.0402e-06 2.9811e-06)
(1.3936e-05 4.1821e-06 1.7342e-06)
(1.4152e-05 4.9567e-06 7.5007e-07)
(1.4433e-05 5.6363e-06 5.5395e-11)
(1.7244e-05 2.9363e-07 2.11e-06)
(1.7131e-05 7.308e-07 1.7635e-06)
(1.7246e-05 1.2887e-06 1.7052e-06)
(1.7367e-05 1.6665e-06 1.6669e-06)
(1.7246e-05 1.7042e-06 1.2888e-06)
(1.7131e-05 1.7621e-06 7.3075e-07)
(1.7243e-05 2.1083e-06 2.9369e-07)
(1.7363e-05 2.3451e-06 2.0329e-12)
(1.897e-05 -2.1939e-07 -1.0784e-06)
(1.896e-05 -4.118e-07 -9.8953e-07)
(1.8976e-05 -6.0901e-07 -9.1613e-07)
(1.8934e-05 -9.0444e-07 -9.0399e-07)
(1.8975e-05 -9.172e-07 -6.0901e-07)
(1.8959e-05 -9.9117e-07 -4.1198e-07)
(1.897e-05 -1.0803e-06 -2.1944e-07)
(1.8925e-05 -1.2821e-06 -7.8595e-11)
(2.1319e-05 -2.6077e-07 -1.1604e-06)
(2.1301e-05 -4.7669e-07 -1.1388e-06)
(2.1325e-05 -6.4823e-07 -1.0155e-06)
(2.1338e-05 -8.4039e-07 -8.3996e-07)
(2.1325e-05 -1.0166e-06 -6.483e-07)
(2.1301e-05 -1.1406e-06 -4.7694e-07)
(2.1318e-05 -1.1626e-06 -2.6088e-07)
(2.1329e-05 -1.1686e-06 -1.7811e-10)
(2.45e-05 6.8442e-08 7.637e-07)
(2.4436e-05 2.1369e-07 5.2203e-07)
(2.4504e-05 4.6883e-07 5.6073e-07)
(2.4586e-05 6.8741e-07 6.8779e-07)
(2.4504e-05 5.5962e-07 4.6871e-07)
(2.4436e-05 5.202e-07 2.134e-07)
(2.45e-05 7.6138e-07 6.831e-08)
(2.458e-05 1.0208e-06 -2.6646e-10)
(2.7915e-05 3.5386e-07 2.0787e-06)
(2.7873e-05 7.5951e-07 1.8271e-06)
(2.7914e-05 1.1939e-06 1.6789e-06)
(2.7957e-05 1.5316e-06 1.5319e-06)
(2.7913e-05 1.6779e-06 1.1938e-06)
(2.7872e-05 1.8254e-06 7.592e-07)
(2.7914e-05 2.0765e-06 3.537e-07)
(2.7958e-05 2.2357e-06 -3.2921e-10)
(3.1389e-05 3.7238e-07 1.885e-06)
(3.1377e-05 7.4243e-07 1.7724e-06)
(3.1376e-05 1.0545e-06 1.5616e-06)
(3.1378e-05 1.3043e-06 1.3045e-06)
(3.1376e-05 1.5609e-06 1.0544e-06)
(3.1376e-05 1.7711e-06 7.4213e-07)
(3.1389e-05 1.8833e-06 3.7224e-07)
(3.1395e-05 1.9026e-06 -3.8708e-10)
(3.5012e-05 5.5042e-08 2.6684e-07)
(3.5001e-05 1.1391e-07 2.6777e-07)
(3.498e-05 1.6107e-07 2.4048e-07)
(3.497e-05 1.9771e-07 1.9716e-07)
(3.498e-05 2.4007e-07 1.6092e-07)
(3.5001e-05 2.6706e-07 1.1372e-07)
(3.5011e-05 2.6596e-07 5.4965e-08)
(3.5014e-05 2.5702e-07 6.129e-12)
(3.875e-05 -5.5326e-07 -2.7275e-06)
(3.8721e-05 -1.0626e-06 -2.5501e-06)
(3.8706e-05 -1.4907e-06 -2.2268e-06)
(3.8687e-05 -1.8565e-06 -1.8565e-06)
(3.8705e-05 -2.2268e-06 -1.4908e-06)
(3.872e-05 -2.5501e-06 -1.0626e-06)
(3.8749e-05 -2.7275e-06 -5.5324e-07)
(3.8755e-05 -2.7676e-06 -4.8945e-10)
(4.2452e-05 -1.3947e-06 -6.8816e-06)
(4.2415e-05 -2.6818e-06 -6.416e-06)
(4.2402e-05 -3.7942e-06 -5.6745e-06)
(4.2406e-05 -4.7715e-06 -4.7718e-06)
(4.2402e-05 -5.6742e-06 -3.7942e-06)
(4.2415e-05 -6.4154e-06 -2.6817e-06)
(4.2452e-05 -6.8809e-06 -1.3946e-06)
(4.2477e-05 -7.0293e-06 -3.7212e-10)
(4.5942e-05 -2.3053e-06 -1.1509e-05)
(4.5901e-05 -4.4633e-06 -1.0709e-05)
(4.5897e-05 -6.3661e-06 -9.5097e-06)
(4.5915e-05 -8.0314e-06 -8.0315e-06)
(4.5897e-05 -9.5091e-06 -6.366e-06)
(4.5901e-05 -1.0708e-05 -4.4631e-06)
(4.5941e-05 -1.1508e-05 -2.3052e-06)
(4.5977e-05 -1.1786e-05 -5.1078e-10)
(4.9052e-05 -3.0742e-06 -1.5588e-05)
(4.902e-05 -5.9917e-06 -1.4472e-05)
(4.9017e-05 -8.6311e-06 -1.2887e-05)
(4.9028e-05 -1.0939e-05 -1.0939e-05)
(4.9017e-05 -1.2886e-05 -8.6309e-06)
(4.902e-05 -1.4471e-05 -5.9915e-06)
(4.9052e-05 -1.5586e-05 -3.074e-06)
(4.9078e-05 -1.6011e-05 -5.588e-10)
(5.1843e-05 -3.539e-06 -1.7994e-05)
(5.1828e-05 -6.8988e-06 -1.6694e-05)
(5.1822e-05 -9.9548e-06 -1.4874e-05)
(5.1819e-05 -1.2646e-05 -1.2646e-05)
(5.1822e-05 -1.4874e-05 -9.9546e-06)
(5.1828e-05 -1.6692e-05 -6.8984e-06)
(5.1843e-05 -1.7992e-05 -3.5388e-06)
(5.1851e-05 -1.8517e-05 -3.7782e-10)
(5.4448e-05 -3.5577e-06 -1.7842e-05)
(5.4452e-05 -6.8873e-06 -1.6599e-05)
(5.4444e-05 -9.846e-06 -1.4739e-05)
(5.4439e-05 -1.2454e-05 -1.2454e-05)
(5.4444e-05 -1.4738e-05 -9.8457e-06)
(5.4452e-05 -1.6598e-05 -6.8869e-06)
(5.4448e-05 -1.784e-05 -3.5575e-06)
(5.4445e-05 -1.8286e-05 -2.2049e-10)
(5.6961e-05 -3.0777e-06 -1.5161e-05)
(5.6984e-05 -5.909e-06 -1.4152e-05)
(5.6977e-05 -8.3244e-06 -1.2491e-05)
(5.6966e-05 -1.0468e-05 -1.0468e-05)
(5.6977e-05 -1.249e-05 -8.3241e-06)
(5.6985e-05 -1.4151e-05 -5.9085e-06)
(5.6961e-05 -1.5159e-05 -3.0774e-06)
(5.6943e-05 -1.5477e-05 -1.8042e-10)
(5.9371e-05 -2.0896e-06 -1.0301e-05)
(5.9395e-05 -3.9903e-06 -9.5737e-06)
(5.9406e-05 -5.6027e-06 -8.4134e-06)
(5.9411e-05 -7.0437e-06 -7.0423e-06)
(5.9407e-05 -8.413e-06 -5.6023e-06)
(5.9395e-05 -9.573e-06 -3.9898e-06)
(5.9371e-05 -1.03e-05 -2.0893e-06)
(5.936e-05 -1.0541e-05 9.6647e-10)
(6.1574e-05 -7.4226e-07 -3.6502e-06)
(6.1597e-05 -1.3744e-06 -3.3279e-06)
(6.1622e-05 -1.8727e-06 -2.8367e-06)
(6.1629e-05 -2.341e-06 -2.3408e-06)
(6.1622e-05 -2.8367e-06 -1.8723e-06)
(6.1598e-05 -3.3277e-06 -1.3739e-06)
(6.1575e-05 -3.6501e-06 -7.4189e-07)
(6.1563e-05 -3.7734e-06 1.8756e-10)
(6.34e-05 8.644e-07 4.4519e-06)
(6.3439e-05 1.7643e-06 4.2554e-06)
(6.3443e-05 2.668e-06 3.9472e-06)
(6.3439e-05 3.4342e-06 3.4351e-06)
(6.3444e-05 3.9468e-06 2.6684e-06)
(6.3439e-05 4.2549e-06 1.7647e-06)
(6.3401e-05 4.451e-06 8.6477e-07)
(6.3378e-05 4.5278e-06 3.301e-11)
(6.4703e-05 2.651e-06 1.3537e-05)
(6.4759e-05 5.268e-06 1.2747e-05)
(6.4742e-05 7.765e-06 1.1568e-05)
(6.4715e-05 9.9288e-06 9.9295e-06)
(6.4742e-05 1.1567e-05 7.7655e-06)
(6.476e-05 1.2745e-05 5.2684e-06)
(6.4704e-05 1.3535e-05 2.6513e-06)
(6.4663e-05 1.3839e-05 4.5259e-10)
(6.5345e-05 4.602e-06 2.3269e-05)
(6.5383e-05 9.0624e-06 2.1904e-05)
(6.5388e-05 1.322e-05 1.9761e-05)
(6.5384e-05 1.6846e-05 1.6847e-05)
(6.5388e-05 1.9759e-05 1.322e-05)
(6.5383e-05 2.1902e-05 9.0626e-06)
(6.5346e-05 2.3266e-05 4.6023e-06)
(6.5325e-05 2.3742e-05 5.1461e-10)
(6.5272e-05 6.6549e-06 3.3529e-05)
(6.5297e-05 1.3076e-05 3.1554e-05)
(6.5319e-05 1.8991e-05 2.84e-05)
(6.5328e-05 2.4166e-05 2.4167e-05)
(6.5319e-05 2.8397e-05 1.8992e-05)
(6.5297e-05 3.155e-05 1.3076e-05)
(6.5272e-05 3.3524e-05 6.6552e-06)
(6.5261e-05 3.42e-05 6.1708e-10)
(6.4484e-05 8.7997e-06 4.4313e-05)
(6.4527e-05 1.7268e-05 4.1658e-05)
(6.4528e-05 2.507e-05 3.7469e-05)
(6.4519e-05 3.1886e-05 3.1887e-05)
(6.4528e-05 3.7466e-05 2.507e-05)
(6.4528e-05 4.1654e-05 1.7268e-05)
(6.4484e-05 4.4307e-05 8.7998e-06)
(6.4457e-05 4.5226e-05 9.3031e-10)
(6.3107e-05 1.0991e-05 5.5395e-05)
(6.3173e-05 2.1565e-05 5.2027e-05)
(6.3148e-05 3.1309e-05 4.6785e-05)
(6.3112e-05 3.9818e-05 3.9819e-05)
(6.3149e-05 4.6783e-05 3.131e-05)
(6.3173e-05 5.2023e-05 2.1565e-05)
(6.3107e-05 5.5389e-05 1.0991e-05)
(6.3054e-05 5.6565e-05 7.1218e-10)
(6.1268e-05 1.3133e-05 6.6262e-05)
(6.1315e-05 2.5766e-05 6.2211e-05)
(6.1315e-05 3.7412e-05 5.592e-05)
(6.1302e-05 4.759e-05 4.7591e-05)
(6.1315e-05 5.5917e-05 3.7412e-05)
(6.1315e-05 6.2207e-05 2.5766e-05)
(6.1267e-05 6.6256e-05 1.3133e-05)
(6.1235e-05 6.7685e-05 6.7608e-10)
(5.9052e-05 1.506e-05 7.5999e-05)
(5.9081e-05 2.9536e-05 7.1327e-05)
(5.9103e-05 4.2878e-05 6.4094e-05)
(5.9105e-05 5.4552e-05 5.4553e-05)
(5.9103e-05 6.4092e-05 4.2878e-05)
(5.908e-05 7.1324e-05 2.9537e-05)
(5.9051e-05 7.5995e-05 1.5061e-05)
(5.9032e-05 7.7666e-05 8.4518e-10)
(5.6479e-05 1.6635e-05 8.3774e-05)
(5.6506e-05 3.2596e-05 7.8648e-05)
(5.6516e-05 4.7245e-05 7.0627e-05)
(5.6518e-05 6.0059e-05 6.006e-05)
(5.6515e-05 7.0626e-05 4.7245e-05)
(5.6505e-05 7.8647e-05 3.2596e-05)
(5.6478e-05 8.3774e-05 1.6636e-05)
(5.6464e-05 8.5569e-05 4.5774e-10)
(5.3557e-05 1.7756e-05 8.93e-05)
(5.3579e-05 3.4776e-05 8.3851e-05)
(5.3571e-05 5.035e-05 7.5274e-05)
(5.356e-05 6.3976e-05 6.3977e-05)
(5.357e-05 7.5274e-05 5.0351e-05)
(5.3579e-05 8.3851e-05 3.4777e-05)
(5.3556e-05 8.9302e-05 1.7757e-05)
(5.354e-05 9.1193e-05 5.0585e-10)
(5.0271e-05 1.8365e-05 9.25e-05)
(5.0266e-05 3.5983e-05 8.6843e-05)
(5.0258e-05 5.2157e-05 7.7987e-05)
(5.0257e-05 6.631e-05 6.6311e-05)
(5.0258e-05 7.7987e-05 5.2157e-05)
(5.0265e-05 8.6844e-05 3.5984e-05)
(5.027e-05 9.2501e-05 1.8366e-05)
(5.0275e-05 9.4478e-05 2.8481e-10)
(4.6638e-05 1.8492e-05 9.3296e-05)
(4.6609e-05 3.6265e-05 8.7581e-05)
(4.6608e-05 5.2628e-05 7.8686e-05)
(4.661e-05 6.6955e-05 6.6956e-05)
(4.6608e-05 7.8686e-05 5.2628e-05)
(4.6609e-05 8.7582e-05 3.6266e-05)
(4.6637e-05 9.3298e-05 1.8493e-05)
(4.6656e-05 9.5334e-05 6.0777e-10)
(4.269e-05 1.8215e-05 9.1838e-05)
(4.2655e-05 3.5726e-05 8.6247e-05)
(4.2653e-05 5.1846e-05 7.7507e-05)
(4.2666e-05 6.5941e-05 6.5941e-05)
(4.2653e-05 7.7508e-05 5.1847e-05)
(4.2655e-05 8.6248e-05 3.5726e-05)
(4.269e-05 9.1839e-05 1.8216e-05)
(4.2718e-05 9.3798e-05 3.7898e-10)
(3.8542e-05 1.7642e-05 8.8835e-05)
(3.8504e-05 3.4598e-05 8.3457e-05)
(3.8505e-05 5.0195e-05 7.5023e-05)
(3.852e-05 6.3822e-05 6.3822e-05)
(3.8505e-05 7.5023e-05 5.0195e-05)
(3.8504e-05 8.3458e-05 3.4598e-05)
(3.8541e-05 8.8836e-05 1.7642e-05)
(3.8571e-05 9.0699e-05 3.9225e-10)
(3.4334e-05 1.6857e-05 8.4924e-05)
(3.4301e-05 3.3075e-05 7.9806e-05)
(3.4296e-05 4.8015e-05 7.1761e-05)
(3.4304e-05 6.1069e-05 6.1069e-05)
(3.4296e-05 7.1761e-05 4.8015e-05)
(3.43e-05 7.9806e-05 3.3075e-05)
(3.4333e-05 8.4924e-05 1.6857e-05)
(3.4357e-05 8.6708e-05 2.6965e-10)
(3.0242e-05 1.589e-05 8.0153e-05)
(3.0213e-05 3.1201e-05 7.5323e-05)
(3.0204e-05 4.534e-05 6.7762e-05)
(3.0202e-05 5.7698e-05 5.7697e-05)
(3.0204e-05 6.7762e-05 4.534e-05)
(3.0213e-05 7.5323e-05 3.1201e-05)
(3.0241e-05 8.0153e-05 1.589e-05)
(3.0256e-05 8.1857e-05 3.5365e-10)
(2.6377e-05 1.4741e-05 7.4376e-05)
(2.6339e-05 2.8957e-05 6.9916e-05)
(2.6344e-05 4.2096e-05 6.2917e-05)
(2.6361e-05 5.3573e-05 5.3573e-05)
(2.6344e-05 6.2917e-05 4.2096e-05)
(2.6339e-05 6.9916e-05 2.8956e-05)
(2.6376e-05 7.4376e-05 1.4741e-05)
(2.6407e-05 7.5937e-05 3.18e-10)
(2.2738e-05 1.3432e-05 6.7773e-05)
(2.2689e-05 2.6396e-05 6.3721e-05)
(2.271e-05 3.8392e-05 5.7369e-05)
(2.2743e-05 4.8866e-05 4.8866e-05)
(2.271e-05 5.7369e-05 3.8391e-05)
(2.2689e-05 6.3721e-05 2.6396e-05)
(2.2737e-05 6.7773e-05 1.3432e-05)
(2.2781e-05 6.9195e-05 1.9697e-10)
(1.9285e-05 1.2034e-05 6.0677e-05)
(1.9244e-05 2.3651e-05 5.7088e-05)
(1.9258e-05 3.4395e-05 5.1404e-05)
(1.9283e-05 4.3778e-05 4.3777e-05)
(1.9258e-05 5.1404e-05 3.4395e-05)
(1.9244e-05 5.7088e-05 2.365e-05)
(1.9285e-05 6.0677e-05 1.2034e-05)
(1.9321e-05 6.1923e-05 4.3353e-10)
(1.6043e-05 1.059e-05 5.3391e-05)
(1.6005e-05 2.0825e-05 5.026e-05)
(1.602e-05 3.0288e-05 4.5273e-05)
(1.6029e-05 3.8557e-05 3.8557e-05)
(1.602e-05 4.5273e-05 3.0287e-05)
(1.6005e-05 5.0261e-05 2.0825e-05)
(1.6043e-05 5.3391e-05 1.059e-05)
(1.6067e-05 5.4474e-05 -4.6682e-11)
(1.3049e-05 9.1527e-06 4.6187e-05)
(1.3016e-05 1.8005e-05 4.3482e-05)
(1.3031e-05 2.6225e-05 3.9197e-05)
(1.3054e-05 3.34e-05 3.34e-05)
(1.303e-05 3.9197e-05 2.6224e-05)
(1.3016e-05 4.3482e-05 1.8004e-05)
(1.3049e-05 4.6187e-05 9.1521e-06)
(1.308e-05 4.7124e-05 -1.7972e-10)
(1.0352e-05 7.7722e-06 3.9302e-05)
(1.0314e-05 1.5311e-05 3.6989e-05)
(1.0342e-05 2.2345e-05 3.3379e-05)
(1.0375e-05 2.8478e-05 2.8478e-05)
(1.0342e-05 3.3379e-05 2.2345e-05)
(1.0314e-05 3.699e-05 1.531e-05)
(1.0351e-05 3.9301e-05 7.7716e-06)
(1.0387e-05 4.0119e-05 -1.9358e-10)
(7.973e-06 6.5239e-06 3.2942e-05)
(7.9455e-06 1.2852e-05 3.1034e-05)
(7.97e-06 1.8745e-05 2.8004e-05)
(7.9968e-06 2.3883e-05 2.3883e-05)
(7.9699e-06 2.8005e-05 1.8744e-05)
(7.9454e-06 3.1035e-05 1.2852e-05)
(7.9729e-06 3.2942e-05 6.5233e-06)
(8.0008e-06 3.3607e-05 -2.2937e-10)
(5.9296e-06 5.388e-06 2.7158e-05)
(5.9121e-06 1.0609e-05 2.5605e-05)
(5.9301e-06 1.5465e-05 2.3109e-05)
(5.9473e-06 1.9693e-05 1.9693e-05)
(5.9301e-06 2.311e-05 1.5464e-05)
(5.912e-06 2.5605e-05 1.0609e-05)
(5.9296e-06 2.7158e-05 5.3876e-06)
(5.9465e-06 2.768e-05 -2.4044e-10)
(4.2211e-06 4.3352e-06 2.1895e-05)
(4.2026e-06 8.5536e-06 2.0645e-05)
(4.2247e-06 1.248e-05 1.8642e-05)
(4.2447e-06 1.5904e-05 1.5903e-05)
(4.2248e-06 1.8643e-05 1.248e-05)
(4.2026e-06 2.0646e-05 8.5533e-06)
(4.2212e-06 2.1896e-05 4.3349e-06)
(4.2396e-06 2.2328e-05 -2.1821e-10)
(2.8514e-06 3.3523e-06 1.7005e-05)
(2.8304e-06 6.6253e-06 1.6018e-05)
(2.8593e-06 9.7033e-06 1.4484e-05)
(2.8845e-06 1.2381e-05 1.2381e-05)
(2.8593e-06 1.4484e-05 9.7031e-06)
(2.8305e-06 1.6018e-05 6.6251e-06)
(2.8516e-06 1.7005e-05 3.3521e-06)
(2.8736e-06 1.7361e-05 -1.6956e-10)
(1.806e-06 2.4247e-06 1.2336e-05)
(1.7956e-06 4.8034e-06 1.161e-05)
(1.8189e-06 7.0472e-06 1.0506e-05)
(1.839e-06 8.9919e-06 8.9918e-06)
(1.8189e-06 1.0506e-05 7.0471e-06)
(1.7958e-06 1.161e-05 4.8033e-06)
(1.8063e-06 1.2336e-05 2.4246e-06)
(1.8208e-06 1.2603e-05 -9.9828e-11)
(1.0195e-06 1.5422e-06 7.849e-06)
(1.0164e-06 3.0572e-06 7.3811e-06)
(1.0336e-06 4.4882e-06 6.683e-06)