/*--------------------------------*- C++ -*----------------------------------*\
| =========                 |                                                 |
| \\      /  F ield         | OpenFOAM: The Open Source CFD Toolbox           |
|  \\    /   O peration     | Version:  4.1                                   |
|   \\  /    A nd           | Web:      www.OpenFOAM.org                      |
|    \\/     M anipulation  |                                                 |
\*---------------------------------------------------------------------------*/
FoamFile
{
    version     2.0;
    format      ascii;
    class       surfaceScalarField;
    location    "0.0087";
    object      meshPhi;
}
// * * * * * * * * * * * * * * * * * * * * * * * * * * * * * * * * * * * * * //

dimensions      [0 3 -1 0 0 0 0];

internalField   nonuniform List<scalar> 
17536
(
-1.9608e-09
-3.877e-10
-3.8792e-10
5.1963e-10
5.1953e-10
0
-1.2179e-09
-1.2266e-09
1.562e-09
1.5536e-09
-1.8916e-24
-2.0451e-09
-2.0543e-09
2.6819e-09
2.6732e-09
-1.9891e-09
-2.7414e-09
-2.7429e-09
3.7253e-09
3.7246e-09
-1.9984e-09
-3.2873e-09
-3.2891e-09
4.4402e-09
4.4394e-09
-2.5113e-09
-3.6802e-09
-3.6822e-09
4.9643e-09
4.9635e-09
-2.0144e-09
-3.8395e-09
-3.8333e-09
5.1393e-09
5.1467e-09
-2.0214e-09
-3.7664e-09
-3.7602e-09
4.9734e-09
4.9809e-09
-4.0547e-09
-3.4692e-09
-3.4711e-09
4.6289e-09
4.6283e-09
-4.0648e-09
-2.7767e-09
-2.7781e-09
3.7735e-09
3.773e-09
-3.5627e-09
-1.8492e-09
-1.8501e-09
2.5489e-09
2.5486e-09
-4.0789e-09
-9.4054e-10
-9.408e-10
1.3086e-09
1.3086e-09
-4.0821e-09
1.44e-10
1.3612e-10
-1.7594e-10
-1.8393e-10
-4.0822e-09
1.5453e-09
1.5382e-09
-2.0099e-09
-2.0176e-09
-4.2829e-09
3.0121e-09
3.0141e-09
-3.8599e-09
-3.859e-09
-4.1229e-09
4.3964e-09
4.4074e-09
-5.7925e-09
-5.7831e-09
-4.1133e-09
5.8599e-09
5.8717e-09
-7.8027e-09
-7.7932e-09
-3.8455e-09
7.1684e-09
7.1641e-09
-9.3766e-09
-9.3835e-09
-3.6289e-09
8.2419e-09
8.238e-09
-1.076e-08
-1.0767e-08
-3.4104e-09
8.9947e-09
9.0074e-09
-1.1872e-08
-1.1862e-08
-3.0947e-09
9.366e-09
9.3786e-09
-1.2287e-08
-1.2277e-08
-2.6821e-09
9.2655e-09
9.2696e-09
-1.2179e-08
-1.2178e-08
-2.3727e-09
8.6992e-09
8.7029e-09
-1.1557e-08
-1.1556e-08
-2.0359e-09
8.0861e-09
8.0813e-09
-1.066e-08
-1.0667e-08
-1.6905e-09
7.3129e-09
7.3159e-09
-9.6033e-09
-9.6024e-09
-1.5133e-09
6.3153e-09
6.3179e-09
-8.2914e-09
-8.2905e-09
-1.1678e-09
5.0853e-09
5.0793e-09
-6.7325e-09
-6.7399e-09
-9.7045e-10
3.867e-09
3.8606e-09
-5.0892e-09
-5.0968e-09
-9.2036e-10
2.6603e-09
2.6534e-09
-3.3605e-09
-3.3682e-09
-7.7449e-10
1.2848e-09
1.2855e-09
-1.5617e-09
-1.5613e-09
-6.2947e-10
7.2727e-11
7.2967e-11
-8.8987e-11
-8.8782e-11
-7.2696e-10
-8.3087e-10
-8.3101e-10
1.124e-09
1.1241e-09
-5.8257e-10
-1.3529e-09
-1.3614e-09
1.9884e-09
1.9803e-09
-1.9459e-09
-1.5839e-09
-1.5925e-09
2.3349e-09
2.3268e-09
4.3324e-25
-1.5927e-09
-1.5931e-09
2.1646e-09
2.1647e-09
0
-1.2889e-09
-1.2972e-09
1.6478e-09
1.6399e-09
7.2292e-26
-8.4151e-10
-8.4954e-10
1.0373e-09
1.0296e-09
5.4738e-44
-3.1045e-10
-3.0997e-10
3.4255e-10
3.432e-10
1.1295e-21
3.1013e-10
3.1092e-10
-3.4364e-10
-3.4279e-10
-2.2577e-21
6.8517e-10
6.9435e-10
-8.6578e-10
-8.5661e-10
0
6.6928e-10
6.8678e-10
-9.645e-10
-9.4705e-10
-2.8884e-25
7.5006e-10
7.5943e-10
-9.6335e-10
-9.5406e-10
-4.5092e-21
7.5888e-10
7.6007e-10
-8.7431e-10
-8.7321e-10
-4.8799e-10
6.12e-10
6.1309e-10
-6.9399e-10
-6.9297e-10
2.2585e-21
4.5703e-10
4.5796e-10
-6.0417e-10
-6.0326e-10
-1.615e-13
2.2063e-10
2.2135e-10
-3.5212e-10
-3.514e-10
0
6.5296e-11
6.5757e-11
-9.8612e-11
-9.8138e-11
-8.2783e-12
-8.1193e-12
-8.2816e-12
-8.116e-12
-1.9616e-09
-3.1279e-10
-3.6359e-10
5.8495e-10
4.5589e-21
-8.5025e-10
-1.162e-09
1.677e-09
-2.2902e-21
-1.3861e-09
-1.9579e-09
2.7663e-09
-1.9915e-09
-1.8755e-09
-2.6802e-09
3.6819e-09
-2.0015e-09
-2.3112e-09
-3.2357e-09
4.4984e-09
-3.5207e-09
-2.7042e-09
-3.608e-09
5.1855e-09
-2.0188e-09
-2.7577e-09
-3.7866e-09
5.3078e-09
-2.5347e-09
-2.617e-09
-3.6954e-09
5.1214e-09
-4.0652e-09
-2.3763e-09
-3.3501e-09
4.72e-09
-4.0764e-09
-1.8678e-09
-2.7268e-09
3.7634e-09
-2.5526e-09
-1.3442e-09
-1.9031e-09
2.5493e-09
-4.0915e-09
-6.9877e-10
-9.004e-10
1.296e-09
-4.0949e-09
1.7075e-10
1.9483e-10
-3.0118e-10
-4.0944e-09
1.0925e-09
1.5425e-09
-2.1181e-09
-4.2953e-09
2.1552e-09
3.0723e-09
-4.0425e-09
-4.2368e-09
3.2093e-09
4.4359e-09
-6.0571e-09
-4.0719e-09
4.0946e-09
5.7124e-09
-8.0659e-09
-3.8546e-09
4.918e-09
7.0649e-09
-9.6911e-09
-3.6353e-09
5.5647e-09
8.1307e-09
-1.1002e-08
-3.4163e-09
5.9512e-09
8.6688e-09
-1.207e-08
-3.0988e-09
6.1872e-09
9.0053e-09
-1.2538e-08
-2.7346e-09
6.117e-09
8.8943e-09
-1.2408e-08
-2.3745e-09
5.8663e-09
8.4399e-09
-1.1794e-08
-2.0415e-09
5.4374e-09
7.8811e-09
-1.0865e-08
-1.7051e-09
4.9044e-09
7.0568e-09
-9.8279e-09
-1.4639e-09
4.2436e-09
6.0652e-09
-8.5119e-09
-1.216e-09
3.3745e-09
4.9076e-09
-6.8446e-09
-9.7029e-10
2.5403e-09
3.7375e-09
-5.1594e-09
-8.7164e-10
1.7247e-09
2.5709e-09
-3.4557e-09
-7.7433e-10
9.0269e-10
1.3256e-09
-1.6903e-09
-6.7758e-10
1.3787e-10
8.9158e-11
-1.8633e-10
-6.7826e-10
-5.2134e-10
-7.9805e-10
1.107e-09
-5.3375e-10
-9.3697e-10
-1.2629e-09
1.9872e-09
-1.9454e-09
-1.1997e-09
-1.6161e-09
2.2931e-09
2.2538e-21
-1.2249e-09
-1.6823e-09
2.1966e-09
-1.1281e-21
-8.3202e-10
-1.2399e-09
1.6966e-09
1.1292e-21
-3.9212e-10
-7.106e-10
9.9661e-10
1.1296e-21
-2.4483e-11
-2.6098e-10
2.2041e-10
-1.1297e-21
1.8794e-10
2.6188e-10
-3.8408e-10
2.2579e-21
3.5098e-10
6.1271e-10
-7.9995e-10
4.5125e-21
5.6365e-10
7.0308e-10
-1.0047e-09
-4.8779e-10
5.5518e-10
7.8433e-10
-1.0116e-09
0
4.0008e-10
7.0275e-10
-9.1447e-10
-5.4065e-25
3.5118e-10
5.3139e-10
-7.9209e-10
-4.8841e-10
3.1011e-10
4.4115e-10
-5.8817e-10
-4.8893e-10
2.6121e-10
3.5189e-10
-3.1022e-10
-2.2605e-21
2.9491e-10
2.541e-10
-2.0488e-10
1.5574e-10
8.2045e-11
-9.8365e-11
-1.9622e-09
-1.5648e-10
-4.2857e-10
5.8527e-10
2.2798e-21
-4.7414e-10
-1.1943e-09
1.7342e-09
2.2939e-21
-7.9932e-10
-1.9576e-09
2.8724e-09
-1.9937e-09
-9.8304e-10
-2.7209e-09
3.7639e-09
-2.0042e-09
-1.1522e-09
-3.2848e-09
4.614e-09
-4.0277e-09
-1.2296e-09
-3.641e-09
5.3047e-09
-2.0226e-09
-1.3219e-09
-3.8528e-09
5.4621e-09
-3.0473e-09
-1.4456e-09
-3.8295e-09
5.3366e-09
-4.0743e-09
-1.2759e-09
-3.4199e-09
4.8693e-09
-4.0858e-09
-9.7214e-10
-2.7688e-09
3.8717e-09
-2.0477e-09
-6.6427e-10
-1.9779e-09
2.6642e-09
-4.1018e-09
-3.6645e-10
-9.6689e-10
1.3028e-09
-4.1049e-09
1.1445e-10
2.5263e-10
-4.4239e-10
-4.1044e-09
6.3825e-10
1.6501e-09
-2.2595e-09
-4.3057e-09
1.1203e-09
3.164e-09
-4.1924e-09
-4.2463e-09
1.6601e-09
4.6104e-09
-6.3071e-09
-4.0806e-09
2.1323e-09
5.9527e-09
-8.2495e-09
-3.862e-09
2.4198e-09
7.1818e-09
-9.8667e-09
-3.6412e-09
2.7217e-09
8.0814e-09
-1.1292e-08
-3.421e-09
3.0808e-09
8.7272e-09
-1.2327e-08
-3.1023e-09
3.1816e-09
9.121e-09
-1.2686e-08
-2.786e-09
3.1095e-09
9.0096e-09
-1.2541e-08
-2.3754e-09
3.0124e-09
8.5791e-09
-1.2098e-08
-2.045e-09
2.8662e-09
7.9953e-09
-1.1226e-08
-1.7198e-09
2.5587e-09
7.1945e-09
-1.0033e-08
-1.3665e-09
2.1628e-09
6.2024e-09
-8.6097e-09
-1.2157e-09
1.8253e-09
5.1016e-09
-6.9746e-09
-9.7002e-10
1.3594e-09
3.8098e-09
-5.3142e-09
-8.7136e-10
8.4614e-10
2.5133e-09
-3.5371e-09
-7.7394e-10
4.9597e-10
1.382e-09
-1.7716e-09
-7.7419e-10
1.6167e-11
1.9469e-10
-1.3753e-10
-5.8124e-10
-3.1751e-10
-7.6544e-10
1.164e-09
-5.3367e-10
-4.563e-10
-1.4091e-09
1.922e-09
-1.945e-09
-6.6901e-10
-1.8031e-09
2.3663e-09
2.2534e-21
-6.2056e-10
-1.6984e-09
2.3353e-09
1.9867e-25
-4.4859e-10
-1.2806e-09
1.6802e-09
0
-2.5323e-10
-7.5151e-10
8.9039e-10
1.1296e-21
-6.5308e-11
-2.2041e-10
1.796e-10
3.3881e-21
-1.6352e-11
1.3074e-10
-3.5138e-10
2.2579e-21
8.159e-11
4.571e-10
-7.4278e-10
0
1.6338e-10
6.6167e-10
-1.0619e-09
-9.7529e-10
2.3675e-10
7.5156e-10
-1.0687e-09
4.5094e-21
3.5921e-10
7.3463e-10
-9.5533e-10
4.5121e-21
1.7152e-10
4.5734e-10
-8.1665e-10
-9.767e-10
6.521e-11
3.5036e-10
-5.8002e-10
-4.8879e-10
1.3081e-10
4.001e-10
-3.5131e-10
-2.2606e-21
1.0648e-10
2.7843e-10
-3.0309e-10
6.558e-11
9.0161e-11
-1.8033e-10
-1.9625e-09
0
-4.2868e-10
6.0165e-10
-2.282e-21
0
-1.1946e-09
1.7018e-09
0
0
-1.9578e-09
2.7909e-09
-1.9947e-09
0
-2.6966e-09
3.7314e-09
-2.0055e-09
0
-3.2607e-09
4.6468e-09
-4.031e-09
0
-3.6171e-09
5.264e-09
-2.0244e-09
0
-3.8204e-09
5.5614e-09
-3.0503e-09
0
-3.8386e-09
5.3697e-09
-4.0788e-09
-8.2546e-12
-3.4287e-09
4.7952e-09
-4.0911e-09
-8.2978e-12
-2.7612e-09
3.9799e-09
-2.0501e-09
-8.2875e-12
-1.9455e-09
2.6726e-09
-4.1073e-09
-8.3207e-12
-9.257e-10
1.3197e-09
-4.1104e-09
0
2.8585e-10
-4.0093e-10
-4.1098e-09
0
1.6671e-09
-2.3258e-09
-4.3111e-09
8.3251e-12
3.1237e-09
-4.276e-09
-4.2003e-09
-3.9711e-14
4.5949e-09
-6.3157e-09
-4.085e-09
-1.668e-11
6.0205e-09
-8.2663e-09
-3.8655e-09
-8.3514e-12
7.1918e-09
-1.0082e-08
-3.6446e-09
0
8.0991e-09
-1.1499e-08
-3.4232e-09
8.2313e-12
8.8775e-09
-1.2494e-08
-3.1041e-09
8.1911e-12
9.2622e-09
-1.2794e-08
-2.7372e-09
0
9.1499e-09
-1.2582e-08
-2.3761e-09
0
8.7109e-09
-1.2204e-08
-2.0464e-09
0
8.0937e-09
-1.1439e-08
-1.7247e-09
0
7.2847e-09
-1.0139e-08
-1.3664e-09
0
6.2761e-09
-8.5528e-09
-1.2157e-09
0
5.1827e-09
-7.1053e-09
-9.6977e-10
0
3.8827e-09
-5.4855e-09
-9.6799e-10
0
2.5459e-09
-3.6023e-09
-7.7382e-10
0
1.3739e-09
-1.7229e-09
-7.2565e-10
0
2.0283e-10
-4.0091e-11
-5.8114e-10
0
-7.4912e-10
1.2614e-09
-5.8208e-10
0
-1.4174e-09
2.0847e-09
-1.9446e-09
0
-1.7705e-09
2.4884e-09
2.2532e-21
0
-1.6495e-09
2.3028e-09
2.5286e-25
0
-1.3295e-09
1.6313e-09
2.2581e-21
0
-8.2501e-10
9.3123e-10
-1.1295e-21
0
-2.3673e-10
3.0203e-10
-1.1299e-21
0
1.3075e-10
-3.1053e-10
2.2579e-21
0
4.3261e-10
-7.2652e-10
0
0
6.4532e-10
-1.0211e-09
-9.7536e-10
0
7.5155e-10
-1.183e-09
9.0265e-25
0
7.6724e-10
-1.1595e-09
-2.8898e-25
-8.1684e-12
5.2268e-10
-8.8192e-10
-4.8844e-10
-8.1753e-12
3.5917e-10
-4.3295e-10
6.7811e-21
0
3.4319e-10
-3.1115e-10
-6.5073e-25
0
1.7197e-10
-4.4224e-10
0
2.459e-11
-2.541e-10
-1.9625e-09
1.5648e-10
-4.2868e-10
6.0165e-10
-2.282e-21
4.7414e-10
-1.1946e-09
1.7018e-09
-2.2907e-21
7.9932e-10
-1.9578e-09
2.7909e-09
-1.9947e-09
9.8304e-10
-2.6966e-09
3.7314e-09
-2.0055e-09
1.144e-09
-3.2689e-09
4.6468e-09
-4.031e-09
1.3039e-09
-3.7077e-09
5.264e-09
-2.0244e-09
1.4044e-09
-3.9027e-09
5.5614e-09
-3.0503e-09
1.4457e-09
-3.8387e-09
5.3697e-09
-4.0788e-09
1.2676e-09
-3.4369e-09
4.7952e-09
-4.0911e-09
9.6384e-10
-2.7695e-09
3.9799e-09
-2.0501e-09
6.6427e-10
-1.9455e-09
2.6726e-09
-4.1073e-09
3.6645e-10
-9.2568e-10
1.3197e-09
-4.1104e-09
-1.1442e-10
2.7758e-10
-4.0925e-10
-4.1098e-09
-6.3829e-10
1.6588e-09
-2.3341e-09
-4.3111e-09
-1.1119e-09
3.1236e-09
-4.2844e-09
-4.2003e-09
-1.6517e-09
4.5866e-09
-6.3323e-09
-4.0849e-09
-2.1324e-09
6.0121e-09
-8.2746e-09
-3.8655e-09
-2.4198e-09
7.1835e-09
-1.0091e-08
-3.6446e-09
-2.7135e-09
8.0992e-09
-1.1507e-08
-3.4232e-09
-3.0644e-09
8.894e-09
-1.2494e-08
-3.1041e-09
-3.1816e-09
9.2704e-09
-1.2786e-08
-2.7372e-09
-3.1094e-09
9.1499e-09
-1.2582e-08
-2.3761e-09
-2.9959e-09
8.7109e-09
-1.2221e-08
-2.0464e-09
-2.858e-09
8.0937e-09
-1.1447e-08
-1.7247e-09
-2.5668e-09
7.2847e-09
-1.0131e-08
-1.3664e-09
-2.1709e-09
6.2761e-09
-8.5447e-09
-1.2157e-09
-1.8334e-09
5.1827e-09
-7.0972e-09
-9.6977e-10
-1.3756e-09
3.8827e-09
-5.4693e-09
-9.6799e-10
-8.5424e-10
2.5459e-09
-3.5942e-09
-7.7382e-10
-4.9597e-10
1.3739e-09
-1.7229e-09
-7.2565e-10
-1.6167e-11
2.0283e-10
-4.0091e-11
-5.8114e-10
3.1751e-10
-7.4912e-10
1.2614e-09
-5.8208e-10
4.563e-10
-1.4174e-09
2.0847e-09
-1.9446e-09
6.6901e-10
-1.7705e-09
2.4884e-09
-5.7753e-25
6.2056e-10
-1.6495e-09
2.3028e-09
2.348e-25
4.4042e-10
-1.3376e-09
1.6313e-09
-1.1293e-21
2.4505e-10
-8.3317e-10
9.3123e-10
-1.1295e-21
6.5308e-11
-2.3673e-10
3.0203e-10
-1.1295e-21
1.6352e-11
1.3075e-10
-3.1053e-10
2.2579e-21
-8.159e-11
4.3261e-10
-7.2652e-10
2.2556e-21
-1.6338e-10
6.4532e-10
-1.0211e-09
-9.7536e-10
-2.3675e-10
7.5155e-10
-1.183e-09
9.0265e-25
-3.5921e-10
7.6724e-10
-1.1595e-09
0
-1.7152e-10
5.2268e-10
-8.8192e-10
-4.8844e-10
-6.521e-11
3.5917e-10
-4.3295e-10
2.2604e-21
-1.3081e-10
3.4319e-10
-3.1115e-10
4.5208e-21
-1.0648e-10
1.7197e-10
-4.4224e-10
-6.558e-11
2.459e-11
-2.541e-10
-1.9622e-09
3.1279e-10
-4.2857e-10
5.8527e-10
4.561e-21
8.5025e-10
-1.1943e-09
1.7342e-09
0
1.3861e-09
-1.9576e-09
2.8724e-09
-1.9937e-09
1.8673e-09
-2.7209e-09
3.7721e-09
-2.0042e-09
2.303e-09
-3.293e-09
4.6222e-09
-4.0274e-09
2.696e-09
-3.7314e-09
5.3129e-09
-2.0226e-09
2.7494e-09
-3.9349e-09
5.4704e-09
-3.0474e-09
2.7078e-09
-3.9121e-09
5.3284e-09
-4.0743e-09
2.4754e-09
-3.5023e-09
4.8611e-09
-4.0858e-09
1.8927e-09
-2.7606e-09
3.8634e-09
-2.0477e-09
1.3525e-09
-1.9697e-09
2.6642e-09
-4.1018e-09
6.8211e-10
-9.7516e-10
1.3111e-09
-4.1049e-09
-1.8743e-10
2.2782e-10
-4.5068e-10
-4.1044e-09
-1.0926e-09
1.6418e-09
-2.2677e-09
-4.3057e-09
-2.1468e-09
3.1641e-09
-4.209e-09
-4.2463e-09
-3.2009e-09
4.6022e-09
-6.332e-09
-4.0806e-09
-4.0947e-09
5.9444e-09
-8.2578e-09
-3.862e-09
-4.9348e-09
7.1571e-09
-9.8749e-09
-3.6413e-09
-5.5814e-09
8.0649e-09
-1.13e-08
-3.421e-09
-5.9677e-09
8.7353e-09
-1.2319e-08
-3.1022e-09
-6.1954e-09
9.1291e-09
-1.267e-08
-2.786e-09
-6.117e-09
9.0096e-09
-1.2541e-08
-2.3754e-09
-5.8663e-09
8.5791e-09
-1.2115e-08
-2.045e-09
-5.4374e-09
7.9953e-09
-1.1234e-08
-1.7199e-09
-4.9045e-09
7.1946e-09
-1.0024e-08
-1.3665e-09
-4.2519e-09
6.1944e-09
-8.6015e-09
-1.2157e-09
-3.3827e-09
5.0935e-09
-6.9665e-09
-9.7002e-10
-2.5322e-09
3.8179e-09
-5.2978e-09
-8.7136e-10
-1.7166e-09
2.5214e-09
-3.5289e-09
-7.7394e-10
-9.0269e-10
1.382e-09
-1.7716e-09
-7.7419e-10
-1.3787e-10
1.9469e-10
-1.3753e-10
-5.8124e-10
5.2134e-10
-7.6544e-10
1.164e-09
-5.3367e-10
9.3697e-10
-1.4091e-09
1.922e-09
-1.945e-09
1.1997e-09
-1.8031e-09
2.3663e-09
1.1264e-21
1.2249e-09
-1.6984e-09
2.3353e-09
1.9867e-25
8.3202e-10
-1.2887e-09
1.6802e-09
-1.0842e-25
3.9212e-10
-7.5968e-10
8.9039e-10
-1.1296e-21
2.4483e-11
-2.2041e-10
1.796e-10
1.1295e-21
-1.8794e-10
1.3074e-10
-3.5138e-10
2.2572e-21
-3.5098e-10
4.571e-10
-7.4278e-10
2.2555e-21
-5.5548e-10
6.6983e-10
-1.0619e-09
-9.7529e-10
-5.4701e-10
7.5973e-10
-1.0687e-09
2.2546e-21
-4.0008e-10
7.3463e-10
-9.5533e-10
0
-3.5118e-10
4.5734e-10
-8.1665e-10
-9.767e-10
-3.1011e-10
3.5036e-10
-5.8002e-10
-4.8879e-10
-2.6121e-10
4.001e-10
-3.5131e-10
-2.2602e-21
-2.9491e-10
2.7843e-10
-3.0309e-10
-1.5574e-10
9.0161e-11
-1.8033e-10
-1.9616e-09
3.8777e-10
-3.6352e-10
5.8495e-10
-1.3067e-24
1.2181e-09
-1.1618e-09
1.677e-09
1.9652e-24
2.0454e-09
-1.9576e-09
2.7663e-09
-1.9915e-09
2.7419e-09
-2.6797e-09
3.69e-09
-2.0015e-09
3.2878e-09
-3.2352e-09
4.5066e-09
-3.5207e-09
3.6808e-09
-3.6075e-09
5.1936e-09
-2.0188e-09
3.8318e-09
-3.7861e-09
5.3242e-09
-2.5345e-09
3.7587e-09
-3.7774e-09
5.1214e-09
-4.0653e-09
3.5523e-09
-3.5063e-09
4.7117e-09
-4.0764e-09
2.8595e-09
-2.7923e-09
3.7551e-09
-2.5526e-09
1.8413e-09
-1.8945e-09
2.5576e-09
-4.0916e-09
9.2412e-10
-9.0841e-10
1.3208e-09
-4.0949e-09
-2.2674e-10
2.614e-10
-3.0118e-10
-4.0944e-09
-1.6196e-09
1.6251e-09
-2.1264e-09
-4.2953e-09
-3.0124e-09
3.072e-09
-4.0507e-09
-4.2367e-09
-4.3968e-09
4.4355e-09
-6.0653e-09
-4.0719e-09
-5.8604e-09
5.712e-09
-8.0658e-09
-3.8546e-09
-7.169e-09
7.0479e-09
-9.6911e-09
-3.6353e-09
-8.2425e-09
8.1137e-09
-1.1002e-08
-3.4163e-09
-9.0034e-09
8.6601e-09
-1.2053e-08
-3.0988e-09
-9.3746e-09
9.005e-09
-1.2521e-08
-2.7346e-09
-9.274e-09
8.894e-09
-1.24e-08
-2.3745e-09
-8.7075e-09
8.4398e-09
-1.1786e-08
-2.0415e-09
-8.078e-09
7.8811e-09
-1.0874e-08
-1.7051e-09
-7.3047e-09
7.0567e-09
-9.8361e-09
-1.4639e-09
-6.3072e-09
6.057e-09
-8.5201e-09
-1.216e-09
-5.0852e-09
4.8994e-09
-6.8447e-09
-9.7029e-10
-3.8751e-09
3.7457e-09
-5.1513e-09
-8.7164e-10
-2.6602e-09
2.5791e-09
-3.4557e-09
-7.7433e-10
-1.2847e-09
1.3257e-09
-1.6903e-09
-6.7758e-10
-7.2527e-11
8.9358e-11
-1.8633e-10
-6.7826e-10
8.3112e-10
-7.978e-10
1.107e-09
-5.3375e-10
1.3532e-09
-1.2627e-09
1.9872e-09
-1.9454e-09
1.5842e-09
-1.6158e-09
2.2931e-09
1.1271e-21
1.593e-09
-1.6821e-09
2.1966e-09
1.1292e-21
1.2973e-09
-1.2397e-09
1.6884e-09
1.1294e-21
8.4981e-10
-7.1047e-10
9.8844e-10
-2.2592e-21
3.1047e-10
-2.6096e-10
2.2041e-10
-1.1297e-21
-3.1023e-10
2.6178e-10
-3.8408e-10
0
-6.8539e-10
6.1249e-10
-7.9995e-10
0
-6.696e-10
7.1093e-10
-1.0047e-09
-4.8779e-10
-7.5046e-10
7.921e-10
-1.0116e-09
6.1357e-25
-7.5933e-10
7.023e-10
-9.1447e-10
-2.2562e-21
-6.1245e-10
5.3094e-10
-7.9209e-10
-4.8841e-10
-4.5745e-10
4.4072e-10
-5.8817e-10
-4.8893e-10
-2.2098e-10
3.5154e-10
-3.1022e-10
-2.2608e-21
-6.5532e-11
2.5386e-10
-2.0488e-10
8.1949e-12
8.1961e-11
-9.8365e-11
-1.9608e-09
-3.8785e-10
5.1956e-10
5.1959e-10
-2.2781e-21
-1.2264e-09
1.5618e-09
1.5538e-09
0
-2.054e-09
2.6816e-09
2.6735e-09
-1.9891e-09
-2.7424e-09
3.7249e-09
3.725e-09
-1.9984e-09
-3.2886e-09
4.4397e-09
4.4398e-09
-2.5113e-09
-3.6817e-09
4.9639e-09
4.9639e-09
-2.0144e-09
-3.8327e-09
5.147e-09
5.1471e-09
-2.0214e-09
-3.7596e-09
4.9812e-09
4.9813e-09
-4.0544e-09
-3.553e-09
4.6284e-09
4.6287e-09
-4.0648e-09
-2.8682e-09
3.7731e-09
3.7652e-09
-3.5627e-09
-1.8497e-09
2.5567e-09
2.5489e-09
-4.0788e-09
-9.3225e-10
1.3249e-09
1.3171e-09
-4.0824e-09
2.1901e-10
-1.7604e-10
-1.8383e-10
-4.0822e-09
1.6206e-09
-2.018e-09
-2.0176e-09
-4.2829e-09
3.0055e-09
-3.8598e-09
-3.8675e-09
-4.1229e-09
4.3904e-09
-5.7923e-09
-5.8e-09
-4.1133e-09
5.8629e-09
-7.8024e-09
-7.8018e-09
-3.8455e-09
7.1636e-09
-9.3763e-09
-9.3838e-09
-3.6289e-09
8.2374e-09
-1.076e-08
-1.0767e-08
-3.4101e-09
9.0068e-09
-1.1782e-08
-1.1781e-08
-3.0947e-09
9.3782e-09
-1.2196e-08
-1.2195e-08
-2.6821e-09
9.2693e-09
-1.2171e-08
-1.2178e-08
-2.3727e-09
8.7027e-09
-1.1549e-08
-1.1556e-08
-2.0359e-09
8.0812e-09
-1.0668e-08
-1.0667e-08
-1.6905e-09
7.3158e-09
-9.6115e-09
-9.6022e-09
-1.5133e-09
6.3178e-09
-8.2996e-09
-8.2904e-09
-1.1678e-09
5.0793e-09
-6.7325e-09
-6.7398e-09
-9.7045e-10
3.8606e-09
-5.0811e-09
-5.0966e-09
-9.2037e-10
2.6616e-09
-3.3606e-09
-3.3599e-09
-7.7449e-10
1.2938e-09
-1.5618e-09
-1.5531e-09
-6.2947e-10
7.3167e-11
-8.9166e-11
-8.8603e-11
-7.2696e-10
-8.3076e-10
1.1238e-09
1.1243e-09
-5.8258e-10
-1.353e-09
1.9881e-09
1.9887e-09
-1.9459e-09
-1.5841e-09
2.3347e-09
2.3352e-09
4.3324e-25
-1.5928e-09
2.1644e-09
2.1649e-09
1.1288e-21
-1.2888e-09
1.6395e-09
1.6482e-09
1.1294e-21
-8.4124e-10
1.0291e-09
1.0378e-09
2.2595e-21
-3.0996e-10
3.4259e-10
3.4316e-10
-1.1296e-21
3.1081e-10
-3.4349e-10
-3.4295e-10
0
6.9413e-10
-8.6552e-10
-8.5687e-10
-2.2561e-21
6.8645e-10
-9.6415e-10
-9.474e-10
-2.2551e-21
7.5903e-10
-9.6294e-10
-9.5447e-10
-2.166e-25
7.5963e-10
-8.7387e-10
-8.7366e-10
-4.8799e-10
6.1263e-10
-6.9355e-10
-6.9341e-10
-2.259e-21
4.5754e-10
-6.0375e-10
-6.0368e-10
-1.615e-13
2.2099e-10
-3.5177e-10
-3.5174e-10
2.2608e-21
6.552e-11
-9.8378e-11
-9.8373e-11
-8.2027e-12
-8.1984e-12
-8.1992e-12
-1.9616e-09
-3.6337e-10
-3.1281e-10
5.8495e-10
-1.3079e-24
-1.1614e-09
-8.5026e-10
1.6688e-09
0
-1.9488e-09
-1.3942e-09
2.7582e-09
-1.9915e-09
-2.6706e-09
-1.8756e-09
3.6901e-09
-2.0016e-09
-3.2258e-09
-2.3113e-09
4.5067e-09
-3.5208e-09
-3.598e-09
-2.7127e-09
5.1855e-09
-2.0189e-09
-3.7848e-09
-2.7495e-09
5.3243e-09
-2.5347e-09
-3.6937e-09
-2.6089e-09
5.1379e-09
-4.0654e-09
-3.3403e-09
-2.3848e-09
4.72e-09
-4.0766e-09
-2.7174e-09
-1.8845e-09
3.7552e-09
-2.5527e-09
-1.9024e-09
-1.3443e-09
2.5494e-09
-4.0918e-09
-9.0022e-10
-6.9885e-10
1.2961e-09
-4.0952e-09
1.9442e-10
1.6245e-10
-3.1768e-10
-4.0946e-09
1.5414e-09
1.0926e-09
-2.1265e-09
-4.2955e-09
3.0706e-09
2.1554e-09
-4.0426e-09
-4.2369e-09
4.4419e-09
3.2012e-09
-6.049e-09
-4.072e-09
5.7096e-09
4.0949e-09
-8.0577e-09
-3.8548e-09
7.0451e-09
4.9434e-09
-9.6912e-09
-3.6354e-09
8.1105e-09
5.59e-09
-1.1002e-08
-3.4164e-09
8.6485e-09
5.9764e-09
-1.2053e-08
-3.0989e-09
8.9933e-09
6.2122e-09
-1.2513e-08
-2.7347e-09
8.8906e-09
6.1254e-09
-1.24e-08
-2.3745e-09
8.4364e-09
5.8747e-09
-1.1786e-08
-2.041e-09
7.8697e-09
5.4456e-09
-1.0874e-08
-1.7051e-09
7.0456e-09
4.9045e-09
-9.8361e-09
-1.4639e-09
6.0544e-09
4.2519e-09
-8.512e-09
-1.216e-09
4.8972e-09
3.3827e-09
-6.8528e-09
-9.7028e-10
3.7358e-09
2.5403e-09
-5.1675e-09
-8.7163e-10
2.5697e-09
1.7247e-09
-3.4638e-09
-7.7432e-10
1.333e-09
8.9457e-10
-1.6903e-09
-6.7757e-10
9.7045e-11
1.2976e-10
-1.8633e-10
-6.7825e-10
-7.9791e-10
-5.2134e-10
1.107e-09
-5.3375e-10
-1.2544e-09
-9.4509e-10
1.979e-09
-1.9454e-09
-1.5994e-09
-1.216e-09
2.2849e-09
1.1266e-21
-1.6738e-09
-1.233e-09
2.1966e-09
5.5993e-25
-1.2397e-09
-8.2387e-10
1.6966e-09
1.1292e-21
-7.1074e-10
-3.8395e-10
9.9661e-10
2.2592e-21
-2.6145e-10
-2.4483e-11
2.2041e-10
2.7158e-25
2.611e-10
1.8794e-10
-3.8408e-10
0
6.1169e-10
3.5098e-10
-7.918e-10
-4.5119e-21
7.0191e-10
5.6365e-10
-9.8838e-10
-4.8779e-10
7.8311e-10
5.5518e-10
-1.0035e-09
2.2549e-21
7.0156e-10
4.0008e-10
-9.1447e-10
-2.2557e-21
5.3031e-10
3.5118e-10
-7.9209e-10
-4.8841e-10
4.4022e-10
3.1011e-10
-5.8817e-10
-4.8893e-10
3.5117e-10
2.6121e-10
-3.1022e-10
0
2.5364e-10
2.9491e-10
-2.0488e-10
8.1886e-11
1.5574e-10
-9.8365e-11
-1.9612e-09
-2.9643e-10
-2.9666e-10
0
-8.8275e-10
-8.8343e-10
1.5641e-24
-1.3861e-09
-1.3954e-09
-1.9882e-09
-1.8268e-09
-1.8365e-09
-1.997e-09
-2.1974e-09
-2.2075e-09
-4.0104e-09
-2.5006e-09
-2.5109e-09
-2.0129e-09
-2.5787e-09
-2.5808e-09
-3.5358e-09
-2.4231e-09
-2.4252e-09
-4.051e-09
-2.208e-09
-2.2181e-09
-4.0611e-09
-1.8455e-09
-1.8552e-09
-2.0347e-09
-1.3376e-09
-1.3385e-09
-4.0748e-09
-6.0046e-10
-6.007e-10
-4.0778e-09
2.126e-10
2.131e-10
-4.0769e-09
1.1106e-09
1.1119e-09
-4.2776e-09
2.1584e-09
2.1605e-09
-4.27e-09
3.1224e-09
3.117e-09
-4.0556e-09
3.9178e-09
3.9214e-09
-3.8402e-09
4.7919e-09
4.8126e-09
-3.6232e-09
5.5295e-09
5.5504e-09
-3.3565e-09
5.8739e-09
5.8951e-09
-2.9912e-09
6.0839e-09
6.0969e-09
-2.7289e-09
5.9966e-09
6.0011e-09
-2.3702e-09
5.6794e-09
5.6836e-09
-2.0448e-09
5.2248e-09
5.2368e-09
-1.7236e-09
4.716e-09
4.7275e-09
-1.4149e-09
4.1363e-09
4.1473e-09
-1.2647e-09
3.4054e-09
3.4159e-09
-9.7084e-10
2.6122e-09
2.6141e-09
-8.7244e-10
1.7398e-09
1.7412e-09
-7.7502e-10
8.6953e-10
8.622e-10
-6.7827e-10
7.2754e-11
6.4916e-11
-6.3048e-10
-5.8603e-10
-5.8617e-10
-4.8561e-10
-9.3646e-10
-9.45e-10
-1.946e-09
-1.1584e-09
-1.1752e-09
-1.1272e-21
-1.1755e-09
-1.1841e-09
-1.1281e-21
-7.9921e-10
-7.9943e-10
2.2579e-21
-4.3297e-10
-4.3286e-10
-1.1295e-21
-1.4716e-10
-1.467e-10
-2.259e-21
1.4668e-10
1.4748e-10
0
3.6679e-10
3.6784e-10
0
4.4049e-10
4.4171e-10
-1.4631e-09
5.2216e-10
5.2344e-10
4.5106e-21
5.2179e-10
5.2303e-10
2.2562e-21
2.8527e-10
2.864e-10
-9.7678e-10
2.1171e-10
2.1267e-10
-2.2599e-21
3.0205e-10
3.0279e-10
0
2.3725e-10
2.3772e-10
8.1885e-11
8.2046e-11
-1.9613e-09
-1.727e-10
-3.0492e-10
-2.2789e-21
-4.0902e-10
-8.9989e-10
-2.2886e-21
-6.4445e-10
-1.3956e-09
-1.9893e-09
-9.0166e-10
-1.8124e-09
-1.9985e-09
-1.0789e-09
-2.2e-09
-3.5135e-09
-1.1717e-09
-2.509e-09
-2.5199e-09
-1.2574e-09
-2.5653e-09
-4.0434e-09
-1.3333e-09
-2.4454e-09
-4.0561e-09
-1.1706e-09
-2.252e-09
-4.0665e-09
-9.235e-10
-1.881e-09
-2.0372e-09
-6.6507e-10
-1.3228e-09
-4.0802e-09
-3.3342e-10
-5.5133e-10
-4.083e-09
8.1512e-11
2.7121e-10
-4.0825e-09
5.8882e-10
1.1456e-09
-4.2828e-09
1.0883e-09
2.1286e-09
-4.2239e-09
1.5788e-09
3.1351e-09
-4.0605e-09
2.0927e-09
4.0311e-09
-3.844e-09
2.4391e-09
4.8644e-09
-3.626e-09
2.692e-09
5.6267e-09
-3.3588e-09
3.0337e-09
6.1036e-09
-3.0429e-09
3.192e-09
6.2797e-09
-2.7298e-09
3.0775e-09
6.1746e-09
-2.3711e-09
2.8984e-09
5.8649e-09
-2.0483e-09
2.7363e-09
5.3766e-09
-1.7285e-09
2.4773e-09
4.8423e-09
-1.4149e-09
2.1383e-09
4.2536e-09
-1.2161e-09
1.8173e-09
3.5299e-09
-9.7062e-10
1.3268e-09
2.7033e-09
-8.7236e-10
8.2151e-10
1.7899e-09
-8.2333e-10
4.8773e-10
8.7028e-10
-6.7823e-10
8.929e-11
6.4928e-11
-6.3041e-10
-2.3616e-10
-5.7799e-10
-5.3419e-10
-4.9688e-10
-9.5323e-10
-1.9457e-09
-6.6076e-10
-1.1263e-09
0
-5.7159e-10
-1.1107e-09
-1.128e-21
-4.9756e-10
-8.3203e-10
-1.1292e-21
-3.349e-10
-5.0637e-10
1.1294e-21
-8.1626e-11
-1.7118e-10
1.1293e-21
-3.661e-15
1.4748e-10
-2.2573e-21
7.3458e-11
3.4335e-10
2.2568e-21
1.552e-10
4.0904e-10
-1.9504e-09
2.3691e-10
4.9894e-10
0
3.2649e-10
5.5563e-10
2.2567e-21
1.7967e-10
3.5174e-10
-9.7658e-10
8.9776e-11
2.1309e-10
0
1.635e-10
2.4577e-10
2.26e-21
8.1891e-11
1.3945e-10
-1.3987e-15
2.467e-11
-1.9616e-09
0
-2.8866e-10
0
0
-8.3456e-10
2.2892e-21
0
-1.3462e-09
-1.9899e-09
0
-1.8447e-09
-1.9993e-09
0
-2.265e-09
-3.0134e-09
0
-2.5384e-09
-3.0255e-09
0
-2.6638e-09
-4.046e-09
8.2606e-12
-2.5878e-09
-4.0585e-09
-3.5469e-15
-2.3261e-09
-4.0694e-09
-1.6515e-11
-1.9055e-09
-2.0387e-09
-2.477e-11
-1.3063e-09
-4.0831e-09
-2.4817e-11
-6.011e-10
-4.0859e-09
-8.2933e-12
2.1278e-10
-4.0857e-09
-8.2688e-12
1.1371e-09
-4.2859e-09
8.2843e-12
2.1117e-09
-4.1251e-09
5.0236e-15
3.118e-09
-4.0628e-09
-1.6542e-11
4.08e-09
-3.8459e-09
-3.1029e-14
4.9217e-09
-3.6283e-09
0
5.6093e-09
-3.4101e-09
8.2744e-12
6.086e-09
-3.0438e-09
6.5972e-15
6.3036e-09
-2.6812e-09
-8.2483e-12
6.28e-09
-2.3714e-09
0
6.0109e-09
-2.0495e-09
-8.1881e-12
5.5469e-09
-1.7236e-09
-8.1956e-12
4.9796e-09
-1.4148e-09
0
4.285e-09
-1.1674e-09
8.1264e-12
3.488e-09
-9.7066e-10
8.1161e-12
2.6616e-09
-8.7222e-10
0
1.8054e-09
-8.2335e-10
0
9.3482e-10
-7.266e-10
0
1.4603e-10
-6.7883e-10
0
-4.9671e-10
-5.8274e-10
0
-9.3677e-10
-1.9455e-09
0
-1.1097e-09
-1.1264e-21
0
-1.0616e-09
0
-8.1621e-12
-8.4007e-10
1.4454e-25
-8.1715e-12
-5.3093e-10
0
0
-1.8774e-10
2.2585e-21
0
1.4708e-10
2.2577e-21
0
3.7547e-10
0
0
4.9011e-10
-1.9503e-09
0
5.1462e-10
-2.2544e-21
0
4.5707e-10
0
-8.1656e-12
3.6751e-10
-4.8826e-10
-8.1754e-12
2.7802e-10
3.6148e-25
0
1.7996e-10
-4.5198e-21
0
1.0646e-10
0
4.0982e-11
-1.9616e-09
1.727e-10
-2.8866e-10
0
4.1716e-10
-8.4271e-10
0
6.4446e-10
-1.3625e-09
-1.9899e-09
8.935e-10
-1.8529e-09
-1.9993e-09
1.0707e-09
-2.265e-09
-3.0137e-09
1.2456e-09
-2.5384e-09
-3.0255e-09
1.3394e-09
-2.6638e-09
-4.046e-09
1.3332e-09
-2.5878e-09
-4.0585e-09
1.1707e-09
-2.3178e-09
-4.0694e-09
9.3175e-10
-1.889e-09
-2.0387e-09
6.7333e-10
-1.298e-09
-4.0831e-09
3.3342e-10
-6.0108e-10
-4.0859e-09
-8.9766e-11
2.1278e-10
-4.0856e-09
-5.971e-10
1.1371e-09
-4.2858e-09
-1.0883e-09
2.1116e-09
-4.1251e-09
-1.5953e-09
3.1097e-09
-4.0628e-09
-2.1093e-09
4.0716e-09
-3.8459e-09
-2.4473e-09
4.9217e-09
-3.6283e-09
-2.692e-09
5.5929e-09
-3.4101e-09
-3.009e-09
6.0778e-09
-3.0437e-09
-3.1756e-09
6.3118e-09
-2.6813e-09
-3.0857e-09
6.2718e-09
-2.3714e-09
-2.8985e-09
6.011e-09
-2.0495e-09
-2.7363e-09
5.5632e-09
-1.7236e-09
-2.4937e-09
4.9796e-09
-1.4148e-09
-2.1465e-09
4.2768e-09
-1.1674e-09
-1.8092e-09
3.4962e-09
-9.7066e-10
-1.3187e-09
2.6697e-09
-8.7222e-10
-8.2151e-10
1.8054e-09
-8.2335e-10
-4.8773e-10
9.3482e-10
-7.266e-10
-8.929e-11
1.4603e-10
-6.7883e-10
2.3616e-10
-4.9671e-10
-5.8274e-10
4.9688e-10
-9.3677e-10
-1.9455e-09
6.6076e-10
-1.1097e-09
-1.1264e-21
5.7159e-10
-1.0616e-09
5.5985e-25
4.8941e-10
-8.4008e-10
2.258e-21
3.2674e-10
-5.3093e-10
-1.1294e-21
7.3462e-11
-1.7958e-10
2.2585e-21
-8.1678e-12
1.5525e-10
2.2577e-21
-7.3458e-11
3.7547e-10
2.2563e-21
-1.552e-10
4.9011e-10
-1.9503e-09
-2.4508e-10
5.0645e-10
7.2228e-25
-3.3464e-10
4.4891e-10
4.5132e-21
-1.7967e-10
3.6751e-10
-4.8826e-10
-8.9776e-11
2.7802e-10
2.2603e-21
-1.635e-10
1.7996e-10
4.5198e-21
-8.1891e-11
1.0646e-10
1.3987e-15
4.0982e-11
-1.9613e-09
2.9651e-10
-3.0484e-10
-2.2789e-21
8.8299e-10
-9.078e-10
2.2904e-21
1.3865e-09
-1.4115e-09
-1.9893e-09
1.8273e-09
-1.8201e-09
-1.9985e-09
2.198e-09
-2.1994e-09
-3.5135e-09
2.5013e-09
-2.5084e-09
-2.5199e-09
2.5793e-09
-2.5647e-09
-4.0437e-09
2.5063e-09
-2.4448e-09
-4.0561e-09
2.2992e-09
-2.2431e-09
-4.0665e-09
1.8625e-09
-1.8639e-09
-2.0372e-09
1.3463e-09
-1.3141e-09
-4.0802e-09
5.925e-10
-5.5106e-10
-4.083e-09
-2.2905e-10
2.713e-10
-4.0825e-09
-1.1107e-09
1.1455e-09
-4.2828e-09
-2.1587e-09
2.1283e-09
-4.2239e-09
-3.1228e-09
3.1264e-09
-4.0605e-09
-3.9184e-09
4.0223e-09
-3.844e-09
-4.8091e-09
4.8637e-09
-3.626e-09
-5.5466e-09
5.6095e-09
-3.3588e-09
-5.8828e-09
6.0946e-09
-3.043e-09
-6.0845e-09
6.2874e-09
-2.7298e-09
-5.9971e-09
6.166e-09
-2.3711e-09
-5.6798e-09
5.8645e-09
-2.0483e-09
-5.2251e-09
5.3926e-09
-1.7285e-09
-4.7161e-09
4.8421e-09
-1.4149e-09
-4.1445e-09
4.2453e-09
-1.2161e-09
-3.4136e-09
3.5379e-09
-9.7062e-10
-2.604e-09
2.7114e-09
-8.7236e-10
-1.7317e-09
1.79e-09
-8.2333e-10
-8.6941e-10
8.704e-10
-6.7823e-10
-7.2547e-11
6.5136e-11
-6.3041e-10
5.8632e-10
-5.777e-10
-5.3419e-10
9.368e-10
-9.5289e-10
-1.9457e-09
1.1587e-09
-1.126e-09
-1.1264e-21
1.1759e-09
-1.1104e-09
0
7.995e-10
-8.3175e-10
-1.1292e-21
4.3315e-10
-5.0619e-10
-1.1294e-21
1.4722e-10
-1.6297e-10
1.442e-25
-1.4677e-10
1.5556e-10
0
-3.6701e-10
3.4313e-10
0
-4.3267e-10
4.0869e-10
-1.9504e-09
-5.1443e-10
4.9035e-10
-4.5108e-21
-5.2228e-10
5.4699e-10
-2.2564e-21
-2.8577e-10
3.5124e-10
-9.7658e-10
-2.1218e-10
2.1263e-10
3.2538e-25
-3.0243e-10
2.4538e-10
0
-2.3751e-10
1.392e-10
-8.1974e-11
2.4581e-11
-1.9612e-09
3.6344e-10
-2.9658e-10
-2.2783e-21
1.1616e-09
-8.8319e-10
-2.2875e-21
1.9491e-09
-1.3951e-09
-1.9882e-09
2.6711e-09
-1.836e-09
-1.997e-09
3.2263e-09
-2.2069e-09
-4.0104e-09
3.5985e-09
-2.5103e-09
-2.0129e-09
3.7853e-09
-2.5802e-09
-3.5358e-09
3.6942e-09
-2.4246e-09
-4.0513e-09
3.4235e-09
-2.2174e-09
-4.061e-09
2.8003e-09
-1.8546e-09
-2.0347e-09
1.9028e-09
-1.338e-09
-4.0748e-09
9.0872e-10
-5.9218e-10
-4.0775e-09
-2.6084e-10
2.2973e-10
-4.0769e-09
-1.6242e-09
1.1118e-09
-4.2776e-09
-3.0791e-09
2.1519e-09
-4.27e-09
-4.4422e-09
3.1165e-09
-4.0555e-09
-5.71e-09
3.9208e-09
-3.8402e-09
-7.0455e-09
4.8118e-09
-3.6232e-09
-8.1192e-09
5.5415e-09
-3.3565e-09
-8.6572e-09
5.8862e-09
-2.9912e-09
-8.9936e-09
6.0962e-09
-2.7289e-09
-8.8908e-09
6.0006e-09
-2.3702e-09
-8.4284e-09
5.6915e-09
-2.0453e-09
-7.8699e-09
5.2366e-09
-1.7236e-09
-7.0539e-09
4.7191e-09
-1.4148e-09
-6.0544e-09
4.1471e-09
-1.2647e-09
-4.8972e-09
3.4158e-09
-9.7084e-10
-3.7357e-09
2.614e-09
-8.7244e-10
-2.5696e-09
1.7412e-09
-7.7502e-10
-1.3329e-09
8.6232e-10
-6.7827e-10
-9.6845e-11
6.5124e-11
-6.3048e-10
7.9816e-10
-5.8589e-10
-4.8561e-10
1.2547e-09
-9.4466e-10
-1.946e-09
1.5997e-09
-1.1748e-09
-6.137e-25
1.6741e-09
-1.1838e-09
3.6122e-25
1.2399e-09
-7.9915e-10
-1.1289e-21
7.1086e-10
-4.3268e-10
0
2.6147e-10
-1.4664e-10
-1.1295e-21
-2.612e-10
1.474e-10
0
-6.1191e-10
3.6762e-10
-4.5126e-21
-7.0224e-10
4.4137e-10
-1.4631e-09
-7.8351e-10
5.23e-10
0
-7.02e-10
5.2255e-10
-2.257e-21
-5.3076e-10
2.8591e-10
-9.7678e-10
-4.4064e-10
2.1221e-10
7.2303e-26
-3.5152e-10