/*--------------------------------*- C++ -*----------------------------------*\
| =========                 |                                                 |
| \\      /  F ield         | OpenFOAM: The Open Source CFD Toolbox           |
|  \\    /   O peration     | Version:  4.1                                   |
|   \\  /    A nd           | Web:      www.OpenFOAM.org                      |
|    \\/     M anipulation  |                                                 |
\*---------------------------------------------------------------------------*/
FoamFile
{
    version     2.0;
    format      ascii;
    class       pointVectorField;
    location    "0.0004";
    object      pointDisplacement_Next;
}
// * * * * * * * * * * * * * * * * * * * * * * * * * * * * * * * * * * * * * //

dimensions      [0 1 0 0 0 0 0];

internalField   uniform (0 0 0);

boundaryField
{
    inlet
    {
        type            fixedValue;
        value           nonuniform 0();
    }
    outlet
    {
        type            fixedValue;
        value           nonuniform 0();
    }
    mantle
    {
        type            fixedValue;
        value           nonuniform List<vector> 
416
(
(-5.5947e-07 -1.6626e-07 3.2279e-11)
(-4.0592e-07 -2.6603e-07 -2.678e-10)
(-4.2309e-07 -2.7404e-07 6.5021e-08)
(-5.5666e-07 -2.0509e-07 7.0135e-08)
(-4.3846e-07 -2.8654e-07 1.1237e-07)
(-5.5797e-07 -2.6828e-07 1.0427e-07)
(-4.2132e-07 -2.6226e-07 1.5338e-07)
(-5.5164e-07 -2.2306e-07 1.055e-07)
(-4.0356e-07 -2.1004e-07 2.104e-07)
(-5.5322e-07 -1.4732e-07 1.4734e-07)
(-4.2132e-07 -1.535e-07 2.6253e-07)
(-5.5163e-07 -1.0563e-07 2.2334e-07)
(-4.3847e-07 -1.1253e-07 2.8709e-07)
(-5.5797e-07 -1.0443e-07 2.6884e-07)
(-4.231e-07 -6.5113e-08 2.7484e-07)
(-5.5667e-07 -7.0228e-08 2.0586e-07)
(-4.0593e-07 3.1973e-10 2.6701e-07)
(-5.5948e-07 2.8872e-11 1.6721e-07)
(-1.9684e-07 -2.4606e-07 1.7924e-11)
(-2.2495e-07 -2.4459e-07 4.4322e-08)
(-2.4989e-07 -2.2978e-07 9.6899e-08)
(-2.1864e-07 -2.3028e-07 1.5167e-07)
(-1.9328e-07 -1.9168e-07 1.9172e-07)
(-2.1864e-07 -1.5176e-07 2.3053e-07)
(-2.4989e-07 -9.7043e-08 2.3028e-07)
(-2.2496e-07 -4.4418e-08 2.4537e-07)
(-1.9685e-07 1.7481e-11 2.4706e-07)
(-1.2518e-07 -1.494e-07 -2.6533e-10)
(-1.3881e-07 -1.4239e-07 2.5769e-08)
(-1.5076e-07 -1.3126e-07 5.5007e-08)
(-1.3644e-07 -1.2721e-07 8.9108e-08)
(-1.2178e-07 -1.1651e-07 1.1614e-07)
(-1.3643e-07 -8.9191e-08 1.274e-07)
(-1.5076e-07 -5.5142e-08 1.3169e-07)
(-1.3881e-07 -2.5866e-08 1.4316e-07)
(-1.2519e-07 2.8943e-10 1.5042e-07)
(-1.4126e-07 -4.7107e-08 9.7085e-13)
(-1.3935e-07 -4.2731e-08 4.642e-09)
(-1.4053e-07 -3.2102e-08 1.4511e-08)
(-1.3785e-07 -3.588e-08 3.0209e-08)
(-1.3915e-07 -3.6809e-08 3.6836e-08)
(-1.3785e-07 -3.0277e-08 3.6019e-08)
(-1.4052e-07 -1.4634e-08 3.2452e-08)
(-1.3934e-07 -4.7356e-09 4.3434e-08)
(-1.4126e-07 1.3859e-11 4.8085e-08)
(-1.2008e-07 -3.1337e-08 -1.0379e-12)
(-1.2033e-07 -2.2228e-08 -2.8211e-10)
(-1.2071e-07 -1.1549e-08 5.6498e-09)
(-1.1958e-07 -1.5899e-08 1.7393e-08)
(-1.1901e-07 -2.3168e-08 2.3194e-08)
(-1.1958e-07 -1.7443e-08 1.6022e-08)
(-1.207e-07 -5.7495e-09 1.1852e-08)
(-1.2032e-07 1.9887e-10 2.2807e-08)
(-1.2007e-07 5.6639e-12 3.2126e-08)
(-7.195e-08 -6.1022e-08 -8.9951e-13)
(-7.599e-08 -4.7183e-08 4.7701e-09)
(-7.9156e-08 -3.4002e-08 1.4013e-08)
(-7.5673e-08 -3.7177e-08 3.0919e-08)
(-7.1561e-08 -4.4041e-08 4.4074e-08)
(-7.5674e-08 -3.0954e-08 3.729e-08)
(-7.9158e-08 -1.4092e-08 3.4259e-08)
(-7.5992e-08 -4.8424e-09 4.7639e-08)
(-7.1952e-08 -4.1413e-12 6.1628e-08)
(-4.1927e-08 -5.3383e-08 4.2728e-11)
(-4.3967e-08 -4.779e-08 6.6864e-09)
(-4.5787e-08 -4.0369e-08 1.6835e-08)
(-4.383e-08 -3.952e-08 2.9963e-08)
(-4.1744e-08 -3.9136e-08 3.91e-08)
(-4.3836e-08 -2.9995e-08 3.9604e-08)
(-4.5798e-08 -1.6906e-08 4.0575e-08)
(-4.398e-08 -6.7515e-09 4.8181e-08)
(-4.1942e-08 -5.2292e-11 5.3913e-08)
(-3.0038e-08 -2.1119e-08 2.3112e-12)
(-3.0233e-08 -2.342e-08 4.7404e-09)
(-3.0502e-08 -2.4054e-08 9.8864e-09)
(-3.0102e-08 -2.1192e-08 1.4033e-08)
(-2.9844e-08 -1.6552e-08 1.6556e-08)
(-3.011e-08 -1.407e-08 2.1241e-08)
(-3.0515e-08 -9.9527e-09 2.4207e-08)
(-3.0249e-08 -4.7984e-09 2.3764e-08)
(-3.0057e-08 -1.1997e-11 2.161e-08)
(-2.4916e-08 -6.2589e-09 1.4859e-11)
(-2.444e-08 -8.164e-09 2.2596e-09)
(-2.3999e-08 -9.8201e-09 4.0216e-09)
(-2.4308e-08 -8.4492e-09 4.8513e-09)
(-2.4729e-08 -5.7495e-09 5.7184e-09)
(-2.4314e-08 -4.8891e-09 8.4776e-09)
(-2.4006e-08 -4.076e-09 9.937e-09)
(-2.4446e-08 -2.3051e-09 8.426e-09)
(-2.4922e-08 -2.1542e-11 6.633e-09)
(-2.1672e-08 -4.1306e-09 2.3795e-12)
(-2.0933e-08 -3.9786e-09 1.0575e-09)
(-2.0359e-08 -4.1965e-09 1.8083e-09)
(-2.0839e-08 -4.2422e-09 2.5969e-09)
(-2.1543e-08 -3.7787e-09 3.7621e-09)
(-2.0842e-08 -2.6262e-09 4.2525e-09)
(-2.0361e-08 -1.8441e-09 4.2598e-09)
(-2.0929e-08 -1.0884e-09 4.1192e-09)
(-2.1664e-08 -8.7393e-12 4.3427e-09)
(-1.6695e-08 -3.3726e-09 -9.6878e-13)
(-1.637e-08 -2.9369e-09 4.7052e-10)
(-1.6063e-08 -2.5809e-09 1.1279e-09)
(-1.6314e-08 -2.8844e-09 2.1542e-09)
(-1.6617e-08 -3.0186e-09 3.0031e-09)
(-1.6317e-08 -2.17e-09 2.8767e-09)
(-1.6066e-08 -1.1437e-09 2.5828e-09)
(-1.637e-08 -4.906e-10 2.944e-09)
(-1.6692e-08 -1.2285e-11 3.4069e-09)
(-1.1582e-08 -2.3587e-09 -4.5976e-12)
(-1.1699e-08 -1.9381e-09 2.3198e-10)
(-1.1674e-08 -1.5656e-09 7.0815e-10)
(-1.1645e-08 -1.8839e-09 1.5384e-09)
(-1.1513e-08 -2.1686e-09 2.1542e-09)
(-1.1651e-08 -1.5429e-09 1.864e-09)
(-1.1684e-08 -7.0869e-10 1.5281e-09)
(-1.1708e-08 -2.4534e-10 1.857e-09)
(-1.159e-08 -1.6459e-11 2.2676e-09)
(-4.231e-07 6.5215e-08 2.751e-07)
(-5.5667e-07 7.0344e-08 2.0616e-07)
(-4.3847e-07 1.1278e-07 2.8757e-07)
(-5.5797e-07 1.0471e-07 2.6937e-07)
(-4.2133e-07 1.5395e-07 2.6314e-07)
(-5.5164e-07 1.0612e-07 2.24e-07)
(-4.0356e-07 2.1073e-07 2.1104e-07)
(-5.5323e-07 1.4806e-07 1.4803e-07)
(-4.2133e-07 2.6318e-07 1.5397e-07)
(-5.5165e-07 2.2407e-07 1.0613e-07)
(-4.3847e-07 2.8768e-07 1.1281e-07)
(-5.5798e-07 2.6953e-07 1.0476e-07)
(-4.231e-07 2.7536e-07 6.5245e-08)
(-5.5667e-07 2.0652e-07 7.0383e-08)
(-4.0593e-07 2.674e-07 -2.8366e-10)
(-5.5949e-07 1.6774e-07 1.1929e-11)
(-2.2496e-07 4.4499e-08 2.456e-07)
(-2.499e-07 9.7254e-08 2.307e-07)
(-2.1864e-07 1.5216e-07 2.3107e-07)
(-1.9328e-07 1.9229e-07 1.9229e-07)
(-2.1864e-07 2.311e-07 1.5219e-07)
(-2.499e-07 2.3078e-07 9.7283e-08)
(-2.2496e-07 2.4573e-07 4.4522e-08)
(-1.9685e-07 2.4727e-07 1.0796e-11)
(-1.3882e-07 2.5929e-08 1.4334e-07)
(-1.5076e-07 5.5311e-08 1.3204e-07)
(-1.3644e-07 8.9532e-08 1.2787e-07)
(-1.2179e-07 1.1663e-07 1.1705e-07)
(-1.3644e-07 1.279e-07 8.9554e-08)
(-1.5077e-07 1.3208e-07 5.5331e-08)
(-1.3882e-07 1.4334e-07 2.594e-08)
(-1.2518e-07 1.5042e-07 -2.6517e-10)
(-1.3935e-07 4.783e-09 4.3582e-08)
(-1.4053e-07 1.4764e-08 3.2735e-08)
(-1.3786e-07 3.0561e-08 3.6411e-08)
(-1.3916e-07 3.7252e-08 3.7266e-08)
(-1.3786e-07 3.6437e-08 3.0586e-08)
(-1.4053e-07 3.2758e-08 1.4778e-08)
(-1.3935e-07 4.3505e-08 4.788e-09)
(-1.4126e-07 4.7954e-08 8.7259e-12)
(-1.2033e-07 -1.6589e-10 2.2937e-08)
(-1.2071e-07 5.8612e-09 1.2098e-08)
(-1.1958e-07 1.7684e-08 1.6354e-08)
(-1.1901e-07 2.354e-08 2.3556e-08)
(-1.1959e-07 1.6366e-08 1.7711e-08)
(-1.2072e-07 1.2102e-08 5.8803e-09)
(-1.2034e-07 2.288e-08 -1.5445e-10)
(-1.2009e-07 3.205e-08 7.5143e-12)
(-7.5995e-08 4.8618e-09 4.7759e-08)
(-7.9161e-08 1.4186e-08 3.4474e-08)
(-7.5676e-08 3.115e-08 3.7563e-08)
(-7.1563e-08 4.4342e-08 4.4361e-08)
(-7.5676e-08 3.7562e-08 3.1175e-08)
(-7.9163e-08 3.4476e-08 1.4207e-08)
(-7.6002e-08 4.7751e-08 4.881e-09)
(-7.1964e-08 6.1644e-08 7.372e-12)
(-4.3984e-08 6.76e-09 4.8292e-08)
(-4.5803e-08 1.6975e-08 4.0762e-08)
(-4.3839e-08 3.0131e-08 3.9811e-08)
(-4.1745e-08 3.9339e-08 3.9296e-08)
(-4.3833e-08 3.9804e-08 3.0144e-08)
(-4.5794e-08 4.0755e-08 1.6988e-08)
(-4.3977e-08 4.8282e-08 6.7797e-09)
(-4.1938e-08 5.3931e-08 4.9664e-11)
(-3.0254e-08 4.8011e-09 2.3869e-08)
(-3.0523e-08 1.0005e-08 2.4374e-08)
(-3.0117e-08 1.4157e-08 2.14e-08)
(-2.9849e-08 1.6674e-08 1.6683e-08)
(-3.0107e-08 2.1386e-08 1.4157e-08)
(-3.0507e-08 2.4349e-08 1.0005e-08)
(-3.0239e-08 2.3822e-08 4.8151e-09)
(-3.0043e-08 2.1579e-08 5.8231e-12)
(-2.445e-08 2.3064e-09 8.5222e-09)
(-2.4014e-08 4.1181e-09 1.0088e-08)
(-2.4324e-08 4.9636e-09 8.628e-09)
(-2.4739e-08 5.834e-09 5.8634e-09)
(-2.4317e-08 8.6028e-09 4.9603e-09)
(-2.4005e-08 1.0043e-08 4.1139e-09)
(-2.4442e-08 8.4601e-09 2.3134e-09)
(-2.4917e-08 6.5902e-09 1.2297e-11)
(-2.0931e-08 1.0896e-09 4.2056e-09)
(-2.0365e-08 1.8851e-09 4.4004e-09)
(-2.085e-08 2.7054e-09 4.4046e-09)
(-2.1554e-08 3.8884e-09 3.8982e-09)
(-2.0848e-08 4.3757e-09 2.7022e-09)
(-2.0365e-08 4.359e-09 1.8817e-09)
(-2.0935e-08 4.1685e-09 1.0936e-09)
(-2.1672e-08 4.3307e-09 -3.125e-12)
(-1.6368e-08 4.8664e-10 3.0203e-09)
(-1.6065e-08 1.1808e-09 2.7074e-09)
(-1.6318e-08 2.2407e-09 3.0096e-09)
(-1.6622e-08 3.1098e-09 3.1161e-09)
(-1.632e-08 2.9866e-09 2.2367e-09)
(-1.6068e-08 2.6877e-09 1.1802e-09)
(-1.6373e-08 3.0404e-09 4.9567e-10)
(-1.6698e-08 3.4707e-09 -1.8128e-12)
(-1.1703e-08 2.3384e-10 1.9173e-09)
(-1.1676e-08 7.3494e-10 1.6254e-09)
(-1.1646e-08 1.5915e-09 1.9604e-09)
(-1.1511e-08 2.2268e-09 2.2273e-09)
(-1.1648e-08 1.9487e-09 1.5889e-09)
(-1.1679e-08 1.6275e-09 7.3942e-10)
(-1.1704e-08 1.9829e-09 2.4927e-10)
(-1.1588e-08 2.3903e-09 -1.6237e-14)
(-4.231e-07 2.7527e-07 -6.5207e-08)
(-5.5667e-07 2.0643e-07 -7.034e-08)
(-4.3847e-07 2.8752e-07 -1.1274e-07)
(-5.5797e-07 2.6936e-07 -1.0467e-07)
(-4.2133e-07 2.6295e-07 -1.5383e-07)
(-5.5165e-07 2.2383e-07 -1.0599e-07)
(-4.0357e-07 2.1046e-07 -2.108e-07)
(-5.5323e-07 1.4778e-07 -1.4779e-07)
(-4.2132e-07 1.5371e-07 -2.6273e-07)
(-5.5164e-07 1.0587e-07 -2.2358e-07)
(-4.3846e-07 1.1261e-07 -2.8703e-07)
(-5.5795e-07 1.0453e-07 -2.6883e-07)
(-4.2308e-07 6.5126e-08 -2.7454e-07)
(-5.5662e-07 7.0257e-08 -2.0566e-07)
(-4.059e-07 -2.7722e-10 -2.6648e-07)
(-5.5942e-07 2.4043e-11 -1.6677e-07)
(-2.2495e-07 2.4565e-07 -4.4488e-08)
(-2.4989e-07 2.3062e-07 -9.7213e-08)
(-2.1864e-07 2.3088e-07 -1.5205e-07)
(-1.9328e-07 1.9205e-07 -1.9205e-07)
(-2.1864e-07 1.5194e-07 -2.3071e-07)
(-2.499e-07 9.7094e-08 -2.3025e-07)
(-2.2496e-07 4.4414e-08 -2.4511e-07)
(-1.9686e-07 1.288e-11 -2.4657e-07)
(-1.3881e-07 1.4327e-07 -2.5911e-08)
(-1.5076e-07 1.3193e-07 -5.526e-08)
(-1.3644e-07 1.277e-07 -8.9412e-08)
(-1.2178e-07 1.1642e-07 -1.1682e-07)
(-1.3644e-07 8.9342e-08 -1.2757e-07)
(-1.5076e-07 5.5171e-08 -1.3169e-07)
(-1.3882e-07 2.5852e-08 -1.4294e-07)
(-1.2519e-07 -2.6401e-10 -1.5e-07)
(-1.3935e-07 4.3438e-08 -4.7598e-09)
(-1.4053e-07 3.2632e-08 -1.4709e-08)
(-1.3785e-07 3.627e-08 -3.0444e-08)
(-1.3915e-07 3.7073e-08 -3.7055e-08)
(-1.3785e-07 3.04e-08 -3.6169e-08)
(-1.4052e-07 1.4646e-08 -3.2467e-08)
(-1.3934e-07 4.7168e-09 -4.3254e-08)
(-1.4125e-07 8.4219e-12 -4.7716e-08)
(-1.2034e-07 2.2827e-08 1.8175e-10)
(-1.2072e-07 1.2e-08 -5.8162e-09)
(-1.1959e-07 1.6223e-08 -1.7585e-08)
(-1.1901e-07 2.338e-08 -2.3374e-08)
(-1.1958e-07 1.7542e-08 -1.6147e-08)
(-1.207e-07 5.7594e-09 -1.1868e-08)
(-1.2032e-07 -2.192e-10 -2.2664e-08)
(-1.2006e-07 5.1665e-12 -3.1826e-08)
(-7.6004e-08 4.7718e-08 -4.8603e-09)
(-7.9168e-08 3.4408e-08 -1.4162e-08)
(-7.5683e-08 3.7457e-08 -3.1086e-08)
(-7.1569e-08 4.4215e-08 -4.4224e-08)
(-7.5678e-08 3.1037e-08 -3.7396e-08)
(-7.9158e-08 1.4105e-08 -3.4279e-08)
(-7.599e-08 4.8231e-09 -4.7532e-08)
(-7.1948e-08 2.0791e-13 -6.1388e-08)
(-4.3979e-08 4.827e-08 -6.7691e-09)
(-4.5797e-08 4.0728e-08 -1.6976e-08)
(-4.3837e-08 3.9757e-08 -3.0114e-08)
(-4.1748e-08 3.9276e-08 -3.9232e-08)
(-4.3838e-08 3.0064e-08 -3.9699e-08)
(-4.5798e-08 1.6922e-08 -4.0602e-08)
(-4.3979e-08 6.7333e-09 -4.8099e-08)
(-4.1938e-08 3.7949e-11 -5.3712e-08)
(-3.0239e-08 2.3822e-08 -4.8126e-09)
(-3.0507e-08 2.4344e-08 -1.0013e-08)
(-3.0104e-08 2.1372e-08 -1.416e-08)
(-2.9843e-08 1.6649e-08 -1.666e-08)
(-3.0108e-08 1.4116e-08 -2.1319e-08)
(-3.0514e-08 9.9642e-09 -2.4235e-08)
(-3.0247e-08 4.7786e-09 -2.3696e-08)
(-3.0052e-08 -1.0081e-11 -2.1434e-08)
(-2.4441e-08 8.4531e-09 -2.314e-09)
(-2.4e-08 1.0023e-08 -4.1106e-09)
(-2.4309e-08 8.5613e-09 -4.9365e-09)
(-2.4728e-08 5.7743e-09 -5.803e-09)
(-2.4313e-08 4.8993e-09 -8.5235e-09)
(-2.4006e-08 4.0665e-09 -9.9475e-09)
(-2.4445e-08 2.2795e-09 -8.3653e-09)
(-2.492e-08 -2.3033e-11 -6.4851e-09)
(-2.0933e-08 4.1489e-09 -1.0928e-09)
(-2.0361e-08 4.3132e-09 -1.8604e-09)
(-2.0843e-08 4.2964e-09 -2.6428e-09)
(-2.1546e-08 3.7839e-09 -3.7926e-09)
(-2.0845e-08 2.6113e-09 -4.2737e-09)
(-2.0362e-08 1.8204e-09 -4.2592e-09)
(-2.0931e-08 1.0592e-09 -4.0701e-09)
(-2.1665e-08 -1.097e-11 -4.2278e-09)
(-1.6373e-08 3.0168e-09 -4.9286e-10)
(-1.6068e-08 2.6383e-09 -1.159e-09)
(-1.6322e-08 2.9114e-09 -2.1854e-09)
(-1.6626e-08 3.0197e-09 -3.0302e-09)
(-1.6323e-08 2.1583e-09 -2.8982e-09)
(-1.6068e-08 1.1241e-09 -2.5896e-09)
(-1.637e-08 4.6261e-10 -2.9194e-09)
(-1.6692e-08 -1.0989e-11 -3.3342e-09)
(-1.1705e-08 1.9631e-09 -2.4744e-10)
(-1.1682e-08 1.5913e-09 -7.3039e-10)
(-1.1655e-08 1.9031e-09 -1.5681e-09)
(-1.1523e-08 2.1795e-09 -2.189e-09)
(-1.1657e-08 1.5452e-09 -1.8948e-09)
(-1.1684e-08 7.0109e-10 -1.5473e-09)
(-1.1705e-08 2.2295e-10 -1.8562e-09)
(-1.1587e-08 -9.2428e-12 -2.234e-09)
(-4.2308e-07 -6.5034e-08 -2.7431e-07)
(-5.5662e-07 -7.015e-08 -2.0541e-07)
(-4.3846e-07 -1.1236e-07 -2.8658e-07)
(-5.5795e-07 -1.0426e-07 -2.6834e-07)
(-4.2132e-07 -1.5323e-07 -2.6212e-07)
(-5.5164e-07 -1.0534e-07 -2.229e-07)
(-4.0356e-07 -2.1007e-07 -2.098e-07)
(-5.5323e-07 -1.4699e-07 -1.4704e-07)
(-4.2132e-07 -2.6203e-07 -1.5324e-07)
(-5.5164e-07 -2.2284e-07 -1.0534e-07)
(-4.3846e-07 -2.8642e-07 -1.1231e-07)
(-5.5796e-07 -2.682e-07 -1.0421e-07)
(-4.2308e-07 -2.74e-07 -6.4972e-08)
(-5.5665e-07 -2.0507e-07 -7.0086e-08)
(-2.2496e-07 -4.4338e-08 -2.449e-07)
(-2.499e-07 -9.6881e-08 -2.2985e-07)
(-2.1864e-07 -1.5153e-07 -2.3017e-07)
(-1.9328e-07 -1.9143e-07 -1.9148e-07)
(-2.1863e-07 -2.3006e-07 -1.5152e-07)
(-2.4988e-07 -2.2962e-07 -9.6822e-08)
(-2.2494e-07 -2.4451e-07 -4.4277e-08)
(-1.3882e-07 -2.5792e-08 -1.4276e-07)
(-1.5076e-07 -5.4998e-08 -1.3134e-07)
(-1.3643e-07 -8.9003e-08 -1.2712e-07)
(-1.2178e-07 -1.1631e-07 -1.1592e-07)
(-1.3643e-07 -1.27e-07 -8.8955e-08)
(-1.5076e-07 -1.3107e-07 -5.4914e-08)
(-1.3881e-07 -1.4229e-07 -2.5728e-08)
(-1.3934e-07 -4.6707e-09 -4.3094e-08)
(-1.4051e-07 -1.4511e-08 -3.2172e-08)
(-1.3785e-07 -3.0128e-08 -3.5787e-08)
(-1.3915e-07 -3.6643e-08 -3.6643e-08)
(-1.3785e-07 -3.5689e-08 -3.0058e-08)
(-1.4052e-07 -3.1914e-08 -1.4411e-08)
(-1.3935e-07 -4.2617e-08 -4.6066e-09)
(-1.2032e-07 2.5166e-10 -2.2529e-08)
(-1.207e-07 -5.6563e-09 -1.1624e-08)
(-1.1957e-07 -1.733e-08 -1.5835e-08)
(-1.1901e-07 -2.304e-08 -2.3039e-08)
(-1.1958e-07 -1.5748e-08 -1.7271e-08)
(-1.2071e-07 -1.1401e-08 -5.5727e-09)
(-1.2033e-07 -2.2136e-08 3.0714e-10)
(-7.5987e-08 -4.8007e-09 -4.7418e-08)
(-7.9153e-08 -1.4022e-08 -3.4074e-08)
(-7.5671e-08 -3.0865e-08 -3.7138e-08)
(-7.1561e-08 -4.3941e-08 -4.3951e-08)
(-7.5674e-08 -3.7066e-08 -3.0828e-08)
(-7.9157e-08 -3.3902e-08 -1.3962e-08)
(-7.5991e-08 -4.7123e-08 -4.7564e-09)
(-4.3976e-08 -6.7202e-09 -4.8e-08)
(-4.5793e-08 -1.6848e-08 -4.0423e-08)
(-4.3832e-08 -2.9911e-08 -3.947e-08)
(-4.1741e-08 -3.9037e-08 -3.8987e-08)
(-4.3828e-08 -3.9431e-08 -2.9887e-08)
(-4.5787e-08 -4.0306e-08 -1.6803e-08)
(-4.3967e-08 -4.7757e-08 -6.6797e-09)
(-3.0246e-08 -4.7753e-09 -2.3614e-08)
(-3.0511e-08 -9.9051e-09 -2.4085e-08)
(-3.0104e-08 -1.3988e-08 -2.1126e-08)
(-2.9838e-08 -1.6451e-08 -1.6451e-08)
(-3.0098e-08 -2.1113e-08 -1.3969e-08)
(-3.05e-08 -2.4013e-08 -9.8662e-09)
(-3.0233e-08 -2.3403e-08 -4.7358e-09)
(-2.4444e-08 -2.2866e-09 -8.3054e-09)
(-2.4004e-08 -4.036e-09 -9.8416e-09)
(-2.431e-08 -4.823e-09 -8.3932e-09)
(-2.4725e-08 -5.6701e-09 -5.6462e-09)
(-2.4305e-08 -8.3857e-09 -4.8072e-09)
(-2.3997e-08 -9.7859e-09 -4.0059e-09)
(-2.4439e-08 -8.151e-09 -2.2541e-09)
(-2.0929e-08 -1.0736e-09 -4.032e-09)
(-2.0359e-08 -1.8163e-09 -4.1955e-09)
(-2.084e-08 -2.5846e-09 -4.2034e-09)
(-2.1541e-08 -3.7288e-09 -3.726e-09)
(-2.0838e-08 -4.1966e-09 -2.5739e-09)
(-2.0358e-08 -4.1651e-09 -1.7976e-09)
(-2.0932e-08 -3.9636e-09 -1.0524e-09)
(-1.6367e-08 -4.7933e-10 -2.8941e-09)
(-1.6062e-08 -1.1295e-09 -2.5475e-09)
(-1.6313e-08 -2.1507e-09 -2.8516e-09)
(-1.6615e-08 -2.9923e-09 -2.9855e-09)
(-1.6312e-08 -2.8532e-09 -2.1421e-09)
(-1.6061e-08 -2.5524e-09 -1.1216e-09)
(-1.6369e-08 -2.9204e-09 -4.7027e-10)
(-1.1703e-08 -2.3641e-10 -1.8372e-09)
(-1.1678e-08 -7.0427e-10 -1.5126e-09)
(-1.1646e-08 -1.5374e-09 -1.8511e-09)
(-1.1509e-08 -2.1566e-09 -2.143e-09)
(-1.1643e-08 -1.8624e-09 -1.5296e-09)
(-1.1673e-08 -1.5408e-09 -7.037e-10)
(-1.1698e-08 -1.9226e-09 -2.3604e-10)
)
;
    }
    procBoundary1to0
    {
        type            processor;
    }
    procBoundary1to2
    {
        type            processor;
    }
}


// ************************************************************************* //
