/*--------------------------------*- C++ -*----------------------------------*\
| =========                 |                                                 |
| \\      /  F ield         | OpenFOAM: The Open Source CFD Toolbox           |
|  \\    /   O peration     | Version:  4.1                                   |
|   \\  /    A nd           | Web:      www.OpenFOAM.org                      |
|    \\/     M anipulation  |                                                 |
\*---------------------------------------------------------------------------*/
FoamFile
{
    version     2.0;
    format      ascii;
    class       pointVectorField;
    location    "0.0037";
    object      pointDisplacement_Next;
}
// * * * * * * * * * * * * * * * * * * * * * * * * * * * * * * * * * * * * * //

dimensions      [0 1 0 0 0 0 0];

internalField   uniform (0 0 0);

boundaryField
{
    inlet
    {
        type            fixedValue;
        value           uniform (0 0 0);
    }
    outlet
    {
        type            fixedValue;
        value           nonuniform 0();
    }
    mantle
    {
        type            fixedValue;
        value           nonuniform List<vector> 
416
(
(1.6762e-12 -5.0089e-12 -5.4175e-17)
(3.7331e-06 -1.394e-05 -1.3456e-10)
(3.6268e-06 -1.3539e-05 2.6288e-06)
(9.8367e-09 -2.2136e-08 -3.0266e-09)
(3.5567e-06 -1.2536e-05 5.1742e-06)
(1.8832e-12 -8.5698e-13 3.1787e-13)
(3.7345e-06 -1.1227e-05 7.5507e-06)
(1.5032e-08 1.9378e-10 1.7061e-08)
(3.8877e-06 -9.5986e-06 9.5981e-06)
(1.4926e-12 -7.8989e-12 7.8985e-12)
(3.7345e-06 -7.5513e-06 1.1227e-05)
(1.5031e-08 -1.7066e-08 -1.9479e-10)
(3.5566e-06 -5.1747e-06 1.2536e-05)
(1.8833e-12 -3.1792e-13 8.568e-13)
(3.6268e-06 -2.6293e-06 1.3539e-05)
(9.8365e-09 3.027e-09 2.2139e-08)
(3.7331e-06 -3.1387e-10 1.394e-05)
(1.6762e-12 -1.2239e-16 5.0088e-12)
(5.1108e-06 -2.9364e-05 -2.894e-10)
(4.8812e-06 -2.8483e-05 5.5762e-06)
(4.7669e-06 -2.6385e-05 1.0921e-05)
(5.0612e-06 -2.3592e-05 1.585e-05)
(5.3796e-06 -2.0154e-05 2.0153e-05)
(5.0611e-06 -1.5851e-05 2.3591e-05)
(4.7667e-06 -1.0922e-05 2.6385e-05)
(4.881e-06 -5.5772e-06 2.8483e-05)
(5.1107e-06 -5.6372e-10 2.9364e-05)
(3.4792e-06 -4.4994e-05 -4.667e-10)
(3.4526e-06 -4.3854e-05 8.6904e-06)
(3.4634e-06 -4.0771e-05 1.694e-05)
(3.5917e-06 -3.6347e-05 2.438e-05)
(3.6808e-06 -3.0853e-05 3.0851e-05)
(3.5916e-06 -2.4381e-05 3.6346e-05)
(3.4631e-06 -1.6941e-05 4.0771e-05)
(3.4524e-06 -8.6917e-06 4.3853e-05)
(3.479e-06 -7.1879e-10 4.4994e-05)
(1.2065e-06 -6.1192e-05 -6.4481e-10)
(1.3673e-06 -5.9768e-05 1.1876e-05)
(1.4552e-06 -5.5671e-05 2.3168e-05)
(1.3968e-06 -4.9662e-05 3.3306e-05)
(1.2479e-06 -4.2075e-05 4.2074e-05)
(1.3967e-06 -3.3308e-05 4.9661e-05)
(1.4549e-06 -2.3169e-05 5.5671e-05)
(1.367e-06 -1.1878e-05 5.9767e-05)
(1.2062e-06 -8.4893e-10 6.1192e-05)
(4.956e-07 -7.7686e-05 -8.8938e-10)
(4.94e-07 -7.5697e-05 1.4906e-05)
(4.6202e-07 -7.0512e-05 2.9249e-05)
(4.1411e-07 -6.3166e-05 4.2418e-05)
(3.7903e-07 -5.3844e-05 5.3842e-05)
(4.1398e-07 -4.242e-05 6.3165e-05)
(4.6178e-07 -2.9251e-05 7.0511e-05)
(4.9367e-07 -1.4908e-05 7.5697e-05)
(4.9519e-07 -9.4737e-10 7.7686e-05)
(1.2967e-07 -9.135e-05 -1.0873e-09)
(-4.0502e-08 -8.8845e-05 1.7412e-05)
(-2.06e-07 -8.2809e-05 3.4288e-05)
(-1.7563e-07 -7.446e-05 5.003e-05)
(-7.1203e-08 -6.3753e-05 6.3752e-05)
(-1.7568e-07 -5.0032e-05 7.4459e-05)
(-2.0613e-07 -3.429e-05 8.2808e-05)
(-4.0763e-08 -1.7414e-05 8.8844e-05)
(1.2926e-07 -9.7302e-10 9.1351e-05)
(-1.894e-06 -9.9585e-05 -1.1916e-09)
(-1.9824e-06 -9.7297e-05 1.9194e-05)
(-2.0921e-06 -9.1101e-05 3.7741e-05)
(-2.0871e-06 -8.1902e-05 5.4917e-05)
(-2.045e-06 -6.9852e-05 6.985e-05)
(-2.087e-06 -5.4919e-05 8.19e-05)
(-2.0921e-06 -3.7743e-05 9.11e-05)
(-1.9825e-06 -1.9196e-05 9.7296e-05)
(-1.8943e-06 -8.3164e-10 9.9585e-05)
(-5.7531e-06 -0.00010532 -1.2153e-09)
(-5.75e-06 -0.00010327 2.0524e-05)
(-5.7523e-06 -9.7041e-05 4.0234e-05)
(-5.7903e-06 -8.7187e-05 5.8328e-05)
(-5.8077e-06 -7.408e-05 7.4078e-05)
(-5.7902e-06 -5.833e-05 8.7185e-05)
(-5.7522e-06 -4.0236e-05 9.7039e-05)
(-5.7501e-06 -2.0526e-05 0.00010327)
(-5.7534e-06 -6.7611e-10 0.00010532)
(-1.0731e-05 -0.00011166 -1.1873e-09)
(-1.0651e-05 -0.00010942 2.175e-05)
(-1.0576e-05 -0.00010286 4.2625e-05)
(-1.0647e-05 -9.2422e-05 6.1796e-05)
(-1.0723e-05 -7.8565e-05 7.8564e-05)
(-1.0646e-05 -6.1798e-05 9.2421e-05)
(-1.0576e-05 -4.2626e-05 0.00010286)
(-1.0651e-05 -2.1751e-05 0.00010942)
(-1.0731e-05 -6.0358e-10 0.00011166)
(-1.5655e-05 -0.00011762 -1.0693e-09)
(-1.552e-05 -0.00011514 2.2846e-05)
(-1.5411e-05 -0.00010816 4.4791e-05)
(-1.5505e-05 -9.7202e-05 6.4995e-05)
(-1.5629e-05 -8.27e-05 8.2699e-05)
(-1.5505e-05 -6.4997e-05 9.7201e-05)
(-1.5411e-05 -4.4792e-05 0.00010815)
(-1.552e-05 -2.2848e-05 0.00011514)
(-1.5655e-05 -5.5903e-10 0.00011762)
(-1.9598e-05 -0.00012082 -1.0209e-09)
(-1.9545e-05 -0.0001183 2.3473e-05)
(-1.9498e-05 -0.00011111 4.6026e-05)
(-1.9547e-05 -9.9828e-05 6.6766e-05)
(-1.96e-05 -8.4917e-05 8.4916e-05)
(-1.9547e-05 -6.6767e-05 9.9827e-05)
(-1.9498e-05 -4.6027e-05 0.00011111)
(-1.9545e-05 -2.3474e-05 0.00011829)
(-1.9599e-05 -2.5785e-10 0.00012082)
(-2.2939e-05 -0.00011983 -7.4073e-10)
(-2.2973e-05 -0.00011734 2.331e-05)
(-2.3002e-05 -0.00011024 4.5698e-05)
(-2.3007e-05 -9.9034e-05 6.6237e-05)
(-2.2988e-05 -8.423e-05 8.4229e-05)
(-2.3007e-05 -6.6237e-05 9.9033e-05)
(-2.3002e-05 -4.5698e-05 0.00011024)
(-2.2973e-05 -2.3311e-05 0.00011734)
(-2.294e-05 -1.7869e-10 0.00011983)
(3.6268e-06 2.6287e-06 1.3539e-05)
(9.8325e-09 -3.0278e-09 2.2147e-08)
(3.5567e-06 5.1741e-06 1.2536e-05)
(1.8835e-12 3.1761e-13 8.5657e-13)
(3.7347e-06 7.5506e-06 1.1227e-05)
(1.5035e-08 1.7066e-08 -2.0182e-10)
(3.888e-06 9.598e-06 9.5978e-06)
(1.4925e-12 7.8987e-12 7.8987e-12)
(3.7348e-06 1.1227e-05 7.5505e-06)
(1.5035e-08 -2.023e-10 1.7056e-08)
(3.5569e-06 1.2536e-05 5.174e-06)
(1.8835e-12 8.568e-13 3.1762e-13)
(3.6271e-06 1.3539e-05 2.6286e-06)
(9.8373e-09 2.2142e-08 -3.0216e-09)
(3.7334e-06 1.394e-05 -3.2205e-10)
(1.6763e-12 5.0089e-12 -1.3916e-16)
(4.881e-06 5.5761e-06 2.8483e-05)
(4.7668e-06 1.0921e-05 2.6385e-05)
(5.0613e-06 1.585e-05 2.3591e-05)
(5.3799e-06 2.0153e-05 2.0153e-05)
(5.0615e-06 2.3591e-05 1.585e-05)
(4.7672e-06 2.6385e-05 1.0921e-05)
(4.8815e-06 2.8483e-05 5.5761e-06)
(5.1112e-06 2.9364e-05 -5.3965e-10)
(3.4522e-06 8.6905e-06 4.3854e-05)
(3.463e-06 1.694e-05 4.0771e-05)
(3.5914e-06 2.438e-05 3.6346e-05)
(3.6808e-06 3.0851e-05 3.0851e-05)
(3.5917e-06 3.6346e-05 2.438e-05)
(3.4634e-06 4.077e-05 1.694e-05)
(3.4528e-06 4.3853e-05 8.6905e-06)
(3.4795e-06 4.4994e-05 -6.4463e-10)
(1.3667e-06 1.1877e-05 5.9768e-05)
(1.4545e-06 2.3168e-05 5.5672e-05)
(1.3962e-06 3.3307e-05 4.9661e-05)
(1.2475e-06 4.2074e-05 4.2074e-05)
(1.3965e-06 4.966e-05 3.3306e-05)
(1.455e-06 5.5671e-05 2.3168e-05)
(1.3673e-06 5.9767e-05 1.1877e-05)
(1.2066e-06 6.1192e-05 -6.6992e-10)
(4.9335e-07 1.4907e-05 7.5698e-05)
(4.6123e-07 2.925e-05 7.0513e-05)
(4.1335e-07 4.2419e-05 6.3166e-05)
(3.7847e-07 5.3843e-05 5.3843e-05)
(4.1372e-07 6.3165e-05 4.2419e-05)
(4.6184e-07 7.0511e-05 2.925e-05)
(4.9402e-07 7.5697e-05 1.4907e-05)
(4.9578e-07 7.7686e-05 -6.899e-10)
(-4.1073e-08 1.7413e-05 8.8846e-05)
(-2.0665e-07 3.4289e-05 8.281e-05)
(-1.7625e-07 5.0031e-05 7.446e-05)
(-7.1655e-08 6.3752e-05 6.3753e-05)
(-1.7585e-07 7.4459e-05 5.0031e-05)
(-2.0593e-07 8.2808e-05 3.4289e-05)
(-4.0186e-08 8.8844e-05 1.7413e-05)
(1.3016e-07 9.135e-05 -7.1765e-10)
(-1.9828e-06 1.9194e-05 9.7298e-05)
(-2.0925e-06 3.7743e-05 9.1102e-05)
(-2.0874e-06 5.4918e-05 8.1903e-05)
(-2.0453e-06 6.9851e-05 6.9852e-05)
(-2.087e-06 8.1901e-05 5.4918e-05)
(-2.0917e-06 9.11e-05 3.7742e-05)
(-1.9818e-06 9.7295e-05 1.9194e-05)
(-1.8932e-06 9.9583e-05 -7.3688e-10)
(-5.7502e-06 2.0525e-05 0.00010327)
(-5.7524e-06 4.0235e-05 9.7042e-05)
(-5.7904e-06 5.833e-05 8.7188e-05)
(-5.8077e-06 7.408e-05 7.408e-05)
(-5.7901e-06 8.7186e-05 5.8329e-05)
(-5.7519e-06 9.7039e-05 4.0234e-05)
(-5.7494e-06 0.00010327 2.0524e-05)
(-5.7525e-06 0.00010531 -6.986e-10)
(-1.0651e-05 2.1751e-05 0.00010942)
(-1.0576e-05 4.2626e-05 0.00010286)
(-1.0646e-05 6.1798e-05 9.2423e-05)
(-1.0723e-05 7.8565e-05 7.8566e-05)
(-1.0646e-05 9.2422e-05 6.1797e-05)
(-1.0576e-05 0.00010286 4.2625e-05)
(-1.0651e-05 0.00010942 2.175e-05)
(-1.0731e-05 0.00011165 -6.549e-10)
(-1.552e-05 2.2847e-05 0.00011514)
(-1.5411e-05 4.4792e-05 0.00010816)
(-1.5505e-05 6.4997e-05 9.7203e-05)
(-1.5629e-05 8.27e-05 8.27e-05)
(-1.5505e-05 9.7202e-05 6.4996e-05)
(-1.5411e-05 0.00010815 4.4791e-05)
(-1.552e-05 0.00011514 2.2847e-05)
(-1.5656e-05 0.00011762 -6.1504e-10)
(-1.9545e-05 2.3474e-05 0.0001183)
(-1.9498e-05 4.6028e-05 0.00011111)
(-1.9547e-05 6.6768e-05 9.9829e-05)
(-1.96e-05 8.4918e-05 8.4917e-05)
(-1.9547e-05 9.9828e-05 6.6767e-05)
(-1.9498e-05 0.00011111 4.6027e-05)
(-1.9545e-05 0.00011829 2.3473e-05)
(-1.9599e-05 0.00012082 -6.4515e-10)
(-2.2973e-05 2.3311e-05 0.00011734)
(-2.3002e-05 4.5699e-05 0.00011024)
(-2.3007e-05 6.6238e-05 9.9035e-05)
(-2.2988e-05 8.423e-05 8.423e-05)
(-2.3007e-05 9.9034e-05 6.6237e-05)
(-2.3002e-05 0.00011024 4.5698e-05)
(-2.2973e-05 0.00011734 2.3311e-05)
(-2.294e-05 0.00011983 -8.4017e-10)
(3.627e-06 1.3539e-05 -2.6293e-06)
(9.8384e-09 2.2144e-08 3.0273e-09)
(3.5568e-06 1.2536e-05 -5.1748e-06)
(1.8835e-12 8.5678e-13 -3.1792e-13)
(3.7347e-06 1.1227e-05 -7.5514e-06)
(1.5029e-08 -1.9484e-10 -1.7067e-08)
(3.888e-06 9.5982e-06 -9.5988e-06)
(1.4926e-12 7.8987e-12 -7.899e-12)
(3.7348e-06 7.5508e-06 -1.1228e-05)
(1.5032e-08 1.7061e-08 1.9322e-10)
(3.5569e-06 5.1743e-06 -1.2536e-05)
(1.8833e-12 3.1793e-13 -8.5706e-13)
(3.6271e-06 2.6288e-06 -1.3539e-05)
(9.8374e-09 -3.0274e-09 -2.2138e-08)
(3.7334e-06 -7.4475e-11 -1.394e-05)
(1.6763e-12 -2.3543e-17 -5.0089e-12)
(4.8815e-06 2.8483e-05 -5.5773e-06)
(4.7671e-06 2.6385e-05 -1.0922e-05)
(5.0614e-06 2.3591e-05 -1.5852e-05)
(5.3799e-06 2.0153e-05 -2.0154e-05)
(5.0616e-06 1.585e-05 -2.3592e-05)
(4.7673e-06 1.0921e-05 -2.6386e-05)
(4.8817e-06 5.5763e-06 -2.8483e-05)
(5.1113e-06 -2.2855e-10 -2.9364e-05)
(3.4527e-06 4.3854e-05 -8.6919e-06)
(3.4635e-06 4.0771e-05 -1.6941e-05)
(3.5919e-06 3.6346e-05 -2.4382e-05)
(3.6813e-06 3.0852e-05 -3.0853e-05)
(3.5922e-06 2.438e-05 -3.6347e-05)
(3.464e-06 1.694e-05 -4.0772e-05)
(3.4533e-06 8.6904e-06 -4.3854e-05)
(3.4799e-06 -4.8131e-10 -4.4994e-05)
(1.3673e-06 5.9768e-05 -1.1878e-05)
(1.4552e-06 5.5671e-05 -2.317e-05)
(1.397e-06 4.9661e-05 -3.3308e-05)
(1.2484e-06 4.2074e-05 -4.2075e-05)
(1.3974e-06 3.3306e-05 -4.9662e-05)
(1.4558e-06 2.3168e-05 -5.5671e-05)
(1.3681e-06 1.1876e-05 -5.9767e-05)
(1.2073e-06 -7.8325e-10 -6.1191e-05)
(4.9418e-07 7.5698e-05 -1.4908e-05)
(4.6224e-07 7.0512e-05 -2.9251e-05)
(4.1444e-07 6.3165e-05 -4.2421e-05)
(3.7954e-07 5.3842e-05 -5.3844e-05)
(4.1468e-07 4.2418e-05 -6.3166e-05)
(4.6268e-07 2.9249e-05 -7.0512e-05)
(4.9473e-07 1.4906e-05 -7.5697e-05)
(4.9635e-07 -1.091e-09 -7.7685e-05)
(-3.9938e-08 8.8845e-05 -1.7414e-05)
(-2.0543e-07 8.2808e-05 -3.429e-05)
(-1.7509e-07 7.4459e-05 -5.0032e-05)
(-7.0676e-08 6.3751e-05 -6.3753e-05)
(-1.7513e-07 5.003e-05 -7.446e-05)
(-2.0548e-07 3.4287e-05 -8.2808e-05)
(-3.9953e-08 1.7412e-05 -8.8844e-05)
(1.3023e-07 -1.2926e-09 -9.1349e-05)
(-1.9815e-06 9.7295e-05 -1.9196e-05)
(-2.0912e-06 9.11e-05 -3.7744e-05)
(-2.0863e-06 8.1901e-05 -5.4919e-05)
(-2.0445e-06 6.985e-05 -6.9852e-05)
(-2.0867e-06 5.4917e-05 -8.1902e-05)
(-2.0918e-06 3.7741e-05 -9.1101e-05)
(-1.9822e-06 1.9193e-05 -9.7296e-05)
(-1.8938e-06 -1.3232e-09 -9.9584e-05)
(-5.7491e-06 0.00010327 -2.0526e-05)
(-5.7513e-06 9.7039e-05 -4.0236e-05)
(-5.7895e-06 8.7186e-05 -5.8331e-05)
(-5.8072e-06 7.4079e-05 -7.4081e-05)
(-5.79e-06 5.8328e-05 -8.7187e-05)
(-5.7522e-06 4.0234e-05 -9.7041e-05)
(-5.7501e-06 2.0524e-05 -0.00010327)
(-5.7534e-06 -1.1997e-09 -0.00010532)
(-1.065e-05 0.00010942 -2.1752e-05)
(-1.0576e-05 0.00010286 -4.2627e-05)
(-1.0646e-05 9.2422e-05 -6.1799e-05)
(-1.0722e-05 7.8564e-05 -7.8567e-05)
(-1.0646e-05 6.1796e-05 -9.2423e-05)
(-1.0576e-05 4.2625e-05 -0.00010286)
(-1.0651e-05 2.175e-05 -0.00010942)
(-1.0731e-05 -9.8528e-10 -0.00011166)
(-1.552e-05 0.00011514 -2.2848e-05)
(-1.541e-05 0.00010815 -4.4793e-05)
(-1.5504e-05 9.7202e-05 -6.4998e-05)
(-1.5628e-05 8.2699e-05 -8.2701e-05)
(-1.5504e-05 6.4996e-05 -9.7204e-05)
(-1.541e-05 4.4791e-05 -0.00010816)
(-1.552e-05 2.2847e-05 -0.00011515)
(-1.5655e-05 -7.4188e-10 -0.00011762)
(-1.9545e-05 0.0001183 -2.3475e-05)
(-1.9498e-05 0.00011111 -4.6028e-05)
(-1.9546e-05 9.9828e-05 -6.6769e-05)
(-1.96e-05 8.4917e-05 -8.4919e-05)
(-1.9546e-05 6.6767e-05 -9.983e-05)
(-1.9497e-05 4.6027e-05 -0.00011111)
(-1.9544e-05 2.3473e-05 -0.0001183)
(-1.9598e-05 -3.8589e-10 -0.00012082)
(-2.2973e-05 0.00011734 -2.3312e-05)
(-2.3002e-05 0.00011024 -4.57e-05)
(-2.3007e-05 9.9034e-05 -6.6239e-05)
(-2.2988e-05 8.423e-05 -8.4231e-05)
(-2.3006e-05 6.6238e-05 -9.9036e-05)
(-2.3001e-05 4.5699e-05 -0.00011024)
(-2.2972e-05 2.3311e-05 -0.00011734)
(-2.2938e-05 -2.5967e-10 -0.00011983)
(3.627e-06 -2.629e-06 -1.3539e-05)
(9.8379e-09 3.0285e-09 -2.2142e-08)
(3.5567e-06 -5.1744e-06 -1.2536e-05)
(1.8833e-12 -3.1775e-13 -8.5698e-13)
(3.7345e-06 -7.5509e-06 -1.1227e-05)
(1.5029e-08 -1.7062e-08 1.9694e-10)
(3.8877e-06 -9.5983e-06 -9.5984e-06)
(1.4924e-12 -7.8988e-12 -7.8988e-12)
(3.7344e-06 -1.1227e-05 -7.551e-06)
(1.5029e-08 1.9839e-10 -1.7063e-08)
(3.5565e-06 -1.2536e-05 -5.1745e-06)
(1.8833e-12 -8.5684e-13 -3.1779e-13)
(3.6267e-06 -1.3539e-05 -2.6291e-06)
(9.836e-09 -2.2144e-08 3.0284e-09)
(4.8815e-06 -5.5767e-06 -2.8483e-05)
(4.767e-06 -1.0922e-05 -2.6385e-05)
(5.0611e-06 -1.5851e-05 -2.3592e-05)
(5.3794e-06 -2.0154e-05 -2.0154e-05)
(5.0609e-06 -2.3592e-05 -1.5851e-05)
(4.7666e-06 -2.6385e-05 -1.0922e-05)
(4.881e-06 -2.8483e-05 -5.5768e-06)
(3.453e-06 -8.6914e-06 -4.3854e-05)
(3.4635e-06 -1.6941e-05 -4.0771e-05)
(3.5917e-06 -2.4381e-05 -3.6347e-05)
(3.6807e-06 -3.0852e-05 -3.0852e-05)
(3.5914e-06 -3.6347e-05 -2.4381e-05)
(3.463e-06 -4.0771e-05 -1.6941e-05)
(3.4524e-06 -4.3854e-05 -8.6914e-06)
(1.3678e-06 -1.1878e-05 -5.9767e-05)
(1.4554e-06 -2.3169e-05 -5.5671e-05)
(1.3968e-06 -3.3308e-05 -4.9661e-05)
(1.2478e-06 -4.2075e-05 -4.2075e-05)
(1.3965e-06 -4.9662e-05 -3.3308e-05)
(1.4548e-06 -5.5672e-05 -2.3169e-05)
(1.3671e-06 -5.9768e-05 -1.1878e-05)
(4.9452e-07 -1.4908e-05 -7.5697e-05)
(4.6228e-07 -2.9251e-05 -7.0512e-05)
(4.1414e-07 -4.242e-05 -6.3166e-05)
(3.7894e-07 -5.3844e-05 -5.3843e-05)
(4.1387e-07 -6.3166e-05 -4.242e-05)
(4.6177e-07 -7.0513e-05 -2.9251e-05)
(4.9384e-07 -7.5698e-05 -1.4908e-05)
(-4.0066e-08 -1.7414e-05 -8.8844e-05)
(-2.0573e-07 -3.429e-05 -8.2808e-05)
(-1.7554e-07 -5.0032e-05 -7.446e-05)
(-7.1233e-08 -6.3753e-05 -6.3753e-05)
(-1.7571e-07 -7.446e-05 -5.0032e-05)
(-2.0606e-07 -8.2809e-05 -3.429e-05)
(-4.0536e-08 -8.8845e-05 -1.7414e-05)
(-1.9821e-06 -1.9196e-05 -9.7296e-05)
(-2.0918e-06 -3.7744e-05 -9.1101e-05)
(-2.0868e-06 -5.4919e-05 -8.1902e-05)
(-2.0448e-06 -6.9853e-05 -6.9852e-05)
(-2.0868e-06 -8.1903e-05 -5.4919e-05)
(-2.0919e-06 -9.1102e-05 -3.7744e-05)
(-1.9822e-06 -9.7297e-05 -1.9196e-05)
(-5.75e-06 -2.0526e-05 -0.00010327)
(-5.7519e-06 -4.0236e-05 -9.7041e-05)
(-5.7898e-06 -5.8331e-05 -8.7188e-05)
(-5.8071e-06 -7.4081e-05 -7.4081e-05)
(-5.7897e-06 -8.7188e-05 -5.8331e-05)
(-5.7517e-06 -9.7042e-05 -4.0237e-05)
(-5.7497e-06 -0.00010327 -2.0526e-05)
(-1.0651e-05 -2.1752e-05 -0.00010942)
(-1.0576e-05 -4.2627e-05 -0.00010286)
(-1.0646e-05 -6.1799e-05 -9.2424e-05)
(-1.0722e-05 -7.8566e-05 -7.8567e-05)
(-1.0646e-05 -9.2424e-05 -6.1799e-05)
(-1.0576e-05 -0.00010286 -4.2627e-05)
(-1.065e-05 -0.00010942 -2.1752e-05)
(-1.552e-05 -2.2848e-05 -0.00011515)
(-1.541e-05 -4.4793e-05 -0.00010816)
(-1.5504e-05 -6.4997e-05 -9.7204e-05)
(-1.5628e-05 -8.2701e-05 -8.2701e-05)
(-1.5504e-05 -9.7203e-05 -6.4998e-05)
(-1.541e-05 -0.00010816 -4.4793e-05)
(-1.552e-05 -0.00011514 -2.2849e-05)
(-1.9544e-05 -2.3474e-05 -0.0001183)
(-1.9497e-05 -4.6028e-05 -0.00011111)
(-1.9545e-05 -6.6768e-05 -9.983e-05)
(-1.9599e-05 -8.4918e-05 -8.4918e-05)
(-1.9545e-05 -9.9829e-05 -6.6768e-05)
(-1.9497e-05 -0.00011111 -4.6028e-05)
(-1.9544e-05 -0.0001183 -2.3475e-05)
(-2.2972e-05 -2.3312e-05 -0.00011734)
(-2.3e-05 -4.5699e-05 -0.00011024)
(-2.3006e-05 -6.6238e-05 -9.9035e-05)
(-2.2987e-05 -8.423e-05 -8.4231e-05)
(-2.3006e-05 -9.9035e-05 -6.6239e-05)
(-2.3001e-05 -0.00011024 -4.57e-05)
(-2.2972e-05 -0.00011734 -2.3312e-05)
)
;
    }
    procBoundary0to1
    {
        type            processor;
    }
}


// ************************************************************************* //
