/*--------------------------------*- C++ -*----------------------------------*\
| =========                 |                                                 |
| \\      /  F ield         | OpenFOAM: The Open Source CFD Toolbox           |
|  \\    /   O peration     | Version:  4.1                                   |
|   \\  /    A nd           | Web:      www.OpenFOAM.org                      |
|    \\/     M anipulation  |                                                 |
\*---------------------------------------------------------------------------*/
FoamFile
{
    version     2.0;
    format      ascii;
    class       pointVectorField;
    location    "0.0079";
    object      pointDisplacement_Next_Iter3;
}
// * * * * * * * * * * * * * * * * * * * * * * * * * * * * * * * * * * * * * //

dimensions      [0 1 0 0 0 0 0];

internalField   uniform (0 0 0);

boundaryField
{
    inlet
    {
        type            fixedValue;
        value           uniform (0 0 0);
    }
    outlet
    {
        type            fixedValue;
        value           uniform (0 0 0);
    }
    mantle
    {
        type            fixedValue;
        value           nonuniform List<vector> 
1568
(
(3.6825e-12 -1.9295e-12 9.5091e-17)
(9.2213e-06 -4.7003e-06 2.0876e-10)
(9.0851e-06 -4.3061e-06 6.7777e-07)
(1.5313e-08 -3.7805e-08 -3.0568e-08)
(8.9511e-06 -3.7243e-06 1.5434e-06)
(4.4906e-12 -3.4558e-12 1.299e-12)
(9.0858e-06 -3.5236e-06 2.5666e-06)
(1.5323e-08 -5.066e-09 4.8367e-08)
(9.2222e-06 -3.3238e-06 3.3238e-06)
(2.4493e-12 5.127e-13 -5.129e-13)
(9.0858e-06 -2.5667e-06 3.5238e-06)
(1.5323e-08 -4.8369e-08 5.0623e-09)
(8.9512e-06 -1.5436e-06 3.7247e-06)
(4.4906e-12 -1.2989e-12 3.4559e-12)
(9.0852e-06 -6.7796e-07 4.3067e-06)
(1.5313e-08 3.0566e-08 3.7813e-08)
(9.2214e-06 -3.4548e-10 4.701e-06)
(3.6825e-12 -1.3558e-16 1.9298e-12)
(1.6136e-05 -5.9838e-06 3.1385e-10)
(1.5828e-05 -5.2231e-06 7.7202e-07)
(1.5592e-05 -4.3664e-06 1.81e-06)
(1.583e-05 -4.238e-06 3.1489e-06)
(1.6139e-05 -4.2312e-06 4.2311e-06)
(1.583e-05 -3.1492e-06 4.2383e-06)
(1.5592e-05 -1.8105e-06 4.3671e-06)
(1.5828e-05 -7.7244e-07 5.2242e-06)
(1.6137e-05 -6.1977e-10 5.9851e-06)
(1.9455e-05 -2.0191e-06 3.1657e-10)
(1.9322e-05 -1.7573e-06 2.0604e-07)
(1.9199e-05 -1.3931e-06 5.7839e-07)
(1.9327e-05 -1.3849e-06 1.0969e-06)
(1.9461e-05 -1.4254e-06 1.4252e-06)
(1.9327e-05 -1.0974e-06 1.3852e-06)
(1.9199e-05 -5.7909e-07 1.3939e-06)
(1.9323e-05 -2.0669e-07 1.7586e-06)
(1.9455e-05 -7.701e-10 2.0207e-06)
(2.1208e-05 2.3752e-06 2.6474e-10)
(2.1255e-05 2.1409e-06 -4.3203e-07)
(2.1241e-05 1.9978e-06 -8.2748e-07)
(2.1262e-05 1.8294e-06 -1.2149e-06)
(2.1218e-05 1.6906e-06 -1.6909e-06)
(2.1262e-05 1.2141e-06 -1.8292e-06)
(2.1242e-05 8.2656e-07 -1.9971e-06)
(2.1255e-05 4.3118e-07 -2.1397e-06)
(2.1209e-05 -8.6135e-10 -2.3737e-06)
(2.3801e-05 2.5415e-06 2.0444e-10)
(2.3789e-05 2.5102e-06 -5.301e-07)
(2.3769e-05 2.4186e-06 -1.0051e-06)
(2.3797e-05 2.1744e-06 -1.4192e-06)
(2.3813e-05 1.8277e-06 -1.8282e-06)
(2.3797e-05 1.4182e-06 -2.1744e-06)
(2.3769e-05 1.004e-06 -2.418e-06)
(2.3789e-05 5.291e-07 -2.5091e-06)
(2.3802e-05 -9.521e-10 -2.5401e-06)
(2.7245e-05 1.2265e-07 1.3509e-10)
(2.7157e-05 3.8197e-07 -1.6614e-07)
(2.7089e-05 5.8041e-07 -2.4124e-07)
(2.7165e-05 4.3275e-07 -1.8442e-07)
(2.7256e-05 1.419e-07 -1.4259e-07)
(2.7165e-05 1.8337e-07 -4.3295e-07)
(2.7089e-05 2.4004e-07 -5.8007e-07)
(2.7158e-05 1.6501e-07 -3.8114e-07)
(2.7246e-05 -1.0298e-09 -1.2151e-07)
(3.0765e-05 -1.6629e-06 4.271e-11)
(3.0721e-05 -1.4937e-06 2.2966e-07)
(3.0678e-05 -1.2463e-06 5.2191e-07)
(3.0724e-05 -1.1549e-06 8.5739e-07)
(3.077e-05 -1.1008e-06 1.1e-06)
(3.0724e-05 -8.5853e-07 1.1545e-06)
(3.0679e-05 -5.2319e-07 1.2463e-06)
(3.0721e-05 -2.3088e-07 1.4942e-06)
(3.0766e-05 -1.0415e-09 1.6638e-06)
(3.4316e-05 -2.1855e-06 -5.5568e-11)
(3.4314e-05 -2.1415e-06 4.1811e-07)
(3.4307e-05 -1.9811e-06 8.3205e-07)
(3.4307e-05 -1.745e-06 1.1872e-06)
(3.4307e-05 -1.469e-06 1.4681e-06)
(3.4307e-05 -1.1884e-06 1.7444e-06)
(3.4307e-05 -8.3336e-07 1.9809e-06)
(3.4315e-05 -4.1937e-07 2.1417e-06)
(3.4316e-05 -1.0044e-09 2.186e-06)
(3.8062e-05 -1.5941e-06 3.7234e-10)
(3.8061e-05 -1.5609e-06 3.0794e-07)
(3.8056e-05 -1.4564e-06 6.06e-07)
(3.8038e-05 -1.2927e-06 8.6839e-07)
(3.8029e-05 -1.0921e-06 1.0903e-06)
(3.8038e-05 -8.696e-07 1.292e-06)
(3.8056e-05 -6.0729e-07 1.456e-06)
(3.8062e-05 -3.0919e-07 1.5608e-06)
(3.8062e-05 -1.447e-09 1.5943e-06)
(4.1952e-05 3.67e-07 -1.8565e-10)
(4.1946e-05 3.8457e-07 -8.5094e-08)
(4.1919e-05 3.7135e-07 -1.6312e-07)
(4.1911e-05 2.9738e-07 -2.0705e-07)
(4.1897e-05 2.3082e-07 -2.3186e-07)
(4.1911e-05 2.059e-07 -2.9826e-07)
(4.1919e-05 1.6192e-07 -3.7202e-07)
(4.1946e-05 8.3922e-08 -3.8497e-07)
(4.1952e-05 -8.5387e-10 -3.6708e-07)
(4.5856e-05 3.814e-06 -3.2233e-10)
(4.583e-05 3.7315e-06 -7.5761e-07)
(4.5794e-05 3.4729e-06 -1.4596e-06)
(4.5786e-05 3.0725e-06 -2.0654e-06)
(4.5793e-05 2.589e-06 -2.5902e-06)
(4.5786e-05 2.0644e-06 -3.0734e-06)
(4.5794e-05 1.4585e-06 -3.4737e-06)
(4.583e-05 7.5659e-07 -3.7321e-06)
(4.5856e-05 -6.2768e-10 -3.8144e-06)
(4.9606e-05 8.2492e-06 -2.2917e-10)
(4.957e-05 8.0404e-06 -1.6012e-06)
(4.9527e-05 7.461e-06 -3.1095e-06)
(4.9523e-05 6.6427e-06 -4.4588e-06)
(4.954e-05 5.63e-06 -5.6309e-06)
(4.9523e-05 4.458e-06 -6.6436e-06)
(4.9527e-05 3.1087e-06 -7.462e-06)
(4.957e-05 1.6004e-06 -8.0413e-06)
(4.9606e-05 -5.9196e-10 -8.2499e-06)
(5.3035e-05 1.284e-05 -3.2304e-10)
(5.3003e-05 1.2494e-05 -2.4568e-06)
(5.2963e-05 1.1592e-05 -4.796e-06)
(5.2956e-05 1.0329e-05 -6.9222e-06)
(5.2968e-05 8.7764e-06 -8.777e-06)
(5.2956e-05 6.9216e-06 -1.033e-05)
(5.2963e-05 4.7954e-06 -1.1593e-05)
(5.3003e-05 2.4562e-06 -1.2495e-05)
(5.3035e-05 -3.413e-10 -1.2842e-05)
(5.616e-05 1.6501e-05 -1.9607e-10)
(5.6142e-05 1.6047e-05 -3.1609e-06)
(5.6111e-05 1.4898e-05 -6.1578e-06)
(5.6102e-05 1.3267e-05 -8.8749e-06)
(5.6102e-05 1.1267e-05 -1.1268e-05)
(5.6102e-05 8.8745e-06 -1.3267e-05)
(5.6111e-05 6.1575e-06 -1.4899e-05)
(5.6142e-05 3.1605e-06 -1.6049e-05)
(5.616e-05 -3.0703e-10 -1.6502e-05)
(5.9065e-05 1.8149e-05 -3.623e-11)
(5.9055e-05 1.7715e-05 -3.5383e-06)
(5.9042e-05 1.6491e-05 -6.8458e-06)
(5.9035e-05 1.464e-05 -9.7785e-06)
(5.9036e-05 1.2365e-05 -1.2365e-05)
(5.9035e-05 9.7783e-06 -1.4641e-05)
(5.9042e-05 6.8458e-06 -1.6492e-05)
(5.9055e-05 3.5381e-06 -1.7716e-05)
(5.9064e-05 -3.1188e-10 -1.8151e-05)
(6.1812e-05 1.7542e-05 -1.0792e-10)
(6.1818e-05 1.7168e-05 -3.4727e-06)
(6.1826e-05 1.6024e-05 -6.6854e-06)
(6.1823e-05 1.417e-05 -9.4518e-06)
(6.1821e-05 1.1903e-05 -1.1903e-05)
(6.1823e-05 9.4518e-06 -1.417e-05)
(6.1826e-05 6.6855e-06 -1.6025e-05)
(6.1817e-05 3.4728e-06 -1.7169e-05)
(6.1812e-05 -8.5228e-11 -1.7544e-05)
(6.4439e-05 1.4716e-05 8.3276e-10)
(6.4444e-05 1.4374e-05 -2.8911e-06)
(6.4459e-05 1.3378e-05 -5.5635e-06)
(6.4471e-05 1.1827e-05 -7.8891e-06)
(6.4478e-05 9.9524e-06 -9.9513e-06)
(6.4471e-05 7.8892e-06 -1.1827e-05)
(6.4459e-05 5.5638e-06 -1.3379e-05)
(6.4443e-05 2.8913e-06 -1.4375e-05)
(6.4438e-05 -8.7144e-10 -1.4718e-05)
(6.6891e-05 9.7823e-06 4.5826e-11)
(6.6903e-05 9.5175e-06 -1.9008e-06)
(6.6922e-05 8.8159e-06 -3.6458e-06)
(6.6943e-05 7.7606e-06 -5.1691e-06)
(6.6947e-05 6.535e-06 -6.535e-06)
(6.6943e-05 5.1693e-06 -7.761e-06)
(6.6922e-05 3.6462e-06 -8.8168e-06)
(6.6903e-05 1.9011e-06 -9.5189e-06)
(6.689e-05 5.1197e-11 -9.7841e-06)
(6.9069e-05 2.9813e-06 -1.4875e-10)
(6.9089e-05 2.8943e-06 -5.9441e-07)
(6.9122e-05 2.6274e-06 -1.0896e-06)
(6.9125e-05 2.2239e-06 -1.4614e-06)
(6.9121e-05 1.8109e-06 -1.8104e-06)
(6.9125e-05 1.4617e-06 -2.224e-06)
(6.9121e-05 1.0901e-06 -2.6279e-06)
(6.9088e-05 5.9481e-07 -2.8953e-06)
(6.9068e-05 3.425e-10 -2.9827e-06)
(7.0826e-05 -5.0752e-06 2.2401e-10)
(7.0861e-05 -4.9538e-06 9.4125e-07)
(7.0909e-05 -4.6982e-06 1.9273e-06)
(7.0894e-05 -4.3549e-06 2.941e-06)
(7.0873e-05 -3.8067e-06 3.807e-06)
(7.0894e-05 -2.9406e-06 4.3551e-06)
(7.0909e-05 -1.9268e-06 4.6982e-06)
(7.086e-05 -9.4081e-07 4.9535e-06)
(7.0826e-05 5.3664e-11 5.0745e-06)
(7.2038e-05 -1.3886e-05 3.6119e-10)
(7.2055e-05 -1.3618e-05 2.6833e-06)
(7.2087e-05 -1.2853e-05 5.3114e-06)
(7.2094e-05 -1.1647e-05 7.7968e-06)
(7.2093e-05 -9.9577e-06 9.9582e-06)
(7.2093e-05 -7.7962e-06 1.1648e-05)
(7.2087e-05 -5.3109e-06 1.2853e-05)
(7.2054e-05 -2.6828e-06 1.3618e-05)
(7.2037e-05 3.4251e-12 1.3886e-05)
(7.2575e-05 -2.344e-05 4.4804e-10)
(7.2586e-05 -2.2992e-05 4.5627e-06)
(7.2608e-05 -2.167e-05 8.9842e-06)
(7.2631e-05 -1.9539e-05 1.3071e-05)
(7.264e-05 -1.664e-05 1.6641e-05)
(7.2631e-05 -1.3071e-05 1.954e-05)
(7.2608e-05 -8.9837e-06 2.1671e-05)
(7.2585e-05 -4.5622e-06 2.2993e-05)
(7.2574e-05 7.9384e-12 2.3441e-05)
(7.2386e-05 -3.382e-05 2.7159e-10)
(7.2411e-05 -3.3135e-05 6.5762e-06)
(7.2453e-05 -3.1167e-05 1.292e-05)
(7.2454e-05 -2.8063e-05 1.8785e-05)
(7.2447e-05 -2.3903e-05 2.3903e-05)
(7.2454e-05 -1.8785e-05 2.8064e-05)
(7.2452e-05 -1.292e-05 3.1168e-05)
(7.2411e-05 -6.5756e-06 3.3136e-05)
(7.2386e-05 2.6162e-10 3.3821e-05)
(7.1546e-05 -4.4811e-05 6.4376e-10)
(7.1595e-05 -4.3871e-05 8.696e-06)
(7.166e-05 -4.1208e-05 1.7077e-05)
(7.1637e-05 -3.7086e-05 2.4827e-05)
(7.1603e-05 -3.1588e-05 3.1589e-05)
(7.1637e-05 -2.4826e-05 3.7087e-05)
(7.1659e-05 -1.7077e-05 4.1209e-05)
(7.1595e-05 -8.6954e-06 4.3872e-05)
(7.1545e-05 -5.3327e-11 4.4812e-05)
(7.0181e-05 -5.5964e-05 5.3262e-10)
(7.021e-05 -5.4789e-05 1.0858e-05)
(7.0255e-05 -5.1453e-05 2.1309e-05)
(7.0258e-05 -4.6265e-05 3.0953e-05)
(7.025e-05 -3.938e-05 3.9381e-05)
(7.0258e-05 -3.0952e-05 4.6266e-05)
(7.0255e-05 -2.1308e-05 5.1454e-05)
(7.0209e-05 -1.0857e-05 5.479e-05)
(7.018e-05 6.4731e-11 5.5965e-05)
(6.832e-05 -6.6559e-05 7.2158e-10)
(6.8339e-05 -6.5147e-05 1.2917e-05)
(6.8368e-05 -6.1163e-05 2.533e-05)
(6.8394e-05 -5.4966e-05 3.6768e-05)
(6.8398e-05 -4.6774e-05 4.6774e-05)
(6.8394e-05 -3.6767e-05 5.4967e-05)
(6.8368e-05 -2.5329e-05 6.1164e-05)
(6.8339e-05 -1.2917e-05 6.5147e-05)
(6.832e-05 -1.2051e-10 6.6559e-05)
(6.6013e-05 -7.5805e-05 9.7019e-10)
(6.603e-05 -7.4225e-05 1.4745e-05)
(6.6064e-05 -6.9697e-05 2.889e-05)
(6.6073e-05 -6.2592e-05 4.1869e-05)
(6.6073e-05 -5.3223e-05 5.3224e-05)
(6.6073e-05 -4.1868e-05 6.2593e-05)
(6.6064e-05 -2.8889e-05 6.9697e-05)
(6.6031e-05 -1.4744e-05 7.4224e-05)
(6.6013e-05 9.3895e-11 7.5804e-05)
(6.3315e-05 -8.3316e-05 7.6467e-10)
(6.3342e-05 -8.1586e-05 1.6221e-05)
(6.3377e-05 -7.6608e-05 3.1772e-05)
(6.3365e-05 -6.8779e-05 4.6008e-05)
(6.3347e-05 -5.8463e-05 5.8463e-05)
(6.3365e-05 -4.6008e-05 6.8779e-05)
(6.3377e-05 -3.1771e-05 7.6607e-05)
(6.3342e-05 -1.622e-05 8.1585e-05)
(6.3315e-05 -1.0423e-10 8.3315e-05)
(6.0281e-05 -8.8765e-05 1.0719e-09)
(6.0285e-05 -8.6899e-05 1.7248e-05)
(6.0293e-05 -8.1576e-05 3.3799e-05)
(6.0289e-05 -7.3262e-05 4.9002e-05)
(6.0286e-05 -6.2302e-05 6.2303e-05)
(6.0289e-05 -4.9001e-05 7.3262e-05)
(6.0293e-05 -3.3798e-05 8.1576e-05)
(6.0285e-05 -1.7247e-05 8.6898e-05)
(6.0281e-05 -3.5928e-10 8.8764e-05)
(5.6873e-05 -9.1823e-05 6.5991e-10)
(5.6862e-05 -8.9849e-05 1.7805e-05)
(5.6845e-05 -8.4329e-05 3.492e-05)
(5.6852e-05 -7.5762e-05 5.0677e-05)
(5.6856e-05 -6.4475e-05 6.4475e-05)
(5.6852e-05 -5.0677e-05 7.5762e-05)
(5.6845e-05 -3.4919e-05 8.4329e-05)
(5.6861e-05 -1.7804e-05 8.9848e-05)
(5.6873e-05 6.687e-11 9.1822e-05)
(5.3073e-05 -9.234e-05 6.9977e-10)
(5.3051e-05 -9.0402e-05 1.7933e-05)
(5.3027e-05 -8.4881e-05 3.5163e-05)
(5.3029e-05 -7.6261e-05 5.1014e-05)
(5.3042e-05 -6.4874e-05 6.4875e-05)
(5.3029e-05 -5.1013e-05 7.6262e-05)
(5.3027e-05 -3.5162e-05 8.4881e-05)
(5.3051e-05 -1.7932e-05 9.0402e-05)
(5.3073e-05 -2.4141e-11 9.2339e-05)
(4.8935e-05 -9.1047e-05 3.9906e-10)
(4.8911e-05 -8.9171e-05 1.7715e-05)
(4.8883e-05 -8.3756e-05 3.4725e-05)
(4.8881e-05 -7.526e-05 5.0348e-05)
(4.8893e-05 -6.4002e-05 6.4003e-05)
(4.8881e-05 -5.0348e-05 7.526e-05)
(4.8883e-05 -3.4725e-05 8.3757e-05)
(4.8911e-05 -1.7715e-05 8.9171e-05)
(4.8935e-05 1.9693e-10 9.1047e-05)
(4.4566e-05 -8.8592e-05 1.5754e-10)
(4.4545e-05 -8.6769e-05 1.723e-05)
(4.4515e-05 -8.1525e-05 3.3787e-05)
(4.4509e-05 -7.3274e-05 4.9017e-05)
(4.4515e-05 -6.2333e-05 6.2333e-05)
(4.4509e-05 -4.9016e-05 7.3274e-05)
(4.4515e-05 -3.3787e-05 8.1526e-05)
(4.4545e-05 -1.723e-05 8.6769e-05)
(4.4566e-05 3.5665e-10 8.8592e-05)
(4.016e-05 -8.5067e-05 1.4264e-10)
(4.0145e-05 -8.3299e-05 1.652e-05)
(4.0117e-05 -7.8271e-05 3.242e-05)
(4.0107e-05 -7.0381e-05 4.7081e-05)
(4.0105e-05 -5.9903e-05 5.9904e-05)
(4.0107e-05 -4.7081e-05 7.0382e-05)
(4.0117e-05 -3.242e-05 7.8271e-05)
(4.0145e-05 -1.652e-05 8.3299e-05)
(4.016e-05 2.9713e-10 8.5067e-05)
(3.5894e-05 -8.0317e-05 -2.7642e-11)
(3.5865e-05 -7.8664e-05 1.5597e-05)
(3.583e-05 -7.3933e-05 3.0622e-05)
(3.5833e-05 -6.6503e-05 4.4489e-05)
(3.5849e-05 -5.6608e-05 5.6608e-05)
(3.5833e-05 -4.4489e-05 6.6503e-05)
(3.583e-05 -3.0621e-05 7.3934e-05)
(3.5865e-05 -1.5596e-05 7.8664e-05)
(3.5894e-05 4.155e-10 8.0318e-05)
(3.18e-05 -7.4555e-05 -9.478e-11)
(3.176e-05 -7.3016e-05 1.4477e-05)
(3.1714e-05 -6.8631e-05 2.8434e-05)
(3.1732e-05 -6.1761e-05 4.1328e-05)
(3.1761e-05 -5.2591e-05 5.2591e-05)
(3.1732e-05 -4.1328e-05 6.1762e-05)
(3.1714e-05 -2.8434e-05 6.8631e-05)
(3.176e-05 -1.4477e-05 7.3017e-05)
(3.18e-05 4.2304e-10 7.4556e-05)
(2.7849e-05 -6.7993e-05 -5.0091e-10)
(2.7811e-05 -6.6608e-05 1.3209e-05)
(2.7767e-05 -6.2639e-05 2.5951e-05)
(2.7781e-05 -5.638e-05 3.7726e-05)
(2.7807e-05 -4.8009e-05 4.8009e-05)
(2.7781e-05 -3.7726e-05 5.638e-05)
(2.7767e-05 -2.5951e-05 6.264e-05)
(2.7811e-05 -1.3209e-05 6.6609e-05)
(2.785e-05 7.1936e-10 6.7993e-05)
(2.4044e-05 -6.0926e-05 -2.6669e-10)
(2.4013e-05 -5.9692e-05 1.1834e-05)
(2.3967e-05 -5.6159e-05 2.3267e-05)
(2.3985e-05 -5.0565e-05 3.3832e-05)
(2.3998e-05 -4.3066e-05 4.3066e-05)
(2.3985e-05 -3.3832e-05 5.0565e-05)
(2.3967e-05 -2.3267e-05 5.6159e-05)
(2.4013e-05 -1.1834e-05 5.9693e-05)
(2.4045e-05 3.7588e-10 6.0927e-05)
(2.0402e-05 -5.3625e-05 -4.4716e-10)
(2.0366e-05 -5.2549e-05 1.0416e-05)
(2.0328e-05 -4.9452e-05 2.0478e-05)
(2.0343e-05 -4.4553e-05 2.9805e-05)
(2.0369e-05 -3.7952e-05 3.7952e-05)
(2.0343e-05 -2.9805e-05 4.4553e-05)
(2.0328e-05 -2.0478e-05 4.9452e-05)
(2.0367e-05 -1.0416e-05 5.2549e-05)
(2.0402e-05 4.6484e-10 5.3625e-05)
(1.6982e-05 -4.6483e-05 -3.1067e-10)
(1.6944e-05 -4.5547e-05 9.0217e-06)
(1.6903e-05 -4.2866e-05 1.7748e-05)
(1.6932e-05 -3.8646e-05 2.5859e-05)
(1.6966e-05 -3.294e-05 3.294e-05)
(1.6932e-05 -2.5859e-05 3.8646e-05)
(1.6904e-05 -1.7748e-05 4.2866e-05)
(1.6944e-05 -9.0218e-06 4.5547e-05)
(1.6983e-05 2.5681e-10 4.6483e-05)
(1.3851e-05 -3.978e-05 -3.0156e-10)
(1.3818e-05 -3.901e-05 7.7421e-06)
(1.3785e-05 -3.6755e-05 1.5223e-05)
(1.3813e-05 -3.3129e-05 2.2156e-05)
(1.3844e-05 -2.8215e-05 2.8215e-05)
(1.3813e-05 -2.2156e-05 3.3128e-05)
(1.3785e-05 -1.5223e-05 3.6755e-05)
(1.3819e-05 -7.7422e-06 3.9009e-05)
(1.3852e-05 2.0169e-10 3.978e-05)
(1.1067e-05 -3.3604e-05 -2.7302e-10)
(1.1041e-05 -3.2986e-05 6.5549e-06)
(1.1015e-05 -3.1101e-05 1.2885e-05)
(1.1039e-05 -2.8032e-05 1.8742e-05)
(1.1065e-05 -2.3851e-05 2.3851e-05)
(1.1039e-05 -1.8742e-05 2.8032e-05)
(1.1015e-05 -1.2885e-05 3.1101e-05)
(1.1042e-05 -6.555e-06 3.2986e-05)
(1.1068e-05 1.4908e-10 3.3603e-05)
(8.6832e-06 -2.7789e-05 -2.3474e-10)
(8.6609e-06 -2.7238e-05 5.3957e-06)
(8.6363e-06 -2.5661e-05 1.063e-05)
(8.6617e-06 -2.3149e-05 1.5492e-05)
(8.6843e-06 -1.9739e-05 1.9739e-05)
(8.6617e-06 -1.5492e-05 2.3149e-05)
(8.6363e-06 -1.063e-05 2.5661e-05)
(8.661e-06 -5.3959e-06 2.7238e-05)
(8.6834e-06 9.8514e-11 2.7789e-05)
(6.7663e-06 -2.1738e-05 -1.9772e-10)
(6.743e-06 -2.1258e-05 4.1957e-06)
(6.7125e-06 -2.0003e-05 8.2769e-06)
(6.7476e-06 -1.807e-05 1.2103e-05)
(6.7726e-06 -1.5455e-05 1.5455e-05)
(6.7476e-06 -1.2103e-05 1.807e-05)
(6.7125e-06 -8.2772e-06 2.0003e-05)
(6.7431e-06 -4.1959e-06 2.1258e-05)
(6.7664e-06 5.6347e-11 2.1739e-05)
(5.2442e-06 -1.5145e-05 -1.5235e-10)
(5.2065e-06 -1.4861e-05 2.9495e-06)
(5.1731e-06 -1.4022e-05 5.8035e-06)
(5.2156e-06 -1.2651e-05 8.455e-06)
(5.2573e-06 -1.0776e-05 1.0776e-05)
(5.2156e-06 -8.4552e-06 1.2651e-05)
(5.1732e-06 -5.8037e-06 1.4022e-05)
(5.2066e-06 -2.9498e-06 1.4861e-05)
(5.2444e-06 1.1694e-11 1.5146e-05)
(3.7408e-06 -8.8419e-06 -1.0254e-10)
(3.6884e-06 -8.7525e-06 1.7655e-06)
(3.6499e-06 -8.3183e-06 3.4459e-06)
(3.6991e-06 -7.4733e-06 4.9655e-06)
(3.7568e-06 -6.2969e-06 6.2968e-06)
(3.6992e-06 -4.9657e-06 7.4733e-06)
(3.65e-06 -3.4461e-06 8.3185e-06)
(3.6886e-06 -1.7657e-06 8.7528e-06)
(3.7411e-06 -1.7782e-11 8.8422e-06)
(1.9353e-06 -3.7878e-06 -4.6562e-11)
(1.9142e-06 -3.7574e-06 7.6899e-07)
(1.8952e-06 -3.5882e-06 1.4878e-06)
(1.9205e-06 -3.2163e-06 2.1258e-06)
(1.9443e-06 -2.6984e-06 2.6983e-06)
(1.9205e-06 -2.1259e-06 3.2163e-06)
(1.8953e-06 -1.4879e-06 3.5883e-06)
(1.9143e-06 -7.6909e-07 3.7575e-06)
(1.9354e-06 -2.5762e-11 3.7879e-06)
(7.2095e-13 -1.3003e-12 -1.4789e-17)
(2.2203e-09 2.9792e-09 3.6857e-09)
(1.0487e-12 6.1763e-14 -1.1192e-14)
(2.5178e-09 -1.5596e-09 -4.6257e-09)
(2.2386e-13 -2.4663e-12 2.4662e-12)
(2.5169e-09 4.6234e-09 1.5592e-09)
(1.0488e-12 1.1199e-14 -6.1771e-14)
(2.2217e-09 -3.6859e-09 -2.9772e-09)
(7.2102e-13 -1.6075e-17 1.3004e-12)
(9.0853e-06 6.7728e-07 4.3067e-06)
(1.5311e-08 -3.0567e-08 3.7813e-08)
(8.9512e-06 1.5429e-06 3.7246e-06)
(4.4907e-12 1.2986e-12 3.4559e-12)
(9.0859e-06 2.566e-06 3.5236e-06)
(1.5325e-08 4.8369e-08 5.0615e-09)
(9.2224e-06 3.3231e-06 3.3237e-06)
(2.4493e-12 -5.1305e-13 -5.1299e-13)
(9.0859e-06 3.5229e-06 2.5664e-06)
(1.5324e-08 5.0624e-09 4.8366e-08)
(8.9512e-06 3.7237e-06 1.5433e-06)
(4.4907e-12 3.4557e-12 1.299e-12)
(9.0853e-06 4.3056e-06 6.7763e-07)
(1.5313e-08 3.7805e-08 -3.0568e-08)
(9.2214e-06 4.6998e-06 7.9702e-11)
(3.6825e-12 1.9293e-12 4.347e-17)
(1.5828e-05 7.7124e-07 5.2241e-06)
(1.5592e-05 1.8093e-06 4.3669e-06)
(1.583e-05 3.148e-06 4.238e-06)
(1.614e-05 4.2299e-06 4.2307e-06)
(1.583e-05 4.2367e-06 3.1485e-06)
(1.5592e-05 4.3652e-06 1.8097e-06)
(1.5828e-05 5.2221e-06 7.7176e-07)
(1.6137e-05 5.9829e-06 8.2258e-11)
(1.9323e-05 2.0518e-07 1.7584e-06)
(1.9199e-05 5.7758e-07 1.3936e-06)
(1.9327e-05 1.0959e-06 1.3848e-06)
(1.9461e-05 1.4237e-06 1.4247e-06)
(1.9327e-05 1.3831e-06 1.0964e-06)
(1.9199e-05 1.3914e-06 5.7797e-07)
(1.9323e-05 1.7558e-06 2.057e-07)
(1.9455e-05 2.0179e-06 2.4476e-11)
(2.1255e-05 -4.3287e-07 -2.1398e-06)
(2.1242e-05 -8.2824e-07 -1.9973e-06)
(2.1262e-05 -1.2159e-06 -1.8296e-06)
(2.1218e-05 -1.6925e-06 -1.6915e-06)
(2.1262e-05 -1.8314e-06 -1.2154e-06)
(2.1241e-05 -1.9998e-06 -8.2794e-07)
(2.1255e-05 -2.1427e-06 -4.324e-07)
(2.1208e-05 -2.3767e-06 -6.4025e-11)
(2.3789e-05 -5.3097e-07 -2.5092e-06)
(2.3769e-05 -1.0059e-06 -2.4181e-06)
(2.3797e-05 -1.4201e-06 -2.1746e-06)
(2.3813e-05 -1.8297e-06 -1.8286e-06)
(2.3797e-05 -2.1765e-06 -1.4195e-06)
(2.3769e-05 -2.4206e-06 -1.0055e-06)
(2.3789e-05 -2.5121e-06 -5.3048e-07)
(2.3801e-05 -2.5431e-06 -1.5559e-10)
(2.7158e-05 -1.6701e-07 -3.8105e-07)
(2.7089e-05 -2.4194e-07 -5.7993e-07)
(2.7165e-05 -1.8522e-07 -4.3287e-07)
(2.7256e-05 -1.4377e-07 -1.4264e-07)
(2.7165e-05 -4.3466e-07 -1.846e-07)
(2.7088e-05 -5.8235e-07 -2.4153e-07)
(2.7157e-05 -3.8386e-07 -1.6648e-07)
(2.7245e-05 -1.2438e-07 -2.2781e-10)
(3.0721e-05 2.2887e-07 1.4945e-06)
(3.0679e-05 5.2134e-07 1.2467e-06)
(3.0724e-05 8.5684e-07 1.1549e-06)
(3.077e-05 1.0992e-06 1.1002e-06)
(3.0723e-05 1.1533e-06 8.5745e-07)
(3.0678e-05 1.2446e-06 5.2177e-07)
(3.0721e-05 1.4919e-06 2.294e-07)
(3.0765e-05 1.6612e-06 -2.7545e-10)
(3.4315e-05 4.1745e-07 2.1421e-06)
(3.4307e-05 8.3165e-07 1.9816e-06)
(3.4307e-05 1.187e-06 1.7451e-06)
(3.4306e-05 1.4677e-06 1.4687e-06)
(3.4307e-05 1.7437e-06 1.1875e-06)
(3.4307e-05 1.9798e-06 8.3209e-07)
(3.4314e-05 2.14e-06 4.1796e-07)
(3.4316e-05 2.1839e-06 -2.9761e-10)
(3.8062e-05 3.0741e-07 1.5613e-06)
(3.8056e-05 6.0577e-07 1.4568e-06)
(3.8038e-05 8.6838e-07 1.2929e-06)
(3.8029e-05 1.0911e-06 1.0912e-06)
(3.8038e-05 1.2918e-06 8.6896e-07)
(3.8056e-05 1.4554e-06 6.0625e-07)
(3.8061e-05 1.5598e-06 3.0794e-07)
(3.8062e-05 1.5929e-06 2.1596e-10)
(4.1946e-05 -8.5518e-08 -3.8445e-07)
(4.1919e-05 -1.6324e-07 -3.7112e-07)
(4.1911e-05 -2.069e-07 -2.9718e-07)
(4.1897e-05 -2.3156e-07 -2.3085e-07)
(4.1911e-05 -2.9799e-07 -2.0628e-07)
(4.1918e-05 -3.7199e-07 -1.6268e-07)
(4.1946e-05 -3.8535e-07 -8.4948e-08)
(4.1952e-05 -3.6792e-07 -2.5137e-10)
(4.583e-05 -7.5794e-07 -3.7316e-06)
(4.5794e-05 -1.4596e-06 -3.4728e-06)
(4.5785e-05 -2.0652e-06 -3.0723e-06)
(4.5792e-05 -2.5895e-06 -2.5891e-06)
(4.5785e-05 -3.0728e-06 -2.0646e-06)
(4.5794e-05 -3.4732e-06 -1.459e-06)
(4.583e-05 -3.7319e-06 -7.5734e-07)
(4.5856e-05 -3.8147e-06 -7.6371e-11)
(4.957e-05 -1.6015e-06 -8.0408e-06)
(4.9527e-05 -3.1096e-06 -7.461e-06)
(4.9523e-05 -4.4586e-06 -6.6425e-06)
(4.9539e-05 -5.6302e-06 -5.6298e-06)
(4.9523e-05 -6.6427e-06 -4.4579e-06)
(4.9527e-05 -7.461e-06 -3.1089e-06)
(4.957e-05 -8.0405e-06 -1.6009e-06)
(4.9606e-05 -8.2496e-06 -9.2036e-11)
(5.3003e-05 -2.457e-06 -1.2495e-05)
(5.2963e-05 -4.7961e-06 -1.1592e-05)
(5.2956e-05 -6.9219e-06 -1.0329e-05)
(5.2967e-05 -8.7765e-06 -8.7759e-06)
(5.2956e-05 -1.0329e-05 -6.9212e-06)
(5.2963e-05 -1.1592e-05 -4.7953e-06)
(5.3003e-05 -1.2494e-05 -2.4563e-06)
(5.3035e-05 -1.2841e-05 -9.3031e-11)
(5.6142e-05 -3.1611e-06 -1.6048e-05)
(5.6111e-05 -6.1579e-06 -1.4898e-05)
(5.6102e-05 -8.8747e-06 -1.3267e-05)
(5.6101e-05 -1.1267e-05 -1.1267e-05)
(5.6102e-05 -1.3266e-05 -8.8739e-06)
(5.6111e-05 -1.4897e-05 -6.1571e-06)
(5.6142e-05 -1.6047e-05 -3.1604e-06)
(5.616e-05 -1.6501e-05 1.1734e-10)
(5.9055e-05 -3.5385e-06 -1.7716e-05)
(5.9042e-05 -6.846e-06 -1.6491e-05)
(5.9035e-05 -9.7785e-06 -1.4641e-05)
(5.9035e-05 -1.2365e-05 -1.2365e-05)
(5.9035e-05 -1.464e-05 -9.7777e-06)
(5.9042e-05 -1.649e-05 -6.8451e-06)
(5.9055e-05 -1.7714e-05 -3.5377e-06)
(5.9064e-05 -1.8149e-05 3.5742e-10)
(6.1817e-05 -3.4729e-06 -1.7169e-05)
(6.1826e-05 -6.6857e-06 -1.6025e-05)
(6.1823e-05 -9.4519e-06 -1.417e-05)
(6.1821e-05 -1.1903e-05 -1.1903e-05)
(6.1823e-05 -1.4169e-05 -9.451e-06)
(6.1826e-05 -1.6024e-05 -6.6847e-06)
(6.1817e-05 -1.7168e-05 -3.4722e-06)
(6.1812e-05 -1.7543e-05 3.4877e-10)
(6.4443e-05 -2.8913e-06 -1.4375e-05)
(6.4459e-05 -5.5638e-06 -1.3379e-05)
(6.4471e-05 -7.8893e-06 -1.1827e-05)
(6.4478e-05 -9.9524e-06 -9.9508e-06)
(6.4471e-05 -1.1827e-05 -7.8885e-06)
(6.4459e-05 -1.3378e-05 -5.5629e-06)
(6.4443e-05 -1.4374e-05 -2.8905e-06)
(6.4439e-05 -1.4717e-05 1.342e-09)
(6.6902e-05 -1.9011e-06 -9.5189e-06)
(6.6922e-05 -3.6462e-06 -8.8167e-06)
(6.6943e-05 -5.1694e-06 -7.7608e-06)
(6.6947e-05 -6.5351e-06 -6.5347e-06)
(6.6943e-05 -7.7607e-06 -5.1686e-06)
(6.6922e-05 -8.8161e-06 -3.6453e-06)
(6.6903e-05 -9.5179e-06 -1.9003e-06)
(6.6891e-05 -9.7832e-06 5.8427e-10)
(6.9088e-05 -5.9472e-07 -2.8953e-06)
(6.9121e-05 -1.0901e-06 -2.6279e-06)
(6.9124e-05 -1.4619e-06 -2.2239e-06)
(6.9121e-05 -1.8111e-06 -1.8101e-06)
(6.9125e-05 -2.2241e-06 -1.4609e-06)
(6.9121e-05 -2.6277e-06 -1.0891e-06)
(6.9088e-05 -2.8949e-06 -5.9389e-07)
(6.9069e-05 -2.9824e-06 4.0124e-10)
(7.086e-05 9.4088e-07 4.9535e-06)
(7.0908e-05 1.9268e-06 4.6982e-06)
(7.0894e-05 2.9404e-06 4.3552e-06)
(7.0872e-05 3.8065e-06 3.8073e-06)
(7.0894e-05 4.3547e-06 2.9415e-06)
(7.0909e-05 4.6979e-06 1.9278e-06)
(7.0861e-05 4.9532e-06 9.4177e-07)
(7.0826e-05 5.0741e-06 7.7857e-10)
(7.2054e-05 2.6828e-06 1.3618e-05)
(7.2087e-05 5.3108e-06 1.2853e-05)
(7.2093e-05 7.7961e-06 1.1648e-05)
(7.2093e-05 9.9574e-06 9.9586e-06)
(7.2094e-05 1.1647e-05 7.7972e-06)
(7.2087e-05 1.2853e-05 5.3119e-06)
(7.2055e-05 1.3617e-05 2.6838e-06)
(7.2038e-05 1.3885e-05 9.2936e-10)
(7.2585e-05 4.5622e-06 2.2993e-05)
(7.2608e-05 8.9836e-06 2.1671e-05)
(7.2631e-05 1.307e-05 1.954e-05)
(7.264e-05 1.664e-05 1.6642e-05)
(7.2631e-05 1.9539e-05 1.3072e-05)
(7.2608e-05 2.167e-05 8.9846e-06)
(7.2586e-05 2.2992e-05 4.5632e-06)
(7.2574e-05 2.3439e-05 9.9625e-10)
(7.2411e-05 6.5755e-06 3.3136e-05)
(7.2452e-05 1.292e-05 3.1168e-05)
(7.2454e-05 1.8785e-05 2.8065e-05)
(7.2447e-05 2.3903e-05 2.3904e-05)
(7.2454e-05 2.8063e-05 1.8786e-05)
(7.2453e-05 3.1166e-05 1.2921e-05)
(7.2411e-05 3.3134e-05 6.5765e-06)
(7.2386e-05 3.3819e-05 1.3272e-09)
(7.1595e-05 8.6953e-06 4.3872e-05)
(7.1659e-05 1.7077e-05 4.1209e-05)
(7.1636e-05 2.4826e-05 3.7087e-05)
(7.1603e-05 3.1588e-05 3.1589e-05)
(7.1637e-05 3.7086e-05 2.4827e-05)
(7.1659e-05 4.1207e-05 1.7078e-05)
(7.1595e-05 4.387e-05 8.6962e-06)
(7.1545e-05 4.481e-05 1.0391e-09)
(7.0209e-05 1.0857e-05 5.479e-05)
(7.0255e-05 2.1308e-05 5.1454e-05)
(7.0258e-05 3.0952e-05 4.6267e-05)
(7.0249e-05 3.938e-05 3.9382e-05)
(7.0258e-05 4.6265e-05 3.0953e-05)
(7.0255e-05 5.1452e-05 2.1309e-05)
(7.0209e-05 5.4788e-05 1.0858e-05)
(7.018e-05 5.5963e-05 8.1381e-10)
(6.8338e-05 1.2916e-05 6.5148e-05)
(6.8368e-05 2.5329e-05 6.1165e-05)
(6.8393e-05 3.6767e-05 5.4968e-05)
(6.8397e-05 4.6774e-05 4.6775e-05)
(6.8393e-05 5.4966e-05 3.6768e-05)
(6.8367e-05 6.1163e-05 2.533e-05)
(6.8338e-05 6.5146e-05 1.2917e-05)
(6.832e-05 6.6557e-05 9.0558e-10)
(6.603e-05 1.4744e-05 7.4225e-05)
(6.6064e-05 2.8889e-05 6.9698e-05)
(6.6072e-05 4.1868e-05 6.2593e-05)
(6.6073e-05 5.3223e-05 5.3225e-05)
(6.6072e-05 6.2592e-05 4.1869e-05)
(6.6063e-05 6.9697e-05 2.8889e-05)
(6.603e-05 7.4223e-05 1.4744e-05)
(6.6012e-05 7.5803e-05 6.3755e-10)
(6.3342e-05 1.622e-05 8.1586e-05)
(6.3377e-05 3.1771e-05 7.6608e-05)
(6.3364e-05 4.6008e-05 6.878e-05)
(6.3347e-05 5.8463e-05 5.8464e-05)
(6.3364e-05 6.8779e-05 4.6009e-05)
(6.3377e-05 7.6607e-05 3.1772e-05)
(6.3341e-05 8.1584e-05 1.6221e-05)
(6.3314e-05 8.3314e-05 7.7631e-10)
(6.0285e-05 1.7247e-05 8.6899e-05)
(6.0293e-05 3.3798e-05 8.1577e-05)
(6.0289e-05 4.9002e-05 7.3263e-05)
(6.0286e-05 6.2303e-05 6.2304e-05)
(6.0288e-05 7.3262e-05 4.9002e-05)
(6.0293e-05 8.1576e-05 3.3799e-05)
(6.0285e-05 8.6898e-05 1.7248e-05)
(6.028e-05 8.8763e-05 2.8506e-10)
(5.6861e-05 1.7804e-05 8.9849e-05)
(5.6845e-05 3.4919e-05 8.4329e-05)
(5.6852e-05 5.0677e-05 7.5762e-05)
(5.6856e-05 6.4475e-05 6.4476e-05)
(5.6851e-05 7.5762e-05 5.0678e-05)
(5.6844e-05 8.4328e-05 3.492e-05)
(5.6861e-05 8.9848e-05 1.7805e-05)
(5.6872e-05 9.1822e-05 4.9271e-10)
(5.3051e-05 1.7932e-05 9.0402e-05)
(5.3027e-05 3.5163e-05 8.4881e-05)
(5.3029e-05 5.1014e-05 7.6262e-05)
(5.3041e-05 6.4875e-05 6.4875e-05)
(5.3028e-05 7.6261e-05 5.1014e-05)
(5.3026e-05 8.488e-05 3.5163e-05)
(5.305e-05 9.0402e-05 1.7932e-05)
(5.3072e-05 9.2339e-05 2.8841e-10)
(4.8911e-05 1.7715e-05 8.9172e-05)
(4.8883e-05 3.4725e-05 8.3757e-05)
(4.8881e-05 5.0348e-05 7.5261e-05)
(4.8892e-05 6.4003e-05 6.4003e-05)
(4.888e-05 7.526e-05 5.0348e-05)
(4.8882e-05 8.3757e-05 3.4725e-05)
(4.891e-05 8.9172e-05 1.7715e-05)
(4.8934e-05 9.1047e-05 4.3753e-10)
(4.4545e-05 1.723e-05 8.6769e-05)
(4.4515e-05 3.3787e-05 8.1526e-05)
(4.4508e-05 4.9017e-05 7.3275e-05)
(4.4514e-05 6.2334e-05 6.2334e-05)
(4.4508e-05 7.3275e-05 4.9017e-05)
(4.4514e-05 8.1526e-05 3.3787e-05)
(4.4544e-05 8.677e-05 1.723e-05)
(4.4565e-05 8.8593e-05 3.0429e-10)
(4.0145e-05 1.6521e-05 8.33e-05)
(4.0116e-05 3.2421e-05 7.8272e-05)
(4.0107e-05 4.7082e-05 7.0382e-05)
(4.0105e-05 5.9905e-05 5.9904e-05)
(4.0107e-05 7.0382e-05 4.7082e-05)
(4.0116e-05 7.8272e-05 3.2421e-05)
(4.0144e-05 8.33e-05 1.6521e-05)
(4.0159e-05 8.5068e-05 3.4202e-10)
(3.5865e-05 1.5597e-05 7.8664e-05)
(3.583e-05 3.0622e-05 7.3934e-05)
(3.5833e-05 4.449e-05 6.6504e-05)
(3.5849e-05 5.6609e-05 5.6608e-05)
(3.5833e-05 6.6504e-05 4.449e-05)
(3.5829e-05 7.3934e-05 3.0622e-05)
(3.5864e-05 7.8665e-05 1.5597e-05)
(3.5894e-05 8.0318e-05 3.0587e-10)
(3.176e-05 1.4478e-05 7.3017e-05)
(3.1714e-05 2.8434e-05 6.8631e-05)
(3.1732e-05 4.1329e-05 6.1762e-05)
(3.1761e-05 5.2592e-05 5.2592e-05)
(3.1732e-05 6.1762e-05 4.1329e-05)
(3.1714e-05 6.8632e-05 2.8434e-05)
(3.1759e-05 7.3017e-05 1.4477e-05)
(3.1799e-05 7.4556e-05 1.7157e-10)
(2.7811e-05 1.3209e-05 6.6609e-05)
(2.7767e-05 2.5952e-05 6.264e-05)
(2.7781e-05 3.7727e-05 5.638e-05)
(2.7807e-05 4.801e-05 4.8009e-05)
(2.7781e-05 5.638e-05 3.7726e-05)
(2.7766e-05 6.264e-05 2.5951e-05)
(2.7811e-05 6.6609e-05 1.3209e-05)
(2.7849e-05 6.7993e-05 3.8539e-10)
(2.4013e-05 1.1835e-05 5.9693e-05)
(2.3967e-05 2.3267e-05 5.6159e-05)
(2.3985e-05 3.3832e-05 5.0565e-05)
(2.3998e-05 4.3066e-05 4.3066e-05)
(2.3985e-05 5.0565e-05 3.3832e-05)
(2.3967e-05 5.6159e-05 2.3267e-05)
(2.4013e-05 5.9692e-05 1.1834e-05)
(2.4044e-05 6.0926e-05 6.1407e-13)
(2.0367e-05 1.0417e-05 5.2549e-05)
(2.0328e-05 2.0478e-05 4.9452e-05)
(2.0343e-05 2.9805e-05 4.4553e-05)
(2.0369e-05 3.7952e-05 3.7952e-05)
(2.0343e-05 4.4553e-05 2.9805e-05)
(2.0328e-05 4.9451e-05 2.0478e-05)
(2.0366e-05 5.2549e-05 1.0416e-05)
(2.0402e-05 5.3624e-05 -1.9274e-10)
(1.6944e-05 9.0223e-06 4.5547e-05)
(1.6904e-05 1.7748e-05 4.2866e-05)
(1.6932e-05 2.586e-05 3.8646e-05)
(1.6966e-05 3.294e-05 3.294e-05)
(1.6932e-05 3.8646e-05 2.5859e-05)
(1.6903e-05 4.2865e-05 1.7748e-05)
(1.6944e-05 4.5546e-05 9.0217e-06)
(1.6982e-05 4.6482e-05 -8.4819e-11)
(1.3819e-05 7.7427e-06 3.901e-05)
(1.3785e-05 1.5224e-05 3.6755e-05)
(1.3813e-05 2.2157e-05 3.3128e-05)
(1.3845e-05 2.8215e-05 2.8215e-05)
(1.3813e-05 3.3128e-05 2.2156e-05)
(1.3785e-05 3.6755e-05 1.5223e-05)
(1.3818e-05 3.9009e-05 7.7421e-06)
(1.3851e-05 3.9779e-05 -1.1238e-10)
(1.1042e-05 6.5554e-06 3.2986e-05)
(1.1015e-05 1.2885e-05 3.1101e-05)
(1.104e-05 1.8743e-05 2.8032e-05)
(1.1065e-05 2.3851e-05 2.3851e-05)
(1.104e-05 2.8031e-05 1.8742e-05)
(1.1015e-05 3.11e-05 1.2885e-05)
(1.1041e-05 3.2985e-05 6.5548e-06)
(1.1067e-05 3.3602e-05 -1.2048e-10)
(8.6611e-06 5.3961e-06 2.7238e-05)
(8.6365e-06 1.063e-05 2.5661e-05)
(8.6618e-06 1.5492e-05 2.3149e-05)
(8.6844e-06 1.9739e-05 1.9739e-05)
(8.6618e-06 2.3149e-05 1.5491e-05)
(8.6364e-06 2.566e-05 1.063e-05)
(8.661e-06 2.7237e-05 5.3957e-06)
(8.6832e-06 2.7788e-05 -1.0386e-10)
(6.7432e-06 4.196e-06 2.1258e-05)
(6.7127e-06 8.2773e-06 2.0003e-05)
(6.7479e-06 1.2103e-05 1.807e-05)
(6.7729e-06 1.5455e-05 1.5455e-05)
(6.7478e-06 1.807e-05 1.2103e-05)
(6.7127e-06 2.0003e-05 8.2768e-06)
(6.7432e-06 2.1257e-05 4.1957e-06)
(6.7664e-06 2.1737e-05 -9.2325e-11)
(5.2067e-06 2.9498e-06 1.4861e-05)
(5.1734e-06 5.8037e-06 1.4022e-05)
(5.2159e-06 8.4551e-06 1.2651e-05)
(5.2576e-06 1.0776e-05 1.0776e-05)
(5.2159e-06 1.2651e-05 8.4548e-06)
(5.1734e-06 1.4022e-05 5.8034e-06)
(5.2067e-06 1.486e-05 2.9495e-06)
(5.2443e-06 1.5144e-05 -8.2942e-11)
(3.6887e-06 1.7656e-06 8.7527e-06)