/*--------------------------------*- C++ -*----------------------------------*\
| =========                 |                                                 |
| \\      /  F ield         | OpenFOAM: The Open Source CFD Toolbox           |
|  \\    /   O peration     | Version:  4.1                                   |
|   \\  /    A nd           | Web:      www.OpenFOAM.org                      |
|    \\/     M anipulation  |                                                 |
\*---------------------------------------------------------------------------*/
FoamFile
{
    version     2.0;
    format      ascii;
    class       volVectorField;
    location    "0.0079";
    object      U;
}
// * * * * * * * * * * * * * * * * * * * * * * * * * * * * * * * * * * * * * //

dimensions      [0 1 -1 0 0 0 0];

internalField   nonuniform List<vector> 
6144
(
(0.084077 -0.00095238 -6.0186e-08)
(0.085331 -0.0030297 -2.3829e-07)
(0.088291 -0.0055321 -4.0305e-07)
(0.093466 -0.0082862 -4.8671e-07)
(0.1009 -0.010829 -4.7858e-07)
(0.11019 -0.012821 -2.111e-07)
(0.12077 -0.014185 -1.1405e-07)
(0.13218 -0.014982 -1.9193e-08)
(0.14407 -0.015286 -2.4065e-08)
(0.15613 -0.015087 1.227e-07)
(0.168 -0.014301 3.1185e-07)
(0.17924 -0.012836 7.4243e-07)
(0.1893 -0.010641 1.0276e-06)
(0.19762 -0.0076971 1.1577e-06)
(0.20367 -0.0040899 1.045e-06)
(0.20733 -0.0002452 8.9773e-07)
(0.20868 0.003334 6.3995e-07)
(0.20707 0.0072925 1.0996e-07)
(0.20185 0.012201 1.9389e-07)
(0.19289 0.017118 -1.0002e-07)
(0.18023 0.021615 -1.4259e-07)
(0.16422 0.025307 -4.0762e-07)
(0.1455 0.027901 1.3316e-07)
(0.12489 0.029237 2.1421e-07)
(0.10329 0.029339 2.6739e-07)
(0.081554 0.02837 9.4088e-07)
(0.060417 0.026504 4.8233e-07)
(0.040517 0.023873 4.717e-07)
(0.022431 0.020519 3.173e-07)
(0.0066801 0.016409 3.9738e-08)
(-0.0061744 0.011361 3.8309e-07)
(-0.015342 0.0062003 -5.6981e-08)
(-0.021102 0.0014746 -5.8426e-07)
(-0.024265 -0.0020581 -1.7564e-06)
(-0.024138 -0.0042161 5.6643e-07)
(-0.021002 -0.0062367 -4.1551e-07)
(-0.016443 -0.006977 1.2271e-07)
(-0.011545 -0.0065031 4.6181e-08)
(-0.0071803 -0.0050506 6.7507e-08)
(-0.00397 -0.0030599 -2.0572e-08)
(-0.0023484 -0.00089538 -1.5658e-07)
(-0.0021679 0.00074412 -5.8322e-07)
(-0.0031311 0.0020628 -9.4978e-07)
(-0.0049481 0.0027721 -7.9244e-07)
(-0.0069347 0.0025037 -7.7836e-07)
(-0.0081434 0.0013619 -4.1925e-07)
(-0.0087829 -0.0012509 -5.1901e-08)
(-0.0056673 -0.0023455 3.1962e-08)
(0.084457 -0.00068212 0.00014169)
(0.085818 -0.0021785 0.00038851)
(0.088878 -0.00399 0.00058738)
(0.094054 -0.0059604 0.00076295)
(0.10138 -0.0077801 0.00092627)
(0.11052 -0.0092232 0.0010671)
(0.12095 -0.010248 0.0011523)
(0.13223 -0.010891 0.0011564)
(0.14399 -0.01119 0.0010736)
(0.15592 -0.011134 0.0009123)
(0.16763 -0.010666 0.00066966)
(0.1787 -0.0097223 0.00034233)
(0.18859 -0.0082758 -7.1448e-05)
(0.19678 -0.0063513 -0.0005705)
(0.20277 -0.0040816 -0.0011197)
(0.20637 -0.0017843 -0.0015836)
(0.20758 0.00052927 -0.0016591)
(0.20579 0.0034583 -0.0017608)
(0.20046 0.0068601 -0.0021693)
(0.19153 0.010343 -0.0025847)
(0.17899 0.013593 -0.0028736)
(0.16318 0.016323 -0.0029997)
(0.14472 0.018317 -0.0029419)
(0.1244 0.019468 -0.002711)
(0.1031 0.019781 -0.0023499)
(0.081622 0.01935 -0.0018906)
(0.060701 0.018284 -0.0013613)
(0.040984 0.016665 -0.00076974)
(0.023049 0.014538 -0.00010604)
(0.0074381 0.011919 0.00063295)
(-0.0053768 0.0087456 0.0014356)
(-0.014627 0.0058392 0.0020964)
(-0.020391 0.0032749 0.0025359)
(-0.023467 0.00097023 0.0023316)
(-0.023374 -0.0012895 0.0014995)
(-0.020487 -0.0028952 0.0012776)
(-0.016235 -0.0036151 0.0010945)
(-0.011553 -0.0034222 0.0008327)
(-0.0073247 -0.0026371 0.00049128)
(-0.0041635 -0.0014845 0.00010796)
(-0.0024818 -0.00025249 -0.00021108)
(-0.0022725 0.00062163 -0.00032386)
(-0.0032819 0.0014302 -0.00048063)
(-0.0050787 0.0018472 -0.00050139)
(-0.0070836 0.0016549 -0.00045893)
(-0.0083743 0.00089928 -0.00022611)
(-0.0091342 -0.00094996 -4.4749e-05)
(-0.005582 -0.0019031 0.00014173)
(0.084714 -0.00056318 0.00022662)
(0.08613 -0.0017798 0.00069364)
(0.089249 -0.0032231 0.0012062)
(0.094425 -0.0047918 0.0017365)
(0.10168 -0.0062473 0.0022262)
(0.11072 -0.0074069 0.0026237)
(0.12105 -0.0082309 0.0029033)
(0.13223 -0.0087464 0.0030557)
(0.14391 -0.0089824 0.0030844)
(0.15574 -0.0089318 0.0029918)
(0.16735 -0.0085493 0.0027639)
(0.17829 -0.0077863 0.0023863)
(0.18807 -0.0066193 0.0018538)
(0.19614 -0.0050614 0.001178)
(0.20203 -0.003213 0.00042881)
(0.20552 -0.0012838 -0.00025294)
(0.20657 0.00077779 -0.000762)
(0.20476 0.0033017 -0.0013821)
(0.1995 0.0060696 -0.0024038)
(0.1906 0.0088653 -0.0034197)
(0.17815 0.011463 -0.0043023)
(0.1625 0.013657 -0.0049803)
(0.14422 0.015261 -0.0054131)
(0.1241 0.016191 -0.0055666)
(0.10298 0.016466 -0.0054493)
(0.081664 0.016146 -0.0051074)
(0.060889 0.015309 -0.0045841)
(0.041299 0.014012 -0.0039045)
(0.023488 0.012285 -0.0030792)
(0.0080186 0.010128 -0.0021244)
(-0.0047238 0.0075098 -0.001071)
(-0.013965 0.0050704 -0.00017693)
(-0.019652 0.0027752 0.0005345)
(-0.022533 0.00060552 0.00087405)
(-0.022614 -0.00149 0.0007568)
(-0.020131 -0.0028855 0.0011138)
(-0.016093 -0.0035016 0.0011886)
(-0.011586 -0.0033894 0.0010251)
(-0.0074581 -0.002744 0.00071084)
(-0.0043743 -0.0017899 0.00025984)
(-0.0027503 -0.00073782 -0.00011684)
(-0.0025346 0.00018517 -0.00030286)
(-0.0034925 0.00093656 -0.0005516)
(-0.0052418 0.0013151 -0.00064148)
(-0.007215 0.0012176 -0.00056989)
(-0.0084725 0.00059997 -0.0002853)
(-0.0093283 -0.00094874 0.00021055)
(-0.0056844 -0.0016017 0.00053004)
(0.084849 -0.00044062 0.00032342)
(0.086289 -0.001379 0.0010037)
(0.089433 -0.0024656 0.0017797)
(0.09461 -0.0036361 0.0026044)
(0.10184 -0.0047225 0.0033693)
(0.11082 -0.0055951 0.003984)
(0.1211 -0.0062183 0.0044177)
(0.13224 -0.0066018 0.0046734)
(0.14387 -0.0067635 0.0047611)
(0.15566 -0.0067002 0.0046787)
(0.16721 -0.0063791 0.004404)
(0.1781 -0.0057645 0.0039126)
(0.18781 -0.0048383 0.0031911)
(0.19583 -0.0036113 0.0022487)
(0.20168 -0.0021717 0.001161)
(0.20513 -0.00070339 8.8814e-05)
(0.20614 0.00076294 -0.00091801)
(0.2043 0.0025247 -0.0021509)
(0.19904 0.0046014 -0.0036693)
(0.19015 0.0067008 -0.005188)
(0.17774 0.0086291 -0.0065658)
(0.16214 0.010237 -0.0076673)
(0.14396 0.011395 -0.0084157)
(0.12393 0.012031 -0.0087788)
(0.1029 0.012153 -0.0087624)
(0.081676 0.011819 -0.008411)
(0.060976 0.011087 -0.0077771)
(0.041455 0.010004 -0.0068962)
(0.023706 0.0085905 -0.0057848)
(0.0082978 0.0068564 -0.0044507)
(-0.0044149 0.0048079 -0.0029036)
(-0.013662 0.0029096 -0.0015038)
(-0.019343 0.0012365 -0.00031466)
(-0.022233 -0.00018969 0.00059489)
(-0.022377 -0.0012733 0.0012248)
(-0.019988 -0.0021981 0.0018448)
(-0.016028 -0.0025697 0.0020739)
(-0.011603 -0.0024162 0.0018815)
(-0.0075338 -0.0018617 0.0014629)
(-0.0044691 -0.0010559 0.00082253)
(-0.0028608 -0.00021917 0.00019287)
(-0.0026296 0.00042793 -0.00024009)
(-0.0035732 0.00095405 -0.00064927)
(-0.0053136 0.0011934 -0.00080671)
(-0.0072721 0.001095 -0.00074419)
(-0.0085165 0.00057588 -0.00035047)
(-0.0093826 -0.00058226 0.00043071)
(-0.0056923 -0.0012549 0.00082023)
(0.08485 -0.00032418 0.00043983)
(0.086289 -0.0010059 0.0013768)
(0.089434 -0.0017832 0.002462)
(0.09461 -0.0026088 0.0036317)
(0.10184 -0.003374 0.0047177)
(0.11082 -0.0039887 0.0055904)
(0.1211 -0.0044222 0.006214)
(0.13224 -0.0046773 0.0065982)
(0.14387 -0.0047645 0.0067605)
(0.15566 -0.0046816 0.0066977)
(0.16721 -0.0044064 0.006377)
(0.1781 -0.0039141 0.0057631)
(0.18781 -0.0031922 0.0048373)
(0.19583 -0.0022496 0.0036106)
(0.20168 -0.0011615 0.0021714)
(0.20513 -8.8726e-05 0.00070349)
(0.20614 0.0009186 -0.00076248)
(0.2043 0.0021514 -0.0025244)
(0.19904 0.0036703 -0.0046009)
(0.19015 0.0051896 -0.0066998)
(0.17774 0.006568 -0.0086277)
(0.16214 0.0076688 -0.010237)
(0.14396 0.0084169 -0.011394)
(0.12393 0.0087786 -0.012032)
(0.1029 0.0087621 -0.012154)
(0.081676 0.0084123 -0.011818)
(0.060976 0.0077787 -0.011086)
(0.041455 0.0068979 -0.010003)
(0.023707 0.0057853 -0.0085907)
(0.0082981 0.0044495 -0.0068586)
(-0.0044146 0.0029021 -0.0048103)
(-0.013662 0.0015012 -0.002913)
(-0.019343 0.00031178 -0.0012399)
(-0.022234 -0.00059646 0.00018689)
(-0.022378 -0.001224 0.0012739)
(-0.019988 -0.0018432 0.0021997)
(-0.016028 -0.0020694 0.0025737)
(-0.011603 -0.0018774 0.0024202)
(-0.0075342 -0.0014583 0.0018663)
(-0.0044693 -0.00081721 0.0010615)
(-0.002861 -0.00018662 0.00022583)
(-0.0026298 0.00024621 -0.00042009)
(-0.0035731 0.00065651 -0.00094635)
(-0.0053134 0.00081419 -0.0011855)
(-0.0072718 0.00075107 -0.0010878)
(-0.0085161 0.00035595 -0.00057005)
(-0.009382 -0.00042672 0.00058658)
(-0.0056916 -0.00081881 0.0012564)
(0.084715 -0.00022726 0.00056241)
(0.086131 -0.00069562 0.0017775)
(0.08925 -0.0012096 0.0032194)
(0.094425 -0.0017408 0.0047875)
(0.10168 -0.0022309 0.006243)
(0.11072 -0.0026281 0.007403)
(0.12105 -0.0029073 0.0082277)
(0.13223 -0.0030592 0.0087439)
(0.14391 -0.0030874 0.0089807)
(0.15574 -0.0029943 0.0089306)
(0.16735 -0.0027662 0.0085482)
(0.17829 -0.0023878 0.0077858)
(0.18807 -0.0018547 0.0066187)
(0.19614 -0.0011792 0.0050605)
(0.20203 -0.00042982 0.0032121)
(0.20552 0.00025229 0.0012829)
(0.20657 0.00076154 -0.00077895)
(0.20476 0.0013812 -0.0033032)
(0.1995 0.0024037 -0.0060716)
(0.1906 0.0034205 -0.0088672)
(0.17815 0.0043033 -0.011466)
(0.1625 0.0049825 -0.01366)
(0.14422 0.0054151 -0.015264)
(0.1241 0.0055674 -0.016195)
(0.10298 0.0054498 -0.016469)
(0.081663 0.0051103 -0.016147)
(0.060889 0.0045875 -0.015308)
(0.0413 0.003907 -0.014011)
(0.02349 0.0030811 -0.012285)
(0.0080194 0.0021261 -0.010127)
(-0.0047233 0.0010706 -0.0075107)
(-0.013965 0.00017625 -0.0050722)
(-0.019652 -0.00053559 -0.0027779)
(-0.022535 -0.00087364 -0.000607)
(-0.022615 -0.0007555 0.0014896)
(-0.020133 -0.0011107 0.0028871)
(-0.016094 -0.0011827 0.0035065)
(-0.011586 -0.0010204 0.0033938)
(-0.0074586 -0.00070541 0.002749)
(-0.0043752 -0.00025402 0.0017957)
(-0.002751 0.00012305 0.00074493)
(-0.0025351 0.00030973 -0.00017816)
(-0.003493 0.00055803 -0.00092886)
(-0.0052417 0.00064743 -0.0013073)
(-0.0072141 0.0005755 -0.0012108)
(-0.0084711 0.00028982 -0.00059457)
(-0.0093263 -0.00020744 0.00095266)
(-0.0056817 -0.00052916 0.001603)
(0.08446 -0.00014207 0.00068143)
(0.08582 -0.00038997 0.0021764)
(0.08888 -0.00059016 0.0039866)
(0.094054 -0.00076648 0.0059566)
(0.10138 -0.00093001 0.0077765)
(0.11052 -0.0010703 0.0092205)
(0.12095 -0.001155 0.010246)
(0.13223 -0.0011587 0.01089)
(0.14399 -0.0010751 0.01119)
(0.15592 -0.00091335 0.011135)
(0.16763 -0.00067091 0.010666)
(0.1787 -0.00034286 0.0097224)
(0.18859 7.1932e-05 0.0082767)
(0.19678 0.00056942 0.0063507)
(0.20277 0.0011185 0.0040807)
(0.20637 0.0015828 0.001783)
(0.20758 0.0016582 -0.00053169)
(0.20579 0.0017595 -0.0034622)
(0.20046 0.0021679 -0.0068641)
(0.19153 0.0025847 -0.010348)
(0.17899 0.0028738 -0.0136)
(0.16318 0.0030013 -0.016329)
(0.14472 0.0029444 -0.018323)
(0.12441 0.0027124 -0.019473)
(0.1031 0.0023488 -0.019786)
(0.08162 0.0018929 -0.019352)
(0.060701 0.0013638 -0.018286)
(0.040984 0.00077183 -0.016667)
(0.02305 0.00010656 -0.01454)
(0.0074396 -0.00063174 -0.011919)
(-0.0053752 -0.001435 -0.0087466)
(-0.014627 -0.002096 -0.0058404)
(-0.020392 -0.0025362 -0.0032763)
(-0.023469 -0.0023291 -0.00097159)
(-0.023376 -0.0014961 0.0012915)
(-0.02049 -0.0012756 0.0028955)
(-0.016237 -0.0010883 0.0036205)
(-0.011553 -0.00082793 0.0034267)
(-0.0073259 -0.00048583 0.0026428)
(-0.0041647 -0.000102 0.0014911)
(-0.0024828 0.00021702 0.00025997)
(-0.0022729 0.00032872 -0.00061446)
(-0.0032818 0.00048663 -0.001423)
(-0.005078 0.00050729 -0.0018404)
(-0.0070821 0.00046498 -0.001648)
(-0.0083723 0.00023069 -0.00089379)
(-0.0091312 4.8228e-05 0.00095429)
(-0.0055783 -0.00014096 0.0019042)
(0.08408 -5.5416e-07 0.00095113)
(0.085334 -1.5987e-06 0.0030265)
(0.088293 -2.4866e-06 0.0055277)
(0.093467 -2.9272e-06 0.0082817)
(0.1009 -3.0575e-06 0.010826)
(0.11019 -2.8203e-06 0.012818)
(0.12077 -2.3805e-06 0.014184)
(0.13218 -1.8234e-06 0.014982)
(0.14407 -1.5033e-06 0.015287)
(0.15613 -1.3034e-06 0.01509)
(0.168 -1.1799e-06 0.014305)
(0.17924 -1.223e-06 0.01284)
(0.1893 -1.4415e-06 0.010643)
(0.19762 -1.7116e-06 0.0076976)
(0.20367 -1.9027e-06 0.0040892)
(0.20733 -1.8269e-06 0.00024328)
(0.20868 -1.6139e-06 -0.0033373)
(0.20707 -1.266e-06 -0.0072961)
(0.20185 -6.539e-07 -0.012208)
(0.19289 -4.8151e-07 -0.017127)
(0.18023 1.8215e-07 -0.021627)
(0.16422 4.3258e-07 -0.025322)
(0.1455 3.5239e-07 -0.027916)
(0.12489 4.4467e-07 -0.02925)
(0.10329 -2.281e-07 -0.029349)
(0.081551 -8.0566e-08 -0.028379)
(0.060417 -1.4038e-07 -0.026511)
(0.040518 -1.7779e-07 -0.023877)
(0.022432 -1.3643e-07 -0.020521)
(0.0066806 -1.481e-07 -0.01641)
(-0.0061734 9.8449e-07 -0.011359)
(-0.015341 1.2786e-06 -0.006198)
(-0.021103 2.0491e-06 -0.001472)
(-0.024268 2.5035e-06 0.0020585)
(-0.02414 3.642e-06 0.0042189)
(-0.021006 4.2138e-06 0.0062404)
(-0.016447 4.5286e-06 0.0069825)
(-0.011545 5.4696e-06 0.0065116)
(-0.0071819 6.1243e-06 0.0050596)
(-0.0039716 6.4344e-06 0.0030691)
(-0.002349 6.8754e-06 0.00090356)
(-0.0021684 6.1297e-06 -0.00073601)
(-0.0031318 6.6378e-06 -0.0020551)
(-0.0049479 6.3673e-06 -0.0027652)
(-0.006933 5.8738e-06 -0.0024969)
(-0.0081404 4.5208e-06 -0.0013567)
(-0.0087782 2.8198e-06 0.0012544)
(-0.0056617 8.192e-07 0.0023463)
(0.084457 -0.00068212 -0.00014199)
(0.085818 -0.0021785 -0.00038941)
(0.088878 -0.0039899 -0.00058877)
(0.094053 -0.0059603 -0.00076449)
(0.10138 -0.0077798 -0.00092774)
(0.11052 -0.0092226 -0.0010682)
(0.12095 -0.010247 -0.0011528)
(0.13223 -0.01089 -0.0011567)
(0.14399 -0.011189 -0.0010735)
(0.15591 -0.011133 -0.00091192)
(0.16763 -0.010665 -0.00066897)
(0.17869 -0.0097213 -0.00034135)
(0.18859 -0.0082749 7.3455e-05)
(0.19678 -0.0063504 0.00057271)
(0.20276 -0.0040807 0.0011219)
(0.20637 -0.0017836 0.0015855)
(0.20757 0.00052996 0.0016602)
(0.20578 0.003459 0.0017608)
(0.20046 0.0068607 0.0021692)
(0.19152 0.010344 0.0025845)
(0.17898 0.013594 0.0028729)
(0.16317 0.016323 0.0029989)
(0.14471 0.018318 0.0029414)
(0.1244 0.019469 0.002711)
(0.1031 0.019782 0.0023499)
(0.081623 0.019351 0.0018921)
(0.060701 0.018286 0.0013626)
(0.040984 0.016668 0.00077131)
(0.023049 0.01454 0.00010768)
(0.0074388 0.01192 -0.00063114)
(-0.0053762 0.0087472 -0.0014342)
(-0.014627 0.0058412 -0.0020961)
(-0.020391 0.0032767 -0.0025377)
(-0.023466 0.00097232 -0.0023346)
(-0.023373 -0.0012864 -0.0015001)
(-0.020486 -0.0028924 -0.0012781)
(-0.016234 -0.0036131 -0.0010943)
(-0.011552 -0.0034198 -0.00083254)
(-0.0073236 -0.0026347 -0.00049077)
(-0.0041626 -0.0014822 -0.00010771)
(-0.0024812 -0.00025005 0.0002107)
(-0.002272 0.00062416 0.00032235)
(-0.0032811 0.001433 0.00047889)
(-0.0050783 0.00185 0.00049973)
(-0.0070837 0.0016571 0.00045755)
(-0.0083747 0.00090079 0.00022525)
(-0.0091346 -0.00094937 4.4397e-05)
(-0.0055819 -0.0019031 -0.00014173)
(0.08484 -0.00054855 -1.5747e-07)
(0.086286 -0.0017586 -4.9224e-07)
(0.089438 -0.0032299 -7.7463e-07)
(0.094639 -0.0048269 -8.8789e-07)
(0.10192 -0.0063053 -8.255e-07)
(0.11097 -0.0074824 -7.19e-07)
(0.12131 -0.0083346 -6.8287e-07)
(0.13251 -0.008896 -4.9982e-07)
(0.1442 -0.009191 -4.179e-07)
(0.15605 -0.009212 -2.7104e-07)
(0.16769 -0.0089153 -5.3907e-08)
(0.17865 -0.0082535 2.0359e-07)
(0.18846 -0.0072049 7.7749e-07)
(0.19657 -0.0057863 8.8968e-07)
(0.20254 -0.0040875 9.2639e-07)
(0.20616 -0.0022808 9.128e-07)
(0.20724 -0.00024336 8.0611e-07)
(0.20524 0.0023825 2.502e-07)
(0.19981 0.0051435 2.0466e-07)
(0.19084 0.0079645 7.6834e-08)
(0.17834 0.010639 -3.8006e-08)
(0.16263 0.012951 -1.5358e-07)
(0.14431 0.014713 -2.4467e-07)
(0.12415 0.01584 -3.406e-07)
(0.103 0.016336 -2.894e-07)
(0.081657 0.016251 1.403e-07)
(0.060864 0.015651 9.4926e-07)
(0.041267 0.014593 8.8393e-07)
(0.023452 0.013117 7.9406e-07)
(0.0079694 0.011229 6.2377e-07)
(-0.0048241 0.0088955 4.5928e-07)
(-0.014169 0.0066833 1.615e-07)
(-0.020019 0.0046207 -8.0005e-07)
(-0.023044 0.0024658 -1.2387e-06)
(-0.022943 -0.00015356 -1.9565e-07)
(-0.020252 -0.0017863 -4.9926e-07)
(-0.016283 -0.0025832 -7.2217e-08)
(-0.011832 -0.0026256 -2.4657e-08)
(-0.007725 -0.0021206 2.2557e-07)
(-0.00462 -0.0012936 1.5877e-07)
(-0.0028771 -0.00038874 2.0516e-08)
(-0.0026854 0.00039001 -6.4086e-07)
(-0.003745 0.0010698 -8.9287e-07)
(-0.0054595 0.0013613 -9.3075e-07)
(-0.007351 0.0012635 -7.6453e-07)
(-0.0085692 0.00068526 -3.0476e-07)
(-0.009427 -0.00092106 8.9523e-08)
(-0.0055513 -0.0016266 1.5073e-07)
(0.085102 -0.00044784 0.00010494)
(0.086595 -0.001419 0.0003342)
(0.089799 -0.0025714 0.0006035)
(0.095006 -0.0038204 0.00087823)
(0.10223 -0.0049832 0.0011295)
(0.11119 -0.0059143 0.0013353)
(0.12144 -0.0065878 0.0014924)
(0.13256 -0.0070265 0.0015971)
(0.14417 -0.0072513 0.0016458)
(0.15594 -0.0072556 0.0016406)
(0.16747 -0.0070053 0.0015755)
(0.17834 -0.0064629 0.0014453)
(0.18803 -0.0056085 0.0012511)
(0.19604 -0.0044526 0.0010036)
(0.20192 -0.0030655 0.00073766)
(0.20543 -0.001563 0.00051196)
(0.2064 0.00014836 0.00037488)
(0.20439 0.0022049 5.7035e-05)
(0.199 0.0043897 -0.00042983)
(0.19007 0.0066023 -0.00094114)
(0.17765 0.0086819 -0.0014054)
(0.16207 0.010475 -0.0017968)
(0.14391 0.011845 -0.0020895)
(0.12393 0.012717 -0.0022652)
(0.10294 0.01308 -0.0023246)
(0.081757 0.012973 -0.0022849)
(0.061102 0.012445 -0.0021631)
(0.041631 0.011539 -0.0019713)
(0.023934 0.010286 -0.0017189)
(0.0085739 0.0086992 -0.0014206)
(-0.0041467 0.0067912 -0.0011058)
(-0.013482 0.0048786 -0.0008464)
(-0.019267 0.0031573 -0.00073252)
(-0.022184 0.0013334 -0.00072926)
(-0.022259 -0.00058001 -0.00059629)
(-0.019932 -0.0018645 -0.00031185)
(-0.016167 -0.0024539 -0.00015387)
(-0.01188 -0.0024928 -0.00014616)
(-0.0079108 -0.0020331 -0.00020517)
(-0.0048714 -0.0013009 -0.00029154)
(-0.0032001 -0.00049924 -0.00034049)
(-0.0029869 0.00023844 -0.00024555)
(-0.0039497 0.00078773 -0.00030357)
(-0.0056106 0.0010301 -0.00031868)
(-0.0074542 0.00096654 -0.00025936)
(-0.0086078 0.00050242 -0.00015742)
(-0.0095606 -0.00074533 6.202e-05)
(-0.0056781 -0.0013245 0.0002875)
(0.085239 -0.00033613 0.00021681)
(0.086751 -0.0010581 0.00068473)
(0.089976 -0.0019017 0.0012359)
(0.095185 -0.002806 0.0018176)
(0.10239 -0.0036474 0.002357)
(0.1113 -0.0043257 0.0027916)
(0.12151 -0.0048197 0.0031094)
(0.13258 -0.0051405 0.0033155)
(0.14415 -0.0052989 0.0034134)
(0.15588 -0.0052922 0.0034013)
(0.16736 -0.0050968 0.003265)
(0.17817 -0.0046869 0.0029895)
(0.1878 -0.0040497 0.0025684)
(0.19576 -0.003197 0.0020126)
(0.20161 -0.0021887 0.00137)
(0.20509 -0.0011232 0.00071677)
(0.20603 1.346e-05 4.0764e-05)
(0.204 0.0014192 -0.00086386)
(0.19859 0.0030157 -0.0019127)
(0.18967 0.0046388 -0.0029721)
(0.17729 0.006157 -0.003955)
(0.16177 0.0074486 -0.0047821)
(0.14369 0.0084248 -0.005397)
(0.12379 0.0090387 -0.0057714)
(0.10289 0.0092786 -0.0059032)
(0.081784 0.0091751 -0.0058147)
(0.0612 0.0087667 -0.0055351)
(0.041792 0.0080871 -0.0050869)
(0.024154 0.0071582 -0.0044868)
(0.0088499 0.0059986 -0.0037483)
(-0.0038351 0.0046392 -0.0029018)
(-0.013178 0.003265 -0.0020668)
(-0.018978 0.0021299 -0.0014184)
(-0.021952 0.0010147 -0.00079182)
(-0.022095 -8.6124e-05 1.3952e-05)
(-0.019805 -0.00096697 0.0006349)
(-0.016123 -0.0014175 0.00091938)
(-0.011918 -0.0014269 0.0009477)
(-0.00801 -0.001108 0.00073997)
(-0.0050076 -0.00056806 0.00042988)
(-0.003328 -2.1072e-05 0.00012175)
(-0.0030876 0.00039645 -0.00010175)
(-0.0040267 0.00075313 -0.00034384)
(-0.0056736 0.00088306 -0.00043056)
(-0.0074936 0.00081367 -0.0003953)
(-0.0086253 0.00044542 -0.00018965)
(-0.0095817 -0.00044736 0.00034722)
(-0.0056829 -0.0009848 0.00058753)
(0.085239 -0.00021762 0.00033531)
(0.086751 -0.00068707 0.0010558)
(0.089977 -0.0012396 0.0018981)
(0.095186 -0.0018221 0.0028016)
(0.10239 -0.0023618 0.0036426)
(0.1113 -0.0027961 0.0043211)
(0.12151 -0.0031134 0.0048155)
(0.13258 -0.0033188 0.0051369)
(0.14415 -0.0034161 0.0052959)
(0.15588 -0.0034034 0.0052898)
(0.16736 -0.0032668 0.0050948)
(0.17817 -0.0029908 0.0046855)
(0.1878 -0.0025694 0.0040487)
(0.19576 -0.0020137 0.0031961)
(0.20161 -0.0013709 0.0021881)
(0.20509 -0.00071756 0.0011229)
(0.20603 -4.1502e-05 -1.3573e-05)
(0.204 0.00086278 -0.0014199)
(0.19859 0.001912 -0.0030159)
(0.18967 0.0029718 -0.0046386)
(0.17729 0.0039552 -0.0061563)
(0.16177 0.0047822 -0.007448)
(0.14369 0.0053973 -0.0084242)
(0.12379 0.0057715 -0.0090385)
(0.10289 0.0059034 -0.0092787)
(0.081784 0.0058162 -0.0091737)
(0.0612 0.0055368 -0.0087651)
(0.041792 0.0050888 -0.0080856)
(0.024154 0.0044882 -0.0071573)
(0.0088501 0.0037491 -0.0059988)
(-0.0038349 0.0029024 -0.00464)
(-0.013178 0.0020671 -0.0032664)
(-0.018978 0.0014186 -0.0021316)
(-0.021952 0.00079274 -0.0010156)
(-0.022095 -1.1762e-05 8.7828e-05)
(-0.019805 -0.00063145 0.00096963)
(-0.016123 -0.0009139 0.0014219)
(-0.011918 -0.00094218 0.0014313)
(-0.0080102 -0.0007338 0.0011134)
(-0.0050077 -0.00042321 0.00057413)
(-0.0033279 -0.00011464 2.7711e-05)
(-0.0030878 0.00010841 -0.00038904)
(-0.0040269 0.00035111 -0.00074611)
(-0.0056734 0.00043756 -0.00087611)
(-0.0074932 0.00040159 -0.00080726)
(-0.0086248 0.00019458 -0.00044034)
(-0.0095811 -0.00034402 0.00045087)
(-0.0056822 -0.00058654 0.00098595)
(0.085103 -0.0001058 0.00044709)
(0.086596 -0.00033662 0.0014168)
(0.0898 -0.0006073 0.0025678)
(0.095006 -0.00088273 0.0038159)
(0.10223 -0.0011342 0.0049785)
(0.11119 -0.0013396 0.0059098)
(0.12144 -0.001496 0.0065838)
(0.13256 -0.0016001 0.0070231)
(0.14417 -0.001648 0.0072486)
(0.15594 -0.0016422 0.0072534)
(0.16747 -0.001577 0.0070035)
(0.17834 -0.0014466 0.0064619)
(0.18803 -0.0012519 0.0056079)
(0.19603 -0.0010046 0.0044519)
(0.20192 -0.00073879 0.003065)
(0.20543 -0.00051313 0.0015627)
(0.2064 -0.00037589 -0.00014836)
(0.20439 -5.8073e-05 -0.002205)
(0.199 0.0004284 -0.0043903)
(0.19007 0.00094007 -0.0066022)
(0.17765 0.0014044 -0.0086814)
(0.16207 0.001797 -0.010475)
(0.14391 0.0020902 -0.011845)
(0.12393 0.0022659 -0.012718)
(0.10294 0.0023251 -0.013082)
(0.081756 0.0022865 -0.012972)
(0.061103 0.002165 -0.012443)
(0.041631 0.0019731 -0.011538)
(0.023935 0.0017211 -0.010285)
(0.0085744 0.0014236 -0.0087)
(-0.0041464 0.001108 -0.0067925)
(-0.013481 0.000849 -0.0048811)
(-0.019268 0.00073491 -0.00316)
(-0.022186 0.00073226 -0.0013349)
(-0.022261 0.00059977 0.0005797)
(-0.019933 0.00031693 0.0018663)
(-0.016168 0.00015996 0.0024585)
(-0.011881 0.00015294 0.002497)
(-0.0079114 0.00021291 0.0020379)
(-0.004872 0.0002996 0.0013063)
(-0.0032007 0.00034851 0.00050546)
(-0.0029869 0.0002541 -0.00023235)
(-0.0039494 0.00031077 -0.00078059)
(-0.0056103 0.00032514 -0.001023)
(-0.0074535 0.00026532 -0.00095996)
(-0.0086065 0.00016209 -0.0004971)
(-0.0095587 -5.9048e-05 0.00074904)
(-0.0056759 -0.0002868 0.0013257)
(0.084842 -7.2496e-07 0.00054794)
(0.086288 -2.0589e-06 0.0017566)
(0.089439 -3.1551e-06 0.0032266)
(0.09464 -3.7172e-06 0.0048228)
(0.10192 -3.8795e-06 0.006301)
(0.11097 -3.5898e-06 0.0074786)
(0.12131 -2.97e-06 0.0083315)
(0.13251 -2.2147e-06 0.0088936)
(0.1442 -1.5974e-06 0.0091894)
(0.15605 -1.1375e-06 0.0092109)
(0.16768 -8.918e-07 0.0089141)
(0.17865 -8.0919e-07 0.0082532)
(0.18846 -7.1288e-07 0.0072054)
(0.19657 -1.3161e-06 0.0057859)
(0.20254 -1.5653e-06 0.004087)
(0.20616 -1.7519e-06 0.0022802)
(0.20724 -1.7429e-06 0.00024217)
(0.20524 -1.4969e-06 -0.0023848)
(0.19981 -9.0162e-07 -0.0051454)
(0.19084 -5.6132e-07 -0.007966)
(0.17834 -2.5556e-08 -0.010641)
(0.16263 5.9606e-07 -0.012953)
(0.14431 3.9989e-07 -0.014715)
(0.12415 -1.6933e-07 -0.015843)
(0.103 -8.9972e-07 -0.016341)
(0.081655 -5.3889e-07 -0.016251)
(0.060863 -3.4061e-07 -0.01565)
(0.041267 1.4245e-07 -0.014593)
(0.023452 8.315e-07 -0.013117)
(0.0079702 1.1817e-06 -0.011229)
(-0.0048234 2.4936e-06 -0.0088977)
(-0.014169 2.3618e-06 -0.0066862)
(-0.020019 3.0593e-06 -0.0046252)
(-0.023045 3.6685e-06 -0.0024684)
(-0.022945 4.7367e-06 0.00015432)
(-0.020255 5.6842e-06 0.001788)
(-0.016284 6.5796e-06 0.0025874)
(-0.011832 7.4061e-06 0.0026288)
(-0.0077261 7.9359e-06 0.0021248)
(-0.0046207 8.4435e-06 0.0012985)
(-0.0028774 8.6619e-06 0.00039507)
(-0.0026855 7.7327e-06 -0.00038462)
(-0.0037449 8.824e-06 -0.0010631)
(-0.0054588 8.5307e-06 -0.0013546)
(-0.0073495 7.6219e-06 -0.0012573)
(-0.008567 5.6985e-06 -0.00068013)
(-0.0094239 3.4781e-06 0.000925)
(-0.005548 9.3464e-07 0.0016279)
(0.08446 0.00014066 0.00068147)
(0.085821 0.0003859 0.0021766)
(0.08888 0.00058391 0.003987)
(0.094054 0.00075906 0.005957)
(0.10138 0.00092218 0.0077769)
(0.11052 0.001063 0.0092208)
(0.12095 0.0011485 0.010246)
(0.13222 0.0011535 0.010889)
(0.14399 0.0010708 0.011189)
(0.15591 0.00091 0.011134)
(0.16763 0.00066827 0.010665)
(0.17869 0.00034033 0.0097218)
(0.18859 -7.4808e-05 0.0082761)
(0.19678 -0.00057296 0.0063502)
(0.20276 -0.0011224 0.0040801)
(0.20637 -0.0015865 0.0017823)
(0.20757 -0.0016612 -0.0005323)
(0.20578 -0.0017614 -0.0034626)
(0.20046 -0.0021689 -0.0068647)
(0.19152 -0.0025847 -0.010349)
(0.17898 -0.0028727 -0.0136)
(0.16317 -0.0029995 -0.01633)
(0.14471 -0.0029429 -0.018323)
(0.1244 -0.0027112 -0.019473)
(0.1031 -0.0023481 -0.019787)
(0.08162 -0.0018914 -0.019353)
(0.060701 -0.0013624 -0.018288)
(0.040984 -0.00077043 -0.016669)
(0.02305 -0.00010515 -0.014542)
(0.0074394 0.00063411 -0.011922)
(-0.0053753 0.001438 -0.0087485)
(-0.014626 0.0021005 -0.0058435)
(-0.020392 0.0025416 -0.0032794)
(-0.023469 0.0023357 -0.0009748)
(-0.023376 0.0015051 0.0012882)
(-0.020489 0.001286 0.0028918)
(-0.016236 0.0010999 0.0036164)
(-0.011553 0.00084119 0.0034229)
(-0.0073252 0.00049999 0.0026382)
(-0.004164 0.00011705 0.0014865)
(-0.0024815 -0.00020084 0.00025551)
(-0.0022719 -0.00031293 -0.00061901)
(-0.0032813 -0.00047073 -0.0014272)
(-0.0050775 -0.00049212 -0.0018442)
(-0.0070817 -0.00045105 -0.0016513)
(-0.0083716 -0.00022004 -0.0008961)
(-0.0091302 -4.1554e-05 0.00095323)
(-0.0055766 0.00014295 0.001904)
(0.084713 -0.00056312 -0.00022692)
(0.086129 -0.0017796 -0.00069445)
(0.089248 -0.0032229 -0.0012075)
(0.094424 -0.0047916 -0.001738)
(0.10168 -0.006247 -0.0022279)
(0.11072 -0.0074061 -0.0026251)
(0.12104 -0.0082299 -0.002904)
(0.13223 -0.0087451 -0.0030565)
(0.14391 -0.0089812 -0.0030847)
(0.15574 -0.0089306 -0.0029917)
(0.16735 -0.0085481 -0.0027635)
(0.17829 -0.0077851 -0.0023855)
(0.18806 -0.0066177 -0.0018522)
(0.19613 -0.0050601 -0.0011759)
(0.20203 -0.003212 -0.00042647)
(0.20552 -0.001283 0.00025479)
(0.20656 0.00077843 0.00076298)
(0.20475 0.0033017 0.0013825)
(0.1995 0.0060702 0.0024032)
(0.1906 0.008866 0.0034183)
(0.17814 0.011464 0.0043005)
(0.16249 0.013658 0.0049786)
(0.14422 0.015262 0.0054119)
(0.1241 0.016193 0.0055666)
(0.10298 0.016467 0.0054498)
(0.081664 0.016149 0.0051087)
(0.060888 0.01531 0.0045845)
(0.0413 0.014013 0.0039056)
(0.023489 0.012286 0.0030806)
(0.0080191 0.010129 0.0021262)
(-0.004724 0.0075116 0.0010723)
(-0.013966 0.0050721 0.00017711)
(-0.019652 0.0027768 -0.00053537)
(-0.022533 0.00060635 -0.0008773)
(-0.022613 -0.0014866 -0.00075831)
(-0.02013 -0.0028829 -0.0011141)
(-0.016092 -0.0034997 -0.001188)
(-0.011585 -0.0033874 -0.0010245)
(-0.0074571 -0.0027424 -0.00070994)
(-0.0043736 -0.0017881 -0.00025938)
(-0.0027499 -0.00073608 0.00011662)
(-0.0025342 0.00018713 0.00030187)
(-0.0034921 0.00093835 0.00055037)
(-0.0052417 0.0013167 0.00064008)
(-0.0072156 0.001219 0.00056868)
(-0.0084734 0.00060105 0.00028394)
(-0.0093288 -0.00094822 -0.00021153)
(-0.0056839 -0.0016017 -0.0005306)
(0.085101 -0.00044782 -0.00010526)
(0.086595 -0.001419 -0.00033516)
(0.089798 -0.0025713 -0.00060502)
(0.095005 -0.0038202 -0.00087994)
(0.10223 -0.004983 -0.0011313)
(0.11119 -0.005914 -0.001337)
(0.12144 -0.0065871 -0.0014938)
(0.13255 -0.0070261 -0.0015985)
(0.14417 -0.0072508 -0.0016469)
(0.15593 -0.007255 -0.0016414)
(0.16747 -0.0070047 -0.0015759)
(0.17833 -0.0064623 -0.0014453)
(0.18802 -0.0056076 -0.0012501)
(0.19603 -0.0044519 -0.0010021)
(0.20191 -0.0030649 -0.00073592)
(0.20543 -0.0015624 -0.0005103)
(0.2064 0.00014873 -0.00037365)
(0.20439 0.002205 -5.646e-05)
(0.199 0.0043903 0.00042987)
(0.19007 0.0066031 0.00094092)
(0.17765 0.0086827 0.0014047)
(0.16206 0.010476 0.0017962)
(0.14391 0.011846 0.0020888)
(0.12392 0.012718 0.0022647)
(0.10294 0.013082 0.0023244)
(0.081757 0.012975 0.0022859)
(0.061103 0.012446 0.0021644)
(0.041632 0.011541 0.0019726)
(0.023935 0.010287 0.0017207)
(0.0085746 0.0087015 0.001423)
(-0.0041461 0.0067935 0.0011074)
(-0.013481 0.0048806 0.00084698)
(-0.019267 0.0031589 0.00073162)
(-0.022184 0.0013349 0.00072719)
(-0.022258 -0.00057741 0.00059455)
(-0.01993 -0.0018626 0.00031133)
(-0.016166 -0.0024517 0.00015462)
(-0.011879 -0.0024909 0.00014682)
(-0.0079095 -0.0020312 0.00020628)
(-0.0048702 -0.0012988 0.0002925)
(-0.0031988 -0.00049741 0.00034106)
(-0.0029857 0.00023984 0.00024555)
(-0.0039489 0.00078953 0.00030276)
(-0.0056103 0.0010318 0.00031786)
(-0.0074546 0.00096817 0.00025871)
(-0.0086082 0.00050358 0.00015692)
(-0.0095605 -0.00074479 -6.2246e-05)
(-0.0056775 -0.0013243 -0.00028755)
(0.085361 -0.00034126 -1.6427e-07)
(0.086895 -0.0010715 -4.9473e-07)
(0.090141 -0.0019262 -8.0171e-07)
(0.095348 -0.0028534 -9.1983e-07)
(0.10252 -0.00372 -9.2606e-07)
(0.11139 -0.0044157 -1.0012e-06)
(0.12155 -0.0049174 -1.0576e-06)
(0.13259 -0.0052436 -9.3491e-07)
(0.14412 -0.0054097 -7.5459e-07)
(0.1558 -0.005409 -5.9214e-07)
(0.16724 -0.0052162 -4.0172e-07)
(0.17799 -0.0048035 -1.5394e-07)
(0.18758 -0.0041553 2.7046e-07)
(0.19549 -0.0032792 5.3413e-07)
(0.20131 -0.0022234 7.1522e-07)
(0.20476 -0.0010588 7.2789e-07)
(0.20562 0.00027508 6.6144e-07)
(0.20356 0.00187 3.2697e-07)
(0.19819 0.0035069 4.332e-09)
(0.1893 0.005154 -1.3932e-07)
(0.17697 0.0067013 -3.3879e-07)
(0.16153 0.0080257 -1.7562e-07)
(0.14353 0.009027 -4.7141e-07)
(0.12372 0.0096651 -4.1715e-07)
(0.1029 0.0099294 -1.6408e-07)
(0.081871 0.0098412 -3.6254e-07)
(0.06135 0.009435 5.3505e-07)
(0.041997 0.0087434 6.8316e-07)
(0.024408 0.0077846 9.4391e-07)
(0.0091463 0.0065686 1.1481e-06)
(-0.0035124 0.005128 7.4736e-07)
(-0.012872 0.0035831 3.4637e-07)
(-0.018666 0.0022761 -2.6505e-07)
(-0.021491 0.00085756 -5.7861e-07)
(-0.021661 -0.00064014 -7.9321e-07)
(-0.01958 -0.0015465 -1.0107e-08)
(-0.01601 -0.0020235 5.5735e-07)