/*--------------------------------*- C++ -*----------------------------------*\
| =========                 |                                                 |
| \\      /  F ield         | foam-extend: Open Source CFD                    |
|  \\    /   O peration     | Version:     4.1-20200408                       |
|   \\  /    A nd           | Web:         http://www.foam-extend.org         |
|    \\/     M anipulation  |                                                 |
\*---------------------------------------------------------------------------*/
FoamFile
{
    version     2.0;
    format      ascii;
    class       volScalarField;
    location    "0.0570000";
    object      sigmaHyd;
}
// * * * * * * * * * * * * * * * * * * * * * * * * * * * * * * * * * * * * * //

dimensions      [1 -1 -2 0 0 0 0];

internalField   nonuniform List<scalar> 
1952
(
-5.18687e+08
-4.99448e+08
-4.71922e+08
-4.39036e+08
-3.98997e+08
-3.54275e+08
-3.01732e+08
-2.39704e+08
-1.71782e+08
-8.74707e+07
8.07013e+06
1.44385e+08
2.91278e+08
4.54995e+08
5.61577e+08
-5.27649e+08
-5.13026e+08
-4.93714e+08
-4.66054e+08
-4.33161e+08
-3.92908e+08
-3.48177e+08
-2.95382e+08
-2.33338e+08
-1.65269e+08
-8.10439e+07
1.46408e+07
1.50809e+08
2.97677e+08
4.60714e+08
5.67051e+08
-5.21948e+08
-5.10202e+08
-4.90864e+08
-4.63167e+08
-4.30322e+08
-3.90037e+08
-3.4535e+08
-2.92533e+08
-2.3055e+08
-1.62529e+08
-7.84868e+07
1.70643e+07
1.52946e+08
2.99371e+08
4.61534e+08
5.66613e+08
-5.19108e+08
-5.07827e+08
-4.88482e+08
-4.60768e+08
-4.27952e+08
-3.87674e+08
-3.43045e+08
-2.90237e+08
-2.28333e+08
-1.60408e+08
-7.65547e+07
1.8857e+07
1.54497e+08
3.00637e+08
4.62322e+08
5.66898e+08
-5.16734e+08
-5.05697e+08
-4.86335e+08
-4.58603e+08
-4.25823e+08
-3.85561e+08
-3.40979e+08
-2.88207e+08
-2.26392e+08
-1.58595e+08
-7.49066e+07
2.03341e+07
1.55772e+08
3.01561e+08
4.62747e+08
5.66766e+08
-5.14608e+08
-5.03844e+08
-4.84484e+08
-4.56747e+08
-4.24018e+08
-3.8377e+08
-3.39246e+08
-2.86512e+08
-2.24766e+08
-1.57103e+08
-7.35967e+07
2.15095e+07
1.56778e+08
3.02322e+08
4.63131e+08
5.66781e+08
-5.12763e+08
-5.0224e+08
-4.82882e+08
-4.5513e+08
-4.22464e+08
-3.82242e+08
-3.37776e+08
-2.85074e+08
-2.23396e+08
-1.55833e+08
-7.24828e+07
2.25108e+07
1.57635e+08
3.02956e+08
4.63438e+08
5.66783e+08
-5.11167e+08
-5.00877e+08
-4.81515e+08
-4.53749e+08
-4.21117e+08
-3.80916e+08
-3.36497e+08
-2.83825e+08
-2.22212e+08
-1.54753e+08
-7.1539e+07
2.33791e+07
1.58381e+08
3.03539e+08
4.63744e+08
5.6686e+08
-5.09812e+08
-4.99685e+08
-4.80325e+08
-4.52545e+08
-4.19964e+08
-3.79776e+08
-3.35401e+08
-2.82748e+08
-2.21181e+08
-1.53797e+08
-7.07085e+07
2.41617e+07
1.59026e+08
3.04073e+08
4.64073e+08
5.66994e+08
-5.08628e+08
-4.98662e+08
-4.79299e+08
-4.51501e+08
-4.18955e+08
-3.78777e+08
-3.34438e+08
-2.81795e+08
-2.20271e+08
-1.52962e+08
-6.99698e+07
2.49082e+07
1.59658e+08
3.0457e+08
4.64444e+08
5.67206e+08
-5.07614e+08
-4.9777e+08
-4.78403e+08
-4.50589e+08
-4.18091e+08
-3.77917e+08
-3.33606e+08
-2.80968e+08
-2.19456e+08
-1.52198e+08
-6.92575e+07
2.56161e+07
1.60302e+08
3.05074e+08
4.64867e+08
5.67475e+08
-5.06729e+08
-4.97011e+08
-4.77643e+08
-4.49804e+08
-4.17339e+08
-3.77162e+08
-3.32877e+08
-2.80218e+08
-2.18714e+08
-1.51498e+08
-6.85922e+07
2.62774e+07
1.60928e+08
3.0564e+08
4.65327e+08
5.67813e+08
-5.0598e+08
-4.96357e+08
-4.76971e+08
-4.49104e+08
-4.16657e+08
-3.76475e+08
-3.32199e+08
-2.79519e+08
-2.18043e+08
-1.50843e+08
-6.79453e+07
2.69397e+07
1.61549e+08
3.06226e+08
4.65833e+08
5.68214e+08
-5.05333e+08
-4.95772e+08
-4.76371e+08
-4.48476e+08
-4.16045e+08
-3.75843e+08
-3.31574e+08
-2.78846e+08
-2.17403e+08
-1.50244e+08
-6.73243e+07
2.75928e+07
1.62181e+08
3.06849e+08
4.66383e+08
5.68685e+08
-5.04756e+08
-4.95248e+08
-4.75825e+08
-4.47898e+08
-4.15479e+08
-3.7526e+08
-3.30972e+08
-2.78199e+08
-2.1677e+08
-1.49675e+08
-6.66912e+07
2.82536e+07
1.62836e+08
3.075e+08
4.66981e+08
5.69216e+08
-5.0424e+08
-4.94789e+08
-4.75338e+08
-4.4738e+08
-4.14957e+08
-3.74723e+08
-3.30397e+08
-2.77595e+08
-2.16148e+08
-1.49094e+08
-6.60564e+07
2.89327e+07
1.63518e+08
3.08195e+08
4.67622e+08
5.69816e+08
-5.03785e+08
-4.94377e+08
-4.74897e+08
-4.46904e+08
-4.1448e+08
-3.74227e+08
-3.2986e+08
-2.77017e+08
-2.15553e+08
-1.48498e+08
-6.54059e+07
2.96381e+07
1.64221e+08
3.08939e+08
4.68313e+08
5.70473e+08
-5.03379e+08
-4.94019e+08
-4.74502e+08
-4.46473e+08
-4.14028e+08
-3.73754e+08
-3.29332e+08
-2.76447e+08
-2.14969e+08
-1.47893e+08
-6.47438e+07
3.0376e+07
1.64958e+08
3.09726e+08
4.69059e+08
5.7119e+08
-5.03025e+08
-4.93691e+08
-4.74135e+08
-4.46069e+08
-4.13611e+08
-3.73306e+08
-3.28832e+08
-2.75888e+08
-2.14403e+08
-1.47292e+08
-6.40839e+07
3.11376e+07
1.65734e+08
3.10547e+08
4.69854e+08
5.7198e+08
-5.02701e+08
-4.93411e+08
-4.73816e+08
-4.45714e+08
-4.13242e+08
-3.72904e+08
-3.28369e+08
-2.75347e+08
-2.13835e+08
-1.46688e+08
-6.34023e+07
3.19231e+07
1.66548e+08
3.11425e+08
4.70705e+08
5.7284e+08
-5.02424e+08
-4.93201e+08
-4.7356e+08
-4.4541e+08
-4.12908e+08
-3.7253e+08
-3.2792e+08
-2.74812e+08
-2.13254e+08
-1.46046e+08
-6.26787e+07
3.27596e+07
1.674e+08
3.12365e+08
4.71616e+08
5.73766e+08
-5.02219e+08
-4.9305e+08
-4.73351e+08
-4.45151e+08
-4.12598e+08
-3.7217e+08
-3.27476e+08
-2.7428e+08
-2.12691e+08
-1.45399e+08
-6.19485e+07
3.36293e+07
1.68298e+08
3.13356e+08
4.72584e+08
5.74766e+08
-5.02071e+08
-4.92943e+08
-4.73191e+08
-4.4494e+08
-4.12352e+08
-3.71856e+08
-3.2708e+08
-2.7377e+08
-2.12128e+08
-1.44745e+08
-6.11989e+07
3.4532e+07
1.69228e+08
3.14414e+08
4.73622e+08
5.75855e+08
-5.01971e+08
-4.9293e+08
-4.73119e+08
-4.44808e+08
-4.12168e+08
-3.71601e+08
-3.2673e+08
-2.733e+08
-2.11605e+08
-1.44103e+08
-6.04547e+07
3.54583e+07
1.70201e+08
3.15539e+08
4.74731e+08
5.7703e+08
-5.01964e+08
-4.93024e+08
-4.73151e+08
-4.44779e+08
-4.12086e+08
-3.71432e+08
-3.26464e+08
-2.7289e+08
-2.11126e+08
-1.43486e+08
-5.97182e+07
3.64075e+07
1.71207e+08
3.16719e+08
4.75932e+08
5.78319e+08
-5.02065e+08
-4.93263e+08
-4.73328e+08
-4.44889e+08
-4.12133e+08
-3.71379e+08
-3.26299e+08
-2.7256e+08
-2.1072e+08
-1.42924e+08
-5.90161e+07
3.73504e+07
1.72252e+08
3.17962e+08
4.77219e+08
5.79726e+08
-5.02312e+08
-4.93687e+08
-4.73683e+08
-4.45179e+08
-4.12351e+08
-3.71483e+08
-3.26279e+08
-2.72346e+08
-2.10395e+08
-1.42414e+08
-5.83374e+07
3.83058e+07
1.73332e+08
3.19268e+08
4.78607e+08
5.81272e+08
-5.02744e+08
-4.94345e+08
-4.74264e+08
-4.45689e+08
-4.12762e+08
-3.71754e+08
-3.26396e+08
-2.72242e+08
-2.10153e+08
-1.41958e+08
-5.76839e+07
3.92548e+07
1.74428e+08
3.20651e+08
4.80082e+08
5.82955e+08
-5.03412e+08
-4.9524e+08
-4.75077e+08
-4.46406e+08
-4.13395e+08
-3.7221e+08
-3.26699e+08
-2.72304e+08
-2.10069e+08
-1.416e+08
-5.71091e+07
4.01915e+07
1.7554e+08
3.221e+08
4.81653e+08
5.84789e+08
-5.04333e+08
-4.96423e+08
-4.76189e+08
-4.47411e+08
-4.14308e+08
-3.72918e+08
-3.27235e+08
-2.72558e+08
-2.10138e+08
-1.41369e+08
-5.66249e+07
4.10683e+07
1.76609e+08
3.23592e+08
4.83314e+08
5.86773e+08
-5.0555e+08
-4.97969e+08
-4.77665e+08
-4.48755e+08
-4.15553e+08
-3.73941e+08
-3.28084e+08
-2.73108e+08
-2.10518e+08
-1.41379e+08
-5.63552e+07
4.18349e+07
1.77654e+08
3.25104e+08
4.85065e+08
5.8893e+08
-5.07138e+08
-4.99969e+08
-4.79602e+08
-4.50588e+08
-4.17258e+08
-3.75411e+08
-3.29352e+08
-2.74019e+08
-2.1118e+08
-1.41654e+08
-5.62879e+07
4.24431e+07
1.78579e+08
3.26598e+08
4.86881e+08
5.91256e+08
-5.09174e+08
-5.02546e+08
-4.82105e+08
-4.52948e+08
-4.19486e+08
-3.77388e+08
-3.31094e+08
-2.75384e+08
-2.12284e+08
-1.42298e+08
-5.65385e+07
4.28222e+07
1.7938e+08
3.28073e+08
4.88745e+08
5.93744e+08
-5.11785e+08
-5.05747e+08
-4.85241e+08
-4.5594e+08
-4.22342e+08
-3.79961e+08
-3.3342e+08
-2.77294e+08
-2.1386e+08
-1.4336e+08
-5.71506e+07
4.29239e+07
1.79931e+08
3.29421e+08
4.90595e+08
5.96369e+08
-5.15038e+08
-5.09704e+08
-4.89133e+08
-4.59661e+08
-4.2591e+08
-3.83243e+08
-3.36422e+08
-2.79859e+08
-2.16097e+08
-1.45025e+08
-5.83032e+07
4.25806e+07
1.80174e+08
3.30611e+08
4.92383e+08
5.99104e+08
-5.19033e+08
-5.14466e+08
-4.9385e+08
-4.6423e+08
-4.30345e+08
-3.87375e+08
-3.40282e+08
-2.83258e+08
-2.19096e+08
-1.47393e+08
-6.01039e+07
4.17053e+07
1.79929e+08
3.31471e+08
4.94004e+08
6.01885e+08
-5.23848e+08
-5.20202e+08
-4.99557e+08
-4.69769e+08
-4.35748e+08
-3.92496e+08
-3.45115e+08
-2.87624e+08
-2.2308e+08
-1.50712e+08
-6.27883e+07
4.00474e+07
1.79066e+08
3.31914e+08
4.95342e+08
6.04651e+08
-5.2962e+08
-5.26955e+08
-5.06315e+08
-4.76405e+08
-4.42293e+08
-3.98776e+08
-3.51137e+08
-2.93193e+08
-2.28209e+08
-1.55141e+08
-6.65361e+07
3.74424e+07
1.77309e+08
3.31689e+08
4.96208e+08
6.07263e+08
-5.36415e+08
-5.34867e+08
-5.1427e+08
-4.84233e+08
-4.50064e+08
-4.06341e+08
-3.58473e+08
-3.0013e+08
-2.3477e+08
-1.6101e+08
-7.1685e+07
3.35239e+07
1.74403e+08
3.30568e+08
4.96385e+08
6.0958e+08
-5.44352e+08
-5.43934e+08
-5.23439e+08
-4.93366e+08
-4.59224e+08
-4.15377e+08
-3.67372e+08
-3.08723e+08
-2.43009e+08
-1.68603e+08
-7.85627e+07
2.79638e+07
1.69922e+08
3.28136e+08
4.95525e+08
6.1138e+08
-5.53439e+08
-5.54223e+08
-5.339e+08
-5.0385e+08
-4.69832e+08
-4.26006e+08
-3.77977e+08
-3.19176e+08
-2.53247e+08
-1.78338e+08
-8.76192e+07
2.02202e+07
1.63393e+08
3.23957e+08
4.93189e+08
6.12363e+08
-5.63715e+08
-5.65642e+08
-5.45583e+08
-5.1569e+08
-4.81954e+08
-4.38337e+08
-3.90474e+08
-3.31772e+08
-2.65775e+08
-1.90583e+08
-9.93291e+07
9.74002e+06
1.54091e+08
3.17297e+08
4.88708e+08
6.12025e+08
-5.75103e+08
-5.7806e+08
-5.58375e+08
-5.28757e+08
-4.95492e+08
-4.52348e+08
-4.04921e+08
-3.46683e+08
-2.80983e+08
-2.05893e+08
-1.14379e+08
-4.32641e+06
1.41169e+08
3.07219e+08
4.81184e+08
6.09712e+08
-5.8745e+08
-5.91149e+08
-5.71982e+08
-5.42881e+08
-5.10347e+08
-4.68026e+08
-4.21407e+08
-3.64119e+08
-2.99121e+08
-2.24736e+08
-1.33433e+08
-2.29123e+07
1.23389e+08
2.92359e+08
4.69419e+08
6.04817e+08
-6.0042e+08
-6.04518e+08
-5.86024e+08
-5.57648e+08
-5.26156e+08
-4.85099e+08
-4.39755e+08
-3.84076e+08
-3.20457e+08
-2.47644e+08
-1.57316e+08
-4.72702e+07
9.91694e+07
2.70717e+08
4.51204e+08
5.96048e+08
-6.1361e+08
-6.17459e+08
-5.99825e+08
-5.72485e+08
-5.42419e+08
-5.03138e+08
-4.59673e+08
-4.06419e+08
-3.44987e+08
-2.74941e+08
-1.86746e+08
-7.87545e+07
6.62602e+07
2.38831e+08
4.21348e+08
5.7699e+08
-6.26318e+08
-6.29122e+08
-6.12547e+08
-5.86529e+08
-5.58302e+08
-5.21388e+08
-4.80471e+08
-4.30598e+08
-3.72405e+08
-3.06676e+08
-2.22213e+08
-1.18804e+08
2.19613e+07
1.91279e+08
3.69562e+08
5.27801e+08
-6.37667e+08
-6.38284e+08
-6.22973e+08
-5.98611e+08
-5.72684e+08
-5.38744e+08
-5.01136e+08
-4.557e+08
-4.01894e+08
-3.42201e+08
-2.63351e+08
-1.67618e+08
-3.4824e+07
1.24619e+08
2.88678e+08
4.30022e+08
-6.4646e+08
-6.43502e+08
-6.29669e+08
-6.07271e+08
-5.84075e+08
-5.53709e+08
-5.20139e+08
-4.80115e+08
-4.31803e+08
-3.79748e+08
-3.07931e+08
-2.22199e+08
-9.89273e+07
4.82979e+07
1.97338e+08
3.24302e+08
-6.51232e+08
-6.43009e+08
-6.30844e+08
-6.10723e+08
-5.90691e+08
-5.64447e+08
-5.35618e+08
-5.01924e+08
-4.60124e+08
-4.17209e+08
-3.53789e+08
-2.80445e+08
-1.68031e+08
-3.57591e+07
9.809e+07
2.14373e+08
-6.50234e+08
-6.34803e+08
-6.24479e+08
-6.06842e+08
-5.90337e+08
-5.68657e+08
-5.45177e+08
-5.18576e+08
-4.84224e+08
-4.51735e+08
-3.97952e+08
-3.39383e+08
-2.38882e+08
-1.25566e+08
-5.35735e+06
1.01607e+08
-6.41479e+08
-6.16572e+08
-6.08227e+08
-5.93237e+08
-5.80528e+08
-5.63719e+08
-5.46085e+08
-5.27162e+08
-5.01148e+08
-4.80064e+08
-4.37306e+08
-3.95874e+08
-3.09161e+08
-2.2095e+08
-1.12122e+08
-1.56711e+07
-6.22672e+08
-5.85794e+08
-5.79548e+08
-5.67329e+08
-5.58574e+08
-5.46792e+08
-5.35354e+08
-5.24471e+08
-5.07591e+08
-4.98651e+08
-4.68388e+08
-4.4586e+08
-3.76189e+08
-3.17983e+08
-2.23029e+08
-1.413e+08
-5.91294e+08
-5.39902e+08
-5.35897e+08
-5.26602e+08
-5.21989e+08
-5.15359e+08
-5.10235e+08
-5.07218e+08
-4.98881e+08
-5.00424e+08
-4.82009e+08
-4.79109e+08
-4.33644e+08
-4.10053e+08
-3.34656e+08
-2.79961e+08
-5.44746e+08
-4.76964e+08
-4.75157e+08
-4.68317e+08
-4.66789e+08
-4.63761e+08
-4.63605e+08
-4.67873e+08
-4.69961e+08
-4.84148e+08
-4.79944e+08
-4.98065e+08
-4.76632e+08
-4.87495e+08
-4.38211e+08
-4.31194e+08
-4.81143e+08
-3.8985e+08
-3.90378e+08
-3.86997e+08
-3.90689e+08
-3.93965e+08
-4.02064e+08
-4.1663e+08
-4.31504e+08
-4.60562e+08
-4.73174e+08
-5.11227e+08
-5.10361e+08
-5.54728e+08
-5.34597e+08
-5.86072e+08
-3.9347e+08
-2.85474e+08
-2.91203e+08
-2.95194e+08
-3.08348e+08
-3.22999e+08
-3.43689e+08
-3.70972e+08
-3.9855e+08
-4.41281e+08
-4.70317e+08
-5.27022e+08
-5.46308e+08
-6.19105e+08
-6.24807e+08
-7.3245e+08
-2.87387e+08
-1.90721e+08
-2.02867e+08
-2.1537e+08
-2.38251e+08
-2.64466e+08
-2.9741e+08
-3.37166e+08
-3.77344e+08
-4.31437e+08
-4.73875e+08
-5.44608e+08
-5.80599e+08
-6.75522e+08
-7.02519e+08
-8.52282e+08
-1.89775e+08
-1.18566e+08
-1.3604e+08
-1.56021e+08
-1.8672e+08
-2.2174e+08
-2.63938e+08
-3.12716e+08
-3.62979e+08
-4.25875e+08
-4.79547e+08
-5.60542e+08
-6.10515e+08
-7.20982e+08
-7.65463e+08
-9.43469e+08
-1.14654e+08
-7.01226e+07
-9.04375e+07
-1.15316e+08
-1.51276e+08
-1.92419e+08
-2.41344e+08
-2.96516e+08
-3.54587e+08
-4.23625e+08
-4.86192e+08
-5.73588e+08
-6.34577e+08
-7.53995e+08
-8.1204e+08
-1.00601e+09
-6.39064e+07
-4.4202e+07
-6.5653e+07
-9.33447e+07
-1.32189e+08
-1.76848e+08
-2.29942e+08
-2.88795e+08
-3.52135e+08
-4.24519e+08
-4.93451e+08
-5.83504e+08
-6.52467e+08
-7.74572e+08
-8.42167e+08
-1.04062e+09
-3.63197e+07
-3.86588e+07
-6.01703e+07
-8.90809e+07
-1.28985e+08
-1.74993e+08
-2.29994e+08
-2.90047e+08
-3.56102e+08
-4.29014e+08
-5.01578e+08
-5.90658e+08
-6.64432e+08
-7.83411e+08
-8.56455e+08
-1.04883e+09
-2.97754e+07
-5.1791e+07
-7.26671e+07
-1.01511e+08
-1.4101e+08
-1.86533e+08
-2.4142e+08
-3.0044e+08
-3.66779e+08
-4.37587e+08
-5.11021e+08
-5.95733e+08
-6.71047e+08
-7.81525e+08
-8.55738e+08
-1.03238e+09
-4.25779e+07
-8.2308e+07
-1.01932e+08
-1.29506e+08
-1.67265e+08
-2.10661e+08
-2.63608e+08
-3.19637e+08
-3.84059e+08
-4.50461e+08
-5.22138e+08
-5.9943e+08
-6.72945e+08
-7.69918e+08
-8.40719e+08
-9.92442e+08
-7.34238e+07
-1.29202e+08
-1.46902e+08
-1.71984e+08
-2.06656e+08
-2.46356e+08
-2.95653e+08
-3.46961e+08
-4.07511e+08
-4.67578e+08
-5.35109e+08
-6.0237e+08
-6.70815e+08
-7.49854e+08
-8.12775e+08
-9.31932e+08
-1.21229e+08
-1.91255e+08
-2.06412e+08
-2.27892e+08
-2.58208e+08
-2.92744e+08
-3.36773e+08
-3.81798e+08
-4.36696e+08
-4.88794e+08
-5.49989e+08
-6.04999e+08
-6.65152e+08
-7.22299e+08
-7.72853e+08
-8.52957e+08
-1.84594e+08
-2.66492e+08
-2.78827e+08
-2.96045e+08
-3.21142e+08
-3.49374e+08
-3.86731e+08
-4.24064e+08
-4.71635e+08
-5.14275e+08
-5.6703e+08
-6.07837e+08
-6.56504e+08
-6.88419e+08
-7.22623e+08
-7.59936e+08
-2.61252e+08
-3.51832e+08
-3.61632e+08
-3.74713e+08
-3.94561e+08
-4.16102e+08
-4.45941e+08
-4.74526e+08
-5.13246e+08
-5.44981e+08
-5.87114e+08
-6.11764e+08
-6.45517e+08
-6.49232e+08
-6.63571e+08
-6.57241e+08
-3.4781e+08
-4.43376e+08
-4.51381e+08
-4.61216e+08
-4.76797e+08
-4.92424e+08
-5.15022e+08
-5.34686e+08
-5.63544e+08
-5.83094e+08
-6.12307e+08
-6.18582e+08
-6.33504e+08
-6.06251e+08
-5.97859e+08
-5.5013e+08
-4.40202e+08
-5.37483e+08
-5.44436e+08
-5.52127e+08
-5.64894e+08
-5.76301e+08
-5.93224e+08
-6.05154e+08
-6.24222e+08
-6.30972e+08
-6.45248e+08
-6.30842e+08
-6.22678e+08
-5.61987e+08
-5.28879e+08
-4.44476e+08
-5.34833e+08
-6.30241e+08
-6.3649e+08
-6.4262e+08
-6.53413e+08
-6.62081e+08
-6.75487e+08
-6.82414e+08
-6.93793e+08
-6.89254e+08
-6.88435e+08
-6.52129e+08
-6.17125e+08
-5.21305e+08
-4.62805e+08
-3.47173e+08
-6.27944e+08
-7.18298e+08
-7.24113e+08
-7.29182e+08
-7.38592e+08
-7.45915e+08
-7.58618e+08
-7.65003e+08
-7.73036e+08
-7.6087e+08
-7.46154e+08
-6.87163e+08
-6.21923e+08
-4.91395e+08
-4.08864e+08
-2.66926e+08
-7.162e+08
-8.1108e+08
-8.17269e+08
-8.22616e+08
-8.3166e+08
-8.37814e+08
-8.47113e+08
-8.45593e+08
-8.40932e+08
-8.12493e+08
-7.7671e+08
-6.97234e+08
-6.12353e+08
-4.71398e+08
-3.71778e+08
-2.11812e+08
-8.08807e+08
-8.80736e+08
-8.83801e+08
-8.84637e+08
-8.8571e+08
-8.79934e+08
-8.70924e+08
-8.48526e+08
-8.21904e+08
-7.74366e+08
-7.22821e+08
-6.40617e+08
-5.61595e+08
-4.35237e+08
-3.45848e+08
-1.8316e+08
-8.79473e+08
-8.58532e+08
-8.54518e+08
-8.46192e+08
-8.34926e+08
-8.16245e+08
-7.92593e+08
-7.59452e+08
-7.23658e+08
-6.72819e+08
-6.21552e+08
-5.48406e+08
-4.85381e+08
-3.80554e+08
-3.11833e+08
-1.7431e+08
-8.59962e+08
-7.74704e+08
-7.67777e+08
-7.56022e+08
-7.40325e+08
-7.18661e+08
-6.94329e+08
-6.63948e+08
-6.30486e+08
-5.84333e+08
-5.36942e+08
-4.71388e+08
-4.11238e+08
-3.26128e+08
-2.63629e+08
-1.66383e+08
-7.77241e+08
-6.91632e+08
-6.85108e+08
-6.74529e+08
-6.60146e+08
-6.40401e+08
-6.16944e+08
-5.86543e+08
-5.53272e+08
-5.09853e+08
-4.65594e+08
-4.07677e+08
-3.53507e+08
-2.8191e+08
-2.18637e+08
-1.45621e+08
-6.94005e+08
-6.18125e+08
-6.1107e+08
-6.00364e+08
-5.85722e+08
-5.66536e+08
-5.4398e+08
-5.15689e+08
-4.84645e+08
-4.45315e+08
-4.04929e+08
-3.53794e+08
-3.05049e+08
-2.43503e+08
-1.88559e+08
-1.20935e+08
-6.20617e+08
-5.50873e+08
-5.44007e+08
-5.34064e+08
-5.2022e+08
-5.02421e+08
-4.81212e+08
-4.54908e+08
-4.26016e+08
-3.90409e+08
-3.53788e+08
-3.08829e+08
-2.65498e+08
-2.12563e+08
-1.64023e+08
-1.05941e+08
-5.53206e+08
-4.90664e+08
-4.83932e+08
-4.74618e+08
-4.61478e+08
-4.44995e+08
-4.25296e+08
-4.01337e+08
-3.74976e+08
-3.43163e+08
-3.10352e+08
-2.70963e+08
-2.32797e+08
-1.87167e+08
-1.45342e+08
-9.51472e+07
-4.92872e+08
-4.3671e+08
-4.30308e+08
-4.21799e+08
-4.09603e+08
-3.94588e+08
-3.76527e+08
-3.54882e+08
-3.31031e+08
-3.02762e+08
-2.73579e+08
-2.39208e+08
-2.05829e+08
-1.66636e+08
-1.30674e+08
-8.79641e+07
-4.38736e+08
-3.88655e+08
-3.82623e+08
-3.749e+08
-3.63675e+08
-3.50107e+08
-3.33714e+08
-3.14355e+08
-2.92995e+08
-2.68059e+08
-2.42306e+08
-2.12437e+08
-1.83439e+08
-1.49854e+08
-1.19163e+08
-8.28719e+07
-3.90502e+08
-3.45965e+08
-3.40365e+08
-3.33436e+08
-3.23221e+08
-3.11077e+08
-2.9633e+08
-2.79138e+08
-2.6015e+08
-2.38269e+08
-2.15682e+08
-1.8983e+08
-1.64771e+08
-1.36094e+08
-1.09998e+08
-7.93155e+07
-3.47628e+08
-3.08143e+08
-3.02992e+08
-2.96821e+08
-2.876e+08
-2.76807e+08
-2.63643e+08
-2.48478e+08
-2.31713e+08
-2.12615e+08
-1.92918e+08
-1.70626e+08
-1.49075e+08
-1.2466e+08
-1.02552e+08
-7.66572e+07
-3.09629e+08
-2.74696e+08
-2.70003e+08
-2.64547e+08
-2.56287e+08
-2.46759e+08
-2.35085e+08
-2.21784e+08
-2.07066e+08
-1.90472e+08
-1.73377e+08
-1.54223e+08
-1.3576e+08
-1.15027e+08
-9.63351e+07
-7.44868e+07
-2.76013e+08
-2.45151e+08
-2.40907e+08
-2.36113e+08
-2.2876e+08
-2.20397e+08
-2.10105e+08
-1.98497e+08
-1.85643e+08
-1.71284e+08
-1.56511e+08
-1.40105e+08
-1.24344e+08
-1.06782e+08
-9.10152e+07
-7.26038e+07
-2.46312e+08
-2.19066e+08
-2.15255e+08
-2.11065e+08
-2.04559e+08
-1.97255e+08
-1.88228e+08
-1.78141e+08
-1.66965e+08
-1.54584e+08
-1.41866e+08
-1.27853e+08
-1.14435e+08
-9.95872e+07
-8.62994e+07
-7.07675e+07
-2.20084e+08
-1.96034e+08
-1.92631e+08
-1.88987e+08
-1.83258e+08
-1.76907e+08
-1.69024e+08
-1.60294e+08
-1.50615e+08
-1.39974e+08
-1.29059e+08
-1.1712e+08
-1.05726e+08
-9.31931e+07
-8.20039e+07
-6.88891e+07
-1.96922e+08
-1.75682e+08
-1.7266e+08
-1.69503e+08
-1.64481e+08
-1.5898e+08
-1.52123e+08
-1.44593e+08
-1.36237e+08
-1.27118e+08
-1.17776e+08
-1.07625e+08
-9.79671e+07
-8.74007e+07
-7.79792e+07
-6.68868e+07
-1.76453e+08
-1.57674e+08
-1.55003e+08
-1.52277e+08
-1.47892e+08
-1.43142e+08
-1.37198e+08
-1.30721e+08
-1.23529e+08
-1.15731e+08
-1.07754e+08
-9.91368e+07
-9.09622e+07
-8.20582e+07
-7.41166e+07
-6.47009e+07
-1.58341e+08
-1.41708e+08
-1.39356e+08
-1.37011e+08
-1.33194e+08
-1.29104e+08
-1.23967e+08
-1.18409e+08
-1.12233e+08
-1.05577e+08
-9.87775e+07
-9.14709e+07
-8.45575e+07
-7.70552e+07
-7.03507e+07
-6.23285e+07
-1.42284e+08
-1.27518e+08
-1.25455e+08
-1.23441e+08
-1.20128e+08
-1.16615e+08
-1.12184e+08
-1.07424e+08
-1.02131e+08
-9.64579e+07
-9.06687e+07
-8.44774e+07
-7.86318e+07
-7.23062e+07
-6.66307e+07
-5.97597e+07
-1.28014e+08
-1.14868e+08
-1.13063e+08
-1.11338e+08
-1.08468e+08
-1.05455e+08
-1.01641e+08
-9.757e+07
-9.30389e+07
-8.8208e+07
-8.32823e+07
-7.80363e+07
-7.30912e+07
-6.77497e+07
-6.29255e+07
-5.69967e+07
-1.15294e+08
-1.03552e+08
-1.01976e+08
-1.005e+08
-9.80182e+07
-9.54379e+07
-9.21585e+07
-8.86793e+07
-8.48037e+07
-8.06908e+07
-7.65003e+07
-7.20531e+07
-6.78656e+07
-6.33471e+07
-5.92302e+07
-5.4086e+07
-1.03917e+08
-9.33904e+07
-9.2017e+07
-9.07543e+07
-8.86106e+07
-8.64016e+07
-8.35837e+07
-8.06108e+07
-7.72963e+07
-7.37932e+07
-7.02259e+07
-6.64507e+07
-6.2897e+07
-5.90611e+07
-5.55225e+07
-5.10066e+07
-9.37033e+07
-8.42271e+07
-8.30316e+07
-8.19515e+07
-8.01006e+07
-7.82089e+07
-7.57875e+07
-7.32458e+07
-7.04094e+07
-6.74225e+07
-6.43817e+07
-6.11709e+07
-5.81481e+07
-5.48821e+07
-5.18257e+07
-4.78406e+07
-8.44954e+07
-7.59284e+07
-7.48883e+07
-7.39634e+07
-7.23647e+07
-7.07431e+07
-6.86606e+07
-6.64844e+07
-6.40537e+07
-6.15017e+07
-5.89037e+07
-5.61648e+07
-5.35834e+07
-5.07886e+07
-4.81272e+07
-4.45744e+07
-7.61586e+07
-6.83793e+07
-6.74739e+07
-6.66804e+07
-6.5298e+07
-6.39049e+07
-6.21109e+07
-6.02431e+07
-5.81552e+07
-5.59681e+07
-5.37411e+07
-5.13952e+07
-4.91799e+07
-4.6774e+07
-4.44351e+07
-4.12338e+07
-6.85772e+07
-6.14815e+07
-6.06926e+07
-6.00096e+07
-5.88117e+07
-5.76111e+07
-5.60614e+07
-5.44524e+07
-5.26527e+07
-5.07703e+07
-4.88526e+07
-4.68324e+07
-4.4919e+07
-4.28322e+07
-4.07552e+07
-3.78398e+07
-6.16522e+07
-5.51516e+07
-5.44628e+07
-5.38722e+07
-5.2831e+07
-5.17915e+07
-5.04475e+07
-4.90547e+07
-4.74959e+07
-4.58666e+07
-4.42052e+07
-4.24533e+07
-4.07871e+07
-3.89601e+07
-3.70926e+07
-3.44023e+07
-5.52995e+07
-4.93196e+07
-4.87163e+07
-4.82023e+07
-4.72934e+07
-4.63879e+07
-4.52162e+07
-4.40028e+07
-4.26442e+07
-4.12236e+07
-3.97734e+07
-3.82414e+07
-3.67766e+07
-3.51608e+07
-3.34621e+07
-3.09556e+07
-4.94485e+07
-4.39263e+07
-4.33958e+07
-4.29449e+07
-4.21469e+07
-4.1352e+07
-4.03236e+07
-3.92577e+07
-3.80642e+07
-3.68144e+07
-3.55366e+07
-3.41829e+07
-3.28803e+07
-3.14338e+07
-2.98679e+07
-2.75055e+07
-4.40396e+07
-3.89228e+07
-3.84538e+07
-3.80542e+07
-3.73486e+07
-3.66441e+07
-3.57339e+07
-3.47882e+07
-3.37296e+07
-3.2618e+07
-3.14794e+07
-3.02688e+07
-2.90951e+07
-2.77828e+07
-2.63202e+07
-2.407e+07
-3.90233e+07
-3.42681e+07
-3.38509e+07
-3.34926e+07
-3.28634e+07
-3.22318e+07
-3.14181e+07
-3.05689e+07
-2.96191e+07
-2.86178e+07
-2.75898e+07
-2.6492e+07
-2.54189e+07
-2.42111e+07
-2.28272e+07
-2.06649e+07
-3.43585e+07
-2.99292e+07
-2.95552e+07
-2.92295e+07
-2.86628e+07
-2.8089e+07
-2.7353e+07
-2.65802e+07
-2.57166e+07
-2.48014e+07
-2.38592e+07
-2.2848e+07
-2.18506e+07
-2.0721e+07
-1.93927e+07
-1.72926e+07
-3.00115e+07
-2.58792e+07
-2.5541e+07
-2.52404e+07
-2.47241e+07
-2.41954e+07
-2.35209e+07
-2.28069e+07
-2.20099e+07
-2.11599e+07
-2.02821e+07
-1.93346e+07
-1.83914e+07
-1.73172e+07
-1.60254e+07
-1.39679e+07
-2.59553e+07
-2.20966e+07
-2.1788e+07
-2.15061e+07
-2.103e+07
-2.05351e+07
-1.99081e+07
-1.92378e+07
-1.84905e+07
-1.76875e+07
-1.68552e+07
-1.59513e+07
-1.50428e+07
-1.40036e+07
-1.27302e+07
-1.06966e+07
-2.21681e+07
-1.85647e+07
-1.82804e+07
-1.80117e+07
-1.75671e+07
-1.70966e+07
-1.65051e+07
-1.58655e+07
-1.51532e+07
-1.43812e+07
-1.35777e+07
-1.26994e+07
-1.1808e+07
-1.07843e+07
-9.51174e+06
-7.48043e+06
-1.8633e+07
-1.52708e+07
-1.50063e+07
-1.47464e+07
-1.43258e+07
-1.38717e+07
-1.33056e+07
-1.26856e+07
-1.19955e+07
-1.12408e+07
-1.04513e+07
-9.5825e+06
-8.69241e+06
-7.66747e+06
-6.38146e+06
-4.33967e+06
-1.5337e+07
-1.22056e+07
-1.19573e+07
-1.17025e+07
-1.12998e+07
-1.08557e+07
-1.03064e+07
-9.6967e+06
-9.01795e+06
-8.2683e+06
-7.47958e+06
-6.60553e+06
-5.70143e+06
-4.65767e+06
-3.34139e+06
-1.26858e+06
-1.22706e+07
-9.36258e+06
-9.12756e+06
-8.87504e+06
-8.48534e+06
-8.04608e+06
-7.50669e+06
-6.89982e+06
-6.22332e+06
-5.46861e+06
-4.66905e+06
-3.77642e+06
-2.84405e+06
-1.7652e+06
-403363
1.71603e+06
-9.427e+06
-6.73715e+06
-6.51327e+06
-6.26108e+06
-5.88083e+06
-5.44273e+06
-4.90808e+06
-4.29831e+06
-3.61687e+06
-2.84875e+06
-2.02825e+06
-1.10479e+06
-129801
1.00217e+06
2.42942e+06
4.62164e+06
-6.80148e+06
-4.3265e+06
-4.1123e+06
-3.85941e+06
-3.48628e+06
-3.04718e+06
-2.51391e+06
-1.89761e+06
-1.2062e+06
-418628
430859
1.39547e+06
2.42642e+06
3.62907e+06
5.14242e+06
7.43521e+06
-4.39093e+06
-2.12868e+06
-1.92337e+06
-1.66969e+06
-1.3027e+06
-862079
-328832
295334
999150
1.80943e+06
2.69331e+06
3.70687e+06
4.80576e+06
6.09619e+06
7.71826e+06
1.01431e+07
-2.1932e+06
-142108
54452.9
308023
668502
1.10939e+06
1.64176e+06
2.27247e+06
2.98801e+06
3.82069e+06
4.74062e+06
5.80704e+06
6.98315e+06
8.37668e+06
1.01325e+07
1.2728e+07
-206422
1.63521e+06
1.82256e+06
2.07412e+06
2.4263e+06
2.86437e+06
3.3926e+06
4.02552e+06
4.74833e+06
5.59857e+06
6.55093e+06
7.66816e+06
8.9255e+06
1.04321e+07
1.23468e+07
1.51517e+07
1.57161e+06
3.20592e+06
3.38305e+06
3.62977e+06
3.97055e+06
4.4009e+06
4.91929e+06
5.54691e+06
6.26826e+06
7.1258e+06
8.09998e+06
9.25774e+06
1.05919e+07
1.22136e+07
1.43164e+07
1.73776e+07
3.14374e+06
4.57564e+06
4.74106e+06
4.97929e+06
5.30432e+06
5.72036e+06
6.22078e+06
6.8323e+06
7.53868e+06
8.38675e+06
9.36258e+06
1.05384e+07
1.19291e+07
1.36525e+07
1.59731e+07
1.93599e+07
4.51578e+06
5.75189e+06
5.90372e+06
6.12912e+06
6.43309e+06
6.82687e+06
7.29922e+06
7.88094e+06
8.55433e+06
9.36926e+06
1.03151e+07
1.14695e+07
1.28681e+07
1.46464e+07
1.71694e+07
2.09605e+07
5.69537e+06
6.71746e+06
6.85437e+06
7.06343e+06
7.3421e+06
7.707e+06
8.1427e+06
8.68249e+06
9.30598e+06
1.00638e+07
1.09436e+07
1.20252e+07
1.33493e+07
1.50694e+07
1.76203e+07
2.16329e+07
6.66504e+06
7.64484e+06
7.76156e+06
7.94522e+06
8.1867e+06
8.50657e+06
8.88507e+06
9.35584e+06
9.89312e+06
1.05429e+07
1.12801e+07
1.21692e+07
1.32121e+07
1.45245e+07
1.64383e+07
1.94218e+07
7.5988e+06
8.03482e+06
8.13698e+06
8.30124e+06
8.51547e+06
8.80195e+06
9.13908e+06
9.56044e+06
1.00377e+07
1.06142e+07
1.1257e+07
1.20186e+07
1.28646e+07
1.38521e+07
1.50454e+07
1.72387e+07
7.99363e+06
)
;

boundaryField
{
    wireUpstream
    {
        type            zeroGradient;
    }
    wireDownstream
    {
        type            zeroGradient;
    }
    wireTopContact
    {
        type            zeroGradient;
    }
    front
    {
        type            wedge;
    }
    back
    {
        type            wedge;
    }
}


// ************************************************************************* //
