/*--------------------------------*- C++ -*----------------------------------*\
| =========                 |                                                 |
| \\      /  F ield         | foam-extend: Open Source CFD                    |
|  \\    /   O peration     | Version:     4.1-20200408                       |
|   \\  /    A nd           | Web:         http://www.foam-extend.org         |
|    \\/     M anipulation  |                                                 |
\*---------------------------------------------------------------------------*/
FoamFile
{
    version     2.0;
    format      ascii;
    class       volScalarField;
    location    "0.0570000";
    object      sigmaCauchyEq;
}
// * * * * * * * * * * * * * * * * * * * * * * * * * * * * * * * * * * * * * //

dimensions      [1 -1 -2 0 0 0 0];

internalField   nonuniform List<scalar> 
1952
(
5.36744e+08
5.13484e+08
4.89009e+08
4.54018e+08
4.1932e+08
3.73298e+08
3.17604e+08
2.46506e+08
1.89615e+08
1.97057e+08
2.91702e+08
5.18646e+08
7.76026e+08
1.01877e+09
1.11032e+09
5.38505e+08
5.39695e+08
5.16356e+08
4.91792e+08
4.56714e+08
4.21969e+08
3.75639e+08
3.19798e+08
2.48159e+08
1.91463e+08
1.98087e+08
2.92956e+08
5.2042e+08
7.78799e+08
1.02287e+09
1.11636e+09
5.41503e+08
5.40977e+08
5.1756e+08
4.92871e+08
4.57867e+08
4.23025e+08
3.76532e+08
3.20535e+08
2.48688e+08
1.92172e+08
1.98953e+08
2.9405e+08
5.21715e+08
7.79919e+08
1.02324e+09
1.11485e+09
5.42817e+08
5.41502e+08
5.18017e+08
4.9322e+08
4.58193e+08
4.2326e+08
3.76648e+08
3.20507e+08
2.48572e+08
1.92536e+08
1.99874e+08
2.95355e+08
5.23148e+08
7.81185e+08
1.02393e+09
1.11472e+09
5.43354e+08
5.41161e+08
5.17597e+08
4.92664e+08
4.57768e+08
4.22744e+08
3.76035e+08
3.19779e+08
2.47872e+08
1.92379e+08
2.00733e+08
2.96861e+08
5.24789e+08
7.82468e+08
1.02436e+09
1.11415e+09
5.43036e+08
5.40244e+08
5.16612e+08
4.91575e+08
4.56698e+08
4.21611e+08
3.74846e+08
3.18522e+08
2.46707e+08
1.9191e+08
2.01473e+08
2.98341e+08
5.26408e+08
7.83765e+08
1.0249e+09
1.11398e+09
5.42134e+08
5.38754e+08
5.15064e+08
4.89921e+08
4.55152e+08
4.20023e+08
3.73233e+08
3.16873e+08
2.45216e+08
1.912e+08
2.02151e+08
2.99828e+08
5.28042e+08
7.8504e+08
1.02547e+09
1.11391e+09
5.40659e+08
5.36909e+08
5.13169e+08
4.87932e+08
4.53271e+08
4.18121e+08
3.71337e+08
3.14975e+08
2.43531e+08
1.90335e+08
2.02733e+08
3.01272e+08
5.29646e+08
7.86333e+08
1.02615e+09
1.11407e+09
5.38831e+08
5.34778e+08
5.11004e+08
4.85687e+08
4.5118e+08
4.1603e+08
3.6928e+08
3.12938e+08
2.41722e+08
1.89358e+08
2.03277e+08
3.02707e+08
5.31236e+08
7.87647e+08
1.02694e+09
1.11441e+09
5.36712e+08
5.32518e+08
5.08713e+08
4.83324e+08
4.48948e+08
4.13808e+08
3.6711e+08
3.10797e+08
2.3984e+08
1.88334e+08
2.03775e+08
3.04126e+08
5.32819e+08
7.89022e+08
1.02784e+09
1.11495e+09
5.34462e+08
5.30155e+08
5.06326e+08
4.80867e+08
4.4667e+08
4.11546e+08
3.64919e+08
3.08645e+08
2.37954e+08
1.87271e+08
2.04226e+08
3.05576e+08
5.3437e+08
7.90435e+08
1.02885e+09
1.11566e+09
5.32109e+08
5.27789e+08
5.03941e+08
4.78422e+08
4.44356e+08
4.09252e+08
3.62705e+08
3.06456e+08
2.36044e+08
1.86277e+08
2.04711e+08
3.07034e+08
5.35962e+08
7.9193e+08
1.02998e+09
1.11652e+09
5.2975e+08
5.25456e+08
5.01587e+08
4.75994e+08
4.42134e+08
4.07049e+08
3.60568e+08
3.04347e+08
2.34231e+08
1.85304e+08
2.05224e+08
3.08515e+08
5.37568e+08
7.93475e+08
1.03122e+09
1.11752e+09
5.27429e+08
5.23242e+08
4.99353e+08
4.73697e+08
4.39983e+08
4.04918e+08
3.58495e+08
3.02278e+08
2.3246e+08
1.84389e+08
2.05752e+08
3.10006e+08
5.39217e+08
7.9511e+08
1.03256e+09
1.11865e+09
5.25223e+08
5.21155e+08
4.97247e+08
4.71511e+08
4.37976e+08
4.02914e+08
3.56525e+08
3.00297e+08
2.3088e+08
1.83518e+08
2.063e+08
3.11534e+08
5.40884e+08
7.9681e+08
1.034e+09
1.11991e+09
5.23148e+08
5.19231e+08
4.953e+08
4.69476e+08
4.36097e+08
4.01026e+08
3.54651e+08
2.98408e+08
2.294e+08
1.82705e+08
2.06863e+08
3.13064e+08
5.42598e+08
7.98572e+08
1.03553e+09
1.12128e+09
5.21239e+08
5.17475e+08
4.93516e+08
4.67593e+08
4.34377e+08
3.99283e+08
3.529e+08
2.9662e+08
2.28003e+08
1.81966e+08
2.07481e+08
3.14624e+08
5.44354e+08
8.00389e+08
1.03715e+09
1.12275e+09
5.19499e+08
5.15926e+08
4.91935e+08
4.65902e+08
4.32831e+08
3.97703e+08
3.51285e+08
2.94948e+08
2.26712e+08
1.81315e+08
2.08143e+08
3.16203e+08
5.46152e+08
8.02277e+08
1.03885e+09
1.12434e+09
5.17971e+08
5.146e+08
4.90568e+08
4.64413e+08
4.31484e+08
3.96301e+08
3.49828e+08
2.93403e+08
2.25489e+08
1.80716e+08
2.08838e+08
3.17823e+08
5.48001e+08
8.04232e+08
1.04066e+09
1.12604e+09
5.16669e+08
5.13508e+08
4.89425e+08
4.63139e+08
4.30303e+08
3.95048e+08
3.48502e+08
2.91959e+08
2.24373e+08
1.80198e+08
2.09574e+08
3.19484e+08
5.49913e+08
8.06261e+08
1.04256e+09
1.12786e+09
5.15601e+08
5.1264e+08
4.88506e+08
4.62071e+08
4.29355e+08
3.94002e+08
3.47362e+08
2.90672e+08
2.23395e+08
1.79788e+08
2.10375e+08
3.21178e+08
5.51859e+08
8.08353e+08
1.04457e+09
1.12981e+09
5.14761e+08
5.12048e+08
4.8785e+08
4.61252e+08
4.28641e+08
3.93171e+08
3.46414e+08
2.89555e+08
2.22541e+08
1.79453e+08
2.11208e+08
3.22882e+08
5.53871e+08
8.10531e+08
1.04669e+09
1.1319e+09
5.14202e+08
5.11721e+08
4.8746e+08
4.60695e+08
4.28174e+08
3.92561e+08
3.45672e+08
2.88605e+08
2.21788e+08
1.79182e+08
2.12078e+08
3.24621e+08
5.55929e+08
8.12788e+08
1.04896e+09
1.13414e+09
5.13908e+08
5.11671e+08
4.87342e+08
4.60395e+08
4.27917e+08
3.92137e+08
3.45087e+08
2.87792e+08
2.21172e+08
1.78996e+08
2.12983e+08
3.26367e+08
5.58067e+08
8.15157e+08
1.05136e+09
1.13654e+09
5.13893e+08
5.11839e+08
4.87439e+08
4.60306e+08
4.27907e+08
3.91934e+08
3.44716e+08
2.87155e+08
2.20633e+08
1.78848e+08
2.13904e+08
3.28156e+08
5.60265e+08
8.17629e+08
1.05394e+09
1.13917e+09
5.141e+08
5.1225e+08
4.87784e+08
4.60461e+08
4.28069e+08
3.9188e+08
3.44463e+08
2.86613e+08
2.20205e+08
1.78771e+08
2.14854e+08
3.29967e+08
5.62555e+08
8.20249e+08
1.05669e+09
1.14201e+09
5.14549e+08
5.12781e+08
4.88249e+08
4.6074e+08
4.28414e+08
3.91992e+08
3.44383e+08
2.86218e+08
2.19857e+08
1.78738e+08
2.15812e+08
3.31831e+08
5.6493e+08
8.22991e+08
1.05966e+09
1.14515e+09
5.15125e+08
5.13443e+08
4.88865e+08
4.61187e+08
4.28896e+08
3.92229e+08
3.44408e+08
2.85914e+08
2.19628e+08
1.78787e+08
2.16804e+08
3.33691e+08
5.6737e+08
8.25871e+08
1.06284e+09
1.14856e+09
5.15831e+08
5.14111e+08
4.8948e+08
4.61706e+08
4.2947e+08
3.92562e+08
3.44545e+08
2.85743e+08
2.1946e+08
1.78844e+08
2.17765e+08
3.35546e+08
5.69919e+08
8.28897e+08
1.06629e+09
1.15232e+09
5.16546e+08
5.14703e+08
4.90058e+08
4.62265e+08
4.30042e+08
3.92913e+08
3.44708e+08
2.85599e+08
2.19272e+08
1.78871e+08
2.187e+08
3.37378e+08
5.72488e+08
8.32058e+08
1.07e+09
1.15644e+09
5.17172e+08
5.15002e+08
4.90365e+08
4.62563e+08
4.30398e+08
3.93086e+08
3.44731e+08
2.85375e+08
2.19017e+08
1.78798e+08
2.19523e+08
3.39156e+08
5.75188e+08
8.35426e+08
1.07401e+09
1.16099e+09
5.17502e+08
5.14695e+08
4.90133e+08
4.62408e+08
4.30379e+08
3.92951e+08
3.44523e+08
2.84952e+08
2.18474e+08
1.78495e+08
2.202e+08
3.40904e+08
5.77866e+08
8.3889e+08
1.0783e+09
1.16598e+09
5.17214e+08
5.13496e+08
4.89071e+08
4.61394e+08
4.29599e+08
3.92165e+08
3.43745e+08
2.84083e+08
2.17708e+08
1.77984e+08
2.20672e+08
3.425e+08
5.80633e+08
8.42555e+08
1.08291e+09
1.17146e+09
5.16019e+08
5.10859e+08
4.86647e+08
4.59296e+08
4.27872e+08
3.90581e+08
3.42322e+08
2.82711e+08
2.16318e+08
1.76988e+08
2.2085e+08
3.43963e+08
5.83275e+08
8.46215e+08
1.08778e+09
1.17743e+09
5.13367e+08
5.06367e+08
4.82501e+08
4.55428e+08
4.24549e+08
3.87621e+08
3.39706e+08
2.80365e+08
2.14294e+08
1.75466e+08
2.20621e+08
3.45112e+08
5.85888e+08
8.49993e+08
1.09292e+09
1.18392e+09
5.0882e+08
4.99136e+08
4.75731e+08
4.49334e+08
4.19229e+08
3.82945e+08
3.35655e+08
2.76871e+08
2.11115e+08
1.73084e+08
2.19887e+08
3.45988e+08
5.88213e+08
8.53614e+08
1.0982e+09
1.19088e+09
5.01494e+08
4.88458e+08
4.65714e+08
4.40035e+08
4.10994e+08
3.75741e+08
3.29435e+08
2.71606e+08
2.0671e+08
1.6978e+08
2.18537e+08
3.4637e+08
5.903e+08
8.57123e+08
1.10357e+09
1.19828e+09
4.9065e+08
4.73081e+08
4.51188e+08
4.26786e+08
3.99187e+08
3.65464e+08
3.20652e+08
2.64317e+08
2.00616e+08
1.65369e+08
2.1662e+08
3.4635e+08
5.91853e+08
8.60162e+08
1.10883e+09
1.206e+09
4.75024e+08
4.51956e+08
4.31203e+08
4.0835e+08
3.82679e+08
3.51166e+08
3.08524e+08
2.54445e+08
1.92976e+08
1.60137e+08
2.14323e+08
3.45826e+08
5.92885e+08
8.6268e+08
1.11376e+09
1.21392e+09
4.53517e+08
4.23502e+08
4.04204e+08
3.83745e+08
3.60648e+08
3.32267e+08
2.92768e+08
2.42035e+08
1.8401e+08
1.54816e+08
2.12385e+08
3.45221e+08
5.93169e+08
8.64226e+08
1.11799e+09
1.22176e+09
4.24497e+08
3.86369e+08
3.69004e+08
3.51681e+08
3.32063e+08
3.0814e+08
2.73198e+08
2.27485e+08
1.75474e+08
1.51621e+08
2.12326e+08
3.45109e+08
5.92921e+08
8.64654e+08
1.12113e+09
1.22917e+09
3.86506e+08
3.38881e+08
3.24107e+08
3.11598e+08
2.96819e+08
2.79363e+08
2.51161e+08
2.13137e+08
1.70932e+08
1.54725e+08
2.17208e+08
3.47192e+08
5.92471e+08
8.63671e+08
1.12264e+09
1.23556e+09
3.37679e+08
2.79998e+08
2.69e+08
2.63769e+08
2.56069e+08
2.48309e+08
2.3024e+08
2.04035e+08
1.77143e+08
1.70352e+08
2.31625e+08
3.54182e+08
5.9316e+08
8.61544e+08
1.122e+09
1.24012e+09
2.76529e+08
2.09377e+08
2.04718e+08
2.12152e+08
2.15475e+08
2.22322e+08
2.1903e+08
2.09494e+08
2.0208e+08
2.0458e+08
2.61484e+08
3.70861e+08
5.97169e+08
8.58519e+08
1.11802e+09
1.24161e+09
2.015e+08
1.31644e+08
1.40552e+08
1.70833e+08
1.90436e+08
2.16302e+08
2.30709e+08
2.3971e+08
2.50985e+08
2.60776e+08
3.12268e+08
4.04027e+08
6.09962e+08
8.57064e+08
1.10955e+09
1.23783e+09
1.1232e+08
8.42635e+07
1.18301e+08
1.73426e+08
2.06962e+08
2.47433e+08
2.75673e+08
2.99159e+08
3.24087e+08
3.39325e+08
3.87425e+08
4.62354e+08
6.42863e+08
8.67749e+08
1.10356e+09
1.22922e+09
2.79453e+07
1.52176e+08
1.85721e+08
2.39289e+08
2.74672e+08
3.18969e+08
3.53393e+08
3.85288e+08
4.18299e+08
4.37602e+08
4.85076e+08
5.48543e+08
7.07241e+08
9.08547e+08
1.12225e+09
1.23165e+09
1.23181e+08
2.75753e+08
3.02738e+08
3.47473e+08
3.79214e+08
4.21361e+08
4.56624e+08
4.92178e+08
5.28816e+08
5.50474e+08
5.9753e+08
6.53257e+08
7.95603e+08
9.75795e+08
1.16905e+09
1.25715e+09
2.57739e+08
4.18111e+08
4.40787e+08
4.78571e+08
5.06044e+08
5.44232e+08
5.77623e+08
6.13872e+08
6.5054e+08
6.72486e+08
7.16747e+08
7.64272e+08
8.89711e+08
1.0444e+09
1.21262e+09
1.27344e+09
4.04665e+08
5.69894e+08
5.89512e+08
6.21789e+08
6.45275e+08
6.79009e+08
7.09258e+08
7.44267e+08
7.78485e+08
7.99213e+08
8.38079e+08
8.76768e+08
9.82483e+08
1.10663e+09
1.2461e+09
1.27702e+09
5.59104e+08
7.2426e+08
7.41367e+08
7.69007e+08
7.88808e+08
8.17939e+08
8.44458e+08
8.7701e+08
9.07101e+08
9.25574e+08
9.57081e+08
9.87152e+08
1.06974e+09
1.16195e+09
1.2695e+09
1.277e+09
7.15377e+08
8.74111e+08
8.88962e+08
9.12275e+08
9.28529e+08
9.52856e+08
9.75268e+08
1.00421e+09
1.02918e+09
1.04471e+09
1.06832e+09
1.09131e+09
1.14898e+09
1.21235e+09
1.27754e+09
1.27688e+09
8.668e+08
1.01158e+09
1.02408e+09
1.04298e+09
1.05544e+09
1.0744e+09
1.09208e+09
1.11618e+09
1.13557e+09
1.14806e+09
1.16559e+09
1.18491e+09
1.22209e+09
1.26041e+09
1.27748e+09
1.2766e+09
1.00573e+09
1.12781e+09
1.13744e+09
1.15145e+09
1.15964e+09
1.17285e+09
1.18582e+09
1.2053e+09
1.22098e+09
1.23267e+09
1.24764e+09
1.26432e+09
1.2795e+09
1.27843e+09
1.27726e+09
1.27609e+09
1.12353e+09
1.21343e+09
1.22023e+09
1.23001e+09
1.23582e+09
1.24585e+09
1.25694e+09
1.27281e+09
1.28099e+09
1.28096e+09
1.28072e+09
1.28026e+09
1.27942e+09
1.27822e+09
1.27679e+09
1.27534e+09
1.21077e+09
1.26901e+09
1.2747e+09
1.28055e+09
1.28064e+09
1.28076e+09
1.28086e+09
1.28095e+09
1.28093e+09
1.28082e+09
1.28049e+09
1.27992e+09
1.27897e+09
1.27765e+09
1.27605e+09
1.2744e+09
1.26693e+09
1.28043e+09
1.28046e+09
1.28052e+09
1.28057e+09
1.28062e+09
1.28064e+09
1.28063e+09
1.28052e+09
1.28029e+09
1.27984e+09
1.27916e+09
1.2781e+09
1.27672e+09
1.27503e+09
1.27331e+09
1.28039e+09
1.28021e+09
1.2802e+09
1.2802e+09
1.28017e+09
1.28013e+09
1.28005e+09
1.27992e+09
1.27969e+09
1.27934e+09
1.27879e+09
1.27802e+09
1.27689e+09
1.27548e+09
1.27379e+09
1.2721e+09
1.28018e+09
1.27959e+09
1.27953e+09
1.27946e+09
1.27935e+09
1.27921e+09
1.27902e+09
1.27878e+09
1.27845e+09
1.27801e+09
1.27738e+09
1.27655e+09
1.27541e+09
1.27401e+09
1.27239e+09
1.27081e+09
1.27959e+09
1.27845e+09
1.27835e+09
1.27822e+09
1.27805e+09
1.27783e+09
1.27756e+09
1.27724e+09
1.27684e+09
1.27635e+09
1.27569e+09
1.27483e+09
1.27372e+09
1.27237e+09
1.27089e+09
1.26947e+09
1.27847e+09
1.27674e+09
1.27663e+09
1.27647e+09
1.27626e+09
1.27601e+09
1.27571e+09
1.27536e+09
1.27493e+09
1.27442e+09
1.27376e+09
1.27292e+09
1.27187e+09
1.27062e+09
1.26931e+09
1.2681e+09
1.27677e+09
1.27451e+09
1.27441e+09
1.27425e+09
1.27405e+09
1.27381e+09
1.27352e+09
1.27318e+09
1.27277e+09
1.27228e+09
1.27166e+09
1.27087e+09
1.26991e+09
1.26879e+09
1.26767e+09
1.26669e+09
1.27455e+09
1.27188e+09
1.2718e+09
1.27168e+09
1.27152e+09
1.27131e+09
1.27107e+09
1.27077e+09
1.27042e+09
1.26998e+09
1.26943e+09
1.26872e+09
1.26788e+09
1.2669e+09
1.26599e+09
1.26526e+09
1.27191e+09
1.26901e+09
1.26896e+09
1.26888e+09
1.26877e+09
1.26863e+09
1.26845e+09
1.26822e+09
1.26794e+09
1.26758e+09
1.26711e+09
1.2665e+09
1.26579e+09
1.26497e+09
1.26429e+09
1.26382e+09
1.26902e+09
1.26607e+09
1.26605e+09
1.26602e+09
1.26596e+09
1.26588e+09
1.26577e+09
1.26561e+09
1.2654e+09
1.26512e+09
1.26475e+09
1.26425e+09
1.26368e+09
1.26303e+09
1.26258e+09
1.26239e+09
1.26607e+09
1.26324e+09
1.26323e+09
1.26323e+09
1.26321e+09
1.26317e+09
1.26311e+09
1.26302e+09
1.26287e+09
1.26267e+09
1.26239e+09
1.262e+09
1.26157e+09
1.2611e+09
1.2609e+09
1.26098e+09
1.26323e+09
1.26063e+09
1.26063e+09
1.26063e+09
1.26062e+09
1.2606e+09
1.26057e+09
1.26051e+09
1.26042e+09
1.26028e+09
1.26008e+09
1.2598e+09
1.25951e+09
1.25922e+09
1.25925e+09
1.25961e+09
1.26062e+09
1.25832e+09
1.25831e+09
1.2583e+09
1.25828e+09
1.25826e+09
1.25822e+09
1.25818e+09
1.25811e+09
1.25801e+09
1.25787e+09
1.25768e+09
1.25752e+09
1.25741e+09
1.25768e+09
1.25828e+09
1.25832e+09
1.25633e+09
1.25631e+09
1.25628e+09
1.25624e+09
1.25619e+09
1.25613e+09
1.25607e+09
1.25599e+09
1.25591e+09
1.2558e+09
1.25569e+09
1.25564e+09
1.25571e+09
1.25619e+09
1.25701e+09
1.25633e+09
1.25464e+09
1.25461e+09
1.25456e+09
1.2545e+09
1.25443e+09
1.25433e+09
1.25423e+09
1.25412e+09
1.25403e+09
1.25393e+09
1.25387e+09
1.25392e+09
1.25415e+09
1.2548e+09
1.25578e+09
1.25465e+09
1.25323e+09
1.25318e+09
1.25313e+09
1.25305e+09
1.25296e+09
1.25283e+09
1.2527e+09
1.25256e+09
1.25243e+09
1.25232e+09
1.25228e+09
1.25239e+09
1.25274e+09
1.25351e+09
1.25459e+09
1.25324e+09
1.25204e+09
1.25199e+09
1.25193e+09
1.25184e+09
1.25174e+09
1.25161e+09
1.25146e+09
1.2513e+09
1.25116e+09
1.25103e+09
1.251e+09
1.25113e+09
1.25152e+09
1.25231e+09
1.25341e+09
1.25205e+09
1.25104e+09
1.25099e+09
1.25093e+09
1.25083e+09
1.25073e+09
1.25061e+09
1.25051e+09
1.2504e+09
1.25029e+09
1.2502e+09
1.25019e+09
1.25028e+09
1.25057e+09
1.25124e+09
1.25226e+09
1.25105e+09
1.25028e+09
1.25025e+09
1.2502e+09
1.25013e+09
1.25006e+09
1.23789e+09
1.19946e+09
1.15806e+09
1.12578e+09
1.10278e+09
1.11287e+09
1.15589e+09
1.25003e+09
1.25042e+09
1.25123e+09
1.25029e+09
1.10868e+09
1.09589e+09
1.07831e+09
1.05359e+09
1.02696e+09
9.98002e+08
9.72707e+08
9.48303e+08
9.38071e+08
9.39811e+08
9.6983e+08
1.02259e+09
1.11331e+09
1.24757e+09
1.25047e+09
1.11232e+09
8.93187e+08
8.84079e+08
8.72259e+08
8.56883e+08
8.41561e+08
8.23756e+08
8.07373e+08
7.94944e+08
7.99029e+08
8.17214e+08
8.63919e+08
9.29361e+08
1.02818e+09
1.12547e+09
1.25006e+09
8.95969e+08
7.2105e+08
7.14105e+08
7.04959e+08
6.93976e+08
6.84136e+08
6.75583e+08
6.72304e+08
6.75517e+08
6.94194e+08
7.26594e+08
7.81976e+08
8.51105e+08
9.48406e+08
1.04858e+09
1.1683e+09
7.23375e+08
5.78995e+08
5.75634e+08
5.71126e+08
5.67077e+08
5.64865e+08
5.65756e+08
5.72415e+08
5.87473e+08
6.16121e+08
6.57794e+08
7.17283e+08
7.88351e+08
8.78767e+08
9.73194e+08
1.08607e+09
5.80394e+08
4.67189e+08
4.66831e+08
4.65998e+08
4.67669e+08
4.71784e+08
4.81192e+08
4.96792e+08
5.21601e+08
5.57281e+08
6.04436e+08
6.64379e+08
7.33826e+08
8.16604e+08
9.05195e+08
1.00533e+09
4.67839e+08
3.79428e+08
3.82234e+08
3.85239e+08
3.92645e+08
4.02721e+08
4.19415e+08
4.41572e+08
4.72881e+08
5.12284e+08
5.61587e+08
6.19688e+08
6.85713e+08
7.60472e+08
8.40604e+08
9.29287e+08
3.79194e+08
3.12384e+08
3.18055e+08
3.24416e+08
3.36719e+08
3.51589e+08
3.73852e+08
4.00485e+08
4.35702e+08
4.76501e+08
5.2568e+08
5.80553e+08
6.41963e+08
7.08859e+08
7.80369e+08
8.57573e+08
3.11292e+08
2.62048e+08
2.70293e+08
2.79578e+08
2.959e+08
3.14386e+08
3.4045e+08
3.69589e+08
4.06504e+08
4.46943e+08
4.94456e+08
5.45375e+08
6.01643e+08
6.61085e+08
7.24067e+08
7.9091e+08
2.60109e+08
2.25198e+08
2.35527e+08
2.47079e+08
2.66294e+08
2.87116e+08
3.15333e+08
3.4544e+08
3.82482e+08
4.21463e+08
4.66417e+08
5.13106e+08
5.64122e+08
6.16673e+08
6.71771e+08
7.2933e+08
2.22508e+08
1.98904e+08
2.10733e+08
2.23846e+08
2.44839e+08
2.66871e+08
2.95899e+08
3.25842e+08
3.61932e+08
3.98792e+08
4.40706e+08
4.83159e+08
5.29069e+08
5.75361e+08
6.23321e+08
6.72783e+08
1.95614e+08
1.80727e+08
1.9342e+08
2.07379e+08
2.29131e+08
2.51446e+08
2.8027e+08
3.09284e+08
3.43741e+08
3.78137e+08
4.16816e+08
4.55192e+08
4.96287e+08
5.36959e+08
5.78581e+08
6.21028e+08
1.77039e+08
1.68648e+08
1.81603e+08
1.95779e+08
2.17459e+08
2.39361e+08
2.67265e+08
2.94856e+08
3.27275e+08
3.5906e+08
3.94483e+08
4.29023e+08
4.65669e+08
5.01348e+08
5.37416e+08
5.73862e+08
1.64775e+08
1.61046e+08
1.7376e+08
1.87646e+08
2.08626e+08
2.29621e+08
2.56122e+08
2.81993e+08
3.12154e+08
3.41307e+08
3.73554e+08
4.04536e+08
4.37119e+08
4.68384e+08
4.99612e+08
5.30934e+08
1.57183e+08
1.56645e+08
1.68744e+08
1.81971e+08
2.01814e+08
2.21571e+08
2.46364e+08
2.70351e+08
2.98156e+08
3.2473e+08
3.5394e+08
3.81653e+08
4.10557e+08
4.37936e+08
4.6497e+08
4.91939e+08
1.52943e+08
1.54445e+08
1.65687e+08
1.78013e+08
1.96443e+08
2.1476e+08
2.3767e+08
2.59702e+08
2.85137e+08
3.0923e+08
3.35571e+08
3.60296e+08
3.85885e+08
4.09853e+08
4.33264e+08
4.56546e+08
1.51005e+08
1.5367e+08
1.63927e+08
1.75217e+08
1.92086e+08
2.0886e+08
2.2981e+08
2.49881e+08
2.72989e+08
2.94724e+08
3.18381e+08
3.40388e+08
3.63e+08
3.83974e+08
4.04257e+08
4.24415e+08
1.50547e+08
1.53725e+08
1.62951e+08
1.73154e+08
1.88411e+08
2.03615e+08
2.22603e+08
2.40755e+08
2.61617e+08
2.81136e+08
3.023e+08
3.21842e+08
3.41788e+08
3.60139e+08
3.77727e+08
3.95249e+08
1.50938e+08
1.54155e+08
1.62368e+08
1.7149e+08
1.85158e+08
1.98819e+08
2.15894e+08
2.32205e+08
2.50933e+08
2.68386e+08
2.87251e+08
3.04564e+08
3.22127e+08
3.38181e+08
3.53449e+08
3.68744e+08
1.517e+08
1.54624e+08
1.61878e+08
1.69966e+08
1.82116e+08
1.94301e+08
2.09553e+08
2.24126e+08
2.40851e+08
2.56395e+08
2.73151e+08
2.88457e+08
3.03896e+08
3.17942e+08
3.3121e+08
3.44625e+08
1.52481e+08
1.54892e+08
1.61261e+08
1.68385e+08
1.79118e+08
1.89921e+08
2.03467e+08
2.16421e+08
2.31289e+08
2.45083e+08
2.59918e+08
2.73425e+08
2.86975e+08
2.99267e+08
3.10818e+08
3.22655e+08
1.53033e+08
1.54794e+08
1.6036e+08
1.66606e+08
1.7604e+08
1.8557e+08
1.97541e+08
2.09008e+08
2.22169e+08
2.34373e+08
2.47469e+08
2.59369e+08
2.71245e+08
2.82008e+08
2.92077e+08
3.02575e+08
1.53189e+08
1.54225e+08
1.59075e+08
1.6453e+08
1.72789e+08
1.81163e+08
1.917e+08
2.01814e+08
2.13424e+08
2.24193e+08
2.35725e+08
2.462e+08
2.566e+08
2.66038e+08
2.74841e+08
2.84216e+08
1.52843e+08
1.53129e+08
1.57345e+08
1.62096e+08
1.69305e+08
1.76642e+08
1.85885e+08
1.94782e+08
2.04993e+08
2.14479e+08
2.24613e+08
2.33828e+08
2.4293e+08
2.51221e+08
2.58938e+08
2.67366e+08
1.51942e+08
1.51486e+08
1.55144e+08
1.59276e+08
1.65554e+08
1.71969e+08
1.80056e+08
1.87867e+08
1.96827e+08
2.05171e+08
2.14063e+08
2.22171e+08
2.30136e+08
2.37436e+08
2.44224e+08
2.51858e+08
1.50466e+08
1.493e+08
1.52472e+08
1.56062e+08
1.61521e+08
1.67123e+08
1.74186e+08
1.81035e+08
1.88884e+08
1.96222e+08
2.04016e+08
2.11156e+08
2.18129e+08
2.24576e+08
2.30572e+08
2.37543e+08
1.48425e+08
1.46599e+08
1.49349e+08
1.52467e+08
1.57209e+08
1.62099e+08
1.6826e+08
1.74266e+08
1.81134e+08
1.87589e+08
1.94419e+08
2.00717e+08
2.06828e+08
2.12546e+08
2.17866e+08
2.24285e+08
1.45847e+08
1.43422e+08
1.45805e+08
1.48516e+08
1.52634e+08
1.56905e+08
1.62276e+08
1.67546e+08
1.73553e+08
1.79241e+08
1.85229e+08
1.90801e+08
1.96167e+08
2.01265e+08
2.06017e+08
2.11981e+08
1.42774e+08
1.39817e+08
1.41884e+08
1.44244e+08
1.47821e+08
1.51557e+08
1.56238e+08
1.60871e+08
1.66128e+08
1.71152e+08
1.76408e+08
1.81358e+08
1.86085e+08
1.9066e+08
1.94933e+08
2.00522e+08
1.39258e+08
1.35839e+08
1.37634e+08
1.39692e+08
1.42801e+08
1.46076e+08
1.5016e+08
1.54242e+08
1.58848e+08
1.63302e+08
1.67927e+08
1.72346e+08
1.76528e+08
1.80666e+08
1.8454e+08
1.89825e+08
1.35356e+08
1.31547e+08
1.33108e+08
1.34908e+08
1.37612e+08
1.40491e+08
1.44057e+08
1.47667e+08
1.51708e+08
1.55676e+08
1.59758e+08
1.6373e+08
1.67451e+08
1.71228e+08
1.74774e+08
1.79817e+08
1.31128e+08
1.27002e+08
1.28359e+08
1.29938e+08
1.32293e+08
1.34832e+08
1.37949e+08
1.41155e+08
1.4471e+08
1.48263e+08
1.5188e+08
1.55478e+08
1.58812e+08
1.62294e+08
1.65573e+08
1.70428e+08
1.26636e+08
1.22263e+08
1.23446e+08
1.24835e+08
1.26886e+08
1.29133e+08
1.31862e+08
1.34722e+08
1.37856e+08
1.41058e+08
1.44278e+08
1.47566e+08
1.50577e+08
1.53824e+08
1.56892e+08
1.61605e+08
1.21944e+08
1.17395e+08
1.18425e+08
1.1965e+08
1.21437e+08
1.23431e+08
1.25822e+08
1.28383e+08
1.31152e+08
1.34057e+08
1.36938e+08
1.39969e+08
1.42714e+08
1.45777e+08
1.48683e+08
1.533e+08
1.17116e+08
1.1246e+08
1.13356e+08
1.14437e+08
1.15992e+08
1.17764e+08
1.19857e+08
1.22159e+08
1.24609e+08
1.27259e+08
1.2985e+08
1.32669e+08
1.35198e+08
1.3812e+08
1.40909e+08
1.45469e+08
1.12215e+08
1.07522e+08
1.08298e+08
1.0925e+08
1.10599e+08
1.12173e+08
1.14001e+08
1.16073e+08
1.1824e+08
1.20667e+08
1.23006e+08
1.25651e+08
1.28005e+08
1.30828e+08
1.33541e+08
1.38083e+08
1.07307e+08
1.02647e+08
1.03314e+08
1.04148e+08
1.05309e+08
1.06702e+08
1.08289e+08
1.10149e+08
1.1206e+08
1.14289e+08
1.16404e+08
1.18901e+08
1.21113e+08
1.2387e+08
1.26548e+08
1.31107e+08
1.02459e+08
9.78996e+07
9.84677e+07
9.91904e+07
1.00178e+08
1.01398e+08
1.0276e+08
1.0442e+08
1.06091e+08
1.08132e+08
1.10042e+08
1.12409e+08
1.14504e+08
1.17221e+08
1.19902e+08
1.24516e+08
9.77376e+07
9.33496e+07
9.38243e+07
9.44387e+07
9.52628e+07
9.6313e+07
9.74612e+07
9.89205e+07
1.0036e+08
1.02213e+08
1.03924e+08
1.06164e+08
1.08158e+08
1.10851e+08
1.13569e+08
1.18275e+08
9.32127e+07
8.90661e+07
8.94522e+07
8.99588e+07
9.06263e+07
9.15045e+07
9.24439e+07
9.36952e+07
9.49029e+07
9.65549e+07
9.80618e+07
1.00165e+08
1.02057e+08
1.04734e+08
1.07521e+08
1.12358e+08
8.89542e+07
8.51192e+07
8.54208e+07
8.58185e+07
8.63351e+07
8.70355e+07
8.77686e+07
8.8797e+07
8.97671e+07
9.11922e+07
9.24786e+07
9.44165e+07
9.61933e+07
9.88438e+07
1.01726e+08
1.06735e+08
8.50323e+07
8.15777e+07
8.17995e+07
8.20871e+07
8.2459e+07
8.2975e+07
8.35043e+07
8.42908e+07
8.50142e+07
8.61758e+07
8.72145e+07
8.89387e+07
9.05656e+07
9.31589e+07
9.61486e+07
1.01364e+08
8.15161e+07
7.85075e+07
7.86554e+07
7.88335e+07
7.90698e+07
7.93971e+07
7.97288e+07
8.02548e+07
8.07242e+07
8.1578e+07
8.23349e+07
8.37752e+07
8.51941e+07
8.76701e+07
9.07596e+07
9.61971e+07
7.84708e+07
7.59681e+07
7.60504e+07
7.6123e+07
7.62377e+07
7.63778e+07
7.65261e+07
7.67797e+07
7.69963e+07
7.74981e+07
7.79385e+07
7.90017e+07
8.01242e+07
8.23764e+07
8.55123e+07
9.11668e+07
7.59552e+07
7.40076e+07
7.40351e+07
7.40113e+07
7.40242e+07
7.39885e+07
7.39785e+07
7.3963e+07
7.39455e+07
7.40653e+07
7.41673e+07
7.47447e+07
7.54492e+07
7.72855e+07
8.0305e+07
8.61448e+07
7.40163e+07
7.26519e+07
7.26375e+07
7.25307e+07
7.24673e+07
7.22778e+07
7.2148e+07
7.18885e+07
7.16826e+07
7.14276e+07
7.12149e+07
7.12277e+07
7.14116e+07
7.25548e+07
7.51248e+07
8.09811e+07
7.26789e+07
7.19009e+07
7.18604e+07
7.16889e+07
7.15818e+07
7.12712e+07
7.10754e+07
7.06212e+07
7.031e+07
6.9746e+07
6.93333e+07
6.88278e+07
6.85635e+07
6.88451e+07
7.05991e+07
7.5924e+07
7.19418e+07
7.19797e+07
7.19257e+07
7.1707e+07
7.15818e+07
7.1182e+07
7.09632e+07
7.03655e+07
7.00182e+07
6.9227e+07
6.87291e+07
6.7828e+07
6.72714e+07
6.67005e+07
6.72407e+07
7.0571e+07
7.20306e+07
7.23362e+07
7.22786e+07
7.20413e+07
7.19131e+07
7.14777e+07
7.12563e+07
7.05997e+07
7.02463e+07
6.93583e+07
6.88331e+07
6.77543e+07
6.70722e+07
6.607e+07
6.59357e+07
6.75725e+07
7.2391e+07
)
;

boundaryField
{
    wireUpstream
    {
        type            calculated;
        value           nonuniform List<scalar> 
16
(
7.27641e+07
7.27093e+07
7.2457e+07
7.23399e+07
7.18729e+07
7.1672e+07
7.09599e+07
7.06323e+07
6.9647e+07
6.91323e+07
6.78654e+07
6.70954e+07
6.56644e+07
6.49061e+07
6.43703e+07
7.28216e+07
)
;
    }
    wireDownstream
    {
        type            calculated;
        value           nonuniform List<scalar> 
16
(
5.36617e+08
5.13373e+08
4.88911e+08
4.53937e+08
4.19254e+08
3.73291e+08
3.17623e+08
2.46606e+08
1.89633e+08
1.9689e+08
2.91018e+08
5.17438e+08
7.73797e+08
1.01481e+09
1.10262e+09
5.38374e+08
)
;
    }
    wireTopContact
    {
        type            calculated;
        value           nonuniform List<scalar> 
122
(
1.11173e+09
1.11012e+09
1.11002e+09
1.10942e+09
1.10925e+09
1.10917e+09
1.10933e+09
1.10967e+09
1.11022e+09
1.11093e+09
1.11179e+09
1.11279e+09
1.11392e+09
1.11518e+09
1.11654e+09
1.11802e+09
1.11961e+09
1.1213e+09
1.12313e+09
1.12508e+09
1.12716e+09
1.12941e+09
1.13181e+09
1.13444e+09
1.13729e+09
1.14043e+09
1.14384e+09
1.14761e+09
1.15174e+09
1.15631e+09
1.16132e+09
1.16683e+09
1.17283e+09
1.17936e+09
1.18639e+09
1.19387e+09
1.20171e+09
1.20978e+09
1.21782e+09
1.22553e+09
1.23229e+09
1.2373e+09
1.23949e+09
1.23674e+09
1.22776e+09
1.22763e+09
1.25447e+09
1.27157e+09
1.27692e+09
1.2769e+09
1.27679e+09
1.2765e+09
1.27598e+09
1.27522e+09
1.27429e+09
1.27321e+09
1.272e+09
1.27072e+09
1.26939e+09
1.26802e+09
1.26661e+09
1.26518e+09
1.26374e+09
1.26231e+09
1.2609e+09
1.25954e+09
1.25822e+09
1.25696e+09
1.25575e+09
1.25458e+09
1.25341e+09
1.25227e+09
1.25125e+09
1.25048e+09
1.25006e+09
1.16803e+09
1.08689e+09
1.00615e+09
9.30014e+08
8.58178e+08
7.9142e+08
7.29777e+08
6.73191e+08
6.21403e+08
5.74224e+08
5.31281e+08
4.92275e+08
4.56871e+08
4.24726e+08
3.95543e+08
3.6902e+08
3.44877e+08
3.22886e+08
3.02778e+08
2.84396e+08
2.67519e+08
2.51984e+08
2.37643e+08
2.24358e+08
2.12028e+08
2.00545e+08
1.89824e+08
1.79793e+08
1.70381e+08
1.61537e+08
1.53211e+08
1.45358e+08
1.37954e+08
1.30958e+08
1.2435e+08
1.18093e+08
1.12163e+08
1.06532e+08
1.01164e+08
9.60137e+07
9.10199e+07
8.60824e+07
8.11023e+07
7.63549e+07
7.12987e+07
6.83188e+07
1.10498e+09
)
;
    }
    front
    {
        type            wedge;
    }
    back
    {
        type            wedge;
    }
}


// ************************************************************************* //
