/*--------------------------------*- C++ -*----------------------------------*\
| =========                 |                                                 |
| \\      /  F ield         | foam-extend: Open Source CFD                    |
|  \\    /   O peration     | Version:     4.1-20200408                       |
|   \\  /    A nd           | Web:         http://www.foam-extend.org         |
|    \\/     M anipulation  |                                                 |
\*---------------------------------------------------------------------------*/
FoamFile
{
    version     2.0;
    format      ascii;
    class       volScalarField;
    location    "0.0145000";
    object      ccx;
}
// * * * * * * * * * * * * * * * * * * * * * * * * * * * * * * * * * * * * * //

dimensions      [0 1 0 0 0 0 0];

internalField   nonuniform List<scalar> 
1952
(
0.00297268
0.00297267
0.00297267
0.00297266
0.00297265
0.00297264
0.00297263
0.00297261
0.0029726
0.00297258
0.00297256
0.00297254
0.00297251
0.00297249
0.00297246
0.00297268
0.00292034
0.00292033
0.00292032
0.00292031
0.00292029
0.00292027
0.00292024
0.00292021
0.00292018
0.00292014
0.0029201
0.00292006
0.00292001
0.00291996
0.00291991
0.00292034
0.00287031
0.0028703
0.00287029
0.00287027
0.00287025
0.00287024
0.00287021
0.00287018
0.00287015
0.00287011
0.00287007
0.00287003
0.00286999
0.00286994
0.0028699
0.00287032
0.00282028
0.00282027
0.00282026
0.00282024
0.00282023
0.0028202
0.00282018
0.00282015
0.00282012
0.00282008
0.00282004
0.00282
0.00281996
0.00281992
0.00281988
0.00282029
0.00277025
0.00277024
0.00277023
0.00277021
0.00277019
0.00277017
0.00277015
0.00277012
0.00277009
0.00277005
0.00277002
0.00276998
0.00276994
0.0027699
0.00276986
0.00277026
0.00272022
0.00272021
0.0027202
0.00272019
0.00272017
0.00272015
0.00272012
0.00272009
0.00272006
0.00272003
0.00271999
0.00271996
0.00271992
0.00271988
0.00271984
0.00272023
0.00267019
0.00267018
0.00267017
0.00267016
0.00267014
0.00267012
0.00267009
0.00267007
0.00267004
0.00267
0.00266997
0.00266993
0.0026699
0.00266986
0.00266983
0.0026702
0.00262016
0.00262015
0.00262014
0.00262013
0.00262011
0.00262009
0.00262007
0.00262004
0.00262001
0.00261998
0.00261994
0.00261991
0.00261987
0.00261984
0.00261981
0.00262017
0.00257014
0.00257013
0.00257012
0.0025701
0.00257008
0.00257006
0.00257004
0.00257001
0.00256998
0.00256995
0.00256992
0.00256989
0.00256985
0.00256982
0.0025698
0.00257014
0.00252011
0.0025201
0.00252009
0.00252008
0.00252006
0.00252004
0.00252002
0.00251999
0.00251996
0.00251993
0.0025199
0.00251986
0.00251983
0.00251981
0.00251978
0.00252011
0.00247008
0.00247007
0.00247006
0.00247005
0.00247004
0.00247002
0.00246999
0.00246997
0.00246994
0.00246991
0.00246988
0.00246985
0.00246982
0.00246979
0.00246977
0.00247009
0.00242006
0.00242005
0.00242004
0.00242003
0.00242001
0.00242
0.00241997
0.00241995
0.00241992
0.00241989
0.00241986
0.00241983
0.0024198
0.00241978
0.00241975
0.00242006
0.00237004
0.00237003
0.00237002
0.00237001
0.00236999
0.00236998
0.00236995
0.00236993
0.0023699
0.00236987
0.00236984
0.00236982
0.00236979
0.00236976
0.00236974
0.00237004
0.00232002
0.00232001
0.00232
0.00231999
0.00231998
0.00231996
0.00231994
0.00231991
0.00231988
0.00231986
0.00231983
0.0023198
0.00231977
0.00231975
0.00231972
0.00232002
0.00227
0.00226999
0.00226998
0.00226997
0.00226996
0.00226994
0.00226992
0.0022699
0.00226987
0.00226984
0.00226982
0.00226979
0.00226976
0.00226973
0.00226971
0.00227001
0.00221999
0.00221998
0.00221997
0.00221996
0.00221994
0.00221992
0.0022199
0.00221988
0.00221986
0.00221983
0.0022198
0.00221978
0.00221975
0.00221972
0.0022197
0.00221999
0.00216997
0.00216997
0.00216996
0.00216995
0.00216993
0.00216991
0.00216989
0.00216987
0.00216984
0.00216982
0.00216979
0.00216976
0.00216974
0.00216971
0.00216969
0.00216997
0.00211996
0.00211996
0.00211995
0.00211993
0.00211992
0.0021199
0.00211988
0.00211986
0.00211983
0.00211981
0.00211978
0.00211975
0.00211973
0.0021197
0.00211968
0.00211996
0.00206995
0.00206995
0.00206994
0.00206992
0.00206991
0.00206989
0.00206987
0.00206985
0.00206982
0.0020698
0.00206977
0.00206975
0.00206972
0.00206969
0.00206967
0.00206995
0.00201994
0.00201994
0.00201993
0.00201992
0.0020199
0.00201988
0.00201986
0.00201984
0.00201982
0.00201979
0.00201977
0.00201974
0.00201971
0.00201969
0.00201966
0.00201994
0.00196994
0.00196993
0.00196992
0.00196991
0.0019699
0.00196988
0.00196986
0.00196984
0.00196981
0.00196979
0.00196976
0.00196973
0.00196971
0.00196968
0.00196966
0.00196994
0.00191993
0.00191993
0.00191992
0.0019199
0.00191989
0.00191987
0.00191985
0.00191983
0.00191981
0.00191978
0.00191975
0.00191973
0.0019197
0.00191968
0.00191965
0.00191994
0.00186993
0.00186992
0.00186991
0.0018699
0.00186989
0.00186987
0.00186985
0.00186983
0.0018698
0.00186978
0.00186975
0.00186972
0.0018697
0.00186967
0.00186965
0.00186993
0.00181993
0.00181992
0.00181991
0.0018199
0.00181989
0.00181987
0.00181985
0.00181983
0.0018198
0.00181977
0.00181975
0.00181972
0.00181969
0.00181967
0.00181965
0.00181993
0.00176993
0.00176992
0.00176991
0.0017699
0.00176989
0.00176987
0.00176985
0.00176983
0.0017698
0.00176977
0.00176974
0.00176972
0.00176969
0.00176967
0.00176965
0.00176994
0.00171993
0.00171993
0.00171992
0.00171991
0.00171989
0.00171987
0.00171985
0.00171983
0.0017198
0.00171977
0.00171975
0.00171972
0.00171969
0.00171967
0.00171965
0.00171994
0.00166994
0.00166993
0.00166992
0.00166991
0.00166989
0.00166987
0.00166985
0.00166983
0.0016698
0.00166978
0.00166975
0.00166972
0.0016697
0.00166967
0.00166965
0.00166994
0.00161995
0.00161994
0.00161993
0.00161992
0.0016199
0.00161988
0.00161986
0.00161984
0.00161981
0.00161978
0.00161975
0.00161972
0.0016197
0.00161967
0.00161965
0.00161995
0.00156996
0.00156995
0.00156994
0.00156992
0.00156991
0.00156989
0.00156987
0.00156984
0.00156982
0.00156979
0.00156976
0.00156973
0.0015697
0.00156968
0.00156965
0.00156996
0.00151997
0.00151996
0.00151995
0.00151994
0.00151992
0.0015199
0.00151987
0.00151985
0.00151982
0.00151979
0.00151976
0.00151974
0.00151971
0.00151968
0.00151966
0.00151997
0.00146998
0.00146997
0.00146996
0.00146995
0.00146993
0.00146991
0.00146989
0.00146986
0.00146983
0.0014698
0.00146977
0.00146974
0.00146972
0.00146969
0.00146966
0.00146999
0.00142
0.00141999
0.00141998
0.00141997
0.00141995
0.00141993
0.0014199
0.00141987
0.00141984
0.00141981
0.00141978
0.00141975
0.00141972
0.0014197
0.00141967
0.00142001
0.00137002
0.00137001
0.00137
0.00136998
0.00136997
0.00136994
0.00136991
0.00136989
0.00136986
0.00136982
0.00136979
0.00136976
0.00136973
0.0013697
0.00136968
0.00137003
0.00132004
0.00132003
0.00132002
0.00132001
0.00131998
0.00131996
0.00131993
0.0013199
0.00131987
0.00131984
0.0013198
0.00131977
0.00131974
0.00131971
0.00131969
0.00132005
0.00127007
0.00127006
0.00127005
0.00127003
0.00127001
0.00126998
0.00126995
0.00126992
0.00126989
0.00126985
0.00126982
0.00126978
0.00126975
0.00126972
0.00126969
0.00127007
0.0012201
0.00122009
0.00122007
0.00122005
0.00122003
0.00122
0.00121997
0.00121994
0.0012199
0.00121987
0.00121983
0.00121979
0.00121976
0.00121973
0.0012197
0.0012201
0.00117013
0.00117012
0.0011701
0.00117008
0.00117006
0.00117003
0.00117
0.00116996
0.00116993
0.00116989
0.00116985
0.00116981
0.00116977
0.00116974
0.00116971
0.00117014
0.00112016
0.00112015
0.00112014
0.00112012
0.00112009
0.00112006
0.00112003
0.00111999
0.00111995
0.00111991
0.00111986
0.00111982
0.00111978
0.00111975
0.00111972
0.00112017
0.0010702
0.00107019
0.00107018
0.00107015
0.00107012
0.00107009
0.00107005
0.00107001
0.00106997
0.00106992
0.00106988
0.00106984
0.0010698
0.00106976
0.00106973
0.00107021
0.00102025
0.00102024
0.00102022
0.00102019
0.00102016
0.00102013
0.00102009
0.00102005
0.00102
0.00101995
0.0010199
0.00101985
0.00101981
0.00101977
0.00101974
0.00102025
0.000970291
0.000970279
0.00097026
0.000970235
0.000970204
0.000970167
0.000970124
0.000970078
0.000970027
0.000969975
0.000969922
0.000969871
0.000969823
0.00096978
0.000969743
0.000970298
0.000920339
0.000920325
0.000920305
0.000920279
0.000920246
0.000920207
0.000920162
0.000920112
0.000920058
0.000920001
0.000919944
0.000919888
0.000919835
0.000919788
0.000919747
0.000920346
0.000870388
0.000870374
0.000870353
0.000870325
0.000870291
0.000870249
0.000870202
0.000870149
0.000870091
0.000870029
0.000869967
0.000869906
0.000869847
0.000869794
0.000869748
0.000870395
0.000820438
0.000820424
0.000820402
0.000820373
0.000820337
0.000820294
0.000820244
0.000820187
0.000820125
0.000820059
0.000819992
0.000819924
0.000819859
0.000819799
0.000819746
0.000820446
0.000770489
0.000770474
0.000770451
0.000770422
0.000770384
0.000770339
0.000770287
0.000770228
0.000770162
0.000770091
0.000770017
0.000769943
0.00076987
0.000769803
0.000769742
0.000770496
0.000720538
0.000720523
0.0007205
0.00072047
0.000720431
0.000720385
0.00072033
0.000720268
0.000720199
0.000720124
0.000720044
0.000719962
0.000719881
0.000719804
0.000719733
0.000720546
0.000670584
0.000670569
0.000670546
0.000670516
0.000670477
0.00067043
0.000670374
0.000670309
0.000670237
0.000670157
0.000670071
0.000669982
0.000669892
0.000669804
0.00066972
0.000670591
0.000620625
0.00062061
0.000620587
0.000620557
0.000620518
0.000620471
0.000620415
0.000620349
0.000620275
0.000620191
0.0006201
0.000620003
0.000619902
0.000619801
0.000619703
0.000620632
0.000570658
0.000570643
0.000570622
0.000570592
0.000570554
0.000570508
0.000570452
0.000570386
0.00057031
0.000570224
0.000570128
0.000570024
0.000569912
0.000569797
0.000569681
0.000570665
0.000520681
0.000520667
0.000520646
0.000520618
0.000520582
0.000520537
0.000520482
0.000520417
0.000520341
0.000520253
0.000520154
0.000520044
0.000519923
0.000519792
0.000519654
0.000520688
0.00047069
0.000470678
0.000470658
0.000470632
0.000470598
0.000470555
0.000470502
0.000470439
0.000470364
0.000470277
0.000470177
0.000470061
0.000469932
0.000469785
0.000469622
0.000470697
0.000420684
0.000420673
0.000420655
0.00042063
0.000420599
0.000420559
0.000420509
0.000420449
0.000420377
0.000420292
0.000420191
0.000420073
0.000419936
0.000419776
0.000419588
0.00042069
0.00037066
0.00037065
0.000370633
0.000370611
0.000370582
0.000370545
0.000370499
0.000370443
0.000370375
0.000370293
0.000370194
0.000370076
0.000369934
0.000369762
0.000369552
0.000370665
0.000320615
0.000320606
0.000320591
0.000320571
0.000320545
0.000320511
0.00032047
0.000320418
0.000320355
0.000320277
0.000320182
0.000320066
0.000319923
0.000319743
0.000319515
0.00032062
0.000270549
0.00027054
0.000270527
0.000270509
0.000270485
0.000270455
0.000270417
0.00027037
0.000270312
0.00027024
0.000270151
0.00027004
0.000269899
0.000269717
0.000269479
0.000270553
0.00022046
0.000220452
0.00022044
0.000220424
0.000220402
0.000220374
0.00022034
0.000220297
0.000220244
0.000220178
0.000220097
0.000219994
0.00021986
0.000219684
0.000219445
0.000220464
0.00017035
0.000170342
0.000170331
0.000170315
0.000170295
0.000170269
0.000170237
0.000170198
0.00017015
0.000170091
0.000170017
0.000169924
0.000169804
0.000169641
0.000169415
0.000170354
0.000120219
0.000120212
0.000120201
0.000120185
0.000120166
0.000120141
0.000120111
0.000120074
0.00012003
0.000119977
0.000119912
0.000119831
0.000119728
0.000119588
0.000119389
0.000120223
7.00714e-05
7.00638e-05
7.00524e-05
7.00371e-05
7.00174e-05
6.9993e-05
6.99635e-05
6.99284e-05
6.98868e-05
6.98385e-05
6.97821e-05
6.97147e-05
6.96319e-05
6.95239e-05
6.93698e-05
7.00752e-05
1.99098e-05
1.9902e-05
1.98901e-05
1.98742e-05
1.98541e-05
1.98295e-05
1.98002e-05
1.97657e-05
1.97263e-05
1.96816e-05
1.96329e-05
1.95781e-05
1.95178e-05
1.94478e-05
1.93545e-05
1.99138e-05
-3.02611e-05
-3.02693e-05
-3.02818e-05
-3.02983e-05
-3.0319e-05
-3.03441e-05
-3.03733e-05
-3.04071e-05
-3.04449e-05
-3.04854e-05
-3.05267e-05
-3.05667e-05
-3.06014e-05
-3.06297e-05
-3.06568e-05
-3.02568e-05
-8.04368e-05
-8.04454e-05
-8.04581e-05
-8.04754e-05
-8.04968e-05
-8.05218e-05
-8.05507e-05
-8.05826e-05
-8.0617e-05
-8.06506e-05
-8.06801e-05
-8.07004e-05
-8.07053e-05
-8.06942e-05
-8.06659e-05
-8.04325e-05
-0.000130612
-0.000130621
-0.000130634
-0.000130651
-0.000130672
-0.000130696
-0.000130723
-0.00013075
-0.000130777
-0.000130798
-0.00013081
-0.000130807
-0.000130785
-0.000130744
-0.000130679
-0.000130608
-0.00018078
-0.000180788
-0.000180801
-0.000180817
-0.000180835
-0.000180856
-0.000180877
-0.000180895
-0.000180909
-0.000180915
-0.000180908
-0.000180885
-0.000180845
-0.000180785
-0.000180696
-0.000180776
-0.000230932
-0.000230939
-0.000230949
-0.000230961
-0.000230975
-0.000230989
-0.000231001
-0.000231008
-0.000231009
-0.000231
-0.00023098
-0.000230945
-0.000230894
-0.00023082
-0.000230716
-0.000230928
-0.000281057
-0.000281062
-0.000281069
-0.000281076
-0.000281084
-0.00028109
-0.000281093
-0.000281091
-0.000281082
-0.000281065
-0.000281036
-0.000280993
-0.000280932
-0.00028085
-0.000280737
-0.000281055
-0.000331155
-0.000331157
-0.000331161
-0.000331164
-0.000331166
-0.000331166
-0.000331163
-0.000331154
-0.000331138
-0.000331114
-0.000331078
-0.000331028
-0.000330962
-0.000330873
-0.000330756
-0.000331153
-0.000381229
-0.00038123
-0.00038123
-0.00038123
-0.000381228
-0.000381223
-0.000381215
-0.000381201
-0.00038118
-0.00038115
-0.000381108
-0.000381053
-0.000380982
-0.00038089
-0.000380773
-0.000381228
-0.000431285
-0.000431284
-0.000431282
-0.000431279
-0.000431274
-0.000431265
-0.000431252
-0.000431234
-0.000431207
-0.000431173
-0.000431127
-0.000431068
-0.000430993
-0.0004309
-0.000430785
-0.000431285
-0.000481324
-0.000481322
-0.000481318
-0.000481312
-0.000481304
-0.000481292
-0.000481275
-0.000481252
-0.000481222
-0.000481183
-0.000481134
-0.000481073
-0.000480997
-0.000480905
-0.000480794
-0.000481325
-0.000531346
-0.000531343
-0.000531337
-0.000531329
-0.000531318
-0.000531303
-0.000531283
-0.000531257
-0.000531224
-0.000531182
-0.000531131
-0.000531069
-0.000530993
-0.000530903
-0.000530797
-0.000531348
-0.000581353
-0.000581349
-0.000581342
-0.000581332
-0.000581319
-0.000581301
-0.000581278
-0.00058125
-0.000581215
-0.000581171
-0.000581119
-0.000581056
-0.000580982
-0.000580896
-0.000580795
-0.000581355
-0.000631346
-0.000631341
-0.000631333
-0.000631321
-0.000631306
-0.000631287
-0.000631262
-0.000631232
-0.000631195
-0.000631151
-0.000631098
-0.000631036
-0.000630964
-0.000630882
-0.000630786
-0.000631349
-0.000681326
-0.00068132
-0.000681311
-0.000681298
-0.000681282
-0.000681261
-0.000681235
-0.000681204
-0.000681166
-0.000681121
-0.000681069
-0.000681009
-0.00068094
-0.000680861
-0.000680772
-0.000681329
-0.000731293
-0.000731287
-0.000731277
-0.000731264
-0.000731246
-0.000731225
-0.000731198
-0.000731166
-0.000731128
-0.000731084
-0.000731033
-0.000730974
-0.000730908
-0.000730834
-0.000730751
-0.000731297
-0.000781251
-0.000781244
-0.000781233
-0.00078122
-0.000781201
-0.000781179
-0.000781152
-0.00078112
-0.000781083
-0.000781039
-0.000780989
-0.000780933
-0.000780871
-0.000780801
-0.000780724
-0.000781254
-0.000831197
-0.000831191
-0.00083118
-0.000831166
-0.000831148
-0.000831125
-0.000831098
-0.000831066
-0.00083103
-0.000830987
-0.00083094
-0.000830886
-0.000830827
-0.000830762
-0.00083069
-0.000831201
-0.000881136
-0.000881129
-0.000881118
-0.000881104
-0.000881086
-0.000881064
-0.000881037
-0.000881006
-0.00088097
-0.000880929
-0.000880884
-0.000880833
-0.000880777
-0.000880717
-0.00088065
-0.00088114
-0.000931067
-0.00093106
-0.000931049
-0.000931035
-0.000931017
-0.000930995
-0.000930969
-0.000930939
-0.000930905
-0.000930866
-0.000930822
-0.000930775
-0.000930722
-0.000930666
-0.000930604
-0.000931071
-0.000980991
-0.000980985
-0.000980974
-0.00098096
-0.000980941
-0.00098092
-0.000980894
-0.000980865
-0.000980833
-0.000980796
-0.000980756
-0.00098071
-0.000980662
-0.00098061
-0.000980553
-0.000980994
-0.00103091
-0.0010309
-0.00103089
-0.00103088
-0.00103086
-0.00103084
-0.00103082
-0.00103079
-0.00103076
-0.00103072
-0.00103069
-0.00103064
-0.0010306
-0.00103055
-0.0010305
-0.00103091
-0.00108082
-0.00108081
-0.0010808
-0.00108079
-0.00108078
-0.00108076
-0.00108073
-0.00108071
-0.00108068
-0.00108064
-0.00108061
-0.00108057
-0.00108053
-0.00108048
-0.00108043
-0.00108083
-0.00113073
-0.00113072
-0.00113071
-0.0011307
-0.00113069
-0.00113067
-0.00113065
-0.00113062
-0.00113059
-0.00113056
-0.00113053
-0.00113049
-0.00113045
-0.00113041
-0.00113036
-0.00113073
-0.00118063
-0.00118063
-0.00118062
-0.00118061
-0.00118059
-0.00118057
-0.00118055
-0.00118053
-0.0011805
-0.00118047
-0.00118044
-0.00118041
-0.00118037
-0.00118033
-0.00118029
-0.00118063
-0.00123053
-0.00123052
-0.00123052
-0.00123051
-0.00123049
-0.00123047
-0.00123045
-0.00123043
-0.00123041
-0.00123038
-0.00123035
-0.00123032
-0.00123028
-0.00123025
-0.00123021
-0.00123053
-0.00128042
-0.00128042
-0.00128041
-0.0012804
-0.00128039
-0.00128037
-0.00128035
-0.00128033
-0.00128031
-0.00128029
-0.00128026
-0.00128023
-0.00128019
-0.00128016
-0.00128013
-0.00128043
-0.00133032
-0.00133031
-0.0013303
-0.00133029
-0.00133028
-0.00133027
-0.00133025
-0.00133023
-0.00133021
-0.00133018
-0.00133016
-0.00133013
-0.0013301
-0.00133007
-0.00133004
-0.00133032
-0.0013802
-0.0013802
-0.00138019
-0.00138018
-0.00138017
-0.00138016
-0.00138014
-0.00138013
-0.0013801
-0.00138008
-0.00138006
-0.00138003
-0.00138001
-0.00137998
-0.00137995
-0.00138021
-0.00143009
-0.00143008
-0.00143008
-0.00143007
-0.00143006
-0.00143004
-0.00143003
-0.00143002
-0.00143
-0.00142998
-0.00142995
-0.00142993
-0.0014299
-0.00142988
-0.00142985
-0.00143009
-0.00147997
-0.00147997
-0.00147996
-0.00147996
-0.00147994
-0.00147993
-0.00147992
-0.0014799
-0.00147989
-0.00147987
-0.00147985
-0.00147982
-0.0014798
-0.00147977
-0.00147975
-0.00147997
-0.00152985
-0.00152985
-0.00152984
-0.00152984
-0.00152983
-0.00152982
-0.0015298
-0.00152979
-0.00152977
-0.00152975
-0.00152974
-0.00152972
-0.00152969
-0.00152967
-0.00152964
-0.00152985
-0.00157973
-0.00157972
-0.00157972
-0.00157971
-0.00157971
-0.0015797
-0.00157968
-0.00157967
-0.00157965
-0.00157964
-0.00157962
-0.0015796
-0.00157958
-0.00157956
-0.00157954
-0.00157973
-0.0016296
-0.0016296
-0.00162959
-0.00162959
-0.00162958
-0.00162957
-0.00162956
-0.00162955
-0.00162954
-0.00162952
-0.0016295
-0.00162948
-0.00162947
-0.00162945
-0.00162943
-0.00162961
-0.00167948
-0.00167947
-0.00167947
-0.00167946
-0.00167946
-0.00167945
-0.00167944
-0.00167943
-0.00167941
-0.0016794
-0.00167938
-0.00167937
-0.00167935
-0.00167933
-0.00167931
-0.00167948
-0.00172935
-0.00172935
-0.00172934
-0.00172934
-0.00172933
-0.00172932
-0.00172931
-0.0017293
-0.00172929
-0.00172927
-0.00172926
-0.00172925
-0.00172923
-0.00172921
-0.00172919
-0.00172935
-0.00177922
-0.00177921
-0.00177921
-0.0017792
-0.0017792
-0.00177919
-0.00177918
-0.00177917
-0.00177916
-0.00177915
-0.00177914
-0.00177912
-0.00177911
-0.00177909
-0.00177907
-0.00177922
-0.00182908
-0.00182908
-0.00182908
-0.00182907
-0.00182906
-0.00182906
-0.00182905
-0.00182904
-0.00182903
-0.00182902
-0.00182901
-0.001829
-0.00182898
-0.00182897
-0.00182895
-0.00182908
-0.00187895
-0.00187894
-0.00187894
-0.00187894
-0.00187893
-0.00187892
-0.00187892
-0.00187891
-0.0018789
-0.00187889
-0.00187888
-0.00187887
-0.00187885
-0.00187884
-0.00187882
-0.00187895
-0.00192881
-0.0019288
-0.0019288
-0.0019288
-0.00192879
-0.00192879
-0.00192878
-0.00192877
-0.00192877
-0.00192876
-0.00192875
-0.00192873
-0.00192872
-0.00192871
-0.00192869
-0.00192881
-0.00197867
-0.00197866
-0.00197866
-0.00197866
-0.00197866
-0.00197865
-0.00197865
-0.00197864
-0.00197863
-0.00197862
-0.00197861
-0.0019786
-0.00197859
-0.00197857
-0.00197856
-0.00197867
-0.00202853
-0.00202852
-0.00202852
-0.00202852
-0.00202851
-0.00202851
-0.0020285
-0.0020285
-0.00202849
-0.00202848
-0.00202848
-0.00202847
-0.00202845
-0.00202844
-0.00202842
-0.00202853
-0.00207838
-0.00207838
-0.00207838
-0.00207837
-0.00207837
-0.00207836
-0.00207836
-0.00207836
-0.00207835
-0.00207834
-0.00207833
-0.00207833
-0.00207832
-0.0020783
-0.00207829
-0.00207838
-0.00212824
-0.00212823
-0.00212823
-0.00212823
-0.00212822
-0.00212822
-0.00212822
-0.00212821
-0.0021282
-0.0021282
-0.00212819
-0.00212818
-0.00212817
-0.00212816
-0.00212815
-0.00212824
-0.00217809
-0.00217809
-0.00217808
-0.00217808
-0.00217808
-0.00217807
-0.00217807
-0.00217806
-0.00217806
-0.00217805
-0.00217804
-0.00217804
-0.00217803
-0.00217802
-0.00217801
-0.00217809
-0.00222794
-0.00222794
-0.00222793
-0.00222793
-0.00222793
-0.00222793
-0.00222792
-0.00222792
-0.00222791
-0.0022279
-0.0022279
-0.00222789
-0.00222788
-0.00222787
-0.00222786
-0.00222794
-0.00227778
-0.00227778
-0.00227778
-0.00227778
-0.00227778
-0.00227777
-0.00227777
-0.00227777
-0.00227776
-0.00227776
-0.00227775
-0.00227774
-0.00227773
-0.00227773
-0.00227771
-0.00227778
-0.00232763
-0.00232763
-0.00232762
-0.00232762
-0.00232762
-0.00232762
-0.00232762
-0.00232761
-0.00232761
-0.0023276
-0.0023276
-0.00232759
-0.00232758
-0.00232758
-0.00232757
-0.00232763
-0.00237747
-0.00237747
-0.00237747
-0.00237747
-0.00237746
-0.00237746
-0.00237746
-0.00237746
-0.00237745
-0.00237745
-0.00237744
-0.00237744
-0.00237743
-0.00237742
-0.00237741
-0.00237747
-0.00242731
-0.00242731
-0.00242731
-0.00242731
-0.00242731
-0.0024273
-0.0024273
-0.0024273
-0.0024273
-0.00242729
-0.00242729
-0.00242728
-0.00242728
-0.00242727
-0.00242726
-0.00242731
-0.00247715
-0.00247715
-0.00247715
-0.00247715
-0.00247714
-0.00247714
-0.00247714
-0.00247714
-0.00247714
-0.00247713
-0.00247713
-0.00247713
-0.00247712
-0.00247712
-0.00247711
-0.00247715
-0.00252699
-0.00252699
-0.00252699
-0.00252698
-0.00252698
-0.00252698
-0.00252698
-0.00252698
-0.00252698
-0.00252697
-0.00252697
-0.00252697
-0.00252696
-0.00252696
-0.00252695
-0.00252699
-0.00257682
-0.00257682
-0.00257682
-0.00257682
-0.00257682
-0.00257682
-0.00257682
-0.00257682
-0.00257681
-0.00257681
-0.00257681
-0.0025768
-0.0025768
-0.0025768
-0.00257679
-0.00257682
-0.00262666
-0.00262666
-0.00262666
-0.00262666
-0.00262666
-0.00262665
-0.00262665
-0.00262665
-0.00262665
-0.00262665
-0.00262664
-0.00262664
-0.00262664
-0.00262663
-0.00262663
-0.00262666
-0.00267649
-0.00267649
-0.00267649
-0.00267649
-0.00267649
-0.00267649
-0.00267649
-0.00267649
-0.00267648
-0.00267648
-0.00267648
-0.00267648
-0.00267647
-0.00267647
-0.00267646
-0.00267649
-0.00272632
-0.00272632
-0.00272632
-0.00272632
-0.00272632
-0.00272632
-0.00272632
-0.00272632
-0.00272632
-0.00272632
-0.00272631
-0.00272631
-0.00272631
-0.0027263
-0.0027263
-0.00272632
-0.00277615
-0.00277615
-0.00277615
-0.00277615
-0.00277615
-0.00277615
-0.00277615
-0.00277615
-0.00277615
-0.00277615
-0.00277614
-0.00277614
-0.00277614
-0.00277614
-0.00277613
-0.00277615
-0.00282597
-0.00282597
-0.00282597
-0.00282597
-0.00282597
-0.00282597
-0.00282597
-0.00282597
-0.00282597
-0.00282597
-0.00282597
-0.00282597
-0.00282597
-0.00282597
-0.00282596
-0.00282597
-0.0028758
-0.0028758
-0.0028758
-0.0028758
-0.0028758
-0.0028758
-0.0028758
-0.0028758
-0.00287579
-0.0028758
-0.0028758
-0.0028758
-0.0028758
-0.0028758
-0.00287579
-0.0028758
-0.00292562
-0.00292562
-0.00292562
-0.00292562
-0.00292562
-0.00292562
-0.00292562
-0.00292562
-0.00292562
-0.00292562
-0.00292562
-0.00292562
-0.00292562
-0.00292562
-0.00292562
-0.00292562
-0.00297545
-0.00297544
-0.00297545
-0.00297545
-0.00297545
-0.00297545
-0.00297545
-0.00297545
-0.00297545
-0.00297544
-0.00297545
-0.00297545
-0.00297544
-0.00297545
-0.00297545
-0.00297545
-0.00302527
-0.00302527
-0.00302527
-0.00302527
-0.00302527
-0.00302527
-0.00302527
-0.00302527
-0.00302527
-0.00302527
-0.00302527
-0.00302527
-0.00302527
-0.00302527
-0.00302527
-0.00302527
-0.00307509
-0.00307509
-0.00307509
-0.00307509
-0.00307509
-0.00307509
-0.00307509
-0.00307509
-0.00307509
-0.00307509
-0.00307509
-0.00307509
-0.00307509
-0.00307509
-0.00307509
-0.00307509
)
;

boundaryField
{
    wireUpstream
    {
        type            calculated;
        value           nonuniform List<scalar> 
16
(
-0.0031
-0.0031
-0.0031
-0.0031
-0.0031
-0.0031
-0.0031
-0.0031
-0.0031
-0.0031
-0.0031
-0.0031
-0.0031
-0.0031
-0.0031
-0.0031
)
;
    }
    wireDownstream
    {
        type            calculated;
        value           nonuniform List<scalar> 
16
(
0.003
0.003
0.003
0.003
0.003
0.003
0.003
0.003
0.003
0.003
0.003
0.003
0.003
0.003
0.003
0.003
)
;
    }
    wireTopContact
    {
        type            calculated;
        value           nonuniform List<scalar> 
122
(
0.00291989
0.00286988
0.00281986
0.00276985
0.00271983
0.00266982
0.0026198
0.00256978
0.00251977
0.00246975
0.00241974
0.00236972
0.00231971
0.0022697
0.00221969
0.00216967
0.00211967
0.00206966
0.00201965
0.00196965
0.00191964
0.00186964
0.00181964
0.00176964
0.00171964
0.00166964
0.00161964
0.00156964
0.00151965
0.00146965
0.00141966
0.00136967
0.00131967
0.00126968
0.00121969
0.0011697
0.00111971
0.00106971
0.00101972
0.000969727
0.000919729
0.000869728
0.000819723
0.000769714
0.0007197
0.000669681
0.000619656
0.000569623
0.000519584
0.000469538
0.000419489
0.000369438
0.000319389
0.000269344
0.000219307
0.000169281
0.00011927
6.92765e-05
1.92995e-05
-3.06696e-05
-8.06459e-05
-0.000130637
-0.000180642
-0.000230655
-0.000280672
-0.00033069
-0.000380707
-0.000430722
-0.000480733
-0.00053074
-0.000580741
-0.000630736
-0.000680725
-0.000730708
-0.000780684
-0.000830653
-0.000880615
-0.000930572
-0.000980525
-0.00103047
-0.00108041
-0.00113034
-0.00118027
-0.00123019
-0.00128011
-0.00133002
-0.00137993
-0.00142983
-0.00147973
-0.00152963
-0.00157953
-0.00162942
-0.0016793
-0.00172918
-0.00177906
-0.00182894
-0.00187881
-0.00192869
-0.00197855
-0.00202842
-0.00207828
-0.00212814
-0.002178
-0.00222786
-0.00227771
-0.00232756
-0.00237741
-0.00242726
-0.0024771
-0.00252694
-0.00257678
-0.00262662
-0.00267646
-0.0027263
-0.00277613
-0.00282596
-0.00287579
-0.00292562
-0.00297544
-0.00302527
-0.00307509
0.00297245
)
;
    }
    front
    {
        type            wedge;
    }
    back
    {
        type            wedge;
    }
}


// ************************************************************************* //
