/*--------------------------------*- C++ -*----------------------------------*\
| =========                 |                                                 |
| \\      /  F ield         | foam-extend: Open Source CFD                    |
|  \\    /   O peration     | Version:     4.1-20200408                       |
|   \\  /    A nd           | Web:         http://www.foam-extend.org         |
|    \\/     M anipulation  |                                                 |
\*---------------------------------------------------------------------------*/
FoamFile
{
    version     2.0;
    format      ascii;
    class       volScalarField;
    location    "0.0145000";
    object      ccx;
}
// * * * * * * * * * * * * * * * * * * * * * * * * * * * * * * * * * * * * * //

dimensions      [0 1 0 0 0 0 0];

internalField   nonuniform List<scalar> 
1952
(
0.00297203
0.00297202
0.00297201
0.00297201
0.00297199
0.00297198
0.00297196
0.00297194
0.00297192
0.0029719
0.00297187
0.00297185
0.00297182
0.00297179
0.00297176
0.00297203
0.00291903
0.00291902
0.002919
0.00291899
0.00291896
0.00291894
0.0029189
0.00291886
0.00291882
0.00291878
0.00291873
0.00291867
0.00291862
0.00291856
0.0029185
0.00291903
0.00286898
0.00286898
0.00286896
0.00286894
0.00286892
0.00286889
0.00286886
0.00286882
0.00286878
0.00286873
0.00286868
0.00286863
0.00286857
0.00286852
0.00286847
0.00286899
0.00281894
0.00281893
0.00281891
0.0028189
0.00281887
0.00281884
0.00281881
0.00281877
0.00281873
0.00281868
0.00281863
0.00281858
0.00281853
0.00281848
0.00281844
0.00281894
0.00276889
0.00276888
0.00276887
0.00276885
0.00276883
0.0027688
0.00276876
0.00276872
0.00276868
0.00276864
0.00276859
0.00276854
0.0027685
0.00276845
0.0027684
0.0027689
0.00271885
0.00271884
0.00271882
0.0027188
0.00271878
0.00271875
0.00271872
0.00271868
0.00271864
0.0027186
0.00271855
0.0027185
0.00271846
0.00271842
0.00271837
0.00271885
0.0026688
0.00266879
0.00266878
0.00266876
0.00266873
0.0026687
0.00266867
0.00266864
0.0026686
0.00266855
0.00266851
0.00266846
0.00266842
0.00266838
0.00266834
0.00266881
0.00261875
0.00261874
0.00261873
0.00261871
0.00261869
0.00261866
0.00261863
0.00261859
0.00261855
0.00261851
0.00261847
0.00261843
0.00261838
0.00261834
0.00261831
0.00261876
0.00256871
0.0025687
0.00256869
0.00256867
0.00256865
0.00256862
0.00256859
0.00256855
0.00256851
0.00256847
0.00256843
0.00256839
0.00256835
0.00256831
0.00256827
0.00256872
0.00251867
0.00251866
0.00251864
0.00251863
0.0025186
0.00251857
0.00251854
0.00251851
0.00251847
0.00251843
0.00251839
0.00251835
0.00251831
0.00251828
0.00251824
0.00251867
0.00246862
0.00246861
0.0024686
0.00246859
0.00246856
0.00246854
0.00246851
0.00246847
0.00246844
0.0024684
0.00246836
0.00246831
0.00246828
0.00246824
0.00246821
0.00246863
0.00241859
0.00241858
0.00241857
0.00241855
0.00241853
0.0024185
0.00241847
0.00241844
0.0024184
0.00241836
0.00241832
0.00241828
0.00241824
0.00241821
0.00241818
0.00241859
0.00236855
0.00236854
0.00236853
0.00236851
0.00236849
0.00236846
0.00236843
0.0023684
0.00236836
0.00236832
0.00236828
0.00236825
0.00236821
0.00236818
0.00236815
0.00236856
0.00231852
0.00231851
0.00231849
0.00231847
0.00231845
0.00231843
0.0023184
0.00231837
0.00231833
0.00231829
0.00231825
0.00231821
0.00231818
0.00231815
0.00231812
0.00231852
0.00226848
0.00226847
0.00226846
0.00226844
0.00226842
0.0022684
0.00226837
0.00226833
0.0022683
0.00226826
0.00226822
0.00226818
0.00226815
0.00226812
0.00226809
0.00226849
0.00221845
0.00221844
0.00221843
0.00221841
0.00221839
0.00221837
0.00221834
0.0022183
0.00221827
0.00221823
0.00221819
0.00221815
0.00221812
0.00221809
0.00221806
0.00221845
0.00216842
0.00216841
0.0021684
0.00216838
0.00216836
0.00216834
0.00216831
0.00216827
0.00216824
0.0021682
0.00216816
0.00216812
0.00216809
0.00216806
0.00216803
0.00216842
0.00211839
0.00211838
0.00211837
0.00211835
0.00211833
0.00211831
0.00211828
0.00211825
0.00211821
0.00211817
0.00211813
0.0021181
0.00211806
0.00211803
0.002118
0.0021184
0.00206837
0.00206836
0.00206835
0.00206833
0.00206831
0.00206828
0.00206825
0.00206822
0.00206818
0.00206815
0.00206811
0.00206807
0.00206804
0.002068
0.00206797
0.00206837
0.00201834
0.00201833
0.00201832
0.0020183
0.00201828
0.00201826
0.00201823
0.0020182
0.00201816
0.00201812
0.00201808
0.00201805
0.00201801
0.00201798
0.00201795
0.00201835
0.00196832
0.00196831
0.0019683
0.00196828
0.00196826
0.00196823
0.0019682
0.00196817
0.00196814
0.0019681
0.00196806
0.00196802
0.00196799
0.00196795
0.00196792
0.00196833
0.0019183
0.00191829
0.00191828
0.00191826
0.00191824
0.00191821
0.00191818
0.00191815
0.00191811
0.00191808
0.00191804
0.001918
0.00191796
0.00191793
0.0019179
0.0019183
0.00186828
0.00186827
0.00186826
0.00186824
0.00186822
0.00186819
0.00186816
0.00186813
0.00186809
0.00186805
0.00186801
0.00186798
0.00186794
0.0018679
0.00186787
0.00186829
0.00181826
0.00181825
0.00181824
0.00181822
0.0018182
0.00181817
0.00181814
0.00181811
0.00181807
0.00181803
0.00181799
0.00181795
0.00181792
0.00181788
0.00181785
0.00181827
0.00176825
0.00176824
0.00176823
0.00176821
0.00176818
0.00176816
0.00176813
0.00176809
0.00176805
0.00176801
0.00176797
0.00176794
0.0017679
0.00176786
0.00176783
0.00176825
0.00171823
0.00171823
0.00171821
0.00171819
0.00171817
0.00171814
0.00171811
0.00171808
0.00171804
0.001718
0.00171796
0.00171792
0.00171788
0.00171784
0.00171781
0.00171824
0.00166822
0.00166821
0.0016682
0.00166818
0.00166816
0.00166813
0.0016681
0.00166806
0.00166802
0.00166798
0.00166794
0.0016679
0.00166786
0.00166782
0.00166779
0.00166823
0.00161821
0.0016182
0.00161818
0.00161816
0.00161814
0.00161812
0.00161808
0.00161804
0.001618
0.00161796
0.00161792
0.00161788
0.00161784
0.00161781
0.00161777
0.00161822
0.0015682
0.00156819
0.00156818
0.00156816
0.00156813
0.0015681
0.00156807
0.00156803
0.00156799
0.00156795
0.00156791
0.00156786
0.00156783
0.00156779
0.00156776
0.00156821
0.0015182
0.00151819
0.00151817
0.00151815
0.00151813
0.0015181
0.00151806
0.00151802
0.00151798
0.00151794
0.00151789
0.00151785
0.00151781
0.00151777
0.00151774
0.0015182
0.00146819
0.00146818
0.00146817
0.00146815
0.00146812
0.00146809
0.00146805
0.00146801
0.00146797
0.00146792
0.00146788
0.00146783
0.00146779
0.00146776
0.00146773
0.0014682
0.00141819
0.00141818
0.00141816
0.00141814
0.00141811
0.00141808
0.00141804
0.001418
0.00141796
0.00141791
0.00141787
0.00141782
0.00141778
0.00141775
0.00141771
0.0014182
0.00136819
0.00136818
0.00136816
0.00136814
0.00136811
0.00136808
0.00136804
0.001368
0.00136795
0.00136791
0.00136786
0.00136781
0.00136777
0.00136773
0.0013677
0.0013682
0.0013182
0.00131819
0.00131817
0.00131814
0.00131811
0.00131808
0.00131804
0.00131799
0.00131795
0.0013179
0.00131785
0.0013178
0.00131775
0.00131772
0.00131768
0.0013182
0.0012682
0.00126819
0.00126817
0.00126815
0.00126812
0.00126808
0.00126804
0.00126799
0.00126794
0.00126789
0.00126784
0.00126779
0.00126774
0.0012677
0.00126767
0.00126821
0.00121821
0.0012182
0.00121818
0.00121815
0.00121812
0.00121808
0.00121804
0.00121799
0.00121794
0.00121788
0.00121783
0.00121778
0.00121773
0.00121769
0.00121766
0.00121822
0.00116822
0.00116821
0.00116819
0.00116816
0.00116813
0.00116809
0.00116804
0.00116799
0.00116794
0.00116788
0.00116782
0.00116777
0.00116772
0.00116768
0.00116764
0.00116823
0.00111824
0.00111822
0.0011182
0.00111817
0.00111814
0.0011181
0.00111805
0.001118
0.00111794
0.00111788
0.00111782
0.00111776
0.00111771
0.00111766
0.00111763
0.00111825
0.00106825
0.00106824
0.00106822
0.00106819
0.00106815
0.00106811
0.00106806
0.001068
0.00106794
0.00106788
0.00106782
0.00106775
0.0010677
0.00106765
0.00106761
0.00106826
0.00101828
0.00101826
0.00101824
0.00101821
0.00101817
0.00101812
0.00101807
0.00101801
0.00101795
0.00101788
0.00101781
0.00101775
0.00101769
0.00101764
0.0010176
0.00101829
0.000968302
0.000968285
0.00096826
0.000968227
0.000968186
0.000968138
0.000968082
0.000968019
0.000967952
0.000967882
0.000967811
0.000967742
0.000967679
0.000967625
0.000967579
0.000968311
0.000918328
0.000918311
0.000918284
0.00091825
0.000918207
0.000918156
0.000918097
0.000918032
0.000917961
0.000917886
0.00091781
0.000917736
0.000917669
0.000917609
0.00091756
0.000918337
0.000868356
0.000868338
0.000868311
0.000868275
0.00086823
0.000868176
0.000868115
0.000868046
0.000867971
0.000867892
0.000867811
0.000867732
0.000867658
0.000867593
0.000867538
0.000868365
0.000818384
0.000818366
0.000818338
0.000818301
0.000818254
0.000818199
0.000818135
0.000818062
0.000817983
0.000817899
0.000817813
0.000817727
0.000817646
0.000817575
0.000817514
0.000818394
0.000768412
0.000768393
0.000768365
0.000768327
0.00076828
0.000768222
0.000768155
0.00076808
0.000767997
0.000767908
0.000767815
0.000767722
0.000767635
0.000767556
0.000767487
0.000768422
0.000718439
0.00071842
0.000718391
0.000718353
0.000718304
0.000718245
0.000718177
0.000718098
0.000718012
0.000717918
0.000717819
0.000717719
0.000717623
0.000717535
0.000717456
0.000718449
0.000668462
0.000668444
0.000668414
0.000668376
0.000668327
0.000668267
0.000668197
0.000668117
0.000668027
0.000667928
0.000667824
0.000667716
0.000667611
0.000667512
0.000667422
0.000668472
0.00061848
0.000618462
0.000618433
0.000618394
0.000618346
0.000618286
0.000618216
0.000618134
0.000618042
0.00061794
0.00061783
0.000617714
0.000617599
0.000617487
0.000617383
0.00061849
0.00056849
0.000568472
0.000568444
0.000568407
0.000568359
0.0005683
0.00056823
0.000568148
0.000568055
0.00056795
0.000567835
0.000567712
0.000567586
0.000567461
0.00056734
0.000568499
0.000518489
0.000518472
0.000518445
0.00051841
0.000518363
0.000518306
0.000518238
0.000518157
0.000518063
0.000517957
0.000517839
0.00051771
0.000517574
0.000517433
0.000517291
0.000518498
0.000468474
0.000468458
0.000468434
0.0004684
0.000468356
0.000468301
0.000468235
0.000468157
0.000468065
0.00046796
0.00046784
0.000467707
0.000467561
0.000467404
0.000467237
0.000468483
0.000418443
0.000418428
0.000418405
0.000418374
0.000418333
0.000418282
0.00041822
0.000418145
0.000418056
0.000417953
0.000417835
0.000417699
0.000417545
0.000417373
0.00041718
0.000418451
0.000368393
0.000368379
0.000368358
0.000368329
0.000368292
0.000368245
0.000368187
0.000368116
0.000368033
0.000367934
0.000367818
0.000367682
0.000367524
0.000367339
0.00036712
0.0003684
0.000318321
0.000318309
0.00031829
0.000318263
0.000318229
0.000318186
0.000318132
0.000318068
0.00031799
0.000317897
0.000317785
0.000317652
0.000317493
0.000317299
0.00031706
0.000318328
0.000268226
0.000268215
0.000268197
0.000268173
0.000268142
0.000268103
0.000268054
0.000267995
0.000267923
0.000267836
0.000267732
0.000267605
0.000267448
0.000267253
0.000267
0.000268232
0.000218107
0.000218097
0.000218081
0.000218058
0.000218029
0.000217993
0.000217948
0.000217893
0.000217828
0.000217749
0.000217653
0.000217535
0.000217388
0.000217198
0.000216944
0.000218113
0.000167965
0.000167955
0.000167939
0.000167918
0.000167891
0.000167857
0.000167814
0.000167764
0.000167704
0.000167632
0.000167546
0.00016744
0.000167307
0.000167133
0.000166892
0.00016797
0.000117802
0.000117791
0.000117776
0.000117755
0.000117728
0.000117695
0.000117655
0.000117607
0.000117551
0.000117486
0.000117409
0.000117317
0.000117204
0.000117056
0.000116847
0.000117807
6.76194e-05
6.76091e-05
6.75932e-05
6.75721e-05
6.75451e-05
6.7512e-05
6.74724e-05
6.7426e-05
6.73731e-05
6.7313e-05
6.72454e-05
6.71679e-05
6.70768e-05
6.69652e-05
6.68097e-05
6.76247e-05
1.74229e-05
1.74121e-05
1.73959e-05
1.7374e-05
1.73462e-05
1.73124e-05
1.72724e-05
1.72264e-05
1.71752e-05
1.71194e-05
1.70596e-05
1.69962e-05
1.69303e-05
1.68621e-05
1.67791e-05
1.74283e-05
-3.27835e-05
-3.27947e-05
-3.28115e-05
-3.28342e-05
-3.2863e-05
-3.28976e-05
-3.29383e-05
-3.29839e-05
-3.30337e-05
-3.30853e-05
-3.31363e-05
-3.31833e-05
-3.32202e-05
-3.32379e-05
-3.324e-05
-3.27778e-05
-8.29946e-05
-8.30061e-05
-8.30237e-05
-8.30471e-05
-8.30761e-05
-8.3111e-05
-8.31511e-05
-8.31952e-05
-8.32409e-05
-8.32852e-05
-8.33232e-05
-8.33479e-05
-8.33488e-05
-8.33153e-05
-8.32465e-05
-8.29886e-05
-0.000133203
-0.000133215
-0.000133233
-0.000133256
-0.000133285
-0.000133318
-0.000133355
-0.000133394
-0.000133431
-0.000133462
-0.000133479
-0.000133475
-0.000133439
-0.000133364
-0.000133249
-0.000133197
-0.000183401
-0.000183412
-0.000183429
-0.000183451
-0.000183477
-0.000183506
-0.000183536
-0.000183565
-0.000183588
-0.000183598
-0.00018359
-0.000183556
-0.000183491
-0.000183392
-0.000183255
-0.000183395
-0.000233577
-0.000233587
-0.000233602
-0.00023362
-0.000233641
-0.000233662
-0.000233681
-0.000233694
-0.000233698
-0.000233687
-0.000233655
-0.000233601
-0.00023352
-0.00023341
-0.000233264
-0.000233572
-0.000283723
-0.00028373
-0.00028374
-0.000283752
-0.000283765
-0.000283775
-0.00028378
-0.000283777
-0.000283763
-0.000283735
-0.00028369
-0.000283625
-0.000283537
-0.000283422
-0.000283273
-0.000283719
-0.000333828
-0.000333832
-0.000333837
-0.000333841
-0.000333844
-0.000333843
-0.000333837
-0.000333822
-0.000333797
-0.00033376
-0.000333707
-0.000333636
-0.000333544
-0.000333427
-0.00033328
-0.000333826
-0.000383893
-0.000383894
-0.000383894
-0.000383892
-0.000383887
-0.000383879
-0.000383866
-0.000383844
-0.000383812
-0.000383768
-0.00038371
-0.000383635
-0.000383541
-0.000383424
-0.000383282
-0.000383893
-0.000433928
-0.000433926
-0.000433923
-0.000433917
-0.000433908
-0.000433895
-0.000433875
-0.000433848
-0.000433811
-0.000433763
-0.000433701
-0.000433624
-0.000433529
-0.000433415
-0.000433279
-0.000433929
-0.00048394
-0.000483937
-0.000483931
-0.000483922
-0.00048391
-0.000483891
-0.000483867
-0.000483836
-0.000483795
-0.000483743
-0.000483679
-0.000483602
-0.000483508
-0.000483398
-0.000483269
-0.000483942
-0.000533933
-0.000533928
-0.00053392
-0.000533909
-0.000533893
-0.000533871
-0.000533844
-0.000533809
-0.000533765
-0.000533712
-0.000533647
-0.000533569
-0.000533479
-0.000533373
-0.000533252
-0.000533936
-0.000583908
-0.000583901
-0.000583892
-0.000583878
-0.00058386
-0.000583836
-0.000583806
-0.000583769
-0.000583723
-0.000583669
-0.000583604
-0.000583528
-0.000583441
-0.000583341
-0.000583227
-0.000583911
-0.000633865
-0.000633858
-0.000633848
-0.000633832
-0.000633812
-0.000633787
-0.000633755
-0.000633716
-0.00063367
-0.000633616
-0.000633552
-0.000633478
-0.000633395
-0.0006333
-0.000633196
-0.000633869
-0.000683809
-0.000683801
-0.000683789
-0.000683773
-0.000683752
-0.000683725
-0.000683692
-0.000683653
-0.000683607
-0.000683553
-0.000683491
-0.00068342
-0.000683341
-0.000683253
-0.000683156
-0.000683813
-0.000733739
-0.00073373
-0.000733718
-0.000733701
-0.000733679
-0.000733651
-0.000733619
-0.00073358
-0.000733534
-0.000733481
-0.000733422
-0.000733354
-0.00073328
-0.000733198
-0.000733108
-0.000733743
-0.000783657
-0.000783648
-0.000783635
-0.000783618
-0.000783595
-0.000783568
-0.000783536
-0.000783497
-0.000783453
-0.000783402
-0.000783345
-0.000783281
-0.000783211
-0.000783135
-0.000783052
-0.000783661
-0.000833564
-0.000833556
-0.000833543
-0.000833525
-0.000833503
-0.000833476
-0.000833444
-0.000833406
-0.000833363
-0.000833315
-0.00083326
-0.0008332
-0.000833135
-0.000833064
-0.000832988
-0.000833569
-0.000883463
-0.000883454
-0.000883441
-0.000883424
-0.000883402
-0.000883376
-0.000883344
-0.000883308
-0.000883267
-0.000883221
-0.000883169
-0.000883113
-0.000883052
-0.000882987
-0.000882917
-0.000883467
-0.000933353
-0.000933344
-0.000933332
-0.000933315
-0.000933294
-0.000933268
-0.000933238
-0.000933204
-0.000933164
-0.00093312
-0.000933072
-0.000933019
-0.000932963
-0.000932902
-0.000932838
-0.000933357
-0.000983235
-0.000983227
-0.000983216
-0.0009832
-0.000983179
-0.000983154
-0.000983124
-0.000983092
-0.000983056
-0.000983015
-0.000982969
-0.000982918
-0.000982866
-0.000982812
-0.000982754
-0.00098324
-0.00103311
-0.00103311
-0.00103309
-0.00103308
-0.00103306
-0.00103303
-0.00103301
-0.00103298
-0.00103294
-0.0010329
-0.00103286
-0.00103281
-0.00103277
-0.00103272
-0.00103266
-0.00103312
-0.00108298
-0.00108298
-0.00108296
-0.00108295
-0.00108293
-0.00108291
-0.00108288
-0.00108285
-0.00108282
-0.00108278
-0.00108274
-0.0010827
-0.00108266
-0.00108261
-0.00108256
-0.00108299
-0.00113285
-0.00113284
-0.00113283
-0.00113282
-0.0011328
-0.00113278
-0.00113275
-0.00113272
-0.00113269
-0.00113266
-0.00113262
-0.00113259
-0.00113254
-0.0011325
-0.00113245
-0.00113285
-0.00118271
-0.0011827
-0.00118269
-0.00118268
-0.00118266
-0.00118264
-0.00118262
-0.00118259
-0.00118256
-0.00118253
-0.0011825
-0.00118246
-0.00118242
-0.00118238
-0.00118234
-0.00118271
-0.00123256
-0.00123256
-0.00123255
-0.00123254
-0.00123252
-0.0012325
-0.00123248
-0.00123246
-0.00123243
-0.0012324
-0.00123237
-0.00123234
-0.0012323
-0.00123226
-0.00123222
-0.00123257
-0.00128242
-0.00128241
-0.0012824
-0.00128239
-0.00128238
-0.00128236
-0.00128234
-0.00128231
-0.00128229
-0.00128227
-0.00128224
-0.0012822
-0.00128217
-0.00128214
-0.0012821
-0.00128242
-0.00133226
-0.00133226
-0.00133225
-0.00133224
-0.00133223
-0.00133221
-0.00133219
-0.00133217
-0.00133215
-0.00133212
-0.0013321
-0.00133207
-0.00133204
-0.00133201
-0.00133197
-0.00133227
-0.00138211
-0.0013821
-0.0013821
-0.00138209
-0.00138207
-0.00138206
-0.00138204
-0.00138202
-0.001382
-0.00138198
-0.00138195
-0.00138193
-0.0013819
-0.00138187
-0.00138184
-0.00138211
-0.00143195
-0.00143195
-0.00143194
-0.00143193
-0.00143192
-0.0014319
-0.00143188
-0.00143187
-0.00143185
-0.00143183
-0.00143181
-0.00143178
-0.00143175
-0.00143173
-0.0014317
-0.00143195
-0.00148179
-0.00148178
-0.00148178
-0.00148177
-0.00148176
-0.00148174
-0.00148173
-0.00148171
-0.00148169
-0.00148168
-0.00148165
-0.00148163
-0.00148161
-0.00148158
-0.00148155
-0.00148179
-0.00153162
-0.00153162
-0.00153161
-0.0015316
-0.00153159
-0.00153158
-0.00153157
-0.00153155
-0.00153154
-0.00153152
-0.0015315
-0.00153148
-0.00153146
-0.00153143
-0.00153141
-0.00153162
-0.00158145
-0.00158145
-0.00158144
-0.00158143
-0.00158143
-0.00158141
-0.0015814
-0.00158139
-0.00158137
-0.00158136
-0.00158134
-0.00158132
-0.0015813
-0.00158128
-0.00158125
-0.00158146
-0.00163128
-0.00163128
-0.00163127
-0.00163126
-0.00163126
-0.00163124
-0.00163123
-0.00163122
-0.00163121
-0.00163119
-0.00163118
-0.00163116
-0.00163114
-0.00163112
-0.0016311
-0.00163128
-0.0016811
-0.0016811
-0.0016811
-0.00168109
-0.00168108
-0.00168107
-0.00168106
-0.00168105
-0.00168104
-0.00168103
-0.00168101
-0.00168099
-0.00168098
-0.00168096
-0.00168093
-0.00168111
-0.00173093
-0.00173092
-0.00173092
-0.00173092
-0.00173091
-0.0017309
-0.00173089
-0.00173088
-0.00173087
-0.00173085
-0.00173084
-0.00173082
-0.00173081
-0.00173079
-0.00173077
-0.00173093
-0.00178075
-0.00178074
-0.00178074
-0.00178074
-0.00178073
-0.00178072
-0.00178071
-0.0017807
-0.00178069
-0.00178068
-0.00178066
-0.00178065
-0.00178064
-0.00178062
-0.0017806
-0.00178075
-0.00183056
-0.00183056
-0.00183056
-0.00183055
-0.00183055
-0.00183054
-0.00183053
-0.00183053
-0.00183052
-0.0018305
-0.00183049
-0.00183048
-0.00183046
-0.00183044
-0.00183043
-0.00183057
-0.00188038
-0.00188038
-0.00188037
-0.00188037
-0.00188036
-0.00188035
-0.00188035
-0.00188034
-0.00188033
-0.00188032
-0.00188031
-0.0018803
-0.00188028
-0.00188027
-0.00188025
-0.00188038
-0.00193019
-0.00193019
-0.00193019
-0.00193018
-0.00193017
-0.00193017
-0.00193016
-0.00193015
-0.00193015
-0.00193014
-0.00193013
-0.00193012
-0.0019301
-0.00193009
-0.00193007
-0.00193019
-0.00198
-0.00198
-0.00197999
-0.00197999
-0.00197999
-0.00197998
-0.00197997
-0.00197997
-0.00197996
-0.00197995
-0.00197994
-0.00197993
-0.00197992
-0.0019799
-0.00197989
-0.00198
-0.0020298
-0.0020298
-0.0020298
-0.0020298
-0.00202979
-0.00202979
-0.00202978
-0.00202977
-0.00202977
-0.00202976
-0.00202975
-0.00202974
-0.00202973
-0.00202972
-0.0020297
-0.0020298
-0.00207961
-0.0020796
-0.0020796
-0.0020796
-0.0020796
-0.00207959
-0.00207959
-0.00207958
-0.00207957
-0.00207957
-0.00207956
-0.00207955
-0.00207954
-0.00207953
-0.00207951
-0.00207961
-0.00212941
-0.0021294
-0.0021294
-0.0021294
-0.0021294
-0.00212939
-0.00212939
-0.00212938
-0.00212938
-0.00212937
-0.00212936
-0.00212936
-0.00212935
-0.00212933
-0.00212932
-0.00212941
-0.0021792
-0.0021792
-0.0021792
-0.0021792
-0.0021792
-0.00217919
-0.00217919
-0.00217918
-0.00217918
-0.00217917
-0.00217917
-0.00217916
-0.00217915
-0.00217914
-0.00217913
-0.00217921
-0.002229
-0.002229
-0.002229
-0.002229
-0.00222899
-0.00222899
-0.00222898
-0.00222898
-0.00222898
-0.00222897
-0.00222897
-0.00222896
-0.00222895
-0.00222894
-0.00222893
-0.002229
-0.0022788
-0.00227879
-0.00227879
-0.00227879
-0.00227879
-0.00227878
-0.00227878
-0.00227878
-0.00227877
-0.00227877
-0.00227876
-0.00227875
-0.00227875
-0.00227874
-0.00227873
-0.0022788
-0.00232859
-0.00232859
-0.00232858
-0.00232858
-0.00232858
-0.00232858
-0.00232857
-0.00232857
-0.00232857
-0.00232856
-0.00232855
-0.00232855
-0.00232854
-0.00232853
-0.00232852
-0.00232859
-0.00237837
-0.00237837
-0.00237837
-0.00237837
-0.00237837
-0.00237836
-0.00237836
-0.00237836
-0.00237836
-0.00237835
-0.00237835
-0.00237834
-0.00237833
-0.00237832
-0.00237831
-0.00237837
-0.00242816
-0.00242816
-0.00242815
-0.00242815
-0.00242815
-0.00242815
-0.00242815
-0.00242814
-0.00242814
-0.00242814
-0.00242813
-0.00242813
-0.00242812
-0.00242811
-0.0024281
-0.00242816
-0.00247794
-0.00247794
-0.00247794
-0.00247793
-0.00247793
-0.00247793
-0.00247793
-0.00247793
-0.00247793
-0.00247792
-0.00247792
-0.00247791
-0.00247791
-0.0024779
-0.00247789
-0.00247794
-0.00252772
-0.00252772
-0.00252772
-0.00252771
-0.00252771
-0.00252771
-0.00252771
-0.00252771
-0.00252771
-0.00252771
-0.0025277
-0.0025277
-0.00252769
-0.00252769
-0.00252768
-0.00252772
-0.0025775
-0.0025775
-0.00257749
-0.00257749
-0.00257749
-0.00257749
-0.00257749
-0.00257749
-0.00257749
-0.00257748
-0.00257748
-0.00257748
-0.00257748
-0.00257747
-0.00257746
-0.0025775
-0.00262727
-0.00262727
-0.00262727
-0.00262727
-0.00262727
-0.00262727
-0.00262727
-0.00262727
-0.00262726
-0.00262726
-0.00262726
-0.00262726
-0.00262725
-0.00262725
-0.00262724
-0.00262727
-0.00267704
-0.00267704
-0.00267704
-0.00267704
-0.00267704
-0.00267704
-0.00267704
-0.00267704
-0.00267704
-0.00267704
-0.00267703
-0.00267703
-0.00267703
-0.00267702
-0.00267702
-0.00267705
-0.00272681
-0.00272681
-0.00272681
-0.00272681
-0.00272681
-0.00272681
-0.00272681
-0.00272681
-0.00272681
-0.00272681
-0.00272681
-0.00272681
-0.0027268
-0.0027268
-0.00272679
-0.00272681
-0.00277658
-0.00277658
-0.00277658
-0.00277658
-0.00277658
-0.00277658
-0.00277658
-0.00277658
-0.00277658
-0.00277658
-0.00277657
-0.00277657
-0.00277657
-0.00277657
-0.00277656
-0.00277658
-0.00282634
-0.00282634
-0.00282634
-0.00282634
-0.00282634
-0.00282634
-0.00282634
-0.00282634
-0.00282634
-0.00282634
-0.00282634
-0.00282634
-0.00282634
-0.00282633
-0.00282633
-0.00282634
-0.0028761
-0.0028761
-0.0028761
-0.0028761
-0.0028761
-0.0028761
-0.0028761
-0.0028761
-0.0028761
-0.0028761
-0.0028761
-0.0028761
-0.0028761
-0.0028761
-0.00287609
-0.0028761
-0.00292586
-0.00292586
-0.00292586
-0.00292586
-0.00292586
-0.00292586
-0.00292586
-0.00292586
-0.00292586
-0.00292586
-0.00292586
-0.00292586
-0.00292586
-0.00292586
-0.00292586
-0.00292586
-0.00297562
-0.00297561
-0.00297562
-0.00297562
-0.00297562
-0.00297562
-0.00297562
-0.00297562
-0.00297561
-0.00297561
-0.00297562
-0.00297562
-0.00297561
-0.00297562
-0.00297562
-0.00297562
-0.00302537
-0.00302537
-0.00302537
-0.00302537
-0.00302537
-0.00302537
-0.00302537
-0.00302537
-0.00302537
-0.00302537
-0.00302537
-0.00302537
-0.00302537
-0.00302537
-0.00302537
-0.00302537
-0.00307512
-0.00307512
-0.00307512
-0.00307512
-0.00307512
-0.00307513
-0.00307513
-0.00307513
-0.00307513
-0.00307512
-0.00307513
-0.00307512
-0.00307513
-0.00307513
-0.00307513
-0.00307512
)
;

boundaryField
{
    wireUpstream
    {
        type            calculated;
        value           nonuniform List<scalar> 
16
(
-0.0031
-0.0031
-0.0031
-0.0031
-0.0031
-0.0031
-0.0031
-0.0031
-0.0031
-0.0031
-0.0031
-0.0031
-0.0031
-0.0031
-0.0031
-0.0031
)
;
    }
    wireDownstream
    {
        type            calculated;
        value           nonuniform List<scalar> 
16
(
0.003
0.003
0.003
0.003
0.003
0.003
0.003
0.003
0.003
0.003
0.003
0.003
0.003
0.003
0.003
0.003
)
;
    }
    wireTopContact
    {
        type            calculated;
        value           nonuniform List<scalar> 
122
(
0.00291847
0.00286845
0.00281842
0.00276839
0.00271836
0.00266833
0.00261829
0.00256826
0.00251823
0.0024682
0.00241816
0.00236814
0.0023181
0.00226807
0.00221804
0.00216802
0.00211799
0.00206796
0.00201793
0.00196791
0.00191789
0.00186786
0.00181784
0.00176782
0.0017178
0.00166778
0.00161776
0.00156774
0.00151773
0.00146772
0.0014177
0.00136768
0.00131767
0.00126765
0.00121764
0.00116763
0.00111761
0.0010676
0.00101758
0.000967559
0.000917538
0.000867514
0.000817487
0.000767456
0.000717421
0.000667381
0.000617334
0.000567281
0.000517221
0.000467152
0.000417078
0.000367001
0.000316926
0.000266857
0.000216797
0.00016675
0.000116721
6.67147e-05
1.67303e-05
-3.32375e-05
-8.32033e-05
-0.000133182
-0.000183176
-0.000233181
-0.00028319
-0.000333198
-0.000383204
-0.000433205
-0.000483199
-0.000533187
-0.000583167
-0.00063314
-0.000683105
-0.000733061
-0.000783009
-0.000832949
-0.00088288
-0.000932805
-0.000982723
-0.00103263
-0.00108253
-0.00113243
-0.00118232
-0.0012322
-0.00128208
-0.00133196
-0.00138182
-0.00143168
-0.00148154
-0.0015314
-0.00158124
-0.00163108
-0.00168092
-0.00173076
-0.00178059
-0.00183042
-0.00188024
-0.00193006
-0.00197988
-0.0020297
-0.00207951
-0.00212932
-0.00217912
-0.00222892
-0.00227872
-0.00232852
-0.00237831
-0.0024281
-0.00247789
-0.00252768
-0.00257746
-0.00262724
-0.00267701
-0.00272679
-0.00277656
-0.00282633
-0.00287609
-0.00292586
-0.00297561
-0.00302537
-0.00307512
0.00297174
)
;
    }
    front
    {
        type            wedge;
    }
    back
    {
        type            wedge;
    }
}


// ************************************************************************* //
