/*--------------------------------*- C++ -*----------------------------------*\
| =========                 |                                                 |
| \\      /  F ield         | foam-extend: Open Source CFD                    |
|  \\    /   O peration     | Version:     4.1-20200408                       |
|   \\  /    A nd           | Web:         http://www.foam-extend.org         |
|    \\/     M anipulation  |                                                 |
\*---------------------------------------------------------------------------*/
FoamFile
{
    version     2.0;
    format      ascii;
    class       volScalarField;
    location    "0.0145000";
    object      ccy;
}
// * * * * * * * * * * * * * * * * * * * * * * * * * * * * * * * * * * * * * //

dimensions      [0 1 0 0 0 0 0];

internalField   nonuniform List<scalar> 
1952
(
7.27861e-05
0.000118538
0.000164882
0.000211425
0.000258056
0.000304735
0.000351443
0.000398166
0.000444904
0.000491648
0.000538398
0.000585153
0.000631915
0.000678684
0.000725456
3.11947e-05
7.27824e-05
0.000118529
0.000164872
0.00021141
0.000258038
0.000304714
0.000351418
0.00039814
0.000444872
0.000491613
0.00053836
0.000585114
0.000631872
0.00067864
0.000725411
3.11918e-05
7.2777e-05
0.000118523
0.000164863
0.000211399
0.000258026
0.000304698
0.000351398
0.000398118
0.00044485
0.000491588
0.000538334
0.000585084
0.000631843
0.00067861
0.000725384
3.11912e-05
7.27752e-05
0.000118518
0.000164855
0.00021139
0.000258013
0.000304685
0.000351385
0.000398102
0.00044483
0.000491568
0.000538313
0.000585064
0.000631822
0.000678589
0.000725362
3.11887e-05
7.27711e-05
0.000118514
0.000164848
0.000211382
0.000258005
0.000304674
0.000351372
0.000398088
0.000444817
0.000491552
0.000538297
0.000585048
0.000631805
0.000678574
0.000725347
3.11886e-05
7.27705e-05
0.000118509
0.000164845
0.000211376
0.000257997
0.000304666
0.000351362
0.000398078
0.000444806
0.000491543
0.000538285
0.000585036
0.000631794
0.000678561
0.000725335
3.11867e-05
7.27681e-05
0.000118507
0.00016484
0.000211371
0.000257992
0.000304659
0.000351357
0.00039807
0.000444798
0.000491534
0.000538278
0.000585028
0.000631786
0.000678553
0.000725325
3.11865e-05
7.2767e-05
0.000118506
0.000164839
0.000211368
0.000257987
0.000304655
0.000351351
0.000398067
0.000444793
0.000491528
0.000538272
0.000585022
0.00063178
0.000678547
0.000725321
3.1186e-05
7.27654e-05
0.000118505
0.000164836
0.000211366
0.000257986
0.000304652
0.000351347
0.000398063
0.000444789
0.000491525
0.000538268
0.000585018
0.000631776
0.000678542
0.000725316
3.11862e-05
7.27664e-05
0.000118503
0.000164835
0.000211365
0.000257984
0.000304651
0.000351346
0.00039806
0.000444787
0.000491523
0.000538267
0.000585016
0.000631773
0.000678541
0.000725312
3.11849e-05
7.27654e-05
0.000118503
0.000164835
0.000211364
0.000257983
0.000304649
0.000351346
0.00039806
0.000444786
0.000491522
0.000538264
0.000585015
0.000631773
0.000678538
0.000725311
3.11853e-05
7.27645e-05
0.000118503
0.000164836
0.000211364
0.000257982
0.00030465
0.000351344
0.00039806
0.000444786
0.000491522
0.000538265
0.000585014
0.000631771
0.000678538
0.00072531
3.11858e-05
7.27661e-05
0.000118503
0.000164835
0.000211364
0.000257983
0.000304649
0.000351345
0.000398059
0.000444786
0.000491522
0.000538265
0.000585015
0.000631771
0.000678537
0.00072531
3.11848e-05
7.27647e-05
0.000118503
0.000164835
0.000211364
0.000257983
0.00030465
0.000351346
0.000398061
0.000444786
0.000491522
0.000538265
0.000585015
0.000631772
0.000678537
0.00072531
3.11859e-05
7.27664e-05
0.000118504
0.000164835
0.000211365
0.000257984
0.000304651
0.000351346
0.000398061
0.000444787
0.000491523
0.000538266
0.000585015
0.000631772
0.000678537
0.00072531
3.11849e-05
7.27659e-05
0.000118504
0.000164836
0.000211365
0.000257984
0.000304651
0.000351347
0.000398062
0.000444788
0.000491524
0.000538266
0.000585016
0.000631772
0.000678537
0.00072531
3.11855e-05
7.27661e-05
0.000118504
0.000164836
0.000211366
0.000257985
0.000304652
0.000351348
0.000398063
0.000444789
0.000491524
0.000538267
0.000585016
0.000631773
0.000678538
0.00072531
3.11856e-05
7.27656e-05
0.000118505
0.000164838
0.000211366
0.000257986
0.000304653
0.000351349
0.000398063
0.000444791
0.000491525
0.000538268
0.000585016
0.000631774
0.000678538
0.00072531
3.11863e-05
7.27673e-05
0.000118505
0.000164837
0.000211367
0.000257988
0.000304653
0.00035135
0.000398065
0.000444791
0.000491525
0.000538269
0.000585018
0.000631773
0.000678538
0.00072531
3.11853e-05
7.27668e-05
0.000118505
0.000164839
0.000211368
0.000257987
0.000304656
0.00035135
0.000398064
0.000444792
0.000491527
0.000538269
0.000585017
0.000631774
0.000678538
0.00072531
3.11859e-05
7.27663e-05
0.000118506
0.000164838
0.000211369
0.000257988
0.000304655
0.000351351
0.000398067
0.000444792
0.000491527
0.00053827
0.000585019
0.000631773
0.000678538
0.00072531
3.11866e-05
7.27673e-05
0.000118506
0.000164839
0.000211369
0.000257989
0.000304656
0.000351352
0.000398067
0.000444794
0.000491527
0.00053827
0.000585019
0.000631775
0.000678538
0.00072531
3.11861e-05
7.27682e-05
0.000118507
0.000164839
0.00021137
0.00025799
0.000304657
0.000351353
0.000398068
0.000444794
0.000491529
0.000538271
0.000585018
0.000631774
0.000678538
0.00072531
3.11857e-05
7.27677e-05
0.000118507
0.000164839
0.00021137
0.000257991
0.000304658
0.000351354
0.000398068
0.000444795
0.000491529
0.000538271
0.000585019
0.000631774
0.000678538
0.00072531
3.11863e-05
7.27673e-05
0.000118507
0.000164842
0.000211371
0.000257991
0.000304658
0.000351355
0.000398068
0.000444795
0.00049153
0.000538272
0.00058502
0.000631774
0.000678538
0.00072531
3.1187e-05
7.27684e-05
0.000118509
0.000164841
0.000211372
0.000257992
0.000304661
0.000351355
0.000398071
0.000444796
0.000491531
0.000538272
0.00058502
0.000631774
0.000678538
0.00072531
3.11866e-05
7.27694e-05
0.000118508
0.000164843
0.000211373
0.000257992
0.000304661
0.000351358
0.000398071
0.000444797
0.000491532
0.000538273
0.000585021
0.000631775
0.000678538
0.00072531
3.11862e-05
7.2769e-05
0.000118509
0.000164843
0.000211374
0.000257994
0.000304663
0.000351357
0.000398073
0.000444798
0.000491533
0.000538275
0.000585021
0.000631774
0.000678539
0.00072531
3.11874e-05
7.27687e-05
0.000118511
0.000164843
0.000211376
0.000257995
0.000304663
0.00035136
0.000398074
0.0004448
0.000491535
0.000538274
0.000585022
0.000631776
0.000678538
0.00072531
3.11871e-05
7.27706e-05
0.00011851
0.000164846
0.000211375
0.000257998
0.000304664
0.000351362
0.000398076
0.000444802
0.000491534
0.000538277
0.000585023
0.000631776
0.000678539
0.00072531
3.11868e-05
7.27704e-05
0.000118511
0.000164846
0.000211378
0.000257998
0.000304666
0.000351363
0.000398077
0.000444803
0.000491537
0.000538277
0.000585024
0.000631777
0.000678539
0.000725311
3.11875e-05
7.27709e-05
0.000118513
0.000164847
0.000211378
0.000258
0.000304669
0.000351365
0.000398079
0.000444805
0.000491539
0.000538279
0.000585026
0.000631777
0.000678541
0.000725311
3.11877e-05
7.27715e-05
0.000118512
0.000164848
0.000211381
0.000258002
0.00030467
0.000351367
0.000398082
0.000444806
0.000491541
0.000538281
0.000585027
0.00063178
0.000678539
0.000725311
3.1188e-05
7.27713e-05
0.000118515
0.00016485
0.000211382
0.000258003
0.000304672
0.000351369
0.000398084
0.00044481
0.000491543
0.000538283
0.000585028
0.00063178
0.000678542
0.000725312
3.11887e-05
7.27733e-05
0.000118514
0.000164852
0.000211383
0.000258006
0.000304674
0.000351371
0.000398086
0.000444812
0.000491545
0.000538285
0.00058503
0.000631781
0.000678542
0.000725312
3.11884e-05
7.27731e-05
0.000118516
0.000164852
0.000211386
0.000258006
0.000304677
0.000351373
0.000398088
0.000444813
0.000491546
0.000538287
0.000585031
0.000631783
0.000678541
0.000725312
3.11886e-05
7.27734e-05
0.000118517
0.000164853
0.000211386
0.000258009
0.000304677
0.000351375
0.00039809
0.000444815
0.000491549
0.000538288
0.000585032
0.000631782
0.000678542
0.00072531
3.11883e-05
7.27736e-05
0.000118516
0.000164852
0.000211387
0.000258009
0.000304679
0.000351376
0.000398091
0.000444816
0.000491549
0.000538288
0.000585033
0.000631782
0.000678541
0.00072531
3.11894e-05
7.27736e-05
0.000118516
0.000164853
0.000211387
0.000258009
0.000304678
0.000351376
0.000398091
0.000444817
0.000491549
0.000538289
0.000585032
0.000631781
0.00067854
0.000725306
3.11889e-05
7.27732e-05
0.000118516
0.000164853
0.000211385
0.000258008
0.000304677
0.000351375
0.000398089
0.000444815
0.000491548
0.000538286
0.00058503
0.000631779
0.000678535
0.000725304
3.11885e-05
7.27721e-05
0.000118514
0.00016485
0.000211383
0.000258005
0.000304674
0.000351371
0.000398086
0.000444812
0.000491544
0.000538283
0.000585026
0.000631774
0.000678531
0.000725297
3.11883e-05
7.27705e-05
0.000118511
0.000164846
0.000211379
0.000258
0.000304669
0.000351366
0.00039808
0.000444805
0.000491538
0.000538276
0.000585019
0.000631767
0.000678522
0.000725288
3.11875e-05
7.27679e-05
0.000118507
0.000164841
0.000211372
0.000257992
0.00030466
0.000351356
0.00039807
0.000444795
0.000491528
0.000538266
0.000585008
0.000631756
0.000678511
0.000725275
3.11864e-05
7.27642e-05
0.000118502
0.000164833
0.000211362
0.00025798
0.000304647
0.000351342
0.000398055
0.000444779
0.000491512
0.00053825
0.000584992
0.000631739
0.000678494
0.000725257
3.11849e-05
7.27592e-05
0.000118493
0.000164822
0.000211348
0.000257964
0.000304629
0.000351322
0.000398034
0.000444757
0.000491489
0.000538227
0.00058497
0.000631716
0.000678471
0.000725233
3.11827e-05
7.27523e-05
0.000118482
0.000164807
0.000211329
0.000257942
0.000304603
0.000351295
0.000398005
0.000444727
0.000491458
0.000538195
0.000584938
0.000631685
0.000678438
0.000725201
3.11797e-05
7.27435e-05
0.000118468
0.000164787
0.000211305
0.000257913
0.000304571
0.000351258
0.000397965
0.000444686
0.000491415
0.000538152
0.000584895
0.000631642
0.000678395
0.000725157
3.11759e-05
7.27325e-05
0.00011845
0.000164763
0.000211274
0.000257876
0.000304529
0.000351211
0.000397915
0.000444632
0.000491359
0.000538095
0.000584837
0.000631584
0.000678338
0.0007251
3.11712e-05
7.2719e-05
0.000118429
0.000164733
0.000211236
0.000257831
0.000304476
0.000351152
0.00039785
0.000444562
0.000491286
0.00053802
0.00058476
0.000631507
0.000678261
0.000725024
3.11653e-05
7.27029e-05
0.000118402
0.000164697
0.00021119
0.000257775
0.000304411
0.000351079
0.000397769
0.000444475
0.000491193
0.000537922
0.00058466
0.000631406
0.00067816
0.000724922
3.11585e-05
7.26842e-05
0.000118372
0.000164654
0.000211136
0.00025771
0.000304335
0.000350992
0.000397671
0.000444368
0.000491077
0.000537799
0.000584532
0.000631274
0.000678025
0.000724785
3.11505e-05
7.26632e-05
0.000118338
0.000164607
0.000211075
0.000257635
0.000304246
0.000350889
0.000397556
0.000444239
0.000490937
0.000537648
0.000584371
0.000631104
0.000677849
0.000724604
3.11414e-05
7.264e-05
0.0001183
0.000164554
0.000211007
0.000257551
0.000304146
0.000350774
0.000397424
0.000444091
0.000490773
0.000537468
0.000584176
0.000630896
0.000677628
0.000724373
3.11316e-05
7.26156e-05
0.00011826
0.000164498
0.000210934
0.000257461
0.000304038
0.000350647
0.000397279
0.000443926
0.000490588
0.000537263
0.00058395
0.000630651
0.000677365
0.000724094
3.1121e-05
7.25903e-05
0.000118219
0.00016444
0.000210859
0.000257368
0.000303926
0.000350515
0.000397125
0.00044375
0.000490387
0.000537038
0.0005837
0.000630375
0.000677066
0.000723774
3.11104e-05
7.25658e-05
0.000118178
0.000164383
0.000210784
0.000257275
0.000303814
0.000350382
0.000396969
0.000443569
0.000490181
0.000536803
0.000583436
0.000630082
0.000676743
0.000723425
3.10998e-05
7.25426e-05
0.00011814
0.000164329
0.000210714
0.000257187
0.000303707
0.000350255
0.000396819
0.000443395
0.000489979
0.000536572
0.000583174
0.000629786
0.000676414
0.000723066
3.10899e-05
7.2522e-05
0.000118106
0.000164281
0.000210652
0.000257109
0.000303612
0.000350141
0.000396685
0.000443238
0.000489797
0.000536362
0.000582932
0.00062951
0.000676103
0.000722722
3.10811e-05
7.2505e-05
0.000118078
0.000164242
0.0002106
0.000257045
0.000303534
0.000350048
0.000396575
0.00044311
0.000489649
0.000536189
0.000582733
0.000629281
0.000675843
0.000722429
3.10739e-05
7.24924e-05
0.000118057
0.000164213
0.000210563
0.000256998
0.000303478
0.000349981
0.000396497
0.00044302
0.000489545
0.000536071
0.000582598
0.000629129
0.000675672
0.000722239
3.10685e-05
7.24845e-05
0.000118045
0.000164195
0.000210539
0.00025697
0.000303444
0.000349942
0.000396454
0.000442972
0.000489493
0.000536016
0.000582542
0.000629074
0.000675623
0.000722195
3.10651e-05
7.24815e-05
0.00011804
0.000164188
0.000210531
0.00025696
0.000303433
0.000349932
0.000396446
0.000442967
0.000489494
0.000536028
0.000582568
0.000629121
0.000675692
0.000722282
3.10638e-05
7.24833e-05
0.000118043
0.000164193
0.000210538
0.00025697
0.000303448
0.000349952
0.000396474
0.000443006
0.000489549
0.000536102
0.000582669
0.00062925
0.000675847
0.000722454
3.10646e-05
7.249e-05
0.000118054
0.00016421
0.00021056
0.000257
0.000303486
0.000350002
0.000396537
0.000443088
0.000489652
0.00053623
0.000582823
0.000629429
0.000676045
0.000722666
3.10674e-05
7.25013e-05
0.000118073
0.000164237
0.000210597
0.000257048
0.000303548
0.000350079
0.000396632
0.000443204
0.000489791
0.000536392
0.000583006
0.000629628
0.000676256
0.000722889
3.10721e-05
7.25171e-05
0.000118099
0.000164274
0.000210648
0.000257114
0.00030363
0.000350179
0.000396751
0.000443342
0.000489948
0.000536566
0.000583193
0.000629828
0.000676467
0.00072311
3.10789e-05
7.25374e-05
0.000118133
0.000164322
0.00021071
0.000257192
0.000303725
0.00035029
0.000396879
0.000443485
0.000490105
0.000536736
0.000583375
0.00063002
0.000676671
0.000723323
3.10875e-05
7.25601e-05
0.00011817
0.000164374
0.000210777
0.000257273
0.00030382
0.000350401
0.000397003
0.000443623
0.000490255
0.000536897
0.000583548
0.000630204
0.000676865
0.000723526
3.10972e-05
7.25824e-05
0.000118206
0.000164424
0.000210842
0.000257351
0.000303912
0.000350505
0.000397121
0.000443752
0.000490396
0.00053705
0.000583711
0.000630377
0.000677047
0.000723717
3.11068e-05
7.26036e-05
0.000118241
0.000164472
0.000210903
0.000257425
0.000303999
0.000350604
0.000397232
0.000443874
0.000490529
0.000537193
0.000583863
0.000630539
0.000677217
0.000723895
3.11159e-05
7.26236e-05
0.000118273
0.000164517
0.00021096
0.000257495
0.00030408
0.000350696
0.000397335
0.000443988
0.000490652
0.000537326
0.000584005
0.000630689
0.000677375
0.00072406
3.11244e-05
7.26421e-05
0.000118303
0.000164559
0.000211013
0.000257559
0.000304155
0.000350782
0.00039743
0.000444093
0.000490766
0.000537448
0.000584135
0.000630827
0.00067752
0.000724213
3.11324e-05
7.26593e-05
0.000118331
0.000164597
0.000211062
0.000257618
0.000304224
0.00035086
0.000397518
0.000444189
0.000490871
0.000537561
0.000584255
0.000630954
0.000677654
0.000724354
3.11398e-05
7.26752e-05
0.000118357
0.000164633
0.000211107
0.000257672
0.000304287
0.000350933
0.000397598
0.000444278
0.000490967
0.000537664
0.000584365
0.00063107
0.000677777
0.000724482
3.11465e-05
7.26894e-05
0.00011838
0.000164665
0.000211148
0.000257722
0.000304345
0.000350998
0.000397672
0.000444358
0.000491054
0.000537757
0.000584465
0.000631176
0.000677889
0.0007246
3.11527e-05
7.27025e-05
0.000118401
0.000164694
0.000211185
0.000257766
0.000304397
0.000351058
0.000397738
0.000444431
0.000491133
0.000537843
0.000584556
0.000631273
0.000677991
0.000724709
3.11583e-05
7.27143e-05
0.00011842
0.00016472
0.000211218
0.000257807
0.000304445
0.000351112
0.000397798
0.000444497
0.000491206
0.00053792
0.000584639
0.000631362
0.000678085
0.000724808
3.11634e-05
7.2725e-05
0.000118438
0.000164744
0.000211249
0.000257844
0.000304488
0.000351161
0.000397853
0.000444558
0.000491271
0.000537991
0.000584715
0.000631442
0.000678171
0.000724899
3.1168e-05
7.27346e-05
0.000118453
0.000164766
0.000211276
0.000257877
0.000304526
0.000351205
0.000397902
0.000444612
0.000491331
0.000538056
0.000584784
0.000631516
0.00067825
0.000724983
3.11721e-05
7.2743e-05
0.000118467
0.000164785
0.000211301
0.000257908
0.000304562
0.000351245
0.000397948
0.000444662
0.000491385
0.000538114
0.000584848
0.000631584
0.000678322
0.000725059
3.1176e-05
7.27519e-05
0.00011848
0.000164802
0.000211325
0.000257934
0.000304594
0.000351282
0.000397988
0.000444707
0.000491434
0.000538169
0.000584906
0.000631646
0.000678388
0.00072513
3.11792e-05
7.27575e-05
0.000118492
0.00016482
0.000211344
0.000257961
0.000304622
0.000351315
0.000398025
0.000444749
0.00049148
0.000538218
0.000584957
0.000631703
0.000678448
0.000725195
3.11822e-05
7.27654e-05
0.000118502
0.000164833
0.000211363
0.000257981
0.00030465
0.000351345
0.00039806
0.000444785
0.000491521
0.000538261
0.000585008
0.000631754
0.000678505
0.000725255
3.1185e-05
7.27697e-05
0.000118512
0.000164846
0.00021138
0.000258002
0.000304673
0.000351373
0.000398089
0.000444821
0.000491558
0.000538304
0.000585051
0.000631803
0.000678557
0.000725309
3.11875e-05
7.27765e-05
0.00011852
0.000164859
0.000211395
0.000258021
0.000304695
0.000351398
0.000398119
0.000444853
0.000491593
0.000538341
0.000585093
0.000631848
0.000678604
0.000725362
3.11898e-05
7.27807e-05
0.000118528
0.00016487
0.000211409
0.000258038
0.000304715
0.000351421
0.000398146
0.000444881
0.000491626
0.000538376
0.000585132
0.000631889
0.00067865
0.000725409
3.11919e-05
7.27844e-05
0.000118536
0.00016488
0.000211422
0.000258054
0.000304734
0.000351443
0.000398169
0.000444907
0.000491656
0.000538409
0.000585167
0.000631928
0.000678691
0.000725455
3.11938e-05
7.279e-05
0.000118542
0.000164889
0.000211434
0.000258069
0.000304751
0.000351462
0.000398192
0.000444934
0.000491684
0.000538441
0.0005852
0.000631964
0.00067873
0.000725496
3.11956e-05
7.27931e-05
0.000118549
0.000164898
0.000211445
0.000258082
0.000304767
0.000351481
0.000398213
0.000444957
0.000491709
0.000538468
0.000585231
0.000631998
0.000678766
0.000725535
3.11972e-05
7.27967e-05
0.000118555
0.000164906
0.000211456
0.000258095
0.000304782
0.000351498
0.000398232
0.000444979
0.000491734
0.000538494
0.000585261
0.000632029
0.0006788
0.000725573
3.11982e-05
7.27992e-05
0.00011856
0.000164914
0.000211465
0.000258107
0.000304797
0.000351514
0.000398251
0.000444999
0.000491756
0.000538521
0.000585288
0.000632059
0.000678832
0.000725607
3.12007e-05
7.28031e-05
0.000118565
0.000164921
0.000211475
0.000258118
0.000304808
0.000351529
0.000398269
0.000445018
0.000491779
0.000538544
0.000585313
0.000632087
0.000678864
0.000725639
3.12015e-05
7.28068e-05
0.000118569
0.000164927
0.000211482
0.000258128
0.000304822
0.000351543
0.000398284
0.000445038
0.000491797
0.000538566
0.000585339
0.000632114
0.000678892
0.000725671
3.12027e-05
7.2808e-05
0.000118574
0.000164934
0.000211491
0.000258138
0.000304833
0.000351557
0.000398299
0.000445054
0.000491817
0.000538588
0.00058536
0.000632139
0.000678919
0.0007257
3.12039e-05
7.28122e-05
0.000118577
0.000164939
0.000211499
0.000258147
0.000304844
0.000351571
0.000398313
0.000445071
0.000491837
0.000538607
0.000585384
0.000632163
0.000678945
0.000725728
3.12051e-05
7.28132e-05
0.000118583
0.000164945
0.000211506
0.000258156
0.000304856
0.000351581
0.000398329
0.000445086
0.000491852
0.000538627
0.000585404
0.000632185
0.000678969
0.000725754
3.12061e-05
7.28171e-05
0.000118586
0.00016495
0.000211513
0.000258165
0.000304864
0.000351594
0.000398341
0.000445101
0.00049187
0.000538645
0.000585424
0.000632207
0.000678994
0.000725779
3.12072e-05
7.28186e-05
0.00011859
0.000164957
0.000211519
0.000258173
0.000304875
0.000351604
0.000398354
0.000445116
0.000491887
0.000538662
0.000585443
0.000632229
0.000679014
0.000725803
3.12081e-05
7.28208e-05
0.000118594
0.000164961
0.000211526
0.000258182
0.000304883
0.000351616
0.000398367
0.000445129
0.000491901
0.000538679
0.000585462
0.000632247
0.000679038
0.000725827
3.12091e-05
7.28229e-05
0.000118597
0.000164965
0.000211533
0.000258188
0.000304893
0.000351626
0.000398378
0.000445142
0.000491915
0.000538695
0.000585479
0.000632268
0.000679057
0.00072585
3.121e-05
7.28249e-05
0.0001186
0.000164971
0.000211538
0.000258195
0.000304902
0.000351636
0.000398388
0.000445155
0.000491929
0.00053871
0.000585496
0.000632285
0.000679078
0.000725869
3.12103e-05
7.28268e-05
0.000118602
0.000164974
0.000211544
0.000258203
0.000304909
0.000351645
0.0003984
0.000445166
0.000491943
0.000538726
0.000585512
0.000632303
0.000679095
0.000725891
3.12122e-05
7.28279e-05
0.000118607
0.000164979
0.000211549
0.000258209
0.000304917
0.000351655
0.000398409
0.000445178
0.000491957
0.000538739
0.000585528
0.000632319
0.000679115
0.00072591
3.12125e-05
7.28312e-05
0.000118609
0.000164983
0.000211554
0.000258215
0.000304925
0.000351663
0.000398421
0.00044519
0.000491968
0.000538753
0.000585542
0.000632336
0.000679132
0.000725928
3.12132e-05
7.28322e-05
0.000118611
0.000164987
0.000211559
0.000258222
0.000304931
0.000351672
0.00039843
0.000445201
0.00049198
0.000538766
0.000585557
0.000632351
0.000679148
0.000725946
3.1214e-05
7.28339e-05
0.000118615
0.00016499
0.000211564
0.000258228
0.00030494
0.000351679
0.000398439
0.000445212
0.000491991
0.000538779
0.000585572
0.000632366
0.000679165
0.000725964
3.12147e-05
7.28355e-05
0.000118618
0.000164994
0.000211569
0.000258233
0.000304946
0.000351687
0.000398448
0.000445221
0.000492003
0.000538792
0.000585583
0.000632381
0.00067918
0.00072598
3.12153e-05
7.2837e-05
0.00011862
0.000164998
0.000211573
0.000258239
0.000304952
0.000351696
0.000398456
0.00044523
0.000492013
0.000538803
0.000585596
0.000632394
0.000679196
0.000725995
3.1216e-05
7.28384e-05
0.000118622
0.000165
0.000211577
0.000258244
0.000304959
0.000351702
0.000398464
0.00044524
0.000492024
0.000538813
0.00058561
0.000632408
0.000679208
0.000726012
3.12166e-05
7.28398e-05
0.000118625
0.000165005
0.000211581
0.000258249
0.000304964
0.000351709
0.000398474
0.000445248
0.000492032
0.000538825
0.00058562
0.000632421
0.000679223
0.000726026
3.12172e-05
7.28411e-05
0.000118627
0.000165006
0.000211586
0.000258253
0.00030497
0.000351715
0.00039848
0.000445256
0.000492042
0.000538835
0.000585632
0.000632431
0.000679236
0.000726041
3.12178e-05
7.28423e-05
0.000118629
0.00016501
0.000211589
0.000258258
0.000304975
0.000351721
0.000398486
0.000445263
0.000492051
0.000538844
0.000585642
0.000632444
0.000679249
0.000726053
3.12183e-05
7.28426e-05
0.00011863
0.000165012
0.000211592
0.000258262
0.00030498
0.000351727
0.000398493
0.000445272
0.000492059
0.000538852
0.000585651
0.000632455
0.000679259
0.000726066
3.12188e-05
7.28451e-05
0.000118631
0.000165014
0.000211595
0.000258265
0.000304984
0.000351732
0.000398499
0.000445278
0.000492066
0.000538862
0.000585661
0.000632463
0.000679271
0.000726077
3.12192e-05
7.28452e-05
0.000118634
0.000165016
0.000211597
0.000258269
0.000304988
0.000351737
0.000398504
0.000445284
0.000492073
0.000538869
0.000585669
0.000632473
0.00067928
0.000726088
3.12195e-05
7.2846e-05
0.000118635
0.000165018
0.0002116
0.000258271
0.000304991
0.00035174
0.000398508
0.000445289
0.000492078
0.000538874
0.000585676
0.000632482
0.000679289
0.000726097
3.12199e-05
7.28466e-05
0.000118636
0.000165019
0.000211601
0.000258274
0.000304994
0.000351743
0.000398512
0.000445293
0.000492083
0.000538881
0.000585682
0.000632488
0.000679296
0.000726107
3.12201e-05
7.2847e-05
0.000118636
0.00016502
0.000211603
0.000258275
0.000304996
0.000351745
0.000398514
0.000445296
0.000492087
0.000538884
0.000585687
0.000632494
0.000679304
0.000726112
3.12203e-05
7.28473e-05
0.000118637
0.000165021
0.000211604
0.000258276
0.000304997
0.000351747
0.000398516
0.000445298
0.000492089
0.000538887
0.00058569
0.000632497
0.000679307
0.000726119
3.12204e-05
7.28474e-05
0.000118637
0.000165022
0.000211604
0.000258277
0.000304997
0.000351748
0.000398517
0.000445299
0.00049209
0.000538889
0.000585692
0.000632499
0.000679309
0.000726121
3.12205e-05
7.28475e-05
0.000118637
0.000165022
0.000211604
0.000258277
0.000304998
0.000351748
0.000398518
0.0004453
0.000492091
0.000538889
0.000585692
0.000632499
0.00067931
0.000726122
3.12205e-05
7.28475e-05
0.000118637
0.000165022
0.000211604
0.000258277
0.000304998
0.000351748
0.000398518
0.0004453
0.000492091
0.000538889
0.000585692
0.000632499
0.00067931
0.000726122
3.12205e-05
)
;

boundaryField
{
    wireUpstream
    {
        type            calculated;
        value           nonuniform List<scalar> 
16
(
7.28475e-05
0.000118637
0.000165022
0.000211604
0.000258277
0.000304998
0.000351748
0.000398518
0.0004453
0.000492091
0.000538889
0.000585692
0.000632499
0.00067931
0.000726122
3.12205e-05
)
;
    }
    wireDownstream
    {
        type            calculated;
        value           nonuniform List<scalar> 
16
(
7.27884e-05
0.000118541
0.000164887
0.00021143
0.000258063
0.000304743
0.000351452
0.000398178
0.000444915
0.000491661
0.000538413
0.00058517
0.000631933
0.000678702
0.000725474
3.11952e-05
)
;
    }
    wireTopContact
    {
        type            calculated;
        value           nonuniform List<scalar> 
122
(
0.000748555
0.000748527
0.000748506
0.000748491
0.000748479
0.00074847
0.000748464
0.000748459
0.000748456
0.000748455
0.000748454
0.000748453
0.000748453
0.000748453
0.000748453
0.000748453
0.000748453
0.000748453
0.000748453
0.000748454
0.000748454
0.000748454
0.000748454
0.000748454
0.000748454
0.000748454
0.000748454
0.000748454
0.000748454
0.000748455
0.000748455
0.000748455
0.000748456
0.000748456
0.000748455
0.000748455
0.000748453
0.00074845
0.000748446
0.000748439
0.00074843
0.000748416
0.000748398
0.000748373
0.00074834
0.000748296
0.000748238
0.000748162
0.000748059
0.000747921
0.000747737
0.000747501
0.000747215
0.000746886
0.000746527
0.000746155
0.000745798
0.000745493
0.000745296
0.000745252
0.000745345
0.000745521
0.000745736
0.000745963
0.000746188
0.000746406
0.000746613
0.000746808
0.00074699
0.000747159
0.000747315
0.000747459
0.000747591
0.000747712
0.000747824
0.000747926
0.000748019
0.000748105
0.000748184
0.000748257
0.000748324
0.000748386
0.000748444
0.000748497
0.000748546
0.000748593
0.000748636
0.000748677
0.000748715
0.000748751
0.000748785
0.000748817
0.000748847
0.000748876
0.000748903
0.000748929
0.000748954
0.000748978
0.000749001
0.000749023
0.000749044
0.000749064
0.000749084
0.000749102
0.00074912
0.000749137
0.000749153
0.000749169
0.000749185
0.000749199
0.000749213
0.000749225
0.000749237
0.000749248
0.000749258
0.000749267
0.000749275
0.00074928
0.000749283
0.000749284
0.000749284
0.000748594
)
;
    }
    front
    {
        type            wedge;
    }
    back
    {
        type            wedge;
    }
}


// ************************************************************************* //
