/*--------------------------------*- C++ -*----------------------------------*\
  =========                 |
  \\      /  F ield         | OpenFOAM: The Open Source CFD Toolbox
   \\    /   O peration     | Website:  https://openfoam.org
    \\  /    A nd           | Version:  8
     \\/     M anipulation  |
\*---------------------------------------------------------------------------*/
FoamFile
{
    version     2.0;
    format      ascii;
    class       volVectorField;
    location    "0.0265000";
    object      cellDisplacement;
}
// * * * * * * * * * * * * * * * * * * * * * * * * * * * * * * * * * * * * * //

dimensions      [0 1 0 0 0 0 0];

internalField   nonuniform List<vector> 
900
(
(5.68499310442512e-29 -3.94339223826786e-07 -2.26975104909583e-14)
(5.50450124290946e-29 -3.96647915957192e-07 -2.1261643094083e-14)
(5.55425117531882e-29 -4.00934166584529e-07 -2.6060546211069e-15)
(5.3571657729811e-29 -4.06149091523182e-07 -2.6548038680877e-14)
(5.39259703881664e-29 -4.11923112628574e-07 3.57341071284865e-14)
(5.18100550741665e-29 -4.18316784785013e-07 9.59306418701677e-14)
(5.21284294348412e-29 -4.2532075204994e-07 5.55153473088327e-14)
(5.01014606328385e-29 -4.32786967732681e-07 1.97023542194998e-14)
(5.03994264644973e-29 -4.4067921116687e-07 4.26838919503264e-14)
(4.84561460389059e-29 -4.49059466127806e-07 3.66488442134828e-14)
(4.87298432003473e-29 -4.57867221522309e-07 -6.76336749488057e-15)
(4.68589576294219e-29 -4.66997043609873e-07 -6.37609128582041e-16)
(4.7101374700961e-29 -4.76517240842495e-07 3.39465386856402e-14)
(4.53014176872797e-29 -4.86437048872287e-07 -2.51417022043059e-14)
(4.550725095779e-29 -4.96669161902105e-07 -5.62579580495988e-14)
(4.37713307128547e-29 -5.07217202418151e-07 8.35370441660897e-15)
(4.39424722445834e-29 -5.18148244201644e-07 4.93138359469307e-15)
(4.2268366815254e-29 -5.29430422370516e-07 -5.05257192244887e-14)
(4.23990592542597e-29 -5.4099252229487e-07 -4.65300591241285e-14)
(4.07843830213343e-29 -5.52924477019072e-07 3.15876192489818e-14)
(4.08768848278995e-29 -5.65245824325036e-07 1.94571688595463e-14)
(3.93180683355413e-29 -5.77874547184386e-07 6.04762837560797e-15)
(3.93719363022258e-29 -5.90846332739691e-07 -2.13961907350562e-15)
(3.78699596211777e-29 -6.04235955576246e-07 -1.38834664825933e-14)
(3.78852869025457e-29 -6.18012218761308e-07 4.83344181163533e-14)
(3.64371807710182e-29 -6.32117671704626e-07 9.36859437195128e-14)
(3.64184111455451e-29 -6.46679613351738e-07 4.87486546271525e-14)
(3.50232029016656e-29 -6.61722618309085e-07 -1.21113752238019e-15)
(3.49659587246211e-29 -6.77145653085434e-07 -7.38130681990534e-15)
(3.36227685258389e-29 -6.93027076259792e-07 -4.12665755132154e-15)
(3.3534270370849e-29 -7.0945729395462e-07 2.97426840069624e-15)
(3.22409100812309e-29 -7.26390120587813e-07 -8.60493763794426e-16)
(3.21185289706189e-29 -7.43786538870241e-07 -2.84260351316324e-14)
(3.08766433349478e-29 -7.61827909191503e-07 -2.79997989017492e-14)
(3.07229099059693e-29 -7.8053778119992e-07 -3.18400383881358e-14)
(2.95284629509942e-29 -7.99786444892701e-07 -3.6890998167795e-14)
(2.93468145118259e-29 -8.19740127197753e-07 2.10639860207516e-15)
(2.82010396452217e-29 -8.40529507563058e-07 -4.93229737559491e-14)
(2.79910864672732e-29 -8.62067395129406e-07 -2.89956568943447e-14)
(2.68935328753286e-29 -8.84359188767485e-07 5.67380028802009e-14)
(2.66591491997334e-29 -9.07691019476645e-07 4.66735351748061e-14)
(2.56052728621156e-29 -9.32094709628386e-07 -4.44642326394631e-14)
(2.53482144152195e-29 -9.57398631609995e-07 -8.79234106439234e-14)
(2.43449973641183e-29 -9.83951097582319e-07 9.25300876210366e-15)
(2.40670071968868e-29 -1.01197183633515e-06 9.22273333355068e-15)
(2.31062513580653e-29 -1.04129106535751e-06 -2.31004248824128e-14)
(2.28966192081836e-29 -1.0720491073291e-06 -2.41072746703919e-14)
(2.24143027525985e-29 -1.10475138262061e-06 8.26595030265974e-15)
(2.0189761002069e-29 -1.13943339408163e-06 2.14833654416034e-14)
(2.07665140056556e-29 -1.17585763202627e-06 2.30872654677457e-14)
(1.90692808589753e-29 -1.21484490143913e-06 3.57408987897726e-14)
(1.95919239128499e-29 -1.25677228119578e-06 -1.66095928276206e-14)
(1.79670800310028e-29 -1.30121917861993e-06 -5.75853117131398e-14)
(1.84447907758193e-29 -1.34876459673382e-06 -4.01209133101513e-14)
(1.68929929380044e-29 -1.40036676929195e-06 6.22054805129419e-14)
(1.73180901535595e-29 -1.45595774277398e-06 9.37594600205884e-14)
(1.58377092645142e-29 -1.5152460577381e-06 9.47555341882e-14)
(1.62170813900353e-29 -1.5801771261287e-06 3.28370067280733e-14)
(1.48004452877207e-29 -1.65134426900509e-06 -3.32360798548505e-14)
(1.5130580538735e-29 -1.72767014982119e-06 -1.55476506865805e-14)
(1.37842394951489e-29 -1.81101597398055e-06 -4.87616609625079e-14)
(1.40647588480001e-29 -1.9030850186531e-06 -3.81201486782416e-14)
(1.27794910251253e-29 -2.0032834663613e-06 -5.47777897225797e-14)
(1.30151764285003e-29 -2.11197536906316e-06 -7.01729590118335e-14)
(1.17855965798577e-29 -2.23273342421229e-06 2.13993340967713e-14)
(1.19673957960722e-29 -2.3661926374148e-06 3.67061140652334e-14)
(1.07989628396789e-29 -2.51057296250676e-06 -6.11705371586951e-16)
(1.09322005503578e-29 -2.67079507668881e-06 -1.35301566719351e-14)
(9.81269372655132e-30 -2.84977866265827e-06 9.61191290806975e-15)
(9.89232035285872e-30 -3.04608330678545e-06 5.36954983462673e-14)
(8.82507291290678e-30 -3.26523470750907e-06 1.03919797043922e-14)
(8.84651320924705e-30 -3.52074241768325e-06 -1.05889691012598e-13)
(7.82493600818646e-30 -3.81632802867485e-06 -8.68676302706426e-14)
(7.79235116167609e-30 -4.14896805196218e-06 2.78289296479171e-14)
(6.81775909750334e-30 -4.52784737466601e-06 -2.85649743390769e-14)
(6.72671896728743e-30 -4.94326840649298e-06 -2.45611082500731e-14)
(5.79978950582192e-30 -5.37619894198803e-06 1.49147719326874e-16)
(5.65026848445166e-30 -5.82059021396675e-06 -1.746271018306e-14)
(4.77327527237964e-30 -6.26246962303479e-06 7.63388860802538e-14)
(4.56908331280144e-30 -6.68922055466316e-06 5.99710705840918e-14)
(3.74342400893759e-30 -7.09077743849237e-06 -2.46410060168334e-14)
(3.49284273657444e-30 -7.44465685999542e-06 -1.07959391183801e-14)
(2.72425621326164e-30 -7.73924343801042e-06 2.60190239899693e-14)
(2.41481157629626e-30 -7.97500817444897e-06 -2.82267035231057e-14)
(1.72072267128484e-30 -8.11415132257171e-06 -4.60028940956294e-14)
(1.40079328727456e-30 -8.14957791690213e-06 -4.18304091294349e-15)
(1.02152414455823e-30 -8.11425220452872e-06 7.46761796885752e-14)
(9.02001739189517e-31 -8.01764683499902e-06 1.05960438881084e-13)
(8.4888495791903e-31 -7.87573848249727e-06 3.15398673666247e-14)
(7.36971896353157e-31 -7.70773910602363e-06 -2.6976336656413e-14)
(6.79883956486813e-31 -7.52110003816317e-06 -1.69586928721726e-14)
(5.86495625971404e-31 -7.3200882724644e-06 4.16660320133909e-14)
(5.39383637161878e-31 -7.1117302513179e-06 4.86268616002871e-14)
(4.66891028078916e-31 -6.90056597051741e-06 1.67827982322066e-14)
(4.3297734172886e-31 -6.69054734524664e-06 7.24476433869683e-15)
(3.7739991862324e-31 -6.48623656566768e-06 -3.84677729479525e-14)
(3.56970409234259e-31 -6.28950882213941e-06 -4.87485186398887e-16)
(3.16755202159267e-31 -6.10528971560339e-06 4.83392794129503e-14)
(3.05878283534599e-31 -5.9401643871814e-06 2.63288624084184e-14)
(2.73494265091024e-31 -5.79678935484414e-06 3.32533386250349e-15)
(1.48905254277921e-28 -9.56180602307238e-07 -6.68822818373552e-14)
(1.44175679865132e-28 -9.57657235760074e-07 -6.27332956777194e-14)
(1.45385075919583e-28 -9.60934690770621e-07 -7.63119453321022e-15)
(1.40093285911092e-28 -9.65020404801583e-07 -7.84520523468143e-14)
(1.40945582998003e-28 -9.69594102265224e-07 1.05009150638546e-13)
(1.35285005082688e-28 -9.74710021809485e-07 2.82955723929373e-13)
(1.36041450535358e-28 -9.80360151319302e-07 1.63994208738387e-13)
(1.30605212446248e-28 -9.86414818246507e-07 5.81298688837973e-14)
(1.31305173988878e-28 -9.92842703392758e-07 1.25938908803219e-13)
(1.26082558161802e-28 -9.99698543874077e-07 1.08351708645535e-13)
(1.26717927450969e-28 -1.00692932711293e-06 -1.98910390073788e-14)
(1.21684404293824e-28 -1.01444261740789e-06 -2.02101152903887e-15)
(1.22240523499488e-28 -1.02229884706316e-06 1.00395050722087e-13)
(1.17392332762634e-28 -1.03050621592845e-06 -7.40267434030889e-14)
(1.1785803531319e-28 -1.03898803724576e-06 -1.66384963357383e-13)
(1.13180206524114e-28 -1.04774773320887e-06 2.45501105944954e-14)
(1.13559887533928e-28 -1.05684449610933e-06 1.47769174079184e-14)
(1.09047050586099e-28 -1.06625034469304e-06 -1.49267243028729e-13)
(1.09328754263271e-28 -1.07590257774967e-06 -1.37873504401314e-13)
(1.04975516236483e-28 -1.0858806888239e-06 9.3286604452247e-14)
(1.05164412271506e-28 -1.09620192464242e-06 5.76351362071782e-14)
(1.00962640143638e-28 -1.10679396351837e-06 1.79537644201813e-14)
(1.01058251349874e-28 -1.11768846554316e-06 -6.27390419812368e-15)
(9.70096594731954e-29 -1.12895143719694e-06 -4.12741583071389e-14)
(9.70126924045904e-29 -1.14055539543191e-06 1.42811010895274e-13)
(9.31106468810611e-29 -1.15244953181519e-06 2.77476332176218e-13)
(9.30309568019249e-29 -1.16474641996434e-06 1.44660151625653e-13)
(8.92728471837542e-29 -1.17746777335497e-06 -3.44878263458402e-15)
(8.91016373529172e-29 -1.19052417493424e-06 -2.18674974434076e-14)
(8.54852685785724e-29 -1.20398506514325e-06 -1.22606418772164e-14)
(8.52384549304376e-29 -1.21793032492796e-06 8.811681978971e-15)
(8.17587846610346e-29 -1.23231909103163e-06 -2.45646591013332e-15)
(8.14312963162803e-29 -1.24711659213334e-06 -8.42341539831033e-14)
(7.80913238692208e-29 -1.26248342920835e-06 -8.3041259890224e-14)
(7.76891260143542e-29 -1.27844042784039e-06 -9.44370289207177e-14)
(7.44799159647686e-29 -1.29487220932601e-06 -1.09574712903886e-13)
(7.4010887657046e-29 -1.31192618536703e-06 6.31160778522202e-15)
(7.09346335990507e-29 -1.32971797100428e-06 -1.46353755042519e-13)
(7.03985984332639e-29 -1.3481699508791e-06 -8.63961758100207e-14)
(6.74539707761587e-29 -1.36728633384733e-06 1.68318960502332e-13)
(6.68596657393239e-29 -1.38732081587134e-06 1.3892849910705e-13)
(6.40366148576739e-29 -1.40830150901485e-06 -1.31751626495211e-13)
(6.33888224802873e-29 -1.43007461167202e-06 -2.61443937178994e-13)
(6.07019546274288e-29 -1.45294925636081e-06 2.72630590612678e-14)
(6.00052867366767e-29 -1.47712017894901e-06 2.75092822435242e-14)
(5.7436830217745e-29 -1.50243517691024e-06 -6.86031413345356e-14)
(5.68929862370424e-29 -1.52901756732322e-06 -7.17830558675193e-14)
(5.55496559543311e-29 -1.55731592322759e-06 2.44700933558541e-14)
(4.99863903865473e-29 -1.58736133224185e-06 6.38786414772303e-14)
(5.13602588160454e-29 -1.61893837621553e-06 6.86626262211706e-14)
(4.70465640733334e-29 -1.65277642778939e-06 1.06491863699424e-13)
(4.82936045567202e-29 -1.68921055498923e-06 -4.92008839212318e-14)
(4.41689377879365e-29 -1.72786137749525e-06 -1.71407678387522e-13)
(4.53085454215115e-29 -1.76924166200907e-06 -1.1981235704677e-13)
(4.13739583687637e-29 -1.8142029891132e-06 1.84947442502185e-13)
(4.23907469525798e-29 -1.86268288495288e-06 2.79255194766478e-13)
(3.86419109909628e-29 -1.91441065976748e-06 2.82534679532146e-13)
(3.95504341745428e-29 -1.97111775948577e-06 9.82148416969465e-14)
(3.59711039359361e-29 -2.03333416288834e-06 -9.89575554430593e-14)
(3.67643178974196e-29 -2.10008233135149e-06 -4.63139555519297e-14)
(3.33671602112709e-29 -2.17301826289322e-06 -1.45368542929465e-13)
(3.40453179622899e-29 -2.25365891494828e-06 -1.13691761228287e-13)
(3.08104639689408e-29 -2.34146397678142e-06 -1.6334293105201e-13)
(3.1382434934068e-29 -2.43673933881674e-06 -2.09623809060483e-13)
(2.82986837393626e-29 -2.54266436565283e-06 6.35799301441034e-14)
(2.87460222611203e-29 -2.65981084253667e-06 1.09640380323725e-13)
(2.58229138957349e-29 -2.78655285963084e-06 -1.68908907845132e-15)
(2.61568111855115e-29 -2.92726041626186e-06 -4.04413704723537e-14)
(2.33695804823299e-29 -3.08454763140259e-06 2.85211737004936e-14)
(2.35779195350606e-29 -3.25707823077463e-06 1.60446046537803e-13)
(2.09317904581123e-29 -3.44970922700268e-06 3.15213398856121e-14)
(2.10066911416036e-29 -3.67439209131483e-06 -3.16347244640496e-13)
(1.84871067325606e-29 -3.93447610254348e-06 -2.60200410075921e-13)
(1.84345085475612e-29 -4.22719529444085e-06 8.30804918774365e-14)
(1.60462068614097e-29 -4.56059093807958e-06 -8.52757247233057e-14)
(1.58564864303315e-29 -4.92635834596324e-06 -7.35432009353669e-14)
(1.35996001149595e-29 -5.30749018044296e-06 4.21735386210491e-16)
(1.32743892021846e-29 -5.69867781343519e-06 -5.24516511345624e-14)
(1.11518315088475e-29 -6.08771013756517e-06 2.27862944185553e-13)
(1.06989143117234e-29 -6.4633471995524e-06 1.79457630004814e-13)
(8.72133670303583e-30 -6.81657241488919e-06 -7.33064401057451e-14)
(8.14286392496429e-30 -7.12800965825921e-06 -3.23384047700929e-14)
(6.32675321627291e-30 -7.38724239045365e-06 7.76274487205895e-14)
(5.63583577179503e-30 -7.59360952186429e-06 -8.37378163171588e-14)
(3.99516493677126e-30 -7.71564623025337e-06 -1.36756134721788e-13)
(3.30202272486647e-30 -7.74753522256731e-06 -1.26952748588787e-14)
(2.41306731198632e-30 -7.71686372632214e-06 2.22051701021822e-13)
(2.13835794343776e-30 -7.63253021078911e-06 3.15700329359422e-13)
(2.02347581064485e-30 -7.50845046134262e-06 9.42257313362241e-14)
(1.75472022725052e-30 -7.3609578117072e-06 -8.04563720228116e-14)
(1.63542760956866e-30 -7.1968665542779e-06 -5.0693769254862e-14)
(1.40647013384286e-30 -7.02016802227569e-06 1.24414709125375e-13)
(1.30728807702882e-30 -6.83690879802165e-06 1.45332616408517e-13)
(1.13092800357089e-30 -6.65108682006082e-06 5.0192097162619e-14)
(1.05357310475281e-30 -6.46627246193051e-06 2.16915176769204e-14)
(9.21418001871174e-31 -6.28638378412978e-06 -1.15069922914112e-13)
(8.7796326273788e-31 -6.11317080547935e-06 -1.4671414546157e-15)
(7.78205570308675e-31 -5.95100112894008e-06 1.44750906220557e-13)
(7.5665306989724e-31 -5.8055733790996e-06 7.88664790970707e-14)
(6.75544384898217e-31 -5.68034998837263e-06 9.94618555787234e-15)
(2.27038041189506e-28 -1.50561638923652e-06 -1.10107038057637e-13)
(2.19516749648306e-28 -1.5064208756031e-06 -1.03517248583641e-13)
(2.2147865878629e-28 -1.50884241843291e-06 -1.23989886287473e-14)
(2.1293867032005e-28 -1.5119575547483e-06 -1.29775147578408e-13)
(2.14402466079179e-28 -1.51549228767026e-06 1.71786120247426e-13)
(2.05393664621189e-28 -1.51949260937706e-06 4.66134890973846e-13)
(2.06710884617473e-28 -1.5239516855331e-06 2.70864099864676e-13)
(1.98036669511053e-28 -1.52875871574419e-06 9.57576316012689e-14)
(1.99254839958756e-28 -1.53388693377327e-06 2.07438778653133e-13)
(1.90901720086988e-28 -1.53938314793553e-06 1.79106743711559e-13)
(1.92011880374805e-28 -1.54520205622127e-06 -3.25560439161985e-14)
(1.83948555803706e-28 -1.55126468096029e-06 -3.75817181101425e-15)
(1.84933975534661e-28 -1.55762272444738e-06 1.65938787623336e-13)
(1.77154841747581e-28 -1.56428328221761e-06 -1.21329762574218e-13)
(1.78002604534594e-28 -1.57118081051188e-06 -2.74886342627834e-13)
(1.70488732237308e-28 -1.57831830090831e-06 4.00928277547377e-14)
(1.71205220883047e-28 -1.58574652614947e-06 2.49784721735263e-14)
(1.63949051869455e-28 -1.59344160653286e-06 -2.45945943193423e-13)
(1.64520430384493e-28 -1.60134996538669e-06 -2.28333718887194e-13)
(1.57515016425019e-28 -1.60953977072834e-06 1.53559986465153e-13)
(1.57948412105063e-28 -1.6180259214503e-06 9.5345398875131e-14)
(1.51182978898756e-28 -1.62674656673335e-06 2.98074841788275e-14)
(1.514786544499e-28 -1.63572893790864e-06 -1.01895483953794e-14)
(1.44954967347646e-28 -1.64502976252885e-06 -6.86726979522628e-14)
(1.45114688749727e-28 -1.65462559847432e-06 2.3502328822403e-13)
(1.38824210149659e-28 -1.66447303947809e-06 4.58447971620622e-13)
(1.38860753988995e-28 -1.67466876996807e-06 2.39725865247008e-13)
(1.32799598796672e-28 -1.68523159167071e-06 -5.32103822765369e-15)
(1.3270314112312e-28 -1.69608495731691e-06 -3.6124011264975e-14)
(1.26868333076563e-28 -1.70728858761258e-06 -2.03463444896053e-14)
(1.2665925966984e-28 -1.71891125933677e-06 1.45529682093033e-14)
(1.21044079611048e-28 -1.73091807409792e-06 -3.8001831768921e-15)
(1.20717041537977e-28 -1.74327938960703e-06 -1.39102813673049e-13)
(1.15324717862452e-28 -1.75613334126467e-06 -1.37288473078921e-13)
(1.14887988795001e-28 -1.76949807890843e-06 -1.56118057143706e-13)
(1.09707053172813e-28 -1.7832747217856e-06 -1.81531576630376e-13)
(1.09171243411098e-28 -1.79759015233384e-06 1.06159844317069e-14)
(1.04203933581107e-28 -1.81254408159702e-06 -2.41996018523062e-13)
(1.03569804379713e-28 -1.82807009215343e-06 -1.43754878396786e-13)
(9.88141349812237e-29 -1.84417209241203e-06 2.78131483870523e-13)
(9.80933438317425e-29 -1.8610686067974e-06 2.3070648706422e-13)
(9.35362391719488e-29 -1.87878426459271e-06 -2.17246959391154e-13)
(9.27359125277301e-29 -1.89718714947015e-06 -4.33330262834069e-13)
(8.83952421842239e-29 -1.91654360277907e-06 4.45806756206296e-14)
(8.7522419938801e-29 -1.93702183065101e-06 4.57893303986044e-14)
(8.33757111833907e-29 -1.95849138837666e-06 -1.13440645853651e-13)
(8.2669765583749e-29 -1.98105888259223e-06 -1.19135621233184e-13)
(8.02455899189261e-29 -2.00511122839684e-06 4.02702428334073e-14)
(7.26910701362338e-29 -2.03067604992706e-06 1.05766972311503e-13)
(7.41589202687834e-29 -2.05756847990103e-06 1.13702444119934e-13)
(6.81640277745847e-29 -2.08641749375794e-06 1.76787241099984e-13)
(6.94812634135295e-29 -2.11751310269725e-06 -8.10127646842668e-14)
(6.37506410416422e-29 -2.15052940016565e-06 -2.84081234601919e-13)
(6.49414206595472e-29 -2.18590900644808e-06 -1.99412327966669e-13)
(5.94763653520842e-29 -2.22438748729881e-06 3.05986250737649e-13)
(6.05221744944336e-29 -2.2659126488865e-06 4.63022967386036e-13)
(5.531721219063e-29 -2.31025211970833e-06 4.69075936280296e-13)
(5.62359849682256e-29 -2.35890040837532e-06 1.63672722749355e-13)
(5.12712732393355e-29 -2.41231757658281e-06 -1.63965476621031e-13)
(5.20548946107478e-29 -2.46966191508326e-06 -7.67646534433689e-14)
(4.73456089693362e-29 -2.53236318334596e-06 -2.41184615020663e-13)
(4.79945372809415e-29 -2.60173379358857e-06 -1.88700231860242e-13)
(4.35166927389454e-29 -2.67731050775145e-06 -2.71029284189163e-13)
(4.40413386848433e-29 -2.75935837534749e-06 -3.48524799997927e-13)
(3.97807506528587e-29 -2.8506249592714e-06 1.05049493376742e-13)
(4.01590757905952e-29 -2.95160946621617e-06 1.82233424513128e-13)
(3.61270084670532e-29 -3.06090957186068e-06 -2.54895854033171e-15)
(3.63719931756058e-29 -3.18230029970755e-06 -6.72528520524133e-14)
(3.25384754398755e-29 -3.31804702999364e-06 4.70498294501064e-14)
(3.26351939627093e-29 -3.46699869134327e-06 2.66679018241321e-13)
(2.90054722096186e-29 -3.6333485848851e-06 5.32348579930269e-14)
(2.89435734397928e-29 -3.82742997776057e-06 -5.25599012081931e-13)
(2.5500670241033e-29 -4.05215303789988e-06 -4.33431760232491e-13)
(2.52864769996975e-29 -4.30512818872965e-06 1.37914420613884e-13)
(2.20353894934005e-29 -4.59331224497223e-06 -1.41593492298529e-13)
(2.16575386707959e-29 -4.90954719092058e-06 -1.22442316987955e-13)
(1.85981508397748e-29 -5.23912640295956e-06 6.6672056010891e-16)
(1.80577256923487e-29 -5.57745134724375e-06 -8.75568006605508e-14)
(1.51945681678206e-29 -5.91396511183555e-06 3.7827391549596e-13)
(1.45001647792637e-29 -6.23893899680339e-06 2.98570572891089e-13)
(1.18460833688037e-29 -6.544573688546e-06 -1.21378403625794e-13)
(1.10044276552493e-29 -6.81411217596074e-06 -5.38632604652545e-14)
(8.57527161111073e-30 -7.03851788572378e-06 1.28811944801027e-13)
(7.5989044778453e-30 -7.21719440151413e-06 -1.38398537256237e-13)
(5.42585080852813e-30 -7.32297101435594e-06 -2.26245809687675e-13)
(4.45334369261752e-30 -7.35081527037708e-06 -2.13940030187785e-14)
(3.28990240746828e-30 -7.32455527691299e-06 3.67347026584174e-13)
(2.92265603105518e-30 -7.25170824951152e-06 5.23197598329736e-13)
(2.77939964611919e-30 -7.14447257316278e-06 1.56552858486493e-13)
(2.42164917270204e-30 -7.01695342730465e-06 -1.33446714710643e-13)
(2.26688786097653e-30 -6.87505024232379e-06 -8.42585883496188e-14)
(1.96105800167444e-30 -6.72222391958463e-06 2.0655174087475e-13)
(1.83079091897293e-30 -6.56370162111012e-06 2.41489057694724e-13)
(1.59260417627001e-30 -6.40294197757385e-06 8.34569153375265e-14)
(1.49316475581254e-30 -6.24303660068847e-06 3.61056904760034e-14)
(1.31344129648909e-30 -6.08737589731984e-06 -1.91346048354831e-13)
(1.25607241347333e-30 -5.93747808292953e-06 -2.48495560913121e-15)
(1.12161097199364e-30 -5.79712631610967e-06 2.40906560408453e-13)
(1.09359605566996e-30 -5.67125938750821e-06 1.31300715496527e-13)
(9.90437687002509e-31 -5.56287426934699e-06 1.67478005814368e-14)
(2.86591850148582e-28 -2.04314675585916e-06 -1.52419103584514e-13)
(2.76985176270513e-28 -2.0434352117521e-06 -1.43788036271458e-13)
(2.79423220673e-28 -2.04514625283733e-06 -1.68173888135409e-14)
(2.68390632825442e-28 -2.04743916168275e-06 -1.80883351424096e-13)
(2.70241413399178e-28 -2.05008426535351e-06 2.35472293682188e-13)
(2.58694103548887e-28 -2.05311952718702e-06 6.45644007018216e-13)
(2.6036182593623e-28 -2.05653938309221e-06 3.76598717183211e-13)
(2.49224107815199e-28 -2.06025135308414e-06 1.32606531563158e-13)
(2.50759810513131e-28 -2.06423298205788e-06 2.87193984422978e-13)
(2.40017404129291e-28 -2.06852340415126e-06 2.49258673783546e-13)
(2.4141264400544e-28 -2.07308489378125e-06 -4.46394613370127e-14)
(2.31031560348176e-28 -2.07785145414978e-06 -6.08474935909404e-15)
(2.32269921808325e-28 -2.08286624986493e-06 2.308439884796e-13)
(2.2224343244691e-28 -2.08813536198914e-06 -1.66681109604624e-13)
(2.23312057691607e-28 -2.0936040633698e-06 -3.82090730540015e-13)
(2.13619781649912e-28 -2.09927483031649e-06 5.47766821641259e-14)
(2.14526428924242e-28 -2.10519022648717e-06 3.58621082842855e-14)
(2.05159545280547e-28 -2.11133041384005e-06 -3.40441142943842e-13)
(2.0589043508218e-28 -2.11765060519786e-06 -3.18398742437928e-13)
(1.96841416007706e-28 -2.12420786272753e-06 2.12235868118076e-13)
(1.97404892251508e-28 -2.13101483852261e-06 1.32717003643033e-13)
(1.88661654287905e-28 -2.13801984877249e-06 4.1702272113681e-14)
(1.89058847462463e-28 -2.14524569953081e-06 -1.37974366526401e-14)
(1.80623020370805e-28 -2.15274004222439e-06 -9.6360454437441e-14)
(1.80856717830951e-28 -2.1604834028787e-06 3.24588583786349e-13)
(1.72718958189815e-28 -2.16843947928097e-06 6.36750218590766e-13)
(1.72803363243514e-28 -2.17668934784221e-06 3.34366885273902e-13)
(1.64958999913831e-28 -2.18524900530915e-06 -6.64045132632421e-15)
(1.648847032972e-28 -2.19405441078458e-06 -5.01504847804237e-14)
(1.57330382884144e-28 -2.20315565243713e-06 -2.84288288580915e-14)
(1.5711983242624e-28 -2.21261061687591e-06 2.01940899074585e-14)
(1.49848013228811e-28 -2.222390240098e-06 -4.76248593087778e-15)
(1.49496401443294e-28 -2.2324697396511e-06 -1.9297240753706e-13)
(1.42510149925932e-28 -2.24296513787523e-06 -1.90745750654723e-13)
(1.42027212654923e-28 -2.25389199571201e-06 -2.16871370514205e-13)
(1.35313964990127e-28 -2.26516747614246e-06 -2.52927668515599e-13)
(1.34711881731266e-28 -2.27689814755001e-06 1.51116864591033e-14)
(1.28273649605636e-28 -2.28916808646725e-06 -3.36211850281605e-13)
(1.27554174333302e-28 -2.30192181643979e-06 -2.01461421319416e-13)
(1.21388594117908e-28 -2.31516271723772e-06 3.86009512972907e-13)
(1.20565062950002e-28 -2.32907461097116e-06 3.22378666208771e-13)
(1.14657636109936e-28 -2.34367871040971e-06 -3.00582160819168e-13)
(1.13738788863734e-28 -2.35886438545958e-06 -6.03841144434435e-13)
(1.08108518286876e-28 -2.37485561327976e-06 6.09665556092917e-14)
(1.07103219068592e-28 -2.39179444157804e-06 6.41690294656887e-14)
(1.01725656619708e-28 -2.40957168795875e-06 -1.57540625781982e-13)
(1.00882854744592e-28 -2.4282771289923e-06 -1.662701657828e-13)
(9.75403804370898e-29 -2.44823671252297e-06 5.5554950739572e-14)
(8.87754823492567e-29 -2.46947458184319e-06 1.47121293360805e-13)
(9.00858016374498e-29 -2.49183552785316e-06 1.58173453880794e-13)
(8.30128972168734e-29 -2.51584908501421e-06 2.46752995932152e-13)
(8.41696870312731e-29 -2.54176069249816e-06 -1.11829574443656e-13)
(7.74097564044872e-29 -2.56929680608784e-06 -3.95578355338536e-13)
(7.84391766955619e-29 -2.59883017730396e-06 -2.79220029469429e-13)
(7.19937796695192e-29 -2.63098143247543e-06 4.25056164479974e-13)
(7.28764983783304e-29 -2.6657082787948e-06 6.45017187127229e-13)
(6.67397322774337e-29 -2.70281533574888e-06 6.54528262024801e-13)
(6.74951697766e-29 -2.74356215010378e-06 2.29472648797163e-13)
(6.16460588850625e-29 -2.78833934175542e-06 -2.28184921781726e-13)
(6.22659982345375e-29 -2.83643874669339e-06 -1.06862097203719e-13)
(5.67206590054759e-29 -2.88906524382284e-06 -3.36174888021056e-13)
(5.7205920684115e-29 -2.94732809811235e-06 -2.63130527776539e-13)
(5.19390198104943e-29 -3.01083958402514e-06 -3.77780315520844e-13)
(5.2300643920906e-29 -3.07982309578835e-06 -4.86994104448623e-13)
(4.72969797003163e-29 -3.15659723107599e-06 1.45644539584859e-13)
(4.7511756970404e-29 -3.24158835945734e-06 2.54515157756421e-13)
(4.27831486564026e-29 -3.33361448218487e-06 -3.12491301451381e-15)
(4.28647884737524e-29 -3.43585926667528e-06 -9.39719240342313e-14)
(3.83795558664545e-29 -3.55024056195085e-06 6.51055073804799e-14)
(3.83119872603737e-29 -3.67578949312289e-06 3.72349178897781e-13)
(3.40752236379778e-29 -3.81603910879646e-06 7.56826409434524e-14)
(3.38470307876966e-29 -3.97971325079265e-06 -7.33316648819926e-13)
(2.98409926341554e-29 -4.16928247232145e-06 -6.06517657110738e-13)
(2.94583677673691e-29 -4.38273004056281e-06 1.92214618787376e-13)
(2.56880568606544e-29 -4.62593259698203e-06 -1.97404213210448e-13)
(2.51388916077194e-29 -4.8928683828401e-06 -1.71266355795721e-13)
(2.16039747398201e-29 -5.17112043712227e-06 8.80611599813538e-16)
(2.08887919205476e-29 -5.45680004701736e-06 -1.22869534413587e-13)
(1.75944542675319e-29 -5.74099720606116e-06 5.27729220860095e-13)
(1.67218189856039e-29 -6.01549282817782e-06 4.17640281549214e-13)
(1.36815340406866e-29 -6.27370433576404e-06 -1.68968891148463e-13)
(1.26606019703299e-29 -6.50147983012301e-06 -7.55021434124908e-14)
(9.88903383928802e-30 -6.69117195142626e-06 1.79860002614894e-13)
(8.73094708746846e-30 -6.84228056504639e-06 -1.92595601795769e-13)
(6.26759156716055e-30 -6.93185479162051e-06 -3.15456300291437e-13)
(5.12095743755896e-30 -6.95561392244107e-06 -3.04089669440186e-14)
(3.8066151722721e-30 -6.93365940378978e-06 5.1192769714574e-13)
(3.38980846933094e-30 -6.87218664022403e-06 7.30048466335773e-13)
(3.23538997898835e-30 -6.78165934800672e-06 2.18866678125154e-13)
(2.82997718410452e-30 -6.67399164470812e-06 -1.86213221354666e-13)
(2.65912249689845e-30 -6.55416452058469e-06 -1.17804044201207e-13)
(2.31158813115612e-30 -6.42509919873376e-06 2.88393444834125e-13)
(2.166538939594e-30 -6.29120944600889e-06 3.37411476235678e-13)
(1.89422862637893e-30 -6.15541642721998e-06 1.16667624522478e-13)
(1.78423330357344e-30 -6.02033200286723e-06 5.05200426188683e-14)
(1.57791941786661e-30 -5.88882169525885e-06 -2.6744418619782e-13)
(1.51367412515533e-30 -5.76216948539004e-06 -3.53310498826096e-15)
(1.3597328976668e-30 -5.64357404772901e-06 3.36855117847749e-13)
(1.32853366128732e-30 -5.53721103462378e-06 1.83640324217554e-13)
(1.21344794908744e-30 -5.44560403385354e-06 2.35392946309033e-14)
(3.13563241959089e-28 -2.56926613628051e-06 -1.93862796846317e-13)
(3.03694295583038e-28 -2.56918897876303e-06 -1.8371765416166e-13)
(3.05519817802648e-28 -2.57032435768681e-06 -2.07934266243112e-14)
(2.9393877320827e-28 -2.571932506537e-06 -2.32120176891967e-13)
(2.95217955584402e-28 -2.57382647551524e-06 2.95485072743696e-13)
(2.83178980301999e-28 -2.57603645909689e-06 8.21639258086765e-13)
(2.84289643639454e-28 -2.57855818334322e-06 4.81661148183051e-13)
(2.72656139146218e-28 -2.58131697951239e-06 1.6870347478302e-13)
(2.73642803370875e-28 -2.58429453247367e-06 3.65210010373863e-13)
(2.62401899322773e-28 -2.58752251828295e-06 3.19141430711862e-13)
(2.6325738310444e-28 -2.59097062021939e-06 -5.60174067470354e-14)
(2.52377778241982e-28 -2.59458542170226e-06 -9.23264477688527e-15)
(2.53087972247385e-28 -2.59840174591988e-06 2.95361421315096e-13)
(2.4256340730361e-28 -2.60242469981316e-06 -2.0971289469031e-13)
(2.43116948530644e-28 -2.60661007558243e-06 -4.88311407727861e-13)
(2.32929047972598e-28 -2.61095979092462e-06 6.83927670728176e-14)
(2.33333711005552e-28 -2.61550838159664e-06 4.7741368168917e-14)
(2.23474163272266e-28 -2.62023996226204e-06 -4.32625026041394e-13)
(2.23717815853022e-28 -2.62511825853079e-06 -4.08541585916825e-13)
(2.14180184743102e-28 -2.63018944518696e-06 2.69139390811397e-13)
(2.14270927251362e-28 -2.63546397948412e-06 1.69873100663269e-13)
(2.05043990614543e-28 -2.64090007199065e-06 5.37298314341993e-14)
(2.04983337331178e-28 -2.64651613887312e-06 -1.7005707848623e-14)
(1.96068943847159e-28 -2.65235092376955e-06 -1.24606361013354e-13)
(1.95860015786298e-28 -2.65838882675418e-06 4.1112867233493e-13)
(1.87249843962814e-28 -2.66460041401001e-06 8.12521397470424e-13)
(1.86905943445873e-28 -2.67105142187531e-06 4.28995490256831e-13)
(1.78595740353056e-28 -2.67775509105163e-06 -7.21898522607699e-15)
(1.78108886624993e-28 -2.68465957182583e-06 -6.394417077211e-14)
(1.70095939606733e-28 -2.69180543339563e-06 -3.65522670408405e-14)
(1.69487210777989e-28 -2.69923983976189e-06 2.57291031983696e-14)
(1.61764756031479e-28 -2.70693941896996e-06 -5.21760496207456e-15)
(1.61030190688309e-28 -2.71488404914064e-06 -2.45783681270648e-13)
(1.53601293347501e-28 -2.72316796691356e-06 -2.43417467161658e-13)
(1.52750442749274e-28 -2.73180416551009e-06 -2.76684137349681e-13)
(1.45603718915761e-28 -2.74072546941639e-06 -3.23927552213081e-13)
(1.4464830987761e-28 -2.75001837031411e-06 1.98870733651948e-14)
(1.37785858501986e-28 -2.75975150734032e-06 -4.2895963291916e-13)
(1.36728025505473e-28 -2.76988009510884e-06 -2.59896904254408e-13)
(1.30148033959406e-28 -2.78040684160759e-06 4.91783259875975e-13)
(1.29000641637108e-28 -2.79148129109839e-06 4.1430536707058e-13)
(1.22689685432271e-28 -2.80312122678131e-06 -3.81389693157712e-13)