/*--------------------------------*- C++ -*----------------------------------*\
| =========                 |                                                 |
| \\      /  F ield         | OpenFOAM: The Open Source CFD Toolbox           |
|  \\    /   O peration     | Version:  4.1                                   |
|   \\  /    A nd           | Web:      www.OpenFOAM.org                      |
|    \\/     M anipulation  |                                                 |
\*---------------------------------------------------------------------------*/
FoamFile
{
    version     2.0;
    format      ascii;
    class       pointVectorField;
    location    "0.0098";
    object      pointDisplacement_Next;
}
// * * * * * * * * * * * * * * * * * * * * * * * * * * * * * * * * * * * * * //

dimensions      [0 1 0 0 0 0 0];

internalField   uniform (0 0 0);

boundaryField
{
    inlet
    {
        type            fixedValue;
        value           nonuniform 0();
    }
    outlet
    {
        type            fixedValue;
        value           nonuniform 0();
    }
    mantle
    {
        type            fixedValue;
        value           nonuniform List<vector> 
416
(
(6.2508e-05 2.4878e-05 -1.5104e-11)
(6.3932e-05 2.3731e-05 -6.1682e-11)
(6.3925e-05 2.3199e-05 -4.6276e-06)
(6.2503e-05 2.4341e-05 -4.8742e-06)
(6.3923e-05 2.168e-05 -8.9974e-06)
(6.2498e-05 2.2767e-05 -9.4713e-06)
(6.3932e-05 1.9334e-05 -1.2922e-05)
(6.2497e-05 2.0301e-05 -1.3572e-05)
(6.3943e-05 1.6371e-05 -1.6372e-05)
(6.25e-05 1.7172e-05 -1.7172e-05)
(6.3932e-05 1.2921e-05 -1.9335e-05)
(6.2497e-05 1.3571e-05 -2.0301e-05)
(6.3923e-05 8.9963e-06 -2.1681e-05)
(6.2499e-05 9.4704e-06 -2.2767e-05)
(6.3925e-05 4.6265e-06 -2.32e-05)
(6.2504e-05 4.8734e-06 -2.4341e-05)
(6.3933e-05 -8.5922e-10 -2.3731e-05)
(6.2509e-05 -6.8514e-10 -2.4878e-05)
(6.5166e-05 2.1181e-05 -1.9934e-10)
(6.5164e-05 2.0687e-05 -4.1114e-06)
(6.5163e-05 1.9316e-05 -7.9962e-06)
(6.518e-05 1.7225e-05 -1.1504e-05)
(6.5186e-05 1.4592e-05 -1.4593e-05)
(6.518e-05 1.1503e-05 -1.7227e-05)
(6.5164e-05 7.9949e-06 -1.9317e-05)
(6.5165e-05 4.1101e-06 -2.0688e-05)
(6.5166e-05 -9.244e-10 -2.1181e-05)
(6.6077e-05 1.717e-05 2.4138e-11)
(6.6082e-05 1.6782e-05 -3.3487e-06)
(6.6096e-05 1.5668e-05 -6.4964e-06)
(6.61e-05 1.3948e-05 -9.3117e-06)
(6.6102e-05 1.1792e-05 -1.1793e-05)
(6.61e-05 9.3103e-06 -1.3949e-05)
(6.6097e-05 6.495e-06 -1.5669e-05)
(6.6082e-05 3.3473e-06 -1.6783e-05)
(6.6078e-05 -7.4977e-10 -1.717e-05)
(6.6537e-05 1.1902e-05 -3.0025e-10)
(6.6556e-05 1.1647e-05 -2.3483e-06)
(6.6587e-05 1.0872e-05 -4.5304e-06)
(6.6581e-05 9.6379e-06 -6.4328e-06)
(6.6572e-05 8.1108e-06 -8.1123e-06)
(6.6581e-05 6.4313e-06 -9.6394e-06)
(6.6588e-05 4.5289e-06 -1.0873e-05)
(6.6556e-05 2.3468e-06 -1.1649e-05)
(6.6537e-05 -1.1268e-09 -1.1903e-05)
(6.6464e-05 5.5249e-06 3.6017e-10)
(6.6475e-05 5.3757e-06 -1.0801e-06)
(6.6502e-05 4.969e-06 -2.0734e-06)
(6.6514e-05 4.3714e-06 -2.9268e-06)
(6.6519e-05 3.6791e-06 -3.6798e-06)
(6.6514e-05 2.9252e-06 -4.3729e-06)
(6.6502e-05 2.0718e-06 -4.9704e-06)
(6.6476e-05 1.0785e-06 -5.377e-06)
(6.6464e-05 -1.8568e-09 -5.526e-06)
(6.5813e-05 -2.0326e-06 -2.999e-10)
(6.5828e-05 -2.0426e-06 4.1233e-07)
(6.5853e-05 -2.0015e-06 8.3598e-07)
(6.5878e-05 -1.8518e-06 1.2344e-06)
(6.5884e-05 -1.5807e-06 1.5791e-06)
(6.5878e-05 -1.236e-06 1.8503e-06)
(6.5853e-05 -8.3761e-07 2e-06)
(6.5828e-05 -4.1393e-07 2.0413e-06)
(6.5814e-05 -1.2098e-09 2.0314e-06)
(6.4597e-05 -1.0807e-05 -1.1396e-10)
(6.4622e-05 -1.0601e-05 2.1072e-06)
(6.4662e-05 -9.9979e-06 4.1494e-06)
(6.4667e-05 -9.024e-06 6.0437e-06)
(6.4661e-05 -7.6951e-06 7.6932e-06)
(6.4667e-05 -6.0453e-06 9.0224e-06)
(6.4663e-05 -4.151e-06 9.9964e-06)
(6.4622e-05 -2.1088e-06 1.06e-05)
(6.4597e-05 -1.3484e-09 1.0806e-05)
(6.2865e-05 -2.0382e-05 -2.2892e-10)
(6.2907e-05 -1.9943e-05 3.9468e-06)
(6.2964e-05 -1.8724e-05 7.7581e-06)
(6.2948e-05 -1.686e-05 1.1291e-05)
(6.2921e-05 -1.4374e-05 1.4372e-05)
(6.2948e-05 -1.1293e-05 1.6859e-05)
(6.2964e-05 -7.7597e-06 1.8722e-05)
(6.2907e-05 -3.9483e-06 1.9942e-05)
(6.2865e-05 -1.144e-09 2.0381e-05)
(6.0681e-05 -3.0179e-05 -5.4193e-10)
(6.0704e-05 -2.9532e-05 5.8442e-06)
(6.0741e-05 -2.7715e-05 1.1472e-05)
(6.0749e-05 -2.4915e-05 1.667e-05)
(6.0746e-05 -2.1211e-05 2.121e-05)
(6.0749e-05 -1.6671e-05 2.4914e-05)
(6.0741e-05 -1.1474e-05 2.7714e-05)
(6.0704e-05 -5.8456e-06 2.9531e-05)
(6.0681e-05 -7.1762e-10 3.0178e-05)
(5.8007e-05 -3.961e-05 -1.8108e-10)
(5.8017e-05 -3.8757e-05 7.6801e-06)
(5.8042e-05 -3.6371e-05 1.5062e-05)
(5.8066e-05 -3.2663e-05 2.1849e-05)
(5.8078e-05 -2.7794e-05 2.7792e-05)
(5.8066e-05 -2.185e-05 3.2661e-05)
(5.8042e-05 -1.5063e-05 3.6369e-05)
(5.8017e-05 -7.6813e-06 3.8756e-05)
(5.8006e-05 -9.3775e-10 3.9609e-05)
(5.4833e-05 -4.8109e-05 -3.4856e-10)
(5.4848e-05 -4.7101e-05 9.3587e-06)
(5.4878e-05 -4.4208e-05 1.8326e-05)
(5.4889e-05 -3.9676e-05 2.6539e-05)
(5.4891e-05 -3.3725e-05 3.3724e-05)
(5.4888e-05 -2.654e-05 3.9674e-05)
(5.4878e-05 -1.8327e-05 4.4206e-05)
(5.4848e-05 -9.3598e-06 4.71e-05)
(5.4833e-05 -6.0178e-10 4.8108e-05)
(5.1229e-05 -5.5444e-05 -2.3292e-10)
(5.1258e-05 -5.4293e-05 1.08e-05)
(5.1296e-05 -5.0956e-05 2.1136e-05)
(5.1287e-05 -4.5714e-05 3.0575e-05)
(5.127e-05 -3.8835e-05 3.8834e-05)
(5.1287e-05 -3.0577e-05 4.5713e-05)
(5.1296e-05 -2.1137e-05 5.0955e-05)
(5.1257e-05 -1.0801e-05 5.4292e-05)
(5.1229e-05 -5.4321e-10 5.5444e-05)
(6.3926e-05 -4.6281e-06 -2.32e-05)
(6.2504e-05 -4.8747e-06 -2.4341e-05)
(6.3923e-05 -8.9977e-06 -2.168e-05)
(6.2499e-05 -9.4716e-06 -2.2767e-05)
(6.3933e-05 -1.2922e-05 -1.9335e-05)
(6.2498e-05 -1.3572e-05 -2.0301e-05)
(6.3944e-05 -1.6372e-05 -1.6371e-05)
(6.2501e-05 -1.7172e-05 -1.7172e-05)
(6.3933e-05 -1.9335e-05 -1.2922e-05)
(6.2498e-05 -2.0301e-05 -1.3571e-05)
(6.3924e-05 -2.1681e-05 -8.9969e-06)
(6.2499e-05 -2.2767e-05 -9.4708e-06)
(6.3926e-05 -2.32e-05 -4.6273e-06)
(6.2504e-05 -2.4341e-05 -4.8739e-06)
(6.3933e-05 -2.3732e-05 5.0428e-11)
(6.2509e-05 -2.4878e-05 1.4534e-10)
(6.5165e-05 -4.1119e-06 -2.0688e-05)
(6.5164e-05 -7.9966e-06 -1.9317e-05)
(6.5181e-05 -1.1504e-05 -1.7226e-05)
(6.5187e-05 -1.4593e-05 -1.4592e-05)
(6.5181e-05 -1.7227e-05 -1.1504e-05)
(6.5164e-05 -1.9317e-05 -7.9959e-06)
(6.5165e-05 -2.0688e-05 -4.1112e-06)
(6.5167e-05 -2.1182e-05 -1.2366e-10)
(6.6083e-05 -3.3494e-06 -1.6783e-05)
(6.6097e-05 -6.4969e-06 -1.5668e-05)
(6.6101e-05 -9.3121e-06 -1.3949e-05)
(6.6103e-05 -1.1793e-05 -1.1792e-05)
(6.6101e-05 -1.3949e-05 -9.3114e-06)
(6.6097e-05 -1.5669e-05 -6.4961e-06)
(6.6083e-05 -1.6784e-05 -3.3486e-06)
(6.6078e-05 -1.7171e-05 -4.9155e-10)
(6.6557e-05 -2.349e-06 -1.1649e-05)
(6.6588e-05 -4.531e-06 -1.0873e-05)
(6.6582e-05 -6.4333e-06 -9.6391e-06)
(6.6572e-05 -8.1127e-06 -8.112e-06)
(6.6582e-05 -9.6397e-06 -6.4325e-06)
(6.6588e-05 -1.0873e-05 -4.5302e-06)
(6.6556e-05 -1.1649e-05 -2.3482e-06)
(6.6537e-05 -1.1904e-05 -2.5854e-10)
(6.6476e-05 -1.0808e-06 -5.3769e-06)
(6.6502e-05 -2.074e-06 -4.9703e-06)
(6.6515e-05 -2.9273e-06 -4.3727e-06)
(6.6519e-05 -3.6811e-06 -3.6796e-06)
(6.6514e-05 -4.3732e-06 -2.9265e-06)
(6.6502e-05 -4.9707e-06 -2.0732e-06)
(6.6476e-05 -5.3772e-06 -1.0799e-06)
(6.6464e-05 -5.5265e-06 -9.5912e-10)
(6.5828e-05 4.1153e-07 2.0413e-06)
(6.5853e-05 8.3528e-07 2e-06)
(6.5878e-05 1.2338e-06 1.8503e-06)
(6.5884e-05 1.5787e-06 1.5793e-06)
(6.5878e-05 1.85e-06 1.2346e-06)
(6.5853e-05 1.9999e-06 8.3621e-07)
(6.5828e-05 2.0413e-06 4.1247e-07)
(6.5813e-05 2.0313e-06 -3.0519e-10)
(6.4622e-05 2.1064e-06 1.06e-05)
(6.4663e-05 4.1487e-06 9.9963e-06)
(6.4667e-05 6.0431e-06 9.0224e-06)
(6.4661e-05 7.6928e-06 7.6935e-06)
(6.4667e-05 9.0222e-06 6.0439e-06)
(6.4662e-05 9.9964e-06 4.1496e-06)
(6.4621e-05 1.06e-05 2.1074e-06)
(6.4597e-05 1.0806e-05 -4.7247e-10)
(6.2907e-05 3.946e-06 1.9942e-05)
(6.2963e-05 7.7574e-06 1.8722e-05)
(6.2948e-05 1.1291e-05 1.6859e-05)
(6.2921e-05 1.4372e-05 1.4372e-05)
(6.2948e-05 1.6859e-05 1.1291e-05)
(6.2963e-05 1.8723e-05 7.7583e-06)
(6.2907e-05 1.9942e-05 3.9469e-06)
(6.2864e-05 2.0381e-05 -3.337e-10)
(6.0704e-05 5.8435e-06 2.9531e-05)
(6.0741e-05 1.1472e-05 2.7714e-05)
(6.0749e-05 1.6669e-05 2.4914e-05)
(6.0745e-05 2.121e-05 2.121e-05)
(6.0748e-05 2.4914e-05 1.667e-05)
(6.0741e-05 2.7714e-05 1.1473e-05)
(6.0703e-05 2.9532e-05 5.8443e-06)
(6.0681e-05 3.0178e-05 -6.9984e-10)
(5.8016e-05 7.6795e-06 3.8756e-05)
(5.8042e-05 1.5061e-05 3.6369e-05)
(5.8065e-05 2.1848e-05 3.2661e-05)
(5.8077e-05 2.7792e-05 2.7792e-05)
(5.8065e-05 3.2662e-05 2.1849e-05)
(5.8041e-05 3.637e-05 1.5062e-05)
(5.8016e-05 3.8756e-05 7.6801e-06)
(5.8006e-05 3.961e-05 -3.7755e-10)
(5.4848e-05 9.3583e-06 4.71e-05)
(5.4877e-05 1.8326e-05 4.4207e-05)
(5.4888e-05 2.6539e-05 3.9675e-05)
(5.489e-05 3.3724e-05 3.3724e-05)
(5.4888e-05 3.9675e-05 2.6539e-05)
(5.4877e-05 4.4207e-05 1.8326e-05)
(5.4847e-05 4.71e-05 9.3586e-06)
(5.4832e-05 4.8109e-05 -2.5408e-10)
(5.1257e-05 1.08e-05 5.4292e-05)
(5.1295e-05 2.1136e-05 5.0955e-05)
(5.1286e-05 3.0576e-05 4.5713e-05)
(5.1269e-05 3.8835e-05 3.8834e-05)
(5.1286e-05 4.5714e-05 3.0576e-05)
(5.1295e-05 5.0956e-05 2.1136e-05)
(5.1256e-05 5.4292e-05 1.08e-05)
(5.1228e-05 5.5444e-05 -4.5661e-10)
(6.3926e-05 -2.3201e-05 4.6273e-06)
(6.2504e-05 -2.4341e-05 4.8742e-06)
(6.3924e-05 -2.1682e-05 8.9973e-06)
(6.2499e-05 -2.2768e-05 9.4713e-06)
(6.3933e-05 -1.9336e-05 1.2922e-05)
(6.2498e-05 -2.0302e-05 1.3572e-05)
(6.3944e-05 -1.6373e-05 1.6372e-05)
(6.2501e-05 -1.7173e-05 1.7173e-05)
(6.3933e-05 -1.2923e-05 1.9336e-05)
(6.2498e-05 -1.3572e-05 2.0302e-05)
(6.3923e-05 -8.9983e-06 2.1681e-05)
(6.2499e-05 -9.4722e-06 2.2768e-05)
(6.3925e-05 -4.6284e-06 2.32e-05)
(6.2504e-05 -4.875e-06 2.4341e-05)
(6.3933e-05 -8.5236e-10 2.3732e-05)
(6.2509e-05 -8.1342e-10 2.4878e-05)
(6.5165e-05 -2.0689e-05 4.111e-06)
(6.5164e-05 -1.9318e-05 7.9961e-06)
(6.518e-05 -1.7228e-05 1.1504e-05)
(6.5187e-05 -1.4594e-05 1.4593e-05)
(6.518e-05 -1.1505e-05 1.7227e-05)
(6.5164e-05 -7.9973e-06 1.9318e-05)
(6.5165e-05 -4.1122e-06 2.0689e-05)
(6.5166e-05 -9.9205e-10 2.1181e-05)
(6.6083e-05 -1.6784e-05 3.3483e-06)
(6.6097e-05 -1.567e-05 6.4961e-06)
(6.61e-05 -1.3951e-05 9.3118e-06)
(6.6103e-05 -1.1794e-05 1.1793e-05)
(6.61e-05 -9.3131e-06 1.395e-05)
(6.6097e-05 -6.4975e-06 1.5669e-05)
(6.6082e-05 -3.3496e-06 1.6784e-05)
(6.6077e-05 -1.3591e-09 1.7171e-05)
(6.6556e-05 -1.165e-05 2.3478e-06)
(6.6588e-05 -1.0874e-05 4.53e-06)
(6.6582e-05 -9.641e-06 6.4328e-06)
(6.6572e-05 -8.1139e-06 8.1126e-06)
(6.6582e-05 -6.4342e-06 9.6399e-06)
(6.6588e-05 -4.5316e-06 1.0873e-05)
(6.6556e-05 -2.3493e-06 1.1649e-05)
(6.6537e-05 -1.1313e-09 1.1903e-05)
(6.6475e-05 -5.3778e-06 1.0795e-06)
(6.6502e-05 -4.9717e-06 2.073e-06)
(6.6514e-05 -4.3744e-06 2.9267e-06)
(6.6519e-05 -3.6823e-06 3.68e-06)
(6.6514e-05 -2.9282e-06 4.3733e-06)
(6.6502e-05 -2.0746e-06 4.9709e-06)
(6.6476e-05 -1.081e-06 5.3773e-06)
(6.6464e-05 -4.9211e-10 5.5261e-06)
(6.5828e-05 2.0408e-06 -4.1299e-07)
(6.5852e-05 1.999e-06 -8.3648e-07)
(6.5878e-05 1.8489e-06 -1.2345e-06)
(6.5884e-05 1.5776e-06 -1.5789e-06)
(6.5878e-05 1.2329e-06 -1.8499e-06)
(6.5853e-05 8.3479e-07 -1.9996e-06)
(6.5828e-05 4.1136e-07 -2.041e-06)
(6.5814e-05 -1.1557e-09 -2.0314e-06)
(6.4621e-05 1.0599e-05 -2.1079e-06)
(6.4662e-05 9.9956e-06 -4.15e-06)
(6.4666e-05 9.0212e-06 -6.0439e-06)
(6.4661e-05 7.6918e-06 -7.6932e-06)
(6.4667e-05 6.0423e-06 -9.022e-06)
(6.4662e-05 4.1483e-06 -9.9959e-06)
(6.4622e-05 2.1063e-06 -1.0599e-05)
(6.4597e-05 -9.5491e-10 -1.0806e-05)
(6.2907e-05 1.9942e-05 -3.9475e-06)
(6.2963e-05 1.8722e-05 -7.7587e-06)
(6.2947e-05 1.6858e-05 -1.1291e-05)
(6.2921e-05 1.4371e-05 -1.4372e-05)
(6.2948e-05 1.129e-05 -1.6858e-05)
(6.2963e-05 7.7571e-06 -1.8722e-05)
(6.2907e-05 3.9459e-06 -1.9942e-05)
(6.2865e-05 -1.0184e-09 -2.0381e-05)
(6.0703e-05 2.9531e-05 -5.8449e-06)
(6.0741e-05 2.7714e-05 -1.1473e-05)
(6.0748e-05 2.4913e-05 -1.667e-05)
(6.0745e-05 2.1209e-05 -2.121e-05)
(6.0748e-05 1.6669e-05 -2.4913e-05)
(6.0741e-05 1.1472e-05 -2.7713e-05)
(6.0704e-05 5.8434e-06 -2.9531e-05)
(6.0681e-05 -5.4472e-10 -3.0177e-05)
(5.8016e-05 3.8756e-05 -7.6808e-06)
(5.8041e-05 3.637e-05 -1.5063e-05)
(5.8065e-05 3.2661e-05 -2.1849e-05)
(5.8077e-05 2.7792e-05 -2.7793e-05)
(5.8065e-05 2.1848e-05 -3.2661e-05)
(5.8042e-05 1.5061e-05 -3.6369e-05)
(5.8016e-05 7.6795e-06 -3.8755e-05)
(5.8006e-05 -7.2356e-10 -3.9608e-05)
(5.4847e-05 4.7101e-05 -9.3594e-06)
(5.4877e-05 4.4207e-05 -1.8327e-05)
(5.4887e-05 3.9675e-05 -2.6539e-05)
(5.489e-05 3.3724e-05 -3.3724e-05)
(5.4887e-05 2.6538e-05 -3.9675e-05)
(5.4877e-05 1.8325e-05 -4.4206e-05)
(5.4847e-05 9.3583e-06 -4.7099e-05)
(5.4833e-05 -6.7722e-10 -4.8108e-05)
(5.1256e-05 5.4293e-05 -1.0801e-05)
(5.1295e-05 5.0956e-05 -2.1137e-05)
(5.1286e-05 4.5714e-05 -3.0576e-05)
(5.1269e-05 3.8835e-05 -3.8835e-05)
(5.1286e-05 3.0576e-05 -4.5714e-05)
(5.1295e-05 2.1136e-05 -5.0955e-05)
(5.1257e-05 1.08e-05 -5.4291e-05)
(5.1229e-05 -2.9884e-10 -5.5443e-05)
(6.3925e-05 4.6265e-06 2.32e-05)
(6.2504e-05 4.8733e-06 2.4341e-05)
(6.3923e-05 8.9963e-06 2.1681e-05)
(6.2499e-05 9.4704e-06 2.2767e-05)
(6.3932e-05 1.2921e-05 1.9335e-05)
(6.2497e-05 1.3571e-05 2.0302e-05)
(6.3943e-05 1.6371e-05 1.6372e-05)
(6.25e-05 1.7172e-05 1.7173e-05)
(6.3932e-05 1.9334e-05 1.2922e-05)
(6.2497e-05 2.0301e-05 1.3572e-05)
(6.3923e-05 2.168e-05 8.9973e-06)
(6.2499e-05 2.2767e-05 9.4714e-06)
(6.3925e-05 2.32e-05 4.6274e-06)
(6.2503e-05 2.4341e-05 4.8742e-06)
(6.5164e-05 4.1102e-06 2.0688e-05)
(6.5163e-05 7.9951e-06 1.9317e-05)
(6.518e-05 1.1503e-05 1.7227e-05)
(6.5186e-05 1.4592e-05 1.4593e-05)
(6.518e-05 1.7226e-05 1.1504e-05)
(6.5163e-05 1.9317e-05 7.9961e-06)
(6.5164e-05 2.0688e-05 4.1111e-06)
(6.6082e-05 3.3474e-06 1.6783e-05)
(6.6097e-05 6.4951e-06 1.5669e-05)
(6.61e-05 9.3106e-06 1.3949e-05)
(6.6102e-05 1.1792e-05 1.1793e-05)
(6.61e-05 1.3948e-05 9.3116e-06)
(6.6096e-05 1.5668e-05 6.4962e-06)
(6.6082e-05 1.6783e-05 3.3483e-06)
(6.6556e-05 2.3469e-06 1.1649e-05)
(6.6588e-05 4.529e-06 1.0873e-05)
(6.6581e-05 6.4316e-06 9.6393e-06)
(6.6572e-05 8.1114e-06 8.1123e-06)
(6.6581e-05 9.6387e-06 6.4327e-06)
(6.6587e-05 1.0872e-05 4.5301e-06)
(6.6556e-05 1.1648e-05 2.3478e-06)
(6.6476e-05 1.0786e-06 5.3769e-06)
(6.6502e-05 2.072e-06 4.9703e-06)
(6.6514e-05 2.9256e-06 4.3728e-06)
(6.6519e-05 3.6798e-06 3.6798e-06)
(6.6514e-05 4.3722e-06 2.9267e-06)
(6.6502e-05 4.9698e-06 2.0731e-06)
(6.6475e-05 5.3761e-06 1.0795e-06)
(6.5828e-05 -4.1374e-07 -2.0413e-06)
(6.5853e-05 -8.373e-07 -2.0001e-06)
(6.5878e-05 -1.2355e-06 -1.8503e-06)
(6.5884e-05 -1.58e-06 -1.5791e-06)
(6.5878e-05 -1.851e-06 -1.2345e-06)
(6.5853e-05 -2.0007e-06 -8.3629e-07)
(6.5828e-05 -2.0422e-06 -4.1284e-07)
(6.4622e-05 -2.1086e-06 -1.06e-05)
(6.4663e-05 -4.1506e-06 -9.9962e-06)
(6.4667e-05 -6.0448e-06 -9.0223e-06)
(6.4661e-05 -7.6943e-06 -7.6931e-06)
(6.4667e-05 -9.0231e-06 -6.0437e-06)
(6.4662e-05 -9.9971e-06 -4.1496e-06)
(6.4622e-05 -1.0601e-05 -2.1077e-06)
(6.2908e-05 -3.948e-06 -1.9942e-05)
(6.2964e-05 -7.7592e-06 -1.8722e-05)
(6.2948e-05 -1.1292e-05 -1.6858e-05)
(6.2921e-05 -1.4373e-05 -1.4372e-05)
(6.2948e-05 -1.6859e-05 -1.1291e-05)
(6.2964e-05 -1.8723e-05 -7.7583e-06)
(6.2907e-05 -1.9943e-05 -3.9472e-06)
(6.0704e-05 -5.8452e-06 -2.9531e-05)
(6.0742e-05 -1.1473e-05 -2.7713e-05)
(6.0749e-05 -1.667e-05 -2.4913e-05)
(6.0746e-05 -2.1211e-05 -2.1209e-05)
(6.0749e-05 -2.4914e-05 -1.6669e-05)
(6.0741e-05 -2.7714e-05 -1.1473e-05)
(6.0704e-05 -2.9532e-05 -5.8445e-06)
(5.8017e-05 -7.6809e-06 -3.8755e-05)
(5.8042e-05 -1.5063e-05 -3.6369e-05)
(5.8066e-05 -2.1849e-05 -3.2661e-05)
(5.8078e-05 -2.7793e-05 -2.7792e-05)
(5.8066e-05 -3.2662e-05 -2.1849e-05)
(5.8042e-05 -3.637e-05 -1.5062e-05)
(5.8017e-05 -3.8756e-05 -7.6804e-06)
(5.4848e-05 -9.3593e-06 -4.7099e-05)
(5.4878e-05 -1.8326e-05 -4.4206e-05)
(5.4888e-05 -2.6539e-05 -3.9674e-05)
(5.4891e-05 -3.3724e-05 -3.3724e-05)
(5.4888e-05 -3.9675e-05 -2.6539e-05)
(5.4878e-05 -4.4207e-05 -1.8326e-05)
(5.4848e-05 -4.7101e-05 -9.359e-06)
(5.1257e-05 -1.0801e-05 -5.4291e-05)
(5.1296e-05 -2.1137e-05 -5.0954e-05)
(5.1287e-05 -3.0576e-05 -4.5713e-05)
(5.127e-05 -3.8835e-05 -3.8834e-05)
(5.1287e-05 -4.5714e-05 -3.0576e-05)
(5.1296e-05 -5.0956e-05 -2.1137e-05)
(5.1258e-05 -5.4293e-05 -1.0801e-05)
)
;
    }
    procBoundary2to1
    {
        type            processor;
    }
    procBoundary2to3
    {
        type            processor;
    }
}


// ************************************************************************* //
