/*--------------------------------*- C++ -*----------------------------------*\
| =========                 |                                                 |
| \\      /  F ield         | OpenFOAM: The Open Source CFD Toolbox           |
|  \\    /   O peration     | Version:  4.1                                   |
|   \\  /    A nd           | Web:      www.OpenFOAM.org                      |
|    \\/     M anipulation  |                                                 |
\*---------------------------------------------------------------------------*/
FoamFile
{
    version     2.0;
    format      ascii;
    class       volVectorField;
    location    "0.0098";
    object      U;
}
// * * * * * * * * * * * * * * * * * * * * * * * * * * * * * * * * * * * * * //

dimensions      [0 1 -1 0 0 0 0];

internalField   nonuniform List<vector> 
1536
(
(0.18141 0.025171 -1.8264e-06)
(0.16281 0.026695 -1.78e-06)
(0.14292 0.027554 -1.3542e-06)
(0.12224 0.027551 1.6701e-07)
(0.10145 0.026626 5.1723e-07)
(0.081251 0.024822 1.3265e-06)
(0.062318 0.022278 2.3774e-06)
(0.045197 0.019181 2.9975e-06)
(0.030293 0.015686 3.3678e-06)
(0.017855 0.011962 3.3329e-06)
(0.0079429 0.0081913 3.9884e-06)
(0.00034645 0.0045223 3.6275e-06)
(0.1808 0.016773 -0.0027599)
(0.16237 0.017977 -0.0026598)
(0.14267 0.018737 -0.0024351)
(0.12223 0.018928 -0.002109)
(0.10166 0.018481 -0.0016795)
(0.08166 0.017414 -0.0011564)
(0.062871 0.015835 -0.00056819)
(0.045846 0.013877 5.7605e-05)
(0.030989 0.011678 0.0006902)
(0.018544 0.009369 0.0012803)
(0.0085814 0.0070879 0.0017946)
(0.00093013 0.0049655 0.0022026)
(0.18042 0.013892 -0.0050378)
(0.16209 0.014882 -0.0052511)
(0.14253 0.015504 -0.0053096)
(0.12223 0.015672 -0.0051782)
(0.10181 0.01534 -0.0048481)
(0.081947 0.014516 -0.0043348)
(0.063271 0.013257 -0.0036781)
(0.046322 0.011666 -0.0029216)
(0.031519 0.0098527 -0.0021114)
(0.019112 0.0079387 -0.0013221)
(0.0091635 0.0060282 -0.00062588)
(0.0014854 0.0041829 -3.1467e-05)
(0.18022 0.010444 -0.0077302)
(0.16194 0.011128 -0.0081462)
(0.14245 0.011526 -0.008346)
(0.12222 0.011572 -0.0082893)
(0.10188 0.011232 -0.0079459)
(0.082086 0.010514 -0.0073235)
(0.063468 0.0094702 -0.0064764)
(0.046562 0.0081777 -0.0054591)
(0.031781 0.0067186 -0.0043395)
(0.01938 0.0052057 -0.0031911)
(0.0094318 0.0037359 -0.0021005)
(0.0017423 0.0023597 -0.0011156)
(0.18022 0.0077292 -0.010444)
(0.16194 0.0081459 -0.011128)
(0.14245 0.0083475 -0.011525)
(0.12222 0.0082914 -0.01157)
(0.10188 0.0079495 -0.011228)
(0.082086 0.0073282 -0.010508)
(0.063468 0.0064821 -0.0094638)
(0.046562 0.0054655 -0.0081704)
(0.031781 0.0043466 -0.0067105)
(0.01938 0.0031982 -0.0051977)
(0.0094318 0.002108 -0.0037273)
(0.0017423 0.0011232 -0.0023507)
(0.18042 0.0050369 -0.013891)
(0.16209 0.0052507 -0.01488)
(0.14252 0.0053099 -0.015502)
(0.12223 0.0051799 -0.01567)
(0.10181 0.0048504 -0.015337)
(0.081946 0.0043379 -0.014511)
(0.06327 0.0036821 -0.013252)
(0.046322 0.0029265 -0.01166)
(0.031518 0.0021168 -0.0098458)
(0.019112 0.0013289 -0.0079306)
(0.009163 0.00063327 -0.0060196)
(0.0014854 3.9489e-05 -0.0041739)
(0.1808 0.00276 -0.016769)
(0.16237 0.0026598 -0.017973)
(0.14267 0.0024359 -0.018734)
(0.12223 0.0021102 -0.018924)
(0.10166 0.0016815 -0.018477)
(0.081658 0.0011584 -0.017409)
(0.06287 0.00057067 -0.015829)
(0.045844 -5.3992e-05 -0.013871)
(0.030988 -0.00068592 -0.011671)
(0.018543 -0.0012751 -0.0093601)
(0.0085808 -0.0017886 -0.0070783)
(0.00093006 -0.0021959 -0.0049547)
(0.18141 3.4996e-06 -0.025161)
(0.16281 3.4944e-06 -0.026687)
(0.14292 2.6868e-06 -0.027547)
(0.12224 2.605e-06 -0.027546)
(0.10145 2.0119e-06 -0.02662)
(0.08125 1.2234e-06 -0.024817)
(0.062316 6.6195e-07 -0.022274)
(0.045195 2.4904e-07 -0.019176)
(0.030292 3.048e-07 -0.01568)
(0.017854 1.5262e-07 -0.011956)
(0.0079414 6.0507e-07 -0.0081834)
(0.0003452 1.1177e-06 -0.0045126)
(0.1808 0.016774 0.0027552)
(0.16237 0.017977 0.0026553)
(0.14267 0.018738 0.0024317)
(0.12223 0.018929 0.0021082)
(0.10166 0.018482 0.0016805)
(0.081663 0.017414 0.0011596)
(0.062875 0.015836 0.00057392)
(0.045848 0.013878 -4.9917e-05)
(0.030992 0.011679 -0.00068154)
(0.018546 0.0093696 -0.0012712)
(0.0085832 0.0070889 -0.0017853)
(0.00093136 0.0049665 -0.0021937)
(0.18044 0.013459 -1.9884e-06)
(0.16204 0.014587 -2.0638e-06)
(0.1424 0.015371 -1.9034e-06)
(0.12204 0.015731 -4.4857e-07)
(0.10159 0.015605 8.0636e-07)
(0.0817 0.014994 1.9482e-06)
(0.063006 0.01396 3.2333e-06)
(0.046058 0.012593 4.2254e-06)
(0.031256 0.011003 4.774e-06)
(0.018836 0.0092939 4.8671e-06)
(0.0088672 0.0075566 4.9335e-06)
(0.001177 0.0058598 4.4772e-06)
(0.18013 0.010841 -0.0020503)
(0.16181 0.011711 -0.0022363)
(0.14228 0.012308 -0.0023537)
(0.12206 0.012555 -0.0023906)
(0.10174 0.012419 -0.0023378)
(0.081977 0.011896 -0.0022007)
(0.063397 0.011023 -0.0020042)
(0.04653 0.0098709 -0.0017675)
(0.031777 0.0085275 -0.0015055)
(0.019383 0.0070908 -0.0012561)
(0.0094273 0.0056425 -0.0010491)
(0.0017307 0.0042275 -0.00090062)
(0.17995 0.0077926 -0.0050234)
(0.16168 0.0084001 -0.0054073)
(0.14221 0.0088042 -0.0056572)
(0.12205 0.0089597 -0.0057391)
(0.1018 0.0088309 -0.005636)
(0.082105 0.0084169 -0.0053525)
(0.063576 0.007762 -0.0049151)
(0.046748 0.0069133 -0.0043584)
(0.03202 0.0059344 -0.0037292)
(0.019637 0.004898 -0.0030773)
(0.0096787 0.0038757 -0.0024518)
(0.0019691 0.002914 -0.0018839)
(0.17995 0.0050239 -0.007793)
(0.16168 0.0054081 -0.0083999)
(0.14221 0.0056585 -0.0088033)
(0.12205 0.0057412 -0.0089574)
(0.1018 0.0056387 -0.0088278)
(0.082105 0.005356 -0.008413)
(0.063576 0.0049193 -0.007757)
(0.046748 0.0043633 -0.0069075)
(0.03202 0.003735 -0.0059277)
(0.019636 0.0030836 -0.0048909)
(0.0096786 0.0024588 -0.0038679)
(0.001969 0.0018916 -0.0029057)
(0.18013 0.0020517 -0.010842)
(0.16181 0.0022381 -0.011712)
(0.14228 0.0023555 -0.012307)
(0.12206 0.0023931 -0.012553)
(0.10174 0.0023407 -0.012415)
(0.081977 0.0022041 -0.011891)
(0.063396 0.0020079 -0.011018)
(0.046529 0.0017718 -0.0098646)
(0.031777 0.0015103 -0.0085205)
(0.019383 0.0012622 -0.0070834)
(0.0094266 0.001056 -0.0056342)
(0.0017305 0.00090832 -0.0042186)
(0.18044 3.8386e-06 -0.013459)
(0.16204 3.9934e-06 -0.014587)
(0.14239 3.8674e-06 -0.01537)
(0.12204 3.2425e-06 -0.015728)
(0.10159 2.3906e-06 -0.015602)
(0.081699 1.4202e-06 -0.01499)
(0.063005 7.2151e-07 -0.013955)
(0.046057 1.9048e-07 -0.012587)
(0.031255 1.2935e-07 -0.010997)
(0.018834 3.8041e-07 -0.0092861)
(0.0088661 1.0359e-06 -0.007548)
(0.0011766 1.8268e-06 -0.0058504)
(0.1808 -0.0027522 -0.01677)
(0.16237 -0.002652 -0.017974)
(0.14267 -0.0024295 -0.018735)
(0.12223 -0.0021045 -0.018926)
(0.10166 -0.0016769 -0.018478)
(0.081661 -0.0011555 -0.017411)
(0.062873 -0.00056904 -0.015831)
(0.045847 5.468e-05 -0.013872)
(0.03099 0.00068652 -0.011672)
(0.018545 0.0012761 -0.0093622)
(0.0085817 0.0017906 -0.0070807)
(0.0009306 0.002199 -0.0049573)
(0.18042 0.013892 0.0050336)
(0.16209 0.014881 0.0052473)
(0.14253 0.015504 0.0053072)
(0.12223 0.015673 0.0051781)
(0.10181 0.015341 0.0048494)
(0.081951 0.014516 0.0043385)
(0.063275 0.013258 0.0036839)
(0.046326 0.011668 0.0029291)
(0.031522 0.0098539 0.00212)
(0.019114 0.0079397 0.0013316)
(0.0091651 0.0060298 0.00063573)
(0.0014865 0.0041845 4.139e-05)
(0.18013 0.010841 0.0020465)
(0.16181 0.011711 0.0022328)
(0.14228 0.012308 0.0023513)
(0.12206 0.012556 0.0023903)
(0.10174 0.012419 0.0023396)
(0.081981 0.011897 0.002205)
(0.063401 0.011024 0.0020109)
(0.046534 0.0098724 0.001776)
(0.03178 0.0085291 0.001515)
(0.019386 0.0070927 0.0012664)
(0.0094292 0.0056443 0.0010592)
(0.0017324 0.0042295 0.0009102)
(0.17982 0.0082571 -1.3203e-06)
(0.1616 0.0088967 -1.2284e-06)
(0.1422 0.00933 -1.0069e-06)
(0.12211 0.0095065 -2.8327e-07)
(0.10192 0.0093957 1.1185e-06)
(0.082286 0.0089945 2.2997e-06)
(0.063807 0.0083306 3.3506e-06)
(0.047011 0.0074536 4.2218e-06)
(0.032299 0.0064282 4.7767e-06)
(0.019918 0.0053208 5.1654e-06)
(0.0099481 0.0041931 5.0134e-06)
(0.0022303 0.0031072 4.7601e-06)
(0.17966 0.005398 -0.0027375)
(0.16149 0.005807 -0.0029426)
(0.14215 0.0060821 -0.003079)
(0.12212 0.0061859 -0.0031262)
(0.10201 0.006101 -0.0030801)
(0.082433 0.0058287 -0.0029412)
(0.064005 0.005384 -0.0027157)
(0.047245 0.0048005 -0.0024236)
(0.032553 0.0041232 -0.0020882)
(0.020175 0.0033986 -0.0017299)
(0.010196 0.002668 -0.0013701)
(0.0024684 0.0019724 -0.0010309)
(0.17966 0.0027387 -0.0053977)
(0.16149 0.0029441 -0.0058061)
(0.14215 0.0030807 -0.0060802)
(0.12212 0.003129 -0.0061836)
(0.10201 0.0030834 -0.0060977)
(0.082433 0.0029454 -0.0058246)
(0.064005 0.0027205 -0.0053792)
(0.047245 0.002429 -0.004795)
(0.032553 0.0020942 -0.004117)
(0.020175 0.001736 -0.0033919)
(0.010196 0.0013768 -0.0026607)
(0.0024683 0.001038 -0.0019646)
(0.17982 2.7128e-06 -0.0082575)
(0.1616 3.1139e-06 -0.0088966)
(0.1422 3.5795e-06 -0.0093294)
(0.12211 3.03e-06 -0.0095045)
(0.10192 2.379e-06 -0.0093929)
(0.082285 1.7416e-06 -0.0089907)
(0.063806 1.2077e-06 -0.0083259)
(0.04701 8.1676e-07 -0.007448)
(0.032299 6.5858e-07 -0.0064219)
(0.019918 1.1078e-06 -0.0053139)
(0.0099476 1.5288e-06 -0.0041856)
(0.0022301 1.9983e-06 -0.0030993)
(0.18012 -0.0020445 -0.010842)
(0.1618 -0.0022309 -0.011712)
(0.14228 -0.0023488 -0.012307)
(0.12206 -0.0023872 -0.012554)
(0.10174 -0.002336 -0.012416)
(0.08198 -0.0022009 -0.011893)
(0.0634 -0.002006 -0.01102)
(0.046533 -0.0017708 -0.0098668)
(0.031779 -0.0015095 -0.0085227)
(0.019385 -0.0012607 -0.0070853)
(0.0094287 -0.0010535 -0.0056361)
(0.0017321 -0.00090452 -0.0042204)
(0.18041 -0.00503 -0.01389)
(0.16209 -0.0052436 -0.01488)
(0.14252 -0.0053039 -0.015503)
(0.12223 -0.0051741 -0.015671)
(0.10181 -0.0048454 -0.015338)
(0.081949 -0.0043339 -0.014513)
(0.063273 -0.0036794 -0.013254)
(0.046325 -0.0029244 -0.011663)
(0.031521 -0.0021151 -0.0098482)
(0.019113 -0.0013268 -0.0079335)
(0.0091641 -0.0006305 -0.0060225)
(0.001486 -3.5854e-05 -0.0041764)
(0.18022 0.010443 0.0077261)
(0.16194 0.011127 0.008142)
(0.14245 0.011525 0.008343)
(0.12223 0.011572 0.008289)
(0.10188 0.011231 0.0079473)
(0.082088 0.010513 0.0073272)
(0.06347 0.0094699 0.0064823)
(0.046564 0.0081778 0.0054665)
(0.031783 0.0067189 0.0043482)
(0.019381 0.0052062 0.0032001)
(0.0094321 0.0037366 0.0021099)
(0.0017422 0.0023608 0.0011249)
(0.17995 0.0077924 0.0050194)
(0.16168 0.0083996 0.0054037)
(0.14222 0.0088033 0.005655)
(0.12206 0.0089599 0.0057389)
(0.10181 0.008831 0.0056379)
(0.082108 0.0084172 0.0053568)
(0.063578 0.0077624 0.0049214)
(0.04675 0.0069138 0.0043663)
(0.032022 0.0059351 0.0037383)
(0.019638 0.004899 0.0030868)
(0.0096794 0.0038767 0.0024614)
(0.0019695 0.0029153 0.001893)
(0.17966 0.0053981 0.0027343)
(0.16149 0.0058071 0.0029397)
(0.14215 0.0060821 0.0030774)
(0.12212 0.0061856 0.0031263)
(0.10201 0.0061011 0.0030822)
(0.082434 0.005829 0.0029457)
(0.064006 0.0053843 0.0027222)
(0.047247 0.0048008 0.0024317)
(0.032554 0.0041236 0.0020973)
(0.020176 0.0033992 0.0017395)
(0.010196 0.0026684 0.0013797)
(0.0024687 0.0019728 0.0010399)
(0.17949 0.0026497 -1.6009e-06)
(0.16138 0.0028473 -1.4236e-06)
(0.1421 0.0029783 -6.9617e-07)
(0.12215 0.0030269 3.1361e-07)
(0.10211 0.002981 1.1454e-06)
(0.082602 0.0028408 2.1643e-06)
(0.064224 0.0026169 3.2101e-06)
(0.047499 0.0023264 3.9446e-06)
(0.032823 0.0019892 4.4356e-06)
(0.020445 0.0016292 4.6037e-06)
(0.010451 0.0012694 4.6639e-06)
(0.0027147 0.00092676 4.4161e-06)
(0.17949 3.3709e-06 -0.0026487)
(0.16138 3.4059e-06 -0.0028459)
(0.1421 2.8416e-06 -0.0029765)
(0.12215 2.551e-06 -0.0030242)
(0.10211 2.1273e-06 -0.0029778)
(0.082602 1.6393e-06 -0.0028368)
(0.064224 1.2354e-06 -0.0026123)
(0.047498 1.0537e-06 -0.0023212)
(0.032822 1.0253e-06 -0.0019834)
(0.020445 1.2223e-06 -0.0016229)
(0.010451 1.7211e-06 -0.0012625)
(0.0027147 2.3828e-06 -0.00091937)
(0.17966 -0.0027321 -0.0053979)
(0.16149 -0.0029374 -0.0058062)
(0.14215 -0.0030743 -0.00608)
(0.12212 -0.0031234 -0.0061834)
(0.10201 -0.0030788 -0.0060977)
(0.082434 -0.0029419 -0.0058248)
(0.064006 -0.002718 -0.0053795)
(0.047246 -0.002427 -0.0047953)
(0.032553 -0.0020922 -0.0041175)
(0.020176 -0.0017337 -0.0033925)
(0.010196 -0.0013735 -0.0026612)
(0.0024685 -0.0010335 -0.0019653)
(0.17995 -0.0050163 -0.0077932)
(0.16168 -0.0054007 -0.0083999)
(0.14221 -0.005652 -0.0088036)
(0.12205 -0.0057354 -0.0089576)
(0.10181 -0.0056341 -0.0088279)
(0.082107 -0.0053526 -0.0084131)
(0.063578 -0.0049169 -0.0077575)
(0.04675 -0.0043614 -0.0069082)
(0.032021 -0.0037333 -0.0059287)
(0.019637 -0.0030816 -0.0048918)
(0.0096791 -0.0024558 -0.0038688)
(0.0019693 -0.0018873 -0.0029068)
(0.18022 -0.0077219 -0.010444)
(0.16194 -0.0081383 -0.011127)
(0.14245 -0.0083411 -0.011524)
(0.12222 -0.0082853 -0.011569)
(0.10188 -0.0079439 -0.011228)
(0.082087 -0.0073237 -0.010508)
(0.063469 -0.0064786 -0.0094645)
(0.046563 -0.0054626 -0.0081715)
(0.031782 -0.004344 -0.0067118)
(0.01938 -0.0031956 -0.0051988)
(0.0094312 -0.0021047 -0.0037283)
(0.0017416 -0.001119 -0.0023516)
(0.18022 0.0077278 0.01044)
(0.16194 0.0081441 0.011124)
(0.14245 0.0083456 0.011522)
(0.12223 0.0082916 0.011569)
(0.10188 0.0079486 0.011229)
(0.082089 0.0073275 0.010512)
(0.06347 0.0064819 0.00947)
(0.046564 0.0054656 0.0081784)
(0.031783 0.0043469 0.0067195)
(0.019381 0.0031989 0.0052069)
(0.0094318 0.0021091 0.003737)
(0.001742 0.001125 0.0023599)
(0.17995 0.0050231 0.0077895)
(0.16168 0.0054074 0.0083964)
(0.14222 0.0056576 0.0088007)
(0.12206 0.0057406 0.0089581)
(0.10181 0.0056384 0.0088299)
(0.082108 0.005356 0.0084173)
(0.063579 0.0049194 0.0077637)
(0.04675 0.0043636 0.0069159)
(0.032022 0.0037353 0.0059371)
(0.019638 0.0030841 0.0049007)
(0.009679 0.0024597 0.0038775)
(0.0019691 0.0018926 0.0029149)
(0.17966 0.0027387 0.0053947)
(0.16149 0.0029441 0.0058035)
(0.14215 0.0030804 0.0060788)
(0.12213 0.0031282 0.0061831)
(0.10201 0.0030833 0.0061)
(0.082435 0.0029454 0.0058292)
(0.064006 0.0027207 0.0053857)
(0.047247 0.0024293 0.0048031)
(0.032554 0.0020946 0.0041261)
(0.020176 0.0017368 0.0034014)
(0.010196 0.0013774 0.00267)
(0.0024684 0.0010385 0.0019733)
(0.17949 3.2472e-06 0.0026456)
(0.16138 3.2668e-06 0.0028432)
(0.1421 2.7101e-06 0.0029752)
(0.12216 2.4759e-06 0.0030248)
(0.10211 2.0596e-06 0.0029801)
(0.082602 1.6151e-06 0.0028412)
(0.064224 1.2408e-06 0.0026186)
(0.047499 1.1279e-06 0.0023291)
(0.032823 1.1484e-06 0.0019921)
(0.020445 1.4147e-06 0.001632)
(0.010451 1.9933e-06 0.0012715)
(0.0027144 2.6549e-06 0.00092783)
(0.17949 -0.0026432 -1.4403e-06)
(0.16138 -0.0028407 -1.2426e-06)
(0.1421 -0.0029726 -5.2691e-07)
(0.12216 -0.0030217 4.3635e-07)
(0.10211 -0.0029767 1.288e-06)
(0.082602 -0.0028374 2.2715e-06)
(0.064224 -0.0026144 3.2826e-06)
(0.047499 -0.0023244 3.9448e-06)
(0.032822 -0.001987 4.3805e-06)
(0.020444 -0.0016265 4.479e-06)
(0.010451 -0.0012656 4.4355e-06)
(0.0027144 -0.00092162 4.1795e-06)
(0.17966 -0.0053915 -0.0027377)
(0.16149 -0.0058001 -0.0029428)
(0.14215 -0.0060749 -0.0030779)
(0.12212 -0.0061798 -0.0031256)
(0.10201 -0.0060962 -0.0030798)
(0.082434 -0.0058251 -0.0029412)
(0.064005 -0.0053813 -0.0027158)
(0.047246 -0.0047983 -0.0024239)
(0.032553 -0.0041211 -0.0020886)
(0.020175 -0.003396 -0.0017301)
(0.010195 -0.0026642 -0.0013705)
(0.0024677 -0.0019674 -0.0010315)
(0.17995 -0.0077853 -0.0050226)
(0.16168 -0.0083925 -0.0054067)
(0.14221 -0.008798 -0.0056564)
(0.12205 -0.008954 -0.0057384)
(0.10181 -0.0088258 -0.0056353)
(0.082106 -0.008413 -0.005352)
(0.063576 -0.0077591 -0.0049147)
(0.046748 -0.0069109 -0.0043582)
(0.03202 -0.005932 -0.0037295)
(0.019636 -0.0048952 -0.0030777)
(0.0096776 -0.003872 -0.0024522)
(0.0019679 -0.0029092 -0.0018846)
(0.18022 -0.010436 -0.0077292)
(0.16194 -0.01112 -0.0081448)
(0.14245 -0.011518 -0.0083465)
(0.12222 -0.011566 -0.0082892)
(0.10188 -0.011226 -0.0079453)
(0.082087 -0.010509 -0.007323)
(0.063469 -0.0094665 -0.0064763)
(0.046562 -0.0081748 -0.0054592)
(0.031781 -0.0067157 -0.00434)
(0.019379 -0.0052031 -0.0031915)
(0.0094305 -0.0037323 -0.002101)
(0.001741 -0.0023547 -0.0011162)
(0.18042 0.005035 0.013887)
(0.16209 0.0052487 0.014877)
(0.14253 0.005308 0.0155)
(0.12223 0.0051781 0.015669)
(0.10182 0.0048494 0.015339)
(0.081952 0.0043376 0.014516)
(0.063275 0.0036823 0.013259)
(0.046326 0.0029271 0.011669)
(0.031522 0.0021177 0.0098561)
(0.019114 0.0013296 0.0079415)
(0.0091645 0.00063489 0.0060306)
(0.0014861 4.1969e-05 0.0041839)
(0.18012 0.0020509 0.010839)
(0.16181 0.0022371 0.011709)
(0.14228 0.0023544 0.012305)
(0.12206 0.002392 0.012554)
(0.10174 0.0023401 0.012418)
(0.081982 0.0022038 0.011897)
(0.063402 0.0020081 0.011025)
(0.046534 0.0017723 0.0098737)
(0.03178 0.0015111 0.0085305)
(0.019386 0.001263 0.0070939)
(0.0094283 0.0010571 0.0056446)
(0.0017317 0.00090939 0.0042283)
(0.17982 2.5313e-06 0.0082546)
(0.1616 2.6103e-06 0.0088939)
(0.1422 2.9627e-06 0.0093278)
(0.12211 2.4267e-06 0.0095051)
(0.10192 2.0395e-06 0.0093951)
(0.082287 1.6596e-06 0.008995)
(0.063808 1.4073e-06 0.0083322)
(0.047011 1.2738e-06 0.0074558)
(0.032299 1.2954e-06 0.0064306)
(0.019918 1.9259e-06 0.0053229)
(0.0099474 2.4968e-06 0.0041942)
(0.0022297 3.1726e-06 0.0031069)
(0.17966 -0.0027326 0.0053949)
(0.16149 -0.0029381 0.0058038)
(0.14215 -0.0030749 0.0060788)
(0.12212 -0.0031235 0.0061832)
(0.10201 -0.0030793 0.0061)
(0.082434 -0.0029423 0.0058292)
(0.064006 -0.0027182 0.0053855)
(0.047246 -0.0024271 0.0048027)
(0.032553 -0.0020922 0.0041258)
(0.020175 -0.0017337 0.003401)
(0.010195 -0.0013731 0.0026695)
(0.0024677 -0.0010328 0.0019727)
(0.17966 -0.005392 0.0027351)
(0.16149 -0.0058008 0.0029408)
(0.14215 -0.0060757 0.0030774)
(0.12213 -0.0061804 0.0031266)
(0.10201 -0.006097 0.0030828)
(0.082435 -0.0058259 0.0029462)
(0.064007 -0.0053819 0.0027226)
(0.047247 -0.0047988 0.002432)
(0.032554 -0.0041215 0.0020975)
(0.020176 -0.0033964 0.0017391)
(0.010196 -0.0026645 0.0013793)
(0.0024682 -0.0019674 0.0010395)
(0.17982 -0.0082508 -8.6138e-07)
(0.1616 -0.0088902 -4.1151e-07)
(0.1422 -0.0093245 3.1561e-08)
(0.12211 -0.0095015 7.8263e-07)
(0.10192 -0.0093915 2.0112e-06)
(0.082287 -0.0089914 2.9724e-06)
(0.063807 -0.0083283 3.7528e-06)
(0.047011 -0.0074515 4.3682e-06)
(0.032299 -0.006426 4.7166e-06)
(0.019918 -0.005318 4.886e-06)
(0.0099469 -0.0041893 4.5053e-06)
(0.0022294 -0.0031021 4.052e-06)
(0.18013 -0.010834 -0.0020492)
(0.16181 -0.011704 -0.0022356)
(0.14228 -0.012301 -0.0023521)
(0.12206 -0.01255 -0.002389)
(0.10174 -0.012414 -0.0023363)
(0.081979 -0.011892 -0.0021994)
(0.063398 -0.01102 -0.0020033)
(0.04653 -0.0098687 -0.0017671)
(0.031777 -0.0085253 -0.0015052)
(0.019382 -0.0070883 -0.0012565)
(0.0094259 -0.0056388 -0.0010498)
(0.0017294 -0.0042222 -0.00090171)
(0.18042 -0.013883 -0.0050352)
(0.16209 -0.014873 -0.0052487)
(0.14253 -0.015496 -0.0053073)
(0.12223 -0.015665 -0.0051761)
(0.10181 -0.015335 -0.0048461)
(0.081949 -0.014512 -0.0043329)
(0.063272 -0.013255 -0.0036769)
(0.046323 -0.011665 -0.0029211)
(0.031519 -0.0098511 -0.0021113)
(0.019111 -0.0079365 -0.0013229)
(0.0091617 -0.0060247 -0.00062662)
(0.0014838 -0.0041774 -3.2653e-05)
(0.1808 0.0027571 0.016766)
(0.16237 0.002657 0.01797)
(0.14268 0.0024336 0.018732)
(0.12223 0.0021093 0.018925)
(0.10167 0.0016805 0.018479)
(0.081664 0.0011582 0.017414)
(0.062876 0.00057136 0.015837)
(0.045849 -5.2955e-05 0.01388)
(0.030991 -0.00068447 0.011682)
(0.018545 -0.0012738 0.0093718)
(0.0085814 -0.001787 0.00709)
(0.00093028 -0.0021932 0.0049648)
(0.18044 2.9661e-06 0.013456)
(0.16204 2.8443e-06 0.014584)
(0.1424 2.5257e-06 0.015368)
(0.12204 2.0855e-06 0.015728)
(0.10159 1.571e-06 0.015603)
(0.081702 9.6472e-07 0.014994)
(0.063007 4.2669e-07 0.013961)
(0.046058 9.9643e-08 0.012595)
(0.031256 2.7521e-07 0.011005)
(0.018834 7.9006e-07 0.0092957)
(0.0088652 1.8481e-06 0.0075569)
(0.0011755 2.9084e-06 0.0058582)
(0.18013 -0.0020447 0.010838)
(0.16181 -0.0022316 0.011708)
(0.14228 -0.0023498 0.012305)
(0.12206 -0.002388 0.012554)
(0.10174 -0.0023368 0.012418)
(0.081979 -0.0022013 0.011896)
(0.063399 -0.0020063 0.011025)
(0.046531 -0.0017708 0.0098732)
(0.031777 -0.0015093 0.0085299)
(0.019382 -0.0012601 0.0070929)
(0.0094257 -0.0010528 0.0056434)
(0.0017292 -0.00090339 0.0042268)
(0.17995 -0.0050167 0.0077898)
(0.16168 -0.0054014 0.0083968)
(0.14222 -0.0056527 0.0088017)
(0.12206 -0.0057363 0.0089586)
(0.10181 -0.005635 0.0088299)
(0.082107 -0.0053535 0.0084171)
(0.063577 -0.0049176 0.0077633)
(0.046749 -0.0043619 0.0069154)
(0.03202 -0.0037335 0.0059367)
(0.019636 -0.0030816 0.0049)
(0.009677 -0.0024557 0.0038767)
(0.0019674 -0.001887 0.0029139)
(0.17995 -0.007786 0.0050197)
(0.16168 -0.0083934 0.0054044)
(0.14222 -0.0087989 0.0056557)
(0.12206 -0.0089557 0.0057395)
(0.10181 -0.0088273 0.0056383)
(0.082109 -0.0084146 0.0053571)
(0.063579 -0.0077604 0.0049216)
(0.04675 -0.0069121 0.0043663)
(0.032022 -0.0059332 0.0037384)
(0.019637 -0.0048963 0.0030867)
(0.0096784 -0.0038728 0.002461)
(0.0019684 -0.00291 0.0018926)
(0.18012 -0.010834 0.002047)
(0.16181 -0.011705 0.0022344)
(0.14228 -0.012302 0.0023525)
(0.12206 -0.012551 0.0023913)
(0.10174 -0.012415 0.0023403)
(0.081982 -0.011894 0.0022054)
(0.063401 -0.011022 0.002011)
(0.046534 -0.0098705 0.001776)
(0.03178 -0.0085271 0.0015147)
(0.019385 -0.0070901 0.0012662)
(0.0094277 -0.0056405 0.0010589)
(0.0017309 -0.0042242 0.00090988)
(0.18044 -0.013452 -7.9708e-07)
(0.16204 -0.01458 -2.4213e-07)
(0.1424 -0.015365 1.9544e-07)
(0.12204 -0.015725 1.3492e-06)
(0.10159 -0.0156 2.1779e-06)
(0.081701 -0.014991 2.945e-06)
(0.063006 -0.013958 3.8636e-06)
(0.046058 -0.012591 4.4559e-06)
(0.031255 -0.011002 4.6846e-06)
(0.018834 -0.0092912 4.5194e-06)
(0.0088652 -0.0075528 4.2781e-06)
(0.0011753 -0.0058541 3.8157e-06)
(0.1808 -0.016763 -0.0027558)
(0.16237 -0.017967 -0.0026557)
(0.14267 -0.018729 -0.0024323)
(0.12223 -0.018921 -0.0021063)
(0.10166 -0.018475 -0.001677)
(0.081662 -0.01741 -0.001154)
(0.062873 -0.015832 -0.0005668)
(0.045846 -0.013876 5.8074e-05)
(0.030989 -0.011677 0.00069056)
(0.018543 -0.0093666 0.0012801)
(0.0085791 -0.0070843 0.0017945)
(0.00092794 -0.0049593 0.0022015)
(0.18141 2.7076e-06 0.025156)
(0.16281 2.2468e-06 0.026681)
(0.14292 8.7037e-07 0.027543)
(0.12225 8.9225e-07 0.027543)
(0.10145 6.3491e-07 0.026622)
(0.081254 2.8755e-07 0.024822)
(0.06232 -1.0588e-07 0.022282)
(0.045197 -2.5931e-07 0.019186)
(0.030293 1.0189e-07 0.015691)
(0.017854 2.2432e-07 0.011966)
(0.0079402 1.1284e-06 0.0081942)
(0.00034435 2.0586e-06 0.0045226)
(0.1808 -0.0027512 0.016766)
(0.16237 -0.0026519 0.017969)
(0.14268 -0.0024303 0.018731)
(0.12223 -0.0021065 0.018924)
(0.10167 -0.0016783 0.018478)
(0.081663 -0.0011568 0.017413)
(0.062874 -0.0005707 0.015836)
(0.045847 5.3319e-05 0.013879)
(0.030989 0.00068528 0.01168)
(0.018543 0.0012756 0.0093703)
(0.0085787 0.0017903 0.0070885)
(0.0009281 0.0021982 0.0049635)
(0.18042 -0.0050297 0.013886)
(0.16209 -0.0052441 0.014877)
(0.14253 -0.0053051 0.0155)
(0.12223 -0.0051754 0.01567)
(0.10181 -0.004847 0.015339)
(0.08195 -0.0043356 0.014517)
(0.063273 -0.0036806 0.01326)
(0.046324 -0.0029253 0.01167)
(0.031519 -0.0021156 0.0098561)
(0.019111 -0.0013266 0.0079417)
(0.0091617 -0.00063068 0.0060301)
(0.0014836 -3.6302e-05 0.0041828)
(0.18022 -0.0077222 0.01044)
(0.16194 -0.0081384 0.011124)
(0.14245 -0.0083415 0.011523)
(0.12223 -0.0082876 0.01157)
(0.10188 -0.0079452 0.011231)
(0.082089 -0.0073249 0.010513)
(0.06347 -0.0064797 0.0094712)
(0.046563 -0.0054634 0.0081796)
(0.031782 -0.0043445 0.0067205)
(0.019379 -0.0031958 0.0052074)
(0.00943 -0.0021046 0.0037371)
(0.0017406 -0.0011193 0.0023596)
(0.18022 -0.010436 0.0077265)
(0.16194 -0.01112 0.0081425)
(0.14245 -0.01152 0.0083455)
(0.12223 -0.011567 0.0082907)
(0.10188 -0.011227 0.0079484)
(0.08209 -0.01051 0.0073283)
(0.063471 -0.0094676 0.0064835)
(0.046564 -0.0081757 0.0054675)
(0.031782 -0.0067164 0.004349)
(0.01938 -0.0052035 0.0032003)
(0.0094306 -0.0037324 0.0021097)
(0.001741 -0.0023548 0.0011243)
(0.18042 -0.013884 0.0050327)
(0.16209 -0.014874 0.0052468)
(0.14253 -0.015497 0.0053073)
(0.12223 -0.015667 0.0051784)
(0.10182 -0.015336 0.0048499)
(0.081952 -0.014513 0.0043389)
(0.063276 -0.013256 0.0036845)
(0.046326 -0.011666 0.0029297)
(0.031521 -0.0098523 0.0021203)
(0.019113 -0.0079372 0.001332)
(0.0091631 -0.0060257 0.00063531)
(0.001485 -0.0041787 4.0698e-05)
(0.1808 -0.016764 0.0027535)
(0.16237 -0.017968 0.0026545)
(0.14268 -0.01873 0.0024327)
(0.12223 -0.018922 0.002109)
(0.10167 -0.018476 0.0016808)
(0.081664 -0.017411 0.0011595)
(0.062876 -0.015833 0.00057416)
(0.045849 -0.013877 -4.9575e-05)
(0.030991 -0.011678 -0.00068184)
(0.018545 -0.0093672 -0.0012716)
(0.0085809 -0.0070852 -0.0017865)
(0.00092938 -0.00496 -0.0021944)
(0.18141 -0.025155 -4.8036e-07)
(0.16281 -0.02668 -2.5696e-07)
(0.14292 -0.02754 4.4018e-07)
(0.12225 -0.02754 1.646e-06)
(0.10145 -0.026617 1.7327e-06)
(0.081254 -0.024816 2.3398e-06)
(0.06232 -0.022276 3.1922e-06)
(0.045197 -0.019179 3.5069e-06)
(0.030293 -0.015685 3.5958e-06)
(0.017853 -0.011961 3.3184e-06)
(0.0079397 -0.0081879 3.4894e-06)
(0.00034353 -0.004516 3.2233e-06)
(-0.0023814 0.018177 -0.0014509)
(0.00493 0.023591 -0.002379)
(0.01478 0.028197 -0.0032669)
(0.027278 0.032219 -0.0041628)
(0.042373 0.035761 -0.0050903)
(0.059826 0.038689 -0.0059813)
(0.079251 0.040729 -0.0067164)
(0.1001 0.041619 -0.0072108)
(0.12166 0.041238 -0.0074443)
(0.14314 0.03961 -0.0074198)
(0.16381 0.036894 -0.0071595)
(0.18304 0.033376 -0.0067102)
(-0.00055456 0.014643 -0.0041692)
(0.0065888 0.019473 -0.0049144)
(0.016253 0.023633 -0.0054706)
(0.02855 0.027316 -0.0060096)
(0.043431 0.030616 -0.0065726)
(0.060668 0.033422 -0.0070936)
(0.079859 0.035455 -0.0074544)
(0.10043 0.036474 -0.0075804)
(0.12169 0.036358 -0.0074578)
(0.14288 0.035118 -0.0070995)
(0.1633 0.032892 -0.0065421)
(0.18235 0.029941 -0.0058494)
(-0.00027749 0.01288 -0.008282)
(0.0070787 0.017016 -0.01046)
(0.016792 0.020596 -0.012232)
(0.029092 0.02378 -0.013769)
(0.043966 0.026636 -0.015113)
(0.061168 0.029079 -0.016213)
(0.080286 0.030869 -0.016957)
(0.10076 0.031783 -0.017237)
(0.1219 0.031707 -0.017003)
(0.14297 0.030651 -0.016268)
(0.16327 0.028736 -0.015106)
(0.18223 0.026183 -0.013637)
(-2.4268e-06 0.011625 -0.0085454)
(0.0073267 0.015151 -0.011412)
(0.017015 0.018187 -0.013902)
(0.029296 0.02088 -0.016115)
(0.044145 0.023284 -0.0181)
(0.061311 0.025317 -0.019789)
(0.080377 0.026781 -0.021019)
(0.10078 0.027493 -0.021644)
(0.12185 0.027366 -0.021598)
(0.14285 0.026407 -0.020889)
(0.16309 0.024716 -0.019597)
(0.182 0.022484 -0.017876)
(-3.0015e-06 0.0085533 -0.011617)
(0.0073259 0.011419 -0.015144)
(0.017014 0.013908 -0.018181)
(0.029296 0.01612 -0.020875)
(0.044144 0.018104 -0.023279)
(0.06131 0.019793 -0.025313)
(0.080377 0.021022 -0.026778)
(0.10078 0.021647 -0.027491)
(0.12185 0.0216 -0.027364)
(0.14285 0.020891 -0.026404)
(0.16309 0.0196 -0.024713)
(0.182 0.017879 -0.022481)
(-0.00027815 0.0082912 -0.012873)
(0.0070778 0.010468 -0.01701)
(0.016791 0.01224 -0.02059)
(0.029091 0.013776 -0.023776)
(0.043965 0.015119 -0.026632)
(0.061168 0.016219 -0.029075)
(0.080285 0.016962 -0.030865)
(0.10076 0.017242 -0.03178)
(0.1219 0.017007 -0.031705)
(0.14297 0.016272 -0.030648)
(0.16327 0.015108 -0.028732)
(0.18223 0.013639 -0.026178)
(-0.00055647 0.0041776 -0.014636)
(0.0065868 0.0049216 -0.019466)
(0.016251 0.0054769 -0.023627)
(0.028549 0.0060148 -0.027311)
(0.04343 0.0065768 -0.030613)
(0.060667 0.0070972 -0.033418)
(0.079858 0.0074581 -0.035451)
(0.10043 0.0075843 -0.03647)
(0.12169 0.0074613 -0.036354)
(0.14288 0.0071028 -0.035114)
(0.1633 0.0065446 -0.032887)
(0.18235 0.0058515 -0.029935)
(-0.0023834 0.0014549 -0.01817)
(0.0049275 0.0023835 -0.023585)
(0.014778 0.0032711 -0.028193)
(0.027276 0.0041663 -0.032216)
(0.042371 0.005093 -0.035759)
(0.059825 0.0059837 -0.038686)
(0.07925 0.0067189 -0.040726)
(0.1001 0.0072135 -0.041616)
(0.12166 0.007447 -0.041235)
(0.14314 0.0074222 -0.039607)
(0.16381 0.007161 -0.03689)
(0.18304 0.0067113 -0.033371)
(-0.015318 0.012851 -0.0019202)
(-0.0064569 0.015806 -0.0025218)
(0.0047333 0.018214 -0.0028838)
(0.018121 0.020244 -0.0031628)
(0.034053 0.021992 -0.0034413)
(0.052727 0.023373 -0.0037311)
(0.073882 0.024222 -0.0039367)
(0.096787 0.02438 -0.0040246)
(0.12047 0.02379 -0.0039808)
(0.14392 0.022483 -0.0038112)
(0.16618 0.020566 -0.0035387)
(0.18644 0.018224 -0.0031957)
(-0.014318 0.011403 -0.0031648)
(-0.0054367 0.014274 -0.004021)
(0.0057973 0.016598 -0.0045368)
(0.019117 0.018559 -0.004902)
(0.03492 0.020263 -0.0052071)
(0.05346 0.021636 -0.0054997)
(0.074493 0.022502 -0.0056981)
(0.097257 0.022728 -0.005749)
(0.12079 0.022258 -0.0056219)
(0.1441 0.021119 -0.0053229)
(0.16624 0.01941 -0.0048857)
(0.18641 0.017296 -0.0043551)
(-0.013702 0.0094804 -0.0053509)
(-0.0048719 0.01204 -0.0067065)
(0.0063853 0.014101 -0.0077806)
(0.019735 0.015846 -0.0086437)
(0.035541 0.017374 -0.0093446)
(0.054022 0.018641 -0.0098961)
(0.074968 0.019485 -0.01025)
(0.097653 0.01977 -0.010334)
(0.12112 0.019437 -0.010112)
(0.14435 0.018504 -0.0095917)
(0.16642 0.017062 -0.0088146)
(0.18655 0.015259 -0.0078555)
(-0.013396 0.0083684 -0.0066022)
(-0.0046216 0.010566 -0.0083713)
(0.0066011 0.01233 -0.0098255)
(0.01995 0.013814 -0.011043)
(0.035751 0.015096 -0.012089)
(0.054225 0.01615 -0.012934)
(0.075149 0.016849 -0.013484)
(0.097784 0.017075 -0.013657)
(0.12118 0.016774 -0.013423)
(0.14436 0.01596 -0.012789)
(0.1664 0.014709 -0.011809)
(0.1865 0.013148 -0.010578)
(-0.013397 0.0066106 -0.0083611)
(-0.0046223 0.0083783 -0.01056)
(0.0066007 0.0098319 -0.012325)
(0.019949 0.011048 -0.013809)
(0.035751 0.012093 -0.015092)
(0.054225 0.012938 -0.016146)
(0.075148 0.013487 -0.016846)
(0.097783 0.01366 -0.017073)
(0.12118 0.013425 -0.016772)
(0.14436 0.012792 -0.015957)
(0.1664 0.011812 -0.014706)
(0.1865 0.010582 -0.013144)
(-0.013703 0.0053594 -0.0094737)
(-0.0048733 0.0067146 -0.012034)
(0.0063843 0.0077878 -0.014096)
(0.019734 0.0086496 -0.015841)
(0.035541 0.0093498 -0.01737)
(0.054021 0.0099008 -0.018637)
(0.074966 0.010254 -0.019481)
(0.097652 0.010338 -0.019767)
(0.12112 0.010115 -0.019434)
(0.14436 0.0095946 -0.018502)
(0.16642 0.008818 -0.017059)
(0.18655 0.0078597 -0.015256)
(-0.014321 0.0031752 -0.011397)
(-0.0054387 0.0040303 -0.014269)