/*--------------------------------*- C++ -*----------------------------------*\
| =========                 |                                                 |
| \\      /  F ield         | foam-extend: Open Source CFD                    |
|  \\    /   O peration     | Version:     4.1-20200408                       |
|   \\  /    A nd           | Web:         http://www.foam-extend.org         |
|    \\/     M anipulation  |                                                 |
\*---------------------------------------------------------------------------*/
FoamFile
{
    version     2.0;
    format      ascii;
    class       volScalarField;
    location    "0.0635000";
    object      ccz;
}
// * * * * * * * * * * * * * * * * * * * * * * * * * * * * * * * * * * * * * //

dimensions      [0 1 0 0 0 0 0];

internalField   nonuniform List<scalar> 
1952
(
-2.78195e-13
4.16861e-12
-3.10046e-12
-1.3703e-11
6.82961e-12
3.78291e-11
2.44259e-11
6.76908e-22
1.2729e-11
1.22919e-11
-1.269e-11
-1.23255e-11
9.25089e-23
-8.58519e-22
-1.60328e-22
1.54904e-12
-2.77802e-13
4.16669e-12
-3.09532e-12
-1.5e-11
5.60637e-12
2.50003e-11
-5.55774e-13
-2.49997e-11
1.31587e-11
2.46027e-11
-2.53629e-11
-3.73329e-11
3.09444e-13
1.23558e-11
-1.36942e-21
1.54892e-12
1.11112e-12
4.00003e-12
-4.28577e-12
-1.5e-11
5.60546e-12
1.21793e-11
-1.27785e-11
-2.50002e-11
4.39032e-13
1.23011e-11
-1.26811e-11
-3.76676e-11
6.18879e-13
3.73557e-11
1.2365e-11
1.54896e-12
-2.7778e-13
2.83336e-12
-2.97628e-12
-1.37963e-11
5.60699e-12
1.21799e-11
-6.66923e-22
-1.27456e-11
4.39027e-13
2.49997e-11
1.2318e-11
-1.26671e-11
1.2964e-11
3.7356e-11
1.23652e-11
1.54893e-12
-2.77785e-13
4.16668e-12
-1.78577e-12
-1.25e-11
6.81825e-12
1.21788e-11
4.44549e-22
-2.54897e-11
8.79716e-13
3.73015e-11
-3.62565e-13
-1.23329e-11
1.26548e-11
1.2356e-11
8.55951e-23
1.54896e-12
-2.77779e-13
4.16671e-12
-1.78579e-12
-1.12037e-11
8.03064e-12
1.21794e-11
-4.44661e-23
-1.27458e-11
4.38199e-13
1.23011e-11
-1.26815e-11
-1.23331e-11
1.26546e-11
2.49998e-11
1.2365e-11
1.54893e-12
8.33432e-13
4.16669e-12
-4.76252e-13
-1e-11
-4.84843e-12
1.28205e-11
1.2222e-11
-1.17665e-21
-1.26285e-21
1.20537e-21
-1.26813e-11
-1.23328e-11
2.53094e-11
3.7356e-11
1.23653e-11
3.21562e-12
1.11112e-12
4.00003e-12
-1.66699e-12
-1.12963e-11
6.81824e-12
2.5e-11
1.22222e-11
-1.27456e-11
4.3902e-13
1.23016e-11
-1.2682e-11
-2.5e-11
1.29643e-11
3.73557e-11
1.2365e-11
1.54898e-12
1.11106e-12
4e-12
-1.66644e-12
-1.12963e-11
1.96983e-11
3.71792e-11
1.22219e-11
-2.54906e-11
-1.18413e-11
1.23015e-11
-9.26349e-22
-1.26671e-11
1.29653e-11
3.7356e-11
1.23657e-11
1.54895e-12
1.11112e-12
5.33336e-12
-1.78577e-12
-1.12036e-11
2.09084e-11
3.71795e-11
1.22222e-11
-2.54906e-11
-1.18416e-11
1.23008e-11
-1.33173e-21
-1.26668e-11
1.29643e-11
3.73557e-11
1.2365e-11
1.54899e-12
-1.38888e-12
4.16671e-12
-1.7858e-12
-1.12038e-11
2.09104e-11
2.43587e-11
4.8919e-22
-2.54906e-11
-1.18413e-11
2.5e-11
-3.6287e-13
-2.5e-11
1.2964e-11
3.7356e-11
1.23648e-11
-1.17694e-13
-1.66668e-12
3.00003e-12
-1.78614e-12
-1.12037e-11
2.09084e-11
3.71788e-11
1.22219e-11
-2.54906e-11
-1.18416e-11
2.5e-11
-3.62887e-13
-1.23331e-11
1.26548e-11
1.2356e-11
-8.56407e-23
1.54896e-12
-2.77785e-13
2.83336e-12
-4.2854e-12
-1.24073e-11
2.09094e-11
3.71795e-11
1.22222e-11
-1.27454e-11
1.31584e-11
2.46027e-11
1.44779e-21
-1.26673e-11
-1.23455e-11
-6.41263e-22
-8.56462e-23
1.549e-12
1.1111e-12
4e-12
-2.97661e-12
-1.25e-11
6.81913e-12
2.5e-11
1.22215e-11
1.29478e-21
2.5439e-11
2.46019e-11
1.27401e-21
-1.26671e-11
-1.2345e-11
0
-1.37028e-21
1.54897e-12
1.11112e-12
4.00003e-12
-1.66671e-12
-1.12963e-11
-6.06055e-12
1.28208e-11
1.22222e-11
-5.10099e-22
1.27197e-11
1.23015e-11
-1.26813e-11
-1.23328e-11
-3.94045e-22
1.26441e-11
1.23646e-11
1.54901e-12
1.1111e-12
4.00013e-12
-2.97592e-12
-1.12036e-11
-4.84843e-12
1.28205e-11
1.2222e-11
-1.27452e-11
4.39853e-13
1.23016e-11
-1.2682e-11
-2.5e-11
-1.23452e-11
1.26443e-11
1.23653e-11
1.54898e-12
-2.77756e-13
4.16651e-12
-1.78616e-12
-1.12037e-11
-4.8486e-12
1.28212e-11
1.22222e-11
-1.27454e-11
4.39031e-13
1.23015e-11
-1.26813e-11
-3.76669e-11
-2.46897e-11
1.28259e-21
2.5698e-22
1.54902e-12
-1.38891e-12
4.16668e-12
-4.76253e-13
-1e-11
8.031e-12
2.49997e-11
1.22219e-11
-2.74719e-22
1.40404e-22
3.17424e-22
-1.26816e-11
-2.50003e-11
3.08393e-13
1.23557e-11
-1.26352e-11
-1.17665e-13
-2.77779e-13
4.16691e-12
-4.76253e-13
-1e-11
2.09094e-11
3.71795e-11
1.22222e-11
-1.27455e-11
4.38192e-13
1.23008e-11
4.05453e-22
2.13011e-22
2.53095e-11
2.47109e-11
-1.26346e-11
1.54899e-12
-5.55564e-13
3.00004e-12
-1.78541e-12
-1.12036e-11
8.0306e-12
1.21795e-11
-2.22488e-22
-1.27454e-11
1.31584e-11
3.73013e-11
1.23184e-11
1.27813e-21
1.26548e-11
2.5e-11
1.23646e-11
3.21568e-12
8.33313e-13
4.16648e-12
-3.09573e-12
-1.24074e-11
-4.84843e-12
1.28205e-11
1.22219e-11
-1.27452e-11
1.31599e-11
3.73019e-11
1.23187e-11
9.58768e-22
9.85485e-22
1.26447e-11
1.23653e-11
3.21568e-12
2.22222e-12
5.33336e-12
-1.7858e-12
-1.25e-11
6.81827e-12
3.78206e-11
2.44441e-11
-1.27454e-11
4.39031e-13
1.2301e-11
-1.73801e-22
1.27818e-21
-1.18242e-21
1.26436e-11
1.2365e-11
3.21574e-12
2.22222e-12
5.33352e-12
-4.76252e-13
-1.25926e-11
5.60643e-12
2.50003e-11
1.22222e-11
-1.27452e-11
-1.22803e-11
6.35045e-23
-1.26813e-11
-1.23328e-11
1.26551e-11
2.5e-11
1.23653e-11
3.21563e-12
2.22222e-12
5.33336e-12
-1.78577e-12
-1.25e-11
6.81821e-12
1.21792e-11
-1.78017e-22
-1.27454e-11
-1.22806e-11
1.26985e-11
-3.63096e-13
-1.23331e-11
1.26545e-11
1.23556e-11
2.5707e-22
3.21569e-12
8.33341e-13
2.83338e-12
-2.97625e-12
-1.12037e-11
8.0306e-12
1.21794e-11
-4.89628e-22
-1.27452e-11
-1.22803e-11
1.26988e-11
1.23183e-11
-1.43825e-21
1.26546e-11
2.49997e-11
1.23651e-11
3.2157e-12
-5.55724e-13
1.66648e-12
-1.66673e-12
-1e-11
8.03038e-12
1.21792e-11
-6.23203e-22
-1.27454e-11
-1.22802e-11
-7.62047e-22
1.68068e-21
7.99148e-22
1.26549e-11
3.76442e-11
2.47303e-11
3.2157e-12
8.33433e-13
4.16689e-12
-1.78577e-12
-1.12037e-11
8.0306e-12
2.5e-11
1.22223e-11
1.57053e-22
9.83287e-22
-5.08165e-22
-1.26818e-11
-1.23328e-11
1.37994e-21
1.26443e-11
1.23653e-11
3.21571e-12
8.33341e-13
4.16671e-12
-1.78579e-12
-1.12037e-11
-4.84843e-12
2.56413e-11
2.44433e-11
-1.27448e-11
-1.228e-11
1.27025e-22
-1.26816e-11
-1.23331e-11
1.26546e-11
1.23553e-11
0
3.21571e-12
8.33312e-13
2.83336e-12
-2.97623e-12
-1.12037e-11
8.03033e-12
2.5e-11
1.22222e-11
-1.27458e-11
-1.22811e-11
3.17611e-22
1.73877e-22
1.27877e-21
1.26549e-11
1.2356e-11
1.71435e-22
3.21577e-12
1.11112e-12
4.00001e-12
-4.28617e-12
-1.24075e-11
8.03118e-12
2.5e-11
1.22219e-11
-1.27451e-11
4.39844e-13
1.23012e-11
2.89813e-22
-1.26664e-11
-1.23447e-11
1.2644e-11
-2.69718e-13
1.54904e-12
-1.27125e-22
5.33336e-12
-1.78543e-12
-1.12037e-11
8.03036e-12
2.5e-11
1.22223e-11
-2.54906e-11
-1.18413e-11
1.23015e-11
-2.31886e-22
-1.26676e-11
3.0921e-13
3.76436e-11
1.2094e-11
-1.17607e-13
8.53444e-23
5.33336e-12
-4.76254e-13
-1e-11
8.03066e-12
1.21795e-11
-1.78127e-22
-1.27459e-11
-1.22806e-11
1.26985e-11
1.23184e-11
-6.39518e-22
1.26549e-11
2.50003e-11
-2.68648e-13
-1.17611e-13
-2.77698e-13
4.16672e-12
-4.76584e-13
-1.12963e-11
6.81826e-12
1.21792e-11
8.01538e-22
-2.35673e-22
1.27198e-11
2.5e-11
1.23187e-11
-1.26669e-11
-1.23447e-11
0
-1.2635e-11
1.54907e-12
8.33183e-13
2.83336e-12
-2.97622e-12
-1.25e-11
6.81861e-12
1.21795e-11
5.78992e-22
-1.27451e-11
4.39392e-13
1.23011e-11
-4.63827e-22
-1.26672e-11
-1.23454e-11
1.2644e-11
1.23645e-11
3.21568e-12
-2.77654e-13
2.83352e-12
-4.28544e-12
-1.37036e-11
6.8182e-12
1.21791e-11
8.90836e-23
-2.54914e-11
-1.18416e-11
1.23012e-11
-5.79828e-23
1.11927e-21
1.28182e-21
1.26447e-11
1.23653e-11
1.5491e-12
-2.77838e-13
4.16667e-12
-3.09532e-12
-1.37037e-11
6.81861e-12
1.21791e-11
-4.45373e-23
-2.54898e-11
-1.184e-11
1.23015e-11
6.95841e-22
-1.26672e-11
-1.23451e-11
2.47627e-21
8.57482e-22
1.54904e-12
8.33329e-13
2.83331e-12
-4.28606e-12
-1.24075e-11
-4.84833e-12
-5.39934e-22
-8.91065e-23
-2.54914e-11
-1.18423e-11
1.2301e-11
1.15981e-21
-1.2667e-11
-1.23451e-11
1.26441e-11
1.23646e-11
3.21576e-12
-2.77792e-13
2.83329e-12
-2.97627e-12
-1.25e-11
-6.0605e-12
3.08548e-22
1.20294e-21
-2.54908e-11
8.78318e-13
2.46024e-11
2.3198e-22
2.13245e-22
6.90382e-22
1.26446e-11
1.23651e-11
1.54914e-12
-1.38884e-12
4.16673e-12
-1.78575e-12
-1.25e-11
-6.06059e-12
1.28203e-11
1.22217e-11
-2.54907e-11
8.78514e-13
2.46026e-11
-1.26814e-11
-2.49996e-11
-1.23449e-11
1.26442e-11
-2.70224e-13
-1.17579e-13
-1.38895e-12
4.16665e-12
-1.78582e-12
-1.25e-11
6.81794e-12
2.5e-11
1.22224e-11
-1.27456e-11
1.31585e-11
2.46024e-11
-1.26818e-11
-3.76675e-11
-2.469e-11
1.26447e-11
-1.29054e-11
-1.17574e-13
8.45635e-23
5.33334e-12
-1.78566e-12
-1.25e-11
6.81889e-12
1.218e-11
-4.01134e-22
-1.27448e-11
1.31591e-11
2.46025e-11
-2.32053e-22
-1.26675e-11
-1.23452e-11
1.26443e-11
-2.70972e-13
-1.1757e-13
0
4.00009e-12
-2.97622e-12
-1.12038e-11
8.02955e-12
1.21788e-11
1.78299e-22
-1.27458e-11
4.39029e-13
1.23017e-11
7.54255e-22
-5.33325e-22
-1.77581e-21
2.52892e-11
2.47293e-11
-1.17566e-13
1.11102e-12
3.99989e-12
-1.66673e-12
-1e-11
8.03121e-12
2.5e-11
1.22214e-11
-1.02246e-21
1.27188e-11
1.23008e-11
-1.74096e-22
2.13378e-22
9.8677e-23
1.26449e-11
1.23648e-11
1.54897e-12
2.22223e-12
5.33331e-12
-4.76161e-13
-1e-11
-4.8485e-12
2.56408e-11
2.44445e-11
-1.27443e-11
1.3159e-11
2.46028e-11
-8.12586e-22
-1.26667e-11
-1.23446e-11
7.34184e-22
-5.14662e-22
3.21577e-12
1.11124e-12
5.33333e-12
-1.78544e-12
-1.12036e-11
-4.84854e-12
2.56408e-11
2.44446e-11
-1.27461e-11
4.38599e-13
1.23024e-11
5.22534e-22
-2.53342e-11
-1.20353e-11
1.23548e-11
2.65942e-21
1.54929e-12
6.97873e-23
5.3333e-12
-1.78577e-12
-1.12039e-11
-4.84854e-12
2.56407e-11
2.44449e-11
-1.27437e-11
4.38405e-13
2.49979e-11
1.23177e-11
-1.26679e-11
3.09968e-13
1.23559e-11
2.05935e-21
-1.1755e-13
-2.77727e-13
2.83359e-12
-1.66639e-12
-1e-11
-4.84857e-12
2.56405e-11
2.4445e-11
-2.54896e-11
-1.18414e-11
2.50028e-11
1.23201e-11
-2.13616e-22
2.46968e-21
1.26436e-11
1.23628e-11
1.54891e-12
-5.55525e-13
1.66643e-12
-2.97603e-12
-1.12036e-11
-4.84862e-12
1.28219e-11
1.22241e-11
-1.27464e-11
4.34634e-13
1.23004e-11
-9.88048e-22
-1.06859e-22
1.26532e-11
2.5e-11
1.23657e-11
3.21578e-12
-2.77791e-13
4.16643e-12
-1.78565e-12
-1.25e-11
6.81612e-12
2.49967e-11
1.2221e-11
-3.93809e-23
1.27206e-11
1.23037e-11
-1.33736e-21
-1.26649e-11
3.11919e-13
1.23572e-11
-4.29954e-22
1.54935e-12
1.11098e-12
5.33325e-12
-1.78534e-12
-1.25e-11
6.81909e-12
3.78217e-11
2.44456e-11
-1.27428e-11
4.37269e-13
1.23006e-11
3.49038e-22
-2.53324e-11
-2.46918e-11
1.26425e-11
1.23641e-11
1.54892e-12
2.22225e-12
5.33325e-12
-1.78559e-12
-1.25e-11
-6.06069e-12
1.28216e-11
1.22245e-11
-1.2746e-11
4.37046e-13
1.23041e-11
8.72998e-22
-1.26674e-11
-1.23477e-11
1.26448e-11
-2.66931e-13
3.21579e-12
-2.77498e-13
4.16667e-12
-4.75938e-13
-1.25925e-11
-7.27303e-12
4.38057e-22
3.57302e-22
-1.27427e-11
-1.22802e-11
1.3394e-21
1.28102e-21
-1.26641e-11
3.06574e-13
1.23562e-11
-2.5267e-11
1.5493e-12
-2.77922e-13
4.16647e-12
-4.75901e-13
-1.25925e-11
5.60427e-12
2.49979e-11
1.2222e-11
-2.54883e-11
-1.18466e-11
1.23016e-11
5.82484e-22
-2.53302e-11
-1.20407e-11
2.5e-11
-2.63329e-13
1.54903e-12
8.33431e-13
4.16655e-12
-1.78533e-12
-1.37962e-11
5.60561e-12
2.50012e-11
1.22236e-11
-1.27449e-11
1.31535e-11
2.46059e-11
-1.9809e-21
-1.26653e-11
3.02706e-13
3.76409e-11
2.4739e-11
3.21581e-12
-1.66662e-12
2.99984e-12
-1.78533e-12
-1.25e-11
-6.06093e-12
7.21128e-22
-2.67863e-22
-1.2744e-11
4.35571e-13
1.23031e-11
-2.33056e-22
-1.26646e-11
2.98934e-13
2.49961e-11
1.2369e-11
1.54914e-12
-1.38879e-12
4.16657e-12
-4.7584e-13
-1e-11
-4.84879e-12
-9.26776e-22
-4.46284e-23
-2.54873e-11
-1.18456e-11
2.50039e-11
1.23238e-11
-1.26605e-11
-1.23475e-11
1.38739e-21
-1.03933e-21
-1.17505e-13
1.11129e-12
5.33315e-12
-4.75695e-13
-1e-11
8.03131e-12
2.50052e-11
1.22267e-11
-2.54865e-11
-1.18525e-11
2.4992e-11
1.23179e-11
2.68158e-22
6.9577e-22
-5.55321e-22
4.33507e-22
1.54938e-12
2.2223e-12
5.33307e-12
-4.75479e-13
-1.12966e-11
1.9693e-11
3.71764e-11
1.22194e-11
-1.27373e-11
-1.22778e-11
1.2761e-22
-1.22414e-21
-1.26688e-11
2.97989e-13
1.23688e-11
6.07402e-22
3.21581e-12
1.11067e-12
5.33299e-12
-4.75283e-13
-1.12955e-11
6.80956e-12
1.2175e-11
-1.27826e-11
-1.22647e-11
-7.75478e-22
1.27029e-11
-3.54958e-13
-3.76699e-11
-1.20605e-11
2.50001e-11
1.23793e-11
1.54842e-12
-1.3951e-22
5.33294e-12
-1.78534e-12
-1.25017e-11
6.82316e-12
1.21903e-11
-1.27661e-11
-1.22489e-11
5.64034e-22
1.26856e-11
-1.30412e-11
-3.73286e-11
-1.23422e-11
2.52763e-11
2.47447e-11
-1.17489e-13
0
5.33291e-12
-3.09383e-12
-1.5e-11
5.592e-12
2.50005e-11
1.22351e-11
-5.51409e-22
1.27268e-11
2.50204e-11
-3.3509e-13
-2.50002e-11
-1.23588e-11
1.26311e-11
1.23643e-11
-1.17485e-13
1.43559e-22
5.33293e-12
-3.09381e-12
-1.5e-11
-7.27394e-12
2.56363e-11
2.44496e-11
1.26053e-21
2.54326e-11
3.72936e-11
1.23116e-11
-1.26532e-11
-1.23398e-11
-4.63461e-22
2.25741e-21
-1.17481e-13
-1.68844e-22
5.33295e-12
-1.78324e-12
-1.24975e-11
-6.06033e-12
1.28057e-11
1.22128e-11
3.94006e-23
2.54332e-11
2.46087e-11
-1.26894e-11
-2.50204e-11
-1.23576e-11
1.26499e-11
1.23747e-11
-1.17478e-13
-8.35928e-23
5.33301e-12
-1.7861e-12
-8.61011e-12
1.04681e-11
1.21937e-11
-1.3394e-22
9.06462e-22
2.54338e-11
2.4608e-11
-1.2668e-11
-2.49796e-11
-1.23377e-11
2.52858e-11
2.47318e-11
-1.17474e-13
-2.77969e-13
4.16514e-12
-1.78355e-12
-6.01794e-12
1.28647e-11
1.21693e-11
8.93236e-23
-1.2755e-11
4.1198e-13
1.22926e-11
1.16677e-22
1.07395e-21
1.39244e-21
1.26358e-11
1.2357e-11
1.55086e-12
-2.7745e-13
4.16743e-12
-4.75485e-13
-1.7789e-11
7.55758e-13
1.2192e-11
-4.46812e-23
-1.27323e-11
4.56856e-13
1.23133e-11
1.75038e-22
-1.07398e-22
2.98331e-22
-1.85242e-22
9.53146e-22
1.54765e-12
7.06576e-23
5.33308e-12
-4.75551e-13
-1.77667e-11
7.54611e-13
1.21709e-11
-4.46999e-23
-1.27538e-11
4.16579e-13
1.22931e-11
-8.75247e-22
0
1.26645e-11
2.50153e-11
1.23683e-11
-1.17466e-13
1.11191e-12
5.3331e-12
-1.78589e-12
-6.01981e-12
-3.65818e-22
1.03198e-22
0
-1.27352e-11
4.5391e-13
1.23106e-11
-2.50942e-21
5.36948e-22
1.2649e-11
2.49854e-11
1.23535e-11
1.55034e-12
1.1105e-12
5.33313e-12
-3.09451e-12
-7.22281e-12
-3.05036e-23
6.19553e-22
-4.02738e-22
-5.52851e-22
2.54372e-11
2.46037e-11
-1.2689e-11
-1.23388e-11
1.26647e-11
1.23583e-11
0
1.54822e-12
-2.77861e-13
4.16585e-12
-1.78446e-12
-6.01837e-12
-1.83134e-22
3.09957e-22
4.02965e-22
-6.32154e-22
2.54373e-11
2.46034e-11
-2.53639e-11
-3.73373e-11
1.29682e-11
3.73575e-11
-2.82262e-13
1.55001e-12
8.3397e-13
4.16693e-12
-4.75744e-13
-4.81513e-12
-1.06892e-21
-1.75746e-21
0
-2.76719e-22
1.27147e-11
1.22974e-11
-2.53642e-11
-5e-11
-1.20304e-11
3.76434e-11
1.20828e-11
3.21585e-12
1.11076e-12
5.33318e-12
-4.758e-13
-1.77818e-11
-1.21256e-11
1.28236e-11
1.22263e-11
-2.76811e-22
1.27224e-11
1.23041e-11
-1.26793e-11
-2.4994e-11
-1.2339e-11
2.52967e-11
2.47189e-11
1.54864e-12
1.11144e-12
5.33325e-12
-1.78586e-12
-1.89783e-11
-1.21183e-11
1.28172e-11
1.22195e-11
-1.18593e-21
2.54391e-11
3.73033e-11
1.23199e-11
-4.29379e-22
1.26585e-11
2.49999e-11
1.23566e-11
1.54967e-12
2.22224e-12
5.33329e-12
-3.09515e-12
-7.22226e-12
-2.74917e-22
1.28233e-11
1.22245e-11
-1.27477e-11
4.35412e-13
2.49962e-11
1.23162e-11
-1.07288e-22
1.26544e-11
1.23524e-11
2.59135e-22
3.21587e-12
1.11088e-12
3.99973e-12
-4.28593e-12
-7.22225e-12
1.28811e-11
2.49999e-11
1.222e-11
-2.54908e-11
-1.18387e-11
1.23024e-11
-1.26834e-11
-2.50026e-11
-1.23456e-11
7.39006e-22
-5.18231e-22
1.54887e-12
-1.11888e-22
4.00024e-12
-2.97579e-12
-6.01832e-12
1.2877e-11
1.21776e-11
2.23701e-22
-1.27439e-11
1.3161e-11
2.46017e-11
-1.26809e-11
-3.76666e-11
-1.20323e-11
1.2356e-11
6.04515e-22
-1.17458e-13
2.15357e-22
5.33334e-12
-1.78596e-12
-6.01863e-12
1.28805e-11
1.21807e-11
-1.27794e-11
-1.22556e-11
2.54397e-11
2.46018e-11
-5.82741e-23
-2.53352e-11
6.21741e-13
3.73561e-11
1.23652e-11
-1.17458e-13
1.11123e-12
5.33338e-12
-1.78546e-12
-6.01824e-12
2.57579e-11
2.43587e-11
-1.27771e-11
-1.22535e-11
1.2719e-11
1.22999e-11
-1.26829e-11
-3.76683e-11
6.22016e-13
3.73544e-11
-2.72622e-13
1.54938e-12
-2.77931e-13
4.16656e-12
-4.76548e-13
-4.81481e-12
2.57585e-11
2.43581e-11
-4.46889e-23
-1.27465e-11
4.39493e-13
2.50017e-11
-3.61759e-13
-3.76672e-11
6.18787e-13
2.4711e-11
-2.52713e-11
1.54908e-12
-2.77579e-13
4.16698e-12
-1.78581e-12
-6.01861e-12
1.2878e-11
2.5e-11
1.22225e-11
-1.27453e-11
1.31599e-11
3.73006e-11
1.23173e-11
-2.53341e-11
6.20526e-13
2.47102e-11
-1.2634e-11
1.54934e-12
1.111e-12
5.33316e-12
-1.78562e-12
-1.89823e-11
-1.21215e-11
1.28198e-11
1.22207e-11
5.12378e-22
1.27196e-11
1.23006e-11
1.33951e-21
-1.26669e-11
3.10243e-13
2.5e-11
1.23655e-11
1.5491e-12
1.11117e-12
4.00006e-12
-1.66702e-12
-1.77771e-11
7.58602e-13
1.21796e-11
1.34017e-22
-1.27465e-11
4.38527e-13
1.23012e-11
-1.26825e-11
-1.23335e-11
-3.96701e-22
1.26434e-11
1.23647e-11
1.54929e-12
1.11107e-12
4.00005e-12
-1.6666e-12
-4.81464e-12
1.28787e-11
2.5e-11
1.22222e-11
-1.27446e-11
4.40257e-13
1.23012e-11
-1.26815e-11
-2.5e-11
-1.23458e-11
3.69313e-22
-1.72716e-22
1.54914e-12
1.11115e-12
4.00008e-12
-1.66669e-12
-4.81482e-12
1.28792e-11
2.5e-11
1.22215e-11
1.18198e-22
1.27201e-11
1.23016e-11
-1.26819e-11
-2.5e-11
3.11098e-13
2.50009e-11
1.23653e-11
1.54926e-12
-2.77926e-13
2.83316e-12
-1.66692e-12
-4.81465e-12
1.28789e-11
1.21792e-11
-3.1259e-22
-3.1521e-22
2.54394e-11
3.73011e-11
-3.61411e-13
-2.5e-11
3.07718e-13
2.49991e-11
1.23648e-11
1.54916e-12
-2.77634e-13
4.16691e-12
-4.76169e-13
-4.81483e-12
5.17615e-22
1.28208e-11
1.22217e-11
0
1.27194e-11
2.49994e-11
1.23177e-11
-2.53332e-11
-2.46906e-11
1.20039e-21
5.18284e-22
1.54928e-12
2.22223e-12
5.33333e-12
-4.76521e-13
-4.81483e-12
-2.13133e-22
1.28211e-11
-5.54987e-13
-2.50005e-11
4.38509e-13
1.23014e-11
-1.26814e-11
-2.5e-11
-1.23454e-11
9.23407e-23
1.12285e-21
3.21587e-12
8.33191e-13
4.16664e-12
-4.75817e-13
-1.77782e-11
7.58427e-13
1.21802e-11
-1.27784e-11
-3.77448e-11
-1.18411e-11
1.23009e-11
-1.26813e-11
-1.23331e-11
1.2655e-11
1.23567e-11
8.63859e-23
3.21587e-12
8.33358e-13
4.16668e-12
-4.76523e-13
-3.07407e-11
-1.13639e-11
1.21789e-11
4.46442e-22
-2.5491e-11
-1.1842e-11
1.23014e-11
-1.74675e-22
-6.42799e-22
1.26544e-11
1.23556e-11
-1.72745e-22
3.21587e-12
-2.778e-13
4.16687e-12
-1.78571e-12
-1.89815e-11
7.57853e-13
1.21792e-11
3.57121e-22
-2.54901e-11
8.78818e-13
2.46033e-11
-6.98697e-22
6.4279e-22
1.38867e-21
-1.10817e-21
-1.64137e-21
1.54916e-12
-2.77777e-12
1.66665e-12
-4.28571e-12
-7.22224e-12
2.57575e-11
2.43581e-11
-6.69691e-22
-2.5491e-11
8.78827e-13
2.46033e-11
-1.86321e-21
1.0713e-22
1.98379e-22
1.26444e-11
1.23659e-11
-1.17454e-13
-1.66678e-12
1.66667e-12
-2.97615e-12
-6.01852e-12
1.2879e-11
1.21799e-11
-6.69637e-22
-2.54901e-11
8.77067e-13
2.46033e-11
1.10628e-21
1.17843e-21
1.26545e-11
3.76439e-11
2.47304e-11
1.54919e-12
8.33479e-13
4.16667e-12
-1.7861e-12
-6.01854e-12
1.28789e-11
2.50003e-11
1.22228e-11
-2.5491e-11
8.7708e-13
2.46024e-11
9.89733e-22
-5.35596e-22
1.26541e-11
3.76439e-11
2.47321e-11
3.21594e-12
2.22223e-12
5.33333e-12
-1.78568e-12
-6.01829e-12
1.28787e-11
3.78203e-11
2.44436e-11
-1.27445e-11
4.39426e-13
2.5e-11
1.23195e-11
1.39287e-21
2.97598e-22
2.52873e-11
2.47313e-11
3.21588e-12
2.22223e-12
3.99998e-12
-1.66666e-12
-4.81482e-12
6.08793e-23
1.28204e-11
1.22221e-11
-1.27457e-11
-1.22809e-11
1.26982e-11
-3.62571e-13
-1.23335e-11
1.26549e-11
2.5e-11
-2.69091e-13
3.21588e-12
-2.77879e-13
2.83333e-12
-1.66664e-12
-4.81482e-12
6.08825e-23
-1.03035e-22
-4.46494e-23
-2.5491e-11
-1.1842e-11
1.23018e-11
-2.53631e-11
-2.46667e-11
2.53086e-11
3.73565e-11
-2.6922e-13
1.5492e-12
-2.7767e-13
4.16689e-12
-1.78571e-12
-6.01854e-12
-2.13077e-22
1.28206e-11
1.22219e-11
-2.54893e-11
-1.1841e-11
1.23015e-11
-1.2681e-11
-1.23332e-11
1.26541e-11
2.49996e-11
-2.69084e-13
1.54922e-12
1.1111e-12
5.33333e-12
-3.09522e-12
-2.01853e-11
-1.21213e-11
1.28208e-11
1.22221e-11
-2.54902e-11
-2.45614e-11
0
-8.15263e-22
-2.14282e-22
1.26545e-11
2.50003e-11
-2.68354e-13
1.5492e-12
1.11108e-12
5.33333e-12
-3.09522e-12
-2.01851e-11
-1.21211e-11
-5.15196e-23
0
-2.5491e-11
-1.1842e-11
2.50003e-11
1.2319e-11
6.42942e-22
2.53095e-11
3.73566e-11
-2.69079e-13
1.54922e-12
8.33328e-13
4.16644e-12
-3.09566e-12
-2.01853e-11
-1.21213e-11
1.28206e-11
1.22223e-11
-2.54902e-11
-1.18423e-11
2.49998e-11
1.23192e-11
-3.21485e-22
1.26542e-11
1.23562e-11
-1.26342e-11
3.21588e-12
-2.77772e-13
4.16667e-12
-3.09522e-12
-2.01851e-11
-1.21206e-11
1.28204e-11
1.22221e-11
-1.2745e-11
4.38775e-13
1.23017e-11
1.04819e-21
-1.50016e-21
1.26544e-11
1.2356e-11
-5.18483e-22
1.5492e-12
1.11112e-12
5.33333e-12
-1.78569e-12
-6.01851e-12
-1.21778e-22
1.28206e-11
1.22223e-11
-7.87939e-23
1.27191e-11
1.23015e-11
-1.26812e-11
-1.23335e-11
1.26542e-11
1.23562e-11
-1.26345e-11
1.54922e-12
1.1111e-12
4.00012e-12
-1.66636e-12
-1.77781e-11
-1.21218e-11
1.28209e-11
1.22221e-11
-1.27447e-11
-1.22804e-11
-8.9307e-22
-1.2681e-11
-1.23328e-11
1.26545e-11
2.50003e-11
-2.69367e-13
1.5492e-12
1.11112e-12
4.00001e-12
-1.66696e-12
-1.77774e-11
-1.21207e-11
-6.18273e-22
-1.78614e-22
-1.2745e-11
-1.2281e-11
1.27586e-21
6.40669e-22
-1.07168e-22
1.26542e-11
2.49997e-11
1.23655e-11
1.54922e-12
1.1111e-12
3.99999e-12
-1.66667e-12
-4.81482e-12
1.28789e-11
2.50001e-11
1.22224e-11
6.30454e-22
2.82022e-22
3.18952e-22
-1.26813e-11
-1.23335e-11
1.26544e-11
1.2356e-11
1.21e-21
1.5492e-12
-1.3889e-12
1.49986e-12
-2.85714e-12
-1.77781e-11
7.57389e-13
3.78204e-11
2.44445e-11
-1.27452e-11
-1.22808e-11
-1.91381e-22
-2.53623e-11
-3.73334e-11
3.0932e-13
2.5e-11
1.23657e-11
-1.17458e-13
-2.77671e-13
2.83353e-12
-1.66665e-12
-3.07407e-11
-2.42424e-11
1.28204e-11
1.22221e-11
-2.54902e-11
-1.1842e-11
1.23016e-11
-1.26815e-11
-2.49998e-11
3.08016e-13
2.5e-11
1.23655e-11
1.54922e-12
2.22214e-12
5.33333e-12
-1.78571e-12
-1.89814e-11
7.57845e-13
1.21796e-11
2.67961e-22
-2.54911e-11
-1.18435e-11
2.5e-11
1.23194e-11
4.28763e-22
1.26547e-11
1.23562e-11
-8.64428e-23
3.21588e-12
2.22223e-12
5.33316e-12
-3.09523e-12
-7.22222e-12
1.28787e-11
1.2179e-11
-3.12638e-22
-2.54902e-11
-1.18407e-11
2.5e-11
1.23183e-11
0
1.26544e-11
1.23564e-11
-8.64472e-22
3.21588e-12
-2.77791e-13
4.16688e-12
-1.7857e-12
-1.89816e-11
-1.21213e-11
1.28206e-11
1.22219e-11
-1.27446e-11
1.3158e-11
2.46023e-11
-5.24296e-22
1.07193e-22
2.53077e-11
3.73565e-11
1.23653e-11
1.54917e-12
-1.66666e-12
1.66666e-12
-1.66667e-12
-3.07407e-11
-1.13636e-11
2.5e-11
1.22226e-11
-1.27456e-11
1.31579e-11
2.46032e-11
3.49549e-22
-1.26667e-11
1.29628e-11
5e-11
2.47321e-11
1.54925e-12
-2.77773e-13
2.83335e-12
-1.66665e-12
-1.77777e-11
1.36364e-11
3.71796e-11
1.22219e-11
-1.27451e-11
4.37709e-13
1.23015e-11
1.8644e-21
-2.53324e-11
-1.20358e-11
3.76431e-11
2.47303e-11
1.5492e-12
-6.98424e-23
5.33333e-12
-4.76184e-13
-1.77779e-11
7.57436e-13
3.78205e-11
2.44445e-11
-1.27452e-11
4.39494e-13
1.23021e-11
-1.26813e-11
-2.5e-11
-1.2346e-11
1.26441e-11
1.23655e-11
-1.17458e-13
1.11112e-12
5.33333e-12
-4.76185e-13
-1.77777e-11
-1.21211e-11
2.5641e-11
2.44453e-11
-2.54902e-11
8.77211e-13
2.46023e-11
-1.26811e-11
-1.23332e-11
1.26544e-11
1.23565e-11
0
1.54922e-12
2.22223e-12
5.33333e-12
-4.76185e-13
-4.81482e-12
1.28788e-11
3.78206e-11
2.44436e-11
-2.54902e-11
-1.18422e-11
1.23015e-11
-3.49578e-22
9.64952e-22
1.26546e-11
1.23563e-11
-2.59389e-22
3.21588e-12
8.33333e-13
4.16667e-12
-4.76184e-13
-4.81482e-12
2.57576e-11
3.71794e-11
1.22222e-11
-2.54902e-11
-2.45614e-11
-7.0204e-22
-1.26808e-11
-2.50001e-11
3.08642e-13
1.23564e-11
-5.1887e-22
3.21588e-12
-1.66666e-12
3e-12
-4.76185e-13
-4.81481e-12
2.57576e-11
2.4359e-11
2.23421e-22
-1.27451e-11
-1.22806e-11
1.02134e-21
-1.26815e-11
-2.49999e-11
1.2963e-11
2.47127e-11
2.59426e-22
1.5492e-12
-2.77777e-12
3e-12
-4.76186e-13
-1.77778e-11
7.57559e-13
2.5e-11
1.22222e-11
7.88357e-23
-1.41079e-22
6.38193e-22
-1.26812e-11
-1.23333e-11
2.53078e-11
2.47126e-11
6.05373e-22
-1.17458e-13
-2.77773e-13
4.16667e-12
-4.76186e-13
-1.77778e-11
7.57593e-13
2.5e-11
-5.55657e-13
-1.22549e-11
-7.05533e-22
7.02151e-22
-2.53623e-11
-2.46667e-11
1.26548e-11
2.5e-11
1.23661e-11
1.54921e-12
1.11111e-12
5.33333e-12
-1.78571e-12
-6.01852e-12
1.28788e-11
1.21795e-11
-1.27778e-11
-1.22549e-11
2.11702e-22
1.26984e-11
-3.6222e-13
-2.5e-11
3.08648e-13
2.5e-11
1.23652e-11
1.54921e-12
-5.49822e-23
5.33333e-12
-3.09523e-12
-7.22222e-12
3.96054e-22
1.03114e-22
1.78731e-22
-7.8851e-22
1.41105e-22
2.53968e-11
2.46377e-11
-2.53333e-11
6.17296e-13
2.47126e-11
0
-1.17458e-13
1.39664e-23
5.33333e-12
-3.09523e-12
-7.22222e-12
2.7425e-22
-4.12539e-22
-8.93854e-23
-7.49244e-22
-4.23405e-22
2.53968e-11
2.46377e-11
-2.53333e-11
6.17296e-13
2.47126e-11
-6.92047e-22
-1.17458e-13
)
;

boundaryField
{
    wireUpstream
    {
        type            calculated;
        value           nonuniform List<scalar> 
16
(
0
5.33333e-12
-3.09523e-12
-7.22222e-12
0
0
0
-2.48339e-22
0
2.53968e-11
2.46377e-11
-2.53333e-11
6.17296e-13
2.47126e-11
5.63006e-22
-1.17458e-13
)
;
    }
    wireDownstream
    {
        type            calculated;
        value           nonuniform List<scalar> 
16
(
2.22222e-12
5.33336e-12
-3.09532e-12
-1.24074e-11
-4.84843e-12
2.56413e-11
2.44441e-11
-3.4373e-22
0
0
-1.01475e-21
-9.32855e-22
0
0
7.50378e-22
3.2156e-12
)
;
    }
    wireTopContact
    {
        type            calculated;
        value           nonuniform List<scalar> 
122
(
-6.60494e-22
-6.60512e-22
6.60532e-22
0
0
0
0
-6.60634e-22
6.60654e-22
-6.60545e-22
-6.60698e-22
1.32144e-21
-6.6074e-22
6.60629e-22
6.60781e-22
-6.60802e-22
-2.49999e-11
-2.50001e-11
6.60735e-22
0
-6.60908e-22
0
0
-6.60971e-22
0
0
0
0
-2.49999e-11
-2.50001e-11
-2.49998e-11
-2.50002e-11
-6.60907e-22
-6.60802e-22
0
0
1.32175e-21
-2.49997e-11
-5e-11
-2.50004e-11
0
6.60944e-22
-6.60954e-22
0
0
0
-6.61825e-22
0
-6.6278e-22
-2.49985e-11
-5e-11
-2.50009e-11
0
-6.68458e-22
0
0
6.73309e-22
6.74322e-22
0
-6.7549e-22
0
0
-6.75794e-22
-6.75775e-22
-6.75801e-22
0
-6.76131e-22
6.76488e-22
-2.5006e-11
-2.49951e-11
0
0
-6.81546e-22
0
-6.82244e-22
6.82358e-22
-2.5001e-11
-5e-11
-2.49993e-11
0
0
0
0
0
0
6.83737e-22
-1.36796e-21
-6.8394e-22
6.84047e-22
0
0
-6.84383e-22
0
-2.50002e-11
-2.49998e-11
-2.50001e-11
-2.49999e-11
-2.50001e-11
-2.49999e-11
0
-2.50001e-11
-2.49999e-11
0
-6.84981e-22
0
-6.85092e-22
6.85222e-22
6.85206e-22
-6.85191e-22
-6.85323e-22
0
0
6.8543e-22
1.37084e-21
6.85556e-22
0
0
-6.8568e-22
0
0
0
6.18385e-22
)
;
    }
    front
    {
        type            wedge;
    }
    back
    {
        type            wedge;
    }
}


// ************************************************************************* //
