/*--------------------------------*- C++ -*----------------------------------*\
| =========                 |                                                 |
| \\      /  F ield         | foam-extend: Open Source CFD                    |
|  \\    /   O peration     | Version:     4.1-20200408                       |
|   \\  /    A nd           | Web:         http://www.foam-extend.org         |
|    \\/     M anipulation  |                                                 |
\*---------------------------------------------------------------------------*/
FoamFile
{
    version     2.0;
    format      ascii;
    class       volSymmTensorField;
    location    "0.0635000";
    object      epsilonTrue;
}
// * * * * * * * * * * * * * * * * * * * * * * * * * * * * * * * * * * * * * //

dimensions      [0 0 0 0 0 0 0];

internalField   nonuniform List<symmTensor> 
1952
(
(0.0837113 -0.00295796 -1.08548e-10 -0.0437307 4.87511e-10 -0.0438097)
(0.0837029 -0.00495257 -5.09743e-11 -0.0436268 -1.27541e-09 -0.0437532)
(0.083698 -0.00668171 6.1378e-11 -0.0434563 -3.44511e-09 -0.0437158)
(0.0836907 -0.00828343 2.11652e-10 -0.0432797 2.6236e-09 -0.043635)
(0.0836866 -0.00966989 -5.26131e-11 -0.0430308 6.81554e-09 -0.0435736)
(0.083686 -0.0108232 -4.13958e-10 -0.0427847 -2.84286e-10 -0.0434673)
(0.0836912 -0.0116722 -2.54258e-10 -0.0424783 -7.87523e-09 -0.0433822)
(0.0837028 -0.012199 2.72123e-10 -0.0421717 -5.52083e-10 -0.0432531)
(0.0837224 -0.0122821 -4.24754e-13 -0.0418106 6.91785e-09 -0.0431443)
(0.083754 -0.0119446 -5.00614e-10 -0.0413589 -2.27279e-09 -0.0429925)
(0.0837944 -0.0109272 8.06308e-11 -0.0408426 -7.00221e-09 -0.0428438)
(0.0838435 -0.00925319 4.33534e-10 -0.0401307 1.74525e-09 -0.042654)
(0.0838931 -0.00683048 -2.69053e-11 -0.0393587 6.86927e-09 -0.0424419)
(0.0839417 -0.00390173 -3.70505e-10 -0.0385642 5.53344e-10 -0.0421969)
(0.0839866 -0.00180676 -1.78034e-10 -0.0381653 -2.36468e-09 -0.0419387)
(0.0837064 -0.00159567 -4.11482e-11 -0.0438065 -2.53611e-09 -0.0438019)
(0.0837938 -0.00294743 -1.48025e-10 -0.0437468 4.87623e-10 -0.0438248)
(0.0837854 -0.00494837 -7.75795e-11 -0.0436418 -1.27602e-09 -0.0437693)
(0.0837812 -0.00666215 9.10483e-11 -0.0434724 -3.44618e-09 -0.0437309)
(0.0837744 -0.00827248 2.93994e-10 -0.0432953 2.62532e-09 -0.0436512)
(0.0837716 -0.00964114 -7.44758e-11 -0.0430473 6.81798e-09 -0.0435889)
(0.083772 -0.0108043 -5.25263e-10 -0.0428013 -2.85379e-10 -0.0434836)
(0.0837791 -0.0116329 -2.8403e-10 -0.0424964 -7.87788e-09 -0.0433979)
(0.083792 -0.0121699 3.25657e-10 -0.0421908 -5.5096e-10 -0.04327)
(0.0838141 -0.0122322 -9.95268e-12 -0.0418315 6.92061e-09 -0.0431608)
(0.0838481 -0.0119059 -5.42088e-10 -0.0413819 -2.27503e-09 -0.0430102)
(0.0838922 -0.0108663 9.42777e-11 -0.0408692 -7.00571e-09 -0.0428616)
(0.0839447 -0.00920599 4.57423e-10 -0.0401619 1.74697e-09 -0.0426733)
(0.0839991 -0.00676518 -2.96863e-11 -0.0393951 6.87268e-09 -0.0424617)
(0.0840534 -0.00386187 -3.95389e-10 -0.0386103 5.53229e-10 -0.0422187)
(0.0841067 -0.00177403 -1.84914e-10 -0.0382195 -2.36593e-09 -0.0419621)
(0.0837887 -0.00159613 -4.99832e-11 -0.0438214 -2.53686e-09 -0.0438177)
(0.0838754 -0.00294695 -1.48114e-10 -0.043776 4.87967e-10 -0.0438536)
(0.0838673 -0.0049478 -7.76373e-11 -0.0436709 -1.2769e-09 -0.0437984)
(0.0838633 -0.00666095 9.11489e-11 -0.043502 -3.44847e-09 -0.0437599)
(0.0838567 -0.00827133 2.94275e-10 -0.0433249 2.62728e-09 -0.0436806)
(0.0838543 -0.00963918 -7.45556e-11 -0.0430773 6.82268e-09 -0.0436182)
(0.083855 -0.0108028 -5.25711e-10 -0.0428316 -2.85747e-10 -0.0435133)
(0.0838632 -0.0116298 -2.84264e-10 -0.042528 -7.88326e-09 -0.0434276)
(0.0838767 -0.0121667 3.25769e-10 -0.0422235 -5.51007e-10 -0.0433002)
(0.0838997 -0.0122284 -9.99744e-12 -0.0418653 6.92564e-09 -0.0431913)
(0.0839339 -0.011903 -5.42298e-10 -0.0414168 -2.27708e-09 -0.0430413)
(0.0839787 -0.0108621 9.44138e-11 -0.0409062 -7.0112e-09 -0.0428929)
(0.0840306 -0.00920258 4.57491e-10 -0.0402003 1.74872e-09 -0.0427055)
(0.0840829 -0.00676158 -2.97271e-11 -0.0394349 6.87811e-09 -0.0424943)
(0.0841311 -0.00386031 -3.95368e-10 -0.0386501 5.53098e-10 -0.042252)
(0.0841709 -0.00177453 -1.85081e-10 -0.0382548 -2.36791e-09 -0.0419956)
(0.0838702 -0.00159634 -5.00242e-11 -0.04385 -2.5384e-09 -0.0438468)
(0.0839595 -0.00294699 -1.48241e-10 -0.0438084 4.88369e-10 -0.0438858)
(0.083952 -0.004948 -7.77024e-11 -0.0437036 -1.27784e-09 -0.0438308)
(0.0839482 -0.0066609 9.12431e-11 -0.0435349 -3.45107e-09 -0.0437924)
(0.0839418 -0.00827147 2.94545e-10 -0.0433581 2.6293e-09 -0.0437132)
(0.0839398 -0.00963902 -7.46207e-11 -0.0431109 6.82794e-09 -0.0436511)
(0.0839407 -0.0108034 -5.26096e-10 -0.0428657 -2.85965e-10 -0.0435464)
(0.0839496 -0.0116295 -2.84571e-10 -0.0425633 -7.8894e-09 -0.0434609)
(0.0839635 -0.0121663 3.25825e-10 -0.0422597 -5.51379e-10 -0.043334)
(0.0839869 -0.0122278 -1.00199e-11 -0.0419025 6.93125e-09 -0.0432253)
(0.084021 -0.0119036 -5.42447e-10 -0.0414546 -2.27909e-09 -0.0430758)
(0.0840655 -0.0108623 9.45125e-11 -0.040945 -7.01713e-09 -0.0429277)
(0.0841163 -0.00920364 4.57613e-10 -0.0402397 1.75038e-09 -0.0427408)
(0.0841672 -0.0067625 -2.97359e-11 -0.0394751 6.88402e-09 -0.0425298)
(0.0842121 -0.00386263 -3.95402e-10 -0.03869 5.53271e-10 -0.0422881)
(0.0842469 -0.00177654 -1.85417e-10 -0.038293 -2.37001e-09 -0.0420318)
(0.0839543 -0.00159672 -5.00595e-11 -0.0438822 -2.54013e-09 -0.0438791)
(0.0840483 -0.00294747 -1.48371e-10 -0.0438438 4.88813e-10 -0.0439213)
(0.0840408 -0.00494881 -7.7785e-11 -0.0437394 -1.27886e-09 -0.0438663)
(0.0840373 -0.00666185 9.13349e-11 -0.0435709 -3.45392e-09 -0.043828)
(0.0840311 -0.00827274 2.94818e-10 -0.0433944 2.63149e-09 -0.043749)
(0.0840294 -0.00964055 -7.46744e-11 -0.0431477 6.8337e-09 -0.043687)
(0.0840305 -0.0108057 -5.26491e-10 -0.0429028 -2.86201e-10 -0.0435825)
(0.0840393 -0.0116317 -2.84887e-10 -0.0426009 -7.89613e-09 -0.0434973)
(0.0840532 -0.0121686 3.25919e-10 -0.0422981 -5.51892e-10 -0.0433706)
(0.0840767 -0.0122306 -1.00155e-11 -0.0419415 6.93731e-09 -0.0432622)
(0.0841103 -0.0119073 -5.42696e-10 -0.0414939 -2.28112e-09 -0.043113)
(0.0841542 -0.0108655 9.46311e-11 -0.0409854 -7.02345e-09 -0.0429651)
(0.0842031 -0.00920706 4.57709e-10 -0.0402801 1.75212e-09 -0.0427786)
(0.0842515 -0.00676526 -2.97313e-11 -0.0395155 6.8903e-09 -0.0425677)
(0.0842919 -0.00386501 -3.95517e-10 -0.0387292 5.5348e-10 -0.0423262)
(0.0843203 -0.00177838 -1.85697e-10 -0.0383299 -2.37222e-09 -0.0420699)
(0.084043 -0.00159723 -5.00913e-11 -0.0439176 -2.54205e-09 -0.0439145)
(0.0841395 -0.00294838 -1.485e-10 -0.0438818 4.89295e-10 -0.0439593)
(0.0841318 -0.00495036 -7.78558e-11 -0.0437774 -1.27996e-09 -0.0439043)
(0.0841283 -0.00666385 9.14287e-11 -0.043609 -3.45696e-09 -0.0438661)
(0.0841222 -0.00827532 2.95094e-10 -0.0434328 2.63381e-09 -0.0437871)
(0.0841205 -0.00964368 -7.47154e-11 -0.0431862 6.83983e-09 -0.0437253)
(0.0841217 -0.0108098 -5.26906e-10 -0.0429417 -2.86412e-10 -0.0436208)
(0.0841308 -0.0116357 -2.85233e-10 -0.0426406 -7.90325e-09 -0.0435358)
(0.0841444 -0.0121728 3.25942e-10 -0.0423383 -5.52379e-10 -0.0434093)
(0.0841676 -0.0122354 -9.9956e-12 -0.0419819 6.94371e-09 -0.0433012)
(0.0842003 -0.0119132 -5.42825e-10 -0.0415343 -2.28329e-09 -0.0431522)
(0.0842433 -0.0108711 9.47751e-11 -0.0410263 -7.03007e-09 -0.0430044)
(0.0842905 -0.00921244 4.57875e-10 -0.0403207 1.75391e-09 -0.0428181)
(0.0843365 -0.00676958 -2.97147e-11 -0.0395558 6.89684e-09 -0.0426073)
(0.0843732 -0.00386832 -3.95698e-10 -0.0387686 5.53811e-10 -0.0423659)
(0.0843972 -0.00178041 -1.8598e-10 -0.0383676 -2.37452e-09 -0.0421095)
(0.0841343 -0.00159794 -5.01287e-11 -0.0439557 -2.54412e-09 -0.0439526)
(0.0842323 -0.0029496 -1.48622e-10 -0.0439216 4.89789e-10 -0.0439991)
(0.0842249 -0.00495235 -7.79209e-11 -0.0438176 -1.28111e-09 -0.0439441)
(0.0842214 -0.00666652 9.15141e-11 -0.0436492 -3.46017e-09 -0.0439061)
(0.0842152 -0.00827874 2.95361e-10 -0.0434731 2.63624e-09 -0.0438271)
(0.0842136 -0.00964785 -7.47458e-11 -0.0432267 6.84626e-09 -0.0437655)
(0.0842145 -0.0108152 -5.27255e-10 -0.0429822 -2.86641e-10 -0.043661)
(0.0842237 -0.0116414 -2.85619e-10 -0.0426817 -7.91073e-09 -0.0435761)
(0.0842369 -0.0121786 3.26028e-10 -0.0423797 -5.52905e-10 -0.0434498)
(0.0842595 -0.0122418 -9.96174e-12 -0.0420233 6.95038e-09 -0.0433418)
(0.0842912 -0.0119204 -5.43064e-10 -0.0415755 -2.28551e-09 -0.0431929)
(0.084333 -0.0108779 9.49063e-11 -0.0410675 -7.0369e-09 -0.0430453)
(0.0843782 -0.00921875 4.58024e-10 -0.0403614 1.75569e-09 -0.042859)
(0.0844219 -0.00677446 -2.96922e-11 -0.0395962 6.90359e-09 -0.0426482)
(0.0844549 -0.00387164 -3.95831e-10 -0.0388076 5.54184e-10 -0.0424068)
(0.084475 -0.00178243 -1.86244e-10 -0.0384051 -2.37687e-09 -0.0421501)
(0.0842271 -0.00159878 -5.01726e-11 -0.0439954 -2.54629e-09 -0.0439924)
(0.0843266 -0.00295122 -1.48758e-10 -0.043963 4.90305e-10 -0.0440404)
(0.0843192 -0.00495498 -7.80048e-11 -0.0438591 -1.28232e-09 -0.0439855)
(0.0843158 -0.00666992 9.15939e-11 -0.0436908 -3.46349e-09 -0.0439476)
(0.0843094 -0.00828305 2.95628e-10 -0.0435148 2.63878e-09 -0.0438687)
(0.0843077 -0.00965305 -7.47676e-11 -0.0432683 6.85292e-09 -0.0438071)
(0.0843084 -0.0108216 -5.2763e-10 -0.0430239 -2.86896e-10 -0.0437027)
(0.0843172 -0.0116481 -2.86007e-10 -0.0427237 -7.91845e-09 -0.0436178)
(0.0843299 -0.0121854 3.2608e-10 -0.0424217 -5.53429e-10 -0.0434916)
(0.0843518 -0.0122494 -9.91752e-12 -0.0420652 6.95724e-09 -0.0433837)
(0.0843823 -0.0119287 -5.43221e-10 -0.0416169 -2.28782e-09 -0.0432348)
(0.084423 -0.0108857 9.50735e-11 -0.0411092 -7.04393e-09 -0.0430871)
(0.0844664 -0.00922572 4.58164e-10 -0.0404023 1.75759e-09 -0.0429009)
(0.0845074 -0.00677989 -2.96653e-11 -0.039636 6.91048e-09 -0.0426899)
(0.0845377 -0.00387508 -3.95949e-10 -0.0388467 5.54653e-10 -0.0424484)
(0.0845544 -0.00178444 -1.8649e-10 -0.038443 -2.37927e-09 -0.0421915)
(0.0843213 -0.00159976 -5.01964e-11 -0.0440367 -2.54855e-09 -0.0440338)
(0.0844217 -0.00295293 -1.48878e-10 -0.0440055 4.90836e-10 -0.044083)
(0.0844142 -0.0049578 -7.80713e-11 -0.0439018 -1.28355e-09 -0.0440281)
(0.0844107 -0.00667368 9.1674e-11 -0.0437334 -3.4669e-09 -0.0439903)
(0.0844042 -0.00828778 2.95888e-10 -0.0435574 2.64139e-09 -0.0439113)
(0.0844025 -0.00965876 -7.47805e-11 -0.0433109 6.85975e-09 -0.0438498)
(0.0844027 -0.0108287 -5.27961e-10 -0.0430663 -2.87158e-10 -0.0437453)
(0.0844114 -0.0116555 -2.8642e-10 -0.0427666 -7.92634e-09 -0.0436605)
(0.0844236 -0.012193 3.26159e-10 -0.0424646 -5.5389e-10 -0.0435344)
(0.0844447 -0.0122576 -9.8665e-12 -0.0421079 6.96426e-09 -0.0434264)
(0.084474 -0.0119377 -5.43402e-10 -0.0416589 -2.29031e-09 -0.0432776)
(0.0845125 -0.0108942 9.5221e-11 -0.0411503 -7.05107e-09 -0.0431298)
(0.0845541 -0.00923326 4.58412e-10 -0.0404424 1.75949e-09 -0.0429435)
(0.0845929 -0.00678565 -2.9633e-11 -0.0396754 6.91745e-09 -0.0427322)
(0.0846208 -0.00387875 -3.96082e-10 -0.0388857 5.55144e-10 -0.0424905)
(0.0846349 -0.00178647 -1.86727e-10 -0.038481 -2.38169e-09 -0.0422334)
(0.0844164 -0.00160082 -5.02382e-11 -0.0440792 -2.55089e-09 -0.0440764)
(0.0845173 -0.00295487 -1.49014e-10 -0.0440489 4.91373e-10 -0.0441264)
(0.08451 -0.00496098 -7.81512e-11 -0.0439454 -1.28482e-09 -0.0440715)
(0.0845065 -0.00667786 9.17468e-11 -0.043777 -3.47039e-09 -0.0440338)
(0.0844999 -0.00829308 2.96131e-10 -0.043601 2.64408e-09 -0.0439548)
(0.0844979 -0.00966512 -7.47909e-11 -0.0433545 6.86673e-09 -0.0438933)
(0.0844976 -0.0108365 -5.28265e-10 -0.0431096 -2.87488e-10 -0.0437889)
(0.0845051 -0.0116639 -2.86846e-10 -0.0428094 -7.93441e-09 -0.0437041)
(0.0845163 -0.0122016 3.26223e-10 -0.0425071 -5.54415e-10 -0.0435778)
(0.0845365 -0.0122669 -9.80635e-12 -0.04215 6.97136e-09 -0.0434698)
(0.0845647 -0.0119475 -5.4372e-10 -0.0417001 -2.29274e-09 -0.0433209)
(0.0846017 -0.0109033 9.53264e-11 -0.041191 -7.05827e-09 -0.0431728)
(0.0846413 -0.00924141 4.58565e-10 -0.0404821 1.76139e-09 -0.0429863)
(0.0846785 -0.00679168 -2.95986e-11 -0.0397148 6.92446e-09 -0.0427748)
(0.0847049 -0.00388233 -3.96173e-10 -0.0389251 5.55651e-10 -0.042533)
(0.084717 -0.00178839 -1.86943e-10 -0.0385196 -2.38413e-09 -0.0422756)
(0.0845121 -0.00160196 -5.02428e-11 -0.0441226 -2.55327e-09 -0.0441198)
(0.0846135 -0.00295699 -1.49144e-10 -0.0440931 4.91933e-10 -0.0441707)
(0.0846054 -0.00496451 -7.82215e-11 -0.0439893 -1.28611e-09 -0.0441157)
(0.0846017 -0.0066825 9.1814e-11 -0.0438209 -3.47392e-09 -0.0440779)
(0.0845946 -0.00829901 2.96386e-10 -0.0436446 2.64681e-09 -0.0439989)
(0.0845923 -0.0096722 -7.47909e-11 -0.043398 6.87377e-09 -0.0439373)
(0.0845915 -0.0108449 -5.28656e-10 -0.0431527 -2.87798e-10 -0.0438329)
(0.0845985 -0.0116728 -2.87222e-10 -0.0428523 -7.94249e-09 -0.0437479)
(0.0846086 -0.0122109 3.26269e-10 -0.0425496 -5.54863e-10 -0.0436216)
(0.0846277 -0.0122768 -9.73841e-12 -0.0421918 6.9785e-09 -0.0435134)
(0.0846546 -0.0119578 -5.43919e-10 -0.041741 -2.29519e-09 -0.0433643)
(0.0846907 -0.0109125 9.54915e-11 -0.0412319 -7.06552e-09 -0.0432159)
(0.0847291 -0.00924917 4.587e-10 -0.0405225 1.76333e-09 -0.0430294)
(0.0847647 -0.00679746 -2.95628e-11 -0.0397545 6.93151e-09 -0.0428175)
(0.0847899 -0.00388575 -3.96331e-10 -0.0389649 5.56188e-10 -0.0425755)
(0.0848004 -0.00179011 -1.87127e-10 -0.0385588 -2.38658e-09 -0.0423179)
(0.0846083 -0.00160319 -5.03052e-11 -0.0441669 -2.55571e-09 -0.0441642)
(0.0847087 -0.00295915 -1.49241e-10 -0.0441374 4.92488e-10 -0.0442151)
(0.0847005 -0.00496814 -7.82584e-11 -0.0440336 -1.2874e-09 -0.0441601)
(0.0846965 -0.00668742 9.18757e-11 -0.0438649 -3.47748e-09 -0.0441223)
(0.0846889 -0.00830528 2.96598e-10 -0.0436884 2.64952e-09 -0.0440431)
(0.0846861 -0.00967963 -7.47875e-11 -0.0434413 6.88084e-09 -0.0439815)
(0.0846846 -0.0108539 -5.28934e-10 -0.0431955 -2.88071e-10 -0.0438768)
(0.0846912 -0.011682 -2.8767e-10 -0.0428953 -7.95058e-09 -0.0437917)
(0.0847006 -0.01222 3.26277e-10 -0.0425922 -5.55315e-10 -0.0436654)
(0.0847188 -0.0122864 -9.67027e-12 -0.0422338 6.98565e-09 -0.043557)
(0.0847448 -0.0119677 -5.44134e-10 -0.0417824 -2.29761e-09 -0.0434077)
(0.0847798 -0.0109215 9.56009e-11 -0.0412728 -7.07275e-09 -0.0432592)
(0.084817 -0.00925693 4.58885e-10 -0.0405627 1.76518e-09 -0.0430724)
(0.0848515 -0.00680295 -2.95286e-11 -0.0397945 6.93856e-09 -0.0428603)
(0.0848754 -0.00388889 -3.9642e-10 -0.039005 5.56736e-10 -0.0426182)
(0.0848849 -0.00179179 -1.87302e-10 -0.0385984 -2.38904e-09 -0.0423603)
(0.0847035 -0.00160449 -5.03401e-11 -0.0442113 -2.55816e-09 -0.0442086)
(0.0848029 -0.0029616 -1.49368e-10 -0.0441816 4.93035e-10 -0.0442593)
(0.0847947 -0.00497207 -7.83347e-11 -0.0440779 -1.28869e-09 -0.0442043)
(0.0847906 -0.00669247 9.19365e-11 -0.0439091 -3.48103e-09 -0.0441666)
(0.0847826 -0.00831161 2.96816e-10 -0.0437321 2.65226e-09 -0.0440873)
(0.0847795 -0.00968708 -7.47745e-11 -0.0434847 6.88791e-09 -0.0440256)
(0.0847773 -0.0108627 -5.2922e-10 -0.0432384 -2.88377e-10 -0.0439208)
(0.0847835 -0.0116912 -2.88065e-10 -0.0429381 -7.95868e-09 -0.0438355)
(0.084792 -0.0122294 3.26345e-10 -0.0426345 -5.5579e-10 -0.0437091)
(0.0848095 -0.0122962 -9.59714e-12 -0.0422756 6.99278e-09 -0.0436005)
(0.0848346 -0.0119778 -5.44345e-10 -0.0418234 -2.30004e-09 -0.0434511)
(0.0848689 -0.0109302 9.57711e-11 -0.0413138 -7.08e-09 -0.0433023)
(0.0849053 -0.00926418 4.5896e-10 -0.0406033 1.7671e-09 -0.0431155)
(0.0849387 -0.00680834 -2.94936e-11 -0.0398346 6.94562e-09 -0.0429031)
(0.0849617 -0.0038919 -3.96537e-10 -0.0390453 5.57301e-10 -0.0426608)
(0.0849703 -0.00179331 -1.87458e-10 -0.0386384 -2.3915e-09 -0.0424028)
(0.0847977 -0.00160585 -5.03755e-11 -0.0442555 -2.56059e-09 -0.0442529)
(0.0848964 -0.00296393 -1.49468e-10 -0.0442257 4.93591e-10 -0.0443035)
(0.084888 -0.00497597 -7.83814e-11 -0.0441219 -1.28998e-09 -0.0442484)
(0.0848837 -0.00669764 9.19868e-11 -0.0439528 -3.48457e-09 -0.0442107)
(0.0848752 -0.0083181 2.96992e-10 -0.0437756 2.65497e-09 -0.0441313)
(0.0848718 -0.00969475 -7.47652e-11 -0.0435278 6.89493e-09 -0.0440695)
(0.0848692 -0.0108718 -5.2946e-10 -0.0432811 -2.88667e-10 -0.0439646)
(0.0848751 -0.0117005 -2.88519e-10 -0.0429809 -7.96672e-09 -0.0438791)
(0.0848833 -0.0122384 3.26303e-10 -0.0426772 -5.5622e-10 -0.0437527)
(0.0849001 -0.0123056 -9.52804e-12 -0.0423177 6.9999e-09 -0.043644)
(0.0849245 -0.0119873 -5.44479e-10 -0.0418649 -2.30251e-09 -0.0434944)
(0.084958 -0.010939 9.58797e-11 -0.0413548 -7.08722e-09 -0.0433454)
(0.0849937 -0.00927147 4.59172e-10 -0.0406439 1.76896e-09 -0.0431584)
(0.0850263 -0.00681338 -2.94608e-11 -0.039875 6.95266e-09 -0.0429458)
(0.0850486 -0.00389468 -3.96604e-10 -0.0390859 5.57873e-10 -0.0427034)
(0.0850565 -0.0017948 -1.87608e-10 -0.0386787 -2.39397e-09 -0.0424453)
(0.0848913 -0.00160719 -5.04005e-11 -0.0442996 -2.56302e-09 -0.0442971)
(0.0849886 -0.00296639 -1.49582e-10 -0.0442694 4.94133e-10 -0.0443472)
(0.0849802 -0.00497993 -7.84497e-11 -0.0441657 -1.29126e-09 -0.0442922)
(0.0849759 -0.0067027 9.20374e-11 -0.0439965 -3.48808e-09 -0.0442545)
(0.0849672 -0.00832443 2.97167e-10 -0.043819 2.65768e-09 -0.0441751)
(0.0849637 -0.00970216 -7.4751e-11 -0.0435711 6.90193e-09 -0.0441132)
(0.0849607 -0.0108806 -5.29665e-10 -0.0433239 -2.88999e-10 -0.0440082)
(0.0849662 -0.0117097 -2.88924e-10 -0.0430235 -7.97475e-09 -0.0439226)
(0.0849738 -0.0122476 3.26376e-10 -0.0427194 -5.56683e-10 -0.0437961)
(0.0849903 -0.0123152 -9.45536e-12 -0.0423596 7.00698e-09 -0.0436872)
(0.0850142 -0.0119971 -5.44708e-10 -0.0419061 -2.30495e-09 -0.0435376)
(0.085047 -0.0109474 9.60313e-11 -0.041396 -7.09443e-09 -0.0433883)
(0.0850822 -0.00927842 4.59248e-10 -0.0406846 1.77086e-09 -0.0432012)
(0.0851142 -0.00681848 -2.94275e-11 -0.0399154 6.95969e-09 -0.0429884)
(0.0851361 -0.00389743 -3.96685e-10 -0.0391268 5.58435e-10 -0.0427459)
(0.0851434 -0.00179624 -1.87748e-10 -0.0387194 -2.39642e-09 -0.0424876)
(0.0849835 -0.00160857 -5.04393e-11 -0.0443433 -2.56543e-09 -0.0443409)
(0.0850798 -0.0029688 -1.49691e-10 -0.0443128 4.94681e-10 -0.0443908)
(0.0850712 -0.00498397 -7.84997e-11 -0.0442091 -1.29253e-09 -0.0443356)
(0.0850669 -0.00670793 9.20843e-11 -0.0440397 -3.49156e-09 -0.0442979)
(0.0850581 -0.008331 2.97322e-10 -0.043862 2.66038e-09 -0.0442184)
(0.0850546 -0.00970988 -7.47382e-11 -0.043614 6.90886e-09 -0.0441565)
(0.0850512 -0.0108896 -5.29883e-10 -0.0433663 -2.89329e-10 -0.0440515)
(0.0850566 -0.0117189 -2.89369e-10 -0.0430661 -7.98269e-09 -0.0439657)
(0.0850639 -0.0122565 3.263e-10 -0.0427618 -5.57078e-10 -0.0438392)
(0.0850801 -0.0123246 -9.38506e-12 -0.0424015 7.01403e-09 -0.0437302)
(0.0851036 -0.0120066 -5.4484e-10 -0.0419475 -2.30742e-09 -0.0435805)
(0.085136 -0.0109561 9.61288e-11 -0.0414371 -7.1016e-09 -0.043431)
(0.085171 -0.00928554 4.59452e-10 -0.0407255 1.77271e-09 -0.0432439)
(0.0852026 -0.00682333 -2.93939e-11 -0.0399563 6.9667e-09 -0.0430308)
(0.0852241 -0.00390007 -3.96754e-10 -0.0391681 5.58996e-10 -0.0427883)
(0.0852311 -0.00179765 -1.87883e-10 -0.0387603 -2.39888e-09 -0.0425299)
(0.0850748 -0.00160992 -5.04764e-11 -0.0443868 -2.56782e-09 -0.0443845)
(0.0851698 -0.00297122 -1.49793e-10 -0.0443558 4.95216e-10 -0.0444338)
(0.0851612 -0.00498796 -7.85454e-11 -0.0442521 -1.29378e-09 -0.0443786)
(0.0851569 -0.00671305 9.21237e-11 -0.0440828 -3.49501e-09 -0.0443409)
(0.085148 -0.00833746 2.97455e-10 -0.0439048 2.66306e-09 -0.0442615)
(0.0851446 -0.00971742 -7.47242e-11 -0.0436567 6.91574e-09 -0.0441995)
(0.085141 -0.0108985 -5.3006e-10 -0.0434086 -2.89673e-10 -0.0440944)
(0.0851463 -0.0117284 -2.89777e-10 -0.0431083 -7.99059e-09 -0.0440085)
(0.0851535 -0.0122658 3.26354e-10 -0.0428038 -5.57491e-10 -0.043882)
(0.0851695 -0.0123342 -9.30911e-12 -0.0424432 7.02103e-09 -0.0437728)
(0.0851929 -0.0120163 -5.4508e-10 -0.0419888 -2.30985e-09 -0.0436231)
(0.0852252 -0.0109644 9.62697e-11 -0.0414785 -7.10875e-09 -0.0434735)
(0.08526 -0.00929233 4.5953e-10 -0.0407668 1.77461e-09 -0.0432863)
(0.0852913 -0.00682824 -2.93609e-11 -0.0399973 6.97368e-09 -0.0430731)
(0.0853126 -0.0039027 -3.96831e-10 -0.0392096 5.59542e-10 -0.0428305)
(0.0853192 -0.00179903 -1.88012e-10 -0.0388015 -2.40133e-09 -0.0425721)
(0.0851647 -0.00161131 -5.04939e-11 -0.0444298 -2.57018e-09 -0.0444276)
(0.0852585 -0.00297373 -1.49907e-10 -0.0443984 4.9575e-10 -0.0444764)
(0.0852499 -0.00499218 -7.85972e-11 -0.0442947 -1.29503e-09 -0.0444212)
(0.0852458 -0.00671839 9.21681e-11 -0.0441253 -3.49842e-09 -0.0443835)
(0.0852368 -0.00834417 2.97584e-10 -0.0439471 2.66571e-09 -0.0443041)
(0.0852336 -0.00972527 -7.47122e-11 -0.0436989 6.92255e-09 -0.044242)
(0.0852299 -0.0109076 -5.30242e-10 -0.0434505 -2.90016e-10 -0.0441369)
(0.0852354 -0.0117376 -2.90232e-10 -0.0431505 -7.99839e-09 -0.0440509)
(0.0852426 -0.0122748 3.26263e-10 -0.0428459 -5.57841e-10 -0.0439244)
(0.0852587 -0.0123436 -9.23947e-12 -0.042485 7.02798e-09 -0.0438152)
(0.0852822 -0.0120257 -5.45217e-10 -0.0420303 -2.31231e-09 -0.0436655)
(0.0853144 -0.010973 9.63639e-11 -0.0415198 -7.11586e-09 -0.0435157)
(0.0853492 -0.00929943 4.59748e-10 -0.0408081 1.77647e-09 -0.0433285)
(0.0853804 -0.00683308 -2.93274e-11 -0.0400385 6.98063e-09 -0.0431152)
(0.0854016 -0.00390534 -3.96895e-10 -0.0392514 5.60095e-10 -0.0428726)
(0.085408 -0.00180042 -1.88143e-10 -0.038843 -2.40378e-09 -0.0426141)
(0.0852534 -0.00161266 -5.0527e-11 -0.0444724 -2.57252e-09 -0.0444702)
(0.0853457 -0.00297617 -1.50011e-10 -0.0444405 4.96274e-10 -0.0445185)
(0.0853375 -0.00499631 -7.8637e-11 -0.0443369 -1.29626e-09 -0.0444634)
(0.0853336 -0.00672364 9.22047e-11 -0.0441676 -3.5018e-09 -0.0444257)
(0.0853246 -0.00835079 2.97671e-10 -0.0439891 2.66836e-09 -0.0443463)
(0.0853217 -0.00973301 -7.47009e-11 -0.0437409 6.9293e-09 -0.0442841)
(0.085318 -0.0109167 -5.30384e-10 -0.0434921 -2.90381e-10 -0.0441791)
(0.0853238 -0.0117473 -2.90656e-10 -0.0431923 -8.00612e-09 -0.0440929)
(0.0853312 -0.0122842 3.26311e-10 -0.0428877 -5.58196e-10 -0.0439666)
(0.0853475 -0.0123535 -9.16365e-12 -0.0425267 7.03487e-09 -0.0438572)
(0.0853712 -0.0120356 -5.45489e-10 -0.0420717 -2.31476e-09 -0.0437075)
(0.0854034 -0.0109816 9.64954e-11 -0.0415613 -7.12293e-09 -0.0435576)
(0.0854385 -0.00930646 4.59862e-10 -0.0408495 1.77837e-09 -0.0433705)
(0.0854697 -0.00683819 -2.92926e-11 -0.0400798 6.98754e-09 -0.043157)
(0.085491 -0.00390811 -3.96982e-10 -0.0392933 5.6064e-10 -0.0429144)
(0.0854974 -0.00180182 -1.88274e-10 -0.0388848 -2.40621e-09 -0.042656)
(0.0853408 -0.00161408 -5.05503e-11 -0.0445145 -2.57483e-09 -0.0445125)
(0.085432 -0.0029787 -1.50144e-10 -0.0444822 4.96797e-10 -0.0445602)
(0.0854237 -0.00500071 -7.87026e-11 -0.0443786 -1.29748e-09 -0.0445051)
(0.0854203 -0.00672914 9.22418e-11 -0.0442093 -3.50513e-09 -0.0444674)
(0.0854112 -0.00835767 2.97756e-10 -0.0440306 2.67098e-09 -0.044388)
(0.0854088 -0.00974115 -7.46916e-11 -0.0437825 6.93598e-09 -0.0443258)
(0.0854053 -0.0109261 -5.30536e-10 -0.0435334 -2.90753e-10 -0.0442208)
(0.0854114 -0.011757 -2.9113e-10 -0.043234 -8.01376e-09 -0.0441345)
(0.085419 -0.0122936 3.26212e-10 -0.0429294 -5.58488e-10 -0.0440083)
(0.0854357 -0.0123635 -9.09196e-12 -0.0425682 7.04171e-09 -0.0438988)
(0.0854599 -0.0120455 -5.45689e-10 -0.0421131 -2.31724e-09 -0.0437492)
(0.0854923 -0.0109908 9.65695e-11 -0.0416026 -7.12995e-09 -0.0435992)
(0.0855279 -0.009314 4.60119e-10 -0.040891 1.78021e-09 -0.0434121)
(0.0855594 -0.00684334 -2.92566e-11 -0.0401215 6.99442e-09 -0.0431986)
(0.085581 -0.00391096 -3.97063e-10 -0.0393358 5.61176e-10 -0.0429561)
(0.0855875 -0.00180325 -1.8841e-10 -0.038927 -2.40864e-09 -0.0426977)
(0.0854271 -0.00161525 -5.05821e-11 -0.0445562 -2.57712e-09 -0.0445543)
(0.0855175 -0.00298116 -1.50255e-10 -0.0445238 4.97312e-10 -0.0446017)
(0.0855089 -0.00500507 -7.87282e-11 -0.0444198 -1.29871e-09 -0.0445466)
(0.0855056 -0.00673468 9.22741e-11 -0.0442505 -3.50843e-09 -0.0445087)
(0.0854966 -0.00836469 2.97795e-10 -0.0440716 2.67362e-09 -0.0444294)
(0.0854946 -0.0097494 -7.46822e-11 -0.0438237 6.94259e-09 -0.044367)
(0.0854914 -0.0109356 -5.30658e-10 -0.0435743 -2.91163e-10 -0.0442622)
(0.0854981 -0.0117673 -2.9157e-10 -0.0432752 -8.02131e-09 -0.0441757)
(0.0855061 -0.0123037 3.26256e-10 -0.0429706 -5.58774e-10 -0.0440496)
(0.0855233 -0.0123741 -9.01248e-12 -0.0426094 7.04848e-09 -0.04394)
(0.0855482 -0.012056 -5.46024e-10 -0.0421543 -2.31968e-09 -0.0437905)
(0.0855813 -0.0109998 9.66906e-11 -0.0416443 -7.13695e-09 -0.0436404)
(0.0856176 -0.00932148 4.60262e-10 -0.040933 1.78212e-09 -0.0434535)
(0.0856496 -0.00684877 -2.922e-11 -0.0401634 7.00125e-09 -0.0432399)
(0.0856718 -0.00391395 -3.97185e-10 -0.0393786 5.61705e-10 -0.0429975)
(0.0856785 -0.00180467 -1.88545e-10 -0.0389697 -2.41106e-09 -0.0427392)
(0.0855124 -0.00161666 -5.06228e-11 -0.0445977 -2.57938e-09 -0.0445956)
(0.0856012 -0.00298376 -1.50358e-10 -0.0445646 4.97826e-10 -0.0446425)
(0.0855924 -0.00500965 -7.87433e-11 -0.0444604 -1.29991e-09 -0.0445875)
(0.0855895 -0.00674049 9.23133e-11 -0.0442912 -3.51169e-09 -0.0445495)
(0.0855806 -0.00837207 2.9784e-10 -0.0441121 2.6762e-09 -0.0444702)
(0.0855792 -0.00975809 -7.46772e-11 -0.0438643 6.9491e-09 -0.0444076)
(0.0855763 -0.0109456 -5.30797e-10 -0.0436147 -2.91551e-10 -0.0443029)
(0.0855839 -0.0117777 -2.92068e-10 -0.0433163 -8.02875e-09 -0.0442163)
(0.0855927 -0.0123136 3.26161e-10 -0.0430119 -5.58986e-10 -0.0440905)
(0.0856106 -0.0123848 -8.93969e-12 -0.0426507 7.05518e-09 -0.0439807)
(0.0856364 -0.0120666 -5.46257e-10 -0.0421958 -2.32216e-09 -0.0438315)
(0.0856702 -0.0110096 9.67602e-11 -0.0416858 -7.14388e-09 -0.0436813)
(0.0857076 -0.00932955 4.60593e-10 -0.040975 1.78396e-09 -0.0434946)
(0.0857402 -0.00685431 -2.91824e-11 -0.0402056 7.00805e-09 -0.043281)
(0.0857631 -0.00391712 -3.97325e-10 -0.0394219 5.62239e-10 -0.0430388)
(0.0857703 -0.00180616 -1.88691e-10 -0.0390127 -2.41347e-09 -0.0427805)
(0.085596 -0.00161814 -5.06454e-11 -0.0446385 -2.58161e-09 -0.0446364)
(0.0856834 -0.0029863 -1.50449e-10 -0.0446051 4.98324e-10 -0.0446828)
(0.0856746 -0.00501423 -7.87412e-11 -0.0445006 -1.30111e-09 -0.0446279)
(0.0856721 -0.00674631 9.23437e-11 -0.0443316 -3.5149e-09 -0.0445897)
(0.0856634 -0.00837949 2.97815e-10 -0.0441522 2.67881e-09 -0.0445106)
(0.0856628 -0.00976684 -7.46757e-11 -0.0439047 6.95556e-09 -0.0444479)
(0.0856603 -0.0109557 -5.30874e-10 -0.0436549 -2.92e-10 -0.0443434)
(0.0856688 -0.0117887 -2.92549e-10 -0.0433569 -8.03612e-09 -0.0442565)
(0.0856785 -0.0123243 3.26222e-10 -0.0430528 -5.59197e-10 -0.044131)
(0.0856973 -0.0123961 -8.85992e-12 -0.0426917 7.06183e-09 -0.0440212)
(0.0857243 -0.0120778 -5.46689e-10 -0.042237 -2.32463e-09 -0.0438721)
(0.0857591 -0.0110195 9.68593e-11 -0.0417275 -7.15078e-09 -0.0437219)
(0.0857977 -0.00933776 4.6082e-10 -0.0410173 1.78585e-09 -0.0435354)
(0.0858313 -0.00686031 -2.91425e-11 -0.0402481 7.01482e-09 -0.0433218)
(0.0858552 -0.00392055 -3.97492e-10 -0.0394656 5.62753e-10 -0.0430798)
(0.085863 -0.00180772 -1.88847e-10 -0.0390563 -2.41588e-09 -0.0428217)
(0.085678 -0.00161973 -5.06836e-11 -0.0446788 -2.5838e-09 -0.0446766)
(0.0857638 -0.00298894 -1.50549e-10 -0.0446449 4.98823e-10 -0.0447226)
(0.0857551 -0.00501901 -7.87365e-11 -0.0445403 -1.30228e-09 -0.0446677)
(0.0857532 -0.0067524 9.23768e-11 -0.0443715 -3.51807e-09 -0.0446295)
(0.0857447 -0.00838729 2.97793e-10 -0.0441918 2.68137e-09 -0.0445505)
(0.085745 -0.0097761 -7.46791e-11 -0.0439447 6.96193e-09 -0.0444876)
(0.0857431 -0.0109664 -5.31003e-10 -0.0436947 -2.92439e-10 -0.0443833)
(0.0857527 -0.0117999 -2.93071e-10 -0.0433974 -8.04338e-09 -0.0442963)
(0.0857635 -0.0123351 3.26149e-10 -0.0430936 -5.59339e-10 -0.0441711)
(0.0857834 -0.0124077 -8.78323e-12 -0.0427327 7.06841e-09 -0.0440612)
(0.0858119 -0.0120892 -5.47028e-10 -0.0422784 -2.32712e-09 -0.0439124)
(0.0858481 -0.0110302 9.69125e-11 -0.0417693 -7.15764e-09 -0.0437622)
(0.0858884 -0.00934665 4.61225e-10 -0.04106 1.78771e-09 -0.0435759)
(0.085923 -0.00686652 -2.91011e-11 -0.0402911 7.02156e-09 -0.0433625)
(0.0859483 -0.00392422 -3.97696e-10 -0.0395098 5.63287e-10 -0.0431207)
(0.085957 -0.00180935 -1.89013e-10 -0.0391005 -2.41829e-09 -0.0428628)
(0.0857583 -0.00162138 -5.07117e-11 -0.0447186 -2.58597e-09 -0.0447164)
(0.0858425 -0.00299151 -1.50636e-10 -0.0446844 4.99309e-10 -0.0447619)
(0.085834 -0.00502384 -7.87114e-11 -0.0445796 -1.30345e-09 -0.0447071)
(0.0858328 -0.0067585 9.24035e-11 -0.0444112 -3.52121e-09 -0.0446688)
(0.0858246 -0.0083951 2.97692e-10 -0.0442311 2.68394e-09 -0.0445901)
(0.085826 -0.00978542 -7.46883e-11 -0.0439845 6.96824e-09 -0.0445269)
(0.0858248 -0.010977 -5.31059e-10 -0.0437342 -2.92925e-10 -0.044423)
(0.0858357 -0.0118117 -2.9359e-10 -0.0434376 -8.05057e-09 -0.0443357)
(0.0858478 -0.0123465 3.26222e-10 -0.0431342 -5.59447e-10 -0.0442109)
(0.0858692 -0.01242 -8.70183e-12 -0.0427736 7.07496e-09 -0.0441009)
(0.0858995 -0.0121014 -5.47544e-10 -0.0423199 -2.32963e-09 -0.0439525)
(0.0859369 -0.0110411 9.69977e-11 -0.0418113 -7.16448e-09 -0.0438022)
(0.0859792 -0.00935581 4.61588e-10 -0.0411028 1.78961e-09 -0.0436163)
(0.0860153 -0.00687331 -2.90563e-11 -0.0403341 7.02827e-09 -0.0434029)
(0.0860421 -0.00392828 -3.97964e-10 -0.0395544 5.6381e-10 -0.0431615)
(0.086052 -0.00181109 -1.89199e-10 -0.0391452 -2.42069e-09 -0.0429038)
(0.0858369 -0.00162304 -5.07583e-11 -0.0447579 -2.58811e-09 -0.0447556)
(0.0859196 -0.00299409 -1.50734e-10 -0.0447235 4.99795e-10 -0.0448009)
(0.0859114 -0.00502875 -7.86935e-11 -0.0446186 -1.30461e-09 -0.0447462)
(0.0859111 -0.00676469 9.24354e-11 -0.0444505 -3.52432e-09 -0.0447078)
(0.0859032 -0.00840307 2.9759e-10 -0.0442702 2.68649e-09 -0.0446293)
(0.0859059 -0.00979505 -7.47059e-11 -0.0440241 6.97451e-09 -0.044566)
(0.0859055 -0.010988 -5.31156e-10 -0.0437736 -2.93428e-10 -0.0444624)
(0.0859177 -0.0118236 -2.94157e-10 -0.0434778 -8.0577e-09 -0.0443749)
(0.0859313 -0.0123581 3.26182e-10 -0.0431748 -5.59498e-10 -0.0442505)
(0.0859542 -0.0124327 -8.62524e-12 -0.0428145 7.08146e-09 -0.0441404)
(0.0859866 -0.0121139 -5.48059e-10 -0.0423613 -2.33218e-09 -0.0439924)
(0.0860258 -0.0110529 9.70125e-11 -0.0418531 -7.17129e-09 -0.0438421)
(0.0860703 -0.00936583 4.62121e-10 -0.0411458 1.79146e-09 -0.0436565)
(0.0861084 -0.00688037 -2.90106e-11 -0.0403779 7.03497e-09 -0.0434433)
(0.0861373 -0.00393263 -3.98259e-10 -0.0395999 5.64314e-10 -0.0432022)