/*--------------------------------*- C++ -*----------------------------------*\
| =========                 |                                                 |
| \\      /  F ield         | foam-extend: Open Source CFD                    |
|  \\    /   O peration     | Version:     4.1-20200408                       |
|   \\  /    A nd           | Web:         http://www.foam-extend.org         |
|    \\/     M anipulation  |                                                 |
\*---------------------------------------------------------------------------*/
FoamFile
{
    version     2.0;
    format      ascii;
    class       volScalarField;
    location    "0.0635000";
    object      epsilonPEq;
}
// * * * * * * * * * * * * * * * * * * * * * * * * * * * * * * * * * * * * * //

dimensions      [0 0 0 0 0 0 0];

internalField   nonuniform List<scalar> 
1952
(
0.0648063
0.0649046
0.0651058
0.0653127
0.0655617
0.0657494
0.0659553
0.0660073
0.0658841
0.0652873
0.06417
0.0623125
0.0597517
0.0573542
0.056084
0.0647151
0.0648691
0.0649675
0.0651689
0.065376
0.0656251
0.0658127
0.0660195
0.0660723
0.0659491
0.0653518
0.0642333
0.0623759
0.0598136
0.0574158
0.0561453
0.0647778
0.064932
0.0650305
0.065232
0.0654394
0.0656887
0.0658762
0.066084
0.0661372
0.066014
0.0654161
0.0642962
0.0624382
0.0598744
0.0574774
0.0562071
0.0648406
0.0649951
0.0650937
0.0652954
0.0655028
0.0657522
0.0659396
0.0661478
0.0662014
0.0660779
0.0654793
0.064358
0.0625008
0.0599356
0.0575388
0.056269
0.0649036
0.0650579
0.0651564
0.0653582
0.0655657
0.065815
0.0660021
0.0662118
0.0662658
0.0661421
0.0655429
0.0644202
0.0625638
0.0599974
0.0576008
0.0563308
0.0649663
0.0651209
0.0652194
0.0654213
0.0656287
0.0658781
0.0660649
0.066276
0.0663306
0.0662069
0.0656071
0.0644831
0.0626264
0.0600584
0.0576627
0.0563928
0.0650293
0.065184
0.0652826
0.0654845
0.0656921
0.0659415
0.0661282
0.0663398
0.0663948
0.066271
0.0656705
0.0645451
0.0626894
0.0601201
0.0577243
0.0564545
0.0650921
0.0652465
0.0653451
0.0655471
0.0657548
0.0660042
0.0661907
0.066404
0.0664596
0.0663359
0.0657348
0.0646081
0.0627528
0.0601825
0.0577865
0.056516
0.0651544
0.0653093
0.065408
0.0656101
0.065818
0.0660675
0.0662539
0.0664684
0.0665247
0.0664011
0.0657995
0.0646716
0.0628154
0.0602434
0.0578479
0.0565775
0.0652172
0.065372
0.0654708
0.0656732
0.0658813
0.0661311
0.0663175
0.0665321
0.0665888
0.066465
0.0658628
0.0647334
0.0628784
0.0603051
0.057909
0.0566389
0.0652798
0.0654341
0.065533
0.0657355
0.0659437
0.0661937
0.0663798
0.0665962
0.0666535
0.0665296
0.0659269
0.0647962
0.0629408
0.0603663
0.0579705
0.0567001
0.0653418
0.0654967
0.0655958
0.0657984
0.0660068
0.0662568
0.0664428
0.0666599
0.0667176
0.0665937
0.0659903
0.0648583
0.0630027
0.0604264
0.0580317
0.0567618
0.0654044
0.0655588
0.0656581
0.0658609
0.0660693
0.0663194
0.0665052
0.066723
0.066781
0.0666569
0.0660527
0.0649193
0.0630649
0.0604875
0.058093
0.0568236
0.0654664
0.0656205
0.0657201
0.0659229
0.0661312
0.0663814
0.0665667
0.0667864
0.066845
0.0667208
0.0661162
0.0649815
0.063128
0.0605494
0.0581547
0.0568851
0.0655281
0.0656827
0.0657824
0.0659853
0.0661937
0.0664439
0.0666291
0.0668502
0.0669095
0.0667855
0.0661803
0.0650444
0.0631899
0.0606098
0.058216
0.0569467
0.0655902
0.065745
0.0658448
0.0660478
0.0662565
0.0665069
0.0666921
0.0669132
0.0669729
0.0668488
0.066243
0.0651056
0.0632523
0.0606709
0.0582774
0.0570088
0.0656524
0.0658064
0.0659063
0.0661095
0.0663183
0.0665688
0.0667537
0.0669767
0.067037
0.0669128
0.0663065
0.0651682
0.0633148
0.0607322
0.0583396
0.0570709
0.0657138
0.0658685
0.0659685
0.0661718
0.0663808
0.0666314
0.0668162
0.0670402
0.0671012
0.066977
0.0663701
0.065233
0.0633778
0.0607933
0.0584018
0.0571328
0.0657757
0.0659305
0.0660305
0.066234
0.0664432
0.066694
0.0668788
0.0671039
0.0671655
0.0670411
0.0664337
0.0652979
0.0634414
0.060855
0.0584635
0.0571946
0.0658376
0.0659926
0.0660927
0.0662963
0.0665057
0.0667566
0.0669413
0.0671679
0.0672303
0.0671059
0.0664977
0.0653633
0.0635058
0.0609174
0.0585253
0.0572561
0.0658996
0.0660551
0.0661554
0.0663591
0.0665687
0.0668198
0.0670044
0.0672325
0.0672957
0.0671712
0.0665621
0.0654276
0.0635692
0.0609786
0.0585871
0.0573179
0.065962
0.0661182
0.0662186
0.0664226
0.0666323
0.0668837
0.0670682
0.0672964
0.06736
0.0672352
0.0666251
0.065492
0.0636327
0.0610401
0.058649
0.0573799
0.0660249
0.066181
0.0662815
0.0664856
0.0666954
0.0669468
0.0671319
0.0673608
0.0674246
0.0672995
0.0666884
0.0655566
0.0636969
0.0611024
0.0587109
0.0574415
0.0660877
0.0662445
0.066345
0.0665491
0.0667589
0.0670102
0.0671966
0.0674257
0.0674897
0.0673644
0.0667526
0.0656209
0.0637604
0.0611639
0.0587728
0.0575033
0.0661511
0.0663083
0.066409
0.0666132
0.0668231
0.0670744
0.0672614
0.0674904
0.0675542
0.0674283
0.0668158
0.0656846
0.0638233
0.0612249
0.0588343
0.0575651
0.0662148
0.066372
0.0664726
0.0666769
0.0668867
0.0671378
0.0673256
0.0675548
0.0676184
0.0674919
0.0668786
0.0657491
0.0638872
0.061287
0.0588963
0.0576267
0.0662784
0.0664355
0.0665361
0.0667403
0.0669501
0.0672008
0.0673904
0.06762
0.0676836
0.0675571
0.0669428
0.0658129
0.0639502
0.061348
0.0589578
0.0576885
0.0663419
0.0664995
0.0666001
0.0668043
0.0670141
0.0672647
0.0674544
0.0676842
0.0677478
0.0676211
0.0670057
0.0658771
0.0640137
0.0614094
0.0590191
0.0577501
0.0664058
0.0665626
0.0666632
0.0668673
0.0670772
0.0673275
0.0675187
0.067749
0.0678126
0.0676858
0.0670694
0.065941
0.064077
0.0614707
0.0590811
0.0578119
0.0664688
0.066626
0.0667266
0.0669308
0.0671406
0.0673908
0.0675825
0.0678132
0.0678769
0.0677501
0.0671328
0.0660046
0.0641397
0.0615313
0.0591429
0.0578739
0.0665321
0.0666888
0.0667895
0.0669937
0.0672036
0.0674536
0.067646
0.067877
0.0679406
0.0678136
0.0671952
0.0660688
0.0642034
0.0615932
0.059205
0.0579361
0.0665949
0.0667512
0.0668519
0.067056
0.0672659
0.0675157
0.0677099
0.0679415
0.0680052
0.0678784
0.0672592
0.0661336
0.0642677
0.0616555
0.0592669
0.0579977
0.0666572
0.0668141
0.0669148
0.0671191
0.067329
0.0675788
0.067774
0.0680062
0.0680702
0.0679434
0.0673235
0.0661978
0.0643311
0.0617169
0.0593287
0.0580595
0.06672
0.0668768
0.0669777
0.0671821
0.0673923
0.0676421
0.0678378
0.0680703
0.0681345
0.0680077
0.0673867
0.0662614
0.0643939
0.0617777
0.0593905
0.0581215
0.0667826
0.0669394
0.0670404
0.0672448
0.0674551
0.0677048
0.0679012
0.0681341
0.0681983
0.0680714
0.0674494
0.0663257
0.0644576
0.0618396
0.0594525
0.0581836
0.0668451
0.0670017
0.0671027
0.0673073
0.0675175
0.0677671
0.0679652
0.0681986
0.0682629
0.068136
0.0675132
0.0663899
0.0645212
0.0619012
0.0595142
0.0582451
0.0669073
0.0670646
0.0671656
0.0673703
0.0675806
0.0678302
0.068029
0.0682629
0.0683274
0.0682004
0.0675767
0.0664539
0.0645844
0.0619624
0.059576
0.058307
0.0669701
0.0671272
0.0672282
0.0674332
0.0676436
0.0678931
0.0680928
0.0683271
0.0683916
0.0682646
0.0676399
0.0665174
0.0646472
0.0620233
0.0596376
0.058369
0.0670327
0.0671899
0.0672907
0.0674961
0.0677065
0.0679558
0.0681562
0.0683908
0.0684554
0.0683283
0.0677027
0.0665818
0.064711
0.0620852
0.0596993
0.0584305
0.0670954
0.0672522
0.067353
0.0675586
0.067769
0.0680181
0.0682202
0.0684552
0.06852
0.0683929
0.0677665
0.0666455
0.064774
0.0621463
0.0597613
0.0584925
0.0671577
0.067315
0.0674159
0.0676216
0.0678321
0.0680811
0.0682835
0.068519
0.0685839
0.0684567
0.0678294
0.0667095
0.0648372
0.0622075
0.0598227
0.058554
0.0672204
0.0673773
0.0674783
0.067684
0.0678945
0.0681434
0.0683472
0.068583
0.0686481
0.0685208
0.0678925
0.0667738
0.0649011
0.0622695
0.0598846
0.0586158
0.0672826
0.0674397
0.0675408
0.0677466
0.0679571
0.068206
0.068411
0.0686475
0.0687128
0.0685856
0.0679566
0.0668373
0.0649636
0.06233
0.0599458
0.0586771
0.067345
0.0675025
0.0676037
0.0678096
0.0680203
0.0682691
0.0684742
0.0687109
0.0687762
0.0686489
0.0680188
0.0669012
0.0650269
0.0623913
0.0600076
0.058739
0.0674077
0.0675644
0.0676657
0.0678717
0.0680823
0.068331
0.0685378
0.068775
0.0688405
0.0687131
0.0680822
0.0669646
0.0650895
0.0624521
0.0600689
0.0588006
0.0674695
0.0676271
0.0677285
0.0679345
0.0681452
0.0683937
0.0686009
0.0688385
0.0689041
0.0687766
0.0681449
0.0670288
0.0651529
0.0625137
0.0601305
0.0588622
0.0675321
0.0676891
0.0677906
0.0679967
0.0682074
0.0684558
0.0686648
0.0689028
0.0689685
0.068841
0.0682085
0.0670918
0.0652149
0.0625741
0.0601921
0.0589241
0.0675941
0.0677518
0.0678534
0.0680596
0.0682703
0.0685187
0.0687276
0.068966
0.0690318
0.0689042
0.0682708
0.0671559
0.065278
0.0626355
0.0602538
0.0589859
0.0676567
0.0678136
0.0679153
0.0681215
0.0683323
0.0685805
0.0687914
0.0690303
0.0690961
0.0689685
0.0683342
0.0672191
0.065341
0.0626967
0.0603157
0.0590477
0.0677185
0.0678763
0.067978
0.0681844
0.0683952
0.0686433
0.0688545
0.069094
0.06916
0.0690324
0.0683973
0.0672832
0.0654044
0.0627581
0.0603773
0.0591094
0.067781
0.0679384
0.0680403
0.0682468
0.0684576
0.0687057
0.0689183
0.0691581
0.0692242
0.0690967
0.0684607
0.0673471
0.065468
0.0628199
0.0604388
0.0590338
0.0678431
0.068001
0.0681029
0.0683095
0.0685204
0.0687684
0.068982
0.0692224
0.0692887
0.0691613
0.0685244
0.0674112
0.0655314
0.0628814
0.0605003
0.0587312
0.0679056
0.0680637
0.0681657
0.0683725
0.0685835
0.0688315
0.0690459
0.0692867
0.0693531
0.0692256
0.0685878
0.0674741
0.0655936
0.0629416
0.0604195
0.058051
0.0679682
0.0681265
0.0682286
0.0684355
0.0686465
0.0688943
0.0691091
0.0693502
0.0694165
0.0692889
0.06865
0.0675377
0.0656566
0.0630028
0.0599405
0.0568357
0.0680309
0.0681888
0.068291
0.0684978
0.0687088
0.0689563
0.0691728
0.0694142
0.0694806
0.0693529
0.0687132
0.0675128
0.0654051
0.0624829
0.0588517
0.0550953
0.0680932
0.0682516
0.0683538
0.0685607
0.0687716
0.069019
0.0691894
0.0692901
0.069183
0.0688514
0.0679991
0.0665781
0.0642128
0.0610487
0.0570683
0.0529375
0.0681559
0.0681512
0.0681978
0.0683112
0.0684029
0.0684897
0.0684742
0.0683483
0.0679865
0.0673707
0.0662456
0.0645746
0.0620053
0.0587034
0.0546072
0.0503997
0.0680772
0.0673474
0.0673011
0.0672664
0.0671736
0.0670333
0.0667752
0.0663921
0.0657701
0.0648833
0.063522
0.0616471
0.0589595
0.0556118
0.0515905
0.0475467
0.0673121
0.0654828
0.0653382
0.0651517
0.0648748
0.0645213
0.0640421
0.0634325
0.0625972
0.0615021
0.0599788
0.0579773
0.0552736
0.0519875
0.0482096
0.0445166
0.065492
0.062351
0.0621365
0.0618409
0.0614341
0.0609332
0.0603042
0.0595454
0.0585808
0.0573688
0.0557787
0.053745
0.0511264
0.0480041
0.0445956
0.0413791
0.0623959
0.0579288
0.0576924
0.0573577
0.056905
0.0563514
0.0556707
0.0548619
0.053865
0.0526339
0.0510711
0.0490973
0.0466507
0.0437745
0.0408162
0.0381527
0.0579905
0.0523973
0.0521856
0.0518795
0.0514622
0.050946
0.0503068
0.0495415
0.0486016
0.047439
0.0459839
0.0441494
0.0419429
0.0393775
0.036923
0.0348632
0.0524552
0.0460921
0.0459337
0.0456992
0.04537
0.0449518
0.0444185
0.043764
0.0429462
0.0419175
0.0406291
0.0389951
0.0370786
0.0348758
0.0329641
0.0315454
0.046132
0.0394284
0.0393258
0.0391704
0.0389414
0.0386396
0.0382359
0.0377222
0.0370586
0.0362009
0.0351132
0.0337208
0.0321268
0.0303275
0.0289881
0.0282381
0.0394469
0.0328165
0.0327492
0.0326482
0.0324939
0.0322864
0.0319959
0.031615
0.0311036
0.0304235
0.0295455
0.0284149
0.0271596
0.0257947
0.0250476
0.0249813
0.0328205
0.0265921
0.0265285
0.0264403
0.0263123
0.0261501
0.0259265
0.0256393
0.0252478
0.0247237
0.0240402
0.0231719
0.0222565
0.021347
0.0211993
0.0218101
0.0265942
0.0209723
0.0208866
0.020773
0.0206222
0.0204494
0.0202334
0.019982
0.0196555
0.0192417
0.018716
0.0180921
0.0175049
0.0170615
0.0175035
0.0187543
0.0209833
0.0160455
0.0159308
0.0157754
0.0155721
0.0153467
0.0150861
0.0148112
0.0144858
0.0141207
0.0136981
0.0132811
0.0129962
0.0130143
0.0140112
0.0158284
0.0160685
0.0117944
0.0116654
0.0114797
0.0112256
0.0109363
0.0106057
0.0102675
0.00989003
0.00951234
0.00912842
0.00886012
0.00882945
0.00927203
0.0107461
0.0130191
0.0118234
0.00815302
0.00803135
0.00784417
0.0075697
0.00724123
0.00685358
0.00644734
0.00599438
0.00556473
0.00516737
0.00497876
0.00512327
0.00589295
0.00769384
0.0102666
0.00817884
0.00504404
0.00493048
0.00475677
0.00449789
0.00417569
0.00377494
0.00333568
0.00283275
0.00236976
0.00198179
0.00185267
0.00206656
0.0029775
0.00484611
0.00748831
0.00506696
0.00234345
0.00221416
0.0020449
0.00184415
0.00160077
0.00128534
0.000934287
0.000530144
0.000186048
0
0
9.81732e-05
0.000836398
0.00234924
0.00474022
0.00237622
0.000245906
0.000125833
0
0
0
0
0
0
0
0
0
0
0
0.000567332
0.00235605
0.000282398
0
0
0
0
0
0
0
0
0
0
0
0
0
0
0.000700314
0
0
0
0
0
0
0
0
0
0
0
0
0
0
0
0
0
0
0
0
0
0
0
0
0
0
0
0
0
0
0
0
0
0
0
0
0
0
0
0
0
0
0
0
0
0
0
0
0
0
0
0
0
0
0
0
0
0
0
0
0
0
0
0
0
0
0
0
0
0
0
0
0
0
0
0
0
0
0
0
0
0
0
0
0
0
0
0
0
0
0
0
0
0
0
0
0
0
0
0
0
0
0
0
0
0
0
0
0
0
0
0
0
0
0
0
0
0
0
0
0
0
0
0
0
0
0
0
0
0
0
0
0
0
0
0
0
0
0
0
0
0
0
0
0
0
0
0
0
0
0
0
0
0
0
0
0
0
0
0
0
0
0
0
0
0
0
0
0
0
0
0
0
0
0
0
0
0
0
0
0
0
0
0
0
0
0
0
0
0
0
0
0
0
0
0
0
0
0
0
0
0
0
0
0
0
0
0
0
0
0
0
0
0
0
0
0
0
0
0
0
0
0
0
0
0
0
0
0
0
0
0
0
0
0
0
0
0
0
0
0
0
0
0
0
0
0
0
0
0
0
0
0
0
0
0
0
0
0
0
0
0
0
0
0
0
0
0
0
0
0
0
0
0
0
0
0
0
0
0
0
0
0
0
0
0
0
0
0
0
0
0
0
0
0
0
0
0
0
0
0
0
0
0
0
0
0
0
0
0
0
0
0
0
0
0
0
0
0
0
0
0
0
0
0
0
0
0
0
0
0
0
0
0
0
0
0
0
0
0
0
0
0
0
0
0
0
0
0
0
0
0
0
0
0
0
0
0
0
0
0
0
0
0
0
0
0
0
0
0
0
0
0
0
0
0
0
0
0
0
0
0
0
0
0
0
0
0
0
0
0
0
0
0
0
0
0
0
0
0
0
0
0
0
0
0
0
0
0
0
0
0
0
0
0
0
0
0
0
0
0
0
0
0
0
0
0
0
0
0
0
0
0
0
0
0
0
0
0
0
0
0
0
0
0
0
0
0
0
0
0
0
0
0
0
0
0
0
0
0
0
0
0
0
0
0
0
0
0
0
0
0
0
0
0
0
0
0
0
0
0
0
0
0
0
0
0
0
0
0
0
0
0
0
0
0
0
0
0
0
0
0
0
0
0
0
0
0
0
0
0
0
0
0
0
0
0
0
0
0
0
0
0
0
0
0
0
0
0
0
0
0
0
0
0
0
0
0
0
0
0
0
0
0
0
0
0
0
0
0
0
0
0
0
0
0
0
0
0
0
0
0
0
0
0
0
0
0
0
0
0
0
0
0
0
0
0
0
0
0
0
0
0
0
0
0
0
0
0
0
0
0
0
0
0
0
0
0
0
0
0
0
0
0
0
0
0
0
0
0
0
0
0
0
0
0
0
0
0
0
0
0
0
0
0
0
0
0
0
0
0
0
0
0
0
0
0
0
0
0
0
0
0
0
0
0
0
0
0
0
0
0
0
0
0
0
0
0
0
0
0
0
0
0
0
0
0
0
0
0
0
0
0
0
0
0
0
0
0
0
0
0
0
0
0
0
0
0
0
0
0
0
0
0
0
0
0
0
0
0
0
0
0
0
0
0
0
0
0
0
0
0
0
0
0
0
0
0
0
0
0
0
0
0
0
0
0
0
0
0
0
0
0
0
0
0
0
0
0
0
0
0
0
0
0
0
0
0
0
0
0
0
0
0
0
0
0
0
0
0
0
0
0
0
0
0
0
0
0
)
;

boundaryField
{
    wireUpstream
    {
        type            calculated;
        value           uniform 0;
    }
    wireDownstream
    {
        type            calculated;
        value           nonuniform List<scalar> 
16
(
0.0648063
0.0649046
0.0651058
0.0653127
0.0655617
0.0657494
0.0659553
0.0660073
0.0658841
0.0652873
0.06417
0.0623125
0.0597517
0.0573542
0.056084
0.0647151
)
;
    }
    wireTopContact
    {
        type            calculated;
        value           nonuniform List<scalar> 
122
(
0.0559314
0.0559929
0.0560547
0.0561163
0.0561781
0.0562397
0.056301
0.0563623
0.0564236
0.0564846
0.0565461
0.0566077
0.0566691
0.0567305
0.0567925
0.0568544
0.0569161
0.0569778
0.0570391
0.0571007
0.0571627
0.0572241
0.0572857
0.0573474
0.0574088
0.0574704
0.0575319
0.0575935
0.0576553
0.0577174
0.0577788
0.0578404
0.0579023
0.0579642
0.0580256
0.0580873
0.0581491
0.0582105
0.0582723
0.0583337
0.0583953
0.0584565
0.0585182
0.0585796
0.0586411
0.0587028
0.0587645
0.058826
0.0588876
0.058816
0.0585055
0.0578072
0.056572
0.0548208
0.052679
0.050173
0.047343
0.0443257
0.0411933
0.037966
0.0346731
0.031353
0.0280479
0.0248002
0.0216462
0.0186156
0.015721
0.0129481
0.0102356
0.00749346
0.00476995
0.00238941
0.000710527
0
0
0
0
0
0
0
0
0
0
0
0
0
0
0
0
0
0
0
0
0
0
0
0
0
0
0
0
0
0
0
0
0
0
0
0
0
0
0
0
0
0
0
0
0
0
0
0
0.0558702
)
;
    }
    front
    {
        type            wedge;
    }
    back
    {
        type            wedge;
    }
}


// ************************************************************************* //
