/*--------------------------------*- C++ -*----------------------------------*\
| =========                 |                                                 |
| \\      /  F ield         | OpenFOAM: The Open Source CFD Toolbox           |
|  \\    /   O peration     | Version:  4.1                                   |
|   \\  /    A nd           | Web:      www.OpenFOAM.org                      |
|    \\/     M anipulation  |                                                 |
\*---------------------------------------------------------------------------*/
FoamFile
{
    version     2.0;
    format      ascii;
    class       pointVectorField;
    location    "0.0063";
    object      pointDisplacement_Next;
}
// * * * * * * * * * * * * * * * * * * * * * * * * * * * * * * * * * * * * * //

dimensions      [0 1 0 0 0 0 0];

internalField   uniform (0 0 0);

boundaryField
{
    inlet
    {
        type            fixedValue;
        value           nonuniform 0();
    }
    outlet
    {
        type            fixedValue;
        value           nonuniform 0();
    }
    mantle
    {
        type            fixedValue;
        value           nonuniform List<vector> 
416
(
(9.6376e-06 1.1984e-06 6.52e-10)
(9.23e-06 -9.7261e-06 7.7848e-10)
(9.2751e-06 -9.5405e-06 1.8375e-06)
(9.6927e-06 1.1689e-06 -3.0235e-07)
(9.3338e-06 -9.0635e-06 3.7235e-06)
(9.7537e-06 9.886e-07 -4.5679e-07)
(9.331e-06 -8.3505e-06 5.6118e-06)
(9.7256e-06 6.444e-07 -4.0023e-07)
(9.3097e-06 -7.2312e-06 7.2306e-06)
(9.6838e-06 3.824e-07 -3.8278e-07)
(9.3307e-06 -5.612e-06 8.3496e-06)
(9.7253e-06 4.0012e-07 -6.4522e-07)
(9.3332e-06 -3.7237e-06 9.0624e-06)
(9.7533e-06 4.5671e-07 -9.8967e-07)
(9.2744e-06 -1.8377e-06 9.5395e-06)
(9.6922e-06 3.0217e-07 -1.1697e-06)
(9.2292e-06 -1.0164e-09 9.7257e-06)
(9.637e-06 -8.1693e-10 -1.1985e-06)
(8.6068e-06 -2.1692e-05 6.5288e-10)
(8.6434e-06 -2.1256e-05 4.1876e-06)
(8.6992e-06 -2.0047e-05 8.3026e-06)
(8.7115e-06 -1.8177e-05 1.219e-05)
(8.7062e-06 -1.5564e-05 1.5563e-05)
(8.711e-06 -1.219e-05 1.8176e-05)
(8.6984e-06 -8.3028e-06 2.0046e-05)
(8.6424e-06 -4.1879e-06 2.1254e-05)
(8.6058e-06 -9.1366e-10 2.1691e-05)
(7.5298e-06 -3.398e-05 3.5112e-10)
(7.5783e-06 -3.3288e-05 6.5912e-06)
(7.6445e-06 -3.1334e-05 1.2986e-05)
(7.6397e-06 -2.8271e-05 1.8937e-05)
(7.617e-06 -2.4121e-05 2.412e-05)
(7.6391e-06 -1.8937e-05 2.827e-05)
(7.6435e-06 -1.2986e-05 3.1333e-05)
(7.577e-06 -6.5914e-06 3.3287e-05)
(7.5285e-06 -5.8851e-10 3.398e-05)
(5.8224e-06 -4.615e-05 6.1332e-10)
(5.884e-06 -4.5194e-05 8.9561e-06)
(5.9626e-06 -4.2493e-05 1.7603e-05)
(5.9371e-06 -3.8263e-05 2.5608e-05)
(5.8958e-06 -3.26e-05 3.26e-05)
(5.9365e-06 -2.5608e-05 3.8263e-05)
(5.9615e-06 -1.7603e-05 4.2492e-05)
(5.8826e-06 -8.9562e-06 4.5193e-05)
(5.8209e-06 -8.0565e-10 4.6149e-05)
(3.4043e-06 -5.7945e-05 1.0661e-09)
(3.446e-06 -5.6772e-05 1.127e-05)
(3.5041e-06 -5.3376e-05 2.2103e-05)
(3.5044e-06 -4.7997e-05 3.2087e-05)
(3.4871e-06 -4.0825e-05 4.0826e-05)
(3.5038e-06 -3.2086e-05 4.7997e-05)
(3.5031e-06 -2.2103e-05 5.3376e-05)
(3.4446e-06 -1.127e-05 5.6772e-05)
(3.4028e-06 -1.2038e-09 5.7945e-05)
(2.8113e-07 -6.9334e-05 5.3777e-10)
(3.0523e-07 -6.7934e-05 1.3502e-05)
(3.5351e-07 -6.3852e-05 2.6446e-05)
(3.6866e-07 -5.7375e-05 3.8347e-05)
(3.7632e-07 -4.8768e-05 4.8768e-05)
(3.6821e-07 -3.8347e-05 5.7375e-05)
(3.5267e-07 -2.6446e-05 6.3853e-05)
(3.0412e-07 -1.3502e-05 6.7935e-05)
(2.7987e-07 -5.712e-10 6.9335e-05)
(-3.3905e-06 -8.0233e-05 9.3635e-10)
(-3.3471e-06 -7.8595e-05 1.5632e-05)
(-3.2887e-06 -7.3844e-05 3.0614e-05)
(-3.2884e-06 -6.6315e-05 4.4345e-05)
(-3.3068e-06 -5.6366e-05 5.6366e-05)
(-3.2887e-06 -4.4345e-05 6.6315e-05)
(-3.2893e-06 -3.0614e-05 7.3845e-05)
(-3.3479e-06 -1.5632e-05 7.8597e-05)
(-3.3914e-06 -7.9821e-10 8.0234e-05)
(-7.2571e-06 -9.0279e-05 4.4106e-10)
(-7.1952e-06 -8.8408e-05 1.7575e-05)
(-7.1284e-06 -8.301e-05 3.4427e-05)
(-7.1534e-06 -7.4544e-05 4.9868e-05)
(-7.1976e-06 -6.3369e-05 6.3369e-05)
(-7.1536e-06 -4.9868e-05 7.4545e-05)
(-7.1287e-06 -3.4428e-05 8.3012e-05)
(-7.1956e-06 -1.7575e-05 8.841e-05)
(-7.2576e-06 -1.6955e-10 9.0281e-05)
(-1.1011e-05 -9.8751e-05 1.5332e-10)
(-1.0971e-05 -9.6641e-05 1.9158e-05)
(-1.0929e-05 -9.0682e-05 3.7567e-05)
(-1.0949e-05 -8.1462e-05 5.4505e-05)
(-1.098e-05 -6.9311e-05 6.9312e-05)
(-1.0949e-05 -5.4505e-05 8.1463e-05)
(-1.0929e-05 -3.7567e-05 9.0684e-05)
(-1.0971e-05 -1.9158e-05 9.6643e-05)
(-1.1012e-05 1.2555e-10 9.8753e-05)
(-1.4681e-05 -0.00010446 1.4508e-10)
(-1.4667e-05 -0.00010215 2.0214e-05)
(-1.4649e-05 -9.5817e-05 3.9672e-05)
(-1.4668e-05 -8.6105e-05 5.762e-05)
(-1.4679e-05 -7.3325e-05 7.3325e-05)
(-1.4668e-05 -5.762e-05 8.6106e-05)
(-1.4649e-05 -3.9672e-05 9.5819e-05)
(-1.4667e-05 -2.0214e-05 0.00010216)
(-1.4681e-05 6.9698e-11 0.00010446)
(-1.8409e-05 -0.00010643 -8.0193e-11)
(-1.8412e-05 -0.00010417 2.0654e-05)
(-1.8419e-05 -9.7777e-05 4.0504e-05)
(-1.8431e-05 -8.7842e-05 5.8769e-05)
(-1.8437e-05 -7.4737e-05 7.4737e-05)
(-1.8431e-05 -5.8769e-05 8.7842e-05)
(-1.8419e-05 -4.0504e-05 9.7778e-05)
(-1.8412e-05 -2.0654e-05 0.00010417)
(-1.8409e-05 2.2842e-10 0.00010643)
(-2.2344e-05 -0.00010534 -6.7688e-11)
(-2.2361e-05 -0.00010318 2.0509e-05)
(-2.2385e-05 -9.692e-05 4.0187e-05)
(-2.2399e-05 -8.7055e-05 5.823e-05)
(-2.2398e-05 -7.4008e-05 7.4008e-05)
(-2.2399e-05 -5.823e-05 8.7055e-05)
(-2.2385e-05 -4.0187e-05 9.6919e-05)
(-2.2361e-05 -2.0509e-05 0.00010318)
(-2.2344e-05 1.6575e-10 0.00010534)
(9.2743e-06 1.8361e-06 9.5405e-06)
(9.6922e-06 -3.0356e-07 -1.1687e-06)
(9.3331e-06 3.7226e-06 9.0639e-06)
(9.7532e-06 -4.576e-07 -9.8813e-07)
(9.3307e-06 5.6113e-06 8.351e-06)
(9.7254e-06 -4.006e-07 -6.4376e-07)
(9.3098e-06 7.2306e-06 7.2316e-06)
(9.684e-06 -3.8265e-07 -3.8172e-07)
(9.3311e-06 8.35e-06 5.6125e-06)
(9.7259e-06 -6.4454e-07 -3.9949e-07)
(9.334e-06 9.0631e-06 3.724e-06)
(9.7541e-06 -9.8856e-07 -4.563e-07)
(9.2755e-06 9.5404e-06 1.8377e-06)
(9.6933e-06 -1.1684e-06 -3.0215e-07)
(9.2304e-06 9.7266e-06 5.9726e-10)
(9.6381e-06 -1.1975e-06 4.62e-10)
(8.6424e-06 4.1862e-06 2.1255e-05)
(8.6983e-06 8.3015e-06 2.0047e-05)
(8.7109e-06 1.2189e-05 1.8177e-05)
(8.7061e-06 1.5563e-05 1.5564e-05)
(8.7113e-06 1.8176e-05 1.219e-05)
(8.6991e-06 2.0046e-05 8.303e-06)
(8.6434e-06 2.1255e-05 4.1878e-06)
(8.607e-06 2.1692e-05 5.0138e-10)
(7.577e-06 6.5898e-06 3.3288e-05)
(7.6434e-06 1.2985e-05 3.1334e-05)
(7.6389e-06 1.8936e-05 2.8272e-05)
(7.6166e-06 2.412e-05 2.4122e-05)
(7.6392e-06 2.827e-05 1.8937e-05)
(7.6441e-06 3.1333e-05 1.2986e-05)
(7.5779e-06 3.3287e-05 6.5914e-06)
(7.5296e-06 3.398e-05 2.3713e-10)
(5.8826e-06 8.9548e-06 4.5194e-05)
(5.9613e-06 1.7602e-05 4.2493e-05)
(5.9361e-06 2.5607e-05 3.8264e-05)
(5.8953e-06 3.2599e-05 3.2601e-05)
(5.9364e-06 3.8262e-05 2.5609e-05)
(5.9619e-06 4.2492e-05 1.7604e-05)
(5.8833e-06 4.5193e-05 8.9563e-06)
(5.8218e-06 4.6149e-05 5.4906e-10)
(3.4445e-06 1.1269e-05 5.6773e-05)
(3.5029e-06 2.2102e-05 5.3377e-05)
(3.5035e-06 3.2086e-05 4.7998e-05)
(3.4865e-06 4.0825e-05 4.0827e-05)
(3.5037e-06 4.7996e-05 3.2087e-05)
(3.5033e-06 5.3376e-05 2.2103e-05)
(3.4451e-06 5.6772e-05 1.127e-05)
(3.4036e-06 5.7944e-05 1.0388e-09)
(3.0404e-07 1.3501e-05 6.7935e-05)
(3.5248e-07 2.6446e-05 6.3853e-05)
(3.6784e-07 3.8347e-05 5.7376e-05)
(3.7578e-07 4.8768e-05 4.8769e-05)
(3.6796e-07 5.7374e-05 3.8348e-05)
(3.5272e-07 6.3852e-05 2.6447e-05)
(3.0442e-07 6.7934e-05 1.3502e-05)
(2.8039e-07 6.9334e-05 5.3128e-10)
(-3.348e-06 1.5631e-05 7.8597e-05)
(-3.2894e-06 3.0613e-05 7.3845e-05)
(-3.289e-06 4.4345e-05 6.6316e-05)
(-3.3072e-06 5.6366e-05 5.6367e-05)
(-3.289e-06 6.6314e-05 4.4346e-05)
(-3.2894e-06 7.3844e-05 3.0614e-05)
(-3.3478e-06 7.8595e-05 1.5632e-05)
(-3.3912e-06 8.0233e-05 9.5927e-10)
(-7.1957e-06 1.7575e-05 8.841e-05)
(-7.1289e-06 3.4427e-05 8.3012e-05)
(-7.1538e-06 4.9868e-05 7.4545e-05)
(-7.198e-06 6.3368e-05 6.3369e-05)
(-7.1539e-06 7.4544e-05 4.9869e-05)
(-7.129e-06 8.301e-05 3.4428e-05)
(-7.1958e-06 8.8408e-05 1.7575e-05)
(-7.2577e-06 9.0279e-05 4.8533e-10)
(-1.0972e-05 1.9158e-05 9.6643e-05)
(-1.0929e-05 3.7567e-05 9.0684e-05)
(-1.095e-05 5.4505e-05 8.1463e-05)
(-1.0981e-05 6.9311e-05 6.9312e-05)
(-1.095e-05 8.1462e-05 5.4505e-05)
(-1.093e-05 9.0682e-05 3.7567e-05)
(-1.0972e-05 9.6641e-05 1.9158e-05)
(-1.1012e-05 9.8751e-05 2.5573e-10)
(-1.4668e-05 2.0214e-05 0.00010216)
(-1.4649e-05 3.9672e-05 9.5819e-05)
(-1.4668e-05 5.762e-05 8.6106e-05)
(-1.4679e-05 7.3325e-05 7.3325e-05)
(-1.4669e-05 8.6105e-05 5.762e-05)
(-1.4649e-05 9.5817e-05 3.9672e-05)
(-1.4668e-05 0.00010215 2.0214e-05)
(-1.4682e-05 0.00010446 2.7255e-10)
(-1.8412e-05 2.0654e-05 0.00010417)
(-1.8419e-05 4.0505e-05 9.7777e-05)
(-1.8431e-05 5.8769e-05 8.7842e-05)
(-1.8437e-05 7.4737e-05 7.4736e-05)
(-1.8431e-05 8.7842e-05 5.8769e-05)
(-1.842e-05 9.7777e-05 4.0504e-05)
(-1.8412e-05 0.00010417 2.0654e-05)
(-1.841e-05 0.00010643 2.0734e-10)
(-2.2361e-05 2.0509e-05 0.00010318)
(-2.2385e-05 4.0187e-05 9.6919e-05)
(-2.2399e-05 5.823e-05 8.7054e-05)
(-2.2398e-05 7.4008e-05 7.4008e-05)
(-2.2399e-05 8.7055e-05 5.823e-05)
(-2.2385e-05 9.692e-05 4.0187e-05)
(-2.2362e-05 0.00010318 2.0509e-05)
(-2.2344e-05 0.00010534 -5.9303e-11)
(9.2756e-06 9.5411e-06 -1.8368e-06)
(9.6933e-06 -1.168e-06 3.0301e-07)
(9.3343e-06 9.0644e-06 -3.7235e-06)
(9.7543e-06 -9.8781e-07 4.5696e-07)
(9.3316e-06 8.3515e-06 -5.6126e-06)
(9.7263e-06 -6.4359e-07 3.9984e-07)
(9.3105e-06 7.2322e-06 -7.2321e-06)
(9.6846e-06 -3.8162e-07 3.8172e-07)
(9.3316e-06 5.6127e-06 -8.3519e-06)
(9.7263e-06 -3.9962e-07 6.4345e-07)
(9.3342e-06 3.7237e-06 -9.0651e-06)
(9.7543e-06 -4.5677e-07 9.8751e-07)
(9.2756e-06 1.8368e-06 -9.5419e-06)
(9.6933e-06 -3.0299e-07 1.1678e-06)
(9.2304e-06 -5.8048e-10 -9.7271e-06)
(9.6381e-06 -5.837e-10 1.1977e-06)
(8.6437e-06 2.1256e-05 -4.187e-06)
(8.6995e-06 2.0048e-05 -8.3027e-06)
(8.7119e-06 1.8178e-05 -1.2191e-05)
(8.7069e-06 1.5565e-05 -1.5565e-05)
(8.7119e-06 1.2191e-05 -1.8178e-05)
(8.6995e-06 8.3028e-06 -2.0049e-05)
(8.6437e-06 4.1869e-06 -2.1257e-05)
(8.6071e-06 -7.8359e-10 -2.1693e-05)
(7.5782e-06 3.3288e-05 -6.5905e-06)
(7.6446e-06 3.1335e-05 -1.2986e-05)
(7.6401e-06 2.8272e-05 -1.8938e-05)
(7.6177e-06 2.4122e-05 -2.4123e-05)
(7.6401e-06 1.8938e-05 -2.8273e-05)
(7.6447e-06 1.2986e-05 -3.1336e-05)
(7.5784e-06 6.5906e-06 -3.329e-05)
(7.5299e-06 -1.0688e-09 -3.3981e-05)
(5.8837e-06 4.5194e-05 -8.9554e-06)
(5.9625e-06 4.2493e-05 -1.7603e-05)
(5.9374e-06 3.8264e-05 -2.5609e-05)
(5.8964e-06 3.2601e-05 -3.2602e-05)
(5.9374e-06 2.5609e-05 -3.8265e-05)
(5.9627e-06 1.7603e-05 -4.2495e-05)
(5.884e-06 8.9555e-06 -4.5196e-05)
(5.8223e-06 -7.3715e-10 -4.6151e-05)
(3.4455e-06 5.6772e-05 -1.1269e-05)
(3.504e-06 5.3377e-05 -2.2103e-05)
(3.5046e-06 4.7998e-05 -3.2087e-05)
(3.4877e-06 4.0827e-05 -4.0827e-05)
(3.5047e-06 3.2087e-05 -4.7999e-05)
(3.5042e-06 2.2103e-05 -5.3379e-05)
(3.4458e-06 1.1269e-05 -5.6775e-05)
(3.404e-06 -1.1706e-09 -5.7947e-05)
(3.0473e-07 6.7934e-05 -1.3501e-05)
(3.533e-07 6.3852e-05 -2.6446e-05)
(3.6877e-07 5.7375e-05 -3.8347e-05)
(3.7677e-07 4.8769e-05 -4.8769e-05)
(3.6895e-07 3.8348e-05 -5.7376e-05)
(3.5363e-07 2.6446e-05 -6.3854e-05)
(3.0517e-07 1.3501e-05 -6.7937e-05)
(2.8095e-07 -5.7073e-10 -6.9336e-05)
(-3.3476e-06 7.8595e-05 -1.5631e-05)
(-3.2889e-06 7.3844e-05 -3.0613e-05)
(-3.2884e-06 6.6315e-05 -4.4345e-05)
(-3.3065e-06 5.6367e-05 -5.6366e-05)
(-3.2881e-06 4.4345e-05 -6.6316e-05)
(-3.2884e-06 3.0614e-05 -7.3845e-05)
(-3.3468e-06 1.5632e-05 -7.8598e-05)
(-3.3903e-06 5.3049e-12 -8.0235e-05)
(-7.1956e-06 8.8408e-05 -1.7574e-05)
(-7.1287e-06 8.301e-05 -3.4427e-05)
(-7.1535e-06 7.4544e-05 -4.9868e-05)
(-7.1975e-06 6.3369e-05 -6.3369e-05)
(-7.1531e-06 4.9868e-05 -7.4544e-05)
(-7.1279e-06 3.4427e-05 -8.3011e-05)
(-7.1946e-06 1.7575e-05 -8.8409e-05)
(-7.2565e-06 -2.8448e-10 -9.028e-05)
(-1.0972e-05 9.664e-05 -1.9157e-05)
(-1.0929e-05 9.0682e-05 -3.7566e-05)
(-1.0949e-05 8.1461e-05 -5.4504e-05)
(-1.098e-05 6.9311e-05 -6.9311e-05)
(-1.0949e-05 5.4505e-05 -8.1461e-05)
(-1.0929e-05 3.7566e-05 -9.0682e-05)
(-1.0971e-05 1.9158e-05 -9.664e-05)
(-1.1011e-05 -2.3205e-11 -9.875e-05)
(-1.4668e-05 0.00010215 -2.0213e-05)
(-1.4649e-05 9.5817e-05 -3.9671e-05)
(-1.4668e-05 8.6105e-05 -5.762e-05)
(-1.4679e-05 7.3324e-05 -7.3324e-05)
(-1.4668e-05 5.762e-05 -8.6104e-05)
(-1.4648e-05 3.9671e-05 -9.5815e-05)
(-1.4667e-05 2.0213e-05 -0.00010215)
(-1.4681e-05 -6.9182e-11 -0.00010446)
(-1.8412e-05 0.00010417 -2.0654e-05)
(-1.8419e-05 9.7777e-05 -4.0504e-05)
(-1.8431e-05 8.7841e-05 -5.8768e-05)
(-1.8436e-05 7.4735e-05 -7.4735e-05)
(-1.843e-05 5.8768e-05 -8.7839e-05)
(-1.8419e-05 4.0504e-05 -9.7774e-05)
(-1.8411e-05 2.0653e-05 -0.00010417)
(-1.8409e-05 1.7594e-10 -0.00010642)
(-2.2362e-05 0.00010318 -2.0509e-05)
(-2.2385e-05 9.6919e-05 -4.0187e-05)
(-2.2399e-05 8.7054e-05 -5.8229e-05)
(-2.2397e-05 7.4007e-05 -7.4006e-05)
(-2.2398e-05 5.8228e-05 -8.7052e-05)
(-2.2385e-05 4.0186e-05 -9.6917e-05)
(-2.2361e-05 2.0508e-05 -0.00010317)
(-2.2344e-05 1.8367e-10 -0.00010534)
(9.2756e-06 -1.8379e-06 -9.5405e-06)
(9.6932e-06 3.0207e-07 1.1691e-06)
(9.3342e-06 -3.7241e-06 -9.0627e-06)
(9.7542e-06 4.5645e-07 9.8976e-07)
(9.3315e-06 -5.6123e-06 -8.3491e-06)
(9.7261e-06 3.9997e-07 6.4598e-07)
(9.3103e-06 -7.2311e-06 -7.2297e-06)
(9.6844e-06 3.8255e-07 3.8403e-07)
(9.3314e-06 -8.3503e-06 -5.6105e-06)
(9.7259e-06 6.4486e-07 4.0172e-07)
(9.3339e-06 -9.0632e-06 -3.7221e-06)
(9.7538e-06 9.8918e-07 4.5828e-07)
(9.2752e-06 -9.5402e-06 -1.8361e-06)
(9.6928e-06 1.1693e-06 3.0372e-07)
(8.6437e-06 -4.1882e-06 -2.1256e-05)
(8.6995e-06 -8.3033e-06 -2.0047e-05)
(8.7119e-06 -1.219e-05 -1.8176e-05)
(8.7068e-06 -1.5564e-05 -1.5562e-05)
(8.7118e-06 -1.8177e-05 -1.2189e-05)
(8.6993e-06 -2.0047e-05 -8.3013e-06)
(8.6434e-06 -2.1256e-05 -4.1863e-06)
(7.5784e-06 -6.5919e-06 -3.3288e-05)
(7.6447e-06 -1.2987e-05 -3.1334e-05)
(7.64e-06 -1.8938e-05 -2.8271e-05)
(7.6176e-06 -2.4122e-05 -2.412e-05)
(7.64e-06 -2.8272e-05 -1.8936e-05)
(7.6446e-06 -3.1335e-05 -1.2985e-05)
(7.5783e-06 -3.3288e-05 -6.59e-06)
(5.884e-06 -8.9568e-06 -4.5195e-05)
(5.9627e-06 -1.7604e-05 -4.2493e-05)
(5.9374e-06 -2.5609e-05 -3.8263e-05)
(5.8963e-06 -3.2601e-05 -3.26e-05)
(5.9373e-06 -3.8264e-05 -2.5608e-05)
(5.9627e-06 -4.2494e-05 -1.7602e-05)
(5.884e-06 -4.5195e-05 -8.955e-06)
(3.4458e-06 -1.127e-05 -5.6774e-05)
(3.5042e-06 -2.2104e-05 -5.3378e-05)
(3.5047e-06 -3.2088e-05 -4.7998e-05)
(3.4877e-06 -4.0827e-05 -4.0826e-05)
(3.5047e-06 -4.7998e-05 -3.2086e-05)
(3.5043e-06 -5.3378e-05 -2.2102e-05)
(3.446e-06 -5.6773e-05 -1.1269e-05)
(3.0518e-07 -1.3502e-05 -6.7936e-05)
(3.5367e-07 -2.6447e-05 -6.3854e-05)
(3.6903e-07 -3.8349e-05 -5.7376e-05)
(3.7694e-07 -4.8769e-05 -4.8769e-05)
(3.6905e-07 -5.7376e-05 -3.8347e-05)
(3.5373e-07 -6.3853e-05 -2.6446e-05)
(3.0532e-07 -6.7935e-05 -1.3501e-05)
(-3.3468e-06 -1.5632e-05 -7.8597e-05)
(-3.2883e-06 -3.0614e-05 -7.3845e-05)
(-3.2879e-06 -4.4346e-05 -6.6316e-05)
(-3.3061e-06 -5.6367e-05 -5.6366e-05)
(-3.288e-06 -6.6316e-05 -4.4345e-05)
(-3.2884e-06 -7.3845e-05 -3.0613e-05)
(-3.347e-06 -7.8596e-05 -1.5631e-05)
(-7.1946e-06 -1.7575e-05 -8.8409e-05)
(-7.1278e-06 -3.4428e-05 -8.3011e-05)
(-7.1528e-06 -4.9868e-05 -7.4544e-05)
(-7.197e-06 -6.3369e-05 -6.3369e-05)
(-7.1529e-06 -7.4545e-05 -4.9868e-05)
(-7.1281e-06 -8.3011e-05 -3.4427e-05)
(-7.195e-06 -8.8409e-05 -1.7574e-05)
(-1.0971e-05 -1.9158e-05 -9.664e-05)
(-1.0928e-05 -3.7566e-05 -9.0682e-05)
(-1.0949e-05 -5.4505e-05 -8.1461e-05)
(-1.098e-05 -6.9311e-05 -6.9311e-05)
(-1.0949e-05 -8.1462e-05 -5.4505e-05)
(-1.0929e-05 -9.0683e-05 -3.7566e-05)
(-1.0971e-05 -9.6641e-05 -1.9158e-05)
(-1.4667e-05 -2.0213e-05 -0.00010215)
(-1.4648e-05 -3.9671e-05 -9.5816e-05)
(-1.4668e-05 -5.762e-05 -8.6104e-05)
(-1.4678e-05 -7.3324e-05 -7.3324e-05)
(-1.4668e-05 -8.6105e-05 -5.762e-05)
(-1.4648e-05 -9.5817e-05 -3.9671e-05)
(-1.4667e-05 -0.00010215 -2.0213e-05)
(-1.8411e-05 -2.0653e-05 -0.00010417)
(-1.8419e-05 -4.0503e-05 -9.7775e-05)
(-1.843e-05 -5.8768e-05 -8.784e-05)
(-1.8436e-05 -7.4736e-05 -7.4735e-05)
(-1.843e-05 -8.7841e-05 -5.8768e-05)
(-1.8419e-05 -9.7777e-05 -4.0504e-05)
(-1.8412e-05 -0.00010417 -2.0654e-05)
(-2.2361e-05 -2.0508e-05 -0.00010317)
(-2.2385e-05 -4.0186e-05 -9.6917e-05)
(-2.2399e-05 -5.8228e-05 -8.7053e-05)
(-2.2397e-05 -7.4007e-05 -7.4007e-05)
(-2.2399e-05 -8.7054e-05 -5.8229e-05)
(-2.2385e-05 -9.6919e-05 -4.0187e-05)
(-2.2361e-05 -0.00010318 -2.0509e-05)
)
;
    }
    procBoundary1to0
    {
        type            processor;
    }
    procBoundary1to2
    {
        type            processor;
    }
}


// ************************************************************************* //
