/*--------------------------------*- C++ -*----------------------------------*\
  =========                 |
  \\      /  F ield         | OpenFOAM: The Open Source CFD Toolbox
   \\    /   O peration     | Website:  https://openfoam.org
    \\  /    A nd           | Version:  8
     \\/     M anipulation  |
\*---------------------------------------------------------------------------*/
FoamFile
{
    version     2.0;
    format      ascii;
    class       surfaceVectorField;
    location    "0.0455000";
    object      Uf_0;
}
// * * * * * * * * * * * * * * * * * * * * * * * * * * * * * * * * * * * * * //

dimensions      [0 1 -1 0 0 0 0];

internalField   nonuniform List<vector> 
1094
(
(0.62297561659823 0.000522654723442151 -6.52064087626301e-18)
(0.389232662331165 0.00172591277745023 -2.71202180474736e-18)
(0.623271598402879 0.000374290492698587 -7.68657152864029e-18)
(0.391229114628679 0.00185982797064245 -7.41402045850551e-18)
(0.623470752367551 0.000362506553096613 -8.32658956529105e-19)
(0.391450911133874 0.00195174429024992 -4.27493765379153e-18)
(0.623485431348915 0.000394618650252624 1.0735042063044e-18)
(0.391513698381758 0.00209506156080759 3.45822746330664e-18)
(0.623386936888769 0.000412744648004478 -1.11513698731924e-17)
(0.39134346947567 0.00218350729941014 -1.10217696178214e-19)
(0.623237461219899 0.000422714056612616 3.72048041901297e-18)
(0.39104437738979 0.00222761758247664 -1.55357963219551e-17)
(0.623070665698168 0.000428862813069167 2.48528257642222e-17)
(0.390695623789341 0.00224989802762962 1.67230684893624e-17)
(0.622898507172942 0.000433128897201131 1.41478054739113e-17)
(0.390330339362381 0.00226212934324031 3.73932340818556e-17)
(0.622722917545932 0.000437244060231115 9.3273215695152e-19)
(0.389957924985614 0.00227140439615107 1.19603128268674e-17)
(0.622543284210229 0.000441723171851272 1.09654912004035e-18)
(0.389578314459026 0.00228084064553615 -1.37906293050142e-17)
(0.62236109220155 0.000446096268354541 2.86079048448204e-17)
(0.389192639701122 0.0022908528609136 1.3577665785533e-17)
(0.622174351964801 0.000450056702762992 2.95993836537613e-17)
(0.388800672918068 0.00230029944023309 6.81809063565192e-17)
(0.621982259719065 0.000453657941994316 9.27587800744899e-18)
(0.38840044075515 0.00230937800481636 2.51382601668246e-18)
(0.621785481785951 0.000457133179361267 1.55398887913671e-17)
(0.387991411021178 0.00231807702848552 1.64122023070358e-17)
(0.621585997763318 0.000460618951632147 5.3767659970253e-17)
(0.387575138208279 0.00232715680774479 3.53623156920453e-17)
(0.621381216231822 0.000464024306432241 4.82666601188638e-17)
(0.387151065208887 0.0023360708349039 1.03958370225589e-16)
(0.621170284538952 0.000467400978936693 3.10329307050756e-17)
(0.386716864679868 0.00234504801399494 1.19192240822046e-18)
(0.620953380568347 0.000471065438271956 4.37583019593279e-17)
(0.386272604407477 0.00235417326532427 2.62165732488446e-17)
(0.620731889466507 0.000474800260594367 -1.02657998394056e-17)
(0.385818987200612 0.00236430097648772 -3.98911019443559e-18)
(0.620503680878699 0.00047804290284504 -1.06456854192809e-16)
(0.385355166366057 0.0023738606219362 -1.18949046237184e-16)
(0.620269260623146 0.000481062113592264 -1.11638811236217e-16)
(0.384879800942336 0.00238289359653881 -1.68744260488925e-16)
(0.620028957561751 0.000484550767832203 -2.73534615623127e-17)
(0.384393726432175 0.00239222573987791 -1.25018656331431e-16)
(0.619783121068899 0.000488248366841218 2.6452566812969e-17)
(0.383896716474865 0.00240290763199415 3.19572951864236e-17)
(0.61952994863484 0.000491618419189488 4.32375427036377e-17)
(0.38338755695154 0.0024131558277798 8.15599382565094e-17)
(0.619269447955714 0.00049511103361491 1.68564442764844e-17)
(0.382865700710935 0.00242331586769518 9.61413676797506e-17)
(0.619001558925886 0.000499158654150824 7.311232099846e-18)
(0.382330696285925 0.00243436353406039 1.15723603973281e-16)
(0.618726552823134 0.000503306040898811 1.53084426890608e-17)
(0.381782525318007 0.00244653833512524 6.35050448067786e-17)
(0.618442942269365 0.000507101412824732 1.00231019776221e-17)
(0.381220218299366 0.00245831597770611 2.99201353061712e-18)
(0.618151286714321 0.000511095590436199 3.15254294086835e-17)
(0.380642759311973 0.00246997600323843 2.91474600259214e-17)
(0.617852198851996 0.00051584671696626 2.69724848296699e-17)
(0.380051225186332 0.00248289065525491 9.97025720974242e-17)
(0.617545311482965 0.000520642532409138 -3.40503908843166e-17)
(0.379444875528941 0.00249725508648879 1.95312197813162e-17)
(0.617229971459089 0.00052499396113851 -1.1327875033131e-16)
(0.378822346825957 0.0025108670889831 -1.47574816084524e-16)
(0.616907226064472 0.00053005338639454 -1.76017105561145e-16)
(0.378184319644704 0.00252460050263403 -3.01786939034047e-16)
(0.616577936419468 0.00053648309604197 -1.67472696291616e-16)
(0.377531326899991 0.00254102474006692 -2.72477672478199e-16)
(0.616240126626228 0.000543456448441316 -9.72436310185577e-17)
(0.376862743649189 0.0025594912217366 -2.62524442860038e-16)
(0.615890863131684 0.000550747356701107 -2.73012255085858e-17)
(0.37617596442447 0.00257823653366466 -1.18084930366424e-16)
(0.615530107524694 0.000559434584042915 6.11742398259325e-17)
(0.3754699648644 0.00259832978926849 5.96557825919377e-18)
(0.615163694686663 0.00056914141775548 6.11694623319882e-17)
(0.374746758533866 0.00262219498758279 2.4782039445905e-16)
(0.614792441557449 0.000578720754619517 -1.15546374468788e-17)
(0.374009735435994 0.00264639322174273 6.55218199743472e-18)
(0.614413968361198 0.000589276473048038 7.18549238735361e-17)
(0.373257811173149 0.00267084420203956 -7.39603525008163e-17)
(0.614026357855187 0.000603421329689385 7.47819568161797e-17)
(0.372489078949406 0.00269870264109495 1.36886754145521e-16)
(0.613638234832018 0.000619933949289159 -9.28873907655272e-18)
(0.371707057777082 0.00273516313526785 -6.08034673759415e-17)
(0.613248104945332 0.000636219866680562 -1.54181430335312e-17)
(0.370915918297885 0.00277151123578086 1.06163508552521e-17)
(0.612855262318059 0.000654463058834548 -3.83279264691206e-17)
(0.370114655985803 0.00280856598163993 -6.85290221962502e-17)
(0.612458051251659 0.000680084943028634 -7.38247680369711e-18)
(0.369304382038869 0.00285169134161856 -8.94208557017953e-17)
(0.612073141761165 0.000709678246506421 2.8976312458428e-17)
(0.36849367528499 0.00291284428949006 5.83057281826298e-17)
(0.611692157520977 0.000737998547696423 9.58127822162953e-17)
(0.367687402615467 0.00296969841125571 5.21539088038831e-17)
(0.611319271508422 0.000770355936961089 1.07673352573655e-16)
(0.366885633802368 0.00302825263061977 2.29400622373847e-16)
(0.610959200933582 0.000815166420796119 4.35696014609903e-17)
(0.366097122982295 0.00309859962046653 1.04505285917817e-16)
(0.610637695209206 0.000866038510266951 1.47559441770425e-17)
(0.365340456302019 0.00319731268299213 6.59969035181123e-17)
(0.610342979875917 0.000915530273002178 -2.70485459722991e-17)
(0.364623942734237 0.00328820363373529 -4.0942858371505e-18)
(0.610085158243468 0.000974561869295561 -1.24709824219548e-17)
(0.363954144614137 0.00338382107046023 -1.06984920387976e-16)
(0.609880512293227 0.00105319004449378 -2.52311157187033e-17)
(0.363354700100054 0.0035054101872586 5.88290771317366e-17)
(0.609759638737458 0.0011386307667299 -1.64498977439654e-17)
(0.362854638822285 0.00366341142780715 -1.58833141911511e-16)
(0.609717196163703 0.00122289159811381 -5.48251942419809e-17)
(0.362470929709862 0.00380797068334746 9.44655478561447e-17)
(0.609772301192807 0.00132830376046332 -8.00475102091524e-17)
(0.362233090825361 0.00396306981432864 -1.52265998407599e-16)
(0.609966169797726 0.00146452202554947 -6.42470764891029e-17)
(0.36218739838787 0.00417387378222775 -1.12255261282136e-17)
(0.610341475801215 0.00160556782190292 -3.47380470200144e-17)
(0.362389923319967 0.00442557099629537 -9.37658493162893e-17)
(0.610914450990308 0.00174729864623797 4.7980267015544e-17)
(0.362882008600082 0.00465302311730573 1.00722562679148e-16)
(0.61174996467009 0.00194978803841491 6.86466658506288e-17)
(0.363754652742054 0.00490804214170078 -4.44421465814819e-17)
(0.613061761408124 0.00225155500435542 -1.14570869992948e-16)
(0.365180879439841 0.00532477565486778 -8.30708024256372e-17)
(0.615130262201815 0.00261548495377729 -1.78232300283489e-16)
(0.367478407338971 0.00588948640463055 -5.11679118490036e-16)
(0.618229981567224 0.00304744642237789 1.77926640264133e-16)
(0.370962993439232 0.00650378310994292 -8.78793535204859e-17)
(0.622535231923055 0.00372493922278116 1.73148487094146e-16)
(0.376166637552198 0.00728301848153968 4.34631619089549e-16)
(0.628484076547399 0.00450286955173931 -5.74696431365197e-17)
(0.383522422536373 0.00863572231497824 1.78460898190198e-17)
(0.635865796101857 0.00512825132775469 -6.56803448243421e-17)
(0.393194948539537 0.00970463699561471 -1.34834191075956e-16)
(0.644743087026742 0.00570543547805708 -3.84633942183817e-17)
(0.405398653756477 0.010567988795301 -1.269750517481e-16)
(0.65516428042307 0.00633453399281605 -2.13935789795897e-17)
(0.420272552649386 0.0114435324933811 -2.68647331519393e-17)
(0.667356430440582 0.00680263144954351 -8.1802553964523e-17)
(0.437903066457243 0.0123940236800481 -5.61615011692751e-17)
(0.681093089443617 0.00699731667097626 -6.84662370304606e-17)
(0.458258725065959 0.0127165503171386 -1.66282701004403e-16)
(0.696376905849334 0.00711217118869019 6.81633493831445e-17)
(0.481396011444232 0.0127829656460537 -7.9306698575096e-18)
(0.713186196582916 0.00709629762817331 7.85783694878203e-17)
(0.507025123626198 0.0127716263207783 2.79159372158291e-16)
(0.731323309639125 0.0068422476527177 1.08703164698328e-16)
(0.534969249784805 0.012362245994508 3.32362161463075e-17)
(0.750583730636612 0.00641923598231386 2.15702294056933e-16)
(0.564999797355892 0.0115684104529586 2.9660413960221e-16)
(0.770833838270685 0.00587515748527657 1.21711195500563e-16)
(0.596766239219533 0.0105803467935427 4.66504206066636e-16)
(0.791917477799825 0.00519507505719762 -1.07788733614075e-16)
(0.629957744752969 0.00935774020377895 2.45259206585743e-17)
(0.813671043717016 0.00443092067162213 -1.09666311688537e-16)
(0.66437594760074 0.00791602195358307 -2.68056451660238e-16)
(0.836033554898258 0.00361705297291927 1.26282318657857e-17)
(0.699810566270932 0.00640446235911691 1.32943863620475e-17)
(0.858923531240147 0.00275028007155824 8.32496381064433e-17)
(0.736031213756171 0.004782089199084 3.67973167643607e-17)
(0.882332996994117 0.00191772939599805 6.85992924237596e-17)
(0.773123418530618 0.00309623372600509 2.05289778865338e-16)
(0.906399641519385 0.00115178090211394 1.36299440138793e-17)
(0.811003993861301 0.00157123842486213 6.74654063175148e-17)
(0.931417350845894 0.000463092882011255 3.2742396323007e-17)
(0.85031398943259 0.000101789433133879 -1.15018757577835e-17)
(0.957233032704049 -0.000156606054979371 -1.51799456439935e-17)
(0.89027930896237 -0.00125651319024613 -2.17314559170047e-17)
(0.985048927913844 -0.000559820221537881 -2.49811432880953e-17)
(0.934107614480727 -0.00247021397379894 -1.19855332586766e-16)
(1.01393477031146 -0.000947097505903896 -1.35451692408649e-17)
(0.976566447758032 -0.00321040447305317 1.7822083311299e-17)
(1.0442603423186 -0.000280691903990741 -3.10971814757221e-17)
(1.03194030302147 -0.00385472204988507 1.60426141015298e-19)
(1.04394068984239 0.000146410140664271 -1.91138840801551e-17)
(1.05457439619231 -0.000244670413622284 -5.27342297707979e-17)
(1.04652797110102 0.000139982896619918 -7.16130633675099e-18)
(1.04847596702514 -0.000395993066370278 -2.30527981944976e-17)
(1.04725928293227 0.000266248932147623 -3.50881710005945e-17)
(1.05313371383916 -6.28559709876201e-05 -4.89403814040411e-18)
(1.0479491909149 0.000325050907259846 -2.22987659546503e-17)
(1.0518188107523 7.74741088562928e-05 -1.34734176915244e-16)
(1.04799656575614 0.000329619421466885 3.38978378327489e-18)
(1.05211871143122 0.000194874228339357 1.14474466587143e-17)
(1.04784206125713 0.000344123983415221 9.97509266409365e-18)
(1.05112398930645 0.000250013537444076 -3.24249795684512e-17)
(1.04733879833677 0.000349080173411221 6.47672252155678e-19)
(1.0501906330821 0.000314686222876888 7.18295598476559e-17)
(1.04665348083469 0.000332905702574977 -2.43892294442301e-17)
(1.04880073259264 0.000340205234281186 -6.87894639445679e-17)
(1.04584257534284 0.000315931714380195 -1.35265702173901e-17)
(1.0473472937565 0.000351638329113392 -2.87391990458122e-17)
(1.04494516202035 0.000291483835844205 -8.15663466787622e-18)
(1.04573908012706 0.00035493586492047 -2.50460762005172e-17)
(1.04400686011817 0.000261441597938979 1.51779911668259e-17)
(1.0440994062065 0.000343011929923416 -7.35410058118172e-18)
(1.04301944094632 0.000255894654644245 1.62149071888984e-17)
(1.04241443520327 0.000328921376602289 5.9831358157993e-17)
(1.04191633983706 0.000298583421056817 -2.79534526919948e-19)
(1.04082967801503 0.00032052922954204 4.32265171182046e-18)
(1.0391234060199 0.000225971594161011 2.2698827267566e-18)
(0.154810467859628 0.00333098940390376 -3.59505554928951e-18)
(0.00110286042443107 0.00507546107991248 -4.02226810658412e-18)
(0.156006741140106 0.00382610747039916 -3.97082955120922e-18)
(0.0040986704849051 0.0055807176038429 -5.63292245509828e-18)
(0.156416784088305 0.00417696436815025 3.79043013355142e-20)
(0.00433990980839174 0.00625528768530892 -2.83024928971625e-18)
(0.156315364899531 0.00442393921869819 2.2749642828962e-18)
(0.00424295279752037 0.00676736597607874 4.31883821910529e-18)
(0.155954329593578 0.00455716548557756 -4.4838755522919e-18)
(0.00382757445737182 0.00704214060517228 5.52760749426608e-18)
(0.1554804972984 0.00462152444653419 -2.50384352951203e-18)
(0.00325010660704297 0.00716931489472043 -1.19874720562204e-17)
(0.154962605727129 0.00465376124219205 2.93373950644968e-17)
(0.00260969485641453 0.00722736714431773 -1.11741031921012e-17)
(0.154426057098856 0.00467350934600249 3.52836705184731e-17)
(0.00194467414891172 0.00725745474217895 3.91027498713328e-17)
(0.153878222258388 0.00469006290516522 -2.84450897591687e-18)
(0.00126578638606663 0.00727870200363718 2.03049830074829e-17)
(0.153321027025355 0.00470664636565611 -1.26203333616674e-18)
(0.000575260153666204 0.00729872532296028 -3.38457122240498e-18)
(0.152754988149806 0.00472331661221949 5.34290468066246e-17)
(-0.000125841184253408 0.00731914354972024 2.41169556666752e-17)
(0.152178550789017 0.00473961835219061 4.10119936609171e-17)
(-0.000838059582262184 0.00733943856667752 8.92934683803163e-17)
(0.151590477037025 0.00475558711977062 9.68535035984165e-18)
(-0.00156312699550393 0.00735946829499323 1.1317333649844e-17)
(0.150990530054553 0.00477157782188848 3.64041173382161e-17)
(-0.00230197571115202 0.00737936160367874 3.04579738645867e-17)
(0.150379124734627 0.00478772642204576 8.5908510386414e-17)
(-0.00305430706942869 0.00739956751473038 5.53471454398981e-17)
(0.149754872177106 0.00480392350939328 5.66802382349184e-17)
(-0.00382068095084543 0.00741995200997998 9.01730321823632e-17)
(0.149116656496724 0.00482034829533814 -3.76229913838766e-18)
(-0.00460272748995484 0.00744052807750323 -4.3607929393953e-17)
(0.148464267138567 0.00483743730427149 -2.19811761244639e-17)
(-0.00540103386017124 0.00746160103022256 -1.41777055836121e-17)
(0.147798226416669 0.00485481635277517 -1.13547773771736e-16)
(-0.00621528237648161 0.00748360592480038 -7.02100377527081e-17)
(0.147116965012154 0.0048717442817998 -1.81784572884819e-16)
(-0.00704616633150404 0.00750546442388334 -1.83447819057696e-16)
(0.146419411173998 0.00488865990076611 -1.82397097717958e-16)
(-0.00789546599640005 0.00752694846194535 -1.93722097367948e-16)
(0.145705456638527 0.00490651982013995 -6.54943390792736e-17)
(-0.00876369861391738 0.0075490547492117 -1.94812829056976e-16)
(0.144975388530859 0.00492498602011563 8.75265829649014e-17)
(-0.00965076219377955 0.0075725512597036 1.72063949277237e-17)
(0.144227484760233 0.00494337042683978 1.34989157290145e-16)
(-0.0105575688578758 0.00759613253567995 9.35728606392006e-17)
(0.143460634363439 0.00496233053896378 1.95998549328701e-16)
(-0.0114856907046097 0.00761989998081584 1.09305131386364e-16)
(0.14267475434167 0.00498249252487838 1.72620489603591e-16)
(-0.0124358639729114 0.00764491765667622 2.51064195809611e-16)
(0.141869758782143 0.00500320308456342 5.11958350497298e-17)
(-0.0134080003823849 0.00767128396251454 1.27468558095432e-16)
(0.141043916453811 0.00502384196578768 2.22547585503384e-17)
(-0.0144032123858293 0.00769774869349254 1.29109546012797e-16)
(0.140196262502975 0.00504527464166806 9.78642204233502e-17)
(-0.0154233953148016 0.00772445405206998 1.90240946587208e-16)
(0.139327062760903 0.00506831898266303 9.23361920873552e-17)
(-0.0164687096906393 0.00775283337387439 2.33223692722393e-16)
(0.138436158775809 0.00509193638283959 -9.48034419434211e-17)
(-0.017539118155983 0.00778299173323763 5.95298850941336e-17)
(0.1375216072577 0.00511549172458564 -3.3763393295501e-16)
(-0.0186361838287348 0.00781296276185927 -2.93569117355693e-16)
(0.136582730077199 0.00514083956017674 -3.99197260098479e-16)
(-0.0197615668530933 0.00784360308891107 -5.04573558881216e-16)
(0.135620595853211 0.00516905947783527 -3.68422864195209e-16)
(-0.0209150279162772 0.00787749652798088 -3.98833664695353e-16)
(0.13463442665374 0.00519891169628821 -2.83731109406397e-16)
(-0.0220959255552582 0.00791418349490406 -5.43160079543496e-16)
(0.133621568354137 0.00523007548520478 -8.46532827585836e-17)
(-0.0233063228488829 0.00795193539308693 -2.31193388280286e-16)
(0.132581977138718 0.00526436036632616 1.94033939866347e-16)
(-0.0245480178477106 0.00799196225222195 -1.0211627149669e-17)
(0.131519529441989 0.00530120974015376 1.92923010870662e-16)
(-0.0258188583529572 0.00803621027963709 3.31133691682385e-16)
(0.130433800177689 0.00533878377154521 -5.63342769937967e-17)
(-0.0271166026528467 0.00808172091436717 -1.46394003965413e-17)
(0.129322194039746 0.00537896589711878 -8.49095010543936e-18)
(-0.0284438455088271 0.00812820297001147 4.23779898320859e-17)
(0.128186004512819 0.00542632419927036 2.52139356708055e-19)
(-0.0298021829063417 0.00817982712024306 9.95218396097776e-17)
(0.127033563625231 0.00547890735531294 -4.07529352139141e-17)
(-0.0311850238831119 0.00824071605572741 -1.61125754380522e-16)
(0.125863920992979 0.00553238600478186 -4.2913704858403e-17)
(-0.0325874479449099 0.00830317027456094 -6.74066622844035e-17)
(0.124675379702352 0.0055905457270478 -1.20026152975972e-16)
(-0.0340128485401286 0.0083668985901044 -1.44382387520138e-16)
(0.123473677228462 0.00566296060059509 -2.31905206149995e-17)
(-0.0354603739038332 0.00843995960089333 -9.43525868233515e-17)
(0.122277882687391 0.00574373088794862 8.16573688147418e-17)
(-0.036912452840447 0.00853155981324936 3.1887024112323e-17)
(0.12108381082389 0.00582373185395106 1.86836883744398e-16)
(-0.0383599737430738 0.00862166068138837 8.17900557377113e-17)
(0.119893785105643 0.00591238394550401 2.26120223989381e-16)
(-0.0398083959476403 0.00871337098827371 2.88743524378757e-16)
(0.118725331236217 0.00602486898949854 1.27061136387408e-16)
(-0.0412483550917206 0.00882178665350746 1.98505678333011e-16)
(0.11761307081922 0.00614975770202767 4.694023486094e-17)
(-0.0426432786530019 0.00895956701895749 1.36077723384339e-16)
(0.116554032063656 0.00627368840668808 -8.47115082690486e-17)
(-0.0439756379198948 0.0090928832250228 -4.43279191854413e-18)
(0.115561652755495 0.00641635882576017 -3.49664253972969e-17)
(-0.045247936359407 0.00923106916812256 -2.36840976205278e-16)
(0.114678624352824 0.00659612274469428 -7.60094404875474e-17)
(-0.0464277600707978 0.00940178755762121 1.4904709946301e-16)
(0.113959124593253 0.00678949662536383 -4.67492838433836e-17)
(-0.0474483053549125 0.00961091005224511 -3.52990959115553e-16)
(0.113409431464623 0.00698171123395705 -4.07868187141821e-18)
(-0.0482796756749104 0.00980841975676145 2.22213663367912e-16)
(0.113069453690056 0.00721364399621685 -8.27115395360178e-17)
(-0.0489093634987781 0.0100181480369119 -1.27371571761583e-17)
(0.113038426912411 0.00750291209083556 -4.11137507892872e-17)
(-0.0492532503155646 0.0102921566801277 -7.217350187213e-18)
(0.113406441969178 0.00780090988594894 4.29978554272902e-17)
(-0.0491815947842845 0.0106095544185337 -5.33068259707245e-17)
(0.114208415396739 0.00810049358996355 7.35736089900935e-18)
(-0.0486417845335771 0.0108994795432212 7.82442158227826e-17)
(0.115579969572096 0.00851500146584048 -1.97223176257828e-16)
(-0.0475788864160965 0.0112261645688454 -9.49100758457311e-17)
(0.117888789641103 0.00911734809128895 -4.83855181759501e-16)
(-0.0457212734134216 0.0117403031921846 -4.18325921301661e-16)
(0.121567268830721 0.00983646556405023 -4.19684567278515e-16)
(-0.0425694492300823 0.0124262512765017 -6.69656252389797e-16)
(0.127012481640639 0.0106849908854502 1.71843872870645e-16)
(-0.0377273513972998 0.0131629936903909 -5.51049685392061e-17)
(0.13483009256097 0.0119842850531534 2.7741884179861e-16)
(-0.030727108566527 0.014140301117563 5.33561745954188e-16)
(0.14605985008525 0.0134457235445883 -6.03194504055443e-17)
(-0.0203642310921663 0.0156997775740501 2.76493484242253e-17)
(0.160700839787546 0.014581795855531 -1.96572733871062e-16)
(-0.00597693987652964 0.0169484280994671 -1.59875467075181e-16)
(0.178826929477811 0.015579422918116 -1.15175021365347e-16)
(0.0122801981164037 0.0178763114622286 -1.45415742165756e-16)
(0.200811797881426 0.0166164047334099 -6.1915938297841e-17)
(0.0346639342731752 0.0187944405533019 -4.97150903630998e-17)
(0.227060088948999 0.0172803903280357 -1.41287623588394e-16)
(0.0619012078448848 0.0196757572779608 -1.09630273471193e-16)
(0.25703251656027 0.0173656656893944 -1.05236884860134e-16)
(0.09379361571042 0.019791888930323 -2.34873447369017e-16)
(0.290573829767574 0.0172301305967289 2.04456946313429e-16)
(0.129754883371574 0.0195162192135301 -2.13582840570609e-17)
(0.327696082575557 0.0167785351108851 2.33382534755437e-16)
(0.169843280646808 0.0190634195387746 3.71206633728162e-16)
(0.367927758530147 0.0158152338536833 2.2210773962306e-16)
(0.213869560913004 0.0180791241924275 5.31322315985934e-17)
(0.410720391487329 0.0144776884185664 5.48170054733258e-16)
(0.261097243307158 0.0165800147848237 3.95794427800695e-16)
(0.455738083294846 0.0128624540839949 3.68087952753536e-16)
(0.311017823860637 0.0147868795679749 7.53774175635751e-16)
(0.502587088919527 0.0109532853814962 -1.36599091043865e-16)
(0.36325587988533 0.0126714298235317 4.83574819462334e-17)
(0.550883066271711 0.0088570951046549 -1.44141710505469e-16)
(0.417300763623396 0.0102715807688517 -2.67224896711155e-16)
(0.600443689047678 0.00664244661046854 3.74698582860588e-17)
(0.47286110176776 0.00775134526203822 3.13103852735115e-17)
(0.651046573304162 0.00431548019507977 1.59196477376184e-16)
(0.529655342044806 0.00508047371690653 6.99504522638783e-17)
(0.70263531352982 0.00204745594378351 2.02870630056033e-16)
(0.587534716774162 0.00233889931566957 2.36777937027992e-16)
(0.755601434878478 -0.000103624816648407 4.18372078093298e-17)
(0.646425536626251 -0.000224696468342411 2.186983001064e-16)
(0.81029593808731 -0.00213587381901276 -6.52685916973936e-17)
(0.707585822796593 -0.00274489759731365 -1.05985158188607e-16)
(0.867091544402363 -0.00403550972068481 -1.26159559686575e-16)
(0.769467405441106 -0.00511334202874356 -4.26223987618838e-17)
(0.927211925597389 -0.00554455250501116 -7.54423688730115e-17)
(0.83708397665196 -0.00735479879687593 -1.63958092018325e-16)
(0.991646462716921 -0.00661322051655566 3.0847924042252e-17)
(0.902408213343114 -0.00895986038641915 3.73025397068343e-17)
(1.05299618405888 -0.00339713811925292 -2.18004803638504e-17)
(0.98796553872674 -0.00980197248121564 1.8034777479554e-18)
(1.05516822407006 -0.000359856074428386 -5.62794300637072e-17)
(1.02257028840133 -0.000385578285784061 -1.0472059890748e-16)
(1.05659831729751 -0.000205492820279343 -2.06496451232629e-17)
(1.01174473962028 -0.000502708928024512 -4.54366964783429e-17)
(1.05676638493705 8.22490911424783e-05 -1.03969206732134e-16)
(1.01777900878925 -8.74827355697806e-05 -8.01453682907268e-18)
(1.05619472204082 0.000258449209893417 -1.00153356104125e-16)
(1.01480884199705 8.73757664611971e-05 -2.01320899248131e-16)
(1.05501866494383 0.000327179024875271 -2.42047637200694e-17)
(1.01460466501402 0.000237124189735886 -8.8142017669563e-18)
(1.05346071583654 0.000400816244314956 2.9432209464041e-17)
(1.01243314446801 0.000308629730271203 -6.6210984843618e-17)
(1.0515819950444 0.000452952470987851 2.16498817002401e-18)
(1.01055971571878 0.000387318193548279 1.4455217742451e-16)
(1.04947807602467 0.00046644760620132 -7.27604894487632e-17)
(1.0081325421774 0.000420933323823199 -1.05545820677311e-16)
(1.04722802828673 0.000472754032824267 -4.00867176749084e-17)
(1.00565666347797 0.00043574235194956 -4.02285124081827e-17)
(1.04489203429488 0.00046432112307061 -2.41196698535311e-17)
(1.00299870962488 0.000439377149735756 -3.30085314812289e-17)
(1.04253344626927 0.000445471917047802 3.7284420864023e-17)
(1.00033985860329 0.000425553545178787 -2.98569820207153e-17)
(1.04022291838481 0.000461788227944002 4.76861619807273e-17)
(0.997636216699568 0.000407740173625881 7.99502984296516e-17)
(1.03816552984821 0.000513128809443295 6.84828593633428e-18)
(0.995220935607918 0.000390386019270897 7.17951180859766e-18)
(0.993058107757347 0.000263520825580348 4.50463445166104e-18)
(-0.150966986445826 0.00741155167860854 -6.07954118331753e-18)
(-0.225074375741842 0.00828651859616607 -7.44176495179344e-18)
(-0.149827977584416 0.00818225710034507 -4.48970149245164e-18)
(-0.22331758967965 0.0091034033919803 -8.17477133667416e-18)
(-0.149715937052581 0.00908236067121622 1.47510650831897e-18)
(-0.223696255989959 0.0105239038863476 -3.84559623393151e-18)
(-0.150129006767906 0.00963630986906132 7.60753823492427e-18)
(-0.224259519586297 0.0114073004915751 7.38598173299058e-18)
(-0.150767463996244 0.0099102243025255 -1.99901430319421e-18)
(-0.224972759230779 0.0118388305852557 2.19435164639686e-17)
(-0.151498797641089 0.0100348828642401 -2.0768201176791e-17)
(-0.225758644793338 0.0120305065453697 7.19723230345481e-18)
(-0.152268935118208 0.0100939680963631 -1.48326767863828e-18)
(-0.226573705902497 0.0121162983435453 -1.40258477988707e-17)
(-0.153058848682761 0.010128438035543 2.40133566896587e-17)
(-0.227404426051996 0.0121610772972888 2.32987812608947e-17)
(-0.153863039429092 0.0101559104555726 1.98456363190271e-17)
(-0.228248457043415 0.0121928903144028 2.67324698009575e-17)
(-0.154679902218743 0.0101825123905604 2.21969657839327e-17)
(-0.229105493311189 0.0122222692150166 3.16730865526171e-17)
(-0.155509302733742 0.0102092993707189 6.01746750992108e-17)
(-0.229975233021317 0.0122519147596253 1.88527865548236e-17)
(-0.156352357701302 0.01023605418673 5.95193698697514e-17)
(-0.230858214536532 0.0122817752460596 7.70651372040267e-17)
(-0.15721030996085 0.0102627651863079 3.22654821161038e-17)
(-0.231755685507047 0.0123117106649627 2.81512116499494e-17)
(-0.15808378123547 0.0102896932154145 4.95363917858265e-17)
(-0.232668601499193 0.0123417953841283 4.22091090698283e-17)
(-0.158973089818625 0.010316967897934 5.955085412327e-17)
(-0.233597315526713 0.0123723270557746 7.25889351122235e-17)
(-0.159879213094046 0.0103445412755974 -1.08256031619368e-17)
(-0.234542444032781 0.012403237258712 5.07404631081321e-17)
(-0.160803220152551 0.0103725827688238 -5.42242108142975e-17)
(-0.235505118648001 0.0124345571968296 -6.31697752892523e-17)
(-0.161745519338594 0.0104014315996861 -6.27722167583882e-17)
(-0.236486060891078 0.0124665330430569 -2.24122409027455e-17)
(-0.162706235364345 0.0104307831747124 -1.40551757838939e-16)
(-0.237485395250938 0.012499438372223 -3.55654269409224e-17)
(-0.163686680275833 0.0104600563144354 -1.95485019095014e-16)
(-0.238503823720819 0.0125325406578442 -1.19110490713208e-16)
(-0.16468830886521 0.0104896203237927 -2.0626530100311e-16)
(-0.23954295235823 0.0125656832458838 -2.20916402636831e-16)
(-0.165711580845411 0.0105202798473013 -1.11769355011718e-16)
(-0.240603746585342 0.012599605036237 -2.46915078317821e-16)
(-0.166756632750579 0.0105518027431145 2.31372692449277e-17)
(-0.241686355820365 0.0126348587278113 -3.53491105846237e-17)
(-0.167824938517038 0.0105836602379281 6.75943364720882e-17)
(-0.242791577219965 0.0126705747272901 4.57594974267642e-17)
(-0.168917873825707 0.0106163951837964 1.64621601379653e-16)
(-0.243920985079795 0.0127068207124672 8.43563237965303e-17)
(-0.170035783913932 0.0106505434108004 2.05714236251011e-16)
(-0.245075455130419 0.0127443833216369 2.99628325424599e-16)
(-0.171179113141637 0.0106855822658398 2.06136670396347e-16)
(-0.246255157287545 0.0127833445360462 1.53844296249607e-16)
(-0.172349564841915 0.0107210144313458 2.98598976735651e-16)
(-0.247461182056859 0.0128228238389265 2.40938203683417e-16)
(-0.173548602022398 0.0107575844634002 3.2681028861771e-16)
(-0.248695437767499 0.0128629320844109 3.58831678328617e-16)
(-0.174776399649122 0.0107960066634914 2.00379083393471e-16)
(-0.249958671708009 0.0129047517377338 2.79622278597023e-16)
(-0.176033390359712 0.0108354303604527 -1.40562380610077e-16)
(-0.251250936572887 0.0129483720304138 1.41900690192908e-16)
(-0.177321784267174 0.0108753666176296 -4.6174846484759e-16)
(-0.252573720947856 0.0129923796896766 -3.33731986401514e-16)
(-0.178642890337116 0.0109174501823273 -5.04331515678054e-16)
(-0.253929213875083 0.0130374413032613 -5.05961047210033e-16)
(-0.179995935367533 0.0109626910625835 -5.74957996545899e-16)
(-0.255317583935048 0.0130855382710855 -4.69739913453281e-16)
(-0.181381178946177 0.0110100789900782 -4.90456067034155e-16)
(-0.256738029774599 0.0131363864003959 -6.5611690262754e-16)
(-0.182800710705589 0.0110593692216138 -1.56291928898413e-16)
(-0.258191890812381 0.0131886916933059 -3.28464085992676e-16)
(-0.184254656927296 0.0111120699559074 1.27814370182366e-16)
(-0.25968077601572 0.0132433755155814 -4.82614165260877e-17)
(-0.185740607300279 0.0111677076819609 1.22036225276682e-16)
(-0.261203180850701 0.0133018740147696 2.87169258972101e-16)
(-0.18725941593234 0.0112247603886958 8.48543733055251e-17)