/*--------------------------------*- C++ -*----------------------------------*\
| =========                 |                                                 |
| \\      /  F ield         | foam-extend: Open Source CFD                    |
|  \\    /   O peration     | Version:     4.1-20200408                       |
|   \\  /    A nd           | Web:         http://www.foam-extend.org         |
|    \\/     M anipulation  |                                                 |
\*---------------------------------------------------------------------------*/
FoamFile
{
    version     2.0;
    format      ascii;
    class       volSymmTensorField;
    location    "0.0900000";
    object      sigmaCauchy;
}
// * * * * * * * * * * * * * * * * * * * * * * * * * * * * * * * * * * * * * //

dimensions      [1 -1 -2 0 0 0 0];

internalField   nonuniform List<symmTensor> 
1952
(
(-9.82654e+08 1.4396e+06 -5.47734 -4.04806e+08 -1.2813 -3.94586e+08)
(-9.43038e+08 614566 -3.69105 -3.98026e+08 3.01681 -3.70156e+08)
(-8.95422e+08 2.73631e+06 4.19331 -3.82864e+08 8.77603 -3.34609e+08)
(-8.28936e+08 1.59374e+06 11.5554 -3.68819e+08 -9.44574 -2.95127e+08)
(-7.45071e+08 4.02676e+06 -2.92899 -3.48911e+08 -23.8903 -2.4956e+08)
(-6.46547e+08 2.77578e+06 -15.6255 -3.30326e+08 2.53482 -2.00681e+08)
(-5.41152e+08 5.36414e+06 -4.09322 -3.06729e+08 36.3352 -1.48286e+08)
(-4.10474e+08 4.08576e+06 7.07599 -2.8492e+08 -3.75386 -9.1134e+07)
(-2.56237e+08 6.86461e+06 -1.15237 -2.5789e+08 -38.3051 -3.82827e+07)
(-5.50648e+07 5.68828e+06 -6.09316 -2.34628e+08 23.1374 3.37342e+07)
(1.66487e+08 8.65837e+06 2.07458 -2.02652e+08 42.6257 9.66182e+07)
(4.72286e+08 7.68502e+06 2.51483 -1.77561e+08 -23.8365 2.05787e+08)
(7.9899e+08 1.12062e+07 -0.235219 -1.36497e+08 -41.7983 2.94637e+08)
(1.06687e+09 1.09207e+07 -2.15805 -1.07604e+08 25.9037 4.64401e+08)
(1.21562e+09 1.59504e+07 -1.23623 -5.24837e+07 14.8942 5.71052e+08)
(-9.94777e+08 -1125.39 -1.18628 -4.12295e+08 3.08783 -4.0951e+08)
(-9.75252e+08 3.24725e+06 -10.9596 -3.9497e+08 -1.35456 -3.84594e+08)
(-9.35527e+08 1.78129e+06 -7.38338 -3.88038e+08 3.08806 -3.60266e+08)
(-8.87767e+08 6.28922e+06 8.39265 -3.73024e+08 9.12008 -3.24562e+08)
(-8.21147e+08 4.15487e+06 23.1142 -3.58996e+08 -9.48602 -2.85264e+08)
(-7.36977e+08 9.28363e+06 -5.86287 -3.39182e+08 -24.5016 -2.39531e+08)
(-6.38489e+08 6.89055e+06 -31.2753 -3.20779e+08 2.288 -1.90826e+08)
(-5.328e+08 1.22857e+07 -8.18716 -2.97292e+08 36.9978 -1.38319e+08)
(-4.01941e+08 9.74794e+06 14.14 -2.75861e+08 -3.48052 -8.14652e+07)
(-2.47255e+08 1.54136e+07 -2.3049 -2.49093e+08 -38.866 -2.85965e+07)
(-4.59533e+07 1.28897e+07 -12.1649 -2.26472e+08 23.1044 4.30358e+07)
(1.76005e+08 1.85105e+07 4.11208 -1.9504e+08 43.1057 1.05822e+08)
(4.82145e+08 1.56941e+07 4.9412 -1.71043e+08 -23.8494 2.14452e+08)
(8.09243e+08 2.11632e+07 -0.463582 -1.30934e+08 -42.2515 3.03039e+08)
(1.07718e+09 1.72736e+07 -3.88836 -1.04093e+08 25.8366 4.71868e+08)
(1.22679e+09 2.08159e+07 -2.07424 -5.04423e+07 15.0434 5.77968e+08)
(-9.87347e+08 137668 -2.37529 -4.02225e+08 3.30091 -3.9955e+08)
(-9.71805e+08 3.52301e+06 -10.9679 -3.90741e+08 -1.37747 -3.80295e+08)
(-9.32042e+08 2.17342e+06 -7.38547 -3.83797e+08 3.1282 -3.56024e+08)
(-8.84239e+08 6.89299e+06 8.4004 -3.68912e+08 9.25032 -3.20307e+08)
(-8.17587e+08 4.84637e+06 23.1218 -3.54968e+08 -9.55126 -2.81126e+08)
(-7.33312e+08 1.01966e+07 -5.86927 -3.35324e+08 -24.7355 -2.35413e+08)
(-6.34844e+08 7.86892e+06 -31.2914 -3.17096e+08 2.26216 -1.86872e+08)
(-5.29092e+08 1.34369e+07 -8.20143 -2.93848e+08 37.2729 -1.34416e+08)
(-3.98221e+08 1.08891e+07 14.1097 -2.727e+08 -3.40698 -7.7787e+07)
(-2.43417e+08 1.66887e+07 -2.30818 -2.4627e+08 -39.059 -2.50521e+07)
(-4.23475e+07 1.40675e+07 -12.1738 -2.24074e+08 23.1269 4.63374e+07)
(1.79409e+08 1.96746e+07 4.10359 -1.93129e+08 43.2648 1.08843e+08)
(4.85173e+08 1.66092e+07 4.93981 -1.69714e+08 -23.8463 2.17008e+08)
(8.11404e+08 2.19084e+07 -0.462464 -1.30235e+08 -42.3967 3.05113e+08)
(1.07755e+09 1.75962e+07 -3.88196 -1.04022e+08 25.7524 4.73124e+08)
(1.22412e+09 2.08824e+07 -2.09254 -5.07078e+07 15.0805 5.7816e+08)
(-9.83887e+08 235281 -2.37825 -3.97896e+08 3.3917 -3.95257e+08)
(-9.68527e+08 3.72387e+06 -10.9764 -3.8756e+08 -1.39149 -3.77077e+08)
(-9.28733e+08 2.44809e+06 -7.38759 -3.80643e+08 3.15666 -3.52836e+08)
(-8.80904e+08 7.32518e+06 8.40887 -3.65877e+08 9.33274 -3.17148e+08)
(-8.14211e+08 5.32908e+06 23.126 -3.52022e+08 -9.59934 -2.78046e+08)
(-7.29844e+08 1.08397e+07 -5.87684 -3.32564e+08 -24.8802 -2.32394e+08)
(-6.31489e+08 8.53196e+06 -31.3117 -3.14508e+08 2.2594 -1.83921e+08)
(-5.25744e+08 1.42035e+07 -8.21124 -2.91512e+08 37.4423 -1.31594e+08)
(-3.94888e+08 1.16264e+07 14.0963 -2.70614e+08 -3.38157 -7.5159e+07)
(-2.40075e+08 1.74683e+07 -2.31029 -2.44507e+08 -39.1733 -2.26176e+07)
(-3.92131e+07 1.47256e+07 -12.1993 -2.22649e+08 23.1564 4.85629e+07)
(1.82329e+08 2.02651e+07 4.09756 -1.92059e+08 43.3567 1.10836e+08)
(4.87785e+08 1.69547e+07 4.9462 -1.68999e+08 -23.8463 2.18678e+08)
(8.13394e+08 2.20626e+07 -0.46143 -1.29834e+08 -42.4721 3.06495e+08)
(1.07856e+09 1.7407e+07 -3.88259 -1.03852e+08 25.7066 4.74092e+08)
(1.22399e+09 2.0746e+07 -2.13155 -5.06423e+07 15.101 5.78707e+08)
(-9.80606e+08 301467 -2.3794 -3.9467e+08 3.45025 -3.92035e+08)
(-9.64813e+08 3.86356e+06 -10.9858 -3.84989e+08 -1.39996 -3.74478e+08)
(-9.25e+08 2.63943e+06 -7.39049 -3.78111e+08 3.17334 -3.50265e+08)
(-8.77153e+08 7.6139e+06 8.41771 -3.63446e+08 9.37986 -3.14612e+08)
(-8.1044e+08 5.65572e+06 23.1331 -3.49684e+08 -9.62601 -2.75582e+08)
(-7.26019e+08 1.12378e+07 -5.88443 -3.30394e+08 -24.9574 -2.30002e+08)
(-6.27742e+08 8.93274e+06 -31.3359 -3.12503e+08 2.25665 -1.81613e+08)
(-5.2202e+08 1.46428e+07 -8.22792 -2.89727e+08 37.5299 -1.29387e+08)
(-3.91229e+08 1.20239e+07 14.0684 -2.69059e+08 -3.36385 -7.31325e+07)
(-2.36437e+08 1.78446e+07 -2.31369 -2.43234e+08 -39.2207 -2.07663e+07)
(-3.5929e+07 1.49993e+07 -12.2153 -2.21664e+08 23.1643 5.02097e+07)
(1.85269e+08 2.04366e+07 4.09916 -1.91375e+08 43.3901 1.12235e+08)
(4.90291e+08 1.69619e+07 4.95298 -1.68585e+08 -23.8322 2.19771e+08)
(8.15093e+08 2.197e+07 -0.46065 -1.29684e+08 -42.4913 3.07264e+08)
(1.07907e+09 1.72061e+07 -3.89991 -1.03815e+08 25.6688 4.74475e+08)
(1.2231e+09 2.0633e+07 -2.16123 -5.06959e+07 15.105 5.78639e+08)
(-9.76891e+08 347433 -2.38098 -3.92067e+08 3.4838 -3.89433e+08)
(-9.61048e+08 3.94714e+06 -10.9956 -3.83075e+08 -1.40395 -3.72537e+08)
(-9.21222e+08 2.73594e+06 -7.39285 -3.76233e+08 3.17928 -3.48348e+08)
(-8.73362e+08 7.77358e+06 8.4261 -3.61661e+08 9.39722 -3.12724e+08)
(-8.06641e+08 5.81481e+06 23.1362 -3.47986e+08 -9.63164 -2.73759e+08)
(-7.22177e+08 1.14362e+07 -5.89216 -3.28851e+08 -24.9776 -2.28246e+08)
(-6.24058e+08 9.1089e+06 -31.3565 -3.11099e+08 2.25174 -1.79935e+08)
(-5.18415e+08 1.47994e+07 -8.24232 -2.88515e+08 37.5536 -1.27821e+08)
(-3.87711e+08 1.21193e+07 14.0551 -2.68033e+08 -3.35325 -7.1723e+07)
(-2.33013e+08 1.78699e+07 -2.31618 -2.42428e+08 -39.2173 -1.95254e+07)
(-3.28322e+07 1.49239e+07 -12.2502 -2.21065e+08 23.1583 5.1283e+07)
(1.88009e+08 2.02754e+07 4.10139 -1.90981e+08 43.3784 1.13114e+08)
(4.92649e+08 1.6685e+07 4.97454 -1.68355e+08 -23.8124 2.20428e+08)
(8.16746e+08 2.16408e+07 -0.459782 -1.29585e+08 -42.4729 3.07707e+08)
(1.07979e+09 1.68494e+07 -3.92172 -1.03772e+08 25.6465 4.74648e+08)
(1.22287e+09 2.04788e+07 -2.19189 -5.06934e+07 15.0987 5.78523e+08)
(-9.73128e+08 368613 -2.38393 -3.90127e+08 3.49545 -3.87491e+08)
(-9.57186e+08 3.97874e+06 -11.0052 -3.81656e+08 -1.40434 -3.71095e+08)
(-9.17361e+08 2.7498e+06 -7.39561 -3.7485e+08 3.17662 -3.46929e+08)
(-8.69502e+08 7.81048e+06 8.43482 -3.60355e+08 9.39104 -3.11334e+08)
(-8.02791e+08 5.822e+06 23.1427 -3.46758e+08 -9.62084 -2.72427e+08)
(-7.18314e+08 1.14363e+07 -5.89997 -3.27748e+08 -24.9533 -2.26977e+08)
(-6.20339e+08 9.06378e+06 -31.3803 -3.10115e+08 2.24664 -1.78739e+08)
(-5.14791e+08 1.47281e+07 -8.26051 -2.87683e+08 37.526 -1.26714e+08)
(-3.84216e+08 1.19805e+07 14.0345 -2.67347e+08 -3.34513 -7.07542e+07)
(-2.29611e+08 1.76724e+07 -2.31946 -2.41903e+08 -39.174 -1.8688e+07)
(-2.98095e+07 1.4643e+07 -12.2708 -2.20687e+08 23.1411 5.19887e+07)
(1.90657e+08 1.99203e+07 4.10873 -1.90743e+08 43.3346 1.13655e+08)
(4.94909e+08 1.62688e+07 4.98883 -1.6823e+08 -23.7889 2.20782e+08)
(8.18333e+08 2.12275e+07 -0.459146 -1.29546e+08 -42.4266 3.0789e+08)
(1.08053e+09 1.64995e+07 -3.93984 -1.03749e+08 25.6325 4.74616e+08)
(1.2228e+09 2.03324e+07 -2.21817 -5.0702e+07 15.0839 5.78253e+08)
(-9.69267e+08 368708 -2.38617 -3.88687e+08 3.49017 -3.86049e+08)
(-9.53344e+08 3.96728e+06 -11.0148 -3.80673e+08 -1.40179 -3.70093e+08)
(-9.13529e+08 2.69163e+06 -7.39791 -3.73894e+08 3.16668 -3.45948e+08)
(-8.65677e+08 7.7553e+06 8.44327 -3.59468e+08 9.36592 -3.10374e+08)
(-7.98993e+08 5.71388e+06 23.1454 -3.45923e+08 -9.59395 -2.71519e+08)
(-7.14507e+08 1.13125e+07 -5.90746 -3.27022e+08 -24.8934 -2.26117e+08)
(-6.16712e+08 8.87898e+06 -31.3974 -3.09464e+08 2.23754 -1.77928e+08)
(-5.11286e+08 1.4489e+07 -8.27738 -2.87157e+08 37.4635 -1.25982e+08)
(-3.80839e+08 1.16752e+07 14.0217 -2.66916e+08 -3.33397 -7.01359e+07)
(-2.26367e+08 1.72958e+07 -2.32216 -2.41602e+08 -39.1029 -1.81846e+07)
(-2.69228e+07 1.41959e+07 -12.3104 -2.20482e+08 23.1117 5.23976e+07)
(1.93189e+08 1.943e+07 4.11507 -1.90624e+08 43.2665 1.13944e+08)
(4.97125e+08 1.57544e+07 5.0122 -1.68165e+08 -23.7588 2.2094e+08)
(8.19969e+08 2.0768e+07 -0.458438 -1.2952e+08 -42.3594 3.07914e+08)
(1.08144e+09 1.61286e+07 -3.95848 -1.03722e+08 25.6283 4.74491e+08)
(1.22308e+09 2.01891e+07 -2.24144 -5.07028e+07 15.0633 5.7795e+08)
(-9.65425e+08 348976 -2.38769 -3.87687e+08 3.47088 -3.85046e+08)
(-9.49569e+08 3.92002e+06 -11.0245 -3.80014e+08 -1.39719 -3.69417e+08)
(-9.09768e+08 2.57687e+06 -7.39987 -3.73255e+08 3.15177 -3.4529e+08)
(-8.61927e+08 7.62251e+06 8.45163 -3.58884e+08 9.32781 -3.09734e+08)
(-7.95273e+08 5.50947e+06 23.1494 -3.45382e+08 -9.55773 -2.70922e+08)
(-7.10797e+08 1.10703e+07 -5.91502 -3.26567e+08 -24.8096 -2.25562e+08)
(-6.13185e+08 8.56148e+06 -31.4191 -3.09075e+08 2.22965 -1.77411e+08)
(-5.0788e+08 1.41247e+07 -8.29567 -2.8685e+08 37.3743 -1.25521e+08)
(-3.77579e+08 1.12415e+07 14.0051 -2.66685e+08 -3.32877 -6.9773e+07)
(-2.23219e+08 1.68089e+07 -2.32505 -2.41445e+08 -39.0124 -1.7906e+07)
(-2.41265e+07 1.36707e+07 -12.335 -2.20387e+08 23.075 5.25817e+07)
(1.95662e+08 1.88828e+07 4.12437 -1.9057e+08 43.1789 1.14038e+08)
(4.99325e+08 1.52158e+07 5.0328 -1.68146e+08 -23.7285 2.20937e+08)
(8.21648e+08 2.02981e+07 -0.457791 -1.29505e+08 -42.2786 3.07843e+08)
(1.08248e+09 1.57752e+07 -3.97031 -1.03715e+08 25.6282 4.74299e+08)
(1.22362e+09 2.00531e+07 -2.26162 -5.06921e+07 15.0385 5.77636e+08)
(-9.61648e+08 314158 -2.38987 -3.87012e+08 3.44215 -3.84371e+08)
(-9.45899e+08 3.84615e+06 -11.0337 -3.79613e+08 -1.39104 -3.69003e+08)
(-9.06118e+08 2.41764e+06 -7.4016 -3.72869e+08 3.1334 -3.44891e+08)
(-8.58292e+08 7.43144e+06 8.45914 -3.58544e+08 9.28031 -3.09347e+08)
(-7.91682e+08 5.23353e+06 23.1504 -3.45071e+08 -9.51453 -2.70575e+08)
(-7.07215e+08 1.07496e+07 -5.92197 -3.26323e+08 -24.7088 -2.25243e+08)
(-6.09788e+08 8.17353e+06 -31.4335 -3.08867e+08 2.21718 -1.7714e+08)
(-5.04611e+08 1.36769e+07 -8.31379 -2.86707e+08 37.2663 -1.25292e+08)
(-3.74443e+08 1.07384e+07 13.9912 -2.66585e+08 -3.31853 -6.96221e+07)
(-2.20186e+08 1.62598e+07 -2.32769 -2.41389e+08 -38.9065 -1.78126e+07)
(-2.1415e+07 1.30943e+07 -12.368 -2.20367e+08 23.0387 5.26363e+07)
(1.98077e+08 1.83052e+07 4.13086 -1.90564e+08 43.083 1.14025e+08)
(5.01526e+08 1.46687e+07 5.05336 -1.68162e+08 -23.701 2.20857e+08)
(8.23412e+08 1.9837e+07 -0.457077 -1.29504e+08 -42.1901 3.07731e+08)
(1.0837e+09 1.54399e+07 -3.97979 -1.03712e+08 25.6335 4.74101e+08)
(1.22443e+09 1.99305e+07 -2.27857 -5.06802e+07 15.011 5.77345e+08)
(-9.57975e+08 267082 -2.39215 -3.86599e+08 3.40651 -3.83957e+08)
(-9.42381e+08 3.74972e+06 -11.0423 -3.79428e+08 -1.3838 -3.68806e+08)
(-9.0262e+08 2.22341e+06 -7.40327 -3.7269e+08 3.11214 -3.44707e+08)
(-8.54809e+08 7.19391e+06 8.4663 -3.584e+08 9.22591 -3.09168e+08)
(-7.88235e+08 4.90377e+06 23.1509 -3.44938e+08 -9.46494 -2.70426e+08)
(-7.0377e+08 1.03739e+07 -5.92906 -3.26239e+08 -24.5955 -2.2511e+08)
(-6.0653e+08 7.72261e+06 -31.4471 -3.08796e+08 2.20677 -1.77012e+08)
(-5.01472e+08 1.31779e+07 -8.33138 -2.8668e+08 37.149 -1.25195e+08)
(-3.71425e+08 1.01935e+07 13.9749 -2.66573e+08 -3.30999 -6.9586e+07)
(-2.17251e+08 1.56834e+07 -2.33017 -2.41409e+08 -38.7946 -1.78188e+07)
(-1.8774e+07 1.25056e+07 -12.3968 -2.20401e+08 22.9996 5.26068e+07)
(2.00473e+08 1.77226e+07 4.13919 -1.90591e+08 42.9809 1.13959e+08)
(5.03755e+08 1.4136e+07 5.06867 -1.68191e+08 -23.6708 2.20744e+08)
(8.25257e+08 1.94022e+07 -0.456481 -1.29509e+08 -42.0957 3.07597e+08)
(1.08507e+09 1.51343e+07 -3.98178 -1.03708e+08 25.642 4.73913e+08)
(1.22549e+09 1.98169e+07 -2.29315 -5.0672e+07 14.9814 5.77084e+08)
(-9.54453e+08 210461 -2.39456 -3.86403e+08 3.36579 -3.83762e+08)
(-9.39029e+08 3.64253e+06 -11.05 -3.7937e+08 -1.37617 -3.68737e+08)
(-8.99287e+08 2.01145e+06 -7.40418 -3.7263e+08 3.08987 -3.44649e+08)
(-8.51488e+08 6.93792e+06 8.4727 -3.58371e+08 9.16955 -3.09109e+08)
(-7.8495e+08 4.55275e+06 23.148 -3.44904e+08 -9.41253 -2.70392e+08)
(-7.00485e+08 9.9746e+06 -5.93537 -3.2625e+08 -24.479 -2.25082e+08)
(-6.03415e+08 7.24924e+06 -31.458 -3.08806e+08 2.19376 -1.76987e+08)
(-4.98459e+08 1.26532e+07 -8.34921 -2.86717e+08 37.0299 -1.2518e+08)
(-3.68513e+08 9.62959e+06 13.9575 -2.66616e+08 -3.2987 -6.96201e+07)
(-2.144e+08 1.5089e+07 -2.33236 -2.41465e+08 -38.6806 -1.78784e+07)
(-1.61954e+07 1.1919e+07 -12.4288 -2.20463e+08 22.9557 5.25246e+07)
(2.02842e+08 1.71611e+07 4.14545 -1.90635e+08 42.8747 1.13855e+08)
(5.06023e+08 1.36296e+07 5.08742 -1.68232e+08 -23.6392 2.20615e+08)
(8.27207e+08 1.89979e+07 -0.455728 -1.29513e+08 -41.9989 3.07475e+08)
(1.08659e+09 1.48468e+07 -3.98533 -1.03718e+08 25.653 4.73754e+08)
(1.22676e+09 1.97155e+07 -2.30511 -5.06568e+07 14.951 5.7688e+08)
(-9.51098e+08 148579 -2.39632 -3.86336e+08 3.32345 -3.83696e+08)
(-9.3586e+08 3.52524e+06 -11.0578 -3.79403e+08 -1.36844 -3.6876e+08)
(-8.96132e+08 1.78253e+06 -7.40453 -3.72658e+08 3.06754 -3.44676e+08)
(-8.48337e+08 6.65989e+06 8.47852 -3.58424e+08 9.11278 -3.0913e+08)
(-7.81826e+08 4.17345e+06 23.1439 -3.44952e+08 -9.36083 -2.70432e+08)
(-6.97348e+08 9.54428e+06 -5.94148 -3.26331e+08 -24.3621 -2.25123e+08)
(-6.00451e+08 6.75322e+06 -31.4672 -3.08884e+08 2.18035 -1.77038e+08)
(-4.95582e+08 1.2112e+07 -8.36657 -2.86809e+08 36.9089 -1.25232e+08)
(-3.65718e+08 9.05709e+06 13.9397 -2.66707e+08 -3.28847 -6.97117e+07)
(-2.11628e+08 1.44985e+07 -2.33446 -2.41544e+08 -38.5654 -1.79765e+07)
(-1.36438e+07 1.13441e+07 -12.4542 -2.20543e+08 22.9184 5.24321e+07)
(2.05224e+08 1.6618e+07 4.15158 -1.90681e+08 42.7702 1.13755e+08)
(5.08335e+08 1.31563e+07 5.1012 -1.68293e+08 -23.6144 2.20496e+08)
(8.29237e+08 1.86158e+07 -0.454993 -1.29524e+08 -41.9041 3.074e+08)
(1.08825e+09 1.45881e+07 -3.98277 -1.0374e+08 25.6632 4.73632e+08)
(1.22824e+09 1.96227e+07 -2.31555 -5.06351e+07 14.9203 5.76732e+08)
(-9.47927e+08 82233.7 -2.3978 -3.8636e+08 3.28068 -3.83721e+08)
(-9.32887e+08 3.40229e+06 -11.0644 -3.79507e+08 -1.36081 -3.68853e+08)
(-8.9317e+08 1.5435e+06 -7.40425 -3.72752e+08 3.04525 -3.44773e+08)
(-8.45376e+08 6.36855e+06 8.48377 -3.58539e+08 9.0568 -3.09217e+08)
(-7.78886e+08 3.78217e+06 23.1371 -3.45046e+08 -9.30822 -2.70532e+08)
(-6.94378e+08 9.10467e+06 -5.94731 -3.2645e+08 -24.247 -2.25209e+08)
(-5.97621e+08 6.25359e+06 -31.4705 -3.08974e+08 2.1659 -1.77111e+08)
(-4.92821e+08 1.15699e+07 -8.38377 -2.86917e+08 36.7935 -1.25297e+08)
(-3.63008e+08 8.50226e+06 13.9199 -2.66793e+08 -3.27235 -6.98032e+07)
(-2.08917e+08 1.39288e+07 -2.33631 -2.41633e+08 -38.454 -1.80658e+07)
(-1.11364e+07 1.07921e+07 -12.4872 -2.20626e+08 22.8804 5.23745e+07)
(2.07608e+08 1.60899e+07 4.1564 -1.90729e+08 42.6707 1.13708e+08)
(5.10695e+08 1.26983e+07 5.11198 -1.68343e+08 -23.587 2.20441e+08)
(8.31371e+08 1.82642e+07 -0.454284 -1.29533e+08 -41.8105 3.0736e+08)
(1.09006e+09 1.43555e+07 -3.97847 -1.03749e+08 25.6768 4.73572e+08)
(1.22989e+09 1.95425e+07 -2.32383 -5.06265e+07 14.8894 5.76637e+08)
(-9.44952e+08 12929.9 -2.40045 -3.86456e+08 3.23839 -3.83819e+08)
(-9.30115e+08 3.27666e+06 -11.0708 -3.79632e+08 -1.35365 -3.68966e+08)
(-8.90402e+08 1.3003e+06 -7.40396 -3.72859e+08 3.02376 -3.44885e+08)
(-8.42596e+08 6.07966e+06 8.48859 -3.58668e+08 9.00402 -3.09313e+08)
(-7.76108e+08 3.39422e+06 23.1277 -3.45144e+08 -9.25585 -2.70636e+08)
(-6.91553e+08 8.67532e+06 -5.95298 -3.26581e+08 -24.138 -2.25294e+08)
(-5.94935e+08 5.75382e+06 -31.4742 -3.09078e+08 2.15164 -1.7716e+08)
(-4.90171e+08 1.10303e+07 -8.40055 -2.8703e+08 36.688 -1.25327e+08)
(-3.60387e+08 7.94324e+06 13.8988 -2.66892e+08 -3.25696 -6.98602e+07)
(-2.06273e+08 1.33505e+07 -2.33782 -2.4173e+08 -38.3499 -1.812e+07)
(-8.65826e+06 1.02511e+07 -12.5178 -2.20723e+08 22.8332 5.23084e+07)
(2.1e+08 1.5588e+07 4.1618 -1.90786e+08 42.5689 1.13665e+08)
(5.13119e+08 1.2267e+07 5.12815 -1.68401e+08 -23.555 2.20402e+08)
(8.33602e+08 1.79338e+07 -0.45342 -1.29535e+08 -41.7182 3.0736e+08)
(1.09198e+09 1.41253e+07 -3.97229 -1.03775e+08 25.6897 4.73555e+08)
(1.23171e+09 1.94619e+07 -2.33183 -5.0611e+07 14.8591 5.76604e+08)
(-9.4218e+08 -57829.2 -2.40277 -3.86571e+08 3.1981 -3.83938e+08)
(-9.27546e+08 3.1517e+06 -11.0761 -3.79736e+08 -1.34734 -3.69057e+08)
(-8.87825e+08 1.05313e+06 -7.40245 -3.72949e+08 3.00447 -3.44973e+08)
(-8.39998e+08 5.78547e+06 8.49255 -3.58782e+08 8.95645 -3.09383e+08)
(-7.73503e+08 2.99473e+06 23.1156 -3.45241e+08 -9.20927 -2.70714e+08)
(-6.88896e+08 8.22053e+06 -5.95833 -3.26707e+08 -24.0385 -2.25356e+08)
(-5.92389e+08 5.24691e+06 -31.4766 -3.09191e+08 2.13497 -1.77233e+08)
(-4.87642e+08 1.04793e+07 -8.41857 -2.87142e+08 36.5865 -1.2537e+08)
(-3.57864e+08 7.38522e+06 13.878 -2.67003e+08 -3.24176 -6.99268e+07)
(-2.03673e+08 1.27801e+07 -2.33944 -2.41808e+08 -38.2486 -1.81599e+07)
(-6.18414e+06 9.73137e+06 -12.5427 -2.20807e+08 22.7967 5.22834e+07)
(2.12418e+08 1.51063e+07 4.16388 -1.90829e+08 42.4736 1.1366e+08)
(5.15589e+08 1.18637e+07 5.14415 -1.6847e+08 -23.5324 2.20399e+08)
(8.35915e+08 1.7617e+07 -0.452477 -1.29551e+08 -41.6324 3.07442e+08)
(1.09403e+09 1.39125e+07 -3.96654 -1.03816e+08 25.699 4.73608e+08)
(1.2337e+09 1.93976e+07 -2.33765 -5.05885e+07 14.8297 5.76652e+08)
(-9.39613e+08 -129643 -2.40368 -3.86666e+08 3.16159 -3.84035e+08)
(-9.2518e+08 3.01661e+06 -11.082 -3.79858e+08 -1.34138 -3.69165e+08)
(-8.85451e+08 790076 -7.40118 -3.73054e+08 2.98613 -3.45076e+08)
(-8.37592e+08 5.46864e+06 8.49639 -3.58907e+08 8.91155 -3.09465e+08)
(-7.71088e+08 2.5744e+06 23.1034 -3.45336e+08 -9.16352 -2.70801e+08)
(-6.86387e+08 7.75598e+06 -5.96379 -3.26827e+08 -23.9446 -2.2541e+08)
(-5.89974e+08 4.73825e+06 -31.4716 -3.0927e+08 2.11672 -1.7727e+08)
(-4.85218e+08 9.9308e+06 -8.43563 -2.87247e+08 36.4957 -1.2538e+08)
(-3.55409e+08 6.84287e+06 13.8559 -2.67082e+08 -3.21633 -6.99542e+07)
(-2.01116e+08 1.22316e+07 -2.34099 -2.41889e+08 -38.1539 -1.81586e+07)
(-3.72124e+06 9.20785e+06 -12.5742 -2.20894e+08 22.7604 5.23397e+07)
(2.14857e+08 1.46185e+07 4.16702 -1.90877e+08 42.3876 1.13748e+08)
(5.1812e+08 1.1449e+07 5.15108 -1.68541e+08 -23.5076 2.20491e+08)
(8.38315e+08 1.7303e+07 -0.451624 -1.29561e+08 -41.5508 3.07582e+08)
(1.0962e+09 1.37116e+07 -3.95906 -1.03848e+08 25.7121 4.7373e+08)
(1.23581e+09 1.933e+07 -2.3436 -5.0573e+07 14.801 5.7676e+08)
(-9.37251e+08 -205592 -2.40516 -3.8678e+08 3.12701 -3.84151e+08)
(-9.23047e+08 2.88682e+06 -11.0873 -3.79953e+08 -1.33651 -3.69242e+08)
(-8.83296e+08 529869 -7.39898 -3.73124e+08 2.96916 -3.4515e+08)
(-8.35391e+08 5.16663e+06 8.49993 -3.59009e+08 8.87269 -3.09513e+08)
(-7.6884e+08 2.1664e+06 23.0855 -3.45393e+08 -9.11761 -2.70851e+08)
(-6.84031e+08 7.30383e+06 -5.96947 -3.26926e+08 -23.8607 -2.25424e+08)
(-5.87685e+08 4.21884e+06 -31.467 -3.09335e+08 2.09978 -1.7723e+08)
(-4.82894e+08 9.36452e+06 -8.45383 -2.87324e+08 36.4204 -1.25302e+08)
(-3.53027e+08 6.28261e+06 13.8325 -2.67145e+08 -3.19361 -6.9894e+07)
(-1.98619e+08 1.16447e+07 -2.34201 -2.41949e+08 -38.0717 -1.80739e+07)
(-1.29522e+06 8.68617e+06 -12.6133 -2.20967e+08 22.7189 5.24302e+07)
(2.17314e+08 1.41334e+07 4.16794 -1.90902e+08 42.3044 1.13886e+08)
(5.20705e+08 1.10547e+07 5.17271 -1.68605e+08 -23.4812 2.20633e+08)
(8.40825e+08 1.70065e+07 -0.450621 -1.2956e+08 -41.473 3.07787e+08)
(1.09849e+09 1.35046e+07 -3.95209 -1.03892e+08 25.7225 4.73903e+08)
(1.23809e+09 1.92668e+07 -2.34913 -5.05518e+07 14.7733 5.76936e+08)
(-9.35124e+08 -281647 -2.40792 -3.86861e+08 3.09656 -3.84236e+08)
(-9.21106e+08 2.7469e+06 -11.0924 -3.79979e+08 -1.33255 -3.69252e+08)
(-8.81328e+08 251769 -7.39632 -3.73132e+08 2.95548 -3.45151e+08)
(-8.33364e+08 4.83935e+06 8.50311 -3.59043e+08 8.8408 -3.09486e+08)
(-7.66776e+08 1.73012e+06 23.0688 -3.454e+08 -9.08019 -2.70828e+08)
(-6.81847e+08 6.80848e+06 -5.97494 -3.26971e+08 -23.7912 -2.25365e+08)
(-5.85563e+08 3.68247e+06 -31.4664 -3.09354e+08 2.07907 -1.7717e+08)
(-4.80689e+08 8.78372e+06 -8.47273 -2.87358e+08 36.3563 -1.25185e+08)
(-3.5074e+08 5.7124e+06 13.8112 -2.67181e+08 -3.16499 -6.97967e+07)
(-1.96148e+08 1.10612e+07 -2.34342 -2.41978e+08 -37.9963 -1.79303e+07)
(1.16352e+06 8.15619e+06 -12.6409 -2.21024e+08 22.6781 5.25925e+07)
(2.19815e+08 1.36302e+07 4.16966 -1.90928e+08 42.227 1.14084e+08)
(5.2337e+08 1.06285e+07 5.18538 -1.68663e+08 -23.4538 2.20837e+08)
(8.43395e+08 1.66807e+07 -0.449616 -1.29568e+08 -41.4011 3.08054e+08)
(1.10089e+09 1.32936e+07 -3.94238 -1.03934e+08 25.7317 4.74166e+08)
(1.2405e+09 1.91995e+07 -2.3551 -5.05443e+07 14.7466 5.77183e+08)
(-9.33194e+08 -362327 -2.40929 -3.86877e+08 3.07118 -3.84255e+08)
(-9.1943e+08 2.60773e+06 -11.0975 -3.79992e+08 -1.32968 -3.69243e+08)
(-8.79612e+08 -34119 -7.39309 -3.73119e+08 2.9433 -3.45132e+08)
(-8.31571e+08 4.50872e+06 8.50591 -3.59066e+08 8.81495 -3.09433e+08)
(-7.64912e+08 1.28045e+06 23.0448 -3.45384e+08 -9.0434 -2.70774e+08)
(-6.79822e+08 6.31266e+06 -5.98086 -3.27004e+08 -23.7316 -2.25263e+08)
(-5.83541e+08 3.13233e+06 -31.4517 -3.09358e+08 2.05549 -1.77051e+08)
(-4.78581e+08 8.16798e+06 -8.4935 -2.87395e+08 36.3038 -1.25022e+08)
(-3.48509e+08 5.10687e+06 13.7865 -2.67215e+08 -3.13053 -6.96533e+07)
(-1.93733e+08 1.04215e+07 -2.34467 -2.42013e+08 -37.9283 -1.77472e+07)
(3.55882e+06 7.57973e+06 -12.6892 -2.21086e+08 22.6361 5.27964e+07)
(2.22306e+08 1.31093e+07 4.16838 -1.90955e+08 42.1557 1.14344e+08)
(5.26067e+08 1.02016e+07 5.21331 -1.68736e+08 -23.4252 2.21104e+08)
(8.46104e+08 1.63592e+07 -0.448385 -1.29577e+08 -41.3342 3.08403e+08)
(1.10344e+09 1.30583e+07 -3.94615 -1.03996e+08 25.7376 4.7449e+08)
(1.24308e+09 1.91371e+07 -2.36067 -5.05219e+07 14.7215 5.77511e+08)
(-9.3153e+08 -445607 -2.41021 -3.86876e+08 3.04976 -3.84257e+08)
(-9.17953e+08 2.45821e+06 -11.1037 -3.79962e+08 -1.3276 -3.69191e+08)
(-8.78091e+08 -340402 -7.38971 -3.73068e+08 2.93333 -3.45072e+08)
(-8.29964e+08 4.14803e+06 8.50935 -3.59052e+08 8.79424 -3.09341e+08)
(-7.63233e+08 797843 23.0237 -3.45336e+08 -9.01089 -2.70686e+08)
(-6.77969e+08 5.7557e+06 -5.98735 -3.27002e+08 -23.6816 -2.25129e+08)
(-5.81727e+08 2.52982e+06 -31.4513 -3.0933e+08 2.03418 -1.76896e+08)
(-4.76624e+08 7.51046e+06 -8.51349 -2.8739e+08 36.2646 -1.24801e+08)
(-3.46407e+08 4.47404e+06 13.7698 -2.67217e+08 -3.09726 -6.94505e+07)
(-1.91368e+08 9.76879e+06 -2.34606 -2.42002e+08 -37.8713 -1.74796e+07)
(6.01941e+06 6.9893e+06 -12.7197 -2.21122e+08 22.6018 5.30962e+07)
(2.2489e+08 1.25451e+07 4.16894 -1.90948e+08 42.0939 1.14695e+08)
(5.28869e+08 9.72985e+06 5.23169 -1.68808e+08 -23.4058 2.21453e+08)
(8.48847e+08 1.59866e+07 -0.44737 -1.29587e+08 -41.2767 3.08845e+08)
(1.10609e+09 1.28249e+07 -3.94285 -1.0406e+08 25.7399 4.74889e+08)
(1.24582e+09 1.90664e+07 -2.36746 -5.05019e+07 14.6974 5.77908e+08)
(-9.30069e+08 -534828 -2.41265 -3.86832e+08 3.03246 -3.84216e+08)
(-9.16775e+08 2.30301e+06 -11.1088 -3.79917e+08 -1.32659 -3.69121e+08)
(-8.76861e+08 -664365 -7.38499 -3.72991e+08 2.92528 -3.44991e+08)
(-8.28626e+08 3.77613e+06 8.51195 -3.59019e+08 8.78062 -3.09218e+08)
(-7.61803e+08 296983 22.9941 -3.45249e+08 -8.97921 -2.70563e+08)
(-6.76324e+08 5.19972e+06 -5.99418 -3.26975e+08 -23.645 -2.24939e+08)
(-5.80008e+08 1.91732e+06 -31.4301 -3.09254e+08 2.00475 -1.76676e+08)
(-4.74749e+08 6.8138e+06 -8.53818 -2.87364e+08 36.2412 -1.24516e+08)
(-3.44337e+08 3.80156e+06 13.7424 -2.67179e+08 -3.04676 -6.91811e+07)
(-1.89047e+08 9.04434e+06 -2.34758 -2.4199e+08 -37.8223 -1.7155e+07)
(8.37669e+06 6.32258e+06 -12.785 -2.21155e+08 22.5592 5.34655e+07)
(2.27426e+08 1.19248e+07 4.16669 -1.90943e+08 42.0403 1.15138e+08)
(5.31684e+08 9.20485e+06 5.26161 -1.68876e+08 -23.377 2.21895e+08)
(8.51776e+08 1.56007e+07 -0.446207 -1.29583e+08 -41.2204 3.09341e+08)
(1.10893e+09 1.25534e+07 -3.95349 -1.04119e+08 25.7466 4.75355e+08)
(1.24874e+09 1.89938e+07 -2.3747 -5.04854e+07 14.6742 5.78373e+08)
(-9.28909e+08 -629878 -2.41432 -3.8677e+08 3.01975 -3.84158e+08)
(-9.1582e+08 2.14411e+06 -11.115 -3.79834e+08 -1.32655 -3.69013e+08)
(-8.75843e+08 -1.00355e+06 -7.38005 -3.72876e+08 2.91929 -3.4487e+08)
(-8.27485e+08 3.38633e+06 8.51542 -3.58951e+08 8.77298 -3.09053e+08)
(-7.60548e+08 -231554 22.9651 -3.45131e+08 -8.95114 -2.70397e+08)
(-6.74846e+08 4.58462e+06 -6.00216 -3.26922e+08 -23.6186 -2.24709e+08)
(-5.78546e+08 1.23918e+06 -31.4322 -3.09174e+08 1.98036 -1.76403e+08)
(-4.73068e+08 6.05702e+06 -8.56047 -2.87306e+08 36.2336 -1.24158e+08)
(-3.42445e+08 3.06777e+06 13.732 -2.67141e+08 -3.00674 -6.88437e+07)
(-1.86828e+08 8.25646e+06 -2.3488 -2.41945e+08 -37.7873 -1.67479e+07)
(1.07992e+07 5.62438e+06 -12.8303 -2.21177e+08 22.5135 5.38574e+07)
(2.30071e+08 1.12452e+07 4.16671 -1.90913e+08 41.9858 1.15609e+08)
(5.34641e+08 8.63378e+06 5.29856 -1.68942e+08 -23.3516 2.22369e+08)
(8.54753e+08 1.51575e+07 -0.445152 -1.29572e+08 -41.1705 3.09911e+08)
(1.11188e+09 1.2256e+07 -3.95456 -1.04192e+08 25.748 4.75886e+08)
(1.25185e+09 1.89016e+07 -2.38468 -5.04663e+07 14.6517 5.78916e+08)
(-9.27977e+08 -730002 -2.41701 -3.8667e+08 3.01136 -3.84062e+08)
(-9.15186e+08 1.97815e+06 -11.1213 -3.79744e+08 -1.3275 -3.68896e+08)
(-8.75143e+08 -1.36542e+06 -7.3735 -3.72756e+08 2.91611 -3.44737e+08)
(-8.26644e+08 2.97184e+06 8.51782 -3.58877e+08 8.77245 -3.0887e+08)
(-7.59602e+08 -795703 22.9294 -3.45008e+08 -8.92813 -2.70216e+08)
(-6.73643e+08 3.93518e+06 -6.01034 -3.26865e+08 -23.6062 -2.24455e+08)
(-5.772e+08 540986 -31.4109 -3.09077e+08 1.94288 -1.76171e+08)
(-4.71485e+08 5.24542e+06 -8.59107 -2.87255e+08 36.2322 -1.23828e+08)
(-3.40604e+08 2.27911e+06 13.7063 -2.67101e+08 -2.94445 -6.85318e+07)
(-1.84633e+08 7.39795e+06 -2.35116 -2.41909e+08 -37.7516 -1.63437e+07)
(1.31112e+07 4.83633e+06 -12.9002 -2.21205e+08 22.4641 5.42979e+07)
(2.32645e+08 1.04987e+07 4.16266 -1.90902e+08 41.9386 1.16136e+08)
(5.37602e+08 7.98587e+06 5.34184 -1.69017e+08 -23.3203 2.22906e+08)
(8.57933e+08 1.46725e+07 -0.443917 -1.29573e+08 -41.1221 3.10539e+08)
(1.11506e+09 1.1904e+07 -3.97429 -1.04269e+08 25.7524 4.76508e+08)
(1.2552e+09 1.88087e+07 -2.39502 -5.04531e+07 14.63 5.79549e+08)
(-9.27369e+08 -837300 -2.41971 -3.86565e+08 3.0079 -3.83959e+08)
(-9.14809e+08 1.80852e+06 -11.1284 -3.79725e+08 -1.32873 -3.68848e+08)
(-8.74691e+08 -1.74738e+06 -7.36672 -3.72696e+08 2.91264 -3.44674e+08)
(-8.26034e+08 2.53402e+06 8.52154 -3.58868e+08 8.77287 -3.08751e+08)
(-7.58856e+08 -1.39378e+06 22.892 -3.44935e+08 -8.90226 -2.70096e+08)
(-6.72605e+08 3.23673e+06 -6.02048 -3.26855e+08 -23.5943 -2.24247e+08)
(-5.76142e+08 -217277 -31.4057 -3.09024e+08 1.9115 -1.75925e+08)
(-4.70148e+08 4.36826e+06 -8.61691 -2.87231e+08 36.2421 -1.23483e+08)
(-3.38977e+08 1.43064e+06 13.7035 -2.67091e+08 -2.89158 -6.81998e+07)
(-1.82592e+08 6.46861e+06 -2.35282 -2.41879e+08 -37.7272 -1.59086e+07)
(1.54728e+07 3.99328e+06 -12.9637 -2.21249e+08 22.4162 5.47473e+07)
(2.35332e+08 9.67863e+06 4.1603 -1.90881e+08 41.892 1.16696e+08)
(5.40717e+08 7.28642e+06 5.39558 -1.69113e+08 -23.2957 2.23484e+08)
(8.61179e+08 1.4123e+07 -0.442896 -1.29568e+08 -41.0808 3.11257e+08)
(1.11839e+09 1.15184e+07 -3.99048 -1.04369e+08 25.7516 4.77194e+08)
(1.2588e+09 1.86936e+07 -2.40863 -5.04258e+07 14.6087 5.80276e+08)
(-9.27021e+08 -951801 -2.42188 -3.86527e+08 3.0051 -3.83926e+08)
(-9.14779e+08 1.63904e+06 -11.1356 -3.79778e+08 -1.33038 -3.68873e+08)
(-8.74591e+08 -2.14102e+06 -7.35807 -3.72705e+08 2.91045 -3.44685e+08)
(-8.25762e+08 2.08686e+06 8.52456 -3.58923e+08 8.77733 -3.087e+08)
(-7.58459e+08 -2.00525e+06 22.8483 -3.44912e+08 -8.87687 -2.70045e+08)
(-6.71898e+08 2.51485e+06 -6.03093 -3.26891e+08 -23.5908 -2.24092e+08)
(-5.75236e+08 -995798 -31.3835 -3.08992e+08 1.86822 -1.75766e+08)
(-4.68931e+08 3.44318e+06 -8.65304 -2.87234e+08 36.2571 -1.23189e+08)
(-3.37424e+08 537211 13.6801 -2.67086e+08 -2.81587 -6.79118e+07)
(-1.80584e+08 5.47678e+06 -2.35602 -2.41859e+08 -37.7015 -1.54833e+07)
(1.77033e+07 3.07107e+06 -13.0485 -2.213e+08 22.3642 5.52402e+07)
(2.37943e+08 8.78076e+06 4.15438 -1.90862e+08 41.8528 1.17313e+08)
(5.43833e+08 6.49422e+06 5.4519 -1.69215e+08 -23.2675 2.24124e+08)
(8.64643e+08 1.35142e+07 -0.441741 -1.2957e+08 -41.0391 3.12026e+08)
(1.12199e+09 1.10761e+07 -4.02317 -1.04468e+08 25.7555 4.77959e+08)
(1.2627e+09 1.85736e+07 -2.42367 -5.04079e+07 14.5872 5.81083e+08)
(-9.27022e+08 -1.07158e+06 -2.42595 -3.86564e+08 3.00511 -3.83966e+08)
(-9.15018e+08 1.47821e+06 -11.1433 -3.79987e+08 -1.33177 -3.69055e+08)
(-8.74754e+08 -2.54018e+06 -7.34793 -3.72852e+08 2.9067 -3.44847e+08)
(-8.25733e+08 1.64255e+06 8.52839 -3.59115e+08 8.78004 -3.08784e+08)
(-7.58281e+08 -2.62152e+06 22.7983 -3.44996e+08 -8.84552 -2.70121e+08)
(-6.71374e+08 1.78256e+06 -6.04354 -3.2703e+08 -23.5837 -2.2404e+08)
(-5.74655e+08 -1.79204e+06 -31.3742 -3.0904e+08 1.82742 -1.75648e+08)
(-4.67998e+08 2.48132e+06 -8.68376 -2.87293e+08 36.2816 -1.22928e+08)
(-3.36118e+08 -391796 13.682 -2.67129e+08 -2.74499 -6.7644e+07)
(-1.7878e+08 4.41685e+06 -2.35815 -2.41868e+08 -37.6841 -1.50709e+07)