/*--------------------------------*- C++ -*----------------------------------*\
  =========                 |
  \\      /  F ield         | OpenFOAM: The Open Source CFD Toolbox
   \\    /   O peration     | Website:  https://openfoam.org
    \\  /    A nd           | Version:  8
     \\/     M anipulation  |
\*---------------------------------------------------------------------------*/
FoamFile
{
    version     2.0;
    format      ascii;
    class       surfaceScalarField;
    location    "0.0160000";
    object      meshPhi;
}
// * * * * * * * * * * * * * * * * * * * * * * * * * * * * * * * * * * * * * //

dimensions      [0 3 -1 0 0 0 0];

internalField   nonuniform List<scalar> 
1691
(
-5.7680190391564e-19
-5.3757263690747e-14
-1.15011280274684e-18
-5.3645620906413e-14
-1.69083457699094e-18
-5.33496360712426e-14
-2.23494458549049e-18
-5.30359994251906e-14
-2.82084971234994e-18
-5.29564558334307e-14
-3.38628694544937e-18
-5.30317468354811e-14
-3.99681213137255e-18
-5.31872234102308e-14
-4.64157526542702e-18
-5.344035466855e-14
-5.23166663084909e-18
-5.36156582166927e-14
-5.79728296714217e-18
-5.36039309872908e-14
-6.36589105724483e-18
-5.3527572798813e-14
-6.97039368293073e-18
-5.35288672477919e-14
-7.62287410936057e-18
-5.36390078586344e-14
-8.23663711146021e-18
-5.37357676826859e-14
-8.75765119602989e-18
-5.36292944686648e-14
-9.15194056719039e-18
-5.32725827755766e-14
-9.6084883226904e-18
-5.28879214283181e-14
-1.02622378683834e-17
-5.28609458736117e-14
-1.12632477445582e-17
-5.33637547779752e-14
-1.21400926904579e-17
-5.40251113581482e-14
-1.27185902378017e-17
-5.4248106282852e-14
-1.29991063976492e-17
-5.40117048860976e-14
-1.38254968697705e-17
-5.39217310827784e-14
-1.46566692065151e-17
-5.4195313003401e-14
-1.53807733766212e-17
-5.44970198125057e-14
-1.61494225629265e-17
-5.46929761969142e-14
-1.68007112240747e-17
-5.47867663740457e-14
-1.73174499831934e-17
-5.46999758887633e-14
-1.77636249614466e-17
-5.44936675540939e-14
-1.83848594353776e-17
-5.43272487033289e-14
-1.88573652182483e-17
-5.41361150855315e-14
-1.91921759747319e-17
-5.39799384926095e-14
-2.06994343110375e-17
-5.4365299237368e-14
-2.21362338757262e-17
-5.52727958785302e-14
-2.31694310804475e-17
-5.59671468367513e-14
-2.36400837142696e-17
-5.61402854844479e-14
-2.44688886285175e-17
-5.61526155242706e-14
-2.52668125121411e-17
-5.61966130937598e-14
-2.54771166940007e-17
-5.59514906113484e-14
-2.53506035137127e-17
-5.53707908448827e-14
-2.62360552508477e-17
-5.52032451024369e-14
-2.83988507934452e-17
-5.58716125767516e-14
-2.92265979046654e-17
-5.65736199909977e-14
-2.96858018732614e-17
-5.66459514013783e-14
-3.01622619611351e-17
-5.64644320121253e-14
-3.11753772074347e-17
-5.64823656254096e-14
-3.20875750016074e-17
-5.66706570250312e-14
-3.29777722871698e-17
-5.68709915385352e-14
-3.40767792236673e-17
-5.7137604710584e-14
-3.54794114221624e-17
-5.75887883960858e-14
-3.69996468971354e-17
-5.81964759037379e-14
-3.86882541823127e-17
-5.89659784280651e-14
-4.13018930746286e-17
-6.01880640705652e-14
-4.5228304082542e-17
-6.21793661017475e-14
-4.94693841381033e-17
-6.45874694836261e-14
-5.18096533747466e-17
-6.63267769565622e-14
-5.21716369168999e-17
-6.68293655044983e-14
-5.37810398077608e-17
-6.71937073828478e-14
-5.78137471043748e-17
-6.79855287833892e-14
-5.50142328090324e-17
-6.78106359564537e-14
-5.6748083881544e-17
-6.7624541316063e-14
-6.5467473071193e-17
-7.01825691644136e-14
-7.26592789967536e-17
-7.45302356979049e-14
-7.77859307793671e-17
-7.80988734384657e-14
-8.20617880810114e-17
-8.06380595808605e-14
-8.71986605363813e-17
-8.28466593427654e-14
-9.05974717958374e-17
-8.47976650827666e-14
-9.58653495815814e-17
-8.70824700863077e-14
-1.0789389929874e-16
-9.2401398948407e-14
-1.34937688442389e-16
-1.03394098043078e-13
-1.62066487946024e-16
-1.18099635792692e-13
-1.82124547194464e-16
-1.30445205627916e-13
-1.8652043519158e-16
-1.37393733209179e-13
-2.04530923178169e-16
-1.43906751604898e-13
-2.34606221528082e-16
-1.55775926061328e-13
-2.69449412997041e-16
-1.72777385672557e-13
-3.13173986739431e-16
-1.93485425219454e-13
-3.64289578029801e-16
-2.18053431307891e-13
-4.22710798924824e-16
-2.45958855882905e-13
-4.82293290498681e-16
-2.75237628048854e-13
-5.37743775382923e-16
-3.03134021251719e-13
-5.90564731603713e-16
-3.29723117638021e-13
-6.56396302763318e-16
-3.56538687874031e-13
-6.96822557772672e-16
-3.7892366034233e-13
-7.16681554334828e-16
-3.91505271756405e-13
-7.28232903811842e-16
-3.98392612702683e-13
-6.95568393068295e-16
-4.06062651342629e-13
-6.49084591906007e-16
-4.11750778631701e-13
-5.76726198580539e-16
-4.08623802929893e-13
-5.08619807527197e-16
-3.98497504193835e-13
-4.47566720694895e-16
-3.88670685266549e-13
-3.92220222290999e-16
-3.8235262958759e-13
-3.43702387148665e-16
-3.79648779006079e-13
-2.93047145366111e-16
-3.7817675080835e-13
-2.39939824904925e-16
-3.73958390901048e-13
-1.86249656699222e-16
-3.67005908334415e-13
-1.39731535373657e-16
-3.6270409560051e-13
-9.44506013832617e-17
-3.64065546836324e-13
-4.7780631759761e-17
-3.67706181191344e-13
-3.69814470713172e-13
-1.7348278586332e-18
-1.0837616547398e-13
-3.46034502003098e-18
-1.08184357862452e-13
-5.16331287171975e-18
-1.07836305874398e-13
-6.86317976963385e-18
-1.07475610582054e-13
-8.58081435726095e-18
-1.07320088748818e-13
-1.03027576782156e-17
-1.07301934081956e-13
-1.20452927275555e-17
-1.07355439516847e-13
-1.38052237156977e-17
-1.07494512545481e-13
-1.55353163437505e-17
-1.07565277038115e-13
-1.72349325782027e-17
-1.07471514968277e-13
-1.89350237436124e-17
-1.07320406536767e-13
-2.06621131522165e-17
-1.07237417419495e-13
-2.2413445789548e-17
-1.0725026347086e-13
-2.41366919678834e-17
-1.0725137702589e-13
-2.57715741154742e-17
-1.07073315257532e-13
-2.73271182548743e-17
-1.06675265358996e-13
-2.89148970622995e-17
-1.06252862570995e-13
-3.06927570378362e-17
-1.06145103445327e-13
-3.2669983311026e-17
-1.06503511540852e-13
-3.46032757853343e-17
-1.07001976010435e-13
-3.62628457847645e-17
-1.07115401698701e-13
-3.78169452008901e-17
-1.06824927861757e-13
-3.95938324078848e-17
-1.066619647388e-13
-4.14787037713584e-17
-1.0681799944897e-13
-4.32990872276736e-17
-1.07000148794401e-13
-4.50973185651534e-17
-1.07089716265614e-13
-4.68195107368229e-17
-1.07088628397654e-13
-4.84203950817837e-17
-1.06927937515086e-13
-4.99967403876802e-17
-1.0666243809516e-13
-5.16263053901398e-17
-1.06431928856023e-13
-5.31528552780727e-17
-1.06179789055949e-13
-5.48131057606145e-17
-1.05960286600466e-13
-5.70395426301577e-17
-1.06215959703326e-13
-5.94257128471704e-17
-1.06929394949398e-13
-6.14181795690498e-17
-1.07456734473565e-13
-6.31133559898218e-17
-1.07527331397345e-13
-6.48844026654636e-17
-1.07455801114644e-13
-6.66216747623154e-17
-1.07409667602965e-13
-6.79388377330518e-17
-1.07109380032668e-13
-6.91241140375824e-17
-1.0651655862047e-13
-7.10779665301363e-17
-1.06287869803764e-13
-7.36404151288119e-17
-1.06790542225225e-13
-7.5689365716529e-17
-1.07323152920067e-13
-7.72027147211192e-17
-1.07305081811382e-13
-7.88053195112799e-17
-1.07063473996198e-13
-8.06665947765858e-17
-1.06995160932198e-13
-8.25852968849621e-17
-1.07077382206923e-13
-8.44824141132639e-17
-1.07171981820671e-13
-8.65441083699796e-17
-1.07323464869983e-13
-8.88287977612021e-17
-1.07637544454643e-13
-9.12422631492374e-17
-1.08090051582354e-13
-9.39090564577689e-17
-1.08683980793064e-13
-9.73442729544556e-17
-1.09675582604727e-13
-1.01769293557839e-16
-1.11344368203198e-13
-1.06269787450632e-16
-1.13379731366202e-13
-1.09373496970014e-16
-1.14825629476538e-13
-1.11194979638963e-16
-1.15185484734212e-13
-1.14035888219485e-16
-1.15424311455348e-13
-1.16876345360973e-16
-1.16033326039374e-13
-1.17449884756246e-16
-1.15801418941209e-13
-1.20291749465338e-16
-1.15566340875941e-13
-1.27651023298963e-16
-1.17727285925503e-13
-1.35168898315099e-16
-1.21458948777334e-13
-1.40874998012544e-16
-1.24513568284679e-13
-1.4600614393127e-16
-1.26661371834988e-13
-1.51038738910161e-16
-1.28514949630173e-13
-1.55658340679259e-16
-1.3014715772036e-13
-1.61777968520972e-16
-1.32079904708052e-13
-1.74992373631027e-16
-1.36673307699606e-13
-1.97430807519551e-16
-1.4623660255015e-13
-2.22011997597021e-16
-1.59048314456001e-13
-2.38752079585142e-16
-1.69782386456445e-13
-2.48574711331694e-16
-1.75788997450337e-13
-2.64681027369429e-16
-1.81420726748818e-13
-2.91118326439481e-16
-1.91743567993188e-13
-3.23749987453008e-16
-2.06560337216553e-13
-3.6296714209394e-16
-2.2462033505424e-13
-4.09309149239774e-16
-2.46060046168441e-13
-4.61042946441123e-16
-2.70425441113169e-13
-5.13971060742438e-16
-2.95977663850831e-13
-5.63492618500801e-16
-3.20286262598528e-13
-6.14331643090648e-16
-3.43410814868316e-13
-6.66791763920331e-16
-3.66762402956564e-13
-7.04885655372302e-16
-3.86284818684935e-13
-7.257389290929e-16
-3.97201852372112e-13
-7.37417817684469e-16
-4.0306331680488e-13
-6.9889145398774e-16
-4.09791021569129e-13
-6.48934820165806e-16
-4.1487426387495e-13
-5.82949786716004e-16
-4.12134934683969e-13
-5.15960139881308e-16
-4.03237585336694e-13
-4.55333570611926e-16
-3.94646316902271e-13
-4.00418052500911e-16
-3.89130958791434e-13
-3.49506376070776e-16
-3.86751448715835e-13
-2.98129130977834e-16
-3.85432841479222e-13
-2.44475279405338e-16
-3.81722428130228e-13
-1.91969277884848e-16
-3.75675853990978e-13
-1.43544237274714e-16
-3.7195206774027e-13
-9.66457891890304e-17
-3.73124223500099e-13
-4.87275071115503e-17
-3.76224465250992e-13
-3.78000466564468e-13
-2.92053078694944e-18
-1.64320946302804e-13
-5.8284748811698e-18
-1.64032432861359e-13
-8.71276887232416e-18
-1.63617982668532e-13
-1.1590107785985e-17
-1.63195696574407e-13
-1.44787810807686e-17
-1.62950710872267e-13
-1.73672089045598e-17
-1.62824692526724e-13
-2.02694672691418e-17
-1.62760926656773e-13
-2.3182737031112e-17
-1.62771006925032e-13
-2.60658791717312e-17
-1.62721922328168e-13
-2.89182518317566e-17
-1.62530707005401e-13
-3.1766857023048e-17
-1.62289980955043e-13
-3.46348787270818e-17
-1.62108136248277e-13
-3.751991204129e-17
-1.62009053695793e-13
-4.0376261336201e-17
-1.61899694222062e-13
-4.31512401088677e-17
-1.61635345543142e-13
-4.5853071470871e-17
-1.61181083461838e-13
-4.85788996297056e-17
-1.60706313163529e-13
-5.14665027778142e-17
-1.60503661523809e-13
-5.45237835267436e-17
-1.60703565447728e-13
-5.75388277026467e-17
-1.61024073080358e-13
-6.0310985934617e-17
-1.61011907740812e-13
-6.2987330247907e-17
-1.6065129174301e-13
-6.58529900787255e-17
-1.60400886555582e-13
-6.88090440266057e-17
-1.60425661924431e-13
-7.17050666714666e-17
-1.6047298621143e-13
-7.45776063033901e-17
-1.60440473073984e-13
-7.73792728027152e-17
-1.60329591613188e-13
-8.00709839746341e-17
-1.60080861204136e-13
-8.27373818638352e-17
-1.59741668766873e-13
-8.54457280652058e-17
-1.59432635276274e-13
-8.80606783548433e-17
-1.59105183592989e-13
-9.07892141227533e-17
-1.5880655593868e-13
-9.40054598045673e-17
-1.5891816759162e-13
-9.73571531157717e-17
-1.59424082003743e-13
-1.00361825725137e-16
-1.59768935349049e-13
-1.03104446396107e-16
-1.5972006951927e-13
-1.05907546277282e-16
-1.59548868697398e-13
-1.08676483425966e-16
-1.59399271915566e-13
-1.11075625800163e-16
-1.59030219352572e-13
-1.13357932630117e-16
-1.58409563210823e-13
-1.16305083558245e-16
-1.58103755698794e-13
-1.19775662315995e-16
-1.58428109631597e-13
-1.22797197978748e-16
-1.5877754330827e-13
-1.25348430859772e-16
-1.58652519816089e-13
-1.27973006722495e-16
-1.58335267271742e-13
-1.30817042208127e-16
-1.58167262005839e-13
-1.33709618175106e-16
-1.58129059005648e-13
-1.36578320878837e-16
-1.58101390307203e-13
-1.39586173165595e-16
-1.58123026868652e-13
-1.42785180520231e-16
-1.58285282964075e-13
-1.4609206371071e-16
-1.58566702457687e-13
-1.49614882249447e-16
-1.58970016918951e-13
-1.53802983646603e-16
-1.59715706498985e-13
-1.58849552927998e-16
-1.61044406921853e-13
-1.63957216344968e-16
-1.6268864537294e-13
-1.67843172001273e-16
-1.63825042385795e-13
-1.70611657942537e-16
-1.64026462453576e-13
-1.74260953761903e-16
-1.64123574804381e-13
-1.77900443700078e-16
-1.64538501583253e-13
-1.79580331252196e-16
-1.64230530720028e-13
-1.83224604451041e-16
-1.63922481932557e-13
-1.90781881904973e-16
-1.65676219254633e-13
-1.98481359462069e-16
-1.68778702516913e-13
-2.04600248780748e-16
-1.71297458453622e-13
-2.10211776098198e-16
-1.73036179684931e-13
-2.15729605973064e-16
-1.74520674736637e-13
-2.20894651137089e-16
-1.75814633013058e-13
-2.27364709542737e-16
-1.77370171187905e-13
-2.39993943245491e-16
-1.81215889005335e-13
-2.6062411270022e-16
-1.89331820527507e-13
-2.8309849046016e-16
-2.00231776650926e-13
-2.98742703672331e-16
-2.09336167794091e-13
-3.08393264472377e-16
-2.14376935727661e-13
-3.23497929091771e-16
-2.19101905765736e-13
-3.47563131231793e-16
-2.27857341003595e-13
-3.76991719492026e-16
-2.40466441399867e-13
-4.12126223567118e-16
-2.55855197858573e-13
-4.53434572847078e-16
-2.74140799809237e-13
-4.99411803225023e-16
-2.94929295037727e-13
-5.46380571013582e-16
-3.16725564991753e-13
-5.90362672933085e-16
-3.37448710792522e-13
-6.35442861815638e-16
-3.57157720226611e-13
-6.82015862725844e-16
-3.77063355578584e-13
-7.16108760901557e-16
-3.93677531529505e-13
-7.35204794408771e-16
-4.029010865069e-13
-7.45145111263242e-16
-4.07809481144329e-13
-7.04316913066554e-16
-4.13600216571269e-13
-6.53487930750813e-16
-4.17966960916616e-13
-5.88655553281017e-16
-4.15616083072465e-13
-5.23012711286663e-16
-4.0798519878122e-13
-4.6289360683903e-16
-4.0061922571415e-13
-4.07721142195304e-16
-3.95891461074325e-13
-3.55993776771575e-16
-3.93852220742187e-13
-3.03873303456386e-16
-3.92720798339759e-13
-2.49784174045767e-16
-3.89536358036795e-13
-1.96718964781154e-16
-3.84345872019798e-13
-1.47162025072455e-16
-3.81148190086953e-13
-9.89278861472666e-17
-3.82154526241417e-13
-4.98061145701809e-17
-3.84819985606567e-13
-3.86338898436775e-13
-4.13418259689577e-18
-2.2155957544405e-13
-8.25199090205647e-18
-2.21158921993119e-13
-1.23443404316508e-17
-2.20665249350225e-13
-1.64254058376719e-17
-2.20168137749357e-13
-2.05107259870045e-17
-2.19820202560091e-13
-2.45905342376077e-17
-2.19572203860609e-13
-2.86767608544163e-17
-2.19376664657334e-13
-3.27669585808563e-17
-2.19242989885465e-13
-3.68260644928321e-17
-2.19059275174776e-13
-4.08535687159397e-17
-2.18756207258009e-13
-4.48725175789955e-17
-2.18411832486392e-13
-4.89026588776301e-17
-2.18117087345211e-13
-5.2941895162199e-17
-2.17891757720305e-13
-5.69512064710075e-17
-2.17657448612929e-13
-6.08856342419064e-17
-2.1729258793104e-13
-6.47524957253155e-17
-2.16768452049432e-13
-6.86347728069884e-17
-2.16228073986914e-13
-7.26497262470854e-17
-2.15916968719063e-13
-7.68037981900525e-17
-2.15943623367608e-13
-8.0916148862224e-17
-2.16070513116613e-13
-8.48161395909938e-17
-2.15917581101354e-13
-8.86294692696811e-17
-2.15472828929331e-13
-9.25987530519115e-17
-2.15121240524639e-13
-9.66395274367971e-17
-2.15000313963364e-13
-1.00623795394046e-16
-2.14897934428126e-13
-1.04582746884953e-16
-2.14728640124989e-13
-1.08475860047836e-16
-2.14493656712283e-13
-1.12269893548469e-16
-2.14142886943688e-13
-1.16036969153267e-16
-2.13716149195048e-13
-1.1983437990978e-16
-2.13314692238486e-13
-1.23547250859537e-16
-2.12898080654631e-13
-1.27352235667571e-16
-2.12506631364898e-13
-1.31567117218453e-16
-2.12459822177004e-13
-1.35891057173187e-16
-2.12742710531983e-13
-1.39913886817368e-16
-2.12889377527562e-13
-1.43708817957586e-16
-2.12706139718179e-13
-1.47550001046022e-16
-2.12421036252442e-13
-1.51356251258444e-16
-2.12153849990843e-13
-1.54842168265408e-16
-2.11702129885768e-13
-1.58224568200141e-16
-2.11040206774057e-13
-1.6216810514844e-16
-2.10643545573027e-13
-1.66550637327408e-16
-2.10774758006592e-13
-1.70545155264976e-16
-2.10925771791225e-13
-1.74134882858797e-16
-2.106791913621e-13
-1.77781997878305e-16
-2.10272255429475e-13
-1.8161005621366e-16
-2.09990357233621e-13
-1.85474470637205e-16
-2.09817068362783e-13
-1.89312707472081e-16
-2.09652599520875e-13
-1.93265280353931e-16
-2.09529880805608e-13
-1.97374812521351e-16
-2.0952537533069e-13
-2.01570914697644e-16
-2.09620577839106e-13
-2.05945277764931e-16
-2.09817858933223e-13
-2.10879514727122e-16
-2.1030150972493e-13
-2.16538212490966e-16
-2.11273029573493e-13
-2.2224343118327e-16
-2.12508692904544e-13
-2.26904491403552e-16
-2.13319047089538e-13
-2.30611051746403e-16
-2.133468388103e-13
-2.35059880722689e-16
-2.13287175360744e-13
-2.3949367553276e-16
-2.13492433134021e-13
-2.42260915963323e-16
-2.13093719520344e-13
-2.4669549689187e-16
-2.12698196126126e-13
-2.54445054350912e-16
-2.14027617337065e-13
-2.62306007508743e-16
-2.16481972331165e-13
-2.68819853205622e-16
-2.18446667644107e-13
-2.74897194775866e-16
-2.19759178095823e-13
-2.80886725865838e-16
-2.20857939092504e-13
-2.86573956916422e-16
-2.21797295513598e-13
-2.93370630090828e-16
-2.22958873564391e-13
-3.05390844623643e-16
-2.26037919825693e-13
-3.24187756729307e-16
-2.32683718414958e-13
-3.44527195128543e-16
-2.41647603128289e-13
-3.5905340654035e-16
-2.49101387097458e-13
-3.68499566830294e-16
-2.53159528453544e-13
-3.82576645501686e-16
-2.5696094011641e-13
-4.04238821401674e-16
-2.64129821603775e-13
-4.30431335362197e-16
-2.74510820731232e-13
-4.61449421993444e-16
-2.87207567255898e-13
-4.97684748233266e-16
-3.02318276955401e-13
-5.37852647603167e-16
-3.1951016453831e-13
-5.78837860157892e-16
-3.37533530531498e-13
-6.17286113024683e-16
-3.5465748110614e-13
-6.5666766136002e-16
-3.70938882909062e-13
-6.9730478438675e-16
-3.873864557271e-13
-7.27347132639051e-16
-4.01082481464102e-13
-7.44674902613231e-16
-4.08607798109554e-13
-7.53017861360182e-16
-4.12561924490409e-13
-7.0974898946807e-16
-4.17414028799208e-13
-6.579871031156e-16
-4.21061494448392e-13
-5.94370194511892e-16
-4.19100776089378e-13
-5.30072599331293e-16
-4.12739559020325e-13
-4.70450739945432e-16
-4.06601117349171e-13
-4.15015455526409e-16
-4.02662440803853e-13
-3.62493882528041e-16
-4.00964082951041e-13
-3.09637590642296e-16
-4.00020271926284e-13
-2.55114859138205e-16
-3.97363549413639e-13
-2.01458685506309e-16
-3.9303465596041e-13
-1.50774325331087e-16
-3.90367860106096e-13
-1.01210568258917e-16
-3.91206133331906e-13
-5.08956369132443e-17
-3.9342860414621e-13
-3.94684507170778e-13
-5.37515514694033e-18
-2.80062754314816e-13
-1.07296458395119e-17
-2.79535941391426e-13
-1.60562851658929e-17
-2.78951207600678e-13
-2.13667386203714e-17
-2.78366469523531e-13
-2.66737730841402e-17
-2.77902425122504e-13
-3.19693204463177e-17
-2.77518791743559e-13
-3.72632784706687e-17
-2.77177493709681e-13
-4.25535032695987e-17
-2.7688587376335e-13
-4.78111008127112e-17
-2.76553451045971e-13
-5.30357541242336e-17
-2.76124819113557e-13
-5.82464944358347e-17
-2.75663304413424e-13
-6.34595758958842e-17
-2.75242069779102e-13
-6.86731468239995e-17
-2.74876673395423e-13
-7.38549601812039e-17
-2.74503574223501e-13
-7.89679609638587e-17
-2.74024736072319e-13
-8.40185712037679e-17
-2.73417745816349e-13
-8.90754384329273e-17
-2.72798877695978e-13
-9.42349714779836e-17
-2.72365839887841e-13
-9.95019267248852e-17
-2.72204707235773e-13
-1.04727000538242e-16
-2.72122955934075e-13
-1.09770115552638e-16
-2.71814937907058e-13
-1.14735528527054e-16
-2.71272642759124e-13
-1.19822664128427e-16
-2.70806391883447e-13
-1.24961403644013e-16
-2.70525667421011e-13
-1.30046563718673e-16
-2.70259273226599e-13
-1.3510412271136e-16
-2.69939045426549e-13
-1.4010048763239e-16
-2.69566103325907e-13
-1.45008195416987e-16
-2.69099773261629e-13
-1.49886774212885e-16
-2.6857214667118e-13
-1.54783378756111e-16
-2.68064867243207e-13
-1.59603857067863e-16
-2.67545693682634e-13
-1.6449426943094e-16
-2.67047904737466e-13
-1.69715245080193e-16
-2.66828314018669e-13
-1.75017753056595e-16
-2.66872988460411e-13
-1.80064895229343e-16
-2.66806499561336e-13
-1.84918314811475e-16
-2.66474657805634e-13
-1.89803318383711e-16
-2.66061793800533e-13
-1.94652008801048e-16
-2.65663257353083e-13
-1.99229761658608e-16
-2.65115520702968e-13
-2.03716901414247e-16
-2.64399316429987e-13
-2.08659913207672e-16
-2.63898113873247e-13
-2.13955936992629e-16
-2.63821439376324e-13
-2.18924826913452e-16
-2.63759246190354e-13
-2.23554575107408e-16
-2.63377037466702e-13
-2.28225256113672e-16
-2.62866689069054e-13
-2.33037327076849e-16
-2.62456977306523e-13
-2.37872570489788e-16
-2.62134324145204e-13
-2.42679346596616e-16
-2.61818890275986e-13
-2.47574326394195e-16
-2.61537563174965e-13
-2.52591192438418e-16
-2.61351568215423e-13
-2.57672526293867e-16
-2.61245650984342e-13
-2.62893356493597e-16
-2.61221748199583e-13
-2.68566957050957e-16
-2.61427612930103e-13
-2.74829168430066e-16
-2.62025288370236e-13
-2.81122820254715e-16
-2.62835310802633e-13
-2.86551033302589e-16
-2.63303459048992e-13
-2.91188431561685e-16
-2.63142815275082e-13
-2.96427941699851e-16
-2.62911721444928e-13
-3.01646487781028e-16
-2.62892361730125e-13
-3.05493003048454e-16
-2.62388706731592e-13
-3.10706752525468e-16
-2.61891014803212e-13
-3.18632393417372e-16
-2.62778832580542e-13
-3.26638019470864e-16
-2.64566562618594e-13
-3.33531308974099e-16
-2.65959643829456e-13
-3.40059001465956e-16
-2.66829375044549e-13
-3.46504809545623e-16
-2.67526440038913e-13
-3.52698139718658e-16
-2.68095483129244e-13
-3.5980262416401e-16
-2.6884639255249e-13
-3.71188903658762e-16
-2.71139229456894e-13
-3.88121079369707e-16
-2.7629178455473e-13
-4.06295347866433e-16
-2.83295937141204e-13
-4.19681727503053e-16
-2.8907978831918e-13
-4.28904177296871e-16
-2.92139921667761e-13
-4.41928807544269e-16
-2.95001206373267e-13
-4.61158893168695e-16
-3.0056410708843e-13
-4.84085152001118e-16
-3.08696707254307e-13
-5.10955169139409e-16
-3.18681013513295e-13
-5.42085409538857e-16
-3.30596383324354e-13
-5.76414676030757e-16
-3.4417263961181e-13
-6.11392290577788e-16
-3.58407063644872e-13
-6.44285653430492e-16
-3.7191823143087e-13
-6.77946363832562e-16
-3.84758428599179e-13
-7.12625300164682e-16
-3.97734286090083e-13
-7.38603572273812e-16
-4.08501906508403e-13
-7.54157723422339e-16
-4.14323356068134e-13
-7.60899014565197e-16
-4.17319479330861e-13
-7.15183155376031e-16
-4.21230998158767e-13
-6.62488745082681e-16
-4.24158581355787e-13
-6.00091438682395e-16
-4.22589921409421e-13
-5.37141034137612e-16
-4.17500815878839e-13
-4.78017347680786e-16
-4.12591769450863e-13
-4.22319011815811e-16
-4.09443391664933e-13
-3.6900263867469e-16
-4.08086874944492e-13
-3.15410304706725e-16
-4.07332259691592e-13
-2.6045418785213e-16
-4.05205575890354e-13
-2.06207935879513e-16
-4.0174071626891e-13
-1.54394272224399e-16
-3.99606575413174e-13
-1.03497681842078e-16
-4.002776574506e-13
-5.19867385949378e-17
-4.02057687919544e-13
-4.03051121871743e-13
-6.64285406851294e-18
-3.3980218667573e-13
-1.32602821289049e-17
-3.39136478271906e-13
-1.98469043232395e-17
-3.38449814805708e-13
-2.64118978504833e-17
-3.37765070490308e-13
-3.29651515471185e-17
-3.37172037155425e-13
-3.95003759763155e-17
-3.36639534515835e-13
-4.60253575626836e-17
-3.36138975451598e-13
-5.25382941022155e-17
-3.35675757742789e-13
-5.90165392439199e-17
-3.35181224456659e-13
-6.54599905024046e-17
-3.34613985934837e-13
-7.18836088677145e-17
-3.34022358409933e-13
-7.83000661457556e-17
-3.33461469911332e-13
-8.47077902269004e-17
-3.32942651788099e-13
-9.10814088204867e-17
-3.32417528338381e-13
-9.73919171609064e-17
-3.31811987366888e-13
-1.03644744597466e-16
-3.31109838323453e-13
-1.09893999669155e-16
-3.30399946211777e-13
-1.16214934086777e-16
-3.29831541079924e-13
-1.22610631016393e-16
-3.29468235357329e-13
-1.2896377569393e-16
-3.29163421559367e-13
-1.351653444105e-16
-3.28686846928839e-13
-1.41297727824358e-16
-3.28034189281006e-13
-1.47516652246925e-16
-3.27440039917007e-13
-1.53766515231529e-16
-3.26985735221695e-13
-1.5996522052865e-16
-3.26541560810673e-13
-1.66133502254548e-16
-3.26056780753887e-13
-1.72244855117706e-16
-3.25532457233053e-13
-1.78277592824709e-16
-3.24937506145091e-13
-1.84278506247175e-16
-3.24296143621835e-13
-1.90284463089856e-16
-3.23670131264195e-13
-1.96222212828706e-16
-3.2303543020471e-13
-2.02206746575043e-16
-3.22417959161948e-13
-2.08441004636848e-16
-3.22011197601348e-13
-2.1472856122057e-16
-3.2180274073273e-13
-2.20806558714437e-16
-3.21508832962334e-13
-2.26724804412732e-16
-3.21014840054363e-13
-2.32659331008419e-16
-3.20460738211221e-13
-2.38555746877443e-16
-3.19917433297698e-13
-2.44230709237839e-16
-3.19260865153372e-13
-2.49827237031086e-16
-3.18477799806978e-13
-2.55772499390894e-16
-3.17858429273032e-13
-2.61983587601064e-16
-3.17559160047514e-13
-2.67928611735627e-16
-3.17269384848111e-13
-2.73600151371601e-16
-3.16738011779887e-13
-2.79295443311427e-16
-3.1611084424065e-13
-2.85091700010573e-16
-3.15559663856324e-13
-2.90897036896165e-16
-3.1507375809629e-13
-2.96671478530586e-16
-3.14593513918838e-13
-3.02506599228617e-16
-3.14139518457327e-13
-3.08427727010613e-16
-3.13757514886864e-13
-3.14390404696735e-16
-3.13435798930654e-13
-3.20452845182952e-16
-3.13175818891334e-13
-3.26859416087852e-16
-3.13088523800524e-13
-3.33716912054332e-16
-3.1329613216955e-13
-3.40590188175227e-16
-3.13663845693378e-13
-3.4677799280234e-16
-3.13774003334827e-13
-3.52339356834629e-16
-3.13410501769827e-13
-3.58361154466044e-16
-3.12993717636878e-13
-3.64355836728125e-16
-3.12735389542408e-13
-3.69273767042483e-16
-3.12113118075342e-13
-3.75254789824745e-16
-3.11498425048174e-13
-3.83340401190112e-16
-3.11927100712552e-13
-3.91474857016264e-16
-3.13030115330688e-13
-3.98732805084708e-16
-3.13834699133199e-13
-4.05696131714326e-16
-3.14245640448565e-13
-4.12583897609541e-16
-3.14525706272644e-13
-4.19267943704578e-16
-3.14709367397422e-13
-4.26660925786209e-16
-3.15032988734345e-13
-4.37387265099169e-16
-3.16519536408246e-13
-4.52423253378875e-16
-3.20155373189407e-13
-4.68404080997438e-16
-3.25176803186114e-13
-4.80631766475003e-16
-3.29273000237688e-13
-4.89612635007814e-16
-3.31321133284014e-13
-5.01559350222854e-16
-3.33225947393397e-13
-5.18328072122506e-16
-3.37163123856109e-13
-5.37958618810949e-16
-3.43027129561143e-13
-5.60649414134828e-16
-3.50278893432047e-13
-5.86643193850473e-16
-3.58978767091654e-13
-6.15106040158451e-16
-3.68920894862148e-13
-6.44053463133188e-16
-3.79351054182794e-13
-6.7137051717102e-16
-3.89236194980253e-13
-6.99285127844602e-16
-3.9862103210121e-13
-7.27981762147524e-16
-4.081102046309e-13
-7.49881522959583e-16
-4.15937920197355e-13
-7.63654630935268e-16
-4.20049053242524e-13
-7.68786138017125e-16
-4.22082735257952e-13
-7.20619343365582e-16
-4.25051215489215e-13
-6.66993993691782e-16
-4.27258192308056e-13
-6.05819554303675e-16
-4.26083526973777e-13
-5.44217883637318e-16
-4.2226890948415e-13
-4.85592966933745e-16
-4.18590914060823e-13
-4.29631275412772e-16
-4.16233918428858e-13
-3.75520018265258e-16
-4.1522022098689e-13
-3.21191994033922e-16
-4.14656442639669e-13
-2.65802571057191e-16
-4.13062203118892e-13
-2.10965533759217e-16
-4.10463919123335e-13
-1.5802094092463e-16
-4.08864224655627e-13
-1.05789423275122e-16
-4.09368889346993e-13
-5.30802265443251e-17
-4.1070681843811e-13
-4.11438090448564e-13
-7.93666113261504e-18
-4.00750554932221e-13
-1.58428030722294e-17
-3.99934326922642e-13
-2.37145935906467e-17
-3.9913582387136e-13
-3.15587105614358e-17
-3.98339113220209e-13
-3.93822273494719e-17
-3.97604453797908e-13
-4.71805815928213e-17
-3.96910224887391e-13
-5.49594059235804e-17
-3.96237349398972e-13
-6.27173282846496e-17
-3.95589387228007e-13
-7.04380369361634e-17
-3.94919998339254e-13
-7.81215760952986e-17
-3.94201764509914e-13
-8.57787886119585e-17
-3.93467545442627e-13
-9.34186887801857e-17
-3.92754234041854e-13
-1.01040078972676e-16
-3.92069075510641e-13
-1.08624581962116e-16
-3.91379277901849e-13
-1.16151357462127e-16
-3.9063504320548e-13
-1.23624660339169e-16
-3.8982610432284e-13
-1.31083744567448e-16
-3.89012976149549e-13
-1.38582486570912e-16
-3.88295770538867e-13
-1.46122483014641e-16
-3.87716014267891e-13
-1.53619053834361e-16
-3.87174291959733e-13
-1.60994391370122e-16
-3.86516542389612e-13
-1.68308436665497e-16
-3.85741288148364e-13
-1.75672822179648e-16
-3.85006217167106e-13
-1.83046859401721e-16
-3.84364833172217e-13
-1.90371743773372e-16
-3.83729644979444e-13
-1.97662799079961e-16
-3.83067217518064e-13
-2.0490079224375e-16
-3.82378511534811e-13
-2.12069930081005e-16
-3.81642326151911e-13
-2.19204012750155e-16
-3.8087486525768e-13
-2.26329514860472e-16
-3.80117689262915e-13
-2.33394174695661e-16
-3.79354924182788e-13
-2.40481229030726e-16
-3.7860458835672e-13
-2.47735660860204e-16
-3.77996199389768e-13
-2.55014894285784e-16
-3.77519933188208e-13
-2.6213067736059e-16
-3.76985054744281e-13
-2.69120251949357e-16
-3.76316055684528e-13
-2.76109958138396e-16
-3.75607609617495e-13
-2.8305953132787e-16
-3.74906449959876e-13
-2.89837393463609e-16
-3.74128775034696e-13
-2.9654796931249e-16
-3.73266705771549e-13
-3.03497936087731e-16
-3.72515571997217e-13
-3.10625639040643e-16
-3.71979012486456e-13
-3.17548962251701e-16
-3.71447697573571e-13
-3.24264304564411e-16
-3.70754163762455e-13
-3.30985266561564e-16
-3.69997082810961e-13
-3.37766046598174e-16
-3.69291034788766e-13
-3.44541062174312e-16
-3.68628401556774e-13
-3.51282262996699e-16
-3.6796976090044e-13
-3.58055324202605e-16
-3.67329148565832e-13
-3.64877743349993e-16
-3.66736834300306e-13
-3.71717974501122e-16
-3.66184855786585e-13
-3.78617364771521e-16
-3.65674150529535e-13
-3.85750897956672e-16
-3.65278685255856e-13
-3.93195831596173e-16
-3.65080436488427e-13
-4.00640234856691e-16
-3.64989559912574e-13
-4.07580457475357e-16
-3.64726319414336e-13
-4.14059285222326e-16
-3.64145928788905e-13
-4.20855415880241e-16
-3.6352959293253e-13
-4.27618545261662e-16
-3.63018555685667e-13
-4.33600353534023e-16
-3.62264550553827e-13
-4.40335992371849e-16
-3.61517910058429e-13
-4.48565426884142e-16
-3.61469631999501e-13
-4.5681384036035e-16
-3.61870218970865e-13
-4.64422416484842e-16
-3.62070095293781e-13
-4.71807394796683e-16
-3.62006806907888e-13
-4.79123901157965e-16
-3.61855252098209e-13
-4.86284047842711e-16
-3.61639145841947e-13
-4.93945746770533e-16
-3.61518980396338e-13
-5.03985017994811e-16
-3.6217861805602e-13
-5.17093296557858e-16
-3.64273830847837e-13
-5.30854350729235e-16
-3.67290124139903e-13
-5.41907449918294e-16
-3.69682538385468e-13