/*--------------------------------*- C++ -*----------------------------------*\
| =========                 |                                                 |
| \\      /  F ield         | foam-extend: Open Source CFD                    |
|  \\    /   O peration     | Version:     4.1-20200408                       |
|   \\  /    A nd           | Web:         http://www.foam-extend.org         |
|    \\/     M anipulation  |                                                 |
\*---------------------------------------------------------------------------*/
FoamFile
{
    version     2.0;
    format      ascii;
    class       volScalarField;
    location    "0.0275000";
    object      sigmaCauchyEq;
}
// * * * * * * * * * * * * * * * * * * * * * * * * * * * * * * * * * * * * * //

dimensions      [1 -1 -2 0 0 0 0];

internalField   nonuniform List<scalar> 
1952
(
1.28002e+08
1.21859e+08
1.15626e+08
1.04176e+08
8.99436e+07
6.94684e+07
4.50238e+07
2.62058e+07
6.16399e+07
1.33029e+08
2.27556e+08
3.74675e+08
5.64344e+08
8.29503e+08
1.05442e+09
1.28609e+08
1.22936e+08
1.1693e+08
1.10826e+08
9.96433e+07
8.56784e+07
6.57072e+07
4.23465e+07
2.82243e+07
6.5745e+07
1.36898e+08
2.31332e+08
3.77974e+08
5.66848e+08
8.30708e+08
1.05212e+09
1.2352e+08
1.1974e+08
1.1382e+08
1.07806e+08
9.68144e+07
8.30385e+07
6.34442e+07
4.09045e+07
2.98643e+07
6.825e+07
1.39276e+08
2.33545e+08
3.79744e+08
5.67736e+08
8.31622e+08
1.05318e+09
1.20295e+08
1.18084e+08
1.12226e+08
1.06273e+08
9.54365e+07
8.17932e+07
6.25181e+07
4.0621e+07
3.12777e+07
6.98177e+07
1.40604e+08
2.34799e+08
3.80409e+08
5.6815e+08
8.32441e+08
1.05376e+09
1.18611e+08
1.17494e+08
1.11672e+08
1.05752e+08
9.50221e+07
8.14517e+07
6.24065e+07
4.09047e+07
3.22894e+07
7.06773e+07
1.41259e+08
2.35502e+08
3.8058e+08
5.6836e+08
8.33484e+08
1.05493e+09
1.18001e+08
1.17897e+08
1.12087e+08
1.06176e+08
9.54999e+07
8.19434e+07
6.30169e+07
4.16341e+07
3.28903e+07
7.08995e+07
1.41371e+08
2.35693e+08
3.8042e+08
5.6846e+08
8.34547e+08
1.05596e+09
1.18392e+08
1.19163e+08
1.13343e+08
1.07415e+08
9.67461e+07
8.31436e+07
6.42365e+07
4.27092e+07
3.31497e+07
7.05819e+07
1.41011e+08
2.35472e+08
3.80025e+08
5.68457e+08
8.35655e+08
1.05701e+09
1.19652e+08
1.2107e+08
1.15217e+08
1.09256e+08
9.85432e+07
8.48568e+07
6.58684e+07
4.40056e+07
3.32165e+07
6.98443e+07
1.40373e+08
2.34793e+08
3.79548e+08
5.68454e+08
8.3682e+08
1.05794e+09
1.21559e+08
1.23367e+08
1.17462e+08
1.11445e+08
1.00645e+08
8.68407e+07
6.76753e+07
4.53917e+07
3.31567e+07
6.88809e+07
1.39539e+08
2.33855e+08
3.78934e+08
5.68349e+08
8.37871e+08
1.05878e+09
1.23861e+08
1.26146e+08
1.20174e+08
1.14086e+08
1.03164e+08
8.92134e+07
6.97991e+07
4.70187e+07
3.30177e+07
6.76992e+07
1.3847e+08
2.32753e+08
3.78222e+08
5.68232e+08
8.38827e+08
1.05942e+09
1.26648e+08
1.29221e+08
1.23174e+08
1.16991e+08
1.05933e+08
9.17928e+07
7.21021e+07
4.87938e+07
3.29152e+07
6.64953e+07
1.37137e+08
2.31599e+08
3.77494e+08
5.68137e+08
8.39732e+08
1.05999e+09
1.29739e+08
1.32374e+08
1.26245e+08
1.19951e+08
1.08754e+08
9.4395e+07
7.44369e+07
5.05911e+07
3.28394e+07
6.52498e+07
1.35741e+08
2.30409e+08
3.76743e+08
5.6802e+08
8.40574e+08
1.06043e+09
1.3291e+08
1.35704e+08
1.29487e+08
1.23065e+08
1.11718e+08
9.71071e+07
7.68653e+07
5.24463e+07
3.28462e+07
6.39474e+07
1.3421e+08
2.29128e+08
3.75909e+08
5.67788e+08
8.41263e+08
1.06074e+09
1.36262e+08
1.39231e+08
1.32919e+08
1.26361e+08
1.14856e+08
9.99752e+07
7.94559e+07
5.44641e+07
3.30666e+07
6.25827e+07
1.32696e+08
2.27878e+08
3.75127e+08
5.6756e+08
8.41979e+08
1.06093e+09
1.39811e+08
1.42725e+08
1.36312e+08
1.29622e+08
1.17953e+08
1.02812e+08
8.20166e+07
5.64602e+07
3.34386e+07
6.12906e+07
1.31198e+08
2.26655e+08
3.74385e+08
5.67308e+08
8.42674e+08
1.06102e+09
1.43327e+08
1.46245e+08
1.39725e+08
1.32906e+08
1.21058e+08
1.05667e+08
8.45863e+07
5.847e+07
3.39599e+07
6.00229e+07
1.29682e+08
2.2542e+08
3.73613e+08
5.67004e+08
8.43291e+08
1.06103e+09
1.46869e+08
1.49865e+08
1.4323e+08
1.36282e+08
1.24248e+08
1.08602e+08
8.72425e+07
6.0574e+07
3.46779e+07
5.87937e+07
1.28136e+08
2.2418e+08
3.728e+08
5.66669e+08
8.43841e+08
1.06098e+09
1.50508e+08
1.53549e+08
1.46797e+08
1.39715e+08
1.27492e+08
1.11583e+08
8.99569e+07
6.27484e+07
3.55713e+07
5.76268e+07
1.26623e+08
2.22975e+08
3.72e+08
5.66346e+08
8.44354e+08
1.06092e+09
1.54213e+08
1.57291e+08
1.50416e+08
1.43199e+08
1.30784e+08
1.14611e+08
9.2729e+07
6.49836e+07
3.66264e+07
5.65378e+07
1.25125e+08
2.21765e+08
3.71178e+08
5.66019e+08
8.44827e+08
1.06083e+09
1.57975e+08
1.61138e+08
1.5414e+08
1.46782e+08
1.34164e+08
1.17721e+08
9.55581e+07
6.72825e+07
3.78569e+07
5.55338e+07
1.23678e+08
2.20573e+08
3.7037e+08
5.65713e+08
8.45282e+08
1.06072e+09
1.61843e+08
1.65068e+08
1.57944e+08
1.50436e+08
1.37607e+08
1.20892e+08
9.84344e+07
6.96435e+07
3.9278e+07
5.46712e+07
1.22355e+08
2.19487e+08
3.6966e+08
5.65504e+08
8.45801e+08
1.06061e+09
1.65797e+08
1.69021e+08
1.61779e+08
1.54116e+08
1.41093e+08
1.24102e+08
1.01337e+08
7.20317e+07
4.10616e+07
5.39641e+07
1.21083e+08
2.18458e+08
3.68998e+08
5.65368e+08
8.46335e+08
1.06053e+09
1.69777e+08
1.73122e+08
1.65766e+08
1.57929e+08
1.44718e+08
1.27429e+08
1.04338e+08
7.45484e+07
4.32142e+07
5.33931e+07
1.19825e+08
2.17438e+08
3.6836e+08
5.65274e+08
8.46815e+08
1.0605e+09
1.7391e+08
1.7744e+08
1.69971e+08
1.61951e+08
1.48549e+08
1.30961e+08
1.07544e+08
7.72979e+07
4.55563e+07
5.29549e+07
1.18562e+08
2.1641e+08
3.67737e+08
5.65257e+08
8.47229e+08
1.06054e+09
1.78261e+08
1.81975e+08
1.74393e+08
1.66178e+08
1.52581e+08
1.34681e+08
1.10908e+08
8.0208e+07
4.81003e+07
5.27273e+07
1.17351e+08
2.15459e+08
3.67191e+08
5.65386e+08
8.47512e+08
1.06065e+09
1.82834e+08
1.86706e+08
1.79008e+08
1.70584e+08
1.56785e+08
1.38564e+08
1.14436e+08
8.33243e+07
5.08245e+07
5.27339e+07
1.16222e+08
2.14597e+08
3.66763e+08
5.65662e+08
8.4792e+08
1.06089e+09
1.87604e+08
1.91619e+08
1.83809e+08
1.75166e+08
1.61177e+08
1.42611e+08
1.18117e+08
8.65951e+07
5.38353e+07
5.30161e+07
1.1515e+08
2.13752e+08
3.66419e+08
5.66013e+08
8.48463e+08
1.06116e+09
1.92558e+08
1.96811e+08
1.8889e+08
1.80019e+08
1.65835e+08
1.46889e+08
1.22007e+08
9.02254e+07
5.71113e+07
5.35431e+07
1.14151e+08
2.12928e+08
3.66154e+08
5.66456e+08
8.49251e+08
1.06166e+09
1.97791e+08
2.02244e+08
1.94207e+08
1.85112e+08
1.70726e+08
1.51393e+08
1.26125e+08
9.42082e+07
6.05e+07
5.43086e+07
1.13294e+08
2.12243e+08
3.66069e+08
5.6716e+08
8.50215e+08
1.06244e+09
2.03261e+08
2.07736e+08
1.99596e+08
1.90292e+08
1.7572e+08
1.56012e+08
1.30364e+08
9.84815e+07
6.41936e+07
5.53687e+07
1.12472e+08
2.11569e+08
3.66038e+08
5.67978e+08
8.51423e+08
1.06349e+09
2.08786e+08
2.13432e+08
2.05198e+08
1.95679e+08
1.80933e+08
1.60833e+08
1.34823e+08
1.02914e+08
6.80541e+07
5.66843e+07
1.11721e+08
2.1094e+08
3.66111e+08
5.68948e+08
8.52922e+08
1.06494e+09
2.14515e+08
2.19143e+08
2.10834e+08
2.01095e+08
1.86207e+08
1.65721e+08
1.39377e+08
1.07353e+08
7.19156e+07
5.82319e+07
1.11108e+08
2.10477e+08
3.6638e+08
5.70232e+08
8.54794e+08
1.06682e+09
2.20259e+08
2.24583e+08
2.16235e+08
2.06312e+08
1.91337e+08
1.70514e+08
1.43862e+08
1.1181e+08
7.58273e+07
5.99375e+07
1.10557e+08
2.10087e+08
3.66789e+08
5.71765e+08
8.56939e+08
1.0692e+09
2.25725e+08
2.29697e+08
2.21339e+08
2.11267e+08
1.96238e+08
1.75111e+08
1.48215e+08
1.16289e+08
7.97367e+07
6.16772e+07
1.09976e+08
2.09644e+08
3.67248e+08
5.73435e+08
8.59528e+08
1.07212e+09
2.30858e+08
2.34236e+08
2.25916e+08
2.15732e+08
2.00717e+08
1.79363e+08
1.52332e+08
1.2038e+08
8.32418e+07
6.32289e+07
1.09371e+08
2.09279e+08
3.67894e+08
5.75447e+08
8.62541e+08
1.07567e+09
2.3541e+08
2.37644e+08
2.29426e+08
2.19215e+08
2.04296e+08
1.82823e+08
1.55759e+08
1.23953e+08
8.6251e+07
6.44186e+07
1.08639e+08
2.08894e+08
3.68647e+08
5.77709e+08
8.66011e+08
1.07991e+09
2.38816e+08
2.39521e+08
2.3149e+08
2.21353e+08
2.06641e+08
1.85186e+08
1.58362e+08
1.26716e+08
8.8449e+07
6.48764e+07
1.07566e+08
2.08368e+08
3.69433e+08
5.80188e+08
8.69929e+08
1.08491e+09
2.40671e+08
2.39267e+08
2.31536e+08
2.21598e+08
2.07248e+08
1.86008e+08
1.5975e+08
1.2824e+08
8.94283e+07
6.41975e+07
1.0595e+08
2.07608e+08
3.70196e+08
5.82836e+08
8.74307e+08
1.09072e+09
2.40372e+08
2.36056e+08
2.28751e+08
2.19208e+08
2.05419e+08
1.84675e+08
1.59207e+08
1.28024e+08
8.87344e+07
6.18862e+07
1.03628e+08
2.06518e+08
3.70872e+08
5.85597e+08
8.79128e+08
1.09736e+09
2.37073e+08
2.28935e+08
2.22211e+08
2.13326e+08
2.00354e+08
1.80464e+08
1.56087e+08
1.25497e+08
8.58323e+07
5.7263e+07
1.00372e+08
2.04962e+08
3.71349e+08
5.88358e+08
8.84318e+08
1.10485e+09
2.29799e+08
2.16785e+08
2.10842e+08
2.02974e+08
1.91162e+08
1.72619e+08
1.49759e+08
1.20112e+08
8.0242e+07
4.96224e+07
9.61666e+07
2.02891e+08
3.71519e+08
5.90962e+08
8.89779e+08
1.11316e+09
2.17397e+08
1.98323e+08
1.93425e+08
1.87106e+08
1.76936e+08
1.60437e+08
1.39723e+08
1.11549e+08
7.18561e+07
3.83883e+07
9.14486e+07
2.00392e+08
3.7129e+08
5.93216e+08
8.95325e+08
1.12222e+09
1.9852e+08
1.72222e+08
1.68761e+08
1.64819e+08
1.57035e+08
1.4368e+08
1.2609e+08
1.00312e+08
6.20507e+07
2.49842e+07
8.79374e+07
1.97994e+08
3.70695e+08
5.94891e+08
9.00674e+08
1.13187e+09
1.71709e+08
1.37217e+08
1.35915e+08
1.35935e+08
1.31848e+08
1.23567e+08
1.10871e+08
8.94868e+07
5.69009e+07
2.48685e+07
8.96734e+07
1.97019e+08
3.70049e+08
5.95802e+08
9.05476e+08
1.14178e+09
1.35359e+08
9.3126e+07
9.57581e+07
1.03368e+08
1.05589e+08
1.05987e+08
1.01131e+08
8.80099e+07
6.90704e+07
5.3204e+07
1.03091e+08
2.00293e+08
3.70368e+08
5.95992e+08
9.09365e+08
1.15148e+09
8.80441e+07
4.80147e+07
6.01967e+07
8.22396e+07
9.40227e+07
1.06127e+08
1.11194e+08
1.08807e+08
1.04693e+08
9.8443e+07
1.33796e+08
2.1271e+08
3.73852e+08
5.95988e+08
9.11971e+08
1.16024e+09
2.9833e+07
6.67609e+07
8.05922e+07
1.06199e+08
1.22126e+08
1.4025e+08
1.5128e+08
1.56116e+08
1.60768e+08
1.5874e+08
1.84203e+08
2.40928e+08
3.8466e+08
5.96998e+08
9.12144e+08
1.16681e+09
4.97755e+07
1.46962e+08
1.55568e+08
1.74813e+08
1.8871e+08
2.06233e+08
2.1849e+08
2.26352e+08
2.3518e+08
2.35317e+08
2.55213e+08
2.92006e+08
4.10847e+08
6.03375e+08
9.09793e+08
1.16887e+09
1.37846e+08
2.48145e+08
2.5412e+08
2.69014e+08
2.80404e+08
2.95731e+08
3.07341e+08
3.16215e+08
3.27056e+08
3.29001e+08
3.47078e+08
3.70924e+08
4.65268e+08
6.29615e+08
9.15805e+08
1.16874e+09
2.41526e+08
3.64376e+08
3.68797e+08
3.80844e+08
3.90259e+08
4.03438e+08
4.1385e+08
4.22925e+08
4.34671e+08
4.38383e+08
4.56935e+08
4.74964e+08
5.53287e+08
6.91426e+08
9.51453e+08
1.18292e+09
3.59019e+08
4.92534e+08
4.9593e+08
5.05927e+08
5.13805e+08
5.25012e+08
5.34068e+08
5.42882e+08
5.54543e+08
5.59387e+08
5.78214e+08
5.9319e+08
6.61386e+08
7.78831e+08
1.01256e+09
1.21381e+09
4.88009e+08
6.28576e+08
6.31287e+08
6.39716e+08
6.46405e+08
6.55788e+08
6.63434e+08
6.7162e+08
6.82237e+08
6.87244e+08
7.04693e+08
7.1597e+08
7.74013e+08
8.70325e+08
1.07334e+09
1.23747e+09
6.24701e+08
7.67364e+08
7.69624e+08
7.76769e+08
7.82466e+08
7.902e+08
7.96473e+08
8.03779e+08
8.12664e+08
8.17126e+08
8.31656e+08
8.38417e+08
8.85299e+08
9.59112e+08
1.12817e+09
1.25251e+09
7.64061e+08
9.02607e+08
9.04542e+08
9.10581e+08
9.15442e+08
9.21726e+08
9.26735e+08
9.33048e+08
9.39897e+08
9.43576e+08
9.54246e+08
9.56606e+08
9.91681e+08
1.04261e+09
1.17598e+09
1.2582e+09
8.99849e+08
1.02706e+09
1.02872e+09
1.03374e+09
1.0376e+09
1.04254e+09
1.04641e+09
1.05165e+09
1.05656e+09
1.05965e+09
1.06642e+09
1.06586e+09
1.08926e+09
1.11889e+09
1.21499e+09
1.2582e+09
1.02482e+09
1.13268e+09
1.134e+09
1.13785e+09
1.14065e+09
1.14413e+09
1.14686e+09
1.15087e+09
1.1542e+09
1.15701e+09
1.16086e+09
1.15995e+09
1.17331e+09
1.18761e+09
1.24563e+09
1.25816e+09
1.13102e+09
1.21059e+09
1.21147e+09
1.21414e+09
1.21613e+09
1.21838e+09
1.22043e+09
1.22349e+09
1.22617e+09
1.22926e+09
1.2321e+09
1.23332e+09
1.23963e+09
1.24553e+09
1.25883e+09
1.25804e+09
1.20953e+09
1.2577e+09
1.25843e+09
1.26031e+09
1.26102e+09
1.26106e+09
1.26109e+09
1.26111e+09
1.26109e+09
1.26104e+09
1.26089e+09
1.26064e+09
1.26021e+09
1.2596e+09
1.25876e+09
1.25783e+09
1.25707e+09
1.26096e+09
1.26097e+09
1.261e+09
1.26103e+09
1.26105e+09
1.26107e+09
1.26107e+09
1.26103e+09
1.26095e+09
1.26078e+09
1.2605e+09
1.26004e+09
1.25941e+09
1.25851e+09
1.2575e+09
1.26094e+09
1.26082e+09
1.26083e+09
1.26085e+09
1.26086e+09
1.26087e+09
1.26086e+09
1.26084e+09
1.26077e+09
1.26065e+09
1.26043e+09
1.26011e+09
1.25961e+09
1.25895e+09
1.25805e+09
1.25705e+09
1.26081e+09
1.26048e+09
1.26048e+09
1.26049e+09
1.26049e+09
1.26047e+09
1.26044e+09
1.26038e+09
1.26027e+09
1.26011e+09
1.25985e+09
1.25949e+09
1.25896e+09
1.25828e+09
1.25741e+09
1.25649e+09
1.26047e+09
1.25992e+09
1.25991e+09
1.2599e+09
1.25988e+09
1.25985e+09
1.25979e+09
1.2597e+09
1.25957e+09
1.25937e+09
1.25908e+09
1.25868e+09
1.25814e+09
1.25747e+09
1.25668e+09
1.25588e+09
1.25991e+09
1.25914e+09
1.25912e+09
1.2591e+09
1.25907e+09
1.25902e+09
1.25894e+09
1.25883e+09
1.25867e+09
1.25845e+09
1.25814e+09
1.25773e+09
1.25722e+09
1.25658e+09
1.2559e+09
1.25527e+09
1.25914e+09
1.25818e+09
1.25816e+09
1.25813e+09
1.25808e+09
1.25802e+09
1.25793e+09
1.2578e+09
1.25763e+09
1.25739e+09
1.25709e+09
1.25669e+09
1.25622e+09
1.25565e+09
1.25511e+09
1.25465e+09
1.25818e+09
1.25711e+09
1.25708e+09
1.25704e+09
1.25698e+09
1.25689e+09
1.25679e+09
1.25665e+09
1.25647e+09
1.25624e+09
1.25595e+09
1.25559e+09
1.25517e+09
1.2547e+09
1.25431e+09
1.25404e+09
1.25711e+09
1.25598e+09
1.25594e+09
1.25589e+09
1.25581e+09
1.25571e+09
1.25559e+09
1.25544e+09
1.25526e+09
1.25504e+09
1.25477e+09
1.25445e+09
1.25411e+09
1.25376e+09
1.25353e+09
1.25345e+09
1.25599e+09
1.25485e+09
1.25481e+09
1.25474e+09
1.25465e+09
1.25454e+09
1.2544e+09
1.25423e+09
1.25404e+09
1.25383e+09
1.25358e+09
1.25331e+09
1.25306e+09
1.25283e+09
1.25277e+09
1.25289e+09
1.25487e+09
1.25377e+09
1.25372e+09
1.25364e+09
1.25355e+09
1.25342e+09
1.25326e+09
1.25308e+09
1.25288e+09
1.25267e+09
1.25243e+09
1.25221e+09
1.25203e+09
1.25193e+09
1.25204e+09
1.25234e+09
1.25378e+09
1.25275e+09
1.2527e+09
1.25262e+09
1.25252e+09
1.25239e+09
1.25223e+09
1.25204e+09
1.25183e+09
1.25161e+09
1.25139e+09
1.25121e+09
1.25109e+09
1.2511e+09
1.25135e+09
1.2518e+09
1.25276e+09
1.25182e+09
1.25176e+09
1.25169e+09
1.25159e+09
1.25146e+09
1.2513e+09
1.25112e+09
1.25092e+09
1.25072e+09
1.25052e+09
1.25041e+09
1.25035e+09
1.25041e+09
1.2507e+09
1.25123e+09
1.25183e+09
1.25097e+09
1.25092e+09
1.25084e+09
1.25074e+09
1.25062e+09
1.2505e+09
1.25038e+09
1.25025e+09
1.25011e+09
1.24901e+09
1.21384e+09
1.20522e+09
1.24789e+09
1.25021e+09
1.25066e+09
1.25099e+09
1.25029e+09
1.25025e+09
1.2502e+09
1.25012e+09
1.25004e+09
1.22569e+09
1.18228e+09
1.13505e+09
1.09419e+09
1.06332e+09
1.05368e+09
1.06453e+09
1.11544e+09
1.20685e+09
1.25021e+09
1.2503e+09
1.13644e+09
1.12226e+09
1.10275e+09
1.07597e+09
1.04749e+09
1.01626e+09
9.86906e+08
9.58421e+08
9.40232e+08
9.32248e+08
9.40713e+08
9.68886e+08
1.03249e+09
1.10954e+09
1.22553e+09
1.14056e+09
9.39518e+08
9.297e+08
9.17051e+08
9.00655e+08
8.83568e+08
8.61858e+08
8.40606e+08
8.22809e+08
8.16701e+08
8.22738e+08
8.46845e+08
8.87273e+08
9.55054e+08
1.03777e+09
1.14048e+09
9.42468e+08
7.84902e+08
7.77124e+08
7.67023e+08
7.54516e+08
7.42481e+08
7.30144e+08
7.2119e+08
7.1716e+08
7.23881e+08
7.41761e+08
7.74558e+08
8.21734e+08
8.88567e+08
9.68363e+08
1.06647e+09
7.87384e+08
6.55844e+08
6.51516e+08
6.45913e+08
6.39702e+08
6.3436e+08
6.30046e+08
6.29622e+08
6.35221e+08
6.50486e+08
6.76246e+08
7.14474e+08
7.64611e+08
8.28848e+08
9.04027e+08
9.91405e+08
6.57367e+08
5.53962e+08
5.5214e+08
5.49649e+08
5.48056e+08
5.47939e+08
5.50711e+08
5.57871e+08
5.71481e+08
5.93165e+08
6.24062e+08
6.64491e+08
7.14625e+08
7.74653e+08
8.43283e+08
9.21111e+08
5.54845e+08
4.72687e+08
4.73365e+08
4.73971e+08
4.76802e+08
4.81401e+08
4.89882e+08
5.02486e+08
5.21511e+08
5.47003e+08
5.80474e+08
6.21049e+08
6.69386e+08
7.24528e+08
7.86207e+08
8.54337e+08
4.72863e+08
4.09284e+08
4.11994e+08
4.15065e+08
4.21414e+08
4.29678e+08
4.42498e+08
4.58967e+08
4.81538e+08
5.09048e+08
5.43315e+08
5.82622e+08
6.28057e+08
6.78035e+08
7.32801e+08
7.92207e+08
4.08868e+08
3.60082e+08
3.64483e+08
3.6958e+08
3.78715e+08
3.89724e+08
4.05561e+08
4.24399e+08
4.48855e+08
4.76927e+08
5.10682e+08
5.47865e+08
5.89847e+08
6.34711e+08
6.82972e+08
7.34498e+08
3.59135e+08
3.22366e+08
3.28033e+08
3.34618e+08
3.4572e+08
3.58552e+08
3.76241e+08
3.96288e+08
4.21415e+08
4.49069e+08
4.81479e+08
5.16074e+08
5.54395e+08
5.94399e+08
6.36717e+08
6.81347e+08
3.20998e+08
2.93656e+08
3.00192e+08
3.07782e+08
3.20122e+08
3.33991e+08
3.5257e+08
3.72924e+08
3.97822e+08
4.24387e+08
4.54931e+08
4.86732e+08
5.21403e+08
5.56891e+08
5.93863e+08
6.32458e+08
2.91975e+08
2.71945e+08
2.78975e+08
2.87124e+08
3.00059e+08
3.14315e+08
3.33036e+08
3.53046e+08
3.77099e+08
4.02165e+08
4.30562e+08
4.59537e+08
4.90703e+08
5.22076e+08
5.54314e+08
5.8771e+08
2.70065e+08
2.55567e+08
2.62771e+08
2.71106e+08
2.84121e+08
2.98261e+08
3.16569e+08
3.35783e+08
3.58585e+08
3.81915e+08
4.08041e+08
4.3426e+08
4.62134e+08
4.89793e+08
5.17859e+08
5.46768e+08
2.53591e+08
2.43181e+08
2.50302e+08
2.5853e+08
2.7123e+08
2.84888e+08
3.02393e+08
3.20516e+08
3.41818e+08
3.63304e+08
3.87142e+08
4.10738e+08
4.3557e+08
4.59911e+08
4.8433e+08
5.09396e+08
2.41196e+08
2.33717e+08
2.40565e+08
2.4847e+08
2.60575e+08
2.73499e+08
2.89947e+08
3.068e+08
3.26472e+08
3.46088e+08
3.67689e+08
3.88829e+08
4.10878e+08
4.32267e+08
4.53508e+08
4.75292e+08
2.31791e+08
2.26335e+08
2.32779e+08
2.40216e+08
2.51542e+08
2.63575e+08
2.78813e+08
2.94309e+08
3.12301e+08
3.30082e+08
3.49542e+08
3.68408e+08
3.87929e+08
4.06701e+08
4.25175e+08
4.44151e+08
2.24513e+08
2.20379e+08
2.26342e+08
2.33223e+08
2.43665e+08
2.54724e+08
2.68681e+08
2.82794e+08
2.99117e+08
3.15136e+08
3.32579e+08
3.4936e+08
3.666e+08
3.83066e+08
3.99146e+08
4.1574e+08
2.18692e+08
2.1535e+08
2.20793e+08
2.27077e+08
2.3659e+08
2.46646e+08
2.59308e+08
2.72061e+08
2.86769e+08
3.01124e+08
3.16687e+08
3.3157e+08
3.46761e+08
3.61194e+08
3.75196e+08
3.89756e+08
2.13811e+08
2.10869e+08
2.15787e+08
2.21464e+08
2.30049e+08
2.39112e+08
2.5051e+08
2.61957e+08
2.75129e+08
2.87934e+08
3.01766e+08
3.14933e+08
3.28293e+08
3.40945e+08
3.53154e+08
3.65993e+08
2.09484e+08
2.06662e+08
2.11066e+08
2.16152e+08
2.23839e+08
2.3195e+08
2.42141e+08
2.52358e+08
2.64095e+08
2.75471e+08
2.87721e+08
2.99344e+08
3.11074e+08
3.22164e+08
3.32825e+08
3.44201e+08
2.05426e+08
2.02528e+08
2.06447e+08
2.10973e+08
2.17811e+08
2.25027e+08
2.34089e+08
2.43165e+08
2.53577e+08
2.63651e+08
2.74465e+08
2.84709e+08
2.94992e+08
3.04719e+08
3.14045e+08
3.24182e+08
2.01435e+08
1.98333e+08
2.01801e+08
2.05807e+08
2.11859e+08
2.18249e+08
2.2627e+08
2.34302e+08
2.43503e+08
2.524e+08
2.61923e+08
2.7094e+08
2.79945e+08
2.88485e+08
2.96662e+08
3.05752e+08
1.97371e+08
1.93989e+08
1.97046e+08
2.00576e+08
2.05911e+08
2.11548e+08
2.18621e+08
2.25708e+08
2.33814e+08
2.41656e+08
2.50022e+08
2.57954e+08
2.65834e+08
2.73342e+08
2.8053e+08
2.88732e+08
1.93146e+08
1.89444e+08
1.9213e+08
1.95232e+08
1.9992e+08
2.0488e+08
2.11098e+08
2.17337e+08
2.24462e+08
2.31364e+08
2.38704e+08
2.4568e+08
2.52575e+08
2.5919e+08
2.65532e+08
2.72985e+08
1.88708e+08
1.84675e+08
1.8703e+08
1.8975e+08
1.9386e+08
1.98216e+08
2.03671e+08
2.09157e+08
2.15407e+08
2.2148e+08
2.27912e+08
2.34053e+08
2.40086e+08
2.45931e+08
2.51546e+08
2.58364e+08
1.84033e+08
1.79678e+08
1.8174e+08
1.84122e+08
1.8772e+08
1.91542e+08
1.96321e+08
2.01143e+08
2.06621e+08
2.11965e+08
2.176e+08
2.23014e+08
2.28299e+08
2.33482e+08
2.38475e+08
2.44759e+08
1.79119e+08
1.74462e+08
1.76267e+08
1.78353e+08
1.815e+08
1.84856e+08
1.89039e+08
1.9328e+08
1.98079e+08
2.02789e+08
2.07726e+08
2.12511e+08
2.17148e+08
2.21765e+08
2.26227e+08
2.32059e+08
1.73975e+08
1.69049e+08
1.70628e+08
1.72457e+08
1.7521e+08
1.78159e+08
1.81822e+08
1.85558e+08
1.89764e+08
1.93924e+08
1.98257e+08
2.025e+08
2.06577e+08
2.10711e+08
2.1472e+08
2.20173e+08
1.68624e+08
1.63463e+08
1.64847e+08
1.66454e+08
1.68863e+08
1.71461e+08
1.74671e+08
1.77971e+08
1.81663e+08
1.85351e+08
1.8916e+08
1.9294e+08
1.96537e+08
2.00261e+08
2.03887e+08
2.09021e+08
1.63091e+08
1.57734e+08
1.58949e+08
1.60365e+08
1.62477e+08
1.64773e+08
1.67591e+08
1.70519e+08
1.73766e+08
1.7705e+08
1.80409e+08
1.83796e+08
1.86985e+08
1.90363e+08
1.93663e+08
1.98531e+08
1.57409e+08
1.51895e+08
1.52963e+08
1.54216e+08
1.56072e+08
1.58111e+08
1.60591e+08
1.63201e+08
1.66067e+08
1.69009e+08
1.71984e+08
1.7504e+08
1.77882e+08
1.80972e+08
1.83999e+08
1.88646e+08
1.51608e+08
1.45977e+08
1.4692e+08
1.48033e+08
1.49669e+08
1.51489e+08
1.53679e+08
1.5602e+08
1.58559e+08
1.61214e+08
1.63863e+08
1.66644e+08
1.69194e+08
1.72047e+08
1.74846e+08
1.79311e+08
1.45723e+08
1.40014e+08
1.40848e+08
1.41844e+08
1.43291e+08
1.44925e+08
1.46866e+08
1.48981e+08
1.51242e+08
1.53657e+08
1.5603e+08
1.58585e+08
1.60892e+08
1.63552e+08
1.66163e+08
1.70482e+08
1.39787e+08
1.34039e+08
1.34779e+08
1.35675e+08
1.36958e+08
1.38436e+08
1.40164e+08
1.42088e+08
1.44112e+08
1.46329e+08
1.48471e+08
1.50841e+08
1.52948e+08
1.55456e+08
1.57916e+08
1.6212e+08
1.33836e+08
1.28085e+08
1.28745e+08
1.29555e+08
1.30696e+08
1.32041e+08
1.33584e+08
1.35349e+08
1.3717e+08
1.39224e+08
1.41172e+08
1.43395e+08
1.4534e+08
1.47731e+08
1.50072e+08
1.54191e+08
1.27902e+08
1.22188e+08
1.22776e+08
1.23512e+08
1.24529e+08
1.25759e+08
1.27141e+08
1.2877e+08
1.30417e+08
1.32337e+08
1.34122e+08
1.3623e+08
1.38046e+08
1.40351e+08
1.42606e+08
1.46667e+08
1.22022e+08
1.16384e+08
1.16907e+08
1.17577e+08
1.18483e+08
1.19611e+08
1.2085e+08
1.22363e+08
1.23857e+08
1.25665e+08
1.27313e+08
1.29331e+08
1.31047e+08
1.33295e+08
1.35491e+08
1.39524e+08
1.16233e+08
1.10711e+08
1.11175e+08
1.11784e+08
1.12588e+08
1.13623e+08
1.14732e+08
1.16139e+08
1.17496e+08
1.19207e+08
1.20738e+08
1.22687e+08
1.24327e+08
1.26542e+08
1.28709e+08
1.3274e+08
1.10574e+08
1.05211e+08
1.05619e+08
1.0617e+08
1.06876e+08
1.07822e+08
1.08808e+08
1.10115e+08
1.11343e+08
1.12967e+08
1.14391e+08
1.16286e+08
1.17869e+08
1.20074e+08
1.2224e+08
1.26298e+08
1.05087e+08
9.99288e+07
1.00283e+08
1.00774e+08
1.01386e+08
1.02241e+08
1.03106e+08
1.0431e+08
1.05413e+08
1.06948e+08
1.08272e+08
1.10119e+08
1.11659e+08
1.13871e+08
1.16064e+08
1.20178e+08
9.98194e+07
9.49151e+07
9.52146e+07
9.56432e+07
9.61604e+07
9.6918e+07
9.76592e+07
9.87518e+07
9.9724e+07
1.01163e+08
1.02382e+08
1.04179e+08
1.05684e+08
1.07915e+08
1.10163e+08
1.14367e+08
9.48202e+07
9.02231e+07
9.04674e+07
9.08281e+07
9.12479e+07
9.18976e+07
9.25093e+07
9.34744e+07
9.43055e+07
9.56283e+07
9.67314e+07
9.8464e+07
9.99305e+07
1.02186e+08
1.04515e+08
1.08842e+08
9.0144e+07
8.59102e+07
8.60984e+07
8.63848e+07
8.67042e+07
8.72328e+07
8.7707e+07
8.85222e+07
8.91964e+07
9.03731e+07
9.13373e+07
9.29776e+07
9.43905e+07
9.66618e+07
9.90965e+07
1.03582e+08
8.58483e+07
8.20357e+07
8.21677e+07
8.23736e+07
8.25905e+07
8.2984e+07
8.33129e+07
8.39518e+07
8.44505e+07
8.54403e+07
8.62337e+07
8.77354e+07
8.90623e+07
9.1324e+07
9.38789e+07
9.85583e+07
8.19924e+07
7.8659e+07
7.87364e+07
7.88576e+07
7.89731e+07
7.92195e+07
7.93989e+07
7.98346e+07
8.01402e+07
8.0894e+07
8.1477e+07
8.27733e+07
8.39609e+07
8.61627e+07
8.88353e+07
9.37267e+07
7.86353e+07
7.58367e+07
7.58637e+07
7.58993e+07
7.59199e+07
7.60129e+07
7.60461e+07
7.62572e+07
7.63587e+07
7.68246e+07
7.71549e+07
7.81558e+07
7.91233e+07
8.11773e+07
8.39327e+07
8.90346e+07
7.58325e+07
7.36162e+07
7.36001e+07
7.35545e+07
7.34932e+07
7.34362e+07
7.33383e+07
7.33166e+07
7.32187e+07
7.33541e+07
7.33956e+07
7.39883e+07
7.46163e+07
7.63564e+07
7.9072e+07
8.43767e+07
7.36304e+07
7.20236e+07
7.19745e+07
7.18575e+07
7.17344e+07
7.15425e+07
7.13428e+07
7.11024e+07
7.08367e+07
7.06315e+07
7.0386e+07
7.04702e+07
7.06346e+07
7.17858e+07
7.41609e+07
7.95742e+07
7.20538e+07
7.1067e+07
7.09981e+07
7.08245e+07
7.06675e+07
7.03673e+07
7.0113e+07
6.9694e+07
6.93333e+07
6.88383e+07
6.84016e+07
6.79955e+07
6.77323e+07
6.80882e+07
6.97384e+07
7.47398e+07
7.11096e+07
7.09529e+07
7.08756e+07
7.06605e+07
7.04933e+07
7.0113e+07
6.98445e+07
6.92938e+07
6.89053e+07
6.81981e+07
6.7684e+07
6.69054e+07
6.63674e+07
6.59304e+07
6.64696e+07
6.96851e+07
7.10045e+07
7.12132e+07
7.11345e+07
7.09033e+07
7.07363e+07
7.03241e+07
7.00569e+07
6.94522e+07
6.90616e+07
6.82643e+07
6.77275e+07
6.6783e+07
6.61299e+07
6.52909e+07
6.52045e+07
6.6862e+07
7.12683e+07
)
;

boundaryField
{
    wireUpstream
    {
        type            calculated;
        value           nonuniform List<scalar> 
16
(
7.15507e+07
7.14763e+07
7.1231e+07
7.10772e+07
7.06349e+07
7.03899e+07
6.97316e+07
6.93675e+07
6.84763e+07
6.79509e+07
6.68285e+07
6.60963e+07
6.48651e+07
6.41977e+07
6.38016e+07
7.16083e+07
)
;
    }
    wireDownstream
    {
        type            calculated;
        value           nonuniform List<scalar> 
16
(
1.28256e+08
1.22098e+08
1.15858e+08
1.04382e+08
9.01269e+07
6.96045e+07
4.50504e+07
2.5909e+07
6.12853e+07
1.32761e+08
2.27288e+08
3.74469e+08
5.64313e+08
8.30342e+08
1.05874e+09
1.28863e+08
)
;
    }
    wireTopContact
    {
        type            calculated;
        value           nonuniform List<scalar> 
122
(
1.05376e+09
1.0548e+09
1.05534e+09
1.0565e+09
1.0575e+09
1.05853e+09
1.05945e+09
1.06026e+09
1.06088e+09
1.06142e+09
1.06184e+09
1.06212e+09
1.06227e+09
1.06234e+09
1.06233e+09
1.06225e+09
1.06216e+09
1.06205e+09
1.06191e+09
1.06177e+09
1.06166e+09
1.0616e+09
1.0616e+09
1.06159e+09
1.06161e+09
1.06186e+09
1.06234e+09
1.06309e+09
1.06412e+09
1.06553e+09
1.06738e+09
1.06973e+09
1.07261e+09
1.07612e+09
1.08033e+09
1.08529e+09
1.09106e+09
1.09768e+09
1.10517e+09
1.11349e+09
1.12259e+09
1.13234e+09
1.14242e+09
1.15237e+09
1.16148e+09
1.16869e+09
1.17165e+09
1.17116e+09
1.18401e+09
1.21513e+09
1.23819e+09
1.25271e+09
1.25816e+09
1.25816e+09
1.25811e+09
1.25799e+09
1.25778e+09
1.25746e+09
1.25702e+09
1.25646e+09
1.25585e+09
1.25523e+09
1.25461e+09
1.254e+09
1.25341e+09
1.25285e+09
1.25232e+09
1.25178e+09
1.25122e+09
1.25066e+09
1.25021e+09
1.22493e+09
1.14097e+09
1.06746e+09
9.92283e+08
9.21899e+08
8.55005e+08
7.92789e+08
7.34998e+08
6.818e+08
6.32859e+08
5.88083e+08
5.47109e+08
5.09712e+08
4.75586e+08
4.44418e+08
4.15988e+08
3.89978e+08
3.66194e+08
3.44378e+08
3.24336e+08
3.05884e+08
2.88841e+08
2.73076e+08
2.58434e+08
2.4481e+08
2.32093e+08
2.20189e+08
2.09021e+08
1.98515e+08
1.88616e+08
1.79266e+08
1.70422e+08
1.62047e+08
1.54102e+08
1.46564e+08
1.39405e+08
1.32606e+08
1.26149e+08
1.20014e+08
1.14189e+08
1.08652e+08
1.03385e+08
9.83617e+07
9.35411e+07
8.88757e+07
8.42824e+07
7.96394e+07
7.50694e+07
7.02977e+07
6.74883e+07
1.0569e+09
)
;
    }
    front
    {
        type            wedge;
    }
    back
    {
        type            wedge;
    }
}


// ************************************************************************* //
