/*--------------------------------*- C++ -*----------------------------------*\
  =========                 |
  \\      /  F ield         | OpenFOAM: The Open Source CFD Toolbox
   \\    /   O peration     | Website:  https://openfoam.org
    \\  /    A nd           | Version:  8
     \\/     M anipulation  |
\*---------------------------------------------------------------------------*/
FoamFile
{
    version     2.0;
    format      ascii;
    class       volScalarField;
    location    "0.0585000";
    object      p;
}
// * * * * * * * * * * * * * * * * * * * * * * * * * * * * * * * * * * * * * //

dimensions      [0 2 -2 0 0 0 0];

internalField   nonuniform List<scalar> 
600
(
1417493.30123146
4317897.13481402
7321842.40436701
10400134.4687014
13559767.3436548
16806655.2303428
20144505.7815765
23576877.0055321
27107418.121177
30740233.797013
34479675.4800957
38330386.7024258
42297118.3645958
46385088.4131942
50599823.1436009
54947194.9742664
59433293.4331908
64064696.102649
68848400.1625099
73791892.4685794
78903061.7452716
84190334.4432549
89662745.5405711
95330014.7123646
101202419.589979
107290933.787069
113607447.465406
120164744.496395
126976419.020406
134057073.612284
141422600.790008
149090113.996556
157078024.285209
165405982.0872
174095598.965966
183170276.398535
192655477.966263
202578088.03262
212968104.548874
223858128.331105
235284098.646614
247283234.824789
259897998.356619
273174522.172977
287164564.703504
301919883.964762
317501339.11741
333974939.851998
351415773.47076
369895924.145751
389501827.989122
410327449.032582
432480531.970627
456058426.948286
481178704.664367
507969224.06179
536577031.29456
567119195.615301
599728748.281858
634521792.654653
671647732.247328
710973169.073419
752297254.31531
795373735.347422
839906101.956791
885068067.034409
930246059.683779
974813383.478908
1018138059.52777
1059126036.97826
1097237890.43091
1131931785.72341
1162659857.53337
1188992748.23955
1210719582.39468
1227614501.87785
1239526672.39432
1246381358.3181
1247963385.6046
1243983041.18485
1234140347.69418
1217860641.75665
1194022480.11386
1161827391.35936
1117950121.99072
1062658509.45571
985116828.736396
916211401.761637
844516359.359826
774479203.245538
703668128.098066
632704565.04698
561101872.116311
488886454.223013
415887907.993701
342104623.404263
267497841.550674
192056387.829179
115857061.048194
38852388.0801472
1432463.49417985
4336112.60743295
7347364.09761513
10429141.890833
13590411.1987583
16838159.3515918
20176512.4174682
23609186.8580652
27140007.0928833
30773079.755352
34512775.4568715
38363708.4943087
42330705.9294548
46418951.1033072
50633965.6364794
54981589.729141
59467964.8612151
64099653.6942149
68883654.2946689
73827425.5321265
78938881.0105552
84226452.9705824
89699173.8952524
95366727.5301944
101239411.694622
107328228.082809
113645045.022471
120202612.263438
127014543.706141
134095480.598896
141461275.980822
149129020.79007
157117094.528548
165445260.535595
174135058.262038
183209876.198187
192695033.000934
202617683.633384
213007672.584121
223897626.31017
235323083.000597
247321900.07583
259936176.138455
273212196.438397
287200720.304354
301954962.649995
317534979.171584
334007138.038001
351444531.20196
369921944.000965
389524493.559044
410346735.426602
432492728.430605
456064465.559087
481177657.713225
507961120.98731
536555059.014644
567083665.035131
599675046.166454
634452070.33848
671526845.57694
710800974.119645
752075104.146208
795106718.418289
839546989.12391
884658454.178963
929793204.920779
974331977.525767
1017589172.69173
1058577934.97252
1096692769.87955
1131395379.73495
1162145390.52099
1188523212.79
1210295048.77436
1227243865.09696
1239218250.1515
1246129629.40894
1247765947.2743
1243845702.50086
1234050603.7058
1217817939.07358
1194017440.63153
1161841841.70119
1117995462.01976
1062772175.43395
985331673.98095
916410263.626646
844689451.366058
774611331.698299
703776014.79562
632799121.971791
561177206.534994
488942148.679143
415931258.733294
342131610.291239
267510783.153325
192054857.873572
115830225.265989
38759202.9051468
1434191.0038972
4340650.26922798
7352299.41238471
10434086.0997694
13595678.54141
16843701.2747007
20182169.770576
23614833.3477447
27145594.6461786
30778580.9997511
34518166.4006429
38368963.9959799
42335834.4202881
46423953.3341034
50638827.3457695
54986285.4306405
59472490.5563653
64104004.3771816
68887819.0286281
73831381.0152707
78942610.7489317
84229947.861899
89702419.8803961
95369689.7852881
101242062.960165
107330558.262408
113647028.52943
120204201.342033
127015703.23386
134096191.227992
141461495.315391
149128683.137206
157116128.969587
165443639.384091
174132726.196434
183206737.935719
192690947.453081
202612610.465222
213001528.228808
223890258.19681
235314212.636837
247311478.400201
259924067.154102
273198146.190961
287184172.315949
301935862.372755
317513103.577243
333982041.882517
351415174.497162
369888184.556232
389485981.759524
410302684.872042
432441279.917982
456005223.417608
481110108.738524
507883903.220142
536464739.370093
566978364.452644
599552462.495431
634306733.60685
671343500.062446
710574020.127774
751805166.820593
794789248.497774
839171467.095891
884237226.419612
929339005.30547
973848398.203332
1017077572.14245
1058062352.05234
1096187503.65511
1130908535.26794
1161689202.77815
1188110702.51782
1209932476.54577
1226937606.64026
1238972831.2896
1245943604.63024
1247639163.89827
1243781605.09747
1234041196.12951
1217861966.7097
1194110766.67085
1161988924.98046
1118181819.90709
1063048244.21885
985539014.354938
916622892.525981
844863449.603981
774762449.267871
703902122.477257
632906247.04717
561266183.627385
489014444.160718
415987649.114966
342173101.132149
267537539.180419
192066760.529481
115827440.698039
38759837.1296176
1425754.21938091
4323060.7266215
7318952.24548212
10395432.4932687
13555441.2398116
16802669.0466193
20140442.5288369
23572368.2545213
27102336.4491906
30734482.70374
34473183.1542193
38323055.9211746
42288973.6165154
46376110.7602737
50589963.505834
54936356.4625997
59421458.1673606
64051829.9012224
68834457.8171352
73776782.1587173
78886722.4020372
84172720.1751944
89643797.5682828
95309606.0140464
101180450.50263
107267354.80972
113582161.036243
120137583.034209
126947249.723505
134025819.455145
141389107.964493
149054165.532474
157039362.672163
165364514.09292
174051117.704301
183122489.854782
192603886.496314
202522586.828673
212908377.895246
223793756.413562
235214097.661038
247207546.204611
259816098.207857
273085804.342525
287067046.57761
301813670.464727
317385552.887231
333848618.162557
351275227.802358
369741297.185381
389331771.408581
410140367.56297
432269843.577018
455824034.319843
480918713.668366
507681139.081657
536249001.731287
566748274.467756
599307250.520439
634042910.337025
671055943.804329
710260496.060408
751468005.052359
794426882.471229
838784800.648736
883832888.145789
928927533.277482
973432911.297847
1016666236.58787
1057666283.13886
1095817779.92636
1130571370.53004
1161392768.76558
1187861875.18501
1209736143.99699
1226797602.45578
1238891676.63038
1245921808.04986
1247678548.65316
1243884628.63792
1234207243.51773
1218093498.6327
1194411807.41571
1162370474.355
1118646444.31859
1063606296.34299
985716137.770726
916814039.718702
845031334.767905
774911718.855985
704033802.992848
633020844.948777
561365565.85307
489099301.066354
416057670.219741
342229070.762111
267579284.419057
192094548.894917
115843562.941401
38773206.0705359
1385184.09665683
4261625.32959044
7236777.77797812
10306589.7771836
13464456.436538
16710261.561172
20046609.5233337
23477009.305228
27005356.5520004
30635805.0190812
34372740.5239793
38220785.6292047
42184816.6825012
46270005.7119376
50481842.9222557
54826148.9477539
59309091.4627971
63937228.2238161
68717540.0400708
73657461.6417849
78764908.3399847
84048318.4879347
89516708.2099406
95179720.3617603
101047654.839902
107131532.012916
113443184.448227
119995315.394587
126801548.241533
133876534.414817
141236077.480677
148897214.738201
156878306.487743
165199160.027155
173881258.504087
182947898.868597
192424319.764905
202337794.761737
212718091.957333
223597679.116493
235011904.890832
246998914.34597
259600677.581617
272863202.693993
286836833.194968
301575430.138168
317138834.888164
333592909.927995
351009972.585224
369465976.676785
389045830.56512
409843165.822261
431960715.959483
455502394.10444
480583965.289797
507332590.363412
535886067.033359
566370574.569317
598914818.741173
633635903.373029
670635649.424258
709829706.635103
751030679.612728
793986930.244321
838348542.825192
883407438.984393
928519890.551935
973048992.193369
1016314301.18462
1057353334.18995
1095549304.00214
1130351956.01041
1161226904.45575
1187752523.35507
1209685523.95175
1226807651.73774
1238963948.91285
1246057867.56233
1247881405.09711
1244157913.68564
1234555674.75798
1218524432.98954
1194936785.16203
1163005486.93801
1119415987.39948
1064484341.01427
985877593.589097
916994789.122756
845205454.613774
775067467.697219
704177864.718154
633149943.031724
561481155.486106
489200868.239176
416144907.997383
342301734.250429
267637043.030138
192137500.954713
115872618.416036
38785923.0033259
1313455.92623992
4162887.52355577
7119427.2533237
10184007.8070862
13340067.1737269
16584343.3471757
19919005.0218157
23347559.1670423
26873942.0289824
30502336.9492184
34237143.5220254
38082987.4212397
42044743.5391856
46127580.2680726
50336984.4437475
54678773.1041175
59159109.4733275
63784546.1235219
68562059.0508013
73499078.1935288
78603512.8760349
83883795.3432996
89348935.652952
95008570.1820036
100872991.160117
106953210.988365
113261053.516391
119809213.949915
126611305.759821
133681968.72641
141036995.755545
148693414.421939
156669571.870131
164985258.71896
173661943.113465
182722910.699492
192193384.618451
202100614.658258
212474347.040158
223347039.786044
234754025.730349
246733412.808824
259327138.954004
272581211.475018
286545969.209165
301275209.289938
316828725.382587
333272403.924029
350678598.557695
369123158.799972
388690919.248271
409475590.63479
431580055.049215
455108068.94908
480175284.630069
506909071.313115
535447733.071951
565917511.273855
598447367.039109
633155772.555295
670147917.548295
709339609.831876
750542529.091626
793507046.534661
837887007.123792
882970621.27682
928112480.796823
972678084.421644
1015989186.04796
1057077408.10403
1095325153.9898
1130183477.45379
1161116458.33988
1187700669.10878
1209693177.46718
1226875598.08207
1239092968.021
1246250099.40333
1248140085.4033
1244487118.3747
1234962060.97395
1219018244.34193
1195530126.62224
1163722155.36654
1120276631.23052
1065488236.87008
986007709.633772
917171227.749055
845372424.915223
775222102.219817
704322104.948678
633281581.314514
561600336.729216
489307038.634895
416237403.133282
342380005.860184
267700624.595343
192186162.798796
115907209.31709
38809688.490865
)
;

boundaryField
{
    dieWall
    {
        type            zeroGradient;
    }
    outlet
    {
        type            fixedValue;
        value           uniform 0;
    }
    Wire
    {
        type            zeroGradient;
    }
    inlet
    {
        type            fixedValue;
        value           uniform 0;
    }
    back
    {
        type            wedge;
    }
    front
    {
        type            wedge;
    }
}


// ************************************************************************* //
