/*--------------------------------*- C++ -*----------------------------------*\
  =========                 |
  \\      /  F ield         | OpenFOAM: The Open Source CFD Toolbox
   \\    /   O peration     | Website:  https://openfoam.org
    \\  /    A nd           | Version:  8
     \\/     M anipulation  |
\*---------------------------------------------------------------------------*/
FoamFile
{
    version     2.0;
    format      ascii;
    class       pointVectorField;
    location    "0.0585000";
    object      pointDisplacement;
}
// * * * * * * * * * * * * * * * * * * * * * * * * * * * * * * * * * * * * * //

dimensions      [0 1 0 0 0 0 0];

internalField   nonuniform List<vector> 
2020
(
(-1.93287173214463e-36 -1.07553805230234e-07 4.69590054975058e-09)
(-1.97132641123116e-36 -1.09696919151007e-07 4.78947092429191e-09)
(-2.05431269637656e-36 -1.14315406787798e-07 4.99111844932549e-09)
(-2.16279481114281e-36 -1.20352283640074e-07 5.25469418491847e-09)
(-2.28726060702944e-36 -1.27276285236761e-07 5.55700262332986e-09)
(-2.42344403825398e-36 -1.34849853400263e-07 5.88767175053023e-09)
(-2.5702889966106e-36 -1.43026809053735e-07 6.24468534448193e-09)
(-2.73097815601305e-36 -1.51968517316093e-07 6.63508875842932e-09)
(-2.90193567182966e-36 -1.61479735116753e-07 7.05035749581439e-09)
(-3.0812215192041e-36 -1.71454988454077e-07 7.48588646227325e-09)
(-3.2683621713593e-36 -1.81871185184439e-07 7.94066743304139e-09)
(-3.4664312475573e-36 -1.92885196258996e-07 8.42154954176137e-09)
(-3.6718242045739e-36 -2.04315341439404e-07 8.92060045791921e-09)
(-3.88386088576569e-36 -2.16120651934361e-07 9.43603144545677e-09)
(-4.10261303761402e-36 -2.28292473689954e-07 9.9674646602203e-09)
(-4.33092469064055e-36 -2.41003951008305e-07 1.05224597456997e-08)
(-4.56589441713854e-36 -2.5406488930394e-07 1.1092712626957e-08)
(-4.80669856750181e-36 -2.67471048571297e-07 1.16780381813515e-08)
(-5.05426984598822e-36 -2.81242728530979e-07 1.22793227138255e-08)
(-5.31066881154283e-36 -2.95521597441531e-07 1.29027515941273e-08)
(-5.57363975479123e-36 -3.10151578783471e-07 1.35415103742503e-08)
(-5.84282107346733e-36 -3.25136788570122e-07 1.41957787632174e-08)
(-6.11954438226539e-36 -3.40531422334318e-07 1.48679229890934e-08)
(-6.40556603504946e-36 -3.56443346022548e-07 1.55626525808099e-08)
(-6.69848108976388e-36 -3.72744297174476e-07 1.62743674784087e-08)
(-6.99855357346012e-36 -3.89441959001174e-07 1.70034031381298e-08)
(-7.30735042929136e-36 -4.0663148806622e-07 1.7753914185263e-08)
(-7.62688055873607e-36 -4.24401425430573e-07 1.85297664060158e-08)
(-7.95445203381312e-36 -4.42627997810992e-07 1.93255557421352e-08)
(-8.2906503058105e-36 -4.61327396114218e-07 2.01419891038759e-08)
(-8.63820174102042e-36 -4.80680606168866e-07 2.09869685031683e-08)
(-8.99870198118861e-36 -5.00732097616606e-07 2.18624355264987e-08)
(-9.36949353664501e-36 -5.21382617244047e-07 2.27640566849835e-08)
(-9.75209169307622e-36 -5.42662225992031e-07 2.36931444676447e-08)
(-1.01515646219265e-35 -5.64894143020814e-07 2.46638109277852e-08)
(-1.05678664054477e-35 -5.88055032991911e-07 2.56750372225236e-08)
(-1.09998376205008e-35 -6.12082207588554e-07 2.67240863208405e-08)
(-1.14484769781066e-35 -6.37031271416311e-07 2.78133859722451e-08)
(-1.19246210668118e-35 -6.63501809432274e-07 2.89691146213177e-08)
(-1.24225990447285e-35 -6.91314986222257e-07 3.01834641452495e-08)
(-1.29486327667215e-35 -7.20483979631563e-07 3.1457009901192e-08)
(-1.34978893898054e-35 -7.51113555159674e-07 3.27943260496369e-08)
(-1.40960828529045e-35 -7.84382855137173e-07 3.42468950565607e-08)
(-1.47314582125106e-35 -8.19712242137431e-07 3.57894094053717e-08)
(-1.54069427250637e-35 -8.5728385003752e-07 3.74298212328785e-08)
(-1.61295618060198e-35 -8.97521810700837e-07 3.91866485361546e-08)
(-1.69296326485483e-35 -9.42049009549675e-07 4.11307480229697e-08)
(-1.77932077366699e-35 -9.90085294937758e-07 4.32280575368358e-08)
(-1.87242704350307e-35 -1.04193042443289e-06 4.54916647758073e-08)
(-1.97444480029758e-35 -1.09873532750472e-06 4.79718204057499e-08)
(-2.08923457872026e-35 -1.16253099607813e-06 5.0757199449144e-08)
(-2.21449819547976e-35 -1.23227052109661e-06 5.38020928694428e-08)
(-2.35142032847652e-35 -1.30846140002887e-06 5.71286584846537e-08)
(-2.50500371636374e-35 -1.39394280104968e-06 6.08608570543628e-08)
(-2.67892177898774e-35 -1.49065747540046e-06 6.50835109296078e-08)
(-2.87066740730342e-35 -1.59739397684573e-06 6.97437272254644e-08)
(-3.08201761816142e-35 -1.71497287483797e-06 7.48773327779494e-08)
(-3.32432557477428e-35 -1.84986180250042e-06 8.07667105476099e-08)
(-3.59825938037654e-35 -2.00237700092627e-06 8.74256679187615e-08)
(-3.90329786852752e-35 -2.1717899760653e-06 9.48223981542683e-08)
(-4.24069688963718e-35 -2.35970309718245e-06 1.03026862207125e-07)
(-4.64490623420177e-35 -2.58496127205671e-06 1.12861846519985e-07)
(-5.12901705219862e-35 -2.85404367740987e-06 1.24610238057795e-07)
(-5.70630416459737e-35 -3.17523160223017e-06 1.38633605706278e-07)
(-6.40242181724975e-35 -3.56295155345902e-06 1.55561824361373e-07)
(-7.31834313818147e-35 -4.07278023183594e-06 1.7782142518111e-07)
(-8.3912664233449e-35 -4.6699148604177e-06 2.03892886108314e-07)
(-9.62141207793081e-35 -5.353844936509e-06 2.33753918113952e-07)
(-1.1041243949831e-34 -6.14332564168745e-06 2.68223390110121e-07)
(-1.26575303151125e-34 -7.04311351122814e-06 3.07508976911909e-07)
(-1.44061240797087e-34 -8.01749058060284e-06 3.50051198509243e-07)
(-1.6284986495605e-34 -9.06226696840995e-06 3.95667120729451e-07)
(-1.83180774437491e-34 -1.01947632895671e-05 4.45112977951597e-07)
(-2.04472650550729e-34 -1.1377639559729e-05 4.96758471250969e-07)
(-2.26323437493584e-34 -1.25927411888689e-05 5.49810954108885e-07)
(-2.48588769866097e-34 -1.38329149112594e-05 6.03958108198817e-07)
(-2.70850796160748e-34 -1.50731023390854e-05 6.58105860680984e-07)
(-2.92770092383737e-34 -1.62920780193535e-05 7.11327488264036e-07)
(-3.14185762745796e-34 -1.74816278964859e-05 7.63264357536341e-07)
(-3.34370470117354e-34 -1.86055443130688e-05 8.1233560803471e-07)
(-3.52992872028271e-34 -1.96417806880076e-05 8.57578665240635e-07)
(-3.70104396356397e-34 -2.0596441048448e-05 8.99260036734844e-07)
(-3.85581248852911e-34 -2.14552195827056e-05 9.36755117290121e-07)
(-3.9798381628004e-34 -2.214367319998e-05 9.668136513691e-07)
(-4.0815478115053e-34 -2.27141613430875e-05 9.91721701615298e-07)
(-4.16321160810883e-34 -2.316520646006e-05 1.0114147567166e-06)
(-4.21298644702646e-34 -2.34413169981444e-05 1.02347000315634e-06)
(-4.23947915095812e-34 -2.35914144750434e-05 1.03002340052594e-06)
(-4.25101736269541e-34 -2.36558716755799e-05 1.03283766267861e-06)
(-4.24777005955126e-34 -2.3635337976245e-05 1.03194114200424e-06)
(-4.23077314592234e-34 -2.3539561827689e-05 1.02775946505014e-06)
(-4.20743223621883e-34 -2.34128833997127e-05 1.02222856543853e-06)
(-4.18014974702021e-34 -2.32598982299892e-05 1.01554908867738e-06)
(-4.14780528527337e-34 -2.30820669259488e-05 1.00778480626433e-06)
(-4.114086964504e-34 -2.28950393067755e-05 9.9961900406129e-07)
(-4.07966702054398e-34 -2.27019691658711e-05 9.91189379661926e-07)
(-4.04464096230933e-34 -2.25060300010732e-05 9.82634490974141e-07)
(-4.01005204103638e-34 -2.23141139233593e-05 9.7425525406185e-07)
(-3.9766973888318e-34 -2.212869337611e-05 9.66159618134332e-07)
(-3.94527862888623e-34 -2.19538875464886e-05 9.58527430787158e-07)
(-3.9208503869082e-34 -2.18181576062674e-05 9.52601333616183e-07)
(-9.40783828444569e-25 -1.40136207659753e-06 6.11847896204804e-08)
(7.2189928872608e-26 -1.40176025922804e-06 6.12021746501367e-08)
(7.23114317489435e-26 -1.40433317914114e-06 6.13145107595716e-08)
(7.25060943363907e-26 -1.40834144796832e-06 6.14895155559986e-08)
(7.27481956985104e-26 -1.41319038456657e-06 6.17012246999839e-08)
(7.30299111027702e-26 -1.41865175775575e-06 6.19396734030009e-08)
(7.33309816080013e-26 -1.42469066182269e-06 6.22033376487001e-08)
(7.36531480081585e-26 -1.431325875242e-06 6.24930373229886e-08)
(7.40084551764512e-26 -1.43848345585896e-06 6.28055440416721e-08)
(7.43887277809352e-26 -1.44606794032922e-06 6.31366897851212e-08)
(7.47843969606716e-26 -1.45408192181137e-06 6.34865877730865e-08)
(7.52046652995868e-26 -1.46254984690183e-06 6.38563053670182e-08)
(7.56532318620263e-26 -1.47141696706568e-06 6.42434521942584e-08)
(7.61127017147357e-26 -1.48062237110467e-06 6.46453688144582e-08)
(7.65843447814709e-26 -1.49019294111672e-06 6.506322892536e-08)
(7.70888791922038e-26 -1.50016139459519e-06 6.54984610035738e-08)
(7.76141758960553e-26 -1.51048080221439e-06 6.59490160704894e-08)
(7.81435007992411e-26 -1.5211110038524e-06 6.64131406973168e-08)
(7.86916088522014e-26 -1.53209284976858e-06 6.68926184448975e-08)
(7.9272902477905e-26 -1.54345900373941e-06 6.7388875444512e-08)
(7.98703685150818e-26 -1.55517233329474e-06 6.79002904575007e-08)
(8.04755158778996e-26 -1.56721160024207e-06 6.84259362043528e-08)
(8.11003457775397e-26 -1.57962695858541e-06 6.89680024561751e-08)
(8.17463015576726e-26 -1.59244978704989e-06 6.95278592376939e-08)
(8.24186059741857e-26 -1.6056483074371e-06 7.01041190828015e-08)
(8.31157678549768e-26 -1.61921828280157e-06 7.06965970024654e-08)
(8.3824574367486e-26 -1.63322460301601e-06 7.13081261497119e-08)
(8.45479837025077e-26 -1.64770015386324e-06 7.19401423488277e-08)
(8.52976638220271e-26 -1.66261224933598e-06 7.25912184979152e-08)
(8.60761505224217e-26 -1.67798082285092e-06 7.32622249087426e-08)
(8.68842595807233e-26 -1.69390107530803e-06 7.39573181423677e-08)
(8.7721954443674e-26 -1.7104108052158e-06 7.46781485173126e-08)
(8.85848788003807e-26 -1.72748060832655e-06 7.54234322163973e-08)
(8.94803021316924e-26 -1.74517438264532e-06 7.61959590867722e-08)
(9.04175768369899e-26 -1.7636386481203e-06 7.70021263275305e-08)
(9.13962706115358e-26 -1.7829207097799e-06 7.78439993208162e-08)
(9.24199527998856e-26 -1.80299615169638e-06 7.87205120442029e-08)
(9.348715012761e-26 -1.82401155132508e-06 7.96380642075996e-08)
(9.46129886184919e-26 -1.84620750184989e-06 8.06071603362723e-08)
(9.58160080568335e-26 -1.86964017839163e-06 8.1630253088964e-08)
(9.70783587773677e-26 -1.89429114150158e-06 8.27065373819575e-08)
(9.84017385351723e-26 -1.92047913847259e-06 8.38499300226073e-08)
(9.98220167406884e-26 -1.94862439392384e-06 8.50787784140213e-08)
(1.01364029842426e-25 -1.97876921520825e-06 8.63949297351191e-08)
(1.03012875537213e-25 -2.01094719835588e-06 8.77998508202516e-08)
(1.04784737628201e-25 -2.04576177648034e-06 8.93198881281416e-08)
(1.06724597653628e-25 -2.08385771649434e-06 9.09831927901542e-08)
(1.08842793171979e-25 -2.1253073619083e-06 9.2792923392168e-08)
(1.11144313189984e-25 -2.17030996659416e-06 9.47577795461093e-08)
(1.13678429798131e-25 -2.21991786420288e-06 9.69237071314351e-08)
(1.16495878463088e-25 -2.27506103283218e-06 9.93313098687751e-08)
(1.19594983161447e-25 -2.33581536474326e-06 1.01983901285814e-07)
(1.2300719112553e-25 -2.40279133929459e-06 1.04908135486968e-07)
(1.26839075122584e-25 -2.4778323713097e-06 1.08184497701606e-07)
(1.31161108441931e-25 -2.56216856515913e-06 1.11866695446421e-07)
(1.35960939142085e-25 -2.65581653872068e-06 1.15955454273627e-07)
(1.41306185431519e-25 -2.76032082862143e-06 1.2051821010872e-07)
(1.47360255403782e-25 -2.87886347431358e-06 1.25693893794556e-07)
(1.54198450747879e-25 -3.01286224001278e-06 1.31544406253613e-07)
(1.61831965405807e-25 -3.1622487398587e-06 1.38066761694748e-07)
(1.70500059591915e-25 -3.33179246837527e-06 1.45469200746074e-07)
(1.80723988709687e-25 -3.53175920594638e-06 1.54199937058848e-07)
(1.92962576271632e-25 -3.77107177124462e-06 1.6464854930972e-07)
(2.07616568650347e-25 -4.05764777178819e-06 1.77160727708516e-07)
(2.25777110242159e-25 -4.41254783881175e-06 1.92655999273201e-07)
(2.48479514640431e-25 -4.85616665801401e-06 2.1202481521171e-07)
(2.75530646289059e-25 -5.38504079104279e-06 2.35115958539879e-07)
(3.06717551106205e-25 -5.99480990577313e-06 2.61739053045738e-07)
(3.42549260027877e-25 -6.69525098948795e-06 2.92320971212867e-07)
(3.82943605280156e-25 -7.48476364198528e-06 3.26791838059416e-07)
(4.27067012698961e-25 -8.34730299794219e-06 3.6445111963654e-07)
(4.74592870988916e-25 -9.27666763030098e-06 4.05028055791519e-07)
(5.25477642918574e-25 -1.02715650692801e-05 4.48466216075011e-07)
(5.78882270946929e-25 -1.13152595846804e-05 4.94034902726244e-07)
(6.33839469648295e-25 -1.23894614119714e-05 5.40935567380248e-07)
(6.89693872967571e-25 -1.34814193064607e-05 5.8861147867048e-07)
(7.45579131135583e-25 -1.45738257472529e-05 6.36306973915234e-07)
(8.00609307310747e-25 -1.5649565998652e-05 6.83274807616391e-07)
(8.53953650550135e-25 -1.66922223686504e-05 7.28798167860503e-07)
(9.04469185278551e-25 -1.76795909218472e-05 7.71907609891683e-07)
(9.5129012200523e-25 -1.85951137782571e-05 8.11880201057198e-07)
(9.94082015926637e-25 -1.94318263601127e-05 8.48411861324762e-07)
(1.0318462203112e-24 -2.01700321803015e-05 8.80642623495053e-07)
(1.06336305128149e-24 -2.07862712393275e-05 9.07548201869427e-07)
(1.08884646562738e-24 -2.12846948583333e-05 9.29309847043293e-07)
(1.10825808625395e-24 -2.16642396097958e-05 9.45881128768276e-07)
(1.12112171231446e-24 -2.19155661876323e-05 9.56854284134689e-07)
(1.12842076897271e-24 -2.20580707054099e-05 9.63076165749638e-07)
(1.13144042358426e-24 -2.21171675847528e-05 9.65656391224724e-07)
(1.13075474296763e-24 -2.21040553378371e-05 9.65083898160727e-07)
(1.12711945316322e-24 -2.20331028571203e-05 9.61986045950906e-07)
(1.121606527457e-24 -2.19252094953641e-05 9.57275320043018e-07)
(1.11481357156008e-24 -2.17923027945585e-05 9.51472488166932e-07)
(1.10705286771051e-24 -2.16406635100091e-05 9.44851774021474e-07)
(1.09872353872824e-24 -2.14779431819253e-05 9.37747251066886e-07)
(1.09010232755698e-24 -2.13095449956716e-05 9.303948274709e-07)
(1.08139904120958e-24 -2.11394453818213e-05 9.22968117941754e-07)
(1.07284517793277e-24 -2.09720730851996e-05 9.1566048565442e-07)
(1.06467143396392e-24 -2.08122548082496e-05 9.08682668988708e-07)
(1.05754431361072e-24 -2.06730438026029e-05 9.02604585218872e-07)
(-1.36578514640342e-23 -2.0602912617044e-05 8.99542591521843e-07)
(-1.76534122766445e-24 -2.6648677008631e-06 1.16350636546124e-07)
(1.37189063224153e-25 -2.66409779387405e-06 1.16317021682092e-07)
(1.37231089966863e-25 -2.66527676436142e-06 1.16368496645233e-07)
(1.37339376111572e-25 -2.66777616117842e-06 1.16477622666966e-07)
(1.37493569508144e-25 -2.67100252214995e-06 1.16618488629148e-07)
(1.37691420273225e-25 -2.67475974521371e-06 1.16782532530831e-07)
(1.37894757066542e-25 -2.67901783674964e-06 1.16968444822282e-07)
(1.38105893333263e-25 -2.68379401314856e-06 1.17176977187358e-07)
(1.38352888472045e-25 -2.6890236535482e-06 1.17405308218281e-07)
(1.38625053328038e-25 -2.69462398238255e-06 1.17649823855788e-07)
(1.38903266144314e-25 -2.70059735731187e-06 1.17910627037551e-07)
(1.39204358205683e-25 -2.70696586652538e-06 1.18188682154737e-07)
(1.3953882240169e-25 -2.71368140976915e-06 1.18481889104906e-07)
(1.39875678768742e-25 -2.72069126879342e-06 1.18787946159563e-07)
(1.40215824903901e-25 -2.72801881065441e-06 1.19107873546419e-07)
(1.40598532560385e-25 -2.73569339860657e-06 1.19442953292848e-07)
(1.41002496262617e-25 -2.74367352335111e-06 1.19791373063725e-07)
(1.41396773636334e-25 -2.75192453960933e-06 1.20151620213516e-07)
(1.41808228514359e-25 -2.76048204324536e-06 1.20525248891211e-07)
(1.42263669357824e-25 -2.7693752209209e-06 1.20913533413982e-07)
(1.42731501178472e-25 -2.77857112393569e-06 1.21315035210507e-07)
(1.43196032176531e-25 -2.78805148978253e-06 1.21728956922501e-07)
(1.43678211713142e-25 -2.79786018806212e-06 1.22157213938097e-07)
(1.44179141520359e-25 -2.80802515044941e-06 1.2260102578056e-07)
(1.44710975977069e-25 -2.81851812893077e-06 1.23059159114979e-07)
(1.45271065869606e-25 -2.82933556974843e-06 1.23531458780939e-07)
(1.45829511403207e-25 -2.84053440560836e-06 1.24020410514066e-07)
(1.46390251711646e-25 -2.85214380670346e-06 1.24527287912486e-07)
(1.46978281178907e-25 -2.86413465318519e-06 1.25050819576154e-07)
(1.47597535799137e-25 -2.87652433655672e-06 1.25591764834498e-07)
(1.48244269144477e-25 -2.88939669149431e-06 1.26153783988531e-07)
(1.4891625961153e-25 -2.90278486885783e-06 1.26738324436054e-07)
(1.49606490223981e-25 -2.91666261093574e-06 1.27344239740622e-07)
(1.5032572782178e-25 -2.93108542453072e-06 1.27973953381579e-07)
(1.51084307069107e-25 -2.94618278258589e-06 1.28633118269701e-07)
(1.51878637469691e-25 -2.96199552124107e-06 1.29323517349358e-07)
(1.52717192758841e-25 -2.97850169582293e-06 1.30044192495421e-07)
(1.53588653522615e-25 -2.99582851422537e-06 1.30800697724483e-07)
(1.54509478588232e-25 -3.01418944721543e-06 1.31602353371517e-07)
(1.5551326502722e-25 -3.03363151864521e-06 1.32451212542243e-07)
(1.5656562830154e-25 -3.05413805003879e-06 1.33346547038678e-07)
(1.57651585782579e-25 -3.07598558411066e-06 1.34300430976491e-07)
(1.58818788611803e-25 -3.09954893396361e-06 1.35329229049163e-07)
(1.6011388520914e-25 -3.12485879157857e-06 1.36434281297522e-07)
(1.6150591615202e-25 -3.15194409617119e-06 1.37616851235011e-07)
(1.62991847963547e-25 -3.1813307941112e-06 1.38899902176051e-07)
(1.64625031529968e-25 -3.21359337969474e-06 1.40308517083308e-07)
(1.66421492264654e-25 -3.248784963202e-06 1.41845014801693e-07)
(1.68379727925476e-25 -3.28707754915869e-06 1.43516905210983e-07)
(1.70537825497382e-25 -3.32939333036262e-06 1.45364452118273e-07)
(1.72944352948327e-25 -3.37655920317651e-06 1.4742375859845e-07)
(1.75590844386593e-25 -3.42862512968973e-06 1.49697006043443e-07)
(1.78504660087628e-25 -3.48611899615377e-06 1.52207242464742e-07)
(1.81793471001243e-25 -3.55066759888128e-06 1.55025495323278e-07)
(1.85527916710166e-25 -3.62335740948961e-06 1.58199200994308e-07)
(1.89681261469881e-25 -3.70417805970115e-06 1.61727906789055e-07)
(1.94299091409994e-25 -3.79446571434147e-06 1.65669950923685e-07)
(1.99527588729645e-25 -3.89705356045223e-06 1.70149033015875e-07)
(2.05434955579125e-25 -4.01316790409212e-06 1.75218694744443e-07)
(2.12045497781048e-25 -4.14271053530633e-06 1.80874648170156e-07)
(2.19559900625599e-25 -4.28978810438561e-06 1.87296193516908e-07)
(2.28435803910539e-25 -4.46349871469331e-06 1.94880562556225e-07)
(2.3907443802524e-25 -4.6715933498151e-06 2.03966170539928e-07)
(2.51816449403423e-25 -4.92089788425671e-06 2.14851041585116e-07)
(2.67626605074406e-25 -5.22973605680351e-06 2.28335207404774e-07)
(2.8743076213911e-25 -5.6165150176585e-06 2.45222341533032e-07)
(3.11015779883851e-25 -6.07769233334584e-06 2.65357777984142e-07)
(3.38205668016818e-25 -6.60943451907856e-06 2.88574143197679e-07)
(3.69465130718642e-25 -7.22047884592979e-06 3.15252914667144e-07)
(4.04725257245002e-25 -7.9094885234362e-06 3.45335726860439e-07)
(4.43229533215776e-25 -8.66217158853443e-06 3.78198579194198e-07)
(4.84683095213499e-25 -9.47313375445408e-06 4.13605952021703e-07)
(5.29077469665716e-25 -1.03413299568868e-05 4.51512216849852e-07)
(5.75692134340311e-25 -1.12520060207449e-05 4.91273192482471e-07)
(6.23645931112376e-25 -1.21891676332939e-05 5.321905521444e-07)
(6.72358411723555e-25 -1.31415946378798e-05 5.73774413216529e-07)
(7.21094143632875e-25 -1.40941647173358e-05 6.15364521072394e-07)
(7.69066995359656e-25 -1.50319177026415e-05 6.56307700626487e-07)
(8.15551086081838e-25 -1.59403081215365e-05 6.95968882844867e-07)
(8.59553493590861e-25 -1.68002008753635e-05 7.33512611277492e-07)
(9.00303979393371e-25 -1.75972691110763e-05 7.68313362011455e-07)
(9.374992571298e-25 -1.83247406570382e-05 8.00075455647556e-07)
(9.70274808150436e-25 -1.89653609726409e-05 8.28045542673372e-07)
(9.97643685777386e-25 -1.95005997571028e-05 8.514145726844e-07)
(1.01968748317567e-24 -1.99319934530337e-05 8.70249628213706e-07)
(1.03638744330819e-24 -2.02585559645723e-05 8.84507655386183e-07)
(1.04752136757438e-24 -2.0475892147558e-05 8.93996758063559e-07)
(1.0539005774121e-24 -2.06002178416504e-05 8.99424935095441e-07)
(1.05655821631528e-24 -2.06523057472616e-05 9.01699142168574e-07)
(1.05601067151191e-24 -2.06421715554699e-05 9.01256673799331e-07)
(1.05294866128929e-24 -2.05825311975683e-05 8.9865271953792e-07)
(1.04823001742985e-24 -2.04900385142008e-05 8.94614401769921e-07)
(1.04237790434499e-24 -2.03754064422514e-05 8.89609457421009e-07)
(1.03568171226218e-24 -2.02446419820109e-05 8.83900157787932e-07)
(1.02847744131403e-24 -2.01040143877393e-05 8.77760224423023e-07)
(1.02101070171877e-24 -1.9958312147652e-05 8.71398727236871e-07)
(1.0134800033808e-24 -1.98111670195896e-05 8.64974232201213e-07)
(1.00609166613129e-24 -1.96664201202304e-05 8.58654446092051e-07)
(9.99057051340656e-25 -1.95288317334842e-05 8.52647207393396e-07)
(9.93021962171892e-25 -1.94110717769941e-05 8.47505696656125e-07)
(-1.27866363662371e-23 -1.93530712658001e-05 8.44973339640483e-07)
(-2.55158077958395e-24 -3.90281931956968e-06 1.70400771493974e-07)
(2.00804206370527e-25 -3.90105836085923e-06 1.70323886377807e-07)
(2.00787079763074e-25 -3.90118224364554e-06 1.70329295217067e-07)
(2.00827518502465e-25 -3.9025010903643e-06 1.70386877308361e-07)
(2.0091235208173e-25 -3.90443660353649e-06 1.70471383638471e-07)
(2.01044984463262e-25 -3.90682308217775e-06 1.70575579546181e-07)
(2.0116953212602e-25 -3.90963491655802e-06 1.70698346886527e-07)
(2.01288617840911e-25 -3.91288670213575e-06 1.70840322910988e-07)
(2.01446133743444e-25 -3.91652375808213e-06 1.7099912020302e-07)
(2.01629047339177e-25 -3.92047594497648e-06 1.71171676409379e-07)
(2.01808771233031e-25 -3.92474525463877e-06 1.71358078494805e-07)
(2.02009507452516e-25 -3.92935047363212e-06 1.71559146698357e-07)
(2.02248616723336e-25 -3.93425091090252e-06 1.71773104410248e-07)
(2.02481757151307e-25 -3.93940189778328e-06 1.71998001354374e-07)
(2.02709292416145e-25 -3.94482329420651e-06 1.72234704634095e-07)
(2.02988769492242e-25 -3.95054010686833e-06 1.72484306065343e-07)
(2.0329006981542e-25 -3.95651723217428e-06 1.72745272992086e-07)
(2.03568119000956e-25 -3.96272532303778e-06 1.73016324092851e-07)
(2.03861587681949e-25 -3.96919466022276e-06 1.73298781454343e-07)
(2.04209599695964e-25 -3.97595014513853e-06 1.73593732295572e-07)
(2.04566333682168e-25 -3.9829639347812e-06 1.73899960964736e-07)
(2.0490887038682e-25 -3.99022060047025e-06 1.74216793831095e-07)
(2.05266949907351e-25 -3.99775750199661e-06 1.74545862058347e-07)
(2.05641292444605e-25 -4.00559851805543e-06 1.74888208212839e-07)
(2.06050959829989e-25 -4.01371979884285e-06 1.75242790989646e-07)
(2.06492261182169e-25 -4.02211843494563e-06 1.75609483361042e-07)
(2.06918791124285e-25 -4.03084295098527e-06 1.75990403957757e-07)
(2.07335289009648e-25 -4.03991832877397e-06 1.76386643509266e-07)
(2.07779968935603e-25 -4.04931999563976e-06 1.76797129149541e-07)
(2.08258211863156e-25 -4.05906288514949e-06 1.77222512892194e-07)
(2.08761733484559e-25 -4.06921848727781e-06 1.77665916056924e-07)
(2.0928613745822e-25 -4.07981526438277e-06 1.78128581337122e-07)
(2.09821815005565e-25 -4.09083112525524e-06 1.78609544209768e-07)
(2.10382973091339e-25 -4.10231351620575e-06 1.79110876225516e-07)
(2.10980843443113e-25 -4.11437291038758e-06 1.79637400746405e-07)
(2.11608725302612e-25 -4.1270444580131e-06 1.8019065246385e-07)
(2.12280044319408e-25 -4.14030982681495e-06 1.80769830973773e-07)
(2.12973762135656e-25 -4.15427766255629e-06 1.81379679852637e-07)
(2.13707345462793e-25 -4.16913020286299e-06 1.8202815576702e-07)
(2.1452950489107e-25 -4.18490811641887e-06 1.82717034350005e-07)
(2.15389671441361e-25 -4.20159772137471e-06 1.83445718239154e-07)
(2.16256290983616e-25 -4.21943516193716e-06 1.84224517713192e-07)
(2.17188040961255e-25 -4.2387405773699e-06 1.85067410354234e-07)
(2.18253601103123e-25 -4.25954119341941e-06 1.85975584864042e-07)
(2.19406850302933e-25 -4.28186241530392e-06 1.86950150458399e-07)
(2.20624905685094e-25 -4.30615346020029e-06 1.88010720382817e-07)
(2.21968855722613e-25 -4.33290549959279e-06 1.8917873964743e-07)
(2.23461077439573e-25 -4.36216550486696e-06 1.9045625906722e-07)
(2.25093857857759e-25 -4.39408133614349e-06 1.91849734354475e-07)
(2.26893921721696e-25 -4.42944099674303e-06 1.9339357047719e-07)
(2.28906785682992e-25 -4.46895217643583e-06 1.95118665838021e-07)
(2.31118370099574e-25 -4.51266008727593e-06 1.97026994437878e-07)
(2.33552203638157e-25 -4.56101697124443e-06 1.9913830158808e-07)
(2.36315979212564e-25 -4.61541346342799e-06 2.01513303727751e-07)
(2.39479890066001e-25 -4.67678065609418e-06 2.0419265322323e-07)
(2.43004659966863e-25 -4.74511351671318e-06 2.07176130349519e-07)
(2.46914634668906e-25 -4.82155527410728e-06 2.1051364955496e-07)
(2.51335585446721e-25 -4.90852851151105e-06 2.14310983107849e-07)
(2.56329497244265e-25 -5.00708710531906e-06 2.18614144245283e-07)
(2.61936256665171e-25 -5.11715193767493e-06 2.23419678607052e-07)
(2.683214177149e-25 -5.24223323992598e-06 2.28880846203607e-07)
(2.75871209710305e-25 -5.39010885171052e-06 2.35337234847352e-07)
(2.84932145155754e-25 -5.56741518723645e-06 2.43078596640138e-07)
(2.95790198498908e-25 -5.77999242902702e-06 2.5235991945769e-07)
(3.09287345379153e-25 -6.04349939117978e-06 2.63864881888342e-07)
(3.26205763198964e-25 -6.37368522211443e-06 2.78281106602111e-07)
(3.46344646215918e-25 -6.76755989806308e-06 2.95478046341971e-07)
(3.69565471796542e-25 -7.22182817369725e-06 3.15311827589765e-07)
(3.96275865782543e-25 -7.7439385072827e-06 3.38107657056592e-07)
(4.26417481163607e-25 -8.33276476902417e-06 3.63816366853754e-07)
(4.59326938845527e-25 -8.97607880836866e-06 3.91904064398075e-07)
(4.94737295623842e-25 -9.66921908304846e-06 4.22167222358737e-07)
(5.32669184608795e-25 -1.04112756484585e-05 4.54566111696286e-07)
(5.72528599191327e-25 -1.11896311317686e-05 4.88549846015928e-07)
(6.13520296814571e-25 -1.19905747698415e-05 5.23519800471087e-07)
(6.55141852654194e-25 -1.28044827575286e-05 5.59055790654601e-07)
(6.96788283498593e-25 -1.36184087323986e-05 5.94592566175479e-07)
(7.37773115930434e-25 -1.44195413994297e-05 6.29570773813187e-07)
(7.77486921617685e-25 -1.51954351692726e-05 6.63447027401678e-07)
(8.15072114658086e-25 -1.59297343591514e-05 6.95507222409037e-07)
(8.49845563319019e-25 -1.66101704938709e-05 7.25215705640187e-07)
(8.81573143507664e-25 -1.72309137915019e-05 7.52317943319142e-07)
(9.09528768278718e-25 -1.77772385612187e-05 7.76170997899472e-07)
(9.32847350754923e-25 -1.82333672613767e-05 7.96086007036186e-07)
(9.51592836930549e-25 -1.86004632910955e-05 8.12113765831825e-07)
(9.65773255559585e-25 -1.88777717071159e-05 8.24221312751852e-07)
(9.75233845901223e-25 -1.90621986755966e-05 8.32273568093554e-07)
(9.80654676652011e-25 -1.91675845110009e-05 8.36874813036547e-07)
(9.8291508421486e-25 -1.92119803392467e-05 8.3881317675898e-07)
(9.82444334664586e-25 -1.92036141966038e-05 8.38447903082683e-07)
(9.79851200966016e-25 -1.9153239249854e-05 8.36248485408602e-07)
(9.75861278049059e-25 -1.90748622656511e-05 8.32826472375944e-07)
(9.70903231349696e-25 -1.89775853541479e-05 8.28579270696448e-07)
(9.65214729770354e-25 -1.88665769518023e-05 8.23732539179227e-07)
(9.59089732995848e-25 -1.87471384425492e-05 8.18517741245604e-07)
(9.527376454224e-25 -1.86233449192623e-05 8.13112799292882e-07)
(9.46336773011841e-25 -1.84983106130506e-05 8.07653683587717e-07)
(9.40070163063928e-25 -1.83753276784283e-05 8.02284132700401e-07)
(9.34101163422093e-25 -1.82585250565084e-05 7.97184420093143e-07)
(9.28977162906194e-25 -1.81586702449718e-05 7.92824664867466e-07)
(-1.19396258232388e-23 -1.81089678712472e-05 7.90654612358621e-07)
(-3.30153376925034e-24 -5.11613809760075e-06 2.23375413391415e-07)
(2.63048310286961e-25 -5.11356240231375e-06 2.23262956108577e-07)
(2.62992532027181e-25 -5.1129550301027e-06 2.23236437665146e-07)
(2.62983237113073e-25 -5.11340011594793e-06 2.23255870532824e-07)
(2.63016784663033e-25 -5.11435402617996e-06 2.23297519153005e-07)
(2.63102389553953e-25 -5.11568014477736e-06 2.23355418741377e-07)
(2.63166659889804e-25 -5.11735710783063e-06 2.23428636529506e-07)
(2.63212225893054e-25 -5.11939699304066e-06 2.23517699841202e-07)
(2.63298642255635e-25 -5.1217548557385e-06 2.23620646349839e-07)
(2.6341072745258e-25 -5.12437284392747e-06 2.23734950182694e-07)
(2.63510488068503e-25 -5.12725253934549e-06 2.23860680399935e-07)
(2.63629253313195e-25 -5.13040952608846e-06 2.23998517417884e-07)
(2.63791359226593e-25 -5.1338103593184e-06 2.24147001003379e-07)
(2.63939295537854e-25 -5.13741818153801e-06 2.24304521923336e-07)
(2.64072665563539e-25 -5.14124936827489e-06 2.24471795148728e-07)
(2.64267110537784e-25 -5.14532467748508e-06 2.2464972699149e-07)
(2.64484078189796e-25 -5.14961526107192e-06 2.24837057916521e-07)
(2.64664353807204e-25 -5.15409689441204e-06 2.25032730253922e-07)
(2.64858091604024e-25 -5.15879460050322e-06 2.25237836531372e-07)
(2.65116749253782e-25 -5.16372908517466e-06 2.25453280784897e-07)
(2.65380615980295e-25 -5.16887747764066e-06 2.25678064454428e-07)
(2.65619445234708e-25 -5.17422705632251e-06 2.25911632103843e-07)
(2.65871640750741e-25 -5.1798087440244e-06 2.2615533385193e-07)
(2.66137519837408e-25 -5.18564243096246e-06 2.26410038124281e-07)
(2.6644300122607e-25 -5.19170854131719e-06 2.26674890222159e-07)
(2.66783499322321e-25 -5.19800471548585e-06 2.26949787123081e-07)
(2.67096304079676e-25 -5.20457115999932e-06 2.27236484282098e-07)
(2.67386732300482e-25 -5.2114287246578e-06 2.27535892021146e-07)
(2.67706079869463e-25 -5.21855723607254e-06 2.27847129551051e-07)
(2.68061226397008e-25 -5.22596910476004e-06 2.28170738726664e-07)
(2.68439448430438e-25 -5.23372361950756e-06 2.28509308152342e-07)
(2.68834172563263e-25 -5.24184458683946e-06 2.28863877243385e-07)
(2.69233206010284e-25 -5.25031390276976e-06 2.29233655562695e-07)
(2.69654102007527e-25 -5.25917093179821e-06 2.29620361801449e-07)
(2.70109042812782e-25 -5.26850736671083e-06 2.30027999353142e-07)
(2.70588202082778e-25 -5.27835267165571e-06 2.30457854650261e-07)
(2.71109964237618e-25 -5.28869189506077e-06 2.30909274893072e-07)
(2.71643642321542e-25 -5.29961516734951e-06 2.31386195260849e-07)
(2.72207590084698e-25 -5.31127384739967e-06 2.31895224224912e-07)
(2.72865570700179e-25 -5.32370217943882e-06 2.32437856920526e-07)