/*--------------------------------*- C++ -*----------------------------------*\
  =========                 |
  \\      /  F ield         | OpenFOAM: The Open Source CFD Toolbox
   \\    /   O peration     | Website:  https://openfoam.org
    \\  /    A nd           | Version:  8
     \\/     M anipulation  |
\*---------------------------------------------------------------------------*/
FoamFile
{
    version     2.0;
    format      ascii;
    class       volVectorField;
    location    "0.0585000";
    object      U_0;
}
// * * * * * * * * * * * * * * * * * * * * * * * * * * * * * * * * * * * * * //

dimensions      [0 1 -1 0 0 0 0];

internalField   nonuniform List<vector> 
900
(
(0.726471132917519 0.000363421451790958 -5.86689642853297e-19)
(0.726994167810479 0.000208046174379177 -1.12748341052258e-18)
(0.726997435034398 0.000167341634745609 -2.00282100357591e-18)
(0.727093003066517 0.000190665242822162 -1.53734478018815e-17)
(0.72705058267436 0.000198095421703212 -2.94298917631639e-18)
(0.726966440442966 0.00020422867394629 7.63678301395654e-18)
(0.726865436201134 0.000208342681905454 -3.94467664505055e-18)
(0.726762028760114 0.000211412728072563 5.05235071314116e-18)
(0.726656829688507 0.000214237814992077 -8.21776535697509e-18)
(0.726547987681056 0.000217067843550717 -4.04635234729754e-18)
(0.726437873953509 0.000219897789639466 6.11369757278022e-18)
(0.726327510084404 0.00022198803494256 -2.28495195060697e-18)
(0.72621507971978 0.000223738409167813 6.20364672121984e-19)
(0.72610138172268 0.000225696843085154 -4.33613046933755e-17)
(0.725985859862464 0.000228370474151771 -2.03639358427874e-18)
(0.725867161468108 0.000230544697635738 2.27451737476655e-18)
(0.72574451103561 0.000232568417546967 3.52573881321418e-17)
(0.725617503461032 0.000235063726521252 1.4121785803464e-17)
(0.725485583900839 0.00023777124288068 -3.2690513364535e-18)
(0.725351810442907 0.00023913652706274 -3.33459467130081e-17)
(0.725218436521685 0.000240569325010182 -2.31617144442563e-17)
(0.72508078315681 0.000242913905475717 -2.53397191916527e-17)
(0.724938834272846 0.000245414486397513 -3.38976367300494e-18)
(0.724794103354167 0.000247528065497883 4.00941636999062e-17)
(0.724644642259319 0.000249826656118981 2.35571467883584e-17)
(0.724489475575158 0.000252207806686095 5.65922645110725e-18)
(0.724332381021428 0.000254628481987823 -5.75746556077027e-18)
(0.724173398994246 0.000257003138223218 -1.99446887148585e-17)
(0.724007727422784 0.000259605418492972 -2.20906588129222e-17)
(0.72383875865789 0.000262696820254958 -2.10680711540516e-17)
(0.723667912709308 0.000266057094387519 2.87991039926013e-17)
(0.723492060695031 0.000269133961389321 1.06987027263704e-17)
(0.72331044764392 0.000272341416074404 -5.69582933549219e-17)
(0.723125654405275 0.000276605750142651 -6.24642139657623e-17)
(0.722941621773134 0.000280722955082895 -6.55976370060371e-17)
(0.722755084274936 0.000285238904524252 -1.46755942014086e-17)
(0.722558997858122 0.000290293238681473 1.09955666256629e-16)
(0.722364007528573 0.000297465829031442 -6.0593543093858e-17)
(0.722170089407741 0.00030473303575108 1.31224811890365e-17)
(0.721968496742178 0.000311420198440479 -1.21461933400058e-17)
(0.721768175371635 0.000318667801958756 -1.11822262790949e-16)
(0.72157247524526 0.000331912623646903 -1.42239784335389e-16)
(0.721373717774747 0.000343919587208183 -1.58780058253752e-17)
(0.721170704582864 0.000355465582592545 8.84926011817489e-17)
(0.720977840420402 0.000369947657764189 -7.00118425357915e-17)
(0.720796205063055 0.000391639003791403 -1.04819484846043e-16)
(0.720620791341038 0.000411126132106721 -5.68207084579106e-17)
(0.720457633116755 0.000431980903650881 -7.53029060099616e-17)
(0.720310420679114 0.000460731933152843 -2.10591481428297e-17)
(0.720184728105073 0.000497655412903239 -1.96345126964685e-18)
(0.720083055504487 0.000531065605385876 5.71970522150969e-18)
(0.72001117020738 0.000567316880999235 9.8428322155352e-17)
(0.719982196107621 0.000619340661742078 7.98875538437691e-17)
(0.720004736316971 0.000682512955529303 4.45545557802089e-17)
(0.720081850543014 0.000739034254307427 -5.80893125269502e-18)
(0.720230144962139 0.000801673813315133 6.92527195743018e-17)
(0.72046601661911 0.000898689287854737 -9.5605585684528e-17)
(0.720809030422561 0.000998860158971055 1.4378382893819e-17)
(0.721284670630085 0.00109159347920987 7.46955334134652e-17)
(0.721942573121734 0.00120001125922619 1.30563651226841e-17)
(0.722857227428753 0.0013954346753167 -6.4638506074761e-17)
(0.724207587769287 0.00162676956168495 -1.14144666310956e-16)
(0.726247069624487 0.0018840036087289 -7.86984221640167e-18)
(0.729294130808919 0.00224126098204292 6.8782424950244e-18)
(0.733371954317187 0.0028758028353028 2.59158002373187e-17)
(0.738362115315871 0.00332871749871222 -1.01990847000532e-17)
(0.744416292115367 0.00373493775131146 4.31577696177752e-17)
(0.751464331053379 0.00421201230325006 1.95832191985983e-17)
(0.759445267092404 0.00464782017328527 5.73920129083571e-17)
(0.768468262385885 0.00483685904825138 6.1634974073338e-17)
(0.778646040449723 0.0049435997586762 9.81271597839527e-17)
(0.78978702670724 0.00506824286532792 -7.01146847246217e-17)
(0.801806152121787 0.00496113704806137 -1.05805418576865e-16)
(0.814746765472689 0.00471887460021742 6.76450525601643e-18)
(0.828372755392779 0.00441072608287692 -4.63299992801076e-17)
(0.842666598239219 0.00398614026140918 -6.48199728090859e-17)
(0.857463049648354 0.0034846750416155 8.30569133515563e-18)
(0.872848334746023 0.00294738233803399 1.21717953313158e-16)
(0.888406655347605 0.00236066476149095 -7.7786246645066e-18)
(0.904808946194905 0.00174242280167432 2.28856962686741e-17)
(0.921020654595188 0.00123196686984926 -2.1888233999248e-17)
(0.938862182610784 0.000671176628564626 4.74755719399279e-17)
(0.955602972507801 0.000282485306191747 4.54142050396055e-17)
(0.976244679389774 -0.000184067513965529 -3.46339089801046e-17)
(0.99348046360084 -0.000307632711647785 -7.11023683687084e-17)
(1.01989371778187 -0.000576799684110194 -2.09293995803503e-17)
(1.03012675333847 8.96462528878146e-05 -4.86124698689022e-17)
(1.02709502237593 -6.87487514664538e-05 -1.35501957540011e-17)
(1.03166443673848 0.000123556181083896 -1.73695052479277e-17)
(1.03076377042217 0.000146652521134625 3.60237409337637e-17)
(1.03241244269008 0.000188460407631415 1.37487454919035e-17)
(1.03202841670466 0.000172329278538096 2.29847824479019e-17)
(1.03237085779566 0.000222635521690104 -8.65823165583269e-18)
(1.03180247233063 0.000200206095083093 -2.92302312576814e-18)
(1.03154557972759 0.00019822315725518 1.60893396322674e-17)
(1.03097510663906 0.000190234253806092 9.25460587023184e-18)
(1.03048509550515 0.000175529252356131 3.63223628159166e-19)
(1.02978557127744 0.000164274613148909 -1.09721025097182e-18)
(1.02917511176578 0.000181147338445763 -4.71682823475665e-18)
(1.02821819621517 0.000258577406615392 1.07692891737395e-18)
(0.370144883873941 0.0019029660648475 -1.63763869411195e-18)
(0.37199600326256 0.00202240349566879 -2.5044039571093e-18)
(0.37213605473905 0.00208844462877459 -1.32617631372688e-17)
(0.372289845508851 0.00222048995166527 -2.65466834901787e-17)
(0.372113574125839 0.00229890293649652 8.47654685694594e-18)
(0.37182850795946 0.00233856105756633 -7.47075348836209e-18)
(0.371497615870847 0.0023586154538842 -1.69883337775798e-17)
(0.371153026031244 0.00237076307907179 9.7459203091469e-18)
(0.370801609953849 0.00238079822094252 1.61243001944955e-17)
(0.370444004340277 0.00239058757624186 -4.50429491269232e-18)
(0.370081412004018 0.00240049208872139 1.77158324748532e-17)
(0.369713640611366 0.00240917480314184 3.97447155473077e-17)
(0.369338738430996 0.00241734820569416 6.39214361175656e-18)
(0.368956603633251 0.0024259652976702 -2.83979406342923e-17)
(0.36856752039973 0.0024359228898709 5.07498446819804e-18)
(0.368170537097596 0.00244515740051796 6.86952176801432e-17)
(0.367764048748341 0.00245427597086491 1.12264067110605e-16)
(0.367347791363316 0.00246424110096398 4.13552226258759e-17)
(0.36692231810403 0.00247463627228908 -7.05434845490848e-18)
(0.36648813097864 0.00248278838702747 -1.02387868347128e-16)
(0.36604496775221 0.00249112774862029 -6.26867766385432e-17)
(0.365591055050434 0.00250120447997867 -1.09934590055708e-16)
(0.365126661199051 0.00251182958828388 -7.9254467149015e-18)
(0.364651586150745 0.00252194909014308 4.47995545587575e-17)
(0.364164264035453 0.00253251601549945 6.6453351109223e-17)
(0.363664161408107 0.00254342071789523 1.64524813635063e-17)
(0.363152883317386 0.00255463284822271 -1.61737610814786e-17)
(0.362629891562341 0.00256593580756575 -6.06789456163445e-17)
(0.36209231801426 0.00257790558350597 -6.53906269915921e-17)
(0.361541752040138 0.00259111084211334 -6.08369329736441e-17)
(0.360979009995296 0.00260507876661742 -3.34718430938664e-18)
(0.360401670624661 0.00261875679628697 3.44187445552152e-17)
(0.359808451392733 0.00263298898574655 -1.78781659411926e-16)
(0.359201255121864 0.0026496134596672 -1.6606227198712e-16)
(0.358582121970486 0.00266636122201961 -1.21268395266297e-16)
(0.357948427075698 0.00268422860166587 4.62042630313619e-17)
(0.357296226881203 0.00270369250199352 1.22552028143958e-16)
(0.35663226470265 0.00272783695333356 -8.19377936601532e-17)
(0.355957692057723 0.00275263436499008 3.25853445796598e-17)
(0.355266451001537 0.0027767400753628 -5.30786696158447e-17)
(0.354562102904329 0.00280280615771201 -1.84063821356965e-16)
(0.353850922946703 0.00284141795284782 -1.26217068054456e-16)
(0.353131629807625 0.00287841863838431 -4.09195461551639e-17)
(0.352401231046149 0.00291508894721045 1.2827888463976e-16)
(0.35166895665126 0.0029587954310354 -7.44730228406199e-17)
(0.350944016633084 0.00301788407919971 -1.72240071077568e-16)
(0.350226930087066 0.00307367638581454 -1.58864031562434e-16)
(0.349520416193342 0.00313315760498435 -2.27909097561072e-16)
(0.348834640100475 0.00321031233875222 -6.0735787302767e-17)
(0.348187599154468 0.00330529544158144 -9.13000941496169e-18)
(0.34758603431479 0.00339432414461509 1.58363115119064e-17)
(0.347036507595185 0.0034904957205151 7.47751968913751e-17)
(0.346566708679801 0.00362121105014274 9.40958063508345e-17)
(0.346210088401836 0.00377638814724346 1.33025905481199e-16)
(0.345979918520543 0.00391887551273899 -1.99464828225045e-17)
(0.345898502782662 0.00407650964357346 8.97750644258332e-18)
(0.346024954599358 0.00430674919219597 -2.19576642913689e-16)
(0.346419810753543 0.00454607313134532 -8.29073025166599e-17)
(0.347122172143375 0.00476914051536753 3.13744021465792e-17)
(0.348207193022436 0.00503263505066727 -7.98085410069378e-17)
(0.349870567014898 0.00548196627044491 -1.02414164313296e-16)
(0.352398452892469 0.00601737297272682 -2.5376187274698e-16)
(0.356124949186319 0.00661145771794858 5.4655622848089e-17)
(0.361530810865746 0.00744950843246919 1.43366865376031e-17)
(0.36914805045113 0.00884098537467946 7.67621353090129e-17)
(0.379161972360223 0.00986548717350401 6.93081296631106e-17)
(0.391721455061119 0.0107541452526011 1.32079342696103e-16)
(0.406974099138766 0.0117660498569128 7.01704895849044e-17)
(0.42507068109468 0.012638699206041 1.76170597997391e-16)
(0.445982086775856 0.0129550558690918 4.13975045001027e-17)
(0.469623328380932 0.0130558230348182 2.95719207080511e-16)
(0.495886925181639 0.013124316408675 -7.34884236604931e-17)
(0.524547374083315 0.0126716968805942 -1.84200323616381e-16)
(0.555380479241184 0.0118825002953774 2.25102516543217e-17)
(0.587929456280967 0.0109103402499186 -1.30164565776143e-16)
(0.622123378768373 0.00966064741015891 -1.92482862156087e-16)
(0.657417638694273 0.00822783533523514 2.23516479121962e-17)
(0.6941102715911 0.00668980305390111 3.63521286581882e-16)
(0.731135311259253 0.00504132951307122 -1.77758408894314e-17)
(0.770004150238952 0.00332149062552436 6.79292329258801e-17)
(0.808250274975923 0.00183545591243162 -6.00802261054174e-17)
(0.850394398231433 0.000227180417754168 3.14525651712359e-17)
(0.889624341871022 -0.00101023870498669 1.11136828200821e-16)
(0.938255657966579 -0.00241278703126531 -6.03090575662108e-17)
(0.978188442361489 -0.00302978644104422 -7.74439043453427e-17)
(1.04070426736849 -0.00373443031068598 -1.39911461847712e-17)
(1.06357841102853 -0.000202590564134236 -5.13974477556388e-17)
(1.05327891998159 -0.000403844659723513 -3.97913948558026e-17)
(1.06177016525186 2.36918283100064e-05 -4.29868158033009e-17)
(1.05729413964241 0.000106665025273914 4.39184804878177e-17)
(1.0595875409482 0.000242768896469267 2.18329434176832e-17)
(1.05710344000794 0.000248172036780381 6.62930496382011e-17)
(1.05692187887082 0.000363033555830824 -2.56154780156763e-17)
(1.05484042702261 0.000351028640059375 -3.31462273142956e-17)
(1.05362506795866 0.000366188653875532 4.7786198459154e-17)
(1.05170174003166 0.000365257206972947 1.90981180180785e-17)
(1.05012153189078 0.000355171114883003 1.17326664734333e-17)
(1.04819893960383 0.000345933904053512 -2.9438245418814e-18)
(1.04660736878103 0.000373242451441714 -1.16808765732254e-17)
(1.04481118669061 0.000422885567971107 3.18372742623594e-18)
(0.0883835277441608 0.00405949362290338 -3.08766480388153e-18)
(0.0914559344717694 0.00458698927288159 -5.28167155158523e-18)
(0.091751736458028 0.0050306630336252 -7.06049505223748e-18)
(0.0918667470310219 0.00537819908848896 -2.04769814118385e-17)
(0.0915354765563705 0.00557027444950503 7.62876715725195e-18)
(0.0910616488514238 0.00565941838632591 -3.17677834729535e-17)
(0.0905279171347465 0.00570025660722989 -9.14539789198362e-18)
(0.0899737085645093 0.00572260443696738 2.66034459479072e-17)
(0.0894087025015343 0.00573971081731117 4.57651326572635e-17)
(0.088834830329916 0.00575602457337656 -1.2578736746506e-17)
(0.0882529428626915 0.00577239085427425 2.83712103946108e-17)
(0.0876623315504613 0.00578773713124242 4.09649737538373e-17)
(0.0870609372585522 0.00580262375459533 7.80163222842372e-18)
(0.0864482495923575 0.00581813467947316 -3.81632670253199e-17)
(0.0858248702719079 0.00583502498147406 6.24540979259417e-18)
(0.0851900673846674 0.00585145751579444 1.60754650538917e-16)
(0.084541937226794 0.0058678601925415 2.23186598874418e-16)
(0.0838802119497468 0.00588525850554703 6.32448154440967e-17)
(0.0832057384484507 0.00590303970051188 -5.20525692892985e-18)
(0.0825177494964537 0.00591872714839507 -7.49949929303816e-17)
(0.0818146568286868 0.00593466723342205 -1.16936513557043e-16)
(0.0810959609135225 0.00595259636659648 -1.48033397924509e-16)
(0.0803620955177716 0.00597128852439741 4.65629300337197e-18)
(0.0796121087937532 0.00598971151742402 5.179909558551e-17)
(0.0788444795034665 0.00600873550279589 1.18957662896179e-16)
(0.0780587399404771 0.00602831764452714 2.56071612269627e-17)
(0.0772554171455631 0.00604835578733623 -2.39627656616175e-17)
(0.076433608979114 0.0060687904600928 -1.06143237767343e-16)
(0.0755911597258178 0.00609020174047638 -8.2614893984411e-17)
(0.0747288205299512 0.00611314759893261 -1.09562010657723e-16)
(0.0738471537940995 0.00613718405394517 -3.16188792697391e-17)
(0.0729439690439867 0.00616121154289812 -1.2074573666257e-17)
(0.0720173534186705 0.00618621479719509 -1.72203112011849e-16)
(0.0710689738683362 0.00621392687473615 -1.65898996997223e-16)
(0.0700999812823658 0.00624228573577753 -1.65481795879363e-16)
(0.0691078516882164 0.00627221135378108 -9.66188651953716e-18)
(0.0680899088487786 0.00630458616464068 1.21276797994664e-16)
(0.0670513865442274 0.00634212587878454 3.64945074061661e-17)
(0.065994346872752 0.00638118759860354 1.23351574933898e-16)
(0.0649136861382004 0.00641968120929676 -9.23164725476278e-17)
(0.0638089532975593 0.00646157449805523 -1.26993657134715e-16)
(0.0626897859683164 0.00651701384274317 -1.20048943893467e-16)
(0.0615594109761126 0.00657226866678846 2.28530809333519e-17)
(0.0604118654904968 0.00662721331771145 1.91280523189884e-16)
(0.0592530404273942 0.00669142119814741 -8.43095517431039e-17)
(0.0580995427174477 0.00677254295940678 -2.44575035778602e-16)
(0.0569560551407055 0.00685181708539555 -2.51180269246913e-16)
(0.0558198494902639 0.00693574653799175 -2.07036622499373e-16)
(0.054706008740177 0.00704101365895851 -9.56235083388004e-17)
(0.0536453593403461 0.00716615332740722 -2.60495476447387e-17)
(0.0526474372525717 0.00728638764217064 2.240322921615e-17)
(0.0517123016367526 0.00741588757206601 7.83958732752298e-17)
(0.0508801208016522 0.00758545587191313 1.09893384011947e-16)
(0.0502110991107583 0.00778250918675342 2.14346096102904e-16)
(0.0497234451007113 0.00796662440938086 -4.02422209285928e-17)
(0.0494251947914208 0.0081715959102326 -4.52078839449447e-17)
(0.0494200455687386 0.00845526412934788 -2.29557188473123e-16)
(0.0498129221582127 0.00875221430782862 -5.5689182503511e-17)
(0.050637004564708 0.00902806565927241 -6.24041564342222e-18)
(0.051945966613786 0.0093625146862693 -1.70260460542805e-16)
(0.0540421784800832 0.009901817695652 -1.36704674092176e-16)
(0.0573246202489794 0.0105506585534591 -4.02682710854452e-16)
(0.0621462589339881 0.0112657524726677 1.46341771428342e-16)
(0.0689696398302784 0.0123120998925891 1.94286899186452e-17)
(0.0789586945077012 0.0139010633557622 1.26935113078344e-16)
(0.0925759616870986 0.0151252127149559 3.86010175649009e-17)
(0.109625878867022 0.0161402778335486 7.35892255509981e-17)
(0.130573211429351 0.0172521078872622 5.16943288540054e-17)
(0.155914115324432 0.0181309367314233 1.61204528064287e-16)
(0.185374117032601 0.018352654889879 1.37155251986122e-17)
(0.21851558893199 0.0182739123679435 3.63736057009853e-16)
(0.255586374597099 0.0180509665714416 -7.87795243301715e-17)
(0.296253972164286 0.0172213993273699 -1.33174440847373e-16)
(0.339881155755714 0.0159405983161782 4.50843881572536e-17)
(0.385973231996484 0.0143937709625967 -8.8387375368484e-17)
(0.434430580856931 0.0124975599598746 -1.91122793355045e-16)
(0.484351515608107 0.0103706586061048 3.35902889285252e-17)
(0.536245772503384 0.00807949541667627 6.06932615886733e-16)
(0.588571994468065 0.00566560080234079 1.0817256517477e-16)
(0.643290423271231 0.0031563615147343 1.31166818452776e-16)
(0.697046885960968 0.000925428981715356 -8.3833662503253e-17)
(0.756293250432789 -0.00147313348338264 1.3341082217085e-16)
(0.811194114556678 -0.00341816707755277 1.49438908761252e-16)
(0.879111834154772 -0.00559525478164646 -1.05090078944129e-16)
(0.934700894121653 -0.00671650574911017 -8.5991624264712e-17)
(1.02193075702929 -0.00772692117642753 -6.75739361384667e-18)
(1.05366980298706 -0.000361949478642284 -5.43708246282491e-17)
(1.03832917306739 -0.000528295951164368 -6.61313847813484e-17)
(1.04943484400472 -2.07373227803026e-05 -1.67530245743378e-17)
(1.04256112140396 5.63136796604484e-05 4.22808664334895e-17)
(1.04532248129622 0.000260518292716737 3.5901254835328e-17)
(1.04140715345428 0.000287423168594233 8.57246738443185e-17)
(1.04088240942943 0.000403066805235888 -4.30820332376471e-17)
(1.03779457976234 0.000411353737724214 -3.9308367916446e-17)
(1.03593859228434 0.000432071925978562 7.93411878862426e-17)
(1.03310811071704 0.00042745009342938 6.10454172483068e-17)
(1.03080380801817 0.000422089576449957 2.29836321640107e-17)
(1.02807524276674 0.000405823749290809 -7.36354532462392e-18)
(1.02588912949345 0.000389895739181907 -1.78533885130063e-17)
(1.02370949003706 0.000269185951452966 4.32666686600359e-18)
(-0.118581507318601 0.00702672724743851 -4.54218191016731e-18)
(-0.115503132377809 0.00732581127660813 -7.47910487745094e-18)
(-0.115347314390993 0.00833532136863879 -4.06399255856653e-18)
(-0.115448293314848 0.00895367418754925 -1.55480762626929e-18)
(-0.115967883557498 0.00927203150541143 2.19946772548185e-17)
(-0.116611054100991 0.00941267922918173 -2.74073785555128e-18)
(-0.117306413705934 0.00947459504950146 6.87888635615119e-18)
(-0.118021699199201 0.0095072587384112 4.68422370076969e-17)
(-0.118749298544023 0.009531514782536 9.17867700982434e-17)
(-0.119487557244473 0.00955436029353024 2.33510949518462e-17)
(-0.120236049035944 0.00957726164610848 4.75709498301886e-17)
(-0.120995660886208 0.00959954194494392 3.50555194201032e-17)
(-0.121768249647561 0.00962157129161743 1.30461382979641e-17)
(-0.122554481612443 0.00964431403255627 -5.68513906650189e-17)
(-0.123353847226966 0.00966832040680073 -7.42666275216903e-18)
(-0.124166935074548 0.00969219384580573 1.44888750791085e-16)
(-0.12499548876139 0.00971618548405653 2.28973138585676e-16)
(-0.125839849642598 0.00974116993850343 7.34507981147785e-17)
(-0.12669939776279 0.00976653753538773 -2.27540071318976e-18)
(-0.127575464184177 0.00979034054112801 -5.35441693086314e-17)
(-0.128470060859028 0.00981449105063477 -8.06001877777152e-17)
(-0.129383260628073 0.00984056015946441 -1.07662408029886e-16)
(-0.130314695534876 0.00986752816029155 -7.28829372594259e-17)
(-0.131265554904839 0.00989453786560431 7.2463234972293e-17)
(-0.132237249008165 0.00992226106268001 1.96719102902848e-16)
(-0.133230325962252 0.00995071346123339 3.03905320827658e-17)
(-0.134244953610726 0.00997978326965166 -2.63596363420334e-17)
(-0.135282190174166 0.010009503146826 -1.69587925521471e-16)
(-0.136343714788173 0.0100403795488819 -9.98240813693202e-17)
(-0.137429342239608 0.0100728985855047 -1.72090284688012e-16)
(-0.138538836049469 0.010106698166422 -5.40586439258409e-17)
(-0.13967409299988 0.0101408134647275 -4.25486308892861e-17)
(-0.140837183615764 0.010176174283175 -9.40633585128145e-17)
(-0.142026919401007 0.010214222588514 -1.46484486296904e-16)
(-0.143242817157805 0.0102533176619714 -1.49527036124299e-16)
(-0.144487009826575 0.0102942020173169 -5.63670037888553e-17)
(-0.145761279832802 0.010337877914489 6.38966563844929e-17)
(-0.147061665489218 0.0103864823247812 1.30215701236238e-16)
(-0.14838588981984 0.0104370838546687 4.68172644263488e-17)
(-0.149737919361899 0.010487475535469 -5.72805807462835e-17)
(-0.151120090110105 0.0105418276627744 -7.7035650379179e-17)
(-0.152521792287788 0.0106086583713001 -1.35754398750679e-16)
(-0.153937366019023 0.0106762938373506 4.79981435915916e-17)
(-0.155373326980697 0.0107438666083261 2.77429502163456e-16)
(-0.156825820092417 0.0108208728758471 -2.40758213552699e-16)
(-0.158275228408171 0.0109135714801916 -3.26276391649006e-16)
(-0.159714118918378 0.0110055213981006 -2.21851620420583e-16)
(-0.161146993135652 0.0111021133354867 -3.3167011602045e-16)
(-0.162556343034515 0.011219314028558 -1.28454499946359e-16)
(-0.16390524522763 0.0113549005025679 -4.37784588075043e-17)
(-0.165181627286296 0.0114864647316145 2.48402419966883e-17)
(-0.16638752472881 0.0116269323922447 7.93408845472123e-17)
(-0.167476576525791 0.0118050887882777 9.75484922030754e-17)
(-0.168374621118221 0.0120083106027867 3.45189662174773e-16)
(-0.169058348420841 0.0121987914886046 -7.13402490071277e-17)
(-0.169526192628465 0.0124093074739765 -1.32352517843385e-16)
(-0.169650464423445 0.0126911764813872 -2.82445111962212e-16)
(-0.169301502451713 0.0129844757158792 -5.30765366209809e-17)
(-0.16844571735998 0.01325351574643 -3.66336323815751e-17)
(-0.167040681346139 0.0135799607469706 -2.6939901506164e-16)
(-0.164725633779729 0.0140945117125105 -1.63094255082532e-16)
(-0.161041525300944 0.0147111005473204 -5.89394672625484e-16)
(-0.155622751991673 0.0153801795035036 1.27347627858361e-16)
(-0.14803129142289 0.0163746907721679 -8.88870721754044e-17)
(-0.136727808298608 0.0178387756961291 1.71603174447126e-16)
(-0.121063136302891 0.0189435968784086 1.5638804422738e-16)
(-0.101435827986153 0.0198016573690487 1.97822669137704e-17)
(-0.077188468141389 0.0207098345413533 4.14488617468839e-17)
(-0.0476111293734404 0.0213338879844984 1.53494743585113e-16)
(-0.0131228359796997 0.0212826684523072 1.27634067134267e-16)
(0.0256100265615012 0.0208960584074448 4.42973878316848e-16)
(0.0690602549897964 0.0203044928465336 -8.74148133734827e-17)
(0.116834782304216 0.0190934896439162 -8.45437274845021e-17)
(0.168033400712558 0.0174026482517555 -5.65154968285405e-17)
(0.222143836673507 0.0154159069482079 -1.68717224102516e-16)
(0.279046508348366 0.0130642472760292 -1.90278041055571e-16)
(0.337615918853199 0.0104697369748235 4.0276974999426e-17)
(0.398489387232992 0.00769124918806054 7.32962066202294e-16)
(0.459839969744913 0.00478569311529033 2.54220712028025e-16)
(0.52386837666793 0.00178049143924616 1.53504851639614e-16)
(0.58670740932308 -0.000965118695962519 -5.10543147266112e-17)
(0.655941954713807 -0.00389148439383613 9.58707812471407e-17)
(0.719938229984135 -0.00637889202546994 1.99116175280339e-16)
(0.798983303276903 -0.00912575767235567 -1.19680691929434e-16)
(0.863558352700578 -0.0108052672732033 -9.96488762658488e-17)
(0.965168713703553 -0.0118455052656741 9.9912905853577e-19)
(1.00214666164713 -0.000456894694097037 -5.75581101212962e-17)
(0.983646250587797 -0.00049317894528675 -9.3887237856775e-17)
(0.996160841977874 -5.26321303343437e-05 2.84044474492525e-17)
(0.9878602411563 5.8044383994445e-05 2.37583202531208e-17)
(0.990850664919942 0.000240526663140721 3.1964706989153e-17)
(0.986085609586624 0.000286602523227615 8.07594755685742e-17)
(0.985352469247481 0.000385424079001972 -6.14496485546955e-17)
(0.981688578553953 0.000403145034188878 -3.15670559098212e-17)
(0.979468246921723 0.000420520387857756 1.05508458362551e-16)
(0.976122561989981 0.000416452447768879 7.61695868428696e-17)
(0.973412199765277 0.000410868810718623 2.3074923784694e-17)
(0.970234601069364 0.000391671857766287 -1.71866919090062e-17)
(0.96772294784415 0.000360472773374869 -2.57995804355127e-17)
(0.965354431304129 0.000219456904764517 4.07235810212457e-18)
(-0.251703678545554 0.00921401478698027 -6.92098976382692e-18)
(-0.250094424588205 0.00975447382054281 -9.77249738617064e-18)
(-0.250469596766471 0.0112848775260072 -5.28277815745815e-19)
(-0.250967899749904 0.0121201494705582 1.10198689284977e-17)
(-0.251691207114312 0.0125270983845667 1.67672034549636e-17)
(-0.252465187887553 0.0127012521234469 2.09943283632462e-17)
(-0.253263429855129 0.0127771143107013 1.14068444440041e-17)
(-0.254074159375849 0.0128175013254853 6.61548174976526e-17)
(-0.254896215986619 0.0128478035670931 6.62471819873469e-17)
(-0.255729572590694 0.0128763929108905 4.29780676526819e-17)
(-0.256574341538742 0.0129051375227819 7.35189699979815e-17)
(-0.257431410088214 0.0129336481353376 3.73013555429523e-17)
(-0.258302291106012 0.0129621611928017 2.6531728733581e-17)
(-0.259187660822336 0.012991410418176 -9.69062422113031e-17)
(-0.260087208671205 0.013021793099558 -4.30451614620781e-17)
(-0.261001411206372 0.0130522937742223 6.93520356048574e-17)
(-0.261931693729353 0.0130830699306036 2.19164989233439e-16)
(-0.26287846221988 0.0131147756622006 6.94477767530327e-17)
(-0.263841439120492 0.0131469355889259 -2.43249382569962e-18)
(-0.264822133002954 0.0131781097722781 -3.31644179244598e-17)
(-0.265822543136292 0.0132097462070385 -6.97028438962323e-17)
(-0.266842661791744 0.0132430963367324 -8.45160991280149e-17)
(-0.267882257381789 0.0132774116854118 -3.47462168399716e-17)
(-0.268942506848532 0.0133120319135966 5.36755825952627e-17)
(-0.270024658399255 0.01334744876883 1.21591758445652e-16)
(-0.271129344522195 0.0133837038721589 2.39885024155253e-17)
(-0.272257148672333 0.0134207225850037 -1.89061442595301e-17)
(-0.273409147519075 0.0134585502929984 -1.61642251908493e-16)
(-0.274586663347717 0.0134976012078793 -1.0196445357209e-16)
(-0.275789873499598 0.0135382785409007 -1.71763886121591e-16)
(-0.277018823838007 0.0135803056131785 -6.64787447907228e-17)
(-0.278275091186192 0.0136229167959365 -6.73794875672947e-17)
(-0.279560648323419 0.0136668789073508 -1.16834609654287e-16)
(-0.280874797231751 0.0137133470977841 -1.352713655963e-16)
(-0.282217521912532 0.013761059326261 -2.02683305387745e-16)
(-0.283590477516291 0.0138106011071706 -1.13679655539389e-16)
(-0.284994815473464 0.0138628384733725 5.05530705386604e-18)
(-0.286427626768726 0.0139194351481158 7.78155612842968e-17)
(-0.287886766843606 0.0139780927227081 2.50582272711901e-17)
(-0.289375101819076 0.0140369550002566 -3.00440905030607e-17)
(-0.290895694558437 0.0140995468335554 -3.18097056072973e-17)
(-0.292438327327838 0.0141726522297144 -1.596070576063e-16)
(-0.293996292646495 0.0142468774376792 1.35408589986219e-17)
(-0.295575510962546 0.0143213563639456 2.65527680159291e-16)
(-0.297173475828015 0.014403992424806 -2.80768407193499e-16)
(-0.298770332466916 0.0144997300047754 -2.77645302437028e-16)
(-0.300357189467238 0.0145951254651621 -2.71796394416288e-16)
(-0.301938590914147 0.014694468937902 -2.90440543028349e-16)
(-0.303496632594044 0.0148109425055385 -1.57061435483764e-16)
(-0.30499307645401 0.0149423583262524 -2.18026454535541e-16)
(-0.306414317950673 0.0150701040479702 2.23517210246948e-17)
(-0.307762609354767 0.0152047474693041 7.90500770030278e-17)
(-0.308990538420821 0.0153699582055067 9.97410673160453e-18)
(-0.310019715814998 0.0155546220638231 2.48174799051307e-16)
(-0.310823483341696 0.0157268262421394 -1.13750889511372e-16)
(-0.31140317606734 0.0159139366930629 -1.92955451288655e-16)
(-0.311623597207319 0.016157547704583 -2.3935171029006e-16)
(-0.311346490519245 0.0164067377118336 -3.06792712169839e-17)
(-0.310537008354208 0.0166304498243455 3.63416878550661e-17)
(-0.309160688205899 0.0168977536588979 -2.80622164646288e-16)
(-0.306839929372543 0.017314933566258 -1.76796909375055e-16)
(-0.303102096364172 0.017806744558202 -5.9294330900574e-16)
(-0.297586966032954 0.0183266319363352 5.46201538175113e-17)
(-0.289896801925592 0.0191049540965894 -1.95989703553626e-16)
(-0.278333786656234 0.0202427745746676 1.30513720753319e-16)
(-0.262151668527941 0.0210355861955762 9.24583602849529e-17)
(-0.241850525476722 0.021576319112574 -2.77992431010968e-17)
(-0.216686721216717 0.0221113147619188 9.85295821695095e-18)
(-0.185848030348691 0.0223471801892699 1.51378298986603e-16)
(-0.14981854425376 0.0219572568735986 9.4887875563822e-17)
(-0.109383419354141 0.021237256144672 5.35302864727303e-16)
(-0.063952676522051 0.0202904763371769 -1.01110447258331e-16)
(-0.0139368278248725 0.0187708450237786 -3.62009877380003e-17)
(0.0396376512610264 0.0168071096229628 -1.61415019281469e-17)
(0.0962670723758252 0.0145579434071788 -1.25187118386746e-16)
(0.155824041327727 0.011971361013443 -1.89948436806883e-16)