/*--------------------------------*- C++ -*----------------------------------*\
  =========                 |
  \\      /  F ield         | OpenFOAM: The Open Source CFD Toolbox
   \\    /   O peration     | Website:  https://openfoam.org
    \\  /    A nd           | Version:  8
     \\/     M anipulation  |
\*---------------------------------------------------------------------------*/
FoamFile
{
    version     2.0;
    format      ascii;
    class       surfaceVectorField;
    location    "0.0005000";
    object      Uf;
}
// * * * * * * * * * * * * * * * * * * * * * * * * * * * * * * * * * * * * * //

dimensions      [0 1 -1 0 0 0 0];

internalField   nonuniform List<vector> 
1094
(
(0.691924472925066 0.000419328132650079 -1.8199182875053e-18)
(0.463835380513865 0.00142008927854957 -4.64601247398536e-18)
(0.69249532137714 0.000270841980497139 5.28992583895038e-18)
(0.46623329768564 0.00152952565372772 2.30756541509829e-18)
(0.693020233622209 0.000239363702372084 4.94546856992789e-18)
(0.466986492585598 0.00156746174973194 -1.1276464498571e-18)
(0.693407335799478 0.000259898573672756 -2.71178782088009e-18)
(0.467640643966059 0.00167376478840419 -4.19761583598465e-19)
(0.69370052654975 0.000271862504821264 1.74153409881169e-20)
(0.468113923167267 0.00174568341095346 2.87648151199058e-18)
(0.693950715290832 0.000276243149140659 -2.95548125912862e-19)
(0.468476116053213 0.00177897292416698 2.42137733028971e-17)
(0.694187452875601 0.000277241220675923 -2.21758102855305e-17)
(0.4687975944245 0.00179017514271772 -1.0967344482869e-18)
(0.694423927601762 0.000276943318896362 -2.79985502745855e-17)
(0.469111445261831 0.00179168616505973 -2.73440174528869e-17)
(0.694664889944709 0.000276284600872022 -1.70851479405446e-17)
(0.46942972043326 0.00178980149235162 -2.40209650869304e-17)
(0.694911607807763 0.000275599356191378 -9.02739540296807e-18)
(0.469756347347719 0.00178707582870215 -2.7735072939786e-17)
(0.695164249789701 0.000274948979117232 -5.43319327769928e-18)
(0.470092361632779 0.00178430030285691 -1.34235019667311e-17)
(0.695422794937803 0.000274312812943984 -8.88185132712742e-18)
(0.470437977348061 0.0017816077823272 -1.14920718535188e-17)
(0.695687286699843 0.000273661980730054 -1.64931329884068e-17)
(0.470793322120661 0.00177895325091903 -2.12081612373507e-17)
(0.695957859419011 0.00027297677320752 -3.45191394369415e-17)
(0.471158616248497 0.00177627604315236 -3.84825000147702e-17)
(0.696234711821252 0.000272246196570175 -5.49350577691378e-17)
(0.471534174663431 0.00177353589213591 -9.52586487682969e-17)
(0.696518081776618 0.000271464381001662 -4.53645468763575e-17)
(0.471920377409659 0.00177071101661224 -1.3279094876007e-16)
(0.696808231896969 0.000270627833127315 -1.00052534477116e-17)
(0.47231764743544 0.00176779011779764 -5.67982854368341e-17)
(0.697105443334705 0.000269733946508455 9.14215405738783e-18)
(0.472726439462407 0.00176476658098932 2.30176384104593e-17)
(0.697410013994256 0.000268780339228085 2.25144639119347e-17)
(0.473147236087997 0.001761635453836 1.45302430827458e-17)
(0.697722258717253 0.000267764602933716 3.32221725774472e-17)
(0.473580547521193 0.00175839214883765 7.46657800792289e-17)
(0.698042510250617 0.000266684221274576 5.50902597883051e-17)
(0.474026912889442 0.00175503196911371 5.89722220267703e-17)
(0.698371120520014 0.000265536546253813 3.23369406382287e-17)
(0.474486902188406 0.00175154995950252 1.04264696162549e-16)
(0.69870846205581 0.000264318789735968 -2.0700878603533e-17)
(0.474961118535129 0.00174794086308498 -4.66587036623531e-17)
(0.699054929541606 0.000263028016653043 -2.48698713671522e-17)
(0.475450200634605 0.00174419910221744 -5.5826859679298e-17)
(0.699410941493906 0.000261661136831009 -4.37296279694893e-17)
(0.475954825458175 0.00174031876035304 -4.11411601949595e-17)
(0.699776942090557 0.000260214895231083 -3.92867642896366e-17)
(0.476475711157158 0.00173629355970462 -4.50000670286195e-17)
(0.70015340316735 0.000258685860860332 2.75554241101451e-17)
(0.477013620241677 0.00173211683486384 5.23333985622837e-17)
(0.700540826402935 0.000257070414518873 4.40380176510951e-17)
(0.477569363056398 0.00172778150301167 1.4708451621984e-16)
(0.700939745713845 0.000255364735400191 4.48731832331683e-18)
(0.478143801587501 0.0017232800308071 2.90560226566085e-17)
(0.701350729883892 0.000253564786478886 -1.22450814632121e-16)
(0.478737853638985 0.00171860439802126 -4.93282149385021e-18)
(0.701774385455147 0.00025166629858679 -1.51876926485645e-16)
(0.479352497420788 0.00171374605749687 -3.55163857180138e-16)
(0.702211359911407 0.000249664753021374 -4.91045783258433e-17)
(0.479988776597031 0.0017086958911053 -1.17894048437371e-16)
(0.70266234518926 0.000247555362519801 -1.04518332551324e-17)
(0.480647805849125 0.00170344416123453 -5.35071658765261e-17)
(0.703128081556663 0.000245333050448012 2.39118624255804e-17)
(0.48133077701592 0.00169798045720454 1.2557553226169e-17)
(0.703609361904911 0.000242992427981529 1.13973770432446e-16)
(0.482038965882101 0.00169229363605747 6.92880946173475e-17)
(0.704107036506135 0.000240527769057092 1.48464131179147e-16)
(0.482773739696083 0.00168637175698273 2.70796634624083e-16)
(0.704622018296396 0.0002379329828617 1.44602963589299e-16)
(0.483536565510424 0.00168020200854605 6.24349387626051e-17)
(0.705155288753465 0.000235201583528508 1.43099033695887e-16)
(0.484329019451837 0.00167377062782328 2.2306754838679e-16)
(0.705707904448673 0.000232326656736959 7.93987876871025e-17)
(0.485152797043839 0.00166706281033745 2.06002932400251e-16)
(0.706281004365018 0.000229300822848996 3.47154485031625e-17)
(0.486009724724088 0.00166006260958647 9.75683880113403e-17)
(0.706875818087947 0.000226116196143169 1.66358537804964e-17)
(0.486901772721264 0.00165275282470828 3.43348970609902e-17)
(0.707493674992826 0.000222764339704364 4.72559291648246e-17)
(0.487831069481972 0.0016451148745946 2.23540248081524e-17)
(0.708136014573478 0.000219236215379888 5.86571233496046e-17)
(0.48879991787017 0.00163712865657346 1.66212177789834e-16)
(0.708804398080483 0.000215522128191814 5.12466961194281e-17)
(0.489810813398253 0.00162877238732902 5.33493578852047e-17)
(0.70950052166745 0.000211611664512289 4.02804923336417e-17)
(0.490866464793453 0.00162002242347278 1.20569188796037e-17)
(0.710226231277978 0.00020749362316878 9.07056482277516e-17)
(0.491969817256231 0.00161085305861289 1.09220914111871e-17)
(0.710983539548395 0.000203155938573228 1.47917326850938e-16)
(0.493124078830737 0.00160123629326062 3.40244151346886e-16)
(0.71177464505213 0.000198585594776654 1.13865119650273e-16)
(0.49433275038432 0.00159114157323528 1.47560197922795e-16)
(0.712601954272822 0.000193768529234288 7.31614219811007e-17)
(0.495599659785605 0.00158053549143993 8.04601700127672e-17)
(0.713468106768806 0.000188689524881129 -2.9531982636159e-17)
(0.49692900098341 0.001569381446882 1.19796542908031e-17)
(0.714376004082927 0.000183332088882676 -8.67240816257946e-17)
(0.498325378826737 0.00155763925355732 -1.22013332411229e-16)
(0.715328843064621 0.000177678316228591 -5.23130087948802e-17)
(0.499793860633943 0.00154526469047304 -1.26000553623089e-16)
(0.716330154410297 0.000171708735999133 -3.1110357613118e-17)
(0.501340035727364 0.0015322089820826 -7.71926703295775e-17)
(0.717383847400957 0.000165402137843834 -1.49992946917766e-17)
(0.502970084406649 0.00151841819643799 -4.53530919874615e-17)
(0.718494262031577 0.000158735375872906 5.20069630628014e-17)
(0.504690858153607 0.00150383254525307 -1.98803199399651e-17)
(0.719666229997405 0.000151683146710489 6.5238348018084e-17)
(0.506509973261753 0.00148838556678721 1.17851620723642e-16)
(0.720905146343716 0.000144217738035268 -1.21286701267864e-17)
(0.508435920586727 0.00147200316811167 3.64270597302797e-17)
(0.722217054019528 0.000136308743512396 -1.36493899248688e-16)
(0.510478194751157 0.00145460249743841 -8.57370948674579e-17)
(0.723608744130037 0.000127922739209402 -1.15103883223857e-16)
(0.512647446948217 0.00143609061068155 -2.13078510179484e-16)
(0.725087875397732 0.000119022916918472 3.74142864668998e-17)
(0.51495566653335 0.00141636288633831 -5.25602031094552e-19)
(0.726663117263066 0.000109568666982863 -1.64557141635451e-17)
(0.517416397921285 0.00139530113332727 1.6145956972661e-16)
(0.728344322282007 9.95151102288169e-05 -4.30173192195185e-17)
(0.520045001111534 0.00137277131463579 -1.40326509030258e-16)
(0.73014273501946 8.88125568464668e-05 7.71703476037352e-17)
(0.522858966276894 0.00134862080946366 4.1336050119725e-17)
(0.732071246920532 7.74059341228518e-05 -5.37369765952204e-18)
(0.525878296461757 0.00132267504990696 2.68840147874745e-16)
(0.734144708994541 6.52340472087419e-05 -1.27915478819403e-16)
(0.529125974724625 0.00129473351030551 -1.69499602841462e-16)
(0.736380319443659 5.22290365821745e-05 4.61817483059327e-19)
(0.532628542799201 0.0012645644702413 -9.72153064517886e-17)
(0.738798104515619 3.83150637824724e-05 1.08555773369208e-16)
(0.536416810374358 0.00123189933291826 2.35135032561636e-16)
(0.741421529761682 2.34088029246023e-05 -2.47676899296019e-17)
(0.540526768322155 0.00119642329785609 2.05971980386961e-16)
(0.744278257413429 7.41520981235073e-06 -1.33265475914237e-17)
(0.545000670725162 0.0011577694470453 -1.86622323274711e-16)
(0.747401165279901 -9.76484532238944e-06 7.43822651934834e-17)
(0.54988860586032 0.00111549605871779 1.32457559896862e-16)
(0.750829540301123 -2.82556112239798e-05 -6.57025407364409e-18)
(0.55525000911595 0.0010690957045885 5.59146008616653e-17)
(0.754610965035749 -4.81576722030832e-05 2.53964335706904e-17)
(0.561156959236579 0.00101791229000951 -9.38017501597372e-19)
(0.758803013995211 -6.96618093815181e-05 6.60549469251081e-17)
(0.567695137156718 0.000961261501002304 6.44945495021905e-17)
(0.76347752452401 -9.2782461936236e-05 -3.21204384485167e-17)
(0.574973586660761 0.000898045985415378 8.35514712597446e-17)
(0.768721636925104 -0.000117950691834926 -2.64354724622833e-17)
(0.583117084257124 0.000827504180584715 -1.22408771027044e-16)
(0.774650637590087 -0.000144669028292444 4.57358823058794e-17)
(0.592306055612037 0.000747341140853163 3.37688630632585e-17)
(0.781399577304634 -0.000174422646645668 4.31860809949973e-17)
(0.602712706417634 0.000657605513844171 5.25027031182189e-18)
(0.789172221996024 -0.000204287858799148 2.05508503636542e-17)
(0.614689940343074 0.000551945967162072 1.63737256808329e-17)
(0.79817563344709 -0.000240454146190896 -3.33649468954359e-18)
(0.628402535026039 0.000435676250667805 -7.61188404693474e-18)
(0.80882799346242 -0.000269328206759652 3.31063441870048e-18)
(0.644737130364615 0.000287428041006314 -7.48147592870488e-18)
(0.821410879434308 -0.000317507153165503 1.26003344131439e-17)
(0.663436744814813 0.000136345460351919 3.29318890564069e-17)
(0.836963226619717 -0.000326120399726506 1.90812763083228e-17)
(0.68733497817028 -9.41348921870557e-05 1.97894202099236e-17)
(0.855685182226642 -0.000407909216394526 9.77835803303288e-18)
(0.713689453034098 -0.000282773476407962 4.59211514362271e-17)
(0.880657179124456 -0.000309885596678382 -1.19362200749403e-17)
(0.752868498235047 -0.00069759653116962 -6.31423364112079e-18)
(0.911101341142062 -0.000509855622776659 -1.20902831399868e-17)
(0.790915405412167 -0.000895342923918359 -3.70592207162129e-17)
(0.951582413661041 0.000289480600830265 -1.22113125432775e-17)
(0.866942848290534 -0.00158949105725221 -8.03629644096018e-18)
(0.948424267203861 7.81815272307873e-05 -8.42819021111021e-18)
(0.896337723444273 0.000150642368104266 -2.60094843635436e-17)
(0.94964375438071 0.000180701007143184 5.76742460988707e-19)
(0.883638679250251 -5.816507822787e-05 6.7149495547023e-18)
(0.949093598963664 0.000123655968781246 5.984189286311e-18)
(0.889515644948168 2.62967867607343e-05 -4.42201155129988e-18)
(0.949344802189202 0.000129045370176172 7.67896723977781e-18)
(0.886820192991202 -1.1921451807465e-05 2.82869019519238e-17)
(0.949229966209283 0.000109717559235108 -3.46722586263635e-18)
(0.888054691731291 5.51527678202971e-06 2.42893379232637e-18)
(0.94928281456029 9.99258021613507e-05 -2.81091985888445e-18)
(0.887489827329627 -2.47415595745296e-06 -1.4682448052859e-17)
(0.94925880081777 8.65837033415928e-05 -1.41566785327448e-18)
(0.88774887145818 1.17872137866072e-06 1.21995579937061e-17)
(0.949269983398239 7.44932374424137e-05 -2.68164944641295e-18)
(0.887630544007353 -5.00199015343686e-07 -3.44728386793719e-18)
(0.949265009458115 6.20006406184656e-05 -3.45696613614846e-18)
(0.887685016610879 2.63090883851091e-07 -2.47357729880148e-20)
(0.94926741608082 4.9613737703281e-05 -3.96736537516333e-18)
(0.887660300594786 -9.25385346412774e-08 -9.46851243312356e-18)
(0.949266408989685 3.7213882267959e-05 5.52627242735109e-19)
(0.887671794134848 6.48178547495254e-08 -1.94711007222335e-18)
(0.949266951476883 2.48045738432658e-05 8.60683733057396e-19)
(0.887666709910348 -1.36490852585723e-08 2.06767736379315e-18)
(0.949266676930836 1.24093152951882e-05 -1.35944691685809e-19)
(0.887669056584441 2.03155383471411e-08 8.7710138526036e-19)
(0.887668112835754 -2.4009444100243e-09 3.65048627104781e-19)
(0.236006692123649 0.00274942829294624 -4.97438988379205e-19)
(0.0830420388040229 0.00429493800432014 -1.05722236134954e-18)
(0.237814876697069 0.00313620556975735 -4.17194959871829e-18)
(0.0866811338513852 0.00463322262404514 -7.48336421749619e-19)
(0.239010408573839 0.00340534686678494 -6.55800631617703e-18)
(0.0878053805291697 0.00515271957052918 -7.9929462969525e-18)
(0.239786227817597 0.00360772651083896 5.22035070272554e-18)
(0.088672746567512 0.00558184867898546 -7.25535145021061e-18)
(0.240340870728189 0.0037191213038909 2.72694570915957e-17)
(0.0892855570976458 0.00582307138692018 2.4834324662791e-17)
(0.240800114202012 0.00376705537569882 2.34944722561115e-17)
(0.0897613412162696 0.00593077183685372 4.32574636082056e-17)
(0.241228283632023 0.00378235078979467 -6.23045160816136e-18)
(0.0901898444280925 0.00596865755953581 8.26229675605538e-18)
(0.241653895349467 0.00378399955960737 -2.3334132028401e-17)
(0.0906112384887218 0.00597606192973933 -1.90874856432702e-17)
(0.242087915630865 0.00378102906122071 -3.47741419152525e-17)
(0.0910401254271077 0.00597228213591768 -3.48807504992958e-17)
(0.242533953854617 0.00377692570028502 -3.22246727870362e-17)
(0.0914815892520622 0.00596524054618497 -6.01071655925403e-17)
(0.242993049157284 0.00377271965204574 -1.95526721413168e-17)
(0.0919373113427989 0.0059575771469496 -2.80235620307914e-17)
(0.243465572758459 0.00376856538060497 -2.39177229131542e-17)
(0.0924079170867523 0.00594990197517569 -1.72019392584564e-17)
(0.243951846315657 0.0037643920286382 -4.33736682755329e-17)
(0.0928938368467329 0.00594221124193119 -3.85584037181311e-17)
(0.244452281942877 0.00376011405838267 -9.96790645013865e-17)
(0.0933955499379459 0.00593439077425211 -5.99419079069053e-17)
(0.244967381570131 0.00375567496941649 -1.7379515034999e-16)
(0.0939136187469291 0.00592634974124942 -1.51342923916047e-16)
(0.245497712846668 0.00375104292813504 -1.44542750745072e-16)
(0.0944486743160182 0.00591803398515797 -2.16442313692077e-16)
(0.246043891871711 0.00374619963394449 -2.36579911665928e-17)
(0.09500140091522 0.00590941277646723 -1.01890008539103e-16)
(0.246606575263229 0.0037411325971752 2.84791198742553e-17)
(0.0955725279801382 0.00590046648161436 -1.06653786487987e-18)
(0.247186458185987 0.00373583120251417 6.70359609595161e-17)
(0.0961628278447447 0.00589117953301058 2.46427425561751e-18)
(0.247784275358265 0.00373028504259068 1.00694952895005e-16)
(0.096773116670256 0.00588153722604412 8.77752433092924e-17)
(0.248400803385085 0.00372448331082174 1.08504288936463e-16)
(0.0974042568936271 0.00587152447779593 1.03581079719953e-16)
(0.24903686369637 0.00371841460360575 2.48621854897581e-17)
(0.0980571603954556 0.00586112540358394 1.13616775686137e-16)
(0.249693325840445 0.00371206685071257 -8.20840383592559e-17)
(0.0987327920856059 0.00585032317409023 -5.90211658655999e-17)
(0.250371111079057 0.00370542727283228 -7.22712177107584e-17)
(0.0994321738290053 0.00583909994469502 -1.15227616561866e-16)
(0.251071196299203 0.00369848233718309 -4.24158024069672e-17)
(0.100156388719115 0.00582743679082647 -7.66627460897595e-17)
(0.251794618277256 0.00369121770554361 4.72476683726271e-17)
(0.100906585734275 0.00581531363370324 -2.1034769248605e-17)
(0.25254247833736 0.00368361817489065 1.72730410123945e-16)
(0.101683984821058 0.0058027091549446 1.11833426596009e-16)
(0.253315947449947 0.00367566761115427 1.32152503707636e-16)
(0.102489882453784 0.00578960070084025 2.40434007074348e-16)
(0.254116271820643 0.00366734887613296 1.96049855802777e-17)
(0.103325657724233 0.00577596417652638 1.56384981792798e-16)
(0.254944779026059 0.00365864374714618 -2.39093182937699e-16)
(0.104192779022021 0.00576177392952481 7.66112541208519e-17)
(0.25580288475999 0.00364953282863055 -3.21184804162734e-16)
(0.10509281137378 0.00574700262175221 -4.03216630011439e-16)
(0.256692100261938 0.00363999545484201 -1.22398950020617e-16)
(0.10602742451812 0.005731621088668 -1.79525233541108e-16)
(0.257614040510128 0.00363000958256847 -3.03815222648268e-17)
(0.106998401803996 0.00571559818405843 -1.07280255210098e-16)
(0.258570433272108 0.00361955167260975 5.82325857203393e-17)
(0.108007650012029 0.0056989006086902 2.58294957590934e-17)
(0.259563129119773 0.00360859655867832 2.27142225029565e-16)
(0.109057210212566 0.00568149272094482 1.14309590870079e-16)
(0.260594112530727 0.0035971173020612 1.84257120472011e-16)
(0.110149269790297 0.00566333632703048 3.68681779135898e-16)
(0.261665514215965 0.00358508503023452 1.41391352733299e-16)
(0.1112861757843 0.0056443904482928 4.67465204581791e-17)
(0.262779624835032 0.00357246875736185 2.86423152659875e-16)
(0.112470449714584 0.00562461106258361 2.02252703459235e-16)
(0.263938910284203 0.00355923518419822 2.24322369801841e-16)
(0.113704804092143 0.00560395081619981 2.8605883250829e-16)
(0.265146028772241 0.00354534847462688 9.71908230423987e-17)
(0.114992160839481 0.00558235870257759 1.82736681575299e-16)
(0.266403849932606 0.00353077000555779 4.00908428392153e-17)
(0.116335671884818 0.0055597797029991 5.8832452912719e-17)
(0.267715476261019 0.00351545808638848 1.42116097748126e-16)
(0.117738742235332 0.00553615438404794 -2.88218659191517e-18)
(0.269084267215341 0.00349936764368596 1.60835204307751e-16)
(0.119205055884301 0.00551141844563629 2.63516994799229e-16)
(0.270513866371736 0.00348244986587912 1.38941575998684e-17)
(0.120738604967102 0.00548550221229592 9.43462870389967e-17)
(0.272008232098902 0.00346465180197077 -1.7483212129809e-17)
(0.122343722651135 0.0054583300593765 -1.12359946425837e-16)
(0.27357167229408 0.00344591590715203 2.62209319066657e-16)
(0.124025120329968 0.00542981976408051 -1.72869750444061e-17)
(0.275208883822194 0.00342617952689832 3.3971418504855e-16)
(0.125787929793259 0.00539988176965106 5.07854749413427e-16)
(0.276924997418448 0.00340537430971363 1.13892755189374e-16)
(0.127637751166764 0.00536841834892386 1.61334962041116e-16)
(0.278725628958096 0.00338342553665137 1.88515152819683e-17)
(0.12958070756508 0.00533532265062305 7.12302147146085e-17)
(0.280616938172152 0.00336025135357368 -8.11928266517247e-17)
(0.13162350757943 0.00530047760902872 -6.02157112227205e-17)
(0.282605696102228 0.00333576188928577 -1.61506937462736e-16)
(0.133773516943265 0.00526375469336302 -1.48451405742307e-16)
(0.28469936285032 0.00330985823915152 -1.50927856524538e-16)
(0.13603884098748 0.00522501246888131 -2.53822617665424e-16)
(0.286906177504474 0.00328243128981041 -9.1448539894355e-17)
(0.138428419828715 0.00518409493568726 -1.5122965773697e-16)
(0.289235262524804 0.00325336035516778 -5.02060421438931e-17)
(0.140952138645551 0.00514082960422535 -8.96302901340484e-17)
(0.291696745377096 0.00322251158726352 4.65923549183418e-17)
(0.143620955907548 0.00509502525729905 -5.30600506291045e-17)
(0.294301900833076 0.0031897361176119 8.8705820573133e-17)
(0.146447053061867 0.00504646933755352 4.96223102361351e-17)
(0.297063318153424 0.00315486787394393 -3.78414017911849e-17)
(0.149444009985957 0.00499492488512107 6.97434621240251e-17)
(0.299995098381999 0.00311772100437334 -1.63025900693081e-16)
(0.152627011533122 0.00494012693235999 -3.04735103104404e-17)
(0.303113088274423 0.00307808682397281 -9.73518654175239e-17)
(0.156013091792288 0.00488177824026163 -1.93633861742075e-16)
(0.306435159050633 0.00303573017769774 1.24573995362341e-16)
(0.159621424353118 0.0048195442311863 4.87197818421915e-18)
(0.309981540322369 0.00299038508296949 3.60156538565723e-17)
(0.163473668989578 0.00475304693751083 1.931073334631e-16)
(0.313775222371163 0.00294174948691209 -5.49516601149577e-17)
(0.167594388053775 0.00468185772967624 -1.13447303985216e-16)
(0.317842443676786 0.00288947889922038 2.34656478245662e-16)
(0.172011549260838 0.00460548854555953 1.67217921936782e-16)
(0.322213285542232 0.00283317867294384 1.02206276162831e-16)
(0.1767571372651 0.00452338118973566 4.27105375278925e-16)
(0.326922402312514 0.00277239440159952 -1.38355178767271e-16)
(0.181867900218962 0.00443489436272179 -3.35095277795901e-16)
(0.332009924671674 0.00270660039498286 1.39902372628203e-16)
(0.187386274263724 0.00433928733395476 -7.03098571264009e-17)
(0.337522585870711 0.00263518435919062 3.32711396051294e-16)
(0.193361517240213 0.00423570064594959 5.11280451814494e-16)
(0.343515137810586 0.00255743068161746 4.13873882121151e-17)
(0.199851166612769 0.00412312930499666 3.02107118289594e-16)
(0.350052147842183 0.00247249260485819 -3.84711967491719e-17)
(0.206922770894283 0.00400039606096662 -2.79118272286239e-16)
(0.357210301813227 0.00237937346502206 1.13441500768365e-16)
(0.214656392056408 0.00386609870163944 1.63212535282221e-16)
(0.365081385832216 0.00227686014601553 6.11677271483462e-17)
(0.223147039094705 0.00371858998638987 1.08930912438081e-16)
(0.373776199648379 0.00216353954497448 3.87461289900199e-17)
(0.232509892075448 0.00355583160401333 7.69197482685005e-17)
(0.383429736174564 0.00203757053401242 8.21852714935441e-17)
(0.242881925485826 0.00337549651211057 7.92184883623318e-18)
(0.39420820248473 0.00189696893215104 -8.70666165541961e-18)
(0.254437286845368 0.00317439502053573 1.71412870929323e-16)
(0.406318495728907 0.00173861709180541 -6.06348825220999e-17)
(0.267375561787112 0.0029493771637088 -1.43686619574903e-16)
(0.420021729883977 0.00156005408229243 -7.08208012997977e-18)
(0.281984547877394 0.00269467587568341 3.72808920717547e-18)
(0.435651569695388 0.00135484266654661 -2.14921756243416e-17)
(0.298540241519198 0.00240707006427246 -6.76240570640928e-17)
(0.453642973362279 0.00112187811026512 -1.21192611302574e-17)
(0.317604495396135 0.00207336068267811 -4.04297926421196e-17)
(0.474569761890788 0.000843823101053109 -1.17617948387662e-17)
(0.339443798124042 0.00169589155348925 2.28859724229625e-17)
(0.499214326917825 0.000531524883163589 2.275246252785e-17)
(0.365467666643015 0.00123586213371764 -1.49648333738069e-17)
(0.528649827313739 0.000126416907330611 3.99252463076574e-17)
(0.395276107045201 0.000728278196856087 4.68928017605497e-17)
(0.56443850056014 -0.000298491378503676 4.71157826933041e-17)
(0.43337480480238 4.02750491667461e-05 2.81577029414386e-17)
(0.608835577670187 -0.000967628173239516 2.87846874168086e-17)
(0.475410197665528 -0.000650445032989396 9.2382864185629e-17)
(0.66544640273351 -0.00151595740213351 -3.21513147966803e-17)
(0.537892134920506 -0.00181782603390922 -3.79510775276325e-17)
(0.739708623470038 -0.00266815107202539 -3.22995476835358e-17)
(0.598577923620561 -0.0027263062410018 -6.98897147009476e-17)
(0.82638782906398 -0.000860256261128395 -2.20514450358108e-17)
(0.720069716609485 -0.00444340018553822 -1.59899987632153e-17)
(0.825925476808119 -9.14122018982744e-05 -1.08675184699984e-17)
(0.767402290121328 0.000170121126449967 -3.77100013648356e-17)
(0.826042004938596 8.23564837318225e-05 1.7166539737692e-18)
(0.747117340935455 -6.39857992960456e-05 1.35077164621608e-17)
(0.82600830135419 1.82766167107502e-06 1.78855283633766e-17)
(0.75647986428325 2.80236899687879e-05 -8.92827307352533e-18)
(0.826022846613524 3.17013458458778e-05 2.30430473841511e-17)
(0.75218953697712 -1.26417110798878e-05 4.22737963682085e-17)
(0.826016625897576 1.66219255195156e-05 -8.7884269793981e-18)
(0.754154801095945 5.83021601020632e-06 4.8761795710997e-18)
(0.826020075699601 1.93648366848132e-05 3.29294000186193e-19)
(0.753255413931457 -2.63311336123891e-06 -2.76909473299756e-17)
(0.826018943340423 1.52358309576425e-05 1.01726017593752e-17)
(0.75366794178609 1.23910640479473e-06 3.1726090762601e-17)
(0.826019887071366 1.36631107545188e-05 -7.89609007106516e-19)
(0.753479475202348 -5.39002621043604e-07 3.25734066638844e-19)
(0.826019803701579 1.11901890927059e-05 -6.03731973286296e-18)
(0.753566253290313 2.71504354484219e-07 -9.80551278486804e-21)
(0.826020136237262 9.00574814204162e-06 -7.44965758269113e-18)
(0.753526873943798 -1.04217482446724e-07 -1.460367948866e-17)
(0.826020214811073 6.74547329620949e-06 -4.32456116213428e-19)
(0.753545190495545 6.40145266296653e-08 -3.75077595174727e-18)
(0.826020350335867 4.49697686497367e-06 2.0845872259008e-18)
(0.753537087624352 -1.78568694782888e-08 1.95279150534687e-18)
(0.826020346394204 2.2549031811616e-06 1.37870384029781e-18)
(0.753540828799585 2.17708844864116e-08 1.75698440428704e-18)
(0.753539425332458 -9.79048712935178e-10 2.47914422596318e-19)
(-0.0673173095061031 0.0062261170034583 -1.31215750685429e-18)
(-0.146334347146491 0.00702497269139756 -7.68023200952917e-19)
(-0.0653495436376998 0.00677796019013524 -4.58607426845217e-18)
(-0.143613172914615 0.00756353552772082 -2.6272379331172e-18)
(-0.0641884296861963 0.00751334860128067 -8.70074932155234e-18)
(-0.142917212666383 0.00871440152232214 -4.69987397038367e-18)
(-0.0634681334814702 0.00799409671558153 1.24639367687621e-17)
(-0.142369790371098 0.00948295362548851 -2.53349184273389e-18)
(-0.0629387233451063 0.00823593584722349 4.09348972440585e-17)
(-0.141933568012239 0.00987211667859303 2.84663555312158e-17)
(-0.0624807038694202 0.00833651054472219 2.79766941328779e-17)
(-0.141547208164001 0.0100387624327215 3.40181770775031e-17)
(-0.0620412761526411 0.00836882766206688 -4.64379123748552e-18)
(-0.14116918616602 0.0100972401908565 6.73307842174995e-18)
(-0.061598438875048 0.0083728280409547 -3.07067078485191e-17)
(-0.140783485325272 0.0101096838741806 -2.4803433965524e-17)
(-0.061143744613736 0.00836686811778251 -6.04020633492945e-17)
(-0.140385174155907 0.0101052181311444 -4.17160096443744e-17)
(-0.0606741271051809 0.00835809290456793 -5.59588897879966e-17)
(-0.139972365280716 0.0100955978659071 -6.65213713982078e-17)
(-0.0601883862462581 0.00834875364376986 -2.56802794345251e-17)
(-0.139544065274401 0.0100847761008102 -2.85604287939408e-17)
(-0.0596858474768422 0.00833931690954672 -3.19306567941845e-17)
(-0.139099562690298 0.0100737358844847 -7.84993152822704e-18)
(-0.0591659154680639 0.00832974151503115 -5.52339980172715e-17)
(-0.138638204792879 0.0100625406088247 -1.36139587302972e-17)
(-0.0586279540715709 0.00831990950848631 -1.11874425577396e-16)
(-0.138159324452881 0.0100510637318603 -5.1770056888884e-17)
(-0.0580712680064353 0.00830973199856863 -1.94240023808486e-16)
(-0.137662220829968 0.010039191487071 -1.2709741831417e-16)
(-0.0574951076721934 0.00829915477676752 -1.7366155651964e-16)
(-0.137146154399234 0.0100268514356077 -1.81658397761358e-16)
(-0.0568986744822421 0.00828814434964248 -7.93239419617407e-17)
(-0.13661034476067 0.0100139994292277 -1.18729161989166e-16)
(-0.0562811227152053 0.00827667646527658 -2.73345435611329e-17)
(-0.136053968512204 0.0100006049998277 -5.85415358285055e-17)
(-0.0556415586100324 0.00826472986234461 2.32082672950744e-17)
(-0.135476156683922 0.00998664262641596 -3.27016769156972e-17)
(-0.0549790378847999 0.00825228349770286 9.06544709098092e-17)
(-0.134875991738435 0.00997208764327772 3.65103167876426e-17)
(-0.0542925624160285 0.00823931548422076 1.08719567988066e-16)
(-0.134252504204863 0.00995691460783876 6.63041973607449e-17)
(-0.0535810764130912 0.00822580271669871 2.93161061973844e-17)
(-0.133604668978288 0.00994109671620949 9.84981657487422e-17)
(-0.0528434621981508 0.00821172072306172 -9.23540626888109e-17)
(-0.132931401281986 0.00992460558489002 -2.20057782692764e-17)
(-0.0520785356011922 0.00819704356711578 -1.19723866316808e-16)
(-0.132231552268952 0.00990741112848737 -1.2166145668857e-16)
(-0.0512850409411145 0.00818174374974518 -5.51892335487866e-17)
(-0.1315039042283 0.00988948144538184 -1.13329418428644e-16)
(-0.0504616455487253 0.00816579209674415 4.38929337436328e-17)
(-0.13074716535522 0.0098707826893736 -1.3975171405355e-17)
(-0.0496069337804867 0.00814915763226111 1.79916482496746e-16)
(-0.129959964037243 0.0098512789243267 8.71853307866462e-17)
(-0.0487194004657575 0.00813180743824097 2.64976084781311e-16)
(-0.12914084260375 0.00983093196225525 2.69291998650624e-16)
(-0.0477974437233032 0.00811370649948824 2.1394821300438e-16)
(-0.128288250478785 0.00980970118471402 2.5556259866517e-16)
(-0.0468393570750719 0.00809481753329335 -8.82815474037522e-17)
(-0.127400536669723 0.00978754334642165 1.96285206369085e-16)
(-0.0458433207754827 0.00807510080204442 -2.60674631763732e-16)
(-0.126475941515273 0.00976441235942847 -3.3585396165853e-16)
(-0.0448073922637096 0.0080545139068208 -1.6435495271558e-16)
(-0.125512587606262 0.00974025905559344 -1.98152367743517e-16)
(-0.0437294956336892 0.00803301155971589 -5.07484163182833e-17)
(-0.124508469780804 0.00971503092487238 -1.7761543189905e-16)
(-0.0426074100019135 0.00801054533230178 8.2264222878403e-17)
(-0.123461444081841 0.00968867182642861 4.94059386650385e-17)
(-0.0414387566358802 0.0079870633772381 2.5674261387676e-16)
(-0.122369215549334 0.00966112166928767 1.28701725909596e-16)
(-0.0402209846866214 0.00796251011963147 2.3032477574725e-16)
(-0.12122932470097 0.00963231605865103 3.69875784530955e-16)
(-0.0389513553452359 0.00793682591425841 1.07987464307986e-16)
(-0.120039132534257 0.00960218590354897 7.30096202901989e-17)
(-0.0376269242164611 0.00790994666409437 2.01868799808014e-16)