/*--------------------------------*- C++ -*----------------------------------*\
  =========                 |
  \\      /  F ield         | OpenFOAM: The Open Source CFD Toolbox
   \\    /   O peration     | Website:  https://openfoam.org
    \\  /    A nd           | Version:  8
     \\/     M anipulation  |
\*---------------------------------------------------------------------------*/
FoamFile
{
    version     2.0;
    format      ascii;
    class       surfaceVectorField;
    location    "0.0005000";
    object      Uf_0;
}
// * * * * * * * * * * * * * * * * * * * * * * * * * * * * * * * * * * * * * //

dimensions      [0 1 -1 0 0 0 0];

internalField   nonuniform List<vector> 
1691
(
(0.790455454498024 0.000231629065696731 3.04116650948691e-18)
(0.617454894089239 0.000790220373642977 4.55130509455162e-18)
(0.790762825098998 0.00013706027782605 1.23383862149343e-18)
(0.619023074537443 0.00083793957459902 1.65434681920334e-18)
(0.79111469511804 0.00011528879735424 3.56339111168007e-18)
(0.619433045788628 0.000816530224737651 9.07164596889295e-19)
(0.791364161655683 0.000125374516659099 4.68555108956764e-18)
(0.61996688091425 0.00086879367518287 3.62001469273919e-18)
(0.79155557601678 0.000128230273314923 1.26527273104992e-18)
(0.620301780099517 0.000898480467037254 -4.68783534649368e-19)
(0.791720154954742 0.00012947852717867 3.31761983073582e-19)
(0.62057031282486 0.00091226477879045 -6.31293721432069e-19)
(0.791877937212142 0.000129398253848739 6.28939450377822e-18)
(0.620813346362514 0.000916034514731606 3.88004512827725e-19)
(0.792036961897032 0.000128935004360116 2.50802340709117e-17)
(0.621053534475497 0.000915857512669417 2.67389071640741e-17)
(0.792199712697675 0.000128408065718895 2.00918478267591e-17)
(0.621298487285822 0.00091450001142146 5.94684336305823e-17)
(0.792366614312333 0.000127904177634416 2.12671687753363e-18)
(0.621550309741546 0.000912968419199211 2.72265999242482e-17)
(0.792537601213254 0.000127420903090895 1.26012513812462e-17)
(0.621809266419491 0.00091149715758952 9.83417483889463e-18)
(0.792712609437924 0.00012694106305124 8.92988822062106e-18)
(0.622075310443402 0.00091008430996492 1.846769957e-17)
(0.79289166824951 0.000126451469855411 -8.83475085958326e-18)
(0.622348473321436 0.000908686289352475 -1.45227641579995e-17)
(0.793074880027719 0.000125944920538732 -7.04144019105971e-18)
(0.622628908265987 0.000907270399282779 -2.70759885136344e-17)
(0.793262389601147 0.000125417942786511 2.85609125780082e-18)
(0.622916851522614 0.000905819004224487 -2.59986538245243e-18)
(0.793454365008858 0.000124868820492932 1.27146622589906e-18)
(0.623212587388066 0.00090432373426065 1.55974825038353e-17)
(0.793650988692909 0.000124296496817224 -5.02686199044021e-18)
(0.623516429167574 0.000902780479491676 -9.6351867966311e-18)
(0.7938524544876 0.000123700096409583 7.61943608691708e-18)
(0.62382871151098 0.000901186688789555 -9.39845676507602e-18)
(0.794058967166563 0.000123078753014034 5.29253167061669e-18)
(0.624149788455303 0.000899540214189215 1.13758842961282e-17)
(0.794270742939797 0.000122431559236547 -2.05114281142679e-18)
(0.624480033825827 0.000897838903450634 -3.04027952038121e-17)
(0.794488010262181 0.000121757555652817 1.32788728221874e-17)
(0.624819842480248 0.000896080484024119 9.79746672625482e-18)
(0.794711010752217 0.000121055729025896 1.4221849308068e-17)
(0.625169631847237 0.000894262538075539 4.21798179453614e-17)
(0.794940000179998 0.000120325010944865 2.38255311679882e-17)
(0.625529843609415 0.000892382497154161 1.46108685979648e-17)
(0.795175249529971 0.000119564275324038 6.00216096537674e-17)
(0.625900945515716 0.000890437636852074 2.01196944615838e-17)
(0.795417046152481 0.000118772334920351 6.75710017822972e-17)
(0.626283433341891 0.000888425068184423 1.65208726921225e-16)
(0.79566569501814 0.000117947937200947 1.83322510919936e-17)
(0.626677833022738 0.000886341726323019 1.07452703047787e-16)
(0.795921520088203 0.000117089759724121 -1.05417490375992e-17)
(0.627084702979089 0.000884184357438631 1.6629710669925e-17)
(0.796184865814638 0.00011619640507342 6.51868845216709e-18)
(0.627504636662677 0.000881949503970777 1.06830198779271e-17)
(0.79645609878459 0.000115266395339634 1.70429375898525e-17)
(0.627938265344006 0.000879633488459726 3.55358464753862e-17)
(0.796735609525747 0.000114298166114156 5.06603771549077e-18)
(0.628386261170536 0.000877232395723685 3.92659645061427e-17)
(0.797023814491433 0.000113290059940896 -8.0072435310074e-19)
(0.628849340526553 0.000874742053337437 -1.23611076805776e-17)
(0.797321158246458 0.00011224031916441 -3.80594098445331e-18)
(0.629328267730012 0.0008721580101239 -3.42279888076053e-17)
(0.797628115877939 0.000111147078112178 1.35134570603489e-17)
(0.629823859106283 0.000869475512465177 -3.27661112323066e-17)
(0.79794519565853 0.000110008354549452 1.82335611660482e-17)
(0.63033698748449 0.000866689478144433 7.23050383074725e-17)
(0.798272941993434 0.000108822040307127 1.6026829217111e-17)
(0.630868587168552 0.000863794467441744 3.40154226946299e-17)
(0.798611938687111 0.000107585891003853 2.84871429286425e-17)
(0.63141965944225 0.000860784651111119 7.40621325171966e-17)
(0.798962812570957 0.000106297514757217 2.82721598674238e-17)
(0.631991278676678 0.000857653774870871 8.76683561686254e-17)
(0.799326237539212 0.000104954359767938 7.18450537154598e-18)
(0.63258459911824 0.000854395119890362 7.5411550714422e-17)
(0.799702939047872 0.000103553700643397 -3.57771229337061e-17)
(0.633200862447396 0.000851001458863313 -4.19309197231867e-17)
(0.800093699139674 0.000102092623313411 2.74918383849855e-18)
(0.633841406212196 0.00084746500693525 -1.01829706665873e-16)
(0.800499362068421 0.000100568008368091 4.38470981713279e-17)
(0.634507673257076 0.000843777366852675 2.77336973903751e-17)
(0.800920840607692 9.89765126357983e-05 4.52046790264743e-17)
(0.635201222286668 0.000839929467521584 6.17163393036827e-17)
(0.801359123143057 9.73145487610311e-05 1.79132807042128e-17)
(0.635923739727044 0.000835911495022589 9.13303862328832e-17)
(0.801815281663951 9.5578262592732e-05 6.37300722929661e-17)
(0.636677053074958 0.000831712814912524 -5.29214462694477e-17)
(0.802290480790547 9.37635079574038e-05 6.81499742971954e-17)
(0.637463145955374 0.000827321884741855 1.99573772876097e-16)
(0.802785987997127 9.18658188360293e-05 1.91655578123626e-17)
(0.638284175153026 0.00082272615470472 3.76517615161398e-17)
(0.803303185217244 8.98803777896162e-05 7.55157306743094e-17)
(0.639142489914254 0.000817911955995076 1.04876867260788e-16)
(0.803843582062673 8.78019820033769e-05 3.82806728292358e-17)
(0.64004065390971 0.000812864371532623 1.98733072272741e-16)
(0.804408830903062 8.56250024936286e-05 -4.26442004455871e-18)
(0.640981470226103 0.000807567093960417 1.37784261820736e-17)
(0.805000744167483 8.33433446175733e-05 3.33437407767753e-17)
(0.641968010047383 0.000802002251212703 9.19656037169009e-17)
(0.805621314150101 8.09503905421509e-05 6.8850241380781e-17)
(0.643003645306932 0.000796150233144002 1.27110563360579e-16)
(0.806272735996582 7.84389627049288e-05 4.7373503702107e-17)
(0.644092086795764 0.000789989433904243 1.72196798811645e-16)
(0.806957433945798 7.58012241977379e-05 -3.35973429421412e-17)
(0.645237426964361 0.000783496079300325 -4.98078930663223e-17)
(0.807678092534085 7.30286869706539e-05 -3.73581427715097e-17)
(0.646444192099065 0.000776643762945903 -8.90098901055182e-17)
(0.808437691378583 7.01119771954463e-05 -3.48169575681301e-17)
(0.647717397436548 0.000769403456792118 -5.78296016823839e-17)
(0.8092395491741 6.70410578885381e-05 -6.0771543976662e-17)
(0.649062623256085 0.000761742393569533 -1.37649370636349e-16)
(0.810087368559383 6.38045198893899e-05 -6.30400308509147e-17)
(0.650486079528145 0.00075362504535027 -1.00477431705184e-16)
(0.810985302973424 6.03906478189023e-05 -1.70629939345072e-19)
(0.651994732575807 0.000745009705275203 -8.08688968571859e-17)
(0.811938007954241 5.67850443963296e-05 6.92574796225193e-17)
(0.653596352065062 0.000735853445018318 8.01454844074212e-17)
(0.812950757783321 5.29747214900532e-05 4.4377515529494e-17)
(0.655299773177141 0.000726100527028372 8.05172885962658e-17)
(0.814029476463065 4.89400671628439e-05 3.95575877332811e-17)
(0.657114800846355 0.000715702046335946 5.02007887711187e-17)
(0.815180985362937 4.46691116524469e-05 2.39354514642933e-17)
(0.65905289497086 0.000704576246184515 1.12115725197084e-16)
(0.816412901702563 4.01311347385359e-05 -3.75156062268199e-17)
(0.661126451329055 0.000692678553291354 -1.41791297613254e-17)
(0.817734272189566 3.53233404205416e-05 -4.05854664948847e-17)
(0.663350881006718 0.000679869656388973 -1.0168058626802e-16)
(0.81915494012338 3.01876119637728e-05 2.21008616125458e-17)
(0.665741582402502 0.000666148193095218 -3.75853476062337e-17)
(0.820687359326223 2.47554288004253e-05 -1.72007214542902e-17)
(0.668320598965129 0.000651231177167487 7.10170186275124e-17)
(0.822344133056914 1.88964518689384e-05 -3.69115831898661e-17)
(0.671105739746585 0.000635282633848819 -1.40228776556766e-16)
(0.824143408162798 1.27479313890796e-05 1.24515226600568e-18)
(0.674131841760685 0.000617642986106744 3.40002165363682e-17)
(0.826100636526035 5.98689680828489e-06 -8.92702375677176e-18)
(0.677414780808339 0.000598989252070353 -2.73035298641823e-17)
(0.828244516864076 -9.50521678291816e-07 -1.43401501172846e-17)
(0.681017552986349 0.000577676217478744 2.9839471721534e-17)
(0.830591601096771 -8.89382192425515e-06 -6.5525839998546e-17)
(0.68493804936972 0.000555812723212073 -4.72064083322864e-17)
(0.833192150920464 -1.66070985929033e-05 -5.54576901827969e-17)
(0.689307025352642 0.000529245598165923 -1.46047693031219e-16)
(0.836056435400927 -2.62214185639849e-05 -3.58072162792769e-18)
(0.694055166943199 0.000503793346558812 -1.03141165719244e-17)
(0.839281987105791 -3.44419055288768e-05 -1.72751624099012e-17)
(0.699482928201087 0.000469178980414872 -2.38202618677503e-18)
(0.842850321690187 -4.66667853505606e-05 -2.37312563849413e-17)
(0.705316839963213 0.000440242380734041 -1.27117874179143e-17)
(0.84696643690742 -5.44477813025564e-05 -2.51192246926595e-17)
(0.712284138609257 0.000392454654944477 -1.94726055684473e-17)
(0.851523798739098 -7.12259026451043e-05 -7.33526360210787e-18)
(0.719551284996761 0.000361319616292493 -4.41345408324076e-17)
(0.85697379821835 -7.58980063984943e-05 1.29559824513242e-17)
(0.728900966713277 0.000290843054589766 3.9604330767517e-17)
(0.862979883472758 -0.000101442419638988 1.32331501231324e-19)
(0.738066435832184 0.000261075532682386 1.27705500680245e-17)
(0.870552885040815 -9.59858746265502e-05 -3.94400665772407e-18)
(0.751367756151384 0.000150451998633054 -1.18869813640976e-17)
(0.878816282378045 -0.000139682472164956 -1.30659677435905e-17)
(0.763079516861807 0.000128972304196749 -3.98520198281913e-18)
(0.890027058538218 -0.000105850208841229 -1.16325124697731e-17)
(0.783411717597446 -5.29497669987923e-05 -2.86180124802324e-17)
(0.902172750784699 -0.000188674235206173 -4.24399663250453e-18)
(0.798766823330046 -5.70703552240154e-05 3.24736371486721e-19)
(0.920235222790786 -7.57448813185433e-05 -1.08579275216726e-18)
(0.832495228472203 -0.000364130614461145 -6.02699154493707e-18)
(0.940119638394334 -0.0002404452264688 -4.16417236688277e-18)
(0.854287847532985 -0.000347574589223144 1.47710138443917e-17)
(0.968839977067707 0.000192473056744859 -5.85326883671555e-18)
(0.915494144836759 -0.000785960689404296 -9.53400275892753e-18)
(0.965781155287296 -1.70690950380744e-05 4.93749730800123e-18)
(0.936612074995284 9.73088514971031e-05 -1.2910735928224e-18)
(0.967456695855045 0.000111909903547003 1.75523791430853e-18)
(0.923644168554887 -5.32989072739669e-05 1.99441542409382e-17)
(0.966421694638168 3.1702565190252e-05 -9.38961053492194e-18)
(0.931805374822489 3.29269612974934e-05 -4.17497820609195e-18)
(0.967066899166612 6.84209916907005e-05 -7.70916485472007e-18)
(0.926702539328855 -2.04891215977018e-05 -2.37073255450004e-17)
(0.966663775955612 3.97708093381066e-05 3.61825176194464e-18)
(0.92988956562401 1.2816794163812e-05 -2.26043765271838e-18)
(0.966915775093921 4.71495731479297e-05 3.76970229445176e-18)
(0.927899215279504 -7.98791579616162e-06 1.68691243269609e-17)
(0.966758261695505 3.50200478445527e-05 9.83433086727772e-19)
(0.929142212784793 5.00853578347433e-06 1.08802396447823e-18)
(0.966856863627634 3.32111539447519e-05 2.24451279529384e-18)
(0.928366406663541 -3.11853958215627e-06 5.59006926256481e-18)
(0.966795064041014 2.61111217007015e-05 1.75852208689182e-18)
(0.928850118105054 1.96727692411483e-06 3.35205704670351e-18)
(0.966834050939332 2.16069864680306e-05 1.46879504519423e-18)
(0.928549621951558 -1.2296726649455e-06 1.27566146786204e-18)
(0.966809163414097 1.59077385019028e-05 4.18444035824705e-19)
(0.928734740312527 7.93687351446611e-07 2.13032217207521e-18)
(0.966825602823217 1.07091044704772e-05 1.97686853593115e-19)
(0.928623395086565 -5.17506312284849e-07 6.86854020257345e-19)
(0.966813927578398 5.32943597865342e-06 2.01865843777281e-19)
(0.928686121147462 3.72065242285816e-07 1.34315345655453e-18)
(0.928657902575338 -3.00458274930057e-07 -5.07489476382563e-19)
(0.445000539545088 0.00164214798202209 3.15949720356673e-18)
(0.306234711053672 0.00255415360105296 4.10768421124118e-18)
(0.446133382309347 0.00170993876955153 1.32661939722552e-18)
(0.309283221531696 0.00280099173307637 -9.52400492022014e-19)
(0.446992854780488 0.00176423966007927 9.58883677178852e-19)
(0.310119834727786 0.00292488664665472 3.14727498234714e-19)
(0.447582936034901 0.00184550789952503 -1.56638814273328e-18)
(0.310988626660929 0.0031143746797194 -1.24435003483777e-17)
(0.448012509759342 0.00189099660647893 -2.37955150406292e-18)
(0.311523227017833 0.00322595396165349 -1.03793109891e-17)
(0.448373377962852 0.00190935730599307 -5.76437170076269e-19)
(0.311947018187989 0.00327515779485299 -1.41982017480682e-18)
(0.448714275158644 0.00191361964313416 2.09453336004532e-17)
(0.312329302991475 0.00329012338787283 -2.6546409400783e-18)
(0.449056015411744 0.00191252542146688 6.13274271120666e-17)
(0.31270628705492 0.00329096885295162 4.18462763129398e-17)
(0.449405733120631 0.00190993356375284 6.67060635317897e-17)
(0.313090561127326 0.00328724257940257 9.272830002704e-17)
(0.449765272851804 0.00190714704882989 3.50158730726006e-17)
(0.31348602554647 0.00328253104196203 5.57415280681664e-17)
(0.450134927504447 0.00190444057378638 1.57300250709564e-17)
(0.313893515829623 0.0032778140957553 1.93451876126395e-17)
(0.450514759578008 0.00190178929508066 -5.1049411853223e-18)
(0.314313203691003 0.00327319948716934 1.20318111057914e-17)
(0.450904935997192 0.00189912548848539 -3.28745230252406e-17)
(0.314745274635261 0.00326859706428745 -5.00061997693625e-18)
(0.451305749702249 0.00189640161681018 -2.26339125880008e-17)
(0.315190051684163 0.0032639197831299 -2.6195774910218e-17)
(0.451717578985206 0.00189359225555795 1.02068949191565e-17)
(0.315647967513771 0.0032591159815879 -2.34301475815987e-18)
(0.452140854379006 0.00189068480988809 4.64514730346628e-18)
(0.316119524949305 0.00325415931274052 3.86799618985541e-17)
(0.452576041752686 0.00188767235037806 -1.40358736402183e-17)
(0.316605273154258 0.00324903595301278 -2.34279842044568e-17)
(0.453023636126412 0.00188454990320339 -5.63690771533689e-18)
(0.317105797640358 0.00324373692892093 -1.86457550558352e-17)
(0.453484160722717 0.00188131290783834 -2.45130174494394e-17)
(0.317621717807361 0.0032382546118532 -3.96628207687561e-18)
(0.453958168157271 0.00187795668556997 -1.85104791290223e-17)
(0.318153687805176 0.00323258140070178 -8.60113701998461e-17)
(0.454446242419847 0.00187447628965439 3.88562796503395e-17)
(0.318702398679706 0.00322670931161079 1.72897332568982e-17)
(0.454949001175841 0.00187086646982647 4.25884995857348e-17)
(0.319268581020409 0.00322062987204096 3.17366869853098e-17)
(0.455467098272113 0.00186712165903342 1.08795102744439e-17)
(0.31985300787992 0.00321433409023511 2.3226800416585e-17)
(0.45600122644683 0.00186323595807661 1.25868931199105e-16)
(0.320456497934652 0.00320781243114018 2.24400352666349e-17)
(0.456552120271053 0.001859203114733 2.05348001106213e-16)
(0.321079918911856 0.00320105478434419 3.12457702550362e-16)
(0.457120559354567 0.00185501649839845 1.05767812059756e-16)
(0.32172419131983 0.00319405042412071 2.10839439239364e-16)
(0.457707371848611 0.00185066907120691 3.79772885304473e-17)
(0.322390292519954 0.00318678796324615 8.48702651253395e-17)
(0.458313438279826 0.00184615335605156 3.9860387757311e-17)
(0.323079261180043 0.00317925530152244 4.76207803586493e-17)
(0.458939695753452 0.00184146140141089 5.78819970913214e-17)
(0.323792202152749 0.00317143956912356 7.35198271298779e-17)
(0.459587142567659 0.00183658474269134 2.17416248800959e-17)
(0.324530291827182 0.00316332706432612 9.1647294643491e-17)
(0.460256843287149 0.00183151435974983 -4.59707643649933e-17)
(0.325294784008367 0.00315490318515274 -3.39544679967947e-17)
(0.460949934329881 0.0018262406301198 -6.33408603700782e-17)
(0.326087016386106 0.00314615235411891 -1.31770055338942e-16)
(0.46166763012876 0.00182075327741996 2.6363638542506e-17)
(0.326908417663395 0.00313705793534309 -7.70280160940031e-17)
(0.462411229938392 0.00181504131435604 8.81519524487027e-17)
(0.327760515424357 0.00312760214302278 8.49234659715898e-17)
(0.463182125367123 0.00180909297965508 9.23620565623406e-17)
(0.328644944832541 0.00311776594030037 1.05789345914711e-16)
(0.463981808726108 0.00180289566817588 1.33543276915119e-16)
(0.329563458263788 0.00310752892719036 1.51073202280333e-16)
(0.464811882300847 0.00179643585327847 1.35027423896718e-16)
(0.330517935992726 0.00309686921633688 1.77902185812439e-16)
(0.465674068666161 0.00178969900045587 2.59687234838387e-17)
(0.331510398070325 0.00308576329480408 1.61372153914024e-16)
(0.466570222184292 0.00178266947109427 -1.08345817729075e-16)
(0.332543017549589 0.00307418587029967 -8.76557255477182e-17)
(0.467502341847605 0.00177533041494643 -7.65998933844893e-17)
(0.333618135241979 0.00306210969951212 -1.69279061864485e-16)
(0.468472585652849 0.00176766364979438 4.5721174537659e-17)
(0.334738276214851 0.00304950539621537 -2.40722431020682e-17)
(0.469483286724561 0.00175964952650061 1.08081414219826e-16)
(0.335906168274754 0.00303634121626612 1.13497376206649e-16)
(0.4705369714408 0.00175126677725631 1.99962415895258e-17)
(0.337124762720498 0.00302258281622416 9.04824861087118e-17)
(0.471636379857804 0.00174249234467231 8.38650805563522e-17)
(0.338397257699215 0.00300819298159006 -5.27330074805253e-17)
(0.472784488780617 0.00173330118857442 1.68693145502487e-16)
(0.339727124551286 0.00299313132049848 2.33246397345943e-16)
(0.473984537889307 0.00172366606762424 1.23824422093346e-16)
(0.34111813760805 0.00297735391667946 1.15948113487636e-16)
(0.475240059401633 0.00171355729042402 2.28753692396927e-16)
(0.3425744079622 0.00296081293751293 2.19320891053695e-16)
(0.476554911847834 0.0017029424343321 1.73772496203501e-16)
(0.344100421889734 0.00294345618486214 3.30182683010561e-16)
(0.477933318628479 0.00169178601961009 1.10536189205105e-16)
(0.345701084578013 0.00292522659127701 7.50351785959686e-17)
(0.479379912187608 0.00168004914686045 1.86156976455664e-16)
(0.347381770291111 0.00290606162521427 1.63647658147475e-16)
(0.480899784726287 0.0016676890575481 2.30936578586511e-16)
(0.349148379516934 0.00288589265063948 2.20765068191183e-16)
(0.482498546734161 0.0016546586765174 7.41114403077796e-17)
(0.351007405580741 0.00286464409872229 2.81844087395942e-16)
(0.484182394516256 0.00164090597977852 -1.0551544046094e-16)
(0.352966009633007 0.00284223270901043 -1.77734647750007e-16)
(0.485958188953036 0.00162637347456086 -1.09460605603731e-16)
(0.355032111689102 0.00281856623054824 -1.14356194002238e-16)
(0.487833546471031 0.00161099715609168 -1.61236362893564e-16)
(0.35721448751961 0.00279354279134018 -1.73293033178497e-16)
(0.489816947173028 0.0015947061690986 -1.7736166980588e-16)
(0.35952290078387 0.00276704834438801 -2.04585355918896e-16)
(0.491917858324431 0.00157742065681133 -1.18294683758945e-16)
(0.361968218046467 0.00273895737716588 -1.9590994583744e-16)
(0.494146887396223 0.00155905266091823 2.60360880139347e-19)
(0.364562626531892 0.00270912630933694 -8.23031539596531e-17)
(0.496515948674448 0.00153950053729883 9.14391625169961e-17)
(0.36731972365375 0.00267740041533269 8.38856171975771e-17)
(0.499038491552918 0.00151865499811131 8.62362823563007e-17)
(0.370254961588756 0.00264359327653234 1.16845411365799e-16)
(0.501729715191736 0.00149638243179923 1.23214937502707e-16)
(0.37338550601973 0.00260751768148351 3.47341281703713e-17)
(0.504606941881423 0.00147254928925902 7.33421194454605e-17)
(0.376731386031642 0.00256891734011612 2.34023998782677e-16)
(0.507689848517247 0.00144696996076406 -7.89151194521953e-17)
(0.380314324850435 0.00252758209218207 -2.98957969656813e-17)
(0.511001169155981 0.00141949133115778 -9.83568111683467e-17)
(0.384161217859963 0.00248312198562324 -1.39729406504444e-16)
(0.514566768782631 0.00138983121750096 1.2011544480681e-17)
(0.388299117657456 0.00243535948642521 -9.7201510719672e-17)
(0.518417197688773 0.00135784841197777 -5.34517697097754e-17)
(0.392766388089621 0.00238360678512023 5.8386015407924e-17)
(0.522586949143219 0.00132305693597104 -6.81488992793522e-17)
(0.397594518167527 0.00232791613908297 -1.58267363343852e-16)
(0.527118377582094 0.00128543866363704 5.0145479841166e-18)
(0.402843883567921 0.00226686830381907 7.28198027296113e-17)
(0.532057991660299 0.00124403757374279 1.19128765893023e-17)
(0.40854317973409 0.0022013392277158 -1.63139406708013e-17)
(0.537467050212197 0.00119928692160326 -3.62247550374759e-18)
(0.414801088822474 0.0021280482679237 1.00390299451705e-16)
(0.543408457718043 0.00114909855942792 -1.28600211703298e-16)
(0.421616323598332 0.0020503233633419 -1.06448664278952e-16)
(0.549975976892432 0.00109524313050777 -9.97646943511843e-17)
(0.429213787850953 0.00196017390617249 -1.9410081214611e-16)
(0.557253679610485 0.00103287599198081 -9.04730128556793e-18)
(0.437478104013167 0.0018675381277038 -1.86132495008662e-17)
(0.565395578711596 0.000967364251905262 2.09621358440791e-18)
(0.446925796307459 0.00175283763295176 -1.88843390890185e-18)
(0.574509780822524 0.000887192822723943 -8.51161566440108e-18)
(0.457091948222 0.00164259921679948 2.06866076331427e-17)
(0.584869793939509 0.000806864929177656 -3.87666141322087e-17)
(0.469228638556611 0.00148983636442827 -6.19589076176042e-17)
(0.596603043013233 0.000698915659960876 3.79102949886782e-18)
(0.48190655316327 0.00136022240490634 -3.70972210719848e-17)
(0.610232635745088 0.000600218799211405 3.90967374930547e-17)
(0.498202727763765 0.00114483223990862 7.99203352450523e-17)
(0.625883354134585 0.000445579339607273 4.16341762414864e-19)
(0.514208993130278 0.000996466506870743 4.80752611245183e-17)
(0.644618860800785 0.00032540263270374 -1.18151318556966e-17)
(0.537403540343035 0.000673072526890321 -2.37733934229744e-17)
(0.666520374979277 8.56760904635008e-05 -1.99399199695699e-17)
(0.557874324330762 0.000510028805558958 -7.79424872643648e-18)
(0.693858235289997 -5.65888325017924e-05 -1.61424361086324e-17)
(0.593344858679292 -5.48834605693767e-06 -3.74703115161508e-17)
(0.726702404723341 -0.000465331629408176 -1.58529061054185e-18)
(0.620196537346246 -0.00018055245348643 9.10633566178824e-19)
(0.770142725614412 -0.000620712419280011 1.03096546239824e-17)
(0.679063533281691 -0.00104489788684214 -4.50422100976266e-18)
(0.824828579901549 -0.00130403428652624 8.80733395146476e-18)
(0.717161135303851 -0.0012523045415939 2.89457577798488e-17)
(0.891946311138223 -0.000361503441133922 -4.87208615624192e-18)
(0.824108369180725 -0.00244648407295503 1.58282517684484e-17)
(0.889807700540164 -0.000107132632866796 1.37179390689014e-17)
(0.861240977722273 0.000164434271562558 -8.02263531518248e-18)
(0.890888716059265 7.78173811031805e-05 1.40172786501205e-17)
(0.838591457842873 -8.77675351544856e-05 3.44019410759723e-17)
(0.890242635050429 -3.3066252460515e-05 -1.84951520192312e-17)
(0.852829210132273 5.35136834700088e-05 -3.5042625450186e-18)
(0.890643617122742 2.8343903198648e-05 -1.82614343354445e-17)
(0.843929444153013 -3.32453136791142e-05 -3.78196764089471e-17)
(0.890392958560062 -6.52773223491648e-06 1.09924133463196e-17)
(0.849488228329486 2.07826950090195e-05 -4.39644589882253e-18)
(0.890549875373122 1.14161516779037e-05 1.41902456194183e-17)
(0.846016452784749 -1.29664112304113e-05 3.40459024292315e-17)
(0.890451800133934 9.6799856636745e-07 5.69593050012668e-18)
(0.848184758168299 8.11893501942771e-06 4.50010546084278e-18)
(0.890513307987125 5.39279501615951e-06 6.69880931832654e-18)
(0.846831342923275 -5.06568394013882e-06 1.10873818032665e-17)
(0.890474795679645 2.30003525797726e-06 2.86949378248161e-18)
(0.847675244450562 3.18706223845567e-06 4.29360497232049e-18)
(0.890499155021421 2.81633686834443e-06 1.93731504698735e-18)
(0.84715095543585 -1.99946993931146e-06 9.04541997185958e-20)
(0.890483639180636 1.72968844008286e-06 2.39926379100984e-18)
(0.847473958628334 1.28480949291829e-06 4.2087784408145e-18)
(0.890493922438714 1.27240000784462e-06 1.83275930128653e-18)
(0.847279668285754 -8.42145834542683e-07 1.37400757196681e-18)
(0.890486628710961 6.14895715461193e-07 6.3391405179243e-19)
(0.847389126067404 6.02814143905793e-07 2.69847710088421e-18)
(0.847339915285679 -4.87899386488246e-07 -1.05777311188951e-18)
(0.169939068197832 0.00363739970419649 -2.63782483654559e-20)
(0.0655346924498454 0.0047289088507855 2.73861266087932e-18)
(0.171947524761473 0.0040360314353957 -1.9745257338193e-18)
(0.0693455043575059 0.00504166385499575 -1.24139196307668e-18)
(0.173140864833431 0.00434196018549286 -1.31666146272661e-17)
(0.0703934385115115 0.00559194787252469 1.03566642732198e-18)
(0.173902076700074 0.00456866224598661 -2.13267355570798e-17)
(0.0713608993728644 0.00600197357172517 -2.48583279007102e-17)
(0.174444205946516 0.00468693292252111 -9.42776802741741e-18)
(0.0719493749083058 0.00622557413584546 -2.02176589655218e-17)
(0.174898767465863 0.00473392958222704 -3.51136009977964e-18)
(0.0724228112876967 0.00632069641887005 -9.41976910004512e-19)
(0.175328529129709 0.00474603834967339 1.83285504668223e-17)
(0.072856220979942 0.00635064092452105 3.29617094436042e-18)
(0.175759686418938 0.00474456189354784 7.33967700896021e-17)
(0.0732865251791889 0.00635379687138176 4.18888868731884e-17)
(0.176201500751429 0.00473893894846477 8.17392108442684e-17)
(0.0737264133513409 0.006348038776892 1.0780976142909e-16)
(0.176656715177303 0.00473249125293739 4.0010686421596e-17)
(0.0741800913591071 0.00634010676019773 6.12433813408938e-17)
(0.177126036857554 0.00472605100957598 1.56308232119385e-17)
(0.0746487133116649 0.0063319526882384 2.05981640542648e-17)
(0.177609765732123 0.0047196650780636 1.21581691936944e-17)
(0.0751327119759268 0.00632387868949208 7.00992553343749e-18)
(0.178108251928775 0.00471322404377073 1.74868097544648e-18)
(0.0756324745967493 0.00631577627752625 3.59816411350008e-17)
(0.178621963250461 0.00470663593901162 -5.79496380768178e-18)
(0.0761484919146339 0.00630751110263437 1.80158163077161e-19)
(0.179151459441515 0.00469984747687788 2.62763628316944e-17)
(0.0766813514343956 0.00629899765948978 -3.3013805436764e-18)
(0.179697363064568 0.00469283058172938 1.04831082503002e-17)
(0.0772317102789049 0.0062901900708601 5.89207209803257e-17)
(0.180260343431846 0.0046855690131207 -2.80720139880066e-17)
(0.0778002772801548 0.00628106302915138 -6.00806700374313e-17)
(0.180841110733637 0.00467805082453159 -1.69766093191465e-17)
(0.0783878055682744 0.00627159944335738 -3.0392258219784e-17)
(0.181440415550149 0.00467026504266189 -6.57905366627023e-17)
(0.0789950913147852 0.00626178455634431 -9.78716727298763e-18)
(0.182059050720949 0.00466220045343948 -5.00586341621673e-17)
(0.0796229753588143 0.00625160365060545 -1.16339291538432e-16)
(0.182697854170545 0.00465384522888224 1.01177312647549e-17)
(0.0802723460435321 0.00624104129838797 3.33452167231563e-18)
(0.183357712176167 0.00464518682364448 1.22623075056034e-17)
(0.0809441425982909 0.00623008115012991 -3.95813274774051e-17)
(0.184039562942314 0.00463621193249841 3.48566522661709e-17)
(0.0816393588664713 0.00621870586490526 2.7569101192225e-17)
(0.18474440047953 0.00462690644861199 2.10018721688138e-16)
(0.0823590473545524 0.00620689705787396 4.71374778273807e-17)
(0.185473278821634 0.00461725541140143 3.18010567713026e-16)
(0.0831043236319247 0.00619463523586744 3.52516417482649e-16)
(0.186227316624282 0.00460724294461299 1.89849002101906e-16)
(0.0838763711242871 0.00618189971951122 3.29916848136289e-16)
(0.187007702190149 0.00459685218625315 9.45727906843015e-17)
(0.0846764463477037 0.00616866855395899 1.52293203925216e-16)
(0.187815698969524 0.00458606521102247 8.14656118258176e-17)
(0.0855058846333078 0.00615491840959182 9.12419906933281e-17)
(0.188652651590481 0.00457486294500106 1.0747011091917e-16)
(0.0863661063984461 0.00614062447282293 1.07177677649286e-16)
(0.189519992479023 0.00456322507194677 3.56361095770212e-17)
(0.0872586240260272 0.00612576032603711 1.01342809929463e-16)
(0.190419249137954 0.00455112993025352 -1.2022830198303e-16)
(0.0881850494222739 0.00611029781581091 -2.26658903523985e-17)
(0.191352052161896 0.00453855439946635 -1.45511774684498e-16)
(0.0891471023321832 0.00609420690783628 -1.95917321369095e-16)
(0.192320144077078 0.00452547377512449 -1.81046965799262e-17)
(0.090146619502645 0.00607745552711279 -8.41387395548918e-17)
(0.193325389106511 0.00451186163049547 1.0265974170439e-16)
(0.0911855647960111 0.00606000938151898 5.29126999875808e-17)
(0.194369783975648 0.0044976896635524 1.6481710518722e-16)
(0.0922660403710193 0.00604183176681115 1.27296917769006e-16)
(0.195455469890035 0.00448292752732703 1.95665814008708e-16)
(0.093390299064854 0.00602288335059576 1.83908526077962e-16)
(0.196584745836184 0.00446754264150015 2.04359787025233e-16)
(0.0945607581294564 0.00600312193277974 2.2464069173873e-16)
(0.197760083379351 0.00445149998277996 4.69966942235136e-17)
(0.0957800144983803 0.0059825021791941 2.23860401123018e-16)