/*--------------------------------*- C++ -*----------------------------------*\
| =========                 |                                                 |
| \\      /  F ield         | OpenFOAM: The Open Source CFD Toolbox           |
|  \\    /   O peration     | Version:  4.1                                   |
|   \\  /    A nd           | Web:      www.OpenFOAM.org                      |
|    \\/     M anipulation  |                                                 |
\*---------------------------------------------------------------------------*/
FoamFile
{
    version     2.0;
    format      ascii;
    class       surfaceScalarField;
    location    "0.0056";
    object      meshPhi;
}
// * * * * * * * * * * * * * * * * * * * * * * * * * * * * * * * * * * * * * //

dimensions      [0 3 -1 0 0 0 0];

internalField   nonuniform List<scalar> 
17536
(
9.0394e-25
4.3206e-14
-4.3206e-14
3.1148e-14
-3.1148e-14
-4.8911e-10
1.2549e-13
-1.2549e-13
4.1367e-13
2.3776e-13
-1.5109e-13
-7.3519e-11
-7.3915e-11
8.9645e-11
8.9377e-11
-1.6145e-13
-1.4706e-10
-1.4758e-10
1.8024e-10
1.799e-10
-7.2222e-26
-2.2858e-10
-2.2922e-10
2.6166e-10
2.6124e-10
-2.2567e-21
-3.9179e-10
-3.9252e-10
4.2506e-10
4.2457e-10
-2.2585e-21
-4.6535e-10
-4.6618e-10
5.1505e-10
5.1451e-10
-2.2611e-21
-6.1262e-10
-6.1354e-10
7.7685e-10
7.7626e-10
-1.1315e-21
-8.4102e-10
-8.4205e-10
1.1196e-09
1.119e-09
-4.9081e-10
-1.1456e-09
-1.1468e-09
1.4732e-09
1.4725e-09
-4.9165e-10
-1.5228e-09
-1.5241e-09
1.9963e-09
1.9955e-09
-1.4753e-09
-1.9815e-09
-1.983e-09
2.6053e-09
2.6045e-09
-4.9387e-10
-2.5152e-09
-2.517e-09
3.3036e-09
3.3026e-09
-1.4814e-09
-3.0495e-09
-3.0597e-09
3.9986e-09
3.9894e-09
-1.0885e-09
-3.5853e-09
-3.5957e-09
4.7828e-09
4.7735e-09
-1.3394e-09
-4.2015e-09
-4.2039e-09
5.5663e-09
5.5652e-09
-1.6417e-09
-4.9038e-09
-4.9064e-09
6.4349e-09
6.4339e-09
-2.0459e-09
-5.4439e-09
-5.4467e-09
7.2244e-09
7.2235e-09
-2.5038e-09
-5.9049e-09
-5.9902e-09
7.853e-09
7.9344e-09
-3.0156e-09
-6.3677e-09
-6.4612e-09
8.4839e-09
8.5568e-09
-3.4312e-09
-6.6922e-09
-6.7037e-09
8.8457e-09
8.8366e-09
-3.9516e-09
-6.7039e-09
-6.7071e-09
8.9443e-09
8.9434e-09
-4.4302e-09
-6.5583e-09
-6.5613e-09
8.7861e-09
8.7852e-09
-4.8789e-09
-6.2632e-09
-6.266e-09
8.2794e-09
8.2787e-09
-5.2784e-09
-5.5671e-09
-5.578e-09
7.421e-09
7.4121e-09
-5.655e-09
-4.6523e-09
-4.6627e-09
6.2747e-09
6.266e-09
-5.7723e-09
-3.3487e-09
-3.3501e-09
4.5879e-09
4.5876e-09
-5.936e-09
-1.5657e-09
-1.5579e-09
2.1202e-09
2.1285e-09
-5.989e-09
5.3025e-10
5.4751e-10
-7.9646e-10
-7.7954e-10
-6.188e-09
2.7849e-09
2.8032e-09
-3.7225e-09
-3.7052e-09
-6.0164e-09
4.8852e-09
4.813e-09
-6.543e-09
-6.4504e-09
-5.9427e-09
6.6693e-09
6.5902e-09
-8.9093e-09
-8.8252e-09
-5.7114e-09
8.0467e-09
8.0511e-09
-1.0749e-08
-1.0747e-08
-4.5695e-09
9.1966e-09
9.1932e-09
-1.2119e-08
-1.2125e-08
-4.5431e-09
1.0026e-08
1.0032e-08
-1.3135e-08
-1.3133e-08
-4.0067e-09
1.0456e-08
1.0478e-08
-1.3896e-08
-1.3877e-08
-3.9793e-09
1.0418e-08
1.0431e-08
-1.3947e-08
-1.3937e-08
-3.4635e-09
9.9264e-09
9.923e-09
-1.3299e-08
-1.3305e-08
-3.9272e-09
8.9139e-09
8.9099e-09
-1.1972e-08
-1.1978e-08
-3.4212e-09
7.3689e-09
7.3722e-09
-9.7923e-09
-9.7913e-09
-1.9451e-09
5.4649e-09
5.4671e-09
-7.0844e-09
-7.0837e-09
-3.3975e-09
3.3442e-09
3.3455e-09
-4.225e-09
-4.2247e-09
-9.7004e-10
1.2843e-09
1.2848e-09
-1.5611e-09
-1.5611e-09
-1.9406e-09
-3.0888e-10
-3.0904e-10
5.0446e-10
5.0419e-10
-1.2257e-24
-1.1297e-09
-1.1302e-09
1.6338e-09
1.6334e-09
-1.9464e-09
-1.3502e-09
-1.3589e-09
1.9036e-09
1.8952e-09
-5.7773e-25
-1.0589e-09
-1.0675e-09
1.4664e-09
1.458e-09
-3.8233e-10
-3.825e-10
5.1264e-10
5.1254e-10
-1.3708e-17
0
-4.3183e-14
0
3.6264e-28
0
-1.2549e-13
0
-2.2611e-21
1.6389e-11
-8.39e-12
9.8305e-11
-1.5108e-13
-4.0899e-11
-9.8428e-11
2.0463e-10
4.5133e-21
-1.881e-10
-2.6203e-10
3.0246e-10
-4.5139e-21
-2.451e-10
-3.5168e-10
4.8199e-10
0
-3.0236e-10
-5.234e-10
5.066e-10
0
-4.2508e-10
-7.0349e-10
7.1124e-10
2.264e-21
-6.0466e-10
-8.912e-10
1.095e-09
-9.8097e-10
-8.5154e-10
-1.164e-09
1.588e-09
-9.8253e-10
-1.0813e-09
-1.4449e-09
2.1768e-09
-4.9267e-10
-1.367e-09
-1.9755e-09
2.7023e-09
-9.8661e-10
-1.7292e-09
-2.5181e-09
3.403e-09
-1.9742e-09
-2.0999e-09
-2.9736e-09
4.1832e-09
-1.04e-09
-2.4626e-09
-3.4993e-09
4.9058e-09
-1.3903e-09
-2.8905e-09
-4.2075e-09
5.6231e-09
-1.5938e-09
-3.3129e-09
-4.8459e-09
6.511e-09
-1.9989e-09
-3.6708e-09
-5.3138e-09
7.3117e-09
-2.5581e-09
-4.1217e-09
-5.8591e-09
8.0351e-09
-3.0214e-09
-4.517e-09
-6.3161e-09
8.7459e-09
-3.4395e-09
-4.6159e-09
-6.6007e-09
9.08e-09
-3.9623e-09
-4.6077e-09
-6.614e-09
9.1164e-09
-4.4328e-09
-4.4922e-09
-6.4531e-09
8.9288e-09
-4.8782e-09
-4.2594e-09
-6.1832e-09
8.4479e-09
-5.2444e-09
-3.8516e-09
-5.5531e-09
7.5635e-09
-5.6245e-09
-3.1816e-09
-4.5681e-09
6.3308e-09
-5.7943e-09
-2.2755e-09
-3.2025e-09
4.5787e-09
-5.9074e-09
-9.7336e-10
-1.4627e-09
2.0479e-09
-6.0114e-09
5.8196e-10
6.4092e-10
-9.0963e-10
-6.2103e-09
2.0462e-09
2.8294e-09
-3.8843e-09
-5.9858e-09
3.4575e-09
4.8369e-09
-6.727e-09
-5.9622e-09
4.7625e-09
6.652e-09
-9.1447e-09
-5.677e-09
5.6446e-09
8.0151e-09
-1.0972e-08
-5.5973e-09
6.2749e-09
9.0891e-09
-1.2366e-08
-5.5625e-09
6.8163e-09
9.8727e-09
-1.3433e-08
-4.0142e-09
7.0832e-09
1.0211e-08
-1.4096e-08
-3.9856e-09
7.1163e-09
1.0182e-08
-1.415e-08
-2.973e-09
6.8627e-09
9.7005e-09
-1.359e-08
-3.9298e-09
6.1095e-09
8.6874e-09
-1.2171e-08
-2.9341e-09
4.929e-09
7.2329e-09
-9.8943e-09
-1.9457e-09
3.6013e-09
5.3411e-09
-7.263e-09
-2.4269e-09
2.2617e-09
3.287e-09
-4.4496e-09
-1.4547e-09
9.5918e-10
1.4144e-09
-1.706e-09
-1.94e-09
-1.3845e-10
-8.1929e-11
4.4682e-10
-2.2472e-21
-7.2337e-10
-9.6738e-10
1.5679e-09
-1.9458e-09
-8.8672e-10
-1.326e-09
1.8052e-09
4.5088e-21
-7.8182e-10
-1.0672e-09
1.4903e-09
-3.0103e-10
-3.5808e-10
5.8576e-10
0
0
0
0
0
0
0
0
-3.6146e-26
-5.7361e-11
-1.639e-11
1.0649e-10
4.3368e-25
-9.8182e-11
-4.0905e-11
3.1089e-10
0
-7.3606e-11
-1.3086e-10
4.2528e-10
4.5149e-21
-1.307e-10
-3.1048e-10
4.575e-10
0
-1.5524e-10
-5.0667e-10
5.0662e-10
-2.2618e-21
-1.4713e-10
-6.3764e-10
7.5208e-10
-4.5285e-21
-2.8596e-10
-8.6618e-10
1.1849e-09
-1.4711e-09
-4.7513e-10
-1.1963e-09
1.7362e-09
-1.4737e-09
-5.4968e-10
-1.4689e-09
2.3108e-09
1.138e-21
-5.9817e-10
-1.9177e-09
2.8334e-09
-1.4795e-09
-7.1342e-10
-2.4601e-09
3.4605e-09
-1.9755e-09
-9.855e-10
-2.9976e-09
4.2604e-09
-1.0903e-09
-1.2317e-09
-3.6217e-09
5.0043e-09
-1.3912e-09
-1.3885e-09
-4.2646e-09
5.7548e-09
-1.6951e-09
-1.7191e-09
-4.9113e-09
6.6762e-09
-2.1013e-09
-1.9685e-09
-5.4785e-09
7.5026e-09
-2.5113e-09
-2.0701e-09
-6.032e-09
8.2421e-09
-3.0268e-09
-2.2308e-09
-6.5553e-09
8.8545e-09
-3.4456e-09
-2.2929e-09
-6.7174e-09
9.2375e-09
-4.0211e-09
-2.256e-09
-6.6648e-09
9.3824e-09
-4.4282e-09
-2.2353e-09
-6.5623e-09
9.1706e-09
-4.8806e-09
-2.1566e-09
-6.2261e-09
8.6982e-09
-5.2596e-09
-2.0107e-09
-5.663e-09
7.8562e-09
-5.5886e-09
-1.6806e-09
-4.678e-09
6.5319e-09
-5.8123e-09
-1.2055e-09
-3.2365e-09
4.6879e-09
-5.9254e-09
-6.3781e-10
-1.4466e-09
2.1566e-09
-6.0822e-09
5.7055e-11
6.7445e-10
-8.5094e-10
-6.2294e-09
8.7789e-10
2.8885e-09
-3.9016e-09
-6.0037e-09
1.672e-09
4.9052e-09
-6.8782e-09
-5.9265e-09
2.2378e-09
6.6869e-09
-9.3887e-09
-5.5885e-09
2.7084e-09
8.1158e-09
-1.123e-08
-6.1141e-09
3.1523e-09
9.1236e-09
-1.2758e-08
-6.0732e-09
3.4764e-09
9.9564e-09
-1.3803e-08
-4.0197e-09
3.5978e-09
1.0368e-08
-1.4372e-08
-3.9898e-09
3.5441e-09
1.0346e-08
-1.4447e-08
-2.479e-09
3.3826e-09
9.8715e-09
-1.3891e-08
-3.9322e-09
2.9799e-09
8.7765e-09
-1.2441e-08
-2.9351e-09
2.4121e-09
7.2324e-09
-1.0115e-08
-1.9458e-09
1.8414e-09
5.3483e-09
-7.4586e-09
-1.9408e-09
1.0903e-09
3.2784e-09
-4.5946e-09
-1.939e-09
4.3908e-10
1.4142e-09
-1.9009e-09
-1.9398e-09
-4.8919e-11
-8.9881e-11
2.1188e-10
2.2456e-21
-3.7384e-10
-9.6708e-10
1.5111e-09
-1.9456e-09
-5.0423e-10
-1.2851e-09
1.8784e-09
-2.2546e-21
-4.5596e-10
-1.1482e-09
1.5229e-09
-1.546e-10
-4.2306e-10
5.8576e-10
0
0
0
0
-1.5634e-14
0
-1.6399e-11
0
2.2607e-21
0
-4.0996e-11
9.83e-11
0
0
-8.9993e-11
2.0453e-10
-5.0581e-25
0
-1.4721e-10
3.8438e-10
4.5151e-21
0
-2.6961e-10
5.6372e-10
4.5181e-21
0
-4.4126e-10
5.9651e-10
2.2614e-21
0
-5.7224e-10
8.9928e-10
-9.047e-25
0
-8.0899e-10
1.2912e-09
-1.961e-09
0
-1.1964e-09
1.7044e-09
-1.9643e-09
0
-1.5672e-09
2.2974e-09
-1.1383e-21
8.2038e-12
-1.9668e-09
2.9013e-09
-1.9717e-09
1.6418e-11
-2.4686e-09
3.5271e-09
-1.9761e-09
8.2074e-12
-3.0552e-09
4.247e-09
-1.14e-09
-8.1867e-12
-3.6794e-09
4.9713e-09
-1.3921e-09
-1.6394e-11
-4.2487e-09
5.8699e-09
-1.7458e-09
-8.1485e-12
-4.8957e-09
6.8572e-09
-2.1528e-09
3.6117e-14
-5.537e-09
7.594e-09
-2.4634e-09
-8.2745e-11
-6.0659e-09
8.3257e-09
-2.9795e-09
-8.3044e-11
-6.5234e-09
8.9455e-09
-3.4493e-09
0
-6.7105e-09
9.279e-09
-4.0255e-09
-8.2553e-12
-6.6995e-09
9.4079e-09
-4.4335e-09
-8.2958e-12
-6.6219e-09
9.313e-09
-4.8821e-09
0
-6.2941e-09
8.8987e-09
-5.2671e-09
0
-5.7055e-09
7.9989e-09
-5.546e-09
0
-4.7125e-09
6.508e-09
-5.821e-09
8.4143e-12
-3.2624e-09
4.7215e-09
-5.9344e-09
1.2474e-14
-1.4636e-09
2.3235e-09
-6.1435e-09
-8.412e-12
6.0789e-10
-6.5863e-10
-6.2393e-09
0
2.8228e-09
-3.7596e-09
-6.0126e-09
8.3717e-12
4.8818e-09
-6.8126e-09
-5.8832e-09
8.3085e-12
6.6637e-09
-9.1977e-09
-5.647e-09
0
8.1098e-09
-1.114e-08
-6.121e-09
0
9.1592e-09
-1.2817e-08
-6.0797e-09
0
9.9834e-09
-1.3978e-08
-4.0232e-09
0
1.042e-08
-1.4712e-08
-3.9925e-09
0
1.0422e-08
-1.4687e-08
-1.9809e-09
0
9.9138e-09
-1.3864e-08
-3.4443e-09
0
8.7991e-09
-1.2489e-08
-2.4453e-09
0
7.2839e-09
-1.034e-08
-1.9461e-09
0
5.4297e-09
-7.6803e-09
-1.9407e-09
0
3.3273e-09
-4.7738e-09
-1.9388e-09
0
1.4141e-09
-1.9983e-09
-1.9395e-09
0
-8.9774e-11
1.8742e-10
-1.3696e-24
0
-9.5895e-10
1.5761e-09
-1.9453e-09
8.1075e-12
-1.2363e-09
1.8133e-09
0
8.121e-12
-1.0669e-09
1.4171e-09
0
-4.0679e-10
5.9386e-10
0
0
0
0
-1.5634e-14
0
-1.6399e-11
0
-2.8924e-25
5.7361e-11
-4.0996e-11
9.83e-11
2.2585e-21
9.8182e-11
-8.9993e-11
2.0453e-10
2.2568e-21
7.3606e-11
-1.4721e-10
3.8438e-10
0
1.307e-10
-2.6961e-10
5.6372e-10
0
1.5524e-10
-4.4126e-10
5.9651e-10
-2.2622e-21
1.553e-10
-5.7224e-10
8.911e-10
0
2.9413e-10
-8.0899e-10
1.283e-09
-1.961e-09
4.7513e-10
-1.1964e-09
1.7044e-09
-1.9643e-09
5.5788e-10
-1.559e-09
2.2974e-09
-1.1383e-21
6.1457e-10
-1.9505e-09
2.9013e-09
-1.9718e-09
8.0354e-10
-2.4604e-09
3.6092e-09
-1.9761e-09
1.0673e-09
-3.0552e-09
4.329e-09
-1.14e-09
1.2399e-09
-3.6712e-09
4.9713e-09
-1.3921e-09
1.3967e-09
-4.2405e-09
5.8699e-09
-1.7457e-09
1.7191e-09
-4.8955e-09
6.8572e-09
-2.1528e-09
1.9685e-09
-5.5369e-09
7.594e-09
-2.4632e-09
2.0702e-09
-6.066e-09
8.325e-09
-2.9795e-09
2.2144e-09
-6.5317e-09
8.953e-09
-3.4493e-09
2.2763e-09
-6.7188e-09
9.2874e-09
-4.0255e-09
2.256e-09
-6.6994e-09
9.4079e-09
-4.4335e-09
2.2353e-09
-6.6219e-09
9.313e-09
-4.8821e-09
2.1566e-09
-6.2941e-09
8.8987e-09
-5.2671e-09
2.0191e-09
-5.6972e-09
7.9989e-09
-5.546e-09
1.689e-09
-4.7042e-09
6.508e-09
-5.821e-09
1.2055e-09
-3.2624e-09
4.7215e-09
-5.9344e-09
6.2944e-10
-1.4719e-09
2.3235e-09
-6.1436e-09
-7.3862e-11
5.9123e-10
-6.5863e-10
-6.2393e-09
-8.7793e-10
2.8228e-09
-3.7596e-09
-6.0126e-09
-1.6553e-09
4.8901e-09
-6.821e-09
-5.8832e-09
-2.2378e-09
6.6554e-09
-9.206e-09
-5.647e-09
-2.7168e-09
8.1015e-09
-1.114e-08
-6.1211e-09
-3.1607e-09
9.151e-09
-1.2817e-08
-6.0797e-09
-3.4848e-09
9.9751e-09
-1.3978e-08
-4.0232e-09
-3.5978e-09
1.042e-08
-1.4712e-08
-3.9925e-09
-3.5441e-09
1.0422e-08
-1.4687e-08
-1.9809e-09
-3.3826e-09
9.9138e-09
-1.3864e-08
-3.4443e-09
-2.9799e-09
8.7991e-09
-1.2489e-08
-2.4453e-09
-2.4202e-09
7.2758e-09
-1.034e-08
-1.9461e-09
-1.8494e-09
5.4215e-09
-7.6803e-09
-1.9407e-09
-1.0903e-09
3.3273e-09
-4.7738e-09
-1.9388e-09
-4.3908e-10
1.4141e-09
-1.9983e-09
-1.9395e-09
4.8919e-11
-8.9774e-11
1.8742e-10
0
3.7384e-10
-9.5895e-10
1.5761e-09
-1.9454e-09
5.0423e-10
-1.2364e-09
1.8133e-09
0
4.5596e-10
-1.067e-09
1.4171e-09
1.546e-10
-4.0679e-10
5.9386e-10
0
0
0
0
0
0
0
0
-2.2608e-21
-1.6389e-11
-1.639e-11
1.0649e-10
4.3368e-25
4.0899e-11
-4.0905e-11
3.1089e-10
0
1.881e-10
-1.3086e-10
4.2528e-10
0
2.451e-10
-3.1048e-10
4.575e-10
-2.2589e-21
3.0236e-10
-5.0667e-10
5.0662e-10
-2.2623e-21
4.2508e-10
-6.3764e-10
7.439e-10
-3.3966e-21
5.8831e-10
-8.7435e-10
1.1849e-09
-1.4711e-09
8.3517e-10
-1.2045e-09
1.7444e-09
-1.4737e-09
1.0813e-09
-1.4607e-09
2.3108e-09
1.138e-21
1.3752e-09
-1.9013e-09
2.8252e-09
-1.4795e-09
1.7456e-09
-2.4437e-09
3.5342e-09
-1.9755e-09
2.108e-09
-2.9894e-09
4.3423e-09
-1.0903e-09
2.4544e-09
-3.6217e-09
5.0044e-09
-1.3912e-09
2.8905e-09
-4.2565e-09
5.7548e-09
-1.6951e-09
3.3213e-09
-4.9031e-09
6.6762e-09
-2.1013e-09
3.6626e-09
-5.4786e-09
7.5109e-09
-2.5113e-09
4.1134e-09
-6.0319e-09
8.2504e-09
-3.0268e-09
4.517e-09
-6.5634e-09
8.8627e-09
-3.4456e-09
4.6241e-09
-6.7257e-09
9.2375e-09
-4.0211e-09
4.6077e-09
-6.673e-09
9.3742e-09
-4.4231e-09
4.4839e-09
-6.5624e-09
9.1789e-09
-4.8801e-09
4.2511e-09
-6.2261e-09
8.7066e-09
-5.2596e-09
3.8432e-09
-5.663e-09
7.8562e-09
-5.5886e-09
3.1816e-09
-4.6696e-09
6.5319e-09
-5.8123e-09
2.2755e-09
-3.2365e-09
4.6879e-09
-5.9259e-09
1.0486e-09
-1.4632e-09
2.2405e-09
-6.0822e-09
-5.0718e-10
6.4944e-10
-7.6747e-10
-6.2295e-09
-2.0378e-09
2.8968e-09
-3.9016e-09
-6.0037e-09
-3.4492e-09
4.9219e-09
-6.8865e-09
-5.9265e-09
-4.7542e-09
6.6786e-09
-9.4053e-09
-5.5886e-09
-5.6446e-09
8.0992e-09
-1.1239e-08
-6.1142e-09
-6.2833e-09
9.0988e-09
-1.2766e-08
-6.0732e-09
-6.8245e-09
9.9398e-09
-1.3803e-08
-4.0197e-09
-7.0914e-09
1.0368e-08
-1.4364e-08
-3.9898e-09
-7.1163e-09
1.0346e-08
-1.4447e-08
-2.479e-09
-6.871e-09
9.8634e-09
-1.3891e-08
-3.9322e-09
-6.1178e-09
8.7684e-09
-1.2441e-08
-2.9351e-09
-4.929e-09
7.2243e-09
-1.0115e-08
-1.9458e-09
-3.6013e-09
5.3402e-09
-7.4586e-09
-1.9408e-09
-2.2617e-09
3.2784e-09
-4.5946e-09
-1.939e-09
-9.5918e-10
1.4142e-09
-1.9009e-09
-1.9398e-09
1.3845e-10
-8.9881e-11
2.1188e-10
-4.4938e-21
7.2337e-10
-9.6708e-10
1.5111e-09
-1.9456e-09
8.8672e-10
-1.2851e-09
1.8784e-09
0
7.8182e-10
-1.1482e-09
1.5229e-09
3.0103e-10
-4.2306e-10
5.8576e-10
1.4637e-18
4.6064e-15
4.6039e-15
0
6.0783e-30
5.9847e-15
5.9847e-15
0
-3.9765e-25
7.3705e-11
-8.2037e-12
9.8305e-11
-1.5105e-13
1.4727e-10
-9.8218e-11
2.0463e-10
2.2566e-21
2.2879e-10
-2.6182e-10
3.0246e-10
0
3.9198e-10
-3.5149e-10
4.8199e-10
0
4.6552e-10
-5.2323e-10
5.066e-10
0
6.1276e-10
-7.0335e-10
7.1124e-10
1.1321e-21
8.4115e-10
-8.9924e-10
1.1032e-09
-9.8097e-10
1.1458e-09
-1.172e-09
1.5962e-09
-9.8253e-10
1.523e-09
-1.4448e-09
2.1768e-09
-4.9267e-10
1.9817e-09
-1.9753e-09
2.6941e-09
-9.866e-10
2.5237e-09
-2.5096e-09
3.3866e-09
-1.9742e-09
3.0581e-09
-2.965e-09
4.175e-09
-1.04e-09
3.594e-09
-3.507e-09
4.8976e-09
-1.3903e-09
4.202e-09
-4.2069e-09
5.6231e-09
-1.5938e-09
4.8962e-09
-4.8371e-09
6.5192e-09
-1.9989e-09
5.4446e-09
-5.3132e-09
7.3198e-09
-2.5584e-09
5.9879e-09
-5.8585e-09
8.1259e-09
-3.0215e-09
6.4587e-09
-6.3155e-09
8.8203e-09
-3.4395e-09
6.7011e-09
-6.6002e-09
9.0635e-09
-3.9623e-09
6.7045e-09
-6.6217e-09
9.1081e-09
-4.4277e-09
6.5588e-09
-6.4525e-09
8.937e-09
-4.8777e-09
6.2636e-09
-6.1828e-09
8.4561e-09
-5.2444e-09
5.5675e-09
-5.561e-09
7.5635e-09
-5.6245e-09
4.6527e-09
-4.5679e-09
6.3308e-09
-5.7944e-09
3.349e-09
-3.2022e-09
4.5787e-09
-5.9075e-09
1.566e-09
-1.4707e-09
2.1318e-09
-6.0115e-09
-5.2999e-10
6.3285e-10
-8.2616e-10
-6.2103e-09
-2.7847e-09
2.8379e-09
-3.8843e-09
-5.9858e-09
-4.8851e-09
4.8453e-09
-6.727e-09
-5.9621e-09
-6.6694e-09
6.6518e-09
-9.1529e-09
-5.677e-09
-8.0469e-09
8.0067e-09
-1.098e-08
-5.5973e-09
-9.1969e-09
9.0723e-09
-1.2375e-08
-5.5625e-09
-1.0027e-08
9.8641e-09
-1.3433e-08
-4.0142e-09
-1.0457e-08
1.021e-08
-1.4087e-08
-3.9856e-09
-1.0418e-08
1.0182e-08
-1.415e-08
-2.973e-09
-9.9268e-09
9.6919e-09
-1.359e-08
-3.9298e-09
-8.9142e-09
8.6788e-09
-1.2171e-08
-2.9341e-09
-7.3691e-09
7.2327e-09
-9.8943e-09
-1.9457e-09
-5.4649e-09
5.341e-09
-7.263e-09
-2.4269e-09
-3.3442e-09
3.2871e-09
-4.4496e-09
-1.4547e-09
-1.2841e-09
1.4145e-09
-1.706e-09
-1.94e-09
3.0912e-10
-8.1688e-11
4.4682e-10
-1.2254e-24
1.1299e-09
-9.6711e-10
1.5679e-09
-1.9458e-09
1.3504e-09
-1.3258e-09
1.8052e-09
0
1.0591e-09
-1.0671e-09
1.4903e-09
3.8238e-10
-3.5802e-10
5.8576e-10
-2.262e-21
4.6064e-15
-4.8969e-15
4.8969e-15
-4.8911e-10
5.9847e-15
3.1827e-13
3.3316e-13
-1.511e-13
-7.3729e-11
8.9519e-11
8.9504e-11
-1.6145e-13
-1.4737e-10
1.8011e-10
1.8003e-10
2.2562e-21
-2.2901e-10
2.6154e-10
2.6136e-10
0
-3.9233e-10
4.2496e-10
4.2468e-10
2.2585e-21
-4.6601e-10
5.1497e-10
5.1458e-10
-2.2605e-21
-6.134e-10
7.768e-10
7.7631e-10
1.1319e-21
-8.4192e-10
1.1196e-09
1.119e-09
-4.908e-10
-1.1467e-09
1.4732e-09
1.4726e-09
-4.9165e-10
-1.5322e-09
1.9962e-09
1.9874e-09
-1.4753e-09
-1.991e-09
2.6051e-09
2.5964e-09
-4.9387e-10
-2.5249e-09
3.2951e-09
3.2947e-09
-1.4814e-09
-3.0593e-09
3.99e-09
3.9897e-09
-1.0885e-09
-3.5953e-09
4.7742e-09
4.774e-09
-1.3394e-09
-4.2115e-09
5.5658e-09
5.5575e-09
-1.6417e-09
-4.9058e-09
6.4426e-09
6.4343e-09
-2.0459e-09
-5.446e-09
7.224e-09
7.2239e-09
-2.5038e-09
-5.9895e-09
7.9349e-09
7.9348e-09
-3.0156e-09
-6.4606e-09
8.5573e-09
8.5572e-09
-3.4312e-09
-6.7031e-09
8.8371e-09
8.837e-09
-3.9517e-09
-6.7066e-09
8.944e-09
8.9439e-09
-4.4303e-09
-6.561e-09
8.7858e-09
8.7858e-09
-4.879e-09
-6.2741e-09
8.2792e-09
8.2709e-09
-5.2784e-09
-5.5776e-09
7.4208e-09
7.4125e-09
-5.655e-09
-4.6541e-09
6.2745e-09
6.2745e-09
-5.7723e-09
-3.3498e-09
4.5876e-09
4.5878e-09
-5.936e-09
-1.5576e-09
2.12e-09
2.1287e-09
-5.989e-09
5.4777e-10
-7.9665e-10
-7.7934e-10
-6.188e-09
2.8034e-09
-3.7227e-09
-3.705e-09
-6.0164e-09
4.813e-09
-6.5431e-09
-6.4503e-09
-5.9427e-09
6.5901e-09
-8.9093e-09
-8.8252e-09
-5.7114e-09
8.0593e-09
-1.0749e-08
-1.0739e-08
-4.5695e-09
9.2013e-09
-1.2119e-08
-1.2117e-08
-4.5431e-09
1.0031e-08
-1.3135e-08
-1.3133e-08
-4.0067e-09
1.0478e-08
-1.3896e-08
-1.3877e-08
-3.9793e-09
1.0431e-08
-1.3947e-08
-1.3937e-08
-3.4635e-09
9.9226e-09
-1.3299e-08
-1.3306e-08
-3.9272e-09
8.9096e-09
-1.1972e-08
-1.1979e-08
-3.4212e-09
7.372e-09
-9.7922e-09
-9.7913e-09
-1.9451e-09
5.4671e-09
-7.0844e-09
-7.0837e-09
-3.3975e-09
3.3456e-09
-4.2251e-09
-4.2246e-09
-9.7004e-10
1.2849e-09
-1.5613e-09
-1.561e-09
-1.9406e-09
-3.088e-10
5.0423e-10
5.0442e-10
4.4945e-21
-1.1299e-09
1.6336e-09
1.6337e-09
-1.9464e-09
-1.3587e-09
1.9034e-09
1.8954e-09
-5.7773e-25
-1.0674e-09
1.4663e-09
1.4582e-09
-3.8244e-10
5.1259e-10
5.1259e-10
1.3708e-17
4.3183e-14
0
0
0
1.2549e-13
0
0
2.2607e-21
-7.9938e-12
1.6389e-11
9.8305e-11
-1.5099e-13
-9.7905e-11
-4.0899e-11
2.0463e-10
2.2567e-21
-2.6139e-10
-1.9628e-10
2.9428e-10
-2.2567e-21
-3.5095e-10
-2.5327e-10
4.7382e-10
2.2587e-21
-5.2258e-10
-3.0236e-10
5.066e-10
-6.158e-25
-7.0258e-10
-4.2508e-10
7.1124e-10
-1.1321e-21
-8.9018e-10
-6.0466e-10
1.095e-09
-9.8098e-10
-1.1629e-09
-8.5153e-10
1.588e-09
-9.8254e-10
-1.4436e-09
-1.0813e-09
2.1768e-09
-4.9268e-10
-1.9659e-09
-1.3834e-09
2.6942e-09
-9.8662e-10
-2.5e-09
-1.7538e-09
3.3948e-09
-1.9742e-09
-2.9635e-09
-2.1081e-09
4.175e-09
-1.04e-09
-3.4972e-09
-2.4627e-09
4.8977e-09
-1.3903e-09
-4.197e-09
-2.907e-09
5.615e-09
-1.5939e-09
-4.8353e-09
-3.3296e-09
6.5029e-09
-1.9989e-09
-5.303e-09
-3.6711e-09
7.32e-09
-2.5585e-09
-5.8482e-09
-4.122e-09
8.1261e-09
-3.0216e-09
-6.3133e-09
-4.509e-09
8.8287e-09
-3.4397e-09
-6.598e-09
-4.6162e-09
9.0719e-09
-3.9624e-09
-6.6196e-09
-4.608e-09
9.1083e-09
-4.4279e-09
-6.4588e-09
-4.4842e-09
8.929e-09
-4.8779e-09
-6.1809e-09
-4.2681e-09
8.4399e-09
-5.2447e-09
-5.5511e-09
-3.852e-09
7.5555e-09
-5.6249e-09
-4.5666e-09
-3.182e-09
6.3229e-09
-5.7947e-09
-3.2015e-09
-2.2841e-09
4.5706e-09
-5.9078e-09
-1.4622e-09
-1.0571e-09
2.1401e-09
-6.0118e-09
6.322e-10
5.1567e-10
-8.0126e-10
-6.2106e-09
2.8199e-09
2.0632e-09
-3.8596e-09
-5.9865e-09
4.8348e-09
3.4579e-09
-6.6352e-09
-5.9625e-09
6.649e-09
4.7548e-09
-9.0701e-09
-5.6772e-09
8.0033e-09
5.6451e-09
-1.098e-08
-5.5975e-09
9.0768e-09
6.2837e-09
-1.2375e-08
-5.5627e-09
9.8681e-09
6.8168e-09
-1.3433e-08
-4.0144e-09
1.0198e-08
7.0919e-09
-1.408e-08
-3.9857e-09
1.0161e-08
7.1332e-09
-1.4143e-08
-2.9731e-09
9.6797e-09
6.8794e-09
-1.3599e-08
-3.9298e-09
8.6754e-09
6.1178e-09
-1.2179e-08
-2.9341e-09
7.2216e-09
4.9452e-09
-9.8861e-09
-1.9457e-09
5.3225e-09
3.6257e-09
-7.2548e-09
-2.4269e-09
3.2857e-09
2.2617e-09
-4.4496e-09
-1.4546e-09
1.422e-09
9.5106e-10
-1.706e-09
-1.94e-09
-8.176e-11
-1.3845e-10
4.4682e-10
2.2472e-21
-9.6683e-10
-7.2337e-10
1.5679e-09
-1.9458e-09
-1.3173e-09
-8.9483e-10
1.7971e-09
-6.8642e-25
-1.0586e-09
-7.8994e-10
1.4822e-09
-3.579e-10
-3.0103e-10
5.8576e-10
2.2612e-21
5.2473e-14
-5.2473e-14
2.2619e-21
1.5341e-13
-1.5341e-13
2.2606e-21
-7.3525e-11
-7.4014e-11
2.2588e-21
-6.513e-11
-6.5776e-11
2.2575e-21
-1.4682e-10
-1.476e-10
5.0586e-25
-2.2015e-10
-2.2104e-10
-2.2595e-21
-2.9369e-10
-2.9468e-10
2.2611e-21
-5.2266e-10
-5.2375e-10
-2.2641e-21
-6.613e-10
-6.625e-10
-1.9597e-09
-8.0231e-10
-8.0365e-10
-1.9624e-09
-1.0168e-09
-1.0183e-09
-1.1369e-21
-1.384e-09
-1.394e-09
-1.9687e-09
-1.7456e-09
-1.764e-09
-1.9725e-09
-2.0357e-09
-2.0462e-09
-9.8904e-10
-2.4952e-09
-2.4977e-09
-1.388e-09
-2.9402e-09
-2.9512e-09
-1.6405e-09
-3.2156e-09
-3.2267e-09
-1.9944e-09
-3.5827e-09
-3.5941e-09
-2.6018e-09
-4.0421e-09
-4.0537e-09
-3.0132e-09
-4.4297e-09
-4.4331e-09
-3.4281e-09
-4.5788e-09
-4.5824e-09
-3.8466e-09
-4.5054e-09
-4.5007e-09
-4.4001e-09
-4.4403e-09
-4.4353e-09
-4.8384e-09
-4.316e-09
-4.319e-09
-5.2718e-09
-3.883e-09
-3.8858e-09
-5.494e-09
-3.2121e-09
-3.2144e-09
-5.7646e-09
-2.2462e-09
-2.2478e-09
-5.9272e-09
-9.7527e-10
-9.7608e-10
-5.9793e-09
4.4114e-10
4.4976e-10
-6.1772e-09
1.9419e-09
1.9516e-09
-5.9568e-09
3.364e-09
3.3665e-09
-5.8841e-09
4.5455e-09
4.5491e-09
-5.6026e-09
5.4121e-09
5.4249e-09
-6.079e-09
6.0588e-09
6.0721e-09
-6.0438e-09
6.6499e-09
6.6554e-09
-4.0046e-09
6.9981e-09
7.0121e-09
-3.9787e-09
7.0462e-09
7.0683e-09
-2.4745e-09
6.6471e-09
6.6688e-09
-3.4415e-09
5.8843e-09
5.8972e-09
-1.9547e-09
4.9382e-09
4.95e-09
-1.9474e-09
3.6132e-09
3.6322e-09
-1.943e-09
2.1632e-09
2.1649e-09
-1.9413e-09
9.425e-10
9.3509e-10
-1.942e-09
-4.1625e-13
-4.3539e-13
2.2473e-21
-5.7691e-10
-5.7736e-10
-1.9467e-09
-7.8876e-10
-7.9747e-10
6.7646e-21
-7.2465e-10
-7.3325e-10
-2.9281e-10
-2.9298e-10
0
0
-5.2462e-14
-5.2435e-15
-8.1999e-12
-8.3529e-12
-2.2605e-21
-8.1987e-12
-1.1503e-10
-2.2588e-21
1.745e-15
-1.3941e-10
0
-8.1819e-12
-1.5578e-10
-2.2581e-21
-9.8053e-11
-1.8836e-10
2.2595e-21
-1.7162e-10
-2.3748e-10
2.2609e-21
-1.6351e-10
-4.5836e-10
0
-2.5333e-10
-6.2166e-10
-1.4705e-09
-4.2563e-10
-8.1924e-10
-1.9628e-09
-4.9215e-10
-1.1243e-09
-1.1364e-21
-5.5747e-10
-1.4514e-09
-1.9692e-09
-7.3826e-10
-1.7971e-09
-1.9733e-09
-1.0021e-09
-2.1448e-09
-1.0881e-09
-1.2403e-09
-2.5801e-09
-1.438e-09
-1.4138e-09
-2.952e-09
-1.7406e-09
-1.6787e-09
-3.2443e-09
-2.0457e-09
-1.9281e-09
-3.6939e-09
-2.5537e-09
-2.0963e-09
-4.1373e-09
-3.0159e-09
-2.2737e-09
-4.4512e-09
-3.4821e-09
-2.2869e-09
-4.6259e-09
-3.9015e-09
-2.1924e-09
-4.5691e-09
-4.4006e-09
-2.1887e-09
-4.5288e-09
-4.8357e-09
-2.1181e-09
-4.4128e-09
-5.2294e-09
-1.9383e-09
-3.9375e-09
-5.5025e-09
-1.5991e-09
-3.2666e-09
-5.7734e-09
-1.0905e-09
-2.2827e-09
-5.9881e-09
-5.0463e-10
-9.9333e-10
-6.0404e-09
1.5819e-10
3.9169e-10
-6.1875e-09
9.3003e-10
1.8946e-09
-5.9656e-09
1.6166e-09
3.3604e-09
-5.8412e-09
2.1998e-09
4.5606e-09
-5.5589e-09
2.6954e-09
5.4529e-09
-6.0865e-09
3.0399e-09
6.1414e-09
-6.0499e-09
3.3641e-09
6.7411e-09
-4.0076e-09
3.5092e-09
7.1302e-09
-3.9809e-09
3.5045e-09
7.2019e-09
-2.9699e-09
3.3295e-09
6.7818e-09
-2.9516e-09
2.899e-09
5.9881e-09
-1.9553e-09
2.3929e-09
5.0365e-09
-1.9476e-09
1.8154e-09
3.7299e-09
-1.9432e-09
1.0822e-09
2.23e-09
-1.9413e-09
4.3091e-10
9.351e-10
-1.9418e-09
-5.6989e-11
1.5906e-11
-1.7292e-24
-3.1695e-10
-5.4489e-10
-1.9465e-09
-4.0674e-10
-7.4059e-10
2.2545e-21
-4.0711e-10
-6.52e-10
-1.6272e-10
-2.767e-10
0
0
0
-2.2613e-21
0
-2.4599e-11
2.2606e-21
0
-6.5592e-11
-2.2587e-21
0
-1.0635e-10
-4.5153e-21
0
-1.554e-10
0
0
-2.206e-10
3.6144e-25
0
-3.0236e-10
-3.2544e-25
0
-4.2512e-10
-1.1318e-21
0
-6.0472e-10
-9.807e-10
0
-8.1772e-10
-1.4727e-09
0
-1.0894e-09
-1.1373e-21
8.1808e-12
-1.4173e-09
-1.9697e-09
1.6362e-11
-1.7798e-09
-1.9737e-09
8.174e-12
-2.1602e-09
-1.1872e-09
1.2311e-14
-2.5382e-09
-1.4386e-09
-8.2247e-12
-2.9428e-09
-1.6914e-09
-8.2528e-12
-3.3746e-09
-2.0465e-09
-5.0297e-14
-3.7747e-09
-2.5548e-09
-8.2016e-12
-4.1447e-09
-3.0172e-09
-8.2264e-12
-4.4422e-09
-3.4841e-09
0
-4.6252e-09
-3.9041e-09
-1.6502e-11
-4.6764e-09
-4.3987e-09
-2.4816e-11
-4.5782e-09
-4.8345e-09
-8.2813e-12
-4.338e-09
-5.1307e-09
8.3392e-12
-3.879e-09
-5.5078e-09
8.3031e-12
-3.1752e-09
-5.7786e-09
8.3331e-12
-2.2163e-09
-5.9932e-09
-1.1323e-14
-9.7673e-10
-6.0975e-09
-8.3507e-12
4.5867e-10
-6.193e-09
8.3383e-12
1.9532e-09
-5.9706e-09
1.6637e-11
3.3853e-09
-5.8455e-09
8.3059e-12
4.6274e-09
-5.5629e-09
0
5.5858e-09
-6.09e-09
0
6.3062e-09
-6.0537e-09
0
6.8559e-09
-4.0097e-09
-8.2393e-12
7.1538e-09
-3.9825e-09
-8.2614e-12
7.1593e-09
-2.9709e-09
0
6.8293e-09
-2.4592e-09
0
6.1007e-09
-1.9555e-09
0
5.0349e-09
-1.9479e-09
0
3.7286e-09
-1.9432e-09
0
2.3429e-09
-1.9412e-09
0
1.0483e-09
-1.9418e-09
0
3.2146e-11
-7.5709e-25
0
-5.9332e-10
-1.9465e-09
8.1217e-12
-8.215e-10
2.2538e-21
8.1331e-12
-6.6798e-10
0
-2.4407e-10
0
0
0
-5.7824e-31
8.1999e-12
-2.4599e-11
2.2606e-21
8.1987e-12
-6.5592e-11
0
-1.745e-15
-1.0635e-10
2.2576e-21
8.1819e-12
-1.554e-10
-2.2576e-21
9.8053e-11
-2.206e-10
2.259e-21
1.7979e-10
-2.9419e-10
-3.2544e-25
1.7169e-10
-4.1694e-10
-1.1325e-21
2.4517e-10
-6.129e-10
-9.807e-10
4.1746e-10
-8.259e-10
-1.4727e-09
5.0852e-10
-1.0812e-09
1.1366e-21
5.902e-10
-1.401e-09
-1.9697e-09
7.5463e-10
-1.7716e-09
-1.9737e-09
1.0021e-09
-2.1602e-09
-1.1872e-09
1.2485e-09
-2.5382e-09
-1.4386e-09
1.4302e-09
-2.9346e-09
-1.6914e-09
1.6869e-09
-3.3664e-09
-2.0465e-09
1.9282e-09
-3.7748e-09
-2.5548e-09
2.0881e-09
-4.1365e-09
-3.0172e-09
2.2489e-09
-4.4257e-09
-3.4841e-09
2.2621e-09
-4.6087e-09
-3.9041e-09
2.1925e-09
-4.6764e-09
-4.3987e-09
2.2053e-09
-4.5781e-09
-4.8345e-09
2.1264e-09
-4.3297e-09
-5.1307e-09
1.9633e-09
-3.879e-09
-5.5078e-09
1.6157e-09
-3.1669e-09
-5.7786e-09
1.0988e-09
-2.208e-09
-5.9933e-09
5.13e-10
-9.7671e-10
-6.0976e-09
-1.6648e-10
4.5031e-10
-6.1929e-09
-9.2177e-10
1.9448e-09
-5.9705e-09
-1.5999e-09
3.3769e-09
-5.8455e-09
-2.1997e-09
4.6191e-09
-5.5629e-09
-2.712e-09
5.5941e-09
-6.0901e-09
-3.0481e-09
6.3229e-09
-6.0538e-09
-3.3724e-09
6.856e-09
-4.0097e-09
-3.5258e-09
7.1373e-09
-3.9825e-09
-3.5128e-09
7.1511e-09
-2.9709e-09
-3.3295e-09
6.8293e-09
-2.4592e-09
-2.899e-09
6.1007e-09
-1.9555e-09
-2.4011e-09
5.0349e-09
-1.9479e-09
-1.8155e-09
3.7205e-09
-1.9432e-09
-1.074e-09
2.3347e-09
-1.9412e-09
-4.2281e-10
1.0402e-09
-1.9418e-09
6.5106e-11
2.403e-11
4.4948e-21
3.1695e-10
-5.9332e-10
-1.9466e-09
4.0674e-10
-8.215e-10
2.2538e-21
4.0711e-10
-6.6798e-10
1.6272e-10
-2.4407e-10
0
1.0784e-14
1.0781e-14
-5.2075e-15
2.324e-14
-8.1764e-12
0
7.3782e-11
-1.1477e-10
-3.6258e-26
6.5427e-11
-1.3911e-10
-2.2578e-21
1.4712e-10
-1.5549e-10
2.2581e-21
2.2042e-10
-1.8809e-10
0
2.9392e-10
-2.2908e-10
0
5.2285e-10
-4.4999e-10
-1.1322e-21
6.5329e-10
-6.2966e-10
-1.4705e-09
7.9429e-10
-8.2724e-10
-1.9628e-09
1.017e-09
-1.1159e-09
-1.1364e-21
1.3843e-09
-1.4347e-09
-1.9692e-09
1.7542e-09
-1.7885e-09
-1.9733e-09
2.0444e-09
-2.1443e-09
-1.0881e-09
2.4876e-09
-2.5795e-09
-1.4381e-09
2.9409e-09
-2.943e-09
-1.7406e-09
3.2246e-09
-3.2353e-09
-2.0457e-09
3.5835e-09
-3.693e-09
-2.5537e-09
4.043e-09
-4.1282e-09
-3.0158e-09
4.4306e-09
-4.434e-09
-3.4821e-09
4.5796e-09
-4.6086e-09
-3.9015e-09
4.4979e-09
-4.5685e-09
-4.3956e-09
4.4408e-09
-4.5282e-09
-4.8352e-09
4.3165e-09
-4.4041e-09
-5.2294e-09
3.8752e-09
-3.9371e-09
-5.5025e-09
3.2126e-09
-3.2579e-09
-5.7734e-09
2.2466e-09
-2.2739e-09
-5.9881e-09
9.674e-10
-9.9288e-10
-6.0404e-09
-4.4912e-10
3.8367e-10
-6.1875e-09
-1.9333e-09
1.8865e-09
-5.9656e-09
-3.3555e-09
3.3522e-09
-5.8412e-09
-4.5457e-09
4.5522e-09
-5.5589e-09
-5.4207e-09
5.461e-09
-6.0864e-09
-6.0757e-09
6.1576e-09
-6.05e-09
-6.6587e-09
6.7405e-09
-4.0076e-09
-6.9988e-09
7.1131e-09
-3.9809e-09
-7.0469e-09
7.193e-09
-2.9699e-09
-6.6558e-09
6.7812e-09
-2.9516e-09
-5.8929e-09
5.9876e-09
-1.9553e-09
-4.9385e-09
5.0361e-09
-1.9476e-09
-3.6134e-09
3.7216e-09
-1.9432e-09
-2.1632e-09
2.2219e-09
-1.9413e-09
-9.4237e-10
9.2713e-10
-1.9418e-09
6.6262e-13
8.037e-12
-8.6529e-25
5.7721e-10
-5.4459e-10
-1.9465e-09
7.8904e-10
-7.4031e-10
6.7641e-21
7.2484e-10
-6.518e-10
2.9288e-10
-2.7663e-10
2.2612e-21
4.6039e-15
1.0784e-14
-2.2619e-21
5.9847e-15
2.324e-14
0
8.1801e-12
-7.3757e-11
2.2588e-21
9.8116e-11
-6.5479e-11
-2.2575e-21
2.616e-10
-1.473e-10
-2.2575e-21
3.5114e-10
-2.2076e-10
-2.2595e-21
5.2274e-10
-2.9445e-10
2.2611e-21
7.0272e-10
-5.2356e-10
1.1317e-21
8.903e-10
-6.6233e-10
-1.9597e-09
1.163e-09
-8.0348e-10
-1.9624e-09
1.4438e-09
-1.0181e-09
-1.1361e-21
1.9661e-09
-1.3937e-09
-1.9687e-09
2.5003e-09
-1.7636e-09
-1.9725e-09
2.9558e-09
-2.0539e-09
-9.8904e-10
3.4978e-09
-2.4971e-09
-1.388e-09
4.214e-09
-2.934e-09
-1.6405e-09
4.8359e-09
-3.226e-09
-1.9944e-09
5.3037e-09
-3.5933e-09
-2.6018e-09
5.8571e-09
-4.0446e-09
-3.0132e-09
6.314e-09
-4.4324e-09
-3.4281e-09
6.5986e-09
-4.5815e-09
-3.8465e-09
6.6201e-09
-4.4999e-09
-4.395e-09
6.451e-09
-4.4429e-09
-4.8379e-09
6.1813e-09
-4.3185e-09
-5.2718e-09
5.5597e-09
-3.877e-09
-5.494e-09
4.5669e-09
-3.2139e-09
-5.7646e-09
3.2018e-09
-2.2474e-09
-5.9272e-09
1.4709e-09
-9.6732e-10
-5.9794e-09
-6.3195e-10
4.5013e-10
-6.1773e-09
-2.828e-09
1.9436e-09
-5.9568e-09
-4.8265e-09
3.3749e-09
-5.8842e-09
-6.6408e-09
4.5574e-09
-5.6025e-09
-8.0036e-09
5.4246e-09
-6.079e-09
-9.0688e-09
6.0799e-09
-6.0438e-09
-9.8602e-09
6.6631e-09
-4.0046e-09
-1.0198e-08
7.0114e-09
-3.9787e-09
-1.0162e-08
7.0676e-09
-2.4744e-09
-9.68e-09
6.6682e-09
-3.4415e-09
-8.6757e-09
5.8967e-09
-1.9547e-09
-7.2218e-09
4.9497e-09
-1.9474e-09
-5.3226e-09
3.632e-09
-1.943e-09
-3.2857e-09
2.1649e-09
-1.9413e-09
-1.4218e-09
9.3522e-10
-1.942e-09
8.2e-11
-1.8902e-13
0
9.671e-10
-5.7706e-10
-1.9467e-09
1.3175e-09
-7.9719e-10
2.2549e-21
1.0588e-09
-7.3305e-10
3.5795e-10
-2.9291e-10
-1.4615e-18
0
0
0
0
0
0
1.6389e-11
9.8305e-11
-1.5103e-13
-4.0899e-11
2.0463e-10
0
-1.9628e-10
2.9428e-10
4.5139e-21
-2.5327e-10
4.7382e-10
2.2587e-21
-3.0236e-10