/*--------------------------------*- C++ -*----------------------------------*\
| =========                 |                                                 |
| \\      /  F ield         | OpenFOAM: The Open Source CFD Toolbox           |
|  \\    /   O peration     | Version:  4.1                                   |
|   \\  /    A nd           | Web:      www.OpenFOAM.org                      |
|    \\/     M anipulation  |                                                 |
\*---------------------------------------------------------------------------*/
FoamFile
{
    version     2.0;
    format      ascii;
    class       pointVectorField;
    location    "0.0056";
    object      pointDisplacement_Next_Iter4;
}
// * * * * * * * * * * * * * * * * * * * * * * * * * * * * * * * * * * * * * //

dimensions      [0 1 0 0 0 0 0];

internalField   uniform (0 0 0);

boundaryField
{
    inlet
    {
        type            fixedValue;
        value           uniform (0 0 0);
    }
    outlet
    {
        type            fixedValue;
        value           uniform (0 0 0);
    }
    mantle
    {
        type            fixedValue;
        value           nonuniform List<vector> 
1568
(
(1.8811e-14 6.9562e-13 -5.5994e-17)
(1.2958e-07 1.9218e-06 -1.4085e-10)
(1.3991e-07 1.876e-06 -3.8112e-07)
(-9.0699e-10 1.1937e-09 -2.7355e-09)
(1.3718e-07 1.735e-06 -7.2178e-07)
(-2.1002e-13 -1.3471e-12 5.4501e-13)
(1.0057e-07 1.523e-06 -1.0142e-06)
(-2.6959e-09 -2.3355e-09 1.066e-09)
(7.3455e-08 1.2752e-06 -1.2755e-06)
(3.2457e-13 2.7819e-12 -2.782e-12)
(1.0066e-07 1.014e-06 -1.5235e-06)
(-2.6971e-09 -1.0632e-09 2.3338e-09)
(1.3737e-07 7.2152e-07 -1.7355e-06)
(-2.0992e-13 -5.4517e-13 1.3471e-12)
(1.4018e-07 3.8087e-07 -1.8766e-06)
(-9.0329e-10 2.7349e-09 -1.1949e-09)
(1.2989e-07 -1.2648e-10 -1.9224e-06)
(1.8929e-14 -4.5237e-17 -6.9584e-13)
(5.7285e-07 4.521e-06 -2.4448e-10)
(5.9491e-07 4.4126e-06 -9.0102e-07)
(5.8722e-07 4.0857e-06 -1.7089e-06)
(5.2172e-07 3.5807e-06 -2.3894e-06)
(4.6529e-07 2.9949e-06 -2.9956e-06)
(5.2188e-07 2.3889e-06 -3.5816e-06)
(5.8752e-07 1.7085e-06 -4.0868e-06)
(5.9534e-07 9.0058e-07 -4.4138e-06)
(5.7335e-07 -2.4159e-10 -4.5222e-06)
(1.3531e-06 7.8911e-06 -2.8514e-10)
(1.3431e-06 7.6979e-06 -1.5713e-06)
(1.3099e-06 7.1216e-06 -2.9891e-06)
(1.2632e-06 6.2523e-06 -4.1843e-06)
(1.2388e-06 5.24e-06 -5.2409e-06)
(1.2634e-06 4.1836e-06 -6.2535e-06)
(1.3102e-06 2.9886e-06 -7.1232e-06)
(1.3435e-06 1.5708e-06 -7.6997e-06)
(1.3535e-06 -3.0695e-10 -7.8929e-06)
(2.0445e-06 1.1888e-05 -2.7697e-10)
(2.0048e-06 1.1587e-05 -2.3343e-06)
(1.9521e-06 1.0695e-05 -4.4743e-06)
(1.9308e-06 9.418e-06 -6.3087e-06)
(1.9403e-06 7.9075e-06 -7.9085e-06)
(1.931e-06 6.308e-06 -9.4195e-06)
(1.9524e-06 4.4738e-06 -1.0697e-05)
(2.005e-06 2.3338e-06 -1.159e-05)
(2.0447e-06 -3.5953e-10 -1.189e-05)
(2.1935e-06 1.5803e-05 -2.5193e-10)
(2.1676e-06 1.5328e-05 -3.024e-06)
(2.1244e-06 1.4106e-05 -5.8341e-06)
(2.0979e-06 1.2456e-05 -8.3358e-06)
(2.0941e-06 1.0529e-05 -1.053e-05)
(2.0979e-06 8.335e-06 -1.2457e-05)
(2.1244e-06 5.8335e-06 -1.4108e-05)
(2.1677e-06 3.0233e-06 -1.5331e-05)
(2.1936e-06 -4.422e-10 -1.5805e-05)
(1.7435e-06 1.7854e-05 -2.0358e-10)
(1.7357e-06 1.7245e-05 -3.3787e-06)
(1.7145e-06 1.5827e-05 -6.5292e-06)
(1.6785e-06 1.3962e-05 -9.3407e-06)
(1.6596e-06 1.1837e-05 -1.1838e-05)
(1.6785e-06 9.3399e-06 -1.3964e-05)
(1.7145e-06 6.5286e-06 -1.5829e-05)
(1.7356e-06 3.378e-06 -1.7247e-05)
(1.7434e-06 -5.2065e-10 -1.7856e-05)
(7.9191e-07 1.6191e-05 -1.5338e-10)
(8.1128e-07 1.5709e-05 -3.1449e-06)
(8.2328e-07 1.4421e-05 -5.9981e-06)
(7.8992e-07 1.2607e-05 -8.4195e-06)
(7.606e-07 1.057e-05 -1.0571e-05)
(7.8982e-07 8.4188e-06 -1.2609e-05)
(8.2311e-07 5.9976e-06 -1.4423e-05)
(8.1107e-07 3.1443e-06 -1.5711e-05)
(7.917e-07 -5.7058e-10 -1.6193e-05)
(-4.9307e-07 1.0476e-05 -1.0869e-10)
(-4.505e-07 1.0189e-05 -2.1247e-06)
(-4.0101e-07 9.3225e-06 -3.9503e-06)
(-4.1866e-07 7.9502e-06 -5.2927e-06)
(-4.4839e-07 6.5145e-06 -6.5154e-06)
(-4.1883e-07 5.2921e-06 -7.9516e-06)
(-4.0128e-07 3.9498e-06 -9.3242e-06)
(-4.5081e-07 2.1241e-06 -1.019e-05)
(-4.9336e-07 -5.9627e-10 -1.0477e-05)
(-1.9538e-06 1.0508e-06 -7.0177e-11)
(-1.902e-06 9.39e-07 -2.5019e-07)
(-1.8294e-06 6.3097e-07 -3.0901e-07)
(-1.8147e-06 2.2346e-07 -1.3063e-07)
(-1.8285e-06 1.4496e-08 -1.5237e-08)
(-1.8149e-06 1.3007e-07 -2.2453e-07)
(-1.8298e-06 3.0848e-07 -6.3223e-07)
(-1.9024e-06 2.4957e-07 -9.4014e-07)
(-1.9541e-06 -5.7825e-10 -1.0516e-06)
(-3.5327e-06 -1.1257e-05 -4.6167e-11)
(-3.4749e-06 -1.113e-05 2.1969e-06)
(-3.3803e-06 -1.0681e-05 4.4333e-06)
(-3.3586e-06 -9.8325e-06 6.5973e-06)
(-3.3587e-06 -8.4612e-06 8.4606e-06)
(-3.3589e-06 -6.5979e-06 9.8318e-06)
(-3.3806e-06 -4.434e-06 1.068e-05)
(-3.4753e-06 -2.1976e-06 1.113e-05)
(-3.533e-06 -5.7826e-10 1.1257e-05)
(-5.2513e-06 -2.5268e-05 -6.1097e-10)
(-5.1795e-06 -2.4803e-05 4.9197e-06)
(-5.0796e-06 -2.3444e-05 9.7217e-06)
(-5.0721e-06 -2.1221e-05 1.4214e-05)
(-5.0979e-06 -1.8125e-05 1.8123e-05)
(-5.0723e-06 -1.4215e-05 2.1221e-05)
(-5.08e-06 -9.7226e-06 2.3444e-05)
(-5.1799e-06 -4.9204e-06 2.4803e-05)
(-5.2516e-06 -4.4354e-11 2.5268e-05)
(-7.2412e-06 -3.9435e-05 -1.7229e-10)
(-7.1614e-06 -3.8611e-05 7.639e-06)
(-7.061e-06 -3.6333e-05 1.5044e-05)
(-7.0788e-06 -3.2747e-05 2.1919e-05)
(-7.1259e-06 -2.7929e-05 2.7928e-05)
(-7.079e-06 -2.192e-05 3.2747e-05)
(-7.0613e-06 -1.5045e-05 3.6333e-05)
(-7.1617e-06 -7.6399e-06 3.8611e-05)
(-7.2414e-06 -5.5204e-10 3.9435e-05)
(-9.6825e-06 -5.2542e-05 -2.6084e-10)
(-9.6376e-06 -5.1461e-05 1.0194e-05)
(-9.573e-06 -4.8376e-05 2.0021e-05)
(-9.565e-06 -4.3524e-05 2.9103e-05)
(-9.5799e-06 -3.7048e-05 3.7048e-05)
(-9.5651e-06 -2.9104e-05 4.3524e-05)
(-9.5732e-06 -2.0022e-05 4.8376e-05)
(-9.6377e-06 -1.0195e-05 5.1462e-05)
(-9.6826e-06 -5.5262e-10 5.2543e-05)
(-1.2863e-05 -6.444e-05 -4.1402e-10)
(-1.285e-05 -6.3105e-05 1.252e-05)
(-1.281e-05 -5.9287e-05 2.455e-05)
(-1.2782e-05 -5.3306e-05 3.5642e-05)
(-1.2763e-05 -4.5349e-05 4.5349e-05)
(-1.2782e-05 -3.5643e-05 5.3306e-05)
(-1.281e-05 -2.4551e-05 5.9288e-05)
(-1.285e-05 -1.2521e-05 6.3106e-05)
(-1.2863e-05 -4.9521e-10 6.4441e-05)
(-1.692e-05 -7.5421e-05 -1.4286e-10)
(-1.6882e-05 -7.3871e-05 1.4683e-05)
(-1.6827e-05 -6.9396e-05 2.8769e-05)
(-1.6824e-05 -6.2344e-05 4.1701e-05)
(-1.6837e-05 -5.3014e-05 5.3013e-05)
(-1.6823e-05 -4.1702e-05 6.2344e-05)
(-1.6827e-05 -2.8771e-05 6.9397e-05)
(-1.6881e-05 -1.4684e-05 7.3871e-05)
(-1.6919e-05 -8.5524e-10 7.5421e-05)
(-2.1547e-05 -8.5948e-05 -5.2001e-10)
(-2.1482e-05 -8.4186e-05 1.6739e-05)
(-2.1408e-05 -7.9054e-05 3.2788e-05)
(-2.1436e-05 -7.1005e-05 4.75e-05)
(-2.1482e-05 -6.0356e-05 6.0355e-05)
(-2.1436e-05 -4.7502e-05 7.1005e-05)
(-2.1407e-05 -3.279e-05 7.9054e-05)
(-2.1481e-05 -1.674e-05 8.4187e-05)
(-2.1546e-05 -5.6325e-10 8.5948e-05)
(-2.6317e-05 -9.5966e-05 -2.5289e-10)
(-2.6257e-05 -9.3935e-05 1.8633e-05)
(-2.6191e-05 -8.8163e-05 3.6525e-05)
(-2.6218e-05 -7.9193e-05 5.2976e-05)
(-2.6261e-05 -6.7363e-05 6.7362e-05)
(-2.6218e-05 -5.2978e-05 7.9192e-05)
(-2.6191e-05 -3.6526e-05 8.8163e-05)
(-2.6257e-05 -1.8635e-05 9.3935e-05)
(-2.6317e-05 -9.9099e-10 9.5965e-05)
(-3.097e-05 -0.00010418 -6.0771e-10)
(-3.0921e-05 -0.00010191 2.0183e-05)
(-3.0867e-05 -9.5606e-05 3.9582e-05)
(-3.0895e-05 -8.5891e-05 5.7461e-05)
(-3.0927e-05 -7.3107e-05 7.3106e-05)
(-3.0895e-05 -5.7462e-05 8.589e-05)
(-3.0867e-05 -3.9584e-05 9.5604e-05)
(-3.0921e-05 -2.0184e-05 0.00010191)
(-3.097e-05 -7.1126e-10 0.00010418)
(-3.5386e-05 -0.0001091 -3.1282e-10)
(-3.5361e-05 -0.00010679 2.1186e-05)
(-3.5338e-05 -0.00010023 4.1524e-05)
(-3.5358e-05 -9.0008e-05 6.0207e-05)
(-3.5382e-05 -7.6551e-05 7.6549e-05)
(-3.5358e-05 -6.0208e-05 9.0006e-05)
(-3.5337e-05 -4.1526e-05 0.00010023)
(-3.5361e-05 -2.1187e-05 0.00010679)
(-3.5386e-05 -9.3385e-10 0.0001091)
(-3.9727e-05 -0.00011049 -3.9895e-10)
(-3.973e-05 -0.0001082 2.1511e-05)
(-3.9739e-05 -0.00010161 4.2135e-05)
(-3.976e-05 -9.1225e-05 6.1014e-05)
(-3.9771e-05 -7.7541e-05 7.7539e-05)
(-3.976e-05 -6.1016e-05 9.1224e-05)
(-3.9739e-05 -4.2136e-05 0.00010161)
(-3.973e-05 -2.1512e-05 0.0001082)
(-3.9727e-05 -6.7764e-10 0.00011049)
(-4.4179e-05 -0.00010859 -1.361e-10)
(-4.4186e-05 -0.00010636 2.1137e-05)
(-4.4213e-05 -9.9915e-05 4.1409e-05)
(-4.4245e-05 -8.9741e-05 6.0011e-05)
(-4.4262e-05 -7.6294e-05 7.6293e-05)
(-4.4245e-05 -6.0012e-05 8.974e-05)
(-4.4214e-05 -4.141e-05 9.9914e-05)
(-4.4187e-05 -2.1137e-05 0.00010636)
(-4.4179e-05 -7.3292e-10 0.00010859)
(-4.8709e-05 -0.00010401 -9.389e-11)
(-4.8727e-05 -0.00010186 2.0217e-05)
(-4.8757e-05 -9.5714e-05 3.9643e-05)
(-4.8798e-05 -8.6027e-05 5.7523e-05)
(-4.881e-05 -7.3178e-05 7.3177e-05)
(-4.8799e-05 -5.7524e-05 8.6026e-05)
(-4.8757e-05 -3.9644e-05 9.5713e-05)
(-4.8727e-05 -2.0218e-05 0.00010186)
(-4.8709e-05 -5.5222e-10 0.000104)
(-5.3164e-05 -9.7481e-05 -2.8203e-12)
(-5.3184e-05 -9.5488e-05 1.8942e-05)
(-5.3223e-05 -8.9753e-05 3.7173e-05)
(-5.3241e-05 -8.0718e-05 5.3986e-05)
(-5.3245e-05 -6.8687e-05 6.8687e-05)
(-5.3241e-05 -5.3986e-05 8.0717e-05)
(-5.3223e-05 -3.7173e-05 8.9753e-05)
(-5.3185e-05 -1.8942e-05 9.5487e-05)
(-5.3165e-05 -3.9796e-10 9.7481e-05)
(-5.7299e-05 -9.0053e-05 1.4186e-10)
(-5.7327e-05 -8.8213e-05 1.7496e-05)
(-5.7372e-05 -8.292e-05 3.4355e-05)
(-5.7368e-05 -7.4626e-05 4.9933e-05)
(-5.7356e-05 -6.3535e-05 6.3535e-05)
(-5.7368e-05 -4.9933e-05 7.4626e-05)
(-5.7372e-05 -3.4355e-05 8.2919e-05)
(-5.7328e-05 -1.7496e-05 8.8212e-05)
(-5.73e-05 -2.8018e-10 9.0052e-05)
(-6.0914e-05 -8.2414e-05 4.3108e-10)
(-6.0928e-05 -8.0731e-05 1.6006e-05)
(-6.0956e-05 -7.5915e-05 3.1454e-05)
(-6.0965e-05 -6.8343e-05 4.5739e-05)
(-6.0967e-05 -5.8208e-05 5.8208e-05)
(-6.0965e-05 -4.5738e-05 6.8343e-05)
(-6.0957e-05 -3.1453e-05 7.5915e-05)
(-6.0929e-05 -1.6006e-05 8.0731e-05)
(-6.0915e-05 -2.8693e-10 8.2414e-05)
(-6.3877e-05 -7.4651e-05 4.2432e-10)
(-6.3884e-05 -7.3113e-05 1.4482e-05)
(-6.3903e-05 -6.8764e-05 2.849e-05)
(-6.392e-05 -6.1929e-05 4.1454e-05)
(-6.3931e-05 -5.2775e-05 5.2776e-05)
(-6.3921e-05 -4.1453e-05 6.193e-05)
(-6.3904e-05 -2.8489e-05 6.8764e-05)
(-6.3885e-05 -1.4482e-05 7.3113e-05)
(-6.3878e-05 1.3474e-11 7.4651e-05)
(-6.6154e-05 -6.6592e-05 5.98e-10)
(-6.6169e-05 -6.5235e-05 1.2916e-05)
(-6.6195e-05 -6.1366e-05 2.5412e-05)
(-6.6198e-05 -5.53e-05 3.7013e-05)
(-6.6196e-05 -4.7131e-05 4.7132e-05)
(-6.6198e-05 -3.7012e-05 5.53e-05)
(-6.6195e-05 -2.5411e-05 6.1367e-05)
(-6.617e-05 -1.2915e-05 6.5236e-05)
(-6.6155e-05 1.4908e-10 6.6593e-05)
(-6.7804e-05 -5.8448e-05 7.4945e-10)
(-6.7834e-05 -5.7247e-05 1.1324e-05)
(-6.787e-05 -5.3855e-05 2.2299e-05)
(-6.7853e-05 -4.8566e-05 3.2516e-05)
(-6.783e-05 -4.1422e-05 4.1423e-05)
(-6.7853e-05 -3.2515e-05 4.8567e-05)
(-6.7871e-05 -2.2297e-05 5.3856e-05)
(-6.7834e-05 -1.1323e-05 5.7248e-05)
(-6.7805e-05 2.3145e-10 5.8448e-05)
(-6.8902e-05 -5.0475e-05 9.1142e-10)
(-6.8915e-05 -4.9474e-05 9.8032e-06)
(-6.8936e-05 -4.6593e-05 1.93e-05)
(-6.893e-05 -4.2016e-05 2.8123e-05)
(-6.8924e-05 -3.5817e-05 3.5818e-05)
(-6.8931e-05 -2.8121e-05 4.2018e-05)
(-6.8936e-05 -1.9298e-05 4.6594e-05)
(-6.8916e-05 -9.8018e-06 4.9475e-05)
(-6.8903e-05 2.7342e-10 5.0476e-05)
(-6.943e-05 -4.3028e-05 1.0394e-09)
(-6.9434e-05 -4.2201e-05 8.3725e-06)
(-6.9439e-05 -3.977e-05 1.6478e-05)
(-6.9447e-05 -3.5885e-05 2.401e-05)
(-6.9449e-05 -3.0576e-05 3.0577e-05)
(-6.9447e-05 -2.4009e-05 3.5886e-05)
(-6.944e-05 -1.6476e-05 3.9771e-05)
(-6.9434e-05 -8.371e-06 4.2202e-05)
(-6.9431e-05 2.9432e-10 4.3028e-05)
(-6.9361e-05 -3.6351e-05 1.2781e-10)
(-6.9366e-05 -3.5639e-05 7.0587e-06)
(-6.9376e-05 -3.3589e-05 1.3908e-05)
(-6.9373e-05 -3.0331e-05 2.03e-05)
(-6.9371e-05 -2.5871e-05 2.5874e-05)
(-6.9373e-05 -2.0298e-05 3.0332e-05)
(-6.9377e-05 -1.3907e-05 3.359e-05)
(-6.9367e-05 -7.0571e-06 3.564e-05)
(-6.9362e-05 1.2984e-09 3.6352e-05)
(-6.8701e-05 -3.0439e-05 1.2417e-09)
(-6.8715e-05 -2.981e-05 5.8789e-06)
(-6.8732e-05 -2.8071e-05 1.1613e-05)
(-6.8715e-05 -2.5386e-05 1.7008e-05)
(-6.87e-05 -2.1702e-05 2.1704e-05)
(-6.8715e-05 -1.7007e-05 2.5388e-05)
(-6.8732e-05 -1.1611e-05 2.8072e-05)
(-6.8716e-05 -5.8772e-06 2.9811e-05)
(-6.8702e-05 2.1273e-10 3.0439e-05)
(-6.748e-05 -2.521e-05 1.3218e-09)
(-6.7483e-05 -2.4712e-05 4.8841e-06)
(-6.7487e-05 -2.33e-05 9.6462e-06)
(-6.7477e-05 -2.1067e-05 1.411e-05)
(-6.7471e-05 -1.7995e-05 1.7996e-05)
(-6.7477e-05 -1.4109e-05 2.1068e-05)
(-6.7487e-05 -9.6445e-06 2.3301e-05)
(-6.7483e-05 -4.8825e-06 2.4712e-05)
(-6.748e-05 8.2071e-11 2.521e-05)
(-6.5728e-05 -2.0664e-05 1.2602e-09)
(-6.5727e-05 -2.028e-05 4.0235e-06)
(-6.5722e-05 -1.9142e-05 7.9326e-06)
(-6.5718e-05 -1.7308e-05 1.1585e-05)
(-6.5715e-05 -1.4764e-05 1.4766e-05)
(-6.5718e-05 -1.1583e-05 1.7309e-05)
(-6.5722e-05 -7.931e-06 1.9143e-05)
(-6.5727e-05 -4.022e-06 2.028e-05)
(-6.5728e-05 3.106e-11 2.0664e-05)
(-6.3489e-05 -1.6773e-05 1.2741e-09)
(-6.3487e-05 -1.6461e-05 3.2671e-06)
(-6.3485e-05 -1.5546e-05 6.4392e-06)
(-6.3478e-05 -1.4059e-05 9.4049e-06)
(-6.3477e-05 -1.1993e-05 1.1995e-05)
(-6.3478e-05 -9.4035e-06 1.406e-05)
(-6.3485e-05 -6.4378e-06 1.5547e-05)
(-6.3487e-05 -3.2657e-06 1.6462e-05)
(-6.3489e-05 -1.4999e-10 1.6773e-05)
(-6.0802e-05 -1.3292e-05 1.0981e-09)
(-6.0807e-05 -1.3028e-05 2.5722e-06)
(-6.0813e-05 -1.2296e-05 5.0854e-06)
(-6.0799e-05 -1.113e-05 7.4525e-06)
(-6.0792e-05 -9.5163e-06 9.5174e-06)
(-6.0799e-05 -7.4514e-06 1.1131e-05)
(-6.0813e-05 -5.0841e-06 1.2296e-05)
(-6.0807e-05 -2.5711e-06 1.3029e-05)
(-6.0802e-05 -1.8237e-10 1.3292e-05)
(-5.7719e-05 -1.0076e-05 7.1596e-10)
(-5.7719e-05 -9.8848e-06 1.9559e-06)
(-5.772e-05 -9.339e-06 3.8646e-06)
(-5.7712e-05 -8.4595e-06 5.6611e-06)
(-5.7709e-05 -7.2289e-06 7.2294e-06)
(-5.7712e-05 -5.6602e-06 8.4601e-06)
(-5.772e-05 -3.8637e-06 9.3394e-06)
(-5.7719e-05 -1.9551e-06 9.885e-06)
(-5.7719e-05 -4.1186e-11 1.0076e-05)
(-5.4306e-05 -7.1058e-06 7.6515e-10)
(-5.431e-05 -6.9765e-06 1.3865e-06)
(-5.4305e-05 -6.5973e-06 2.7372e-06)
(-5.4306e-05 -5.9968e-06 4.0077e-06)
(-5.4297e-05 -5.12e-06 5.1205e-06)
(-5.4306e-05 -4.0071e-06 5.9972e-06)
(-5.4305e-05 -2.7366e-06 6.5975e-06)
(-5.431e-05 -1.386e-06 6.9765e-06)
(-5.4306e-05 -3.6185e-10 7.1056e-06)
(-5.0593e-05 -4.41e-06 1.2186e-09)
(-5.0603e-05 -4.325e-06 8.3552e-07)
(-5.0612e-05 -4.0791e-06 1.6876e-06)
(-5.0598e-05 -3.721e-06 2.5142e-06)
(-5.0587e-05 -3.2058e-06 3.2051e-06)
(-5.0598e-05 -2.514e-06 3.7212e-06)
(-5.0612e-05 -1.6873e-06 4.0791e-06)
(-5.0602e-05 -8.3531e-07 4.3249e-06)
(-5.0593e-05 -1.109e-09 4.4098e-06)
(-4.6674e-05 -2.0675e-06 3.2237e-10)
(-4.668e-05 -1.9796e-06 3.2948e-07)
(-4.668e-05 -1.8003e-06 7.3941e-07)
(-4.6676e-05 -1.6996e-06 1.2049e-06)
(-4.6669e-05 -1.541e-06 1.5409e-06)
(-4.6676e-05 -1.205e-06 1.6995e-06)
(-4.6679e-05 -7.395e-07 1.8002e-06)
(-4.668e-05 -3.296e-07 1.9794e-06)
(-4.6674e-05 -5.025e-10 2.0673e-06)
(-4.2602e-05 -1.173e-08 1.044e-10)
(-4.2546e-05 1.9079e-07 -1.6552e-07)
(-4.249e-05 3.8054e-07 -1.5957e-07)
(-4.254e-05 1.968e-07 1.7234e-08)
(-4.2593e-05 -7.5021e-08 7.4662e-08)
(-4.254e-05 -1.7614e-08 -1.9713e-07)
(-4.249e-05 1.5917e-07 -3.8084e-07)
(-4.2545e-05 1.6509e-07 -1.9104e-07)
(-4.2601e-05 -5.3925e-10 1.1546e-08)
(-3.8208e-05 2.3683e-06 -6.9697e-11)
(-3.8088e-05 2.6555e-06 -6.5792e-07)
(-3.7989e-05 2.7603e-06 -1.1406e-06)
(-3.808e-05 2.3026e-06 -1.3806e-06)
(-3.8196e-05 1.6218e-06 -1.6224e-06)
(-3.808e-05 1.38e-06 -2.303e-06)
(-3.7989e-05 1.14e-06 -2.7607e-06)
(-3.8088e-05 6.5727e-07 -2.6558e-06)
(-3.8208e-05 -5.4341e-10 -2.3684e-06)
(-3.364e-05 4.7266e-06 -1.7468e-10)
(-3.3618e-05 4.6335e-06 -9.5693e-07)
(-3.3581e-05 4.3919e-06 -1.8152e-06)
(-3.3609e-05 3.9268e-06 -2.5776e-06)
(-3.3626e-05 3.3074e-06 -3.308e-06)
(-3.3609e-05 2.5769e-06 -3.9273e-06)
(-3.3581e-05 1.8144e-06 -4.3923e-06)
(-3.3618e-05 9.5617e-07 -4.6338e-06)
(-3.364e-05 -5.1303e-10 -4.7267e-06)
(-3.0029e-05 3.3218e-06 -2.4545e-10)
(-3.0084e-05 2.9826e-06 -5.9727e-07)
(-3.0053e-05 2.7501e-06 -1.1395e-06)
(-3.0076e-05 2.517e-06 -1.6776e-06)
(-3.0017e-05 2.3316e-06 -2.3322e-06)
(-3.0076e-05 1.6769e-06 -2.5175e-06)
(-3.0053e-05 1.1387e-06 -2.7505e-06)
(-3.0084e-05 5.9646e-07 -2.9828e-06)
(-3.0029e-05 -4.6122e-10 -3.3218e-06)
(-2.742e-05 -3.5538e-06 -2.9606e-10)
(-2.7234e-05 -3.1728e-06 4.2618e-07)
(-2.7057e-05 -2.6264e-06 1.0849e-06)
(-2.7228e-05 -2.5505e-06 1.941e-06)
(-2.7411e-05 -2.5171e-06 2.5164e-06)
(-2.7228e-05 -1.9418e-06 2.5499e-06)
(-2.7057e-05 -1.0858e-06 2.6261e-06)
(-2.7234e-05 -4.2697e-07 3.1727e-06)
(-2.742e-05 -4.052e-10 3.5538e-06)
(-2.2604e-05 -9.2357e-06 -2.8183e-10)
(-2.2183e-05 -8.145e-06 1.239e-06)
(-2.1859e-05 -6.889e-06 2.85e-06)
(-2.218e-05 -6.6361e-06 4.8777e-06)
(-2.2599e-05 -6.5279e-06 6.5273e-06)
(-2.218e-05 -4.8784e-06 6.6356e-06)
(-2.1859e-05 -2.8506e-06 6.8887e-06)
(-2.2184e-05 -1.2396e-06 8.1449e-06)
(-2.2604e-05 -3.123e-10 9.2357e-06)
(-1.2871e-05 -7.1049e-06 -1.6495e-10)
(-1.2686e-05 -6.5389e-06 1.0462e-06)
(-1.2503e-05 -5.6911e-06 2.3552e-06)
(-1.2685e-05 -5.3629e-06 3.8799e-06)
(-1.2869e-05 -5.0213e-06 5.021e-06)
(-1.2685e-05 -3.8803e-06 5.3626e-06)
(-1.2503e-05 -2.3556e-06 5.6909e-06)
(-1.2686e-05 -1.0466e-06 6.5388e-06)
(-1.2871e-05 -1.5868e-10 7.105e-06)
(-5.138e-12 -2.8841e-12 -6.3547e-17)
(-2.0805e-08 -5.4785e-08 -4.2782e-08)
(-6.1109e-12 -5.6399e-12 2.1462e-12)
(-2.0755e-08 -8.449e-09 6.8895e-08)
(-3.655e-12 1.3546e-12 -1.3548e-12)
(-2.0755e-08 -6.8897e-08 8.4464e-09)
(-6.1109e-12 -2.1463e-12 5.6398e-12)
(-2.0806e-08 4.2781e-08 5.4787e-08)
(-5.138e-12 -5.4705e-17 2.8841e-12)
(1.4018e-07 -3.8109e-07 -1.8764e-06)
(-9.0388e-10 -2.737e-09 -1.1935e-09)
(1.3739e-07 -7.2168e-07 -1.7353e-06)
(-2.0989e-13 5.4516e-13 1.347e-12)
(1.0071e-07 -1.014e-06 -1.5232e-06)
(-2.6971e-09 1.0638e-09 2.3348e-09)
(7.3537e-08 -1.2752e-06 -1.2752e-06)
(3.2458e-13 -2.7818e-12 -2.7817e-12)
(1.0069e-07 -1.5229e-06 -1.0139e-06)
(-2.6965e-09 2.3331e-09 1.0667e-09)
(1.3735e-07 -1.7348e-06 -7.2147e-07)
(-2.0992e-13 1.347e-12 5.4502e-13)
(1.4012e-07 -1.8757e-06 -3.8087e-07)
(-9.0511e-10 -1.1881e-09 -2.7337e-09)
(1.2984e-07 -1.9216e-06 4.8242e-11)
(1.8915e-14 -6.9558e-13 1.8539e-17)
(5.9534e-07 -9.0101e-07 -4.4135e-06)
(5.8755e-07 -1.7088e-06 -4.0863e-06)
(5.2195e-07 -2.389e-06 -3.5809e-06)
(4.6542e-07 -2.9949e-06 -2.9949e-06)
(5.2191e-07 -3.5804e-06 -2.3887e-06)
(5.8748e-07 -4.0853e-06 -1.7083e-06)
(5.9525e-07 -4.4121e-06 -9.0053e-07)
(5.7325e-07 -4.5206e-06 9.4933e-11)
(1.3435e-06 -1.5714e-06 -7.6993e-06)
(1.3102e-06 -2.989e-06 -7.1225e-06)
(1.2634e-06 -4.1838e-06 -6.2526e-06)
(1.239e-06 -5.2399e-06 -5.2399e-06)
(1.2634e-06 -6.2519e-06 -4.1833e-06)
(1.3101e-06 -7.121e-06 -2.9882e-06)
(1.3434e-06 -7.6972e-06 -1.5706e-06)
(1.3534e-06 -7.8905e-06 1.3889e-10)
(2.005e-06 -2.3344e-06 -1.1589e-05)
(1.9524e-06 -4.4742e-06 -1.0696e-05)
(1.9311e-06 -6.3082e-06 -9.4183e-06)
(1.9405e-06 -7.9073e-06 -7.9072e-06)
(1.9311e-06 -9.4175e-06 -6.3075e-06)
(1.9524e-06 -1.0694e-05 -4.4732e-06)
(2.0051e-06 -1.1587e-05 -2.3335e-06)
(2.0448e-06 -1.1887e-05 1.887e-10)
(2.1677e-06 -3.0241e-06 -1.533e-05)
(2.1245e-06 -5.834e-06 -1.4107e-05)
(2.0981e-06 -8.3351e-06 -1.2456e-05)
(2.0943e-06 -1.0528e-05 -1.0528e-05)
(2.0982e-06 -1.2455e-05 -8.3344e-06)
(2.1247e-06 -1.4105e-05 -5.8329e-06)
(2.168e-06 -1.5328e-05 -3.0231e-06)
(2.1939e-06 -1.5802e-05 2.45e-10)
(1.7357e-06 -3.3789e-06 -1.7246e-05)
(1.7146e-06 -6.5292e-06 -1.5828e-05)
(1.6787e-06 -9.3402e-06 -1.3962e-05)
(1.6599e-06 -1.1837e-05 -1.1837e-05)
(1.6789e-06 -1.3962e-05 -9.3394e-06)
(1.715e-06 -1.5826e-05 -6.5281e-06)
(1.7362e-06 -1.7245e-05 -3.3779e-06)
(1.7439e-06 -1.7854e-05 3.0325e-10)
(8.1121e-07 -3.1453e-06 -1.571e-05)
(8.2337e-07 -5.9983e-06 -1.4422e-05)
(7.9018e-07 -8.4193e-06 -1.2608e-05)
(7.6105e-07 -1.057e-05 -1.057e-05)
(7.9043e-07 -1.2608e-05 -8.4184e-06)
(8.2384e-07 -1.4421e-05 -5.9972e-06)
(8.1182e-07 -1.5709e-05 -3.1442e-06)
(7.9238e-07 -1.6191e-05 3.3291e-10)
(-4.5063e-07 -2.1251e-06 -1.019e-05)
(-4.0094e-07 -3.9507e-06 -9.3232e-06)
(-4.1837e-07 -5.2928e-06 -7.9506e-06)
(-4.4786e-07 -6.5151e-06 -6.5145e-06)
(-4.1809e-07 -7.9508e-06 -5.2919e-06)
(-4.0042e-07 -9.3231e-06 -3.9496e-06)
(-4.4995e-07 -1.0189e-05 -2.1241e-06)
(-4.926e-07 -1.0477e-05 3.2741e-10)
(-1.9022e-06 -2.507e-07 -9.3977e-07)
(-1.8294e-06 -3.0952e-07 -6.3163e-07)
(-1.8144e-06 -1.3105e-07 -2.2391e-07)
(-1.828e-06 -1.547e-08 -1.4688e-08)
(-1.8142e-06 -2.2445e-07 -1.3014e-07)
(-1.8289e-06 -6.3193e-07 -3.0854e-07)
(-1.9016e-06 -9.3982e-07 -2.4974e-07)
(-1.9534e-06 -1.0515e-06 2.6861e-10)
(-3.475e-06 2.1964e-06 1.113e-05)
(-3.3802e-06 4.4328e-06 1.068e-05)
(-3.3584e-06 6.5967e-06 9.8321e-06)
(-3.3582e-06 8.46e-06 8.4608e-06)
(-3.3582e-06 9.8314e-06 6.5976e-06)
(-3.3799e-06 1.068e-05 4.4337e-06)
(-3.4745e-06 1.1129e-05 2.1973e-06)
(-3.5324e-06 1.1256e-05 2.0848e-10)
(-5.1797e-06 4.9193e-06 2.4802e-05)
(-5.0796e-06 9.7213e-06 2.3444e-05)
(-5.0719e-06 1.4213e-05 2.1221e-05)
(-5.0975e-06 1.8123e-05 1.8123e-05)
(-5.0718e-06 2.122e-05 1.4214e-05)
(-5.0794e-06 2.3443e-05 9.7221e-06)
(-5.1793e-06 2.4802e-05 4.92e-06)
(-5.2512e-06 2.5267e-05 6.3763e-10)
(-7.1615e-06 7.6388e-06 3.8611e-05)
(-7.061e-06 1.5043e-05 3.6333e-05)
(-7.0786e-06 2.1919e-05 3.2747e-05)
(-7.1256e-06 2.7927e-05 2.7928e-05)
(-7.0786e-06 3.2746e-05 2.1919e-05)
(-7.0609e-06 3.6332e-05 1.5044e-05)
(-7.1613e-06 3.861e-05 7.6393e-06)
(-7.2412e-06 3.9434e-05 -2.0321e-11)
(-9.6375e-06 1.0194e-05 5.1462e-05)
(-9.5728e-06 2.0021e-05 4.8376e-05)
(-9.5648e-06 2.9103e-05 4.3524e-05)
(-9.5796e-06 3.7047e-05 3.7048e-05)
(-9.5648e-06 4.3523e-05 2.9103e-05)
(-9.5728e-06 4.8375e-05 2.0021e-05)
(-9.6374e-06 5.1461e-05 1.0194e-05)
(-9.6824e-06 5.2542e-05 -1.4565e-10)
(-1.285e-05 1.252e-05 6.3105e-05)
(-1.2809e-05 2.455e-05 5.9287e-05)
(-1.2782e-05 3.5642e-05 5.3305e-05)
(-1.2762e-05 4.5348e-05 4.5349e-05)
(-1.2782e-05 5.3305e-05 3.5642e-05)
(-1.2809e-05 5.9287e-05 2.455e-05)
(-1.285e-05 6.3105e-05 1.252e-05)
(-1.2862e-05 6.444e-05 -3.6287e-10)
(-1.6881e-05 1.4683e-05 7.3871e-05)
(-1.6827e-05 2.8769e-05 6.9396e-05)
(-1.6823e-05 4.17e-05 6.2344e-05)
(-1.6837e-05 5.3013e-05 5.3013e-05)
(-1.6823e-05 6.2344e-05 4.1701e-05)
(-1.6827e-05 6.9396e-05 2.8769e-05)
(-1.6881e-05 7.387e-05 1.4683e-05)
(-1.6919e-05 7.542e-05 -1.9321e-10)
(-2.1481e-05 1.6739e-05 8.4186e-05)
(-2.1407e-05 3.2788e-05 7.9053e-05)
(-2.1435e-05 4.75e-05 7.1004e-05)
(-2.1482e-05 6.0354e-05 6.0355e-05)
(-2.1435e-05 7.1004e-05 4.75e-05)
(-2.1407e-05 7.9053e-05 3.2788e-05)
(-2.1481e-05 8.4185e-05 1.6739e-05)
(-2.1546e-05 8.5946e-05 -6.9002e-10)
(-2.6257e-05 1.8633e-05 9.3934e-05)
(-2.6191e-05 3.6524e-05 8.8162e-05)
(-2.6218e-05 5.2976e-05 7.9191e-05)
(-2.6261e-05 6.7361e-05 6.7362e-05)
(-2.6217e-05 7.9191e-05 5.2976e-05)
(-2.6191e-05 8.8161e-05 3.6524e-05)
(-2.6257e-05 9.3933e-05 1.8633e-05)
(-2.6317e-05 9.5963e-05 -4.826e-10)
(-3.0921e-05 2.0183e-05 0.00010191)
(-3.0867e-05 3.9582e-05 9.5604e-05)
(-3.0895e-05 5.7461e-05 8.589e-05)
(-3.0927e-05 7.3106e-05 7.3106e-05)
(-3.0895e-05 8.5889e-05 5.746e-05)
(-3.0867e-05 9.5603e-05 3.9582e-05)
(-3.0921e-05 0.00010191 2.0182e-05)
(-3.097e-05 0.00010418 -8.899e-10)
(-3.5361e-05 2.1185e-05 0.00010679)
(-3.5338e-05 4.1524e-05 0.00010023)
(-3.5358e-05 6.0207e-05 9.0006e-05)
(-3.5382e-05 7.655e-05 7.6549e-05)
(-3.5358e-05 9.0006e-05 6.0206e-05)
(-3.5338e-05 0.00010023 4.1524e-05)
(-3.5361e-05 0.00010679 2.1185e-05)
(-3.5386e-05 0.0001091 -6.3489e-10)
(-3.973e-05 2.151e-05 0.0001082)
(-3.9739e-05 4.2135e-05 0.00010161)
(-3.976e-05 6.1014e-05 9.1224e-05)
(-3.9771e-05 7.7539e-05 7.7539e-05)
(-3.9761e-05 9.1224e-05 6.1014e-05)
(-3.9739e-05 0.00010161 4.2134e-05)
(-3.973e-05 0.0001082 2.151e-05)
(-3.9727e-05 0.00011049 -7.2459e-10)
(-4.4187e-05 2.1136e-05 0.00010636)
(-4.4214e-05 4.1409e-05 9.9914e-05)
(-4.4245e-05 6.0011e-05 8.9741e-05)
(-4.4263e-05 7.6293e-05 7.6293e-05)
(-4.4245e-05 8.9741e-05 6.001e-05)
(-4.4214e-05 9.9914e-05 4.1409e-05)
(-4.4187e-05 0.00010636 2.1136e-05)
(-4.4179e-05 0.00010859 -4.975e-10)
(-4.8728e-05 2.0217e-05 0.00010186)
(-4.8758e-05 3.9643e-05 9.5713e-05)
(-4.8799e-05 5.7523e-05 8.6027e-05)
(-4.881e-05 7.3177e-05 7.3177e-05)
(-4.8799e-05 8.6027e-05 5.7523e-05)
(-4.8758e-05 9.5713e-05 3.9643e-05)
(-4.8728e-05 0.00010186 2.0217e-05)
(-4.8709e-05 0.00010401 -4.4447e-10)
(-5.3185e-05 1.8941e-05 9.5487e-05)
(-5.3223e-05 3.7172e-05 8.9753e-05)
(-5.3242e-05 5.3986e-05 8.0718e-05)
(-5.3246e-05 6.8687e-05 6.8687e-05)
(-5.3242e-05 8.0718e-05 5.3986e-05)
(-5.3223e-05 8.9753e-05 3.7173e-05)
(-5.3185e-05 9.5488e-05 1.8941e-05)
(-5.3165e-05 9.7481e-05 -2.3607e-10)
(-5.7328e-05 1.7495e-05 8.8212e-05)
(-5.7373e-05 3.4355e-05 8.292e-05)
(-5.7369e-05 4.9933e-05 7.4626e-05)
(-5.7356e-05 6.3535e-05 6.3535e-05)
(-5.7368e-05 7.4626e-05 4.9933e-05)
(-5.7372e-05 8.292e-05 3.4355e-05)
(-5.7328e-05 8.8213e-05 1.7496e-05)
(-5.73e-05 9.0053e-05 -6.9786e-11)
(-6.0929e-05 1.6006e-05 8.0731e-05)
(-6.0957e-05 3.1453e-05 7.5915e-05)
(-6.0966e-05 4.5739e-05 6.8343e-05)
(-6.0967e-05 5.8208e-05 5.8209e-05)
(-6.0965e-05 6.8343e-05 4.5739e-05)
(-6.0957e-05 7.5915e-05 3.1454e-05)
(-6.0928e-05 8.0731e-05 1.6006e-05)
(-6.0915e-05 8.2415e-05 2.9258e-10)
(-6.3885e-05 1.4482e-05 7.3113e-05)
(-6.3904e-05 2.849e-05 6.8765e-05)
(-6.3921e-05 4.1453e-05 6.193e-05)
(-6.3932e-05 5.2775e-05 5.2776e-05)
(-6.3921e-05 6.193e-05 4.1454e-05)
(-6.3904e-05 6.8765e-05 2.849e-05)
(-6.3885e-05 7.3114e-05 1.4482e-05)
(-6.3878e-05 7.4651e-05 3.3641e-10)
(-6.617e-05 1.2915e-05 6.5236e-05)
(-6.6196e-05 2.5411e-05 6.1367e-05)
(-6.6199e-05 3.7013e-05 5.5301e-05)
(-6.6196e-05 4.7132e-05 4.7132e-05)
(-6.6199e-05 5.53e-05 3.7013e-05)
(-6.6195e-05 6.1367e-05 2.5412e-05)
(-6.617e-05 6.5236e-05 1.2916e-05)
(-6.6155e-05 6.6593e-05 5.081e-10)
(-6.7835e-05 1.1323e-05 5.7248e-05)
(-6.7871e-05 2.2298e-05 5.3857e-05)
(-6.7853e-05 3.2516e-05 4.8567e-05)
(-6.7831e-05 4.1423e-05 4.1423e-05)
(-6.7853e-05 4.8567e-05 3.2516e-05)
(-6.7871e-05 5.3857e-05 2.2299e-05)
(-6.7834e-05 5.7248e-05 1.1324e-05)
(-6.7805e-05 5.8449e-05 6.8427e-10)
(-6.8916e-05 9.8025e-06 4.9475e-05)
(-6.8936e-05 1.9299e-05 4.6594e-05)
(-6.8931e-05 2.8122e-05 4.2018e-05)
(-6.8924e-05 3.5818e-05 3.5819e-05)
(-6.8931e-05 4.2018e-05 2.8123e-05)
(-6.8936e-05 4.6594e-05 1.93e-05)
(-6.8916e-05 4.9475e-05 9.8033e-06)
(-6.8903e-05 5.0476e-05 8.314e-10)
(-6.9434e-05 8.3716e-06 4.2202e-05)
(-6.944e-05 1.6477e-05 3.9771e-05)
(-6.9448e-05 2.401e-05 3.5887e-05)
(-6.9449e-05 3.0577e-05 3.0578e-05)
(-6.9448e-05 3.5886e-05 2.4011e-05)
(-6.944e-05 3.9771e-05 1.6478e-05)
(-6.9434e-05 4.2203e-05 8.3727e-06)
(-6.943e-05 4.3029e-05 9.8649e-10)
(-6.9367e-05 7.0577e-06 3.5641e-05)
(-6.9377e-05 1.3908e-05 3.359e-05)
(-6.9373e-05 2.0299e-05 3.0333e-05)
(-6.9371e-05 2.5874e-05 2.5874e-05)
(-6.9373e-05 3.0332e-05 2.0301e-05)
(-6.9377e-05 3.359e-05 1.3909e-05)
(-6.9367e-05 3.5641e-05 7.0589e-06)
(-6.9361e-05 3.6353e-05 2.1306e-09)
(-6.8716e-05 5.8777e-06 2.9811e-05)
(-6.8732e-05 1.1612e-05 2.8073e-05)
(-6.8715e-05 1.7007e-05 2.5388e-05)
(-6.87e-05 2.1703e-05 2.1704e-05)
(-6.8715e-05 2.5387e-05 1.7009e-05)
(-6.8732e-05 2.8072e-05 1.1613e-05)
(-6.8715e-05 2.9811e-05 5.879e-06)
(-6.8702e-05 3.044e-05 1.1774e-09)
(-6.7483e-05 4.8828e-06 2.4713e-05)
(-6.7487e-05 9.6449e-06 2.3301e-05)
(-6.7477e-05 1.4109e-05 2.1069e-05)
(-6.7471e-05 1.7995e-05 1.7997e-05)
(-6.7477e-05 2.1068e-05 1.4111e-05)
(-6.7487e-05 2.3301e-05 9.6465e-06)
(-6.7483e-05 2.4713e-05 4.8842e-06)
(-6.748e-05 2.5211e-05 1.2681e-09)
(-6.5727e-05 4.022e-06 2.0281e-05)
(-6.5722e-05 7.9311e-06 1.9144e-05)
(-6.5718e-05 1.1584e-05 1.731e-05)
(-6.5715e-05 1.4765e-05 1.4766e-05)
(-6.5718e-05 1.7309e-05 1.1585e-05)
(-6.5722e-05 1.9143e-05 7.9328e-06)
(-6.5727e-05 2.0281e-05 4.0235e-06)
(-6.5728e-05 2.0664e-05 1.2139e-09)
(-6.3487e-05 3.2656e-06 1.6462e-05)
(-6.3485e-05 6.4377e-06 1.5547e-05)
(-6.3478e-05 9.4034e-06 1.406e-05)
(-6.3477e-05 1.1993e-05 1.1995e-05)
(-6.3478e-05 1.4059e-05 9.4051e-06)
(-6.3485e-05 1.5546e-05 6.4393e-06)
(-6.3487e-05 1.6462e-05 3.2671e-06)
(-6.3489e-05 1.6773e-05 1.0813e-09)
(-6.0807e-05 2.5707e-06 1.3029e-05)
(-6.0813e-05 5.0838e-06 1.2296e-05)
(-6.0799e-05 7.4511e-06 1.1131e-05)
(-6.0791e-05 9.5161e-06 9.5175e-06)
(-6.0799e-05 1.113e-05 7.4527e-06)
(-6.0813e-05 1.2296e-05 5.0854e-06)
(-6.0807e-05 1.3028e-05 2.5722e-06)
(-6.0802e-05 1.3292e-05 1.0482e-09)
(-5.7719e-05 1.9545e-06 9.885e-06)
(-5.772e-05 3.8631e-06 9.3394e-06)
(-5.7712e-05 5.6598e-06 8.4602e-06)
(-5.7709e-05 7.2285e-06 7.2294e-06)
(-5.7712e-05 8.4591e-06 5.6612e-06)
(-5.772e-05 9.3386e-06 3.8646e-06)
(-5.7719e-05 9.8845e-06 1.9559e-06)
(-5.7719e-05 1.0076e-05 1.1349e-09)
(-5.431e-05 1.3852e-06 6.9765e-06)
(-5.4305e-05 2.7359e-06 6.5975e-06)
(-5.4306e-05 4.0064e-06 5.9973e-06)
(-5.4297e-05 5.1194e-06 5.1205e-06)
(-5.4306e-05 5.9963e-06 4.0077e-06)
(-5.4305e-05 6.5968e-06 2.7372e-06)
(-5.431e-05 6.976e-06 1.3865e-06)
(-5.4306e-05 7.1054e-06 7.1487e-10)
(-5.0602e-05 8.3444e-07 4.3249e-06)
(-5.0612e-05 1.6865e-06 4.0792e-06)
(-5.0598e-05 2.5132e-06 3.7212e-06)
(-5.0586e-05 3.2051e-06 3.2051e-06)
(-5.0598e-05 3.7203e-06 2.5143e-06)
(-5.0612e-05 4.0785e-06 1.6876e-06)
(-5.0603e-05 4.3244e-06 8.3552e-07)
(-5.0593e-05 4.4094e-06 1.1739e-09)
(-4.668e-05 3.2862e-07 1.9794e-06)
(-4.6679e-05 7.3857e-07 1.8003e-06)
(-4.6676e-05 1.2041e-06 1.6996e-06)
(-4.6669e-05 1.5402e-06 1.5411e-06)
(-4.6676e-05 1.6989e-06 1.205e-06)
(-4.6679e-05 1.7996e-06 7.395e-07)
(-4.668e-05 1.979e-06 3.2951e-07)
(-4.6674e-05 2.0669e-06 2.8761e-10)
(-4.2545e-05 -1.6614e-07 -1.9093e-07)
(-4.249e-05 -1.6015e-07 -3.8064e-07)
(-4.254e-05 1.6731e-08 -1.9689e-07)
(-4.2593e-05 7.4235e-08 7.4908e-08)
(-4.254e-05 -1.975e-07 1.7454e-08)
(-4.249e-05 -3.8116e-07 -1.5941e-07)
(-4.2546e-05 -1.9135e-07 -1.6544e-07)
(-4.2602e-05 1.1199e-08 7.9856e-11)
(-3.8088e-05 -6.5832e-07 -2.6556e-06)
(-3.7989e-05 -1.1409e-06 -2.7604e-06)
(-3.808e-05 -1.3809e-06 -2.3027e-06)
(-3.8196e-05 -1.6225e-06 -1.622e-06)
(-3.808e-05 -2.3031e-06 -1.3803e-06)
(-3.7989e-05 -2.7608e-06 -1.1404e-06)
(-3.8088e-05 -2.6559e-06 -6.578e-07)
(-3.8208e-05 -2.3686e-06 -8.576e-11)
(-3.3618e-05 -9.5716e-07 -4.6336e-06)
(-3.3581e-05 -1.8153e-06 -4.392e-06)
(-3.3609e-05 -2.5776e-06 -3.9269e-06)
(-3.3626e-05 -3.308e-06 -3.3076e-06)
(-3.3609e-05 -3.9272e-06 -2.5773e-06)
(-3.3581e-05 -4.3922e-06 -1.8149e-06)
(-3.3618e-05 -4.6338e-06 -9.5678e-07)
(-3.364e-05 -4.7268e-06 -1.8614e-10)