/*--------------------------------*- C++ -*----------------------------------*\
| =========                 |                                                 |
| \\      /  F ield         | OpenFOAM: The Open Source CFD Toolbox           |
|  \\    /   O peration     | Version:  4.1                                   |
|   \\  /    A nd           | Web:      www.OpenFOAM.org                      |
|    \\/     M anipulation  |                                                 |
\*---------------------------------------------------------------------------*/
FoamFile
{
    version     2.0;
    format      ascii;
    class       surfaceVectorField;
    location    "0.0056";
    object      Uf;
}
// * * * * * * * * * * * * * * * * * * * * * * * * * * * * * * * * * * * * * //

dimensions      [0 1 -1 0 0 0 0];

internalField   nonuniform List<vector> 
17536
(
(0.01943 4.0121e-05 9.4694e-07)
(0.019356 -2.1693e-05 -3.3596e-05)
(0.019356 -2.1762e-05 3.4617e-05)
(0.01937 -4.1166e-05 3.7635e-05)
(0.01937 -4.1284e-05 -3.6754e-05)
(0.019559 -1.5948e-05 1.8941e-06)
(0.019497 -4.0471e-05 -6.6008e-05)
(0.019497 -4.0695e-05 6.9005e-05)
(0.019481 -7.5234e-05 7.2635e-05)
(0.019481 -7.5526e-05 -6.9944e-05)
(0.019774 -0.00024017 2.594e-06)
(0.019699 -0.00016052 -6.0171e-05)
(0.0197 -0.00016099 6.553e-05)
(0.019634 -0.00021693 7.3899e-05)
(0.019634 -0.00021655 -6.8344e-05)
(0.02004 -0.00058114 3.0177e-06)
(0.019953 -0.00033803 2.9174e-05)
(0.019954 -0.00033892 -2.2238e-05)
(0.019854 -0.00039594 -5.9578e-07)
(0.019854 -0.00039592 6.9162e-06)
(0.0205 -0.00096315 3.4777e-06)
(0.020306 -0.00060162 0.00010019)
(0.020306 -0.00060267 -9.1671e-05)
(0.020194 -0.00068428 -3.6902e-05)
(0.020194 -0.00068416 4.4766e-05)
(0.021189 -0.0013641 3.7498e-06)
(0.020874 -0.00089826 0.00016109)
(0.020874 -0.00089931 -0.00015187)
(0.020757 -0.0010103 -5.7379e-05)
(0.020757 -0.00101 6.6339e-05)
(0.02218 -0.0018261 3.7176e-06)
(0.02172 -0.0012379 0.00021533)
(0.02172 -0.0012393 -0.00020598)
(0.021585 -0.0013966 -6.7722e-05)
(0.021585 -0.0013959 7.6743e-05)
(0.023586 -0.0024441 3.5518e-06)
(0.022932 -0.0016766 0.00025944)
(0.022932 -0.0016776 -0.00025068)
(0.02275 -0.0019157 -6.8266e-05)
(0.02275 -0.0019147 7.7271e-05)
(0.025553 -0.003309 3.3596e-06)
(0.024637 -0.0023065 0.00029432)
(0.024637 -0.0023076 -0.00028602)
(0.024383 -0.0026798 -6.9068e-05)
(0.024383 -0.0026786 7.7798e-05)
(0.028296 -0.0044409 3.2434e-06)
(0.027013 -0.0031662 0.0003434)
(0.027013 -0.0031673 -0.00033545)
(0.02668 -0.0037332 -7.9222e-05)
(0.02668 -0.0037319 8.7706e-05)
(0.032018 -0.0057956 3.1329e-06)
(0.030263 -0.0042357 0.0004125)
(0.030263 -0.0042368 -0.00040481)
(0.029866 -0.005047 -9.8345e-05)
(0.029866 -0.0050455 0.00010679)
(0.036859 -0.0073038 3.0003e-06)
(0.034554 -0.0054612 0.00049739)
(0.034554 -0.0054623 -0.00048991)
(0.034117 -0.0065486 -0.00012253)
(0.034117 -0.0065468 0.00013094)
(0.042895 -0.0089109 2.7929e-06)
(0.039997 -0.0067873 0.00059144)
(0.039997 -0.0067884 -0.0005843)
(0.039537 -0.008166 -0.00014784)
(0.039537 -0.0081648 0.00015539)
(0.050179 -0.010594 2.5282e-06)
(0.046658 -0.0081847 0.00068856)
(0.046658 -0.0081857 -0.00068191)
(0.046184 -0.0098667 -0.0001726)
(0.046184 -0.0098668 0.00017837)
(0.05877 -0.012342 2.2287e-06)
(0.054593 -0.0096492 0.00078215)
(0.054592 -0.0096502 -0.00077608)
(0.054114 -0.011656 -0.00019418)
(0.054113 -0.011656 0.00019952)
(0.068735 -0.014124 1.9015e-06)
(0.063864 -0.011173 0.00086572)
(0.063863 -0.011174 -0.00086037)
(0.063393 -0.013533 -0.00021423)
(0.063393 -0.013534 0.00021758)
(0.080111 -0.015859 1.5665e-06)
(0.074517 -0.012716 0.0009287)
(0.074517 -0.012717 -0.00092418)
(0.074086 -0.015458 -0.0002281)
(0.074086 -0.015459 0.000231)
(0.092856 -0.017421 1.1425e-06)
(0.086546 -0.014195 0.00095762)
(0.086545 -0.014195 -0.00095404)
(0.086201 -0.017333 -0.0002317)
(0.086201 -0.017334 0.00023402)
(0.10682 -0.018652 5.7111e-07)
(0.09985 -0.015489 0.0009364)
(0.099849 -0.015489 -0.00093405)
(0.099648 -0.01901 -0.00021767)
(0.099648 -0.019011 0.00021899)
(0.12171 -0.019405 -6.1407e-08)
(0.11421 -0.016469 0.00085153)
(0.11421 -0.016469 -0.00085063)
(0.11421 -0.020331 -0.00017955)
(0.11421 -0.020331 0.00017998)
(0.13715 -0.019563 -7.0529e-07)
(0.1293 -0.017019 0.00069629)
(0.1293 -0.017019 -0.00069681)
(0.12955 -0.021149 -0.00011556)
(0.12955 -0.021149 0.00011447)
(0.15268 -0.019056 -1.391e-06)
(0.1447 -0.017055 0.00047018)
(0.1447 -0.017055 -0.00047224)
(0.14523 -0.021359 -2.6672e-05)
(0.14523 -0.02136 2.3384e-05)
(0.1678 -0.017843 -2.0915e-06)
(0.15994 -0.016528 0.00017885)
(0.15993 -0.016528 -0.00018253)
(0.16076 -0.020901 7.9382e-05)
(0.16076 -0.020903 -8.5203e-05)
(0.182 -0.015849 -2.5177e-06)
(0.1745 -0.015398 -0.0001764)
(0.1745 -0.015398 0.00017126)
(0.17566 -0.01974 0.00019244)
(0.17566 -0.019746 -0.00020325)
(0.19472 -0.012884 -2.3639e-06)
(0.18786 -0.013566 -0.00060203)
(0.18786 -0.013565 0.00059604)
(0.18941 -0.017773 0.00031209)
(0.18941 -0.017775 -0.00031935)
(0.20513 -0.0086831 -1.8308e-06)
(0.19933 -0.010824 -0.0011065)
(0.19933 -0.010824 0.0011015)
(0.20134 -0.014709 0.00044097)
(0.20134 -0.01471 -0.00044725)
(0.21215 -0.003315 -1.3785e-06)
(0.20798 -0.0069944 -0.0016711)
(0.20798 -0.0069942 0.0016675)
(0.21042 -0.010221 0.00062902)
(0.21042 -0.010221 -0.00063247)
(0.21552 0.0023608 -1.0981e-06)
(0.21316 -0.0023412 -0.0020761)
(0.21316 -0.0023414 0.0020737)
(0.21574 -0.0045052 0.00097519)
(0.21574 -0.0045036 -0.00097695)
(0.21495 0.008223 -1.1159e-06)
(0.2145 0.0029943 -0.0013149)
(0.21449 0.002992 0.0013147)
(0.21714 0.0023593 0.00051498)
(0.21714 0.0023576 -0.00052)
(0.20885 0.014459 -1.1597e-06)
(0.21115 0.0082615 -0.001548)
(0.21114 0.0082614 0.0015452)
(0.21388 0.0092257 0.00063771)
(0.21388 0.009225 -0.0006419)
(0.19783 0.020151 -7.5844e-07)
(0.20271 0.013538 -0.0018062)
(0.20271 0.013538 0.0018047)
(0.20523 0.015889 0.00076873)
(0.20523 0.01589 -0.0007712)
(0.18267 0.02466 -2.6273e-07)
(0.18981 0.01803 -0.0018826)
(0.18981 0.018031 0.001882)
(0.19189 0.021563 0.0007553)
(0.19189 0.021563 -0.00075663)
(0.16434 0.028017 9.6764e-08)
(0.17324 0.021551 -0.0018053)
(0.17324 0.021551 0.0018055)
(0.17488 0.026043 0.00066695)
(0.17488 0.026043 -0.00066788)
(0.14359 0.030443 4.0548e-07)
(0.15386 0.024213 -0.0016406)
(0.15385 0.024213 0.0016411)
(0.15511 0.029482 0.00055181)
(0.15511 0.029483 -0.00055145)
(0.12093 0.032049 5.8401e-07)
(0.13229 0.026187 -0.001425)
(0.13229 0.026189 0.0014257)
(0.13319 0.032126 0.00043489)
(0.13319 0.032126 -0.00043512)
(0.096807 0.032644 4.9491e-07)
(0.10904 0.027475 -0.0011314)
(0.10904 0.027477 0.0011318)
(0.10953 0.034007 0.00031034)
(0.10953 0.034009 -0.000308)
(0.071955 0.031779 3.1805e-07)
(0.084726 0.027808 -0.00069057)
(0.084726 0.027809 0.00069145)
(0.084687 0.034813 0.00014283)
(0.084687 0.034813 -0.00014291)
(0.04765 0.028996 2.9099e-07)
(0.060345 0.026762 -4.658e-05)
(0.060345 0.026764 4.6592e-05)
(0.059663 0.033992 -8.579e-05)
(0.059663 0.033995 8.8563e-05)
(0.025609 0.024106 3.2359e-07)
(0.037341 0.024013 0.00079771)
(0.037341 0.024015 -0.0007977)
(0.035982 0.031087 -0.00038098)
(0.035982 0.031088 0.00038223)
(0.0077056 0.017346 5.4931e-07)
(0.017382 0.019539 0.0017529)
(0.017382 0.019541 -0.0017526)
(0.015431 0.025981 -0.00070303)
(0.015432 0.025982 0.00070389)
(-0.0040825 0.009688 8.1948e-07)
(0.0017489 0.013763 0.0026798)
(0.0017494 0.013765 -0.0026788)
(-0.00049436 0.018947 -0.0010362)
(-0.00049417 0.018948 0.001039)
(-0.011469 0.0030566 9.0277e-07)
(-0.0086926 0.0076706 0.0031252)
(-0.0086922 0.0076727 -0.0031238)
(-0.010628 0.011411 -0.0015958)
(-0.010628 0.011411 0.0015977)
(-0.016215 -0.0011564 8.0258e-07)
(-0.014707 0.0028151 0.0026429)
(-0.014707 0.0028172 -0.0026412)
(-0.015862 0.0049826 -0.0018883)
(-0.015862 0.0049847 0.0018927)
(-0.016315 -0.0033326 1.7248e-07)
(-0.01695 -0.00086222 0.0012584)
(-0.01695 -0.00085969 -0.0012584)
(-0.017342 -0.00037842 -0.00080051)
(-0.017343 -0.00037589 0.00080406)
(-0.01329 -0.0045665 -1.0038e-07)
(-0.015631 -0.002808 0.00055519)
(-0.015631 -0.0028062 -0.00055572)
(-0.01542 -0.0033506 -0.00019076)
(-0.015421 -0.0033478 0.00019313)
(-0.0095243 -0.0055924 1.4667e-07)
(-0.012581 -0.0037625 0.00049785)
(-0.012581 -0.0037619 -0.00049674)
(-0.01178 -0.0046584 -0.00026523)
(-0.01178 -0.0046567 0.00026723)
(-0.005369 -0.0054834 2.0232e-08)
(-0.0089914 -0.0048384 0.00043857)
(-0.0089917 -0.004838 -0.00043818)
(-0.0077692 -0.0058399 -0.00019584)
(-0.0077691 -0.0058391 0.00019693)
(-0.0035143 -0.0040357 0.00038884)
(-0.0035142 -0.0040357 -0.00038899)
(-0.0023478 -0.0047062 -9.8501e-05)
(-0.0023477 -0.0047058 9.8504e-05)
(0.019464 -6.5583e-05 -6.3801e-05)
(0.019391 -2.9629e-05 -1.89e-05)
(0.019404 -5.9194e-05 -1.2156e-05)
(0.019408 -7.2881e-05 4.8678e-06)
(0.019577 -0.00013022 -7.3217e-05)
(0.019519 -6.3343e-05 -3.6929e-05)
(0.019523 -0.0001242 -2.6149e-05)
(0.019508 -0.00014907 9.7376e-06)
(0.01978 -0.00023248 -7.6033e-06)
(0.019711 -0.00014408 -1.259e-05)
(0.019709 -0.00019964 -9.1624e-06)
(0.019659 -0.00023092 1.7125e-05)
(0.020066 -0.00039058 9.4313e-05)
(0.019971 -0.00026815 7.0586e-05)
(0.019968 -0.00026983 2.5488e-05)
(0.019889 -0.00031421 4.0453e-05)
(0.020554 -0.00061169 0.00018286)
(0.020345 -0.00045528 0.00015787)
(0.020346 -0.00041684 6.3986e-05)
(0.020255 -0.00048774 8.0395e-05)
(0.02128 -0.0008916 0.00025319)
(0.020934 -0.00068412 0.00024256)
(0.020948 -0.0006191 9.2113e-05)
(0.020847 -0.00072517 0.00012408)
(0.022309 -0.0012504 0.000309)
(0.021807 -0.00096322 0.00032839)
(0.021831 -0.00088725 0.00010927)
(0.021712 -0.0010473 0.00017619)
(0.023762 -0.0017277 0.00036139)
(0.023054 -0.0013229 0.00041884)
(0.02308 -0.0012541 0.00012603)
(0.022927 -0.0014959 0.0002399)
(0.025781 -0.0023669 0.00043084)
(0.024802 -0.0018104 0.0005293)
(0.024831 -0.0017592 0.00015694)
(0.024625 -0.0021005 0.00029357)
(0.028574 -0.0031833 0.00052997)
(0.027221 -0.0024637 0.00068023)
(0.027257 -0.0024246 0.00020259)
(0.02699 -0.0029031 0.00035825)
(0.032334 -0.0041525 0.00065493)
(0.030506 -0.0032722 0.0008734)
(0.03055 -0.0032418 0.00026113)
(0.030232 -0.003894 0.00043937)
(0.037198 -0.0052327 0.00079704)
(0.034823 -0.0041997 0.0010985)
(0.034874 -0.004176 0.00032894)
(0.03452 -0.0050273 0.00053535)
(0.04325 -0.0063891 0.00094804)
(0.040281 -0.0052076 0.0013435)
(0.04034 -0.0051906 0.00040245)
(0.039964 -0.0062561 0.00064315)
(0.050546 -0.0076059 0.0011011)
(0.046953 -0.0062727 0.0016002)
(0.047018 -0.006265 0.00047978)
(0.04663 -0.0075551 0.0007583)
(0.059147 -0.0088744 0.0012495)
(0.054897 -0.0073884 0.001863)
(0.05497 -0.0073955 0.00055964)
(0.054575 -0.0089232 0.00087571)
(0.069109 -0.010171 0.0013841)
(0.064169 -0.0085441 0.0021257)
(0.064252 -0.0085747 0.00064052)
(0.063863 -0.010355 0.00098886)
(0.080457 -0.011442 0.001491)
(0.074809 -0.009707 0.0023757)
(0.074901 -0.0097729 0.00071923)
(0.074542 -0.011815 0.001089)
(0.093141 -0.012601 0.0015518)
(0.086799 -0.010813 0.002592)
(0.086902 -0.01093 0.00079055)
(0.086608 -0.01323 0.0011664)
(0.107 -0.013542 0.0015478)
(0.10003 -0.011771 0.0027482)
(0.10015 -0.011961 0.00084754)
(0.099962 -0.014493 0.0012105)
(0.12176 -0.014163 0.0014654)
(0.1143 -0.012486 0.0028178)
(0.11442 -0.012772 0.00088305)
(0.11438 -0.015485 0.0012115)
(0.13703 -0.014378 0.0012984)
(0.12926 -0.01287 0.0027809)
(0.1294 -0.013273 0.00089093)
(0.12954 -0.016099 0.0011623)
(0.15238 -0.014134 0.0010456)
(0.14451 -0.012863 0.0026263)
(0.14467 -0.013399 0.00086626)
(0.14502 -0.016252 0.0010581)
(0.1673 -0.01339 0.00070267)
(0.15958 -0.012424 0.0023501)
(0.15977 -0.013104 0.00080397)
(0.16033 -0.015896 0.00089222)
(0.18129 -0.012092 0.00025589)
(0.17397 -0.011516 0.0019457)
(0.17418 -0.01235 0.00069635)
(0.17499 -0.014994 0.00065109)
(0.19375 -0.010127 -0.00031395)
(0.18713 -0.010062 0.0013948)
(0.18737 -0.011064 0.00053172)
(0.18846 -0.013461 0.00031681)
(0.20391 -0.0073901 -0.0010125)
(0.19837 -0.007932 0.00067119)
(0.19864 -0.0091166 0.00029624)
(0.20004 -0.011122 -0.00011248)
(0.2108 -0.0040418 -0.0017456)
(0.20683 -0.0050627 -0.0002069)
(0.20715 -0.0064326 -2.6143e-05)
(0.20878 -0.0078463 -0.00058363)
(0.21406 -0.00046663 -0.0021348)
(0.21183 -0.0017479 -0.0010132)
(0.21227 -0.0032184 -0.00043082)
(0.21388 -0.0039617 -0.00082801)
(0.21311 0.0035816 -0.0023066)
(0.21296 0.0017778 -0.0012819)
(0.21338 0.00066383 -0.0009416)
(0.21507 0.00029033 -0.00072465)
(0.207 0.0080322 -0.0026542)
(0.20955 0.0056707 -0.0021867)
(0.20981 0.0049248 -0.0011618)
(0.21168 0.0055701 -0.0010795)
(0.19619 0.012108 -0.0029913)
(0.20126 0.0096283 -0.0030437)
(0.20145 0.0089703 -0.0014149)
(0.20319 0.010527 -0.0014099)
(0.18131 0.015454 -0.0031499)
(0.18856 0.012998 -0.0036918)
(0.18871 0.012517 -0.0016274)
(0.19018 0.014819 -0.001676)
(0.16326 0.018034 -0.0031555)
(0.17223 0.015639 -0.0041068)
(0.17235 0.01539 -0.0017813)
(0.17352 0.018245 -0.0018383)
(0.14276 0.019963 -0.0030578)
(0.15307 0.017633 -0.0043428)
(0.15314 0.017634 -0.0018818)
(0.15407 0.020906 -0.0019228)
(0.12034 0.021305 -0.0028651)
(0.13171 0.019096 -0.0044473)
(0.13174 0.019347 -0.0019372)
(0.13244 0.022956 -0.0019429)
(0.096508 0.021933 -0.0025281)
(0.10869 0.020013 -0.0044019)
(0.10869 0.020527 -0.0019427)
(0.1091 0.024401 -0.0018786)
(0.072041 0.021553 -0.0019745)
(0.084654 0.020179 -0.0041215)
(0.084643 0.02099 -0.0018778)
(0.084662 0.024997 -0.0016844)
(0.048179 0.019871 -0.0011537)
(0.06062 0.019284 -0.0035143)
(0.060614 0.020439 -0.0017152)
(0.060147 0.024347 -0.0013147)
(0.026552 0.016809 -8.0305e-05)
(0.037981 0.017111 -0.0025434)
(0.037982 0.018654 -0.0014237)
(0.037017 0.022147 -0.00074604)
(0.0088727 0.012679 0.0011634)
(0.018308 0.01372 -0.0012755)
(0.018299 0.015652 -0.00098597)
(0.016956 0.018409 -2.4767e-05)
(-0.0033385 0.0082516 0.0023186)
(0.0027958 0.0095636 0.00011282)
(0.0027428 0.011846 -0.00039141)
(0.001338 0.013557 0.00074965)
(-0.010728 0.0045775 0.0029211)
(-0.007728 0.0054372 0.0011644)
(-0.0078801 0.0078355 0.00030848)
(-0.0088687 0.0087873 0.001021)
(-0.015078 0.0017757 0.002569)
(-0.013778 0.0024208 0.0014891)
(-0.014064 0.0046382 0.00078832)
(-0.014438 0.0053613 0.00045322)
(-0.015875 -0.00041578 0.001735)
(-0.016154 -0.00010202 0.00096572)
(-0.016438 0.0013474 0.00086393)
(-0.016361 0.0016106 0.00018197)
(-0.013164 -0.0017889 0.0012674)
(-0.015327 -0.0014619 0.00085507)
(-0.015432 -0.00090046 0.00079891)
(-0.015009 -0.0012768 0.00039845)
(-0.0098825 -0.002825 0.0011192)
(-0.012729 -0.0023797 0.00092119)
(-0.012704 -0.0020611 0.00077832)
(-0.011927 -0.0025255 0.00047174)
(-0.0057609 -0.0033605 0.00085778)
(-0.0094093 -0.003321 0.0010197)
(-0.0093556 -0.0030998 0.00070079)
(-0.0083528 -0.0036695 0.00050078)
(-0.0038452 -0.0030774 0.00081281)
(-0.0037351 -0.0028979 0.00033498)
(-0.0027767 -0.0034672 0.00042081)
(0.019474 -4.3095e-05 -7.7105e-06)
(0.019405 -2.2682e-05 -4.1595e-06)
(0.019418 -4.1897e-05 1.4842e-05)
(0.019412 -4.997e-05 2.2542e-05)
(0.019597 -9.5802e-05 5.0778e-06)
(0.019531 -5.0684e-05 -5.9356e-06)
(0.019539 -9.0437e-05 3.3188e-05)
(0.01952 -0.00010494 4.885e-05)
(0.019804 -0.00018802 5.735e-05)
(0.019723 -0.00011415 3.2432e-05)
(0.019729 -0.00015343 5.033e-05)
(0.019686 -0.00017839 7.3397e-05)
(0.020107 -0.00032881 0.00013819)
(0.019989 -0.00021649 0.00011731)
(0.019997 -0.00022168 7.2945e-05)
(0.019931 -0.00026753 0.00011007)
(0.020597 -0.00051575 0.00022952)
(0.020373 -0.0003672 0.00022174)
(0.020388 -0.00035109 0.0001112)
(0.020307 -0.00042887 0.00017408)
(0.02133 -0.00074113 0.00033232)
(0.02097 -0.0005495 0.00033658)
(0.020997 -0.00052099 0.00016892)
(0.020902 -0.00063636 0.0002624)
(0.022382 -0.0010256 0.00044824)
(0.021857 -0.0007728 0.00046271)
(0.021894 -0.00073775 0.0002467)
(0.021779 -0.00090702 0.00038169)
(0.02387 -0.0014056 0.0005867)
(0.023125 -0.00106 0.00060996)
(0.023171 -0.0010357 0.00034968)
(0.023021 -0.0012808 0.00054038)
(0.025927 -0.0019176 0.00076806)
(0.024899 -0.0014464 0.00080329)
(0.024957 -0.00144 0.00047575)
(0.024755 -0.0017786 0.00073002)
(0.028752 -0.0025725 0.0010035)
(0.027343 -0.0019618 0.0010641)
(0.027417 -0.0019695 0.00063605)
(0.027157 -0.0024379 0.00097474)
(0.032536 -0.0033495 0.0012866)
(0.030649 -0.002599 0.0013909)
(0.030738 -0.0026194 0.000834)
(0.030429 -0.0032529 0.0012791)
(0.037415 -0.0042155 0.0016037)
(0.034981 -0.00333 0.0017684)
(0.035082 -0.0033632 0.0010617)
(0.034738 -0.0041858 0.0016293)
(0.043476 -0.0051434 0.0019429)
(0.040449 -0.0041248 0.0021794)
(0.040561 -0.0041726 0.0013102)
(0.040195 -0.0051979 0.0020104)
(0.050779 -0.0061197 0.0022969)
(0.047127 -0.0049654 0.0026127)
(0.047248 -0.0050309 0.001574)
(0.046869 -0.0062687 0.002414)
(0.059382 -0.0071364 0.00266)
(0.055075 -0.0058453 0.0030628)
(0.055207 -0.0059334 0.0018502)
(0.054818 -0.007394 0.002836)
(0.069339 -0.0081743 0.0030219)
(0.064347 -0.0067557 0.0035227)
(0.064489 -0.0068718 0.0021352)
(0.064103 -0.0085668 0.003271)
(0.080666 -0.0091898 0.0033633)
(0.074977 -0.0076697 0.0039756)
(0.075127 -0.0078214 0.00242)
(0.074765 -0.0097569 0.0037051)
(0.093305 -0.010114 0.0036558)
(0.086943 -0.0085367 0.0043924)
(0.087099 -0.0087338 0.0026888)
(0.086792 -0.010903 0.0041134)
(0.10709 -0.010865 0.0038667)
(0.10014 -0.0092861 0.0047345)
(0.10029 -0.0095413 0.0029204)
(0.10008 -0.011915 0.0044626)
(0.12176 -0.01136 0.0039656)
(0.11434 -0.0098419 0.0049612)
(0.11449 -0.010169 0.0030919)
(0.11441 -0.012699 0.0047168)
(0.13692 -0.011533 0.0039299)
(0.12922 -0.010137 0.0050384)
(0.12938 -0.010549 0.0031829)
(0.12946 -0.013167 0.0048442)
(0.15214 -0.011339 0.0037456)
(0.14438 -0.010121 0.0049423)
(0.14453 -0.010628 0.0031783)
(0.1448 -0.013254 0.004821)
(0.16692 -0.01074 0.0034025)
(0.15935 -0.0097622 0.0046586)
(0.1595 -0.010369 0.0030682)
(0.15997 -0.012918 0.0046324)
(0.18075 -0.0096876 0.0028834)
(0.17363 -0.0090302 0.0041724)
(0.17378 -0.0097382 0.0028433)
(0.17447 -0.012125 0.0042643)
(0.19303 -0.0080899 0.0021579)
(0.18666 -0.0078641 0.0034526)
(0.1868 -0.0086737 0.0024864)
(0.18775 -0.010799 0.0036877)
(0.20298 -0.0058676 0.0012146)
(0.19776 -0.0061677 0.0024495)
(0.19788 -0.0070794 0.0019742)
(0.19912 -0.0088062 0.0028589)
(0.20968 -0.0031251 0.00016906)
(0.20607 -0.0039085 0.0011653)
(0.2062 -0.0049089 0.0013138)
(0.20765 -0.0060619 0.0017851)
(0.21264 -4.5646e-05 -0.00070502)
(0.21091 -0.0013338 -0.00018288)
(0.21109 -0.0023082 0.00061778)
(0.21259 -0.0028139 0.00069598)
(0.21166 0.0034141 -0.001618)
(0.21194 0.001357 -0.0013422)
(0.21206 0.00086648 -5.5374e-05)
(0.21369 0.0008069 -0.00024912)
(0.20577 0.0070376 -0.0028082)
(0.20858 0.0045608 -0.0028456)
(0.20859 0.00423 -0.00094355)
(0.21036 0.0051968 -0.0018677)
(0.1951 0.010328 -0.0039382)
(0.20039 0.0076709 -0.0044165)
(0.20037 0.0074648 -0.001939)
(0.20203 0.0092724 -0.0034155)
(0.18041 0.013041 -0.0047933)
(0.1878 0.010321 -0.0056864)
(0.1878 0.010283 -0.002779)
(0.1892 0.012779 -0.0046993)
(0.16254 0.015146 -0.0053881)
(0.17161 0.012395 -0.0066223)
(0.17161 0.012564 -0.0034316)
(0.17274 0.015579 -0.0056843)
(0.14221 0.016722 -0.0057767)
(0.15259 0.01396 -0.0072725)
(0.15257 0.014338 -0.0039231)
(0.15347 0.017744 -0.0064198)
(0.11996 0.017811 -0.005977)
(0.13136 0.0151 -0.0077017)
(0.13133 0.015683 -0.004283)
(0.13201 0.019397 -0.0069573)
(0.096329 0.018316 -0.0059376)
(0.10848 0.0158 -0.0078927)
(0.10846 0.016586 -0.0045049)
(0.10887 0.020531 -0.0072865)
(0.072122 0.018008 -0.005561)
(0.08462 0.015896 -0.0077432)
(0.084637 0.016902 -0.004539)
(0.084687 0.020941 -0.0073199)
(0.048565 0.016661 -0.0047638)
(0.060795 0.015152 -0.0071213)
(0.060882 0.016404 -0.0043162)
(0.060485 0.020315 -0.0069415)
(0.027236 0.014206 -0.0035498)
(0.03838 0.013408 -0.0059507)
(0.038547 0.014928 -0.0037934)
(0.037688 0.018419 -0.0060715)
(0.0097449 0.010877 -0.0020498)
(0.018893 0.010722 -0.0042851)
(0.019109 0.012501 -0.0030076)
(0.017901 0.01528 -0.004751)
(-0.0027203 0.0072239 -0.00056522)
(0.0034816 0.0074691 -0.0023445)
(0.0036858 0.0094428 -0.0020708)
(0.0023912 0.011283 -0.0031667)
(-0.010244 0.0040161 0.00046695)
(-0.0070583 0.0042317 -0.00055598)
(-0.0069638 0.0062179 -0.0011939)
(-0.0079581 0.0072674 -0.0017315)
(-0.014115 0.0014172 0.00075824)
(-0.013109 0.0018861 0.00046384)
(-0.013122 0.0035746 -0.00064343)
(-0.013642 0.0040769 -0.0008996)
(-0.015149 -0.00056447 0.00066834)
(-0.015612 5.2841e-05 0.00086857)
(-0.015631 0.00085486 -0.00038807)
(-0.015744 0.0012636 -0.00065591)
(-0.013138 -0.0018034 0.00075732)
(-0.015133 -0.0011573 0.00096746)
(-0.015101 -0.00094119 5.3184e-06)
(-0.014872 -0.0013489 0.00038391)
(-0.010237 -0.0026761 0.0010208)
(-0.012828 -0.0019814 0.0012751)
(-0.012822 -0.0019055 0.000278)
(-0.01223 -0.0023918 0.00077595)
(-0.0062532 -0.0028912 0.0011215)
(-0.0097081 -0.002692 0.0015585)
(-0.00982 -0.0026181 0.00055905)
(-0.0089248 -0.0032647 0.0011307)
(-0.0041544 -0.0024303 0.0013412)
(-0.0042357 -0.0023411 0.00071393)
(-0.0033714 -0.0028665 0.0011082)
(0.019481 -2.4039e-05 3.8709e-06)
(0.019411 -7.6082e-06 8.406e-06)
(0.019428 -2.993e-05 1.9259e-05)
(0.019424 -3.6105e-05 2.1732e-05)
(0.019606 -6.18e-05 2.8639e-05)
(0.019535 -1.8799e-05 2.107e-05)
(0.019547 -6.5865e-05 4.3251e-05)
(0.019529 -7.7155e-05 4.7185e-05)
(0.019812 -0.00013916 9.586e-05)
(0.019727 -6.8882e-05 7.2262e-05)
(0.019737 -0.00011267 7.7362e-05)
(0.019693 -0.00013566 9.2344e-05)
(0.020122 -0.00025697 0.00019877)
(0.019994 -0.00016266 0.00016644)
(0.020009 -0.00017057 0.000123)
(0.019942 -0.00021414 0.00016138)
(0.020617 -0.0004077 0.00032205)
(0.020381 -0.00028949 0.00029314)
(0.020406 -0.00026966 0.00019719)
(0.020326 -0.00034503 0.00026853)
(0.021359 -0.000588 0.00046012)
(0.020983 -0.00043693 0.0004401)
(0.021022 -0.00040267 0.00029379)
(0.02093 -0.00051847 0.00040498)
(0.022423 -0.00081011 0.00062135)
(0.021874 -0.00060829 0.00061093)
(0.021929 -0.00057628 0.00041735)
(0.021819 -0.0007433 0.00057376)
(0.023926 -0.0010998 0.00082738)
(0.023149 -0.00082048 0.00082318)
(0.023219 -0.00081047 0.00058289)
(0.023076 -0.001044 0.00079558)
(0.026001 -0.0014871 0.0011027)
(0.024932 -0.0011041 0.0011065)
(0.025021 -0.0011187 0.00079715)
(0.024828 -0.0014346 0.0010775)
(0.028843 -0.0019828 0.0014568)
(0.027384 -0.0014834 0.0014855)
(0.027498 -0.0015189 0.0010728)
(0.02725 -0.0019486 0.0014458)
(0.032638 -0.002572 0.0018799)
(0.030698 -0.0019542 0.0019563)
(0.030833 -0.0020107 0.0014129)
(0.030539 -0.0025854 0.0019045)
(0.037525 -0.0032297 0.0023532)
(0.035034 -0.0024956 0.002498)
(0.035187 -0.0025744 0.0018035)
(0.034859 -0.003316 0.0024324)
(0.04359 -0.0039349 0.0028605)
(0.040505 -0.0030848 0.0030877)
(0.040672 -0.0031885 0.0022297)
(0.040323 -0.0041101 0.0030072)
(0.050897 -0.0046765 0.0033926)
(0.047185 -0.0037076 0.0037111)
(0.047365 -0.0038401 0.0026818)
(0.047002 -0.0049506 0.0036155)
(0.059503 -0.0054469 0.0039425)
(0.055135 -0.0043579 0.004362)
(0.055327 -0.0045241 0.0031554)
(0.054956 -0.0058324 0.0042519)
(0.069458 -0.0062299 0.0044968)
(0.064407 -0.0050275 0.0050319)
(0.064609 -0.0052331 0.0036446)
(0.064241 -0.0067478 0.0049087)
(0.080774 -0.0069914 0.0050291)
(0.075034 -0.005695 0.0056995)
(0.075242 -0.0059471 0.0041344)
(0.074898 -0.0076711 0.0055651)
(0.093392 -0.0076785 0.0055001)
(0.086993 -0.0063214 0.0063255)
(0.087199 -0.0066287 0.004598)
(0.086908 -0.0085531 0.0061842)
(0.10715 -0.008228 0.0058633)
(0.10017 -0.0068536 0.0068571)
(0.10037 -0.0072264 0.0049996)
(0.10017 -0.009325 0.0067158)
(0.12176 -0.008578 0.006074)
(0.11435 -0.0072347 0.0072374)
(0.11453 -0.0076836 0.0052998)
(0.11445 -0.009912 0.0071059)
(0.13687 -0.0086782 0.0060966)
(0.12921 -0.0074148 0.007417)
(0.12936 -0.0079488 0.0054632)
(0.12944 -0.010247 0.0073062)
(0.15202 -0.0084934 0.0059069)
(0.14434 -0.0073579 0.0073595)
(0.14446 -0.0079821 0.0054629)
(0.14472 -0.010278 0.0072805)
(0.16673 -0.0079958 0.0054856)
(0.15928 -0.0070404 0.0070417)
(0.15937 -0.0077563 0.0052803)
(0.15982 -0.0099742 0.0070052)
(0.18048 -0.0071456 0.0048041)
(0.17352 -0.0064392 0.0064402)
(0.17357 -0.0072452 0.0048979)
(0.17424 -0.0093051 0.0064585)
(0.19267 -0.0058746 0.0038133)
(0.18651 -0.0055089 0.0055095)
(0.18651 -0.0064031 0.0042846)
(0.18743 -0.0082123 0.005597)
(0.20253 -0.0041301 0.0024807)
(0.19756 -0.0041774 0.0041783)
(0.1975 -0.0051621 0.0033955)
(0.19869 -0.0065935 0.0043459)
(0.20915 -0.0020191 0.00091304)
(0.20583 -0.0024314 0.0024329)
(0.20574 -0.0035026 0.002226)
(0.20713 -0.0044031 0.0026865)
(0.21203 0.00022773 -0.00066035)
(0.21062 -0.00049824 0.00050082)
(0.21055 -0.0015697 0.00090504)
(0.21198 -0.0018816 0.0008529)
(0.21106 0.0026851 -0.0023885)
(0.21163 0.0013896 -0.0013856)
(0.21149 0.00067779 -0.00061551)
(0.21303 0.00085428 -0.001031)
(0.20516 0.0053386 -0.0043108)
(0.20828 0.0036872 -0.0036837)
(0.20802 0.0030845 -0.0022978)
(0.20968 0.004016 -0.0033226)
(0.19455 0.0077876 -0.0060437)
(0.2001 0.0059646 -0.005961)
(0.19983 0.0054987 -0.0039797)
(0.20139 0.0071956 -0.0056195)
(0.17994 0.0097857 -0.0074066)
(0.18755 0.0078685 -0.0078661)
(0.18733 0.007595 -0.0054146)
(0.18864 0.0098966 -0.0075243)
(0.16217 0.011308 -0.0084086)
(0.1714 0.0093245 -0.0093231)
(0.17122 0.0092743 -0.0065419)
(0.17228 0.012031 -0.0089884)
(0.14193 0.01242 -0.0091161)
(0.15242 0.010392 -0.010392)
(0.15227 0.010566 -0.0074033)
(0.15311 0.013657 -0.010085)
(0.11977 0.013154 -0.0095511)
(0.13124 0.011144 -0.011144)
(0.13112 0.011529 -0.0080365)
(0.13174 0.014875 -0.010885)
(0.096241 0.01343 -0.009647)
(0.10841 0.011562 -0.011562)
(0.10833 0.01215 -0.0084323)
(0.10871 0.015674 -0.011377)
(0.072161 0.013074 -0.0092677)
(0.084607 0.011516 -0.011516)
(0.084623 0.012316 -0.0085051)
(0.084654 0.01589 -0.011431)
(0.04875 0.011915 -0.0082884)
(0.060851 0.010826 -0.010827)
(0.061001 0.011857 -0.0081354)
(0.060605 0.015283 -0.010867)
(0.027561 0.0099159 -0.0066883)
(0.038508 0.0093782 -0.0093802)
(0.038805 0.010656 -0.0072439)
(0.037966 0.013678 -0.0095601)
(0.010162 0.0072645 -0.0046245)
(0.019081 0.007227 -0.0072286)
(0.019485 0.0087566 -0.0058693)
(0.018312 0.011115 -0.007548)
(-0.0023533 0.004372 -0.0024377)
(0.0037037 0.0046634 -0.0046641)
(0.0041359 0.0064181 -0.0042152)
(0.0028627 0.0079228 -0.0051024)
(-0.0099522 0.0019385 -0.00072181)
(-0.0068391 0.0021477 -0.002147)
(-0.0065293 0.0039555 -0.0025314)
(-0.0074922 0.0046903 -0.002678)
(-0.01378 0.00023739 0.00028939)
(-0.012912 0.0005142 -0.00051211)
(-0.01275 0.0020979 -0.0013454)
(-0.013213 0.0022861 -0.0011022)
(-0.014966 -0.00083529 0.00087193)
(-0.015495 -0.00056375 0.00056734)
(-0.015428 0.00041163 -0.00031327)
(-0.015472 0.00045068 -6.5978e-05)
(-0.013218 -0.0015093 0.0013105)
(-0.015117 -0.0011403 0.0011437)
(-0.015079 -0.00062337 0.00049474)
(-0.014805 -0.0009955 0.00097471)
(-0.010347 -0.0021108 0.0016989)
(-0.012864 -0.0016766 0.0016799)
(-0.012885 -0.0013277 0.0010016)
(-0.012295 -0.001803 0.0015352)
(-0.0063757 -0.0022962 0.0017133)
(-0.0097866 -0.002131 0.0021327)
(-0.00997 -0.0018905 0.001345)
(-0.0090981 -0.0025167 0.0019625)
(-0.004241 -0.0018772 0.0018781)
(-0.0044242 -0.001835 0.0012086)
(-0.0035392 -0.0023396 0.0016853)
(0.019481 -2.3223e-06 2.567e-05)
(0.019404 4.8953e-06 2.3616e-05)
(0.019428 -1.8493e-05 3.0723e-05)
(0.019424 -2.0901e-05 3.6922e-05)
(0.019605 -2.5773e-05 6.4792e-05)
(0.01953 8.062e-06 5.3347e-05)
(0.019546 -4.0989e-05 6.8127e-05)
(0.019529 -4.4715e-05 7.9421e-05)
(0.019812 -9.2281e-05 0.00014294)
(0.019723 -2.927e-05 0.00011809)
(0.019737 -7.398e-05 0.00011607)
(0.019693 -8.8711e-05 0.00013909)
(0.020122 -0.00019503 0.00026096)
(0.019989 -0.00011371 0.00022057)
(0.020008 -0.00011912 0.00017438)
(0.019942 -0.00015751 0.00021792)
(0.020617 -0.00031849 0.00041141)
(0.020373 -0.00021834 0.00037136)
(0.020407 -0.00019318 0.00027329)
(0.020326 -0.00026432 0.00034866)
(0.021359 -0.00045702 0.00059107)
(0.020971 -0.00033346 0.00055302)
(0.021022 -0.00029003 0.00040588)
(0.02093 -0.00040113 0.00052149)
(0.022423 -0.00061856 0.00081279)
(0.021857 -0.0004599 0.00077562)
(0.021929 -0.00041409 0.00057894)
(0.021819 -0.00057046 0.00074554)
(0.023926 -0.00082479 0.0011022)
(0.023125 -0.00060735 0.0010624)
(0.023219 -0.00058 0.00081312)
(0.023076 -0.00079312 0.0010466)
(0.026001 -0.0011004 0.0014891)
(0.024899 -0.00080102 0.0014482)
(0.025021 -0.0007947 0.0011211)
(0.024828 -0.0010758 0.0014371)
(0.028843 -0.0014548 0.0019846)
(0.027343 -0.0010621 0.0019634)
(0.027498 -0.0010707 0.001521)
(0.02725 -0.0014443 0.0019506)
(0.032638 -0.0018778 0.002574)
(0.030649 -0.001389 0.0026005)
(0.030833 -0.0014107 0.0020127)
(0.030538 -0.001903 0.0025875)
(0.037525 -0.0023506 0.0032321)
(0.034981 -0.0017662 0.0033318)
(0.035187 -0.001801 0.0025767)
(0.034859 -0.0024307 0.0033184)
(0.04359 -0.0028573 0.003938)
(0.040448 -0.0021765 0.0041271)
(0.040672 -0.0022266 0.0031913)
(0.040323 -0.0030048 0.0041128)
(0.050897 -0.0033885 0.0046803)
(0.047126 -0.002609 0.0049686)
(0.047365 -0.0026778 0.0038436)
(0.047002 -0.0036119 0.0049536)
(0.059503 -0.0039378 0.0054514)
(0.055074 -0.0030582 0.0058495)
(0.055326 -0.0031507 0.0045282)
(0.054955 -0.0042473 0.0058359)
(0.069458 -0.0044919 0.0062346)
(0.064347 -0.0035176 0.0067603)
(0.064609 -0.0036394 0.0052377)
(0.064241 -0.0049035 0.0067516)
(0.080774 -0.0050244 0.0069958)
(0.074977 -0.0039705 0.0076742)
(0.075242 -0.0041291 0.0059517)
(0.074898 -0.0055601 0.007675)
(0.093392 -0.0054959 0.0076824)
(0.086944 -0.0043878 0.0085406)
(0.087199 -0.0045931 0.006633)
(0.086908 -0.0061797 0.0085567)
(0.10715 -0.0058598 0.0082311)
(0.10014 -0.0047305 0.0092892)
(0.10037 -0.0049953 0.00723)
(0.10017 -0.0067121 0.009328)
(0.12176 -0.0060713 0.0085804)
(0.11434 -0.0049581 0.0098442)
(0.11453 -0.0052963 0.0076865)
(0.11445 -0.007103 0.0099143)
(0.13687 -0.0060946 0.00868)
(0.12922 -0.005036 0.010138)
(0.12936 -0.0054605 0.0079509)
(0.12944 -0.0073041 0.010248)
(0.15202 -0.0059053 0.0084946)
(0.14438 -0.0049405 0.010122)
(0.14446 -0.0054608 0.0079838)
(0.14472 -0.0072792 0.01028)
(0.16673 -0.0054844 0.0079967)
(0.15935 -0.0046571 0.0097628)
(0.15937 -0.0052788 0.0077576)
(0.15982 -0.0070044 0.0099752)
(0.18048 -0.0048033 0.0071462)
(0.17363 -0.0041713 0.0090303)
(0.17357 -0.0048968 0.0072461)
(0.17424 -0.0064583 0.0093059)
(0.19267 -0.0038127 0.0058753)
(0.18666 -0.0034523 0.007864)
(0.18651 -0.004284 0.0064036)
(0.18743 -0.0055971 0.0082131)