/*--------------------------------*- C++ -*----------------------------------*\
  =========                 |
  \\      /  F ield         | OpenFOAM: The Open Source CFD Toolbox
   \\    /   O peration     | Website:  https://openfoam.org
    \\  /    A nd           | Version:  8
     \\/     M anipulation  |
\*---------------------------------------------------------------------------*/
FoamFile
{
    version     2.0;
    format      ascii;
    class       volVectorField;
    location    "0.0290000";
    object      U_0;
}
// * * * * * * * * * * * * * * * * * * * * * * * * * * * * * * * * * * * * * //

dimensions      [0 1 -1 0 0 0 0];

internalField   nonuniform List<vector> 
600
(
(0.649748626447618 0.000609412401246447 -2.58698581509868e-18)
(0.650890240162322 0.000388510186472735 4.7481517147289e-18)
(0.651100768457424 0.000319097336204525 1.91556231366609e-19)
(0.651311636533527 0.000355957998597084 7.79070570380198e-19)
(0.651396447300469 0.000379415230716317 3.51670488341477e-18)
(0.651402028284435 0.000391508413935178 3.26151369219311e-18)
(0.651379904669947 0.000398584129408289 3.31939033659144e-17)
(0.651350420077004 0.000402963995670131 1.37460609338412e-17)
(0.65131920951905 0.000406600864098507 -6.908953694192e-18)
(0.651289179965916 0.000410484597281104 -3.23626960422305e-17)
(0.651260466925092 0.000413909841157529 -3.19411324652204e-17)
(0.651231419283483 0.000416891581919717 -3.73218946948873e-17)
(0.65120194825136 0.000420008597351596 -2.4941426458872e-17)
(0.65117298934915 0.000423347673382237 -2.20690584546483e-17)
(0.651144076676005 0.000426121534484689 -2.40036079116395e-17)
(0.651114187018772 0.000428735902703262 -4.29329007299705e-17)
(0.6510841193395 0.000431682462373374 -3.16554959905182e-17)
(0.651054465114999 0.000434481258707504 -3.25514225805621e-17)
(0.651024367419824 0.00043688873827762 -7.8346704803847e-17)
(0.650993258724093 0.000439441321976373 -3.34792308146092e-17)
(0.650962478320752 0.000442501133027489 -3.25845143257432e-17)
(0.650932096253797 0.000445004185886455 1.1326435983699e-17)
(0.650900838051878 0.000447356590223939 -1.9136188181951e-17)
(0.650869268892187 0.000450177718912164 -5.4814229218702e-17)
(0.650838276667644 0.000453157795101559 2.32718794653243e-17)
(0.650807296773817 0.000455634044383818 1.78903434234371e-18)
(0.650775537138251 0.000458211857124588 -3.38555255340152e-18)
(0.650744564321078 0.000461563803533565 -8.28792234359672e-17)
(0.650714730204663 0.00046450569859593 -1.9043779054282e-18)
(0.650684617363103 0.000467192100443259 1.60374736423396e-17)
(0.650654561497122 0.000470434960181897 1.73580278576546e-17)
(0.650626388043713 0.000474337436114603 1.17654433115081e-16)
(0.650599586717633 0.000477585295541756 1.76513308920559e-16)
(0.650572639991727 0.000480856271162749 1.93811491152373e-18)
(0.650548546950745 0.000485367123665454 -8.22987368188278e-17)
(0.650528009357246 0.000489882301818118 -2.84792151916954e-17)
(0.650508865712076 0.00049384584001488 9.49028194500743e-17)
(0.650492503526271 0.000498631539463863 2.90468728203475e-17)
(0.650481744063927 0.000505540497621881 3.7777952758828e-18)
(0.650476049697873 0.000511340372962262 -1.43219830295625e-16)
(0.650473832681995 0.000517197719490404 -4.2854777990908e-17)
(0.65047914889575 0.000525616709810033 4.17708514694898e-17)
(0.650495077029918 0.000535097845302104 1.951555534844e-16)
(0.650519612544771 0.000543445889270369 2.77564214512378e-16)
(0.650552766284719 0.000553474567182729 6.58739929873359e-17)
(0.650601978860709 0.000569747473224425 1.19287172988002e-16)
(0.650669734735834 0.000583220294020319 -7.22833097574622e-17)
(0.650753421768557 0.00059706534230433 1.20234910348236e-16)
(0.650858511890369 0.000617060015036459 -1.22826843302925e-16)
(0.650994114514694 0.000641491113877279 -5.17748331271005e-17)
(0.651160562911865 0.000662562143379555 -3.60287218574767e-17)
(0.651359184883731 0.000687152161369572 -2.48075885442608e-17)
(0.651605052181219 0.000727513334004382 -5.82722339148534e-17)
(0.651907501974643 0.000762941524866555 -5.78239613643475e-18)
(0.652267281519991 0.000797844679415779 1.79442931112685e-17)
(0.652696391157368 0.000846666520380572 5.95772438586045e-17)
(0.653217904615148 0.000911211705082273 4.14524585841053e-17)
(0.653839264257376 0.00096461932806883 -8.49824574783981e-18)
(0.654573411742038 0.00102422926629645 1.81609071047089e-16)
(0.655453743719829 0.00112232493496002 -5.87406883701861e-18)
(0.656507253385272 0.00121095181148544 -9.98011413582852e-18)
(0.657752288930409 0.00129423535132889 -8.36114919907026e-17)
(0.659225716283988 0.00140609418888297 6.48189892236209e-17)
(0.660993028356477 0.00156164213205303 6.52291900998617e-17)
(0.663088423098796 0.00168594548093579 -3.17909014238952e-17)
(0.665609480321453 0.00182916990699018 1.17311212289091e-16)
(0.668814403474531 0.00213608567579915 1.75643252725219e-17)
(0.673009188936932 0.00247677226840901 -5.08964380601536e-17)
(0.678373702841562 0.00280269919049211 -1.57137665626107e-18)
(0.685028148315766 0.0032452445689015 -1.89473058715292e-17)
(0.692947123521584 0.00377054792618332 -1.09467015046291e-16)
(0.702113035758505 0.00401905189838437 -3.04459151333957e-17)
(0.712666367045346 0.00418828525582895 9.88493721296012e-17)
(0.724564054042344 0.00437913177795726 -1.32915003415902e-16)
(0.73784494506889 0.00432096618995853 2.36806570512004e-16)
(0.752544002523807 0.00414908052767973 -5.32952850074585e-17)
(0.768543938643873 0.00390725643933476 2.00736018439341e-17)
(0.785840121251481 0.00351280481918597 1.23393607472257e-16)
(0.804410615600158 0.00305805959799429 -5.78230913267975e-17)
(0.824275256214887 0.00256352048559764 5.74000207615975e-17)
(0.845267043575055 0.00191524557085682 -3.86639569695512e-17)
(0.868061447744755 0.00132628776359216 -3.97569482974574e-17)
(0.891773389254829 0.000828773807141616 4.26726171305498e-17)
(0.919307927784224 0.000212188486568929 -2.07564582213416e-18)
(0.945889951279076 -4.76222287890487e-05 -7.65867804598976e-17)
(0.983927008534009 -0.000565354987193455 -1.09369269827532e-18)
(0.999354364730932 0.000423301259686525 5.66933130994208e-20)
(0.994512103560034 0.000183109363188988 2.32362525270955e-17)
(0.997181166185835 0.000227162776440943 2.98720974624988e-17)
(0.995619927386796 0.000142815779735713 1.82438958327311e-17)
(0.995190739853834 0.000166513709618183 3.34264969395631e-17)
(0.993552785739637 0.000109905778781015 -8.23164366550667e-18)
(0.991992920805221 8.03338198127782e-05 5.93492696381079e-18)
(0.990029820351502 5.61298912603034e-05 -1.42924969025279e-17)
(0.987934567954982 2.01998550419425e-05 -1.15449787113434e-17)
(0.985706755741339 -1.23792971163494e-05 -9.99742259234696e-18)
(0.983426917967373 -3.38202060861402e-05 -2.01360972040052e-18)
(0.981157651951885 -6.26812192442003e-05 2.57795716686994e-18)
(0.979009999909763 -7.02523894663394e-05 -1.52341455294644e-18)
(0.976918948324522 0.000210629982392157 -8.59624617306837e-20)
(0.179646334309705 0.00288626450331979 4.27858932661581e-19)
(0.182855468990607 0.00347388537260391 3.74252047762443e-18)
(0.183506330909415 0.00383936916984085 9.03414983715703e-18)
(0.183872565671932 0.00414275066182841 1.71620444075929e-17)
(0.183923576296809 0.00432036603880389 1.19438365854354e-17)
(0.183803662147811 0.00440686614770673 1.01913393140209e-17)
(0.183619672554017 0.00444650296320856 1.90676619818174e-17)
(0.183415707655111 0.00446597609954465 3.00791217969097e-17)
(0.183206010002045 0.00447884715398318 -1.58177407130329e-17)
(0.182995791956057 0.00449057748214652 -1.0468442988922e-16)
(0.182785957591129 0.00450158902461535 -8.98468760171005e-17)
(0.182575154726552 0.00451218897209066 -1.1644324043543e-16)
(0.182363014069736 0.00452303907732644 -6.96459058226335e-17)
(0.182150228181803 0.00453424062036379 -6.39479445608271e-17)
(0.181936341360027 0.0045447606426904 -6.5933784498254e-17)
(0.18172041751825 0.00455511740978806 -1.4319727205877e-16)
(0.181502970987448 0.00456594649872443 -9.00717100881647e-17)
(0.181284493421917 0.00457664394515425 -9.30739689858223e-17)
(0.181064166810337 0.00458691884137666 -8.37111910243898e-17)
(0.180841577226484 0.00459746071442748 -2.44290450009815e-16)
(0.180617831292301 0.00460882277706823 -1.10011314409468e-16)
(0.180392915683404 0.00461952173473681 5.77392755089689e-17)
(0.180165721985485 0.004630146559526 -5.28678987011265e-17)
(0.179936699640052 0.00464154460035922 -1.88504919004236e-16)
(0.179706789939284 0.0046533246615535 -6.83113172631653e-17)
(0.179475385108935 0.00466455492935238 -1.06373608199105e-17)
(0.179241826215076 0.00467608440795612 4.19555991250242e-18)
(0.179007493583749 0.00468894244549801 2.73213979010707e-17)
(0.178772838173424 0.00470136947497392 1.86363149119999e-17)
(0.17853664536381 0.00471363681826364 5.43218806046264e-17)
(0.178299266906348 0.00472694094233683 3.61681332016337e-17)
(0.178062560450883 0.00474149963958502 7.18205911351458e-17)
(0.177826243503726 0.00475528420735021 2.81792298509766e-16)
(0.177589193201898 0.00476937114369518 -1.73566548468858e-17)
(0.177353760943691 0.00478569471812728 -2.69365655767422e-16)
(0.177121460150432 0.00480227714048573 -9.38853731077122e-17)
(0.176890833318125 0.00481835925250321 4.75584709321753e-17)
(0.176662710338405 0.00483609655864446 7.1293673710069e-17)
(0.176441074432743 0.00485766116960828 2.81144298933487e-17)
(0.176226605834727 0.00487779093289271 2.71695225272054e-17)
(0.176017907969126 0.00489845229939995 1.29753133343136e-16)
(0.17581929694482 0.00492379490130583 1.28752426444689e-16)
(0.175636020559414 0.00495136614281292 3.52557320775085e-16)
(0.175467188726057 0.00497761689162925 3.94941786364072e-16)
(0.17531389882314 0.0050071783500271 1.57351911461229e-16)
(0.175187597473554 0.00504806873109067 1.64788693582162e-16)
(0.175093408199162 0.00508468617745547 -4.76845513877921e-17)
(0.175029461086744 0.00512250201665385 1.94798212097547e-16)
(0.175005708456346 0.00517155845601079 -1.96957676446056e-16)
(0.175039144755385 0.00522903728883744 -1.43592581673207e-16)
(0.175132883563243 0.00528125204993705 -1.07071621497264e-16)
(0.175291655049192 0.00534013567218923 -7.08527725068175e-17)
(0.175545697777614 0.00542778755494992 -1.81777881126502e-16)
(0.175915346522687 0.00550706943963561 -1.68432359061312e-17)
(0.176403302396487 0.00558557687269491 5.02194565373287e-17)
(0.177036973676459 0.00568945016583178 1.79429693186698e-16)
(0.177870099061511 0.00582202087117359 1.20123394777102e-16)
(0.178922877964781 0.00593404951923757 -5.79988636629382e-17)
(0.180216023772161 0.00605675915228351 2.51008303542696e-16)
(0.18183468460457 0.00624928812858195 -3.34314691977067e-17)
(0.183849472247493 0.00642316557498991 -2.62189288267046e-17)
(0.186289001773645 0.00658433093686508 -2.61120865059341e-16)
(0.189237632092379 0.00679626139631927 2.0093311334931e-16)
(0.192865992373346 0.00708532662236209 -6.11635418711911e-17)
(0.197265293670038 0.00731195341165592 -1.03648662981067e-16)
(0.202565256783856 0.0075719041101885 1.19701331152462e-16)
(0.209237906942142 0.00813238858494767 4.86081992170193e-17)
(0.217835709256633 0.00874842750951589 -1.65949177432581e-16)
(0.228686604370743 0.00932055532398275 -4.06180049661141e-18)
(0.242251647772012 0.0100884531627174 -6.05156416082247e-17)
(0.259070283823289 0.0109637940593579 -3.33580105767088e-16)
(0.279164973304666 0.0112754621307783 -9.49989636924243e-17)
(0.302473100872608 0.0113836692589379 1.16207800370903e-16)
(0.329170448827831 0.011467188649175 -4.11030935353958e-16)
(0.359245743459524 0.0110319162249189 5.47838609459144e-16)
(0.392490596096905 0.0103226063531221 -1.58109826779906e-16)
(0.428787888386588 0.00942343970907332 5.62591754333276e-17)
(0.468066763904119 0.00818991149216843 3.65320979642746e-16)
(0.510162873018605 0.00679526863496715 -2.06930177765984e-17)
(0.555296200266873 0.0052674803389443 2.38429931399991e-17)
(0.602884840118682 0.00341847277742349 -1.15695120577476e-16)
(0.654338039172034 0.00164178139055753 -1.25063110423192e-16)
(0.707884026732258 -2.88261352255552e-05 -1.26058363257604e-16)
(0.769947487665389 -0.00196671640774475 -6.87480390151277e-18)
(0.829627604201206 -0.00332085755971905 -1.20814494698044e-16)
(0.915417432895793 -0.00462100237272954 -2.72356112711808e-18)
(0.949517725516325 0.000208297926516293 1.87786871281071e-19)
(0.936977884383467 -4.17510426119895e-05 1.95882236613727e-17)
(0.941709606860747 4.52142652206771e-05 8.86850741967704e-17)
(0.936755121976647 -3.09011627286228e-05 5.46417408987321e-17)
(0.93470147503788 2.62100514313352e-05 3.71442455183151e-18)
(0.930191865133575 -2.44615900931993e-05 -2.71245116184594e-17)
(0.925944348878373 -4.51650352912268e-05 1.75767931791939e-17)
(0.920928043866833 -6.0492679610106e-05 -1.97151094399196e-17)
(0.915722804040115 -9.33284301322914e-05 -1.1373033819077e-17)
(0.910243298651717 -0.000123402999726041 -7.48382466845561e-18)
(0.90468870809691 -0.000139801983955363 5.30416935291397e-18)
(0.899175324333013 -0.000164173150026775 8.42204229072838e-18)
(0.893976295780805 -0.000152520476646141 -4.76947799169886e-18)
(0.889555528998647 0.000234679076707225 8.83047852666734e-19)
(-0.128204370283773 0.00689888957473165 1.75834993738079e-19)
(-0.124911773866648 0.00731208824200119 8.4433569613729e-19)
(-0.12443767517141 0.0083270830060358 1.56521566909578e-17)
(-0.124309178517032 0.00904206244895566 4.06118630103424e-17)
(-0.124469029845545 0.00941710322115805 1.85285672982442e-17)
(-0.124769151630201 0.00958823116884189 1.26115266387875e-17)
(-0.12511932979731 0.00966197336060489 8.02645826654523e-18)
(-0.125485357128876 0.00969559552410009 -2.22338859797759e-17)
(-0.125856733919511 0.00971564006441429 -4.74713747858505e-18)
(-0.126229674371888 0.00973241737272998 -1.23149560503453e-16)
(-0.126603386478169 0.00974829050095169 -1.23734677716562e-16)
(-0.126978713301491 0.00976391328571474 -1.31340182418262e-16)
(-0.127355953928235 0.009779836557996 -9.42893295230921e-17)
(-0.127734680799287 0.00979607097308657 -1.04469222819127e-16)
(-0.128115239710727 0.00981186115778087 -8.57852795424522e-17)
(-0.128498347388122 0.00982754662019192 -1.17683784271924e-16)
(-0.128883721121083 0.00984361367831976 -1.2977296594391e-16)
(-0.129271059471319 0.00985963257993449 -1.58477716602358e-16)
(-0.129660973318781 0.00987537721349099 -2.05879138360249e-16)
(-0.130053773678673 0.00989141274662166 -2.12403936440557e-16)
(-0.130448678751209 0.00990811460767611 -1.90955905994609e-16)
(-0.130845711519028 0.00992441445142433 2.92212071558668e-17)
(-0.131245714352332 0.00994070946221495 -8.12359937837932e-17)
(-0.131648350446276 0.00995770853386399 -2.33785429123431e-16)
(-0.132052865477837 0.00997509631037974 -1.38725170612756e-16)
(-0.132459709017848 0.00999214934472739 -1.69384567148237e-16)
(-0.132869395568621 0.0100095613691128 3.52192654651873e-18)
(-0.13328081528405 0.0100281088842102 1.53096658829577e-16)
(-0.133693518154495 0.010046463549331 3.21698408154927e-17)
(-0.134108416796181 0.010064775041887 1.11927978101632e-16)
(-0.134525166654134 0.0100840893923993 5.01323161263987e-17)
(-0.13494212347075 0.0101045270197328 -9.3693854285473e-18)
(-0.135359330920283 0.010124488079217 2.23244671015054e-16)
(-0.135777642309931 0.0101448394856152 -4.75148016676889e-17)
(-0.136195091731568 0.0101671621467109 -2.72378974080375e-16)
(-0.136609958899824 0.0101898973874202 -1.49773411656172e-16)
(-0.137023136038718 0.0102123290873028 1.8436807037991e-17)
(-0.13743400738449 0.0102364290600976 1.2373084085418e-16)
(-0.137838323903295 0.0102638506461077 4.57840140642086e-17)
(-0.138234673213372 0.0102903294317166 -6.62638004568759e-17)
(-0.138624275355505 0.0103173944889767 3.25556629610346e-16)
(-0.139002740989719 0.0103486677332992 1.80412003106181e-16)
(-0.139364016710684 0.0103820642525533 5.33246826552127e-16)
(-0.13970794519243 0.0104144292183018 5.56891685328912e-16)
(-0.140033345246569 0.0104502113604269 2.14132798742121e-16)
(-0.140326821525001 0.0104956540331279 2.3951926328573e-16)
(-0.140581464948779 0.0105378370229056 -8.06634267049785e-17)
(-0.140799353258335 0.0105809391408438 1.40245538297772e-16)
(-0.140968248929652 0.0106342562330471 -3.22237544271067e-16)
(-0.14106708769697 0.0106948538298642 -2.33105393422746e-16)
(-0.141090472885153 0.010750619936117 -1.79366067579716e-16)
(-0.141034587522939 0.0108129769388971 -1.04702925313043e-16)
(-0.140859894458315 0.0108997910224566 -3.31528336598953e-16)
(-0.140538803760713 0.0109793958788712 -2.27980343593727e-17)
(-0.14007104364211 0.011057015540636 7.38224947895805e-17)
(-0.139422256374298 0.01115758678858 3.09931463067005e-16)
(-0.138519308537398 0.0112816475264038 1.99009522789573e-16)
(-0.137333744886083 0.0113857070264024 -1.60894616532531e-16)
(-0.135853433561963 0.0114991335035256 3.55660943647215e-16)
(-0.13395766728343 0.0116704925553994 -8.68120552421266e-17)
(-0.131546296615605 0.0118231285909377 -3.09882016488909e-17)
(-0.128600269081798 0.0119582606058046 -1.95757600642854e-16)
(-0.125017650665974 0.0121374097716321 1.0481559242243e-16)
(-0.120554406668115 0.0123751991415615 -1.900207972763e-16)
(-0.115086102653455 0.0125496408724746 -1.82768260443491e-16)
(-0.10853952172961 0.012757721395171 -9.60681166110106e-17)
(-0.100307762919704 0.0132206196494121 8.05067592506383e-17)
(-0.0896547857944189 0.0137223402070289 -7.79546192543704e-17)
(-0.0762570801711859 0.0141676100212131 -7.01377806865664e-19)
(-0.0595080013407018 0.0147630042038888 -1.08049566714191e-16)
(-0.0383893022630397 0.015372187476201 -3.77156549672502e-16)
(-0.0128988482345834 0.0154265610874713 -1.64963758748344e-16)
(0.0165987578378369 0.0152160180156362 1.56724672190549e-16)
(0.0505947616041049 0.0148765680860369 -3.55806447195469e-16)
(0.0890395664380902 0.0140137577264577 5.45222749145023e-16)
(0.131452137667277 0.0128118103877184 -1.04132480692457e-16)
(0.177826927310758 0.0113534071252405 2.54706954274374e-16)
(0.228028558271323 0.00953463437172917 4.53279929238176e-16)
(0.281748390537484 0.00750512465815124 9.98075912979732e-18)
(0.339455922239646 0.00526494590737845 -1.03638358937708e-17)
(0.400197565863933 0.0027165372190778 -1.93387771150436e-16)
(0.465664677215062 0.00016053148888299 5.15891445093289e-17)
(0.533884316109068 -0.00234873729547264 -1.63202005595059e-16)
(0.612821295765525 -0.0051825820536536 -9.98060703783957e-18)
(0.688464735809338 -0.00749441113154427 -1.73798419380568e-16)
(0.797583259266418 -0.00915732399799059 -3.41544475643085e-18)
(0.841026538145316 1.83070384479277e-05 2.1987537564512e-19)
(0.824513676666297 -0.000141791400198827 1.58153601988635e-17)
(0.830114952836899 -4.92595400570076e-05 9.91062261047068e-17)
(0.823446089253151 -8.38079716391648e-05 4.2476708092476e-17)
(0.82053230590193 -5.98505135042223e-05 -2.54770139595902e-17)
(0.81457774153007 -7.97002236895038e-05 -5.90832612385865e-19)
(0.808991848133666 -9.31863927828067e-05 2.93922491411087e-17)
(0.802464591645135 -0.000112567091582185 -2.38029210693497e-18)
(0.7957208210959 -0.000135588641554512 -1.05510302032037e-17)
(0.788637834148539 -0.000159682301208327 -5.32187571509376e-18)
(0.781460658209602 -0.000179795350094686 1.23984774449024e-17)
(0.774332238818172 -0.000194184191561183 1.47028843946307e-17)
(0.76759995030658 -0.000194692650248544 -8.07784943611042e-18)
(0.761657014935727 -7.68254882681714e-05 3.01878453170164e-18)
(-0.277807387026188 0.00932838713470658 9.99263383741572e-19)
(-0.276919818137729 0.0103411902402524 2.96474790085303e-18)
(-0.277420242864193 0.0119223878006529 1.24711814136255e-17)
(-0.277918620513822 0.0128958962432439 3.83541549543095e-17)
(-0.278402398788472 0.0133659574161969 1.89746356053063e-17)
(-0.278873887864649 0.0135702468761319 1.51036116677973e-17)
(-0.27933594139264 0.0136561426996004 1.49806547235922e-17)
(-0.279794238617347 0.0136953158853153 3.48281186028379e-18)
(-0.280252653575339 0.0137188812248335 -2.14216675191458e-17)
(-0.280712286033717 0.013738493791651 -9.30451488092662e-17)
(-0.281173448803321 0.013757290235959 -1.53715679272048e-16)
(-0.28163664244912 0.0137760132462505 -1.66372200224998e-16)
(-0.282102008345137 0.0137950183570632 -1.02014335853191e-16)
(-0.282569322564823 0.0138142616900761 -1.60256732662658e-16)
(-0.283038786061818 0.0138333058059694 -9.03678917956456e-17)
(-0.28351083366545 0.013852313527505 -1.09060850775272e-16)
(-0.283985373443501 0.0138715724771791 -1.66178676576797e-16)
(-0.284462286880644 0.0138908481334506 -2.17572148593565e-16)
(-0.284941939221301 0.013910002021797 -3.44913962219982e-16)
(-0.285424527965933 0.0139293876075542 -1.91662899964388e-16)
(-0.285909622507516 0.0139492024009076 -1.7316128489238e-16)
(-0.286397245056858 0.0139688554246229 -5.29298775609703e-17)
(-0.286887899907531 0.0139885468176765 -9.11929460320378e-17)
(-0.287381385373907 0.0140087283541218 -1.94126798392747e-16)
(-0.2878772235251 0.0140292073630397 -1.70178613181891e-16)
(-0.288375658055789 0.0140495488460275 -8.66834974107975e-17)
(-0.288876995950584 0.0140701822873229 1.74313019166341e-18)
(-0.289380502755981 0.0140915590031265 6.09292465850758e-17)
(-0.289885817861138 0.0141129088798092 1.58332670005146e-19)
(-0.290393456486589 0.0141342798611235 2.16782355651629e-16)
(-0.290903124515194 0.01415635554169 8.0840709524707e-17)
(-0.291413617863414 0.0141791808910642 -1.52585022100266e-16)
(-0.29192479918206 0.0142017843045004 8.80373405531668e-18)
(-0.292437147225832 0.0142246875672632 -8.52669901366739e-17)
(-0.292949212819236 0.0142488712198168 -3.46286219151296e-16)
(-0.293459503792717 0.0142733928923617 -2.11963988294409e-16)
(-0.293968344635512 0.0142977337997094 -6.24747067352239e-19)
(-0.294475167085439 0.0143232137742002 2.08250313209751e-16)
(-0.294976393698604 0.0143507965068532 7.18128335938785e-17)
(-0.29547038374502 0.0143778163642979 -2.40444421516999e-16)
(-0.295957765058877 0.0144051564854895 1.44634590695121e-16)
(-0.296434783580374 0.014435169288768 1.5438575146367e-16)
(-0.296895985957833 0.014466492728832 7.64626080206173e-16)
(-0.297340345360898 0.0144969624878939 7.82870966561846e-16)
(-0.297766449067185 0.0145296287004513 2.22018917170587e-16)
(-0.298162157544755 0.0145682089784465 1.47959879996889e-16)
(-0.298520435574834 0.0146044395864503 2.53574066785775e-17)
(-0.29884236745953 0.0146407161329272 1.70284519443723e-16)
(-0.299116308928831 0.0146832903419332 -3.1163605317776e-16)
(-0.299322288891867 0.0147299059953503 -1.24302739892026e-16)
(-0.299453636019559 0.0147723252541469 -6.59943215283261e-17)
(-0.299506665359532 0.0148183499141072 -1.10882154681441e-16)
(-0.299443052440974 0.0148789529376339 -5.33304293383039e-16)
(-0.299234779637871 0.014933223627438 -1.47527324446467e-17)
(-0.298881089605685 0.0149837860548856 8.21050188628384e-17)
(-0.298348534793047 0.0150476628664588 4.622823801452e-16)
(-0.297564194809872 0.0151237326236277 2.81952832733479e-16)
(-0.296497193587212 0.0151823467147671 -4.02235369120117e-17)
(-0.295139629899516 0.0152434467517117 2.16388453634275e-16)
(-0.293369098350752 0.0153372169562943 -1.86435682483054e-16)
(-0.291082016287699 0.0154117004131881 -2.82941212311932e-17)
(-0.288263266540375 0.0154655280404247 -1.56313344443464e-16)
(-0.284814720291828 0.0155408748409066 4.29602120339891e-17)
(-0.280485794377142 0.0156422592535541 -3.17932652245217e-16)
(-0.275145345540068 0.0156856172005833 -2.59784174912069e-16)
(-0.268756120242199 0.01573884050301 -6.01787707811191e-17)
(-0.260720454239032 0.0159403238687341 1.20848528985191e-16)
(-0.250294808245895 0.0161363620948418 -1.3036126154612e-17)
(-0.237189764667775 0.0162553834708226 6.37187192367358e-18)
(-0.220798626548147 0.0164302144920482 4.37063946137771e-17)
(-0.199972498812828 0.0165383346664111 -2.46277691505847e-16)
(-0.174706410828951 0.01619978143669 -2.41975870376896e-16)
(-0.14548203420315 0.0156094226745359 2.19792110558029e-16)
(-0.111705520021222 0.0148472726859473 -3.31503496956421e-16)
(-0.0734373757961183 0.0136573124067492 4.09398054649721e-16)
(-0.0312481848799026 0.0121630506786773 -6.28453637236695e-17)
(0.0149130651628465 0.0104222388874777 2.91727923043015e-16)
(0.0648920673311837 0.00837295446431045 3.86031448120076e-16)
(0.118332684655186 0.00611897957184781 3.35054601245919e-17)
(0.175785697994826 0.00364965159124397 -4.47337220733396e-17)
(0.236202793726517 0.000921203762510544 -1.35404415674657e-16)
(0.301222030733851 -0.00187318701804922 9.16039663360473e-17)
(0.368979647924869 -0.0047169203045373 -2.01182335770752e-16)
(0.44733786767994 -0.00786777859424698 -1.04478893607189e-17)
(0.522239746932899 -0.0107364960219777 -1.28093635453459e-16)
(0.630980145600705 -0.0123781599521061 -3.16352524701329e-18)
(0.674445105289351 -0.000185109636667557 1.90879689655661e-19)
(0.657541579337117 -6.77382246940896e-05 1.16099123894101e-17)
(0.662933453913547 -8.04329363851406e-05 1.10348037764793e-16)
(0.656152635968778 -6.04534093283728e-05 3.06149141805686e-17)
(0.653135960440702 -6.8949753143821e-05 -5.36267221201449e-17)
(0.647136072633127 -7.06103480946132e-05 2.41678382075401e-17)
(0.641520190518506 -8.26294061111427e-05 4.11793944323965e-17)
(0.634985350588541 -9.66136722630923e-05 1.46900416133087e-17)
(0.628245250519538 -0.000112153730460584 -8.97042150223232e-18)
(0.621171321413377 -0.000128121627477412 -3.40435583534361e-18)
(0.614002717088412 -0.000143419481697453 8.8001593962687e-18)
(0.606877490212739 -0.000152095992527049 1.05439836327899e-17)
(0.600130908252659 -0.000159482779714609 -1.17006721683661e-17)
(0.59405355564299 -0.000120838755287986 3.89226842679869e-18)
(-0.276558051644119 0.00918887477278282 9.55629131456131e-19)
(-0.279111753582199 0.0106004644373397 9.31630359157701e-19)
(-0.280697903039653 0.0120797383207096 1.21336910994356e-18)
(-0.281741875944612 0.0128935350369757 1.1320149165653e-17)
(-0.282417182993715 0.013255341459334 1.18756780393645e-17)
(-0.282924296842657 0.0134044506932734 1.68529895091054e-17)
(-0.283367708437731 0.013465977174767 3.6383407431991e-17)
(-0.283791014595643 0.0134948663076673 4.06930861165098e-17)
(-0.284210249163266 0.0135133605580398 -1.49595482218013e-17)
(-0.28463020798034 0.0135293667659807 -5.79960055610973e-17)
(-0.285051944629262 0.0135449974222558 -1.08069629491766e-16)
(-0.285475683580213 0.013560696488868 -1.54827144589146e-16)
(-0.285901398201435 0.0135766124951579 -1.48750765360795e-16)
(-0.286328948239439 0.0135927017404519 -9.53114116531865e-17)
(-0.286758411998165 0.0136087511953845 -6.65978652450464e-17)
(-0.287190009497085 0.013624825660436 -9.09851886872326e-17)
(-0.287623742826907 0.0136410606731516 -2.08060670984688e-16)
(-0.288059591920162 0.0136573518080848 -2.45308103707731e-16)
(-0.28849774294739 0.0136736318165278 -2.60873462194357e-16)
(-0.288938308831554 0.0136900658179327 -1.32656523146606e-16)
(-0.289381092342363 0.0137067487727546 -1.8844847211487e-16)
(-0.289826108590659 0.0137234083264309 -8.08166146482286e-17)
(-0.290273616881963 0.0137401312164258 -8.05802475718786e-17)
(-0.290723516195287 0.0137571333979165 -1.91328331708055e-16)
(-0.291175543611662 0.0137743265098458 -2.27102003498756e-16)
(-0.291629803208135 0.0137915001730157 -1.59461923220235e-17)
(-0.292086456956079 0.0138088548391472 1.99613409510516e-18)
(-0.292545082072679 0.0138266046882435 1.17598840540951e-17)
(-0.293005430026085 0.013844385778164 -1.02280936531967e-16)
(-0.293467743564389 0.0138622095537356 1.36034460869021e-16)
(-0.293931820910357 0.0138803998349304 1.55302010588587e-16)
(-0.294396895413289 0.0138989752570532 -1.07060475226597e-16)
(-0.294862781413374 0.0139174633758022 -1.43344448050888e-16)
(-0.295329716627233 0.0139361005021799 -8.35340737943835e-17)
(-0.295796774853189 0.0139553511180295 -2.40005043703027e-16)
(-0.296262881691152 0.0139747572816432 -2.8668247801025e-16)
(-0.296728067054483 0.0139940394270502 -2.24829693949387e-17)
(-0.297191920040075 0.0140138156246797 1.1014612896291e-16)
(-0.29765192081221 0.0140345378381439 1.35252282910006e-16)
(-0.298106681791253 0.0140548795638671 -2.95731008871978e-16)
(-0.298556477490161 0.0140752302019974 3.85026247410388e-17)
(-0.298998658711311 0.0140966965612504 3.19259940875148e-17)
(-0.299429197322893 0.014118578176268 6.45234943084297e-16)
(-0.299846931811977 0.0141397382205753 6.66950847997852e-16)
(-0.300250759336027 0.0141615857291096 1.67567987342352e-16)
(-0.300631698893931 0.0141858646432861 6.29396283659653e-17)
(-0.300984148256992 0.0142084026944204 9.44335598383082e-17)
(-0.30130863833114 0.0142302827656606 7.87298208838921e-17)
(-0.301596436474754 0.0142544059794313 -1.85750522636981e-16)
(-0.301832323433736 0.0142794808404994 -5.171045441747e-18)
(-0.302010525478987 0.014301237351652 5.6410662299563e-17)
(-0.302128557556377 0.0143232813225634 -7.9995179583496e-17)
(-0.302156976859558 0.0143506786663614 -4.69680001909309e-16)
(-0.302073538053463 0.0143726811834105 2.64517209009088e-17)
(-0.301877709876263 0.0143903564837974 6.32673876108372e-17)
(-0.301544224037696 0.0144115131696185 3.25526138583275e-16)
(-0.301015989088558 0.0144348465229544 3.53800592317598e-16)
(-0.300267696723487 0.0144450106226516 1.13482745661831e-17)
(-0.299296013556123 0.0144513371730471 1.20871807824221e-16)
(-0.298004734496299 0.0144673651837123 -4.17238496079404e-17)
(-0.296311006730728 0.0144658393327875 -1.68122591035154e-17)
(-0.294205331693958 0.014445536774977 -1.35039732617967e-16)
(-0.291614293622554 0.014425452670381 1.30720280937452e-17)
(-0.288339064595788 0.0144048431503664 -1.96278506415526e-16)
(-0.284273817309449 0.0143394576805409 -3.3845755262615e-16)
(-0.279409284787584 0.0142605100064815 -8.94653124415662e-18)
(-0.273285532266181 0.0142281351936723 -5.98840206349644e-17)
(-0.265317546303656 0.0141559771248089 3.67844587842516e-17)
(-0.255296699543036 0.0140039959870517 9.76040979424673e-18)
(-0.242755051222884 0.0138297531471946 1.87394013915475e-16)
(-0.226735488272084 0.0135584793273508 -1.34364925831507e-16)
(-0.207229350993822 0.013001963120562 -1.39824761403242e-16)
(-0.184669002072442 0.0122657856855323 1.22268935797452e-16)
(-0.158546696182836 0.0113810635871117 -1.55130811130313e-16)
(-0.128911972671181 0.0102213327425534 1.31762992821489e-16)