/*--------------------------------*- C++ -*----------------------------------*\
| =========                 |                                                 |
| \\      /  F ield         | OpenFOAM: The Open Source CFD Toolbox           |
|  \\    /   O peration     | Version:  4.1                                   |
|   \\  /    A nd           | Web:      www.OpenFOAM.org                      |
|    \\/     M anipulation  |                                                 |
\*---------------------------------------------------------------------------*/
FoamFile
{
    version     2.0;
    format      ascii;
    class       pointVectorField;
    location    "0.0043";
    object      pointDisplacement;
}
// * * * * * * * * * * * * * * * * * * * * * * * * * * * * * * * * * * * * * //

dimensions      [0 1 0 0 0 0 0];

internalField   nonuniform List<vector> 
7105
(
(0 0 0)
(-5.1722e-06 -6.8356e-07 6.5096e-11)
(-9.7778e-06 -8.4811e-07 9.7986e-11)
(-1.3584e-05 -4.2164e-07 9.0773e-11)
(-1.677e-05 1.7484e-07 6.0661e-11)
(-1.9687e-05 4.6873e-07 3.3595e-11)
(-2.2561e-05 3.5416e-07 2.4616e-11)
(-2.5438e-05 2.3327e-08 3.3478e-11)
(-2.8289e-05 -3.3687e-07 5.3612e-11)
(-3.109e-05 -6.6906e-07 7.4231e-11)
(-3.3835e-05 -9.9137e-07 8.8087e-11)
(-3.6521e-05 -1.336e-06 1.023e-10)
(-3.9142e-05 -1.732e-06 1.2602e-10)
(-4.1686e-05 -2.2093e-06 1.6099e-10)
(-4.4134e-05 -2.8037e-06 2.0879e-10)
(-4.6469e-05 -3.5535e-06 2.7431e-10)
(-4.8672e-05 -4.4915e-06 3.639e-10)
(-5.072e-05 -5.6455e-06 4.9183e-10)
(-5.2581e-05 -7.0468e-06 6.7146e-10)
(-5.4209e-05 -8.7395e-06 9.0031e-10)
(-5.5552e-05 -1.0789e-05 1.1805e-09)
(-5.6563e-05 -1.3277e-05 1.5252e-09)
(-5.721e-05 -1.6286e-05 1.9403e-09)
(-5.7474e-05 -1.986e-05 2.4227e-09)
(-5.733e-05 -2.3989e-05 2.9727e-09)
(-5.6744e-05 -2.8631e-05 3.5929e-09)
(-5.5674e-05 -3.375e-05 4.2758e-09)
(-5.4085e-05 -3.9323e-05 5.0062e-09)
(-5.1962e-05 -4.5317e-05 5.7803e-09)
(-4.9332e-05 -5.1644e-05 6.5961e-09)
(-4.6277e-05 -5.8107e-05 7.4114e-09)
(-4.2933e-05 -6.4356e-05 8.152e-09)
(-3.9461e-05 -6.9879e-05 8.7391e-09)
(-3.597e-05 -7.4055e-05 9.1123e-09)
(-3.2473e-05 -7.6338e-05 9.2697e-09)
(-2.8906e-05 -7.6481e-05 9.2379e-09)
(-2.5217e-05 -7.4637e-05 9.0104e-09)
(-2.1468e-05 -7.117e-05 8.5747e-09)
(-1.7865e-05 -6.6366e-05 7.9486e-09)
(-1.4664e-05 -6.0267e-05 7.1608e-09)
(-1.2033e-05 -5.2742e-05 6.2359e-09)
(-9.9546e-06 -4.375e-05 5.1942e-09)
(-8.2335e-06 -3.3642e-05 4.0812e-09)
(-6.6067e-06 -2.3311e-05 2.9825e-09)
(-4.9111e-06 -1.4018e-05 1.9958e-09)
(-3.209e-06 -6.9096e-06 1.199e-09)
(-1.7429e-06 -2.52e-06 6.2673e-10)
(-7.015e-07 -5.543e-07 2.5467e-10)
(0 0 0)
(0 0 0)
(-5.0619e-06 -5.5955e-07 6.8921e-08)
(-9.6164e-06 -6.9831e-07 8.5737e-08)
(-1.3445e-05 -3.5636e-07 4.3016e-08)
(-1.6691e-05 1.3084e-07 -1.7661e-08)
(-1.9655e-05 3.8033e-07 -4.8802e-08)
(-2.2548e-05 2.9362e-07 -3.7879e-08)
(-2.5427e-05 1.5422e-08 -2.7007e-09)
(-2.8276e-05 -3.0056e-07 3.7376e-08)
(-3.1075e-05 -5.997e-07 7.5258e-08)
(-3.3818e-05 -8.9246e-07 1.1218e-07)
(-3.6502e-05 -1.2054e-06 1.5153e-07)
(-3.912e-05 -1.5647e-06 1.9671e-07)
(-4.166e-05 -1.9976e-06 2.5118e-07)
(-4.4103e-05 -2.5358e-06 3.1884e-07)
(-4.6433e-05 -3.2129e-06 4.0386e-07)
(-4.8629e-05 -4.0584e-06 5.1002e-07)
(-5.0668e-05 -5.0984e-06 6.4063e-07)
(-5.2517e-05 -6.3617e-06 7.9918e-07)
(-5.4133e-05 -7.8888e-06 9.9071e-07)
(-5.5464e-05 -9.7376e-06 1.2226e-06)
(-5.6466e-05 -1.198e-05 1.504e-06)
(-5.7107e-05 -1.4685e-05 1.843e-06)
(-5.7363e-05 -1.7891e-05 2.244e-06)
(-5.7211e-05 -2.1591e-05 2.7064e-06)
(-5.6615e-05 -2.5752e-05 3.2264e-06)
(-5.5538e-05 -3.0341e-05 3.7994e-06)
(-5.3948e-05 -3.5335e-05 4.4224e-06)
(-5.1835e-05 -4.07e-05 5.0911e-06)
(-4.9226e-05 -4.635e-05 5.7951e-06)
(-4.6203e-05 -5.2104e-05 6.5116e-06)
(-4.2894e-05 -5.7647e-05 7.2011e-06)
(-3.9447e-05 -6.2527e-05 7.8069e-06)
(-3.5962e-05 -6.6209e-05 8.2629e-06)
(-3.2459e-05 -6.8226e-05 8.512e-06)
(-2.8889e-05 -6.8367e-05 8.5287e-06)
(-2.5218e-05 -6.6749e-05 8.3268e-06)
(-2.1513e-05 -6.3667e-05 7.9427e-06)
(-1.7962e-05 -5.936e-05 7.4058e-06)
(-1.4794e-05 -5.3874e-05 6.7219e-06)
(-1.2158e-05 -4.7122e-05 5.8797e-06)
(-1.004e-05 -3.9099e-05 4.8784e-06)
(-8.2684e-06 -3.0138e-05 3.76e-06)
(-6.6105e-06 -2.1018e-05 2.6225e-06)
(-4.9243e-06 -1.2816e-05 1.6005e-06)
(-3.2611e-06 -6.5063e-06 8.1431e-07)
(-1.823e-06 -2.5394e-06 3.1961e-07)
(-7.6285e-07 -6.6104e-07 8.4279e-08)
(0 0 0)
(0 0 0)
(-4.9872e-06 -4.5865e-07 1.4788e-07)
(-9.5066e-06 -5.7514e-07 1.8527e-07)
(-1.335e-05 -2.9953e-07 9.6124e-08)
(-1.6636e-05 9.9225e-08 -3.251e-08)
(-1.9633e-05 3.0962e-07 -9.9986e-08)
(-2.2539e-05 2.4307e-07 -7.8096e-08)
(-2.5419e-05 9.6967e-09 -2.6974e-09)
(-2.8267e-05 -2.642e-07 8.5611e-08)
(-3.1065e-05 -5.2874e-07 1.7099e-07)
(-3.3807e-05 -7.8945e-07 2.5526e-07)
(-3.6489e-05 -1.0682e-06 3.4541e-07)
(-3.9105e-05 -1.388e-06 4.4888e-07)
(-4.1641e-05 -1.7731e-06 5.7348e-07)
(-4.4081e-05 -2.2512e-06 7.2809e-07)
(-4.6407e-05 -2.8516e-06 9.2208e-07)
(-4.8598e-05 -3.6004e-06 1.164e-06)
(-5.0631e-05 -4.5211e-06 1.4614e-06)
(-5.2472e-05 -5.6398e-06 1.8227e-06)
(-5.408e-05 -6.9927e-06 2.2594e-06)
(-5.5403e-05 -8.6304e-06 2.788e-06)
(-5.6398e-05 -1.0615e-05 3.4284e-06)
(-5.7034e-05 -1.3005e-05 4.1989e-06)
(-5.7286e-05 -1.5832e-05 5.1097e-06)
(-5.7127e-05 -1.9092e-05 6.1594e-06)
(-5.6525e-05 -2.2758e-05 7.3395e-06)
(-5.5444e-05 -2.6803e-05 8.6407e-06)
(-5.3853e-05 -3.1202e-05 1.0055e-05)
(-5.1746e-05 -3.5923e-05 1.1572e-05)
(-4.9153e-05 -4.0887e-05 1.3166e-05)
(-4.6152e-05 -4.5929e-05 1.4785e-05)
(-4.2867e-05 -5.0772e-05 1.6339e-05)
(-3.9437e-05 -5.5023e-05 1.7701e-05)
(-3.5957e-05 -5.8225e-05 1.8726e-05)
(-3.245e-05 -5.9982e-05 1.9287e-05)
(-2.8878e-05 -6.0113e-05 1.9327e-05)
(-2.522e-05 -5.8709e-05 1.8875e-05)
(-2.1546e-05 -5.601e-05 1.8006e-05)
(-1.8029e-05 -5.2215e-05 1.6785e-05)
(-1.4883e-05 -4.7369e-05 1.5228e-05)
(-1.2244e-05 -4.1415e-05 1.3314e-05)
(-1.0099e-05 -3.4372e-05 1.1051e-05)
(-8.2924e-06 -2.6543e-05 8.5349e-06)
(-6.6134e-06 -1.86e-05 5.984e-06)
(-4.9333e-06 -1.146e-05 3.6911e-06)
(-3.2961e-06 -5.9412e-06 1.9183e-06)
(-1.8765e-06 -2.4246e-06 7.8695e-07)
(-8.0374e-07 -6.9203e-07 2.2687e-07)
(0 0 0)
(0 0 0)
(-4.9432e-06 -3.7318e-07 2.2326e-07)
(-9.4414e-06 -4.6954e-07 2.8092e-07)
(-1.3293e-05 -2.4777e-07 1.484e-07)
(-1.6601e-05 7.5874e-08 -4.4633e-08)
(-1.9617e-05 2.4893e-07 -1.4717e-07)
(-2.2533e-05 1.9655e-07 -1.154e-07)
(-2.5415e-05 4.8009e-09 -1.417e-09)
(-2.8261e-05 -2.2423e-07 1.3429e-07)
(-3.1058e-05 -4.4832e-07 2.672e-07)
(-3.38e-05 -6.7046e-07 3.9926e-07)
(-3.6481e-05 -9.0822e-07 5.4079e-07)
(-3.9095e-05 -1.181e-06 7.0319e-07)
(-4.163e-05 -1.5092e-06 8.9863e-07)
(-4.4068e-05 -1.9165e-06 1.141e-06)
(-4.6391e-05 -2.4272e-06 1.4449e-06)
(-4.8579e-05 -3.0637e-06 1.8236e-06)
(-5.0608e-05 -3.8461e-06 2.289e-06)
(-5.2444e-05 -4.7969e-06 2.8546e-06)
(-5.4046e-05 -5.9469e-06 3.5385e-06)
(-5.5364e-05 -7.3388e-06 4.3661e-06)
(-5.6356e-05 -9.0244e-06 5.3681e-06)
(-5.6988e-05 -1.1052e-05 6.573e-06)
(-5.7236e-05 -1.3448e-05 7.9964e-06)
(-5.7074e-05 -1.6209e-05 9.6365e-06)
(-5.6468e-05 -1.9314e-05 1.148e-05)
(-5.5384e-05 -2.2739e-05 1.3514e-05)
(-5.3794e-05 -2.6464e-05 1.5725e-05)
(-5.1691e-05 -3.0458e-05 1.8094e-05)
(-4.9107e-05 -3.4652e-05 2.0582e-05)
(-4.612e-05 -3.8906e-05 2.3104e-05)
(-4.285e-05 -4.2986e-05 2.5522e-05)
(-3.943e-05 -4.656e-05 2.7639e-05)
(-3.5954e-05 -4.9249e-05 2.9232e-05)
(-3.2444e-05 -5.0725e-05 3.0105e-05)
(-2.8872e-05 -5.0838e-05 3.0171e-05)
(-2.5223e-05 -4.9658e-05 2.9469e-05)
(-2.1566e-05 -4.7379e-05 2.8115e-05)
(-1.8071e-05 -4.4164e-05 2.6206e-05)
(-1.4938e-05 -4.0054e-05 2.3767e-05)
(-1.2297e-05 -3.5012e-05 2.0775e-05)
(-1.0136e-05 -2.9064e-05 1.7247e-05)
(-8.3084e-06 -2.247e-05 1.3337e-05)
(-6.6168e-06 -1.5794e-05 9.3775e-06)
(-4.94e-06 -9.7922e-06 5.8179e-06)
(-3.3172e-06 -5.1402e-06 3.0579e-06)
(-1.9077e-06 -2.1509e-06 1.2827e-06)
(-8.2738e-07 -6.4322e-07 3.8524e-07)
(0 0 0)
(0 0 0)
(-4.9288e-06 -2.9692e-07 2.97e-07)
(-9.42e-06 -3.7409e-07 3.7424e-07)
(-1.3273e-05 -1.9845e-07 1.9867e-07)
(-1.6589e-05 5.8372e-08 -5.8081e-08)
(-1.9612e-05 1.9577e-07 -1.9542e-07)
(-2.2531e-05 1.5429e-07 -1.5388e-07)
(-2.5413e-05 1.9835e-09 -1.525e-09)
(-2.8259e-05 -1.8065e-07 1.8116e-07)
(-3.1056e-05 -3.6023e-07 3.6077e-07)
(-3.3797e-05 -5.3887e-07 5.3944e-07)
(-3.6478e-05 -7.3032e-07 7.3089e-07)
(-3.9092e-05 -9.4994e-07 9.5049e-07)
(-4.1626e-05 -1.2142e-06 1.2147e-06)
(-4.4063e-05 -1.542e-06 1.5424e-06)
(-4.6385e-05 -1.9528e-06 1.9532e-06)
(-4.8572e-05 -2.4647e-06 2.4649e-06)
(-5.06e-05 -3.0937e-06 3.0939e-06)
(-5.2434e-05 -3.8582e-06 3.8583e-06)
(-5.4034e-05 -4.7828e-06 4.7829e-06)
(-5.5351e-05 -5.9016e-06 5.9017e-06)
(-5.6341e-05 -7.256e-06 7.2562e-06)
(-5.6972e-05 -8.8844e-06 8.8846e-06)
(-5.7219e-05 -1.0808e-05 1.0808e-05)
(-5.7056e-05 -1.3024e-05 1.3025e-05)
(-5.6449e-05 -1.5516e-05 1.5517e-05)
(-5.5364e-05 -1.8265e-05 1.8265e-05)
(-5.3774e-05 -2.1253e-05 2.1254e-05)
(-5.1672e-05 -2.4456e-05 2.4457e-05)
(-4.9092e-05 -2.7818e-05 2.7819e-05)
(-4.6109e-05 -3.1225e-05 3.1227e-05)
(-4.2844e-05 -3.4491e-05 3.4492e-05)
(-3.9428e-05 -3.735e-05 3.7351e-05)
(-3.5953e-05 -3.95e-05 3.9502e-05)
(-3.2442e-05 -4.068e-05 4.0682e-05)
(-2.887e-05 -4.077e-05 4.0772e-05)
(-2.5224e-05 -3.9825e-05 3.9826e-05)
(-2.1574e-05 -3.7997e-05 3.7999e-05)
(-1.8086e-05 -3.5416e-05 3.5418e-05)
(-1.4957e-05 -3.2118e-05 3.2119e-05)
(-1.2315e-05 -2.8073e-05 2.8074e-05)
(-1.0149e-05 -2.3306e-05 2.3307e-05)
(-8.3141e-06 -1.8028e-05 1.8028e-05)
(-6.6183e-06 -1.2686e-05 1.2687e-05)
(-4.9425e-06 -7.8837e-06 7.8841e-06)
(-3.3242e-06 -4.1571e-06 4.1573e-06)
(-1.9178e-06 -1.7548e-06 1.7549e-06)
(-8.3504e-07 -5.3296e-07 5.3301e-07)
(0 0 0)
(0 0 0)
(-4.9432e-06 -2.2317e-07 3.7324e-07)
(-9.4414e-06 -2.8075e-07 4.6967e-07)
(-1.3293e-05 -1.4816e-07 2.4796e-07)
(-1.6601e-05 4.4948e-08 -7.5612e-08)
(-1.9617e-05 1.4755e-07 -2.4861e-07)
(-2.2533e-05 1.1583e-07 -1.9617e-07)
(-2.5415e-05 1.9016e-09 -4.3693e-09)
(-2.8261e-05 -1.3376e-07 2.2472e-07)
(-3.1058e-05 -2.6664e-07 4.4885e-07)
(-3.38e-05 -3.9869e-07 6.7103e-07)
(-3.6481e-05 -5.4023e-07 9.0881e-07)
(-3.9095e-05 -7.0266e-07 1.1815e-06)
(-4.163e-05 -8.9815e-07 1.5098e-06)
(-4.4068e-05 -1.1406e-06 1.9169e-06)
(-4.6391e-05 -1.4446e-06 2.4276e-06)
(-4.8579e-05 -1.8233e-06 3.064e-06)
(-5.0608e-05 -2.2888e-06 3.8463e-06)
(-5.2444e-05 -2.8544e-06 4.797e-06)
(-5.4046e-05 -3.5384e-06 5.947e-06)
(-5.5364e-05 -4.366e-06 7.3388e-06)
(-5.6356e-05 -5.3679e-06 9.0244e-06)
(-5.6988e-05 -6.5727e-06 1.1052e-05)
(-5.7236e-05 -7.996e-06 1.3448e-05)
(-5.7074e-05 -9.6359e-06 1.6209e-05)
(-5.6468e-05 -1.148e-05 1.9314e-05)
(-5.5384e-05 -1.3513e-05 2.274e-05)
(-5.3794e-05 -1.5723e-05 2.6465e-05)
(-5.1691e-05 -1.8093e-05 3.0459e-05)
(-4.9107e-05 -2.058e-05 3.4653e-05)
(-4.612e-05 -2.3102e-05 3.8907e-05)
(-4.285e-05 -2.552e-05 4.2986e-05)
(-3.943e-05 -2.7638e-05 4.6561e-05)
(-3.5954e-05 -2.923e-05 4.925e-05)
(-3.2444e-05 -3.0103e-05 5.0726e-05)
(-2.8872e-05 -3.0169e-05 5.0839e-05)
(-2.5223e-05 -2.9467e-05 4.9659e-05)
(-2.1566e-05 -2.8113e-05 4.738e-05)
(-1.8071e-05 -2.6204e-05 4.4165e-05)
(-1.4938e-05 -2.3765e-05 4.0055e-05)
(-1.2297e-05 -2.0774e-05 3.5012e-05)
(-1.0136e-05 -1.7246e-05 2.9065e-05)
(-8.3084e-06 -1.3336e-05 2.2471e-05)
(-6.6168e-06 -9.3768e-06 1.5795e-05)
(-4.94e-06 -5.8174e-06 9.7925e-06)
(-3.3172e-06 -3.0576e-06 5.1403e-06)
(-1.9077e-06 -1.2825e-06 2.151e-06)
(-8.2738e-07 -3.8517e-07 6.4324e-07)
(0 0 0)
(0 0 0)
(-4.9872e-06 -1.4779e-07 4.587e-07)
(-9.5065e-06 -1.8509e-07 5.7525e-07)
(-1.335e-05 -9.5862e-08 2.997e-07)
(-1.6636e-05 3.2847e-08 -9.899e-08)
(-1.9632e-05 1.0039e-07 -3.0933e-07)
(-2.2539e-05 7.8556e-08 -2.4272e-07)
(-2.5419e-05 3.2063e-09 -9.2927e-09)
(-2.8266e-05 -8.5064e-08 2.6466e-07)
(-3.1065e-05 -1.7042e-07 5.2927e-07)
(-3.3807e-05 -2.5468e-07 7.9002e-07)
(-3.6489e-05 -3.4484e-07 1.0688e-06)
(-3.9105e-05 -4.4835e-07 1.3886e-06)
(-4.1641e-05 -5.7301e-07 1.7736e-06)
(-4.4081e-05 -7.277e-07 2.2517e-06)
(-4.6407e-05 -9.2178e-07 2.852e-06)
(-4.8598e-05 -1.1638e-06 3.6007e-06)
(-5.0631e-05 -1.4613e-06 4.5213e-06)
(-5.2472e-05 -1.8226e-06 5.6399e-06)
(-5.408e-05 -2.2593e-06 6.9927e-06)
(-5.5403e-05 -2.7878e-06 8.6304e-06)
(-5.6398e-05 -3.4282e-06 1.0615e-05)
(-5.7034e-05 -4.1986e-06 1.3005e-05)
(-5.7286e-05 -5.1092e-06 1.5832e-05)
(-5.7127e-05 -6.1587e-06 1.9092e-05)
(-5.6525e-05 -7.3387e-06 2.2758e-05)
(-5.5444e-05 -8.6397e-06 2.6803e-05)
(-5.3853e-05 -1.0054e-05 3.1203e-05)
(-5.1746e-05 -1.1571e-05 3.5924e-05)
(-4.9153e-05 -1.3165e-05 4.0887e-05)
(-4.6152e-05 -1.4783e-05 4.5929e-05)
(-4.2867e-05 -1.6337e-05 5.0773e-05)
(-3.9437e-05 -1.7699e-05 5.5024e-05)
(-3.5958e-05 -1.8724e-05 5.8226e-05)
(-3.245e-05 -1.9285e-05 5.9982e-05)
(-2.8878e-05 -1.9325e-05 6.0114e-05)
(-2.522e-05 -1.8873e-05 5.871e-05)
(-2.1546e-05 -1.8004e-05 5.6011e-05)
(-1.8029e-05 -1.6784e-05 5.2215e-05)
(-1.4883e-05 -1.5226e-05 4.7369e-05)
(-1.2244e-05 -1.3313e-05 4.1415e-05)
(-1.0099e-05 -1.1049e-05 3.4373e-05)
(-8.2924e-06 -8.534e-06 2.6543e-05)
(-6.6134e-06 -5.9833e-06 1.8601e-05)
(-4.9333e-06 -3.6906e-06 1.146e-05)
(-3.2961e-06 -1.918e-06 5.9411e-06)
(-1.8765e-06 -7.8678e-07 2.4245e-06)
(-8.0374e-07 -2.268e-07 6.92e-07)
(0 0 0)
(0 0 0)
(-5.0619e-06 -6.8827e-08 5.5959e-07)
(-9.6163e-06 -8.5549e-08 6.984e-07)
(-1.3445e-05 -4.274e-08 3.5651e-07)
(-1.6691e-05 1.8016e-08 -1.3063e-07)
(-1.9655e-05 4.9225e-08 -3.8006e-07)
(-2.2548e-05 3.8361e-08 -2.933e-07)
(-2.5427e-05 3.2309e-09 -1.5047e-08)
(-2.8276e-05 -3.6808e-08 3.01e-07)
(-3.1075e-05 -7.4667e-08 6.0021e-07)
(-3.3818e-05 -1.1158e-07 8.9304e-07)
(-3.6502e-05 -1.5096e-07 1.206e-06)
(-3.912e-05 -1.9618e-07 1.5653e-06)
(-4.166e-05 -2.5072e-07 1.9982e-06)
(-4.4103e-05 -3.1846e-07 2.5363e-06)
(-4.6433e-05 -4.0357e-07 3.2133e-06)
(-4.8629e-05 -5.0982e-07 4.0588e-06)
(-5.0668e-05 -6.4049e-07 5.0986e-06)
(-5.2517e-05 -7.9908e-07 6.3618e-06)
(-5.4133e-05 -9.9063e-07 7.8888e-06)
(-5.5464e-05 -1.2225e-06 9.7375e-06)
(-5.6466e-05 -1.5038e-06 1.198e-05)
(-5.7107e-05 -1.8427e-06 1.4685e-05)
(-5.7363e-05 -2.2436e-06 1.7891e-05)
(-5.721e-05 -2.7058e-06 2.1591e-05)
(-5.6615e-05 -3.2256e-06 2.5751e-05)
(-5.5538e-05 -3.7985e-06 3.0341e-05)
(-5.3948e-05 -4.4212e-06 3.5335e-05)
(-5.1835e-05 -5.0897e-06 4.07e-05)
(-4.9226e-05 -5.7936e-06 4.635e-05)
(-4.6203e-05 -6.51e-06 5.2104e-05)
(-4.2894e-05 -7.1994e-06 5.7647e-05)
(-3.9447e-05 -7.8051e-06 6.2527e-05)
(-3.5963e-05 -8.261e-06 6.6208e-05)
(-3.2459e-05 -8.5101e-06 6.8226e-05)
(-2.8889e-05 -8.5268e-06 6.8367e-05)
(-2.5218e-05 -8.325e-06 6.6749e-05)
(-2.1513e-05 -7.941e-06 6.3668e-05)
(-1.7962e-05 -7.4043e-06 5.9361e-05)
(-1.4794e-05 -6.7206e-06 5.3875e-05)
(-1.2158e-05 -5.8785e-06 4.7122e-05)
(-1.004e-05 -4.8774e-06 3.9099e-05)
(-8.2684e-06 -3.7591e-06 3.0138e-05)
(-6.6105e-06 -2.6219e-06 2.1018e-05)
(-4.9242e-06 -1.6e-06 1.2816e-05)
(-3.2611e-06 -8.1405e-07 6.5061e-06)
(-1.823e-06 -3.1947e-07 2.5392e-06)
(-7.6284e-07 -8.4216e-08 6.6095e-07)
(0 0 0)
(0 0 0)
(-5.1721e-06 3.1137e-11 6.8359e-07)
(-9.7777e-06 9.4502e-11 8.4819e-07)
(-1.3583e-05 1.944e-10 4.2178e-07)
(-1.677e-05 3.0859e-10 -1.7465e-07)
(-1.9686e-05 4.0771e-10 -4.6849e-07)
(-2.2561e-05 4.7614e-10 -3.5387e-07)
(-2.5438e-05 5.1526e-10 -2.2981e-08)
(-2.8289e-05 5.3171e-10 3.3729e-07)
(-3.109e-05 5.3288e-10 6.6956e-07)
(-3.3834e-05 5.2007e-10 9.9194e-07)
(-3.652e-05 4.811e-10 1.3366e-06)
(-3.9142e-05 4.0496e-10 1.7326e-06)
(-4.1686e-05 2.9209e-10 2.2099e-06)
(-4.4134e-05 1.4838e-10 2.8043e-06)
(-4.6469e-05 -1.9319e-11 3.554e-06)
(-4.8672e-05 -2.0464e-10 4.4918e-06)
(-5.072e-05 -4.11e-10 5.6458e-06)
(-5.258e-05 -6.4495e-10 7.0469e-06)
(-5.4209e-05 -9.005e-10 8.7396e-06)
(-5.5552e-05 -1.1756e-09 1.0789e-05)
(-5.6563e-05 -1.4781e-09 1.3277e-05)
(-5.721e-05 -1.8131e-09 1.6286e-05)
(-5.7474e-05 -2.1805e-09 1.986e-05)
(-5.733e-05 -2.5881e-09 2.3988e-05)
(-5.6744e-05 -3.0527e-09 2.863e-05)
(-5.5674e-05 -3.5807e-09 3.375e-05)
(-5.4085e-05 -4.1664e-09 3.9323e-05)
(-5.1962e-05 -4.81e-09 4.5317e-05)
(-4.9332e-05 -5.5121e-09 5.1643e-05)
(-4.6277e-05 -6.2405e-09 5.8106e-05)
(-4.2933e-05 -6.9197e-09 6.4356e-05)
(-3.9461e-05 -7.464e-09 6.9878e-05)
(-3.597e-05 -7.8184e-09 7.4055e-05)
(-3.2473e-05 -7.9771e-09 7.6338e-05)
(-2.8906e-05 -7.9664e-09 7.6481e-05)
(-2.5217e-05 -7.7954e-09 7.4637e-05)
(-2.1468e-05 -7.4602e-09 7.117e-05)
(-1.7865e-05 -6.9578e-09 6.6366e-05)
(-1.4664e-05 -6.2867e-09 6.0267e-05)
(-1.2033e-05 -5.4699e-09 5.2742e-05)
(-9.9545e-06 -4.5422e-09 4.375e-05)
(-8.2335e-06 -3.5607e-09 3.3642e-05)
(-6.6067e-06 -2.6045e-09 2.331e-05)
(-4.9111e-06 -1.7473e-09 1.4017e-05)
(-3.209e-06 -1.0524e-09 6.9092e-06)
(-1.7429e-06 -5.5165e-10 2.5198e-06)
(-7.0149e-07 -2.2464e-10 5.5415e-07)
(0 0 0)
(0 0 0)
(-5.062e-06 -5.5958e-07 -6.8762e-08)
(-9.6164e-06 -6.9833e-07 -8.5501e-08)
(-1.3445e-05 -3.5636e-07 -4.2804e-08)
(-1.6691e-05 1.3087e-07 1.7795e-08)
(-1.9655e-05 3.8037e-07 4.8872e-08)
(-2.2548e-05 2.9366e-07 3.7939e-08)
(-2.5427e-05 1.546e-08 2.799e-09)
(-2.8276e-05 -3.0053e-07 -3.7211e-08)
(-3.1075e-05 -5.9967e-07 -7.5021e-08)
(-3.3819e-05 -8.9243e-07 -1.1188e-07)
(-3.6502e-05 -1.2054e-06 -1.5116e-07)
(-3.912e-05 -1.5647e-06 -1.9625e-07)
(-4.166e-05 -1.9976e-06 -2.506e-07)
(-4.4103e-05 -2.5358e-06 -3.181e-07)
(-4.6433e-05 -3.2128e-06 -4.0291e-07)
(-4.8629e-05 -4.0584e-06 -5.088e-07)
(-5.0668e-05 -5.0984e-06 -6.3904e-07)
(-5.2517e-05 -6.3617e-06 -7.971e-07)
(-5.4133e-05 -7.8889e-06 -9.8803e-07)
(-5.5464e-05 -9.7376e-06 -1.2192e-06)
(-5.6466e-05 -1.198e-05 -1.4996e-06)
(-5.7107e-05 -1.4686e-05 -1.8375e-06)
(-5.7363e-05 -1.7891e-05 -2.2373e-06)
(-5.7211e-05 -2.1591e-05 -2.6983e-06)
(-5.6615e-05 -2.5752e-05 -3.2166e-06)
(-5.5538e-05 -3.0341e-05 -3.7878e-06)
(-5.3948e-05 -3.5336e-05 -4.4088e-06)
(-5.1835e-05 -4.0701e-05 -5.0754e-06)
(-4.9226e-05 -4.6351e-05 -5.7773e-06)
(-4.6203e-05 -5.2105e-05 -6.4917e-06)
(-4.2894e-05 -5.7648e-05 -7.1792e-06)
(-3.9447e-05 -6.2528e-05 -7.7833e-06)
(-3.5962e-05 -6.621e-05 -8.2382e-06)
(-3.2459e-05 -6.8227e-05 -8.4868e-06)
(-2.8888e-05 -6.8368e-05 -8.5035e-06)
(-2.5218e-05 -6.675e-05 -8.3023e-06)
(-2.1513e-05 -6.3669e-05 -7.9193e-06)
(-1.7962e-05 -5.9362e-05 -7.3841e-06)
(-1.4794e-05 -5.3875e-05 -6.7024e-06)
(-1.2158e-05 -4.7123e-05 -5.8627e-06)
(-1.004e-05 -3.91e-05 -4.8642e-06)
(-8.2684e-06 -3.0138e-05 -3.7488e-06)
(-6.6105e-06 -2.1018e-05 -2.6144e-06)
(-4.9242e-06 -1.2817e-05 -1.595e-06)
(-3.2611e-06 -6.5064e-06 -8.1106e-07)
(-1.823e-06 -2.5394e-06 -3.1791e-07)
(-7.6283e-07 -6.6102e-07 -8.3591e-08)
(0 0 0)
(0 0 0)
(-4.9056e-06 -3.9711e-07 1.5005e-10)
(-9.3858e-06 -5.0148e-07 2.1005e-10)
(-1.3244e-05 -2.6868e-07 1.6241e-10)
(-1.6572e-05 7.4686e-08 6.6813e-11)
(-1.9604e-05 2.6163e-07 3.3902e-12)
(-2.2527e-05 2.0858e-07 9.3177e-12)
(-2.541e-05 2.6041e-09 7.1137e-11)
(-2.8256e-05 -2.4777e-07 1.5965e-10)
(-3.1053e-05 -4.9513e-07 2.5439e-10)
(-3.3794e-05 -7.4119e-07 3.4972e-10)
(-3.6474e-05 -1.0047e-06 4.5249e-10)
(-3.9087e-05 -1.3068e-06 5.7407e-10)
(-4.162e-05 -1.6704e-06 7.2481e-10)
(-4.4056e-05 -2.1213e-06 9.1559e-10)
(-4.6377e-05 -2.6865e-06 1.1593e-09)
(-4.8563e-05 -3.3904e-06 1.4701e-09)
(-5.0588e-05 -4.2557e-06 1.8642e-09)
(-5.2421e-05 -5.3076e-06 2.3572e-09)
(-5.4018e-05 -6.5805e-06 2.963e-09)
(-5.5332e-05 -8.1214e-06 3.7027e-09)
(-5.632e-05 -9.9869e-06 4.6025e-09)
(-5.695e-05 -1.223e-05 5.6785e-09)
(-5.7195e-05 -1.4879e-05 6.9364e-09)
(-5.7029e-05 -1.7933e-05 8.3822e-09)
(-5.642e-05 -2.1368e-05 1.0014e-08)
(-5.5334e-05 -2.5158e-05 1.1814e-08)
(-5.3743e-05 -2.9282e-05 1.3761e-08)
(-5.1643e-05 -3.3703e-05 1.5842e-08)
(-4.9067e-05 -3.8343e-05 1.8022e-08)
(-4.609e-05 -4.3046e-05 2.0202e-08)
(-4.2832e-05 -4.7551e-05 2.2225e-08)
(-3.9421e-05 -5.1494e-05 2.3906e-08)
(-3.5947e-05 -5.446e-05 2.5079e-08)
(-3.2436e-05 -5.6092e-05 2.5689e-08)
(-2.8865e-05 -5.6225e-05 2.5738e-08)
(-2.5223e-05 -5.4931e-05 2.5198e-08)
(-2.1582e-05 -5.2416e-05 2.406e-08)
(-1.8104e-05 -4.8855e-05 2.2371e-08)
(-1.4982e-05 -4.4298e-05 2.0184e-08)
(-1.2341e-05 -3.8712e-05 1.7554e-08)
(-1.017e-05 -3.2137e-05 1.4563e-08)
(-8.3268e-06 -2.4865e-05 1.1376e-08)
(-6.6257e-06 -1.7516e-05 8.2405e-09)
(-4.9513e-06 -1.091e-05 5.4293e-09)
(-3.3395e-06 -5.78e-06 3.1778e-09)
(-1.9371e-06 -2.4625e-06 1.5989e-09)
(-8.4887e-07 -7.5999e-07 6.2215e-10)
(0 0 0)
(0 0 0)
(-4.8395e-06 -3.1627e-07 6.3778e-08)
(-9.287e-06 -4.0155e-07 8.0918e-08)
(-1.3155e-05 -2.1971e-07 4.4169e-08)
(-1.6516e-05 5.2787e-08 -1.0733e-08)
(-1.9578e-05 2.0488e-07 -4.1168e-08)
(-2.2515e-05 1.6531e-07 -3.2995e-08)
(-2.5401e-05 -2.1512e-09 7.1554e-10)
(-2.8246e-05 -2.1159e-07 4.2719e-08)
(-3.1042e-05 -4.2238e-07 8.499e-08)
(-3.3782e-05 -6.3371e-07 1.2742e-07)
(-3.6461e-05 -8.603e-07 1.7295e-07)
(-3.9072e-05 -1.1201e-06 2.2515e-07)
(-4.1602e-05 -1.4325e-06 2.8794e-07)
(-4.4034e-05 -1.8195e-06 3.6569e-07)
(-4.6351e-05 -2.3038e-06 4.6295e-07)
(-4.8532e-05 -2.9063e-06 5.8396e-07)
(-5.0551e-05 -3.6467e-06 7.3265e-07)
(-5.2376e-05 -4.547e-06 9.1344e-07)
(-5.3965e-05 -5.6368e-06 1.1322e-06)
(-5.5271e-05 -6.9559e-06 1.397e-06)
(-5.6253e-05 -8.5514e-06 1.7172e-06)
(-5.6877e-05 -1.0467e-05 2.1015e-06)
(-5.7117e-05 -1.2726e-05 2.5547e-06)
(-5.6945e-05 -1.5329e-05 3.0765e-06)
(-5.633e-05 -1.8256e-05 3.6633e-06)
(-5.524e-05 -2.1486e-05 4.3107e-06)
(-5.3649e-05 -2.4999e-05 5.0146e-06)
(-5.1556e-05 -2.8762e-05 5.7683e-06)
(-4.8994e-05 -3.2705e-05 6.5578e-06)
(-4.6038e-05 -3.6692e-05 7.356e-06)
(-4.2802e-05 -4.0501e-05 8.1185e-06)
(-3.9407e-05 -4.3828e-05 8.784e-06)
(-3.5939e-05 -4.6326e-05 9.2835e-06)
(-3.2427e-05 -4.7703e-05 9.5583e-06)
(-2.8856e-05 -4.782e-05 9.5811e-06)
(-2.5228e-05 -4.6732e-05 9.3623e-06)
(-2.1615e-05 -4.46e-05 8.9344e-06)
(-1.8168e-05 -4.1566e-05 8.326e-06)
(-1.5066e-05 -3.7676e-05 7.5464e-06)
(-1.2423e-05 -3.2916e-05 6.5927e-06)
(-1.0228e-05 -2.7334e-05 5.4746e-06)
(-8.3557e-06 -2.1187e-05 4.2435e-06)
(-6.6365e-06 -1.4991e-05 3.0029e-06)
(-4.9664e-06 -9.4216e-06 1.888e-06)
(-3.3744e-06 -5.0776e-06 1.0183e-06)
(-1.9851e-06 -2.234e-06 4.4876e-07)
(-8.8446e-07 -7.2688e-07 1.4638e-07)
(0 0 0)
(0 0 0)
(-4.8004e-06 -2.467e-07 1.2406e-07)
(-9.2283e-06 -3.1426e-07 1.5802e-07)
(-1.3101e-05 -1.7411e-07 8.7541e-08)
(-1.6482e-05 3.7867e-08 -1.887e-08)
(-1.9561e-05 1.5773e-07 -7.8745e-08)
(-2.2507e-05 1.2794e-07 -6.3533e-08)
(-2.5396e-05 -4.204e-09 2.6962e-09)
(-2.8241e-05 -1.7214e-07 8.6641e-08)
(-3.1036e-05 -3.4305e-07 1.7209e-07)
(-3.3775e-05 -5.1532e-07 2.583e-07)
(-3.6453e-05 -7.0025e-07 3.5091e-07)
(-3.9063e-05 -9.1225e-07 4.5708e-07)
(-4.159e-05 -1.1671e-06 5.8472e-07)
(-4.4021e-05 -1.4826e-06 7.4265e-07)
(-4.6335e-05 -1.877e-06 9.4008e-07)
(-4.8513e-05 -2.3674e-06 1.1856e-06)
(-5.0529e-05 -2.9698e-06 1.4871e-06)
(-5.2349e-05 -3.7025e-06 1.8539e-06)
(-5.3932e-05 -4.5895e-06 2.2978e-06)
(-5.5233e-05 -5.663e-06 2.8351e-06)
(-5.6211e-05 -6.9607e-06 3.4845e-06)
(-5.6832e-05 -8.5171e-06 4.2632e-06)
(-5.7069e-05 -1.0352e-05 5.181e-06)
(-5.6893e-05 -1.2464e-05 6.2375e-06)
(-5.6275e-05 -1.4839e-05 7.4257e-06)
(-5.5182e-05 -1.7461e-05 8.7368e-06)
(-5.3591e-05 -2.0312e-05 1.0162e-05)
(-5.1502e-05 -2.3363e-05 1.1688e-05)
(-4.8949e-05 -2.6557e-05 1.3284e-05)
(-4.6006e-05 -2.9783e-05 1.4896e-05)
(-4.2784e-05 -3.286e-05 1.6434e-05)
(-3.9398e-05 -3.5544e-05 1.7775e-05)
(-3.5934e-05 -3.7557e-05 1.8781e-05)
(-3.2421e-05 -3.8668e-05 1.9335e-05)
(-2.8852e-05 -3.8765e-05 1.9383e-05)
(-2.5232e-05 -3.7887e-05 1.8943e-05)
(-2.1635e-05 -3.6161e-05 1.8079e-05)
(-1.8207e-05 -3.3698e-05 1.6847e-05)
(-1.5117e-05 -3.0538e-05 1.5267e-05)
(-1.2472e-05 -2.6674e-05 1.3335e-05)
(-1.0264e-05 -2.2155e-05 1.1076e-05)
(-8.3741e-06 -1.7191e-05 8.5942e-06)
(-6.6441e-06 -1.2195e-05 6.0972e-06)
(-4.9764e-06 -7.705e-06 3.853e-06)
(-3.3955e-06 -4.1937e-06 2.098e-06)
(-2.0134e-06 -1.8785e-06 9.4044e-07)
(-9.052e-07 -6.2829e-07 3.1488e-07)
(0 0 0)
(0 0 0)
(-4.7875e-06 -1.8395e-07 1.8403e-07)
(-9.2089e-06 -2.3457e-07 2.3472e-07)
(-1.3084e-05 -1.3046e-07 1.3068e-07)
(-1.647e-05 2.737e-08 -2.7079e-08)
(-1.9556e-05 1.1681e-07 -1.1646e-07)
(-2.2505e-05 9.4746e-08 -9.4336e-08)
(-2.5394e-05 -3.9736e-09 4.4378e-09)
(-2.8239e-05 -1.2997e-07 1.3048e-07)
(-3.1034e-05 -2.5869e-07 2.5925e-07)
(-3.3773e-05 -3.8875e-07 3.8934e-07)
(-3.6451e-05 -5.2847e-07 5.2907e-07)
(-3.9059e-05 -6.8867e-07 6.8925e-07)
(-4.1587e-05 -8.8124e-07 8.818e-07)
(-4.4016e-05 -1.1195e-06 1.12e-06)
(-4.633e-05 -1.4173e-06 1.4177e-06)
(-4.8507e-05 -1.7874e-06 1.7878e-06)
(-5.0521e-05 -2.2421e-06 2.2425e-06)
(-5.2339e-05 -2.7951e-06 2.7954e-06)
(-5.3921e-05 -3.4646e-06 3.4649e-06)
(-5.5221e-05 -4.2747e-06 4.275e-06)
(-5.6197e-05 -5.2538e-06 5.2542e-06)
(-5.6817e-05 -6.4276e-06 6.4281e-06)
(-5.7052e-05 -7.8108e-06 7.8115e-06)
(-5.6876e-05 -9.403e-06 9.4039e-06)
(-5.6256e-05 -1.1194e-05 1.1195e-05)
(-5.5162e-05 -1.317e-05 1.3171e-05)
(-5.3572e-05 -1.5318e-05 1.532e-05)
(-5.1484e-05 -1.7618e-05 1.7619e-05)
(-4.8934e-05 -2.0023e-05 2.0025e-05)
(-4.5995e-05 -2.2452e-05 2.2454e-05)
(-4.2777e-05 -2.4767e-05 2.4769e-05)
(-3.9395e-05 -2.6785e-05 2.6788e-05)
(-3.5932e-05 -2.8299e-05 2.8301e-05)
(-3.2419e-05 -2.9134e-05 2.9136e-05)
(-2.885e-05 -2.9206e-05 2.9209e-05)
(-2.5234e-05 -2.8546e-05 2.8549e-05)
(-2.1642e-05 -2.7246e-05 2.7248e-05)
(-1.8221e-05 -2.5389e-05 2.5391e-05)
(-1.5134e-05 -2.3006e-05 2.3008e-05)
(-1.2489e-05 -2.0094e-05 2.0096e-05)
(-1.0276e-05 -1.6691e-05 1.6692e-05)
(-8.3804e-06 -1.2955e-05 1.2957e-05)
(-6.6469e-06 -9.1988e-06 9.1997e-06)
(-4.9798e-06 -5.8223e-06 5.8229e-06)
(-3.4025e-06 -3.1796e-06 3.18e-06)
(-2.0227e-06 -1.4328e-06 1.433e-06)
(-9.1199e-07 -4.8348e-07 4.8357e-07)
(0 0 0)
(0 0 0)
(-4.8004e-06 -1.2398e-07 2.4676e-07)
(-9.2283e-06 -1.5785e-07 3.1439e-07)
(-1.3101e-05 -8.7298e-08 1.7431e-07)
(-1.6481e-05 1.9182e-08 -3.7599e-08)
(-1.9561e-05 7.912e-08 -1.574e-07)
(-2.2507e-05 6.3964e-08 -1.2755e-07)
(-2.5396e-05 -2.2116e-09 4.6461e-09)
(-2.8241e-05 -8.6108e-08 1.7263e-07)
(-3.1036e-05 -1.7151e-07 3.436e-07)
(-3.3775e-05 -2.577e-07 5.1591e-07)
(-3.6453e-05 -3.503e-07 7.0086e-07)
(-3.9062e-05 -4.5649e-07 9.1285e-07)
(-4.159e-05 -5.8417e-07 1.1677e-06)
(-4.4021e-05 -7.4216e-07 1.4831e-06)
(-4.6335e-05 -9.3964e-07 1.8774e-06)
(-4.8513e-05 -1.1852e-06 2.3677e-06)
(-5.0529e-05 -1.4868e-06 2.9701e-06)
(-5.2349e-05 -1.8536e-06 3.7028e-06)
(-5.3932e-05 -2.2975e-06 4.5897e-06)
(-5.5233e-05 -2.8347e-06 5.6632e-06)
(-5.6211e-05 -3.484e-06 6.9609e-06)
(-5.6832e-05 -4.2626e-06 8.5174e-06)
(-5.7069e-05 -5.1802e-06 1.0352e-05)
(-5.6893e-05 -6.2365e-06 1.2464e-05)
(-5.6275e-05 -7.4243e-06 1.484e-05)
(-5.5182e-05 -8.7352e-06 1.7462e-05)
(-5.3591e-05 -1.016e-05 2.0313e-05)
(-5.1502e-05 -1.1686e-05 2.3364e-05)
(-4.8949e-05 -1.3282e-05 2.6559e-05)
(-4.6006e-05 -1.4894e-05 2.9784e-05)
(-4.2784e-05 -1.6431e-05 3.2862e-05)
(-3.9398e-05 -1.7772e-05 3.5545e-05)
(-3.5934e-05 -1.8778e-05 3.7559e-05)
(-3.2421e-05 -1.9332e-05 3.8669e-05)
(-2.8852e-05 -1.9379e-05 3.8766e-05)
(-2.5232e-05 -1.894e-05 3.7889e-05)
(-2.1635e-05 -1.8076e-05 3.6163e-05)
(-1.8207e-05 -1.6844e-05 3.37e-05)
(-1.5117e-05 -1.5264e-05 3.0539e-05)
(-1.2472e-05 -1.3333e-05 2.6676e-05)
(-1.0264e-05 -1.1074e-05 2.2156e-05)
(-8.3741e-06 -8.5927e-06 1.7192e-05)
(-6.6441e-06 -6.0961e-06 1.2196e-05)
(-4.9764e-06 -3.8523e-06 7.7053e-06)
(-3.3954e-06 -2.0975e-06 4.1939e-06)
(-2.0134e-06 -9.4018e-07 1.8786e-06)
(-9.052e-07 -3.1477e-07 6.2833e-07)
(0 0 0)
(0 0 0)
(-4.8394e-06 -6.3687e-08 3.1632e-07)
(-9.287e-06 -8.0739e-08 4.0166e-07)
(-1.3155e-05 -4.391e-08 2.1988e-07)
(-1.6516e-05 1.1063e-08 -5.2543e-08)
(-1.9578e-05 4.1561e-08 -2.0458e-07)
(-2.2515e-05 3.3446e-08 -1.6495e-07)
(-2.5401e-05 -2.1279e-10 2.5693e-09)
(-2.8246e-05 -4.2169e-08 2.1207e-07)
(-3.1042e-05 -8.4403e-08 4.2291e-07)
(-3.3782e-05 -1.2681e-07 6.3429e-07)
(-3.6461e-05 -1.7234e-07 8.609e-07)
(-3.9072e-05 -2.2456e-07 1.1207e-06)
(-4.1602e-05 -2.874e-07 1.4331e-06)
(-4.4034e-05 -3.652e-07 1.82e-06)
(-4.6351e-05 -4.6251e-07 2.3042e-06)
(-4.8532e-05 -5.8357e-07 2.9066e-06)
(-5.0551e-05 -7.323e-07 3.647e-06)
(-5.2376e-05 -9.131e-07 4.5472e-06)
(-5.3965e-05 -1.1319e-06 5.6369e-06)
(-5.5271e-05 -1.3966e-06 6.9559e-06)
(-5.6253e-05 -1.7167e-06 8.5515e-06)
(-5.6877e-05 -2.1008e-06 1.0467e-05)
(-5.7117e-05 -2.5538e-06 1.2726e-05)
(-5.6945e-05 -3.0753e-06 1.5329e-05)
(-5.633e-05 -3.6618e-06 1.8256e-05)
(-5.524e-05 -4.309e-06 2.1487e-05)
(-5.3649e-05 -5.0126e-06 2.5e-05)
(-5.1556e-05 -5.7659e-06 2.8763e-05)
(-4.8994e-05 -6.5552e-06 3.2705e-05)
(-4.6038e-05 -7.3531e-06 3.6692e-05)
(-4.2802e-05 -8.1153e-06 4.0502e-05)
(-3.9407e-05 -8.7807e-06 4.3828e-05)
(-3.5939e-05 -9.28e-06 4.6327e-05)
(-3.2427e-05 -9.5547e-06 4.7703e-05)
(-2.8856e-05 -9.5775e-06 4.7821e-05)
(-2.5228e-05 -9.3587e-06 4.6733e-05)
(-2.1615e-05 -8.931e-06 4.4601e-05)
(-1.8168e-05 -8.3229e-06 4.1567e-05)
(-1.5066e-05 -7.5436e-06 3.7677e-05)
(-1.2423e-05 -6.5902e-06 3.2916e-05)
(-1.0228e-05 -5.4726e-06 2.7335e-05)
(-8.3557e-06 -4.2419e-06 2.1187e-05)
(-6.6364e-06 -3.0017e-06 1.4991e-05)
(-4.9664e-06 -1.8872e-06 9.4217e-06)
(-3.3744e-06 -1.0178e-06 5.0776e-06)
(-1.9851e-06 -4.4848e-07 2.234e-06)
(-8.8446e-07 -1.4627e-07 7.2686e-07)
(0 0 0)
(0 0 0)
(-4.9055e-06 -5.5865e-11 3.9715e-07)
(-9.3857e-06 -2.4835e-11 5.0157e-07)
(-1.3244e-05 1.0696e-10 2.6883e-07)
(-1.6572e-05 2.772e-10 -7.4467e-08)
(-1.9604e-05 4.0559e-10 -2.6135e-07)
(-2.2527e-05 4.5682e-10 -2.0825e-07)
(-2.541e-05 4.4625e-10 -2.2125e-09)
(-2.8256e-05 4.0258e-10 2.4822e-07)
(-3.1053e-05 3.4236e-10 4.9565e-07)
(-3.3794e-05 2.6537e-10 7.4177e-07)
(-3.6474e-05 1.5969e-10 1.0053e-06)
(-3.9087e-05 1.2005e-11 1.3074e-06)
(-4.162e-05 -1.8592e-10 1.671e-06)
(-4.4056e-05 -4.3763e-10 2.1218e-06)
(-4.6377e-05 -7.4454e-10 2.6869e-06)
(-4.8563e-05 -1.1092e-09 3.3908e-06)
(-5.0588e-05 -1.5388e-09 4.2559e-06)
(-5.2421e-05 -2.0425e-09 5.3078e-06)
(-5.4018e-05 -2.6289e-09 6.5805e-06)
(-5.5332e-05 -3.3121e-09 8.1213e-06)
(-5.632e-05 -4.1112e-09 9.9868e-06)
(-5.695e-05 -5.0396e-09 1.223e-05)
(-5.7195e-05 -6.1043e-09 1.4879e-05)
(-5.7029e-05 -7.3165e-09 1.7933e-05)
(-5.642e-05 -8.6845e-09 2.1368e-05)
(-5.5334e-05 -1.0202e-08 2.5158e-05)
(-5.3743e-05 -1.1859e-08 2.9282e-05)
(-5.1643e-05 -1.3651e-08 3.3703e-05)
(-4.9067e-05 -1.5556e-08 3.8343e-05)
(-4.609e-05 -1.7486e-08 4.3046e-05)
(-4.2832e-05 -1.9291e-08 4.7551e-05)
(-3.9421e-05 -2.0794e-08 5.1494e-05)
(-3.5947e-05 -2.1841e-08 5.446e-05)
(-3.2436e-05 -2.2376e-08 5.6092e-05)
(-2.8865e-05 -2.2417e-08 5.6225e-05)