/*--------------------------------*- C++ -*----------------------------------*\
  =========                 |
  \\      /  F ield         | OpenFOAM: The Open Source CFD Toolbox
   \\    /   O peration     | Website:  https://openfoam.org
    \\  /    A nd           | Version:  8
     \\/     M anipulation  |
\*---------------------------------------------------------------------------*/
FoamFile
{
    version     2.0;
    format      ascii;
    class       surfaceVectorField;
    location    "0.0515000";
    object      Uf;
}
// * * * * * * * * * * * * * * * * * * * * * * * * * * * * * * * * * * * * * //

dimensions      [0 1 -1 0 0 0 0];

internalField   nonuniform List<vector> 
1094
(
(0.614486603640947 0.00052895660918952 -2.0871601062729e-18)
(0.381334541506226 0.00174719002758862 -3.9774279134145e-18)
(0.614753370800038 0.000379413912262199 4.71385448435834e-19)
(0.383283181307235 0.0018776811657649 -6.36390787876076e-18)
(0.614917534317563 0.000368881275852311 -7.238592651229e-19)
(0.383448624623418 0.00197247524809855 -2.8878742129477e-18)
(0.614894369764621 0.000401455111084869 -6.25531934664075e-18)
(0.383450800993202 0.0021172421675666 -8.16884250098996e-18)
(0.614757532135939 0.000419384806230663 -6.87010448166851e-18)
(0.38321686729028 0.00220539986394125 -1.61413466044192e-17)
(0.614570199233721 0.000429096896196911 -8.51498198533279e-18)
(0.382853933414752 0.00224883437024315 -1.03932464372958e-17)
(0.614364456574519 0.000435696855943401 -2.61161453407017e-17)
(0.382441390075189 0.00227104829766476 -1.09085751345844e-17)
(0.614152073727685 0.000440776900672091 -2.57245610529406e-17)
(0.382010802536737 0.00228487534219565 -3.81595561892641e-17)
(0.613934669795758 0.000445140294215712 1.10981249166565e-17)
(0.381570701913583 0.00229536151540622 -1.54366974175879e-17)
(0.613712526956443 0.000449480281990927 3.95791438605133e-17)
(0.381122163184066 0.00230521238445455 1.58517474142336e-17)
(0.613486058215621 0.000453889518855866 2.04206009796773e-17)
(0.38066541022424 0.00231544221099633 5.11696781557028e-17)
(0.613255026147886 0.000457990356588819 4.29530339600463e-17)
(0.380200307447006 0.00232573929220222 2.03598025018798e-17)
(0.613017931129002 0.000461748172997875 7.39262964937798e-17)
(0.379725711406871 0.00233541156872402 1.12914372791512e-16)
(0.612774530261423 0.000465554856685902 4.83325367302654e-17)
(0.379240548264929 0.0023450193453091 1.01309809309225e-16)
(0.612525337727473 0.000469474912769014 3.11441555625363e-17)
(0.378744728632372 0.00235508396738107 6.87532122350382e-17)
(0.612270351565873 0.000473170560908134 4.02001714623325e-17)
(0.378238316595762 0.00236527675581318 3.41130460004598e-17)
(0.612008273094461 0.000476636373128958 4.59398635523462e-17)
(0.377720425582389 0.00237498847236939 1.24231212638291e-16)
(0.611738734400361 0.000480259113453357 6.79200118588819e-18)
(0.377190036246053 0.00238481149218491 7.12870876077824e-17)
(0.611462164843619 0.000484074124757999 1.55706563462516e-18)
(0.376646915598663 0.00239526770186724 -5.45292839433383e-17)
(0.611178690254589 0.000487703664644839 6.40132320126422e-17)
(0.376091143000633 0.00240598799936637 4.23886264304315e-17)
(0.610886948590993 0.000491132774122092 1.09628047274709e-16)
(0.375521853883375 0.00241627889484223 1.3976527389308e-16)
(0.610586489443177 0.000494791382283961 8.00839904142721e-17)
(0.374937836752932 0.00242677956730386 2.34327128138909e-16)
(0.610277761563081 0.000498753378890166 6.60116618839276e-17)
(0.374338856192517 0.00243811165746713 7.4913997552584e-17)
(0.609960971446067 0.000502580144342823 8.39627015302843e-17)
(0.373724962256937 0.00244992571044264 1.73595410452027e-16)
(0.609634745430474 0.000506219238107537 6.84187747581672e-17)
(0.373095229039192 0.00246132612247044 1.59478505385346e-16)
(0.609298617117769 0.000510217690779783 3.15503622347316e-17)
(0.372448442862564 0.00247305157221682 1.11331642380979e-16)
(0.608953062505608 0.000514724079270105 3.88595201952539e-17)
(0.371784305727661 0.0024859838280361 2.7343654478142e-18)
(0.608598225322614 0.000519205350836245 8.59613941578394e-17)
(0.37110284055176 0.00249974026830862 1.38704035373953e-16)
(0.608232464588401 0.000523554680682263 1.2423394088698e-16)
(0.370402927483461 0.00251316933672484 2.02593411544617e-16)
(0.607855386441009 0.000528463403880397 9.39332030281012e-17)
(0.369683154539619 0.00252711001244849 1.61918322649683e-16)
(0.607467989338744 0.000534166013220877 7.37912886057979e-17)
(0.36894359113205 0.00254281785103954 6.54441608491517e-17)
(0.607070481919705 0.000539968624055168 4.47543140130809e-17)
(0.368184476262736 0.0025598065668164 8.94733580239402e-17)
(0.606660951036212 0.000545764616355017 -1.32510410029845e-17)
(0.367404448783708 0.00257653208708905 -4.45542236624641e-17)
(0.606239031332661 0.000552630448186838 -6.28436185384379e-18)
(0.366602127813834 0.00259422056013356 -2.28971602863577e-17)
(0.605806518363975 0.000560907709054952 7.0164144698225e-18)
(0.365778006144728 0.00261494329548752 -2.92635065528452e-18)
(0.605363831700247 0.000569540892337264 2.29931269580855e-17)
(0.364932912035674 0.00263776150064133 3.01435267620762e-17)
(0.604908677088494 0.00057842164604313 7.2516637126226e-17)
(0.364065455174189 0.00266048075848147 5.4728189807849e-17)
(0.604440845136887 0.000589310182055866 6.71112768140543e-17)
(0.363174261437912 0.0026849464810969 2.39590745497797e-16)
(0.60396384072717 0.000602745023154344 8.54571029299002e-19)
(0.362261190486366 0.00271473702416003 3.16944618063112e-17)
(0.603478964819392 0.000616836333160923 2.03393795546516e-18)
(0.361328442704522 0.00274808667016214 -6.39048190165606e-17)
(0.602983405732885 0.000631468932343471 5.17453527823718e-17)
(0.360374894419667 0.0027810662300064 3.90401163053782e-17)
(0.602477155182987 0.000649950276158025 9.20466881641937e-17)
(0.359399950884295 0.00281714243832709 1.61387620839936e-16)
(0.601966991586681 0.000673046644332586 1.20662392450787e-16)
(0.358407614102118 0.00286310843984757 2.04728511292861e-16)
(0.601455721994808 0.000697308341627285 1.00499155896584e-16)
(0.35740317466157 0.00291479423627861 1.72339137858925e-16)
(0.600940396782904 0.000722788008011347 4.38585811630564e-17)
(0.356386905129397 0.00296584660020012 1.21205778361236e-16)
(0.600422210412004 0.000755619688301246 2.69023928572466e-17)
(0.355360303495751 0.00302249290945543 4.56471641638323e-17)
(0.599915155297148 0.000796535435459093 9.60348041965368e-17)
(0.354333414547397 0.00309767851060881 5.21443978524259e-17)
(0.599423156664736 0.000839075024477793 1.4194088185836e-16)
(0.353316978373118 0.00318106442957641 1.40979191190467e-16)
(0.598944683035363 0.000883941826105142 1.55134828636242e-16)
(0.352313999082112 0.00326305849588809 2.31710827474131e-16)
(0.598483910493026 0.000942625411554719 4.17195516766627e-17)
(0.351332760566567 0.0033548844434807 2.06354805394418e-16)
(0.598068408260096 0.00101510296075216 -6.1699078998974e-17)
(0.350394816127897 0.00348129796875188 -1.94559889563006e-16)
(0.597704109031309 0.00108917563147896 -1.74053000218155e-17)
(0.34952174902578 0.00361789262128208 -3.82104821768226e-17)
(0.597394698916228 0.00116725340370818 -4.98456361844926e-17)
(0.348724190405985 0.00375117147181246 -2.57853932064834e-17)
(0.597151272043848 0.00127099353260954 -7.71470824318666e-17)
(0.348025942263069 0.00390114774649519 -1.40640656026522e-16)
(0.597027750094867 0.00139716721828101 -8.53294532061892e-17)
(0.347473145501054 0.00411543111312624 -1.36683055069565e-16)
(0.597032004397121 0.00152248562259846 -4.49578628400474e-17)
(0.347106174112447 0.00433681536764202 -5.10921216262424e-17)
(0.597188326295957 0.00165401982213778 3.36457256048265e-17)
(0.346955443599905 0.0045500964956311 2.3381891527312e-17)
(0.597528060578648 0.00183795217686066 1.13833277541246e-16)
(0.347087844777301 0.00479200196034547 1.10505408365887e-16)
(0.598198057882877 0.00209395952267972 7.82730591496985e-17)
(0.347618191109235 0.00516886829528076 9.23790759411541e-17)
(0.599395271933541 0.00239556682044187 1.51235244892071e-16)
(0.348764001169228 0.00563733275759408 -3.9258500726191e-17)
(0.601410773222403 0.00276586257221908 2.87998328836347e-16)
(0.350790618163284 0.00616214820478708 3.94193589235233e-16)
(0.604484098319725 0.00338737769817614 1.42352481378379e-16)
(0.354201595252685 0.00684970103513945 5.28455132278888e-16)
(0.609141006867567 0.00416992522841107 -7.89875952820102e-18)
(0.359532591558172 0.00814251316879526 4.59317089011257e-17)
(0.615269986843613 0.00487804999654438 -5.12296165843553e-17)
(0.367077973584117 0.00931791992323627 -7.7619091371994e-17)
(0.622949595194639 0.0055704839030821 -1.16946963366894e-16)
(0.377072695771599 0.0103682897151539 -1.48401131862806e-16)
(0.632201147367529 0.00638236192128473 -6.11869074012112e-17)
(0.389795730798922 0.0114647114295462 -3.20027564582167e-16)
(0.643354723413588 0.00707018582678692 2.03240297275494e-18)
(0.405395157312622 0.0128166915763529 9.92085934990552e-17)
(0.656132967204934 0.00745252274916186 -1.48393698479264e-17)
(0.42386855961164 0.0134747032049003 -1.06497057870818e-16)
(0.670596482101979 0.00774684064411092 1.70347624806763e-17)
(0.445327490385493 0.0138446177149765 2.56502944120104e-17)
(0.686718724716305 0.00795779351950373 -2.31371005380274e-17)
(0.469554615519215 0.0141466869138655 4.42538493812781e-17)
(0.704415437445108 0.00791745135678757 -6.75013470204742e-17)
(0.496414015397159 0.0141761965494487 -3.22847278656892e-17)
(0.723382642548777 0.00762754877439147 7.71816678497228e-18)
(0.525637319560978 0.0136422593551085 -1.35922987184357e-16)
(0.743464299045393 0.00721203156691918 -1.4083011901729e-18)
(0.556921541510197 0.0128483314262922 6.80363242689437e-17)
(0.764507491604148 0.00663133911618618 -8.08763158891196e-17)
(0.589824719785691 0.0118550465750328 -2.70481082226023e-16)
(0.786254787749429 0.00589120741294014 -9.4121475799743e-17)
(0.624061730389672 0.0105030282308874 -5.44971045442788e-17)
(0.808558257116814 0.00507489003378306 -1.02699856672908e-16)
(0.659367555591941 0.00898722526861936 -2.41763492189775e-16)
(0.831323194023756 0.00416544619558987 -4.74118662712817e-17)
(0.695366132921497 0.0073657466327395 -1.89460961386302e-16)
(0.854371134050932 0.00322307223758534 2.64674604195097e-17)
(0.731928244281217 0.00554361085649472 -2.4778330682135e-18)
(0.877770926066529 0.00233320442190308 8.74275692159464e-18)
(0.768967145990452 0.00381951848699749 1.08593744273058e-16)
(0.901596941768739 0.00147574943427581 -6.62694259326667e-17)
(0.80653291369709 0.00215829364613735 -7.00176273343795e-17)
(0.925831637908634 0.000673430206138273 -5.66238620888048e-17)
(0.844580075807608 0.00052242106799267 -2.1228312275337e-16)
(0.950776452011259 6.608086474357e-06 -7.11161472809542e-17)
(0.883729377824893 -0.000970280729774571 -3.25733986418184e-17)
(0.976636590715003 -0.000580827766768748 -1.22966818594055e-16)
(0.923452470365306 -0.0021892266349303 -1.60227241958787e-16)
(1.00430077744267 -0.000881036106333761 -3.73578210519263e-17)
(0.96677532425228 -0.00335519578302219 -2.42525483710094e-16)
(1.03261909151183 -0.00117915900938256 4.3109316715596e-17)
(1.00866837203225 -0.00391223263057764 9.81882715728938e-18)
(1.06219791265923 -0.00051926086205873 3.96266746106688e-17)
(1.06205894591927 -0.00441973698267873 8.06737877793504e-17)
(1.06213229383557 3.98015994496523e-05 4.95694512883068e-17)
(1.08421963256765 -0.000514812340607001 4.18930883791876e-19)
(1.0647883190866 0.000160531197938093 7.26569151176818e-18)
(1.07856892174738 -0.000489235389917034 1.21447595504568e-16)
(1.06555934212513 0.000277659354483383 -4.83936143567364e-17)
(1.08293929775611 -4.52057743766872e-05 -7.59922214469315e-17)
(1.06649278877277 0.000327211304226957 -3.22948844616422e-17)
(1.08186711096266 6.2283555306712e-05 -1.00831517229814e-16)
(1.06679774717888 0.000400588094371379 -3.26288742284777e-18)
(1.08252214218683 0.000246531983722965 -2.7979414956455e-17)
(1.06678780828073 0.00042848380670158 1.0759419569484e-17)
(1.08179436243692 0.000365385720092866 1.47903760085998e-17)
(1.06648596445281 0.000425347777506677 4.80768019442343e-18)
(1.08112452401572 0.000427503840900269 2.76080509764295e-17)
(1.06603530114283 0.000423255605551854 -1.14955155744348e-17)
(1.0801380788923 0.000463455455954884 2.06940667933081e-17)
(1.06543653753798 0.000408860159205228 -2.71529597186399e-17)
(1.0790542732054 0.000492219189469712 -3.2910469890072e-17)
(1.06476499430269 0.000382540189501871 -1.97200375385213e-17)
(1.07783519546417 0.000493178821732099 -3.5461997513807e-17)
(1.06406088666866 0.000356260724339926 -1.18094173740357e-17)
(1.07661065995086 0.000484756991086323 -7.10465367631434e-18)
(1.06332266281383 0.000327591107017754 -1.12315398718738e-17)
(1.07533120199204 0.000464290175762799 -2.20765385482177e-17)
(1.06241272664379 0.000366256902264896 -1.70021683026982e-18)
(1.07417075917912 0.000436831736821601 -4.78889467949168e-18)
(1.07268389194661 0.000339669985761269 -1.55633946331867e-18)
(0.147405867770365 0.00336964631096075 -8.30211215426265e-18)
(-0.00571531539620689 0.00512636377389817 -1.05323845647605e-17)
(0.148534982486792 0.00386722035637137 -9.78627838284544e-18)
(-0.00279197637611468 0.00563944717134984 -1.55867434852523e-17)
(0.148861875269405 0.00422121440265407 -1.04097707672975e-17)
(-0.0026426131970801 0.00632209465067294 -1.21905053409197e-17)
(0.148672111281893 0.00446857974347994 -1.81518632559082e-17)
(-0.0028366728403568 0.00683542782159835 -1.39060838252404e-17)
(0.148221969357355 0.0046008899739555 -1.97377723326949e-17)
(-0.00335246751846405 0.0071084987912774 -1.1493147151566e-17)
(0.147658430378045 0.00466481182989111 -1.28163757155607e-17)
(-0.00403106254912014 0.00723424683606376 -1.1218098496658e-17)
(0.147049291519053 0.00469810509291277 -2.29918692874681e-17)
(-0.00477392233409419 0.00729258062092293 -3.86841111854583e-18)
(0.146420105223867 0.00471977222642426 -2.78344268044241e-17)
(-0.00554328176801323 0.00732492347617037 -3.64630257823381e-17)
(0.145777482451682 0.00473780744140676 -1.07518504664325e-17)
(-0.00632871594589726 0.00734860082884635 -2.69807151586526e-17)
(0.14512264140141 0.00475540638432855 2.74465192116042e-17)
(-0.0071284935667854 0.00737039270680959 -2.35703079765963e-17)
(0.144455813063004 0.0047732732761859 5.12301389783531e-17)
(-0.00794236503805166 0.00739250825421834 3.05414614781477e-17)
(0.143776263908962 0.00479098160064615 9.08357497996978e-17)
(-0.0087706215125121 0.00741490301520319 5.32297611222818e-17)
(0.14308232217283 0.00480845088001411 1.40679349293366e-16)
(-0.00961463314641298 0.00743704808829944 1.73673138326779e-16)
(0.142373195577134 0.00482618139843964 1.22098980380484e-16)
(-0.0104758081137846 0.00745931161298281 1.95140661192192e-16)
(0.141648907436685 0.00484427124359732 7.18814549430971e-17)
(-0.0113545366762608 0.00748216585140759 1.15784549997826e-16)
(0.140908907101835 0.0048622836818019 1.18834232202666e-16)
(-0.0122510628023437 0.00750531893780127 1.87343578495949e-17)
(0.140151679048841 0.00488022548122219 1.50055339660318e-16)
(-0.01316661626237 0.00752832662994223 1.26817231390145e-16)
(0.139376417541225 0.00489864934015509 9.66085950026619e-18)
(-0.0141025751854198 0.00755166676465201 7.91514979068592e-17)
(0.138583094370343 0.00491763744745722 -1.35327282037679e-17)
(-0.0150593992397815 0.00757584961723195 -1.62475055002916e-17)
(0.137771125143365 0.00493667833107369 1.18706644469949e-16)
(-0.0160373689894041 0.00760052733506404 8.98644867409102e-17)
(0.136938830917835 0.00495576177554719 2.6558925607657e-16)
(-0.0170378302555071 0.00762517414086328 2.00626829189558e-16)
(0.136085251611516 0.00497553039216012 2.29550496897272e-16)
(-0.0180623975058651 0.00765032655835337 4.0242708524079e-16)
(0.135210325171985 0.00499612734001693 1.8341030917022e-16)
(-0.0191116178195981 0.00767661269142399 1.53183817782145e-16)
(0.134313458226153 0.00501693726272795 2.49966474989108e-16)
(-0.0201857898130533 0.00770367832467855 2.76189265106841e-16)
(0.133392759791843 0.0050379059803049 2.02970521060175e-16)
(-0.0212864273196229 0.00773081148276647 3.19732477432991e-16)
(0.132447118581199 0.00505988159352209 8.24693799688098e-17)
(-0.0224153860290133 0.00775866679803973 2.16226139919559e-16)
(0.131476523727891 0.00508313119457219 1.0331249559975e-16)
(-0.0235732729673544 0.0077881476832939 8.99676541676596e-17)
(0.130480338200656 0.00510687890356316 2.56399107215278e-16)
(-0.0247603221308102 0.00781886010110247 2.92486975838751e-16)
(0.129456349262089 0.00513099588443251 2.40742596517457e-16)
(-0.025978272867754 0.00784983844946765 2.87795107543358e-16)
(0.128403362375058 0.00515660004010365 1.3332721054187e-16)
(-0.0272293219442049 0.00788186528744129 1.89381654949256e-16)
(0.127321741763433 0.00518410657282493 8.12385372294807e-17)
(-0.0285138717310155 0.00791622131872209 1.03775071181285e-16)
(0.126210953095026 0.00521247038666324 -4.83498673421792e-19)
(-0.0298318319997185 0.00795241554011113 7.26328602518374e-17)
(0.125068397576996 0.00524158435782085 -5.43258286945985e-17)
(-0.0311852176159937 0.00798909567319512 -1.22003951167803e-16)
(0.123892980568483 0.00527324709256717 -1.95351621689717e-17)
(-0.0325764973970686 0.00802750670506441 -4.51479034810239e-17)
(0.122686085459383 0.00530808027749348 2.03745971332909e-17)
(-0.0340053955524878 0.00806974815794585 -8.07928160226431e-18)
(0.121447633187284 0.00534442866970515 6.21421897759634e-17)
(-0.0354708085060297 0.00811490391476102 6.06742261760059e-17)
(0.120174694856229 0.00538219629925958 2.23130301247982e-16)
(-0.0369748098016095 0.00816092484749497 2.02471583903549e-16)
(0.118866740148174 0.0054243991756735 2.04034483563202e-16)
(-0.0385200627721941 0.00820982098563954 5.42390877016742e-16)
(0.11752756929934 0.00547202185080055 -3.35650977017739e-17)
(-0.0401044075329153 0.00826522234476613 3.46318891784753e-17)
(0.116158572809165 0.00552196529601273 -2.66371717660194e-17)
(-0.0417241873461329 0.00832532632485181 1.01143964494388e-17)
(0.114756381191939 0.00557413218655012 1.49562340340173e-16)
(-0.0433812723432599 0.00838628433543584 4.78025793224164e-17)
(0.113322008510657 0.00563430285016415 2.74998968272621e-16)
(-0.0450782297357189 0.00845202255815336 2.21652726026239e-16)
(0.111864660054856 0.00570391815996091 2.56833365814883e-16)
(-0.0468086111531028 0.00852942429138778 3.10764283610218e-16)
(0.110388854824343 0.0057771002453781 1.93210274826317e-16)
(-0.048563056107024 0.00861426099795506 2.36305852370286e-16)
(0.108891753868702 0.00585403151198231 1.22992721394917e-16)
(-0.0503421147791786 0.00869989545988975 2.41666934628818e-16)
(0.107378897408866 0.00594564430956323 7.1088652049232e-17)
(-0.0521468562552756 0.00879379765416218 8.10247481703188e-17)
(0.105871357116655 0.00605334397424934 9.7480614674472e-17)
(-0.0539601630539849 0.00890884684715106 9.56549353660716e-17)
(0.104379261221666 0.00616571100037158 2.31487963796664e-16)
(-0.0557612146580588 0.00903469936370175 8.7892329008389e-17)
(0.102902586635954 0.00628405596209659 2.8328755680639e-16)
(-0.0575477379396803 0.00916035001991921 3.14369866110428e-16)
(0.101457590966145 0.00642919950368059 -3.20603937324408e-17)
(-0.0593154002049516 0.00930017358272568 1.9976177390245e-16)
(0.100090109977837 0.00660112643963168 -1.70716514849533e-16)
(-0.0610238494376847 0.00947837268677148 -2.32903222379431e-16)
(0.0988214416632966 0.00677759195681033 -4.66323150046237e-17)
(-0.0626288316164124 0.00967045744148612 -6.01789787438441e-17)
(0.0976602134787718 0.00696293420256804 -1.17386571533126e-16)
(-0.0641210666000608 0.0098589784473833 -3.90469935262541e-17)
(0.0966469024737027 0.00719689643525007 -2.00577164463052e-16)
(-0.0654827326952069 0.0100714078837718 -2.55027360419566e-16)
(0.0958790110515666 0.00747325007401424 -1.02056914426528e-16)
(-0.0666216500254045 0.0103531466017357 -2.78171667201013e-16)
(0.0953978068580273 0.00774856717251192 1.78496741367281e-17)
(-0.067448322819034 0.0106466212138692 5.35560504626971e-17)
(0.0952366140394423 0.00803619771912992 1.0093574588454e-16)
(-0.0679390510801114 0.0109271099910719 4.57146143993153e-17)
(0.0954970301260602 0.00842312548869309 8.88626813347589e-17)
(-0.0680402000984558 0.0112483379149611 2.29022773290372e-16)
(0.0964501378015526 0.00894712518511203 -2.62410000050715e-17)
(-0.0675415905559446 0.0117222815836257 -6.34514283939226e-17)
(0.0983959701483168 0.00955890794572315 2.06348034858991e-16)
(-0.0660992613927691 0.0123084218660524 -1.05125784121971e-16)
(0.101688002234623 0.0103053990009817 6.36725021472314e-16)
(-0.0634161607594856 0.0129506574078319 5.62611064660123e-16)
(0.106915411197895 0.0115223340892495 4.3047302137387e-16)
(-0.0590741158721959 0.013836845401964 8.58760319633285e-16)
(0.115166577356159 0.013027652241168 -2.45091990238152e-17)
(-0.0519088396934451 0.0153609222417123 8.10283144986699e-17)
(0.12666017417971 0.0143653588539989 -1.75647281805521e-16)
(-0.0410774360550121 0.0167772917025646 -1.58997210030638e-16)
(0.141592749873609 0.0156366435377145 -3.53316410795323e-16)
(-0.0265117578423738 0.0179787093563681 -8.78850356810313e-17)
(0.160422199978445 0.0170805282703951 -1.58192101407502e-16)
(-0.0078610006757174 0.0192375688414834 -4.33841600947986e-16)
(0.18380451754468 0.0182221639082223 -1.0162910109762e-17)
(0.0158401450469942 0.0206515492838203 1.5489499046444e-16)
(0.211182052986808 0.0187223057100048 -6.56897187570094e-17)
(0.0445615016324691 0.0212416664748654 -2.44099175549427e-16)
(0.242415934940735 0.0189849826615036 5.30571683951623e-17)
(0.0776590552377381 0.0213829778935515 -7.23812346287502e-17)
(0.277599445978415 0.0190165186783703 3.505755727783e-17)
(0.115211144403529 0.0213780603400239 9.07572983552717e-17)
(0.316476526134815 0.0184995197529533 -1.01031106381982e-16)
(0.157309301878325 0.0209532079771917 -6.0568841722603e-17)
(0.358300706953057 0.0174494586047002 -7.52607304497958e-17)
(0.203211821881447 0.0198111846368266 -2.7991030371904e-16)
(0.402653611181346 0.0161027784891394 -2.01979215780003e-16)
(0.252165809195142 0.0182864485033361 4.95628340723704e-17)
(0.449165444317041 0.0143946892724573 -2.43765959965245e-16)
(0.303822737719048 0.0164572419326921 -4.55308293100024e-16)
(0.497233147007482 0.0123511512149818 -2.02447959628245e-16)
(0.357588751294199 0.0141753732423115 -9.89410446793482e-17)
(0.546481578613266 0.0101340118687604 -3.28086680230798e-16)
(0.412850394109709 0.0116616066070466 -5.08273107110945e-16)
(0.596610563122583 0.00772286545197913 -1.43847516920312e-16)
(0.469261411789356 0.00898020713688387 -4.03509553570722e-16)
(0.647234132565475 0.00524739323683405 7.97664564182561e-17)
(0.526362620082843 0.00607644968675392 -4.91061599981899e-18)
(0.698468134430853 0.00286779563555585 2.92089257958835e-17)
(0.583919124886621 0.00327164505734621 1.29058883716227e-16)
(0.750435872955998 0.00054331857543383 -2.15615563062872e-16)
(0.642293978457609 0.000536711202417085 -1.38551399055794e-16)
(0.803193366301467 -0.00167365623069227 -1.8647747661484e-16)
(0.70124463794871 -0.00215847102603919 -3.55872600494718e-16)
(0.857216211154382 -0.00363872188569184 -1.21972985882626e-16)
(0.761591481593527 -0.0046825202633862 -5.89481348100561e-17)
(0.913363489261578 -0.00544936565000225 -2.78725642846564e-16)
(0.822639914259396 -0.00687979282689364 -2.28830406447643e-16)
(0.972439920532673 -0.00675935035503776 -1.91684030208138e-16)
(0.889057690398159 -0.00903478269822603 -4.82972792296719e-16)
(1.03510884514481 -0.00757282449192501 4.79342170533693e-17)
(0.953065993463216 -0.0104034132684658 -5.89844238718592e-17)
(1.09438343779458 -0.00407543739733887 4.12181241581717e-17)
(1.03533729899126 -0.0109553260779147 1.59699526911172e-16)
(1.09644744570499 -0.000606378475647766 7.19262658116469e-17)
(1.06870853714545 -0.000720375673347551 -7.57640286553714e-17)
(1.09788432277647 -0.000211124742633276 3.77877019527736e-17)
(1.05830231218248 -0.000632619745019881 1.6978296266533e-16)
(1.09812831788805 8.60697123010884e-05 -1.27645730999481e-16)
(1.06404776759624 -7.47471497348839e-05 -1.34890345873653e-16)
(1.09783816939794 0.000257420797726972 -9.58568055346934e-17)
(1.06141385158678 7.63029762739729e-05 -1.62295870145979e-16)
(1.09706294800228 0.000443963888622611 -9.81723098461096e-18)
(1.06155418518329 0.000300512938378959 -5.51876855313142e-17)
(1.09592114476326 0.000550325072157954 3.14862633222607e-17)
(1.05987560746041 0.000447795752031616 2.94617150545189e-17)
(1.09451687398632 0.000594288539952166 4.31879994204529e-17)
(1.05849562594405 0.000529289020376666 5.36626866917497e-17)
(1.09294922542722 0.00063240448080575 -8.78658139078091e-19)
(1.05667894809251 0.000574896446540794 7.03994575030493e-17)
(1.09126253878716 0.00064667322276856 -4.11211667894067e-17)
(1.05483618624468 0.000609813438441642 -6.15964725532473e-17)
(1.08950909516209 0.000637580317180837 -2.2785333538254e-17)
(1.05285348642835 0.000612753737826502 -3.49825480411098e-17)
(1.08774610157069 0.000623744711513783 -1.73570425029913e-17)
(1.05088383586189 0.000602035535171666 -1.35162700043918e-17)
(1.08603755742832 0.000606291774587048 -1.5583655446453e-17)
(1.04888423347032 0.000575886729892949 -2.66707246109341e-17)
(1.08448263493494 0.000648251809801753 -4.62800328104987e-18)
(1.04715916576707 0.000539866453049838 -8.99534806352558e-18)
(1.04553797078774 0.000390886192195018 -3.06275672055365e-18)
(-0.157299008427118 0.00748710745490218 -1.78904084317121e-17)
(-0.230716420708077 0.00836788076233564 -1.78889786251084e-17)
(-0.156247211360706 0.00827144985469591 -1.80371388647516e-17)
(-0.229055275752736 0.00920545519483487 -2.21186488216741e-17)
(-0.156242058176919 0.00917799837479836 -1.57246517504062e-17)
(-0.229539159392752 0.010639946604019 -1.4428838459596e-17)
(-0.156766304599013 0.00973106760289031 -7.17228012434471e-18)
(-0.230209235942315 0.0115232608416245 -1.78948556440048e-17)
(-0.157516973216262 0.0100028326230248 -2.86659280688773e-18)
(-0.231031865057928 0.0119516259467675 -3.01831343691342e-18)
(-0.158362117050719 0.0101268518015991 -2.18735670897983e-18)
(-0.231929082470561 0.012141574434999 -6.22513608775682e-18)
(-0.159248289362614 0.0101874775577224 -1.73790112837645e-17)
(-0.232858034799548 0.0122280779031558 -1.10211771426711e-17)
(-0.160156400204359 0.0102247791928707 -3.56351486528611e-17)
(-0.233805237777214 0.0122756910160972 -4.42324386973521e-17)
(-0.161081518906743 0.0102550539433555 -3.99679778714196e-17)
(-0.23476832992862 0.0123108975186706 -3.32947720997984e-17)
(-0.162022904774074 0.0102841963744098 -2.06357774178114e-17)
(-0.235747597393446 0.0123434024761318 -3.64743051958018e-17)
(-0.162980634952578 0.0103136914009475 3.24841736440926e-17)
(-0.236743356883941 0.0123761688219694 -2.14679564470174e-17)
(-0.16395554204033 0.0103433783597333 1.36626962653586e-16)
(-0.237756061006066 0.0124094645589975 4.92637806283902e-17)
(-0.164949079438731 0.0103731812159476 2.28697930929704e-16)
(-0.238786858504353 0.0124429374415022 1.86511381335861e-16)
(-0.165962225806527 0.0104034659436148 1.89013540528397e-16)
(-0.23983699457901 0.0124768017605359 2.15466675473497e-16)
(-0.166995394494364 0.0104343136452947 6.23392267411982e-17)
(-0.240907093339651 0.012511376199323 1.32311359226415e-16)
(-0.16804941700381 0.0104654001378051 2.64741188475718e-17)
(-0.241997693027477 0.0125464725913325 -3.4576394789282e-18)
(-0.169125733477348 0.0104967487844117 5.52637494512895e-17)
(-0.243109986505254 0.0125818030130853 9.62687967756824e-17)
(-0.170225356997508 0.0105288158761516 5.32322764238705e-17)
(-0.244245280863814 0.0126177100530535 9.51971712798328e-17)
(-0.171348754481534 0.0105616876783489 8.79827118856706e-17)
(-0.245404265836198 0.01265457434069 3.8938816865028e-17)
(-0.172496861732258 0.0105949771496426 1.72371142771622e-16)
(-0.246587547951563 0.012692172834447 5.87512486736581e-17)
(-0.17367133104208 0.0106286980153604 3.38402684530229e-16)
(-0.247796487562432 0.0127301566270943 1.63885045093945e-16)
(-0.17487336055982 0.0106633939353488 3.2587282792059e-16)
(-0.249032627402699 0.0127689193844213 4.05173519664024e-16)
(-0.176103485484294 0.0106992045175003 2.4663673476454e-16)
(-0.250296773553897 0.0128089381388011 2.04525538737082e-16)
(-0.177362730948794 0.0107356522823591 3.46573618557977e-16)
(-0.251589581993812 0.0128499810830674 3.1021868622491e-16)
(-0.178653032505355 0.010772722879683 3.33345076391493e-16)
(-0.252912622692192 0.0128915641629271 3.34118255543257e-16)
(-0.179975788265884 0.0108111498549491 2.24056738046894e-16)
(-0.254267731730216 0.0129341783007855 3.04587750456667e-16)
(-0.18133150183783 0.0108511854526469 2.80621952888369e-16)
(-0.255655789312041 0.0129785173605034 2.2968484198136e-16)
(-0.182721250583234 0.010892212741645 3.2419774498447e-16)
(-0.257077392967546 0.0130243188879454 3.5663030469197e-16)
(-0.184147295804784 0.0109341610370613 2.36106583075079e-16)
(-0.258534318974512 0.0130709060774527 2.53540161594473e-16)
(-0.185611181337127 0.010978010526788 1.59683842396686e-16)
(-0.260028741536241 0.0131188778829968 2.12744202005063e-16)
(-0.187113143808039 0.0110241481992457 9.513410173412e-17)
(-0.261561451328236 0.0131692236604596 1.29983137159637e-16)
(-0.188654177264794 0.0110717271814918 -4.97497617643482e-17)
(-0.263132769839122 0.0132216079289286 9.22096293092491e-17)
(-0.190236916266435 0.0111207165839974 -1.12835254676946e-16)
(-0.264744698573808 0.0132750600553055 -1.24297590166355e-16)
(-0.191862765786217 0.0111727143030816 -3.36294056804731e-17)
(-0.266399699447498 0.0133305486419227 -6.02005455311662e-17)
(-0.193530931025553 0.0112282982626516 3.25108310183019e-17)
(-0.268097902391233 0.013389701365334 -1.86491752157318e-17)
(-0.195241826897107 0.0112860832841074 2.02107856819604e-16)
(-0.269838597440623 0.0134518586862312 7.59553125915022e-17)
(-0.196998298120462 0.0113460703001302 5.24233688146408e-16)
(-0.271623733456552 0.013515496977457 3.16402321561046e-16)
(-0.198800977426047 0.0114109627114506 3.71837290397637e-16)
(-0.273455873061042 0.0135821949671147 7.5320397769157e-16)
(-0.200646449810035 0.0114816461357355 7.86832462673518e-17)
(-0.275333276227752 0.0136547727707209 -5.00238097602662e-17)