/*--------------------------------*- C++ -*----------------------------------*\
| =========                 |                                                 |
| \\      /  F ield         | OpenFOAM: The Open Source CFD Toolbox           |
|  \\    /   O peration     | Version:  4.1                                   |
|   \\  /    A nd           | Web:      www.OpenFOAM.org                      |
|    \\/     M anipulation  |                                                 |
\*---------------------------------------------------------------------------*/
FoamFile
{
    version     2.0;
    format      ascii;
    class       volScalarField;
    location    "9e-05";
    object      epsilon;
}
// * * * * * * * * * * * * * * * * * * * * * * * * * * * * * * * * * * * * * //

dimensions      [0 2 -3 0 0 0 0];

internalField   nonuniform List<scalar> 
6144
(
14.5311
14.5309
14.5309
14.5309
14.5309
14.5309
14.5309
14.5309
14.5309
14.5309
14.5309
14.5309
14.5309
14.5309
14.5309
14.5309
14.5309
14.5309
14.5309
14.5309
14.5309
14.5309
14.5309
14.5309
14.5309
14.5309
14.5309
14.5309
14.5309
14.5309
14.5309
14.5309
14.5309
14.5309
14.5309
14.5308
14.5308
14.5306
14.5302
14.5295
14.5286
14.5292
14.5359
14.5636
14.6507
14.8434
14.9315
14.6089
14.7318
14.7318
14.7318
14.7318
14.7318
14.7318
14.7318
14.7318
14.7318
14.7318
14.7318
14.7318
14.7318
14.7318
14.7318
14.7318
14.7318
14.7318
14.7318
14.7318
14.7318
14.7318
14.7318
14.7318
14.7318
14.7318
14.7318
14.7318
14.7318
14.7318
14.7318
14.7318
14.7318
14.7317
14.7317
14.7317
14.7316
14.7314
14.731
14.7304
14.7299
14.7308
14.7377
14.7636
14.84
15.0049
15.177
14.978
14.8065
14.8064
14.8064
14.8064
14.8064
14.8064
14.8064
14.8064
14.8064
14.8064
14.8064
14.8064
14.8064
14.8064
14.8064
14.8064
14.8064
14.8064
14.8064
14.8064
14.8064
14.8064
14.8064
14.8064
14.8064
14.8064
14.8064
14.8064
14.8064
14.8064
14.8064
14.8064
14.8064
14.8064
14.8064
14.8063
14.8062
14.8061
14.8058
14.8056
14.8058
14.808
14.8173
14.8463
14.9225
15.0734
15.2453
15.092
14.8287
14.8287
14.8286
14.8286
14.8286
14.8286
14.8286
14.8286
14.8287
14.8287
14.8287
14.8287
14.8287
14.8287
14.8287
14.8287
14.8287
14.8287
14.8287
14.8286
14.8286
14.8286
14.8286
14.8286
14.8286
14.8286
14.8286
14.8286
14.8286
14.8286
14.8286
14.8286
14.8286
14.8286
14.8286
14.8286
14.8285
14.8284
14.8283
14.8284
14.8292
14.8326
14.8436
14.8742
14.9474
15.083
15.2336
15.0949
14.8287
14.8287
14.8287
14.8287
14.8287
14.8287
14.8287
14.8287
14.8287
14.8287
14.8287
14.8287
14.8287
14.8287
14.8287
14.8287
14.8287
14.8287
14.8287
14.8287
14.8287
14.8287
14.8287
14.8287
14.8287
14.8287
14.8287
14.8287
14.8287
14.8287
14.8287
14.8287
14.8287
14.8286
14.8286
14.8286
14.8286
14.8286
14.8286
14.8289
14.8302
14.8342
14.8457
14.8747
14.9398
15.0542
15.1747
15.0596
14.8066
14.8066
14.8066
14.8066
14.8066
14.8066
14.8066
14.8066
14.8066
14.8066
14.8066
14.8066
14.8066
14.8066
14.8066
14.8066
14.8066
14.8066
14.8066
14.8066
14.8066
14.8066
14.8066
14.8066
14.8066
14.8066
14.8066
14.8066
14.8066
14.8066
14.8066
14.8066
14.8066
14.8066
14.8066
14.8066
14.8066
14.8066
14.8067
14.8072
14.8087
14.8128
14.8233
14.848
14.8997
14.9841
15.0609
14.9692
14.7329
14.7329
14.7329
14.7329
14.7329
14.7329
14.7329
14.7329
14.7329
14.7329
14.7329
14.7329
14.7329
14.7329
14.7329
14.7329
14.7329
14.7329
14.7329
14.7329
14.7329
14.7329
14.7329
14.7329
14.7329
14.7329
14.7329
14.7329
14.7329
14.7329
14.7329
14.7329
14.7329
14.7329
14.7329
14.7329
14.7329
14.733
14.7332
14.7338
14.7353
14.7391
14.748
14.7674
14.8048
14.8603
14.903
14.8467
14.5312
14.531
14.531
14.531
14.531
14.5309
14.5309
14.531
14.531
14.531
14.531
14.531
14.531
14.531
14.531
14.531
14.531
14.531
14.531
14.531
14.531
14.531
14.531
14.531
14.531
14.5309
14.5309
14.5309
14.5309
14.5309
14.5309
14.5309
14.531
14.531
14.531
14.531
14.5311
14.5314
14.5318
14.5328
14.5347
14.5389
14.5475
14.5642
14.5925
14.6294
14.6458
14.6115
14.7318
14.7318
14.7318
14.7318
14.7318
14.7318
14.7318
14.7318
14.7318
14.7318
14.7318
14.7318
14.7318
14.7318
14.7318
14.7318
14.7318
14.7318
14.7318
14.7318
14.7318
14.7318
14.7318
14.7318
14.7318
14.7318
14.7318
14.7318
14.7318
14.7318
14.7318
14.7318
14.7318
14.7318
14.7317
14.7317
14.7316
14.7314
14.7311
14.7305
14.7301
14.7308
14.7362
14.7559
14.8108
14.9209
15.0182
14.904
14.7751
14.7753
14.7753
14.7753
14.7753
14.7753
14.7753
14.7753
14.7753
14.7753
14.7753
14.7753
14.7753
14.7753
14.7753
14.7753
14.7753
14.7753
14.7753
14.7753
14.7753
14.7753
14.7753
14.7753
14.7753
14.7753
14.7753
14.7753
14.7753
14.7753
14.7753
14.7753
14.7752
14.7752
14.7752
14.7752
14.7751
14.7749
14.7747
14.7745
14.7747
14.7764
14.783
14.8032
14.8534
14.9455
15.0483
14.9447
14.7873
14.7874
14.7874
14.7874
14.7874
14.7874
14.7874
14.7874
14.7874
14.7874
14.7874
14.7874
14.7874
14.7874
14.7874
14.7874
14.7874
14.7874
14.7874
14.7874
14.7874
14.7874
14.7874
14.7874
14.7874
14.7874
14.7874
14.7874
14.7874
14.7874
14.7874
14.7874
14.7874
14.7874
14.7873
14.7873
14.7873
14.7872
14.7871
14.7872
14.788
14.7909
14.7996
14.8226
14.8742
14.9602
15.0515
14.9492
14.7902
14.7903
14.7903
14.7903
14.7903
14.7903
14.7903
14.7903
14.7903
14.7903
14.7903
14.7903
14.7903
14.7903
14.7903
14.7903
14.7903
14.7903
14.7903
14.7903
14.7903
14.7903
14.7903
14.7903
14.7903
14.7903
14.7903
14.7903
14.7903
14.7903
14.7903
14.7903
14.7903
14.7902
14.7902
14.7902
14.7902
14.7902
14.7903
14.7907
14.792
14.7959
14.8061
14.8305
14.8814
14.9605
15.0371
14.9395
14.7902
14.7903
14.7903
14.7903
14.7903
14.7903
14.7903
14.7903
14.7903
14.7903
14.7903
14.7903
14.7903
14.7903
14.7903
14.7903
14.7903
14.7903
14.7903
14.7903
14.7903
14.7903
14.7903
14.7903
14.7903
14.7903
14.7903
14.7903
14.7903
14.7903
14.7903
14.7903
14.7903
14.7903
14.7903
14.7903
14.7903
14.7903
14.7906
14.7912
14.7929
14.7974
14.8082
14.8322
14.8792
14.9479
15.0083
14.9211
14.7874
14.7875
14.7875
14.7875
14.7875
14.7875
14.7875
14.7875
14.7875
14.7875
14.7875
14.7875
14.7875
14.7875
14.7875
14.7875
14.7875
14.7875
14.7875
14.7875
14.7875
14.7875
14.7875
14.7875
14.7875
14.7875
14.7875
14.7875
14.7875
14.7875
14.7875
14.7875
14.7875
14.7875
14.7875
14.7875
14.7875
14.7877
14.788
14.7888
14.7907
14.7954
14.8059
14.8277
14.8678
14.9229
14.9666
14.8961
14.7755
14.7757
14.7757
14.7757
14.7757
14.7757
14.7757
14.7757
14.7757
14.7757
14.7757
14.7757
14.7757
14.7757
14.7757
14.7757
14.7757
14.7757
14.7757
14.7757
14.7757
14.7757
14.7757
14.7757
14.7757
14.7757
14.7757
14.7757
14.7757
14.7757
14.7757
14.7757
14.7757
14.7757
14.7757
14.7757
14.7758
14.776
14.7764
14.7773
14.7794
14.784
14.7937
14.8126
14.8448
14.8861
14.9143
14.8667
14.7319
14.7319
14.7319
14.7319
14.7319
14.7319
14.7319
14.7319
14.7319
14.7319
14.7319
14.7319
14.7319
14.7319
14.7319
14.7319
14.7319
14.7319
14.7319
14.7319
14.7319
14.7319
14.7319
14.7319
14.7319
14.7319
14.7319
14.7319
14.7319
14.7319
14.7319
14.7319
14.7319
14.7319
14.7319
14.732
14.7322
14.7325
14.7331
14.7344
14.737
14.7422
14.7522
14.7698
14.7967
14.8274
14.8375
14.8047
14.8065
14.8064
14.8064
14.8064
14.8064
14.8064
14.8064
14.8064
14.8064
14.8064
14.8064
14.8064
14.8064
14.8064
14.8064
14.8064
14.8064
14.8064
14.8064
14.8064
14.8064
14.8064
14.8064
14.8064
14.8064
14.8064
14.8064
14.8064
14.8064
14.8064
14.8064
14.8064
14.8064
14.8064
14.8064
14.8063
14.8062
14.8061
14.8058
14.8055
14.8055
14.8066
14.8118
14.8273
14.8647
14.9301
14.9869
14.9305
14.7873
14.7874
14.7874
14.7874
14.7874
14.7874
14.7874
14.7874
14.7874
14.7874
14.7874
14.7874
14.7874
14.7874
14.7874
14.7874
14.7874
14.7874
14.7874
14.7874
14.7874
14.7874
14.7874
14.7874
14.7874
14.7874
14.7874
14.7874
14.7874
14.7874
14.7874
14.7874
14.7874
14.7874
14.7873
14.7873
14.7873
14.7872
14.7871
14.7872
14.7878
14.7901
14.7969
14.8143
14.8515
14.9096
14.9669
14.9047
14.7873
14.7874
14.7874
14.7874
14.7874
14.7874
14.7874
14.7874
14.7874
14.7874
14.7874
14.7874
14.7874
14.7874
14.7874
14.7874
14.7874
14.7874
14.7874
14.7874
14.7874
14.7874
14.7874
14.7874
14.7874
14.7874
14.7874
14.7874
14.7874
14.7874
14.7874
14.7874
14.7874
14.7874
14.7874
14.7874
14.7874
14.7874
14.7875
14.7878
14.789
14.7924
14.801
14.8207
14.8597
14.9149
14.9659
14.8974
14.7875
14.7877
14.7877
14.7877
14.7877
14.7877
14.7877
14.7877
14.7877
14.7877
14.7877
14.7877
14.7877
14.7877
14.7877
14.7877
14.7877
14.7877
14.7877
14.7877
14.7877
14.7877
14.7877
14.7877
14.7877
14.7877
14.7877
14.7877
14.7877
14.7877
14.7877
14.7877
14.7876
14.7876
14.7876
14.7876
14.7877
14.7877
14.788
14.7886
14.7903
14.7945
14.8043
14.8253
14.8642
14.9155
14.9574
14.8896
14.7875
14.7877
14.7877
14.7877
14.7877
14.7877
14.7877
14.7877
14.7877
14.7877
14.7877
14.7877
14.7877
14.7877
14.7877
14.7877
14.7877
14.7877
14.7877
14.7877
14.7877
14.7877
14.7877
14.7877
14.7877
14.7877
14.7877
14.7877
14.7877
14.7877
14.7877
14.7877
14.7877
14.7877
14.7877
14.7877
14.7877
14.7879
14.7882
14.7891
14.7911
14.7958
14.8061
14.8269
14.8632
14.9087
14.942
14.879
14.7873
14.7875
14.7875
14.7875
14.7875
14.7875
14.7875
14.7875
14.7875
14.7875
14.7875
14.7875
14.7875
14.7875
14.7875
14.7875
14.7875
14.7875
14.7875
14.7875
14.7875
14.7875
14.7875
14.7875
14.7875
14.7875
14.7875
14.7875
14.7875
14.7875
14.7875
14.7875
14.7875
14.7875
14.7875
14.7875
14.7876
14.7878
14.7882
14.7892
14.7914
14.7963
14.8063
14.8254
14.8571
14.8949
14.9202
14.8672
14.7875
14.7876
14.7876
14.7876
14.7876
14.7876
14.7876
14.7876
14.7876
14.7876
14.7876
14.7876
14.7876
14.7876
14.7876
14.7876
14.7876
14.7876
14.7876
14.7876
14.7876
14.7876
14.7876
14.7876
14.7876
14.7876
14.7876
14.7876
14.7876
14.7876
14.7876
14.7876
14.7876
14.7876
14.7877
14.7877
14.7878
14.788
14.7885
14.7896
14.792
14.7967
14.8061
14.8229
14.8491
14.8788
14.895
14.8575
14.8065
14.8065
14.8065
14.8065
14.8065
14.8065
14.8065
14.8065
14.8065
14.8065
14.8065
14.8065
14.8065
14.8065
14.8065
14.8065
14.8065
14.8065
14.8065
14.8065
14.8065
14.8065
14.8065
14.8065
14.8065
14.8065
14.8065
14.8065
14.8065
14.8065
14.8065
14.8065
14.8065
14.8065
14.8066
14.8066
14.8068
14.8072
14.8079
14.8093
14.8121
14.8174
14.8271
14.8432
14.866
14.8892
14.8917
14.8618
14.8287
14.8287
14.8287
14.8286
14.8286
14.8286
14.8286
14.8286
14.8287
14.8287
14.8287
14.8287
14.8287
14.8287
14.8287
14.8287
14.8287
14.8287
14.8287
14.8286
14.8286
14.8286
14.8286
14.8286
14.8286
14.8286
14.8286
14.8286
14.8286
14.8286
14.8286
14.8286
14.8286
14.8286
14.8286
14.8286
14.8285
14.8284
14.8283
14.8282
14.8284
14.8298
14.8344
14.8464
14.8718
14.9107
14.9382
14.9047
14.7902
14.7903
14.7903
14.7903
14.7903
14.7903
14.7903
14.7903
14.7903
14.7903
14.7903
14.7903
14.7903
14.7903
14.7903
14.7903
14.7903
14.7903
14.7903
14.7903
14.7903
14.7903
14.7903
14.7903
14.7903
14.7903
14.7903
14.7903
14.7903
14.7903
14.7903
14.7903
14.7903
14.7902
14.7902
14.7902
14.7902
14.7902
14.7902
14.7905
14.7914
14.7941
14.8006
14.8153
14.843
14.8807
14.9121
14.8713
14.7875
14.7877
14.7877
14.7877
14.7877
14.7877
14.7877
14.7877
14.7877
14.7877
14.7877
14.7877
14.7877
14.7877
14.7877
14.7877
14.7877
14.7877
14.7877
14.7877
14.7877
14.7877
14.7877
14.7877
14.7877
14.7877
14.7877
14.7877
14.7877
14.7877
14.7877
14.7877
14.7876
14.7876
14.7876
14.7876
14.7877
14.7877
14.7879
14.7885
14.79
14.7935
14.8017
14.8184
14.848
14.8847
14.9134
14.8656
14.7874
14.7875
14.7875
14.7875
14.7875
14.7875
14.7875
14.7875
14.7875
14.7875
14.7875
14.7875
14.7875
14.7875
14.7875
14.7875
14.7875
14.7875
14.7875
14.7875
14.7875
14.7875
14.7875
14.7875
14.7875
14.7875
14.7875
14.7875
14.7875
14.7875
14.7875
14.7875
14.7875
14.7875
14.7875
14.7875
14.7876
14.7877
14.7881
14.7889
14.7908
14.795
14.8042
14.8219
14.8517
14.8861
14.9095
14.8611
14.7874
14.7875
14.7875
14.7875
14.7875
14.7875
14.7875
14.7875
14.7875
14.7875
14.7875
14.7875
14.7875
14.7875
14.7875
14.7875
14.7875
14.7875
14.7875
14.7875
14.7875
14.7875
14.7875
14.7875
14.7875
14.7875
14.7875
14.7875
14.7875
14.7875
14.7875
14.7875
14.7875
14.7875
14.7875
14.7876
14.7877
14.7878
14.7883
14.7893
14.7914
14.7961
14.8055
14.823
14.8511
14.8818
14.9007
14.8553
14.7876
14.7877
14.7877
14.7877
14.7877
14.7877
14.7877
14.7877
14.7877
14.7877
14.7877
14.7877
14.7877
14.7877
14.7877
14.7877
14.7877
14.7877
14.7877
14.7877
14.7877
14.7877
14.7877
14.7877
14.7877
14.7877
14.7877
14.7877
14.7877
14.7877
14.7877
14.7877
14.7877
14.7877
14.7877
14.7878
14.7879
14.7881
14.7886
14.7897
14.792
14.7967
14.8057
14.8218
14.8464
14.8722
14.8876
14.8487
14.7903
14.7904
14.7904
14.7904
14.7904
14.7904
14.7904
14.7904
14.7904
14.7904
14.7904
14.7904
14.7904
14.7904
14.7904
14.7904
14.7904
14.7904
14.7904
14.7904
14.7904
14.7904
14.7904
14.7904
14.7904
14.7904
14.7904
14.7904
14.7904
14.7904
14.7904
14.7904
14.7905
14.7905
14.7905
14.7906
14.7907
14.791
14.7915
14.7927
14.795
14.7996
14.808
14.8222
14.8427
14.8634
14.8733
14.8458
14.8287
14.8287
14.8287
14.8287
14.8287
14.8287
14.8287
14.8287
14.8287
14.8287
14.8287
14.8287
14.8287
14.8287
14.8287
14.8287
14.8287
14.8287
14.8287
14.8287
14.8287
14.8287
14.8287
14.8287
14.8287
14.8287
14.8287
14.8287
14.8287
14.8287
14.8287
14.8287
14.8287
14.8287
14.8288
14.8289
14.8291
14.8294
14.8302
14.8317
14.8345
14.8396
14.8484
14.8622
14.8805
14.8974
14.8964
14.8723
14.8287
14.8287
14.8287
14.8287
14.8287
14.8287
14.8287
14.8287
14.8287
14.8287
14.8287
14.8287
14.8287
14.8287
14.8287
14.8287
14.8287
14.8287
14.8287
14.8287
14.8287
14.8287
14.8287
14.8287
14.8287
14.8287
14.8287
14.8287
14.8287
14.8287
14.8287
14.8287
14.8287
14.8286
14.8286
14.8286
14.8286
14.8285
14.8285
14.8285
14.8289
14.8303
14.8342
14.8431
14.8599
14.883
14.8964
14.878
14.7902
14.7903
14.7903
14.7903
14.7903
14.7903
14.7903
14.7903
14.7903
14.7903
14.7903
14.7903
14.7903
14.7903
14.7903
14.7903
14.7903
14.7903
14.7903
14.7903
14.7903
14.7903
14.7903
14.7903
14.7903
14.7903
14.7903
14.7903
14.7903
14.7903
14.7903
14.7903
14.7903
14.7903
14.7903
14.7903
14.7903
14.7903
14.7905
14.7909
14.792
14.7946
14.8005
14.8124
14.8326
14.8569
14.8754
14.849
14.7875
14.7877
14.7877
14.7877
14.7877
14.7877
14.7877
14.7877
14.7877
14.7877
14.7877
14.7877
14.7877
14.7877
14.7877
14.7877
14.7877
14.7877
14.7877
14.7877
14.7877
14.7877
14.7877
14.7877
14.7877
14.7877
14.7877
14.7877
14.7877
14.7877
14.7877
14.7877
14.7877
14.7877
14.7877
14.7877
14.7877
14.7878
14.7881
14.7888
14.7904
14.7939
14.8011
14.8147
14.8366
14.8607
14.8778
14.8451
14.7874
14.7875
14.7875
14.7875
14.7875
14.7875
14.7875
14.7875
14.7875
14.7875
14.7875
14.7875
14.7875
14.7875
14.7875
14.7875
14.7875
14.7875
14.7875
14.7875
14.7875
14.7875
14.7875
14.7875
14.7875
14.7875
14.7875
14.7875
14.7875
14.7875
14.7875
14.7875
14.7875
14.7875
14.7875
14.7876
14.7877
14.7878
14.7882
14.7891
14.791
14.7951
14.8031
14.8174
14.8395
14.8623
14.8763
14.8427
14.7874
14.7875
14.7875
14.7875
14.7875
14.7875
14.7875
14.7875
14.7875
14.7875
14.7875
14.7875
14.7875
14.7875
14.7875
14.7875
14.7875
14.7875
14.7875
14.7875
14.7875
14.7875
14.7875
14.7875
14.7875
14.7875
14.7875
14.7875
14.7875
14.7875
14.7875
14.7875
14.7875
14.7875
14.7876
14.7876
14.7877
14.7879
14.7884
14.7894
14.7916
14.7959
14.804
14.818
14.8388
14.8592
14.871
14.8393
14.7876
14.7877
14.7877
14.7877
14.7877
14.7877
14.7877
14.7877
14.7877
14.7877
14.7877
14.7877
14.7877
14.7877
14.7877
14.7877
14.7877
14.7877
14.7877
14.7877
14.7877
14.7877
14.7877
14.7877
14.7877
14.7877
14.7877
14.7877
14.7877
14.7877
14.7877
14.7877
14.7877
14.7877
14.7877
14.7878
14.7879
14.7882
14.7887
14.7898
14.792
14.7962
14.804
14.8168
14.8351
14.8523
14.8626
14.8357
14.7903
14.7904
14.7904
14.7904
14.7904
14.7904
14.7904
14.7904
14.7904
14.7904
14.7904
14.7904
14.7904
14.7904
14.7904
14.7904
14.7904
14.7904
14.7904
14.7904
14.7904
14.7904
14.7904
14.7904
14.7904
14.7904
14.7904
14.7904
14.7904
14.7904
14.7904
14.7904
14.7905
14.7905
14.7905
14.7906
14.7907
14.791
14.7916
14.7927
14.795
14.7991
14.8063
14.8177
14.8331
14.8473
14.8544
14.8357
14.8288
14.8287
14.8287
14.8287
14.8287
14.8287
14.8287
14.8287
14.8287
14.8287
14.8287
14.8287
14.8287
14.8287
14.8287
14.8287
14.8287
14.8287
14.8287
14.8287
14.8287
14.8287
14.8287
14.8287
14.8287
14.8287
14.8287
14.8287
14.8287
14.8287
14.8287
14.8287
14.8287
14.8288
14.8288
14.8289
14.8291
14.8295
14.8303
14.8318
14.8344
14.8391
14.8469
14.8584
14.8726
14.8844
14.8822
14.865
14.8066
14.8066
14.8066
14.8066
14.8066
14.8066
14.8066
14.8066
14.8066
14.8066
14.8066
14.8066
14.8066
14.8066
14.8066
14.8066
14.8066
14.8066
14.8066
14.8066
14.8066
14.8066
14.8066
14.8066
14.8066
14.8066
14.8066
14.8066
14.8066
14.8066
14.8066
14.8066
14.8066
14.8066
14.8066
14.8066
14.8066
14.8066
14.8066
14.8067
14.8071
14.8084
14.8115
14.8177
14.8286
14.8423
14.8502
14.8439
14.7874
14.7875
14.7875
14.7875
14.7875
14.7875
14.7875
14.7875
14.7875
14.7875
14.7875
14.7875
14.7875
14.7875
14.7875
14.7875
14.7875
14.7875
14.7875
14.7875
14.7875
14.7875
14.7875
14.7875
14.7875
14.7875
14.7875
14.7875
14.7875
14.7875
14.7875
14.7875
14.7875
14.7875
14.7875
14.7875
14.7875
14.7876
14.7878
14.7883
14.7894
14.7919
14.7969
14.8061
14.8204
14.8361
14.8488
14.834
14.7873
14.7875
14.7875
14.7875
14.7875
14.7875
14.7875
14.7875
14.7875
14.7875
14.7875
14.7875
14.7875
14.7875
14.7875
14.7875
14.7875
14.7875
14.7875
14.7875
14.7875
14.7875
14.7875
14.7875
14.7875
14.7875
14.7875
14.7875
14.7875
14.7875
14.7875
14.7875
14.7875
14.7875
14.7875
14.7875
14.7876
14.7877
14.7881
14.7888
14.7903
14.7935
14.7996
14.8101
14.8257
14.8413
14.8528
14.8325
14.7876
14.7877
14.7877
14.7877
14.7877
14.7877
14.7877
14.7877
14.7877
14.7877
14.7877
14.7877
14.7877
14.7877
14.7877
14.7877
14.7877
14.7877
14.7877
14.7877
14.7877
14.7877
14.7877
14.7877
14.7877
14.7877
14.7877
14.7877
14.7877
14.7877
14.7877
14.7877
14.7877
14.7877
14.7877
14.7878
14.7878
14.788
14.7885
14.7894
14.7912
14.7947
14.8013
14.8123
14.828
14.8427
14.8525
14.8313
14.7876
14.7877
14.7877
14.7877
14.7877
14.7877
14.7877
14.7877
14.7877
14.7877
14.7877
14.7877
14.7877
14.7877
14.7877
14.7877
14.7877
14.7877
14.7877
14.7877
14.7877
14.7877
14.7877
14.7877
14.7877
14.7877
14.7877
14.7877
14.7877
14.7877
14.7877
14.7877
14.7877
14.7877
14.7877
14.7878
14.7879
14.7881
14.7886
14.7896
14.7916
14.7953
14.8019
14.8126
14.8273
14.8405
14.8493
14.8293
14.7874
14.7875
14.7875
14.7875
14.7875
14.7875
14.7875
14.7875
14.7875
14.7875
14.7875
14.7875
14.7875
14.7875
14.7875
14.7875
14.7875
14.7875
14.7875
14.7875
14.7875
14.7875
14.7875
14.7875
14.7875
14.7875
14.7875
14.7875
14.7875
14.7875
14.7875
14.7875
14.7875
14.7875
14.7875
14.7876
14.7877
14.788
14.7885
14.7896
14.7916
14.7953
14.8016
14.8114
14.8244
14.8357
14.8441
14.8272
14.7875
14.7876
14.7876
14.7876
14.7876
14.7876
14.7876
14.7876
14.7876
14.7876
14.7876
14.7876
14.7876
14.7876
14.7876
14.7876
14.7876
14.7876
14.7876
14.7876
14.7876
14.7876
14.7876
14.7876
14.7876
14.7876
14.7876
14.7876
14.7876
14.7876
14.7876
14.7876
14.7876
14.7877
14.7877
14.7878
14.7879
14.7882
14.7888
14.7899
14.7919
14.7955
14.8015
14.8104
14.8216
14.8311
14.838
14.8271
14.8067
14.8067
14.8067
14.8067
14.8067
14.8067
14.8067
14.8067
14.8067
14.8067
14.8067
14.8067
14.8067
14.8067
14.8067
14.8067
14.8067
14.8067
14.8067
14.8067
14.8067
14.8067
14.8067
14.8067
14.8067
14.8067
14.8067
14.8067
14.8067
14.8067
14.8067
14.8067
14.8067
14.8067
14.8068
14.8069
14.8071
14.8075
14.8083
14.8097
14.8122
14.8164
14.823
14.8324
14.8432
14.8513
14.8496
14.8398
14.7329
14.7329
14.7329
14.7329
14.7329
14.7329
14.7329
14.7329
14.7329
14.7329
14.7329
14.7329
14.7329
14.7329
14.7329
14.7329
14.7329
14.7329
14.7329
14.7329
14.7329
14.7329
14.7329
14.7329
14.7329
14.7329
14.7329
14.7329
14.7329
14.7329
14.7329
14.7329
14.7329
14.7329
14.7329
14.7329
14.7329
14.7329
14.733
14.7332
14.7337
14.7348
14.7372
14.7415
14.7485
14.7568
14.7636
14.769
14.7755
14.7757
14.7757
14.7757
14.7757
14.7757
14.7757
14.7757
14.7757
14.7757
14.7757
14.7757
14.7757
14.7757
14.7757
14.7757
14.7757
14.7757
14.7757
14.7757
14.7757
14.7757
14.7757
14.7757
14.7757
14.7757
14.7757
14.7757
14.7757
14.7757
14.7757
14.7757
14.7757
14.7757
14.7757
14.7757
14.7758
14.7759
14.7761
14.7767
14.7778
14.7801
14.7843
14.7913
14.8013
14.8116
14.8215
14.8178
14.7875
14.7876
14.7876
14.7876
14.7876
14.7876
14.7876
14.7876
14.7876
14.7876
14.7876
14.7876
14.7876
14.7876
14.7876
14.7876
14.7876
14.7876
14.7876
14.7876
14.7876
14.7876
14.7876
14.7876
14.7876
14.7876
14.7876
14.7876
14.7876
14.7876
14.7876
14.7876
14.7876
14.7876
14.7877
14.7877
14.7878
14.788
14.7883
14.7891
14.7906
14.7934
14.7984
14.8064
14.8172
14.8275
14.835
14.8266
14.7903
14.7904
14.7904
14.7904
14.7904
14.7904
14.7904
14.7904
14.7904
14.7904
14.7904
14.7904
14.7904
14.7904
14.7904
14.7904
14.7904
14.7904
14.7904
14.7904
14.7904
14.7904
14.7904
14.7904
14.7904
14.7904
14.7904
14.7904
14.7904
14.7904
14.7904
14.7904
14.7905
14.7905
14.7905
14.7905
14.7907
14.7909
14.7913
14.7922
14.7939
14.797
14.8024
14.8106
14.8215
14.8311
14.8373
14.8279
14.7903
14.7904
14.7904
14.7904
14.7904
14.7904
14.7904
14.7904
14.7904
14.7904
14.7904
14.7904
14.7904
14.7904
14.7904
14.7904
14.7904
14.7904
14.7904
14.7904
14.7904
14.7904
14.7904
14.7904
14.7904
14.7904
14.7904
14.7904
14.7904
14.7904
14.7904
14.7904
14.7904
14.7905
14.7905
14.7906
14.7907
14.7909
14.7914
14.7924
14.7942
14.7974
14.8028
14.8109
14.8212
14.8298
14.8357
14.8269
14.7875
14.7876
14.7876
14.7876
14.7876
14.7876
14.7876
14.7876
14.7876
14.7876
14.7876
14.7876
14.7876
14.7876
14.7876
14.7876
14.7876
14.7876
14.7876
14.7876
14.7876
14.7876
14.7876
14.7876
14.7876
14.7876
14.7876
14.7876
14.7876
14.7876
14.7876
14.7876
14.7876
14.7877
14.7877
14.7878
14.7879
14.7882
14.7887
14.7897
14.7915
14.7947
14.7999
14.8074
14.8166
14.8242
14.8308
14.8238
14.7758
14.7759
14.7759
14.7759
14.7759
14.7759
14.7759
14.7759
14.7759
14.7759
14.7759
14.7759
14.7759
14.7759
14.7759
14.7759
14.7759
14.7759
14.7759
14.7759
14.7759
14.7759
14.7759
14.7759
14.7759
14.7759
14.7759
14.7759
14.7759
14.7759
14.7759
14.7759
14.7759
14.7759
14.776
14.7761
14.7762
14.7765
14.7771
14.7781
14.78
14.7831
14.7881
14.795
14.8031
14.8098
14.8171
14.8143
14.733
14.733
14.733
14.733
14.733
14.733
14.733
14.733
14.733
14.733
14.733
14.733
14.733
14.733
14.733
14.733
14.733
14.733
14.733
14.733
14.733
14.733
14.733
14.733
14.733
14.733
14.733
14.733
14.733
14.733
14.733
14.733
14.733
14.7331
14.7331
14.7332
14.7335
14.7339
14.7347
14.736
14.7384
14.7422
14.7479
14.7556
14.7638
14.7697
14.7702
14.7692
14.5312
14.531
14.531
14.531
14.531
14.5309
14.5309
14.531
14.531
14.531
14.531
14.531
14.531
14.531
14.531
14.531
14.531
14.531
14.531
14.531
14.531
14.531
14.531
14.531
14.531
14.5309
14.5309
14.5309
14.5309
14.5309
14.5309
14.5309
14.5309
14.531
14.531
14.531
14.5311
14.5313
14.5316
14.5321
14.533
14.5345
14.5371
14.5413
14.5469
14.5531
14.5547
14.5639
14.7319
14.7319
14.7319
14.7319
14.7319
14.7319
14.7319
14.7319
14.7319
14.7319
14.7319
14.7319
14.7319
14.7319
14.7319
14.7319
14.7319
14.7319
14.7319
14.7319
14.7319
14.7319
14.7319
14.7319
14.7319
14.7319
14.7319
14.7319
14.7319
14.7319
14.7319
14.7319
14.7319
14.7319
14.7319
14.732
14.7321
14.7324
14.7328
14.7336
14.7351
14.7377
14.742
14.7483
14.7563
14.7637
14.7662
14.7681
14.8065
14.8065
14.8065
14.8065
14.8065
14.8065
14.8065
14.8065
14.8065
14.8065
14.8065
14.8065
14.8065
14.8065
14.8065
14.8065
14.8065
14.8065
14.8065
14.8065
14.8065
14.8065
14.8065
14.8065
14.8065
14.8065
14.8065
14.8065
14.8065
14.8065
14.8065
14.8065
14.8065
14.8065
14.8065
14.8066
14.8068
14.8071
14.8076
14.8085
14.8103
14.8133
14.8182
14.8253
14.8338
14.8409
14.8404
14.8363
14.8287
14.8287
14.8287
14.8287
14.8287
14.8287
14.8287
14.8287
14.8287
14.8287
14.8287
14.8287
14.8287
14.8287
14.8287
14.8287
14.8287
14.8287
14.8287
14.8287
14.8287
14.8287
14.8287
14.8287
14.8287
14.8287
14.8287
14.8287
14.8287
14.8287
14.8287
14.8287
14.8287
14.8287
14.8288
14.8289
14.829
14.8293
14.8299
14.831
14.8329
14.8362
14.8414
14.8486
14.8571
14.8638
14.8622
14.856
14.8288
14.8287
14.8287
14.8287
14.8287
14.8287
14.8287
14.8287
14.8287
14.8287
14.8287
14.8287
14.8287
14.8287
14.8287
14.8287
14.8287
14.8287
14.8287
14.8287
14.8287
14.8287
14.8287
14.8287
14.8287
14.8287
14.8287
14.8287
14.8287
14.8287
14.8287
14.8287
14.8287
14.8288
14.8288
14.8289
14.8291
14.8294
14.8301
14.8312
14.8333
14.8366
14.8418
14.849
14.8571
14.8631
14.8614
14.8555
14.8067
14.8067
14.8067
14.8067
14.8067
14.8067
14.8067
14.8067
14.8067
14.8067
14.8067
14.8067
14.8067
14.8067
14.8067
14.8067
14.8067
14.8067
14.8067
14.8067
14.8067
14.8067
14.8067
14.8067
14.8067
14.8067
14.8067
14.8067
14.8067
14.8067
14.8067
14.8067
14.8067
14.8067
14.8068
14.8069
14.8071
14.8074
14.8081
14.8093
14.8114
14.8148
14.8198
14.8266
14.8341
14.8394
14.8384
14.8349
14.733
14.733
14.733
14.733
14.733
14.733
14.733
14.733
14.733
14.733
14.733
14.733
14.733
14.733
14.733
14.733
14.733
14.733
14.733
14.733
14.733
14.733
14.733
14.733
14.733
14.733
14.733
14.733
14.733
14.733
14.733
14.733
14.733
14.7331
14.7331
14.7332
14.7335
14.7339
14.7346
14.7359
14.738
14.7414
14.7463
14.7528
14.7597
14.7646
14.7656
14.7672
14.5312
14.531
14.531
14.531
14.531
14.531
14.531
14.531
14.531
14.531
14.531
14.531
14.531
14.531
14.531
14.531
14.531
14.531
14.531
14.531
14.531
14.531
14.531
14.531
14.531
14.531
14.531
14.531
14.531
14.531
14.531
14.531
14.531
14.531
14.5311
14.5313
14.5316
14.5322
14.5331
14.5347
14.5373
14.5413
14.547
14.5541
14.5614
14.5661
14.5634
14.566
23.1164
20.4918
18.7363
18.3981
18.3383
18.3403
18.3505
18.3577
18.363
18.365
18.3655
18.3654
18.3652
18.365
18.3648
18.3647
18.3646
18.3646
18.3646
18.3646
18.3646
18.3646
18.3646
18.3646
18.3646
18.3646
18.3646
18.3646
18.3646
18.3646
18.3647
18.3647
18.3648
18.3648
18.3648
18.3649
18.3649
18.3648
18.3648
18.3647
18.3647
18.3646
18.3646
18.3646
18.3646
18.3646
18.3647
18.3691
18.0322
17.3834
16.6975
16.3444
16.2313
16.2062
16.2042
16.2064
16.2086
16.2101
16.2104
16.2103
16.2102
16.21
16.2099
16.2098
16.2098
16.2098
16.2098
16.2098
16.2098
16.2098
16.2098
16.2098
16.2098
16.2098
16.2098
16.2098
16.2098
16.2098
16.2099
16.2099
16.2099
16.21
16.21
16.21
16.21
16.21
16.21
16.2099
16.2098
16.2098
16.2098
16.2098
16.2098
16.2098
16.2099
16.2121
17.4002
16.9809
16.3842
16.0623
15.9503
15.9216
15.9172
15.9181
15.9194
15.9203
15.9208
15.9209
15.9208
15.9207
15.9206
15.9206
15.9206
15.9207
15.9207
15.9207
15.9207
15.9207
15.9207
15.9207
15.9207
15.9207
15.9207
15.9207
15.9207
15.9207
15.9207
15.9207
15.9208
15.9208
15.9209
15.9209
15.9209
15.9209
15.9208
15.9208
15.9207
15.9207
15.9207
15.9207
15.9207
15.9207
15.9207
15.9224
16.9214
16.7119
16.2431
15.9781
15.8768
15.8472
15.8407
15.8401
15.8405
15.8409
15.8412
15.8413
15.8413
15.8412
15.8412
15.8413
15.8413
15.8413
15.8413
15.8413
15.8413
15.8413
15.8413
15.8413
15.8413
15.8413
15.8413
15.8413
15.8413
15.8413
15.8413
15.8414
15.8414
15.8414
15.8415
15.8415
15.8415
15.8415
15.8415
15.8414
15.8413
15.8413
15.8413
15.8413
15.8413
15.8413
15.8413
15.8428
16.9811
16.7517
16.2098
15.9722
15.8807
15.8516
15.8435
15.8415
15.8412
15.8412
15.8413
15.8413
15.8413
15.8412
15.8412
15.8413
15.8413
15.8413
15.8413
15.8413
15.8413
15.8413
15.8413
15.8413
15.8413
15.8413
15.8413
15.8413
15.8413
15.8413
15.8413
15.8414
15.8414
15.8414
15.8415
15.8415
15.8415
15.8415
15.8415
15.8414
15.8413
15.8413
15.8413
15.8413
15.8413
15.8413
15.8413
15.8428
16.2827
16.4077
16.1658
16.022
15.9574
15.9332
15.9248
15.922
15.9211
15.9209
15.9208
15.9207
15.9207
15.9207
15.9207
15.9207
15.9207
15.9207
15.9207
15.9207
15.9207
15.9207
15.9207
15.9207
15.9207
15.9207
15.9207
15.9207
15.9207
15.9207
15.9207
15.9208
15.9208
15.9209
15.9209
15.9209
15.9209
15.9209
15.9209
15.9208
15.9207
15.9207
15.9207
15.9207
15.9207
15.9207
15.9207
15.9224
16.2486
16.4606
16.379
16.2927
16.2459
16.2249
16.2162
16.2127
16.2115
16.2109
16.2106
16.2104
16.2103
16.2102
16.2102
16.2102
16.2102
16.2102
16.2102
16.2102
16.2102
16.2102
16.2102
16.2102
16.2102
16.2102
16.2102
16.2102
16.2102
16.2102
16.2102
16.2103
16.2103
16.2103
16.2104
16.2104
16.2104
16.2104
16.2103
16.2103
16.2102
16.2102
16.2102
16.2102
16.2102
16.2102
16.2102
16.2124
18.1444
18.523
18.5014
18.4426
18.4031
18.3822
18.3723
18.368
18.3662
18.3652
18.3647
18.3645
18.3644
18.3643
18.3643
18.3642
18.3642
18.3642
18.3642
18.3642
18.3642
18.3642
18.3642
18.3642
18.3642
18.3642
18.3642
18.3643
18.3643
18.3643
18.3643
18.3643
18.3644
18.3644
18.3644
18.3645
18.3645
18.3644
18.3644
18.3643
18.3643
18.3642
18.3642
18.3642
18.3642
18.3642
18.3644
18.3688
285.005
193.852
133.447
139.722
143.24
144.692
145.281
145.524
145.627
145.672
145.691
145.7
145.705
145.707
145.708
145.708
145.708
145.709
145.709
145.709
145.709
145.709
145.709
145.709
145.709
145.709
145.709
145.709
145.709
145.709
145.709
145.709
145.709
145.709
145.709
145.709
145.709
145.709
145.709
145.709
145.709
145.709
145.709
145.709
145.709
145.709
145.709
145.707
229.496
167.694
120.952
126.42
129.536
130.851
131.39
131.613
131.707
131.748
131.766
131.774
131.778
131.78
131.781
131.781
131.782
131.782
131.782
131.782
131.782
131.782
131.782
131.782
131.782
131.782
131.782
131.782
131.782
131.782
131.782
131.782
131.782
131.782
131.782
131.782
131.782
131.782
131.782
131.782
131.782
131.782
131.782
131.782
131.782
131.782
131.782
131.781
199.203
153.971
114.952
118.985
121.401
122.456
122.9
123.088
123.169
123.204
123.22
123.227
123.23
123.232
123.233
123.233
123.233
123.234
123.234
123.234
123.234
123.234
123.234
123.234
123.234
123.234
123.234
123.234
123.234
123.234
123.234
123.234
123.234
123.234
123.234
123.234
123.234
123.234
123.234
123.234
123.234
123.234
123.234
123.234
123.234
123.234
123.234
123.232
187.34
148.946
114.007
116.304
117.873
118.598
118.918
119.059
119.122
119.15
119.163
119.168
119.171
119.173
119.173
119.174
119.174
119.174
119.174
119.174
119.174
119.174
119.174
119.174
119.174
119.174
119.174
119.174
119.174
119.174
119.174
119.174
119.174
119.174
119.174
119.174
119.174
119.174
119.174
119.174
119.174
119.174
119.174
119.174
119.174
119.174
119.174
119.173
195.221
150.708
117.852
117.701
118.411
118.809
119.003
119.094
119.136
119.156
119.165
119.17
119.172
119.173
119.173
119.174
119.174
119.174
119.174
119.174
119.174
119.174
119.174
119.174
119.174
119.174
119.174