/*--------------------------------*- C++ -*----------------------------------*\
| =========                 |                                                 |
| \\      /  F ield         | OpenFOAM: The Open Source CFD Toolbox           |
|  \\    /   O peration     | Version:  4.1                                   |
|   \\  /    A nd           | Web:      www.OpenFOAM.org                      |
|    \\/     M anipulation  |                                                 |
\*---------------------------------------------------------------------------*/
FoamFile
{
    version     2.0;
    format      ascii;
    class       volScalarField;
    location    "0.0082";
    object      p;
}
// * * * * * * * * * * * * * * * * * * * * * * * * * * * * * * * * * * * * * //

dimensions      [0 2 -2 0 0 0 0];

internalField   nonuniform List<scalar> 
1536
(
0.0064159
0.02617
0.0404
0.047544
0.049517
0.046779
0.040792
0.033446
0.025886
0.018477
0.011094
0.0036917
0.0059854
0.025095
0.039121
0.046533
0.04883
0.045989
0.040324
0.033257
0.025837
0.018462
0.011121
0.003692
0.0057114
0.02432
0.038086
0.045453
0.047553
0.045342
0.039943
0.033066
0.025753
0.018413
0.011072
0.0036768
0.0055486
0.023893
0.037537
0.044887
0.047142
0.04503
0.039748
0.032968
0.025714
0.018394
0.011058
0.0036679
0.0055136
0.023851
0.037491
0.04484
0.047097
0.044996
0.039722
0.032951
0.025703
0.018388
0.011055
0.0036671
0.0056059
0.024193
0.037947
0.045313
0.047433
0.045242
0.039868
0.033015
0.02572
0.018395
0.011063
0.0036742
0.0058107
0.024885
0.038891
0.0463
0.048622
0.04582
0.040199
0.033172
0.025784
0.018432
0.011107
0.0036879
0.0061714
0.025875
0.040077
0.04721
0.049227
0.046545
0.040618
0.033328
0.025813
0.018438
0.011076
0.0036865
0.0060364
0.025148
0.039177
0.046596
0.048886
0.046044
0.040378
0.033306
0.025879
0.018494
0.011142
0.003699
0.0056525
0.024196
0.038055
0.04586
0.048295
0.045317
0.039946
0.033127
0.025834
0.018477
0.011183
0.0037094
0.0052556
0.023266
0.03686
0.044636
0.046922
0.044667
0.039573
0.032941
0.025751
0.01843
0.011117
0.0036932
0.0050253
0.022782
0.036249
0.044041
0.046444
0.044366
0.039393
0.032854
0.025721
0.018417
0.011107
0.0036831
0.0049922
0.022742
0.036206
0.043996
0.046407
0.044333
0.039368
0.032837
0.02571
0.01841
0.011104
0.0036822
0.0051564
0.023146
0.036729
0.044503
0.046795
0.044568
0.039498
0.032889
0.025718
0.018412
0.011108
0.0036905
0.0054867
0.023996
0.037836
0.045639
0.048091
0.045151
0.039822
0.03304
0.025779
0.018447
0.011168
0.003705
0.0058016
0.024864
0.038863
0.046269
0.048603
0.045813
0.040205
0.033186
0.025804
0.018453
0.011122
0.0036931
0.0058102
0.024423
0.038194
0.045571
0.047664
0.045448
0.040043
0.033157
0.025831
0.018474
0.011111
0.00369
0.0053041
0.023317
0.036913
0.044691
0.046975
0.044717
0.03962
0.032983
0.025788
0.018459
0.011135
0.0036993
0.004994
0.022538
0.035932
0.043777
0.046186
0.044164
0.039293
0.03283
0.025727
0.018428
0.011121
0.0036908
0.0047769
0.022077
0.035362
0.043223
0.045727
0.043872
0.039119
0.032746
0.025695
0.018414
0.011109
0.003683
0.0047454
0.022038
0.03532
0.04318
0.045693
0.04384
0.039094
0.032728
0.025684
0.018407
0.011106
0.003682
0.0048997
0.022424
0.035806
0.043649
0.046059
0.044066
0.039218
0.032777
0.025693
0.018409
0.011111
0.0036879
0.0051457
0.023124
0.0367
0.044474
0.04677
0.044553
0.039495
0.032896
0.025732
0.018426
0.011119
0.0036946
0.0055862
0.024151
0.037891
0.045254
0.04739
0.04522
0.03987
0.033037
0.025754
0.01843
0.011089
0.0036837
0.005695
0.024046
0.037696
0.045056
0.047296
0.04518
0.039888
0.033096
0.025823
0.018479
0.011112
0.0036864
0.0051199
0.02288
0.036351
0.044145
0.046551
0.044461
0.039481
0.032933
0.025788
0.018469
0.01114
0.0036945
0.0048224
0.022124
0.03541
0.043271
0.045778
0.043916
0.03916
0.032782
0.025726
0.018438
0.011124
0.0036882
0.0045997
0.021668
0.034833
0.042705
0.045266
0.043622
0.038986
0.032698
0.025693
0.018422
0.011107
0.0036803
0.0045697
0.021631
0.034792
0.042662
0.04523
0.043589
0.038961
0.03268
0.025681
0.018415
0.011104
0.0036793
0.0047327
0.022013
0.035288
0.043146
0.045655
0.043819
0.039085
0.032729
0.025691
0.018417
0.011114
0.0036851
0.0049687
0.022695
0.036143
0.043932
0.046348
0.044298
0.039356
0.032844
0.025731
0.018435
0.011123
0.0036895
0.0054806
0.023783
0.037401
0.044746
0.047023
0.044953
0.039714
0.032973
0.025744
0.018434
0.01109
0.0036799
0.0057045
0.024049
0.037696
0.045055
0.047296
0.045186
0.039898
0.033109
0.025839
0.018493
0.011122
0.00369
0.0051302
0.022885
0.036351
0.044144
0.046552
0.044466
0.03949
0.032946
0.025803
0.018483
0.011149
0.0036979
0.0048338
0.022129
0.035412
0.043271
0.04578
0.043921
0.039169
0.032795
0.025741
0.018451
0.011133
0.0036915
0.0046123
0.021675
0.034835
0.042705
0.045267
0.043627
0.038995
0.03271
0.025707
0.018435
0.011117
0.0036836
0.0045838
0.021639
0.034795
0.042663
0.045231
0.043595
0.03897
0.032692
0.025695
0.018428
0.011113
0.0036825
0.0047484
0.022023
0.035293
0.043149
0.045658
0.043824
0.039094
0.032741
0.025705
0.01843
0.011123
0.0036883
0.0049861
0.022706
0.03615
0.043935
0.046351
0.044304
0.039365
0.032857
0.025744
0.018448
0.011132
0.0036927
0.0054998
0.023795
0.037409
0.044751
0.047025
0.044959
0.039723
0.032985
0.025758
0.018446
0.011099
0.0036832
0.0058387
0.024434
0.038193
0.045567
0.047667
0.045463
0.040072
0.033199
0.025877
0.018517
0.011141
0.0037009
0.0053347
0.02333
0.036914
0.044689
0.046976
0.044732
0.039648
0.033023
0.025833
0.0185
0.011164
0.0037098
0.0050278
0.022554
0.035937
0.043777
0.046187
0.044179
0.039321
0.032869
0.025771
0.018469
0.011149
0.0037009
0.0048146
0.022096
0.03537
0.043225
0.045728
0.043887
0.039147
0.032784
0.025738
0.018453
0.011137
0.0036929
0.0047875
0.022062
0.035331
0.043184
0.045696
0.043855
0.039122
0.032765
0.025725
0.018446
0.011133
0.0036918
0.0049466
0.022452
0.03582
0.043656
0.046062
0.044082
0.039245
0.032814
0.025734
0.018447
0.011138
0.0036976
0.0051979
0.023157
0.036718
0.044484
0.046778
0.04457
0.039522
0.032932
0.025772
0.018464
0.011146
0.0037045
0.005644
0.024188
0.037914
0.045269
0.0474
0.045237
0.039896
0.033072
0.025794
0.018469
0.011117
0.0036938
0.0060817
0.025164
0.039173
0.046588
0.048888
0.046067
0.040426
0.033376
0.025958
0.018568
0.011193
0.0037174
0.005702
0.024215
0.038056
0.045855
0.048298
0.04534
0.039994
0.033194
0.02591
0.018548
0.011232
0.0037272
0.0053109
0.023291
0.036865
0.044634
0.046926
0.044691
0.03962
0.033006
0.025825
0.018499
0.011165
0.0037105
0.0050871
0.022813
0.03626
0.044043
0.046452
0.044391
0.03944
0.032919
0.025793
0.018484
0.011154
0.0037001
0.0050615
0.02278
0.036222
0.044003
0.046417
0.044359
0.039414
0.0329
0.025781
0.018476
0.01115
0.0036989
0.005234
0.023192
0.036751
0.044515
0.046804
0.044595
0.039543
0.03295
0.025788
0.018476
0.011154
0.0037071
0.0055729
0.024049
0.037865
0.045656
0.048105
0.045178
0.039866
0.033101
0.025848
0.018511
0.011214
0.0037217
0.0058974
0.024926
0.038899
0.046293
0.04862
0.04584
0.040248
0.033246
0.025873
0.018517
0.011169
0.0037103
0.0064753
0.026188
0.040392
0.047527
0.049514
0.046811
0.040859
0.033545
0.025998
0.018582
0.011168
0.0037182
0.0060519
0.025118
0.039116
0.046518
0.04883
0.046021
0.040392
0.033353
0.025947
0.018563
0.011192
0.0037174
0.0057861
0.024352
0.038088
0.045445
0.047559
0.045375
0.04001
0.033161
0.025859
0.018512
0.011142
0.0037016
0.0056325
0.023934
0.037547
0.044885
0.047147
0.045064
0.039813
0.03306
0.025818
0.018491
0.011126
0.0036924
0.0056084
0.023902
0.03751
0.044844
0.047105
0.045032
0.039787
0.033041
0.025805
0.018483
0.011122
0.0036912
0.0057129
0.024255
0.037975
0.045326
0.04745
0.045279
0.039932
0.033103
0.025821
0.018489
0.01113
0.0036983
0.005931
0.024958
0.038927
0.046319
0.04864
0.045857
0.040262
0.033259
0.025884
0.018525
0.011174
0.003712
0.0063041
0.02596
0.040121
0.047232
0.049246
0.046583
0.040679
0.033414
0.025912
0.018531
0.011143
0.0037108
0.0038119
0.011263
0.018438
0.02571
0.033605
0.04199
0.049658
0.053997
0.054402
0.047946
0.032716
0.01072
0.0037578
0.011149
0.018315
0.02556
0.033237
0.041141
0.04805
0.051821
0.051385
0.045604
0.03103
0.010176
0.0037404
0.011152
0.018373
0.025668
0.033314
0.041087
0.047802
0.051189
0.049967
0.043928
0.029402
0.0089057
0.003738
0.011129
0.018323
0.025598
0.033183
0.040832
0.047376
0.050713
0.049667
0.043549
0.029191
0.0090131
0.0037372
0.011126
0.018316
0.025585
0.03316
0.040798
0.047329
0.050651
0.049595
0.043485
0.029131
0.0089614
0.0037382
0.011144
0.018352
0.025626
0.033243
0.040981
0.047662
0.051011
0.049754
0.043714
0.029206
0.0087392
0.0037543
0.011135
0.018283
0.025498
0.033132
0.040978
0.047823
0.051537
0.051045
0.045273
0.030729
0.0099215
0.0038075
0.011246
0.018395
0.025623
0.033454
0.041759
0.049348
0.053606
0.053949
0.047512
0.032306
0.010371
0.0041863
0.011952
0.018833
0.026024
0.03536
0.047102
0.059751
0.070885
0.074826
0.065058
0.044845
0.013934
0.0041213
0.011789
0.018662
0.025863
0.035087
0.046566
0.058859
0.069648
0.073759
0.063701
0.044131
0.013899
0.0040989
0.011753
0.01865
0.025879
0.035073
0.046436
0.058525
0.068995
0.072795
0.062408
0.043091
0.013283
0.0041105
0.011789
0.018691
0.025892
0.03503
0.046298
0.058264
0.068653
0.072454
0.062063
0.042824
0.013167
0.0041111
0.011789
0.018687
0.025878
0.035
0.046249
0.058194
0.068564
0.072348
0.061947
0.042712
0.013072
0.0040994
0.011752
0.018636
0.025836
0.034984
0.046288
0.058312
0.068719
0.072479
0.062059
0.04276
0.013
0.0041214
0.011785
0.018638
0.025796
0.034947
0.046334
0.058529
0.069231
0.0733
0.063172
0.04363
0.013467
0.0041863
0.011945
0.018799
0.025931
0.035171
0.046788
0.059307
0.070335
0.074214
0.064413
0.044204
0.013379
0.0038138
0.011263
0.018419
0.025649
0.033476
0.041774
0.049352
0.053596
0.053937
0.047494
0.032291
0.010364
0.0037702
0.011179
0.018346
0.025563
0.033183
0.041013
0.047821
0.051499
0.050992
0.045221
0.030688
0.0099038
0.0037618
0.011209
0.018442
0.02572
0.033316
0.041015
0.047647
0.050953
0.04966
0.043625
0.029138
0.0087101
0.0037666
0.011206
0.018426
0.025694
0.033237
0.04082
0.047287
0.050553
0.049454
0.043342
0.02902
0.0089112
0.0037711
0.011219
0.018443
0.025712
0.033253
0.040833
0.047296
0.050559
0.049465
0.043356
0.029041
0.0089421
0.0037754
0.011246
0.018494
0.025775
0.033365
0.041053
0.047672
0.050973
0.049692
0.043667
0.029202
0.0088065
0.0037934
0.011243
0.018434
0.025655
0.033263
0.041066
0.047859
0.051534
0.051032
0.045283
0.030786
0.010052
0.0038471
0.011354
0.018545
0.025782
0.03359
0.041853
0.049402
0.053628
0.053975
0.047566
0.032422
0.010564
0.0042007
0.011985
0.018852
0.025993
0.035228
0.04683
0.059325
0.070332
0.074197
0.064385
0.044185
0.013373
0.0041611
0.011896
0.018805
0.025974
0.035103
0.046443
0.058575
0.069206
0.073236
0.0631
0.043567
0.013442
0.0041598
0.011921
0.018882
0.026102
0.035212
0.046438
0.058363
0.068672
0.072361
0.06192
0.042647
0.012954
0.0041874
0.012
0.018987
0.026195
0.035263
0.046405
0.058218
0.068462
0.072167
0.061725
0.042531
0.012989
0.0041958
0.012022
0.019015
0.026224
0.035288
0.046424
0.058231
0.068474
0.072187
0.061753
0.042573
0.013046
0.0041845
0.011987
0.018968
0.02619
0.035287
0.046493
0.0584
0.068708
0.072423
0.061998
0.042766
0.013124
0.0042015
0.012005
0.018951
0.026122
0.035228
0.046529
0.058628
0.069254
0.073299
0.063203
0.043745
0.013707
0.0042568
0.012136
0.019057
0.026203
0.035401
0.046943
0.059389
0.070379
0.074264
0.064494
0.0444
0.013707
0.0038477
0.011356
0.018547
0.025784
0.033592
0.041855
0.049406
0.053634
0.053984
0.047582
0.032442
0.010587
0.0037958
0.01125
0.018444
0.025668
0.033279
0.041084
0.04788
0.051566
0.051071
0.045331
0.030847
0.010122
0.0037811
0.011262
0.018518
0.025804
0.033398
0.041092
0.047721
0.051035
0.049768
0.043756
0.029306
0.0089197
0.0037814
0.011248
0.018489
0.02577
0.033321
0.04091
0.047386
0.050665
0.049591
0.043505
0.029206
0.0091151
0.0037832
0.011254
0.0185
0.025788
0.033348
0.040946
0.047431
0.050719
0.049646
0.04355
0.029244
0.009141
0.0037862
0.011279
0.018552
0.02586
0.033481
0.041202
0.047854
0.051188
0.049931
0.043912
0.029433
0.0090081
0.0038038
0.011277
0.018495
0.025752
0.033402
0.041255
0.048099
0.051811
0.051342
0.045577
0.031047
0.010261
0.0038573
0.011389
0.018614
0.025898
0.033765
0.042095
0.049704
0.053984
0.05436
0.047915
0.03272
0.010789
0.0042559
0.012133
0.019052
0.026193
0.035387
0.046928
0.059376
0.070371
0.074265
0.06451
0.044424
0.013738
0.0041997
0.011998
0.018937
0.026101
0.035199
0.046495
0.058599
0.069247
0.073319
0.063239
0.043817
0.013804
0.0041835
0.011983
0.018959
0.026174
0.035263
0.046465
0.058381
0.068717
0.072477
0.062082
0.042892
0.013284
0.0042004
0.012034
0.01903
0.026238
0.035299
0.046437
0.058262
0.068541
0.072302
0.061909
0.042772
0.013279
0.0042028
0.012042
0.019046
0.026265
0.03534
0.046493
0.05833
0.068616
0.072374
0.061975
0.042818
0.013299
0.0041903
0.012006
0.019006
0.026254
0.035384
0.046631
0.058588
0.068948
0.072693
0.062292
0.043041
0.013359
0.0042089
0.012031
0.019005
0.026224
0.035386
0.046752
0.058918
0.069599
0.073661
0.063585
0.044067
0.013949
0.0042653
0.012171
0.01914
0.02635
0.03563
0.047271
0.059808
0.070848
0.074743
0.064957
0.044793
0.013983
0.0038575
0.011391
0.01862
0.025911
0.033787
0.042128
0.049749
0.054041
0.054419
0.047973
0.032767
0.010822
0.0038041
0.011281
0.018511
0.02579
0.033472
0.041356
0.048227
0.051973
0.051516
0.045721
0.031168
0.010349
0.003786
0.011283
0.018571
0.025908
0.033571
0.041342
0.048048
0.051425
0.050198
0.044132
0.029609
0.0091285
0.0037811
0.011254
0.018517
0.025843
0.033459
0.041126
0.047679
0.051022
0.049989
0.043847
0.029477
0.0092939
0.0037757
0.011239
0.018496
0.02582
0.033439
0.041112
0.047672
0.051023
0.049992
0.043848
0.029474
0.0092832
0.0037698
0.011238
0.018507
0.025839
0.033511
0.041299
0.048029
0.051425
0.050207
0.044139
0.029601
0.009096
0.003777
0.011205
0.018405
0.025677
0.033374
0.041294
0.048197
0.051972
0.051537
0.045734
0.031156
0.0103
0.0038193
0.011284
0.01847
0.025751
0.033651
0.042038
0.04971
0.05405
0.054455
0.047995
0.032761
0.010762
0.0042662
0.012176
0.019151
0.026374
0.035672
0.047333
0.05989
0.070952
0.074851
0.065085
0.044892
0.014057
0.0042103
0.012042
0.019042
0.026299
0.035519
0.046956
0.059187
0.069903
0.073969
0.063875
0.044338
0.014159
0.0041908
0.012017
0.019051
0.02636
0.035579
0.046931
0.058986
0.069401
0.073147
0.062745
0.043437
0.013655
0.0041998
0.012046
0.019087
0.026384
0.035574
0.046865
0.058832
0.069197
0.072953
0.062557
0.043305
0.013642
0.0041905
0.012019
0.019049
0.026343
0.035539
0.046841
0.05882
0.069196
0.072956
0.062561
0.043301
0.013626
0.0041621
0.011938
0.018937
0.026237
0.035476
0.046862
0.058954
0.0694
0.073157
0.062761
0.04343
0.013611
0.0041622
0.011909
0.018857
0.0261
0.035352
0.046848
0.059144
0.069907
0.073998
0.063911
0.044341
0.014104
0.0042009
0.011994
0.018891
0.026103
0.035448
0.047192
0.059837
0.070973
0.074908
0.065152
0.044918
0.014002
)
;

boundaryField
{
    inlet
    {
        type            uniformTotalPressure;
        rho             rho;
        psi             none;
        gamma           1;
        p0              table
        
4
(
(0 1.3332)
(0.003 1.3332)
(0.0031 0)
(0.01 0)
)
;
        value           uniform 0;
    }
    outlet
    {
        type            fixedValue;
        value           nonuniform 0();
    }
    mantle
    {
        type            zeroGradient;
    }
    procBoundary0to1
    {
        type            processor;
        value           nonuniform List<scalar> 
128
(
-0.016146
-0.015504
-0.015068
-0.01488
-0.014906
-0.015147
-0.015634
-0.016327
-0.015455
-0.014916
-0.014589
-0.014483
-0.014507
-0.014661
-0.015037
-0.015627
-0.014975
-0.014543
-0.014191
-0.014088
-0.014111
-0.014259
-0.014657
-0.015136
-0.014741
-0.014393
-0.014045
-0.013955
-0.013976
-0.014108
-0.014501
-0.014894
-0.014725
-0.014376
-0.014027
-0.013936
-0.013955
-0.014086
-0.014476
-0.014867
-0.014925
-0.014492
-0.014137
-0.01403
-0.014048
-0.014191
-0.014584
-0.015056
-0.015375
-0.014832
-0.014499
-0.014386
-0.014402
-0.014548
-0.014915
-0.015495
-0.016036
-0.015387
-0.014944
-0.014746
-0.01476
-0.014988
-0.015461
-0.016142
-0.015235
-0.014063
-0.014941
-0.014349
-0.014387
-0.015067
-0.014252
-0.015496
-0.025275
-0.024242
-0.024367
-0.024184
-0.024257
-0.024586
-0.024567
-0.025696
-0.015488
-0.014233
-0.015043
-0.014358
-0.014316
-0.014911
-0.014038
-0.015221
-0.025686
-0.024537
-0.024532
-0.024197
-0.024124
-0.02431
-0.024188
-0.025233
-0.015198
-0.013963
-0.014795
-0.014142
-0.014131
-0.014752
-0.013891
-0.015083
-0.025198
-0.024076
-0.024132
-0.023873
-0.023878
-0.02413
-0.024035
-0.025087
-0.015068
-0.013846
-0.014698
-0.014073
-0.014093
-0.014762
-0.013941
-0.015196
-0.02505
-0.023914
-0.023963
-0.023708
-0.023739
-0.024049
-0.024037
-0.025209
)
;
    }
}


// ************************************************************************* //
