/*--------------------------------*- C++ -*----------------------------------*\
| =========                 |                                                 |
| \\      /  F ield         | OpenFOAM: The Open Source CFD Toolbox           |
|  \\    /   O peration     | Version:  4.1                                   |
|   \\  /    A nd           | Web:      www.OpenFOAM.org                      |
|    \\/     M anipulation  |                                                 |
\*---------------------------------------------------------------------------*/
FoamFile
{
    version     2.0;
    format      ascii;
    class       surfaceVectorField;
    location    "0.0062";
    object      Uf;
}
// * * * * * * * * * * * * * * * * * * * * * * * * * * * * * * * * * * * * * //

dimensions      [0 1 -1 0 0 0 0];

internalField   nonuniform List<vector> 
4288
(
(0.074706 -0.012782 -1.9191e-06)
(0.0703 -0.010107 0.00075561)
(0.0703 -0.010107 -0.00076021)
(0.06987 -0.012251 -0.00018532)
(0.06987 -0.012252 0.00017975)
(0.085074 -0.014431 -1.5407e-06)
(0.07998 -0.011571 0.00079811)
(0.079979 -0.01157 -0.00080228)
(0.079572 -0.014094 -0.00019195)
(0.079572 -0.014094 0.00018813)
(0.096768 -0.015938 -7.4747e-07)
(0.090983 -0.012993 0.0008222)
(0.090983 -0.012993 -0.00082487)
(0.090651 -0.015903 -0.00019461)
(0.090651 -0.015905 0.00018977)
(0.10965 -0.017137 3.5613e-07)
(0.10323 -0.014248 0.00080528)
(0.10323 -0.014248 -0.00080562)
(0.10303 -0.017531 -0.00018008)
(0.10303 -0.017533 0.00017784)
(0.12345 -0.017859 1.6395e-06)
(0.1165 -0.0152 0.00072811)
(0.1165 -0.0152 -0.00072549)
(0.1165 -0.018816 -0.00014388)
(0.1165 -0.018818 0.00014417)
(0.13778 -0.017967 2.9094e-06)
(0.13049 -0.015716 0.00057696)
(0.13049 -0.015717 -0.00057122)
(0.13073 -0.019593 -7.9773e-05)
(0.13073 -0.019595 8.2837e-05)
(0.15214 -0.017384 4.0344e-06)
(0.14474 -0.015697 0.00034792)
(0.14474 -0.015698 -0.00033928)
(0.14527 -0.019734 1.4462e-05)
(0.14527 -0.019735 -7.9433e-06)
(0.166 -0.016101 4.9592e-06)
(0.15877 -0.015102 5.0976e-05)
(0.15877 -0.015103 -3.9902e-05)
(0.15959 -0.019186 0.00012861)
(0.15959 -0.019187 -0.00011923)
(0.17888 -0.014109 5.7001e-06)
(0.17206 -0.013925 -0.00029877)
(0.17206 -0.013927 0.00031177)
(0.17318 -0.017952 0.00024614)
(0.17318 -0.017953 -0.00023487)
(0.19026 -0.011311 6.3499e-06)
(0.18411 -0.012127 -0.00069232)
(0.18411 -0.012129 0.00070685)
(0.18557 -0.015989 0.00035801)
(0.18557 -0.015988 -0.00034401)
(0.19949 -0.0075447 7.0363e-06)
(0.19434 -0.0095914 -0.0011307)
(0.19433 -0.0095932 0.0011467)
(0.19617 -0.013126 0.00046935)
(0.19617 -0.013126 -0.00045498)
(0.20204 -0.0062148 -0.0016003)
(0.20204 -0.0062165 0.0016178)
(0.20422 -0.0091569 0.0006228)
(0.20422 -0.009166 -0.00061558)
(0.075063 -0.0092306 0.0012191)
(0.070586 -0.0077322 0.001906)
(0.070665 -0.0077779 0.00057342)
(0.070311 -0.009385 0.00088671)
(0.085407 -0.010442 0.0013101)
(0.080257 -0.0088288 0.0021304)
(0.080349 -0.0089185 0.00064613)
(0.080007 -0.010778 0.00097095)
(0.097043 -0.01156 0.0013676)
(0.091226 -0.0098902 0.0023356)
(0.091329 -0.010033 0.00071499)
(0.09104 -0.012143 0.0010434)
(0.10983 -0.012474 0.0013674)
(0.1034 -0.010819 0.0024897)
(0.10352 -0.011033 0.00077185)
(0.10333 -0.01337 0.0010887)
(0.12349 -0.013068 0.0012898)
(0.11658 -0.011512 0.0025613)
(0.11671 -0.011817 0.00080869)
(0.11666 -0.014334 0.0010927)
(0.13765 -0.013245 0.001123)
(0.13044 -0.01187 0.0025235)
(0.13058 -0.012288 0.00081748)
(0.13071 -0.014913 0.001044)
(0.15182 -0.012948 0.00086511)
(0.14454 -0.011821 0.0023606)
(0.1447 -0.012371 0.00079182)
(0.14504 -0.01501 0.00093606)
(0.1655 -0.012159 0.00051976)
(0.15841 -0.011332 0.0020722)
(0.15859 -0.012026 0.0007267)
(0.15914 -0.014586 0.00076528)
(0.17819 -0.010866 8.9134e-05)
(0.17154 -0.010394 0.001666)
(0.17174 -0.011238 0.00061717)
(0.17252 -0.013634 0.00052566)
(0.18937 -0.009022 -0.00043137)
(0.18341 -0.0089817 0.0011431)
(0.18364 -0.0099785 0.00045663)
(0.18465 -0.012123 0.00021278)
(0.1984 -0.006582 -0.0010423)
(0.19346 -0.007029 0.00049452)
(0.19372 -0.0081808 0.00023589)
(0.19498 -0.0099647 -0.00016947)
(0.20101 -0.0045127 -0.00025607)
(0.20131 -0.0058172 -5.4321e-05)
(0.20275 -0.0070932 -0.00056805)
(0.07528 -0.0074203 0.0027264)
(0.070752 -0.0061151 0.0031783)
(0.070886 -0.0062336 0.0019331)
(0.070531 -0.0077643 0.0029617)
(0.085605 -0.008386 0.0030463)
(0.080417 -0.0069752 0.0035982)
(0.080563 -0.0071334 0.0022004)
(0.080217 -0.0088937 0.0033683)
(0.097199 -0.009277 0.0033287)
(0.091363 -0.0078063 0.0039971)
(0.091517 -0.0080104 0.0024592)
(0.091216 -0.0099966 0.003761)
(0.10991 -0.010004 0.0035359)
(0.1035 -0.0085315 0.0043312)
(0.10365 -0.0087917 0.0026856)
(0.10344 -0.010979 0.0041015)
(0.12348 -0.010477 0.0036317)
(0.11662 -0.0090694 0.0045546)
(0.11677 -0.0093983 0.002854)
(0.11669 -0.011739 0.0043507)
(0.13753 -0.010619 0.0035877)
(0.1304 -0.0093425 0.0046251)
(0.13054 -0.0097536 0.0029403)
(0.13062 -0.012178 0.0044702)
(0.15157 -0.010383 0.0033893)
(0.14441 -0.0092934 0.0045138)
(0.14455 -0.0097981 0.0029267)
(0.14482 -0.01222 0.0044316)
(0.16512 -0.0097499 0.0030356)
(0.15818 -0.008896 0.0042105)
(0.15832 -0.0095003 0.0028055)
(0.15878 -0.01183 0.0042236)
(0.17767 -0.0087035 0.0025268)
(0.17121 -0.0081427 0.0037161)
(0.17134 -0.0088459 0.0025752)
(0.17201 -0.011 0.0038448)
(0.18869 -0.007204 0.0018543)
(0.18297 -0.0070127 0.0030234)
(0.1831 -0.0078089 0.0022312)
(0.18398 -0.0097023 0.0032863)
(0.19755 -0.0052176 0.0010233)
(0.19289 -0.0054593 0.002111)
(0.19302 -0.0063415 0.0017647)
(0.19413 -0.0078674 0.0025277)
(0.20032 -0.003481 0.00099611)
(0.20047 -0.0044295 0.0011919)
(0.20174 -0.0054629 0.0016002)
(0.075392 -0.005649 0.0040703)
(0.070808 -0.0045446 0.0045508)
(0.070998 -0.004745 0.0033028)
(0.07066 -0.0061124 0.0044424)
(0.085708 -0.0063703 0.0045732)
(0.080471 -0.0051684 0.005176)
(0.080672 -0.0054186 0.0037635)
(0.080343 -0.0069842 0.0050588)
(0.097281 -0.0070314 0.0050282)
(0.091409 -0.0057673 0.0057768)
(0.091612 -0.0060723 0.0042094)
(0.091326 -0.0078316 0.0056542)
(0.10996 -0.0075632 0.0053832)
(0.10353 -0.0062822 0.0062944)
(0.10372 -0.00665 0.0046004)
(0.10352 -0.0085798 0.0061729)
(0.12349 -0.0078966 0.0055864)
(0.11663 -0.0066512 0.0066661)
(0.1168 -0.0070912 0.0048933)
(0.11672 -0.0091488 0.0065547)
(0.13747 -0.0079733 0.0055952)
(0.13038 -0.0068162 0.0068333)
(0.13053 -0.0073376 0.005047)
(0.1306 -0.009461 0.0067426)
(0.15146 -0.0077574 0.0053846)
(0.14437 -0.0067348 0.0067533)
(0.14448 -0.0073449 0.0050306)
(0.14473 -0.0094578 0.0066938)
(0.16494 -0.0072344 0.0049463)
(0.15811 -0.0063887 0.0064073)
(0.15819 -0.00709 0.0048288)
(0.15863 -0.0091122 0.0063897)
(0.17742 -0.0063921 0.0042737)
(0.1711 -0.0057736 0.0057913)
(0.17114 -0.006563 0.0044365)
(0.17178 -0.0084173 0.0058264)
(0.18836 -0.0052017 0.0033479)
(0.18282 -0.0048747 0.0048912)
(0.18283 -0.0057461 0.0038428)
(0.18368 -0.0073517 0.0049885)
(0.19714 -0.0036457 0.0021623)
(0.19271 -0.0036585 0.0036737)
(0.19267 -0.0046078 0.0030286)
(0.19374 -0.0058647 0.0038405)
(0.2001 -0.0021345 0.0021485)
(0.20005 -0.003151 0.002005)
(0.20127 -0.0039506 0.0023946)
(0.075391 -0.0040636 0.0056561)
(0.070751 -0.0031723 0.0061217)
(0.070998 -0.003297 0.0047513)
(0.07066 -0.0044365 0.0061184)
(0.085708 -0.0045651 0.006379)
(0.080416 -0.0035912 0.0069831)
(0.080672 -0.0037568 0.0054261)
(0.080342 -0.0050521 0.0069919)
(0.09728 -0.0050179 0.0070424)
(0.091361 -0.0039887 0.0078159)
(0.091611 -0.0042009 0.0060816)
(0.091326 -0.0056461 0.0078414)
(0.10996 -0.0053702 0.0075769)
(0.1035 -0.0043204 0.0085438)
(0.10372 -0.0045894 0.006662)
(0.10352 -0.0061624 0.0085924)
(0.12349 -0.0055709 0.0079128)
(0.11662 -0.0045412 0.0090843)
(0.1168 -0.0048796 0.0071058)
(0.11672 -0.0065418 0.0091641)
(0.13747 -0.0055779 0.0079913)
(0.13039 -0.0046095 0.0093596)
(0.13053 -0.005031 0.0073546)
(0.1306 -0.0067275 0.0094786)
(0.15146 -0.0053666 0.0077761)
(0.14441 -0.0044967 0.0093118)
(0.14448 -0.005013 0.0073632)
(0.14473 -0.0066773 0.0094766)
(0.16494 -0.0049285 0.0072527)
(0.15818 -0.004193 0.0089144)
(0.15819 -0.0048109 0.0071085)
(0.15863 -0.006373 0.009131)
(0.17742 -0.004257 0.0064093)
(0.17121 -0.0036994 0.0081601)
(0.17114 -0.0044192 0.0065806)
(0.17178 -0.0058103 0.0084351)
(0.18836 -0.0033324 0.0052176)
(0.18297 -0.0030079 0.0070288)
(0.18283 -0.0038266 0.0057624)
(0.18368 -0.0049735 0.0073681)
(0.19714 -0.0021483 0.0036605)
(0.19289 -0.0020967 0.0054744)
(0.19267 -0.0030137 0.0046228)
(0.19374 -0.0038264 0.0058798)
(0.20033 -0.00098365 0.0034953)
(0.20005 -0.0019913 0.0031648)
(0.20127 -0.0023814 0.003965)
(0.075279 -0.0027205 0.0074273)
(0.070585 -0.0019005 0.0077387)
(0.070886 -0.0019282 0.0062403)
(0.07053 -0.0029567 0.007771)
(0.085604 -0.0030395 0.0083944)
(0.080256 -0.0021248 0.008836)
(0.080562 -0.0021949 0.0071412)
(0.080216 -0.0033636 0.0089024)
(0.097197 -0.0033202 0.0092875)
(0.091223 -0.0023291 0.009899)
(0.091515 -0.002452 0.0080196)
(0.091214 -0.0037548 0.010007)
(0.10991 -0.003525 0.010017)
(0.1034 -0.0024811 0.010831)
(0.10365 -0.0026758 0.0088033)
(0.10344 -0.0040933 0.010992)
(0.12348 -0.0036183 0.010492)
(0.11658 -0.00255 0.011526)
(0.11677 -0.0028414 0.0094125)
(0.11668 -0.0043397 0.011754)
(0.13753 -0.0035723 0.010636)
(0.13043 -0.0025097 0.011887)
(0.13054 -0.0029252 0.00977)
(0.13062 -0.0044569 0.012195)
(0.15157 -0.003373 0.010401)
(0.14454 -0.0023453 0.011839)
(0.14455 -0.00291 0.0098158)
(0.14482 -0.0044168 0.012239)
(0.16512 -0.0030193 0.0097674)
(0.15841 -0.0020564 0.011349)
(0.15832 -0.0027882 0.009518)
(0.15878 -0.0042082 0.011849)
(0.17767 -0.0025114 0.0087198)
(0.17154 -0.0016507 0.010411)
(0.17134 -0.0025584 0.0088625)
(0.17201 -0.0038297 0.011017)
(0.18869 -0.0018401 0.0072193)
(0.18341 -0.001129 0.0089971)
(0.1831 -0.0022153 0.0078241)
(0.18398 -0.0032722 0.0097178)
(0.19755 -0.0010106 0.0052323)
(0.19346 -0.00048148 0.0070441)
(0.19302 -0.00175 0.0063556)
(0.19413 -0.002514 0.0078818)
(0.20101 0.00026701 0.0045278)
(0.20047 -0.0011784 0.0044424)
(0.20174 -0.0015868 0.0054761)
(0.075061 -0.0012141 0.0092372)
(0.0703 -0.00075158 0.010112)
(0.070665 -0.00056934 0.0077847)
(0.07031 -0.00088378 0.0093925)
(0.085405 -0.0013044 0.01045)
(0.079977 -0.00079338 0.011577)
(0.080347 -0.00064108 0.0089259)
(0.080004 -0.00096657 0.010785)
(0.097039 -0.0013604 0.011571)
(0.09098 -0.00081662 0.013001)
(0.091326 -0.00070793 0.010042)
(0.091037 -0.0010368 0.012152)
(0.10982 -0.0013579 0.012487)
(0.10322 -0.0007976 0.014259)
(0.10351 -0.0007621 0.011043)
(0.10332 -0.0010797 0.013381)
(0.12349 -0.0012777 0.013084)
(0.1165 -0.00071795 0.015214)
(0.1167 -0.00079591 0.01183)
(0.11666 -0.001081 0.014347)
(0.13764 -0.0011088 0.013263)
(0.13048 -0.00056406 0.015733)
(0.13057 -0.00080194 0.012304)
(0.13071 -0.0010296 0.014929)
(0.15182 -0.00084979 0.012966)
(0.14474 -0.00033332 0.015716)
(0.1447 -0.00077437 0.012387)
(0.14504 -0.0009199 0.015027)
(0.1655 -0.00050433 0.012177)
(0.15877 -3.5884e-05 0.015121)
(0.15859 -0.00070844 0.012042)
(0.15914 -0.00074827 0.014603)
(0.17819 -7.4486e-05 0.010882)
(0.17206 0.00031357 0.013942)
(0.17174 -0.0005992 0.011254)
(0.17252 -0.00050884 0.013649)
(0.18937 0.00044488 0.0090378)
(0.18411 0.00070579 0.012143)
(0.18364 -0.00043985 0.0099925)
(0.18466 -0.00019713 0.012136)
(0.1984 0.0010541 0.006598)
(0.19434 0.0011428 0.0096063)
(0.19372 -0.0002204 0.0081944)
(0.19498 0.00018367 0.0099781)
(0.20204 0.0016101 0.0062303)
(0.20131 6.8212e-05 0.00583)
(0.20275 0.00058152 0.0071058)
(0.074704 4.7039e-06 0.012786)
(0.070299 0.00076222 0.010111)
(0.069869 0.00018613 0.012255)
(0.069869 -0.00017761 0.012255)
(0.085071 5.6177e-06 0.014437)
(0.079977 0.00080552 0.011575)
(0.079568 0.00019584 0.014098)
(0.079568 -0.00018272 0.014101)
(0.096763 6.8678e-06 0.015948)
(0.090979 0.00083121 0.012999)
(0.090646 0.0002 0.01591)
(0.090646 -0.00018507 0.015911)
(0.10964 8.2493e-06 0.01715)
(0.10322 0.00081521 0.014258)
(0.10302 0.0001884 0.017541)
(0.10302 -0.00017061 0.017542)
(0.12345 9.4295e-06 0.017875)
(0.1165 0.00073849 0.015212)
(0.1165 0.00015468 0.018829)
(0.1165 -0.00013481 0.018829)
(0.13777 1.0065e-05 0.017984)
(0.13048 0.00058664 0.015731)
(0.13073 9.2468e-05 0.019609)
(0.13073 -7.0328e-05 0.019609)
(0.15213 1.0067e-05 0.017402)
(0.14474 0.00035664 0.015714)
(0.14527 3.3529e-07 0.01975)
(0.14527 2.2767e-05 0.019751)
(0.166 9.4051e-06 0.016118)
(0.15877 5.8436e-05 0.015118)
(0.15959 -0.00011238 0.019202)
(0.15959 0.00013482 0.019202)
(0.17888 8.1014e-06 0.014125)
(0.17206 -0.00029344 0.01394)
(0.17319 -0.00022997 0.017966)
(0.17319 0.00025041 0.017967)
(0.19027 6.3632e-06 0.011326)
(0.18411 -0.0006895 0.012141)
(0.18557 -0.0003418 0.016)
(0.18557 0.00035888 0.016001)
(0.19949 4.4878e-06 0.0075605)
(0.19434 -0.0011311 0.0096051)
(0.19617 -0.00045617 0.013138)
(0.19617 0.00046774 0.013138)
(0.20204 -0.001603 0.0062297)
(0.20422 -0.00061402 0.0091733)
(0.20422 0.00062346 0.0091752)
(0.075062 -0.009231 -0.0012233)
(0.070665 -0.0077783 -0.00057775)
(0.070585 -0.0077332 -0.0019101)
(0.07031 -0.0093862 -0.00089205)
(0.085407 -0.010442 -0.0013131)
(0.080349 -0.0089189 -0.00065)
(0.080257 -0.0088299 -0.0021339)
(0.080006 -0.010779 -0.00097583)
(0.097043 -0.011561 -0.0013686)
(0.091329 -0.010034 -0.00071711)
(0.091226 -0.0098915 -0.0023374)
(0.09104 -0.012145 -0.0010467)
(0.10983 -0.012475 -0.0013658)
(0.10352 -0.011033 -0.00077134)
(0.1034 -0.010821 -0.0024891)
(0.10333 -0.013372 -0.0010893)
(0.12349 -0.013069 -0.0012851)
(0.11671 -0.011817 -0.00080485)
(0.11658 -0.011514 -0.0025577)
(0.11666 -0.014335 -0.0010898)
(0.13765 -0.013246 -0.0011154)
(0.13058 -0.012288 -0.0008102)
(0.13044 -0.011871 -0.0025168)
(0.13071 -0.014913 -0.0010374)
(0.15182 -0.012949 -0.00085471)
(0.1447 -0.012371 -0.00078139)
(0.14454 -0.011822 -0.002351)
(0.14504 -0.015011 -0.00092614)
(0.1655 -0.01216 -0.00050716)
(0.15859 -0.012026 -0.00071359)
(0.15841 -0.011333 -0.0020601)
(0.15914 -0.014587 -0.00075263)
(0.17819 -0.010867 -7.483e-05)
(0.17174 -0.011238 -0.00060199)
(0.17153 -0.010395 -0.0016519)
(0.17251 -0.013634 -0.00051094)
(0.18936 -0.0090233 0.00044723)
(0.18364 -0.0099785 -0.0004398)
(0.18341 -0.0089832 -0.0011274)
(0.18465 -0.012123 -0.00019649)
(0.19839 -0.0065834 0.0010597)
(0.19371 -0.0081807 -0.00021731)
(0.19345 -0.0070306 -0.0004772)
(0.19497 -0.0099648 0.00018744)
(0.20131 -0.0058171 7.4429e-05)
(0.201 -0.0045148 0.00027535)
(0.20275 -0.0070939 0.00058698)
(0.075456 -0.0074635 -1.8343e-06)
(0.070965 -0.0062558 0.00062981)
(0.070965 -0.0062562 -0.00063333)
(0.085806 -0.008458 -1.2479e-06)
(0.080654 -0.0071569 0.00071728)
(0.080654 -0.0071573 -0.0007202)
(0.097423 -0.0093861 -1.3011e-07)
(0.091619 -0.0080338 0.00080245)
(0.091619 -0.0080343 -0.00080347)
(0.11016 -0.010163 1.3686e-06)
(0.10377 -0.008814 0.00087725)
(0.10377 -0.0088145 -0.00087562)
(0.12376 -0.010704 3.0642e-06)
(0.1169 -0.0094185 0.00093372)
(0.1169 -0.0094189 -0.00092883)
(0.13783 -0.010933 4.704e-06)
(0.13068 -0.009771 0.00096463)
(0.13068 -0.0097713 -0.00095644)
(0.15191 -0.010802 6.1482e-06)
(0.14471 -0.0098123 0.00096562)
(0.14471 -0.0098126 -0.00095437)
(0.16551 -0.010289 7.3267e-06)
(0.1585 -0.0095109 0.00093649)
(0.1585 -0.0095111 -0.00092259)
(0.1781 -0.0093748 8.245e-06)
(0.17154 -0.0088521 0.00087966)
(0.17154 -0.0088522 -0.0008637)
(0.18917 -0.0080226 9.0616e-06)
(0.18333 -0.0078101 0.00079709)
(0.18332 -0.0078103 -0.00077945)
(0.1981 -0.006202 9.8047e-06)
(0.19328 -0.0063383 0.0006908)
(0.19327 -0.0063385 -0.0006714)
(0.20077 -0.0044223 0.00057648)
(0.20077 -0.0044226 -0.00055537)
(0.075679 -0.0059186 0.0013791)
(0.071132 -0.0048019 0.0019674)
(0.071181 -0.0048402 0.00065558)
(0.086016 -0.0066987 0.0015544)
(0.080818 -0.0054858 0.0022408)
(0.080865 -0.0055315 0.00074638)
(0.097599 -0.007425 0.0017161)
(0.091765 -0.00615 0.0025053)
(0.091805 -0.0062032 0.00083455)
(0.11028 -0.0080304 0.0018479)
(0.10388 -0.0067385 0.0027372)
(0.10391 -0.0067993 0.00091202)
(0.12379 -0.0084468 0.0019339)
(0.11695 -0.0071911 0.002911)
(0.11696 -0.0072591 0.00097029)
(0.13777 -0.0086149 0.0019611)
(0.13067 -0.0074501 0.0030028)
(0.13066 -0.007524 0.0010013)
(0.15174 -0.0084952 0.0019222)
(0.14462 -0.0074711 0.0029953)
(0.14458 -0.0075484 0.00099909)
(0.16522 -0.0080674 0.0018159)
(0.15832 -0.0072308 0.002881)
(0.15825 -0.0073063 0.00096071)
(0.17769 -0.0073142 0.0016421)
(0.17128 -0.0067182 0.0026586)
(0.17118 -0.0067841 0.00088513)
(0.18861 -0.0062053 0.0014)
(0.18296 -0.0059151 0.002324)
(0.18283 -0.0059606 0.00077075)
(0.19739 -0.0047188 0.0010983)
(0.1928 -0.004791 0.0018701)
(0.19264 -0.0048015 0.00061561)
(0.20019 -0.0033468 0.0013122)
(0.2 -0.0032966 0.00042472)
(0.075791 -0.0043581 0.0028396)
(0.071188 -0.0033599 0.0033656)
(0.071288 -0.0034112 0.0020125)
(0.086121 -0.0049245 0.0032037)
(0.080872 -0.0038321 0.0038388)
(0.080968 -0.003893 0.0022937)
(0.097685 -0.0054493 0.0035401)
(0.091813 -0.0042891 0.0042976)
(0.091895 -0.0043598 0.0025661)
(0.11034 -0.0058832 0.0038159)
(0.10391 -0.0046912 0.0047023)
(0.10397 -0.0047719 0.0028059)
(0.12381 -0.0061761 0.0039979)
(0.11697 -0.0049961 0.0050099)
(0.11699 -0.0050865 0.0029872)
(0.13773 -0.0062851 0.0040582)
(0.13067 -0.0051635 0.0051797)
(0.13064 -0.0052629 0.0030856)
(0.15165 -0.0061819 0.0039791)
(0.14459 -0.0051632 0.0051809)
(0.14451 -0.0052695 0.0030823)
(0.16506 -0.0058527 0.0037529)
(0.15826 -0.0049801 0.004998)
(0.15812 -0.0050886 0.0029674)
(0.17747 -0.0052859 0.0033742)
(0.17118 -0.0046078 0.0046252)
(0.17098 -0.0047112 0.0027362)
(0.18833 -0.0044622 0.0028332)
(0.18283 -0.0040353 0.0040515)
(0.18256 -0.0041234 0.0023817)
(0.19703 -0.0033729 0.0021307)
(0.19264 -0.0032443 0.0032592)
(0.1923 -0.0033044 0.0018935)
(0.19999 -0.0022447 0.0022584)
(0.1996 -0.0022542 0.0012761)
(0.075791 -0.0028337 0.0043646)
(0.071132 -0.0019624 0.0048082)
(0.071287 -0.0020074 0.0034169)
(0.08612 -0.0031965 0.0049324)
(0.080817 -0.0022349 0.0054931)
(0.080968 -0.0022877 0.0038997)
(0.097684 -0.0035308 0.0054595)
(0.091764 -0.0024977 0.006159)
(0.091894 -0.0025582 0.0043683)
(0.11033 -0.003804 0.005896)
(0.10388 -0.002727 0.0067501)
(0.10397 -0.0027953 0.0047829)
(0.12381 -0.0039834 0.0061915)
(0.11695 -0.002898 0.0072053)
(0.11699 -0.0029738 0.0051003)
(0.13773 -0.0040417 0.0063023)
(0.13067 -0.0029874 0.0074666)
(0.13064 -0.0030698 0.0052791)
(0.15165 -0.0039616 0.0062)
(0.14462 -0.0029783 0.007489)
(0.14451 -0.0030649 0.0052871)
(0.16506 -0.0037354 0.0058706)
(0.15832 -0.0028634 0.0072488)
(0.15812 -0.0029494 0.0051066)
(0.17747 -0.0033575 0.0053027)
(0.17128 -0.0026414 0.0067354)
(0.17098 -0.0027186 0.0047286)
(0.18833 -0.0028178 0.0044778)
(0.18296 -0.0023079 0.005931)
(0.18256 -0.0023652 0.0041395)
(0.19703 -0.0021165 0.0033872)
(0.1928 -0.0018553 0.0048056)
(0.1923 -0.0018783 0.0033193)
(0.20019 -0.0012987 0.0033603)
(0.1996 -0.0012622 0.0022678)
(0.075678 -0.0013742 0.0059256)
(0.070964 -0.00062556 0.0062625)
(0.07118 -0.00065127 0.0048464)
(0.086015 -0.0015482 0.0067071)
(0.080653 -0.00071227 0.0071643)
(0.080864 -0.00074119 0.0055386)
(0.097596 -0.0017077 0.0074353)
(0.091617 -0.00079545 0.0080427)
(0.091803 -0.00082731 0.0062119)
(0.11028 -0.0018368 0.0080433)
(0.10376 -0.00086758 0.0088253)
(0.1039 -0.000902 0.0068105)
(0.12379 -0.00192 0.0084621)
(0.11689 -0.00092103 0.0094324)
(0.11696 -0.00095727 0.007273)
(0.13777 -0.0019451 0.0086321)
(0.13068 -0.00094935 0.0097871)
(0.13066 -0.00098566 0.0075402)
(0.15174 -0.001905 0.0085131)
(0.14471 -0.00094856 0.0098297)
(0.14458 -0.00098163 0.0075658)
(0.16522 -0.0017985 0.0080848)
(0.1585 -0.00091867 0.0095283)
(0.15825 -0.00094248 0.0073239)
(0.17769 -0.0016255 0.0073304)
(0.17154 -0.00086217 0.0088684)
(0.17118 -0.0008672 0.0068009)
(0.18862 -0.0013846 0.0062203)
(0.18333 -0.00078074 0.007825)
(0.18283 -0.00075388 0.005976)
(0.19739 -0.0010842 0.0047325)
(0.19328 -0.00067589 0.0063523)
(0.19264 -0.00060011 0.0048157)
(0.20077 -0.000563 0.0044352)
(0.2 -0.00041073 0.0033096)
(0.075454 6.276e-06 0.0074707)
(0.070664 0.00058139 0.0077848)
(0.070964 0.00063706 0.0062628)
(0.085803 7.2645e-06 0.0084662)
(0.080346 0.00065468 0.0089263)
(0.080652 0.00072494 0.0071647)
(0.097419 8.6597e-06 0.0093961)
(0.091325 0.00072416 0.010042)
(0.091616 0.00081065 0.0080431)
(0.11016 1.0165e-05 0.010176)
(0.10351 0.00078149 0.011044)
(0.10376 0.00088591 0.0088257)
(0.12375 1.1424e-05 0.010719)
(0.1167 0.0008183 0.01183)
(0.11689 0.00094245 0.0094328)
(0.13783 1.2121e-05 0.010949)
(0.13057 0.00082643 0.012304)
(0.13068 0.00097289 0.0097875)
(0.15191 1.2049e-05 0.010819)
(0.1447 0.00079955 0.012388)
(0.14471 0.00097282 0.00983)
(0.16551 1.1126e-05 0.010305)
(0.15859 0.00073258 0.012042)
(0.1585 0.00094198 0.0095285)
(0.1781 9.434e-06 0.0093903)
(0.17174 0.00062053 0.011254)
(0.17154 0.00088281 0.0088686)
(0.18917 7.1943e-06 0.0080369)
(0.18364 0.00045691 0.0099922)
(0.18333 0.00079737 0.0078251)
(0.1981 4.7546e-06 0.0062152)
(0.19372 0.0002324 0.0081938)
(0.19328 0.00068772 0.0063523)
(0.20131 -6.1278e-05 0.0058294)
(0.20077 0.00056979 0.0044352)
(0.07506 0.0012256 0.0092361)
(0.070585 0.0019115 0.0077383)
(0.070309 0.00089597 0.0093926)
(0.085403 0.0013177 0.010448)
(0.080254 0.0021366 0.0088359)
(0.080003 0.00098096 0.010786)
(0.097037 0.0013766 0.01157)
(0.091221 0.0023435 0.0098988)
(0.091035 0.0010537 0.012153)
(0.10982 0.0013773 0.012486)
(0.1034 0.0024988 0.01083)
(0.10332 0.0010997 0.013382)
(0.12348 0.0012997 0.013082)
(0.11657 0.0025711 0.011526)
(0.11666 0.0011037 0.014348)
(0.13764 0.0011322 0.013261)
(0.13043 0.0025331 0.011886)
(0.13071 0.0010545 0.014929)
(0.15182 0.00087303 0.012964)
(0.14454 0.0023694 0.011838)
(0.14504 0.00094552 0.015028)
(0.1655 0.00052577 0.012175)
(0.15841 0.0020797 0.011349)
(0.15914 0.0007729 0.014603)
(0.17819 9.2604e-05 0.010881)
(0.17153 0.0016712 0.01041)
(0.17252 0.00053071 0.013649)
(0.18937 -0.00043102 0.0090362)
(0.18341 0.0011455 0.0089962)
(0.18465 0.00021451 0.012136)
(0.1984 -0.0010448 0.0065967)
(0.19346 0.00049352 0.0070431)
(0.19497 -0.00017179 0.0099772)
(0.201 -0.00025996 0.0045272)
(0.20275 -0.00057458 0.0071049)
(0.075279 -0.0074219 -0.00273)
(0.070885 -0.0062346 -0.0019367)
(0.070751 -0.006117 -0.0031821)
(0.07053 -0.0077661 -0.002966)
(0.085606 -0.0083878 -0.0030486)
(0.080563 -0.0071348 -0.0022033)
(0.080417 -0.0069775 -0.0036009)
(0.080217 -0.0088964 -0.0033725)
(0.097199 -0.009279 -0.0033289)
(0.091516 -0.0080118 -0.0024602)
(0.091364 -0.0078086 -0.0039981)
(0.091217 -0.009999 -0.0037629)
(0.10991 -0.010006 -0.0035333)
(0.10365 -0.0087931 -0.0026839)
(0.1035 -0.0085341 -0.0043296)
(0.10344 -0.010981 -0.0041009)
(0.12348 -0.010479 -0.003626)
(0.11677 -0.0093996 -0.0028491)
(0.11662 -0.009072 -0.0045498)
(0.11669 -0.011741 -0.0043468)
(0.13753 -0.010621 -0.0035789)
(0.13054 -0.0097548 -0.0029322)
(0.1304 -0.009345 -0.0046171)
(0.13062 -0.01218 -0.0044632)
(0.15157 -0.010385 -0.0033777)
(0.14455 -0.0097992 -0.0029155)
(0.14441 -0.0092959 -0.0045027)
(0.14482 -0.012222 -0.0044216)
(0.16512 -0.0097517 -0.0030217)
(0.15832 -0.0095014 -0.0027917)
(0.15818 -0.0088984 -0.0041967)
(0.15878 -0.011832 -0.0042109)
(0.17767 -0.0087054 -0.0025111)
(0.17134 -0.0088468 -0.0025593)
(0.1712 -0.008145 -0.0037004)
(0.172 -0.011002 -0.00383)
(0.18868 -0.007206 -0.001837)
(0.18309 -0.0078099 -0.0022135)
(0.18297 -0.0070152 -0.0030061)
(0.18398 -0.0097045 -0.00327)
(0.19755 -0.0052199 -0.0010041)
(0.19301 -0.0063424 -0.0017452)
(0.19289 -0.0054618 -0.0020918)
(0.19412 -0.0078697 -0.0025095)
(0.20046 -0.0044304 -0.0011704)
(0.20032 -0.0034836 -0.00097522)
(0.20173 -0.0054648 -0.0015795)
(0.075679 -0.0059194 -0.0013819)
(0.07118 -0.0048406 -0.00065832)
(0.071131 -0.0048029 -0.0019703)
(0.086016 -0.0066996 -0.0015559)
(0.080865 -0.0055319 -0.00074836)
(0.080818 -0.0054871 -0.0022428)
(0.097598 -0.0074258 -0.0017153)
(0.091805 -0.0062036 -0.00083457)
(0.091765 -0.0061513 -0.0025054)
(0.11028 -0.0080313 -0.0018441)
(0.10391 -0.0067998 -0.00090932)
(0.10388 -0.0067399 -0.0027345)
(0.12379 -0.0084476 -0.0019268)
(0.11696 -0.0072596 -0.00096437)
(0.11695 -0.0071926 -0.002905)
(0.13776 -0.0086157 -0.0019508)
(0.13066 -0.0075245 -0.00099213)
(0.13067 -0.0074515 -0.0029936)
(0.15174 -0.0084959 -0.0019091)
(0.14458 -0.0075488 -0.00098686)
(0.14462 -0.0074725 -0.002983)
(0.16521 -0.008068 -0.0018005)
(0.15825 -0.0073067 -0.0009459)
(0.15832 -0.007232 -0.0028661)
(0.17768 -0.0073147 -0.0016248)
(0.17118 -0.0067844 -0.00086826)
(0.17127 -0.0067193 -0.0026417)
(0.18861 -0.0062059 -0.001381)
(0.18283 -0.0059609 -0.00075212)
(0.18295 -0.0059162 -0.0023054)
(0.19739 -0.0047192 -0.0010775)
(0.19264 -0.0048017 -0.00059519)
(0.19279 -0.0047921 -0.0018497)
(0.2 -0.0032968 -0.00040252)
(0.20018 -0.0033478 -0.00129)
(0.075888 -0.004429 -9.694e-07)
(0.071336 -0.0034364 0.00067096)
(0.071336 -0.0034368 -0.00067299)
(0.08621 -0.0050088 -2.6343e-07)
(0.081015 -0.0039235 0.00076565)
(0.081015 -0.0039239 -0.00076676)
(0.097755 -0.0055476 9.2472e-07)
(0.091935 -0.0043958 0.00085794)
(0.091935 -0.0043962 -0.00085703)
(0.11038 -0.0059957 2.4238e-06)
(0.104 -0.0048137 0.00093974)
(0.104 -0.0048142 -0.00093602)
(0.12381 -0.0063024 4.0507e-06)
(0.117 -0.0051345 0.0010023)
(0.117 -0.005135 -0.00099529)
(0.13768 -0.0064236 5.6277e-06)
(0.13063 -0.0053171 0.0010371)
(0.13063 -0.0053176 -0.0010269)
(0.15154 -0.0063288 7.0243e-06)
(0.14447 -0.0053296 0.0010379)
(0.14447 -0.00533 -0.0010246)
(0.1649 -0.0060012 8.1737e-06)
(0.15805 -0.0051538 0.0010011)
(0.15805 -0.0051542 -0.00098535)
(0.17724 -0.0054261 9.1239e-06)
(0.17088 -0.0047798 0.00092539)
(0.17088 -0.0047802 -0.00090759)
(0.18804 -0.0045807 1.0005e-05)
(0.18243 -0.0041931 0.00080828)
(0.18243 -0.0041935 -0.00078873)
(0.19668 -0.0034486 1.0888e-05)
(0.19214 -0.003372 0.00064606)
(0.19214 -0.0033724 -0.00062476)
(0.19941 -0.0023139 0.0004397)
(0.19941 -0.0023142 -0.00041666)
(0.07599 -0.0029238 0.0014444)
(0.071387 -0.0020381 0.0020432)
(0.071435 -0.0020504 0.00067764)
(0.086302 -0.003303 0.001631)
(0.081064 -0.002325 0.002331)
(0.081108 -0.002339 0.00077272)
(0.097827 -0.0036543 0.001804)
(0.091976 -0.0026025 0.0026104)
(0.092012 -0.0026181 0.00086519)
(0.11041 -0.0039448 0.001947)
(0.10403 -0.002847 0.0028576)
(0.10405 -0.0028643 0.00094706)
(0.1238 -0.0041413 0.002043)
(0.11701 -0.0030331 0.0030466)
(0.11701 -0.003052 0.0010097)
(0.13762 -0.0042149 0.0020775)
(0.13061 -0.0031367 0.0031526)
(0.13059 -0.0031573 0.0010447)
(0.15142 -0.004146 0.0020406)
(0.14442 -0.0031391 0.0031566)
(0.14437 -0.0031613 0.0010459)
(0.16472 -0.0039237 0.0019273)
(0.15798 -0.0030297 0.0030478)
(0.15789 -0.0030534 0.0010095)
(0.17699 -0.0035384 0.0017334)
(0.17077 -0.0028031 0.0028208)
(0.17065 -0.0028274 0.00093374)
(0.18772 -0.0029764 0.0014528)
(0.18229 -0.0024511 0.0024677)
(0.18213 -0.0024751 0.00081606)
(0.19629 -0.0022297 0.0010829)
(0.19196 -0.0019617 0.001977)
(0.19176 -0.0019846 0.00065324)
(0.1992 -0.0013359 0.0013498)
(0.19897 -0.001356 0.00044614)
(0.07599 -0.0014392 0.0029297)
(0.071336 -0.00066662 0.0034421)
(0.071435 -0.00067334 0.0020554)
(0.086302 -0.0016243 0.0033103)
(0.081014 -0.00076035 0.0039301)
(0.081108 -0.00076744 0.002345)
(0.097826 -0.001795 0.0036638)
(0.091934 -0.00085059 0.0044042)
(0.092012 -0.00085787 0.0026261)
(0.11041 -0.0019352 0.0039571)
(0.104 -0.0009296 0.0048247)
(0.10405 -0.00093695 0.0028749)
(0.1238 -0.0020285 0.0041561)
(0.117 -0.00098915 0.0051482)
(0.11701 -0.00099655 0.0030655)
(0.13762 -0.0020608 0.0042317)
(0.13063 -0.0010214 0.0053331)
(0.13059 -0.001029 0.0031732)
(0.15142 -0.0020228 0.0041638)
(0.14447 -0.0010203 0.0053471)
(0.14437 -0.0010283 0.0031789)
(0.16472 -0.0019094 0.0039414)
(0.15805 -0.00098284 0.0051717)
(0.15789 -0.00099119 0.0030715)
(0.17699 -0.0017161 0.0035553)
(0.17088 -0.00090738 0.0047971)
(0.17065 -0.00091568 0.0028451)
(0.18772 -0.0014367 0.0029921)
(0.18243 -0.00079127 0.0042091)
(0.18213 -0.00079899 0.0024916)
(0.19629 -0.0010681 0.0022441)
(0.19214 -0.00063041 0.0033868)
(0.19176 -0.00063752 0.0019998)
(0.19941 -0.00042551 0.0023274)
(0.19897 -0.00043187 0.0013699)
(0.075887 5.3922e-06 0.0044355)
(0.07118 0.00066189 0.0048468)
(0.071336 0.00067644 0.0034425)
(0.086208 6.25e-06 0.0050166)
(0.080863 0.00075293 0.005539)
(0.081014 0.00077123 0.0039306)
(0.097753 7.5911e-06 0.0055576)
(0.091802 0.00084146 0.0062124)
(0.091933 0.00086372 0.0044047)
(0.11037 9.0831e-06 0.0060083)
(0.1039 0.00091924 0.0068111)
(0.104 0.0009457 0.0048253)
(0.1238 1.0357e-05 0.0063175)
(0.11696 0.00097751 0.0072735)
(0.117 0.0010082 0.0051488)
(0.13768 1.1088e-05 0.0064404)
(0.13066 0.0010081 0.0075407)
(0.13063 0.0010426 0.0053337)
(0.15154 1.107e-05 0.0063465)
(0.14458 0.0010048 0.0075663)
(0.14447 0.0010424 0.0053476)
(0.1649 1.023e-05 0.0060187)
(0.15825 0.00096477 0.0073243)
(0.15805 0.0010041 0.0051722)
(0.17724 8.6516e-06 0.0054425)
(0.17118 0.00088693 0.0068012)
(0.17088 0.00092619 0.0047975)
(0.18804 6.5524e-06 0.0045958)
(0.18283 0.00076975 0.0059762)
(0.18243 0.00080636 0.0042095)
(0.19669 4.1863e-06 0.0034625)
(0.19264 0.0006113 0.0048158)
(0.19214 0.00064096 0.0033871)
(0.2 0.00041701 0.0033096)
(0.19941 0.00043128 0.0023276)
(0.075677 0.0013858 0.0059264)
(0.070885 0.0019395 0.0062415)
(0.071131 0.0019729 0.0048094)
(0.086013 0.0015616 0.0067079)
(0.08056 0.0022073 0.0071424)
(0.080816 0.0022465 0.0054944)
(0.097594 0.0017238 0.0074363)
(0.091512 0.0024671 0.0080212)
(0.091761 0.0025116 0.0061605)
(0.11027 0.001856 0.0080443)
(0.10365 0.0026942 0.008805)
(0.10387 0.002744 0.0067517)
(0.12379 0.0019419 0.0084632)
(0.11676 0.002863 0.0094142)
(0.11695 0.0029181 0.0072071)
(0.13776 0.0019684 0.008633)
(0.13054 0.002949 0.0097717)
(0.13067 0.0030098 0.0074682)
(0.15174 0.0019283 0.0085138)
(0.14455 0.0029345 0.0098173)
(0.14462 0.0030015 0.0074905)
(0.16521 0.00182 0.0080854)
(0.15832 0.0028118 0.0095193)
(0.15832 0.0028858 0.0072501)
(0.17768 0.0016437 0.0073308)
(0.17134 0.0025792 0.0088635)
(0.17127 0.0026612 0.0067365)
(0.18861 0.0013985 0.0062205)
(0.1831 0.0022321 0.0078246)
(0.18296 0.0023239 0.0059318)
(0.19739 0.0010933 0.0047326)
(0.19302 0.0017619 0.0063558)
(0.1928 0.0018667 0.0048063)
(0.20046 0.0011852 0.0044423)
(0.20018 0.0013052 0.0033607)
(0.075277 0.0027316 0.0074279)
(0.070751 0.0031825 0.0061231)