/*--------------------------------*- C++ -*----------------------------------*\
| =========                 |                                                 |
| \\      /  F ield         | OpenFOAM: The Open Source CFD Toolbox           |
|  \\    /   O peration     | Version:  4.1                                   |
|   \\  /    A nd           | Web:      www.OpenFOAM.org                      |
|    \\/     M anipulation  |                                                 |
\*---------------------------------------------------------------------------*/
FoamFile
{
    version     2.0;
    format      ascii;
    class       pointVectorField;
    location    "0.0072";
    object      pointDisplacement_Next;
}
// * * * * * * * * * * * * * * * * * * * * * * * * * * * * * * * * * * * * * //

dimensions      [0 1 0 0 0 0 0];

internalField   uniform (0 0 0);

boundaryField
{
    inlet
    {
        type            fixedValue;
        value           nonuniform 0();
    }
    outlet
    {
        type            fixedValue;
        value           nonuniform 0();
    }
    mantle
    {
        type            fixedValue;
        value           nonuniform List<vector> 
416
(
(3.5205e-05 -8.3787e-05 -2.0572e-10)
(3.2496e-05 -9.1787e-05 -1.2122e-10)
(3.252e-05 -8.9839e-05 1.7816e-05)
(3.5253e-05 -8.2047e-05 1.6307e-05)
(3.255e-05 -8.4319e-05 3.493e-05)
(3.5309e-05 -7.7041e-05 3.1948e-05)
(3.254e-05 -7.5742e-05 5.0671e-05)
(3.5289e-05 -6.9186e-05 4.6284e-05)
(3.2525e-05 -6.4435e-05 6.4434e-05)
(3.5256e-05 -5.882e-05 5.882e-05)
(3.254e-05 -5.0671e-05 7.5742e-05)
(3.5289e-05 -4.6284e-05 6.9186e-05)
(3.255e-05 -3.4931e-05 8.4319e-05)
(3.5309e-05 -3.1949e-05 7.7041e-05)
(3.252e-05 -1.7816e-05 8.9841e-05)
(3.5253e-05 -1.6307e-05 8.2048e-05)
(3.2497e-05 1.4019e-10 9.1789e-05)
(3.5205e-05 -6.757e-11 8.3789e-05)
(2.9584e-05 -9.7222e-05 1.1793e-10)
(2.9586e-05 -9.5102e-05 1.8832e-05)
(2.9588e-05 -8.9227e-05 3.6942e-05)
(2.9593e-05 -8.0175e-05 5.3642e-05)
(2.9592e-05 -6.8256e-05 6.8256e-05)
(2.9593e-05 -5.3642e-05 8.0175e-05)
(2.9588e-05 -3.6942e-05 8.9227e-05)
(2.9587e-05 -1.8831e-05 9.5103e-05)
(2.9584e-05 1.4783e-10 9.7224e-05)
(2.6373e-05 -9.949e-05 2.7122e-10)
(2.6362e-05 -9.739e-05 1.9317e-05)
(2.6351e-05 -9.1424e-05 3.7875e-05)
(2.6351e-05 -8.2129e-05 5.4942e-05)
(2.6357e-05 -6.9866e-05 6.9866e-05)
(2.6351e-05 -5.4942e-05 8.2129e-05)
(2.6351e-05 -3.7875e-05 9.1424e-05)
(2.6362e-05 -1.9317e-05 9.739e-05)
(2.6373e-05 2.6534e-10 9.949e-05)
(2.2818e-05 -9.9242e-05 2.032e-10)
(2.2801e-05 -9.7201e-05 1.9319e-05)
(2.278e-05 -9.1297e-05 3.7855e-05)
(2.2774e-05 -8.2004e-05 5.4853e-05)
(2.278e-05 -6.9716e-05 6.9716e-05)
(2.2774e-05 -5.4852e-05 8.2004e-05)
(2.2781e-05 -3.7855e-05 9.1296e-05)
(2.2801e-05 -1.9319e-05 9.72e-05)
(2.2818e-05 1.712e-10 9.9241e-05)
(1.8963e-05 -9.7222e-05 3.546e-10)
(1.8949e-05 -9.5229e-05 1.892e-05)
(1.8925e-05 -8.9473e-05 3.7081e-05)
(1.891e-05 -8.0388e-05 5.3763e-05)
(1.8907e-05 -6.8358e-05 6.8358e-05)
(1.891e-05 -5.3762e-05 8.0387e-05)
(1.8925e-05 -3.7081e-05 8.9472e-05)
(1.8949e-05 -1.892e-05 9.5228e-05)
(1.8963e-05 9.7862e-11 9.7221e-05)
(1.5022e-05 -9.3712e-05 2.1484e-10)
(1.5014e-05 -9.1772e-05 1.8209e-05)
(1.4989e-05 -8.6232e-05 3.5717e-05)
(1.4972e-05 -7.7514e-05 5.1841e-05)
(1.4959e-05 -6.5951e-05 6.5952e-05)
(1.4972e-05 -5.184e-05 7.7514e-05)
(1.4989e-05 -3.5716e-05 8.6231e-05)
(1.5014e-05 -1.8209e-05 9.1771e-05)
(1.5022e-05 2.7249e-10 9.3712e-05)
(1.1237e-05 -8.8768e-05 -1.9396e-12)
(1.1214e-05 -8.694e-05 1.7242e-05)
(1.1182e-05 -8.1703e-05 3.384e-05)
(1.1176e-05 -7.3475e-05 4.9149e-05)
(1.1183e-05 -6.2531e-05 6.2531e-05)
(1.1176e-05 -4.9149e-05 7.3475e-05)
(1.1181e-05 -3.3839e-05 8.1702e-05)
(1.1214e-05 -1.7241e-05 8.694e-05)
(1.1237e-05 4.369e-10 8.8768e-05)
(7.7097e-06 -8.2726e-05 -2.2744e-11)
(7.6737e-06 -8.1014e-05 1.6065e-05)
(7.6284e-06 -7.6135e-05 3.1545e-05)
(7.6408e-06 -6.8504e-05 4.584e-05)
(7.6641e-06 -5.8327e-05 5.8327e-05)
(7.6407e-06 -4.584e-05 6.8504e-05)
(7.6282e-06 -3.1545e-05 7.6134e-05)
(7.6735e-06 -1.6065e-05 8.1014e-05)
(7.7096e-06 3.4783e-10 8.2726e-05)
(4.4597e-06 -7.5842e-05 -1.6787e-10)
(4.426e-06 -7.4288e-05 1.473e-05)
(4.3829e-06 -6.9845e-05 2.8938e-05)
(4.3898e-06 -6.286e-05 4.2066e-05)
(4.4081e-06 -5.3529e-05 5.3529e-05)
(4.3897e-06 -4.2066e-05 6.286e-05)
(4.3827e-06 -2.8937e-05 6.9845e-05)
(4.4259e-06 -1.473e-05 7.4288e-05)
(4.4595e-06 3.7529e-10 7.5842e-05)
(1.4937e-06 -6.8357e-05 -1.9178e-10)
(1.4625e-06 -6.6959e-05 1.3271e-05)
(1.4228e-06 -6.2972e-05 2.6084e-05)
(1.4238e-06 -5.6703e-05 3.7944e-05)
(1.4373e-06 -4.8301e-05 4.8301e-05)
(1.4237e-06 -3.7944e-05 5.6703e-05)
(1.4227e-06 -2.6083e-05 6.2972e-05)
(1.4623e-06 -1.327e-05 6.6959e-05)
(1.4935e-06 2.9402e-10 6.8358e-05)
(-1.1864e-06 -6.047e-05 -1.8612e-10)
(-1.2207e-06 -5.925e-05 1.174e-05)
(-1.2612e-06 -5.5747e-05 2.3085e-05)
(-1.2501e-06 -5.0221e-05 3.3602e-05)
(-1.2284e-06 -4.2784e-05 4.2784e-05)
(-1.2502e-06 -3.3602e-05 5.0221e-05)
(-1.2614e-06 -2.3085e-05 5.5747e-05)
(-1.2209e-06 -1.174e-05 5.925e-05)
(-1.1866e-06 2.2338e-10 6.047e-05)
(-3.5426e-06 -5.263e-05 -2.6758e-10)
(-3.5801e-06 -5.1564e-05 1.0208e-05)
(-3.6222e-06 -4.852e-05 2.009e-05)
(-3.5976e-06 -4.3744e-05 2.9278e-05)
(-3.5666e-06 -3.7291e-05 3.7291e-05)
(-3.5977e-06 -2.9278e-05 4.3744e-05)
(-3.6224e-06 -2.009e-05 4.852e-05)
(-3.5803e-06 -1.0208e-05 5.1564e-05)
(-3.5427e-06 2.6478e-10 5.263e-05)
(3.2521e-05 1.7816e-05 8.9841e-05)
(3.5253e-05 1.6307e-05 8.2049e-05)
(3.255e-05 3.4931e-05 8.432e-05)
(3.5309e-05 3.1949e-05 7.7042e-05)
(3.2541e-05 5.0672e-05 7.5743e-05)
(3.5289e-05 4.6285e-05 6.9187e-05)
(3.2525e-05 6.4436e-05 6.4436e-05)
(3.5256e-05 5.8821e-05 5.8822e-05)
(3.2541e-05 7.5743e-05 5.0672e-05)
(3.5289e-05 6.9186e-05 4.6285e-05)
(3.255e-05 8.4319e-05 3.4931e-05)
(3.5309e-05 7.704e-05 3.1949e-05)
(3.252e-05 8.9839e-05 1.7816e-05)
(3.5253e-05 8.2046e-05 1.6307e-05)
(3.2496e-05 9.1786e-05 5.8105e-11)
(3.5205e-05 8.3786e-05 1.2868e-10)
(2.9587e-05 1.8832e-05 9.5104e-05)
(2.9589e-05 3.6942e-05 8.9228e-05)
(2.9593e-05 5.3643e-05 8.0175e-05)
(2.9592e-05 6.8257e-05 6.8257e-05)
(2.9593e-05 8.0175e-05 5.3642e-05)
(2.9588e-05 8.9227e-05 3.6942e-05)
(2.9586e-05 9.5102e-05 1.8832e-05)
(2.9584e-05 9.7222e-05 1.6077e-10)
(2.6362e-05 1.9317e-05 9.7391e-05)
(2.6351e-05 3.7875e-05 9.1425e-05)
(2.6351e-05 5.4943e-05 8.213e-05)
(2.6358e-05 6.9867e-05 6.9867e-05)
(2.6351e-05 8.213e-05 5.4943e-05)
(2.6351e-05 9.1425e-05 3.7875e-05)
(2.6362e-05 9.7391e-05 1.9317e-05)
(2.6373e-05 9.949e-05 8.9754e-11)
(2.2801e-05 1.9319e-05 9.7201e-05)
(2.2781e-05 3.7855e-05 9.1297e-05)
(2.2774e-05 5.4853e-05 8.2004e-05)
(2.278e-05 6.9716e-05 6.9716e-05)
(2.2774e-05 8.2005e-05 5.4853e-05)
(2.2781e-05 9.1298e-05 3.7856e-05)
(2.2801e-05 9.7202e-05 1.932e-05)
(2.2818e-05 9.9243e-05 1.8584e-10)
(1.8949e-05 1.892e-05 9.5228e-05)
(1.8925e-05 3.7081e-05 8.9472e-05)
(1.891e-05 5.3763e-05 8.0388e-05)
(1.8907e-05 6.8358e-05 6.8358e-05)
(1.891e-05 8.0389e-05 5.3763e-05)
(1.8925e-05 8.9473e-05 3.7082e-05)
(1.8949e-05 9.523e-05 1.8921e-05)
(1.8963e-05 9.7223e-05 8.1604e-11)
(1.5014e-05 1.8209e-05 9.1772e-05)
(1.4989e-05 3.5717e-05 8.6232e-05)
(1.4972e-05 5.1841e-05 7.7514e-05)
(1.4959e-05 6.5952e-05 6.5952e-05)
(1.4972e-05 7.7515e-05 5.1841e-05)
(1.4989e-05 8.6233e-05 3.5717e-05)
(1.5014e-05 9.1773e-05 1.8209e-05)
(1.5022e-05 9.3713e-05 1.8848e-10)
(1.1214e-05 1.7242e-05 8.694e-05)
(1.1182e-05 3.384e-05 8.1703e-05)
(1.1176e-05 4.915e-05 7.3476e-05)
(1.1183e-05 6.2532e-05 6.2531e-05)
(1.1176e-05 7.3476e-05 4.9149e-05)
(1.1182e-05 8.1703e-05 3.384e-05)
(1.1214e-05 8.6941e-05 1.7242e-05)
(1.1237e-05 8.8769e-05 2.7678e-10)
(7.6736e-06 1.6065e-05 8.1014e-05)
(7.6285e-06 3.1546e-05 7.6135e-05)
(7.641e-06 4.5841e-05 6.8504e-05)
(7.6645e-06 5.8327e-05 5.8327e-05)
(7.6412e-06 6.8504e-05 4.584e-05)
(7.6287e-06 7.6135e-05 3.1545e-05)
(7.6739e-06 8.1014e-05 1.6065e-05)
(7.7099e-06 8.2726e-05 1.1643e-10)
(4.426e-06 1.473e-05 7.4288e-05)
(4.3829e-06 2.8938e-05 6.9845e-05)
(4.39e-06 4.2066e-05 6.286e-05)
(4.4084e-06 5.353e-05 5.3529e-05)
(4.3901e-06 6.286e-05 4.2066e-05)
(4.3832e-06 6.9845e-05 2.8938e-05)
(4.4263e-06 7.4288e-05 1.473e-05)
(4.46e-06 7.5842e-05 -1.1587e-11)
(1.4624e-06 1.3271e-05 6.6959e-05)
(1.4228e-06 2.6084e-05 6.2972e-05)
(1.4239e-06 3.7944e-05 5.6703e-05)
(1.4375e-06 4.8301e-05 4.8301e-05)
(1.4241e-06 5.6703e-05 3.7944e-05)
(1.4231e-06 6.2972e-05 2.6084e-05)
(1.4628e-06 6.6959e-05 1.3271e-05)
(1.494e-06 6.8358e-05 -5.5417e-11)
(-1.2208e-06 1.174e-05 5.925e-05)
(-1.2612e-06 2.3085e-05 5.5747e-05)
(-1.2501e-06 3.3602e-05 5.0221e-05)
(-1.2282e-06 4.2784e-05 4.2784e-05)
(-1.2499e-06 5.0221e-05 3.3602e-05)
(-1.2609e-06 5.5747e-05 2.3085e-05)
(-1.2204e-06 5.925e-05 1.174e-05)
(-1.186e-06 6.047e-05 -2.0613e-10)
(-3.5802e-06 1.0209e-05 5.1564e-05)
(-3.6223e-06 2.009e-05 4.852e-05)
(-3.5975e-06 2.9278e-05 4.3744e-05)
(-3.5664e-06 3.7291e-05 3.7291e-05)
(-3.5973e-06 4.3744e-05 2.9278e-05)
(-3.6219e-06 4.852e-05 2.009e-05)
(-3.5798e-06 5.1564e-05 1.0208e-05)
(-3.5422e-06 5.2629e-05 -2.3804e-10)
(3.252e-05 8.9838e-05 -1.7816e-05)
(3.5253e-05 8.2046e-05 -1.6306e-05)
(3.255e-05 8.4318e-05 -3.493e-05)
(3.5309e-05 7.704e-05 -3.1948e-05)
(3.254e-05 7.5742e-05 -5.0671e-05)
(3.5289e-05 6.9185e-05 -4.6284e-05)
(3.2525e-05 6.4435e-05 -6.4434e-05)
(3.5255e-05 5.882e-05 -5.882e-05)
(3.254e-05 5.0671e-05 -7.5742e-05)
(3.5288e-05 4.6284e-05 -6.9185e-05)
(3.2549e-05 3.493e-05 -8.4317e-05)
(3.5308e-05 3.1948e-05 -7.7039e-05)
(3.252e-05 1.7816e-05 -8.9837e-05)
(3.5253e-05 1.6306e-05 -8.2044e-05)
(3.2496e-05 -2.3564e-10 -9.1783e-05)
(3.5205e-05 -3.9324e-10 -8.3783e-05)
(2.9586e-05 9.5102e-05 -1.8831e-05)
(2.9588e-05 8.9226e-05 -3.6941e-05)
(2.9593e-05 8.0175e-05 -5.3642e-05)
(2.9592e-05 6.8257e-05 -6.8256e-05)
(2.9593e-05 5.3642e-05 -8.0174e-05)
(2.9588e-05 3.6942e-05 -8.9225e-05)
(2.9586e-05 1.8831e-05 -9.51e-05)
(2.9584e-05 8.2273e-11 -9.722e-05)
(2.6362e-05 9.739e-05 -1.9317e-05)
(2.6351e-05 9.1424e-05 -3.7875e-05)
(2.6351e-05 8.213e-05 -5.4942e-05)
(2.6357e-05 6.9867e-05 -6.9866e-05)
(2.6351e-05 5.4942e-05 -8.2129e-05)
(2.6351e-05 3.7875e-05 -9.1423e-05)
(2.6362e-05 1.9317e-05 -9.7389e-05)
(2.6372e-05 1.1768e-10 -9.9488e-05)
(2.2801e-05 9.7202e-05 -1.9319e-05)
(2.2781e-05 9.1297e-05 -3.7855e-05)
(2.2774e-05 8.2005e-05 -5.4852e-05)
(2.278e-05 6.9716e-05 -6.9715e-05)
(2.2774e-05 5.4853e-05 -8.2003e-05)
(2.278e-05 3.7855e-05 -9.1295e-05)
(2.28e-05 1.9319e-05 -9.72e-05)
(2.2818e-05 2.5232e-10 -9.9241e-05)
(1.8949e-05 9.5229e-05 -1.892e-05)
(1.8925e-05 8.9473e-05 -3.7081e-05)
(1.891e-05 8.0388e-05 -5.3763e-05)
(1.8907e-05 6.8358e-05 -6.8358e-05)
(1.891e-05 5.3763e-05 -8.0387e-05)
(1.8925e-05 3.7081e-05 -8.9472e-05)
(1.8949e-05 1.892e-05 -9.5228e-05)
(1.8962e-05 3.9656e-10 -9.7221e-05)
(1.5014e-05 9.1773e-05 -1.8209e-05)
(1.4989e-05 8.6232e-05 -3.5717e-05)
(1.4972e-05 7.7514e-05 -5.184e-05)
(1.4959e-05 6.5952e-05 -6.5951e-05)
(1.4972e-05 5.1841e-05 -7.7513e-05)
(1.4989e-05 3.5717e-05 -8.6231e-05)
(1.5014e-05 1.8209e-05 -9.1772e-05)
(1.5021e-05 2.739e-10 -9.3712e-05)
(1.1214e-05 8.6941e-05 -1.7241e-05)
(1.1182e-05 8.1703e-05 -3.384e-05)
(1.1176e-05 7.3476e-05 -4.9149e-05)
(1.1183e-05 6.2531e-05 -6.2531e-05)
(1.1176e-05 4.9149e-05 -7.3475e-05)
(1.1182e-05 3.384e-05 -8.1702e-05)
(1.1214e-05 1.7242e-05 -8.694e-05)
(1.1237e-05 1.4774e-10 -8.8768e-05)
(7.6739e-06 8.1014e-05 -1.6065e-05)
(7.6287e-06 7.6135e-05 -3.1545e-05)
(7.6411e-06 6.8504e-05 -4.584e-05)
(7.6644e-06 5.8327e-05 -5.8327e-05)
(7.641e-06 4.584e-05 -6.8504e-05)
(7.6285e-06 3.1545e-05 -7.6134e-05)
(7.6737e-06 1.6065e-05 -8.1013e-05)
(7.7096e-06 2.524e-10 -8.2726e-05)
(4.4263e-06 7.4288e-05 -1.473e-05)
(4.3832e-06 6.9845e-05 -2.8938e-05)
(4.3901e-06 6.286e-05 -4.2066e-05)
(4.4084e-06 5.3529e-05 -5.3529e-05)
(4.39e-06 4.2066e-05 -6.286e-05)
(4.383e-06 2.8938e-05 -6.9844e-05)
(4.4261e-06 1.473e-05 -7.4288e-05)
(4.4597e-06 2.8285e-10 -7.5842e-05)
(1.4628e-06 6.6959e-05 -1.3271e-05)
(1.4232e-06 6.2972e-05 -2.6084e-05)
(1.4241e-06 5.6703e-05 -3.7944e-05)
(1.4376e-06 4.8301e-05 -4.8301e-05)
(1.424e-06 3.7944e-05 -5.6703e-05)
(1.423e-06 2.6084e-05 -6.2972e-05)
(1.4626e-06 1.3271e-05 -6.6959e-05)
(1.4938e-06 2.1843e-10 -6.8358e-05)
(-1.2203e-06 5.925e-05 -1.174e-05)
(-1.2608e-06 5.5747e-05 -2.3085e-05)
(-1.2497e-06 5.0221e-05 -3.3602e-05)
(-1.228e-06 4.2784e-05 -4.2784e-05)
(-1.2498e-06 3.3602e-05 -5.0221e-05)
(-1.2609e-06 2.3085e-05 -5.5747e-05)
(-1.2205e-06 1.174e-05 -5.925e-05)
(-1.1862e-06 2.6329e-10 -6.047e-05)
(-3.5797e-06 5.1564e-05 -1.0209e-05)
(-3.6217e-06 4.852e-05 -2.009e-05)
(-3.597e-06 4.3744e-05 -2.9278e-05)
(-3.566e-06 3.7291e-05 -3.7291e-05)
(-3.5971e-06 2.9278e-05 -4.3744e-05)
(-3.6218e-06 2.009e-05 -4.852e-05)
(-3.5797e-06 1.0209e-05 -5.1564e-05)
(-3.5423e-06 2.201e-10 -5.263e-05)
(3.252e-05 -1.7816e-05 -8.9836e-05)
(3.5253e-05 -1.6307e-05 -8.2044e-05)
(3.255e-05 -3.493e-05 -8.4317e-05)
(3.5309e-05 -3.1949e-05 -7.7039e-05)
(3.254e-05 -5.0671e-05 -7.5741e-05)
(3.5289e-05 -4.6284e-05 -6.9186e-05)
(3.2525e-05 -6.4435e-05 -6.4435e-05)
(3.5256e-05 -5.8821e-05 -5.8821e-05)
(3.254e-05 -7.5743e-05 -5.0671e-05)
(3.5289e-05 -6.9187e-05 -4.6284e-05)
(3.255e-05 -8.4319e-05 -3.493e-05)
(3.5309e-05 -7.7041e-05 -3.1949e-05)
(3.252e-05 -8.9839e-05 -1.7816e-05)
(3.5253e-05 -8.2047e-05 -1.6307e-05)
(2.9586e-05 -1.8831e-05 -9.51e-05)
(2.9588e-05 -3.6941e-05 -8.9225e-05)
(2.9593e-05 -5.3642e-05 -8.0173e-05)
(2.9592e-05 -6.8256e-05 -6.8256e-05)
(2.9593e-05 -8.0175e-05 -5.3642e-05)
(2.9588e-05 -8.9227e-05 -3.6942e-05)
(2.9586e-05 -9.5102e-05 -1.8831e-05)
(2.6362e-05 -1.9316e-05 -9.7388e-05)
(2.6351e-05 -3.7874e-05 -9.1422e-05)
(2.6351e-05 -5.4941e-05 -8.2128e-05)
(2.6357e-05 -6.9866e-05 -6.9865e-05)
(2.6351e-05 -8.2129e-05 -5.4942e-05)
(2.6351e-05 -9.1424e-05 -3.7875e-05)
(2.6362e-05 -9.739e-05 -1.9317e-05)
(2.28e-05 -1.9319e-05 -9.72e-05)
(2.278e-05 -3.7854e-05 -9.1295e-05)
(2.2774e-05 -5.4852e-05 -8.2003e-05)
(2.2779e-05 -6.9715e-05 -6.9714e-05)
(2.2774e-05 -8.2004e-05 -5.4852e-05)
(2.2781e-05 -9.1296e-05 -3.7855e-05)
(2.2801e-05 -9.7201e-05 -1.9319e-05)
(1.8948e-05 -1.892e-05 -9.5228e-05)
(1.8924e-05 -3.708e-05 -8.9471e-05)
(1.8909e-05 -5.3762e-05 -8.0387e-05)
(1.8906e-05 -6.8357e-05 -6.8357e-05)
(1.8909e-05 -8.0387e-05 -5.3762e-05)
(1.8925e-05 -8.9472e-05 -3.7081e-05)
(1.8949e-05 -9.5229e-05 -1.892e-05)
(1.5013e-05 -1.8209e-05 -9.1772e-05)
(1.4989e-05 -3.5716e-05 -8.6231e-05)
(1.4972e-05 -5.184e-05 -7.7514e-05)
(1.4958e-05 -6.5951e-05 -6.5951e-05)
(1.4972e-05 -7.7514e-05 -5.184e-05)
(1.4989e-05 -8.6232e-05 -3.5717e-05)
(1.5014e-05 -9.1772e-05 -1.8209e-05)
(1.1214e-05 -1.7241e-05 -8.694e-05)
(1.1181e-05 -3.384e-05 -8.1703e-05)
(1.1176e-05 -4.9149e-05 -7.3476e-05)
(1.1183e-05 -6.2531e-05 -6.2531e-05)
(1.1176e-05 -7.3475e-05 -4.9149e-05)
(1.1181e-05 -8.1703e-05 -3.384e-05)
(1.1214e-05 -8.694e-05 -1.7241e-05)
(7.6736e-06 -1.6065e-05 -8.1014e-05)
(7.6283e-06 -3.1545e-05 -7.6135e-05)
(7.6408e-06 -4.584e-05 -6.8504e-05)
(7.6642e-06 -5.8327e-05 -5.8327e-05)
(7.6409e-06 -6.8504e-05 -4.584e-05)
(7.6284e-06 -7.6134e-05 -3.1545e-05)
(7.6737e-06 -8.1014e-05 -1.6065e-05)
(4.426e-06 -1.473e-05 -7.4288e-05)
(4.3829e-06 -2.8938e-05 -6.9845e-05)
(4.3899e-06 -4.2066e-05 -6.2861e-05)
(4.4083e-06 -5.353e-05 -5.353e-05)
(4.3899e-06 -6.286e-05 -4.2066e-05)
(4.3829e-06 -6.9845e-05 -2.8938e-05)
(4.426e-06 -7.4288e-05 -1.473e-05)
(1.4626e-06 -1.3271e-05 -6.6959e-05)
(1.423e-06 -2.6084e-05 -6.2972e-05)
(1.424e-06 -3.7944e-05 -5.6704e-05)
(1.4375e-06 -4.8301e-05 -4.8302e-05)
(1.4239e-06 -5.6703e-05 -3.7944e-05)
(1.4229e-06 -6.2972e-05 -2.6084e-05)
(1.4625e-06 -6.6959e-05 -1.3271e-05)
(-1.2205e-06 -1.174e-05 -5.925e-05)
(-1.2609e-06 -2.3085e-05 -5.5748e-05)
(-1.2499e-06 -3.3602e-05 -5.0222e-05)
(-1.2282e-06 -4.2784e-05 -4.2785e-05)
(-1.25e-06 -5.0221e-05 -3.3603e-05)
(-1.2611e-06 -5.5747e-05 -2.3086e-05)
(-1.2207e-06 -5.925e-05 -1.1741e-05)
(-3.5798e-06 -1.0208e-05 -5.1565e-05)
(-3.6219e-06 -2.009e-05 -4.8521e-05)
(-3.5972e-06 -2.9278e-05 -4.3745e-05)
(-3.5662e-06 -3.7291e-05 -3.7292e-05)
(-3.5973e-06 -4.3744e-05 -2.9279e-05)
(-3.6221e-06 -4.852e-05 -2.0091e-05)
(-3.58e-06 -5.1564e-05 -1.0209e-05)
)
;
    }
    procBoundary2to1
    {
        type            processor;
    }
    procBoundary2to3
    {
        type            processor;
    }
}


// ************************************************************************* //
