/*--------------------------------*- C++ -*----------------------------------*\
  =========                 |
  \\      /  F ield         | OpenFOAM: The Open Source CFD Toolbox
   \\    /   O peration     | Website:  https://openfoam.org
    \\  /    A nd           | Version:  8
     \\/     M anipulation  |
\*---------------------------------------------------------------------------*/
FoamFile
{
    version     2.0;
    format      ascii;
    class       volScalarField::Internal;
    location    "0.0235000";
    object      V0;
}
// * * * * * * * * * * * * * * * * * * * * * * * * * * * * * * * * * * * * * //

dimensions      [0 3 0 0 0 0 0];

value           nonuniform List<scalar> 
600
(
6.21521447034766e-14
6.14333943530057e-14
6.07152794800452e-14
5.99974424914711e-14
5.92798803097168e-14
5.85628508446631e-14
5.78464076813495e-14
5.71304000315131e-14
5.64147591138943e-14
5.56996504362606e-14
5.49850375872401e-14
5.42707488007211e-14
5.35569024508946e-14
5.28435482228594e-14
5.21305929556911e-14
5.14179743661206e-14
5.07058404304462e-14
4.99941804174089e-14
4.92828405898489e-14
4.8571927951656e-14
4.7861503733221e-14
4.7151486925635e-14
4.64418232240281e-14
4.57326552751034e-14
4.50239758680608e-14
4.43156339685888e-14
4.36077601166564e-14
4.29004200688853e-14
4.21935043833266e-14
4.14869703922963e-14
4.07810046931508e-14
4.0075594639891e-14
3.93705392306473e-14
3.86660181545088e-14
3.79621436589025e-14
3.72587640563235e-14
3.65558108175736e-14
3.58535703293532e-14
3.51520384076242e-14
3.44508979713603e-14
3.37504766425309e-14
3.30509519424173e-14
3.23520353086837e-14
3.16536826954514e-14
3.09564118868028e-14
3.02602008918031e-14
2.95644388331286e-14
2.88698698699083e-14
2.81768338260726e-14
2.74846461082795e-14
2.67934236772204e-14
2.61041805866657e-14
2.54168035438519e-14
2.47300181807293e-14
2.40456800596724e-14
2.33644252689159e-14
2.26844291037345e-14
2.20065637023328e-14
2.1332834141186e-14
2.06626747285436e-14
1.99934411587498e-14
1.93298142541991e-14
1.86727910454218e-14
1.80174916832914e-14
1.73675333022217e-14
1.67265467890146e-14
1.60919235077871e-14
1.54589527651026e-14
1.48385162316955e-14
1.42357435005715e-14
1.36375737651832e-14
1.30647383428273e-14
1.25274834627549e-14
1.20042056189918e-14
1.14974087023677e-14
1.10113032611036e-14
1.05319786824502e-14
1.00574120571904e-14
9.58399968697594e-15
9.09931450129608e-15
8.61015284983524e-15
8.10636914304239e-15
7.56552466443781e-15
6.99871594604698e-15
6.41218854992333e-15
5.7986459756901e-15
5.4768172025197e-15
5.44785632424054e-15
5.38854386096818e-15
5.31222465117368e-15
5.23801477655988e-15
5.15550758616659e-15
5.06648482040016e-15
4.9772084824374e-15
4.8865928848127e-15
4.79726395998458e-15
4.71203237766264e-15
4.62607867388517e-15
4.54538806378147e-15
4.41306779032406e-15
6.44142312184455e-14
6.36451243475089e-14
6.28766518805182e-14
6.21093893321889e-14
6.13432335093146e-14
6.05781578733e-14
5.98141559915812e-14
5.90511969787536e-14
5.8289262967188e-14
5.75283581998243e-14
5.67684705550733e-14
5.60095783081961e-14
5.5251682618779e-14
5.44947870162104e-14
5.37388770173384e-14
5.29839474427579e-14
5.22300107360797e-14
5.1477064912633e-14
5.07250978231044e-14
4.9974116755934e-14
4.92241320370874e-14
4.8475136931848e-14
4.77271316631003e-14
4.69801322837344e-14
4.6234140715386e-14
4.54891509527188e-14
4.47451775760185e-14
4.40022341030718e-14
4.32603144910507e-14
4.25194254915208e-14
4.17795931328746e-14
4.10408223074584e-14
4.03031082792179e-14
3.95664771139513e-14
3.88309545174192e-14
3.80965376925535e-14
3.73632421615277e-14
3.66311129072702e-14
3.59001650426238e-14
3.51704034158917e-14
3.44418817889413e-14
3.3714647938532e-14
3.29887059756482e-14
3.22641021926422e-14
3.15409318885442e-14
3.08192296845522e-14
3.00990237374194e-14
2.9380444538638e-14
2.86635971331715e-14
2.79485028153172e-14
2.72352864997383e-14
2.65241582215868e-14
2.58151932228865e-14
2.51084892564286e-14
2.44043658364831e-14
2.37030474275881e-14
2.30045922329573e-14
2.2309313877807e-14
2.16176707678814e-14
2.09298004612155e-14
2.02459685529175e-14
1.95669439559521e-14
1.88931626624715e-14
1.82247342945298e-14
1.75624404346355e-14
1.69072301932703e-14
1.62593885531152e-14
1.56199860330684e-14
1.49918049384394e-14
1.43773020397978e-14
1.37789880984551e-14
1.32011027292909e-14
1.26456481899517e-14
1.21101948391135e-14
1.15918163703845e-14
1.10875452720728e-14
1.05926453428942e-14
1.01019846984653e-14
9.61030670679274e-15
9.11232755091983e-15
8.60316134289473e-15
8.0760019852239e-15
7.52364146804961e-15
6.94228270059304e-15
6.32692843380826e-15
5.71515433786569e-15
5.41747238681593e-15
5.3924282891182e-15
5.34562487828369e-15
5.28319545824137e-15
5.21147334978377e-15
5.13296611435689e-15
5.049510927111e-15
4.96349426055351e-15
4.87672801115988e-15
4.79091363054674e-15
4.70749942378717e-15
4.6279464309974e-15
4.55494248069156e-15
4.50378043319356e-15
6.66705568119889e-14
6.58513020969333e-14
6.50330639733998e-14
6.42166413147614e-14
6.34018992756873e-14
6.25888119443223e-14
6.17773723926969e-14
6.09675478666816e-14
6.01593195935068e-14
5.93526922432006e-14
5.85476527441354e-14
5.7744177923805e-14
5.69422692502919e-14
5.6141930375736e-14
5.53431458048254e-14
5.45459097728281e-14
5.37502354937819e-14
5.2956120636082e-14
5.21635520318791e-14
5.13725377057944e-14
5.05830880117243e-14
4.97951951910234e-14
4.90088595014239e-14
4.82240978627112e-14
4.74409118700634e-14
4.66592946672093e-14
4.5879261569763e-14
4.51008263090241e-14
4.43239819428522e-14
4.35487353329571e-14
4.27751134753627e-14
4.20031209057508e-14
4.12327520934246e-14
4.04640340906796e-14
3.96969930100559e-14
3.89316248667911e-14
3.8167945453738e-14
3.74060018598277e-14
3.66458082911557e-14
3.58873675776708e-14
3.51307366205412e-14
3.43759644804718e-14
3.3623052265965e-14
3.28720467072728e-14
3.21230473901463e-14
3.13760876966886e-14
3.06311919508098e-14
2.9888497223226e-14
2.91481111034654e-14
2.84100480692985e-14
2.7674433464039e-14
2.69414881192718e-14
2.6211284294708e-14
2.54839085349435e-14
2.47597005091013e-14
2.40388854849014e-14
2.3321498396693e-14
2.26078689909392e-14
2.18984749632474e-14
2.11934339739549e-14
2.04929905738328e-14
1.97979623940979e-14
1.9108785436872e-14
1.84255118179778e-14
1.77489581315937e-14
1.70801121496326e-14
1.64192062848205e-14
1.57672566106331e-14
1.51271554364321e-14
1.45013824423727e-14
1.38923334781091e-14
1.33044137127242e-14
1.27396705470768e-14
1.21954625930905e-14
1.16688079837788e-14
1.11566926094274e-14
1.06542864423107e-14
1.01563644606922e-14
9.65762337425449e-15
9.1527597097689e-15
8.63667818220991e-15
8.10260496301363e-15
7.5436368211918e-15
6.95557339981807e-15
6.33330245119568e-15
5.71714586808468e-15
5.42139770596666e-15
5.39725223624523e-15
5.35156158959532e-15
5.29026532115536e-15
5.21910782165809e-15
5.14106605200994e-15
5.0581182407965e-15
4.97248743882842e-15
4.88605369310015e-15
4.80050319936574e-15
4.71728187413841e-15
4.63803243138301e-15
4.56593368010514e-15
4.51669140390837e-15
6.89295447556758e-14
6.80600404484077e-14
6.71919570629899e-14
6.63263117085578e-14
6.54629238504341e-14
6.46017659578988e-14
6.37428302715342e-14
6.28860827615412e-14
6.20315037912553e-14
6.11790977550405e-14
6.03288509077163e-14
5.94807392286211e-14
5.86347639481223e-14
5.77909285502843e-14
5.69492169606503e-14
5.61096230979043e-14
5.52721602869029e-14
5.44368259506426e-14
5.36036064891683e-14
5.27725099678825e-14
5.19435467815463e-14
5.11167088235328e-14
5.02919962352751e-14
4.94694261623023e-14
4.86490000663829e-14
4.78307108274158e-14
4.70145739417022e-14
4.62006032251939e-14
4.53887914262541e-14
4.45791454305494e-14
4.37716925994803e-14
4.29664373394665e-14
4.21633738836146e-14
4.1362529653021e-14
4.05639309869687e-14
3.97675735944808e-14
3.8973473437591e-14
3.8181678249831e-14
3.73922021473482e-14
3.66050478002755e-14
3.58202729049236e-14
3.50379269821252e-14
3.42580107973949e-14
3.34805716199549e-14
3.27057102486597e-14
3.19334599849359e-14
3.11638452148369e-14
3.03970047470154e-14
2.96330469672092e-14
2.88719858198128e-14
2.8113947911049e-14
2.73591562664065e-14
2.66076828244846e-14
2.58596146133135e-14
2.5115294843289e-14
2.43749495078896e-14
2.36386120850956e-14
2.29066149209259e-14
2.2179439053129e-14
2.14572000250777e-14
2.07401428679619e-14
2.00290912584761e-14
1.93244802907545e-14
1.86263581796031e-14
1.7935545061335e-14
1.72530311843105e-14
1.65790426266519e-14
1.59145972356636e-14
1.52626025704191e-14
1.46255411453471e-14
1.40058110401381e-14
1.34078308781495e-14
1.2833633816605e-14
1.2280533445316e-14
1.17455002198866e-14
1.12254700252576e-14
1.07155614261913e-14
1.02105043924645e-14
9.70495498813878e-15
9.19358227670841e-15
8.67127349664448e-15
8.13124233452244e-15
7.56659463157055e-15
6.97314237747149e-15
6.34580866657731e-15
5.72578236467424e-15
5.43112004788247e-15
5.4071717440654e-15
5.36161599268798e-15
5.30045708138721e-15
5.22940437376587e-15
5.15144332595431e-15
5.06856128714344e-15
4.98297408198492e-15
4.89656142635415e-15
4.81101076901577e-15
4.72777093072246e-15
4.64849775829257e-15
4.57639132047796e-15
4.52716642251596e-15
7.11910080973314e-14
7.02711832882501e-14
6.93531885546222e-14
6.84382645285554e-14
6.75261769096619e-14
6.66168951561338e-14
6.57104108056965e-14
6.48066886208426e-14
6.39057078552083e-14
6.30074726520332e-14
6.21119688125945e-14
6.12191713602491e-14
6.03290811088283e-14
5.94417014996303e-14
5.85570159748143e-14
5.76750179817198e-14
5.67957209281461e-14
5.59191221019666e-14
5.50452073857569e-14
5.41739848556434e-14
5.33054651360116e-14
5.24396397687653e-14
5.15765085755862e-14
5.07160889420661e-14
4.98583823331404e-14
4.90033813114635e-14
4.81511015127411e-14
4.73015569488424e-14
4.64547400452363e-14
4.56106575813326e-14
4.476933732198e-14
4.39307836357478e-14
4.3094990447486e-14
4.22619855291228e-14
4.1431795563852e-14
4.06044158882739e-14
3.97798624526763e-14
3.89581837704556e-14
3.81393940346764e-14
3.7323495501055e-14
3.65105465394222e-14
3.57005974257594e-14
3.48936485852994e-14
3.40897475060554e-14
3.32889963063936e-14
3.24914284028298e-14
3.16970678749875e-14
3.09060551699609e-14
3.01184999680246e-14
2.93344155837081e-14
2.85539292356225e-14
2.77772663519975e-14
2.70044989112548e-14
2.62357137486924e-14
2.54712577519249e-14
2.47113585069369e-14
2.39560472567566e-14
2.32056581014743e-14
2.24606764992358e-14
2.17212161501511e-14
2.09875208340097e-14
2.0260420634756e-14
1.95403513126194e-14
1.88273558285606e-14
1.81222566256076e-14
1.74260479793727e-14
1.67389491590203e-14
1.60619755560547e-14
1.53980491317257e-14
1.47496562684189e-14
1.41191945692331e-14
1.35110971736027e-14
1.29273880518152e-14
1.23653362904554e-14
1.18218622073333e-14
1.12938508228032e-14
1.07763698802094e-14
1.0264105814819e-14
9.7516767168943e-15
9.23372866395454e-15
8.7051412907082e-15
8.15912363452321e-15
7.58879277374656e-15
6.98999359609424e-15
6.3576948791228e-15
5.7338692023836e-15
5.44025647940702e-15
5.4164112841213e-15
5.37091905857366e-15
5.30984994951627e-15
5.23889205737826e-15
5.16102004379497e-15
5.0782182934679e-15
4.99269859872832e-15
4.90633813812849e-15
4.82082397347924e-15
4.73760510895037e-15
4.65833893940477e-15
4.58621201364301e-15
4.53692848186022e-15
7.34530282031335e-14
7.24757212546938e-14
7.15077265488057e-14
7.05434347090079e-14
6.95825603275631e-14
6.86250673221644e-14
6.76709471976715e-14
6.67201637616915e-14
6.57726948198419e-14
6.48285441023309e-14
6.38876973329612e-14
6.29501286186302e-14
6.20158380817012e-14
6.10848293147135e-14
6.01570852563559e-14
5.92325987215414e-14
5.83113832474635e-14
5.7393436339813e-14
5.64787430339967e-14
5.55673112365457e-14
5.4659152247687e-14
5.3754257268442e-14
5.28526255633135e-14
5.19542748066768e-14
5.10592063643492e-14
5.01674124285704e-14
4.92789088343842e-14
4.83937099550691e-14
4.75118081482513e-14
4.66332095680617e-14
4.57579423529063e-14
4.48860112490734e-14
4.40174097460425e-14
4.31521655426864e-14
4.22903060736242e-14
4.14318263869102e-14
4.05767418144387e-14
3.97251019239126e-14
3.88769213561444e-14
3.80322014105106e-14
3.71910007118987e-14
3.63533710202599e-14
3.55193124762885e-14
3.468887183227e-14
3.38621527817643e-14
3.30391894590705e-14
3.22200046165064e-14
3.14047397786398e-14
3.05935071613602e-14
2.97863195730264e-14
2.89833029358568e-14
2.81846851871974e-14
2.7390540133766e-14
2.66009523373184e-14
2.5816271263769e-14
2.5036728856009e-14
2.42623533855965e-14
2.34934776517355e-14
2.27305924354062e-14
2.19738125856938e-14
2.12233768136906e-14
2.04801189947025e-14
1.97444817212875e-14
1.90165011759837e-14
1.82969959743932e-14
1.75869681427395e-14
1.68866336376381e-14
1.61969946838745e-14
1.55209794330286e-14
1.4861085972249e-14
1.42197042271613e-14
1.36012756169183e-14
1.3007840667864e-14
1.24366398709301e-14
1.18845414257122e-14
1.13483882819608e-14
1.08232061124566e-14
1.03036397185462e-14
9.78427412740417e-15
9.25973248560734e-15
8.72488869275546e-15
8.17295355616342e-15
7.59704650933569e-15
6.9930365286857e-15
6.35605561272434e-15
5.72924119793391e-15
5.43667083142633e-15
5.41230110168029e-15
5.36684771433326e-15
5.30586628817619e-15
5.23500472612587e-15
5.15722764207504e-15
5.07451630103226e-15
4.98907925808667e-15
4.90279122418586e-15
4.81733843442433e-15
4.73416918697968e-15
4.65493982914126e-15
4.58277800013715e-15
4.53123861614455e-15
)
;


// ************************************************************************* //
