/*--------------------------------*- C++ -*----------------------------------*\
| =========                 |                                                 |
| \\      /  F ield         | foam-extend: Open Source CFD                    |
|  \\    /   O peration     | Version:     4.1-20200408                       |
|   \\  /    A nd           | Web:         http://www.foam-extend.org         |
|    \\/     M anipulation  |                                                 |
\*---------------------------------------------------------------------------*/
FoamFile
{
    version     2.0;
    format      ascii;
    class       volSymmTensorField;
    location    "0.0645000";
    object      sigmaCauchy;
}
// * * * * * * * * * * * * * * * * * * * * * * * * * * * * * * * * * * * * * //

dimensions      [1 -1 -2 0 0 0 0];

internalField   nonuniform List<symmTensor> 
1952
(
(-9.47604e+08 1.25007e+06 -5.41792 -3.86999e+08 -1.19573 -3.77923e+08)
(-9.10011e+08 392601 -3.67642 -3.80686e+08 2.9367 -3.54575e+08)
(-8.66058e+08 2.32083e+06 4.06956 -3.66505e+08 8.49512 -3.21259e+08)
(-8.0419e+08 1.18828e+06 11.3821 -3.53373e+08 -9.26394 -2.83695e+08)
(-7.28086e+08 3.4036e+06 -2.93839 -3.34512e+08 -23.5526 -2.40327e+08)
(-6.31543e+08 2.17693e+06 -15.3175 -3.17013e+08 2.24131 -1.95279e+08)
(-5.26005e+08 4.64042e+06 -4.07044 -2.94986e+08 35.0708 -1.46482e+08)
(-4.01405e+08 3.3287e+06 7.37358 -2.74535e+08 -3.57156 -9.18932e+07)
(-2.58186e+08 5.98504e+06 -1.22598 -2.49031e+08 -37.6877 -4.05156e+07)
(-6.1224e+07 4.7573e+06 -5.66005 -2.26907e+08 21.538 2.6539e+07)
(1.62293e+08 7.74034e+06 1.95848 -1.96893e+08 41.2665 8.58279e+07)
(4.57503e+08 6.63529e+06 3.05988 -1.72982e+08 -22.8363 1.9054e+08)
(7.92149e+08 1.01639e+07 -0.305334 -1.34113e+08 -40.4518 2.75001e+08)
(1.07433e+09 9.70674e+06 -3.37424 -1.06482e+08 25.1012 4.4389e+08)
(1.22338e+09 1.47391e+07 -1.31914 -5.32247e+07 14.5539 5.52743e+08)
(-9.61392e+08 -46044.9 -1.20458 -3.93258e+08 3.10086 -3.9093e+08)
(-9.41698e+08 2.85893e+06 -10.8437 -3.78334e+08 -1.26396 -3.69104e+08)
(-9.04008e+08 1.31727e+06 -7.35673 -3.71874e+08 3.00059 -3.4586e+08)
(-8.59882e+08 5.41058e+06 8.14751 -3.57779e+08 8.81355 -3.12352e+08)
(-7.97882e+08 3.30255e+06 22.7868 -3.44649e+08 -9.29852 -2.74944e+08)
(-7.21453e+08 7.97698e+06 -5.88033 -3.25802e+08 -24.1222 -2.31369e+08)
(-6.24662e+08 5.65355e+06 -30.6668 -3.08442e+08 2.00273 -1.86503e+08)
(-5.18967e+08 1.08012e+07 -8.15162 -2.8645e+08 35.6999 -1.37458e+08)
(-3.94186e+08 8.23517e+06 14.7243 -2.66286e+08 -3.28368 -8.30984e+07)
(-2.50487e+08 1.36492e+07 -2.45149 -2.40954e+08 -38.2228 -3.16279e+07)
(-5.31241e+07 1.10966e+07 -11.2888 -2.19377e+08 21.4833 3.51094e+07)
(1.70776e+08 1.68639e+07 3.89911 -1.89789e+08 41.7153 9.44003e+07)
(4.66312e+08 1.39067e+07 6.01458 -1.66871e+08 -22.8303 1.98661e+08)
(8.01351e+08 1.95941e+07 -0.605125 -1.28787e+08 -40.8939 2.82973e+08)
(1.0836e+09 1.56857e+07 -6.32759 -1.03132e+08 25.0248 4.50986e+08)
(1.23363e+09 1.95595e+07 -2.25401 -5.11561e+07 14.7 5.59396e+08)
(-9.55403e+08 80496.3 -2.40908 -3.844e+08 3.29637 -3.82172e+08)
(-9.38866e+08 3.12322e+06 -10.8519 -3.74439e+08 -1.28781 -3.65106e+08)
(-9.01143e+08 1.70102e+06 -7.36003 -3.67973e+08 3.03894 -3.4194e+08)
(-8.56941e+08 5.99154e+06 8.15654 -3.53959e+08 8.9427 -3.08385e+08)
(-7.94894e+08 3.97812e+06 22.8044 -3.40911e+08 -9.36419 -2.71082e+08)
(-7.18342e+08 8.85393e+06 -5.88577 -3.22184e+08 -24.3561 -2.27495e+08)
(-6.21445e+08 6.61364e+06 -30.6971 -3.04995e+08 1.98053 -1.82775e+08)
(-5.15695e+08 1.19485e+07 -8.16125 -2.8319e+08 35.9745 -1.3374e+08)
(-3.9091e+08 9.37751e+06 14.7201 -2.63293e+08 -3.22284 -7.95583e+07)
(-2.47097e+08 1.48945e+07 -2.45274 -2.38237e+08 -38.4233 -2.8199e+07)
(-4.9651e+07 1.22854e+07 -11.2937 -2.17063e+08 21.4986 3.8272e+07)
(1.73972e+08 1.80692e+07 3.91309 -1.87892e+08 41.8736 9.74207e+07)
(4.69175e+08 1.49084e+07 5.9787 -1.65554e+08 -22.8229 2.01269e+08)
(8.03492e+08 2.04261e+07 -0.604092 -1.28032e+08 -41.0495 2.85177e+08)
(1.08405e+09 1.61022e+07 -6.2908 -1.03036e+08 24.9422 4.52403e+08)
(1.23127e+09 1.96544e+07 -2.26775 -5.13547e+07 14.7402 5.59814e+08)
(-9.52383e+08 182091 -2.41194 -3.80484e+08 3.38036 -3.78262e+08)
(-9.3606e+08 3.31829e+06 -10.8621 -3.71451e+08 -1.30158 -3.62082e+08)
(-8.98306e+08 1.98197e+06 -7.36541 -3.65028e+08 3.06938 -3.38939e+08)
(-8.54059e+08 6.41054e+06 8.16683 -3.5109e+08 9.02579 -3.05399e+08)
(-7.91974e+08 4.4598e+06 22.8263 -3.38153e+08 -9.42332 -2.68159e+08)
(-7.15327e+08 9.46786e+06 -5.89211 -3.19552e+08 -24.506 -2.24622e+08)
(-6.18337e+08 7.27106e+06 -30.7318 -3.02555e+08 1.98369 -1.80015e+08)
(-5.12699e+08 1.2713e+07 -8.17821 -2.80939e+08 36.1546 -1.30997e+08)
(-3.87955e+08 1.01333e+07 14.6964 -2.61313e+08 -3.19991 -7.69871e+07)
(-2.44092e+08 1.56865e+07 -2.45437 -2.36508e+08 -38.5505 -2.57807e+07)
(-4.6635e+07 1.30018e+07 -11.2756 -2.15683e+08 21.5222 4.04492e+07)
(1.76791e+08 1.87147e+07 3.92423 -1.86827e+08 41.9677 9.94395e+07)
(4.71698e+08 1.53255e+07 5.9575 -1.64854e+08 -22.8252 2.03012e+08)
(8.05403e+08 2.06517e+07 -0.603109 -1.27616e+08 -41.1376 2.86677e+08)
(1.08501e+09 1.59935e+07 -6.26308 -1.02886e+08 24.9012 4.53512e+08)
(1.23116e+09 1.95368e+07 -2.30285 -5.12866e+07 14.7627 5.60506e+08)
(-9.49537e+08 254454 -2.41339 -3.77484e+08 3.43855 -3.75255e+08)
(-9.329e+08 3.45593e+06 -10.871 -3.6907e+08 -1.31151 -3.59647e+08)
(-8.95135e+08 2.18022e+06 -7.36893 -3.62699e+08 3.08729 -3.36544e+08)
(-8.50845e+08 6.69491e+06 8.17639 -3.4882e+08 9.07665 -3.03018e+08)
(-7.88732e+08 4.79801e+06 22.842 -3.35992e+08 -9.45868 -2.65839e+08)
(-7.1201e+08 9.87327e+06 -5.8984 -3.17508e+08 -24.5929 -2.22353e+08)
(-6.14943e+08 7.71317e+06 -30.7568 -3.00689e+08 1.98531 -1.77852e+08)
(-5.09332e+08 1.31753e+07 -8.19357 -2.79256e+08 36.2488 -1.28887e+08)
(-3.84662e+08 1.05746e+07 14.6911 -2.59864e+08 -3.19262 -7.50197e+07)
(-2.4081e+08 1.60854e+07 -2.45606 -2.35293e+08 -38.6099 -2.39694e+07)
(-4.33855e+07 1.33229e+07 -11.2744 -2.14757e+08 21.5314 4.20496e+07)
(1.79565e+08 1.89446e+07 3.94713 -1.86171e+08 42.0077 1.00872e+08)
(4.74077e+08 1.54271e+07 5.93206 -1.64471e+08 -22.8131 2.04185e+08)
(8.07082e+08 2.0621e+07 -0.60234 -1.27459e+08 -41.1707 2.87584e+08)
(1.0855e+09 1.58473e+07 -6.25539 -1.02876e+08 24.8667 4.54048e+08)
(1.23035e+09 1.94292e+07 -2.33068 -5.13236e+07 14.7704 5.60618e+08)
(-9.4619e+08 308335 -2.41638 -3.75141e+08 3.46895 -3.72887e+08)
(-9.29637e+08 3.54046e+06 -10.882 -3.67299e+08 -1.31618 -3.57843e+08)
(-8.91859e+08 2.29798e+06 -7.37491 -3.60984e+08 3.09583 -3.34761e+08)
(-8.47532e+08 6.86012e+06 8.18671 -3.4716e+08 9.09739 -3.01256e+08)
(-7.85398e+08 4.98496e+06 22.8624 -3.34439e+08 -9.47626 -2.64126e+08)
(-7.08616e+08 1.00787e+07 -5.90517 -3.16067e+08 -24.6226 -2.20698e+08)
(-6.11493e+08 7.91602e+06 -30.7872 -2.99411e+08 1.98854 -1.76293e+08)
(-5.06098e+08 1.33639e+07 -8.21482 -2.78134e+08 36.2852 -1.27377e+08)
(-3.81535e+08 1.07274e+07 14.6691 -2.58933e+08 -3.18859 -7.36426e+07)
(-2.37738e+08 1.61682e+07 -2.45831 -2.34535e+08 -38.6224 -2.27339e+07)
(-4.03672e+07 1.33371e+07 -11.2655 -2.14208e+08 21.5267 4.31127e+07)
(1.82258e+08 1.88528e+07 3.96467 -1.85779e+08 42.0032 1.0181e+08)
(4.7637e+08 1.52406e+07 5.92325 -1.64277e+08 -22.8021 2.04926e+08)
(8.08633e+08 2.03374e+07 -0.601476 -1.27373e+08 -41.1702 2.88179e+08)
(1.08613e+09 1.55523e+07 -6.24618 -1.0286e+08 24.844 4.54382e+08)
(1.23012e+09 1.92836e+07 -2.35919 -5.13166e+07 14.7674 5.60666e+08)
(-9.42874e+08 335703 -2.41875 -3.73383e+08 3.48133 -3.71111e+08)
(-9.26292e+08 3.57127e+06 -10.8914 -3.66021e+08 -1.31798 -3.56526e+08)
(-8.88529e+08 2.32373e+06 -7.37846 -3.59753e+08 3.09486 -3.33477e+08)
(-8.44181e+08 6.90541e+06 8.19623 -3.45977e+08 9.0963 -2.99984e+08)
(-7.82053e+08 5.01552e+06 22.8769 -3.33342e+08 -9.47301 -2.62903e+08)
(-7.05247e+08 1.01051e+07 -5.91188 -3.15055e+08 -24.6105 -2.1952e+08)
(-6.0808e+08 7.92592e+06 -30.8127 -2.98522e+08 1.98641 -1.75193e+08)
(-5.02778e+08 1.33365e+07 -8.23198 -2.77355e+08 36.2673 -1.26317e+08)
(-3.78351e+08 1.06666e+07 14.6639 -2.58321e+08 -3.19182 -7.26924e+07)
(-2.34636e+08 1.60319e+07 -2.46014 -2.34047e+08 -38.5928 -2.19007e+07)
(-3.73393e+07 1.31526e+07 -11.2679 -2.13897e+08 21.5171 4.38026e+07)
(1.84758e+08 1.85609e+07 3.99427 -1.8559e+08 41.9717 1.0244e+08)
(4.78494e+08 1.48927e+07 5.89629 -1.64199e+08 -22.7771 2.05407e+08)
(8.1017e+08 1.99719e+07 -0.600726 -1.27346e+08 -41.14 2.88506e+08)
(1.0868e+09 1.52506e+07 -6.2447 -1.02861e+08 24.8354 4.54518e+08)
(1.23002e+09 1.91434e+07 -2.38349 -5.13174e+07 14.7562 5.60566e+08)
(-9.39349e+08 338025 -2.42112 -3.7214e+08 3.47409 -3.69848e+08)
(-9.22944e+08 3.56949e+06 -10.9028 -3.65142e+08 -1.31632 -3.55621e+08)
(-8.85186e+08 2.29704e+06 -7.3837 -3.58918e+08 3.08819 -3.3259e+08)
(-8.4082e+08 6.87345e+06 8.20648 -3.4517e+08 9.07601 -2.99108e+08)
(-7.78695e+08 4.96265e+06 22.8956 -3.32616e+08 -9.46117 -2.6206e+08)
(-7.01847e+08 1.00235e+07 -5.91865 -3.14388e+08 -24.563 -2.18715e+08)
(-6.04653e+08 7.81309e+06 -30.842 -2.97973e+08 1.98972 -1.74454e+08)
(-4.99609e+08 1.31477e+07 -8.25498 -2.76895e+08 36.2286 -1.25558e+08)
(-3.7533e+08 1.04241e+07 14.6428 -2.5797e+08 -3.1854 -7.20266e+07)
(-2.31713e+08 1.57108e+07 -2.46207 -2.33777e+08 -38.5451 -2.13337e+07)
(-3.45102e+07 1.27715e+07 -11.2532 -2.13744e+08 21.4893 4.4244e+07)
(1.87222e+08 1.8134e+07 4.01872 -1.85481e+08 41.9143 1.02789e+08)
(4.80641e+08 1.44792e+07 5.89606 -1.64175e+08 -22.7615 2.05661e+08)
(8.1169e+08 1.95551e+07 -0.5998 -1.27328e+08 -41.0923 2.88695e+08)
(1.0876e+09 1.49329e+07 -6.23633 -1.02869e+08 24.8306 4.54534e+08)
(1.23025e+09 1.90025e+07 -2.40585 -5.13006e+07 14.7401 5.60423e+08)
(-9.35955e+08 336414 -2.42445 -3.71281e+08 3.45658 -3.68973e+08)
(-9.19646e+08 3.52637e+06 -10.9122 -3.6456e+08 -1.31457 -3.54986e+08)
(-8.81915e+08 2.20365e+06 -7.38706 -3.5837e+08 3.0757 -3.31991e+08)
(-8.37533e+08 6.75722e+06 8.21544 -3.44646e+08 9.04694 -2.98505e+08)
(-7.75432e+08 4.78871e+06 22.9068 -3.32148e+08 -9.43457 -2.61496e+08)
(-6.9859e+08 9.80678e+06 -5.92502 -3.13978e+08 -24.4983 -2.18179e+08)
(-6.01399e+08 7.53666e+06 -30.8572 -2.97638e+08 1.982 -1.73982e+08)
(-4.96499e+08 1.28224e+07 -8.27671 -2.76619e+08 36.1501 -1.2513e+08)
(-3.72357e+08 1.00761e+07 14.64 -2.57778e+08 -3.19232 -7.1654e+07)
(-2.28848e+08 1.52894e+07 -2.46381 -2.33634e+08 -38.4699 -2.10347e+07)
(-3.16837e+07 1.23513e+07 -11.2664 -2.13686e+08 21.4672 4.44685e+07)
(1.896e+08 1.76459e+07 4.04606 -1.85446e+08 41.8439 1.03014e+08)
(4.82698e+08 1.39881e+07 5.86848 -1.64194e+08 -22.734 2.05796e+08)
(8.13273e+08 1.91106e+07 -0.599059 -1.27327e+08 -41.0296 2.8877e+08)
(1.08853e+09 1.4632e+07 -6.22182 -1.02873e+08 24.8349 4.54509e+08)
(1.2307e+09 1.88703e+07 -2.42481 -5.12929e+07 14.7187 5.60255e+08)
(-9.32445e+08 303478 -2.42578 -3.70758e+08 3.4268 -3.68418e+08)
(-9.16439e+08 3.45701e+06 -10.9229 -3.6425e+08 -1.30885 -3.54669e+08)
(-8.78724e+08 2.07264e+06 -7.39203 -3.58082e+08 3.06083 -3.31673e+08)
(-8.34339e+08 6.59157e+06 8.22507 -3.44373e+08 9.00483 -2.98185e+08)
(-7.72257e+08 4.56774e+06 22.9244 -3.31916e+08 -9.40456 -2.6119e+08)
(-6.95394e+08 9.5353e+06 -5.9312 -3.13771e+08 -24.4116 -2.17886e+08)
(-5.98173e+08 7.23333e+06 -30.8885 -2.97492e+08 1.98096 -1.73723e+08)
(-4.93505e+08 1.24406e+07 -8.29559 -2.76504e+08 36.069 -1.24822e+08)
(-3.69525e+08 9.64219e+06 14.621 -2.5772e+08 -3.18444 -7.1416e+07)
(-2.26098e+08 1.47898e+07 -2.46538 -2.33603e+08 -38.3891 -2.08506e+07)
(-2.90164e+07 1.18198e+07 -11.2471 -2.13713e+08 21.4255 4.45666e+07)
(1.91894e+08 1.70993e+07 4.07645 -1.85478e+08 41.7585 1.03076e+08)
(4.84802e+08 1.3517e+07 5.86528 -1.64231e+08 -22.7081 2.05843e+08)
(8.1493e+08 1.86959e+07 -0.59797 -1.27327e+08 -40.9572 2.88784e+08)
(1.08962e+09 1.43342e+07 -6.21068 -1.02886e+08 24.8448 4.54448e+08)
(1.23141e+09 1.87438e+07 -2.44167 -5.12754e+07 14.6954 5.60104e+08)
(-9.29209e+08 259621 -2.42792 -3.70453e+08 3.39361 -3.6811e+08)
(-9.13358e+08 3.38061e+06 -10.9314 -3.64085e+08 -1.30461 -3.54458e+08)
(-8.7567e+08 1.91461e+06 -7.39428 -3.57945e+08 3.0429 -3.31494e+08)
(-8.31268e+08 6.38622e+06 8.23302 -3.44241e+08 8.96089 -2.97994e+08)
(-7.69215e+08 4.28839e+06 22.9313 -3.31821e+08 -9.36748 -2.61026e+08)
(-6.92346e+08 9.19628e+06 -5.93728 -3.13707e+08 -24.3195 -2.17734e+08)
(-5.95141e+08 6.81897e+06 -30.8956 -2.97475e+08 1.97199 -1.73623e+08)
(-4.90658e+08 1.19671e+07 -8.32211 -2.76521e+08 35.9677 -1.24732e+08)
(-3.66794e+08 9.15629e+06 14.6129 -2.57759e+08 -3.18443 -7.1346e+07)
(-2.2346e+08 1.42456e+07 -2.46679 -2.33648e+08 -38.2956 -2.08194e+07)
(-2.63556e+07 1.13024e+07 -11.2636 -2.13776e+08 21.3901 4.45727e+07)
(1.94235e+08 1.65823e+07 4.09752 -1.85492e+08 41.6676 1.03094e+08)
(4.86916e+08 1.3047e+07 5.84763 -1.64292e+08 -22.6854 2.05813e+08)
(8.16641e+08 1.82699e+07 -0.597074 -1.27334e+08 -40.8817 2.88801e+08)
(1.09083e+09 1.40655e+07 -6.18465 -1.02918e+08 24.8518 4.54394e+08)
(1.23235e+09 1.86257e+07 -2.45638 -5.12516e+07 14.6701 5.59985e+08)
(-9.25937e+08 225612 -2.43096 -3.70353e+08 3.35349 -3.67979e+08)
(-9.10418e+08 3.26717e+06 -10.94 -3.64104e+08 -1.298 -3.54462e+08)
(-8.72754e+08 1.71704e+06 -7.39834 -3.57971e+08 3.02376 -3.31497e+08)
(-8.28349e+08 6.13824e+06 8.24134 -3.44278e+08 8.91059 -2.97986e+08)
(-7.66318e+08 3.95892e+06 22.9452 -3.31868e+08 -9.32611 -2.61026e+08)
(-6.89446e+08 8.80941e+06 -5.9427 -3.13768e+08 -24.2175 -2.17732e+08)
(-5.92196e+08 6.39757e+06 -30.9237 -2.97548e+08 1.96366 -1.73635e+08)
(-4.87885e+08 1.15003e+07 -8.33742 -2.76583e+08 35.8607 -1.24714e+08)
(-3.64166e+08 8.66115e+06 14.5985 -2.57858e+08 -3.18269 -7.13752e+07)
(-2.20871e+08 1.37078e+07 -2.46807 -2.33723e+08 -38.1961 -2.0861e+07)
(-2.37703e+07 1.07915e+07 -11.2557 -2.13888e+08 21.3533 4.44935e+07)
(1.96485e+08 1.60338e+07 4.12891 -1.85575e+08 41.5742 1.031e+08)
(4.89033e+08 1.2582e+07 5.82433 -1.6438e+08 -22.6527 2.05821e+08)
(8.18457e+08 1.78799e+07 -0.595924 -1.27352e+08 -40.8036 2.88816e+08)
(1.09221e+09 1.38104e+07 -6.16758 -1.02941e+08 24.8656 4.5439e+08)
(1.23349e+09 1.85224e+07 -2.46798 -5.12362e+07 14.6437 5.59916e+08)
(-9.22921e+08 149372 -2.43344 -3.70382e+08 3.31245 -3.68004e+08)
(-9.07659e+08 3.17106e+06 -10.9496 -3.64205e+08 -1.29142 -3.54543e+08)
(-8.70016e+08 1.51874e+06 -7.39941 -3.58088e+08 3.00418 -3.31592e+08)
(-8.25595e+08 5.88499e+06 8.24872 -3.44382e+08 8.85878 -2.98063e+08)
(-7.63583e+08 3.62985e+06 22.9498 -3.31992e+08 -9.28696 -2.61112e+08)
(-6.86665e+08 8.42253e+06 -5.94853 -3.1388e+08 -24.1128 -2.17805e+08)
(-5.89391e+08 5.96113e+06 -30.9339 -2.97686e+08 1.96015 -1.73726e+08)
(-4.85265e+08 1.09813e+07 -8.36331 -2.76717e+08 35.7661 -1.24704e+08)
(-3.61641e+08 8.14055e+06 14.5789 -2.57997e+08 -3.17128 -7.13797e+07)
(-2.18375e+08 1.31447e+07 -2.46911 -2.33832e+08 -38.1052 -2.08721e+07)
(-2.12341e+07 1.0257e+07 -11.2507 -2.14016e+08 21.3114 4.44582e+07)
(1.98777e+08 1.55297e+07 4.15234 -1.85643e+08 41.4811 1.03079e+08)
(4.91234e+08 1.21663e+07 5.81556 -1.64456e+08 -22.6312 2.05811e+08)
(8.20343e+08 1.75179e+07 -0.594683 -1.27367e+08 -40.7259 2.88867e+08)
(1.09369e+09 1.35799e+07 -6.14202 -1.02981e+08 24.8758 4.54394e+08)
(1.23482e+09 1.84209e+07 -2.47917 -5.12111e+07 14.6173 5.59888e+08)
(-9.2005e+08 117314 -2.43563 -3.70526e+08 3.26961 -3.68132e+08)
(-9.05065e+08 3.04761e+06 -10.956 -3.64334e+08 -1.28689 -3.54621e+08)
(-8.67441e+08 1.30105e+06 -7.40197 -3.58221e+08 2.9845 -3.31689e+08)
(-8.22994e+08 5.61181e+06 8.2554 -3.4451e+08 8.81217 -2.98135e+08)
(-7.60988e+08 3.27404e+06 22.956 -3.32121e+08 -9.24524 -2.61189e+08)
(-6.8405e+08 8.0079e+06 -5.95313 -3.14017e+08 -24.0171 -2.17871e+08)
(-5.86737e+08 5.49581e+06 -30.9434 -2.9783e+08 1.94875 -1.73809e+08)
(-4.82742e+08 1.04779e+07 -8.38301 -2.76849e+08 35.661 -1.24772e+08)
(-3.59197e+08 7.63377e+06 14.5684 -2.58133e+08 -3.1714 -7.14516e+07)
(-2.15931e+08 1.26025e+07 -2.46985 -2.33937e+08 -38.0091 -2.09371e+07)
(-1.86989e+07 9.76864e+06 -11.2564 -2.14134e+08 21.2768 4.43908e+07)
(2.01067e+08 1.50313e+07 4.17835 -1.85702e+08 41.3902 1.03114e+08)
(4.93429e+08 1.17473e+07 5.78523 -1.64553e+08 -22.6024 2.05838e+08)
(8.22313e+08 1.71558e+07 -0.593547 -1.27391e+08 -40.6506 2.88958e+08)
(1.09533e+09 1.33663e+07 -6.11756 -1.03024e+08 24.8851 4.54464e+08)
(1.23633e+09 1.83364e+07 -2.48754 -5.11916e+07 14.5906 5.59915e+08)
(-9.17282e+08 43351 -2.43693 -3.70714e+08 3.22717 -3.6829e+08)
(-9.02668e+08 2.92612e+06 -10.9644 -3.64524e+08 -1.2801 -3.54807e+08)
(-8.65054e+08 1.07253e+06 -7.40346 -3.58413e+08 2.96659 -3.31865e+08)
(-8.2058e+08 5.33033e+06 8.26205 -3.44692e+08 8.7639 -2.98284e+08)
(-7.58576e+08 2.90512e+06 22.959 -3.323e+08 -9.20754 -2.61332e+08)
(-6.81569e+08 7.58127e+06 -5.9584 -3.1418e+08 -23.9204 -2.17982e+08)
(-5.84181e+08 5.03838e+06 -30.9566 -2.97994e+08 1.94257 -1.73917e+08)
(-4.80323e+08 9.9544e+06 -8.40464 -2.76988e+08 35.5745 -1.24769e+08)
(-3.56847e+08 7.12053e+06 14.5433 -2.5829e+08 -3.15924 -7.14695e+07)
(-2.1354e+08 1.20563e+07 -2.47046 -2.34044e+08 -37.9235 -2.0937e+07)
(-1.62229e+07 9.26997e+06 -11.2399 -2.14279e+08 21.2387 4.43671e+07)
(2.03347e+08 1.45344e+07 4.2057 -1.85789e+08 41.3038 1.03169e+08)
(4.95703e+08 1.13492e+07 5.76917 -1.64654e+08 -22.5788 2.05926e+08)
(8.24376e+08 1.68336e+07 -0.592215 -1.27411e+08 -40.5776 2.89093e+08)
(1.09708e+09 1.31689e+07 -6.09701 -1.03066e+08 24.8985 4.5457e+08)
(1.23799e+09 1.82556e+07 -2.49505 -5.11649e+07 14.5642 5.59994e+08)
(-9.14824e+08 -23031.9 -2.44026 -3.70922e+08 3.1881 -3.68496e+08)
(-9.00457e+08 2.80924e+06 -10.9708 -3.64675e+08 -1.27612 -3.54912e+08)
(-8.62848e+08 850170 -7.40379 -3.58569e+08 2.9493 -3.31987e+08)
(-8.1833e+08 5.05174e+06 8.26764 -3.44834e+08 8.72288 -2.98373e+08)
(-7.56313e+08 2.54847e+06 22.9581 -3.32444e+08 -9.17129 -2.61421e+08)
(-6.79236e+08 7.16696e+06 -5.96289 -3.14316e+08 -23.8355 -2.18044e+08)
(-5.81785e+08 4.57548e+06 -30.9557 -2.98139e+08 1.93318 -1.73993e+08)
(-4.78021e+08 9.42438e+06 -8.42864 -2.77122e+08 35.4927 -1.24766e+08)
(-3.54561e+08 6.60587e+06 14.5291 -2.58417e+08 -3.14927 -7.14527e+07)
(-2.11203e+08 1.15058e+07 -2.47088 -2.34136e+08 -37.8438 -2.09006e+07)
(-1.3743e+07 8.77366e+06 -11.2397 -2.14392e+08 21.2018 4.44017e+07)
(2.05662e+08 1.40617e+07 4.22919 -1.85834e+08 41.2217 1.03266e+08)
(4.98015e+08 1.09684e+07 5.74847 -1.64739e+08 -22.558 2.06034e+08)
(8.26525e+08 1.65108e+07 -0.5909 -1.27419e+08 -40.5073 2.89278e+08)
(1.09895e+09 1.29866e+07 -6.06774 -1.03115e+08 24.909 4.54712e+08)
(1.2398e+09 1.81755e+07 -2.50241 -5.11377e+07 14.5385 5.60121e+08)
(-9.12444e+08 -76563.8 -2.44025 -3.71135e+08 3.15009 -3.68681e+08)
(-8.98441e+08 2.67216e+06 -10.9767 -3.6482e+08 -1.27201 -3.55027e+08)
(-8.60828e+08 601988 -7.40497 -3.5871e+08 2.9342 -3.32096e+08)
(-8.16258e+08 4.75086e+06 8.2733 -3.4497e+08 8.68601 -2.98446e+08)
(-7.54216e+08 2.15448e+06 22.9568 -3.32567e+08 -9.13729 -2.61486e+08)
(-6.77055e+08 6.71393e+06 -5.96765 -3.14444e+08 -23.7596 -2.18073e+08)
(-5.79507e+08 4.08732e+06 -30.9591 -2.98261e+08 1.92045 -1.74024e+08)
(-4.7582e+08 8.88841e+06 -8.45061 -2.7723e+08 35.4177 -1.24735e+08)
(-3.52368e+08 6.09126e+06 14.5073 -2.58531e+08 -3.13757 -7.14257e+07)
(-2.08915e+08 1.09518e+07 -2.47144 -2.34219e+08 -37.7681 -2.08429e+07)
(-1.1291e+07 8.29006e+06 -11.2329 -2.14506e+08 21.1639 4.44531e+07)
(2.0799e+08 1.35709e+07 4.25419 -1.85897e+08 41.1424 1.03415e+08)
(5.00381e+08 1.05751e+07 5.72769 -1.64831e+08 -22.531 2.06207e+08)
(8.28766e+08 1.61967e+07 -0.589662 -1.27433e+08 -40.4397 2.89502e+08)
(1.10094e+09 1.2801e+07 -6.04074 -1.03156e+08 24.9219 4.54928e+08)
(1.24175e+09 1.80996e+07 -2.50882 -5.11238e+07 14.5131 5.60309e+08)
(-9.1033e+08 -163509 -2.44339 -3.71314e+08 3.11693 -3.68846e+08)
(-8.96635e+08 2.54799e+06 -10.9839 -3.64942e+08 -1.26814 -3.55126e+08)
(-8.59011e+08 359744 -7.40436 -3.5883e+08 2.9208 -3.32193e+08)
(-8.14379e+08 4.45477e+06 8.27845 -3.45088e+08 8.65297 -2.98506e+08)
(-7.52302e+08 1.76971e+06 22.9516 -3.32678e+08 -9.10642 -2.6154e+08)
(-6.75023e+08 6.26791e+06 -5.97239 -3.14556e+08 -23.6903 -2.18087e+08)
(-5.7736e+08 3.60623e+06 -30.9591 -2.98372e+08 1.90844 -1.74042e+08)
(-4.73711e+08 8.3351e+06 -8.47402 -2.77338e+08 35.3567 -1.24651e+08)
(-3.50236e+08 5.55692e+06 14.4869 -2.58641e+08 -3.11656 -7.13422e+07)
(-2.06667e+08 1.03776e+07 -2.4718 -2.34302e+08 -37.7013 -2.07261e+07)
(-8.85011e+06 7.77265e+06 -11.2282 -2.14617e+08 21.1199 4.45641e+07)
(2.10323e+08 1.30864e+07 4.2775 -1.85954e+08 41.0667 1.03586e+08)
(5.02812e+08 1.0199e+07 5.71568 -1.64913e+08 -22.506 2.06412e+08)
(8.31104e+08 1.58915e+07 -0.588245 -1.27443e+08 -40.3755 2.89783e+08)
(1.10304e+09 1.26106e+07 -6.01419 -1.03214e+08 24.9328 4.55193e+08)
(1.24384e+09 1.80216e+07 -2.51539 -5.10992e+07 14.4889 5.60565e+08)
(-9.08424e+08 -227520 -2.44437 -3.71467e+08 3.08711 -3.68989e+08)
(-8.95025e+08 2.40839e+06 -10.9895 -3.65026e+08 -1.26596 -3.55169e+08)
(-8.57383e+08 92389.7 -7.40359 -3.58912e+08 2.90887 -3.3224e+08)
(-8.12672e+08 4.13158e+06 8.28314 -3.45173e+08 8.62625 -2.98515e+08)
(-7.50546e+08 1.34734e+06 22.9439 -3.32753e+08 -9.07693 -2.61547e+08)
(-6.73144e+08 5.78248e+06 -5.97754 -3.1465e+08 -23.6317 -2.18055e+08)
(-5.75356e+08 3.07833e+06 -30.9544 -2.98464e+08 1.89196 -1.7402e+08)
(-4.71738e+08 7.75465e+06 -8.49982 -2.77432e+08 35.2997 -1.24568e+08)
(-3.48206e+08 5.00628e+06 14.465 -2.58741e+08 -3.09824 -7.12561e+07)
(-2.04487e+08 9.78449e+06 -2.47252 -2.34376e+08 -37.638 -2.05979e+07)
(-6.41407e+06 7.2629e+06 -11.2355 -2.1472e+08 21.081 4.47041e+07)
(2.12728e+08 1.259e+07 4.29708 -1.85984e+08 40.9962 1.03834e+08)
(5.05303e+08 9.80312e+06 5.69936 -1.65018e+08 -22.4829 2.06666e+08)
(8.33513e+08 1.55557e+07 -0.586913 -1.27454e+08 -40.3184 2.90149e+08)
(1.10526e+09 1.24161e+07 -5.98805 -1.0329e+08 24.9406 4.55532e+08)
(1.24608e+09 1.79449e+07 -2.52159 -5.10688e+07 14.4657 5.609e+08)
(-9.06698e+08 -307330 -2.44715 -3.71591e+08 3.06077 -3.69093e+08)
(-8.93661e+08 2.26509e+06 -10.9966 -3.65114e+08 -1.26355 -3.55234e+08)
(-8.55993e+08 -186907 -7.4025 -3.58994e+08 2.89883 -3.32297e+08)
(-8.11193e+08 3.79848e+06 8.28811 -3.45265e+08 8.6028 -2.98534e+08)
(-7.49003e+08 907991 22.9343 -3.32829e+08 -9.04991 -2.6156e+08)
(-6.71442e+08 5.27667e+06 -5.98307 -3.14739e+08 -23.5797 -2.18017e+08)
(-5.73483e+08 2.54422e+06 -30.9562 -2.98542e+08 1.87543 -1.73978e+08)
(-4.69829e+08 7.15206e+06 -8.52228 -2.77501e+08 35.2562 -1.24417e+08)
(-3.46233e+08 4.43258e+06 14.4425 -2.58835e+08 -3.07267 -7.11191e+07)
(-2.02321e+08 9.16983e+06 -2.47313 -2.34426e+08 -37.5825 -2.04053e+07)
(-3.98252e+06 6.73329e+06 -11.2373 -2.14832e+08 21.0435 4.48943e+07)
(2.1511e+08 1.20535e+07 4.32138 -1.86024e+08 40.9345 1.04168e+08)
(5.07835e+08 9.38129e+06 5.68216 -1.65128e+08 -22.4575 2.07024e+08)
(8.36035e+08 1.52202e+07 -0.585581 -1.27472e+08 -40.2667 2.90587e+08)
(1.10762e+09 1.22114e+07 -5.96578 -1.03355e+08 24.9481 4.55947e+08)
(1.24847e+09 1.78682e+07 -2.52795 -5.10487e+07 14.4438 5.613e+08)
(-9.0525e+08 -392048 -2.4502 -3.71699e+08 3.03846 -3.69194e+08)
(-8.92508e+08 2.11608e+06 -11.0029 -3.65163e+08 -1.26256 -3.55246e+08)
(-8.54806e+08 -485728 -7.40015 -3.59042e+08 2.89046 -3.32312e+08)
(-8.099e+08 3.44349e+06 8.2927 -3.45314e+08 8.58502 -2.98507e+08)
(-7.47636e+08 446743 22.92 -3.32865e+08 -9.02723 -2.61528e+08)
(-6.69891e+08 4.74914e+06 -5.98929 -3.14779e+08 -23.5378 -2.17928e+08)
(-5.71757e+08 1.98349e+06 -30.9494 -2.98583e+08 1.86121 -1.73889e+08)
(-4.68082e+08 6.4991e+06 -8.55185 -2.77533e+08 35.2329 -1.2418e+08)
(-3.44366e+08 3.82628e+06 14.4171 -2.58885e+08 -3.04223 -7.08759e+07)
(-2.00224e+08 8.50929e+06 -2.47378 -2.34444e+08 -37.5422 -2.01033e+07)
(-1.58245e+06 6.16108e+06 -11.2403 -2.14919e+08 21.0057 4.51901e+07)
(2.17552e+08 1.14924e+07 4.34185 -1.8606e+08 40.8794 1.04558e+08)
(5.10464e+08 8.92355e+06 5.67731 -1.65219e+08 -22.4339 2.07442e+08)
(8.38646e+08 1.48598e+07 -0.584275 -1.27477e+08 -40.2188 2.91084e+08)
(1.11008e+09 1.19872e+07 -5.94474 -1.03428e+08 24.9574 4.56421e+08)
(1.25101e+09 1.77824e+07 -2.53527 -5.10258e+07 14.4221 5.61768e+08)
(-9.04003e+08 -469124 -2.45247 -3.71786e+08 3.01961 -3.69264e+08)
(-8.91642e+08 1.95614e+06 -11.0093 -3.65171e+08 -1.26373 -3.55196e+08)
(-8.5389e+08 -797940 -7.39779 -3.59042e+08 2.88451 -3.32266e+08)
(-8.08853e+08 3.07913e+06 8.29683 -3.45315e+08 8.57655 -2.98409e+08)
(-7.46491e+08 -29019.9 22.9029 -3.32847e+08 -9.00826 -2.61421e+08)
(-6.68533e+08 4.19692e+06 -5.99547 -3.14786e+08 -23.513 -2.17758e+08)
(-5.70202e+08 1.39573e+06 -30.9392 -2.98592e+08 1.84116 -1.73727e+08)
(-4.66419e+08 5.82079e+06 -8.57988 -2.77563e+08 35.2162 -1.2392e+08)
(-3.42561e+08 3.17421e+06 14.3985 -2.58924e+08 -3.00817 -7.06124e+07)
(-1.98159e+08 7.79007e+06 -2.47455 -2.34469e+08 -37.5063 -1.97752e+07)
(827792 5.51633e+06 -11.2535 -2.14998e+08 20.9595 4.55163e+07)
(2.19975e+08 1.08765e+07 4.3645 -1.86072e+08 40.827 1.04989e+08)
(5.13126e+08 8.44146e+06 5.67181 -1.65321e+08 -22.4096 2.07894e+08)
(8.41385e+08 1.44607e+07 -0.582857 -1.27485e+08 -40.1752 2.9165e+08)
(1.11271e+09 1.17316e+07 -5.9283 -1.0352e+08 24.9632 4.56961e+08)
(1.25373e+09 1.76926e+07 -2.54346 -5.09971e+07 14.4024 5.6232e+08)
(-9.03023e+08 -570754 -2.45478 -3.71851e+08 3.00572 -3.69297e+08)
(-8.90994e+08 1.78544e+06 -11.0156 -3.65181e+08 -1.26419 -3.55173e+08)
(-8.53184e+08 -1.13503e+06 -7.39522 -3.59041e+08 2.88071 -3.32231e+08)
(-8.08004e+08 2.68895e+06 8.30175 -3.4533e+08 8.57108 -2.9832e+08)
(-7.45542e+08 -555802 22.8822 -3.32837e+08 -8.99062 -2.61325e+08)
(-6.67352e+08 3.58141e+06 -6.00296 -3.1481e+08 -23.4939 -2.17593e+08)
(-5.68802e+08 730804 -30.9301 -2.98602e+08 1.8175 -1.73566e+08)
(-4.64948e+08 5.06661e+06 -8.61338 -2.77583e+08 35.2098 -1.23649e+08)
(-3.40913e+08 2.47525e+06 14.3719 -2.58974e+08 -2.97193 -7.03425e+07)
(-1.96205e+08 7.01775e+06 -2.4759 -2.34483e+08 -37.477 -1.94245e+07)
(3.19291e+06 4.86011e+06 -11.2753 -2.15089e+08 20.9211 4.58771e+07)
(2.22505e+08 1.02103e+07 4.38011 -1.86078e+08 40.781 1.05509e+08)
(5.15897e+08 7.88578e+06 5.67353 -1.65447e+08 -22.3879 2.08426e+08)
(8.44202e+08 1.40153e+07 -0.581623 -1.27495e+08 -40.1392 2.92308e+08)
(1.11548e+09 1.14551e+07 -5.91343 -1.03616e+08 24.9688 4.57594e+08)
(1.25665e+09 1.75965e+07 -2.55246 -5.09684e+07 14.3826 5.62958e+08)
(-9.02332e+08 -693587 -2.45801 -3.71884e+08 2.99658 -3.69317e+08)
(-8.90659e+08 1.61265e+06 -11.0224 -3.65216e+08 -1.2646 -3.5519e+08)
(-8.52784e+08 -1.49117e+06 -7.39088 -3.5906e+08 2.87864 -3.3223e+08)
(-8.07453e+08 2.28119e+06 8.30602 -3.45369e+08 8.56965 -2.98262e+08)
(-7.44879e+08 -1.10109e+06 22.8565 -3.3284e+08 -8.97503 -2.61255e+08)
(-6.66421e+08 2.94838e+06 -6.0112 -3.14834e+08 -23.4829 -2.17438e+08)
(-5.67613e+08 67940 -30.9222 -2.98604e+08 1.79386 -1.73403e+08)
(-4.63548e+08 4.27783e+06 -8.64312 -2.77584e+08 35.2176 -1.23317e+08)
(-3.39316e+08 1.72378e+06 14.3534 -2.59007e+08 -2.92581 -7.00149e+07)
(-1.94252e+08 6.18248e+06 -2.47722 -2.3448e+08 -37.4563 -1.89997e+07)
(5.56412e+06 4.11555e+06 -11.2939 -2.15181e+08 20.8767 4.62972e+07)
(2.24941e+08 9.45948e+06 4.40565 -1.86104e+08 40.7427 1.06087e+08)
(5.18692e+08 7.27922e+06 5.67573 -1.65562e+08 -22.3595 2.09046e+08)
(8.47199e+08 1.35383e+07 -0.580323 -1.27499e+08 -40.1049 2.93023e+08)
(1.11844e+09 1.11346e+07 -5.90862 -1.0371e+08 24.9766 4.58294e+08)
(1.25978e+09 1.7487e+07 -2.56366 -5.09455e+07 14.3643 5.63674e+08)
(-9.01985e+08 -816288 -2.46189 -3.71922e+08 2.99192 -3.69354e+08)
(-8.90572e+08 1.442e+06 -11.0297 -3.65251e+08 -1.26533 -3.55213e+08)
(-8.52624e+08 -1.85868e+06 -7.38526 -3.59076e+08 2.8787 -3.32226e+08)
(-8.07115e+08 1.86046e+06 8.31066 -3.45404e+08 8.57241 -2.98199e+08)
(-7.44418e+08 -1.66521e+06 22.8254 -3.3284e+08 -8.96361 -2.61176e+08)
(-6.65654e+08 2.28129e+06 -6.0207 -3.14861e+08 -23.4802 -2.17266e+08)
(-5.66599e+08 -652087 -30.9048 -2.9862e+08 1.76958 -1.73233e+08)
(-4.62411e+08 3.41201e+06 -8.68512 -2.77611e+08 35.2418 -1.22971e+08)
(-3.37921e+08 912896 14.3259 -2.59041e+08 -2.87217 -6.96541e+07)
(-1.92462e+08 5.26256e+06 -2.47899 -2.3448e+08 -37.4473 -1.85315e+07)
(7.84538e+06 3.30212e+06 -11.3256 -2.15261e+08 20.8271 4.67744e+07)
(2.27514e+08 8.65973e+06 4.41808 -1.86097e+08 40.7044 1.06691e+08)
(5.2164e+08 6.61153e+06 5.70311 -1.65675e+08 -22.3381 2.09681e+08)
(8.50279e+08 1.29962e+07 -0.579043 -1.27497e+08 -40.0751 2.93809e+08)
(1.12157e+09 1.07712e+07 -5.90313 -1.03825e+08 24.9812 4.59063e+08)
(1.26316e+09 1.7364e+07 -2.5771 -5.0917e+07 14.3457 5.64477e+08)
(-9.01931e+08 -936581 -2.46495 -3.71954e+08 2.9916 -3.69388e+08)
(-8.90815e+08 1.27614e+06 -11.037 -3.65362e+08 -1.26698 -3.55306e+08)
(-8.52792e+08 -2.24301e+06 -7.37719 -3.59154e+08 2.8793 -3.32291e+08)
(-8.07095e+08 1.42346e+06 8.31437 -3.45507e+08 8.58003 -2.98193e+08)
(-7.44272e+08 -2.26101e+06 22.7863 -3.3288e+08 -8.9492 -2.61151e+08)
(-6.65197e+08 1.57299e+06 -6.03091 -3.14941e+08 -23.4867 -2.17133e+08)
(-5.6586e+08 -1.40509e+06 -30.8867 -2.98654e+08 1.73525 -1.73094e+08)
(-4.61368e+08 2.51915e+06 -8.72149 -2.77654e+08 35.2601 -1.22697e+08)
(-3.36606e+08 61227.2 14.3114 -2.59098e+08 -2.81878 -6.93674e+07)
(-1.907e+08 4.28762e+06 -2.48112 -2.345e+08 -37.4332 -1.8113e+07)
(1.01539e+07 2.43011e+06 -11.3713 -2.15363e+08 20.7748 4.72151e+07)
(2.29995e+08 7.76529e+06 4.44009 -1.86114e+08 40.6685 1.0734e+08)
(5.24582e+08 5.86104e+06 5.71585 -1.65817e+08 -22.3049 2.10371e+08)
(8.53552e+08 1.23854e+07 -0.577794 -1.27511e+08 -40.0462 2.94647e+08)
(1.12494e+09 1.03519e+07 -5.9125 -1.03949e+08 24.9864 4.59918e+08)
(1.26682e+09 1.72314e+07 -2.59253 -5.0896e+07 14.3276 5.65369e+08)
(-9.02211e+08 -1.05531e+06 -2.46935 -3.72063e+08 2.99386 -3.69498e+08)
(-8.91329e+08 1.12412e+06 -11.0453 -3.65635e+08 -1.26811 -3.55561e+08)
(-8.53233e+08 -2.62458e+06 -7.36765 -3.59395e+08 2.87918 -3.32515e+08)
(-8.07324e+08 997608 8.31881 -3.45755e+08 8.58422 -2.98339e+08)
(-7.44368e+08 -2.85276e+06 22.7417 -3.33061e+08 -8.93411 -2.61276e+08)
(-6.64927e+08 857134 -6.04311 -3.15134e+08 -23.4865 -2.17132e+08)
(-5.65291e+08 -2.17056e+06 -30.8708 -2.98793e+08 1.70319 -1.73079e+08)
(-4.60608e+08 1.56519e+06 -8.7681 -2.77778e+08 35.2955 -1.22449e+08)
(-3.35539e+08 -842273 14.2793 -2.59229e+08 -2.74886 -6.91085e+07)
(-1.8913e+08 3.23872e+06 -2.48382 -2.34555e+08 -37.4279 -1.76944e+07)