/*--------------------------------*- C++ -*----------------------------------*\
| =========                 |                                                 |
| \\      /  F ield         | foam-extend: Open Source CFD                    |
|  \\    /   O peration     | Version:     4.1-20200408                       |
|   \\  /    A nd           | Web:         http://www.foam-extend.org         |
|    \\/     M anipulation  |                                                 |
\*---------------------------------------------------------------------------*/
FoamFile
{
    version     2.0;
    format      ascii;
    class       volSymmTensorField;
    location    "0.0165000";
    object      bEbar;
}
// * * * * * * * * * * * * * * * * * * * * * * * * * * * * * * * * * * * * * //

dimensions      [0 0 0 0 0 0 0];

internalField   nonuniform List<symmTensor> 
1952
(
(1.00394 -4.20189e-06 8.59697e-12 0.998036 5.44861e-12 0.998038)
(1.00392 -2.71476e-06 6.31552e-12 0.998041 -1.76776e-11 0.998054)
(1.00388 -8.32783e-06 -4.51418e-12 0.998062 -4.88216e-11 0.998073)
(1.00384 -6.88043e-06 -1.33193e-11 0.998069 3.13048e-11 0.998102)
(1.00379 -1.3257e-05 5.61722e-12 0.998096 8.08567e-11 0.998127)
(1.00374 -1.06629e-05 2.40937e-11 0.998103 2.74721e-12 0.998166)
(1.00369 -1.71035e-05 9.89184e-12 0.998132 -8.14982e-11 0.998188)
(1.00368 -1.33326e-05 -5.31316e-12 0.998124 -2.51808e-11 0.998207)
(1.00366 -2.07675e-05 7.15518e-12 0.998139 6.57283e-11 0.998208)
(1.00369 -1.93931e-05 7.96513e-12 0.998109 4.65786e-12 0.998206)
(1.00382 -2.965e-05 -7.64138e-12 0.998071 -7.99168e-11 0.998124)
(1.00417 -3.30334e-05 3.5575e-12 0.997909 1.23914e-11 0.997932)
(1.00478 -5.67938e-05 -1.79734e-11 0.997666 1.94862e-10 0.997567)
(1.00586 -0.000105024 6.78684e-11 0.997211 1.14245e-11 0.996959)
(1.00607 -0.000302216 -5.96945e-11 0.997038 -6.83879e-11 0.996924)
(1.00395 -2.70034e-07 2.54158e-12 0.998031 -4.18696e-11 0.998033)
(1.00406 -1.8243e-05 1.70876e-11 0.997974 6.49421e-12 0.997974)
(1.00404 -2.06282e-05 1.25635e-11 0.997977 -2.04533e-11 0.997993)
(1.004 -3.95386e-05 -8.97452e-12 0.997998 -5.69209e-11 0.99801)
(1.00397 -4.1883e-05 -2.65421e-11 0.998003 3.6554e-11 0.998041)
(1.00392 -6.42324e-05 1.11561e-11 0.99803 9.67872e-11 0.998064)
(1.00387 -6.50771e-05 4.78902e-11 0.998035 2.91233e-12 0.998104)
(1.00382 -8.96071e-05 1.96946e-11 0.998061 -1.00809e-10 0.998126)
(1.00382 -9.07678e-05 -1.07326e-11 0.998049 -2.83647e-11 0.998146)
(1.0038 -0.000121731 1.42101e-11 0.998061 8.23141e-11 0.998149)
(1.00384 -0.000133908 1.61976e-11 0.998027 4.28133e-13 0.998149)
(1.00396 -0.000177953 -1.48557e-11 0.997985 -9.73122e-11 0.998069)
(1.00431 -0.000209086 7.06301e-12 0.997826 1.64101e-11 0.997881)
(1.0049 -0.000288623 -3.5849e-11 0.997595 2.12295e-10 0.997523)
(1.00592 -0.000382744 1.26261e-10 0.997181 9.67225e-12 0.996923)
(1.006 -0.00055122 -1.44098e-10 0.997145 -7.9206e-11 0.996883)
(1.00407 -4.51394e-06 5.06855e-12 0.997968 -4.83156e-11 0.997971)
(1.00417 -2.89206e-05 1.69624e-11 0.997921 7.33672e-12 0.997921)
(1.00415 -3.75378e-05 1.24874e-11 0.997923 -2.29814e-11 0.997941)
(1.00411 -6.43934e-05 -8.9239e-12 0.997945 -6.38543e-11 0.997958)
(1.00407 -7.3005e-05 -2.64953e-11 0.99795 4.15011e-11 0.99799)
(1.00402 -0.000105024 1.10643e-11 0.997976 1.10367e-10 0.998012)
(1.00398 -0.000113261 4.7616e-11 0.997981 2.50888e-12 0.998053)
(1.00393 -0.000149298 1.95491e-11 0.998007 -1.16789e-10 0.998074)
(1.00392 -0.000160195 -1.0844e-11 0.997997 -2.97579e-11 0.998096)
(1.0039 -0.000206133 1.40984e-11 0.99801 9.58918e-11 0.998101)
(1.00393 -0.000231487 1.60278e-11 0.997981 -4.59337e-12 0.998102)
(1.00404 -0.000293632 -1.42225e-11 0.997946 -1.10953e-10 0.998023)
(1.00437 -0.00033944 7.91412e-12 0.997803 2.0985e-11 0.997837)
(1.00494 -0.000432699 -3.56852e-11 0.997599 2.24813e-10 0.997483)
(1.00592 -0.000519953 1.20669e-10 0.997228 7.01919e-12 0.996879)
(1.00601 -0.000623359 -1.50431e-10 0.997206 -8.45488e-11 0.996813)
(1.00418 -8.85017e-06 5.03995e-12 0.997915 -5.3902e-11 0.997918)
(1.00425 -4.01634e-05 1.6865e-11 0.997881 8.00867e-12 0.997882)
(1.00423 -5.57864e-05 1.24078e-11 0.997884 -2.51312e-11 0.997901)
(1.00419 -9.03765e-05 -8.8813e-12 0.997906 -6.95015e-11 0.997919)
(1.00415 -0.000106076 -2.64507e-11 0.997913 4.57563e-11 0.997952)
(1.0041 -0.000147061 1.09788e-11 0.99794 1.21305e-10 0.997975)
(1.00405 -0.000163474 4.73155e-11 0.997946 1.89521e-12 0.998016)
(1.004 -0.000209554 1.93991e-11 0.997974 -1.2929e-10 0.998038)
(1.00398 -0.000230073 -1.08409e-11 0.997968 -3.00676e-11 0.99806)
(1.00396 -0.000287382 1.40019e-11 0.997987 1.06348e-10 0.998068)
(1.00398 -0.000322694 1.55495e-11 0.997967 -9.30037e-12 0.99807)
(1.00408 -0.000394195 -1.34805e-11 0.997945 -1.21077e-10 0.997993)
(1.00439 -0.000443726 9.09013e-12 0.997819 2.45912e-11 0.997809)
(1.00492 -0.000532004 -3.54576e-11 0.997637 2.3341e-10 0.997457)
(1.00589 -0.00059552 1.1667e-10 0.997287 6.4447e-12 0.99685)
(1.00601 -0.000650572 -1.5204e-10 0.997258 -8.82045e-11 0.996761)
(1.00426 -1.35841e-05 5.02692e-12 0.997874 -5.85123e-11 0.997878)
(1.00431 -5.08565e-05 1.67711e-11 0.997854 8.53893e-12 0.997854)
(1.00428 -7.33268e-05 1.23435e-11 0.997857 -2.68671e-11 0.997874)
(1.00424 -0.000114957 -8.84475e-12 0.99788 -7.39498e-11 0.997893)
(1.0042 -0.000137498 -2.63749e-11 0.997889 4.91537e-11 0.997926)
(1.00415 -0.000186103 1.09132e-11 0.997918 1.29736e-10 0.99795)
(1.00409 -0.000210229 4.7077e-11 0.997927 1.2866e-12 0.997991)
(1.00404 -0.000264099 1.92229e-11 0.997958 -1.38619e-10 0.998014)
(1.00402 -0.000292407 -1.06893e-11 0.997958 -2.9753e-11 0.998038)
(1.00398 -0.000356775 1.39397e-11 0.997985 1.14155e-10 0.998047)
(1.00399 -0.000397306 1.48736e-11 0.997974 -1.29759e-11 0.99805)
(1.00408 -0.000471222 -1.28602e-11 0.997963 -1.28184e-10 0.997974)
(1.00437 -0.000516892 1.05157e-11 0.99785 2.69961e-11 0.997792)
(1.00489 -0.000594207 -3.51924e-11 0.997682 2.38795e-10 0.997441)
(1.00586 -0.000636421 1.14912e-10 0.997335 7.07462e-12 0.99683)
(1.00603 -0.000662874 -1.52316e-10 0.99728 -9.08004e-11 0.996717)
(1.00432 -1.82136e-05 4.98082e-12 0.997847 -6.21556e-11 0.99785)
(1.00434 -6.06148e-05 1.66958e-11 0.997838 8.95162e-12 0.997838)
(1.00431 -8.92349e-05 1.22914e-11 0.997842 -2.81967e-11 0.997858)
(1.00427 -0.000137086 -8.80936e-12 0.997866 -7.72959e-11 0.997878)
(1.00422 -0.00016584 -2.625e-11 0.997877 5.17777e-11 0.997912)
(1.00417 -0.000220612 1.08724e-11 0.997909 1.35992e-10 0.997936)
(1.00411 -0.000251238 4.69173e-11 0.997922 7.77153e-13 0.997978)
(1.00405 -0.000310735 1.90752e-11 0.997957 -1.45347e-10 0.998002)
(1.00402 -0.000343912 -1.01278e-11 0.997963 -2.9382e-11 0.998027)
(1.00398 -0.000411754 1.39339e-11 0.997998 1.19443e-10 0.998038)
(1.00397 -0.000453579 1.44187e-11 0.997995 -1.5493e-11 0.998042)
(1.00405 -0.000525469 -1.23077e-11 0.997993 -1.32493e-10 0.997966)
(1.00434 -0.000564013 1.14466e-11 0.997888 2.83333e-11 0.997785)
(1.00485 -0.00063005 -3.49083e-11 0.997726 2.41135e-10 0.997437)
(1.00583 -0.000654902 1.14174e-10 0.997374 7.41303e-12 0.996822)
(1.00605 -0.000667047 -1.51906e-10 0.997293 -9.27267e-11 0.996683)
(1.00435 -2.25054e-05 4.95862e-12 0.99783 -6.49401e-11 0.997834)
(1.00435 -6.90688e-05 1.66578e-11 0.997832 9.24959e-12 0.997832)
(1.00432 -0.000102978 1.22571e-11 0.997838 -2.91096e-11 0.997853)
(1.00428 -0.000155979 -8.79085e-12 0.997864 -7.95403e-11 0.997873)
(1.00423 -0.000189759 -2.61115e-11 0.997877 5.36259e-11 0.997908)
(1.00417 -0.000249192 1.08605e-11 0.997912 1.40149e-10 0.997934)
(1.00411 -0.000284515 4.68109e-11 0.997928 4.05963e-13 0.997975)
(1.00404 -0.000347656 1.89737e-11 0.997968 -1.49635e-10 0.998)
(1.00401 -0.000383337 -9.74455e-12 0.997979 -2.90736e-11 0.998026)
(1.00395 -0.000452359 1.39427e-11 0.99802 1.22116e-10 0.998041)
(1.00394 -0.000492668 1.40721e-11 0.998024 -1.7294e-11 0.998045)
(1.00402 -0.000560905 -1.18765e-11 0.998027 -1.34373e-10 0.997969)
(1.0043 -0.000592298 1.18e-11 0.997925 2.90175e-11 0.997788)
(1.00481 -0.00064907 -3.46353e-11 0.997764 2.41392e-10 0.997441)
(1.0058 -0.000662224 1.1389e-10 0.997404 7.63341e-12 0.996821)
(1.00607 -0.000667613 -1.51264e-10 0.997298 -9.41393e-11 0.996657)
(1.00436 -2.62448e-05 4.9546e-12 0.997825 -6.68765e-11 0.997828)
(1.00434 -7.59785e-05 1.66396e-11 0.997837 9.42193e-12 0.997837)
(1.00431 -0.000114117 1.22204e-11 0.997845 -2.9616e-11 0.997858)
(1.00426 -0.000171194 -8.78859e-12 0.997871 -8.07149e-11 0.997879)
(1.00421 -0.000208652 -2.5996e-11 0.997888 5.46676e-11 0.997915)
(1.00415 -0.000271268 1.08747e-11 0.997925 1.4219e-10 0.997941)
(1.00409 -0.000309622 4.67692e-11 0.997945 1.10931e-13 0.997982)
(1.00402 -0.000374676 1.89241e-11 0.997987 -1.51409e-10 0.998008)
(1.00397 -0.000411357 -9.69982e-12 0.998003 -2.85302e-11 0.998035)
(1.00391 -0.000479989 1.39533e-11 0.998048 1.2295e-10 0.998052)
(1.0039 -0.000517624 1.39466e-11 0.998057 -1.82233e-11 0.998055)
(1.00397 -0.000581849 -1.15649e-11 0.998061 -1.34534e-10 0.99798)
(1.00425 -0.000606919 1.19704e-11 0.997961 2.91834e-11 0.997798)
(1.00477 -0.000656979 -3.43723e-11 0.997798 2.40184e-10 0.997452)
(1.00577 -0.000663168 1.14056e-10 0.997429 7.66429e-12 0.996826)
(1.00609 -0.00066666 -1.50597e-10 0.997299 -9.51513e-11 0.996637)
(1.00435 -2.92769e-05 4.93303e-12 0.997829 -6.79184e-11 0.997832)
(1.00431 -8.13232e-05 1.66372e-11 0.997851 9.49524e-12 0.99785)
(1.00428 -0.000122731 1.22137e-11 0.997859 -2.98004e-11 0.997871)
(1.00423 -0.000182829 -8.80066e-12 0.997887 -8.10621e-11 0.997893)
(1.00418 -0.00022294 -2.58944e-11 0.997906 5.50476e-11 0.997929)
(1.00411 -0.000287537 1.09139e-11 0.997945 1.42591e-10 0.997956)
(1.00405 -0.000327723 4.68066e-11 0.997968 -1.08184e-13 0.997997)
(1.00398 -0.00039352 1.89054e-11 0.998013 -1.51282e-10 0.998024)
(1.00393 -0.00042981 -9.54012e-12 0.998032 -2.78557e-11 0.998051)
(1.00386 -0.000497095 1.399e-11 0.99808 1.22279e-10 0.998069)
(1.00385 -0.000531786 1.40638e-11 0.998091 -1.85919e-11 0.998072)
(1.00392 -0.000592324 -1.13398e-11 0.998095 -1.33368e-10 0.997996)
(1.00421 -0.000612318 1.18955e-11 0.997994 2.90341e-11 0.997814)
(1.00472 -0.000658152 -3.41269e-11 0.997828 2.37778e-10 0.997467)
(1.00574 -0.000660395 1.14396e-10 0.997451 7.33443e-12 0.996837)
(1.00611 -0.000664799 -1.49946e-10 0.997298 -9.58594e-11 0.996623)
(1.00433 -3.16287e-05 4.93209e-12 0.997843 -6.82742e-11 0.997845)
(1.00427 -8.51632e-05 1.66578e-11 0.997871 9.48504e-12 0.99787)
(1.00424 -0.000128829 1.22145e-11 0.99788 -2.97073e-11 0.997891)
(1.00419 -0.000190943 -8.82888e-12 0.997909 -8.07403e-11 0.997913)
(1.00413 -0.000232695 -2.58528e-11 0.99793 5.48836e-11 0.997949)
(1.00406 -0.000298171 1.09679e-11 0.997971 1.41625e-10 0.997977)
(1.004 -0.000339148 4.69619e-11 0.997996 -3.13576e-13 0.998018)
(1.00393 -0.000404884 1.89017e-11 0.998042 -1.49682e-10 0.998045)
(1.00388 -0.000440243 -9.60884e-12 0.998063 -2.71765e-11 0.998072)
(1.00381 -0.000505852 1.40237e-11 0.998113 1.20355e-10 0.998091)
(1.00379 -0.000537659 1.43907e-11 0.998125 -1.85919e-11 0.998093)
(1.00387 -0.000595267 -1.11789e-11 0.998128 -1.3116e-10 0.998017)
(1.00415 -0.000611608 1.16597e-11 0.998025 2.86939e-11 0.997833)
(1.00468 -0.000654985 -3.39038e-11 0.997855 2.34569e-10 0.997487)
(1.0057 -0.000655693 1.14802e-10 0.99747 6.82567e-12 0.996851)
(1.00612 -0.000662597 -1.49349e-10 0.997296 -9.63332e-11 0.996613)
(1.00429 -3.32878e-05 4.93438e-12 0.997863 -6.80615e-11 0.997865)
(1.00422 -8.77108e-05 1.66805e-11 0.997897 9.39905e-12 0.997895)
(1.00419 -0.000132711 1.22114e-11 0.997906 -2.93933e-11 0.997916)
(1.00414 -0.000195992 -8.86739e-12 0.997936 -7.98388e-11 0.997939)
(1.00408 -0.00023864 -2.59404e-11 0.997958 5.42805e-11 0.997975)
(1.00401 -0.000304342 1.10201e-11 0.998 1.39535e-10 0.998004)
(1.00394 -0.000345347 4.71497e-11 0.998027 -5.15188e-13 0.998044)
(1.00387 -0.000410499 1.89467e-11 0.998073 -1.46862e-10 0.998071)
(1.00382 -0.000444674 -9.63001e-12 0.998096 -2.63799e-11 0.998098)
(1.00375 -0.000508419 1.4062e-11 0.998146 1.17617e-10 0.998118)
(1.00373 -0.000537828 1.48043e-11 0.998158 -1.8272e-11 0.998118)
(1.00381 -0.000593196 -1.10809e-11 0.998159 -1.28271e-10 0.998041)
(1.0041 -0.00060688 1.14217e-11 0.998054 2.82121e-11 0.997856)
(1.00463 -0.000649217 -3.36951e-11 0.99788 2.30716e-10 0.997509)
(1.00567 -0.000649983 1.1527e-10 0.997487 6.08074e-12 0.996869)
(1.00613 -0.00066038 -1.48833e-10 0.997294 -9.6624e-11 0.996607)
(1.00423 -3.43074e-05 4.90309e-12 0.997888 -6.73668e-11 0.997891)
(1.00416 -8.91543e-05 1.67191e-11 0.997926 9.25329e-12 0.997924)
(1.00413 -0.000134775 1.22138e-11 0.997936 -2.89371e-11 0.997945)
(1.00408 -0.000198493 -8.91275e-12 0.997967 -7.85056e-11 0.997968)
(1.00402 -0.000241382 -2.60625e-11 0.997989 5.33604e-11 0.998004)
(1.00395 -0.00030687 1.1073e-11 0.998032 1.3674e-10 0.998034)
(1.00388 -0.000347551 4.74356e-11 0.99806 -5.9718e-13 0.998073)
(1.00381 -0.000411793 1.89869e-11 0.998106 -1.43276e-10 0.998099)
(1.00375 -0.000444667 -9.62652e-12 0.998129 -2.56895e-11 0.998127)
(1.00368 -0.000506566 1.41026e-11 0.998179 1.14169e-10 0.998147)
(1.00367 -0.000533948 1.53919e-11 0.99819 -1.77751e-11 0.998146)
(1.00375 -0.000587789 -1.101e-11 0.998188 -1.248e-10 0.998068)
(1.00405 -0.000599645 1.10402e-11 0.998081 2.76081e-11 0.997881)
(1.00458 -0.000641963 -3.35032e-11 0.997903 2.26191e-10 0.997535)
(1.00563 -0.000643556 1.15677e-10 0.997505 5.03993e-12 0.99689)
(1.00613 -0.000657994 -1.48361e-10 0.997294 -9.67872e-11 0.996604)
(1.00418 -3.48329e-05 4.96562e-12 0.997917 -6.63421e-11 0.99792)
(1.0041 -8.96765e-05 1.67479e-11 0.997958 9.06045e-12 0.997957)
(1.00407 -0.000135354 1.22182e-11 0.997969 -2.83406e-11 0.997977)
(1.00401 -0.000198964 -8.94286e-12 0.997999 -7.68163e-11 0.998)
(1.00395 -0.000241584 -2.6117e-11 0.998023 5.21488e-11 0.998036)
(1.00388 -0.000306449 1.1132e-11 0.998065 1.33311e-10 0.998066)
(1.00381 -0.000346359 4.7716e-11 0.998094 -6.12e-13 0.998105)
(1.00374 -0.000409671 1.90363e-11 0.998139 -1.39041e-10 0.998131)
(1.00369 -0.000441268 -9.78753e-12 0.998163 -2.50649e-11 0.998157)
(1.00362 -0.000501602 1.41247e-11 0.998212 1.10024e-10 0.998179)
(1.00361 -0.000527235 1.59971e-11 0.998222 -1.72013e-11 0.998176)
(1.0037 -0.000580192 -1.09771e-11 0.998217 -1.20744e-10 0.998097)
(1.004 -0.000591222 1.05803e-11 0.998107 2.69747e-11 0.997909)
(1.00453 -0.000634098 -3.33288e-11 0.997926 2.21284e-10 0.997563)
(1.00559 -0.000637221 1.15978e-10 0.997522 3.90046e-12 0.996912)
(1.00613 -0.000655709 -1.47946e-10 0.997295 -9.68547e-11 0.996603)
(1.00411 -3.49745e-05 4.96175e-12 0.99795 -6.50269e-11 0.997952)
(1.00403 -8.95064e-05 1.67704e-11 0.997993 8.81858e-12 0.997992)
(1.004 -0.000134796 1.22072e-11 0.998004 -2.76027e-11 0.998012)
(1.00394 -0.000197964 -8.97183e-12 0.998034 -7.47662e-11 0.998035)
(1.00388 -0.000240057 -2.61651e-11 0.998058 5.06678e-11 0.998071)
(1.00381 -0.000303881 1.11816e-11 0.998101 1.29209e-10 0.998101)
(1.00374 -0.000342746 4.80544e-11 0.998129 -6.44932e-13 0.998139)
(1.00367 -0.000405072 1.9056e-11 0.998174 -1.34119e-10 0.998164)
(1.00362 -0.000435651 -1.02113e-11 0.998197 -2.42829e-11 0.99819)
(1.00355 -0.000494895 1.41276e-11 0.998244 1.05602e-10 0.998212)
(1.00355 -0.000519111 1.66581e-11 0.998253 -1.64345e-11 0.998208)
(1.00364 -0.000571627 -1.09571e-11 0.998244 -1.16381e-10 0.998127)
(1.00394 -0.000582454 1.01739e-11 0.998132 2.62915e-11 0.997937)
(1.00448 -0.00062625 -3.31669e-11 0.997948 2.16138e-10 0.997592)
(1.00555 -0.00063126 1.16257e-10 0.99754 2.69356e-12 0.996937)
(1.00613 -0.000653707 -1.47603e-10 0.997296 -9.68488e-11 0.996603)
(1.00404 -3.47959e-05 4.97038e-12 0.997985 -6.34181e-11 0.997987)
(1.00395 -8.89119e-05 1.67752e-11 0.99803 8.54878e-12 0.998028)
(1.00392 -0.000133559 1.21821e-11 0.998041 -2.67955e-11 0.998048)
(1.00387 -0.000196114 -8.98497e-12 0.99807 -7.25273e-11 0.998071)
(1.00381 -0.000237462 -2.61542e-11 0.998094 4.90658e-11 0.998107)
(1.00374 -0.00030007 1.12224e-11 0.998136 1.24792e-10 0.998137)
(1.00367 -0.000337933 4.8369e-11 0.998165 -6.43788e-13 0.998174)
(1.0036 -0.000399263 1.9074e-11 0.998208 -1.28827e-10 0.998198)
(1.00356 -0.000428961 -1.05273e-11 0.99823 -2.343e-11 0.998223)
(1.00349 -0.000487382 1.41272e-11 0.998276 1.00975e-10 0.998245)
(1.00349 -0.000510546 1.73171e-11 0.998283 -1.55481e-11 0.99824)
(1.00358 -0.000562905 -1.09491e-11 0.998271 -1.1175e-10 0.998159)
(1.00389 -0.000574001 9.82737e-12 0.998157 2.55779e-11 0.997967)
(1.00442 -0.000618834 -3.30172e-11 0.99797 2.10788e-10 0.997622)
(1.0055 -0.000625519 1.16505e-10 0.997559 1.36902e-12 0.996962)
(1.00612 -0.000651857 -1.47308e-10 0.9973 -9.67925e-11 0.996605)
(1.00397 -3.44367e-05 4.96894e-12 0.998021 -6.16421e-11 0.998023)
(1.00388 -8.79963e-05 1.6766e-11 0.998067 8.26266e-12 0.998066)
(1.00385 -0.000131775 1.21506e-11 0.998078 -2.59343e-11 0.998085)
(1.0038 -0.000193674 -8.98679e-12 0.998107 -7.01557e-11 0.998108)
(1.00374 -0.00023414 -2.61292e-11 0.99813 4.73733e-11 0.998143)
(1.00366 -0.000295634 1.12509e-11 0.998172 1.20139e-10 0.998174)
(1.0036 -0.000332456 4.87034e-11 0.9982 -6.40629e-13 0.99821)
(1.00353 -0.000392655 1.90091e-11 0.998241 -1.23306e-10 0.998234)
(1.00349 -0.000421759 -1.12259e-11 0.998263 -2.25985e-11 0.998257)
(1.00342 -0.000479701 1.4108e-11 0.998307 9.61697e-11 0.998279)
(1.00342 -0.000501981 1.78946e-11 0.998312 -1.45812e-11 0.998273)
(1.00352 -0.000554319 -1.0924e-11 0.998298 -1.06929e-10 0.998191)
(1.00383 -0.000565995 9.45305e-12 0.998181 2.4809e-11 0.997998)
(1.00437 -0.000611965 -3.28752e-11 0.997993 2.05156e-10 0.997654)
(1.00546 -0.000620159 1.16689e-10 0.997578 -1.06381e-13 0.996989)
(1.00612 -0.000650133 -1.47052e-10 0.997304 -9.67065e-11 0.996608)
(1.00389 -3.39184e-05 4.98736e-12 0.998059 -5.97456e-11 0.998061)
(1.0038 -8.69433e-05 1.67441e-11 0.998105 7.95653e-12 0.998104)
(1.00377 -0.000129804 1.21067e-11 0.998116 -2.50384e-11 0.998123)
(1.00372 -0.000191027 -8.97475e-12 0.998144 -6.76395e-11 0.998146)
(1.00366 -0.000230663 -2.60538e-11 0.998167 4.57475e-11 0.99818)
(1.00359 -0.000291163 1.12698e-11 0.998207 1.15376e-10 0.998211)
(1.00353 -0.000326859 4.89415e-11 0.998236 -7.1415e-13 0.998247)
(1.00346 -0.000385904 1.89439e-11 0.998275 -1.17511e-10 0.998269)
(1.00342 -0.000414515 -1.18744e-11 0.998296 -2.18453e-11 0.998293)
(1.00336 -0.000471953 1.40723e-11 0.998338 9.09432e-11 0.998315)
(1.00336 -0.000493756 1.83244e-11 0.998342 -1.34679e-11 0.998307)
(1.00346 -0.000546288 -1.09166e-11 0.998324 -1.01909e-10 0.998224)
(1.00378 -0.000558762 8.96429e-12 0.998206 2.40247e-11 0.998029)
(1.00431 -0.00060602 -3.27472e-11 0.998015 1.99432e-10 0.997686)
(1.00541 -0.000615766 1.16719e-10 0.997598 -1.61595e-12 0.997017)
(1.00611 -0.000648666 -1.46831e-10 0.99731 -9.66016e-11 0.996612)
(1.00382 -3.33391e-05 4.99831e-12 0.998097 -5.77481e-11 0.998099)
(1.00372 -8.58495e-05 1.67144e-11 0.998144 7.6335e-12 0.998143)
(1.0037 -0.000127884 1.20667e-11 0.998154 -2.40871e-11 0.998161)
(1.00364 -0.000188269 -8.95316e-12 0.998181 -6.49975e-11 0.998184)
(1.00359 -0.000227142 -2.59207e-11 0.998204 4.40259e-11 0.998218)
(1.00352 -0.000286458 1.12743e-11 0.998243 1.10413e-10 0.998248)
(1.00345 -0.00032136 4.90269e-11 0.998271 -7.45395e-13 0.998284)
(1.00339 -0.000379248 1.89258e-11 0.998308 -1.11466e-10 0.998306)
(1.00335 -0.000407511 -1.21523e-11 0.998328 -2.10547e-11 0.99833)
(1.00329 -0.000464497 1.40206e-11 0.998368 8.54943e-11 0.998351)
(1.0033 -0.000486249 1.89261e-11 0.998372 -1.24751e-11 0.998341)
(1.0034 -0.000539505 -1.08827e-11 0.998351 -9.67991e-11 0.998257)
(1.00372 -0.000552946 8.52049e-12 0.998232 2.34954e-11 0.998061)
(1.00426 -0.000601427 -3.26412e-11 0.998039 1.94143e-10 0.997717)
(1.00536 -0.000612351 1.1668e-10 0.99762 -2.83506e-12 0.997045)
(1.00609 -0.000647549 -1.46656e-10 0.997317 -9.64681e-11 0.996617)
(1.00374 -3.27907e-05 4.97992e-12 0.998136 -5.56383e-11 0.998138)
(1.00365 -8.4892e-05 1.66678e-11 0.998183 7.30004e-12 0.998182)
(1.00362 -0.000126178 1.20162e-11 0.998192 -2.30957e-11 0.9982)
(1.00357 -0.000185814 -8.92461e-12 0.998219 -6.22998e-11 0.998223)
(1.00351 -0.000223997 -2.57787e-11 0.998241 4.21368e-11 0.998255)
(1.00344 -0.000282185 1.12544e-11 0.998279 1.05149e-10 0.998286)
(1.00338 -0.000316698 4.89868e-11 0.998305 -7.31545e-13 0.998321)
(1.00333 -0.000373598 1.88831e-11 0.998341 -1.05382e-10 0.998342)
(1.00328 -0.000401743 -1.24771e-11 0.998361 -2.00448e-11 0.998365)
(1.00322 -0.000458287 1.39611e-11 0.998398 8.0297e-11 0.998386)
(1.00323 -0.000480361 1.9485e-11 0.9984 -1.15958e-11 0.998375)
(1.00334 -0.00053398 -1.08274e-11 0.998377 -9.18551e-11 0.998291)
(1.00366 -0.000547877 8.47285e-12 0.998257 2.30526e-11 0.998092)
(1.0042 -0.000597434 -3.25336e-11 0.998063 1.89023e-10 0.997748)
(1.00531 -0.00060954 1.1673e-10 0.997642 -4.06408e-12 0.997072)
(1.00608 -0.000646828 -1.46555e-10 0.997325 -9.63171e-11 0.996622)
(1.00366 -3.22949e-05 4.97503e-12 0.998175 -5.34729e-11 0.998177)
(1.00357 -8.42315e-05 1.65969e-11 0.998221 6.97531e-12 0.99822)
(1.00354 -0.000124929 1.19346e-11 0.99823 -2.2134e-11 0.998238)
(1.00349 -0.000184136 -8.8827e-12 0.998256 -5.96772e-11 0.998261)
(1.00344 -0.0002218 -2.56065e-11 0.998277 4.03245e-11 0.998293)
(1.00337 -0.00027942 1.12122e-11 0.998313 1.00014e-10 0.998323)
(1.00331 -0.000313628 4.8909e-11 0.998339 -8.031e-13 0.998358)
(1.00326 -0.000369478 1.87342e-11 0.998373 -9.94354e-11 0.998378)
(1.00322 -0.000397343 -1.31184e-11 0.998392 -1.91275e-11 0.9984)
(1.00316 -0.000453512 1.38953e-11 0.998427 7.51005e-11 0.998421)
(1.00317 -0.000475716 1.9929e-11 0.998429 -1.05844e-11 0.998409)
(1.00328 -0.000529165 -1.07544e-11 0.998403 -8.69002e-11 0.998323)
(1.00361 -0.00054349 8.21537e-12 0.998282 2.24055e-11 0.998123)
(1.00415 -0.000593924 -3.24236e-11 0.998086 1.8321e-10 0.997781)
(1.00526 -0.000606956 1.16481e-10 0.997663 -5.72899e-12 0.997102)
(1.00607 -0.000645707 -1.46421e-10 0.997333 -9.61793e-11 0.996627)
(1.00358 -3.19012e-05 4.97614e-12 0.998214 -5.13716e-11 0.998215)
(1.00349 -8.37638e-05 1.65026e-11 0.998259 6.64605e-12 0.998259)
(1.00347 -0.000124029 1.18471e-11 0.998268 -2.11668e-11 0.998276)
(1.00342 -0.000182797 -8.82468e-12 0.998292 -5.70202e-11 0.998299)
(1.00337 -0.00022013 -2.54267e-11 0.998313 3.85691e-11 0.99833)
(1.0033 -0.000277088 1.1159e-11 0.998348 9.48539e-11 0.99836)
(1.00324 -0.000311109 4.87505e-11 0.998374 -1.00783e-12 0.998394)
(1.00319 -0.000366127 1.86593e-11 0.998404 -9.33527e-11 0.998414)
(1.00315 -0.000393969 -1.32832e-11 0.998423 -1.82864e-11 0.998437)
(1.00309 -0.00044966 1.38163e-11 0.998457 6.94415e-11 0.998458)
(1.00311 -0.000471851 2.02743e-11 0.998457 -9.53622e-12 0.998444)
(1.00322 -0.000525425 -1.06717e-11 0.998429 -8.15857e-11 0.998358)
(1.00355 -0.000540503 7.71497e-12 0.998308 2.17746e-11 0.998155)
(1.00409 -0.000591433 -3.23295e-11 0.99811 1.77344e-10 0.997815)
(1.0052 -0.000605425 1.15922e-10 0.997686 -7.2249e-12 0.997131)
(1.00605 -0.000644695 -1.46284e-10 0.997342 -9.60438e-11 0.996633)
(1.0035 -3.16011e-05 4.96231e-12 0.998252 -4.92492e-11 0.998254)
(1.00341 -8.36679e-05 1.63705e-11 0.998298 6.29666e-12 0.998299)
(1.00339 -0.000123753 1.17419e-11 0.998307 -2.01262e-11 0.998315)
(1.00334 -0.000182203 -8.76235e-12 0.99833 -5.41978e-11 0.998338)
(1.00329 -0.000219439 -2.52176e-11 0.99835 3.66123e-11 0.998368)
(1.00323 -0.000275691 1.10829e-11 0.998383 8.93765e-11 0.998399)
(1.00317 -0.000309669 4.85321e-11 0.998408 -1.05775e-12 0.998431)
(1.00312 -0.000364107 1.86063e-11 0.998437 -8.70184e-11 0.998451)
(1.00308 -0.000392175 -1.31648e-11 0.998455 -1.7274e-11 0.998473)
(1.00303 -0.000447211 1.37252e-11 0.998486 6.39315e-11 0.998494)
(1.00304 -0.000469569 2.05286e-11 0.998486 -8.59287e-12 0.998478)
(1.00316 -0.000523123 -1.05966e-11 0.998455 -7.63575e-11 0.998392)
(1.00349 -0.000538692 7.4652e-12 0.998334 2.12232e-11 0.998187)
(1.00403 -0.00059004 -3.22366e-11 0.998134 1.71602e-10 0.997848)
(1.00515 -0.000605231 1.15357e-10 0.997709 -8.62359e-12 0.99716)
(1.00604 -0.00064428 -1.46215e-10 0.997352 -9.58848e-11 0.996638)
(1.00342 -3.14627e-05 4.93746e-12 0.998292 -4.69861e-11 0.998293)
(1.00333 -8.3992e-05 1.62273e-11 0.998337 5.94507e-12 0.998338)
(1.00331 -0.000124182 1.16218e-11 0.998346 -1.90868e-11 0.998354)
(1.00326 -0.000182634 -8.67605e-12 0.998368 -5.13639e-11 0.998377)
(1.00322 -0.00022005 -2.4958e-11 0.998387 3.46726e-11 0.998406)
(1.00315 -0.000276025 1.09914e-11 0.998418 8.38868e-11 0.998437)
(1.0031 -0.00031006 4.82456e-11 0.998442 -1.12068e-12 0.998468)
(1.00305 -0.000363867 1.84577e-11 0.998468 -8.0706e-11 0.998487)
(1.00301 -0.000392116 -1.32997e-11 0.998486 -1.62825e-11 0.998509)
(1.00296 -0.000446683 1.36305e-11 0.998515 5.84376e-11 0.99853)
(1.00298 -0.000469056 2.07155e-11 0.998514 -7.55673e-12 0.998513)
(1.0031 -0.000522282 -1.05119e-11 0.998482 -7.10653e-11 0.998426)
(1.00343 -0.000538225 7.19995e-12 0.998359 2.05562e-11 0.99822)
(1.00397 -0.000589807 -3.21509e-11 0.998159 1.658e-10 0.997881)
(1.0051 -0.000605217 1.14779e-10 0.997732 -1.00344e-11 0.997188)
(1.00602 -0.000643936 -1.46162e-10 0.997362 -9.57111e-11 0.996644)
(1.00334 -3.15014e-05 4.90505e-12 0.998332 -4.47195e-11 0.998333)
(1.00325 -8.46722e-05 1.6054e-11 0.998377 5.59037e-12 0.998378)
(1.00323 -0.000125273 1.14844e-11 0.998385 -1.80344e-11 0.998393)
(1.00319 -0.00018389 -8.58318e-12 0.998405 -4.85081e-11 0.998416)
(1.00314 -0.000221827 -2.46657e-11 0.998424 3.27179e-11 0.998444)
(1.00308 -0.000277689 1.08791e-11 0.998453 7.83782e-11 0.998475)
(1.00302 -0.000311925 4.78253e-11 0.998476 -1.19228e-12 0.998506)
(1.00298 -0.000365424 1.83335e-11 0.998501 -7.43401e-11 0.998524)
(1.00294 -0.000394076 -1.31946e-11 0.998517 -1.53547e-11 0.998546)
(1.0029 -0.000448022 1.35215e-11 0.998544 5.27712e-11 0.998566)
(1.00292 -0.000470282 2.07045e-11 0.998542 -6.56116e-12 0.998548)
(1.00304 -0.000523221 -1.04316e-11 0.998507 -6.56438e-11 0.998461)
(1.00337 -0.000539019 7.08381e-12 0.998384 1.99978e-11 0.998253)
(1.00391 -0.000590335 -3.20663e-11 0.998183 1.60014e-10 0.997915)
(1.00505 -0.000605481 1.1434e-10 0.997755 -1.14716e-11 0.997217)
(1.00601 -0.000644246 -1.46189e-10 0.997372 -9.5534e-11 0.99665)
(1.00326 -3.17141e-05 4.8561e-12 0.998372 -4.24266e-11 0.998373)
(1.00317 -8.58539e-05 1.58501e-11 0.998418 5.22637e-12 0.998419)
(1.00315 -0.000127177 1.13303e-11 0.998425 -1.695e-11 0.998434)
(1.00311 -0.000186228 -8.47254e-12 0.998444 -4.55947e-11 0.998456)
(1.00306 -0.000224975 -2.43461e-11 0.998461 3.06775e-11 0.998483)
(1.003 -0.00028087 1.07465e-11 0.998488 7.2793e-11 0.998514)
(1.00295 -0.000315512 4.73555e-11 0.998511 -1.17735e-12 0.998544)
(1.00291 -0.000368632 1.81638e-11 0.998533 -6.79017e-11 0.998562)
(1.00288 -0.000397804 -1.32151e-11 0.998549 -1.44231e-11 0.998583)
(1.00283 -0.000451341 1.34007e-11 0.998573 4.71056e-11 0.998603)
(1.00285 -0.000473621 2.07307e-11 0.998571 -5.56933e-12 0.998584)
(1.00298 -0.000526089 -1.03186e-11 0.998533 -6.02318e-11 0.998497)
(1.00331 -0.000541454 7.11201e-12 0.998409 1.94691e-11 0.998287)
(1.00386 -0.000592128 -3.19828e-11 0.998207 1.54115e-10 0.997949)
(1.005 -0.000606166 1.13684e-10 0.997777 -1.30647e-11 0.997247)
(1.00599 -0.000645029 -1.46267e-10 0.997381 -9.53565e-11 0.996656)
(1.00318 -3.21357e-05 4.80923e-12 0.998413 -4.00602e-11 0.998414)
(1.00309 -8.75768e-05 1.56301e-11 0.998459 4.85472e-12 0.998461)
(1.00307 -0.000129942 1.11558e-11 0.998465 -1.58506e-11 0.998475)
(1.00303 -0.000189719 -8.35054e-12 0.998484 -4.26395e-11 0.998497)
(1.00298 -0.000229613 -2.39982e-11 0.9985 2.85947e-11 0.998523)
(1.00293 -0.000285867 1.05939e-11 0.998524 6.71329e-11 0.998553)
(1.00288 -0.000321209 4.67817e-11 0.998546 -1.1556e-12 0.998582)
(1.00284 -0.0003741 1.79617e-11 0.998565 -6.13456e-11 0.9986)
(1.00281 -0.000403703 -1.32094e-11 0.99858 -1.3476e-11 0.99862)
(1.00276 -0.000456867 1.32658e-11 0.998602 4.1332e-11 0.998641)
(1.00279 -0.000478931 2.0686e-11 0.998598 -4.52497e-12 0.99862)
(1.00292 -0.000530642 -1.0178e-11 0.998558 -5.47301e-11 0.998532)
(1.00325 -0.00054534 7.16323e-12 0.998434 1.88414e-11 0.99832)
(1.0038 -0.000594973 -3.19057e-11 0.99823 1.48151e-10 0.997983)
(1.00494 -0.000607726 1.12877e-10 0.997798 -1.45928e-11 0.997277)
(1.00598 -0.000645928 -1.46355e-10 0.99739 -9.51693e-11 0.996662)
(1.0031 -3.27809e-05 4.72232e-12 0.998455 -3.76515e-11 0.998455)
(1.003 -8.98257e-05 1.53721e-11 0.998502 4.4707e-12 0.998504)
(1.00298 -0.000133535 1.09609e-11 0.998507 -1.47187e-11 0.998517)
(1.00294 -0.000194332 -8.20568e-12 0.998524 -3.96087e-11 0.998539)
(1.0029 -0.00023564 -2.36001e-11 0.998539 2.64089e-11 0.998564)
(1.00285 -0.000292488 1.04215e-11 0.998561 6.13548e-11 0.998594)
(1.0028 -0.00032885 4.61921e-11 0.998581 -1.08503e-12 0.998621)
(1.00277 -0.000381586 1.77056e-11 0.998598 -5.45991e-11 0.998639)
(1.00274 -0.000411725 -1.31822e-11 0.998612 -1.24492e-11 0.998658)
(1.0027 -0.000464594 1.31156e-11 0.998631 3.54635e-11 0.998679)
(1.00272 -0.000486339 2.05613e-11 0.998626 -3.45168e-12 0.998656)
(1.00285 -0.000537227 -1.00315e-11 0.998584 -4.91494e-11 0.998568)
(1.0032 -0.000550845 7.3222e-12 0.998458 1.81678e-11 0.998354)
(1.00374 -0.000599176 -3.18321e-11 0.998253 1.42131e-10 0.998017)
(1.00489 -0.00061031 1.12005e-10 0.997819 -1.60983e-11 0.997307)
(1.00596 -0.000647191 -1.46485e-10 0.997398 -9.49663e-11 0.996668)
(1.00301 -3.36457e-05 4.64918e-12 0.998498 -3.51787e-11 0.998498)
(1.00291 -9.27159e-05 1.50791e-11 0.998545 4.07558e-12 0.998548)
(1.0029 -0.000138129 1.0734e-11 0.99855 -1.35552e-11 0.99856)
(1.00286 -0.000200352 -8.03929e-12 0.998565 -3.64838e-11 0.998582)
(1.00282 -0.000243339 -2.31195e-11 0.998579 2.42035e-11 0.998606)
(1.00277 -0.000301057 1.02241e-11 0.998599 5.54321e-11 0.998635)
(1.00273 -0.000338628 4.55895e-11 0.998617 -1.03185e-12 0.998661)
(1.0027 -0.000391512 1.73742e-11 0.998631 -4.76993e-11 0.998678)
(1.00266 -0.000422167 -1.31138e-11 0.998644 -1.14327e-11 0.998698)
(1.00263 -0.000474724 1.29551e-11 0.99866 2.94981e-11 0.998717)
(1.00266 -0.000496172 2.02955e-11 0.998654 -2.26082e-12 0.998693)
(1.00279 -0.000545912 -9.87785e-12 0.998608 -4.34527e-11 0.998604)
(1.00314 -0.000558186 7.57562e-12 0.998481 1.74074e-11 0.998388)
(1.00368 -0.000604755 -3.17629e-11 0.998275 1.36001e-10 0.998052)
(1.00484 -0.000613768 1.11048e-10 0.997839 -1.76105e-11 0.997338)