/*--------------------------------*- C++ -*----------------------------------*\
| =========                 |                                                 |
| \\      /  F ield         | foam-extend: Open Source CFD                    |
|  \\    /   O peration     | Version:     4.1-20200408                       |
|   \\  /    A nd           | Web:         http://www.foam-extend.org         |
|    \\/     M anipulation  |                                                 |
\*---------------------------------------------------------------------------*/
FoamFile
{
    version     2.0;
    format      ascii;
    class       volScalarField;
    location    "0.0165000";
    object      rho_0;
}
// * * * * * * * * * * * * * * * * * * * * * * * * * * * * * * * * * * * * * //

dimensions      [1 -3 0 0 0 0 0];

internalField   nonuniform List<scalar> 
1952
(
7821.73
7821.81
7821.89
7822.03
7822.16
7822.36
7822.53
7822.74
7822.92
7823.14
7823.24
7823.15
7822.76
7822.01
7822.55
7821.72
7822.21
7822.29
7822.38
7822.52
7822.66
7822.86
7823.04
7823.25
7823.45
7823.67
7823.79
7823.71
7823.33
7822.51
7822.84
7822.2
7822.66
7822.74
7822.83
7822.97
7823.11
7823.31
7823.5
7823.71
7823.92
7824.14
7824.26
7824.17
7823.76
7822.87
7823.05
7822.65
7823.07
7823.15
7823.24
7823.39
7823.52
7823.72
7823.91
7824.11
7824.32
7824.53
7824.64
7824.51
7824.07
7823.09
7823.12
7823.06
7823.45
7823.53
7823.62
7823.76
7823.9
7824.09
7824.27
7824.47
7824.67
7824.87
7824.96
7824.79
7824.31
7823.26
7823.16
7823.44
7823.8
7823.87
7823.96
7824.1
7824.24
7824.42
7824.59
7824.78
7824.97
7825.15
7825.21
7825.02
7824.49
7823.38
7823.17
7823.78
7824.11
7824.19
7824.27
7824.41
7824.54
7824.72
7824.88
7825.06
7825.23
7825.39
7825.42
7825.2
7824.63
7823.47
7823.16
7824.1
7824.39
7824.47
7824.55
7824.68
7824.81
7824.97
7825.13
7825.29
7825.45
7825.59
7825.6
7825.34
7824.75
7823.55
7823.16
7824.38
7824.65
7824.72
7824.8
7824.92
7825.05
7825.2
7825.34
7825.5
7825.65
7825.77
7825.75
7825.47
7824.85
7823.62
7823.15
7824.64
7824.88
7824.94
7825.02
7825.14
7825.26
7825.41
7825.54
7825.68
7825.82
7825.92
7825.88
7825.59
7824.95
7823.68
7823.14
7824.87
7825.08
7825.15
7825.22
7825.34
7825.45
7825.59
7825.71
7825.84
7825.97
7826.06
7826.01
7825.69
7825.03
7823.74
7823.14
7825.07
7825.28
7825.34
7825.41
7825.52
7825.63
7825.76
7825.87
7825.99
7826.11
7826.19
7826.12
7825.79
7825.12
7823.8
7823.14
7825.27
7825.45
7825.51
7825.58
7825.69
7825.79
7825.92
7826.02
7826.13
7826.24
7826.31
7826.22
7825.88
7825.2
7823.87
7823.15
7825.44
7825.61
7825.67
7825.73
7825.84
7825.94
7826.06
7826.15
7826.26
7826.36
7826.42
7826.32
7825.97
7825.28
7823.93
7823.16
7825.6
7825.76
7825.81
7825.88
7825.98
7826.07
7826.19
7826.28
7826.38
7826.48
7826.52
7826.42
7826.05
7825.37
7824
7823.18
7825.75
7825.9
7825.95
7826.01
7826.11
7826.2
7826.31
7826.4
7826.49
7826.59
7826.62
7826.51
7826.14
7825.45
7824.07
7823.2
7825.89
7826.03
7826.08
7826.14
7826.23
7826.32
7826.43
7826.51
7826.6
7826.69
7826.72
7826.6
7826.22
7825.53
7824.14
7823.23
7826.02
7826.15
7826.19
7826.26
7826.34
7826.43
7826.54
7826.62
7826.7
7826.79
7826.81
7826.69
7826.3
7825.62
7824.22
7823.26
7826.14
7826.26
7826.31
7826.37
7826.45
7826.54
7826.64
7826.72
7826.8
7826.89
7826.9
7826.79
7826.39
7825.71
7824.29
7823.29
7826.25
7826.38
7826.42
7826.48
7826.56
7826.65
7826.75
7826.82
7826.9
7826.99
7827
7826.88
7826.48
7825.79
7824.37
7823.32
7826.37
7826.49
7826.53
7826.59
7826.67
7826.76
7826.85
7826.92
7826.99
7827.08
7827.09
7826.97
7826.56
7825.88
7824.45
7823.36
7826.48
7826.6
7826.63
7826.69
7826.77
7826.85
7826.95
7827.02
7827.09
7827.17
7827.18
7827.06
7826.65
7825.97
7824.53
7823.4
7826.59
7826.7
7826.74
7826.79
7826.87
7826.95
7827.04
7827.11
7827.18
7827.27
7827.27
7827.14
7826.73
7826.05
7824.61
7823.43
7826.69
7826.81
7826.84
7826.9
7826.97
7827.05
7827.14
7827.21
7827.27
7827.36
7827.35
7827.23
7826.82
7826.14
7824.68
7823.47
7826.8
7826.91
7826.94
7827
7827.06
7827.15
7827.23
7827.3
7827.36
7827.45
7827.44
7827.32
7826.9
7826.23
7824.76
7823.5
7826.9
7827.02
7827.05
7827.1
7827.16
7827.24
7827.33
7827.39
7827.45
7827.53
7827.53
7827.4
7826.98
7826.31
7824.83
7823.53
7827.01
7827.13
7827.15
7827.21
7827.27
7827.34
7827.42
7827.49
7827.54
7827.62
7827.61
7827.49
7827.06
7826.39
7824.9
7823.56
7827.11
7827.24
7827.26
7827.31
7827.37
7827.45
7827.52
7827.58
7827.64
7827.71
7827.7
7827.57
7827.13
7826.46
7824.96
7823.58
7827.23
7827.36
7827.38
7827.43
7827.48
7827.55
7827.62
7827.68
7827.73
7827.8
7827.78
7827.64
7827.2
7826.53
7825.02
7823.59
7827.35
7827.48
7827.5
7827.55
7827.59
7827.66
7827.72
7827.78
7827.82
7827.89
7827.86
7827.72
7827.27
7826.6
7825.07
7823.6
7827.47
7827.62
7827.63
7827.68
7827.72
7827.78
7827.83
7827.88
7827.92
7827.98
7827.94
7827.79
7827.33
7826.66
7825.12
7823.6
7827.61
7827.76
7827.77
7827.81
7827.85
7827.9
7827.95
7827.99
7828.02
7828.07
7828.02
7827.87
7827.39
7826.71
7825.15
7823.59
7827.75
7827.92
7827.93
7827.96
7827.99
7828.04
7828.07
7828.1
7828.13
7828.16
7828.1
7827.93
7827.45
7826.76
7825.18
7823.57
7827.91
7828.1
7828.1
7828.13
7828.15
7828.19
7828.21
7828.23
7828.24
7828.26
7828.19
7828
7827.5
7826.8
7825.2
7823.53
7828.09
7828.3
7828.29
7828.32
7828.33
7828.36
7828.37
7828.37
7828.37
7828.37
7828.27
7828.07
7827.55
7826.83
7825.2
7823.48
7828.29
7828.53
7828.51
7828.53
7828.53
7828.54
7828.54
7828.52
7828.5
7828.49
7828.37
7828.14
7827.59
7826.85
7825.2
7823.41
7828.52
7828.78
7828.76
7828.77
7828.76
7828.76
7828.73
7828.7
7828.66
7828.62
7828.47
7828.22
7827.63
7826.87
7825.18
7823.32
7828.78
7829.08
7829.05
7829.05
7829.02
7829.01
7828.96
7828.91
7828.84
7828.77
7828.59
7828.3
7827.68
7826.88
7825.15
7823.21
7829.08
7829.43
7829.39
7829.38
7829.34
7829.3
7829.23
7829.15
7829.06
7828.95
7828.73
7828.4
7827.73
7826.89
7825.1
7823.08
7829.43
7829.83
7829.79
7829.76
7829.7
7829.64
7829.55
7829.44
7829.31
7829.16
7828.89
7828.51
7827.79
7826.9
7825.05
7822.93
7829.83
7830.29
7830.25
7830.21
7830.13
7830.04
7829.92
7829.78
7829.61
7829.41
7829.1
7828.66
7827.87
7826.92
7824.99
7822.76
7830.3
7830.83
7830.78
7830.72
7830.63
7830.52
7830.37
7830.19
7829.98
7829.73
7829.36
7828.84
7827.99
7826.95
7824.93
7822.56
7830.85
7831.46
7831.4
7831.33
7831.22
7831.08
7830.9
7830.68
7830.43
7830.12
7829.68
7829.08
7828.14
7827
7824.88
7822.35
7831.48
7832.19
7832.12
7832.04
7831.91
7831.74
7831.53
7831.27
7830.97
7830.59
7830.08
7829.39
7828.35
7827.09
7824.84
7822.13
7832.21
7833.02
7832.94
7832.85
7832.7
7832.52
7832.27
7831.98
7831.63
7831.18
7830.59
7829.8
7828.65
7827.25
7824.84
7821.91
7833.04
7833.96
7833.89
7833.78
7833.62
7833.42
7833.15
7832.82
7832.42
7831.91
7831.24
7830.34
7829.07
7827.5
7824.9
7821.7
7833.98
7835.03
7834.95
7834.84
7834.68
7834.46
7834.17
7833.82
7833.38
7832.82
7832.06
7831.06
7829.65
7827.89
7825.07
7821.53
7835.05
7836.22
7836.15
7836.04
7835.88
7835.66
7835.36
7835
7834.53
7833.92
7833.11
7832
7830.45
7828.48
7825.4
7821.44
7836.24
7837.53
7837.47
7837.37
7837.22
7837.02
7836.73
7836.37
7835.9
7835.27
7834.41
7833.22
7831.56
7829.38
7826.01
7821.52
7837.55
7838.97
7838.92
7838.84
7838.71
7838.54
7838.27
7837.96
7837.51
7836.9
7836.03
7834.82
7833.07
7830.73
7827.1
7822.08
7838.98
7840.51
7840.48
7840.43
7840.34
7840.21
7840
7839.75
7839.37
7838.83
7838.01
7836.84
7835.11
7832.73
7828.99
7823.67
7840.51
7842.13
7842.13
7842.12
7842.08
7842.02
7841.89
7841.74
7841.46
7841.05
7840.36
7839.33
7837.72
7835.46
7831.78
7826.4
7842.12
7843.8
7843.83
7843.87
7843.9
7843.93
7843.91
7843.9
7843.77
7843.55
7843.06
7842.29
7840.93
7838.96
7835.57
7830.44
7843.78
7845.48
7845.55
7845.64
7845.75
7845.89
7846
7846.17
7846.24
7846.28
7846.07
7845.67
7844.69
7843.22
7840.33
7835.78
7845.45
7847.13
7847.24
7847.4
7847.6
7847.85
7848.12
7848.48
7848.79
7849.14
7849.29
7849.35
7848.91
7848.12
7845.96
7842.34
7847.08
7848.7
7848.85
7849.07
7849.37
7849.75
7850.18
7850.75
7851.31
7852.01
7852.57
7853.19
7853.39
7853.48
7852.28
7849.94
7848.64
7850.13
7850.32
7850.61
7850.99
7851.49
7852.08
7852.86
7853.69
7854.74
7855.73
7856.96
7857.89
7859.05
7859.07
7858.55
7850.06
7851.38
7851.6
7851.95
7852.41
7853.01
7853.74
7854.7
7855.76
7857.14
7858.55
7860.37
7862.05
7864.33
7865.74
7867.4
7851.3
7852.4
7852.64
7853.03
7853.55
7854.23
7855.07
7856.17
7857.42
7859.04
7860.8
7863.1
7865.44
7868.67
7871.36
7875.28
7852.31
7853.16
7853.42
7853.84
7854.4
7855.13
7856.02
7857.18
7858.52
7860.25
7862.18
7864.76
7867.57
7871.63
7875.66
7882.57
7853.06
7853.59
7853.86
7854.28
7854.85
7855.59
7856.49
7857.66
7859.01
7860.76
7862.73
7865.38
7868.33
7872.5
7876.7
7883.54
7853.49
7853.8
7854.08
7854.5
7855.09
7855.84
7856.78
7857.98
7859.4
7861.22
7863.27
7865.96
7868.91
7872.71
7876.43
7881.28
7853.71
7854.26
7854.56
7854.99
7855.61
7856.4
7857.4
7858.66
7860.16
7862.07
7864.2
7866.85
7869.6
7872.63
7874.97
7877.6
7854.17
7855.17
7855.48
7855.92
7856.59
7857.45
7858.53
7859.86
7861.43
7863.39
7865.48
7867.79
7869.67
7871.41
7872.25
7873.56
7855.08
7856.51
7856.86
7857.33
7858.06
7859.02
7860.23
7861.62
7863.17
7864.84
7866.29
7867.57
7868.31
7868.9
7868.98
7869.5
7856.41
7858.59
7859
7859.5
7860.24
7861.09
7862.1
7863.1
7864.04
7864.85
7865.43
7865.73
7865.8
7865.88
7865.8
7865.76
7858.47
7860.41
7860.72
7861.06
7861.5
7861.92
7862.38
7862.75
7863.02
7863.17
7863.23
7863.2
7863.19
7863.1
7862.79
7862.4
7860.3
7860.22
7860.35
7860.47
7860.62
7860.76
7860.89
7860.96
7860.99
7861.01
7861.03
7860.94
7860.76
7860.47
7860.01
7859.39
7860.18
7858.87
7858.91
7858.92
7858.96
7859.03
7859.11
7859.16
7859.16
7859.09
7858.96
7858.75
7858.46
7858.05
7857.49
7856.73
7858.86
7857.44
7857.48
7857.48
7857.51
7857.5
7857.49
7857.43
7857.34
7857.19
7857
7856.7
7856.34
7855.84
7855.21
7854.37
7857.43
7856.02
7856.02
7856
7855.97
7855.93
7855.87
7855.76
7855.62
7855.41
7855.15
7854.8
7854.38
7853.82
7853.17
7852.3
7856.02
7854.61
7854.6
7854.56
7854.51
7854.43
7854.32
7854.17
7853.98
7853.73
7853.43
7853.04
7852.59
7852
7851.34
7850.47
7854.62
7853.23
7853.21
7853.15
7853.08
7852.97
7852.84
7852.66
7852.44
7852.16
7851.83
7851.42
7850.95
7850.36
7849.7
7848.85
7853.25
7851.9
7851.87
7851.8
7851.71
7851.59
7851.43
7851.23
7851
7850.7
7850.36
7849.93
7849.47
7848.88
7848.25
7847.43
7851.92
7850.63
7850.59
7850.51
7850.41
7850.27
7850.11
7849.89
7849.65
7849.34
7849
7848.58
7848.12
7847.55
7846.95
7846.17
7850.65
7849.41
7849.36
7849.28
7849.18
7849.03
7848.86
7848.64
7848.39
7848.09
7847.75
7847.34
7846.89
7846.35
7845.78
7845.05
7849.43
7848.26
7848.21
7848.13
7848.02
7847.87
7847.7
7847.48
7847.23
7846.93
7846.6
7846.2
7845.78
7845.27
7844.74
7844.06
7848.28
7847.17
7847.12
7847.04
7846.93
7846.78
7846.61
7846.4
7846.16
7845.86
7845.55
7845.17
7844.78
7844.3
7843.8
7843.17
7847.19
7846.15
7846.1
7846.02
7845.91
7845.77
7845.6
7845.39
7845.16
7844.88
7844.58
7844.23
7843.86
7843.41
7842.96
7842.38
7846.17
7845.19
7845.14
7845.06
7844.95
7844.82
7844.66
7844.46
7844.24
7843.98
7843.7
7843.37
7843.02
7842.61
7842.2
7841.66
7845.21
7844.3
7844.24
7844.17
7844.07
7843.94
7843.79
7843.6
7843.39
7843.15
7842.89
7842.58
7842.26
7841.89
7841.5
7841.01
7844.32
7843.46
7843.41
7843.34
7843.24
7843.12
7842.98
7842.8
7842.61
7842.38
7842.14
7841.86
7841.57
7841.22
7840.87
7840.42
7843.48
7842.68
7842.63
7842.57
7842.48
7842.36
7842.23
7842.07
7841.89
7841.68
7841.45
7841.19
7840.93
7840.61
7840.3
7839.89
7842.7
7841.96
7841.91
7841.85
7841.76
7841.66
7841.53
7841.38
7841.22
7841.02
7840.82
7840.58
7840.34
7840.05
7839.76
7839.39
7841.97
7841.29
7841.24
7841.19
7841.1
7841.01
7840.89
7840.75
7840.6
7840.42
7840.23
7840.02
7839.8
7839.54
7839.28
7838.93
7841.3
7840.66
7840.61
7840.56
7840.49
7840.4
7840.29
7840.17
7840.02
7839.86
7839.69
7839.49
7839.29
7839.06
7838.82
7838.51
7840.67
7840.07
7840.03
7839.99
7839.92
7839.84
7839.74
7839.62
7839.49
7839.34
7839.19
7839.01
7838.83
7838.62
7838.4
7838.12
7840.08
7839.53
7839.49
7839.45
7839.38
7839.31
7839.22
7839.11
7839
7838.86
7838.72
7838.56
7838.4
7838.21
7838.01
7837.75
7839.54
7839.02
7838.99
7838.95
7838.89
7838.82
7838.74
7838.64
7838.54
7838.41
7838.29
7838.14
7837.99
7837.82
7837.64
7837.4
7839.03
7838.55
7838.52
7838.48
7838.43
7838.37
7838.29
7838.2
7838.11
7838
7837.88
7837.75
7837.61
7837.46
7837.3
7837.07
7838.56
7838.11
7838.08
7838.05
7838
7837.94
7837.87
7837.79
7837.7
7837.6
7837.5
7837.38
7837.26
7837.12
7836.97
7836.76
7838.11
7837.69
7837.67
7837.64
7837.59
7837.54
7837.48
7837.41
7837.33
7837.24
7837.14
7837.03
7836.93
7836.8
7836.66
7836.47
7837.7
7837.31
7837.28
7837.26
7837.22
7837.17
7837.11
7837.05
7836.97
7836.89
7836.81
7836.71
7836.61
7836.49
7836.37
7836.19
7837.31
7836.94
7836.92
7836.9
7836.86
7836.82
7836.77
7836.71
7836.64
7836.57
7836.49
7836.4
7836.31
7836.21
7836.09
7835.93
7836.95
7836.6
7836.58
7836.56
7836.53
7836.49
7836.44
7836.39
7836.33
7836.26
7836.19
7836.11
7836.03
7835.94
7835.83
7835.67
7836.61
7836.28
7836.27
7836.25
7836.22
7836.18
7836.14
7836.09
7836.04
7835.97
7835.91
7835.84
7835.76
7835.68
7835.58
7835.43
7836.29
7835.98
7835.97
7835.95
7835.92
7835.89
7835.85
7835.81
7835.76
7835.7
7835.64
7835.58
7835.51
7835.43
7835.34
7835.2
7835.99
7835.7
7835.68
7835.67
7835.64
7835.61
7835.58
7835.54
7835.49
7835.44
7835.39
7835.33
7835.27
7835.19
7835.11
7834.98
7835.7
7835.43
7835.42
7835.4
7835.38
7835.35
7835.32
7835.28
7835.24
7835.2
7835.15
7835.09
7835.04
7834.97
7834.89
7834.77
7835.44
7835.18
7835.17
7835.15
7835.13
7835.11
7835.08
7835.04
7835.01
7834.96
7834.92
7834.87
7834.82
7834.75
7834.68
7834.56
7835.18
7834.94
7834.93
7834.92
7834.9
7834.87
7834.85
7834.82
7834.78
7834.74
7834.7
7834.65
7834.6
7834.55
7834.48
7834.36
7834.95
7834.72
7834.71
7834.69
7834.67
7834.65
7834.63
7834.6
7834.57
7834.53
7834.49
7834.45
7834.4
7834.35
7834.28
7834.17
7834.72
7834.5
7834.49
7834.48
7834.46
7834.44
7834.42
7834.39
7834.36
7834.33
7834.29
7834.25
7834.21
7834.16
7834.09
7833.99
7834.51
7834.3
7834.29
7834.28
7834.27
7834.25
7834.22
7834.2
7834.17
7834.14
7834.1
7834.06
7834.02
7833.98
7833.91
7833.81
7834.31
7834.11
7834.1
7834.09
7834.08
7834.06
7834.04
7834.01
7833.98
7833.95
7833.92
7833.88
7833.85
7833.8
7833.74
7833.64
7834.12
7833.93
7833.92
7833.92
7833.9
7833.88
7833.86
7833.84
7833.81
7833.78
7833.75
7833.71
7833.68
7833.63
7833.57
7833.48
7833.94
7833.77
7833.76
7833.75
7833.73
7833.72
7833.69
7833.67
7833.64
7833.62
7833.58
7833.55
7833.51
7833.47
7833.41
7833.31
7833.77
7833.61
7833.6
7833.59
7833.57
7833.56
7833.54
7833.51
7833.49
7833.46
7833.43
7833.39
7833.36
7833.31
7833.25
7833.16
7833.61
7833.46
7833.45
7833.44
7833.43
7833.41
7833.39
7833.37
7833.34
7833.31
7833.28
7833.24
7833.21
7833.16
7833.1
7833.01
7833.46
7833.32
7833.31
7833.3
7833.29
7833.27
7833.25
7833.23
7833.2
7833.17
7833.14
7833.1
7833.06
7833.02
7832.96
7832.86
7833.32
7833.19
7833.19
7833.18
7833.16
7833.14
7833.12
7833.1
7833.07
7833.04
7833.01
7832.97
7832.93
7832.88
7832.82
7832.72
7833.2
7833.08
7833.07
7833.06
7833.04
7833.03
7833.01
7832.98
7832.95
7832.92
7832.88
7832.84
7832.8
7832.75
7832.69
7832.58
7833.08
7832.97
7832.96
7832.95
7832.94
7832.92
7832.9
7832.87
7832.84
7832.81
7832.77
7832.73
7832.68
7832.63
7832.56
7832.45
7832.97
7832.88
7832.87
7832.86
7832.84
7832.82
7832.8
7832.77
7832.74
7832.71
7832.67
7832.62
7832.57
7832.52
7832.44
7832.32
7832.88
7832.79
7832.78
7832.77
7832.76
7832.74
7832.71
7832.69
7832.66
7832.62
7832.58
7832.53
7832.48
7832.41
7832.33
7832.2
7832.79
7832.72
7832.71
7832.7
7832.68
7832.66
7832.64
7832.61
7832.58
7832.54
7832.5
7832.45
7832.39
7832.32
7832.23
7832.09
7832.72
7832.65
7832.64
7832.63
7832.62
7832.6
7832.58
7832.55
7832.52
7832.48
7832.44
7832.39
7832.32
7832.25
7832.15
7831.99
7832.65
7832.6
7832.59
7832.58
7832.57
7832.55
7832.53
7832.5
7832.47
7832.43
7832.39
7832.34
7832.27
7832.19
7832.08
7831.91
7832.6
7832.55
7832.55
7832.54
7832.53
7832.51
7832.49
7832.46
7832.44
7832.4
7832.36
7832.31
7832.25
7832.17
7832.05
7831.86
7832.56
7832.52
7832.51
7832.5
7832.49
7832.48
7832.46
7832.44
7832.41
7832.38
7832.35
7832.3
7832.26
7832.19
7832.1
7831.96
7832.52
7832.5
7832.5
7832.49
7832.48
7832.47
7832.45
7832.43
7832.41
7832.38
7832.35
7832.31
7832.27
7832.23
7832.17
7832.07
7832.5
7832.5
7832.5
7832.49
7832.48
7832.47
7832.45
7832.43
7832.41
7832.38
7832.35
7832.31
7832.27
7832.23
7832.17
7832.07
7832.5
)
;

boundaryField
{
    wireUpstream
    {
        type            calculated;
        value           nonuniform List<scalar> 
16
(
7832.48
7832.48
7832.47
7832.46
7832.45
7832.44
7832.42
7832.4
7832.37
7832.35
7832.32
7832.29
7832.25
7832.23
7832.21
7832.49
)
;
    }
    wireDownstream
    {
        type            calculated;
        value           nonuniform List<scalar> 
16
(
7821.73
7821.81
7821.89
7822.03
7822.16
7822.36
7822.53
7822.74
7822.92
7823.14
7823.24
7823.15
7822.76
7822.01
7822.55
7821.72
)
;
    }
    wireTopContact
    {
        type            calculated;
        value           nonuniform List<scalar> 
122
(
7822.89
7823.08
7823.16
7823.2
7823.21
7823.21
7823.21
7823.2
7823.2
7823.19
7823.2
7823.2
7823.22
7823.23
7823.25
7823.28
7823.31
7823.34
7823.37
7823.41
7823.45
7823.48
7823.52
7823.55
7823.58
7823.6
7823.62
7823.64
7823.64
7823.64
7823.63
7823.6
7823.56
7823.51
7823.44
7823.35
7823.24
7823.1
7822.95
7822.77
7822.58
7822.37
7822.15
7821.93
7821.73
7821.58
7821.52
7821.62
7822.16
7823.77
7826.53
7830.61
7835.96
7842.52
7850.06
7858.67
7867.47
7875.08
7882.81
7883.4
7881.18
7877.64
7873.52
7869.46
7865.75
7862.4
7859.39
7856.74
7854.38
7852.3
7850.47
7848.85
7847.42
7846.16
7845.04
7844.05
7843.16
7842.36
7841.64
7841
7840.41
7839.87
7839.37
7838.92
7838.5
7838.1
7837.73
7837.39
7837.06
7836.75
7836.46
7836.18
7835.92
7835.66
7835.42
7835.19
7834.97
7834.76
7834.55
7834.36
7834.17
7833.98
7833.81
7833.63
7833.47
7833.31
7833.15
7833
7832.85
7832.71
7832.58
7832.44
7832.32
7832.2
7832.09
7831.99
7831.91
7831.86
7831.95
7832.02
7832.02
7822.64
)
;
    }
    front
    {
        type            wedge;
    }
    back
    {
        type            wedge;
    }
}


// ************************************************************************* //
