/*--------------------------------*- C++ -*----------------------------------*\
| =========                 |                                                 |
| \\      /  F ield         | foam-extend: Open Source CFD                    |
|  \\    /   O peration     | Version:     4.1-20200408                       |
|   \\  /    A nd           | Web:         http://www.foam-extend.org         |
|    \\/     M anipulation  |                                                 |
\*---------------------------------------------------------------------------*/
FoamFile
{
    version     2.0;
    format      ascii;
    class       volVectorField;
    location    "0.0285000";
    object      DU;
}
// * * * * * * * * * * * * * * * * * * * * * * * * * * * * * * * * * * * * * //

dimensions      [0 1 0 0 0 0 0];

internalField   nonuniform List<vector> 
1952
(
(5.0001e-05 1.67592e-09 0)
(5.0001e-05 2.73035e-09 0)
(5.0001e-05 3.72349e-09 0)
(5.0001e-05 4.70956e-09 0)
(5.00009e-05 5.63299e-09 0)
(5.00009e-05 6.45706e-09 0)
(5.00009e-05 7.31239e-09 0)
(5.00008e-05 7.92923e-09 0)
(5.00007e-05 8.72155e-09 0)
(5.00006e-05 9.14889e-09 0)
(5.00005e-05 9.85632e-09 0)
(5.00004e-05 1.00682e-08 0)
(5.00001e-05 1.06112e-08 0)
(4.99994e-05 1.05968e-08 0)
(4.99975e-05 1.06287e-08 0)
(5.0001e-05 7.22347e-10 0)
(5.00023e-05 1.20707e-09 0)
(5.00023e-05 1.95187e-09 0)
(5.00023e-05 2.67967e-09 0)
(5.00022e-05 3.37173e-09 0)
(5.00021e-05 4.03952e-09 0)
(5.0002e-05 4.62323e-09 0)
(5.00019e-05 5.20828e-09 0)
(5.00017e-05 5.64758e-09 0)
(5.00016e-05 6.13323e-09 0)
(5.00013e-05 6.41991e-09 0)
(5.00011e-05 6.76637e-09 0)
(5.00007e-05 6.84472e-09 0)
(5.00003e-05 6.9774e-09 0)
(4.99995e-05 6.78931e-09 0)
(4.99983e-05 6.64105e-09 0)
(5.00024e-05 5.18547e-10 0)
(5.00029e-05 9.32602e-10 0)
(5.00029e-05 1.50068e-09 0)
(5.00028e-05 2.06938e-09 0)
(5.00027e-05 2.59486e-09 0)
(5.00026e-05 3.11237e-09 0)
(5.00024e-05 3.55735e-09 0)
(5.00023e-05 3.99184e-09 0)
(5.0002e-05 4.32761e-09 0)
(5.00019e-05 4.65676e-09 0)
(5.00015e-05 4.86131e-09 0)
(5.00013e-05 5.04686e-09 0)
(5.00007e-05 5.08102e-09 0)
(5.00002e-05 5.0911e-09 0)
(4.99993e-05 4.94132e-09 0)
(4.99981e-05 4.81618e-09 0)
(5.0003e-05 3.99809e-10 0)
(5.00033e-05 7.02846e-10 0)
(5.00032e-05 1.12887e-09 0)
(5.00032e-05 1.55728e-09 0)
(5.0003e-05 1.94713e-09 0)
(5.00029e-05 2.33213e-09 0)
(5.00027e-05 2.65614e-09 0)
(5.00026e-05 2.96807e-09 0)
(5.00022e-05 3.20228e-09 0)
(5.00021e-05 3.41613e-09 0)
(5.00016e-05 3.53758e-09 0)
(5.00013e-05 3.62791e-09 0)
(5.00007e-05 3.6156e-09 0)
(5.00002e-05 3.58254e-09 0)
(4.99993e-05 3.45992e-09 0)
(4.99984e-05 3.41168e-09 0)
(5.00033e-05 3.0123e-10 0)
(5.00035e-05 5.09448e-10 0)
(5.00034e-05 8.16614e-10 0)
(5.00033e-05 1.12586e-09 0)
(5.00031e-05 1.40225e-09 0)
(5.0003e-05 1.6753e-09 0)
(5.00028e-05 1.8974e-09 0)
(5.00026e-05 2.1086e-09 0)
(5.00023e-05 2.25738e-09 0)
(5.00021e-05 2.38656e-09 0)
(5.00016e-05 2.44628e-09 0)
(5.00013e-05 2.48051e-09 0)
(5.00007e-05 2.44663e-09 0)
(5.00001e-05 2.40607e-09 0)
(4.99994e-05 2.31869e-09 0)
(4.99985e-05 2.30342e-09 0)
(5.00035e-05 2.18314e-10 0)
(5.00035e-05 3.48214e-10 0)
(5.00034e-05 5.5637e-10 0)
(5.00033e-05 7.66245e-10 0)
(5.00031e-05 9.48466e-10 0)
(5.0003e-05 1.12916e-09 0)
(5.00027e-05 1.26755e-09 0)
(5.00026e-05 1.39878e-09 0)
(5.00022e-05 1.47971e-09 0)
(5.0002e-05 1.54678e-09 0)
(5.00015e-05 1.56165e-09 0)
(5.00012e-05 1.56194e-09 0)
(5.00006e-05 1.51745e-09 0)
(5.00001e-05 1.48035e-09 0)
(4.99994e-05 1.42077e-09 0)
(4.99987e-05 1.43367e-09 0)
(5.00035e-05 1.49205e-10 0)
(5.00033e-05 2.15217e-10 0)
(5.00032e-05 3.41807e-10 0)
(5.00032e-05 4.70226e-10 0)
(5.0003e-05 5.75502e-10 0)
(5.00029e-05 6.81673e-10 0)
(5.00026e-05 7.53059e-10 0)
(5.00025e-05 8.21971e-10 0)
(5.00021e-05 8.5114e-10 0)
(5.00018e-05 8.73912e-10 0)
(5.00014e-05 8.58792e-10 0)
(5.0001e-05 8.39603e-10 0)
(5.00005e-05 7.92861e-10 0)
(5e-05 7.62427e-10 0)
(4.99994e-05 7.23694e-10 0)
(4.99989e-05 7.48852e-10 0)
(5.00034e-05 9.21927e-11 0)
(5.00031e-05 1.06624e-10 0)
(5.0003e-05 1.66728e-10 0)
(5.0003e-05 2.29232e-10 0)
(5.00028e-05 2.72494e-10 0)
(5.00027e-05 3.19496e-10 0)
(5.00024e-05 3.38323e-10 0)
(5.00023e-05 3.59597e-10 0)
(5.00018e-05 3.5032e-10 0)
(5.00017e-05 3.41663e-10 0)
(5.00012e-05 3.06801e-10 0)
(5.00009e-05 2.762e-10 0)
(5.00004e-05 2.30554e-10 0)
(5e-05 2.06171e-10 0)
(4.99995e-05 1.82036e-10 0)
(4.99991e-05 2.13274e-10 0)
(5.00032e-05 4.56317e-11 0)
(5.00029e-05 1.90121e-11 0)
(5.00028e-05 2.56143e-11 0)
(5.00027e-05 3.55062e-11 0)
(5.00025e-05 2.95274e-11 0)
(5.00024e-05 3.0292e-11 0)
(5.00021e-05 8.60903e-12 0)
(5.0002e-05 -5.94704e-12 0)
(5.00016e-05 -4.31859e-11 0)
(5.00014e-05 -7.3765e-11 0)
(5.0001e-05 -1.21128e-10 0)
(5.00007e-05 -1.58254e-10 0)
(5.00003e-05 -2.01382e-10 0)
(4.99999e-05 -2.21475e-10 0)
(4.99995e-05 -2.36304e-10 0)
(4.99992e-05 -2.04965e-10 0)
(5.00029e-05 8.05525e-12 0)
(5.00025e-05 -5.09973e-11 0)
(5.00024e-05 -8.70117e-11 0)
(5.00024e-05 -1.18687e-10 0)
(5.00022e-05 -1.63302e-10 0)
(5.00021e-05 -1.98278e-10 0)
(5.00018e-05 -2.50747e-10 0)
(5.00017e-05 -2.91973e-10 0)
(5.00013e-05 -3.49232e-10 0)
(5.00012e-05 -3.95073e-10 0)
(5.00008e-05 -4.50213e-10 0)
(5.00006e-05 -4.91205e-10 0)
(5.00001e-05 -5.31712e-10 0)
(4.99999e-05 -5.49355e-10 0)
(4.99995e-05 -5.58734e-10 0)
(4.99992e-05 -5.30379e-10 0)
(5.00025e-05 -2.19811e-11 0)
(5.00021e-05 -1.06524e-10 0)
(5.0002e-05 -1.76225e-10 0)
(5.0002e-05 -2.40476e-10 0)
(5.00018e-05 -3.15157e-10 0)
(5.00018e-05 -3.77521e-10 0)
(5.00015e-05 -4.53176e-10 0)
(5.00014e-05 -5.14094e-10 0)
(5.0001e-05 -5.8554e-10 0)
(5.00009e-05 -6.41957e-10 0)
(5.00005e-05 -7.01822e-10 0)
(5.00004e-05 -7.45188e-10 0)
(5e-05 -7.83468e-10 0)
(4.99998e-05 -8.00224e-10 0)
(4.99995e-05 -8.07e-10 0)
(4.99993e-05 -7.83689e-10 0)
(5.00021e-05 -4.5812e-11 0)
(5.00017e-05 -1.50495e-10 0)
(5.00016e-05 -2.46776e-10 0)
(5.00016e-05 -3.36527e-10 0)
(5.00014e-05 -4.34548e-10 0)
(5.00014e-05 -5.17904e-10 0)
(5.00011e-05 -6.10955e-10 0)
(5.00011e-05 -6.86468e-10 0)
(5.00007e-05 -7.6791e-10 0)
(5.00007e-05 -8.31763e-10 0)
(5.00003e-05 -8.9444e-10 0)
(5.00002e-05 -9.3943e-10 0)
(4.99998e-05 -9.76023e-10 0)
(4.99997e-05 -9.9302e-10 0)
(4.99994e-05 -9.99053e-10 0)
(4.99993e-05 -9.81657e-10 0)
(5.00017e-05 -6.46896e-11 0)
(5.00013e-05 -1.85552e-10 0)
(5.00012e-05 -3.02957e-10 0)
(5.00012e-05 -4.12807e-10 0)
(5.0001e-05 -5.29092e-10 0)
(5.0001e-05 -6.28677e-10 0)
(5.00008e-05 -7.34897e-10 0)
(5.00008e-05 -8.21364e-10 0)
(5.00004e-05 -9.09914e-10 0)
(5.00004e-05 -9.79112e-10 0)
(5.00001e-05 -1.04345e-09 0)
(5e-05 -1.08966e-09 0)
(4.99997e-05 -1.12506e-09 0)
(4.99996e-05 -1.14298e-09 0)
(4.99994e-05 -1.14939e-09 0)
(4.99993e-05 -1.13806e-09 0)
(5.00013e-05 -7.9745e-11 0)
(5.00008e-05 -2.14058e-10 0)
(5.00008e-05 -3.48595e-10 0)
(5.00008e-05 -4.74635e-10 0)
(5.00006e-05 -6.05519e-10 0)
(5.00006e-05 -7.17994e-10 0)
(5.00004e-05 -8.34412e-10 0)
(5.00004e-05 -9.2941e-10 0)
(5.00001e-05 -1.02314e-09 0)
(5.00002e-05 -1.0964e-09 0)
(4.99998e-05 -1.16172e-09 0)
(4.99998e-05 -1.20896e-09 0)
(4.99995e-05 -1.2435e-09 0)
(4.99995e-05 -1.26261e-09 0)
(4.99993e-05 -1.26989e-09 0)
(4.99992e-05 -1.2642e-09 0)
(5.00009e-05 -9.19905e-11 0)
(5.00004e-05 -2.38073e-10 0)
(5.00003e-05 -3.87023e-10 0)
(5.00003e-05 -5.26608e-10 0)
(5.00002e-05 -6.69642e-10 0)
(5.00003e-05 -7.92825e-10 0)
(5e-05 -9.17517e-10 0)
(5.00001e-05 -1.01955e-09 0)
(4.99998e-05 -1.11728e-09 0)
(4.99999e-05 -1.19388e-09 0)
(4.99996e-05 -1.25981e-09 0)
(4.99996e-05 -1.30792e-09 0)
(4.99994e-05 -1.34177e-09 0)
(4.99994e-05 -1.36199e-09 0)
(4.99992e-05 -1.37013e-09 0)
(4.99992e-05 -1.36917e-09 0)
(5.00004e-05 -1.02309e-10 0)
(4.99999e-05 -2.59363e-10 0)
(4.99999e-05 -4.21092e-10 0)
(4.99999e-05 -5.72659e-10 0)
(4.99998e-05 -7.26398e-10 0)
(4.99999e-05 -8.59081e-10 0)
(4.99997e-05 -9.90949e-10 0)
(4.99998e-05 -1.09928e-09 0)
(4.99995e-05 -1.20039e-09 0)
(4.99996e-05 -1.28e-09 0)
(4.99994e-05 -1.34636e-09 0)
(4.99994e-05 -1.39522e-09 0)
(4.99992e-05 -1.42836e-09 0)
(4.99992e-05 -1.44927e-09 0)
(4.99991e-05 -1.45788e-09 0)
(4.99991e-05 -1.46041e-09 0)
(4.99999e-05 -1.11457e-10 0)
(4.99994e-05 -2.79398e-10 0)
(4.99994e-05 -4.53171e-10 0)
(4.99994e-05 -6.16043e-10 0)
(4.99993e-05 -7.79863e-10 0)
(4.99994e-05 -9.21622e-10 0)
(4.99993e-05 -1.06022e-09 0)
(4.99994e-05 -1.17469e-09 0)
(4.99992e-05 -1.27895e-09 0)
(4.99993e-05 -1.36156e-09 0)
(4.99991e-05 -1.42829e-09 0)
(4.99992e-05 -1.47774e-09 0)
(4.9999e-05 -1.50997e-09 0)
(4.99991e-05 -1.5309e-09 0)
(4.9999e-05 -1.53924e-09 0)
(4.9999e-05 -1.5437e-09 0)
(4.99994e-05 -1.20066e-10 0)
(4.99989e-05 -2.99373e-10 0)
(4.99989e-05 -4.85192e-10 0)
(4.9999e-05 -6.59407e-10 0)
(4.99989e-05 -8.3335e-10 0)
(4.9999e-05 -9.84388e-10 0)
(4.99989e-05 -1.12979e-09 0)
(4.99991e-05 -1.25071e-09 0)
(4.99989e-05 -1.35823e-09 0)
(4.99991e-05 -1.44403e-09 0)
(4.99989e-05 -1.51113e-09 0)
(4.9999e-05 -1.56098e-09 0)
(4.99989e-05 -1.59194e-09 0)
(4.9999e-05 -1.61199e-09 0)
(4.99988e-05 -1.61904e-09 0)
(4.99989e-05 -1.62363e-09 0)
(4.99989e-05 -1.2865e-10 0)
(4.99984e-05 -3.20195e-10 0)
(4.99984e-05 -5.18608e-10 0)
(4.99985e-05 -7.04757e-10 0)
(4.99984e-05 -8.89342e-10 0)
(4.99986e-05 -1.05035e-09 0)
(4.99985e-05 -1.203e-09 0)
(4.99987e-05 -1.33103e-09 0)
(4.99985e-05 -1.4421e-09 0)
(4.99988e-05 -1.53148e-09 0)
(4.99986e-05 -1.59897e-09 0)
(4.99988e-05 -1.64897e-09 0)
(4.99987e-05 -1.67819e-09 0)
(4.99988e-05 -1.69624e-09 0)
(4.99987e-05 -1.70077e-09 0)
(4.99988e-05 -1.70342e-09 0)
(4.99984e-05 -1.37595e-10 0)
(4.99978e-05 -3.42502e-10 0)
(4.99978e-05 -5.54456e-10 0)
(4.9998e-05 -7.53518e-10 0)
(4.99979e-05 -9.49626e-10 0)
(4.99981e-05 -1.12166e-09 0)
(4.9998e-05 -1.28226e-09 0)
(4.99983e-05 -1.41834e-09 0)
(4.99982e-05 -1.53343e-09 0)
(4.99985e-05 -1.62688e-09 0)
(4.99984e-05 -1.69483e-09 0)
(4.99986e-05 -1.74471e-09 0)
(4.99985e-05 -1.7716e-09 0)
(4.99987e-05 -1.78636e-09 0)
(4.99986e-05 -1.78691e-09 0)
(4.99986e-05 -1.78534e-09 0)
(4.99978e-05 -1.47178e-10 0)
(4.99973e-05 -3.66615e-10 0)
(4.99973e-05 -5.93251e-10 0)
(4.99974e-05 -8.06426e-10 0)
(4.99974e-05 -1.0151e-09 0)
(4.99976e-05 -1.19942e-09 0)
(4.99976e-05 -1.36883e-09 0)
(4.99979e-05 -1.51406e-09 0)
(4.99978e-05 -1.63373e-09 0)
(4.99982e-05 -1.73183e-09 0)
(4.99981e-05 -1.80032e-09 0)
(4.99984e-05 -1.84974e-09 0)
(4.99983e-05 -1.87364e-09 0)
(4.99985e-05 -1.88364e-09 0)
(4.99985e-05 -1.87861e-09 0)
(4.99985e-05 -1.87028e-09 0)
(4.99972e-05 -1.57536e-10 0)
(4.99966e-05 -3.92554e-10 0)
(4.99967e-05 -6.3504e-10 0)
(4.99968e-05 -8.6357e-10 0)
(4.99968e-05 -1.08589e-09 0)
(4.99971e-05 -1.28387e-09 0)
(4.99971e-05 -1.46296e-09 0)
(4.99975e-05 -1.6186e-09 0)
(4.99975e-05 -1.74342e-09 0)
(4.99979e-05 -1.84685e-09 0)
(4.99978e-05 -1.91595e-09 0)
(4.99982e-05 -1.9646e-09 0)
(4.99981e-05 -1.98477e-09 0)
(4.99984e-05 -1.98842e-09 0)
(4.99984e-05 -1.97606e-09 0)
(4.99984e-05 -1.95818e-09 0)
(4.99966e-05 -1.68678e-10 0)
(4.99959e-05 -4.1994e-10 0)
(4.9996e-05 -6.79218e-10 0)
(4.99962e-05 -9.24178e-10 0)
(4.99962e-05 -1.16104e-09 0)
(4.99966e-05 -1.37398e-09 0)
(4.99966e-05 -1.56351e-09 0)
(4.9997e-05 -1.73078e-09 0)
(4.99971e-05 -1.86131e-09 0)
(4.99975e-05 -1.97076e-09 0)
(4.99975e-05 -2.04057e-09 0)
(4.9998e-05 -2.08808e-09 0)
(4.9998e-05 -2.10381e-09 0)
(4.99983e-05 -2.09939e-09 0)
(4.99983e-05 -2.07785e-09 0)
(4.99984e-05 -2.04736e-09 0)
(4.99959e-05 -1.80441e-10 0)
(4.99952e-05 -4.47971e-10 0)
(4.99953e-05 -7.2452e-10 0)
(4.99955e-05 -9.86577e-10 0)
(4.99956e-05 -1.23848e-09 0)
(4.9996e-05 -1.46745e-09 0)
(4.99961e-05 -1.66794e-09 0)
(4.99966e-05 -1.84804e-09 0)
(4.99966e-05 -1.98471e-09 0)
(4.99972e-05 -2.10093e-09 0)
(4.99973e-05 -2.17152e-09 0)
(4.99977e-05 -2.21763e-09 0)
(4.99978e-05 -2.22817e-09 0)
(4.99982e-05 -2.21392e-09 0)
(4.99982e-05 -2.18124e-09 0)
(4.99983e-05 -2.13485e-09 0)
(4.99952e-05 -1.92481e-10 0)
(4.99944e-05 -4.75302e-10 0)
(4.99945e-05 -7.68795e-10 0)
(4.99948e-05 -1.04792e-09 0)
(4.99949e-05 -1.3147e-09 0)
(4.99953e-05 -1.5603e-09 0)
(4.99955e-05 -1.77184e-09 0)
(4.9996e-05 -1.96573e-09 0)
(4.99962e-05 -2.10881e-09 0)
(4.99968e-05 -2.23252e-09 0)
(4.9997e-05 -2.30401e-09 0)
(4.99975e-05 -2.34843e-09 0)
(4.99977e-05 -2.35317e-09 0)
(4.99981e-05 -2.32725e-09 0)
(4.99981e-05 -2.2815e-09 0)
(4.99983e-05 -2.21566e-09 0)
(4.99944e-05 -2.04222e-10 0)
(4.99935e-05 -4.99921e-10 0)
(4.99937e-05 -8.08845e-10 0)
(4.9994e-05 -1.10394e-09 0)
(4.99941e-05 -1.38442e-09 0)
(4.99946e-05 -1.64655e-09 0)
(4.99948e-05 -1.86853e-09 0)
(4.99955e-05 -2.07684e-09 0)
(4.99957e-05 -2.22629e-09 0)
(4.99964e-05 -2.3582e-09 0)
(4.99966e-05 -2.43067e-09 0)
(4.99973e-05 -2.4733e-09 0)
(4.99975e-05 -2.47171e-09 0)
(4.9998e-05 -2.43236e-09 0)
(4.99981e-05 -2.37163e-09 0)
(4.99983e-05 -2.28256e-09 0)
(4.99935e-05 -2.148e-10 0)
(4.99926e-05 -5.19036e-10 0)
(4.99928e-05 -8.40206e-10 0)
(4.99931e-05 -1.14869e-09 0)
(4.99933e-05 -1.44029e-09 0)
(4.99939e-05 -1.71779e-09 0)
(4.99941e-05 -1.94869e-09 0)
(4.99949e-05 -2.17154e-09 0)
(4.99952e-05 -2.32689e-09 0)
(4.9996e-05 -2.46765e-09 0)
(4.99963e-05 -2.54121e-09 0)
(4.99971e-05 -2.5821e-09 0)
(4.99974e-05 -2.57392e-09 0)
(4.9998e-05 -2.51952e-09 0)
(4.99982e-05 -2.44207e-09 0)
(4.99984e-05 -2.32581e-09 0)
(4.99925e-05 -2.23015e-10 0)
(4.99916e-05 -5.28807e-10 0)
(4.99918e-05 -8.56751e-10 0)
(4.99922e-05 -1.17393e-09 0)
(4.99924e-05 -1.47217e-09 0)
(4.9993e-05 -1.76236e-09 0)
(4.99934e-05 -1.99936e-09 0)
(4.99942e-05 -2.23603e-09 0)
(4.99946e-05 -2.39624e-09 0)
(4.99955e-05 -2.5463e-09 0)
(4.9996e-05 -2.62106e-09 0)
(4.99968e-05 -2.66051e-09 0)
(4.99973e-05 -2.6458e-09 0)
(4.9998e-05 -2.57498e-09 0)
(4.99983e-05 -2.47936e-09 0)
(4.99986e-05 -2.33185e-09 0)
(4.99915e-05 -2.27221e-10 0)
(4.99905e-05 -5.24243e-10 0)
(4.99907e-05 -8.50494e-10 0)
(4.99911e-05 -1.16898e-09 0)
(4.99914e-05 -1.46683e-09 0)
(4.99922e-05 -1.7651e-09 0)
(4.99925e-05 -2.00363e-09 0)
(4.99935e-05 -2.25242e-09 0)
(4.9994e-05 -2.4156e-09 0)
(4.9995e-05 -2.57535e-09 0)
(4.99956e-05 -2.65137e-09 0)
(4.99966e-05 -2.69017e-09 0)
(4.99972e-05 -2.66943e-09 0)
(4.9998e-05 -2.58135e-09 0)
(4.99984e-05 -2.46658e-09 0)
(4.99988e-05 -2.28378e-09 0)
(4.99904e-05 -2.25273e-10 0)
(4.99894e-05 -4.9878e-10 0)
(4.99896e-05 -8.10938e-10 0)
(4.99901e-05 -1.1197e-09 0)
(4.99904e-05 -1.4068e-09 0)
(4.99912e-05 -1.70576e-09 0)
(4.99917e-05 -1.93902e-09 0)
(4.99927e-05 -2.19661e-09 0)
(4.99933e-05 -2.35983e-09 0)
(4.99945e-05 -2.52919e-09 0)
(4.99952e-05 -2.60659e-09 0)
(4.99964e-05 -2.64588e-09 0)
(4.99971e-05 -2.62036e-09 0)
(4.99981e-05 -2.51477e-09 0)
(4.99986e-05 -2.38063e-09 0)
(4.99992e-05 -2.1587e-09 0)
(4.99893e-05 -2.14353e-10 0)
(4.99882e-05 -4.44161e-10 0)
(4.99884e-05 -7.24851e-10 0)
(4.99889e-05 -1.00829e-09 0)
(4.99893e-05 -1.27005e-09 0)
(4.99902e-05 -1.55893e-09 0)
(4.99907e-05 -1.77712e-09 0)
(4.99919e-05 -2.03836e-09 0)
(4.99926e-05 -2.19717e-09 0)
(4.99939e-05 -2.37584e-09 0)
(4.99948e-05 -2.45457e-09 0)
(4.99962e-05 -2.49642e-09 0)
(4.9997e-05 -2.46817e-09 0)
(4.99982e-05 -2.34599e-09 0)
(4.99989e-05 -2.19325e-09 0)
(4.99996e-05 -1.92879e-09 0)
(4.99881e-05 -1.90916e-10 0)
(4.99869e-05 -3.49917e-10 0)
(4.99872e-05 -5.75454e-10 0)
(4.99878e-05 -8.12056e-10 0)
(4.99882e-05 -1.02849e-09 0)
(4.99891e-05 -1.29188e-09 0)
(4.99897e-05 -1.48145e-09 0)
(4.9991e-05 -1.73835e-09 0)
(4.99919e-05 -1.88646e-09 0)
(4.99933e-05 -2.07328e-09 0)
(4.99944e-05 -2.1533e-09 0)
(4.99959e-05 -2.20048e-09 0)
(4.9997e-05 -2.17281e-09 0)
(4.99984e-05 -2.03625e-09 0)
(4.99993e-05 -1.86724e-09 0)
(5.00002e-05 -1.55762e-09 0)
(4.99868e-05 -1.50465e-10 0)
(4.99857e-05 -2.03197e-10 0)
(4.9986e-05 -3.42103e-10 0)
(4.99866e-05 -5.03089e-10 0)
(4.9987e-05 -6.47449e-10 0)
(4.99881e-05 -8.64276e-10 0)
(4.99887e-05 -1.00678e-09 0)
(4.99901e-05 -1.24801e-09 0)
(4.99911e-05 -1.37652e-09 0)
(4.99927e-05 -1.56961e-09 0)
(4.99939e-05 -1.6505e-09 0)
(4.99957e-05 -1.70717e-09 0)
(4.9997e-05 -1.68479e-09 0)
(4.99986e-05 -1.53819e-09 0)
(4.99998e-05 -1.35722e-09 0)
(5.00009e-05 -1.00102e-09 0)
(4.99856e-05 -8.74816e-11 0)
(4.99846e-05 1.17184e-11 0)
(4.99848e-05 4.75232e-13 0)
(4.99855e-05 -4.70373e-11 0)
(4.99859e-05 -8.42222e-11 0)
(4.9987e-05 -2.26027e-10 0)
(4.99877e-05 -2.96885e-10 0)
(4.99892e-05 -5.06387e-10 0)
(4.99903e-05 -6.03038e-10 0)
(4.9992e-05 -7.98987e-10 0)
(4.99935e-05 -8.79938e-10 0)
(4.99954e-05 -9.51539e-10 0)
(4.9997e-05 -9.41113e-10 0)
(4.99989e-05 -7.91383e-10 0)
(5.00004e-05 -6.0551e-10 0)
(5.00018e-05 -2.03143e-10 0)
(4.99845e-05 4.78462e-12 0)
(4.99836e-05 3.13622e-10 0)
(4.99838e-05 4.82565e-10 0)
(4.99845e-05 5.97364e-10 0)
(4.99848e-05 7.12682e-10 0)
(4.9986e-05 6.83481e-10 0)
(4.99867e-05 7.16629e-10 0)
(4.99882e-05 5.60925e-10 0)
(4.99894e-05 5.12901e-10 0)
(4.99913e-05 3.19516e-10 0)
(4.9993e-05 2.4023e-10 0)
(4.99952e-05 1.46519e-10 0)
(4.9997e-05 1.36094e-10 0)
(4.99993e-05 2.78491e-10 0)
(5.00011e-05 4.58587e-10 0)
(5.00029e-05 9.04168e-10 0)
(4.99835e-05 1.34404e-10 0)
(4.99828e-05 7.24579e-10 0)
(4.9983e-05 1.13981e-09 0)
(4.99836e-05 1.47892e-09 0)
(4.9984e-05 1.80445e-09 0)
(4.99851e-05 1.93675e-09 0)
(4.99858e-05 2.11609e-09 0)
(4.99873e-05 2.04414e-09 0)
(4.99886e-05 2.06767e-09 0)
(4.99906e-05 1.88536e-09 0)
(4.99924e-05 1.81114e-09 0)
(4.99949e-05 1.68629e-09 0)
(4.99971e-05 1.64355e-09 0)
(4.99997e-05 1.76353e-09 0)
(5.00019e-05 1.92247e-09 0)
(5.00042e-05 2.4047e-09 0)
(4.99827e-05 3.1085e-10 0)
(4.99825e-05 1.26996e-09 0)
(4.99825e-05 2.01333e-09 0)
(4.99831e-05 2.65426e-09 0)
(4.99833e-05 3.26239e-09 0)
(4.99844e-05 3.6191e-09 0)
(4.9985e-05 3.99902e-09 0)
(4.99866e-05 4.05134e-09 0)
(4.99878e-05 4.17748e-09 0)
(4.99899e-05 4.01973e-09 0)
(4.99919e-05 3.95669e-09 0)
(4.99946e-05 3.79019e-09 0)
(4.99971e-05 3.70082e-09 0)
(5.00002e-05 3.77752e-09 0)
(5.00029e-05 3.89382e-09 0)
(5.00057e-05 4.40125e-09 0)
(4.99823e-05 5.45014e-10 0)
(4.99826e-05 1.97792e-09 0)
(4.99826e-05 3.14893e-09 0)
(4.99831e-05 4.18693e-09 0)
(4.99831e-05 5.16726e-09 0)
(4.9984e-05 5.828e-09 0)
(4.99845e-05 6.47818e-09 0)
(4.99859e-05 6.7087e-09 0)
(4.99871e-05 6.97989e-09 0)
(4.99893e-05 6.86735e-09 0)
(4.99914e-05 6.82671e-09 0)
(4.99943e-05 6.60691e-09 0)
(4.99972e-05 6.45417e-09 0)
(5.00007e-05 6.45933e-09 0)
(5.00039e-05 6.50393e-09 0)
(5.00074e-05 7.01845e-09 0)
(4.99825e-05 8.4898e-10 0)
(4.99835e-05 2.87871e-09 0)
(4.99833e-05 4.59611e-09 0)
(4.99837e-05 6.14628e-09 0)
(4.99834e-05 7.60803e-09 0)
(4.99841e-05 8.67261e-09 0)
(4.99844e-05 9.68148e-09 0)
(4.99856e-05 1.01621e-08 0)
(4.99866e-05 1.06361e-08 0)
(4.99887e-05 1.06011e-08 0)
(4.99908e-05 1.06023e-08 0)
(4.99939e-05 1.03187e-08 0)
(4.99971e-05 1.00844e-08 0)
(5.00012e-05 9.98134e-09 0)
(5.00051e-05 9.91588e-09 0)
(5.00093e-05 1.04106e-08 0)
(4.99834e-05 1.23572e-09 0)
(4.99854e-05 4.00274e-09 0)
(4.99849e-05 6.40508e-09 0)
(4.99851e-05 8.6036e-09 0)
(4.99845e-05 1.06776e-08 0)
(4.99849e-05 1.2269e-08 0)
(4.99847e-05 1.37479e-08 0)
(4.99856e-05 1.45735e-08 0)
(4.99864e-05 1.5329e-08 0)
(4.99882e-05 1.54209e-08 0)
(4.99903e-05 1.54972e-08 0)
(4.99935e-05 1.51439e-08 0)
(4.99971e-05 1.48111e-08 0)
(5.00016e-05 1.45531e-08 0)
(5.00063e-05 1.43284e-08 0)
(5.00115e-05 1.47641e-08 0)
(4.99854e-05 1.71826e-09 0)
(4.99885e-05 5.37816e-09 0)
(4.99878e-05 8.62285e-09 0)
(4.99877e-05 1.16272e-08 0)
(4.99867e-05 1.44673e-08 0)
(4.99866e-05 1.67348e-08 0)
(4.99859e-05 1.88222e-08 0)
(4.99863e-05 2.01172e-08 0)
(4.99865e-05 2.12617e-08 0)
(4.9988e-05 2.15562e-08 0)
(4.99899e-05 2.17633e-08 0)
(4.9993e-05 2.13459e-08 0)
(4.99969e-05 2.0904e-08 0)
(5.0002e-05 2.04343e-08 0)
(5.00075e-05 1.99881e-08 0)
(5.00138e-05 2.03076e-08 0)
(4.99886e-05 2.30866e-09 0)
(4.99933e-05 7.02657e-09 0)
(4.99922e-05 1.12866e-08 0)
(4.99917e-05 1.52733e-08 0)
(4.99901e-05 1.90554e-08 0)
(4.99895e-05 2.21763e-08 0)
(4.9988e-05 2.50422e-08 0)
(4.99877e-05 2.69679e-08 0)
(4.99873e-05 2.86472e-08 0)
(4.99881e-05 2.92587e-08 0)
(4.99896e-05 2.96883e-08 0)
(4.99925e-05 2.92371e-08 0)
(4.99966e-05 2.8693e-08 0)
(5.00022e-05 2.79476e-08 0)
(5.00086e-05 2.72043e-08 0)
(5.00163e-05 2.73253e-08 0)
(4.99935e-05 3.01611e-09 0)
(5.00001e-05 8.95749e-09 0)
(4.99986e-05 1.44144e-08 0)
(4.99976e-05 1.9574e-08 0)
(4.99954e-05 2.44928e-08 0)
(4.99939e-05 2.86722e-08 0)
(4.99916e-05 3.25208e-08 0)
(4.99903e-05 3.52831e-08 0)
(4.99889e-05 3.76935e-08 0)
(4.99888e-05 3.87932e-08 0)
(4.99896e-05 3.9594e-08 0)
(4.9992e-05 3.91885e-08 0)
(4.99961e-05 3.85909e-08 0)
(5.0002e-05 3.75157e-08 0)
(5.00096e-05 3.64017e-08 0)
(5.00189e-05 3.62154e-08 0)
(5.00004e-05 3.84461e-09 0)
(5.00093e-05 1.11608e-08 0)
(5.00074e-05 1.79936e-08 0)
(5.00058e-05 2.45198e-08 0)
(5.00027e-05 3.07807e-08 0)
(5.00003e-05 3.62462e-08 0)
(4.99968e-05 4.13151e-08 0)
(4.99943e-05 4.51698e-08 0)
(4.99916e-05 4.85688e-08 0)
(4.99903e-05 5.04043e-08 0)
(4.999e-05 5.18083e-08 0)
(4.99916e-05 5.16107e-08 0)
(4.99953e-05 5.10853e-08 0)
(5.00015e-05 4.96673e-08 0)
(5.00102e-05 4.81445e-08 0)
(5.00213e-05 4.75169e-08 0)
(5.00097e-05 4.78972e-09 0)
(5.00214e-05 1.35983e-08 0)
(5.00189e-05 2.19655e-08 0)
(5.00167e-05 3.00392e-08 0)
(5.00126e-05 3.78436e-08 0)
(5.00091e-05 4.4834e-08 0)
(5.00043e-05 5.1387e-08 0)
(5.00003e-05 5.66396e-08 0)
(4.9996e-05 6.13544e-08 0)
(4.99931e-05 6.42692e-08 0)
(4.99912e-05 6.662e-08 0)
(4.99915e-05 6.69119e-08 0)
(4.99944e-05 6.6691e-08 0)
(5.00005e-05 6.49751e-08 0)
(5.00102e-05 6.30283e-08 0)
(5.00235e-05 6.17348e-08 0)
(5.00219e-05 5.83483e-09 0)
(5.00366e-05 1.61936e-08 0)
(5.00336e-05 2.62099e-08 0)
(5.00307e-05 3.59751e-08 0)
(5.00256e-05 4.54968e-08 0)
(5.00208e-05 5.42404e-08 0)
(5.00145e-05 6.25499e-08 0)
(5.00087e-05 6.95468e-08 0)
(5.00025e-05 7.5977e-08 0)
(4.99975e-05 8.04352e-08 0)
(4.99936e-05 8.42358e-08 0)
(4.99919e-05 8.54946e-08 0)
(4.99934e-05 8.60004e-08 0)
(4.99988e-05 8.41563e-08 0)
(5.00094e-05 8.17374e-08 0)
(5.00251e-05 7.92876e-08 0)
(5.00373e-05 6.94706e-09 0)
(5.00554e-05 1.88238e-08 0)
(5.00517e-05 3.05291e-08 0)
(5.00481e-05 4.20598e-08 0)
(5.0042e-05 5.34106e-08 0)
(5.00359e-05 6.4089e-08 0)
(5.00279e-05 7.44004e-08 0)
(5.00203e-05 8.34987e-08 0)
(5.00118e-05 9.21007e-08 0)
(5.00044e-05 9.87053e-08 0)
(4.99978e-05 1.04699e-07 0)
(4.99934e-05 1.07784e-07 0)
(4.99925e-05 1.09975e-07 0)
(4.99962e-05 1.08819e-07 0)
(5.0007e-05 1.06439e-07 0)
(5.00256e-05 1.02546e-07 0)
(5.00562e-05 8.07354e-09 0)
(5.00778e-05 2.13139e-08 0)
(5.00736e-05 3.46383e-08 0)
(5.00693e-05 4.78983e-08 0)
(5.00621e-05 6.10812e-08 0)
(5.00547e-05 7.37729e-08 0)
(5.00451e-05 8.62374e-08 0)
(5.00355e-05 9.77259e-08 0)
(5.00247e-05 1.08924e-07 0)
(5.00147e-05 1.18335e-07 0)
(5.0005e-05 1.27461e-07 0)
(4.99973e-05 1.33702e-07 0)
(4.99929e-05 1.39461e-07 0)
(4.99935e-05 1.41406e-07 0)
(5.00026e-05 1.42107e-07 0)
(5.00236e-05 1.39565e-07 0)
(5.00787e-05 9.1392e-09 0)
(5.01038e-05 2.34402e-08 0)
(5.00992e-05 3.81691e-08 0)
(5.00941e-05 5.29702e-08 0)
(5.0086e-05 6.78271e-08 0)
(5.00774e-05 8.24381e-08 0)
(5.00663e-05 9.70167e-08 0)
(5.0055e-05 1.10979e-07 0)
(5.00419e-05 1.24959e-07 0)
(5.00293e-05 1.37592e-07 0)
(5.00165e-05 1.5052e-07 0)
(5.00055e-05 1.61046e-07 0)
(4.99974e-05 1.72255e-07 0)
(4.99942e-05 1.80274e-07 0)
(4.99998e-05 1.89076e-07 0)
(5.00196e-05 1.948e-07 0)
(5.01049e-05 1.00482e-08 0)
(5.01331e-05 2.49423e-08 0)
(5.01281e-05 4.0691e-08 0)
(5.01225e-05 5.6661e-08 0)
(5.01136e-05 7.28327e-08 0)
(5.0104e-05 8.90404e-08 0)
(5.00916e-05 1.05425e-07 0)
(5.00786e-05 1.21616e-07 0)
(5.00635e-05 1.38125e-07 0)
(5.00485e-05 1.53793e-07 0)
(5.00329e-05 1.70266e-07 0)
(5.00187e-05 1.84795e-07 0)
(5.00072e-05 2.00983e-07 0)
(5.00003e-05 2.14346e-07 0)
(5.00013e-05 2.30225e-07 0)
(5.00148e-05 2.43031e-07 0)
(5.01343e-05 1.06891e-08 0)
(5.0165e-05 2.55463e-08 0)
(5.01597e-05 4.17502e-08 0)
(5.01537e-05 5.83224e-08 0)
(5.01443e-05 7.52382e-08 0)
(5.01338e-05 9.24818e-08 0)
(5.01203e-05 1.10095e-07 0)
(5.01059e-05 1.27953e-07 0)
(5.00889e-05 1.4635e-07 0)
(5.00717e-05 1.64393e-07 0)
(5.00531e-05 1.83493e-07 0)
(5.00357e-05 2.00815e-07 0)
(5.002e-05 2.20043e-07 0)
(5.00082e-05 2.35669e-07 0)
(5.00028e-05 2.5346e-07 0)
(5.00073e-05 2.66008e-07 0)
(5.01663e-05 1.0945e-08 0)
(5.01987e-05 2.49885e-08 0)
(5.01932e-05 4.09107e-08 0)
(5.01869e-05 5.73317e-08 0)
(5.01771e-05 7.42214e-08 0)
(5.0166e-05 9.1721e-08 0)
(5.01516e-05 1.09753e-07 0)
(5.0136e-05 1.28474e-07 0)
(5.01173e-05 1.4788e-07 0)
(5.00979e-05 1.67454e-07 0)
(5.00763e-05 1.88165e-07 0)
(5.00549e-05 2.07269e-07 0)
(5.0034e-05 2.28312e-07 0)
(5.00156e-05 2.44766e-07 0)
(5.00019e-05 2.63032e-07 0)
(4.99964e-05 2.74402e-07 0)
(5.02001e-05 1.07029e-08 0)
(5.02328e-05 2.30408e-08 0)
(5.02273e-05 3.7794e-08 0)
(5.02209e-05 5.31456e-08 0)
(5.02108e-05 6.90625e-08 0)
(5.01993e-05 8.58404e-08 0)
(5.01843e-05 1.03276e-07 0)
(5.01677e-05 1.21837e-07 0)
(5.01476e-05 1.41172e-07 0)
(5.01261e-05 1.61282e-07 0)
(5.01012e-05 1.82504e-07 0)
(5.00756e-05 2.0253e-07 0)
(5.00486e-05 2.24521e-07 0)
(5.00222e-05 2.41028e-07 0)
(4.99991e-05 2.59661e-07 0)
(4.99835e-05 2.69687e-07 0)
(5.02343e-05 9.86534e-09 0)
(5.0266e-05 1.95209e-08 0)
(5.02605e-05 3.20954e-08 0)
(5.0254e-05 4.53197e-08 0)
(5.0244e-05 5.91622e-08 0)
(5.02322e-05 7.40575e-08 0)
(5.0217e-05 8.96841e-08 0)
(5.01997e-05 1.06837e-07 0)
(5.01784e-05 1.24801e-07 0)
(5.01551e-05 1.44263e-07 0)
(5.0127e-05 1.6475e-07 0)
(5.00971e-05 1.84949e-07 0)
(5.00632e-05 2.0713e-07 0)
(5.00278e-05 2.23464e-07 0)
(4.99939e-05 2.43289e-07 0)
(4.99663e-05 2.51139e-07 0)
(5.02674e-05 8.35469e-09 0)
(5.02965e-05 1.42873e-08 0)
(5.02911e-05 2.35771e-08 0)
(5.02847e-05 3.35044e-08 0)
(5.02748e-05 4.40398e-08 0)
(5.0263e-05 5.57272e-08 0)
(5.02477e-05 6.81416e-08 0)
(5.02301e-05 8.23832e-08 0)
(5.02081e-05 9.74074e-08 0)
(5.01833e-05 1.14699e-07 0)
(5.01525e-05 1.3287e-07 0)
(5.01186e-05 1.52298e-07 0)
(5.00776e-05 1.73493e-07 0)
(5.00327e-05 1.90057e-07 0)
(4.99862e-05 2.11987e-07 0)
(4.99418e-05 2.17688e-07 0)
(5.02979e-05 6.11088e-09 0)
(5.03225e-05 7.36302e-09 0)
(5.03172e-05 1.22819e-08 0)
(5.03108e-05 1.77642e-08 0)
(5.0301e-05 2.37849e-08 0)
(5.02893e-05 3.09506e-08 0)
(5.02742e-05 3.87487e-08 0)
(5.02563e-05 4.84982e-08 0)
(5.0234e-05 5.88918e-08 0)
(5.02082e-05 7.21572e-08 0)
(5.01756e-05 8.60342e-08 0)
(5.01385e-05 1.03109e-07 0)
(5.00912e-05 1.21287e-07 0)
(5.00378e-05 1.38682e-07 0)
(4.99779e-05 1.60914e-07 0)
(4.99082e-05 1.6294e-07 0)
(5.03239e-05 3.14266e-09 0)
(5.03418e-05 -7.41281e-10 0)
(5.03367e-05 -9.48143e-10 0)
(5.03306e-05 -7.17449e-10 0)
(5.03212e-05 -6.90208e-11 0)
(5.03099e-05 1.59783e-09 0)
(5.02953e-05 3.6713e-09 0)
(5.02778e-05 7.49921e-09 0)
(5.0256e-05 1.15407e-08 0)
(5.02302e-05 1.83827e-08 0)
(5.01973e-05 2.4979e-08 0)
(5.01584e-05 3.57496e-08 0)
(5.01067e-05 4.56827e-08 0)
(5.00445e-05 5.96436e-08 0)
(4.99633e-05 7.20953e-08 0)
(4.98613e-05 6.72577e-08 0)
(5.03431e-05 -3.30316e-10 0)
(5.03569e-05 -1.01268e-08 0)
(5.03517e-05 -1.6357e-08 0)
(5.03453e-05 -2.24293e-08 0)
(5.03357e-05 -2.84126e-08 0)
(5.03239e-05 -3.38359e-08 0)
(5.03087e-05 -3.94462e-08 0)
(5.02903e-05 -4.41393e-08 0)
(5.02675e-05 -4.96323e-08 0)
(5.024e-05 -5.35589e-08 0)
(5.02054e-05 -5.94537e-08 0)
(5.01632e-05 -6.23513e-08 0)
(5.01069e-05 -6.90531e-08 0)
(5.00363e-05 -7.11395e-08 0)
(4.99332e-05 -7.8695e-08 0)
(4.98019e-05 -8.99009e-08 0)
(5.03582e-05 -4.34704e-09 0)
(5.03562e-05 -2.31831e-08 0)
(5.03505e-05 -3.78578e-08 0)
(5.03431e-05 -5.2822e-08 0)
(5.03323e-05 -6.8269e-08 0)
(5.03186e-05 -8.39102e-08 0)
(5.03012e-05 -1.00642e-07 0)
(5.02797e-05 -1.17668e-07 0)
(5.02535e-05 -1.3683e-07 0)
(5.02214e-05 -1.56109e-07 0)
(5.01818e-05 -1.7919e-07 0)
(5.0133e-05 -2.01149e-07 0)
(5.00696e-05 -2.29337e-07 0)
(4.99896e-05 -2.53146e-07 0)
(4.98756e-05 -2.8415e-07 0)
(4.9729e-05 -3.05416e-07 0)
(5.03578e-05 -9.93385e-09 0)
(5.03258e-05 -4.05862e-08 0)
(5.03193e-05 -6.64287e-08 0)
(5.03105e-05 -9.30501e-08 0)
(5.02977e-05 -1.20689e-07 0)
(5.02814e-05 -1.49227e-07 0)
(5.02606e-05 -1.79622e-07 0)
(5.02349e-05 -2.11315e-07 0)
(5.02038e-05 -2.46177e-07 0)
(5.01656e-05 -2.82387e-07 0)
(5.01197e-05 -3.23545e-07 0)
(5.00631e-05 -3.64665e-07 0)
(4.99928e-05 -4.12871e-07 0)
(4.9905e-05 -4.55649e-07 0)
(4.97879e-05 -5.06236e-07 0)
(4.9641e-05 -5.37135e-07 0)
(5.03278e-05 -1.73802e-08 0)
(5.0262e-05 -6.03392e-08 0)
(5.02544e-05 -9.87776e-08 0)
(5.02439e-05 -1.38436e-07 0)
(5.02289e-05 -1.79483e-07 0)
(5.02094e-05 -2.21911e-07 0)
(5.01849e-05 -2.66589e-07 0)
(5.01544e-05 -3.13094e-07 0)
(5.01178e-05 -3.63125e-07 0)
(5.00733e-05 -4.14922e-07 0)
(5.00211e-05 -4.71702e-07 0)
(4.99577e-05 -5.28233e-07 0)
(4.98829e-05 -5.90888e-07 0)
(4.9792e-05 -6.45775e-07 0)
(4.96807e-05 -7.06188e-07 0)
(4.95477e-05 -7.39078e-07 0)
(5.02643e-05 -2.58332e-08 0)
(5.01624e-05 -7.95414e-08 0)
(5.01538e-05 -1.30184e-07 0)
(5.01417e-05 -1.82422e-07 0)
(5.01244e-05 -2.36266e-07 0)
(5.01021e-05 -2.9174e-07 0)
(5.0074e-05 -3.49472e-07 0)
(5.00394e-05 -4.09068e-07 0)
(4.99982e-05 -4.71853e-07 0)
(4.99488e-05 -5.36044e-07 0)
(4.98922e-05 -6.0423e-07 0)
(4.98252e-05 -6.71024e-07 0)
(4.97505e-05 -7.41826e-07 0)
(4.96633e-05 -8.02284e-07 0)
(4.95665e-05 -8.65025e-07 0)
(4.94576e-05 -8.96242e-07 0)
(5.01652e-05 -3.40518e-08 0)
(5.00309e-05 -9.51242e-08 0)
(5.00212e-05 -1.55664e-07 0)
(5.00076e-05 -2.18125e-07 0)
(4.99884e-05 -2.82342e-07 0)
(4.99637e-05 -3.48329e-07 0)
(4.9933e-05 -4.16386e-07 0)
(4.98955e-05 -4.86075e-07 0)
(4.98514e-05 -5.58189e-07 0)
(4.97995e-05 -6.30916e-07 0)
(4.97414e-05 -7.06051e-07 0)
(4.9675e-05 -7.78393e-07 0)
(4.96052e-05 -8.52255e-07 0)
(4.9528e-05 -9.14147e-07 0)
(4.94514e-05 -9.75598e-07 0)
(4.93723e-05 -1.00516e-06 0)
(5.00341e-05 -4.07198e-08 0)
(4.98754e-05 -1.04979e-07 0)
(4.98645e-05 -1.71752e-07 0)
(4.98494e-05 -2.4067e-07 0)
(4.98284e-05 -3.11447e-07 0)
(4.98019e-05 -3.84122e-07 0)
(4.97695e-05 -4.58702e-07 0)
(4.97305e-05 -5.34729e-07 0)
(4.96855e-05 -6.12385e-07 0)
(4.96337e-05 -6.89893e-07 0)
(4.95775e-05 -7.6815e-07 0)
(4.95155e-05 -8.42535e-07 0)
(4.94546e-05 -9.16139e-07 0)
(4.93919e-05 -9.77392e-07 0)
(4.93391e-05 -1.03613e-06 0)
(4.92922e-05 -1.06496e-06 0)
(4.98789e-05 -4.4935e-08 0)
(4.97059e-05 -1.08554e-07 0)
(4.9694e-05 -1.77473e-07 0)
(4.96773e-05 -2.48529e-07 0)
(4.96547e-05 -3.21371e-07 0)
(4.96266e-05 -3.9614e-07 0)
(4.9593e-05 -4.72735e-07 0)