/*--------------------------------*- C++ -*----------------------------------*\
| =========                 |                                                 |
| \\      /  F ield         | foam-extend: Open Source CFD                    |
|  \\    /   O peration     | Version:     4.1-20200408                       |
|   \\  /    A nd           | Web:         http://www.foam-extend.org         |
|    \\/     M anipulation  |                                                 |
\*---------------------------------------------------------------------------*/
FoamFile
{
    version     2.0;
    format      ascii;
    class       volScalarField;
    location    "0.0285000";
    object      epsilonTrueEq;
}
// * * * * * * * * * * * * * * * * * * * * * * * * * * * * * * * * * * * * * //

dimensions      [0 0 0 0 0 0 0];

internalField   nonuniform List<scalar> 
1952
(
0.0143343
0.0143626
0.0144047
0.0144559
0.0145194
0.0145866
0.0146593
0.0147171
0.0147648
0.0147706
0.014731
0.0146172
0.0144391
0.0141891
0.0139584
0.0143217
0.0144563
0.014485
0.0145273
0.0145791
0.014643
0.0147108
0.014784
0.0148419
0.0148894
0.0148931
0.0148518
0.0147312
0.0145445
0.0142742
0.0140077
0.0144434
0.0145668
0.0145957
0.0146379
0.0146898
0.0147536
0.0148211
0.0148938
0.014951
0.014997
0.0149976
0.0149526
0.0148248
0.0146292
0.0143474
0.0140811
0.0145539
0.014667
0.0146957
0.0147375
0.01479
0.0148537
0.0149208
0.014993
0.0150491
0.0150932
0.0150909
0.0150419
0.0149077
0.0147055
0.0144163
0.01415
0.0146539
0.0147583
0.0147865
0.0148277
0.0148809
0.0149446
0.0150111
0.0150829
0.0151379
0.0151801
0.0151752
0.0151227
0.0149836
0.0147775
0.0144848
0.0142225
0.0147451
0.0148413
0.0148693
0.0149103
0.0149638
0.0150273
0.0150934
0.0151647
0.0152187
0.0152595
0.0152525
0.015197
0.0150543
0.0148464
0.0145517
0.0142937
0.0148281
0.0149172
0.0149453
0.0149866
0.0150397
0.0151031
0.0151689
0.0152398
0.0152931
0.0153329
0.015324
0.0152668
0.0151221
0.0149133
0.0146205
0.0143658
0.014904
0.0149874
0.0150156
0.0150572
0.0151101
0.0151735
0.0152391
0.0153098
0.0153625
0.0154019
0.0153916
0.0153336
0.015188
0.014979
0.0146893
0.0144371
0.0149742
0.0150531
0.0150814
0.0151232
0.0151762
0.0152396
0.0153051
0.0153759
0.0154285
0.0154678
0.0154567
0.0153986
0.015253
0.0150438
0.0147566
0.0145067
0.0150399
0.0151152
0.0151435
0.0151857
0.0152387
0.0153025
0.0153681
0.0154393
0.015492
0.0155317
0.0155203
0.0154625
0.0153171
0.0151073
0.0148225
0.0145749
0.0151019
0.0151744
0.0152029
0.0152455
0.0152988
0.015363
0.015429
0.0155007
0.015554
0.0155942
0.0155831
0.0155255
0.0153804
0.0151704
0.0148872
0.0146415
0.015161
0.0152314
0.0152602
0.0153032
0.0153569
0.0154217
0.0154882
0.0155607
0.0156148
0.0156556
0.0156451
0.0155879
0.0154432
0.0152336
0.0149511
0.0147066
0.0152179
0.0152869
0.015316
0.0153597
0.0154139
0.0154793
0.0155465
0.01562
0.0156751
0.0157166
0.0157067
0.0156498
0.0155055
0.0152962
0.015014
0.0147705
0.0152733
0.0153412
0.0153707
0.015415
0.0154698
0.0155361
0.015604
0.0156786
0.0157348
0.0157771
0.0157678
0.0157113
0.0155672
0.0153581
0.0150761
0.0148333
0.0153275
0.0153948
0.0154247
0.0154697
0.015525
0.0155923
0.0156612
0.0157369
0.0157942
0.0158372
0.0158286
0.0157723
0.0156284
0.0154193
0.0151375
0.0148954
0.015381
0.0154479
0.0154783
0.0155239
0.0155798
0.0156483
0.0157181
0.015795
0.0158534
0.0158972
0.0158891
0.0158332
0.0156893
0.0154802
0.0151985
0.0149566
0.015434
0.0155008
0.0155318
0.0155777
0.0156337
0.0157042
0.015775
0.0158529
0.0159125
0.015957
0.0159495
0.0158938
0.0157499
0.0155407
0.0152589
0.0150171
0.0154868
0.0155535
0.0155851
0.0156312
0.0156874
0.0157599
0.0158317
0.0159105
0.0159715
0.0160167
0.0160098
0.0159543
0.0158104
0.015601
0.0153189
0.0150767
0.0155394
0.0156056
0.0156376
0.0156844
0.0157419
0.0158151
0.015888
0.015968
0.0160302
0.0160763
0.0160699
0.0160147
0.0158708
0.015661
0.0153783
0.0151356
0.0155912
0.0156571
0.0156896
0.0157371
0.0157959
0.0158699
0.0159439
0.0160252
0.0160886
0.0161356
0.0161297
0.0160749
0.0159308
0.0157207
0.0154374
0.0151943
0.0156425
0.0157081
0.0157411
0.0157893
0.0158492
0.0159243
0.0159994
0.016082
0.0161466
0.0161945
0.0161892
0.0161346
0.0159906
0.0157801
0.0154967
0.015253
0.0156932
0.0157586
0.0157922
0.0158412
0.0159024
0.0159785
0.0160548
0.0161388
0.0162047
0.0162532
0.0162488
0.0161945
0.0160505
0.0158397
0.0155559
0.0153131
0.0157435
0.0158082
0.0158426
0.0158925
0.0159549
0.0160322
0.0161097
0.0161952
0.0162624
0.0163117
0.0163083
0.0162541
0.0161102
0.015899
0.0156157
0.015374
0.0157929
0.0158571
0.0158923
0.0159432
0.0160069
0.0160857
0.0161645
0.0162517
0.0163201
0.01637
0.0163683
0.0163145
0.0161706
0.0159594
0.0156764
0.0154348
0.0158415
0.0159051
0.0159412
0.0159933
0.0160585
0.0161389
0.0162193
0.0163083
0.016378
0.0164288
0.016429
0.0163756
0.0162317
0.0160207
0.0157374
0.0154954
0.0158892
0.0159519
0.015989
0.0160422
0.0161092
0.0161912
0.0162735
0.0163643
0.0164358
0.0164882
0.0164895
0.0164367
0.0162929
0.016082
0.0157989
0.0155562
0.0159358
0.0159976
0.0160358
0.0160904
0.0161591
0.0162429
0.0163273
0.0164202
0.0164936
0.0165482
0.0165508
0.0164983
0.0163545
0.0161433
0.0158601
0.0156183
0.0159812
0.0160425
0.0160808
0.0161367
0.0162075
0.0162934
0.0163799
0.0164752
0.0165506
0.0166072
0.0166109
0.0165595
0.0164172
0.0162036
0.0159215
0.0156822
0.0160257
0.0160879
0.016126
0.0161817
0.0162545
0.0163424
0.0164312
0.016529
0.0166069
0.0166659
0.0166712
0.016624
0.0164829
0.0162691
0.0159858
0.0157472
0.016071
0.0161321
0.0161714
0.0162278
0.0163006
0.0163906
0.016482
0.0165823
0.0166632
0.0167277
0.016736
0.0166904
0.0165503
0.0163379
0.0160527
0.0158139
0.016115
0.0161748
0.0162154
0.0162736
0.0163472
0.0164386
0.0165328
0.0166363
0.016721
0.0167908
0.0168023
0.0167573
0.0166179
0.0164068
0.016121
0.0158831
0.0161573
0.0162171
0.0162586
0.0163186
0.0163949
0.0164882
0.0165843
0.016693
0.0167818
0.0168541
0.0168682
0.0168254
0.0166871
0.0164776
0.0161917
0.0159547
0.0161992
0.0162594
0.016302
0.0163641
0.0164428
0.0165388
0.0166386
0.0167509
0.0168428
0.0169175
0.0169343
0.0168937
0.0167571
0.0165496
0.0162643
0.0160287
0.0162412
0.0163034
0.0163471
0.0164112
0.0164918
0.0165905
0.0166947
0.0168093
0.0169035
0.0169813
0.0170006
0.0169629
0.0168282
0.016623
0.0163391
0.0161056
0.0162847
0.0163503
0.0163949
0.0164606
0.0165429
0.0166443
0.0167507
0.0168677
0.0169645
0.0170451
0.0170674
0.0170323
0.0169004
0.0166978
0.0164162
0.0161862
0.0163312
0.0164017
0.0164468
0.0165134
0.0165965
0.0166998
0.0168076
0.0169265
0.0170258
0.0171091
0.0171343
0.0171022
0.0169735
0.0167742
0.0164959
0.0162708
0.0163824
0.0164596
0.0165045
0.0165713
0.0166542
0.0167582
0.0168665
0.0169866
0.0170879
0.0171737
0.017202
0.0171731
0.0170485
0.0168534
0.0165794
0.0163597
0.0164404
0.0165259
0.0165697
0.0166358
0.0167173
0.0168208
0.0169282
0.0170485
0.0171509
0.0172387
0.0172703
0.0172449
0.017125
0.0169352
0.0166668
0.0164534
0.0165069
0.0166031
0.016645
0.0167092
0.0167878
0.0168892
0.0169943
0.0171134
0.0172155
0.0173045
0.0173388
0.0173169
0.0172024
0.0170187
0.0167573
0.0165526
0.0165847
0.0166949
0.0167337
0.0167947
0.0168687
0.016966
0.0170668
0.0171827
0.0172827
0.0173715
0.0174076
0.0173888
0.0172803
0.0171036
0.0168512
0.0166578
0.0166773
0.0168058
0.0168403
0.0168966
0.0169639
0.0170549
0.0171487
0.0172587
0.0173542
0.0174408
0.0174774
0.0174611
0.017359
0.0171904
0.016949
0.0167686
0.0167895
0.0169412
0.0169701
0.0170198
0.0170781
0.0171599
0.0172436
0.0173444
0.017432
0.0175136
0.0175483
0.0175333
0.0174376
0.0172781
0.0170501
0.0168856
0.0169266
0.0171074
0.0171293
0.0171704
0.017217
0.0172861
0.0173558
0.0174433
0.0175189
0.0175914
0.0176209
0.0176048
0.0175147
0.0173646
0.0171529
0.0170089
0.017095
0.0173116
0.017325
0.0173555
0.0173873
0.0174402
0.0174916
0.0175609
0.0176191
0.0176773
0.0176968
0.0176761
0.0175897
0.0174489
0.0172565
0.0171378
0.017302
0.0175619
0.0175654
0.0175831
0.0175974
0.0176302
0.0176587
0.0177043
0.0177388
0.0177765
0.0177797
0.0177492
0.0176631
0.0175305
0.0173603
0.0172712
0.0175555
0.0178658
0.0178582
0.0178615
0.0178557
0.017865
0.017866
0.0178821
0.0178862
0.0178958
0.0178746
0.017827
0.0177351
0.0176077
0.0174617
0.0174071
0.017863
0.0182305
0.0182113
0.018199
0.0181714
0.0181543
0.0181241
0.0181057
0.0180724
0.0180455
0.01799
0.0179154
0.017808
0.0176794
0.0175572
0.0175421
0.0182315
0.0186616
0.0186309
0.0186026
0.0185528
0.0185083
0.0184447
0.018388
0.0183117
0.0182405
0.01814
0.0180256
0.0178874
0.0177438
0.0176372
0.0176693
0.0186663
0.0191621
0.0191207
0.0190776
0.0190068
0.0189355
0.018839
0.0187433
0.0186217
0.0185016
0.018348
0.018182
0.0179957
0.0178156
0.0177007
0.0177749
0.0191703
0.0197308
0.0196805
0.0196247
0.0195358
0.0194412
0.0193151
0.0191837
0.0190194
0.0188524
0.0186459
0.0184276
0.0181885
0.0179631
0.0178172
0.0178893
0.0197419
0.0203616
0.020305
0.0202395
0.0201371
0.0200241
0.0198745
0.0197138
0.0195137
0.0193072
0.0190551
0.0187939
0.018511
0.0182512
0.0180717
0.0180984
0.0203749
0.021042
0.0209819
0.0209108
0.0208001
0.0206751
0.0205091
0.0203271
0.0200991
0.0198604
0.0195683
0.0192678
0.0189383
0.0186337
0.0183937
0.0183206
0.0210566
0.0217529
0.0216925
0.0216196
0.0215066
0.0213762
0.0212019
0.0210068
0.0207592
0.0204948
0.0201655
0.0198241
0.0194361
0.0190638
0.0187278
0.0185206
0.0217678
0.0224699
0.0224121
0.0223418
0.0222323
0.0221033
0.0219284
0.0217291
0.0214702
0.0211865
0.020823
0.0204385
0.0199809
0.0195212
0.0190611
0.0186965
0.0224841
0.0231628
0.0231106
0.0230468
0.0229462
0.0228251
0.0226573
0.0224627
0.0222013
0.0219061
0.0215141
0.0210864
0.0205514
0.0199888
0.0193806
0.0188379
0.0231754
0.0237973
0.0237531
0.0236993
0.0236123
0.0235052
0.0233525
0.0231705
0.0229168
0.0226199
0.022209
0.0217441
0.021131
0.020459
0.0196849
0.0189467
0.0238075
0.024336
0.0243013
0.0242602
0.0241903
0.024102
0.0239713
0.0238088
0.0235733
0.0232859
0.02287
0.0223821
0.0217001
0.0209261
0.0199752
0.0190091
0.0243431
0.0247441
0.0247197
0.0246924
0.0246415
0.0245749
0.0244702
0.024333
0.024125
0.0238583
0.0234551
0.022963
0.0222336
0.0213817
0.0202403
0.0189521
0.0247476
0.0249934
0.0249797
0.0249671
0.024936
0.0248915
0.0248133
0.0247019
0.0245237
0.0242805
0.0239019
0.0234178
0.0226704
0.0217698
0.020428
0.0187547
0.0249932
0.025005
0.0250016
0.0250031
0.0249904
0.0249651
0.0249082
0.0248143
0.0246546
0.0244193
0.0240513
0.0235517
0.0227832
0.0218148
0.0202832
0.0183387
0.0250012
0.0246608
0.0246638
0.0246745
0.0246734
0.0246586
0.0246113
0.02452
0.0243577
0.024102
0.0237052
0.0231351
0.0222907
0.0211762
0.0194964
0.0174517
0.0246541
0.0239072
0.0239093
0.0239192
0.0239169
0.0238983
0.023844
0.0237371
0.0235503
0.0232501
0.0227947
0.0221251
0.0211844
0.0199254
0.0182216
0.0162894
0.0238996
0.0227536
0.0227452
0.0227411
0.0227208
0.0226799
0.0225993
0.0224587
0.0222304
0.0218752
0.0213573
0.0206057
0.0196121
0.0183084
0.0167364
0.0150943
0.0227481
0.021243
0.0212152
0.0211836
0.0211278
0.0210453
0.020919
0.0207287
0.0204483
0.0200405
0.0194761
0.0186882
0.0177111
0.0164795
0.0151613
0.0139153
0.0212427
0.0194518
0.0193989
0.0193309
0.0192268
0.0190874
0.0188984
0.0186444
0.0183042
0.0178511
0.0172623
0.0164895
0.0155966
0.0145376
0.0135564
0.0127645
0.0194589
0.0174691
0.0173903
0.0172843
0.0171289
0.0169278
0.0166672
0.0163395
0.0159327
0.0154388
0.0148403
0.0141198
0.0133602
0.0125504
0.0119642
0.0116576
0.0174843
0.015383
0.0152805
0.0151414
0.0149432
0.0146909
0.0143662
0.0139676
0.013494
0.0129619
0.0123581
0.0117036
0.0110935
0.0105709
0.0104045
0.0105909
0.0154062
0.0132753
0.0131536
0.0129895
0.0127638
0.012483
0.0121206
0.0116759
0.0111519
0.0105885
0.00998068
0.00939299
0.00892161
0.00867161
0.00888232
0.00952095
0.0133059
0.0112195
0.0110871
0.0109072
0.0106643
0.0103686
0.00999109
0.00953711
0.00900268
0.00843642
0.00785222
0.00737406
0.00707158
0.0070296
0.00745086
0.00838249
0.0112549
0.00923037
0.00909933
0.00891429
0.00865739
0.00834048
0.00794998
0.0075382
0.00711322
0.00668214
0.00626576
0.00599423
0.00587451
0.00594633
0.00634528
0.0072248
0.0092664
0.00732714
0.00722407
0.00707467
0.00685882
0.00658815
0.00627101
0.00599036
0.00575797
0.00554737
0.00536298
0.00526737
0.0052527
0.00539753
0.00570866
0.00631177
0.00735574
0.00583295
0.00576987
0.00568277
0.00555923
0.00541275
0.00524881
0.00509439
0.00494095
0.00482127
0.00474135
0.00473602
0.00480057
0.00501087
0.00532843
0.00579586
0.00585064
0.00491546
0.00486611
0.00480141
0.00471586
0.00462316
0.00452353
0.00442297
0.00431296
0.00424362
0.00422309
0.00428226
0.0044127
0.00465706
0.00499764
0.00544745
0.0049298
0.00420841
0.00416732
0.00411332
0.00404425
0.00397192
0.00390008
0.00384217
0.0037951
0.00378738
0.00382481
0.00392895
0.00409646
0.00435208
0.00468474
0.00510252
0.00422085
0.00358927
0.00356267
0.00352825
0.00348726
0.00344762
0.00341303
0.00339235
0.00338762
0.00342064
0.00349685
0.00363015
0.00381876
0.00407372
0.00438951
0.00476792
0.00359778
0.00309659
0.00308097
0.00306047
0.0030396
0.00302286
0.00301634
0.0030267
0.00305885
0.00312456
0.00322904
0.00337891
0.00357449
0.00381914
0.00411015
0.00444809
0.00310232
0.00269085
0.00268622
0.00267964
0.00267836
0.00268317
0.00270172
0.00273673
0.002795
0.00288179
0.00300286
0.00315934
0.00335302
0.00358241
0.00384656
0.00414548
0.00269355
0.00236712
0.00237139
0.0023758
0.00238996
0.00241128
0.00244897
0.00250216
0.00257887
0.00267885
0.00280846
0.0029647
0.0031506
0.00336195
0.00359887
0.00386175
0.00236731
0.00210741
0.00211915
0.00213269
0.00215938
0.00219364
0.00224568
0.00231134
0.00239945
0.00250589
0.00263764
0.00278891
0.00296363
0.00315606
0.003367
0.00359738
0.00210537
0.00190136
0.00191879
0.00193919
0.00197507
0.00201841
0.00208007
0.00215331
0.00224741
0.00235552
0.00248508
0.00262848
0.00279024
0.0029639
0.00315066
0.00335211
0.00189753
0.00173777
0.00175933
0.00178464
0.00182684
0.00187606
0.00194346
0.00202035
0.00211627
0.00222257
0.00234699
0.00248084
0.002629
0.00278474
0.00294951
0.00312554
0.00173257
0.0016081
0.00163231
0.00166073
0.00170666
0.001759
0.00182892
0.00190645
0.00200116
0.00210332
0.00222076
0.00234427
0.00247887
0.00261789
0.00276286
0.00291663
0.00160195
0.00150485
0.00153045
0.00156048
0.00160804
0.00166133
0.0017313
0.00180726
0.00189862
0.00199513
0.00210454
0.00221753
0.00233903
0.00246271
0.00259006
0.00272448
0.00149813
0.00142204
0.001448
0.00147842
0.00152591
0.00157848
0.00164666
0.00171949
0.00180609
0.00189608
0.00199697
0.00209961
0.00220875
0.00231849
0.00243023
0.00254789
0.00141508
0.00135474
0.00138027
0.00141013
0.00145631
0.00150696
0.00157205
0.00164074
0.00172169
0.00180473
0.00189699
0.00198972
0.00208736
0.00218453
0.00228252
0.0023857
0.00134781
0.00129906
0.00132357
0.00135221
0.00139618
0.00144409
0.00150524
0.00156917
0.00164401
0.00171998
0.00180378
0.00188716
0.00197422
0.00206014
0.00214606
0.00223678
0.00129235
0.00125189
0.00127498
0.00130195
0.00134314
0.00138779
0.00144452
0.00150338
0.00157193
0.00164095
0.00171663
0.00179131
0.00186871
0.0019446
0.00201996
0.00209995
0.00124553
0.00121081
0.00123226
0.00125728
0.00129536
0.00133649
0.00138856
0.00144228
0.00150459
0.00156693
0.00163494
0.00170162
0.00177027
0.00183725
0.00190339
0.00197419
0.0012049
0.00117398
0.00119366
0.0012166
0.00125144
0.00128895
0.00133633
0.00138501
0.00144129
0.00149731
0.00155816
0.00161754
0.0016783
0.0017374
0.00179551
0.00185841
0.00116856
0.00113998
0.00115786
0.0011787
0.00121029
0.00124424
0.00128704
0.00133088
0.00138143
0.00143158
0.00148583
0.00153859
0.00159227
0.00164443
0.00169555
0.0017517
0.00113505
0.00110775
0.00112388
0.00114267
0.00117111
0.00120165
0.00124008
0.00127936
0.00132456
0.00136929
0.0014175
0.00146431
0.00151167
0.00155773
0.00160278
0.00165316
0.00110332
0.00107655
0.00109101
0.00110784
0.00113331
0.00116062
0.00119496
0.00123003
0.00127028
0.00131007
0.00135281
0.00139427
0.00143603
0.00147673
0.00151652
0.00156195
0.0010726
0.00104584
0.00105874
0.00107375
0.00109644
0.00112078
0.00115134
0.00118254
0.00121828
0.00125359
0.00129141
0.00132812
0.0013649
0.00140093
0.00143615
0.00147737
0.00104232
0.00101526
0.00102673
0.00104006
0.00106021
0.00108183
0.00110895
0.00113664
0.00116829
0.0011996
0.00123299
0.0012655
0.00129789
0.00132984
0.00136112
0.00139873
0.00101215
0.000984587
0.000994753
0.00100656
0.00102441
0.00104358
0.00106757
0.00109212
0.00112011
0.00114785
0.00117731
0.00120611
0.00123465
0.00126305
0.00129092
0.00132546
0.000981838
0.000953693
0.000962688
0.000973139
0.000988915
0.00100589
0.00102709
0.00104884
0.00107355
0.00109814
0.00112413
0.00114968
0.00117484
0.00120017
0.0012251
0.00125702
0.00095127
0.000922528
0.00093048
0.000939722
0.000953653
0.000968683
0.000987405
0.00100668
0.0010285
0.00105031
0.00107324
0.00109596
0.00111817
0.00114085
0.00116324
0.00119293
0.000920392
0.000891091
0.00089812
0.000906299
0.000918598
0.000931919
0.000948448
0.000965559
0.000984822
0.00100422
0.00102447
0.00104474
0.00106439
0.00108479
0.001105
0.00113278
0.000889209
0.00085942
0.000865638
0.000872887
0.000883752
0.000895582
0.000910187
0.000925413
0.000942444
0.000959746
0.000977669
0.000995816
0.00101326
0.0010317
0.00105004
0.00107618
0.000857758
0.000827577
0.000833085
0.000839527
0.000849139
0.000859678
0.000872603
0.0008862
0.000901289
0.000916787
0.000932691
0.000949024
0.000964557
0.000981336
0.000998069
0.00102284
0.000826104
0.000795639
0.00080053
0.000806277
0.000814798
0.000824226
0.000835692
0.000847892
0.0008613
0.000875257
0.000889421
0.000904213
0.000918112
0.000933482
0.000948844
0.000972446
0.00079433
0.000763695
0.000768051
0.000773202
0.000780777
0.000789255
0.00079946
0.00081047
0.000822429
0.000835081
0.000847755
0.000861249
0.000873759
0.000887948
0.000902148
0.000924768
0.000762525
0.00073184
0.000735731
0.000740375
0.000747132
0.000754802
0.000763918
0.000773922
0.000784639
0.000796195
0.000807601
0.000820015
0.000831354
0.000844568
0.000857793
0.000879601
0.000730788
0.000700174
0.000703663
0.000707874
0.000713923
0.000720908
0.000729087
0.000738244
0.000747899
0.000758543
0.000768877
0.000780403
0.000790764
0.000803184
0.000815599
0.000836738
0.000699222
0.000668804
0.000671943
0.000675785
0.000681219
0.000687623
0.000694993
0.00070344
0.000712186
0.000722078
0.000731511
0.00074232
0.000751877
0.000763671
0.000775431
0.000796045
0.000667938
0.000637844
0.000640674
0.000644199
0.000649094
0.000655003
0.000661668
0.000669518
0.000677485
0.00068676
0.000695438
0.000705679
0.000714585
0.000725899
0.000737144
0.00075736
0.00063705
0.000607416
0.000609971
0.000613218
0.000617634
0.000623112
0.000629157
0.000636498
0.00064379
0.000652559
0.000660603
0.000670403
0.000678794
0.000689765
0.000700631
0.000720581
0.000606687
0.000577658
0.00057996
0.000582957
0.000586936
0.000592028
0.000597514
0.000604411
0.000611105
0.000619452
0.00062696
0.000636426
0.00064442
0.000655171
0.000665788
0.000685599
0.000576986
0.000548721
0.000550787
0.000553546
0.000557116
0.000561846
0.00056681
0.000573299
0.000579447
0.00058743
0.000594471
0.000603686
0.000611384
0.000622026
0.000632523
0.000652324
0.000548104
0.00052078
0.000522616
0.000525137
0.000528311
0.000532679
0.000537139
0.000543228
0.000548853
0.000556495
0.000563113
0.000572133
0.000579618
0.000590249
0.000600759
0.00062069
0.000520217
0.000494031
0.000495636
0.000497908
0.000500683
0.00050467
0.000508618
0.000514284
0.000519379
0.00052667
0.000532873
0.000541721
0.000549049
0.000559748
0.000570399
0.0005906
0.000493526
0.000468697
0.000470064
0.000472064
0.000474425
0.000477989
0.000481401
0.000486586
0.000491117
0.000498001
0.000503762
0.00051242
0.000519619
0.000530443
0.000541371
0.000562005
0.000468255
0.000445024
0.000446144
0.00044784
0.000449765
0.000452846
0.000455679
0.000460294
0.000464196
0.000470571
0.000475819
0.000484214
0.000491266
0.000502233
0.000513568
0.000534796
0.000444653
0.000423282
0.000424146
0.0004255
0.000426966
0.000429489
0.000431693
0.00043562
0.000438803
0.000444513
0.000449131
0.000457121
0.000463948
0.000475022
0.00048688
0.000508883
0.00042299
0.000403755
0.000404358
0.000405335
0.000406324
0.000408212
0.000409737
0.000412836
0.000415199
0.000420037
0.00042386
0.000431214
0.000437657
0.000448716
0.000461173
0.000484123
0.000403551
0.000386733
0.000387078
0.000387651
0.00038816
0.000389347
0.000390163
0.000392293
0.000393738
0.000397452
0.000400279
0.000406668
0.000412464
0.000423265
0.000436314
0.000460306
0.000386622
0.000372492
0.000372597
0.000372758
0.000372813
0.000373259
0.000373373
0.000374416
0.000374879
0.000377205
0.000378817
0.000383794
0.000388547
0.000398667
0.000412149
0.000437181
0.000372475
0.000361268
0.000361166
0.000360932
0.000360594
0.000360309
0.000359786
0.000359694
0.000359185
0.000359897
0.000360103
0.000363099
0.000366217
0.000374851
0.000388189
0.000414243
0.00036134
0.000353191
0.000352931
0.000352348
0.000351711
0.000350765
0.000349746
0.000348577
0.000347243
0.000346275
0.000345065
0.000345561
0.000346406
0.00035218
0.000363905
0.000390576
0.000353342
0.000348306
0.000347952
0.000347092
0.000346293
0.000344814
0.00034353
0.000341478
0.000339675
0.000337269
0.000335107
0.000333167
0.000331887
0.000333733
0.000341909
0.000366624
0.000348518
0.000347637
0.000347244
0.000346181
0.000345336
0.000343463
0.000342115
0.000339413
0.000337477
0.000334018
0.000331474
0.000327684
0.000325042
0.000322962
0.000325669
0.000341641
0.000347892
0.000348887
0.000348489
0.000347347
0.000346506
0.000344476
0.000343138
0.000340169
0.000338225
0.000334321
0.000331667
0.000327056
0.000323845
0.000319775
0.000319394
0.000327691
0.00034916
)
;

boundaryField
{
    wireUpstream
    {
        type            calculated;
        value           nonuniform List<scalar> 
16
(
0.000350523
0.000350148
0.000348936
0.000348163
0.000345985
0.000344759
0.000341524
0.000339715
0.000335345
0.00033275
0.000327257
0.00032366
0.000317652
0.000314401
0.000312517
0.000350808
)
;
    }
    wireDownstream
    {
        type            calculated;
        value           nonuniform List<scalar> 
16
(
0.0143326
0.0143606
0.0144023
0.0144529
0.0145158
0.0145824
0.0146543
0.0147116
0.0147583
0.014764
0.0147234
0.0146105
0.0144329
0.0141896
0.0139905
0.0143201
)
;
    }
    wireTopContact
    {
        type            calculated;
        value           nonuniform List<scalar> 
122
(
0.013986
0.0140584
0.0141268
0.0141993
0.0142704
0.0143423
0.0144134
0.014483
0.0145511
0.0146177
0.0146827
0.0147465
0.0148093
0.0148713
0.0149324
0.0149928
0.0150523
0.0151111
0.0151698
0.0152285
0.0152885
0.0153493
0.0154099
0.0154703
0.0155309
0.0155928
0.0156565
0.0157214
0.0157879
0.0158569
0.0159282
0.0160019
0.0160784
0.0161587
0.016243
0.0163314
0.0164247
0.0165236
0.0166283
0.0167388
0.0168555
0.0169788
0.0171079
0.0172419
0.0173787
0.0175154
0.0176465
0.0177583
0.0178754
0.0180963
0.018324
0.0185267
0.0187045
0.0188475
0.0189573
0.0190201
0.0189571
0.0187457
0.0183328
0.0174199
0.016226
0.0150119
0.0138234
0.0126713
0.0115713
0.0105205
0.00947511
0.00836387
0.00722142
0.00630855
0.00579522
0.00545054
0.00510659
0.00477172
0.00445155
0.00414852
0.00386442
0.00359975
0.0033542
0.00312744
0.00291834
0.00272604
0.00254933
0.002387
0.00223798
0.00210102
0.00197516
0.00185928
0.00175246
0.00165382
0.00156251
0.00147784
0.00139911
0.00132576
0.00125724
0.00119307
0.00113285
0.00107618
0.00102277
0.000972317
0.000924576
0.000879348
0.00083642
0.000795666
0.000756914
0.000720067
0.000685016
0.000651667
0.000619962
0.000589797
0.000561135
0.000533866
0.000507915
0.000483153
0.000459387
0.000436386
0.000413756
0.000390867
0.000368209
0.000344647
0.000330778
0.0139461
)
;
    }
    front
    {
        type            wedge;
    }
    back
    {
        type            wedge;
    }
}


// ************************************************************************* //
