/*--------------------------------*- C++ -*----------------------------------*\
| =========                 |                                                 |
| \\      /  F ield         | foam-extend: Open Source CFD                    |
|  \\    /   O peration     | Version:     4.1-20200408                       |
|   \\  /    A nd           | Web:         http://www.foam-extend.org         |
|    \\/     M anipulation  |                                                 |
\*---------------------------------------------------------------------------*/
FoamFile
{
    version     2.0;
    format      ascii;
    class       volScalarField;
    location    "0.0285000";
    object      rho_0;
}
// * * * * * * * * * * * * * * * * * * * * * * * * * * * * * * * * * * * * * //

dimensions      [1 -3 0 0 0 0 0];

internalField   nonuniform List<scalar> 
1952
(
7840.13
7839.93
7839.68
7839.33
7838.83
7838.21
7837.38
7836.3
7834.97
7833.14
7830.91
7827.6
7823.66
7817.85
7813.16
7840.18
7840.34
7840.14
7839.89
7839.53
7839.02
7838.39
7837.54
7836.46
7835.11
7833.27
7831.02
7827.7
7823.74
7817.89
7813.15
7840.4
7840.54
7840.33
7840.07
7839.7
7839.19
7838.55
7837.68
7836.59
7835.24
7833.38
7831.12
7827.77
7823.79
7817.91
7813.14
7840.59
7840.71
7840.5
7840.23
7839.86
7839.34
7838.69
7837.81
7836.71
7835.34
7833.47
7831.19
7827.82
7823.81
7817.91
7813.11
7840.77
7840.86
7840.65
7840.38
7840
7839.47
7838.81
7837.92
7836.81
7835.43
7833.55
7831.25
7827.86
7823.82
7817.89
7813.08
7840.92
7841
7840.79
7840.51
7840.13
7839.59
7838.92
7838.02
7836.9
7835.51
7833.62
7831.3
7827.89
7823.82
7817.86
7813.04
7841.07
7841.13
7840.91
7840.63
7840.25
7839.7
7839.02
7838.11
7836.99
7835.58
7833.67
7831.33
7827.9
7823.82
7817.83
7812.99
7841.2
7841.25
7841.03
7840.74
7840.35
7839.8
7839.11
7838.19
7837.06
7835.64
7833.71
7831.36
7827.91
7823.81
7817.8
7812.95
7841.31
7841.35
7841.13
7840.84
7840.44
7839.88
7839.18
7838.26
7837.13
7835.69
7833.76
7831.39
7827.92
7823.79
7817.77
7812.9
7841.42
7841.46
7841.23
7840.94
7840.53
7839.96
7839.26
7838.32
7837.19
7835.74
7833.79
7831.41
7827.93
7823.78
7817.74
7812.86
7841.52
7841.55
7841.32
7841.02
7840.61
7840.03
7839.32
7838.38
7837.24
7835.78
7833.82
7831.42
7827.93
7823.76
7817.71
7812.82
7841.62
7841.63
7841.4
7841.1
7840.69
7840.1
7839.38
7838.44
7837.29
7835.82
7833.86
7831.44
7827.93
7823.75
7817.68
7812.78
7841.7
7841.71
7841.48
7841.17
7840.76
7840.17
7839.44
7838.49
7837.34
7835.86
7833.88
7831.46
7827.93
7823.73
7817.65
7812.74
7841.78
7841.79
7841.56
7841.25
7840.83
7840.23
7839.5
7838.54
7837.38
7835.89
7833.91
7831.47
7827.93
7823.71
7817.62
7812.71
7841.86
7841.86
7841.62
7841.31
7840.89
7840.28
7839.55
7838.59
7837.42
7835.92
7833.93
7831.48
7827.93
7823.69
7817.59
7812.67
7841.93
7841.93
7841.69
7841.38
7840.95
7840.34
7839.6
7838.64
7837.46
7835.95
7833.95
7831.49
7827.93
7823.68
7817.57
7812.64
7842.01
7842
7841.76
7841.44
7841.01
7840.39
7839.65
7838.68
7837.5
7835.98
7833.97
7831.5
7827.93
7823.66
7817.54
7812.6
7842.08
7842.07
7841.82
7841.5
7841.07
7840.44
7839.7
7838.73
7837.54
7836.01
7833.99
7831.51
7827.93
7823.64
7817.51
7812.57
7842.14
7842.13
7841.89
7841.56
7841.12
7840.49
7839.74
7838.77
7837.57
7836.04
7834.01
7831.52
7827.92
7823.63
7817.48
7812.54
7842.21
7842.2
7841.95
7841.62
7841.18
7840.54
7839.79
7838.81
7837.6
7836.07
7834.03
7831.53
7827.92
7823.61
7817.45
7812.5
7842.28
7842.26
7842.01
7841.68
7841.23
7840.59
7839.84
7838.85
7837.64
7836.09
7834.04
7831.53
7827.91
7823.59
7817.41
7812.47
7842.34
7842.33
7842.08
7841.74
7841.29
7840.64
7839.89
7838.89
7837.67
7836.12
7834.06
7831.54
7827.91
7823.56
7817.38
7812.43
7842.41
7842.4
7842.14
7841.8
7841.35
7840.69
7839.93
7838.94
7837.71
7836.14
7834.08
7831.54
7827.9
7823.54
7817.35
7812.39
7842.48
7842.47
7842.21
7841.87
7841.41
7840.75
7839.99
7838.98
7837.74
7836.17
7834.09
7831.55
7827.89
7823.51
7817.31
7812.34
7842.55
7842.55
7842.28
7841.94
7841.47
7840.81
7840.04
7839.02
7837.78
7836.19
7834.11
7831.55
7827.88
7823.48
7817.26
7812.29
7842.63
7842.63
7842.36
7842.01
7841.53
7840.87
7840.1
7839.07
7837.82
7836.22
7834.12
7831.55
7827.86
7823.45
7817.22
7812.24
7842.71
7842.71
7842.44
7842.09
7841.61
7840.93
7840.16
7839.12
7837.86
7836.24
7834.14
7831.55
7827.85
7823.42
7817.17
7812.18
7842.8
7842.81
7842.54
7842.17
7841.69
7841.01
7840.23
7839.17
7837.9
7836.27
7834.16
7831.55
7827.83
7823.38
7817.11
7812.11
7842.9
7842.92
7842.64
7842.27
7841.78
7841.09
7840.3
7839.23
7837.95
7836.3
7834.17
7831.55
7827.81
7823.33
7817.05
7812.04
7843.01
7843.04
7842.76
7842.38
7841.88
7841.18
7840.39
7839.3
7838.01
7836.34
7834.19
7831.55
7827.79
7823.28
7816.98
7811.96
7843.13
7843.17
7842.89
7842.5
7842
7841.29
7840.49
7839.38
7838.07
7836.39
7834.22
7831.55
7827.77
7823.23
7816.91
7811.87
7843.27
7843.33
7843.05
7842.65
7842.14
7841.42
7840.6
7839.48
7838.15
7836.44
7834.26
7831.56
7827.75
7823.18
7816.83
7811.77
7843.43
7843.52
7843.23
7842.82
7842.3
7841.57
7840.74
7839.59
7838.25
7836.51
7834.3
7831.57
7827.73
7823.13
7816.74
7811.65
7843.62
7843.73
7843.44
7843.02
7842.5
7841.75
7840.9
7839.73
7838.37
7836.6
7834.36
7831.6
7827.72
7823.07
7816.65
7811.53
7843.84
7843.99
7843.69
7843.25
7842.72
7841.95
7841.09
7839.9
7838.51
7836.71
7834.44
7831.63
7827.72
7823.02
7816.56
7811.4
7844.09
7844.27
7843.97
7843.53
7842.98
7842.2
7841.32
7840.1
7838.68
7836.85
7834.54
7831.69
7827.73
7822.97
7816.46
7811.25
7844.38
7844.61
7844.3
7843.85
7843.29
7842.49
7841.59
7840.34
7838.9
7837.02
7834.68
7831.77
7827.77
7822.94
7816.37
7811.1
7844.72
7845
7844.69
7844.22
7843.66
7842.84
7841.91
7840.64
7839.16
7837.24
7834.86
7831.89
7827.83
7822.93
7816.29
7810.95
7845.12
7845.45
7845.14
7844.66
7844.09
7843.25
7842.3
7840.99
7839.48
7837.52
7835.09
7832.05
7827.92
7822.94
7816.22
7810.8
7845.57
7845.97
7845.65
7845.17
7844.59
7843.73
7842.76
7841.43
7839.88
7837.87
7835.39
7832.28
7828.08
7822.99
7816.18
7810.65
7846.09
7846.56
7846.24
7845.75
7845.17
7844.3
7843.31
7841.95
7840.37
7838.31
7835.78
7832.59
7828.31
7823.09
7816.18
7810.52
7846.68
7847.22
7846.91
7846.41
7845.83
7844.95
7843.96
7842.57
7840.97
7838.86
7836.27
7833
7828.63
7823.28
7816.25
7810.41
7847.35
7847.96
7847.66
7847.17
7846.59
7845.71
7844.71
7843.31
7841.69
7839.55
7836.91
7833.55
7829.09
7823.58
7816.4
7810.36
7848.09
7848.78
7848.49
7848
7847.44
7846.57
7845.58
7844.19
7842.56
7840.39
7837.71
7834.27
7829.71
7824.04
7816.69
7810.38
7848.9
7849.65
7849.39
7848.91
7848.38
7847.53
7846.58
7845.2
7843.59
7841.42
7838.72
7835.22
7830.57
7824.71
7817.16
7810.53
7849.77
7850.57
7850.33
7849.89
7849.4
7848.6
7847.69
7846.37
7844.8
7842.66
7839.98
7836.44
7831.73
7825.69
7817.9
7810.83
7850.68
7851.52
7851.31
7850.91
7850.48
7849.75
7848.92
7847.69
7846.2
7844.15
7841.53
7838.03
7833.3
7827.11
7819.07
7811.42
7851.62
7852.45
7852.29
7851.95
7851.6
7850.96
7850.24
7849.14
7847.79
7845.9
7843.42
7840.05
7835.41
7829.2
7821.05
7812.83
7852.53
7853.31
7853.21
7852.95
7852.7
7852.19
7851.62
7850.71
7849.55
7847.9
7845.66
7842.58
7838.23
7832.3
7824.52
7816.54
7853.38
7854.06
7854.02
7853.85
7853.72
7853.38
7852.99
7852.32
7851.42
7850.1
7848.21
7845.56
7841.7
7836.36
7829.36
7822.42
7854.11
7854.61
7854.64
7854.57
7854.58
7854.43
7854.26
7853.88
7853.29
7852.39
7850.93
7848.84
7845.57
7840.97
7834.84
7828.93
7854.63
7854.86
7854.97
7855.02
7855.19
7855.25
7855.33
7855.28
7855.05
7854.62
7853.67
7852.25
7849.67
7845.93
7840.74
7835.79
7854.86
7854.74
7854.93
7855.1
7855.43
7855.72
7856.07
7856.37
7856.55
7856.65
7856.26
7855.61
7853.79
7851.06
7846.9
7842.93
7854.7
7854.13
7854.4
7854.7
7855.2
7855.72
7856.35
7857.02
7857.61
7858.28
7858.5
7858.71
7857.73
7856.23
7853.19
7850.36
7854.06
7852.93
7853.28
7853.7
7854.37
7855.11
7856.02
7857.05
7858.08
7859.32
7860.17
7861.31
7861.24
7861.23
7859.39
7858.19
7852.83
7851.07
7851.49
7852.01
7852.82
7853.75
7854.9
7856.23
7857.63
7859.37
7860.82
7862.85
7863.78
7865.55
7865.26
7866.44
7850.95
7848.26
7848.75
7849.38
7850.35
7851.46
7852.85
7854.49
7856.26
7858.46
7860.5
7863.34
7865.32
7868.79
7870.36
7874.61
7848.12
7844.92
7845.51
7846.29
7847.45
7848.82
7850.52
7852.52
7854.73
7857.44
7860.09
7863.68
7866.62
7871.43
7874.73
7882.13
7844.74
7842.22
7842.9
7843.82
7845.17
7846.78
7848.78
7851.12
7853.74
7856.91
7860.1
7864.31
7868.01
7873.79
7878.18
7887.64
7842
7840.57
7841.32
7842.35
7843.84
7845.64
7847.85
7850.45
7853.37
7856.85
7860.43
7865
7869.17
7875.39
7880.25
7890.19
7840.32
7839.97
7840.75
7841.84
7843.4
7845.3
7847.64
7850.37
7853.47
7857.1
7860.9
7865.57
7869.94
7876.11
7880.98
7890.33
7839.71
7840.45
7841.23
7842.31
7843.88
7845.77
7848.14
7850.87
7854.01
7857.61
7861.44
7865.97
7870.26
7875.95
7880.43
7888.51
7840.18
7841.94
7842.69
7843.72
7845.22
7847.03
7849.31
7851.93
7854.97
7858.38
7862.06
7866.21
7870.19
7875.05
7878.83
7885.17
7841.68
7844.35
7845.04
7845.99
7847.37
7849.04
7851.15
7853.53
7856.36
7859.44
7862.81
7866.38
7869.84
7873.58
7876.4
7880.69
7844.1
7847.5
7848.15
7849
7850.26
7851.74
7853.62
7855.71
7858.21
7860.85
7863.77
7866.6
7869.33
7871.73
7873.36
7875.42
7847.27
7851.23
7851.84
7852.6
7853.75
7855.05
7856.71
7858.47
7860.6
7862.7
7865.05
7867
7868.81
7869.66
7869.9
7869.68
7851.02
7855.37
7855.94
7856.64
7857.7
7858.85
7860.31
7861.77
7863.51
7865.04
7866.73
7867.69
7868.4
7867.54
7866.27
7863.83
7855.17
7859.73
7860.26
7860.88
7861.84
7862.85
7864.14
7865.39
7866.8
7867.82
7868.86
7868.83
7868.33
7865.63
7862.82
7858.33
7859.54
7864.09
7864.59
7865.15
7866.01
7866.91
7868.11
7869.31
7870.58
7871.22
7871.66
7870.57
7868.67
7864.28
7860.01
7853.82
7863.9
7868.79
7869.31
7869.88
7870.72
7871.53
7872.58
7873.31
7873.82
7873.43
7872.57
7870.14
7867.17
7862.05
7857.61
7850.76
7868.59
7873.04
7873.38
7873.69
7874.1
7874.24
7874.24
7873.66
7872.81
7871.11
7869.05
7865.96
7862.95
7858.47
7854.8
7848.95
7872.9
7873.32
7873.23
7872.98
7872.62
7871.99
7871.03
7869.72
7868.24
7866.24
7864.08
7861.3
7858.57
7855.02
7851.75
7847.34
7873.35
7869.83
7869.56
7869.09
7868.45
7867.57
7866.51
7865.34
7863.99
7862.22
7860.27
7857.76
7855.23
7852.04
7848.95
7845.43
7869.92
7865.92
7865.68
7865.27
7864.71
7863.94
7862.97
7861.77
7860.41
7858.7
7856.87
7854.62
7852.34
7849.56
7846.88
7843.59
7866.01
7862.62
7862.35
7861.92
7861.32
7860.56
7859.63
7858.51
7857.24
7855.69
7854.03
7852.02
7849.99
7847.55
7845.2
7842.4
7862.72
7859.53
7859.26
7858.86
7858.3
7857.59
7856.73
7855.68
7854.5
7853.09
7851.58
7849.8
7848
7845.88
7843.85
7841.42
7859.62
7856.78
7856.51
7856.14
7855.61
7854.95
7854.14
7853.19
7852.11
7850.84
7849.5
7847.93
7846.35
7844.51
7842.76
7840.69
7856.87
7854.3
7854.05
7853.71
7853.21
7852.61
7851.88
7851.01
7850.04
7848.91
7847.71
7846.33
7844.96
7843.37
7841.87
7840.1
7854.38
7852.09
7851.85
7851.54
7851.09
7850.54
7849.88
7849.1
7848.23
7847.23
7846.18
7844.98
7843.78
7842.42
7841.14
7839.62
7852.17
7850.12
7849.9
7849.62
7849.21
7848.72
7848.12
7847.43
7846.66
7845.78
7844.86
7843.81
7842.78
7841.61
7840.52
7839.23
7850.19
7848.37
7848.17
7847.92
7847.55
7847.11
7846.58
7845.97
7845.29
7844.52
7843.72
7842.81
7841.92
7840.92
7839.99
7838.9
7848.43
7846.82
7846.63
7846.41
7846.08
7845.7
7845.22
7844.69
7844.09
7843.42
7842.72
7841.94
7841.18
7840.32
7839.53
7838.6
7846.87
7845.44
7845.27
7845.08
7844.78
7844.44
7844.03
7843.56
7843.04
7842.46
7841.85
7841.18
7840.53
7839.8
7839.13
7838.34
7845.49
7844.21
7844.06
7843.89
7843.63
7843.34
7842.97
7842.56
7842.11
7841.61
7841.09
7840.51
7839.95
7839.33
7838.76
7838.09
7844.25
7843.13
7842.99
7842.84
7842.61
7842.36
7842.04
7841.68
7841.29
7840.86
7840.41
7839.92
7839.44
7838.91
7838.43
7837.85
7843.16
7842.16
7842.04
7841.91
7841.71
7841.48
7841.21
7840.9
7840.56
7840.19
7839.8
7839.38
7838.98
7838.53
7838.12
7837.62
7842.19
7841.29
7841.19
7841.08
7840.9
7840.71
7840.47
7840.2
7839.91
7839.59
7839.26
7838.9
7838.55
7838.17
7837.82
7837.4
7841.32
7840.52
7840.43
7840.33
7840.18
7840.01
7839.8
7839.58
7839.32
7839.05
7838.77
7838.46
7838.17
7837.84
7837.54
7837.18
7840.55
7839.83
7839.75
7839.67
7839.53
7839.39
7839.21
7839.01
7838.8
7838.56
7838.32
7838.06
7837.81
7837.53
7837.27
7836.95
7839.85
7839.21
7839.14
7839.07
7838.95
7838.83
7838.67
7838.5
7838.32
7838.11
7837.91
7837.68
7837.47
7837.23
7837.01
7836.73
7839.23
7838.65
7838.58
7838.52
7838.42
7838.32
7838.18
7838.04
7837.88
7837.7
7837.53
7837.33
7837.15
7836.95
7836.76
7836.51
7838.66
7838.14
7838.08
7838.03
7837.94
7837.85
7837.74
7837.61
7837.47
7837.32
7837.17
7837.01
7836.85
7836.68
7836.51
7836.29
7838.15
7837.67
7837.63
7837.58
7837.51
7837.43
7837.33
7837.22
7837.1
7836.97
7836.84
7836.7
7836.57
7836.42
7836.27
7836.07
7837.69
7837.25
7837.21
7837.17
7837.1
7837.04
7836.95
7836.86
7836.75
7836.64
7836.53
7836.41
7836.29
7836.16
7836.03
7835.86
7837.26
7836.86
7836.82
7836.79
7836.73
7836.68
7836.6
7836.52
7836.43
7836.34
7836.24
7836.13
7836.03
7835.92
7835.8
7835.64
7836.87
7836.5
7836.47
7836.44
7836.39
7836.34
7836.28
7836.21
7836.13
7836.05
7835.96
7835.87
7835.78
7835.68
7835.58
7835.43
7836.51
7836.17
7836.14
7836.12
7836.07
7836.03
7835.97
7835.91
7835.85
7835.77
7835.7
7835.62
7835.54
7835.45
7835.36
7835.22
7836.18
7835.86
7835.84
7835.82
7835.78
7835.74
7835.69
7835.64
7835.58
7835.51
7835.45
7835.38
7835.31
7835.23
7835.14
7835.01
7835.87
7835.58
7835.55
7835.53
7835.5
7835.47
7835.42
7835.38
7835.32
7835.27
7835.21
7835.15
7835.08
7835.01
7834.93
7834.81
7835.58
7835.31
7835.29
7835.27
7835.24
7835.21
7835.17
7835.13
7835.08
7835.03
7834.98
7834.93
7834.87
7834.8
7834.73
7834.61
7835.31
7835.06
7835.04
7835.02
7835
7834.97
7834.93
7834.9
7834.86
7834.81
7834.76
7834.71
7834.66
7834.6
7834.53
7834.42
7835.06
7834.82
7834.8
7834.79
7834.77
7834.74
7834.71
7834.68
7834.64
7834.6
7834.55
7834.51
7834.46
7834.4
7834.34
7834.23
7834.82
7834.6
7834.58
7834.57
7834.55
7834.53
7834.5
7834.47
7834.43
7834.39
7834.35
7834.31
7834.27
7834.21
7834.15
7834.05
7834.6
7834.39
7834.38
7834.36
7834.34
7834.32
7834.3
7834.27
7834.23
7834.2
7834.16
7834.12
7834.08
7834.03
7833.97
7833.87
7834.39
7834.19
7834.18
7834.17
7834.15
7834.13
7834.11
7834.08
7834.05
7834.01
7833.98
7833.94
7833.9
7833.85
7833.79
7833.69
7834.2
7834.01
7834
7833.99
7833.97
7833.95
7833.93
7833.9
7833.87
7833.84
7833.8
7833.76
7833.73
7833.68
7833.62
7833.52
7834.01
7833.83
7833.82
7833.81
7833.8
7833.78
7833.75
7833.73
7833.7
7833.67
7833.63
7833.6
7833.56
7833.51
7833.45
7833.36
7833.84
7833.67
7833.66
7833.65
7833.63
7833.62
7833.59
7833.57
7833.54
7833.51
7833.47
7833.44
7833.4
7833.35
7833.29
7833.19
7833.67
7833.52
7833.51
7833.5
7833.48
7833.46
7833.44
7833.42
7833.39
7833.36
7833.32
7833.29
7833.25
7833.2
7833.14
7833.04
7833.52
7833.38
7833.37
7833.36
7833.34
7833.32
7833.3
7833.28
7833.25
7833.21
7833.18
7833.14
7833.1
7833.05
7832.99
7832.88
7833.38
7833.25
7833.24
7833.23
7833.21
7833.19
7833.17
7833.14
7833.11
7833.08
7833.04
7833
7832.96
7832.91
7832.84
7832.74
7833.25
7833.13
7833.12
7833.11
7833.09
7833.07
7833.05
7833.02
7832.99
7832.96
7832.92
7832.88
7832.83
7832.77
7832.7
7832.59
7833.13
7833.02
7833.01
7833
7832.98
7832.96
7832.94
7832.91
7832.88
7832.84
7832.8
7832.76
7832.71
7832.65
7832.57
7832.46
7833.02
7832.92
7832.91
7832.9
7832.88
7832.86
7832.84
7832.81
7832.78
7832.74
7832.7
7832.65
7832.6
7832.53
7832.45
7832.33
7832.92
7832.83
7832.82
7832.81
7832.79
7832.77
7832.75
7832.72
7832.69
7832.65
7832.61
7832.55
7832.5
7832.43
7832.34
7832.2
7832.83
7832.75
7832.75
7832.73
7832.72
7832.7
7832.67
7832.64
7832.61
7832.57
7832.53
7832.47
7832.41
7832.33
7832.24
7832.09
7832.76
7832.69
7832.68
7832.67
7832.65
7832.63
7832.61
7832.58
7832.55
7832.51
7832.46
7832.41
7832.34
7832.26
7832.15
7831.99
7832.69
7832.63
7832.62
7832.61
7832.6
7832.58
7832.56
7832.53
7832.5
7832.46
7832.41
7832.36
7832.29
7832.21
7832.08
7831.9
7832.63
7832.58
7832.58
7832.57
7832.55
7832.54
7832.52
7832.49
7832.46
7832.42
7832.38
7832.33
7832.26
7832.18
7832.05
7831.86
7832.59
7832.54
7832.54
7832.53
7832.52
7832.5
7832.48
7832.46
7832.43
7832.4
7832.36
7832.32
7832.27
7832.21
7832.11
7831.96
7832.55
7832.53
7832.52
7832.51
7832.5
7832.49
7832.47
7832.45
7832.43
7832.4
7832.37
7832.33
7832.29
7832.24
7832.18
7832.07
7832.53
7832.53
7832.52
7832.51
7832.5
7832.49
7832.47
7832.45
7832.43
7832.4
7832.37
7832.33
7832.29
7832.24
7832.18
7832.07
7832.53
)
;

boundaryField
{
    wireUpstream
    {
        type            calculated;
        value           nonuniform List<scalar> 
16
(
7832.51
7832.5
7832.5
7832.49
7832.47
7832.46
7832.44
7832.42
7832.39
7832.36
7832.33
7832.3
7832.27
7832.24
7832.22
7832.51
)
;
    }
    wireDownstream
    {
        type            calculated;
        value           nonuniform List<scalar> 
16
(
7840.13
7839.93
7839.68
7839.33
7838.83
7838.21
7837.38
7836.3
7834.97
7833.14
7830.91
7827.6
7823.66
7817.85
7813.16
7840.18
)
;
    }
    wireTopContact
    {
        type            calculated;
        value           nonuniform List<scalar> 
122
(
7812.93
7812.92
7812.89
7812.85
7812.81
7812.76
7812.72
7812.67
7812.63
7812.59
7812.55
7812.51
7812.47
7812.44
7812.4
7812.37
7812.33
7812.3
7812.26
7812.22
7812.18
7812.14
7812.09
7812.04
7811.99
7811.93
7811.86
7811.78
7811.7
7811.61
7811.5
7811.39
7811.27
7811.13
7810.99
7810.84
7810.68
7810.53
7810.39
7810.26
7810.17
7810.13
7810.18
7810.36
7810.72
7811.39
7812.75
7816.46
7822.51
7829.06
7835.98
7843.2
7850.64
7858.29
7866.23
7874.2
7881.75
7887.27
7889.68
7889.75
7887.97
7884.68
7880.28
7875.1
7869.49
7863.85
7858.64
7854.42
7851.5
7849.5
7847.28
7845.4
7843.62
7842.4
7841.41
7840.66
7840.06
7839.58
7839.19
7838.85
7838.56
7838.29
7838.04
7837.81
7837.58
7837.36
7837.14
7836.92
7836.7
7836.49
7836.27
7836.05
7835.84
7835.62
7835.41
7835.2
7835
7834.8
7834.6
7834.41
7834.22
7834.04
7833.86
7833.68
7833.51
7833.35
7833.19
7833.03
7832.88
7832.73
7832.59
7832.45
7832.32
7832.2
7832.09
7831.99
7831.91
7831.86
7831.95
7832.03
7832.03
7812.94
)
;
    }
    front
    {
        type            wedge;
    }
    back
    {
        type            wedge;
    }
}


// ************************************************************************* //
