/*--------------------------------*- C++ -*----------------------------------*\
| =========                 |                                                 |
| \\      /  F ield         | foam-extend: Open Source CFD                    |
|  \\    /   O peration     | Version:     4.1-20200408                       |
|   \\  /    A nd           | Web:         http://www.foam-extend.org         |
|    \\/     M anipulation  |                                                 |
\*---------------------------------------------------------------------------*/
FoamFile
{
    version     2.0;
    format      ascii;
    class       volVectorField;
    location    "0.0285000";
    object      U_0;
}
// * * * * * * * * * * * * * * * * * * * * * * * * * * * * * * * * * * * * * //

dimensions      [0 1 0 0 0 0 0];

internalField   nonuniform List<vector> 
1952
(
(0.0282609 -9.21459e-07 0)
(0.0282608 -1.49988e-06 0)
(0.0282606 -2.08612e-06 0)
(0.0282604 -2.67328e-06 0)
(0.0282602 -3.26181e-06 0)
(0.0282599 -3.84757e-06 0)
(0.0282595 -4.43363e-06 0)
(0.0282591 -5.01397e-06 0)
(0.0282588 -5.59246e-06 0)
(0.0282584 -6.16262e-06 0)
(0.028258 -6.72544e-06 0)
(0.0282577 -7.27555e-06 0)
(0.0282574 -7.80614e-06 0)
(0.0282573 -8.31821e-06 0)
(0.0282573 -8.78924e-06 0)
(0.028261 -3.9475e-07 0)
(0.0282597 -9.26418e-07 0)
(0.0282596 -1.50795e-06 0)
(0.0282594 -2.09723e-06 0)
(0.0282592 -2.68742e-06 0)
(0.028259 -3.27901e-06 0)
(0.0282587 -3.86763e-06 0)
(0.0282583 -4.4566e-06 0)
(0.0282579 -5.03959e-06 0)
(0.0282576 -5.62091e-06 0)
(0.0282572 -6.19344e-06 0)
(0.0282568 -6.75888e-06 0)
(0.0282565 -7.31107e-06 0)
(0.0282562 -7.84396e-06 0)
(0.0282561 -8.35772e-06 0)
(0.0282561 -8.83054e-06 0)
(0.0282597 -3.96878e-07 0)
(0.0282585 -9.31079e-07 0)
(0.0282584 -1.5155e-06 0)
(0.0282582 -2.10772e-06 0)
(0.028258 -2.70078e-06 0)
(0.0282578 -3.29521e-06 0)
(0.0282574 -3.88659e-06 0)
(0.0282571 -4.47825e-06 0)
(0.0282567 -5.06385e-06 0)
(0.0282563 -5.64784e-06 0)
(0.0282559 -6.22269e-06 0)
(0.0282556 -6.79059e-06 0)
(0.0282552 -7.34483e-06 0)
(0.028255 -7.8799e-06 0)
(0.0282548 -8.39542e-06 0)
(0.0282549 -8.87006e-06 0)
(0.0282585 -3.98874e-07 0)
(0.0282573 -9.35498e-07 0)
(0.0282572 -1.52266e-06 0)
(0.028257 -2.11767e-06 0)
(0.0282568 -2.71347e-06 0)
(0.0282565 -3.31059e-06 0)
(0.0282562 -3.90464e-06 0)
(0.0282559 -4.49886e-06 0)
(0.0282555 -5.08696e-06 0)
(0.0282551 -5.67348e-06 0)
(0.0282547 -6.25058e-06 0)
(0.0282544 -6.82081e-06 0)
(0.028254 -7.37708e-06 0)
(0.0282538 -7.91428e-06 0)
(0.0282536 -8.43163e-06 0)
(0.0282536 -8.90822e-06 0)
(0.0282573 -4.00767e-07 0)
(0.0282561 -9.39713e-07 0)
(0.028256 -1.5295e-06 0)
(0.0282558 -2.12715e-06 0)
(0.0282556 -2.72559e-06 0)
(0.0282553 -3.32528e-06 0)
(0.028255 -3.92191e-06 0)
(0.0282547 -4.51857e-06 0)
(0.0282543 -5.1091e-06 0)
(0.0282539 -5.69803e-06 0)
(0.0282535 -6.27739e-06 0)
(0.0282531 -6.84986e-06 0)
(0.0282528 -7.40823e-06 0)
(0.0282525 -7.94748e-06 0)
(0.0282524 -8.46684e-06 0)
(0.0282524 -8.94546e-06 0)
(0.0282561 -4.02571e-07 0)
(0.0282548 -9.43767e-07 0)
(0.0282547 -1.53608e-06 0)
(0.0282546 -2.13629e-06 0)
(0.0282543 -2.73728e-06 0)
(0.0282541 -3.33945e-06 0)
(0.0282538 -3.93857e-06 0)
(0.0282534 -4.53763e-06 0)
(0.028253 -5.13049e-06 0)
(0.0282527 -5.72174e-06 0)
(0.0282522 -6.30334e-06 0)
(0.0282519 -6.878e-06 0)
(0.0282515 -7.43851e-06 0)
(0.0282513 -7.97978e-06 0)
(0.0282512 -8.50121e-06 0)
(0.0282512 -8.98189e-06 0)
(0.0282549 -4.04307e-07 0)
(0.0282536 -9.47685e-07 0)
(0.0282535 -1.54245e-06 0)
(0.0282533 -2.14512e-06 0)
(0.0282531 -2.74857e-06 0)
(0.0282529 -3.35315e-06 0)
(0.0282525 -3.9547e-06 0)
(0.0282522 -4.55604e-06 0)
(0.0282518 -5.15119e-06 0)
(0.0282514 -5.74475e-06 0)
(0.028251 -6.32858e-06 0)
(0.0282506 -6.90542e-06 0)
(0.0282503 -7.46808e-06 0)
(0.0282501 -8.01143e-06 0)
(0.0282499 -8.53493e-06 0)
(0.0282499 -9.01771e-06 0)
(0.0282537 -4.05984e-07 0)
(0.0282524 -9.51493e-07 0)
(0.0282523 -1.54863e-06 0)
(0.0282521 -2.15371e-06 0)
(0.0282519 -2.75955e-06 0)
(0.0282516 -3.36649e-06 0)
(0.0282513 -3.9704e-06 0)
(0.028251 -4.57403e-06 0)
(0.0282506 -5.17148e-06 0)
(0.0282502 -5.76728e-06 0)
(0.0282498 -6.35337e-06 0)
(0.0282494 -6.9324e-06 0)
(0.0282491 -7.49723e-06 0)
(0.0282488 -8.04268e-06 0)
(0.0282487 -8.56823e-06 0)
(0.0282487 -9.05308e-06 0)
(0.0282524 -4.07615e-07 0)
(0.0282512 -9.5522e-07 0)
(0.028251 -1.55468e-06 0)
(0.0282509 -2.16213e-06 0)
(0.0282506 -2.7703e-06 0)
(0.0282504 -3.3796e-06 0)
(0.0282501 -3.9858e-06 0)
(0.0282497 -4.59175e-06 0)
(0.0282493 -5.19151e-06 0)
(0.0282489 -5.78949e-06 0)
(0.0282485 -6.37782e-06 0)
(0.0282482 -6.95898e-06 0)
(0.0282478 -7.52597e-06 0)
(0.0282476 -8.07349e-06 0)
(0.0282474 -8.60108e-06 0)
(0.0282474 -9.08801e-06 0)
(0.0282512 -4.0921e-07 0)
(0.0282499 -9.5888e-07 0)
(0.0282498 -1.56062e-06 0)
(0.0282496 -2.17039e-06 0)
(0.0282494 -2.78085e-06 0)
(0.0282491 -3.39248e-06 0)
(0.0282488 -4.00089e-06 0)
(0.0282485 -4.60917e-06 0)
(0.0282481 -5.21123e-06 0)
(0.0282477 -5.81139e-06 0)
(0.0282473 -6.40195e-06 0)
(0.0282469 -6.98524e-06 0)
(0.0282466 -7.55441e-06 0)
(0.0282463 -8.10399e-06 0)
(0.0282462 -8.63366e-06 0)
(0.0282462 -9.12267e-06 0)
(0.0282499 -4.10776e-07 0)
(0.0282487 -9.62489e-07 0)
(0.0282485 -1.56648e-06 0)
(0.0282484 -2.17856e-06 0)
(0.0282482 -2.79127e-06 0)
(0.0282479 -3.40522e-06 0)
(0.0282476 -4.01585e-06 0)
(0.0282472 -4.62641e-06 0)
(0.0282468 -5.23075e-06 0)
(0.0282464 -5.83313e-06 0)
(0.028246 -6.42592e-06 0)
(0.0282456 -7.01136e-06 0)
(0.0282453 -7.58269e-06 0)
(0.0282451 -8.13439e-06 0)
(0.0282449 -8.66609e-06 0)
(0.0282449 -9.15714e-06 0)
(0.0282487 -4.1232e-07 0)
(0.0282474 -9.6607e-07 0)
(0.0282473 -1.57229e-06 0)
(0.0282471 -2.18667e-06 0)
(0.0282469 -2.80163e-06 0)
(0.0282466 -3.4179e-06 0)
(0.0282463 -4.03076e-06 0)
(0.028246 -4.64359e-06 0)
(0.0282456 -5.25015e-06 0)
(0.0282452 -5.85475e-06 0)
(0.0282448 -6.44973e-06 0)
(0.0282444 -7.03732e-06 0)
(0.028244 -7.61078e-06 0)
(0.0282438 -8.16456e-06 0)
(0.0282436 -8.69827e-06 0)
(0.0282436 -9.19136e-06 0)
(0.0282475 -4.13852e-07 0)
(0.0282462 -9.69631e-07 0)
(0.028246 -1.57807e-06 0)
(0.0282459 -2.19473e-06 0)
(0.0282456 -2.81191e-06 0)
(0.0282454 -3.43047e-06 0)
(0.0282451 -4.04553e-06 0)
(0.0282447 -4.66058e-06 0)
(0.0282443 -5.26938e-06 0)
(0.0282439 -5.87616e-06 0)
(0.0282435 -6.47335e-06 0)
(0.0282431 -7.06306e-06 0)
(0.0282428 -7.63867e-06 0)
(0.0282425 -8.19449e-06 0)
(0.0282424 -8.73026e-06 0)
(0.0282424 -9.22542e-06 0)
(0.0282462 -4.15376e-07 0)
(0.0282449 -9.73163e-07 0)
(0.0282448 -1.5838e-06 0)
(0.0282446 -2.20273e-06 0)
(0.0282444 -2.8221e-06 0)
(0.0282441 -3.44293e-06 0)
(0.0282438 -4.06014e-06 0)
(0.0282434 -4.67742e-06 0)
(0.028243 -5.28847e-06 0)
(0.0282426 -5.89747e-06 0)
(0.0282422 -6.49686e-06 0)
(0.0282418 -7.08875e-06 0)
(0.0282415 -7.66649e-06 0)
(0.0282413 -8.22444e-06 0)
(0.0282411 -8.76225e-06 0)
(0.0282411 -9.25943e-06 0)
(0.0282449 -4.16886e-07 0)
(0.0282436 -9.76686e-07 0)
(0.0282435 -1.58952e-06 0)
(0.0282434 -2.21071e-06 0)
(0.0282431 -2.83229e-06 0)
(0.0282429 -3.45539e-06 0)
(0.0282425 -4.0748e-06 0)
(0.0282422 -4.69428e-06 0)
(0.0282418 -5.30754e-06 0)
(0.0282414 -5.91874e-06 0)
(0.0282409 -6.52029e-06 0)
(0.0282406 -7.11434e-06 0)
(0.0282402 -7.69421e-06 0)
(0.02824 -8.25425e-06 0)
(0.0282398 -8.79407e-06 0)
(0.0282398 -9.29329e-06 0)
(0.0282437 -4.18393e-07 0)
(0.0282424 -9.80188e-07 0)
(0.0282422 -1.59519e-06 0)
(0.0282421 -2.21863e-06 0)
(0.0282419 -2.8424e-06 0)
(0.0282416 -3.46775e-06 0)
(0.0282413 -4.08933e-06 0)
(0.0282409 -4.711e-06 0)
(0.0282405 -5.32649e-06 0)
(0.0282401 -5.93987e-06 0)
(0.0282397 -6.5436e-06 0)
(0.0282393 -7.13982e-06 0)
(0.0282389 -7.72181e-06 0)
(0.0282387 -8.28394e-06 0)
(0.0282385 -8.82578e-06 0)
(0.0282385 -9.32705e-06 0)
(0.0282424 -4.19891e-07 0)
(0.0282411 -9.8367e-07 0)
(0.028241 -1.60084e-06 0)
(0.0282408 -2.22651e-06 0)
(0.0282406 -2.85245e-06 0)
(0.0282403 -3.48003e-06 0)
(0.02824 -4.10379e-06 0)
(0.0282396 -4.72768e-06 0)
(0.0282392 -5.34537e-06 0)
(0.0282388 -5.96094e-06 0)
(0.0282384 -6.56683e-06 0)
(0.028238 -7.16523e-06 0)
(0.0282377 -7.74934e-06 0)
(0.0282374 -8.31359e-06 0)
(0.0282373 -8.85746e-06 0)
(0.0282373 -9.36077e-06 0)
(0.0282411 -4.21381e-07 0)
(0.0282398 -9.87131e-07 0)
(0.0282397 -1.60646e-06 0)
(0.0282395 -2.23435e-06 0)
(0.0282393 -2.86244e-06 0)
(0.028239 -3.49218e-06 0)
(0.0282387 -4.11822e-06 0)
(0.0282383 -4.74433e-06 0)
(0.0282379 -5.36422e-06 0)
(0.0282375 -5.98195e-06 0)
(0.0282371 -6.58998e-06 0)
(0.0282367 -7.19058e-06 0)
(0.0282364 -7.7768e-06 0)
(0.0282361 -8.34317e-06 0)
(0.028236 -8.88907e-06 0)
(0.028236 -9.39442e-06 0)
(0.0282399 -4.22863e-07 0)
(0.0282386 -9.90572e-07 0)
(0.0282384 -1.61206e-06 0)
(0.0282383 -2.24214e-06 0)
(0.028238 -2.87239e-06 0)
(0.0282377 -3.50428e-06 0)
(0.0282374 -4.13259e-06 0)
(0.0282371 -4.76092e-06 0)
(0.0282366 -5.38301e-06 0)
(0.0282362 -6.0029e-06 0)
(0.0282358 -6.61306e-06 0)
(0.0282354 -7.21589e-06 0)
(0.0282351 -7.80421e-06 0)
(0.0282348 -8.37272e-06 0)
(0.0282347 -8.92065e-06 0)
(0.0282347 -9.42805e-06 0)
(0.0282386 -4.24337e-07 0)
(0.0282373 -9.93982e-07 0)
(0.0282371 -1.61762e-06 0)
(0.028237 -2.24985e-06 0)
(0.0282367 -2.88232e-06 0)
(0.0282365 -3.51638e-06 0)
(0.0282361 -4.14688e-06 0)
(0.0282358 -4.77744e-06 0)
(0.0282353 -5.40169e-06 0)
(0.0282349 -6.0238e-06 0)
(0.0282345 -6.63609e-06 0)
(0.0282341 -7.24112e-06 0)
(0.0282338 -7.83155e-06 0)
(0.0282335 -8.4022e-06 0)
(0.0282334 -8.95216e-06 0)
(0.0282334 -9.4616e-06 0)
(0.0282373 -4.25799e-07 0)
(0.028236 -9.97371e-07 0)
(0.0282358 -1.62316e-06 0)
(0.0282357 -2.25752e-06 0)
(0.0282354 -2.89219e-06 0)
(0.0282352 -3.5284e-06 0)
(0.0282348 -4.16106e-06 0)
(0.0282345 -4.79386e-06 0)
(0.0282341 -5.42026e-06 0)
(0.0282336 -6.04461e-06 0)
(0.0282332 -6.65905e-06 0)
(0.0282328 -7.26627e-06 0)
(0.0282325 -7.85883e-06 0)
(0.0282322 -8.43161e-06 0)
(0.0282321 -8.9836e-06 0)
(0.0282321 -9.4951e-06 0)
(0.028236 -4.27253e-07 0)
(0.0282347 -1.00074e-06 0)
(0.0282346 -1.62866e-06 0)
(0.0282344 -2.26516e-06 0)
(0.0282341 -2.90201e-06 0)
(0.0282339 -3.54036e-06 0)
(0.0282335 -4.17517e-06 0)
(0.0282332 -4.81018e-06 0)
(0.0282327 -5.43873e-06 0)
(0.0282323 -6.0653e-06 0)
(0.0282319 -6.6819e-06 0)
(0.0282315 -7.29131e-06 0)
(0.0282312 -7.886e-06 0)
(0.0282309 -8.46091e-06 0)
(0.0282307 -9.01495e-06 0)
(0.0282307 -9.5285e-06 0)
(0.0282347 -4.287e-07 0)
(0.0282334 -1.00408e-06 0)
(0.0282333 -1.63412e-06 0)
(0.0282331 -2.27272e-06 0)
(0.0282328 -2.91174e-06 0)
(0.0282326 -3.55222e-06 0)
(0.0282322 -4.18916e-06 0)
(0.0282319 -4.82638e-06 0)
(0.0282314 -5.45708e-06 0)
(0.028231 -6.08586e-06 0)
(0.0282306 -6.70462e-06 0)
(0.0282302 -7.31622e-06 0)
(0.0282298 -7.91306e-06 0)
(0.0282296 -8.4901e-06 0)
(0.0282294 -9.04619e-06 0)
(0.0282294 -9.56181e-06 0)
(0.0282334 -4.30133e-07 0)
(0.0282321 -1.0074e-06 0)
(0.028232 -1.63953e-06 0)
(0.0282318 -2.28023e-06 0)
(0.0282315 -2.92139e-06 0)
(0.0282313 -3.56397e-06 0)
(0.0282309 -4.20304e-06 0)
(0.0282306 -4.84245e-06 0)
(0.0282301 -5.47531e-06 0)
(0.0282297 -6.10627e-06 0)
(0.0282293 -6.7272e-06 0)
(0.0282289 -7.34098e-06 0)
(0.0282285 -7.93998e-06 0)
(0.0282283 -8.51915e-06 0)
(0.0282281 -9.07731e-06 0)
(0.0282281 -9.59503e-06 0)
(0.0282321 -4.31555e-07 0)
(0.0282308 -1.01068e-06 0)
(0.0282307 -1.64486e-06 0)
(0.0282305 -2.28766e-06 0)
(0.0282302 -2.93091e-06 0)
(0.02823 -3.57561e-06 0)
(0.0282296 -4.21684e-06 0)
(0.0282292 -4.85838e-06 0)
(0.0282288 -5.4934e-06 0)
(0.0282284 -6.12653e-06 0)
(0.028228 -6.74963e-06 0)
(0.0282276 -7.36559e-06 0)
(0.0282272 -7.96676e-06 0)
(0.0282269 -8.54808e-06 0)
(0.0282268 -9.10834e-06 0)
(0.0282268 -9.62816e-06 0)
(0.0282308 -4.32959e-07 0)
(0.0282295 -1.01392e-06 0)
(0.0282293 -1.65013e-06 0)
(0.0282292 -2.29502e-06 0)
(0.0282289 -2.94033e-06 0)
(0.0282286 -3.58719e-06 0)
(0.0282283 -4.23058e-06 0)
(0.0282279 -4.87422e-06 0)
(0.0282275 -5.51141e-06 0)
(0.0282271 -6.14668e-06 0)
(0.0282266 -6.77197e-06 0)
(0.0282262 -7.39011e-06 0)
(0.0282259 -7.99345e-06 0)
(0.0282256 -8.57695e-06 0)
(0.0282255 -9.13929e-06 0)
(0.0282255 -9.66123e-06 0)
(0.0282295 -4.34349e-07 0)
(0.0282282 -1.01716e-06 0)
(0.028228 -1.6554e-06 0)
(0.0282279 -2.30237e-06 0)
(0.0282276 -2.94975e-06 0)
(0.0282273 -3.59871e-06 0)
(0.028227 -4.24422e-06 0)
(0.0282266 -4.88995e-06 0)
(0.0282262 -5.52929e-06 0)
(0.0282258 -6.16669e-06 0)
(0.0282253 -6.79415e-06 0)
(0.0282249 -7.41446e-06 0)
(0.0282245 -8.01997e-06 0)
(0.0282243 -8.60563e-06 0)
(0.0282241 -9.17009e-06 0)
(0.0282241 -9.6942e-06 0)
(0.0282282 -4.35736e-07 0)
(0.0282268 -1.02037e-06 0)
(0.0282267 -1.66061e-06 0)
(0.0282265 -2.30965e-06 0)
(0.0282263 -2.95905e-06 0)
(0.028226 -3.6101e-06 0)
(0.0282257 -4.25774e-06 0)
(0.0282253 -4.90557e-06 0)
(0.0282248 -5.54706e-06 0)
(0.0282244 -6.18657e-06 0)
(0.028224 -6.81621e-06 0)
(0.0282236 -7.43869e-06 0)
(0.0282232 -8.04641e-06 0)
(0.0282229 -8.63425e-06 0)
(0.0282228 -9.20088e-06 0)
(0.0282228 -9.72719e-06 0)
(0.0282269 -4.37111e-07 0)
(0.0282255 -1.02359e-06 0)
(0.0282254 -1.66585e-06 0)
(0.0282252 -2.31695e-06 0)
(0.028225 -2.96838e-06 0)
(0.0282247 -3.62151e-06 0)
(0.0282243 -4.27127e-06 0)
(0.0282239 -4.92118e-06 0)
(0.0282235 -5.56482e-06 0)
(0.0282231 -6.20645e-06 0)
(0.0282226 -6.83826e-06 0)
(0.0282222 -7.46294e-06 0)
(0.0282219 -8.07285e-06 0)
(0.0282216 -8.66293e-06 0)
(0.0282214 -9.23174e-06 0)
(0.0282214 -9.76026e-06 0)
(0.0282256 -4.38491e-07 0)
(0.0282242 -1.02685e-06 0)
(0.0282241 -1.67113e-06 0)
(0.0282239 -2.32431e-06 0)
(0.0282236 -2.97781e-06 0)
(0.0282233 -3.633e-06 0)
(0.028223 -4.28486e-06 0)
(0.0282226 -4.93685e-06 0)
(0.0282222 -5.58262e-06 0)
(0.0282217 -6.22636e-06 0)
(0.0282213 -6.86035e-06 0)
(0.0282209 -7.4872e-06 0)
(0.0282205 -8.09932e-06 0)
(0.0282203 -8.69163e-06 0)
(0.0282201 -9.26261e-06 0)
(0.0282201 -9.79337e-06 0)
(0.0282242 -4.39884e-07 0)
(0.0282229 -1.03015e-06 0)
(0.0282227 -1.6765e-06 0)
(0.0282226 -2.33177e-06 0)
(0.0282223 -2.98735e-06 0)
(0.028222 -3.6446e-06 0)
(0.0282217 -4.29859e-06 0)
(0.0282213 -4.95264e-06 0)
(0.0282208 -5.60055e-06 0)
(0.0282204 -6.24641e-06 0)
(0.02822 -6.88255e-06 0)
(0.0282195 -7.51158e-06 0)
(0.0282192 -8.12589e-06 0)
(0.0282189 -8.72044e-06 0)
(0.0282187 -9.2936e-06 0)
(0.0282187 -9.82667e-06 0)
(0.0282229 -4.413e-07 0)
(0.0282215 -1.03355e-06 0)
(0.0282214 -1.682e-06 0)
(0.0282212 -2.33941e-06 0)
(0.028221 -2.99709e-06 0)
(0.0282207 -3.65642e-06 0)
(0.0282203 -4.31258e-06 0)
(0.0282199 -4.96869e-06 0)
(0.0282195 -5.61875e-06 0)
(0.0282191 -6.2667e-06 0)
(0.0282186 -6.90499e-06 0)
(0.0282182 -7.53619e-06 0)
(0.0282178 -8.15268e-06 0)
(0.0282175 -8.74947e-06 0)
(0.0282174 -9.32484e-06 0)
(0.0282174 -9.86025e-06 0)
(0.0282216 -4.42754e-07 0)
(0.0282202 -1.03707e-06 0)
(0.0282201 -1.68772e-06 0)
(0.0282199 -2.34734e-06 0)
(0.0282196 -3.00721e-06 0)
(0.0282193 -3.66867e-06 0)
(0.028219 -4.32703e-06 0)
(0.0282186 -4.98524e-06 0)
(0.0282181 -5.63745e-06 0)
(0.0282177 -6.28749e-06 0)
(0.0282173 -6.92793e-06 0)
(0.0282168 -7.5613e-06 0)
(0.0282165 -8.17995e-06 0)
(0.0282162 -8.77902e-06 0)
(0.028216 -9.35657e-06 0)
(0.028216 -9.89434e-06 0)
(0.0282203 -4.44264e-07 0)
(0.0282189 -1.04081e-06 0)
(0.0282187 -1.69378e-06 0)
(0.0282186 -2.35572e-06 0)
(0.0282183 -3.01791e-06 0)
(0.028218 -3.68158e-06 0)
(0.0282176 -4.34217e-06 0)
(0.0282172 -5.0025e-06 0)
(0.0282168 -5.65688e-06 0)
(0.0282164 -6.309e-06 0)
(0.0282159 -6.95155e-06 0)
(0.0282155 -7.58705e-06 0)
(0.0282151 -8.20783e-06 0)
(0.0282148 -8.80914e-06 0)
(0.0282146 -9.38887e-06 0)
(0.0282146 -9.9291e-06 0)
(0.0282189 -4.45868e-07 0)
(0.0282175 -1.04481e-06 0)
(0.0282174 -1.70028e-06 0)
(0.0282172 -2.36463e-06 0)
(0.028217 -3.02932e-06 0)
(0.0282166 -3.69535e-06 0)
(0.0282163 -4.35827e-06 0)
(0.0282159 -5.02077e-06 0)
(0.0282154 -5.67735e-06 0)
(0.028215 -6.33155e-06 0)
(0.0282145 -6.97623e-06 0)
(0.0282141 -7.61385e-06 0)
(0.0282137 -8.23676e-06 0)
(0.0282134 -8.84031e-06 0)
(0.0282133 -9.42225e-06 0)
(0.0282133 -9.96497e-06 0)
(0.0282176 -4.47584e-07 0)
(0.0282162 -1.04924e-06 0)
(0.028216 -1.70746e-06 0)
(0.0282159 -2.37447e-06 0)
(0.0282156 -3.04186e-06 0)
(0.0282153 -3.71039e-06 0)
(0.0282149 -4.37579e-06 0)
(0.0282145 -5.04055e-06 0)
(0.0282141 -5.6994e-06 0)
(0.0282136 -6.35571e-06 0)
(0.0282132 -7.00251e-06 0)
(0.0282127 -7.64222e-06 0)
(0.0282124 -8.26721e-06 0)
(0.0282121 -8.87304e-06 0)
(0.0282119 -9.45713e-06 0)
(0.0282119 -1.00023e-05 0)
(0.0282162 -4.49483e-07 0)
(0.0282148 -1.05423e-06 0)
(0.0282147 -1.71554e-06 0)
(0.0282145 -2.38552e-06 0)
(0.0282142 -3.05589e-06 0)
(0.0282139 -3.7271e-06 0)
(0.0282136 -4.39518e-06 0)
(0.0282132 -5.0623e-06 0)
(0.0282127 -5.72353e-06 0)
(0.0282123 -6.38195e-06 0)
(0.0282118 -7.03089e-06 0)
(0.0282114 -7.67264e-06 0)
(0.028211 -8.29966e-06 0)
(0.0282107 -8.90764e-06 0)
(0.0282105 -9.49385e-06 0)
(0.0282105 -1.00416e-05 0)
(0.0282149 -4.51623e-07 0)
(0.0282135 -1.05991e-06 0)
(0.0282133 -1.72472e-06 0)
(0.0282132 -2.39804e-06 0)
(0.0282129 -3.07174e-06 0)
(0.0282126 -3.74596e-06 0)
(0.0282122 -4.417e-06 0)
(0.0282118 -5.08669e-06 0)
(0.0282114 -5.75044e-06 0)
(0.0282109 -6.41103e-06 0)
(0.0282104 -7.06212e-06 0)
(0.02821 -7.70586e-06 0)
(0.0282096 -8.33488e-06 0)
(0.0282093 -8.94496e-06 0)
(0.0282091 -9.53326e-06 0)
(0.0282091 -1.00836e-05 0)
(0.0282135 -4.54061e-07 0)
(0.0282121 -1.06651e-06 0)
(0.028212 -1.73538e-06 0)
(0.0282118 -2.41255e-06 0)
(0.0282115 -3.09009e-06 0)
(0.0282112 -3.76768e-06 0)
(0.0282108 -4.44206e-06 0)
(0.0282104 -5.11455e-06 0)
(0.02821 -5.78103e-06 0)
(0.0282095 -6.44387e-06 0)
(0.028209 -7.09716e-06 0)
(0.0282086 -7.74284e-06 0)
(0.0282082 -8.37376e-06 0)
(0.0282079 -8.98587e-06 0)
(0.0282077 -9.57615e-06 0)
(0.0282077 -1.0129e-05 0)
(0.0282122 -4.56892e-07 0)
(0.0282108 -1.07425e-06 0)
(0.0282106 -1.74788e-06 0)
(0.0282104 -2.42959e-06 0)
(0.0282102 -3.11156e-06 0)
(0.0282098 -3.79304e-06 0)
(0.0282095 -4.4712e-06 0)
(0.0282091 -5.14687e-06 0)
(0.0282086 -5.81636e-06 0)
(0.0282081 -6.48157e-06 0)
(0.0282077 -7.13714e-06 0)
(0.0282072 -7.78468e-06 0)
(0.0282068 -8.4174e-06 0)
(0.0282065 -9.03137e-06 0)
(0.0282063 -9.62342e-06 0)
(0.0282063 -1.01786e-05 0)
(0.0282108 -4.60213e-07 0)
(0.0282094 -1.08337e-06 0)
(0.0282092 -1.76259e-06 0)
(0.028209 -2.44966e-06 0)
(0.0282088 -3.13682e-06 0)
(0.0282085 -3.82289e-06 0)
(0.0282081 -4.50546e-06 0)
(0.0282077 -5.18474e-06 0)
(0.0282072 -5.85764e-06 0)
(0.0282068 -6.52541e-06 0)
(0.0282063 -7.18339e-06 0)
(0.0282058 -7.83271e-06 0)
(0.0282054 -8.46709e-06 0)
(0.0282051 -9.08268e-06 0)
(0.0282049 -9.67625e-06 0)
(0.0282049 -1.02338e-05 0)
(0.0282094 -4.64125e-07 0)
(0.028208 -1.09413e-06 0)
(0.0282079 -1.77992e-06 0)
(0.0282077 -2.47338e-06 0)
(0.0282074 -3.16668e-06 0)
(0.0282071 -3.85822e-06 0)
(0.0282067 -4.54599e-06 0)
(0.0282063 -5.22949e-06 0)
(0.0282058 -5.90634e-06 0)
(0.0282054 -6.57697e-06 0)
(0.0282049 -7.23758e-06 0)
(0.0282044 -7.88862e-06 0)
(0.028204 -8.52455e-06 0)
(0.0282037 -9.14146e-06 0)
(0.0282035 -9.73624e-06 0)
(0.0282034 -1.02959e-05 0)
(0.028208 -4.68739e-07 0)
(0.0282066 -1.10683e-06 0)
(0.0282065 -1.80039e-06 0)
(0.0282063 -2.50141e-06 0)
(0.028206 -3.202e-06 0)
(0.0282057 -3.90007e-06 0)
(0.0282053 -4.59401e-06 0)
(0.0282049 -5.28255e-06 0)
(0.0282044 -5.96409e-06 0)
(0.028204 -6.63806e-06 0)
(0.0282035 -7.30166e-06 0)
(0.028203 -7.95444e-06 0)
(0.0282026 -8.59187e-06 0)
(0.0282023 -9.20974e-06 0)
(0.0282021 -9.80536e-06 0)
(0.028202 -1.03668e-05 0)
(0.0282066 -4.74184e-07 0)
(0.0282052 -1.12173e-06 0)
(0.0282051 -1.82444e-06 0)
(0.0282049 -2.53438e-06 0)
(0.0282046 -3.2436e-06 0)
(0.0282043 -3.94949e-06 0)
(0.0282039 -4.65083e-06 0)
(0.0282035 -5.34553e-06 0)
(0.028203 -6.03274e-06 0)
(0.0282026 -6.71076e-06 0)
(0.0282021 -7.37797e-06 0)
(0.0282016 -8.0327e-06 0)
(0.0282012 -8.67171e-06 0)
(0.0282009 -9.29021e-06 0)
(0.0282006 -9.88627e-06 0)
(0.0282006 -1.04491e-05 0)
(0.0282052 -4.80573e-07 0)
(0.0282038 -1.13908e-06 0)
(0.0282036 -1.85249e-06 0)
(0.0282034 -2.57289e-06 0)
(0.0282032 -3.29229e-06 0)
(0.0282029 -4.00754e-06 0)
(0.0282025 -4.71777e-06 0)
(0.0282021 -5.42001e-06 0)
(0.0282016 -6.11422e-06 0)
(0.0282012 -6.79739e-06 0)
(0.0282007 -7.46915e-06 0)
(0.0282002 -8.12633e-06 0)
(0.0281998 -8.76723e-06 0)
(0.0281994 -9.38607e-06 0)
(0.0281992 -9.98216e-06 0)
(0.0281991 -1.05457e-05 0)
(0.0282038 -4.88014e-07 0)
(0.0282023 -1.15904e-06 0)
(0.0282022 -1.88481e-06 0)
(0.028202 -2.61737e-06 0)
(0.0282017 -3.34866e-06 0)
(0.0282014 -4.07502e-06 0)
(0.0282011 -4.79591e-06 0)
(0.0282007 -5.50746e-06 0)
(0.0282002 -6.21039e-06 0)
(0.0281997 -6.90026e-06 0)
(0.0281993 -7.57804e-06 0)
(0.0281988 -8.23864e-06 0)
(0.0281984 -8.88217e-06 0)
(0.028198 -9.50122e-06 0)
(0.0281978 -1.00969e-05 0)
(0.0281977 -1.06599e-05 0)
(0.0282024 -4.96574e-07 0)
(0.0282008 -1.18166e-06 0)
(0.0282007 -1.92148e-06 0)
(0.0282005 -2.66797e-06 0)
(0.0282003 -3.413e-06 0)
(0.0282 -4.15242e-06 0)
(0.0281996 -4.88597e-06 0)
(0.0281992 -5.60896e-06 0)
(0.0281988 -6.32279e-06 0)
(0.0281983 -7.02152e-06 0)
(0.0281978 -7.70753e-06 0)
(0.0281974 -8.37338e-06 0)
(0.0281969 -9.02124e-06 0)
(0.0281966 -9.6412e-06 0)
(0.0281963 -1.02365e-05 0)
(0.0281962 -1.07976e-05 0)
(0.0282009 -5.0627e-07 0)
(0.0281993 -1.20679e-06 0)
(0.0281992 -1.96231e-06 0)
(0.028199 -2.72446e-06 0)
(0.0281988 -3.48508e-06 0)
(0.0281985 -4.23959e-06 0)
(0.0281982 -4.98796e-06 0)
(0.0281978 -5.72479e-06 0)
(0.0281973 -6.45212e-06 0)
(0.0281969 -7.16256e-06 0)
(0.0281964 -7.85992e-06 0)
(0.0281959 -8.5342e-06 0)
(0.0281955 -9.18996e-06 0)
(0.0281952 -9.81392e-06 0)
(0.0281949 -1.04119e-05 0)
(0.0281948 -1.09723e-05 0)
(0.0281994 -5.17043e-07 0)
(0.0281978 -1.23407e-06 0)
(0.0281977 -2.0067e-06 0)
(0.0281975 -2.78608e-06 0)
(0.0281973 -3.56397e-06 0)
(0.028197 -4.3355e-06 0)
(0.0281967 -5.10083e-06 0)
(0.0281963 -5.85399e-06 0)
(0.0281959 -6.59761e-06 0)
(0.0281954 -7.32299e-06 0)
(0.0281949 -8.03552e-06 0)
(0.0281945 -8.72252e-06 0)
(0.0281941 -9.39164e-06 0)
(0.0281937 -1.00257e-05 0)
(0.0281935 -1.06344e-05 0)
(0.0281933 -1.12025e-05 0)
(0.0281979 -5.28734e-07 0)
(0.0281963 -1.26285e-06 0)
(0.0281961 -2.05365e-06 0)
(0.028196 -2.85145e-06 0)
(0.0281957 -3.64791e-06 0)
(0.0281955 -4.43808e-06 0)
(0.0281951 -5.22217e-06 0)
(0.0281948 -5.9939e-06 0)
(0.0281944 -6.75635e-06 0)
(0.0281939 -7.49972e-06 0)
(0.0281935 -8.23096e-06 0)
(0.028193 -8.93468e-06 0)
(0.0281926 -9.62216e-06 0)
(0.0281923 -1.02716e-05 0)
(0.028192 -1.08982e-05 0)
(0.0281918 -1.14812e-05 0)
(0.0281963 -5.41068e-07 0)
(0.0281947 -1.29222e-06 0)
(0.0281945 -2.10164e-06 0)
(0.0281944 -2.91848e-06 0)
(0.0281942 -3.73426e-06 0)
(0.0281939 -4.54411e-06 0)
(0.0281936 -5.34819e-06 0)
(0.0281932 -6.14017e-06 0)
(0.0281928 -6.92335e-06 0)
(0.0281924 -7.68709e-06 0)
(0.028192 -8.43966e-06 0)
(0.0281916 -9.16287e-06 0)
(0.0281912 -9.87182e-06 0)
(0.0281908 -1.0539e-05 0)
(0.0281906 -1.11853e-05 0)
(0.0281904 -1.17829e-05 0)
(0.0281947 -5.53652e-07 0)
(0.028193 -1.32102e-06 0)
(0.0281929 -2.14878e-06 0)
(0.0281927 -2.9845e-06 0)
(0.0281925 -3.81958e-06 0)
(0.0281923 -4.64936e-06 0)
(0.028192 -5.47386e-06 0)
(0.0281916 -6.28695e-06 0)
(0.0281913 -7.09187e-06 0)
(0.0281909 -7.8775e-06 0)
(0.0281904 -8.65305e-06 0)
(0.0281901 -9.39755e-06 0)
(0.0281897 -1.01298e-05 0)
(0.0281894 -1.08154e-05 0)
(0.0281891 -1.14821e-05 0)
(0.0281889 -1.2093e-05 0)
(0.0281931 -5.65993e-07 0)
(0.0281913 -1.34789e-06 0)
(0.0281912 -2.1928e-06 0)
(0.0281911 -3.0463e-06 0)
(0.0281909 -3.89972e-06 0)
(0.0281906 -4.7487e-06 0)
(0.0281903 -5.59301e-06 0)
(0.02819 -6.42703e-06 0)
(0.0281897 -7.25364e-06 0)
(0.0281893 -8.06168e-06 0)
(0.0281889 -8.86075e-06 0)
(0.0281885 -9.62749e-06 0)
(0.0281882 -1.03839e-05 0)
(0.0281879 -1.10882e-05 0)
(0.0281876 -1.17755e-05 0)
(0.0281875 -1.23983e-05 0)
(0.0281914 -5.77499e-07 0)
(0.0281896 -1.37122e-06 0)
(0.0281895 -2.23109e-06 0)
(0.0281894 -3.10023e-06 0)
(0.0281892 -3.9699e-06 0)
(0.0281889 -4.83617e-06 0)
(0.0281887 -5.69849e-06 0)
(0.0281884 -6.55201e-06 0)
(0.028188 -7.39892e-06 0)
(0.0281877 -8.22872e-06 0)
(0.0281873 -9.05055e-06 0)
(0.028187 -9.83971e-06 0)
(0.0281866 -1.06205e-05 0)
(0.0281864 -1.13431e-05 0)
(0.0281862 -1.20522e-05 0)
(0.0281861 -1.26849e-05 0)
(0.0281897 -5.87488e-07 0)
(0.0281879 -1.38928e-06 0)
(0.0281878 -2.26081e-06 0)
(0.0281876 -3.14225e-06 0)
(0.0281875 -4.02483e-06 0)
(0.0281872 -4.90516e-06 0)
(0.028187 -5.78225e-06 0)
(0.0281867 -6.65234e-06 0)
(0.0281864 -7.51659e-06 0)
(0.028186 -8.36595e-06 0)
(0.0281857 -9.2082e-06 0)
(0.0281854 -1.0019e-05 0)
(0.0281851 -1.08231e-05 0)
(0.0281849 -1.15644e-05 0)
(0.0281847 -1.22974e-05 0)
(0.0281847 -1.29376e-05 0)
(0.0281879 -5.95208e-07 0)
(0.0281861 -1.40036e-06 0)
(0.028186 -2.27915e-06 0)
(0.0281859 -3.16841e-06 0)
(0.0281857 -4.05937e-06 0)
(0.0281855 -4.94919e-06 0)
(0.0281852 -5.83639e-06 0)
(0.0281849 -6.71853e-06 0)
(0.0281847 -7.59545e-06 0)
(0.0281843 -8.46033e-06 0)
(0.028184 -9.31866e-06 0)
(0.0281838 -1.01487e-05 0)
(0.0281835 -1.09732e-05 0)
(0.0281834 -1.17338e-05 0)
(0.0281833 -1.24911e-05 0)
(0.0281833 -1.31352e-05 0)
(0.0281861 -5.99935e-07 0)
(0.0281843 -1.40327e-06 0)
(0.0281842 -2.28415e-06 0)
(0.0281841 -3.17596e-06 0)
(0.0281839 -4.06986e-06 0)
(0.0281837 -4.96364e-06 0)
(0.0281835 -5.85518e-06 0)
(0.0281832 -6.74341e-06 0)
(0.0281829 -7.62658e-06 0)
(0.0281826 -8.50051e-06 0)
(0.0281824 -9.3676e-06 0)
(0.0281821 -1.02106e-05 0)
(0.028182 -1.1047e-05 0)
(0.0281819 -1.18236e-05 0)
(0.0281819 -1.25954e-05 0)
(0.0281819 -1.32363e-05 0)
(0.0281843 -6.01171e-07 0)
(0.0281825 -1.39674e-06 0)
(0.0281824 -2.27362e-06 0)
(0.0281822 -3.16162e-06 0)
(0.0281821 -4.05179e-06 0)
(0.0281819 -4.94238e-06 0)
(0.0281817 -5.83052e-06 0)
(0.0281814 -6.71625e-06 0)
(0.0281812 -7.59608e-06 0)
(0.0281809 -8.46821e-06 0)
(0.0281807 -9.33149e-06 0)
(0.0281805 -1.01736e-05 0)
(0.0281804 -1.10054e-05 0)
(0.0281803 -1.17818e-05 0)
(0.0281804 -1.25478e-05 0)
(0.0281807 -1.3179e-05 0)
(0.0281825 -5.98363e-07 0)
(0.0281806 -1.37706e-06 0)
(0.0281805 -2.24144e-06 0)
(0.0281804 -3.11668e-06 0)
(0.0281803 -3.99357e-06 0)
(0.0281801 -4.87069e-06 0)
(0.0281799 -5.74423e-06 0)
(0.0281797 -6.61504e-06 0)
(0.0281794 -7.47775e-06 0)
(0.0281792 -8.33263e-06 0)
(0.028179 -9.17476e-06 0)
(0.0281789 -9.99681e-06 0)
(0.0281788 -1.08022e-05 0)
(0.0281789 -1.15565e-05 0)
(0.0281791 -1.22932e-05 0)
(0.0281795 -1.29044e-05 0)
(0.0281807 -5.8993e-07 0)
(0.0281788 -1.33984e-06 0)
(0.0281787 -2.18048e-06 0)
(0.0281786 -3.0312e-06 0)
(0.0281785 -3.88254e-06 0)
(0.0281783 -4.73319e-06 0)
(0.0281782 -5.57833e-06 0)
(0.028178 -6.41943e-06 0)
(0.0281778 -7.24917e-06 0)
(0.0281776 -8.06969e-06 0)
(0.0281774 -8.87242e-06 0)
(0.0281773 -9.65504e-06 0)
(0.0281773 -1.04138e-05 0)
(0.0281775 -1.11268e-05 0)
(0.0281778 -1.18142e-05 0)
(0.0281783 -1.23957e-05 0)
(0.0281788 -5.73993e-07 0)
(0.0281771 -1.28268e-06 0)
(0.028177 -2.08686e-06 0)
(0.0281769 -2.89992e-06 0)
(0.0281768 -3.71216e-06 0)
(0.0281766 -4.5223e-06 0)
(0.0281765 -5.32462e-06 0)
(0.0281763 -6.12102e-06 0)
(0.0281761 -6.90245e-06 0)
(0.028176 -7.67283e-06 0)
(0.0281759 -8.42031e-06 0)
(0.0281759 -9.14788e-06 0)
(0.028176 -9.84529e-06 0)
(0.0281762 -1.05047e-05 0)
(0.0281766 -1.11328e-05 0)
(0.0281773 -1.16826e-05 0)
(0.0281771 -5.49523e-07 0)
(0.0281754 -1.20608e-06 0)
(0.0281754 -1.96144e-06 0)
(0.0281753 -2.72409e-06 0)
(0.0281752 -3.48427e-06 0)
(0.028175 -4.2407e-06 0)
(0.0281749 -4.98695e-06 0)
(0.0281748 -5.72539e-06 0)
(0.0281747 -6.44554e-06 0)
(0.0281746 -7.1532e-06 0)
(0.0281745 -7.83383e-06 0)
(0.0281746 -8.49589e-06 0)
(0.0281747 -9.12366e-06 0)
(0.028175 -9.72376e-06 0)
(0.0281756 -1.02902e-05 0)
(0.0281763 -1.08098e-05 0)
(0.0281754 -5.16729e-07 0)
(0.0281739 -1.11359e-06 0)
(0.0281738 -1.81005e-06 0)
(0.0281738 -2.51188e-06 0)
(0.0281737 -3.20944e-06 0)
(0.0281736 -3.90145e-06 0)
(0.0281735 -4.58113e-06 0)
(0.0281734 -5.2513e-06 0)
(0.0281733 -5.90067e-06 0)
(0.0281733 -6.53687e-06 0)
(0.0281733 -7.14352e-06 0)
(0.0281734 -7.73437e-06 0)
(0.0281736 -8.2893e-06 0)
(0.028174 -8.82854e-06 0)
(0.0281746 -9.33451e-06 0)
(0.0281755 -9.82564e-06 0)
(0.0281739 -4.7714e-07 0)
(0.0281725 -1.01092e-06 0)
(0.0281725 -1.64203e-06 0)
(0.0281724 -2.27637e-06 0)
(0.0281724 -2.90454e-06 0)
(0.0281723 -3.52523e-06 0)
(0.0281722 -4.13162e-06 0)
(0.0281722 -4.72701e-06 0)
(0.0281721 -5.29987e-06 0)
(0.0281721 -5.85967e-06 0)
(0.0281722 -6.38906e-06 0)
(0.0281724 -6.90653e-06 0)
(0.0281727 -7.38877e-06 0)
(0.0281731 -7.86771e-06 0)
(0.0281738 -8.31585e-06 0)
(0.0281747 -8.7792e-06 0)
(0.0281725 -4.33192e-07 0)
(0.0281713 -9.04324e-07 0)
(0.0281713 -1.46772e-06 0)
(0.0281712 -2.03223e-06 0)
(0.0281712 -2.58872e-06 0)
(0.0281712 -3.13581e-06 0)
(0.0281711 -3.66668e-06 0)
(0.0281711 -4.18504e-06 0)
(0.0281711 -4.67966e-06 0)
(0.0281712 -5.16168e-06 0)
(0.0281713 -5.6137e-06 0)
(0.0281715 -6.05802e-06 0)
(0.0281719 -6.46959e-06 0)
(0.0281724 -6.88953e-06 0)
(0.0281731 -7.28278e-06 0)
(0.028174 -7.7179e-06 0)
(0.0281713 -3.87565e-07 0)
(0.0281703 -7.99238e-07 0)
(0.0281703 -1.29613e-06 0)
(0.0281702 -1.79233e-06 0)
(0.0281702 -2.2791e-06 0)
(0.0281702 -2.75488e-06 0)
(0.0281702 -3.21276e-06 0)
(0.0281702 -3.65649e-06 0)
(0.0281703 -4.07543e-06 0)
(0.0281704 -4.48197e-06 0)
(0.0281706 -4.85946e-06 0)
(0.0281708 -5.23283e-06 0)
(0.0281712 -5.5768e-06 0)
(0.0281717 -5.93905e-06 0)
(0.0281724 -6.28e-06 0)
(0.0281733 -6.6853e-06 0)
(0.0281703 -3.42575e-07 0)
(0.0281694 -6.99566e-07 0)
(0.0281694 -1.13367e-06 0)
(0.0281694 -1.56578e-06 0)
(0.0281694 -1.98781e-06 0)
(0.0281694 -2.39816e-06 0)
(0.0281695 -2.78966e-06 0)
(0.0281695 -3.16567e-06 0)
(0.0281696 -3.51602e-06 0)
(0.0281698 -3.85352e-06 0)
(0.02817 -4.16279e-06 0)
(0.0281703 -4.46985e-06 0)
(0.0281707 -4.75058e-06 0)
(0.0281712 -5.05641e-06 0)
(0.0281719 -5.34695e-06 0)
(0.0281727 -5.71936e-06 0)
(0.0281694 -2.99891e-07 0)
(0.0281687 -6.07754e-07 0)
(0.0281687 -9.84241e-07 0)
(0.0281687 -1.35792e-06 0)
(0.0281688 -1.72162e-06 0)
(0.0281688 -2.07409e-06 0)
(0.0281689 -2.40808e-06 0)
(0.028169 -2.72648e-06 0)
(0.0281691 -3.01932e-06 0)
(0.0281693 -3.29852e-06 0)
(0.0281695 -3.55005e-06 0)
(0.0281699 -3.79927e-06 0)
(0.0281703 -4.02412e-06 0)
(0.0281708 -4.27625e-06 0)
(0.0281714 -4.51794e-06 0)
(0.0281722 -4.85218e-06 0)