/*--------------------------------*- C++ -*----------------------------------*\
| =========                 |                                                 |
| \\      /  F ield         | OpenFOAM: The Open Source CFD Toolbox           |
|  \\    /   O peration     | Version:  4.1                                   |
|   \\  /    A nd           | Web:      www.OpenFOAM.org                      |
|    \\/     M anipulation  |                                                 |
\*---------------------------------------------------------------------------*/
FoamFile
{
    version     2.0;
    format      ascii;
    class       pointVectorField;
    location    "0.0026";
    object      pointDisplacement_Next_Iter1;
}
// * * * * * * * * * * * * * * * * * * * * * * * * * * * * * * * * * * * * * //

dimensions      [0 1 0 0 0 0 0];

internalField   uniform (0 0 0);

boundaryField
{
    inlet
    {
        type            fixedValue;
        value           uniform (0 0 0);
    }
    outlet
    {
        type            fixedValue;
        value           uniform (0 0 0);
    }
    mantle
    {
        type            fixedValue;
        value           nonuniform List<vector> 
1568
(
(2.8616e-12 -2.1799e-11 1.4606e-16)
(7.2384e-06 -5.7574e-05 4.6842e-10)
(7.269e-06 -5.531e-05 1.0321e-05)
(3.9938e-09 -2.0175e-07 -1.046e-07)
(7.2936e-06 -5.08e-05 2.1052e-05)
(2.8334e-12 -2.0013e-11 7.7457e-12)
(7.2808e-06 -4.6392e-05 3.1817e-05)
(4.415e-09 -6.7432e-08 2.1693e-07)
(7.2549e-06 -4.07e-05 4.0701e-05)
(2.8997e-12 -1.6063e-11 1.6064e-11)
(7.2809e-06 -3.1816e-05 4.6392e-05)
(4.4129e-09 -2.1694e-07 6.745e-08)
(7.2937e-06 -2.1051e-05 5.08e-05)
(2.8336e-12 -7.7456e-12 2.0013e-11)
(7.2692e-06 -1.032e-05 5.5309e-05)
(4.0003e-09 1.0462e-07 2.0174e-07)
(7.2386e-06 2.0278e-10 5.7572e-05)
(2.8617e-12 7.684e-17 2.1799e-11)
(1.3326e-05 -0.00010263 7.8185e-10)
(1.3378e-05 -9.815e-05 1.8512e-05)
(1.3426e-05 -9.0298e-05 3.7423e-05)
(1.3408e-05 -8.245e-05 5.6316e-05)
(1.3368e-05 -7.2537e-05 7.2538e-05)
(1.3408e-05 -5.6315e-05 8.245e-05)
(1.3426e-05 -3.7422e-05 9.0298e-05)
(1.3379e-05 -1.851e-05 9.8148e-05)
(1.3327e-05 3.4282e-10 0.00010263)
(1.6903e-05 -0.00012005 5.6517e-10)
(1.6914e-05 -0.00011686 2.2746e-05)
(1.6955e-05 -0.0001091 4.5217e-05)
(1.6966e-05 -9.8627e-05 6.6527e-05)
(1.6976e-05 -8.4803e-05 8.4804e-05)
(1.6966e-05 -6.6526e-05 9.8629e-05)
(1.6955e-05 -4.5216e-05 0.0001091)
(1.6914e-05 -2.2745e-05 0.00011685)
(1.6903e-05 3.7508e-10 0.00012004)
(1.6449e-05 -0.0001211 2.6957e-10)
(1.6441e-05 -0.00011951 2.3898e-05)
(1.6521e-05 -0.00011293 4.6788e-05)
(1.6516e-05 -0.00010124 6.7517e-05)
(1.6556e-05 -8.5448e-05 8.545e-05)
(1.6516e-05 -6.7516e-05 0.00010125)
(1.6521e-05 -4.6787e-05 0.00011293)
(1.6441e-05 -2.3897e-05 0.00011951)
(1.6448e-05 4.3381e-10 0.0001211)
(1.1858e-05 -0.00012144 3.0924e-10)
(1.201e-05 -0.00011949 2.3946e-05)
(1.2188e-05 -0.00011284 4.672e-05)
(1.21e-05 -0.00010115 6.7344e-05)
(1.1987e-05 -8.5521e-05 8.5521e-05)
(1.21e-05 -6.7343e-05 0.00010115)
(1.2188e-05 -4.6719e-05 0.00011284)
(1.201e-05 -2.3945e-05 0.00011949)
(1.1858e-05 5.2003e-10 0.00012144)
(5.9168e-06 -0.00012254 4.8056e-10)
(6.2267e-06 -0.00011998 2.3874e-05)
(6.4858e-06 -0.00011279 4.6693e-05)
(6.3089e-06 -0.0001013 6.7628e-05)
(6.0377e-06 -8.6103e-05 8.6103e-05)
(6.3092e-06 -6.7627e-05 0.0001013)
(6.4863e-06 -4.6691e-05 0.00011279)
(6.2273e-06 -2.3873e-05 0.00011998)
(5.9174e-06 5.8523e-10 0.00012254)
(1.5793e-06 -0.00012135 3.8657e-10)
(1.7127e-06 -0.00011865 2.3486e-05)
(1.8419e-06 -0.00011124 4.6099e-05)
(1.7484e-06 -9.994e-05 6.6928e-05)
(1.6315e-06 -8.5116e-05 8.5117e-05)
(1.7489e-06 -6.6927e-05 9.994e-05)
(1.8428e-06 -4.6097e-05 0.00011124)
(1.714e-06 -2.3485e-05 0.00011865)
(1.5808e-06 4.2e-10 0.00012135)
(-1.3214e-06 -0.00011632 1.5151e-10)
(-1.3669e-06 -0.00011367 2.252e-05)
(-1.4008e-06 -0.0001065 4.4186e-05)
(-1.4003e-06 -9.5678e-05 6.4113e-05)
(-1.3687e-06 -8.1505e-05 8.1506e-05)
(-1.3998e-06 -6.4111e-05 9.5676e-05)
(-1.3998e-06 -4.4184e-05 0.00010649)
(-1.3654e-06 -2.2519e-05 0.00011367)
(-1.3196e-06 1.2783e-10 0.00011631)
(-3.8914e-06 -0.0001066 6.408e-10)
(-3.9457e-06 -0.00010424 2.0623e-05)
(-4.0282e-06 -9.7717e-05 4.0512e-05)
(-4.0469e-06 -8.7804e-05 5.8842e-05)
(-4.0367e-06 -7.4797e-05 7.4797e-05)
(-4.0464e-06 -5.884e-05 8.7802e-05)
(-4.0274e-06 -4.051e-05 9.7713e-05)
(-3.9445e-06 -2.0622e-05 0.00010424)
(-3.89e-06 -6.6583e-10 0.0001066)
(-6.5135e-06 -9.3075e-05 -1.7361e-10)
(-6.5739e-06 -9.1073e-05 1.8008e-05)
(-6.66e-06 -8.5472e-05 3.5399e-05)
(-6.7128e-06 -7.6865e-05 5.1469e-05)
(-6.7154e-06 -6.5477e-05 6.5478e-05)
(-6.7125e-06 -5.1468e-05 7.6863e-05)
(-6.6595e-06 -3.5397e-05 8.5469e-05)
(-6.5732e-06 -1.8007e-05 9.1069e-05)
(-6.5128e-06 -2.5498e-12 9.3072e-05)
(-9.2918e-06 -7.7322e-05 -9.2002e-11)
(-9.3667e-06 -7.574e-05 1.4988e-05)
(-9.4742e-06 -7.1206e-05 2.9472e-05)
(-9.4889e-06 -6.4108e-05 4.2895e-05)
(-9.4667e-06 -5.4605e-05 5.4605e-05)
(-9.4887e-06 -4.2894e-05 6.4107e-05)
(-9.4737e-06 -2.9471e-05 7.1204e-05)
(-9.3662e-06 -1.4987e-05 7.5737e-05)
(-9.2912e-06 5.098e-11 7.732e-05)
(-1.2165e-05 -6.2037e-05 -1.1646e-10)
(-1.2252e-05 -6.0828e-05 1.205e-05)
(-1.2359e-05 -5.727e-05 2.3709e-05)
(-1.2335e-05 -5.1655e-05 3.4563e-05)
(-1.2282e-05 -4.402e-05 4.402e-05)
(-1.2335e-05 -3.4563e-05 5.1654e-05)
(-1.2359e-05 -2.3709e-05 5.7268e-05)
(-1.2251e-05 -1.205e-05 6.0827e-05)
(-1.2164e-05 2.8109e-10 6.2035e-05)
(-1.4957e-05 -4.9232e-05 5.5823e-11)
(-1.4996e-05 -4.8332e-05 9.6111e-06)
(-1.5049e-05 -4.5623e-05 1.8912e-05)
(-1.5046e-05 -4.1178e-05 2.7546e-05)
(-1.5029e-05 -3.5083e-05 3.5082e-05)
(-1.5046e-05 -2.7546e-05 4.1177e-05)
(-1.5049e-05 -1.8912e-05 4.5621e-05)
(-1.4995e-05 -9.6108e-06 4.833e-05)
(-1.4957e-05 7.3621e-11 4.9231e-05)
(-1.7125e-05 -3.9542e-05 -1.6618e-10)
(-1.7116e-05 -3.8871e-05 7.7362e-06)
(-1.7127e-05 -3.676e-05 1.5255e-05)
(-1.7139e-05 -3.3213e-05 2.2218e-05)
(-1.7163e-05 -2.8286e-05 2.8285e-05)
(-1.7139e-05 -2.2218e-05 3.3212e-05)
(-1.7127e-05 -1.5255e-05 3.6759e-05)
(-1.7115e-05 -7.7361e-06 3.8869e-05)
(-1.7125e-05 1.4603e-10 3.9541e-05)
(-1.827e-05 -3.2595e-05 -1.4815e-09)
(-1.8272e-05 -3.1989e-05 6.3256e-06)
(-1.8279e-05 -3.0228e-05 1.2511e-05)
(-1.8278e-05 -2.7378e-05 1.8328e-05)
(-1.8278e-05 -2.3394e-05 2.3392e-05)
(-1.8278e-05 -1.8329e-05 2.7377e-05)
(-1.8279e-05 -1.2511e-05 3.0226e-05)
(-1.8272e-05 -6.3256e-06 3.1987e-05)
(-1.827e-05 1.3343e-09 3.2594e-05)
(-1.8472e-05 -2.7025e-05 -2.6148e-10)
(-1.8494e-05 -2.6433e-05 5.1677e-06)
(-1.8514e-05 -2.4925e-05 1.0283e-05)
(-1.8484e-05 -2.2649e-05 1.5192e-05)
(-1.8457e-05 -1.946e-05 1.946e-05)
(-1.8484e-05 -1.5192e-05 2.2648e-05)
(-1.8514e-05 -1.0283e-05 2.4924e-05)
(-1.8494e-05 -5.1678e-06 2.6432e-05)
(-1.8472e-05 5.2693e-11 2.7023e-05)
(-1.8031e-05 -2.1638e-05 -2.5727e-10)
(-1.806e-05 -2.1212e-05 4.16e-06)
(-1.8083e-05 -2.0045e-05 8.2799e-06)
(-1.8042e-05 -1.8216e-05 1.2213e-05)
(-1.8006e-05 -1.5623e-05 1.5622e-05)
(-1.8042e-05 -1.2213e-05 1.8216e-05)
(-1.8083e-05 -8.2799e-06 2.0044e-05)
(-1.806e-05 -4.1601e-06 2.1211e-05)
(-1.8031e-05 5.4e-11 2.1637e-05)
(-1.7329e-05 -1.6536e-05 -1.7627e-10)
(-1.7367e-05 -1.6262e-05 3.2229e-06)
(-1.7392e-05 -1.5427e-05 6.3983e-06)
(-1.7348e-05 -1.4013e-05 9.3784e-06)
(-1.7301e-05 -1.198e-05 1.198e-05)
(-1.7348e-05 -9.3785e-06 1.4012e-05)
(-1.7392e-05 -6.3984e-06 1.5426e-05)
(-1.7367e-05 -3.2231e-06 1.6262e-05)
(-1.7329e-05 4.2212e-11 1.6536e-05)
(-1.6657e-05 -1.2234e-05 -1.3403e-09)
(-1.6679e-05 -1.2044e-05 2.3944e-06)
(-1.6695e-05 -1.1443e-05 4.7387e-06)
(-1.6659e-05 -1.0409e-05 6.9586e-06)
(-1.6628e-05 -8.8946e-06 8.8963e-06)
(-1.6659e-05 -6.9587e-06 1.0409e-05)
(-1.6695e-05 -4.7388e-06 1.1443e-05)
(-1.668e-05 -2.3945e-06 1.2044e-05)
(-1.6657e-05 1.3075e-09 1.2234e-05)
(-1.5947e-05 -8.9728e-06 1.0646e-11)
(-1.5957e-05 -8.8237e-06 1.7354e-06)
(-1.5965e-05 -8.3742e-06 3.4569e-06)
(-1.5937e-05 -7.6372e-06 5.1147e-06)
(-1.5918e-05 -6.5488e-06 6.5488e-06)
(-1.5937e-05 -5.1148e-06 7.6374e-06)
(-1.5965e-05 -3.457e-06 8.3746e-06)
(-1.5957e-05 -1.7355e-06 8.8243e-06)
(-1.5948e-05 5.0781e-11 8.9737e-06)
(-1.5054e-05 -6.8177e-06 1.9906e-10)
(-1.5055e-05 -6.6962e-06 1.3161e-06)
(-1.5051e-05 -6.3547e-06 2.6254e-06)
(-1.5034e-05 -5.8008e-06 3.8869e-06)
(-1.5024e-05 -4.9818e-06 4.9817e-06)
(-1.5034e-05 -3.887e-06 5.8011e-06)
(-1.5051e-05 -2.6255e-06 6.3553e-06)
(-1.5055e-05 -1.3162e-06 6.6971e-06)
(-1.5054e-05 -6.8912e-11 6.8189e-06)
(-1.3941e-05 -5.4341e-06 1.1194e-10)
(-1.3936e-05 -5.3258e-06 1.0464e-06)
(-1.3928e-05 -5.0425e-06 2.0893e-06)
(-1.3917e-05 -4.6084e-06 3.096e-06)
(-1.3914e-05 -3.9685e-06 3.9686e-06)
(-1.3917e-05 -3.096e-06 4.6087e-06)
(-1.3928e-05 -2.0893e-06 5.043e-06)
(-1.3936e-05 -1.0464e-06 5.3267e-06)
(-1.3941e-05 5.1988e-11 5.4352e-06)
(-1.2669e-05 -4.4421e-06 1.4006e-10)
(-1.2671e-05 -4.3515e-06 8.5316e-07)
(-1.267e-05 -4.1159e-06 1.7039e-06)
(-1.266e-05 -3.7602e-06 2.527e-06)
(-1.2653e-05 -3.2379e-06 3.238e-06)
(-1.266e-05 -2.5269e-06 3.7604e-06)
(-1.267e-05 -1.7039e-06 4.1163e-06)
(-1.2672e-05 -8.531e-07 4.3521e-06)
(-1.267e-05 2.4818e-11 4.4429e-06)
(-1.1395e-05 -3.5153e-06 1.3841e-10)
(-1.1407e-05 -3.4363e-06 6.6929e-07)
(-1.1416e-05 -3.249e-06 1.3414e-06)
(-1.1402e-05 -2.968e-06 1.9954e-06)
(-1.1389e-05 -2.5625e-06 2.5627e-06)
(-1.1402e-05 -1.9953e-06 2.9681e-06)
(-1.1416e-05 -1.3413e-06 3.2492e-06)
(-1.1408e-05 -6.6919e-07 3.4366e-06)
(-1.1396e-05 2.4891e-12 3.5158e-06)
(-1.0253e-05 -2.5494e-06 2.8582e-10)
(-1.0258e-05 -2.5136e-06 5.0008e-07)
(-1.0262e-05 -2.3976e-06 9.9204e-07)
(-1.0253e-05 -2.184e-06 1.4586e-06)
(-1.0246e-05 -1.8669e-06 1.8668e-06)
(-1.0254e-05 -1.4584e-06 2.184e-06)
(-1.0263e-05 -9.9187e-07 2.3976e-06)
(-1.0259e-05 -4.9994e-07 2.5136e-06)
(-1.0254e-05 -1.7598e-10 2.5494e-06)
(-9.252e-06 -1.723e-06 1.3915e-10)
(-9.2536e-06 -1.7258e-06 3.5571e-07)
(-9.2513e-06 -1.668e-06 6.9466e-07)
(-9.2476e-06 -1.5183e-06 1.0023e-06)
(-9.2416e-06 -1.2735e-06 1.2736e-06)
(-9.2478e-06 -1.0021e-06 1.5182e-06)
(-9.2518e-06 -6.9445e-07 1.6678e-06)
(-9.2543e-06 -3.5555e-07 1.7255e-06)
(-9.2528e-06 -5.9917e-11 1.7226e-06)
(-8.3477e-06 -1.2545e-06 1.4477e-10)
(-8.3483e-06 -1.2478e-06 2.55e-07)
(-8.3484e-06 -1.2035e-06 4.991e-07)
(-8.3416e-06 -1.0971e-06 7.267e-07)
(-8.3383e-06 -9.2976e-07 9.298e-07)
(-8.3419e-06 -7.2651e-07 1.0969e-06)
(-8.3489e-06 -4.9886e-07 1.2032e-06)
(-8.3489e-06 -2.5481e-07 1.2473e-06)
(-8.3485e-06 -8.4565e-11 1.2538e-06)
(-7.4821e-06 -1.0253e-06 1.5001e-10)
(-7.4856e-06 -1.0023e-06 1.9518e-07)
(-7.4903e-06 -9.5134e-07 3.9136e-07)
(-7.4811e-06 -8.7361e-07 5.8559e-07)
(-7.4759e-06 -7.5596e-07 7.5596e-07)
(-7.4813e-06 -5.8539e-07 8.7338e-07)
(-7.4908e-06 -3.9107e-07 9.5084e-07)
(-7.4864e-06 -1.9496e-07 1.0016e-06)
(-7.483e-06 -1.0775e-10 1.0243e-06)
(-6.6351e-06 -8.6798e-07 1.6156e-10)
(-6.6395e-06 -8.4532e-07 1.6185e-07)
(-6.6436e-06 -7.9648e-07 3.2779e-07)
(-6.6365e-06 -7.3254e-07 4.9399e-07)
(-6.631e-06 -6.3675e-07 6.3678e-07)
(-6.6368e-06 -4.9375e-07 7.3227e-07)
(-6.6441e-06 -3.2746e-07 7.9589e-07)
(-6.6402e-06 -1.616e-07 8.4442e-07)
(-6.636e-06 -1.083e-10 8.6682e-07)
(-5.8488e-06 -6.9937e-07 1.9156e-10)
(-5.8568e-06 -6.8119e-07 1.3058e-07)
(-5.8613e-06 -6.398e-07 2.6485e-07)
(-5.8555e-06 -5.9095e-07 3.9966e-07)
(-5.8461e-06 -5.1295e-07 5.1304e-07)
(-5.8558e-06 -3.9935e-07 5.9071e-07)
(-5.8618e-06 -2.6446e-07 6.3918e-07)
(-5.8576e-06 -1.3027e-07 6.8022e-07)
(-5.8497e-06 -9.2264e-11 6.9813e-07)
(-5.1817e-06 -5.1102e-07 1.2878e-10)
(-5.1864e-06 -5.0081e-07 9.8027e-08)
(-5.1912e-06 -4.7431e-07 1.9683e-07)
(-5.1851e-06 -4.3543e-07 2.9372e-07)
(-5.1801e-06 -3.7613e-07 3.7646e-07)
(-5.1854e-06 -2.9331e-07 4.3525e-07)
(-5.1918e-06 -1.9635e-07 4.7375e-07)
(-5.1872e-06 -9.7628e-08 4.9989e-07)
(-5.1828e-06 5.8288e-11 5.0984e-07)
(-4.6208e-06 -3.4726e-07 2.9448e-10)
(-4.6245e-06 -3.4372e-07 6.7786e-08)
(-4.6289e-06 -3.2778e-07 1.3598e-07)
(-4.6236e-06 -3.0037e-07 2.0222e-07)
(-4.6196e-06 -2.5733e-07 2.5761e-07)
(-4.6239e-06 -2.0172e-07 3.0032e-07)
(-4.6295e-06 -1.354e-07 3.2735e-07)
(-4.6253e-06 -6.728e-08 3.4296e-07)
(-4.6218e-06 8.7514e-12 3.4625e-07)
(-4.1359e-06 -2.5811e-07 3.4766e-10)
(-4.1357e-06 -2.5408e-07 5.0436e-08)
(-4.1359e-06 -2.422e-07 1.0081e-07)
(-4.1347e-06 -2.2224e-07 1.4973e-07)
(-4.1345e-06 -1.9127e-07 1.9167e-07)
(-4.135e-06 -1.4913e-07 2.2235e-07)
(-4.1364e-06 -1.0014e-07 2.4199e-07)
(-4.1365e-06 -4.9826e-08 2.5357e-07)
(-4.1369e-06 8.2282e-11 2.5737e-07)
(-3.6973e-06 -2.2127e-07 3.9956e-10)
(-3.6958e-06 -2.1497e-07 4.2171e-08)
(-3.6942e-06 -2.0252e-07 8.47e-08)
(-3.6948e-06 -1.8664e-07 1.2687e-07)
(-3.6959e-06 -1.6279e-07 1.6333e-07)
(-3.6951e-06 -1.2617e-07 1.8694e-07)
(-3.6948e-06 -8.3939e-08 2.0256e-07)
(-3.6965e-06 -4.146e-08 2.1474e-07)
(-3.6983e-06 1.582e-10 2.2082e-07)
(-3.2954e-06 -1.9705e-07 4.3765e-10)
(-3.2951e-06 -1.9127e-07 3.7102e-08)
(-3.2952e-06 -1.7939e-07 7.4811e-08)
(-3.2946e-06 -1.6512e-07 1.1263e-07)
(-3.2949e-06 -1.44e-07 1.4468e-07)
(-3.2949e-06 -1.1182e-07 1.656e-07)
(-3.2957e-06 -7.3959e-08 1.7965e-07)
(-3.2958e-06 -3.6293e-08 1.9129e-07)
(-3.2963e-06 2.4148e-10 1.9686e-07)
(-2.9352e-06 -1.6251e-07 4.6082e-10)
(-2.9375e-06 -1.5769e-07 3.0772e-08)
(-2.9398e-06 -1.483e-07 6.1729e-08)
(-2.9376e-06 -1.3612e-07 9.2642e-08)
(-2.9354e-06 -1.1855e-07 1.1935e-07)
(-2.9378e-06 -9.1732e-08 1.3674e-07)
(-2.9402e-06 -6.0781e-08 1.4871e-07)
(-2.9381e-06 -2.9861e-08 1.5786e-07)
(-2.9359e-06 3.3079e-10 1.6248e-07)
(-2.6275e-06 -1.1682e-07 4.6722e-10)
(-2.6277e-06 -1.1543e-07 2.3739e-08)
(-2.6282e-06 -1.1051e-07 4.6372e-08)
(-2.6275e-06 -1.0047e-07 6.7607e-08)
(-2.6273e-06 -8.5434e-08 8.6309e-08)
(-2.6277e-06 -6.66e-08 1.0118e-07)
(-2.6285e-06 -4.5327e-08 1.1098e-07)
(-2.6281e-06 -2.2732e-08 1.1565e-07)
(-2.628e-06 4.1964e-10 1.1682e-07)
(-2.3581e-06 -7.9329e-08 4.7447e-10)
(-2.3579e-06 -8.0907e-08 1.8286e-08)
(-2.3564e-06 -7.958e-08 3.3899e-08)
(-2.358e-06 -7.1391e-08 4.6901e-08)
(-2.3574e-06 -5.8075e-08 5.9014e-08)
(-2.3582e-06 -4.5835e-08 7.2117e-08)
(-2.3567e-06 -3.2794e-08 8.0047e-08)
(-2.3582e-06 -1.7222e-08 8.1112e-08)
(-2.3585e-06 4.6494e-10 7.9311e-08)
(-2.1105e-06 -6.7388e-08 4.6898e-10)
(-2.1104e-06 -6.7756e-08 1.4591e-08)
(-2.1105e-06 -6.5544e-08 2.7976e-08)
(-2.1099e-06 -5.8542e-08 3.9512e-08)
(-2.1098e-06 -4.8466e-08 4.9371e-08)
(-2.11e-06 -3.8448e-08 5.926e-08)
(-2.1107e-06 -2.6878e-08 6.6003e-08)
(-2.1107e-06 -1.3539e-08 6.7971e-08)
(-2.1109e-06 4.5887e-10 6.7402e-08)
(-1.8746e-06 -6.836e-08 3.9885e-10)
(-1.8752e-06 -6.5618e-08 1.2038e-08)
(-1.8758e-06 -5.9651e-08 2.5306e-08)
(-1.8749e-06 -5.4548e-08 3.8941e-08)
(-1.8742e-06 -4.808e-08 4.8973e-08)
(-1.8749e-06 -3.7941e-08 5.525e-08)
(-1.8759e-06 -2.4283e-08 6.0135e-08)
(-1.8754e-06 -1.1062e-08 6.5918e-08)
(-1.8749e-06 4.6928e-10 6.8505e-08)
(-1.648e-06 -5.6227e-08 3.4551e-10)
(-1.646e-06 -4.6765e-08 4.9425e-09)
(-1.6441e-06 -3.5239e-08 1.4981e-08)
(-1.6458e-06 -3.5962e-08 3.0089e-08)
(-1.6478e-06 -3.9082e-08 3.9884e-08)
(-1.6459e-06 -2.9214e-08 3.6642e-08)
(-1.6442e-06 -1.4091e-08 3.5792e-08)
(-1.6462e-06 -4.091e-09 4.7217e-08)
(-1.6482e-06 4.2849e-10 5.6591e-08)
(-1.4225e-06 7.7034e-09 2.8912e-10)
(-1.4184e-06 2.1949e-08 -9.6961e-09)
(-1.4151e-06 3.2623e-08 -1.3262e-08)
(-1.4184e-06 2.2951e-08 -8.3728e-09)
(-1.4224e-06 6.1194e-09 -5.4426e-09)
(-1.4184e-06 9.0876e-09 -2.2324e-08)
(-1.4151e-06 1.3984e-08 -3.2034e-08)
(-1.4185e-06 1.0392e-08 -2.1376e-08)
(-1.4226e-06 3.6298e-10 -7.1527e-09)
(-1.2071e-06 1.1682e-07 2.2805e-10)
(-1.2067e-06 1.1623e-07 -2.4968e-08)
(-1.2059e-06 1.1256e-07 -4.6378e-08)
(-1.2068e-06 1.0025e-07 -6.4267e-08)
(-1.2072e-06 8.3068e-08 -8.254e-08)
(-1.2068e-06 6.4808e-08 -9.9731e-08)
(-1.2058e-06 4.6917e-08 -1.1204e-07)
(-1.2066e-06 2.5494e-08 -1.1568e-07)
(-1.2069e-06 2.8094e-10 -1.1625e-07)
(-1.0461e-06 1.2022e-07 1.559e-10)
(-1.0489e-06 1.0874e-07 -2.1624e-08)
(-1.0487e-06 1.0089e-07 -4.1583e-08)
(-1.0491e-06 9.2355e-08 -6.1246e-08)
(-1.0463e-06 8.5161e-08 -8.4804e-08)
(-1.0491e-06 6.1609e-08 -9.2008e-08)
(-1.0486e-06 4.1942e-08 -1.0054e-07)
(-1.0488e-06 2.1975e-08 -1.0836e-07)
(-1.0459e-06 1.8795e-10 -1.1983e-07)
(-9.4363e-07 -6.9434e-08 8.0394e-11)
(-9.3727e-07 -5.8792e-08 5.6923e-09)
(-9.3132e-07 -4.4444e-08 1.8643e-08)
(-9.3739e-07 -4.5671e-08 3.8045e-08)
(-9.4377e-07 -4.9327e-08 4.9515e-08)
(-9.3733e-07 -3.7845e-08 4.5831e-08)
(-9.312e-07 -1.8444e-08 4.4569e-08)
(-9.3709e-07 -5.4992e-09 5.8888e-08)
(-9.434e-07 1.0003e-10 6.9505e-08)
(-7.7789e-07 -2.4767e-07 1.5915e-11)
(-7.6249e-07 -2.1449e-07 3.1038e-08)
(-7.5071e-07 -1.7785e-07 7.3878e-08)
(-7.6251e-07 -1.7384e-07 1.3023e-07)
(-7.7789e-07 -1.7558e-07 1.7563e-07)
(-7.6246e-07 -1.3016e-07 1.7385e-07)
(-7.5062e-07 -7.3802e-08 1.778e-07)
(-7.6236e-07 -3.0969e-08 2.1437e-07)
(-7.7774e-07 3.6661e-11 2.475e-07)
(-4.432e-07 -1.9848e-07 -1.4914e-11)
(-4.3637e-07 -1.8124e-07 2.8205e-08)
(-4.2971e-07 -1.5619e-07 6.4805e-08)
(-4.3635e-07 -1.4826e-07 1.0849e-07)
(-4.4316e-07 -1.4063e-07 1.4062e-07)
(-4.3633e-07 -1.0848e-07 1.4822e-07)
(-4.2967e-07 -6.48e-08 1.5611e-07)
(-4.3631e-07 -2.8204e-08 1.8111e-07)
(-4.4313e-07 2.2916e-12 1.9831e-07)
(-1.7632e-13 -8.1418e-14 -1.285e-17)
(-7.5466e-10 -1.6418e-09 -1.3539e-09)
(-2.2142e-13 -1.5889e-13 5.9934e-14)
(-7.5424e-10 -2.1542e-10 2.1239e-09)
(-1.0708e-13 3.7105e-14 -3.7054e-14)
(-7.5402e-10 -2.1238e-09 2.1679e-10)
(-2.2142e-13 -5.9984e-14 1.5879e-13)
(-7.5485e-10 1.3536e-09 1.6391e-09)
(-1.7629e-13 -5.7847e-18 8.1342e-14)
(7.2693e-06 1.032e-05 5.5309e-05)
(3.9991e-09 -1.0461e-07 2.0173e-07)
(7.2938e-06 2.1051e-05 5.08e-05)
(2.8336e-12 7.7457e-12 2.0013e-11)
(7.281e-06 3.1817e-05 4.6392e-05)
(4.4142e-09 2.1694e-07 6.7453e-08)
(7.255e-06 4.07e-05 4.07e-05)
(2.8997e-12 1.6063e-11 1.6063e-11)
(7.2809e-06 4.6392e-05 3.1817e-05)
(4.4176e-09 6.7424e-08 2.1695e-07)
(7.2935e-06 5.0801e-05 2.1051e-05)
(2.8334e-12 2.0014e-11 7.7457e-12)
(7.2689e-06 5.531e-05 1.032e-05)
(3.9918e-09 2.0176e-07 -1.0462e-07)
(7.2382e-06 5.7574e-05 9.9978e-11)
(2.8616e-12 2.1799e-11 4.7997e-17)
(1.3379e-05 1.8511e-05 9.8147e-05)
(1.3426e-05 3.7422e-05 9.0297e-05)
(1.3408e-05 5.6315e-05 8.2449e-05)
(1.3368e-05 7.2537e-05 7.2537e-05)
(1.3408e-05 8.245e-05 5.6316e-05)
(1.3426e-05 9.0298e-05 3.7422e-05)
(1.3378e-05 9.815e-05 1.8511e-05)
(1.3326e-05 0.00010263 2.1903e-10)
(1.6914e-05 2.2745e-05 0.00011685)
(1.6955e-05 4.5216e-05 0.0001091)
(1.6966e-05 6.6526e-05 9.8626e-05)
(1.6976e-05 8.4802e-05 8.4802e-05)
(1.6966e-05 9.8627e-05 6.6526e-05)
(1.6955e-05 0.0001091 4.5216e-05)
(1.6914e-05 0.00011686 2.2745e-05)
(1.6903e-05 0.00012005 4.6607e-10)
(1.6441e-05 2.3898e-05 0.00011951)
(1.652e-05 4.6787e-05 0.00011292)
(1.6516e-05 6.7515e-05 0.00010124)
(1.6555e-05 8.5447e-05 8.5447e-05)
(1.6516e-05 0.00010124 6.7515e-05)
(1.6521e-05 0.00011292 4.6787e-05)
(1.6441e-05 0.00011951 2.3898e-05)
(1.6449e-05 0.0001211 6.3608e-10)
(1.201e-05 2.3945e-05 0.00011949)
(1.2188e-05 4.6719e-05 0.00011284)
(1.21e-05 6.7342e-05 0.00010115)
(1.1987e-05 8.5519e-05 8.5519e-05)
(1.21e-05 0.00010115 6.7342e-05)
(1.2188e-05 0.00011284 4.6719e-05)
(1.201e-05 0.00011949 2.3946e-05)
(1.1858e-05 0.00012144 5.3685e-10)
(6.2272e-06 2.3874e-05 0.00011998)
(6.4861e-06 4.6692e-05 0.00011279)
(6.3089e-06 6.7627e-05 0.0001013)
(6.0374e-06 8.6102e-05 8.6102e-05)
(6.3086e-06 0.00010129 6.7627e-05)
(6.4855e-06 0.00011279 4.6692e-05)
(6.2264e-06 0.00011998 2.3873e-05)
(5.9164e-06 0.00012254 3.625e-10)
(1.7139e-06 2.3486e-05 0.00011865)
(1.8427e-06 4.6098e-05 0.00011124)
(1.7488e-06 6.6928e-05 9.994e-05)
(1.6314e-06 8.5116e-05 8.5116e-05)
(1.7483e-06 9.9939e-05 6.6927e-05)
(1.8418e-06 0.00011124 4.6098e-05)
(1.7125e-06 0.00011865 2.3486e-05)
(1.5791e-06 0.00012135 2.1104e-10)
(-1.3654e-06 2.252e-05 0.00011367)
(-1.3997e-06 4.4186e-05 0.0001065)
(-1.3997e-06 6.4112e-05 9.5677e-05)
(-1.3686e-06 8.1505e-05 8.1506e-05)
(-1.4002e-06 9.5677e-05 6.4112e-05)
(-1.4007e-06 0.0001065 4.4186e-05)
(-1.3668e-06 0.00011367 2.252e-05)
(-1.3213e-06 0.00011631 1.2636e-10)
(-3.9445e-06 2.0623e-05 0.00010424)
(-4.0273e-06 4.0511e-05 9.7714e-05)
(-4.0462e-06 5.8841e-05 8.7803e-05)
(-4.0364e-06 7.4797e-05 7.4796e-05)
(-4.0465e-06 8.7804e-05 5.8842e-05)
(-4.0279e-06 9.7716e-05 4.0512e-05)
(-3.9454e-06 0.00010424 2.0623e-05)
(-3.8912e-06 0.0001066 8.1424e-10)
(-6.5732e-06 1.8008e-05 9.107e-05)
(-6.6593e-06 3.5398e-05 8.547e-05)
(-6.7123e-06 5.1468e-05 7.6863e-05)
(-6.7151e-06 6.5478e-05 6.5477e-05)
(-6.7125e-06 7.6865e-05 5.1469e-05)
(-6.6597e-06 8.5472e-05 3.5398e-05)
(-6.5737e-06 9.1073e-05 1.8008e-05)
(-6.5134e-06 9.3075e-05 8.6365e-11)
(-9.3662e-06 1.4988e-05 7.5738e-05)
(-9.4737e-06 2.9471e-05 7.1205e-05)
(-9.4887e-06 4.2895e-05 6.4107e-05)
(-9.4666e-06 5.4605e-05 5.4605e-05)
(-9.4888e-06 6.4108e-05 4.2895e-05)
(-9.474e-06 7.1206e-05 2.9472e-05)
(-9.3665e-06 7.574e-05 1.4988e-05)
(-9.2917e-06 7.7323e-05 -1.2795e-10)
(-1.2251e-05 1.205e-05 6.0827e-05)
(-1.2359e-05 2.3709e-05 5.7268e-05)
(-1.2335e-05 3.4564e-05 5.1655e-05)
(-1.2282e-05 4.402e-05 4.402e-05)
(-1.2335e-05 5.1656e-05 3.4563e-05)
(-1.2359e-05 5.727e-05 2.3709e-05)
(-1.2252e-05 6.0829e-05 1.205e-05)
(-1.2165e-05 6.2038e-05 -1.8081e-10)
(-1.4995e-05 9.6112e-06 4.8331e-05)
(-1.5049e-05 1.8912e-05 4.5622e-05)
(-1.5046e-05 2.7547e-05 4.1178e-05)
(-1.5029e-05 3.5083e-05 3.5083e-05)
(-1.5047e-05 4.1179e-05 2.7547e-05)
(-1.5049e-05 4.5623e-05 1.8912e-05)
(-1.4995e-05 4.8333e-05 9.6111e-06)
(-1.4957e-05 4.9234e-05 -1.0367e-10)
(-1.7115e-05 7.7364e-06 3.887e-05)
(-1.7127e-05 1.5255e-05 3.6759e-05)
(-1.7139e-05 2.2219e-05 3.3213e-05)
(-1.7164e-05 2.8286e-05 2.8286e-05)
(-1.7139e-05 3.3214e-05 2.2219e-05)
(-1.7127e-05 3.6761e-05 1.5255e-05)
(-1.7116e-05 3.8872e-05 7.7362e-06)
(-1.7125e-05 3.9543e-05 -3.0958e-10)
(-1.8272e-05 6.3258e-06 3.1987e-05)
(-1.8279e-05 1.2511e-05 3.0227e-05)
(-1.8278e-05 1.8329e-05 2.7377e-05)
(-1.8278e-05 2.3393e-05 2.3395e-05)
(-1.8278e-05 2.7378e-05 1.8329e-05)
(-1.8279e-05 3.0228e-05 1.2511e-05)
(-1.8272e-05 3.1988e-05 6.3255e-06)
(-1.827e-05 3.2595e-05 -1.5392e-09)
(-1.8494e-05 5.1679e-06 2.6432e-05)
(-1.8514e-05 1.0283e-05 2.4924e-05)
(-1.8484e-05 1.5192e-05 2.2648e-05)
(-1.8457e-05 1.946e-05 1.946e-05)
(-1.8484e-05 2.2649e-05 1.5192e-05)
(-1.8514e-05 2.4925e-05 1.0283e-05)
(-1.8494e-05 2.6433e-05 5.1676e-06)
(-1.8472e-05 2.7024e-05 -2.3438e-10)
(-1.806e-05 4.1601e-06 2.121e-05)
(-1.8083e-05 8.28e-06 2.0044e-05)
(-1.8042e-05 1.2213e-05 1.8216e-05)
(-1.8006e-05 1.5623e-05 1.5622e-05)
(-1.8042e-05 1.8216e-05 1.2213e-05)
(-1.8083e-05 2.0044e-05 8.2797e-06)
(-1.806e-05 2.121e-05 4.1598e-06)
(-1.8031e-05 2.1637e-05 -1.97e-10)
(-1.7367e-05 3.2231e-06 1.6262e-05)
(-1.7392e-05 6.3984e-06 1.5426e-05)
(-1.7348e-05 9.3785e-06 1.4012e-05)
(-1.7301e-05 1.198e-05 1.198e-05)
(-1.7348e-05 1.4012e-05 9.3781e-06)
(-1.7392e-05 1.5426e-05 6.398e-06)
(-1.7367e-05 1.6261e-05 3.2228e-06)
(-1.7329e-05 1.6535e-05 -1.1825e-10)
(-1.668e-05 2.3946e-06 1.2044e-05)
(-1.6695e-05 4.7389e-06 1.1443e-05)
(-1.666e-05 6.9587e-06 1.0409e-05)
(-1.6629e-05 8.8946e-06 8.8962e-06)
(-1.666e-05 1.0409e-05 6.9583e-06)
(-1.6695e-05 1.1442e-05 4.7384e-06)
(-1.668e-05 1.2043e-05 2.3943e-06)
(-1.6657e-05 1.2233e-05 -1.3464e-09)
(-1.5957e-05 1.7356e-06 8.8244e-06)
(-1.5965e-05 3.4572e-06 8.3747e-06)
(-1.5937e-05 5.115e-06 7.6374e-06)
(-1.5919e-05 6.5488e-06 6.5488e-06)
(-1.5937e-05 7.637e-06 5.1146e-06)
(-1.5965e-05 8.3739e-06 3.4567e-06)
(-1.5957e-05 8.8233e-06 1.7353e-06)
(-1.5948e-05 8.9725e-06 -6.0134e-11)
(-1.5056e-05 1.3163e-06 6.6972e-06)
(-1.5052e-05 2.6256e-06 6.3554e-06)
(-1.5034e-05 3.8872e-06 5.8012e-06)
(-1.5024e-05 4.9817e-06 4.982e-06)
(-1.5034e-05 5.8007e-06 3.8869e-06)
(-1.5051e-05 6.3545e-06 2.6253e-06)
(-1.5055e-05 6.6959e-06 1.316e-06)
(-1.5054e-05 6.8175e-06 1.3147e-10)
(-1.3936e-05 1.0465e-06 5.3268e-06)
(-1.3928e-05 2.0894e-06 5.0432e-06)
(-1.3918e-05 3.0962e-06 4.6088e-06)
(-1.3914e-05 3.9686e-06 3.9687e-06)
(-1.3918e-05 4.6083e-06 3.096e-06)
(-1.3928e-05 5.0422e-06 2.0892e-06)
(-1.3936e-05 5.3255e-06 1.0463e-06)
(-1.3941e-05 5.4337e-06 7.3908e-11)
(-1.2672e-05 8.5317e-07 4.3522e-06)
(-1.267e-05 1.704e-06 4.1164e-06)
(-1.266e-05 2.527e-06 3.7605e-06)
(-1.2654e-05 3.2379e-06 3.238e-06)
(-1.266e-05 3.76e-06 2.5269e-06)
(-1.267e-05 4.1155e-06 1.7038e-06)
(-1.2671e-05 4.351e-06 8.5306e-07)
(-1.267e-05 4.4415e-06 1.1288e-10)
(-1.1408e-05 6.6919e-07 3.4367e-06)
(-1.1416e-05 1.3413e-06 3.2493e-06)
(-1.1403e-05 1.9953e-06 2.9681e-06)
(-1.1389e-05 2.5624e-06 2.5625e-06)
(-1.1403e-05 2.9676e-06 1.9952e-06)
(-1.1416e-05 3.2485e-06 1.3412e-06)
(-1.1408e-05 3.4356e-06 6.6916e-07)
(-1.1396e-05 3.5145e-06 1.4705e-10)
(-1.0259e-05 4.9987e-07 2.5136e-06)
(-1.0263e-05 9.9177e-07 2.3975e-06)
(-1.0254e-05 1.4582e-06 2.1839e-06)
(-1.0246e-05 1.8666e-06 1.8666e-06)
(-1.0254e-05 2.1834e-06 1.4582e-06)
(-1.0263e-05 2.3968e-06 9.9175e-07)
(-1.0259e-05 2.5126e-06 4.9992e-07)
(-1.0254e-05 2.5483e-06 3.0721e-10)
(-9.2544e-06 3.5541e-07 1.7254e-06)
(-9.252e-06 6.9425e-07 1.6676e-06)
(-9.2482e-06 1.0018e-06 1.5179e-06)
(-9.242e-06 1.2729e-06 1.2731e-06)
(-9.2481e-06 1.5175e-06 1.0019e-06)
(-9.252e-06 1.667e-06 6.943e-07)
(-9.2543e-06 1.7246e-06 3.5552e-07)
(-9.2526e-06 1.7217e-06 1.6447e-10)
(-8.3491e-06 2.5461e-07 1.2471e-06)
(-8.3491e-06 4.9856e-07 1.2029e-06)
(-8.3423e-06 7.2603e-07 1.0965e-06)
(-8.3388e-06 9.2904e-07 9.2927e-07)
(-8.3423e-06 1.0961e-06 7.2618e-07)
(-8.3491e-06 1.2024e-06 4.987e-07)
(-8.349e-06 1.2465e-06 2.5478e-07)
(-8.3484e-06 1.253e-06 1.5822e-10)
(-7.4865e-06 1.9472e-07 1.0014e-06)
(-7.4912e-06 3.9073e-07 9.5048e-07)
(-7.4818e-06 5.8482e-07 8.7287e-07)
(-7.4764e-06 7.5512e-07 7.5537e-07)
(-7.4818e-06 8.7256e-07 5.8504e-07)
(-7.4911e-06 9.5009e-07 3.9093e-07)
(-7.4864e-06 1.0009e-06 1.9494e-07)
(-7.4829e-06 1.0237e-06 1.5354e-10)
(-6.6404e-06 1.6135e-07 8.4422e-07)
(-6.6444e-06 3.271e-07 7.9552e-07)
(-6.6373e-06 4.9319e-07 7.3176e-07)
(-6.6317e-06 6.3595e-07 6.3621e-07)
(-6.6372e-06 7.315e-07 4.9346e-07)
(-6.6444e-06 7.9525e-07 3.2738e-07)
(-6.6403e-06 8.4394e-07 1.6162e-07)
(-6.636e-06 8.665e-07 1.5729e-10)
(-5.8577e-06 1.3006e-07 6.8003e-07)
(-5.8622e-06 2.6414e-07 6.3883e-07)
(-5.8563e-06 3.9886e-07 5.9024e-07)
(-5.8467e-06 5.1226e-07 5.1253e-07)
(-5.8563e-06 5.9005e-07 3.9919e-07)
(-5.8622e-06 6.3871e-07 2.6447e-07)
(-5.8577e-06 6.7996e-07 1.3036e-07)
(-5.8497e-06 6.9808e-07 1.7177e-10)
(-5.1874e-06 9.7496e-08 4.9972e-07)
(-5.1922e-06 1.9612e-07 4.7343e-07)
(-5.1859e-06 2.9295e-07 4.3484e-07)
(-5.1807e-06 3.7575e-07 3.7586e-07)
(-5.1859e-06 4.3472e-07 2.9331e-07)
(-5.1922e-06 4.7346e-07 1.9651e-07)
(-5.1874e-06 4.9985e-07 9.7842e-08)
(-5.1828e-06 5.1004e-07 3.199e-10)
(-4.6255e-06 6.727e-08 3.4281e-07)
(-4.6299e-06 1.3531e-07 3.2708e-07)
(-4.6244e-06 2.0152e-07 2.9998e-07)
(-4.6204e-06 2.57e-07 2.5725e-07)
(-4.6244e-06 2.9994e-07 2.019e-07)
(-4.6299e-06 3.2727e-07 1.3574e-07)
(-4.6256e-06 3.4316e-07 6.7647e-08)
(-4.6219e-06 3.4671e-07 2.651e-10)
(-4.1367e-06 4.9962e-08 2.5345e-07)
(-4.1368e-06 1.0022e-07 2.4179e-07)
(-4.1356e-06 1.4913e-07 2.221e-07)
(-4.1353e-06 1.9121e-07 1.9142e-07)
(-4.1356e-06 2.2215e-07 1.4953e-07)
(-4.1369e-06 2.4212e-07 1.0067e-07)
(-4.1368e-06 2.5402e-07 5.0359e-08)
(-4.137e-06 2.5811e-07 3.2106e-10)
(-3.6968e-06 4.1767e-08 2.1468e-07)
(-3.6952e-06 8.4219e-08 2.0245e-07)
(-3.6957e-06 1.2642e-07 1.8682e-07)
(-3.6967e-06 1.6304e-07 1.6322e-07)
(-3.6957e-06 1.8694e-07 1.268e-07)
(-3.6953e-06 2.029e-07 8.4673e-08)
(-3.6969e-06 2.1544e-07 4.2162e-08)
(-3.6984e-06 2.2183e-07 3.7571e-10)
(-3.296e-06 3.6785e-08 1.9128e-07)
(-3.2961e-06 7.4461e-08 1.7963e-07)
(-3.2954e-06 1.1235e-07 1.6561e-07)
(-3.2956e-06 1.446e-07 1.4473e-07)
(-3.2955e-06 1.658e-07 1.1271e-07)
(-3.2962e-06 1.802e-07 7.4895e-08)
(-3.2961e-06 1.922e-07 3.7151e-08)
(-3.2965e-06 1.9807e-07 4.0402e-10)
(-2.9383e-06 3.0535e-08 1.5789e-07)
(-2.9406e-06 6.149e-08 1.4877e-07)
(-2.9383e-06 9.2507e-08 1.3685e-07)
(-2.936e-06 1.1942e-07 1.1952e-07)
(-2.9383e-06 1.3711e-07 9.2826e-08)
(-2.9407e-06 1.4942e-07 6.1888e-08)
(-2.9385e-06 1.5893e-07 3.0857e-08)
(-2.9361e-06 1.6384e-07 4.3102e-10)
(-2.6283e-06 2.3565e-08 1.157e-07)
(-2.6288e-06 4.6198e-08 1.1109e-07)
(-2.6282e-06 6.7547e-08 1.0134e-07)
(-2.6279e-06 8.6486e-08 8.6514e-08)
(-2.6282e-06 1.0165e-07 6.7822e-08)
(-2.6289e-06 1.1181e-07 4.6554e-08)
(-2.6285e-06 1.1683e-07 2.3838e-08)
(-2.6283e-06 1.183e-07 4.6123e-10)
(-2.3584e-06 1.8158e-08 8.12e-08)
(-2.357e-06 3.3766e-08 8.0203e-08)
(-2.3586e-06 4.6884e-08 7.2312e-08)
(-2.3579e-06 5.9227e-08 5.9227e-08)
(-2.3587e-06 7.2659e-08 4.7118e-08)
(-2.3571e-06 8.0963e-08 3.4085e-08)
(-2.3586e-06 8.2387e-08 1.8391e-08)
(-2.3588e-06 8.0863e-08 4.6102e-10)
(-2.1108e-06 1.4513e-08 6.8103e-08)
(-2.111e-06 2.79e-08 6.6228e-08)
(-2.1103e-06 3.9567e-08 5.952e-08)
(-2.1103e-06 4.9706e-08 4.9631e-08)
(-2.1104e-06 5.99e-08 3.9765e-08)
(-2.1112e-06 6.7015e-08 2.8191e-08)
(-2.111e-06 6.9328e-08 1.4716e-08)
(-2.1112e-06 6.9008e-08 4.6577e-10)
(-1.8755e-06 1.2023e-08 6.6106e-08)
(-1.8762e-06 2.5326e-08 6.0464e-08)
(-1.8753e-06 3.9132e-08 5.5636e-08)
(-1.8746e-06 4.9432e-08 4.9355e-08)
(-1.8754e-06 5.6042e-08 3.93e-08)
(-1.8764e-06 6.127e-08 2.5596e-08)
(-1.8758e-06 6.7361e-08 1.2202e-08)
(-1.8752e-06 7.0152e-08 4.0181e-10)
(-1.6463e-06 4.9939e-09 4.7457e-08)
(-1.6444e-06 1.5132e-08 3.6228e-08)
(-1.6462e-06 3.0464e-08 3.7194e-08)
(-1.6482e-06 4.0552e-08 4.0463e-08)
(-1.6463e-06 3.7611e-08 3.0609e-08)
(-1.6446e-06 3.7046e-08 1.5371e-08)
(-1.6465e-06 4.8715e-08 5.1512e-09)
(-1.6486e-06 5.8234e-08 3.4889e-10)
(-1.4185e-06 -9.604e-09 -2.1111e-08)
(-1.4152e-06 -1.3024e-08 -3.1539e-08)
(-1.4186e-06 -7.8775e-09 -2.1666e-08)
(-1.4227e-06 -4.6468e-09 -4.7264e-09)
(-1.4187e-06 -2.1276e-08 -7.7429e-09)
(-1.4154e-06 -3.0774e-08 -1.2809e-08)
(-1.4188e-06 -1.9947e-08 -9.4617e-09)
(-1.4229e-06 -5.6374e-09 2.9003e-10)
(-1.2067e-06 -2.488e-08 -1.1543e-07)
(-1.2059e-06 -4.6149e-08 -1.1158e-07)
(-1.2068e-06 -6.3805e-08 -9.9112e-08)
(-1.2072e-06 -8.1818e-08 -8.1869e-08)
(-1.2069e-06 -9.8796e-08 -6.3672e-08)
(-1.206e-06 -1.1095e-07 -4.5949e-08)
(-1.2068e-06 -1.145e-07 -2.4749e-08)
(-1.2071e-06 -1.1504e-07 2.2775e-10)
(-1.0488e-06 -2.1569e-08 -1.0817e-07)
(-1.0486e-06 -4.1435e-08 -1.0019e-07)
(-1.049e-06 -6.0928e-08 -9.1548e-08)
(-1.0463e-06 -8.429e-08 -8.431e-08)
(-1.0491e-06 -9.1325e-08 -6.0803e-08)