/*--------------------------------*- C++ -*----------------------------------*\
| =========                 |                                                 |
| \\      /  F ield         | OpenFOAM: The Open Source CFD Toolbox           |
|  \\    /   O peration     | Version:  4.1                                   |
|   \\  /    A nd           | Web:      www.OpenFOAM.org                      |
|    \\/     M anipulation  |                                                 |
\*---------------------------------------------------------------------------*/
FoamFile
{
    version     2.0;
    format      ascii;
    class       surfaceScalarField;
    location    "0.000060";
    object      phi;
}
// * * * * * * * * * * * * * * * * * * * * * * * * * * * * * * * * * * * * * //

dimensions      [0 3 -1 0 0 0 0];

internalField   nonuniform List<scalar> 
8704
(
-2.8302909e-07
2.7725874e-07
2.8767702e-07
-4.9613463e-07
-4.8843503e-07
-2.8431261e-07
6.2131263e-07
6.4633516e-07
-1.0497345e-06
-1.0305089e-06
-2.8614078e-07
9.7168713e-07
9.9736581e-07
-1.4346677e-06
-1.4142332e-06
-2.899303e-07
1.3046865e-06
1.3146935e-06
-1.7045951e-06
-1.695864e-06
-2.9411231e-07
1.6269182e-06
1.6091283e-06
-1.9164078e-06
-1.9291364e-06
-2.984027e-07
1.9347407e-06
1.8804942e-06
-2.0869205e-06
-2.1271849e-06
-3.0280259e-07
2.2261215e-06
2.1267633e-06
-2.2217539e-06
-2.2951844e-06
-3.0732581e-07
2.4956416e-06
2.3466449e-06
-2.3234915e-06
-2.4324366e-06
-3.1172682e-07
2.7268043e-06
2.5446525e-06
-2.3974642e-06
-2.5285811e-06
-3.1604157e-07
2.9023423e-06
2.7268634e-06
-2.4494934e-06
-2.57253e-06
-3.2018538e-07
3.0169279e-06
2.8881637e-06
-2.4771113e-06
-2.5607642e-06
-3.2408513e-07
3.0753558e-06
3.0165634e-06
-2.4712569e-06
-2.4959403e-06
-3.2797418e-07
3.0862837e-06
3.1048275e-06
-2.4262487e-06
-2.3895302e-06
-3.3196402e-07
3.0576348e-06
3.1455402e-06
-2.3377089e-06
-2.2549926e-06
-3.36266e-07
2.9967168e-06
3.1287957e-06
-2.2020008e-06
-2.0965745e-06
-3.4043983e-07
2.9000702e-06
3.0435004e-06
-2.0162342e-06
-1.909485e-06
-3.4387706e-07
2.7544312e-06
2.8823662e-06
-1.7784188e-06
-1.6861491e-06
-3.4644503e-07
2.5501565e-06
2.6528959e-06
-1.49596e-06
-1.4218755e-06
-3.4794073e-07
2.2802527e-06
2.3680431e-06
-1.179142e-06
-1.1154809e-06
-3.4854789e-07
1.9465495e-06
2.0354579e-06
-8.3491592e-07
-7.7194271e-07
-3.4823278e-07
1.5584258e-06
1.6605905e-06
-4.6900223e-07
-4.0056554e-07
-3.4743637e-07
1.1301831e-06
1.2457582e-06
-8.5172571e-08
-1.225908e-08
-3.4633668e-07
6.8337582e-07
7.9083715e-07
3.1255649e-07
3.7707868e-07
2.3158573e-07
3.0231783e-07
7.1711545e-07
7.574051e-07
-2.8651223e-07
6.4278812e-08
3.7032979e-07
-6.1476605e-07
-2.8252026e-07
1.8694958e-07
8.1809517e-07
-1.2958292e-06
-2.8236394e-07
5.0017094e-07
1.0984807e-06
-1.6070792e-06
-2.845089e-07
9.0034701e-07
1.2663547e-06
-1.7139066e-06
-2.8734445e-07
1.3376466e-06
1.377617e-06
-1.725854e-06
-2.9043598e-07
1.7857492e-06
1.452884e-06
-1.682838e-06
-2.936286e-07
2.2329161e-06
1.4993853e-06
-1.6011983e-06
-2.970691e-07
2.6673868e-06
1.5232422e-06
-1.4905514e-06
-3.0075339e-07
3.0675194e-06
1.5358198e-06
-1.361936e-06
-3.0466223e-07
3.4130555e-06
1.5463566e-06
-1.2256481e-06
-3.0868962e-07
3.6988821e-06
1.5488844e-06
-1.0812319e-06
-3.127786e-07
3.9319265e-06
1.5277491e-06
-9.1927632e-07
-3.1708091e-07
4.1077929e-06
1.4875337e-06
-7.4062144e-07
-3.2154385e-07
4.2179338e-06
1.4370878e-06
-5.49813e-07
-3.2607524e-07
4.276544e-06
1.3609043e-06
-3.4316825e-07
-3.3045819e-07
4.2886291e-06
1.2383841e-06
-1.1437174e-07
-3.3452259e-07
4.2366016e-06
1.0612927e-06
1.3952627e-07
-3.3802363e-07
4.1012725e-06
8.4405693e-07
4.0789188e-07
-3.4084617e-07
3.8674258e-06
6.0952263e-07
6.7347772e-07
-3.4289638e-07
3.533562e-06
3.6664819e-07
9.2858151e-07
-3.4420749e-07
3.1081583e-06
1.1881274e-07
1.1710001e-06
-3.4493443e-07
2.6091558e-06
-1.3571512e-07
1.3993296e-06
-3.4518259e-07
2.0637784e-06
-4.0512162e-07
1.6152257e-06
1.4889699e-06
-6.8815411e-07
1.8161614e-06
-2.8727283e-07
-1.5851465e-07
4.6473011e-07
-7.4793885e-07
-2.7987145e-07
-2.7995252e-07
1.0177737e-06
-1.5739834e-06
-2.7828721e-07
-7.1534661e-09
1.244328e-06
-1.8206689e-06
-2.796626e-07
4.7202046e-07
1.2658382e-06
-1.7578324e-06
-2.8206076e-07
1.0428935e-06
1.1892508e-06
-1.5546267e-06
-2.8488962e-07
1.6517304e-06
1.0597527e-06
-1.2773383e-06
-2.8782943e-07
2.2756511e-06
8.9492337e-07
-9.5341457e-07
-2.9098325e-07
2.8949847e-06
7.098451e-07
-6.0071281e-07
-2.9452261e-07
3.482872e-06
5.2195503e-07
-2.3629745e-07
-2.9852132e-07
4.0217409e-06
3.3828151e-07
1.2861938e-07
-3.0293649e-07
4.5083952e-06
1.5194231e-07
4.920631e-07
-3.0758195e-07
4.9460328e-06
-5.02714e-08
8.5962445e-07
-3.1247035e-07
5.3106954e-06
-2.4606942e-07
1.218e-06
-3.174718e-07
5.573909e-06
-4.0625091e-07
1.5475568e-06
-3.2240835e-07
5.759915e-06
-5.5597936e-07
1.8555026e-06
-3.2723692e-07
5.8848223e-06
-7.295613e-07
2.154886e-06
-3.3190991e-07
5.9263878e-06
-9.3369328e-07
2.4461966e-06
-3.362161e-07
5.8577154e-06
-1.144864e-06
2.7113217e-06
-3.3996341e-07
5.6567513e-06
-1.331016e-06
2.9263224e-06
-3.4309275e-07
5.3180123e-06
-1.4817411e-06
3.0820324e-06
-3.4548878e-07
4.849028e-06
-1.5957703e-06
3.1772466e-06
-3.4731405e-07
4.2699898e-06
-1.6790974e-06
3.2156829e-06
-3.4870725e-07
3.6116339e-06
-1.7472561e-06
3.20495e-06
2.8934752e-06
-1.8041008e-06
3.1480855e-06
-2.8778127e-07
-3.8780827e-07
5.6628353e-07
-8.7903336e-07
-2.7851522e-07
-7.6637354e-07
1.2294311e-06
-1.8418378e-06
-2.7603586e-07
-5.339371e-07
1.3968038e-06
-2.0167474e-06
-2.7686077e-07
3.0868983e-08
1.2589602e-06
-1.7768778e-06
-2.7894667e-07
7.4360089e-07
9.7859282e-07
-1.3515531e-06
-2.8158935e-07
1.5206253e-06
6.2724223e-07
-8.3302428e-07
-2.8457411e-07
2.3269687e-06
2.333673e-07
-2.5937328e-07
-2.8806592e-07
3.1358346e-06
-1.7958275e-07
3.4383682e-07
-2.9206877e-07
3.9178895e-06
-5.8975359e-07
9.5472424e-07
-2.9648941e-07
4.6570052e-06
-9.9243524e-07
1.5620611e-06
-3.0132062e-07
5.3484556e-06
-1.3927069e-06
2.1599315e-06
-3.0653648e-07
5.9894734e-06
-1.7968369e-06
2.7463592e-06
-3.1182832e-07
6.5419876e-06
-2.1663523e-06
3.2952114e-06
-3.1699711e-07
6.9655235e-06
-2.4563538e-06
3.7744803e-06
-3.2217386e-07
7.2851167e-06
-2.6986553e-06
4.194722e-06
-3.2738328e-07
7.5181055e-06
-2.9349526e-06
4.5722151e-06
-3.3255183e-07
7.6407601e-06
-3.1668571e-06
4.9015059e-06
-3.3736823e-07
7.6261247e-06
-3.3652256e-06
5.1587438e-06
-3.4160328e-07
7.4510509e-06
-3.4947594e-06
5.3168535e-06
-3.4519451e-07
7.106581e-06
-3.5447552e-06
5.3662596e-06
-3.4800188e-07
6.5982141e-06
-3.5150327e-06
5.3066425e-06
-3.5016846e-07
5.9459123e-06
-3.4138006e-06
5.1437718e-06
-3.5184985e-07
5.1788114e-06
-3.2593451e-06
4.8894707e-06
4.3175858e-06
-3.0604778e-06
4.5529412e-06
-2.8871848e-07
-6.2391923e-07
6.7338725e-07
-1.0082306e-06
-2.7925485e-07
-1.2664847e-06
1.4478669e-06
-2.0967727e-06
-2.7662611e-07
-1.069878e-06
1.5509242e-06
-2.1915418e-06
-2.7719276e-07
-4.1592887e-07
1.2484111e-06
-1.7744456e-06
-2.7900876e-07
4.3887103e-07
7.5999534e-07
-1.1311337e-06
-2.8146264e-07
1.3812985e-06
1.8292762e-07
-3.7722763e-07
-2.8451882e-07
2.3644902e-06
-4.4373154e-07
4.3958382e-07
-2.8817517e-07
3.3563002e-06
-1.0901405e-06
1.2878837e-06
-2.9234688e-07
4.3261218e-06
-1.730792e-06
2.1418625e-06
-2.9701008e-07
5.2556212e-06
-2.3596786e-06
2.9876946e-06
-3.0211826e-07
6.1356138e-06
-2.9773421e-06
3.8146383e-06
-3.0772061e-07
6.9572463e-06
-3.5818463e-06
4.6121905e-06
-3.1317028e-07
7.6780865e-06
-4.1253444e-06
5.3451617e-06
-3.1826988e-07
8.2573179e-06
-4.5572878e-06
5.977338e-06
-3.2347286e-07
8.7092194e-06
-4.9075006e-06
6.5166251e-06
-3.2872977e-07
9.0407527e-06
-5.2119678e-06
6.9723177e-06
-3.3391788e-07
9.2299589e-06
-5.4652611e-06
7.3322715e-06
-3.3871563e-07
9.2542145e-06
-5.6389091e-06
7.5718822e-06
-3.4287923e-07
9.0952968e-06
-5.7033297e-06
7.6667918e-06
-3.4633913e-07
8.7451131e-06
-5.6493469e-06
7.6082104e-06
-3.4897025e-07
8.2064194e-06
-5.4760826e-06
7.3952066e-06
-3.5090203e-07
7.4950301e-06
-5.1908682e-06
7.0340726e-06
-3.5229337e-07
6.6347439e-06
-4.8103849e-06
6.5382925e-06
5.6464067e-06
-4.347685e-06
5.922365e-06
-2.8988176e-07
-8.6858825e-07
7.8925053e-07
-1.1380087e-06
-2.8174981e-07
-1.7771039e-06
1.676965e-06
-2.3405803e-06
-2.7964205e-07
-1.6052175e-06
1.7081949e-06
-2.3452676e-06
-2.8039444e-07
-8.6090018e-07
1.2388179e-06
-1.753928e-06
-2.8207022e-07
1.3045712e-07
5.4438192e-07
-9.0449973e-07
-2.8425207e-07
1.2286601e-06
-2.5420272e-07
6.9158955e-08
-2.8705556e-07
2.3749237e-06
-1.1076011e-06
1.1116798e-06
-2.9049018e-07
3.5325986e-06
-1.9810061e-06
2.1873308e-06
-2.9450206e-07
4.6705602e-06
-2.8458215e-06
3.2664093e-06
-2.9904239e-07
5.7675983e-06
-3.6915628e-06
4.3307471e-06
-3.0410817e-07
6.8091142e-06
-4.5126645e-06
5.3645255e-06
-3.0968569e-07
7.780212e-06
-5.2990896e-06
6.3498785e-06
-3.1504173e-07
8.6417284e-06
-6.0028337e-06
7.248983e-06
-3.2008163e-07
9.3573238e-06
-6.5768438e-06
8.0256537e-06
-3.2519586e-07
9.9264993e-06
-7.0392066e-06
8.678381e-06
-3.3022021e-07
1.0343221e-05
-7.4100096e-06
9.2043139e-06
-3.3498052e-07
1.058607e-05
-7.6768017e-06
9.5849522e-06
-3.3924337e-07
1.0637707e-05
-7.8162187e-06
9.7979001e-06
-3.4282383e-07
1.0489152e-05
-7.8109337e-06
9.8264352e-06
-3.4567116e-07
1.0135556e-05
-7.6545206e-06
9.6633196e-06
-3.4769596e-07
9.5759367e-06
-7.3432961e-06
9.3057815e-06
-3.4902258e-07
8.8209764e-06
-6.8824166e-06
8.7596453e-06
-3.498168e-07
7.8890047e-06
-6.2859509e-06
8.0385491e-06
6.8004764e-06
-5.5703859e-06
7.1615448e-06
-2.9042096e-07
-1.1239878e-06
9.2273223e-07
-1.2696456e-06
-2.8511364e-07
-2.2944185e-06
1.9292718e-06
-2.5727021e-06
-2.8413123e-07
-2.1273963e-06
1.8755724e-06
-2.4760306e-06
-2.8532838e-07
-1.2906121e-06
1.2365922e-06
-1.7188783e-06
-2.8698089e-07
-1.7235992e-07
3.4137267e-07
-6.81513e-07
-2.888178e-07
1.0657413e-06
-6.6934706e-07
4.8859004e-07
-2.911315e-07
2.3551611e-06
-1.7366256e-06
1.7293845e-06
-2.9417947e-07
3.6557858e-06
-2.8219667e-06
3.0020884e-06
-2.9787182e-07
4.9359492e-06
-3.8949455e-06
4.2750179e-06
-3.021557e-07
6.171679e-06
-4.9395652e-06
5.5259074e-06
-3.0699973e-07
7.3432278e-06
-5.9431404e-06
6.7332028e-06
-3.1231191e-07
8.430427e-06
-6.8889201e-06
7.8737252e-06
-3.174183e-07
9.401535e-06
-7.7354138e-06
8.9111463e-06
-3.2231291e-07
1.022639e-05
-8.4428258e-06
9.8109943e-06
-3.2722343e-07
1.0890737e-05
-9.0121519e-06
1.0559816e-05
-3.3182674e-07
1.1378163e-05
-9.4448042e-06
1.1142508e-05
-3.3586038e-07
1.1668575e-05
-9.723853e-06
1.1535774e-05
-3.3924258e-07
1.1748124e-05
-9.8317891e-06
1.1719747e-05
-3.4192233e-07
1.1612742e-05
-9.7611844e-06
1.1684746e-05
-3.4384725e-07
1.126007e-05
-9.5077262e-06
1.142542e-05
-3.4494639e-07
1.0687724e-05
-9.0660751e-06
1.0937796e-05
-3.4535818e-07
9.9030444e-06
-8.4403697e-06
1.0227335e-05
-3.4525378e-07
8.9206728e-06
-7.6436077e-06
9.3083525e-06
7.7606716e-06
-6.6952617e-06
8.2037531e-06
-2.8705711e-07
1.124737e-06
-1.4197421e-06
-1.4185265e-06
-2.8733011e-07
2.2982376e-06
-2.8496699e-06
-2.8453757e-06
-2.8802447e-07
2.1374614e-06
-2.6562276e-06
-2.6473871e-06
-2.8979459e-07
1.3080543e-06
-1.7313582e-06
-1.717194e-06
-2.9147051e-07
1.9465915e-07
-5.0419294e-07
-4.8625312e-07
-2.9321465e-07
-1.0434898e-06
8.5810538e-07
8.7628326e-07
-2.9562401e-07
-2.337653e-06
2.2832798e-06
2.2978572e-06
-2.9903358e-07
-3.6454563e-06
3.7276781e-06
3.7367391e-06
-3.0317177e-07
-4.9344652e-06
5.1575032e-06
5.1604999e-06
-3.0787738e-07
-6.1823147e-06
6.5466452e-06
6.5423321e-06
-3.1301772e-07
-7.3690115e-06
7.8699124e-06
7.8574134e-06
-3.183897e-07
-8.4718609e-06
9.1009439e-06
9.080561e-06
-3.2366455e-07
-9.4558218e-06
1.0208165e-05
1.018257e-05
-3.2868084e-07
-1.0287343e-05
1.1161204e-05
1.1134891e-05
-3.3355455e-07
-1.0952553e-05
1.1939249e-05
1.1914257e-05
-3.3809076e-07
-1.143845e-05
1.2520891e-05
1.249685e-05
-3.4189429e-07
-1.1726388e-05
1.2883845e-05
1.2860806e-05
-3.4476254e-07
-1.1802754e-05
1.3012815e-05
1.2991403e-05
-3.4671998e-07
-1.1663439e-05
1.2902333e-05
1.288261e-05
-3.4771939e-07
-1.1305818e-05
1.2549264e-05
1.2531654e-05
-3.4774564e-07
-1.0727433e-05
1.1951894e-05
1.1937564e-05
-3.4693676e-07
-9.9345696e-06
1.1117291e-05
1.1107366e-05
-3.4543692e-07
-8.9417595e-06
1.0060347e-05
1.005505e-05
-7.7723172e-06
8.8057552e-06
8.8034525e-06
-2.8665662e-07
3.5645633e-07
7.6538779e-08
-6.0582213e-07
-2.8274846e-07
7.8469028e-07
2.1616782e-07
-1.2737071e-06
-2.8266752e-07
1.0664107e-06
5.2908787e-07
-1.5846608e-06
-2.8488262e-07
1.2582243e-06
9.0993246e-07
-1.7067453e-06
-2.8768184e-07
1.4090298e-06
1.3139461e-06
-1.7452712e-06
-2.906457e-07
1.5349055e-06
1.7180199e-06
-1.7364102e-06
-2.9372278e-07
1.6435505e-06
2.110636e-06
-1.6960222e-06
-2.9705551e-07
1.733454e-06
2.4860699e-06
-1.6290378e-06
-3.0067233e-07
1.787419e-06
2.8465945e-06
-1.5280021e-06
-3.0455289e-07
1.7888877e-06
3.1961732e-06
-1.3832672e-06
-3.08533e-07
1.7373885e-06
3.5262134e-06
-1.194258e-06
-3.1254307e-07
1.6436402e-06
3.8205048e-06
-9.6853042e-07
-3.1676122e-07
1.5172933e-06
4.0731947e-06
-7.2063093e-07
-3.2122418e-07
1.3690012e-06
4.2770199e-06
-4.6727854e-07
-3.2580362e-07
1.2203175e-06
4.4085728e-06
-2.2130964e-07
-3.3027981e-07
1.0758329e-06
4.4449143e-06
1.7109727e-08
-3.3437553e-07
9.190215e-07
4.3754149e-06
2.5630126e-07
-3.3780507e-07
7.3765368e-07
4.2070553e-06
5.0118108e-07
-3.405877e-07
5.2449624e-07
3.9540993e-06
7.5240129e-07
-3.4264364e-07
2.7927816e-07
3.6231894e-06
1.0070205e-06
-3.4404831e-07
8.5438553e-09
3.2195345e-06
1.2593446e-06
-3.449025e-07
-2.7299648e-07
2.745386e-06
1.4979402e-06
-3.4530934e-07
-5.4044563e-07
2.1961291e-06
1.7072259e-06
-7.8085428e-07
1.5782954e-06
1.8788415e-06
-2.9710181e-07
1.6017241e-07
1.7724204e-07
-2.9095595e-07
3.7315951e-07
4.1353301e-07
-2.8961291e-07
6.1657976e-07
6.5383811e-07
-2.9064274e-07
8.7394121e-07
8.8121187e-07
-2.9237295e-07
1.1368174e-06
1.0957856e-06
-2.9418364e-07
1.3974476e-06
1.2941329e-06
-2.9589535e-07
1.6532061e-06
1.4737823e-06
-2.9779152e-07
1.8947015e-06
1.6375359e-06
-3.0000154e-07
2.0981182e-06
1.7952058e-06
-3.0249527e-07
2.2468646e-06
1.9514472e-06
-3.0515877e-07
2.3445226e-06
2.0948087e-06
-3.0793462e-07
2.4036301e-06
2.2086357e-06
-3.1110105e-07
2.4176719e-06
2.3040863e-06
-3.1461899e-07
2.3797722e-06
2.391978e-06
-3.1802613e-07
2.3233007e-06
2.4414124e-06
-3.2109919e-07
2.2661217e-06
2.4192223e-06
-3.2393373e-07
2.1877596e-06
2.3161574e-06
-3.2646268e-07
2.0661992e-06
2.1489356e-06
-3.2860326e-07
1.8856412e-06
1.9421262e-06
-3.3040695e-07
1.6426417e-06
1.7043044e-06
-3.318049e-07
1.3427699e-06
1.4406658e-06
-3.32984e-07
1.0045532e-06
1.1478564e-06
-3.3398177e-07
6.6037393e-07
8.1057765e-07
3.2594924e-07
4.2843557e-07
-2.9740329e-07
-4.2818861e-08
2.7031249e-07
-2.8887929e-07
-6.3634546e-08
6.0836593e-07
-2.8655208e-07
1.3485158e-07
7.9548261e-07
-2.8716159e-07
4.6658617e-07
8.7724764e-07
-2.8883445e-07
8.5806144e-07
9.0466931e-07
-2.9080375e-07
1.2722291e-06
8.9901325e-07
-2.9273074e-07
1.693944e-06
8.6882505e-07
-2.9480828e-07
2.1054316e-06
8.2661698e-07
-2.9716747e-07
2.4785846e-06
7.8792034e-07
-2.9980023e-07
2.8002515e-06
7.5374556e-07
-3.0267701e-07
3.0776912e-06
7.0965263e-07
-3.0570571e-07
3.320884e-06
6.4162193e-07
-3.0911851e-07
3.5035279e-06
5.8007699e-07
-3.1282068e-07
3.5987315e-06
5.5703936e-07
-3.1632806e-07
3.6490343e-06
5.3316948e-07
-3.1951701e-07
3.6855627e-06
4.6145734e-07
-3.2255788e-07
3.6864168e-06
3.3365134e-07
-3.2544988e-07
3.6231878e-06
1.7429613e-07
-3.2810581e-07
3.4735163e-06
1.6068094e-08
-3.3048725e-07
3.2295011e-06
-1.3012613e-07
-3.3254914e-07
2.8954971e-06
-2.6080119e-07
-3.3443043e-07
2.4925822e-06
-3.8362706e-07
-3.3615126e-07
2.055518e-06
-5.2061097e-07
1.6014402e-06
-6.7755445e-07
-2.9760533e-07
-2.5122343e-07
3.6519338e-07
-2.8777419e-07
-5.15958e-07
8.0664128e-07
-2.8485662e-07
-3.6424358e-07
9.3886121e-07
-2.8520023e-07
4.5427254e-08
8.6682218e-07
-2.8684891e-07
5.7117684e-07
6.9582336e-07
-2.8892663e-07
1.1444697e-06
4.7370878e-07
-2.9106911e-07
1.7373455e-06
2.2024431e-07
-2.934105e-07
2.3253749e-06
-4.3673031e-08
-2.9602895e-07
2.8793435e-06
-2.9838395e-07
-2.9892241e-07
3.3878222e-06
-5.4575314e-07
-3.0206859e-07
3.8575712e-06
-7.9996153e-07
-3.0537532e-07
4.2949121e-06
-1.0690779e-06
-3.08916e-07
4.6584356e-06
-1.3062339e-06
-3.1255082e-07
4.9060429e-06
-1.4619468e-06
-3.1605374e-07
5.0798156e-06
-1.5789469e-06
-3.1942574e-07
5.214208e-06
-1.7112456e-06
-3.2277978e-07
5.2887715e-06
-1.86394e-06
-3.2605389e-07
5.2760346e-06
-2.0091668e-06
-3.2910087e-07
5.1527336e-06
-2.1118955e-06
-3.3185179e-07
4.9075816e-06
-2.1598714e-06
-3.3420045e-07
4.5431321e-06
-2.1512261e-06
-3.3629549e-07
4.0790015e-06
-2.0950088e-06
-3.3820429e-07
3.5454046e-06
-2.0132443e-06
2.9599047e-06
-1.916765e-06
-2.9817576e-07
-4.6421496e-07
4.6230331e-07
-2.8830086e-07
-9.7568725e-07
1.0067183e-06
-2.8538902e-07
-8.6805479e-07
1.0809663e-06
-2.857205e-07
-3.8101291e-07
8.5169895e-07
-2.873244e-07
2.7619267e-07
4.7898582e-07
-2.8930478e-07
1.0047502e-06
3.6967686e-08
-2.9143228e-07
1.7644522e-06
-4.4343731e-07
-2.9385637e-07
2.5260251e-06
-9.3508137e-07
-2.9658257e-07
3.2604258e-06
-1.4151501e-06
-2.9965136e-07
3.9549867e-06
-1.8843652e-06
-3.0306592e-07
4.6119709e-06
-2.3528812e-06
-3.0675975e-07
5.2316989e-06
-2.8212856e-06
-3.1046006e-07
5.7682788e-06
-3.233886e-06
-3.1400489e-07
6.1765021e-06
-3.533803e-06
-3.1753202e-07
6.4853521e-06
-3.7591539e-06
-3.2100018e-07
6.7194106e-06
-3.9584449e-06
-3.2442234e-07
6.8614536e-06
-4.1314937e-06
-3.2769559e-07
6.889274e-06
-4.2525157e-06
-3.3063219e-07
6.7852075e-06
-4.2923026e-06
-3.3318951e-07
6.538943e-06
-4.2397131e-06
-3.3529305e-07
6.1496874e-06
-4.092599e-06
-3.3709834e-07
5.6314299e-06
-3.8580128e-06
-3.3869189e-07
5.0064412e-06
-3.5535293e-06
4.2920839e-06
-3.1942272e-06
-2.9893449e-07
-6.8413268e-07
5.6549789e-07
-2.9009048e-07
-1.4407587e-06
1.2142859e-06
-2.8773676e-07
-1.3675144e-06
1.2250724e-06
-2.8834369e-07
-8.0349284e-07
8.3676492e-07
-2.8988352e-07
-2.1837667e-08
2.6348808e-07
-2.9162141e-07
8.5282069e-07
-3.9563969e-07
-2.9348782e-07
1.7690716e-06
-1.0987286e-06
-2.957145e-07
2.6941975e-06
-1.8138458e-06
-2.9831992e-07
3.599607e-06
-2.5154354e-06
-3.0134086e-07
4.4696912e-06
-3.1993592e-06
-3.0482935e-07
5.2995921e-06
-3.8687788e-06
-3.0870482e-07
6.0819374e-06
-4.5163723e-06
-3.1246453e-07
6.7755093e-06
-5.0877199e-06
-3.1598134e-07
7.3403163e-06
-5.5299999e-06
-3.1951151e-07
7.7855435e-06
-5.8678687e-06
-3.2286669e-07
8.1191907e-06
-6.1330216e-06
-3.2597409e-07
8.3261743e-06
-6.3199479e-06
-3.2880677e-07
8.3903177e-06
-6.4087767e-06
-3.3123246e-07
8.3021794e-06
-6.3812127e-06
-3.3325931e-07
8.0544726e-06
-6.2286115e-06
-3.3484102e-07
7.6426568e-06
-5.946941e-06
-3.3612695e-07
7.0744979e-06
-5.5405039e-06
-3.3720483e-07
6.365444e-06
-5.0224912e-06
5.5323298e-06
-4.410937e-06
-2.9949425e-07
-9.1990425e-07
6.8447685e-07
-2.9256285e-07
-1.9204367e-06
1.4450509e-06
-2.910988e-07
-1.8594151e-06
1.3818201e-06
-2.9211163e-07
-1.2118401e-06
8.305059e-07
-2.9356586e-07
-3.0966416e-07
5.8791643e-08
-2.949249e-07
7.0332772e-07
-8.1192201e-07
-2.9637868e-07
1.7670949e-06
-1.7292685e-06
-2.9828851e-07
2.8464944e-06
-2.657653e-06
-3.006627e-07
3.9129704e-06
-3.5695492e-06
-3.035321e-07
4.9473744e-06
-4.4542868e-06
-3.0694654e-07
5.9372296e-06
-5.3065195e-06
-3.1075417e-07
6.8678224e-06
-6.1121728e-06
-3.1445181e-07
7.7053615e-06
-6.825197e-06
-3.1795822e-07
8.4164687e-06
-7.401809e-06
-3.2144347e-07
8.9923942e-06
-7.848551e-06
-3.2456247e-07
9.4258267e-06
-8.176869e-06
-3.271853e-07
9.7021173e-06
-8.3776364e-06
-3.2940996e-07
9.8085784e-06
-8.4370809e-06
-3.3119362e-07
9.7390971e-06
-8.3451611e-06
-3.3255355e-07
9.4879868e-06
-8.0950907e-06
-3.3345237e-07
9.0497083e-06
-7.6822602e-06
-3.3404495e-07
8.4286237e-06
-7.1102202e-06
-3.3443922e-07
7.6369159e-06
-6.3908339e-06
6.6918871e-06
-5.5443936e-06
-2.9051021e-07
8.6721779e-07
-1.267071e-06
-2.8526051e-07
1.7771009e-06
-2.565268e-06
-2.8434566e-07
1.6134184e-06
-2.4637641e-06
-2.8557779e-07
8.7933098e-07
-1.701001e-06
-2.8716005e-07
-1.0536822e-07
-6.589194e-07
-2.8887268e-07
-1.2028481e-06
5.1276036e-07
-2.9109768e-07
-2.3524822e-06
1.7507674e-06
-2.9414912e-07
-3.5158488e-06
3.0189079e-06
-2.9785889e-07
-4.6632658e-06
4.287796e-06
-3.0216286e-07
-5.7762699e-06
5.5339278e-06
-3.0702148e-07
-6.8396621e-06
6.7362312e-06
-3.1226633e-07
-7.8323866e-06
7.8718575e-06
-3.174153e-07
-8.7152591e-06
8.9091646e-06
-3.2240312e-07
-9.4507612e-06
9.8166536e-06
-3.272603e-07
-1.0027848e-05
1.0571893e-05
-3.3170118e-07
-1.0439734e-05
1.1154277e-05
-3.3550254e-07
-1.0672813e-05
1.1544079e-05
-3.3864648e-07
-1.0714938e-05
1.1725866e-05
-3.4108842e-07
-1.0558604e-05
1.1690465e-05
-3.4279444e-07
-1.0199015e-05
1.1431573e-05
-3.4372102e-07
-9.6344764e-06
1.0945408e-05
-3.4400564e-07
-8.8712401e-06
1.0236629e-05
-3.4377076e-07
-7.9239625e-06
9.3178788e-06
-6.8173335e-06
8.2110422e-06
-2.8754148e-07
4.4962282e-07
-1.4482493e-07
-7.384012e-07
-2.8027875e-07
9.8206446e-07
-2.472903e-07
-1.5508659e-06
-2.7881799e-07
1.2128552e-06
2.4444962e-08
-1.7990793e-06
-2.8033074e-07
1.2644816e-06
4.8149251e-07
-1.7550286e-06
-2.8270098e-07
1.2350907e-06
1.0153571e-06
-1.5825345e-06
-2.8529017e-07
1.1650757e-06
1.5751392e-06
-1.344078e-06
-2.8799625e-07
1.0726283e-06
2.138384e-06
-1.0669848e-06
-2.9094302e-07
9.5981206e-07
2.6957186e-06
-7.6144656e-07
-2.9428312e-07
8.1182031e-07
3.2465989e-06
-4.2397371e-07
-2.9820375e-07
6.1831853e-07
3.7888066e-06
-5.0289009e-08
-3.0261773e-07
3.8744161e-07
4.3054623e-06
3.5270873e-07
-3.0720051e-07
1.3460942e-07
4.7764835e-06
7.711507e-07
-3.1201068e-07
-1.3728665e-07
5.2034986e-06
1.1934437e-06
-3.1706824e-07
-4.1902204e-07
5.5807463e-06
1.6029117e-06
-3.2211343e-07
-6.7173324e-07
5.8677171e-06
1.9721675e-06
-3.2697897e-07
-8.8010187e-07
6.0291464e-06
2.2908662e-06
-3.3156552e-07
-1.0620057e-06
6.0526734e-06
2.566894e-06
-3.3571679e-07
-1.2296167e-06
5.945581e-06
2.8035688e-06
-3.3938816e-07
-1.3898276e-06
5.721866e-06
3.0009183e-06
-3.425591e-07
-1.5444519e-06
5.3863241e-06
3.1568346e-06
-3.4520647e-07
-1.6911544e-06
4.944822e-06
3.2672762e-06
-3.4737007e-07
-1.8157456e-06
4.3986513e-06
3.3236485e-06
-3.4902412e-07
-1.890948e-06
3.7407535e-06
3.3106673e-06
-1.9053104e-06
2.9789753e-06
3.2231679e-06
-2.9749884e-07
2.5115243e-07
-2.3794542e-08
-2.8903063e-07
5.6404733e-07
-1.8929249e-08
-2.8676835e-07
7.5790191e-07
1.7495771e-07
-2.8748072e-07
8.7718745e-07
4.7271672e-07
-2.8917748e-07
9.6219007e-07
8.1078527e-07
-2.9100227e-07
1.0297074e-06
1.1558463e-06
-2.9277279e-07
1.0872551e-06
1.4944696e-06
-2.947299e-07
1.1284705e-06
1.8263489e-06
-2.9701697e-07
1.1318145e-06
2.1580812e-06
-2.9965383e-07
1.0878455e-06
2.4871151e-06
-3.0254957e-07
1.0096398e-06
2.7937349e-06
-3.05581e-07
9.1309986e-07
3.0599963e-06
-3.0895337e-07
7.857791e-07
3.3050674e-06
-3.1266297e-07
6.204054e-07
3.5415255e-06
-3.1621233e-07
4.644224e-07
3.7242077e-06
-3.1938021e-07
3.449484e-07
3.8089475e-06
-3.2235469e-07
2.4132427e-07
3.785987e-06
-3.251783e-07
1.3328973e-07
3.6724629e-06
-3.2779697e-07
6.0448144e-09
3.4923836e-06
-3.3018762e-07
-1.4717845e-07
3.2540177e-06
-3.3238582e-07
-3.2503004e-07
2.9626757e-06
-3.344469e-07
-5.0931647e-07
2.6140877e-06
-3.3630894e-07
-6.6540035e-07
2.1902254e-06
-7.7854087e-07
1.6903885e-06
-2.9742197e-07
5.1992634e-08
7.3452084e-08
-2.8670676e-07
1.3229353e-07
1.8128384e-07
-2.8337786e-07
2.7849012e-07
3.1861071e-07
-2.8357659e-07
4.6823291e-07
4.6629071e-07
-2.8516791e-07
6.7798258e-07
6.1296974e-07
-2.8718494e-07
8.9535633e-07
7.5018296e-07
-2.8930566e-07
1.1149575e-06
8.76137e-07
-2.9165784e-07
1.3223292e-06
1.0005894e-06
-2.9431154e-07
1.4923991e-06
1.1354555e-06
-2.9726539e-07
1.6185349e-06
1.2734329e-06
-3.004757e-07
1.717592e-06
1.3907628e-06
-3.0383331e-07
1.8039227e-06
1.4725263e-06
-3.0755027e-07
1.8474499e-06
1.5560103e-06
-3.1156959e-07
1.8207927e-06
1.6752099e-06
-3.1542084e-07
1.7753416e-06
1.7807605e-06
-3.1894434e-07
1.7497584e-06
1.8160997e-06
-3.2233851e-07
1.7242473e-06
1.7710062e-06
-3.256385e-07
1.6741371e-06
1.6676506e-06
-3.2873172e-07
1.5786522e-06
1.5369076e-06
-3.3156669e-07
1.4258956e-06
1.3906146e-06
-3.3415081e-07
1.2167436e-06
1.232391e-06
-3.3655276e-07
9.7111794e-07
1.0542193e-06
-3.3877391e-07
7.2360811e-07
8.3383043e-07
4.9072236e-07
5.6443162e-07
-2.9744002e-07
-1.4974799e-07
1.6702573e-07
-2.8558712e-07
-3.0965096e-07
3.7588872e-07
-2.8168115e-07
-2.1534994e-07
4.5854235e-07
-2.8153885e-07
4.5886027e-08
4.5277273e-07
-2.8302893e-07
3.8426473e-07
4.0125737e-07
-2.8512445e-07
7.5550067e-07
3.2235842e-07
-2.8743631e-07
1.1410883e-06
2.2597752e-07
-2.9004119e-07
1.5204658e-06
1.3013481e-07
-2.929651e-07
1.8677995e-06
5.0631323e-08
-2.9618809e-07
2.1779372e-06
-2.3127631e-08
-2.9966376e-07
2.4674199e-06
-1.1561479e-07
-3.0326552e-07
2.7471445e-06
-2.3600802e-07
-3.070972e-07
2.9735352e-06
-3.3151509e-07
-3.1108077e-07
3.1034123e-06
-3.5030245e-07
-3.1495868e-07
3.183755e-06
-3.4103648e-07
-3.1866923e-07
3.2565678e-06
-3.6541995e-07
-3.2235693e-07
3.3057288e-06
-4.3300996e-07
-3.2601171e-07
3.3075233e-06
-5.2131281e-07
-3.2948957e-07
3.2400606e-06
-5.9733749e-07
-3.3273759e-07
3.0888461e-06
-6.4682423e-07
-3.3569168e-07
2.8536236e-06
-6.6799389e-07
-3.3840807e-07
2.5514826e-06
-6.6909194e-07
-3.4089742e-07
2.2096767e-06
-6.6949432e-07
1.8456937e-06
-6.818423e-07
-2.9781267e-07
-3.5338084e-07
2.5918362e-07
-2.8595649e-07
-7.5456896e-07
5.6674394e-07
-2.8206015e-07
-7.1153625e-07
5.9420651e-07
-2.8191604e-07
-3.8063701e-07
4.3431242e-07
-2.8337755e-07
8.3172815e-08
1.8324402e-07
-2.8544641e-07
6.0446528e-07
-1.1369223e-07
-2.8778449e-07
1.1521295e-06
-4.350577e-07
-2.9044544e-07
1.7011912e-06
-7.5713741e-07
-2.9341163e-07
2.2262056e-06
-1.0611912e-06
-2.9670091e-07
2.7206286e-06
-1.3559118e-06
-3.0030438e-07
3.1960899e-06
-1.6618204e-06
-3.0412618e-07
3.6575567e-06
-1.9811199e-06
-3.0798724e-07
4.0574983e-06
-2.2534726e-06
-3.1176482e-07
4.3482569e-06
-2.4198535e-06
-3.1552366e-07
4.5624335e-06
-2.5210343e-06
-3.1925115e-07
4.7336946e-06
-2.6117836e-06
-3.2300387e-07
4.851149e-06
-2.6995449e-06
-3.2670302e-07
4.8959553e-06
-2.7659223e-06
-3.3014079e-07
4.8503062e-06
-2.7818851e-06
-3.3328489e-07
4.7007393e-06
-2.73282e-06
-3.361024e-07
4.4443526e-06
-2.6173957e-06
-3.3865428e-07
4.0919795e-06
-2.4412734e-06
-3.4095355e-07
3.6613713e-06
-2.2174062e-06
3.1700977e-06
-1.9634639e-06
-2.9843979e-07
-5.6122575e-07
3.5416006e-07
-2.8764222e-07
-1.2012538e-06
7.6062423e-07
-2.8433917e-07
-1.2019144e-06
7.3013097e-07
-2.8450793e-07
-8.0173956e-07
4.1633582e-07
-2.8597231e-07
-2.1832086e-07
-3.1958935e-08
-2.878944e-07
4.4551962e-07
-5.4334314e-07
-2.9004614e-07
1.1469435e-06
-1.0850654e-06
-2.9255813e-07
1.8578399e-06
-1.6293055e-06
-2.9541562e-07
2.5533259e-06
-2.1547206e-06
-2.9864443e-07
3.2233175e-06
-2.6637597e-06
-3.0228564e-07
3.8712377e-06
-3.1687533e-06
-3.0625704e-07
4.4939616e-06
-3.6646614e-06
-3.1013876e-07
5.0491763e-06
-4.0940652e-06
-3.1380582e-07
5.4948811e-06
-4.402413e-06
-3.1745445e-07
5.8432738e-06
-4.6154646e-06
-3.209788e-07
6.1118957e-06
-4.7710824e-06
-3.2437747e-07
6.2944521e-06
-4.8740344e-06
-3.2760492e-07
6.3780936e-06
-4.9121129e-06
-3.3049925e-07
6.3504627e-06
-4.8638237e-06
-3.3307853e-07
6.2005727e-06
-4.7160198e-06
-3.3533704e-07
5.922649e-06
-4.4665477e-06
-3.3732629e-07
5.5215728e-06
-4.1185494e-06
-3.3906197e-07
5.0088391e-06
-3.681117e-06
4.4010115e-06
-3.1749736e-06
-2.9907781e-07
-7.8327199e-07
4.6113211e-07
-2.9033834e-07
-1.6613043e-06
9.7303964e-07
-2.8809154e-07
-1.6853706e-06
8.7729858e-07
-2.8873189e-07
-1.2081925e-06
4.074073e-07
-2.9013994e-07
-5.0660925e-07
-2.3544356e-07
-2.9168906e-07
2.9503462e-07
-9.556535e-07
-2.9344445e-07
1.1444517e-06
-1.7097881e-06
-2.9562842e-07
2.0110758e-06
-2.4667582e-06
-2.9821887e-07
2.8700609e-06
-3.2028953e-06
-3.0122773e-07
3.7071736e-06
-3.9129859e-06
-3.0471675e-07
4.51708e-06
-4.5992307e-06
-3.085553e-07
5.2890302e-06
-5.2500268e-06
-3.1231543e-07
5.9885704e-06
-5.8180302e-06
-3.1588561e-07
6.5810458e-06
-6.258672e-06
-3.1937242e-07
7.0608705e-06
-6.5794495e-06
-3.2257649e-07
7.4299202e-06
-6.7981212e-06
-3.2548182e-07
7.6826484e-06
-6.916316e-06
-3.2811145e-07
7.8093269e-06
-6.9266351e-06
-3.3036629e-07
7.8001766e-06
-6.8144043e-06
-3.3227405e-07
7.645941e-06
-6.5688385e-06
-3.3382455e-07
7.3401658e-06
-6.1875071e-06
-3.350747e-07
6.8849089e-06
-5.6733975e-06
-3.3608279e-07
6.2893884e-06
-5.0361781e-06
5.5696536e-06
-4.2979351e-06
-2.9013514e-07
6.2014231e-07
-1.1335716e-06
-2.8215329e-07
1.261755e-06
-2.3291806e-06
-2.8019811e-07
1.0746531e-06
-2.329079e-06
-2.8101147e-07
4.3383699e-07
-1.7323998e-06
-2.8250887e-07
-4.1138987e-07
-8.7792787e-07
-2.8441233e-07
-1.350188e-06
9.8117283e-08
-2.8701696e-07
-2.3322776e-06
1.1379537e-06
-2.9040559e-07
-3.3246884e-06
2.2090655e-06
-2.9440743e-07
-4.301362e-06
3.2854657e-06
-2.9894769e-07
-5.2483351e-06
4.3477007e-06
-3.040277e-07
-6.1561307e-06
5.3805582e-06
-3.0947359e-07
-7.0058331e-06
6.3648047e-06
-3.1487496e-07
-7.7578116e-06
7.2699576e-06
-3.2009725e-07
-8.3736536e-06
8.0648493e-06
-3.2514398e-07
-8.8425243e-06
8.730458e-06
-3.298701e-07
-9.1622949e-06
9.2537316e-06
-3.3417522e-07
-9.3273286e-06
9.622281e-06
-3.3798379e-07
-9.3293672e-06
9.8234108e-06
-3.4117278e-07
-9.1569087e-06
9.8461996e-06
-3.4370141e-07
-8.8020328e-06
9.6821215e-06
-3.4551247e-07
-8.2642884e-06
9.3262624e-06
-3.4666375e-07
-7.5497589e-06
8.7811298e-06
-3.4725919e-07
-6.6723544e-06
8.0566032e-06
-5.657792e-06
7.1718739e-06
-2.8820464e-07
5.5076583e-07
-3.7311761e-07
-8.691812e-07
-2.7915224e-07
1.1935935e-06
-7.3156688e-07
-1.8184886e-06
-2.7681415e-07
1.3682731e-06
-5.0126594e-07
-1.9968438e-06
-2.7778177e-07
1.2652664e-06
3.941773e-08
-1.7787223e-06
-2.798351e-07
1.0366266e-06
7.1372173e-07
-1.3869726e-06
-2.8220725e-07
7.4892999e-07
1.4405088e-06
-9.0980721e-07
-2.8481991e-07
4.3013216e-07
2.1861412e-06
-3.8488746e-07
-2.8795403e-07
8.5850054e-08
2.9374227e-06
1.7297968e-07
-2.9177178e-07
-2.9271008e-07
3.6892307e-06
7.6161881e-07
-2.9616697e-07
-7.0590769e-07
4.4309475e-06
1.3766402e-06
-3.009144e-07
-1.1346685e-06
5.1374661e-06
2.0018946e-06
-3.0579535e-07
-1.5584447e-06
5.7865236e-06
2.6185771e-06
-3.1106985e-07