/*--------------------------------*- C++ -*----------------------------------*\
  =========                 |
  \\      /  F ield         | OpenFOAM: The Open Source CFD Toolbox
   \\    /   O peration     | Website:  https://openfoam.org
    \\  /    A nd           | Version:  8
     \\/     M anipulation  |
\*---------------------------------------------------------------------------*/
FoamFile
{
    version     2.0;
    format      ascii;
    class       surfaceScalarField;
    location    "0.0860000";
    object      phi;
}
// * * * * * * * * * * * * * * * * * * * * * * * * * * * * * * * * * * * * * //

dimensions      [0 3 -1 0 0 0 0];

internalField   nonuniform List<scalar> 
1691
(
7.60893650053303e-10
9.51624881942626e-12
7.51598227893019e-10
9.64529499815617e-12
7.4227897362727e-10
9.74536439666801e-12
7.32829142365188e-10
9.94650567556681e-12
7.23311089969917e-10
1.00564903804786e-11
7.13771401942352e-10
1.01172567011021e-11
7.04228888634409e-10
1.01567000316756e-11
6.94697203121133e-10
1.01913580643838e-11
6.85170786862184e-10
1.02189738583289e-11
6.75650024495851e-10
1.02417089612186e-11
6.66133927907011e-10
1.0264276660423e-11
6.56626391810827e-10
1.02882414502969e-11
6.47126029886097e-10
1.03110221853791e-11
6.37628167594639e-10
1.03326179477356e-11
6.28133478850275e-10
1.03531277704359e-11
6.18644789568659e-10
1.03729561157445e-11
6.09166148555354e-10
1.03934178333328e-11
5.99692181385364e-10
1.04116340110192e-11
5.90222112232592e-10
1.04306254267383e-11
5.80753168579651e-10
1.04524046389249e-11
5.71295660226351e-10
1.04762288274096e-11
5.61842720532996e-10
1.04962314686981e-11
5.52395719466384e-10
1.05155181319933e-11
5.42952674078345e-10
1.05375014948762e-11
5.33519081870283e-10
1.0564863375173e-11
5.2409206273139e-10
1.05922141448017e-11
5.14671343739904e-10
1.06179380163142e-11
5.0525611099616e-10
1.06462361736768e-11
4.95850920533483e-10
1.06819016464325e-11
4.8645558230017e-10
1.07206905572284e-11
4.77067560132021e-10
1.07585496587281e-11
4.67687691171275e-10
1.07989568541782e-11
4.58315790876442e-10
1.08489544873622e-11
4.48963408382875e-10
1.09114091217646e-11
4.39619067959523e-10
1.09733696257594e-11
4.30287242889076e-10
1.10374342981694e-11
4.20960238949378e-10
1.11166510835199e-11
4.1166866206302e-10
1.12245463561473e-11
4.02389015009963e-10
1.13308061861159e-11
3.93130338355909e-10
1.14411562943381e-11
3.8388031324423e-10
1.15774157663109e-11
3.74674352253005e-10
1.17611471070952e-11
3.65497390444955e-10
1.1956143687045e-11
3.56350475020227e-10
1.21574919318328e-11
3.47222624259616e-10
1.23949912252153e-11
3.38154720777089e-10
1.27088404103941e-11
3.29149075644554e-10
1.3064946898148e-11
3.20186252771397e-10
1.34288830521796e-11
3.11266846076952e-10
1.38354508323912e-11
3.02410159195591e-10
1.43600494017438e-11
2.9369463939752e-10
1.50066502911272e-11
2.85039800733922e-10
1.56516067396755e-11
2.76474584395696e-10
1.63406632209429e-11
2.67967019900042e-10
1.72146145114643e-11
2.59735900041139e-10
1.83651865177335e-11
2.51565860095169e-10
1.95728807055453e-11
2.43660387934462e-10
2.10025954373132e-11
2.35709057068665e-10
2.3194160082877e-11
2.28926661218779e-10
2.70772267571424e-11
2.22711885046888e-10
3.16000021675511e-11
2.17314600484185e-10
3.65942033064575e-11
2.12214139781378e-10
4.27517687816374e-11
2.09173955498586e-10
5.06709827930931e-11
2.06643725594543e-10
5.77312914392687e-11
2.04950796752759e-10
6.3993168680079e-11
2.035722189013e-10
7.07048006019087e-11
2.04382354915164e-10
7.84067723934728e-11
2.05488628546539e-10
8.45207945382789e-11
2.07243390385011e-10
8.94570752946091e-11
2.09536607358039e-10
9.42109157181754e-11
2.13192249549903e-10
9.84821686958417e-11
2.16714542341972e-10
1.00926333296662e-10
2.20546995855561e-10
1.02185035773557e-10
2.24848239567012e-10
1.02407867894591e-10
2.28731595888024e-10
1.01086984555787e-10
2.32396135111265e-10
9.87197380935095e-11
2.36268741891098e-10
9.52978926760549e-11
2.39136429334731e-10
9.01504539037988e-11
2.40798656592415e-10
8.40245273809009e-11
2.4216402470436e-10
7.76533393208064e-11
2.43933522714146e-10
7.01585186928879e-11
2.41767495054607e-10
6.09307879091523e-11
2.39630997804629e-10
5.2455974951682e-11
2.37554065965188e-10
4.38448486285434e-11
2.32889676888569e-10
3.52608005064467e-11
2.27371407236733e-10
2.51247783732945e-11
2.28865931301937e-10
1.1264168401496e-11
2.30420799050368e-10
4.94427487377891e-12
2.28841705856553e-10
5.75744099331107e-13
2.28072209912535e-10
-3.08890411338938e-12
2.2700392912405e-10
-5.1819064821105e-12
2.2548107646751e-10
-6.85737302808071e-12
2.23871951418908e-10
-7.83949913405659e-12
2.22327528132912e-10
-8.44732190563377e-12
2.20651327115921e-10
-8.69835908184199e-12
2.19066842542514e-10
-8.72582590595011e-12
2.17472205355042e-10
-8.53758336187926e-12
2.1556293180856e-10
-8.00687076564776e-12
2.13509739973637e-10
-6.67004385949907e-12
-3.01516590659252e-12
3.86997062718383e-10
1.33779553963736e-11
3.82688993054325e-10
1.40063193701562e-11
3.77924152682723e-10
1.45630805214166e-11
3.72794440624947e-10
1.51290174037387e-11
3.67477240014251e-10
1.54264114914887e-11
3.62093561183233e-10
1.55535747815229e-11
3.566970733506e-10
1.56057456453192e-11
3.51306977023572e-10
1.56339293723409e-11
3.45926535270738e-10
1.56518057103553e-11
3.4055522454317e-10
1.56653262102504e-11
3.35192894936357e-10
1.56788317942512e-11
3.29840057737657e-10
1.56932216745927e-11
3.24496084521252e-10
1.5707053298583e-11
3.19159575952138e-10
1.57210999259392e-11
3.13830449994184e-10
1.57341446385448e-11
3.08509940529269e-10
1.57452747478489e-11
3.0319880432571e-10
1.57562814644322e-11
2.97895976279973e-10
1.57661077003677e-11
2.9260043594571e-10
1.57777310253697e-11
2.87312536472153e-10
1.57917892647848e-11
2.8203398221572e-10
1.58061833331323e-11
2.76764293533724e-10
1.58172297396998e-11
2.71502961546032e-10
1.58280698773914e-11
2.66250352223467e-10
1.5841247688028e-11
2.61007496027222e-10
1.58587762531876e-11
2.55774336292145e-10
1.58763445414681e-11
2.50550641501973e-10
1.5892509995526e-11
2.45336938689138e-10
1.59107183806469e-11
2.40134505776625e-10
1.59350159985568e-11
2.34943763566538e-10
1.59620199986006e-11
2.29764462656868e-10
1.59883465986212e-11
2.24597099031546e-10
1.60167248598187e-11
2.1944351246258e-10
1.60528511258962e-11
2.14305734284915e-10
1.60993990147263e-11
2.09183114886336e-10
1.61460943669479e-11
2.04076014610309e-10
1.61945308510299e-11
1.98987307097855e-10
1.62552491036304e-11
1.93921788737643e-10
1.63398456943337e-11
1.8887928511368e-10
1.6422971268961e-11
1.83860447651038e-10
1.65094986441575e-11
1.78868530988735e-10
1.6618672429156e-11
1.73910444223522e-10
1.67684260336408e-11
1.68988954477211e-10
1.6926669621221e-11
1.64105269640896e-10
1.70900409929163e-11
1.59264598129988e-10
1.72843274552917e-11
1.54478382947225e-10
1.75434908847975e-11
1.49752869151118e-10
1.78386434333586e-11
1.45089198124612e-10
1.81404626698115e-11
1.40495298055237e-10
1.84769733693135e-11
1.35988847009132e-10
1.89138068311997e-11
1.31585696754089e-10
1.94567364388227e-11
1.27287535129697e-10
1.99962555493172e-11
1.23105373276305e-10
2.05688445901159e-11
1.19065930707229e-10
2.12996260447747e-11
1.15204734195027e-10
2.2271416270265e-11
1.11539874853518e-10
2.32819737333203e-11
1.08142017184461e-10
2.44436768430725e-11
1.051701216775e-10
2.6207961705328e-11
1.02857146977558e-10
2.94301792262332e-11
1.01304369932379e-10
3.31899049847905e-11
1.00603261319683e-10
3.7328626366428e-11
1.00883657519136e-10
4.25007447331508e-11
1.02284870644165e-10
4.92952129406867e-11
1.04741767031463e-10
5.52955804157206e-11
1.0820748423761e-10
6.05436473446569e-11
1.12710591832001e-10
6.62125942548173e-11
1.1830785977798e-10
7.28154987660502e-11
1.24854310091276e-10
7.79754494048338e-11
1.3221593554574e-10
8.20912808178301e-11
1.40314722624067e-10
8.61025375277819e-11
1.49061908093164e-10
8.97203120702428e-11
1.58239948530378e-10
9.1728726552429e-11
1.67669882725284e-10
9.27307832042392e-11
1.7719116464368e-10
9.28578804262062e-11
1.86591879365965e-10
9.1653755531874e-11
1.95717936729861e-10
8.95581836872682e-11
2.04413119031616e-10
8.65646960471779e-11
2.12421127158947e-10
8.21009670821835e-11
2.19567647261758e-10
7.68333624384806e-11
2.25896460492878e-10
7.12787005175495e-11
2.31202170284418e-10
6.48066254139833e-11
2.35112641447671e-10
5.69721509879705e-11
2.37796384891177e-10
4.97224198167125e-11
2.39552863791884e-10
4.20389786705199e-11
2.39570849108694e-10
3.5192065031869e-11
2.38906219924865e-10
2.57376875772361e-11
2.4078004506089e-10
9.3399137286726e-12
2.41978616967177e-10
3.69582126083251e-12
2.41747687308267e-10
7.5564488649847e-13
2.41107386426596e-10
-2.50046817120026e-12
2.4004278773929e-10
-4.16892621646985e-12
2.38700103437739e-10
-5.56693262704431e-12
2.37146890401238e-10
-6.33914755688408e-12
2.35524279147371e-10
-6.87703355477139e-12
2.33841428051134e-10
-7.06725929768397e-12
2.32161138616806e-10
-7.09789191957291e-12
2.30484108989344e-10
-6.91400382296515e-12
2.28812996832354e-10
-6.38933571689105e-12
2.27198253431056e-10
-5.10846441587993e-12
-2.08992113680114e-12
7.87410223136627e-11
1.27318651014183e-11
7.90324275938849e-11
1.37694409207061e-11
7.81074743789243e-11
1.55424665430959e-11
7.66109554226134e-11
1.66798770579495e-11
7.4853193441162e-11
1.72384200168938e-11
7.30048806711196e-11
1.74560377738894e-11
7.11357558374648e-11
1.7528924655091e-11
6.92705390756738e-11
1.75531028037462e-11
6.74144379022583e-11
1.75617632257411e-11
6.55673822283089e-11
1.75661394722403e-11
6.37293391410687e-11
1.75705369113137e-11
6.19005584793158e-11
1.75755673324351e-11
6.00805406898084e-11
1.75805359742504e-11
5.82686129960561e-11
1.75863929120865e-11
5.64645980561628e-11
1.75914272985167e-11
5.46689162869968e-11
1.75941276393249e-11
5.28819637878263e-11
1.75963087803081e-11
5.11030444048168e-11
1.75980053679501e-11
4.933182713165e-11
1.76018312997553e-11
4.7568916639705e-11
1.76074885937964e-11
4.58151437458743e-11
1.76126452857687e-11
4.40698580082325e-11
1.76150978011595e-11
4.23327105353036e-11
1.76176945061676e-11
4.06042618637799e-11
1.762207600377e-11
3.88855815805051e-11
1.76297425739776e-11
3.71766043689668e-11
1.7637507154891e-11
3.5476910012393e-11
1.76442800893762e-11
3.37870298303159e-11
1.76525614729776e-11
3.21083857251367e-11
1.7665509003094e-11
3.04414796615878e-11
1.76806654635748e-11
2.87859738952769e-11
1.76954868450809e-11
2.71422589004532e-11
1.77119671518741e-11
2.55122767965545e-11
1.7734252366982e-11
2.3898208635682e-11
1.77647734115903e-11
2.22995925400659e-11
1.77958927901926e-11
2.07164839658633e-11
1.78286961180602e-11
1.91519840061654e-11
1.78706869724036e-11
1.76111747248296e-11
1.79314700570708e-11
1.60936287305277e-11
1.7991195238699e-11
1.45995130492779e-11
1.80541231826055e-11
1.31332073454841e-11
1.81353060103691e-11
1.17026834883399e-11
1.82491150509867e-11
1.03100657831133e-11
1.83692841657809e-11
8.95588517943017e-12
1.84940273218558e-11
7.64620163842743e-12
1.86436015286321e-11
6.39400168221363e-12
1.88450350870355e-11
5.20608074083086e-12
1.90756391831715e-11
4.08292494861436e-12
1.93124003541584e-11
3.03191555962735e-12
1.95764496270177e-11
2.07344368163142e-12
1.99204281397748e-11
1.22647148150241e-12
2.0351479774707e-11
4.90590823793836e-13
2.07794112289725e-11
-1.26199617080803e-13
2.12323966409469e-11
-5.92240250874684e-13
2.18119939512614e-11
-8.64953500276561e-13
2.258995772757e-11
-9.32281339352718e-13
2.33943046224246e-11
-7.45742626656795e-13
2.43010397233871e-11
-1.54811962083564e-13
2.56597186397438e-11
1.1123284373625e-12
2.82039248160332e-11
3.15948161411882e-12
3.11806750695723e-11
6.06361927467455e-12
3.44584020856792e-11
1.00018990257508e-11
3.85921158482076e-11
1.52100556430401e-11
4.41129189142684e-11
2.15669063780024e-11
4.89605027942921e-11
2.89663226919416e-11
5.31607149246013e-11
3.74744846714473e-11
5.77153528073532e-11
4.72166900478017e-11
6.30793631222002e-11
5.79683184088104e-11
6.7225096498473e-11
6.95540710854703e-11
7.0501374679064e-11
8.1929127173964e-11
7.37178664570103e-11
9.50052937833612e-11
7.66294794271922e-11
1.08512045687766e-10
7.8202433761623e-11
1.22256719217026e-10
7.89618548286729e-11
1.3606714487375e-10
7.90188868062058e-11
1.49709944677472e-10
7.79787004396317e-11
1.63012663947098e-10
7.62202566423404e-11
1.75800262824964e-10
7.37392130683253e-11
1.87805759556746e-10
7.00545428307431e-11
1.98876753006053e-10
6.57187196156209e-11
2.08957446473002e-10
6.11529937024482e-11
2.17875058292629e-10
5.58431452930717e-11
2.25356324633697e-10
4.94437885386865e-11
2.31538886564567e-10
4.3491683400935e-11
2.3636401138582e-10
3.71650908558758e-11
2.3973654603303e-10
3.17702534485315e-11
2.41567491983999e-10
2.38571279785101e-11
2.43758227149099e-10
7.09982317105443e-12
2.44711911084185e-10
2.69295499816248e-12
2.44759385185248e-10
6.58536629721324e-13
2.44116199629065e-10
-1.9074777195065e-12
2.43097152348066e-10
-3.20041111247981e-12
2.41758134178229e-10
-4.27882720569936e-12
2.40235208632376e-10
-4.86743474545593e-12
2.38598286941264e-10
-5.29122245791221e-12
2.36915050514747e-10
-5.43502354107352e-12
2.35223203806018e-10
-5.45742656109036e-12
2.3355927993591e-10
-5.30206205823487e-12
2.31981871091787e-10
-4.86415837382695e-12
2.30640156971788e-10
-3.81896423568268e-12
-1.48969594913414e-12
-1.57879015882889e-10
9.19270092515659e-12
-1.5452057607428e-10
1.04670650698005e-11
-1.52640813358673e-10
1.37186597399052e-11
-1.51355767762212e-10
1.54506797445827e-11
-1.50310893726859e-10
1.62492855026506e-11
-1.49344239049718e-10
1.6545012137423e-11
-1.48395458678324e-10
1.66356630439748e-11
-1.4744407528669e-10
1.6657126347646e-11
-1.46485705748779e-10
1.66586859283215e-11
-1.45520283798444e-10
1.66558966817312e-11
-1.4454783247624e-10
1.6653154900686e-11
-1.43568240895316e-10
1.66509337403716e-11
-1.42581829384669e-10
1.66489680214331e-11
-1.4158882018847e-10
1.66481133143586e-11
-1.40589415998374e-10
1.6646640781469e-11
-1.39583712363752e-10
1.66429307901498e-11
-1.38571570934585e-10
1.66385635774157e-11
-1.37553393201223e-10
1.66341130733806e-11
-1.36529053364359e-10
1.66316673787576e-11
-1.35497980971111e-10
1.66304836632551e-11
-1.34459860683042e-10
1.66284782222864e-11
-1.33415373632265e-10
1.66244426928069e-11
-1.32364675473748e-10
1.66207086845555e-11
-1.3130721805304e-10
1.66182191130877e-11
-1.30242035368296e-10
1.66180525020573e-11
-1.29169165615938e-10
1.66180148980344e-11
-1.28088984539896e-10
1.66173521864933e-11
-1.27001019479283e-10
1.6617722015365e-11
-1.25903946967041e-10
1.66214333738915e-11
-1.24797241537341e-10
1.66268328164508e-11
-1.23681145458438e-10
1.66321440671602e-11
-1.22555269473635e-10
1.66387227325796e-11
-1.2141786374564e-10
1.66493554437529e-11
-1.2026682824488e-10
1.66661189451376e-11
-1.19102355684877e-10
1.66836622705454e-11
-1.17924281057306e-10
1.67027229366078e-11
-1.16729779181317e-10
1.67281529197639e-11
-1.15514030461797e-10
1.67675512806247e-11
-1.14277402771794e-10
1.68062428703043e-11
-1.1301955082129e-10
1.68477659066973e-11
-1.1173585894866e-10
1.69029173001823e-11
-1.10418368350153e-10
1.69827480763146e-11
-1.09065253070073e-10
1.70671079919358e-11
-1.07675829078685e-10
1.71553346681035e-11
-1.06243854620157e-10
1.72621260647502e-11
-1.04756459788926e-10
1.74078756486705e-11
-1.03206738683327e-10
1.7575866105414e-11
-1.0159381772434e-10
1.77491154762224e-11
-9.99105980732559e-11
1.79425319977619e-11
-9.81367101443511e-11
1.81955061501624e-11
-9.6252421639858e-11
1.85157583364884e-11
-9.42582654591745e-11
1.88333031153466e-11
-9.21473761910856e-11
1.91690199319397e-11
-8.98873241675204e-11
1.95989994052779e-11
-8.74337022218488e-11
2.01828718109501e-11
-8.47765132083276e-11
2.07827989832132e-11
-8.18802520815216e-11
2.1449328741188e-11
-7.86084267407577e-11
2.24311962542674e-11
-7.46846562616143e-11
2.43216157070611e-11
-7.00024050775924e-11
2.65368710067058e-11
-6.44893712898906e-11
2.89797424690424e-11
-5.79459987268068e-11
3.2078787529709e-11
-5.00954366471551e-11
3.62885554252204e-11
-4.10755403680403e-11
3.9962665723646e-11
-3.10216074883221e-11
4.31234955828437e-11
-1.98512911915583e-11
4.65561254087244e-11
-7.41200540687988e-12
5.06462655722915e-11
6.04198355922795e-12
5.37724657390528e-11
2.03148937598143e-11
5.62243620572442e-11
3.53795783755772e-11
5.86435903557079e-11
5.1152302739585e-11
6.0842095769828e-11
6.73391856525106e-11
6.19960106342063e-11
8.37446414790665e-11
6.25321489003133e-11
1.00197227408502e-10
6.25377507300472e-11
1.1645075918764e-10
6.16929501283276e-11
1.323297023315e-10
6.03061731335314e-11
1.47662497271948e-10
5.83686527525211e-11
1.62162334869861e-10
5.55139713234169e-11
1.75686910241501e-10
5.21507483907184e-11
1.88156783936564e-10
4.8638369197296e-11
1.99431467194034e-10
4.45229844626568e-11
2.09185783257968e-10
3.96428595120024e-11
2.17638299444216e-10
3.49915321487035e-11
2.24543969467519e-10
3.02113636407378e-11
2.30158071798641e-10
2.61076945272314e-11
2.33679085302975e-10
2.02873820307496e-11
2.35875717020834e-10
4.85470249984491e-12
2.36579780191073e-10
1.94058538175401e-12
2.36679433587169e-10
5.10163769754132e-13
2.36009586345832e-10
-1.2869091916917e-12
2.35036721088255e-10
-2.27719668170015e-12
2.33731505584054e-10
-3.02363909015171e-12
2.32276501648825e-10
-3.46273884182653e-12
2.30697398572022e-10
-3.76238691165183e-12
2.29082548519383e-10
-3.87040163610095e-12
2.27457114580387e-10
-3.88258656263093e-12
2.25869742127075e-10
-3.76583322580194e-12
2.24390174674183e-10
-3.43601708379621e-12
2.23180213287947e-10
-2.66047792983336e-12
-9.70345062313953e-13
-3.18021867723187e-10
4.37556124987726e-12
-3.13632405055903e-10
6.13517758638884e-12
-3.10182283634451e-10
1.032599219857e-11
-3.07069576500296e-10
1.23953039380281e-11
-3.04066586929251e-10
1.33035044653636e-11
-3.01091129338875e-10
1.36266390258335e-11
-2.98118953382642e-10
1.37204476470765e-11
-2.9514315677745e-10
1.37381647578472e-11
-2.92162924917934e-10
1.37351606066406e-11
-2.89178661881536e-10
1.37282133411829e-11
-2.86190445908254e-10
1.37213950538543e-11
-2.83198226926457e-10
1.37150458245334e-11
-2.80202141357682e-10
1.37090853006171e-11
-2.77202122992689e-10
1.37041700238262e-11
-2.74198367952493e-10
1.36988350939384e-11
-2.71191272251112e-10
1.36916597949491e-11
-2.68180882643655e-10
1.36838743720742e-11
-2.65167372093099e-10
1.36761783859832e-11
-2.62150358063262e-10
1.36701059592522e-11
-2.59129380389143e-10
1.36648363971732e-11
-2.56104451192114e-10
1.36587512762378e-11
-2.53076187067295e-10
1.365124548374e-11
-2.50044603696499e-10
1.36440586448264e-11
-2.47009233361211e-10
1.36376564666558e-11
-2.43969280963121e-10
1.36327860596823e-11
-2.40924742324488e-10
1.3628033122884e-11
-2.37875886841418e-10
1.36229150757318e-11
-2.34822322374588e-10
1.36184340884133e-11
-2.31762927945393e-10
1.36161725029743e-11
-2.28697193399594e-10
1.36150935498978e-11
-2.25625225613561e-10
1.36140379491441e-11
-2.22546635993995e-10
1.36138588971754e-11
-2.19459965166066e-10
1.36162734533893e-11
-2.16363333197251e-10
1.36229336851038e-11
-2.13256674477535e-10
1.36302966767744e-11
-2.10139669499406e-10
1.36388558833573e-11
-2.07009936312848e-10
1.36514095312402e-11
-2.0386320950479e-10
1.36736617267823e-11
-2.00699681712215e-10
1.36953806092202e-11
-1.97518752616466e-10
1.37193110556503e-11
-1.94316047370727e-10
1.37524853140767e-11
-1.91084206743948e-10
1.38029850052953e-11
-1.87821589244996e-10
1.38563677601049e-11
-1.84527249870651e-10
1.39126486294001e-11
-1.81195267150738e-10
1.39815477042363e-11
-1.77813769926888e-10
1.40775019588451e-11
-1.74376120330568e-10
1.41890349623872e-11
-1.70880967914675e-10
1.43044513295489e-11
-1.67321748620865e-10
1.44334483754279e-11
-1.63679594759163e-10
1.46031332698137e-11
-1.59935421841074e-10
1.48209476111741e-11
-1.56089458081377e-10
1.50361606545017e-11
-1.52135716662551e-10
1.52635423589652e-11
-1.48043593601709e-10
1.55546644417287e-11
-1.43769978397603e-10
1.59565013242929e-11
-1.39306310277242e-10
1.63654963366783e-11
-1.34626935159367e-10
1.6815155674481e-11
-1.29614519360588e-10
1.74627043973405e-11
-1.24005823905919e-10
1.87549648045339e-11
-1.17697627777624e-10
2.02676549082138e-11
-1.10622941595383e-10
2.1939900582157e-11
-1.02580407891205e-10
2.40667004856153e-11
-9.32793839207897e-11
2.70140737551738e-11
-8.28596975654344e-11
2.95653302506018e-11
-7.14675556283601e-11
3.17482997619135e-11
-5.90172402141471e-11
3.41170667248577e-11
-4.53450475315477e-11
3.69803767293016e-11
-3.07111591048424e-11
3.91400144342781e-11
-1.53145061415155e-11
4.08236524520518e-11
8.2897219457528e-13
4.24905369465273e-11
1.76430209669275e-11
4.40133865366418e-11
3.48329358600483e-11
4.47865478890028e-11
5.22106109791294e-11
4.51302187576171e-11
6.96133697714168e-11
4.51064481094678e-11
8.67981360009224e-11
4.44759892749861e-11
1.03596590546193e-10
4.34726309995742e-11
1.19847644068607e-10
4.2079931379459e-11
1.35267615792893e-10
4.00534143794821e-11
1.49724616236309e-10
3.76505495795562e-11
1.63135821532348e-10
3.51826560066195e-11
1.75380616095699e-10
3.22329966868602e-11
1.86124672066931e-10
2.88525454040735e-11
1.95608189618732e-10
2.54608315897406e-11
2.03526246887706e-10
2.22457814946077e-11
2.10310753791556e-10
1.92753336711869e-11
2.14846929731632e-10
1.57031488133295e-11
2.1680920035775e-10
2.84466066428625e-12
2.17281625451777e-10
1.42058419652068e-12
2.17367194567143e-10
3.76612179704198e-13
2.1671283408719e-10
-6.81080402174166e-13
2.15815564990993e-10
-1.42883015382335e-12
2.14610686127244e-10
-1.86804649586349e-12
2.13285636399444e-10
-2.18726480948549e-12
2.11843568129691e-10
-2.36986518620534e-12
2.10374186874439e-10
-2.45054120856097e-12
2.08894479796952e-10
-2.45277549580739e-12
2.07453728390893e-10
-2.37553206612368e-12
2.06118872353115e-10
-2.15190054517278e-12
2.05044125188559e-10
-1.63653066388186e-12
-5.17785298707229e-13
-3.98440628790188e-10
-1.02957780706803e-13
-3.94441719665346e-10
2.19532661185183e-12
-3.90561649701876e-10
6.50484665953353e-12
-3.86590195811945e-10
8.48263777519091e-12
-3.82530356182124e-10
9.30231639097728e-12
-3.78426785375071e-10
9.58158271890811e-12
-3.74306416876475e-10
9.65845665374677e-12
-3.70180241397743e-10
9.67022809155091e-12
-3.66052152059713e-10
9.66516837434403e-12
-3.6192328140368e-10
9.65729971740216e-12
-3.57793752840238e-10
9.64968676599191e-12
-3.53663513179412e-10
9.64248817792132e-12
-3.49532540823365e-10
9.63565348220958e-12
-3.45400591992967e-10
9.62962066557895e-12
-3.4126783658823e-10
9.62334015819385e-12
-3.37134818588156e-10
9.61576435755782e-12
-3.33001700708818e-10
9.6077415007049e-12
-3.28868502601368e-10
9.59982748767751e-12
-3.2473472582518e-10
9.59303989791681e-12
-3.2060003036184e-10
9.58671620084385e-12
-3.16464620968979e-10
9.57977559341813e-12
-3.12329016737873e-10
9.57192606074457e-12
-3.08193148234412e-10
9.56432782505461e-12
-3.0405665171979e-10
9.55715859104244e-12
-2.99918914070496e-10
9.55091197261659e-12
-2.95779899193868e-10
9.54473923473888e-12
-2.91639776077172e-10
9.53836076354414e-12
-2.87498244345432e-10
9.53231551489549e-12
-2.83354416010735e-10
9.52760050245991e-12
-2.79207831139603e-10
9.52361295781718e-12
-2.75058489834092e-10
9.51965359890855e-12
-2.70906034627469e-10
9.51621102940695e-12
-2.66749329388387e-10
9.51422483996458e-12
-2.62586784693835e-10
9.51488956948744e-12
-2.58418165286965e-10
9.51601009854577e-12
-2.54243060591081e-10
9.51791457414237e-12
-2.50059607791644e-10
9.52195784942183e-12
-2.45864221833127e-10
9.53211016431752e-12
-2.41656960710659e-10
9.5417659361504e-12
-2.37437075029677e-10
9.55286976260672e-12
-2.33200764536654e-10
9.56940796436999e-12
-2.28941618945874e-10
9.5968607981105e-12
-2.24658228974412e-10
9.62578349344778e-12
-2.20349523058367e-10
9.6565087141018e-12
-2.16010330120987e-10
9.6946555336129e-12
-2.11630360644623e-10
9.74953558097113e-12
-2.07203642759201e-10
9.81399778188651e-12
-2.02728599296402e-10
9.88074053312166e-12
-1.98199575204833e-10
9.95538610773706e-12
-1.93600285851312e-10
1.00544327433691e-11
-1.88913404629677e-10
1.01842169803902e-11
-1.84139002372841e-10
1.03113466266863e-11
-1.79272092728873e-10
1.04456416632872e-11
-1.74286051527219e-10
1.06171358638507e-11
-1.69141530367218e-10
1.08599279958915e-11
-1.63831922874955e-10
1.11029315821218e-11
-1.58339506677713e-10
1.13685890918031e-11
-1.52570752467107e-10
1.17384912908492e-11
-1.46289618116096e-10
1.25164554796764e-11
-1.39404006977535e-10
1.34215551668776e-11
-1.31854807942893e-10
1.44260146900295e-11
-1.234581170604e-10
1.57008566589099e-11
-1.13932710856171e-10
1.75155505182878e-11
-1.03410616834018e-10
1.90658749491746e-11
-9.20327129448561e-11
2.03875700570542e-11
-7.97206124961979e-11
2.18163857801271e-11
-6.63123934650769e-11
2.35785714646186e-11
-5.20542076908662e-11
2.48833381055635e-11
-3.71310050718307e-11
2.58964317136822e-11
-2.15516843219502e-11
2.69016501749472e-11
-5.38072897664667e-12
2.78277622051785e-11
1.11076126809191e-11
2.82786435279585e-11
2.77443405744693e-11
2.84692242201598e-11
4.43846682898429e-11
2.8437576911441e-11
6.08045767236817e-11
2.80239050577366e-11
7.68538767321506e-11
2.73882917311662e-11
9.23887539151024e-11
2.65074788653182e-11
1.07152105710192e-10
2.52496187531628e-11
1.21023564849979e-10
2.37360775410058e-11
1.3393359351808e-10
2.22283521593098e-11
1.45769170057449e-10
2.03525186665194e-11
1.56240674335299e-10
1.83351364014376e-11
1.6554297056727e-10
1.6111766763903e-11
1.73426643469279e-10
1.43150667526067e-11
1.80339042086408e-10
1.23156375319062e-11
1.85240661016934e-10
1.07540952866615e-11
1.86759941660922e-10
1.27826759461392e-12
1.87047853079447e-10
1.08577480954158e-12
1.87087836437159e-10
2.89336185254563e-13
1.86509604254927e-10
-1.50684355813359e-13
1.85727097717277e-10
-6.94529999059198e-13
1.84693729137037e-10
-8.83270538225686e-13
1.83562324726642e-10
-1.10474694356329e-12
1.82333629488338e-10
-1.1900361414137e-12
1.81082951036445e-10
-1.24871397735501e-12
1.79824089791771e-10
-1.24314759646822e-12
1.78599395379206e-10
-1.20062893960015e-12
1.77467341177714e-10
-1.06993225515755e-12
1.7656136625655e-10
-7.80709007167156e-13
-1.43804891592351e-13
-3.95716991287717e-10
-2.65746364646103e-12
-3.9331672743101e-10
-1.44424252327711e-13
-3.8996784432137e-10
3.21633123805762e-12
-3.86063131668406e-10
4.63814289534021e-12
-3.81883047879658e-10
5.18230155397317e-12
-3.77599297042413e-10
5.35775136299011e-12
-3.73283746996061e-10
5.40267659254359e-12
-3.68961446167612e-10
5.40754599294226e-12
-3.64639586934447e-10
5.4027735080209e-12
-3.60319669311005e-10
5.39669370594846e-12
-3.56001750976796e-10
5.3909306505533e-12
-3.5168572363365e-10
5.38547215213247e-12
-3.47371459986746e-10
5.38024697648462e-12
-3.43058633891019e-10
5.37549790474423e-12
-3.3874737665606e-10
5.37063451431009e-12
-3.34438258047657e-10
5.36504670449955e-12
-3.30131485473019e-10
5.35921960544617e-12
-3.25827004902831e-10
5.35344706863988e-12
-3.21524309431068e-10
5.34829536981792e-12
-3.17223160786452e-10
5.3433703489419e-12
-3.1292384021867e-10
5.33810342405979e-12
-3.08626771352179e-10
5.33234366419639e-12
-3.04331849427414e-10
5.326732197743e-12
-3.00038817554094e-10
5.32130105164755e-12
-2.95747223483297e-10
5.31634434095143e-12
-2.91457024259996e-10
5.31141094930851e-12
-2.87168325572198e-10
5.30636767894915e-12
-2.82880924560612e-10
5.30145116528433e-12
-2.78594157616037e-10
5.29720004542564e-12
-2.74307647964286e-10
5.2933044405766e-12
-2.7002135214822e-10
5.28939837377837e-12
-2.65734985654171e-10
5.28572227897955e-12
-2.61447738433828e-10
5.28269139543771e-12
-2.57158341183944e-10
5.28103666264137e-12
-2.5286652509376e-10
5.27955695062419e-12
-2.48571895263254e-10
5.2784644815362e-12
-2.44273147682802e-10
5.27821408025659e-12
-2.39967406337501e-10
5.28119233731216e-12
-2.35654731660407e-10
5.28371179590557e-12
-2.31334406441376e-10
5.28695138900779e-12
-2.27003474460629e-10
5.29265973293004e-12
-2.22656695149279e-10
5.30403777336754e-12
-2.18293039244244e-10
5.31585334465144e-12
-2.13911552166024e-10
5.3284924707553e-12
-2.09508204794522e-10
5.34449806003973e-12
-2.05074718582955e-10
5.36892532572528e-12
-2.00606211422333e-10
5.3980274582521e-12
-1.96101301489141e-10
5.42800212224415e-12
-1.91555653472157e-10
5.46152103199188e-12
-1.86956452351125e-10
5.50662376608718e-12
-1.82289094339881e-10
5.56779411891675e-12
-1.77553963475243e-10
5.6265677736253e-12
-1.72747316270865e-10
5.68874572807054e-12
-1.67848449286571e-10
5.76750353948498e-12
-1.62823909279842e-10
5.88403724735207e-12
-1.57670211934037e-10
5.99695357064682e-12
-1.52376030275168e-10
6.12090466751293e-12
-1.46875884652943e-10
6.28350451228418e-12
-1.40973321465981e-10
6.65709957755328e-12
-1.34596401435311e-10
7.084680769232e-12
-1.2769729626132e-10
7.56269423841313e-12
-1.20128092771482e-10
8.16290249484253e-12
-1.11638746805555e-10
9.0534285682607e-12
-1.02346477656799e-10
9.79653086563608e-12
-9.23712242664846e-11
1.04297158832532e-11
-8.1651222922411e-11
1.11079628810309e-11
-7.00379175603269e-11
1.19717848377077e-11
-5.77454539263691e-11
1.2592449645593e-11
-4.49272520178198e-11
1.30742427009876e-11
-3.15878340846796e-11
1.35526679452896e-11
-1.77748917937186e-11
1.40001354829643e-11
-3.7210883374729e-12
1.42052564319943e-11
1.04366296314323e-11
1.42872233892329e-11
2.4581682868096e-11
1.42639781524603e-11
3.85257175836744e-11
1.40477137141794e-11
5.21488402241802e-11
1.37301807240109e-11
6.53319011920593e-11
1.32869392849244e-11
7.7868257524768e-11
1.2672966430084e-11
8.96504742704951e-11
1.19110420436267e-11
1.0063953160503e-10
1.11952617836215e-11
1.10716761928096e-10
1.02306882085972e-11
1.19692623524861e-10
9.31373235447534e-12
1.27648607226137e-10
8.10943578869527e-12
1.3450317000009e-10
7.41394920937377e-12
1.40533582358346e-10
6.23848428785264e-12
1.4516235531672e-10
6.07850744861376e-12
1.46061598988151e-10
3.32567066096725e-13
1.46240343555336e-10
8.60808061258423e-13
1.46211584921822e-10
2.71490423318035e-13
1.45772446991163e-10
2.41312497205909e-13
1.45143067547996e-10
-1.12659863895028e-13
1.44348356287407e-10
-1.36455682999698e-13
1.43468843109203e-10
-2.7342750866294e-13
1.42522832335301e-10
-2.92206803110625e-13
1.4155669993309e-10
-3.30757251649221e-13
1.40586602960643e-10
-3.21613560717306e-13