/*--------------------------------*- C++ -*----------------------------------*\
  =========                 |
  \\      /  F ield         | OpenFOAM: The Open Source CFD Toolbox
   \\    /   O peration     | Website:  https://openfoam.org
    \\  /    A nd           | Version:  8
     \\/     M anipulation  |
\*---------------------------------------------------------------------------*/
FoamFile
{
    version     2.0;
    format      ascii;
    class       pointVectorField;
    location    "0.0320000";
    object      pointDisplacement;
}
// * * * * * * * * * * * * * * * * * * * * * * * * * * * * * * * * * * * * * //

dimensions      [0 1 0 0 0 0 0];

internalField   nonuniform List<vector> 
1414
(
(-1.82148244995313e-36 -1.05564808832118e-07 4.60905909156716e-09)
(-1.85190152312583e-36 -1.07315572462188e-07 4.68549908246595e-09)
(-1.92581187837749e-36 -1.11585630477869e-07 4.87193384170461e-09)
(-2.02436428012166e-36 -1.17316325432529e-07 5.12214138694612e-09)
(-2.13532308342492e-36 -1.23731812774246e-07 5.40224761350311e-09)
(-2.25636226736116e-36 -1.3074679220106e-07 5.70852822976164e-09)
(-2.38776738292622e-36 -1.38388553598372e-07 6.04217473785015e-09)
(-2.53158320483926e-36 -1.4674446203617e-07 6.40700157910159e-09)
(-2.68471315496421e-36 -1.55553850485504e-07 6.79162778524689e-09)
(-2.8437435357173e-36 -1.64797883114819e-07 7.19523096611986e-09)
(-3.01228463004125e-36 -1.74582035081817e-07 7.62241626655914e-09)
(-3.18849111843514e-36 -1.84819040510431e-07 8.06937357613201e-09)
(-3.37268442513552e-36 -1.95411160951478e-07 8.53183554198866e-09)
(-3.56101893874078e-36 -2.06352523722123e-07 9.00954575725912e-09)
(-3.75867762506532e-36 -2.17813115456549e-07 9.50992599867365e-09)
(-3.96285663161709e-36 -2.29600593923223e-07 1.00245784230424e-08)
(-4.17079515379282e-36 -2.4170617631664e-07 1.05531195647957e-08)
(-4.38674058328983e-36 -2.54190157786963e-07 1.10981819670424e-08)
(-4.60885621018495e-36 -2.67112738592943e-07 1.16623940298429e-08)
(-4.83603139894652e-36 -2.80354286950082e-07 1.22405325166843e-08)
(-5.07026070175673e-36 -2.9391582968916e-07 1.28326422599665e-08)
(-5.31307375359846e-36 -3.07920972825562e-07 1.34441200148705e-08)
(-5.56095497688441e-36 -3.22326674026585e-07 1.40730865125655e-08)
(-5.81700955932842e-36 -3.37069099362568e-07 1.47167547034928e-08)
(-6.07572737116101e-36 -3.52157926113336e-07 1.53755471068145e-08)
(-6.34635509890159e-36 -3.67808489449188e-07 1.60588654591073e-08)
(-6.62075382170316e-36 -3.83833176472863e-07 1.67585184043747e-08)
(-6.90959367627557e-36 -4.00241547742002e-07 1.74749233655783e-08)
(-7.19709617643518e-36 -4.17148608672528e-07 1.82131015876167e-08)
(-7.50055509405224e-36 -4.34630581753231e-07 1.89763810162214e-08)
(-7.81001201751213e-36 -4.52560992312019e-07 1.97592396479549e-08)
(-8.12805555986278e-36 -4.70954170430921e-07 2.05623031477103e-08)
(-8.45546632282155e-36 -4.90078095902125e-07 2.13972717658953e-08)
(-8.79333485290531e-36 -5.09817363294921e-07 2.2259106792588e-08)
(-9.14753862186817e-36 -5.30131419366998e-07 2.31460376349913e-08)
(-9.50889408009433e-36 -5.51106908226994e-07 2.40618472565857e-08)
(-9.88889214404057e-36 -5.73105340996348e-07 2.50223195738052e-08)
(-1.02812363425016e-35 -5.95859758546964e-07 2.60157988993991e-08)
(-1.06910522441066e-35 -6.19409173032791e-07 2.70439885407937e-08)
(-1.11144138813949e-35 -6.44112488014605e-07 2.81225585658657e-08)
(-1.15630991567488e-35 -6.70103495388927e-07 2.92573504549707e-08)
(-1.20282689036631e-35 -6.97198486246696e-07 3.04403433039184e-08)
(-1.25165237984241e-35 -7.25459644144809e-07 3.16742521054364e-08)
(-1.30406289749977e-35 -7.55825065282988e-07 3.30000350241433e-08)
(-1.35923651564779e-35 -7.87867113525667e-07 3.43990210631388e-08)
(-1.41739823125205e-35 -8.21616460518446e-07 3.58725493753901e-08)
(-1.47973157426929e-35 -8.57571855195592e-07 3.7442395809642e-08)
(-1.54700337109242e-35 -8.96723471589215e-07 3.91517922977799e-08)
(-1.61934448730347e-35 -9.38435242148486e-07 4.09729675307813e-08)
(-1.69528096318911e-35 -9.82876302013811e-07 4.2913306108355e-08)
(-1.77964678967835e-35 -1.03178094614254e-06 4.50485289836206e-08)
(-1.87273124858409e-35 -1.08522604092926e-06 4.73819922158434e-08)
(-1.9719560583517e-35 -1.1428383246581e-06 4.98973988465575e-08)
(-2.07938981353212e-35 -1.20514058974274e-06 5.2617574485489e-08)
(-2.2013863825158e-35 -1.27587383222846e-06 5.57058545473919e-08)
(-2.33457081081893e-35 -1.3529524303032e-06 5.90711788174013e-08)
(-2.47925993090325e-35 -1.43682000986841e-06 6.27329164206729e-08)
(-2.64126692967556e-35 -1.53069728720171e-06 6.68316868667289e-08)
(-2.82388410967313e-35 -1.63656820030399e-06 7.14541107593596e-08)
(-3.02441380319632e-35 -1.75272032747775e-06 7.65254221525956e-08)
(-3.24434833705769e-35 -1.87979794090708e-06 8.20737505774837e-08)
(-3.49922627720717e-35 -2.027323652695e-06 8.85148622573938e-08)
(-3.78231837766379e-35 -2.19093290535937e-06 9.5658196497277e-08)
(-4.09158359452545e-35 -2.37118293104591e-06 1.03528082578035e-07)
(-4.44305640542131e-35 -2.57406473101521e-06 1.12386093263671e-07)
(-4.86351604103106e-35 -2.81716694217181e-06 1.23000165025912e-07)
(-5.34795746681408e-35 -3.09996149702848e-06 1.35347241940348e-07)
(-5.91474319022716e-35 -3.42782766551142e-06 1.49662188004114e-07)
(-6.63563346796816e-35 -3.84501876500203e-06 1.67877144780913e-07)
(-7.48586945027288e-35 -4.33873364158051e-06 1.8943320182029e-07)
(-8.45311763000731e-35 -4.89804858284066e-06 2.13853419538527e-07)
(-9.54614370527972e-35 -5.53277441472629e-06 2.41566147847044e-07)
(-1.07831127372302e-34 -6.25043512098293e-06 2.72899890970598e-07)
(-1.21018796456085e-34 -7.01490771605504e-06 3.06277485299164e-07)
(-1.34976506175154e-34 -7.82215934631218e-06 3.41522852640624e-07)
(-1.49717480840954e-34 -8.67735826886394e-06 3.78861643973578e-07)
(-1.6473892111202e-34 -9.54904908471893e-06 4.16920486918498e-07)
(-1.79909043051366e-34 -1.04261335384217e-05 4.55214821177558e-07)
(-1.94948023902199e-34 -1.12968818896787e-05 4.93232515229471e-07)
(-2.09283361181469e-34 -1.21311800138005e-05 5.29658757995431e-07)
(-2.22926075148716e-34 -1.29246756162468e-05 5.64303524191996e-07)
(-2.3586202313753e-34 -1.36712145131273e-05 5.96898116347682e-07)
(-2.46875486849774e-34 -1.43089587635496e-05 6.24742631655602e-07)
(-2.56441623142567e-34 -1.48560175458141e-05 6.48627733915652e-07)
(-2.64184273823647e-34 -1.53127091942835e-05 6.68567321906269e-07)
(-2.697858717473e-34 -1.56339800177224e-05 6.82594308986603e-07)
(-2.72891197214386e-34 -1.58129037903511e-05 6.90406289608321e-07)
(-2.7436185084986e-34 -1.59023118241116e-05 6.94309928665901e-07)
(-2.7439748302237e-34 -1.59041072080561e-05 6.94388316821803e-07)
(-2.72868054669355e-34 -1.58146501286366e-05 6.90482536384502e-07)
(-2.70647839714239e-34 -1.56901541079422e-05 6.85046922732629e-07)
(-2.68054037960753e-34 -1.55349448735667e-05 6.78270341211688e-07)
(-2.6488791739521e-34 -1.53487836560071e-05 6.70142366920036e-07)
(-2.61376862706097e-34 -1.51487995235824e-05 6.61410871131633e-07)
(-2.57769197075027e-34 -1.49397029379509e-05 6.52281517044013e-07)
(-2.54054083913452e-34 -1.47233833552537e-05 6.42836800093877e-07)
(-2.50303522250359e-34 -1.45072297354406e-05 6.33399329239749e-07)
(-2.46624408603278e-34 -1.42946641971342e-05 6.24118517407435e-07)
(-2.43112068217219e-34 -1.40884008942351e-05 6.15112867115439e-07)
(-2.3993437637916e-34 -1.39045526417361e-05 6.07085879059248e-07)
(-2.37175454403582e-34 -1.37458123697976e-05 6.0015512910886e-07)
(-3.21691380609495e-24 -1.52227353123981e-06 6.64638977386013e-08)
(7.01936476213095e-26 -1.52171699898711e-06 6.6439599015889e-08)
(7.02808633904854e-26 -1.52370354676568e-06 6.65263335650343e-08)
(7.0421538153814e-26 -1.52702102039399e-06 6.66711775917212e-08)
(7.0608451437673e-26 -1.53103911364828e-06 6.68466113318984e-08)
(7.08460838180331e-26 -1.53557217428917e-06 6.70445290337414e-08)
(7.10753759179089e-26 -1.5406333811758e-06 6.72655060986677e-08)
(7.12976769624575e-26 -1.54621053324681e-06 6.75090098168326e-08)
(7.15596409088738e-26 -1.55221068440711e-06 6.77709820740857e-08)
(7.18488812187129e-26 -1.55859478708864e-06 6.80497180167868e-08)
(7.21356104211775e-26 -1.5653848783238e-06 6.83461798025496e-08)
(7.24432832279008e-26 -1.5725466366907e-06 6.86588689257326e-08)
(7.27904010694989e-26 -1.58002065909149e-06 6.89851917910712e-08)
(7.3131667755423e-26 -1.58782026554646e-06 6.93257299632116e-08)
(7.34681788925108e-26 -1.59597463085736e-06 6.9681757241507e-08)
(7.38585044906217e-26 -1.60443774228823e-06 7.00512646665199e-08)
(7.42705887634385e-26 -1.61317887187885e-06 7.04329106265331e-08)
(7.4658770442728e-26 -1.62223418622479e-06 7.08282741892108e-08)
(7.50642109261577e-26 -1.6316162109452e-06 7.12379022348961e-08)
(7.55258684328497e-26 -1.64128812774093e-06 7.16601872419317e-08)
(7.59958223014105e-26 -1.65125160763124e-06 7.20952021685938e-08)
(7.64519998296809e-26 -1.66154938526965e-06 7.25448128501502e-08)
(7.69244853734377e-26 -1.67217599778466e-06 7.30087807724805e-08)
(7.74109922369464e-26 -1.68309790664636e-06 7.34856416117448e-08)
(7.79354110860796e-26 -1.6943513634192e-06 7.39769781454284e-08)
(7.84958935224493e-26 -1.7059885649224e-06 7.44850693358761e-08)
(7.90383295918707e-26 -1.71797829249512e-06 7.5008552146919e-08)
(7.95658957579239e-26 -1.73030947780087e-06 7.55469433245491e-08)
(8.01245581463828e-26 -1.74304838230754e-06 7.61031359069335e-08)
(8.07203500158263e-26 -1.75622406556205e-06 7.6678398661291e-08)
(8.13390012697596e-26 -1.76980238335044e-06 7.72712408190455e-08)
(8.19756032809852e-26 -1.78381939200231e-06 7.78832366335446e-08)
(8.26253697916986e-26 -1.79836561313966e-06 7.85183383641589e-08)
(8.33008274643684e-26 -1.8134401576951e-06 7.91765071933679e-08)
(8.40070667427405e-26 -1.82901938784938e-06 7.98567110716945e-08)
(8.47395158258733e-26 -1.84520755726386e-06 8.05635018122957e-08)
(8.55190300081602e-26 -1.86211714604879e-06 8.13017904028432e-08)
(8.63152706232651e-26 -1.87971957495379e-06 8.20703290463176e-08)
(8.71390711076526e-26 -1.89805000482709e-06 8.28706528985066e-08)
(8.80489926922757e-26 -1.9172951882534e-06 8.37109157533492e-08)
(8.89954024916801e-26 -1.93754683019177e-06 8.45951215358266e-08)
(8.99294177500989e-26 -1.95876634403597e-06 8.55215855183273e-08)
(9.09054853457735e-26 -1.98113925883409e-06 8.6498408074028e-08)
(9.20096238431212e-26 -2.00498027364928e-06 8.75393292607583e-08)
(9.31959658449558e-26 -2.03031147650998e-06 8.86453134626667e-08)
(9.44102993043751e-26 -2.05715645033191e-06 8.981739033209e-08)
(9.57132456247218e-26 -2.08594105648904e-06 9.10741533781642e-08)
(9.71435560413415e-26 -2.11704841113541e-06 9.24323298134183e-08)
(9.86835957971533e-26 -2.15044829374448e-06 9.38906001811682e-08)
(1.00332687880105e-25 -2.18644081521426e-06 9.54620676061986e-08)
(1.02136345167624e-25 -2.22580564206869e-06 9.71807730640985e-08)
(1.04091505688645e-25 -2.26885624667692e-06 9.9060403054081e-08)
(1.06196241774879e-25 -2.31554444323133e-06 1.01098853738351e-07)
(1.08533129097844e-25 -2.36680677669835e-06 1.03337015553218e-07)
(1.11182703407239e-25 -2.42387884199675e-06 1.0582883573789e-07)
(1.14102510235134e-25 -2.48674910169307e-06 1.08573810557142e-07)
(1.17274415721685e-25 -2.55582600820106e-06 1.11589773428493e-07)
(1.20786594043139e-25 -2.63298575266634e-06 1.14958640626438e-07)
(1.24699903493774e-25 -2.71936913152123e-06 1.18730220398877e-07)
(1.29051852749179e-25 -2.81475828305632e-06 1.22895000698154e-07)
(1.3391543222305e-25 -2.92108528765103e-06 1.27537337975411e-07)
(1.39425649641082e-25 -3.04156471477174e-06 1.32797583364594e-07)
(1.456014561815e-25 -3.1764516912001e-06 1.38686875941553e-07)
(1.52450697977177e-25 -3.32621449000688e-06 1.45225660950094e-07)
(1.60308575832718e-25 -3.49721558354089e-06 1.52691729932199e-07)
(1.69538835392185e-25 -3.69795327590346e-06 1.61456126858053e-07)
(1.80291282451644e-25 -3.93281140307342e-06 1.71710254140052e-07)
(1.9312234408848e-25 -4.21322081309639e-06 1.83953193382112e-07)
(2.08840813969847e-25 -4.55620818905705e-06 1.98928345622315e-07)
(2.27516980747403e-25 -4.96333001635089e-06 2.16703668480654e-07)
(2.4886203716652e-25 -5.42915819436502e-06 2.37042165966167e-07)
(2.73006483603108e-25 -5.95720346045925e-06 2.60097120182287e-07)
(2.99916708393667e-25 -6.54515275811863e-06 2.8576754090057e-07)
(3.28987510479526e-25 -7.17861350886419e-06 3.13425034573739e-07)
(3.59741193943869e-25 -7.84934276203486e-06 3.42709706203581e-07)
(3.91930950266549e-25 -8.55218316370482e-06 3.73396380854781e-07)
(4.24961882808262e-25 -9.27281136041958e-06 4.04859687409903e-07)
(4.58171304613053e-25 -9.99749604616693e-06 4.36500104101087e-07)
(4.90977298099262e-25 -1.07128833822452e-05 4.67734589739169e-07)
(5.22633912006379e-25 -1.14032001876819e-05 4.97874472370214e-07)
(5.52629908640561e-25 -1.20585528549223e-05 5.26487787759627e-07)
(5.8030401841922e-25 -1.26630242854757e-05 5.52879580378924e-07)
(6.04645611284255e-25 -1.31939256602712e-05 5.76059234993994e-07)
(6.2532220781445e-25 -1.36453490088391e-05 5.95768804043445e-07)
(6.4205982008051e-25 -1.40112023806362e-05 6.11742307222411e-07)
(6.54076290252255e-25 -1.42733538057642e-05 6.23188085628343e-07)
(6.61362853491425e-25 -1.44315911419537e-05 6.30096876929729e-07)
(6.64806077793213e-25 -1.45059837341975e-05 6.33344927652513e-07)
(6.64887892123905e-25 -1.45080799724263e-05 6.33436451390146e-07)
(6.62091010968317e-25 -1.44480014346633e-05 6.3081336578284e-07)
(6.57481316499886e-25 -1.43477651452207e-05 6.26436954872112e-07)
(6.51657433150055e-25 -1.42201984829883e-05 6.20867274115337e-07)
(6.44827497050005e-25 -1.40707007833649e-05 6.14340063587103e-07)
(6.37321677657707e-25 -1.39070998698684e-05 6.07197093443133e-07)
(6.29425531058185e-25 -1.37350983302778e-05 5.99687344042867e-07)
(6.21301522260673e-25 -1.35582245900314e-05 5.91964869767932e-07)
(6.13159852567422e-25 -1.33806230404783e-05 5.84210618652409e-07)
(6.05185195010163e-25 -1.32059897409061e-05 5.76585964129836e-07)
(5.9757961883604e-25 -1.30398400282883e-05 5.69331711012945e-07)
(5.90872135030233e-25 -1.28938020908075e-05 5.629555569621e-07)
(-2.55109107849045e-23 -1.2821877806908e-05 5.59815274907337e-07)
(-5.99616268071261e-24 -2.88921368512161e-06 1.26145793756588e-07)
(1.33114090532632e-25 -2.88675405171663e-06 1.26038403843296e-07)
(1.33136735489656e-25 -2.88735532659693e-06 1.26064656071517e-07)
(1.33194990409766e-25 -2.88908073243554e-06 1.26139988917331e-07)
(1.33306064330402e-25 -2.89135804677943e-06 1.26239418608885e-07)
(1.33489483461101e-25 -2.89404160262625e-06 1.26356585187505e-07)
(1.33628210312942e-25 -2.89714182359932e-06 1.26491943758414e-07)
(1.33724883774429e-25 -2.9006495409181e-06 1.26645094004009e-07)
(1.33876574858704e-25 -2.90449130176551e-06 1.26812828905036e-07)
(1.34061477720096e-25 -2.90863646120522e-06 1.26993810474681e-07)
(1.34219443367847e-25 -2.91310274116245e-06 1.27188812468908e-07)
(1.34398280641899e-25 -2.91786312110046e-06 1.27396655145604e-07)
(1.34638171974967e-25 -2.92287076067663e-06 1.27615293411247e-07)
(1.34849152402479e-25 -2.9281361971526e-06 1.27845187332613e-07)
(1.3503115675863e-25 -2.93368302378132e-06 1.28087367013374e-07)
(1.35302465908271e-25 -2.93947467358739e-06 1.28340235904903e-07)
(1.3560213242124e-25 -2.94548701577938e-06 1.28602740434095e-07)
(1.3583763759395e-25 -2.95174880104666e-06 1.28876135883156e-07)
(1.36089063834743e-25 -2.95827026409174e-06 1.29160869108848e-07)
(1.36435855319664e-25 -2.96502217677528e-06 1.29455663983049e-07)
(1.36783663543222e-25 -2.97200593696462e-06 1.29760581537963e-07)
(1.37086150668304e-25 -2.97925576937348e-06 1.30077116056863e-07)
(1.37402933810118e-25 -2.98676740284743e-06 1.3040508105712e-07)
(1.37731311579854e-25 -2.99451430228757e-06 1.30743317991295e-07)
(1.38116556079824e-25 -3.00252516711688e-06 1.31093079903257e-07)
(1.38552670233598e-25 -3.01084211474197e-06 1.3145620567869e-07)
(1.38934318677583e-25 -3.01944002867415e-06 1.31831598708016e-07)
(1.39267859275461e-25 -3.02831028107998e-06 1.32218882291892e-07)
(1.3964058513464e-25 -3.03750574130009e-06 1.32620364755581e-07)
(1.4006314907055e-25 -3.04704986226368e-06 1.33037070076085e-07)
(1.40509233366635e-25 -3.05691533362696e-06 1.33467805858044e-07)
(1.40967166718968e-25 -3.06713074268727e-06 1.33913820249815e-07)
(1.41422502706043e-25 -3.07776889940473e-06 1.34378292202909e-07)
(1.41899988739513e-25 -3.08882887240937e-06 1.34861181052836e-07)
(1.42411098375939e-25 -3.10029186066248e-06 1.35361665928518e-07)
(1.42941058267671e-25 -3.11224070847275e-06 1.35883363890586e-07)
(1.43525237727826e-25 -3.12476625397327e-06 1.36430241017584e-07)
(1.44105102963429e-25 -3.13784487207343e-06 1.37001265815779e-07)
(1.44699777025905e-25 -3.1515044755955e-06 1.37597656985311e-07)
(1.45415531051786e-25 -3.16589467933746e-06 1.38225946849332e-07)
(1.46149530301474e-25 -3.1810890817102e-06 1.38889348783859e-07)
(1.46806458517728e-25 -3.19705616492118e-06 1.39586486692351e-07)
(1.47483539859884e-25 -3.21394279744192e-06 1.40323772990759e-07)
(1.48334812582133e-25 -3.23200340543511e-06 1.41112316165245e-07)
(1.49268653975419e-25 -3.25125348292436e-06 1.4195279269949e-07)
(1.50175801770972e-25 -3.27171129925453e-06 1.42846000250317e-07)
(1.51153040975045e-25 -3.29371666046615e-06 1.43806775069862e-07)
(1.52256869211368e-25 -3.31757931243502e-06 1.44848640955123e-07)
(1.53453918227841e-25 -3.34327114986004e-06 1.45970370802155e-07)
(1.5472630582145e-25 -3.37102959019715e-06 1.47182330480947e-07)
(1.56122275887884e-25 -3.40148336099499e-06 1.48511970829104e-07)
(1.57618710149194e-25 -3.43488181501723e-06 1.49970178823406e-07)
(1.59213920989082e-25 -3.47118214731e-06 1.51555085559205e-07)
(1.61020656345066e-25 -3.51112785481849e-06 1.53299152814179e-07)
(1.63132884208418e-25 -3.55572508593643e-06 1.55246309975903e-07)
(1.65466463777355e-25 -3.60494877396399e-06 1.57395462608627e-07)
(1.6796267896324e-25 -3.65912087780349e-06 1.59760667741605e-07)
(1.70694912151679e-25 -3.71975118842558e-06 1.62407844272209e-07)
(1.73722201299848e-25 -3.78776040637041e-06 1.6537719085416e-07)
(1.77130207082479e-25 -3.86295556331009e-06 1.6866028230831e-07)
(1.80958350533223e-25 -3.94686465118459e-06 1.72323832203515e-07)
(1.85302370403105e-25 -4.04211420005626e-06 1.76482517318875e-07)
(1.90184247315169e-25 -4.14886808171142e-06 1.81143492451097e-07)
(1.95592824132823e-25 -4.26747740017977e-06 1.86322087133177e-07)
(2.01847160991813e-25 -4.40300876056588e-06 1.92239514121325e-07)
(2.09211332200556e-25 -4.56232923370665e-06 1.99195596203303e-07)
(2.17739722715931e-25 -4.74885244130119e-06 2.07339375321225e-07)
(2.27911083551247e-25 -4.9716176089352e-06 2.17065512587328e-07)
(2.40417518121313e-25 -5.24448292468287e-06 2.28979069559936e-07)
(2.55308848895862e-25 -5.56857474777018e-06 2.4312922414491e-07)
(2.72303165717496e-25 -5.93948110450669e-06 2.59323345410836e-07)
(2.91471044599358e-25 -6.36007379499496e-06 2.77686818858037e-07)
(3.12874873731786e-25 -6.828573966382e-06 2.98141978093656e-07)
(3.360918087021e-25 -7.33337291226406e-06 3.20181976050156e-07)
(3.60622140363192e-25 -7.86790425959916e-06 3.43520118689035e-07)
(3.86254987980455e-25 -8.42804162054659e-06 3.67976244026359e-07)
(4.12588952150435e-25 -9.00234463096327e-06 3.93050854976424e-07)
(4.39054260022449e-25 -9.57983074746641e-06 4.18264443339602e-07)
(4.65219695152141e-25 -1.01497893070968e-05 4.43149371471917e-07)
(4.90468103320796e-25 -1.0699744652163e-05 4.67160940395156e-07)
(5.14314664226179e-25 -1.12216404554736e-05 4.89947403267759e-07)
(5.36303376599684e-25 -1.17025730332677e-05 5.10945373089735e-07)
(5.55697620041259e-25 -1.21251955301377e-05 5.29397469797484e-07)
(5.72131863381595e-25 -1.24842081971925e-05 5.45072301357246e-07)
(5.85372745132787e-25 -1.27743020398506e-05 5.57738072059691e-07)
(5.94908459327199e-25 -1.29821989299904e-05 5.66815046310968e-07)
(6.00771564797061e-25 -1.31085743664044e-05 5.72332717025295e-07)
(6.03550404361545e-25 -1.31677126545086e-05 5.74914750445926e-07)
(6.03619674680126e-25 -1.31698331852642e-05 5.75007334818184e-07)
(6.0140427076934e-25 -1.3123381092543e-05 5.72979192649898e-07)
(5.97753560395562e-25 -1.30444214701297e-05 5.6953174108362e-07)
(5.93168018268066e-25 -1.29434023020523e-05 5.65121148953515e-07)
(5.87787833983344e-25 -1.28250866037827e-05 5.59955374006171e-07)
(5.81827946873287e-25 -1.26954055302611e-05 5.54293376058812e-07)
(5.75545657327873e-25 -1.25589229646881e-05 5.48334418555304e-07)
(5.69077046564508e-25 -1.24185746910265e-05 5.42206680591637e-07)
(5.62609994560126e-25 -1.22775797031499e-05 5.36050706475553e-07)
(5.56314054419632e-25 -1.21389720747388e-05 5.29998966724791e-07)
(5.50300864896992e-25 -1.20073895703269e-05 5.24253950511889e-07)
(5.45019440484291e-25 -1.18927965588371e-05 5.19250711579503e-07)
(-2.34645054508636e-23 -1.18374525721909e-05 5.16834340936654e-07)
(-8.59070700500653e-24 -4.21409783713593e-06 1.83991485078078e-07)
(1.93950330532049e-25 -4.21005484517197e-06 1.83814964237313e-07)
(1.93937829046088e-25 -4.2098061972506e-06 1.83804108034613e-07)
(1.93940546378027e-25 -4.21045112704435e-06 1.83832266277519e-07)
(1.94002045131736e-25 -4.21150492753308e-06 1.83878276200494e-07)
(1.94157634772231e-25 -4.2128590349208e-06 1.83937397805841e-07)
(1.94233678239056e-25 -4.21452080944301e-06 1.84009952448383e-07)
(1.94232715306622e-25 -4.21648370169456e-06 1.84095654174914e-07)
(1.94301305312681e-25 -4.21869367397182e-06 1.8419214364834e-07)
(1.94409346315636e-25 -4.22112798113074e-06 1.84298427794228e-07)
(1.94466512102935e-25 -4.2237997281259e-06 1.8441507878725e-07)
(1.9454385649046e-25 -4.22668916946377e-06 1.84541234520541e-07)
(1.94703667252775e-25 -4.22976174870663e-06 1.84675386227446e-07)
(1.9481244939122e-25 -4.23302517461769e-06 1.84817870479835e-07)
(1.9486771939073e-25 -4.23649702282229e-06 1.84969454646083e-07)
(1.95046667926789e-25 -4.24015047726337e-06 1.85128967911855e-07)
(1.95261227062787e-25 -4.24396766959745e-06 1.85295630128424e-07)
(1.9537215976835e-25 -4.24796985985628e-06 1.85470369528825e-07)
(1.95496721477026e-25 -4.25216481319659e-06 1.8565352514712e-07)
(1.95755023026793e-25 -4.25653105251812e-06 1.85844159272863e-07)
(1.9600786660659e-25 -4.26106959518941e-06 1.86042316325323e-07)
(1.96184311583643e-25 -4.26580586376782e-06 1.86249106277325e-07)
(1.96372740227925e-25 -4.27073691579192e-06 1.86464400658229e-07)
(1.96570032432486e-25 -4.27584319128873e-06 1.86687345461171e-07)
(1.96842491861501e-25 -4.28114593531799e-06 1.86918868265491e-07)
(1.97180818680838e-25 -4.2866765423318e-06 1.87160339782571e-07)
(1.97429351073898e-25 -4.29241665601744e-06 1.87410958558489e-07)
(1.97596632200576e-25 -4.29835989413561e-06 1.87670445938659e-07)
(1.97810484990823e-25 -4.30454551753632e-06 1.87940516088812e-07)
(1.98086573884703e-25 -4.31099119794938e-06 1.88221940573334e-07)
(1.98386888374403e-25 -4.31767688482781e-06 1.88513843966438e-07)
(1.98693106291729e-25 -4.32462379193459e-06 1.88817152481019e-07)
(1.98981046349321e-25 -4.33188614656574e-06 1.89134233731952e-07)
(1.99287367529972e-25 -4.3394636299107e-06 1.89465073799667e-07)
(1.99630020138837e-25 -4.34734241878939e-06 1.89809069151089e-07)
(1.99984079168222e-25 -4.35558407018199e-06 1.90168907422015e-07)
(2.00399336906381e-25 -4.36425644024155e-06 1.90547551276067e-07)
(2.00789608696456e-25 -4.37334243557972e-06 1.90944254399796e-07)
(2.01181505221981e-25 -4.38286286049322e-06 1.9135992512841e-07)
(2.0172876764801e-25 -4.39292913295998e-06 1.91799428075884e-07)
(2.02276921376847e-25 -4.40359660489099e-06 1.92265179958843e-07)
(2.02684174205378e-25 -4.41484228109455e-06 1.92756176785536e-07)
(2.03088963350647e-25 -4.42677541473307e-06 1.93277188652049e-07)
(2.03712869005454e-25 -4.43958587090581e-06 1.9383650524764e-07)
(2.04420276377985e-25 -4.45328621832477e-06 1.94434675334128e-07)
(2.05047020520956e-25 -4.46789034141318e-06 1.95072305118522e-07)
(2.05724933224233e-25 -4.4836513971135e-06 1.95760447671634e-07)
(2.06528172109766e-25 -4.50080123019762e-06 1.96509225554812e-07)
(2.0740838576939e-25 -4.51932019738613e-06 1.97317781123957e-07)
(2.08330591186516e-25 -4.53938527778926e-06 1.98193841453895e-07)
(2.09345282930309e-25 -4.56146577202048e-06 1.99157896651919e-07)
(2.10409671342142e-25 -4.58574972628077e-06 2.00218156992474e-07)
(2.11522227608204e-25 -4.61220644184259e-06 2.01373282140169e-07)
(2.12825437795833e-25 -4.64139017861576e-06 2.02647471605283e-07)
(2.14425868196611e-25 -4.67405348999847e-06 2.04073582578771e-07)
(2.16199610947578e-25 -4.7101812587826e-06 2.05650955029071e-07)
(2.18047721174648e-25 -4.75001399990447e-06 2.07390090065088e-07)
(2.20027743041313e-25 -4.79467916202751e-06 2.09340213158547e-07)
(2.22196117013372e-25 -4.84486847491301e-06 2.11531525883065e-07)
(2.24687600509715e-25 -4.90044137992508e-06 2.13957891316065e-07)
(2.27509266775699e-25 -4.96253763248299e-06 2.16669072253836e-07)
(2.30714198739832e-25 -5.03312200074383e-06 2.19750852326716e-07)
(2.343299774988e-25 -5.11232532374726e-06 2.23208944090543e-07)
(2.38327650038124e-25 -5.20040924217463e-06 2.2705477102417e-07)
(2.43010278231069e-25 -5.30115361252105e-06 2.31453365226232e-07)
(2.48538395206084e-25 -5.41969464651785e-06 2.36628978543899e-07)
(2.54876315429747e-25 -5.55859058600582e-06 2.42693306228125e-07)
(2.6242884167693e-25 -5.72458517994548e-06 2.49940786717268e-07)
(2.71756426429106e-25 -5.92804314384071e-06 2.58823953263207e-07)
(2.8289704432099e-25 -6.16984089296432e-06 2.69381070983131e-07)
(2.95580510286991e-25 -6.44667977832357e-06 2.81468117751694e-07)
(3.0981259187707e-25 -6.76069322886228e-06 2.95178241088211e-07)
(3.25747796914032e-25 -7.11056916390672e-06 3.10454154313295e-07)
(3.43153004363403e-25 -7.48763317717715e-06 3.26917124669599e-07)
(3.61505305020166e-25 -7.88694980224453e-06 3.44351665039138e-07)
(3.80629452539841e-25 -8.3054299713498e-06 3.62622903810843e-07)
(4.00317676293223e-25 -8.73452428404331e-06 3.81357566099778e-07)
(4.20094034542805e-25 -9.16601099838651e-06 4.00196682900555e-07)
(4.39680353654816e-25 -9.59187912038729e-06 4.18790486661842e-07)
(4.58581777613755e-25 -1.00027958291669e-05 4.36731497624077e-07)
(4.7634859519538e-25 -1.03927292992536e-05 4.53756360599701e-07)
(4.9274101914373e-25 -1.07520466819845e-05 4.69444496333199e-07)
(5.07253343451805e-25 -1.1067796519651e-05 4.8323043196897e-07)
(5.19519021521177e-25 -1.1335974339559e-05 4.94939328453337e-07)
(5.29369854253543e-25 -1.1552597862113e-05 5.04397315704237e-07)
(5.36501857615716e-25 -1.17078893131985e-05 5.11177486884283e-07)
(5.40951475608939e-25 -1.1802598579172e-05 5.15312582738869e-07)
(5.43065853698295e-25 -1.18464743306196e-05 5.17228239417899e-07)
(5.43100166690572e-25 -1.18481222193832e-05 5.17300187795125e-07)
(5.41392445101204e-25 -1.18136708127964e-05 5.15796006899017e-07)
(5.3865416406349e-25 -1.17549642904552e-05 5.13232824778709e-07)
(5.35274180869042e-25 -1.16797767135707e-05 5.09950064276918e-07)
(5.31300104662906e-25 -1.15916878574616e-05 5.06104021759453e-07)
(5.26848948973091e-25 -1.14951054455069e-05 5.01887142585116e-07)
(5.22148195030881e-25 -1.13934266158488e-05 4.97447749008398e-07)
(5.17300653952706e-25 -1.12888445574011e-05 4.92881597725244e-07)
(5.12476570296836e-25 -1.11837587634891e-05 4.88293452876743e-07)
(5.07825755390509e-25 -1.10804425260278e-05 4.83782568531407e-07)
(5.03357165525489e-25 -1.0982379759797e-05 4.79501055693544e-07)
(4.99398585245327e-25 -1.08969713835557e-05 4.75772045454552e-07)
(-2.14685515294568e-23 -1.08550515636254e-05 4.73941786588408e-07)
(-1.10143649806403e-23 -5.49931325731918e-06 2.40105202163839e-07)
(2.52737071435811e-25 -5.49399451249866e-06 2.39872980750607e-07)
(2.52717881299692e-25 -5.49339045366859e-06 2.39846606972513e-07)
(2.52690914959558e-25 -5.49341394726883e-06 2.39847632725252e-07)
(2.52727805322023e-25 -5.49370736356782e-06 2.39860443557531e-07)
(2.52881049815482e-25 -5.49419790270449e-06 2.39881860958771e-07)
(2.52921625250803e-25 -5.49489007024922e-06 2.39912081646425e-07)
(2.52849981979921e-25 -5.49577982373134e-06 2.39950929122411e-07)
(2.52861476287937e-25 -5.49683181984314e-06 2.39996860264588e-07)
(2.52919242526082e-25 -5.4980309286072e-06 2.40049214483877e-07)
(2.52902659703554e-25 -5.49938578667535e-06 2.4010836886464e-07)
(2.52904712237796e-25 -5.50088363642501e-06 2.40173766397046e-07)
(2.53010687463248e-25 -5.50250175270116e-06 2.40244414879398e-07)
(2.53044652664057e-25 -5.50424506891972e-06 2.40320529709288e-07)
(2.52999889024836e-25 -5.50612529451222e-06 2.40402622131538e-07)
(2.53112044713546e-25 -5.5081249882789e-06 2.40489930646919e-07)
(2.53268151895922e-25 -5.51023230115726e-06 2.40581937914192e-07)
(2.53281902134203e-25 -5.51246118475692e-06 2.40679253073787e-07)
(2.53305664229974e-25 -5.5148169389198e-06 2.40782107521799e-07)
(2.5350092959327e-25 -5.51728553285929e-06 2.40889888660856e-07)
(2.53685397580142e-25 -5.51986755072185e-06 2.41002621995342e-07)
(2.5376278575792e-25 -5.52257980008759e-06 2.41121041360054e-07)
(2.53849459880364e-25 -5.52542054689923e-06 2.41245071044415e-07)
(2.5394185378136e-25 -5.52837692902401e-06 2.41374149475581e-07)
(2.54127022222088e-25 -5.53146285935197e-06 2.4150888410345e-07)
(2.54393599889461e-25 -5.5346992106945e-06 2.41650186254649e-07)
(2.54536296126193e-25 -5.53807409740938e-06 2.4179753699083e-07)
(2.54564447374713e-25 -5.54158323461583e-06 2.4195074923006e-07)
(2.54645713330208e-25 -5.54525252363154e-06 2.4211095384829e-07)
(2.54801396061422e-25 -5.54909387697807e-06 2.42278670957444e-07)
(2.54982133425883e-25 -5.55309419694704e-06 2.42453328699226e-07)
(2.55163050521991e-25 -5.55726738059592e-06 2.42635533832267e-07)
(2.55310110119368e-25 -5.56164937516528e-06 2.42826855846986e-07)
(2.55471500498919e-25 -5.56624029191242e-06 2.43027299600981e-07)
(2.55671819828131e-25 -5.57103101522044e-06 2.43236467097824e-07)
(2.55875981898327e-25 -5.57606211643466e-06 2.43456129720705e-07)
(2.56148305886163e-25 -5.58137876267229e-06 2.43688259508552e-07)
(2.5637538116661e-25 -5.5869700103127e-06 2.43932378652568e-07)
(2.56590206680761e-25 -5.59284949009231e-06 2.44189082283558e-07)
(2.5699414320584e-25 -5.59909094911143e-06 2.44461590269459e-07)