/*--------------------------------*- C++ -*----------------------------------*\
| =========                 |                                                 |
| \\      /  F ield         | OpenFOAM: The Open Source CFD Toolbox           |
|  \\    /   O peration     | Version:  4.1                                   |
|   \\  /    A nd           | Web:      www.OpenFOAM.org                      |
|    \\/     M anipulation  |                                                 |
\*---------------------------------------------------------------------------*/
FoamFile
{
    version     2.0;
    format      ascii;
    class       volScalarField;
    location    "0.000170";
    object      p;
}
// * * * * * * * * * * * * * * * * * * * * * * * * * * * * * * * * * * * * * //

dimensions      [0 2 -2 0 0 0 0];

internalField   nonuniform List<scalar> 
3072
(
559.33992
597.34022
635.93006
674.87833
713.9982
753.08536
791.98588
830.50796
868.50823
905.83111
942.34485
977.92937
1012.433
1045.7881
1077.9496
1108.8876
1138.569
1167.0541
1194.5062
1220.293
1244.7816
1267.9719
1289.6017
1310.8498
558.97177
596.92652
635.48883
674.43835
713.58037
752.70992
791.6515
830.21795
868.25829
905.62247
942.1824
977.80971
1012.3597
1045.7644
1077.9817
1108.973
1138.7051
1167.2112
1194.545
1220.3504
1244.7483
1267.7433
1289.2635
1310.622
558.77047
596.70978
635.25842
674.21181
713.37021
752.52321
791.48518
830.06927
868.12354
905.5016
942.08052
977.7304
1012.3158
1045.7639
1078.0273
1109.0584
1138.8293
1167.3509
1194.5855
1220.3982
1244.7215
1267.5475
1288.9925
1310.431
558.62072
596.54802
635.0869
674.04433
713.21533
752.38594
791.36167
829.95405
868.01098
905.39012
941.97669
977.64128
1012.253
1045.7372
1078.0423
1109.1041
1138.9131
1167.4548
1194.6572
1220.4263
1244.6666
1267.3883
1288.7716
1310.2624
558.54424
596.46043
634.99245
673.95031
713.12551
752.29963
791.27513
829.86361
867.91107
905.27879
941.86464
977.53424
1012.156
1045.6666
1078.0215
1109.1286
1138.9711
1167.5152
1194.7013
1220.427
1244.5958
1267.2773
1288.5926
1310.0762
558.5412
596.44428
634.96658
673.91914
713.08865
752.2511
791.21271
829.78768
867.81824
905.16187
941.74712
977.42029
1012.0662
1045.6006
1077.9589
1109.0863
1138.9549
1167.513
1194.6861
1220.3839
1244.5245
1267.1636
1288.4451
1309.8901
558.63208
596.51111
635.01023
673.94845
713.09952
752.22748
791.15847
829.71219
867.73114
905.06794
941.62554
977.28292
1011.9344
1045.4795
1077.8397
1108.9737
1138.8502
1167.4127
1194.5913
1220.3024
1244.4696
1267.1171
1288.3593
1309.7066
558.83607
596.6518
635.12077
674.02621
713.13693
752.22768
791.12129
829.65011
867.65437
904.97333
941.49919
977.12355
1011.7524
1045.2846
1077.6366
1108.7675
1138.6438
1167.2126
1194.4127
1220.1611
1244.3461
1267.132
1288.3351
1309.514
558.98273
596.94154
635.50657
674.45297
713.58641
752.70524
791.63877
830.20284
868.24538
905.61228
942.17359
977.80193
1012.3526
1045.7557
1077.9689
1108.9585
1138.6964
1167.2096
1194.546
1220.3612
1244.7593
1267.7525
1289.2706
1310.6241
558.6484
596.58749
635.14229
674.10127
713.26458
752.42515
791.39827
830.00337
868.0841
905.4924
942.09918
977.77039
1012.3699
1045.8276
1078.1016
1109.1485
1138.9352
1167.4577
1194.711
1220.4507
1244.708
1267.5036
1288.9639
1310.4494
558.46297
596.39652
634.94913
673.92096
713.10824
752.29656
791.29272
829.91535
868.01061
905.43473
942.06146
977.7574
1012.3929
1045.8919
1078.2069
1109.2887
1139.1035
1167.6238
1194.8121
1220.4943
1244.6519
1267.3086
1288.7313
1310.2918
558.32937
596.25617
634.80588
673.78582
712.98892
752.19634
791.20712
829.83771
867.93582
905.36158
941.99728
977.71215
1012.378
1045.9082
1078.2556
1109.3654
1139.2025
1167.7126
1194.8541
1220.5047
1244.5899
1267.1645
1288.5616
1310.1684
558.27362
596.19667
634.74509
673.7288
712.93728
752.14877
791.1597
829.78553
867.87367
905.28762
941.92118
977.64312
1012.3314
1045.8757
1078.2451
1109.374
1139.223
1167.7377
1194.8606
1220.488
1244.5326
1267.0721
1288.4451
1310.0531
558.29436
596.2135
634.76079
673.7411
712.94247
752.14071
791.13595
829.7467
867.8192
905.21201
941.83341
977.55116
1012.2393
1045.7993
1078.1744
1109.3121
1139.1721
1167.6964
1194.8187
1220.4456
1244.4937
1267.026
1288.3716
1309.9356
558.3887
596.30037
634.84677
673.81686
712.99836
752.1647
791.13127
829.71839
867.76801
905.13855
941.73364
977.42919
1012.1101
1045.673
1078.0457
1109.182
1139.046
1167.581
1194.7227
1220.3827
1244.4819
1267.0422
1288.3444
1309.8174
558.62338
596.50586
635.01469
673.95681
713.10438
752.22076
791.14787
829.70163
867.72584
905.06874
941.62919
977.28589
1011.9417
1045.4943
1077.8592
1108.9889
1138.8521
1167.4008
1194.5764
1220.2927
1244.4569
1267.1219
1288.3712
1309.7133
558.79145
596.73684
635.28921
674.23648
713.3778
752.50943
791.45629
830.03761
868.09826
905.48371
942.06745
977.71964
1012.3039
1045.7468
1078.0027
1109.0307
1138.8142
1167.3488
1194.6004
1220.4197
1244.7421
1267.5635
1289.0037
1310.4328
558.47341
596.40911
634.96278
673.9315
713.11051
752.28794
791.27679
829.8998
868.00045
905.42927
942.05845
977.75444
1012.3873
1045.8832
1078.1951
1109.2751
1139.0949
1167.625
1194.8174
1220.505
1244.6621
1267.3157
1288.7351
1310.2908
558.27147
596.2055
634.76409
673.75227
712.96195
752.17385
791.19133
829.83651
867.95707
905.40824
942.06359
977.79078
1012.4611
1045.9954
1078.342
1109.4499
1139.2839
1167.7906
1194.921
1220.5413
1244.5879
1267.1296
1288.5441
1310.1806
558.13717
596.06858
634.62964
673.62988
712.85847
752.09205
791.12615
829.78107
867.9062
905.362
942.03017
977.78168
1012.4826
1046.0444
1078.4157
1109.543
1139.3869
1167.8728
1194.9614
1220.5401
1244.5244
1267.007
1288.4233
1310.1093
558.0923
596.02384
634.58706
673.59338
712.82783
752.06612
791.10207
829.75336
867.8681
905.31298
941.97975
977.74085
1012.4555
1046.0299
1078.4146
1109.5514
1139.3917
1167.8757
1194.9512
1220.5161
1244.4816
1266.9481
1288.3609
1310.0512
558.13783
596.06993
634.63304
673.63743
712.86269
752.08638
791.10599
829.7418
867.83884
905.26309
941.91429
977.66357
1012.376
1045.9543
1078.3409
1109.4781
1139.3197
1167.8104
1194.8949
1220.4771
1244.469
1266.9529
1288.3477
1309.9953
558.27455
596.20405
634.76515
673.75562
712.95614
752.1462
791.133
829.74517
867.81788
905.21422
941.83627
977.55286
1012.2473
1045.8189
1078.1998
1109.3301
1139.1716
1167.6772
1194.7932
1220.426
1244.4853
1267.0257
1288.381
1309.9428
558.50576
596.42529
634.97116
673.93832
713.10434
752.252
791.20572
829.77612
867.81531
905.17041
941.75904
977.42681
1012.0813
1045.6322
1078.0017
1109.1192
1138.959
1167.4858
1194.6492
1220.3567
1244.5031
1267.1671
1288.4648
1309.9041
558.6474
596.58222
635.12424
674.07275
713.22058
752.36274
791.32015
829.91102
867.97818
905.36993
941.96671
977.63521
1012.2425
1045.7157
1078.011
1109.0664
1138.8975
1167.4587
1194.6805
1220.4586
1244.6922
1267.4063
1288.7818
1310.2616
558.34557
596.2763
634.82655
673.80066
712.98987
752.17947
791.17957
829.81286
867.92149
905.35749
941.99993
977.71494
1012.3732
1045.8952
1078.237
1109.3449
1139.1871
1167.7131
1194.8664
1220.5244
1244.6068
1267.1736
1288.5637
1310.1635
558.14326
596.07655
634.63715
673.63465
712.8579
752.08433
791.11463
829.77265
867.90506
905.36665
942.03708
977.78687
1012.4818
1046.039
1078.4083
1109.5347
1139.3794
1167.87
1194.9654
1220.5484
1244.5314
1267.0089
1288.4213
1310.1044
558.02664
595.96296
634.53138
673.54386
712.7872
752.03464
791.0797
829.74641
867.8846
905.35286
942.03635
977.81009
1012.5342
1046.1148
1078.5013
1109.6372
1139.4707
1167.9393
1194.9991
1220.5424
1244.4758
1266.9146
1288.3455
1310.0781
558.00331
595.94358
634.51836
673.53854
712.78732
752.03784
791.08186
829.74343
867.87319
905.33283
942.01381
977.79312
1012.5275
1046.1179
1078.5118
1109.6493
1139.4742
1167.9316
1194.9804
1220.5184
1244.4505
1266.8918
1288.3291
1310.0643
558.07041
596.01413
634.59319
673.61274
712.85181
752.08743
791.11711
829.76249
867.87374
905.31555
941.9785
977.73986
1012.4622
1046.0493
1078.4411
1109.572
1139.392
1167.8519
1194.9156
1220.4844
1244.4613
1266.9409
1288.3667
1310.0574
558.22709
596.17181
634.7505
673.75786
712.97173
752.17523
791.17581
829.7963
867.88433
905.301
941.9302
977.64701
1012.3446
1045.9137
1078.2957
1109.4132
1139.2262
1167.6998
1194.8043
1220.4395
1244.5024
1267.065
1288.4588
1310.0655
558.47738
596.41987
634.99087
673.97731
713.15717
752.32019
791.28524
829.87087
867.92714
905.30568
941.88647
977.54396
1012.1778
1045.7119
1078.0882
1109.1818
1138.9813
1167.4744
1194.6399
1220.3766
1244.5642
1267.275
1288.6138
1310.0942
558.57024
596.49555
635.0295
673.97711
713.12771
752.27235
791.23157
829.81992
867.879
905.26184
941.86212
977.5376
1012.1543
1045.6488
1077.9935
1109.098
1138.9541
1167.5189
1194.727
1220.4637
1244.6264
1267.2914
1288.5955
1310.0717
558.28843
596.2174
634.76517
673.74206
712.93613
752.13015
791.13264
829.76427
867.86333
905.2891
941.93257
977.65502
1012.3315
1045.8657
1078.2293
1109.356
1139.2083
1167.7345
1194.8726
1220.5104
1244.5503
1267.0764
1288.4404
1310.0432
558.09711
596.03249
634.59443
673.59678
712.8259
752.0583
791.09344
829.75089
867.8749
905.32643
941.99633
977.75543
1012.4589
1046.0243
1078.4072
1109.5439
1139.3835
1167.87
1194.9533
1220.5254
1244.4884
1266.9455
1288.3519
1310.0397
558.00292
595.94519
634.51895
673.53783
712.78662
752.0378
791.08374
829.74877
867.88275
905.34544
942.02525
977.80095
1012.5291
1046.1151
1078.5092
1109.6486
1139.4725
1167.928
1194.9777
1220.5185
1244.4501
1266.8879
1288.3221
1310.0567
558.00064
595.94954
634.53362
673.56183
712.81605
752.0692
791.11384
829.77344
867.90134
905.35931
942.03321
977.80536
1012.5398
1046.1346
1078.5307
1109.6638
1139.4758
1167.9134
1194.9542
1220.4987
1244.4452
1266.9016
1288.3482
1310.0832
558.08277
596.03805
634.6311
673.66135
712.90711
752.14586
791.17586
829.82024
867.93494
905.38125
942.03545
977.78074
1012.4968
1046.0848
1078.4733
1109.5917
1139.3949
1167.828
1194.8871
1220.4702
1244.4763
1266.9879
1288.4307
1310.1197
558.24348
596.20216
634.79856
673.81938
713.04214
752.25223
791.25695
829.87992
867.977
905.40309
942.02318
977.72171
1012.4003
1045.9661
1078.3387
1109.4342
1139.2177
1167.6616
1194.7679
1220.425
1244.5374
1267.147
1288.5753
1310.1834
558.51348
596.47453
635.06719
674.06994
713.26069
752.43256
791.40343
829.99397
868.0608
905.44908
942.01786
977.6555
1012.2759
1045.8007
1078.1387
1109.1804
1138.935
1167.4052
1194.5732
1220.3521
1244.6202
1267.3778
1288.7912
1310.2813
558.55924
596.473
634.99627
673.93986
713.09
752.22933
791.18351
829.7559
867.79669
905.15314
941.75258
977.43153
1012.07
1045.5912
1077.9438
1109.0711
1138.9453
1167.5143
1194.704
1220.4129
1244.5446
1267.1672
1288.4395
1309.8814
558.30047
596.2273
634.77238
673.74846
712.94192
752.1314
791.12308
829.74411
867.82238
905.22246
941.85165
977.57018
1012.2476
1045.7963
1078.1701
1109.3085
1139.165
1167.6888
1194.8205
1220.458
1244.5001
1267.02
1288.3576
1309.921
558.13421
596.07111
634.63306
673.63504
712.86189
752.08993
791.11689
829.75972
867.86036
905.28588
941.93746
977.68342
1012.3843
1045.9523
1078.3401
1109.4819
1139.3183
1167.8008
1194.8862
1220.4749
1244.4651
1266.941
1288.3296
1309.978
558.06312
596.00969
634.58711
673.60698
712.8525
752.09833
791.13753
829.78871
867.90143
905.34088
941.99786
977.7522
1012.4654
1046.0481
1078.4431
1109.5795
1139.3951
1167.8441
1194.9023
1220.4734
1244.4515
1266.9286
1288.3509
1310.0426
558.07705
596.03328
634.62537
673.65685
712.90845
752.15541
791.19174
829.83929
867.95466
905.39778
942.04484
977.78311
1012.4959
1046.0861
1078.4785
1109.5985
1139.3975
1167.8225
1194.8766
1220.4603
1244.468
1266.9797
1288.4216
1310.1116
558.1687
596.13549
634.74192
673.77893
713.02459
752.25869
791.28124
829.91646
868.02585
905.46417
942.09096
977.79651
1012.4857
1046.0662
1078.4456
1109.5397
1139.3079
1167.7319
1194.8129
1220.4389
1244.5133
1267.0963
1288.5477
1310.192
558.32516
596.2972
634.9109
673.94198
713.16844
752.37811
791.37935
829.99788
868.09523
905.51816
942.1135
977.77443
1012.4235
1045.9785
1078.3365
1109.3999
1139.1361
1167.5647
1194.7025
1220.3878
1244.5809
1267.2795
1288.7393
1310.3063
558.61616
596.59303
635.20667
674.22203
713.41929
752.59223
791.56063
830.14743
868.21455
905.59896
942.14374
977.74774
1012.3407
1045.85
1078.1642
1109.1775
1138.8682
1167.2951
1194.4844
1220.3065
1244.6643
1267.5284
1289.0063
1310.4483
558.63545
596.52677
635.02737
673.9592
713.10312
752.22013
791.14944
829.70491
867.72835
905.07129
941.637
977.29752
1011.9428
1045.4802
1077.841
1108.9775
1138.8508
1167.41
1194.5948
1220.3132
1244.47
1267.1078
1288.3435
1309.6938
558.38184
596.30247
634.84467
673.81563
713.00169
752.17414
791.14914
829.74121
867.79056
905.16003
941.75597
977.45017
1012.1229
1045.6784
1078.0548
1109.1956
1139.0497
1167.57
1194.7092
1220.3752
1244.4736
1267.0227
1288.3203
1309.7997
558.25799
596.19119
634.75061
673.74546
712.95999
752.16991
791.17566
829.78931
867.85887
905.24716
941.86195
977.57196
1012.2578
1045.8242
1078.2112
1109.3489
1139.1794
1167.6638
1194.7693
1220.4045
1244.4619
1267.0013
1288.3537
1309.9222
558.2078
596.15415
634.73167
673.74492
712.97684
752.20516
791.22491
829.84964
867.9318
905.33646
941.9514
977.65552
1012.3475
1045.9217
1078.3117
1109.4349
1139.2356
1167.687
1194.7763
1220.4116
1244.4795
1267.0418
1288.4344
1310.0463
558.22694
596.18566
634.78148
673.80846
713.04779
752.27918
791.29863
829.92528
868.0178
905.43171
942.03485
977.72042
1012.3992
1045.9771
1078.3597
1109.4541
1139.2248
1167.6508
1194.7427
1220.4003
1244.5164
1267.1288
1288.5577
1310.1695
558.31542
596.28683
634.90065
673.93621
713.17271
752.39418
791.40299
830.02341
868.11806
905.53273
942.11658
977.76988
1012.4218
1045.9879
1078.3528
1109.4129
1139.1399
1167.5588
1194.6838
1220.3753
1244.5683
1267.27
1288.7311
1310.2998
558.45922
596.43705
635.06159
674.09583
713.31892
752.52246
791.51613
830.12582
868.21419
905.61867
942.17623
977.79105
1012.4037
1045.9412
1078.2791
1109.3039
1138.9885
1167.3959
1194.5853
1220.3321
1244.6251
1267.4659
1288.9641
1310.4608
558.77434
596.76482
635.3971
674.42205
713.62225
752.7923
791.755
830.33207
868.38834
905.75349
942.26217
977.82526
1012.3822
1045.8677
1078.1529
1109.1257
1138.7604
1167.1569
1194.4344
1220.2485
1244.6836
1267.7186
1289.27
1310.6355
558.82849
596.65073
635.12251
674.0298
713.14501
752.24037
791.13953
829.67024
867.67262
904.98979
941.51601
977.14073
1011.7668
1045.2966
1077.6525
1108.7855
1138.6521
1167.2065
1194.4007
1220.1506
1244.3344
1267.1091
1288.3104
1309.5003
558.60446
596.48414
634.9979
673.94924
713.11425
752.25108
791.19376
829.7518
867.76851
905.10145
941.65401
977.30624
1011.9586
1045.5107
1077.8826
1109.0154
1138.863
1167.3865
1194.5481
1220.2645
1244.4354
1267.0895
1288.3393
1309.6954
558.4768
596.39561
634.94311
673.92216
713.11463
752.29478
791.2692
829.84888
867.87562
905.21335
941.78479
977.44222
1012.0946
1045.6496
1078.03
1109.151
1138.9715
1167.4671
1194.6107
1220.3167
1244.4734
1267.1324
1288.4312
1309.8828
558.44596
596.38707
634.95873
673.95823
713.16812
752.36829
791.35827
829.94878
867.99223
905.34973
941.90728
977.5497
1012.1868
1045.7317
1078.123
1109.2156
1138.9945
1167.456
1194.5975
1220.3316
1244.5322
1267.2434
1288.5846
1310.0736
558.48513
596.44396
635.03738
674.05294
713.27149
752.47646
791.46886
830.06302
868.11915
905.48658
942.03002
977.65187
1012.279
1045.8243
1078.1767
1109.2135
1138.9463
1167.3889
1194.5354
1220.3109
1244.5853
1267.3519
1288.7689
1310.2648
558.59535
596.56995
635.18472
674.21044
713.42835
752.62458
791.60766
830.19708
868.25666
905.62439
942.14819
977.74
1012.3408
1045.8706
1078.1962
1109.2022
1138.875
1167.281
1194.4591
1220.277
1244.6394
1267.5115
1288.9928
1310.4382
558.76405
596.75318
635.38631
674.41679
713.62731
752.80864
791.77841
830.35667
868.40887
905.76515
942.26308
977.82043
1012.382
1045.8784
1078.1688
1109.137
1138.7627
1167.1498
1194.4125
1220.2366
1244.6723
1267.7112
1289.2644
1310.6314
559.11779
597.14558
635.80213
674.83288
714.02663
753.17235
792.1084
830.64907
868.66429
905.97951
942.43085
977.94208
1012.451
1045.8939
1078.1305
1109.0521
1138.6328
1167.0038
1194.392
1220.1846
1244.7134
1267.9446
1289.602
1310.8589
1312.0386
1290.6266
1268.5693
1244.9391
1220.2387
1194.1349
1166.7847
1138.5049
1109.0354
1078.2509
1046.2202
1012.9819
978.58972
943.133
906.71866
869.49183
831.57856
793.13729
754.34476
715.36482
676.36599
637.53479
599.04186
561.10602
1311.4827
1290.159
1268.2833
1244.7778
1220.1251
1194.0502
1166.6634
1138.3171
1108.8047
1077.9737
1045.8922
1012.606
978.17363
942.68194
906.24546
869.00396
831.08596
792.6484
753.85995
714.89274
675.91161
637.11374
598.66797
560.79834
1310.9894
1289.7339
1268.0441
1244.7876
1220.1142
1194.0865
1166.7205
1138.2803
1108.7023
1077.8103
1045.6739
1012.3377
977.86882
942.351
905.89877
868.64183
830.70577
792.24526
753.42081
714.41433
675.3964
636.56849
598.11709
560.25208
1310.5308
1289.3375
1267.8234
1244.7088
1220.1129
1194.1392
1166.8494
1138.3529
1108.6514
1077.6868
1045.4967
1012.1067
977.60226
942.06479
905.60321
868.33676
830.38638
791.90242
753.04163
713.98949
674.92854
636.06128
597.59168
559.71483
1310.0989
1288.989
1267.644
1244.6362
1220.1463
1194.2129
1166.9254
1138.3787
1108.5827
1077.5556
1045.3272
1011.8754
977.33592
941.78342
905.31847
868.0488
830.0917
791.59581
752.7168
713.63622
674.54592
635.65304
597.16658
559.28422
1309.6347
1288.708
1267.5394
1244.5824
1220.1574
1194.2815
1167.0137
1138.3984
1108.5108
1077.4192
1045.1214
1011.6371
977.06788
941.50954
905.05294
867.78638
829.82764
791.3341
752.46003
713.3769
674.27823
635.37359
596.88117
558.99891
1309.0868
1288.4871
1267.5055
1244.5771
1220.1627
1194.2952
1167.0202
1138.3987
1108.491
1077.3513
1045.0022
1011.4636
976.8538
941.2888
904.83139
867.57132
829.62323
791.14016
752.28554
713.2161
674.12698
635.21692
596.7292
558.84918
1308.5519
1288.3299
1267.4593
1244.466
1220.0192
1194.1316
1166.8417
1138.2148
1108.3022
1077.1514
1044.7991
1011.2855
976.70296
941.15028
904.70742
867.46386
829.52177
791.05493
752.2418
713.21782
674.16894
635.29299
596.8181
558.93738
1317.1734
1294.1169
1270.6231
1246.5311
1221.7765
1196.2002
1169.4212
1141.0658
1111.4815
1080.8063
1049.0178
1016.0991
982.05519
946.91699
910.73404
873.56536
835.50704
796.67684
757.22581
717.32749
677.18359
637.01776
597.1113
557.74654
1316.5361
1293.7657
1270.362
1246.3077
1221.5203
1195.7864
1168.9135
1140.6431
1111.0725
1080.3745
1048.5424
1015.5722
981.47411
946.28704
910.06279
872.87247
834.8176
796.01839
756.63292
716.83401
676.83151
636.84911
597.1562
558.02804
1315.5917
1293.1868
1269.9254
1245.9225
1221.1174
1195.2509
1168.3381
1140.0581
1110.4412
1079.68
1047.771
1014.7228
980.55443
945.31235
909.05537
871.86586
833.84938
795.1273
755.86149
716.22334
676.42703
636.69256
597.27478
558.43866
1314.3435
1292.385
1269.3345
1245.3867
1220.5819
1194.678
1167.6065
1139.258
1109.6367
1078.8088
1046.8117
1013.6825
979.44484
944.15512
907.88195
870.71692
832.77032
794.16416
755.05938
715.62874
676.07928
636.63008
597.51343
558.99094
1312.7646
1291.4123
1268.6772
1244.8138
1219.9335
1194.0084
1166.8711
1138.4505
1108.7728
1077.8641
1045.7694
1012.577
978.28694
942.96862
906.70069
869.58348
831.73286
793.27006
754.34949
715.14266
675.84709
636.67562
597.85302
559.61821
1310.9771
1290.3791
1268.0602
1244.3007
1219.3786
1193.3442
1166.0889
1137.6196
1107.9037
1076.9316
1044.7859
1011.5341
977.21532
941.8894
905.64382
868.58781
830.8496
792.5364
753.79653
714.79988
675.73779
636.81677
598.24608
560.25632
1309.188
1289.4742
1267.5789
1243.8216
1218.9304
1192.8237
1165.4666
1136.8737
1107.0524
1076.025
1043.8524
1010.6115
976.31797
941.01078
904.81198
867.83714
830.20529
792.03027
753.44717
714.62542
675.75508
637.03725
598.65436
560.84811
1307.8724
1288.8989
1267.0574
1243.2693
1218.3909
1192.2938
1164.9224
1136.301
1106.4515
1075.4074
1043.222
1009.9567
975.65853
940.38983
904.25101
867.35898
829.84217
791.78777
753.30794
714.58944
675.82447
637.21149
598.94721
561.25621
1308.5522
1288.3369
1267.4658
1244.4715
1220.0217
1194.1313
1166.8412
1138.2167
1108.3066
1077.1568
1044.8046
1011.2895
976.70412
941.14997
904.70585
867.46096
829.5161
791.04709
752.23592
713.21555
674.17001
635.29354
596.81603
558.93065
1309.0925
1288.5053
1267.5196
1244.5826
1220.1627
1194.2888
1167.0146
1138.403
1108.506
1077.3699
1045.0203
1011.4765
976.85862
941.28846
904.82711
867.56217
829.60716
791.12073
752.27254
713.21451
674.13514
635.22214
596.72347
558.83034
1309.6486
1288.7324
1267.554
1244.5844
1220.1487
1194.2641
1167.003
1138.409
1108.5403
1077.4548
1045.1512
1011.6561
977.07819
941.51497
905.05488
867.7812
829.81194
791.31469
752.44875
713.38174
674.29216
635.37763
596.86254
558.95925
1310.1175
1289.0115
1267.6537
1244.628
1220.1228
1194.1817
1166.9091
1138.398
1108.6328
1077.6116
1045.3692
1011.899
977.35233
941.80444
905.34104
868.06238
830.09321
791.59265
752.71942
713.64965
674.5589
635.64243
597.11899
559.20841
1310.5472
1289.3573
1267.8272
1244.6896
1220.0736
1194.0942
1166.8309
1138.3852
1108.728
1077.768
1045.5532
1012.1345
977.62508
942.10506
905.65567
868.38251
830.41891
791.92706
753.06374
714.00723
674.9274
636.01918
597.50005
559.5912
1311.0013
1289.7477
1268.0412
1244.7597
1220.0613
1194.0301
1166.7016
1138.3241
1108.8002
1077.9157
1045.744
1012.3674
977.89516
942.40907
905.98246
868.72385
830.77375
792.29982
753.45942
714.42772
675.36905
636.48418
597.97536
560.07959
1311.4906
1290.1668
1268.2739
1244.74
1220.0615
1193.9851
1166.6423
1138.3675
1108.9159
1078.0927
1045.9687
1012.6346
978.2013
942.75269
906.35352
869.11702
831.18549
792.72811
753.90934
714.89693
675.8556
636.99024
598.48521
560.59029
1312.0435
1290.6292
1268.5533
1244.8926
1220.1669
1194.0661
1166.7632
1138.5584
1109.1498
1078.3718
1046.2977
1013.0121
978.62137
943.21119
906.83943
869.62403
831.69999
793.23446
754.40056
715.361
676.29008
637.38647
598.83695
560.88232
1307.8646
1288.907
1267.0693
1243.2803
1218.3977
1192.2975
1164.9247
1136.304
1106.4559
1075.4125
1043.2263
1009.9597
975.66054
940.39077
904.25087
867.35688
829.83899
791.78489
753.30575
714.58861
675.82479
637.21222
598.94646
561.25356
1309.1828
1289.4839
1267.5851
1243.8244
1218.9352
1192.8269
1165.4694
1136.8805
1107.0649
1076.0403
1043.8648
1010.6209
976.32614
941.01598
904.81397
867.8349
830.19898
792.02194
753.44051
714.62304
675.75629
637.03775
598.64855
560.8355
1310.9754
1290.3983
1268.0797
1244.3121
1219.385
1193.3462
1166.0905
1137.6297
1107.9256
1076.9579
1044.8101
1011.5533
977.22992
941.9
905.65072
868.58927
830.84572
792.52934
753.79075
714.79836
675.73785
636.81095
598.22803
560.22531
1312.7983
1291.433
1268.689
1244.8199
1219.9302
1194.0043
1166.8755
1138.4705
1108.8069
1077.9028
1045.8044
1012.6047
978.3094
942.9887
906.71856
869.5967
831.73977
793.27201
754.34973
715.14235
675.84178
636.65632
597.81398
559.56139
1314.3589
1292.3982
1269.3407
1245.3844
1220.5717
1194.6694
1167.6131
1139.2881
1109.6852
1078.8612
1046.858
1013.7194
979.47731
944.18879
907.91698
870.74896
832.7952
794.1806
755.06734
715.62648
676.06063
636.58676
597.44302
558.90015
1315.5934
1293.1901
1269.9227
1245.9096
1221.0971
1195.2351
1168.3447
1140.0982
1110.5037
1079.7465
1047.8284
1014.7682
980.59687
945.36169
909.11156
871.92136
833.89627
795.16031
755.87615
716.21408
676.387
636.61649
597.16599
558.30949
1316.5359
1293.7643
1270.352
1246.2841
1221.4882
1195.762
1168.9196
1140.6909
1111.1459
1080.4523
1048.6079
1015.6234
981.52503
946.3518
910.14096
872.95284
834.88776
796.06834
756.65317
716.81553
676.76775
636.73908
597.01014
557.86445
1317.1729
1294.1125
1270.6059
1246.4965
1221.7323
1196.1662
1169.4207
1141.1139
1111.5609
1080.8912
1049.0887
1016.1543
982.11244
946.99383
910.83035
873.66776
835.59922
796.74383
757.2533
717.30349
677.10262
636.88307
596.93942
557.5617
1312.0432
1290.6276
1268.5494
1244.8816
1220.1601
1194.0614
1166.7593
1138.5578
1109.1524
1078.3761
1046.3008
1013.0126
978.62097
943.21308
906.84548
869.63413
831.71246
793.24655
754.40936
715.36436
676.28844
637.38194
598.83201
560.87836
1311.4887
1290.1612
1268.2624
1244.7268
1220.039
1193.9691
1166.6313
1138.3672
1108.9262
1078.1083
1045.9797
1012.6361
978.19956
942.75833
906.37294
869.14897
831.22434
792.76557
753.93576
714.90592
675.84814
636.97365
598.46712
560.57512
1310.9954
1289.735
1268.0194
1244.73
1220.0204
1193.9966
1166.6842
1138.3266
1108.8212
1077.9451
1045.7651
1012.3721
977.8946
942.42179
906.01792
868.77897
830.83911
792.36198
753.50247
714.44058
675.3537
636.45336
597.94221
560.05134
1310.5355
1289.3355
1267.7938
1244.6407
1220.0189
1194.0495
1166.8093
1138.3922
1108.7587
1077.8075
1045.5822
1012.1457
977.6316
942.12798
905.70512
868.45507
830.50396
792.00757
753.11861
714.0219
674.90494
635.9768
597.45518
559.55273
1310.1014
1288.9825
1267.612
1244.5738
1220.0623
1194.1319
1166.8865
1138.4087
1108.6687
1077.6541
1045.4018
1011.9178
977.36897
941.83661
905.39738
868.14082
830.18487
791.67943
752.77817
713.66465
674.53403
635.59644
597.07021
559.16603
1309.6344
1288.6966
1267.5076
1244.5307
1220.092
1194.2186
1166.982
1138.4204
1108.5768
1077.4956
1045.1835
1011.6802
977.10321
941.55142
905.10806
867.85109
829.89361
791.39219
752.50151
713.39576
674.27114
635.33811
596.81928
558.92049
1309.0835
1288.4712
1267.4765
1244.5378
1220.1178
1194.2537
1167.0013
1138.4169
1108.5378
1077.4046
1045.0481
1011.5005
976.88538
941.32066
904.86789
867.6128
829.66527
791.17607
752.31107
713.22644
674.12314
635.19808
596.6945
558.80183
1308.5461
1288.3105
1267.4345
1244.4414
1219.9957
1194.1128
1166.8364
1138.2284
1108.3293
1077.181
1044.8255
1011.309
976.72406
941.16981
904.72734
867.48615
829.545
791.07526
752.25696
713.22596
674.17099
635.28951
596.80863
558.91932
1317.1731
1294.1112
1270.602
1246.4899
1221.7256
1196.1593
1169.4153
1141.1123
1111.5623
1080.8939
1049.0908
1016.1558
982.11419
946.99736
910.83705
873.67778
835.61141
796.75594
757.26273
717.30862
677.10359
636.88143
596.9371
557.56004
1316.5362
1293.7601
1270.3394
1246.2642
1221.4656
1195.7426
1168.9081
1140.6871
1111.1503
1080.4605
1048.615
1015.6282
981.53057
946.36303
910.16151
872.98251
834.92273
796.10204
756.6783
716.82755
676.76731
636.73097
596.99994
557.85667
1315.5922
1293.1804
1269.9013
1245.878
1221.0623
1195.2054
1168.3264
1140.0941
1110.5124
1079.7614
1047.8417
1014.7779
980.60807
945.38224
909.14581
871.96771
833.94854
795.20894
755.91062
716.22779
676.38131
636.59915
597.14577
558.29291
1314.3441
1292.3777
1269.3096
1245.3422
1220.5271
1194.6342
1167.5934
1139.2865
1109.6987
1078.8821
1046.8777
1013.7358
979.49616
944.21844
907.96123
870.80535
832.85661
794.2363
755.10518
715.63886
676.04936
636.56158
597.41492
558.87665
1312.7649
1291.4039
1268.6523
1244.7719
1219.8829
1193.9685
1166.8583
1138.474
1108.8254
1077.9285
1045.8299
1012.6278
978.33497
943.02386
906.76628
869.6547
831.80158
793.32735
754.38663
715.15324
675.82842
636.62872
597.78382
559.5361
1310.9765
1290.3682
1268.0359
1244.2625
1219.3363
1193.3105
1166.0799
1137.6415
1107.9489
1076.9865
1044.8387
1011.5806
977.25895
941.93548
905.69478
868.64076
830.89956
792.5774
753.82306
714.80832
675.7267
636.78713
598.2023
560.20391
1309.1864
1289.4607
1267.5558
1243.7877
1218.8974
1192.7994
1165.4618
1136.8931
1107.0901
1076.0699
1043.8954
1010.6495
976.35268
941.04507
904.84733
867.87251
830.23825
792.0575
753.46555
714.63279
675.75095
637.02218
598.63284
560.82311
1307.8697
1288.8831
1267.0371
1243.2513
1218.3746
1192.284
1164.9243
1136.3165
1106.4765
1075.4355
1043.2485
1009.9801
975.67932
940.40923
904.27033
867.37823
829.86115
791.80549
753.32236
714.59937
675.82966
637.21225
598.94405
561.24955
1308.5441
1288.3144
1267.4448
1244.4604
1220.0187
1194.1328
1166.8451
1138.2225
1108.3129
1077.1616
1044.808
1011.2944
976.71048
941.15477
904.70948
867.46507
829.52382
791.0588
752.24878
713.22893
674.18338
635.30566
596.82558
558.93958
1309.0809
1288.4816
1267.5061
1244.5907
1220.1859
1194.3142
1167.0285
1138.3981
1108.4859
1077.3446
1044.9984
1011.4636
976.85225
941.28083
904.81536
867.5496
829.59874
791.11848
752.27602
713.22572
674.15439
635.24894
596.75814
558.86817
1309.6361
1288.7133
1267.554
1244.6144
1220.1999
1194.3151
1167.0264
1138.3881
1108.4856
1077.3932
1045.104
1011.6288
977.05984
941.49201
905.02271
867.74615
829.78065
791.29139
752.43731
713.38651
674.31623
635.42268
596.92584
559.0303
1310.1066
1289.0006
1267.6674
1244.676
1220.1948
1194.2507
1166.9372
1138.3611
1108.5462
1077.518
1045.3011
1011.8593
977.3199
941.75845
905.28021
867.99802
830.03352
791.54395
752.69022
713.64825
674.59159
635.7124
597.22038
559.3239
1310.5393
1289.3551
1267.8504
1244.7453
1220.1544
1194.171
1166.859
1138.3353
1108.616
1077.6481
1045.4686
1012.0866
977.5813
942.03674
905.56479
868.28757
830.3314
791.85537
753.02046
714.00526
674.97587
636.12074
597.64451
559.75419
1310.9963
1289.7505
1268.0675
1244.8189
1220.1434
1194.1084
1166.7268
1138.2651
1108.6731
1077.7801
1045.6525
1012.3211
977.84987
942.32693
905.86842
868.60429
830.66488
792.21232
753.40913
714.43109
675.43695
636.61741
598.1595
560.28285
1311.4873
1290.1702
1268.2983
1244.798
1220.1421
1194.0634
1166.6653
1138.3072
1108.787
1077.9562
1045.8804
1012.5963
978.16206
942.6674
906.2277
868.98234
831.06308
792.63128
753.85588
714.90555
675.93795
637.14471
598.69414
560.81619
1312.0402
1290.6302
1268.5741
1244.9428
1220.2441
1194.1389
1166.7848
1138.5016
1109.0297
1078.2451
1046.2165
1012.9791
978.58637
943.12864
906.713
869.48498
831.57163
793.13239
754.34431
715.36968
676.37527
637.54498
599.05036
561.11152
1307.8602
1288.89
1267.0534
1243.2719
1218.3966
1192.3015
1164.931
1136.3099
1106.4608
1075.4173
1043.2314
1009.9652
975.66543
940.39458
904.25482
867.36408
829.84897
791.79584
753.31801
714.60186
675.83855
637.22534
598.9569
561.26025
1309.1791
1289.4709
1267.5786
1243.83
1218.951
1192.8445
1165.4785
1136.875
1107.048
1076.0199
1043.8479
1010.6078
976.31388
941.00377
904.80214
867.82606
830.19538
792.02457
753.45003
714.63965
675.77948
637.06637
598.6769
560.8608
1310.9734
1290.3921
1268.0835
1244.3308
1219.4136
1193.3724
1166.0983
1137.6117
1107.8882
1076.9145
1044.7717
1011.5225
977.2028
941.87288
905.62293
868.56373
830.82694
792.52055
753.79438
714.81556
675.76861