/*--------------------------------*- C++ -*----------------------------------*\
| =========                 |                                                 |
| \\      /  F ield         | foam-extend: Open Source CFD                    |
|  \\    /   O peration     | Version:     4.1-20200408                       |
|   \\  /    A nd           | Web:         http://www.foam-extend.org         |
|    \\/     M anipulation  |                                                 |
\*---------------------------------------------------------------------------*/
FoamFile
{
    version     2.0;
    format      ascii;
    class       regIOobject;
    location    "0.0660000/uniform";
    object      profilingInfo;
}
// * * * * * * * * * * * * * * * * * * * * * * * * * * * * * * * * * * * * * //

profilingInfo
(

    {
        id              10;
        parentId        9;
        description     "Foam::Time::writeObject - outputTime";
        calls           4453;
        totalTime       584.969;
        childTime       0;
        onStack         1;
    }

    {
        id              9;
        parentId        1;
        description     "Foam::Time::writeObject";
        calls           4453;
        totalTime       584.982;
        childTime       584.969;
        onStack         1;
    }

    {
        id              1;
        description     "application::main";
        calls           1;
        totalTime       89818.1;
        childTime       8168.73;
        onStack         1;
    }

    {
        id              8;
        parentId        1;
        description     "FO::drawingForce::execute";
        calls           4452;
        totalTime       0.314098;
        childTime       0;
        onStack         0;
    }

    {
        id              3;
        parentId        2;
        description     "FO::drawingForce::start";
        calls           1;
        totalTime       4.3e-05;
        childTime       0;
        onStack         0;
    }

    {
        id              2;
        parentId        1;
        description     "functionObjectList::read";
        calls           1;
        totalTime       0.000281;
        childTime       4.3e-05;
        onStack         0;
    }

    {
        id              4;
        parentId        1;
        description     "fvMatrix::solve_DU";
        calls           2952131;
        totalTime       7583.43;
        childTime       6652.46;
        onStack         0;
    }

    {
        id              5;
        parentId        4;
        description     "lduMatrix::solver_DUx";
        calls           2952131;
        totalTime       4766.25;
        childTime       0;
        onStack         0;
    }

    {
        id              6;
        parentId        4;
        description     "lduMatrix::solver_DUy";
        calls           2952131;
        totalTime       1557.5;
        childTime       0;
        onStack         0;
    }

    {
        id              7;
        parentId        4;
        description     "lduMatrix::solver_DUz";
        calls           2952131;
        totalTime       328.717;
        childTime       0;
        onStack         0;
    }
);


// ************************************************************************* //
