/*--------------------------------*- C++ -*----------------------------------*\
| =========                 |                                                 |
| \\      /  F ield         | foam-extend: Open Source CFD                    |
|  \\    /   O peration     | Version:     4.1-20200408                       |
|   \\  /    A nd           | Web:         http://www.foam-extend.org         |
|    \\/     M anipulation  |                                                 |
\*---------------------------------------------------------------------------*/
FoamFile
{
    version     2.0;
    format      ascii;
    class       volVectorField;
    location    "0.0325000";
    object      U_0;
}
// * * * * * * * * * * * * * * * * * * * * * * * * * * * * * * * * * * * * * //

dimensions      [0 1 0 0 0 0 0];

internalField   nonuniform List<vector> 
1952
(
(0.0322599 -7.54757e-07 0)
(0.0322598 -1.22875e-06 0)
(0.0322597 -1.70892e-06 0)
(0.0322595 -2.19064e-06 0)
(0.0322593 -2.67275e-06 0)
(0.0322591 -3.1544e-06 0)
(0.0322588 -3.63491e-06 0)
(0.0322585 -4.11339e-06 0)
(0.0322582 -4.58862e-06 0)
(0.0322579 -5.05947e-06 0)
(0.0322577 -5.52209e-06 0)
(0.0322574 -5.97724e-06 0)
(0.0322572 -6.41305e-06 0)
(0.0322571 -6.83682e-06 0)
(0.0322571 -7.21985e-06 0)
(0.0322599 -3.23351e-07 0)
(0.0322589 -7.5926e-07 0)
(0.0322588 -1.23606e-06 0)
(0.0322587 -1.71905e-06 0)
(0.0322585 -2.20355e-06 0)
(0.0322583 -2.68844e-06 0)
(0.0322581 -3.17273e-06 0)
(0.0322578 -3.65591e-06 0)
(0.0322575 -4.13685e-06 0)
(0.0322572 -4.61459e-06 0)
(0.0322569 -5.08766e-06 0)
(0.0322567 -5.55255e-06 0)
(0.0322564 -6.00962e-06 0)
(0.0322562 -6.44729e-06 0)
(0.0322561 -6.87247e-06 0)
(0.0322561 -7.25683e-06 0)
(0.0322589 -3.25281e-07 0)
(0.0322579 -7.63425e-07 0)
(0.0322578 -1.24282e-06 0)
(0.0322577 -1.72844e-06 0)
(0.0322575 -2.21549e-06 0)
(0.0322573 -2.70296e-06 0)
(0.0322571 -3.18969e-06 0)
(0.0322568 -3.67534e-06 0)
(0.0322565 -4.15859e-06 0)
(0.0322562 -4.63859e-06 0)
(0.0322559 -5.11376e-06 0)
(0.0322556 -5.58065e-06 0)
(0.0322554 -6.03951e-06 0)
(0.0322552 -6.47882e-06 0)
(0.0322551 -6.90537e-06 0)
(0.0322551 -7.29107e-06 0)
(0.0322579 -3.27065e-07 0)
(0.0322569 -7.67296e-07 0)
(0.0322568 -1.2491e-06 0)
(0.0322567 -1.73716e-06 0)
(0.0322565 -2.22659e-06 0)
(0.0322563 -2.71646e-06 0)
(0.0322561 -3.20547e-06 0)
(0.0322558 -3.6934e-06 0)
(0.0322555 -4.17879e-06 0)
(0.0322552 -4.6609e-06 0)
(0.0322549 -5.13801e-06 0)
(0.0322546 -5.60675e-06 0)
(0.0322544 -6.0673e-06 0)
(0.0322542 -6.50816e-06 0)
(0.0322541 -6.93607e-06 0)
(0.0322541 -7.32321e-06 0)
(0.0322569 -3.28723e-07 0)
(0.0322559 -7.70911e-07 0)
(0.0322558 -1.25496e-06 0)
(0.0322556 -1.7453e-06 0)
(0.0322555 -2.23697e-06 0)
(0.0322553 -2.72907e-06 0)
(0.0322551 -3.22022e-06 0)
(0.0322548 -3.71029e-06 0)
(0.0322545 -4.19769e-06 0)
(0.0322542 -4.68176e-06 0)
(0.0322539 -5.16071e-06 0)
(0.0322536 -5.6312e-06 0)
(0.0322534 -6.09338e-06 0)
(0.0322532 -6.53575e-06 0)
(0.0322531 -6.96506e-06 0)
(0.0322531 -7.35368e-06 0)
(0.0322559 -3.30271e-07 0)
(0.0322548 -7.74311e-07 0)
(0.0322548 -1.26047e-06 0)
(0.0322546 -1.75296e-06 0)
(0.0322545 -2.24672e-06 0)
(0.0322543 -2.74094e-06 0)
(0.032254 -3.23409e-06 0)
(0.0322538 -3.72617e-06 0)
(0.0322535 -4.21548e-06 0)
(0.0322532 -4.70141e-06 0)
(0.0322529 -5.18213e-06 0)
(0.0322526 -5.65429e-06 0)
(0.0322523 -6.11809e-06 0)
(0.0322522 -6.56195e-06 0)
(0.0322521 -6.99269e-06 0)
(0.0322521 -7.38283e-06 0)
(0.0322549 -3.31727e-07 0)
(0.0322538 -7.77523e-07 0)
(0.0322537 -1.26568e-06 0)
(0.0322536 -1.7602e-06 0)
(0.0322535 -2.25594e-06 0)
(0.0322533 -2.75215e-06 0)
(0.032253 -3.24722e-06 0)
(0.0322528 -3.74121e-06 0)
(0.0322525 -4.23233e-06 0)
(0.0322522 -4.72006e-06 0)
(0.0322519 -5.20248e-06 0)
(0.0322516 -5.67629e-06 0)
(0.0322513 -6.14169e-06 0)
(0.0322511 -6.58708e-06 0)
(0.032251 -7.01926e-06 0)
(0.0322511 -7.41092e-06 0)
(0.0322539 -3.33103e-07 0)
(0.0322528 -7.80586e-07 0)
(0.0322527 -1.27065e-06 0)
(0.0322526 -1.76711e-06 0)
(0.0322524 -2.26474e-06 0)
(0.0322522 -2.76286e-06 0)
(0.032252 -3.25976e-06 0)
(0.0322517 -3.75559e-06 0)
(0.0322514 -4.24846e-06 0)
(0.0322512 -4.73794e-06 0)
(0.0322508 -5.22201e-06 0)
(0.0322506 -5.69747e-06 0)
(0.0322503 -6.16441e-06 0)
(0.0322501 -6.61136e-06 0)
(0.03225 -7.04499e-06 0)
(0.03225 -7.43817e-06 0)
(0.0322528 -3.34414e-07 0)
(0.0322518 -7.83511e-07 0)
(0.0322517 -1.2754e-06 0)
(0.0322516 -1.77371e-06 0)
(0.0322514 -2.27315e-06 0)
(0.0322512 -2.7731e-06 0)
(0.032251 -3.27176e-06 0)
(0.0322507 -3.76936e-06 0)
(0.0322504 -4.26392e-06 0)
(0.0322501 -4.7551e-06 0)
(0.0322498 -5.24078e-06 0)
(0.0322495 -5.71785e-06 0)
(0.0322493 -6.18634e-06 0)
(0.0322491 -6.6348e-06 0)
(0.032249 -7.06993e-06 0)
(0.032249 -7.46463e-06 0)
(0.0322518 -3.35667e-07 0)
(0.0322508 -7.86332e-07 0)
(0.0322507 -1.27998e-06 0)
(0.0322506 -1.78007e-06 0)
(0.0322504 -2.28127e-06 0)
(0.0322502 -2.78299e-06 0)
(0.03225 -3.28336e-06 0)
(0.0322497 -3.78269e-06 0)
(0.0322494 -4.2789e-06 0)
(0.0322491 -4.77176e-06 0)
(0.0322488 -5.25903e-06 0)
(0.0322485 -5.73773e-06 0)
(0.0322482 -6.20776e-06 0)
(0.032248 -6.65778e-06 0)
(0.0322479 -7.09439e-06 0)
(0.032248 -7.49058e-06 0)
(0.0322508 -3.36875e-07 0)
(0.0322497 -7.89066e-07 0)
(0.0322497 -1.28442e-06 0)
(0.0322495 -1.78624e-06 0)
(0.0322494 -2.28915e-06 0)
(0.0322492 -2.79259e-06 0)
(0.0322489 -3.29463e-06 0)
(0.0322487 -3.79565e-06 0)
(0.0322484 -4.29349e-06 0)
(0.0322481 -4.78799e-06 0)
(0.0322477 -5.27682e-06 0)
(0.0322475 -5.75711e-06 0)
(0.0322472 -6.22864e-06 0)
(0.032247 -6.68016e-06 0)
(0.0322469 -7.11819e-06 0)
(0.0322469 -7.51586e-06 0)
(0.0322498 -3.38045e-07 0)
(0.0322487 -7.91721e-07 0)
(0.0322486 -1.28873e-06 0)
(0.0322485 -1.79224e-06 0)
(0.0322483 -2.29681e-06 0)
(0.0322481 -2.80193e-06 0)
(0.0322479 -3.3056e-06 0)
(0.0322476 -3.80828e-06 0)
(0.0322473 -4.30771e-06 0)
(0.032247 -4.80383e-06 0)
(0.0322467 -5.2942e-06 0)
(0.0322464 -5.77602e-06 0)
(0.0322462 -6.24905e-06 0)
(0.032246 -6.70199e-06 0)
(0.0322459 -7.14145e-06 0)
(0.0322459 -7.54058e-06 0)
(0.0322487 -3.39182e-07 0)
(0.0322477 -7.94312e-07 0)
(0.0322476 -1.29294e-06 0)
(0.0322475 -1.7981e-06 0)
(0.0322473 -2.30429e-06 0)
(0.0322471 -2.81106e-06 0)
(0.0322469 -3.31633e-06 0)
(0.0322466 -3.82063e-06 0)
(0.0322463 -4.32162e-06 0)
(0.032246 -4.81933e-06 0)
(0.0322457 -5.31122e-06 0)
(0.0322454 -5.79457e-06 0)
(0.0322451 -6.26908e-06 0)
(0.0322449 -6.72346e-06 0)
(0.0322448 -7.16434e-06 0)
(0.0322449 -7.56492e-06 0)
(0.0322477 -3.40292e-07 0)
(0.0322466 -7.96849e-07 0)
(0.0322466 -1.29706e-06 0)
(0.0322464 -1.80384e-06 0)
(0.0322463 -2.31162e-06 0)
(0.0322461 -2.82001e-06 0)
(0.0322458 -3.32685e-06 0)
(0.0322456 -3.83275e-06 0)
(0.0322452 -4.33528e-06 0)
(0.0322449 -4.83455e-06 0)
(0.0322446 -5.32794e-06 0)
(0.0322443 -5.81282e-06 0)
(0.0322441 -6.28879e-06 0)
(0.0322439 -6.74458e-06 0)
(0.0322438 -7.1869e-06 0)
(0.0322438 -7.58888e-06 0)
(0.0322467 -3.41378e-07 0)
(0.0322456 -7.99336e-07 0)
(0.0322455 -1.3011e-06 0)
(0.0322454 -1.80946e-06 0)
(0.0322452 -2.31881e-06 0)
(0.032245 -2.82879e-06 0)
(0.0322448 -3.33717e-06 0)
(0.0322445 -3.84465e-06 0)
(0.0322442 -4.34871e-06 0)
(0.0322439 -4.84953e-06 0)
(0.0322436 -5.3444e-06 0)
(0.0322433 -5.8308e-06 0)
(0.032243 -6.30821e-06 0)
(0.0322428 -6.76542e-06 0)
(0.0322427 -7.20915e-06 0)
(0.0322428 -7.61252e-06 0)
(0.0322456 -3.42442e-07 0)
(0.0322446 -8.01776e-07 0)
(0.0322445 -1.30507e-06 0)
(0.0322444 -1.81499e-06 0)
(0.0322442 -2.32587e-06 0)
(0.032244 -2.83741e-06 0)
(0.0322437 -3.34733e-06 0)
(0.0322435 -3.85636e-06 0)
(0.0322432 -4.36192e-06 0)
(0.0322429 -4.86428e-06 0)
(0.0322425 -5.36061e-06 0)
(0.0322422 -5.84853e-06 0)
(0.032242 -6.32732e-06 0)
(0.0322418 -6.78595e-06 0)
(0.0322417 -7.23103e-06 0)
(0.0322417 -7.63581e-06 0)
(0.0322446 -3.43487e-07 0)
(0.0322435 -8.04172e-07 0)
(0.0322434 -1.30896e-06 0)
(0.0322433 -1.82041e-06 0)
(0.0322431 -2.33281e-06 0)
(0.0322429 -2.84589e-06 0)
(0.0322427 -3.35731e-06 0)
(0.0322424 -3.86788e-06 0)
(0.0322421 -4.37492e-06 0)
(0.0322418 -4.8788e-06 0)
(0.0322415 -5.37658e-06 0)
(0.0322412 -5.86599e-06 0)
(0.0322409 -6.34615e-06 0)
(0.0322407 -6.80618e-06 0)
(0.0322406 -7.25257e-06 0)
(0.0322407 -7.65876e-06 0)
(0.0322436 -3.44513e-07 0)
(0.0322425 -8.06521e-07 0)
(0.0322424 -1.31278e-06 0)
(0.0322423 -1.82573e-06 0)
(0.0322421 -2.33961e-06 0)
(0.0322419 -2.85421e-06 0)
(0.0322416 -3.3671e-06 0)
(0.0322414 -3.87918e-06 0)
(0.0322411 -4.3877e-06 0)
(0.0322407 -4.89306e-06 0)
(0.0322404 -5.39229e-06 0)
(0.0322401 -5.88315e-06 0)
(0.0322399 -6.36472e-06 0)
(0.0322397 -6.82613e-06 0)
(0.0322396 -7.27383e-06 0)
(0.0322396 -7.68144e-06 0)
(0.0322425 -3.45518e-07 0)
(0.0322414 -8.08822e-07 0)
(0.0322413 -1.31652e-06 0)
(0.0322412 -1.83095e-06 0)
(0.032241 -2.34629e-06 0)
(0.0322408 -2.86237e-06 0)
(0.0322406 -3.37673e-06 0)
(0.0322403 -3.89029e-06 0)
(0.03224 -4.40027e-06 0)
(0.0322397 -4.9071e-06 0)
(0.0322394 -5.40779e-06 0)
(0.0322391 -5.90007e-06 0)
(0.0322388 -6.38306e-06 0)
(0.0322386 -6.84585e-06 0)
(0.0322385 -7.29491e-06 0)
(0.0322385 -7.70395e-06 0)
(0.0322415 -3.46503e-07 0)
(0.0322404 -8.11078e-07 0)
(0.0322403 -1.32018e-06 0)
(0.0322402 -1.83606e-06 0)
(0.03224 -2.35284e-06 0)
(0.0322398 -2.87038e-06 0)
(0.0322395 -3.38618e-06 0)
(0.0322393 -3.90121e-06 0)
(0.0322389 -4.41264e-06 0)
(0.0322386 -4.92092e-06 0)
(0.0322383 -5.42307e-06 0)
(0.032238 -5.9168e-06 0)
(0.0322377 -6.40124e-06 0)
(0.0322375 -6.86544e-06 0)
(0.0322374 -7.3159e-06 0)
(0.0322375 -7.72635e-06 0)
(0.0322404 -3.47469e-07 0)
(0.0322393 -8.13293e-07 0)
(0.0322392 -1.32379e-06 0)
(0.0322391 -1.84108e-06 0)
(0.0322389 -2.35928e-06 0)
(0.0322387 -2.87826e-06 0)
(0.0322385 -3.39549e-06 0)
(0.0322382 -3.91198e-06 0)
(0.0322379 -4.42485e-06 0)
(0.0322376 -4.93461e-06 0)
(0.0322372 -5.43822e-06 0)
(0.0322369 -5.93342e-06 0)
(0.0322367 -6.41931e-06 0)
(0.0322365 -6.88498e-06 0)
(0.0322364 -7.33681e-06 0)
(0.0322364 -7.74866e-06 0)
(0.0322394 -3.48417e-07 0)
(0.0322383 -8.15464e-07 0)
(0.0322382 -1.32732e-06 0)
(0.032238 -1.84601e-06 0)
(0.0322379 -2.3656e-06 0)
(0.0322377 -2.88601e-06 0)
(0.0322374 -3.40466e-06 0)
(0.0322371 -3.92259e-06 0)
(0.0322368 -4.43692e-06 0)
(0.0322365 -4.94814e-06 0)
(0.0322362 -5.45321e-06 0)
(0.0322359 -5.94988e-06 0)
(0.0322356 -6.43721e-06 0)
(0.0322354 -6.90432e-06 0)
(0.0322353 -7.3575e-06 0)
(0.0322353 -7.77075e-06 0)
(0.0322383 -3.49346e-07 0)
(0.0322372 -8.1758e-07 0)
(0.0322371 -1.33078e-06 0)
(0.032237 -1.85083e-06 0)
(0.0322368 -2.3718e-06 0)
(0.0322366 -2.89361e-06 0)
(0.0322363 -3.41366e-06 0)
(0.0322361 -3.93303e-06 0)
(0.0322357 -4.44879e-06 0)
(0.0322354 -4.96147e-06 0)
(0.0322351 -5.46799e-06 0)
(0.0322348 -5.96613e-06 0)
(0.0322345 -6.4549e-06 0)
(0.0322343 -6.92341e-06 0)
(0.0322342 -7.37798e-06 0)
(0.0322343 -7.79265e-06 0)
(0.0322372 -3.5025e-07 0)
(0.0322361 -8.19642e-07 0)
(0.032236 -1.33416e-06 0)
(0.0322359 -1.85556e-06 0)
(0.0322357 -2.37787e-06 0)
(0.0322355 -2.90108e-06 0)
(0.0322353 -3.42251e-06 0)
(0.032235 -3.9433e-06 0)
(0.0322347 -4.46048e-06 0)
(0.0322344 -4.97461e-06 0)
(0.032234 -5.48258e-06 0)
(0.0322337 -5.98217e-06 0)
(0.0322334 -6.4724e-06 0)
(0.0322333 -6.94235e-06 0)
(0.0322331 -7.39832e-06 0)
(0.0322332 -7.81442e-06 0)
(0.0322362 -3.51131e-07 0)
(0.0322351 -8.21671e-07 0)
(0.032235 -1.33747e-06 0)
(0.0322349 -1.86021e-06 0)
(0.0322347 -2.38385e-06 0)
(0.0322345 -2.90842e-06 0)
(0.0322342 -3.43122e-06 0)
(0.0322339 -3.95341e-06 0)
(0.0322336 -4.472e-06 0)
(0.0322333 -4.98757e-06 0)
(0.0322329 -5.49698e-06 0)
(0.0322326 -5.99805e-06 0)
(0.0322324 -6.48973e-06 0)
(0.0322322 -6.96113e-06 0)
(0.0322321 -7.41852e-06 0)
(0.0322321 -7.83602e-06 0)
(0.0322351 -3.51998e-07 0)
(0.032234 -8.23654e-07 0)
(0.0322339 -1.34071e-06 0)
(0.0322338 -1.86478e-06 0)
(0.0322336 -2.38971e-06 0)
(0.0322334 -2.91564e-06 0)
(0.0322331 -3.43979e-06 0)
(0.0322329 -3.96336e-06 0)
(0.0322325 -4.48334e-06 0)
(0.0322322 -5.00033e-06 0)
(0.0322319 -5.51118e-06 0)
(0.0322316 -6.0137e-06 0)
(0.0322313 -6.50683e-06 0)
(0.0322311 -6.97969e-06 0)
(0.032231 -7.43847e-06 0)
(0.032231 -7.85741e-06 0)
(0.032234 -3.5285e-07 0)
(0.0322329 -8.25609e-07 0)
(0.0322328 -1.3439e-06 0)
(0.0322327 -1.86927e-06 0)
(0.0322325 -2.39548e-06 0)
(0.0322323 -2.92273e-06 0)
(0.0322321 -3.44821e-06 0)
(0.0322318 -3.97314e-06 0)
(0.0322315 -4.49451e-06 0)
(0.0322311 -5.0129e-06 0)
(0.0322308 -5.52517e-06 0)
(0.0322305 -6.02915e-06 0)
(0.0322302 -6.52371e-06 0)
(0.03223 -6.99802e-06 0)
(0.0322299 -7.45821e-06 0)
(0.0322299 -7.8786e-06 0)
(0.032233 -3.53689e-07 0)
(0.0322319 -8.27564e-07 0)
(0.0322318 -1.34708e-06 0)
(0.0322316 -1.8737e-06 0)
(0.0322315 -2.40118e-06 0)
(0.0322312 -2.92973e-06 0)
(0.032231 -3.45652e-06 0)
(0.0322307 -3.98279e-06 0)
(0.0322304 -4.50551e-06 0)
(0.03223 -5.02529e-06 0)
(0.0322297 -5.53897e-06 0)
(0.0322294 -6.04438e-06 0)
(0.0322291 -6.54036e-06 0)
(0.0322289 -7.01613e-06 0)
(0.0322288 -7.47771e-06 0)
(0.0322288 -7.89959e-06 0)
(0.0322319 -3.54524e-07 0)
(0.0322308 -8.29496e-07 0)
(0.0322307 -1.35022e-06 0)
(0.0322306 -1.87809e-06 0)
(0.0322304 -2.40682e-06 0)
(0.0322302 -2.93664e-06 0)
(0.0322299 -3.46473e-06 0)
(0.0322296 -3.9923e-06 0)
(0.0322293 -4.51638e-06 0)
(0.032229 -5.03752e-06 0)
(0.0322286 -5.55258e-06 0)
(0.0322283 -6.05942e-06 0)
(0.032228 -6.55681e-06 0)
(0.0322278 -7.03405e-06 0)
(0.0322277 -7.49702e-06 0)
(0.0322277 -7.92043e-06 0)
(0.0322308 -3.55351e-07 0)
(0.0322297 -8.31431e-07 0)
(0.0322296 -1.35336e-06 0)
(0.0322295 -1.88248e-06 0)
(0.0322293 -2.41246e-06 0)
(0.0322291 -2.94354e-06 0)
(0.0322288 -3.47291e-06 0)
(0.0322285 -4.00178e-06 0)
(0.0322282 -4.52719e-06 0)
(0.0322279 -5.04968e-06 0)
(0.0322275 -5.56611e-06 0)
(0.0322272 -6.07437e-06 0)
(0.0322269 -6.57317e-06 0)
(0.0322267 -7.0519e-06 0)
(0.0322266 -7.51629e-06 0)
(0.0322266 -7.94126e-06 0)
(0.0322298 -3.56178e-07 0)
(0.0322287 -8.33388e-07 0)
(0.0322285 -1.35654e-06 0)
(0.0322284 -1.88691e-06 0)
(0.0322282 -2.41814e-06 0)
(0.032228 -2.95047e-06 0)
(0.0322277 -3.48113e-06 0)
(0.0322274 -4.01127e-06 0)
(0.0322271 -4.538e-06 0)
(0.0322268 -5.06181e-06 0)
(0.0322264 -5.57962e-06 0)
(0.0322261 -6.08927e-06 0)
(0.0322258 -6.58952e-06 0)
(0.0322256 -7.0697e-06 0)
(0.0322255 -7.53557e-06 0)
(0.0322255 -7.96217e-06 0)
(0.0322287 -3.57014e-07 0)
(0.0322276 -8.35402e-07 0)
(0.0322275 -1.35981e-06 0)
(0.0322273 -1.89145e-06 0)
(0.0322271 -2.42397e-06 0)
(0.0322269 -2.95757e-06 0)
(0.0322267 -3.48952e-06 0)
(0.0322264 -4.02093e-06 0)
(0.032226 -4.54899e-06 0)
(0.0322257 -5.0741e-06 0)
(0.0322253 -5.59329e-06 0)
(0.032225 -6.10435e-06 0)
(0.0322247 -6.60605e-06 0)
(0.0322245 -7.08775e-06 0)
(0.0322244 -7.55514e-06 0)
(0.0322244 -7.98341e-06 0)
(0.0322276 -3.57875e-07 0)
(0.0322265 -8.37532e-07 0)
(0.0322264 -1.36326e-06 0)
(0.0322263 -1.89624e-06 0)
(0.0322261 -2.43009e-06 0)
(0.0322258 -2.96498e-06 0)
(0.0322256 -3.49826e-06 0)
(0.0322253 -4.03096e-06 0)
(0.0322249 -4.56034e-06 0)
(0.0322246 -5.08677e-06 0)
(0.0322242 -5.60734e-06 0)
(0.0322239 -6.11982e-06 0)
(0.0322236 -6.62298e-06 0)
(0.0322234 -7.10626e-06 0)
(0.0322233 -7.57514e-06 0)
(0.0322233 -8.00509e-06 0)
(0.0322265 -3.58784e-07 0)
(0.0322254 -8.39833e-07 0)
(0.0322253 -1.36698e-06 0)
(0.0322252 -1.90138e-06 0)
(0.032225 -2.43666e-06 0)
(0.0322248 -2.97291e-06 0)
(0.0322245 -3.50758e-06 0)
(0.0322242 -4.0416e-06 0)
(0.0322238 -4.57232e-06 0)
(0.0322235 -5.10005e-06 0)
(0.0322231 -5.62202e-06 0)
(0.0322228 -6.13589e-06 0)
(0.0322225 -6.64049e-06 0)
(0.0322223 -7.1253e-06 0)
(0.0322222 -7.59566e-06 0)
(0.0322222 -8.02734e-06 0)
(0.0322254 -3.59767e-07 0)
(0.0322243 -8.42379e-07 0)
(0.0322242 -1.37108e-06 0)
(0.0322241 -1.90704e-06 0)
(0.0322239 -2.44387e-06 0)
(0.0322237 -2.98158e-06 0)
(0.0322234 -3.51771e-06 0)
(0.0322231 -4.0531e-06 0)
(0.0322227 -4.58517e-06 0)
(0.0322224 -5.1142e-06 0)
(0.032222 -5.63756e-06 0)
(0.0322217 -6.15279e-06 0)
(0.0322214 -6.65882e-06 0)
(0.0322212 -7.14513e-06 0)
(0.0322211 -7.61697e-06 0)
(0.0322211 -8.05048e-06 0)
(0.0322244 -3.60854e-07 0)
(0.0322232 -8.4529e-07 0)
(0.0322231 -1.37574e-06 0)
(0.032223 -1.91345e-06 0)
(0.0322228 -2.45203e-06 0)
(0.0322226 -2.99131e-06 0)
(0.0322223 -3.52905e-06 0)
(0.032222 -4.06585e-06 0)
(0.0322216 -4.59936e-06 0)
(0.0322213 -5.12972e-06 0)
(0.0322209 -5.65444e-06 0)
(0.0322206 -6.17103e-06 0)
(0.0322203 -6.67845e-06 0)
(0.0322201 -7.16628e-06 0)
(0.03222 -7.63961e-06 0)
(0.03222 -8.07494e-06 0)
(0.0322233 -3.62097e-07 0)
(0.0322222 -8.4868e-07 0)
(0.032222 -1.38118e-06 0)
(0.0322219 -1.9209e-06 0)
(0.0322217 -2.46146e-06 0)
(0.0322215 -3.00251e-06 0)
(0.0322212 -3.54201e-06 0)
(0.0322209 -4.08033e-06 0)
(0.0322205 -4.61535e-06 0)
(0.0322202 -5.14709e-06 0)
(0.0322198 -5.6731e-06 0)
(0.0322195 -6.19109e-06 0)
(0.0322192 -6.69975e-06 0)
(0.032219 -7.18917e-06 0)
(0.0322188 -7.66402e-06 0)
(0.0322189 -8.10119e-06 0)
(0.0322222 -3.63548e-07 0)
(0.0322211 -8.5269e-07 0)
(0.032221 -1.38765e-06 0)
(0.0322208 -1.92973e-06 0)
(0.0322206 -2.47258e-06 0)
(0.0322204 -3.01567e-06 0)
(0.0322201 -3.55717e-06 0)
(0.0322198 -4.09716e-06 0)
(0.0322194 -4.63381e-06 0)
(0.0322191 -5.16696e-06 0)
(0.0322187 -5.69428e-06 0)
(0.0322184 -6.21365e-06 0)
(0.0322181 -6.72347e-06 0)
(0.0322178 -7.21446e-06 0)
(0.0322177 -7.69079e-06 0)
(0.0322177 -8.12985e-06 0)
(0.0322211 -3.65268e-07 0)
(0.03222 -8.57514e-07 0)
(0.0322199 -1.39542e-06 0)
(0.0322197 -1.94032e-06 0)
(0.0322195 -2.48589e-06 0)
(0.0322193 -3.03139e-06 0)
(0.032219 -3.57518e-06 0)
(0.0322187 -4.11709e-06 0)
(0.0322183 -4.65552e-06 0)
(0.032218 -5.19018e-06 0)
(0.0322176 -5.71882e-06 0)
(0.0322173 -6.23955e-06 0)
(0.0322169 -6.75044e-06 0)
(0.0322167 -7.24293e-06 0)
(0.0322166 -7.72062e-06 0)
(0.0322166 -8.1616e-06 0)
(0.03222 -3.67338e-07 0)
(0.0322189 -8.63368e-07 0)
(0.0322188 -1.40485e-06 0)
(0.0322186 -1.95316e-06 0)
(0.0322184 -2.50201e-06 0)
(0.0322182 -3.05039e-06 0)
(0.0322179 -3.5969e-06 0)
(0.0322176 -4.14101e-06 0)
(0.0322172 -4.6815e-06 0)
(0.0322169 -5.21773e-06 0)
(0.0322165 -5.74781e-06 0)
(0.0322161 -6.26975e-06 0)
(0.0322158 -6.78173e-06 0)
(0.0322156 -7.27564e-06 0)
(0.0322154 -7.7545e-06 0)
(0.0322155 -8.19742e-06 0)
(0.0322189 -3.6985e-07 0)
(0.0322178 -8.70496e-07 0)
(0.0322177 -1.41633e-06 0)
(0.0322175 -1.96879e-06 0)
(0.0322173 -2.52163e-06 0)
(0.0322171 -3.0735e-06 0)
(0.0322168 -3.6233e-06 0)
(0.0322165 -4.17003e-06 0)
(0.0322161 -4.71293e-06 0)
(0.0322158 -5.25092e-06 0)
(0.0322154 -5.78258e-06 0)
(0.032215 -6.30565e-06 0)
(0.0322147 -6.81868e-06 0)
(0.0322145 -7.31381e-06 0)
(0.0322143 -7.79366e-06 0)
(0.0322143 -8.23843e-06 0)
(0.0322178 -3.72909e-07 0)
(0.0322167 -8.79164e-07 0)
(0.0322165 -1.4303e-06 0)
(0.0322164 -1.98783e-06 0)
(0.0322162 -2.54553e-06 0)
(0.032216 -3.10169e-06 0)
(0.0322157 -3.65548e-06 0)
(0.0322154 -4.20542e-06 0)
(0.032215 -4.75122e-06 0)
(0.0322146 -5.29123e-06 0)
(0.0322143 -5.82468e-06 0)
(0.0322139 -6.34884e-06 0)
(0.0322136 -6.8628e-06 0)
(0.0322133 -7.35888e-06 0)
(0.0322132 -7.83951e-06 0)
(0.0322132 -8.28597e-06 0)
(0.0322167 -3.76629e-07 0)
(0.0322155 -8.89661e-07 0)
(0.0322154 -1.44723e-06 0)
(0.0322153 -2.01093e-06 0)
(0.0322151 -2.57457e-06 0)
(0.0322149 -3.136e-06 0)
(0.0322146 -3.69471e-06 0)
(0.0322142 -4.24861e-06 0)
(0.0322139 -4.798e-06 0)
(0.0322135 -5.34045e-06 0)
(0.0322131 -5.87603e-06 0)
(0.0322128 -6.40127e-06 0)
(0.0322124 -6.91609e-06 0)
(0.0322122 -7.41282e-06 0)
(0.032212 -7.89391e-06 0)
(0.032212 -8.34181e-06 0)
(0.0322156 -3.81134e-07 0)
(0.0322144 -9.02271e-07 0)
(0.0322143 -1.46758e-06 0)
(0.0322142 -2.03877e-06 0)
(0.032214 -2.60961e-06 0)
(0.0322137 -3.17752e-06 0)
(0.0322134 -3.74229e-06 0)
(0.0322131 -4.30117e-06 0)
(0.0322128 -4.85503e-06 0)
(0.0322124 -5.40059e-06 0)
(0.032212 -5.9388e-06 0)
(0.0322116 -6.4653e-06 0)
(0.0322113 -6.98098e-06 0)
(0.032211 -7.47801e-06 0)
(0.0322109 -7.9592e-06 0)
(0.0322108 -8.40818e-06 0)
(0.0322144 -3.86545e-07 0)
(0.0322133 -9.17254e-07 0)
(0.0322132 -1.49181e-06 0)
(0.032213 -2.07196e-06 0)
(0.0322128 -2.6515e-06 0)
(0.0322126 -3.22735e-06 0)
(0.0322123 -3.79957e-06 0)
(0.032212 -4.36474e-06 0)
(0.0322116 -4.92427e-06 0)
(0.0322113 -5.47392e-06 0)
(0.0322109 -6.01558e-06 0)
(0.0322105 -6.54375e-06 0)
(0.0322102 -7.06048e-06 0)
(0.0322099 -7.5575e-06 0)
(0.0322097 -8.03836e-06 0)
(0.0322097 -8.48785e-06 0)
(0.0322133 -3.92974e-07 0)
(0.0322121 -9.34805e-07 0)
(0.032212 -1.52022e-06 0)
(0.0322119 -2.11101e-06 0)
(0.0322117 -2.70091e-06 0)
(0.0322114 -3.2864e-06 0)
(0.0322112 -3.86774e-06 0)
(0.0322108 -4.44084e-06 0)
(0.0322105 -5.00759e-06 0)
(0.0322101 -5.56273e-06 0)
(0.0322097 -6.10903e-06 0)
(0.0322094 -6.63971e-06 0)
(0.032209 -7.15809e-06 0)
(0.0322087 -7.65488e-06 0)
(0.0322085 -8.13495e-06 0)
(0.0322085 -8.58405e-06 0)
(0.0322121 -4.00503e-07 0)
(0.0322109 -9.55006e-07 0)
(0.0322108 -1.55298e-06 0)
(0.0322107 -2.15617e-06 0)
(0.0322105 -2.75824e-06 0)
(0.0322103 -3.35526e-06 0)
(0.03221 -3.94764e-06 0)
(0.0322097 -4.53069e-06 0)
(0.0322093 -5.10664e-06 0)
(0.032209 -5.66927e-06 0)
(0.0322086 -6.22204e-06 0)
(0.0322082 -6.7568e-06 0)
(0.0322079 -7.27816e-06 0)
(0.0322076 -7.77506e-06 0)
(0.0322074 -8.25413e-06 0)
(0.0322073 -8.70141e-06 0)
(0.032211 -4.09168e-07 0)
(0.0322097 -9.77801e-07 0)
(0.0322096 -1.59002e-06 0)
(0.0322095 -2.20738e-06 0)
(0.0322093 -2.82349e-06 0)
(0.0322091 -3.43406e-06 0)
(0.0322088 -4.03964e-06 0)
(0.0322085 -4.63497e-06 0)
(0.0322082 -5.22263e-06 0)
(0.0322078 -5.79539e-06 0)
(0.0322074 -6.3575e-06 0)
(0.0322071 -6.89907e-06 0)
(0.0322067 -7.42621e-06 0)
(0.0322064 -7.92537e-06 0)
(0.0322062 -8.40501e-06 0)
(0.0322061 -8.85019e-06 0)
(0.0322098 -4.18944e-07 0)
(0.0322085 -1.00293e-06 0)
(0.0322084 -1.63093e-06 0)
(0.0322083 -2.26411e-06 0)
(0.0322081 -2.89606e-06 0)
(0.0322079 -3.5222e-06 0)
(0.0322076 -4.14316e-06 0)
(0.0322073 -4.75329e-06 0)
(0.032207 -5.35547e-06 0)
(0.0322067 -5.94156e-06 0)
(0.0322063 -6.51671e-06 0)
(0.0322059 -7.06916e-06 0)
(0.0322056 -7.60704e-06 0)
(0.0322053 -8.11382e-06 0)
(0.0322051 -8.60058e-06 0)
(0.0322049 -9.04947e-06 0)
(0.0322085 -4.29719e-07 0)
(0.0322072 -1.02989e-06 0)
(0.0322071 -1.6749e-06 0)
(0.032207 -2.32525e-06 0)
(0.0322068 -2.97455e-06 0)
(0.0322066 -3.61805e-06 0)
(0.0322064 -4.25641e-06 0)
(0.0322061 -4.88374e-06 0)
(0.0322058 -5.50316e-06 0)
(0.0322055 -6.10579e-06 0)
(0.0322051 -6.69781e-06 0)
(0.0322048 -7.26557e-06 0)
(0.0322044 -7.8198e-06 0)
(0.0322041 -8.34069e-06 0)
(0.0322039 -8.84371e-06 0)
(0.0322038 -9.30652e-06 0)
(0.0322073 -4.41275e-07 0)
(0.0322059 -1.05791e-06 0)
(0.0322059 -1.72067e-06 0)
(0.0322057 -2.38907e-06 0)
(0.0322056 -3.05677e-06 0)
(0.0322054 -3.71895e-06 0)
(0.0322051 -4.37626e-06 0)
(0.0322049 -5.02271e-06 0)
(0.0322046 -5.66164e-06 0)
(0.0322042 -6.28342e-06 0)
(0.0322039 -6.89537e-06 0)
(0.0322036 -7.48172e-06 0)
(0.0322032 -8.05582e-06 0)
(0.032203 -8.59389e-06 0)
(0.0322027 -9.11594e-06 0)
(0.0322026 -9.59336e-06 0)
(0.032206 -4.53283e-07 0)
(0.0322046 -1.08595e-06 0)
(0.0322045 -1.76653e-06 0)
(0.0322044 -2.45324e-06 0)
(0.0322043 -3.13969e-06 0)
(0.0322041 -3.82119e-06 0)
(0.0322038 -4.4983e-06 0)
(0.0322036 -5.16511e-06 0)
(0.0322033 -5.82505e-06 0)
(0.032203 -6.46788e-06 0)
(0.0322027 -7.10187e-06 0)
(0.0322023 -7.70907e-06 0)
(0.032202 -8.30536e-06 0)
(0.0322018 -8.86221e-06 0)
(0.0322016 -9.40436e-06 0)
(0.0322014 -9.89562e-06 0)
(0.0322046 -4.65292e-07 0)
(0.0322032 -1.11271e-06 0)
(0.0322032 -1.81038e-06 0)
(0.0322031 -2.51481e-06 0)
(0.0322029 -3.21954e-06 0)
(0.0322027 -3.92011e-06 0)
(0.0322025 -4.61697e-06 0)
(0.0322023 -5.30446e-06 0)
(0.032202 -5.9859e-06 0)
(0.0322017 -6.65077e-06 0)
(0.0322014 -7.30785e-06 0)
(0.0322011 -7.93723e-06 0)
(0.0322008 -8.55704e-06 0)
(0.0322006 -9.13338e-06 0)
(0.0322004 -9.69604e-06 0)
(0.0322002 -1.02005e-05 0)
(0.0322033 -4.76754e-07 0)
(0.0322018 -1.13674e-06 0)
(0.0322018 -1.84982e-06 0)
(0.0322017 -2.57037e-06 0)
(0.0322015 -3.29188e-06 0)
(0.0322014 -4.01023e-06 0)
(0.0322012 -4.72569e-06 0)
(0.0322009 -5.43311e-06 0)
(0.0322007 -6.13541e-06 0)
(0.0322004 -6.82227e-06 0)
(0.0322001 -7.50242e-06 0)
(0.0321998 -8.15451e-06 0)
(0.0321996 -8.79844e-06 0)
(0.0321994 -9.3945e-06 0)
(0.0321992 -9.97812e-06 0)
(0.0321991 -1.04949e-05 0)
(0.0322019 -4.87038e-07 0)
(0.0322004 -1.1564e-06 0)
(0.0322003 -1.88218e-06 0)
(0.0322002 -2.61617e-06 0)
(0.0322001 -3.35181e-06 0)
(0.0321999 -4.08546e-06 0)
(0.0321998 -4.81711e-06 0)
(0.0321995 -5.54237e-06 0)
(0.0321993 -6.26352e-06 0)
(0.0321991 -6.97102e-06 0)
(0.0321988 -7.67289e-06 0)
(0.0321986 -8.34733e-06 0)
(0.0321983 -9.01525e-06 0)
(0.0321982 -9.63118e-06 0)
(0.032198 -1.02371e-05 0)
(0.0321979 -1.07653e-05 0)
(0.0322004 -4.95451e-07 0)
(0.0321989 -1.17001e-06 0)
(0.0321989 -1.90468e-06 0)
(0.0321988 -2.64825e-06 0)
(0.0321987 -3.39414e-06 0)
(0.0321985 -4.13926e-06 0)
(0.0321983 -4.88323e-06 0)
(0.0321981 -5.62273e-06 0)
(0.0321979 -6.35903e-06 0)
(0.0321977 -7.08417e-06 0)
(0.0321975 -7.80475e-06 0)
(0.0321972 -8.5e-06 0)
(0.0321971 -9.19046e-06 0)
(0.0321969 -9.82652e-06 0)
(0.0321968 -1.04569e-05 0)
(0.0321968 -1.09956e-05 0)
(0.032199 -5.01268e-07 0)
(0.0321975 -1.17603e-06 0)
(0.0321974 -1.91477e-06 0)
(0.0321973 -2.66301e-06 0)
(0.0321972 -3.41412e-06 0)
(0.032197 -4.16564e-06 0)
(0.0321969 -4.91671e-06 0)
(0.0321967 -5.66527e-06 0)
(0.0321965 -6.41138e-06 0)
(0.0321963 -7.14938e-06 0)
(0.0321961 -7.88355e-06 0)
(0.0321959 -8.59587e-06 0)
(0.0321958 -9.30442e-06 0)
(0.0321957 -9.9595e-06 0)
(0.0321957 -1.06129e-05 0)
(0.0321957 -1.11588e-05 0)
(0.0321975 -5.03831e-07 0)
(0.0321959 -1.1733e-06 0)
(0.0321959 -1.91055e-06 0)
(0.0321958 -2.65774e-06 0)
(0.0321957 -3.40821e-06 0)
(0.0321956 -4.16002e-06 0)
(0.0321954 -4.91184e-06 0)
(0.0321952 -5.66276e-06 0)
(0.0321951 -6.41153e-06 0)
(0.0321949 -7.15484e-06 0)
(0.0321947 -7.89387e-06 0)
(0.0321946 -8.61475e-06 0)
(0.0321945 -9.33057e-06 0)
(0.0321944 -9.99752e-06 0)
(0.0321945 -1.06612e-05 0)
(0.0321947 -1.12077e-05 0)
(0.032196 -5.02645e-07 0)
(0.0321944 -1.15996e-06 0)
(0.0321944 -1.88894e-06 0)
(0.0321943 -2.62804e-06 0)
(0.0321942 -3.37052e-06 0)
(0.0321941 -4.11483e-06 0)
(0.0321939 -4.85903e-06 0)
(0.0321938 -5.60299e-06 0)
(0.0321936 -6.34397e-06 0)
(0.0321934 -7.08047e-06 0)
(0.0321933 -7.81052e-06 0)
(0.0321932 -8.52464e-06 0)
(0.0321932 -9.22948e-06 0)
(0.0321932 -9.8904e-06 0)
(0.0321934 -1.05423e-05 0)
(0.0321937 -1.10806e-05 0)
(0.0321944 -4.96921e-07 0)
(0.0321929 -1.13314e-06 0)
(0.0321929 -1.84518e-06 0)
(0.0321928 -2.56704e-06 0)
(0.0321927 -3.29191e-06 0)
(0.0321926 -4.01837e-06 0)
(0.0321925 -4.74377e-06 0)
(0.0321923 -5.46846e-06 0)
(0.0321922 -6.18808e-06 0)
(0.0321921 -6.90262e-06 0)
(0.0321919 -7.60694e-06 0)
(0.0321919 -8.29564e-06 0)
(0.0321919 -8.96854e-06 0)
(0.032192 -9.6011e-06 0)
(0.0321923 -1.02155e-05 0)
(0.0321927 -1.07296e-05 0)
(0.0321929 -4.85428e-07 0)
(0.0321915 -1.09101e-06 0)
(0.0321914 -1.77619e-06 0)
(0.0321914 -2.47037e-06 0)
(0.0321913 -3.16659e-06 0)
(0.0321912 -3.86342e-06 0)
(0.0321911 -4.55746e-06 0)
(0.0321909 -5.24939e-06 0)
(0.0321908 -5.9333e-06 0)
(0.0321907 -6.61057e-06 0)
(0.0321907 -7.27297e-06 0)
(0.0321906 -7.91935e-06 0)
(0.0321907 -8.54316e-06 0)
(0.0321909 -9.13152e-06 0)
(0.0321913 -9.69395e-06 0)
(0.0321918 -1.01778e-05 0)
(0.0321915 -4.67377e-07 0)
(0.0321901 -1.0337e-06 0)
(0.03219 -1.68223e-06 0)
(0.03219 -2.33833e-06 0)
(0.0321899 -2.99496e-06 0)
(0.0321898 -3.65057e-06 0)
(0.0321897 -4.30112e-06 0)
(0.0321896 -4.94754e-06 0)
(0.0321895 -5.58267e-06 0)
(0.0321895 -6.20938e-06 0)
(0.0321895 -6.81678e-06 0)
(0.0321895 -7.40832e-06 0)
(0.0321897 -7.97212e-06 0)
(0.0321899 -8.50816e-06 0)
(0.0321904 -9.01442e-06 0)
(0.0321911 -9.46977e-06 0)
(0.0321901 -4.42839e-07 0)
(0.0321888 -9.63488e-07 0)
(0.0321888 -1.56702e-06 0)
(0.0321887 -2.17621e-06 0)
(0.0321886 -2.78397e-06 0)
(0.0321886 -3.38858e-06 0)
(0.0321885 -3.98554e-06 0)
(0.0321884 -4.57608e-06 0)
(0.0321884 -5.15223e-06 0)
(0.0321884 -5.71851e-06 0)
(0.0321884 -6.2621e-06 0)
(0.0321885 -6.79124e-06 0)
(0.0321887 -7.28994e-06 0)
(0.0321891 -7.77079e-06 0)
(0.0321896 -8.22138e-06 0)
(0.0321903 -8.65006e-06 0)
(0.0321888 -4.12789e-07 0)
(0.0321876 -8.84231e-07 0)
(0.0321876 -1.43696e-06 0)
(0.0321875 -1.99312e-06 0)
(0.0321875 -2.54567e-06 0)
(0.0321874 -3.09267e-06 0)
(0.0321874 -3.62931e-06 0)
(0.0321874 -4.15713e-06 0)
(0.0321873 -4.66791e-06 0)
(0.0321874 -5.16774e-06 0)
(0.0321875 -5.64284e-06 0)
(0.0321876 -6.10608e-06 0)
(0.0321879 -6.53866e-06 0)
(0.0321883 -6.96435e-06 0)
(0.0321889 -7.36176e-06 0)
(0.0321897 -7.7649e-06 0)
(0.0321876 -3.78874e-07 0)
(0.0321866 -8.00272e-07 0)
(0.0321866 -1.29933e-06 0)
(0.0321865 -1.79966e-06 0)
(0.0321865 -2.29425e-06 0)
(0.0321865 -2.7809e-06 0)
(0.0321865 -3.25463e-06 0)
(0.0321864 -3.71723e-06 0)
(0.0321865 -4.16059e-06 0)
(0.0321865 -4.59203e-06 0)
(0.0321867 -4.99771e-06 0)
(0.0321869 -5.39453e-06 0)
(0.0321872 -5.76236e-06 0)
(0.0321877 -6.13407e-06 0)
(0.0321883 -6.48135e-06 0)
(0.0321891 -6.85923e-06 0)
(0.0321866 -3.4295e-07 0)
(0.0321857 -7.15451e-07 0)
(0.0321857 -1.16066e-06 0)
(0.0321856 -1.60543e-06 0)
(0.0321856 -2.04282e-06 0)
(0.0321856 -2.47023e-06 0)
(0.0321857 -2.8826e-06 0)
(0.0321857 -3.28191e-06 0)
(0.0321857 -3.66042e-06 0)
(0.0321859 -4.02594e-06 0)
(0.032186 -4.36509e-06 0)
(0.0321863 -4.69763e-06 0)
(0.0321866 -5.00364e-06 0)
(0.0321871 -5.3227e-06 0)
(0.0321877 -5.62247e-06 0)
(0.0321885 -5.97399e-06 0)
(0.0321857 -3.06647e-07 0)
(0.0321849 -6.32651e-07 0)
(0.0321849 -1.02578e-06 0)
(0.0321849 -1.41757e-06 0)
(0.0321849 -1.80114e-06 0)
(0.032185 -2.17349e-06 0)
(0.032185 -2.52946e-06 0)
(0.0321851 -2.87116e-06 0)
(0.0321852 -3.19148e-06 0)
(0.0321853 -3.49794e-06 0)
(0.0321855 -3.77784e-06 0)
(0.0321858 -4.0518e-06 0)
(0.0321862 -4.30105e-06 0)
(0.0321867 -4.5693e-06 0)
(0.0321873 -4.82348e-06 0)
(0.032188 -5.1456e-06 0)
(0.0321849 -2.71186e-07 0)
(0.0321843 -5.54152e-07 0)
(0.0321843 -8.98262e-07 0)
(0.0321843 -1.24079e-06 0)
(0.0321844 -1.57523e-06 0)
(0.0321844 -1.89843e-06 0)
(0.0321845 -2.20508e-06 0)
(0.0321846 -2.49719e-06 0)
(0.0321847 -2.76837e-06 0)
(0.0321849 -3.02538e-06 0)
(0.0321851 -3.25736e-06 0)
(0.0321855 -3.48354e-06 0)
(0.0321858 -3.68597e-06 0)
(0.0321863 -3.90849e-06 0)
(0.0321869 -4.11955e-06 0)