/*--------------------------------*- C++ -*----------------------------------*\
| =========                 |                                                 |
| \\      /  F ield         | foam-extend: Open Source CFD                    |
|  \\    /   O peration     | Version:     4.1-20200408                       |
|   \\  /    A nd           | Web:         http://www.foam-extend.org         |
|    \\/     M anipulation  |                                                 |
\*---------------------------------------------------------------------------*/
FoamFile
{
    version     2.0;
    format      ascii;
    class       volVectorField;
    location    "0.0325000";
    object      U_0_0;
}
// * * * * * * * * * * * * * * * * * * * * * * * * * * * * * * * * * * * * * //

dimensions      [0 1 0 0 0 0 0];

internalField   nonuniform List<vector> 
1952
(
(0.0322098 -7.5628e-07 0)
(0.0322098 -1.23121e-06 0)
(0.0322096 -1.71232e-06 0)
(0.0322095 -2.19493e-06 0)
(0.0322093 -2.67792e-06 0)
(0.0322091 -3.16036e-06 0)
(0.0322088 -3.64167e-06 0)
(0.0322085 -4.12078e-06 0)
(0.0322082 -4.59669e-06 0)
(0.0322079 -5.06797e-06 0)
(0.0322077 -5.5311e-06 0)
(0.0322074 -5.98643e-06 0)
(0.0322072 -6.42245e-06 0)
(0.0322071 -6.84601e-06 0)
(0.0322071 -7.22882e-06 0)
(0.0322099 -3.24004e-07 0)
(0.0322089 -7.60454e-07 0)
(0.0322088 -1.23799e-06 0)
(0.0322087 -1.72171e-06 0)
(0.0322085 -2.2069e-06 0)
(0.0322083 -2.69247e-06 0)
(0.0322081 -3.17735e-06 0)
(0.0322078 -3.66112e-06 0)
(0.0322075 -4.14253e-06 0)
(0.0322072 -4.62072e-06 0)
(0.0322069 -5.09409e-06 0)
(0.0322066 -5.55924e-06 0)
(0.0322064 -6.01637e-06 0)
(0.0322062 -6.45404e-06 0)
(0.0322061 -6.879e-06 0)
(0.0322061 -7.26316e-06 0)
(0.0322089 -3.25792e-07 0)
(0.0322079 -7.64334e-07 0)
(0.0322078 -1.24428e-06 0)
(0.0322077 -1.73045e-06 0)
(0.0322075 -2.21802e-06 0)
(0.0322073 -2.70599e-06 0)
(0.0322071 -3.19316e-06 0)
(0.0322068 -3.67922e-06 0)
(0.0322065 -4.16278e-06 0)
(0.0322062 -4.64307e-06 0)
(0.0322059 -5.1184e-06 0)
(0.0322056 -5.5854e-06 0)
(0.0322054 -6.04423e-06 0)
(0.0322052 -6.48347e-06 0)
(0.0322051 -6.90982e-06 0)
(0.0322051 -7.29542e-06 0)
(0.0322079 -3.27454e-07 0)
(0.0322069 -7.67958e-07 0)
(0.0322068 -1.25016e-06 0)
(0.0322067 -1.73862e-06 0)
(0.0322065 -2.22842e-06 0)
(0.0322063 -2.71864e-06 0)
(0.0322061 -3.20794e-06 0)
(0.0322058 -3.69614e-06 0)
(0.0322055 -4.18172e-06 0)
(0.0322052 -4.66398e-06 0)
(0.0322049 -5.14116e-06 0)
(0.0322046 -5.60993e-06 0)
(0.0322044 -6.0704e-06 0)
(0.0322042 -6.51117e-06 0)
(0.0322041 -6.93892e-06 0)
(0.0322041 -7.32601e-06 0)
(0.0322069 -3.29007e-07 0)
(0.0322058 -7.71363e-07 0)
(0.0322058 -1.25568e-06 0)
(0.0322056 -1.74629e-06 0)
(0.0322055 -2.23819e-06 0)
(0.0322053 -2.73053e-06 0)
(0.032205 -3.22185e-06 0)
(0.0322048 -3.71207e-06 0)
(0.0322045 -4.19957e-06 0)
(0.0322042 -4.68371e-06 0)
(0.0322039 -5.16266e-06 0)
(0.0322036 -5.63311e-06 0)
(0.0322034 -6.0952e-06 0)
(0.0322032 -6.53749e-06 0)
(0.0322031 -6.96668e-06 0)
(0.0322031 -7.35528e-06 0)
(0.0322059 -3.30465e-07 0)
(0.0322048 -7.74586e-07 0)
(0.0322047 -1.26091e-06 0)
(0.0322046 -1.75356e-06 0)
(0.0322045 -2.24745e-06 0)
(0.0322043 -2.74179e-06 0)
(0.032204 -3.23503e-06 0)
(0.0322038 -3.72718e-06 0)
(0.0322035 -4.21651e-06 0)
(0.0322032 -4.70245e-06 0)
(0.0322029 -5.18312e-06 0)
(0.0322026 -5.65521e-06 0)
(0.0322023 -6.11892e-06 0)
(0.0322022 -6.5627e-06 0)
(0.0322021 -6.99335e-06 0)
(0.0322021 -7.38349e-06 0)
(0.0322049 -3.31845e-07 0)
(0.0322038 -7.77653e-07 0)
(0.0322037 -1.26589e-06 0)
(0.0322036 -1.76048e-06 0)
(0.0322035 -2.25626e-06 0)
(0.0322033 -2.75252e-06 0)
(0.032203 -3.2476e-06 0)
(0.0322028 -3.7416e-06 0)
(0.0322025 -4.23268e-06 0)
(0.0322022 -4.72037e-06 0)
(0.0322019 -5.20271e-06 0)
(0.0322016 -5.67645e-06 0)
(0.0322013 -6.14175e-06 0)
(0.0322011 -6.58707e-06 0)
(0.032201 -7.01918e-06 0)
(0.0322011 -7.41085e-06 0)
(0.0322039 -3.33158e-07 0)
(0.0322028 -7.80597e-07 0)
(0.0322027 -1.27066e-06 0)
(0.0322026 -1.76712e-06 0)
(0.0322024 -2.26473e-06 0)
(0.0322022 -2.76283e-06 0)
(0.032202 -3.25969e-06 0)
(0.0322017 -3.75548e-06 0)
(0.0322014 -4.24827e-06 0)
(0.0322012 -4.73768e-06 0)
(0.0322008 -5.22165e-06 0)
(0.0322006 -5.69703e-06 0)
(0.0322003 -6.16388e-06 0)
(0.0322001 -6.61077e-06 0)
(0.0322 -7.04434e-06 0)
(0.0322 -7.43753e-06 0)
(0.0322028 -3.34419e-07 0)
(0.0322018 -7.83428e-07 0)
(0.0322017 -1.27526e-06 0)
(0.0322016 -1.77351e-06 0)
(0.0322014 -2.27288e-06 0)
(0.0322012 -2.77276e-06 0)
(0.032201 -3.27134e-06 0)
(0.0322007 -3.76886e-06 0)
(0.0322004 -4.26332e-06 0)
(0.0322001 -4.75441e-06 0)
(0.0321998 -5.23998e-06 0)
(0.0321995 -5.71697e-06 0)
(0.0321993 -6.18537e-06 0)
(0.0321991 -6.63377e-06 0)
(0.032199 -7.06885e-06 0)
(0.032199 -7.46356e-06 0)
(0.0322018 -3.35631e-07 0)
(0.0322008 -7.86174e-07 0)
(0.0322007 -1.27972e-06 0)
(0.0322006 -1.77971e-06 0)
(0.0322004 -2.2808e-06 0)
(0.0322002 -2.78241e-06 0)
(0.0322 -3.28266e-06 0)
(0.0321997 -3.78189e-06 0)
(0.0321994 -4.27798e-06 0)
(0.0321991 -4.77074e-06 0)
(0.0321988 -5.25789e-06 0)
(0.0321985 -5.7365e-06 0)
(0.0321982 -6.20645e-06 0)
(0.032198 -6.65642e-06 0)
(0.0321979 -7.09298e-06 0)
(0.032198 -7.48917e-06 0)
(0.0322008 -3.36807e-07 0)
(0.0321997 -7.88849e-07 0)
(0.0321997 -1.28406e-06 0)
(0.0321995 -1.78576e-06 0)
(0.0321994 -2.28852e-06 0)
(0.0321992 -2.79183e-06 0)
(0.0321989 -3.29373e-06 0)
(0.0321987 -3.79463e-06 0)
(0.0321984 -4.29233e-06 0)
(0.0321981 -4.78672e-06 0)
(0.0321977 -5.27543e-06 0)
(0.0321975 -5.75563e-06 0)
(0.0321972 -6.22707e-06 0)
(0.032197 -6.67854e-06 0)
(0.0321969 -7.11653e-06 0)
(0.0321969 -7.51419e-06 0)
(0.0321998 -3.37952e-07 0)
(0.0321987 -7.91459e-07 0)
(0.0321986 -1.2883e-06 0)
(0.0321985 -1.79166e-06 0)
(0.0321983 -2.29605e-06 0)
(0.0321981 -2.80103e-06 0)
(0.0321979 -3.30454e-06 0)
(0.0321976 -3.80708e-06 0)
(0.0321973 -4.30637e-06 0)
(0.032197 -4.80236e-06 0)
(0.0321967 -5.29262e-06 0)
(0.0321964 -5.77435e-06 0)
(0.0321962 -6.2473e-06 0)
(0.032196 -6.70018e-06 0)
(0.0321959 -7.1396e-06 0)
(0.0321959 -7.53872e-06 0)
(0.0321987 -3.3907e-07 0)
(0.0321977 -7.94015e-07 0)
(0.0321976 -1.29245e-06 0)
(0.0321975 -1.79744e-06 0)
(0.0321973 -2.30344e-06 0)
(0.0321971 -2.81004e-06 0)
(0.0321969 -3.31514e-06 0)
(0.0321966 -3.8193e-06 0)
(0.0321963 -4.32014e-06 0)
(0.032196 -4.81772e-06 0)
(0.0321957 -5.30949e-06 0)
(0.0321954 -5.79276e-06 0)
(0.0321951 -6.26718e-06 0)
(0.0321949 -6.7215e-06 0)
(0.0321948 -7.16234e-06 0)
(0.0321949 -7.5629e-06 0)
(0.0321977 -3.40164e-07 0)
(0.0321966 -7.96522e-07 0)
(0.0321966 -1.29653e-06 0)
(0.0321964 -1.80311e-06 0)
(0.0321963 -2.31069e-06 0)
(0.0321961 -2.8189e-06 0)
(0.0321958 -3.32556e-06 0)
(0.0321956 -3.83131e-06 0)
(0.0321952 -4.33369e-06 0)
(0.0321949 -4.83283e-06 0)
(0.0321946 -5.3261e-06 0)
(0.0321943 -5.81089e-06 0)
(0.0321941 -6.28677e-06 0)
(0.0321939 -6.74252e-06 0)
(0.0321938 -7.18478e-06 0)
(0.0321938 -7.58674e-06 0)
(0.0321967 -3.41237e-07 0)
(0.0321956 -7.98985e-07 0)
(0.0321955 -1.30053e-06 0)
(0.0321954 -1.80869e-06 0)
(0.0321952 -2.31782e-06 0)
(0.032195 -2.82761e-06 0)
(0.0321948 -3.33581e-06 0)
(0.0321945 -3.84312e-06 0)
(0.0321942 -4.34702e-06 0)
(0.0321939 -4.84771e-06 0)
(0.0321936 -5.34247e-06 0)
(0.0321933 -5.82877e-06 0)
(0.032193 -6.3061e-06 0)
(0.0321928 -6.76326e-06 0)
(0.0321927 -7.20693e-06 0)
(0.0321928 -7.61027e-06 0)
(0.0321956 -3.42292e-07 0)
(0.0321946 -8.01404e-07 0)
(0.0321945 -1.30446e-06 0)
(0.0321944 -1.81416e-06 0)
(0.0321942 -2.32483e-06 0)
(0.032194 -2.83617e-06 0)
(0.0321937 -3.34589e-06 0)
(0.0321935 -3.85475e-06 0)
(0.0321932 -4.36015e-06 0)
(0.0321929 -4.86238e-06 0)
(0.0321925 -5.35859e-06 0)
(0.0321922 -5.84642e-06 0)
(0.032192 -6.32513e-06 0)
(0.0321918 -6.7837e-06 0)
(0.0321917 -7.22873e-06 0)
(0.0321917 -7.63347e-06 0)
(0.0321946 -3.43327e-07 0)
(0.0321935 -8.0378e-07 0)
(0.0321934 -1.30832e-06 0)
(0.0321933 -1.81954e-06 0)
(0.0321931 -2.33171e-06 0)
(0.0321929 -2.84458e-06 0)
(0.0321927 -3.3558e-06 0)
(0.0321924 -3.86619e-06 0)
(0.0321921 -4.37307e-06 0)
(0.0321918 -4.87682e-06 0)
(0.0321915 -5.37448e-06 0)
(0.0321912 -5.8638e-06 0)
(0.0321909 -6.34388e-06 0)
(0.0321907 -6.80385e-06 0)
(0.0321906 -7.25019e-06 0)
(0.0321907 -7.65634e-06 0)
(0.0321936 -3.44344e-07 0)
(0.0321925 -8.06108e-07 0)
(0.0321924 -1.31211e-06 0)
(0.0321923 -1.82482e-06 0)
(0.0321921 -2.33846e-06 0)
(0.0321919 -2.85284e-06 0)
(0.0321916 -3.36552e-06 0)
(0.0321914 -3.87742e-06 0)
(0.0321911 -4.38577e-06 0)
(0.0321907 -4.891e-06 0)
(0.0321904 -5.39011e-06 0)
(0.0321901 -5.88087e-06 0)
(0.0321899 -6.36237e-06 0)
(0.0321897 -6.82372e-06 0)
(0.0321896 -7.27138e-06 0)
(0.0321896 -7.67894e-06 0)
(0.0321925 -3.45341e-07 0)
(0.0321914 -8.08387e-07 0)
(0.0321913 -1.31581e-06 0)
(0.0321912 -1.82999e-06 0)
(0.032191 -2.34507e-06 0)
(0.0321908 -2.86093e-06 0)
(0.0321906 -3.37507e-06 0)
(0.0321903 -3.88845e-06 0)
(0.03219 -4.39826e-06 0)
(0.0321897 -4.90494e-06 0)
(0.0321894 -5.40551e-06 0)
(0.0321891 -5.89771e-06 0)
(0.0321888 -6.38062e-06 0)
(0.0321886 -6.84336e-06 0)
(0.0321885 -7.29237e-06 0)
(0.0321885 -7.70137e-06 0)
(0.0321915 -3.46317e-07 0)
(0.0321904 -8.1062e-07 0)
(0.0321903 -1.31944e-06 0)
(0.0321902 -1.83505e-06 0)
(0.03219 -2.35156e-06 0)
(0.0321898 -2.86886e-06 0)
(0.0321895 -3.38444e-06 0)
(0.0321893 -3.89927e-06 0)
(0.0321889 -4.41053e-06 0)
(0.0321886 -4.91867e-06 0)
(0.0321883 -5.4207e-06 0)
(0.032188 -5.91434e-06 0)
(0.0321877 -6.3987e-06 0)
(0.0321875 -6.86285e-06 0)
(0.0321874 -7.31327e-06 0)
(0.0321875 -7.72369e-06 0)
(0.0321904 -3.47272e-07 0)
(0.0321893 -8.1281e-07 0)
(0.0321892 -1.323e-06 0)
(0.0321891 -1.84001e-06 0)
(0.0321889 -2.35793e-06 0)
(0.0321887 -2.87666e-06 0)
(0.0321885 -3.39366e-06 0)
(0.0321882 -3.90994e-06 0)
(0.0321879 -4.42264e-06 0)
(0.0321876 -4.93225e-06 0)
(0.0321872 -5.43573e-06 0)
(0.0321869 -5.93085e-06 0)
(0.0321867 -6.41666e-06 0)
(0.0321865 -6.88229e-06 0)
(0.0321864 -7.33408e-06 0)
(0.0321864 -7.74591e-06 0)
(0.0321894 -3.48209e-07 0)
(0.0321883 -8.14952e-07 0)
(0.0321882 -1.32649e-06 0)
(0.0321881 -1.84488e-06 0)
(0.0321879 -2.36417e-06 0)
(0.0321877 -2.88432e-06 0)
(0.0321874 -3.40272e-06 0)
(0.0321871 -3.92045e-06 0)
(0.0321868 -4.43458e-06 0)
(0.0321865 -4.94565e-06 0)
(0.0321862 -5.4506e-06 0)
(0.0321859 -5.94718e-06 0)
(0.0321856 -6.43445e-06 0)
(0.0321854 -6.90151e-06 0)
(0.0321853 -7.35467e-06 0)
(0.0321853 -7.76791e-06 0)
(0.0321883 -3.49126e-07 0)
(0.0321872 -8.17039e-07 0)
(0.0321871 -1.3299e-06 0)
(0.032187 -1.84964e-06 0)
(0.0321868 -2.37029e-06 0)
(0.0321866 -2.89183e-06 0)
(0.0321863 -3.41162e-06 0)
(0.0321861 -3.93076e-06 0)
(0.0321858 -4.44633e-06 0)
(0.0321854 -4.95885e-06 0)
(0.0321851 -5.46525e-06 0)
(0.0321848 -5.9633e-06 0)
(0.0321845 -6.45201e-06 0)
(0.0321843 -6.92049e-06 0)
(0.0321842 -7.37504e-06 0)
(0.0321843 -7.78971e-06 0)
(0.0321872 -3.50018e-07 0)
(0.0321862 -8.19071e-07 0)
(0.0321861 -1.33323e-06 0)
(0.0321859 -1.8543e-06 0)
(0.0321857 -2.37628e-06 0)
(0.0321855 -2.89919e-06 0)
(0.0321853 -3.42036e-06 0)
(0.032185 -3.94091e-06 0)
(0.0321847 -4.45788e-06 0)
(0.0321844 -4.97185e-06 0)
(0.032184 -5.47969e-06 0)
(0.0321837 -5.97921e-06 0)
(0.0321834 -6.46938e-06 0)
(0.0321833 -6.93931e-06 0)
(0.0321831 -7.39528e-06 0)
(0.0321832 -7.81139e-06 0)
(0.0321862 -3.50885e-07 0)
(0.0321851 -8.21071e-07 0)
(0.032185 -1.3365e-06 0)
(0.0321849 -1.85888e-06 0)
(0.0321847 -2.38218e-06 0)
(0.0321845 -2.90644e-06 0)
(0.0321842 -3.42896e-06 0)
(0.0321839 -3.95089e-06 0)
(0.0321836 -4.46927e-06 0)
(0.0321833 -4.98467e-06 0)
(0.032183 -5.49396e-06 0)
(0.0321827 -5.99494e-06 0)
(0.0321824 -6.48657e-06 0)
(0.0321822 -6.95797e-06 0)
(0.0321821 -7.41537e-06 0)
(0.0321821 -7.83291e-06 0)
(0.0321851 -3.5174e-07 0)
(0.032184 -8.23029e-07 0)
(0.0321839 -1.3397e-06 0)
(0.0321838 -1.86339e-06 0)
(0.0321836 -2.38797e-06 0)
(0.0321834 -2.91357e-06 0)
(0.0321831 -3.43742e-06 0)
(0.0321829 -3.96072e-06 0)
(0.0321825 -4.48049e-06 0)
(0.0321822 -4.9973e-06 0)
(0.0321819 -5.50802e-06 0)
(0.0321816 -6.01046e-06 0)
(0.0321813 -6.50355e-06 0)
(0.0321811 -6.97642e-06 0)
(0.032181 -7.43523e-06 0)
(0.032181 -7.85424e-06 0)
(0.0321841 -3.52581e-07 0)
(0.032183 -8.24965e-07 0)
(0.0321829 -1.34286e-06 0)
(0.0321827 -1.86784e-06 0)
(0.0321825 -2.39368e-06 0)
(0.0321823 -2.92059e-06 0)
(0.0321821 -3.44576e-06 0)
(0.0321818 -3.97041e-06 0)
(0.0321815 -4.49155e-06 0)
(0.0321811 -5.00976e-06 0)
(0.0321808 -5.5219e-06 0)
(0.0321805 -6.0258e-06 0)
(0.0321802 -6.52032e-06 0)
(0.03218 -6.99467e-06 0)
(0.0321799 -7.4549e-06 0)
(0.0321799 -7.87539e-06 0)
(0.032183 -3.53412e-07 0)
(0.0321819 -8.26912e-07 0)
(0.0321818 -1.34602e-06 0)
(0.0321817 -1.87225e-06 0)
(0.0321815 -2.39935e-06 0)
(0.0321813 -2.92755e-06 0)
(0.032181 -3.45402e-06 0)
(0.0321807 -3.97999e-06 0)
(0.0321804 -4.50249e-06 0)
(0.0321801 -5.02208e-06 0)
(0.0321797 -5.53561e-06 0)
(0.0321794 -6.04095e-06 0)
(0.0321791 -6.5369e-06 0)
(0.0321789 -7.01272e-06 0)
(0.0321788 -7.47437e-06 0)
(0.0321788 -7.89638e-06 0)
(0.0321819 -3.54245e-07 0)
(0.0321808 -8.28855e-07 0)
(0.0321807 -1.34918e-06 0)
(0.0321806 -1.87666e-06 0)
(0.0321804 -2.40501e-06 0)
(0.0321802 -2.93447e-06 0)
(0.0321799 -3.46224e-06 0)
(0.0321796 -3.98951e-06 0)
(0.0321793 -4.51335e-06 0)
(0.032179 -5.03429e-06 0)
(0.0321786 -5.54921e-06 0)
(0.0321783 -6.05598e-06 0)
(0.032178 -6.55334e-06 0)
(0.0321778 -7.03065e-06 0)
(0.0321777 -7.49371e-06 0)
(0.0321777 -7.9173e-06 0)
(0.0321808 -3.55075e-07 0)
(0.0321797 -8.30824e-07 0)
(0.0321796 -1.35238e-06 0)
(0.0321795 -1.88111e-06 0)
(0.0321793 -2.41073e-06 0)
(0.0321791 -2.94145e-06 0)
(0.0321788 -3.47052e-06 0)
(0.0321785 -3.99907e-06 0)
(0.0321782 -4.52424e-06 0)
(0.0321779 -5.04652e-06 0)
(0.0321775 -5.56281e-06 0)
(0.0321772 -6.071e-06 0)
(0.0321769 -6.56978e-06 0)
(0.0321767 -7.04859e-06 0)
(0.0321766 -7.51309e-06 0)
(0.0321766 -7.93828e-06 0)
(0.0321798 -3.55917e-07 0)
(0.0321787 -8.3285e-07 0)
(0.0321786 -1.35566e-06 0)
(0.0321784 -1.88568e-06 0)
(0.0321782 -2.41659e-06 0)
(0.032178 -2.94857e-06 0)
(0.0321778 -3.47894e-06 0)
(0.0321775 -4.00876e-06 0)
(0.0321771 -4.53527e-06 0)
(0.0321768 -5.05885e-06 0)
(0.0321764 -5.57652e-06 0)
(0.0321761 -6.0861e-06 0)
(0.0321758 -6.58631e-06 0)
(0.0321756 -7.06661e-06 0)
(0.0321755 -7.5326e-06 0)
(0.0321755 -7.95947e-06 0)
(0.0321787 -3.56783e-07 0)
(0.0321776 -8.34978e-07 0)
(0.0321775 -1.35911e-06 0)
(0.0321774 -1.89047e-06 0)
(0.0321772 -2.42271e-06 0)
(0.0321769 -2.95599e-06 0)
(0.0321767 -3.48769e-06 0)
(0.0321764 -4.01879e-06 0)
(0.032176 -4.54663e-06 0)
(0.0321757 -5.07151e-06 0)
(0.0321754 -5.59055e-06 0)
(0.032175 -6.10153e-06 0)
(0.0321747 -6.60321e-06 0)
(0.0321745 -7.08504e-06 0)
(0.0321744 -7.55257e-06 0)
(0.0321744 -7.98116e-06 0)
(0.0321776 -3.57692e-07 0)
(0.0321765 -8.37284e-07 0)
(0.0321764 -1.36284e-06 0)
(0.0321763 -1.89562e-06 0)
(0.0321761 -2.42928e-06 0)
(0.0321759 -2.96392e-06 0)
(0.0321756 -3.497e-06 0)
(0.0321753 -4.02941e-06 0)
(0.0321749 -4.55859e-06 0)
(0.0321746 -5.08479e-06 0)
(0.0321743 -5.60521e-06 0)
(0.0321739 -6.1176e-06 0)
(0.0321736 -6.62072e-06 0)
(0.0321734 -7.10414e-06 0)
(0.0321733 -7.57318e-06 0)
(0.0321733 -8.0035e-06 0)
(0.0321765 -3.58677e-07 0)
(0.0321754 -8.39838e-07 0)
(0.0321753 -1.36696e-06 0)
(0.0321752 -1.90131e-06 0)
(0.032175 -2.43652e-06 0)
(0.0321748 -2.97261e-06 0)
(0.0321745 -3.50715e-06 0)
(0.0321742 -4.04094e-06 0)
(0.0321739 -4.57149e-06 0)
(0.0321735 -5.09899e-06 0)
(0.0321732 -5.6208e-06 0)
(0.0321728 -6.13457e-06 0)
(0.0321725 -6.63911e-06 0)
(0.0321723 -7.12407e-06 0)
(0.0321722 -7.59457e-06 0)
(0.0321722 -8.02669e-06 0)
(0.0321755 -3.59769e-07 0)
(0.0321743 -8.42736e-07 0)
(0.0321742 -1.37163e-06 0)
(0.0321741 -1.90772e-06 0)
(0.0321739 -2.44466e-06 0)
(0.0321737 -2.98234e-06 0)
(0.0321734 -3.51847e-06 0)
(0.0321731 -4.05369e-06 0)
(0.0321728 -4.58564e-06 0)
(0.0321724 -5.11445e-06 0)
(0.0321721 -5.63766e-06 0)
(0.0321717 -6.15276e-06 0)
(0.0321714 -6.65871e-06 0)
(0.0321712 -7.14515e-06 0)
(0.0321711 -7.61713e-06 0)
(0.0321711 -8.05111e-06 0)
(0.0321744 -3.61007e-07 0)
(0.0321733 -8.46123e-07 0)
(0.0321732 -1.37705e-06 0)
(0.032173 -1.91515e-06 0)
(0.0321728 -2.45409e-06 0)
(0.0321726 -2.99353e-06 0)
(0.0321723 -3.53144e-06 0)
(0.032172 -4.06817e-06 0)
(0.0321717 -4.60165e-06 0)
(0.0321713 -5.1318e-06 0)
(0.0321709 -5.65637e-06 0)
(0.0321706 -6.1728e-06 0)
(0.0321703 -6.6801e-06 0)
(0.0321701 -7.16803e-06 0)
(0.03217 -7.64147e-06 0)
(0.03217 -8.07732e-06 0)
(0.0321733 -3.62455e-07 0)
(0.0321722 -8.50139e-07 0)
(0.0321721 -1.38349e-06 0)
(0.0321719 -1.92395e-06 0)
(0.0321717 -2.4652e-06 0)
(0.0321715 -3.00667e-06 0)
(0.0321712 -3.54658e-06 0)
(0.0321709 -4.08498e-06 0)
(0.0321706 -4.62009e-06 0)
(0.0321702 -5.15165e-06 0)
(0.0321698 -5.67753e-06 0)
(0.0321695 -6.1953e-06 0)
(0.0321692 -6.70379e-06 0)
(0.032169 -7.19326e-06 0)
(0.0321688 -7.66817e-06 0)
(0.0321689 -8.10588e-06 0)
(0.0321722 -3.64174e-07 0)
(0.0321711 -8.54956e-07 0)
(0.032171 -1.39126e-06 0)
(0.0321708 -1.93453e-06 0)
(0.0321706 -2.47849e-06 0)
(0.0321704 -3.02237e-06 0)
(0.0321701 -3.56458e-06 0)
(0.0321698 -4.10488e-06 0)
(0.0321695 -4.64178e-06 0)
(0.0321691 -5.17483e-06 0)
(0.0321687 -5.70203e-06 0)
(0.0321684 -6.22113e-06 0)
(0.0321681 -6.7307e-06 0)
(0.0321679 -7.22166e-06 0)
(0.0321677 -7.69797e-06 0)
(0.0321677 -8.13757e-06 0)
(0.0321711 -3.66241e-07 0)
(0.03217 -8.60799e-07 0)
(0.0321699 -1.40067e-06 0)
(0.0321697 -1.94735e-06 0)
(0.0321695 -2.49458e-06 0)
(0.0321693 -3.04134e-06 0)
(0.032169 -3.58625e-06 0)
(0.0321687 -4.12876e-06 0)
(0.0321684 -4.66769e-06 0)
(0.032168 -5.20235e-06 0)
(0.0321676 -5.73093e-06 0)
(0.0321673 -6.25133e-06 0)
(0.032167 -6.76188e-06 0)
(0.0321667 -7.25421e-06 0)
(0.0321666 -7.73174e-06 0)
(0.0321666 -8.17324e-06 0)
(0.03217 -3.68748e-07 0)
(0.0321689 -8.67912e-07 0)
(0.0321688 -1.41212e-06 0)
(0.0321686 -1.96295e-06 0)
(0.0321684 -2.51415e-06 0)
(0.0321682 -3.06439e-06 0)
(0.0321679 -3.61258e-06 0)
(0.0321676 -4.1577e-06 0)
(0.0321673 -4.69902e-06 0)
(0.0321669 -5.23543e-06 0)
(0.0321665 -5.76555e-06 0)
(0.0321662 -6.28711e-06 0)
(0.0321658 -6.79864e-06 0)
(0.0321656 -7.29221e-06 0)
(0.0321654 -7.77073e-06 0)
(0.0321654 -8.21409e-06 0)
(0.0321689 -3.71801e-07 0)
(0.0321678 -8.76564e-07 0)
(0.0321677 -1.42607e-06 0)
(0.0321675 -1.98195e-06 0)
(0.0321673 -2.538e-06 0)
(0.0321671 -3.09251e-06 0)
(0.0321668 -3.64468e-06 0)
(0.0321665 -4.193e-06 0)
(0.0321661 -4.7372e-06 0)
(0.0321658 -5.27562e-06 0)
(0.0321654 -5.8075e-06 0)
(0.032165 -6.33015e-06 0)
(0.0321647 -6.84262e-06 0)
(0.0321645 -7.33718e-06 0)
(0.0321643 -7.81643e-06 0)
(0.0321643 -8.2615e-06 0)
(0.0321678 -3.75514e-07 0)
(0.0321667 -8.87037e-07 0)
(0.0321666 -1.44295e-06 0)
(0.0321664 -2.005e-06 0)
(0.0321662 -2.56696e-06 0)
(0.032166 -3.12673e-06 0)
(0.0321657 -3.68379e-06 0)
(0.0321654 -4.23606e-06 0)
(0.032165 -4.78382e-06 0)
(0.0321647 -5.32469e-06 0)
(0.0321643 -5.85867e-06 0)
(0.0321639 -6.38241e-06 0)
(0.0321636 -6.89575e-06 0)
(0.0321633 -7.39096e-06 0)
(0.0321632 -7.87065e-06 0)
(0.0321631 -8.31718e-06 0)
(0.0321667 -3.80008e-07 0)
(0.0321655 -8.99619e-07 0)
(0.0321654 -1.46327e-06 0)
(0.0321653 -2.03277e-06 0)
(0.0321651 -2.60193e-06 0)
(0.0321649 -3.16816e-06 0)
(0.0321646 -3.73126e-06 0)
(0.0321643 -4.28849e-06 0)
(0.0321639 -4.8407e-06 0)
(0.0321635 -5.38467e-06 0)
(0.0321631 -5.92128e-06 0)
(0.0321628 -6.44627e-06 0)
(0.0321624 -6.96048e-06 0)
(0.0321622 -7.45601e-06 0)
(0.032162 -7.93579e-06 0)
(0.032162 -8.3834e-06 0)
(0.0321656 -3.85408e-07 0)
(0.0321644 -9.14568e-07 0)
(0.0321643 -1.48743e-06 0)
(0.0321642 -2.06588e-06 0)
(0.032164 -2.64371e-06 0)
(0.0321637 -3.21787e-06 0)
(0.0321634 -3.7884e-06 0)
(0.0321631 -4.35189e-06 0)
(0.0321628 -4.90977e-06 0)
(0.0321624 -5.4578e-06 0)
(0.032162 -5.99784e-06 0)
(0.0321617 -6.52449e-06 0)
(0.0321613 -7.03977e-06 0)
(0.032161 -7.53532e-06 0)
(0.0321609 -8.0148e-06 0)
(0.0321608 -8.46295e-06 0)
(0.0321644 -3.91822e-07 0)
(0.0321632 -9.32085e-07 0)
(0.0321631 -1.51579e-06 0)
(0.032163 -2.10486e-06 0)
(0.0321628 -2.69302e-06 0)
(0.0321626 -3.27679e-06 0)
(0.0321623 -3.85644e-06 0)
(0.032162 -4.42784e-06 0)
(0.0321616 -4.99295e-06 0)
(0.0321613 -5.54644e-06 0)
(0.0321609 -6.09119e-06 0)
(0.0321605 -6.62031e-06 0)
(0.0321602 -7.1372e-06 0)
(0.0321599 -7.63255e-06 0)
(0.0321597 -8.11127e-06 0)
(0.0321596 -8.55904e-06 0)
(0.0321633 -3.99337e-07 0)
(0.0321621 -9.52261e-07 0)
(0.032162 -1.54851e-06 0)
(0.0321618 -2.14996e-06 0)
(0.0321616 -2.75029e-06 0)
(0.0321614 -3.34556e-06 0)
(0.0321612 -3.93625e-06 0)
(0.0321608 -4.51757e-06 0)
(0.0321605 -5.09191e-06 0)
(0.0321601 -5.65284e-06 0)
(0.0321597 -6.20413e-06 0)
(0.0321594 -6.73725e-06 0)
(0.032159 -7.25706e-06 0)
(0.0321588 -7.75248e-06 0)
(0.0321585 -8.23014e-06 0)
(0.0321585 -8.67609e-06 0)
(0.0321621 -4.07991e-07 0)
(0.0321609 -9.75028e-07 0)
(0.0321608 -1.5855e-06 0)
(0.0321606 -2.2011e-06 0)
(0.0321605 -2.81546e-06 0)
(0.0321602 -3.42427e-06 0)
(0.03216 -4.02813e-06 0)
(0.0321597 -4.6217e-06 0)
(0.0321593 -5.20772e-06 0)
(0.032159 -5.77874e-06 0)
(0.0321586 -6.3393e-06 0)
(0.0321582 -6.8792e-06 0)
(0.0321579 -7.4048e-06 0)
(0.0321576 -7.90241e-06 0)
(0.0321574 -8.38065e-06 0)
(0.0321573 -8.82449e-06 0)
(0.0321609 -4.17754e-07 0)
(0.0321596 -1.00013e-06 0)
(0.0321596 -1.62636e-06 0)
(0.0321594 -2.25777e-06 0)
(0.0321592 -2.88794e-06 0)
(0.032159 -3.5123e-06 0)
(0.0321588 -4.13152e-06 0)
(0.0321585 -4.73987e-06 0)
(0.0321582 -5.34038e-06 0)
(0.0321578 -5.9247e-06 0)
(0.0321574 -6.49826e-06 0)
(0.0321571 -7.04904e-06 0)
(0.0321567 -7.58539e-06 0)
(0.0321565 -8.09057e-06 0)
(0.0321562 -8.57591e-06 0)
(0.0321561 -9.0234e-06 0)
(0.0321597 -4.28516e-07 0)
(0.0321584 -1.02706e-06 0)
(0.0321583 -1.67028e-06 0)
(0.0321582 -2.31887e-06 0)
(0.032158 -2.96638e-06 0)
(0.0321578 -3.60807e-06 0)
(0.0321576 -4.24467e-06 0)
(0.0321573 -4.87021e-06 0)
(0.032157 -5.48794e-06 0)
(0.0321566 -6.08881e-06 0)
(0.0321563 -6.6792e-06 0)
(0.0321559 -7.24527e-06 0)
(0.0321556 -7.79794e-06 0)
(0.0321553 -8.31723e-06 0)
(0.0321551 -8.81878e-06 0)
(0.0321549 -9.28016e-06 0)
(0.0321584 -4.40061e-07 0)
(0.0321571 -1.05506e-06 0)
(0.032157 -1.71601e-06 0)
(0.0321569 -2.38265e-06 0)
(0.0321567 -3.04855e-06 0)
(0.0321565 -3.70891e-06 0)
(0.0321563 -4.36444e-06 0)
(0.032156 -5.00911e-06 0)
(0.0321557 -5.6463e-06 0)
(0.0321554 -6.26637e-06 0)
(0.0321551 -6.87661e-06 0)
(0.0321547 -7.46123e-06 0)
(0.0321544 -8.03378e-06 0)
(0.0321541 -8.57025e-06 0)
(0.0321539 -9.09085e-06 0)
(0.0321538 -9.56683e-06 0)
(0.0321571 -4.52058e-07 0)
(0.0321558 -1.08308e-06 0)
(0.0321557 -1.76187e-06 0)
(0.0321556 -2.44678e-06 0)
(0.0321554 -3.13143e-06 0)
(0.0321552 -3.81112e-06 0)
(0.032155 -4.48643e-06 0)
(0.0321548 -5.15147e-06 0)
(0.0321545 -5.80964e-06 0)
(0.0321542 -6.45078e-06 0)
(0.0321538 -7.08306e-06 0)
(0.0321535 -7.68855e-06 0)
(0.0321532 -8.28326e-06 0)
(0.0321529 -8.83852e-06 0)
(0.0321527 -9.37921e-06 0)
(0.0321526 -9.86906e-06 0)
(0.0321558 -4.64065e-07 0)
(0.0321544 -1.10985e-06 0)
(0.0321543 -1.80574e-06 0)
(0.0321542 -2.50834e-06 0)
(0.0321541 -3.21126e-06 0)
(0.0321539 -3.91004e-06 0)
(0.0321537 -4.6051e-06 0)
(0.0321534 -5.29084e-06 0)
(0.0321532 -5.9705e-06 0)
(0.0321529 -6.63371e-06 0)
(0.0321526 -7.28908e-06 0)
(0.0321523 -7.91677e-06 0)
(0.032152 -8.53496e-06 0)
(0.0321518 -9.10972e-06 0)
(0.0321516 -9.6709e-06 0)
(0.0321514 -1.01739e-05 0)
(0.0321544 -4.7553e-07 0)
(0.032153 -1.13389e-06 0)
(0.0321529 -1.84519e-06 0)
(0.0321528 -2.56393e-06 0)
(0.0321527 -3.28364e-06 0)
(0.0321525 -4.00021e-06 0)
(0.0321523 -4.71388e-06 0)
(0.0321521 -5.41956e-06 0)
(0.0321518 -6.12009e-06 0)
(0.0321516 -6.80529e-06 0)
(0.0321513 -7.48374e-06 0)
(0.032151 -8.13416e-06 0)
(0.0321508 -8.77645e-06 0)
(0.0321506 -9.37095e-06 0)
(0.0321504 -9.95308e-06 0)
(0.0321503 -1.04685e-05 0)
(0.032153 -4.85819e-07 0)
(0.0321516 -1.15357e-06 0)
(0.0321515 -1.87758e-06 0)
(0.0321514 -2.60978e-06 0)
(0.0321513 -3.34363e-06 0)
(0.0321511 -4.07551e-06 0)
(0.0321509 -4.80538e-06 0)
(0.0321507 -5.52893e-06 0)
(0.0321505 -6.24833e-06 0)
(0.0321502 -6.95417e-06 0)
(0.03215 -7.65438e-06 0)
(0.0321497 -8.32719e-06 0)
(0.0321495 -8.9935e-06 0)
(0.0321493 -9.6079e-06 0)
(0.0321492 -1.02124e-05 0)
(0.0321491 -1.07392e-05 0)
(0.0321516 -4.9424e-07 0)
(0.0321501 -1.16721e-06 0)
(0.0321501 -1.90013e-06 0)
(0.03215 -2.64194e-06 0)
(0.0321498 -3.38607e-06 0)
(0.0321497 -4.12945e-06 0)
(0.0321495 -4.87169e-06 0)
(0.0321493 -5.60949e-06 0)
(0.0321491 -6.34412e-06 0)
(0.0321489 -7.06764e-06 0)
(0.0321486 -7.78657e-06 0)
(0.0321484 -8.48023e-06 0)
(0.0321482 -9.16909e-06 0)
(0.0321481 -9.80364e-06 0)
(0.032148 -1.04326e-05 0)
(0.032148 -1.097e-05 0)
(0.0321501 -5.00071e-07 0)
(0.0321486 -1.17328e-06 0)
(0.0321486 -1.91031e-06 0)
(0.0321485 -2.65682e-06 0)
(0.0321484 -3.40621e-06 0)
(0.0321482 -4.15601e-06 0)
(0.0321481 -4.9054e-06 0)
(0.0321479 -5.65229e-06 0)
(0.0321477 -6.3968e-06 0)
(0.0321475 -7.13317e-06 0)
(0.0321473 -7.86572e-06 0)
(0.0321471 -8.57652e-06 0)
(0.032147 -9.28354e-06 0)
(0.0321469 -9.93719e-06 0)
(0.0321469 -1.05891e-05 0)
(0.0321469 -1.11338e-05 0)
(0.0321487 -5.02656e-07 0)
(0.0321471 -1.17061e-06 0)
(0.0321471 -1.90618e-06 0)
(0.032147 -2.65168e-06 0)
(0.0321469 -3.40046e-06 0)
(0.0321467 -4.15061e-06 0)
(0.0321466 -4.90078e-06 0)
(0.0321464 -5.65007e-06 0)
(0.0321462 -6.39725e-06 0)
(0.0321461 -7.139e-06 0)
(0.0321459 -7.87653e-06 0)
(0.0321458 -8.59601e-06 0)
(0.0321457 -9.31044e-06 0)
(0.0321456 -9.9761e-06 0)
(0.0321457 -1.06385e-05 0)
(0.0321459 -1.11839e-05 0)
(0.0321472 -5.01495e-07 0)
(0.0321456 -1.15735e-06 0)
(0.0321456 -1.8847e-06 0)
(0.0321455 -2.62216e-06 0)
(0.0321454 -3.36301e-06 0)
(0.0321453 -4.1057e-06 0)
(0.0321451 -4.84832e-06 0)
(0.032145 -5.59073e-06 0)
(0.0321448 -6.33021e-06 0)
(0.0321446 -7.06529e-06 0)
(0.0321445 -7.794e-06 0)
(0.0321444 -8.50685e-06 0)
(0.0321444 -9.2105e-06 0)
(0.0321444 -9.87031e-06 0)
(0.0321446 -1.05212e-05 0)
(0.0321448 -1.10586e-05 0)
(0.0321456 -4.95804e-07 0)
(0.0321441 -1.13065e-06 0)
(0.0321441 -1.84112e-06 0)
(0.032144 -2.56142e-06 0)
(0.0321439 -3.28474e-06 0)
(0.0321438 -4.00967e-06 0)
(0.0321437 -4.7336e-06 0)
(0.0321435 -5.45686e-06 0)
(0.0321434 -6.17512e-06 0)
(0.0321433 -6.88839e-06 0)
(0.0321431 -7.59151e-06 0)
(0.0321431 -8.27909e-06 0)
(0.0321431 -8.95096e-06 0)
(0.0321432 -9.58256e-06 0)
(0.0321435 -1.01961e-05 0)
(0.0321439 -1.07094e-05 0)
(0.0321441 -4.84358e-07 0)
(0.0321427 -1.08867e-06 0)
(0.0321426 -1.7724e-06 0)
(0.0321425 -2.46511e-06 0)
(0.0321425 -3.1599e-06 0)
(0.0321424 -3.85533e-06 0)
(0.0321423 -4.54803e-06 0)
(0.0321421 -5.23867e-06 0)
(0.032142 -5.92136e-06 0)
(0.0321419 -6.5975e-06 0)
(0.0321419 -7.25886e-06 0)
(0.0321418 -7.90426e-06 0)
(0.0321419 -8.52718e-06 0)
(0.0321421 -9.11468e-06 0)
(0.0321425 -9.67632e-06 0)
(0.032143 -1.01594e-05 0)
(0.0321427 -4.66375e-07 0)
(0.0321413 -1.03156e-06 0)
(0.0321412 -1.67877e-06 0)
(0.0321412 -2.33355e-06 0)
(0.0321411 -2.98889e-06 0)
(0.032141 -3.64324e-06 0)
(0.0321409 -4.29259e-06 0)
(0.0321408 -4.93787e-06 0)
(0.0321407 -5.57193e-06 0)
(0.0321407 -6.19765e-06 0)
(0.0321407 -6.80413e-06 0)
(0.0321407 -7.39479e-06 0)
(0.0321409 -7.95781e-06 0)
(0.0321411 -8.49306e-06 0)
(0.0321416 -8.99859e-06 0)
(0.0321423 -9.45315e-06 0)
(0.0321413 -4.41925e-07 0)
(0.03214 -9.61603e-07 0)
(0.03214 -1.56397e-06 0)
(0.0321399 -2.17199e-06 0)
(0.0321398 -2.77862e-06 0)
(0.0321398 -3.38213e-06 0)
(0.0321397 -3.97803e-06 0)
(0.0321396 -4.56757e-06 0)
(0.0321396 -5.14279e-06 0)
(0.0321396 -5.70819e-06 0)
(0.0321396 -6.25097e-06 0)
(0.0321397 -6.77934e-06 0)
(0.0321399 -7.27733e-06 0)
(0.0321403 -7.75745e-06 0)
(0.0321408 -8.20736e-06 0)
(0.0321415 -8.63527e-06 0)
(0.03214 -4.11982e-07 0)
(0.0321388 -8.82616e-07 0)
(0.0321388 -1.43435e-06 0)
(0.0321387 -1.98952e-06 0)
(0.0321387 -2.5411e-06 0)
(0.0321387 -3.08716e-06 0)
(0.0321386 -3.62289e-06 0)
(0.0321386 -4.14986e-06 0)
(0.0321386 -4.65983e-06 0)
(0.0321386 -5.15889e-06 0)
(0.0321387 -5.63327e-06 0)
(0.0321388 -6.09583e-06 0)
(0.0321391 -6.52776e-06 0)
(0.0321395 -6.95277e-06 0)
(0.0321401 -7.34953e-06 0)
(0.0321409 -7.75194e-06 0)
(0.0321388 -3.78183e-07 0)
(0.0321378 -7.98927e-07 0)
(0.0321378 -1.29716e-06 0)
(0.0321377 -1.79666e-06 0)
(0.0321377 -2.29045e-06 0)
(0.0321377 -2.77631e-06 0)
(0.0321377 -3.24928e-06 0)
(0.0321377 -3.71118e-06 0)
(0.0321377 -4.15384e-06 0)
(0.0321377 -4.58462e-06 0)
(0.0321379 -4.98967e-06 0)
(0.0321381 -5.38587e-06 0)
(0.0321384 -5.75313e-06 0)
(0.0321389 -6.1242e-06 0)
(0.0321395 -6.47089e-06 0)
(0.0321403 -6.84806e-06 0)
(0.0321378 -3.42374e-07 0)
(0.0321369 -7.14356e-07 0)
(0.0321369 -1.15889e-06 0)
(0.0321369 -1.60298e-06 0)
(0.0321369 -2.03971e-06 0)
(0.0321368 -2.46649e-06 0)
(0.0321369 -2.87825e-06 0)
(0.0321369 -3.27699e-06 0)
(0.032137 -3.65493e-06 0)
(0.0321371 -4.0199e-06 0)
(0.0321372 -4.35851e-06 0)
(0.0321375 -4.69052e-06 0)
(0.0321378 -4.996e-06 0)
(0.0321383 -5.31448e-06 0)
(0.0321389 -5.6137e-06 0)
(0.0321397 -5.96455e-06 0)
(0.0321369 -3.06179e-07 0)
(0.0321361 -6.31774e-07 0)
(0.0321361 -1.02437e-06 0)
(0.0321361 -1.4156e-06 0)
(0.0321361 -1.79864e-06 0)
(0.0321362 -2.17047e-06 0)
(0.0321362 -2.52596e-06 0)
(0.0321363 -2.86724e-06 0)
(0.0321364 -3.18712e-06 0)
(0.0321365 -3.49315e-06 0)
(0.0321367 -3.77262e-06 0)
(0.032137 -4.04614e-06 0)
(0.0321374 -4.29495e-06 0)
(0.0321379 -4.56268e-06 0)
(0.0321385 -4.81636e-06 0)
(0.0321392 -5.13783e-06 0)
(0.0321361 -2.70811e-07 0)
(0.0321355 -5.53445e-07 0)
(0.0321355 -8.97134e-07 0)
(0.0321355 -1.23923e-06 0)
(0.0321356 -1.57324e-06 0)
(0.0321356 -1.89601e-06 0)
(0.0321357 -2.20228e-06 0)
(0.0321358 -2.49408e-06 0)
(0.0321359 -2.76493e-06 0)
(0.0321361 -3.02166e-06 0)
(0.0321364 -3.25334e-06 0)
(0.0321367 -3.4792e-06 0)
(0.0321371 -3.68131e-06 0)
(0.0321375 -3.9034e-06 0)
(0.0321381 -4.11403e-06 0)
(0.0321388 -4.40036e-06 0)
(0.0321355 -2.37241e-07 0)
(0.032135 -4.81572e-07 0)
(0.032135 -7.8029e-07 0)
(0.0321351 -1.07719e-06 0)
(0.0321351 -1.36644e-06 0)
(0.0321352 -1.64591e-06 0)
(0.0321353 -1.91052e-06 0)
(0.0321354 -2.1615e-06 0)
(0.0321356 -2.3926e-06 0)
(0.0321358 -2.60989e-06 0)
(0.0321361 -2.80681e-06 0)
(0.0321364 -3.00067e-06 0)
(0.0321368 -3.1729e-06 0)
(0.0321373 -3.36141e-06 0)
(0.0321378 -3.53543e-06 0)
(0.0321384 -3.7796e-06 0)
(0.032135 -2.06441e-07 0)