/*--------------------------------*- C++ -*----------------------------------*\
| =========                 |                                                 |
| \\      /  F ield         | foam-extend: Open Source CFD                    |
|  \\    /   O peration     | Version:     4.1-20200408                       |
|   \\  /    A nd           | Web:         http://www.foam-extend.org         |
|    \\/     M anipulation  |                                                 |
\*---------------------------------------------------------------------------*/
FoamFile
{
    version     2.0;
    format      ascii;
    class       volVectorField;
    location    "0.0040000";
    object      DU_0;
}
// * * * * * * * * * * * * * * * * * * * * * * * * * * * * * * * * * * * * * //

dimensions      [0 1 0 0 0 0 0];

internalField   nonuniform List<vector> 
1952
(
(4.99318e-05 2.9609e-09 0)
(4.99326e-05 1.84247e-09 0)
(4.99343e-05 9.44429e-10 0)
(4.99365e-05 2.42634e-10 0)
(4.99391e-05 -2.89147e-10 0)
(4.99419e-05 -6.78442e-10 0)
(4.99449e-05 -9.51552e-10 0)
(4.99479e-05 -1.13137e-09 0)
(4.99509e-05 -1.23933e-09 0)
(4.99538e-05 -1.29217e-09 0)
(4.99565e-05 -1.30507e-09 0)
(4.99592e-05 -1.2894e-09 0)
(4.99617e-05 -1.25482e-09 0)
(4.99641e-05 -1.20856e-09 0)
(4.99663e-05 -1.15618e-09 0)
(4.99684e-05 -1.10196e-09 0)
(4.99704e-05 -1.04872e-09 0)
(4.99723e-05 -9.98713e-10 0)
(4.99741e-05 -9.53008e-10 0)
(4.99759e-05 -9.12549e-10 0)
(4.99776e-05 -8.77268e-10 0)
(4.99792e-05 -8.47224e-10 0)
(4.99809e-05 -8.21575e-10 0)
(4.99825e-05 -7.99687e-10 0)
(4.9984e-05 -7.80071e-10 0)
(4.99856e-05 -7.61423e-10 0)
(4.99872e-05 -7.41564e-10 0)
(4.99888e-05 -7.18411e-10 0)
(4.99903e-05 -6.8897e-10 0)
(4.99919e-05 -6.50216e-10 0)
(4.99935e-05 -5.98245e-10 0)
(4.9995e-05 -5.29032e-10 0)
(4.99965e-05 -4.37918e-10 0)
(4.99979e-05 -3.20207e-10 0)
(4.99993e-05 -1.71247e-10 0)
(5.00005e-05 1.31793e-11 0)
(5.00015e-05 2.35907e-10 0)
(5.00024e-05 4.98323e-10 0)
(5.0003e-05 7.98438e-10 0)
(5.00032e-05 1.13154e-09 0)
(5.00032e-05 1.48797e-09 0)
(5.00028e-05 1.85355e-09 0)
(5.0002e-05 2.21809e-09 0)
(4.99322e-05 4.73892e-09 0)
(4.99332e-05 2.93106e-09 0)
(4.99349e-05 1.48317e-09 0)
(4.99371e-05 3.5446e-10 0)
(4.99398e-05 -4.98649e-10 0)
(4.99426e-05 -1.12155e-09 0)
(4.99456e-05 -1.55721e-09 0)
(4.99485e-05 -1.84291e-09 0)
(4.99515e-05 -2.01335e-09 0)
(4.99543e-05 -2.09558e-09 0)
(4.9957e-05 -2.11405e-09 0)
(4.99596e-05 -2.08703e-09 0)
(4.9962e-05 -2.02999e-09 0)
(4.99644e-05 -1.95452e-09 0)
(4.99665e-05 -1.8695e-09 0)
(4.99686e-05 -1.78176e-09 0)
(4.99706e-05 -1.69577e-09 0)
(4.99725e-05 -1.61515e-09 0)
(4.99742e-05 -1.54155e-09 0)
(4.9976e-05 -1.47648e-09 0)
(4.99776e-05 -1.41981e-09 0)
(4.99793e-05 -1.37164e-09 0)
(4.99809e-05 -1.33058e-09 0)
(4.99824e-05 -1.29565e-09 0)
(4.9984e-05 -1.26442e-09 0)
(4.99856e-05 -1.23483e-09 0)
(4.99871e-05 -1.20337e-09 0)
(4.99887e-05 -1.1667e-09 0)
(4.99903e-05 -1.11998e-09 0)
(4.99918e-05 -1.05836e-09 0)
(4.99934e-05 -9.75492e-10 0)
(4.99949e-05 -8.6485e-10 0)
(4.99964e-05 -7.18808e-10 0)
(4.99978e-05 -5.29641e-10 0)
(4.99992e-05 -2.89607e-10 0)
(5.00004e-05 8.40816e-12 0)
(5.00014e-05 3.69362e-10 0)
(5.00023e-05 7.95924e-10 0)
(5.00029e-05 1.28527e-09 0)
(5.00032e-05 1.83008e-09 0)
(5.00032e-05 2.4148e-09 0)
(5.00028e-05 3.01642e-09 0)
(5.0002e-05 3.6201e-09 0)
(4.99329e-05 6.38355e-09 0)
(4.9934e-05 3.90561e-09 0)
(4.99357e-05 1.92991e-09 0)
(4.9938e-05 3.96389e-10 0)
(4.99407e-05 -7.57529e-10 0)
(4.99435e-05 -1.59616e-09 0)
(4.99464e-05 -2.17948e-09 0)
(4.99493e-05 -2.55925e-09 0)
(4.99521e-05 -2.7832e-09 0)
(4.99549e-05 -2.88837e-09 0)
(4.99575e-05 -2.90806e-09 0)
(4.996e-05 -2.86702e-09 0)
(4.99624e-05 -2.78621e-09 0)
(4.99647e-05 -2.6812e-09 0)
(4.99668e-05 -2.56394e-09 0)
(4.99688e-05 -2.44356e-09 0)
(4.99708e-05 -2.32602e-09 0)
(4.99726e-05 -2.21614e-09 0)
(4.99743e-05 -2.11608e-09 0)
(4.9976e-05 -2.02782e-09 0)
(4.99777e-05 -1.95115e-09 0)
(4.99793e-05 -1.88614e-09 0)
(4.99808e-05 -1.83094e-09 0)
(4.99824e-05 -1.78414e-09 0)
(4.99839e-05 -1.7425e-09 0)
(4.99855e-05 -1.70316e-09 0)
(4.9987e-05 -1.66139e-09 0)
(4.99886e-05 -1.61263e-09 0)
(4.99901e-05 -1.55029e-09 0)
(4.99917e-05 -1.46769e-09 0)
(4.99932e-05 -1.35613e-09 0)
(4.99947e-05 -1.20654e-09 0)
(4.99962e-05 -1.00829e-09 0)
(4.99977e-05 -7.50462e-10 0)
(4.9999e-05 -4.21965e-10 0)
(5.00002e-05 -1.23797e-11 0)
(5.00013e-05 4.85918e-10 0)
(5.00022e-05 1.07755e-09 0)
(5.00028e-05 1.75949e-09 0)
(5.00032e-05 2.52231e-09 0)
(5.00032e-05 3.34428e-09 0)
(5.00028e-05 4.19217e-09 0)
(5.0002e-05 5.03982e-09 0)
(4.99338e-05 7.89965e-09 0)
(4.99351e-05 4.77852e-09 0)
(4.99369e-05 2.30232e-09 0)
(4.99393e-05 3.89047e-10 0)
(4.99419e-05 -1.04418e-09 0)
(4.99447e-05 -2.0813e-09 0)
(4.99475e-05 -2.79914e-09 0)
(4.99503e-05 -3.26363e-09 0)
(4.99531e-05 -3.53491e-09 0)
(4.99558e-05 -3.65944e-09 0)
(4.99583e-05 -3.67872e-09 0)
(4.99607e-05 -3.62353e-09 0)
(4.9963e-05 -3.51978e-09 0)
(4.99652e-05 -3.38675e-09 0)
(4.99673e-05 -3.2391e-09 0)
(4.99692e-05 -3.0881e-09 0)
(4.99711e-05 -2.94101e-09 0)
(4.99728e-05 -2.80377e-09 0)
(4.99745e-05 -2.67897e-09 0)
(4.99762e-05 -2.56909e-09 0)
(4.99778e-05 -2.47377e-09 0)
(4.99793e-05 -2.39314e-09 0)
(4.99809e-05 -2.32484e-09 0)
(4.99824e-05 -2.2672e-09 0)
(4.99839e-05 -2.21614e-09 0)
(4.99854e-05 -2.1682e-09 0)
(4.99869e-05 -2.11743e-09 0)
(4.99884e-05 -2.0582e-09 0)
(4.999e-05 -1.98228e-09 0)
(4.99915e-05 -1.88131e-09 0)
(4.9993e-05 -1.74427e-09 0)
(4.99945e-05 -1.55964e-09 0)
(4.9996e-05 -1.31372e-09 0)
(4.99974e-05 -9.92287e-10 0)
(4.99988e-05 -5.80574e-10 0)
(5e-05 -6.43588e-11 0)
(5.00011e-05 5.67402e-10 0)
(5.00021e-05 1.32225e-09 0)
(5.00027e-05 2.1981e-09 0)
(5.00031e-05 3.18455e-09 0)
(5.00031e-05 4.2546e-09 0)
(5.00028e-05 5.36568e-09 0)
(5.0002e-05 6.48377e-09 0)
(4.99352e-05 9.11194e-09 0)
(4.99366e-05 5.40341e-09 0)
(4.99385e-05 2.4827e-09 0)
(4.99409e-05 2.41761e-10 0)
(4.99435e-05 -1.42476e-09 0)
(4.99462e-05 -2.62153e-09 0)
(4.99489e-05 -3.44231e-09 0)
(4.99516e-05 -3.96679e-09 0)
(4.99543e-05 -4.26675e-09 0)
(4.99568e-05 -4.39719e-09 0)
(4.99592e-05 -4.40695e-09 0)
(4.99615e-05 -4.33193e-09 0)
(4.99637e-05 -4.20229e-09 0)
(4.99658e-05 -4.04028e-09 0)
(4.99677e-05 -3.86279e-09 0)
(4.99696e-05 -3.68271e-09 0)
(4.99713e-05 -3.50831e-09 0)
(4.9973e-05 -3.34632e-09 0)
(4.99747e-05 -3.19959e-09 0)
(4.99763e-05 -3.07087e-09 0)
(4.99778e-05 -2.95965e-09 0)
(4.99793e-05 -2.866e-09 0)
(4.99808e-05 -2.78712e-09 0)
(4.99823e-05 -2.721e-09 0)
(4.99838e-05 -2.66286e-09 0)
(4.99853e-05 -2.60863e-09 0)
(4.99868e-05 -2.55136e-09 0)
(4.99882e-05 -2.48444e-09 0)
(4.99897e-05 -2.39815e-09 0)
(4.99912e-05 -2.28257e-09 0)
(4.99927e-05 -2.12457e-09 0)
(4.99942e-05 -1.91023e-09 0)
(4.99957e-05 -1.62284e-09 0)
(4.99971e-05 -1.24471e-09 0)
(4.99985e-05 -7.57126e-10 0)
(4.99998e-05 -1.41433e-10 0)
(5.00009e-05 6.1775e-10 0)
(5.00019e-05 1.53218e-09 0)
(5.00026e-05 2.60214e-09 0)
(5.0003e-05 3.81771e-09 0)
(5.00031e-05 5.14687e-09 0)
(5.00028e-05 6.53625e-09 0)
(5.00021e-05 7.93535e-09 0)
(4.99369e-05 1.01541e-08 0)
(4.99384e-05 5.90797e-09 0)
(4.99405e-05 2.58869e-09 0)
(4.99428e-05 5.90387e-11 0)
(4.99454e-05 -1.8098e-09 0)
(4.9948e-05 -3.14334e-09 0)
(4.99506e-05 -4.05129e-09 0)
(4.99532e-05 -4.62611e-09 0)
(4.99556e-05 -4.94987e-09 0)
(4.9958e-05 -5.08506e-09 0)
(4.99603e-05 -5.08667e-09 0)
(4.99624e-05 -4.99502e-09 0)
(4.99645e-05 -4.84365e-09 0)
(4.99664e-05 -4.65739e-09 0)
(4.99683e-05 -4.45484e-09 0)
(4.997e-05 -4.25036e-09 0)
(4.99717e-05 -4.05292e-09 0)
(4.99733e-05 -3.87002e-09 0)
(4.99749e-05 -3.70465e-09 0)
(4.99764e-05 -3.55991e-09 0)
(4.99779e-05 -3.43508e-09 0)
(4.99794e-05 -3.33031e-09 0)
(4.99808e-05 -3.24236e-09 0)
(4.99823e-05 -3.16907e-09 0)
(4.99837e-05 -3.10506e-09 0)
(4.99851e-05 -3.04582e-09 0)
(4.99866e-05 -2.98354e-09 0)
(4.9988e-05 -2.91084e-09 0)
(4.99895e-05 -2.81674e-09 0)
(4.99909e-05 -2.68998e-09 0)
(4.99924e-05 -2.51552e-09 0)
(4.99939e-05 -2.27723e-09 0)
(4.99953e-05 -1.9555e-09 0)
(4.99968e-05 -1.52915e-09 0)
(4.99981e-05 -9.7519e-10 0)
(4.99994e-05 -2.69947e-10 0)
(5.00006e-05 6.07412e-10 0)
(5.00016e-05 1.67455e-09 0)
(5.00024e-05 2.93633e-09 0)
(5.00029e-05 4.38611e-09 0)
(5.00031e-05 5.98939e-09 0)
(5.00028e-05 7.68449e-09 0)
(5.00021e-05 9.40697e-09 0)
(4.99391e-05 1.07808e-08 0)
(4.99408e-05 6.09138e-09 0)
(4.99429e-05 2.46059e-09 0)
(4.99452e-05 -2.81928e-10 0)
(4.99476e-05 -2.28973e-09 0)
(4.99501e-05 -3.70918e-09 0)
(4.99525e-05 -4.66482e-09 0)
(4.99549e-05 -5.26043e-09 0)
(4.99572e-05 -5.5868e-09 0)
(4.99594e-05 -5.71228e-09 0)
(4.99614e-05 -5.69671e-09 0)
(4.99634e-05 -5.58347e-09 0)
(4.99653e-05 -5.40859e-09 0)
(4.99671e-05 -5.19848e-09 0)
(4.99689e-05 -4.97291e-09 0)
(4.99705e-05 -4.747e-09 0)
(4.99721e-05 -4.53016e-09 0)
(4.99736e-05 -4.33022e-09 0)
(4.99751e-05 -4.15018e-09 0)
(4.99766e-05 -3.99323e-09 0)
(4.9978e-05 -3.85844e-09 0)
(4.99794e-05 -3.7459e-09 0)
(4.99808e-05 -3.65201e-09 0)
(4.99822e-05 -3.57442e-09 0)
(4.99836e-05 -3.50726e-09 0)
(4.9985e-05 -3.44567e-09 0)
(4.99864e-05 -3.38116e-09 0)
(4.99878e-05 -3.30573e-09 0)
(4.99892e-05 -3.20737e-09 0)
(4.99906e-05 -3.07373e-09 0)
(4.9992e-05 -2.88812e-09 0)
(4.99935e-05 -2.63247e-09 0)
(4.99949e-05 -2.28442e-09 0)
(4.99963e-05 -1.81939e-09 0)
(4.99977e-05 -1.20997e-09 0)
(4.9999e-05 -4.26866e-10 0)
(5.00002e-05 5.57269e-10 0)
(5.00013e-05 1.76784e-09 0)
(5.00021e-05 3.21683e-09 0)
(5.00027e-05 4.90411e-09 0)
(5.0003e-05 6.79505e-09 0)
(5.00028e-05 8.82068e-09 0)
(5.00021e-05 1.08943e-08 0)
(4.99419e-05 1.12326e-08 0)
(4.99437e-05 6.16629e-09 0)
(4.99458e-05 2.27991e-09 0)
(4.9948e-05 -6.31784e-10 0)
(4.99502e-05 -2.7466e-09 0)
(4.99525e-05 -4.2304e-09 0)
(4.99547e-05 -5.22064e-09 0)
(4.99568e-05 -5.83062e-09 0)
(4.99589e-05 -6.15808e-09 0)
(4.99608e-05 -6.2759e-09 0)
(4.99627e-05 -6.24744e-09 0)
(4.99645e-05 -6.11836e-09 0)
(4.99662e-05 -5.92632e-09 0)
(4.99679e-05 -5.69896e-09 0)
(4.99695e-05 -5.45667e-09 0)
(4.9971e-05 -5.21526e-09 0)
(4.99725e-05 -4.98426e-09 0)
(4.99739e-05 -4.77187e-09 0)
(4.99753e-05 -4.58099e-09 0)
(4.99767e-05 -4.41499e-09 0)
(4.99781e-05 -4.27272e-09 0)
(4.99794e-05 -4.15432e-09 0)
(4.99808e-05 -4.05592e-09 0)
(4.99821e-05 -3.97512e-09 0)
(4.99834e-05 -3.9057e-09 0)
(4.99848e-05 -3.84265e-09 0)
(4.99861e-05 -3.777e-09 0)
(4.99875e-05 -3.70038e-09 0)
(4.99889e-05 -3.60004e-09 0)
(4.99902e-05 -3.46289e-09 0)
(4.99916e-05 -3.27095e-09 0)
(4.9993e-05 -3.00457e-09 0)
(4.99944e-05 -2.63905e-09 0)
(4.99958e-05 -2.14666e-09 0)
(4.99971e-05 -1.49561e-09 0)
(4.99985e-05 -6.50669e-10 0)
(4.99997e-05 4.23112e-10 0)
(5.00008e-05 1.76103e-09 0)
(5.00018e-05 3.38562e-09 0)
(5.00024e-05 5.30874e-09 0)
(5.00028e-05 7.50183e-09 0)
(5.00027e-05 9.89615e-09 0)
(5.00022e-05 1.23874e-08 0)
(4.99454e-05 1.1258e-08 0)
(4.99472e-05 5.95152e-09 0)
(4.99491e-05 1.92334e-09 0)
(4.99511e-05 -1.06731e-09 0)
(4.99531e-05 -3.22037e-09 0)
(4.99551e-05 -4.71826e-09 0)
(4.9957e-05 -5.70802e-09 0)
(4.99589e-05 -6.30931e-09 0)
(4.99607e-05 -6.62412e-09 0)
(4.99624e-05 -6.72745e-09 0)
(4.9964e-05 -6.68438e-09 0)
(4.99656e-05 -6.54125e-09 0)
(4.99672e-05 -6.33625e-09 0)
(4.99686e-05 -6.09726e-09 0)
(4.99701e-05 -5.84473e-09 0)
(4.99715e-05 -5.59453e-09 0)
(4.99729e-05 -5.35609e-09 0)
(4.99742e-05 -5.1376e-09 0)
(4.99756e-05 -4.94182e-09 0)
(4.99769e-05 -4.77208e-09 0)
(4.99782e-05 -4.62708e-09 0)
(4.99795e-05 -4.50692e-09 0)
(4.99807e-05 -4.40754e-09 0)
(4.9982e-05 -4.32653e-09 0)
(4.99833e-05 -4.25745e-09 0)
(4.99846e-05 -4.19522e-09 0)
(4.99859e-05 -4.13058e-09 0)
(4.99872e-05 -4.05499e-09 0)
(4.99885e-05 -3.95525e-09 0)
(4.99898e-05 -3.81781e-09 0)
(4.99912e-05 -3.62379e-09 0)
(4.99925e-05 -3.35241e-09 0)
(4.99938e-05 -2.97709e-09 0)
(4.99952e-05 -2.46739e-09 0)
(4.99965e-05 -1.78748e-09 0)
(4.99978e-05 -8.96221e-10 0)
(4.99991e-05 2.49505e-10 0)
(5.00002e-05 1.69657e-09 0)
(5.00013e-05 3.48127e-09 0)
(5.00021e-05 5.63313e-09 0)
(5.00026e-05 8.13643e-09 0)
(5.00026e-05 1.09315e-08 0)
(5.00022e-05 1.38949e-08 0)
(4.99497e-05 1.11412e-08 0)
(4.99513e-05 5.66456e-09 0)
(4.9953e-05 1.54653e-09 0)
(4.99546e-05 -1.48713e-09 0)
(4.99563e-05 -3.65535e-09 0)
(4.99579e-05 -5.15393e-09 0)
(4.99595e-05 -6.13699e-09 0)
(4.9961e-05 -6.72834e-09 0)
(4.99625e-05 -7.03261e-09 0)
(4.99639e-05 -7.12573e-09 0)
(4.99653e-05 -7.07348e-09 0)
(4.99667e-05 -6.92235e-09 0)
(4.9968e-05 -6.7105e-09 0)
(4.99694e-05 -6.46579e-09 0)
(4.99707e-05 -6.20845e-09 0)
(4.99719e-05 -5.95435e-09 0)
(4.99732e-05 -5.71265e-09 0)
(4.99745e-05 -5.4916e-09 0)
(4.99757e-05 -5.29373e-09 0)
(4.9977e-05 -5.12244e-09 0)
(4.99782e-05 -4.97624e-09 0)
(4.99794e-05 -4.85534e-09 0)
(4.99807e-05 -4.75555e-09 0)
(4.99819e-05 -4.67455e-09 0)
(4.99831e-05 -4.60578e-09 0)
(4.99844e-05 -4.54429e-09 0)
(4.99856e-05 -4.48072e-09 0)
(4.99869e-05 -4.40661e-09 0)
(4.99881e-05 -4.3086e-09 0)
(4.99894e-05 -4.17304e-09 0)
(4.99907e-05 -3.98067e-09 0)
(4.99919e-05 -3.71015e-09 0)
(4.99932e-05 -3.3337e-09 0)
(4.99945e-05 -2.819e-09 0)
(4.99958e-05 -2.12693e-09 0)
(4.99971e-05 -1.21102e-09 0)
(4.99983e-05 -2.00046e-11 0)
(4.99995e-05 1.50593e-09 0)
(5.00006e-05 3.42043e-09 0)
(5.00015e-05 5.77886e-09 0)
(5.00022e-05 8.59072e-09 0)
(5.00024e-05 1.18262e-08 0)
(5.00021e-05 1.5362e-08 0)
(4.99547e-05 1.07976e-08 0)
(4.9956e-05 5.30492e-09 0)
(4.99572e-05 1.20697e-09 0)
(4.99584e-05 -1.79605e-09 0)
(4.99596e-05 -3.9336e-09 0)
(4.99608e-05 -5.40754e-09 0)
(4.9962e-05 -6.37333e-09 0)
(4.99632e-05 -6.95425e-09 0)
(4.99643e-05 -7.25424e-09 0)
(4.99655e-05 -7.34756e-09 0)
(4.99666e-05 -7.29895e-09 0)
(4.99678e-05 -7.15364e-09 0)
(4.99689e-05 -6.94898e-09 0)
(4.99701e-05 -6.71212e-09 0)
(4.99712e-05 -6.46275e-09 0)
(4.99724e-05 -6.21639e-09 0)
(4.99736e-05 -5.98196e-09 0)
(4.99747e-05 -5.76756e-09 0)
(4.99759e-05 -5.57559e-09 0)
(4.99771e-05 -5.40951e-09 0)
(4.99783e-05 -5.26775e-09 0)
(4.99794e-05 -5.15063e-09 0)
(4.99806e-05 -5.05396e-09 0)
(4.99818e-05 -4.97558e-09 0)
(4.9983e-05 -4.90897e-09 0)
(4.99842e-05 -4.84937e-09 0)
(4.99854e-05 -4.7875e-09 0)
(4.99866e-05 -4.7151e-09 0)
(4.99877e-05 -4.61893e-09 0)
(4.99889e-05 -4.48552e-09 0)
(4.99901e-05 -4.29561e-09 0)
(4.99913e-05 -4.02779e-09 0)
(4.99925e-05 -3.6538e-09 0)
(4.99938e-05 -3.14026e-09 0)
(4.9995e-05 -2.4459e-09 0)
(4.99962e-05 -1.52014e-09 0)
(4.99974e-05 -3.04686e-10 0)
(4.99986e-05 1.27261e-09 0)
(4.99997e-05 3.28398e-09 0)
(5.00007e-05 5.81587e-09 0)
(5.00015e-05 8.91443e-09 0)
(5.0002e-05 1.2604e-08 0)
(5.0002e-05 1.67877e-08 0)
(4.99605e-05 1.0366e-08 0)
(4.99612e-05 4.91015e-09 0)
(4.99618e-05 8.65086e-10 0)
(4.99624e-05 -2.0884e-09 0)
(4.9963e-05 -4.18547e-09 0)
(4.99637e-05 -5.63054e-09 0)
(4.99644e-05 -6.57852e-09 0)
(4.99652e-05 -7.15055e-09 0)
(4.9966e-05 -7.44903e-09 0)
(4.99668e-05 -7.54594e-09 0)
(4.99677e-05 -7.50455e-09 0)
(4.99686e-05 -7.36866e-09 0)
(4.99696e-05 -7.17452e-09 0)
(4.99706e-05 -6.94855e-09 0)
(4.99716e-05 -6.70978e-09 0)
(4.99727e-05 -6.47342e-09 0)
(4.99738e-05 -6.24802e-09 0)
(4.99749e-05 -6.04162e-09 0)
(4.9976e-05 -5.85648e-09 0)
(4.99771e-05 -5.69609e-09 0)
(4.99782e-05 -5.55887e-09 0)
(4.99794e-05 -5.44528e-09 0)
(4.99805e-05 -5.35116e-09 0)
(4.99817e-05 -5.27455e-09 0)
(4.99828e-05 -5.20907e-09 0)
(4.99839e-05 -5.15021e-09 0)
(4.99851e-05 -5.0889e-09 0)
(4.99862e-05 -5.01727e-09 0)
(4.99874e-05 -4.92238e-09 0)
(4.99885e-05 -4.79126e-09 0)
(4.99896e-05 -4.6051e-09 0)
(4.99907e-05 -4.34302e-09 0)
(4.99918e-05 -3.97714e-09 0)
(4.9993e-05 -3.47422e-09 0)
(4.99941e-05 -2.79238e-09 0)
(4.99952e-05 -1.87902e-09 0)
(4.99963e-05 -6.71102e-10 0)
(4.99974e-05 9.13829e-10 0)
(4.99985e-05 2.96632e-09 0)
(4.99996e-05 5.6096e-09 0)
(5.00006e-05 8.94173e-09 0)
(5.00013e-05 1.30842e-08 0)
(5.00017e-05 1.80313e-08 0)
(4.9967e-05 1.023e-08 0)
(4.99668e-05 4.89191e-09 0)
(4.99666e-05 9.2962e-10 0)
(4.99665e-05 -1.97669e-09 0)
(4.99665e-05 -4.0544e-09 0)
(4.99666e-05 -5.5013e-09 0)
(4.99668e-05 -6.46648e-09 0)
(4.99671e-05 -7.06536e-09 0)
(4.99676e-05 -7.39687e-09 0)
(4.99681e-05 -7.52954e-09 0)
(4.99688e-05 -7.52464e-09 0)
(4.99695e-05 -7.42427e-09 0)
(4.99703e-05 -7.26371e-09 0)
(4.99711e-05 -7.06864e-09 0)
(4.9972e-05 -6.85776e-09 0)
(4.9973e-05 -6.64605e-09 0)
(4.9974e-05 -6.44206e-09 0)
(4.9975e-05 -6.25391e-09 0)
(4.99761e-05 -6.08396e-09 0)
(4.99771e-05 -5.93593e-09 0)
(4.99782e-05 -5.80838e-09 0)
(4.99793e-05 -5.70207e-09 0)
(4.99804e-05 -5.61299e-09 0)
(4.99816e-05 -5.53949e-09 0)
(4.99827e-05 -5.47538e-09 0)
(4.99838e-05 -5.41648e-09 0)
(4.99849e-05 -5.354e-09 0)
(4.99859e-05 -5.28046e-09 0)
(4.9987e-05 -5.18332e-09 0)
(4.99881e-05 -5.05019e-09 0)
(4.99891e-05 -4.86285e-09 0)
(4.99901e-05 -4.60123e-09 0)
(4.99911e-05 -4.23825e-09 0)
(4.99921e-05 -3.7416e-09 0)
(4.99931e-05 -3.07006e-09 0)
(4.99941e-05 -2.17123e-09 0)
(4.9995e-05 -9.80464e-10 0)
(4.9996e-05 5.8933e-10 0)
(4.9997e-05 2.64134e-09 0)
(4.9998e-05 5.32586e-09 0)
(4.99991e-05 8.79643e-09 0)
(5e-05 1.32902e-08 0)
(5.00009e-05 1.8991e-08 0)
(4.99736e-05 1.00619e-08 0)
(4.99723e-05 4.85845e-09 0)
(4.99711e-05 9.85799e-10 0)
(4.99701e-05 -1.87119e-09 0)
(4.99694e-05 -3.92933e-09 0)
(4.99689e-05 -5.37843e-09 0)
(4.99687e-05 -6.36141e-09 0)
(4.99686e-05 -6.98772e-09 0)
(4.99687e-05 -7.35265e-09 0)
(4.9969e-05 -7.52137e-09 0)
(4.99694e-05 -7.55307e-09 0)
(4.997e-05 -7.48823e-09 0)
(4.99706e-05 -7.36112e-09 0)
(4.99714e-05 -7.19671e-09 0)
(4.99722e-05 -7.01337e-09 0)
(4.99731e-05 -6.82589e-09 0)
(4.9974e-05 -6.6428e-09 0)
(4.9975e-05 -6.47227e-09 0)
(4.9976e-05 -6.3168e-09 0)
(4.99771e-05 -6.1803e-09 0)
(4.99782e-05 -6.06152e-09 0)
(4.99792e-05 -5.96144e-09 0)
(4.99803e-05 -5.87625e-09 0)
(4.99814e-05 -5.80459e-09 0)
(4.99825e-05 -5.74045e-09 0)
(4.99836e-05 -5.68001e-09 0)
(4.99846e-05 -5.61475e-09 0)
(4.99857e-05 -5.53764e-09 0)
(4.99867e-05 -5.43661e-09 0)
(4.99877e-05 -5.29995e-09 0)
(4.99887e-05 -5.11021e-09 0)
(4.99896e-05 -4.84843e-09 0)
(4.99905e-05 -4.48887e-09 0)
(4.99913e-05 -4.00102e-09 0)
(4.99921e-05 -3.34575e-09 0)
(4.99929e-05 -2.47331e-09 0)
(4.99937e-05 -1.32114e-09 0)
(4.99944e-05 1.96219e-10 0)
(4.99952e-05 2.18659e-09 0)
(4.9996e-05 4.8171e-09 0)
(4.99969e-05 8.28974e-09 0)
(4.99979e-05 1.29929e-08 0)
(4.99993e-05 1.93819e-08 0)
(4.99805e-05 1.09201e-08 0)
(4.99778e-05 5.71081e-09 0)
(4.99755e-05 1.7892e-09 0)
(4.99736e-05 -1.1437e-09 0)
(4.99722e-05 -3.29213e-09 0)
(4.99711e-05 -4.83673e-09 0)
(4.99703e-05 -5.91575e-09 0)
(4.99699e-05 -6.63482e-09 0)
(4.99697e-05 -7.08704e-09 0)
(4.99697e-05 -7.33623e-09 0)
(4.99699e-05 -7.4409e-09 0)
(4.99703e-05 -7.4412e-09 0)
(4.99709e-05 -7.3716e-09 0)
(4.99715e-05 -7.25719e-09 0)
(4.99723e-05 -7.1169e-09 0)
(4.99731e-05 -6.96585e-09 0)
(4.9974e-05 -6.8132e-09 0)
(4.9975e-05 -6.66757e-09 0)
(4.9976e-05 -6.53199e-09 0)
(4.9977e-05 -6.41082e-09 0)
(4.99781e-05 -6.3032e-09 0)
(4.99792e-05 -6.21053e-09 0)
(4.99802e-05 -6.12928e-09 0)
(4.99813e-05 -6.05841e-09 0)
(4.99824e-05 -5.99215e-09 0)
(4.99834e-05 -5.92694e-09 0)
(4.99845e-05 -5.85447e-09 0)
(4.99855e-05 -5.76801e-09 0)
(4.99865e-05 -5.65574e-09 0)
(4.99874e-05 -5.50636e-09 0)
(4.99883e-05 -5.30292e-09 0)
(4.99891e-05 -5.02714e-09 0)
(4.99899e-05 -4.65423e-09 0)
(4.99906e-05 -4.15507e-09 0)
(4.99912e-05 -3.4922e-09 0)
(4.99918e-05 -2.61907e-09 0)
(4.99923e-05 -1.47589e-09 0)
(4.99927e-05 1.38741e-11 0)
(4.99931e-05 1.95633e-09 0)
(4.99934e-05 4.48746e-09 0)
(4.99939e-05 7.8386e-09 0)
(4.99942e-05 1.23238e-08 0)
(4.99959e-05 1.88347e-08 0)
(4.99317e-05 1.27184e-09 0)
(4.99325e-05 7.91831e-10 0)
(4.99341e-05 4.06315e-10 0)
(4.99363e-05 1.04984e-10 0)
(4.99389e-05 -1.23385e-10 0)
(4.99418e-05 -2.90589e-10 0)
(4.99447e-05 -4.07906e-10 0)
(4.99478e-05 -4.85162e-10 0)
(4.99507e-05 -5.31551e-10 0)
(4.99536e-05 -5.54268e-10 0)
(4.99564e-05 -5.59828e-10 0)
(4.99591e-05 -5.53114e-10 0)
(4.99616e-05 -5.38277e-10 0)
(4.9964e-05 -5.18419e-10 0)
(4.99662e-05 -4.95935e-10 0)
(4.99683e-05 -4.72659e-10 0)
(4.99704e-05 -4.49801e-10 0)
(4.99723e-05 -4.28334e-10 0)
(4.99741e-05 -4.08711e-10 0)
(4.99759e-05 -3.9134e-10 0)
(4.99776e-05 -3.76191e-10 0)
(4.99792e-05 -3.6329e-10 0)
(4.99809e-05 -3.52273e-10 0)
(4.99825e-05 -3.4287e-10 0)
(4.99841e-05 -3.3444e-10 0)
(4.99856e-05 -3.26424e-10 0)
(4.99872e-05 -3.17885e-10 0)
(4.99888e-05 -3.07929e-10 0)
(4.99904e-05 -2.95272e-10 0)
(4.99919e-05 -2.78616e-10 0)
(4.99935e-05 -2.56287e-10 0)
(4.9995e-05 -2.2656e-10 0)
(4.99965e-05 -1.8744e-10 0)
(4.9998e-05 -1.36919e-10 0)
(4.99993e-05 -7.30089e-11 0)
(5.00005e-05 6.0867e-12 0)
(5.00016e-05 1.01571e-10 0)
(5.00024e-05 2.14023e-10 0)
(5.0003e-05 3.42578e-10 0)
(5.00032e-05 4.85209e-10 0)
(5.00032e-05 6.37798e-10 0)
(5.00028e-05 7.94306e-10 0)
(5.0002e-05 9.50701e-10 0)
(4.99321e-05 4.28963e-09 0)
(4.99323e-05 6.89254e-09 0)
(4.99329e-05 9.34932e-09 0)
(4.99335e-05 1.16556e-08 0)
(4.99346e-05 1.36098e-08 0)
(4.9936e-05 1.53468e-08 0)
(4.9938e-05 1.65763e-08 0)
(4.99406e-05 1.75607e-08 0)
(4.9944e-05 1.79672e-08 0)
(4.99483e-05 1.81461e-08 0)
(4.99535e-05 1.78983e-08 0)
(4.99599e-05 1.74851e-08 0)
(4.99672e-05 1.7213e-08 0)
(4.99751e-05 1.68776e-08 0)
(4.99837e-05 1.76824e-08 0)
(4.9932e-05 1.84194e-09 0)
(4.99336e-05 5.84259e-09 0)
(4.99337e-05 9.41645e-09 0)
(4.9934e-05 1.28414e-08 0)
(4.99344e-05 1.61031e-08 0)
(4.99351e-05 1.89781e-08 0)
(4.99362e-05 2.15987e-08 0)
(4.99377e-05 2.36314e-08 0)
(4.994e-05 2.53533e-08 0)
(4.9943e-05 2.63406e-08 0)
(4.99472e-05 2.70042e-08 0)
(4.99524e-05 2.69959e-08 0)
(4.99592e-05 2.67127e-08 0)
(4.99673e-05 2.6317e-08 0)
(4.99767e-05 2.58013e-08 0)
(4.99872e-05 2.64642e-08 0)
(4.99335e-05 2.50801e-09 0)
(4.99367e-05 7.65873e-09 0)
(4.99366e-05 1.23768e-08 0)
(4.99367e-05 1.69581e-08 0)
(4.99367e-05 2.13787e-08 0)
(4.99371e-05 2.5401e-08 0)
(4.99376e-05 2.91518e-08 0)
(4.99386e-05 3.22599e-08 0)
(4.99403e-05 3.501e-08 0)
(4.99428e-05 3.68789e-08 0)
(4.99466e-05 3.83279e-08 0)
(4.99516e-05 3.88143e-08 0)
(4.99586e-05 3.88678e-08 0)
(4.99674e-05 3.84054e-08 0)
(4.99783e-05 3.76804e-08 0)
(4.99912e-05 3.79918e-08 0)
(4.99367e-05 3.28667e-09 0)
(4.99418e-05 9.66363e-09 0)
(4.99415e-05 1.56549e-08 0)
(4.99413e-05 2.1541e-08 0)
(4.99409e-05 2.72913e-08 0)
(4.99408e-05 3.26667e-08 0)
(4.99407e-05 3.77888e-08 0)
(4.99411e-05 4.22641e-08 0)
(4.99421e-05 4.63813e-08 0)
(4.99438e-05 4.95257e-08 0)
(4.99469e-05 5.21992e-08 0)
(4.99513e-05 5.36304e-08 0)
(4.99581e-05 5.44561e-08 0)
(4.99672e-05 5.42073e-08 0)
(4.99797e-05 5.33615e-08 0)
(4.99953e-05 5.30282e-08 0)
(4.99418e-05 4.14584e-09 0)
(4.99489e-05 1.17989e-08 0)
(4.99485e-05 1.91569e-08 0)
(4.9948e-05 2.6463e-08 0)
(4.99472e-05 3.36842e-08 0)
(4.99466e-05 4.05964e-08 0)
(4.9946e-05 4.73197e-08 0)
(4.99457e-05 5.34629e-08 0)
(4.99458e-05 5.93238e-08 0)
(4.99466e-05 6.42295e-08 0)
(4.99486e-05 6.87356e-08 0)
(4.99521e-05 7.18605e-08 0)
(4.99582e-05 7.43739e-08 0)
(4.99669e-05 7.53194e-08 0)
(4.99804e-05 7.53347e-08 0)
(4.99991e-05 7.49077e-08 0)
(4.99491e-05 5.06042e-09 0)
(4.99584e-05 1.39651e-08 0)
(4.99577e-05 2.27202e-08 0)
(4.9957e-05 3.14973e-08 0)
(4.99559e-05 4.0266e-08 0)
(4.99549e-05 4.88344e-08 0)
(4.99537e-05 5.7326e-08 0)
(4.99527e-05 6.53823e-08 0)
(4.99519e-05 7.33181e-08 0)
(4.99518e-05 8.04581e-08 0)
(4.99528e-05 8.74443e-08 0)
(4.99551e-05 9.31799e-08 0)
(4.996e-05 9.87021e-08 0)
(4.99678e-05 1.02668e-07 0)
(4.99812e-05 1.06192e-07 0)
(5.0002e-05 1.08722e-07 0)
(4.99586e-05 5.98772e-09 0)
(4.99702e-05 1.60435e-08 0)
(4.99694e-05 2.61489e-08 0)
(4.99685e-05 3.63655e-08 0)
(4.99671e-05 4.66694e-08 0)
(4.99657e-05 5.69149e-08 0)
(4.9964e-05 6.72295e-08 0)
(4.99624e-05 7.73127e-08 0)
(4.9961e-05 8.74893e-08 0)
(4.996e-05 9.71271e-08 0)
(4.996e-05 1.06943e-07 0)
(4.99612e-05 1.15805e-07 0)
(4.99651e-05 1.2506e-07 0)
(4.9972e-05 1.33118e-07 0)
(4.99847e-05 1.41976e-07 0)
(5.00052e-05 1.50151e-07 0)
(4.99704e-05 6.87696e-09 0)
(4.99842e-05 1.78909e-08 0)
(4.99833e-05 2.92058e-08 0)
(4.99823e-05 4.07287e-08 0)
(4.99808e-05 5.24439e-08 0)
(4.99791e-05 6.42621e-08 0)
(4.99771e-05 7.63094e-08 0)
(4.9975e-05 8.83592e-08 0)
(4.9973e-05 1.00722e-07 0)
(4.99713e-05 1.12826e-07 0)
(4.99703e-05 1.25381e-07 0)
(4.99706e-05 1.37204e-07 0)
(4.99732e-05 1.49709e-07 0)
(4.99789e-05 1.60887e-07 0)
(4.99901e-05 1.72982e-07 0)
(5.00083e-05 1.8328e-07 0)
(4.99844e-05 7.66685e-09 0)
(5.00001e-05 1.93612e-08 0)
(4.99992e-05 3.16483e-08 0)
(4.99982e-05 4.42396e-08 0)
(4.99966e-05 5.71277e-08 0)
(4.99948e-05 7.02857e-08 0)
(4.99926e-05 8.38334e-08 0)
(4.99903e-05 9.76323e-08 0)
(4.99878e-05 1.11957e-07 0)
(4.99855e-05 1.26328e-07 0)
(4.99836e-05 1.41388e-07 0)
(4.99827e-05 1.55959e-07 0)
(4.99837e-05 1.71402e-07 0)
(4.99873e-05 1.85378e-07 0)
(4.99958e-05 2.00258e-07 0)
(5.00103e-05 2.12367e-07 0)
(5.00003e-05 8.29498e-09 0)
(5.00175e-05 2.03115e-08 0)
(5.00167e-05 3.32386e-08 0)
(5.00157e-05 4.65558e-08 0)
(5.00142e-05 6.02634e-08 0)
(5.00125e-05 7.43986e-08 0)
(5.00103e-05 8.90697e-08 0)
(5.00079e-05 1.04237e-07 0)
(5.00051e-05 1.20123e-07 0)
(5.00023e-05 1.36374e-07 0)
(4.99996e-05 1.53519e-07 0)
(4.99974e-05 1.7046e-07 0)
(4.99965e-05 1.88399e-07 0)
(4.99974e-05 2.04838e-07 0)
(5.00022e-05 2.22129e-07 0)
(5.00119e-05 2.3593e-07 0)
(5.00177e-05 8.70021e-09 0)
(5.00358e-05 2.06206e-08 0)
(5.00352e-05 3.37742e-08 0)
(5.00343e-05 4.73843e-08 0)
(5.0033e-05 6.14564e-08 0)
(5.00314e-05 7.60896e-08 0)
(5.00294e-05 9.13766e-08 0)
(5.00271e-05 1.07386e-07 0)
(5.00242e-05 1.24278e-07 0)
(5.00211e-05 1.41867e-07 0)
(5.00176e-05 1.60543e-07 0)
(5.00142e-05 1.79392e-07 0)
(5.00111e-05 1.9939e-07 0)
(5.00089e-05 2.18052e-07 0)
(5.00091e-05 2.37525e-07 0)
(5.00129e-05 2.52926e-07 0)
(5.0036e-05 8.83084e-09 0)
(5.00543e-05 2.01995e-08 0)
(5.00538e-05 3.31052e-08 0)
(5.00532e-05 4.65043e-08 0)
(5.00522e-05 6.04035e-08 0)
(5.00509e-05 7.49552e-08 0)
(5.00492e-05 9.0232e-08 0)
(5.00471e-05 1.06412e-07 0)
(5.00444e-05 1.23591e-07 0)
(5.00413e-05 1.41787e-07 0)
(5.00373e-05 1.61251e-07 0)
(5.00327e-05 1.81373e-07 0)
(5.00274e-05 2.02893e-07 0)
(5.00218e-05 2.23596e-07 0)
(5.00168e-05 2.45323e-07 0)
(5.00134e-05 2.62834e-07 0)
(5.00545e-05 8.64897e-09 0)
(5.00722e-05 1.90069e-08 0)
(5.00719e-05 3.11599e-08 0)
(5.00715e-05 4.38051e-08 0)
(5.00708e-05 5.69435e-08 0)
(5.007e-05 7.07655e-08 0)
(5.00687e-05 8.53151e-08 0)
(5.00671e-05 1.00868e-07 0)
(5.00647e-05 1.17452e-07 0)
(5.00617e-05 1.35303e-07 0)
(5.00576e-05 1.54535e-07 0)
(5.00523e-05 1.74943e-07 0)
(5.00452e-05 1.97033e-07 0)
(5.00364e-05 2.19145e-07 0)
(5.00258e-05 2.42795e-07 0)
(5.0014e-05 2.62863e-07 0)
(5.00723e-05 8.13713e-09 0)
(5.00887e-05 1.70603e-08 0)
(5.00885e-05 2.7964e-08 0)
(5.00884e-05 3.93152e-08 0)
(5.0088e-05 5.1099e-08 0)
(5.00876e-05 6.35212e-08 0)
(5.00868e-05 7.6583e-08 0)
(5.00856e-05 9.06286e-08 0)
(5.00838e-05 1.05602e-07 0)
(5.00812e-05 1.21935e-07 0)
(5.00772e-05 1.39587e-07 0)
(5.00717e-05 1.58797e-07 0)
(5.00633e-05 1.79792e-07 0)
(5.00519e-05 2.01646e-07 0)
(5.00358e-05 2.25298e-07 0)
(5.00148e-05 2.46131e-07 0)
(5.00887e-05 7.30301e-09 0)
(5.01028e-05 1.444e-08 0)
(5.01028e-05 2.36492e-08 0)
(5.01029e-05 3.32181e-08 0)
(5.01028e-05 4.3105e-08 0)
(5.01027e-05 5.35036e-08 0)
(5.01023e-05 6.43538e-08 0)
(5.01016e-05 7.60231e-08 0)
(5.01003e-05 8.83433e-08 0)
(5.00982e-05 1.01882e-07 0)
(5.00947e-05 1.16406e-07 0)
(5.00892e-05 1.32584e-07 0)
(5.00803e-05 1.50359e-07 0)
(5.0067e-05 1.69819e-07 0)
(5.00461e-05 1.91533e-07 0)
(5.00157e-05 2.12222e-07 0)
(5.01028e-05 6.18118e-09 0)
(5.01141e-05 1.12934e-08 0)
(5.01141e-05 1.84606e-08 0)
(5.01143e-05 2.58657e-08 0)
(5.01144e-05 3.34306e-08 0)
(5.01145e-05 4.13118e-08 0)
(5.01143e-05 4.93699e-08 0)
(5.01139e-05 5.79404e-08 0)
(5.01129e-05 6.67064e-08 0)
(5.01111e-05 7.62558e-08 0)
(5.01079e-05 8.60689e-08 0)
(5.01028e-05 9.70442e-08 0)
(5.00942e-05 1.08641e-07 0)
(5.00806e-05 1.21913e-07 0)
(5.0058e-05 1.37129e-07 0)
(5.00206e-05 1.53913e-07 0)
(5.0114e-05 4.83468e-09 0)
(5.01219e-05 7.80922e-09 0)
(5.0122e-05 1.27152e-08 0)
(5.01222e-05 1.77203e-08 0)
(5.01222e-05 2.27087e-08 0)
(5.01223e-05 2.77838e-08 0)
(5.01221e-05 3.27242e-08 0)
(5.01215e-05 3.77923e-08 0)
(5.01204e-05 4.25108e-08 0)
(5.01183e-05 4.73723e-08 0)
(5.01148e-05 5.14889e-08 0)
(5.01092e-05 5.56483e-08 0)
(5.01e-05 5.83669e-08 0)
(5.00856e-05 6.07082e-08 0)
(5.0062e-05 6.05983e-08 0)
(5.0022e-05 5.93109e-08 0)
(5.01219e-05 3.34411e-09 0)
(5.01262e-05 4.20998e-09 0)
(5.01261e-05 6.78725e-09 0)
(5.01262e-05 9.32984e-09 0)
(5.01261e-05 1.16934e-08 0)
(5.01258e-05 1.39309e-08 0)
(5.01253e-05 1.57625e-08 0)
(5.01243e-05 1.73824e-08 0)
(5.01226e-05 1.82219e-08 0)
(5.01197e-05 1.8702e-08 0)
(5.01152e-05 1.77702e-08 0)
(5.01083e-05 1.62138e-08 0)
(5.00977e-05 1.22153e-08 0)
(5.00816e-05 7.21771e-09 0)
(5.00575e-05 -1.48946e-09 0)
(5.0021e-05 -1.06038e-08 0)
(5.01261e-05 1.80428e-09 0)
(5.01268e-05 6.96082e-10 0)
(5.01267e-05 1.0115e-09 0)
(5.01265e-05 1.17946e-09 0)
(5.0126e-05 1.04109e-09 0)
(5.01254e-05 6.11048e-10 0)
(5.01243e-05 -4.17657e-10 0)
(5.01227e-05 -1.90056e-09 0)
(5.01201e-05 -4.42297e-09 0)
(5.01163e-05 -7.60158e-09 0)
(5.01108e-05 -1.247e-08 0)
(5.01026e-05 -1.817e-08 0)
(5.00911e-05 -2.63952e-08 0)
(5.00748e-05 -3.52055e-08 0)
(5.00524e-05 -4.69717e-08 0)
(5.00218e-05 -5.70196e-08 0)
(5.01269e-05 3.00729e-10 0)
(5.01241e-05 -2.55052e-09 0)
(5.01237e-05 -4.3095e-09 0)
(5.01233e-05 -6.29619e-09 0)
(5.01224e-05 -8.66709e-09 0)
(5.01213e-05 -1.14286e-08 0)
(5.01196e-05 -1.48826e-08 0)
(5.01172e-05 -1.89114e-08 0)
(5.01139e-05 -2.40541e-08 0)
(5.01091e-05 -2.99431e-08 0)
(5.01027e-05 -3.74803e-08 0)
(5.00938e-05 -4.577e-08 0)
(5.00822e-05 -5.62266e-08 0)
(5.00666e-05 -6.67585e-08 0)
(5.00473e-05 -7.93623e-08 0)
(5.00232e-05 -8.9307e-08 0)
(5.01242e-05 -1.0889e-09 0)
(5.01189e-05 -5.17912e-09 0)
(5.01183e-05 -8.60375e-09 0)
(5.01176e-05 -1.22997e-08 0)
(5.01165e-05 -1.64086e-08 0)
(5.01149e-05 -2.0943e-08 0)
(5.01127e-05 -2.61788e-08 0)
(5.01096e-05 -3.20084e-08 0)
(5.01057e-05 -3.88959e-08 0)
(5.01003e-05 -4.64824e-08 0)
(5.00934e-05 -5.55044e-08 0)
(5.00843e-05 -6.50759e-08 0)
(5.00731e-05 -7.63168e-08 0)
(5.0059e-05 -8.72226e-08 0)
(5.00429e-05 -9.94508e-08 0)
(5.00245e-05 -1.08855e-07 0)
(5.01191e-05 -2.21445e-09 0)
(5.01119e-05 -7.42377e-09 0)
(5.01111e-05 -1.22587e-08 0)
(5.01102e-05 -1.73836e-08 0)
(5.01087e-05 -2.29172e-08 0)
(5.01067e-05 -2.88684e-08 0)