/*--------------------------------*- C++ -*----------------------------------*\
| =========                 |                                                 |
| \\      /  F ield         | foam-extend: Open Source CFD                    |
|  \\    /   O peration     | Version:     4.1-20200408                       |
|   \\  /    A nd           | Web:         http://www.foam-extend.org         |
|    \\/     M anipulation  |                                                 |
\*---------------------------------------------------------------------------*/
FoamFile
{
    version     2.0;
    format      ascii;
    class       volVectorField;
    location    "0.0040000";
    object      Velocity;
}
// * * * * * * * * * * * * * * * * * * * * * * * * * * * * * * * * * * * * * //

dimensions      [0 1 -1 0 0 0 0];

internalField   nonuniform List<vector> 
1952
(
(0.998607 3.60751e-05 0)
(0.99864 1.83004e-05 0)
(0.998685 4.41637e-06 0)
(0.998738 -6.11168e-06 0)
(0.998796 -1.38174e-05 0)
(0.998856 -1.92204e-05 0)
(0.998917 -2.27902e-05 0)
(0.998977 -2.49254e-05 0)
(0.999035 -2.59858e-05 0)
(0.999091 -2.62454e-05 0)
(0.999145 -2.59497e-05 0)
(0.999196 -2.52757e-05 0)
(0.999244 -2.43739e-05 0)
(0.999289 -2.33523e-05 0)
(0.999333 -2.22932e-05 0)
(0.999374 -2.12574e-05 0)
(0.999413 -2.02824e-05 0)
(0.999451 -1.93977e-05 0)
(0.999487 -1.86122e-05 0)
(0.999522 -1.79347e-05 0)
(0.999557 -1.73553e-05 0)
(0.99959 -1.68677e-05 0)
(0.999624 -1.64481e-05 0)
(0.999657 -1.60766e-05 0)
(0.99969 -1.57163e-05 0)
(0.999723 -1.53324e-05 0)
(0.999756 -1.48727e-05 0)
(0.999789 -1.42847e-05 0)
(0.999822 -1.34978e-05 0)
(0.999855 -1.24391e-05 0)
(0.999888 -1.10195e-05 0)
(0.999919 -9.14766e-06 0)
(0.999949 -6.72397e-06 0)
(0.999978 -3.65343e-06 0)
(1 1.49138e-07 0)
(1.00003 4.74604e-06 0)
(1.00004 1.01582e-05 0)
(1.00006 1.63535e-05 0)
(1.00006 2.32205e-05 0)
(1.00006 3.05735e-05 0)
(1.00005 3.81003e-05 0)
(1.00004 4.56034e-05 0)
(1.00001 5.23448e-05 0)
(0.998617 5.73705e-05 0)
(0.998652 2.87142e-05 0)
(0.998698 6.38604e-06 0)
(0.998751 -1.05036e-05 0)
(0.998809 -2.28323e-05 0)
(0.998868 -3.14512e-05 0)
(0.998928 -3.71229e-05 0)
(0.998988 -4.04941e-05 0)
(0.999045 -4.2145e-05 0)
(0.9991 -4.25178e-05 0)
(0.999153 -4.20061e-05 0)
(0.999203 -4.08942e-05 0)
(0.99925 -3.94228e-05 0)
(0.999295 -3.77646e-05 0)
(0.999337 -3.60506e-05 0)
(0.999377 -3.43781e-05 0)
(0.999416 -3.2806e-05 0)
(0.999453 -3.13816e-05 0)
(0.999489 -3.01185e-05 0)
(0.999523 -2.90306e-05 0)
(0.999557 -2.81017e-05 0)
(0.999591 -2.73218e-05 0)
(0.999624 -2.66524e-05 0)
(0.999656 -2.60618e-05 0)
(0.999689 -2.54905e-05 0)
(0.999722 -2.48831e-05 0)
(0.999755 -2.41554e-05 0)
(0.999787 -2.3223e-05 0)
(0.99982 -2.1972e-05 0)
(0.999853 -2.02843e-05 0)
(0.999885 -1.80151e-05 0)
(0.999917 -1.50151e-05 0)
(0.999947 -1.11202e-05 0)
(0.999975 -6.17242e-06 0)
(1 -2.78362e-08 0)
(1.00002 7.42196e-06 0)
(1.00004 1.62197e-05 0)
(1.00006 2.63215e-05 0)
(1.00006 3.75537e-05 0)
(1.00006 4.96168e-05 0)
(1.00005 6.20045e-05 0)
(1.00004 7.44318e-05 0)
(1.00001 8.5726e-05 0)
(0.998633 7.63995e-05 0)
(0.998669 3.73004e-05 0)
(0.998716 6.96789e-06 0)
(0.998769 -1.58771e-05 0)
(0.998826 -3.24738e-05 0)
(0.998884 -4.40144e-05 0)
(0.998943 -5.1554e-05 0)
(0.999001 -5.59837e-05 0)
(0.999057 -5.80974e-05 0)
(0.99911 -5.8497e-05 0)
(0.999162 -5.7717e-05 0)
(0.99921 -5.6141e-05 0)
(0.999256 -5.40936e-05 0)
(0.9993 -5.18065e-05 0)
(0.999341 -4.94551e-05 0)
(0.999381 -4.71691e-05 0)
(0.999418 -4.50268e-05 0)
(0.999455 -4.30906e-05 0)
(0.99949 -4.13779e-05 0)
(0.999524 -3.99065e-05 0)
(0.999557 -3.86541e-05 0)
(0.99959 -3.76062e-05 0)
(0.999623 -3.67108e-05 0)
(0.999655 -3.59244e-05 0)
(0.999687 -3.51665e-05 0)
(0.99972 -3.43615e-05 0)
(0.999752 -3.33949e-05 0)
(0.999785 -3.21515e-05 0)
(0.999817 -3.04754e-05 0)
(0.99985 -2.82038e-05 0)
(0.999882 -2.51363e-05 0)
(0.999913 -2.10641e-05 0)
(0.999943 -1.57557e-05 0)
(0.999972 -8.98462e-06 0)
(0.999998 -5.3972e-07 0)
(1.00002 9.74487e-06 0)
(1.00004 2.19474e-05 0)
(1.00005 3.60259e-05 0)
(1.00006 5.17541e-05 0)
(1.00006 6.87135e-05 0)
(1.00006 8.61749e-05 0)
(1.00004 0.000103627 0)
(1.00002 0.00011933 0)
(0.998654 9.34104e-05 0)
(0.998693 4.44118e-05 0)
(0.99874 6.57346e-06 0)
(0.998793 -2.18016e-05 0)
(0.99885 -4.23233e-05 0)
(0.998907 -5.65262e-05 0)
(0.998964 -6.57476e-05 0)
(0.99902 -7.11144e-05 0)
(0.999074 -7.36194e-05 0)
(0.999126 -7.40146e-05 0)
(0.999175 -7.29628e-05 0)
(0.999222 -7.094e-05 0)
(0.999266 -6.83458e-05 0)
(0.999308 -6.54666e-05 0)
(0.999348 -6.2517e-05 0)
(0.999387 -5.96571e-05 0)
(0.999423 -5.69817e-05 0)
(0.999458 -5.45682e-05 0)
(0.999492 -5.2436e-05 0)
(0.999526 -5.06081e-05 0)
(0.999558 -4.90554e-05 0)
(0.99959 -4.77609e-05 0)
(0.999622 -4.66591e-05 0)
(0.999654 -4.56974e-05 0)
(0.999685 -4.47751e-05 0)
(0.999717 -4.37993e-05 0)
(0.999749 -4.26272e-05 0)
(0.999781 -4.11151e-05 0)
(0.999813 -3.90673e-05 0)
(0.999845 -3.62784e-05 0)
(0.999877 -3.2493e-05 0)
(0.999908 -2.74427e-05 0)
(0.999939 -2.08252e-05 0)
(0.999967 -1.23394e-05 0)
(0.999994 -1.69625e-06 0)
(1.00002 1.13428e-05 0)
(1.00004 2.69123e-05 0)
(1.00005 4.49946e-05 0)
(1.00006 6.53358e-05 0)
(1.00006 8.74162e-05 0)
(1.00006 0.000110303 0)
(1.00004 0.000133328 0)
(1.00002 0.000154224 0)
(0.998684 0.000105503 0)
(0.998724 4.7717e-05 0)
(0.998772 3.40696e-06 0)
(0.998824 -2.95876e-05 0)
(0.998879 -5.32644e-05 0)
(0.998935 -6.9505e-05 0)
(0.998989 -7.99187e-05 0)
(0.999043 -8.58534e-05 0)
(0.999094 -8.8484e-05 0)
(0.999144 -8.86937e-05 0)
(0.99919 -8.72582e-05 0)
(0.999235 -8.4729e-05 0)
(0.999277 -8.15694e-05 0)
(0.999317 -7.81079e-05 0)
(0.999356 -7.4591e-05 0)
(0.999392 -7.12004e-05 0)
(0.999427 -6.80433e-05 0)
(0.999461 -6.52065e-05 0)
(0.999494 -6.27103e-05 0)
(0.999527 -6.0579e-05 0)
(0.999558 -5.87776e-05 0)
(0.99959 -5.72847e-05 0)
(0.999621 -5.60236e-05 0)
(0.999652 -5.49319e-05 0)
(0.999683 -5.38921e-05 0)
(0.999714 -5.27951e-05 0)
(0.999745 -5.14732e-05 0)
(0.999776 -4.97571e-05 0)
(0.999808 -4.74148e-05 0)
(0.99984 -4.42008e-05 0)
(0.999871 -3.98073e-05 0)
(0.999902 -3.39061e-05 0)
(0.999932 -2.61223e-05 0)
(0.999961 -1.60731e-05 0)
(0.999988 -3.37919e-06 0)
(1.00001 1.22899e-05 0)
(1.00003 3.11517e-05 0)
(1.00005 5.32431e-05 0)
(1.00006 7.8312e-05 0)
(1.00006 0.000105743 0)
(1.00006 0.00013437 0)
(1.00004 0.000163192 0)
(1.00002 0.00018923 0)
(0.998721 0.00011521 0)
(0.998763 4.95482e-05 0)
(0.998811 -4.59584e-07 0)
(0.998862 -3.7461e-05 0)
(0.998915 -6.38381e-05 0)
(0.998968 -8.18057e-05 0)
(0.99902 -9.32194e-05 0)
(0.99907 -9.96269e-05 0)
(0.999118 -0.000102359 0)
(0.999165 -0.000102412 0)
(0.999209 -0.000100654 0)
(0.99925 -9.77019e-05 0)
(0.99929 -9.40691e-05 0)
(0.999328 -9.0121e-05 0)
(0.999364 -8.61277e-05 0)
(0.999399 -8.22915e-05 0)
(0.999433 -7.87274e-05 0)
(0.999466 -7.55327e-05 0)
(0.999497 -7.27268e-05 0)
(0.999528 -7.03377e-05 0)
(0.999559 -6.83239e-05 0)
(0.999589 -6.6663e-05 0)
(0.999619 -6.5268e-05 0)
(0.99965 -6.40706e-05 0)
(0.99968 -6.29385e-05 0)
(0.99971 -6.17507e-05 0)
(0.99974 -6.03182e-05 0)
(0.999771 -5.84509e-05 0)
(0.999802 -5.58846e-05 0)
(0.999833 -5.23388e-05 0)
(0.999864 -4.74564e-05 0)
(0.999895 -4.08521e-05 0)
(0.999925 -3.20771e-05 0)
(0.999954 -2.06615e-05 0)
(0.999981 -6.12221e-06 0)
(1.00001 1.19855e-05 0)
(1.00003 3.39975e-05 0)
(1.00005 6.00506e-05 0)
(1.00006 8.99534e-05 0)
(1.00006 0.000123047 0)
(1.00006 0.000157983 0)
(1.00004 0.000193478 0)
(1.00002 0.000225829 0)
(0.998767 0.000118556 0)
(0.99881 4.67448e-05 0)
(0.998857 -7.45751e-06 0)
(0.998906 -4.72134e-05 0)
(0.998956 -7.52839e-05 0)
(0.999006 -9.41981e-05 0)
(0.999054 -0.000106028 0)
(0.9991 -0.000112488 0)
(0.999145 -0.000115036 0)
(0.999188 -0.000114753 0)
(0.999228 -0.000112576 0)
(0.999267 -0.000109164 0)
(0.999304 -0.000105067 0)
(0.99934 -0.00010067 0)
(0.999374 -9.62598e-05 0)
(0.999407 -9.2048e-05 0)
(0.999439 -8.81538e-05 0)
(0.99947 -8.46778e-05 0)
(0.9995 -8.16376e-05 0)
(0.99953 -7.9061e-05 0)
(0.999559 -7.6901e-05 0)
(0.999589 -7.51323e-05 0)
(0.999618 -7.36597e-05 0)
(0.999647 -7.24095e-05 0)
(0.999676 -7.12377e-05 0)
(0.999705 -7.00138e-05 0)
(0.999735 -6.8532e-05 0)
(0.999765 -6.65849e-05 0)
(0.999795 -6.38824e-05 0)
(0.999825 -6.01132e-05 0)
(0.999855 -5.48769e-05 0)
(0.999886 -4.77347e-05 0)
(0.999915 -3.81652e-05 0)
(0.999945 -2.56079e-05 0)
(0.999972 -9.46456e-06 0)
(0.999998 1.08464e-05 0)
(1.00002 3.58178e-05 0)
(1.00004 6.5738e-05 0)
(1.00005 0.000100544 0)
(1.00006 0.000139583 0)
(1.00006 0.000181345 0)
(1.00004 0.000224095 0)
(1.00002 0.000263181 0)
(0.998825 0.000119753 0)
(0.998867 4.29025e-05 0)
(0.998912 -1.46285e-05 0)
(0.998958 -5.65068e-05 0)
(0.999003 -8.58432e-05 0)
(0.999048 -0.000105445 0)
(0.999092 -0.000117563 0)
(0.999134 -0.000124048 0)
(0.999174 -0.000126451 0)
(0.999212 -0.000125917 0)
(0.999249 -0.000123433 0)
(0.999285 -0.000119689 0)
(0.999319 -0.000115256 0)
(0.999351 -0.000110537 0)
(0.999383 -0.000105825 0)
(0.999414 -0.000101342 0)
(0.999444 -9.72067e-05 0)
(0.999474 -9.35254e-05 0)
(0.999503 -9.0312e-05 0)
(0.999531 -8.75967e-05 0)
(0.999559 -8.53272e-05 0)
(0.999588 -8.34787e-05 0)
(0.999616 -8.19494e-05 0)
(0.999644 -8.06639e-05 0)
(0.999672 -7.947e-05 0)
(0.999701 -7.82321e-05 0)
(0.999729 -7.67324e-05 0)
(0.999758 -7.47529e-05 0)
(0.999787 -7.19836e-05 0)
(0.999816 -6.80907e-05 0)
(0.999846 -6.26382e-05 0)
(0.999875 -5.51413e-05 0)
(0.999905 -4.50117e-05 0)
(0.999933 -3.15995e-05 0)
(0.999961 -1.41835e-05 0)
(0.999988 7.97589e-06 0)
(1.00001 3.55736e-05 0)
(1.00003 6.91206e-05 0)
(1.00005 0.000108797 0)
(1.00006 0.00015408 0)
(1.00005 0.000203459 0)
(1.00004 0.000254841 0)
(1.00002 0.000302569 0)
(0.998893 0.000115225 0)
(0.998933 3.55845e-05 0)
(0.998973 -2.34908e-05 0)
(0.999014 -6.61341e-05 0)
(0.999055 -9.57438e-05 0)
(0.999094 -0.000115341 0)
(0.999132 -0.000127293 0)
(0.999169 -0.00013353 0)
(0.999204 -0.000135654 0)
(0.999238 -0.000134835 0)
(0.999271 -0.000132079 0)
(0.999303 -0.000128084 0)
(0.999334 -0.000123426 0)
(0.999364 -0.000118511 0)
(0.999393 -0.000113631 0)
(0.999422 -0.000109007 0)
(0.99945 -0.000104757 0)
(0.999478 -0.000100985 0)
(0.999505 -9.77036e-05 0)
(0.999533 -9.49413e-05 0)
(0.99956 -9.26427e-05 0)
(0.999587 -9.07825e-05 0)
(0.999614 -8.9255e-05 0)
(0.999641 -8.79837e-05 0)
(0.999668 -8.68119e-05 0)
(0.999695 -8.56015e-05 0)
(0.999723 -8.4128e-05 0)
(0.999751 -8.21671e-05 0)
(0.999779 -7.93961e-05 0)
(0.999807 -7.5466e-05 0)
(0.999835 -6.99146e-05 0)
(0.999864 -6.22205e-05 0)
(0.999892 -5.17379e-05 0)
(0.99992 -3.77344e-05 0)
(0.999948 -1.93665e-05 0)
(0.999975 4.2757e-06 0)
(0.999999 3.4124e-05 0)
(1.00002 7.09777e-05 0)
(1.00004 0.000115378 0)
(1.00005 0.000167075 0)
(1.00005 0.00022474 0)
(1.00004 0.000285889 0)
(1.00002 0.000343689 0)
(0.998975 0.000109273 0)
(0.999009 2.78706e-05 0)
(0.999043 -3.20385e-05 0)
(0.999077 -7.49893e-05 0)
(0.99911 -0.000104608 0)
(0.999142 -0.000124077 0)
(0.999174 -0.000135838 0)
(0.999204 -0.000141869 0)
(0.999234 -0.000143798 0)
(0.999263 -0.000142802 0)
(0.999292 -0.000139894 0)
(0.99932 -0.000135769 0)
(0.999348 -0.000131003 0)
(0.999375 -0.000125999 0)
(0.999402 -0.000121046 0)
(0.999428 -0.000116364 0)
(0.999455 -0.000112068 0)
(0.999481 -0.000108262 0)
(0.999507 -0.000104953 0)
(0.999533 -0.000102175 0)
(0.999559 -9.98658e-05 0)
(0.999585 -9.80042e-05 0)
(0.999611 -9.64816e-05 0)
(0.999637 -9.52238e-05 0)
(0.999663 -9.4072e-05 0)
(0.99969 -9.28903e-05 0)
(0.999716 -9.14519e-05 0)
(0.999743 -8.95327e-05 0)
(0.999769 -8.68054e-05 0)
(0.999796 -8.29155e-05 0)
(0.999823 -7.73867e-05 0)
(0.999851 -6.96753e-05 0)
(0.999878 -5.90945e-05 0)
(0.999905 -4.48454e-05 0)
(0.999932 -2.59739e-05 0)
(0.999959 -1.40085e-06 0)
(0.999984 3.00716e-05 0)
(1.00001 6.96043e-05 0)
(1.00003 0.00011827 0)
(1.00004 0.000176345 0)
(1.00005 0.000243115 0)
(1.00004 0.000316105 0)
(1.00002 0.000387421 0)
(0.999066 0.000101904 0)
(0.999092 2.09028e-05 0)
(0.999118 -3.83879e-05 0)
(0.999143 -8.07442e-05 0)
(0.999168 -0.000109876 0)
(0.999192 -0.000129007 0)
(0.999217 -0.000140571 0)
(0.999241 -0.000146518 0)
(0.999265 -0.000148459 0)
(0.999289 -0.000147537 0)
(0.999313 -0.000144751 0)
(0.999337 -0.000140772 0)
(0.999362 -0.000136166 0)
(0.999386 -0.000131324 0)
(0.99941 -0.000126528 0)
(0.999435 -0.000121995 0)
(0.99946 -0.000117834 0)
(0.999484 -0.00011415 0)
(0.999509 -0.000110948 0)
(0.999534 -0.000108262 0)
(0.999559 -0.000106031 0)
(0.999584 -0.000104236 0)
(0.999609 -0.000102768 0)
(0.999634 -0.000101558 0)
(0.999659 -0.000100447 0)
(0.999684 -9.93042e-05 0)
(0.999709 -9.7904e-05 0)
(0.999735 -9.6027e-05 0)
(0.99976 -9.33475e-05 0)
(0.999785 -8.95132e-05 0)
(0.999811 -8.40443e-05 0)
(0.999837 -7.63889e-05 0)
(0.999862 -6.58371e-05 0)
(0.999888 -5.15459e-05 0)
(0.999914 -3.24765e-05 0)
(0.999939 -7.40391e-06 0)
(0.999964 2.51239e-05 0)
(0.999989 6.66547e-05 0)
(1.00001 0.000118901 0)
(1.00003 0.000182904 0)
(1.00004 0.000259066 0)
(1.00004 0.000345468 0)
(1.00002 0.000433784 0)
(0.999169 9.38467e-05 0)
(0.999183 1.38936e-05 0)
(0.999196 -4.44058e-05 0)
(0.99921 -8.59724e-05 0)
(0.999225 -0.000114535 0)
(0.99924 -0.000133316 0)
(0.999256 -0.000144713 0)
(0.999273 -0.000150631 0)
(0.999291 -0.000152652 0)
(0.99931 -0.000151876 0)
(0.99933 -0.000149281 0)
(0.999351 -0.000145516 0)
(0.999372 -0.000141128 0)
(0.999394 -0.000136502 0)
(0.999416 -0.000131907 0)
(0.999439 -0.000127557 0)
(0.999462 -0.000123557 0)
(0.999486 -0.000120012 0)
(0.999509 -0.000116926 0)
(0.999533 -0.000114333 0)
(0.999557 -0.000112175 0)
(0.999581 -0.000110434 0)
(0.999606 -0.000109004 0)
(0.99963 -0.000107819 0)
(0.999654 -0.000106726 0)
(0.999678 -0.000105598 0)
(0.999702 -0.000104217 0)
(0.999727 -0.000102371 0)
(0.999751 -9.97421e-05 0)
(0.999774 -9.59902e-05 0)
(0.999798 -9.06445e-05 0)
(0.999822 -8.31621e-05 0)
(0.999846 -7.28348e-05 0)
(0.999869 -5.88085e-05 0)
(0.999893 -4.00014e-05 0)
(0.999917 -1.50909e-05 0)
(0.999941 1.75878e-05 0)
(0.999965 5.99623e-05 0)
(0.999987 0.000114505 0)
(1.00001 0.000183333 0)
(1.00002 0.000268856 0)
(1.00003 0.000371053 0)
(1.00002 0.000482682 0)
(0.99928 9.32601e-05 0)
(0.999277 1.49243e-05 0)
(0.999276 -4.24361e-05 0)
(0.999278 -8.36321e-05 0)
(0.999281 -0.000112237 0)
(0.999287 -0.000131359 0)
(0.999295 -0.000143297 0)
(0.999305 -0.000149869 0)
(0.999317 -0.000152604 0)
(0.999331 -0.000152552 0)
(0.999346 -0.000150664 0)
(0.999364 -0.000147566 0)
(0.999382 -0.000143795 0)
(0.999401 -0.000139722 0)
(0.999422 -0.000135618 0)
(0.999443 -0.000131695 0)
(0.999465 -0.000128058 0)
(0.999487 -0.000124817 0)
(0.99951 -0.000121976 0)
(0.999533 -0.000119577 0)
(0.999556 -0.000117564 0)
(0.99958 -0.000115924 0)
(0.999603 -0.000114556 0)
(0.999627 -0.0001134 0)
(0.99965 -0.000112305 0)
(0.999673 -0.000111155 0)
(0.999696 -0.000109735 0)
(0.999719 -0.000107846 0)
(0.999742 -0.000105179 0)
(0.999764 -0.000101407 0)
(0.999786 -9.60746e-05 0)
(0.999807 -8.86572e-05 0)
(0.999828 -7.84645e-05 0)
(0.999849 -6.46568e-05 0)
(0.99987 -4.6156e-05 0)
(0.999891 -2.16065e-05 0)
(0.999912 1.07526e-05 0)
(0.999933 5.31105e-05 0)
(0.999955 0.000108499 0)
(0.999978 0.000180184 0)
(0.999998 0.000272971 0)
(1.00002 0.000390765 0)
(1.00001 0.000532872 0)
(0.999388 9.23745e-05 0)
(0.999366 1.57926e-05 0)
(0.999349 -4.05872e-05 0)
(0.999336 -8.14069e-05 0)
(0.999328 -0.000110063 0)
(0.999324 -0.000129536 0)
(0.999324 -0.000142027 0)
(0.999327 -0.000149261 0)
(0.999334 -0.000152715 0)
(0.999344 -0.000153391 0)
(0.999356 -0.00015221 0)
(0.99937 -0.000149777 0)
(0.999387 -0.000146615 0)
(0.999404 -0.000143091 0)
(0.999423 -0.000139469 0)
(0.999444 -0.000135962 0)
(0.999465 -0.000132677 0)
(0.999486 -0.000129723 0)
(0.999509 -0.000127113 0)
(0.999531 -0.000124889 0)
(0.999554 -0.000122999 0)
(0.999577 -0.000121437 0)
(0.9996 -0.000120104 0)
(0.999623 -0.000118947 0)
(0.999646 -0.000117821 0)
(0.999669 -0.000116615 0)
(0.999691 -0.000115124 0)
(0.999713 -0.000113158 0)
(0.999734 -0.000110421 0)
(0.999754 -0.000106604 0)
(0.999774 -0.000101272 0)
(0.999793 -9.39308e-05 0)
(0.999812 -8.39253e-05 0)
(0.999829 -7.04596e-05 0)
(0.999846 -5.25101e-05 0)
(0.999863 -2.87649e-05 0)
(0.999879 2.50344e-06 0)
(0.999896 4.3579e-05 0)
(0.999913 9.78428e-05 0)
(0.999933 0.00016956 0)
(0.999953 0.000266667 0)
(0.999984 0.000398678 0)
(0.999993 0.000579052 0)
(0.999497 0.000108987 0)
(0.999452 3.14228e-05 0)
(0.999417 -2.64636e-05 0)
(0.999389 -6.90648e-05 0)
(0.999369 -9.96193e-05 0)
(0.999356 -0.00012099 0)
(0.999348 -0.000135321 0)
(0.999346 -0.000144284 0)
(0.999348 -0.000149333 0)
(0.999353 -0.000151454 0)
(0.999363 -0.000151566 0)
(0.999375 -0.000150272 0)
(0.999389 -0.000148103 0)
(0.999406 -0.000145431 0)
(0.999424 -0.000142534 0)
(0.999443 -0.00013963 0)
(0.999464 -0.00013684 0)
(0.999485 -0.000134281 0)
(0.999507 -0.000131974 0)
(0.99953 -0.000129971 0)
(0.999552 -0.000128227 0)
(0.999575 -0.000126742 0)
(0.999598 -0.000125423 0)
(0.999621 -0.000124221 0)
(0.999643 -0.000122996 0)
(0.999665 -0.000121643 0)
(0.999686 -0.00011996 0)
(0.999707 -0.000117764 0)
(0.999727 -0.000114768 0)
(0.999746 -0.000110672 0)
(0.999764 -0.000105056 0)
(0.999781 -9.74439e-05 0)
(0.999796 -8.72099e-05 0)
(0.99981 -7.35931e-05 0)
(0.999822 -5.56352e-05 0)
(0.999833 -3.20821e-05 0)
(0.999842 -1.38964e-06 0)
(0.999851 3.86893e-05 0)
(0.999859 9.08934e-05 0)
(0.99987 0.000160094 0)
(0.999878 0.000252686 0)
(0.999913 0.000387211 0)
(0.999917 0.000609756 0)
(0.998603 1.55043e-05 0)
(0.998636 7.87384e-06 0)
(0.998681 1.91244e-06 0)
(0.998734 -2.60875e-06 0)
(0.998792 -5.91837e-06 0)
(0.998852 -8.23928e-06 0)
(0.998913 -9.77296e-06 0)
(0.998974 -1.06905e-05 0)
(0.999032 -1.11463e-05 0)
(0.999089 -1.12582e-05 0)
(0.999143 -1.11315e-05 0)
(0.999194 -1.08423e-05 0)
(0.999242 -1.04552e-05 0)
(0.999288 -1.00166e-05 0)
(0.999332 -9.56196e-06 0)
(0.999373 -9.1173e-06 0)
(0.999412 -8.69869e-06 0)
(0.99945 -8.31887e-06 0)
(0.999487 -7.98161e-06 0)
(0.999522 -7.69068e-06 0)
(0.999557 -7.44188e-06 0)
(0.999591 -7.23243e-06 0)
(0.999624 -7.05215e-06 0)
(0.999657 -6.89248e-06 0)
(0.99969 -6.73755e-06 0)
(0.999724 -6.57247e-06 0)
(0.999757 -6.37478e-06 0)
(0.99979 -6.12196e-06 0)
(0.999823 -5.78375e-06 0)
(0.999856 -5.32886e-06 0)
(0.999888 -4.71912e-06 0)
(0.99992 -3.91544e-06 0)
(0.99995 -2.87519e-06 0)
(0.999979 -1.5578e-06 0)
(1 7.30212e-08 0)
(1.00003 2.04372e-06 0)
(1.00004 4.36295e-06 0)
(1.00006 7.01671e-06 0)
(1.00006 9.95712e-06 0)
(1.00006 1.31049e-05 0)
(1.00005 1.63271e-05 0)
(1.00004 1.95461e-05 0)
(1.00001 2.24548e-05 0)
(0.99859 5.77917e-05 0)
(0.998598 9.24724e-05 0)
(0.998611 0.000124509 0)
(0.998629 0.000154003 0)
(0.998656 0.000177492 0)
(0.998689 0.000197624 0)
(0.998733 0.000209563 0)
(0.99879 0.000218062 0)
(0.998858 0.00021818 0)
(0.998943 0.000215517 0)
(0.999041 0.000208448 0)
(0.999156 0.000199671 0)
(0.999283 0.000196796 0)
(0.999414 0.000193301 0)
(0.999549 0.000210037 0)
(0.998587 2.48247e-05 0)
(0.998593 8.38753e-05 0)
(0.998598 0.000134742 0)
(0.998608 0.000182704 0)
(0.998622 0.000227679 0)
(0.998643 0.000265682 0)
(0.998671 0.00029939 0)
(0.99871 0.000323079 0)
(0.998762 0.000341939 0)
(0.998828 0.000349437 0)
(0.998914 0.00035248 0)
(0.999016 0.000347218 0)
(0.999142 0.000338746 0)
(0.999286 0.000333206 0)
(0.999442 0.000326446 0)
(0.99961 0.000342198 0)
(0.99859 3.60162e-05 0)
(0.998622 0.000115319 0)
(0.998624 0.000185841 0)
(0.99863 0.000253391 0)
(0.998637 0.000317684 0)
(0.998652 0.000374284 0)
(0.998672 0.000425815 0)
(0.998703 0.000465669 0)
(0.998747 0.000499338 0)
(0.998807 0.000518443 0)
(0.99889 0.000531131 0)
(0.998993 0.00053055 0)
(0.999128 0.000524552 0)
(0.999287 0.00051643 0)
(0.999473 0.000505965 0)
(0.99968 0.000518867 0)
(0.99862 4.9503e-05 0)
(0.998683 0.000151245 0)
(0.998681 0.000244398 0)
(0.998682 0.000334816 0)
(0.998683 0.000422021 0)
(0.998689 0.000501298 0)
(0.9987 0.000575156 0)
(0.99872 0.000636241 0)
(0.998753 0.000690195 0)
(0.998802 0.000726672 0)
(0.998876 0.000754821 0)
(0.998975 0.000763944 0)
(0.999114 0.000764534 0)
(0.999287 0.000755043 0)
(0.999504 0.000740412 0)
(0.999756 0.000746415 0)
(0.998683 6.49061e-05 0)
(0.998782 0.000191048 0)
(0.998776 0.000309472 0)
(0.998772 0.000425781 0)
(0.998765 0.000539356 0)
(0.998761 0.000645449 0)
(0.99876 0.000746459 0)
(0.998768 0.000834575 0)
(0.998786 0.000915516 0)
(0.99882 0.00097711 0)
(0.998881 0.00102932 0)
(0.998968 0.00105692 0)
(0.999103 0.00107257 0)
(0.999283 0.00106715 0)
(0.999529 0.00105006 0)
(0.999836 0.00104344 0)
(0.998783 8.19631e-05 0)
(0.998923 0.000233371 0)
(0.998913 0.000378884 0)
(0.998904 0.000523334 0)
(0.998889 0.000666053 0)
(0.998876 0.000802585 0)
(0.998863 0.000935289 0)
(0.998856 0.00105639 0)
(0.998858 0.00117178 0)
(0.998874 0.0012681 0)
(0.998914 0.00135637 0)
(0.998982 0.00141715 0)
(0.999102 0.00146577 0)
(0.999276 0.00148346 0)
(0.999542 0.00148294 0)
(0.99991 0.00147425 0)
(0.998926 0.000100091 0)
(0.99911 0.000276405 0)
(0.999096 0.000449673 0)
(0.999082 0.000623341 0)
(0.99906 0.000796794 0)
(0.999038 0.000966205 0)
(0.999014 0.00113399 0)
(0.998993 0.00129302 0)
(0.998978 0.00144948 0)
(0.998975 0.00158994 0)
(0.998993 0.00172708 0)
(0.999039 0.00183911 0)
(0.999136 0.00194658 0)
(0.999292 0.00202295 0)
(0.999557 0.00209034 0)
(0.999969 0.00213844 0)
(0.999113 0.000118513 0)
(0.999342 0.000317675 0)
(0.999327 0.000517761 0)
(0.999308 0.000720026 0)
(0.999281 0.000923979 0)
(0.999252 0.00112672 0)
(0.999218 0.00133074 0)
(0.999185 0.00153004 0)
(0.999155 0.00173101 0)
(0.999135 0.00192102 0)
(0.999134 0.00211421 0)
(0.999158 0.00228799 0)
(0.999234 0.00246894 0)
(0.999371 0.00262543 0)
(0.999623 0.00279683 0)
(1.00003 0.00295421 0)
(0.999346 0.000136171 0)
(0.999619 0.000354409 0)
(0.999602 0.000578553 0)
(0.999581 0.000806814 0)
(0.99955 0.00103887 0)
(0.999517 0.00127295 0)
(0.999475 0.00151151 0)
(0.999434 0.00175004 0)
(0.999392 0.00199462 0)
(0.999357 0.00223385 0)
(0.999337 0.00248173 0)
(0.999341 0.00271461 0)
(0.999392 0.00296051 0)
(0.999504 0.00317937 0)
(0.999727 0.00341586 0)
(1.00009 0.00361673 0)
(0.999624 0.000151877 0)
(0.999934 0.000383628 0)
(0.999917 0.000627103 0)
(0.999896 0.000876631 0)
(0.999864 0.00113206 0)
(0.999828 0.00139288 0)
(0.999783 0.00166144 0)
(0.999736 0.00193498 0)
(0.999685 0.00221891 0)
(0.999638 0.00250368 0)
(0.999599 0.00280197 0)
(0.999579 0.00309021 0)
(0.999597 0.00339537 0)
(0.999668 0.00367071 0)
(0.999837 0.00396332 0)
(1.00013 0.00420038 0)
(0.999939 0.000164359 0)
(1.00028 0.000402496 0)
(1.00026 0.000658694 0)
(1.00024 0.000922679 0)
(1.00021 0.00119447 0)
(1.00018 0.00147483 0)
(1.00013 0.00176592 0)
(1.00008 0.00206698 0)
(1.00003 0.0023824 0)
(0.999971 0.0027052 0)
(0.999914 0.00304585 0)
(0.99987 0.00338249 0)
(0.999848 0.00373909 0)
(0.999866 0.00406562 0)
(0.999962 0.00440898 0)
(1.00016 0.00468202 0)
(1.00028 0.000172404 0)
(1.00064 0.000408548 0)
(1.00063 0.000669205 0)
(1.00061 0.000938989 0)
(1.00059 0.00121804 0)
(1.00055 0.00150836 0)
(1.00051 0.00181183 0)
(1.00047 0.00212987 0)
(1.00041 0.00246568 0)
(1.00035 0.00281563 0)
(1.00027 0.00318755 0)
(1.0002 0.00356332 0)
(1.00014 0.00396262 0)
(1.00009 0.004336 0)
(1.0001 0.00472724 0)
(1.00017 0.00503835 0)
(1.00065 0.00017496 0)
(1.00101 0.000399995 0)
(1.001 0.000655618 0)
(1.00099 0.000921114 0)
(1.00097 0.00119665 0)
(1.00094 0.00148532 0)
(1.00091 0.0017886 0)
(1.00086 0.00211011 0)
(1.00081 0.0024518 0)
(1.00075 0.00281408 0)
(1.00066 0.00320197 0)
(1.00057 0.00360331 0)
(1.00047 0.00403273 0)
(1.00035 0.00444577 0)
(1.00025 0.00487935 0)
(1.00018 0.00522846 0)
(1.00101 0.000171267 0)
(1.00136 0.000376017 0)
(1.00136 0.000616505 0)
(1.00135 0.000866841 0)
(1.00134 0.00112708 0)
(1.00132 0.00140108 0)
(1.00129 0.00168976 0)
(1.00126 0.0019987 0)
(1.00121 0.00232852 0)
(1.00115 0.00268404 0)
(1.00107 0.00306759 0)
(1.00096 0.00347514 0)
(1.00082 0.00391644 0)
(1.00064 0.00435762 0)
(1.00043 0.00482695 0)
(1.00019 0.00521983 0)
(1.00137 0.000160975 0)
(1.00169 0.000336921 0)
(1.00169 0.000552312 0)
(1.00168 0.000776642 0)
(1.00168 0.00100965 0)
(1.00167 0.00125548 0)
(1.00165 0.00151421 0)
(1.00163 0.0017928 0)
(1.00159 0.00209021 0)
(1.00154 0.00241535 0)
(1.00146 0.00276762 0)
(1.00135 0.00315247 0)
(1.00118 0.00357515 0)
(1.00095 0.00401825 0)
(1.00062 0.00450191 0)
(1.0002 0.0049325 0)
(1.00169 0.000144223 0)
(1.00197 0.000284427 0)
(1.00197 0.000465858 0)
(1.00197 0.000654443 0)
(1.00197 0.000849368 0)
(1.00197 0.00105452 0)
(1.00196 0.0012687 0)
(1.00195 0.00149928 0)
(1.00192 0.0017429 0)
(1.00188 0.00201103 0)
(1.00181 0.00229904 0)
(1.0017 0.00262076 0)
(1.00153 0.00297559 0)
(1.00126 0.00336692 0)
(1.00085 0.00380938 0)
(1.00023 0.00424046 0)
(1.00197 0.00012175 0)
(1.00219 0.000221382 0)
(1.00219 0.000361884 0)
(1.00219 0.000507071 0)
(1.0022 0.00065539 0)
(1.0022 0.000809945 0)
(1.00219 0.000967918 0)
(1.00219 0.00113596 0)
(1.00217 0.00130761 0)
(1.00213 0.00149447 0)
(1.00207 0.00168569 0)
(1.00197 0.00189872 0)
(1.0018 0.00212111 0)
(1.00153 0.00237235 0)
(1.00107 0.00265275 0)
(1.00032 0.00295339 0)
(1.00219 9.4772e-05 0)
(1.00234 0.000151794 0)
(1.00234 0.000247127 0)
(1.00235 0.000344357 0)
(1.00235 0.000441176 0)
(1.00235 0.000539619 0)
(1.00234 0.000635233 0)
(1.00233 0.000733209 0)
(1.00231 0.000823937 0)
(1.00227 0.000917192 0)
(1.0022 0.000995047 0)
(1.00209 0.00107321 0)
(1.0019 0.00112157 0)
(1.00161 0.00116159 0)
(1.00114 0.00115085 0)
(1.00034 0.00111655 0)
(1.00234 6.50018e-05 0)
(1.00242 7.99185e-05 0)
(1.00242 0.000128735 0)
(1.00242 0.000176758 0)
(1.00242 0.000221101 0)
(1.00242 0.00026278 0)
(1.00241 0.000296178 0)
(1.00239 0.000325114 0)
(1.00235 0.000338182 0)
(1.00229 0.000343761 0)
(1.0022 0.000320796 0)
(1.00207 0.000285219 0)
(1.00185 0.000200938 0)
(1.00153 9.79889e-05 0)
(1.00105 -7.64832e-05 0)
(1.00032 -0.000253498 0)
(1.00242 3.42526e-05 0)
(1.00243 9.9139e-06 0)
(1.00243 1.3677e-05 0)
(1.00242 1.44118e-05 0)
(1.00242 8.95293e-06 0)
(1.0024 -2.43755e-06 0)
(1.00238 -2.58947e-05 0)
(1.00235 -5.85842e-05 0)
(1.0023 -0.000112195 0)
(1.00222 -0.00017913 0)
(1.00211 -0.000280041 0)
(1.00195 -0.000397823 0)
(1.00172 -0.000566392 0)
(1.00139 -0.000746941 0)
(1.00095 -0.000987227 0)
(1.00034 -0.0011934 0)
(1.00243 4.2984e-06 0)
(1.00238 -4.95735e-05 0)
(1.00237 -8.38265e-05 0)
(1.00236 -0.000122591 0)
(1.00235 -0.000168994 0)
(1.00233 -0.000223169 0)
(1.00229 -0.000291163 0)
(1.00225 -0.000370648 0)
(1.00218 -0.000472472 0)
(1.00209 -0.000589344 0)
(1.00196 -0.000739498 0)
(1.00178 -0.000905121 0)
(1.00155 -0.00111497 0)
(1.00124 -0.00132728 0)
(1.00085 -0.00158289 0)
(1.00036 -0.00178644 0)
(1.00238 -2.11635e-05 0)
(1.00228 -0.000102549 0)
(1.00227 -0.000170411 0)
(1.00226 -0.000243722 0)
(1.00223 -0.000325345 0)
(1.0022 -0.000415558 0)
(1.00216 -0.000519932 0)
(1.0021 -0.000636352 0)
(1.00202 -0.000774208 0)
(1.00191 -0.000926353 0)
(1.00178 -0.00110772 0)
(1.0016 -0.00130052 0)
(1.00137 -0.00152746 0)
(1.00109 -0.00174796 0)
(1.00076 -0.00199549 0)
(1.00039 -0.00218537 0)
(1.00228 -4.38459e-05 0)
(1.00213 -0.000150676 0)
(1.00211 -0.000248763 0)
(1.00209 -0.000352683 0)
(1.00206 -0.000464791 0)
(1.00202 -0.000585283 0)
(1.00197 -0.000718896 0)
(1.0019 -0.000863543 0)
(1.00181 -0.00102669 0)
(1.00169 -0.00120143 0)
(1.00155 -0.00139899 0)
(1.00138 -0.0016027 0)
(1.00117 -0.00182928 0)
(1.00093 -0.00204293 0)
(1.00067 -0.00227013 0)
(1.00041 -0.00244284 0)
(1.00213 -6.44625e-05 0)
(1.00193 -0.000189247 0)
(1.00191 -0.000311272 0)
(1.00189 -0.000439009 0)
(1.00185 -0.000574177 0)
(1.00181 -0.000716738 0)
(1.00175 -0.000870462 0)
(1.00167 -0.00103321 0)
(1.00158 -0.00121053 0)
(1.00146 -0.00139595 0)
(1.00132 -0.00159736 0)
(1.00116 -0.00180005 0)
(1.00098 -0.00201581 0)
(1.00078 -0.00221519 0)
(1.00059 -0.0024187 0)
(1.00042 -0.00257498 0)
(1.00194 -8.09956e-05 0)
(1.00171 -0.000217799 0)
(1.00169 -0.000357277 0)
(1.00166 -0.000501984 0)
(1.00162 -0.000652968 0)
(1.00157 -0.000809896 0)
(1.00151 -0.00097558 0)
(1.00143 -0.00114786 0)
(1.00134 -0.00133057 0)
(1.00122 -0.0015179 0)
(1.0011 -0.00171506 0)
(1.00095 -0.00190974 0)
(1.0008 -0.00211005 0)
(1.00065 -0.00229313 0)
(1.00051 -0.00247482 0)
(1.00041 -0.00261818 0)
(1.00171 -9.32433e-05 0)
(1.00147 -0.000237065 0)
(1.00145 -0.000388064 0)
(1.00142 -0.000543598 0)
(1.00138 -0.000704069 0)
(1.00133 -0.000868859 0)
(1.00126 -0.00103991 0)
(1.00119 -0.00121509 0)
(1.0011 -0.00139686 0)
(1.00099 -0.00158018 0)
(1.00088 -0.00176825 0)
(1.00076 -0.00195124 0)
(1.00064 -0.00213452 0)
(1.00052 -0.00230117 0)
(1.00043 -0.0024631 0)
(1.00039 -0.00259479 0)
(1.00148 -0.000101516 0)
(1.00122 -0.000248037 0)
(1.0012 -0.000405327 0)
(1.00117 -0.000566374 0)
(1.00113 -0.000731008 0)
(1.00108 -0.000898374 0)
(1.00102 -0.00106968 0)
(1.00095 -0.00124291 0)
(1.00087 -0.00141945 0)
(1.00077 -0.00159513 0)
(1.00068 -0.00177167 0)
(1.00058 -0.00194166 0)
(1.00048 -0.00210849 0)
(1.0004 -0.00226034 0)
(1.00036 -0.00240608 0)
(1.00035 -0.00252902 0)
(1.00123 -0.000106237 0)
(1.00098 -0.000252012 0)
(1.00096 -0.000411231 0)
(1.00093 -0.000573435 0)
(1.00089 -0.000737978 0)
(1.00084 -0.000903835 0)
(1.00078 -0.00107163 0)
(1.00072 -0.00123951 0)
(1.00065 -0.00140809 0)
(1.00057 -0.00157405 0)
(1.00049 -0.0017381 0)
(1.00041 -0.00189492 0)
(1.00034 -0.00204652 0)
(1.00029 -0.00218514 0)
(1.00028 -0.00231717 0)
(1.0003 -0.00243246 0)
(1.00098 -0.000107959 0)
(1.00073 -0.000250297 0)
(1.00072 -0.000407943 0)
(1.00069 -0.000567869 0)
(1.00065 -0.000729062 0)
(1.00061 -0.000890395 0)
(1.00056 -0.00105204 0)
(1.0005 -0.00121238 0)
(1.00044 -0.00137146 0)
(1.00038 -0.00152677 0)
(1.00031 -0.00167835 0)
(1.00026 -0.00182264 0)
(1.00021 -0.00196066 0)
(1.00019 -0.00208784 0)
(1.00019 -0.00220856 0)
(1.00024 -0.00231742 0)
(1.00074 -0.000107241 0)
(1.0005 -0.00024417 0)
(1.00049 -0.00039756 0)
(1.00046 -0.000552626 0)
(1.00043 -0.000708089 0)
(1.00039 -0.000862785 0)
(1.00035 -0.00101656 0)
(1.0003 -0.00116804 0)
(1.00025 -0.00131689 0)
(1.0002 -0.00146134 0)
(1.00015 -0.00160097 0)
(1.00011 -0.00173367 0)
(1.00009 -0.00185977 0)
(1.00009 -0.00197708 0)
(1.00011 -0.00208847 0)
(1.00017 -0.00219201 0)
(1.00051 -0.00010463 0)
(1.00029 -0.000234796 0)
(1.00027 -0.000381983 0)
(1.00025 -0.000530358 0)
(1.00022 -0.000678463 0)