/*--------------------------------*- C++ -*----------------------------------*\
| =========                 |                                                 |
| \\      /  F ield         | foam-extend: Open Source CFD                    |
|  \\    /   O peration     | Version:     4.1-20200408                       |
|   \\  /    A nd           | Web:         http://www.foam-extend.org         |
|    \\/     M anipulation  |                                                 |
\*---------------------------------------------------------------------------*/
FoamFile
{
    version     2.0;
    format      ascii;
    class       volScalarField;
    location    "0.00010";
    object      epsilonPEq;
}
// * * * * * * * * * * * * * * * * * * * * * * * * * * * * * * * * * * * * * //

dimensions      [0 0 0 0 0 0 0];

internalField   nonuniform List<scalar> 6(0 0 0.116576 0.293185 0.33637 0.278627);

boundaryField
{
    wireDownstream
    {
        type            calculated;
        value           uniform 0;
    }
    wireUpstream
    {
        type            calculated;
        value           uniform 0.267623;
    }
    wireTopContact
    {
        type            calculated;
        value           nonuniform List<scalar> 6(0 0 0.116574 0.293193 0.336374 0.278621);
    }
    front
    {
        type            wedge;
    }
    back
    {
        type            wedge;
    }
}


// ************************************************************************* //
