/*--------------------------------*- C++ -*----------------------------------*\
| =========                 |                                                 |
| \\      /  F ield         | foam-extend: Open Source CFD                    |
|  \\    /   O peration     | Version:     4.1-20200408                       |
|   \\  /    A nd           | Web:         http://www.foam-extend.org         |
|    \\/     M anipulation  |                                                 |
\*---------------------------------------------------------------------------*/
FoamFile
{
    version     2.0;
    format      ascii;
    class       volSymmTensorField;
    location    "0.0790000";
    object      bEbar;
}
// * * * * * * * * * * * * * * * * * * * * * * * * * * * * * * * * * * * * * //

dimensions      [0 0 0 0 0 0 0];

internalField   nonuniform List<symmTensor> 
1952
(
(0.994152 2.40052e-05 -8.1885e-11 1.00286 -1.95667e-11 1.00302)
(0.994414 1.24481e-05 -5.46432e-11 1.00259 4.53623e-11 1.00302)
(0.99468 4.62563e-05 6.42888e-11 1.0023 1.29972e-10 1.00304)
(0.995163 2.91913e-05 1.72986e-10 1.00186 -1.3899e-10 1.003)
(0.995598 6.79376e-05 -4.29624e-11 1.00141 -3.61936e-10 1.003)
(0.996178 4.76348e-05 -2.27417e-10 1.00088 3.48613e-11 1.00295)
(0.996898 9.02225e-05 -5.99019e-11 1.00031 5.52164e-10 1.0028)
(0.997949 6.79019e-05 8.70718e-11 0.999522 -5.04694e-11 1.00253)
(0.999032 0.000114081 -1.68155e-11 0.998758 -5.76376e-10 1.00221)
(1.00049 9.09805e-05 -6.39785e-11 0.997649 3.45282e-10 1.00187)
(1.00231 0.000141697 3.55355e-11 0.996503 6.40005e-10 1.0012)
(1.00463 0.000119917 3.01008e-11 0.994694 -3.68757e-10 1.0007)
(1.00718 0.000178747 -2.17666e-12 0.993061 -6.35231e-10 0.999811)
(1.00866 0.000165898 -1.39191e-11 0.991294 4.05214e-10 1.00012)
(1.0093 0.0002489 -1.64301e-11 0.990629 2.2517e-10 1.00015)
(0.994137 8.0631e-07 -1.73141e-11 1.00292 4.59264e-11 1.00297)
(0.994136 5.32557e-05 -1.63837e-10 1.00286 -2.06653e-11 1.00303)
(0.994398 3.28892e-05 -1.0932e-10 1.0026 4.64146e-11 1.00303)
(0.994666 0.000103957 1.28657e-10 1.0023 1.35103e-10 1.00305)
(0.99515 7.1986e-05 3.46149e-10 1.00186 -1.39564e-10 1.003)
(0.995587 0.000152989 -8.59895e-11 1.00142 -3.71103e-10 1.00301)
(0.99617 0.000113871 -4.54999e-10 1.00088 3.09645e-11 1.00296)
(0.996893 0.000201708 -1.19903e-10 1.00031 5.6185e-10 1.00281)
(0.997948 0.000157076 1.7384e-10 0.999518 -4.62061e-11 1.00254)
(0.999036 0.000250082 -3.36497e-11 0.998749 -5.84468e-10 1.00222)
(1.0005 0.000199803 -1.27295e-10 0.997634 3.44558e-10 1.00187)
(1.00233 0.000295263 7.05868e-11 0.996482 6.46763e-10 1.0012)
(1.00466 0.000236481 5.86759e-11 0.994664 -3.68666e-10 1.0007)
(1.00722 0.00032795 -4.24113e-12 0.993021 -6.41581e-10 0.999812)
(1.00872 0.000250946 -2.18619e-11 0.991238 4.04044e-10 1.00012)
(1.00938 0.000317246 -2.6709e-11 0.990558 2.27262e-10 1.00015)
(0.99412 3.67447e-06 -3.46745e-11 1.00293 4.90918e-11 1.00297)
(0.994133 5.7105e-05 -1.63955e-10 1.00286 -2.09766e-11 1.00303)
(0.994396 3.84884e-05 -1.0937e-10 1.0026 4.6955e-11 1.00303)
(0.994664 0.000112419 1.28757e-10 1.0023 1.36867e-10 1.00306)
(0.99515 8.18121e-05 3.46319e-10 1.00186 -1.40378e-10 1.00301)
(0.995588 0.000165649 -8.60884e-11 1.00141 -3.74193e-10 1.00301)
(0.996172 0.000127297 -4.55414e-10 1.00088 3.05931e-11 1.00296)
(0.996897 0.000217403 -1.20013e-10 1.0003 5.65423e-10 1.00281)
(0.997955 0.000172705 1.74059e-10 0.999511 -4.52583e-11 1.00254)
(0.999045 0.000266788 -3.36897e-11 0.99874 -5.87084e-10 1.00222)
(1.00051 0.000214804 -1.27434e-10 0.997624 3.44336e-10 1.00187)
(1.00234 0.000309691 7.0462e-11 0.996469 6.48591e-10 1.0012)
(1.00467 0.000247015 5.89194e-11 0.994651 -3.68247e-10 1.0007)
(1.00723 0.000335909 -4.2367e-12 0.993008 -6.43298e-10 0.999816)
(1.00872 0.00025317 -2.22078e-11 0.991233 4.0256e-10 1.00013)
(1.00935 0.000317292 -2.70847e-11 0.99057 2.27684e-10 1.00017)
(0.994117 5.09201e-06 -3.47044e-11 1.00293 5.03306e-11 1.00298)
(0.994137 5.98864e-05 -1.64075e-10 1.00286 -2.11576e-11 1.00303)
(0.994401 4.24308e-05 -1.09424e-10 1.00259 4.7328e-11 1.00303)
(0.99467 0.000118437 1.28869e-10 1.0023 1.37935e-10 1.00305)
(0.995156 8.86477e-05 3.46518e-10 1.00186 -1.41068e-10 1.003)
(0.995596 0.000174263 -8.61837e-11 1.00141 -3.76162e-10 1.00301)
(0.996181 0.000136105 -4.557e-10 1.00087 3.04485e-11 1.00296)
(0.996908 0.000227553 -1.20201e-10 1.00029 5.6751e-10 1.00281)
(0.997967 0.00018211 1.73818e-10 0.999502 -4.48036e-11 1.00254)
(0.999058 0.000276598 -3.37448e-11 0.998729 -5.8844e-10 1.00222)
(1.00052 0.000222695 -1.27505e-10 0.997612 3.44325e-10 1.00187)
(1.00235 0.000316482 7.04771e-11 0.996457 6.49466e-10 1.0012)
(1.00469 0.000250041 5.90774e-11 0.994638 -3.67944e-10 1.0007)
(1.00724 0.000336153 -4.23031e-12 0.992998 -6.43995e-10 0.999815)
(1.00872 0.000248683 -2.26704e-11 0.991227 4.01801e-10 1.00013)
(1.00935 0.000314831 -2.77118e-11 0.99057 2.27883e-10 1.00017)
(0.994121 6.06242e-06 -3.47424e-11 1.00293 5.11068e-11 1.00297)
(0.994152 6.16977e-05 -1.64202e-10 1.00285 -2.12564e-11 1.00302)
(0.994416 4.49951e-05 -1.09481e-10 1.00259 4.75306e-11 1.00302)
(0.994686 0.000122085 1.28986e-10 1.00229 1.38486e-10 1.00305)
(0.995173 9.28137e-05 3.46704e-10 1.00185 -1.41362e-10 1.003)
(0.995614 0.000179219 -8.62973e-11 1.0014 -3.77027e-10 1.003)
(0.9962 0.000141233 -4.56113e-10 1.00086 3.03333e-11 1.00295)
(0.996928 0.000232743 -1.2036e-10 1.00028 5.68362e-10 1.0028)
(0.997988 0.000186836 1.74077e-10 0.999489 -4.45353e-11 1.00253)
(0.99908 0.000280625 -3.37867e-11 0.998715 -5.88855e-10 1.00221)
(1.00054 0.000225134 -1.27802e-10 0.997598 3.44022e-10 1.00186)
(1.00237 0.00031738 7.0473e-11 0.996443 6.49495e-10 1.00119)
(1.0047 0.000248561 5.9537e-11 0.994627 -3.67552e-10 1.0007)
(1.00725 0.000333394 -4.22843e-12 0.992989 -6.43961e-10 0.999812)
(1.00873 0.000244671 -2.33582e-11 0.991224 4.01107e-10 1.00013)
(1.00934 0.000312886 -2.81872e-11 0.990575 2.27856e-10 1.00017)
(0.994136 6.6954e-06 -3.47725e-11 1.00292 5.15152e-11 1.00297)
(0.994174 6.26351e-05 -1.64341e-10 1.00284 -2.12866e-11 1.00301)
(0.994438 4.61575e-05 -1.0954e-10 1.00258 4.75758e-11 1.00301)
(0.994708 0.000123868 1.29095e-10 1.00228 1.3859e-10 1.00304)
(0.995196 9.46936e-05 3.4684e-10 1.00184 -1.41388e-10 1.00298)
(0.995637 0.0001812 -8.64015e-11 1.00139 -3.77082e-10 1.00299)
(0.996224 0.000142784 -4.56432e-10 1.00085 3.02452e-11 1.00294)
(0.996952 0.000233968 -1.20582e-10 1.00027 5.68263e-10 1.00279)
(0.998012 0.000187073 1.73997e-10 0.999474 -4.43972e-11 1.00252)
(0.999104 0.000279762 -3.38435e-11 0.9987 -5.88576e-10 1.0022)
(1.00057 0.000222954 -1.27983e-10 0.997584 3.43567e-10 1.00185)
(1.0024 0.000313873 7.05633e-11 0.99643 6.48967e-10 1.00118)
(1.00472 0.000243422 5.99225e-11 0.994616 -3.67071e-10 1.00069)
(1.00726 0.000327435 -4.22955e-12 0.992982 -6.43414e-10 0.999806)
(1.00873 0.000238892 -2.40094e-11 0.991221 4.00599e-10 1.00012)
(1.00934 0.000310507 -2.86657e-11 0.990578 2.27675e-10 1.00017)
(0.994157 6.96197e-06 -3.47946e-11 1.00291 5.16035e-11 1.00296)
(0.994201 6.27917e-05 -1.64486e-10 1.00283 -2.12671e-11 1.00299)
(0.994465 4.60373e-05 -1.09598e-10 1.00256 4.74813e-11 1.003)
(0.994736 0.000123818 1.29214e-10 1.00226 1.38367e-10 1.00302)
(0.995224 9.41799e-05 3.47017e-10 1.00182 -1.41149e-10 1.00297)
(0.995665 0.000180456 -8.65094e-11 1.00137 -3.76546e-10 1.00298)
(0.996252 0.000141668 -4.56805e-10 1.00084 3.01117e-11 1.00292)
(0.99698 0.00023213 -1.20774e-10 1.00025 5.67544e-10 1.00278)
(0.99804 0.000184445 1.74143e-10 0.999459 -4.42981e-11 1.00251)
(0.999131 0.000275863 -3.38876e-11 0.998685 -5.8777e-10 1.00219)
(1.00059 0.000217675 -1.28455e-10 0.99757 3.42994e-10 1.00184)
(1.00242 0.000307514 7.06081e-11 0.996418 6.48006e-10 1.00117)
(1.00474 0.000236165 6.0518e-11 0.994606 -3.66484e-10 1.00068)
(1.00728 0.000320844 -4.23094e-12 0.992975 -6.4246e-10 0.999798)
(1.00874 0.000233263 -2.47829e-11 0.991219 4.00225e-10 1.00012)
(1.00934 0.000308422 -2.90523e-11 0.99058 2.27379e-10 1.00016)
(0.994184 6.89501e-06 -3.48182e-11 1.0029 5.14445e-11 1.00294)
(0.994232 6.25028e-05 -1.64606e-10 1.00281 -2.12089e-11 1.00298)
(0.994496 4.52074e-05 -1.09648e-10 1.00255 4.73098e-11 1.00298)
(0.994766 0.000122745 1.29326e-10 1.00225 1.37903e-10 1.00301)
(0.995254 9.24423e-05 3.47189e-10 1.00181 -1.40741e-10 1.00296)
(0.995696 0.000177988 -8.66139e-11 1.00135 -3.75534e-10 1.00296)
(0.996283 0.000138252 -4.57127e-10 1.00082 2.99706e-11 1.00291)
(0.99701 0.00022765 -1.21e-10 1.00024 5.66312e-10 1.00276)
(0.998069 0.000178783 1.74124e-10 0.999444 -4.41821e-11 1.00249)
(0.999158 0.000269288 -3.39429e-11 0.998671 -5.86547e-10 1.00217)
(1.00062 0.000210498 -1.28753e-10 0.997557 3.42411e-10 1.00183)
(1.00244 0.000299845 7.07793e-11 0.996407 6.46735e-10 1.00116)
(1.00476 0.000228224 6.08359e-11 0.994597 -3.66036e-10 1.00067)
(1.00729 0.000313389 -4.23313e-12 0.992969 -6.41231e-10 0.999788)
(1.00875 0.000227754 -2.54156e-11 0.991216 4.00073e-10 1.00011)
(1.00935 0.000306289 -2.94154e-11 0.990581 2.27009e-10 1.00016)
(0.994215 6.63596e-06 -3.48566e-11 1.00288 5.11141e-11 1.00293)
(0.994265 6.15194e-05 -1.6475e-10 1.0028 -2.11234e-11 1.00296)
(0.994529 4.32132e-05 -1.09706e-10 1.00253 4.70594e-11 1.00296)
(0.994799 0.000120165 1.29431e-10 1.00223 1.37256e-10 1.00299)
(0.995287 8.88003e-05 3.47319e-10 1.00179 -1.40104e-10 1.00294)
(0.995728 0.000173642 -8.67198e-11 1.00134 -3.74163e-10 1.00295)
(0.996314 0.000133178 -4.57463e-10 1.0008 2.97486e-11 1.00289)
(0.997041 0.000221692 -1.21214e-10 1.00022 5.64756e-10 1.00275)
(0.998099 0.000172284 1.74383e-10 0.999429 -4.40123e-11 1.00248)
(0.999187 0.000261751 -3.39783e-11 0.998657 -5.85071e-10 1.00216)
(1.00064 0.0002021 -1.29297e-10 0.997544 3.41602e-10 1.00182)
(1.00247 0.000290902 7.08202e-11 0.996396 6.45213e-10 1.00115)
(1.00478 0.000219533 6.15134e-11 0.994588 -3.65472e-10 1.00066)
(1.00731 0.000306168 -4.23929e-12 0.992963 -6.3984e-10 0.999778)
(1.00877 0.000222591 -2.5765e-11 0.991213 3.99942e-10 1.0001)
(1.00936 0.000304355 -2.97224e-11 0.99058 2.26565e-10 1.00015)
(0.994248 6.06772e-06 -3.49157e-11 1.00287 5.06436e-11 1.00291)
(0.994299 6.02606e-05 -1.64868e-10 1.00278 -2.10123e-11 1.00295)
(0.994563 4.08488e-05 -1.09749e-10 1.00251 4.67645e-11 1.00295)
(0.994833 0.000117189 1.29516e-10 1.00221 1.36472e-10 1.00297)
(0.995321 8.49336e-05 3.47424e-10 1.00177 -1.39464e-10 1.00292)
(0.995761 0.000168675 -8.68082e-11 1.00132 -3.72567e-10 1.00293)
(0.996347 0.000127219 -4.57786e-10 1.00079 2.96035e-11 1.00288)
(0.997073 0.00021458 -1.21408e-10 1.0002 5.62915e-10 1.00273)
(0.998129 0.000164325 1.74398e-10 0.999414 -4.39993e-11 1.00246)
(0.999215 0.000252916 -3.403e-11 0.998643 -5.83417e-10 1.00215)
(1.00067 0.000193139 -1.29702e-10 0.997532 3.40934e-10 1.0018)
(1.00249 0.000281638 7.10007e-11 0.996385 6.43595e-10 1.00114)
(1.0048 0.000211535 6.1681e-11 0.99458 -3.64649e-10 1.00064)
(1.00733 0.000299412 -4.24655e-12 0.992957 -6.38178e-10 0.999765)
(1.00878 0.000217265 -2.61935e-11 0.991209 4.00062e-10 1.00009)
(1.00937 0.000302574 -2.99819e-11 0.990578 2.26092e-10 1.00014)
(0.994282 5.37665e-06 -3.49267e-11 1.00285 5.0078e-11 1.00289)
(0.994334 5.87131e-05 -1.64987e-10 1.00276 -2.08963e-11 1.00293)
(0.994598 3.80227e-05 -1.09791e-10 1.00249 4.64335e-11 1.00293)
(0.994867 0.000113446 1.29611e-10 1.0022 1.35632e-10 1.00296)
(0.995354 7.98403e-05 3.47471e-10 1.00176 -1.3866e-10 1.00291)
(0.995795 0.000162604 -8.69078e-11 1.0013 -3.70843e-10 1.00292)
(0.996379 0.000120167 -4.58053e-10 1.00077 2.92659e-11 1.00286)
(0.997104 0.000206344 -1.21633e-10 1.00019 5.61064e-10 1.00272)
(0.998159 0.000155594 1.74747e-10 0.9994 -4.34825e-11 1.00245)
(0.999244 0.000244161 -3.40575e-11 0.99863 -5.81468e-10 1.00213)
(1.0007 0.000184409 -1.30175e-10 0.99752 3.39864e-10 1.00179)
(1.00251 0.000273413 7.11821e-11 0.996375 6.41596e-10 1.00112)
(1.00482 0.00020372 6.21141e-11 0.994571 -3.64176e-10 1.00063)
(1.00735 0.000292975 -4.24638e-12 0.99295 -6.36593e-10 0.999754)
(1.0088 0.000212457 -2.66472e-11 0.991204 4.00177e-10 1.00008)
(1.00938 0.000300928 -3.02091e-11 0.990574 2.25606e-10 1.00013)
(0.994317 4.58332e-06 -3.49546e-11 1.00283 4.94636e-11 1.00287)
(0.994368 5.67985e-05 -1.65087e-10 1.00274 -2.07723e-11 1.00291)
(0.994631 3.44794e-05 -1.09819e-10 1.00248 4.60718e-11 1.00291)
(0.994901 0.000108982 1.29674e-10 1.00218 1.34745e-10 1.00294)
(0.995388 7.40489e-05 3.47546e-10 1.00174 -1.37788e-10 1.00289)
(0.995828 0.000156243 -8.69913e-11 1.00129 -3.68806e-10 1.0029)
(0.996412 0.000112846 -4.58359e-10 1.00076 2.91497e-11 1.00284)
(0.997136 0.000198273 -1.21818e-10 1.00017 5.58775e-10 1.0027)
(0.99819 0.000147559 1.75253e-10 0.999385 -4.34814e-11 1.00243)
(0.999272 0.000235126 -3.40882e-11 0.998616 -5.79745e-10 1.00212)
(1.00072 0.000175798 -1.30406e-10 0.997508 3.38713e-10 1.00177)
(1.00254 0.000265156 7.12079e-11 0.996364 6.3978e-10 1.00111)
(1.00485 0.000196096 6.25189e-11 0.994562 -3.63587e-10 1.00062)
(1.00737 0.000286791 -4.24958e-12 0.992942 -6.35079e-10 0.999742)
(1.00882 0.000208476 -2.70112e-11 0.991197 4.00113e-10 1.00007)
(1.0094 0.00029949 -3.04066e-11 0.990569 2.25109e-10 1.00012)
(0.994351 3.57996e-06 -3.49834e-11 1.00282 4.88075e-11 1.00286)
(0.994402 5.48399e-05 -1.652e-10 1.00273 -2.06282e-11 1.00289)
(0.994665 3.09091e-05 -1.09856e-10 1.00246 4.56887e-11 1.0029)
(0.994935 0.000104459 1.29767e-10 1.00216 1.33759e-10 1.00292)
(0.99542 6.84325e-05 3.47816e-10 1.00172 -1.37028e-10 1.00287)
(0.995859 0.000149615 -8.70564e-11 1.00127 -3.67142e-10 1.00288)
(0.996442 0.000105522 -4.58419e-10 1.00074 2.88065e-11 1.00283)
(0.997165 0.000190356 -1.22017e-10 1.00016 5.56905e-10 1.00268)
(0.998218 0.000139472 1.75064e-10 0.999372 -4.33065e-11 1.00241)
(0.999299 0.000226373 -3.41262e-11 0.998603 -5.78089e-10 1.0021)
(1.00075 0.00016727 -1.30859e-10 0.997495 3.37842e-10 1.00176)
(1.00256 0.000257168 7.12484e-11 0.996353 6.38108e-10 1.0011)
(1.00487 0.000189045 6.30634e-11 0.994552 -3.62974e-10 1.00061)
(1.00739 0.000281352 -4.25091e-12 0.992934 -6.33546e-10 0.999731)
(1.00883 0.00020462 -2.74168e-11 0.99119 4.00089e-10 1.00005)
(1.00942 0.000298307 -3.05603e-11 0.990563 2.24597e-10 1.00011)
(0.994385 2.55368e-06 -3.50063e-11 1.0028 4.81033e-11 1.00284)
(0.994433 5.30575e-05 -1.65284e-10 1.00271 -2.05021e-11 1.00288)
(0.994696 2.77221e-05 -1.09863e-10 1.00245 4.53712e-11 1.00288)
(0.994965 0.000100407 1.29824e-10 1.00215 1.32912e-10 1.00291)
(0.995451 6.31039e-05 3.47719e-10 1.00171 -1.36329e-10 1.00286)
(0.995889 0.000143055 -8.71355e-11 1.00126 -3.65519e-10 1.00287)
(0.996472 9.84165e-05 -4.58626e-10 1.00073 2.8568e-11 1.00281)
(0.997194 0.000182224 -1.22148e-10 1.00014 5.55163e-10 1.00267)
(0.998246 0.000131134 1.75275e-10 0.999358 -4.31177e-11 1.0024)
(0.999325 0.00021771 -3.41555e-11 0.998591 -5.76494e-10 1.00209)
(1.00077 0.000159064 -1.31291e-10 0.997484 3.37065e-10 1.00175)
(1.00259 0.000249127 7.12929e-11 0.996342 6.36479e-10 1.00108)
(1.00489 0.000182225 6.34055e-11 0.994542 -3.62358e-10 1.00059)
(1.00741 0.000276057 -4.25216e-12 0.992925 -6.31974e-10 0.999718)
(1.00885 0.000200961 -2.77666e-11 0.991182 4.00159e-10 1.00004)
(1.00944 0.000297155 -3.07017e-11 0.990556 2.24098e-10 1.0001)
(0.994417 1.63956e-06 -3.50232e-11 1.00278 4.74925e-11 1.00282)
(0.994462 5.11628e-05 -1.65356e-10 1.0027 -2.03985e-11 1.00286)
(0.994725 2.43033e-05 -1.09882e-10 1.00243 4.50675e-11 1.00287)
(0.994995 9.59787e-05 1.29878e-10 1.00213 1.32164e-10 1.00289)
(0.995479 5.73489e-05 3.47696e-10 1.00169 -1.35586e-10 1.00284)
(0.995918 0.000136444 -8.72058e-11 1.00124 -3.63985e-10 1.00285)
(0.996499 9.09759e-05 -4.58683e-10 1.00071 2.82789e-11 1.0028)
(0.997221 0.000173838 -1.22357e-10 1.00013 5.5354e-10 1.00266)
(0.998272 0.000122578 1.75277e-10 0.999345 -4.26802e-11 1.00239)
(0.999351 0.000208992 -3.41802e-11 0.998578 -5.74846e-10 1.00207)
(1.0008 0.000151075 -1.3175e-10 0.997472 3.3615e-10 1.00173)
(1.00261 0.000241649 7.13532e-11 0.996331 6.34774e-10 1.00107)
(1.00491 0.00017586 6.38556e-11 0.994532 -3.61849e-10 1.00058)
(1.00743 0.00027102 -4.25261e-12 0.992916 -6.30489e-10 0.999706)
(1.00888 0.000197564 -2.80472e-11 0.991173 4.00209e-10 1.00003)
(1.00946 0.00029614 -3.08252e-11 0.990548 2.236e-10 1.00009)
(0.994446 6.70483e-07 -3.50597e-11 1.00277 4.6926e-11 1.00281)
(0.99449 4.91366e-05 -1.65436e-10 1.00268 -2.02949e-11 1.00285)
(0.994753 2.05416e-05 -1.0988e-10 1.00242 4.47827e-11 1.00285)
(0.995022 9.12326e-05 1.29914e-10 1.00212 1.31447e-10 1.00288)
(0.995506 5.12698e-05 3.47624e-10 1.00168 -1.34847e-10 1.00283)
(0.995945 0.000129479 -8.72782e-11 1.00123 -3.62443e-10 1.00284)
(0.996526 8.35148e-05 -4.58827e-10 1.0007 2.80108e-11 1.00279)
(0.997248 0.000165523 -1.22521e-10 1.00012 5.51894e-10 1.00264)
(0.998298 0.000114591 1.756e-10 0.999332 -4.24154e-11 1.00237)
(0.999376 0.000200393 -3.4197e-11 0.998566 -5.73383e-10 1.00206)
(1.00082 0.000143115 -1.32249e-10 0.99746 3.35197e-10 1.00172)
(1.00263 0.000233984 7.13313e-11 0.99632 6.33197e-10 1.00106)
(1.00494 0.000169491 6.42802e-11 0.994521 -3.61155e-10 1.00057)
(1.00745 0.000266317 -4.25399e-12 0.992905 -6.29033e-10 0.999694)
(1.0089 0.000194251 -2.83616e-11 0.991162 4.00215e-10 1.00002)
(1.00948 0.000295186 -3.09319e-11 0.990538 2.23116e-10 1.00008)
(0.994473 -3.99751e-07 -3.50907e-11 1.00275 4.63907e-11 1.0028)
(0.994515 4.71395e-05 -1.65513e-10 1.00267 -2.02003e-11 1.00284)
(0.994778 1.68527e-05 -1.09879e-10 1.0024 4.45048e-11 1.00284)
(0.995047 8.66896e-05 1.29958e-10 1.00211 1.30767e-10 1.00287)
(0.995531 4.53951e-05 3.4754e-10 1.00167 -1.34197e-10 1.00282)
(0.99597 0.000122516 -8.73441e-11 1.00122 -3.61139e-10 1.00283)
(0.996551 7.58456e-05 -4.58808e-10 1.00069 2.76705e-11 1.00277)
(0.997272 0.000156941 -1.22739e-10 1.0001 5.50504e-10 1.00263)
(0.998323 0.00010601 1.75551e-10 0.99932 -4.19709e-11 1.00236)
(0.999401 0.000191598 -3.4223e-11 0.998554 -5.71942e-10 1.00205)
(1.00085 0.000135323 -1.32737e-10 0.997448 3.34304e-10 1.00171)
(1.00266 0.000226926 7.13885e-11 0.996308 6.31645e-10 1.00104)
(1.00496 0.000163527 6.46816e-11 0.994509 -3.60639e-10 1.00056)
(1.00748 0.000261636 -4.25155e-12 0.992894 -6.27666e-10 0.999683)
(1.00892 0.000190969 -2.88011e-11 0.991151 4.0025e-10 1.00001)
(1.0095 0.000294295 -3.103e-11 0.990528 2.22649e-10 1.00006)
(0.994499 -1.45286e-06 -3.51131e-11 1.00274 4.58885e-11 1.00278)
(0.994538 4.49729e-05 -1.65584e-10 1.00266 -2.01208e-11 1.00283)
(0.994801 1.27966e-05 -1.09868e-10 1.00239 4.42633e-11 1.00283)
(0.99507 8.16264e-05 1.29992e-10 1.00209 1.30192e-10 1.00285)
(0.995554 3.88562e-05 3.47408e-10 1.00166 -1.33529e-10 1.0028)
(0.995994 0.000115112 -8.742e-11 1.0012 -3.59874e-10 1.00282)
(0.996574 6.79755e-05 -4.58889e-10 1.00067 2.733e-11 1.00276)
(0.997296 0.000148211 -1.22917e-10 1.00009 5.49195e-10 1.00262)
(0.998346 9.78521e-05 1.75952e-10 0.999308 -4.15471e-11 1.00235)
(0.999424 0.000182882 -3.4234e-11 0.998542 -5.70712e-10 1.00204)
(1.00087 0.000127413 -1.33277e-10 0.997436 3.33283e-10 1.0017)
(1.00268 0.000219457 7.13119e-11 0.996296 6.30215e-10 1.00103)
(1.00499 0.000157011 6.52813e-11 0.994496 -3.60121e-10 1.00055)
(1.0075 0.000256809 -4.25228e-12 0.992882 -6.26431e-10 0.999671)
(1.00894 0.000187928 -2.91057e-11 0.991139 4.00142e-10 0.999996)
(1.00952 0.00029339 -3.11325e-11 0.990516 2.22194e-10 1.00005)
(0.994521 -2.6028e-06 -3.51351e-11 1.00273 4.54583e-11 1.00277)
(0.994558 4.27871e-05 -1.65651e-10 1.00265 -2.00487e-11 1.00282)
(0.994821 8.67796e-06 -1.09847e-10 1.00238 4.40436e-11 1.00282)
(0.995091 7.6689e-05 1.3002e-10 1.00208 1.29674e-10 1.00284)
(0.995575 3.25807e-05 3.47244e-10 1.00165 -1.32995e-10 1.00279)
(0.996015 0.000107759 -8.74856e-11 1.00119 -3.58879e-10 1.00281)
(0.996595 6.01111e-05 -4.58809e-10 1.00066 2.70113e-11 1.00275)
(0.997318 0.000139446 -1.23132e-10 1.00008 5.48128e-10 1.00261)
(0.998369 8.9311e-05 1.75841e-10 0.999297 -4.12012e-11 1.00234)
(0.999447 0.000173555 -3.42626e-11 0.998529 -5.69646e-10 1.00203)
(1.0009 0.000119029 -1.33887e-10 0.997423 3.32482e-10 1.00169)
(1.0027 0.000211478 7.12683e-11 0.996284 6.28989e-10 1.00102)
(1.00501 0.000150523 6.58194e-11 0.994484 -3.59468e-10 1.00053)
(1.00752 0.000252033 -4.25237e-12 0.99287 -6.25196e-10 0.99966)
(1.00897 0.000184579 -2.95305e-11 0.991126 4.00101e-10 0.999984)
(1.00955 0.000292558 -3.12192e-11 0.990503 2.21751e-10 1.00004)
(0.994542 -3.78781e-06 -3.51564e-11 1.00272 4.50708e-11 1.00276)
(0.994576 4.06678e-05 -1.65719e-10 1.00264 -2.00013e-11 1.00281)
(0.994838 4.59479e-06 -1.09817e-10 1.00237 4.38696e-11 1.00281)
(0.995109 7.16136e-05 1.30058e-10 1.00207 1.29297e-10 1.00284)
(0.995593 2.58706e-05 3.47044e-10 1.00164 -1.32493e-10 1.00278)
(0.996033 9.97935e-05 -8.7567e-11 1.00118 -3.58092e-10 1.0028)
(0.996615 5.17244e-05 -4.58809e-10 1.00065 2.65855e-11 1.00274)
(0.997338 0.000129695 -1.23336e-10 1.00007 5.47364e-10 1.0026)
(0.998389 7.99499e-05 1.76048e-10 0.999286 -4.05542e-11 1.00233)
(0.999468 0.000163864 -3.42789e-11 0.998518 -5.68604e-10 1.00202)
(1.00092 0.000110391 -1.34644e-10 0.997411 3.3166e-10 1.00168)
(1.00273 0.000203293 7.12493e-11 0.996271 6.27745e-10 1.00101)
(1.00503 0.000143681 6.63767e-11 0.99447 -3.58963e-10 1.00052)
(1.00755 0.000246818 -4.25207e-12 0.992856 -6.24027e-10 0.999648)
(1.00899 0.000180905 -2.99108e-11 0.991112 4.00112e-10 0.999973)
(1.00957 0.000291567 -3.13283e-11 0.990489 2.21327e-10 1.00003)
(0.994559 -4.95426e-06 -3.51995e-11 1.00271 4.47805e-11 1.00275)
(0.99459 3.83364e-05 -1.65782e-10 1.00263 -1.99682e-11 1.0028)
(0.994853 1.28947e-08 -1.09772e-10 1.00237 4.37323e-11 1.0028)
(0.995124 6.60551e-05 1.30078e-10 1.00207 1.29011e-10 1.00283)
(0.995609 1.86649e-05 3.46765e-10 1.00163 -1.31959e-10 1.00278)
(0.996051 9.15321e-05 -8.7654e-11 1.00117 -3.57325e-10 1.00279)
(0.996632 4.28352e-05 -4.58758e-10 1.00064 2.61846e-11 1.00273)
(0.997356 0.000119538 -1.23592e-10 1.00006 5.46637e-10 1.00259)
(0.998409 7.03723e-05 1.76311e-10 0.999275 -3.99173e-11 1.00232)
(0.99949 0.000153497 -3.42972e-11 0.998506 -5.67703e-10 1.00201)
(1.00094 0.000101105 -1.35372e-10 0.997398 3.30637e-10 1.00167)
(1.00275 0.000194349 7.11782e-11 0.996258 6.26555e-10 1.001)
(1.00506 0.000136157 6.70649e-11 0.994456 -3.58347e-10 1.00051)
(1.00757 0.000241306 -4.2514e-12 0.992842 -6.22963e-10 0.999637)
(1.00902 0.000177027 -3.03267e-11 0.991097 4.0004e-10 0.999962)
(1.0096 0.000290565 -3.14357e-11 0.990474 2.20917e-10 1.00002)
(0.994574 -6.27159e-06 -3.52201e-11 1.0027 4.45522e-11 1.00275)
(0.994602 3.58486e-05 -1.65855e-10 1.00263 -1.99414e-11 1.00279)
(0.994866 -4.90856e-06 -1.09729e-10 1.00236 4.3611e-11 1.00279)
(0.995138 6.01842e-05 1.30106e-10 1.00206 1.28773e-10 1.00282)
(0.995623 1.11555e-05 3.46478e-10 1.00162 -1.3152e-10 1.00277)
(0.996066 8.26034e-05 -8.7749e-11 1.00117 -3.56768e-10 1.00278)
(0.996648 3.34048e-05 -4.58712e-10 1.00064 2.5725e-11 1.00272)
(0.997374 0.000108613 -1.23844e-10 1.00005 5.46106e-10 1.00258)
(0.998428 5.99892e-05 1.76525e-10 0.999264 -3.92458e-11 1.00231)
(0.99951 0.000142183 -3.43223e-11 0.998495 -5.66933e-10 1.002)
(1.00096 9.108e-05 -1.36288e-10 0.997385 3.29728e-10 1.00166)
(1.00277 0.000184903 7.11141e-11 0.996245 6.255e-10 1.00099)
(1.00509 0.000128177 6.77633e-11 0.994441 -3.57775e-10 1.0005)
(1.0076 0.000235281 -4.25029e-12 0.992827 -6.21954e-10 0.999627)
(1.00905 0.000172599 -3.09289e-11 0.99108 4.00026e-10 0.999951)
(1.00963 0.000289449 -3.15602e-11 0.990458 2.20527e-10 1)
(0.994585 -7.70084e-06 -3.5248e-11 1.0027 4.43637e-11 1.00274)
(0.994612 3.33646e-05 -1.65937e-10 1.00262 -1.99289e-11 1.00279)
(0.994875 -9.98913e-06 -1.09664e-10 1.00236 4.35116e-11 1.00279)
(0.995148 5.40927e-05 1.30134e-10 1.00205 1.2862e-10 1.00282)
(0.995634 3.05328e-06 3.46091e-10 1.00162 -1.31084e-10 1.00276)
(0.996078 7.30571e-05 -8.786e-11 1.00116 -3.5635e-10 1.00278)
(0.996662 2.3298e-05 -4.5863e-10 1.00063 2.51985e-11 1.00272)
(0.997389 9.68898e-05 -1.24144e-10 1.00004 5.45799e-10 1.00258)
(0.998445 4.89734e-05 1.76851e-10 0.999254 -3.83886e-11 1.0023)
(0.999529 0.000130274 -3.43433e-11 0.998483 -5.66283e-10 1.00199)
(1.00099 8.03885e-05 -1.37222e-10 0.997372 3.28668e-10 1.00165)
(1.0028 0.000174693 7.10189e-11 0.996231 6.24476e-10 1.00098)
(1.00511 0.000119271 6.86667e-11 0.994425 -3.57281e-10 1.00049)
(1.00763 0.00022853 -4.2486e-12 0.99281 -6.2108e-10 0.999616)
(1.00908 0.000167874 -3.14568e-11 0.991062 3.99919e-10 0.999939)
(1.00966 0.000288158 -3.17144e-11 0.99044 2.20145e-10 0.999993)
(0.994595 -9.1754e-06 -3.52886e-11 1.00269 4.42344e-11 1.00273)
(0.994619 3.06856e-05 -1.66018e-10 1.00262 -1.99277e-11 1.00279)
(0.994882 -1.55421e-05 -1.09584e-10 1.00235 4.34367e-11 1.00279)
(0.995156 4.75816e-05 1.30156e-10 1.00205 1.28547e-10 1.00281)
(0.995642 -5.36491e-06 3.45682e-10 1.00161 -1.30694e-10 1.00276)
(0.996089 6.3123e-05 -8.79782e-11 1.00115 -3.56061e-10 1.00277)
(0.996674 1.28887e-05 -4.58556e-10 1.00062 2.47078e-11 1.00271)
(0.997403 8.46169e-05 -1.2444e-10 1.00003 5.45608e-10 1.00257)
(0.998462 3.74632e-05 1.77171e-10 0.999245 -3.76589e-11 1.0023)
(0.999546 0.000117128 -3.43722e-11 0.998472 -5.65832e-10 1.00198)
(1.00101 6.84631e-05 -1.3839e-10 0.997359 3.27689e-10 1.00164)
(1.00282 0.000162961 7.085e-11 0.996217 6.2364e-10 1.00097)
(1.00514 0.000109273 6.96981e-11 0.994409 -3.56603e-10 1.00048)
(1.00766 0.000221157 -4.24914e-12 0.992793 -6.20217e-10 0.999606)
(1.00911 0.00016238 -3.21923e-11 0.991043 3.99821e-10 0.999928)
(1.00969 0.000286814 -3.18755e-11 0.99042 2.19772e-10 0.99998)
(0.994601 -1.0818e-05 -3.53332e-11 1.00269 4.41546e-11 1.00273)
(0.994623 2.82174e-05 -1.66103e-10 1.00262 -1.99355e-11 1.00278)
(0.994887 -2.09434e-05 -1.09489e-10 1.00235 4.33827e-11 1.00278)
(0.995162 4.11932e-05 1.3019e-10 1.00204 1.28535e-10 1.00281)
(0.995649 -1.39059e-05 3.45206e-10 1.00161 -1.30348e-10 1.00276)
(0.996097 5.2637e-05 -8.81157e-11 1.00115 -3.55988e-10 1.00277)
(0.996683 1.79029e-06 -4.58423e-10 1.00062 2.40677e-11 1.00271)
(0.997415 7.11686e-05 -1.24797e-10 1.00002 5.45716e-10 1.00257)
(0.998476 2.45182e-05 1.77388e-10 0.999236 -3.65773e-11 1.00229)
(0.999563 0.000102965 -3.44066e-11 0.998461 -5.65364e-10 1.00198)
(1.00103 5.57543e-05 -1.39659e-10 0.997346 3.2671e-10 1.00163)
(1.00284 0.000150705 7.07736e-11 0.996202 6.2277e-10 1.00097)
(1.00516 9.85935e-05 7.07232e-11 0.994391 -3.56089e-10 1.00047)
(1.00769 0.000212846 -4.24607e-12 0.992775 -6.19396e-10 0.999595)
(1.00914 0.000156166 -3.30084e-11 0.991022 3.99798e-10 0.999916)
(1.00973 0.0002852 -3.20829e-11 0.990399 2.19405e-10 0.999968)
(0.994605 -1.24341e-05 -3.53775e-11 1.00269 4.41186e-11 1.00273)
(0.994625 2.56636e-05 -1.66192e-10 1.00261 -1.99535e-11 1.00278)
(0.994889 -2.67884e-05 -1.09361e-10 1.00235 4.3336e-11 1.00278)
(0.995166 3.4362e-05 1.30218e-10 1.00204 1.2858e-10 1.00281)
(0.995653 -2.30956e-05 3.44615e-10 1.00161 -1.29885e-10 1.00275)
(0.996104 4.17151e-05 -8.82733e-11 1.00114 -3.55829e-10 1.00277)
(0.996692 -9.65348e-06 -4.58345e-10 1.00061 2.34262e-11 1.00271)
(0.997426 5.71832e-05 -1.25173e-10 1.00002 5.45798e-10 1.00256)
(0.99849 1.15156e-05 1.78022e-10 0.999228 -3.54895e-11 1.00229)
(0.99958 8.79336e-05 -3.44321e-11 0.998451 -5.64998e-10 1.00197)
(1.00105 4.19119e-05 -1.41164e-10 0.997333 3.25486e-10 1.00162)
(1.00287 0.000136852 7.05402e-11 0.996188 6.21903e-10 1.00096)
(1.00519 8.62452e-05 7.21555e-11 0.994373 -3.55492e-10 1.00046)
(1.00772 0.000203601 -4.24429e-12 0.992755 -6.18642e-10 0.999584)
(1.00918 0.000149304 -3.39239e-11 0.991 3.99684e-10 0.999905)
(1.00976 0.000283437 -3.23194e-11 0.990376 2.19031e-10 0.999954)
(0.994607 -1.42073e-05 -3.54267e-11 1.00269 4.41101e-11 1.00273)
(0.994626 2.33176e-05 -1.66288e-10 1.00261 -1.99578e-11 1.00278)
(0.99489 -3.25113e-05 -1.09214e-10 1.00235 4.32782e-11 1.00278)
(0.995168 2.78526e-05 1.30246e-10 1.00204 1.2857e-10 1.00281)
(0.995656 -3.16918e-05 3.43997e-10 1.00161 -1.29457e-10 1.00275)
(0.996109 3.08714e-05 -8.84383e-11 1.00114 -3.55742e-10 1.00277)
(0.996698 -2.11693e-05 -4.58182e-10 1.00061 2.26955e-11 1.0027)
(0.997435 4.27581e-05 -1.25596e-10 1.00001 5.45948e-10 1.00256)
(0.998502 -2.33444e-06 1.78307e-10 0.99922 -3.43354e-11 1.00228)
(0.999594 7.17272e-05 -3.44801e-11 0.998441 -5.64657e-10 1.00197)
(1.00107 2.71782e-05 -1.42789e-10 0.99732 3.24366e-10 1.00162)
(1.00289 0.000122188 7.03691e-11 0.996173 6.21095e-10 1.00095)
(1.00522 7.33038e-05 7.35027e-11 0.994354 -3.54843e-10 1.00045)
(1.00775 0.000193482 -4.24187e-12 0.992735 -6.17822e-10 0.999573)
(1.00922 0.000141505 -3.50389e-11 0.990976 3.99673e-10 0.999892)
(1.0098 0.000281458 -3.26001e-11 0.99035 2.18644e-10 0.99994)
(0.994607 -1.60064e-05 -3.54902e-11 1.00269 4.40685e-11 1.00273)
(0.994626 2.13699e-05 -1.66379e-10 1.00261 -1.99554e-11 1.00278)
(0.99489 -3.79186e-05 -1.09027e-10 1.00235 4.31835e-11 1.00278)
(0.99517 2.18082e-05 1.30275e-10 1.00204 1.2852e-10 1.00281)
(0.995658 -4.02225e-05 3.43131e-10 1.00161 -1.28891e-10 1.00275)
(0.996113 2.00368e-05 -8.86401e-11 1.00114 -3.55564e-10 1.00276)
(0.996703 -3.23625e-05 -4.58026e-10 1.00061 2.18311e-11 1.0027)
(0.997443 2.81963e-05 -1.26051e-10 1.00001 5.46143e-10 1.00256)
(0.998513 -1.60314e-05 1.78946e-10 0.999213 -3.28772e-11 1.00228)
(0.999609 5.54272e-05 -3.45143e-11 0.998432 -5.64184e-10 1.00196)
(1.00109 1.18733e-05 -1.44772e-10 0.997308 3.23004e-10 1.00161)
(1.00291 0.000106507 7.00954e-11 0.996158 6.2009e-10 1.00094)
(1.00525 5.88679e-05 7.53142e-11 0.994335 -3.54261e-10 1.00044)
(1.00778 0.000182383 -4.23744e-12 0.992714 -6.16985e-10 0.999561)
(1.00925 0.000132851 -3.62729e-11 0.990951 3.99667e-10 0.999879)
(1.00985 0.000279241 -3.2932e-11 0.990323 2.18226e-10 0.999925)
(0.994607 -1.77578e-05 -3.55427e-11 1.00269 4.39851e-11 1.00273)
(0.994626 1.99974e-05 -1.66454e-10 1.00261 -1.99334e-11 1.00278)
(0.99489 -4.2734e-05 -1.08796e-10 1.00235 4.30325e-11 1.00278)
(0.995172 1.66938e-05 1.30285e-10 1.00204 1.28357e-10 1.00281)
(0.995659 -4.74774e-05 3.42193e-10 1.00161 -1.28168e-10 1.00275)
(0.996117 1.04968e-05 -8.88501e-11 1.00113 -3.55053e-10 1.00276)
(0.996709 -4.24517e-05 -4.57846e-10 1.0006 2.09892e-11 1.0027)
(0.997451 1.42816e-05 -1.26538e-10 1 5.46005e-10 1.00255)
(0.998524 -2.92589e-05 1.79536e-10 0.999207 -3.14809e-11 1.00227)