/*--------------------------------*- C++ -*----------------------------------*\
| =========                 |                                                 |
| \\      /  F ield         | foam-extend: Open Source CFD                    |
|  \\    /   O peration     | Version:     4.1-20200408                       |
|   \\  /    A nd           | Web:         http://www.foam-extend.org         |
|    \\/     M anipulation  |                                                 |
\*---------------------------------------------------------------------------*/
FoamFile
{
    version     2.0;
    format      ascii;
    class       volSymmTensorField;
    location    "0.0790000";
    object      sigmaCauchy;
}
// * * * * * * * * * * * * * * * * * * * * * * * * * * * * * * * * * * * * * //

dimensions      [1 -1 -2 0 0 0 0];

internalField   nonuniform List<symmTensor> 
1952
(
(-1.02048e+09 1.64109e+06 -5.59796 -4.25438e+08 -1.33765 -4.14423e+08)
(-9.76858e+08 850854 -3.73497 -4.18203e+08 3.1006 -3.88461e+08)
(-9.22469e+08 3.16093e+06 4.39319 -4.0199e+08 8.88167 -3.5086e+08)
(-8.44556e+08 1.99419e+06 11.8174 -3.87253e+08 -9.49502 -3.0935e+08)
(-7.6321e+08 4.6395e+06 -2.93393 -3.66087e+08 -24.7168 -2.57482e+08)
(-6.66503e+08 3.25176e+06 -15.5245 -3.45369e+08 2.37978 -2.04077e+08)
(-5.52808e+08 6.15628e+06 -4.08737 -3.20188e+08 37.6766 -1.49854e+08)
(-4.03975e+08 4.63083e+06 5.9382 -2.96716e+08 -3.44195 -9.12555e+07)
(-2.49818e+08 7.77594e+06 -1.14617 -2.68501e+08 -39.2868 -3.28917e+07)
(-4.98228e+07 6.19715e+06 -4.3579 -2.43061e+08 23.519 4.45176e+07)
(1.85588e+08 9.6444e+06 2.41868 -2.09613e+08 43.5611 1.09835e+08)
(4.9313e+08 8.15367e+06 2.04668 -1.82563e+08 -25.0734 2.25769e+08)
(8.19335e+08 1.21411e+07 -0.147846 -1.39626e+08 -43.1471 3.18857e+08)
(1.06967e+09 1.12569e+07 -0.944469 -1.08804e+08 27.4954 4.89958e+08)
(1.21407e+09 1.68772e+07 -1.11408 -5.23074e+07 15.2682 5.93581e+08)
(-1.03421e+09 55127.1 -1.18376 -4.33572e+08 3.13997 -4.30553e+08)
(-1.01135e+09 3.6405e+06 -11.1997 -4.14746e+08 -1.41266 -4.03579e+08)
(-9.67649e+08 2.24788e+06 -7.47174 -4.07388e+08 3.17231 -3.77747e+08)
(-9.13179e+08 7.10345e+06 8.79122 -3.91369e+08 9.23165 -3.40035e+08)
(-8.35252e+08 4.91735e+06 23.6454 -3.76694e+08 -9.53359 -2.98741e+08)
(-7.53777e+08 1.0447e+07 -5.87187 -3.55693e+08 -25.3411 -2.46775e+08)
(-6.57022e+08 7.77277e+06 -31.058 -3.35212e+08 2.11363 -1.93672e+08)
(-5.43136e+08 1.37625e+07 -8.18096 -3.10258e+08 38.3349 -1.39407e+08)
(-3.94256e+08 1.07117e+07 11.8549 -2.87228e+08 -3.15099 -8.1191e+07)
(-2.39813e+08 1.70449e+07 -2.29347 -2.59388e+08 -39.8358 -2.29046e+07)
(-3.97203e+07 1.36087e+07 -8.67017 -2.34683e+08 23.4681 5.4029e+07)
(1.95982e+08 2.00955e+07 4.8041 -2.01874e+08 44.0184 1.19166e+08)
(5.03609e+08 1.60785e+07 3.98941 -1.76027e+08 -25.0658 2.3446e+08)
(8.30197e+08 2.22743e+07 -0.288056 -1.34097e+08 -43.576 3.27172e+08)
(1.08065e+09 1.70269e+07 -1.48334 -1.05394e+08 27.4147 4.97249e+08)
(1.22579e+09 2.15106e+07 -1.81099 -5.02808e+07 15.4093 6.00332e+08)
(-1.02504e+09 251204 -2.37052 -4.22636e+08 3.35615 -4.19724e+08)
(-1.00732e+09 3.90353e+06 -11.2074 -4.10434e+08 -1.4339 -3.99203e+08)
(-9.63607e+08 2.63049e+06 -7.47494 -4.03078e+08 3.20915 -3.73443e+08)
(-9.09143e+08 7.68144e+06 8.79778 -3.87199e+08 9.35193 -3.35744e+08)
(-8.31199e+08 5.58841e+06 23.6563 -3.72623e+08 -9.58894 -2.94604e+08)
(-7.4969e+08 1.13112e+07 -5.87847 -3.51815e+08 -25.5514 -2.42692e+08)
(-6.52961e+08 8.68898e+06 -31.0855 -3.31538e+08 2.08822 -1.89773e+08)
(-5.39062e+08 1.4833e+07 -8.18824 -3.06846e+08 38.5777 -1.35602e+08)
(-3.90228e+08 1.17772e+07 11.8696 -2.84129e+08 -3.08629 -7.76284e+07)
(-2.35872e+08 1.81832e+07 -2.29615 -2.56652e+08 -40.0131 -1.94863e+07)
(-3.59792e+07 1.46302e+07 -8.67943 -2.32395e+08 23.4525 5.70895e+07)
(1.99442e+08 2.1077e+07 4.79552 -2.00077e+08 44.142 1.2192e+08)
(5.06502e+08 1.67945e+07 4.0059 -1.74834e+08 -25.037 2.36678e+08)
(8.32165e+08 2.28146e+07 -0.287753 -1.33498e+08 -43.6922 3.28863e+08)
(1.08082e+09 1.71777e+07 -1.50682 -1.05419e+08 27.314 4.98074e+08)
(1.22292e+09 2.15139e+07 -1.83647 -5.05564e+07 15.4381 6.00154e+08)
(-1.02098e+09 348104 -2.37249 -4.18222e+08 3.44074 -4.15346e+08)
(-1.00362e+09 4.09356e+06 -11.2155 -4.07222e+08 -1.44624 -3.95962e+08)
(-9.5989e+08 2.89987e+06 -7.47842 -3.99905e+08 3.23456 -3.70243e+08)
(-9.05424e+08 8.09242e+06 8.8052 -3.84148e+08 9.42471 -3.32594e+08)
(-8.27504e+08 6.0552e+06 23.6694 -3.69686e+08 -9.63583 -2.91535e+08)
(-7.46015e+08 1.18991e+07 -5.88485 -3.49064e+08 -25.6853 -2.39702e+08)
(-6.49335e+08 9.29005e+06 -31.1044 -3.28984e+08 2.0783 -1.86946e+08)
(-5.35471e+08 1.55252e+07 -8.20095 -3.04549e+08 38.7194 -1.32914e+08)
(-3.86757e+08 1.24184e+07 11.8529 -2.82115e+08 -3.05523 -7.51673e+07)
(-2.32492e+08 1.88514e+07 -2.29986 -2.54962e+08 -40.1049 -1.72365e+07)
(-3.28033e+07 1.51674e+07 -8.68413 -2.31041e+08 23.4514 5.90706e+07)
(2.02348e+08 2.15389e+07 4.79649 -1.99079e+08 44.201 1.23643e+08)
(5.08962e+08 1.7e+07 4.01661 -1.74161e+08 -25.0161 2.38055e+08)
(8.34019e+08 2.2831e+07 -0.287317 -1.33129e+08 -43.7392 3.29901e+08)
(1.08182e+09 1.68732e+07 -1.5382 -1.05246e+08 27.2623 4.98732e+08)
(1.22281e+09 2.1347e+07 -1.87899 -5.04853e+07 15.4516 6.00432e+08)
(-1.01727e+09 414435 -2.37503 -4.14963e+08 3.49373 -4.12091e+08)
(-9.99426e+08 4.21729e+06 -11.2239 -4.04594e+08 -1.45296 -3.93314e+08)
(-9.55707e+08 3.07506e+06 -7.48214 -3.9733e+08 3.24834 -3.67636e+08)
(-9.01268e+08 8.34152e+06 8.81304 -3.81678e+08 9.4621 -3.30045e+08)
(-8.23363e+08 6.33963e+06 23.6816 -3.67336e+08 -9.65571 -2.89094e+08)
(-7.41898e+08 1.22373e+07 -5.89249 -3.46888e+08 -25.7439 -2.37346e+08)
(-6.45285e+08 9.63986e+06 -31.1321 -3.26989e+08 2.07041 -1.84729e+08)
(-5.315e+08 1.5879e+07 -8.21161 -3.02789e+08 38.7768 -1.30833e+08)
(-3.82914e+08 1.27404e+07 11.8704 -2.80594e+08 -3.03688 -7.32791e+07)
(-2.28848e+08 1.91256e+07 -2.30268 -2.53723e+08 -40.1326 -1.55479e+07)
(-2.94678e+07 1.53333e+07 -8.7043 -2.30092e+08 23.4305 6.04852e+07)
(2.05286e+08 2.15998e+07 4.79616 -1.98427e+08 44.2024 1.24795e+08)
(5.11306e+08 1.68992e+07 4.04782 -1.73778e+08 -24.9892 2.38885e+08)
(8.35567e+08 2.26435e+07 -0.287187 -1.32991e+08 -43.7367 3.30392e+08)
(1.08229e+09 1.6601e+07 -1.58486 -1.05224e+08 27.2152 4.98823e+08)
(1.22194e+09 2.12152e+07 -1.91123 -5.05203e+07 15.4497 6.0013e+08)
(-1.01307e+09 457696 -2.37704 -4.12302e+08 3.52157 -4.0943e+08)
(-9.95234e+08 4.28128e+06 -11.2331 -4.02641e+08 -1.455 -3.91346e+08)
(-9.51527e+08 3.15444e+06 -7.48606 -3.9543e+08 3.25137 -3.65705e+08)
(-8.97108e+08 8.46317e+06 8.82036 -3.79869e+08 9.46905 -3.28166e+08)
(-8.19257e+08 6.46793e+06 23.6905 -3.65633e+08 -9.65732 -2.87299e+08)
(-7.37854e+08 1.23724e+07 -5.89951 -3.45336e+08 -25.7472 -2.35647e+08)
(-6.41348e+08 9.74556e+06 -31.1534 -3.25595e+08 2.06436 -1.83162e+08)
(-5.27672e+08 1.59624e+07 -8.22664 -3.01582e+08 38.7695 -1.29393e+08)
(-3.79276e+08 1.27564e+07 11.8647 -2.7958e+08 -3.02742 -7.20145e+07)
(-2.25422e+08 1.90665e+07 -2.30653 -2.5292e+08 -40.1131 -1.44298e+07)
(-2.63501e+07 1.51847e+07 -8.71654 -2.29497e+08 23.3993 6.13911e+07)
(2.08e+08 2.13609e+07 4.80226 -1.98038e+08 44.1662 1.25486e+08)
(5.135e+08 1.65497e+07 4.074 -1.73549e+08 -24.9563 2.39331e+08)
(8.37094e+08 2.22387e+07 -0.287262 -1.329e+08 -43.6993 3.30589e+08)
(1.08305e+09 1.62089e+07 -1.62904 -1.05163e+08 27.1807 4.9875e+08)
(1.2218e+09 2.10539e+07 -1.94368 -5.05246e+07 15.4375 5.99782e+08)
(-1.00887e+09 475910 -2.3785 -4.10325e+08 3.52754 -4.07451e+08)
(-9.90954e+08 4.29191e+06 -11.2429 -4.0118e+08 -1.45364 -3.8987e+08)
(-9.47273e+08 3.14618e+06 -7.48988 -3.94001e+08 3.24487 -3.64264e+08)
(-8.92895e+08 8.45965e+06 8.82833 -3.78522e+08 9.45368 -3.26768e+08)
(-8.15099e+08 6.43275e+06 23.7022 -3.64361e+08 -9.64087 -2.85958e+08)
(-7.33778e+08 1.23214e+07 -5.90679 -3.44188e+08 -25.7102 -2.34382e+08)
(-6.37377e+08 9.66926e+06 -31.1784 -3.24568e+08 2.05522 -1.82004e+08)
(-5.23844e+08 1.58368e+07 -8.23964 -3.00709e+08 38.72 -1.28348e+08)
(-3.75644e+08 1.25771e+07 11.8746 -2.78871e+08 -3.02063 -7.11207e+07)
(-2.22034e+08 1.88007e+07 -2.30951 -2.52379e+08 -40.0578 -1.36834e+07)
(-2.32951e+07 1.4825e+07 -8.74856 -2.29108e+08 23.36 6.19519e+07)
(2.10632e+08 2.09281e+07 4.80527 -1.97786e+08 44.1004 1.25865e+08)
(5.15585e+08 1.60563e+07 4.11447 -1.73404e+08 -24.9163 2.39479e+08)
(8.38567e+08 2.1791e+07 -0.287356 -1.32841e+08 -43.6344 3.30539e+08)
(1.08382e+09 1.58269e+07 -1.68152 -1.05132e+08 27.1553 4.98482e+08)
(1.22181e+09 2.09126e+07 -1.96989 -5.05195e+07 15.4175 5.99308e+08)
(-1.00458e+09 471325 -2.38008 -4.08839e+08 3.51662 -4.05965e+08)
(-9.86725e+08 4.2721e+06 -11.2509 -4.00108e+08 -1.44964 -3.88787e+08)
(-9.43077e+08 3.08942e+06 -7.49322 -3.92967e+08 3.2331 -3.63213e+08)
(-8.88741e+08 8.38623e+06 8.83583 -3.77553e+08 9.42187 -3.25757e+08)
(-8.11023e+08 6.31398e+06 23.7136 -3.63465e+08 -9.61286 -2.85014e+08)
(-7.2977e+08 1.21527e+07 -5.91384 -3.43394e+08 -25.6408 -2.33504e+08)
(-6.33509e+08 9.43601e+06 -31.2 -3.23874e+08 2.04556 -1.81227e+08)
(-5.20135e+08 1.5531e+07 -8.25494 -3.00138e+08 38.6354 -1.27667e+08)
(-3.72174e+08 1.21908e+07 11.8732 -2.78413e+08 -3.01269 -7.05756e+07)
(-2.1884e+08 1.83524e+07 -2.31326 -2.52028e+08 -39.974 -1.32763e+07)
(-2.0416e+07 1.43361e+07 -8.76883 -2.28866e+08 23.3201 6.22165e+07)
(2.13127e+08 2.0406e+07 4.81689 -1.97621e+08 44.0137 1.25992e+08)
(5.17668e+08 1.55163e+07 4.13606 -1.73321e+08 -24.8858 2.39452e+08)
(8.40118e+08 2.12846e+07 -0.287504 -1.3278e+08 -43.5508 3.30361e+08)
(1.08481e+09 1.54531e+07 -1.72445 -1.05109e+08 27.1449 4.98103e+08)
(1.22219e+09 2.07679e+07 -1.99451 -5.049e+07 15.3924 5.98816e+08)
(-1.00034e+09 453611 -2.38267 -4.0775e+08 3.49398 -4.04873e+08)
(-9.82544e+08 4.20484e+06 -11.2607 -3.99355e+08 -1.44378 -3.88024e+08)
(-9.3894e+08 2.9531e+06 -7.49709 -3.92241e+08 3.21594 -3.62481e+08)
(-8.84664e+08 8.20983e+06 8.8429 -3.76889e+08 9.37756 -3.25061e+08)
(-8.07037e+08 6.06515e+06 23.7222 -3.62847e+08 -9.56924 -2.84393e+08)
(-7.25907e+08 1.18558e+07 -5.92101 -3.42862e+08 -25.5469 -2.32937e+08)
(-6.29778e+08 9.08964e+06 -31.2226 -3.23408e+08 2.03039 -1.80743e+08)
(-5.16582e+08 1.51243e+07 -8.26951 -2.9976e+08 38.5289 -1.27256e+08)
(-3.68811e+08 1.17476e+07 11.8907 -2.7811e+08 -3.00108 -7.02652e+07)
(-2.15679e+08 1.78386e+07 -2.31565 -2.51793e+08 -39.8731 -1.30453e+07)
(-1.75584e+07 1.3764e+07 -8.80578 -2.28711e+08 23.2648 6.23191e+07)
(2.15597e+08 1.97973e+07 4.81965 -1.97509e+08 43.9098 1.25982e+08)
(5.19666e+08 1.49254e+07 4.1821 -1.73289e+08 -24.8473 2.39285e+08)
(8.41705e+08 2.07941e+07 -0.287921 -1.32711e+08 -43.4561 3.30112e+08)
(1.08594e+09 1.51027e+07 -1.74815 -1.05078e+08 27.136 4.97696e+08)
(1.22282e+09 2.06368e+07 -2.01533 -5.04789e+07 15.3623 5.98302e+08)
(-9.96148e+08 414762 -2.38668 -4.06978e+08 3.46177 -4.04102e+08)
(-9.78534e+08 4.11875e+06 -11.2686 -3.98867e+08 -1.43617 -3.87532e+08)
(-9.34973e+08 2.79149e+06 -7.49995 -3.91772e+08 3.19576 -3.62012e+08)
(-8.80751e+08 8.00643e+06 8.8486 -3.76453e+08 9.32385 -3.24617e+08)
(-8.03204e+08 5.80099e+06 23.7292 -3.6245e+08 -9.52545 -2.83997e+08)
(-7.22126e+08 1.15166e+07 -5.92699 -3.42517e+08 -25.4377 -2.32574e+08)
(-6.26139e+08 8.68281e+06 -31.2443 -3.2312e+08 2.02047 -1.80453e+08)
(-5.13096e+08 1.4639e+07 -8.28265 -2.99536e+08 38.403 -1.27027e+08)
(-3.6557e+08 1.12048e+07 11.8917 -2.77971e+08 -3.00017 -7.0143e+07)
(-2.12742e+08 1.72363e+07 -2.31916 -2.5171e+08 -39.7601 -1.30266e+07)
(-1.49068e+07 1.31537e+07 -8.83336 -2.28668e+08 23.2193 6.22467e+07)
(2.17959e+08 1.91667e+07 4.83191 -1.97468e+08 43.7995 1.25842e+08)
(5.21767e+08 1.43815e+07 4.19348 -1.73237e+08 -24.7912 2.38985e+08)
(8.43443e+08 2.03352e+07 -0.288413 -1.32671e+08 -43.3431 3.29725e+08)
(1.08725e+09 1.47414e+07 -1.77722 -1.0504e+08 27.1441 4.97315e+08)
(1.22374e+09 2.0516e+07 -2.03292 -5.04779e+07 15.3302 5.97849e+08)
(-9.92124e+08 367520 -2.38741 -4.06479e+08 3.42307 -4.03603e+08)
(-9.74628e+08 4.01294e+06 -11.2766 -3.98532e+08 -1.42823 -3.87189e+08)
(-9.31106e+08 2.59834e+06 -7.50275 -3.91451e+08 3.1731 -3.61696e+08)
(-8.76929e+08 7.7506e+06 8.855 -3.76191e+08 9.26642 -3.24326e+08)
(-7.99499e+08 5.45306e+06 23.7322 -3.62212e+08 -9.47045 -2.83768e+08)
(-7.18569e+08 1.1102e+07 -5.93373 -3.42373e+08 -25.3197 -2.32407e+08)
(-6.22709e+08 8.20142e+06 -31.2623 -3.22973e+08 1.99741 -1.80348e+08)
(-5.09842e+08 1.4077e+07 -8.29797 -2.99484e+08 38.2764 -1.26974e+08)
(-3.62481e+08 1.06094e+07 11.9154 -2.77897e+08 -2.96491 -7.01552e+07)
(-2.09796e+08 1.66395e+07 -2.32102 -2.51678e+08 -39.627 -1.31678e+07)
(-1.22193e+07 1.25591e+07 -8.86553 -2.28651e+08 23.1462 6.20118e+07)
(2.20387e+08 1.86068e+07 4.84423 -1.97461e+08 43.6632 1.25568e+08)
(5.2385e+08 1.38502e+07 4.22291 -1.73213e+08 -24.759 2.38732e+08)
(8.45164e+08 1.98979e+07 -0.288401 -1.32685e+08 -43.2353 3.29392e+08)
(1.08871e+09 1.44151e+07 -1.808 -1.0503e+08 27.1518 4.9697e+08)
(1.22491e+09 2.04044e+07 -2.04833 -5.04624e+07 15.2972 5.97474e+08)
(-9.88207e+08 313289 -2.38929 -4.06127e+08 3.38104 -4.03253e+08)
(-9.70946e+08 3.88205e+06 -11.2833 -3.98385e+08 -1.41974 -3.87033e+08)
(-9.2747e+08 2.35618e+06 -7.50459 -3.91302e+08 3.14836 -3.61565e+08)
(-8.73361e+08 7.44557e+06 8.85927 -3.76097e+08 9.20569 -3.24215e+08)
(-7.96006e+08 5.05747e+06 23.7371 -3.62112e+08 -9.41079 -2.83698e+08)
(-7.15111e+08 1.06676e+07 -5.93939 -3.42321e+08 -25.1805 -2.32451e+08)
(-6.19395e+08 7.70173e+06 -31.2829 -3.22949e+08 1.98946 -1.80451e+08)
(-5.0665e+08 1.35263e+07 -8.31053 -2.99485e+08 38.12 -1.27103e+08)
(-3.59434e+08 1.00614e+07 11.9498 -2.77895e+08 -2.96482 -7.03164e+07)
(-2.06995e+08 1.60237e+07 -2.32309 -2.51674e+08 -39.5093 -1.32424e+07)
(-9.65734e+06 1.19726e+07 -8.88118 -2.28671e+08 23.0677 6.185e+07)
(2.22716e+08 1.80449e+07 4.84596 -1.97467e+08 43.5394 1.25377e+08)
(5.25986e+08 1.33318e+07 4.25041 -1.73252e+08 -24.7188 2.38514e+08)
(8.47064e+08 1.94778e+07 -0.288617 -1.32673e+08 -43.1324 3.29174e+08)
(1.09033e+09 1.4145e+07 -1.83269 -1.0504e+08 27.1474 4.96663e+08)
(1.22632e+09 2.03068e+07 -2.06171 -5.0437e+07 15.2635 5.97133e+08)
(-9.84508e+08 244703 -2.39123 -4.05959e+08 3.33616 -4.03089e+08)
(-9.6745e+08 3.74815e+06 -11.291 -3.98385e+08 -1.40988 -3.87036e+08)
(-9.24004e+08 2.11218e+06 -7.50706 -3.91292e+08 3.12216 -3.61585e+08)
(-8.69918e+08 7.13654e+06 8.86552 -3.76096e+08 9.13824 -3.2424e+08)
(-7.92631e+08 4.67384e+06 23.7553 -3.62097e+08 -9.35884 -2.83713e+08)
(-7.11856e+08 1.0215e+07 -5.94379 -3.42302e+08 -25.0667 -2.32388e+08)
(-6.16261e+08 7.20182e+06 -31.2868 -3.22934e+08 1.96603 -1.80454e+08)
(-5.03616e+08 1.29861e+07 -8.32401 -2.99452e+08 37.9922 -1.27113e+08)
(-3.56567e+08 9.50994e+06 11.9368 -2.77899e+08 -2.95287 -7.03926e+07)
(-2.0423e+08 1.54272e+07 -2.32567 -2.5167e+08 -39.3963 -1.32977e+07)
(-7.04102e+06 1.13917e+07 -8.91198 -2.28671e+08 23.0083 6.17655e+07)
(2.25119e+08 1.75011e+07 4.84869 -1.97449e+08 43.4254 1.25267e+08)
(5.28128e+08 1.28524e+07 4.28741 -1.73264e+08 -24.6771 2.38323e+08)
(8.49002e+08 1.91084e+07 -0.288706 -1.32634e+08 -43.0281 3.28962e+08)
(1.0921e+09 1.38833e+07 -1.86021 -1.05034e+08 27.1457 4.9638e+08)
(1.2279e+09 2.02266e+07 -2.07213 -5.04204e+07 15.2287 5.96817e+08)
(-9.81002e+08 174551 -2.39278 -4.05949e+08 3.288 -4.03083e+08)
(-9.64183e+08 3.6263e+06 -11.2966 -3.98322e+08 -1.40125 -3.86977e+08)
(-9.20772e+08 1.89438e+06 -7.50749 -3.9123e+08 3.10043 -3.61535e+08)
(-8.66713e+08 6.85967e+06 8.86938 -3.76032e+08 9.08031 -3.24195e+08)
(-7.89481e+08 4.30987e+06 23.7485 -3.6204e+08 -9.31104 -2.83699e+08)
(-7.08719e+08 9.767e+06 -5.94915 -3.4226e+08 -24.9557 -2.32333e+08)
(-6.1321e+08 6.71682e+06 -31.3007 -3.22879e+08 1.94974 -1.80413e+08)
(-5.00645e+08 1.24312e+07 -8.33287 -2.99413e+08 37.8731 -1.27075e+08)
(-3.5373e+08 8.94135e+06 11.9512 -2.7788e+08 -2.93998 -7.04084e+07)
(-2.01598e+08 1.48366e+07 -2.32766 -2.51659e+08 -39.2873 -1.33579e+07)
(-4.55072e+06 1.08328e+07 -8.94133 -2.28673e+08 22.9552 6.16583e+07)
(2.27464e+08 1.69539e+07 4.8517 -1.9742e+08 43.3143 1.25146e+08)
(5.30364e+08 1.23886e+07 4.31065 -1.73265e+08 -24.6351 2.38122e+08)
(8.5109e+08 1.87487e+07 -0.28879 -1.32593e+08 -42.9211 3.28756e+08)
(1.094e+09 1.3635e+07 -1.88393 -1.05046e+08 27.1503 4.96126e+08)
(1.22968e+09 2.01484e+07 -2.0817 -5.03872e+07 15.1948 5.96578e+08)
(-9.77724e+08 112068 -2.39391 -4.05885e+08 3.24623 -4.03021e+08)
(-9.61061e+08 3.49678e+06 -11.3015 -3.98241e+08 -1.39416 -3.86883e+08)
(-9.17664e+08 1.66075e+06 -7.50873 -3.91138e+08 3.07966 -3.61444e+08)
(-8.63624e+08 6.55706e+06 8.87301 -3.75979e+08 9.02916 -3.24101e+08)
(-7.8647e+08 3.9168e+06 23.7468 -3.61975e+08 -9.26019 -2.83634e+08)
(-7.05789e+08 9.31562e+06 -5.95391 -3.42244e+08 -24.8508 -2.32298e+08)
(-6.10359e+08 6.20896e+06 -31.3044 -3.22842e+08 1.92999 -1.8041e+08)
(-4.9787e+08 1.18591e+07 -8.34712 -2.99419e+08 37.7621 -1.27074e+08)
(-3.51052e+08 8.35793e+06 11.9512 -2.77865e+08 -2.91013 -7.04561e+07)
(-1.98955e+08 1.42425e+07 -2.32932 -2.51649e+08 -39.1748 -1.3437e+07)
(-2.0142e+06 1.02887e+07 -8.97253 -2.28681e+08 22.8928 6.15392e+07)
(2.29879e+08 1.64449e+07 4.85578 -1.97409e+08 43.1981 1.25024e+08)
(5.32623e+08 1.19558e+07 4.34123 -1.73279e+08 -24.6003 2.37981e+08)
(8.53218e+08 1.84065e+07 -0.288819 -1.32572e+08 -42.8201 3.28608e+08)
(1.09604e+09 1.34044e+07 -1.90296 -1.05051e+08 27.1536 4.95944e+08)
(1.23163e+09 2.00795e+07 -2.09007 -5.03711e+07 15.161 5.96395e+08)
(-9.74596e+08 45828.7 -2.3964 -4.05791e+08 3.20748 -4.02929e+08)
(-9.58193e+08 3.35827e+06 -11.3068 -3.98194e+08 -1.38707 -3.8683e+08)
(-9.14825e+08 1.40369e+06 -7.50854 -3.91085e+08 3.06017 -3.61397e+08)
(-8.60804e+08 6.23278e+06 8.87537 -3.75948e+08 8.98015 -3.2405e+08)
(-7.83669e+08 3.50158e+06 23.7417 -3.61924e+08 -9.20969 -2.83618e+08)
(-7.02975e+08 8.84002e+06 -5.95881 -3.42227e+08 -24.7454 -2.32287e+08)
(-6.07611e+08 5.69972e+06 -31.314 -3.22824e+08 1.91168 -1.80432e+08)
(-4.95157e+08 1.12918e+07 -8.35827 -2.99418e+08 37.6496 -1.27084e+08)
(-3.48395e+08 7.81331e+06 11.9731 -2.77872e+08 -2.89206 -7.05014e+07)
(-1.96411e+08 1.36564e+07 -2.33046 -2.51649e+08 -39.0749 -1.34518e+07)
(446233 9.74652e+06 -9.00653 -2.28704e+08 22.8278 6.14752e+07)
(2.32262e+08 1.59231e+07 4.85426 -1.97398e+08 43.0905 1.2497e+08)
(5.34958e+08 1.15228e+07 4.37007 -1.73293e+08 -24.5531 2.37869e+08)
(8.55486e+08 1.8087e+07 -0.288911 -1.32548e+08 -42.721 3.28512e+08)
(1.0982e+09 1.31796e+07 -1.92429 -1.05063e+08 27.1539 4.95841e+08)
(1.23373e+09 2.00147e+07 -2.09729 -5.03533e+07 15.1281 5.96289e+08)
(-9.71719e+08 -27323.5 -2.3985 -4.05736e+08 3.17087 -4.02876e+08)
(-9.55505e+08 3.22176e+06 -11.312 -3.98131e+08 -1.38059 -3.86759e+08)
(-9.12142e+08 1.15161e+06 -7.50841 -3.91011e+08 3.04117 -3.61334e+08)
(-8.58113e+08 5.92238e+06 8.87832 -3.75904e+08 8.9336 -3.23983e+08)
(-7.8102e+08 3.10033e+06 23.7359 -3.61863e+08 -9.16524 -2.83561e+08)
(-7.00354e+08 8.36458e+06 -5.96328 -3.42203e+08 -24.6562 -2.32211e+08)
(-6.0503e+08 5.17628e+06 -31.3126 -3.22781e+08 1.88845 -1.80394e+08)
(-4.92591e+08 1.07063e+07 -8.37303 -2.99407e+08 37.5545 -1.27035e+08)
(-3.45885e+08 7.22813e+06 11.9697 -2.77855e+08 -2.86173 -7.04954e+07)
(-1.93893e+08 1.3057e+07 -2.33221 -2.51637e+08 -38.9765 -1.34576e+07)
(2.92918e+06 9.21582e+06 -9.03969 -2.28708e+08 22.7669 6.14392e+07)
(2.34712e+08 1.54427e+07 4.85813 -1.97379e+08 42.9847 1.24954e+08)
(5.37355e+08 1.11173e+07 4.39734 -1.73297e+08 -24.5178 2.3785e+08)
(8.57805e+08 1.7769e+07 -0.288744 -1.32537e+08 -42.6279 3.28482e+08)
(1.10049e+09 1.29568e+07 -1.95409 -1.05083e+08 27.1561 4.95787e+08)
(1.236e+09 1.99542e+07 -2.10394 -5.03309e+07 15.0964 5.96249e+08)
(-9.69029e+08 -99304 -2.40001 -4.0566e+08 3.13652 -4.02804e+08)
(-9.53064e+08 3.07367e+06 -11.3168 -3.98033e+08 -1.37516 -3.86651e+08)
(-9.09709e+08 874429 -7.5076 -3.90903e+08 3.02465 -3.61237e+08)
(-8.55675e+08 5.57644e+06 8.88063 -3.75832e+08 8.8943 -3.23881e+08)
(-7.7859e+08 2.65373e+06 23.7267 -3.61771e+08 -9.11954 -2.83495e+08)
(-6.97882e+08 7.85904e+06 -5.96842 -3.42154e+08 -24.5697 -2.32141e+08)
(-6.02577e+08 4.63914e+06 -31.3179 -3.22714e+08 1.8652 -1.80353e+08)
(-4.90122e+08 1.01106e+07 -8.38514 -2.99364e+08 37.465 -1.26966e+08)
(-3.434e+08 6.67189e+06 11.997 -2.77805e+08 -2.83282 -7.0446e+07)
(-1.91418e+08 1.24629e+07 -2.33295 -2.51577e+08 -38.8924 -1.3347e+07)
(5.39824e+06 8.67705e+06 -9.07643 -2.28689e+08 22.6972 6.15003e+07)
(2.37156e+08 1.49344e+07 4.85289 -1.97337e+08 42.8871 1.2503e+08)
(5.39787e+08 1.06743e+07 4.43808 -1.73333e+08 -24.4825 2.37903e+08)
(8.60236e+08 1.74411e+07 -0.288792 -1.3251e+08 -42.5438 3.28569e+08)
(1.1029e+09 1.27504e+07 -1.97475 -1.05116e+08 27.1487 4.95795e+08)
(1.23841e+09 1.98927e+07 -2.11087 -5.03037e+07 15.0654 5.96265e+08)
(-9.66585e+08 -177903 -2.4015 -4.05548e+08 3.1071 -4.02695e+08)
(-9.50843e+08 2.92426e+06 -11.3213 -3.9792e+08 -1.37022 -3.86532e+08)
(-9.0748e+08 592988 -7.50611 -3.90773e+08 3.00962 -3.6112e+08)
(-8.53413e+08 5.2391e+06 8.88251 -3.75724e+08 8.85881 -3.23749e+08)
(-7.76323e+08 2.22513e+06 23.7153 -3.61634e+08 -9.08304 -2.8336e+08)
(-6.95582e+08 7.357e+06 -5.97286 -3.42045e+08 -24.5016 -2.31966e+08)
(-6.00272e+08 4.10239e+06 -31.3123 -3.22599e+08 1.84344 -1.80211e+08)
(-4.87756e+08 9.51267e+06 -8.39976 -2.99262e+08 37.392 -1.26793e+08)
(-3.41038e+08 6.0895e+06 11.9894 -2.77743e+08 -2.80922 -7.03214e+07)
(-1.89008e+08 1.18272e+07 -2.33488 -2.51519e+08 -38.8195 -1.31722e+07)
(7.85129e+06 8.10604e+06 -9.11791 -2.28674e+08 22.6425 6.16504e+07)
(2.39634e+08 1.43913e+07 4.84989 -1.97288e+08 42.8034 1.25203e+08)
(5.42296e+08 1.02331e+07 4.47464 -1.73347e+08 -24.438 2.37991e+08)
(8.62779e+08 1.71166e+07 -0.288796 -1.3246e+08 -42.4597 3.2868e+08)
(1.10544e+09 1.25231e+07 -2.00356 -1.05144e+08 27.1457 4.95865e+08)
(1.24097e+09 1.98362e+07 -2.11674 -5.02804e+07 15.0353 5.96345e+08)
(-9.64365e+08 -258897 -2.40295 -4.05424e+08 3.0806 -4.02576e+08)
(-9.48873e+08 2.7794e+06 -11.3259 -3.9773e+08 -1.36697 -3.86327e+08)
(-9.05491e+08 313973 -7.50404 -3.90563e+08 2.99771 -3.60919e+08)
(-8.51376e+08 4.89235e+06 8.88502 -3.75557e+08 8.83307 -3.23532e+08)
(-7.74273e+08 1.76685e+06 23.7015 -3.61444e+08 -9.04869 -2.83157e+08)
(-6.93449e+08 6.81312e+06 -5.97839 -3.41913e+08 -24.4477 -2.31723e+08)
(-5.981e+08 3.53e+06 -31.3121 -3.22438e+08 1.81437 -1.79992e+08)
(-4.85517e+08 8.84746e+06 -8.41367 -2.99155e+08 37.3397 -1.26544e+08)
(-3.38752e+08 5.4512e+06 12.0034 -2.77647e+08 -2.76509 -7.01151e+07)
(-1.86654e+08 1.11668e+07 -2.33598 -2.51432e+08 -38.7483 -1.29897e+07)
(1.02874e+07 7.51771e+06 -9.1694 -2.28633e+08 22.5864 6.1801e+07)
(2.4214e+08 1.38342e+07 4.84857 -1.97222e+08 42.7185 1.25385e+08)
(5.44879e+08 9.76787e+06 4.5125 -1.73353e+08 -24.4035 2.38143e+08)
(8.65411e+08 1.67623e+07 -0.288774 -1.32427e+08 -42.38 3.28844e+08)
(1.10811e+09 1.22738e+07 -2.02935 -1.05177e+08 27.1463 4.95998e+08)
(1.24369e+09 1.97689e+07 -2.12413 -5.02585e+07 15.0064 5.96507e+08)
(-9.624e+08 -338623 -2.40588 -4.05217e+08 3.06074 -4.02373e+08)
(-9.47117e+08 2.62005e+06 -11.3302 -3.97501e+08 -1.3647 -3.86082e+08)
(-9.03719e+08 881.118 -7.50094 -3.90324e+08 2.98831 -3.60677e+08)
(-8.4956e+08 4.51259e+06 8.88636 -3.75367e+08 8.81348 -3.2328e+08)
(-7.72433e+08 1.27473e+06 23.6824 -3.61229e+08 -9.01214 -2.82952e+08)
(-6.91513e+08 6.24906e+06 -5.9843 -3.41761e+08 -24.3952 -2.3151e+08)
(-5.96117e+08 2.92333e+06 -31.3084 -3.22276e+08 1.78699 -1.79811e+08)
(-4.83422e+08 8.15451e+06 -8.43106 -2.99042e+08 37.2899 -1.26316e+08)
(-3.36556e+08 4.79814e+06 12.0213 -2.77543e+08 -2.72165 -6.99169e+07)
(-1.84326e+08 1.04602e+07 -2.33721 -2.51341e+08 -38.6867 -1.27334e+07)
(1.27159e+07 6.88529e+06 -9.21895 -2.28609e+08 22.5166 6.20078e+07)
(2.44672e+08 1.32255e+07 4.84369 -1.9717e+08 42.6373 1.25634e+08)
(5.47517e+08 9.25636e+06 4.55925 -1.73379e+08 -24.3614 2.38358e+08)
(8.68155e+08 1.63879e+07 -0.288727 -1.324e+08 -42.3074 3.291e+08)
(1.11094e+09 1.20106e+07 -2.05755 -1.05221e+08 27.1412 4.96236e+08)
(1.24658e+09 1.97008e+07 -2.13139 -5.02409e+07 14.9785 5.96758e+08)
(-9.60649e+08 -428659 -2.40727 -4.04971e+08 3.04512 -4.0213e+08)
(-9.45664e+08 2.45002e+06 -11.3351 -3.973e+08 -1.36286 -3.85867e+08)
(-9.02234e+08 -335410 -7.49797 -3.90104e+08 2.98001 -3.60463e+08)
(-8.47992e+08 4.1115e+06 8.8882 -3.75189e+08 8.79714 -3.23042e+08)
(-7.70809e+08 761863 23.6627 -3.61021e+08 -8.98213 -2.82731e+08)
(-6.89758e+08 5.63946e+06 -5.99075 -3.41614e+08 -24.3571 -2.3124e+08)
(-5.94286e+08 2.27974e+06 -31.3051 -3.22119e+08 1.75562 -1.79581e+08)
(-4.8144e+08 7.40922e+06 -8.4482 -2.98927e+08 37.2534 -1.26035e+08)
(-3.34463e+08 4.09017e+06 12.0358 -2.77457e+08 -2.67585 -6.96769e+07)
(-1.82093e+08 9.68912e+06 -2.33891 -2.51257e+08 -38.6339 -1.24406e+07)
(1.51084e+07 6.20257e+06 -9.28122 -2.28588e+08 22.4545 6.22719e+07)
(2.47225e+08 1.25826e+07 4.8393 -1.9711e+08 42.5652 1.25954e+08)
(5.50253e+08 8.71376e+06 4.6067 -1.73399e+08 -24.3224 2.3865e+08)
(8.71022e+08 1.59786e+07 -0.288649 -1.3237e+08 -42.2386 3.29423e+08)
(1.1139e+09 1.17101e+07 -2.09839 -1.05273e+08 27.1401 4.96539e+08)
(1.24966e+09 1.9625e+07 -2.13981 -5.02157e+07 14.952 5.97096e+08)
(-9.59208e+08 -526346 -2.40917 -4.04754e+08 3.03222 -4.01916e+08)
(-9.44462e+08 2.28024e+06 -11.3407 -3.97084e+08 -1.36201 -3.85634e+08)
(-9.00995e+08 -682572 -7.4935 -3.89866e+08 2.97321 -3.60234e+08)
(-8.46659e+08 3.69534e+06 8.89008 -3.75006e+08 8.78667 -3.22791e+08)
(-7.69431e+08 208523 23.6362 -3.60798e+08 -8.95234 -2.82502e+08)
(-6.88235e+08 4.98769e+06 -5.99831 -3.41464e+08 -24.3284 -2.30964e+08)
(-5.92661e+08 1.58998e+06 -31.2994 -3.21933e+08 1.71968 -1.79333e+08)
(-4.79637e+08 6.60945e+06 -8.46862 -2.98792e+08 37.2323 -1.25719e+08)
(-3.32487e+08 3.33908e+06 12.0579 -2.77326e+08 -2.61739 -6.93849e+07)
(-1.79894e+08 8.87751e+06 -2.34033 -2.5113e+08 -38.5894 -1.20756e+07)
(1.75158e+07 5.47444e+06 -9.34481 -2.28536e+08 22.3822 6.25992e+07)
(2.49821e+08 1.18877e+07 4.83279 -1.97031e+08 42.4952 1.26343e+08)
(5.53038e+08 8.10823e+06 4.66808 -1.73441e+08 -24.2886 2.39035e+08)
(8.73991e+08 1.552e+07 -0.288532 -1.32341e+08 -42.1789 3.2986e+08)
(1.11705e+09 1.13895e+07 -2.1342 -1.05337e+08 27.1326 4.96924e+08)
(1.25297e+09 1.95373e+07 -2.15025 -5.01936e+07 14.926 5.97514e+08)
(-9.5802e+08 -627128 -2.41194 -4.04517e+08 3.02337 -4.01684e+08)
(-9.43578e+08 2.09714e+06 -11.3462 -3.96898e+08 -1.36192 -3.8543e+08)
(-9.00066e+08 -1.06201e+06 -7.48801 -3.89648e+08 2.96808 -3.60028e+08)
(-8.45624e+08 3.25052e+06 8.89155 -3.74835e+08 8.78165 -3.22549e+08)
(-7.68314e+08 -366393 23.6081 -3.60574e+08 -8.9257 -2.82269e+08)
(-6.86921e+08 4.30946e+06 -6.00635 -3.41295e+08 -24.3086 -2.30673e+08)
(-5.91219e+08 879588 -31.2942 -3.21744e+08 1.68619 -1.7907e+08)
(-4.7796e+08 5.77222e+06 -8.4888 -2.98637e+08 37.2191 -1.25373e+08)
(-3.30614e+08 2.55428e+06 12.0797 -2.77215e+08 -2.56763 -6.90691e+07)
(-1.778e+08 7.98165e+06 -2.34229 -2.51021e+08 -38.5585 -1.16432e+07)
(1.98601e+07 4.66229e+06 -9.42429 -2.28514e+08 22.3154 6.30023e+07)
(2.52413e+08 1.10893e+07 4.82126 -1.96956e+08 42.438 1.26821e+08)
(5.55908e+08 7.4285e+06 4.73817 -1.73483e+08 -24.2424 2.39447e+08)
(8.77125e+08 1.50191e+07 -0.288566 -1.32296e+08 -42.12 3.30347e+08)
(1.12037e+09 1.10166e+07 -2.18408 -1.05408e+08 27.1257 4.97388e+08)
(1.25649e+09 1.9446e+07 -2.16116 -5.01703e+07 14.9005 5.98017e+08)
(-9.57151e+08 -739394 -2.41498 -4.04312e+08 3.01791 -4.01484e+08)
(-9.42992e+08 1.92845e+06 -11.352 -3.96749e+08 -1.36245 -3.85262e+08)
(-8.99423e+08 -1.43108e+06 -7.48153 -3.89462e+08 2.96439 -3.59854e+08)
(-8.44835e+08 2.81409e+06 8.89387 -3.74699e+08 8.78079 -3.2233e+08)
(-7.67448e+08 -949695 23.5755 -3.60381e+08 -8.90199 -2.82051e+08)
(-6.85852e+08 3.59356e+06 -6.01571 -3.41173e+08 -24.3035 -2.30361e+08)
(-5.9e+08 122178 -31.285 -3.2157e+08 1.64249 -1.78784e+08)
(-4.76485e+08 4.8548e+06 -8.51309 -2.98515e+08 37.2263 -1.24995e+08)
(-3.28921e+08 1.67167e+06 12.0945 -2.77106e+08 -2.49387 -6.8728e+07)
(-1.7581e+08 7.01646e+06 -2.34461 -2.50909e+08 -38.5264 -1.12475e+07)
(2.21777e+07 3.79681e+06 -9.51064 -2.28482e+08 22.2486 6.33883e+07)
(2.55043e+08 1.02552e+07 4.81603 -1.96876e+08 42.3785 1.27303e+08)
(5.5888e+08 6.70246e+06 4.80782 -1.73522e+08 -24.2072 2.39931e+08)
(8.8038e+08 1.44546e+07 -0.288355 -1.32269e+08 -42.0639 3.30889e+08)
(1.12391e+09 1.05949e+07 -2.23942 -1.05485e+08 27.1239 4.9792e+08)
(1.26029e+09 1.93364e+07 -2.17519 -5.01479e+07 14.8755 5.98615e+08)
(-9.56589e+08 -849851 -2.418 -4.04146e+08 3.01544 -4.01322e+08)
(-9.42698e+08 1.75392e+06 -11.358 -3.9668e+08 -1.36368 -3.8517e+08)
(-8.99084e+08 -1.83047e+06 -7.47273 -3.89349e+08 2.96119 -3.59757e+08)
(-8.44366e+08 2.34742e+06 8.89578 -3.74647e+08 8.78386 -3.22186e+08)
(-7.66896e+08 -1.57729e+06 23.5351 -3.60249e+08 -8.87038 -2.81938e+08)
(-6.85053e+08 2.84791e+06 -6.02646 -3.41109e+08 -24.2926 -2.30181e+08)
(-5.89027e+08 -658799 -31.2796 -3.2145e+08 1.59871 -1.78617e+08)
(-4.75219e+08 3.90077e+06 -8.53871 -2.98434e+08 37.2318 -1.24707e+08)
(-3.27346e+08 785142 12.1376 -2.77023e+08 -2.4197 -6.84445e+07)
(-1.73889e+08 5.99214e+06 -2.34634 -2.50808e+08 -38.5012 -1.08162e+07)
(2.44515e+07 2.85414e+06 -9.61303 -2.2848e+08 22.1651 6.37906e+07)
(2.57675e+08 9.31252e+06 4.80011 -1.96803e+08 42.3192 1.27821e+08)
(5.61892e+08 5.86297e+06 4.90515 -1.736e+08 -24.1664 2.40445e+08)
(8.83793e+08 1.38267e+07 -0.288232 -1.32235e+08 -42.0123 3.31521e+08)
(1.12767e+09 1.01293e+07 -2.30151 -1.05582e+08 27.1159 4.98531e+08)
(1.26439e+09 1.92166e+07 -2.1912 -5.01204e+07 14.85 5.99301e+08)
(-9.56317e+08 -971051 -2.42136 -4.04056e+08 3.01486 -4.01237e+08)
(-9.42743e+08 1.59359e+06 -11.3646 -3.96805e+08 -1.36397 -3.8528e+08)
(-8.99078e+08 -2.22153e+06 -7.46273 -3.89423e+08 2.95724 -3.59853e+08)
(-8.44184e+08 1.90273e+06 8.89769 -3.7475e+08 8.7832 -3.22215e+08)
(-7.66609e+08 -2.16436e+06 23.4929 -3.6026e+08 -8.84115 -2.81969e+08)
(-6.84494e+08 2.1076e+06 -6.03771 -3.41159e+08 -24.2867 -2.30072e+08)
(-5.88294e+08 -1.44469e+06 -31.2685 -3.21433e+08 1.54884 -1.78535e+08)
(-4.74143e+08 2.91675e+06 -8.56751 -2.9842e+08 37.2419 -1.2448e+08)
(-3.25982e+08 -159163 12.157 -2.77021e+08 -2.341 -6.82383e+07)
(-1.72164e+08 4.88775e+06 -2.3496 -2.5076e+08 -38.4778 -1.0448e+07)
(2.66237e+07 1.85079e+06 -9.72368 -2.28516e+08 22.0887 6.41749e+07)