/*--------------------------------*- C++ -*----------------------------------*\
| =========                 |                                                 |
| \\      /  F ield         | OpenFOAM: The Open Source CFD Toolbox           |
|  \\    /   O peration     | Version:  4.1                                   |
|   \\  /    A nd           | Web:      www.OpenFOAM.org                      |
|    \\/     M anipulation  |                                                 |
\*---------------------------------------------------------------------------*/
FoamFile
{
    version     2.0;
    format      ascii;
    class       surfaceScalarField;
    location    "0.0002";
    object      phi;
}
// * * * * * * * * * * * * * * * * * * * * * * * * * * * * * * * * * * * * * //

dimensions      [0 3 -1 0 0 0 0];

internalField   nonuniform List<scalar> 
4288
(
-3.0459e-12
-1.9837e-13
-1.9938e-13
1.591e-13
1.5712e-13
-3.2627e-12
-5.3945e-13
-5.4266e-13
4.2868e-13
4.2827e-13
-3.1767e-12
-7.2742e-13
-7.3206e-13
5.7357e-13
5.7469e-13
-2.9908e-12
-7.0401e-13
-7.0893e-13
5.4736e-13
5.5064e-13
-2.937e-12
-4.6796e-13
-4.7188e-13
3.5041e-13
3.5443e-13
-3.1791e-12
-7.9893e-14
-8.1702e-14
3.3111e-14
3.7485e-14
-3.7446e-12
3.5277e-13
3.5328e-13
-3.122e-13
-3.0847e-13
-4.5147e-12
7.0738e-13
7.0982e-13
-5.8152e-13
-5.7859e-13
-5.2658e-12
8.6829e-13
8.723e-13
-6.7584e-13
-6.7468e-13
-5.7283e-12
7.8426e-13
7.8897e-13
-5.5958e-13
-5.6193e-13
-5.6587e-12
4.5605e-13
4.6031e-13
-2.4655e-13
-2.4363e-13
-4.6448e-14
-4.1419e-14
1.7828e-13
2.1765e-13
-2.9541e-12
-1.6885e-13
-1.9251e-13
2.0427e-13
-3.1924e-12
-4.5974e-13
-5.2634e-13
5.6024e-13
-3.1472e-12
-6.2093e-13
-7.1658e-13
7.6676e-13
-3.0071e-12
-6.0284e-13
-7.0907e-13
7.6549e-13
-2.9855e-12
-4.0458e-13
-5.0225e-13
5.523e-13
-3.2324e-12
-7.6403e-14
-1.4908e-13
1.8181e-13
-3.7727e-12
2.9336e-13
2.5592e-13
-2.4528e-13
-4.4949e-12
6.02e-13
6.0149e-13
-6.0765e-13
-5.1887e-12
7.5692e-13
7.8685e-13
-8.0131e-13
-5.5998e-12
7.0724e-13
7.5372e-13
-7.6103e-13
-5.4981e-12
4.5089e-13
4.9701e-13
-4.8544e-13
4.0772e-14
7.0595e-14
-3.4398e-14
-2.8925e-12
-9.2112e-14
-1.6812e-13
2.1589e-13
-3.145e-12
-2.5065e-13
-4.5951e-13
5.9053e-13
-3.1267e-12
-3.3744e-13
-6.2445e-13
8.0201e-13
-3.017e-12
-3.2547e-13
-6.1613e-13
7.882e-13
-3.0167e-12
-2.1456e-13
-4.337e-13
5.4606e-13
-3.2669e-12
-3.2687e-14
-1.2395e-13
1.3745e-13
-3.7905e-12
1.7158e-13
2.2987e-13
-3.2581e-13
-4.4811e-12
3.4172e-13
5.2928e-13
-7.1093e-13
-5.1365e-12
4.2739e-13
6.8684e-13
-9.0333e-13
-5.513e-12
3.9941e-13
6.5049e-13
-8.3592e-13
-5.3897e-12
2.5622e-13
4.1721e-13
-5.0908e-13
2.4583e-14
3.4357e-14
1.4644e-14
-2.8623e-12
5.3085e-16
-1.5953e-13
2.2529e-13
-3.1219e-12
1.4516e-15
-4.3554e-13
6.1488e-13
-3.1171e-12
1.8781e-15
-5.9064e-13
8.3282e-13
-3.0223e-12
1.4461e-15
-5.8052e-13
8.1399e-13
-3.0323e-12
2.5323e-16
-4.0475e-13
5.5597e-13
-3.2841e-12
-1.401e-15
-1.0841e-13
1.243e-13
-3.7993e-12
-3.0347e-15
2.2861e-13
-3.6294e-13
-4.4742e-12
-4.1777e-15
5.1186e-13
-7.6602e-13
-5.1104e-12
-4.7519e-15
6.5775e-13
-9.6353e-13
-5.4695e-12
-4.8121e-15
6.1681e-13
-8.8621e-13
-5.3359e-12
-4.3998e-15
3.8723e-13
-5.3521e-13
-4.4711e-15
1.6335e-14
1.7323e-14
-2.8626e-12
9.3071e-14
-1.5979e-13
2.2572e-13
-3.1222e-12
2.5329e-13
-4.3622e-13
6.16e-13
-3.1173e-12
3.4081e-13
-5.9162e-13
8.3445e-13
-3.0225e-12
3.2798e-13
-5.8159e-13
8.1581e-13
-3.0326e-12
2.1487e-13
-4.0575e-13
5.5759e-13
-3.2843e-12
2.9915e-14
-1.0925e-13
1.2553e-13
-3.7995e-12
-1.7743e-13
2.28e-13
-3.6216e-13
-4.4743e-12
-3.497e-13
5.1147e-13
-7.6569e-13
-5.1103e-12
-4.3638e-13
6.5751e-13
-9.6356e-13
-5.4694e-12
-4.0863e-13
6.1657e-13
-8.8622e-13
-5.3358e-12
-2.6461e-13
3.8691e-13
-5.3501e-13
-3.3811e-14
1.6226e-14
1.7541e-14
-2.8931e-12
1.6944e-13
-1.6878e-13
2.1707e-13
-3.1457e-12
4.6181e-13
-4.6124e-13
5.9321e-13
-3.1274e-12
6.2371e-13
-6.2691e-13
8.057e-13
-3.0177e-12
6.0508e-13
-6.1883e-13
7.9201e-13
-3.0173e-12
4.0501e-13
-4.3626e-13
5.4954e-13
-3.2674e-12
7.4149e-14
-1.2616e-13
1.4026e-13
-3.7909e-12
-2.984e-13
2.2817e-13
-3.2386e-13
-4.4813e-12
-6.0899e-13
5.281e-13
-7.0983e-13
-5.1364e-12
-7.6507e-13
6.8594e-13
-9.0254e-13
-5.5125e-12
-7.1605e-13
6.4964e-13
-8.3504e-13
-5.3894e-12
-4.5831e-13
4.1616e-13
-5.081e-13
-4.7051e-14
3.4536e-14
1.0649e-14
-2.9553e-12
1.9884e-13
-1.9325e-13
2.0522e-13
-3.1936e-12
5.4152e-13
-5.2853e-13
5.6287e-13
-3.1483e-12
7.3051e-13
-7.1976e-13
7.7033e-13
-3.0082e-12
7.071e-13
-7.1271e-13
7.6924e-13
-2.9864e-12
4.697e-13
-5.0586e-13
5.5585e-13
-3.2332e-12
7.923e-14
-1.5234e-13
1.8488e-13
-3.7733e-12
-3.562e-13
2.533e-13
-2.4284e-13
-4.4952e-12
-7.128e-13
5.9944e-13
-6.0572e-13
-5.1885e-12
-8.7549e-13
7.8521e-13
-7.9934e-13
-5.5988e-12
-7.9267e-13
7.5236e-13
-7.5951e-13
-5.4974e-12
-4.6215e-13
4.9501e-13
-4.8352e-13
3.7894e-14
6.8949e-14
-3.0913e-14
-3.0475e-12
-2.0011e-13
1.5928e-13
1.5787e-13
-3.2643e-12
-5.4526e-13
4.3298e-13
4.2846e-13
-3.1782e-12
-7.3611e-13
5.8096e-13
5.7419e-13
-2.9923e-12
-7.1388e-13
5.5713e-13
5.4877e-13
-2.9383e-12
-4.7706e-13
3.6056e-13
3.5126e-13
-3.1802e-12
-8.6568e-14
4.2233e-14
3.2956e-14
-3.7455e-12
3.4923e-13
-3.0534e-13
-3.1411e-13
-4.5152e-12
7.0642e-13
-5.7668e-13
-5.8445e-13
-5.2658e-12
8.698e-13
-6.7384e-13
-6.8044e-13
-5.7268e-12
7.8732e-13
-5.613e-13
-5.6732e-13
-5.6582e-12
4.5723e-13
-2.4324e-13
-2.4842e-13
-4.315e-14
2.0131e-13
1.8582e-13
-2.9543e-12
-1.9119e-13
-1.6999e-13
2.0347e-13
-3.1926e-12
-5.223e-13
-4.6293e-13
5.5716e-13
-3.1472e-12
-7.1084e-13
-6.2525e-13
7.6206e-13
-3.0071e-12
-7.0313e-13
-6.0702e-13
7.6024e-13
-2.9854e-12
-4.9763e-13
-4.0749e-13
5.4779e-13
-3.2323e-12
-1.4711e-13
-7.7293e-14
1.7933e-13
-3.7726e-12
2.5504e-13
2.9445e-13
-2.454e-13
-4.4947e-12
5.9826e-13
6.045e-13
-6.0562e-13
-5.1886e-12
7.818e-13
7.6035e-13
-7.9721e-13
-5.5999e-12
7.4783e-13
7.114e-13
-7.5623e-13
-5.498e-12
4.9146e-13
4.5534e-13
-4.8207e-13
6.4503e-14
4.2853e-14
-2.6643e-14
-2.8632e-12
-1.5121e-13
-1.5292e-13
-3.1239e-12
-4.1216e-13
-4.1701e-13
-3.1202e-12
-5.5795e-13
-5.6451e-13
-3.0265e-12
-5.4541e-13
-5.5179e-13
-3.037e-12
-3.739e-13
-3.7841e-13
-3.2882e-12
-8.6956e-14
-8.8445e-14
-3.8022e-12
2.3905e-13
2.4056e-13
-4.4752e-12
5.1432e-13
5.1807e-13
-5.1101e-12
6.578e-13
6.6302e-13
-5.4687e-12
6.2261e-13
6.2854e-13
-5.335e-12
4.0543e-13
4.1134e-13
4.9852e-14
5.5056e-14
-2.8039e-12
-8.209e-14
-1.3057e-13
-3.0796e-12
-2.2341e-13
-3.5634e-13
-3.1033e-12
-3.0124e-13
-4.8288e-13
-3.0398e-12
-2.9205e-13
-4.7328e-13
-3.0714e-12
-1.9568e-13
-3.2714e-13
-3.3259e-12
-3.6415e-14
-8.1897e-14
-3.8232e-12
1.4349e-13
1.962e-13
-4.4645e-12
2.9442e-13
4.2962e-13
-5.0609e-12
3.7177e-13
5.4989e-13
-5.3845e-12
3.4936e-13
5.1688e-13
-5.2293e-12
2.2548e-13
3.2889e-13
2.4205e-14
2.4094e-14
-2.7748e-12
6.8093e-16
-1.2193e-13
-3.0578e-12
1.9032e-15
-3.3273e-13
-3.0947e-12
2.5129e-15
-4.5074e-13
-3.0458e-12
2.1362e-15
-4.4162e-13
-3.0877e-12
8.9622e-16
-3.0509e-13
-3.3437e-12
-8.366e-16
-7.628e-14
-3.8328e-12
-2.4804e-15
1.8268e-13
-4.4585e-12
-3.5432e-15
3.9902e-13
-5.036e-12
-4.0505e-15
5.0884e-13
-5.3424e-12
-4.1555e-15
4.7474e-13
-5.1768e-12
-3.9048e-15
2.9585e-13
-3.884e-15
8.8924e-15
-2.775e-12
8.3378e-14
-1.2203e-13
-3.058e-12
2.2704e-13
-3.3302e-13
-3.095e-12
3.0605e-13
-4.5118e-13
-3.046e-12
2.9615e-13
-4.4215e-13
-3.0878e-12
1.9742e-13
-3.0566e-13
-3.3438e-12
3.4805e-14
-7.6825e-14
-3.8329e-12
-1.4833e-13
1.8221e-13
-4.4586e-12
-3.0138e-13
3.9865e-13
-5.0359e-12
-3.7978e-13
5.0854e-13
-5.3423e-12
-3.5764e-13
4.7443e-13
-5.1767e-12
-2.332e-13
2.9548e-13
-3.1952e-14
8.641e-15
-2.8045e-12
1.5228e-13
-1.3083e-13
-3.0803e-12
4.1534e-13
-3.5709e-13
-3.1039e-12
5.6221e-13
-4.8404e-13
-3.0404e-12
5.4915e-13
-4.7471e-13
-3.0719e-12
3.7559e-13
-3.2868e-13
-3.3263e-12
8.5588e-14
-8.3395e-14
-3.8236e-12
-2.4348e-13
1.9491e-13
-4.4647e-12
-5.2085e-13
4.286e-13
-5.0609e-12
-6.6555e-13
5.4902e-13
-5.3842e-12
-6.3083e-13
5.1603e-13
-5.229e-12
-4.1275e-13
3.2781e-13
-5.7008e-14
2.3464e-14
-2.8644e-12
1.9206e-13
-1.5325e-13
-3.1251e-12
5.2505e-13
-4.1807e-13
-3.1213e-12
7.1466e-13
-5.6622e-13
-3.0274e-12
7.0666e-13
-5.5394e-13
-3.0378e-12
4.9945e-13
-3.8074e-13
-3.2889e-12
1.4618e-13
-9.0675e-14
-3.8027e-12
-2.5887e-13
2.3871e-13
-4.4754e-12
-6.0419e-13
5.1662e-13
-5.11e-12
-7.8914e-13
6.6188e-13
-5.468e-12
-7.5583e-13
6.2747e-13
-5.3345e-12
-4.9795e-13
4.096e-13
-7.2186e-14
5.4077e-14
-2.9559e-12
-1.7038e-13
2.0397e-13
-3.1941e-12
-4.6442e-13
5.5896e-13
-3.1487e-12
-6.277e-13
7.6456e-13
-3.0085e-12
-6.1007e-13
7.6233e-13
-2.9866e-12
-4.1066e-13
5.483e-13
-3.2334e-12
-8.0124e-14
1.7736e-13
-3.7733e-12
2.9235e-13
-2.4995e-13
-4.4952e-12
6.0307e-13
-6.1204e-13
-5.1886e-12
7.5951e-13
-8.0484e-13
-5.5988e-12
7.1078e-13
-7.6462e-13
-5.4975e-12
4.5317e-13
-4.8755e-13
4.363e-14
-3.7285e-14
-2.8927e-12
-1.6676e-13
-9.3449e-14
2.1535e-13
-3.1451e-12
-4.555e-13
-2.5416e-13
5.8845e-13
-3.1268e-12
-6.1894e-13
-3.4205e-13
7.99e-13
-3.0171e-12
-6.1064e-13
-3.2974e-13
7.8496e-13
-3.0166e-12
-4.2967e-13
-2.1746e-13
5.4355e-13
-3.2668e-12
-1.225e-13
-3.3662e-14
1.364e-13
-3.7904e-12
2.2863e-13
1.7238e-13
-3.253e-13
-4.481e-12
5.2589e-13
3.4374e-13
-7.092e-13
-5.1365e-12
6.8182e-13
4.3007e-13
-9.0038e-13
-5.5131e-12
6.4447e-13
4.0244e-13
-8.3179e-13
-5.3901e-12
4.1108e-13
2.5989e-13
-5.0514e-13
2.9221e-14
2.9245e-14
1.3488e-14
-2.804e-12
-1.2854e-13
-8.3982e-14
-3.0797e-12
-3.5071e-13
-2.2858e-13
-3.1033e-12
-4.7536e-13
-3.0807e-13
-3.0398e-12
-4.6608e-13
-2.9845e-13
-3.0714e-12
-3.2214e-13
-2.0006e-13
-3.3259e-12
-8.033e-14
-3.79e-14
-3.8232e-12
1.9441e-13
1.4464e-13
-4.4645e-12
4.2535e-13
2.9736e-13
-5.0609e-12
5.4402e-13
3.7574e-13
-5.3846e-12
5.1029e-13
3.538e-13
-5.2294e-12
3.2232e-13
2.3018e-13
1.8202e-14
2.9002e-14
-2.747e-12
-6.9855e-14
-7.2186e-14
-3.0385e-12
-1.9041e-13
-1.9676e-13
-3.0898e-12
-2.576e-13
-2.6593e-13
-3.0563e-12
-2.5149e-13
-2.5929e-13
-3.1088e-12
-1.7171e-13
-1.7701e-13
-3.3664e-12
-3.8518e-14
-4.0286e-14
-3.8472e-12
1.1236e-13
1.1379e-13
-4.4566e-12
2.3872e-13
2.4231e-13
-5.0144e-12
3.0284e-13
3.0763e-13
-5.3032e-12
2.8256e-13
2.8777e-13
-5.1265e-12
1.7696e-13
1.8213e-13
7.1298e-15
1.1947e-14
-2.7189e-12
8.0668e-16
-6.7515e-14
-3.018e-12
2.2284e-15
-1.841e-13
-3.0825e-12
2.9194e-15
-2.4898e-13
-3.0635e-12
2.5409e-15
-2.4318e-13
-3.1261e-12
1.2449e-15
-1.6681e-13
-3.3852e-12
-5.358e-16
-3.9689e-14
-3.8578e-12
-2.1533e-15
1.0342e-13
-4.4517e-12
-3.1507e-15
2.2233e-13
-4.9907e-12
-3.6027e-15
2.8201e-13
-5.2624e-12
-3.6994e-15
2.6205e-13
-5.0753e-12
-3.5007e-15
1.6228e-13
-3.3768e-15
3.1199e-15
-2.7191e-12
7.1382e-14
-6.749e-14
-3.0182e-12
1.9464e-13
-1.8405e-13
-3.0827e-12
2.6313e-13
-2.4897e-13
-3.0637e-12
2.563e-13
-2.4326e-13
-3.1263e-12
1.7403e-13
-1.67e-13
-3.3854e-12
3.7391e-14
-3.9973e-14
-3.8579e-12
-1.1668e-13
1.031e-13
-4.4517e-12
-2.4507e-13
2.2202e-13
-4.9907e-12
-3.1016e-13
2.8171e-13
-5.2623e-12
-2.9012e-13
2.6173e-13
-5.0752e-12
-1.8409e-13
1.619e-13
-1.3959e-14
2.7752e-15
-2.7476e-12
1.2982e-13
-7.2107e-14
-3.0392e-12
3.5429e-13
-1.966e-13
-3.0904e-12
4.8006e-13
-2.6588e-13
-3.0568e-12
4.7016e-13
-2.5951e-13
-3.1093e-12
3.2403e-13
-1.7754e-13
-3.3668e-12
7.9096e-14
-4.1058e-14
-3.8474e-12
-1.9866e-13
1.1293e-13
-4.4567e-12
-4.3165e-13
2.4148e-13
-5.0144e-12
-5.5141e-13
3.0684e-13
-5.303e-12
-5.1804e-13
2.8694e-13
-5.1262e-12
-3.2953e-13
1.8106e-13
-2.4893e-14
1.1008e-14
-2.8051e-12
1.6776e-13
-8.3897e-14
-3.0807e-12
4.583e-13
-2.2845e-13
-3.1043e-12
6.2262e-13
-3.0814e-13
-3.0407e-12
6.1384e-13
-2.989e-13
-3.0722e-12
4.3104e-13
-2.0088e-13
-3.3265e-12
1.2119e-13
-3.8945e-14
-3.8237e-12
-2.3263e-13
1.436e-13
-4.4648e-12
-5.318e-13
2.9642e-13
-5.0609e-12
-6.8884e-13
3.7489e-13
-5.3842e-12
-6.5192e-13
3.5287e-13
-5.2289e-12
-4.1781e-13
2.2867e-13
-3.4843e-14
2.7567e-14
-2.8943e-12
-9.3497e-14
2.1602e-13
-3.1466e-12
-2.5445e-13
5.9016e-13
-3.1282e-12
-3.4267e-13
8.0109e-13
-3.0183e-12
-3.307e-13
7.8662e-13
-3.0178e-12
-2.1857e-13
5.4378e-13
-3.2677e-12
-3.4645e-14
1.3458e-13
-3.791e-12
1.7175e-13
-3.2912e-13
-4.4814e-12
3.4341e-13
-7.1443e-13
-5.1364e-12
4.2988e-13
-9.063e-13
-5.5124e-12
4.0213e-13
-8.381e-13
-5.3892e-12
2.5836e-13
-5.1073e-13
2.728e-14
1.269e-14
-2.8626e-12
-1.5811e-13
-9.2481e-16
2.246e-13
-3.1221e-12
-4.316e-13
-2.4791e-15
6.1304e-13
-3.1171e-12
-5.854e-13
-3.3027e-15
8.3037e-13
-3.0223e-12
-5.7549e-13
-3.3982e-15
8.1168e-13
-3.0323e-12
-4.0124e-13
-3.1188e-15
5.5434e-13
-3.284e-12
-1.073e-13
-2.7983e-15
1.238e-13
-3.7992e-12
2.2729e-13
-2.6764e-15
-3.6222e-13
-4.4741e-12
5.0855e-13
-2.6562e-15
-7.6428e-13
-5.1103e-12
6.5303e-13
-2.6329e-15
-9.6104e-13
-5.4697e-12
6.1124e-13
-2.6364e-15
-8.8303e-13
-5.3362e-12
3.8118e-13
-2.1476e-15
-5.3132e-13
1.0321e-14
-1.7869e-15
2.1133e-14
-2.7749e-12
-1.1983e-13
-1.3055e-15
-3.0579e-12
-3.2699e-13
-3.4817e-15
-3.0948e-12
-4.4318e-13
-4.5343e-15
-3.0458e-12
-4.3448e-13
-4.4133e-15
-3.0877e-12
-3.0021e-13
-3.5931e-15
-3.3436e-12
-7.4755e-14
-2.5963e-15
-3.8328e-12
1.8097e-13
-1.8909e-15
-4.4584e-12
3.949e-13
-1.4809e-15
-5.0359e-12
5.0323e-13
-1.2861e-15
-5.3425e-12
4.6847e-13
-1.3058e-15
-5.177e-12
2.8947e-13
-1.1642e-15
2.8607e-15
-1.2381e-15
-2.719e-12
-6.5045e-14
-1.5388e-15
-3.0181e-12
-1.7741e-13
-4.1068e-15
-3.0826e-12
-2.4026e-13
-5.3199e-15
-3.0635e-12
-2.3504e-13
-5.0965e-15
-3.1261e-12
-1.6129e-13
-3.9531e-15
-3.3852e-12
-3.7828e-14
-2.5228e-15
-3.8578e-12
1.02e-13
-1.4459e-15
-4.4516e-12
2.1871e-13
-8.2491e-16
-4.9907e-12
2.7722e-13
-5.6508e-16
-5.2625e-12
2.5695e-13
-6.5478e-16
-5.0754e-12
1.5739e-13
-7.7083e-16
-1.2992e-15
-9.9538e-16
-2.6914e-12
8.3908e-16
-1.6285e-15
-2.9982e-12
2.2873e-15
-4.3502e-15
-3.076e-12
2.9572e-15
-5.6418e-15
-3.0714e-12
2.5614e-15
-5.402e-15
-3.144e-12
1.2687e-15
-4.1387e-15
-3.4045e-12
-4.6995e-16
-2.5299e-15
-3.869e-12
-1.9996e-15
-1.2994e-15
-4.4473e-12
-2.9043e-15
-5.9838e-16
-4.9675e-12
-3.2745e-15
-3.2469e-16
-5.2224e-12
-3.2991e-15
-4.7152e-16
-5.025e-12
-3.044e-15
-7.5022e-16
-2.79e-15
-1.0385e-15
-2.6916e-12
6.6619e-14
-1.5326e-15
-2.9984e-12
1.817e-13
-4.1034e-15
-3.0762e-12
2.4579e-13
-5.3576e-15
-3.0716e-12
2.3979e-13
-5.195e-15
-3.1441e-12
1.6357e-13
-4.0661e-15
-3.4046e-12
3.6754e-14
-2.5926e-15
-3.8691e-12
-1.0609e-13
-1.4545e-15
-4.4473e-12
-2.2468e-13
-7.9936e-16
-4.9676e-12
-2.84e-13
-5.4173e-16
-5.2223e-12
-2.6383e-13
-7.0794e-16
-5.0249e-12
-1.6376e-13
-1.0618e-15
-4.4817e-15
-1.3504e-15
-2.7196e-12
1.2111e-13
-1.2347e-15
-3.0187e-12
3.3048e-13
-3.3233e-15
-3.0831e-12
4.4765e-13
-4.3978e-15
-3.064e-12
4.3824e-13
-4.3844e-15
-3.1265e-12
3.0181e-13
-3.6404e-15
-3.3856e-12
7.3378e-14
-2.6348e-15
-3.8581e-12
-1.8514e-13
-1.8722e-15
-4.4518e-12
-4.0097e-13
-1.436e-15
-4.9907e-12
-5.1022e-13
-1.2574e-15
-5.2623e-12
-4.7564e-13
-1.3921e-15
-5.0752e-12
-2.9617e-13
-1.6719e-15
-8.855e-15
-1.768e-15
-2.776e-12
1.5901e-13
-8.7901e-16
-3.0589e-12
4.3404e-13
-2.3877e-15
-3.0957e-12
5.8847e-13
-3.2305e-15
-3.0467e-12
5.7796e-13
-3.3606e-15
-3.0884e-12
4.0198e-13
-3.039e-15
-3.3442e-12
1.0565e-13
-2.5722e-15
-3.8332e-12
-2.3125e-13
-2.2603e-15
-4.4587e-12
-5.1416e-13
-2.1161e-15
-5.036e-12
-6.595e-13
-2.0732e-15
-5.3423e-12
-6.1794e-13
-2.1872e-15
-5.1765e-12
-3.8752e-13
-2.374e-15
-1.5783e-14
-2.2761e-15
-2.8641e-12
-6.3114e-16
2.2507e-13
-3.1235e-12
-1.7417e-15
6.1423e-13
-3.1184e-12
-2.4306e-15
8.3181e-13
-3.0235e-12
-2.6505e-15
8.1263e-13
-3.0333e-12
-2.5717e-15
5.5411e-13
-3.2849e-12
-2.4046e-15
1.2201e-13
-3.7998e-12
-2.3355e-15
-3.6552e-13
-4.4744e-12
-2.3749e-15
-7.6865e-13
-5.1104e-12
-2.4892e-15
-9.6595e-13
-5.4693e-12
-2.7274e-15
-8.8812e-13
-5.3356e-12
-3.0747e-15
-5.3629e-13
-3.2696e-15
1.7738e-14
-2.8628e-12
-1.5838e-13
9.174e-14
2.2497e-13
-3.1223e-12
-4.3241e-13
2.4969e-13
6.14e-13
-3.1174e-12
-5.8661e-13
3.3606e-13
8.3183e-13
-3.0225e-12
-5.7688e-13
3.2351e-13
8.1334e-13
-3.0326e-12
-4.0251e-13
2.1164e-13
5.5588e-13
-3.2842e-12
-1.082e-13
2.8301e-14
1.2499e-13
-3.7993e-12
2.2684e-13
-1.7762e-13
-3.6151e-13
-4.4741e-12
5.085e-13
-3.4899e-13
-7.6401e-13
-5.1103e-12
6.533e-13
-4.3532e-13
-9.6109e-13
-5.4695e-12
6.1174e-13
-4.0777e-13
-8.833e-13
-5.3361e-12
3.8163e-13
-2.6418e-13
-5.3138e-13
1.0553e-14
-3.3684e-14
2.2201e-14
-2.7752e-12
-1.2004e-13
8.1594e-14
-3.0581e-12
-3.2762e-13
2.2222e-13
-3.095e-12
-4.4412e-13
2.9977e-13
-3.0461e-12
-4.3553e-13
2.9029e-13
-3.0878e-12
-3.0114e-13
1.933e-13
-3.3438e-12
-7.5364e-14
3.2871e-14
-3.8329e-12
1.8075e-13
-1.4844e-13
-4.4585e-12
3.9499e-13
-3.0043e-13
-5.0359e-12
5.0357e-13
-3.7846e-13
-5.3424e-12
4.6903e-13
-3.5653e-13
-5.1769e-12
2.9007e-13
-2.3253e-13
3.5022e-15
-3.1755e-14
-2.7192e-12
-6.5202e-14
6.9359e-14
-3.0183e-12
-1.7788e-13
1.892e-13
-3.0828e-12
-2.4095e-13
2.5611e-13
-3.0637e-12
-2.3578e-13
2.4981e-13
-3.1263e-12
-1.6191e-13
1.6953e-13
-3.3853e-12
-3.8189e-14
3.5371e-14
-3.8579e-12
1.0194e-13
-1.1676e-13
-4.4517e-12
2.189e-13
-2.4415e-13
-4.9907e-12
2.7759e-13
-3.0896e-13
-5.2624e-12
2.5748e-13
-2.8921e-13
-5.0754e-12
1.5799e-13
-1.8369e-13
-6.0053e-16
-1.3978e-14
-2.6917e-12
7.309e-16
6.4488e-14
-2.9984e-12
1.9681e-15
1.76e-13
-3.0762e-12
2.4919e-15
2.3844e-13
-3.0716e-12
2.0851e-15
2.3301e-13
-3.1441e-12
9.0649e-16
1.5891e-13
-3.4046e-12
-6.3894e-16
3.4728e-14
-3.869e-12
-1.9646e-15
-1.061e-13
-4.4473e-12
-2.7143e-15
-2.2369e-13
-4.9676e-12
-2.9758e-15
-2.828e-13
-5.2224e-12
-2.9124e-15
-2.6305e-13
-5.025e-12
-2.5853e-15
-1.6372e-13
-2.2198e-15
-5.0562e-15
-2.6918e-12
6.6592e-14
6.4562e-14
-2.9986e-12
1.8162e-13
1.7619e-13
-3.0764e-12
2.4567e-13
2.3868e-13
-3.0717e-12
2.3969e-13
2.3322e-13
-3.1443e-12
1.6353e-13
1.5906e-13
-3.4048e-12
3.6767e-14
3.484e-14
-3.8691e-12
-1.0605e-13
-1.06e-13
-4.4474e-12
-2.2464e-13
-2.2358e-13
-4.9676e-12
-2.8396e-13
-2.827e-13
-5.2224e-12
-2.6373e-13
-2.6298e-13
-5.0249e-12
-1.6353e-13
-1.6379e-13
-4.035e-15
-5.1931e-15
-2.7198e-12
1.2114e-13
6.9629e-14
-3.0188e-12
3.3056e-13
1.8992e-13
-3.0833e-12
4.4777e-13
2.5699e-13
-3.0642e-12
4.3842e-13
2.5061e-13
-3.1267e-12
3.0202e-13
1.7014e-13
-3.3857e-12
7.3574e-14
3.5771e-14
-3.8581e-12
-1.85e-13
-1.165e-13
-4.4519e-12
-4.009e-13
-2.4399e-13
-4.9908e-12
-5.1019e-13
-3.0886e-13
-5.2624e-12
-4.7557e-13
-2.892e-13
-5.0752e-12
-2.9598e-13
-1.8395e-13
-8.4234e-15
-1.4191e-14
-2.7762e-12
1.5902e-13
8.2043e-14
-3.059e-12
4.3406e-13
2.2341e-13
-3.0958e-12
5.8854e-13
3.0129e-13
-3.0468e-12
5.7812e-13
2.9178e-13
-3.0885e-12
4.0225e-13
1.945e-13
-3.3443e-12
1.0602e-13
3.3713e-14
-3.8333e-12
-2.3081e-13
-1.4791e-13
-4.4588e-12
-5.1369e-13
-3.0019e-13
-5.0361e-12
-6.5903e-13
-3.7841e-13
-5.3424e-12
-6.1751e-13
-3.5656e-13
-5.1766e-12
-3.8714e-13
-2.3285e-13
-1.5527e-14
-3.1536e-14
-2.8643e-12
9.2143e-14
2.2513e-13
-3.1236e-12
2.5076e-13
6.1433e-13
-3.1185e-12
3.3753e-13
8.3197e-13
-3.0236e-12
3.2514e-13
8.1286e-13
-3.0334e-12
2.1323e-13
5.545e-13
-3.285e-12
2.975e-14
1.2259e-13
-3.7999e-12
-1.7632e-13
-3.6479e-13
-4.4746e-12
-3.4794e-13
-7.6781e-13
-5.1106e-12
-4.3454e-13
-9.6509e-13
-5.4695e-12
-4.0713e-13
-8.8741e-13
-5.3357e-12
-2.64e-13
-5.358e-13
-3.2835e-14
1.7437e-14
-2.8935e-12
-1.675e-13
1.6858e-13
2.1632e-13
-3.1458e-12
-4.5777e-13
4.5939e-13
5.9131e-13
-3.1275e-12
-6.2237e-13
6.2048e-13
8.0322e-13
-3.0177e-12
-6.1457e-13
6.0195e-13
7.8977e-13
-3.0173e-12
-4.3331e-13
4.0256e-13
5.4804e-13
-3.2674e-12
-1.2513e-13
7.2519e-14
1.3983e-13
-3.7907e-12
2.2728e-13
-2.9933e-13
-3.2325e-13
-4.4812e-12
5.2563e-13
-6.0951e-13
-7.0836e-13
-5.1364e-12
6.8245e-13
-7.655e-13
-9.0047e-13
-5.5127e-12
6.4581e-13
-7.1671e-13
-8.3274e-13
-5.3898e-12
4.1217e-13
-4.5939e-13
-5.0538e-13
3.0135e-14
-4.9713e-14
1.5588e-14
-2.8048e-12
-1.2911e-13
1.5107e-13
-3.0804e-12
-3.5244e-13
4.1209e-13
-3.104e-12
-4.7796e-13
5.5801e-13
-3.0404e-12
-4.69e-13
5.4521e-13
-3.072e-12
-3.2475e-13
3.7263e-13
-3.3263e-12
-8.2055e-14
8.3758e-14
-3.8235e-12
1.9377e-13
-2.4447e-13
-4.4646e-12
4.2558e-13
-5.2147e-13
-5.0609e-12
5.4495e-13
-6.6612e-13
-5.3844e-12
5.1178e-13
-6.316e-13
-5.2293e-12
3.2381e-13
-4.1369e-13
1.9957e-14
-5.8593e-14
-2.7478e-12
-7.0291e-14
1.284e-13
-3.0393e-12
-1.9171e-13
3.5047e-13
-3.0904e-12
-2.5952e-13
4.7515e-13
-3.0568e-12
-2.5357e-13
4.6562e-13
-3.1093e-12
-1.7344e-13
3.2076e-13
-3.3668e-12
-3.9489e-14
7.7297e-14
-3.8474e-12
1.1226e-13
-1.9942e-13
-4.4567e-12
2.3932e-13
-4.32e-13
-5.0145e-12
3.0394e-13
-5.5179e-13
-5.3031e-12
2.8401e-13
-5.1872e-13
-5.1265e-12
1.785e-13
-3.3059e-13
8.9362e-15
-2.6301e-14
-2.7197e-12
4.6725e-16
1.1951e-13
-3.0187e-12
1.2372e-15
3.2622e-13
-3.0832e-12
1.4889e-15
4.4218e-13
-3.0641e-12
1.0972e-15
4.332e-13
-3.1266e-12
1.8549e-16
2.9826e-13
-3.3856e-12
-9.5124e-16
7.1621e-14
-3.858e-12
-1.8856e-15
-1.8559e-13
-4.4518e-12
-2.3809e-15
-4.0086e-13
-4.9908e-12
-2.5307e-15
-5.1012e-13
-5.2625e-12
-2.4661e-15
-4.7603e-13
-5.0754e-12
-2.2404e-15
-2.9728e-13
-1.9466e-15
-1.0559e-14
-2.7199e-12
7.1242e-14
1.1955e-13
-3.0189e-12
1.9423e-13
3.2633e-13
-3.0833e-12
2.6256e-13
4.4233e-13
-3.0642e-12
2.5582e-13
4.3337e-13
-3.1267e-12
1.7381e-13
2.9846e-13
-3.3857e-12
3.7465e-14
7.188e-14
-3.8582e-12
-1.1636e-13
-1.8527e-13
-4.4519e-12
-2.4464e-13
-4.0048e-13
-4.9908e-12
-3.0968e-13
-5.0973e-13
-5.2625e-12
-2.8954e-13
-4.7569e-13
-5.0753e-12
-1.8337e-13
-2.9709e-13
-1.2754e-14
-1.0453e-14
-2.7483e-12
1.299e-13
1.2852e-13
-3.0398e-12
3.5451e-13
3.5083e-13
-3.0909e-12
4.804e-13
4.7563e-13
-3.0572e-12
4.7067e-13
4.6617e-13
-3.1096e-12
3.2466e-13
3.2142e-13
-3.3672e-12
7.9692e-14
7.8108e-14
-3.8477e-12
-1.9819e-13
-1.9843e-13
-4.457e-12
-4.3139e-13
-4.309e-13
-5.0146e-12
-5.5128e-13
-5.5067e-13
-5.3032e-12
-5.1779e-13
-5.1774e-13
-5.1263e-12
-3.29e-13
-3.3007e-13
-2.3538e-14
-2.5765e-14
-2.8057e-12
1.6784e-13
1.5132e-13
-3.0812e-12
4.5856e-13
4.1279e-13
-3.1047e-12
6.2309e-13
5.5893e-13
-3.041e-12
6.146e-13
5.463e-13
-3.0725e-12
4.3207e-13
3.7388e-13
-3.3269e-12
1.2237e-13
8.5172e-14
-3.824e-12
-2.3139e-13
-2.4289e-13
-4.465e-12
-5.3064e-13
-5.1988e-13
-5.0612e-12
-6.878e-13
-6.646e-13
-5.3845e-12
-6.5092e-13
-6.3014e-13
-5.2291e-12
-4.1682e-13
-4.1291e-13
-3.3775e-14
-5.6489e-14
-2.8948e-12
1.6887e-13
2.1616e-13
-3.147e-12
4.6034e-13
5.9057e-13
-3.1285e-12
6.2184e-13
8.0193e-13
-3.0186e-12
6.037e-13
7.8787e-13
-3.0181e-12
4.0454e-13
5.4548e-13
-3.2681e-12
7.4621e-14
1.3669e-13
-3.7914e-12
-2.972e-13
-3.267e-13
-4.4817e-12
-6.0766e-13
-7.118e-13
-5.1368e-12
-7.6385e-13
-9.0394e-13
-5.5129e-12
-7.1492e-13
-8.3626e-13
-5.3895e-12
-4.5815e-13
-5.091e-13
-4.4957e-14
1.0745e-14
-2.9557e-12
-1.9218e-13
1.9831e-13
2.0467e-13
-3.1938e-12
-5.2556e-13
5.4011e-13
5.612e-13
-3.1484e-12
-7.1582e-13
7.2869e-13
7.6796e-13
-3.0083e-12
-7.0895e-13
7.0525e-13
7.6701e-13
-2.9865e-12
-5.0319e-13
4.6812e-13
5.5428e-13
-3.2332e-12
-1.5129e-13
7.7814e-14
1.8436e-13
-3.7731e-12
2.5267e-13
-3.5753e-13
-2.4223e-13
-4.495e-12
5.9741e-13
-7.1419e-13
-6.0416e-13
-5.1886e-12
7.8232e-13
-8.7694e-13
-7.9722e-13
-5.5992e-12
7.4936e-13
-7.9449e-13
-7.5716e-13
-5.4982e-12
4.9231e-13
-4.6332e-13
-4.8203e-13
6.6916e-14
3.2871e-14
-2.847e-14
-2.8646e-12
-1.5195e-13
1.9128e-13
-3.1252e-12
-4.1455e-13
5.2299e-13
-3.1214e-12
-5.6161e-13
7.1201e-13
-3.0275e-12
-5.4957e-13
7.0412e-13
-3.0379e-12
-3.7767e-13
4.9739e-13
-3.2889e-12
-8.948e-14
1.4458e-13
-3.8026e-12
2.3807e-13
-2.6017e-13
-4.4754e-12
5.1458e-13
-6.0544e-13
-5.1101e-12
6.5903e-13
-7.9047e-13
-5.4683e-12
6.2456e-13
-7.5736e-13
-5.335e-12
4.0696e-13
-4.9922e-13
5.2379e-14
-7.4904e-14
-2.8052e-12
-8.2692e-14
1.6676e-13
-3.0809e-12
-2.2521e-13
4.5562e-13
-3.1044e-12
-3.0392e-13
6.1917e-13
-3.0407e-12
-2.9491e-13
6.1061e-13
-3.0722e-12
-1.9802e-13
4.2863e-13
-3.3265e-12
-3.7632e-14
1.1971e-13
-3.8236e-12
1.4356e-13
-2.3343e-13
-4.4647e-12
2.9548e-13
-5.3235e-13
-5.061e-12
3.7345e-13
-6.8947e-13
-5.3844e-12
3.5136e-13
-6.5284e-13
-5.2293e-12
2.2732e-13
-4.192e-13
2.6566e-14
-3.6909e-14
-2.7761e-12
1.7311e-16
1.5789e-13
-3.059e-12
4.4038e-16
4.3103e-13
-3.0958e-12
4.2336e-16
5.8461e-13
-3.0467e-12
7.7541e-17
5.7439e-13
-3.0884e-12
-5.2166e-16
3.994e-13
-3.3442e-12
-1.2095e-15
1.0427e-13
-3.8332e-12
-1.7485e-15
-2.3174e-13
-4.4588e-12
-2.0344e-15
-5.1429e-13
-5.0361e-12
-2.1527e-15
-6.5971e-13
-5.3425e-12
-2.199e-15
-6.186e-13
-5.1768e-12
-2.2064e-15
-3.8888e-13
-2.0609e-15
-1.7809e-14
-2.7762e-12
8.3099e-14
1.5795e-13
-3.0591e-12
2.2625e-13
4.3124e-13
-3.0959e-12
3.0496e-13
5.8493e-13
-3.0469e-12
2.9525e-13
5.7476e-13
-3.0885e-12
1.9705e-13
3.998e-13
-3.3444e-12
3.509e-14
1.0468e-13
-3.8334e-12
-1.4743e-13
-2.3135e-13
-4.4589e-12
-3.0017e-13
-5.1391e-13
-5.0362e-12
-3.7848e-13
-6.5933e-13
-5.3426e-12
-3.5632e-13
-6.1826e-13
-5.1768e-12
-2.3204e-13
-3.8854e-13
-3.023e-14
-1.746e-14
-2.8057e-12
1.5235e-13
1.6692e-13
-3.0813e-12
4.1556e-13
4.5611e-13
-3.1048e-12
5.6257e-13
6.1991e-13
-3.0411e-12
5.4981e-13
6.1155e-13
-3.0726e-12
3.765e-13
4.2975e-13
-3.3269e-12
8.6585e-14
1.2097e-13
-3.824e-12
-2.4253e-13
-2.3206e-13
-4.4651e-12
-5.2016e-13
-5.3093e-13
-5.0612e-12
-6.6504e-13
-6.8806e-13
-5.3846e-12
-6.3013e-13
-6.5156e-13
-5.2292e-12
-4.1192e-13
-4.1821e-13
-5.443e-14
-3.5926e-14
-2.8654e-12
1.9225e-13
1.915e-13
-3.1259e-12
5.2571e-13
5.2365e-13
-3.122e-12
7.1569e-13
7.1289e-13
-3.0281e-12
7.0816e-13
7.0534e-13
-3.0384e-12
5.0126e-13
4.9897e-13
-3.2895e-12
1.4804e-13
1.4652e-13
-3.8032e-12
-2.5711e-13
-2.5789e-13
-4.4759e-12
-6.0276e-13
-6.0306e-13
-5.1105e-12
-7.8798e-13
-7.8812e-13
-5.4686e-12
-7.5446e-13
-7.5486e-13
-5.3346e-12
-4.9669e-13
-4.9802e-13
-6.7935e-14
-7.0401e-14
-2.9568e-12
1.9863e-13
2.0417e-13
-3.1949e-12
5.4111e-13
5.5991e-13
-3.1493e-12
7.3e-13
7.6605e-13
-3.009e-12
7.0685e-13
7.6475e-13
-2.9872e-12
4.7002e-13
5.5139e-13
-3.2339e-12
8.0014e-14
1.8084e-13
-3.7739e-12
-3.5507e-13
-2.4616e-13
-4.4958e-12
-7.1172e-13
-6.0861e-13
-5.1891e-12
-8.7439e-13
-8.0198e-13
-5.5996e-12
-7.914e-13
-7.6161e-13
-5.4973e-12
-4.6189e-13
-4.8615e-13
4.0753e-14
-2.8434e-14
-3.0478e-12
-1.9937e-13
1.5734e-13
1.5906e-13
-3.2645e-12
-5.4313e-13
4.2755e-13
4.3173e-13
-3.1784e-12
-7.3324e-13
5.7328e-13
5.7896e-13
-2.9924e-12
-7.1109e-13
5.478e-13
5.5514e-13
-2.9384e-12
-4.751e-13
3.5049e-13
3.5921e-13
-3.1802e-12
-8.5739e-14
3.2003e-14
4.1854e-14
-3.7452e-12
3.4886e-13
-3.1539e-13
-3.0453e-13
-4.515e-12
7.0502e-13
-5.8629e-13
-5.7478e-13
-5.2659e-12
8.6771e-13
-6.8239e-13
-6.7143e-13
-5.7271e-12
7.8534e-13
-5.7057e-13
-5.5849e-13
-5.6598e-12
4.5521e-13
-2.4718e-13
-2.4303e-13
-4.2017e-14
1.8017e-13
1.9738e-13
-2.9562e-12
-1.6951e-13
2.0344e-13
-3.1943e-12
-4.6213e-13
5.5771e-13
-3.1489e-12
-6.247e-13
7.6299e-13
-3.0086e-12
-6.0716e-13
7.6073e-13
-2.9867e-12
-4.0852e-13
5.4689e-13
-3.2334e-12
-7.9077e-14
1.7612e-13
-3.7732e-12
2.923e-13
-2.5108e-13
-4.4951e-12
6.0215e-13
-6.133e-13
-5.1887e-12
7.5798e-13
-8.0624e-13
-5.5991e-12
7.0924e-13
-7.6627e-13
-5.4985e-12
4.5133e-13
-4.8824e-13
4.3684e-14
-4.0346e-14
-2.8944e-12
-9.2762e-14
2.1546e-13
-3.1467e-12
-2.5246e-13
5.8854e-13
-3.1283e-12
-3.4002e-13
7.9891e-13
-3.0184e-12
-3.2812e-13
7.8451e-13
-3.0178e-12
-2.1657e-13
5.421e-13
-3.2677e-12
-3.3476e-14
1.3347e-13
-3.791e-12
1.7215e-13
-3.2974e-13
-4.4814e-12
3.4325e-13
-7.1483e-13
-5.1366e-12
4.2933e-13
-9.0681e-13
-5.5128e-12
4.0142e-13
-8.3867e-13
-5.3898e-12
2.5766e-13
-5.1208e-13
2.7154e-14
1.0968e-14
-2.8642e-12
3.729e-18
2.2442e-13
-3.1236e-12
5.0337e-18
6.1242e-13
-3.1185e-12
-1.2233e-16
8.2947e-13
-3.0236e-12
-4.0737e-16
8.1044e-13
-3.0334e-12
-8.175e-16
5.5253e-13
-3.2849e-12
-1.2901e-15
1.2116e-13
-3.7998e-12
-1.7276e-15
-3.6582e-13
-4.4745e-12
-2.0657e-15
-7.6872e-13
-5.1106e-12
-2.3149e-15
-9.6615e-13
-5.4697e-12
-2.5463e-15
-8.8865e-13
-5.336e-12
-2.6868e-15
-5.3745e-13
-2.599e-15
1.6073e-14
-2.8644e-12
9.279e-14
2.2449e-13
-3.1237e-12
2.525e-13
6.1271e-13
-3.1186e-12
3.3978e-13
8.2994e-13
-3.0237e-12
3.273e-13
8.11e-13
-3.0335e-12
2.1487e-13
5.5314e-13
-3.285e-12
3.0737e-14
1.2177e-13
-3.8e-12
-1.7584e-13
-3.6527e-13
-4.4747e-12
-3.4772e-13
-7.6821e-13
-5.1107e-12
-4.3435e-13
-9.6563e-13
-5.4698e-12
-4.0669e-13
-8.8828e-13
-5.336e-12
-2.632e-13
-5.3687e-13
-3.1742e-14
1.6415e-14
-2.8948e-12
1.6956e-13
2.1565e-13
-3.1471e-12
4.6216e-13
5.8926e-13
-3.1286e-12
6.2422e-13
8.0023e-13
-3.0187e-12
6.06e-13
7.8623e-13
-3.0182e-12
4.0631e-13
5.4409e-13
-3.2682e-12
7.5665e-14
1.356e-13
-3.7915e-12
-2.9679e-13
-3.2761e-13
-4.4818e-12
-6.0764e-13
-7.1268e-13
-5.137e-12
-7.6391e-13
-9.0482e-13
-5.5131e-12
-7.1457e-13
-8.3732e-13
-5.3897e-12
-4.5721e-13
-5.1047e-13
-4.3367e-14
9.0462e-15
-2.9569e-12
1.9917e-13
2.0387e-13
-3.1949e-12
5.4264e-13
5.5893e-13
-3.1493e-12
7.3213e-13
7.6457e-13
-3.0091e-12
7.091e-13
7.6303e-13
-2.9873e-12
4.7198e-13
5.4968e-13
-3.234e-12
8.1463e-14
1.7922e-13
-3.774e-12
-3.5416e-13
-2.4762e-13
-4.4958e-12
-7.1119e-13
-6.0992e-13
-5.1892e-12
-8.7403e-13
-8.0317e-13
-5.5997e-12
-7.9084e-13
-7.6263e-13
-5.4975e-12
-4.605e-13
-4.8797e-13
4.3214e-14
-3.1531e-14
-3.0488e-12
1.5816e-13
1.5815e-13
-3.2654e-12
4.2995e-13
4.2943e-13
-3.1791e-12
5.7646e-13
5.7538e-13
-2.993e-12
5.5194e-13
5.5015e-13
-2.9391e-12
3.5517e-13
3.5293e-13
-3.1811e-12
3.7056e-14
3.4557e-14
-3.7463e-12
-3.1009e-13
-3.1249e-13
-4.5159e-12
-5.8107e-13
-5.8335e-13
-5.2664e-12
-6.7762e-13
-6.7963e-13
-5.7279e-12
-5.6477e-13
-5.6561e-13
-5.6577e-12
-2.4618e-13
-2.4992e-13
2.0092e-13
1.9263e-13
2.1363e-11
1.1977e-13
3.4524e-13
7.497e-15
2.1074e-11
3.0151e-13
2.0704e-13
6.9043e-15
1.8696e-11
4.0908e-13
6.2746e-14
5.4868e-15
1.5267e-11
4.0924e-13
-3.7747e-14
4.407e-15
1.1927e-11
3.0949e-13
-8.6644e-14
3.1242e-15
9.6439e-12
1.4242e-13
-9.7657e-14
1.2827e-15
8.9257e-12
-5.2714e-14
-9.2395e-14
-8.1887e-16
9.6386e-12
-2.2366e-13
-7.7449e-14
-2.7656e-15
1.1015e-11
-3.2404e-13
-3.7011e-14
-4.0995e-15
1.1986e-11
-3.2707e-13
1.9025e-14
-4.3544e-15
1.165e-11
-2.377e-13
5.3889e-14
-3.251e-15
-8.5683e-14
3.0131e-14
-1.1876e-15
2.4532e-11
1.4362e-13
1.475e-13
2.4419e-11
4.4425e-13
-1.7441e-13
2.1931e-11
6.1997e-13
-3.9171e-13
1.8212e-11
6.3163e-13
-4.4947e-13
1.4526e-11
4.9066e-13
-3.5547e-13
1.1942e-11
2.4067e-13
-1.5907e-13
1.1023e-11
-5.3562e-14
7.1038e-14
1.163e-11
-3.1565e-13
2.7144e-13
1.2943e-11
-4.7561e-13
4.0843e-13
1.3806e-11
-4.9093e-13
4.4719e-13
1.3239e-11
-3.6272e-13
3.5654e-13
-1.3248e-13
1.3732e-13
2.6602e-11
1.0102e-13
4.0742e-14
2.6616e-11
3.0641e-13
-4.2103e-13
2.4074e-11
4.2258e-13
-7.0606e-13