/*--------------------------------*- C++ -*----------------------------------*\
  =========                 |
  \\      /  F ield         | OpenFOAM: The Open Source CFD Toolbox
   \\    /   O peration     | Website:  https://openfoam.org
    \\  /    A nd           | Version:  8
     \\/     M anipulation  |
\*---------------------------------------------------------------------------*/
FoamFile
{
    version     2.0;
    format      ascii;
    class       volVectorField;
    location    "0.0120000";
    object      cellDisplacement;
}
// * * * * * * * * * * * * * * * * * * * * * * * * * * * * * * * * * * * * * //

dimensions      [0 1 0 0 0 0 0];

internalField   nonuniform List<vector> 
600
(
(7.72946305889393e-29 -3.54272793860524e-07 -2.0030835168987e-14)
(7.66645110663016e-29 -3.56311636040417e-07 -1.8801021080719e-14)
(7.52380851971796e-29 -3.60176508461738e-07 -2.30170389047904e-15)
(7.40333598423972e-29 -3.64833254354995e-07 -2.34818052051497e-14)
(7.2679013400126e-29 -3.69991670733247e-07 3.12549143438462e-14)
(7.15492884690224e-29 -3.75737875737493e-07 8.45627583275954e-14)
(7.02777493158693e-29 -3.82024291682594e-07 4.91472795306942e-14)
(6.920289598472e-29 -3.88681590301817e-07 1.74290011228937e-14)
(6.79763761382388e-29 -3.95765436673517e-07 3.76130301745739e-14)
(6.69465665884954e-29 -4.03288634970741e-07 3.2424810028768e-14)
(6.57634107372742e-29 -4.11148014020819e-07 -5.87471834286872e-15)
(6.47604742924976e-29 -4.19314495952503e-07 -6.36899182492387e-16)
(6.36050224918171e-29 -4.27850697198072e-07 2.99689561841421e-14)
(6.26284351083524e-29 -4.3672298596892e-07 -2.19924427307746e-14)
(6.14971989205691e-29 -4.45854711506137e-07 -4.96662515070268e-14)
(6.05369876170557e-29 -4.55316254469803e-07 7.23217597579929e-15)
(5.94251065190964e-29 -4.65118242509691e-07 4.44747184424044e-15)
(5.8480009127899e-29 -4.75186990694381e-07 -4.4456475522369e-14)
(5.73844511683106e-29 -4.85553621801227e-07 -4.11752293406145e-14)
(5.64523663438037e-29 -4.96268049107582e-07 2.77189916385758e-14)
(5.5370119813056e-29 -5.07291331696331e-07 1.72075197845403e-14)
(5.44467339443901e-29 -5.18595613751827e-07 5.37368016973923e-15)
(5.33803756943823e-29 -5.30273659338494e-07 -1.85348901534972e-15)
(5.2470354203995e-29 -5.42318985359305e-07 -1.23133245556509e-14)
(5.14102438928538e-29 -5.54652175910434e-07 4.24456182277237e-14)
(5.0508174890732e-29 -5.67386055462161e-07 8.26062196715074e-14)
(4.94685578393849e-29 -5.80563462108515e-07 4.31470629699255e-14)
(4.85757068632596e-29 -5.94097354315858e-07 -9.6846405602261e-16)
(4.75424215974735e-29 -6.08028920321911e-07 -6.50299713428938e-15)
(4.66621357516742e-29 -6.22454528361618e-07 -3.65442856311958e-15)
(4.56465058973565e-29 -6.37342697984234e-07 2.61565532896286e-15)
(4.47730877243641e-29 -6.52646072262268e-07 -7.1718143020082e-16)
(4.37665450255164e-29 -6.68533864058335e-07 -2.50221335722768e-14)
(4.29065503023296e-29 -6.85016884525236e-07 -2.46871356611656e-14)
(4.19156577675684e-29 -7.01963341829273e-07 -2.80647155951795e-14)
(4.10650448531515e-29 -7.1955135647384e-07 -3.25683999177496e-14)
(4.0088175310946e-29 -7.37879254508346e-07 1.8568618537696e-15)
(3.92489688282418e-29 -7.56829827589379e-07 -4.34365522683098e-14)
(3.82867183657998e-29 -7.76453421718848e-07 -2.56918724952208e-14)
(3.74612863069038e-29 -7.9694628502181e-07 4.99143649823803e-14)
(3.65145745167144e-29 -8.18281746740158e-07 4.12639348709144e-14)
(3.56983291364002e-29 -8.40352834984641e-07 -3.90318305002813e-14)
(3.47696683876535e-29 -8.63487242127639e-07 -7.75595173103481e-14)
(3.39713326422404e-29 -8.87747244696134e-07 8.0293286872712e-15)
(3.30542600835421e-29 -9.12897528612904e-07 8.16258284059117e-15)
(3.22659450171508e-29 -9.39221617865493e-07 -2.03237238338662e-14)
(3.13729114802101e-29 -9.66940667529011e-07 -2.12819419467039e-14)
(3.05997538048619e-29 -9.9589578688209e-07 7.23605155825715e-15)
(2.97174174126679e-29 -1.02615102189527e-06 1.89215796956941e-14)
(2.89600021061421e-29 -1.05811809744242e-06 2.03397456950427e-14)
(2.81018892480275e-29 -1.091759277772e-06 3.15370998802955e-14)
(2.73534530747275e-29 -1.12680702072652e-06 -1.45497683952125e-14)
(2.65090634678024e-29 -1.16395772387896e-06 -5.07304523472013e-14)
(2.57819105184086e-29 -1.20337828721418e-06 -3.54652075473054e-14)
(2.4953256581917e-29 -1.24457177008211e-06 5.47015312892395e-14)
(2.42312599361546e-29 -1.28808722636083e-06 8.26069430162575e-14)
(2.34197120890497e-29 -1.33436356033909e-06 8.35652568407196e-14)
(2.27125063383805e-29 -1.38306107868351e-06 2.90508129257332e-14)
(2.19110812719349e-29 -1.43421089780438e-06 -2.92424189548085e-14)
(2.12122480305476e-29 -1.48875426477572e-06 -1.36952836135882e-14)
(2.04246334716604e-29 -1.5466461955644e-06 -4.29543762144166e-14)
(1.9729280920697e-29 -1.6071787048773e-06 -3.35917871587915e-14)
(1.8802339356883e-29 -1.67153551967856e-06 -4.82458075799762e-14)
(1.8090299914364e-29 -1.73999220895192e-06 -6.18950123109395e-14)
(1.73496168476121e-29 -1.81163675572927e-06 1.8767717639025e-14)
(1.66336284348055e-29 -1.88733964795823e-06 3.2354720289655e-14)
(1.59003784468964e-29 -1.96759314691485e-06 -4.97620315708611e-16)
(1.51855403706235e-29 -2.05163534597321e-06 -1.19296490728759e-14)
(1.44415444533718e-29 -2.13954339678203e-06 8.41435856373737e-15)
(1.3719450683819e-29 -2.23223895707328e-06 4.73123462273473e-14)
(1.29714983029024e-29 -2.3292430811789e-06 9.30244891235118e-15)
(1.22350161416418e-29 -2.42960243765204e-06 -9.32802201558816e-14)
(1.14743540925392e-29 -2.53409788816902e-06 -7.67120836448014e-14)
(1.07327627296988e-29 -2.6422121960883e-06 2.44755690002344e-14)
(9.96139688586904e-30 -2.75249471010927e-06 -2.51061830662803e-14)
(9.20585258120531e-30 -2.86479842541565e-06 -2.16397714585723e-14)
(8.42327460436476e-30 -2.97795531409848e-06 1.22844825451807e-16)
(7.6601626757797e-30 -3.09021564946952e-06 -1.54251493444855e-14)
(6.87502663754939e-30 -3.20008415812554e-06 6.67802447481875e-14)
(6.10828136673129e-30 -3.30327461015342e-06 5.25977953466907e-14)
(5.32221896999609e-30 -3.39560406570012e-06 -2.14038394004059e-14)
(4.57614075493233e-30 -3.47533943372667e-06 -9.46606726186908e-15)
(3.8096730488001e-30 -3.52718790760478e-06 2.26889506903369e-14)
(3.07677023808239e-30 -3.53680452578408e-06 -2.43592754397272e-14)
(2.37312228340807e-30 -3.5020617326277e-06 -3.98175472195582e-14)
(1.72864932920146e-30 -3.40113441888872e-06 -3.74916609624217e-15)
(1.28036886231335e-30 -3.23725515525781e-06 6.45421075846162e-14)
(1.16509380392125e-30 -3.04184772666863e-06 9.17305952233614e-14)
(1.04621201981089e-30 -2.82624343029006e-06 2.73863476028782e-14)
(9.31977918065316e-31 -2.59950893089886e-06 -2.33981534946174e-14)
(8.23698883107144e-31 -2.37229961139871e-06 -1.47233430374631e-14)
(7.27999771958029e-31 -2.14969268764558e-06 3.61522231711746e-14)
(6.40440893170038e-31 -1.94000611986567e-06 4.22073497048798e-14)
(5.68641201378791e-31 -1.74839594308369e-06 1.45846592660328e-14)
(5.04374948370736e-31 -1.57256165744229e-06 6.29973255566971e-15)
(4.51645588553078e-31 -1.41765418401674e-06 -3.34409763096944e-14)
(4.08833011825019e-31 -1.28713293165795e-06 -4.21473268262542e-16)
(3.74773444873338e-31 -1.17636197528297e-06 4.21729666313436e-14)
(3.46420267267156e-31 -1.08420656047591e-06 2.29910333000931e-14)
(3.2317901186265e-31 -1.01067833035253e-06 2.94765084397838e-15)
(2.14889112097221e-28 -8.35691929049025e-07 -5.84813060736164e-14)
(2.13133428475912e-28 -8.36915798482727e-07 -5.50455963467281e-14)
(2.09069849598187e-28 -8.3966995640842e-07 -6.62097185738276e-15)
(2.05436693630543e-28 -8.43061304932904e-07 -6.89658582598129e-14)
(2.01525592309006e-28 -8.46857563862802e-07 9.06337465297211e-14)
(1.98055588637805e-28 -8.51128204138177e-07 2.47249131177353e-13)
(1.94322267287224e-28 -8.55835014099341e-07 1.44154464310844e-13)
(1.90978442967734e-28 -8.60841986917846e-07 5.09729918568088e-14)
(1.87353209697071e-28 -8.66194173344172e-07 1.10002103978112e-13)
(1.8411787127411e-28 -8.71901975010456e-07 9.52372711585068e-14)
(1.80598455249656e-28 -8.7788241592939e-07 -1.70548677093024e-14)
(1.77438426408729e-28 -8.84112297504268e-07 -2.13126407928617e-15)
(1.73995611389415e-28 -8.90642240099902e-07 8.80511496885147e-14)
(1.70910025480811e-28 -8.97445218003583e-07 -6.39817096010419e-14)
(1.67538185789404e-28 -9.04459574550325e-07 -1.45887740502317e-13)
(1.64509135696642e-28 -9.11742283526046e-07 2.09500103420744e-14)
(1.61198878399455e-28 -9.19302024702975e-07 1.34235380714215e-14)
(1.58223977389802e-28 -9.27079424320863e-07 -1.30220643039131e-13)
(1.54970659261094e-28 -9.35099808399596e-07 -1.21364765258962e-13)
(1.52046521804417e-28 -9.43403639969345e-07 8.11176029750549e-14)
(1.4884405060659e-28 -9.51959554161261e-07 5.06677574509385e-14)
(1.45962744239322e-28 -9.60745174599183e-07 1.58941034728287e-14)
(1.42816901154475e-28 -9.69835715646943e-07 -5.33696536877994e-15)
(1.39987318460367e-28 -9.79226051076818e-07 -3.65228671374647e-14)
(1.36879899489525e-28 -9.88851990434725e-07 1.24255805550852e-13)
(1.34092418680534e-28 -9.98805119861924e-07 2.4302509451262e-13)
(1.31050566635651e-28 -1.00912027908934e-06 1.27424800441491e-13)
(1.2830766416558e-28 -1.01972702165142e-06 -2.60015810829811e-15)
(1.25304933047625e-28 -1.03065894294223e-06 -1.91348886178994e-14)
(1.22613189896905e-28 -1.04199436939657e-06 -1.081564163326e-14)
(1.19671501114799e-28 -1.05370791424074e-06 7.69570699442201e-15)
(1.17020597499121e-28 -1.06576121862967e-06 -1.94118724066565e-15)
(1.14123646729113e-28 -1.0782919008078e-06 -7.36331270869262e-14)
(1.11526031812975e-28 -1.09130896080194e-06 -7.27618987070763e-14)
(1.08687062324238e-28 -1.10470532400704e-06 -8.27199118509961e-14)
(1.06135567611714e-28 -1.11862603389301e-06 -9.62659248435519e-14)
(1.03351219362406e-28 -1.13315125124359e-06 5.5923806038392e-15)
(1.00849892831336e-28 -1.14818573881672e-06 -1.28104768756731e-13)
(9.81222277373216e-29 -1.16377061663378e-06 -7.63930290447201e-14)
(9.56758896365682e-29 -1.18006585423249e-06 1.47115991618898e-13)
(9.30063273303834e-29 -1.19705002635426e-06 1.22418942653497e-13)
(9.06066680997033e-29 -1.21463585271141e-06 -1.14749610929638e-13)
(8.80008544084972e-29 -1.23309060545452e-06 -2.29588497634752e-13)
(8.56645232723012e-29 -1.25246549680196e-06 2.33429590035606e-14)
(8.3110312871612e-29 -1.27256848006276e-06 2.43031858195467e-14)
(8.08228849505489e-29 -1.29363106587317e-06 -5.9996600004838e-14)
(7.83442364031486e-29 -1.31583403382834e-06 -6.31407086093482e-14)
(7.61157371880201e-29 -1.33904781687353e-06 2.12276645070352e-14)
(7.36877693961951e-29 -1.36332455342968e-06 5.59745176257804e-14)
(7.1519485750352e-29 -1.38900084289953e-06 6.0187202962913e-14)
(6.91681070616611e-29 -1.41604660267262e-06 9.36445773909509e-14)
(6.70480028789128e-29 -1.44424235726276e-06 -4.27277168821035e-14)
(6.47534806229704e-29 -1.47415753814081e-06 -1.50330890830325e-13)
(6.27043967543405e-29 -1.50592978241302e-06 -1.05718743548e-13)
(6.04715500041638e-29 -1.53915180949015e-06 1.61737566044239e-13)
(5.84638853074498e-29 -1.57427303911708e-06 2.45019345581102e-13)
(5.62943834964387e-29 -1.61165342479679e-06 2.48335119696505e-13)
(5.43461668169982e-29 -1.65101532791532e-06 8.67975065449167e-14)
(5.22282754127926e-29 -1.69238315576777e-06 -8.66742332255973e-14)
(5.03275213597572e-29 -1.73652794289019e-06 -4.06183145815761e-14)
(4.82669390344439e-29 -1.78341520962111e-06 -1.27576727823624e-13)
(4.64051200129208e-29 -1.83246318082654e-06 -9.98379384750177e-14)
(4.41002583452709e-29 -1.88464169981311e-06 -1.43343866444066e-13)
(4.22357046682396e-29 -1.94017982477641e-06 -1.8443193103526e-13)
(4.03317539141771e-29 -1.99832874387567e-06 5.54267083657668e-14)
(3.84916082509086e-29 -2.05980226828462e-06 9.63910004772038e-14)
(3.66322043473098e-29 -2.12500649099063e-06 -1.28624725973523e-15)
(3.48258476917154e-29 -2.1933182071633e-06 -3.55685974617991e-14)
(3.29783824051122e-29 -2.26480060476574e-06 2.48051143304682e-14)
(3.11885264304305e-29 -2.34020998785561e-06 1.40978556075652e-13)
(2.93635681209264e-29 -2.4191586373588e-06 2.83343443855852e-14)
(2.75786489987616e-29 -2.50086646039395e-06 -2.77741774804358e-13)
(2.57592071638168e-29 -2.58597301255493e-06 -2.29269840501996e-13)
(2.39937087754673e-29 -2.67406174772144e-06 7.27944726318547e-14)
(2.21848866817398e-29 -2.76394676211506e-06 -7.47199606244975e-14)
(2.04229590783183e-29 -2.85550898525524e-06 -6.46854281240369e-14)
(1.86226445294869e-29 -2.94779833527159e-06 3.41158377434547e-16)
(1.68757038001549e-29 -3.03938563071478e-06 -4.6316794245788e-14)
(1.50989059658049e-29 -3.12904420675138e-06 1.99152000457279e-13)
(1.33774388737595e-29 -3.21328476580539e-06 1.57422830209556e-13)
(1.16319748391728e-29 -3.28869044833364e-06 -6.36993867570582e-14)
(9.96823863123067e-30 -3.35377508169741e-06 -2.84370472559986e-14)
(8.30172848673714e-30 -3.39612130165105e-06 6.77784778932546e-14)
(6.71024627412479e-30 -3.40405430770424e-06 -7.24947515789552e-14)
(5.17434888792323e-30 -3.37567635336002e-06 -1.18810197833291e-13)
(3.82084852767799e-30 -3.2933348433443e-06 -1.14428540921457e-14)
(2.86089292217965e-30 -3.15989598298751e-06 1.92548362351251e-13)
(2.62854163478928e-30 -3.00043410501168e-06 2.74236078048506e-13)
(2.37863525125208e-30 -2.82433464891462e-06 8.21036640579943e-14)
(2.14047524151926e-30 -2.639086960739e-06 -6.99474027677938e-14)
(1.91189625229111e-30 -2.45339666947097e-06 -4.41690737989712e-14)
(1.70483496273312e-30 -2.27133908533298e-06 1.08222903918389e-13)
(1.52118707462746e-30 -2.09988011314779e-06 1.2651105388041e-13)
(1.36483298428728e-30 -1.94320488635672e-06 4.37430774112949e-14)
(1.22506542406413e-30 -1.79929852793578e-06 1.89211437992424e-14)
(1.11301378297987e-30 -1.67254249910266e-06 -1.00279600886598e-13)
(1.01996916223166e-30 -1.56585217859002e-06 -1.31206012623411e-15)
(9.45262644798023e-31 -1.47523804910232e-06 1.26440393213765e-13)
(8.84463885028741e-31 -1.39988224110724e-06 6.89466818332279e-14)
(8.34652643901039e-31 -1.33842633786889e-06 8.83382876080708e-15)
(3.28156356563772e-28 -1.30109642223674e-06 -9.56810712463499e-14)
(3.25517827087596e-28 -1.30171218294659e-06 -9.05321771717864e-14)
(3.19266453837648e-28 -1.30355523637066e-06 -1.04981293187437e-14)
(3.13538780322953e-28 -1.30588829041245e-06 -1.14020131856296e-13)
(3.0747570888358e-28 -1.30853252287881e-06 1.46069111085473e-13)
(3.01956195809829e-28 -1.31154033309557e-06 4.04909966422218e-13)
(2.96119156048839e-28 -1.31488285400656e-06 2.3743899517688e-13)
(2.907667678481e-28 -1.3184564911978e-06 8.34529404846932e-14)
(2.85076978399772e-28 -1.32229535421886e-06 1.80028575630515e-13)
(2.7987254566219e-28 -1.32640757543528e-06 1.57099199961683e-13)
(2.74329345796206e-28 -1.33072998663555e-06 -2.74963926107396e-14)
(2.69236378687466e-28 -1.33524480786182e-06 -4.33294039065263e-15)
(2.63805940975235e-28 -1.33999071304117e-06 1.4516691661852e-13)
(2.58823724238036e-28 -1.34494727293946e-06 -1.03474056915251e-13)
(2.53501704484382e-28 -1.35006746665079e-06 -2.40223896712779e-13)
(2.48610991355994e-28 -1.35539477120739e-06 3.35882488667946e-14)
(2.43385684746408e-28 -1.36093603958236e-06 2.3195224937548e-14)
(2.38583905508516e-28 -1.36664602653785e-06 -2.13070432001465e-13)
(2.33452227046073e-28 -1.37254407291342e-06 -2.00824170386412e-13)
(2.28736349549593e-28 -1.37866128109395e-06 1.32420209172619e-13)
(2.23690221239574e-28 -1.3849738539571e-06 8.36129537076681e-14)
(2.19051595735346e-28 -1.39146473236255e-06 2.64321102856822e-14)
(2.14099625107527e-28 -1.39819154910567e-06 -8.43545059489406e-15)
(2.09548687135277e-28 -1.40515065181263e-06 -6.10134713721316e-14)
(2.04669479292378e-28 -1.41229301499389e-06 2.02618510522002e-13)
(2.00196093256535e-28 -1.41968878941621e-06 3.99748058562918e-13)
(1.9542185668993e-28 -1.42736499559871e-06 2.10949406765322e-13)
(1.91029127605426e-28 -1.43526786160152e-06 -3.556202234823e-15)
(1.86329433305636e-28 -1.44342314643676e-06 -3.14520360596866e-14)
(1.82025346770935e-28 -1.45189113384045e-06 -1.79538682771712e-14)
(1.77426768486133e-28 -1.46065266904198e-06 1.26403433371081e-14)
(1.73200245922076e-28 -1.46967844451811e-06 -2.69694525720042e-15)
(1.68683475826391e-28 -1.47907417560149e-06 -1.20904091798184e-13)
(1.64548978372755e-28 -1.48884723204704e-06 -1.197530496533e-13)
(1.60130996798521e-28 -1.49891560815857e-06 -1.36108740361865e-13)
(1.56081058807754e-28 -1.50939069743174e-06 -1.59127401213955e-13)
(1.51757219808974e-28 -1.52033458728449e-06 9.55535067659114e-15)
(1.47796902454593e-28 -1.53167447832368e-06 -2.10833710423493e-13)
(1.43571460438804e-28 -1.54344202632728e-06 -1.27405761477267e-13)
(1.39706862377023e-28 -1.55576055395255e-06 2.41732424397579e-13)
(1.35580651329909e-28 -1.56861416690046e-06 2.03267027394734e-13)
(1.31802839358296e-28 -1.58193593921304e-06 -1.87654992122668e-13)
(1.27784142508964e-28 -1.59593165781654e-06 -3.79611538451982e-13)
(1.24112583337084e-28 -1.61064157963308e-06 3.74820221120715e-14)
(1.20187157249491e-28 -1.62591827013642e-06 4.053333203869e-14)
(1.16606088093792e-28 -1.64193998671729e-06 -9.86837000007233e-14)
(1.12802652239898e-28 -1.65884677818285e-06 -1.04650176139798e-13)
(1.09324074585648e-28 -1.67653956215206e-06 3.45575388425345e-14)
(1.05614140055359e-28 -1.69505865598482e-06 9.22999022114027e-14)
(1.02240007210617e-28 -1.71466405535967e-06 9.92593322073953e-14)
(9.86544264173404e-29 -1.73533372028808e-06 1.5523506429908e-13)
(9.537185940566e-29 -1.75689871985827e-06 -6.96257717481293e-14)
(9.18879428770248e-29 -1.77979841319881e-06 -2.48306093394361e-13)
(8.87230914858347e-29 -1.80414066325444e-06 -1.76113811022931e-13)
(8.53479826745797e-29 -1.82961193856657e-06 2.66159575664605e-13)
(8.22681294873182e-29 -1.85655903320662e-06 4.0497398969724e-13)
(7.90028522812582e-29 -1.88526135789511e-06 4.11498008861204e-13)
(7.60286706339702e-29 -1.91550590520041e-06 1.44881301103804e-13)
(7.2861726150109e-29 -1.94731158313914e-06 -1.43042629097289e-13)
(6.99802041137014e-29 -1.98127491147104e-06 -6.70625553288422e-14)
(6.69168807361927e-29 -2.01737167358569e-06 -2.11053313211423e-13)
(6.41187550539912e-29 -2.05515274139348e-06 -1.65274216944792e-13)
(6.07871835101418e-29 -2.09536785213135e-06 -2.37152848296963e-13)
(5.80193879597501e-29 -2.13819695334238e-06 -3.06271445254432e-13)
(5.52223380273899e-29 -2.18306209101789e-06 9.09558300976032e-14)
(5.25222418997726e-29 -2.23051531179409e-06 1.59962093750318e-13)
(4.98151126049881e-29 -2.28087329775385e-06 -1.72376107490439e-15)
(4.71929532396459e-29 -2.33365560955632e-06 -5.90653138962725e-14)
(4.45393413951755e-29 -2.38891111107862e-06 4.05965851944927e-14)
(4.19753900008524e-29 -2.44722679061372e-06 2.33850947738702e-13)
(3.93861645998742e-29 -2.50830523439314e-06 4.8234442872962e-14)
(3.68671297654098e-29 -2.57154272092059e-06 -4.60158646362899e-13)
(3.43235719089374e-29 -2.63743508268535e-06 -3.81486531864848e-13)
(3.18649660398551e-29 -2.70566227973004e-06 1.20434503774317e-13)
(2.93721874695801e-29 -2.77530605070635e-06 -1.2369546338746e-13)
(2.69564779675344e-29 -2.84627418774125e-06 -1.0760173394358e-13)
(2.4511575238325e-29 -2.91783166077175e-06 5.23232403486568e-16)
(2.21511791401226e-29 -2.98887055895652e-06 -7.74123933945152e-14)
(1.97711985361279e-29 -3.05844048691506e-06 3.30338101801811e-13)
(1.74776127054739e-29 -3.12383577683268e-06 2.62106453319671e-13)
(1.5172192773158e-29 -3.18240184670893e-06 -1.05420131083283e-13)
(1.29845315644525e-29 -3.23298736672523e-06 -4.75011020303318e-14)
(1.08050075105186e-29 -3.26595917502495e-06 1.12622012102039e-13)
(8.7405688420167e-30 -3.27223924135888e-06 -1.20008104606917e-13)
(6.75718626800612e-30 -3.25034107912486e-06 -1.97189543968071e-13)
(4.99800062460452e-30 -3.18654143359088e-06 -1.95045247938169e-14)
(3.76476973480266e-30 -3.08300810852167e-06 3.19468918143757e-13)
(3.47862983206731e-30 -2.95917780454216e-06 4.55873063487344e-13)
(3.17130299916035e-30 -2.82240067884179e-06 1.3684230003472e-13)
(2.87549347199325e-30 -2.67849476440655e-06 -1.16257384389096e-13)
(2.58981462489641e-30 -2.53422473021292e-06 -7.36390534042347e-14)
(2.33182257002812e-30 -2.3927605076502e-06 1.80062162011921e-13)
(2.09947479928734e-30 -2.25951616257526e-06 2.10742910401603e-13)
(1.90208785220425e-30 -2.13774949571723e-06 7.29079897218131e-14)
(1.72601654297348e-30 -2.02590112390366e-06 3.15907624702946e-14)
(1.5830425827594e-30 -1.92737487647357e-06 -1.67104818814523e-13)
(1.46420701685921e-30 -1.84443780727023e-06 -2.24277363245742e-15)
(1.36911092428285e-30 -1.77399614939705e-06 2.10663517059491e-13)
(1.29119135967887e-30 -1.71542254080785e-06 1.14891406252094e-13)
(1.23153716181018e-30 -1.66771664537573e-06 1.47857921706639e-14)
(3.70724910543796e-28 -1.75148791433819e-06 -1.31719882273217e-13)
(3.67707052334672e-28 -1.75169323335559e-06 -1.25608095975473e-13)
(3.60676840853304e-28 -1.7528064761901e-06 -1.37450483616095e-14)
(3.54092607865598e-28 -1.75426708307005e-06 -1.59331810216588e-13)
(3.4724322317658e-28 -1.75594727598926e-06 1.96396567969945e-13)
(3.40859381297817e-28 -1.75788324129907e-06 5.57862749624994e-13)
(3.34224786795853e-28 -1.76005518485651e-06 3.29933213139793e-13)
(3.28006662557172e-28 -1.76239044440137e-06 1.14926153875004e-13)
(3.21521194785219e-28 -1.76491263055486e-06 2.47706469622126e-13)
(3.15453170518712e-28 -1.76762774255123e-06 2.18682626411791e-13)
(3.09116303856554e-28 -1.77049160354694e-06 -3.69496177893132e-14)
(3.03167885347709e-28 -1.77349154176347e-06 -7.70776207469384e-15)
(2.96951920776122e-28 -1.77665473889176e-06 2.01820261141645e-13)
(2.91122931872935e-28 -1.7799671220188e-06 -1.39732315698209e-13)
(2.85024246728962e-28 -1.78339562615353e-06 -3.33306243561127e-13)
(2.79299127179075e-28 -1.78697068962466e-06 4.47271298361757e-14)
(2.73308762034746e-28 -1.79069740179226e-06 3.43904470028149e-14)
(2.67685579057098e-28 -1.79454404290493e-06 -2.92750908650771e-13)
(2.6180117180746e-28 -1.79852409288956e-06 -2.80505797152518e-13)
(2.56278243569979e-28 -1.80265958428779e-06 1.81277759523531e-13)
(2.50493791444058e-28 -1.80693398025948e-06 1.16290066838003e-13)
(2.45064077958674e-28 -1.81133521423016e-06 3.71722118821507e-14)
(2.39387253235984e-28 -1.81590386544869e-06 -1.09625682795354e-14)
(2.34060377355962e-28 -1.82063768574385e-06 -8.63252635351569e-14)
(2.2847397549115e-28 -1.82550215370796e-06 2.76776470528175e-13)
(2.23241993195638e-28 -1.83054656729184e-06 5.53058099760515e-13)
(2.17773628186844e-28 -1.83579032965624e-06 2.94552682081656e-13)
(2.12639725961499e-28 -1.84119571097675e-06 -3.4576787737652e-15)
(2.07264543825053e-28 -1.84678072911216e-06 -4.34483890207048e-14)
(2.02236345711121e-28 -1.85258807220994e-06 -2.51582565288792e-14)
(1.96977473339271e-28 -1.85860455693509e-06 1.74372069053744e-14)
(1.92046136058197e-28 -1.86480945431893e-06 -2.73130691645674e-15)
(1.86887919209164e-28 -1.87127735498518e-06 -1.66717848123129e-13)
(1.82066544044925e-28 -1.87801397945997e-06 -1.65671107419027e-13)
(1.77024087479034e-28 -1.88496148758571e-06 -1.88206806889669e-13)
(1.72306979744224e-28 -1.89219834551066e-06 -2.21488238747423e-13)
(1.67377296421834e-28 -1.89976891931088e-06 1.39250055792943e-14)
(1.62769546530928e-28 -1.90762209749884e-06 -2.91542322746998e-13)
(1.57956699271675e-28 -1.91578007580068e-06 -1.79500960921377e-13)
(1.53464398756577e-28 -1.92433024895644e-06 3.33423535142439e-13)
(1.48770185324273e-28 -1.93326196958862e-06 2.84538027431476e-13)
(1.44386235292127e-28 -1.94252786635476e-06 -2.57006899135192e-13)
(1.39818220849523e-28 -1.95227342200529e-06 -5.28140472313204e-13)
(1.35560396955112e-28 -1.96252800215175e-06 4.99649440648888e-14)
(1.31107552279042e-28 -1.97318748333828e-06 5.70589095866435e-14)
(1.26962837645841e-28 -1.9843777242574e-06 -1.36238684155236e-13)
(1.22650297629811e-28 -1.99619861677254e-06 -1.4601969533509e-13)
(1.18630064639229e-28 -2.00858062477079e-06 4.70027445659055e-14)
(1.14434448902058e-28 -2.02155209933666e-06 1.27843977398612e-13)
(1.10541047297371e-28 -2.03529757735677e-06 1.37488829582891e-13)
(1.06489511192398e-28 -2.04980258308763e-06 2.16562237570124e-13)
(1.02712735281015e-28 -2.0649473125348e-06 -9.48107306609241e-14)
(9.87866978767169e-29 -2.08104298614903e-06 -3.44598147275164e-13)
(9.51499431471414e-29 -2.09816775192253e-06 -2.47257436393794e-13)
(9.13563752496893e-29 -2.11609972023428e-06 3.6743861912819e-13)
(8.78320749228952e-29 -2.13508432763872e-06 5.62383487226041e-13)
(8.41725398775985e-29 -2.15532115100249e-06 5.7337911295525e-13)
(8.07794196181389e-29 -2.17666024215757e-06 2.03845206683162e-13)
(7.7244715692532e-29 -2.19911456311105e-06 -1.98198307468796e-13)
(7.39721528067371e-29 -2.22310804996473e-06 -9.29548272584269e-14)
(7.05677766409978e-29 -2.24862583593589e-06 -2.93337210982624e-13)
(6.74085421274929e-29 -2.2753490262396e-06 -2.29886210210314e-13)
(6.38206771515736e-29 -2.3038096537483e-06 -3.29577015121508e-13)
(6.07305507616124e-29 -2.33413820436312e-06 -4.27717412091968e-13)
(5.76373457655876e-29 -2.36592478060963e-06 1.25033080304481e-13)
(5.46477691209729e-29 -2.39956112397673e-06 2.23152287349617e-13)
(5.16743936387193e-29 -2.43527451961159e-06 -1.66455615364787e-15)
(4.87947960900088e-29 -2.47272491465982e-06 -8.24549010587691e-14)
(4.59103103053831e-29 -2.51194658941404e-06 5.56031713728803e-14)
(4.31234934892245e-29 -2.55335811504548e-06 3.25946712219686e-13)
(4.03371557943944e-29 -2.59675043911385e-06 6.94116851104021e-14)
(3.76318575322091e-29 -2.64169418566779e-06 -6.4033486474836e-13)
(3.49276059076207e-29 -2.68854231097474e-06 -5.33696249467026e-13)
(3.23170831055007e-29 -2.73706946592395e-06 1.6729222646712e-13)
(2.96994815473991e-29 -2.78662258345558e-06 -1.71943256983283e-13)
(2.71686667127499e-29 -2.83713602270583e-06 -1.50454575871864e-13)
(2.46347954252345e-29 -2.88808781362682e-06 6.60446617966953e-16)
(2.21942468484624e-29 -2.93868923710555e-06 -1.08857672863623e-13)
(1.97590297849883e-29 -2.9882644046665e-06 4.60288259257439e-13)
(1.74187448237305e-29 -3.03488690006167e-06 3.66878949494203e-13)
(1.50906872020509e-29 -3.07666236852822e-06 -1.46506376015971e-13)
(1.28855687887991e-29 -3.11277320601499e-06 -6.67636558925305e-14)
(1.07091957853745e-29 -3.13635757288683e-06 1.57359248965927e-13)
(8.65506160576127e-30 -3.14093108193329e-06 -1.66970392564343e-13)
(6.69541028247891e-30 -3.12542506251409e-06 -2.75391268710696e-13)
(4.96055875720605e-30 -3.080037384742e-06 -2.8028680578734e-14)
(3.79400701341764e-30 -3.00625258134568e-06 4.45803118140365e-13)
(3.52397614506278e-30 -2.91794970652294e-06 6.37138319189756e-13)
(3.2345592010006e-30 -2.82039671719379e-06 1.91700005164125e-13)
(2.95356618629871e-30 -2.71774270436975e-06 -1.62377851762211e-13)
(2.68157932635162e-30 -2.61481417041874e-06 -1.03153050926495e-13)
(2.43498402776502e-30 -2.51387446313711e-06 2.51659925085142e-13)
(2.2117120999731e-30 -2.41878840252367e-06 2.94836609567699e-13)
(2.02110797527536e-30 -2.33188475371439e-06 1.02060202593736e-13)
(1.85138057118522e-30 -2.2520534813712e-06 4.42871824806453e-14)
(1.71221558371365e-30 -2.18172514837185e-06 -2.33804266900916e-13)
(1.59652404722432e-30 -2.1225208958143e-06 -3.22238452115832e-15)
(1.50365124855368e-30 -2.07223485711709e-06 2.94732598776002e-13)
(1.42746383020995e-30 -2.0304175390204e-06 1.60767055177983e-13)
(1.37086989108687e-30 -1.9963892764096e-06 2.07258757972862e-14)
(3.26651161171183e-28 -2.18778950684814e-06 -1.6667004384222e-13)
(3.23856311267353e-28 -2.18777323061276e-06 -1.60612422720192e-13)
(3.17717710004172e-28 -2.18832043187058e-06 -1.61653463743431e-14)
(3.11869220470778e-28 -2.18907537785436e-06 -2.05500627226199e-13)
(3.05868374175006e-28 -2.18996042181158e-06 2.40469762441713e-13)
(3.00171106302296e-28 -2.19099644388887e-06 7.06331517174052e-13)
(2.94330034763596e-28 -2.19217221094104e-06 4.22530302479715e-13)
(2.88761066552615e-28 -2.1934448205627e-06 1.45473050633963e-13)
(2.8303756344411e-28 -2.19482791479838e-06 3.13022462783084e-13)
(2.77587106383456e-28 -2.196325307292e-06 2.8061852043649e-13)
(2.71980538132587e-28 -2.19791106111141e-06 -4.51389630891164e-14)
(2.66628753454751e-28 -2.19957749399214e-06 -1.27124987168295e-14)
(2.61122035220863e-28 -2.20134067102624e-06 2.58451943636461e-13)
(2.55869255612342e-28 -2.20319253185054e-06 -1.72012666692727e-13)
(2.50459720002731e-28 -2.20511347496474e-06 -4.25701858031733e-13)
(2.45296319914979e-28 -2.20712136567189e-06 5.39246661395255e-14)
(2.39979320765144e-28 -2.20921945176831e-06 4.75913790956916e-14)
(2.34904314995042e-28 -2.21138903357322e-06 -3.6896640430784e-13)
(2.29678196807426e-28 -2.21363794125701e-06 -3.61303682711136e-13)
(2.24691314090968e-28 -2.21597932721118e-06 2.27320271696745e-13)
(2.19553293468488e-28 -2.21840357829073e-06 1.48920963948471e-13)
(2.14650194564923e-28 -2.22090345093906e-06 4.82922496224486e-14)
(2.09605384376132e-28 -2.22350294472903e-06 -1.27175643426351e-14)
(2.04793232939245e-28 -2.22620100971393e-06 -1.12949813294066e-13)
(1.9983149440057e-28 -2.22897715477471e-06 3.45976766643357e-13)
(1.95105643904276e-28 -2.23186043017848e-06 7.03181879093108e-13)
(1.90245285031471e-28 -2.2348626367279e-06 3.79031147735281e-13)
(1.85608445882636e-28 -2.23796153091512e-06 -1.91922517319026e-15)
(1.80834236778864e-28 -2.2411676139161e-06 -5.51065628559861e-14)
(1.76292293259466e-28 -2.24450631562586e-06 -3.25143667655151e-14)
(1.7161985439077e-28 -2.24797008470756e-06 2.20653088041617e-14)
(1.6716752947787e-28 -2.25154650732866e-06 -1.80300697489614e-15)
(1.62587523198183e-28 -2.25527977556266e-06 -2.10954502708534e-13)
(1.58234337541224e-28 -2.25917372354583e-06 -2.10523744505918e-13)
(1.53757175581581e-28 -2.26319400069914e-06 -2.3898168847959e-13)
(1.4950000385298e-28 -2.26738694453417e-06 -2.83676661706358e-13)
(1.45124955161029e-28 -2.27177930797063e-06 1.88657790302446e-14)
(1.40967997018e-28 -2.27634096662413e-06 -3.70128661825062e-13)
(1.36697941562122e-28 -2.28108486692012e-06 -2.33416520665591e-13)
(1.32646135155524e-28 -2.28606306596585e-06 4.21825530186618e-13)
(1.28483646398894e-28 -2.29126971159234e-06 3.66916415099147e-13)
(1.24532831766006e-28 -2.29667649855502e-06 -3.22058587477775e-13)