/*--------------------------------*- C++ -*----------------------------------*\
  =========                 |
  \\      /  F ield         | OpenFOAM: The Open Source CFD Toolbox
   \\    /   O peration     | Website:  https://openfoam.org
    \\  /    A nd           | Version:  8
     \\/     M anipulation  |
\*---------------------------------------------------------------------------*/
FoamFile
{
    version     2.0;
    format      ascii;
    class       pointVectorField;
    location    "0.0120000";
    object      pointDisplacement;
}
// * * * * * * * * * * * * * * * * * * * * * * * * * * * * * * * * * * * * * //

dimensions      [0 1 0 0 0 0 0];

internalField   nonuniform List<vector> 
2020
(
(2.406384159913e-36 -1.03320812895782e-07 4.51108411310393e-09)
(2.43420314060073e-36 -1.04511175726502e-07 4.56305647669641e-09)
(2.52806762725197e-36 -1.08540450404823e-07 4.73897840838929e-09)
(2.64970517684285e-36 -1.1375566748173e-07 4.9666797034396e-09)
(2.78493724972438e-36 -1.19559712268717e-07 5.22008977152272e-09)
(2.93226147457658e-36 -1.25893132399589e-07 5.49661286627232e-09)
(3.09804750401579e-36 -1.33003305776585e-07 5.80704974015498e-09)
(3.27454097833518e-36 -1.40555583257646e-07 6.13678929608484e-09)
(3.45896387377595e-36 -1.48514680161586e-07 6.48429097161109e-09)
(3.65630687558246e-36 -1.5699399867304e-07 6.85450601304279e-09)
(3.8650920062384e-36 -1.6590459420565e-07 7.24355101587292e-09)
(4.08029414218837e-36 -1.75128535601228e-07 7.64627699453674e-09)
(4.30205390653588e-36 -1.84704449919634e-07 8.06437044288945e-09)
(4.53595604539103e-36 -1.94745813636287e-07 8.50278585084585e-09)
(4.77592506671112e-36 -2.0508421856478e-07 8.95417035819391e-09)
(5.02397561169311e-36 -2.15716867814657e-07 9.41840185005903e-09)
(5.28246670464456e-36 -2.26774102648472e-07 9.90117114886423e-09)
(5.54636461243231e-36 -2.38138650469248e-07 1.03973580224482e-08)
(5.81789921569745e-36 -2.49783224273254e-07 1.09057710944989e-08)
(6.09807783503846e-36 -2.61808446332581e-07 1.14308036282933e-08)
(6.38458736389587e-36 -2.74232611122578e-07 1.19732543778754e-08)
(6.6833224931793e-36 -2.86939598986688e-07 1.25280534495494e-08)
(6.98636241134514e-36 -2.99956514962885e-07 1.30963842748311e-08)
(7.30278735307601e-36 -3.13495725018197e-07 1.36875189520824e-08)
(7.62560634122688e-36 -3.27350262435265e-07 1.42924211192729e-08)
(7.95145016103245e-36 -3.41519185090589e-07 1.49110496424021e-08)
(8.29517320399628e-36 -3.56212192264049e-07 1.5552560189757e-08)
(8.6531881460497e-36 -3.71343031578724e-07 1.62131869012329e-08)
(9.00917696746914e-36 -3.86851441994168e-07 1.68902987229833e-08)
(9.38329181994275e-36 -4.02844915372942e-07 1.75885888510828e-08)
(9.76877705478443e-36 -4.19417258407072e-07 1.83121529741563e-08)
(1.01676473131911e-35 -4.36421900116131e-07 1.90545916649952e-08)
(1.05769064621007e-35 -4.53910573439045e-07 1.98181636324926e-08)
(1.10010372216694e-35 -4.72187846985752e-07 2.06161666293387e-08)
(1.14402921395116e-35 -4.90981980016922e-07 2.14367361986276e-08)
(1.18825489301344e-35 -5.10299667491261e-07 2.22801646485692e-08)
(1.23532288068181e-35 -5.30471108237112e-07 2.31608687713563e-08)
(1.28439862188494e-35 -5.51362127884177e-07 2.40729903874674e-08)
(1.33442486047331e-35 -5.72896010952085e-07 2.50131800266939e-08)
(1.38646000054013e-35 -5.95327042804378e-07 2.59925400277759e-08)
(1.44161869542002e-35 -6.18744364473401e-07 2.70149623722374e-08)
(1.49789778335304e-35 -6.42935535353354e-07 2.80711717029171e-08)
(1.55587812385239e-35 -6.67994222244646e-07 2.91652576006401e-08)
(1.61681441938432e-35 -6.9445268739909e-07 3.03204591371952e-08)
(1.68192119438553e-35 -7.21892917283648e-07 3.15185254475813e-08)
(1.74924579661895e-35 -7.50331551064514e-07 3.27601830134839e-08)
(1.81874001244911e-35 -7.80342085447129e-07 3.40704712418172e-08)
(1.89100651231953e-35 -8.11746896373202e-07 3.54416348987131e-08)
(1.96683278560978e-35 -8.44365791056556e-07 3.68658065972218e-08)
(2.04720721184726e-35 -8.7862339068232e-07 3.8361525698665e-08)
(2.1297122215956e-35 -9.14854872257024e-07 3.9943426347189e-08)
(2.21802697441963e-35 -9.52600356025959e-07 4.15914297590787e-08)
(2.31140301102567e-35 -9.92001679213281e-07 4.33117286812802e-08)
(2.40874174929093e-35 -1.03424924507469e-06 4.5156297242379e-08)
(2.51193729632367e-35 -1.0782482121996e-06 4.70773336340532e-08)
(2.61834478983453e-35 -1.12406665372823e-06 4.90778099937917e-08)
(2.73213356134909e-35 -1.1730706852418e-06 5.12173722159927e-08)
(2.85219928902604e-35 -1.22483818154189e-06 5.34775899164677e-08)
(2.97962563172006e-35 -1.27887071124067e-06 5.58367011108485e-08)
(3.11162767801016e-35 -1.33578196061599e-06 5.83214999206767e-08)
(3.25339872520406e-35 -1.39668874606642e-06 6.09807476029687e-08)
(3.4032191536362e-35 -1.46029425465553e-06 6.37578240821448e-08)
(3.55535154068413e-35 -1.52667783607342e-06 6.66561938404941e-08)
(3.72274928308091e-35 -1.59803413431842e-06 6.97716771043318e-08)
(3.89514287646869e-35 -1.67246685923057e-06 7.30214800572463e-08)
(4.07546646494972e-35 -1.7500410173535e-06 7.64084409462273e-08)
(4.26950109300713e-35 -1.83278090568055e-06 8.00209424867315e-08)
(4.46911472745614e-35 -1.91944756842372e-06 8.38048907008325e-08)
(4.67995295542306e-35 -2.00937172575093e-06 8.77310641999918e-08)
(4.89913902999074e-35 -2.10352635917828e-06 9.18419442746355e-08)
(5.12907215349631e-35 -2.20220872125787e-06 9.61505092514695e-08)
(5.36600773358393e-35 -2.30389208006603e-06 1.00590100575139e-07)
(5.60999627977648e-35 -2.40865388374647e-06 1.05164099704623e-07)
(5.86293419506963e-35 -2.51759272727029e-06 1.09920472332236e-07)
(6.12270007950212e-35 -2.62803527038891e-06 1.14742497902009e-07)
(6.38088180162589e-35 -2.73971133954815e-06 1.19618380381818e-07)
(6.64253490550443e-35 -2.85195037667465e-06 1.24518842573905e-07)
(6.90098754234187e-35 -2.96235649114992e-06 1.2933927763476e-07)
(7.14999489839945e-35 -3.070102580079e-06 1.34043573472108e-07)
(7.39110899356226e-35 -3.17264574953342e-06 1.38520704939316e-07)
(7.59828987289468e-35 -3.26239935380156e-06 1.424394319311e-07)
(7.77670328305562e-35 -3.33924699811334e-06 1.4579467254205e-07)
(7.91819882376105e-35 -3.40078641403996e-06 1.48481541467446e-07)
(7.97335522275354e-35 -3.42226317768179e-06 1.49419237218671e-07)
(7.92790124393014e-35 -3.40386392204011e-06 1.48615908368541e-07)
(7.78138689335968e-35 -3.34100955272339e-06 1.45871627338253e-07)
(7.42427997477452e-35 -3.18720186386566e-06 1.39156238616145e-07)
(6.9948250523161e-35 -3.0039884034131e-06 1.31156966179255e-07)
(6.52053604063335e-35 -2.80046569869694e-06 1.22270972988056e-07)
(6.00212925659629e-35 -2.57693733933021e-06 1.12511514051312e-07)
(5.4628298971833e-35 -2.34576560797356e-06 1.02418338286487e-07)
(4.92950443679538e-35 -2.11673668424172e-06 9.24187195230332e-08)
(4.40669414071755e-35 -1.89309635146443e-06 8.26543717216028e-08)
(3.92239276406617e-35 -1.68510188898585e-06 7.35731373700387e-08)
(3.47046339981049e-35 -1.49004554711923e-06 6.50567935638567e-08)
(3.04863082353318e-35 -1.3086050199841e-06 5.71349290673195e-08)
(2.68251484277492e-35 -1.15131377990213e-06 5.02674452140913e-08)
(2.36263573844481e-35 -1.01456652794905e-06 4.42969312536718e-08)
(2.08369804624564e-35 -8.94621299030503e-07 3.90600094617106e-08)
(1.85451223409005e-35 -7.96169962393858e-07 3.47615312735513e-08)
(1.6803370320768e-35 -7.21534361581356e-07 3.15028705675341e-08)
(3.28071462297548e-25 -3.42282672926246e-07 1.49443842412061e-08)
(1.75600307134061e-26 -3.43260046432182e-07 1.49870572901859e-08)
(1.77103111914083e-26 -3.4620766337056e-07 1.51157530250497e-08)
(1.79269954360081e-26 -3.50440980745158e-07 1.53005836532574e-08)
(1.81750464368965e-26 -3.55308901566438e-07 1.55131216663204e-08)
(1.84483063882884e-26 -3.60710337220158e-07 1.57489534400236e-08)
(1.87525372081423e-26 -3.66667205394142e-07 1.60090359212839e-08)
(1.90824255445454e-26 -3.73079202216432e-07 1.6288989748474e-08)
(1.94307679648558e-26 -3.7988282420576e-07 1.65860422997238e-08)
(1.9799569010368e-26 -3.87100703394898e-07 1.69011817109242e-08)
(2.01891569710827e-26 -3.9469267732104e-07 1.72326544510794e-08)
(2.0594370935631e-26 -4.02596180077727e-07 1.75777288337196e-08)
(2.10144215499377e-26 -4.1082759426469e-07 1.79371201385962e-08)
(2.14539634969032e-26 -4.19408123683696e-07 1.83117541436876e-08)
(2.19104471535966e-26 -4.28288124248022e-07 1.86994633413578e-08)
(2.2378698378151e-26 -4.3745843062446e-07 1.90998475645167e-08)
(2.28627065278227e-26 -4.46949941938924e-07 1.95142558981368e-08)
(2.33646503274832e-26 -4.56733720114262e-07 1.99414248784837e-08)
(2.38805650846255e-26 -4.66794415062672e-07 2.03806843062502e-08)
(2.44094924987734e-26 -4.77174515535412e-07 2.08338892803792e-08)
(2.49554059529797e-26 -4.87878528946913e-07 2.1301236598835e-08)
(2.55180621021723e-26 -4.98865490216931e-07 2.17809376875877e-08)
(2.6096813014223e-26 -5.1016899795245e-07 2.22744594934986e-08)
(2.66944644123721e-26 -5.21842778893162e-07 2.27841477766822e-08)
(2.73070117331636e-26 -5.33842207496511e-07 2.33080541438726e-08)
(2.7934840226645e-26 -5.46168004820757e-07 2.38462100771533e-08)
(2.85857863684009e-26 -5.58893403542658e-07 2.44018129842433e-08)
(2.92592732758324e-26 -5.72013181596643e-07 2.4974634864836e-08)
(2.99508601337449e-26 -5.85505758763916e-07 2.55637335062304e-08)
(3.06630159485843e-26 -5.9942629492248e-07 2.61715172407109e-08)
(3.13983998362725e-26 -6.13807383551051e-07 2.67994091302909e-08)
(3.21558594468617e-26 -6.28616546394012e-07 2.74459911437062e-08)
(3.29390679390036e-26 -6.43912141944762e-07 2.81138112678053e-08)
(3.37514283440885e-26 -6.59779813993183e-07 2.88066087912088e-08)
(3.45898364589326e-26 -6.76168186517607e-07 2.95221405883676e-08)
(3.54558660277964e-26 -6.93093869771058e-07 3.02611318785909e-08)
(3.63543306734102e-26 -7.10674632286945e-07 3.10287245470921e-08)
(3.72872973655141e-26 -7.28906937235924e-07 3.18247641725674e-08)
(3.82536866808563e-26 -7.4778388854619e-07 3.26489496660192e-08)
(3.9255542281973e-26 -7.67421098457064e-07 3.35063287668282e-08)
(4.02995393433952e-26 -7.87866942574651e-07 3.43990135995707e-08)
(4.1386581941003e-26 -8.09067968327811e-07 3.53246703745898e-08)
(4.25188678941153e-26 -8.31137423751798e-07 3.62882436078872e-08)
(4.36992160374333e-26 -8.54238633578997e-07 3.72968642112794e-08)
(4.49280198418097e-26 -8.78307749060834e-07 3.83477444881998e-08)
(4.62117580936612e-26 -9.03387700292392e-07 3.94427588070792e-08)
(4.75583934883931e-26 -9.296968917177e-07 4.05914429118792e-08)
(4.8966692067745e-26 -9.57243156938486e-07 4.17941388250377e-08)
(5.04366745567119e-26 -9.86002108699451e-07 4.30497817759933e-08)
(5.19808834548138e-26 -1.01619710135547e-06 4.43681236264829e-08)
(5.36057247577679e-26 -1.04796816481946e-06 4.57552782145396e-08)
(5.53075199128066e-26 -1.0812170036664e-06 4.72069538692233e-08)
(5.70978494794141e-26 -1.11617057453421e-06 4.87330597313454e-08)
(5.89897583730134e-26 -1.15314418375017e-06 5.03473623724599e-08)
(6.097081795732e-26 -1.19193080008426e-06 5.20408226138522e-08)
(6.30490459861549e-26 -1.23262343537302e-06 5.38175014400081e-08)
(6.52542689223641e-26 -1.27574925458632e-06 5.57004153705802e-08)
(6.75864863171201e-26 -1.3213118283629e-06 5.76897203030224e-08)
(7.00359614974427e-26 -1.36913399591279e-06 5.97776812301986e-08)
(7.26200929835191e-26 -1.41962779398435e-06 6.19822880650551e-08)
(7.5357580371576e-26 -1.47313520416018e-06 6.43184720459458e-08)
(7.82335029737524e-26 -1.52934575840299e-06 6.67726778456193e-08)
(8.12595304465975e-26 -1.58849858238726e-06 6.93553459164973e-08)
(8.44658084497947e-26 -1.65116245453704e-06 7.20913096608803e-08)
(8.78315090109278e-26 -1.71699628650688e-06 7.49656768399902e-08)
(9.13618062603504e-26 -1.78606224913923e-06 7.79811618914305e-08)
(9.5093242940019e-26 -1.85899722329118e-06 8.11655716339416e-08)
(9.90104595324445e-26 -1.93555043109091e-06 8.45079568691795e-08)
(1.03093254495289e-25 -2.01537019941681e-06 8.79929632170592e-08)
(1.0735966587929e-25 -2.09880742117026e-06 9.16359109925151e-08)
(1.11813163145112e-25 -2.18586900851742e-06 9.54371019872386e-08)
(1.16425824938441e-25 -2.27596339872523e-06 9.9370708014515e-08)
(1.21189083066601e-25 -2.36903318119809e-06 1.03434222473607e-07)
(1.26094047634172e-25 -2.46498649258201e-06 1.07623634523862e-07)
(1.31097219167879e-25 -2.5628214605718e-06 1.11895201475759e-07)
(1.36155460560671e-25 -2.66167973000294e-06 1.16211446733466e-07)
(1.41218393726031e-25 -2.76066928732003e-06 1.20533424144066e-07)
(1.46217175052436e-25 -2.85839378421453e-06 1.24800167823779e-07)
(1.5107396632368e-25 -2.95337714020717e-06 1.2894723070707e-07)
(1.55636974503972e-25 -3.04261670357378e-06 1.32843514188436e-07)
(1.59708829582334e-25 -3.12216781045934e-06 1.36316790524507e-07)
(1.63164705558164e-25 -3.18969289934607e-06 1.3926499957531e-07)
(1.65661994625056e-25 -3.23853725336974e-06 1.4139759012776e-07)
(1.66620233602793e-25 -3.2572607505528e-06 1.42215075669325e-07)
(1.65704397652567e-25 -3.23932248896234e-06 1.41431874254138e-07)
(1.62282599115483e-25 -3.17244189684717e-06 1.38511804540084e-07)
(1.5602547040564e-25 -3.05017942795991e-06 1.33173709866094e-07)
(1.47880793481429e-25 -2.89101177012746e-06 1.26224299844527e-07)
(1.38657825108907e-25 -2.71069087697593e-06 1.18351319623354e-07)
(1.28663090099487e-25 -2.51523937349962e-06 1.09817722688614e-07)
(1.18290036252063e-25 -2.31243296628392e-06 1.00963003721607e-07)
(1.07933033731889e-25 -2.10999706672579e-06 9.21244614682859e-08)
(9.78988030201923e-26 -1.91386938194427e-06 8.35613418201831e-08)
(8.84290722152827e-26 -1.72873331474808e-06 7.54781265599495e-08)
(7.95813518739125e-26 -1.55574904615106e-06 6.79254702845951e-08)
(7.14639963423422e-26 -1.39703583185903e-06 6.09959016965011e-08)
(6.4283487962324e-26 -1.25666030688791e-06 5.48669739149287e-08)
(5.80306758425709e-26 -1.13446617343608e-06 4.95318628304844e-08)
(5.26366193374844e-26 -1.02903064054214e-06 4.49284480482313e-08)
(4.81483045542874e-26 -9.41266573946821e-07 4.10965861471591e-08)
(8.34915187123678e-25 -9.0213983258923e-07 3.9388275726174e-08)
(5.43188094029186e-25 -5.74782092572895e-07 2.50955281286609e-08)
(2.94368772723294e-26 -5.75419910462086e-07 2.51233758593362e-08)
(2.95565330451312e-26 -5.77778406021577e-07 2.52263499993101e-08)
(2.97351463669016e-26 -5.81264833530623e-07 2.53785707117386e-08)
(2.9939742809093e-26 -5.85301370763263e-07 2.55548097334026e-08)
(3.01638799006203e-26 -5.89800649687965e-07 2.57512524936653e-08)
(3.041770503905e-26 -5.9478166191257e-07 2.59687281840324e-08)
(3.06964490750331e-26 -6.00157714166197e-07 2.62034516945533e-08)
(3.09894874056037e-26 -6.05874098129301e-07 2.64530344084118e-08)
(3.12994816012336e-26 -6.11950447510289e-07 2.67183335518297e-08)
(3.16293803630002e-26 -6.18352070391686e-07 2.69978344429788e-08)
(3.19725544033853e-26 -6.25024980490129e-07 2.72891799898232e-08)
(3.2326495369333e-26 -6.31983442661346e-07 2.75929930094145e-08)
(3.26992087914652e-26 -6.39245902273898e-07 2.79100788439364e-08)
(3.30885048182181e-26 -6.46769449012113e-07 2.82385639885462e-08)
(3.34846603650483e-26 -6.54546273573221e-07 2.85781074817213e-08)
(3.38937952384749e-26 -6.62603253152468e-07 2.89298828071491e-08)
(3.43218912201103e-26 -6.70915357514834e-07 2.92927971211673e-08)
(3.4761997791937e-26 -6.79469425705756e-07 2.96662758040901e-08)
(3.52097804932888e-26 -6.88302379379689e-07 3.00519308901647e-08)
(3.56728427621915e-26 -6.97418200657913e-07 3.04499362425611e-08)
(3.61530611239906e-26 -7.06781505969867e-07 3.0858746981225e-08)
(3.66472456015779e-26 -7.16421517350173e-07 3.12796389677418e-08)
(3.71579009343015e-26 -7.26384972186934e-07 3.17146528005452e-08)
(3.76796362233758e-26 -7.36633216487476e-07 3.21621008098677e-08)
(3.82131638176188e-26 -7.47167025595393e-07 3.26220168479418e-08)
(3.8769853027467e-26 -7.58050104150604e-07 3.30971823194141e-08)
(3.93488814347706e-26 -7.69277969550894e-07 3.35874015096451e-08)
(3.99426831495387e-26 -7.80832045833353e-07 3.40918633745788e-08)
(4.05530055253192e-26 -7.92760377656943e-07 3.46126655893271e-08)
(4.11832679811856e-26 -8.05091407970291e-07 3.51510499998462e-08)
(4.18330428689125e-26 -8.17797038689042e-07 3.57057898172794e-08)
(4.25062982722878e-26 -8.30928082773108e-07 3.62791035833681e-08)
(4.32049189140999e-26 -8.44559248294893e-07 3.68742531229967e-08)
(4.39256721755155e-26 -8.58645903925799e-07 3.74892897902752e-08)
(4.46707450439009e-26 -8.73202667309628e-07 3.81248518053151e-08)
(4.54429833817331e-26 -8.88332232826176e-07 3.87854229015697e-08)
(4.62466933391882e-26 -9.04031589293357e-07 3.947087160799e-08)
(4.70801514351179e-26 -9.2029490731261e-07 4.01809434075381e-08)
(4.79408163679383e-26 -9.37223017684606e-07 4.09200406680455e-08)
(4.88391768646766e-26 -9.54858269468269e-07 4.16900123893564e-08)
(4.97801067866589e-26 -9.73154279040199e-07 4.24888334187373e-08)
(5.0761536731622e-26 -9.92209731567424e-07 4.33208124436319e-08)
(5.17797539023045e-26 -1.01216736941314e-06 4.41921817302107e-08)
(5.28391567966106e-26 -1.03297155923005e-06 4.51005122740726e-08)
(5.39501980129645e-26 -1.05465991613535e-06 4.60474463867033e-08)
(5.5116271593942e-26 -1.07742321758306e-06 4.70413135916298e-08)
(5.63344736538806e-26 -1.10126841046489e-06 4.80824171966956e-08)
(5.76062439600369e-26 -1.12617449549287e-06 4.91698403531865e-08)
(5.89437809583285e-26 -1.15233642682881e-06 5.03120949436319e-08)
(6.03518529966945e-26 -1.17987685216566e-06 5.15145358819512e-08)
(6.18287629847608e-26 -1.20871016997143e-06 5.27734257245436e-08)
(6.33845898710215e-26 -1.23903430839051e-06 5.40974062008211e-08)
(6.50273296459082e-26 -1.27112544072791e-06 5.54985352976865e-08)
(6.67440678650009e-26 -1.30480287983629e-06 5.69689240439158e-08)
(6.85454411000455e-26 -1.3401480290981e-06 5.85121265879428e-08)
(7.04607200697964e-26 -1.37762165095233e-06 6.01482602523103e-08)
(7.24897222607575e-26 -1.41722715655626e-06 6.18774739713622e-08)
(7.46232324074012e-26 -1.45881044075523e-06 6.36930393687385e-08)
(7.68723421241465e-26 -1.5027315443481e-06 6.56106761652032e-08)
(7.92547640814496e-26 -1.54929004750944e-06 6.76434643136549e-08)
(8.17585693742007e-26 -1.5982152229844e-06 6.97795836068756e-08)
(8.43933262598603e-26 -1.64971607775189e-06 7.20281594866392e-08)
(8.71866202138234e-26 -1.70429083817486e-06 7.44109449857339e-08)
(9.01164956096829e-26 -1.76164193499823e-06 7.69149479499024e-08)
(9.31897157198972e-26 -1.82182431020331e-06 7.95425671978542e-08)
(9.64426908669541e-26 -1.88539511207335e-06 8.23181283489759e-08)
(9.98592428652438e-26 -1.95213642396376e-06 8.52321169570888e-08)
(1.03419308016297e-25 -2.02174232071148e-06 8.82711760411145e-08)
(1.07138756099384e-25 -2.09451979028955e-06 9.14487089854177e-08)
(1.11024152677426e-25 -2.1704758708932e-06 9.47650230842385e-08)
(1.15053842498499e-25 -2.24909569894013e-06 9.81976389081038e-08)
(1.19214079165421e-25 -2.3303297464635e-06 1.01744394019282e-07)
(1.23492357202314e-25 -2.41409746039811e-06 1.05401771394991e-07)
(1.27859507139722e-25 -2.49952675113852e-06 1.09131694780757e-07)
(1.32278747301592e-25 -2.58586791487786e-06 1.12901431401469e-07)
(1.36700718423766e-25 -2.67234134144219e-06 1.16676942741832e-07)
(1.4106827952788e-25 -2.75772929246015e-06 1.20405061196336e-07)
(1.45310618708931e-25 -2.84073827370128e-06 1.24029311587232e-07)
(1.49296992337683e-25 -2.91874240644073e-06 1.27435045573429e-07)
(1.52860623571222e-25 -2.98830894346357e-06 1.30472386174753e-07)
(1.55885305580173e-25 -3.04737075318058e-06 1.33051080476904e-07)
(1.58067325541623e-25 -3.09007651617624e-06 1.3491565435694e-07)
(1.5890914930375e-25 -3.10651525122914e-06 1.35633385029579e-07)
(1.58113546546134e-25 -3.09089313549437e-06 1.34951308726367e-07)
(1.55121498576446e-25 -3.03242572369413e-06 1.32398566397725e-07)
(1.4966803934954e-25 -2.92593196360023e-06 1.2774894841811e-07)
(1.42557470559813e-25 -2.7870327099365e-06 1.21684476033807e-07)
(1.3450077681757e-25 -2.62949074230307e-06 1.14806045179206e-07)
(1.25771294702361e-25 -2.45870977493521e-06 1.07349587113029e-07)
(1.16706641737061e-25 -2.28145795433885e-06 9.96106054934712e-08)
(1.07650600432234e-25 -2.10448779321329e-06 9.1883921391987e-08)
(9.88752374178684e-26 -1.93300141335673e-06 8.43966643514139e-08)
(9.05952469622136e-26 -1.77111155011916e-06 7.73284002750667e-08)
(8.28586896913349e-26 -1.61982944196945e-06 7.07232807880026e-08)
(7.57594871723993e-26 -1.48099324792675e-06 6.46615616462137e-08)
(6.94794989275764e-26 -1.35821835429193e-06 5.93010940245758e-08)
(6.40084000313557e-26 -1.25134817529727e-06 5.4635041240825e-08)
(5.92886200782113e-26 -1.15910708987286e-06 5.06077084762536e-08)
(5.53575357462499e-26 -1.08221446334506e-06 4.72505038993072e-08)
(9.67067329824302e-25 -1.04739603660405e-06 4.57302985567722e-08)
(7.4745413816379e-25 -8.02013797176319e-07 3.50166786103551e-08)
(4.1046065430093e-26 -8.0234770702173e-07 3.5031257429372e-08)
(4.11385973954984e-26 -8.0418535927623e-07 3.51114910595422e-08)
(4.12827422598333e-26 -8.06995270661141e-07 3.52341744400979e-08)
(4.14476371746421e-26 -8.10273006531498e-07 3.5377283478804e-08)
(4.16264838149171e-26 -8.13943992411257e-07 3.55375621837196e-08)
(4.18337224622234e-26 -8.18024164243333e-07 3.57157063331384e-08)
(4.20651747000135e-26 -8.22440335873922e-07 3.59085205505775e-08)
(4.2306839256017e-26 -8.27146223074078e-07 3.61139840229593e-08)
(4.25619837580418e-26 -8.32158405370144e-07 3.63328206280369e-08)
(4.28361507069166e-26 -8.37447616698778e-07 3.65637525818895e-08)
(4.31212858614464e-26 -8.42968230394497e-07 3.68047877812805e-08)
(4.34131540720252e-26 -8.48732329968786e-07 3.70564538037148e-08)
(4.37230449213394e-26 -8.54755600044587e-07 3.73194354546193e-08)
(4.40491719295709e-26 -8.61001823064428e-07 3.75921514412849e-08)
(4.4377318595506e-26 -8.67464420766719e-07 3.78743145506079e-08)
(4.47156508613155e-26 -8.74166204630968e-07 3.81669207532927e-08)
(4.50739260250219e-26 -8.8108608958833e-07 3.84690494553524e-08)
(4.54422873324516e-26 -8.88212992252534e-07 3.87802167456916e-08)
(4.58130374453668e-26 -8.95578262245922e-07 3.91017913783816e-08)
(4.61973288323993e-26 -9.03185387398571e-07 3.94339256353723e-08)
(4.65991541445294e-26 -9.11004487126618e-07 3.97753149021977e-08)
(4.70128248407169e-26 -9.19060398871702e-07 4.0127043604979e-08)
(4.74405440507011e-26 -9.27392861851213e-07 4.04908467954181e-08)
(4.78755607972073e-26 -9.35969251410871e-07 4.08653000503469e-08)
(4.83188745438565e-26 -9.44790301563324e-07 4.12504354174498e-08)
(4.87853295491298e-26 -9.53910158814505e-07 4.1648616984231e-08)
(4.92739031083597e-26 -9.63325199073671e-07 4.20596865194716e-08)
(4.9773949287032e-26 -9.73019776776051e-07 4.24829609230612e-08)
(5.02864783907708e-26 -9.83034778313367e-07 4.29202253334146e-08)
(5.08156530745239e-26 -9.93394520338556e-07 4.33725414385274e-08)
(5.13617653616742e-26 -1.00407532095671e-06 4.38388752645381e-08)
(5.19290762932229e-26 -1.01512045275129e-06 4.43211161332426e-08)
(5.25179640065137e-26 -1.02659356562277e-06 4.4822043059312e-08)
(5.31250772603111e-26 -1.03845698047371e-06 4.53400109378235e-08)
(5.37532066651938e-26 -1.05072324249641e-06 4.58755675037024e-08)
(5.44032291827469e-26 -1.06347981052011e-06 4.64325312918989e-08)
(5.50816724208386e-26 -1.0767244160637e-06 4.70108032583886e-08)
(5.57862029444025e-26 -1.09045229430649e-06 4.76101753666073e-08)
(5.65097138222692e-26 -1.1047493753999e-06 4.8234399407991e-08)
(5.72664275745482e-26 -1.11965198614008e-06 4.88850614447118e-08)
(5.80651827523812e-26 -1.13512094760868e-06 4.95604508882524e-08)
(5.88997225404228e-26 -1.15124040247205e-06 5.02642414867647e-08)
(5.97598194015724e-26 -1.16813215795569e-06 5.10017514585673e-08)
(6.06538237353815e-26 -1.1857492808897e-06 5.17709316572084e-08)
(6.15961362264123e-26 -1.20412400704966e-06 5.25731895270454e-08)
(6.25856177009849e-26 -1.22341908446738e-06 5.34156308006033e-08)
(6.36177144231146e-26 -1.24364092877627e-06 5.42985355904867e-08)
(6.46952667922782e-26 -1.26477202169234e-06 5.52211390318982e-08)
(6.5830112515818e-26 -1.28697868172667e-06 5.61907027478548e-08)
(6.70253796537777e-26 -1.31036599773607e-06 5.72118150169339e-08)
(6.82813621669843e-26 -1.33486153795354e-06 5.82813133998916e-08)
(6.96066562935208e-26 -1.3606342648482e-06 5.94065749574465e-08)
(7.1004192494792e-26 -1.38792020787643e-06 6.05979049582178e-08)
(7.24606202517815e-26 -1.41656609252769e-06 6.18486112925517e-08)
(7.39891442209668e-26 -1.44664160219772e-06 6.31617364032114e-08)
(7.56184196098398e-26 -1.47854021772096e-06 6.45544600344447e-08)
(7.73481286868503e-26 -1.51226583859576e-06 6.60269524420272e-08)
(7.91696027905731e-26 -1.54768756217944e-06 6.75734982931494e-08)
(8.10876277400583e-26 -1.58511297957817e-06 6.92075273055374e-08)
(8.31188788963476e-26 -1.62479873361361e-06 7.0940244746776e-08)
(8.52544596144952e-26 -1.66651469418501e-06 7.27616029196742e-08)
(8.75018323437342e-26 -1.71043958247519e-06 7.4679404959592e-08)
(8.98859515214456e-26 -1.75699968883663e-06 7.67122631052717e-08)
(9.23838171812316e-26 -1.80594218978925e-06 7.88491388451835e-08)
(9.50037266994719e-26 -1.8573143740971e-06 8.10920968513544e-08)
(9.77819049410869e-26 -1.91159290858675e-06 8.34619488468867e-08)
(1.0070140576972e-25 -1.96859308381273e-06 8.59506302432261e-08)
(1.03742283245771e-25 -2.02805418469376e-06 8.85467579740937e-08)
(1.06918211436496e-25 -2.09023903519264e-06 9.12618071815244e-08)
(1.10238834245897e-25 -2.15515490657981e-06 9.4096095336042e-08)
(1.13688722534292e-25 -2.2223626917522e-06 9.70304506074881e-08)
(1.17248980662796e-25 -2.2918204187618e-06 1.00063040461037e-07)
(1.20903547571166e-25 -2.36346018970845e-06 1.03190900410346e-07)
(1.2463741535752e-25 -2.43653739774553e-06 1.06381520218396e-07)
(1.28420196123765e-25 -2.51041129789708e-06 1.09606924355372e-07)
(1.32203612382802e-25 -2.58441552633358e-06 1.12838018748156e-07)
(1.35942096396709e-25 -2.65750876684914e-06 1.16029338549333e-07)
(1.395721145314e-25 -2.72858480939927e-06 1.19132585585305e-07)
(1.42984107324639e-25 -2.79539756733782e-06 1.22049693595248e-07)
(1.4604097889341e-25 -2.85500849370363e-06 1.24652362848052e-07)
(1.4863651182974e-25 -2.90564701833836e-06 1.26863288581121e-07)
(1.50507957990116e-25 -2.94230582387746e-06 1.28463846596872e-07)
(1.51235340279615e-25 -2.95649851934649e-06 1.29083513063469e-07)
(1.50563251702207e-25 -2.94325685308998e-06 1.28505369429025e-07)
(1.48008040448968e-25 -2.89334097139756e-06 1.26325994968204e-07)
(1.43342300147201e-25 -2.8023037849117e-06 1.22351225566457e-07)
(1.37253729660917e-25 -2.68343609084742e-06 1.17161349962203e-07)
(1.30357214029661e-25 -2.54855405425689e-06 1.11272273063185e-07)
(1.22886689303841e-25 -2.40232077809522e-06 1.04887590341308e-07)
(1.15125721377931e-25 -2.25053135583737e-06 9.8260321041931e-08)
(1.07367697610119e-25 -2.09896929084759e-06 9.16429783752556e-08)
(9.98495498119706e-26 -1.95209189230801e-06 8.52301726630097e-08)
(9.27580709316965e-26 -1.81342425556434e-06 7.91758128918303e-08)
(8.61322094923449e-26 -1.68383520411334e-06 7.35178327148082e-08)
(8.00524506266911e-26 -1.56490127049569e-06 6.83250650291956e-08)
(7.46726746648997e-26 -1.45972097611723e-06 6.37327942011953e-08)
(6.99826756614035e-26 -1.36816274021543e-06 5.97352752906461e-08)
(6.59382073894279e-26 -1.28913634470203e-06 5.62849083478387e-08)
(6.25721444061567e-26 -1.22326746992142e-06 5.34090111665679e-08)
(1.1010342230924e-24 -1.19335293700406e-06 5.21029144522409e-08)
(9.41514006031666e-25 -1.02420650871659e-06 4.47178219036026e-08)
(5.23992558897322e-26 -1.02427133511262e-06 4.47206522855868e-08)
(5.24680279544762e-26 -1.02565378010313e-06 4.47810111373922e-08)
(5.25810811600058e-26 -1.02785309063569e-06 4.48770351089934e-08)
(5.27097791257839e-26 -1.03043958285794e-06 4.49899637982433e-08)
(5.28468971371621e-26 -1.03335098620023e-06 4.5117078413356e-08)
(5.30110997568327e-26 -1.03660034203356e-06 4.52589483528857e-08)
(5.31988537059584e-26 -1.04012759364156e-06 4.54129514839678e-08)
(5.33928173345464e-26 -1.04389457815979e-06 4.55774215799569e-08)
(5.35968074607531e-26 -1.04791491761078e-06 4.57529533912012e-08)
(5.381894239779e-26 -1.05216464648614e-06 4.59385005610068e-08)
(5.40497892965778e-26 -1.05660622040026e-06 4.61324238660968e-08)
(5.42833644274862e-26 -1.06124955618529e-06 4.63351562847141e-08)
(5.45341830672567e-26 -1.06610766903729e-06 4.654726607259e-08)
(5.48009184011304e-26 -1.07115083235713e-06 4.67674553383781e-08)
(5.50649021152645e-26 -1.07637360903561e-06 4.69954866927631e-08)
(5.53362546218328e-26 -1.08179485162375e-06 4.72321832558993e-08)
(5.56284933692485e-26 -1.08739730780629e-06 4.74767917754346e-08)
(5.59289448639531e-26 -1.093171856998e-06 4.77289140380188e-08)
(5.62265466220106e-26 -1.09914438199228e-06 4.7989680110816e-08)
(5.65359136462207e-26 -1.10531789039102e-06 4.82592213085611e-08)
(5.68631614564572e-26 -1.11166781893489e-06 4.85364651761906e-08)
(5.72001479514712e-26 -1.11821465745761e-06 4.88223063191649e-08)
(5.7548783281927e-26 -1.12499130919298e-06 4.91181813236965e-08)
(5.79009677656405e-26 -1.13197100711355e-06 4.94229215161279e-08)
(5.82579360692978e-26 -1.13915436269366e-06 4.97365535940058e-08)
(5.86379673810861e-26 -1.14658614756095e-06 5.00610323288076e-08)
(5.90398900984264e-26 -1.15426355422139e-06 5.03962351426974e-08)
(5.94500159579984e-26 -1.16217373025405e-06 5.07416008868592e-08)
(5.98686015374584e-26 -1.1703504953129e-06 5.10986061592731e-08)
(6.0300537411178e-26 -1.17881410729767e-06 5.14681354389433e-08)
(6.07468205625069e-26 -1.18754513521876e-06 5.18493403505422e-08)
(6.12120091291533e-26 -1.1965793626774e-06 5.22437832398399e-08)
(6.16950036679503e-26 -1.20596957673994e-06 5.26537688399268e-08)
(6.2192320271772e-26 -1.21568486290558e-06 5.30779473945487e-08)
(6.27073462387756e-26 -1.22573561489804e-06 5.35167727034832e-08)
(6.32390035757455e-26 -1.23619428151482e-06 5.39734079495419e-08)
(6.37960109507619e-26 -1.24705927287818e-06 5.44477837171631e-08)
(6.43754624253734e-26 -1.2583267508655e-06 5.49397324302948e-08)
(6.49657065766959e-26 -1.27006790651959e-06 5.54523623569927e-08)
(6.55846142378984e-26 -1.28231310312855e-06 5.5986999187045e-08)
(6.62449799364881e-26 -1.29503013124206e-06 5.65422366254802e-08)