/*--------------------------------*- C++ -*----------------------------------*\
| =========                 |                                                 |
| \\      /  F ield         | OpenFOAM: The Open Source CFD Toolbox           |
|  \\    /   O peration     | Version:  4.1                                   |
|   \\  /    A nd           | Web:      www.OpenFOAM.org                      |
|    \\/     M anipulation  |                                                 |
\*---------------------------------------------------------------------------*/
FoamFile
{
    version     2.0;
    format      ascii;
    class       volScalarField;
    location    "0.0095";
    object      p;
}
// * * * * * * * * * * * * * * * * * * * * * * * * * * * * * * * * * * * * * //

dimensions      [0 2 -2 0 0 0 0];

internalField   nonuniform List<scalar> 
1536
(
-0.12721
-0.14262
-0.14789
-0.14525
-0.12752
-0.10333
-0.075695
-0.047988
-0.021863
-0.0029497
0.0076034
0.014033
-0.12449
-0.14041
-0.14549
-0.1422
-0.12557
-0.10209
-0.075451
-0.048534
-0.023249
-0.0040607
0.0070149
0.012846
-0.12184
-0.13799
-0.14273
-0.13831
-0.12325
-0.10118
-0.075284
-0.048908
-0.024271
-0.0050353
0.0058474
0.011894
-0.1206
-0.13687
-0.14166
-0.13715
-0.12281
-0.10081
-0.075215
-0.049115
-0.024796
-0.0055458
0.0052042
0.011457
-0.12059
-0.13687
-0.14166
-0.13715
-0.1228
-0.1008
-0.075211
-0.049113
-0.024796
-0.0055478
0.0052021
0.011456
-0.12182
-0.13797
-0.14272
-0.1383
-0.12324
-0.10116
-0.075272
-0.048902
-0.024273
-0.005042
0.0058391
0.011888
-0.12446
-0.14039
-0.14548
-0.14218
-0.12555
-0.10207
-0.075432
-0.048525
-0.023252
-0.0040718
0.0070016
0.012837
-0.12717
-0.14259
-0.14786
-0.14523
-0.12749
-0.1033
-0.075665
-0.047974
-0.021866
-0.0029634
0.0075854
0.014021
-0.1245
-0.14043
-0.1455
-0.14221
-0.12558
-0.1021
-0.075458
-0.048536
-0.023246
-0.0040537
0.0070261
0.012861
-0.12195
-0.13847
-0.14382
-0.13994
-0.12345
-0.101
-0.075232
-0.048981
-0.024594
-0.0047169
0.0067116
0.011743
-0.11921
-0.13586
-0.14105
-0.13652
-0.12171
-0.10023
-0.075183
-0.04952
-0.025753
-0.0058702
0.0051677
0.010778
-0.11793
-0.13476
-0.14004
-0.13574
-0.12119
-0.099934
-0.075181
-0.049804
-0.026304
-0.0064369
0.0046629
0.010378
-0.11792
-0.13476
-0.14003
-0.13573
-0.12118
-0.099929
-0.075177
-0.049802
-0.026303
-0.0064378
0.0046621
0.010377
-0.11919
-0.13585
-0.14103
-0.13651
-0.12169
-0.10022
-0.075169
-0.049513
-0.025752
-0.0058729
0.0051646
0.010776
-0.12192
-0.13845
-0.1438
-0.13992
-0.12342
-0.10097
-0.075209
-0.048967
-0.024592
-0.0047216
0.0067065
0.011741
-0.12446
-0.14039
-0.14547
-0.14217
-0.12555
-0.10206
-0.075424
-0.048517
-0.023244
-0.0040605
0.0070194
0.012857
-0.12186
-0.13801
-0.14275
-0.13832
-0.12327
-0.1012
-0.075296
-0.048912
-0.024266
-0.0050218
0.0058691
0.011923
-0.11922
-0.13587
-0.14106
-0.13653
-0.12172
-0.10024
-0.075189
-0.049523
-0.025751
-0.0058637
0.005179
0.010792
-0.11684
-0.13382
-0.13901
-0.13418
-0.12015
-0.099486
-0.075069
-0.049976
-0.026701
-0.0067226
0.0043157
0.0099908
-0.11561
-0.13284
-0.13811
-0.13341
-0.11975
-0.099216
-0.075065
-0.05026
-0.02722
-0.0072317
0.0037478
0.0095879
-0.11561
-0.13283
-0.1381
-0.13341
-0.11974
-0.09921
-0.07506
-0.050257
-0.027218
-0.0072317
0.0037485
0.0095883
-0.11682
-0.1338
-0.13899
-0.13416
-0.12013
-0.099468
-0.075054
-0.049967
-0.026698
-0.0067229
0.0043143
0.0099918
-0.11919
-0.13585
-0.14103
-0.1365
-0.12169
-0.10021
-0.075163
-0.049507
-0.025745
-0.0058643
0.0051771
0.010794
-0.12182
-0.13797
-0.14272
-0.13829
-0.12323
-0.10115
-0.075259
-0.048889
-0.024259
-0.0050227
0.0058681
0.011927
-0.12063
-0.1369
-0.14169
-0.13718
-0.12284
-0.10084
-0.075233
-0.049122
-0.02479
-0.0055268
0.0052354
0.011499
-0.11795
-0.13478
-0.14005
-0.13575
-0.12121
-0.099951
-0.075193
-0.049809
-0.026301
-0.0064253
0.0046825
0.010403
-0.11562
-0.13285
-0.13811
-0.13342
-0.11975
-0.099223
-0.075071
-0.050263
-0.027218
-0.0072264
0.0037576
0.0095995
-0.11441
-0.13191
-0.13722
-0.13264
-0.11934
-0.098968
-0.075073
-0.050556
-0.027746
-0.0077396
0.00315
0.0091851
-0.11441
-0.1319
-0.13721
-0.13263
-0.11934
-0.098962
-0.075068
-0.050553
-0.027745
-0.0077389
0.0031514
0.0091863
-0.1156
-0.13283
-0.1381
-0.1334
-0.11973
-0.099204
-0.075055
-0.050252
-0.027213
-0.0072248
0.003757
0.0096032
-0.11792
-0.13475
-0.14002
-0.13572
-0.12118
-0.099918
-0.075165
-0.049791
-0.026293
-0.0064222
0.0046849
0.01041
-0.12059
-0.13686
-0.14165
-0.13714
-0.12279
-0.10079
-0.075193
-0.049096
-0.024779
-0.0055218
0.005241
0.011506
-0.12063
-0.13691
-0.14169
-0.13718
-0.12284
-0.10084
-0.075236
-0.049124
-0.024791
-0.0055252
0.0052396
0.011507
-0.11795
-0.13478
-0.14005
-0.13575
-0.12121
-0.099953
-0.075195
-0.04981
-0.0263
-0.0064224
0.0046882
0.010412
-0.11562
-0.13285
-0.13812
-0.13342
-0.11975
-0.099224
-0.075072
-0.050263
-0.027217
-0.0072227
0.0037643
0.0096094
-0.11441
-0.13191
-0.13722
-0.13264
-0.11934
-0.098969
-0.075073
-0.050556
-0.027744
-0.0077352
0.0031574
0.0091958
-0.11441
-0.1319
-0.13721
-0.13263
-0.11934
-0.098963
-0.075068
-0.050552
-0.027742
-0.0077338
0.0031597
0.0091977
-0.1156
-0.13283
-0.1381
-0.1334
-0.11973
-0.099204
-0.075055
-0.050251
-0.027211
-0.0072192
0.003766
0.0096154
-0.11792
-0.13475
-0.14002
-0.13572
-0.12118
-0.099918
-0.075165
-0.049789
-0.026289
-0.0064162
0.004694
0.010423
-0.12059
-0.13686
-0.14165
-0.13714
-0.12279
-0.10079
-0.075193
-0.049095
-0.024775
-0.0055149
0.0052514
0.01152
-0.12186
-0.13801
-0.14276
-0.13833
-0.12328
-0.1012
-0.075303
-0.048917
-0.024268
-0.0050162
0.0058829
0.011948
-0.11922
-0.13587
-0.14106
-0.13654
-0.12172
-0.10025
-0.075193
-0.049525
-0.025749
-0.0058548
0.0051966
0.010819
-0.11684
-0.13382
-0.13901
-0.13418
-0.12016
-0.099489
-0.075072
-0.049977
-0.026697
-0.0067113
0.0043356
0.010021
-0.11561
-0.13284
-0.13811
-0.13341
-0.11975
-0.099217
-0.075067
-0.050259
-0.027214
-0.0072184
0.0037691
0.0096202
-0.11561
-0.13283
-0.1381
-0.13341
-0.11974
-0.099211
-0.075061
-0.050254
-0.027211
-0.0072166
0.0037721
0.0096229
-0.11682
-0.1338
-0.13899
-0.13416
-0.12013
-0.099468
-0.075053
-0.049963
-0.026689
-0.0067066
0.0043379
0.010028
-0.11919
-0.13584
-0.14103
-0.13651
-0.12169
-0.10021
-0.075162
-0.049503
-0.025736
-0.0058466
0.0052029
0.010833
-0.12182
-0.13797
-0.14272
-0.13829
-0.12323
-0.10115
-0.075258
-0.048885
-0.024249
-0.0050015
0.0059001
0.011967
-0.1245
-0.14043
-0.14552
-0.14222
-0.1256
-0.10211
-0.07547
-0.048544
-0.023248
-0.0040438
0.0070505
0.012902
-0.12195
-0.13847
-0.14383
-0.13995
-0.12346
-0.10101
-0.07524
-0.048984
-0.024591
-0.0047016
0.0067421
0.011789
-0.1192
-0.13586
-0.14105
-0.13653
-0.12171
-0.10024
-0.075187
-0.04952
-0.025746
-0.0058512
0.0052013
0.010829
-0.11793
-0.13476
-0.14004
-0.13574
-0.12119
-0.099937
-0.075183
-0.049802
-0.026294
-0.0064145
0.0047003
0.010432
-0.11792
-0.13475
-0.14003
-0.13573
-0.12119
-0.09993
-0.075177
-0.049797
-0.026291
-0.0064126
0.0047025
0.010435
-0.11919
-0.13584
-0.14103
-0.13651
-0.12169
-0.10022
-0.075168
-0.049507
-0.025737
-0.0058454
0.0052072
0.010837
-0.12192
-0.13844
-0.1438
-0.13992
-0.12342
-0.10097
-0.075207
-0.048961
-0.024577
-0.0046922
0.0067519
0.011806
-0.12446
-0.14039
-0.14547
-0.14218
-0.12554
-0.10206
-0.075422
-0.04851
-0.023227
-0.0040269
0.0070696
0.012926
-0.12721
-0.14263
-0.1479
-0.14527
-0.12755
-0.10335
-0.075711
-0.047999
-0.021864
-0.0029356
0.0076357
0.01409
-0.12449
-0.14042
-0.1455
-0.14221
-0.12559
-0.1021
-0.075463
-0.048539
-0.023245
-0.0040405
0.0070564
0.01291
-0.12183
-0.13798
-0.14274
-0.13831
-0.12326
-0.10118
-0.07529
-0.048908
-0.024263
-0.0050094
0.0058947
0.011965
-0.12059
-0.13687
-0.14166
-0.13715
-0.12281
-0.10081
-0.075217
-0.049112
-0.024783
-0.0055146
0.0052571
0.011533
-0.12059
-0.13687
-0.14165
-0.13715
-0.1228
-0.10081
-0.075211
-0.049107
-0.024779
-0.0055123
0.0052597
0.011537
-0.12182
-0.13797
-0.14272
-0.13829
-0.12323
-0.10116
-0.07527
-0.048894
-0.024252
-0.005002
0.0059022
0.011975
-0.12446
-0.14039
-0.14547
-0.14218
-0.12555
-0.10206
-0.075428
-0.048514
-0.023229
-0.0040285
0.0070692
0.012928
-0.12717
-0.14259
-0.14785
-0.14522
-0.12749
-0.10329
-0.075661
-0.047963
-0.021841
-0.0029175
0.0076605
0.014118
0.018913
0.013868
0.0044656
-0.014155
-0.043593
-0.07378
-0.10452
-0.13063
-0.14715
-0.15721
-0.15684
-0.14374
0.016602
0.01131
0.0016192
-0.015988
-0.044499
-0.073266
-0.10239
-0.12686
-0.14253
-0.15071
-0.14938
-0.13654
0.016096
0.010524
8.9929e-05
-0.017696
-0.045723
-0.074149
-0.10297
-0.12753
-0.14309
-0.15071
-0.14835
-0.13387
0.015516
0.010155
-0.00020889
-0.017943
-0.045607
-0.073719
-0.10209
-0.12632
-0.14156
-0.14914
-0.14693
-0.13275
0.015512
0.010151
-0.00021317
-0.017945
-0.045606
-0.073716
-0.10208
-0.12631
-0.14156
-0.14915
-0.14693
-0.13275
0.016084
0.010507
7.5428e-05
-0.017702
-0.045721
-0.074142
-0.10296
-0.12752
-0.14308
-0.15072
-0.14834
-0.13385
0.016582
0.011283
0.001599
-0.015993
-0.04449
-0.073245
-0.10236
-0.12683
-0.14252
-0.15071
-0.14938
-0.13651
0.018885
0.013833
0.0044443
-0.014158
-0.043573
-0.073741
-0.10447
-0.13058
-0.14711
-0.15717
-0.15681
-0.1437
0.035864
0.03564
0.022711
-0.0015932
-0.037085
-0.078351
-0.122
-0.16307
-0.19532
-0.21086
-0.20723
-0.18669
0.034312
0.03368
0.021212
-0.0024548
-0.037399
-0.077826
-0.12038
-0.16006
-0.19126
-0.20698
-0.2038
-0.18353
0.033445
0.032269
0.019886
-0.0037504
-0.038211
-0.078153
-0.1202
-0.15952
-0.19031
-0.20518
-0.20204
-0.18186
0.033005
0.031823
0.019405
-0.0041542
-0.038446
-0.078077
-0.11972
-0.15869
-0.1893
-0.20407
-0.20091
-0.18108
0.032992
0.031807
0.019393
-0.0041597
-0.038446
-0.078073
-0.11971
-0.15867
-0.18929
-0.20407
-0.20091
-0.18108
0.033407
0.032225
0.019852
-0.0037664
-0.03821
-0.078146
-0.12019
-0.15949
-0.19028
-0.20517
-0.20202
-0.18184
0.034253
0.033624
0.021167
-0.0024777
-0.037395
-0.07781
-0.12035
-0.16001
-0.19122
-0.20694
-0.20376
-0.1835
0.035789
0.03557
0.022654
-0.0016191
-0.037071
-0.078313
-0.12194
-0.163
-0.19525
-0.2108
-0.20718
-0.18665
0.018903
0.013844
0.0044524
-0.014152
-0.043568
-0.073734
-0.10446
-0.13057
-0.14711
-0.15718
-0.1568
-0.14369
0.01663
0.011316
0.0016213
-0.015977
-0.044474
-0.073225
-0.10234
-0.12681
-0.14251
-0.1507
-0.14936
-0.13651
0.016159
0.01056
0.00010923
-0.017679
-0.045696
-0.074113
-0.10293
-0.12749
-0.14307
-0.15071
-0.14833
-0.13385
0.015608
0.010219
-0.00016616
-0.017912
-0.045574
-0.073681
-0.10205
-0.12628
-0.14154
-0.14913
-0.14692
-0.13274
0.01563
0.010235
-0.00015691
-0.017908
-0.045573
-0.073681
-0.10205
-0.12628
-0.14155
-0.14913
-0.14692
-0.13274
0.01622
0.010609
0.00014467
-0.017661
-0.045689
-0.07411
-0.10293
-0.12748
-0.14307
-0.15071
-0.14834
-0.13386
0.016729
0.011394
0.00167
-0.015956
-0.044468
-0.073225
-0.10234
-0.12681
-0.14251
-0.15069
-0.14936
-0.13652
0.019036
0.013946
0.0045083
-0.014129
-0.043565
-0.073737
-0.10446
-0.13057
-0.14711
-0.15716
-0.1568
-0.14371
0.035816
0.035588
0.022667
-0.0016093
-0.037059
-0.078294
-0.12191
-0.16298
-0.19523
-0.21079
-0.20717
-0.18665
0.034345
0.033682
0.021207
-0.0024486
-0.037362
-0.077762
-0.12029
-0.15995
-0.19116
-0.20691
-0.20374
-0.1835
0.033548
0.032322
0.019912
-0.0037229
-0.038161
-0.078076
-0.1201
-0.1594
-0.19019
-0.2051
-0.20199
-0.18185
0.033168
0.031929
0.019469
-0.0041063
-0.038389
-0.077995
-0.11962
-0.15858
-0.18919
-0.20398
-0.20087
-0.18109
0.033202
0.031952
0.019484
-0.0041022
-0.038393
-0.078004
-0.11963
-0.15859
-0.1892
-0.20399
-0.20089
-0.1811
0.033646
0.032394
0.019958
-0.0037093
-0.038169
-0.078092
-0.12011
-0.15942
-0.19021
-0.20513
-0.20202
-0.1819
0.0345
0.033792
0.021266
-0.002431
-0.037372
-0.077779
-0.12029
-0.15995
-0.19116
-0.20692
-0.20378
-0.18357
0.036021
0.035726
0.022742
-0.001588
-0.037073
-0.078313
-0.12191
-0.16296
-0.19521
-0.21077
-0.20719
-0.18668
0.019036
0.013947
0.0045079
-0.014131
-0.043569
-0.073742
-0.10447
-0.13057
-0.1471
-0.15715
-0.1568
-0.1437
0.016732
0.011396
0.0016672
-0.015962
-0.04448
-0.073242
-0.10236
-0.12682
-0.14251
-0.15069
-0.14936
-0.13651
0.01623
0.010614
0.00014313
-0.017668
-0.045708
-0.074136
-0.10295
-0.1275
-0.14307
-0.1507
-0.14832
-0.13384
0.01565
0.010249
-0.00015535
-0.017918
-0.045598
-0.073716
-0.10208
-0.12631
-0.14155
-0.14913
-0.14691
-0.13273
0.015644
0.010244
-0.00015758
-0.017922
-0.045604
-0.073724
-0.10209
-0.12632
-0.14155
-0.14913
-0.14692
-0.13273
0.016212
0.0106
0.00012687
-0.017687
-0.04573
-0.074166
-0.10299
-0.12754
-0.14309
-0.15072
-0.14834
-0.13386
0.016703
0.011372
0.0016481
-0.015984
-0.044511
-0.073287
-0.10241
-0.12688
-0.14255
-0.15074
-0.14939
-0.13654
0.019
0.013918
0.0044892
-0.014155
-0.043608
-0.073803
-0.10455
-0.13066
-0.14718
-0.15724
-0.15685
-0.14374
0.036019
0.035726
0.02274
-0.0015915
-0.03708
-0.078324
-0.12192
-0.16296
-0.19521
-0.21077
-0.20717
-0.18666
0.03449
0.033787
0.021258
-0.002444
-0.037395
-0.077813
-0.12033
-0.15998
-0.19117
-0.20689
-0.20374
-0.18352
0.033639
0.032386
0.01995
-0.0037276
-0.038204
-0.078144
-0.12017
-0.15946
-0.19024
-0.20513
-0.20199
-0.18184
0.03321
0.031955
0.019478
-0.004127
-0.038442
-0.078074
-0.1197
-0.15864
-0.18924
-0.20401
-0.20087
-0.18105
0.033202
0.031953
0.019473
-0.0041331
-0.038451
-0.078088
-0.11972
-0.15865
-0.18926
-0.20402
-0.20087
-0.18105
0.033616
0.032374
0.019931
-0.0037467
-0.038232
-0.078187
-0.12022
-0.1595
-0.19029
-0.20515
-0.20201
-0.18182
0.034452
0.033759
0.021243
-0.0024656
-0.037435
-0.077878
-0.12041
-0.16007
-0.19128
-0.20697
-0.20378
-0.1835
0.035964
0.035693
0.022723
-0.0016167
-0.037131
-0.078409
-0.12205
-0.16312
-0.19538
-0.2109
-0.20725
-0.18669
0.018996
0.013919
0.0044896
-0.014155
-0.043611
-0.07381
-0.10456
-0.13067
-0.14719
-0.15726
-0.15687
-0.14376
0.016693
0.011369
0.0016484
-0.015985
-0.04452
-0.073306
-0.10244
-0.12692
-0.14259
-0.15079
-0.14944
-0.13658
0.016191
0.010589
0.00012478
-0.017692
-0.045745
-0.074194
-0.10303
-0.1276
-0.14315
-0.1508
-0.14841
-0.13393
0.01561
0.010227
-0.00016611
-0.017933
-0.045624
-0.07376
-0.10215
-0.12638
-0.14161
-0.14921
-0.147
-0.13282
0.015601
0.010222
-0.00016784
-0.017931
-0.04562
-0.073754
-0.10214
-0.12638
-0.14161
-0.1492
-0.14699
-0.13281
0.016163
0.010575
0.000123
-0.017685
-0.045732
-0.074174
-0.10301
-0.12757
-0.14313
-0.15076
-0.14839
-0.13392
0.016645
0.011344
0.0016411
-0.01598
-0.044505
-0.073284
-0.10241
-0.12689
-0.14256
-0.15074
-0.14942
-0.13657
0.018929
0.013882
0.004474
-0.014152
-0.043595
-0.073785
-0.10453
-0.13064
-0.14716
-0.15722
-0.15685
-0.14375
0.035966
0.035701
0.022729
-0.0016147
-0.037135
-0.078419
-0.12207
-0.16315
-0.19543
-0.21095
-0.20729
-0.18673
0.034453
0.033775
0.021257
-0.00246
-0.037446
-0.07791
-0.12048
-0.16018
-0.19141
-0.20709
-0.20389
-0.18363
0.033615
0.032389
0.019952
-0.003741
-0.038254
-0.07824
-0.12033
-0.15966
-0.19045
-0.20531
-0.20215
-0.18198
0.033195
0.031968
0.019494
-0.0041291
-0.038481
-0.078159
-0.11985
-0.15883
-0.18942
-0.20416
-0.20103
-0.18121
0.033187
0.031965
0.019496
-0.0041225
-0.038471
-0.078147
-0.11983
-0.15881
-0.1894
-0.20415
-0.20101
-0.1812
0.03359
0.032381
0.01996
-0.0037231
-0.038227
-0.078204
-0.12027
-0.1596
-0.19039
-0.20526
-0.20213
-0.18197
0.034408
0.033758
0.02126
-0.0024382
-0.037411
-0.077862
-0.12043
-0.16011
-0.19132
-0.20704
-0.20386
-0.18361
0.035896
0.035669
0.022729
-0.0015872
-0.037089
-0.078365
-0.12201
-0.16309
-0.19534
-0.21088
-0.20726
-0.18672
)
;

boundaryField
{
    inlet
    {
        type            uniformTotalPressure;
        rho             rho;
        psi             none;
        gamma           1;
        p0              table
        
4
(
(0 1.3332)
(0.003 1.3332)
(0.0031 0)
(0.01 0)
)
;
        value           nonuniform 0();
    }
    outlet
    {
        type            fixedValue;
        value           nonuniform 0();
    }
    mantle
    {
        type            zeroGradient;
    }
    procBoundary1to0
    {
        type            processor;
        value           nonuniform List<scalar> 
128
(
0.014401
0.013423
0.012699
0.012346
0.012346
0.012699
0.013425
0.014403
0.013443
0.012536
0.01184
0.011522
0.011523
0.011844
0.012542
0.013451
0.012734
0.011857
0.011241
0.010939
0.010941
0.011247
0.011867
0.012748
0.012395
0.011552
0.010953
0.010654
0.010657
0.010961
0.011566
0.012413
0.012406
0.011564
0.010966
0.010668
0.010672
0.010977
0.011582
0.01243
0.012769
0.011894
0.011281
0.010982
0.010986
0.011294
0.011915
0.012798
0.013501
0.012599
0.011907
0.011592
0.011597
0.011922
0.012622
0.013534
0.014484
0.013513
0.012793
0.012445
0.01245
0.012809
0.013538
0.01452
0.017354
0.015697
0.015389
0.014961
0.01496
0.015383
0.015689
0.017345
0.029234
0.028223
0.027888
0.027624
0.027615
0.02786
0.02818
0.029186
0.017367
0.015757
0.01548
0.015088
0.015115
0.01556
0.015874
0.017528
0.029223
0.028302
0.028043
0.027848
0.02789
0.028166
0.028494
0.029474
0.017529
0.015876
0.015571
0.015139
0.015129
0.015543
0.015841
0.017479
0.029471
0.028478
0.028158
0.027899
0.027886
0.028121
0.028424
0.029391
0.017472
0.015818
0.015507
0.015073
0.015059
0.015466
0.015748
0.017371
0.029386
0.028406
0.028093
0.027839
0.027825
0.028048
0.028328
0.029271
)
;
    }
    procBoundary1to2
    {
        type            processor;
        value           nonuniform List<scalar> 
128
(
-0.098369
-0.095301
-0.092666
-0.091412
-0.091406
-0.092647
-0.095269
-0.098323
-0.095315
-0.092462
-0.089741
-0.088443
-0.088437
-0.089722
-0.092429
-0.095269
-0.092691
-0.089752
-0.087329
-0.086098
-0.086092
-0.087309
-0.089719
-0.092644
-0.091446
-0.088463
-0.086107
-0.084907
-0.084901
-0.086087
-0.088429
-0.091399
-0.091446
-0.088462
-0.086107
-0.084907
-0.0849
-0.086086
-0.088429
-0.091398
-0.09269
-0.089751
-0.087327
-0.086096
-0.08609
-0.087308
-0.089718
-0.092644
-0.095313
-0.092459
-0.089737
-0.088439
-0.088432
-0.089719
-0.092429
-0.095271
-0.098364
-0.095296
-0.09266
-0.091406
-0.0914
-0.092643
-0.095269
-0.098326
-0.11503
-0.10883
-0.10585
-0.10478
-0.10478
-0.10583
-0.1088
-0.11499
-0.15185
-0.1487
-0.14708
-0.14641
-0.14641
-0.14705
-0.14865
-0.15178
-0.11499
-0.1088
-0.10583
-0.10477
-0.10478
-0.10584
-0.10881
-0.11499
-0.15181
-0.14867
-0.14708
-0.14643
-0.14645
-0.14712
-0.14873
-0.15183
-0.11499
-0.1088
-0.10582
-0.10476
-0.10477
-0.10584
-0.10882
-0.11503
-0.1518
-0.14868
-0.14704
-0.14638
-0.14638
-0.14704
-0.14867
-0.15183
-0.11505
-0.10887
-0.10591
-0.10485
-0.10485
-0.10591
-0.10887
-0.11505
-0.15188
-0.1488
-0.14721
-0.14656
-0.14656
-0.1472
-0.14878
-0.15187
)
;
    }
}


// ************************************************************************* //
