/*--------------------------------*- C++ -*----------------------------------*\
| =========                 |                                                 |
| \\      /  F ield         | foam-extend: Open Source CFD                    |
|  \\    /   O peration     | Version:     4.1-20200408                       |
|   \\  /    A nd           | Web:         http://www.foam-extend.org         |
|    \\/     M anipulation  |                                                 |
\*---------------------------------------------------------------------------*/
FoamFile
{
    version     2.0;
    format      ascii;
    class       volVectorField;
    location    "0.0030000";
    object      DU_0;
}
// * * * * * * * * * * * * * * * * * * * * * * * * * * * * * * * * * * * * * //

dimensions      [0 1 0 0 0 0 0];

internalField   nonuniform List<vector> 
1952
(
(5.01233e-05 -2.55203e-09 0)
(5.01261e-05 6.35707e-10 0)
(5.01255e-05 4.08517e-09 0)
(5.01214e-05 7.62355e-09 0)
(5.01137e-05 1.10492e-08 0)
(5.01027e-05 1.41505e-08 0)
(5.00888e-05 1.67384e-08 0)
(5.00727e-05 1.86712e-08 0)
(5.00551e-05 1.9867e-08 0)
(5.00369e-05 2.03076e-08 0)
(5.00188e-05 2.00306e-08 0)
(5.00016e-05 1.91205e-08 0)
(4.99859e-05 1.76944e-08 0)
(4.9972e-05 1.58903e-08 0)
(4.99603e-05 1.38529e-08 0)
(4.99509e-05 1.1721e-08 0)
(4.99437e-05 9.6163e-09 0)
(4.99386e-05 7.63345e-09 0)
(4.99354e-05 5.83771e-09 0)
(4.99339e-05 4.26561e-09 0)
(4.99336e-05 2.93081e-09 0)
(4.99344e-05 1.82884e-09 0)
(4.9936e-05 9.43822e-10 0)
(4.99381e-05 2.52387e-10 0)
(4.99407e-05 -2.7169e-10 0)
(4.99435e-05 -6.55479e-10 0)
(4.99464e-05 -9.24412e-10 0)
(4.99493e-05 -1.10185e-09 0)
(4.99522e-05 -1.20795e-09 0)
(4.9955e-05 -1.26015e-09 0)
(4.99577e-05 -1.2726e-09 0)
(4.99603e-05 -1.25711e-09 0)
(4.99628e-05 -1.2228e-09 0)
(4.99651e-05 -1.177e-09 0)
(4.99673e-05 -1.12518e-09 0)
(4.99693e-05 -1.07138e-09 0)
(4.99713e-05 -1.01874e-09 0)
(4.99731e-05 -9.68912e-10 0)
(4.99749e-05 -9.23746e-10 0)
(4.99766e-05 -8.83137e-10 0)
(4.99782e-05 -8.48271e-10 0)
(4.99798e-05 -8.17781e-10 0)
(4.99814e-05 -7.92402e-10 0)
(4.9983e-05 -7.69898e-10 0)
(4.99845e-05 -7.50445e-10 0)
(4.9986e-05 -7.31224e-10 0)
(4.99875e-05 -7.11553e-10 0)
(4.99891e-05 -6.88185e-10 0)
(4.99906e-05 -6.59248e-10 0)
(4.99921e-05 -6.21071e-10 0)
(4.99936e-05 -5.70432e-10 0)
(4.99951e-05 -5.03201e-10 0)
(4.99965e-05 -4.15024e-10 0)
(4.99979e-05 -3.01555e-10 0)
(4.99992e-05 -1.58206e-10 0)
(5.00003e-05 1.85827e-11 0)
(5.00013e-05 2.31689e-10 0)
(5.00021e-05 4.81666e-10 0)
(5.00027e-05 7.66596e-10 0)
(5.00029e-05 1.08082e-09 0)
(5.00029e-05 1.41469e-09 0)
(5.00025e-05 1.75295e-09 0)
(5.00018e-05 2.08442e-09 0)
(5.0123e-05 -4.3092e-09 0)
(5.01259e-05 9.15106e-10 0)
(5.01254e-05 6.58425e-09 0)
(5.01214e-05 1.24113e-08 0)
(5.01138e-05 1.80596e-08 0)
(5.01027e-05 2.31727e-08 0)
(5.00887e-05 2.74339e-08 0)
(5.00724e-05 3.06072e-08 0)
(5.00546e-05 3.25585e-08 0)
(5.00363e-05 3.32606e-08 0)
(5.00181e-05 3.27789e-08 0)
(5.00008e-05 3.12558e-08 0)
(4.9985e-05 2.88869e-08 0)
(4.99712e-05 2.59016e-08 0)
(4.99597e-05 2.25401e-08 0)
(4.99504e-05 1.90328e-08 0)
(4.99434e-05 1.55804e-08 0)
(4.99385e-05 1.23378e-08 0)
(4.99355e-05 9.41021e-09 0)
(4.99341e-05 6.85485e-09 0)
(4.9934e-05 4.69135e-09 0)
(4.99349e-05 2.91002e-09 0)
(4.99366e-05 1.48308e-09 0)
(4.99388e-05 3.71017e-10 0)
(4.99413e-05 -4.69768e-10 0)
(4.99441e-05 -1.08387e-09 0)
(4.9947e-05 -1.51287e-09 0)
(4.99499e-05 -1.7948e-09 0)
(4.99528e-05 -1.96231e-09 0)
(4.99555e-05 -2.04355e-09 0)
(4.99582e-05 -2.06133e-09 0)
(4.99607e-05 -2.03464e-09 0)
(4.99631e-05 -1.97807e-09 0)
(4.99654e-05 -1.90337e-09 0)
(4.99675e-05 -1.81928e-09 0)
(4.99695e-05 -1.73223e-09 0)
(4.99714e-05 -1.64725e-09 0)
(4.99733e-05 -1.56693e-09 0)
(4.9975e-05 -1.49422e-09 0)
(4.99767e-05 -1.42892e-09 0)
(4.99783e-05 -1.37295e-09 0)
(4.99799e-05 -1.32406e-09 0)
(4.99814e-05 -1.28346e-09 0)
(4.9983e-05 -1.24752e-09 0)
(4.99845e-05 -1.21657e-09 0)
(4.9986e-05 -1.18604e-09 0)
(4.99875e-05 -1.15487e-09 0)
(4.9989e-05 -1.11782e-09 0)
(4.99905e-05 -1.0719e-09 0)
(4.9992e-05 -1.01117e-09 0)
(4.99935e-05 -9.30405e-10 0)
(4.9995e-05 -8.22912e-10 0)
(4.99964e-05 -6.81553e-10 0)
(4.99978e-05 -4.99176e-10 0)
(4.99991e-05 -2.6814e-10 0)
(5.00002e-05 1.75898e-11 0)
(5.00012e-05 3.63045e-10 0)
(5.00021e-05 7.69525e-10 0)
(5.00026e-05 1.23433e-09 0)
(5.00029e-05 1.74861e-09 0)
(5.00029e-05 2.29683e-09 0)
(5.00025e-05 2.85433e-09 0)
(5.00018e-05 3.40504e-09 0)
(5.01225e-05 -6.29005e-09 0)
(5.01257e-05 1.04931e-09 0)
(5.01255e-05 9.04774e-09 0)
(5.01216e-05 1.72938e-08 0)
(5.01139e-05 2.52999e-08 0)
(5.01027e-05 3.2544e-08 0)
(5.00885e-05 3.85647e-08 0)
(5.0072e-05 4.30232e-08 0)
(5.0054e-05 4.57326e-08 0)
(5.00354e-05 4.6662e-08 0)
(5.00171e-05 4.59126e-08 0)
(4.99998e-05 4.36938e-08 0)
(4.9984e-05 4.02887e-08 0)
(4.99703e-05 3.60274e-08 0)
(4.99589e-05 3.12538e-08 0)
(4.99499e-05 2.62974e-08 0)
(4.99432e-05 2.14436e-08 0)
(4.99386e-05 1.69091e-08 0)
(4.99358e-05 1.28368e-08 0)
(4.99346e-05 9.30039e-09 0)
(4.99347e-05 6.3209e-09 0)
(4.99357e-05 3.87916e-09 0)
(4.99374e-05 1.93191e-09 0)
(4.99397e-05 4.20977e-10 0)
(4.99422e-05 -7.16362e-10 0)
(4.9945e-05 -1.54315e-09 0)
(4.99478e-05 -2.11759e-09 0)
(4.99507e-05 -2.49237e-09 0)
(4.99534e-05 -2.71244e-09 0)
(4.99561e-05 -2.81635e-09 0)
(4.99587e-05 -2.83516e-09 0)
(4.99612e-05 -2.79462e-09 0)
(4.99635e-05 -2.71447e-09 0)
(4.99657e-05 -2.61052e-09 0)
(4.99678e-05 -2.49452e-09 0)
(4.99697e-05 -2.37507e-09 0)
(4.99716e-05 -2.25888e-09 0)
(4.99734e-05 -2.14936e-09 0)
(4.99751e-05 -2.05048e-09 0)
(4.99767e-05 -1.96187e-09 0)
(4.99783e-05 -1.88611e-09 0)
(4.99799e-05 -1.82009e-09 0)
(4.99814e-05 -1.76549e-09 0)
(4.99829e-05 -1.71729e-09 0)
(4.99844e-05 -1.67601e-09 0)
(4.99859e-05 -1.63538e-09 0)
(4.99874e-05 -1.59402e-09 0)
(4.99889e-05 -1.54474e-09 0)
(4.99904e-05 -1.48347e-09 0)
(4.99919e-05 -1.4021e-09 0)
(4.99933e-05 -1.29341e-09 0)
(4.99948e-05 -1.14813e-09 0)
(4.99962e-05 -9.56273e-10 0)
(4.99976e-05 -7.07741e-10 0)
(4.99989e-05 -3.91562e-10 0)
(5.00001e-05 1.16749e-12 0)
(5.00011e-05 4.78181e-10 0)
(5.0002e-05 1.04218e-09 0)
(5.00026e-05 1.69033e-09 0)
(5.00029e-05 2.41107e-09 0)
(5.00029e-05 3.18275e-09 0)
(5.00025e-05 3.96984e-09 0)
(5.00018e-05 4.74455e-09 0)
(5.01217e-05 -8.6482e-09 0)
(5.01252e-05 8.82286e-10 0)
(5.01253e-05 1.13334e-08 0)
(5.01216e-05 2.21565e-08 0)
(5.0114e-05 3.2692e-08 0)
(5.01027e-05 4.2221e-08 0)
(5.00882e-05 5.01138e-08 0)
(5.00713e-05 5.59179e-08 0)
(5.0053e-05 5.93943e-08 0)
(5.00342e-05 6.05162e-08 0)
(5.00156e-05 5.94316e-08 0)
(4.99982e-05 5.64278e-08 0)
(4.99826e-05 5.18854e-08 0)
(4.9969e-05 4.62453e-08 0)
(4.99579e-05 3.99649e-08 0)
(4.99492e-05 3.34828e-08 0)
(4.99429e-05 2.7176e-08 0)
(4.99386e-05 2.13237e-08 0)
(4.99362e-05 1.6103e-08 0)
(4.99353e-05 1.15978e-08 0)
(4.99356e-05 7.82431e-09 0)
(4.99368e-05 4.74849e-09 0)
(4.99386e-05 2.30775e-09 0)
(4.99409e-05 4.22603e-10 0)
(4.99434e-05 -9.90165e-10 0)
(4.99462e-05 -2.01266e-09 0)
(4.99489e-05 -2.71961e-09 0)
(4.99517e-05 -3.17803e-09 0)
(4.99544e-05 -3.44461e-09 0)
(4.9957e-05 -3.5677e-09 0)
(4.99595e-05 -3.586e-09 0)
(4.99619e-05 -3.53154e-09 0)
(4.99641e-05 -3.42871e-09 0)
(4.99662e-05 -3.29709e-09 0)
(4.99682e-05 -3.1511e-09 0)
(4.99701e-05 -3.00133e-09 0)
(4.99719e-05 -2.85601e-09 0)
(4.99736e-05 -2.71929e-09 0)
(4.99753e-05 -2.59608e-09 0)
(4.99769e-05 -2.48579e-09 0)
(4.99784e-05 -2.3917e-09 0)
(4.99799e-05 -2.30981e-09 0)
(4.99814e-05 -2.24234e-09 0)
(4.99829e-05 -2.18294e-09 0)
(4.99844e-05 -2.13236e-09 0)
(4.99858e-05 -2.08273e-09 0)
(4.99873e-05 -2.03244e-09 0)
(4.99887e-05 -1.97247e-09 0)
(4.99902e-05 -1.8978e-09 0)
(4.99917e-05 -1.79823e-09 0)
(4.99931e-05 -1.66462e-09 0)
(4.99946e-05 -1.48522e-09 0)
(4.9996e-05 -1.24712e-09 0)
(4.99974e-05 -9.37157e-10 0)
(4.99987e-05 -5.40712e-10 0)
(4.99999e-05 -4.55275e-11 0)
(5.0001e-05 5.59584e-10 0)
(5.00018e-05 1.27968e-09 0)
(5.00025e-05 2.1129e-09 0)
(5.00028e-05 3.04613e-09 0)
(5.00029e-05 4.05256e-09 0)
(5.00025e-05 5.08684e-09 0)
(5.00018e-05 6.11365e-09 0)
(5.01206e-05 -1.1389e-08 0)
(5.01246e-05 4.2937e-10 0)
(5.01251e-05 1.34934e-08 0)
(5.01216e-05 2.71003e-08 0)
(5.0114e-05 4.03882e-08 0)
(5.01026e-05 5.23926e-08 0)
(5.00877e-05 6.22812e-08 0)
(5.00705e-05 6.94766e-08 0)
(5.00518e-05 7.36922e-08 0)
(5.00327e-05 7.49207e-08 0)
(5.0014e-05 7.33738e-08 0)
(4.99965e-05 6.94335e-08 0)
(4.99809e-05 6.35918e-08 0)
(4.99676e-05 5.64149e-08 0)
(4.99568e-05 4.84865e-08 0)
(4.99486e-05 4.03695e-08 0)
(4.99427e-05 3.25422e-08 0)
(4.99389e-05 2.53472e-08 0)
(4.99369e-05 1.89876e-08 0)
(4.99364e-05 1.35478e-08 0)
(4.99369e-05 9.02874e-09 0)
(4.99382e-05 5.37366e-09 0)
(4.99402e-05 2.49443e-09 0)
(4.99425e-05 2.86398e-10 0)
(4.9945e-05 -1.35654e-09 0)
(4.99476e-05 -2.53646e-09 0)
(4.99503e-05 -3.34482e-09 0)
(4.9953e-05 -3.86249e-09 0)
(4.99555e-05 -4.15719e-09 0)
(4.9958e-05 -4.28616e-09 0)
(4.99604e-05 -4.2949e-09 0)
(4.99626e-05 -4.22086e-09 0)
(4.99647e-05 -4.09233e-09 0)
(4.99668e-05 -3.93201e-09 0)
(4.99687e-05 -3.75644e-09 0)
(4.99705e-05 -3.57776e-09 0)
(4.99722e-05 -3.40538e-09 0)
(4.99739e-05 -3.24391e-09 0)
(4.99754e-05 -3.09896e-09 0)
(4.9977e-05 -2.96965e-09 0)
(4.99785e-05 -2.85983e-09 0)
(4.998e-05 -2.76459e-09 0)
(4.99814e-05 -2.68665e-09 0)
(4.99828e-05 -2.61836e-09 0)
(4.99843e-05 -2.5608e-09 0)
(4.99857e-05 -2.50454e-09 0)
(4.99871e-05 -2.44786e-09 0)
(4.99886e-05 -2.38006e-09 0)
(4.999e-05 -2.29527e-09 0)
(4.99914e-05 -2.18136e-09 0)
(4.99929e-05 -2.02743e-09 0)
(4.99943e-05 -1.8193e-09 0)
(4.99957e-05 -1.54115e-09 0)
(4.99971e-05 -1.17664e-09 0)
(4.99984e-05 -7.07163e-10 0)
(4.99997e-05 -1.16501e-10 0)
(5.00008e-05 6.10912e-10 0)
(5.00017e-05 1.48378e-09 0)
(5.00024e-05 2.50264e-09 0)
(5.00028e-05 3.65427e-09 0)
(5.00029e-05 4.90694e-09 0)
(5.00026e-05 6.20403e-09 0)
(5.00019e-05 7.4941e-09 0)
(5.01189e-05 -1.48084e-08 0)
(5.01235e-05 -6.10481e-10 0)
(5.01245e-05 1.5253e-08 0)
(5.01214e-05 3.1907e-08 0)
(5.01139e-05 4.82496e-08 0)
(5.01021e-05 6.29962e-08 0)
(5.00869e-05 7.50646e-08 0)
(5.00692e-05 8.37392e-08 0)
(5.00501e-05 8.86952e-08 0)
(5.00307e-05 8.99652e-08 0)
(5.00118e-05 8.78457e-08 0)
(4.99944e-05 8.283e-08 0)
(4.99789e-05 7.55343e-08 0)
(4.9966e-05 6.66638e-08 0)
(4.99556e-05 5.69424e-08 0)
(4.99479e-05 4.70772e-08 0)
(4.99426e-05 3.7663e-08 0)
(4.99395e-05 2.91049e-08 0)
(4.9938e-05 2.16216e-08 0)
(4.99378e-05 1.52838e-08 0)
(4.99386e-05 1.00663e-08 0)
(4.99401e-05 5.88078e-09 0)
(4.99421e-05 2.60822e-09 0)
(4.99444e-05 1.1563e-10 0)
(4.99469e-05 -1.72703e-09 0)
(4.99494e-05 -3.04183e-09 0)
(4.9952e-05 -3.93613e-09 0)
(4.99545e-05 -4.50357e-09 0)
(4.99569e-05 -4.82165e-09 0)
(4.99592e-05 -4.95542e-09 0)
(4.99614e-05 -4.95609e-09 0)
(4.99635e-05 -4.86572e-09 0)
(4.99655e-05 -4.71579e-09 0)
(4.99674e-05 -4.53159e-09 0)
(4.99692e-05 -4.3314e-09 0)
(4.99709e-05 -4.12864e-09 0)
(4.99726e-05 -3.93367e-09 0)
(4.99741e-05 -3.75147e-09 0)
(4.99757e-05 -3.58831e-09 0)
(4.99771e-05 -3.44298e-09 0)
(4.99786e-05 -3.31992e-09 0)
(4.998e-05 -3.21337e-09 0)
(4.99814e-05 -3.12664e-09 0)
(4.99828e-05 -3.05086e-09 0)
(4.99842e-05 -2.98755e-09 0)
(4.99856e-05 -2.92591e-09 0)
(4.9987e-05 -2.86424e-09 0)
(4.99884e-05 -2.79037e-09 0)
(4.99898e-05 -2.69777e-09 0)
(4.99912e-05 -2.57266e-09 0)
(4.99926e-05 -2.40251e-09 0)
(4.9994e-05 -2.17096e-09 0)
(4.99954e-05 -1.85935e-09 0)
(4.99968e-05 -1.44814e-09 0)
(4.99981e-05 -9.14427e-10 0)
(4.99993e-05 -2.37448e-10 0)
(5.00005e-05 6.03855e-10 0)
(5.00014e-05 1.62348e-09 0)
(5.00022e-05 2.82656e-09 0)
(5.00027e-05 4.20252e-09 0)
(5.00028e-05 5.71728e-09 0)
(5.00026e-05 7.30546e-09 0)
(5.00019e-05 8.90256e-09 0)
(5.01165e-05 -1.87897e-08 0)
(5.01218e-05 -2.09407e-09 0)
(5.01235e-05 1.68035e-08 0)
(5.01208e-05 3.68338e-08 0)
(5.01134e-05 5.6604e-08 0)
(5.01015e-05 7.43902e-08 0)
(5.00858e-05 8.87992e-08 0)
(5.00677e-05 9.8974e-08 0)
(5.00481e-05 1.04577e-07 0)
(5.00284e-05 1.05718e-07 0)
(5.00095e-05 1.02811e-07 0)
(4.99921e-05 9.6485e-08 0)
(4.9977e-05 8.74941e-08 0)
(4.99644e-05 7.67003e-08 0)
(4.99546e-05 6.49816e-08 0)
(4.99476e-05 5.32208e-08 0)
(4.9943e-05 4.21491e-08 0)
(4.99405e-05 3.2229e-08 0)
(4.99395e-05 2.36736e-08 0)
(4.99397e-05 1.65183e-08 0)
(4.99408e-05 1.06947e-08 0)
(4.99424e-05 6.07143e-09 0)
(4.99445e-05 2.4912e-09 0)
(4.99467e-05 -2.11165e-10 0)
(4.99491e-05 -2.19119e-09 0)
(4.99515e-05 -3.59072e-09 0)
(4.99539e-05 -4.53204e-09 0)
(4.99562e-05 -5.12008e-09 0)
(4.99584e-05 -5.44061e-09 0)
(4.99606e-05 -5.56487e-09 0)
(4.99626e-05 -5.54845e-09 0)
(4.99645e-05 -5.43674e-09 0)
(4.99664e-05 -5.26346e-09 0)
(4.99681e-05 -5.05561e-09 0)
(4.99698e-05 -4.83253e-09 0)
(4.99714e-05 -4.60842e-09 0)
(4.99729e-05 -4.39415e-09 0)
(4.99744e-05 -4.19481e-09 0)
(4.99759e-05 -4.01708e-09 0)
(4.99773e-05 -3.85928e-09 0)
(4.99787e-05 -3.72635e-09 0)
(4.998e-05 -3.61167e-09 0)
(4.99814e-05 -3.5191e-09 0)
(4.99827e-05 -3.43864e-09 0)
(4.99841e-05 -3.37228e-09 0)
(4.99854e-05 -3.308e-09 0)
(4.99868e-05 -3.24422e-09 0)
(4.99881e-05 -3.16752e-09 0)
(4.99895e-05 -3.07088e-09 0)
(4.99909e-05 -2.93911e-09 0)
(4.99922e-05 -2.75828e-09 0)
(4.99936e-05 -2.51009e-09 0)
(4.9995e-05 -2.17318e-09 0)
(4.99964e-05 -1.72488e-09 0)
(4.99977e-05 -1.13778e-09 0)
(4.99989e-05 -3.86e-10 0)
(5.00001e-05 5.58093e-10 0)
(5.00011e-05 1.71565e-09 0)
(5.00019e-05 3.09885e-09 0)
(5.00025e-05 4.70304e-09 0)
(5.00028e-05 6.49403e-09 0)
(5.00026e-05 8.39875e-09 0)
(5.0002e-05 1.03317e-08 0)
(5.01132e-05 -2.38606e-08 0)
(5.01193e-05 -4.59392e-09 0)
(5.01217e-05 1.75883e-08 0)
(5.01196e-05 4.14126e-08 0)
(5.01124e-05 6.51384e-08 0)
(5.01002e-05 8.6405e-08 0)
(5.0084e-05 1.03424e-07 0)
(5.00654e-05 1.15203e-07 0)
(5.00455e-05 1.21428e-07 0)
(5.00257e-05 1.22334e-07 0)
(5.00068e-05 1.18487e-07 0)
(4.99897e-05 1.1067e-07 0)
(4.9975e-05 9.97802e-08 0)
(4.9963e-05 8.68485e-08 0)
(4.99539e-05 7.29177e-08 0)
(4.99477e-05 5.90955e-08 0)
(4.99439e-05 4.62862e-08 0)
(4.99421e-05 3.50011e-08 0)
(4.99417e-05 2.5418e-08 0)
(4.99423e-05 1.75109e-08 0)
(4.99436e-05 1.11515e-08 0)
(4.99453e-05 6.15576e-09 0)
(4.99473e-05 2.32286e-09 0)
(4.99495e-05 -5.46273e-10 0)
(4.99517e-05 -2.63222e-09 0)
(4.99539e-05 -4.09526e-09 0)
(4.9956e-05 -5.07074e-09 0)
(4.99581e-05 -5.67312e-09 0)
(4.99601e-05 -5.99469e-09 0)
(4.9962e-05 -6.11154e-09 0)
(4.99638e-05 -6.08243e-09 0)
(4.99656e-05 -5.95524e-09 0)
(4.99672e-05 -5.76513e-09 0)
(4.99688e-05 -5.5404e-09 0)
(4.99704e-05 -5.301e-09 0)
(4.99719e-05 -5.0617e-09 0)
(4.99733e-05 -4.8337e-09 0)
(4.99747e-05 -4.62212e-09 0)
(4.99761e-05 -4.43397e-09 0)
(4.99774e-05 -4.26719e-09 0)
(4.99787e-05 -4.12717e-09 0)
(4.99801e-05 -4.00653e-09 0)
(4.99814e-05 -3.90975e-09 0)
(4.99826e-05 -3.82584e-09 0)
(4.99839e-05 -3.7574e-09 0)
(4.99852e-05 -3.69133e-09 0)
(4.99865e-05 -3.62641e-09 0)
(4.99878e-05 -3.5482e-09 0)
(4.99892e-05 -3.44948e-09 0)
(4.99905e-05 -3.314e-09 0)
(4.99918e-05 -3.12676e-09 0)
(4.99932e-05 -2.86796e-09 0)
(4.99945e-05 -2.51385e-09 0)
(4.99959e-05 -2.03893e-09 0)
(4.99972e-05 -1.41129e-09 0)
(4.99984e-05 -5.99598e-10 0)
(4.99996e-05 4.3142e-10 0)
(5.00007e-05 1.71219e-09 0)
(5.00016e-05 3.26536e-09 0)
(5.00023e-05 5.09756e-09 0)
(5.00026e-05 7.18053e-09 0)
(5.00025e-05 9.44083e-09 0)
(5.0002e-05 1.17765e-08 0)
(5.01085e-05 -2.96589e-08 0)
(5.01155e-05 -7.73213e-09 0)
(5.01189e-05 1.80223e-08 0)
(5.01176e-05 4.61271e-08 0)
(5.01106e-05 7.44276e-08 0)
(5.00981e-05 9.95948e-08 0)
(5.00815e-05 1.19361e-07 0)
(5.00625e-05 1.32655e-07 0)
(5.00425e-05 1.39264e-07 0)
(5.00227e-05 1.39632e-07 0)
(5.00041e-05 1.34532e-07 0)
(4.99875e-05 1.24921e-07 0)
(4.99733e-05 1.11837e-07 0)
(4.9962e-05 9.64911e-08 0)
(4.99537e-05 8.00864e-08 0)
(4.99485e-05 6.40355e-08 0)
(4.99456e-05 4.94635e-08 0)
(4.99445e-05 3.69001e-08 0)
(4.99446e-05 2.64316e-08 0)
(4.99456e-05 1.79309e-08 0)
(4.9947e-05 1.11879e-08 0)
(4.99487e-05 5.9544e-09 0)
(4.99506e-05 1.98096e-09 0)
(4.99526e-05 -9.6595e-10 0)
(4.99545e-05 -3.09009e-09 0)
(4.99564e-05 -4.56707e-09 0)
(4.99583e-05 -5.54214e-09 0)
(4.99601e-05 -6.1361e-09 0)
(4.99618e-05 -6.44512e-09 0)
(4.99635e-05 -6.54775e-09 0)
(4.99651e-05 -6.50412e-09 0)
(4.99667e-05 -6.36303e-09 0)
(4.99682e-05 -6.16001e-09 0)
(4.99696e-05 -5.92368e-09 0)
(4.9971e-05 -5.67402e-09 0)
(4.99724e-05 -5.42584e-09 0)
(4.99737e-05 -5.19035e-09 0)
(4.9975e-05 -4.97247e-09 0)
(4.99763e-05 -4.77939e-09 0)
(4.99776e-05 -4.60858e-09 0)
(4.99788e-05 -4.46584e-09 0)
(4.99801e-05 -4.34311e-09 0)
(4.99813e-05 -4.24544e-09 0)
(4.99826e-05 -4.16102e-09 0)
(4.99838e-05 -4.09304e-09 0)
(4.99851e-05 -4.02761e-09 0)
(4.99863e-05 -3.96387e-09 0)
(4.99876e-05 -3.88668e-09 0)
(4.99888e-05 -3.78878e-09 0)
(4.99901e-05 -3.65319e-09 0)
(4.99914e-05 -3.4642e-09 0)
(4.99927e-05 -3.20087e-09 0)
(4.9994e-05 -2.83753e-09 0)
(4.99953e-05 -2.34622e-09 0)
(4.99966e-05 -1.69088e-09 0)
(4.99978e-05 -8.34659e-10 0)
(4.9999e-05 2.6592e-10 0)
(5.00002e-05 1.65229e-09 0)
(5.00011e-05 3.36072e-09 0)
(5.00019e-05 5.41477e-09 0)
(5.00024e-05 7.79875e-09 0)
(5.00025e-05 1.04477e-08 0)
(5.0002e-05 1.32416e-08 0)
(5.01021e-05 -3.70661e-08 0)
(5.011e-05 -1.25181e-08 0)
(5.01144e-05 1.7078e-08 0)
(5.0114e-05 5.01092e-08 0)
(5.01074e-05 8.39597e-08 0)
(5.00945e-05 1.13723e-07 0)
(5.00776e-05 1.36559e-07 0)
(5.00584e-05 1.51433e-07 0)
(5.00385e-05 1.58325e-07 0)
(5.00193e-05 1.5799e-07 0)
(5.00015e-05 1.51462e-07 0)
(4.99856e-05 1.39871e-07 0)
(4.99724e-05 1.2437e-07 0)
(4.99619e-05 1.06343e-07 0)
(4.99546e-05 8.71261e-08 0)
(4.99504e-05 6.85908e-08 0)
(4.99486e-05 5.21775e-08 0)
(4.99482e-05 3.8383e-08 0)
(4.99488e-05 2.71228e-08 0)
(4.99499e-05 1.81257e-08 0)
(4.99513e-05 1.10848e-08 0)
(4.99528e-05 5.68234e-09 0)
(4.99544e-05 1.61949e-09 0)
(4.9956e-05 -1.36981e-09 0)
(4.99576e-05 -3.50936e-09 0)
(4.99592e-05 -4.98712e-09 0)
(4.99607e-05 -5.95563e-09 0)
(4.99622e-05 -6.53997e-09 0)
(4.99636e-05 -6.83858e-09 0)
(4.9965e-05 -6.93131e-09 0)
(4.99664e-05 -6.8787e-09 0)
(4.99677e-05 -6.72988e-09 0)
(4.9969e-05 -6.52025e-09 0)
(4.99703e-05 -6.27847e-09 0)
(4.99716e-05 -6.02428e-09 0)
(4.99728e-05 -5.77243e-09 0)
(4.9974e-05 -5.53401e-09 0)
(4.99753e-05 -5.31376e-09 0)
(4.99765e-05 -5.11895e-09 0)
(4.99777e-05 -4.94668e-09 0)
(4.99789e-05 -4.80314e-09 0)
(4.99801e-05 -4.67965e-09 0)
(4.99813e-05 -4.58189e-09 0)
(4.99824e-05 -4.49736e-09 0)
(4.99836e-05 -4.42991e-09 0)
(4.99848e-05 -4.36503e-09 0)
(4.9986e-05 -4.30242e-09 0)
(4.99872e-05 -4.22647e-09 0)
(4.99885e-05 -4.13017e-09 0)
(4.99897e-05 -3.99626e-09 0)
(4.99909e-05 -3.80869e-09 0)
(4.99922e-05 -3.54605e-09 0)
(4.99934e-05 -3.18137e-09 0)
(4.99946e-05 -2.68506e-09 0)
(4.99959e-05 -2.01761e-09 0)
(4.99971e-05 -1.13722e-09 0)
(4.99983e-05 7.83206e-12 0)
(4.99995e-05 1.47138e-09 0)
(5.00005e-05 3.30685e-09 0)
(5.00014e-05 5.56285e-09 0)
(5.00021e-05 8.24831e-09 0)
(5.00023e-05 1.13267e-08 0)
(5.0002e-05 1.46785e-08 0)
(5.00934e-05 -4.52028e-08 0)
(5.0102e-05 -1.81091e-08 0)
(5.01076e-05 1.55308e-08 0)
(5.01085e-05 5.41349e-08 0)
(5.01023e-05 9.46151e-08 0)
(5.00891e-05 1.29443e-07 0)
(5.00721e-05 1.55254e-07 0)
(5.00532e-05 1.71339e-07 0)
(5.00341e-05 1.78016e-07 0)
(5.00159e-05 1.76517e-07 0)
(4.99994e-05 1.68207e-07 0)
(4.99848e-05 1.5437e-07 0)
(4.99726e-05 1.3622e-07 0)
(4.99632e-05 1.15293e-07 0)
(4.99569e-05 9.2951e-08 0)
(4.99538e-05 7.1782e-08 0)
(4.99529e-05 5.36551e-08 0)
(4.99531e-05 3.89042e-08 0)
(4.99539e-05 2.71397e-08 0)
(4.9955e-05 1.78955e-08 0)
(4.99562e-05 1.07576e-08 0)
(4.99574e-05 5.33849e-09 0)
(4.99586e-05 1.2947e-09 0)
(4.99598e-05 -1.6643e-09 0)
(4.99609e-05 -3.77409e-09 0)
(4.99621e-05 -5.22772e-09 0)
(4.99632e-05 -6.17925e-09 0)
(4.99643e-05 -6.75353e-09 0)
(4.99655e-05 -7.0479e-09 0)
(4.99666e-05 -7.14092e-09 0)
(4.99677e-05 -7.09184e-09 0)
(4.99688e-05 -6.94877e-09 0)
(4.99699e-05 -6.74614e-09 0)
(4.9971e-05 -6.51202e-09 0)
(4.99721e-05 -6.26557e-09 0)
(4.99733e-05 -6.02124e-09 0)
(4.99744e-05 -5.78988e-09 0)
(4.99755e-05 -5.57601e-09 0)
(4.99766e-05 -5.38699e-09 0)
(4.99778e-05 -5.21964e-09 0)
(4.99789e-05 -5.08052e-09 0)
(4.99801e-05 -4.96058e-09 0)
(4.99812e-05 -4.86604e-09 0)
(4.99824e-05 -4.78398e-09 0)
(4.99835e-05 -4.7189e-09 0)
(4.99847e-05 -4.6559e-09 0)
(4.99858e-05 -4.59524e-09 0)
(4.9987e-05 -4.52116e-09 0)
(4.99881e-05 -4.42699e-09 0)
(4.99893e-05 -4.29549e-09 0)
(4.99904e-05 -4.11067e-09 0)
(4.99916e-05 -3.85107e-09 0)
(4.99928e-05 -3.48912e-09 0)
(4.99939e-05 -2.99435e-09 0)
(4.99951e-05 -2.3249e-09 0)
(4.99963e-05 -1.43516e-09 0)
(4.99974e-05 -2.66266e-10 0)
(4.99986e-05 1.24755e-09 0)
(4.99997e-05 3.17815e-09 0)
(5.00007e-05 5.60446e-09 0)
(5.00015e-05 8.5714e-09 0)
(5.00019e-05 1.20952e-08 0)
(5.00019e-05 1.60822e-08 0)
(5.0082e-05 -5.54506e-08 0)
(5.00907e-05 -2.61579e-08 0)
(5.00971e-05 1.16102e-08 0)
(5.00994e-05 5.6758e-08 0)
(5.00938e-05 1.0586e-07 0)
(5.00803e-05 1.4669e-07 0)
(5.00638e-05 1.75654e-07 0)
(5.00462e-05 1.92851e-07 0)
(5.00289e-05 1.99048e-07 0)
(5.00128e-05 1.96159e-07 0)
(4.99984e-05 1.85942e-07 0)
(4.99857e-05 1.69756e-07 0)
(4.99752e-05 1.48794e-07 0)
(4.99669e-05 1.24687e-07 0)
(4.99616e-05 9.85935e-08 0)
(4.99597e-05 7.43708e-08 0)
(4.99596e-05 5.45282e-08 0)
(4.99601e-05 3.89921e-08 0)
(4.99607e-05 2.68808e-08 0)
(4.99613e-05 1.75011e-08 0)
(4.99619e-05 1.03439e-08 0)
(4.99625e-05 4.9601e-09 0)
(4.99631e-05 9.67655e-10 0)
(4.99637e-05 -1.94244e-09 0)
(4.99643e-05 -4.0127e-09 0)
(4.99649e-05 -5.43804e-09 0)
(4.99656e-05 -6.37197e-09 0)
(4.99663e-05 -6.9377e-09 0)
(4.99671e-05 -7.23057e-09 0)
(4.99679e-05 -7.3273e-09 0)
(4.99688e-05 -7.28543e-09 0)
(4.99696e-05 -7.1518e-09 0)
(4.99706e-05 -6.9597e-09 0)
(4.99715e-05 -6.73652e-09 0)
(4.99725e-05 -6.50073e-09 0)
(4.99736e-05 -6.26648e-09 0)
(4.99746e-05 -6.0443e-09 0)
(4.99757e-05 -5.83854e-09 0)
(4.99767e-05 -5.65656e-09 0)
(4.99778e-05 -5.49501e-09 0)
(4.99789e-05 -5.36071e-09 0)
(4.998e-05 -5.24437e-09 0)
(4.99811e-05 -5.15269e-09 0)
(4.99822e-05 -5.07246e-09 0)
(4.99833e-05 -5.00877e-09 0)
(4.99844e-05 -4.94654e-09 0)
(4.99855e-05 -4.88663e-09 0)
(4.99866e-05 -4.81332e-09 0)
(4.99877e-05 -4.72047e-09 0)
(4.99888e-05 -4.59123e-09 0)
(4.99899e-05 -4.41003e-09 0)
(4.9991e-05 -4.15604e-09 0)
(4.99921e-05 -3.80187e-09 0)
(4.99932e-05 -3.31737e-09 0)
(4.99942e-05 -2.65987e-09 0)
(4.99953e-05 -1.78188e-09 0)
(4.99964e-05 -6.19648e-10 0)
(4.99975e-05 9.02648e-10 0)
(4.99986e-05 2.87518e-09 0)
(4.99996e-05 5.41286e-09 0)
(5.00006e-05 8.61197e-09 0)
(5.00013e-05 1.25829e-08 0)
(5.00016e-05 1.73216e-08 0)
(5.00667e-05 -6.57623e-08 0)
(5.00747e-05 -3.47675e-08 0)
(5.00813e-05 6.73392e-09 0)
(5.00852e-05 5.90306e-08 0)
(5.00804e-05 1.1873e-07 0)
(5.00671e-05 1.65557e-07 0)
(5.00525e-05 1.96868e-07 0)
(5.00375e-05 2.14362e-07 0)
(5.00233e-05 2.19266e-07 0)
(5.00106e-05 2.14491e-07 0)
(4.99993e-05 2.02215e-07 0)
(4.99892e-05 1.83729e-07 0)
(4.99807e-05 1.60103e-07 0)
(4.99737e-05 1.32949e-07 0)
(4.99693e-05 1.02704e-07 0)
(4.99684e-05 7.53839e-08 0)
(4.99686e-05 5.43114e-08 0)
(4.99687e-05 3.85495e-08 0)
(4.99687e-05 2.64976e-08 0)
(4.99685e-05 1.72423e-08 0)
(4.99683e-05 1.02213e-08 0)
(4.9968e-05 4.95345e-09 0)
(4.99678e-05 1.04183e-09 0)
(4.99677e-05 -1.82179e-09 0)
(4.99677e-05 -3.87334e-09 0)
(4.99678e-05 -5.30088e-09 0)
(4.99679e-05 -6.2518e-09 0)
(4.99683e-05 -6.84432e-09 0)
(4.99687e-05 -7.16977e-09 0)
(4.99692e-05 -7.30189e-09 0)
(4.99698e-05 -7.29601e-09 0)
(4.99705e-05 -7.19746e-09 0)
(4.99712e-05 -7.03846e-09 0)
(4.99721e-05 -6.84575e-09 0)
(4.99729e-05 -6.63743e-09 0)
(4.99738e-05 -6.42747e-09 0)
(4.99748e-05 -6.22639e-09 0)
(4.99758e-05 -6.03859e-09 0)
(4.99768e-05 -5.87164e-09 0)
(4.99779e-05 -5.72226e-09 0)
(4.99789e-05 -5.59763e-09 0)
(4.998e-05 -5.48849e-09 0)
(4.9981e-05 -5.402e-09 0)
(4.99821e-05 -5.32496e-09 0)
(4.99832e-05 -5.26292e-09 0)
(4.99843e-05 -5.2009e-09 0)
(4.99853e-05 -5.14021e-09 0)
(4.99864e-05 -5.06539e-09 0)
(4.99874e-05 -4.97078e-09 0)
(4.99884e-05 -4.84002e-09 0)
(4.99894e-05 -4.65812e-09 0)
(4.99904e-05 -4.40505e-09 0)
(4.99914e-05 -4.05413e-09 0)
(4.99924e-05 -3.57617e-09 0)
(4.99933e-05 -2.929e-09 0)
(4.99943e-05 -2.06537e-09 0)
(4.99952e-05 -9.19768e-10 0)
(4.99962e-05 5.88251e-10 0)
(4.99971e-05 2.56156e-09 0)
(4.99981e-05 5.14184e-09 0)
(4.99992e-05 8.48059e-09 0)
(5.00001e-05 1.28021e-08 0)
(5.00009e-05 1.82899e-08 0)
(5.00477e-05 -7.80901e-08 0)
(5.00528e-05 -4.62526e-08 0)
(5.00577e-05 -1.73655e-09 0)
(5.00621e-05 5.89375e-08 0)
(5.00582e-05 1.33476e-07 0)
(5.00467e-05 1.86584e-07 0)
(5.00367e-05 2.19796e-07 0)
(5.00269e-05 2.37333e-07 0)
(5.00181e-05 2.40453e-07 0)
(5.00107e-05 2.33598e-07 0)
(5.00038e-05 2.19327e-07 0)
(4.99974e-05 1.9862e-07 0)
(4.99917e-05 1.72383e-07 0)
(4.99861e-05 1.42092e-07 0)
(4.99825e-05 1.06396e-07 0)
(4.99816e-05 7.5456e-08 0)
(4.9981e-05 5.34893e-08 0)
(4.99796e-05 3.78417e-08 0)
(4.9978e-05 2.59934e-08 0)
(4.99764e-05 1.69201e-08 0)
(4.99748e-05 1.00667e-08 0)
(4.99735e-05 4.93133e-09 0)
(4.99723e-05 1.10738e-09 0)
(4.99713e-05 -1.70761e-09 0)
(4.99706e-05 -3.7401e-09 0)
(4.99701e-05 -5.1701e-09 0)
(4.99698e-05 -6.1385e-09 0)
(4.99697e-05 -6.75829e-09 0)
(4.99698e-05 -7.11673e-09 0)
(4.99701e-05 -7.28454e-09 0)
(4.99704e-05 -7.31484e-09 0)
(4.9971e-05 -7.25146e-09 0)
(4.99716e-05 -7.12556e-09 0)
(4.99723e-05 -6.96327e-09 0)
(4.99731e-05 -6.78227e-09 0)
(4.99739e-05 -6.59639e-09 0)
(4.99748e-05 -6.41611e-09 0)
(4.99758e-05 -6.2459e-09 0)
(4.99768e-05 -6.09347e-09 0)
(4.99778e-05 -5.95569e-09 0)
(4.99788e-05 -5.83998e-09 0)
(4.99799e-05 -5.73722e-09 0)
(4.99809e-05 -5.65488e-09 0)
(4.9982e-05 -5.57989e-09 0)
(4.9983e-05 -5.51816e-09 0)
(4.99841e-05 -5.45489e-09 0)
(4.99851e-05 -5.39179e-09 0)
(4.99861e-05 -5.31376e-09 0)
(4.99871e-05 -5.21562e-09 0)
(4.99881e-05 -5.08168e-09 0)
(4.9989e-05 -4.89769e-09 0)
(4.99899e-05 -4.64471e-09 0)
(4.99908e-05 -4.29733e-09 0)
(4.99916e-05 -3.82814e-09 0)
(4.99924e-05 -3.19689e-09 0)
(4.99932e-05 -2.35894e-09 0)
(4.99939e-05 -1.25063e-09 0)
(4.99947e-05 2.06986e-10 0)
(4.99954e-05 2.12182e-09 0)
(4.99962e-05 4.65232e-09 0)
(4.99971e-05 7.99955e-09 0)
(4.9998e-05 1.25347e-08 0)
(4.99994e-05 1.87166e-08 0)
(5.00241e-05 -8.78178e-08 0)
(5.00228e-05 -5.60616e-08 0)
(5.0022e-05 -1.05822e-08 0)
(5.0023e-05 5.77376e-08 0)
(5.00216e-05 1.49755e-07 0)
(5.00168e-05 2.06621e-07 0)
(5.00159e-05 2.39992e-07 0)
(5.00151e-05 2.56819e-07 0)
(5.00144e-05 2.57528e-07 0)
(5.00139e-05 2.48715e-07 0)
(5.00129e-05 2.32993e-07 0)
(5.00113e-05 2.10753e-07 0)
(5.00094e-05 1.82878e-07 0)
(5.00063e-05 1.50575e-07 0)
(5.00031e-05 1.09048e-07 0)
(5.00002e-05 7.50282e-08 0)
(4.99964e-05 5.31412e-08 0)
(4.99924e-05 3.81464e-08 0)
(4.99885e-05 2.66528e-08 0)
(4.99848e-05 1.77256e-08 0)
(4.99816e-05 1.09253e-08 0)
(4.99789e-05 5.78376e-09 0)
(4.99766e-05 1.91078e-09 0)
(4.99747e-05 -9.79776e-10 0)
(4.99733e-05 -3.10145e-09 0)
(4.99722e-05 -4.62608e-09 0)
(4.99714e-05 -5.68929e-09 0)
(4.99709e-05 -6.40071e-09 0)
(4.99707e-05 -6.84535e-09 0)
(4.99707e-05 -7.09261e-09 0)
(4.99709e-05 -7.19494e-09 0)
(4.99713e-05 -7.19588e-09 0)
(4.99718e-05 -7.12675e-09 0)
(4.99724e-05 -7.01383e-09 0)
(4.99732e-05 -6.87534e-09 0)
(4.9974e-05 -6.72548e-09 0)
(4.99748e-05 -6.5753e-09 0)
(4.99758e-05 -6.42976e-09 0)
(4.99767e-05 -6.29705e-09 0)
(4.99777e-05 -6.17457e-09 0)
(4.99788e-05 -6.07001e-09 0)
(4.99798e-05 -5.97483e-09 0)
(4.99808e-05 -5.89658e-09 0)
(4.99819e-05 -5.82276e-09 0)
(4.99829e-05 -5.75925e-09 0)
(4.99839e-05 -5.69175e-09 0)
(4.99849e-05 -5.622e-09 0)
(4.99859e-05 -5.53531e-09 0)
(4.99869e-05 -5.4267e-09 0)
(4.99878e-05 -5.28089e-09 0)
(4.99886e-05 -5.08411e-09 0)
(4.99894e-05 -4.81807e-09 0)
(4.99902e-05 -4.45831e-09 0)
(4.99909e-05 -3.97867e-09 0)
(4.99915e-05 -3.34063e-09 0)
(4.99921e-05 -2.50253e-09 0)
(4.99926e-05 -1.40346e-09 0)
(4.9993e-05 2.69578e-11 0)
(4.99934e-05 1.89489e-09 0)
(4.99937e-05 4.32865e-09 0)
(4.99942e-05 7.55798e-09 0)
(4.99946e-05 1.18854e-08 0)
(4.99962e-05 1.82043e-08 0)
(5.01234e-05 -1.08962e-09 0)
(5.01261e-05 2.74829e-10 0)
(5.01254e-05 1.75084e-09 0)
(5.01213e-05 3.26465e-09 0)
(5.01136e-05 4.73024e-09 0)
(5.01027e-05 6.05734e-09 0)
(5.00888e-05 7.16531e-09 0)
(5.00728e-05 7.99348e-09 0)
(5.00553e-05 8.50664e-09 0)
(5.00371e-05 8.69679e-09 0)
(5.00191e-05 8.57983e-09 0)
(5.00019e-05 8.19174e-09 0)
(4.99861e-05 7.58253e-09 0)
(4.99722e-05 6.81117e-09 0)
(4.99605e-05 5.93949e-09 0)
(4.9951e-05 5.0269e-09 0)
(4.99438e-05 4.12545e-09 0)
(4.99386e-05 3.27575e-09 0)
(4.99354e-05 2.50587e-09 0)
(4.99338e-05 1.83159e-09 0)
(4.99335e-05 1.25889e-09 0)
(4.99342e-05 7.8595e-10 0)
(4.99358e-05 4.06028e-10 0)
(4.99379e-05 1.09147e-10 0)
(4.99405e-05 -1.15912e-10 0)
(4.99433e-05 -2.8075e-10 0)
(4.99462e-05 -3.96273e-10 0)
(4.99492e-05 -4.72506e-10 0)
(4.99521e-05 -5.18098e-10 0)
(4.99549e-05 -5.40536e-10 0)
(4.99576e-05 -5.45902e-10 0)
(4.99602e-05 -5.39266e-10 0)
(4.99627e-05 -5.24545e-10 0)
(4.9965e-05 -5.04888e-10 0)
(4.99672e-05 -4.82647e-10 0)
(4.99693e-05 -4.5955e-10 0)
(4.99712e-05 -4.36955e-10 0)
(4.99731e-05 -4.15563e-10 0)
(4.99749e-05 -3.96173e-10 0)
(4.99766e-05 -3.78739e-10 0)
(4.99782e-05 -3.63769e-10 0)
(4.99798e-05 -3.50677e-10 0)
(4.99814e-05 -3.39778e-10 0)
(4.9983e-05 -3.30111e-10 0)
(4.99845e-05 -3.21752e-10 0)
(4.9986e-05 -3.1349e-10 0)
(4.99876e-05 -3.05032e-10 0)
(4.99891e-05 -2.94984e-10 0)
(4.99906e-05 -2.82543e-10 0)
(4.99921e-05 -2.66135e-10 0)
(4.99936e-05 -2.44377e-10 0)
(4.99951e-05 -2.155e-10 0)
(4.99965e-05 -1.77641e-10 0)
(4.99979e-05 -1.2894e-10 0)
(4.99992e-05 -6.7438e-11 0)
(5.00004e-05 8.38106e-12 0)
(5.00013e-05 9.97381e-11 0)
(5.00021e-05 2.06855e-10 0)
(5.00027e-05 3.28899e-10 0)
(5.00029e-05 4.63437e-10 0)
(5.00029e-05 6.06349e-10 0)
(5.00025e-05 7.51144e-10 0)
(5.00018e-05 8.93381e-10 0)
(5.01179e-05 -5.29432e-09 0)
(5.01173e-05 -8.78871e-09 0)
(5.01166e-05 -1.25515e-08 0)
(5.01154e-05 -1.67204e-08 0)
(5.01138e-05 -2.13068e-08 0)
(5.01115e-05 -2.65792e-08 0)
(5.01085e-05 -3.2431e-08 0)
(5.01045e-05 -3.93111e-08 0)
(5.00992e-05 -4.68663e-08 0)
(5.00924e-05 -5.58061e-08 0)
(5.00835e-05 -6.52625e-08 0)
(5.00725e-05 -7.63119e-08 0)
(5.00588e-05 -8.70032e-08 0)
(5.00431e-05 -9.89363e-08 0)
(5.00254e-05 -1.08107e-07 0)
(5.0118e-05 -2.26387e-09 0)
(5.01102e-05 -7.60249e-09 0)
(5.01094e-05 -1.25449e-08 0)
(5.01084e-05 -1.77718e-08 0)
(5.01069e-05 -2.33956e-08 0)