/*--------------------------------*- C++ -*----------------------------------*\
| =========                 |                                                 |
| \\      /  F ield         | foam-extend: Open Source CFD                    |
|  \\    /   O peration     | Version:     4.1-20200408                       |
|   \\  /    A nd           | Web:         http://www.foam-extend.org         |
|    \\/     M anipulation  |                                                 |
\*---------------------------------------------------------------------------*/
FoamFile
{
    version     2.0;
    format      ascii;
    class       volScalarField;
    location    "0.0030000";
    object      sigmaCauchyEq;
}
// * * * * * * * * * * * * * * * * * * * * * * * * * * * * * * * * * * * * * //

dimensions      [1 -1 -2 0 0 0 0];

internalField   nonuniform List<scalar> 
1952
(
1.17494e+09
1.16235e+09
1.1331e+09
1.08722e+09
1.02685e+09
9.53872e+08
8.7215e+08
7.8482e+08
6.95973e+08
6.0885e+08
5.26598e+08
4.51633e+08
3.85615e+08
3.29679e+08
2.83995e+08
2.4846e+08
2.22163e+08
2.04214e+08
1.93242e+08
1.88121e+08
1.87548e+08
1.90544e+08
1.96116e+08
2.03552e+08
2.12192e+08
2.21566e+08
2.31283e+08
2.41062e+08
2.50702e+08
2.60059e+08
2.69055e+08
2.77634e+08
2.85787e+08
2.93518e+08
3.00842e+08
3.07811e+08
3.14431e+08
3.2079e+08
3.26872e+08
3.32791e+08
3.38501e+08
3.44133e+08
3.49616e+08
3.55077e+08
3.6043e+08
3.65778e+08
3.71031e+08
3.76241e+08
3.81322e+08
3.86255e+08
3.90955e+08
3.95324e+08
3.9926e+08
4.02593e+08
4.05198e+08
4.06851e+08
4.07414e+08
4.06658e+08
4.04481e+08
4.00725e+08
3.9542e+08
3.88509e+08
3.80421e+08
1.17554e+09
1.1635e+09
1.13454e+09
1.08863e+09
1.02796e+09
9.54445e+08
8.72045e+08
7.83984e+08
6.94407e+08
6.06643e+08
5.23868e+08
4.48571e+08
3.82442e+08
3.26669e+08
2.81427e+08
2.46596e+08
2.21192e+08
2.04218e+08
1.94182e+08
1.8986e+08
1.89888e+08
1.93276e+08
1.99051e+08
2.06537e+08
2.15112e+08
2.24343e+08
2.33866e+08
2.43424e+08
2.52833e+08
2.61958e+08
2.7073e+08
2.79096e+08
2.87052e+08
2.94602e+08
3.01762e+08
3.08581e+08
3.15067e+08
3.21306e+08
3.27279e+08
3.33101e+08
3.38723e+08
3.44276e+08
3.49686e+08
3.55081e+08
3.60375e+08
3.6567e+08
3.70877e+08
3.76048e+08
3.81101e+08
3.86017e+08
3.90711e+08
3.9509e+08
3.99052e+08
4.02429e+08
4.05094e+08
4.06821e+08
4.07466e+08
4.06793e+08
4.04689e+08
4.00984e+08
3.957e+08
3.88773e+08
3.80638e+08
1.17706e+09
1.1658e+09
1.13726e+09
1.09129e+09
1.03017e+09
9.5589e+08
8.72532e+08
7.83469e+08
6.92897e+08
6.04273e+08
5.2079e+08
4.45044e+08
3.7876e+08
3.23201e+08
2.78555e+08
2.44669e+08
2.20453e+08
2.04751e+08
1.95907e+08
1.92566e+08
1.933e+08
1.97112e+08
2.03065e+08
2.10533e+08
2.1895e+08
2.27929e+08
2.37146e+08
2.46372e+08
2.55445e+08
2.64242e+08
2.72703e+08
2.80784e+08
2.88478e+08
2.95794e+08
3.02744e+08
3.09378e+08
3.157e+08
3.21794e+08
3.27639e+08
3.33347e+08
3.38869e+08
3.4433e+08
3.49659e+08
3.5498e+08
3.60209e+08
3.65445e+08
3.70603e+08
3.75734e+08
3.80758e+08
3.85658e+08
3.90355e+08
3.94755e+08
3.9876e+08
4.02203e+08
4.04957e+08
4.06792e+08
4.07557e+08
4.07005e+08
4.05007e+08
4.01376e+08
3.96117e+08
3.89155e+08
3.80939e+08
1.17817e+09
1.16801e+09
1.14007e+09
1.09401e+09
1.03227e+09
9.5692e+08
8.7225e+08
7.81816e+08
6.89906e+08
6.00128e+08
5.15723e+08
4.39418e+08
3.73009e+08
3.17871e+08
2.7421e+08
2.41812e+08
2.19396e+08
2.05561e+08
1.98406e+08
1.96414e+08
1.98095e+08
2.02467e+08
2.0865e+08
2.16096e+08
2.24308e+08
2.32962e+08
2.41783e+08
2.50578e+08
2.5921e+08
2.67575e+08
2.75627e+08
2.83323e+08
2.90666e+08
2.97661e+08
3.04322e+08
3.10696e+08
3.16787e+08
3.22672e+08
3.28332e+08
3.33872e+08
3.39243e+08
3.44566e+08
3.4977e+08
3.54976e+08
3.60101e+08
3.65242e+08
3.70317e+08
3.75377e+08
3.80346e+08
3.8521e+08
3.89893e+08
3.94306e+08
3.98357e+08
4.01877e+08
4.04742e+08
4.06718e+08
4.07646e+08
4.07262e+08
4.05418e+08
4.01899e+08
3.96688e+08
3.89687e+08
3.81352e+08
1.17968e+09
1.17101e+09
1.1439e+09
1.09779e+09
1.03527e+09
9.5861e+08
8.72304e+08
7.80208e+08
6.86675e+08
5.95523e+08
5.10024e+08
4.33081e+08
3.66588e+08
3.12067e+08
2.69749e+08
2.39287e+08
2.19118e+08
2.07488e+08
2.02221e+08
2.01642e+08
2.04241e+08
2.09083e+08
2.15382e+08
2.22674e+08
2.3055e+08
2.3875e+08
2.47052e+08
2.55301e+08
2.63389e+08
2.7123e+08
2.78789e+08
2.86031e+08
2.9296e+08
2.99582e+08
3.05911e+08
3.11989e+08
3.17818e+08
3.23471e+08
3.28926e+08
3.34281e+08
3.39488e+08
3.44662e+08
3.49731e+08
3.54812e+08
3.59825e+08
3.64862e+08
3.69847e+08
3.7483e+08
3.79738e+08
3.84563e+08
3.89232e+08
3.93663e+08
3.97767e+08
4.01384e+08
4.04389e+08
4.06545e+08
4.07683e+08
4.07523e+08
4.05888e+08
4.02529e+08
3.9739e+08
3.90347e+08
3.8187e+08
1.18016e+09
1.17331e+09
1.14725e+09
1.10103e+09
1.03751e+09
9.59232e+08
8.71005e+08
7.77015e+08
6.81709e+08
5.89102e+08
5.02505e+08
4.25009e+08
3.58653e+08
3.05162e+08
2.64789e+08
2.36963e+08
2.19677e+08
2.10724e+08
2.07617e+08
2.08565e+08
2.12085e+08
2.17339e+08
2.23657e+08
2.30685e+08
2.38104e+08
2.4573e+08
2.53395e+08
2.60988e+08
2.68427e+08
2.75648e+08
2.82626e+08
2.89335e+08
2.9578e+08
3.01967e+08
3.07908e+08
3.1364e+08
3.19163e+08
3.24543e+08
3.29756e+08
3.34893e+08
3.39904e+08
3.44897e+08
3.49803e+08
3.54731e+08
3.59603e+08
3.6451e+08
3.69376e+08
3.74253e+08
3.79075e+08
3.83834e+08
3.88468e+08
3.92899e+08
3.97049e+08
4.00761e+08
4.03916e+08
4.06277e+08
4.07665e+08
4.07782e+08
4.06415e+08
4.03271e+08
3.98246e+08
3.91158e+08
3.82485e+08
1.17992e+09
1.17548e+09
1.15085e+09
1.10462e+09
1.03991e+09
9.59746e+08
8.69291e+08
7.73194e+08
6.75945e+08
5.81783e+08
4.94051e+08
4.1606e+08
3.50067e+08
2.98059e+08
2.60297e+08
2.3577e+08
2.21836e+08
2.15729e+08
2.14721e+08
2.16995e+08
2.21193e+08
2.26618e+08
2.32748e+08
2.39335e+08
2.46158e+08
2.53095e+08
2.60035e+08
2.66897e+08
2.73629e+08
2.80181e+08
2.8654e+08
2.92682e+08
2.98616e+08
3.04344e+08
3.09878e+08
3.15248e+08
3.20452e+08
3.25547e+08
3.30508e+08
3.35418e+08
3.40225e+08
3.4503e+08
3.49762e+08
3.54526e+08
3.59247e+08
3.64009e+08
3.68743e+08
3.73499e+08
3.78217e+08
3.82894e+08
3.87475e+08
3.91893e+08
3.96077e+08
3.99883e+08
4.03198e+08
4.05789e+08
4.07473e+08
4.0793e+08
4.06914e+08
4.0407e+08
3.99225e+08
3.92119e+08
3.83227e+08
1.17714e+09
1.1755e+09
1.15258e+09
1.10627e+09
1.0401e+09
9.57826e+08
8.65091e+08
7.67021e+08
6.68125e+08
5.72783e+08
4.84333e+08
4.06295e+08
3.41215e+08
2.91458e+08
2.57231e+08
2.3682e+08
2.26696e+08
2.23543e+08
2.24494e+08
2.27845e+08
2.32433e+08
2.37746e+08
2.43421e+08
2.4933e+08
2.55344e+08
2.61408e+08
2.67459e+08
2.73453e+08
2.7936e+08
2.85146e+08
2.90802e+08
2.96311e+08
3.01678e+08
3.06904e+08
3.11996e+08
3.16976e+08
3.21837e+08
3.26629e+08
3.31323e+08
3.35992e+08
3.40584e+08
3.45187e+08
3.49736e+08
3.54324e+08
3.58878e+08
3.6348e+08
3.68063e+08
3.72676e+08
3.77265e+08
3.81832e+08
3.86331e+08
3.90705e+08
3.94897e+08
3.98776e+08
4.0224e+08
4.05069e+08
4.07075e+08
4.07928e+08
4.0734e+08
4.04892e+08
4.00314e+08
3.93218e+08
3.84051e+08
1.1716e+09
1.17361e+09
1.15301e+09
1.10672e+09
1.03874e+09
9.5404e+08
8.58831e+08
7.58829e+08
6.58481e+08
5.6225e+08
4.7346e+08
3.95819e+08
3.32282e+08
2.85684e+08
2.56019e+08
2.40356e+08
2.3411e+08
2.33549e+08
2.35947e+08
2.39853e+08
2.44397e+08
2.49262e+08
2.54249e+08
2.59323e+08
2.64435e+08
2.69575e+08
2.74719e+08
2.79844e+08
2.84937e+08
2.89972e+08
2.94946e+08
2.9984e+08
3.0466e+08
3.094e+08
3.14064e+08
3.18666e+08
3.23196e+08
3.27692e+08
3.32125e+08
3.36556e+08
3.40934e+08
3.45334e+08
3.49693e+08
3.54096e+08
3.58473e+08
3.62898e+08
3.6731e+08
3.71754e+08
3.76185e+08
3.80606e+08
3.84984e+08
3.89272e+08
3.93426e+08
3.97336e+08
4.00918e+08
4.0397e+08
4.06315e+08
4.07619e+08
4.07563e+08
4.05648e+08
4.0149e+08
3.94501e+08
3.85051e+08
1.16011e+09
1.16617e+09
1.14828e+09
1.1019e+09
1.03187e+09
9.44922e+08
8.47948e+08
7.47112e+08
6.46656e+08
5.50899e+08
4.63043e+08
3.86922e+08
3.25968e+08
2.83747e+08
2.59733e+08
2.49247e+08
2.46593e+08
2.47983e+08
2.51083e+08
2.54844e+08
2.58716e+08
2.62599e+08
2.66447e+08
2.70317e+08
2.74226e+08
2.78203e+08
2.82251e+08
2.86364e+08
2.90535e+08
2.94741e+08
2.98977e+08
3.03222e+08
3.07472e+08
3.11718e+08
3.15951e+08
3.2018e+08
3.24386e+08
3.28598e+08
3.32782e+08
3.36986e+08
3.41162e+08
3.4537e+08
3.49551e+08
3.53774e+08
3.57978e+08
3.62225e+08
3.66459e+08
3.70722e+08
3.74973e+08
3.79221e+08
3.83439e+08
3.87595e+08
3.91659e+08
3.95545e+08
3.99188e+08
4.02417e+08
4.05077e+08
4.06848e+08
4.07398e+08
4.06155e+08
4.02603e+08
3.95863e+08
3.86125e+08
1.14167e+09
1.15292e+09
1.13862e+09
1.09211e+09
1.01936e+09
9.29996e+08
8.317e+08
7.30942e+08
6.31653e+08
5.37759e+08
4.52304e+08
3.79032e+08
3.21902e+08
2.85336e+08
2.67763e+08
2.62136e+08
2.62084e+08
2.64309e+08
2.67192e+08
2.70125e+08
2.72877e+08
2.75503e+08
2.78072e+08
2.80686e+08
2.83401e+08
2.86259e+08
2.89276e+08
2.92448e+08
2.9577e+08
2.99219e+08
3.02784e+08
3.06439e+08
3.10173e+08
3.13969e+08
3.17812e+08
3.217e+08
3.25611e+08
3.29561e+08
3.33514e+08
3.37507e+08
3.41491e+08
3.45512e+08
3.49512e+08
3.53551e+08
3.57572e+08
3.61625e+08
3.6566e+08
3.69711e+08
3.73744e+08
3.77769e+08
3.81767e+08
3.85717e+08
3.89603e+08
3.93363e+08
3.96963e+08
4.00272e+08
4.03176e+08
4.05394e+08
4.06621e+08
4.06233e+08
4.03584e+08
3.97388e+08
3.87476e+08
1.10984e+09
1.12626e+09
1.11601e+09
1.06931e+09
9.9438e+08
9.04451e+08
8.07768e+08
7.10499e+08
6.15892e+08
5.27159e+08
4.46946e+08
3.78693e+08
3.26779e+08
2.96956e+08
2.85877e+08
2.83872e+08
2.84619e+08
2.85953e+08
2.87135e+08
2.88032e+08
2.88698e+08
2.89321e+08
2.90046e+08
2.9099e+08
2.92216e+08
2.93757e+08
2.95618e+08
2.97783e+08
3.0023e+08
3.02927e+08
3.05845e+08
3.08951e+08
3.12217e+08
3.15618e+08
3.19127e+08
3.22731e+08
3.26401e+08
3.30141e+08
3.33912e+08
3.37737e+08
3.41569e+08
3.45438e+08
3.49297e+08
3.53183e+08
3.57046e+08
3.60922e+08
3.64768e+08
3.68608e+08
3.72415e+08
3.76194e+08
3.79933e+08
3.83618e+08
3.87244e+08
3.90775e+08
3.94199e+08
3.97435e+08
4.0042e+08
4.02946e+08
4.04786e+08
4.0533e+08
4.03907e+08
3.98737e+08
3.8894e+08
1.06141e+09
1.08359e+09
1.07828e+09
1.0309e+09
9.54057e+08
8.65572e+08
7.7384e+08
6.83796e+08
5.97922e+08
5.18208e+08
4.46783e+08
3.86029e+08
3.40445e+08
3.17421e+08
3.11334e+08
3.10438e+08
3.09747e+08
3.08629e+08
3.07155e+08
3.05459e+08
3.03753e+08
3.02254e+08
3.01117e+08
3.00433e+08
3.00247e+08
3.00564e+08
3.01368e+08
3.02624e+08
3.04292e+08
3.06326e+08
3.08679e+08
3.11308e+08
3.14171e+08
3.17233e+08
3.20456e+08
3.23819e+08
3.27284e+08
3.30843e+08
3.34458e+08
3.38135e+08
3.41834e+08
3.45567e+08
3.49285e+08
3.53016e+08
3.56719e+08
3.60409e+08
3.64053e+08
3.6766e+08
3.71206e+08
3.74692e+08
3.78104e+08
3.81436e+08
3.84682e+08
3.87829e+08
3.90883e+08
3.93811e+08
3.96617e+08
3.99191e+08
4.01466e+08
4.02943e+08
4.03108e+08
3.99735e+08
3.90915e+08
9.83841e+08
1.00816e+09
1.00729e+09
9.60951e+08
8.88665e+08
8.10776e+08
7.33333e+08
6.5893e+08
5.88833e+08
5.23944e+08
4.65661e+08
4.14908e+08
3.75753e+08
3.57486e+08
3.51996e+08
3.47335e+08
3.41246e+08
3.34789e+08
3.28596e+08
3.22888e+08
3.17862e+08
3.13641e+08
3.10291e+08
3.07807e+08
3.06159e+08
3.05287e+08
3.05127e+08
3.05603e+08
3.0664e+08
3.08167e+08
3.10114e+08
3.12422e+08
3.15028e+08
3.17891e+08
3.20955e+08
3.24193e+08
3.27559e+08
3.31035e+08
3.34581e+08
3.38189e+08
3.4182e+08
3.45473e+08
3.49118e+08
3.5275e+08
3.56338e+08
3.59883e+08
3.63356e+08
3.66754e+08
3.70052e+08
3.73244e+08
3.7631e+08
3.7924e+08
3.82025e+08
3.84656e+08
3.87141e+08
3.89476e+08
3.91708e+08
3.93809e+08
3.95923e+08
3.97751e+08
3.99534e+08
3.98995e+08
3.93219e+08
8.66313e+08
8.8338e+08
8.86539e+08
8.46543e+08
7.93898e+08
7.41249e+08
6.90299e+08
6.40855e+08
5.93861e+08
5.49213e+08
5.07911e+08
4.69566e+08
4.36053e+08
4.16731e+08
4.03349e+08
3.89236e+08
3.7507e+08
3.6188e+08
3.50107e+08
3.39877e+08
3.31256e+08
3.24182e+08
3.18572e+08
3.143e+08
3.1124e+08
3.09257e+08
3.08222e+08
3.08015e+08
3.08519e+08
3.09636e+08
3.11265e+08
3.13334e+08
3.15758e+08
3.18487e+08
3.2145e+08
3.24614e+08
3.27923e+08
3.31353e+08
3.34861e+08
3.38427e+08
3.42025e+08
3.45626e+08
3.49202e+08
3.52741e+08
3.56228e+08
3.59635e+08
3.62944e+08
3.66132e+08
3.69174e+08
3.72052e+08
3.74736e+08
3.77208e+08
3.79438e+08
3.8141e+08
3.83112e+08
3.84531e+08
3.85715e+08
3.8664e+08
3.87635e+08
3.88443e+08
3.907e+08
3.9182e+08
3.97321e+08
1.1745e+09
1.16174e+09
1.13239e+09
1.0865e+09
1.0262e+09
9.53338e+08
8.71785e+08
7.84641e+08
6.95998e+08
6.0907e+08
5.27004e+08
4.52188e+08
3.86272e+08
3.30361e+08
2.84614e+08
2.4892e+08
2.22382e+08
2.04142e+08
1.9287e+08
1.87485e+08
1.8671e+08
1.89578e+08
1.95092e+08
2.02526e+08
2.11205e+08
2.20645e+08
2.30442e+08
2.40308e+08
2.50036e+08
2.59477e+08
2.68552e+08
2.77204e+08
2.85421e+08
2.93211e+08
3.00587e+08
3.07601e+08
3.14261e+08
3.20656e+08
3.26768e+08
3.32715e+08
3.38449e+08
3.44103e+08
3.49605e+08
3.55083e+08
3.60452e+08
3.65812e+08
3.71076e+08
3.76295e+08
3.81381e+08
3.86318e+08
3.91015e+08
3.95378e+08
3.99304e+08
4.02622e+08
4.05208e+08
4.06837e+08
4.07375e+08
4.06594e+08
4.04396e+08
4.00625e+08
3.95316e+08
3.88417e+08
3.80358e+08
1.17553e+09
1.17545e+09
1.17599e+09
1.17574e+09
1.17544e+09
1.17371e+09
1.17067e+09
1.16466e+09
1.15514e+09
1.13942e+09
1.11604e+09
1.08012e+09
1.02853e+09
9.53334e+08
8.49452e+08
1.17529e+09
1.16254e+09
1.16168e+09
1.16113e+09
1.15936e+09
1.1571e+09
1.15299e+09
1.14706e+09
1.13778e+09
1.1245e+09
1.10499e+09
1.07773e+09
1.03932e+09
9.87346e+08
9.1805e+08
8.30383e+08
1.16253e+09
1.13661e+09
1.13495e+09
1.13325e+09
1.12992e+09
1.12568e+09
1.11922e+09
1.11055e+09
1.09832e+09
1.08189e+09
1.05954e+09
1.02999e+09
9.9114e+08
9.41601e+08
8.80324e+08
8.09153e+08
1.13684e+09
1.10061e+09
1.0982e+09
1.09545e+09
1.0907e+09
1.08472e+09
1.07624e+09
1.06533e+09
1.05079e+09
1.03215e+09
1.00813e+09
9.77872e+08
9.40317e+08
8.95012e+08
8.42725e+08
7.86564e+08
1.10106e+09
1.05674e+09
1.05371e+09
1.05007e+09
1.04415e+09
1.03677e+09
1.02674e+09
1.01421e+09
9.98152e+08
9.78336e+08
9.53825e+08
9.24265e+08
8.89254e+08
8.49261e+08
8.05736e+08
7.62443e+08
1.05739e+09
1.00749e+09
1.00397e+09
9.99646e+08
9.92854e+08
9.8447e+08
9.73369e+08
9.59851e+08
9.43027e+08
9.22924e+08
8.98896e+08
8.71037e+08
8.39423e+08
8.05109e+08
7.69822e+08
7.37242e+08
1.0083e+09
9.54942e+08
9.51092e+08
9.46302e+08
9.3895e+08
9.29967e+08
9.18307e+08
9.04404e+08
8.87494e+08
8.67864e+08
8.45055e+08
8.19583e+08
7.91723e+08
7.63001e+08
7.34951e+08
7.11009e+08
9.55867e+08
9.00933e+08
8.96899e+08
8.91849e+08
8.84219e+08
8.74992e+08
8.63199e+08
8.49404e+08
8.32951e+08
8.14342e+08
7.93277e+08
7.70551e+08
7.46573e+08
7.23057e+08
7.01277e+08
6.84191e+08
9.01934e+08
8.47035e+08
8.42955e+08
8.37835e+08
8.30187e+08
8.21031e+08
8.09472e+08
7.96183e+08
7.80593e+08
7.63383e+08
7.44336e+08
7.24468e+08
7.04178e+08
6.85282e+08
6.68675e+08
6.56872e+08
8.48073e+08
7.94331e+08
7.90314e+08
7.85274e+08
7.77809e+08
7.68963e+08
7.57911e+08
7.45407e+08
7.30956e+08
7.15358e+08
6.98464e+08
6.81392e+08
6.64524e+08
6.4962e+08
6.37254e+08
6.29475e+08
7.95373e+08
7.43815e+08
7.39953e+08
7.35115e+08
7.27995e+08
7.19641e+08
7.09289e+08
6.97755e+08
6.84592e+08
6.70683e+08
6.55902e+08
6.41423e+08
6.27548e+08
6.1595e+08
6.06891e+08
6.0203e+08
7.44834e+08
6.9593e+08
6.92286e+08
6.87736e+08
6.81069e+08
6.73324e+08
6.63793e+08
6.53324e+08
6.41514e+08
6.29277e+08
6.16507e+08
6.04361e+08
5.93076e+08
5.84174e+08
5.77686e+08
5.74915e+08
6.96906e+08
6.5117e+08
6.47787e+08
6.43584e+08
6.3744e+08
6.30373e+08
6.21719e+08
6.12345e+08
6.01864e+08
5.91206e+08
5.8025e+08
5.70116e+08
5.60957e+08
5.54142e+08
5.49512e+08
5.48074e+08
6.52086e+08
6.09555e+08
6.06457e+08
6.02631e+08
5.97043e+08
5.90679e+08
5.82915e+08
5.7461e+08
5.65397e+08
5.56182e+08
5.46837e+08
5.38404e+08
5.30975e+08
5.25752e+08
5.22446e+08
5.21821e+08
6.104e+08
5.71183e+08
5.68379e+08
5.64941e+08
5.59913e+08
5.54246e+08
5.47343e+08
5.40048e+08
5.31997e+08
5.24065e+08
5.16097e+08
5.09056e+08
5.02966e+08
4.9887e+08
4.96382e+08
4.96057e+08
5.71953e+08
5.35873e+08
5.33358e+08
5.30302e+08
5.25818e+08
5.20817e+08
5.14725e+08
5.08357e+08
5.01352e+08
4.94533e+08
4.87727e+08
4.818e+08
4.76724e+08
4.73397e+08
4.71359e+08
4.71018e+08
5.36565e+08
5.03413e+08
5.01173e+08
4.98479e+08
4.94506e+08
4.90122e+08
4.84769e+08
4.79233e+08
4.73144e+08
4.67279e+08
4.61433e+08
4.56391e+08
4.52061e+08
4.49212e+08
4.47309e+08
4.46596e+08
5.04029e+08
4.7361e+08
4.71624e+08
4.69265e+08
4.65758e+08
4.61932e+08
4.57241e+08
4.52436e+08
4.47139e+08
4.42075e+08
4.3701e+08
4.32647e+08
4.28839e+08
4.26237e+08
4.24234e+08
4.22978e+08
4.74154e+08
4.45996e+08
4.44234e+08
4.42173e+08
4.39078e+08
4.35742e+08
4.31622e+08
4.2744e+08
4.22806e+08
4.18399e+08
4.13959e+08
4.10122e+08
4.06696e+08
4.04236e+08
4.02046e+08
4.00077e+08
4.46474e+08
4.20519e+08
4.18952e+08
4.1715e+08
4.14409e+08
4.11488e+08
4.07853e+08
4.04189e+08
4.00102e+08
3.96226e+08
3.92279e+08
3.88837e+08
3.85669e+08
3.83244e+08
3.80778e+08
3.7808e+08
4.20939e+08
4.00328e+08
3.98901e+08
3.97282e+08
3.94789e+08
3.92155e+08
3.88846e+08
3.85521e+08
3.81778e+08
3.78209e+08
3.7452e+08
3.71234e+08
3.68092e+08
3.65512e+08
3.62701e+08
3.59464e+08
4.00706e+08
3.82294e+08
3.80981e+08
3.7951e+08
3.77217e+08
3.74809e+08
3.71755e+08
3.68685e+08
3.65192e+08
3.6183e+08
3.58291e+08
3.55046e+08
3.5182e+08
3.48982e+08
3.45786e+08
3.42107e+08
3.82637e+08
3.64429e+08
3.6321e+08
3.6186e+08
3.59729e+08
3.575e+08
3.54645e+08
3.51763e+08
3.48449e+08
3.45212e+08
3.41747e+08
3.38474e+08
3.3512e+08
3.32017e+08
3.2846e+08
3.24416e+08
3.64743e+08
3.47888e+08
3.46739e+08
3.4548e+08
3.43469e+08
3.41368e+08
3.38652e+08
3.35891e+08
3.32682e+08
3.29499e+08
3.26038e+08
3.22678e+08
3.19161e+08
3.15788e+08
3.11927e+08
3.07591e+08
3.48179e+08
3.32597e+08
3.31498e+08
3.30302e+08
3.28373e+08
3.26356e+08
3.23729e+08
3.21037e+08
3.17881e+08
3.14703e+08
3.11205e+08
3.07736e+08
3.04048e+08
3.00429e+08
2.96292e+08
2.91706e+08
3.32872e+08
3.18427e+08
3.17358e+08
3.16202e+08
3.14322e+08
3.1235e+08
3.09769e+08
3.071e+08
3.03952e+08
3.00739e+08
2.97175e+08
2.93579e+08
2.89726e+08
2.85885e+08
2.81529e+08
2.76752e+08
3.18691e+08
3.05227e+08
3.04176e+08
3.03041e+08
3.01187e+08
2.99235e+08
2.96669e+08
2.93995e+08
2.90828e+08
2.87559e+08
2.83911e+08
2.80187e+08
2.76173e+08
2.72132e+08
2.6758e+08
2.6264e+08
3.05484e+08
2.92852e+08
2.91807e+08
2.90678e+08
2.8883e+08
2.86875e+08
2.84302e+08
2.816e+08
2.78393e+08
2.75054e+08
2.71317e+08
2.67469e+08
2.63313e+08
2.59103e+08
2.54403e+08
2.4935e+08
2.93107e+08
2.81211e+08
2.80165e+08
2.79033e+08
2.77179e+08
2.75208e+08
2.72613e+08
2.69872e+08
2.66614e+08
2.63202e+08
2.59375e+08
2.55411e+08
2.51127e+08
2.4677e+08
2.41947e+08
2.36805e+08
2.81465e+08
2.70173e+08
2.6912e+08
2.67978e+08
2.66109e+08
2.64113e+08
2.61488e+08
2.58702e+08
2.5539e+08
2.51906e+08
2.47997e+08
2.43934e+08
2.39544e+08
2.35071e+08
2.3016e+08
2.24966e+08
2.70428e+08
2.59686e+08
2.58624e+08
2.57468e+08
2.55581e+08
2.53558e+08
2.509e+08
2.48068e+08
2.44705e+08
2.41155e+08
2.37173e+08
2.33025e+08
2.28549e+08
2.23982e+08
2.19008e+08
2.13789e+08
2.59943e+08
2.49642e+08
2.4857e+08
2.47399e+08
2.45494e+08
2.43443e+08
2.40754e+08
2.37882e+08
2.34474e+08
2.3087e+08
2.26831e+08
2.2262e+08
2.1808e+08
2.13447e+08
2.08437e+08
2.03218e+08
2.49901e+08
2.4001e+08
2.3893e+08
2.37746e+08
2.35824e+08
2.3375e+08
2.31036e+08
2.28131e+08
2.24688e+08
2.21044e+08
2.16962e+08
2.12706e+08
2.08122e+08
2.03449e+08
1.98425e+08
1.93231e+08
2.40271e+08
2.30708e+08
2.29622e+08
2.28427e+08
2.26495e+08
2.24404e+08
2.21673e+08
2.18747e+08
2.15282e+08
2.11615e+08
2.07509e+08
2.03229e+08
1.98625e+08
1.93934e+08
1.88918e+08
1.83766e+08
2.3097e+08
2.21717e+08
2.20629e+08
2.19429e+08
2.17492e+08
2.15392e+08
2.12655e+08
2.0972e+08
2.06247e+08
2.02573e+08
1.9846e+08
1.94179e+08
1.89573e+08
1.84888e+08
1.79899e+08
1.74811e+08
2.2198e+08
2.12975e+08
2.11889e+08
2.10689e+08
2.08756e+08
2.06658e+08
2.03927e+08
2.00998e+08
1.97534e+08
1.93872e+08
1.89773e+08
1.8551e+08
1.80924e+08
1.76265e+08
1.71322e+08
1.66313e+08
2.13237e+08
2.04471e+08
2.03393e+08
2.02199e+08
2.00279e+08
1.98194e+08
1.9548e+08
1.92573e+08
1.89134e+08
1.85502e+08
1.81434e+08
1.77212e+08
1.72663e+08
1.68051e+08
1.6317e+08
1.58257e+08
2.04731e+08
1.96161e+08
1.95095e+08
1.93914e+08
1.92016e+08
1.89957e+08
1.87276e+08
1.84406e+08
1.81009e+08
1.77428e+08
1.73411e+08
1.69249e+08
1.64758e+08
1.60213e+08
1.55408e+08
1.50606e+08
1.96416e+08
1.88035e+08
1.86987e+08
1.85827e+08
1.83962e+08
1.81939e+08
1.79304e+08
1.76489e+08
1.73151e+08
1.6964e+08
1.65692e+08
1.6161e+08
1.57194e+08
1.52734e+08
1.48019e+08
1.43341e+08
1.88285e+08
1.80062e+08
1.79039e+08
1.77907e+08
1.76084e+08
1.74112e+08
1.71537e+08
1.68794e+08
1.65532e+08
1.6211e+08
1.5825e+08
1.54269e+08
1.49947e+08
1.4559e+08
1.40981e+08
1.36441e+08
1.80305e+08
1.72238e+08
1.71244e+08
1.70148e+08
1.68378e+08
1.66469e+08
1.63968e+08
1.61312e+08
1.58143e+08
1.54829e+08
1.51075e+08
1.47215e+08
1.43003e+08
1.38768e+08
1.34277e+08
1.29886e+08
1.72471e+08
1.64542e+08
1.63583e+08
1.6253e+08
1.60822e+08
1.58989e+08
1.56575e+08
1.54024e+08
1.50964e+08
1.47777e+08
1.44148e+08
1.40427e+08
1.36343e+08
1.32249e+08
1.2789e+08
1.23663e+08
1.64764e+08
1.56973e+08
1.56054e+08
1.55051e+08
1.53414e+08
1.51668e+08
1.49354e+08
1.46922e+08
1.43988e+08
1.40945e+08
1.37458e+08
1.33896e+08
1.29957e+08
1.26021e+08
1.21808e+08
1.17758e+08
1.57182e+08
1.4952e+08
1.48645e+08
1.47699e+08
1.46142e+08
1.44494e+08
1.42292e+08
1.39994e+08
1.372e+08
1.34319e+08
1.3099e+08
1.27605e+08
1.23829e+08
1.2007e+08
1.16017e+08
1.12159e+08
1.49714e+08
1.42187e+08
1.4136e+08
1.40478e+08
1.39007e+08
1.37467e+08
1.35387e+08
1.33237e+08
1.30595e+08
1.27892e+08
1.24737e+08
1.21548e+08
1.17952e+08
1.14389e+08
1.10512e+08
1.06863e+08
1.42365e+08
1.34974e+08
1.342e+08
1.33386e+08
1.32007e+08
1.30584e+08
1.28634e+08
1.26644e+08
1.24165e+08
1.21656e+08
1.1869e+08
1.15714e+08
1.12314e+08
1.08966e+08
1.05283e+08
1.01859e+08
1.35136e+08
1.27896e+08
1.27175e+08
1.26434e+08
1.25151e+08
1.23852e+08
1.22039e+08
1.20218e+08
1.17912e+08
1.15608e+08
1.12842e+08
1.10096e+08
1.0691e+08
1.03798e+08
1.00329e+08
9.71539e+07
1.28039e+08
1.20966e+08
1.203e+08
1.19636e+08
1.18451e+08
1.17281e+08
1.15608e+08
1.13963e+08
1.11835e+08
1.09747e+08
1.07191e+08
1.04688e+08
1.01732e+08
9.88745e+07
9.56418e+07
9.27375e+07
1.21089e+08
1.14209e+08
1.136e+08
1.13012e+08
1.11927e+08
1.10889e+08
1.09356e+08
1.0789e+08
1.05943e+08
1.04075e+08
1.01735e+08
9.94873e+07
9.67746e+07
9.41927e+07
9.1222e+07
8.86189e+07
1.14313e+08
1.07656e+08
1.07102e+08
1.06593e+08
1.05606e+08
1.04699e+08
1.03305e+08
1.02018e+08
1.00248e+08
9.86013e+07
9.64762e+07
9.44903e+07
9.20312e+07
8.97429e+07
8.70626e+07
8.47934e+07
1.0774e+08
1.01348e+08
1.00849e+08
1.00417e+08
9.9525e+07
9.87467e+07
9.74864e+07
9.63716e+07
9.47718e+07
9.33402e+07
9.14238e+07
8.96988e+07
8.74974e+07
8.55175e+07
8.31588e+07
8.12645e+07
1.01412e+08
9.53336e+07
9.48874e+07
9.45307e+07
9.37299e+07
9.30749e+07
9.19403e+07
9.09883e+07
8.95456e+07
8.83155e+07
8.65925e+07
8.51185e+07
8.31691e+07
8.15059e+07
7.95009e+07
7.80277e+07
9.53777e+07
8.96695e+07
8.92749e+07
8.89907e+07
8.82767e+07
8.77381e+07
8.67196e+07
8.59166e+07
8.4614e+07
8.35637e+07
8.20101e+07
8.0765e+07
7.90493e+07
7.77017e+07
7.60786e+07
7.50705e+07
8.96949e+07
8.44214e+07
8.40772e+07
8.38628e+07
8.32317e+07
8.28018e+07
8.189e+07
8.12195e+07
8.00376e+07
7.91377e+07
7.772e+07
7.66653e+07
7.51458e+07
7.40972e+07
7.2876e+07
7.23767e+07
8.44291e+07
7.96572e+07
7.93629e+07
7.92162e+07
7.8666e+07
7.83388e+07
7.75275e+07
7.69747e+07
7.58961e+07
7.51136e+07
7.37917e+07
7.28658e+07
7.14707e+07
7.0657e+07
6.98126e+07
6.98932e+07
7.9648e+07
7.54443e+07
7.52001e+07
7.512e+07
7.46511e+07
7.4423e+07
7.37115e+07
7.32677e+07
7.22854e+07
7.15963e+07
7.03398e+07
6.94727e+07
6.81045e+07
6.73818e+07
6.67622e+07
6.74617e+07
7.54192e+07
7.19048e+07
7.1709e+07
7.16901e+07
7.1301e+07
7.11643e+07
7.05532e+07
7.02121e+07
6.93327e+07
6.87343e+07
6.75567e+07
6.67348e+07
6.53806e+07
6.46553e+07
6.40682e+07
6.51353e+07
7.18661e+07
6.88578e+07
6.87194e+07
6.87718e+07
6.84832e+07
6.84562e+07
6.79792e+07
6.77724e+07
6.70496e+07
6.65979e+07
6.55903e+07
6.49099e+07
6.37088e+07
6.30577e+07
6.23803e+07
6.32976e+07
6.88028e+07
6.73986e+07
6.72959e+07
6.73939e+07
6.71695e+07
6.72136e+07
6.68233e+07
6.6705e+07
6.60843e+07
6.57309e+07
6.48343e+07
6.42495e+07
6.31455e+07
6.25037e+07
6.16446e+07
6.22211e+07
6.73322e+07
)
;

boundaryField
{
    wireUpstream
    {
        type            calculated;
        value           nonuniform List<scalar> 
16
(
6.63449e+07
6.62703e+07
6.63958e+07
6.62213e+07
6.63093e+07
6.59869e+07
6.5925e+07
6.5387e+07
6.50995e+07
6.42995e+07
6.37858e+07
6.27755e+07
6.21372e+07
6.11813e+07
6.1326e+07
6.6273e+07
)
;
    }
    wireDownstream
    {
        type            calculated;
        value           nonuniform List<scalar> 
16
(
3.80277e+08
3.8049e+08
3.80785e+08
3.81188e+08
3.81694e+08
3.82289e+08
3.83004e+08
3.83788e+08
3.84731e+08
3.85724e+08
3.86964e+08
3.8828e+08
3.90195e+08
3.9328e+08
4.0547e+08
3.80216e+08
)
;
    }
    wireTopContact
    {
        type            calculated;
        value           nonuniform List<scalar> 
122
(
8.83393e+08
8.89442e+08
8.45891e+08
7.92106e+08
7.39809e+08
6.89644e+08
6.41204e+08
5.95104e+08
5.51248e+08
5.10436e+08
4.72144e+08
4.37269e+08
4.16551e+08
4.01706e+08
3.86773e+08
3.72377e+08
3.59189e+08
3.47525e+08
3.37479e+08
3.29089e+08
3.22264e+08
3.16905e+08
3.12874e+08
3.10039e+08
3.08262e+08
3.07412e+08
3.07368e+08
3.08014e+08
3.09254e+08
3.10988e+08
3.13146e+08
3.15643e+08
3.18433e+08
3.21445e+08
3.2465e+08
3.2799e+08
3.31445e+08
3.34972e+08
3.38552e+08
3.4216e+08
3.45764e+08
3.4934e+08
3.52875e+08
3.56355e+08
3.59754e+08
3.63052e+08
3.66226e+08
3.69252e+08
3.72109e+08
3.7477e+08
3.77216e+08
3.79415e+08
3.81353e+08
3.83019e+08
3.844e+08
3.8555e+08
3.86448e+08
3.87445e+08
3.88316e+08
3.90883e+08
3.92942e+08
8.63446e+08
8.45315e+08
8.26112e+08
8.05235e+08
7.83207e+08
7.59685e+08
7.35028e+08
7.09282e+08
6.82864e+08
6.55878e+08
6.28754e+08
6.01523e+08
5.74588e+08
5.47883e+08
5.21747e+08
4.96071e+08
4.71105e+08
4.46741e+08
4.23166e+08
4.00309e+08
3.78307e+08
3.59665e+08
3.42291e+08
3.24589e+08
3.0776e+08
2.91866e+08
2.76908e+08
2.62786e+08
2.49488e+08
2.36933e+08
2.25084e+08
2.13897e+08
2.03313e+08
1.93316e+08
1.83838e+08
1.74872e+08
1.6636e+08
1.5829e+08
1.50624e+08
1.43344e+08
1.36429e+08
1.29855e+08
1.23613e+08
1.17687e+08
1.12065e+08
1.06743e+08
1.01711e+08
9.69751e+07
9.25238e+07
8.83682e+07
8.45024e+07
8.09321e+07
7.76553e+07
7.46614e+07
7.19382e+07
6.94516e+07
6.7099e+07
6.49436e+07
6.33742e+07
6.24428e+07
4.03042e+08
)
;
    }
    front
    {
        type            wedge;
    }
    back
    {
        type            wedge;
    }
}


// ************************************************************************* //
