/*--------------------------------*- C++ -*----------------------------------*\
| =========                 |                                                 |
| \\      /  F ield         | foam-extend: Open Source CFD                    |
|  \\    /   O peration     | Version:     4.1-20200408                       |
|   \\  /    A nd           | Web:         http://www.foam-extend.org         |
|    \\/     M anipulation  |                                                 |
\*---------------------------------------------------------------------------*/
FoamFile
{
    version     2.0;
    format      ascii;
    class       volVectorField;
    location    "0.0030000";
    object      Velocity;
}
// * * * * * * * * * * * * * * * * * * * * * * * * * * * * * * * * * * * * * //

dimensions      [0 1 -1 0 0 0 0];

internalField   nonuniform List<vector> 
1952
(
(1.00252 1.25069e-05 0)
(1.00251 8.1559e-05 0)
(1.00243 0.000152391 0)
(1.00228 0.00022097 0)
(1.00206 0.000283072 0)
(1.00178 0.000334901 0)
(1.00146 0.000373617 0)
(1.0011 0.000397586 0)
(1.00074 0.000406428 0)
(1.00038 0.000400909 0)
(1.00003 0.000382706 0)
(0.999717 0.000354175 0)
(0.99944 0.000318072 0)
(0.999206 0.000277295 0)
(0.999017 0.000234626 0)
(0.998873 0.000192495 0)
(0.998772 0.000152805 0)
(0.998708 0.000116854 0)
(0.998676 8.53845e-05 0)
(0.998671 5.86589e-05 0)
(0.998687 3.65988e-05 0)
(0.998718 1.88772e-05 0)
(0.998762 5.03492e-06 0)
(0.998813 -5.46058e-06 0)
(0.998869 -1.3144e-05 0)
(0.998927 -1.85311e-05 0)
(0.998986 -2.20832e-05 0)
(0.999044 -2.42101e-05 0)
(0.9991 -2.52543e-05 0)
(0.999154 -2.5506e-05 0)
(0.999206 -2.5195e-05 0)
(0.999255 -2.451e-05 0)
(0.999301 -2.35927e-05 0)
(0.999345 -2.25556e-05 0)
(0.999386 -2.14801e-05 0)
(0.999425 -2.04237e-05 0)
(0.999462 -1.94311e-05 0)
(0.999498 -1.85203e-05 0)
(0.999532 -1.77164e-05 0)
(0.999565 -1.7008e-05 0)
(0.999597 -1.64101e-05 0)
(0.999628 -1.58891e-05 0)
(0.999659 -1.54525e-05 0)
(0.99969 -1.50501e-05 0)
(0.99972 -1.46779e-05 0)
(0.999751 -1.42736e-05 0)
(0.999781 -1.38148e-05 0)
(0.999812 -1.32289e-05 0)
(0.999842 -1.24687e-05 0)
(0.999872 -1.14521e-05 0)
(0.999902 -1.01056e-05 0)
(0.99993 -8.33953e-06 0)
(0.999958 -6.06337e-06 0)
(0.999984 -3.19223e-06 0)
(1.00001 3.54961e-07 0)
(1.00003 4.62637e-06 0)
(1.00004 9.64296e-06 0)
(1.00005 1.53596e-05 0)
(1.00006 2.16698e-05 0)
(1.00006 2.83785e-05 0)
(1.00005 3.51834e-05 0)
(1.00004 4.18666e-05 0)
(1.00001 4.75606e-05 0)
(1.00252 1.79616e-05 0)
(1.00251 0.000131444 0)
(1.00243 0.000248094 0)
(1.00228 0.000361166 0)
(1.00206 0.000463555 0)
(1.00177 0.000548897 0)
(1.00145 0.000612463 0)
(1.00109 0.000651575 0)
(1.00073 0.000665666 0)
(1.00036 0.000656066 0)
(1.00002 0.000625603 0)
(0.999701 0.000578208 0)
(0.999424 0.000518468 0)
(0.999193 0.00045119 0)
(0.999007 0.000380991 0)
(0.998867 0.000311881 0)
(0.99877 0.000246976 0)
(0.99871 0.000188365 0)
(0.998681 0.000137213 0)
(0.998679 9.38947e-05 0)
(0.998697 5.82349e-05 0)
(0.99873 2.96613e-05 0)
(0.998774 7.39843e-06 0)
(0.998826 -9.43987e-06 0)
(0.998882 -2.1734e-05 0)
(0.998939 -3.03277e-05 0)
(0.998998 -3.59713e-05 0)
(0.999055 -3.93293e-05 0)
(0.99911 -4.09544e-05 0)
(0.999163 -4.13145e-05 0)
(0.999214 -4.07783e-05 0)
(0.999262 -3.96488e-05 0)
(0.999307 -3.81527e-05 0)
(0.99935 -3.64697e-05 0)
(0.99939 -3.47295e-05 0)
(0.999429 -3.30239e-05 0)
(0.999465 -3.14238e-05 0)
(0.9995 -2.99576e-05 0)
(0.999533 -2.86651e-05 0)
(0.999566 -2.75275e-05 0)
(0.999598 -2.6569e-05 0)
(0.999629 -2.57353e-05 0)
(0.999659 -2.50385e-05 0)
(0.999689 -2.43978e-05 0)
(0.99972 -2.38072e-05 0)
(0.99975 -2.31662e-05 0)
(0.99978 -2.24392e-05 0)
(0.99981 -2.15091e-05 0)
(0.99984 -2.03e-05 0)
(0.99987 -1.86788e-05 0)
(0.999899 -1.65257e-05 0)
(0.999928 -1.36948e-05 0)
(0.999956 -1.00362e-05 0)
(0.999982 -5.40897e-06 0)
(1 3.24135e-07 0)
(1.00003 7.24803e-06 0)
(1.00004 1.54052e-05 0)
(1.00005 2.47303e-05 0)
(1.00006 3.50572e-05 0)
(1.00006 4.60722e-05 0)
(1.00005 5.72859e-05 0)
(1.00004 6.83859e-05 0)
(1.00001 7.79865e-05 0)
(1.00251 2.05063e-05 0)
(1.00251 0.000180609 0)
(1.00243 0.000345688 0)
(1.00228 0.000505959 0)
(1.00206 0.000651024 0)
(1.00177 0.000771604 0)
(1.00144 0.000860916 0)
(1.00108 0.000915227 0)
(1.00071 0.000933882 0)
(1.00034 0.00091894 0)
(0.999996 0.000874561 0)
(0.999681 0.000806435 0)
(0.999407 0.000721157 0)
(0.999178 0.000625615 0)
(0.998998 0.000526413 0)
(0.998863 0.000429251 0)
(0.998771 0.000338485 0)
(0.998716 0.000256956 0)
(0.998692 0.000186165 0)
(0.998693 0.000126508 0)
(0.998713 7.76275e-05 0)
(0.998747 3.86351e-05 0)
(0.998792 8.3866e-06 0)
(0.998843 -1.43907e-05 0)
(0.998899 -3.09432e-05 0)
(0.998955 -4.24503e-05 0)
(0.999012 -4.99527e-05 0)
(0.999068 -5.43647e-05 0)
(0.999122 -5.64432e-05 0)
(0.999174 -5.68255e-05 0)
(0.999223 -5.60116e-05 0)
(0.99927 -5.44112e-05 0)
(0.999314 -5.23293e-05 0)
(0.999355 -5.00077e-05 0)
(0.999395 -4.76197e-05 0)
(0.999432 -4.52877e-05 0)
(0.999468 -4.31063e-05 0)
(0.999502 -4.11121e-05 0)
(0.999535 -3.93585e-05 0)
(0.999567 -3.78182e-05 0)
(0.999598 -3.65246e-05 0)
(0.999628 -3.54023e-05 0)
(0.999658 -3.44688e-05 0)
(0.999688 -3.36129e-05 0)
(0.999718 -3.2828e-05 0)
(0.999748 -3.19759e-05 0)
(0.999778 -3.10095e-05 0)
(0.999807 -2.9768e-05 0)
(0.999837 -2.8148e-05 0)
(0.999867 -2.59658e-05 0)
(0.999896 -2.30556e-05 0)
(0.999925 -1.92134e-05 0)
(0.999953 -1.42274e-05 0)
(0.999979 -7.89505e-06 0)
(1 -1.48398e-08 0)
(1.00002 9.54552e-06 0)
(1.00004 2.08635e-05 0)
(1.00005 3.3866e-05 0)
(1.00006 4.83373e-05 0)
(1.00006 6.38396e-05 0)
(1.00005 7.96683e-05 0)
(1.00004 9.52792e-05 0)
(1.00001 0.000108624 0)
(1.00251 1.70192e-05 0)
(1.00251 0.000226202 0)
(1.00243 0.000442877 0)
(1.00228 0.000653782 0)
(1.00205 0.000844608 0)
(1.00177 0.00100268 0)
(1.00143 0.00111895 0)
(1.00106 0.00118864 0)
(1.00068 0.00121117 0)
(1.00031 0.00118953 0)
(0.999965 0.00112945 0)
(0.999651 0.00103856 0)
(0.99938 0.000925691 0)
(0.999157 0.00079999 0)
(0.998983 0.00067025 0)
(0.998856 0.000544 0)
(0.998772 0.000426857 0)
(0.998723 0.000322335 0)
(0.998705 0.000232151 0)
(0.998711 0.000156596 0)
(0.998734 9.50212e-05 0)
(0.998771 4.61462e-05 0)
(0.998817 8.40641e-06 0)
(0.998868 -1.98874e-05 0)
(0.998922 -4.03574e-05 0)
(0.998978 -5.45192e-05 0)
(0.999033 -6.36956e-05 0)
(0.999087 -6.90405e-05 0)
(0.99914 -7.15019e-05 0)
(0.999189 -7.18755e-05 0)
(0.999237 -7.07816e-05 0)
(0.999281 -6.87285e-05 0)
(0.999324 -6.60917e-05 0)
(0.999364 -6.31698e-05 0)
(0.999402 -6.01753e-05 0)
(0.999438 -5.72586e-05 0)
(0.999472 -5.45354e-05 0)
(0.999505 -5.20498e-05 0)
(0.999537 -4.98677e-05 0)
(0.999568 -4.79538e-05 0)
(0.999599 -4.63506e-05 0)
(0.999629 -4.49624e-05 0)
(0.999658 -4.38134e-05 0)
(0.999687 -4.27634e-05 0)
(0.999716 -4.18065e-05 0)
(0.999746 -4.07693e-05 0)
(0.999775 -3.95948e-05 0)
(0.999804 -3.80813e-05 0)
(0.999834 -3.60994e-05 0)
(0.999863 -3.34174e-05 0)
(0.999892 -2.98236e-05 0)
(0.999921 -2.50558e-05 0)
(0.999948 -1.8837e-05 0)
(0.999974 -1.08978e-05 0)
(0.999999 -9.61627e-07 0)
(1.00002 1.11653e-05 0)
(1.00004 2.56152e-05 0)
(1.00005 4.23288e-05 0)
(1.00006 6.10645e-05 0)
(1.00006 8.12791e-05 0)
(1.00005 0.000102073 0)
(1.00004 0.000122754 0)
(1.00001 0.000140641 0)
(1.00249 7.80617e-06 0)
(1.0025 0.000269269 0)
(1.00243 0.000541682 0)
(1.00228 0.000807684 0)
(1.00205 0.00104809 0)
(1.00176 0.00124614 0)
(1.00141 0.00139029 0)
(1.00104 0.0014748 0)
(1.00065 0.00149947 0)
(1.00028 0.0014686 0)
(0.999931 0.00138978 0)
(0.999619 0.00127289 0)
(0.999352 0.00112926 0)
(0.999136 0.000970575 0)
(0.998971 0.000808111 0)
(0.998853 0.000651424 0)
(0.998778 0.0005074 0)
(0.998738 0.000380078 0)
(0.998726 0.000271182 0)
(0.998737 0.000180699 0)
(0.998764 0.000107527 0)
(0.998802 4.98711e-05 0)
(0.998848 5.66627e-06 0)
(0.998899 -2.72373e-05 0)
(0.998952 -5.08595e-05 0)
(0.999006 -6.70533e-05 0)
(0.999059 -7.74158e-05 0)
(0.99911 -8.33252e-05 0)
(0.99916 -8.5904e-05 0)
(0.999207 -8.60879e-05 0)
(0.999252 -8.46013e-05 0)
(0.999294 -8.20352e-05 0)
(0.999335 -7.88234e-05 0)
(0.999373 -7.531e-05 0)
(0.999409 -7.17378e-05 0)
(0.999444 -6.8278e-05 0)
(0.999477 -6.50622e-05 0)
(0.999509 -6.21376e-05 0)
(0.99954 -5.95803e-05 0)
(0.99957 -5.73448e-05 0)
(0.999599 -5.54819e-05 0)
(0.999628 -5.38757e-05 0)
(0.999657 -5.25573e-05 0)
(0.999685 -5.13586e-05 0)
(0.999714 -5.02765e-05 0)
(0.999743 -4.91043e-05 0)
(0.999771 -4.77778e-05 0)
(0.9998 -4.60573e-05 0)
(0.999829 -4.37902e-05 0)
(0.999858 -4.06995e-05 0)
(0.999887 -3.65291e-05 0)
(0.999915 -3.09596e-05 0)
(0.999943 -2.36454e-05 0)
(0.999969 -1.4244e-05 0)
(0.999994 -2.39156e-06 0)
(1.00002 1.21856e-05 0)
(1.00003 2.97002e-05 0)
(1.00005 5.01354e-05 0)
(1.00006 7.32522e-05 0)
(1.00006 9.8407e-05 0)
(1.00005 0.000124476 0)
(1.00004 0.000150447 0)
(1.00001 0.000172811 0)
(1.00247 -1.31572e-05 0)
(1.00249 0.000304301 0)
(1.00243 0.00063773 0)
(1.00228 0.000964879 0)
(1.00204 0.00126021 0)
(1.00174 0.00150193 0)
(1.00139 0.00167571 0)
(1.001 0.00177507 0)
(1.00061 0.0018006 0)
(1.00024 0.00175827 0)
(0.999887 0.00165793 0)
(0.999579 0.00151195 0)
(0.999319 0.00133442 0)
(0.999112 0.00113984 0)
(0.998958 0.000942388 0)
(0.998852 0.000753932 0)
(0.998788 0.000582622 0)
(0.998758 0.0004328 0)
(0.998754 0.000305928 0)
(0.998771 0.000201458 0)
(0.998801 0.000117667 0)
(0.998841 5.21339e-05 0)
(0.998887 2.23272e-06 0)
(0.998937 -3.46714e-05 0)
(0.998988 -6.09935e-05 0)
(0.999039 -7.89092e-05 0)
(0.999089 -9.02672e-05 0)
(0.999137 -9.66461e-05 0)
(0.999184 -9.93196e-05 0)
(0.999228 -9.93433e-05 0)
(0.99927 -9.75279e-05 0)
(0.99931 -9.45344e-05 0)
(0.999348 -9.08432e-05 0)
(0.999384 -8.68369e-05 0)
(0.999418 -8.27823e-05 0)
(0.999451 -7.88686e-05 0)
(0.999483 -7.524e-05 0)
(0.999513 -7.19468e-05 0)
(0.999543 -6.90738e-05 0)
(0.999572 -6.65668e-05 0)
(0.9996 -6.44852e-05 0)
(0.999628 -6.26949e-05 0)
(0.999656 -6.12356e-05 0)
(0.999684 -5.99141e-05 0)
(0.999711 -5.87325e-05 0)
(0.999739 -5.74544e-05 0)
(0.999767 -5.60122e-05 0)
(0.999795 -5.41324e-05 0)
(0.999824 -5.16434e-05 0)
(0.999852 -4.82277e-05 0)
(0.99988 -4.35878e-05 0)
(0.999908 -3.73495e-05 0)
(0.999936 -2.90974e-05 0)
(0.999962 -1.84111e-05 0)
(0.999987 -4.82601e-06 0)
(1.00001 1.2032e-05 0)
(1.00003 3.24904e-05 0)
(1.00004 5.66178e-05 0)
(1.00005 8.42334e-05 0)
(1.00006 0.000114644 0)
(1.00005 0.000146552 0)
(1.00004 0.000178684 0)
(1.00001 0.000206669 0)
(1.00244 -4.30058e-05 0)
(1.00247 0.000335127 0)
(1.00242 0.000736167 0)
(1.00227 0.00113193 0)
(1.00203 0.00148814 0)
(1.00172 0.00177676 0)
(1.00135 0.00198061 0)
(1.00096 0.00209295 0)
(1.00057 0.00211591 0)
(1.00019 0.00205784 0)
(0.999843 0.00193127 0)
(0.999539 0.00175135 0)
(0.999288 0.00153533 0)
(0.999092 0.00130078 0)
(0.998951 0.00106538 0)
(0.998859 0.00084374 0)
(0.998808 0.000645163 0)
(0.998789 0.000473875 0)
(0.998793 0.000330635 0)
(0.998815 0.000214027 0)
(0.998848 0.000121472 0)
(0.998888 4.97767e-05 0)
(0.998934 -4.3251e-06 0)
(0.998981 -4.39809e-05 0)
(0.999029 -7.19997e-05 0)
(0.999077 -9.08581e-05 0)
(0.999123 -0.000102629 0)
(0.999168 -0.000109058 0)
(0.99921 -0.000111541 0)
(0.999251 -0.000111224 0)
(0.99929 -0.000108981 0)
(0.999327 -0.000105521 0)
(0.999362 -0.000101356 0)
(0.999395 -9.68926e-05 0)
(0.999428 -9.24111e-05 0)
(0.999458 -8.81104e-05 0)
(0.999488 -8.41413e-05 0)
(0.999517 -8.05528e-05 0)
(0.999546 -7.74354e-05 0)
(0.999573 -7.47245e-05 0)
(0.999601 -7.24872e-05 0)
(0.999628 -7.05715e-05 0)
(0.999655 -6.90262e-05 0)
(0.999681 -6.76351e-05 0)
(0.999708 -6.6407e-05 0)
(0.999735 -6.50798e-05 0)
(0.999762 -6.35847e-05 0)
(0.99979 -6.16197e-05 0)
(0.999817 -5.8998e-05 0)
(0.999845 -5.5367e-05 0)
(0.999873 -5.03921e-05 0)
(0.9999 -4.36477e-05 0)
(0.999927 -3.46493e-05 0)
(0.999954 -2.28948e-05 0)
(0.999979 -7.80775e-06 0)
(1 1.11088e-05 0)
(1.00002 3.43333e-05 0)
(1.00004 6.20697e-05 0)
(1.00005 9.42601e-05 0)
(1.00006 0.000130206 0)
(1.00005 0.000168459 0)
(1.00004 0.000207324 0)
(1.00001 0.000241322 0)
(1.00239 -9.31971e-05 0)
(1.00244 0.000350596 0)
(1.00239 0.000827613 0)
(1.00225 0.00130256 0)
(1.002 0.0017285 0)
(1.00168 0.00206941 0)
(1.00131 0.00230542 0)
(1.00091 0.00243025 0)
(1.00051 0.0024485 0)
(1.00014 0.00237163 0)
(0.999794 0.00221522 0)
(0.999499 0.00199729 0)
(0.999259 0.00173848 0)
(0.999077 0.00145965 0)
(0.998953 0.00118299 0)
(0.998878 0.000926561 0)
(0.998841 0.000700656 0)
(0.998833 0.000508787 0)
(0.998845 0.000350496 0)
(0.998871 0.000223158 0)
(0.998906 0.000123145 0)
(0.998946 4.63889e-05 0)
(0.998989 -1.10514e-05 0)
(0.999033 -5.28295e-05 0)
(0.999076 -8.2119e-05 0)
(0.999119 -0.000101662 0)
(0.999161 -0.000113719 0)
(0.999201 -0.00012017 0)
(0.999239 -0.000122502 0)
(0.999276 -0.000121932 0)
(0.999311 -0.000119377 0)
(0.999345 -0.000115582 0)
(0.999377 -0.000111077 0)
(0.999407 -0.000106287 0)
(0.999437 -0.0001015 0)
(0.999466 -9.6923e-05 0)
(0.999494 -9.27103e-05 0)
(0.999521 -8.89096e-05 0)
(0.999548 -8.56165e-05 0)
(0.999575 -8.27576e-05 0)
(0.999601 -8.04081e-05 0)
(0.999627 -7.84007e-05 0)
(0.999653 -7.67948e-05 0)
(0.999679 -7.53547e-05 0)
(0.999705 -7.40987e-05 0)
(0.999731 -7.27435e-05 0)
(0.999757 -7.12235e-05 0)
(0.999783 -6.92147e-05 0)
(0.99981 -6.65208e-05 0)
(0.999837 -6.27622e-05 0)
(0.999864 -5.75737e-05 0)
(0.999891 -5.0487e-05 0)
(0.999917 -4.09525e-05 0)
(0.999944 -2.83884e-05 0)
(0.999969 -1.2098e-05 0)
(0.999993 8.55834e-06 0)
(1.00001 3.42538e-05 0)
(1.00003 6.53947e-05 0)
(1.00005 0.000102154 0)
(1.00005 0.00014395 0)
(1.00005 0.000189326 0)
(1.00004 0.000236259 0)
(1.00002 0.000278053 0)
(1.00231 -0.000156169 0)
(1.00238 0.000359015 0)
(1.00235 0.000921748 0)
(1.00221 0.00148828 0)
(1.00196 0.00199236 0)
(1.00163 0.00238834 0)
(1.00125 0.00265473 0)
(1.00085 0.00278729 0)
(1.00045 0.00279479 0)
(1.00008 0.00269283 0)
(0.999749 0.00250049 0)
(0.999466 0.00223865 0)
(0.999239 0.0019315 0)
(0.999074 0.00160316 0)
(0.998968 0.00128189 0)
(0.998911 0.000990174 0)
(0.99889 0.000738672 0)
(0.998892 0.000529074 0)
(0.99891 0.000358894 0)
(0.998939 0.000223874 0)
(0.998974 0.000119098 0)
(0.999011 3.95263e-05 0)
(0.99905 -1.94718e-05 0)
(0.999089 -6.20156e-05 0)
(0.999128 -9.15844e-05 0)
(0.999165 -0.00011112 0)
(0.999202 -0.000123008 0)
(0.999236 -0.000129209 0)
(0.99927 -0.000131256 0)
(0.999302 -0.000130397 0)
(0.999333 -0.000127563 0)
(0.999363 -0.00012351 0)
(0.999392 -0.000118773 0)
(0.99942 -0.000113778 0)
(0.999447 -0.000108814 0)
(0.999474 -0.000104087 0)
(0.9995 -9.97503e-05 0)
(0.999526 -9.58479e-05 0)
(0.999551 -9.24785e-05 0)
(0.999576 -8.95597e-05 0)
(0.999601 -8.71741e-05 0)
(0.999626 -8.51415e-05 0)
(0.999651 -8.35318e-05 0)
(0.999676 -8.20932e-05 0)
(0.999701 -8.08549e-05 0)
(0.999726 -7.9517e-05 0)
(0.999751 -7.80201e-05 0)
(0.999777 -7.60238e-05 0)
(0.999802 -7.33277e-05 0)
(0.999828 -6.95327e-05 0)
(0.999854 -6.42511e-05 0)
(0.99988 -5.69801e-05 0)
(0.999906 -4.7114e-05 0)
(0.999932 -3.39963e-05 0)
(0.999957 -1.68107e-05 0)
(0.999981 5.23783e-06 0)
(1 3.30506e-05 0)
(1.00002 6.73001e-05 0)
(1.00004 0.000108503 0)
(1.00005 0.000156326 0)
(1.00005 0.000209483 0)
(1.00004 0.000265589 0)
(1.00002 0.000316523 0)
(1.0022 -0.000252122 0)
(1.00229 0.000339805 0)
(1.00228 0.00100118 0)
(1.00215 0.00167881 0)
(1.00189 0.00227501 0)
(1.00155 0.00273252 0)
(1.00117 0.0030306 0)
(1.00077 0.00316886 0)
(1.00039 0.0031623 0)
(1.00003 0.00303175 0)
(0.999713 0.00279977 0)
(0.999447 0.00248952 0)
(0.999238 0.00212871 0)
(0.999092 0.00174409 0)
(0.999008 0.0013731 0)
(0.998971 0.00104451 0)
(0.998964 0.000768358 0)
(0.998975 0.0005429 0)
(0.998996 0.000362779 0)
(0.999024 0.000221791 0)
(0.999055 0.000113633 0)
(0.999088 3.22688e-05 0)
(0.99912 -2.75776e-05 0)
(0.999152 -7.04307e-05 0)
(0.999183 -0.000100014 0)
(0.999214 -0.000119419 0)
(0.999243 -0.000131113 0)
(0.999272 -0.000137106 0)
(0.9993 -0.000138953 0)
(0.999327 -0.000137915 0)
(0.999354 -0.000134924 0)
(0.99938 -0.00013074 0)
(0.999406 -0.00012589 0)
(0.999431 -0.000120805 0)
(0.999456 -0.000115767 0)
(0.999481 -0.00011098 0)
(0.999505 -0.000106596 0)
(0.999529 -0.000102656 0)
(0.999553 -9.92606e-05 0)
(0.999577 -9.63205e-05 0)
(0.999601 -9.39256e-05 0)
(0.999625 -9.18849e-05 0)
(0.999649 -9.02799e-05 0)
(0.999673 -8.8846e-05 0)
(0.999697 -8.76253e-05 0)
(0.999721 -8.63058e-05 0)
(0.999745 -8.48381e-05 0)
(0.999769 -8.28725e-05 0)
(0.999794 -8.02111e-05 0)
(0.999818 -7.64457e-05 0)
(0.999843 -7.11766e-05 0)
(0.999868 -6.38813e-05 0)
(0.999893 -5.39122e-05 0)
(0.999918 -4.05544e-05 0)
(0.999942 -2.28819e-05 0)
(0.999967 5.54906e-08 0)
(0.99999 2.94156e-05 0)
(1.00001 6.6208e-05 0)
(1.00003 0.000111455 0)
(1.00004 0.000165312 0)
(1.00005 0.000227066 0)
(1.00004 0.000294336 0)
(1.00002 0.000357581 0)
(1.00204 -0.000364191 0)
(1.00215 0.000308502 0)
(1.00217 0.00108143 0)
(1.00205 0.0018918 0)
(1.00178 0.00258953 0)
(1.00144 0.00310673 0)
(1.00107 0.0034291 0)
(1.00068 0.0035631 0)
(1.00032 0.00353323 0)
(0.999987 0.00336698 0)
(0.999695 0.00309 0)
(0.999452 0.00272673 0)
(0.999263 0.00230786 0)
(0.999136 0.00186072 0)
(0.999075 0.00143701 0)
(0.999057 0.0010741 0)
(0.999062 0.000778787 0)
(0.999078 0.000543225 0)
(0.999099 0.000358154 0)
(0.999123 0.000215221 0)
(0.999147 0.000106728 0)
(0.999171 2.57444e-05 0)
(0.999195 -3.34954e-05 0)
(0.999218 -7.5753e-05 0)
(0.999241 -0.000104853 0)
(0.999264 -0.000123918 0)
(0.999286 -0.000135411 0)
(0.999309 -0.000141319 0)
(0.999331 -0.000143172 0)
(0.999353 -0.000142204 0)
(0.999375 -0.000139328 0)
(0.999398 -0.000135285 0)
(0.99942 -0.000130589 0)
(0.999442 -0.00012566 0)
(0.999465 -0.000120772 0)
(0.999487 -0.000116126 0)
(0.99951 -0.000111871 0)
(0.999533 -0.000108045 0)
(0.999556 -0.000104751 0)
(0.999578 -0.000101895 0)
(0.999601 -9.95752e-05 0)
(0.999624 -9.75935e-05 0)
(0.999647 -9.60422e-05 0)
(0.99967 -9.46496e-05 0)
(0.999693 -9.34697e-05 0)
(0.999716 -9.21845e-05 0)
(0.999739 -9.07554e-05 0)
(0.999762 -8.88296e-05 0)
(0.999785 -8.62156e-05 0)
(0.999809 -8.25043e-05 0)
(0.999832 -7.72937e-05 0)
(0.999855 -7.00534e-05 0)
(0.999879 -6.01122e-05 0)
(0.999902 -4.67154e-05 0)
(0.999926 -2.88529e-05 0)
(0.999949 -5.43925e-06 0)
(0.999972 2.49287e-05 0)
(0.999994 6.36242e-05 0)
(1.00001 0.000112279 0)
(1.00003 0.000171767 0)
(1.00004 0.000242432 0)
(1.00004 0.000322407 0)
(1.00002 0.000401259 0)
(1.00182 -0.000525454 0)
(1.00194 0.00022965 0)
(1.00199 0.00113353 0)
(1.00188 0.0021165 0)
(1.00161 0.0029346 0)
(1.00128 0.00351506 0)
(1.00092 0.00385977 0)
(1.00058 0.00398419 0)
(1.00026 0.00392649 0)
(0.999968 0.00372201 0)
(0.999714 0.00339799 0)
(0.999503 0.00297838 0)
(0.999338 0.00249587 0)
(0.999232 0.0019737 0)
(0.999194 0.00148888 0)
(0.999192 0.00109159 0)
(0.999201 0.000780536 0)
(0.999213 0.000538025 0)
(0.999225 0.000350239 0)
(0.999238 0.000206916 0)
(0.99925 9.91291e-05 0)
(0.999261 1.9173e-05 0)
(0.999273 -3.9087e-05 0)
(0.999285 -8.05531e-05 0)
(0.999298 -0.000109086 0)
(0.999312 -0.000127799 0)
(0.999326 -0.000139119 0)
(0.999341 -0.000144996 0)
(0.999358 -0.000146922 0)
(0.999375 -0.000146099 0)
(0.999393 -0.00014341 0)
(0.999411 -0.000139578 0)
(0.999431 -0.000135099 0)
(0.999451 -0.000130383 0)
(0.999471 -0.000125696 0)
(0.999492 -0.000121233 0)
(0.999513 -0.00011714 0)
(0.999534 -0.000113453 0)
(0.999556 -0.000110277 0)
(0.999578 -0.000107515 0)
(0.9996 -0.00010527 0)
(0.999622 -0.000103341 0)
(0.999644 -0.000101831 0)
(0.999666 -0.000100463 0)
(0.999689 -9.93021e-05 0)
(0.999711 -9.80291e-05 0)
(0.999733 -9.66178e-05 0)
(0.999755 -9.47179e-05 0)
(0.999777 -9.21494e-05 0)
(0.999798 -8.85119e-05 0)
(0.99982 -8.3412e-05 0)
(0.999842 -7.63296e-05 0)
(0.999863 -6.65918e-05 0)
(0.999885 -5.34359e-05 0)
(0.999907 -3.58069e-05 0)
(0.999928 -1.25282e-05 0)
(0.99995 1.80103e-05 0)
(0.999972 5.75429e-05 0)
(0.999992 0.000108425 0)
(1.00001 0.000172555 0)
(1.00003 0.000252162 0)
(1.00003 0.00034717 0)
(1.00001 0.000447493 0)
(1.00149 -0.000697944 0)
(1.00163 0.000131684 0)
(1.00171 0.00117854 0)
(1.00161 0.00237367 0)
(1.00134 0.00331218 0)
(1.00105 0.00393978 0)
(1.00075 0.0042905 0)
(1.00047 0.00438906 0)
(1.00021 0.00429354 0)
(0.999986 0.0040478 0)
(0.999784 0.00367767 0)
(0.999614 0.00320471 0)
(0.999473 0.00266121 0)
(0.999386 0.00205605 0)
(0.999366 0.00150921 0)
(0.999371 0.00108725 0)
(0.999374 0.000771658 0)
(0.999373 0.000530328 0)
(0.99937 0.000345032 0)
(0.999365 0.000204435 0)
(0.99936 9.89696e-05 0)
(0.999356 2.06319e-05 0)
(0.999354 -3.66965e-05 0)
(0.999353 -7.77878e-05 0)
(0.999355 -0.000106364 0)
(0.999359 -0.000125416 0)
(0.999365 -0.000137272 0)
(0.999373 -0.000143801 0)
(0.999383 -0.000146436 0)
(0.999395 -0.000146333 0)
(0.999409 -0.000144346 0)
(0.999424 -0.000141177 0)
(0.999441 -0.000137307 0)
(0.999458 -0.000133142 0)
(0.999477 -0.000128941 0)
(0.999496 -0.0001249 0)
(0.999516 -0.000121167 0)
(0.999536 -0.00011778 0)
(0.999557 -0.000114848 0)
(0.999578 -0.000112278 0)
(0.999599 -0.000110179 0)
(0.999621 -0.000108351 0)
(0.999642 -0.000106906 0)
(0.999664 -0.000105568 0)
(0.999685 -0.000104412 0)
(0.999706 -0.000103121 0)
(0.999727 -0.000101679 0)
(0.999748 -9.97422e-05 0)
(0.999769 -9.71419e-05 0)
(0.999789 -9.34896e-05 0)
(0.999809 -8.84062e-05 0)
(0.999828 -8.13889e-05 0)
(0.999847 -7.178e-05 0)
(0.999866 -5.88314e-05 0)
(0.999885 -4.14884e-05 0)
(0.999904 -1.85432e-05 0)
(0.999923 1.17096e-05 0)
(0.999943 5.12557e-05 0)
(0.999963 0.000102988 0)
(0.999984 0.000169907 0)
(1 0.000256518 0)
(1.00002 0.000366499 0)
(1.00001 0.000495289 0)
(1.00106 -0.000927978 0)
(1.00116 -3.82224e-05 0)
(1.00124 0.00117606 0)
(1.00116 0.00266821 0)
(1.00093 0.00373308 0)
(1.00073 0.00439885 0)
(1.00054 0.00475049 0)
(1.00036 0.00481337 0)
(1.00021 0.00467614 0)
(1.00008 0.00439037 0)
(0.999947 0.00397572 0)
(0.999833 0.00345044 0)
(0.999722 0.00284413 0)
(0.999649 0.00213006 0)
(0.999632 0.00151074 0)
(0.999619 0.00107079 0)
(0.999592 0.000757458 0)
(0.99956 0.000520206 0)
(0.999527 0.000338553 0)
(0.999497 0.000201311 0)
(0.999469 9.84995e-05 0)
(0.999445 2.19179e-05 0)
(0.999426 -3.44355e-05 0)
(0.999412 -7.51444e-05 0)
(0.999402 -0.000103769 0)
(0.999396 -0.00012317 0)
(0.999394 -0.000135571 0)
(0.999396 -0.000142761 0)
(0.999401 -0.000146108 0)
(0.999409 -0.00014673 0)
(0.999419 -0.000145446 0)
(0.999431 -0.000142939 0)
(0.999446 -0.000139678 0)
(0.999461 -0.000136059 0)
(0.999479 -0.000132339 0)
(0.999497 -0.000128714 0)
(0.999516 -0.000125333 0)
(0.999536 -0.000122236 0)
(0.999556 -0.000119536 0)
(0.999577 -0.000117143 0)
(0.999597 -0.000115172 0)
(0.999618 -0.000113427 0)
(0.99964 -0.000112023 0)
(0.999661 -0.00011069 0)
(0.999681 -0.00010951 0)
(0.999702 -0.00010817 0)
(0.999722 -0.000106663 0)
(0.999742 -0.000104656 0)
(0.999761 -0.000101991 0)
(0.99978 -9.82973e-05 0)
(0.999798 -9.32148e-05 0)
(0.999815 -8.62687e-05 0)
(0.999832 -7.68342e-05 0)
(0.999848 -6.4205e-05 0)
(0.999863 -4.73754e-05 0)
(0.999878 -2.51776e-05 0)
(0.999893 4.066e-06 0)
(0.999908 4.24394e-05 0)
(0.999924 9.31718e-05 0)
(0.999943 0.000160252 0)
(0.99996 0.00025113 0)
(0.999989 0.000374974 0)
(0.999995 0.000539605 0)
(1.00046 -0.00112439 0)
(1.00044 -0.000215504 0)
(1.00046 0.00115143 0)
(1.00043 0.00299333 0)
(1.00034 0.00413436 0)
(1.00032 0.00480326 0)
(1.0003 0.00514074 0)
(1.00029 0.00515537 0)
(1.00028 0.00497884 0)
(1.00026 0.00466394 0)
(1.00023 0.00421855 0)
(1.00019 0.00366039 0)
(1.00013 0.00301377 0)
(1.00006 0.00218334 0)
(1 0.00150226 0)
(0.999929 0.00106379 0)
(0.999847 0.000763509 0)
(0.999769 0.000533369 0)
(0.999697 0.000354649 0)
(0.999633 0.00021847 0)
(0.999578 0.000115537 0)
(0.999532 3.79752e-05 0)
(0.999495 -1.98893e-05 0)
(0.999465 -6.23832e-05 0)
(0.999443 -9.29004e-05 0)
(0.999428 -0.0001142 0)
(0.999419 -0.000128434 0)
(0.999414 -0.000137349 0)
(0.999414 -0.000142287 0)
(0.999418 -0.00014435 0)
(0.999426 -0.000144354 0)
(0.999436 -0.000142982 0)
(0.999448 -0.00014071 0)
(0.999463 -0.000137941 0)
(0.999479 -0.000134943 0)
(0.999497 -0.00013192 0)
(0.999515 -0.000129033 0)
(0.999535 -0.000126331 0)
(0.999555 -0.000123936 0)
(0.999575 -0.000121767 0)
(0.999596 -0.000119945 0)
(0.999617 -0.000118284 0)
(0.999638 -0.0001169 0)
(0.999658 -0.000115533 0)
(0.999679 -0.000114265 0)
(0.999699 -0.000112793 0)
(0.999718 -0.000111111 0)
(0.999737 -0.000108893 0)
(0.999755 -0.00010599 0)
(0.999773 -0.000102039 0)
(0.999789 -9.66941e-05 0)
(0.999804 -8.9498e-05 0)
(0.999818 -7.98545e-05 0)
(0.99983 -6.70874e-05 0)
(0.999841 -5.0255e-05 0)
(0.999851 -2.82412e-05 0)
(0.999859 4.57394e-07 0)
(0.999867 3.7891e-05 0)
(0.999874 8.66858e-05 0)
(0.999884 0.000151403 0)
(0.999891 0.000238115 0)
(0.999924 0.000364676 0)
(0.999928 0.000570549 0)
(1.00252 5.40788e-06 0)
(1.00251 3.49551e-05 0)
(1.00243 6.52589e-05 0)
(1.00227 9.45987e-05 0)
(1.00206 0.000121173 0)
(1.00178 0.000143363 0)
(1.00146 0.000159952 0)
(1.00111 0.000170238 0)
(1.00074 0.000174054 0)
(1.00038 0.000171724 0)
(1.00004 0.000163962 0)
(0.999722 0.000151774 0)
(0.999444 0.000136338 0)
(0.999209 0.000118892 0)
(0.999019 0.000100626 0)
(0.998874 8.25815e-05 0)
(0.998772 6.55734e-05 0)
(0.998707 5.01603e-05 0)
(0.998674 3.66629e-05 0)
(0.998668 2.51962e-05 0)
(0.998683 1.57285e-05 0)
(0.998715 8.1209e-06 0)
(0.998758 2.17748e-06 0)
(0.998809 -2.32971e-06 0)
(0.998865 -5.62975e-06 0)
(0.998923 -7.94384e-06 0)
(0.998982 -9.46989e-06 0)
(0.999041 -1.03838e-05 0)
(0.999098 -1.08327e-05 0)
(0.999152 -1.09412e-05 0)
(0.999204 -1.0808e-05 0)
(0.999253 -1.05141e-05 0)
(0.9993 -1.01204e-05 0)
(0.999344 -9.67519e-06 0)
(0.999385 -9.21349e-06 0)
(0.999424 -8.76e-06 0)
(0.999462 -8.33388e-06 0)
(0.999497 -7.94289e-06 0)
(0.999531 -7.59774e-06 0)
(0.999565 -7.29359e-06 0)
(0.999597 -7.03684e-06 0)
(0.999628 -6.81314e-06 0)
(0.999659 -6.62555e-06 0)
(0.99969 -6.45267e-06 0)
(0.999721 -6.29268e-06 0)
(0.999751 -6.11885e-06 0)
(0.999782 -5.92156e-06 0)
(0.999812 -5.66967e-06 0)
(0.999843 -5.34297e-06 0)
(0.999873 -4.90616e-06 0)
(0.999902 -4.32781e-06 0)
(0.999931 -3.56956e-06 0)
(0.999959 -2.59264e-06 0)
(0.999984 -1.36081e-06 0)
(1.00001 1.60473e-07 0)
(1.00003 1.9916e-06 0)
(1.00004 4.14125e-06 0)
(1.00005 6.58988e-06 0)
(1.00006 9.29164e-06 0)
(1.00006 1.21634e-05 0)
(1.00005 1.50763e-05 0)
(1.00004 1.79441e-05 0)
(1.00001 2.04046e-05 0)
(1.00247 -4.99548e-05 0)
(1.00246 -8.44083e-05 0)
(1.00245 -0.000123314 0)
(1.00244 -0.000169751 0)
(1.00241 -0.000223819 0)
(1.00238 -0.000291453 0)
(1.00233 -0.000370307 0)
(1.00227 -0.000470972 0)
(1.00217 -0.000586199 0)
(1.00205 -0.000733699 0)
(1.00187 -0.000895879 0)
(1.00164 -0.00110052 0)
(1.00134 -0.00130665 0)
(1.00096 -0.00155348 0)
(1.00048 -0.00174842 0)
(1.00247 -2.13275e-05 0)
(1.00236 -0.000105205 0)
(1.00235 -0.000174671 0)
(1.00234 -0.000249505 0)
(1.00231 -0.000332479 0)
(1.00228 -0.000423818 0)
(1.00224 -0.000528919 0)
(1.00218 -0.000645642 0)
(1.0021 -0.000783013 0)
(1.00199 -0.000933954 0)
(1.00185 -0.00111273 0)
(1.00167 -0.00130194 0)
(1.00145 -0.00152323 0)
(1.00118 -0.00173745 0)
(1.00086 -0.00197673 0)
(1.00051 -0.00216063 0)
(1.00236 -4.49855e-05 0)
(1.0022 -0.000152282 0)
(1.00219 -0.000251279 0)
(1.00217 -0.000355969 0)
(1.00214 -0.000468603 0)
(1.0021 -0.000589307 0)
(1.00204 -0.00072264 0)
(1.00197 -0.000866486 0)
(1.00189 -0.00102798 0)
(1.00177 -0.00120031 0)
(1.00163 -0.00139414 0)
(1.00146 -0.00159329 0)
(1.00126 -0.00181366 0)
(1.00102 -0.00202092 0)
(1.00078 -0.00224045 0)
(1.00053 -0.00240786 0)
(1.00221 -6.51536e-05 0)
(1.00201 -0.000189477 0)
(1.00199 -0.00031153 0)
(1.00197 -0.000439118 0)
(1.00193 -0.000573862 0)
(1.00188 -0.000715653 0)
(1.00182 -0.000868108 0)
(1.00175 -0.00102907 0)
(1.00166 -0.00120382 0)
(1.00154 -0.00138602 0)
(1.00141 -0.00158317 0)
(1.00125 -0.00178105 0)
(1.00107 -0.00199092 0)
(1.00088 -0.00218462 0)
(1.0007 -0.00238185 0)
(1.00053 -0.00253392 0)
(1.00201 -8.10978e-05 0)
(1.00179 -0.000216876 0)
(1.00177 -0.000355656 0)
(1.00174 -0.00049948 0)
(1.0017 -0.00064931 0)
(1.00165 -0.000804754 0)
(1.00159 -0.000968499 0)
(1.00151 -0.00113838 0)
(1.00142 -0.00131805 0)
(1.00131 -0.00150184 0)
(1.00119 -0.00169471 0)
(1.00105 -0.00188483 0)
(1.0009 -0.00207994 0)
(1.00075 -0.00225826 0)
(1.00062 -0.00243503 0)
(1.00052 -0.00257524 0)
(1.00179 -9.28518e-05 0)
(1.00155 -0.000235214 0)
(1.00153 -0.000384943 0)
(1.0015 -0.000539033 0)
(1.00146 -0.000697819 0)
(1.00141 -0.000860639 0)
(1.00135 -0.00102935 0)
(1.00127 -0.00120182 0)
(1.00118 -0.00138041 0)
(1.00108 -0.00156021 0)
(1.00097 -0.00174429 0)
(1.00085 -0.00192322 0)
(1.00074 -0.00210218 0)
(1.00063 -0.00226506 0)
(1.00054 -0.00242336 0)
(1.0005 -0.00255286 0)
(1.00156 -0.000100727 0)
(1.00131 -0.000245527 0)
(1.00128 -0.000401149 0)
(1.00126 -0.000560376 0)
(1.00122 -0.000722992 0)
(1.00117 -0.000888114 0)
(1.00111 -0.00105689 0)
(1.00104 -0.00122733 0)
(1.00096 -0.00140076 0)
(1.00087 -0.00157313 0)
(1.00077 -0.00174612 0)
(1.00068 -0.0019126 0)
(1.00059 -0.0020759 0)
(1.00051 -0.00222474 0)
(1.00046 -0.00236771 0)
(1.00046 -0.00248891 0)
(1.00131 -0.000105165 0)
(1.00106 -0.000249071 0)
(1.00104 -0.000406372 0)
(1.00101 -0.000566535 0)
(1.00098 -0.000728888 0)
(1.00093 -0.000892391 0)
(1.00087 -0.00105763 0)
(1.00081 -0.00122281 0)
(1.00074 -0.00138848 0)
(1.00066 -0.00155147 0)
(1.00059 -0.00171246 0)
(1.00051 -0.00186636 0)
(1.00045 -0.00201516 0)
(1.0004 -0.00215146 0)
(1.00038 -0.00228145 0)
(1.00041 -0.00239542 0)
(1.00107 -0.000106702 0)
(1.00082 -0.000247132 0)
(1.0008 -0.000402739 0)
(1.00078 -0.000560534 0)
(1.00075 -0.000719492 0)
(1.0007 -0.000878487 0)
(1.00065 -0.00103768 0)
(1.0006 -0.00119548 0)
(1.00054 -0.00135194 0)
(1.00048 -0.00150464 0)
(1.00042 -0.00165364 0)
(1.00036 -0.00179554 0)
(1.00032 -0.00193137 0)
(1.00029 -0.00205677 0)
(1.0003 -0.002176 0)
(1.00035 -0.0022839 0)
(1.00083 -0.000105887 0)
(1.0006 -0.00024095 0)
(1.00058 -0.000392286 0)
(1.00056 -0.000545234 0)
(1.00053 -0.000698516 0)
(1.00049 -0.000850979 0)
(1.00045 -0.00100247 0)
(1.0004 -0.00115165 0)
(1.00035 -0.0012982 0)
(1.0003 -0.00144041 0)
(1.00026 -0.00157791 0)
(1.00022 -0.00170869 0)
(1.0002 -0.00183308 0)
(1.00019 -0.00194903 0)
(1.00022 -0.00205928 0)
(1.00028 -0.00216199 0)
(1.0006 -0.000103251 0)
(1.00038 -0.00023165 0)
(1.00037 -0.000376847 0)
(1.00035 -0.000523191 0)
(1.00032 -0.000669239 0)
(1.00029 -0.000813862 0)
(1.00026 -0.000956687 0)