/*--------------------------------*- C++ -*----------------------------------*\
| =========                 |                                                 |
| \\      /  F ield         | foam-extend: Open Source CFD                    |
|  \\    /   O peration     | Version:     4.1-20200408                       |
|   \\  /    A nd           | Web:         http://www.foam-extend.org         |
|    \\/     M anipulation  |                                                 |
\*---------------------------------------------------------------------------*/
FoamFile
{
    version     2.0;
    format      ascii;
    class       volScalarField::DimensionedInternalField;
    location    "0.0485000";
    object      V0;
}
// * * * * * * * * * * * * * * * * * * * * * * * * * * * * * * * * * * * * * //

dimensions      [0 3 0 0 0 0 0];

value           nonuniform List<scalar> 
1952
(
1.37941e-14
2.29914e-14
3.2191e-14
4.13923e-14
5.05991e-14
5.98083e-14
6.90254e-14
7.82472e-14
8.74791e-14
9.67243e-14
1.05986e-13
1.15275e-13
1.24592e-13
1.3395e-13
1.43275e-13
4.59797e-15
1.37931e-14
2.29898e-14
3.21888e-14
4.13894e-14
5.05957e-14
5.98042e-14
6.90207e-14
7.82419e-14
8.74732e-14
9.67178e-14
1.05979e-13
1.15267e-13
1.24584e-13
1.33942e-13
1.43265e-13
4.59764e-15
1.37921e-14
2.29882e-14
3.21865e-14
4.13865e-14
5.05922e-14
5.98001e-14
6.9016e-14
7.82366e-14
8.74673e-14
9.67114e-14
1.05972e-13
1.1526e-13
1.24576e-13
1.33933e-13
1.43256e-13
4.59732e-15
1.37912e-14
2.29866e-14
3.21843e-14
4.13837e-14
5.05888e-14
5.9796e-14
6.90114e-14
7.82313e-14
8.74615e-14
9.67049e-14
1.05965e-13
1.15252e-13
1.24567e-13
1.33924e-13
1.43246e-13
4.597e-15
1.37902e-14
2.2985e-14
3.21821e-14
4.13808e-14
5.05853e-14
5.97919e-14
6.90067e-14
7.8226e-14
8.74556e-14
9.66984e-14
1.05958e-13
1.15244e-13
1.24559e-13
1.33915e-13
1.43237e-13
4.59668e-15
1.37893e-14
2.29834e-14
3.21799e-14
4.1378e-14
5.05819e-14
5.97879e-14
6.9002e-14
7.82208e-14
8.74497e-14
9.6692e-14
1.05951e-13
1.15237e-13
1.24551e-13
1.33906e-13
1.43227e-13
4.59637e-15
1.37883e-14
2.29818e-14
3.21776e-14
4.13751e-14
5.05783e-14
5.97837e-14
6.89972e-14
7.82153e-14
8.74436e-14
9.66853e-14
1.05943e-13
1.15229e-13
1.24542e-13
1.33897e-13
1.43218e-13
4.59604e-15
1.37873e-14
2.29801e-14
3.21753e-14
4.13721e-14
5.05747e-14
5.97794e-14
6.89922e-14
7.82097e-14
8.74374e-14
9.66785e-14
1.05936e-13
1.15221e-13
1.24534e-13
1.33888e-13
1.43208e-13
4.5957e-15
1.37864e-14
2.29787e-14
3.21732e-14
4.13695e-14
5.05715e-14
5.97757e-14
6.8988e-14
7.8205e-14
8.74321e-14
9.66727e-14
1.05929e-13
1.15214e-13
1.24526e-13
1.3388e-13
1.43199e-13
4.59541e-15
1.37855e-14
2.29771e-14
3.21711e-14
4.13667e-14
5.05681e-14
5.97717e-14
6.89834e-14
7.81998e-14
8.74263e-14
9.66663e-14
1.05923e-13
1.15206e-13
1.24518e-13
1.33871e-13
1.4319e-13
4.5951e-15
1.37846e-14
2.29757e-14
3.21691e-14
4.13642e-14
5.0565e-14
5.9768e-14
6.89791e-14
7.8195e-14
8.7421e-14
9.66605e-14
1.05916e-13
1.152e-13
1.24511e-13
1.33864e-13
1.43182e-13
4.59481e-15
1.37836e-14
2.29741e-14
3.21668e-14
4.13613e-14
5.05615e-14
5.97638e-14
6.89743e-14
7.81896e-14
8.74149e-14
9.66539e-14
1.05909e-13
1.15192e-13
1.24503e-13
1.33855e-13
1.43172e-13
4.59448e-15
1.37826e-14
2.29724e-14
3.21645e-14
4.13583e-14
5.05579e-14
5.97595e-14
6.89694e-14
7.81841e-14
8.74088e-14
9.66472e-14
1.05902e-13
1.15184e-13
1.24494e-13
1.33846e-13
1.43163e-13
4.59415e-15
1.37819e-14
2.29711e-14
3.21627e-14
4.13561e-14
5.05552e-14
5.97564e-14
6.89657e-14
7.81799e-14
8.74042e-14
9.66421e-14
1.05896e-13
1.15178e-13
1.24488e-13
1.33839e-13
1.43155e-13
4.5939e-15
1.37813e-14
2.29702e-14
3.21614e-14
4.13544e-14
5.05531e-14
5.97539e-14
6.8963e-14
7.81768e-14
8.74008e-14
9.66384e-14
1.05892e-13
1.15174e-13
1.24483e-13
1.33834e-13
1.4315e-13
4.59371e-15
1.37799e-14
2.29679e-14
3.21581e-14
4.13502e-14
5.0548e-14
5.97479e-14
6.89561e-14
7.8169e-14
8.73921e-14
9.66288e-14
1.05882e-13
1.15162e-13
1.24471e-13
1.33821e-13
1.43136e-13
4.59324e-15
1.37792e-14
2.29667e-14
3.21565e-14
4.1348e-14
5.05454e-14
5.97449e-14
6.89526e-14
7.81651e-14
8.73877e-14
9.66241e-14
1.05877e-13
1.15157e-13
1.24465e-13
1.33815e-13
1.4313e-13
4.593e-15
1.37783e-14
2.29652e-14
3.21544e-14
4.13455e-14
5.05423e-14
5.97412e-14
6.89483e-14
7.81604e-14
8.73825e-14
9.66183e-14
1.05871e-13
1.1515e-13
1.24458e-13
1.33807e-13
1.43122e-13
4.59271e-15
1.37774e-14
2.29637e-14
3.21524e-14
4.13428e-14
5.05391e-14
5.97374e-14
6.8944e-14
7.81555e-14
8.73771e-14
9.66124e-14
1.05864e-13
1.15143e-13
1.24451e-13
1.33799e-13
1.43113e-13
4.59241e-15
1.37768e-14
2.29627e-14
3.21509e-14
4.1341e-14
5.05368e-14
5.97348e-14
6.8941e-14
7.81521e-14
8.73734e-14
9.66084e-14
1.0586e-13
1.15139e-13
1.24446e-13
1.33794e-13
1.43108e-13
4.5922e-15
1.37755e-14
2.29606e-14
3.2148e-14
4.13373e-14
5.05323e-14
5.97295e-14
6.89349e-14
7.81453e-14
8.73658e-14
9.66001e-14
1.05851e-13
1.15129e-13
1.24435e-13
1.33783e-13
1.43096e-13
4.59178e-15
1.37746e-14
2.2959e-14
3.21458e-14
4.13345e-14
5.0529e-14
5.97256e-14
6.89304e-14
7.81402e-14
8.73602e-14
9.6594e-14
1.05844e-13
1.15122e-13
1.24428e-13
1.33775e-13
1.43087e-13
4.59147e-15
1.37741e-14
2.29581e-14
3.21446e-14
4.13329e-14
5.05271e-14
5.97233e-14
6.89279e-14
7.81374e-14
8.73571e-14
9.65907e-14
1.05841e-13
1.15118e-13
1.24424e-13
1.33771e-13
1.43083e-13
4.59128e-15
1.37726e-14
2.29557e-14
3.21411e-14
4.13285e-14
5.05217e-14
5.9717e-14
6.89207e-14
7.81293e-14
8.73482e-14
9.65809e-14
1.0583e-13
1.15107e-13
1.24412e-13
1.33758e-13
1.43069e-13
4.59079e-15
1.37719e-14
2.29545e-14
3.21395e-14
4.13264e-14
5.05192e-14
5.97142e-14
6.89174e-14
7.81257e-14
8.73443e-14
9.65767e-14
1.05826e-13
1.15102e-13
1.24407e-13
1.33753e-13
1.43064e-13
4.59055e-15
1.3771e-14
2.29531e-14
3.21376e-14
4.1324e-14
5.05163e-14
5.97107e-14
6.89135e-14
7.81213e-14
8.73394e-14
9.65715e-14
1.0582e-13
1.15096e-13
1.24401e-13
1.33746e-13
1.43057e-13
4.59027e-15
1.37699e-14
2.29513e-14
3.21351e-14
4.13209e-14
5.05125e-14
5.97063e-14
6.89085e-14
7.81158e-14
8.73334e-14
9.65649e-14
1.05813e-13
1.15088e-13
1.24393e-13
1.33738e-13
1.43049e-13
4.58991e-15
1.37687e-14
2.29493e-14
3.21323e-14
4.13173e-14
5.05082e-14
5.97013e-14
6.89028e-14
7.81095e-14
8.73265e-14
9.65575e-14
1.05805e-13
1.1508e-13
1.24384e-13
1.33729e-13
1.43039e-13
4.5895e-15
1.37682e-14
2.29484e-14
3.21311e-14
4.13158e-14
5.05064e-14
5.96992e-14
6.89005e-14
7.8107e-14
8.73239e-14
9.65549e-14
1.05803e-13
1.15077e-13
1.24382e-13
1.33727e-13
1.43036e-13
4.58932e-15
1.37668e-14
2.29462e-14
3.2128e-14
4.13119e-14
5.05016e-14
5.96937e-14
6.88943e-14
7.81001e-14
8.73164e-14
9.65467e-14
1.05794e-13
1.15068e-13
1.24372e-13
1.33717e-13
1.43026e-13
4.58887e-15
1.37657e-14
2.29444e-14
3.21255e-14
4.13087e-14
5.04978e-14
5.96894e-14
6.88894e-14
7.80947e-14
8.73106e-14
9.65406e-14
1.05788e-13
1.15062e-13
1.24365e-13
1.3371e-13
1.4302e-13
4.58851e-15
1.37643e-14
2.2942e-14
3.21222e-14
4.13046e-14
5.04927e-14
5.96835e-14
6.88828e-14
7.80874e-14
8.73028e-14
9.65322e-14
1.05779e-13
1.15053e-13
1.24356e-13
1.337e-13
1.4301e-13
4.58803e-15
1.37636e-14
2.29409e-14
3.21206e-14
4.13026e-14
5.04904e-14
5.96809e-14
6.88799e-14
7.80844e-14
8.72997e-14
9.65292e-14
1.05776e-13
1.1505e-13
1.24354e-13
1.33699e-13
1.43009e-13
4.58779e-15
1.37619e-14
2.29381e-14
3.21167e-14
4.12977e-14
5.04845e-14
5.96741e-14
6.88722e-14
7.8076e-14
8.72907e-14
9.65195e-14
1.05766e-13
1.15039e-13
1.24343e-13
1.33688e-13
1.42998e-13
4.58723e-15
1.37607e-14
2.29361e-14
3.2114e-14
4.12943e-14
5.04804e-14
5.96694e-14
6.8867e-14
7.80704e-14
8.72848e-14
9.65134e-14
1.0576e-13
1.15033e-13
1.24338e-13
1.33683e-13
1.42994e-13
4.58683e-15
1.37592e-14
2.29337e-14
3.21106e-14
4.129e-14
5.04752e-14
5.96635e-14
6.88604e-14
7.80632e-14
8.72771e-14
9.65055e-14
1.05752e-13
1.15025e-13
1.2433e-13
1.33676e-13
1.42987e-13
4.58634e-15
1.37577e-14
2.29312e-14
3.2107e-14
4.12855e-14
5.04698e-14
5.96573e-14
6.88534e-14
7.80556e-14
8.72691e-14
9.64971e-14
1.05744e-13
1.15017e-13
1.24323e-13
1.33668e-13
1.42981e-13
4.58582e-15
1.37559e-14
2.29281e-14
3.21028e-14
4.12802e-14
5.04633e-14
5.96498e-14
6.88449e-14
7.80463e-14
8.72592e-14
9.64868e-14
1.05734e-13
1.15007e-13
1.24313e-13
1.33659e-13
1.42973e-13
4.58522e-15
1.3754e-14
2.2925e-14
3.20984e-14
4.12746e-14
5.04565e-14
5.96419e-14
6.8836e-14
7.80365e-14
8.72488e-14
9.64758e-14
1.05723e-13
1.14996e-13
1.24303e-13
1.3365e-13
1.42965e-13
4.58459e-15
1.37522e-14
2.29221e-14
3.20943e-14
4.12694e-14
5.045e-14
5.96344e-14
6.88274e-14
7.80271e-14
8.72387e-14
9.64653e-14
1.05712e-13
1.14986e-13
1.24294e-13
1.33642e-13
1.4296e-13
4.58401e-15
1.375e-14
2.29184e-14
3.20891e-14
4.12627e-14
5.04418e-14
5.96248e-14
6.88163e-14
7.80147e-14
8.72251e-14
9.64509e-14
1.05698e-13
1.14971e-13
1.24281e-13
1.3363e-13
1.4295e-13
4.58328e-15
1.3748e-14
2.2915e-14
3.20843e-14
4.12565e-14
5.0434e-14
5.96155e-14
6.88054e-14
7.80026e-14
8.72116e-14
9.64364e-14
1.05683e-13
1.14956e-13
1.24267e-13
1.33618e-13
1.42942e-13
4.58262e-15
1.37458e-14
2.29113e-14
3.20789e-14
4.12495e-14
5.04252e-14
5.96049e-14
6.87928e-14
7.79882e-14
8.71953e-14
9.64188e-14
1.05664e-13
1.14937e-13
1.2425e-13
1.33602e-13
1.42931e-13
4.58189e-15
1.37434e-14
2.29073e-14
3.20732e-14
4.12419e-14
5.04155e-14
5.95931e-14
6.87784e-14
7.79715e-14
8.71759e-14
9.63973e-14
1.05641e-13
1.14913e-13
1.24227e-13
1.33582e-13
1.42918e-13
4.58112e-15
1.37412e-14
2.29035e-14
3.20675e-14
4.12344e-14
5.04057e-14
5.95809e-14
6.87633e-14
7.79536e-14
8.71545e-14
9.63727e-14
1.05613e-13
1.14882e-13
1.24196e-13
1.33553e-13
1.42903e-13
4.58038e-15
1.37389e-14
2.28996e-14
3.20617e-14
4.12265e-14
5.03953e-14
5.95678e-14
6.87467e-14
7.79335e-14
8.71297e-14
9.63437e-14
1.05579e-13
1.14843e-13
1.24153e-13
1.33509e-13
1.42869e-13
4.57963e-15
1.37369e-14
2.28961e-14
3.20565e-14
4.12193e-14
5.03855e-14
5.95551e-14
6.87302e-14
7.7913e-14
8.71035e-14
9.63121e-14
1.0554e-13
1.14797e-13
1.24098e-13
1.33444e-13
1.42794e-13
4.57898e-15
1.37351e-14
2.2893e-14
3.20518e-14
4.12125e-14
5.03761e-14
5.95426e-14
6.87133e-14
7.78915e-14
8.70753e-14
9.62773e-14
1.05495e-13
1.14742e-13
1.2403e-13
1.33359e-13
1.42679e-13
4.57842e-15
1.37335e-14
2.28901e-14
3.20474e-14
4.1206e-14
5.03669e-14
5.95299e-14
6.8696e-14
7.78688e-14
8.70447e-14
9.62387e-14
1.05444e-13
1.14679e-13
1.23949e-13
1.33257e-13
1.42548e-13
4.57792e-15
1.37332e-14
2.28893e-14
3.20456e-14
4.12029e-14
5.03616e-14
5.95217e-14
6.86834e-14
7.78509e-14
8.70186e-14
9.62041e-14
1.05396e-13
1.14617e-13
1.23867e-13
1.33154e-13
1.42421e-13
4.57781e-15
1.3733e-14
2.28887e-14
3.20443e-14
4.12002e-14
5.03569e-14
5.95138e-14
6.8671e-14
7.78327e-14
8.69916e-14
9.61676e-14
1.05343e-13
1.1455e-13
1.23776e-13
1.3304e-13
1.42286e-13
4.57777e-15
1.37339e-14
2.28899e-14
3.20455e-14
4.12007e-14
5.03561e-14
5.95104e-14
6.86638e-14
7.78199e-14
8.69704e-14
9.61366e-14
1.05295e-13
1.14487e-13
1.23684e-13
1.32925e-13
1.42147e-13
4.57809e-15
1.3736e-14
2.28931e-14
3.20495e-14
4.12048e-14
5.03595e-14
5.9512e-14
6.86624e-14
7.78135e-14
8.69565e-14
9.61127e-14
1.05255e-13
1.14431e-13
1.23595e-13
1.32813e-13
1.42e-13
4.57882e-15
1.37396e-14
2.28989e-14
3.2057e-14
4.12133e-14
5.03687e-14
5.95208e-14
6.86703e-14
7.78186e-14
8.69572e-14
9.61054e-14
1.05234e-13
1.14392e-13
1.2352e-13
1.32708e-13
1.41837e-13
4.58005e-15
1.37448e-14
2.29074e-14
3.20685e-14
4.12272e-14
5.03844e-14
5.95373e-14
6.86871e-14
7.78336e-14
8.69695e-14
9.61106e-14
1.05227e-13
1.14366e-13
1.23457e-13
1.32608e-13
1.4166e-13
4.5818e-15
1.37514e-14
2.29181e-14
3.2083e-14
4.12447e-14
5.0404e-14
5.95573e-14
6.87061e-14
7.78488e-14
8.69797e-14
9.61113e-14
1.05216e-13
1.14337e-13
1.23398e-13
1.32515e-13
1.41491e-13
4.58402e-15
1.37581e-14
2.29287e-14
3.20968e-14
4.12604e-14
5.04206e-14
5.95731e-14
6.87198e-14
7.78576e-14
8.69827e-14
9.6104e-14
1.05199e-13
1.14302e-13
1.23345e-13
1.32434e-13
1.41356e-13
4.58632e-15
1.37634e-14
2.29369e-14
3.2107e-14
4.12715e-14
5.04317e-14
5.95827e-14
6.87271e-14
7.78604e-14
8.6981e-14
9.6094e-14
1.05182e-13
1.14271e-13
1.23304e-13
1.32371e-13
1.41271e-13
4.58815e-15
1.37659e-14
2.29408e-14
3.21117e-14
4.12761e-14
5.04355e-14
5.95846e-14
6.87267e-14
7.7856e-14
8.69731e-14
9.60795e-14
1.05164e-13
1.14243e-13
1.23274e-13
1.32328e-13
1.41232e-13
4.58908e-15
1.37656e-14
2.294e-14
3.21102e-14
4.12735e-14
5.04314e-14
5.95783e-14
6.87182e-14
7.78443e-14
8.69593e-14
9.60612e-14
1.05146e-13
1.14219e-13
1.23256e-13
1.32304e-13
1.41226e-13
4.589e-15
1.37636e-14
2.29366e-14
3.21055e-14
4.12675e-14
5.04241e-14
5.95695e-14
6.87083e-14
7.78326e-14
8.69476e-14
9.60478e-14
1.05136e-13
1.14207e-13
1.23258e-13
1.32305e-13
1.41258e-13
4.58833e-15
1.37589e-14
2.2929e-14
3.20952e-14
4.12548e-14
5.04095e-14
5.95531e-14
6.86909e-14
7.78143e-14
8.69301e-14
9.60304e-14
1.05124e-13
1.14198e-13
1.23265e-13
1.32318e-13
1.41308e-13
4.58674e-15
1.37528e-14
2.29192e-14
3.20821e-14
4.1239e-14
5.03915e-14
5.95337e-14
6.86711e-14
7.77945e-14
8.69124e-14
9.60149e-14
1.05116e-13
1.14196e-13
1.23283e-13
1.32348e-13
1.41382e-13
4.58469e-15
1.37452e-14
2.29069e-14
3.20655e-14
4.12189e-14
5.03688e-14
5.95093e-14
6.86462e-14
7.77701e-14
8.68907e-14
9.59968e-14
1.05107e-13
1.14196e-13
1.23305e-13
1.32387e-13
1.41469e-13
4.58214e-15
1.37369e-14
2.28932e-14
3.2047e-14
4.11961e-14
5.03428e-14
5.94812e-14
6.86174e-14
7.77421e-14
8.68657e-14
9.59768e-14
1.05097e-13
1.14198e-13
1.23332e-13
1.32434e-13
1.41565e-13
4.57933e-15
1.37278e-14
2.28784e-14
3.20266e-14
4.11708e-14
5.03133e-14
5.94487e-14
6.85835e-14
7.77086e-14
8.68351e-14
9.59521e-14
1.05083e-13
1.14199e-13
1.2336e-13
1.32485e-13
1.41663e-13
4.57631e-15
1.37189e-14
2.28637e-14
3.20065e-14
4.11455e-14
5.02833e-14
5.94152e-14
6.85476e-14
7.76725e-14
8.68015e-14
9.59248e-14
1.05068e-13
1.14202e-13
1.2339e-13
1.32542e-13
1.41763e-13
4.57332e-15
1.37099e-14
2.28487e-14
3.1986e-14
4.11199e-14
5.0253e-14
5.93805e-14
6.85093e-14
7.76325e-14
8.67621e-14
9.58907e-14
1.05044e-13
1.14198e-13
1.23413e-13
1.32593e-13
1.41854e-13
4.57026e-15
1.37008e-14
2.28338e-14
3.19655e-14
4.10943e-14
5.02226e-14
5.93452e-14
6.84687e-14
7.75883e-14
8.6716e-14
9.58476e-14
1.05009e-13
1.1418e-13
1.2342e-13
1.3263e-13
1.4192e-13
4.56724e-15
1.36915e-14
2.28182e-14
3.19435e-14
4.10662e-14
5.01893e-14
5.93087e-14
6.84318e-14
7.75555e-14
8.66904e-14
9.58336e-14
1.05006e-13
1.14188e-13
1.23432e-13
1.32655e-13
1.41949e-13
4.56413e-15
1.36841e-14
2.28063e-14
3.19281e-14
4.1049e-14
5.01728e-14
5.92973e-14
6.84297e-14
7.75672e-14
8.67177e-14
9.58774e-14
1.05059e-13
1.14242e-13
1.23467e-13
1.32681e-13
1.41952e-13
4.56159e-15
1.36848e-14
2.28086e-14
3.19339e-14
4.10606e-14
5.01921e-14
5.93257e-14
6.84667e-14
7.76124e-14
8.67693e-14
9.59348e-14
1.05116e-13
1.143e-13
1.23513e-13
1.32718e-13
1.41959e-13
4.56166e-15
1.36914e-14
2.28201e-14
3.19506e-14
4.10828e-14
5.02196e-14
5.93585e-14
6.8504e-14
7.76535e-14
8.6812e-14
9.59789e-14
1.05159e-13
1.14344e-13
1.2355e-13
1.32754e-13
1.41979e-13
4.56383e-15
1.36977e-14
2.28305e-14
3.19648e-14
4.11007e-14
5.02408e-14
5.93833e-14
6.85326e-14
7.76859e-14
8.68469e-14
9.60155e-14
1.05194e-13
1.14378e-13
1.23578e-13
1.3278e-13
1.41997e-13
4.56593e-15
1.37032e-14
2.28396e-14
3.19777e-14
4.11172e-14
5.02609e-14
5.94066e-14
6.85585e-14
7.77139e-14
8.68759e-14
9.60449e-14
1.05222e-13
1.14404e-13
1.236e-13
1.32797e-13
1.42006e-13
4.56772e-15
1.37084e-14
2.28482e-14
3.19895e-14
4.11322e-14
5.02788e-14
5.94272e-14
6.85814e-14
7.77388e-14
8.69017e-14
9.60711e-14
1.05247e-13
1.14427e-13
1.23619e-13
1.32812e-13
1.42012e-13
4.56945e-15
1.37129e-14
2.28557e-14
3.19999e-14
4.11454e-14
5.02945e-14
5.94452e-14
6.8601e-14
7.77597e-14
8.69231e-14
9.60923e-14
1.05267e-13
1.14445e-13
1.23633e-13
1.32821e-13
1.42015e-13
4.57096e-15
1.37164e-14
2.28614e-14
3.20078e-14
4.11552e-14
5.0306e-14
5.94582e-14
6.8615e-14
7.77743e-14
8.69375e-14
9.61061e-14
1.05279e-13
1.14455e-13
1.23639e-13
1.32823e-13
1.4201e-13
4.57212e-15
1.37196e-14
2.28668e-14
3.20151e-14
4.11644e-14
5.03168e-14
5.94703e-14
6.8628e-14
7.77878e-14
8.69509e-14
9.61187e-14
1.0529e-13
1.14463e-13
1.23645e-13
1.32825e-13
1.42006e-13
4.57321e-15
1.37227e-14
2.28718e-14
3.20221e-14
4.1173e-14
5.03269e-14
5.94816e-14
6.86401e-14
7.78004e-14
8.69634e-14
9.61307e-14
1.05301e-13
1.14472e-13
1.23651e-13
1.32828e-13
1.42005e-13
4.57424e-15
1.3725e-14
2.28755e-14
3.20271e-14
4.11792e-14
5.0334e-14
5.94895e-14
6.86484e-14
7.78087e-14
8.69712e-14
9.61376e-14
1.05306e-13
1.14476e-13
1.23652e-13
1.32825e-13
1.41998e-13
4.575e-15
1.3727e-14
2.28788e-14
3.20316e-14
4.11847e-14
5.03404e-14
5.94964e-14
6.86556e-14
7.78159e-14
8.69779e-14
9.61436e-14
1.05311e-13
1.14479e-13
1.23652e-13
1.32823e-13
1.41993e-13
4.57568e-15
1.37287e-14
2.28817e-14
3.20354e-14
4.11894e-14
5.03458e-14
5.95023e-14
6.86617e-14
7.78219e-14
8.69835e-14
9.61484e-14
1.05315e-13
1.14481e-13
1.23652e-13
1.32821e-13
1.41988e-13
4.57626e-15
1.37302e-14
2.28841e-14
3.20387e-14
4.11934e-14
5.03503e-14
5.95072e-14
6.86667e-14
7.78269e-14
8.6988e-14
9.61523e-14
1.05317e-13
1.14482e-13
1.23652e-13
1.32819e-13
1.41983e-13
4.57676e-15
1.37313e-14
2.28858e-14
3.2041e-14
4.11962e-14
5.03534e-14
5.95105e-14
6.867e-14
7.78299e-14
8.69905e-14
9.6154e-14
1.05318e-13
1.14482e-13
1.2365e-13
1.32815e-13
1.41977e-13
4.57713e-15
1.37322e-14
2.28873e-14
3.20429e-14
4.11986e-14
5.0356e-14
5.95132e-14
6.86726e-14
7.78322e-14
8.69924e-14
9.61552e-14
1.05318e-13
1.14481e-13
1.23647e-13
1.32811e-13
1.41971e-13
4.57743e-15
1.37328e-14
2.28883e-14
3.20443e-14
4.12002e-14
5.03578e-14
5.9515e-14
6.86742e-14
7.78336e-14
8.69932e-14
9.61554e-14
1.05318e-13
1.14479e-13
1.23644e-13
1.32807e-13
1.41965e-13
4.57766e-15
1.37333e-14
2.28891e-14
3.20453e-14
4.12014e-14
5.0359e-14
5.95161e-14
6.86752e-14
7.78342e-14
8.69933e-14
9.61549e-14
1.05316e-13
1.14477e-13
1.23641e-13
1.32802e-13
1.41959e-13
4.57783e-15
1.3734e-14
2.28902e-14
3.20468e-14
4.12032e-14
5.0361e-14
5.95183e-14
6.86774e-14
7.78363e-14
8.69951e-14
9.61563e-14
1.05317e-13
1.14477e-13
1.2364e-13
1.32801e-13
1.41957e-13
4.57806e-15
1.37339e-14
2.289e-14
3.20465e-14
4.12026e-14
5.03602e-14
5.95172e-14
6.86758e-14
7.78341e-14
8.69923e-14
9.61527e-14
1.05313e-13
1.14472e-13
1.23634e-13
1.32793e-13
1.41948e-13
4.57803e-15
1.37338e-14
2.28899e-14
3.20462e-14
4.12023e-14
5.03597e-14
5.95163e-14
6.86745e-14
7.78324e-14
8.69901e-14
9.61499e-14
1.05309e-13
1.14467e-13
1.23628e-13
1.32787e-13
1.41941e-13
4.57801e-15
1.37345e-14
2.28909e-14
3.20476e-14
4.12039e-14
5.03616e-14
5.95184e-14
6.86768e-14
7.78347e-14
8.69923e-14
9.6152e-14
1.05311e-13
1.14469e-13
1.2363e-13
1.32788e-13
1.41941e-13
4.57822e-15
1.37341e-14
2.28902e-14
3.20466e-14
4.12026e-14
5.03598e-14
5.95162e-14
6.86741e-14
7.78315e-14
8.69884e-14
9.61474e-14
1.05306e-13
1.14463e-13
1.23623e-13
1.3278e-13
1.41933e-13
4.57809e-15
1.37339e-14
2.28899e-14
3.20462e-14
4.1202e-14
5.0359e-14
5.95152e-14
6.86727e-14
7.78298e-14
8.69863e-14
9.61449e-14
1.05303e-13
1.14459e-13
1.23619e-13
1.32775e-13
1.41927e-13
4.57804e-15
1.37339e-14
2.28899e-14
3.20461e-14
4.12018e-14
5.03587e-14
5.95147e-14
6.86721e-14
7.78289e-14
8.69852e-14
9.61434e-14
1.05301e-13
1.14457e-13
1.23616e-13
1.32772e-13
1.41923e-13
4.57803e-15
1.37337e-14
2.28895e-14
3.20455e-14
4.12011e-14
5.03578e-14
5.95135e-14
6.86706e-14
7.78271e-14
8.69831e-14
9.61409e-14
1.05298e-13
1.14454e-13
1.23612e-13
1.32768e-13
1.41919e-13
4.57796e-15
1.37333e-14
2.2889e-14
3.20448e-14
4.12001e-14
5.03565e-14
5.95119e-14
6.86687e-14
7.78248e-14
8.69804e-14
9.61378e-14
1.05294e-13
1.1445e-13
1.23607e-13
1.32763e-13
1.41913e-13
4.57786e-15
1.3733e-14
2.28884e-14
3.20439e-14
4.1199e-14
5.03551e-14
5.95102e-14
6.86666e-14
7.78224e-14
8.69776e-14
9.61346e-14
1.05291e-13
1.14445e-13
1.23603e-13
1.32758e-13
1.41907e-13
4.57774e-15
1.37325e-14
2.28875e-14
3.20427e-14
4.11973e-14
5.03531e-14
5.95078e-14
6.86638e-14
7.78191e-14
8.69738e-14
9.61303e-14
1.05286e-13
1.1444e-13
1.23597e-13
1.32751e-13
1.41901e-13
4.57757e-15
1.37322e-14
2.28871e-14
3.20421e-14
4.11965e-14
5.03521e-14
5.95066e-14
6.86623e-14
7.78174e-14
8.69718e-14
9.6128e-14
1.05283e-13
1.14437e-13
1.23594e-13
1.32748e-13
1.41897e-13
4.57749e-15
1.37318e-14
2.28864e-14
3.20411e-14
4.11952e-14
5.03505e-14
5.95046e-14
6.866e-14
7.78148e-14
8.69688e-14
9.61247e-14
1.0528e-13
1.14433e-13
1.23589e-13
1.32743e-13
1.41891e-13
4.57734e-15
1.37313e-14
2.28856e-14
3.204e-14
4.11938e-14
5.03487e-14
5.95026e-14
6.86577e-14
7.7812e-14
8.69657e-14
9.61212e-14
1.05276e-13
1.14429e-13
1.23585e-13
1.32738e-13
1.41886e-13
4.5772e-15
1.37308e-14
2.28847e-14
3.20386e-14
4.11921e-14
5.03466e-14
5.95e-14
6.86547e-14
7.78086e-14
8.69619e-14
9.61169e-14
1.05271e-13
1.14424e-13
1.23579e-13
1.32732e-13
1.41879e-13
4.577e-15
1.37306e-14
2.28843e-14
3.20382e-14
4.11915e-14
5.03459e-14
5.94992e-14
6.86537e-14
7.78075e-14
8.69605e-14
9.61154e-14
1.05269e-13
1.14422e-13
1.23577e-13
1.3273e-13
1.41877e-13
4.57694e-15
1.37297e-14
2.28829e-14
3.20362e-14
4.11889e-14
5.03427e-14
5.94954e-14
6.86492e-14
7.78024e-14
8.69549e-14
9.61092e-14
1.05262e-13
1.14414e-13
1.23569e-13
1.32721e-13
1.41868e-13
4.57665e-15
1.37291e-14
2.28819e-14
3.20347e-14
4.1187e-14
5.03404e-14
5.94927e-14
6.86461e-14
7.77989e-14
8.69509e-14
9.61048e-14
1.05258e-13
1.14409e-13
1.23563e-13
1.32715e-13
1.41861e-13
4.57645e-15
1.37288e-14
2.28814e-14
3.20341e-14
4.11863e-14
5.03394e-14
5.94915e-14
6.86448e-14
7.77974e-14
8.69493e-14
9.61029e-14
1.05256e-13
1.14407e-13
1.23561e-13
1.32712e-13
1.41858e-13
4.57636e-15
1.37281e-14
2.28803e-14
3.20325e-14
4.11841e-14
5.03368e-14
5.94885e-14
6.86413e-14
7.77934e-14
8.69448e-14
9.6098e-14
1.0525e-13
1.14401e-13
1.23555e-13
1.32706e-13
1.41851e-13
4.57613e-15
1.37276e-14
2.28793e-14
3.20311e-14
4.11824e-14
5.03348e-14
5.9486e-14
6.86385e-14
7.77902e-14
8.69412e-14
9.60941e-14
1.05246e-13
1.14396e-13
1.2355e-13
1.327e-13
1.41846e-13
4.57594e-15
1.3727e-14
2.28783e-14
3.20297e-14
4.11806e-14
5.03326e-14
5.94834e-14
6.86355e-14
7.77868e-14
8.69375e-14
9.609e-14
1.05241e-13
1.14392e-13
1.23544e-13
1.32695e-13
1.4184e-13
4.57574e-15
1.37262e-14
2.28771e-14
3.20281e-14
4.11785e-14
5.03299e-14
5.94803e-14
6.86319e-14
7.77828e-14
8.6933e-14
9.6085e-14
1.05236e-13
1.14386e-13
1.23538e-13
1.32688e-13
1.41833e-13
4.5755e-15
1.37255e-14
2.2876e-14
3.20264e-14
4.11764e-14
5.03274e-14
5.94773e-14
6.86284e-14
7.77789e-14
8.69286e-14
9.60802e-14
1.05231e-13
1.1438e-13
1.23532e-13
1.32682e-13
1.41826e-13
4.57527e-15
1.37248e-14
2.28748e-14
3.20248e-14
4.11743e-14
5.03248e-14
5.94742e-14
6.86249e-14
7.77749e-14
8.69242e-14
9.60753e-14
1.05225e-13
1.14374e-13
1.23526e-13
1.32675e-13
1.41819e-13
4.57503e-15
1.37241e-14
2.28736e-14
3.20231e-14
4.11721e-14
5.03221e-14
5.94711e-14
6.86212e-14
7.77707e-14
8.69195e-14
9.60702e-14
1.0522e-13
1.14369e-13
1.2352e-13
1.32669e-13
1.41813e-13
4.57479e-15
1.37237e-14
2.28729e-14
3.20221e-14
4.11709e-14
5.03206e-14
5.94693e-14
6.86192e-14
7.77685e-14
8.6917e-14
9.60675e-14
1.05217e-13
1.14365e-13
1.23517e-13
1.32665e-13
1.41809e-13
4.57465e-15
1.3723e-14
2.28718e-14
3.20206e-14
4.11689e-14
5.03182e-14
5.94664e-14
6.86159e-14
7.77647e-14
8.69128e-14
9.60628e-14
1.05212e-13
1.1436e-13
1.23511e-13
1.32659e-13
1.41803e-13
4.57443e-15
1.37219e-14
2.28699e-14
3.2018e-14
4.11655e-14
5.0314e-14
5.94615e-14
6.86102e-14
7.77582e-14
8.69055e-14
9.60548e-14
1.05203e-13
1.1435e-13
1.235e-13
1.32648e-13
1.41793e-13
4.57406e-15
1.37213e-14
2.28689e-14
3.20166e-14
4.11638e-14
5.03119e-14
5.9459e-14
6.86072e-14
7.77548e-14
8.69017e-14
9.60505e-14
1.05198e-13
1.14345e-13
1.23495e-13
1.32642e-13
1.41787e-13
4.57387e-15
1.37205e-14
2.28676e-14
3.20147e-14
4.11613e-14
5.03089e-14
5.94554e-14
6.86031e-14
7.77501e-14
8.68964e-14
9.60445e-14
1.05192e-13
1.14338e-13
1.23486e-13
1.32633e-13
1.41775e-13
4.5736e-15
1.37197e-14
2.28662e-14
3.20127e-14
4.11587e-14
5.03057e-14
5.94517e-14
6.85987e-14
7.77452e-14
8.68908e-14
9.60383e-14
1.05185e-13
1.1433e-13
1.23478e-13
1.32623e-13
1.41764e-13
4.57331e-15
1.37188e-14
2.28647e-14
3.20107e-14
4.11561e-14
5.03025e-14
5.94479e-14
6.85944e-14
7.77402e-14
8.68853e-14
9.60322e-14
1.05178e-13
1.14323e-13
1.2347e-13
1.32615e-13
1.41754e-13
4.57302e-15
-2.52435e-29
0
-3.78653e-29
7.57306e-29
0
0
0
5.04871e-29
1.51461e-28
-5.04871e-29
1.00974e-28
0
1.51461e-28
0
-2.52435e-28
0
)
;


// ************************************************************************* //
