/*--------------------------------*- C++ -*----------------------------------*\
  =========                 |
  \\      /  F ield         | OpenFOAM: The Open Source CFD Toolbox
   \\    /   O peration     | Website:  https://openfoam.org
    \\  /    A nd           | Version:  8
     \\/     M anipulation  |
\*---------------------------------------------------------------------------*/
FoamFile
{
    version     2.0;
    format      ascii;
    class       volScalarField;
    location    "0.0660000";
    object      p;
}
// * * * * * * * * * * * * * * * * * * * * * * * * * * * * * * * * * * * * * //

dimensions      [0 2 -2 0 0 0 0];

internalField   nonuniform List<scalar> 
600
(
1452938.74691243
4428638.25597866
7511344.71753538
10671729.8686168
13917247.1383335
17254028.3697166
20685972.0577048
24216874.5856968
27850677.331402
31591721.4019529
35444659.4673641
39414438.9604273
43506263.7808063
47725644.2473727
52078500.9147208
56571106.6460166
61210146.9359753
66002607.8552277
70956063.6802498
76078561.9341787
81378734.9468826
86865622.3894418
92549040.7923298
98439482.3295335
104548220.461758
110887217.284678
117469362.225793
124308563.797256
131419815.560389
138819239.55382
146523999.172254
154552900.341902
162926270.614947
171666302.70163
180796225.233459
190341992.696734
200331683.561468
210796216.881607
221768089.914952
233283399.239023
245381730.652866
258106803.287636
271505126.682413
285627227.08743
300529715.744401
316274996.4728
332931187.148718
350568133.939526
369267223.456511
389117253.126848
410218924.202489
432664411.009628
456568623.583699
482053602.423246
509259859.414598
538302174.230583
569325529.352175
602461332.242905
637865217.352843
675542520.326106
715370018.45158
757173261.804697
800704785.381452
845328591.119104
890330642.952272
935103228.558612
978998026.736763
1021040366.99305
1060433587.05147
1096619256.76075
1129092790.34824
1157279319.94154
1180971509.20503
1200033587.86182
1214348182.25923
1223949067.68283
1228851917.34977
1229010117.69192
1224361083.64752
1214804729.57179
1199963325.10132
1179400598.53636
1152193459.32082
1117547978.53987
1072757779.30101
1018120178.98629
944385491.5571
878127854.486606
809718391.499974
742532690.18806
674683072.145715
606681550.953526
538051797.771072
468788683.469419
398797858.812236
328046630.053004
256509864.229182
184182357.235682
111107968.003267
37262077.2133661
1468382.69999932
4447377.37354906
7537398.24518104
10701250.7780403
13948402.4523791
17286041.0994718
20718492.2582808
24249711.9840503
27883793.5288019
31625107.1119369
35478313.4956647
39448352.8574944
43540441.2189612
47760109.4224524
52113258.7245588
56606161.9724371
61245478.8882511
66038249.2546769
70992017.1063497
76114836.1454239
81415296.4122936
86902503.2884261
92586244.8196874
98477014.0509347
104586050.894567
110925352.705791
117507814.0724
124347330.199783
131458875.032229
138858539.682661
146563579.628853
154592745.458104
162966376.996998
171706491.019072
180836590.91475
190382483.592291
200372291.016023
210836655.983696
221808392.824576
233323514.293067
245421597.605983
258146031.577926
271543468.898521
285664713.01412
300566147.946942
316309960.69462
332963567.674821
350598313.224467
369294658.063858
389141764.707221
410237205.00547
432677856.981079
456575923.595735
482054760.146367
509248613.329852
538280553.924601
569289135.412942
602410568.610944
637778985.378087
675408669.734512
715188105.84231
756942768.518364
800392955.800332
844943289.394882
889896102.06512
934628029.770787
978459443.689627
1020468457.69519
1059857805.47013
1096050444.41435
1128525830.37717
1156751762.57073
1180490259.46099
1199600887.54285
1213978130.39224
1223641273.74283
1228603461.32862
1228821711.60907
1224230437.48561
1214722867.07682
1199928528.76502
1179396360.70794
1152214930.27049
1117600999.75517
1072830245.72179
1018186401.41646
944626690.121413
878336677.766577
809863722.025656
742658625.854305
674790677.245108
606764559.71058
538115550.401467
468839675.270622
398832762.898696
328067327.064039
256517583.004083
184172699.461774
111078516.372263
37178565.7721703
1470315.11834434
4452050.91138417
7542441.52249
10706311.7846795
13953793.9743165
17291703.7123734
20724264.6472343
24255468.3156528
27889479.8744433
31630699.5749936
35483794.4034446
39453704.4693949
43545654.4379167
47765184.6199712
52118188.6750648
56610932.156735
61250067.6290827
66042654.9000147
70996230.0577875
76118838.2838139
81419055.9365489
86906012.8576161
92589490.3110903
98479971.3918867
104588681.796013
110927632.230981
117509721.688838
124348835.18987
131459927.124824
138859079.035044
146563584.040604
154592176.038323
162965163.680215
171704505.78917
180833808.630813
190378841.183533
200367684.009282
210830878.318166
221801353.317423
233315119.521575
245411683.753303
258134271.950966
271529602.761181
285648606.382287
300547549.167499
316288366.73086
332938286.908661
350569184.323072
369261306.041817
389103401.242916
410192205.920259
432626071.466853
456516724.150312
481986832.407461
509169044.047792
538188377.874089
569182219.427862
602284802.700688
637622962.087479
675213358.1656
714950610.58598
756657520.166573
800048392.223035
844542777.231285
889453193.816136
934148347.681701
977943382.536523
1019932364.69892
1059322013.39062
1095525878.97762
1128021217.26408
1156284879.69465
1180071155.59705
1199235212.10953
1213673017.77472
1223398186.93928
1228421269.98467
1228700785.50838
1224169436.09849
1214715103.03896
1199970105.76132
1179486066.92258
1152344262.37452
1117775125.38044
1073033770.1886
1018464792.84232
944828451.101423
878545792.25107
810029310.650976
742800439.249632
674909013.327288
606863468.687524
538196077.252516
468904328.039589
398882399.431213
328102395.545014
256538417.820559
184179329.788186
111071316.981855
37174150.9727769
1461491.82636631
4433773.21543557
7508296.37556128
10666905.7408684
13912814.525565
17249911.1906633
20681746.7119842
24212176.4626996
27845354.6464359
31585693.1108933
35437864.2932932
39406810.823613
43497761.451417
47716259.0575629
52068193.553646
56559824.0303201
61197800.0924164
65989185.6769349
70941513.7748779
76062820.750315
81361677.4249051
86847218.5440439
92529222.1748159
98418161.6166013
104525254.723525
110862513.087627
117442834.427638
124280095.055697
131389234.679758
138786328.358387
146488677.088669
154515006.622077
162885596.524817
171622385.29005
180749004.57233
190291211.824231
200277044.911363
210737007.366461
221704054.076977
233214197.573177
245306887.371963
258025274.142712
271416092.409177
285530308.775795
300424130.724464
316159337.31209
332803115.69697
350427484.029835
369112665.549283
388947056.013976
410027243.935212
432451953.809519
456332950.396164
481792244.768762
508962264.449949
537968345.315878
568948045.703213
602033909.660767
637350821.953071
674916462.654456
714628826.416345
756309230.535163
799671996.085165
844142646.276402
889038743.918301
933725002.550149
977516721.546404
1019512931.53453
1058922363.755
1095153529.12851
1127684102.75184
1155991522.96939
1179827851.38825
1199045752.53201
1213540507.46456
1223323708.32938
1228404705.83558
1228742885.77892
1224270141.45079
1214872777.53748
1200184894.9594
1179761897.48605
1152681703.01867
1118181653.77393
1073513203.28105
1019029872.40934
944994219.044004
878730057.482102
810191857.926354
742942193.508523
675033164.806504
606971987.593135
538289656.995431
468983340.270739
398947699.273317
328153952.794655
256576245.643893
184204184.775429
111084535.237839
37183974.1118665
1419759.97750835
4370725.36188191
7424393.27224471
10576376.3966257
13820125.2067082
17155744.484434
20586086.8176932
24114917.8155562
27746398.9047826
31484961.0258927
35335286.8744878
39302322.3500815
43391296.7099142
47607751.4276817
51957572.4160305
56447013.7826721
61082720.8220743
65871755.5810826
70821646.2149399
75940422.4564215
81236648.9929923
86719457.9661661
92398621.2597838
98284603.9933973
104388616.03663
110722663.508636
117299636.91741
124133403.249158
131238890.477804
138632163.305936
146330516.557006
154352664.08662
162718867.692877
171451048.317681
180572834.877029
190109966.673315
200090458.232642
210544788.350156
221505904.933991
233009801.699921
245095897.51563
257807307.284393
271190752.269703
285297182.7115
300182770.356551
315909243.242595
332543760.850104
350158348.101228
368833190.807401
388656606.13972
409725155.902032
432137632.287747
456005756.550782
481451444.674817
508607201.740464
537598507.12081
568563106.802167
601633736.843124
636935961.728205
674488727.451901
714191315.261189
755865571.712608
799227508.180525
843704364.579361
888613855.136405
933319940.863936
977139153.90606
1019170773.61982
1058622077.4072
1094899829.35299
1127481790.22903
1155844040.13864
1179737027.7962
1199012792.79338
1213566113.68142
1223408084.74154
1228548250.15541
1228946835.46791
1224536177.20559
1215203282.66653
1200584607.19408
1180238377.71458
1153244515.01513
1118843427.99683
1074297970.84192
1019908806.31172
945143577.797061
878902800.594614
810359285.959022
743091777.18453
675170998.79712
607096102.330919
538400948.561022
469080957.320307
399031679.004274
328223926.54454
256631937.018715
184245828.986355
111112586.328024
37196109.4070213
1346191.49430683
4269951.06925393
7304974.71360661
10451749.9811704
13693644.5821892
17027655.5841458
20456223.0436966
23983117.0219297
27612540.3374428
31348952.5138711
35197048.8640054
39161778.0085868
43248367.1409463
47462353.8110128
51809619.7470265
56296415.1998181
60929380.4931117
65715572.4919266
70662513.4870607
75778228.303372
81071275.3366115
86550779.9891747
92226506.3371212
98108912.6626751
104209201.006257
110539368.851836
117112296.059783
123941840.315
131042920.025231
138431588.065279
146125125.002316
154142230.63245
162503156.157037
171229808.540987
180345796.578932
189876837.973929
199850935.529841
210298553.758714
221252613.193018
232749076.711305
244827347.449313
257530531.544605
270905320.013918
285002613.733025
299878560.327883
315594899.16284
332218781.590802
349822143.625663
368485125.711285
388296113.038664
409351761.178245
431750687.579133
455604543.05997
481035429.680167
508176193.321279
537152199.879943
568101422.590721
601157577.357984
636448672.518439
673994938.382563
713695410.938424
755373481.885841
798748671.876383
843246927.863292
888183023.926326
932922376.786042
976784225.46091
1018864455.72083
1058367027.93595
1094699318.03921
1127339326.21295
1155759757.95374
1179710465.43185
1199043905.95692
1213654097.04111
1223552676.37191
1228750072.69575
1229207157.32399
1224857335.27494
1215589632.81083
1201042268.67826
1180777429.65594
1153876005.37555
1119586976.68021
1075174030.47386
1020910911.10846
945262188.854107
879070387.978147
810519746.092124
743240910.778321
675309762.414647
607223515.428648
538516771.243138
469184130.596552
399121762.278351
328300404.458866
256694362.235641
184294024.646847
111147035.396699
37220562.7628175
)
;

boundaryField
{
    dieWall
    {
        type            zeroGradient;
    }
    outlet
    {
        type            fixedValue;
        value           uniform 0;
    }
    Wire
    {
        type            zeroGradient;
    }
    inlet
    {
        type            fixedValue;
        value           uniform 0;
    }
    back
    {
        type            wedge;
    }
    front
    {
        type            wedge;
    }
}


// ************************************************************************* //
