/*--------------------------------*- C++ -*----------------------------------*\
  =========                 |
  \\      /  F ield         | OpenFOAM: The Open Source CFD Toolbox
   \\    /   O peration     | Website:  https://openfoam.org
    \\  /    A nd           | Version:  8
     \\/     M anipulation  |
\*---------------------------------------------------------------------------*/
FoamFile
{
    version     2.0;
    format      ascii;
    class       surfaceScalarField;
    location    "0.0660000";
    object      phi;
}
// * * * * * * * * * * * * * * * * * * * * * * * * * * * * * * * * * * * * * //

dimensions      [0 3 -1 0 0 0 0];

internalField   nonuniform List<scalar> 
1691
(
8.03555945717839e-10
9.72180198844215e-12
7.94014359572461e-10
9.88343581523182e-12
7.84466896627235e-10
9.97371365052457e-12
7.74780964463006e-10
1.01715492790909e-11
7.65025467511006e-10
1.02815859432265e-11
7.55244140673618e-10
1.03450655434655e-11
7.45463550222774e-10
1.0388029443187e-11
7.35689798723475e-10
1.04208128203648e-11
7.25920700019755e-10
1.044506689101e-11
7.16156750616783e-10
1.04674850175706e-11
7.06400860630121e-10
1.0492261497198e-11
6.96651973555967e-10
1.05156771178275e-11
6.86906940717015e-10
1.05351764474549e-11
6.77165646039123e-10
1.05543858683409e-11
6.67431493883324e-10
1.05761010328457e-11
6.57703202026593e-10
1.05968069462876e-11
6.479792871491e-10
1.06143690111052e-11
6.38259933111891e-10
1.06318772313284e-11
6.28548117208766e-10
1.06526060680296e-11
6.18842438698029e-10
1.06734653037436e-11
6.0914123066819e-10
1.06914560742591e-11
5.99444178827534e-10
1.07099903324032e-11
5.89754644874219e-10
1.0732951163797e-11
5.8007140927987e-10
1.07560500626059e-11
5.70393379026229e-10
1.07762580226441e-11
5.60719985303006e-10
1.07977255093953e-11
5.51055778138257e-10
1.08249412899392e-11
5.41398841002861e-10
1.08530461217757e-11
5.31747593280124e-10
1.08790782871926e-11
5.22100767493316e-10
1.0907599277219e-11
5.12465827944966e-10
1.09439145591381e-11
5.02839802362276e-10
1.09815770992504e-11
4.93221174669192e-10
1.10176858502212e-11
4.83607279510731e-10
1.10591637741674e-11
4.74010584058204e-10
1.1113978288273e-11
4.64424828845843e-10
1.11707907084249e-11
4.54849531898215e-10
1.12268244368809e-11
4.45279726464331e-10
1.12932948988182e-11
4.3573622225982e-10
1.13830493442455e-11
4.26207993207367e-10
1.14767574369881e-11
4.16695472300703e-10
1.15705303806891e-11
4.07188862423819e-10
1.16834315781345e-11
3.97726387225309e-10
1.18379999609221e-11
3.88284982046302e-10
1.1997135069483e-11
3.78868943878952e-10
1.21566685643585e-11
3.69457786288855e-10
1.23523694571323e-11
3.60127063153046e-10
1.26258568977904e-11
3.50823058164522e-10
1.28997193657134e-11
3.41561892874319e-10
1.31750249226395e-11
3.3230273850982e-10
1.35189272550741e-11
3.23189218205744e-10
1.40036992235056e-11
3.14107972337579e-10
1.44720594537244e-11
3.05096502232785e-10
1.49489185412777e-11
2.96101556246373e-10
1.55539568796428e-11
2.87337319744162e-10
1.6382442762391e-11
2.78627206011142e-10
1.7178657574827e-11
2.70024930619753e-10
1.79988573823703e-11
2.61477183884426e-10
1.90558336198089e-11
2.53233227977e-10
2.0560778975282e-11
2.45218182843408e-10
2.23421512357351e-11
2.37507000637784e-10
2.45766306328662e-11
2.30106388929729e-10
2.80367183797577e-11
2.24098113648299e-10
3.30998871284035e-11
2.18594031698476e-10
3.81692910247627e-11
2.13553764314386e-10
4.35178464350501e-11
2.09595975993891e-10
4.99647779444932e-11
2.06823156656939e-10
5.64300501675061e-11
2.04430906126364e-10
6.17008985587472e-11
2.02381772643485e-10
6.68142972889825e-11
2.01831655235256e-10
7.24357587056898e-11
2.01693901192662e-10
7.68578470332178e-11
2.0185679774816e-10
8.0064854279221e-11
2.02472908589199e-10
8.27586493763815e-11
2.03762604028998e-10
8.46489530865588e-11
2.0481479750399e-10
8.51170734007954e-11
2.06064305308815e-10
8.45783406569405e-11
2.07336781150921e-10
8.28315066854206e-11
2.07772111866534e-10
7.97111623288784e-11
2.07948814320398e-10
7.60444336787529e-11
2.08552084694317e-10
7.12011740206836e-11
2.06707576089673e-10
6.46336748031436e-11
2.04527377363056e-10
5.77824199161419e-11
2.02097782832147e-10
5.09651635117105e-11
1.9859296897039e-10
4.25793479485603e-11
1.92008676736593e-10
3.44625016442801e-11
1.8708377072617e-10
2.53343405611518e-11
1.89155311007354e-10
1.11410652794423e-11
1.88602426070435e-10
4.42991845925959e-12
1.88050714260605e-10
2.28867955987037e-13
1.87536718671421e-10
-3.21025858134588e-12
1.86096534129158e-10
-5.56991981226802e-12
1.84598142840321e-10
-7.32921191170607e-12
1.83129637066336e-10
-8.30688600065687e-12
1.81542936581267e-10
-8.99542849887317e-12
1.79821406871459e-10
-9.36419040647042e-12
1.78186997424161e-10
-9.47463461020519e-12
1.7642215649307e-10
-9.28551254501481e-12
1.74696213288947e-10
-8.69686341449577e-12
1.72716258931805e-10
-7.38099365431283e-12
-3.27544597803079e-12
4.16684635167174e-10
1.3675315306626e-11
4.12260725809027e-10
1.43612805039837e-11
4.0739263558577e-10
1.48956558189054e-11
4.02152733858147e-10
1.54652179426113e-11
3.96715572323136e-10
1.57724318019986e-11
3.91205600312668e-10
1.59086469771385e-11
3.85680454690743e-10
1.59667067567174e-11
3.80160057265229e-10
1.59946545645714e-11
3.74648420343619e-10
1.60100602277006e-11
3.69146144292581e-10
1.60230356485071e-11
3.63653680551495e-10
1.60379219140548e-11
3.5817038065482e-10
1.60520979628017e-11
3.52695031094906e-10
1.60635710391373e-11
3.47227534769455e-10
1.60748465456385e-11
3.41768626792805e-10
1.60878885728215e-11
3.36318146226464e-10
1.6100083605811e-11
3.30875552915373e-10
1.61096765208984e-11
3.2544108430035e-10
1.61189766496082e-11
3.20015442041738e-10
1.61307940452225e-11
3.14598394669822e-10
1.61429710382558e-11
3.09189351335234e-10
1.61528672935703e-11
3.03788489024517e-10
1.61631321647468e-11
2.98396565673119e-10
1.61770730227024e-11
2.93013555051427e-10
1.61911813334352e-11
2.87639133127307e-10
1.62027214438898e-11
2.82273680254999e-10
1.62151383813605e-11
2.76918170064754e-10
1.62323207488648e-11
2.7157253056844e-10
1.62504496542173e-11
2.66236295969286e-10
1.62669682081079e-11
2.60910040928345e-10
1.62854150208447e-11
2.55595359820152e-10
1.63100758568229e-11
2.50292356337207e-10
1.63359767061868e-11
2.4500060723937e-10
1.63607361572963e-11
2.39721085143841e-10
1.63898899393216e-11
2.34456210061581e-10
1.64299632578375e-11
2.29206165693935e-10
1.64718522901286e-11
2.23970710783215e-10
1.65131994509998e-11
2.18751617699001e-10
1.65632005454818e-11
2.13552770204026e-10
1.66325925131373e-11
2.08374590906542e-10
1.67055019480142e-11
2.03217053419492e-10
1.67784842762285e-11
1.98083302293254e-10
1.68674374960154e-11
1.92979776125859e-10
1.69916183639957e-11
1.87907011316348e-10
1.71198273861532e-11
1.82865572013711e-10
1.72478578086331e-11
1.77861309240791e-10
1.7406194813067e-11
1.72905144267355e-10
1.76313819421299e-11
1.67997097038019e-10
1.78568884568426e-11
1.6313904808457e-10
1.80819363444861e-11
1.58341440655103e-10
1.83651356184324e-11
1.5362228137601e-10
1.87711564287408e-11
1.48980981287424e-10
1.91613019726702e-11
1.44422717684161e-10
1.95547442451229e-11
1.39965500661812e-10
2.00583256200426e-11
1.35635645738569e-10
2.0758978448824e-11
1.31433635553349e-10
2.14267670686859e-11
1.27371879680155e-10
2.21060192300368e-11
1.23485379011416e-10
2.29869774287835e-11
1.19838087561116e-10
2.42517635257209e-11
1.16501324313613e-10
2.57211687442577e-11
1.1360044098085e-10
2.75178623256106e-11
1.11319265523691e-10
3.0355989126734e-11
1.09826394173701e-10
3.4627826797361e-11
1.09146733110809e-10
3.88798043062122e-11
1.09321711039591e-10
4.33689975031922e-11
1.10426915220891e-10
4.88812428055325e-11
1.12455243844538e-10
5.44187429090843e-11
1.15321786018026e-10
5.88460231555341e-11
1.1899494177289e-10
6.31473726739135e-11
1.23478334751828e-10
6.79535870445515e-11
1.28645796743552e-10
7.16863910177484e-11
1.343518003266e-10
7.43493854863007e-11
1.40486433030644e-10
7.66097018714304e-11
1.46930810176636e-10
7.8185954678772e-11
1.53494323520905e-10
7.85305801993523e-11
1.60023528747377e-10
7.80216387582801e-11
1.66335101569164e-10
7.64877282350516e-11
1.7224343491642e-10
7.37662545691326e-11
1.77636771197545e-10
7.06110415042275e-11
1.82396614387156e-10
6.63982073315703e-11
1.8614991745534e-10
6.08338740507553e-11
1.88997289749149e-10
5.48863371595038e-11
1.9083149522483e-10
4.90815731617545e-11
1.91591178992186e-10
4.17685095298793e-11
1.90716238713265e-10
3.52843201986618e-11
1.89617416523305e-10
2.63797261370202e-11
1.91329391208296e-10
9.37574517983032e-12
1.92133725884495e-10
3.57124503457613e-12
1.91937633070871e-10
3.69185423149697e-13
1.91367927922102e-10
-2.69756416588076e-12
1.90254892481487e-10
-4.51530983153097e-12
1.88888688011455e-10
-6.02250200347884e-12
1.87341804854294e-10
-6.81995376755559e-12
1.85692787727325e-10
-7.40629997043312e-12
1.83960193070067e-10
-7.69118975360001e-12
1.82215863210092e-10
-7.7893333007584e-12
1.80481079220711e-10
-7.60924130625353e-12
1.78806247185392e-10
-7.0806114141355e-12
1.77184864883002e-10
-5.81848245063549e-12
-2.34671674455056e-12
9.76169123749115e-11
1.30509542848923e-11
9.79084005477745e-11
1.41250406646929e-11
9.69874581897781e-11
1.58717483702664e-11
9.54783235294599e-11
1.70294027376017e-11
9.36935945726775e-11
1.76121136842582e-11
9.18098484027047e-11
1.78472572942844e-11
8.99019458592543e-11
1.79293813108735e-11
8.79960490070882e-11
1.79552208888442e-11
8.60981898941154e-11
1.79624859997525e-11
8.42095394273725e-11
1.79661562900371e-11
8.23306889512101e-11
1.79711501954733e-11
8.04610548963923e-11
1.79760200404991e-11
7.85994901393581e-11
1.79793339166833e-11
7.67459130863477e-11
1.79825265793527e-11
7.49010003885937e-11
1.79868047701402e-11
7.30645821788993e-11
1.79904071774113e-11
7.12359876550818e-11
1.79920799417556e-11
6.94153322974066e-11
1.79933431905995e-11
6.76033786909992e-11
1.79963595776772e-11
6.58000615566261e-11
1.79997980215056e-11
6.40046825636161e-11
1.80016505283998e-11
6.2217394908475e-11
1.80037209691593e-11
6.04391319532232e-11
1.80085419255004e-11
5.86698943819595e-11
1.8013532759754e-11
5.6909086725058e-11
1.80165496649683e-11
5.5157043610641e-11
1.80201074373887e-11
5.34148948011756e-11
1.80272905163447e-11
5.16826713131338e-11
1.8035372332948e-11
4.99598031810789e-11
1.80424105538005e-11
4.82468631333438e-11
1.80508205163946e-11
4.65454572837275e-11
1.80638538479131e-11
4.48557372223858e-11
1.80779708877893e-11
4.31771589022015e-11
1.80914786527957e-11
4.15107869743962e-11
1.81083145302633e-11
3.98591435093897e-11
1.81335504145215e-11
3.82224564673913e-11
1.8160375746135e-11
3.66002560606851e-11
1.81871256602791e-11
3.49945242481689e-11
1.82205366481134e-11
3.340943207286e-11
1.82691570772159e-11
3.18454557138904e-11
1.83208048183203e-11
3.03021361491628e-11
1.83729656989138e-11
2.87830455829448e-11
1.84375130956232e-11
2.72953471282131e-11
1.85301234425218e-11
2.58395716744279e-11
1.86262289383228e-11
2.44152884090094e-11
1.872257624757e-11
2.30292239149639e-11
1.88424936438202e-11
2.16940904884719e-11
1.90165325864863e-11
2.04096343776711e-11
1.91911042588193e-11
1.91756769186595e-11
1.93653767268693e-11
1.80046897404121e-11
1.95853335809661e-11
1.69186197199936e-11
1.99061122243171e-11
1.59150829344844e-11
2.02133451655835e-11
1.49956888529022e-11
2.05222585085351e-11
1.41826226942794e-11
2.09190868432732e-11
1.3509497439991e-11
2.14793078122889e-11
1.29724601980565e-11
2.2010416412958e-11
1.25774039804118e-11
2.25469704718135e-11
1.23644914255225e-11
2.32450050022866e-11
1.24059877720947e-11
2.42544311458333e-11
1.27588570013358e-11
2.54110083436483e-11
1.35206072221967e-11
2.67968663534545e-11
1.48983326969089e-11
2.90167714919965e-11
1.71220326633566e-11
3.24396116280544e-11
2.01963996917857e-11
3.5836615994453e-11
2.41643590445699e-11
3.94273751388831e-11
2.91705204739991e-11
4.38969402094265e-11
3.52105161938143e-11
4.83959541622741e-11
4.21260284661399e-11
5.19422745505767e-11
4.98926748554883e-11
5.53869922972188e-11
5.85629157320295e-11
5.92845897630829e-11
6.79637497089547e-11
6.22815647907502e-11
7.7912671596385e-11
6.43909550219714e-11
8.83149337847685e-11
6.6193063586391e-11
9.90377185022131e-11
6.74444935317263e-11
1.0986562862177e-10
6.76796557225157e-11
1.20627426495133e-10
6.72323399079765e-11
1.31130590452132e-10
6.59524013726499e-11
1.41163212780767e-10
6.36971779821308e-11
1.50625214294711e-10
6.11091813749457e-11
1.5931589083731e-10
5.76645007478202e-11
1.66993435586156e-10
5.31100899741783e-11
1.73577887755151e-10
4.82537170355958e-11
1.79101404684277e-10
4.35092016104837e-11
1.83269449567621e-10
3.75502522586019e-11
1.86092457936411e-10
3.2409430451983e-11
1.87620868967927e-10
2.47989656226633e-11
1.89585288238018e-10
7.35891940854866e-12
1.90339014269302e-10
2.76425683409423e-12
1.90307325836718e-10
3.46277712213695e-13
1.8965292143573e-10
-2.09890530462933e-12
1.88585072937171e-10
-3.50434939072264e-12
1.8719033816165e-10
-4.68591169272807e-12
1.85620023506371e-10
-5.30885163946027e-12
1.83922179508035e-10
-5.76814634147495e-12
1.8215847272908e-10
-5.98680581368092e-12
1.80373496282604e-10
-6.06282080128459e-12
1.78620813520755e-10
-5.91436069258033e-12
1.76966811339523e-10
-5.4844053015028e-12
1.75539987224078e-10
-4.44977939105903e-12
-1.71676608369987e-12
-1.476496595462e-10
9.47538574306786e-12
-1.44217998914189e-10
1.07499143360513e-11
-1.42264036389249e-10
1.39742079837553e-11
-1.40925547529864e-10
1.57472216244126e-11
-1.39841646873482e-10
1.65844095546103e-11
-1.38843564152848e-10
1.69052684587878e-11
-1.37866207941198e-10
1.70080128301137e-11
-1.36887807685391e-10
1.70326916437804e-11
-1.35903336935929e-10
1.70337693020483e-11
-1.34911775827192e-10
1.70302387271351e-11
-1.33912611309491e-10
1.70275229529647e-11
-1.32906262320041e-10
1.7025104752199e-11
-1.31893599491165e-10
1.70220010552096e-11
-1.308747010203e-10
1.70188489526562e-11
-1.29849069444728e-10
1.70162805237343e-11
-1.28816873412634e-10
1.70132063101487e-11
-1.27778715399219e-10
1.70088066039801e-11
-1.26734578552525e-10
1.70039793187744e-11
-1.25683821158073e-10
1.70002618578725e-11
-1.24626419266872e-10
1.6996939569421e-11
-1.2356295960789e-10
1.69926145315467e-11
-1.22493325291836e-10
1.69883931510991e-11
-1.21416656207494e-10
1.698607023056e-11
-1.20332932446663e-10
1.69839004556461e-11
-1.19242738122663e-10
1.69803396501178e-11
-1.18145819541737e-10
1.69770646452839e-11
-1.1704113020854e-10
1.69763578102259e-11
-1.15928562546793e-10
1.69764249677699e-11
-1.14808570040622e-10
1.69758988480673e-11
-1.13680658744601e-10
1.69762672187191e-11
-1.12543410870613e-10
1.69798568970282e-11
-1.11396630558404e-10
1.69843295156926e-11
-1.10240716615572e-10
1.69885795262165e-11
-1.09074682042184e-10
1.69951690926197e-11
-1.07896202687395e-10
1.70078371470517e-11
-1.06704983954172e-10
1.70218018160729e-11
-1.05501334606838e-10
1.70359964075316e-11
-1.04283371041596e-10
1.7054957291216e-11
-1.03047129821138e-10
1.70851536776535e-11
-1.01792032737507e-10
1.71177850042096e-11
-1.00518356981312e-10
1.71511870461719e-11
-9.92226489229349e-11
1.71935106912031e-11
-9.78979044662039e-11
1.72568921375049e-11
-9.65434471138606e-11
1.73230892358651e-11
-9.51596258022825e-11
1.73898665939862e-11
-9.37398762316402e-11
1.74736396518451e-11
-9.22713694699727e-11
1.75986890223586e-11
-9.07541557702598e-11
1.77242800731609e-11
-8.91886372173091e-11
1.78499541065178e-11
-8.75623412198144e-11
1.80088458590192e-11
-8.58524671008697e-11
1.82457046106955e-11
-8.4061672055283e-11
1.84716193219576e-11
-8.21893029001774e-11
1.86985558139264e-11
-8.02125532151326e-11
1.89905611026667e-11
-7.80955603787944e-11
1.94100298266689e-11
-7.58434258252424e-11
1.98053865070245e-11
-7.34529839670284e-11
2.02028964654282e-11
-7.08831883363057e-11
2.07207749063641e-11
-6.80607045966419e-11
2.14765387196562e-11
-6.49387176254292e-11
2.23321315931948e-11
-6.14397879798943e-11
2.33390614455545e-11
-5.73544384277601e-11
2.4970267288017e-11
-5.24268546209663e-11
2.75478127486332e-11
-4.66563898274344e-11
3.00975852063756e-11
-3.99971990510477e-11
3.27947300457934e-11
-3.22715227011963e-11
3.61932894246054e-11
-2.3480444521774e-11
3.96222096198661e-11
-1.38173069150649e-11
4.22909867592219e-11
-3.30428016799001e-12
4.4880280729196e-11
8.13565342867069e-12
4.78459181775492e-11
2.03095975386687e-11
5.01036178763908e-11
3.30176317701977e-11
5.1673376153017e-11
4.61767017977168e-11
5.30195648975699e-11
5.9651815783231e-11
5.39506403019923e-11
7.32159054842628e-11
5.4092481712356e-11
8.66957428980451e-11
5.37249270388641e-11
9.98992191633724e-11
5.2716695306599e-11
1.1259436245533e-10
5.09655300552696e-11
1.24705050916576e-10
4.895861046131e-11
1.35999784053054e-10
4.63267536818104e-11
1.46266398642422e-10
4.27972499364797e-11
1.55359754010491e-10
3.91122561986136e-11
1.6341453729123e-10
3.54058264570623e-11
1.69967780593777e-10
3.09472404241903e-11
1.75329452324005e-10
2.69963755348923e-11
1.78791628587342e-10
2.12849890714771e-11
1.80819558661115e-10
5.27925481339318e-12
1.81405705288601e-10
2.12557210153183e-12
1.81409652906072e-10
2.88409838475516e-13
1.80701068247991e-10
-1.44533310902695e-12
1.79662005111057e-10
-2.52128600159969e-12
1.78276281208991e-10
-3.35752573203674e-12
1.76740597051395e-10
-3.83192191534379e-12
1.75070545775862e-10
-4.15751192784923e-12
1.73347013526843e-10
-4.32222837280758e-12
1.71600646979463e-10
-4.37445965134062e-12
1.69893178962893e-10
-4.2642428463381e-12
1.68294148551098e-10
-3.942614658995e-12
1.66951686436742e-10
-3.16481625976759e-12
-1.1444508909155e-12
-3.14274376895771e-10
4.57916987510271e-12
-3.09780667255995e-10
6.3140014445826e-12
-3.06230114511428e-10
1.04813264075057e-11
-3.03031827119334e-10
1.26064772235755e-11
-2.9995159531308e-10
1.35615960142292e-11
-2.96902214603634e-10
1.39131900365279e-11
-2.9385696368947e-10
1.40199445870553e-11
-2.90808722555073e-10
1.4041502809007e-11
-2.87756598545101e-10
1.40385669863764e-11
-2.84700504204133e-10
1.40309420561796e-11
-2.81640146401525e-10
1.40238431398998e-11
-2.78575749570832e-10
1.40172689932033e-11
-2.75507855772125e-10
1.40105512212526e-11
-2.72436527502115e-10
1.4003842044206e-11
-2.69361460351584e-10
1.39974076610765e-11
-2.66282808200387e-10
1.39906227230595e-11
-2.63201046245637e-10
1.39829891816754e-11
-2.60116227956549e-10
1.39749803101637e-11
-2.57027888827909e-10
1.39676151287191e-11
-2.53935956457683e-10
1.39605696879618e-11
-2.5084085104553e-10
1.39529380930951e-11
-2.47742491018559e-10
1.39453312784416e-11
-2.44640184559863e-10
1.39389392969738e-11
-2.41533895321166e-10
1.39326673712835e-11
-2.38424101222049e-10
1.39254811396627e-11
-2.35310629055756e-10
1.39184060262423e-11
-2.32192614753599e-10
1.39130240944256e-11
-2.2906989723567e-10
1.39082376396561e-11
-2.25942768377108e-10
1.39031466473753e-11
-2.2281083180749e-10
1.38985707548163e-11
-2.19672937471615e-10
1.38960820453407e-11
-2.16528853129914e-10
1.38942390951811e-11
-2.13378789889751e-10
1.38923723790167e-11
-2.10221900041086e-10
1.38919958739522e-11
-2.07056200836944e-10
1.38957177532315e-11
-2.0388133205416e-10
1.3900377822104e-11
-2.00697382271429e-10
1.39053529050185e-11
-1.97502693758452e-10
1.39134252107282e-11
-1.94293769702563e-10
1.39292254944206e-11
-1.91069933342825e-10
1.39467695004979e-11
-1.87831182393626e-10
1.39650617450084e-11
-1.84574429701151e-10
1.39891780861822e-11
-1.81293318119552e-10
1.4027994339697e-11
-1.77987002321394e-10
1.40687768803513e-11
-1.74655536737657e-10
1.41101835564431e-11
-1.71293013926948e-10
1.41626683367949e-11
-1.67887447134484e-10
1.42444260674044e-11
-1.64438554294647e-10
1.4326401655233e-11
-1.60946536480626e-10
1.44086413432782e-11
-1.57399963773295e-10
1.45126746274559e-11
-1.53776964028755e-10
1.46727480865624e-11
-1.50079917799053e-10
1.48242021915462e-11
-1.46308451400882e-10
1.4976298803537e-11
-1.42441159001122e-10
1.51720183922969e-11
-1.38442847718214e-10
1.54599415091133e-11
-1.34318763096297e-10
1.57288957709561e-11
-1.30067267954432e-10
1.59982384866418e-11
-1.25649594224606e-10
1.63491158749359e-11
-1.20996003678494e-10
1.68679666148975e-11
-1.16068649558864e-10
1.74482881571522e-11
-1.10807785348232e-10
1.81196925912411e-11
-1.05016064083148e-10
1.92177307299653e-11
-9.84338737296358e-11
2.10017095963106e-11
-9.10618272901254e-11
2.275722950069e-11
-8.28544298343183e-11
2.46140880100585e-11
-7.36219428622192e-11
2.69829957877946e-11
-6.33618958587623e-11
2.93796235900033e-11
-5.2280126528507e-11
3.12211527387536e-11
-4.03976890151082e-11
3.30042057640767e-11
-2.76252277552638e-11
3.507473513142e-11
-1.41587346128574e-11
3.66331092653948e-11
-1.99258855037028e-13
3.77043177075354e-11
1.41811322253673e-11
3.86246903655664e-11
2.88532169870925e-11
3.92597511564839e-11
4.35929381797947e-11
3.93296049999406e-11
5.82355116237343e-11
3.90547034793981e-11
7.25976462813438e-11
3.83222576454755e-11
8.64478109192138e-11
3.70787962676835e-11
9.97265252965702e-11
3.56399664760428e-11
1.12201724801562e-10
3.38085212965307e-11
1.23679200342625e-10
3.12735662195393e-11
1.33997738386035e-10
2.8745686463567e-11
1.4332732132858e-10
2.6027808492603e-11
1.51161221614502e-10
2.30638229931589e-11
1.57945545388538e-10
2.0161018167899e-11
1.6262405907454e-10
1.65551209532128e-11
1.64512612507675e-10
3.3394809172501e-12
1.64942311551971e-10
1.64388474755653e-12
1.64939048512479e-10
2.38312861146549e-13
1.64236297485884e-10
-7.97027466913307e-13
1.63264294306188e-10
-1.60471095033282e-12
1.61964350841618e-10
-2.11437572387953e-12
1.60538173222667e-10
-2.46401228843643e-12
1.58985640738929e-10
-2.66395003582444e-12
1.57389466221767e-10
-2.78457170166827e-12
1.5577163657299e-10
-2.81420562490758e-12
1.54192384835745e-10
-2.74192331605877e-12
1.52716138800239e-10
-2.52318764120553e-12
1.5148893083721e-10
-1.99468372566668e-12
-6.29911583348434e-13
-3.99060655219845e-10
3.08850296922129e-15
-3.94955237345838e-10
2.26761963634177e-12
-3.90983456025701e-10
6.56844275405611e-12
-3.86923836711898e-10
8.60561415132458e-12
-3.82773893728981e-10
9.47027152923383e-12
-3.78577226892562e-10
9.77501289316096e-12
-3.74361832071888e-10
9.86290692339027e-12
-3.70140111217956e-10
9.87799560503099e-12
-3.65916625512148e-10
9.87315115129786e-12
-3.61692487441115e-10
9.86473676598793e-12
-3.57467619674342e-10
9.85677550654005e-12
-3.53242053297443e-10
9.84937293340681e-12
-3.49016031326891e-10
9.84206955493896e-12
-3.44789588911213e-10
9.83480432540756e-12
-3.40562576234354e-10
9.8276595096189e-12
-3.36335125019e-10
9.82029719732211e-12
-3.32107582823793e-10
9.81243554187876e-12
-3.27880047648911e-10
9.80429532025454e-12
-3.23652221793103e-10
9.79649943376784e-12
-3.19424011673357e-10
9.78892658957309e-12
-3.15195686191696e-10
9.78103280171261e-12
-3.10967197235571e-10
9.77311842762505e-12
-3.06738033384773e-10
9.76591578478931e-12
-3.02508149688779e-10
9.75879157970683e-12
-2.98277904771364e-10
9.75111052016397e-12
-2.94047197953022e-10
9.74343837102742e-12
-2.8981536703999e-10
9.73678604844325e-12
-2.85582228220133e-10
9.73052763483833e-12
-2.81347936187334e-10
9.72411618093321e-12
-2.77112197610178e-10
9.71794374398693e-12
-2.72874136541845e-10
9.71299872518981e-12
-2.6863351218157e-10
9.70845370209326e-12
-2.64390387568956e-10
9.70393554256164e-12
-2.6014408794882e-10
9.70023112870147e-12
-2.55893015443988e-10
9.69902986953668e-12
-2.51636789232048e-10
9.69838779229121e-12
-2.47375333335653e-10
9.6979812111385e-12
-2.431072951802e-10
9.69930780042018e-12
-2.38829757894992e-10
9.70543458543372e-12
-2.34542024362626e-10
9.71259323888761e-12
-2.30243888042755e-10
9.72027287393378e-12
-2.25932796024765e-10
9.73121399700746e-12
-2.21603295712323e-10
9.75140174179347e-12
-2.17254489109227e-10
9.77265292959629e-12
-2.12886195740134e-10
9.79433730170352e-12
-2.08493511776026e-10
9.82218577168864e-12
-2.04065870004154e-10
9.8687230929244e-12
-1.99602804191294e-10
9.91496974603394e-12
-1.95104299142117e-10
9.96144523795661e-12
-1.90560732382079e-10
1.00200975803574e-11
-1.85952347288812e-10
1.01149781418581e-11
-1.8128123512314e-10
1.02032743473638e-11
-1.76547133568828e-10
1.02919451334398e-11
-1.71731598750627e-10
1.04057548429385e-11
-1.66802257800255e-10
1.057932772277e-11
-1.61764199324115e-10
1.07389168295914e-11
-1.56616797032565e-10
1.08981393710003e-11
-1.51326305505932e-10
1.11050850972378e-11
-1.45830419043086e-10
1.1417522943591e-11
-1.40100161766658e-10
1.17619396619919e-11
-1.34092144603623e-10
1.2153539209834e-11
-1.27633901168527e-10
1.27990092586418e-11
-1.20481345667978e-10
1.38855416863686e-11
-1.12636758868605e-10
1.49445883516587e-11
-1.04059061144747e-10
1.60633533406695e-11
-9.45649434543012e-11
1.75112367341137e-11
-8.41487126169548e-11
1.89809783547309e-11
-7.30091157319547e-11
2.00935737943743e-11
-6.11660906316354e-11
2.11675876110878e-11
-4.85274807708747e-11
2.24374165978226e-11
-3.52773307131027e-11
2.33789277945585e-11
-2.16018098710156e-11
2.40191726189521e-11
-7.56115718385814e-12
2.45694958838515e-11
6.72976306438294e-12
2.49499579746366e-11
2.10642338785709e-11
2.49719040775623e-11
3.52970780647665e-11
2.47941313153123e-11
4.92623564851143e-11
2.43246000253171e-11
6.27495868859044e-11
2.35549293973344e-11
7.57085125343569e-11
2.26410609591765e-11
8.7935366900631e-11
2.15386113203559e-11
9.92452843254882e-11
1.99174557927952e-11
1.09506792376385e-10
1.8436214424475e-11
1.18856203467904e-10
1.66300959022354e-11
1.26868578654316e-10
1.50021422255745e-11
1.33966420971334e-10
1.30124477068436e-11
1.3913428097351e-10
1.13363063081459e-11
1.40684334468728e-10
1.73866581285457e-12
1.40994806690228e-10
1.28191414648839e-12
1.40961711454059e-10
2.18552032908133e-13
1.40333637445638e-10
-2.2289382202055e-13
1.39476379338415e-10
-8.02384942003429e-13
1.38344382377522e-10
-1.03869233389785e-12
1.37104429908898e-10
-1.28186878702118e-12
1.3575874221979e-10
-1.3767941354238e-12
1.34376612054423e-10
-1.46053882960498e-12
1.32976666805287e-10
-1.47143220861622e-12
1.31610428284036e-10
-1.43222649710489e-12
1.30333629276146e-10
-1.30282480671778e-12
1.29276787411276e-10
-9.94538023547442e-13
-1.9539791682048e-13
-3.98638364626758e-10
-2.63697135246851e-12
-3.96161765722589e-10
-1.48725697028277e-13
-3.92755370560056e-10
3.22215049817737e-12
-3.88781451011984e-10
4.69164332726828e-12
-3.84519205186878e-10
5.26782413540297e-12
-3.80144532414901e-10
5.45999741989975e-12
-3.75733866189622e-10
5.51175306799282e-12
-3.71315104234368e-10
5.51858988102465e-12
-3.66896673675007e-10
5.51392033201667e-12
-3.62480367151061e-10
5.50748026898679e-12
-3.58066154533183e-10
5.50146773280691e-12
-3.53653893398263e-10
5.49587436172338e-12
-3.49243609255164e-10
5.49040551256603e-12
-3.44835307597144e-10
5.48497462543455e-12
-3.40428931998666e-10
5.47960305750492e-12
-3.36024588014261e-10
5.47412085247844e-12
-3.31622520631435e-10
5.46838599412866e-12
-3.27222846740982e-10
5.46248820372404e-12
-3.22825390959104e-10
5.45675769784762e-12
-3.18430058573643e-10
5.45115233033504e-12
-3.14037013634225e-10
5.44538626399569e-12
-3.09646238941376e-10
5.4395851774864e-12
-3.05257373441158e-10
5.43414320617877e-12
-3.00870373761909e-10
5.42873970175279e-12
-2.96485503440724e-10
5.42304173842654e-12
-2.92102722880066e-10
5.41731155081745e-12
-2.87721549022177e-10
5.41210676638269e-12
-2.83341810476025e-10
5.40710638360566e-12
-2.7896358083935e-10
5.40202321381674e-12
-2.74586669837649e-10
5.39700627474312e-12
-2.70210441900564e-10
5.39259765510095e-12
-2.65834687518814e-10
5.38837456226042e-12
-2.61459398071449e-10
5.38415715313838e-12
-2.57084094100399e-10
5.38027224313374e-12
-2.52707550271682e-10
5.37766779311168e-12
-2.48329437824916e-10
5.37529557563182e-12
-2.43949622640324e-10
5.37302115235005e-12
-2.39567117188104e-10
5.37148078591459e-12
-2.35179616705231e-10
5.37242474848728e-12
-2.30786530076486e-10
5.37379445169493e-12
-2.26387597588431e-10
5.37540420553413e-12
-2.21980936036276e-10
5.37838311345587e-12
-2.17562127309268e-10
5.38618970492257e-12
-2.13130427469015e-10
5.39431014921026e-12
-2.08685596587552e-10
5.40261359059737e-12
-2.04224019869041e-10
5.41345618184752e-12
-1.99736917612572e-10
5.43419078663416e-12
-1.95223965466702e-10
5.45426750733203e-12
-1.90685081869686e-10
5.47447129248924e-12
-1.86113094442366e-10
5.49968520917939e-12
-1.81491231722203e-10
5.54429986257368e-12
-1.76821612784483e-10
5.58439255392158e-12
-1.72104107499569e-10
5.6247241051128e-12
-1.67324575823881e-10
5.67601419685249e-12
-1.6245523358165e-10
5.75921531645362e-12
-1.5750117962489e-10
5.83342681545087e-12
-1.52462535376871e-10
5.90726338882087e-12
-1.47313082643278e-10
6.00253863212572e-12
-1.42001377839748e-10
6.15168522047459e-12
-1.36507819134976e-10
6.31268817995287e-12
-1.30804353140427e-10
6.49230601364534e-12
-1.24755201248655e-10
6.78971740899292e-12
-1.18150176280061e-10
7.31720574798191e-12
-1.10995453613603e-10
7.82206722705494e-12
-1.03258634862277e-10
8.35370581000573e-12
-9.47800207657181e-11
9.05514661167772e-12
-8.55516855330482e-11
9.77035295139922e-12
-7.57469499275542e-11
1.03009379133303e-11
-6.53836591935079e-11
1.08107469880826e-11
-5.43751671616929e-11
1.14302274506508e-11
-4.2879395015403e-11
1.18791064902787e-11
-3.10513068905383e-11
1.21814169021725e-11
-1.89373797621003e-11
1.24409670760637e-11
-6.6289328851551e-12
1.26225684021933e-11
5.69922137819359e-12
1.26204443764523e-11
1.79336850325059e-11
1.25318617934e-11
2.99347837789352e-11
1.22910468496942e-11
4.15344238132507e-11
1.19185877954368e-11
5.26845498844619e-11
1.14509083215819e-11
6.32389707233862e-11
1.09411168273129e-11
7.30128952760651e-11
1.00973583946217e-11
8.19514449929472e-11
9.4497717703456e-12
9.00870774971925e-11
8.44629532671197e-12
9.72010117335901e-11
7.83910974381226e-12
1.03514739572566e-10
6.64828799967341e-12
1.08439451074227e-10
6.36102560477924e-12
1.09462297337531e-10
6.65498947313526e-13
1.09707406170086e-10
9.85777440266407e-13
1.0962570692841e-10
2.47879617669518e-13
1.09141473987736e-10
2.07884769167746e-13
1.08446022725167e-10
-1.6138777367717e-13
1.07561644572073e-10
-2.10162864125813e-13
1.06581196282532e-10
-3.58780868925513e-13
1.05527430968972e-10
-3.81129076876448e-13
1.04441687172836e-10
-4.32477685600998e-13
1.03344755435659e-10