/*--------------------------------*- C++ -*----------------------------------*\
| =========                 |                                                 |
| \\      /  F ield         | OpenFOAM: The Open Source CFD Toolbox           |
|  \\    /   O peration     | Version:  4.1                                   |
|   \\  /    A nd           | Web:      www.OpenFOAM.org                      |
|    \\/     M anipulation  |                                                 |
\*---------------------------------------------------------------------------*/
FoamFile
{
    version     2.0;
    format      ascii;
    class       surfaceScalarField;
    location    "0.0084";
    object      phi;
}
// * * * * * * * * * * * * * * * * * * * * * * * * * * * * * * * * * * * * * //

dimensions      [0 3 -1 0 0 0 0];

internalField   nonuniform List<scalar> 
4288
(
-4.7283e-09
-9.3222e-10
-9.3707e-10
1.641e-09
1.6381e-09
-1.5177e-09
-7.2222e-10
-7.2639e-10
1.3651e-09
1.3651e-09
1.2587e-09
-5.1138e-10
-5.1465e-10
1.0827e-09
1.0798e-09
3.5402e-09
-3.1904e-10
-3.2165e-10
8.0821e-10
8.0773e-10
5.1994e-09
-2.2269e-10
-2.2448e-10
6.5222e-10
6.5088e-10
6.2293e-09
-4.7469e-11
-4.8434e-11
3.7652e-10
3.772e-10
6.9053e-09
1.1645e-10
1.1586e-10
-5.2928e-11
-4.969e-11
7.0506e-09
1.4462e-10
1.4447e-10
-2.4585e-10
-2.4391e-10
6.4396e-09
1.3573e-10
1.3596e-10
-2.2349e-10
-2.2255e-10
5.5248e-09
2.2843e-10
2.2868e-10
-4.0909e-10
-4.0898e-10
4.4757e-09
2.1636e-10
2.1715e-10
-4.2539e-10
-4.2483e-10
1.3857e-10
1.3907e-10
-3.3855e-10
-3.4008e-10
-4.8148e-09
-1.2656e-09
-2.0193e-09
4.153e-09
-1.6216e-09
-1.0791e-09
-1.8254e-09
3.8175e-09
1.1387e-09
-8.7619e-10
-1.6051e-09
3.4134e-09
3.4012e-09
-6.67e-10
-1.3727e-09
2.9527e-09
5.0814e-09
-4.9419e-10
-1.1529e-09
2.4413e-09
6.1203e-09
-2.3182e-10
-8.2238e-10
1.7847e-09
6.7587e-09
3.1297e-11
-4.2844e-10
7.6544e-10
6.9058e-09
2.4132e-10
2.5151e-11
-2.7447e-10
6.3511e-09
3.411e-10
2.1327e-10
-6.2587e-10
5.4636e-09
4.1341e-10
3.6448e-10
-9.3555e-10
4.4663e-09
3.8387e-10
4.1786e-10
-1.07e-09
3.3451e-10
3.9239e-10
-1.0427e-09
-4.8772e-09
-6.2261e-10
-2.5155e-09
3.9924e-09
-1.6982e-09
-5.1972e-10
-2.275e-09
3.6419e-09
1.0472e-09
-4.0663e-10
-1.9912e-09
3.2207e-09
3.2909e-09
-2.9003e-10
-1.6772e-09
2.7493e-09
4.9617e-09
-1.8657e-10
-1.347e-09
2.2185e-09
6.0173e-09
-3.3166e-11
-8.7906e-10
1.5506e-09
6.5733e-09
8.9903e-11
-4.0551e-10
7.5104e-10
6.7144e-09
2.1575e-10
1.0762e-10
-1.9085e-10
6.2682e-09
1.9172e-10
3.5563e-10
-5.0928e-10
5.4536e-09
2.1211e-10
5.7417e-10
-8.3862e-10
4.4685e-09
1.9373e-10
6.3063e-10
-9.5867e-10
1.5917e-10
5.7616e-10
-9.0645e-10
-4.9072e-09
-1.1232e-12
-2.7925e-09
4.4553e-09
-1.7355e-09
-8.7564e-13
-2.5638e-09
4.1213e-09
1.0023e-09
-6.4412e-13
-2.2847e-09
3.7094e-09
3.2373e-09
-4.3208e-13
-1.9691e-09
3.2393e-09
4.9027e-09
-4.9578e-13
-1.628e-09
2.7052e-09
5.9785e-09
-6.9514e-13
-1.1298e-09
2.0038e-09
6.5211e-09
-5.2003e-13
-6.2849e-10
1.1732e-09
6.6633e-09
-6.2609e-13
-6.5631e-11
1.9249e-10
6.2386e-09
-7.2195e-13
3.0921e-10
-4.3351e-10
5.4399e-09
-2.905e-13
5.3821e-10
-8.0972e-10
4.4751e-09
-2.8941e-13
6.2412e-10
-9.7814e-10
-5.087e-13
5.9574e-10
-9.6228e-10
-4.9072e-09
6.2034e-10
-2.7925e-09
4.4556e-09
-1.7354e-09
5.1773e-10
-2.5639e-09
4.1218e-09
1.0024e-09
4.0541e-10
-2.2848e-09
3.7097e-09
3.2374e-09
2.8914e-10
-1.9691e-09
3.2394e-09
4.9028e-09
1.8568e-10
-1.6281e-09
2.7053e-09
5.9786e-09
3.1852e-11
-1.1298e-09
2.0038e-09
6.5211e-09
-9.1157e-11
-6.2838e-10
1.1733e-09
6.6633e-09
-2.1715e-10
-6.552e-11
1.9259e-10
6.2387e-09
-1.938e-10
3.0964e-10
-4.3346e-10
5.4399e-09
-2.1245e-10
5.3826e-10
-8.0999e-10
4.4751e-09
-1.9412e-10
6.2412e-10
-9.7834e-10
-1.6007e-10
5.9577e-10
-9.6246e-10
-4.877e-09
1.2636e-09
-2.5153e-09
3.9922e-09
-1.6979e-09
1.0781e-09
-2.2747e-09
3.6413e-09
1.0476e-09
8.7514e-10
-1.9911e-09
3.2209e-09
3.2912e-09
6.6635e-10
-1.6774e-09
2.7497e-09
4.9619e-09
4.9277e-10
-1.3471e-09
2.2195e-09
6.0175e-09
2.2977e-10
-8.7892e-10
1.5514e-09
6.5735e-09
-3.2661e-11
-4.0538e-10
7.5099e-10
6.7148e-09
-2.4231e-10
1.0807e-10
-1.9193e-10
6.2682e-09
-3.4227e-10
3.5544e-10
-5.0974e-10
5.4536e-09
-4.1402e-10
5.7412e-10
-8.3846e-10
4.4684e-09
-3.8412e-10
6.3097e-10
-9.5912e-10
-3.3586e-10
5.7672e-10
-9.0685e-10
-4.8145e-09
9.3001e-10
-2.0191e-09
4.1537e-09
-1.6209e-09
7.2083e-10
-1.8255e-09
3.8184e-09
1.1392e-09
5.1029e-10
-1.6054e-09
3.4146e-09
3.4017e-09
3.1849e-10
-1.373e-09
2.9535e-09
5.0819e-09
2.2131e-10
-1.153e-09
2.4417e-09
6.1206e-09
4.5937e-11
-8.2246e-10
1.7847e-09
6.7588e-09
-1.1709e-10
-4.2797e-10
7.6443e-10
6.9061e-09
-1.4528e-10
2.566e-11
-2.7563e-10
6.3512e-09
-1.3669e-10
2.1359e-10
-6.2626e-10
5.4636e-09
-2.2873e-10
3.6479e-10
-9.3626e-10
4.4664e-09
-2.1686e-10
4.1828e-10
-1.0705e-09
-1.393e-10
3.9273e-10
-1.0436e-09
-4.7276e-09
-9.3658e-10
1.6414e-09
1.6351e-09
-1.517e-09
-7.2669e-10
1.3689e-09
1.3611e-09
1.2595e-09
-5.1548e-10
1.0848e-09
1.0781e-09
3.5406e-09
-3.2311e-10
8.1166e-10
8.0624e-10
5.2e-09
-2.2508e-10
6.5293e-10
6.4967e-10
6.2299e-09
-4.8445e-11
3.7689e-10
3.7562e-10
6.9058e-09
1.1568e-10
-5.1004e-11
-5.1712e-11
7.0511e-09
1.448e-10
-2.4485e-10
-2.4586e-10
6.4394e-09
1.3647e-10
-2.2319e-10
-2.2374e-10
5.525e-09
2.2927e-10
-4.0953e-10
-4.0996e-10
4.4757e-09
2.1743e-10
-4.2541e-10
-4.2571e-10
1.3981e-10
-3.4043e-10
-3.3958e-10
-4.8151e-09
-2.013e-09
-1.2681e-09
4.1505e-09
-1.6216e-09
-1.8198e-09
-1.0813e-09
3.8154e-09
1.1386e-09
-1.6002e-09
-8.7746e-10
3.4114e-09
3.4011e-09
-1.3684e-09
-6.6796e-10
2.9508e-09
5.0813e-09
-1.1497e-09
-4.9486e-10
2.4401e-09
6.1201e-09
-8.2032e-10
-2.3206e-10
1.7842e-09
6.7584e-09
-4.2699e-10
3.0986e-11
7.6495e-10
6.9056e-09
2.617e-11
2.4137e-10
-2.7553e-10
6.3508e-09
2.1367e-10
3.4153e-10
-6.2664e-10
5.4632e-09
3.6462e-10
4.1372e-10
-9.3662e-10
4.4663e-09
4.183e-10
3.8419e-10
-1.0715e-09
3.9266e-10
3.3487e-10
-1.0439e-09
-4.8588e-09
-1.3754e-09
-1.3812e-09
-1.6818e-09
-1.2401e-09
-1.2454e-09
1.065e-09
-1.0879e-09
-1.0924e-09
3.3163e-09
-9.2943e-10
-9.3313e-10
5.0069e-09
-7.891e-10
-7.9191e-10
6.0798e-09
-5.426e-10
-5.4442e-10
6.6798e-09
-3.2087e-10
-3.2197e-10
6.8251e-09
-3.1271e-11
-3.1872e-11
6.3068e-09
1.5902e-10
1.5921e-10
5.4898e-09
2.3484e-10
2.3538e-10
4.5124e-09
2.7273e-10
2.7309e-10
2.4316e-10
2.4366e-10
-4.928e-09
-6.7376e-10
-1.7641e-09
-1.7658e-09
-5.9323e-10
-1.6006e-09
9.661e-10
-5.0392e-10
-1.4077e-09
3.2016e-09
-4.1134e-10
-1.1963e-09
4.878e-09
-3.3004e-10
-9.8947e-10
5.9793e-09
-1.872e-10
-6.483e-10
6.5353e-09
-7.6726e-11
-3.517e-10
6.6548e-09
4.4664e-11
-2.8225e-11
6.2272e-09
7.7045e-11
2.5749e-10
5.4655e-09
1.255e-10
3.8047e-10
4.539e-09
1.4129e-10
4.2336e-10
1.1735e-10
3.9232e-10
-4.9582e-09
-6.4032e-13
-1.9158e-09
-1.8038e-09
-4.8358e-13
-1.747e-09
9.2064e-10
-4.0709e-13
-1.5435e-09
3.1482e-09
-3.1593e-13
-1.3162e-09
4.8159e-09
-3.6119e-13
-1.0884e-09
5.9286e-09
-4.045e-13
-7.0981e-10
6.4889e-09
-3.4682e-13
-3.8883e-10
6.6166e-09
-3.1089e-13
-7.3587e-11
6.1986e-09
-2.5583e-13
2.0667e-10
5.4533e-09
-8.8157e-14
3.4951e-10
4.5475e-09
-1.5538e-13
4.0671e-10
-3.2349e-13
3.8177e-10
-4.9582e-09
6.726e-10
-1.9157e-09
-1.8036e-09
5.9197e-10
-1.7468e-09
9.2075e-10
5.0305e-10
-1.5434e-09
3.1483e-09
4.1068e-10
-1.3161e-09
4.816e-09
3.2924e-10
-1.0884e-09
5.9286e-09
1.8647e-10
-7.098e-10
6.489e-09
7.6011e-11
-3.8872e-10
6.6166e-09
-4.5249e-11
-7.3527e-11
6.1987e-09
-7.7311e-11
2.0678e-10
5.4533e-09
-1.2564e-10
3.4956e-10
4.5475e-09
-1.4159e-10
4.0664e-10
-1.1798e-10
3.8179e-10
-4.9278e-09
1.374e-09
-1.7635e-09
-1.7656e-09
1.2391e-09
-1.6001e-09
9.6637e-10
1.087e-09
-1.4074e-09
3.2018e-09
9.2858e-10
-1.1962e-09
4.8782e-09
7.8813e-10
-9.8938e-10
5.9795e-09
5.416e-10
-6.479e-10
6.5355e-09
3.1992e-10
-3.5143e-10
6.655e-09
3.0617e-11
-2.7804e-11
6.2273e-09
-1.5967e-10
2.5769e-10
5.4656e-09
-2.3533e-10
3.8065e-10
4.5389e-09
-2.7294e-10
4.2362e-10
-2.4373e-10
3.9274e-10
-4.8586e-09
2.0117e-09
-1.3805e-09
-1.6813e-09
1.8186e-09
-1.245e-09
1.0655e-09
1.5992e-09
-1.0922e-09
3.3167e-09
1.3675e-09
-9.3303e-10
5.0074e-09
1.1485e-09
-7.9167e-10
6.0802e-09
8.191e-10
-5.4426e-10
6.6799e-09
4.2609e-10
-3.2132e-10
6.8254e-09
-2.712e-11
-3.1513e-11
6.3069e-09
-2.1439e-10
1.5954e-10
5.4897e-09
-3.6493e-10
2.3546e-10
4.5124e-09
-4.1844e-10
2.7321e-10
-3.9308e-10
2.4387e-10
-4.8146e-09
-1.2669e-09
4.149e-09
-1.621e-09
-1.0804e-09
3.8136e-09
1.1391e-09
-8.7732e-10
3.4101e-09
3.4016e-09
-6.6837e-10
2.9494e-09
5.0818e-09
-4.9481e-10
2.4385e-09
6.1206e-09
-2.3152e-10
1.7826e-09
6.7587e-09
3.184e-11
7.6322e-10
6.9061e-09
2.4212e-10
-2.7717e-10
6.3509e-09
3.423e-10
-6.2748e-10
5.4634e-09
4.1408e-10
-9.3705e-10
4.4661e-09
3.8433e-10
-1.0714e-09
3.3566e-10
-1.0444e-09
-4.8775e-09
-2.5113e-09
-6.2166e-10
3.9918e-09
-1.6983e-09
-2.2712e-09
-5.183e-10
3.6406e-09
1.047e-09
-1.9879e-09
-4.0533e-10
3.2204e-09
3.2907e-09
-1.6744e-09
-2.8894e-10
2.7489e-09
4.9613e-09
-1.3449e-09
-1.8592e-10
2.2186e-09
6.0169e-09
-8.7734e-10
-3.2671e-11
1.5506e-09
6.573e-09
-4.0395e-10
9.0237e-11
7.5008e-10
6.7142e-09
1.0891e-10
2.1599e-10
-1.921e-10
6.2679e-09
3.5639e-10
1.9196e-10
-5.1026e-10
5.4532e-09
5.7485e-10
2.1169e-10
-8.3953e-10
4.4684e-09
6.318e-10
1.9296e-10
-9.6013e-10
5.7707e-10
1.5836e-10
-9.074e-10
-4.9281e-09
-1.7572e-09
-6.7469e-10
-1.7662e-09
-1.5941e-09
-5.9381e-10
9.6579e-10
-1.4023e-09
-5.045e-10
3.2013e-09
-1.1918e-09
-4.1175e-10
4.8776e-09
-9.8585e-10
-3.3036e-10
5.9789e-09
-6.455e-10
-1.8738e-10
6.535e-09
-3.4964e-10
-7.6761e-11
6.6544e-09
-2.7054e-11
4.4638e-11
6.2269e-09
2.5795e-10
7.6865e-11
5.4653e-09
3.808e-10
1.2513e-10
4.5387e-09
4.235e-10
1.4121e-10
3.9248e-10
1.1713e-10
-4.9987e-09
-9.168e-10
-9.2048e-10
-1.8498e-09
-8.2962e-10
-8.3285e-10
8.6952e-10
-7.2765e-10
-7.3038e-10
3.0929e-09
-6.1652e-10
-6.1883e-10
4.7456e-09
-5.1174e-10
-5.1356e-10
5.8737e-09
-3.2682e-10
-3.2816e-10
6.4275e-09
-1.7322e-10
-1.7424e-10
6.4937e-09
-1.3988e-11
-1.4545e-11
6.1368e-09
1.4132e-10
1.4102e-10
5.4264e-09
2.0591e-10
2.0586e-10
4.5435e-09
2.2915e-10
2.2897e-10
2.1314e-10
2.1297e-10
-5.031e-09
-3.1143e-13
-1.0097e-09
-1.8888e-09
-2.074e-13
-9.1828e-10
8.239e-10
-2.8021e-13
-8.0882e-10
3.04e-09
-2.6073e-13
-6.8728e-10
4.6718e-09
-3.4748e-13
-5.6311e-10
5.8207e-09
-3.852e-13
-3.7083e-10
6.3915e-09
-3.2634e-13
-1.9349e-10
6.4537e-09
-3.2406e-13
-3.8152e-11
6.1069e-09
-2.6375e-13
1.1308e-10
5.4097e-09
-2.4367e-13
1.9291e-10
4.5446e-09
-2.2267e-13
2.2288e-10
-3.6332e-13
2.0982e-10
-5.031e-09
9.1617e-10
-1.0096e-09
-1.8887e-09
8.2919e-10
-9.1804e-10
8.2398e-10
7.2714e-10
-8.087e-10
3.04e-09
6.16e-10
-6.8718e-10
4.6718e-09
5.1105e-10
-5.6304e-10
5.8208e-09
3.2607e-10
-3.7081e-10
6.3916e-09
1.7255e-10
-1.934e-10
6.4537e-09
1.3388e-11
-3.8122e-11
6.107e-09
-1.4181e-10
1.1314e-10
5.4096e-09
-2.0634e-10
1.929e-10
4.5447e-09
-2.2966e-10
2.2282e-10
-2.1385e-10
2.0982e-10
-4.9985e-09
1.7564e-09
-9.195e-10
-1.8497e-09
1.5938e-09
-8.3208e-10
8.6973e-10
1.4017e-09
-7.2974e-10
3.0931e-09
1.1911e-09
-6.1832e-10
4.7458e-09
9.8491e-10
-5.132e-10
5.8739e-09
6.447e-10
-3.2766e-10
6.4277e-09
3.488e-10
-1.7382e-10
6.4939e-09
2.6492e-11
-1.4215e-11
6.1369e-09
-2.584e-10
1.4118e-10
5.4265e-09
-3.8125e-10
2.0594e-10
4.5434e-09
-4.2376e-10
2.2908e-10
-3.9318e-10
2.1324e-10
-4.928e-09
2.5105e-09
-6.7334e-10
-1.7658e-09
2.2704e-09
-5.9262e-10
9.662e-10
1.987e-09
-5.0351e-10
3.2017e-09
1.6735e-09
-4.1112e-10
4.8781e-09
1.3436e-09
-3.2965e-10
5.9793e-09
8.7635e-10
-1.8689e-10
6.5352e-09
4.0312e-10
-7.6135e-11
6.6546e-09
-1.095e-10
4.4944e-11
6.227e-09
-3.5653e-10
7.6831e-11
5.4653e-09
-5.751e-10
1.2491e-10
4.5387e-09
-6.3187e-10
1.4097e-10
-5.7769e-10
1.1718e-10
-4.877e-09
-6.1912e-10
3.9898e-09
-1.698e-09
-5.1638e-10
3.6398e-09
1.0475e-09
-4.0404e-10
3.2187e-09
3.2911e-09
-2.8807e-10
2.7472e-09
4.9619e-09
-1.853e-10
2.2169e-09
6.0175e-09
-3.1911e-11
1.5494e-09
6.5734e-09
9.0996e-11
7.4946e-10
6.7146e-09
2.1673e-10
-1.9277e-10
6.2681e-09
1.9322e-10
-5.1082e-10
5.4533e-09
2.1176e-10
-8.3966e-10
4.4681e-09
1.9311e-10
-9.6013e-10
1.5878e-10
-9.0803e-10
-4.9073e-09
-2.7907e-09
-5.0568e-13
4.4558e-09
-1.7355e-09
-2.5623e-09
-5.8906e-14
4.1219e-09
1.002e-09
-2.2834e-09
7.5392e-14
3.7103e-09
3.237e-09
-1.968e-09
5.8296e-14
3.2399e-09
4.9024e-09
-1.6272e-09
-7.6552e-14
2.7055e-09
5.9782e-09
-1.1293e-09
-2.7817e-13
2.004e-09
6.5208e-09
-6.2806e-10
-4.9019e-13
1.1733e-09
6.6632e-09
-6.5268e-11
-8.034e-13
1.9256e-10
6.2384e-09
3.097e-10
-8.1053e-13
-4.337e-10
5.4396e-09
5.3869e-10
-8.6035e-13
-8.1017e-10
4.4751e-09
6.2445e-10
-8.9265e-13
-9.7904e-10
5.9623e-10
-1.3496e-12
-9.6288e-10
-4.9583e-09
-1.9108e-09
-5.0576e-13
-1.804e-09
-1.7423e-09
-3.5938e-13
9.204e-10
-1.5398e-09
-1.5061e-13
3.1479e-09
-1.313e-09
-1.22e-13
4.8156e-09
-1.0859e-09
-2.3803e-13
5.9283e-09
-7.08e-10
-3.2855e-13
6.4887e-09
-3.8746e-10
-4.5503e-13
6.6164e-09
-7.2757e-11
-5.5514e-13
6.1985e-09
2.0699e-10
-5.9428e-13
5.4533e-09
3.4949e-10
-5.7248e-13
4.5474e-09
4.0685e-10
-6.4042e-13
3.8185e-10
-9.3315e-13
-5.0311e-09
-1.0058e-09
-7.895e-13
-1.8889e-09
-9.1462e-10
-5.8699e-13
8.2376e-10
-8.0585e-10
-4.5788e-13
3.0398e-09
-6.8476e-10
-4.6902e-13
4.6716e-09
-5.6114e-10
-4.8165e-13
5.8205e-09
-3.6944e-10
-5.0569e-13
6.3914e-09
-1.9238e-10
-6.2229e-13
6.4536e-09
-3.7546e-11
-6.2637e-13
6.1068e-09
1.1342e-10
-6.4349e-13
5.4095e-09
1.9295e-10
-6.2727e-13
4.5446e-09
2.2288e-10
-6.8636e-13
2.0985e-10
-8.8155e-13
-5.0649e-09
1.5623e-14
-9.7462e-13
-1.9288e-09
5.6964e-14
-8.1407e-13
7.7769e-10
-3.4302e-14
-6.3397e-13
2.9877e-09
-7.084e-14
-6.086e-13
4.6259e-09
-2.045e-13
-5.9119e-13
5.7672e-09
-2.151e-13
-5.4778e-13
6.3634e-09
-1.9158e-13
-6.3263e-13
6.4214e-09
-2.0106e-13
-5.5824e-13
6.0719e-09
-2.0115e-13
-5.7279e-13
5.3909e-09
-1.5655e-13
-4.6192e-13
4.543e-09
-1.9418e-13
-5.4252e-13
-2.9858e-13
-6.573e-13
-5.0649e-09
1.0061e-09
-9.5632e-13
-1.9288e-09
9.1502e-10
-7.9237e-13
7.7775e-10
8.0601e-10
-6.4259e-13
2.9878e-09
6.848e-10
-6.2826e-13
4.6259e-09
5.6086e-10
-6.1569e-13
5.7672e-09
3.6906e-10
-5.5205e-13
6.3635e-09
1.9206e-10
-6.1311e-13
6.4215e-09
3.7172e-11
-5.4254e-13
6.0719e-09
-1.138e-10
-5.5153e-13
5.3909e-09
-1.9323e-10
-4.9248e-13
4.543e-09
-2.2336e-10
-5.7667e-13
-2.1047e-10
-6.5866e-13
-5.031e-09
1.9111e-09
4.073e-13
-1.8888e-09
1.7429e-09
4.2448e-13
8.2391e-10
1.5398e-09
4.5247e-13
3.0399e-09
1.313e-09
2.9544e-13
4.6718e-09
1.0855e-09
1.1545e-13
5.8207e-09
7.0765e-10
2.5739e-15
6.3916e-09
3.8706e-10
-1.819e-13
6.4538e-09
7.2448e-11
-2.958e-13
6.1069e-09
-2.0726e-10
-5.2394e-13
5.4096e-09
-3.4983e-10
-5.8499e-13
4.5445e-09
-4.071e-10
-7.0382e-13
-3.8238e-10
-7.5258e-13
-4.9583e-09
2.7903e-09
2.1659e-12
-1.8036e-09
2.5618e-09
2.0261e-12
9.207e-10
2.283e-09
1.8216e-12
3.1483e-09
1.9673e-09
1.437e-12
4.816e-09
1.6264e-09
1.0028e-12
5.9285e-09
1.1286e-09
6.0795e-13
6.4888e-09
6.2762e-10
2.8847e-13
6.6165e-09
6.4889e-11
-1.6902e-13
6.1986e-09
-3.1009e-10
-6.1504e-13
5.4531e-09
-5.388e-10
-9.1656e-13
4.5474e-09
-6.249e-10
-9.7572e-13
-5.9662e-10
-1.0231e-12
-4.9069e-09
2.6674e-12
4.4552e-09
-1.7353e-09
2.4267e-12
4.1219e-09
1.0024e-09
2.1285e-12
3.7095e-09
3.2374e-09
1.4966e-12
3.2391e-09
4.903e-09
8.9827e-13
2.7044e-09
5.9787e-09
5.1077e-13
2.0035e-09
6.5212e-09
2.0747e-13
1.1731e-09
6.6635e-09
-2.9138e-13
1.9244e-10
6.2386e-09
-2.2924e-13
-4.3346e-10
5.4398e-09
-8.2378e-13
-8.1043e-10
4.4748e-09
-1.0292e-12
-9.7897e-10
-1.1514e-12
-9.6332e-10
-4.9073e-09
-2.7908e-09
6.2073e-10
4.4557e-09
-1.7355e-09
-2.5623e-09
5.1809e-10
4.1219e-09
1.002e-09
-2.2835e-09
4.0557e-10
3.7103e-09
3.237e-09
-1.9682e-09
2.891e-10
3.24e-09
4.9024e-09
-1.6274e-09
1.8556e-10
2.7058e-09
5.9782e-09
-1.1294e-09
3.1737e-11
2.0045e-09
6.5208e-09
-6.2817e-10
-9.1612e-11
1.1739e-09
6.6631e-09
-6.5423e-11
-2.1763e-10
1.9281e-10
6.2384e-09
3.0966e-10
-1.9379e-10
-4.3346e-10
5.4396e-09
5.3841e-10
-2.1301e-10
-8.1018e-10
4.4752e-09
6.243e-10
-1.9461e-10
-9.7906e-10
5.9627e-10
-1.6093e-10
-9.6292e-10
-4.9583e-09
-1.911e-09
6.7375e-10
-1.804e-09
-1.7425e-09
5.9338e-10
9.2036e-10
-1.5399e-09
5.0417e-10
3.1479e-09
-1.3131e-09
4.1148e-10
4.8156e-09
-1.0861e-09
3.2985e-10
5.9283e-09
-7.0809e-10
1.8666e-10
6.4886e-09
-3.8754e-10
7.5828e-11
6.6163e-09
-7.2845e-11
-4.5769e-11
6.1985e-09
2.0693e-10
-7.8049e-11
5.4533e-09
3.4955e-10
-1.2654e-10
4.5474e-09
4.0678e-10
-1.4248e-10
3.8191e-10
-1.1889e-10
-5.0311e-09
-1.006e-09
9.1885e-10
-1.8889e-09
-9.1485e-10
8.3162e-10
8.237e-10
-8.0601e-10
7.294e-10
3.0397e-09
-6.849e-10
6.1784e-10
4.6715e-09
-5.6126e-10
5.1254e-10
5.8205e-09
-3.6951e-10
3.2713e-10
6.3913e-09
-1.9244e-10
1.7302e-10
6.4536e-09
-3.7593e-11
1.3264e-11
6.1068e-09
1.1343e-10
-1.4235e-10
5.4095e-09
1.9294e-10
-2.0695e-10
4.5446e-09
2.2287e-10
-2.3036e-10
2.0986e-10
-2.1458e-10
-5.065e-09
4.6409e-14
1.0075e-09
-1.9289e-09
9.364e-14
9.1633e-10
7.7762e-10
-1.4493e-14
8.0732e-10
2.9876e-09
-6.2611e-14
6.8589e-10
4.6258e-09
-1.8915e-13
5.6176e-10
5.7671e-09
-1.8559e-13
3.6964e-10
6.3634e-09
-1.4927e-13
1.9216e-10
6.4214e-09
-1.4941e-13
3.697e-11
6.0719e-09
-1.518e-13
-1.1423e-10
5.3909e-09
-1.6267e-13
-1.9374e-10
4.543e-09
-1.6783e-13
-2.2393e-10
-2.5116e-13
-2.1108e-10
-5.065e-09
1.0074e-09
1.0063e-09
-1.9289e-09
9.1629e-10
9.1516e-10
7.7766e-10
8.0705e-10
8.0632e-10
2.9877e-09
6.8568e-10
6.8501e-10
4.6259e-09
5.6159e-10
5.6107e-10
5.7672e-09
3.6963e-10
3.6918e-10
6.3634e-09
1.9249e-10
1.9185e-10
6.4214e-09
3.7459e-11
3.6848e-11
6.0719e-09
-1.1366e-10
-1.1428e-10
5.3909e-09
-1.9331e-10
-1.937e-10
4.543e-09
-2.2341e-10
-2.2383e-10
-2.1052e-10
-2.1094e-10
-5.031e-09
1.9131e-09
9.1726e-10
-1.8888e-09
1.7448e-09
8.3015e-10
8.2387e-10
1.5415e-09
7.2814e-10
3.0399e-09
1.3144e-09
6.1683e-10
4.6718e-09
1.0866e-09
5.1177e-10
5.8207e-09
7.0856e-10
3.2653e-10
6.3916e-09
3.8776e-10
1.7285e-10
6.4538e-09
7.2986e-11
1.3306e-11
6.1069e-09
-2.0686e-10
-1.4228e-10
5.4097e-09
-3.4983e-10
-2.067e-10
4.5446e-09
-4.0695e-10
-2.3016e-10
-3.8233e-10
-2.1427e-10
-4.9581e-09
2.7907e-09
6.7442e-10
-1.8036e-09
2.5621e-09
5.9412e-10
9.2067e-10
2.2833e-09
5.0468e-10
3.1483e-09
1.9677e-09
4.1189e-10
4.816e-09
1.6268e-09
3.3007e-10
5.9286e-09
1.129e-09
1.8707e-10
6.4889e-09
6.2802e-10
7.6179e-11
6.6166e-09
6.5287e-11
-4.5255e-11
6.1987e-09
-3.0932e-10
-7.7951e-11
5.4533e-09
-5.3834e-10
-1.2641e-10
4.5475e-09
-6.2443e-10
-1.4219e-10
-5.9619e-10
-1.1857e-10
-4.9069e-09
6.2271e-10
4.4549e-09
-1.7354e-09
5.1986e-10
4.1213e-09
1.0023e-09
4.0714e-10
3.709e-09
3.2372e-09
2.9028e-10
3.2387e-09
4.9029e-09
1.8641e-10
2.7043e-09
5.9786e-09
3.2479e-11
2.0035e-09
6.5211e-09
-9.0552e-11
1.1731e-09
6.6635e-09
-2.168e-10
1.9224e-10
6.2385e-09
-1.9273e-10
-4.3324e-10
5.4398e-09
-2.1292e-10
-8.1007e-10
4.4749e-09
-1.947e-10
-9.7842e-10
-1.6068e-10
-9.6269e-10
-4.8773e-09
-2.5114e-09
1.2676e-09
3.991e-09
-1.6983e-09
-2.2718e-09
1.0818e-09
3.6406e-09
1.0468e-09
-1.9884e-09
8.7815e-10
3.2204e-09
3.2904e-09
-1.6749e-09
6.6821e-10
2.7493e-09
4.9611e-09
-1.3453e-09
4.9435e-10
2.2192e-09
6.0167e-09
-8.7763e-10
2.3089e-10
1.5511e-09
6.5729e-09
-4.0425e-10
-3.2378e-11
7.504e-10
6.7142e-09
1.0871e-10
-2.4263e-10
-1.9236e-10
6.2678e-09
3.56e-10
-3.4286e-10
-5.1005e-10
5.4532e-09
5.747e-10
-4.1523e-10
-8.3928e-10
4.4683e-09
6.3146e-10
-3.8541e-10
-9.5996e-10
5.7706e-10
-3.3735e-10
-9.0748e-10
-4.9282e-09
-1.7576e-09
1.3804e-09
-1.7662e-09
-1.5946e-09
1.2446e-09
9.6567e-10
-1.4028e-09
1.0921e-09
3.2011e-09
-1.1922e-09
9.3284e-10
4.8774e-09
-9.8627e-10
7.9132e-10
5.9788e-09
-6.4575e-10
5.4364e-10
6.5349e-09
-3.4992e-10
3.2098e-10
6.6544e-09
-2.6982e-11
3.0411e-11
6.2269e-09
2.5792e-10
-1.606e-10
5.4652e-09
3.8061e-10
-2.3655e-10
4.5387e-09
4.2342e-10
-2.744e-10
3.9258e-10
-2.4539e-10
-4.9987e-09
-9.174e-10
1.7625e-09
-1.8499e-09
-8.3017e-10
1.5993e-09
8.693e-10
-7.282e-10
1.4068e-09
3.0927e-09
-6.1704e-10
1.1953e-09
4.7453e-09
-5.1215e-10
9.8842e-10
5.8735e-09
-3.2706e-10
6.4724e-10
6.4274e-09
-1.7338e-10
3.5032e-10
6.4938e-09
-1.3898e-11
2.6889e-11
6.1367e-09
1.4145e-10
-2.5869e-10
5.4264e-09
2.0604e-10
-3.818e-10
4.5435e-09
2.2915e-10
-4.2453e-10
2.1336e-10
-3.9393e-10
-5.0311e-09
-1.1294e-12
1.9135e-09
-1.8889e-09
-1.026e-12
1.7451e-09
8.2367e-10
-9.8075e-13
1.5421e-09
3.0397e-09
-8.5462e-13
1.3147e-09
4.6715e-09
-8.2341e-13
1.0871e-09
5.8205e-09
-6.2296e-13
7.0864e-10
6.3914e-09
-3.5381e-13
3.8748e-10
6.4538e-09
-1.9337e-13
7.2279e-11
6.1069e-09
-6.8574e-14
-2.0758e-10
5.4096e-09
-2.6755e-14
-3.5022e-10
4.5446e-09
8.3827e-14
-4.0778e-10
-2.0742e-14
-3.8296e-10
-5.0311e-09
9.182e-10
1.9117e-09
-1.8889e-09
8.3089e-10
1.7433e-09
8.2365e-10
7.2871e-10
1.5406e-09
3.0397e-09
6.1739e-10
1.3134e-09
4.6715e-09
5.1217e-10
1.086e-09
5.8205e-09
3.2703e-10
7.0784e-10
6.3914e-09
1.7346e-10
3.8682e-10
6.4537e-09
1.3897e-11
7.196e-11
6.1068e-09
-1.4165e-10
-2.077e-10
5.4095e-09
-2.0625e-10
-3.5039e-10
4.5446e-09
-2.2954e-10
-4.0766e-10
-2.137e-10
-3.8297e-10
-4.9986e-09
1.7618e-09
1.7576e-09
-1.8499e-09
1.5987e-09
1.5947e-09
8.6942e-10
1.4061e-09
1.4029e-09
3.0927e-09
1.195e-09
1.1921e-09
4.7455e-09
9.8813e-10
9.8583e-10
5.8737e-09
6.4729e-10
6.4518e-10
6.4275e-09
3.5102e-10
3.4928e-10
6.4939e-09
2.7699e-11
2.6296e-11
6.1368e-09
-2.5784e-10
-2.588e-10
5.4265e-09
-3.808e-10
-3.8162e-10
4.5433e-09
-4.2363e-10
-4.2435e-10
-3.9288e-10
-3.937e-10
-4.9279e-09
2.5133e-09
1.3759e-09
-1.7657e-09
2.2734e-09
1.2407e-09
9.6611e-10
1.9899e-09
1.0884e-09
3.2016e-09
1.6759e-09
9.2994e-10
4.878e-09
1.3457e-09
7.8908e-10
5.9792e-09
8.7831e-10
5.4237e-10
6.5353e-09
4.0512e-10
3.2021e-10
6.6548e-09
-1.0778e-10
3.0482e-11
6.2273e-09
-3.5561e-10
-1.6016e-10
5.4655e-09
-5.7441e-10
-2.356e-10
4.5389e-09
-6.3078e-10
-2.7345e-10
-5.7647e-10
-2.444e-10
-4.8769e-09
1.266e-09
3.9898e-09
-1.6981e-09
1.0798e-09
3.6402e-09
1.0472e-09
8.7668e-10
3.2197e-09
3.2908e-09
6.6774e-10
2.7477e-09
4.9617e-09
4.9407e-10
2.2171e-09
6.0173e-09
2.313e-10
1.5498e-09
6.5734e-09
-3.1478e-11
7.5025e-10
6.7146e-09
-2.4209e-10
-1.9124e-10
6.2682e-09
-3.4195e-10
-5.0909e-10
5.4535e-09
-4.1441e-10
-8.3851e-10
4.4683e-09
-3.8431e-10
-9.5887e-10
-3.3634e-10
-9.0634e-10
-4.815e-09
-2.0135e-09
9.358e-10
4.1515e-09
-1.6218e-09
-1.8204e-09
7.2622e-10
3.8165e-09
1.1382e-09
-1.6011e-09
5.1491e-10
3.4128e-09
3.4006e-09
-1.3693e-09
3.2201e-10
2.9516e-09
5.0808e-09
-1.1501e-09
2.2432e-10
2.44e-09
6.1198e-09
-8.2046e-10
4.8047e-11
1.7836e-09
6.7583e-09
-4.2699e-10
-1.1614e-10
7.6379e-10
6.9055e-09
2.5657e-11
-1.4512e-10
-2.7553e-10
6.3508e-09
2.1354e-10
-1.378e-10
-6.2614e-10
5.4632e-09
3.6395e-10
-2.2992e-10
-9.3617e-10
4.4662e-09
4.1741e-10
-2.1804e-10
-1.0708e-09
3.9232e-10
-1.4109e-10
-1.0439e-09
-4.8588e-09
-1.376e-09
2.0185e-09
-1.6819e-09
-1.2407e-09
1.8246e-09
1.0647e-09
-1.0888e-09
1.6047e-09
3.3159e-09
-9.3018e-10
1.3722e-09
5.0066e-09
-7.8962e-10
1.1524e-09
6.0795e-09
-5.4296e-10
8.218e-10
6.6797e-09
-3.2106e-10
4.2753e-10
6.825e-09
-3.181e-11
-2.6514e-11
6.3068e-09
1.5897e-10
-2.1486e-10
5.4897e-09
2.3446e-10
-3.6568e-10
4.5123e-09
2.7217e-10
-4.1922e-10
2.431e-10
-3.9415e-10
-4.928e-09
-6.7483e-10
2.5141e-09
-1.7661e-09
-5.9441e-10
2.2742e-09
9.6579e-10
-5.0507e-10
1.9903e-09
3.2013e-09
-4.1234e-10
1.6762e-09
4.8777e-09
-3.3087e-10
1.3461e-09
5.979e-09
-1.878e-10
8.7826e-10
6.5351e-09
-7.6937e-11
4.0417e-10
6.6546e-09
4.4353e-11
-1.0904e-10
6.2273e-09
7.6565e-11
-3.5644e-10
5.4655e-09
1.2518e-10
-5.7523e-10
4.539e-09
1.412e-10
-6.3194e-10
1.1743e-10
-5.776e-10
-4.9583e-09
-2.9835e-12
2.7913e-09
-1.804e-09
-2.6599e-12
2.5627e-09
9.2036e-10
-2.4458e-12
2.2838e-09
3.1478e-09
-2.1153e-12
1.9683e-09
4.8156e-09
-1.8251e-12
1.6272e-09
5.9283e-09
-1.412e-12
1.1291e-09
6.4887e-09
-8.6216e-13
6.2757e-10
6.6165e-09
-5.4051e-13
6.4453e-11
6.1987e-09
-2.826e-13
-3.1055e-10
5.4534e-09
-1.4527e-14
-5.3891e-10
4.5475e-09
1.2112e-13
-6.2498e-10
7.8976e-14
-5.9693e-10
-4.9584e-09
6.7202e-10
2.791e-09
-1.8041e-09
5.9173e-10
2.5624e-09
9.2028e-10
5.0272e-10
2.2835e-09
3.1478e-09
4.1018e-10
1.968e-09
4.8155e-09
3.2881e-10
1.6269e-09
5.9282e-09
1.8623e-10
1.1287e-09
6.4886e-09
7.5865e-11
6.2723e-10
6.6163e-09
-4.5118e-11
6.4132e-11
6.1986e-09
-7.7376e-11
-3.1081e-10
5.4532e-09
-1.2561e-10
-5.3936e-10
4.5474e-09
-1.4165e-10
-6.2517e-10
-1.1794e-10
-5.9718e-10
-4.9281e-09
1.379e-09
2.5114e-09
-1.7663e-09
1.2435e-09
2.2718e-09
9.657e-10
1.0909e-09
1.9883e-09
3.2011e-09
9.32e-10
1.6745e-09
4.8776e-09
7.9096e-10
1.3444e-09
5.9789e-09
5.4374e-10
8.7676e-10
6.535e-09
3.2149e-10
4.0339e-10
6.6544e-09
3.1783e-11
-1.0979e-10
6.2271e-09
-1.598e-10
-3.5705e-10
5.4653e-09
-2.3558e-10
-5.7568e-10
4.5387e-09
-2.7335e-10
-6.325e-10
-2.4449e-10
-5.7806e-10
-4.8588e-09
2.0173e-09
2.0136e-09
-1.6817e-09
1.8237e-09
1.8203e-09
1.065e-09
1.6037e-09
1.6008e-09
3.3162e-09
1.3717e-09
1.369e-09
5.0069e-09
1.1521e-09
1.1497e-09
6.0798e-09
8.22e-10
8.2003e-10
6.6797e-09
4.2828e-10
4.2632e-10
6.825e-09
-2.5116e-11
-2.6852e-11
6.307e-09
-2.1379e-10
-2.1501e-10
5.4897e-09
-3.6428e-10
-3.6521e-10
4.5124e-09
-4.1796e-10
-4.1903e-10
-3.93e-10
-3.9379e-10
-4.8146e-09
9.3286e-10
4.151e-09
-1.6214e-09
7.2318e-10
3.8159e-09
1.1388e-09
5.1186e-10
3.4123e-09
3.4011e-09
3.2015e-10
2.9518e-09
5.0814e-09
2.2319e-10
2.4399e-09
6.1204e-09
4.7757e-11
1.7837e-09
6.7586e-09
-1.1611e-10
7.6517e-10
6.9058e-09
-1.4527e-10
-2.7445e-10
6.3512e-09
-1.3735e-10
-6.2548e-10
5.4634e-09
-2.2919e-10
-9.3528e-10
4.4662e-09
-2.1701e-10
-1.0698e-09
-1.4044e-10
-1.0429e-09
-4.7281e-09
-9.3235e-10
1.6379e-09
1.6392e-09
-1.5177e-09
-7.2333e-10
1.3644e-09
1.3667e-09
1.2583e-09
-5.1271e-10
1.0818e-09
1.0825e-09
3.5396e-09
-3.2074e-10
8.0925e-10
8.0905e-10
5.1989e-09
-2.2369e-10
6.5271e-10
6.5136e-10
6.229e-09
-4.8074e-11
3.7741e-10
3.7669e-10
6.9051e-09
1.1546e-10
-5.1564e-11
-5.022e-11
7.0508e-09
1.4362e-10
-2.4551e-10
-2.4413e-10
6.4389e-09
1.3509e-10
-2.24e-10
-2.2233e-10
5.5246e-09
2.2746e-10
-4.1064e-10
-4.0837e-10
4.4759e-09
2.1524e-10
-4.2655e-10
-4.2413e-10
1.3865e-10
-3.4112e-10
-3.395e-10
-4.8149e-09
-1.2662e-09
4.1524e-09
-1.6216e-09
-1.08e-09
3.8162e-09
1.1384e-09
-8.7698e-10
3.4126e-09
3.4007e-09
-6.6796e-10
2.9517e-09
5.081e-09
-4.9499e-10
2.4406e-09
6.1199e-09
-2.3236e-10
1.7844e-09
6.7584e-09
3.0815e-11
7.6419e-10
6.9059e-09
2.4082e-10
-2.7658e-10
6.3508e-09
3.4107e-10
-6.2753e-10
5.4634e-09
4.1343e-10
-9.378e-10
4.4663e-09
3.8352e-10
-1.0722e-09
3.3518e-10
-1.0448e-09
-4.8773e-09
-6.2315e-10
3.9905e-09
-1.6984e-09
-5.1986e-10
3.6401e-09
1.0468e-09
-4.0704e-10
3.2195e-09
3.2905e-09
-2.9068e-10
2.7479e-09
4.9612e-09
-1.8727e-10
2.2177e-09
6.0169e-09
-3.3678e-11
1.5501e-09
6.573e-09
8.9886e-11
7.4938e-10
6.7145e-09
2.1607e-10
-1.9315e-10
6.2681e-09
1.9252e-10
-5.1038e-10
5.4534e-09
2.1213e-10
-8.393e-10
4.4685e-09
1.9359e-10
-9.5983e-10
1.597e-10
-9.0748e-10
-4.9073e-09
-2.4851e-12
4.4543e-09
-1.7357e-09
-2.3466e-12
4.121e-09
1.0018e-09
-2.0628e-12
3.7095e-09
3.2368e-09
-1.8412e-12
3.239e-09
4.9023e-09
-1.7052e-12
2.7048e-09
5.9781e-09
-1.3508e-12
2.0035e-09
6.5208e-09
-5.6709e-13
1.1725e-09
6.6634e-09
-2.8498e-13
1.9141e-10
6.2385e-09
1.0143e-13
-4.3432e-10
5.4397e-09
2.9863e-13
-8.1029e-10
4.4751e-09
3.7061e-13
-9.7929e-10
3.7074e-13
-9.6323e-10
-4.9073e-09
6.1934e-10
4.4554e-09
-1.7356e-09
5.1635e-10
4.1218e-09
1.0018e-09
4.0403e-10
3.71e-09
3.2368e-09
2.8787e-10
3.2394e-09
4.9023e-09
1.8445e-10
2.7052e-09
5.9781e-09
3.1265e-11
2.0037e-09
6.5208e-09
-9.0813e-11
1.1725e-09
6.6633e-09
-2.1635e-10
1.9099e-10
6.2385e-09
-1.9243e-10
-4.3456e-10
5.4397e-09
-2.1187e-10
-8.1079e-10
4.4751e-09
-1.9326e-10
-9.7951e-10
-1.5943e-10
-9.6338e-10
-4.8773e-09
1.2664e-09
3.9911e-09
-1.6984e-09
1.0802e-09
3.6406e-09
1.0468e-09
8.7676e-10
3.2205e-09
3.2903e-09
6.6793e-10
2.7483e-09
4.9612e-09
4.9412e-10
2.2175e-09
6.0168e-09
2.3122e-10
1.5498e-09
6.573e-09
-3.0897e-11
7.4925e-10
6.7144e-09
-2.4131e-10
-1.9312e-10
6.268e-09
-3.4166e-10
-5.107e-10
5.4533e-09
-4.1429e-10
-8.3958e-10
4.4682e-09
-3.8414e-10
-9.6061e-10
-3.3616e-10
-9.0792e-10
-4.8149e-09
9.3555e-10
4.1512e-09
-1.6216e-09
7.2549e-10
3.8158e-09
1.1385e-09
5.1366e-10
3.4126e-09
3.4008e-09
3.2175e-10
2.9516e-09
5.0811e-09
2.245e-10
2.4394e-09
6.12e-09
4.8851e-11
1.7829e-09
6.7583e-09
-1.1513e-10
7.6412e-10
6.9057e-09
-1.443e-10
-2.762e-10
6.3509e-09
-1.3644e-10
-6.2732e-10
5.4631e-09
-2.2848e-10
-9.3761e-10
4.4662e-09
-2.1689e-10
-1.0722e-09
-1.3998e-10
-1.0449e-09
-4.7279e-09
1.6396e-09
1.6385e-09
-1.5176e-09
1.3658e-09
1.3651e-09
1.2588e-09
1.0811e-09
1.0811e-09
3.5398e-09
8.0961e-10
8.0832e-10
5.1993e-09
6.5263e-10
6.5095e-10
6.2294e-09
3.7848e-10
3.7597e-10
6.905e-09
-4.9278e-11
-5.169e-11
7.051e-09
-2.4489e-10
-2.4583e-10
6.439e-09
-2.2291e-10
-2.2411e-10
5.5248e-09
-4.0876e-10
-4.1046e-10
4.4757e-09
-4.2459e-10
-4.2602e-10
-3.3986e-10
-3.4117e-10
-1.4542e-08
3.7899e-10
-6.765e-10
-5.0411e-13
-1.8842e-08
5.0149e-10
-7.691e-10
-1.9962e-13
-2.2542e-08
5.0243e-10
-9.4458e-10
7.6505e-13
-2.4295e-08
3.434e-10
-1.2769e-09
1.3837e-12
-2.4587e-08
1.7419e-10
-6.5807e-10
1.2742e-12
-2.3429e-08
-1.4328e-10
6.4691e-10
8.3718e-13
-1.9942e-08
-4.1517e-10
1.2336e-09
1.3544e-12
-1.3821e-08
-7.826e-10
1.2274e-09
1.951e-12
-6.0171e-09
-5.7784e-10
1.204e-09
2.3708e-12
3.694e-09
-8.3905e-10
1.3223e-09
2.5622e-12
1.4841e-08
-9.6938e-10
1.64e-09
2.3263e-12
-1.0704e-09
1.9547e-09
1.3357e-12
-1.6887e-08
1.9696e-10
-1.2595e-09
-2.1504e-08
2.7854e-10
-1.3035e-09
-2.5355e-08
1.4305e-10
-1.2512e-09
-2.7339e-08
3.7944e-11
-1.2613e-09
-2.7572e-08
-3.0205e-11
-3.4404e-10
-2.5923e-08
-1.7752e-10
1.4632e-09
-2.1869e-08
-2.9975e-10
2.741e-09
-1.536e-08
-5.8111e-10
3.4135e-09
-6.1079e-09
-5.2405e-10
3.5645e-09
5.2055e-09
-6.7946e-10
3.818e-09
1.8256e-08
-7.9918e-10
4.2292e-09
-9.0069e-10
4.613e-09
-1.895e-08
2.1245e-10
-1.4279e-09
-2.395e-08
2.7811e-10
-1.524e-09
-2.8247e-08
1.2848e-10
-1.4674e-09
-3.0485e-08
7.3356e-11
-1.466e-09
-3.0641e-08
-9.9456e-11
-4.4363e-10
-2.8475e-08
-2.4409e-10
1.3091e-09
-2.3751e-08
-3.578e-10
2.6869e-09
-1.6497e-08
-4.4473e-10
3.5139e-09
-6.312e-09
-4.6295e-10
3.7271e-09
6.2068e-09
-5.3665e-10
4.0184e-09
2.0647e-08
-5.9728e-10
4.4546e-09
-6.4885e-10
4.8525e-09
-1.9783e-08
5.4361e-13
-1.3564e-09
-2.4866e-08
5.9304e-13
-1.4254e-09
-2.938e-08
5.1004e-13
-1.309e-09
-3.1707e-08
-3.8233e-13
-1.302e-09
-3.1782e-08
2.708e-13
-2.865e-10
-2.9555e-08
-1.2266e-12
1.542e-09
-2.4742e-08
-2.0231e-12
2.9904e-09
-1.7105e-08
-3.0955e-12
3.8355e-09