/*--------------------------------*- C++ -*----------------------------------*\
| =========                 |                                                 |
| \\      /  F ield         | OpenFOAM: The Open Source CFD Toolbox           |
|  \\    /   O peration     | Version:  4.1                                   |
|   \\  /    A nd           | Web:      www.OpenFOAM.org                      |
|    \\/     M anipulation  |                                                 |
\*---------------------------------------------------------------------------*/
FoamFile
{
    version     2.0;
    format      ascii;
    class       pointVectorField;
    location    "0.0084";
    object      pointDisplacement_Next;
}
// * * * * * * * * * * * * * * * * * * * * * * * * * * * * * * * * * * * * * //

dimensions      [0 1 0 0 0 0 0];

internalField   uniform (0 0 0);

boundaryField
{
    inlet
    {
        type            fixedValue;
        value           nonuniform 0();
    }
    outlet
    {
        type            fixedValue;
        value           nonuniform 0();
    }
    mantle
    {
        type            fixedValue;
        value           nonuniform List<vector> 
416
(
(5.5654e-05 9.3634e-07 4.9421e-10)
(5.9562e-05 4.5393e-06 3.3896e-10)
(5.9531e-05 4.4198e-06 -8.5414e-07)
(5.5628e-05 8.8494e-07 -1.4504e-07)
(5.9488e-05 4.1144e-06 -1.6926e-06)
(5.5596e-05 8.003e-07 -3.2109e-07)
(5.9472e-05 3.7e-06 -2.4852e-06)
(5.5592e-05 7.8362e-07 -5.493e-07)
(5.9478e-05 3.1675e-06 -3.1673e-06)
(5.5604e-05 7.2878e-07 -7.2856e-07)
(5.9472e-05 2.4853e-06 -3.6999e-06)
(5.5592e-05 5.4949e-07 -7.8343e-07)
(5.9488e-05 1.6927e-06 -4.1142e-06)
(5.5596e-05 3.2124e-07 -8.0009e-07)
(5.953e-05 8.5426e-07 -4.4196e-06)
(5.5628e-05 1.4519e-07 -8.846e-07)
(5.9562e-05 -1.9202e-10 -4.5391e-06)
(5.5653e-05 -3.4377e-10 -9.3596e-07)
(6.3346e-05 8.8879e-06 4.0047e-10)
(6.3318e-05 8.6903e-06 -1.7293e-06)
(6.3267e-05 8.1141e-06 -3.3613e-06)
(6.3246e-05 7.2201e-06 -4.8205e-06)
(6.324e-05 6.1041e-06 -6.104e-06)
(6.3246e-05 4.8205e-06 -7.2199e-06)
(6.3266e-05 3.3614e-06 -8.1139e-06)
(6.3317e-05 1.7294e-06 -8.6901e-06)
(6.3346e-05 -2.1827e-10 -8.8879e-06)
(6.6944e-05 1.33e-05 5.9651e-10)
(6.691e-05 1.3008e-05 -2.6157e-06)
(6.6863e-05 1.2138e-05 -5.0507e-06)
(6.685e-05 1.0773e-05 -7.192e-06)
(6.6858e-05 9.0826e-06 -9.0823e-06)
(6.685e-05 7.192e-06 -1.0773e-05)
(6.6863e-05 5.0507e-06 -1.2138e-05)
(6.6909e-05 2.6159e-06 -1.3007e-05)
(6.6943e-05 -3.3614e-10 -1.33e-05)
(7.0258e-05 1.6977e-05 4.8234e-10)
(7.0229e-05 1.6592e-05 -3.3356e-06)
(7.0197e-05 1.5474e-05 -6.448e-06)
(7.0195e-05 1.3723e-05 -9.1672e-06)
(7.0211e-05 1.1566e-05 -1.1566e-05)
(7.0195e-05 9.1672e-06 -1.3723e-05)
(7.0196e-05 6.4481e-06 -1.5474e-05)
(7.0228e-05 3.3359e-06 -1.6592e-05)
(7.0257e-05 -1.0298e-10 -1.6978e-05)
(7.3242e-05 1.9114e-05 1.1279e-09)
(7.3226e-05 1.8639e-05 -3.7031e-06)
(7.3211e-05 1.7341e-05 -7.189e-06)
(7.3217e-05 1.5416e-05 -1.0306e-05)
(7.323e-05 1.3048e-05 -1.3046e-05)
(7.3216e-05 1.0306e-05 -1.5416e-05)
(7.3211e-05 7.1893e-06 -1.7341e-05)
(7.3225e-05 3.7035e-06 -1.8639e-05)
(7.3241e-05 -6.4471e-10 -1.9114e-05)
(7.6004e-05 1.9106e-05 6.0533e-10)
(7.6008e-05 1.859e-05 -3.6716e-06)
(7.6008e-05 1.7273e-05 -7.141e-06)
(7.6018e-05 1.5368e-05 -1.0276e-05)
(7.6014e-05 1.3047e-05 -1.3046e-05)
(7.6018e-05 1.0277e-05 -1.5368e-05)
(7.6007e-05 7.1416e-06 -1.7273e-05)
(7.6007e-05 3.6723e-06 -1.859e-05)
(7.6002e-05 -9.7147e-12 -1.9106e-05)
(7.8649e-05 1.6653e-05 6.2334e-10)
(7.8656e-05 1.625e-05 -3.2393e-06)
(7.8671e-05 1.5119e-05 -6.2702e-06)
(7.8671e-05 1.3423e-05 -8.9643e-06)
(7.8671e-05 1.134e-05 -1.134e-05)
(7.8671e-05 8.9652e-06 -1.3423e-05)
(7.867e-05 6.2711e-06 -1.5119e-05)
(7.8656e-05 3.2401e-06 -1.625e-05)
(7.8648e-05 7.0711e-11 -1.6653e-05)
(8.1131e-05 1.2337e-05 8.1688e-10)
(8.1149e-05 1.2084e-05 -2.4532e-06)
(8.1176e-05 1.1266e-05 -4.7041e-06)
(8.1171e-05 9.9393e-06 -6.6241e-06)
(8.1162e-05 8.3246e-06 -8.3238e-06)
(8.1171e-05 6.6252e-06 -9.9389e-06)
(8.1176e-05 4.7052e-06 -1.1266e-05)
(8.1148e-05 2.4542e-06 -1.2085e-05)
(8.113e-05 -5.2758e-11 -1.2338e-05)
(8.3339e-05 6.7683e-06 1.0165e-09)
(8.3343e-05 6.6007e-06 -1.3414e-06)
(8.3362e-05 6.1055e-06 -2.5493e-06)
(8.3377e-05 5.3356e-06 -3.5553e-06)
(8.3388e-05 4.456e-06 -4.4553e-06)
(8.3377e-05 3.5565e-06 -5.3353e-06)
(8.3361e-05 2.5505e-06 -6.1056e-06)
(8.3342e-05 1.3425e-06 -6.6012e-06)
(8.3338e-05 -2.0612e-10 -6.769e-06)
(8.5089e-05 1.7582e-08 9.7068e-10)
(8.5092e-05 -3.0267e-08 -1.6263e-09)
(8.5104e-05 -1.2788e-07 6.1798e-08)
(8.5136e-05 -2.3115e-07 1.6859e-07)
(8.5151e-05 -2.443e-07 2.4507e-07)
(8.5136e-05 -1.6739e-07 2.3133e-07)
(8.5104e-05 -6.0476e-08 1.2753e-07)
(8.5091e-05 2.7605e-09 2.9631e-08)
(8.5088e-05 -1.739e-10 -1.8252e-08)
(8.6226e-05 -7.9961e-06 5.9359e-10)
(8.624e-05 -7.8475e-06 1.5462e-06)
(8.6271e-05 -7.4348e-06 3.0842e-06)
(8.628e-05 -6.7821e-06 4.5592e-06)
(8.6282e-05 -5.8296e-06 5.8299e-06)
(8.628e-05 -4.5579e-06 6.7821e-06)
(8.6271e-05 -3.0828e-06 7.4341e-06)
(8.624e-05 -1.5451e-06 7.8465e-06)
(8.6226e-05 1.1666e-10 7.9952e-06)
(8.6689e-05 -1.707e-05 8.6033e-10)
(8.6726e-05 -1.6701e-05 3.2875e-06)
(8.6779e-05 -1.5707e-05 6.5001e-06)
(8.6764e-05 -1.4212e-05 9.5315e-06)
(8.6741e-05 -1.2163e-05 1.2163e-05)
(8.6764e-05 -9.5302e-06 1.4211e-05)
(8.6779e-05 -6.4986e-06 1.5705e-05)
(8.6726e-05 -3.2864e-06 1.67e-05)
(8.6689e-05 -3.0863e-10 1.7069e-05)
(5.953e-05 -8.5479e-07 -4.4194e-06)
(5.5628e-05 -1.4587e-07 -8.8449e-07)
(5.9487e-05 -1.6932e-06 -4.1138e-06)
(5.5595e-05 -3.2195e-07 -7.9995e-07)
(5.9471e-05 -2.4857e-06 -3.6994e-06)
(5.5592e-05 -5.503e-07 -7.834e-07)
(5.9478e-05 -3.168e-06 -3.1669e-06)
(5.5603e-05 -7.2978e-07 -7.287e-07)
(5.9471e-05 -3.7006e-06 -2.4849e-06)
(5.5591e-05 -7.8488e-07 -5.4954e-07)
(5.9487e-05 -4.1153e-06 -1.6925e-06)
(5.5595e-05 -8.0191e-07 -3.2132e-07)
(5.953e-05 -4.4211e-06 -8.5396e-07)
(5.5627e-05 -8.8694e-07 -1.451e-07)
(5.9561e-05 -4.541e-06 6.7244e-10)
(5.5653e-05 -9.3868e-07 7.109e-10)
(6.3317e-05 -1.7298e-06 -8.6898e-06)
(6.3266e-05 -3.3616e-06 -8.1133e-06)
(6.3245e-05 -4.8205e-06 -7.219e-06)
(6.324e-05 -6.104e-06 -6.1031e-06)
(6.3245e-05 -7.22e-06 -4.8197e-06)
(6.3266e-05 -8.1144e-06 -3.3608e-06)
(6.3317e-05 -8.691e-06 -1.7289e-06)
(6.3346e-05 -8.8892e-06 8.3148e-10)
(6.6909e-05 -2.6162e-06 -1.3007e-05)
(6.6862e-05 -5.0508e-06 -1.2137e-05)
(6.685e-05 -7.1918e-06 -1.0772e-05)
(6.6858e-05 -9.0819e-06 -9.0813e-06)
(6.685e-05 -1.0773e-05 -7.1909e-06)
(6.6862e-05 -1.2138e-05 -5.0499e-06)
(6.6909e-05 -1.3008e-05 -2.6151e-06)
(6.6943e-05 -1.3302e-05 1.1007e-09)
(7.0227e-05 -3.3361e-06 -1.6592e-05)
(7.0196e-05 -6.4482e-06 -1.5473e-05)
(7.0195e-05 -9.167e-06 -1.3721e-05)
(7.021e-05 -1.1566e-05 -1.1565e-05)
(7.0195e-05 -1.3722e-05 -9.166e-06)
(7.0196e-05 -1.5474e-05 -6.4471e-06)
(7.0228e-05 -1.6593e-05 -3.335e-06)
(7.0257e-05 -1.6979e-05 1.0511e-09)
(7.3225e-05 -3.7036e-06 -1.8639e-05)
(7.321e-05 -7.1893e-06 -1.734e-05)
(7.3216e-05 -1.0306e-05 -1.5415e-05)
(7.3229e-05 -1.3047e-05 -1.3045e-05)
(7.3216e-05 -1.5416e-05 -1.0305e-05)
(7.3211e-05 -1.7341e-05 -7.1881e-06)
(7.3225e-05 -1.864e-05 -3.7023e-06)
(7.3242e-05 -1.9115e-05 1.7832e-09)
(7.6007e-05 -3.6723e-06 -1.8589e-05)
(7.6007e-05 -7.1416e-06 -1.7272e-05)
(7.6017e-05 -1.0276e-05 -1.5367e-05)
(7.6014e-05 -1.3046e-05 -1.3045e-05)
(7.6017e-05 -1.5367e-05 -1.0275e-05)
(7.6007e-05 -1.7273e-05 -7.1401e-06)
(7.6007e-05 -1.859e-05 -3.6709e-06)
(7.6003e-05 -1.9107e-05 1.3211e-09)
(7.8655e-05 -3.2401e-06 -1.625e-05)
(7.867e-05 -6.271e-06 -1.5118e-05)
(7.867e-05 -8.9648e-06 -1.3422e-05)
(7.867e-05 -1.134e-05 -1.1338e-05)
(7.8671e-05 -1.3423e-05 -8.9632e-06)
(7.867e-05 -1.5118e-05 -6.2693e-06)
(7.8656e-05 -1.625e-05 -3.2385e-06)
(7.8649e-05 -1.6653e-05 1.3378e-09)
(8.1148e-05 -2.4542e-06 -1.2084e-05)
(8.1175e-05 -4.7051e-06 -1.1265e-05)
(8.117e-05 -6.6247e-06 -9.9376e-06)
(8.1161e-05 -8.3239e-06 -8.3225e-06)
(8.117e-05 -9.9385e-06 -6.6229e-06)
(8.1176e-05 -1.1265e-05 -4.7031e-06)
(8.1148e-05 -1.2084e-05 -2.4524e-06)
(8.1131e-05 -1.2337e-05 1.4808e-09)
(8.3342e-05 -1.3426e-06 -6.6005e-06)
(8.3361e-05 -2.5504e-06 -6.1044e-06)
(8.3376e-05 -3.5559e-06 -5.3337e-06)
(8.3387e-05 -4.4553e-06 -4.4536e-06)
(8.3377e-05 -5.3348e-06 -3.554e-06)
(8.3361e-05 -6.1048e-06 -2.5483e-06)
(8.3342e-05 -6.6003e-06 -1.3407e-06)
(8.3338e-05 -6.7684e-06 1.5656e-09)
(8.5091e-05 -2.9797e-09 3.0359e-08)
(8.5103e-05 6.0561e-08 1.2879e-07)
(8.5135e-05 1.6781e-07 2.3285e-07)
(8.515e-05 2.4492e-07 2.4657e-07)
(8.5135e-05 2.3171e-07 1.6978e-07)
(8.5104e-05 1.2833e-07 6.2645e-08)
(8.5091e-05 3.0636e-08 -1.0431e-09)
(8.5088e-05 -1.7458e-08 1.3945e-09)
(8.624e-05 1.5447e-06 7.8472e-06)
(8.6271e-05 3.0826e-06 7.4352e-06)
(8.628e-05 4.5579e-06 6.7832e-06)
(8.6282e-05 5.8296e-06 5.8307e-06)
(8.628e-05 6.782e-06 4.5598e-06)
(8.6271e-05 7.4346e-06 3.0846e-06)
(8.624e-05 7.8474e-06 1.5466e-06)
(8.6225e-05 7.996e-06 1.6402e-09)
(8.6726e-05 3.2859e-06 1.67e-05)
(8.6778e-05 6.4982e-06 1.5706e-05)
(8.6763e-05 9.5298e-06 1.4212e-05)
(8.6741e-05 1.2162e-05 1.2164e-05)
(8.6763e-05 1.4211e-05 9.5315e-06)
(8.6778e-05 1.5706e-05 6.5001e-06)
(8.6726e-05 1.67e-05 3.2877e-06)
(8.6689e-05 1.707e-05 1.14e-09)
(5.953e-05 -4.4215e-06 8.555e-07)
(5.5628e-05 -8.8719e-07 1.4652e-07)
(5.9487e-05 -4.116e-06 1.6941e-06)
(5.5596e-05 -8.0239e-07 3.228e-07)
(5.9472e-05 -3.7015e-06 2.4868e-06)
(5.5592e-05 -7.8554e-07 5.5122e-07)
(5.9479e-05 -3.1689e-06 3.1689e-06)
(5.5604e-05 -7.3049e-07 7.306e-07)
(5.9473e-05 -2.4865e-06 3.7016e-06)
(5.5593e-05 -5.5092e-07 7.854e-07)
(5.9488e-05 -1.6938e-06 4.1158e-06)
(5.5596e-05 -3.2241e-07 8.0196e-07)
(5.9531e-05 -8.5522e-07 4.4211e-06)
(5.5629e-05 -1.4618e-07 8.8645e-07)
(5.9562e-05 -6.9821e-10 4.5405e-06)
(5.5654e-05 -5.2452e-10 9.3777e-07)
(6.3317e-05 -8.6915e-06 1.7306e-06)
(6.3267e-05 -8.1153e-06 3.3626e-06)
(6.3246e-05 -7.2212e-06 4.8218e-06)
(6.3241e-05 -6.1051e-06 6.1054e-06)
(6.3246e-05 -4.8214e-06 7.2214e-06)
(6.3267e-05 -3.3623e-06 8.1153e-06)
(6.3318e-05 -1.7303e-06 8.6913e-06)
(6.3347e-05 -6.8635e-10 8.8889e-06)
(6.691e-05 -1.3009e-05 2.6171e-06)
(6.6863e-05 -1.2139e-05 5.052e-06)
(6.6851e-05 -1.0774e-05 7.1933e-06)
(6.6859e-05 -9.0834e-06 9.084e-06)
(6.6851e-05 -7.193e-06 1.0774e-05)
(6.6864e-05 -5.0516e-06 1.214e-05)
(6.691e-05 -2.6168e-06 1.3008e-05)
(6.6944e-05 -5.5357e-10 1.3301e-05)
(7.0228e-05 -1.6594e-05 3.3372e-06)
(7.0197e-05 -1.5475e-05 6.4495e-06)
(7.0196e-05 -1.3724e-05 9.1688e-06)
(7.0211e-05 -1.1568e-05 1.1568e-05)
(7.0196e-05 -9.1684e-06 1.3725e-05)
(7.0197e-05 -6.4491e-06 1.5476e-05)
(7.0229e-05 -3.3367e-06 1.6593e-05)
(7.0258e-05 -7.4208e-10 1.6978e-05)
(7.3225e-05 -1.864e-05 3.7048e-06)
(7.3211e-05 -1.7342e-05 7.1909e-06)
(7.3217e-05 -1.5418e-05 1.0308e-05)
(7.3231e-05 -1.3048e-05 1.305e-05)
(7.3217e-05 -1.0307e-05 1.5418e-05)
(7.3212e-05 -7.1903e-06 1.7343e-05)
(7.3226e-05 -3.7043e-06 1.8641e-05)
(7.3243e-05 -1.3057e-09 1.9115e-05)
(7.6008e-05 -1.8591e-05 3.6736e-06)
(7.6008e-05 -1.7274e-05 7.1432e-06)
(7.6018e-05 -1.5369e-05 1.0278e-05)
(7.6015e-05 -1.3048e-05 1.3049e-05)
(7.6018e-05 -1.0278e-05 1.537e-05)
(7.6008e-05 -7.1425e-06 1.7275e-05)
(7.6008e-05 -3.6729e-06 1.8591e-05)
(7.6004e-05 -6.749e-10 1.9107e-05)
(7.8656e-05 -1.625e-05 3.2414e-06)
(7.8671e-05 -1.512e-05 6.2725e-06)
(7.8671e-05 -1.3424e-05 8.9667e-06)
(7.8671e-05 -1.1341e-05 1.1342e-05)
(7.8671e-05 -8.9659e-06 1.3425e-05)
(7.8671e-05 -6.2717e-06 1.512e-05)
(7.8656e-05 -3.2406e-06 1.6251e-05)
(7.8649e-05 -7.5758e-10 1.6654e-05)
(8.1148e-05 -1.2085e-05 2.4554e-06)
(8.1176e-05 -1.1266e-05 4.7063e-06)
(8.1171e-05 -9.9398e-06 6.6262e-06)
(8.1162e-05 -8.325e-06 8.3258e-06)
(8.1171e-05 -6.6254e-06 9.9404e-06)
(8.1176e-05 -4.7054e-06 1.1267e-05)
(8.1148e-05 -2.4545e-06 1.2085e-05)
(8.1131e-05 -6.8352e-10 1.2337e-05)
(8.3342e-05 -6.6007e-06 1.3436e-06)
(8.3361e-05 -6.1055e-06 2.5513e-06)
(8.3377e-05 -5.3355e-06 3.557e-06)
(8.3387e-05 -4.4559e-06 4.4564e-06)
(8.3377e-05 -3.5562e-06 5.336e-06)
(8.3361e-05 -2.5504e-06 6.1056e-06)
(8.3342e-05 -1.3428e-06 6.6006e-06)
(8.3339e-05 -8.1727e-10 6.7681e-06)
(8.5091e-05 3.0479e-08 3.8473e-09)
(8.5103e-05 1.281e-07 -5.9859e-08)
(8.5135e-05 2.3152e-07 -1.6713e-07)
(8.515e-05 2.449e-07 -2.4428e-07)
(8.5135e-05 1.6801e-07 -2.3128e-07)
(8.5103e-05 6.0814e-08 -1.2821e-07)
(8.5091e-05 -3.0022e-09 -3.0833e-08)
(8.5088e-05 -7.2516e-10 1.7042e-08)
(8.624e-05 7.8475e-06 -1.544e-06)
(8.627e-05 7.4348e-06 -3.0822e-06)
(8.6279e-05 6.7824e-06 -4.5578e-06)
(8.6282e-05 5.8302e-06 -5.8293e-06)
(8.6279e-05 4.5587e-06 -6.7824e-06)
(8.6271e-05 3.0833e-06 -7.4352e-06)
(8.624e-05 1.5449e-06 -7.8481e-06)
(8.6226e-05 -3.1956e-10 -7.9966e-06)
(8.6726e-05 1.6701e-05 -3.2854e-06)
(8.6778e-05 1.5706e-05 -6.4981e-06)
(8.6763e-05 1.4212e-05 -9.5302e-06)
(8.674e-05 1.2163e-05 -1.2163e-05)
(8.6763e-05 9.5311e-06 -1.4212e-05)
(8.6778e-05 6.4992e-06 -1.5707e-05)
(8.6726e-05 3.2863e-06 -1.6702e-05)
(8.6689e-05 -6.0034e-10 -1.707e-05)
(5.9531e-05 8.5397e-07 4.4207e-06)
(5.5629e-05 1.451e-07 8.8615e-07)
(5.9488e-05 1.6924e-06 4.115e-06)
(5.5596e-05 3.2116e-07 8.0133e-07)
(5.9473e-05 2.4847e-06 3.7004e-06)
(5.5593e-05 5.4928e-07 7.8439e-07)
(5.9479e-05 3.1666e-06 3.1677e-06)
(5.5604e-05 7.284e-07 7.2938e-07)
(5.9473e-05 3.6991e-06 2.4856e-06)
(5.5592e-05 7.8312e-07 5.501e-07)
(5.9488e-05 4.1136e-06 1.6932e-06)
(5.5596e-05 7.9982e-07 3.2197e-07)
(5.9531e-05 4.4193e-06 8.5492e-07)
(5.5628e-05 8.8465e-07 1.4601e-07)
(6.3318e-05 1.7289e-06 8.6908e-06)
(6.3267e-05 3.3608e-06 8.1143e-06)
(6.3246e-05 4.8196e-06 7.2201e-06)
(6.3241e-05 6.1029e-06 6.104e-06)
(6.3246e-05 7.2187e-06 4.8205e-06)
(6.3267e-05 8.1129e-06 3.3617e-06)
(6.3318e-05 8.6896e-06 1.73e-06)
(6.691e-05 2.6153e-06 1.3008e-05)
(6.6864e-05 5.05e-06 1.2138e-05)
(6.6851e-05 7.1909e-06 1.0773e-05)
(6.6859e-05 9.0812e-06 9.0821e-06)
(6.6851e-05 1.0771e-05 7.1919e-06)
(6.6863e-05 1.2137e-05 5.051e-06)
(6.691e-05 1.3007e-05 2.6164e-06)
(7.0229e-05 3.3352e-06 1.6593e-05)
(7.0198e-05 6.4473e-06 1.5474e-05)
(7.0196e-05 9.1661e-06 1.3723e-05)
(7.0212e-05 1.1565e-05 1.1566e-05)
(7.0196e-05 1.3721e-05 9.1672e-06)
(7.0197e-05 1.5473e-05 6.4484e-06)
(7.0229e-05 1.6591e-05 3.3364e-06)
(7.3226e-05 3.7027e-06 1.864e-05)
(7.3212e-05 7.1883e-06 1.7341e-05)
(7.3218e-05 1.0305e-05 1.5416e-05)
(7.3231e-05 1.3046e-05 1.3046e-05)
(7.3218e-05 1.5415e-05 1.0306e-05)
(7.3212e-05 1.7339e-05 7.1896e-06)
(7.3226e-05 1.8638e-05 3.704e-06)
(7.6008e-05 3.6714e-06 1.859e-05)
(7.6008e-05 7.1404e-06 1.7273e-05)
(7.6019e-05 1.0275e-05 1.5367e-05)
(7.6015e-05 1.3045e-05 1.3046e-05)
(7.6019e-05 1.5366e-05 1.0276e-05)
(7.6008e-05 1.7272e-05 7.1418e-06)
(7.6008e-05 1.8589e-05 3.6728e-06)
(7.8656e-05 3.2391e-06 1.625e-05)
(7.8671e-05 6.2696e-06 1.5118e-05)
(7.8672e-05 8.9633e-06 1.3422e-05)
(7.8671e-05 1.1338e-05 1.134e-05)
(7.8672e-05 1.3421e-05 8.9649e-06)
(7.8671e-05 1.5118e-05 6.2713e-06)
(7.8657e-05 1.6249e-05 3.2406e-06)
(8.1149e-05 2.453e-06 1.2084e-05)
(8.1176e-05 4.7035e-06 1.1265e-05)
(8.1171e-05 6.623e-06 9.9383e-06)
(8.1163e-05 8.3223e-06 8.3238e-06)
(8.1171e-05 9.9374e-06 6.6248e-06)
(8.1177e-05 1.1265e-05 4.7054e-06)
(8.1149e-05 1.2084e-05 2.4548e-06)
(8.3343e-05 1.3413e-06 6.6e-06)
(8.3362e-05 2.5487e-06 6.1045e-06)
(8.3377e-05 3.5542e-06 5.3345e-06)
(8.3388e-05 4.4536e-06 4.4551e-06)
(8.3377e-05 5.3336e-06 3.5559e-06)
(8.3362e-05 6.1041e-06 2.5506e-06)
(8.3343e-05 6.6e-06 1.3431e-06)
(8.5091e-05 1.5965e-09 -3.0972e-08)
(8.5104e-05 -6.2197e-08 -1.286e-07)
(8.5136e-05 -1.6949e-07 -2.3198e-07)
(8.5151e-05 -2.4647e-07 -2.4517e-07)
(8.5136e-05 -2.3298e-07 -1.6792e-07)
(8.5104e-05 -1.2915e-07 -6.0409e-08)
(8.5092e-05 -3.0905e-08 3.4411e-09)
(8.624e-05 -1.5461e-06 -7.8478e-06)
(8.6271e-05 -3.0843e-06 -7.4348e-06)
(8.628e-05 -4.5597e-06 -6.7824e-06)
(8.6283e-05 -5.8313e-06 -5.8297e-06)
(8.628e-05 -6.7837e-06 -4.5583e-06)
(8.6271e-05 -7.4359e-06 -3.0827e-06)
(8.624e-05 -7.8481e-06 -1.5444e-06)
(8.6727e-05 -3.2873e-06 -1.6701e-05)
(8.6779e-05 -6.4999e-06 -1.5706e-05)
(8.6764e-05 -9.5317e-06 -1.4211e-05)
(8.6741e-05 -1.2164e-05 -1.2163e-05)
(8.6764e-05 -1.4213e-05 -9.5306e-06)
(8.6778e-05 -1.5708e-05 -6.4986e-06)
(8.6726e-05 -1.6702e-05 -3.2858e-06)
)
;
    }
    procBoundary1to0
    {
        type            processor;
    }
    procBoundary1to2
    {
        type            processor;
    }
}


// ************************************************************************* //
