/*--------------------------------*- C++ -*----------------------------------*\
| =========                 |                                                 |
| \\      /  F ield         | foam-extend: Open Source CFD                    |
|  \\    /   O peration     | Version:     4.1-20200408                       |
|   \\  /    A nd           | Web:         http://www.foam-extend.org         |
|    \\/     M anipulation  |                                                 |
\*---------------------------------------------------------------------------*/
FoamFile
{
    version     2.0;
    format      ascii;
    class       volVectorField;
    location    "0.0770000";
    object      DU_0;
}
// * * * * * * * * * * * * * * * * * * * * * * * * * * * * * * * * * * * * * //

dimensions      [0 1 0 0 0 0 0];

internalField   nonuniform List<vector> 
1952
(
(5.00006e-05 -7.4285e-10 0)
(5.00006e-05 -1.1695e-09 0)
(5.00008e-05 -1.65731e-09 0)
(5.00009e-05 -2.03128e-09 0)
(5.00012e-05 -2.49428e-09 0)
(5.00014e-05 -2.78893e-09 0)
(5.00019e-05 -3.19458e-09 0)
(5.00022e-05 -3.38512e-09 0)
(5.00028e-05 -3.68856e-09 0)
(5.00034e-05 -3.74018e-09 0)
(5.00043e-05 -3.90939e-09 0)
(5.00052e-05 -3.79716e-09 0)
(5.00064e-05 -3.81127e-09 0)
(5.00078e-05 -3.56734e-09 0)
(5.00094e-05 -3.59733e-09 0)
(5.00005e-05 -3.15127e-10 0)
(5.00007e-05 -5.14692e-10 0)
(5.00008e-05 -8.22325e-10 0)
(5.00009e-05 -1.13508e-09 0)
(5.00011e-05 -1.4009e-09 0)
(5.00014e-05 -1.6725e-09 0)
(5.00017e-05 -1.86402e-09 0)
(5.00021e-05 -2.0709e-09 0)
(5.00025e-05 -2.16244e-09 0)
(5.00031e-05 -2.27141e-09 0)
(5.00038e-05 -2.24016e-09 0)
(5.00046e-05 -2.24609e-09 0)
(5.00056e-05 -2.10074e-09 0)
(5.00068e-05 -2.0286e-09 0)
(5.00081e-05 -1.83585e-09 0)
(5.00097e-05 -1.81518e-09 0)
(5.00007e-05 -2.20356e-10 0)
(5.00011e-05 -3.15812e-10 0)
(5.00012e-05 -5.02258e-10 0)
(5.00014e-05 -6.82721e-10 0)
(5.00015e-05 -8.31336e-10 0)
(5.00019e-05 -9.69716e-10 0)
(5.00021e-05 -1.0517e-09 0)
(5.00026e-05 -1.12826e-09 0)
(5.0003e-05 -1.1229e-09 0)
(5.00037e-05 -1.11896e-09 0)
(5.00043e-05 -1.01724e-09 0)
(5.00052e-05 -9.39667e-10 0)
(5.0006e-05 -7.65771e-10 0)
(5.00071e-05 -6.65532e-10 0)
(5.00081e-05 -5.0775e-10 0)
(5.00093e-05 -5.42584e-10 0)
(5.00011e-05 -1.35449e-10 0)
(5.00016e-05 -1.48888e-10 0)
(5.00017e-05 -2.32451e-10 0)
(5.00019e-05 -3.07095e-10 0)
(5.00021e-05 -3.56759e-10 0)
(5.00024e-05 -3.93547e-10 0)
(5.00027e-05 -3.86587e-10 0)
(5.00032e-05 -3.721e-10 0)
(5.00036e-05 -2.9582e-10 0)
(5.00043e-05 -2.23027e-10 0)
(5.00049e-05 -8.14042e-11 0)
(5.00057e-05 3.12042e-11 0)
(5.00065e-05 2.02459e-10 0)
(5.00074e-05 2.99781e-10 0)
(5.00083e-05 4.23545e-10 0)
(5.00093e-05 4.02376e-10 0)
(5.00016e-05 -6.40861e-11 0)
(5.00023e-05 -1.31067e-11 0)
(5.00024e-05 -1.28905e-11 0)
(5.00026e-05 -4.26347e-12 0)
(5.00028e-05 2.55933e-11 0)
(5.00031e-05 6.46485e-11 0)
(5.00034e-05 1.40321e-10 0)
(5.00039e-05 2.17704e-10 0)
(5.00043e-05 3.44716e-10 0)
(5.00049e-05 4.59367e-10 0)
(5.00055e-05 6.25647e-10 0)
(5.00062e-05 7.54884e-10 0)
(5.00069e-05 9.22052e-10 0)
(5.00078e-05 1.01404e-09 0)
(5.00085e-05 1.11635e-09 0)
(5.00092e-05 1.09339e-09 0)
(5.00022e-05 -5.90391e-12 0)
(5.0003e-05 9.34243e-11 0)
(5.00031e-05 1.59031e-10 0)
(5.00033e-05 2.31263e-10 0)
(5.00035e-05 3.21755e-10 0)
(5.00038e-05 4.15953e-10 0)
(5.00041e-05 5.41448e-10 0)
(5.00046e-05 6.60396e-10 0)
(5.0005e-05 8.20483e-10 0)
(5.00056e-05 9.58028e-10 0)
(5.00061e-05 1.13583e-09 0)
(5.00068e-05 1.26872e-09 0)
(5.00074e-05 1.42769e-09 0)
(5.00081e-05 1.51374e-09 0)
(5.00087e-05 1.60452e-09 0)
(5.00093e-05 1.59503e-09 0)
(5.0003e-05 3.97907e-11 0)
(5.00038e-05 1.73296e-10 0)
(5.00039e-05 2.87607e-10 0)
(5.00041e-05 4.06425e-10 0)
(5.00043e-05 5.40958e-10 0)
(5.00046e-05 6.73537e-10 0)
(5.00049e-05 8.33484e-10 0)
(5.00054e-05 9.78684e-10 0)
(5.00057e-05 1.15955e-09 0)
(5.00063e-05 1.30875e-09 0)
(5.00067e-05 1.4918e-09 0)
(5.00074e-05 1.62404e-09 0)
(5.00079e-05 1.77687e-09 0)
(5.00085e-05 1.85975e-09 0)
(5.00089e-05 1.94598e-09 0)
(5.00094e-05 1.94919e-09 0)
(5.00038e-05 7.40846e-11 0)
(5.00046e-05 2.29868e-10 0)
(5.00047e-05 3.7843e-10 0)
(5.00049e-05 5.29364e-10 0)
(5.00051e-05 6.94001e-10 0)
(5.00054e-05 8.51425e-10 0)
(5.00057e-05 1.03363e-09 0)
(5.00061e-05 1.19361e-09 0)
(5.00065e-05 1.38634e-09 0)
(5.0007e-05 1.53965e-09 0)
(5.00074e-05 1.72407e-09 0)
(5.00079e-05 1.85341e-09 0)
(5.00084e-05 2.00205e-09 0)
(5.00089e-05 2.08447e-09 0)
(5.00092e-05 2.17181e-09 0)
(5.00096e-05 2.19081e-09 0)
(5.00046e-05 9.83988e-11 0)
(5.00054e-05 2.6657e-10 0)
(5.00055e-05 4.37162e-10 0)
(5.00057e-05 6.082e-10 0)
(5.00059e-05 7.91565e-10 0)
(5.00062e-05 9.63154e-10 0)
(5.00064e-05 1.15832e-09 0)
(5.00069e-05 1.32485e-09 0)
(5.00072e-05 1.5235e-09 0)
(5.00076e-05 1.6764e-09 0)
(5.0008e-05 1.86068e-09 0)
(5.00085e-05 1.98684e-09 0)
(5.00088e-05 2.13387e-09 0)
(5.00093e-05 2.21816e-09 0)
(5.00095e-05 2.31021e-09 0)
(5.00098e-05 2.34505e-09 0)
(5.00054e-05 1.14193e-10 0)
(5.00063e-05 2.86743e-10 0)
(5.00064e-05 4.69295e-10 0)
(5.00065e-05 6.50627e-10 0)
(5.00067e-05 8.43658e-10 0)
(5.0007e-05 1.02101e-09 0)
(5.00072e-05 1.22219e-09 0)
(5.00076e-05 1.38918e-09 0)
(5.00079e-05 1.58983e-09 0)
(5.00083e-05 1.73938e-09 0)
(5.00086e-05 1.92301e-09 0)
(5.0009e-05 2.04621e-09 0)
(5.00093e-05 2.19388e-09 0)
(5.00097e-05 2.28186e-09 0)
(5.00099e-05 2.38128e-09 0)
(5.00101e-05 2.43223e-09 0)
(5.00062e-05 1.22898e-10 0)
(5.00071e-05 2.9341e-10 0)
(5.00071e-05 4.79749e-10 0)
(5.00073e-05 6.63511e-10 0)
(5.00075e-05 8.59073e-10 0)
(5.00078e-05 1.03569e-09 0)
(5.00079e-05 1.23774e-09 0)
(5.00083e-05 1.40081e-09 0)
(5.00086e-05 1.60092e-09 0)
(5.0009e-05 1.74531e-09 0)
(5.00092e-05 1.92848e-09 0)
(5.00096e-05 2.0492e-09 0)
(5.00098e-05 2.19945e-09 0)
(5.00101e-05 2.29243e-09 0)
(5.00103e-05 2.40094e-09 0)
(5.00104e-05 2.46764e-09 0)
(5.0007e-05 1.25805e-10 0)
(5.00078e-05 2.89211e-10 0)
(5.00079e-05 4.72819e-10 0)
(5.00081e-05 6.52752e-10 0)
(5.00082e-05 8.45334e-10 0)
(5.00085e-05 1.01617e-09 0)
(5.00087e-05 1.21537e-09 0)
(5.0009e-05 1.37123e-09 0)
(5.00092e-05 1.56926e-09 0)
(5.00096e-05 1.70729e-09 0)
(5.00098e-05 1.89045e-09 0)
(5.00102e-05 2.00917e-09 0)
(5.00104e-05 2.1636e-09 0)
(5.00106e-05 2.26248e-09 0)
(5.00107e-05 2.3813e-09 0)
(5.00108e-05 2.46337e-09 0)
(5.00078e-05 1.24047e-10 0)
(5.00086e-05 2.76366e-10 0)
(5.00086e-05 4.52076e-10 0)
(5.00088e-05 6.23261e-10 0)
(5.00089e-05 8.08607e-10 0)
(5.00092e-05 9.69755e-10 0)
(5.00093e-05 1.1634e-09 0)
(5.00097e-05 1.30961e-09 0)
(5.00099e-05 1.50463e-09 0)
(5.00102e-05 1.63544e-09 0)
(5.00104e-05 1.81919e-09 0)
(5.00107e-05 1.93629e-09 0)
(5.00109e-05 2.09621e-09 0)
(5.00111e-05 2.20163e-09 0)
(5.00112e-05 2.3316e-09 0)
(5.00112e-05 2.42862e-09 0)
(5.00085e-05 1.18574e-10 0)
(5.00092e-05 2.567e-10 0)
(5.00093e-05 4.20472e-10 0)
(5.00095e-05 5.79032e-10 0)
(5.00096e-05 7.53922e-10 0)
(5.00098e-05 9.02308e-10 0)
(5.001e-05 1.0885e-09 0)
(5.00103e-05 1.22311e-09 0)
(5.00105e-05 1.41465e-09 0)
(5.00108e-05 1.53756e-09 0)
(5.0011e-05 1.72253e-09 0)
(5.00113e-05 1.83828e-09 0)
(5.00114e-05 2.00477e-09 0)
(5.00116e-05 2.11719e-09 0)
(5.00117e-05 2.25899e-09 0)
(5.00117e-05 2.37068e-09 0)
(5.00092e-05 1.10172e-10 0)
(5.00099e-05 2.31705e-10 0)
(5.00099e-05 3.80383e-10 0)
(5.00101e-05 5.23295e-10 0)
(5.00102e-05 6.85268e-10 0)
(5.00105e-05 8.18471e-10 0)
(5.00106e-05 9.95853e-10 0)
(5.00109e-05 1.11731e-09 0)
(5.00111e-05 1.30515e-09 0)
(5.00114e-05 1.41955e-09 0)
(5.00115e-05 1.60637e-09 0)
(5.00118e-05 1.72091e-09 0)
(5.00119e-05 1.89489e-09 0)
(5.00121e-05 2.01467e-09 0)
(5.00122e-05 2.16888e-09 0)
(5.00122e-05 2.29514e-09 0)
(5.00098e-05 9.94802e-11 0)
(5.00104e-05 2.02598e-10 0)
(5.00105e-05 3.33768e-10 0)
(5.00107e-05 4.58659e-10 0)
(5.00108e-05 6.05907e-10 0)
(5.0011e-05 7.21947e-10 0)
(5.00112e-05 8.89626e-10 0)
(5.00115e-05 9.9656e-10 0)
(5.00116e-05 1.1807e-09 0)
(5.0012e-05 1.28598e-09 0)
(5.00121e-05 1.47528e-09 0)
(5.00124e-05 1.58867e-09 0)
(5.00125e-05 1.77096e-09 0)
(5.00127e-05 1.89846e-09 0)
(5.00127e-05 2.06568e-09 0)
(5.00127e-05 2.20667e-09 0)
(5.00104e-05 8.70218e-11 0)
(5.00109e-05 1.70426e-10 0)
(5.0011e-05 2.8228e-10 0)
(5.00112e-05 3.87349e-10 0)
(5.00113e-05 5.18557e-10 0)
(5.00116e-05 6.15843e-10 0)
(5.00117e-05 7.73241e-10 0)
(5.0012e-05 8.64456e-10 0)
(5.00122e-05 1.04502e-09 0)
(5.00125e-05 1.14055e-09 0)
(5.00127e-05 1.33291e-09 0)
(5.00129e-05 1.44511e-09 0)
(5.00131e-05 1.63647e-09 0)
(5.00132e-05 1.77207e-09 0)
(5.00133e-05 1.95297e-09 0)
(5.00133e-05 2.10913e-09 0)
(5.00109e-05 7.32456e-11 0)
(5.00114e-05 1.3614e-10 0)
(5.00115e-05 2.27443e-10 0)
(5.00117e-05 3.11367e-10 0)
(5.00117e-05 4.25717e-10 0)
(5.00121e-05 5.02931e-10 0)
(5.00122e-05 6.49818e-10 0)
(5.00125e-05 7.24182e-10 0)
(5.00127e-05 9.01442e-10 0)
(5.0013e-05 9.86523e-10 0)
(5.00132e-05 1.18256e-09 0)
(5.00135e-05 1.29345e-09 0)
(5.00136e-05 1.49463e-09 0)
(5.00138e-05 1.63878e-09 0)
(5.00138e-05 1.83413e-09 0)
(5.00139e-05 2.00624e-09 0)
(5.00114e-05 5.85612e-11 0)
(5.00118e-05 1.00726e-10 0)
(5.00119e-05 1.70814e-10 0)
(5.00121e-05 2.32791e-10 0)
(5.00122e-05 3.29918e-10 0)
(5.00125e-05 3.86078e-10 0)
(5.00126e-05 5.22494e-10 0)
(5.0013e-05 5.79008e-10 0)
(5.00132e-05 7.53338e-10 0)
(5.00135e-05 8.27246e-10 0)
(5.00137e-05 1.02752e-09 0)
(5.0014e-05 1.13695e-09 0)
(5.00142e-05 1.34867e-09 0)
(5.00144e-05 1.50188e-09 0)
(5.00144e-05 1.71257e-09 0)
(5.00145e-05 1.90175e-09 0)
(5.00117e-05 4.33911e-11 0)
(5.00121e-05 6.52928e-11 0)
(5.00122e-05 1.14162e-10 0)
(5.00124e-05 1.53948e-10 0)
(5.00125e-05 2.34064e-10 0)
(5.00129e-05 2.68502e-10 0)
(5.0013e-05 3.94905e-10 0)
(5.00134e-05 4.32632e-10 0)
(5.00136e-05 6.04629e-10 0)
(5.0014e-05 6.66548e-10 0)
(5.00143e-05 8.7172e-10 0)
(5.00146e-05 9.79407e-10 0)
(5.00148e-05 1.20241e-09 0)
(5.0015e-05 1.36528e-09 0)
(5.00151e-05 1.59233e-09 0)
(5.00151e-05 1.80005e-09 0)
(5.0012e-05 2.82119e-11 0)
(5.00123e-05 3.12331e-11 0)
(5.00124e-05 5.96982e-11 0)
(5.00127e-05 7.77886e-11 0)
(5.00128e-05 1.41769e-10 0)
(5.00132e-05 1.54317e-10 0)
(5.00134e-05 2.7158e-10 0)
(5.00138e-05 2.89823e-10 0)
(5.00141e-05 4.60234e-10 0)
(5.00145e-05 5.09377e-10 0)
(5.00148e-05 7.20057e-10 0)
(5.00152e-05 8.25698e-10 0)
(5.00154e-05 1.06066e-09 0)
(5.00156e-05 1.23383e-09 0)
(5.00158e-05 1.47832e-09 0)
(5.00158e-05 1.70639e-09 0)
(5.00123e-05 1.36206e-11 0)
(5.00125e-05 3.29923e-13 0)
(5.00126e-05 1.02695e-11 0)
(5.00129e-05 8.08746e-12 0)
(5.0013e-05 5.77366e-11 0)
(5.00135e-05 4.88096e-11 0)
(5.00137e-05 1.5848e-10 0)
(5.00142e-05 1.56749e-10 0)
(5.00145e-05 3.2671e-10 0)
(5.0015e-05 3.62207e-10 0)
(5.00153e-05 5.79151e-10 0)
(5.00157e-05 6.82265e-10 0)
(5.0016e-05 9.29877e-10 0)
(5.00163e-05 1.11397e-09 0)
(5.00165e-05 1.37707e-09 0)
(5.00166e-05 1.62761e-09 0)
(5.00124e-05 3.82938e-13 0)
(5.00126e-05 -2.50358e-11 0)
(5.00127e-05 -3.03279e-11 0)
(5.0013e-05 -5.00708e-11 0)
(5.00132e-05 -1.17704e-11 0)
(5.00137e-05 -4.08319e-11 0)
(5.00139e-05 6.35662e-11 0)
(5.00145e-05 4.18699e-11 0)
(5.00148e-05 2.12844e-10 0)
(5.00154e-05 2.33945e-10 0)
(5.00158e-05 4.57881e-10 0)
(5.00163e-05 5.57888e-10 0)
(5.00167e-05 8.18648e-10 0)
(5.0017e-05 1.01424e-09 0)
(5.00172e-05 1.29701e-09 0)
(5.00174e-05 1.5724e-09 0)
(5.00125e-05 -1.04797e-11 0)
(5.00126e-05 -4.17341e-11 0)
(5.00127e-05 -5.70935e-11 0)
(5.00131e-05 -9.00032e-11 0)
(5.00132e-05 -5.8455e-11 0)
(5.00138e-05 -1.05153e-10 0)
(5.00141e-05 -2.53979e-12 0)
(5.00147e-05 -4.3661e-11 0)
(5.00151e-05 1.30447e-10 0)
(5.00158e-05 1.36383e-10 0)
(5.00163e-05 3.68241e-10 0)
(5.00168e-05 4.6426e-10 0)
(5.00173e-05 7.38583e-10 0)
(5.00177e-05 9.46021e-10 0)
(5.00181e-05 1.24946e-09 0)
(5.00183e-05 1.55225e-09 0)
(5.00125e-05 -1.76242e-11 0)
(5.00125e-05 -4.56308e-11 0)
(5.00127e-05 -6.34143e-11 0)
(5.00131e-05 -1.02825e-10 0)
(5.00133e-05 -7.13354e-11 0)
(5.00139e-05 -1.31478e-10 0)
(5.00142e-05 -2.57398e-11 0)
(5.00149e-05 -8.47737e-11 0)
(5.00154e-05 9.52518e-11 0)
(5.00161e-05 8.55105e-11 0)
(5.00168e-05 3.26224e-10 0)
(5.00174e-05 4.17142e-10 0)
(5.0018e-05 7.05048e-10 0)
(5.00185e-05 9.24359e-10 0)
(5.00189e-05 1.24907e-09 0)
(5.00192e-05 1.58188e-09 0)
(5.00125e-05 -1.92761e-11 0)
(5.00124e-05 -3.13542e-11 0)
(5.00126e-05 -4.07037e-11 0)
(5.0013e-05 -7.69932e-11 0)
(5.00132e-05 -3.61106e-11 0)
(5.00139e-05 -1.03348e-10 0)
(5.00143e-05 1.23988e-11 0)
(5.00151e-05 -6.19135e-11 0)
(5.00157e-05 1.27903e-10 0)
(5.00165e-05 1.02083e-10 0)
(5.00172e-05 3.52853e-10 0)
(5.0018e-05 4.37019e-10 0)
(5.00187e-05 7.38215e-10 0)
(5.00193e-05 9.68819e-10 0)
(5.00198e-05 1.31496e-09 0)
(5.00202e-05 1.6803e-09 0)
(5.00123e-05 -1.31308e-11 0)
(5.00123e-05 7.98417e-12 0)
(5.00124e-05 2.2084e-11 0)
(5.00129e-05 2.37727e-12 0)
(5.00131e-05 6.56602e-11 0)
(5.00139e-05 6.28675e-13 0)
(5.00143e-05 1.35746e-10 0)
(5.00152e-05 5.05506e-11 0)
(5.00159e-05 2.5526e-10 0)
(5.00168e-05 2.13455e-10 0)
(5.00177e-05 4.75553e-10 0)
(5.00185e-05 5.50845e-10 0)
(5.00194e-05 8.64305e-10 0)
(5.00202e-05 1.10484e-09 0)
(5.00208e-05 1.47169e-09 0)
(5.00213e-05 1.8717e-09 0)
(5.00122e-05 3.76946e-12 0)
(5.00121e-05 8.11665e-11 0)
(5.00122e-05 1.39001e-10 0)
(5.00127e-05 1.54275e-10 0)
(5.0013e-05 2.57486e-10 0)
(5.00138e-05 2.07725e-10 0)
(5.00143e-05 3.74823e-10 0)
(5.00153e-05 2.85257e-10 0)
(5.0016e-05 5.1176e-10 0)
(5.00171e-05 4.54416e-10 0)
(5.00181e-05 7.29511e-10 0)
(5.00191e-05 7.92865e-10 0)
(5.00202e-05 1.11687e-09 0)
(5.00211e-05 1.36466e-09 0)
(5.00219e-05 1.75042e-09 0)
(5.00226e-05 2.1866e-09 0)
(5.0012e-05 3.5192e-11 0)
(5.00119e-05 1.9909e-10 0)
(5.00121e-05 3.2756e-10 0)
(5.00126e-05 4.02387e-10 0)
(5.00129e-05 5.68789e-10 0)
(5.00137e-05 5.52265e-10 0)
(5.00142e-05 7.68069e-10 0)
(5.00153e-05 6.83702e-10 0)
(5.00162e-05 9.41053e-10 0)
(5.00173e-05 8.69562e-10 0)
(5.00185e-05 1.15954e-09 0)
(5.00196e-05 1.20707e-09 0)
(5.00209e-05 1.53862e-09 0)
(5.0022e-05 1.78943e-09 0)
(5.00231e-05 2.19054e-09 0)
(5.00239e-05 2.66332e-09 0)
(5.00118e-05 8.58169e-11 0)
(5.00118e-05 3.75346e-10 0)
(5.00119e-05 6.09548e-10 0)
(5.00125e-05 7.76319e-10 0)
(5.00127e-05 1.03628e-09 0)
(5.00137e-05 1.07719e-09 0)
(5.00142e-05 1.36365e-09 0)
(5.00153e-05 1.29782e-09 0)
(5.00163e-05 1.59809e-09 0)
(5.00175e-05 1.5147e-09 0)
(5.00189e-05 1.82218e-09 0)
(5.00202e-05 1.84844e-09 0)
(5.00217e-05 2.18332e-09 0)
(5.0023e-05 2.43041e-09 0)
(5.00243e-05 2.84118e-09 0)
(5.00254e-05 3.34935e-09 0)
(5.00117e-05 1.61475e-10 0)
(5.00118e-05 6.26217e-10 0)
(5.00119e-05 1.01121e-09 0)
(5.00125e-05 1.31175e-09 0)
(5.00127e-05 1.70445e-09 0)
(5.00137e-05 1.83481e-09 0)
(5.00142e-05 2.22047e-09 0)
(5.00154e-05 2.19171e-09 0)
(5.00164e-05 2.55069e-09 0)
(5.00177e-05 2.45951e-09 0)
(5.00193e-05 2.78776e-09 0)
(5.00207e-05 2.78606e-09 0)
(5.00225e-05 3.11803e-09 0)
(5.00241e-05 3.3518e-09 0)
(5.00257e-05 3.76338e-09 0)
(5.00271e-05 4.30349e-09 0)
(5.00117e-05 2.69158e-10 0)
(5.0012e-05 9.71428e-10 0)
(5.0012e-05 1.56426e-09 0)
(5.00127e-05 2.0521e-09 0)
(5.00128e-05 2.62737e-09 0)
(5.00137e-05 2.88906e-09 0)
(5.00142e-05 3.41071e-09 0)
(5.00154e-05 3.44412e-09 0)
(5.00165e-05 3.88278e-09 0)
(5.00179e-05 3.78999e-09 0)
(5.00196e-05 4.1439e-09 0)
(5.00213e-05 4.10533e-09 0)
(5.00233e-05 4.42632e-09 0)
(5.00252e-05 4.63283e-09 0)
(5.00272e-05 5.03252e-09 0)
(5.00289e-05 5.59779e-09 0)
(5.00119e-05 4.17328e-10 0)
(5.00125e-05 1.43369e-09 0)
(5.00125e-05 2.30545e-09 0)
(5.00131e-05 3.04772e-09 0)
(5.00131e-05 3.8683e-09 0)
(5.0014e-05 4.31518e-09 0)
(5.00144e-05 5.01996e-09 0)
(5.00156e-05 5.14936e-09 0)
(5.00167e-05 5.69528e-09 0)
(5.00181e-05 5.61094e-09 0)
(5.002e-05 5.9974e-09 0)
(5.00218e-05 5.91151e-09 0)
(5.00241e-05 6.21077e-09 0)
(5.00263e-05 6.37113e-09 0)
(5.00287e-05 6.74092e-09 0)
(5.00309e-05 7.32031e-09 0)
(5.00124e-05 6.15735e-10 0)
(5.00136e-05 2.03927e-09 0)
(5.00134e-05 3.27727e-09 0)
(5.00139e-05 4.35741e-09 0)
(5.00138e-05 5.50114e-09 0)
(5.00146e-05 6.202e-09 0)
(5.00148e-05 7.14979e-09 0)
(5.00159e-05 7.42037e-09 0)
(5.00169e-05 8.11023e-09 0)
(5.00184e-05 8.04961e-09 0)
(5.00203e-05 8.47953e-09 0)
(5.00223e-05 8.33378e-09 0)
(5.0025e-05 8.59854e-09 0)
(5.00275e-05 8.68685e-09 0)
(5.00303e-05 9.00225e-09 0)
(5.00331e-05 9.57864e-09 0)
(5.00135e-05 8.75647e-10 0)
(5.00152e-05 2.81673e-09 0)
(5.00149e-05 4.52624e-09 0)
(5.00153e-05 6.0458e-09 0)
(5.00149e-05 7.60811e-09 0)
(5.00156e-05 8.64925e-09 0)
(5.00156e-05 9.91575e-09 0)
(5.00165e-05 1.03874e-08 0)
(5.00174e-05 1.127e-08 0)
(5.00187e-05 1.12569e-08 0)
(5.00207e-05 1.17472e-08 0)
(5.00227e-05 1.15287e-08 0)
(5.00257e-05 1.17442e-08 0)
(5.00286e-05 1.17268e-08 0)
(5.00321e-05 1.19551e-08 0)
(5.00354e-05 1.25037e-08 0)
(5.00152e-05 1.20932e-09 0)
(5.00178e-05 3.79653e-09 0)
(5.00173e-05 6.10212e-09 0)
(5.00175e-05 8.18295e-09 0)
(5.00168e-05 1.02789e-08 0)
(5.00172e-05 1.17678e-08 0)
(5.00168e-05 1.34478e-08 0)
(5.00174e-05 1.41998e-08 0)
(5.0018e-05 1.53405e-08 0)
(5.00191e-05 1.54115e-08 0)
(5.00211e-05 1.59895e-08 0)
(5.00231e-05 1.56865e-08 0)
(5.00264e-05 1.58385e-08 0)
(5.00297e-05 1.56717e-08 0)
(5.00338e-05 1.57707e-08 0)
(5.00379e-05 1.6256e-08 0)
(5.00178e-05 1.6298e-09 0)
(5.00216e-05 5.00846e-09 0)
(5.00207e-05 8.05406e-09 0)
(5.00208e-05 1.0839e-08 0)
(5.00196e-05 1.36051e-08 0)
(5.00196e-05 1.56728e-08 0)
(5.00187e-05 1.78842e-08 0)
(5.00188e-05 1.90202e-08 0)
(5.0019e-05 2.05068e-08 0)
(5.00197e-05 2.07179e-08 0)
(5.00215e-05 2.14274e-08 0)
(5.00235e-05 2.10344e-08 0)
(5.00271e-05 2.11117e-08 0)
(5.00307e-05 2.07413e-08 0)
(5.00356e-05 2.06568e-08 0)
(5.00406e-05 2.10281e-08 0)
(5.00216e-05 2.14984e-09 0)
(5.00268e-05 6.47871e-09 0)
(5.00257e-05 1.04259e-08 0)
(5.00253e-05 1.40782e-08 0)
(5.00236e-05 1.76726e-08 0)
(5.0023e-05 2.04767e-08 0)
(5.00215e-05 2.33641e-08 0)
(5.0021e-05 2.50192e-08 0)
(5.00205e-05 2.69695e-08 0)
(5.00207e-05 2.74065e-08 0)
(5.00221e-05 2.83181e-08 0)
(5.00238e-05 2.78448e-08 0)
(5.00276e-05 2.78481e-08 0)
(5.00316e-05 2.72097e-08 0)
(5.00372e-05 2.68744e-08 0)
(5.00433e-05 2.70592e-08 0)
(5.00269e-05 2.78065e-09 0)
(5.00339e-05 8.22539e-09 0)
(5.00324e-05 1.32489e-08 0)
(5.00316e-05 1.79489e-08 0)
(5.00292e-05 2.25495e-08 0)
(5.00279e-05 2.62749e-08 0)
(5.00255e-05 3.00127e-08 0)
(5.00241e-05 3.23602e-08 0)
(5.00227e-05 3.4932e-08 0)
(5.00221e-05 3.57239e-08 0)
(5.00229e-05 3.69518e-08 0)
(5.00241e-05 3.64404e-08 0)
(5.00279e-05 3.64003e-08 0)
(5.00321e-05 3.543e-08 0)
(5.00387e-05 3.47735e-08 0)
(5.00461e-05 3.46757e-08 0)
(5.00341e-05 3.52992e-09 0)
(5.00434e-05 1.02514e-08 0)
(5.00413e-05 1.65304e-08 0)
(5.004e-05 2.24681e-08 0)
(5.00367e-05 2.82671e-08 0)
(5.00346e-05 3.31226e-08 0)
(5.0031e-05 3.79153e-08 0)
(5.00285e-05 4.11731e-08 0)
(5.0026e-05 4.45736e-08 0)
(5.00242e-05 4.59113e-08 0)
(5.0024e-05 4.76341e-08 0)
(5.00244e-05 4.71875e-08 0)
(5.00279e-05 4.71931e-08 0)
(5.00323e-05 4.5852e-08 0)
(5.00398e-05 4.48273e-08 0)
(5.00488e-05 4.43289e-08 0)
(5.00437e-05 4.39881e-09 0)
(5.00555e-05 1.25377e-08 0)
(5.00529e-05 2.02424e-08 0)
(5.0051e-05 2.76053e-08 0)
(5.00467e-05 3.47979e-08 0)
(5.00435e-05 4.10095e-08 0)
(5.00386e-05 4.70872e-08 0)
(5.00347e-05 5.15189e-08 0)
(5.00306e-05 5.60126e-08 0)
(5.00273e-05 5.81643e-08 0)
(5.00257e-05 6.06487e-08 0)
(5.00249e-05 6.04569e-08 0)
(5.00278e-05 6.06818e-08 0)
(5.0032e-05 5.89685e-08 0)
(5.00404e-05 5.75511e-08 0)
(5.00512e-05 5.64703e-08 0)
(5.00559e-05 5.37902e-09 0)
(5.00708e-05 1.50325e-08 0)
(5.00676e-05 2.43038e-08 0)
(5.00649e-05 3.32562e-08 0)
(5.00596e-05 4.20225e-08 0)
(5.00551e-05 4.9816e-08 0)
(5.00486e-05 5.74219e-08 0)
(5.00431e-05 6.33338e-08 0)
(5.00371e-05 6.92458e-08 0)
(5.00318e-05 7.25813e-08 0)
(5.00283e-05 7.62174e-08 0)
(5.00257e-05 7.66142e-08 0)
(5.00274e-05 7.73694e-08 0)
(5.0031e-05 7.53517e-08 0)
(5.00402e-05 7.34798e-08 0)
(5.0053e-05 7.14252e-08 0)
(5.00714e-05 6.44818e-09 0)
(5.00897e-05 1.76431e-08 0)
(5.00858e-05 2.85663e-08 0)
(5.00824e-05 3.92225e-08 0)
(5.00758e-05 4.96987e-08 0)
(5.00699e-05 5.92722e-08 0)
(5.00617e-05 6.86362e-08 0)
(5.00542e-05 7.63574e-08 0)
(5.00459e-05 8.40682e-08 0)
(5.00383e-05 8.90827e-08 0)
(5.00324e-05 9.44588e-08 0)
(5.00272e-05 9.60732e-08 0)
(5.0027e-05 9.80729e-08 0)
(5.0029e-05 9.62514e-08 0)
(5.00386e-05 9.41972e-08 0)
(5.00539e-05 9.08067e-08 0)
(5.00904e-05 7.56643e-09 0)
(5.01124e-05 2.02273e-08 0)
(5.01078e-05 3.2799e-08 0)
(5.01035e-05 4.51859e-08 0)
(5.00957e-05 5.74235e-08 0)
(5.00884e-05 6.88995e-08 0)
(5.00783e-05 8.01841e-08 0)
(5.00688e-05 9.00085e-08 0)
(5.0058e-05 9.98909e-08 0)
(5.00477e-05 1.07166e-07 0)
(5.00388e-05 1.1507e-07 0)
(5.00304e-05 1.18964e-07 0)
(5.00273e-05 1.23731e-07 0)
(5.00265e-05 1.23893e-07 0)
(5.00351e-05 1.23869e-07 0)
(5.00528e-05 1.20955e-07 0)
(5.01133e-05 8.67272e-09 0)
(5.01391e-05 2.25928e-08 0)
(5.01338e-05 3.66866e-08 0)
(5.01287e-05 5.07031e-08 0)
(5.01197e-05 6.462e-08 0)
(5.01108e-05 7.79813e-08 0)
(5.00989e-05 9.11971e-08 0)
(5.00872e-05 1.03265e-07 0)
(5.00738e-05 1.15513e-07 0)
(5.00608e-05 1.25476e-07 0)
(5.00487e-05 1.36538e-07 0)
(5.0037e-05 1.43742e-07 0)
(5.00305e-05 1.53045e-07 0)
(5.00262e-05 1.57801e-07 0)
(5.00321e-05 1.64242e-07 0)
(5.00496e-05 1.67563e-07 0)
(5.01402e-05 9.68467e-09 0)
(5.01696e-05 2.45047e-08 0)
(5.01637e-05 3.98414e-08 0)
(5.01578e-05 5.52232e-08 0)
(5.01475e-05 7.05606e-08 0)
(5.01373e-05 8.55924e-08 0)
(5.01235e-05 1.00517e-07 0)
(5.01097e-05 1.14689e-07 0)
(5.00937e-05 1.29111e-07 0)
(5.00781e-05 1.41684e-07 0)
(5.00628e-05 1.5573e-07 0)
(5.0048e-05 1.66102e-07 0)
(5.00383e-05 1.79819e-07 0)
(5.00304e-05 1.88907e-07 0)
(5.0033e-05 2.02093e-07 0)
(5.00457e-05 2.12555e-07 0)
(5.01709e-05 1.05018e-08 0)
(5.02036e-05 2.57026e-08 0)
(5.01971e-05 4.18339e-08 0)
(5.01904e-05 5.81347e-08 0)
(5.01791e-05 7.44403e-08 0)
(5.01674e-05 9.07108e-08 0)
(5.01518e-05 1.06879e-07 0)
(5.0136e-05 1.22728e-07 0)
(5.01174e-05 1.38765e-07 0)
(5.0099e-05 1.53411e-07 0)
(5.00803e-05 1.69531e-07 0)
(5.0062e-05 1.81876e-07 0)
(5.00484e-05 1.98013e-07 0)
(5.0036e-05 2.07911e-07 0)
(5.00339e-05 2.22408e-07 0)
(5.00396e-05 2.32026e-07 0)
(5.02051e-05 1.10127e-08 0)
(5.02405e-05 2.59186e-08 0)
(5.02335e-05 4.22232e-08 0)
(5.0226e-05 5.88133e-08 0)
(5.02136e-05 7.54454e-08 0)
(5.02005e-05 9.2322e-08 0)
(5.01833e-05 1.0907e-07 0)
(5.01654e-05 1.25974e-07 0)
(5.01441e-05 1.42891e-07 0)
(5.01228e-05 1.58995e-07 0)
(5.01e-05 1.76285e-07 0)
(5.00775e-05 1.89841e-07 0)
(5.00587e-05 2.0729e-07 0)
(5.00398e-05 2.16346e-07 0)
(5.0032e-05 2.31201e-07 0)
(5.00309e-05 2.38464e-07 0)
(5.02422e-05 1.11027e-08 0)
(5.02793e-05 2.48959e-08 0)
(5.02717e-05 4.05868e-08 0)
(5.02636e-05 5.66584e-08 0)
(5.02503e-05 7.27951e-08 0)
(5.02359e-05 8.9453e-08 0)
(5.0217e-05 1.05938e-07 0)
(5.0197e-05 1.23089e-07 0)
(5.0173e-05 1.4001e-07 0)
(5.01486e-05 1.56876e-07 0)
(5.01213e-05 1.74401e-07 0)
(5.00939e-05 1.88744e-07 0)
(5.00683e-05 2.06592e-07 0)
(5.00417e-05 2.14106e-07 0)
(5.00273e-05 2.30402e-07 0)
(5.00187e-05 2.33719e-07 0)
(5.02811e-05 1.06622e-08 0)
(5.03188e-05 2.24111e-08 0)
(5.03107e-05 3.65564e-08 0)
(5.03019e-05 5.11426e-08 0)
(5.02877e-05 6.57927e-08 0)
(5.02721e-05 8.12118e-08 0)
(5.02518e-05 9.6394e-08 0)
(5.02297e-05 1.12753e-07 0)
(5.02032e-05 1.28601e-07 0)
(5.01755e-05 1.45333e-07 0)
(5.01435e-05 1.62066e-07 0)
(5.01107e-05 1.76987e-07 0)
(5.00765e-05 1.94254e-07 0)
(5.00415e-05 2.01319e-07 0)
(5.00199e-05 2.20028e-07 0)
(4.99985e-05 2.16469e-07 0)
(5.03207e-05 9.59531e-09 0)
(5.03574e-05 1.82722e-08 0)
(5.03489e-05 2.98085e-08 0)
(5.03395e-05 4.17835e-08 0)
(5.03245e-05 5.37648e-08 0)
(5.03078e-05 6.66787e-08 0)
(5.02862e-05 7.92209e-08 0)
(5.02622e-05 9.3335e-08 0)
(5.02332e-05 1.06646e-07 0)
(5.02024e-05 1.2192e-07 0)
(5.01659e-05 1.36666e-07 0)
(5.01272e-05 1.51871e-07 0)
(5.00837e-05 1.67951e-07 0)
(5.00399e-05 1.78134e-07 0)
(5.00067e-05 1.96845e-07 0)
(4.99637e-05 1.80007e-07 0)
(5.03595e-05 7.82013e-09 0)
(5.03936e-05 1.22824e-08 0)
(5.03845e-05 1.99908e-08 0)
(5.03745e-05 2.80443e-08 0)
(5.03587e-05 3.59941e-08 0)
(5.03408e-05 4.49846e-08 0)
(5.03179e-05 5.34493e-08 0)
(5.02919e-05 6.38132e-08 0)
(5.02608e-05 7.32437e-08 0)
(5.02272e-05 8.57503e-08 0)
(5.0187e-05 9.74567e-08 0)
(5.01431e-05 1.12237e-07 0)
(5.00922e-05 1.26453e-07 0)
(5.00389e-05 1.38294e-07 0)
(4.99786e-05 1.4683e-07 0)
(4.99011e-05 1.10179e-07 0)
(5.03958e-05 5.25536e-09 0)
(5.04253e-05 4.42659e-09 0)
(5.04155e-05 7.12928e-09 0)
(5.04045e-05 1.00934e-08 0)
(5.03879e-05 1.29366e-08 0)
(5.03689e-05 1.70645e-08 0)
(5.03448e-05 2.07922e-08 0)
(5.03173e-05 2.716e-08 0)
(5.02855e-05 3.26346e-08 0)
(5.02512e-05 4.09618e-08 0)
(5.02097e-05 4.63567e-08 0)
(5.01612e-05 5.49311e-08 0)
(5.00984e-05 5.89747e-08 0)
(5.00253e-05 5.61178e-08 0)
(4.99246e-05 3.97125e-08 0)
(4.98017e-05 -1.61209e-08 0)
(5.04277e-05 1.89657e-09 0)
(5.04503e-05 -4.48831e-09 0)
(5.044e-05 -7.10195e-09 0)
(5.04287e-05 -9.27558e-09 0)
(5.04124e-05 -1.16778e-08 0)
(5.03937e-05 -1.3165e-08 0)
(5.03704e-05 -1.58e-08 0)
(5.03424e-05 -1.62841e-08 0)
(5.0307e-05 -1.96085e-08 0)
(5.02661e-05 -2.32734e-08 0)
(5.02168e-05 -3.50477e-08 0)
(5.0158e-05 -4.80653e-08 0)
(5.00778e-05 -7.24241e-08 0)
(4.99771e-05 -1.03242e-07 0)
(4.98369e-05 -1.47501e-07 0)
(4.96695e-05 -2.15224e-07 0)
(5.0453e-05 -1.94151e-09 0)
(5.04732e-05 -1.45058e-08 0)
(5.04628e-05 -2.34067e-08 0)
(5.04503e-05 -3.24441e-08 0)
(5.04312e-05 -4.3094e-08 0)
(5.04083e-05 -5.52097e-08 0)
(5.03798e-05 -7.15623e-08 0)
(5.03455e-05 -9.02622e-08 0)
(5.03014e-05 -1.16199e-07 0)
(5.02477e-05 -1.45066e-07 0)
(5.01827e-05 -1.84917e-07 0)
(5.01051e-05 -2.27647e-07 0)
(5.00047e-05 -2.83909e-07 0)
(4.98813e-05 -3.408e-07 0)
(4.97135e-05 -4.08987e-07 0)
(4.95128e-05 -4.82191e-07 0)
(5.04756e-05 -6.2517e-09 0)
(5.04807e-05 -3.146e-08 0)
(5.04673e-05 -5.27077e-08 0)
(5.04494e-05 -7.66437e-08 0)
(5.04228e-05 -1.04708e-07 0)
(5.03894e-05 -1.36868e-07 0)
(5.03484e-05 -1.76109e-07 0)
(5.02996e-05 -2.20928e-07 0)
(5.02413e-05 -2.75073e-07 0)
(5.01725e-05 -3.33072e-07 0)
(5.00917e-05 -4.02039e-07 0)
(4.99967e-05 -4.72091e-07 0)
(4.98799e-05 -5.5431e-07 0)
(4.97388e-05 -6.30899e-07 0)
(4.95542e-05 -7.17233e-07 0)
(4.93348e-05 -7.91867e-07 0)
(5.04842e-05 -1.34452e-08 0)
(5.04455e-05 -6.29589e-08 0)
(5.04253e-05 -1.05275e-07 0)
(5.0398e-05 -1.52031e-07 0)
(5.03606e-05 -2.04619e-07 0)
(5.03143e-05 -2.62729e-07 0)
(5.02593e-05 -3.28726e-07 0)
(5.01954e-05 -4.00718e-07 0)
(5.01226e-05 -4.81615e-07 0)
(5.00392e-05 -5.65757e-07 0)
(4.99445e-05 -6.59177e-07 0)
(4.98357e-05 -7.50726e-07 0)
(4.97076e-05 -8.51689e-07 0)
(4.95561e-05 -9.40735e-07 0)
(4.93663e-05 -1.03639e-06 0)
(4.91436e-05 -1.10551e-06 0)
(5.04515e-05 -2.68437e-08 0)
(5.03447e-05 -1.07724e-07 0)
(5.03182e-05 -1.78106e-07 0)
(5.02816e-05 -2.52965e-07 0)
(5.02333e-05 -3.33412e-07 0)
(5.01748e-05 -4.18923e-07 0)
(5.01068e-05 -5.11013e-07 0)
(5.00298e-05 -6.07688e-07 0)
(4.99448e-05 -7.11209e-07 0)
(4.985e-05 -8.16134e-07 0)
(4.9746e-05 -9.27579e-07 0)
(4.96289e-05 -1.03395e-06 0)
(4.94965e-05 -1.14633e-06 0)
(4.93434e-05 -1.24126e-06 0)
(4.91603e-05 -1.33922e-06 0)
(4.89486e-05 -1.39937e-06 0)
(5.03535e-05 -4.59757e-08 0)
(5.01644e-05 -1.5904e-07 0)
(5.01336e-05 -2.60587e-07 0)
(5.00906e-05 -3.65435e-07 0)
(5.00346e-05 -4.73836e-07 0)
(4.99678e-05 -5.85132e-07 0)
(4.98913e-05 -7.00131e-07 0)
(4.98061e-05 -8.17106e-07 0)
(4.97136e-05 -9.37799e-07 0)
(4.96126e-05 -1.05746e-06 0)
(4.95045e-05 -1.18052e-06 0)
(4.93854e-05 -1.29579e-06 0)
(4.92558e-05 -1.41378e-06 0)
(4.91094e-05 -1.51038e-06 0)
(4.89426e-05 -1.6072e-06 0)
(4.8753e-05 -1.65917e-06 0)
(5.01754e-05 -6.79855e-08 0)
(4.99035e-05 -2.08571e-07 0)
(4.98716e-05 -3.39645e-07 0)
(4.98265e-05 -4.72255e-07 0)
(4.97681e-05 -6.05528e-07 0)
(4.96986e-05 -7.38773e-07 0)
(4.96196e-05 -8.7223e-07 0)
(4.95321e-05 -1.0047e-06 0)
(4.94381e-05 -1.13748e-06 0)
(4.93366e-05 -1.2668e-06 0)
(4.92301e-05 -1.39648e-06 0)
(4.91149e-05 -1.5164e-06 0)
(4.89941e-05 -1.63624e-06 0)
(4.88612e-05 -1.73251e-06 0)
(4.87178e-05 -1.82702e-06 0)
(4.85587e-05 -1.87295e-06 0)
(4.99156e-05 -8.9296e-08 0)
(4.95733e-05 -2.48496e-07 0)
(4.95434e-05 -4.03194e-07 0)
(4.95004e-05 -5.57837e-07 0)
(4.94449e-05 -7.10482e-07 0)
(4.93785e-05 -8.60449e-07 0)
(4.93029e-05 -1.00746e-06 0)
(4.92189e-05 -1.1509e-06 0)
(4.9129e-05 -1.29161e-06 0)
(4.90323e-05 -1.4269e-06 0)
(4.89325e-05 -1.55989e-06 0)
(4.88262e-05 -1.68198e-06 0)
(4.87192e-05 -1.80169e-06 0)
(4.86049e-05 -1.89726e-06 0)
(4.84901e-05 -1.98963e-06 0)
(4.83675e-05 -2.03231e-06 0)
(4.95851e-05 -1.06515e-07 0)
(4.91943e-05 -2.73367e-07 0)
(4.91685e-05 -4.42838e-07 0)
(4.9131e-05 -6.11394e-07 0)
(4.90822e-05 -7.76307e-07 0)
(4.90231e-05 -9.36935e-07 0)
(4.89553e-05 -1.09248e-06 0)
(4.88794e-05 -1.24278e-06 0)
(4.87978e-05 -1.38813e-06 0)
(4.87103e-05 -1.52683e-06 0)
(4.86211e-05 -1.66113e-06 0)
(4.85276e-05 -1.78419e-06 0)
(4.84379e-05 -1.90301e-06 0)
(4.83459e-05 -1.99841e-06 0)
(4.82632e-05 -2.08954e-06 0)
(4.81809e-05 -2.13213e-06 0)
(4.92048e-05 -1.17257e-07 0)
(4.87917e-05 -2.80877e-07 0)
(4.87708e-05 -4.55014e-07 0)
(4.874e-05 -6.2831e-07 0)
(4.86996e-05 -7.97664e-07 0)
(4.86499e-05 -9.62502e-07 0)
(4.85923e-05 -1.1215e-06 0)
(4.8527e-05 -1.27477e-06 0)
(4.84565e-05 -1.4219e-06 0)
(4.83807e-05 -1.56202e-06 0)
(4.83045e-05 -1.6963e-06 0)
(4.82264e-05 -1.81973e-06 0)
(4.81562e-05 -1.93748e-06 0)
(4.80889e-05 -2.0336e-06 0)
(4.80402e-05 -2.12453e-06 0)
(4.80002e-05 -2.1699e-06 0)
(4.88003e-05 -1.20504e-07 0)
(4.83903e-05 -2.71897e-07 0)
(4.83737e-05 -4.40998e-07 0)
(4.83493e-05 -6.1011e-07 0)
(4.83167e-05 -7.76163e-07 0)
(4.82764e-05 -9.38733e-07 0)
(4.8229e-05 -1.09604e-06 0)
(4.81748e-05 -1.2483e-06 0)
(4.81161e-05 -1.39433e-06 0)
(4.80531e-05 -1.53386e-06 0)
(4.7991e-05 -1.66685e-06 0)
(4.79295e-05 -1.79006e-06 0)
(4.78796e-05 -1.90662e-06 0)
(4.78381e-05 -2.00427e-06 0)
(4.78237e-05 -2.09597e-06 0)
(4.78261e-05 -2.14682e-06 0)
(4.8397e-05 -1.16627e-07 0)
(4.80109e-05 -2.49927e-07 0)
(4.79973e-05 -4.06109e-07 0)
(4.79774e-05 -5.6346e-07 0)
(4.79509e-05 -7.19268e-07 0)
(4.79179e-05 -8.73388e-07 0)
(4.78791e-05 -1.0238e-06 0)
(4.78349e-05 -1.17081e-06 0)
(4.7787e-05 -1.31249e-06 0)
(4.77364e-05 -1.44899e-06 0)
(4.7688e-05 -1.57903e-06 0)
(4.76431e-05 -1.70102e-06 0)
(4.76132e-05 -1.8159e-06 0)
(4.75972e-05 -1.91536e-06 0)
(4.76161e-05 -2.00818e-06 0)