/*--------------------------------*- C++ -*----------------------------------*\
| =========                 |                                                 |
| \\      /  F ield         | foam-extend: Open Source CFD                    |
|  \\    /   O peration     | Version:     4.1-20200408                       |
|   \\  /    A nd           | Web:         http://www.foam-extend.org         |
|    \\/     M anipulation  |                                                 |
\*---------------------------------------------------------------------------*/
FoamFile
{
    version     2.0;
    format      ascii;
    class       volSymmTensorField;
    location    "0.0110000";
    object      bEbar;
}
// * * * * * * * * * * * * * * * * * * * * * * * * * * * * * * * * * * * * * //

dimensions      [0 0 0 0 0 0 0];

internalField   nonuniform List<symmTensor> 
1952
(
(1.00419 -3.8622e-06 1.21157e-11 0.99791 9.72446e-12 0.997914)
(1.00419 -2.48253e-06 8.96386e-12 0.997911 -3.33509e-11 0.997913)
(1.00419 -6.92803e-06 -6.82556e-12 0.997908 -9.05687e-11 0.997916)
(1.00419 -4.90942e-06 -2.05663e-11 0.997907 6.89957e-11 0.997917)
(1.00419 -8.79977e-06 8.42171e-12 0.997903 1.73616e-10 0.997921)
(1.00418 -6.22704e-06 3.78686e-11 0.997905 -8.90804e-12 0.997924)
(1.00416 -1.45129e-05 1.32722e-11 0.997904 -1.94391e-10 0.99795)
(1.00416 -1.42319e-05 -1.17216e-11 0.9979 -1.61687e-11 0.997957)
(1.00418 -2.38258e-05 9.9253e-12 0.997879 1.79776e-10 0.99795)
(1.00422 -2.14892e-05 1.58375e-11 0.997852 -5.75783e-11 0.997937)
(1.00423 -2.61232e-05 -8.39301e-12 0.997833 -2.01131e-10 0.997946)
(1.00425 -2.74319e-05 2.27332e-13 0.997814 4.58437e-11 0.997951)
(1.00427 -4.56481e-05 -1.93561e-11 0.997783 2.05209e-10 0.997964)
(1.00429 -8.31512e-05 6.77514e-11 0.997744 -1.08127e-12 0.997975)
(1.00434 -0.000259908 -5.88696e-11 0.997666 -2.24171e-11 0.998005)
(1.00419 -2.98111e-07 3.48635e-12 0.997913 -7.26404e-11 0.997912)
(1.0043 -1.62243e-05 2.42316e-11 0.997856 1.0667e-11 0.997858)
(1.0043 -1.75947e-05 1.79101e-11 0.997855 -3.5916e-11 0.997859)
(1.0043 -3.36167e-05 -1.36635e-11 0.997852 -9.80417e-11 0.99786)
(1.0043 -3.35013e-05 -4.12019e-11 0.997848 7.36937e-11 0.997862)
(1.00431 -4.92422e-05 1.68673e-11 0.997843 1.88276e-10 0.997865)
(1.0043 -5.06459e-05 7.68805e-11 0.997842 -7.97885e-12 0.997874)
(1.00427 -8.01851e-05 2.62591e-11 0.997841 -2.11961e-10 0.997899)
(1.00427 -8.72105e-05 -2.33746e-11 0.997834 -2.04377e-11 0.997906)
(1.0043 -0.000121311 1.98222e-11 0.997812 1.94795e-10 0.997898)
(1.00435 -0.000129419 3.13778e-11 0.997782 -6.08049e-11 0.997881)
(1.00436 -0.000158204 -1.67073e-11 0.99776 -2.1768e-10 0.997892)
(1.00437 -0.000181265 9.82214e-13 0.997741 4.86801e-11 0.997901)
(1.00438 -0.000245739 -3.86959e-11 0.99772 2.22444e-10 0.997919)
(1.00436 -0.000319303 1.27298e-10 0.997715 -9.15552e-13 0.997941)
(1.00426 -0.000477558 -1.39388e-10 0.997768 -3.13226e-11 0.997986)
(1.0043 -3.89671e-06 6.9971e-12 0.997857 -7.86045e-11 0.997857)
(1.00439 -2.53067e-05 2.42339e-11 0.997809 1.14373e-11 0.997811)
(1.0044 -3.17978e-05 1.79075e-11 0.997807 -3.82884e-11 0.997812)
(1.0044 -5.49529e-05 -1.36603e-11 0.997805 -1.04502e-10 0.997814)
(1.0044 -6.03458e-05 -4.12483e-11 0.9978 7.83301e-11 0.997815)
(1.0044 -8.47272e-05 1.68649e-11 0.997795 2.01007e-10 0.997818)
(1.00439 -9.38907e-05 7.71239e-11 0.997793 -7.63883e-12 0.997833)
(1.00436 -0.000135246 2.60789e-11 0.997794 -2.26711e-10 0.997857)
(1.00436 -0.000150671 -2.3524e-11 0.997789 -2.3312e-11 0.997865)
(1.00439 -0.0001985 1.97829e-11 0.997769 2.07283e-10 0.997856)
(1.00444 -0.00021796 3.12757e-11 0.997742 -6.44859e-11 0.997835)
(1.00444 -0.000262505 -1.6372e-11 0.997726 -2.30923e-10 0.997847)
(1.00444 -0.000298035 2.02404e-12 0.997721 5.22772e-11 0.997858)
(1.00441 -0.000374485 -3.86251e-11 0.997722 2.35503e-10 0.997878)
(1.00436 -0.000441459 1.22634e-10 0.997755 -2.11912e-12 0.997901)
(1.00424 -0.000542388 -1.45145e-10 0.997831 -3.53532e-11 0.99794)
(1.00439 -7.52682e-06 6.97941e-12 0.99781 -8.38333e-11 0.99781)
(1.00447 -3.49297e-05 2.42398e-11 0.997773 1.20651e-11 0.997775)
(1.00447 -4.71673e-05 1.7896e-11 0.997772 -4.03408e-11 0.997776)
(1.00447 -7.7464e-05 -1.36509e-11 0.997769 -1.09889e-10 0.997778)
(1.00447 -8.89164e-05 -4.10794e-11 0.997765 8.24289e-11 0.99778)
(1.00447 -0.000122111 1.68796e-11 0.997761 2.11587e-10 0.997783)
(1.00445 -0.00014038 7.69873e-11 0.997761 -7.58138e-12 0.997804)
(1.00442 -0.000191033 2.59186e-11 0.997767 -2.38403e-10 0.997827)
(1.00441 -0.000214689 -2.37091e-11 0.997765 -2.51035e-11 0.997837)
(1.00444 -0.000272612 1.97533e-11 0.99775 2.17028e-10 0.997828)
(1.00448 -0.000300631 3.1289e-11 0.997728 -6.77259e-11 0.997804)
(1.00448 -0.000353864 -1.57825e-11 0.997722 -2.40889e-10 0.997816)
(1.00445 -0.000392008 3.10517e-12 0.997733 5.5158e-11 0.99783)
(1.00441 -0.00046419 -3.84936e-11 0.997753 2.44897e-10 0.997852)
(1.00433 -0.000509221 1.19404e-10 0.997806 -1.86468e-12 0.997875)
(1.00422 -0.000566785 -1.46625e-10 0.997887 -3.78864e-11 0.997911)
(1.00447 -1.15114e-05 7.03906e-12 0.997774 -8.82292e-11 0.997775)
(1.00452 -4.41247e-05 2.42676e-11 0.997748 1.2579e-11 0.99775)
(1.00452 -6.2067e-05 1.78989e-11 0.997747 -4.20232e-11 0.997751)
(1.00452 -9.89733e-05 -1.36453e-11 0.997745 -1.14233e-10 0.997753)
(1.00452 -0.000116219 -4.08657e-11 0.997742 8.58992e-11 0.997755)
(1.00451 -0.00015754 1.69107e-11 0.997742 2.20042e-10 0.997759)
(1.00448 -0.000183769 7.66486e-11 0.997745 -7.51676e-12 0.997786)
(1.00445 -0.000240849 2.58412e-11 0.997756 -2.47329e-10 0.997809)
(1.00444 -0.000271234 -2.37534e-11 0.997758 -2.6342e-11 0.997821)
(1.00445 -0.000335105 1.97496e-11 0.99775 2.24229e-10 0.997811)
(1.0045 -0.000367994 3.14597e-11 0.997734 -7.02515e-11 0.997783)
(1.00448 -0.000424243 -1.51314e-11 0.997737 -2.48097e-10 0.997797)
(1.00444 -0.000458681 3.88609e-12 0.997759 5.71116e-11 0.997812)
(1.00439 -0.000521607 -3.83356e-11 0.99779 2.51371e-10 0.997834)
(1.00431 -0.000546611 1.18026e-10 0.997847 -5.82941e-13 0.997856)
(1.00421 -0.000577798 -1.46874e-10 0.997917 -3.94839e-11 0.997887)
(1.00452 -1.54307e-05 7.0357e-12 0.997749 -9.17979e-11 0.997749)
(1.00455 -5.26402e-05 2.43305e-11 0.997733 1.29882e-11 0.997734)
(1.00455 -7.59847e-05 1.7925e-11 0.997733 -4.33335e-11 0.997736)
(1.00455 -0.000118475 -1.36572e-11 0.997732 -1.17589e-10 0.997738)
(1.00454 -0.000140366 -4.03316e-11 0.997731 8.86246e-11 0.99774)
(1.00453 -0.000188706 1.6993e-11 0.997735 2.26462e-10 0.997746)
(1.0045 -0.000222055 7.58993e-11 0.997742 -7.40645e-12 0.997778)
(1.00446 -0.000283029 2.57725e-11 0.997757 -2.53653e-10 0.997802)
(1.00444 -0.000317588 -2.3901e-11 0.997765 -2.71603e-11 0.997815)
(1.00445 -0.000384215 1.97626e-11 0.997763 2.2914e-10 0.997805)
(1.00449 -0.000419022 3.2309e-11 0.997752 -7.20123e-11 0.997773)
(1.00447 -0.000475242 -1.43947e-11 0.997761 -2.53015e-10 0.997787)
(1.00442 -0.000502219 4.21178e-12 0.99779 5.82507e-11 0.997803)
(1.00436 -0.000555683 -3.81696e-11 0.997826 2.55565e-10 0.997825)
(1.00429 -0.000564296 1.17622e-10 0.99788 7.87972e-13 0.997846)
(1.0042 -0.000581755 -1.46517e-10 0.997938 -4.0473e-11 0.997873)
(1.00455 -1.91613e-05 7.04825e-12 0.997733 -9.45683e-11 0.997734)
(1.00456 -5.99815e-05 2.44289e-11 0.997728 1.33265e-11 0.997729)
(1.00456 -8.79963e-05 1.79726e-11 0.997728 -4.41964e-11 0.99773)
(1.00455 -0.000135041 -1.36858e-11 0.997729 -1.20074e-10 0.997733)
(1.00455 -0.000160533 -3.98482e-11 0.997729 9.00162e-11 0.997736)
(1.00453 -0.000214764 1.70898e-11 0.997738 2.29971e-10 0.997747)
(1.00449 -0.000253665 7.51643e-11 0.997749 -7.79644e-12 0.99778)
(1.00444 -0.000316844 2.5755e-11 0.99777 -2.57549e-10 0.997803)
(1.00442 -0.000353427 -2.39765e-11 0.99778 -2.73275e-11 0.997817)
(1.00442 -0.00042047 1.98006e-11 0.997784 2.32131e-10 0.997807)
(1.00447 -0.000455305 3.35937e-11 0.997776 -7.32852e-11 0.997772)
(1.00444 -0.000509903 -1.36859e-11 0.997789 -2.56151e-10 0.997786)
(1.00439 -0.000528751 4.17201e-12 0.997821 5.88791e-11 0.997802)
(1.00433 -0.000574588 -3.80071e-11 0.997858 2.58001e-10 0.997822)
(1.00427 -0.000571743 1.17854e-10 0.997905 2.01714e-12 0.997842)
(1.0042 -0.000582645 -1.4598e-10 0.997951 -4.09967e-11 0.997865)
(1.00456 -2.24187e-05 7.06481e-12 0.997728 -9.65634e-11 0.997728)
(1.00455 -6.59665e-05 2.45258e-11 0.997731 1.35786e-11 0.997731)
(1.00455 -9.7505e-05 1.80227e-11 0.997732 -4.47283e-11 0.997734)
(1.00455 -0.000148548 -1.37379e-11 0.997735 -1.21746e-10 0.997735)
(1.00454 -0.000177081 -3.97985e-11 0.997736 9.06987e-11 0.99774)
(1.00451 -0.000235989 1.71767e-11 0.997749 2.31686e-10 0.997757)
(1.00446 -0.000277983 7.50333e-11 0.997765 -8.26459e-12 0.997789)
(1.00441 -0.000342836 2.58067e-11 0.997789 -2.5942e-10 0.997813)
(1.00438 -0.000379833 -2.39827e-11 0.997803 -2.70986e-11 0.997828)
(1.00439 -0.000445184 1.98561e-11 0.997811 2.33458e-10 0.997817)
(1.00443 -0.000479121 3.60316e-11 0.997805 -7.40575e-11 0.997779)
(1.00441 -0.000531875 -1.28837e-11 0.997818 -2.57795e-10 0.997791)
(1.00436 -0.000542778 3.86046e-12 0.99785 5.90261e-11 0.997807)
(1.0043 -0.000582869 -3.78577e-11 0.997885 2.59087e-10 0.997826)
(1.00424 -0.000572798 1.18361e-10 0.997925 3.00981e-12 0.997844)
(1.00419 -0.00058165 -1.45355e-10 0.99796 -4.11684e-11 0.997863)
(1.00455 -2.49691e-05 7.1104e-12 0.99773 -9.78846e-11 0.997731)
(1.00453 -7.04892e-05 2.46542e-11 0.997742 1.37407e-11 0.997741)
(1.00453 -0.000104595 1.81018e-11 0.997743 -4.50009e-11 0.997744)
(1.00452 -0.000158323 -1.38274e-11 0.997747 -1.22672e-10 0.997745)
(1.00451 -0.000189369 -4.00666e-11 0.99775 9.10372e-11 0.997751)
(1.00447 -0.000252213 1.7268e-11 0.997767 2.32071e-10 0.997773)
(1.00442 -0.000295654 7.51122e-11 0.997787 -8.77901e-12 0.997806)
(1.00437 -0.000361116 2.58856e-11 0.997813 -2.59431e-10 0.997829)
(1.00434 -0.00039764 -2.39499e-11 0.99783 -2.60487e-11 0.997844)
(1.00434 -0.000460259 1.99266e-11 0.99784 2.33284e-10 0.997834)
(1.00438 -0.00049293 3.82827e-11 0.997834 -7.45434e-11 0.997796)
(1.00437 -0.000544105 -1.22046e-11 0.997846 -2.58182e-10 0.997801)
(1.00432 -0.000548321 3.36294e-12 0.997877 5.85572e-11 0.997817)
(1.00427 -0.00058475 -3.77232e-11 0.997909 2.59175e-10 0.997834)
(1.00422 -0.000570404 1.19023e-10 0.997942 3.88619e-12 0.997851)
(1.00418 -0.000579824 -1.44742e-10 0.997967 -4.10795e-11 0.997867)
(1.00453 -2.68448e-05 7.14543e-12 0.99774 -9.86136e-11 0.997741)
(1.0045 -7.36622e-05 2.47955e-11 0.997758 1.38256e-11 0.997756)
(1.0045 -0.000109587 1.82015e-11 0.997759 -4.50393e-11 0.99776)
(1.00449 -0.00016491 -1.39431e-11 0.997765 -1.23001e-10 0.997761)
(1.00448 -0.000198528 -4.06543e-11 0.997771 9.08934e-11 0.997768)
(1.00443 -0.000263637 1.73537e-11 0.99779 2.31129e-10 0.997796)
(1.00437 -0.000306989 7.54821e-11 0.997814 -9.32969e-12 0.997828)
(1.00432 -0.000372435 2.594e-11 0.997841 -2.58091e-10 0.997851)
(1.00429 -0.000408333 -2.41323e-11 0.997859 -2.50258e-11 0.997865)
(1.00429 -0.000468256 2.0003e-11 0.997871 2.32007e-10 0.997855)
(1.00433 -0.000499509 3.93024e-11 0.997864 -7.46506e-11 0.997817)
(1.00433 -0.000549004 -1.1856e-11 0.997874 -2.57684e-10 0.997814)
(1.00428 -0.000548365 2.81786e-12 0.997902 5.78907e-11 0.99783)
(1.00424 -0.000583017 -3.76043e-11 0.99793 2.58486e-10 0.997846)
(1.0042 -0.000566209 1.1975e-10 0.997956 4.55079e-12 0.99786)
(1.00417 -0.000577742 -1.44184e-10 0.997974 -4.07829e-11 0.997874)
(1.0045 -2.81124e-05 7.19506e-12 0.997755 -9.88411e-11 0.997757)
(1.00446 -7.58578e-05 2.49444e-11 0.997779 1.38383e-11 0.997776)
(1.00445 -0.000112451 1.82911e-11 0.99778 -4.49156e-11 0.997781)
(1.00445 -0.000168377 -1.41213e-11 0.997788 -1.22817e-10 0.997781)
(1.00443 -0.000204163 -4.19865e-11 0.997795 9.04238e-11 0.99779)
(1.00437 -0.000271251 1.74032e-11 0.997816 2.29193e-10 0.997824)
(1.00432 -0.00031333 7.5747e-11 0.997842 -9.82042e-12 0.997855)
(1.00427 -0.000377971 2.60804e-11 0.99787 -2.5556e-10 0.997878)
(1.00423 -0.000413405 -2.41823e-11 0.99789 -2.3968e-11 0.997889)
(1.00423 -0.000470618 2.0085e-11 0.997902 2.29939e-10 0.99788)
(1.00428 -0.000500712 4.03669e-11 0.997895 -7.45592e-11 0.99784)
(1.00428 -0.000549093 -1.15946e-11 0.9979 -2.56583e-10 0.997831)
(1.00424 -0.000544797 2.27555e-12 0.997924 5.72287e-11 0.997845)
(1.0042 -0.00057879 -3.75028e-11 0.997949 2.57223e-10 0.99786)
(1.00417 -0.000561085 1.20432e-10 0.997969 5.01042e-12 0.997873)
(1.00415 -0.000575476 -1.43674e-10 0.997981 -4.03296e-11 0.997884)
(1.00446 -2.87681e-05 7.25336e-12 0.997776 -9.86607e-11 0.997777)
(1.00441 -7.70363e-05 2.51079e-11 0.997803 1.3732e-11 0.997801)
(1.00441 -0.000113363 1.83868e-11 0.997805 -4.47687e-11 0.997804)
(1.0044 -0.000169651 -1.4305e-11 0.997813 -1.22054e-10 0.997806)
(1.00437 -0.000207408 -4.36547e-11 0.997822 8.95379e-11 0.997819)
(1.00431 -0.000275769 1.74215e-11 0.997846 2.26554e-10 0.997854)
(1.00426 -0.000315877 7.60888e-11 0.997873 -9.87109e-12 0.997885)
(1.00421 -0.000379309 2.61741e-11 0.997901 -2.5225e-10 0.997907)
(1.00418 -0.00041407 -2.4195e-11 0.997921 -2.29372e-11 0.997917)
(1.00417 -0.000469357 2.01687e-11 0.997933 2.2726e-10 0.997908)
(1.00422 -0.000498079 4.11331e-11 0.997925 -7.42663e-11 0.997867)
(1.00424 -0.000545657 -1.14909e-11 0.997925 -2.54961e-10 0.99785)
(1.00421 -0.000539188 1.90557e-12 0.997945 5.64193e-11 0.997863)
(1.00417 -0.000573065 -3.74128e-11 0.997967 2.55536e-10 0.997876)
(1.00414 -0.000555745 1.21005e-10 0.997982 5.35865e-12 0.997888)
(1.00413 -0.000573174 -1.43214e-10 0.997989 -3.9759e-11 0.997897)
(1.00441 -2.89389e-05 7.28986e-12 0.9978 -9.81136e-11 0.997801)
(1.00436 -7.74172e-05 2.52491e-11 0.997829 1.35446e-11 0.997828)
(1.00435 -0.000113134 1.84091e-11 0.997833 -4.46115e-11 0.99783)
(1.00434 -0.000169891 -1.43786e-11 0.99784 -1.20853e-10 0.997834)
(1.00431 -0.00020904 -4.42376e-11 0.997852 8.83527e-11 0.997853)
(1.00425 -0.000277337 1.74769e-11 0.997877 2.23343e-10 0.997887)
(1.00419 -0.000315552 7.65007e-11 0.997906 -9.73781e-12 0.997916)
(1.00414 -0.000377928 2.62306e-11 0.997933 -2.48453e-10 0.997938)
(1.00411 -0.000411626 -2.43483e-11 0.997953 -2.1978e-11 0.997946)
(1.00411 -0.000465591 2.02503e-11 0.997964 2.24148e-10 0.997937)
(1.00416 -0.000492923 4.15638e-11 0.997954 -7.38227e-11 0.997896)
(1.00419 -0.000540292 -1.152e-11 0.99795 -2.5297e-10 0.99787)
(1.00417 -0.000532591 1.66989e-12 0.997966 5.55402e-11 0.997882)
(1.00413 -0.000566785 -3.73349e-11 0.997984 2.53544e-10 0.997894)
(1.00411 -0.000550534 1.21472e-10 0.997995 5.60381e-12 0.997904)
(1.0041 -0.000570964 -1.42807e-10 0.997997 -3.91013e-11 0.997912)
(1.00436 -2.88199e-05 7.37126e-12 0.997828 -9.73001e-11 0.997827)
(1.0043 -7.67035e-05 2.54327e-11 0.997857 1.33543e-11 0.997857)
(1.00429 -0.000111781 1.84472e-11 0.997863 -4.4278e-11 0.997858)
(1.00428 -0.000169434 -1.42886e-11 0.997869 -1.1933e-10 0.997865)
(1.00424 -0.000209923 -4.37945e-11 0.997883 8.71259e-11 0.997889)
(1.00418 -0.000276856 1.75458e-11 0.997909 2.19684e-10 0.997921)
(1.00413 -0.00031287 7.69907e-11 0.997939 -9.73748e-12 0.997949)
(1.00408 -0.000374746 2.62492e-11 0.997965 -2.44185e-10 0.997971)
(1.00405 -0.000406852 -2.45959e-11 0.997986 -2.10025e-11 0.997976)
(1.00405 -0.000460306 2.03251e-11 0.997994 2.20676e-10 0.997967)
(1.0041 -0.000486066 4.15074e-11 0.997983 -7.33433e-11 0.997925)
(1.00415 -0.000533747 -1.17211e-11 0.997973 -2.50732e-10 0.997892)
(1.00413 -0.000525722 1.68362e-12 0.997985 5.46056e-11 0.997902)
(1.0041 -0.000560303 -3.72678e-11 0.998001 2.51337e-10 0.997914)
(1.00408 -0.00054572 1.21781e-10 0.998008 5.78243e-12 0.997922)
(1.00408 -0.000568832 -1.42444e-10 0.998007 -3.83805e-11 0.997929)
(1.0043 -2.86852e-05 7.42043e-12 0.997857 -9.62891e-11 0.997856)
(1.00424 -7.59048e-05 2.55598e-11 0.997888 1.32651e-11 0.997887)
(1.00423 -0.000110465 1.84513e-11 0.997892 -4.35871e-11 0.997889)
(1.00421 -0.000168918 -1.41778e-11 0.997899 -1.17122e-10 0.997901)
(1.00417 -0.000209822 -4.30959e-11 0.997916 8.64143e-11 0.997924)
(1.00411 -0.00027486 1.76221e-11 0.997943 2.15884e-10 0.997956)
(1.00406 -0.000309097 7.72692e-11 0.997972 -1.00121e-11 0.997983)
(1.00401 -0.000370185 2.62987e-11 0.997997 -2.39559e-10 0.998005)
(1.00399 -0.000400806 -2.48597e-11 0.998017 -1.99674e-11 0.998008)
(1.00399 -0.000454167 2.03923e-11 0.998024 2.16966e-10 0.997998)
(1.00404 -0.000478169 4.11644e-11 0.998012 -7.28134e-11 0.997956)
(1.0041 -0.000526831 -1.20901e-11 0.997997 -2.48332e-10 0.997914)
(1.00408 -0.000519376 1.96962e-12 0.998005 5.36257e-11 0.997923)
(1.00406 -0.000553968 -3.72101e-11 0.998018 2.48987e-10 0.997934)
(1.00405 -0.000541389 1.21968e-10 0.998022 5.91132e-12 0.997941)
(1.00405 -0.000566856 -1.42128e-10 0.998018 -3.76152e-11 0.997946)
(1.00424 -2.82219e-05 7.46604e-12 0.997886 -9.51346e-11 0.997886)
(1.00418 -7.47295e-05 2.57723e-11 0.997919 1.31715e-11 0.997917)
(1.00417 -0.000109877 1.88691e-11 0.997922 -4.2833e-11 0.99792)
(1.00414 -0.00016908 -1.42459e-11 0.99793 -1.14815e-10 0.997938)
(1.0041 -0.000208573 -4.28451e-11 0.99795 8.5589e-11 0.99796)
(1.00404 -0.00027148 1.76957e-11 0.997977 2.11826e-10 0.997991)
(1.00399 -0.000305192 7.72991e-11 0.998005 -1.03691e-11 0.998017)
(1.00394 -0.000364755 2.64335e-11 0.99803 -2.34653e-10 0.998039)
(1.00392 -0.0003942 -2.47421e-11 0.998048 -1.88857e-11 0.998041)
(1.00393 -0.000447567 2.04597e-11 0.998053 2.1312e-10 0.998029)
(1.00398 -0.000469741 4.04482e-11 0.998041 -7.21714e-11 0.997986)
(1.00405 -0.000520029 -1.26548e-11 0.998021 -2.45795e-10 0.997937)
(1.00404 -0.000513926 2.61432e-12 0.998024 5.25528e-11 0.997945)
(1.00402 -0.000547911 -3.71596e-11 0.998035 2.46546e-10 0.997955)
(1.00401 -0.000537621 1.22004e-10 0.998037 5.99845e-12 0.997961)
(1.00402 -0.000564992 -1.41847e-10 0.99803 -3.682e-11 0.997965)
(1.00418 -2.7916e-05 7.49943e-12 0.997917 -9.38991e-11 0.997917)
(1.00411 -7.32798e-05 2.5852e-11 0.997949 1.28293e-11 0.997949)
(1.0041 -0.000109177 1.92137e-11 0.997954 -4.20034e-11 0.997956)
(1.00408 -0.000169236 -1.43197e-11 0.997963 -1.12735e-10 0.997974)
(1.00403 -0.000206789 -4.25227e-11 0.997984 8.39142e-11 0.997995)
(1.00398 -0.000267584 1.77523e-11 0.99801 2.07548e-10 0.998027)
(1.00392 -0.000301154 7.71858e-11 0.998039 -1.0414e-11 0.998051)
(1.00388 -0.00035912 2.66129e-11 0.998062 -2.29688e-10 0.998073)
(1.00386 -0.00038798 -2.42935e-11 0.998079 -1.80398e-11 0.998073)
(1.00387 -0.000440958 2.05276e-11 0.998082 2.09195e-10 0.998061)
(1.00392 -0.000461489 3.9287e-11 0.99807 -7.14248e-11 0.998017)
(1.00401 -0.000513645 -1.35023e-11 0.998045 -2.43171e-10 0.99796)
(1.004 -0.00050937 3.67585e-12 0.998043 5.13846e-11 0.997967)
(1.00398 -0.000542299 -3.71163e-11 0.998051 2.44058e-10 0.997976)
(1.00398 -0.00053405 1.21983e-10 0.998052 6.05457e-12 0.997981)
(1.00399 -0.000563292 -1.41603e-10 0.998043 -3.60063e-11 0.997984)
(1.00412 -2.64965e-05 7.59181e-12 0.997949 -9.25494e-11 0.997948)
(1.00405 -7.36808e-05 2.56341e-11 0.99798 1.23868e-11 0.997984)
(1.00403 -0.000109866 1.89332e-11 0.997987 -4.12366e-11 0.997993)
(1.00401 -0.000168476 -1.43677e-11 0.997998 -1.10626e-10 0.998009)
(1.00396 -0.000204407 -4.24883e-11 0.998019 8.21369e-11 0.99803)
(1.00391 -0.000264307 1.77919e-11 0.998044 2.03218e-10 0.998062)
(1.00385 -0.000297281 7.71904e-11 0.998072 -1.03034e-11 0.998085)
(1.00381 -0.000354125 2.67733e-11 0.998094 -2.24718e-10 0.998107)
(1.00379 -0.000382676 -2.37729e-11 0.99811 -1.75736e-11 0.998107)
(1.00381 -0.000434933 2.05904e-11 0.998111 2.05187e-10 0.998092)
(1.00386 -0.000453791 3.76588e-11 0.998097 -6.98376e-11 0.998049)
(1.00396 -0.000507875 -1.46557e-11 0.998069 -2.39564e-10 0.997987)
(1.00396 -0.00050588 5.23269e-12 0.998062 5.05734e-11 0.997988)
(1.00395 -0.000537149 -3.7079e-11 0.998069 2.41559e-10 0.997997)
(1.00394 -0.000530645 1.21897e-10 0.998068 5.94786e-12 0.998001)
(1.00395 -0.000561716 -1.41388e-10 0.998057 -3.51747e-11 0.998004)
(1.00405 -2.60769e-05 7.5765e-12 0.997979 -9.11604e-11 0.997979)
(1.00398 -7.47048e-05 2.54947e-11 0.998015 1.21157e-11 0.998019)
(1.00396 -0.000110579 1.86193e-11 0.998022 -4.05088e-11 0.998027)
(1.00394 -0.000167773 -1.43805e-11 0.998034 -1.08515e-10 0.998042)
(1.00389 -0.000202587 -4.23399e-11 0.998055 8.0338e-11 0.998065)
(1.00384 -0.000261538 1.78236e-11 0.998079 1.98894e-10 0.998097)
(1.00379 -0.000293853 7.70598e-11 0.998105 -9.93319e-12 0.99812)
(1.00374 -0.000349776 2.69613e-11 0.998127 -2.1982e-10 0.998141)
(1.00373 -0.000377748 -2.30793e-11 0.998141 -1.76686e-11 0.99814)
(1.00375 -0.000429771 2.06465e-11 0.99814 2.01096e-10 0.998123)
(1.0038 -0.000447358 3.62162e-11 0.998125 -6.71518e-11 0.998082)
(1.0039 -0.000503141 -1.5507e-11 0.998093 -2.34793e-10 0.998018)
(1.00392 -0.00050304 6.46951e-12 0.998081 5.0148e-11 0.99801)
(1.00391 -0.000532937 -3.7049e-11 0.998087 2.39072e-10 0.998018)
(1.00391 -0.000528185 1.21739e-10 0.998084 5.67415e-12 0.998021)
(1.00392 -0.00056039 -1.41209e-10 0.998073 -3.43308e-11 0.998024)
(1.00399 -2.73213e-05 7.48185e-12 0.998013 -8.93469e-11 0.998013)
(1.00391 -7.55471e-05 2.54384e-11 0.998051 1.18967e-11 0.998054)
(1.00389 -0.000110792 1.84709e-11 0.998058 -3.97184e-11 0.998061)
(1.00386 -0.000167141 -1.43494e-11 0.99807 -1.06364e-10 0.998077)
(1.00382 -0.000201597 -4.20793e-11 0.998089 7.84436e-11 0.998101)
(1.00377 -0.000259425 1.78474e-11 0.998113 1.94491e-10 0.998131)
(1.00372 -0.000290966 7.69106e-11 0.998139 -9.48282e-12 0.998154)
(1.00368 -0.000346335 2.71323e-11 0.998159 -2.14861e-10 0.998175)
(1.00367 -0.000373233 -2.23847e-11 0.998171 -1.78438e-11 0.998173)
(1.00369 -0.00042585 2.06939e-11 0.998169 1.96898e-10 0.998155)
(1.00374 -0.000442446 3.50205e-11 0.998152 -6.45756e-11 0.998115)
(1.00385 -0.000499774 -1.5988e-11 0.998117 -2.30077e-10 0.998048)
(1.00388 -0.000500941 7.25649e-12 0.9981 4.96353e-11 0.998031)
(1.00387 -0.000529866 -3.70232e-11 0.998104 2.36585e-10 0.998038)
(1.00387 -0.000526838 1.21506e-10 0.9981 5.39834e-12 0.998042)
(1.00388 -0.000559346 -1.41063e-10 0.998089 -3.34839e-11 0.998044)
(1.00391 -2.77459e-05 7.46238e-12 0.998049 -8.74196e-11 0.998048)
(1.00384 -7.629e-05 2.54051e-11 0.998086 1.16519e-11 0.998089)
(1.00382 -0.000110754 1.83478e-11 0.998094 -3.88666e-11 0.998095)
(1.00379 -0.000166808 -1.42824e-11 0.998105 -1.04101e-10 0.998112)
(1.00375 -0.000201255 -4.16708e-11 0.998124 7.65348e-11 0.998136)
(1.0037 -0.000258115 1.78613e-11 0.998148 1.89981e-10 0.998166)
(1.00365 -0.000289015 7.66857e-11 0.998171 -8.97476e-12 0.998189)
(1.00361 -0.000344051 2.72853e-11 0.998191 -2.09844e-10 0.998209)
(1.0036 -0.00037004 -2.16918e-11 0.998201 -1.8158e-11 0.998207)
(1.00363 -0.000423356 2.07262e-11 0.998197 1.92621e-10 0.998186)
(1.00368 -0.000439276 3.38687e-11 0.998179 -6.22082e-11 0.998147)
(1.00379 -0.000497606 -1.63749e-11 0.998142 -2.25616e-10 0.998078)
(1.00384 -0.000499646 7.92908e-12 0.998119 4.89589e-11 0.998052)
(1.00383 -0.000527723 -3.70026e-11 0.998122 2.34097e-10 0.998059)
(1.00383 -0.00052602 1.21269e-10 0.998118 5.14575e-12 0.998063)
(1.00384 -0.000558544 -1.40947e-10 0.998106 -3.26374e-11 0.998064)
(1.00384 -2.79083e-05 7.47557e-12 0.998084 -8.55306e-11 0.998084)
(1.00376 -7.67056e-05 2.53671e-11 0.998122 1.14082e-11 0.998124)
(1.00375 -0.00011063 1.82531e-11 0.998129 -3.79457e-11 0.998131)
(1.00372 -0.000166923 -1.42113e-11 0.998141 -1.0174e-10 0.998148)
(1.00368 -0.0002016 -4.12661e-11 0.998159 7.46569e-11 0.998172)
(1.00363 -0.000257795 1.7868e-11 0.998182 1.85473e-10 0.998201)
(1.00358 -0.000288406 7.6423e-11 0.998204 -8.46482e-12 0.998224)
(1.00354 -0.000343253 2.74022e-11 0.998222 -2.04816e-10 0.998243)
(1.00354 -0.000368522 -2.10446e-11 0.998231 -1.84854e-11 0.998241)
(1.00357 -0.000422372 2.07458e-11 0.998225 1.88319e-10 0.998218)
(1.00362 -0.000437885 3.29963e-11 0.998206 -5.98847e-11 0.99818)
(1.00374 -0.000496765 -1.66784e-11 0.998166 -2.21174e-10 0.998108)
(1.0038 -0.000499143 8.55713e-12 0.998138 4.82368e-11 0.998074)
(1.00379 -0.000526418 -3.69851e-11 0.99814 2.31604e-10 0.99808)
(1.00379 -0.00052556 1.21052e-10 0.998135 4.90342e-12 0.998084)
(1.0038 -0.000557958 -1.4086e-10 0.998123 -3.17892e-11 0.998084)
(1.00377 -2.78737e-05 7.47149e-12 0.99812 -8.36418e-11 0.998119)
(1.00369 -7.74443e-05 2.53204e-11 0.998158 1.11536e-11 0.99816)
(1.00368 -0.000111165 1.81483e-11 0.998164 -3.69991e-11 0.998167)
(1.00365 -0.000167825 -1.41574e-11 0.998176 -9.93329e-11 0.998184)
(1.00361 -0.000202771 -4.09751e-11 0.998193 7.27234e-11 0.998208)
(1.00356 -0.000258691 1.78595e-11 0.998216 1.8087e-10 0.998237)
(1.00351 -0.000289288 7.61095e-11 0.998236 -7.92923e-12 0.99826)
(1.00348 -0.000343905 2.74834e-11 0.998253 -1.99749e-10 0.998277)
(1.00347 -0.000368698 -2.04531e-11 0.99826 -1.89307e-11 0.998275)
(1.00351 -0.000422685 2.07486e-11 0.998253 1.83786e-10 0.998251)
(1.00356 -0.000438076 3.21082e-11 0.998233 -5.74631e-11 0.998213)
(1.00368 -0.00049712 -1.69524e-11 0.998191 -2.1651e-10 0.998138)
(1.00376 -0.000499617 9.19335e-12 0.998157 4.748e-11 0.998095)
(1.00375 -0.000525951 -3.69759e-11 0.998157 2.29107e-10 0.998101)
(1.00375 -0.000525494 1.20857e-10 0.998152 4.67411e-12 0.998104)
(1.00377 -0.000557614 -1.40801e-10 0.99814 -3.0939e-11 0.998105)
(1.0037 -2.79364e-05 7.48966e-12 0.998156 -8.17471e-11 0.998156)
(1.00362 -7.84184e-05 2.52534e-11 0.998195 1.08925e-11 0.998196)
(1.00361 -0.000112328 1.80488e-11 0.998199 -3.60238e-11 0.998203)
(1.00358 -0.000169579 -1.40975e-11 0.998212 -9.68289e-11 0.998221)
(1.00354 -0.000204831 -4.06571e-11 0.998228 7.06714e-11 0.998246)
(1.00349 -0.000260762 1.78337e-11 0.99825 1.76037e-10 0.998273)
(1.00344 -0.000291554 7.57316e-11 0.998268 -7.36461e-12 0.998296)
(1.00341 -0.000346039 2.75179e-11 0.998285 -1.94496e-10 0.998312)
(1.00341 -0.00037072 -2.00419e-11 0.99829 -1.94446e-11 0.99831)
(1.00344 -0.000424581 2.07224e-11 0.998281 1.79021e-10 0.998284)
(1.0035 -0.000439885 3.12983e-11 0.99826 -5.48811e-11 0.998247)
(1.00362 -0.000498805 -1.71525e-11 0.998217 -2.11564e-10 0.99817)
(1.00372 -0.00050135 9.709e-12 0.998176 4.67758e-11 0.998117)
(1.00371 -0.00052668 -3.6967e-11 0.998175 2.26593e-10 0.998122)
(1.00372 -0.000526055 1.20701e-10 0.99817 4.42719e-12 0.998125)
(1.00373 -0.00055763 -1.40781e-10 0.998157 -3.00823e-11 0.998125)
(1.00363 -2.81468e-05 7.47513e-12 0.998192 -7.98114e-11 0.998192)
(1.00354 -7.98068e-05 2.51472e-11 0.998232 1.06205e-11 0.998234)
(1.00353 -0.000114311 1.79504e-11 0.998235 -3.50086e-11 0.998241)
(1.0035 -0.000172253 -1.40341e-11 0.998248 -9.42296e-11 0.99826)
(1.00346 -0.000207946 -4.03359e-11 0.998263 6.852e-11 0.998284)
(1.00341 -0.000264197 1.7786e-11 0.998285 1.71001e-10 0.99831)
(1.00337 -0.000295386 7.53111e-11 0.998301 -6.78043e-12 0.998333)
(1.00334 -0.000349804 2.75091e-11 0.998317 -1.89032e-10 0.998348)
(1.00334 -0.000374577 -1.97317e-11 0.998319 -1.99607e-11 0.998345)
(1.00338 -0.000428331 2.06814e-11 0.998309 1.74159e-10 0.998318)
(1.00344 -0.00044353 3.05802e-11 0.998287 -5.21599e-11 0.998281)
(1.00357 -0.000502019 -1.72105e-11 0.998242 -2.06415e-10 0.998202)
(1.00368 -0.000504596 1.00361e-11 0.998195 4.61065e-11 0.998138)
(1.00367 -0.000528835 -3.69634e-11 0.998192 2.24039e-10 0.998143)
(1.00368 -0.000527571 1.20544e-10 0.998187 4.15758e-12 0.998146)
(1.00369 -0.00055805 -1.40807e-10 0.998174 -2.92163e-11 0.998146)
(1.00355 -2.85491e-05 7.46049e-12 0.998229 -7.78007e-11 0.99823)
(1.00347 -8.14643e-05 2.50151e-11 0.998271 1.03249e-11 0.998272)
(1.00346 -0.000116968 1.78671e-11 0.998272 -3.39688e-11 0.99828)
(1.00342 -0.000175969 -1.39662e-11 0.998286 -9.15858e-11 0.998299)
(1.00339 -0.000212296 -3.99729e-11 0.998299 6.6276e-11 0.998323)
(1.00334 -0.000269111 1.77203e-11 0.99832 1.65852e-10 0.998348)
(1.0033 -0.00030101 7.48373e-11 0.998334 -6.15676e-12 0.998371)
(1.00328 -0.000355571 2.74476e-11 0.998349 -1.83458e-10 0.998384)
(1.00328 -0.000380654 -1.94719e-11 0.998349 -2.05253e-11 0.998382)
(1.00332 -0.000434302 2.0622e-11 0.998337 1.69238e-10 0.998352)
(1.00338 -0.000449397 3.01458e-11 0.998314 -4.97334e-11 0.998315)
(1.00351 -0.000507059 -1.71251e-11 0.998267 -2.01567e-10 0.998233)
(1.00364 -0.000509272 1.01781e-11 0.998213 4.53997e-11 0.99816)
(1.00364 -0.000532276 -3.69652e-11 0.998209 2.21422e-10 0.998165)
(1.00364 -0.000529879 1.20415e-10 0.998203 3.87864e-12 0.998167)
(1.00365 -0.000558851 -1.40874e-10 0.99819 -2.83385e-11 0.998167)
(1.00347 -2.91024e-05 7.41896e-12 0.998268 -7.57066e-11 0.998269)
(1.00339 -8.39939e-05 2.48508e-11 0.99831 1.00121e-11 0.998312)
(1.00338 -0.000120926 1.77228e-11 0.998311 -3.29428e-11 0.998319)
(1.00335 -0.000181032 -1.38841e-11 0.998324 -8.90174e-11 0.998338)
(1.00331 -0.000218218 -3.96089e-11 0.998336 6.40113e-11 0.998362)
(1.00327 -0.000275987 1.76321e-11 0.998355 1.60819e-10 0.998386)
(1.00323 -0.000308757 7.43327e-11 0.998367 -5.52742e-12 0.998409)
(1.00321 -0.000363745 2.732e-11 0.998381 -1.77995e-10 0.99842)
(1.00321 -0.000389255 -1.92975e-11 0.998379 -2.10131e-11 0.998418)
(1.00326 -0.000442243 2.0543e-11 0.998365 1.64421e-10 0.998387)
(1.00332 -0.000457201 3.02743e-11 0.99834 -4.72269e-11 0.998349)
(1.00345 -0.000514088 -1.70353e-11 0.998291 -1.96639e-10 0.998265)
(1.0036 -0.00051562 1.04824e-11 0.998231 4.46087e-11 0.998183)
(1.0036 -0.000536662 -3.69714e-11 0.998224 2.1873e-10 0.998186)
(1.0036 -0.000532697 1.20282e-10 0.998218 3.60957e-12 0.998189)
(1.00362 -0.000559904 -1.40972e-10 0.998206 -2.74471e-11 0.998188)
(1.00339 -3.00551e-05 7.40495e-12 0.998307 -7.35786e-11 0.998308)
(1.00331 -8.73134e-05 2.46785e-11 0.998351 9.70341e-12 0.998352)
(1.0033 -0.000125953 1.7575e-11 0.99835 -3.18831e-11 0.998359)
(1.00327 -0.000187377 -1.37727e-11 0.998363 -8.63396e-11 0.998378)
(1.00323 -0.000225818 -3.92231e-11 0.998373 6.17711e-11 0.998402)
(1.00319 -0.000284569 1.75197e-11 0.998392 1.55651e-10 0.998425)
(1.00316 -0.000318374 7.38012e-11 0.998402 -4.95146e-12 0.998448)
(1.00314 -0.000373654 2.71246e-11 0.998414 -1.72391e-10 0.998458)
(1.00314 -0.000399749 -1.92064e-11 0.998409 -2.13659e-11 0.998454)
(1.00319 -0.000452086 2.0453e-11 0.998393 1.59513e-10 0.998421)
(1.00326 -0.000467006 3.02294e-11 0.998366 -4.42777e-11 0.998386)
(1.00339 -0.000522664 -1.68275e-11 0.998315 -1.91153e-10 0.998299)
(1.00356 -0.000523248 1.06494e-11 0.998248 4.37719e-11 0.998205)
(1.00356 -0.000542315 -3.69829e-11 0.998239 2.15966e-10 0.998208)
(1.00357 -0.000536184 1.20189e-10 0.998233 3.33867e-12 0.99821)