/*--------------------------------*- C++ -*----------------------------------*\
| =========                 |                                                 |
| \\      /  F ield         | foam-extend: Open Source CFD                    |
|  \\    /   O peration     | Version:     4.1-20200408                       |
|   \\  /    A nd           | Web:         http://www.foam-extend.org         |
|    \\/     M anipulation  |                                                 |
\*---------------------------------------------------------------------------*/
FoamFile
{
    version     2.0;
    format      ascii;
    class       volScalarField;
    location    "0.0110000";
    object      ccx;
}
// * * * * * * * * * * * * * * * * * * * * * * * * * * * * * * * * * * * * * //

dimensions      [0 1 0 0 0 0 0];

internalField   nonuniform List<scalar> 
1952
(
0.00297282
0.00297281
0.00297281
0.0029728
0.0029728
0.00297279
0.00297278
0.00297276
0.00297275
0.00297273
0.00297272
0.0029727
0.00297268
0.00297265
0.00297263
0.00297282
0.00292062
0.00292062
0.00292061
0.0029206
0.00292058
0.00292057
0.00292054
0.00292052
0.00292049
0.00292046
0.00292042
0.00292039
0.00292034
0.0029203
0.00292025
0.00292062
0.00287061
0.0028706
0.00287059
0.00287058
0.00287057
0.00287055
0.00287053
0.0028705
0.00287048
0.00287044
0.00287041
0.00287037
0.00287033
0.00287028
0.00287024
0.00287061
0.00282059
0.00282058
0.00282058
0.00282057
0.00282055
0.00282053
0.00282051
0.00282049
0.00282046
0.00282043
0.00282039
0.00282035
0.00282031
0.00282028
0.00282024
0.00282059
0.00277057
0.00277057
0.00277056
0.00277055
0.00277054
0.00277052
0.0027705
0.00277047
0.00277044
0.00277041
0.00277038
0.00277034
0.0027703
0.00277027
0.00277024
0.00277058
0.00272056
0.00272055
0.00272054
0.00272053
0.00272052
0.0027205
0.00272048
0.00272046
0.00272043
0.0027204
0.00272037
0.00272033
0.0027203
0.00272026
0.00272023
0.00272056
0.00267054
0.00267054
0.00267053
0.00267052
0.0026705
0.00267048
0.00267046
0.00267044
0.00267042
0.00267039
0.00267035
0.00267032
0.00267029
0.00267026
0.00267022
0.00267055
0.00262053
0.00262052
0.00262051
0.0026205
0.00262049
0.00262047
0.00262045
0.00262043
0.0026204
0.00262038
0.00262035
0.00262031
0.00262028
0.00262025
0.00262022
0.00262054
0.00257052
0.00257051
0.0025705
0.00257049
0.00257048
0.00257046
0.00257044
0.00257042
0.00257039
0.00257037
0.00257034
0.00257031
0.00257027
0.00257025
0.00257022
0.00257052
0.00252051
0.0025205
0.00252049
0.00252048
0.00252046
0.00252045
0.00252043
0.00252041
0.00252038
0.00252036
0.00252033
0.0025203
0.00252027
0.00252024
0.00252022
0.00252051
0.00247049
0.00247049
0.00247048
0.00247047
0.00247046
0.00247044
0.00247042
0.0024704
0.00247038
0.00247035
0.00247032
0.00247029
0.00247027
0.00247024
0.00247022
0.00247049
0.00242049
0.00242048
0.00242047
0.00242046
0.00242045
0.00242043
0.00242041
0.00242039
0.00242037
0.00242035
0.00242032
0.00242029
0.00242026
0.00242024
0.00242022
0.00242049
0.00237048
0.00237047
0.00237047
0.00237046
0.00237044
0.00237043
0.00237041
0.00237039
0.00237037
0.00237034
0.00237032
0.00237029
0.00237026
0.00237024
0.00237022
0.00237048
0.00232048
0.00232047
0.00232046
0.00232045
0.00232044
0.00232042
0.00232041
0.00232039
0.00232036
0.00232034
0.00232031
0.00232029
0.00232026
0.00232024
0.00232022
0.00232048
0.00227047
0.00227047
0.00227046
0.00227045
0.00227044
0.00227042
0.00227041
0.00227039
0.00227036
0.00227034
0.00227032
0.00227029
0.00227027
0.00227024
0.00227022
0.00227048
0.00222047
0.00222046
0.00222046
0.00222045
0.00222044
0.00222042
0.00222041
0.00222039
0.00222037
0.00222034
0.00222032
0.00222029
0.00222027
0.00222025
0.00222022
0.00222047
0.00217047
0.00217047
0.00217046
0.00217045
0.00217044
0.00217043
0.00217041
0.00217039
0.00217037
0.00217035
0.00217032
0.0021703
0.00217027
0.00217025
0.00217023
0.00217048
0.00212048
0.00212047
0.00212046
0.00212045
0.00212044
0.00212043
0.00212041
0.00212039
0.00212037
0.00212035
0.00212033
0.0021203
0.00212028
0.00212026
0.00212023
0.00212048
0.00207048
0.00207048
0.00207047
0.00207046
0.00207045
0.00207043
0.00207042
0.0020704
0.00207038
0.00207036
0.00207033
0.00207031
0.00207029
0.00207026
0.00207024
0.00207048
0.00202049
0.00202048
0.00202048
0.00202047
0.00202046
0.00202044
0.00202042
0.00202041
0.00202039
0.00202036
0.00202034
0.00202032
0.00202029
0.00202027
0.00202025
0.00202049
0.0019705
0.00197049
0.00197049
0.00197048
0.00197047
0.00197045
0.00197043
0.00197041
0.00197039
0.00197037
0.00197035
0.00197033
0.0019703
0.00197028
0.00197026
0.0019705
0.00192051
0.0019205
0.0019205
0.00192049
0.00192048
0.00192046
0.00192045
0.00192043
0.00192041
0.00192039
0.00192036
0.00192034
0.00192032
0.00192029
0.00192027
0.00192051
0.00187052
0.00187052
0.00187051
0.0018705
0.00187049
0.00187048
0.00187046
0.00187044
0.00187042
0.0018704
0.00187038
0.00187035
0.00187033
0.00187031
0.00187028
0.00187052
0.00182054
0.00182053
0.00182052
0.00182051
0.0018205
0.00182049
0.00182047
0.00182045
0.00182043
0.00182041
0.00182039
0.00182037
0.00182034
0.00182032
0.0018203
0.00182054
0.00177055
0.00177055
0.00177054
0.00177053
0.00177052
0.00177051
0.00177049
0.00177047
0.00177045
0.00177043
0.00177041
0.00177038
0.00177036
0.00177033
0.00177031
0.00177056
0.00172057
0.00172057
0.00172056
0.00172055
0.00172054
0.00172052
0.00172051
0.00172049
0.00172047
0.00172045
0.00172042
0.0017204
0.00172037
0.00172035
0.00172033
0.00172058
0.00167059
0.00167059
0.00167058
0.00167057
0.00167056
0.00167054
0.00167053
0.00167051
0.00167049
0.00167046
0.00167044
0.00167042
0.00167039
0.00167037
0.00167034
0.0016706
0.00162061
0.00162061
0.0016206
0.00162059
0.00162058
0.00162056
0.00162055
0.00162053
0.0016205
0.00162048
0.00162046
0.00162043
0.00162041
0.00162038
0.00162036
0.00162062
0.00157064
0.00157063
0.00157062
0.00157061
0.0015706
0.00157059
0.00157057
0.00157055
0.00157052
0.0015705
0.00157048
0.00157045
0.00157043
0.0015704
0.00157038
0.00157064
0.00152066
0.00152066
0.00152065
0.00152064
0.00152063
0.00152061
0.00152059
0.00152057
0.00152055
0.00152052
0.0015205
0.00152047
0.00152044
0.00152042
0.0015204
0.00152067
0.00147069
0.00147069
0.00147068
0.00147067
0.00147065
0.00147063
0.00147061
0.00147059
0.00147057
0.00147054
0.00147052
0.00147049
0.00147047
0.00147044
0.00147042
0.00147069
0.00142072
0.00142072
0.00142071
0.00142069
0.00142068
0.00142066
0.00142064
0.00142062
0.0014206
0.00142057
0.00142054
0.00142051
0.00142049
0.00142046
0.00142044
0.00142072
0.00137076
0.00137075
0.00137074
0.00137073
0.00137071
0.00137069
0.00137067
0.00137065
0.00137062
0.00137059
0.00137057
0.00137054
0.00137051
0.00137048
0.00137046
0.00137076
0.00132079
0.00132078
0.00132077
0.00132076
0.00132074
0.00132072
0.0013207
0.00132068
0.00132065
0.00132062
0.00132059
0.00132056
0.00132053
0.00132051
0.00132048
0.0013208
0.00127083
0.00127082
0.00127081
0.0012708
0.00127078
0.00127076
0.00127074
0.00127071
0.00127068
0.00127065
0.00127062
0.00127059
0.00127056
0.00127053
0.00127051
0.00127084
0.00122087
0.00122086
0.00122085
0.00122084
0.00122082
0.0012208
0.00122077
0.00122074
0.00122071
0.00122068
0.00122065
0.00122062
0.00122058
0.00122055
0.00122053
0.00122088
0.00117092
0.00117091
0.0011709
0.00117088
0.00117086
0.00117083
0.00117081
0.00117078
0.00117074
0.00117071
0.00117068
0.00117064
0.00117061
0.00117058
0.00117055
0.00117092
0.00112097
0.00112096
0.00112094
0.00112092
0.0011209
0.00112088
0.00112085
0.00112081
0.00112078
0.00112074
0.0011207
0.00112067
0.00112064
0.0011206
0.00112057
0.00112097
0.00107102
0.00107101
0.00107099
0.00107097
0.00107095
0.00107092
0.00107089
0.00107086
0.00107082
0.00107078
0.00107074
0.0010707
0.00107066
0.00107063
0.00107059
0.00107102
0.00102107
0.00102106
0.00102105
0.00102103
0.001021
0.00102097
0.00102094
0.0010209
0.00102086
0.00102082
0.00102077
0.00102073
0.00102069
0.00102065
0.00102062
0.00102108
0.000971131
0.00097112
0.000971104
0.000971082
0.000971054
0.000971022
0.000970985
0.000970944
0.0009709
0.000970853
0.000970806
0.000970759
0.000970714
0.000970673
0.000970637
0.000971137
0.000921191
0.000921179
0.000921162
0.000921139
0.00092111
0.000921075
0.000921035
0.000920991
0.000920944
0.000920893
0.000920841
0.00092079
0.00092074
0.000920694
0.000920655
0.000921197
0.000871254
0.000871241
0.000871222
0.000871198
0.000871167
0.000871131
0.000871088
0.000871041
0.00087099
0.000870935
0.000870878
0.000870822
0.000870766
0.000870715
0.000870671
0.00087126
0.000821317
0.000821304
0.000821285
0.000821259
0.000821227
0.000821188
0.000821143
0.000821093
0.000821037
0.000820978
0.000820916
0.000820853
0.000820792
0.000820734
0.000820684
0.000821323
0.00077138
0.000771367
0.000771347
0.000771321
0.000771287
0.000771247
0.0007712
0.000771146
0.000771087
0.000771022
0.000770955
0.000770886
0.000770817
0.000770751
0.000770694
0.000771387
0.000721443
0.000721429
0.000721409
0.000721382
0.000721347
0.000721306
0.000721256
0.0007212
0.000721137
0.000721068
0.000720995
0.000720918
0.000720841
0.000720766
0.000720699
0.00072145
0.000671502
0.000671489
0.000671468
0.00067144
0.000671406
0.000671363
0.000671312
0.000671254
0.000671187
0.000671114
0.000671035
0.000670951
0.000670865
0.000670779
0.0006707
0.000671509
0.000621557
0.000621544
0.000621523
0.000621496
0.000621461
0.000621418
0.000621367
0.000621307
0.000621238
0.000621161
0.000621076
0.000620985
0.000620888
0.00062079
0.000620697
0.000621564
0.000571605
0.000571592
0.000571572
0.000571545
0.000571511
0.000571469
0.000571417
0.000571357
0.000571287
0.000571206
0.000571117
0.000571018
0.000570911
0.000570799
0.000570688
0.000571611
0.000521643
0.000521631
0.000521612
0.000521586
0.000521553
0.000521512
0.000521462
0.000521402
0.000521331
0.000521249
0.000521156
0.000521051
0.000520934
0.000520807
0.000520675
0.000521649
0.000471669
0.000471657
0.00047164
0.000471616
0.000471584
0.000471545
0.000471497
0.000471439
0.000471369
0.000471287
0.000471192
0.000471082
0.000470956
0.000470813
0.000470657
0.000471674
0.000421679
0.000421669
0.000421653
0.000421631
0.000421602
0.000421565
0.00042152
0.000421465
0.000421398
0.000421317
0.000421221
0.000421108
0.000420974
0.000420817
0.000420636
0.000421685
0.000371673
0.000371664
0.000371649
0.000371629
0.000371603
0.000371569
0.000371527
0.000371475
0.000371412
0.000371334
0.00037124
0.000371125
0.000370986
0.000370816
0.000370612
0.000371678
0.000321647
0.000321638
0.000321625
0.000321607
0.000321583
0.000321553
0.000321515
0.000321467
0.000321408
0.000321335
0.000321244
0.000321131
0.000320989
0.000320811
0.000320587
0.000321651
0.000271599
0.000271592
0.00027158
0.000271564
0.000271542
0.000271515
0.000271481
0.000271438
0.000271383
0.000271315
0.000271229
0.00027112
0.000270981
0.000270799
0.000270562
0.000271603
0.00022153
0.000221523
0.000221512
0.000221498
0.000221478
0.000221453
0.000221422
0.000221383
0.000221334
0.000221272
0.000221192
0.000221091
0.000220957
0.000220779
0.000220538
0.000221533
0.000171438
0.000171432
0.000171422
0.000171408
0.00017139
0.000171367
0.000171339
0.000171303
0.000171258
0.000171202
0.000171131
0.000171038
0.000170916
0.000170749
0.000170517
0.000171442
0.000121327
0.000121321
0.000121311
0.000121297
0.00012128
0.000121258
0.000121231
0.000121198
0.000121156
0.000121106
0.000121042
0.000120962
0.000120855
0.000120708
0.0001205
0.000121331
7.11982e-05
7.11915e-05
7.11814e-05
7.11677e-05
7.11502e-05
7.11285e-05
7.11022e-05
7.10701e-05
7.10316e-05
7.09852e-05
7.09296e-05
7.08607e-05
7.07732e-05
7.06543e-05
7.04876e-05
7.12015e-05
2.10549e-05
2.10479e-05
2.10373e-05
2.1023e-05
2.10049e-05
2.09828e-05
2.09563e-05
2.09253e-05
2.08884e-05
2.08458e-05
2.07967e-05
2.07404e-05
2.06738e-05
2.05888e-05
2.0477e-05
2.10585e-05
-2.90984e-05
-2.91058e-05
-2.91171e-05
-2.91321e-05
-2.9151e-05
-2.91738e-05
-2.92003e-05
-2.92308e-05
-2.92659e-05
-2.93049e-05
-2.93465e-05
-2.93889e-05
-2.94318e-05
-2.94798e-05
-2.95329e-05
-2.90946e-05
-7.92576e-05
-7.92654e-05
-7.92771e-05
-7.9293e-05
-7.93125e-05
-7.93355e-05
-7.93618e-05
-7.93912e-05
-7.94229e-05
-7.94555e-05
-7.94858e-05
-7.95105e-05
-7.95288e-05
-7.95428e-05
-7.95442e-05
-7.92537e-05
-0.000129419
-0.000129426
-0.000129438
-0.000129454
-0.000129473
-0.000129496
-0.00012952
-0.000129545
-0.00012957
-0.000129592
-0.000129607
-0.000129614
-0.000129611
-0.000129598
-0.000129561
-0.000129415
-0.000179575
-0.000179582
-0.000179593
-0.000179607
-0.000179625
-0.000179643
-0.000179663
-0.000179681
-0.000179696
-0.000179705
-0.000179707
-0.0001797
-0.000179682
-0.000179647
-0.000179582
-0.000179571
-0.000229717
-0.000229723
-0.000229732
-0.000229744
-0.000229757
-0.00022977
-0.000229783
-0.000229793
-0.000229799
-0.000229799
-0.000229791
-0.000229773
-0.000229742
-0.00022969
-0.000229607
-0.000229714
-0.000279839
-0.000279844
-0.000279851
-0.000279859
-0.000279867
-0.000279875
-0.000279882
-0.000279886
-0.000279886
-0.000279878
-0.000279862
-0.000279835
-0.000279791
-0.000279727
-0.000279632
-0.000279837
-0.000329943
-0.000329946
-0.000329951
-0.000329956
-0.000329961
-0.000329964
-0.000329966
-0.000329965
-0.000329958
-0.000329944
-0.00032992
-0.000329884
-0.000329833
-0.000329759
-0.000329658
-0.000329941
-0.000380031
-0.000380033
-0.000380035
-0.000380038
-0.000380039
-0.000380039
-0.000380036
-0.000380029
-0.000380016
-0.000379996
-0.000379966
-0.000379923
-0.000379865
-0.000379786
-0.000379682
-0.00038003
-0.000430104
-0.000430104
-0.000430105
-0.000430104
-0.000430102
-0.000430098
-0.000430091
-0.000430079
-0.000430061
-0.000430036
-0.000430001
-0.000429953
-0.00042989
-0.000429808
-0.000429704
-0.000430103
-0.00048016
-0.00048016
-0.000480158
-0.000480156
-0.000480151
-0.000480143
-0.000480132
-0.000480116
-0.000480094
-0.000480064
-0.000480024
-0.000479973
-0.000479907
-0.000479825
-0.000479723
-0.000480161
-0.000530202
-0.0005302
-0.000530197
-0.000530192
-0.000530185
-0.000530174
-0.00053016
-0.00053014
-0.000530114
-0.000530081
-0.000530038
-0.000529984
-0.000529917
-0.000529836
-0.000529737
-0.000530204
-0.00058023
-0.000580227
-0.000580222
-0.000580215
-0.000580205
-0.000580192
-0.000580175
-0.000580152
-0.000580124
-0.000580087
-0.000580042
-0.000579987
-0.000579921
-0.000579841
-0.000579747
-0.000580232
-0.000630243
-0.00063024
-0.000630234
-0.000630225
-0.000630213
-0.000630198
-0.000630178
-0.000630153
-0.000630123
-0.000630085
-0.000630038
-0.000629983
-0.000629918
-0.000629841
-0.000629751
-0.000630246
-0.000680244
-0.00068024
-0.000680233
-0.000680223
-0.000680209
-0.000680192
-0.000680171
-0.000680145
-0.000680112
-0.000680073
-0.000680027
-0.000679972
-0.000679908
-0.000679835
-0.000679751
-0.000680247
-0.000730233
-0.000730228
-0.000730221
-0.00073021
-0.000730195
-0.000730177
-0.000730154
-0.000730127
-0.000730093
-0.000730054
-0.000730008
-0.000729955
-0.000729893
-0.000729824
-0.000729745
-0.000730236
-0.000780212
-0.000780207
-0.000780198
-0.000780187
-0.000780171
-0.000780152
-0.000780129
-0.0007801
-0.000780067
-0.000780028
-0.000779983
-0.000779931
-0.000779873
-0.000779807
-0.000779733
-0.000780215
-0.000830181
-0.000830176
-0.000830167
-0.000830154
-0.000830138
-0.000830119
-0.000830095
-0.000830067
-0.000830033
-0.000829995
-0.000829951
-0.000829902
-0.000829846
-0.000829784
-0.000829715
-0.000830184
-0.000880142
-0.000880136
-0.000880126
-0.000880114
-0.000880098
-0.000880078
-0.000880054
-0.000880026
-0.000879994
-0.000879956
-0.000879914
-0.000879867
-0.000879814
-0.000879756
-0.000879692
-0.000880145
-0.000930094
-0.000930088
-0.000930079
-0.000930066
-0.00093005
-0.00093003
-0.000930007
-0.000929979
-0.000929948
-0.000929912
-0.000929871
-0.000929826
-0.000929776
-0.000929722
-0.000929663
-0.000930097
-0.00098004
-0.000980034
-0.000980024
-0.000980013
-0.000979998
-0.000979978
-0.000979954
-0.000979925
-0.000979894
-0.000979862
-0.000979824
-0.00097978
-0.000979733
-0.000979685
-0.000979629
-0.000980041
-0.00102998
-0.00102997
-0.00102997
-0.00102995
-0.00102994
-0.00102992
-0.0010299
-0.00102987
-0.00102984
-0.00102981
-0.00102977
-0.00102973
-0.00102969
-0.00102964
-0.00102959
-0.00102998
-0.00107991
-0.00107991
-0.0010799
-0.00107989
-0.00107987
-0.00107986
-0.00107983
-0.00107981
-0.00107978
-0.00107975
-0.00107971
-0.00107968
-0.00107964
-0.00107959
-0.00107954
-0.00107992
-0.00112984
-0.00112984
-0.00112983
-0.00112981
-0.0011298
-0.00112979
-0.00112977
-0.00112974
-0.00112971
-0.00112968
-0.00112965
-0.00112962
-0.00112958
-0.00112954
-0.0011295
-0.00112985
-0.00117977
-0.00117976
-0.00117975
-0.00117974
-0.00117973
-0.00117971
-0.00117969
-0.00117967
-0.00117964
-0.00117961
-0.00117959
-0.00117955
-0.00117952
-0.00117948
-0.00117944
-0.00117977
-0.00122969
-0.00122968
-0.00122968
-0.00122966
-0.00122965
-0.00122963
-0.00122961
-0.00122959
-0.00122957
-0.00122954
-0.00122952
-0.00122948
-0.00122945
-0.00122942
-0.00122938
-0.00122969
-0.0012796
-0.0012796
-0.00127959
-0.00127958
-0.00127957
-0.00127955
-0.00127953
-0.00127951
-0.00127949
-0.00127947
-0.00127944
-0.00127941
-0.00127938
-0.00127935
-0.00127932
-0.00127961
-0.00132952
-0.00132951
-0.0013295
-0.00132949
-0.00132948
-0.00132947
-0.00132945
-0.00132943
-0.00132941
-0.00132939
-0.00132937
-0.00132934
-0.00132931
-0.00132928
-0.00132925
-0.00132952
-0.00137943
-0.00137942
-0.00137941
-0.0013794
-0.00137939
-0.00137938
-0.00137937
-0.00137935
-0.00137933
-0.00137931
-0.00137928
-0.00137926
-0.00137924
-0.00137921
-0.00137917
-0.00137943
-0.00142933
-0.00142933
-0.00142932
-0.00142931
-0.0014293
-0.00142929
-0.00142927
-0.00142926
-0.00142924
-0.00142922
-0.0014292
-0.00142918
-0.00142915
-0.00142913
-0.0014291
-0.00142933
-0.00147923
-0.00147923
-0.00147922
-0.00147922
-0.00147921
-0.00147919
-0.00147918
-0.00147917
-0.00147915
-0.00147913
-0.00147911
-0.00147909
-0.00147907
-0.00147904
-0.00147902
-0.00147923
-0.00152913
-0.00152913
-0.00152913
-0.00152912
-0.00152911
-0.0015291
-0.00152909
-0.00152907
-0.00152906
-0.00152904
-0.00152902
-0.00152901
-0.00152898
-0.00152896
-0.00152893
-0.00152913
-0.00157903
-0.00157903
-0.00157903
-0.00157902
-0.00157901
-0.001579
-0.00157899
-0.00157898
-0.00157896
-0.00157894
-0.00157893
-0.00157891
-0.00157889
-0.00157887
-0.00157885
-0.00157903
-0.00162893
-0.00162893
-0.00162892
-0.00162892
-0.00162891
-0.0016289
-0.00162889
-0.00162888
-0.00162886
-0.00162885
-0.00162883
-0.00162881
-0.0016288
-0.00162878
-0.00162876
-0.00162893
-0.00167882
-0.00167882
-0.00167882
-0.00167881
-0.0016788
-0.00167879
-0.00167879
-0.00167877
-0.00167876
-0.00167875
-0.00167873
-0.00167872
-0.0016787
-0.00167868
-0.00167866
-0.00167883
-0.00172872
-0.00172871
-0.00172871
-0.0017287
-0.00172869
-0.00172869
-0.00172868
-0.00172867
-0.00172866
-0.00172864
-0.00172863
-0.00172862
-0.0017286
-0.00172858
-0.00172856
-0.00172872
-0.00177861
-0.0017786
-0.0017786
-0.00177859
-0.00177859
-0.00177858
-0.00177857
-0.00177856
-0.00177855
-0.00177854
-0.00177853
-0.00177851
-0.0017785
-0.00177848
-0.00177846
-0.00177861
-0.00182849
-0.00182849
-0.00182849
-0.00182848
-0.00182847
-0.00182847
-0.00182846
-0.00182845
-0.00182844
-0.00182843
-0.00182842
-0.00182841
-0.00182839
-0.00182838
-0.00182836
-0.00182849
-0.00187838
-0.00187837
-0.00187837
-0.00187837
-0.00187836
-0.00187835
-0.00187835
-0.00187834
-0.00187833
-0.00187832
-0.00187831
-0.0018783
-0.00187829
-0.00187827
-0.00187826
-0.00187838
-0.00192826
-0.00192826
-0.00192825
-0.00192825
-0.00192825
-0.00192824
-0.00192823
-0.00192823
-0.00192822
-0.00192821
-0.0019282
-0.00192819
-0.00192817
-0.00192816
-0.00192815
-0.00192826
-0.00197814
-0.00197814
-0.00197814
-0.00197813
-0.00197813
-0.00197812
-0.00197812
-0.00197811
-0.0019781
-0.0019781
-0.00197809
-0.00197807
-0.00197806
-0.00197805
-0.00197804
-0.00197814
-0.00202802
-0.00202802
-0.00202801
-0.00202801
-0.00202801
-0.002028
-0.002028
-0.00202799
-0.00202799
-0.00202798
-0.00202797
-0.00202796
-0.00202795
-0.00202794
-0.00202792
-0.00202802
-0.0020779
-0.0020779
-0.00207789
-0.00207789
-0.00207788
-0.00207788
-0.00207788
-0.00207787
-0.00207787
-0.00207786
-0.00207785
-0.00207784
-0.00207783
-0.00207782
-0.00207781
-0.0020779
-0.00212777
-0.00212777
-0.00212777
-0.00212777
-0.00212776
-0.00212776
-0.00212775
-0.00212775
-0.00212774
-0.00212774
-0.00212773
-0.00212772
-0.00212772
-0.0021277
-0.00212769
-0.00212777
-0.00217765
-0.00217765
-0.00217764
-0.00217764
-0.00217764
-0.00217763
-0.00217763
-0.00217762
-0.00217762
-0.00217761
-0.00217761
-0.0021776
-0.00217759
-0.00217758
-0.00217757
-0.00217765
-0.00222752
-0.00222752
-0.00222752
-0.00222751
-0.00222751
-0.00222751
-0.0022275
-0.0022275
-0.00222749
-0.00222749
-0.00222748
-0.00222748
-0.00222747
-0.00222746
-0.00222745
-0.00222752
-0.00227739
-0.00227739
-0.00227739
-0.00227739
-0.00227738
-0.00227738
-0.00227738
-0.00227737
-0.00227737
-0.00227736
-0.00227736
-0.00227735
-0.00227734
-0.00227733
-0.00227732
-0.00227739
-0.00232726
-0.00232726
-0.00232725
-0.00232725
-0.00232725
-0.00232725
-0.00232725
-0.00232724
-0.00232724
-0.00232723
-0.00232723
-0.00232722
-0.00232721
-0.0023272
-0.00232719
-0.00232726
-0.00237712
-0.00237712
-0.00237712
-0.00237712
-0.00237712
-0.00237711
-0.00237711
-0.00237711
-0.00237711
-0.0023771
-0.0023771
-0.00237709
-0.00237708
-0.00237708
-0.00237707
-0.00237712
-0.00242698
-0.00242698
-0.00242698
-0.00242698
-0.00242698
-0.00242698
-0.00242698
-0.00242697
-0.00242697
-0.00242697
-0.00242696
-0.00242696
-0.00242695
-0.00242694
-0.00242694
-0.00242699
-0.00247685
-0.00247685
-0.00247684
-0.00247684
-0.00247684
-0.00247684
-0.00247684
-0.00247684
-0.00247683
-0.00247683
-0.00247683
-0.00247682
-0.00247682
-0.00247681
-0.0024768
-0.00247685
-0.00252671
-0.00252671
-0.0025267
-0.0025267
-0.0025267
-0.0025267
-0.0025267
-0.0025267
-0.0025267
-0.00252669
-0.00252669
-0.00252669
-0.00252668
-0.00252668
-0.00252667
-0.00252671
-0.00257657
-0.00257657
-0.00257656
-0.00257656
-0.00257656
-0.00257656
-0.00257656
-0.00257656
-0.00257656
-0.00257656
-0.00257655
-0.00257655
-0.00257655
-0.00257654
-0.00257654
-0.00257657
-0.00262642
-0.00262642
-0.00262642
-0.00262642
-0.00262642
-0.00262642
-0.00262642
-0.00262642
-0.00262642
-0.00262641
-0.00262641
-0.00262641
-0.00262641
-0.0026264
-0.0026264
-0.00262642
-0.00267628
-0.00267628
-0.00267628
-0.00267628
-0.00267628
-0.00267628
-0.00267628
-0.00267628
-0.00267627
-0.00267627
-0.00267627
-0.00267627
-0.00267627
-0.00267626
-0.00267626
-0.00267628
-0.00272613
-0.00272613
-0.00272613
-0.00272613
-0.00272613
-0.00272613
-0.00272613
-0.00272613
-0.00272613
-0.00272613
-0.00272613
-0.00272613
-0.00272612
-0.00272612
-0.00272612
-0.00272613
-0.00277599
-0.00277599
-0.00277599
-0.00277599
-0.00277599
-0.00277599
-0.00277599
-0.00277599
-0.00277599
-0.00277598
-0.00277598
-0.00277598
-0.00277598
-0.00277598
-0.00277597
-0.00277599
-0.00282584
-0.00282584
-0.00282584
-0.00282584
-0.00282584
-0.00282584
-0.00282584
-0.00282584
-0.00282584
-0.00282584
-0.00282584
-0.00282584
-0.00282583
-0.00282583
-0.00282583
-0.00282584
-0.00287569
-0.00287569
-0.00287569
-0.00287569
-0.00287569
-0.00287569
-0.00287569
-0.00287569
-0.00287568
-0.00287569
-0.00287569
-0.00287569
-0.00287569
-0.00287569
-0.00287568
-0.00287569
-0.00292554
-0.00292553
-0.00292554
-0.00292554
-0.00292554
-0.00292554
-0.00292554
-0.00292553
-0.00292554
-0.00292554
-0.00292554
-0.00292554
-0.00292554
-0.00292554
-0.00292553
-0.00292554
-0.00297539
-0.00297538
-0.00297539
-0.00297539
-0.00297539
-0.00297539
-0.00297539
-0.00297539
-0.00297539
-0.00297538
-0.00297539
-0.00297539
-0.00297538
-0.00297539
-0.00297539
-0.00297539
-0.00302523
-0.00302523
-0.00302523
-0.00302523
-0.00302523
-0.00302523
-0.00302523
-0.00302523
-0.00302523
-0.00302523
-0.00302523
-0.00302523
-0.00302523
-0.00302523
-0.00302523
-0.00302523
-0.00307507
-0.00307508
-0.00307507
-0.00307507
-0.00307508
-0.00307507
-0.00307508
-0.00307507
-0.00307507
-0.00307507
-0.00307508
-0.00307508
-0.00307507
-0.00307508
-0.00307507
-0.00307508
)
;

boundaryField
{
    wireUpstream
    {
        type            calculated;
        value           nonuniform List<scalar> 
16
(
-0.0031
-0.0031
-0.0031
-0.0031
-0.0031
-0.0031
-0.0031
-0.0031
-0.0031
-0.0031
-0.0031
-0.0031
-0.0031
-0.0031
-0.0031
-0.0031
)
;
    }
    wireDownstream
    {
        type            calculated;
        value           nonuniform List<scalar> 
16
(
0.003
0.003
0.003
0.003
0.003
0.003
0.003
0.003
0.003
0.003
0.003
0.003
0.003
0.003
0.003
0.003
)
;
    }
    wireTopContact
    {
        type            calculated;
        value           nonuniform List<scalar> 
122
(
0.00292023
0.00287022
0.00282022
0.00277022
0.00272022
0.00267021
0.00262021
0.00257021
0.00252021
0.00247021
0.00242021
0.00237021
0.00232021
0.00227021
0.00222021
0.00217022
0.00212022
0.00207023
0.00202024
0.00197025
0.00192026
0.00187027
0.00182029
0.0017703
0.00172032
0.00167033
0.00162035
0.00157037
0.00152039
0.00147041
0.00142043
0.00137045
0.00132047
0.0012705
0.00122052
0.00117054
0.00112056
0.00107058
0.0010206
0.000970622
0.000920639
0.000870652
0.000820662
0.000770668
0.000720669
0.000670664
0.000620653
0.000570635
0.000520609
0.000470577
0.000420541
0.000370501
0.000320463
0.000270429
0.000220401
0.000170382
0.000120377
7.03887e-05
2.04133e-05
-2.95582e-05
-7.95386e-05
-0.000129533
-0.00017954
-0.000229555
-0.000279576
-0.0003296
-0.000379623
-0.000429646
-0.000479666
-0.000529683
-0.000579696
-0.000629703
-0.000679706
-0.000729703
-0.000779694
-0.000829679
-0.000879658
-0.000929632
-0.000979599
-0.00102956
-0.00107952
-0.00112948
-0.00117942
-0.00122936
-0.0012793
-0.00132923
-0.00137916
-0.00142908
-0.001479
-0.00152892
-0.00157884
-0.00162875
-0.00167865
-0.00172855
-0.00177845
-0.00182835
-0.00187825
-0.00192814
-0.00197803
-0.00202792
-0.0020778
-0.00212768
-0.00217756
-0.00222744
-0.00227732
-0.00232719
-0.00237706
-0.00242693
-0.0024768
-0.00252667
-0.00257653
-0.00262639
-0.00267625
-0.00272611
-0.00277597
-0.00282583
-0.00287568
-0.00292553
-0.00297539
-0.00302523
-0.00307507
0.00297262
)
;
    }
    front
    {
        type            wedge;
    }
    back
    {
        type            wedge;
    }
}


// ************************************************************************* //
