/*--------------------------------*- C++ -*----------------------------------*\
| =========                 |                                                 |
| \\      /  F ield         | foam-extend: Open Source CFD                    |
|  \\    /   O peration     | Version:     4.1-20200408                       |
|   \\  /    A nd           | Web:         http://www.foam-extend.org         |
|    \\/     M anipulation  |                                                 |
\*---------------------------------------------------------------------------*/
FoamFile
{
    version     2.0;
    format      ascii;
    class       volSymmTensorField;
    location    "0.0420000";
    object      epsilonTrue;
}
// * * * * * * * * * * * * * * * * * * * * * * * * * * * * * * * * * * * * * //

dimensions      [0 0 0 0 0 0 0];

internalField   nonuniform List<symmTensor> 
1952
(
(0.033383 -0.00143435 -4.75898e-11 -0.017453 1.77935e-10 -0.0174723)
(0.0333874 -0.00241469 -2.25588e-11 -0.0174311 -5.08547e-10 -0.0174563)
(0.0333958 -0.00329605 3.07141e-11 -0.0173883 -1.3624e-09 -0.0174506)
(0.0334051 -0.00414704 8.56579e-11 -0.0173437 1.03176e-09 -0.0174286)
(0.0334182 -0.00493907 -3.57543e-11 -0.0172676 2.68527e-09 -0.0174147)
(0.0334316 -0.00561727 -1.80658e-10 -0.0171887 -1.1708e-10 -0.0173824)
(0.0334494 -0.00617821 -8.44122e-11 -0.0170711 -3.11459e-09 -0.0173579)
(0.0334679 -0.00655988 1.44849e-10 -0.0169372 -2.18874e-10 -0.0173126)
(0.0334891 -0.00675045 -1.21017e-11 -0.0167558 2.73325e-09 -0.0172723)
(0.03351 -0.00667919 -2.56645e-10 -0.0165172 -9.0421e-10 -0.0172088)
(0.0335331 -0.00623156 4.73845e-11 -0.016227 -2.76995e-09 -0.0171421)
(0.03355 -0.00542753 2.37387e-10 -0.0157952 6.96557e-10 -0.0170516)
(0.0335648 -0.0041775 -2.79471e-11 -0.0152859 2.71408e-09 -0.016941)
(0.0335736 -0.00260787 -1.8225e-10 -0.0145536 1.80131e-10 -0.0168057)
(0.0335759 -0.00115925 -1.28779e-10 -0.0140759 -9.12446e-10 -0.0166309)
(0.0333792 -0.000718554 -1.74031e-11 -0.0174762 -1.04723e-09 -0.0174605)
(0.0334582 -0.00143926 -7.24344e-11 -0.0174985 1.78404e-10 -0.0175177)
(0.0334622 -0.00242629 -3.99576e-11 -0.0174758 -5.09927e-10 -0.0175018)
(0.0334706 -0.00330833 4.83508e-11 -0.0174324 -1.36591e-09 -0.0174957)
(0.0334793 -0.00416527 1.37176e-10 -0.0173871 1.0346e-09 -0.0174735)
(0.0334924 -0.00495779 -5.32128e-11 -0.0173095 2.69218e-09 -0.0174592)
(0.0335049 -0.00563985 -2.65326e-10 -0.0172299 -1.17459e-10 -0.0174264)
(0.0335228 -0.00620194 -1.03268e-10 -0.0171103 -3.12255e-09 -0.0174015)
(0.0335402 -0.00658417 1.9346e-10 -0.0169757 -2.19581e-10 -0.0173554)
(0.0335618 -0.00677593 -2.27567e-11 -0.0167924 2.74e-09 -0.0173148)
(0.0335812 -0.00670125 -3.24598e-10 -0.0165525 -9.06142e-10 -0.0172505)
(0.0336045 -0.00625422 4.37385e-11 -0.0162614 -2.77654e-09 -0.0171834)
(0.0336205 -0.00544354 2.85389e-10 -0.015829 6.97984e-10 -0.0170921)
(0.0336352 -0.00419491 -3.47794e-11 -0.0153184 2.72051e-09 -0.0169811)
(0.0336426 -0.00261385 -2.47982e-10 -0.0145845 1.80766e-10 -0.016845)
(0.0336429 -0.00116392 -1.48471e-10 -0.0141067 -9.14765e-10 -0.0166698)
(0.0334544 -0.000722322 -2.35767e-11 -0.0175215 -1.04988e-09 -0.0175062)
(0.0335324 -0.00144305 -7.25652e-11 -0.0175408 1.78872e-10 -0.0175601)
(0.0335362 -0.00243288 -4.00093e-11 -0.0175178 -5.11166e-10 -0.0175442)
(0.0335445 -0.00331685 4.8424e-11 -0.0174738 -1.36923e-09 -0.0175379)
(0.0335527 -0.00417618 1.37311e-10 -0.017428 1.03709e-09 -0.0175154)
(0.0335658 -0.00497011 -5.32868e-11 -0.0173495 2.69868e-09 -0.0175009)
(0.0335776 -0.00565389 -2.65579e-10 -0.0172692 -1.17641e-10 -0.0174677)
(0.0335956 -0.0062171 -1.03658e-10 -0.0171485 -3.13003e-09 -0.0174426)
(0.033612 -0.00659998 1.93409e-10 -0.0170131 -2.20291e-10 -0.017396)
(0.0336338 -0.00679149 -2.27782e-11 -0.0168285 2.74643e-09 -0.0173552)
(0.0336516 -0.00671622 -3.2462e-10 -0.0165872 -9.0803e-10 -0.0172902)
(0.0336751 -0.0062676 4.40695e-11 -0.0162955 -2.78289e-09 -0.0172227)
(0.0336906 -0.00545436 2.85396e-10 -0.0158622 6.99437e-10 -0.0171309)
(0.033705 -0.00420382 -3.47771e-11 -0.0153502 2.72668e-09 -0.0170196)
(0.0337124 -0.00261863 -2.48278e-10 -0.0146152 1.8145e-10 -0.0168829)
(0.0337141 -0.00116635 -1.48619e-10 -0.0141381 -9.16877e-10 -0.0167072)
(0.0335286 -0.000724395 -2.363e-11 -0.017564 -1.05235e-09 -0.0175487)
(0.0336049 -0.0014466 -7.26976e-11 -0.0175816 1.79331e-10 -0.0176011)
(0.0336086 -0.00243904 -4.00517e-11 -0.0175585 -5.12345e-10 -0.017585)
(0.0336169 -0.00332486 4.84904e-11 -0.0175139 -1.37244e-09 -0.0175787)
(0.0336248 -0.00418639 1.37413e-10 -0.0174678 1.03947e-09 -0.0175559)
(0.0336379 -0.0049817 -5.33633e-11 -0.0173885 2.70498e-09 -0.0175413)
(0.0336493 -0.00566707 -2.65779e-10 -0.0173077 -1.17803e-10 -0.0175078)
(0.0336673 -0.00623138 -1.04065e-10 -0.017186 -3.1373e-09 -0.0174826)
(0.0336831 -0.00661484 1.93265e-10 -0.01705 -2.2098e-10 -0.0174355)
(0.0337051 -0.00680593 -2.28078e-11 -0.0168643 2.75269e-09 -0.0173945)
(0.0337212 -0.00673013 -3.24374e-10 -0.0166216 -9.09913e-10 -0.017329)
(0.033745 -0.00627993 4.44379e-11 -0.0163296 -2.78912e-09 -0.0172612)
(0.0337604 -0.00546413 2.85394e-10 -0.0158956 7.00921e-10 -0.0171689)
(0.0337747 -0.00421141 -3.47777e-11 -0.0153823 2.73275e-09 -0.0170572)
(0.0337821 -0.00262237 -2.48525e-10 -0.0146463 1.82055e-10 -0.0169201)
(0.0337846 -0.00116821 -1.48706e-10 -0.0141695 -9.18958e-10 -0.016744)
(0.0336012 -0.000726346 -2.36839e-11 -0.017605 -1.05472e-09 -0.0175896)
(0.0336758 -0.00144993 -7.28251e-11 -0.0176213 1.79777e-10 -0.017641)
(0.0336795 -0.00244483 -4.00911e-11 -0.017598 -5.13491e-10 -0.0176247)
(0.0336878 -0.00333242 4.85569e-11 -0.017553 -1.37556e-09 -0.0176183)
(0.0336954 -0.00419598 1.37485e-10 -0.0175065 1.04179e-09 -0.0175953)
(0.0337087 -0.00499264 -5.34435e-11 -0.0174266 2.71111e-09 -0.0175807)
(0.0337197 -0.00567945 -2.65937e-10 -0.0173454 -1.17998e-10 -0.0175468)
(0.0337379 -0.00624489 -1.0449e-10 -0.017223 -3.14435e-09 -0.0175214)
(0.0337533 -0.00662885 1.9301e-10 -0.0170863 -2.21543e-10 -0.0174741)
(0.0337758 -0.00681945 -2.28456e-11 -0.0168999 2.75881e-09 -0.0174328)
(0.0337915 -0.00674274 -3.23974e-10 -0.0166567 -9.11779e-10 -0.017367)
(0.0338146 -0.00629127 4.48028e-11 -0.0163638 -2.79521e-09 -0.017299)
(0.03383 -0.00547308 2.85392e-10 -0.0159288 7.02324e-10 -0.0172063)
(0.0338446 -0.00421819 -3.47812e-11 -0.0154147 2.73872e-09 -0.0170943)
(0.0338525 -0.00262568 -2.48734e-10 -0.0146779 1.82671e-10 -0.0169568)
(0.0338559 -0.00116993 -1.48784e-10 -0.0142015 -9.21017e-10 -0.0167804)
(0.0336721 -0.000728191 -2.37272e-11 -0.0176448 -1.05703e-09 -0.0176294)
(0.0337457 -0.00145309 -7.29551e-11 -0.01766 1.80212e-10 -0.0176798)
(0.0337493 -0.00245036 -4.0129e-11 -0.0176366 -5.14611e-10 -0.0176634)
(0.0337577 -0.00333962 4.86175e-11 -0.0175913 -1.37861e-09 -0.0176571)
(0.0337652 -0.00420513 1.37538e-10 -0.0175445 1.04407e-09 -0.0176339)
(0.0337786 -0.00500302 -5.35247e-11 -0.0174642 2.7171e-09 -0.0176191)
(0.0337893 -0.00569123 -2.66054e-10 -0.0173824 -1.18233e-10 -0.0175851)
(0.0338079 -0.00625766 -1.0493e-10 -0.0172596 -3.15124e-09 -0.0175595)
(0.033823 -0.00664217 1.92674e-10 -0.0171221 -2.21946e-10 -0.0175119)
(0.033846 -0.0068323 -2.28883e-11 -0.0169353 2.76482e-09 -0.0174704)
(0.0338625 -0.00675431 -3.23768e-10 -0.0166923 -9.13705e-10 -0.0174044)
(0.0338844 -0.00630164 4.51265e-11 -0.0163981 -2.8012e-09 -0.0173362)
(0.0338997 -0.00548126 2.85358e-10 -0.015962 7.03716e-10 -0.0172432)
(0.0339146 -0.0042244 -3.47855e-11 -0.0154472 2.74462e-09 -0.017131)
(0.0339229 -0.00262854 -2.48925e-10 -0.0147096 1.83264e-10 -0.0169931)
(0.033927 -0.00117155 -1.48856e-10 -0.0142336 -9.23058e-10 -0.0168164)
(0.033742 -0.000729965 -2.3783e-11 -0.0176837 -1.05927e-09 -0.0176682)
(0.0338148 -0.00145612 -7.30792e-11 -0.017698 1.80637e-10 -0.017718)
(0.0338183 -0.0024557 -4.01615e-11 -0.0176745 -5.15712e-10 -0.0177014)
(0.0338268 -0.0033465 4.86779e-11 -0.0176289 -1.3816e-09 -0.0176951)
(0.0338343 -0.00421395 1.37566e-10 -0.0175819 1.04633e-09 -0.0176717)
(0.033848 -0.00501294 -5.36093e-11 -0.0175013 2.72299e-09 -0.0176569)
(0.0338586 -0.00570255 -2.66136e-10 -0.017419 -1.18484e-10 -0.0176227)
(0.0338775 -0.00626981 -1.05387e-10 -0.017296 -3.15801e-09 -0.017597)
(0.0338926 -0.00665495 1.92269e-10 -0.0171577 -2.22307e-10 -0.0175493)
(0.0339159 -0.00684464 -2.2933e-11 -0.0169706 2.77075e-09 -0.0175076)
(0.033933 -0.00676529 -3.2376e-10 -0.0167278 -9.15656e-10 -0.0174414)
(0.0339543 -0.00631128 4.54191e-11 -0.0164324 -2.80716e-09 -0.0173731)
(0.0339698 -0.00548894 2.85315e-10 -0.0159955 7.05135e-10 -0.0172798)
(0.0339847 -0.00423028 -3.47914e-11 -0.0154798 2.75046e-09 -0.0171673)
(0.0339934 -0.00263126 -2.49109e-10 -0.0147415 1.83833e-10 -0.0170291)
(0.0339981 -0.00117314 -1.48927e-10 -0.0142657 -9.25084e-10 -0.0168522)
(0.033811 -0.000731685 -2.38299e-11 -0.0177218 -1.06148e-09 -0.0177063)
(0.0338833 -0.00145903 -7.32004e-11 -0.0177355 1.81055e-10 -0.0177556)
(0.0338869 -0.0024609 -4.01965e-11 -0.0177119 -5.16798e-10 -0.0177389)
(0.0338956 -0.00335316 4.87429e-11 -0.0176661 -1.38454e-09 -0.0177326)
(0.0339031 -0.00422251 1.37579e-10 -0.0176189 1.04856e-09 -0.0177091)
(0.033917 -0.00502254 -5.3698e-11 -0.0175381 2.7288e-09 -0.0176942)
(0.0339277 -0.00571357 -2.66197e-10 -0.0174554 -1.18747e-10 -0.0176599)
(0.033947 -0.00628163 -1.05858e-10 -0.0173322 -3.16469e-09 -0.0176341)
(0.0339621 -0.00666741 1.91853e-10 -0.0171933 -2.22671e-10 -0.0175863)
(0.0339856 -0.00685673 -2.29776e-11 -0.0170057 2.77663e-09 -0.0175443)
(0.034003 -0.006776 -3.23817e-10 -0.0167629 -9.17582e-10 -0.017478)
(0.0340241 -0.00632052 4.56956e-11 -0.0164667 -2.81307e-09 -0.0174096)
(0.0340397 -0.00549643 2.85283e-10 -0.0160291 7.06577e-10 -0.017316)
(0.0340548 -0.00423598 -3.4798e-11 -0.0155124 2.75627e-09 -0.0172034)
(0.0340638 -0.00263392 -2.49273e-10 -0.0147734 1.84386e-10 -0.0170648)
(0.034069 -0.00117473 -1.49002e-10 -0.0142978 -9.27097e-10 -0.0168877)
(0.0338796 -0.000733368 -2.389e-11 -0.0177594 -1.06365e-09 -0.0177439)
(0.0339515 -0.0014619 -7.33308e-11 -0.0177725 1.81467e-10 -0.0177927)
(0.0339551 -0.00246603 -4.02206e-11 -0.0177489 -5.17873e-10 -0.017776)
(0.033964 -0.00335971 4.88023e-11 -0.017703 -1.38745e-09 -0.0177697)
(0.0339715 -0.00423098 1.3758e-10 -0.0176555 1.05078e-09 -0.0177461)
(0.0339858 -0.005032 -5.37899e-11 -0.0175746 2.73456e-09 -0.0177312)
(0.0339965 -0.00572446 -2.66241e-10 -0.0174915 -1.19016e-10 -0.0176968)
(0.034016 -0.00629333 -1.06337e-10 -0.0173681 -3.17132e-09 -0.0176709)
(0.0340313 -0.00667974 1.9143e-10 -0.0172287 -2.23029e-10 -0.0176229)
(0.0340549 -0.00686875 -2.30252e-11 -0.0170405 2.78246e-09 -0.0175808)
(0.0340726 -0.00678651 -3.23909e-10 -0.0167977 -9.19455e-10 -0.0175143)
(0.0340938 -0.00632951 4.59629e-11 -0.016501 -2.81894e-09 -0.0174457)
(0.0341097 -0.00550375 2.85261e-10 -0.0160628 7.08024e-10 -0.017352)
(0.0341248 -0.00424157 -3.48041e-11 -0.0155452 2.76203e-09 -0.0172392)
(0.0341342 -0.00263655 -2.49449e-10 -0.0148055 1.8492e-10 -0.0171003)
(0.0341398 -0.0011763 -1.49075e-10 -0.0143299 -9.291e-10 -0.016923)
(0.0339477 -0.000735037 -2.39275e-11 -0.0177966 -1.06579e-09 -0.017781)
(0.0340194 -0.00146473 -7.34573e-11 -0.0178093 1.81876e-10 -0.0178296)
(0.0340231 -0.00247114 -4.02513e-11 -0.0177856 -5.18941e-10 -0.0178129)
(0.0340322 -0.00336621 4.88607e-11 -0.0177396 -1.39034e-09 -0.0178065)
(0.0340398 -0.0042394 1.37572e-10 -0.0176919 1.05298e-09 -0.0177829)
(0.0340543 -0.00504139 -5.38804e-11 -0.0176108 2.74027e-09 -0.0177679)
(0.0340651 -0.00573529 -2.6628e-10 -0.0175274 -1.19287e-10 -0.0177334)
(0.0340848 -0.00630495 -1.06824e-10 -0.0174037 -3.1779e-09 -0.0177073)
(0.0341002 -0.00669193 1.91017e-10 -0.0172638 -2.23393e-10 -0.0176593)
(0.0341239 -0.00688069 -2.30702e-11 -0.017075 2.78824e-09 -0.017617)
(0.034142 -0.00679692 -3.24031e-10 -0.0168323 -9.21303e-10 -0.0175504)
(0.0341634 -0.00633833 4.62331e-11 -0.0165354 -2.82478e-09 -0.0174817)
(0.0341796 -0.00551094 2.85245e-10 -0.0160965 7.09466e-10 -0.0173878)
(0.0341949 -0.00424703 -3.48115e-11 -0.015578 2.76777e-09 -0.0172748)
(0.0342047 -0.00263914 -2.49626e-10 -0.0148377 1.85438e-10 -0.0171357)
(0.0342105 -0.00117786 -1.4915e-10 -0.0143621 -9.31094e-10 -0.0169582)
(0.0340156 -0.000736701 -2.3992e-11 -0.0178335 -1.06792e-09 -0.0178179)
(0.0340873 -0.00146756 -7.35884e-11 -0.0178459 1.82282e-10 -0.0178662)
(0.034091 -0.00247626 -4.02814e-11 -0.0178221 -5.20002e-10 -0.0178494)
(0.0341002 -0.0033727 4.89228e-11 -0.017776 -1.3932e-09 -0.017843)
(0.0341079 -0.00424783 1.37559e-10 -0.0177281 1.05518e-09 -0.0178194)
(0.0341226 -0.00505077 -5.39749e-11 -0.0176468 2.74595e-09 -0.0178043)
(0.0341335 -0.0057461 -2.66312e-10 -0.017563 -1.19554e-10 -0.0177698)
(0.0341535 -0.00631654 -1.07316e-10 -0.0174391 -3.18444e-09 -0.0177436)
(0.034169 -0.00670408 1.90602e-10 -0.0172988 -2.23771e-10 -0.0176955)
(0.0341929 -0.00689257 -2.31173e-11 -0.0171095 2.79399e-09 -0.017653)
(0.0342113 -0.00680726 -3.2416e-10 -0.0168669 -9.23142e-10 -0.0175862)
(0.034233 -0.00634709 4.65023e-11 -0.0165696 -2.83059e-09 -0.0175174)
(0.0342494 -0.00551808 2.85239e-10 -0.0161302 7.109e-10 -0.0174234)
(0.034265 -0.00425246 -3.48186e-11 -0.0156109 2.77348e-09 -0.0173103)
(0.034275 -0.00264175 -2.49812e-10 -0.0148699 1.85949e-10 -0.0171709)
(0.0342812 -0.00117941 -1.49225e-10 -0.0143943 -9.33081e-10 -0.0169932)
(0.0340834 -0.000738371 -2.4036e-11 -0.0178701 -1.07003e-09 -0.0178545)
(0.034155 -0.0014704 -7.37245e-11 -0.0178823 1.82686e-10 -0.0179027)
(0.0341588 -0.00248141 -4.03065e-11 -0.0178584 -5.21058e-10 -0.0178858)
(0.0341681 -0.00337923 4.89854e-11 -0.0178122 -1.39606e-09 -0.0178794)
(0.0341759 -0.0042563 1.37539e-10 -0.0177641 1.05736e-09 -0.0178557)
(0.0341907 -0.00506018 -5.40722e-11 -0.0176826 2.7516e-09 -0.0178405)
(0.0342017 -0.00575694 -2.66345e-10 -0.0175985 -1.19816e-10 -0.0178059)
(0.0342219 -0.00632817 -1.07812e-10 -0.0174743 -3.19095e-09 -0.0177796)
(0.0342376 -0.00671623 1.90194e-10 -0.0173336 -2.24157e-10 -0.0177314)
(0.0342618 -0.00690449 -2.31647e-11 -0.0171438 2.79972e-09 -0.0176888)
(0.0342805 -0.00681763 -3.24299e-10 -0.0169013 -9.24964e-10 -0.0176219)
(0.0343025 -0.00635585 4.67713e-11 -0.0166039 -2.83638e-09 -0.017553)
(0.0343192 -0.0055252 2.85238e-10 -0.0161639 7.12327e-10 -0.0174588)
(0.034335 -0.00425787 -3.48265e-11 -0.0156438 2.77916e-09 -0.0173456)
(0.0343453 -0.00264435 -2.5e-10 -0.0149022 1.86455e-10 -0.017206)
(0.0343517 -0.00118096 -1.49301e-10 -0.0144266 -9.35062e-10 -0.0170281)
(0.0341511 -0.000740055 -2.41035e-11 -0.0179066 -1.07213e-09 -0.0178909)
(0.0342225 -0.00147327 -7.38509e-11 -0.0179184 1.83088e-10 -0.0179389)
(0.0342264 -0.00248663 -4.03349e-11 -0.0178945 -5.22109e-10 -0.017922)
(0.0342358 -0.0033858 4.9048e-11 -0.0178481 -1.39889e-09 -0.0179155)
(0.0342437 -0.00426484 1.37518e-10 -0.0177998 1.05953e-09 -0.0178918)
(0.0342587 -0.00506967 -5.41693e-11 -0.0177182 2.75721e-09 -0.0178766)
(0.0342699 -0.00576784 -2.66374e-10 -0.0176338 -1.20074e-10 -0.0178419)
(0.0342903 -0.00633987 -1.0831e-10 -0.0175094 -3.19742e-09 -0.0178155)
(0.0343062 -0.00672843 1.89782e-10 -0.0173684 -2.24547e-10 -0.0177672)
(0.0343306 -0.00691647 -2.32122e-11 -0.0171781 2.80541e-09 -0.0177245)
(0.0343496 -0.00682806 -3.24437e-10 -0.0169358 -9.26779e-10 -0.0176574)
(0.0343719 -0.00636467 4.70419e-11 -0.0166381 -2.84214e-09 -0.0175885)
(0.0343889 -0.00553237 2.85244e-10 -0.0161976 7.13748e-10 -0.0174942)
(0.0344051 -0.00426331 -3.4834e-11 -0.0156768 2.78483e-09 -0.0173807)
(0.0344156 -0.00264697 -2.50198e-10 -0.0149345 1.86956e-10 -0.017241)
(0.0344222 -0.00118251 -1.49379e-10 -0.0144589 -9.37038e-10 -0.017063)
(0.0342186 -0.000741755 -2.41485e-11 -0.0179428 -1.07422e-09 -0.0179271)
(0.0342899 -0.00147617 -7.39865e-11 -0.0179544 1.83488e-10 -0.0179749)
(0.0342939 -0.0024919 -4.0364e-11 -0.0179304 -5.23154e-10 -0.017958)
(0.0343034 -0.00339245 4.91089e-11 -0.0178839 -1.40171e-09 -0.0179515)
(0.0343113 -0.00427347 1.37492e-10 -0.0178354 1.06169e-09 -0.0179277)
(0.0343266 -0.00507925 -5.42669e-11 -0.0177537 2.7628e-09 -0.0179124)
(0.0343378 -0.00577884 -2.66405e-10 -0.017669 -1.2033e-10 -0.0178777)
(0.0343585 -0.00635169 -1.08813e-10 -0.0175444 -3.20387e-09 -0.0178512)
(0.0343747 -0.00674074 1.89371e-10 -0.0174031 -2.24941e-10 -0.0178028)
(0.0343994 -0.00692856 -2.32611e-11 -0.0172124 2.81109e-09 -0.01776)
(0.0344187 -0.00683861 -3.24582e-10 -0.0169702 -9.28583e-10 -0.0176928)
(0.0344413 -0.00637359 4.73142e-11 -0.0166723 -2.84788e-09 -0.0176238)
(0.0344586 -0.00553962 2.85253e-10 -0.0162313 7.15163e-10 -0.0175294)
(0.0344751 -0.00426881 -3.48429e-11 -0.0157098 2.79048e-09 -0.0174158)
(0.0344859 -0.00264964 -2.50399e-10 -0.0149669 1.87455e-10 -0.0172759)
(0.0344926 -0.00118409 -1.4946e-10 -0.0144913 -9.39009e-10 -0.0170977)
(0.0342859 -0.000743473 -2.42064e-11 -0.0179788 -1.07629e-09 -0.0179631)
(0.034357 -0.00147912 -7.41184e-11 -0.0179902 1.83885e-10 -0.0180108)
(0.0343611 -0.00249725 -4.03927e-11 -0.0179661 -5.24193e-10 -0.0179938)
(0.0343707 -0.00339919 4.91686e-11 -0.0179195 -1.40452e-09 -0.0179873)
(0.0343788 -0.00428222 1.37464e-10 -0.0178709 1.06384e-09 -0.0179634)
(0.0343942 -0.00508896 -5.43686e-11 -0.017789 2.76836e-09 -0.0179481)
(0.0344057 -0.00578998 -2.66432e-10 -0.0177041 -1.20583e-10 -0.0179133)
(0.0344266 -0.00636367 -1.09322e-10 -0.0175793 -3.21028e-09 -0.0178867)
(0.0344431 -0.00675321 1.88959e-10 -0.0174377 -2.25335e-10 -0.0178383)
(0.0344681 -0.00694082 -2.33105e-11 -0.0172466 2.81674e-09 -0.0177953)
(0.0344877 -0.00684932 -3.24726e-10 -0.0170046 -9.30381e-10 -0.017728)
(0.0345107 -0.00638268 4.75882e-11 -0.0167065 -2.8536e-09 -0.017659)
(0.0345284 -0.00554702 2.85266e-10 -0.0162651 7.16575e-10 -0.0175644)
(0.0345451 -0.00427444 -3.48502e-11 -0.0157428 2.79612e-09 -0.0174508)
(0.0345561 -0.00265238 -2.50605e-10 -0.0149993 1.87949e-10 -0.0173107)
(0.034563 -0.00118569 -1.49544e-10 -0.0145237 -9.40976e-10 -0.0171323)
(0.034353 -0.000745211 -2.42593e-11 -0.0180147 -1.07836e-09 -0.0179989)
(0.0344238 -0.00148211 -7.42538e-11 -0.0180257 1.8428e-10 -0.0180464)
(0.0344279 -0.00250268 -4.04203e-11 -0.0180016 -5.25224e-10 -0.0180293)
(0.0344377 -0.00340604 4.92324e-11 -0.0179549 -1.40731e-09 -0.0180228)
(0.0344459 -0.0042911 1.37435e-10 -0.0179062 1.06597e-09 -0.0179989)
(0.0344616 -0.00509883 -5.44682e-11 -0.0178242 2.77389e-09 -0.0179835)
(0.0344733 -0.0058013 -2.66463e-10 -0.0177391 -1.20837e-10 -0.0179487)
(0.0344946 -0.00637585 -1.09835e-10 -0.0176142 -3.21667e-09 -0.0179221)
(0.0345114 -0.00676589 1.88545e-10 -0.0174723 -2.25727e-10 -0.0178736)
(0.0345368 -0.00695331 -2.336e-11 -0.0172808 2.82236e-09 -0.0178305)
(0.0345567 -0.00686025 -3.24873e-10 -0.017039 -9.32167e-10 -0.0177631)
(0.0345801 -0.00639197 4.78648e-11 -0.0167408 -2.8593e-09 -0.0176941)
(0.0345981 -0.0055546 2.85283e-10 -0.0162989 7.17982e-10 -0.0175994)
(0.0346152 -0.0042802 -3.48594e-11 -0.0157759 2.80174e-09 -0.0174857)
(0.0346264 -0.0026552 -2.50816e-10 -0.0150318 1.88439e-10 -0.0173454)
(0.0346334 -0.00118732 -1.49634e-10 -0.0145561 -9.42939e-10 -0.0171669)
(0.0344198 -0.000746973 -2.43237e-11 -0.0180503 -1.08041e-09 -0.0180345)
(0.0344902 -0.00148516 -7.43978e-11 -0.0180611 1.84672e-10 -0.0180817)
(0.0344944 -0.00250822 -4.04504e-11 -0.0180368 -5.26249e-10 -0.0180647)
(0.0345044 -0.00341301 4.9297e-11 -0.0179901 -1.41008e-09 -0.0180581)
(0.0345128 -0.00430015 1.37406e-10 -0.0179412 1.06809e-09 -0.0180342)
(0.0345288 -0.00510891 -5.45727e-11 -0.0178592 2.77938e-09 -0.0180188)
(0.0345408 -0.00581282 -2.66497e-10 -0.017774 -1.21091e-10 -0.0179839)
(0.0345624 -0.00638827 -1.10353e-10 -0.0176489 -3.22301e-09 -0.0179572)
(0.0345795 -0.00677881 1.88135e-10 -0.0175068 -2.26115e-10 -0.0179087)
(0.0346053 -0.00696603 -2.34098e-11 -0.017315 2.82796e-09 -0.0178656)
(0.0346257 -0.00687143 -3.25025e-10 -0.0170734 -9.33946e-10 -0.0177981)
(0.0346496 -0.00640149 4.81449e-11 -0.0167751 -2.86498e-09 -0.017729)
(0.0346679 -0.00556239 2.85303e-10 -0.0163328 7.19387e-10 -0.0176343)
(0.0346854 -0.00428613 -3.4868e-11 -0.0158092 2.80735e-09 -0.0175205)
(0.0346968 -0.00265814 -2.51037e-10 -0.0150643 1.88921e-10 -0.0173801)
(0.0347039 -0.001189 -1.49728e-10 -0.0145886 -9.44899e-10 -0.0172014)
(0.0344861 -0.000748762 -2.43709e-11 -0.0180856 -1.08244e-09 -0.0180698)
(0.0345561 -0.00148828 -7.45381e-11 -0.0180961 1.85061e-10 -0.0181168)
(0.0345605 -0.00251388 -4.04801e-11 -0.0180718 -5.27266e-10 -0.0180997)
(0.0345706 -0.00342014 4.93645e-11 -0.0180251 -1.41282e-09 -0.0180931)
(0.0345793 -0.0043094 1.37376e-10 -0.0179761 1.0702e-09 -0.0180692)
(0.0345957 -0.00511921 -5.46778e-11 -0.017894 2.78483e-09 -0.0180538)
(0.034608 -0.00582461 -2.66535e-10 -0.0178087 -1.21349e-10 -0.0180189)
(0.03463 -0.00640098 -1.1088e-10 -0.0176836 -3.22932e-09 -0.0179922)
(0.0346476 -0.00679201 1.87729e-10 -0.0175413 -2.26498e-10 -0.0179437)
(0.0346738 -0.00697906 -2.34605e-11 -0.0173491 2.83354e-09 -0.0179004)
(0.0346947 -0.00688292 -3.25185e-10 -0.0171078 -9.35711e-10 -0.0178329)
(0.0347191 -0.0064113 4.84299e-11 -0.0168095 -2.87063e-09 -0.0177638)
(0.0347378 -0.00557044 2.85324e-10 -0.0163667 7.20781e-10 -0.017669)
(0.0347557 -0.00429229 -3.48758e-11 -0.0158425 2.81293e-09 -0.0175552)
(0.0347672 -0.00266123 -2.51264e-10 -0.015097 1.894e-10 -0.0174146)
(0.0347744 -0.00119074 -1.4983e-10 -0.0146212 -9.46854e-10 -0.0172358)
(0.034552 -0.000750585 -2.44392e-11 -0.0181207 -1.08446e-09 -0.0181049)
(0.0346214 -0.00149147 -7.46819e-11 -0.0181309 1.85446e-10 -0.0181516)
(0.034626 -0.00251969 -4.05109e-11 -0.0181066 -5.28274e-10 -0.0181345)
(0.0346364 -0.00342745 4.94279e-11 -0.0180598 -1.41555e-09 -0.0181279)
(0.0346453 -0.00431888 1.37344e-10 -0.0180108 1.0723e-09 -0.018104)
(0.0346621 -0.00512979 -5.4785e-11 -0.0179287 2.79025e-09 -0.0180885)
(0.0346748 -0.00583668 -2.66581e-10 -0.0178433 -1.21611e-10 -0.0180537)
(0.0346973 -0.00641402 -1.11411e-10 -0.0177181 -3.23559e-09 -0.0180269)
(0.0347154 -0.00680554 1.8734e-10 -0.0175757 -2.26877e-10 -0.0179784)
(0.0347421 -0.00699243 -2.35122e-11 -0.0173832 2.83908e-09 -0.0179351)
(0.0347635 -0.00689483 -3.25356e-10 -0.0171422 -9.3747e-10 -0.0178675)
(0.0347885 -0.0064215 4.87189e-11 -0.0168438 -2.87627e-09 -0.0177984)
(0.0348076 -0.00557886 2.8535e-10 -0.0164007 7.22171e-10 -0.0177036)
(0.034826 -0.00429872 -3.48836e-11 -0.0158759 2.8185e-09 -0.0175897)
(0.0348377 -0.00266449 -2.51492e-10 -0.0151297 1.89878e-10 -0.017449)
(0.034845 -0.00119255 -1.4994e-10 -0.0146538 -9.48804e-10 -0.0172701)
(0.0346172 -0.000752448 -2.45005e-11 -0.0181555 -1.08646e-09 -0.0181396)
(0.0346861 -0.00149477 -7.48327e-11 -0.0181653 1.85828e-10 -0.018186)
(0.0346908 -0.00252568 -4.0541e-11 -0.018141 -5.29273e-10 -0.0181689)
(0.0347016 -0.00343499 4.94991e-11 -0.0180943 -1.41825e-09 -0.0181624)
(0.0347108 -0.00432865 1.37312e-10 -0.0180452 1.07437e-09 -0.0181385)
(0.0347281 -0.00514071 -5.48973e-11 -0.0179632 2.79562e-09 -0.018123)
(0.0347412 -0.00584912 -2.66638e-10 -0.0178777 -1.21877e-10 -0.0180882)
(0.0347643 -0.0064275 -1.1195e-10 -0.0177525 -3.24181e-09 -0.0180614)
(0.034783 -0.00681948 1.8697e-10 -0.01761 -2.27244e-10 -0.0180129)
(0.0348101 -0.00700623 -2.3563e-11 -0.0174172 2.84459e-09 -0.0179696)
(0.0348322 -0.00690717 -3.25524e-10 -0.0171766 -9.39205e-10 -0.0179019)
(0.0348579 -0.00643211 4.90145e-11 -0.0168782 -2.88187e-09 -0.0178329)
(0.0348775 -0.00558764 2.85377e-10 -0.0164348 7.23551e-10 -0.017738)
(0.0348965 -0.00430545 -3.48924e-11 -0.0159093 2.82405e-09 -0.0176241)
(0.0349085 -0.00266794 -2.51727e-10 -0.0151625 1.90355e-10 -0.0174833)
(0.034916 -0.00119444 -1.50059e-10 -0.0146867 -9.50748e-10 -0.0173043)
(0.0346818 -0.00075436 -2.45488e-11 -0.01819 -1.08844e-09 -0.0181741)
(0.0347499 -0.00149817 -7.49879e-11 -0.0181994 1.86206e-10 -0.0182201)
(0.0347548 -0.00253187 -4.05764e-11 -0.0181751 -5.30261e-10 -0.018203)
(0.034766 -0.00344278 4.95674e-11 -0.0181285 -1.42092e-09 -0.0181965)
(0.0347755 -0.00433875 1.37278e-10 -0.0180793 1.07644e-09 -0.0181726)
(0.0347934 -0.00515201 -5.50097e-11 -0.0179975 2.80094e-09 -0.0181571)
(0.0348071 -0.00586196 -2.66706e-10 -0.0179119 -1.22154e-10 -0.0181224)
(0.0348308 -0.00644142 -1.12494e-10 -0.0177868 -3.24797e-09 -0.0180955)
(0.0348502 -0.00683382 1.86642e-10 -0.0176443 -2.27588e-10 -0.0180471)
(0.0348778 -0.00702046 -2.36143e-11 -0.0174511 2.85006e-09 -0.0180038)
(0.0349007 -0.00692003 -3.25721e-10 -0.017211 -9.4093e-10 -0.0179361)
(0.0349272 -0.00644316 4.93173e-11 -0.0169127 -2.88744e-09 -0.0178672)
(0.0349475 -0.00559681 2.85403e-10 -0.016469 7.24929e-10 -0.0177723)
(0.0349672 -0.00431248 -3.49007e-11 -0.015943 2.82957e-09 -0.0176584)
(0.0349794 -0.00267157 -2.51965e-10 -0.0151956 1.90826e-10 -0.0175175)
(0.0349873 -0.00119641 -1.50188e-10 -0.0147197 -9.52687e-10 -0.0173384)
(0.0347456 -0.00075633 -2.46294e-11 -0.0182241 -1.0904e-09 -0.0182082)
(0.0348128 -0.00150169 -7.51508e-11 -0.0182331 1.8658e-10 -0.0182538)
(0.034818 -0.00253828 -4.06086e-11 -0.0182088 -5.31237e-10 -0.0182367)
(0.0348295 -0.00345084 4.96399e-11 -0.0181623 -1.42356e-09 -0.0182302)
(0.0348395 -0.00434921 1.37241e-10 -0.0181132 1.07847e-09 -0.0182064)
(0.0348581 -0.00516373 -5.51294e-11 -0.0180315 2.80621e-09 -0.0181909)
(0.0348724 -0.00587525 -2.66788e-10 -0.0179459 -1.22427e-10 -0.0181562)
(0.0348968 -0.00645588 -1.13045e-10 -0.017821 -3.25407e-09 -0.0181294)
(0.0349172 -0.00684861 1.86364e-10 -0.0176785 -2.2792e-10 -0.0180811)
(0.034945 -0.00703515 -2.36646e-11 -0.0174849 2.85548e-09 -0.0180377)
(0.034969 -0.00693344 -3.25913e-10 -0.0172454 -9.42638e-10 -0.01797)
(0.0349966 -0.00645475 4.96313e-11 -0.0169473 -2.89298e-09 -0.0179012)
(0.0350175 -0.0056064 2.85433e-10 -0.0165033 7.26308e-10 -0.0178063)
(0.0350381 -0.00431987 -3.49087e-11 -0.0159768 2.83506e-09 -0.0176924)
(0.0350507 -0.00267541 -2.52209e-10 -0.0152289 1.91293e-10 -0.0175515)
(0.035059 -0.00119845 -1.50329e-10 -0.014753 -9.5462e-10 -0.0173724)
(0.0348083 -0.000758361 -2.46898e-11 -0.0182578 -1.09233e-09 -0.0182418)
(0.0348746 -0.00150533 -7.53099e-11 -0.0182664 1.8695e-10 -0.0182871)
(0.0348801 -0.00254493 -4.06399e-11 -0.0182421 -5.32199e-10 -0.01827)
(0.0348921 -0.0034592 4.97117e-11 -0.0181958 -1.42617e-09 -0.0182635)
(0.0349026 -0.00436007 1.37197e-10 -0.0181466 1.08049e-09 -0.0182397)
(0.034922 -0.00517592 -5.52521e-11 -0.0180652 2.81141e-09 -0.0182243)
(0.0349369 -0.00588911 -2.6688e-10 -0.0179796 -1.22709e-10 -0.0181897)
(0.0349623 -0.00647093 -1.13608e-10 -0.017855 -3.2601e-09 -0.0181629)
(0.0349837 -0.00686394 1.86177e-10 -0.0177125 -2.28205e-10 -0.0181147)
(0.0350118 -0.00705035 -2.37113e-11 -0.0175186 2.86086e-09 -0.0180714)
(0.035037 -0.00694743 -3.26137e-10 -0.0172798 -9.44362e-10 -0.0180037)
(0.035066 -0.00646688 4.99639e-11 -0.016982 -2.89849e-09 -0.0179349)
(0.0350878 -0.00561639 2.85454e-10 -0.0165378 7.27697e-10 -0.0178401)
(0.0351093 -0.00432761 -3.49171e-11 -0.0160108 2.84052e-09 -0.0177263)
(0.0351226 -0.00267943 -2.52456e-10 -0.0152625 1.91751e-10 -0.0175853)
(0.0351313 -0.0012006 -1.50484e-10 -0.0147866 -9.56548e-10 -0.0174062)
(0.03487 -0.00076046 -2.47579e-11 -0.0182911 -1.09424e-09 -0.0182751)
(0.0349352 -0.0015091 -7.54861e-11 -0.0182992 1.87316e-10 -0.01832)
(0.034941 -0.00255183 -4.06746e-11 -0.018275 -5.33146e-10 -0.0183028)
(0.0349536 -0.00346785 4.97897e-11 -0.0182288 -1.42875e-09 -0.0182964)
(0.0349645 -0.00437135 1.37141e-10 -0.0181797 1.08246e-09 -0.0182727)
(0.0349849 -0.00518853 -5.53805e-11 -0.0180985 2.81655e-09 -0.0182572)
(0.0350006 -0.00590351 -2.66976e-10 -0.018013 -1.22953e-10 -0.0182228)
(0.0350272 -0.00648652 -1.14181e-10 -0.0178886 -3.26607e-09 -0.018196)
(0.0350499 -0.00687981 1.86104e-10 -0.0177464 -2.28594e-10 -0.0181479)
(0.0350792 -0.00706577 -2.3758e-11 -0.017553 2.86619e-09 -0.0181047)
(0.0351049 -0.00696193 -3.26342e-10 -0.0173143 -9.46216e-10 -0.0180372)
(0.0351354 -0.00647954 5.03166e-11 -0.0170166 -2.90399e-09 -0.0179685)
(0.0351583 -0.0056268 2.85488e-10 -0.0165726 7.29123e-10 -0.0178738)
(0.0351809 -0.00433572 -3.49265e-11 -0.016045 2.84596e-09 -0.01776)
(0.0351949 -0.00268371 -2.52724e-10 -0.0152964 1.92187e-10 -0.0176191)
(0.0352041 -0.00120285 -1.50651e-10 -0.0148204 -9.5847e-10 -0.01744)
(0.0349305 -0.000762631 -2.48326e-11 -0.018324 -1.09613e-09 -0.0183079)
(0.0349945 -0.00151298 -7.56588e-11 -0.0183316 1.87679e-10 -0.0183524)
(0.0350006 -0.00255895 -4.07069e-11 -0.0183076 -5.34078e-10 -0.0183352)
(0.0350139 -0.00347676 4.98703e-11 -0.0182614 -1.4313e-09 -0.0183289)
(0.0350254 -0.00438297 1.37081e-10 -0.0182124 1.08439e-09 -0.0183052)
(0.0350468 -0.00520158 -5.55173e-11 -0.0181315 2.82163e-09 -0.0182899)
(0.0350635 -0.00591836 -2.67081e-10 -0.0180463 -1.23146e-10 -0.0182555)
(0.0350914 -0.0065027 -1.14773e-10 -0.017922 -3.27203e-09 -0.0182288)
(0.0351155 -0.00689639 1.85975e-10 -0.0177803 -2.29133e-10 -0.0181808)
(0.0351471 -0.00708163 -2.38154e-11 -0.0175879 2.87148e-09 -0.0181377)
(0.0351727 -0.00697695 -3.26391e-10 -0.0173489 -9.48116e-10 -0.0180704)
(0.0352048 -0.00649285 5.06842e-11 -0.0170512 -2.90947e-09 -0.0180018)
(0.0352289 -0.00563788 2.85539e-10 -0.0166074 7.3055e-10 -0.0179073)
(0.0352528 -0.00434431 -3.49358e-11 -0.0160793 2.85137e-09 -0.0177936)
(0.0352677 -0.00268832 -2.53008e-10 -0.0153306 1.92623e-10 -0.0176527)
(0.0352777 -0.00120522 -1.50836e-10 -0.0148546 -9.60388e-10 -0.0174736)
(0.0349897 -0.000764865 -2.48916e-11 -0.0183564 -1.09798e-09 -0.0183403)
(0.0350524 -0.00151696 -7.58468e-11 -0.0183636 1.88038e-10 -0.0183845)
(0.0350589 -0.0025663 -4.07442e-11 -0.0183397 -5.34998e-10 -0.0183673)
(0.0350729 -0.00348597 4.99549e-11 -0.0182936 -1.43381e-09 -0.018361)
(0.0350851 -0.00439495 1.37016e-10 -0.0182449 1.08629e-09 -0.0183373)
(0.0351077 -0.00521511 -5.56598e-11 -0.0181641 2.82666e-09 -0.0183221)
(0.0351255 -0.00593369 -2.67204e-10 -0.0180793 -1.2333e-10 -0.0182878)
(0.0351549 -0.00651956 -1.15382e-10 -0.0179552 -3.27793e-09 -0.0182613)
(0.0351805 -0.00691371 1.85789e-10 -0.0178141 -2.29673e-10 -0.0182134)
(0.0352143 -0.00709819 -2.38823e-11 -0.0176226 2.87672e-09 -0.0181705)
(0.0352406 -0.00699255 -3.26329e-10 -0.0173835 -9.49945e-10 -0.0181035)
(0.0352744 -0.00650684 5.10621e-11 -0.017086 -2.91491e-09 -0.018035)
(0.0352997 -0.00564964 2.8559e-10 -0.0166424 7.31958e-10 -0.0179406)