/*--------------------------------*- C++ -*----------------------------------*\
| =========                 |                                                 |
| \\      /  F ield         | OpenFOAM: The Open Source CFD Toolbox           |
|  \\    /   O peration     | Version:  4.1                                   |
|   \\  /    A nd           | Web:      www.OpenFOAM.org                      |
|    \\/     M anipulation  |                                                 |
\*---------------------------------------------------------------------------*/
FoamFile
{
    version     2.0;
    format      ascii;
    class       volVectorField;
    location    "0.000030";
    object      wallShearStress;
}
// * * * * * * * * * * * * * * * * * * * * * * * * * * * * * * * * * * * * * //

dimensions      [0 2 -2 0 0 0 0];

internalField   uniform (0 0 0);

boundaryField
{
    inlet
    {
        type            calculated;
        value           uniform (0 0 0);
    }
    outlet
    {
        type            calculated;
        value           nonuniform 0();
    }
    mantle
    {
        type            calculated;
        value           nonuniform List<vector> 
768
(
(-0.026344001 0.00038552456 -4.8228295e-05)
(-0.024609714 0.00054998283 -0.00016597215)
(-0.023718342 0.00044371595 -0.00023652819)
(-0.023273686 0.00056288062 -0.00028618684)
(-0.024334953 0.00014007333 -0.00016669239)
(-0.023880849 0.00030214185 -0.00044380458)
(-0.025895336 9.087142e-05 -0.00022904647)
(-0.028065464 -0.00012631384 -3.4217442e-06)
(-0.022851762 -0.00044794138 2.8842913e-05)
(-0.021845744 -0.00021249702 6.6323719e-05)
(-0.021325983 -0.00018415931 7.2969491e-05)
(-0.021161814 -3.4385535e-05 0.00011127068)
(-0.021386365 -0.00019846109 0.000292934)
(-0.021914306 -2.4880782e-05 0.00011716654)
(-0.022769107 -0.00012971643 0.00040310408)
(-0.024249285 -0.00010988241 0.00076566891)
(-0.022176943 -0.00026262065 1.9506106e-05)
(-0.021328672 -0.0001424973 8.160475e-05)
(-0.020863178 -0.00010630298 8.2510256e-05)
(-0.020724307 -5.9992756e-05 0.00011746919)
(-0.020904492 -6.5268376e-05 0.00017246242)
(-0.021300415 -4.3366594e-05 0.00019322965)
(-0.022093745 -7.6029136e-05 0.00025662197)
(-0.023276688 -4.0856258e-05 0.0004511499)
(-0.021137345 -0.00026318698 -5.4607213e-06)
(-0.020384045 -0.00023232022 9.210232e-05)
(-0.019986791 -0.00019915992 0.00013186437)
(-0.019872311 -0.00016104016 0.00018325327)
(-0.020021304 -0.00013146042 0.00023256918)
(-0.020413726 -8.272997e-05 0.00024590298)
(-0.021111961 -7.2892372e-05 0.00028716351)
(-0.02217661 1.8712932e-06 0.0003494531)
(-0.020304985 -0.00019261907 -1.8483014e-05)
(-0.01961107 -0.00019532742 7.8480872e-05)
(-0.019246789 -0.00017483004 0.00011878282)
(-0.019143222 -0.00015256914 0.00016479955)
(-0.019276438 -0.00012302456 0.00020220759)
(-0.019644797 -8.4754652e-05 0.00022106204)
(-0.020285189 -6.1074362e-05 0.00024586896)
(-0.021259198 2.124572e-05 0.00025730542)
(-0.019526528 -0.00017261263 -2.1842271e-05)
(-0.018886784 -0.00018824118 7.5159885e-05)
(-0.018548568 -0.00017217116 0.00011819163)
(-0.018450691 -0.00015535151 0.00016366825)
(-0.018570642 -0.00012649167 0.00019952713)
(-0.018910735 -9.003445e-05 0.00022069897)
(-0.019498754 -5.7766739e-05 0.00024298246)
(-0.020388468 2.7619242e-05 0.00023512673)
(-0.018771088 -0.00017562253 -1.9037051e-05)
(-0.018181255 -0.00019430139 7.8287966e-05)
(-0.017866664 -0.00017931251 0.00012464383)
(-0.017772497 -0.00016405995 0.00017211815)
(-0.017879432 -0.00013443145 0.00021045812)
(-0.018189893 -9.6356641e-05 0.00023513602)
(-0.018727136 -5.8090888e-05 0.0002580745)
(-0.019535501 2.6790312e-05 0.00024521448)
(-0.018036211 -0.00018973397 -1.2905489e-05)
(-0.017495341 -0.00020620376 8.4673044e-05)
(-0.017203069 -0.0001900233 0.00013453549)
(-0.01711165 -0.00017371089 0.00018433289)
(-0.017204306 -0.00014290032 0.00022596471)
(-0.017483941 -0.00010312355 0.00025466254)
(-0.017970342 -6.0735952e-05 0.00027985152)
(-0.018697395 2.2007308e-05 0.00026980575)
(-0.017326809 -0.00020948677 -4.9531027e-06)
(-0.016833879 -0.0002210527 9.2231207e-05)
(-0.016562045 -0.00020249054 0.00014542689)
(-0.016472855 -0.00018390389 0.00019756064)
(-0.016549996 -0.00015144486 0.00024214264)
(-0.016797664 -0.00011005991 0.0002749316)
(-0.017231555 -6.4521814e-05 0.00030297781)
(-0.017876741 1.5177407e-05 0.00029888198)
(-0.01664606 -0.00023059317 3.2897105e-06)
(-0.016200909 -0.00023640068 9.8893042e-05)
(-0.015948624 -0.00021564312 0.00015538898)
(-0.01586102 -0.00019415701 0.00020973784)
(-0.015922597 -0.00015966457 0.00025687794)
(-0.016137418 -0.00011674868 0.00029324561)
(-0.016518054 -6.8559634e-05 0.00032377465)
(-0.017081604 7.5379703e-06 0.00032628619)
(-0.015998667 -0.00025000487 1.096794e-05)
(-0.015601286 -0.00025047785 0.00010387816)
(-0.015367896 -0.00022769163 0.00016338288)
(-0.015281218 -0.00020304275 0.0002193451)
(-0.015327745 -0.00016674801 0.00026847986)
(-0.015509264 -0.00012249382 0.00030757288)
(-0.015836859 -7.2360269e-05 0.00033995595)
(-0.016320097 -3.7392756e-07 0.00034860241)
(-0.015389192 -0.00026631766 1.8128891e-05)
(-0.015038311 -0.00026162036 0.00010728109)
(-0.014823967 -0.00023692313 0.0001690007)
(-0.014738313 -0.00020954847 0.00022575844)
(-0.014769555 -0.000171994 0.00027590843)
(-0.014918473 -0.00012682238 0.00031678188)
(-0.015193753 -7.5541904e-05 0.00035017829)
(-0.015599308 -8.1412301e-06 0.00036397268)
(-0.014821054 -0.00027868771 2.4777147e-05)
(-0.014515878 -0.00026935606 0.00010921123)
(-0.014320673 -0.00024320681 0.00017238417)
(-0.014235763 -0.00021354113 0.00022923351)
(-0.014251929 -0.00017518085 0.00027929872)
(-0.014369381 -0.00012966058 0.00032125992)
(-0.014594266 -7.7867114e-05 0.00035462957)
(-0.014925566 -1.5507589e-05 0.00037237532)
(-0.014297885 -0.00028655047 3.093003e-05)
(-0.014036374 -0.00027317478 0.00010996335)
(-0.013859993 -0.00024627349 0.00017366579)
(-0.013775802 -0.00021472806 0.00022982789)
(-0.013777764 -0.00017619125 0.00027909308)
(-0.013864723 -0.00013099484 0.00032149231)
(-0.014041851 -8.022878e-05 0.00035573342)
(-0.014302639 -2.3292602e-05 0.00037798946)
(-0.013823627 -0.00029269433 3.6999202e-05)
(-0.013603409 -0.00027566762 0.00011097112)
(-0.01344468 -0.00024831145 0.00017452876)
(-0.013362021 -0.00021592738 0.0002299561)
(-0.013350519 -0.00017810304 0.00027919802)
(-0.013407954 -0.00013380503 0.00032210545)
(-0.013533752 -8.4047623e-05 0.00035625875)
(-0.013724267 -3.1342553e-05 0.00038246766)
(-0.01339152 -0.00029675822 4.2562564e-05)
(-0.013210447 -0.00027569634 0.0001113391)
(-0.013068652 -0.00024765102 0.00017326124)
(-0.012985427 -0.00021492165 0.00022660796)
(-0.012957201 -0.00017794505 0.000274106)
(-0.012983208 -0.00013510053 0.00031574134)
(-0.013064599 -8.6053023e-05 0.00034759456)
(-0.013191047 -3.7220408e-05 0.00037461228)
(-0.013008129 -0.00029355066 4.6141058e-05)
(-0.012865171 -0.00026924617 0.00010858351)
(-0.012740575 -0.00024070238 0.00016714107)
(-0.01265865 -0.00020797463 0.00021636145)
(-0.01261887 -0.00017214473 0.00025983955)
(-0.012620349 -0.00013150742 0.00029826778)
(-0.012662388 -8.4660627e-05 0.00032802005)
(-0.012732853 -4.0643469e-05 0.0003548508)
(-0.012686008 -0.00029151074 4.9683424e-05)
(-0.012577856 -0.00026404605 0.00010579343)
(-0.012469669 -0.00023463943 0.00016072745)
(-0.012389601 -0.00020171902 0.00020604132)
(-0.012339842 -0.00016729298 0.00024611222)
(-0.012319744 -0.00012921118 0.00028254697)
(-0.012327604 -8.447262e-05 0.00031127124)
(-0.012348895 -4.420755e-05 0.00033905396)
(-0.012404324 -0.00028861299 5.2913289e-05)
(-0.012331344 -0.00025816442 0.00010252291)
(-0.012241142 -0.0002284666 0.00015360385)
(-0.012164595 -0.0001955857 0.00019520011)
(-0.012106777 -0.00016243013 0.00023175852)
(-0.012067688 -0.00012680524 0.00026582599)
(-0.012044001 -8.4327169e-05 0.0002934915)
(-0.012018611 -4.7485528e-05 0.00032210475)
(-0.012180079 -0.00027168965 5.391841e-05)
(-0.01213935 -0.00024033732 9.5151081e-05)
(-0.012065805 -0.00021237736 0.00014056343)
(-0.011993011 -0.00018132016 0.00017730329)
(-0.011929135 -0.00015078348 0.00020926617)
(-0.011874703 -0.00011904052 0.00023977759)
(-0.011824982 -8.0450211e-05 0.00026510973)
(-0.011760792 -4.8456187e-05 0.00029261923)
(-0.012026993 -0.00024701807 5.367307e-05)
(-0.012014566 -0.00021525442 8.5508414e-05)
(-0.01195561 -0.00018982257 0.00012407345)
(-0.011886552 -0.00016126123 0.00015510006)
(-0.011817936 -0.00013432067 0.00018179232)
(-0.011751017 -0.000107406 0.00020819954)
(-0.011679485 -7.4342324e-05 0.00023092935)
(-0.011584066 -4.8498785e-05 0.00025783526)
(-0.011945891 -0.00022075376 5.337182e-05)
(-0.011958073 -0.00018836829 7.6322899e-05)
(-0.011911797 -0.00016508039 0.00010744523)
(-0.011846394 -0.00013910622 0.00013204658)
(-0.011774227 -0.00011636069 0.00015336994)
(-0.011697445 -9.4436373e-05 0.00017576901)
(-0.011608492 -6.7829531e-05 0.00019533978)
(-0.011487553 -4.8946597e-05 0.00022224382)
(-0.011940004 -0.00019214609 5.2602611e-05)
(-0.011972878 -0.00015840139 6.6427166e-05)
(-0.011937676 -0.00013715325 8.9718783e-05)
(-0.011875753 -0.00011400526 0.00010762124)
(-0.011801099 -9.579035e-05 0.00012349366)
(-0.011716768 -7.9437425e-05 0.00014198118)
(-0.011615417 -6.0115437e-05 0.00015852625)
(-0.01147457 -4.9037489e-05 0.00018643708)
(-0.012011378 -0.00015594235 5.0220515e-05)
(-0.012060909 -0.00012161179 5.4327738e-05)
(-0.012034911 -0.00010315698 6.8968258e-05)
(-0.011976063 -8.3485966e-05 7.9723302e-05)
(-0.01189996 -7.0062812e-05 8.9457619e-05)
(-0.01181056 -6.0175826e-05 0.0001028774)
(-0.011701114 -4.9370946e-05 0.00011568669)
(-0.011546536 -4.72179e-05 0.00014396539)
(-0.028394982 6.230336e-05 0.00017253701)
(-0.025755315 -1.8687926e-05 -0.00029300869)
(-0.024668051 -0.00029244895 -0.00024847859)
(-0.023293282 -0.00052414247 -0.00032847489)
(-0.023317239 -0.00039651152 -0.00028169267)
(-0.023767146 -0.00044913104 -0.0003102888)
(-0.024632767 -0.00053646742 -0.00019742182)
(-0.026349475 -0.00038423037 -6.9676571e-05)
(-0.024270622 0.00013418644 0.00085172076)
(-0.022862198 0.00012284333 0.00034427574)
(-0.021895611 3.3815403e-05 0.000312653)
(-0.021319651 -2.6071848e-05 0.0001171844)
(-0.021137136 9.6546468e-05 9.6028321e-05)
(-0.021314155 0.00017726115 4.2523049e-05)
(-0.021841956 0.00021914045 5.0425723e-05)
(-0.022847752 0.00044810223 1.5335162e-05)
(-0.023294195 5.2818896e-05 0.00045641023)
(-0.022109943 6.8997199e-05 0.00026589047)
(-0.021336952 1.329303e-05 0.00020926902)
(-0.020868562 2.3265352e-05 0.00014790311)
(-0.020719315 6.2764246e-05 0.00010683424)
(-0.020858161 9.6857442e-05 6.7753589e-05)
(-0.021326434 0.00013887405 7.0896988e-05)
(-0.022173567 0.00025872267 1.0990507e-05)
(-0.022186614 9.167055e-07 0.00035179708)
(-0.021129289 6.4759629e-05 0.00028692493)
(-0.020428521 7.2641191e-05 0.00025869196)
(-0.020017701 0.00011015549 0.00022070901)
(-0.019874884 0.00015627189 0.00017995401)
(-0.019988777 0.00019281812 0.0001265204)
(-0.020386503 0.00022811013 8.7161728e-05)
(-0.021138483 0.00026095249 -9.4015649e-06)
(-0.021264439 -2.1583234e-05 0.00025893139)
(-0.020294988 5.5865899e-05 0.00024845861)
(-0.019653743 7.7705444e-05 0.00022610769)
(-0.019281004 0.00011373667 0.00020218604)
(-0.019148668 0.00014834316 0.00016655643)
(-0.019252096 0.00017186805 0.00011948144)
(-0.019615714 0.00019383312 7.8711629e-05)
(-0.020308203 0.00019369535 -1.8313638e-05)
(-0.020390178 -2.8922342e-05 0.00023646998)
(-0.019502437 5.4055205e-05 0.00024564963)
(-0.018915472 8.515182e-05 0.00022492741)
(-0.018575543 0.00012142106 0.00020350347)
(-0.018456492 0.00015227938 0.00016837029)
(-0.018554928 0.00017100594 0.00012273523)
(-0.018892381 0.00018866615 7.9007095e-05)
(-0.019530058 0.00017608763 -1.8635896e-05)
(-0.019534857 -2.8429781e-05 0.00024635188)
(-0.018726992 5.5486267e-05 0.0002604497)
(-0.018190839 9.3077351e-05 0.0002390044)
(-0.01788226 0.00013106284 0.00021528722)
(-0.017777172 0.00016168917 0.0001780749)
(-0.017872939 0.00017885445 0.00013105609)
(-0.01818777 0.00019578649 8.4100088e-05)
(-0.018774713 0.00017996331 -1.4185909e-05)
(-0.018695468 -2.3598849e-05 0.00027072611)
(-0.017967278 5.8964343e-05 0.00028210696)
(-0.017481541 0.00010101791 0.00025821586)
(-0.017204277 0.00014078634 0.00023075517)
(-0.017114146 0.00017218548 0.00019025539)
(-0.017208428 0.00018995425 0.00014096008)
(-0.017501654 0.00020794011 9.0815847e-05)
(-0.01803974 0.00019355977 -7.5323798e-06)
(-0.017874062 -1.6125075e-05 0.00029954383)
(-0.017226372 6.3594922e-05 0.00030477294)
(-0.016792354 0.00010876496 0.00027787274)
(-0.016546842 0.00014991378 0.00024652413)
(-0.016472778 0.00018275436 0.00020309795)
(-0.016565611 0.00020269892 0.0001513699)
(-0.016838931 0.00022256784 9.7790825e-05)
(-0.0173295 0.00021221693 -2.0106775e-08)
(-0.01707822 -7.2701764e-06 0.0003266281)
(-0.016511093 6.8756606e-05 0.00032463218)
(-0.016129325 0.00011605699 0.00029488108)
(-0.015916557 0.00015816219 0.00026008016)
(-0.015858649 0.00019253063 0.00021432485)
(-0.015950611 0.00021489624 0.00016072021)
(-0.016204726 0.00023700884 0.00010425037)
(-0.016648339 0.00023229184 7.8260532e-06)
(-0.016316134 1.759393e-06 0.00034858409)
(-0.015828192 7.3468879e-05 0.00033996068)
(-0.015498643 0.00012237471 0.0003080356)
(-0.015318752 0.00016537374 0.00027044634)
(-0.015276463 0.00020107054 0.00022296401)
(-0.01536866 0.00022614576 0.00016814773)
(-0.01560451 0.00025018422 0.00010901815)
(-0.016001206 0.00025085815 1.5195768e-05)
(-0.015594882 1.0199144e-05 0.00036366624)
(-0.015183728 7.7118728e-05 0.00034950967)
(-0.014905698 0.00012692581 0.00031642155)
(-0.014757909 0.00017062056 0.00027692048)
(-0.014731407 0.00020735385 0.00022836118)
(-0.01482332 0.00023496878 0.00017291581)
(-0.015041443 0.00026079923 0.00011169273)
(-0.01539269 0.00026632256 2.1663906e-05)
(-0.014920692 1.7662891e-05 0.00037188747)
(-0.014582956 7.9510279e-05 0.00035356702)
(-0.014354771 0.00012975324 0.00032022202)
(-0.014238626 0.00017382079 0.00027933717)
(-0.014227997 0.00021150269 0.00023053291)
(-0.014319881 0.00024114483 0.00017477836)
(-0.014519704 0.0002681667 0.00011224669)
(-0.014826706 0.00027807035 2.7125499e-05)
(-0.014297466 2.4623774e-05 0.00037735388)
(-0.014029563 8.145371e-05 0.00035413067)
(-0.013849318 0.00013111883 0.00031959615)
(-0.013764123 0.00017520686 0.00027783523)
(-0.013768147 0.00021318308 0.00022939313)
(-0.013859741 0.00024452168 0.0001742009)
(-0.014041407 0.00027205494 0.00011136545)
(-0.014305578 0.00028575009 3.1950796e-05)
(-0.01372027 3.1667215e-05 0.00038199335)
(-0.013523734 8.4788787e-05 0.00035476968)
(-0.013394278 0.00013411905 0.00031971598)
(-0.013338191 0.00017773882 0.00027667081)
(-0.013355348 0.00021511946 0.0002279262)
(-0.013444842 0.00024740266 0.00017341332)
(-0.013608551 0.00027521145 0.00011068293)
(-0.013832124 0.00029258213 3.6711267e-05)
(-0.013187873 3.6952718e-05 0.00037454401)
(-0.013056379 8.6546465e-05 0.00034691075)
(-0.01297262 0.00013569114 0.00031387391)
(-0.0129479 0.0001783174 0.00027153737)
(-0.012980296 0.00021502379 0.00022401617)
(-0.013068647 0.00024762507 0.00017109394)
(-0.013213991 0.0002756336 0.00010953435)
(-0.013397859 0.00029656232 4.1051203e-05)
(-0.012730472 4.0048321e-05 0.00035494094)
(-0.012656143 8.4975785e-05 0.00032788608)
(-0.01261214 0.00013241712 0.00029729588)
(-0.012611597 0.00017320931 0.00025802538)
(-0.012654828 0.00020883769 0.00021413774)
(-0.012740984 0.00024142555 0.00016466451)
(-0.01286868 0.00026921841 0.00010596328)
(-0.013014228 0.00029271516 4.4085581e-05)
(-0.012346959 4.354527e-05 0.00033911421)
(-0.012322523 8.4576665e-05 0.00031130896)
(-0.01231284 0.00012996737 0.00028202929)
(-0.012333546 0.00016840741 0.00024482216)
(-0.012386256 0.00020294913 0.00020421007)
(-0.012470098 0.00023573864 0.0001583405)
(-0.012581034 0.00026456948 0.00010312807)
(-0.012691171 0.0002911203 4.7463342e-05)
(-0.012017189 4.6800009e-05 0.00032221265)
(-0.012039877 8.4314691e-05 0.00029365353)
(-0.012062092 0.000127306 0.00026552081)
(-0.01210182 0.00016337878 0.00023075327)
(-0.012161951 0.00019679439 0.00019357382)
(-0.012241634 0.00022961264 0.00015137379)
(-0.012333904 0.00025877577 0.00010011841)
(-0.012408282 0.00028845037 5.0968669e-05)
(-0.011759632 4.7664873e-05 0.00029271255)
(-0.011821346 8.0213562e-05 0.00026523706)
(-0.011869937 0.00011930302 0.0002395125)
(-0.011925088 0.00015158462 0.00020841062)
(-0.011990847 0.00018234081 0.00017582655)
(-0.01206603 0.00021332173 0.00013858846)
(-0.012141403 0.00024085875 9.3133651e-05)
(-0.012183277 0.00027153916 5.2300702e-05)
(-0.011583216 4.7427377e-05 0.00025795713)
(-0.011676854 7.3740514e-05 0.00023094998)
(-0.011747669 0.00010740223 0.00020793841)
(-0.011815063 0.00013490181 0.00018097837)
(-0.011885111 0.00016191185 0.0001536566)
(-0.011955835 0.00019027232 0.00012242145)
(-0.012016254 0.00021554708 8.3937842e-05)
(-0.012029731 0.00024689785 5.2155593e-05)
(-0.011487203 4.7381253e-05 0.0002223532)
(-0.011607002 6.6806292e-05 0.00019528923)
(-0.011695438 9.4082029e-05 0.00017553467)
(-0.011772504 0.00011651605 0.00015261282)
(-0.011845739 0.0001393645 0.0001307233)
(-0.011912514 0.00016499055 0.00010586075)
(-0.011959866 0.00018816959 7.4860726e-05)
(-0.011948717 0.00022027365 5.1807003e-05)
(-0.011474775 4.6775301e-05 0.00018669532)
(-0.011615353 5.8480937e-05 0.00015877968)
(-0.011716399 7.8532707e-05 0.00014189896)
(-0.011800889 9.545665e-05 0.00012290472)
(-0.011876365 0.00011378343 0.00010644144)
(-0.0119395 0.00013666909 8.8247439e-05)
(-0.011975647 0.00015776985 6.4960973e-05)
(-0.011943637 0.00019122383 5.0941988e-05)
(-0.011547236 4.3952397e-05 0.00014447408)
(-0.011702496 4.6811507e-05 0.00011656277)
(-0.011812087 5.8559831e-05 0.00010353105)
(-0.011901689 6.9294462e-05 8.965568e-05)
(-0.011978527 8.3085986e-05 7.9317897e-05)
(-0.012038383 0.0001028148 6.8159112e-05)
(-0.012065291 0.00012127593 5.3182409e-05)
(-0.012016454 0.00015521847 4.8625973e-05)
(-0.02633772 -0.00038608607 3.5652106e-05)
(-0.024596304 -0.0005552089 0.00015615333)
(-0.023696997 -0.0004536141 0.00023255158)
(-0.023247856 -0.00057335916 0.00028887239)
(-0.024309916 -0.0001492671 0.000174558)
(-0.023855438 -0.00030958457 0.00045442341)
(-0.025871144 -9.6617973e-05 0.00024203229)
(-0.028041325 0.00012176949 1.4920572e-05)
(-0.02283936 0.00044475945 -4.7611093e-05)
(-0.021827123 0.00020070583 -8.0274243e-05)
(-0.021307423 0.00016775887 -7.8645066e-05)
(-0.021144998 1.763621e-05 -0.00010622746)
(-0.021374883 0.00018479479 -0.00028298935)
(-0.021908192 1.3369621e-05 -0.00010260298)
(-0.022769068 0.00012377972 -0.00038733642)
(-0.024252401 0.00010534489 -0.0007538064)
(-0.022166305 0.00025553975 -3.2371357e-05)
(-0.02131306 0.00013186363 -9.2021951e-05)
(-0.020849265 9.4756498e-05 -8.8752418e-05)
(-0.020714362 4.9239892e-05 -0.00011867685)
(-0.020899865 5.6164238e-05 -0.00017102036)
(-0.021303385 3.6286527e-05 -0.00019036919)
(-0.0221028 7.17539e-05 -0.00025375512)
(-0.023287289 3.8325745e-05 -0.00045135139)
(-0.021132218 0.00025801458 -5.4516195e-06)
(-0.02037386 0.00022447317 -0.00010242751)
(-0.019975706 0.00018963948 -0.00013993303)
(-0.019862552 0.00015039026 -0.00018827267)
(-0.020015466 0.00012106704 -0.00023521558)
(-0.020413404 7.3630752e-05 -0.00024684291)
(-0.021115725 6.5993772e-05 -0.00028718396)
(-0.02217976 -6.0984115e-06 -0.00034964795)
(-0.020302652 0.00019209483 1.1481229e-05)
(-0.019604505 0.00019292992 -8.7971101e-05)
(-0.019237898 0.00016896969 -0.00012901672)
(-0.019134396 0.00014355646 -0.00017347635)
(-0.019269822 0.00011250483 -0.00020824875)
(-0.019640682 7.4856403e-05 -0.00022468921)
(-0.020281997 5.2885245e-05 -0.00024756996)
(-0.021253549 -2.6642299e-05 -0.00025724086)
(-0.019525318 0.00017610676 1.8303448e-05)
(-0.018882046 0.00018932164 -8.2947144e-05)
(-0.018540972 0.00016933679 -0.00012819615)
(-0.018441905 0.00014837481 -0.00017329953)
(-0.018562547 0.00011687195 -0.00020715777)
(-0.018902096 7.9832898e-05 -0.0002257843)
(-0.019488606 4.8329232e-05 -0.0002453073)
(-0.020375501 -3.472177e-05 -0.00023412137)
(-0.018771172 0.00018076343 1.9002372e-05)
(-0.0181794 0.00019745981 -8.322977e-05)
(-0.017861712 0.00017828829 -0.00013275152)
(-0.017765566 0.000158738 -0.00018040908)
(-0.017871504 0.00012644076 -0.00021759407)
(-0.018178811 8.7178725e-05 -0.00024026807)
(-0.018712684 4.8853204e-05 -0.00026056103)
(-0.019517612 -3.4641417e-05 -0.00024406533)
(-0.018037983 0.00019469057 1.5508734e-05)
(-0.017497036 0.00020997188 -8.6417891e-05)
(-0.017202123 0.00019065509 -0.00013961716)
(-0.01710821 0.00017091128 -0.00019042886)
(-0.017198069 0.00013767927 -0.00023183035)
(-0.017472539 9.6386909e-05 -0.00025934087)
(-0.017953745 5.3208089e-05 -0.00028251465)
(-0.018676805 -2.9284174e-05 -0.00026908045)
(-0.017329061 0.00021348728 9.3015742e-06)
(-0.016837394 0.00022514317 -9.1502643e-05)
(-0.01656424 0.00020495825 -0.00014791256)
(-0.016471919 0.0001840146 -0.0002015703)
(-0.016545364 0.00014964469 -0.00024684924)
(-0.016786464 0.0001065709 -0.00027929815)
(-0.017214509 5.9586513e-05 -0.0003060392)
(-0.017855773 -2.0831478e-05 -0.00029914196)
(-0.016648666 0.00023368477 2.0214047e-06)
(-0.016204688 0.0002403328 -9.6719376e-05)
(-0.015952108 0.00021900017 -0.00015592896)
(-0.015861234 0.00019625302 -0.00021195352)
(-0.015918311 0.00016056887 -0.00026036197)
(-0.016126074 0.000116093 -0.0002969459)
(-0.016500916 6.621408e-05 -0.00032699795)
(-0.017060702 -1.1111782e-05 -0.00032754345)
(-0.016001754 0.00025233031 -5.3140298e-06)
(-0.015605528 0.00025383012 -0.00010103086)
(-0.01537181 0.00023107247 -0.00016263043)
(-0.01528168 0.00020608527 -0.00021992898)
(-0.015322967 0.00016920297 -0.00027028794)
(-0.01549779 0.00012386658 -0.00031001469)
(-0.015819727 7.2224782e-05 -0.00034260959)
(-0.016299487 -1.2104416e-06 -0.00035022981)
(-0.015393314 0.00026772618 -1.257544e-05)
(-0.015042976 0.0002644027 -0.00010408304)
(-0.014827394 0.00024013611 -0.00016712071)
(-0.014738275 0.00021325983 -0.00022484497)
(-0.014764487 0.00017562821 -0.00027630996)
(-0.014906994 0.00012980627 -0.00031816069)
(-0.015177238 7.7288849e-05 -0.00035227683)
(-0.015579855 8.2176649e-06 -0.00036583266)
(-0.014827115 0.00027927742 -1.946524e-05)
(-0.014520584 0.00027144098 -0.00010547425)
(-0.014323641 0.00024642237 -0.00016923487)
(-0.014235046 0.00021806776 -0.00022703501)
(-0.014246362 0.00017993072 -0.00027862825)
(-0.01435777 0.00013385579 -0.00032166819)
(-0.014578282 8.0920248e-05 -0.00035615591)
(-0.014907577 1.6643765e-05 -0.00037416065)
(-0.014305509 0.00028659588 -2.5834535e-05)
(-0.014041371 0.00027457206 -0.00010553152)
(-0.013861931 0.00024935375 -0.00016928868)
(-0.013773457 0.00021941396 -0.00022615291)
(-0.013771222 0.00018139186 -0.00027688883)
(-0.013853493 0.00013565786 -0.00032021707)
(-0.014026986 8.3724461e-05 -0.00035546582)
(-0.014286809 2.4598063e-05 -0.00037834702)
(-0.01383196 0.00029300398 -3.2089712e-05)
(-0.013608029 0.00027703847 -0.0001059709)
(-0.013445526 0.00025100879 -0.00016914978)
(-0.013358954 0.00022017826 -0.0002248183)
(-0.013344237 0.00018328335 -0.0002753783)
(-0.013399078 0.00013861513 -0.00031973625)
(-0.013524038 8.755304e-05 -0.00035539416)
(-0.013714653 3.2558969e-05 -0.00038267403)
(-0.01339773 0.00029679578 -3.787298e-05)
(-0.013213211 0.00027658063 -0.00010587941)
(-0.013068451 0.0002498414 -0.00016742723)
(-0.012982379 0.00021851681 -0.00022094852)
(-0.012952354 0.00018266105 -0.0002697333)
(-0.012976974 0.00013961011 -0.00031343005)
(-0.01305755 8.9229291e-05 -0.00034740002)
(-0.013183371 3.8337236e-05 -0.00037551552)
(-0.013013993 0.00029268409 -4.2078758e-05)
(-0.012867713 0.00026950854 -0.00010308584)
(-0.012740526 0.00024276528 -0.00016142757)
(-0.012656366 0.00021117376 -0.00021113906)
(-0.012615431 0.0001764115 -0.00025589552)
(-0.012616245 0.00013556551 -0.00029640484)
(-0.012657251 8.7369822e-05 -0.00032787552)
(-0.012726306 4.1722938e-05 -0.00035528553)
(-0.012690852 0.00029094652 -4.6306846e-05)
(-0.012579988 0.00026443529 -0.00010086112)
(-0.012469586 0.00023666943 -0.00015563651)
(-0.012387885 0.00020451373 -0.00020168781)
(-0.012337538 0.00017073298 -0.00024263624)
(-0.012317085 0.0001327003 -0.00028085565)
(-0.012323927 8.683382e-05 -0.00031086575)
(-0.012343463 4.5432884e-05 -0.00033890356)
(-0.012407863 0.00028816501 -5.018718e-05)
(-0.012332728 0.0002586148 -9.8492585e-05)
(-0.012241002 0.00022987614 -0.00014942626)
(-0.012163499 0.00019747405 -0.0001916025)
(-0.012105601 0.00016490155 -0.0002286709)
(-0.012066125 0.00012976369 -0.00026411614)
(-0.012041584 8.6625799e-05 -0.00029307164)
(-0.012014919 4.8814149e-05 -0.00032175179)
(-0.012183091 0.00027128444 -5.1782721e-05)
(-0.012140864 0.00024050152 -9.2124313e-05)
(-0.012065971 0.00021307075 -0.00013733253)
(-0.011992593 0.00018247588 -0.00017442417)
(-0.011928465 0.00015257115 -0.0002067765)
(-0.011873452 0.00012140445 -0.00023822833)
(-0.011822738 8.2567866e-05 -0.00026465295)
(-0.01175797 4.981407e-05 -0.00029254105)
(-0.012029709 0.00024646841 -5.2022073e-05)
(-0.012016301 0.00021518736 -8.3614566e-05)
(-0.011956268 0.000189722 -0.00012174866)
(-0.011886671 0.0001618348 -0.0001527355)
(-0.011817499 0.00013558904 -0.00017983876)
(-0.011749977 0.00010903172 -0.00020692026)
(-0.011677631 7.5954263e-05 -0.00023019499)
(-0.011581973 4.9719648e-05 -0.00025762501)
(-0.011948785 0.00021980495 -5.2456488e-05)
(-0.011960175 0.00018760036 -7.513356e-05)
(-0.011913263 0.00016428181 -0.00010558564)
(-0.011847124 0.00013915461 -0.00013007904)
(-0.011774293 0.00011696282 -0.0001516624)
(-0.011696891 9.533015e-05 -0.00017450545)
(-0.011607528 6.8801319e-05 -0.00019435661)
(-0.011486364 4.9679277e-05 -0.00022186093)
(-0.011943676 0.00019076223 -5.2241005e-05)
(-0.011975919 0.00015700693 -6.5722541e-05)
(-0.011940146 0.00013588765 -8.8336266e-05)
(-0.011877305 0.00011348073 -0.00010603104)
(-0.01180201 9.5771924e-05 -0.00012206965)
(-0.011717118 7.9696726e-05 -0.00014085089)
(-0.011615548 6.0449017e-05 -0.00015776156)
(-0.011474385 4.9058684e-05 -0.0001860793)
(-0.012016322 0.00015474017 -5.0430903e-05)
(-0.012065188 0.00012046816 -5.4328221e-05)
(-0.012038478 0.00010203667 -6.8590772e-05)
(-0.011978703 8.2697817e-05 -7.9083013e-05)
(-0.011901912 6.9618602e-05 -8.8922111e-05)
(-0.011811945 5.9789632e-05 -0.0001025416)
(-0.011702149 4.8866736e-05 -0.00011566542)
(-0.011547155 4.6282034e-05 -0.00014406979)
(-0.028366131 -6.3889964e-05 -0.00016230326)
(-0.025719109 1.7645449e-05 0.00030556796)
(-0.024629389 0.00029648622 0.00026045108)
(-0.023253522 0.00053244833 0.00033723647)
(-0.023281958 0.00040605899 0.00028586074)
(-0.023740393 0.00045941052 0.00030916582)
(-0.024618247 0.00054492635 0.00019016742)
(-0.026346529 0.00038723715 5.8190598e-05)
(-0.024263866 -0.00013816637 -0.00084113432)
(-0.02284261 -0.0001242162 -0.00032981951)
(-0.021868302 -2.7851139e-05 -0.00029900139)
(-0.021288959 3.6725947e-05 -0.00010733122)
(-0.021106873 -8.1220672e-05 -9.2845345e-05)
(-0.021290432 -0.00016274669 -4.8851648e-05)
(-0.02182574 -0.00020874128 -6.3750782e-05)
(-0.022842755 -0.00044467074 -3.4472462e-05)
(-0.023293271 -5.5904901e-05 -0.00045721635)
(-0.022095518 -7.0425673e-05 -0.0002643148)
(-0.021312878 -1.1440291e-05 -0.00020855128)
(-0.020840549 -1.9049785e-05 -0.00014919182)
(-0.020692474 -5.7256963e-05 -0.0001111803)
(-0.020835724 -9.1542517e-05 -7.6700688e-05)
(-0.021312195 -0.00013509105 -8.3439162e-05)
(-0.0221689 -0.0002587666 -2.5844425e-05)
(-0.022178307 -2.1770169e-06 -0.00035168062)
(-0.0211088 -6.4268401e-05 -0.00028595948)
(-0.020398923 -6.9363121e-05 -0.00025758888)
(-0.019983823 -0.00010494841 -0.00022211503)
(-0.019842122 -0.00015091862 -0.0001843755)
(-0.019962233 -0.00018835361 -0.00013403498)
(-0.02036929 -0.00022555439 -9.7128337e-05)
(-0.021130433 -0.00025968656 -1.7884391e-06)
(-0.021250181 1.9977143e-05 -0.0002570147)
(-0.020273089 -5.4938969e-05 -0.00024627481)
(-0.019624832 -7.4497538e-05 -0.00022433335)
(-0.019248799 -0.00010873965 -0.00020199781)
(-0.019117197 -0.000143054 -0.00016888313)
(-0.01922625 -0.00016764281 -0.00012418086)
(-0.019599082 -0.00019122274 -8.4101029e-05)
(-0.020299219 -0.00019076125 1.3004313e-05)
(-0.020372268 2.5893613e-05 -0.00023259341)
(-0.019479739 -5.3508059e-05 -0.00024202575)
(-0.018887126 -8.2410263e-05 -0.00022222099)
(-0.018545074 -0.00011747984 -0.00020172481)
(-0.018426827 -0.00014783682 -0.00016797886)
(-0.018531026 -0.00016681078 -0.00012370884)
(-0.018877542 -0.00018546577 -8.0114917e-05)
(-0.019522 -0.00017190855 1.8442447e-05)
(-0.019514514 2.4088977e-05 -0.00024213373)
(-0.018703193 -5.6470029e-05 -0.00025624536)
(-0.018163355 -9.179719e-05 -0.00023501515)
(-0.017853699 -0.00012837657 -0.0002117541)
(-0.01775035 -0.00015796978 -0.00017519749)
(-0.01785194 -0.0001751314 -0.0001292221)
(-0.018175051 -0.00019291745 -8.1818877e-05)
(-0.018767776 -0.0001756013 1.7789461e-05)
(-0.018673225 1.84776e-05 -0.00026713864)
(-0.017942967 -6.1389125e-05 -0.0002779502)
(-0.017455635 -0.00010153998 -0.00025370631)
(-0.017178776 -0.00013975367 -0.00022608477)
(-0.017091095 -0.00017008025 -0.00018597524)
(-0.017190866 -0.00018776631 -0.00013733752)
(-0.017491237 -0.00020614034 -8.6200151e-05)
(-0.018033669 -0.00019022266 1.3411437e-05)
(-0.017851761 1.1133908e-05 -0.00029733563)
(-0.01720314 -6.7036726e-05 -0.00030167087)
(-0.016768581 -0.00011123024 -0.00027386444)
(-0.016525006 -0.00015133187 -0.00024157097)
(-0.016453466 -0.00018303558 -0.00019775871)
(-0.016551755 -0.00020237709 -0.00014638036)
(-0.016830559 -0.00022200139 -9.1840074e-05)
(-0.01732386 -0.00020998998 6.9415259e-06)
(-0.017056649 3.1641915e-06 -0.00032602501)
(-0.016489453 -7.2523536e-05 -0.00032313521)
(-0.016108276 -0.00012000675 -0.00029188804)
(-0.015897939 -0.00016183511 -0.00025548225)
(-0.015842625 -0.00019518244 -0.00020852855)
(-0.015939405 -0.00021664202 -0.00015463643)
(-0.016197481 -0.0002378492 -9.7351489e-05)
(-0.016643274 -0.00023107285 -3.6724933e-07)
(-0.016295813 -4.7372151e-06 -0.0003490579)
(-0.015808797 -7.7201001e-05 -0.0003394516)
(-0.01548096 -0.00012718748 -0.00030572125)
(-0.01530318 -0.00017042346 -0.00026608429)
(-0.015263479 -0.00020537184 -0.00021697915)
(-0.015359236 -0.00022921465 -0.00016145181)