/*--------------------------------*- C++ -*----------------------------------*\
  =========                 |
  \\      /  F ield         | OpenFOAM: The Open Source CFD Toolbox
   \\    /   O peration     | Website:  https://openfoam.org
    \\  /    A nd           | Version:  8
     \\/     M anipulation  |
\*---------------------------------------------------------------------------*/
FoamFile
{
    version     2.0;
    format      ascii;
    class       surfaceVectorField;
    location    "0.0355000";
    object      Uf_0;
}
// * * * * * * * * * * * * * * * * * * * * * * * * * * * * * * * * * * * * * //

dimensions      [0 1 -1 0 0 0 0];

internalField   nonuniform List<vector> 
1691
(
(0.755451947608479 0.000273927261952799 -5.9195771745353e-19)
(0.577632751074098 0.000917275276756632 -2.16019555779055e-18)
(0.755652182249005 0.00017966152073073 -6.23554622437048e-19)
(0.578964835891679 0.000966247160044311 -2.22935932406594e-20)
(0.755876069883166 0.000167756830535392 -2.92053077112754e-18)
(0.579162002115511 0.000972221605602871 -1.4571478779465e-18)
(0.755976865140406 0.000182714378112524 -2.32535358826605e-19)
(0.579441183843167 0.00103973817389748 -7.44035687749146e-18)
(0.756010979269684 0.000189372005125734 1.06664875251183e-17)
(0.579494086904856 0.00107859565451269 4.94871283991689e-18)
(0.756016585139953 0.000194099094606207 1.07609021406121e-17)
(0.579474968163276 0.00109951448087819 1.32113400575329e-17)
(0.75601513851035 0.000197011965730623 -3.2910008529387e-18)
(0.579427825952563 0.0011098490556 2.63826523762732e-18)
(0.756012893723272 0.000199351186962927 -9.16778108973887e-18)
(0.579374519009743 0.00111543974364566 -2.8509199422961e-18)
(0.756010986472522 0.000202105466457314 -9.82024897323659e-18)
(0.579321386623505 0.00112032973788419 -1.05869967448107e-17)
(0.756010060399514 0.000204740826777159 -2.57533631390265e-17)
(0.579269134674491 0.00112617709153273 -2.7126093854171e-17)
(0.756009669752269 0.000206615538785034 -3.56656135180256e-17)
(0.579217796458271 0.00113062212515604 -4.665978785217e-17)
(0.756010238799864 0.000208300022151623 -4.58541258385312e-17)
(0.579167699004275 0.00113431152386852 -5.8184041819361e-17)
(0.756012158892484 0.000210153137342964 -5.58603613636215e-17)
(0.579118275431578 0.00113825376269061 -8.86863982841342e-17)
(0.75601614741228 0.000211912380174401 -4.12700747460842e-17)
(0.579070494966023 0.00114250375320858 -7.19142637463012e-17)
(0.756020407782781 0.000213710847694358 -1.70866442422395e-17)
(0.579023835904418 0.00114625063042273 -5.45407692969593e-17)
(0.756023447796635 0.00021589175835381 -1.25969551759396e-18)
(0.578977007839461 0.00115058191381682 -6.75328335437005e-18)
(0.756026615298505 0.000217741421381445 1.21267839072533e-18)
(0.578929203496709 0.00115551558706012 3.29039248651924e-18)
(0.756031671716816 0.000218926010714591 5.59286310390694e-18)
(0.578882268035918 0.00115896286966167 8.57761752260439e-19)
(0.756038535069851 0.000220335702935715 -9.20930423071994e-19)
(0.578837579911251 0.00116199091004779 1.68998932084327e-17)
(0.756045535989927 0.000222443232064835 -1.62667191148299e-18)
(0.578793449996219 0.00116612476921269 -4.05689797640863e-17)
(0.756052504664167 0.000224575193577669 2.50988726523656e-17)
(0.578749443986331 0.00117132025260212 1.24490081082781e-17)
(0.756058749819644 0.00022620366963011 1.69389970431018e-17)
(0.57870528248817 0.00117562059893727 3.5105905876998e-17)
(0.756065914020147 0.000227667165956459 -1.73894543967195e-17)
(0.578661023784585 0.00117933089601029 -1.41074116077188e-17)
(0.756076600405093 0.000229222375658872 -2.15390927265483e-17)
(0.57861885941683 0.00118326833604789 -3.18671462898237e-17)
(0.75608995364647 0.000230937404830937 1.08897775273227e-17)
(0.57857999935637 0.00118736325272803 -3.31419752181865e-17)
(0.756103028071464 0.000232855814694419 1.32036657027166e-17)
(0.57854244202531 0.00119184175854016 6.74063982198129e-17)
(0.75611596237111 0.000235078714107989 -4.96916795024095e-18)
(0.578504107812429 0.00119661042302603 -2.90099448709538e-17)
(0.756132041621172 0.000237281346619312 -1.86393331953921e-17)
(0.578467910270114 0.00120225886719808 -2.16805386271953e-19)
(0.756149005921566 0.000239227274148247 3.41852761860936e-18)
(0.578434620958913 0.00120710627519644 -2.89511023326801e-17)
(0.756166843943601 0.000241314875835854 5.86038531711273e-17)
(0.578401531076589 0.00121197409805027 9.33604037583906e-17)
(0.75618813038355 0.000243746701563544 5.5488619169919e-17)
(0.578371272885928 0.00121743274925685 9.61159547153888e-17)
(0.756212976518139 0.000246139977423845 2.93132922682849e-17)
(0.578345218117748 0.00122353991951876 7.40094170988874e-17)
(0.756240050310149 0.00024844079378489 1.9775015996472e-18)
(0.578321945181466 0.00122902803917625 4.04712443374747e-17)
(0.756269347512462 0.000251546549942871 -1.55097505113524e-17)
(0.578301978860471 0.00123492628775974 -3.37357224741064e-17)
(0.756303377367306 0.000254832886809522 -4.70413837198306e-17)
(0.57828599510315 0.00124317383998666 -2.67507462616749e-17)
(0.75634187083659 0.000257659351826617 -6.26159386885332e-17)
(0.57827523145736 0.00124986702997761 -1.13332662589407e-16)
(0.756384139633554 0.00026118939534114 9.88564379144683e-18)
(0.578270493257023 0.00125680053648039 -5.74179874231069e-17)
(0.756430313663433 0.00026569748396434 4.08453698597462e-17)
(0.578270491793026 0.00126589528467316 5.99203523722585e-17)
(0.756483355652698 0.000269920983810028 3.92923935286777e-17)
(0.578277251477545 0.00127617538335151 3.12731850393162e-17)
(0.756543872699869 0.000273960880513842 2.79843956459888e-17)
(0.578292958463833 0.00128467764636861 2.67647669028292e-17)
(0.756610649708973 0.000279908362087731 -1.40177537261268e-19)
(0.578318885312058 0.00129452091098262 -1.52018576243147e-17)
(0.756685292621933 0.00028680053373536 7.47318163533512e-18)
(0.578354255249883 0.001309396380332 -1.59668210186602e-17)
(0.756768923735324 0.00029281409744214 -9.94238565222683e-18)
(0.57840052880906 0.00132259124021688 -3.613956864817e-19)
(0.756864204582389 0.000299632727634103 -9.5964762752864e-18)
(0.578461799699808 0.00133494080396129 -5.00523989256993e-17)
(0.756972855682393 0.000309208271001821 3.03509581975464e-17)
(0.578540624566205 0.00135099665226124 2.29077164815368e-17)
(0.757097094092691 0.000319535494054413 3.26170102640325e-17)
(0.57863955273325 0.0013725834919672 1.03273369878118e-16)
(0.757234857072248 0.000329351950990457 5.11568176920041e-17)
(0.57875891067651 0.00139151270928515 2.63619021078357e-17)
(0.7573897456507 0.000342480931303819 4.74563345248522e-17)
(0.578902539678943 0.00141172323245262 1.07377550147788e-16)
(0.757569932968347 0.000358550439349874 -3.2089918942118e-18)
(0.579078036126865 0.00144179831250754 1.30520476934527e-17)
(0.757773529021852 0.000373994377240788 5.49432270783762e-19)
(0.57928897241795 0.00147200149048255 -3.0682881571966e-17)
(0.758003218549714 0.000390851569984625 4.12777034457539e-18)
(0.579537011416419 0.00150052605653348 3.10456443981071e-17)
(0.758265921492697 0.000414423663691802 -6.06957876977449e-17)
(0.579834584962207 0.00153567929728787 -1.05689538599205e-17)
(0.758572062685885 0.000439951984272564 -7.57795208663589e-17)
(0.580189389656277 0.00158641827877659 -2.06474162731106e-16)
(0.758922062466536 0.000463722714594407 -5.2210071509259e-17)
(0.580606853508949 0.00162864257797988 -7.22025794719359e-17)
(0.759320886568482 0.000495804879265745 -6.87741190280523e-17)
(0.5811054871773 0.00167419132489694 -1.32552990354446e-16)
(0.759779981048191 0.000535773762446377 -5.62394710510828e-17)
(0.581692548949509 0.00174369407908228 -1.39024113850741e-16)
(0.760307538221724 0.000573848194720111 -1.85143409015729e-17)
(0.582379310323929 0.00181534129520044 -8.46100720251696e-17)
(0.760917405200922 0.000613965541657583 -2.09949346376337e-17)
(0.583188083738221 0.0018795420329852 1.04356029008681e-17)
(0.761618193031587 0.000671834032754918 -3.64698706761955e-17)
(0.584153036122728 0.00195847890108875 -4.02065124975991e-17)
(0.762432624211911 0.000734599612393505 -3.41242115515219e-17)
(0.585284032738629 0.00207970819903591 -5.24077300280687e-17)
(0.76337144762534 0.000790447168448984 -3.08292167273361e-17)
(0.586600470439199 0.00217533759192317 -3.42423645713071e-17)
(0.764455568889165 0.000865071465748542 2.5626487113777e-17)
(0.588172423162448 0.00227573496816366 -4.048542727316e-17)
(0.765715470891219 0.000957480757792364 4.54153602354868e-17)
(0.590019964977285 0.00243058690551297 9.55118865695555e-17)
(0.767179283903019 0.00104333687589663 1.81821508477229e-17)
(0.592179172224252 0.00258755232588745 3.8967312499214e-17)
(0.768905932487749 0.00113223476013761 9.30863850090158e-17)
(0.59472761539507 0.00272305684127457 3.10278401877744e-17)
(0.770975425126343 0.0012879709832688 1.09776662731543e-16)
(0.597827002251018 0.00289626272182108 2.99616074180584e-16)
(0.773593875932597 0.00148514277109189 2.46076414278198e-18)
(0.601608709272397 0.00324129247879976 1.03770659230816e-16)
(0.776967541679201 0.00167643974827624 -1.46203234054298e-17)
(0.606295987581036 0.00354856850208195 -4.73958805540784e-17)
(0.781201046469195 0.00195904361826888 2.20005180975146e-17)
(0.612338328351335 0.00389299389684844 2.83289110327212e-17)
(0.786279133828978 0.00229543819254743 4.39290189188167e-17)
(0.619793893271392 0.00447372202297171 5.36320729492666e-17)
(0.792132744448766 0.00254203341051242 4.87147149214892e-17)
(0.628550912740343 0.00496807334805671 1.20555137913388e-16)
(0.798812339734492 0.00271974791951768 3.57426499302059e-18)
(0.638889836996774 0.00526166583879055 7.55407011003113e-17)
(0.806304874494852 0.00287700194865923 -3.046352490806e-17)
(0.650845863919067 0.00550665924920047 -5.98470864416302e-17)
(0.81468009564617 0.00293227800767289 8.09290730830059e-19)
(0.66434379732321 0.00567555461588308 -6.17553045228436e-17)
(0.823948873931128 0.002869965384173 -6.86410134843443e-18)
(0.679375227215256 0.00556757235872834 6.52031686724998e-17)
(0.834169379998021 0.00275788820049584 9.89552232421239e-18)
(0.696284451032511 0.00533609709332612 -5.58042119367404e-17)
(0.84522523286634 0.00255877408728266 4.11496839577588e-17)
(0.714451093095295 0.00500518738530565 1.49570395672329e-16)
(0.85725945861561 0.00229584585176112 1.63126625164477e-17)
(0.734601733264267 0.0044746088981151 6.80704330213496e-17)
(0.870028166037381 0.00197683763474291 6.11620277424647e-17)
(0.755654159793097 0.00389734662289954 2.86101353944319e-17)
(0.883950783814599 0.00160874004956558 4.89469502014224e-17)
(0.779256228256436 0.0031576126198299 1.68365575005664e-16)
(0.89851568135619 0.00119751550769161 -1.53792132412788e-17)
(0.802769862098037 0.00238348351577205 -1.73131066746275e-17)
(0.914779360819204 0.000866800394426764 -1.80057943800862e-17)
(0.831036236798437 0.00153362018984745 -3.21820305435971e-17)
(0.931508225000458 0.000450177659710294 -4.94421898497308e-17)
(0.85663858472383 0.0008864614973617 -2.74988251663059e-17)
(0.951460173077738 0.000183896164096019 -4.34443587350441e-17)
(0.892195169263604 -0.000129874496805786 -1.16180453451241e-16)
(0.971532039622472 -0.000135568205995119 -6.70205993554377e-18)
(0.920047037800523 -0.000529203722953928 -7.15316393010777e-18)
(0.995585418545073 8.04203886067422e-05 2.36171183003944e-18)
(0.969954778541868 -0.00119682384324254 -1.86977272623137e-17)
(0.9940700067218 8.7689161071592e-05 1.03702281121233e-17)
(0.987903719265726 8.72120043783813e-05 2.81820520118721e-17)
(0.995985734725771 0.00010349345215818 2.42327660436259e-18)
(0.978551937460442 -0.000120789647078232 1.29913825101221e-17)
(0.995263305554573 5.76795414500868e-05 -4.24260252111054e-18)
(0.984502311545236 9.35134767183986e-06 1.28667607345257e-17)
(0.995465444077729 6.50901739281006e-05 1.07284946789778e-17)
(0.979841033932936 -7.22376588133396e-05 -1.34846880096214e-17)
(0.994467999582135 4.28902175221773e-05 8.14070528719414e-18)
(0.980710716608865 -2.38443082618214e-05 4.07933126120522e-17)
(0.993700988337939 2.19931472286239e-05 -4.8350946722102e-19)
(0.977381655934265 -6.37845715480363e-05 -1.44070713156932e-17)
(0.992427728462811 8.05869299566853e-06 1.24030122096211e-17)
(0.976038780447096 -5.59392915242359e-05 2.16209577420241e-17)
(0.991157806013829 -7.92276938298748e-06 4.18332374890878e-18)
(0.973011834597692 -8.24009026249701e-05 2.02884767963659e-17)
(0.989675653134823 -2.74585394402987e-05 -1.56940411990375e-18)
(0.970656208068401 -9.03418558211921e-05 -1.11884741824619e-17)
(0.988199706994597 -4.12378768632218e-05 3.4250897852999e-18)
(0.967642676917966 -0.000109845492887369 1.3399801431355e-18)
(0.98667951069444 -5.42078644066859e-05 9.02589959501571e-19)
(0.964945577706212 -0.000120512411715176 4.69552587787953e-18)
(0.985220785344329 -5.79301858934879e-05 -3.55378521878582e-19)
(0.962026287913406 -0.000129871355855525 -4.85797734850146e-18)
(0.983935719798592 5.5286332163865e-05 7.92052809771815e-19)
(0.959518749334223 -0.00013222759907211 3.10590147127913e-18)
(0.957575740120207 -9.72224142272003e-05 -5.48514670206403e-19)
(0.399904225789258 0.00187863997713352 -1.59070653610333e-18)
(0.258048418464545 0.00290907124395422 -3.16021192859553e-18)
(0.400754513205349 0.00197240119648178 -8.59752281636727e-19)
(0.260746358046285 0.00318023437233446 -3.29461067778063e-18)
(0.401268128207394 0.00206082877019416 -6.00207580197528e-18)
(0.261199489458696 0.00336808593729713 -4.34154042003248e-18)
(0.401467128982886 0.00216245972688601 -2.24249223723319e-18)
(0.261612314390489 0.00359470383088654 -1.3242214415911e-17)
(0.40148478712907 0.00222060142107408 7.49729257087813e-18)
(0.26165020004955 0.00372614894645624 4.68446330855694e-18)
(0.401426441180465 0.00224908253265106 5.04322459873859e-18)
(0.261566610493598 0.00378876300256886 1.0782958874747e-17)
(0.401343535867362 0.00226267199707385 3.09288442327787e-18)
(0.261435211595672 0.00381595594931704 -4.02232053012144e-19)
(0.401254833818933 0.00227093691159629 -4.26676191775059e-18)
(0.261291461855271 0.00382873947364575 -2.1208420624372e-18)
(0.401166285556186 0.00227868186270569 -2.80009295280188e-17)
(0.261145811299838 0.00383795923860715 -1.801204738945e-17)
(0.401079947242288 0.00228606414596564 -4.81634159359219e-17)
(0.261001915412684 0.00384744125621666 -5.89923916989623e-17)
(0.400994702504881 0.00229223769995473 -6.93349504508453e-17)
(0.260859980750475 0.00385552182773013 -5.98807009093531e-17)
(0.400909953672932 0.00229808190650154 -1.01298179723524e-16)
(0.2607186958086 0.003862654125105 -1.11543030751172e-16)
(0.400826256306252 0.0023042122727918 -1.04889394660583e-16)
(0.260577759031664 0.00387005508087423 -1.21057689827074e-16)
(0.400743969343864 0.00231025570590109 -8.53111814710878e-17)
(0.260438204961733 0.00387772315243946 -1.01192669563782e-16)
(0.400661755995224 0.0023163979819426 -4.41976544615159e-17)
(0.260299369479943 0.00388501765467299 -1.09004745954337e-16)
(0.400579285637093 0.00232317350695557 -2.18299870328485e-18)
(0.260160257127557 0.0038930007654361 1.366374866596e-18)
(0.400497688061945 0.0023293965609467 2.9359710355498e-18)
(0.260021441471513 0.003901484026982 7.88488413742381e-18)
(0.400416973105393 0.00233451339778691 1.22272824297595e-17)
(0.25988364689571 0.00390831100072547 -1.31549223986556e-18)
(0.400336753437525 0.0023400414545202 -2.2966822308251e-17)
(0.259746415035499 0.00391459473153213 3.17218189175269e-18)
(0.4002570661272 0.00234684782456876 -2.64486906317745e-17)
(0.259609285032709 0.003922283559493 -7.04253415043427e-17)
(0.400178279828364 0.00235376920654588 2.2504087218008e-17)
(0.259473191540437 0.00393116370893469 2.569979762236e-17)
(0.400099596774071 0.00235982435658315 3.88941488503816e-18)
(0.259337876437014 0.003939143533653 7.12575145419797e-17)
(0.40002161980084 0.00236560841560093 -2.86690159471254e-17)
(0.259202566141256 0.00394632224187589 -1.45693963417899e-17)
(0.39994596410464 0.00237161291992116 -4.3546329142882e-17)
(0.259068662694841 0.00395364553097131 -6.5564808784835e-17)
(0.399872336961841 0.00237798005910182 2.36848511862729e-17)
(0.258937210237346 0.00396126184605973 -2.36909171876555e-17)
(0.399799343158039 0.00238481914335225 2.49693937659392e-17)
(0.258807070567102 0.00396943639685474 9.22544845972361e-17)
(0.399727398249314 0.00239235412961127 -2.42396400583124e-17)
(0.258677216458709 0.00397818091089964 -4.33366133352603e-17)
(0.399658481190505 0.00239994066114588 -1.05837247051047e-17)
(0.258550000240672 0.00398773827606182 1.06696081380892e-18)
(0.39959135186471 0.00240710246697822 6.15179159737438e-17)
(0.258425951584738 0.0039966204723673 1.11403553706534e-17)
(0.399526006251832 0.00241462141828723 1.31101145134505e-16)
(0.258303025351359 0.00400545003507425 1.98691613122279e-16)
(0.399464353581346 0.00242289515809901 1.14749458497341e-16)
(0.258183055883589 0.00401503120406675 1.52388151065124e-16)
(0.399407018127151 0.00243121162144482 8.52322039366032e-17)
(0.258067909907143 0.00402540825100694 1.47567988002156e-16)
(0.399352968700551 0.00243949867277396 4.53983454382961e-18)
(0.257956664615373 0.00403516834129047 3.6925772108442e-17)
(0.399302862710351 0.0024494570900743 -4.50395947479578e-17)
(0.25784892473554 0.00404571620824928 -7.3707857073938e-17)
(0.399259419717671 0.00245991809746957 -9.34452478635751e-17)
(0.257747295867491 0.00405885223737418 -4.51397386257341e-17)
(0.399222034462738 0.002469674121579 -1.08081208006044e-16)
(0.257653078244245 0.00407049333013925 -1.44240241255116e-16)
(0.399190592948917 0.00248094866303834 -7.04597478627895e-18)
(0.257565250261746 0.00408242286301849 -1.29687903728796e-16)
(0.399167133717756 0.00249430703072525 5.02780568050792e-17)
(0.257484727493368 0.00409728612998362 6.17287742097922e-17)
(0.399154220316701 0.00250733546628345 1.86761540365597e-17)
(0.257415357328872 0.0041135400575136 4.03528982113489e-17)
(0.3991516670861 0.0025202609362319 -1.66821005141009e-17)
(0.257357819397656 0.00412782025305221 -1.08696907398526e-18)
(0.399160598164046 0.00253718019813819 -3.11098895902898e-17)
(0.257311783734163 0.00414427011997531 -3.65397277074171e-17)
(0.399185292870601 0.00255622750252194 -2.38233145203435e-17)
(0.257281722334914 0.00416682452744474 -5.20146452678161e-17)
(0.399226629806122 0.0025738170448148 -4.07293392285445e-17)
(0.257271103212107 0.00418780583297905 -3.11573448648115e-17)
(0.399286567088403 0.00259332848008557 -1.72927989240077e-17)
(0.25727998191437 0.00420766034833003 -1.19665608715382e-16)
(0.399370172501804 0.00261871271202425 9.62937192708884e-17)
(0.257311878103233 0.00423290094532395 4.95225274855947e-17)
(0.39948296626173 0.00264597063098411 9.68656871183001e-17)
(0.25737589728834 0.00426499775678708 1.41593494324364e-16)
(0.399624661710968 0.00267264878442959 8.2979278194975e-17)
(0.257474303683736 0.00429440159541818 4.38501988160718e-17)
(0.399800990631803 0.00270645157604852 7.26430926540427e-17)
(0.257607014368465 0.00432616790714075 1.51974723949587e-16)
(0.400024592847773 0.00274666198203113 -1.46298007884761e-17)
(0.257788419948651 0.00437027209867644 2.34325261988989e-17)
(0.400298609931326 0.00278601532481508 7.68446544329336e-20)
(0.258029925510154 0.00441554532880661 2.01089699690189e-17)
(0.400627842222979 0.00282881941571539 1.61913832973218e-17)
(0.258331190371038 0.00445849857232027 6.79844173847024e-17)
(0.401026706461036 0.00288590351190749 -1.57427147421587e-16)
(0.258702905946441 0.00451187296056575 -1.21260689829743e-17)
(0.401514756249051 0.00294744901204813 -2.0253503077123e-16)
(0.259172131432846 0.00458417762189757 -3.35218834317373e-16)
(0.402096627354119 0.00300604377422138 -1.53029394475534e-16)
(0.259750824009133 0.00464701920260768 -1.34018143535411e-16)
(0.402787331968518 0.00308230798490849 -2.03096369143814e-16)
(0.260443792778559 0.00471516373134214 -2.63545862012331e-16)
(0.403617573803815 0.00317542302661826 -1.6733776770061e-16)
(0.261284701359278 0.00481440372326711 -2.96010438889761e-16)
(0.404607230477347 0.00326487895706816 -5.52455833162307e-17)
(0.262310486940482 0.0049175114150203 -1.71319465708351e-16)
(0.405777507461506 0.0033593861843679 -9.01838938742821e-18)
(0.263535427143784 0.00500969023428799 2.53034650053548e-17)
(0.407165388665163 0.0034910976561063 -5.62462582326216e-17)
(0.264988044997753 0.00512591120693052 -2.98181186039392e-17)
(0.408827718723653 0.00363294235997727 -5.24596850251646e-17)
(0.266745980544537 0.00529321529793958 -1.05299328223137e-16)
(0.410789846498016 0.00376095529931046 -4.39575646376342e-17)
(0.268853597623093 0.00542976702321272 -2.01398510323327e-17)
(0.413104317230394 0.00392766463302946 3.01954271694973e-17)
(0.271336745784264 0.00557293513747215 -8.3778389160303e-17)
(0.41586124452416 0.00413106445136751 8.88071506117462e-17)
(0.27429822729476 0.00578643859500897 1.4595322420527e-16)
(0.419129958113021 0.00431934981764203 5.18230163111699e-17)
(0.277851509948883 0.00600332220602247 7.53838635804202e-17)
(0.423010495065433 0.00451735155340158 2.39525175910577e-16)
(0.2820609216424 0.00618445727546693 5.71319370633288e-17)
(0.427691846301851 0.00485654162731454 2.92751025927736e-16)
(0.287047853993923 0.00643579762316673 4.52229173628097e-16)
(0.433527358125036 0.00528229801865805 5.30626493095771e-17)
(0.293196672399275 0.00690374378923367 1.55264759184216e-16)
(0.440818606522309 0.00570325067620395 -3.92331530115108e-18)
(0.300896876460883 0.00733067189561318 -4.49285060597461e-17)
(0.449881893012053 0.00630966573296424 6.02389019510523e-17)
(0.310426889261985 0.00782336350666698 1.37381617348784e-16)
(0.461058791377391 0.00701294265064321 1.30927748127884e-16)
(0.322352571213524 0.00861319861423381 1.17323516868596e-16)
(0.474454751761261 0.00750803153340066 1.47353822930122e-16)
(0.337014732444535 0.00927372427743287 1.86190123660347e-16)
(0.49013238136303 0.0078274544453299 1.12872083046507e-17)
(0.354475560285813 0.0096232222171987 1.51706557995651e-16)
(0.508157347234592 0.00806103116520326 -9.12835762612525e-17)
(0.37470633556574 0.00987152658020742 -1.19783440072119e-16)
(0.528615046245159 0.00804329474057997 3.40274638616719e-18)
(0.398040289270889 0.0099550172594702 -1.24583266241527e-16)
(0.551406924812818 0.00774290460504755 1.55331729753376e-17)
(0.424167567253715 0.00963375305945982 1.33944212328482e-16)
(0.576529527599226 0.00729239776724462 8.51702475295372e-17)
(0.453362082489381 0.00908423439461479 -2.14839562530087e-17)
(0.603881171276724 0.00662657126344754 1.75900602137473e-16)
(0.484914376754136 0.0083609492619587 2.54630573969818e-16)
(0.633490818967005 0.00579318878713692 8.00184899887802e-17)
(0.519886050567486 0.00732572901162021 1.77959672460674e-16)
(0.665203028345779 0.00480552901659204 1.36605619347322e-16)
(0.556348941548244 0.00619932910219099 5.54308097897315e-17)
(0.699282206494775 0.00368909089618001 1.00454205115358e-16)
(0.597360448046375 0.00478778901741483 2.93068091631084e-16)
(0.735522253112765 0.00246797191446283 -3.41567359832477e-17)
(0.637991438093638 0.00335398396592198 -3.61941623375902e-17)
(0.774852938209454 0.00137137024516762 -4.14710640931495e-17)
(0.686555449904265 0.00173779706412623 -3.20442006760706e-18)
(0.816981121767161 8.27910300564807e-05 -9.47853985639387e-17)
(0.7309317568781 0.000438922955575797 -5.42502018159845e-17)
(0.86409805070487 -0.00093006273283823 -7.80922484128728e-17)
(0.791965391273946 -0.00148236567945138 -1.51389535036604e-16)
(0.915662929812295 -0.00188909610564897 -1.91632610009192e-17)
(0.839280543273208 -0.00239201493794907 -1.37126556396786e-17)
(0.969578596475128 -0.000913438252329879 7.36762465126613e-18)
(0.924572724954524 -0.00367771914021722 -1.02572809917732e-17)
(0.968962096503546 -2.91740515422919e-05 3.05613587243098e-17)
(0.954859745594327 0.000145675234854148 5.51977301829639e-17)
(0.969604992949453 1.68155167021565e-06 2.32483121270321e-17)
(0.937954458026551 -0.000193254695941617 2.56194442957435e-17)
(0.967887279544596 -4.09510550296803e-05 3.52235106991725e-18)
(0.947387977349517 1.53551329120557e-05 2.56596225023404e-17)
(0.96616103719144 -2.20388600126541e-05 1.6642407330121e-17)
(0.938644985412297 -0.000112922650832042 -2.69625616653556e-17)
(0.963284726079769 -4.07878953530218e-05 1.8067590218336e-17)
(0.939568476489166 -3.70726755463212e-05 6.59728127123996e-17)
(0.960227848944925 -6.37902253705032e-05 7.72752521425001e-18)
(0.933386755758356 -9.93486559960473e-05 -1.81211448635006e-17)
(0.956616424666519 -7.84531460419811e-05 2.94130577317404e-17)
(0.930709907446932 -8.63931558757105e-05 4.28897884154691e-17)
(0.952803759654112 -9.8698515988233e-05 4.83539039784716e-18)
(0.925191782945221 -0.000127160176567639 3.37708052933514e-17)
(0.948726309531946 -0.00012314576426056 -8.22034478079817e-18)
(0.920875776566964 -0.000139169301184175 -2.23452802148472e-17)
(0.944582709110474 -0.000141170311870148 2.62185946392403e-18)
(0.915441441034227 -0.000168971394316469 -1.99772839590177e-18)
(0.940419702834077 -0.000155924275232332 -1.08219547770259e-18)
(0.910562493761551 -0.000185146585729282 5.0847075468366e-18)
(0.936415902468548 -0.000155960373080003 -1.37398068633933e-18)
(0.905300752653988 -0.000200251582925185 -7.24193205130039e-18)
(0.932995879858546 3.71671575901368e-06 1.75028103720941e-18)
(0.900729393699347 -0.000210464760683324 5.6208256129032e-18)
(0.896642738631032 -0.000134561072152296 -1.05043632220759e-18)
(0.118143666224072 0.00413286861903793 -4.8781745855139e-18)
(0.0125267207654498 0.00533451364918329 -4.00828319932994e-18)
(0.119773885972949 0.004605073343549 -6.80320653614042e-18)
(0.0159007675409881 0.0057195044842269 -6.15471064370094e-18)
(0.120459667306702 0.00497967501682258 -1.1622994080372e-17)
(0.0164396677086837 0.0063871397445145 -7.27373602385246e-18)
(0.120655525570033 0.00524327710239235 -6.29468396789481e-18)
(0.0168089680223495 0.00685608761838194 -1.59051279278842e-17)
(0.120606049724582 0.00538236886889266 7.98484200063118e-18)
(0.0167587838626493 0.00710927435433067 6.00998635118979e-18)
(0.120458202775264 0.00544498638824287 5.31493003556463e-18)
(0.0165809231209753 0.00722286980451213 1.50649288338084e-17)
(0.120277499902702 0.00547202735725266 -5.65413054713851e-18)
(0.0163538273863467 0.0072698115520389 -3.15614761277e-18)
(0.120088187706034 0.00548614721834268 -1.59460871689643e-17)
(0.0161136368984196 0.00729048416812325 -1.78424145091752e-17)
(0.119898420002462 0.00549744548345269 -4.91749707806425e-17)
(0.0158709195561215 0.00730378061252084 -2.19362213716277e-17)
(0.119710900502852 0.00550794367142406 -7.07980708973149e-17)
(0.0156298604826119 0.0073162850679843 -6.79215070657494e-17)
(0.119524615310685 0.00551727924466378 -1.02329230388431e-16)
(0.0153907935162924 0.00732753530135942 -6.24199954601969e-17)
(0.119338625552037 0.00552628354824487 -1.31436668386267e-16)
(0.0151521492806939 0.00733796850477595 -1.42686586249147e-16)
(0.119153402429997 0.00553555780839819 -1.17361315253754e-16)
(0.014913673732852 0.00734864034216162 -1.25050563924322e-16)
(0.118969182725849 0.00554480119260236 -1.25049387075982e-16)
(0.0146762038144943 0.00735956158370069 -1.192792273538e-16)
(0.118785024525158 0.00555421349439829 -6.32490464119554e-17)
(0.0144392024889145 0.00737022504525969 -1.53250338666303e-16)
(0.118601052568177 0.00556420602051402 1.14985796575287e-17)
(0.0142020375977085 0.00738150198091799 -1.46950957219225e-17)
(0.118418154286415 0.00557360635490424 3.61352488462988e-18)
(0.013965628388151 0.00739316266987898 1.67922163903147e-17)
(0.118235699579876 0.00558190428561036 -1.04383885587515e-17)
(0.0137301346554985 0.00740333471406753 -3.48961474750679e-18)
(0.118053168524514 0.00559064011262393 -4.45436032760622e-17)
(0.0134945096621744 0.00741299601305777 -4.23317370421688e-17)
(0.117871301166028 0.00560069958200892 -1.80056840606839e-17)
(0.0132588213561381 0.00742396929050066 -8.53524089524349e-17)
(0.117690779103051 0.00561091913561101 7.47447541186808e-17)
(0.0130244433276473 0.00743605282273609 4.65968976274653e-17)
(0.117510811906077 0.00562027242738311 5.27374573026367e-17)
(0.0127912458993797 0.00744734805138372 1.15166241842446e-16)
(0.117331433735961 0.0056292821796253 -5.16745188269055e-17)
(0.0125582457965473 0.00745785597308442 3.93805315043188e-17)
(0.117153737177952 0.00563851860116442 -4.56041527719804e-17)
(0.0123262422540316 0.00746845714077858 -5.52535666614971e-17)
(0.116977742189811 0.00564820973799071 4.5261753252237e-17)
(0.0120960558602982 0.00747937076379876 4.46738673967624e-17)
(0.116802809863469 0.00565850772961259 2.35707011311485e-17)
(0.0118671849993096 0.00749085871480248 9.66585828564702e-17)
(0.116629590240233 0.00566954461786271 -1.78862227479942e-17)
(0.0116392888334783 0.00750297392330423 -4.60193784273444e-17)
(0.116459540865506 0.00568066324250817 2.29216943976907e-17)
(0.011414218654329 0.00751582596639141 4.37410350583e-18)
(0.116291838726098 0.00569141178501736 1.49118358533389e-16)
(0.0111923861207117 0.00752810417479886 6.47751066777969e-17)
(0.116126438989794 0.00570253249333507 2.20106193655478e-16)
(0.0109723593359992 0.00754031124869043 2.78523914231702e-16)
(0.115965032352532 0.00571446610232565 1.85398289635531e-16)
(0.0107554528138427 0.00755325305322258 1.49933485496802e-16)
(0.11580847628489 0.00572651076114876 9.89655662029532e-17)
(0.0105435309428062 0.00756696540063602 1.86683485337336e-16)
(0.115655907636269 0.0057386776248021 -4.17941476513146e-17)
(0.0103361428057148 0.00758014465920382 -1.19911297294143e-17)
(0.115508419526699 0.00575262085569003 -7.3798430326606e-17)
(0.0101327318153354 0.00759417462022162 -8.07207501283273e-17)
(0.115368928580142 0.00576714991990917 -9.62588755297953e-17)
(0.00993651775198288 0.00761063405512485 -5.15074504391641e-17)
(0.115236725618172 0.00578108662481583 -1.65955626009816e-16)
(0.009748818489498 0.00762577555533343 -1.37503297559199e-16)
(0.115111960875985 0.00579673462181169 -6.04210591273697e-17)
(0.00956815823624839 0.00764120874770823 -1.52161743227457e-16)
(0.114997873027073 0.00581466329943057 5.17353210218884e-17)
(0.00939654784444177 0.00765956536431437 4.54557567601798e-17)
(0.114897012336024 0.00583231332182284 2.04519180021928e-17)