/*--------------------------------*- C++ -*----------------------------------*\
  =========                 |
  \\      /  F ield         | OpenFOAM: The Open Source CFD Toolbox
   \\    /   O peration     | Website:  https://openfoam.org
    \\  /    A nd           | Version:  8
     \\/     M anipulation  |
\*---------------------------------------------------------------------------*/
FoamFile
{
    version     2.0;
    format      ascii;
    class       volScalarField::Internal;
    location    "0.0355000";
    object      V0;
}
// * * * * * * * * * * * * * * * * * * * * * * * * * * * * * * * * * * * * * //

dimensions      [0 3 0 0 0 0 0];

value           nonuniform List<scalar> 
600
(
6.08424490020906e-14
6.01259357931838e-14
5.94095123654214e-14
5.86934373087678e-14
5.79777236301169e-14
5.72624363343445e-14
5.65477501228723e-14
5.5833617890566e-14
5.51198416824304e-14
5.44065142421444e-14
5.36937091035509e-14
5.29813541536225e-14
5.22693486971156e-14
5.15578018719965e-14
5.08467438667165e-14
5.01360817237274e-14
4.94257718980629e-14
4.87159454146256e-14
4.80066019998001e-14
4.72976107362612e-14
4.65890167898047e-14
4.58809139694382e-14
4.51732727818185e-14
4.44659867409554e-14
4.37591509438618e-14
4.30528312619688e-14
4.23469564433643e-14
4.16414491512649e-14
4.0936467723273e-14
4.02320477766275e-14
3.95280449729609e-14
3.88244714936215e-14
3.81215168295177e-14
3.74191716478594e-14
3.67172393951502e-14
3.60158697435797e-14
3.5315248252219e-14
3.46152838140638e-14
3.39157505989867e-14
3.32170414242818e-14
3.25193217670873e-14
3.18222700518952e-14
3.11258165676873e-14
3.04306095155893e-14
2.97367320800631e-14
2.90435469232533e-14
2.83515024570922e-14
2.76613535996696e-14
2.6972902074498e-14
2.62852709850342e-14
2.55999033611122e-14
2.49175879922887e-14
2.42371995464977e-14
2.3558379979063e-14
2.28837689469189e-14
2.22137532363294e-14
2.15457166461417e-14
2.0881706543984e-14
2.02247789684685e-14
1.95739256684989e-14
1.89253864060098e-14
1.82856025455314e-14
1.76570977843184e-14
1.70350022756658e-14
1.6418496521933e-14
1.5830918678178e-14
1.52795768641392e-14
1.47434285822017e-14
1.42459434509665e-14
1.37965131928578e-14
1.33699509901133e-14
1.29608543683528e-14
1.2589589004416e-14
1.22450047380517e-14
1.19055772719657e-14
1.15831812886313e-14
1.12674426833922e-14
1.09459703962026e-14
1.06268948477083e-14
1.02863124831792e-14
9.91281005599838e-15
9.53262757860314e-15
9.114721404692e-15
8.63284796269613e-15
8.11718054603865e-15
7.60727124054575e-15
7.36245239607749e-15
7.36454840108419e-15
7.35588739311917e-15
7.31084256900939e-15
7.24306754510674e-15
7.17764663769025e-15
7.10376633901926e-15
7.02246903116568e-15
6.94025720017277e-15
6.8563574694647e-15
6.77253158121723e-15
6.69136502458801e-15
6.59987980083603e-15
6.46369014800551e-15
6.30586525648409e-14
6.22922700996846e-14
6.15260733416755e-14
6.07610804727223e-14
5.99972137705512e-14
5.92344314257566e-14
5.84727360752464e-14
5.77121079303057e-14
5.69525133668718e-14
5.61939449909542e-14
5.54364053675896e-14
5.46798779199528e-14
5.39243474128978e-14
5.31698187467517e-14
5.2416293532897e-14
5.16637573861246e-14
5.09122068737696e-14
5.01616552992979e-14
4.9412102457841e-14
4.8663535162497e-14
4.7915957516023e-14
4.71693841157313e-14
4.64238130991129e-14
4.56792387579977e-14
4.4935673940249e-14
4.41931321209478e-14
4.34516085998379e-14
4.27111062598686e-14
4.19716489526352e-14
4.12332487485451e-14
4.04958995514194e-14
3.97596171127524e-14
3.90244369788685e-14
3.82903702883214e-14
3.75574178873865e-14
3.68256163174784e-14
3.60950113980269e-14
3.53656126508592e-14
3.46374437834825e-14
3.39105834381742e-14
3.31850906116575e-14
3.24609748871016e-14
3.17383057607377e-14
3.10172238196207e-14
3.02978044357802e-14
2.95800848273809e-14
2.88642225146607e-14
2.81504234926373e-14
2.74387701236521e-14
2.67293883908758e-14
2.60226126847633e-14
2.53187247728967e-14
2.46178175179381e-14
2.39202035894794e-14
2.32264697625654e-14
2.25369476076918e-14
2.18518337301733e-14
2.1171810335545e-14
2.04977179212017e-14
1.98298665524136e-14
1.91688258227651e-14
1.85161195253114e-14
1.78732985082295e-14
1.72419366036732e-14
1.66263470307246e-14
1.60332720360826e-14
1.5467106966519e-14
1.493013926779e-14
1.44257399222282e-14
1.39548779755656e-14
1.35137078488082e-14
1.30992479560093e-14
1.27105153353174e-14
1.23432990533181e-14
1.19912741922176e-14
1.16495455494703e-14
1.13125986386612e-14
1.09740645781366e-14
1.06275431620855e-14
1.02647293822174e-14
9.87943652260585e-15
9.46784099347909e-15
9.02121378073503e-15
8.53200658593101e-15
8.00008104789514e-15
7.46757187903116e-15
7.23639009125005e-15
7.26152510504799e-15
7.25647928165419e-15
7.22589320877063e-15
7.17639751031203e-15
7.11587000441847e-15
7.04736130818641e-15
6.97293267852427e-15
6.89521125720636e-15
6.81609060080369e-15
6.73731961506373e-15
6.66047125996188e-15
6.58751334771876e-15
6.53404291764209e-15
6.52665081399096e-14
6.44506005699861e-14
6.3635141122129e-14
6.28215054051471e-14
6.20095697706119e-14
6.11992927035869e-14
6.03906775494525e-14
5.9583703008854e-14
5.87783331197371e-14
5.79745606087697e-14
5.71723882451745e-14
5.63717981324296e-14
5.55727739069765e-14
5.47753211181135e-14
5.39794413208121e-14
5.3185118848571e-14
5.23923498579521e-14
5.16011487495303e-14
5.08115149681213e-14
5.00234338794719e-14
4.92369099412451e-14
4.84519586691643e-14
4.76685775726297e-14
4.6886759884774e-14
4.61065194015642e-14
4.53278701998755e-14
4.45508064823461e-14
4.37753305253983e-14
4.3001467953572e-14
4.22292310014588e-14
4.14586117552152e-14
4.06896263491949e-14
3.99223126358102e-14
3.91566812447282e-14
3.83927308363462e-14
3.76304998976179e-14
3.68700366742226e-14
3.61113488989533e-14
3.53544580943512e-14
3.45994480964205e-14
3.3846379851581e-14
3.30952580540987e-14
3.23461520819448e-14
3.15992118067581e-14
3.08545125117804e-14
3.01120824036325e-14
2.93720856896779e-14
2.86347398425328e-14
2.79001208243653e-14
2.71683424367132e-14
2.64397613945829e-14
2.57146700394901e-14
2.49931376080525e-14
2.42754713029367e-14
2.35623016693804e-14
2.28539586275997e-14
2.21505888538898e-14
2.14529058661487e-14
2.0761802636032e-14
2.00775489815055e-14
1.94006419133643e-14
1.87327084000564e-14
1.80753236758689e-14
1.7429908607465e-14
1.68007538336565e-14
1.61950175623824e-14
1.56171458024219e-14
1.50690274059945e-14
1.45543519358307e-14
1.40741835722165e-14
1.36242110400109e-14
1.32013403816606e-14
1.28046962223754e-14
1.24299025474223e-14
1.20704155036899e-14
1.17212273632092e-14
1.13767279999641e-14
1.10304458216142e-14
1.06756793378697e-14
1.03044281367269e-14
9.91047740338864e-15
9.4890452232572e-15
9.03227031371306e-15
8.5335497661228e-15
7.99143133461753e-15
7.44977502983627e-15
7.21881652457234e-15
7.24606972549334e-15
7.24262133339259e-15
7.21440130069358e-15
7.16762959234881e-15
7.10882307435833e-15
7.04178065135846e-15
6.96888951407672e-15
6.89251949877517e-15
6.81467222843219e-15
6.73718713518617e-15
6.66201104822355e-15
6.59321344298353e-15
6.54651445624439e-15
6.74785729024851e-14
6.66129857537017e-14
6.57481454723158e-14
6.48857727911746e-14
6.40256778999507e-14
6.31678174857123e-14
6.23121942970101e-14
6.14587859536535e-14
6.06075551133401e-14
5.97584939075433e-14
5.89116048049591e-14
5.80668691375926e-14
5.72242698656474e-14
5.63838124255847e-14
5.55454981565844e-14
5.47093107920969e-14
5.38752462286244e-14
5.30433190329095e-14
5.22135284325109e-14
5.13858592784002e-14
5.05603159852965e-14
4.97369142664692e-14
4.89156514051214e-14
4.80965203463851e-14
4.72795350642468e-14
4.6464709774516e-14
4.5652038385409e-14
4.4841523111443e-14
4.40331899937693e-14
4.32270513277784e-14
4.24230988694789e-14
4.16213489775956e-14
4.08218401102536e-14
4.00245828834727e-14
3.92295757775399e-14
3.84368579002264e-14
3.76464781848693e-14
3.68584442434792e-14
3.60727778820533e-14
3.52895642900676e-14
3.45088651242375e-14
3.37306848455018e-14
3.29550939083628e-14
3.21822444090166e-14
3.14122122791603e-14
3.06450258120987e-14
2.98808515364128e-14
2.91199095922399e-14
2.83622761430769e-14
2.7608066250001e-14
2.68576411153296e-14
2.61112956612718e-14
2.5369098614746e-14
2.4631360443537e-14
2.3898718102707e-14
2.31715027523513e-14
2.24498608293088e-14
2.17345119875735e-14
2.10263553115075e-14
2.03256585674422e-14
1.96329208234026e-14
1.89497809367176e-14
1.82778227371754e-14
1.76184739366655e-14
1.6976058870776e-14
1.63577855510288e-14
1.57681128791628e-14
1.52089162744593e-14
1.46838722340188e-14
1.4194007059602e-14
1.37349279287189e-14
1.33034543131821e-14
1.28986464368524e-14
1.25160519388415e-14
1.2149036265577e-14
1.17925100178776e-14
1.14407901224367e-14
1.10873439536892e-14
1.07254156951713e-14
1.03469642174052e-14
9.94574268463723e-15
9.51693310601934e-15
9.05271731770927e-15
8.54654929570315e-15
7.99697111604995e-15
7.44898563776381e-15
7.21802915194923e-15
7.245309302221e-15
7.24215291862221e-15
7.21447218816072e-15
7.16838639596464e-15
7.11024981202625e-15
7.04387925148924e-15
6.97167558622433e-15
6.89596743109023e-15
6.81875699694336e-15
6.74190072180599e-15
6.66741193081014e-15
6.59948495449102e-15
6.55358537885037e-15
6.96945394666354e-14
6.87791870627651e-14
6.78648738754188e-14
6.69536808955655e-14
6.60453460421186e-14
6.51398225129046e-14
6.42371124569464e-14
6.33371926790819e-14
6.24400243419093e-14
6.15455987874804e-14
6.06539183058132e-14
5.97649635657943e-14
5.8878716703967e-14
5.79951829833799e-14
5.71143636846415e-14
5.62362419575714e-14
5.53608132698927e-14
5.44880923796347e-14
5.36180784721594e-14
5.27507558388755e-14
5.18861287128401e-14
5.10242130788747e-14
5.01650061042762e-14
4.93085003566785e-14
4.84547099256382e-14
4.76036492923728e-14
4.67553121098409e-14
4.59097003794693e-14
4.50668405578389e-14
4.42267451806578e-14
4.33894056395597e-14
4.25548383336098e-14
4.17230824062914e-14
4.08941486331627e-14
4.00680351774889e-14
3.92447816141707e-14
3.8424437749559e-14
3.76070111618524e-14
3.67925236433121e-14
3.59810616996134e-14
3.5172688035351e-14
3.43674067801386e-14
3.35652890022754e-14
3.27664891904472e-14
3.19710843372647e-14
3.11791024302539e-14
3.03907118958628e-14
2.96061360465322e-14
2.88254514463164e-14
2.8048773486386e-14
2.72764678314742e-14
2.65088330082974e-14
2.57459367852293e-14
2.49880914947107e-14
2.42359413599292e-14
2.34898199083934e-14
2.27498716354123e-14
2.20168214504491e-14
2.12915766047127e-14
2.05744027069462e-14
1.98657971752179e-14
1.91674108455566e-14
1.84808369017036e-14
1.78075028713998e-14
1.71517598281206e-14
1.65208742748096e-14
1.59193251027956e-14
1.53489684267218e-14
1.48134710321407e-14
1.43138242166167e-14
1.384554522022e-14
1.3405360627553e-14
1.29922639215325e-14
1.26017241824639e-14
1.22270157688392e-14
1.18629707893573e-14
1.15038398044416e-14
1.11430413110942e-14
1.07737836872142e-14
1.03879965036874e-14
9.97942963524705e-15
9.54328400767342e-15
9.0717699394729e-15
8.55839243076075e-15
8.0018156425014e-15
7.44810095318809e-15
7.21727886542805e-15
7.24423916213047e-15
7.24107103834658e-15
7.21363503749582e-15
7.16794926386316e-15
7.11029666138611e-15
7.04445573062356e-15
6.97280680838845e-15
6.89765770636682e-15
6.8209955845151e-15
6.74466664931888e-15
6.6706659570253e-15
6.60308041333505e-15
6.55721092153596e-15
7.1911861725206e-14
7.09357494812619e-14
6.99718549550179e-14
6.90117129445477e-14
6.80550120240736e-14
6.71016989489157e-14
6.61517756632018e-14
6.52052187769391e-14
6.42619880740328e-14
6.33220734518343e-14
6.23854769827113e-14
6.14521793036199e-14
6.05221616517168e-14
5.959542876534e-14
5.86719817827468e-14
5.77518036935709e-14
5.68348894023938e-14
5.5921253770188e-14
5.5010896061387e-14
5.41038000724579e-14
5.31999696636711e-14
5.22994209977355e-14
5.14021516751811e-14
5.05081538776869e-14
4.96174408313475e-14
4.87300276389324e-14
4.78459083416685e-14
4.69650841980553e-14
4.60875821697605e-14
4.52134152261998e-14
4.43425743969432e-14
4.34750756734734e-14
4.26109589985456e-14
4.17502355795842e-14
4.08929031438341e-14
4.00390011842749e-14
3.9188580553491e-14
3.83416495655263e-14
3.74982289689369e-14
3.66584059682667e-14
3.58222453203722e-14
3.49897510502173e-14
3.416099331342e-14
3.33361287259979e-14
3.25152370070264e-14
3.16983448416326e-14
3.08856205889246e-14
3.00772918017457e-14
2.92734366839174e-14
2.84741689027013e-14
2.76798566783531e-14
2.68908044551204e-14
2.61070799102483e-14
2.53289927748981e-14
2.45571940202124e-14
2.37920235625527e-14
2.30336220365309e-14
2.22827147843335e-14
2.15402185302961e-14
2.08064013529334e-14
2.00817529898406e-14
1.93679288795505e-14
1.86665357325551e-14
1.79789944902173e-14
1.73096556657196e-14
1.66658369679711e-14
1.60520633493486e-14
1.54701720064161e-14
1.4923811696545e-14
1.44139689741555e-14
1.3936090222396e-14
1.34867976574368e-14
1.30650251291733e-14
1.26661893554791e-14
1.22834807657095e-14
1.19116585982314e-14
1.154492451958e-14
1.11766569264974e-14
1.08000426063062e-14
1.04069949625233e-14
9.99125784815127e-15
9.54806192051651e-15
9.06965743356497e-15
8.54960018154551e-15
7.98699709856658e-15
7.42999387811463e-15
7.19952854511553e-15
7.22455145269612e-15
7.22123885606466e-15
7.19395485850111e-15
7.14854712711907e-15
7.09124341139838e-15
7.02579128480086e-15
6.9545540553859e-15
6.8798241823581e-15
6.80357613895721e-15
6.72764392004233e-15
6.65398975798291e-15
6.58642893121571e-15
6.53702982889972e-15
)
;


// ************************************************************************* //
