/*--------------------------------*- C++ -*----------------------------------*\
| =========                 |                                                 |
| \\      /  F ield         | foam-extend: Open Source CFD                    |
|  \\    /   O peration     | Version:     4.1-20200408                       |
|   \\  /    A nd           | Web:         http://www.foam-extend.org         |
|    \\/     M anipulation  |                                                 |
\*---------------------------------------------------------------------------*/
FoamFile
{
    version     2.0;
    format      ascii;
    class       volSymmTensorField;
    location    "0.0820000";
    object      sigmaCauchy;
}
// * * * * * * * * * * * * * * * * * * * * * * * * * * * * * * * * * * * * * //

dimensions      [1 -1 -2 0 0 0 0];

internalField   nonuniform List<symmTensor> 
1952
(
(-9.3255e+08 1.29033e+06 -5.28666 -3.75953e+08 -1.17447 -3.67559e+08)
(-8.91082e+08 308620 -3.53663 -3.70542e+08 2.82528 -3.46781e+08)
(-8.48257e+08 2.34908e+06 3.97404 -3.57343e+08 8.3532 -3.14197e+08)
(-7.8916e+08 1.04662e+06 10.9561 -3.4447e+08 -8.90315 -2.77998e+08)
(-7.16857e+08 3.40894e+06 -2.93257 -3.26727e+08 -23.3349 -2.35268e+08)
(-6.26871e+08 1.96138e+06 -14.8294 -3.09155e+08 1.89132 -1.9141e+08)
(-5.17618e+08 4.5906e+06 -4.02547 -2.88387e+08 34.402 -1.45497e+08)
(-3.9474e+08 3.04287e+06 7.22019 -2.6822e+08 -3.27029 -9.24463e+07)
(-2.56482e+08 5.89223e+06 -1.26595 -2.44056e+08 -37.2255 -4.14853e+07)
(-6.93056e+07 4.37936e+06 -5.63409 -2.21899e+08 20.8905 2.42159e+07)
(1.58158e+08 7.52076e+06 1.66062 -1.93365e+08 40.6926 8.02877e+07)
(4.49387e+08 6.19846e+06 3.68598 -1.69625e+08 -22.4056 1.82508e+08)
(7.81377e+08 9.799e+06 -0.333536 -1.32484e+08 -39.8904 2.6438e+08)
(1.06887e+09 9.26117e+06 -4.01601 -1.05047e+08 24.3093 4.31193e+08)
(1.21918e+09 1.44303e+07 -1.36124 -5.36059e+07 14.4101 5.40088e+08)
(-9.45029e+08 -93664.3 -1.17259 -3.82476e+08 3.21894 -3.8004e+08)
(-9.26881e+08 2.94271e+06 -10.5774 -3.67545e+08 -1.24147 -3.58991e+08)
(-8.85337e+08 1.15895e+06 -7.07367 -3.61945e+08 2.8849 -3.38319e+08)
(-8.42379e+08 5.48412e+06 7.95391 -3.48864e+08 8.66579 -3.05531e+08)
(-7.83167e+08 3.02995e+06 21.9246 -3.35958e+08 -8.92497 -2.69499e+08)
(-7.10582e+08 8.02042e+06 -5.86827 -3.18251e+08 -23.894 -2.26547e+08)
(-6.20385e+08 5.25478e+06 -29.6806 -3.0079e+08 1.64302 -1.82886e+08)
(-5.10918e+08 1.07439e+07 -8.0576 -2.80076e+08 35.028 -1.36716e+08)
(-3.87877e+08 7.68701e+06 14.418 -2.60164e+08 -2.94949 -8.39202e+07)
(-2.49198e+08 1.35107e+07 -2.53188 -2.36161e+08 -37.7509 -3.28344e+07)
(-6.17297e+07 1.03496e+07 -11.2272 -2.14525e+08 20.7943 3.25324e+07)
(1.66185e+08 1.64936e+07 3.29826 -1.86358e+08 41.1178 8.85872e+07)
(4.57636e+08 1.31041e+07 7.28223 -1.63591e+08 -22.3815 1.90357e+08)
(7.90365e+08 1.89979e+07 -0.66239 -1.272e+08 -40.3193 2.72126e+08)
(1.07798e+09 1.49531e+07 -7.63724 -1.01708e+08 24.2319 4.38123e+08)
(1.22926e+09 1.9138e+07 -2.33318 -5.15315e+07 14.5562 5.46621e+08)
(-9.39325e+08 -50004.1 -2.34349 -3.73821e+08 3.41078 -3.71509e+08)
(-9.24019e+08 3.23258e+06 -10.584 -3.63706e+08 -1.26495 -3.55055e+08)
(-8.82513e+08 1.55877e+06 -7.07602 -3.58037e+08 2.92456 -3.34373e+08)
(-8.39515e+08 6.08987e+06 7.96083 -3.4508e+08 8.79588 -3.01573e+08)
(-7.80238e+08 3.71419e+06 21.932 -3.32211e+08 -8.98739 -2.65634e+08)
(-7.07557e+08 8.91984e+06 -5.87358 -3.14669e+08 -24.1297 -2.22687e+08)
(-6.17286e+08 6.19823e+06 -29.6905 -2.97336e+08 1.60961 -1.79176e+08)
(-5.07795e+08 1.1903e+07 -8.07517 -2.76853e+08 35.3061 -1.3305e+08)
(-3.84727e+08 8.83905e+06 14.3955 -2.57151e+08 -2.86515 -8.04229e+07)
(-2.45987e+08 1.47971e+07 -2.53412 -2.33476e+08 -37.9527 -2.94452e+07)
(-5.84775e+07 1.15628e+07 -11.2189 -2.12175e+08 20.7732 3.56685e+07)
(1.69356e+08 1.77772e+07 3.29436 -1.84447e+08 41.2583 9.14915e+07)
(4.6035e+08 1.40958e+07 7.27276 -1.62243e+08 -22.3707 1.92867e+08)
(7.92515e+08 1.98469e+07 -0.661778 -1.26441e+08 -40.4654 2.74213e+08)
(1.07853e+09 1.53586e+07 -7.63224 -1.01598e+08 24.1615 4.39503e+08)
(1.22698e+09 1.9257e+07 -2.34461 -5.17334e+07 14.5968 5.47032e+08)
(-9.3647e+08 48252.2 -2.34695 -3.69838e+08 3.49732 -3.67582e+08)
(-9.21224e+08 3.41956e+06 -10.5941 -3.60705e+08 -1.27863 -3.52021e+08)
(-8.79727e+08 1.82682e+06 -7.08258 -3.55067e+08 2.95385 -3.3137e+08)
(-8.36708e+08 6.51813e+06 7.96874 -3.42209e+08 8.88083 -2.9858e+08)
(-7.77397e+08 4.19162e+06 21.9459 -3.29427e+08 -9.0394 -2.62707e+08)
(-7.04658e+08 9.54561e+06 -5.87954 -3.12036e+08 -24.2832 -2.19808e+08)
(-6.14301e+08 6.86269e+06 -29.7186 -2.94855e+08 1.60077 -1.76405e+08)
(-5.04836e+08 1.27076e+07 -8.08587 -2.74574e+08 35.4819 -1.30339e+08)
(-3.81813e+08 9.60969e+06 14.3753 -2.5513e+08 -2.83123 -7.78951e+07)
(-2.43052e+08 1.56329e+07 -2.53614 -2.31727e+08 -38.076 -2.70607e+07)
(-5.55607e+07 1.23204e+07 -11.2222 -2.10757e+08 20.7835 3.78272e+07)
(1.72041e+08 1.84562e+07 3.2919 -1.83366e+08 41.3498 9.35051e+07)
(4.62642e+08 1.45002e+07 7.26347 -1.61554e+08 -22.3598 1.94555e+08)
(7.94466e+08 2.00885e+07 -0.661214 -1.26021e+08 -40.5495 2.7566e+08)
(1.07956e+09 1.52483e+07 -7.62842 -1.01464e+08 24.1187 4.40549e+08)
(1.22692e+09 1.91527e+07 -2.37939 -5.16567e+07 14.6207 5.477e+08)
(-9.33674e+08 114951 -2.34917 -3.66798e+08 3.55683 -3.64544e+08)
(-9.18035e+08 3.57996e+06 -10.6007 -3.58332e+08 -1.2868 -3.49624e+08)
(-8.76572e+08 2.0463e+06 -7.08279 -3.52719e+08 2.97268 -3.28966e+08)
(-8.33544e+08 6.82717e+06 7.97695 -3.39937e+08 8.9298 -2.96214e+08)
(-7.74196e+08 4.54635e+06 21.9549 -3.27251e+08 -9.07623 -2.6039e+08)
(-7.01396e+08 9.98746e+06 -5.8859 -3.09978e+08 -24.3683 -2.1755e+08)
(-6.10977e+08 7.32814e+06 -29.7345 -2.92965e+08 1.60503 -1.74242e+08)
(-5.01594e+08 1.3195e+07 -8.10642 -2.72869e+08 35.5871 -1.28189e+08)
(-3.7863e+08 1.00725e+07 14.3489 -2.53649e+08 -2.81556 -7.58867e+07)
(-2.39898e+08 1.60719e+07 -2.53862 -2.30475e+08 -38.1441 -2.52052e+07)
(-5.25208e+07 1.26716e+07 -11.2108 -2.09803e+08 20.7912 3.94613e+07)
(1.74762e+08 1.87097e+07 3.30302 -1.82694e+08 41.3932 9.49532e+07)
(4.64865e+08 1.45964e+07 7.25509 -1.61151e+08 -22.3395 1.95681e+08)
(7.96157e+08 2.00808e+07 -0.660846 -1.25853e+08 -40.5776 2.76502e+08)
(1.08012e+09 1.50967e+07 -7.6488 -1.01438e+08 24.0844 4.41042e+08)
(1.22614e+09 1.90727e+07 -2.40468 -5.17017e+07 14.6283 5.47767e+08)
(-9.30505e+08 163693 -2.35145 -3.64395e+08 3.59052 -3.62144e+08)
(-9.14735e+08 3.672e+06 -10.6122 -3.56552e+08 -1.29239 -3.47799e+08)
(-8.73336e+08 2.16529e+06 -7.08984 -3.50944e+08 2.98347 -3.27091e+08)
(-8.30306e+08 7.00929e+06 7.98534 -3.38239e+08 8.95574 -2.9438e+08)
(-7.70927e+08 4.75049e+06 21.9684 -3.25624e+08 -9.09425 -2.58599e+08)
(-6.98105e+08 1.02225e+07 -5.89192 -3.08487e+08 -24.4083 -2.1583e+08)
(-6.07662e+08 7.55663e+06 -29.7509 -2.91615e+08 1.60245 -1.72619e+08)
(-4.98394e+08 1.34248e+07 -8.12432 -2.71697e+08 35.6221 -1.26672e+08)
(-3.75525e+08 1.02592e+07 14.3376 -2.52655e+08 -2.81309 -7.44901e+07)
(-2.36883e+08 1.61903e+07 -2.54091 -2.2968e+08 -38.1581 -2.39573e+07)
(-4.96232e+07 1.27097e+07 -11.2184 -2.09215e+08 20.786 4.05348e+07)
(1.7728e+08 1.86416e+07 3.31722 -1.82289e+08 41.3932 9.58963e+07)
(4.66915e+08 1.43993e+07 7.24425 -1.60926e+08 -22.3166 1.96383e+08)
(7.97758e+08 1.98198e+07 -0.66048 -1.25754e+08 -40.568 2.76995e+08)
(1.08084e+09 1.47878e+07 -7.67114 -1.01417e+08 24.0699 4.413e+08)
(1.22594e+09 1.89398e+07 -2.43255 -5.16882e+07 14.6262 5.47782e+08)
(-9.27225e+08 195053 -2.354 -3.62563e+08 3.60429 -3.60321e+08)
(-9.1135e+08 3.71419e+06 -10.6237 -3.5522e+08 -1.29288 -3.46452e+08)
(-8.70003e+08 2.2046e+06 -7.09514 -3.49654e+08 2.98349 -3.25766e+08)
(-8.26975e+08 7.08136e+06 7.9938 -3.37004e+08 8.95556 -2.93066e+08)
(-7.67596e+08 4.80647e+06 21.9789 -3.24472e+08 -9.09344 -2.57326e+08)
(-6.94767e+08 1.02788e+07 -5.89876 -3.07429e+08 -24.4 -2.14607e+08)
(-6.04295e+08 7.59168e+06 -29.772 -2.90678e+08 1.6014 -1.71468e+08)
(-4.95177e+08 1.34275e+07 -8.1435 -2.70882e+08 35.6123 -1.25568e+08)
(-3.72447e+08 1.02182e+07 14.316 -2.52009e+08 -2.81315 -7.3508e+07)
(-2.33909e+08 1.6075e+07 -2.5434 -2.29164e+08 -38.1353 -2.30996e+07)
(-4.68107e+07 1.25353e+07 -11.2093 -2.08878e+08 20.7738 4.12291e+07)
(1.79696e+08 1.83665e+07 3.34043 -1.82076e+08 41.3632 9.65045e+07)
(4.68882e+08 1.40621e+07 7.23359 -1.60826e+08 -22.2929 1.96819e+08)
(7.99304e+08 1.94718e+07 -0.660014 -1.25716e+08 -40.5339 2.77265e+08)
(1.08157e+09 1.44862e+07 -7.68965 -1.01417e+08 24.0608 4.41359e+08)
(1.22588e+09 1.88188e+07 -2.45577 -5.1684e+07 14.6158 5.47638e+08)
(-9.23851e+08 202185 -2.35789 -3.6122e+08 3.60221 -3.58972e+08)
(-9.07943e+08 3.72251e+06 -10.6328 -3.54293e+08 -1.29136 -3.45502e+08)
(-8.66673e+08 2.19045e+06 -7.09902 -3.48743e+08 2.97839 -3.24796e+08)
(-8.23661e+08 7.06771e+06 8.00254 -3.36144e+08 8.93912 -2.92126e+08)
(-7.64289e+08 4.76445e+06 21.9932 -3.23677e+08 -9.08224 -2.56419e+08)
(-6.9146e+08 1.02206e+07 -5.90504 -3.06714e+08 -24.3605 -2.13751e+08)
(-6.00997e+08 7.49285e+06 -29.7915 -2.90066e+08 1.60028 -1.70684e+08)
(-4.9204e+08 1.32621e+07 -8.16314 -2.70375e+08 35.5709 -1.24809e+08)
(-3.69453e+08 1.00015e+07 14.3073 -2.51605e+08 -2.80893 -7.28367e+07)
(-2.31048e+08 1.57804e+07 -2.54578 -2.28863e+08 -38.088 -2.25355e+07)
(-4.41065e+07 1.2181e+07 -11.2065 -2.08685e+08 20.7443 4.16633e+07)
(1.8199e+08 1.79676e+07 3.36394 -1.81959e+08 41.3081 9.68346e+07)
(4.70788e+08 1.36348e+07 7.22399 -1.60767e+08 -22.2676 1.97032e+08)
(8.00865e+08 1.90646e+07 -0.659609 -1.25686e+08 -40.4783 2.77358e+08)
(1.08245e+09 1.41599e+07 -7.70222 -1.014e+08 24.0647 4.41332e+08)
(1.22612e+09 1.8691e+07 -2.47706 -5.16815e+07 14.5997 5.47456e+08)
(-9.20464e+08 193770 -2.35772 -3.60269e+08 3.58684 -3.58023e+08)
(-9.04568e+08 3.69054e+06 -10.6442 -3.53684e+08 -1.28826 -3.44865e+08)
(-8.63378e+08 2.10377e+06 -7.10529 -3.48139e+08 2.96852 -3.24129e+08)
(-8.20382e+08 6.96798e+06 8.01051 -3.35581e+08 8.91093 -2.91478e+08)
(-7.61028e+08 4.61093e+06 22.0029 -3.23155e+08 -9.05913 -2.55799e+08)
(-6.88221e+08 1.00284e+07 -5.91123 -3.06266e+08 -24.2988 -2.13174e+08)
(-5.97782e+08 7.24618e+06 -29.8051 -2.8969e+08 1.59365 -1.7017e+08)
(-4.89012e+08 1.29712e+07 -8.18538 -2.70079e+08 35.4973 -1.24357e+08)
(-3.66576e+08 9.66804e+06 14.2917 -2.51381e+08 -2.80963 -7.2456e+07)
(-2.28302e+08 1.53768e+07 -2.54826 -2.28716e+08 -38.0169 -2.22359e+07)
(-4.14876e+07 1.17539e+07 -11.2054 -2.08598e+08 20.7088 4.18703e+07)
(1.84243e+08 1.74994e+07 3.38751 -1.81922e+08 41.2335 9.69934e+07)
(4.72665e+08 1.31734e+07 7.21171 -1.60765e+08 -22.2352 1.97093e+08)
(8.02462e+08 1.86448e+07 -0.659102 -1.2569e+08 -40.4086 2.7734e+08)
(1.08345e+09 1.38396e+07 -7.7118 -1.014e+08 24.0722 4.41249e+08)
(1.2266e+09 1.85716e+07 -2.49548 -5.16753e+07 14.5798 5.47261e+08)
(-9.17106e+08 169455 -2.36094 -3.59632e+08 3.56179 -3.57389e+08)
(-9.01288e+08 3.62874e+06 -10.6548 -3.53306e+08 -1.28273 -3.44478e+08)
(-8.60187e+08 1.98179e+06 -7.11094 -3.47781e+08 2.95375 -3.23751e+08)
(-8.1721e+08 6.81682e+06 8.01877 -3.35251e+08 8.87157 -2.91103e+08)
(-7.57886e+08 4.39664e+06 22.0165 -3.22865e+08 -9.02776 -2.55449e+08)
(-6.85096e+08 9.76742e+06 -5.91724 -3.06024e+08 -24.2172 -2.1285e+08)
(-5.94664e+08 6.93627e+06 -29.8284 -2.89498e+08 1.58725 -1.69889e+08)
(-4.86055e+08 1.26013e+07 -8.20234 -2.6994e+08 35.409 -1.24089e+08)
(-3.63787e+08 9.24982e+06 14.2811 -2.51302e+08 -2.80524 -7.22572e+07)
(-2.25634e+08 1.49035e+07 -2.5504 -2.28672e+08 -37.933 -2.20946e+07)
(-3.89434e+07 1.1256e+07 -11.2003 -2.08596e+08 20.6675 4.19354e+07)
(1.8641e+08 1.69856e+07 3.41486 -1.81928e+08 41.1497 9.70495e+07)
(4.74538e+08 1.26964e+07 7.1957 -1.60788e+08 -22.2028 1.97095e+08)
(8.04109e+08 1.82362e+07 -0.658522 -1.25703e+08 -40.3325 2.77288e+08)
(1.0846e+09 1.35456e+07 -7.72025 -1.01406e+08 24.0833 4.4116e+08)
(1.22733e+09 1.84601e+07 -2.51118 -5.16654e+07 14.5571 5.47087e+08)
(-9.13835e+08 133520 -2.36234 -3.59249e+08 3.53028 -3.57003e+08)
(-8.98116e+08 3.5544e+06 -10.6636 -3.53134e+08 -1.27667 -3.4429e+08)
(-8.57092e+08 1.82639e+06 -7.11329 -3.47612e+08 2.93724 -3.23544e+08)
(-8.14141e+08 6.61718e+06 8.02615 -3.35107e+08 8.82593 -2.90909e+08)
(-7.54846e+08 4.1185e+06 22.0245 -3.22743e+08 -8.99204 -2.55274e+08)
(-6.82076e+08 9.44242e+06 -5.92321 -3.05935e+08 -24.1239 -2.12697e+08)
(-5.91671e+08 6.54678e+06 -29.8408 -2.89436e+08 1.58023 -1.69773e+08)
(-4.83262e+08 1.21561e+07 -8.22545 -2.69903e+08 35.314 -1.23954e+08)
(-3.61131e+08 8.78127e+06 14.262 -2.51295e+08 -2.79953 -7.21646e+07)
(-2.23089e+08 1.4397e+07 -2.55243 -2.28672e+08 -37.8443 -2.20399e+07)
(-3.64767e+07 1.07601e+07 -11.1927 -2.08631e+08 20.6282 4.19362e+07)
(1.88589e+08 1.6478e+07 3.4392 -1.8195e+08 41.0616 9.7066e+07)
(4.76442e+08 1.22237e+07 7.18217 -1.60828e+08 -22.1722 1.97066e+08)
(8.05845e+08 1.78373e+07 -0.657794 -1.25704e+08 -40.2516 2.77229e+08)
(1.08589e+09 1.32683e+07 -7.72697 -1.01424e+08 24.0958 4.41043e+08)
(1.22828e+09 1.83585e+07 -2.52499 -5.16453e+07 14.5328 5.4692e+08)
(-9.10679e+08 86778.9 -2.36552 -3.59061e+08 3.49359 -3.56817e+08)
(-8.95085e+08 3.45171e+06 -10.674 -3.53099e+08 -1.27021 -3.44238e+08)
(-8.54168e+08 1.63759e+06 -7.11909 -3.4756e+08 2.92001 -3.23454e+08)
(-8.1124e+08 6.38849e+06 8.03326 -3.35064e+08 8.77903 -2.90821e+08)
(-7.5197e+08 3.81859e+06 22.0352 -3.22704e+08 -8.95511 -2.55194e+08)
(-6.79212e+08 9.0947e+06 -5.92839 -3.05909e+08 -24.0292 -2.12624e+08)
(-5.88812e+08 6.15966e+06 -29.8568 -2.89435e+08 1.57491 -1.69722e+08)
(-4.80526e+08 1.17035e+07 -8.24212 -2.69914e+08 35.2152 -1.23873e+08)
(-3.58528e+08 8.29756e+06 14.2529 -2.51324e+08 -2.79566 -7.21183e+07)
(-2.20568e+08 1.38687e+07 -2.55397 -2.28702e+08 -37.7534 -2.2019e+07)
(-3.40409e+07 1.02302e+07 -11.181 -2.08689e+08 20.5875 4.1903e+07)
(1.90687e+08 1.5954e+07 3.46938 -1.81996e+08 40.9721 9.70366e+07)
(4.78346e+08 1.1769e+07 7.16273 -1.60869e+08 -22.1443 1.97027e+08)
(8.07646e+08 1.74586e+07 -0.657064 -1.25713e+08 -40.1693 2.77178e+08)
(1.08732e+09 1.30187e+07 -7.72229 -1.01429e+08 24.1098 4.40968e+08)
(1.22943e+09 1.82658e+07 -2.53634 -5.16369e+07 14.5067 5.4679e+08)
(-9.07661e+08 32708.6 -2.3674 -3.5901e+08 3.45447 -3.5677e+08)
(-8.92231e+08 3.36155e+06 -10.6817 -3.53125e+08 -1.26392 -3.44247e+08)
(-8.51372e+08 1.45478e+06 -7.12196 -3.47576e+08 2.90274 -3.2343e+08)
(-8.08451e+08 6.14934e+06 8.03962 -3.3509e+08 8.73181 -2.90795e+08)
(-7.49202e+08 3.49982e+06 22.0399 -3.22729e+08 -8.91725 -2.55172e+08)
(-6.76438e+08 8.71527e+06 -5.93358 -3.05962e+08 -23.9339 -2.12607e+08)
(-5.86063e+08 5.71139e+06 -29.8617 -2.89497e+08 1.56395 -1.69738e+08)
(-4.77978e+08 1.12053e+07 -8.2675 -2.70007e+08 35.1182 -1.23877e+08)
(-3.56081e+08 7.78527e+06 14.2307 -2.51402e+08 -2.7818 -7.21405e+07)
(-2.18197e+08 1.33234e+07 -2.55578 -2.2879e+08 -37.6626 -2.20572e+07)
(-3.16836e+07 9.70735e+06 -11.1719 -2.08761e+08 20.532 4.18391e+07)
(1.92851e+08 1.54652e+07 3.4902 -1.8204e+08 40.8742 9.69757e+07)
(4.80326e+08 1.13365e+07 7.14793 -1.60919e+08 -22.1098 1.96946e+08)
(8.09552e+08 1.71055e+07 -0.65635 -1.25725e+08 -40.0814 2.77099e+08)
(1.08888e+09 1.27733e+07 -7.72422 -1.0145e+08 24.1299 4.40914e+08)
(1.23076e+09 1.81773e+07 -2.54656 -5.1623e+07 14.4809 5.46714e+08)
(-9.04826e+08 -19529.8 -2.36973 -3.59022e+08 3.41606 -3.56785e+08)
(-8.89498e+08 3.23511e+06 -10.692 -3.53214e+08 -1.25737 -3.44321e+08)
(-8.48767e+08 1.22828e+06 -7.12809 -3.47651e+08 2.88466 -3.23485e+08)
(-8.05864e+08 5.88098e+06 8.0458 -3.35179e+08 8.68555 -2.90838e+08)
(-7.46631e+08 3.142e+06 22.0459 -3.22807e+08 -8.87685 -2.55218e+08)
(-6.7388e+08 8.30514e+06 -5.93805 -3.06057e+08 -23.8407 -2.12649e+08)
(-5.8348e+08 5.25889e+06 -29.8725 -2.89579e+08 1.55198 -1.6979e+08)
(-4.75465e+08 1.07171e+07 -8.2825 -2.70084e+08 35.013 -1.23923e+08)
(-3.53664e+08 7.28654e+06 14.2212 -2.51495e+08 -2.78116 -7.22065e+07)
(-2.15813e+08 1.2799e+07 -2.55702 -2.28862e+08 -37.5673 -2.21224e+07)
(-2.92986e+07 9.22162e+06 -11.1693 -2.08854e+08 20.4967 4.1755e+07)
(1.9496e+08 1.49717e+07 3.51827 -1.82101e+08 40.7856 9.69755e+07)
(4.823e+08 1.09223e+07 7.12398 -1.60989e+08 -22.0791 1.96942e+08)
(8.11508e+08 1.67698e+07 -0.655402 -1.25746e+08 -40.001 2.77109e+08)
(1.09057e+09 1.256e+07 -7.71723 -1.01479e+08 24.1421 4.40909e+08)
(1.23227e+09 1.81005e+07 -2.55493 -5.1606e+07 14.4545 5.46688e+08)
(-9.02101e+08 -82735.7 -2.37207 -3.59095e+08 3.37722 -3.56862e+08)
(-8.8703e+08 3.12687e+06 -10.6982 -3.53323e+08 -1.25048 -3.44428e+08)
(-8.46317e+08 1.02381e+06 -7.12782 -3.47761e+08 2.86705 -3.23586e+08)
(-8.03405e+08 5.61587e+06 8.05181 -3.3529e+08 8.63845 -2.90923e+08)
(-7.44186e+08 2.79671e+06 22.0496 -3.2292e+08 -8.83891 -2.55305e+08)
(-6.71386e+08 7.90768e+06 -5.94308 -3.06171e+08 -23.7463 -2.12718e+08)
(-5.80965e+08 4.81487e+06 -29.8811 -2.89696e+08 1.54279 -1.69873e+08)
(-4.73117e+08 1.02048e+07 -8.30554 -2.70206e+08 34.9315 -1.23911e+08)
(-3.51386e+08 6.76741e+06 14.1931 -2.51605e+08 -2.75629 -7.2216e+07)
(-2.13548e+08 1.22576e+07 -2.55839 -2.28954e+08 -37.4855 -2.21233e+07)
(-2.7014e+07 8.70392e+06 -11.1448 -2.08948e+08 20.44 4.1726e+07)
(1.97116e+08 1.44993e+07 3.54209 -1.82152e+08 40.694 9.69661e+07)
(4.84376e+08 1.05212e+07 7.10797 -1.61043e+08 -22.0483 1.96946e+08)
(8.13588e+08 1.64568e+07 -0.654592 -1.25756e+08 -39.919 2.77134e+08)
(1.09238e+09 1.23548e+07 -7.71624 -1.01503e+08 24.161 4.40954e+08)
(1.23392e+09 1.80283e+07 -2.56204 -5.15936e+07 14.4288 5.46713e+08)
(-8.99653e+08 -144399 -2.37406 -3.59211e+08 3.34102 -3.56975e+08)
(-8.84636e+08 3.00501e+06 -10.707 -3.5347e+08 -1.2457 -3.44541e+08)
(-8.44059e+08 786490 -7.13185 -3.47859e+08 2.85235 -3.23625e+08)
(-8.01154e+08 5.33005e+06 8.05653 -3.35405e+08 8.59929 -2.90964e+08)
(-7.4192e+08 2.41832e+06 22.0484 -3.23001e+08 -8.80321 -2.55341e+08)
(-6.69109e+08 7.47914e+06 -5.94731 -3.06275e+08 -23.666 -2.12749e+08)
(-5.78655e+08 4.33453e+06 -29.8773 -2.89779e+08 1.52897 -1.69914e+08)
(-4.70842e+08 9.69215e+06 -8.32517 -2.70292e+08 34.8402 -1.23943e+08)
(-3.49134e+08 6.26823e+06 14.1842 -2.51682e+08 -2.75211 -7.22388e+07)
(-2.11286e+08 1.1736e+07 -2.55943 -2.29017e+08 -37.4013 -2.21329e+07)
(-2.46647e+07 8.24436e+06 -11.1516 -2.09025e+08 20.4046 4.17175e+07)
(1.9927e+08 1.40457e+07 3.56465 -1.82197e+08 40.6122 9.70373e+07)
(4.86451e+08 1.01392e+07 7.08651 -1.61112e+08 -22.0186 1.9701e+08)
(8.15718e+08 1.61481e+07 -0.653547 -1.25766e+08 -39.8423 2.77224e+08)
(1.0943e+09 1.21572e+07 -7.70875 -1.01543e+08 24.1748 4.4103e+08)
(1.23574e+09 1.79599e+07 -2.56887 -5.15723e+07 14.4034 5.46793e+08)
(-8.9728e+08 -210605 -2.37615 -3.59317e+08 3.30514 -3.57095e+08)
(-8.82561e+08 2.87365e+06 -10.7143 -3.53563e+08 -1.23995 -3.44632e+08)
(-8.41989e+08 552237 -7.13462 -3.47953e+08 2.8371 -3.23719e+08)
(-7.99049e+08 5.04553e+06 8.06171 -3.35497e+08 8.56079 -2.9102e+08)
(-7.39808e+08 2.05364e+06 22.0505 -3.23086e+08 -8.76866 -2.55395e+08)
(-6.66914e+08 7.05759e+06 -5.95177 -3.06365e+08 -23.5879 -2.12767e+08)
(-5.76388e+08 3.88645e+06 -29.887 -2.89867e+08 1.51673 -1.69938e+08)
(-4.68672e+08 9.17984e+06 -8.34461 -2.70385e+08 34.773 -1.23876e+08)
(-3.46996e+08 5.75004e+06 14.156 -2.51774e+08 -2.725 -7.21995e+07)
(-2.09094e+08 1.11892e+07 -2.56058 -2.29091e+08 -37.3295 -2.20694e+07)
(-2.24071e+07 7.72517e+06 -11.124 -2.09116e+08 20.3488 4.17505e+07)
(2.01433e+08 1.35654e+07 3.59107 -1.82248e+08 40.5289 9.71111e+07)
(4.88616e+08 9.75212e+06 7.06812 -1.61176e+08 -21.9887 1.9711e+08)
(8.1796e+08 1.58505e+07 -0.652753 -1.25782e+08 -39.7681 2.77358e+08)
(1.09635e+09 1.19703e+07 -7.70193 -1.01574e+08 24.1915 4.41193e+08)
(1.23767e+09 1.78959e+07 -2.5743 -5.1565e+07 14.3785 5.46936e+08)
(-8.95219e+08 -277486 -2.37767 -3.59421e+08 3.27494 -3.57194e+08)
(-8.80565e+08 2.75965e+06 -10.7208 -3.53659e+08 -1.23627 -3.44699e+08)
(-8.40096e+08 314289 -7.13455 -3.4801e+08 2.82522 -3.23724e+08)
(-7.97139e+08 4.74889e+06 8.06579 -3.35577e+08 8.5298 -2.91024e+08)
(-7.37862e+08 1.65559e+06 22.0428 -3.23135e+08 -8.73788 -2.55392e+08)
(-6.64911e+08 6.60423e+06 -5.95638 -3.06449e+08 -23.5227 -2.12751e+08)
(-5.74323e+08 3.37105e+06 -29.8763 -2.89927e+08 1.4994 -1.69935e+08)
(-4.6663e+08 8.62504e+06 -8.36914 -2.70465e+08 34.7038 -1.23845e+08)
(-3.44916e+08 5.22754e+06 14.1426 -2.5184e+08 -2.7085 -7.2153e+07)
(-2.06956e+08 1.0644e+07 -2.5616 -2.29153e+08 -37.2597 -2.19999e+07)
(-2.00976e+07 7.25872e+06 -11.1369 -2.09185e+08 20.3057 4.18323e+07)
(2.03652e+08 1.31221e+07 3.60735 -1.82279e+08 40.4535 9.72675e+07)
(4.90819e+08 9.37447e+06 7.05342 -1.61243e+08 -21.9568 1.97258e+08)
(8.20272e+08 1.55551e+07 -0.65164 -1.25791e+08 -39.6971 2.77541e+08)
(1.0985e+09 1.17699e+07 -7.70004 -1.01623e+08 24.207 4.41389e+08)
(1.23976e+09 1.78316e+07 -2.58008 -5.15446e+07 14.355 5.47144e+08)
(-8.93253e+08 -346654 -2.38012 -3.59483e+08 3.24622 -3.57267e+08)
(-8.78873e+08 2.60462e+06 -10.7297 -3.53712e+08 -1.23233 -3.44741e+08)
(-8.38427e+08 41196.4 -7.13885 -3.48053e+08 2.8136 -3.23757e+08)
(-7.95418e+08 4.43296e+06 8.07064 -3.35631e+08 8.50208 -2.91019e+08)
(-7.36104e+08 1.24889e+06 22.042 -3.23171e+08 -8.70796 -2.55383e+08)
(-6.63044e+08 6.14094e+06 -5.96115 -3.06499e+08 -23.4639 -2.12701e+08)
(-5.72333e+08 2.89156e+06 -29.8847 -2.89967e+08 1.48381 -1.69885e+08)
(-4.64635e+08 8.08378e+06 -8.38563 -2.70504e+08 34.6518 -1.23708e+08)
(-3.42903e+08 4.68688e+06 14.1202 -2.51896e+08 -2.68224 -7.20434e+07)
(-2.04822e+08 1.00733e+07 -2.56264 -2.29184e+08 -37.1991 -2.18503e+07)
(-1.78321e+07 6.7327e+06 -11.1185 -2.09263e+08 20.2593 4.19551e+07)
(2.05841e+08 1.26126e+07 3.63557 -1.82315e+08 40.3845 9.74828e+07)
(4.93076e+08 8.97163e+06 7.0343 -1.61318e+08 -21.9283 1.97498e+08)
(8.22672e+08 1.52463e+07 -0.650714 -1.25804e+08 -39.6345 2.77823e+08)
(1.10077e+09 1.158e+07 -7.69293 -1.01672e+08 24.2194 4.41672e+08)
(1.24198e+09 1.77683e+07 -2.58532 -5.15311e+07 14.3319 5.47419e+08)
(-8.91576e+08 -423135 -2.38171 -3.59535e+08 3.22268 -3.57318e+08)
(-8.77344e+08 2.48817e+06 -10.7343 -3.53748e+08 -1.22985 -3.44753e+08)
(-8.36939e+08 -212330 -7.13541 -3.48056e+08 2.80501 -3.23719e+08)
(-7.93877e+08 4.11237e+06 8.07452 -3.35656e+08 8.48017 -2.90969e+08)
(-7.34505e+08 822388 22.0291 -3.23169e+08 -8.68311 -2.55326e+08)
(-6.61322e+08 5.65218e+06 -5.96652 -3.06531e+08 -23.4154 -2.12613e+08)
(-5.70508e+08 2.34557e+06 -29.873 -2.89983e+08 1.46579 -1.69809e+08)
(-4.62824e+08 7.46925e+06 -8.41459 -2.70552e+08 34.6146 -1.23545e+08)
(-3.40995e+08 4.11623e+06 14.1004 -2.5193e+08 -2.64857 -7.18696e+07)
(-2.02792e+08 9.46887e+06 -2.56369 -2.29219e+08 -37.1499 -2.16414e+07)
(-1.5572e+07 6.21015e+06 -11.1274 -2.09319e+08 20.2077 4.21657e+07)
(2.08115e+08 1.21297e+07 3.64917 -1.82333e+08 40.3187 9.77433e+07)
(4.95423e+08 8.5593e+06 7.03088 -1.6138e+08 -21.8983 1.97764e+08)
(8.25182e+08 1.49315e+07 -0.649684 -1.25805e+08 -39.5721 2.78132e+08)
(1.10316e+09 1.13594e+07 -7.69522 -1.01724e+08 24.236 4.42001e+08)
(1.24434e+09 1.77029e+07 -2.59107 -5.15164e+07 14.3103 5.47758e+08)
(-8.90084e+08 -499287 -2.38411 -3.59549e+08 3.20216 -3.57338e+08)
(-8.76052e+08 2.32147e+06 -10.7448 -3.53747e+08 -1.22857 -3.44722e+08)
(-8.35705e+08 -520324 -7.14009 -3.4802e+08 2.7986 -3.23641e+08)
(-7.92572e+08 3.76212e+06 8.07898 -3.35644e+08 8.46639 -2.90859e+08)
(-7.33126e+08 367202 22.0223 -3.23123e+08 -8.66052 -2.55209e+08)
(-6.59802e+08 5.13129e+06 -5.97155 -3.06522e+08 -23.3819 -2.12454e+08)
(-5.68832e+08 1.79956e+06 -29.8725 -2.89958e+08 1.44497 -1.69654e+08)
(-4.6104e+08 6.86153e+06 -8.43285 -2.70544e+08 34.5798 -1.23337e+08)
(-3.39121e+08 3.51989e+06 14.0884 -2.51938e+08 -2.62209 -7.16727e+07)
(-2.00733e+08 8.82855e+06 -2.56478 -2.29221e+08 -37.1032 -2.13934e+07)
(-1.329e+07 5.635e+06 -11.1325 -2.09373e+08 20.1639 4.24017e+07)
(2.10349e+08 1.15661e+07 3.67404 -1.82352e+08 40.2619 9.80882e+07)
(4.97786e+08 8.1136e+06 7.01752 -1.61461e+08 -21.8684 1.98122e+08)
(8.27755e+08 1.4583e+07 -0.64867 -1.25817e+08 -39.519 2.78541e+08)
(1.10567e+09 1.113e+07 -7.69113 -1.01784e+08 24.2471 4.4242e+08)
(1.24686e+09 1.76306e+07 -2.5974 -5.15033e+07 14.2893 5.4818e+08)
(-8.88817e+08 -584222 -2.38539 -3.59522e+08 3.18616 -3.57319e+08)
(-8.75042e+08 2.18441e+06 -10.7502 -3.53711e+08 -1.22722 -3.44672e+08)
(-8.34673e+08 -811962 -7.13595 -3.47971e+08 2.79287 -3.23578e+08)
(-7.91442e+08 3.40166e+06 8.08275 -3.3562e+08 8.45469 -2.90757e+08)
(-7.31918e+08 -112516 22.0055 -3.23076e+08 -8.63969 -2.55103e+08)
(-6.58408e+08 4.57224e+06 -5.9783 -3.06516e+08 -23.3522 -2.12294e+08)
(-5.67276e+08 1.19059e+06 -29.8655 -2.89936e+08 1.42226 -1.69504e+08)
(-4.59469e+08 6.16414e+06 -8.46361 -2.70559e+08 34.5701 -1.23069e+08)
(-3.37405e+08 2.86755e+06 14.0635 -2.51956e+08 -2.57394 -7.14122e+07)
(-1.98816e+08 8.12771e+06 -2.56615 -2.2924e+08 -37.0708 -2.10786e+07)
(-1.10757e+07 5.02187e+06 -11.143 -2.09429e+08 20.105 4.27117e+07)
(2.12679e+08 1.09893e+07 3.6864 -1.82366e+08 40.2055 9.84701e+07)
(5.00284e+08 7.62755e+06 7.02604 -1.61534e+08 -21.8358 1.9852e+08)
(8.30463e+08 1.42217e+07 -0.647646 -1.25824e+08 -39.4669 2.78988e+08)
(1.10833e+09 1.08652e+07 -7.70231 -1.01847e+08 24.2627 4.42908e+08)
(1.24955e+09 1.75555e+07 -2.60441 -5.14942e+07 14.2698 5.48676e+08)
(-8.87842e+08 -671579 -2.38682 -3.59483e+08 3.17502 -3.57278e+08)
(-8.74215e+08 2.01145e+06 -10.7595 -3.53689e+08 -1.22775 -3.44614e+08)
(-8.33926e+08 -1.15442e+06 -7.13752 -3.47902e+08 2.79053 -3.23456e+08)
(-7.90603e+08 3.00906e+06 8.08722 -3.35585e+08 8.45199 -2.90608e+08)
(-7.30972e+08 -632810 21.9907 -3.22995e+08 -8.62307 -2.54943e+08)
(-6.57279e+08 3.97704e+06 -5.98467 -3.06481e+08 -23.3388 -2.12083e+08)
(-5.65948e+08 556442 -29.8589 -2.89875e+08 1.39794 -1.69294e+08)
(-4.5794e+08 5.44588e+06 -8.48608 -2.7052e+08 34.5588 -1.22782e+08)
(-3.35707e+08 2.17555e+06 14.0596 -2.51936e+08 -2.54035 -7.11225e+07)
(-1.96861e+08 7.38116e+06 -2.56754 -2.29212e+08 -37.0406 -2.072e+07)
(-8.79714e+06 4.36132e+06 -11.1712 -2.0947e+08 20.0638 4.30695e+07)
(2.14965e+08 1.03366e+07 3.70719 -1.82368e+08 40.1628 9.89624e+07)
(5.0279e+08 7.10186e+06 7.02825 -1.61621e+08 -21.8067 1.99025e+08)
(8.33237e+08 1.38104e+07 -0.646472 -1.25826e+08 -39.4248 2.79552e+08)
(1.11112e+09 1.05719e+07 -7.71044 -1.01923e+08 24.2715 4.43462e+08)
(1.25244e+09 1.74692e+07 -2.61313 -5.14752e+07 14.2508 5.49253e+08)
(-8.87052e+08 -769694 -2.39119 -3.59424e+08 3.16611 -3.5723e+08)
(-8.73766e+08 1.85217e+06 -10.767 -3.53649e+08 -1.2281 -3.44556e+08)
(-8.33413e+08 -1.49372e+06 -7.13326 -3.47842e+08 2.78856 -3.23378e+08)
(-7.89953e+08 2.60245e+06 8.09155 -3.35548e+08 8.4512 -2.90476e+08)
(-7.30218e+08 -1.17045e+06 21.9693 -3.22925e+08 -8.60739 -2.54804e+08)
(-6.56274e+08 3.34329e+06 -5.99293 -3.06449e+08 -23.3294 -2.11867e+08)
(-5.6473e+08 -120544 -29.8538 -2.89826e+08 1.37222 -1.69083e+08)
(-4.56649e+08 4.64776e+06 -8.51958 -2.70502e+08 34.5764 -1.22417e+08)
(-3.34204e+08 1.4192e+06 14.0358 -2.51927e+08 -2.48194 -7.07666e+07)
(-1.95065e+08 6.54942e+06 -2.56929 -2.29198e+08 -37.0266 -2.02847e+07)
(-6.63248e+06 3.61718e+06 -11.1886 -2.09519e+08 20.0034 4.3494e+07)
(2.17347e+08 9.62154e+06 3.719 -1.82375e+08 40.1181 9.94685e+07)
(5.0545e+08 6.50637e+06 7.055 -1.61706e+08 -21.7765 1.99563e+08)
(8.36152e+08 1.33672e+07 -0.645475 -1.25833e+08 -39.3827 2.80142e+08)
(1.1141e+09 1.02376e+07 -7.72812 -1.01994e+08 24.2872 4.44096e+08)
(1.25554e+09 1.73724e+07 -2.62335 -5.14681e+07 14.2326 5.49909e+08)
(-8.86643e+08 -870926 -2.39403 -3.59384e+08 3.16277 -3.57187e+08)
(-8.7348e+08 1.68068e+06 -10.7762 -3.53659e+08 -1.23025 -3.44525e+08)
(-8.33214e+08 -1.86602e+06 -7.13201 -3.47788e+08 2.78976 -3.23267e+08)
(-7.89627e+08 2.17403e+06 8.09568 -3.35532e+08 8.459 -2.9033e+08)
(-7.29761e+08 -1.74748e+06 21.9441 -3.22844e+08 -8.59513 -2.54641e+08)
(-6.5558e+08 2.66897e+06 -6.00133 -3.06421e+08 -23.3356 -2.11634e+08)
(-5.63801e+08 -850338 -29.8405 -2.89759e+08 1.3419 -1.68851e+08)
(-4.55444e+08 3.80476e+06 -8.54883 -2.70467e+08 34.5876 -1.22095e+08)
(-3.32747e+08 609549 14.0388 -2.519e+08 -2.43745 -7.04254e+07)
(-1.93269e+08 5.65699e+06 -2.57107 -2.29169e+08 -37.0114 -1.98509e+07)
(-4.39826e+06 2.81704e+06 -11.2431 -2.09552e+08 19.9551 4.39448e+07)
(2.19689e+08 8.83818e+06 3.73344 -1.82371e+08 40.0827 1.00059e+08)
(5.08137e+08 5.86507e+06 7.08406 -1.6179e+08 -21.7436 2.00179e+08)
(8.3916e+08 1.28729e+07 -0.644181 -1.25832e+08 -39.347 2.80821e+08)
(1.11722e+09 9.85654e+06 -7.74949 -1.02094e+08 24.297 4.44786e+08)
(1.2589e+09 1.72586e+07 -2.63649 -5.14418e+07 14.2148 5.50663e+08)
(-8.86406e+08 -980300 -2.39723 -3.59352e+08 3.16048 -3.57169e+08)
(-8.73625e+08 1.50817e+06 -10.7855 -3.53711e+08 -1.23158 -3.44559e+08)
(-8.33281e+08 -2.24421e+06 -7.12764 -3.47816e+08 2.78968 -3.23288e+08)
(-7.8952e+08 1.73486e+06 8.10038 -3.35582e+08 8.46564 -2.90275e+08)
(-7.29529e+08 -2.33564e+06 21.9161 -3.22842e+08 -8.58026 -2.54575e+08)
(-6.55047e+08 1.96239e+06 -6.01161 -3.06453e+08 -23.34 -2.11465e+08)
(-5.63001e+08 -1.60201e+06 -29.8373 -2.89756e+08 1.31004 -1.68678e+08)
(-4.54492e+08 2.90399e+06 -8.58481 -2.70475e+08 34.6196 -1.21752e+08)
(-3.31517e+08 -260831 14.0194 -2.51921e+08 -2.37369 -7.00857e+07)
(-1.91647e+08 4.68282e+06 -2.5735 -2.29152e+08 -37.0064 -1.93933e+07)
(-2.30191e+06 1.92598e+06 -11.2803 -2.0962e+08 19.8996 4.44086e+07)
(2.2213e+08 7.96295e+06 3.74274 -1.82354e+08 40.047 1.00665e+08)
(5.10986e+08 5.13642e+06 7.13768 -1.61898e+08 -21.722 2.00833e+08)
(8.42303e+08 1.22977e+07 -0.642946 -1.25834e+08 -39.3172 2.81601e+08)
(1.12056e+09 9.43621e+06 -7.77544 -1.02215e+08 24.3035 4.4555e+08)
(1.26253e+09 1.71329e+07 -2.65193 -5.14105e+07 14.1971 5.515e+08)
(-8.86593e+08 -1.09399e+06 -2.4009 -3.59407e+08 3.16241 -3.5722e+08)
(-8.7394e+08 1.35011e+06 -10.7946 -3.53916e+08 -1.2337 -3.44729e+08)
(-8.33674e+08 -2.63038e+06 -7.12137 -3.47948e+08 2.79089 -3.23385e+08)
(-7.89755e+08 1.29293e+06 8.10469 -3.35744e+08 8.47555 -2.90317e+08)
(-7.29623e+08 -2.94416e+06 21.8791 -3.22914e+08 -8.56523 -2.54596e+08)
(-6.54851e+08 1.23462e+06 -6.02263 -3.06561e+08 -23.3505 -2.11382e+08)
(-5.62529e+08 -2.3885e+06 -29.8228 -2.89798e+08 1.27409 -1.68582e+08)
(-4.53687e+08 1.95823e+06 -8.62035 -2.70518e+08 34.6441 -1.21509e+08)
(-3.30378e+08 -1.16288e+06 14.0273 -2.51963e+08 -2.31827 -6.9806e+07)
(-1.90074e+08 3.65582e+06 -2.57598 -2.2915e+08 -36.9985 -1.89757e+07)