/*--------------------------------*- C++ -*----------------------------------*\
| =========                 |                                                 |
| \\      /  F ield         | foam-extend: Open Source CFD                    |
|  \\    /   O peration     | Version:     4.1-20200408                       |
|   \\  /    A nd           | Web:         http://www.foam-extend.org         |
|    \\/     M anipulation  |                                                 |
\*---------------------------------------------------------------------------*/
FoamFile
{
    version     2.0;
    format      ascii;
    class       volVectorField;
    location    "0.0820000";
    object      U_0_0;
}
// * * * * * * * * * * * * * * * * * * * * * * * * * * * * * * * * * * * * * //

dimensions      [0 1 0 0 0 0 0];

internalField   nonuniform List<vector> 
1952
(
(0.0791936 -3.07067e-06 0)
(0.0791933 -4.99471e-06 0)
(0.0791928 -6.94123e-06 0)
(0.0791922 -8.88499e-06 0)
(0.0791914 -1.08293e-05 0)
(0.0791906 -1.27584e-05 0)
(0.0791897 -1.46856e-05 0)
(0.0791887 -1.65897e-05 0)
(0.0791877 -1.84912e-05 0)
(0.0791867 -2.0364e-05 0)
(0.0791857 -2.22254e-05 0)
(0.0791849 -2.40502e-05 0)
(0.0791843 -2.58463e-05 0)
(0.079184 -2.76018e-05 0)
(0.0791839 -2.93269e-05 0)
(0.0791938 -1.31587e-06 0)
(0.0791897 -3.07218e-06 0)
(0.0791893 -4.99717e-06 0)
(0.0791889 -6.94465e-06 0)
(0.0791882 -8.88942e-06 0)
(0.0791875 -1.08347e-05 0)
(0.0791866 -1.27649e-05 0)
(0.0791857 -1.46931e-05 0)
(0.0791847 -1.65985e-05 0)
(0.0791837 -1.85012e-05 0)
(0.0791827 -2.03752e-05 0)
(0.0791818 -2.22379e-05 0)
(0.079181 -2.40641e-05 0)
(0.0791804 -2.58615e-05 0)
(0.07918 -2.76184e-05 0)
(0.0791799 -2.93448e-05 0)
(0.0791898 -1.31651e-06 0)
(0.0791858 -3.07388e-06 0)
(0.0791854 -4.99997e-06 0)
(0.0791849 -6.94856e-06 0)
(0.0791843 -8.89448e-06 0)
(0.0791835 -1.08409e-05 0)
(0.0791827 -1.27723e-05 0)
(0.0791818 -1.47017e-05 0)
(0.0791808 -1.66084e-05 0)
(0.0791797 -1.85123e-05 0)
(0.0791788 -2.03878e-05 0)
(0.0791778 -2.22517e-05 0)
(0.079177 -2.40794e-05 0)
(0.0791764 -2.58781e-05 0)
(0.0791761 -2.76364e-05 0)
(0.079176 -2.9364e-05 0)
(0.0791859 -1.31725e-06 0)
(0.0791818 -3.07577e-06 0)
(0.0791814 -5.00305e-06 0)
(0.079181 -6.95286e-06 0)
(0.0791803 -8.90003e-06 0)
(0.0791796 -1.08477e-05 0)
(0.0791787 -1.27804e-05 0)
(0.0791778 -1.47111e-05 0)
(0.0791768 -1.66192e-05 0)
(0.0791758 -1.85244e-05 0)
(0.0791748 -2.04013e-05 0)
(0.0791739 -2.22666e-05 0)
(0.0791731 -2.40957e-05 0)
(0.0791724 -2.58957e-05 0)
(0.0791721 -2.76554e-05 0)
(0.079172 -2.93842e-05 0)
(0.0791819 -1.31806e-06 0)
(0.0791778 -3.0778e-06 0)
(0.0791775 -5.00636e-06 0)
(0.079177 -6.95748e-06 0)
(0.0791764 -8.90596e-06 0)
(0.0791756 -1.0855e-05 0)
(0.0791748 -1.2789e-05 0)
(0.0791738 -1.47211e-05 0)
(0.0791728 -1.66305e-05 0)
(0.0791718 -1.85372e-05 0)
(0.0791708 -2.04155e-05 0)
(0.0791699 -2.22822e-05 0)
(0.0791691 -2.41128e-05 0)
(0.0791685 -2.59141e-05 0)
(0.0791681 -2.76752e-05 0)
(0.079168 -2.94052e-05 0)
(0.079178 -1.31893e-06 0)
(0.0791739 -3.07992e-06 0)
(0.0791735 -5.00982e-06 0)
(0.0791731 -6.96232e-06 0)
(0.0791724 -8.9122e-06 0)
(0.0791717 -1.08626e-05 0)
(0.0791708 -1.27981e-05 0)
(0.0791699 -1.47315e-05 0)
(0.0791689 -1.66424e-05 0)
(0.0791679 -1.85505e-05 0)
(0.0791669 -2.04303e-05 0)
(0.0791659 -2.22984e-05 0)
(0.0791651 -2.41304e-05 0)
(0.0791645 -2.59331e-05 0)
(0.0791642 -2.76954e-05 0)
(0.0791641 -2.94267e-05 0)
(0.079174 -1.31983e-06 0)
(0.0791699 -3.08215e-06 0)
(0.0791696 -5.01345e-06 0)
(0.0791691 -6.96737e-06 0)
(0.0791684 -8.91867e-06 0)
(0.0791677 -1.08705e-05 0)
(0.0791668 -1.28075e-05 0)
(0.0791659 -1.47423e-05 0)
(0.0791649 -1.66547e-05 0)
(0.0791639 -1.85642e-05 0)
(0.0791629 -2.04454e-05 0)
(0.079162 -2.2315e-05 0)
(0.0791612 -2.41485e-05 0)
(0.0791605 -2.59524e-05 0)
(0.0791602 -2.77162e-05 0)
(0.0791601 -2.94486e-05 0)
(0.07917 -1.32079e-06 0)
(0.0791659 -3.08443e-06 0)
(0.0791656 -5.01716e-06 0)
(0.0791651 -6.97254e-06 0)
(0.0791645 -8.92531e-06 0)
(0.0791637 -1.08786e-05 0)
(0.0791629 -1.2817e-05 0)
(0.0791619 -1.47534e-05 0)
(0.0791609 -1.66672e-05 0)
(0.0791599 -1.85782e-05 0)
(0.0791589 -2.04609e-05 0)
(0.079158 -2.23319e-05 0)
(0.0791572 -2.41668e-05 0)
(0.0791566 -2.59721e-05 0)
(0.0791562 -2.77371e-05 0)
(0.0791561 -2.94709e-05 0)
(0.0791661 -1.32177e-06 0)
(0.079162 -3.08675e-06 0)
(0.0791616 -5.02095e-06 0)
(0.0791611 -6.97782e-06 0)
(0.0791605 -8.93208e-06 0)
(0.0791598 -1.08869e-05 0)
(0.0791589 -1.28268e-05 0)
(0.079158 -1.47646e-05 0)
(0.079157 -1.668e-05 0)
(0.0791559 -1.85924e-05 0)
(0.0791549 -2.04765e-05 0)
(0.079154 -2.23489e-05 0)
(0.0791532 -2.41852e-05 0)
(0.0791526 -2.59918e-05 0)
(0.0791522 -2.77582e-05 0)
(0.0791521 -2.94933e-05 0)
(0.0791621 -1.32276e-06 0)
(0.079158 -3.08912e-06 0)
(0.0791576 -5.0248e-06 0)
(0.0791572 -6.98317e-06 0)
(0.0791565 -8.93893e-06 0)
(0.0791558 -1.08953e-05 0)
(0.0791549 -1.28366e-05 0)
(0.079154 -1.47759e-05 0)
(0.079153 -1.66928e-05 0)
(0.079152 -1.86067e-05 0)
(0.079151 -2.04922e-05 0)
(0.07915 -2.2366e-05 0)
(0.0791492 -2.42037e-05 0)
(0.0791486 -2.60117e-05 0)
(0.0791482 -2.77794e-05 0)
(0.0791481 -2.95158e-05 0)
(0.0791581 -1.32378e-06 0)
(0.079154 -3.09149e-06 0)
(0.0791537 -5.02866e-06 0)
(0.0791532 -6.98855e-06 0)
(0.0791525 -8.94581e-06 0)
(0.0791518 -1.09036e-05 0)
(0.0791509 -1.28465e-05 0)
(0.07915 -1.47873e-05 0)
(0.079149 -1.67056e-05 0)
(0.079148 -1.86209e-05 0)
(0.079147 -2.0508e-05 0)
(0.079146 -2.23831e-05 0)
(0.0791452 -2.42223e-05 0)
(0.0791446 -2.60316e-05 0)
(0.0791443 -2.78007e-05 0)
(0.0791442 -2.95384e-05 0)
(0.0791541 -1.32479e-06 0)
(0.07915 -3.09386e-06 0)
(0.0791497 -5.03252e-06 0)
(0.0791492 -6.99392e-06 0)
(0.0791486 -8.95268e-06 0)
(0.0791478 -1.0912e-05 0)
(0.0791469 -1.28564e-05 0)
(0.079146 -1.47986e-05 0)
(0.079145 -1.67184e-05 0)
(0.079144 -1.86352e-05 0)
(0.079143 -2.05237e-05 0)
(0.0791421 -2.24001e-05 0)
(0.0791413 -2.42408e-05 0)
(0.0791406 -2.60514e-05 0)
(0.0791403 -2.78219e-05 0)
(0.0791402 -2.9561e-05 0)
(0.0791502 -1.32581e-06 0)
(0.0791461 -3.09622e-06 0)
(0.0791457 -5.03636e-06 0)
(0.0791452 -6.99926e-06 0)
(0.0791446 -8.95952e-06 0)
(0.0791438 -1.09203e-05 0)
(0.079143 -1.28662e-05 0)
(0.079142 -1.48099e-05 0)
(0.079141 -1.67312e-05 0)
(0.07914 -1.86494e-05 0)
(0.079139 -2.05393e-05 0)
(0.0791381 -2.24172e-05 0)
(0.0791373 -2.42593e-05 0)
(0.0791366 -2.60712e-05 0)
(0.0791363 -2.78431e-05 0)
(0.0791362 -2.95835e-05 0)
(0.0791462 -1.32682e-06 0)
(0.0791421 -3.09857e-06 0)
(0.0791417 -5.04019e-06 0)
(0.0791412 -7.00457e-06 0)
(0.0791406 -8.96633e-06 0)
(0.0791398 -1.09286e-05 0)
(0.079139 -1.2876e-05 0)
(0.079138 -1.48211e-05 0)
(0.079137 -1.67439e-05 0)
(0.079136 -1.86635e-05 0)
(0.079135 -2.05549e-05 0)
(0.0791341 -2.24341e-05 0)
(0.0791333 -2.42776e-05 0)
(0.0791326 -2.6091e-05 0)
(0.0791323 -2.78642e-05 0)
(0.0791322 -2.9606e-05 0)
(0.0791422 -1.32783e-06 0)
(0.0791381 -3.10089e-06 0)
(0.0791377 -5.04396e-06 0)
(0.0791372 -7.00981e-06 0)
(0.0791366 -8.97303e-06 0)
(0.0791358 -1.09368e-05 0)
(0.079135 -1.28856e-05 0)
(0.079134 -1.48321e-05 0)
(0.079133 -1.67564e-05 0)
(0.079132 -1.86774e-05 0)
(0.079131 -2.05703e-05 0)
(0.0791301 -2.24509e-05 0)
(0.0791293 -2.42959e-05 0)
(0.0791286 -2.61106e-05 0)
(0.0791283 -2.78853e-05 0)
(0.0791282 -2.96284e-05 0)
(0.0791382 -1.32883e-06 0)
(0.0791341 -3.10317e-06 0)
(0.0791337 -5.04768e-06 0)
(0.0791332 -7.01498e-06 0)
(0.0791326 -8.97968e-06 0)
(0.0791319 -1.09449e-05 0)
(0.079131 -1.28952e-05 0)
(0.07913 -1.48431e-05 0)
(0.079129 -1.67689e-05 0)
(0.079128 -1.86913e-05 0)
(0.079127 -2.05856e-05 0)
(0.0791261 -2.24676e-05 0)
(0.0791253 -2.4314e-05 0)
(0.0791246 -2.61301e-05 0)
(0.0791243 -2.79062e-05 0)
(0.0791242 -2.96508e-05 0)
(0.0791342 -1.3298e-06 0)
(0.0791301 -3.10543e-06 0)
(0.0791297 -5.05134e-06 0)
(0.0791292 -7.02007e-06 0)
(0.0791286 -8.98621e-06 0)
(0.0791279 -1.09528e-05 0)
(0.079127 -1.29045e-05 0)
(0.079126 -1.48539e-05 0)
(0.079125 -1.67811e-05 0)
(0.079124 -1.87049e-05 0)
(0.079123 -2.06007e-05 0)
(0.0791221 -2.24841e-05 0)
(0.0791213 -2.4332e-05 0)
(0.0791206 -2.61495e-05 0)
(0.0791203 -2.7927e-05 0)
(0.0791202 -2.9673e-05 0)
(0.0791302 -1.33077e-06 0)
(0.0791261 -3.10763e-06 0)
(0.0791257 -5.05495e-06 0)
(0.0791252 -7.02509e-06 0)
(0.0791246 -8.99265e-06 0)
(0.0791238 -1.09606e-05 0)
(0.079123 -1.29138e-05 0)
(0.079122 -1.48645e-05 0)
(0.079121 -1.67933e-05 0)
(0.07912 -1.87184e-05 0)
(0.079119 -2.06157e-05 0)
(0.0791181 -2.25004e-05 0)
(0.0791173 -2.43498e-05 0)
(0.0791166 -2.61687e-05 0)
(0.0791163 -2.79477e-05 0)
(0.0791162 -2.96951e-05 0)
(0.0791262 -1.33172e-06 0)
(0.0791221 -3.10981e-06 0)
(0.0791217 -5.05849e-06 0)
(0.0791212 -7.03e-06 0)
(0.0791206 -8.99898e-06 0)
(0.0791198 -1.09683e-05 0)
(0.079119 -1.2923e-05 0)
(0.079118 -1.4875e-05 0)
(0.079117 -1.68052e-05 0)
(0.079116 -1.87317e-05 0)
(0.079115 -2.06305e-05 0)
(0.079114 -2.25166e-05 0)
(0.0791132 -2.43675e-05 0)
(0.0791126 -2.61877e-05 0)
(0.0791123 -2.79682e-05 0)
(0.0791122 -2.97171e-05 0)
(0.0791222 -1.33265e-06 0)
(0.0791181 -3.11194e-06 0)
(0.0791177 -5.06196e-06 0)
(0.0791172 -7.03484e-06 0)
(0.0791166 -9.00519e-06 0)
(0.0791158 -1.09759e-05 0)
(0.079115 -1.29319e-05 0)
(0.079114 -1.48853e-05 0)
(0.079113 -1.6817e-05 0)
(0.079112 -1.87448e-05 0)
(0.079111 -2.06451e-05 0)
(0.07911 -2.25326e-05 0)
(0.0791092 -2.4385e-05 0)
(0.0791086 -2.62066e-05 0)
(0.0791082 -2.79885e-05 0)
(0.0791081 -2.97389e-05 0)
(0.0791182 -1.33356e-06 0)
(0.0791141 -3.11403e-06 0)
(0.0791137 -5.06537e-06 0)
(0.0791132 -7.03958e-06 0)
(0.0791126 -9.0113e-06 0)
(0.0791118 -1.09833e-05 0)
(0.0791109 -1.29408e-05 0)
(0.07911 -1.48955e-05 0)
(0.079109 -1.68286e-05 0)
(0.079108 -1.87578e-05 0)
(0.079107 -2.06595e-05 0)
(0.079106 -2.25483e-05 0)
(0.0791052 -2.44023e-05 0)
(0.0791046 -2.62253e-05 0)
(0.0791042 -2.80088e-05 0)
(0.0791041 -2.97606e-05 0)
(0.0791142 -1.33446e-06 0)
(0.07911 -3.11609e-06 0)
(0.0791097 -5.06873e-06 0)
(0.0791092 -7.04424e-06 0)
(0.0791086 -9.01731e-06 0)
(0.0791078 -1.09906e-05 0)
(0.0791069 -1.29495e-05 0)
(0.079106 -1.49055e-05 0)
(0.079105 -1.68401e-05 0)
(0.079104 -1.87706e-05 0)
(0.0791029 -2.06738e-05 0)
(0.079102 -2.2564e-05 0)
(0.0791012 -2.44194e-05 0)
(0.0791006 -2.62439e-05 0)
(0.0791002 -2.80289e-05 0)
(0.0791001 -2.97823e-05 0)
(0.0791102 -1.33534e-06 0)
(0.079106 -3.11811e-06 0)
(0.0791057 -5.07203e-06 0)
(0.0791052 -7.04884e-06 0)
(0.0791045 -9.02325e-06 0)
(0.0791038 -1.09978e-05 0)
(0.0791029 -1.29581e-05 0)
(0.079102 -1.49153e-05 0)
(0.079101 -1.68514e-05 0)
(0.0790999 -1.87832e-05 0)
(0.0790989 -2.06879e-05 0)
(0.079098 -2.25794e-05 0)
(0.0790972 -2.44365e-05 0)
(0.0790965 -2.62624e-05 0)
(0.0790962 -2.80489e-05 0)
(0.0790961 -2.98038e-05 0)
(0.0791061 -1.33621e-06 0)
(0.079102 -3.12012e-06 0)
(0.0791016 -5.07531e-06 0)
(0.0791012 -7.05337e-06 0)
(0.0791005 -9.02911e-06 0)
(0.0790998 -1.1005e-05 0)
(0.0790989 -1.29666e-05 0)
(0.0790979 -1.49251e-05 0)
(0.0790969 -1.68626e-05 0)
(0.0790959 -1.87957e-05 0)
(0.0790949 -2.0702e-05 0)
(0.079094 -2.25948e-05 0)
(0.0790931 -2.44534e-05 0)
(0.0790925 -2.62808e-05 0)
(0.0790922 -2.80689e-05 0)
(0.0790921 -2.98254e-05 0)
(0.0791021 -1.33707e-06 0)
(0.079098 -3.12211e-06 0)
(0.0790976 -5.07857e-06 0)
(0.0790971 -7.05791e-06 0)
(0.0790965 -9.03498e-06 0)
(0.0790957 -1.10121e-05 0)
(0.0790949 -1.29751e-05 0)
(0.0790939 -1.49348e-05 0)
(0.0790929 -1.68738e-05 0)
(0.0790919 -1.88082e-05 0)
(0.0790909 -2.0716e-05 0)
(0.0790899 -2.26101e-05 0)
(0.0790891 -2.44703e-05 0)
(0.0790885 -2.62992e-05 0)
(0.0790881 -2.80888e-05 0)
(0.079088 -2.9847e-05 0)
(0.0790981 -1.33793e-06 0)
(0.079094 -3.12414e-06 0)
(0.0790936 -5.08186e-06 0)
(0.0790931 -7.06246e-06 0)
(0.0790925 -9.04086e-06 0)
(0.0790917 -1.10192e-05 0)
(0.0790908 -1.29836e-05 0)
(0.0790899 -1.49446e-05 0)
(0.0790889 -1.68851e-05 0)
(0.0790878 -1.88206e-05 0)
(0.0790868 -2.073e-05 0)
(0.0790859 -2.26255e-05 0)
(0.0790851 -2.44873e-05 0)
(0.0790844 -2.63176e-05 0)
(0.0790841 -2.81089e-05 0)
(0.079084 -2.98687e-05 0)
(0.0790941 -1.33879e-06 0)
(0.0790899 -3.1262e-06 0)
(0.0790896 -5.08523e-06 0)
(0.0790891 -7.06712e-06 0)
(0.0790884 -9.04689e-06 0)
(0.0790877 -1.10265e-05 0)
(0.0790868 -1.29923e-05 0)
(0.0790859 -1.49545e-05 0)
(0.0790848 -1.68965e-05 0)
(0.0790838 -1.88333e-05 0)
(0.0790828 -2.07442e-05 0)
(0.0790819 -2.2641e-05 0)
(0.079081 -2.45044e-05 0)
(0.0790804 -2.63362e-05 0)
(0.0790801 -2.81292e-05 0)
(0.0790799 -2.98907e-05 0)
(0.0790901 -1.33968e-06 0)
(0.0790859 -3.12834e-06 0)
(0.0790855 -5.08872e-06 0)
(0.0790851 -7.07194e-06 0)
(0.0790844 -9.05311e-06 0)
(0.0790837 -1.10339e-05 0)
(0.0790828 -1.30013e-05 0)
(0.0790818 -1.49646e-05 0)
(0.0790808 -1.69081e-05 0)
(0.0790798 -1.88462e-05 0)
(0.0790788 -2.07586e-05 0)
(0.0790778 -2.26568e-05 0)
(0.079077 -2.45218e-05 0)
(0.0790764 -2.63552e-05 0)
(0.079076 -2.81498e-05 0)
(0.0790759 -2.9913e-05 0)
(0.079086 -1.3406e-06 0)
(0.0790819 -3.13062e-06 0)
(0.0790815 -5.09242e-06 0)
(0.079081 -7.07705e-06 0)
(0.0790804 -9.0597e-06 0)
(0.0790796 -1.10418e-05 0)
(0.0790787 -1.30107e-05 0)
(0.0790778 -1.49752e-05 0)
(0.0790768 -1.69203e-05 0)
(0.0790757 -1.88596e-05 0)
(0.0790747 -2.07735e-05 0)
(0.0790738 -2.26731e-05 0)
(0.079073 -2.45396e-05 0)
(0.0790723 -2.63746e-05 0)
(0.079072 -2.81709e-05 0)
(0.0790719 -2.99359e-05 0)
(0.079082 -1.34157e-06 0)
(0.0790778 -3.13309e-06 0)
(0.0790775 -5.09643e-06 0)
(0.079077 -7.08255e-06 0)
(0.0790763 -9.06677e-06 0)
(0.0790756 -1.10503e-05 0)
(0.0790747 -1.30207e-05 0)
(0.0790737 -1.49865e-05 0)
(0.0790727 -1.69332e-05 0)
(0.0790717 -1.88736e-05 0)
(0.0790707 -2.07892e-05 0)
(0.0790697 -2.269e-05 0)
(0.0790689 -2.45582e-05 0)
(0.0790683 -2.63947e-05 0)
(0.0790679 -2.81928e-05 0)
(0.0790678 -2.99595e-05 0)
(0.079078 -1.34263e-06 0)
(0.0790738 -3.13581e-06 0)
(0.0790734 -5.10087e-06 0)
(0.079073 -7.08864e-06 0)
(0.0790723 -9.07458e-06 0)
(0.0790715 -1.10596e-05 0)
(0.0790707 -1.30317e-05 0)
(0.0790697 -1.49988e-05 0)
(0.0790687 -1.69471e-05 0)
(0.0790677 -1.88888e-05 0)
(0.0790666 -2.0806e-05 0)
(0.0790657 -2.27081e-05 0)
(0.0790649 -2.45779e-05 0)
(0.0790642 -2.64158e-05 0)
(0.0790639 -2.82156e-05 0)
(0.0790637 -2.99842e-05 0)
(0.0790739 -1.3438e-06 0)
(0.0790698 -3.13893e-06 0)
(0.0790694 -5.10591e-06 0)
(0.0790689 -7.09553e-06 0)
(0.0790683 -9.0834e-06 0)
(0.0790675 -1.107e-05 0)
(0.0790666 -1.30439e-05 0)
(0.0790657 -1.50124e-05 0)
(0.0790646 -1.69625e-05 0)
(0.0790636 -1.89054e-05 0)
(0.0790626 -2.08242e-05 0)
(0.0790616 -2.27275e-05 0)
(0.0790608 -2.45989e-05 0)
(0.0790602 -2.64383e-05 0)
(0.0790598 -2.82398e-05 0)
(0.0790597 -3.00102e-05 0)
(0.0790699 -1.34514e-06 0)
(0.0790657 -3.14254e-06 0)
(0.0790654 -5.11175e-06 0)
(0.0790649 -7.10349e-06 0)
(0.0790642 -9.09352e-06 0)
(0.0790635 -1.10819e-05 0)
(0.0790626 -1.30579e-05 0)
(0.0790616 -1.50278e-05 0)
(0.0790606 -1.69798e-05 0)
(0.0790596 -1.89239e-05 0)
(0.0790585 -2.08444e-05 0)
(0.0790576 -2.27489e-05 0)
(0.0790567 -2.46219e-05 0)
(0.0790561 -2.64627e-05 0)
(0.0790557 -2.82658e-05 0)
(0.0790556 -3.0038e-05 0)
(0.0790658 -1.34669e-06 0)
(0.0790617 -3.14677e-06 0)
(0.0790613 -5.11861e-06 0)
(0.0790608 -7.11284e-06 0)
(0.0790602 -9.10541e-06 0)
(0.0790594 -1.10959e-05 0)
(0.0790585 -1.30742e-05 0)
(0.0790576 -1.50457e-05 0)
(0.0790565 -1.69997e-05 0)
(0.0790555 -1.89451e-05 0)
(0.0790545 -2.08673e-05 0)
(0.0790535 -2.27729e-05 0)
(0.0790527 -2.46474e-05 0)
(0.079052 -2.64895e-05 0)
(0.0790517 -2.82941e-05 0)
(0.0790516 -3.00682e-05 0)
(0.0790618 -1.3485e-06 0)
(0.0790576 -3.15186e-06 0)
(0.0790573 -5.12681e-06 0)
(0.0790568 -7.12397e-06 0)
(0.0790561 -9.11951e-06 0)
(0.0790554 -1.11124e-05 0)
(0.0790545 -1.30934e-05 0)
(0.0790535 -1.50667e-05 0)
(0.0790525 -1.70229e-05 0)
(0.0790514 -1.89696e-05 0)
(0.0790504 -2.08936e-05 0)
(0.0790494 -2.28002e-05 0)
(0.0790486 -2.46762e-05 0)
(0.079048 -2.65195e-05 0)
(0.0790476 -2.83256e-05 0)
(0.0790475 -3.01015e-05 0)
(0.0790577 -1.35069e-06 0)
(0.0790536 -3.15795e-06 0)
(0.0790532 -5.13663e-06 0)
(0.0790527 -7.13734e-06 0)
(0.0790521 -9.1364e-06 0)
(0.0790513 -1.11323e-05 0)
(0.0790504 -1.31162e-05 0)
(0.0790495 -1.50917e-05 0)
(0.0790484 -1.70504e-05 0)
(0.0790474 -1.89985e-05 0)
(0.0790464 -2.09243e-05 0)
(0.0790454 -2.28319e-05 0)
(0.0790446 -2.47093e-05 0)
(0.0790439 -2.65536e-05 0)
(0.0790435 -2.83611e-05 0)
(0.0790434 -3.01387e-05 0)
(0.0790537 -1.3533e-06 0)
(0.0790495 -3.1653e-06 0)
(0.0790491 -5.14849e-06 0)
(0.0790487 -7.15347e-06 0)
(0.079048 -9.15675e-06 0)
(0.0790472 -1.11561e-05 0)
(0.0790463 -1.31437e-05 0)
(0.0790454 -1.51218e-05 0)
(0.0790444 -1.70833e-05 0)
(0.0790433 -1.90329e-05 0)
(0.0790423 -2.09608e-05 0)
(0.0790413 -2.28692e-05 0)
(0.0790405 -2.47479e-05 0)
(0.0790398 -2.65931e-05 0)
(0.0790394 -2.84017e-05 0)
(0.0790393 -3.0181e-05 0)
(0.0790496 -1.35645e-06 0)
(0.0790454 -3.17417e-06 0)
(0.0790451 -5.16281e-06 0)
(0.0790446 -7.17295e-06 0)
(0.0790439 -9.18131e-06 0)
(0.0790432 -1.1185e-05 0)
(0.0790423 -1.31769e-05 0)
(0.0790413 -1.5158e-05 0)
(0.0790403 -1.71229e-05 0)
(0.0790393 -1.90744e-05 0)
(0.0790382 -2.10045e-05 0)
(0.0790372 -2.29137e-05 0)
(0.0790364 -2.47937e-05 0)
(0.0790357 -2.66394e-05 0)
(0.0790354 -2.8449e-05 0)
(0.0790352 -3.02296e-05 0)
(0.0790455 -1.36026e-06 0)
(0.0790413 -3.18484e-06 0)
(0.079041 -5.18002e-06 0)
(0.0790405 -7.19642e-06 0)
(0.0790398 -9.21091e-06 0)
(0.0790391 -1.12199e-05 0)
(0.0790382 -1.3217e-05 0)
(0.0790372 -1.5202e-05 0)
(0.0790362 -1.71709e-05 0)
(0.0790352 -1.91245e-05 0)
(0.0790341 -2.10573e-05 0)
(0.0790332 -2.29672e-05 0)
(0.0790323 -2.48485e-05 0)
(0.0790317 -2.66945e-05 0)
(0.0790313 -2.85045e-05 0)
(0.0790311 -3.02863e-05 0)
(0.0790415 -1.36483e-06 0)
(0.0790372 -3.19759e-06 0)
(0.0790369 -5.20062e-06 0)
(0.0790364 -7.22456e-06 0)
(0.0790358 -9.24641e-06 0)
(0.079035 -1.12618e-05 0)
(0.0790341 -1.32653e-05 0)
(0.0790332 -1.52551e-05 0)
(0.0790321 -1.72289e-05 0)
(0.0790311 -1.91853e-05 0)
(0.0790301 -2.11212e-05 0)
(0.0790291 -2.30321e-05 0)
(0.0790282 -2.49147e-05 0)
(0.0790276 -2.67605e-05 0)
(0.0790272 -2.85708e-05 0)
(0.079027 -3.03532e-05 0)
(0.0790374 -1.37031e-06 0)
(0.0790331 -3.21268e-06 0)
(0.0790328 -5.22501e-06 0)
(0.0790323 -7.25794e-06 0)
(0.0790317 -9.28859e-06 0)
(0.0790309 -1.13118e-05 0)
(0.07903 -1.3323e-05 0)
(0.0790291 -1.53188e-05 0)
(0.0790281 -1.72988e-05 0)
(0.079027 -1.92589e-05 0)
(0.079026 -2.11988e-05 0)
(0.079025 -2.31108e-05 0)
(0.0790242 -2.49951e-05 0)
(0.0790235 -2.68404e-05 0)
(0.0790231 -2.86504e-05 0)
(0.0790229 -3.04329e-05 0)
(0.0790333 -1.37678e-06 0)
(0.079029 -3.2303e-06 0)
(0.0790287 -5.25351e-06 0)
(0.0790282 -7.29708e-06 0)
(0.0790275 -9.33814e-06 0)
(0.0790268 -1.13709e-05 0)
(0.0790259 -1.33913e-05 0)
(0.079025 -1.53947e-05 0)
(0.079024 -1.73822e-05 0)
(0.0790229 -1.93473e-05 0)
(0.0790219 -2.12925e-05 0)
(0.0790209 -2.32065e-05 0)
(0.0790201 -2.5093e-05 0)
(0.0790194 -2.69375e-05 0)
(0.079019 -2.87469e-05 0)
(0.0790188 -3.05282e-05 0)
(0.0790291 -1.38433e-06 0)
(0.0790249 -3.25055e-06 0)
(0.0790245 -5.28631e-06 0)
(0.079024 -7.3422e-06 0)
(0.0790234 -9.39539e-06 0)
(0.0790227 -1.14394e-05 0)
(0.0790218 -1.34709e-05 0)
(0.0790209 -1.54838e-05 0)
(0.0790199 -1.74808e-05 0)
(0.0790188 -1.94527e-05 0)
(0.0790178 -2.14051e-05 0)
(0.0790168 -2.33224e-05 0)
(0.079016 -2.52128e-05 0)
(0.0790153 -2.70571e-05 0)
(0.0790149 -2.88659e-05 0)
(0.0790147 -3.06449e-05 0)
(0.079025 -1.39301e-06 0)
(0.0790207 -3.27333e-06 0)
(0.0790203 -5.32328e-06 0)
(0.0790199 -7.39324e-06 0)
(0.0790192 -9.46032e-06 0)
(0.0790185 -1.15176e-05 0)
(0.0790177 -1.3562e-05 0)
(0.0790167 -1.55865e-05 0)
(0.0790157 -1.75952e-05 0)
(0.0790147 -1.95763e-05 0)
(0.0790137 -2.15387e-05 0)
(0.0790127 -2.3462e-05 0)
(0.0790119 -2.53596e-05 0)
(0.0790112 -2.72065e-05 0)
(0.0790108 -2.90181e-05 0)
(0.0790106 -3.07967e-05 0)
(0.0790208 -1.40278e-06 0)
(0.0790165 -3.29842e-06 0)
(0.0790161 -5.36402e-06 0)
(0.0790157 -7.44962e-06 0)
(0.0790151 -9.5322e-06 0)
(0.0790143 -1.16045e-05 0)
(0.0790135 -1.36638e-05 0)
(0.0790126 -1.57021e-05 0)
(0.0790116 -1.77248e-05 0)
(0.0790106 -1.97178e-05 0)
(0.0790096 -2.16933e-05 0)
(0.0790086 -2.3626e-05 0)
(0.0790078 -2.55356e-05 0)
(0.0790071 -2.73901e-05 0)
(0.0790067 -2.92122e-05 0)
(0.0790065 -3.09986e-05 0)
(0.0790166 -1.41354e-06 0)
(0.0790122 -3.32528e-06 0)
(0.0790119 -5.4077e-06 0)
(0.0790114 -7.51022e-06 0)
(0.0790108 -9.60965e-06 0)
(0.0790101 -1.16986e-05 0)
(0.0790093 -1.37743e-05 0)
(0.0790084 -1.58285e-05 0)
(0.0790074 -1.78672e-05 0)
(0.0790064 -1.98744e-05 0)
(0.0790055 -2.18657e-05 0)
(0.0790045 -2.38104e-05 0)
(0.0790037 -2.57355e-05 0)
(0.079003 -2.76006e-05 0)
(0.0790026 -2.94375e-05 0)
(0.0790023 -3.12355e-05 0)
(0.0790123 -1.42505e-06 0)
(0.0790079 -3.35317e-06 0)
(0.0790076 -5.45308e-06 0)
(0.0790072 -7.57331e-06 0)
(0.0790066 -9.69041e-06 0)
(0.0790059 -1.1797e-05 0)
(0.0790051 -1.38903e-05 0)
(0.0790042 -1.59618e-05 0)
(0.0790032 -1.80179e-05 0)
(0.0790023 -2.00413e-05 0)
(0.0790013 -2.20501e-05 0)
(0.0790004 -2.40084e-05 0)
(0.0789996 -2.59511e-05 0)
(0.0789989 -2.78269e-05 0)
(0.0789985 -2.96793e-05 0)
(0.0789982 -3.14873e-05 0)
(0.0790081 -1.437e-06 0)
(0.0790036 -3.38104e-06 0)
(0.0790033 -5.49847e-06 0)
(0.0790029 -7.63656e-06 0)
(0.0790023 -9.77149e-06 0)
(0.0790016 -1.18963e-05 0)
(0.0790008 -1.40074e-05 0)
(0.0789999 -1.60971e-05 0)
(0.078999 -1.81713e-05 0)
(0.0789981 -2.02121e-05 0)
(0.0789971 -2.22391e-05 0)
(0.0789962 -2.4212e-05 0)
(0.0789954 -2.61733e-05 0)
(0.0789948 -2.80585e-05 0)
(0.0789944 -2.99268e-05 0)
(0.0789941 -3.17425e-05 0)
(0.0790037 -1.44893e-06 0)
(0.0789993 -3.40761e-06 0)
(0.078999 -5.54177e-06 0)
(0.0789985 -7.697e-06 0)
(0.078998 -9.84909e-06 0)
(0.0789973 -1.19916e-05 0)
(0.0789965 -1.41202e-05 0)
(0.0789957 -1.62281e-05 0)
(0.0789947 -1.832e-05 0)
(0.0789938 -2.03788e-05 0)
(0.0789929 -2.24241e-05 0)
(0.0789921 -2.44123e-05 0)
(0.0789913 -2.63921e-05 0)
(0.0789907 -2.82851e-05 0)
(0.0789903 -3.01713e-05 0)
(0.07899 -3.19901e-05 0)
(0.0789994 -1.46031e-06 0)
(0.0789949 -3.43138e-06 0)
(0.0789946 -5.58052e-06 0)
(0.0789941 -7.75121e-06 0)
(0.0789936 -9.91876e-06 0)
(0.0789929 -1.20775e-05 0)
(0.0789922 -1.4222e-05 0)
(0.0789913 -1.6347e-05 0)
(0.0789905 -1.84553e-05 0)
(0.0789896 -2.05318e-05 0)
(0.0789887 -2.25942e-05 0)
(0.0789879 -2.45981e-05 0)
(0.0789871 -2.65957e-05 0)
(0.0789866 -2.84968e-05 0)
(0.0789862 -3.04035e-05 0)
(0.078986 -3.22171e-05 0)
(0.078995 -1.47049e-06 0)
(0.0789904 -3.45067e-06 0)
(0.0789901 -5.61197e-06 0)
(0.0789897 -7.79525e-06 0)
(0.0789892 -9.97535e-06 0)
(0.0789885 -1.21476e-05 0)
(0.0789878 -1.43049e-05 0)
(0.078987 -1.64444e-05 0)
(0.0789861 -1.85663e-05 0)
(0.0789853 -2.06587e-05 0)
(0.0789844 -2.27361e-05 0)
(0.0789837 -2.47561e-05 0)
(0.078983 -2.67702e-05 0)
(0.0789824 -2.86835e-05 0)
(0.0789821 -3.06088e-05 0)
(0.0789819 -3.24001e-05 0)
(0.0789905 -1.47875e-06 0)
(0.0789859 -3.46354e-06 0)
(0.0789856 -5.63292e-06 0)
(0.0789852 -7.82464e-06 0)
(0.0789847 -1.00131e-05 0)
(0.0789841 -1.21946e-05 0)
(0.0789834 -1.43604e-05 0)
(0.0789826 -1.65105e-05 0)
(0.0789818 -1.8642e-05 0)
(0.078981 -2.07474e-05 0)
(0.0789802 -2.28367e-05 0)
(0.0789794 -2.48722e-05 0)
(0.0789788 -2.68996e-05 0)
(0.0789783 -2.8824e-05 0)
(0.078978 -3.07532e-05 0)
(0.078978 -3.24999e-05 0)
(0.078986 -1.48426e-06 0)
(0.0789814 -3.46818e-06 0)
(0.0789811 -5.64044e-06 0)
(0.0789807 -7.83534e-06 0)
(0.0789802 -1.00269e-05 0)
(0.0789796 -1.22129e-05 0)
(0.0789789 -1.43828e-05 0)
(0.0789782 -1.65396e-05 0)
(0.0789774 -1.86761e-05 0)
(0.0789766 -2.0789e-05 0)
(0.0789759 -2.28828e-05 0)
(0.0789752 -2.49252e-05 0)
(0.0789746 -2.69514e-05 0)
(0.0789742 -2.88653e-05 0)
(0.078974 -3.0769e-05 0)
(0.0789741 -3.24521e-05 0)
(0.0789815 -1.48625e-06 0)
(0.0789769 -3.4641e-06 0)
(0.0789766 -5.63396e-06 0)
(0.0789762 -7.82654e-06 0)
(0.0789757 -1.00156e-05 0)
(0.0789751 -1.21998e-05 0)
(0.0789745 -1.4367e-05 0)
(0.0789738 -1.65225e-05 0)
(0.078973 -1.86525e-05 0)
(0.0789723 -2.07574e-05 0)
(0.0789716 -2.2834e-05 0)
(0.0789709 -2.48569e-05 0)
(0.0789705 -2.68504e-05 0)
(0.0789702 -2.87241e-05 0)
(0.0789701 -3.05735e-05 0)
(0.0789704 -3.21816e-05 0)
(0.078977 -1.48449e-06 0)
(0.0789723 -3.44982e-06 0)
(0.078972 -5.61053e-06 0)
(0.0789717 -7.79274e-06 0)
(0.0789712 -9.9691e-06 0)
(0.0789706 -1.21387e-05 0)
(0.07897 -1.42862e-05 0)
(0.0789693 -1.64187e-05 0)
(0.0789686 -1.85172e-05 0)
(0.0789679 -2.05865e-05 0)
(0.0789673 -2.26151e-05 0)
(0.0789668 -2.45868e-05 0)
(0.0789664 -2.65154e-05 0)
(0.0789662 -2.83236e-05 0)
(0.0789664 -3.00956e-05 0)
(0.0789669 -3.16233e-05 0)
(0.0789724 -1.47831e-06 0)
(0.0789677 -3.41532e-06 0)
(0.0789675 -5.55242e-06 0)
(0.0789671 -7.70776e-06 0)
(0.0789667 -9.85217e-06 0)
(0.0789662 -1.19848e-05 0)
(0.0789656 -1.40871e-05 0)
(0.078965 -1.61682e-05 0)
(0.0789643 -1.82056e-05 0)
(0.0789637 -2.02094e-05 0)
(0.0789632 -2.21605e-05 0)
(0.0789627 -2.4054e-05 0)
(0.0789625 -2.58924e-05 0)
(0.0789625 -2.76172e-05 0)
(0.0789628 -2.9296e-05 0)
(0.0789635 -3.07446e-05 0)
(0.0789678 -1.46358e-06 0)
(0.0789632 -3.34501e-06 0)
(0.078963 -5.43491e-06 0)
(0.0789627 -7.53841e-06 0)
(0.0789623 -9.62443e-06 0)
(0.0789618 -1.16924e-05 0)
(0.0789613 -1.37215e-05 0)
(0.0789607 -1.5723e-05 0)
(0.0789602 -1.7672e-05 0)
(0.0789596 -1.9584e-05 0)
(0.0789592 -2.14339e-05 0)
(0.0789589 -2.32286e-05 0)
(0.0789587 -2.49594e-05 0)
(0.0789589 -2.659e-05 0)
(0.0789594 -2.81689e-05 0)
(0.0789604 -2.95462e-05 0)
(0.0789633 -1.43362e-06 0)
(0.0789588 -3.22589e-06 0)
(0.0789586 -5.23819e-06 0)
(0.0789583 -7.25953e-06 0)
(0.078958 -9.25755e-06 0)
(0.0789576 -1.12323e-05 0)
(0.0789571 -1.31614e-05 0)
(0.0789566 -1.50585e-05 0)
(0.0789562 -1.68963e-05 0)
(0.0789557 -1.86963e-05 0)
(0.0789554 -2.04279e-05 0)
(0.0789552 -2.21103e-05 0)
(0.0789552 -2.37233e-05 0)
(0.0789555 -2.52553e-05 0)
(0.0789563 -2.67331e-05 0)
(0.0789574 -2.80491e-05 0)
(0.0789588 -1.38278e-06 0)
(0.0789546 -3.05209e-06 0)
(0.0789544 -4.95372e-06 0)
(0.0789542 -6.86121e-06 0)
(0.0789539 -8.74205e-06 0)
(0.0789535 -1.0597e-05 0)
(0.0789532 -1.24029e-05 0)
(0.0789528 -1.41753e-05 0)
(0.0789524 -1.58852e-05 0)
(0.0789521 -1.75591e-05 0)
(0.0789519 -1.91617e-05 0)
(0.0789518 -2.07238e-05 0)
(0.078952 -2.22144e-05 0)
(0.0789524 -2.36468e-05 0)
(0.0789533 -2.50254e-05 0)
(0.0789547 -2.62885e-05 0)
(0.0789546 -1.30848e-06 0)
(0.0789506 -2.82658e-06 0)
(0.0789505 -4.58678e-06 0)
(0.0789503 -6.3516e-06 0)
(0.0789501 -8.08963e-06 0)
(0.0789498 -9.80245e-06 0)
(0.0789496 -1.14667e-05 0)
(0.0789493 -1.30991e-05 0)
(0.078949 -1.46693e-05 0)
(0.0789488 -1.62078e-05 0)
(0.0789487 -1.76753e-05 0)
(0.0789487 -1.91131e-05 0)
(0.078949 -2.04799e-05 0)
(0.0789496 -2.18133e-05 0)
(0.0789506 -2.30951e-05 0)
(0.0789521 -2.43117e-05 0)
(0.0789507 -1.21191e-06 0)
(0.078947 -2.56017e-06 0)
(0.078947 -4.15481e-06 0)
(0.0789468 -5.75449e-06 0)
(0.0789467 -7.33008e-06 0)
(0.0789465 -8.8839e-06 0)
(0.0789463 -1.03929e-05 0)
(0.0789461 -1.18745e-05 0)
(0.0789459 -1.32974e-05 0)
(0.0789458 -1.46948e-05 0)
(0.0789458 -1.60242e-05 0)
(0.0789459 -1.73357e-05 0)
(0.0789463 -1.8579e-05 0)
(0.078947 -1.98142e-05 0)
(0.0789482 -2.10012e-05 0)
(0.0789498 -2.21743e-05 0)
(0.0789471 -1.09769e-06 0)
(0.0789439 -2.26901e-06 0)
(0.0789438 -3.6834e-06 0)
(0.0789437 -5.10416e-06 0)
(0.0789436 -6.50515e-06 0)
(0.0789435 -7.88944e-06 0)
(0.0789433 -9.23483e-06 0)
(0.0789432 -1.05589e-05 0)
(0.0789431 -1.18299e-05 0)
(0.0789431 -1.3083e-05 0)
(0.0789432 -1.4273e-05 0)
(0.0789434 -1.54571e-05 0)
(0.0789439 -1.65777e-05 0)
(0.0789447 -1.77146e-05 0)
(0.078946 -1.88079e-05 0)
(0.0789477 -1.99374e-05 0)
(0.0789439 -9.7278e-07 0)
(0.0789411 -1.97132e-06 0)
(0.0789411 -3.20138e-06 0)
(0.078941 -4.43898e-06 0)
(0.078941 -5.66139e-06 0)
(0.0789409 -6.87227e-06 0)
(0.0789408 -8.05082e-06 0)
(0.0789407 -9.21448e-06 0)
(0.0789407 -1.0332e-05 0)
(0.0789408 -1.14392e-05 0)
(0.0789409 -1.24898e-05 0)
(0.0789412 -1.35459e-05 0)
(0.0789418 -1.45447e-05 0)
(0.0789427 -1.55823e-05 0)
(0.078944 -1.65816e-05 0)
(0.0789457 -1.76643e-05 0)
(0.0789412 -8.4504e-07 0)
(0.0789388 -1.68425e-06 0)
(0.0789388 -2.73594e-06 0)
(0.0789387 -3.7954e-06 0)
(0.0789387 -4.84319e-06 0)
(0.0789387 -5.88342e-06 0)
(0.0789386 -6.89718e-06 0)
(0.0789386 -7.90165e-06 0)
(0.0789387 -8.86685e-06 0)
(0.0789388 -9.8287e-06 0)
(0.078939 -1.0741e-05 0)
(0.0789394 -1.16691e-05 0)
(0.07894 -1.25468e-05 0)
(0.0789409 -1.34832e-05 0)
(0.0789422 -1.43874e-05 0)
(0.0789439 -1.54174e-05 0)
(0.0789388 -7.21888e-07 0)
(0.0789369 -1.42126e-06 0)
(0.0789369 -2.30868e-06 0)
(0.0789368 -3.20273e-06 0)
(0.0789368 -4.08695e-06 0)
(0.0789368 -4.96559e-06 0)
(0.0789368 -5.82186e-06 0)
(0.0789369 -6.67266e-06 0)
(0.0789369 -7.49e-06 0)
(0.0789371 -8.30951e-06 0)
(0.0789374 -9.08623e-06 0)
(0.0789378 -9.88732e-06 0)
(0.0789384 -1.06455e-05 0)
(0.0789394 -1.14783e-05 0)
(0.0789407 -1.22858e-05 0)
(0.0789423 -1.32553e-05 0)
(0.0789369 -6.09124e-07 0)
(0.0789353 -1.19055e-06 0)
(0.0789353 -1.93307e-06 0)
(0.0789353 -2.68e-06 0)
(0.0789353 -3.41725e-06 0)
(0.0789353 -4.14886e-06 0)
(0.0789354 -4.86014e-06 0)
(0.0789354 -5.56746e-06 0)
(0.0789356 -6.24527e-06 0)
(0.0789358 -6.92856e-06 0)
(0.0789361 -7.57485e-06 0)
(0.0789365 -8.25155e-06 0)
(0.0789371 -8.89255e-06 0)
(0.0789381 -9.62001e-06 0)
(0.0789393 -1.03296e-05 0)
(0.0789409 -1.12295e-05 0)
(0.0789353 -5.10258e-07 0)
(0.0789341 -9.94789e-07 0)
(0.0789341 -1.61394e-06 0)
(0.0789341 -2.23481e-06 0)
(0.0789341 -2.84521e-06 0)
(0.0789341 -3.44855e-06 0)
(0.0789342 -4.03189e-06 0)
(0.0789343 -4.61061e-06 0)
(0.0789345 -5.16159e-06 0)
(0.0789347 -5.71861e-06 0)
(0.078935 -6.24265e-06 0)
(0.0789355 -6.80008e-06 0)
(0.0789361 -7.32808e-06 0)
(0.078937 -7.9495e-06 0)
(0.0789382 -8.56073e-06 0)
(0.0789397 -9.38215e-06 0)
(0.0789341 -4.26404e-07 0)
(0.0789331 -8.3214e-07 0)
(0.0789331 -1.34881e-06 0)
(0.0789331 -1.86486e-06 0)
(0.0789332 -2.36959e-06 0)
(0.0789332 -2.86556e-06 0)
(0.0789333 -3.34117e-06 0)
(0.0789334 -3.81019e-06 0)
(0.0789336 -4.2515e-06 0)
(0.0789339 -4.69673e-06 0)
(0.0789342 -5.11062e-06 0)
(0.0789347 -5.55723e-06 0)
(0.0789353 -5.97879e-06 0)
(0.0789361 -6.49544e-06 0)
(0.0789372 -7.00926e-06 0)
(0.0789385 -7.74358e-06 0)
(0.0789331 -3.56745e-07 0)
(0.0789323 -6.98106e-07 0)