/*--------------------------------*- C++ -*----------------------------------*\
| =========                 |                                                 |
| \\      /  F ield         | foam-extend: Open Source CFD                    |
|  \\    /   O peration     | Version:     4.1-20200408                       |
|   \\  /    A nd           | Web:         http://www.foam-extend.org         |
|    \\/     M anipulation  |                                                 |
\*---------------------------------------------------------------------------*/
FoamFile
{
    version     2.0;
    format      ascii;
    class       volScalarField;
    location    "0.0707000";
    object      ccy;
}
// * * * * * * * * * * * * * * * * * * * * * * * * * * * * * * * * * * * * * //

dimensions      [0 1 0 0 0 0 0];

internalField   nonuniform List<scalar> 
1952
(
6.93507e-05
0.000112948
0.000157116
0.000201482
0.000245943
0.000290461
0.000335019
0.000379609
0.000424227
0.000468873
0.000513547
0.000558255
0.000603001
0.000647783
0.000692591
2.97211e-05
6.93463e-05
0.000112938
0.000157105
0.000201466
0.000245925
0.000290439
0.000334996
0.000379583
0.0004242
0.000468844
0.000513518
0.000558227
0.000602974
0.000647757
0.000692567
2.97189e-05
6.93435e-05
0.000112935
0.000157099
0.00020146
0.000245917
0.000290431
0.000334985
0.000379571
0.000424186
0.000468829
0.000513502
0.000558208
0.000602953
0.000647736
0.000692542
2.9718e-05
6.93412e-05
0.000112932
0.000157094
0.000201454
0.000245909
0.000290421
0.000334973
0.000379558
0.000424171
0.000468813
0.000513482
0.000558189
0.000602932
0.000647711
0.000692518
2.97165e-05
6.93387e-05
0.000112926
0.000157088
0.000201447
0.0002459
0.00029041
0.000334961
0.000379544
0.000424156
0.000468794
0.000513464
0.000558166
0.000602909
0.000647688
0.00069249
2.97165e-05
6.93361e-05
0.000112923
0.000157082
0.000201438
0.00024589
0.000290399
0.000334948
0.000379529
0.000424138
0.000468777
0.000513442
0.000558145
0.000602885
0.000647661
0.000692464
2.97148e-05
6.93333e-05
0.000112919
0.000157076
0.00020143
0.00024588
0.000290388
0.000334934
0.000379513
0.00042412
0.000468757
0.000513423
0.000558122
0.00060286
0.000647635
0.000692436
2.97136e-05
6.93304e-05
0.000112914
0.00015707
0.000201422
0.00024587
0.000290375
0.00033492
0.000379498
0.000424104
0.000468738
0.000513401
0.000558099
0.000602835
0.000647609
0.000692408
2.97124e-05
6.93274e-05
0.000112909
0.000157063
0.000201413
0.000245859
0.000290363
0.000334907
0.000379482
0.000424085
0.000468718
0.000513379
0.000558076
0.00060281
0.000647582
0.00069238
2.97112e-05
6.93244e-05
0.000112904
0.000157057
0.000201404
0.000245849
0.000290351
0.000334892
0.000379466
0.000424068
0.000468697
0.000513358
0.000558052
0.000602785
0.000647556
0.000692351
2.97099e-05
6.93214e-05
0.0001129
0.000157049
0.000201397
0.000245838
0.000290338
0.000334877
0.000379449
0.000424049
0.000468678
0.000513336
0.000558029
0.000602761
0.000647527
0.000692322
2.97086e-05
6.93184e-05
0.000112894
0.000157043
0.000201387
0.000245828
0.000290326
0.000334862
0.000379434
0.000424031
0.000468658
0.000513315
0.000558005
0.000602734
0.000647502
0.000692293
2.97068e-05
6.93154e-05
0.000112889
0.000157036
0.000201379
0.000245817
0.000290312
0.000334849
0.000379417
0.000424013
0.000468638
0.000513293
0.000557982
0.000602709
0.000647474
0.000692264
2.97065e-05
6.93124e-05
0.000112884
0.000157029
0.00020137
0.000245807
0.0002903
0.000334834
0.0003794
0.000423995
0.000468619
0.000513271
0.000557958
0.000602684
0.000647447
0.000692235
2.97047e-05
6.93094e-05
0.00011288
0.000157022
0.000201361
0.000245795
0.000290289
0.00033482
0.000379385
0.000423977
0.000468599
0.000513249
0.000557935
0.000602659
0.00064742
0.000692207
2.97034e-05
6.93058e-05
0.000112875
0.000157016
0.000201353
0.000245785
0.000290276
0.000334805
0.000379369
0.00042396
0.000468579
0.000513228
0.000557911
0.000602634
0.000647393
0.000692178
2.97022e-05
6.93043e-05
0.00011287
0.000157009
0.000201343
0.000245776
0.000290264
0.000334792
0.000379352
0.000423942
0.000468559
0.000513207
0.000557888
0.00060261
0.000647366
0.00069215
2.97009e-05
6.93007e-05
0.000112865
0.000157002
0.000201336
0.000245765
0.000290251
0.000334779
0.000379337
0.000423924
0.00046854
0.000513185
0.000557865
0.000602584
0.00064734
0.000692121
2.96997e-05
6.92978e-05
0.000112861
0.000156996
0.000201328
0.000245755
0.00029024
0.000334764
0.000379321
0.000423906
0.000468522
0.000513164
0.000557843
0.000602559
0.000647313
0.000692094
2.96984e-05
6.9295e-05
0.000112855
0.00015699
0.000201319
0.000245745
0.000290228
0.000334751
0.000379306
0.00042389
0.000468502
0.000513144
0.000557819
0.000602536
0.000647287
0.000692065
2.96972e-05
6.92922e-05
0.000112853
0.000156983
0.000201311
0.000245735
0.000290217
0.000334738
0.000379291
0.000423873
0.000468483
0.000513123
0.000557799
0.00060251
0.000647261
0.000692038
2.9696e-05
6.92895e-05
0.000112847
0.000156977
0.000201303
0.000245726
0.000290205
0.000334725
0.000379276
0.000423857
0.000468465
0.000513103
0.000557775
0.000602488
0.000647235
0.000692009
2.96949e-05
6.92869e-05
0.000112843
0.000156971
0.000201296
0.000245716
0.000290194
0.000334711
0.000379261
0.00042384
0.000468446
0.000513083
0.000557755
0.000602463
0.000647209
0.000691981
2.96937e-05
6.92842e-05
0.000112838
0.000156965
0.000201288
0.000245707
0.000290182
0.000334698
0.000379247
0.000423824
0.000468428
0.000513063
0.000557732
0.000602439
0.000647185
0.000691954
2.96926e-05
6.92816e-05
0.000112834
0.000156959
0.00020128
0.000245697
0.000290171
0.000334686
0.000379232
0.000423807
0.00046841
0.000513044
0.00055771
0.000602417
0.000647158
0.000691927
2.96915e-05
6.9279e-05
0.00011283
0.000156953
0.000201273
0.000245688
0.000290161
0.000334672
0.000379219
0.000423791
0.000468392
0.000513022
0.000557689
0.000602392
0.000647133
0.000691899
2.96904e-05
6.92764e-05
0.000112826
0.000156947
0.000201265
0.000245679
0.00029015
0.000334661
0.000379204
0.000423775
0.000468375
0.000513004
0.000557667
0.000602369
0.000647107
0.000691871
2.96892e-05
6.92744e-05
0.000112821
0.000156941
0.000201258
0.00024567
0.000290138
0.000334649
0.000379189
0.000423758
0.000468355
0.000512984
0.000557645
0.000602345
0.000647082
0.000691842
2.96876e-05
6.92709e-05
0.000112817
0.000156935
0.00020125
0.00024566
0.000290127
0.000334634
0.000379174
0.000423743
0.000468338
0.000512963
0.000557624
0.000602321
0.000647054
0.000691815
2.96874e-05
6.92672e-05
0.000112813
0.000156928
0.000201241
0.00024565
0.000290115
0.00033462
0.000379159
0.000423724
0.000468319
0.000512942
0.0005576
0.000602296
0.000647029
0.000691785
2.96856e-05
6.92648e-05
0.000112806
0.000156922
0.000201232
0.000245639
0.000290103
0.000334606
0.000379141
0.000423707
0.000468299
0.00051292
0.000557576
0.000602271
0.000647
0.000691757
2.96843e-05
6.92613e-05
0.000112801
0.000156912
0.000201223
0.000245627
0.000290088
0.00033459
0.000379125
0.000423687
0.000468277
0.000512897
0.000557551
0.000602244
0.000646972
0.000691725
2.96828e-05
6.92581e-05
0.000112795
0.000156905
0.000201211
0.000245613
0.000290073
0.000334573
0.000379105
0.000423666
0.000468255
0.000512873
0.000557525
0.000602215
0.000646941
0.000691692
2.96811e-05
6.92529e-05
0.000112788
0.000156895
0.000201199
0.000245598
0.000290056
0.000334554
0.000379083
0.000423643
0.000468229
0.000512846
0.000557495
0.000602184
0.000646909
0.000691658
2.96792e-05
6.92472e-05
0.00011278
0.000156884
0.000201184
0.000245581
0.000290036
0.000334531
0.00037906
0.000423616
0.000468201
0.000512816
0.000557465
0.000602151
0.000646873
0.000691619
2.9677e-05
6.92415e-05
0.00011277
0.00015687
0.000201167
0.000245561
0.000290013
0.000334505
0.000379031
0.000423586
0.000468169
0.000512782
0.000557429
0.000602114
0.000646834
0.000691578
2.96743e-05
6.92344e-05
0.000112758
0.000156854
0.000201147
0.000245537
0.000289985
0.000334475
0.000378998
0.00042355
0.000468132
0.000512743
0.000557388
0.000602072
0.00064679
0.000691533
2.96712e-05
6.92258e-05
0.000112744
0.000156835
0.000201123
0.000245509
0.000289953
0.000334439
0.000378959
0.000423508
0.000468088
0.000512697
0.000557341
0.000602024
0.000646741
0.000691481
2.96675e-05
6.92154e-05
0.000112728
0.000156812
0.000201095
0.000245475
0.000289914
0.000334396
0.000378912
0.000423459
0.000468036
0.000512644
0.000557287
0.000601968
0.000646684
0.000691422
2.96631e-05
6.92032e-05
0.000112708
0.000156785
0.000201061
0.000245434
0.000289868
0.000334344
0.000378856
0.0004234
0.000467974
0.00051258
0.000557221
0.000601902
0.000646617
0.000691355
2.96578e-05
6.91887e-05
0.000112684
0.000156753
0.00020102
0.000245387
0.000289813
0.000334283
0.00037879
0.000423329
0.0004679
0.000512503
0.000557143
0.000601823
0.000646537
0.000691275
2.96516e-05
6.91719e-05
0.000112657
0.000156715
0.000200973
0.00024533
0.000289748
0.000334211
0.00037871
0.000423244
0.000467811
0.000512412
0.00055705
0.000601729
0.000646443
0.000691181
2.96444e-05
6.91525e-05
0.000112626
0.000156672
0.000200919
0.000245265
0.000289672
0.000334126
0.000378617
0.000423144
0.000467704
0.000512301
0.000556936
0.000601614
0.000646329
0.000691067
2.96361e-05
6.91305e-05
0.00011259
0.000156623
0.000200857
0.00024519
0.000289585
0.000334027
0.000378509
0.000423026
0.000467578
0.000512168
0.000556798
0.000601472
0.000646185
0.000690923
2.96266e-05
6.91062e-05
0.000112551
0.000156569
0.000200787
0.000245106
0.000289487
0.000333916
0.000378384
0.00042289
0.000467432
0.000512012
0.000556633
0.0006013
0.000646006
0.000690738
2.96161e-05
6.90798e-05
0.000112508
0.000156509
0.000200711
0.000245014
0.00028938
0.000333793
0.000378247
0.000422739
0.000467267
0.000511834
0.000556444
0.000601099
0.000645794
0.000690514
2.96049e-05
6.90521e-05
0.000112463
0.000156447
0.000200631
0.000244916
0.000289266
0.000333662
0.0003781
0.000422575
0.000467089
0.000511641
0.000556237
0.000600879
0.000645561
0.00069027
2.95929e-05
6.90238e-05
0.000112417
0.000156383
0.000200549
0.000244817
0.000289148
0.000333527
0.000377947
0.000422406
0.000466903
0.00051144
0.000556021
0.00060065
0.00064532
0.000690017
2.95808e-05
6.89962e-05
0.000112372
0.00015632
0.000200469
0.000244718
0.000289032
0.000333393
0.000377796
0.000422236
0.000466717
0.000511238
0.000555804
0.000600421
0.00064508
0.000689769
2.9569e-05
6.89705e-05
0.00011233
0.000156262
0.000200394
0.000244627
0.000288923
0.000333267
0.000377653
0.000422077
0.00046654
0.000511045
0.000555598
0.000600202
0.00064485
0.000689537
2.95579e-05
6.89483e-05
0.000112294
0.000156212
0.00020033
0.000244548
0.000288829
0.000333158
0.000377529
0.000421937
0.000466385
0.000510874
0.000555412
0.000600003
0.000644644
0.000689342
2.95486e-05
6.89318e-05
0.000112267
0.000156174
0.000200281
0.000244488
0.000288758
0.000333075
0.000377433
0.000421828
0.000466263
0.000510738
0.000555263
0.000599844
0.000644491
0.00068922
2.95413e-05
6.89221e-05
0.000112251
0.000156152
0.000200252
0.000244453
0.000288717
0.000333026
0.000377376
0.000421762
0.000466189
0.000510658
0.000555181
0.000599769
0.000644444
0.000689227
2.95373e-05
6.89213e-05
0.00011225
0.00015615
0.000200249
0.000244449
0.000288711
0.000333021
0.000377372
0.000421762
0.000466196
0.000510679
0.000555225
0.000599848
0.000644578
0.000689437
2.95369e-05
6.89307e-05
0.000112265
0.000156172
0.000200279
0.000244487
0.000288762
0.000333087
0.000377459
0.000421877
0.000466346
0.000510873
0.000555473
0.000600161
0.000644968
0.000689916
2.95409e-05
6.89562e-05
0.000112308
0.000156235
0.000200365
0.000244602
0.00028891
0.000333277
0.000377699
0.000422175
0.00046671
0.000511312
0.000555995
0.00060077
0.00064567
0.000690712
2.95517e-05
6.90111e-05
0.0001124
0.000156369
0.000200547
0.000244839
0.00028921
0.000333648
0.00037815
0.000422713
0.000467344
0.000512046
0.000556832
0.00060171
0.00064671
0.000691843
2.95749e-05
6.91111e-05
0.000112566
0.000156606
0.000200863
0.00024524
0.000289704
0.000334242
0.00037885
0.000423526
0.000468273
0.000513093
0.000557995
0.000602985
0.000648085
0.000693302
2.96173e-05
6.92673e-05
0.000112823
0.000156969
0.000201335
0.000245828
0.000290412
0.000335075
0.000379812
0.000424618
0.000469496
0.000514445
0.000559472
0.000604576
0.000649774
0.000695066
2.96839e-05
6.94828e-05
0.000113174
0.000157459
0.000201967
0.000246601
0.00029133
0.000336137
0.000381018
0.000425968
0.000470987
0.000516072
0.000561225
0.000606443
0.000651736
0.000697096
2.97761e-05
6.97515e-05
0.000113611
0.000158064
0.000202738
0.000247538
0.000292428
0.000337395
0.000382432
0.000427534
0.000472698
0.000517922
0.000563203
0.000608534
0.000653918
0.000699341
2.98913e-05
7.00598e-05
0.000114111
0.000158754
0.000203614
0.000248595
0.00029366
0.000338797
0.000383997
0.000429256
0.00047457
0.000519934
0.000565343
0.000610787
0.00065626
0.000701744
3.00238e-05
7.03905e-05
0.000114645
0.000159491
0.000204548
0.00024972
0.000294968
0.00034028
0.000385648
0.000431067
0.000476532
0.000522038
0.000567576
0.000613132
0.000658695
0.00070424
3.01659e-05
7.07236e-05
0.000115185
0.000160235
0.000205492
0.000250856
0.00029629
0.00034178
0.000387317
0.000432897
0.000478514
0.000524161
0.000569828
0.000615499
0.000661153
0.000706764
3.03093e-05
7.1042e-05
0.000115701
0.000160948
0.000206399
0.000251952
0.000297568
0.000343233
0.000388937
0.000434677
0.000480446
0.000526235
0.000572031
0.000617818
0.000663568
0.00070925
3.0446e-05
7.13319e-05
0.000116172
0.000161601
0.000207232
0.000252962
0.000298752
0.000344586
0.000390453
0.000436349
0.000482266
0.000528196
0.000574122
0.000620026
0.000665876
0.000711636
3.05704e-05
7.15851e-05
0.000116585
0.000162175
0.000207968
0.000253859
0.000299808
0.000345798
0.000391819
0.000437864
0.000483924
0.000529991
0.000576046
0.000622069
0.000668023
0.00071387
3.06788e-05
7.1799e-05
0.000116934
0.000162662
0.000208594
0.000254626
0.000300716
0.000346847
0.000393008
0.000439191
0.000485386
0.000531584
0.000577764
0.000623905
0.000669966
0.000715908
3.07705e-05
7.19761e-05
0.000117223
0.000163066
0.000209114
0.000255263
0.000301473
0.000347724
0.000394007
0.000440312
0.000486629
0.000532949
0.000579248
0.000625505
0.000671674
0.000717718
3.08464e-05
7.21213e-05
0.00011746
0.000163395
0.000209537
0.000255781
0.000302087
0.000348438
0.000394821
0.000441229
0.000487651
0.000534078
0.000580487
0.000626854
0.000673131
0.000719281
3.09085e-05
7.22406e-05
0.000117654
0.000163664
0.00020988
0.000256199
0.00030258
0.000349007
0.000395468
0.000441956
0.000488462
0.000534979
0.000581482
0.000627948
0.00067433
0.000720591
3.09598e-05
7.23393e-05
0.000117813
0.000163884
0.00021016
0.000256537
0.000302975
0.000349458
0.000395976
0.000442522
0.00048909
0.000535671
0.000582247
0.000628797
0.000675277
0.000721651
3.10022e-05
7.24207e-05
0.000117945
0.000164066
0.00021039
0.000256814
0.000303297
0.000349822
0.00039638
0.000442966
0.000489572
0.000536193
0.000582817
0.000629429
0.000675993
0.000722473
3.10372e-05
7.24874e-05
0.000118053
0.000164215
0.000210581
0.000257043
0.000303563
0.000350123
0.000396712
0.000443325
0.000489956
0.0005366
0.000583248
0.000629896
0.000676519
0.000723086
3.10659e-05
7.2543e-05
0.000118143
0.00016434
0.000210739
0.000257235
0.000303787
0.000350375
0.00039699
0.000443626
0.000490275
0.000536934
0.000583597
0.000630259
0.000676913
0.000723537
3.10896e-05
7.25902e-05
0.000118221
0.000164447
0.000210874
0.000257398
0.000303975
0.000350588
0.000397224
0.000443878
0.000490542
0.000537214
0.000583888
0.000630559
0.000677225
0.000723879
3.11102e-05
7.26317e-05
0.000118287
0.000164538
0.000210992
0.000257537
0.000304136
0.000350766
0.00039742
0.000444088
0.000490765
0.000537449
0.00058413
0.000630811
0.000677485
0.000724152
3.11278e-05
7.26665e-05
0.000118343
0.000164616
0.000211088
0.000257653
0.000304268
0.000350915
0.000397583
0.000444263
0.000490952
0.000537642
0.000584334
0.000631022
0.000677704
0.000724379
3.11428e-05
7.26955e-05
0.00011839
0.00016468
0.000211169
0.00025775
0.000304379
0.00035104
0.000397717
0.000444409
0.000491104
0.000537805
0.000584502
0.000631199
0.000677888
0.000724571
3.11553e-05
7.27204e-05
0.000118428
0.000164734
0.000211237
0.000257828
0.000304471
0.000351141
0.00039783
0.000444527
0.000491232
0.000537938
0.000584645
0.000631345
0.000678045
0.000724735
3.11656e-05
7.27393e-05
0.000118462
0.000164777
0.00021129
0.000257895
0.000304546
0.000351224
0.00039792
0.000444627
0.000491337
0.00053805
0.000584762
0.000631471
0.000678176
0.000724873
3.11741e-05
7.27553e-05
0.000118487
0.000164813
0.000211335
0.000257947
0.000304607
0.000351293
0.000397995
0.000444707
0.000491424
0.000538143
0.000584859
0.000631576
0.000678286
0.000724995
3.1181e-05
7.27683e-05
0.000118508
0.000164841
0.000211372
0.000257991
0.000304655
0.000351348
0.000398057
0.000444773
0.000491496
0.000538219
0.000584943
0.000631664
0.000678382
0.000725095
3.11866e-05
7.27787e-05
0.000118526
0.000164864
0.000211401
0.000258025
0.000304696
0.000351394
0.000398107
0.000444829
0.000491555
0.000538284
0.000585013
0.000631739
0.000678464
0.000725184
3.11911e-05
7.2787e-05
0.000118538
0.000164884
0.000211423
0.000258053
0.000304729
0.000351431
0.000398148
0.000444875
0.000491604
0.000538339
0.000585071
0.000631803
0.000678534
0.000725262
3.11947e-05
7.27945e-05
0.000118549
0.000164898
0.000211442
0.000258077
0.000304755
0.000351461
0.000398182
0.000444912
0.000491647
0.000538384
0.000585122
0.000631859
0.000678596
0.000725328
3.11975e-05
7.2799e-05
0.000118558
0.000164909
0.000211459
0.000258094
0.000304777
0.000351486
0.000398209
0.000444944
0.000491682
0.000538424
0.000585166
0.000631908
0.000678648
0.000725389
3.11998e-05
7.28025e-05
0.000118565
0.00016492
0.00021147
0.00025811
0.000304795
0.000351506
0.000398234
0.000444971
0.000491712
0.000538458
0.000585203
0.000631951
0.000678696
0.000725442
3.12023e-05
7.28077e-05
0.00011857
0.000164927
0.000211481
0.000258121
0.00030481
0.000351524
0.000398253
0.000444994
0.000491739
0.000538487
0.000585238
0.000631987
0.00067874
0.000725489
3.12032e-05
7.28097e-05
0.000118575
0.000164934
0.000211489
0.000258134
0.000304822
0.000351538
0.000398271
0.000445013
0.000491762
0.000538514
0.000585268
0.000632022
0.000678778
0.000725532
3.12044e-05
7.28121e-05
0.000118579
0.00016494
0.000211496
0.000258141
0.000304833
0.000351552
0.000398287
0.000445031
0.000491781
0.000538538
0.000585294
0.000632054
0.000678812
0.000725572
3.12054e-05
7.28142e-05
0.000118583
0.000164944
0.000211503
0.000258149
0.000304843
0.000351563
0.0003983
0.000445047
0.000491802
0.000538558
0.000585319
0.000632081
0.000678845
0.000725608
3.12063e-05
7.2816e-05
0.000118585
0.000164948
0.000211508
0.000258156
0.000304852
0.000351573
0.000398314
0.000445063
0.000491817
0.000538579
0.000585343
0.000632107
0.000678874
0.000725642
3.12071e-05
7.28177e-05
0.000118588
0.000164953
0.000211513
0.000258162
0.000304859
0.000351584
0.000398324
0.000445075
0.000491834
0.000538597
0.000585364
0.000632134
0.000678902
0.000725672
3.12078e-05
7.28192e-05
0.00011859
0.000164956
0.000211518
0.00025817
0.000304867
0.000351593
0.000398335
0.000445089
0.000491849
0.000538615
0.000585385
0.000632155
0.00067893
0.000725702
3.12084e-05
7.28206e-05
0.000118593
0.000164959
0.000211523
0.000258174
0.000304874
0.000351601
0.000398347
0.000445101
0.000491864
0.000538633
0.000585402
0.000632178
0.000678954
0.000725731
3.12091e-05
7.28229e-05
0.000118595
0.000164962
0.000211527
0.00025818
0.000304882
0.00035161
0.000398356
0.000445113
0.000491879
0.000538648
0.000585423
0.000632198
0.000678977
0.000725757
3.12091e-05
7.28235e-05
0.000118598
0.000164967
0.00021153
0.000258187
0.000304888
0.000351618
0.000398366
0.000445126
0.000491891
0.000538664
0.00058544
0.000632219
0.000679
0.000725782
3.12103e-05
7.28249e-05
0.000118601
0.000164968
0.000211537
0.000258192
0.000304894
0.000351627
0.000398375
0.000445136
0.000491905
0.00053868
0.000585457
0.000632238
0.000679022
0.000725806
3.12109e-05
7.28264e-05
0.000118602
0.000164973
0.00021154
0.000258197
0.000304902
0.000351634
0.000398385
0.000445148
0.000491918
0.000538694
0.000585474
0.000632258
0.000679043
0.000725829
3.12121e-05
7.28278e-05
0.000118605
0.000164975
0.000211545
0.000258203
0.000304908
0.000351642
0.000398396
0.000445158
0.000491931
0.000538708
0.000585491
0.000632275
0.000679063
0.000725852
3.12115e-05
7.28292e-05
0.000118607
0.000164979
0.00021155
0.000258207
0.000304915
0.000351651
0.000398404
0.000445169
0.000491943
0.000538724
0.000585506
0.000632293
0.000679084
0.000725873
3.12127e-05
7.28306e-05
0.000118609
0.000164983
0.000211552
0.000258214
0.000304922
0.000351658
0.000398413
0.00044518
0.000491955
0.000538736
0.000585523
0.000632311
0.000679102
0.000725894
3.12139e-05
7.28321e-05
0.000118613
0.000164985
0.000211559
0.000258218
0.000304929
0.000351666
0.000398422
0.00044519
0.000491968
0.00053875
0.000585536
0.000632327
0.00067912
0.000725915
3.12139e-05
7.28335e-05
0.000118614
0.000164989
0.000211562
0.000258225
0.000304935
0.000351674
0.000398432
0.000445201
0.000491978
0.000538763
0.000585552
0.000632343
0.000679138
0.000725932
3.12146e-05
7.2835e-05
0.000118616
0.000164993
0.000211567
0.00025823
0.000304941
0.000351681
0.00039844
0.000445211
0.00049199
0.000538776
0.000585566
0.000632359
0.000679155
0.000725952
3.12146e-05
7.28364e-05
0.000118619
0.000164996
0.000211571
0.000258235
0.000304948
0.000351689
0.000398449
0.000445221
0.000492002
0.000538788
0.000585578
0.000632374
0.000679171
0.00072597
3.12163e-05
7.28377e-05
0.000118621
0.000164999
0.000211574
0.000258241
0.000304954
0.000351696
0.000398457
0.000445231
0.000492011
0.0005388
0.000585593
0.000632389
0.000679188
0.000725987
3.12163e-05
7.2839e-05
0.000118623
0.000165002
0.000211579
0.000258244
0.00030496
0.000351704
0.000398465
0.000445238
0.000492023
0.000538812
0.000585605
0.000632403
0.000679203
0.000726004
3.12169e-05
7.28403e-05
0.000118625
0.000165005
0.000211582
0.000258251
0.000304964
0.00035171
0.000398473
0.000445248
0.000492032
0.000538823
0.000585617
0.000632416
0.000679218
0.000726019
3.12175e-05
7.28415e-05
0.000118627
0.000165008
0.000211586
0.000258254
0.000304971
0.000351716
0.000398479
0.000445257
0.000492041
0.000538832
0.00058563
0.000632429
0.000679231
0.000726035
3.12174e-05
7.28426e-05
0.000118629
0.00016501
0.000211589
0.000258259
0.000304976
0.000351722
0.000398488
0.000445264
0.00049205
0.000538844
0.00058564
0.000632441
0.000679245
0.000726048
3.1219e-05
7.28437e-05
0.000118631
0.000165013
0.000211593
0.000258263
0.000304981
0.000351728
0.000398493
0.000445271
0.000492059
0.000538852
0.000585651
0.000632453
0.000679257
0.000726063
3.12189e-05
7.28446e-05
0.000118632
0.000165015
0.000211595
0.000258266
0.000304985
0.000351733
0.000398499
0.000445279
0.000492066
0.000538861
0.000585659
0.000632464
0.000679269
0.000726075
3.12193e-05
7.28454e-05
0.000118634
0.000165016
0.000211599
0.000258269
0.000304988
0.000351737
0.000398504
0.000445284
0.000492073
0.000538868
0.00058567
0.000632472
0.000679279
0.000726086
3.12196e-05
7.28461e-05
0.000118635
0.000165018
0.0002116
0.000258271
0.000304991
0.000351741
0.000398509
0.000445289
0.000492078
0.000538875
0.000585675
0.000632482
0.000679288
0.000726096
3.12199e-05
7.28466e-05
0.000118636
0.000165019
0.000211601
0.000258274
0.000304994
0.000351743
0.000398512
0.000445293
0.000492083
0.00053888
0.000585683
0.000632488
0.000679296
0.000726105
3.12202e-05
7.28471e-05
0.000118636
0.00016502
0.000211603
0.000258275
0.000304996
0.000351745
0.000398514
0.000445296
0.000492087
0.000538885
0.000585687
0.000632494
0.000679303
0.000726113
3.12203e-05
7.28473e-05
0.000118637
0.000165021
0.000211604
0.000258276
0.000304997
0.000351747
0.000398516
0.000445298
0.000492089
0.000538887
0.00058569
0.000632497
0.000679307
0.000726119
3.12204e-05
7.28475e-05
0.000118637
0.000165022
0.000211604
0.000258277
0.000304997
0.000351748
0.000398517
0.000445299
0.00049209
0.000538889
0.000585692
0.000632499
0.000679309
0.000726121
3.12205e-05
7.28475e-05
0.000118637
0.000165022
0.000211604
0.000258277
0.000304998
0.000351748
0.000398518
0.0004453
0.000492091
0.000538889
0.000585692
0.000632499
0.00067931
0.000726122
3.12205e-05
7.28475e-05
0.000118637
0.000165022
0.000211604
0.000258277
0.000304998
0.000351748
0.000398518
0.0004453
0.000492091
0.000538889
0.000585692
0.000632499
0.00067931
0.000726122
3.12205e-05
)
;

boundaryField
{
    wireUpstream
    {
        type            calculated;
        value           nonuniform List<scalar> 
16
(
7.28475e-05
0.000118637
0.000165022
0.000211604
0.000258277
0.000304998
0.000351748
0.000398518
0.0004453
0.000492091
0.000538889
0.000585692
0.000632499
0.00067931
0.000726122
3.12205e-05
)
;
    }
    wireDownstream
    {
        type            calculated;
        value           nonuniform List<scalar> 
16
(
6.93483e-05
0.000112943
0.00015711
0.000201474
0.000245934
0.000290452
0.000335009
0.000379599
0.000424217
0.000468864
0.000513541
0.000558252
0.000603001
0.000647787
0.000692599
2.97201e-05
)
;
    }
    wireTopContact
    {
        type            calculated;
        value           nonuniform List<scalar> 
122
(
0.000714741
0.000714717
0.000714691
0.000714663
0.000714635
0.000714607
0.000714578
0.000714549
0.000714519
0.00071449
0.00071446
0.00071443
0.0007144
0.000714371
0.000714341
0.000714312
0.000714283
0.000714254
0.000714225
0.000714196
0.000714167
0.000714138
0.00071411
0.000714081
0.000714053
0.000714024
0.000713995
0.000713965
0.000713935
0.000713904
0.000713872
0.000713838
0.000713802
0.000713763
0.000713721
0.000713674
0.000713621
0.000713562
0.000713493
0.000713413
0.000713318
0.000713204
0.000713059
0.000712871
0.000712644
0.000712394
0.000712138
0.000711887
0.000711658
0.000711475
0.000711378
0.000711423
0.000711678
0.000712206
0.000713049
0.000714223
0.000715718
0.000717512
0.000719566
0.000721833
0.000724255
0.00072677
0.000729316
0.000731828
0.000734246
0.000736516
0.000738596
0.000740453
0.000742068
0.000743434
0.000744552
0.000745433
0.000746099
0.00074659
0.000746954
0.000747236
0.000747469
0.000747666
0.000747834
0.000747978
0.000748101
0.000748208
0.0007483
0.000748381
0.000748452
0.000748515
0.000748571
0.000748621
0.000748667
0.000748708
0.000748746
0.000748782
0.000748815
0.000748846
0.000748875
0.000748903
0.000748929
0.000748955
0.000748979
0.000749003
0.000749025
0.000749047
0.000749067
0.000749087
0.000749107
0.000749125
0.000749143
0.000749161
0.000749177
0.000749193
0.000749208
0.000749222
0.000749235
0.000749247
0.000749257
0.000749267
0.000749275
0.00074928
0.000749283
0.000749284
0.000749284
0.000714764
)
;
    }
    front
    {
        type            wedge;
    }
    back
    {
        type            wedge;
    }
}


// ************************************************************************* //
