/*--------------------------------*- C++ -*----------------------------------*\
| =========                 |                                                 |
| \\      /  F ield         | foam-extend: Open Source CFD                    |
|  \\    /   O peration     | Version:     4.1-20200408                       |
|   \\  /    A nd           | Web:         http://www.foam-extend.org         |
|    \\/     M anipulation  |                                                 |
\*---------------------------------------------------------------------------*/
FoamFile
{
    version     2.0;
    format      ascii;
    class       volSymmTensorField;
    location    "0.0707000";
    object      sigmaCauchy;
}
// * * * * * * * * * * * * * * * * * * * * * * * * * * * * * * * * * * * * * //

dimensions      [1 -1 -2 0 0 0 0];

internalField   nonuniform List<symmTensor> 
1952
(
(-1.00238e+09 1.51634e+06 -5.54639 -4.14717e+08 -1.32484 -4.03902e+08)
(-9.61116e+08 612968 -3.71755 -4.07265e+08 3.0274 -3.78771e+08)
(-9.11152e+08 2.87106e+06 4.26324 -3.92176e+08 8.89698 -3.42067e+08)
(-8.4097e+08 1.62411e+06 11.6374 -3.77103e+08 -9.3322 -3.01657e+08)
(-7.51818e+08 4.23696e+06 -2.95529 -3.57331e+08 -23.9023 -2.54835e+08)
(-6.56669e+08 2.79659e+06 -16.0182 -3.37536e+08 2.64775 -2.02724e+08)
(-5.49557e+08 5.64372e+06 -4.01973 -3.13512e+08 37.0257 -1.49213e+08)
(-4.13327e+08 4.17718e+06 7.04615 -2.90598e+08 -3.73226 -9.10821e+07)
(-2.50711e+08 7.24942e+06 -1.12248 -2.63263e+08 -38.4228 -3.7663e+07)
(-5.26167e+07 5.78615e+06 -7.06026 -2.39047e+08 24.393 3.81503e+07)
(1.71292e+08 9.088e+06 1.84567 -2.06338e+08 43.4559 1.02125e+08)
(4.88193e+08 7.85043e+06 2.54947 -1.80379e+08 -24.5635 2.13952e+08)
(8.11625e+08 1.17056e+07 -0.203119 -1.38414e+08 -42.3766 3.05845e+08)
(1.06953e+09 1.11333e+07 -1.57688 -1.08457e+08 26.629 4.76964e+08)
(1.21738e+09 1.64569e+07 -1.17918 -5.25636e+07 15.0434 5.82498e+08)
(-1.01508e+09 -13957.8 -1.20759 -4.22189e+08 3.09967 -4.19409e+08)
(-9.94602e+08 3.38896e+06 -11.099 -4.04644e+08 -1.39957 -3.93673e+08)
(-9.5323e+08 1.78118e+06 -7.43945 -3.97057e+08 3.10062 -3.68648e+08)
(-9.03103e+08 6.54453e+06 8.5349 -3.82099e+08 9.24659 -3.31783e+08)
(-8.32779e+08 4.24524e+06 23.3021 -3.67077e+08 -9.37694 -2.9157e+08)
(-7.4342e+08 9.71912e+06 -5.91347 -3.4738e+08 -24.5299 -2.44563e+08)
(-6.48183e+08 6.92417e+06 -32.0601 -3.27806e+08 2.38685 -1.92701e+08)
(-5.40682e+08 1.28012e+07 -8.03614 -3.03889e+08 37.6886 -1.39061e+08)
(-4.04253e+08 9.88954e+06 14.1015 -2.81402e+08 -3.44897 -8.1263e+07)
(-2.41402e+08 1.61127e+07 -2.24549 -2.5431e+08 -38.9969 -2.7734e+07)
(-4.31879e+07 1.29734e+07 -14.0496 -2.30789e+08 24.3169 4.76408e+07)
(1.81224e+08 1.92469e+07 3.66436 -1.9861e+08 43.9304 1.11533e+08)
(4.98432e+08 1.59047e+07 4.98944 -1.73827e+08 -24.5545 2.2275e+08)
(8.2232e+08 2.20072e+07 -0.39863 -1.32788e+08 -42.8287 3.144e+08)
(1.08009e+09 1.74933e+07 -2.71517 -1.0497e+08 26.5549 4.84512e+08)
(1.22878e+09 2.15263e+07 -1.95178 -5.04626e+07 15.1939 5.89507e+08)
(-1.00728e+09 112425 -2.41702 -4.11886e+08 3.31611 -4.09215e+08)
(-9.91031e+08 3.65615e+06 -11.1096 -4.00462e+08 -1.42143 -3.89428e+08)
(-9.49614e+08 2.16845e+06 -7.44441 -3.92886e+08 3.14091 -3.64455e+08)
(-8.99411e+08 7.13229e+06 8.54614 -3.7802e+08 9.37088 -3.27574e+08)
(-8.29009e+08 4.93091e+06 23.3254 -3.63117e+08 -9.44937 -2.87466e+08)
(-7.39708e+08 1.06117e+07 -5.91943 -3.43546e+08 -24.7725 -2.40403e+08)
(-6.44481e+08 7.8759e+06 -32.0739 -3.24178e+08 2.36612 -1.88705e+08)
(-5.36855e+08 1.39183e+07 -8.04535 -3.00456e+08 37.9593 -1.35135e+08)
(-4.00402e+08 1.10321e+07 14.0993 -2.78293e+08 -3.39539 -7.7584e+07)
(-2.3754e+08 1.73707e+07 -2.24752 -2.51512e+08 -39.1968 -2.41584e+07)
(-3.95251e+07 1.41103e+07 -14.0268 -2.28438e+08 24.3308 5.08953e+07)
(1.8478e+08 2.03563e+07 3.66205 -1.96716e+08 44.0799 1.14532e+08)
(5.01575e+08 1.67792e+07 4.98667 -1.72538e+08 -24.5462 2.25261e+08)
(8.24484e+08 2.27173e+07 -0.397317 -1.32091e+08 -42.9721 3.16481e+08)
(1.08036e+09 1.78075e+07 -2.68962 -1.04937e+08 26.4638 4.85733e+08)
(1.22608e+09 2.15758e+07 -1.97153 -5.07008e+07 15.2309 5.89697e+08)
(-1.00371e+09 209090 -2.41996 -4.07621e+08 3.40374 -4.04981e+08)
(-9.87689e+08 3.85065e+06 -11.1194 -3.97291e+08 -1.43483 -3.8623e+08)
(-9.46244e+08 2.45219e+06 -7.44924 -3.89769e+08 3.17118 -3.61283e+08)
(-8.96002e+08 7.5577e+06 8.55716 -3.74991e+08 9.45126 -3.24437e+08)
(-8.2555e+08 5.42708e+06 23.3476 -3.60221e+08 -9.508 -2.84408e+08)
(-7.36227e+08 1.12382e+07 -5.92553 -3.40801e+08 -24.9214 -2.37389e+08)
(-6.41037e+08 8.5194e+06 -32.1022 -3.21645e+08 2.36801 -1.85816e+08)
(-5.33342e+08 1.46574e+07 -8.05321 -2.98138e+08 38.1132 -1.32363e+08)
(-3.96893e+08 1.17376e+07 14.0955 -2.76271e+08 -3.38593 -7.50204e+07)
(-2.34217e+08 1.81278e+07 -2.25074 -2.49788e+08 -39.3166 -2.17083e+07)
(-3.64144e+07 1.47395e+07 -13.9768 -2.27065e+08 24.343 5.3083e+07)
(1.8775e+08 2.092e+07 3.67214 -1.95677e+08 44.1631 1.16485e+08)
(5.04223e+08 1.71054e+07 4.96192 -1.71841e+08 -24.5331 2.26879e+08)
(8.26572e+08 2.28398e+07 -0.395927 -1.31683e+08 -43.0402 3.17843e+08)
(1.08136e+09 1.7607e+07 -2.67926 -1.04786e+08 26.4198 4.86689e+08)
(1.22594e+09 2.14305e+07 -2.0113 -5.06217e+07 15.2513 5.90244e+08)
(-1.00037e+09 279033 -2.42183 -4.04423e+08 3.46201 -4.0178e+08)
(-9.83859e+08 3.97742e+06 -11.1313 -3.94767e+08 -1.44207 -3.83687e+08)
(-9.42385e+08 2.63322e+06 -7.45482 -3.87313e+08 3.1886 -3.58761e+08)
(-8.92093e+08 7.81982e+06 8.56846 -3.72605e+08 9.49206 -3.21954e+08)
(-8.21587e+08 5.73061e+06 23.367 -3.57975e+08 -9.54369 -2.8199e+08)
(-7.32411e+08 1.16036e+07 -5.93239 -3.38683e+08 -25.005 -2.34996e+08)
(-6.37274e+08 8.90289e+06 -32.1135 -3.19722e+08 2.36935 -1.83545e+08)
(-5.2955e+08 1.50595e+07 -8.06855 -2.96398e+08 38.1888 -1.30212e+08)
(-3.93129e+08 1.21159e+07 14.0757 -2.74795e+08 -3.38804 -7.30587e+07)
(-2.30565e+08 1.84794e+07 -2.25375 -2.48545e+08 -39.3635 -1.98865e+07)
(-3.30834e+07 1.4987e+07 -13.9515 -2.26141e+08 24.3566 5.46627e+07)
(1.90849e+08 2.1076e+07 3.68214 -1.95009e+08 44.1891 1.1784e+08)
(5.06838e+08 1.71317e+07 4.95819 -1.7146e+08 -24.5242 2.27914e+08)
(8.28278e+08 2.27171e+07 -0.394808 -1.31525e+08 -43.0596 3.18645e+08)
(1.0818e+09 1.74107e+07 -2.68114 -1.04786e+08 26.3778 4.87062e+08)
(1.22505e+09 2.13152e+07 -2.04084 -5.06499e+07 15.2555 5.90196e+08)
(-9.96548e+08 323379 -2.42416 -4.01889e+08 3.49249 -3.99237e+08)
(-9.80052e+08 4.04676e+06 -11.1424 -3.92912e+08 -1.44509 -3.81815e+08)
(-9.38569e+08 2.72493e+06 -7.4601 -3.85517e+08 3.19498 -3.56912e+08)
(-8.88253e+08 7.9519e+06 8.57969 -3.70872e+08 9.50478 -3.20141e+08)
(-8.17714e+08 5.87974e+06 23.3878 -3.56357e+08 -9.55607 -2.80235e+08)
(-7.28555e+08 1.17669e+07 -5.93909 -3.37176e+08 -25.0234 -2.33288e+08)
(-6.33499e+08 9.05426e+06 -32.1395 -3.18385e+08 2.3729 -1.81935e+08)
(-5.25779e+08 1.51888e+07 -8.0813 -2.95214e+08 38.1929 -1.2871e+08)
(-3.89413e+08 1.21984e+07 14.0648 -2.73832e+08 -3.40012 -7.17144e+07)
(-2.27172e+08 1.84988e+07 -2.25768 -2.47768e+08 -39.3668 -1.86241e+07)
(-3.00052e+07 1.49043e+07 -13.8943 -2.25584e+08 24.3456 5.57303e+07)
(1.93685e+08 2.09188e+07 3.70766 -1.94631e+08 44.1744 1.18726e+08)
(5.09212e+08 1.68643e+07 4.92183 -1.71247e+08 -24.4976 2.28546e+08)
(8.30013e+08 2.23411e+07 -0.393931 -1.31418e+08 -43.0363 3.19087e+08)
(1.08253e+09 1.70616e+07 -2.68665 -1.04746e+08 26.3611 4.87248e+08)
(1.22481e+09 2.1159e+07 -2.07171 -5.0651e+07 15.2487 5.90082e+08)
(-9.92748e+08 345082 -2.42525 -4.00024e+08 3.5022 -3.97366e+08)
(-9.76096e+08 4.06657e+06 -11.1549 -3.91558e+08 -1.44407 -3.80449e+08)
(-9.34607e+08 2.73399e+06 -7.46536 -3.84221e+08 3.19236 -3.55565e+08)
(-8.84256e+08 7.97254e+06 8.59123 -3.69621e+08 9.49149 -3.18825e+08)
(-8.13691e+08 5.88232e+06 23.4058 -3.55216e+08 -9.55143 -2.78968e+08)
(-7.24734e+08 1.17496e+07 -5.94602 -3.36123e+08 -25.0078 -2.32012e+08)
(-6.2977e+08 9.0042e+06 -32.146 -3.17463e+08 2.36657 -1.80754e+08)
(-5.22086e+08 1.50914e+07 -8.10045 -2.94414e+08 38.1607 -1.27626e+08)
(-3.85797e+08 1.20409e+07 14.0324 -2.7321e+08 -3.40171 -7.07794e+07)
(-2.23754e+08 1.8282e+07 -2.26135 -2.47273e+08 -39.3239 -1.78054e+07)
(-2.69264e+07 1.46048e+07 -13.8636 -2.25275e+08 24.3326 5.63874e+07)
(1.96512e+08 2.05693e+07 3.73108 -1.94409e+08 44.1248 1.19245e+08)
(5.11524e+08 1.64984e+07 4.91092 -1.71154e+08 -24.4751 2.2884e+08)
(8.316e+08 2.19137e+07 -0.392984 -1.31378e+08 -42.9877 3.19275e+08)
(1.08325e+09 1.66994e+07 -2.69506 -1.04745e+08 26.3507 4.87237e+08)
(1.22473e+09 2.10181e+07 -2.09694 -5.06475e+07 15.2338 5.89848e+08)
(-9.88803e+08 344892 -2.42744 -3.98669e+08 3.49341 -3.96001e+08)
(-9.72232e+08 4.04317e+06 -11.1653 -3.90616e+08 -1.44101 -3.79494e+08)
(-9.30748e+08 2.674e+06 -7.47009 -3.83322e+08 3.18315 -3.54627e+08)
(-8.80388e+08 7.89525e+06 8.60177 -3.6877e+08 9.46411 -3.1791e+08)
(-8.09823e+08 5.76217e+06 23.4207 -3.54444e+08 -9.52997 -2.78102e+08)
(-7.20918e+08 1.15916e+07 -5.95291 -3.35432e+08 -24.9472 -2.31192e+08)
(-6.26063e+08 8.79996e+06 -32.1696 -3.1687e+08 2.36418 -1.79998e+08)
(-5.18435e+08 1.4816e+07 -8.11544 -2.93919e+08 38.0825 -1.26947e+08)
(-3.82218e+08 1.17193e+07 14.0259 -2.7283e+08 -3.40859 -7.0205e+07)
(-2.20546e+08 1.78886e+07 -2.26516 -2.46976e+08 -39.2589 -1.72787e+07)
(-2.40349e+07 1.4164e+07 -13.7995 -2.25092e+08 24.2989 5.67837e+07)
(1.99217e+08 2.01213e+07 3.77169 -1.94273e+08 44.0515 1.19554e+08)
(5.13739e+08 1.60177e+07 4.84719 -1.71097e+08 -24.4528 2.29022e+08)
(8.33247e+08 2.14153e+07 -0.392213 -1.3139e+08 -42.9176 3.19286e+08)
(1.0842e+09 1.63433e+07 -2.70304 -1.04712e+08 26.3623 4.87157e+08)
(1.22501e+09 2.08793e+07 -2.11964 -5.06544e+07 15.2131 5.89588e+08)
(-9.84944e+08 326806 -2.42997 -3.97722e+08 3.4733 -3.95047e+08)
(-9.68379e+08 3.98428e+06 -11.1771 -3.9003e+08 -1.43538 -3.78896e+08)
(-9.26904e+08 2.55249e+06 -7.47469 -3.82769e+08 3.1678 -3.54044e+08)
(-8.76526e+08 7.7409e+06 8.6128 -3.68253e+08 9.42035 -3.17342e+08)
(-8.05952e+08 5.54883e+06 23.4384 -3.53981e+08 -9.49539 -2.77571e+08)
(-7.17271e+08 1.13346e+07 -5.95938 -3.35027e+08 -24.8711 -2.30641e+08)
(-6.22539e+08 8.48292e+06 -32.1709 -3.16521e+08 2.34806 -1.79521e+08)
(-5.14967e+08 1.44383e+07 -8.13681 -2.93648e+08 37.9919 -1.26522e+08)
(-3.78823e+08 1.12955e+07 13.9926 -2.72612e+08 -3.39086 -6.98758e+07)
(-2.17361e+08 1.74033e+07 -2.2687 -2.46838e+08 -39.1716 -1.6977e+07)
(-2.11164e+07 1.36408e+07 -13.753 -2.24985e+08 24.232 5.69993e+07)
(2.01907e+08 1.95935e+07 3.80299 -1.94236e+08 43.951 1.19696e+08)
(5.15904e+08 1.54612e+07 4.84363 -1.71081e+08 -24.4281 2.29166e+08)
(8.34902e+08 2.09454e+07 -0.390825 -1.31393e+08 -42.8387 3.19254e+08)
(1.08527e+09 1.60054e+07 -2.70633 -1.04681e+08 26.3756 4.87016e+08)
(1.22554e+09 2.07437e+07 -2.14 -5.066e+07 15.1876 5.89295e+08)
(-9.81098e+08 291378 -2.43213 -3.97134e+08 3.44132 -3.94453e+08)
(-9.64708e+08 3.9014e+06 -11.1864 -3.89696e+08 -1.42856 -3.78555e+08)
(-9.23247e+08 2.39244e+06 -7.47869 -3.82459e+08 3.1495 -3.53713e+08)
(-8.72862e+08 7.53711e+06 8.6225 -3.67965e+08 9.36953 -3.1702e+08)
(-8.02292e+08 5.27408e+06 23.4506 -3.53732e+08 -9.45555 -2.77277e+08)
(-7.13676e+08 1.10026e+07 -5.96569 -3.34816e+08 -24.7723 -2.30336e+08)
(-6.19062e+08 8.09069e+06 -32.1856 -3.16354e+08 2.33826 -1.7926e+08)
(-5.11545e+08 1.39849e+07 -8.1532 -2.93523e+08 37.8766 -1.26297e+08)
(-3.75467e+08 1.07975e+07 13.9766 -2.72537e+08 -3.38964 -6.9721e+07)
(-2.14372e+08 1.68592e+07 -2.27238 -2.46804e+08 -39.0791 -1.68085e+07)
(-1.83808e+07 1.30655e+07 -13.6845 -2.24972e+08 24.169 5.70885e+07)
(2.04474e+08 1.90294e+07 3.83664 -1.94253e+08 43.8464 1.19734e+08)
(5.18078e+08 1.49181e+07 4.82379 -1.71099e+08 -24.3917 2.29168e+08)
(8.36712e+08 2.04682e+07 -0.389713 -1.31387e+08 -42.7492 3.1918e+08)
(1.08652e+09 1.5681e+07 -2.69995 -1.04672e+08 26.3874 4.86854e+08)
(1.22634e+09 2.06127e+07 -2.15845 -5.06588e+07 15.1594 5.89015e+08)
(-9.7743e+08 245307 -2.43421 -3.96801e+08 3.40402 -3.94115e+08)
(-9.61126e+08 3.80127e+06 -11.1976 -3.89552e+08 -1.42072 -3.78403e+08)
(-9.19674e+08 2.20515e+06 -7.48247 -3.8233e+08 3.12844 -3.53567e+08)
(-8.6927e+08 7.29841e+06 8.63192 -3.67853e+08 9.31208 -3.16873e+08)
(-7.98695e+08 4.95507e+06 23.4615 -3.53642e+08 -9.40866 -2.77152e+08)
(-7.10304e+08 1.06259e+07 -5.97133 -3.34759e+08 -24.6733 -2.30158e+08)
(-6.15804e+08 7.64628e+06 -32.1797 -3.163e+08 2.31655 -1.79127e+08)
(-5.08335e+08 1.34837e+07 -8.17523 -2.93511e+08 37.7664 -1.26183e+08)
(-3.72303e+08 1.02509e+07 13.9338 -2.72535e+08 -3.36435 -6.96758e+07)
(-2.11403e+08 1.62815e+07 -2.27596 -2.46839e+08 -38.9743 -1.67598e+07)
(-1.56097e+07 1.24675e+07 -13.628 -2.25006e+08 24.0925 5.70859e+07)
(2.07092e+08 1.846e+07 3.86741 -1.94295e+08 43.7289 1.19699e+08)
(5.20236e+08 1.43838e+07 4.83101 -1.71138e+08 -24.3593 2.29145e+08)
(8.38539e+08 2.00373e+07 -0.388199 -1.31399e+08 -42.6578 3.19101e+08)
(1.08794e+09 1.5368e+07 -2.69894 -1.04666e+08 26.3999 4.86713e+08)
(1.22739e+09 2.05031e+07 -2.17283 -5.06593e+07 15.1292 5.88771e+08)
(-9.73853e+08 191707 -2.43602 -3.96658e+08 3.36154 -3.93969e+08)
(-9.57771e+08 3.68938e+06 -11.2063 -3.89535e+08 -1.41284 -3.78377e+08)
(-9.16329e+08 1.99491e+06 -7.48472 -3.82319e+08 3.10698 -3.53541e+08)
(-8.65915e+08 7.03325e+06 8.63989 -3.67855e+08 9.2547 -3.16841e+08)
(-7.95337e+08 4.60289e+06 23.4673 -3.53654e+08 -9.36091 -2.77135e+08)
(-7.07009e+08 1.02153e+07 -5.97705 -3.34794e+08 -24.5619 -2.30119e+08)
(-6.12611e+08 7.17277e+06 -32.1862 -3.16342e+08 2.30297 -1.79112e+08)
(-5.05179e+08 1.29526e+07 -8.19228 -2.93575e+08 37.6409 -1.26179e+08)
(-3.69173e+08 9.68639e+06 13.9131 -2.72609e+08 -3.35533 -6.97206e+07)
(-2.08607e+08 1.56873e+07 -2.27925 -2.4692e+08 -38.8712 -1.67663e+07)
(-1.29942e+07 1.18745e+07 -13.5628 -2.25083e+08 24.0234 5.7035e+07)
(2.09623e+08 1.78922e+07 3.89601 -1.94351e+08 43.614 1.19633e+08)
(5.22464e+08 1.38723e+07 4.82319 -1.7119e+08 -24.3254 2.29083e+08)
(8.40529e+08 1.96203e+07 -0.386859 -1.31409e+08 -42.5625 3.19031e+08)
(1.08949e+09 1.50818e+07 -2.69355 -1.04681e+08 26.4135 4.86584e+08)
(1.22867e+09 2.03988e+07 -2.18576 -5.06424e+07 15.0985 5.88581e+08)
(-9.70499e+08 131316 -2.43786 -3.96641e+08 3.31857 -3.93949e+08)
(-9.54544e+08 3.57005e+06 -11.215 -3.89609e+08 -1.40463 -3.78442e+08)
(-9.13106e+08 1.77369e+06 -7.48722 -3.82397e+08 3.08466 -3.53607e+08)
(-8.62664e+08 6.7523e+06 8.64829 -3.67944e+08 9.19501 -3.16896e+08)
(-7.92068e+08 4.22968e+06 23.4737 -3.53745e+08 -9.30997 -2.77203e+08)
(-7.03949e+08 9.7829e+06 -5.98208 -3.34905e+08 -24.4585 -2.3012e+08)
(-6.09645e+08 6.67301e+06 -32.1732 -3.16432e+08 2.27813 -1.79145e+08)
(-5.02233e+08 1.24064e+07 -8.21512 -2.93683e+08 37.5279 -1.26209e+08)
(-3.66227e+08 9.10768e+06 13.8648 -2.727e+08 -3.32542 -6.97988e+07)
(-2.05808e+08 1.50973e+07 -2.28238 -2.47011e+08 -38.7636 -1.68071e+07)
(-1.03241e+07 1.12947e+07 -13.5037 -2.25164e+08 23.9461 5.69712e+07)
(2.12227e+08 1.73567e+07 3.92395 -1.94411e+08 43.494 1.1957e+08)
(5.24693e+08 1.33892e+07 4.8306 -1.71253e+08 -24.2966 2.2906e+08)
(8.42545e+08 1.92392e+07 -0.385234 -1.31423e+08 -42.4703 3.19004e+08)
(1.09121e+09 1.48201e+07 -2.68888 -1.04696e+08 26.4266 4.865e+08)
(1.23016e+09 2.03119e+07 -2.1957 -5.06307e+07 15.0671 5.8844e+08)
(-9.67278e+08 68468.7 -2.43986 -3.96717e+08 3.27405 -3.94022e+08)
(-9.51564e+08 3.44259e+06 -11.2226 -3.89731e+08 -1.39692 -3.78555e+08)
(-9.1013e+08 1.53323e+06 -7.48808 -3.82515e+08 3.06308 -3.53718e+08)
(-8.59672e+08 6.4562e+06 8.65501 -3.6807e+08 9.13876 -3.16993e+08)
(-7.89055e+08 3.83919e+06 23.4733 -3.53861e+08 -9.26082 -2.77306e+08)
(-7.00982e+08 9.33782e+06 -5.98704 -3.35031e+08 -24.3502 -2.3018e+08)
(-6.06744e+08 6.1756e+06 -32.1717 -3.16547e+08 2.2621 -1.79217e+08)
(-4.99333e+08 1.18613e+07 -8.23242 -2.93799e+08 37.4077 -1.26271e+08)
(-3.63297e+08 8.55128e+06 13.8402 -2.72818e+08 -3.31483 -6.989e+07)
(-2.03149e+08 1.45095e+07 -2.2851 -2.47117e+08 -38.6652 -1.68255e+07)
(-7.77538e+06 1.07273e+07 -13.4452 -2.25264e+08 23.8788 5.6932e+07)
(2.14768e+08 1.68138e+07 3.94657 -1.94469e+08 43.3835 1.19543e+08)
(5.27001e+08 1.29209e+07 4.83022 -1.71318e+08 -24.2622 2.29032e+08)
(8.44726e+08 1.88774e+07 -0.383875 -1.31426e+08 -42.3766 3.19004e+08)
(1.09305e+09 1.4575e+07 -2.68168 -1.0472e+08 26.4406 4.86454e+08)
(1.23183e+09 2.02299e+07 -2.20446 -5.06113e+07 15.036 5.88359e+08)
(-9.643e+08 -787.783 -2.44132 -3.96839e+08 3.23171 -3.94143e+08)
(-9.48741e+08 3.31579e+06 -11.2306 -3.89872e+08 -1.38934 -3.78687e+08)
(-9.07298e+08 1.29952e+06 -7.48997 -3.82654e+08 3.04244 -3.53845e+08)
(-8.56792e+08 6.16311e+06 8.66215 -3.68214e+08 9.08363 -3.17103e+08)
(-7.86136e+08 3.45444e+06 23.4743 -3.53999e+08 -9.21337 -2.77421e+08)
(-6.98234e+08 8.88896e+06 -5.99148 -3.35182e+08 -24.2571 -2.30206e+08)
(-6.04053e+08 5.66384e+06 -32.1526 -3.16665e+08 2.23534 -1.79265e+08)
(-4.9662e+08 1.1304e+07 -8.25511 -2.93928e+08 37.307 -1.263e+08)
(-3.60545e+08 7.96868e+06 13.7848 -2.72928e+08 -3.28161 -6.99598e+07)
(-2.00498e+08 1.39286e+07 -2.28818 -2.47218e+08 -38.5645 -1.686e+07)
(-5.18143e+06 1.01806e+07 -13.3874 -2.25355e+08 23.8082 5.68949e+07)
(2.17384e+08 1.63156e+07 3.97387 -1.94529e+08 43.2702 1.19531e+08)
(5.29342e+08 1.24911e+07 4.83197 -1.71379e+08 -24.2333 2.29064e+08)
(8.46939e+08 1.85412e+07 -0.382222 -1.31444e+08 -42.2868 3.19045e+08)
(1.09503e+09 1.43428e+07 -2.67568 -1.04741e+08 26.4554 4.86468e+08)
(1.23368e+09 2.01586e+07 -2.21155 -5.0601e+07 15.005 5.88337e+08)
(-9.61487e+08 -67358.6 -2.44211 -3.96982e+08 3.1906 -3.94285e+08)
(-9.46158e+08 3.18148e+06 -11.237 -3.9e+08 -1.38299 -3.78801e+08)
(-9.04706e+08 1.04225e+06 -7.48949 -3.82769e+08 3.0231 -3.53955e+08)
(-8.54171e+08 5.85129e+06 8.66753 -3.68348e+08 9.03554 -3.17195e+08)
(-7.83477e+08 3.03704e+06 23.4651 -3.54111e+08 -9.16565 -2.7752e+08)
(-6.95602e+08 8.42423e+06 -5.99645 -3.35316e+08 -24.1609 -2.30272e+08)
(-6.01441e+08 5.15673e+06 -32.1447 -3.16773e+08 2.21662 -1.79329e+08)
(-4.9397e+08 1.0748e+07 -8.27324 -2.94048e+08 37.203 -1.2634e+08)
(-3.57793e+08 7.42172e+06 13.7638 -2.73036e+08 -3.2626 -7.00136e+07)
(-1.97932e+08 1.33554e+07 -2.29034 -2.47313e+08 -38.4744 -1.68347e+07)
(-2.66279e+06 9.64018e+06 -13.3351 -2.25453e+08 23.739 5.69023e+07)
(2.19969e+08 1.58034e+07 3.99343 -1.94582e+08 43.1647 1.19571e+08)
(5.31748e+08 1.20494e+07 4.83725 -1.71449e+08 -24.2026 2.29128e+08)
(8.49294e+08 1.82143e+07 -0.380734 -1.31451e+08 -42.2002 3.19154e+08)
(1.09713e+09 1.41243e+07 -2.67075 -1.04781e+08 26.4689 4.86534e+08)
(1.23568e+09 2.00913e+07 -2.21762 -5.05754e+07 14.9751 5.88388e+08)
(-9.58908e+08 -141241 -2.44354 -3.97104e+08 3.15375 -3.94408e+08)
(-9.43765e+08 3.04695e+06 -11.244 -3.9013e+08 -1.3768 -3.78921e+08)
(-9.02289e+08 790795 -7.48964 -3.82893e+08 3.00535 -3.54068e+08)
(-8.51687e+08 5.54073e+06 8.67362 -3.68482e+08 8.9891 -3.17285e+08)
(-7.80921e+08 2.6366e+06 23.4645 -3.54231e+08 -9.12261 -2.7761e+08)
(-6.93156e+08 7.96306e+06 -6.00035 -3.35451e+08 -24.0809 -2.30274e+08)
(-5.99018e+08 4.63297e+06 -32.1222 -3.1688e+08 2.18981 -1.79354e+08)
(-4.91471e+08 1.01784e+07 -8.29611 -2.94161e+08 37.1162 -1.26332e+08)
(-3.55205e+08 6.84076e+06 13.7092 -2.73137e+08 -3.22953 -7.00378e+07)
(-1.95402e+08 1.27668e+07 -2.29318 -2.47394e+08 -38.3882 -1.67844e+07)
(-122268 9.10878e+06 -13.278 -2.2554e+08 23.6712 5.69564e+07)
(2.22608e+08 1.53234e+07 4.01844 -1.94631e+08 43.0632 1.19668e+08)
(5.34212e+08 1.16434e+07 4.83779 -1.71523e+08 -24.1769 2.29272e+08)
(8.51713e+08 1.78937e+07 -0.379072 -1.31461e+08 -42.1189 3.19326e+08)
(1.09937e+09 1.39139e+07 -2.66311 -1.04816e+08 26.4826 4.8666e+08)
(1.23784e+09 2.00277e+07 -2.22338 -5.05611e+07 14.9458 5.88492e+08)
(-9.56527e+08 -213120 -2.4465 -3.97234e+08 3.11887 -3.94537e+08)
(-9.41606e+08 2.90559e+06 -11.2498 -3.90228e+08 -1.3718 -3.79005e+08)
(-9.00105e+08 513910 -7.48787 -3.82974e+08 2.98909 -3.54146e+08)
(-8.49448e+08 5.21185e+06 8.67823 -3.68584e+08 8.9498 -3.17339e+08)
(-7.78615e+08 2.19411e+06 23.4494 -3.54303e+08 -9.07998 -2.77667e+08)
(-6.90864e+08 7.46846e+06 -6.00554 -3.35545e+08 -24.0057 -2.30262e+08)
(-5.96698e+08 4.10898e+06 -32.1068 -3.16941e+08 2.1657 -1.79337e+08)
(-4.89059e+08 9.60521e+06 -8.31564 -2.94234e+08 37.037 -1.26277e+08)
(-3.52627e+08 6.29567e+06 13.685 -2.73208e+08 -3.20295 -6.99919e+07)
(-1.9291e+08 1.21891e+07 -2.29499 -2.47455e+08 -38.3139 -1.66452e+07)
(2.39709e+06 8.56436e+06 -13.2342 -2.25616e+08 23.6022 5.70825e+07)
(2.25255e+08 1.48027e+07 4.03445 -1.94665e+08 42.9695 1.19836e+08)
(5.36714e+08 1.12013e+07 4.85258 -1.71595e+08 -24.1447 2.29451e+08)
(8.54246e+08 1.75815e+07 -0.377574 -1.31459e+08 -42.0415 3.19561e+08)
(1.10172e+09 1.36989e+07 -2.65634 -1.04859e+08 26.4939 4.86857e+08)
(1.24014e+09 1.99671e+07 -2.2282 -5.05424e+07 14.9173 5.88671e+08)
(-9.54377e+08 -292704 -2.44708 -3.97324e+08 3.08861 -3.94629e+08)
(-9.39673e+08 2.76511e+06 -11.2562 -3.90289e+08 -1.36749 -3.79052e+08)
(-8.98129e+08 247861 -7.48734 -3.83024e+08 2.97561 -3.54181e+08)
(-8.47382e+08 4.88915e+06 8.68331 -3.68646e+08 8.91545 -3.17347e+08)
(-7.76446e+08 1.78177e+06 23.4429 -3.54351e+08 -9.04524 -2.7767e+08)
(-6.88725e+08 6.98706e+06 -6.00972 -3.35616e+08 -23.9464 -2.30171e+08)
(-5.94533e+08 3.56521e+06 -32.084 -3.16988e+08 2.13889 -1.79263e+08)
(-4.86757e+08 8.99873e+06 -8.33805 -2.94296e+08 36.9729 -1.26159e+08)
(-3.50188e+08 5.68171e+06 13.6329 -2.73278e+08 -3.16743 -6.99101e+07)
(-1.90506e+08 1.15592e+07 -2.29801 -2.47514e+08 -38.2444 -1.64944e+07)
(4.87709e+06 8.00948e+06 -13.1829 -2.25694e+08 23.5397 5.72376e+07)
(2.27924e+08 1.42952e+07 4.05909 -1.94699e+08 42.8814 1.20049e+08)
(5.39325e+08 1.0786e+07 4.8504 -1.71658e+08 -24.1164 2.29698e+08)
(8.56879e+08 1.72549e+07 -0.375937 -1.31467e+08 -41.9669 3.19839e+08)
(1.10421e+09 1.34707e+07 -2.65437 -1.04906e+08 26.5104 4.87117e+08)
(1.2426e+09 1.99042e+07 -2.23347 -5.05252e+07 14.8902 5.88926e+08)
(-9.52459e+08 -369515 -2.44913 -3.97383e+08 3.0624 -3.94687e+08)
(-9.37959e+08 2.61593e+06 -11.2623 -3.90308e+08 -1.36456 -3.7905e+08)
(-8.9637e+08 -51576.1 -7.48452 -3.83025e+08 2.96363 -3.54173e+08)
(-8.45532e+08 4.53327e+06 8.68791 -3.68686e+08 8.88881 -3.1731e+08)
(-7.74505e+08 1.29528e+06 23.4214 -3.54358e+08 -9.00714 -2.77641e+08)
(-6.86792e+08 6.44231e+06 -6.0155 -3.35673e+08 -23.8934 -2.30078e+08)
(-5.92527e+08 2.99173e+06 -32.0629 -3.17001e+08 2.10799 -1.79169e+08)
(-4.84606e+08 8.36073e+06 -8.36089 -2.94346e+08 36.921 -1.26015e+08)
(-3.47797e+08 5.08354e+06 13.6116 -2.73308e+08 -3.12243 -6.97715e+07)
(-1.88082e+08 1.09348e+07 -2.29964 -2.47538e+08 -38.1826 -1.6262e+07)
(7.40474e+06 7.43129e+06 -13.1471 -2.25749e+08 23.4638 5.74545e+07)
(2.30647e+08 1.37526e+07 4.07443 -1.94718e+08 42.7942 1.20324e+08)
(5.41945e+08 1.03111e+07 4.87497 -1.71739e+08 -24.0919 2.30028e+08)
(8.59583e+08 1.69141e+07 -0.374319 -1.31474e+08 -41.9022 3.20232e+08)
(1.10682e+09 1.3238e+07 -2.64949 -1.04966e+08 26.5201 4.87459e+08)
(1.24521e+09 1.98387e+07 -2.23891 -5.05047e+07 14.8639 5.89261e+08)
(-9.50762e+08 -455281 -2.45108 -3.9739e+08 3.04102 -3.94697e+08)
(-9.36518e+08 2.45912e+06 -11.2688 -3.90326e+08 -1.36219 -3.79049e+08)
(-8.94872e+08 -360301 -7.48255 -3.83023e+08 2.95369 -3.54159e+08)
(-8.4393e+08 4.16646e+06 8.69249 -3.68709e+08 8.8663 -3.17263e+08)
(-7.72766e+08 828445 23.4117 -3.54352e+08 -8.9766 -2.77587e+08)
(-6.84989e+08 5.90849e+06 -6.02041 -3.3569e+08 -23.85 -2.29935e+08)
(-5.90652e+08 2.39844e+06 -32.0411 -3.17006e+08 2.08165 -1.79041e+08)
(-4.82523e+08 7.69552e+06 -8.38396 -2.94362e+08 36.8744 -1.25825e+08)
(-3.45503e+08 4.434e+06 13.5704 -2.73351e+08 -3.08901 -6.96079e+07)
(-1.85789e+08 1.02315e+07 -2.30269 -2.47571e+08 -38.1348 -1.59631e+07)
(9.84235e+06 6.81039e+06 -13.1048 -2.25823e+08 23.3986 5.77535e+07)
(2.33348e+08 1.31656e+07 4.09306 -1.9474e+08 42.7219 1.20694e+08)
(5.44687e+08 9.83176e+06 4.88359 -1.71818e+08 -24.0586 2.30408e+08)
(8.62446e+08 1.65466e+07 -0.372733 -1.31473e+08 -41.839 3.20673e+08)
(1.10957e+09 1.29797e+07 -2.65201 -1.05029e+08 26.5321 4.87873e+08)
(1.24799e+09 1.97699e+07 -2.24493 -5.04873e+07 14.839 5.89671e+08)
(-9.49339e+08 -545141 -2.45191 -3.97399e+08 3.02303 -3.94707e+08)
(-9.35314e+08 2.29981e+06 -11.2754 -3.9031e+08 -1.36064 -3.79014e+08)
(-8.93603e+08 -686792 -7.47882 -3.8299e+08 2.94591 -3.54113e+08)
(-8.42517e+08 3.78197e+06 8.69749 -3.68706e+08 8.84955 -3.17177e+08)
(-7.71221e+08 309422 23.3873 -3.54317e+08 -8.94734 -2.77503e+08)
(-6.83436e+08 5.30195e+06 -6.02716 -3.35708e+08 -23.826 -2.29719e+08)
(-5.88982e+08 1.76013e+06 -32.013 -3.16974e+08 2.04168 -1.78832e+08)
(-4.80635e+08 6.97e+06 -8.41012 -2.94367e+08 36.8557 -1.25547e+08)
(-3.43328e+08 3.74276e+06 13.5377 -2.73352e+08 -3.02896 -6.9349e+07)
(-1.83479e+08 9.51032e+06 -2.30481 -2.47569e+08 -38.0902 -1.56209e+07)
(1.23538e+07 6.14965e+06 -13.0816 -2.25862e+08 23.3255 5.80944e+07)
(2.36143e+08 1.25491e+07 4.10943 -1.94744e+08 42.6481 1.21111e+08)
(5.47454e+08 9.29463e+06 4.91501 -1.71894e+08 -24.0348 2.30883e+08)
(8.65356e+08 1.61514e+07 -0.370953 -1.31486e+08 -41.7843 3.21203e+08)
(1.11247e+09 1.26936e+07 -2.65716 -1.05096e+08 26.5413 4.8837e+08)
(1.25096e+09 1.9695e+07 -2.25183 -5.04751e+07 14.8148 5.90162e+08)
(-9.48161e+08 -639859 -2.45342 -3.97375e+08 3.00943 -3.94683e+08)
(-9.34405e+08 2.13165e+06 -11.2823 -3.9028e+08 -1.36053 -3.78958e+08)
(-8.92623e+08 -1.03297e+06 -7.47477 -3.82931e+08 2.94011 -3.54042e+08)
(-8.41408e+08 3.37584e+06 8.70193 -3.68688e+08 8.841 -3.17065e+08)
(-7.69961e+08 -225542 23.3643 -3.54257e+08 -8.92076 -2.77386e+08)
(-6.82033e+08 4.6902e+06 -6.03391 -3.35691e+08 -23.8017 -2.2953e+08)
(-5.87447e+08 1.09415e+06 -31.9941 -3.1693e+08 2.01266 -1.78641e+08)
(-4.78828e+08 6.20457e+06 -8.43525 -2.94353e+08 36.8344 -1.25274e+08)
(-3.41214e+08 3.00924e+06 13.5153 -2.73357e+08 -2.98509 -6.90877e+07)
(-1.81302e+08 8.70122e+06 -2.30763 -2.47569e+08 -38.0605 -1.52012e+07)
(1.47525e+07 5.42453e+06 -13.0543 -2.25924e+08 23.2536 5.85035e+07)
(2.38891e+08 1.18494e+07 4.12332 -1.94751e+08 42.5861 1.21608e+08)
(5.50334e+08 8.69966e+06 4.94068 -1.71987e+08 -24.0024 2.31402e+08)
(8.68454e+08 1.57065e+07 -0.369388 -1.3149e+08 -41.7326 3.21808e+08)
(1.11553e+09 1.23788e+07 -2.6708 -1.05182e+08 26.5488 4.88939e+08)
(1.25413e+09 1.96134e+07 -2.25986 -5.04505e+07 14.7919 5.90743e+08)
(-9.47276e+08 -741387 -2.45723 -3.9733e+08 3.00078 -3.94641e+08)
(-9.33765e+08 1.96058e+06 -11.2895 -3.90277e+08 -1.36061 -3.78932e+08)
(-8.919e+08 -1.39727e+06 -7.46984 -3.82903e+08 2.93599 -3.53998e+08)
(-8.40502e+08 2.94855e+06 8.70723 -3.68692e+08 8.83506 -3.16967e+08)
(-7.68881e+08 -793676 23.3388 -3.54216e+08 -8.89639 -2.77283e+08)
(-6.80901e+08 4.01643e+06 -6.04182 -3.35703e+08 -23.7989 -2.29269e+08)
(-5.86162e+08 376586 -31.9618 -3.16893e+08 1.9672 -1.78397e+08)
(-4.77244e+08 5.37129e+06 -8.46595 -2.94345e+08 36.84 -1.24935e+08)
(-3.39286e+08 2.20662e+06 13.4768 -2.73356e+08 -2.91506 -6.87735e+07)
(-1.79148e+08 7.8366e+06 -2.31056 -2.47551e+08 -38.0335 -1.47597e+07)
(1.72127e+07 4.63832e+06 -13.0459 -2.25967e+08 23.18 5.89574e+07)
(2.4173e+08 1.11114e+07 4.13819 -1.94741e+08 42.5259 1.22162e+08)
(5.53262e+08 8.05102e+06 4.9839 -1.72082e+08 -23.9807 2.32016e+08)
(8.71626e+08 1.52163e+07 -0.367581 -1.31487e+08 -41.6877 3.225e+08)
(1.11879e+09 1.20265e+07 -2.68926 -1.05271e+08 26.5581 4.89575e+08)
(1.25754e+09 1.95215e+07 -2.26973 -5.04272e+07 14.7694 5.91401e+08)
(-9.46671e+08 -849015 -2.45974 -3.97319e+08 2.99453 -3.94631e+08)
(-9.33444e+08 1.78777e+06 -11.2971 -3.90305e+08 -1.36185 -3.78933e+08)
(-8.91499e+08 -1.77877e+06 -7.46297 -3.82891e+08 2.93294 -3.53981e+08)
(-8.39936e+08 2.50837e+06 8.71165 -3.68722e+08 8.83567 -3.16893e+08)
(-7.68147e+08 -1.39011e+06 23.3031 -3.54182e+08 -8.87179 -2.77204e+08)
(-6.79965e+08 3.31553e+06 -6.051 -3.35714e+08 -23.7938 -2.29075e+08)
(-5.85035e+08 -367432 -31.9426 -3.16854e+08 1.92942 -1.7819e+08)
(-4.7578e+08 4.4931e+06 -8.49453 -2.9433e+08 36.8448 -1.24616e+08)
(-3.37426e+08 1.37558e+06 13.4656 -2.73359e+08 -2.85686 -6.84572e+07)
(-1.77129e+08 6.89944e+06 -2.31344 -2.47535e+08 -38.0187 -1.42623e+07)
(1.95629e+07 3.77847e+06 -13.0441 -2.26026e+08 23.1045 5.94542e+07)
(2.44525e+08 1.02577e+07 4.14697 -1.94727e+08 42.4736 1.22774e+08)
(5.56283e+08 7.31498e+06 5.033 -1.72194e+08 -23.948 2.32643e+08)
(8.75e+08 1.46642e+07 -0.366077 -1.31471e+08 -41.6434 3.23249e+08)
(1.12224e+09 1.16275e+07 -2.70758 -1.05371e+08 26.566 4.90288e+08)
(1.2612e+09 1.9415e+07 -2.28192 -5.04048e+07 14.7471 5.92145e+08)
(-9.46379e+08 -963044 -2.46181 -3.97332e+08 2.99223 -3.94647e+08)
(-9.33414e+08 1.61772e+06 -11.3056 -3.9042e+08 -1.36303 -3.79024e+08)
(-8.91377e+08 -2.16533e+06 -7.45619 -3.82966e+08 2.9307 -3.54047e+08)
(-8.396e+08 2.06211e+06 8.71715 -3.68829e+08 8.83718 -3.16889e+08)
(-7.67618e+08 -1.98414e+06 23.2692 -3.54221e+08 -8.84804 -2.77188e+08)
(-6.79316e+08 2.5929e+06 -6.0608 -3.35798e+08 -23.8033 -2.28882e+08)
(-5.84188e+08 -1.14488e+06 -31.9101 -3.16867e+08 1.87828 -1.78006e+08)
(-4.74554e+08 3.55317e+06 -8.52948 -2.94368e+08 36.8685 -1.24302e+08)
(-3.35794e+08 461558 13.4295 -2.73402e+08 -2.77398 -6.81634e+07)
(-1.75196e+08 5.88428e+06 -2.31718 -2.47554e+08 -38.001 -1.38215e+07)
(2.19057e+07 2.85105e+06 -13.0569 -2.26112e+08 23.0258 5.99228e+07)
(2.47379e+08 9.35539e+06 4.16062 -1.94732e+08 42.4181 1.23387e+08)
(5.59394e+08 6.53041e+06 5.08804 -1.72297e+08 -23.9154 2.33312e+08)
(8.78486e+08 1.40638e+07 -0.364324 -1.31477e+08 -41.5993 3.24024e+08)
(1.12592e+09 1.11632e+07 -2.74106 -1.0547e+08 26.5791 4.91091e+08)
(1.26516e+09 1.92991e+07 -2.29596 -5.03941e+07 14.7245 5.92988e+08)
(-9.4639e+08 -1.08104e+06 -2.46594 -3.97441e+08 2.99062 -3.94756e+08)
(-9.33705e+08 1.45907e+06 -11.3132 -3.9067e+08 -1.36465 -3.79244e+08)
(-8.91586e+08 -2.55915e+06 -7.44582 -3.83158e+08 2.92765 -3.54246e+08)
(-8.39603e+08 1.61611e+06 8.72169 -3.69067e+08 8.84102 -3.1701e+08)
(-7.67448e+08 -2.60654e+06 23.2196 -3.54359e+08 -8.81698 -2.77305e+08)
(-6.78914e+08 1.84333e+06 -6.07282 -3.35994e+08 -23.802 -2.28868e+08)
(-5.83556e+08 -1.93685e+06 -31.8885 -3.16965e+08 1.82783 -1.7797e+08)
(-4.73523e+08 2.57151e+06 -8.56393 -2.94491e+08 36.886 -1.24115e+08)
(-3.34273e+08 -468347 13.4335 -2.73492e+08 -2.6884 -6.79559e+07)
(-1.73398e+08 4.82016e+06 -2.32024 -2.47598e+08 -37.9846 -1.34136e+07)