/*--------------------------------*- C++ -*----------------------------------*\
  =========                 |
  \\      /  F ield         | OpenFOAM: The Open Source CFD Toolbox
   \\    /   O peration     | Website:  https://openfoam.org
    \\  /    A nd           | Version:  8
     \\/     M anipulation  |
\*---------------------------------------------------------------------------*/
FoamFile
{
    version     2.0;
    format      ascii;
    class       volVectorField;
    location    "0.0375000";
    object      U_0;
}
// * * * * * * * * * * * * * * * * * * * * * * * * * * * * * * * * * * * * * //

dimensions      [0 1 -1 0 0 0 0];

internalField   nonuniform List<vector> 
600
(
(0.634669779111948 0.000626687937650901 2.97860124621211e-18)
(0.635752333975775 0.000399330796416361 -5.04746920614372e-18)
(0.635898789797021 0.000332561725308672 -7.92657542380759e-18)
(0.636039246571719 0.000371296168495613 -6.02574855601515e-18)
(0.636048156046429 0.000395012177420719 -9.25159403181109e-18)
(0.635975571749979 0.000407041362547513 -2.4981771907409e-18)
(0.635874438593959 0.000414644883260463 4.85192592322598e-18)
(0.635765305457508 0.000419540409570551 1.69599569631485e-17)
(0.635652603445515 0.000423443833510583 1.25631924014907e-17)
(0.635538217965524 0.000427462146735602 1.43993313333703e-17)
(0.635423124142264 0.000431520753626932 2.07421783345907e-17)
(0.635306368784727 0.00043497337742566 6.71220148485419e-18)
(0.635186537195145 0.00043828929140658 9.69435357571304e-18)
(0.635064113684961 0.000441899640653911 4.29926197778762e-17)
(0.634939611579776 0.000445335075276313 3.11345531985466e-17)
(0.634812225288822 0.000448309345359087 2.80739702751389e-17)
(0.63468120469667 0.000451284905715002 2.33392784833154e-17)
(0.634547496714752 0.000454480641356156 1.21635669214495e-16)
(0.634412013557824 0.000457342043119718 9.11115556141705e-17)
(0.634273100451368 0.000460497711487435 -1.66047610968151e-17)
(0.634127881131296 0.000464021467157038 -7.74460287389248e-17)
(0.633979268880205 0.000467389192471793 -6.13854345521981e-17)
(0.633828799818522 0.000470067973319167 6.54644233635149e-17)
(0.633673868161687 0.000472853516643715 -1.19888414214137e-18)
(0.633514779181403 0.000476155621636053 5.65713454134206e-18)
(0.633352423325241 0.000479720692724161 3.72451790302242e-17)
(0.633186280474649 0.000482801927499747 5.56880509635684e-17)
(0.633015256147 0.000485960108231549 2.69546701528426e-17)
(0.632840244436992 0.00048990001026737 1.10254440469443e-16)
(0.632661863371565 0.000493872361338514 1.78393271671509e-17)
(0.632478981418941 0.00049734996552259 4.16829652785389e-17)
(0.632290945779149 0.000501165119026656 1.26419492988181e-16)
(0.632099351631357 0.000506193122862354 8.37827001536793e-17)
(0.631905684659579 0.000510717607040645 6.07492409946986e-17)
(0.631707935918487 0.000515459676169636 5.54538726725106e-17)
(0.631502744891976 0.000521371168973137 -1.04529265038291e-16)
(0.631294611997927 0.000528593504238557 -8.15781502003671e-17)
(0.631085897275567 0.000534748901908532 -7.33229601239696e-17)
(0.63087301246059 0.000541358099366363 -1.69110050070567e-17)
(0.630657618069508 0.000550391883400696 -1.61333469838266e-16)
(0.63044289133968 0.000561115561569001 -4.37282360467095e-17)
(0.630228135364689 0.000570774094474476 1.49123821754875e-17)
(0.630011852020638 0.000581791843638386 1.69424543970104e-16)
(0.629798821058824 0.00059821485617057 -9.27222446544487e-17)
(0.629592962933129 0.000615012495609694 -6.6759157758497e-17)
(0.629392090748377 0.000630810169569149 -8.77854114632591e-17)
(0.629196714506536 0.000650353297789721 -2.87038289076543e-17)
(0.629018038659517 0.000681023195740418 1.46317095334425e-16)
(0.628859776433519 0.000707484370136357 1.30466403442641e-16)
(0.628718906966797 0.000734872420624324 -2.88698700697278e-17)
(0.628604644213687 0.000772998395637096 -7.29700119456318e-17)
(0.628529460067033 0.000823354696604961 -3.72930634254888e-19)
(0.628495807523136 0.000867651638592767 8.57524521734103e-18)
(0.628510509460535 0.00091647296687638 -6.30857613718402e-17)
(0.628593655962425 0.000990035474374967 -1.83686435791129e-17)
(0.628765612741919 0.0010687772408903 -1.18490776243302e-16)
(0.62903031753418 0.00114065414891338 6.58955628639442e-17)
(0.62940739476309 0.00122562255887915 7.84456277216637e-17)
(0.629939347630609 0.00136551715824763 1.45656357994113e-17)
(0.630653803062601 0.00148208478612378 5.37156855021858e-18)
(0.631572938737742 0.00159919978305338 4.46794605235057e-17)
(0.63275268129817 0.00176106444687126 1.44267969745297e-16)
(0.634331219784395 0.00201766339108621 -1.22406812447025e-17)
(0.636495178952647 0.00227643210150711 -1.36951794394501e-16)
(0.639515405254518 0.00258823649068439 3.78732608071241e-16)
(0.643741941731554 0.00316280882302976 2.32493882162298e-16)
(0.649327997296006 0.00378745623966025 6.14897462820305e-17)
(0.65624082125668 0.00428234884509155 1.49210241811554e-16)
(0.664590045805164 0.00477897186055987 -2.28066854482857e-16)
(0.674370181045684 0.00543044806944399 -7.55827048822127e-17)
(0.685594356846652 0.00568323873176171 -4.82227056986003e-17)
(0.69838917908395 0.00581346838583723 1.28365342338984e-18)
(0.712631349564533 0.0059322481144609 -1.06324695824413e-17)
(0.728289421178096 0.00585550441585125 6.47909474599652e-17)
(0.745290874579167 0.00557339972298171 -9.59979746117813e-17)
(0.763487591914912 0.00520253323747475 -1.19660802325676e-16)
(0.782743407667117 0.00468969218781317 6.9757387358482e-18)
(0.803005634161848 0.00406626420410655 8.59175227096406e-18)
(0.824151335339931 0.00341489063957942 1.14748840388285e-16)
(0.846191418355757 0.00267276558910059 -1.83911119256508e-16)
(0.869003818698901 0.00191377293182617 -4.57507949473138e-17)
(0.893116257711515 0.00122609491530406 1.86373629097338e-17)
(0.917895422787068 0.000620373685110272 1.41008520766212e-16)
(0.945562999682331 -1.62981067855697e-05 5.43611142259719e-17)
(0.972268203467964 -0.000292932498154137 2.5013504490776e-18)
(1.00826335288872 -0.000848972111265649 2.04110189629441e-17)
(1.02327242596801 0.000419547985472441 1.15388273476903e-16)
(1.01964041749139 0.00013458276345736 -2.40929090045135e-17)
(1.02296745619612 0.000252560985103086 -6.45368625521572e-17)
(1.02239878430331 0.000223825746668386 9.20784846094992e-18)
(1.02274810113743 0.000278828932884153 -1.32718250908044e-18)
(1.02200614379066 0.000238167246011337 -7.41496485252255e-18)
(1.02131527335523 0.000227278321576037 -1.47102665393041e-17)
(1.02021797373616 0.000221588954009434 -1.5129171070513e-18)
(1.01898318160924 0.000190642119916659 1.54387019855478e-17)
(1.01763382920656 0.000166745401359102 -1.22518065176452e-17)
(1.01622715911135 0.000141054376909823 -1.33472813842426e-17)
(1.01479506046691 0.00011147942733676 -1.73144925527416e-18)
(1.01342883214818 0.000111435526189142 4.8398328666812e-18)
(1.01179848758257 0.000305125365300759 3.21172104103465e-19)
(0.164464208647663 0.00296815765855978 5.67868530125191e-19)
(0.167558785849446 0.00356737789555896 -3.33283799510765e-18)
(0.168060153260871 0.0039457094301147 -8.75246976575976e-18)
(0.168261612029462 0.0042561340783041 -1.28675098634976e-17)
(0.168137186766569 0.00443547376863674 -3.01299187810389e-17)
(0.16783776384149 0.00452247240381303 -6.47754703333464e-18)
(0.1674717177068 0.00456385000958205 1.20075986949238e-17)
(0.167082933503686 0.00458564850989217 5.78959764156835e-17)
(0.16668423688914 0.00460097294309144 3.46856269443966e-17)
(0.166279670106102 0.00461517166005737 4.04407638579897e-17)
(0.165870539962264 0.00462939806795308 6.95869434732081e-17)
(0.165455823861747 0.00464303871222327 1.38396935300301e-17)
(0.165034104113204 0.00465665880377319 1.87541800742179e-17)
(0.164605492305134 0.00467076995466889 1.49487027258731e-16)
(0.164170180293494 0.00468476473669719 9.50083055986621e-17)
(0.163727147513801 0.00469825684618947 8.79298645432405e-17)
(0.163275605689426 0.00471182920600591 4.65302818004587e-17)
(0.162816028759333 0.00472589752372737 6.11386504711016e-17)
(0.162348398430381 0.00473974987792559 -6.90518604681758e-17)
(0.161871475532824 0.00475414776475413 -8.54336226821661e-17)
(0.161384304724985 0.00476920805150404 -8.69761511505742e-17)
(0.160887996230697 0.00478437783929833 -2.04047706165756e-16)
(0.160382344990948 0.00479872606542031 7.06628034014915e-17)
(0.159865617595502 0.00481340407315422 1.16280464488718e-16)
(0.159337952441745 0.00482909617600628 5.9141380252264e-18)
(0.158799966546343 0.00484548935730011 1.03106744409149e-16)
(0.158250772738363 0.00486147871937457 1.6676595411175e-16)
(0.157689102984547 0.00487789780733254 5.86329025813597e-17)
(0.15711554746616 0.00489582724167066 6.79283166574378e-17)
(0.156530593666534 0.00491415549443859 1.32025179513374e-17)
(0.155932746249194 0.00493212779971067 1.13099577342247e-16)
(0.155321031256889 0.00495098268315508 1.13197485133083e-16)
(0.154696950692191 0.00497221546191099 2.31778655620735e-16)
(0.154061039467075 0.0049931683911737 1.73095374398712e-16)
(0.153411234539908 0.00501495557952606 1.91032567950441e-16)
(0.152746445850238 0.00503908620949332 -7.08341173657576e-17)
(0.152070089240102 0.00506603027834382 -2.27338202700363e-16)
(0.151382678767498 0.00509181938205318 -2.19671619108931e-16)
(0.150681396787068 0.00511897607185849 -1.6671849191408e-17)
(0.149968485972092 0.00515083742222008 -2.69288162632395e-16)
(0.149248258934099 0.00518630839322015 -1.12569974397105e-16)
(0.148519860589252 0.00522084547471442 3.38419861555001e-17)
(0.147782018831881 0.00525850750102649 9.98279719852034e-17)
(0.147042086872101 0.00530632117482112 -9.07965295602442e-17)
(0.146306643711736 0.00535571646876922 -1.85794339400363e-16)
(0.145573173133266 0.00540448995978338 -2.6943935451765e-16)
(0.144844031399238 0.00546072737437701 -9.66479943561115e-17)
(0.14413829050573 0.00553766896243318 2.51412644255786e-16)
(0.143464216290155 0.00560831218367817 1.92506014143533e-16)
(0.142818422037971 0.00568170915551061 -9.53880788497044e-17)
(0.14221715496854 0.00577531892747768 -2.25806200338195e-16)
(0.141691721165594 0.00589203604896962 -1.26914695613878e-19)
(0.141251763382697 0.00599899953008464 2.54991272857795e-17)
(0.140904992157767 0.00611501070676568 -1.90710071603508e-16)
(0.140696610771125 0.00627684178986427 -4.20249716524815e-17)
(0.140677599643583 0.00644889321308348 -4.96539968237633e-17)
(0.140859023657193 0.00660859264469858 2.06590753984133e-16)
(0.14127414539853 0.00679277311077162 2.37492071400655e-16)
(0.142037993377547 0.00707762091784569 4.02066002573899e-17)
(0.143223530576342 0.00731911224830784 1.2656296267302e-17)
(0.144856182940504 0.00755902806810451 1.27169906178068e-16)
(0.14705635166227 0.00788274528774123 4.39070018345216e-16)
(0.150123731470231 0.00838186040389548 -3.32516009764524e-17)
(0.154343153776483 0.00888452013306269 -1.731493542405e-16)
(0.160048640190849 0.00948757609807882 6.68520636570314e-16)
(0.167973404340464 0.0105730571433847 2.23975144146816e-16)
(0.178798910373561 0.0117333393481469 1.73698153395325e-16)
(0.19267190377112 0.0126134740221984 4.60568195406919e-16)
(0.209808685164753 0.0134632590084507 -4.79995004432909e-16)
(0.230723592039013 0.0145327741794019 -2.20435658169882e-16)
(0.255386706362932 0.0148033882616027 -1.46093165645766e-16)
(0.283519004828144 0.0147747783197144 8.2280288506448e-18)
(0.315117032524045 0.0146611814663794 -3.41998425827043e-17)
(0.350141760358977 0.0141160091628783 1.9871603017909e-16)
(0.38820632242066 0.0131272221304231 -1.022491311675e-16)
(0.428990941468577 0.0119135441016542 -3.60680059031635e-16)
(0.472211211775684 0.0103856737238707 2.12333319940625e-17)
(0.517617391003244 0.00861277799023466 2.09087113195208e-17)
(0.564980222499575 0.00674800854974775 3.4315671542436e-16)
(0.614317625049355 0.00468335724256318 -5.56015408334844e-16)
(0.665193987280802 0.0025666463771506 -1.37097723559529e-16)
(0.718844115747628 0.000566478927596975 5.23236247091574e-17)
(0.77388064240179 -0.00132560578313907 4.20140639247512e-16)
(0.835245503625736 -0.00330404235477928 1.62036055549859e-16)
(0.894286265941663 -0.00462510134103611 6.65677604128458e-18)
(0.974208575408331 -0.00578759073215427 5.56479756548549e-17)
(1.00661930535675 6.2733739354731e-05 2.24808705282616e-16)
(0.996438339062927 -0.000174619815377531 -7.22658922115879e-17)
(1.00200537273884 4.88319439664933e-05 -1.93159970192813e-16)
(0.998857572062701 8.3091123059976e-05 -3.16413215715496e-17)
(0.998241809053314 0.000210791714237542 -4.34321722175953e-18)
(0.995509529089763 0.000197831832383156 -2.25312902961268e-17)
(0.993034163818022 0.000216206199747655 -4.24274012820184e-17)
(0.989917582918218 0.000239683702350336 -4.5509256564812e-18)
(0.986666692672459 0.000222655341916637 4.62483676461508e-17)
(0.983206099247963 0.000211153838771062 -3.85664703723457e-17)
(0.979705146166821 0.000195011238767517 -1.21517107080709e-17)
(0.976187291192808 0.000172243821383508 -4.79919932071265e-18)
(0.972929173339757 0.000198203274042033 7.24054822721316e-18)
(0.97000413380384 0.000444370155829241 3.50122288486691e-18)
(-0.142482825355283 0.00706197608723759 3.16764994690029e-18)
(-0.13934967449038 0.00750880960994127 2.12403657300974e-19)
(-0.139074482372561 0.00855581963344355 -8.71666160364208e-18)
(-0.13915855307888 0.00928265934061915 -1.47422595506362e-17)
(-0.139540797650989 0.00966013064838747 -1.7444790984971e-17)
(-0.140068154707398 0.00983238995171722 -2.25252865547158e-18)
(-0.14064973798784 0.00990911531109294 1.05937318760405e-17)
(-0.141251737335787 0.00994712468985974 3.47340121898395e-17)
(-0.141864718924331 0.00997220622475229 4.05599701067996e-17)
(-0.142485791906892 0.00999437124198304 5.92638264881359e-17)
(-0.143114057738339 0.010016305949944 6.04344107192612e-17)
(-0.14375028081265 0.0100379986590871 -6.04544758351044e-18)
(-0.144395567267605 0.0100598637454602 -1.46627480765132e-17)
(-0.145050028042301 0.0100822582273966 1.50465876239918e-16)
(-0.145713736273065 0.0101047111447761 1.45245270502539e-16)
(-0.146387631825257 0.0101269096503812 1.72151128460303e-16)
(-0.147072493107504 0.0101493128914227 5.59164447399166e-17)
(-0.147768243821029 0.0101722439062978 5.13385333368366e-17)
(-0.148475212616094 0.0101952555661047 -9.59722266039335e-17)
(-0.149194302649618 0.0102189038085131 -1.59647302199255e-16)
(-0.149925912245922 0.0102433119870981 -6.87032092438106e-17)
(-0.15066976076881 0.0102679568696696 -3.13188092729788e-16)
(-0.151426632575901 0.0102921685892008 -2.97224410848826e-17)
(-0.152197900535376 0.0103168444772962 1.03619743732915e-16)
(-0.152983603993204 0.0103426265645113 -6.69401245407018e-17)
(-0.153783432583443 0.010369240983549 1.6169967590665e-16)
(-0.154598299020596 0.0103958313845619 8.01616088756587e-18)
(-0.155429439003517 0.0104230751209342 5.15400269955293e-17)
(-0.156276560822575 0.0104518623337699 4.12142173062384e-17)
(-0.157139403703912 0.0104813180631402 -2.73667530559647e-17)
(-0.158019409279598 0.0105107996414451 -7.60854777243341e-17)
(-0.1589176726897 0.0105414250847416 7.13514088249341e-17)
(-0.159833034121155 0.0105743510183016 1.36752373099756e-16)
(-0.160765342144545 0.0106075424303037 -2.65748729571113e-18)
(-0.161716394740786 0.0106418424667339 1.1888873721733e-16)
(-0.162686420624279 0.0106786999534876 -5.19828364848493e-17)
(-0.163672727788918 0.0107182813319456 -1.42156489333652e-16)
(-0.16467545526362 0.010757440543437 -1.39842733498345e-16)
(-0.165697038553108 0.0107982519478683 6.69027301589983e-17)
(-0.166735096509602 0.0108437580899415 -1.98112528248566e-16)
(-0.167785012870502 0.0108929198183805 -1.71639218369293e-16)
(-0.168847290664642 0.0109418796572052 6.59526747952207e-17)
(-0.169923263553698 0.0109943666139454 6.82937031293161e-17)
(-0.171004506771943 0.011056250484539 -9.78184887707614e-17)
(-0.172083133154274 0.0111203327582997 -8.74420288833049e-17)
(-0.17316125972378 0.0111842458939839 -2.70407722940955e-16)
(-0.17423656971923 0.0112561762116805 -1.86491202541766e-16)
(-0.175285813325171 0.0113463876681939 1.98754235518548e-16)
(-0.176297574563067 0.0114322819520189 7.63753359265451e-17)
(-0.177276725382889 0.0115206544273775 -1.85819930088506e-16)
(-0.178203723357776 0.0116284645236658 -3.62293148930804e-17)
(-0.179036688151291 0.0117567957929716 1.71869314765995e-17)
(-0.179760965601254 0.0118768424643663 5.54566496074492e-17)
(-0.180373343148713 0.0120056501788375 -3.43468315413735e-16)
(-0.180813777211248 0.0121752165378705 -5.42736635267705e-17)
(-0.18101239102829 0.0123538972621012 -6.49481933921037e-18)
(-0.180955421046779 0.0125188959729605 3.5877855482866e-16)
(-0.180615310260204 0.0127092179211518 4.10474336032055e-16)
(-0.179827008590332 0.0129835975479059 5.58454180156642e-17)
(-0.178486765803985 0.0132197212915309 1.09089843876131e-17)
(-0.176589178298583 0.0134467264622708 1.96082647553751e-16)
(-0.173992544604852 0.0137543652590062 4.97823349336876e-16)
(-0.170301131006346 0.0142121008313588 -6.06913403242428e-17)
(-0.165168632271519 0.0146691049330891 -2.39669768772647e-16)
(-0.158329560519189 0.0152285677110584 7.71788257222018e-16)
(-0.148818078789941 0.0162024643129857 2.04907993084434e-16)
(-0.135561213254714 0.0172185201990809 2.76275360121795e-16)
(-0.118387022711881 0.017932610497686 5.91757845734933e-16)
(-0.0971553220367885 0.0185855872308791 -5.57599960329292e-16)
(-0.0708423683615159 0.0193056978062048 -1.47747163829463e-16)
(-0.0395017473443857 0.0192630423390679 -2.45191436760147e-16)
(-0.00388916448523279 0.0188392034129438 2.29577366855204e-17)
(0.0362427172871263 0.0182449395450041 -6.53040402706168e-17)
(0.0808924185425333 0.0171782807906295 3.44184869872183e-16)
(0.129391056273087 0.0156327574546144 -1.07691362169083e-16)
(0.181355587767963 0.0137953072400426 -4.35777808970864e-16)
(0.236462736122257 0.0116130682646497 4.21321558804833e-17)
(0.294281083824746 0.0091590051671134 2.53743050100586e-17)
(0.35457645816336 0.00656332552305688 4.14987148618973e-16)
(0.417377625805746 0.00375005894123794 -4.72122877494592e-16)
(0.481951328900389 0.000868552198871622 -6.77470730635929e-17)
(0.549924832195783 -0.00193769246403856 -6.6257423679204e-17)
(0.619687004231458 -0.00467323105675747 4.15367776383028e-16)
(0.697199417209939 -0.0075574771450177 1.29998331227476e-16)
(0.771586282147039 -0.00977757238869716 7.63953313868295e-18)
(0.87274212093479 -0.0110571529601931 8.4165983893987e-17)
(0.913691185661219 -0.000210285757996503 2.19444721451133e-16)
(0.900057948829781 -0.000255339187266184 -1.2200738627154e-16)
(0.906570413611658 -4.67043825491477e-05 -2.07073713608373e-16)
(0.902104470421799 1.42009329628514e-05 -7.02639637374364e-17)
(0.900961686376752 0.000115406720614508 -6.55467073879039e-18)
(0.897242694110177 0.000139500441609787 -3.85369738973688e-17)
(0.893886208020999 0.000164708375349207 -6.85351424208209e-17)
(0.88979358176503 0.00018256793502393 -7.38520320433915e-18)
(0.885577258383126 0.000179967072527253 4.95155888161625e-17)
(0.881107920655861 0.000171211883596654 -6.79679334047027e-17)
(0.876609229067456 0.000157763577352528 -1.05526812652352e-17)
(0.872099328906073 0.000140240068585242 -8.48420664637869e-18)
(0.867946865818208 0.00014210740792028 9.73327419888605e-18)
(0.864369608839454 0.00015588008351507 6.66104114763189e-18)
(-0.289890689584962 0.00955608079837508 4.94342610504664e-18)
(-0.289225209942362 0.0106254356369493 -1.05579359791279e-18)
(-0.289938638174679 0.0122497311428964 -8.0387805662315e-18)
(-0.29065030359274 0.0132364971264841 -1.18724142511017e-17)
(-0.291351897686396 0.0137093048337872 -1.09421221159576e-17)
(-0.292046305465116 0.0139157537272601 2.34247083621333e-18)
(-0.292736839561983 0.0140060003139813 5.7427810812211e-18)
(-0.293429337872588 0.0140512949212165 2.19926859605949e-17)
(-0.294128025933741 0.0140819027924936 4.10262185370464e-17)
(-0.294834391110933 0.0141090818178512 8.51137805541676e-17)
(-0.295548752602427 0.0141359844275138 8.31482133129073e-17)
(-0.296271678509936 0.0141629703257457 4.59990756304716e-17)
(-0.297003847987697 0.0141902752003193 -2.47079432795709e-17)
(-0.297745462659833 0.0142180805270512 5.35188564691251e-17)
(-0.298496744001194 0.0142461003063592 1.79938632869039e-17)
(-0.299258406583781 0.0142741384160432 1.46690946100428e-16)
(-0.300031103760043 0.0143024764071914 2.9848857144288e-17)
(-0.300815037282928 0.0143313106649432 -7.46088516354023e-17)
(-0.301610614152516 0.0143604326018824 -1.50755996388318e-16)
(-0.3024184088768 0.0143901551414582 -1.27646243385468e-16)
(-0.303238647034416 0.014420577065262 -1.14813683349778e-16)
(-0.304071483709048 0.0144513424489042 -2.85631710053917e-16)
(-0.304917787889173 0.0144820922055291 -2.60857810102074e-16)
(-0.30577858167447 0.0145133602874763 1.13150711351779e-17)
(-0.306654044842786 0.014545592661918 3.20315964338359e-17)
(-0.307544148952198 0.0145786169302131 3.07063013072551e-16)
(-0.308449646954609 0.0146119292496792 7.7293488350093e-17)
(-0.309371522701069 0.0146459491300759 5.05371600180708e-17)
(-0.31030975921998 0.0146812404913522 2.84015157319205e-17)
(-0.31126433258797 0.0147172857902164 -6.98730413323558e-17)
(-0.312236364460134 0.0147536698037544 -3.08087810528053e-17)
(-0.313226799054701 0.014791144870765 4.46856702432863e-17)
(-0.314234980847801 0.0148304034536688 8.3853237396822e-17)
(-0.315260962157765 0.0148702505949995 2.96399596724978e-17)
(-0.316305972499069 0.0149111697637784 1.08346945385477e-16)
(-0.317369900452092 0.0149541693253856 2.15220406329518e-16)
(-0.318450910562517 0.0149992419087949 -6.78108919905759e-17)
(-0.319549322987864 0.015044480571194 -9.02513177959644e-17)
(-0.320666868236264 0.015091165520797 -3.01576473878487e-18)
(-0.321801514930096 0.0151413361652764 -1.66708489173061e-16)
(-0.322949335754315 0.0151942674078326 -2.5733325155337e-16)
(-0.324110320416524 0.0152474435129103 1.3458636839864e-16)
(-0.325285304412763 0.0153033564683295 6.19495346430549e-17)
(-0.326466772323171 0.0153657046151648 -1.30517864837053e-16)
(-0.327647380074916 0.0154298554046035 -1.75777271909355e-16)
(-0.328828061465815 0.0154939601141826 -3.0453901136693e-16)
(-0.330006470067475 0.0155638172764303 -1.10497364572374e-16)
(-0.331161040283533 0.0156455247028804 2.01602469823343e-16)
(-0.33228001262125 0.0157244885767853 1.60347018621143e-16)
(-0.333367047560593 0.0158045613257968 -3.27878736108645e-16)
(-0.33440354770057 0.0158974797517263 1.6292152262296e-16)
(-0.335348486938726 0.0160030972133963 3.46520691076815e-17)
(-0.336185418815911 0.0161020000309641 1.13720156009565e-16)
(-0.336912202687587 0.01620546475349 -2.07000433236772e-16)
(-0.337469768640124 0.0163341809720668 -4.84217256825867e-17)
(-0.3377877873099 0.016466394829992 5.53195066161506e-18)
(-0.337850096113913 0.0165851163536917 2.15422046333595e-16)
(-0.337634321921367 0.0167184149999054 3.06372486584061e-16)
(-0.336972535481765 0.016901156698442 5.29853645138377e-17)
(-0.335756554586062 0.0170518526631759 -4.82658266230228e-18)
(-0.333987057433075 0.0171863186651674 2.54956263535185e-16)
(-0.3315290742035 0.0173681492233801 5.92583432058445e-16)
(-0.327988899994453 0.0176362021131366 -3.54662106470847e-16)
(-0.323025660976531 0.0178842900759043 -3.41198441739719e-16)
(-0.316438292246107 0.0181840324615114 4.64703506519426e-16)
(-0.307264827897969 0.018728838323699 1.66096477391572e-16)
(-0.294356384207245 0.0192519106014203 3.75872684067216e-16)
(-0.27753055029659 0.0195054738896488 7.71635419840831e-16)
(-0.25670468022886 0.0196598804383214 -4.79110216266445e-16)
(-0.23071656427544 0.0197618840756829 -5.29009365246032e-17)
(-0.199612098651129 0.01926900211713 -3.5256471027843e-16)
(-0.164306701707281 0.0184330827228768 5.0689220155035e-17)
(-0.124460877012178 0.0174017390261213 -1.08526226650744e-16)
(-0.0800548631586436 0.0159693844501097 3.23289821168886e-16)
(-0.0318261598226508 0.0141423517953464 -1.1562794437315e-16)
(0.0198490984406832 0.0120503451277166 -3.51387656312889e-16)
(0.074662872708515 0.00966792417639958 7.277068221015e-17)
(0.132133695260483 0.00705472799965609 2.18777371456332e-17)
(0.192047132412168 0.00429785717632185 3.33380404998979e-16)
(0.254434435925518 0.00135436556243261 -4.19636600508641e-16)
(0.318477085832627 -0.00166748947667623 7.5715633206212e-18)
(0.385817007884518 -0.00467342664036188 -4.1776489557654e-17)
(0.454898430705366 -0.00769160418300986 4.2243949103212e-16)
(0.531526472569369 -0.0108579260929396 9.6084129010448e-17)
(0.604904627237083 -0.0136144095468669 6.88864874196287e-18)
(0.705504945046012 -0.0146876097478491 -1.59244480072577e-17)
(0.746273671776466 -0.000391169530133086 2.17305282189658e-16)
(0.732069362920583 -0.000142447178993837 -1.15918181646749e-16)
(0.738296157944914 -7.81810480441435e-05 -1.09628276004333e-16)
(0.733665237792356 6.51391863469757e-06 -4.97156149281659e-17)
(0.732387472995331 5.20028064236686e-05 -6.62959907982438e-18)
(0.728607027160065 8.31411075859479e-05 -5.6818275326725e-17)
(0.725206781325536 9.81263692546199e-05 -9.15164455094624e-17)
(0.721112038149662 0.00010975772870942 -9.85532363051291e-18)
(0.716915655545469 0.000109583440076631 5.35907578960532e-17)
(0.712473803832406 0.000103620828965561 -4.72631288450562e-17)
(0.708011179946985 9.41928123200841e-05 -7.73271525515151e-18)
(0.703537800515425 8.1318284368522e-05 -1.27212729002341e-17)
(0.69941553678276 7.24276558522695e-05 5.72180991667503e-18)
(0.695895343918791 4.20746252710124e-05 6.51676182874041e-18)
(-0.285001702599441 0.00941722764598943 8.5850558153428e-18)
(-0.287811843957643 0.0108909767126532 3.79209989909865e-18)
(-0.289579035988582 0.0124052420165638 -6.88800185105894e-18)
(-0.290788513605978 0.0132287958357551 -8.82708857536872e-18)
(-0.291628557884377 0.0135933283856916 -8.22954754718562e-18)
(-0.292305315627968 0.0137455315355978 1.36751703456313e-17)
(-0.292924146228925 0.0138119719022512 -2.85138633109907e-18)
(-0.293528254536734 0.013847134856555 9.93387495944272e-18)
(-0.294133376547309 0.0138726313605703 2.36068629114852e-17)
(-0.294744272130482 0.013896057544198 4.12616004576324e-17)
(-0.295361991076809 0.0139194756851979 3.70210852771628e-17)
(-0.295986853769123 0.0139431472510968 3.21447900153387e-17)
(-0.296619147184576 0.0139671604882915 -1.43633301636168e-18)
(-0.297259020313024 0.0139915822794403 1.90525593430214e-17)
(-0.297906684102974 0.0140162760122361 1.11508618331794e-17)
(-0.298562596971045 0.0140411482210842 4.24839529734085e-17)
(-0.299227219987152 0.0140663351057707 1.14422213239493e-17)
(-0.299900823004583 0.0140919375194493 -4.23808268733129e-17)
(-0.300583746545272 0.0141178691493615 -8.55834880714668e-17)
(-0.301276303176735 0.0141442732361681 -1.00215316409572e-16)
(-0.301978619826336 0.0141712059207464 -1.04557915995079e-16)
(-0.302690968641973 0.0141985077711259 -1.75569431780102e-16)
(-0.303414050063669 0.0142260232756261 -2.8049574069283e-16)
(-0.304148541624316 0.0142540060175982 -2.58906793021309e-17)
(-0.304894638722254 0.0142826789941126 3.54795152244114e-17)
(-0.305652426748757 0.0143119679492292 2.79426127827585e-16)
(-0.306422422164725 0.0143416421272846 8.09838038029763e-17)
(-0.307205294392971 0.0143719027212295 4.25956923639579e-17)
(-0.308001141050594 0.0144030281723592 3.41942839909634e-17)
(-0.308810032678604 0.0144347841663738 -1.45136622323467e-16)
(-0.309632709249014 0.0144669717059342 7.1833963216204e-18)
(-0.310469854744179 0.0144999567569936 2.72638579118613e-17)
(-0.311321166372567 0.0145340789479515 4.63981970416914e-17)
(-0.312186751894501 0.0145687705248827 3.15649942554513e-17)
(-0.313067332345625 0.0146042562139266 9.15677855990803e-17)
(-0.313962719182516 0.0146410190259771 7.04330253037995e-17)
(-0.314871796285844 0.0146790484600377 -3.422391116769e-17)
(-0.315794865686863 0.0147174284617602 -5.2024496792952e-17)
(-0.316733032118975 0.0147567615769817 -2.32373795319061e-17)
(-0.317684869584562 0.0147980141890964 -1.38524890397197e-16)
(-0.31864756821993 0.0148408175805414 -1.85265043972414e-16)
(-0.319620891632517 0.0148839052161415 2.7271182853139e-16)
(-0.320605356010298 0.0149284425563943 7.19819288741709e-17)
(-0.321595482176095 0.0149761724906868 -1.83519745660488e-16)
(-0.322585702314142 0.0150247713699115 -2.51534620856651e-16)
(-0.323576260037706 0.0150732368295769 -1.77467911558599e-16)
(-0.324565506285695 0.0151242755622417 -5.26146465190886e-17)
(-0.32553724026834 0.0151807315806912 2.38676503427673e-16)
(-0.326482019927886 0.0152352390210399 9.13487124263226e-17)
(-0.327402370134963 0.0152895549266101 -2.14653425100187e-16)
(-0.32828442071049 0.0153491295708044 6.76003468646202e-17)
(-0.329096340769993 0.0154135072329422 3.03626126320909e-17)
(-0.32982441232556 0.0154727223974092 1.89720172796356e-16)
(-0.330467923688318 0.0155320181975034 -1.05183054747383e-16)
(-0.330981392925968 0.0156008670465824 -3.2533000280453e-17)
(-0.33130936946975 0.0156677226821389 3.46070776558908e-18)
(-0.33143822369186 0.015723592981869 7.72652249797234e-17)
(-0.33135409509452 0.0157814518737557 2.24254570178501e-16)
(-0.330924394046599 0.0158568022770434 3.69316176445871e-17)
(-0.330062102012224 0.0159075662852266 -3.97323090457892e-17)
(-0.328771335540761 0.0159410245768349 3.06073259584001e-16)
(-0.326952199196279 0.0159854586416835 4.81314411469567e-16)
(-0.324298692816669 0.0160548600618011 -4.25430309259873e-16)
(-0.3205465445525 0.0160907691988315 -2.10331037852914e-16)
(-0.315572847592728 0.0161233164685108 2.11672686815748e-16)
(-0.308632171813388 0.0162357277349952 1.09176072232578e-16)
(-0.298791039052366 0.0162816295977714 4.7580372227822e-16)
(-0.285901352207514 0.0161355335776235 5.71564314050259e-16)
(-0.269931652232613 0.015881026601054 -2.52376978637377e-16)
(-0.249911347799848 0.0155278538530918 7.1344078082737e-17)
(-0.225867102528073 0.0148071545673837 -2.78645144968361e-16)
(-0.198588429055372 0.013860231866151 9.56440686317654e-17)
(-0.167772851950372 0.0127543333961276 -1.65576389229429e-16)
(-0.13339239993409 0.0113869227974376 3.22974167668108e-16)
(-0.0960536178780069 0.00977365646187365 -1.29661434777039e-16)
(-0.0560490301955998 0.00798405006138088 -1.06160171311583e-16)
(-0.0136126774049147 0.006008328118719 -5.73155380726437e-17)