/*--------------------------------*- C++ -*----------------------------------*\
  =========                 |
  \\      /  F ield         | OpenFOAM: The Open Source CFD Toolbox
   \\    /   O peration     | Website:  https://openfoam.org
    \\  /    A nd           | Version:  8
     \\/     M anipulation  |
\*---------------------------------------------------------------------------*/
FoamFile
{
    version     2.0;
    format      ascii;
    class       volVectorField;
    location    "0.0155000";
    object      cellDisplacement;
}
// * * * * * * * * * * * * * * * * * * * * * * * * * * * * * * * * * * * * * //

dimensions      [0 1 0 0 0 0 0];

internalField   nonuniform List<vector> 
600
(
(7.72946305889393e-29 -4.37661333500656e-07 -2.64077088740522e-14)
(7.66645110663016e-29 -4.39655198360452e-07 -2.47952098614904e-14)
(7.52380851971796e-29 -4.43499040532254e-07 -3.02628576445558e-15)
(7.40333598423972e-29 -4.48157399333998e-07 -3.09813980060744e-14)
(7.2679013400126e-29 -4.53345594373135e-07 4.1163576692288e-14)
(7.15492884690224e-29 -4.59124781480456e-07 1.11487629981479e-13)
(7.02777493158693e-29 -4.65448649096482e-07 6.48159988246101e-14)
(6.920289598472e-29 -4.7216532399766e-07 2.29734534282329e-14)
(6.79763761382388e-29 -4.79302788269609e-07 4.95842601209915e-14)
(6.69465665884954e-29 -4.8688433576408e-07 4.27670452759735e-14)
(6.57634107372742e-29 -4.94818593703996e-07 -7.73896434666281e-15)
(6.47604742924976e-29 -5.03049490852532e-07 -8.5638343311659e-16)
(6.36050224918171e-29 -5.11663446313453e-07 3.95280442313503e-14)
(6.26284351083524e-29 -5.20645637680775e-07 -2.89675817688646e-14)
(6.14971989205691e-29 -5.29899328119266e-07 -6.54978193876649e-14)
(6.05369876170557e-29 -5.39469033561629e-07 9.52318552760536e-15)
(5.94251065190964e-29 -5.49382600491052e-07 5.88761873218972e-15)
(5.8480009127899e-29 -5.59592116803226e-07 -5.85980569282185e-14)
(5.73844511683106e-29 -5.70100984385012e-07 -5.43156976644904e-14)
(5.64523663438037e-29 -5.80965265744806e-07 3.6532071925801e-14)
(5.5370119813056e-29 -5.92154350975387e-07 2.26924607704137e-14)
(5.44467339443901e-29 -6.03615627311027e-07 7.09019719245485e-15)
(5.33803756943823e-29 -6.15450540517575e-07 -2.43672129508139e-15)
(5.2470354203995e-29 -6.27672802204792e-07 -1.62559303962815e-14)
(5.14102438928538e-29 -6.40200180788968e-07 5.59254505552874e-14)
(5.0508174890732e-29 -6.53116580182307e-07 1.08909092931616e-13)
(4.94685578393849e-29 -6.66476031653475e-07 5.69096448891666e-14)
(4.85757068632596e-29 -6.80210930617309e-07 -1.26429846132388e-15)
(4.75424215974735e-29 -6.94317605975467e-07 -8.5727806063707e-15)
(4.66621357516742e-29 -7.08943194247943e-07 -4.82105979290737e-15)
(4.56465058973565e-29 -7.24079737196783e-07 3.44824254582596e-15)
(4.47730877243641e-29 -7.3960804990278e-07 -9.34035768944277e-16)
(4.37665450255164e-29 -7.55712934764132e-07 -3.29813856342015e-14)
(4.29065503023296e-29 -7.72442943347149e-07 -3.25435583491425e-14)
(4.19156577675684e-29 -7.89658681895846e-07 -3.69949014826103e-14)
(4.10650448531515e-29 -8.07489230569003e-07 -4.29486317435381e-14)
(4.0088175310946e-29 -8.26071571196701e-07 2.45942034685552e-15)
(3.92489688282418e-29 -8.45325409074042e-07 -5.72595451097347e-14)
(3.82867183657998e-29 -8.65209850988032e-07 -3.390481726103e-14)
(3.74612863069038e-29 -8.85987678251775e-07 6.57882816515262e-14)
(3.65145745167144e-29 -9.07686587473443e-07 5.44324717035241e-14)
(3.56983291364002e-29 -9.30125275984059e-07 -5.14216950803125e-14)
(3.47696683876535e-29 -9.53605771385341e-07 -1.02271769785898e-13)
(3.39713326422404e-29 -9.78268518067441e-07 1.05658306874532e-14)
(3.30542600835421e-29 -1.00391785223622e-06 1.07716733631036e-14)
(3.22659450171508e-29 -1.03070883296223e-06 -2.67858369207373e-14)
(3.13729114802101e-29 -1.05895543647653e-06 -2.80664840780648e-14)
(3.05997538048619e-29 -1.08859559361533e-06 9.52839931629142e-15)
(2.97174174126679e-29 -1.11952135782232e-06 2.49410131802811e-14)
(2.89600021061421e-29 -1.15227070542957e-06 2.6809070669105e-14)
(2.81018892480275e-29 -1.18689431440039e-06 4.1589642429462e-14)
(2.73534530747275e-29 -1.22302439662456e-06 -1.91574785618622e-14)
(2.65090634678024e-29 -1.26147034900321e-06 -6.68747889393715e-14)
(2.57819105184086e-29 -1.30253745743226e-06 -4.67886617619383e-14)
(2.4953256581917e-29 -1.34567651367752e-06 7.20837216224493e-14)
(2.42312599361546e-29 -1.39120711244943e-06 1.08893685067597e-13)
(2.34197120890497e-29 -1.43992877665197e-06 1.10181297571807e-13)
(2.27125063383805e-29 -1.4917591244477e-06 3.83287090005591e-14)
(2.19110812719349e-29 -1.54630796761694e-06 -3.85431448715336e-14)
(2.12122480305476e-29 -1.60485557862141e-06 -1.80482623787969e-14)
(2.04246334716604e-29 -1.66768589488702e-06 -5.6624155208675e-14)
(1.9729280920697e-29 -1.73392661893542e-06 -4.42820716313533e-14)
(1.8802339356883e-29 -1.80473475405521e-06 -6.35959391050722e-14)
(1.8090299914364e-29 -1.88095652527493e-06 -8.16169360517987e-14)
(1.73496168476121e-29 -1.96190124603669e-06 2.47240823284703e-14)
(1.66336284348055e-29 -2.04777266078014e-06 4.26600395165137e-14)
(1.59003784468964e-29 -2.14015589406044e-06 -6.47828072874767e-16)
(1.51855403706235e-29 -2.23895221742477e-06 -1.5730645282109e-14)
(1.44415444533718e-29 -2.34318608603071e-06 1.10815101708162e-14)
(1.3719450683819e-29 -2.4550190896421e-06 6.23759796568595e-14)
(1.29714983029024e-29 -2.57470736409903e-06 1.22877269404044e-14)
(1.22350161416418e-29 -2.70044605523959e-06 -1.22972706855506e-13)
(1.14743540925392e-29 -2.83386096365343e-06 -1.01150853691747e-13)
(1.07327627296988e-29 -2.97600636058121e-06 3.2267120320575e-14)
(9.96139688586904e-30 -3.12538751280153e-06 -3.3099264459153e-14)
(9.20585258120531e-30 -3.28167908557899e-06 -2.85313638999372e-14)
(8.42327460436476e-30 -3.44616725482549e-06 1.62243728266984e-16)
(7.6601626757797e-30 -3.61754160645903e-06 -2.03391425427442e-14)
(6.87502663754939e-30 -3.79366997272842e-06 8.80549359280306e-14)
(6.10828136673129e-30 -3.97096466883998e-06 6.93730101621903e-14)
(5.32221896999609e-30 -4.1400331014349e-06 -2.82520990694191e-14)
(4.57614075493233e-30 -4.29234549443245e-06 -1.24949479621274e-14)
(3.8096730488001e-30 -4.40927090416092e-06 2.99857356156586e-14)
(3.07677023808239e-30 -4.46569773155615e-06 -3.221980201889e-14)
(2.37312228340807e-30 -4.45561542039438e-06 -5.26171224916074e-14)
(1.72864932920146e-30 -4.37020832771709e-06 -4.95255497602863e-15)
(1.28036886231335e-30 -4.21090123860784e-06 8.53460835251549e-14)
(1.16509380392125e-30 -4.0089020205885e-06 1.21151311769053e-13)
(1.04621201981089e-30 -3.7854172180747e-06 3.61813368942122e-14)
(9.31977918065316e-31 -3.54720289535183e-06 -3.09078877988178e-14)
(8.23698883107144e-31 -3.30539678984503e-06 -1.94431939307313e-14)
(7.27999771958029e-31 -3.06797948421939e-06 4.77545583407012e-14)
(6.40440893170038e-31 -2.84049209230358e-06 5.57384328349368e-14)
(5.68641201378791e-31 -2.63006621439079e-06 1.92507743892683e-14)
(5.04374948370736e-31 -2.43764969488047e-06 8.3192691697202e-15)
(4.51645588553078e-31 -2.26518307500394e-06 -4.41390531489161e-14)
(4.08833011825019e-31 -2.11883934022403e-06 -5.56469539922478e-16)
(3.74773444873338e-31 -1.99599984327367e-06 5.56794677625546e-14)
(3.46420267267156e-31 -1.89127809046904e-06 3.03505177460615e-14)
(3.2317901186265e-31 -1.80579923767407e-06 3.8851055984087e-15)
(2.14889112097221e-28 -1.07831680047161e-06 -7.71164973522051e-14)
(2.13133428475912e-28 -1.0793675095218e-06 -7.26100954854008e-14)
(2.09069849598187e-28 -1.08198714177745e-06 -8.70824920880042e-15)
(2.05436693630543e-28 -1.0852616107235e-06 -9.10074334573226e-14)
(2.01525592309006e-28 -1.08896337197568e-06 1.19402109417244e-13)
(1.98055588637805e-28 -1.09314218928249e-06 3.26046925266519e-13)
(1.94322267287224e-28 -1.09776088985932e-06 1.90150647048368e-13)
(1.90978442967734e-28 -1.10269722100541e-06 6.72042094022114e-14)
(1.87353209697071e-28 -1.10797409159865e-06 1.45046354341764e-13)
(1.8411787127411e-28 -1.11361045314739e-06 1.25638324658988e-13)
(1.80598455249656e-28 -1.11953269710306e-06 -2.247328352067e-14)
(1.77438426408729e-28 -1.12569579957709e-06 -2.8560105285961e-15)
(1.73995611389415e-28 -1.13216976002191e-06 1.1615886703032e-13)
(1.70910025480811e-28 -1.13894268840921e-06 -8.42982739250427e-14)
(1.67538185789404e-28 -1.14593652488618e-06 -1.92429960832841e-13)
(1.64509135696642e-28 -1.15318756657925e-06 2.75950071939205e-14)
(1.61198878399455e-28 -1.16071843523539e-06 1.77670553970847e-14)
(1.58223977389802e-28 -1.16849040333959e-06 -1.71684737578674e-13)
(1.54970659261094e-28 -1.17650645082307e-06 -1.60125310964047e-13)
(1.52046521804417e-28 -1.18481214254618e-06 1.06935104910109e-13)
(1.4884405060659e-28 -1.19338278118747e-06 6.68315557859179e-14)
(1.45962744239322e-28 -1.20217581565045e-06 2.09744172787421e-14)
(1.42816901154475e-28 -1.21127372986016e-06 -7.0188168106462e-15)
(1.39987318460367e-28 -1.22068775272329e-06 -4.82224973660104e-14)
(1.36879899489525e-28 -1.2303511483241e-06 1.63760101276955e-13)
(1.34092418680534e-28 -1.24033227157934e-06 3.20477847915749e-13)
(1.31050566635651e-28 -1.25067514417353e-06 1.68100572246058e-13)
(1.2830766416558e-28 -1.26132493456017e-06 -3.39486169975621e-15)
(1.25304933047625e-28 -1.27227876626231e-06 -2.52308534725752e-14)
(1.22613189896905e-28 -1.28365639228799e-06 -1.4270819956465e-14)
(1.19671501114799e-28 -1.2954514957176e-06 1.01475729065408e-14)
(1.17020597499121e-28 -1.30756707109854e-06 -2.52844307719456e-15)
(1.14123646729113e-28 -1.3201538081861e-06 -9.70780159996258e-14)
(1.11526031812975e-28 -1.33325143721095e-06 -9.59394083868301e-14)
(1.08687062324238e-28 -1.34674630326994e-06 -1.09066281004494e-13)
(1.06135567611714e-28 -1.36074378951303e-06 -1.26973342702685e-13)
(1.03351219362406e-28 -1.37535573343479e-06 7.40585922513788e-15)
(1.00849892831336e-28 -1.39051677520751e-06 -1.68910458942078e-13)
(9.81222277373216e-29 -1.40619342723839e-06 -1.00827552681093e-13)
(9.56758896365682e-29 -1.42260038046164e-06 1.9394866671823e-13)
(9.30063273303834e-29 -1.43976051497291e-06 1.61514270978654e-13)
(9.06066680997033e-29 -1.45752525171411e-06 -1.51215277416858e-13)
(8.80008544084972e-29 -1.47614168587539e-06 -3.02802443365426e-13)
(8.56645232723012e-29 -1.49572491931682e-06 3.07276150076896e-14)
(8.3110312871612e-29 -1.51611456552819e-06 3.20758857528037e-14)
(8.08228849505489e-29 -1.53743744800379e-06 -7.90921580034377e-14)
(7.83442364031486e-29 -1.55995072951191e-06 -8.32855916946313e-14)
(7.61157371880201e-29 -1.58360370074031e-06 2.79608335559651e-14)
(7.36877693961951e-29 -1.6083068587788e-06 7.37984795129531e-14)
(7.1519485750352e-29 -1.63450138652074e-06 7.93489847142859e-14)
(6.91681070616611e-29 -1.6622296806797e-06 1.2351809481619e-13)
(6.70480028789128e-29 -1.69118795892452e-06 -5.62757796576407e-14)
(6.47534806229704e-29 -1.72203960971559e-06 -1.98216092419376e-13)
(6.27043967543405e-29 -1.75503611639085e-06 -1.39496193157695e-13)
(6.04715500041638e-29 -1.78972604785391e-06 2.13183899139327e-13)
(5.84638853074498e-29 -1.8263707526446e-06 3.23060402299184e-13)
(5.62943834964387e-29 -1.86562678800101e-06 3.2750057973468e-13)
(5.43461668169982e-29 -1.90742710825138e-06 1.14537085149802e-13)
(5.22282754127926e-29 -1.95144714976974e-06 -1.14267625120821e-13)
(5.03275213597572e-29 -1.99873930285086e-06 -5.35413974580097e-14)
(4.82669390344439e-29 -2.04953947961325e-06 -1.68213671131882e-13)
(4.64051200129208e-29 -2.10312514823739e-06 -1.31639394388643e-13)
(4.41002583452709e-29 -2.16044790044424e-06 -1.88993217759698e-13)
(4.22357046682396e-29 -2.2222054726231e-06 -2.43250829835714e-13)
(4.03317539141771e-29 -2.28782757719302e-06 7.30322881365473e-14)
(3.84916082509086e-29 -2.3574789985103e-06 1.27120273523526e-13)
(3.66322043473098e-29 -2.43246461476837e-06 -1.67045589208032e-15)
(3.48258476917154e-29 -2.51270632835803e-06 -4.69112581460866e-14)
(3.29783824051122e-29 -2.59739395662089e-06 3.26734200436009e-14)
(3.11885264304305e-29 -2.68830620904516e-06 1.85906746804112e-13)
(2.93635681209264e-29 -2.78566418699051e-06 3.74428827330468e-14)
(2.75786489987616e-29 -2.88797499474084e-06 -3.66225584418305e-13)
(2.57592071638168e-29 -2.99657631758599e-06 -3.02393516007212e-13)
(2.39937087754673e-29 -3.1123413279555e-06 9.59831303172945e-14)
(2.21848866817398e-29 -3.23404361255929e-06 -9.852497972618e-14)
(2.04229590783183e-29 -3.3614159917921e-06 -8.53116698502379e-14)
(1.86226445294869e-29 -3.49551561802018e-06 4.49398263250816e-16)
(1.68757038001549e-29 -3.63527982049736e-06 -6.10994771736025e-14)
(1.50989059658049e-29 -3.77895699292041e-06 2.6265262168644e-13)
(1.33774388737595e-29 -3.92361976569774e-06 2.07685768228968e-13)
(1.16319748391728e-29 -4.06161015475761e-06 -8.4059249940006e-14)
(9.96823863123067e-30 -4.18589010172326e-06 -3.753841611007e-14)
(8.30172848673714e-30 -4.28128623103225e-06 8.95274424667413e-14)
(6.71024627412479e-30 -4.32739106791068e-06 -9.58049924735938e-14)
(5.17434888792323e-30 -4.31919398034529e-06 -1.56921159890418e-13)
(3.82084852767799e-30 -4.24955391704865e-06 -1.51420034633259e-14)
(2.86089292217965e-30 -4.11985172156376e-06 2.54447312711757e-13)
(2.62854163478928e-30 -3.95513237588449e-06 3.62091940388034e-13)
(2.37863525125208e-30 -3.77263803503382e-06 1.08436134292989e-13)
(2.14047524151926e-30 -3.57802311194834e-06 -9.23686141169968e-14)
(1.91189625229111e-30 -3.38043730680691e-06 -5.83144112358646e-14)
(1.70483496273312e-30 -3.18632519438788e-06 1.42898699693183e-13)
(1.52118707462746e-30 -3.00028581838786e-06 1.67021950879821e-13)
(1.36483298428728e-30 -2.82822004586809e-06 5.77356877262303e-14)
(1.22506542406413e-30 -2.67080627734184e-06 2.49831254086648e-14)
(1.11301378297987e-30 -2.52962353697044e-06 -1.32352904766163e-13)
(1.01996916223166e-30 -2.40997613574914e-06 -1.73882445899301e-15)
(9.45262644798023e-31 -2.30957595573478e-06 1.66903266856257e-13)
(8.84463885028741e-31 -2.22391811082827e-06 9.10010613081848e-14)
(8.34652643901039e-31 -2.15234600157538e-06 1.16427768603794e-14)
(3.28156356563772e-28 -1.69789961683508e-06 -1.26194066477111e-13)
(3.25517827087596e-28 -1.69827967813619e-06 -1.19437170166106e-13)
(3.19266453837648e-28 -1.69993305198617e-06 -1.38136008607695e-14)
(3.13538780322953e-28 -1.70208977040141e-06 -1.50473122626765e-13)
(3.0747570888358e-28 -1.70457467765096e-06 1.92496024569506e-13)
(3.01956195809829e-28 -1.7074251810808e-06 5.34054679609824e-13)
(2.96119156048839e-28 -1.71061315950019e-06 3.13243623453643e-13)
(2.907667678481e-28 -1.7140454631766e-06 1.10049626877631e-13)
(2.85076978399772e-28 -1.71773936832585e-06 2.37429400253726e-13)
(2.7987254566219e-28 -1.72170947493309e-06 2.07273310435057e-13)
(2.74329345796206e-28 -1.72589975217547e-06 -3.62433644270093e-14)
(2.69236378687466e-28 -1.73027580147626e-06 -5.77860605517127e-15)
(2.63805940975235e-28 -1.73489106083995e-06 1.91531628586788e-13)
(2.58823724238036e-28 -1.73973669360999e-06 -1.36373730828649e-13)
(2.53501704484382e-28 -1.744753157631e-06 -3.16909284423642e-13)
(2.48610991355994e-28 -1.74996811433809e-06 4.42579321907077e-14)
(2.43385684746408e-28 -1.75539904511894e-06 3.06843293646091e-14)
(2.38583905508516e-28 -1.76101649588434e-06 -2.80976715844926e-13)
(2.33452227046073e-28 -1.76682277519012e-06 -2.64989528416168e-13)
(2.28736349549593e-28 -1.77285285472128e-06 1.7460810069741e-13)
(2.23690221239574e-28 -1.77908803688499e-06 1.10302558012517e-13)
(2.19051595735346e-28 -1.7854958341336e-06 3.48828141111422e-14)
(2.14099625107527e-28 -1.79213942404476e-06 -1.1099043861041e-14)
(2.09548687135277e-28 -1.79902770054227e-06 -8.05567447073986e-14)
(2.04669479292378e-28 -1.80610970864237e-06 2.67109183963382e-13)
(2.00196093256535e-28 -1.81343781303588e-06 5.27246115287621e-13)
(1.9542185668993e-28 -1.82104602826837e-06 2.78320396819153e-13)
(1.91029127605426e-28 -1.82889255273085e-06 -4.64399497440186e-15)
(1.86329433305636e-28 -1.83697523717343e-06 -4.14801454248434e-14)
(1.82025346770935e-28 -1.84538608958411e-06 -2.36915432609975e-14)
(1.77426768486133e-28 -1.85412064984467e-06 1.66708097845211e-14)
(1.73200245922076e-28 -1.86310464609158e-06 -3.51333963332699e-15)
(1.68683475826391e-28 -1.87245375026652e-06 -1.5943523580267e-13)
(1.64548978372755e-28 -1.88219894899008e-06 -1.57930799318415e-13)
(1.60130996798521e-28 -1.89225323452733e-06 -1.79496175963439e-13)
(1.56081058807754e-28 -1.90269755939354e-06 -2.09918283940346e-13)
(1.51757219808974e-28 -1.91361828470793e-06 1.26474107470423e-14)
(1.47796902454593e-28 -1.92496562037318e-06 -2.78047887985676e-13)
(1.43571460438804e-28 -1.93671393977072e-06 -1.68163153079477e-13)
(1.39706862377023e-28 -1.94902855108234e-06 3.18757424929739e-13)
(1.35580651329909e-28 -1.96192773896444e-06 2.68208720881293e-13)
(1.31802839358296e-28 -1.97529749972986e-06 -2.47359964630743e-13)
(1.27784142508964e-28 -1.98932804411673e-06 -5.00746781233514e-13)
(1.24112583337084e-28 -2.00410877949143e-06 4.93616955884325e-14)
(1.20187157249491e-28 -2.01951676161187e-06 5.34989286861248e-14)
(1.16606088093792e-28 -2.03564973232022e-06 -1.30122728653967e-13)
(1.12802652239898e-28 -2.05270644437331e-06 -1.38057762304363e-13)
(1.09324074585648e-28 -2.07064873628626e-06 4.55348835150147e-14)
(1.05614140055359e-28 -2.08940790479812e-06 1.21716923155189e-13)
(1.02240007210617e-28 -2.10932440896886e-06 1.30888923056834e-13)
(9.86544264173404e-29 -2.13043231600668e-06 2.04786097350084e-13)
(9.537185940566e-29 -2.15249783949919e-06 -9.17356702930419e-14)
(9.18879428770248e-29 -2.17603280249847e-06 -3.27465162926049e-13)
(8.87230914858347e-29 -2.20123306955573e-06 -2.32402213485247e-13)
(8.53479826745797e-29 -2.22775135614895e-06 3.50909007032187e-13)
(8.22681294873182e-29 -2.25578932818219e-06 5.34070201957551e-13)
(7.90028522812582e-29 -2.28585517417566e-06 5.42770751217232e-13)
(7.60286706339702e-29 -2.31789917497733e-06 1.91198031808202e-13)
(7.2861726150109e-29 -2.35167103725179e-06 -1.88622930420369e-13)
(6.99802041137014e-29 -2.38798434797974e-06 -8.84201155526497e-14)
(6.69168807361927e-29 -2.42702446248665e-06 -2.78335857451433e-13)
(6.41187550539912e-29 -2.46823400667395e-06 -2.17962504193161e-13)
(6.07871835101418e-29 -2.51234860138217e-06 -3.12741671241042e-13)
(5.80193879597501e-29 -2.55991078094744e-06 -4.04013569397151e-13)
(5.52223380273899e-29 -2.61048183344389e-06 1.19879519133871e-13)
(5.25222418997726e-29 -2.66418926213048e-06 2.10995434430427e-13)
(4.98151126049881e-29 -2.72204464949882e-06 -2.2355091063574e-15)
(4.71929532396459e-29 -2.78399152037196e-06 -7.79138052780088e-14)
(4.45393413951755e-29 -2.8494032336358e-06 5.34886070068733e-14)
(4.19753900008524e-29 -2.9196574679718e-06 3.0843731041848e-13)
(3.93861645998742e-29 -2.99493070064129e-06 6.37406153194015e-14)
(3.68671297654098e-29 -3.07406807158531e-06 -6.06875392484491e-13)
(3.43235719089374e-29 -3.15810520331545e-06 -5.03261160987563e-13)
(3.18649660398551e-29 -3.24772297619237e-06 1.58828840610801e-13)
(2.93721874695801e-29 -3.34197416862398e-06 -1.63133191009545e-13)
(2.69564779675344e-29 -3.44065131192934e-06 -1.4194628802773e-13)
(2.4511575238325e-29 -3.54457604680324e-06 6.88632795486285e-16)
(2.21511791401226e-29 -3.65292832915808e-06 -1.02149169263276e-13)
(1.97711985361279e-29 -3.76435215597853e-06 4.3575423276673e-13)
(1.74776127054739e-29 -3.87658187158564e-06 3.4584338497358e-13)
(1.5172192773158e-29 -3.98367938917948e-06 -1.39099955841728e-13)
(1.29845315644525e-29 -4.08018557224379e-06 -6.26991216095502e-14)
(1.08050075105186e-29 -4.15432926037522e-06 1.48689667169214e-13)
(8.7405688420167e-30 -4.19025312508017e-06 -1.58478121256047e-13)
(6.75718626800612e-30 -4.18403875059593e-06 -2.60338688574618e-13)
(4.99800062460452e-30 -4.13011723753649e-06 -2.57735283751838e-14)
(3.76476973480266e-30 -4.0295075838026e-06 4.21888394967475e-13)
(3.47862983206731e-30 -3.9016081468686e-06 6.01784367113619e-13)
(3.17130299916035e-30 -3.75987459314252e-06 1.80663606549133e-13)
(2.87549347199325e-30 -3.60870231083949e-06 -1.53475772248838e-13)
(2.58981462489641e-30 -3.45519881474181e-06 -9.72033282354557e-14)
(2.33182257002812e-30 -3.30437474715752e-06 2.37692937624552e-13)
(2.09947479928734e-30 -3.15980660927262e-06 2.78172816938563e-13)
(1.90208785220425e-30 -3.02608303118306e-06 9.62238528443468e-14)
(1.72601654297348e-30 -2.90373816022217e-06 4.1700497538598e-14)
(1.5830425827594e-30 -2.79400220822329e-06 -2.20539690348601e-13)
(1.46420701685921e-30 -2.7009944980176e-06 -2.96505621953647e-15)
(1.36911092428285e-30 -2.62294297789709e-06 2.78041747507483e-13)
(1.29119135967887e-30 -2.5563635195864e-06 1.5163065730542e-13)
(1.23153716181018e-30 -2.5008191636681e-06 1.95011301128123e-14)
(3.70724910543796e-28 -2.29770314601745e-06 -1.73755618942005e-13)
(3.67707052334672e-28 -2.29767176489435e-06 -1.65728862381025e-13)
(3.60676840853304e-28 -2.29859251799377e-06 -1.80961003830226e-14)
(3.54092607865598e-28 -2.29986993584599e-06 -2.10274583202056e-13)
(3.4724322317658e-28 -2.30137878159301e-06 2.58918057155209e-13)
(3.40859381297817e-28 -2.30314474955271e-06 7.35916475260122e-13)
(3.34224786795853e-28 -2.30514850682594e-06 4.35309570849547e-13)
(3.28006662557172e-28 -2.30732472380628e-06 1.5158318823788e-13)
(3.21521194785219e-28 -2.30968523983129e-06 3.26747490277244e-13)
(3.15453170518712e-28 -2.31224051563035e-06 2.88547400677543e-13)
(3.09116303856554e-28 -2.3149514114347e-06 -4.87216514961061e-14)
(3.03167885347709e-28 -2.31779361032511e-06 -1.02332049160588e-14)
(2.96951920776122e-28 -2.320804601074e-06 2.66301643388511e-13)
(2.91122931872935e-28 -2.32397850391468e-06 -1.84227487465532e-13)
(2.85024246728962e-28 -2.32727349676591e-06 -4.39755798315546e-13)
(2.79299127179075e-28 -2.33070887059768e-06 5.89618802073066e-14)
(2.73308762034746e-28 -2.33429713271784e-06 4.54594973646243e-14)
(2.67685579057098e-28 -2.33801769665367e-06 -3.86135849570982e-13)
(2.6180117180746e-28 -2.34187211254307e-06 -3.70148496412893e-13)
(2.56278243569979e-28 -2.34588509037433e-06 2.39091469265073e-13)
(2.50493791444058e-28 -2.35004370431352e-06 1.53426541718592e-13)
(2.45064077958674e-28 -2.35432503712908e-06 4.90559867970622e-14)
(2.39387253235984e-28 -2.35877352348772e-06 -1.44337451813515e-14)
(2.34060377355962e-28 -2.36339577278494e-06 -1.13962492275406e-13)
(2.2847397549115e-28 -2.36815595862709e-06 3.64979462477346e-13)
(2.23241993195638e-28 -2.37309084812289e-06 7.29575119722104e-13)
(2.17773628186844e-28 -2.37822470066565e-06 3.88651344995356e-13)
(2.12639725961499e-28 -2.38352826377647e-06 -4.51650910067918e-15)
(2.07264543825053e-28 -2.38899990990831e-06 -5.73121091547489e-14)
(2.02236345711121e-28 -2.39470461098229e-06 -3.31992436724788e-14)
(1.96977473339271e-28 -2.4006396591871e-06 2.30015015961836e-14)
(1.92046136058197e-28 -2.40675265036412e-06 -3.5584922520765e-15)
(1.86887919209164e-28 -2.41312508212597e-06 -2.19897744637007e-13)
(1.82066544044925e-28 -2.41977935746802e-06 -2.18529372370779e-13)
(1.77024087479034e-28 -2.42665420595358e-06 -2.48250407016529e-13)
(1.72306979744224e-28 -2.43380659960474e-06 -2.92217818017239e-13)
(1.67377296421834e-28 -2.44129793350663e-06 1.84169113599682e-14)
(1.62769546530928e-28 -2.44909345513795e-06 -3.84562032490927e-13)
(1.57956699271675e-28 -2.45717493365047e-06 -2.3691385985901e-13)
(1.53464398756577e-28 -2.46565928518143e-06 4.39766419903464e-13)
(1.48770185324273e-28 -2.47456015835909e-06 3.75462901593671e-13)
(1.44386235292127e-28 -2.48379700735763e-06 -3.38886905004279e-13)
(1.39818220849523e-28 -2.49350419028174e-06 -6.96764256746412e-13)
(1.35560396955112e-28 -2.50374576758779e-06 6.58395850695361e-14)
(1.31107552279042e-28 -2.51443512911537e-06 7.53079982153501e-14)
(1.26962837645841e-28 -2.5256412148518e-06 -1.796853289546e-13)
(1.22650297629811e-28 -2.53750525559934e-06 -1.92653512440824e-13)
(1.18630064639229e-28 -2.55000108069499e-06 6.19598945583676e-14)
(1.14434448902058e-28 -2.56307992687554e-06 1.68624979734316e-13)
(1.10541047297371e-28 -2.57698308064771e-06 1.81339925810931e-13)
(1.06489511192398e-28 -2.59173606221455e-06 2.85720550792247e-13)
(1.02712735281015e-28 -2.60717325528385e-06 -1.24973332311487e-13)
(9.87866978767169e-29 -2.62365711451633e-06 -4.54542579578839e-13)
(9.51499431471414e-29 -2.64132827393252e-06 -3.2629129635224e-13)
(9.13563752496893e-29 -2.65994131085646e-06 4.84568813033825e-13)
(8.78320749228952e-29 -2.67963866108628e-06 7.41803364681974e-13)
(8.41725398775985e-29 -2.70078179773545e-06 7.56405786323915e-13)
(8.07794196181389e-29 -2.72333734281947e-06 2.69012704607866e-13)
(7.7244715692532e-29 -2.7471274693683e-06 -2.61413246511388e-13)
(7.39721528067371e-29 -2.77272970154848e-06 -1.22588806260407e-13)
(7.05677766409978e-29 -2.80027851434602e-06 -3.86926341553313e-13)
(6.74085421274929e-29 -2.82937864630999e-06 -3.03230148799248e-13)
(6.38206771515736e-29 -2.86055190271675e-06 -4.34712953134599e-13)
(6.07305507616124e-29 -2.89418633579257e-06 -5.64289114856749e-13)
(5.76373457655876e-29 -2.9299721158067e-06 1.64849687976422e-13)
(5.46477691209729e-29 -2.96799922753045e-06 2.94389005559759e-13)
(5.16743936387193e-29 -3.00898809181531e-06 -2.15597786925491e-15)
(4.87947960900088e-29 -3.05290203885462e-06 -1.08781724455672e-13)
(4.59103103053831e-29 -3.09929530138489e-06 7.32894024868806e-14)
(4.31234934892245e-29 -3.14914766615981e-06 4.29978593628819e-13)
(4.03371557943944e-29 -3.20258933264652e-06 9.16990065746519e-14)
(3.76318575322091e-29 -3.2587994939858e-06 -8.44652362975352e-13)
(3.49276059076207e-29 -3.31851395073927e-06 -7.04149780442154e-13)
(3.23170831055007e-29 -3.38222092074109e-06 2.20665282794833e-13)
(2.96994815473991e-29 -3.44924873126253e-06 -2.26803535438449e-13)
(2.71686667127499e-29 -3.51944895920459e-06 -1.98505858797257e-13)
(2.46347954252345e-29 -3.59340821807946e-06 8.69280825073927e-16)
(2.21942468484624e-29 -3.67054580002417e-06 -1.43660403366852e-13)
(1.97590297849883e-29 -3.7498978670797e-06 6.07255031537903e-13)
(1.74187448237305e-29 -3.829854934712e-06 4.8412911248815e-13)
(1.50906872020509e-29 -3.90618913436706e-06 -1.9331016751778e-13)
(1.28855687887991e-29 -3.97501310840122e-06 -8.81220735527019e-14)
(1.07091957853745e-29 -4.02794265176679e-06 2.07712324012546e-13)
(8.65506160576127e-30 -4.05366050981897e-06 -2.20423023526521e-13)
(6.69541028247891e-30 -4.04935047057563e-06 -3.63517679056511e-13)
(4.96055875720605e-30 -4.01101963348885e-06 -3.70141634580601e-14)
(3.79400701341764e-30 -3.93933708470427e-06 5.88546965822854e-13)
(3.52397614506278e-30 -3.84814369772159e-06 8.40975694196209e-13)
(3.2345592010006e-30 -3.74706549759912e-06 2.53044606076415e-13)
(2.95356618629871e-30 -3.63923831510831e-06 -2.14332002297419e-13)
(2.68157932635162e-30 -3.52973140110117e-06 -1.361491688268e-13)
(2.43498402776502e-30 -3.4221213178447e-06 3.32169033935792e-13)
(2.2117120999731e-30 -3.31896191710256e-06 3.89141710196962e-13)
(2.02110797527536e-30 -3.22353042109722e-06 1.34695422257259e-13)
(1.85138057118522e-30 -3.13621162410924e-06 5.84532568985267e-14)
(1.71221558371365e-30 -3.05788555428869e-06 -3.08562505322243e-13)
(1.59652404722432e-30 -2.99149488205186e-06 -4.25580418240149e-15)
(1.50365124855368e-30 -2.93577805861198e-06 3.88981416477905e-13)
(1.42746383020995e-30 -2.88824596735386e-06 2.12170528315748e-13)
(1.37086989108687e-30 -2.84863412906177e-06 2.73429891426101e-14)
(3.26651161171183e-28 -2.87892717911281e-06 -2.19894439014759e-13)
(3.23856311267353e-28 -2.8787307885463e-06 -2.11927830109447e-13)
(3.17717710004172e-28 -2.87912918872739e-06 -2.12987170709158e-14)
(3.11869220470778e-28 -2.87974083170194e-06 -2.7119578252558e-13)
(3.05868374175006e-28 -2.88048947547008e-06 3.17164274146062e-13)
(3.00171106302296e-28 -2.88138982444964e-06 9.31919395265288e-13)
(2.94330034763596e-28 -2.88243086106481e-06 5.5751473528204e-13)
(2.88761066552615e-28 -2.88357403539479e-06 1.91909101644054e-13)
(2.8303756344411e-28 -2.88482606890002e-06 4.12980465488152e-13)
(2.77587106383456e-28 -2.88619333639422e-06 3.70284377160326e-13)
(2.71980538132587e-28 -2.88765291263802e-06 -5.95468494647172e-14)
(2.66628753454751e-28 -2.8891902509741e-06 -1.68175076634363e-14)
(2.61122035220863e-28 -2.89082744037707e-06 3.41043603720484e-13)
(2.55869255612342e-28 -2.89256130669613e-06 -2.26884383330534e-13)
(2.50459720002731e-28 -2.89436712196579e-06 -5.6170800155551e-13)
(2.45296319914979e-28 -2.8962561313236e-06 7.11277315690212e-14)
(2.39979320765144e-28 -2.89823591248754e-06 6.28540243076142e-14)
(2.34904314995042e-28 -2.90029438205116e-06 -4.86772250059183e-13)
(2.29678196807426e-28 -2.90243235189421e-06 -4.76768992905887e-13)
(2.24691314090968e-28 -2.90466451717764e-06 2.99898916221606e-13)
(2.19553293468488e-28 -2.90698343026276e-06 1.96492767429342e-13)
(2.14650194564923e-28 -2.90937543236789e-06 6.37262811989083e-14)
(2.09605384376132e-28 -2.91186675347175e-06 -1.67604830008602e-14)
(2.04793232939245e-28 -2.91446160525684e-06 -1.49081642789853e-13)
(1.9983149440057e-28 -2.91713878319744e-06 4.56383730005692e-13)
(1.95105643904276e-28 -2.91991990972514e-06 9.27755861625534e-13)
(1.90245285031471e-28 -2.9228195908424e-06 5.00132185443758e-13)
(1.85608445882636e-28 -2.92582065603549e-06 -2.50841283171675e-15)
(1.80834236778864e-28 -2.92892197616085e-06 -7.27036679154507e-14)
(1.76292293259466e-28 -2.93216210244188e-06 -4.29054992975759e-14)
(1.7161985439077e-28 -2.93553980313301e-06 2.91120962159971e-14)
(1.6716752947787e-28 -2.93902392314486e-06 -2.34875918613131e-15)
(1.62587523198183e-28 -2.94266263657624e-06 -2.78307323637215e-13)
(1.58234337541224e-28 -2.94646967958673e-06 -2.7774380348716e-13)
(1.53757175581581e-28 -2.95040877034385e-06 -3.15285190496743e-13)
(1.4950000385298e-28 -2.95451348071261e-06 -3.74298359230981e-13)
(1.45124955161029e-28 -2.95882055635688e-06 2.49283506651934e-14)
(1.40967997018e-28 -2.96330969436244e-06 -4.88317275732056e-13)
(1.36697941562122e-28 -2.96796986579053e-06 -3.08041012007144e-13)
(1.32646135155524e-28 -2.97287051114621e-06 5.56498078277429e-13)
(1.28483646398894e-28 -2.97802033229689e-06 4.84167394888518e-13)
(1.24532831766006e-28 -2.98337141998103e-06 -4.24820114891184e-13)