/*--------------------------------*- C++ -*----------------------------------*\
  =========                 |
  \\      /  F ield         | OpenFOAM: The Open Source CFD Toolbox
   \\    /   O peration     | Website:  https://openfoam.org
    \\  /    A nd           | Version:  8
     \\/     M anipulation  |
\*---------------------------------------------------------------------------*/
FoamFile
{
    version     2.0;
    format      ascii;
    class       volScalarField;
    location    "0.0155000";
    object      p;
}
// * * * * * * * * * * * * * * * * * * * * * * * * * * * * * * * * * * * * * //

dimensions      [0 2 -2 0 0 0 0];

internalField   nonuniform List<scalar> 
600
(
1173082.41890045
3555683.04981692
6019431.80935617
8536514.43846075
11111114.9952662
13747891.0848897
16449162.714474
19217095.7384008
22054040.0113216
24962388.7738162
27944705.4234328
31003771.5176903
34142573.4721136
37364117.4327789
40671496.4190211
44068001.4858725
47557341.7907072
51143456.7497668
54830190.5144572
58621531.7283585
62522013.8616905
66536426.3274613
70669611.0276165
74926584.3943208
79312916.0304666
83834590.8744986
88497698.2904506
93308503.4174414
98274121.5807705
103402255.337708
108700303.298873
114176564.561876
119840389.786816
125701193.112685
131769011.491693
138054641.388167
144569529.4186
151325752.606105
158336852.876225
165617552.387394
173182442.453497
181047809.345434
189231567.693124
197752303.900961
206630828.162956
215889532.159578
225551944.89682
235643399.915131
246191970.332656
257228202.222916
268783629.8166
280894974.144127
293602175.234004
306944718.967538
320969253.937489
335727363.537987
351273194.293618
367663728.212063
384965676.010937
403253569.851838
422599324.227818
443090756.131203
464825062.534311
487898857.031584
512421589.084691
538518854.515367
566323429.150326
595967331.464859
627608061.032573
661418838.597589
697547250.119907
736177522.085289
777499147.411404
821662396.788746
868801368.908161
919032460.989064
972360675.318547
1028643345.21004
1087470917.29466
1148206324.94668
1209078117.76047
1268805610.32542
1320806991.12776
1364226487.82086
1370922546.61992
1349708379.49598
1136552641.78949
1005990218.50859
843795654.031061
705332116.181865
567391982.547056
443852896.121586
331357762.695754
234397660.729901
152809182.074806
88667205.7817217
41841107.4635878
10953979.5028585
-5134233.58231508
-6721622.03422391
1186008.66884434
3570026.97834078
6040257.67368294
8560596.57914621
11136707.7650717
13774203.3803585
16475881.7231241
19244060.8298045
22081151.6000262
24989620.2546626
27972065.2121867
31031260.3298432
34170148.929131
37391771.9811621
40699251.4496251
44095910.9375785
47585412.8294734
51171628.303464
54858441.5214112
58649911.5361711
62550530.0717274
66565031.2339765
70698266.2942826
74955342.137888
79341784.0260604
83863505.6746908
88526634.2806684
93337531.2627209
98303247.2967599
103431346.082741
108729427.230574
114205792.724993
119869603.464165
125730376.460002
131798138.401846
138083656.519843
144598414.836359
151354590.771334
158365627.791688
165646028.69138
173210683.755236
181075838.653577
189259222.487802
197779665.68759
206657837.348496
215915992.550932
225577732.190023
235668562.249019
246216437.154812
257251594.452085
268806228.413933
280916648.670223
293622158.397525
306963363.274108
320986484.582252
335742656.386118
351286002.77898
367674390.067927
384974070.680917
403258089.007827
422600789.688113
443088841.431203
464818095.146088
487886799.37868
512404564.214846
538495719.15899
566292156.127467
595928834.488416
627561874.668328
661360363.271356
697478868.138292
736098175.717925
777404656.680572
821552521.141053
868676573.051298
918890042.177022
972196783.883029
1028461530.44347
1087266790.52479
1147983266.29709
1208848597.66348
1268561600.49848
1320587913.44556
1364060546.08705
1370839690.21798
1349827995.87799
1136916696.85099
1006385801.07602
844166440.521059
705650292.364758
567693607.056178
444104390.692394
331577889.463788
234587614.038388
152956999.120445
88784516.1251506
41936393.6867422
11024351.0080567
-5081503.63073689
-6657012.26122874
1186909.17405984
3573846.85726522
6044397.52802659
8564673.92788065
11141035.0222382
13778754.5343793
16480553.7043684
19248765.3600266
22085815.7223833
24994210.1901491
27976572.9238845
31035676.4234368
34174442.6467061
37395918.6975586
40703265.6317935
44099834.7037411
47589241.6008229
51175303.1374461
54861941.0313941
58653269.8567037
62553738.7446117
66568040.698603
70701052.0009069
74957921.677598
79344154.3106615
83865615.0840704
88528447.8747018
93339090.1650868
98304541.3879751
103432279.034984
108730018.907095
114206081.486227
119869515.957406
125729849.647084
131797134.789349
138082132.234201
144596339.838184
151352000.915894
158362481.61212
165642164.383643
173206079.394507
181070482.962537
189253030.383467
197772627.2465
206649866.298389
215906926.45748
225567464.11148
235657050.041504
246203563.613402
257237174.585476
268790303.294554
280899027.106592
293602425.416491
306941559.909403
320962498.843731
335716062.16539
351256444.052689
367641902.388243
384938359.472164
403218385.298365
422557156.614027
443040921.204328
464764951.890175
487828119.207055
512340143.404587
538424679.293538
566213481.881186
595842437.563239
627466937.691739
661255212.118268
697363531.843271
735971907.621743
777265753.067135
821400430.665774
868511117.840005
918710296.306348
972002295.328938
1028253693.02404
1087047363.03108
1147758829.94697
1208625882.84889
1268360304.24808
1320422070.88936
1363983844.90139
1370870246.39152
1350233447.76876
1137352805.71179
1006810978.21917
844560439.803512
706006034.558449
568004015.410193
444376755.682839
331806605.638592
234773620.000897
153109189.981435
88902256.4342928
42020672.9542342
11088974.6756473
-5028635.29814356
-6626172.3282974
1181166.45789707
3561375.34093982
6018000.41412816
8533195.96199507
11108060.1675003
13745142.9438807
16446478.396039
19214231.021963
22050778.4311252
24958631.8462555
27940428.7829629
30998943.9900472
34137093.1160964
37357923.8047453
40664617.2127346
44060536.6903503
47549274.5569206
51134621.6229563
54820517.0655266
58611100.9126194
62510800.1190736
66524287.8218452
70656454.2284909
74912462.8464843
79297809.9740198
83818337.4572099
88480193.7605329
93289853.1794479
98254288.1172019
103380936.144578
108677562.846688
114152498.633252
119814742.256279
125673812.878895
131739781.004681
138023404.605494
144536182.595907
151290388.694098
158299347.353226
165577387.726112
173139593.01745
181002228.970801
189182923.006917
197700595.678153
206575804.934172
215830694.268905
225488947.041156
235576149.6077
246120141.296901
257151087.615717
268701466.912117
280807249.30453
293507450.091928
306843284.11122
320860768.773998
335610564.971174
351146921.802882
367528240.857441
384820268.006048
403095461.12245
422429236.455451
442907703.871377
464625929.52408
487683006.598151
512188712.468433
538266414.57234
566047932.146059
595669441.244474
627286029.690138
661065954.66537
697165879.199906
735765790.663239
777050997.805312
821177450.608817
868280790.234079
918473745.0554
971761771.957815
1028012759.51207
1086811791.36254
1147538671.28814
1208432588.66599
1268220660.89372
1320358579.43325
1364068011.12757
1371152166.11506
1351024413.09003
1137778829.10541
1007196231.04647
844930120.986025
706325019.552605
568281263.445557
444610796.793184
331997644.275393
234922810.742565
153224160.575289
88985051.740936
42075717.8942166
11126396.7409301
-4998800.52639871
-6614296.226471
1149271.28889811
3513242.69637541
5951451.50887622
8460343.64911369
11033364.6920111
13669461.8469546
16369892.2877325
19136686.7235735
21972204.4131802
24878972.2399048
27859643.2730452
30916998.3764769
34053952.7668734
37273553.9356822
40578988.4764971
43973622.521511
47461039.614068
51045020.9683128
54729511.2533277
58518658.3819148
62416879.6613613
66428840.3157987
70559434.4636084
74813828.8384725
79197515.1776488
83716325.3209063
88376406.9088852
93184246.3141691
98146803.5982614
103271498.733105
108566114.674144
114038982.166974
119699079.492128
125555923.517552
131619589.888238
137900830.474337
144411137.718466
151162793.823031
158169106.681046
165444384.390419
173003727.785508
180863397.660364
189041004.349496
197555471.573795
206427342.198022
215678746.95921
225333374.527015
235416807.081206
245956864.156558
256983702.790138
268529814.077929
280631129.837223
293326646.171968
306657617.987096
320670029.654884
335414501.695822
350945300.924651
367320853.237971
384606846.144441
402875723.75293
422202964.547857
442674625.074741
464385760.050257
487435537.174294
511933730.910749
538003688.091672
565777332.238672
595390930.71896
626999561.221086
660771720.928323
696864267.833058
735457338.299913
776736669.980508
820858797.379438
867959954.601938
918153820.931885
971447465.695731
1027710681.35716
1086531369.65999
1147294114.04488
1208241928.54646
1268116725.49748
1320376555.85654
1364302918.43767
1371686475.10418
1352241667.80406
1138220679.68042
1007568561.92534
845300482.313926
706628094.016969
568543907.778353
444821387.12632
332162949.581937
235044224.693187
153308259.225457
89037105.1316302
42103497.491316
11137909.7956949
-4993776.91225198
-6613619.88383529
1091756.77345541
3432488.5520538
5853835.86776416
8357837.00248947
10929479.9979003
13564643.5350787
16264058.9438255
19029716.1411111
21864002.4212072
24769474.981799
27748804.5622205
30804779.6851025
33940317.2783568
37158463.3773823
40462402.6730192
43855499.5101676
47341335.3087981
50923690.1305133
54606508.7641464
58393937.7992489
62290390.7058276
66300531.3710895
70429253.0031103
74681719.1582142
79063418.6889563
83580181.0505476
88238150.4302492
93043810.9439725
98004118.4996582
103126488.826688
108418703.167199
113889087.165332
119546616.121742
125400807.186608
131461733.436601
137740139.88438
144247509.108083
150996116.952541
157999269.222753
165271273.867625
172827226.236182
180683374.588865
188857320.830478
197367981.658218
206235896.174674
215483197.199894
225133564.958521
235212564.694066
245748009.047478
256770047.858854
268311149.519126
280407249.289205
293097360.163756
306422696.417089
320429221.234018
335167589.126392
350692064.499165
367061012.150415
384340130.333322
402601932.279213
421921812.933375
442385831.657514
464089167.437078
487130945.523335
511620889.605986
537682488.356347
565447807.398371
595053021.51426
626653362.067959
660417768.565697
696503014.470257
735089509.347925
776363757.806532
820482756.124098
867583291.861443
917780438.695944
971082953.615312
1027362836.41616
1086210536.75497
1147016793.24203
1208025934.8568
1268001376.96947
1320390618.07556
1364567971.89578
1372256195.20789
1353627474.64357
1138619333.12352
1007934144.93943
845651211.250551
706915205.844537
568787816.676612
445013023.645829
332308633.619851
235146619.648196
153373294.72269
89071333.1065661
42115702.0074035
11135528.8680488
-5002378.38675345
-6620134.4295681
)
;

boundaryField
{
    dieWall
    {
        type            zeroGradient;
    }
    outlet
    {
        type            fixedValue;
        value           uniform 0;
    }
    Wire
    {
        type            zeroGradient;
    }
    inlet
    {
        type            fixedValue;
        value           uniform 0;
    }
    back
    {
        type            wedge;
    }
    front
    {
        type            wedge;
    }
}


// ************************************************************************* //
