/*--------------------------------*- C++ -*----------------------------------*\
| =========                 |                                                 |
| \\      /  F ield         | foam-extend: Open Source CFD                    |
|  \\    /   O peration     | Version:     4.1-20200408                       |
|   \\  /    A nd           | Web:         http://www.foam-extend.org         |
|    \\/     M anipulation  |                                                 |
\*---------------------------------------------------------------------------*/
FoamFile
{
    version     2.0;
    format      ascii;
    class       volScalarField;
    location    "0.0185000";
    object      rho_0;
}
// * * * * * * * * * * * * * * * * * * * * * * * * * * * * * * * * * * * * * //

dimensions      [1 -3 0 0 0 0 0];

internalField   nonuniform List<scalar> 
1952
(
7823.53
7823.56
7823.67
7823.76
7823.92
7824.05
7824.25
7824.38
7824.55
7824.57
7824.62
7824.3
7823.85
7822.21
7820.05
7823.49
7824.05
7824.08
7824.19
7824.27
7824.43
7824.56
7824.75
7824.89
7825.06
7825.07
7825.13
7824.8
7824.32
7822.61
7820.29
7824.01
7824.53
7824.57
7824.67
7824.75
7824.91
7825.03
7825.22
7825.35
7825.5
7825.51
7825.56
7825.2
7824.68
7822.89
7820.45
7824.5
7824.98
7825.01
7825.11
7825.19
7825.33
7825.45
7825.63
7825.74
7825.89
7825.87
7825.9
7825.51
7824.93
7823.06
7820.49
7824.94
7825.38
7825.41
7825.5
7825.58
7825.72
7825.83
7825.99
7826.1
7826.22
7826.19
7826.18
7825.75
7825.11
7823.16
7820.5
7825.35
7825.74
7825.77
7825.86
7825.93
7826.06
7826.16
7826.31
7826.4
7826.5
7826.45
7826.42
7825.94
7825.24
7823.23
7820.48
7825.71
7826.08
7826.1
7826.19
7826.25
7826.37
7826.46
7826.59
7826.66
7826.74
7826.67
7826.61
7826.09
7825.35
7823.27
7820.45
7826.05
7826.38
7826.4
7826.48
7826.54
7826.65
7826.73
7826.85
7826.9
7826.96
7826.86
7826.77
7826.22
7825.42
7823.3
7820.41
7826.35
7826.66
7826.67
7826.75
7826.8
7826.9
7826.96
7827.07
7827.1
7827.14
7827.02
7826.92
7826.32
7825.49
7823.32
7820.38
7826.63
7826.91
7826.92
7826.99
7827.04
7827.13
7827.18
7827.27
7827.29
7827.31
7827.18
7827.04
7826.41
7825.55
7823.33
7820.34
7826.88
7827.14
7827.15
7827.21
7827.25
7827.34
7827.38
7827.46
7827.45
7827.47
7827.31
7827.16
7826.5
7825.6
7823.34
7820.31
7827.11
7827.35
7827.36
7827.42
7827.45
7827.53
7827.56
7827.63
7827.61
7827.61
7827.44
7827.27
7826.58
7825.65
7823.35
7820.28
7827.33
7827.55
7827.55
7827.61
7827.63
7827.7
7827.72
7827.78
7827.75
7827.74
7827.55
7827.36
7826.64
7825.68
7823.36
7820.26
7827.52
7827.72
7827.72
7827.78
7827.8
7827.86
7827.87
7827.92
7827.87
7827.85
7827.66
7827.45
7826.71
7825.72
7823.37
7820.24
7827.7
7827.89
7827.89
7827.94
7827.95
7828.01
7828.02
7828.05
7827.99
7827.96
7827.77
7827.53
7826.77
7825.76
7823.38
7820.23
7827.87
7828.06
7828.05
7828.09
7828.1
7828.15
7828.15
7828.17
7828.11
7828.07
7827.87
7827.61
7826.84
7825.8
7823.4
7820.22
7828.04
7828.21
7828.2
7828.24
7828.25
7828.29
7828.28
7828.29
7828.23
7828.18
7827.97
7827.69
7826.9
7825.85
7823.41
7820.21
7828.19
7828.36
7828.35
7828.39
7828.39
7828.43
7828.41
7828.42
7828.35
7828.29
7828.07
7827.77
7826.97
7825.89
7823.43
7820.2
7828.34
7828.51
7828.49
7828.53
7828.52
7828.56
7828.54
7828.53
7828.46
7828.4
7828.16
7827.85
7827.03
7825.94
7823.45
7820.2
7828.49
7828.65
7828.63
7828.66
7828.65
7828.69
7828.66
7828.65
7828.57
7828.51
7828.26
7827.94
7827.1
7825.98
7823.48
7820.2
7828.63
7828.79
7828.77
7828.8
7828.78
7828.82
7828.78
7828.77
7828.68
7828.62
7828.35
7828.02
7827.16
7826.03
7823.5
7820.2
7828.77
7828.93
7828.9
7828.93
7828.91
7828.94
7828.89
7828.89
7828.79
7828.72
7828.44
7828.09
7827.22
7826.07
7823.52
7820.2
7828.91
7829.06
7829.03
7829.06
7829.04
7829.06
7829.01
7829
7828.9
7828.82
7828.53
7828.17
7827.28
7826.11
7823.54
7820.2
7829.05
7829.2
7829.17
7829.19
7829.16
7829.17
7829.13
7829.11
7829.01
7828.92
7828.62
7828.24
7827.34
7826.15
7823.56
7820.2
7829.18
7829.34
7829.3
7829.32
7829.29
7829.3
7829.25
7829.23
7829.12
7829.01
7828.7
7828.32
7827.39
7826.19
7823.57
7820.2
7829.32
7829.48
7829.44
7829.46
7829.42
7829.42
7829.37
7829.35
7829.23
7829.11
7828.79
7828.39
7827.45
7826.23
7823.58
7820.19
7829.46
7829.62
7829.58
7829.59
7829.55
7829.55
7829.49
7829.47
7829.34
7829.21
7828.87
7828.46
7827.5
7826.26
7823.59
7820.18
7829.61
7829.77
7829.73
7829.74
7829.69
7829.69
7829.63
7829.59
7829.45
7829.31
7828.96
7828.53
7827.56
7826.3
7823.6
7820.17
7829.76
7829.93
7829.89
7829.89
7829.84
7829.82
7829.76
7829.71
7829.56
7829.41
7829.05
7828.6
7827.61
7826.33
7823.6
7820.14
7829.93
7830.11
7830.06
7830.05
7830
7829.98
7829.9
7829.84
7829.68
7829.52
7829.14
7828.67
7827.65
7826.35
7823.6
7820.11
7830.1
7830.28
7830.23
7830.21
7830.15
7830.12
7830.04
7829.97
7829.8
7829.62
7829.22
7828.74
7827.69
7826.37
7823.58
7820.08
7830.28
7830.47
7830.41
7830.39
7830.33
7830.29
7830.19
7830.11
7829.92
7829.72
7829.31
7828.8
7827.73
7826.38
7823.56
7820.03
7830.46
7830.66
7830.6
7830.58
7830.51
7830.46
7830.36
7830.26
7830.06
7829.83
7829.4
7828.87
7827.77
7826.38
7823.53
7819.98
7830.66
7830.89
7830.82
7830.8
7830.72
7830.66
7830.54
7830.42
7830.2
7829.95
7829.5
7828.93
7827.8
7826.38
7823.48
7819.9
7830.89
7831.14
7831.08
7831.04
7830.95
7830.88
7830.74
7830.6
7830.36
7830.09
7829.6
7829
7827.83
7826.37
7823.43
7819.81
7831.14
7831.43
7831.36
7831.32
7831.21
7831.12
7830.97
7830.8
7830.54
7830.23
7829.71
7829.08
7827.86
7826.35
7823.36
7819.7
7831.43
7831.76
7831.68
7831.62
7831.51
7831.4
7831.23
7831.03
7830.74
7830.4
7829.84
7829.16
7827.9
7826.33
7823.29
7819.59
7831.76
7832.13
7832.05
7831.98
7831.85
7831.72
7831.53
7831.3
7830.98
7830.6
7829.99
7829.26
7827.94
7826.31
7823.21
7819.45
7832.14
7832.56
7832.47
7832.39
7832.25
7832.09
7831.87
7831.62
7831.26
7830.83
7830.18
7829.38
7828.01
7826.3
7823.12
7819.3
7832.58
7833.05
7832.95
7832.86
7832.7
7832.52
7832.27
7831.98
7831.59
7831.1
7830.4
7829.53
7828.08
7826.3
7823.03
7819.14
7833.06
7833.6
7833.5
7833.39
7833.21
7833.01
7832.74
7832.4
7831.97
7831.43
7830.66
7829.72
7828.19
7826.31
7822.94
7818.96
7833.62
7834.23
7834.12
7834
7833.81
7833.58
7833.28
7832.91
7832.43
7831.83
7831
7829.97
7828.35
7826.35
7822.87
7818.78
7834.25
7834.95
7834.84
7834.7
7834.5
7834.24
7833.92
7833.51
7832.98
7832.32
7831.42
7830.29
7828.57
7826.44
7822.83
7818.59
7834.97
7835.76
7835.65
7835.5
7835.29
7835.01
7834.66
7834.22
7833.64
7832.92
7831.94
7830.71
7828.88
7826.59
7822.83
7818.41
7835.79
7836.67
7836.56
7836.41
7836.19
7835.9
7835.53
7835.05
7834.44
7833.65
7832.6
7831.26
7829.31
7826.84
7822.9
7818.26
7836.7
7837.69
7837.59
7837.43
7837.22
7836.92
7836.54
7836.04
7835.4
7834.56
7833.44
7831.98
7829.9
7827.24
7823.08
7818.16
7837.72
7838.8
7838.72
7838.57
7838.36
7838.07
7837.7
7837.19
7836.53
7835.66
7834.48
7832.93
7830.71
7827.83
7823.43
7818.14
7838.83
7840.02
7839.95
7839.81
7839.63
7839.36
7839.01
7838.52
7837.87
7836.99
7835.78
7834.15
7831.82
7828.72
7824.04
7818.27
7840.04
7841.32
7841.27
7841.17
7841.02
7840.79
7840.48
7840.04
7839.43
7838.58
7837.38
7835.73
7833.32
7830.04
7825.1
7818.78
7841.34
7842.69
7842.67
7842.6
7842.51
7842.34
7842.1
7841.75
7841.22
7840.46
7839.33
7837.74
7835.35
7832.02
7826.97
7820.31
7842.7
7844.09
7844.1
7844.09
7844.06
7843.98
7843.85
7843.62
7843.22
7842.63
7841.64
7840.23
7837.99
7834.81
7829.91
7823.35
7844.08
7845.48
7845.53
7845.58
7845.64
7845.68
7845.67
7845.62
7845.4
7845.04
7844.29
7843.17
7841.22
7838.38
7833.82
7827.62
7845.45
7846.81
7846.91
7847.03
7847.19
7847.37
7847.53
7847.68
7847.7
7847.64
7847.22
7846.51
7844.98
7842.68
7838.68
7833.12
7846.77
7848.02
7848.17
7848.38
7848.65
7848.98
7849.32
7849.72
7850.02
7850.33
7850.31
7850.13
7849.16
7847.58
7844.34
7839.72
7847.96
7849.04
7849.24
7849.54
7849.93
7850.42
7850.97
7851.63
7852.25
7852.97
7853.43
7853.88
7853.59
7852.93
7850.65
7847.26
7848.97
7849.82
7850.07
7850.44
7850.96
7851.6
7852.36
7853.29
7854.24
7855.4
7856.38
7857.53
7858.03
7858.46
7857.34
7855.5
7849.72
7850.27
7850.56
7851.01
7851.63
7852.42
7853.37
7854.55
7855.83
7857.42
7858.93
7860.82
7862.18
7863.84
7864.11
7864.26
7850.16
7850.35
7850.68
7851.19
7851.89
7852.8
7853.91
7855.3
7856.87
7858.85
7860.86
7863.45
7865.69
7868.65
7870.44
7872.97
7850.23
7849.93
7850.28
7850.81
7851.57
7852.54
7853.75
7855.28
7857.05
7859.29
7861.69
7864.82
7867.82
7872.01
7875.43
7880.91
7849.81
7849.17
7849.53
7850.06
7850.84
7851.83
7853.08
7854.67
7856.54
7858.92
7861.56
7865.04
7868.6
7873.69
7878.35
7886.33
7849.05
7848.78
7849.15
7849.69
7850.48
7851.49
7852.77
7854.38
7856.31
7858.77
7861.54
7865.21
7869.01
7874.34
7879.2
7887.32
7848.65
7849.06
7849.46
7850.02
7850.83
7851.86
7853.17
7854.79
7856.76
7859.23
7862.03
7865.67
7869.42
7874.48
7878.84
7885.59
7848.93
7849.97
7850.39
7850.98
7851.83
7852.88
7854.22
7855.85
7857.81
7860.2
7862.9
7866.24
7869.63
7873.88
7877.23
7881.96
7849.84
7851.49
7851.93
7852.54
7853.43
7854.5
7855.86
7857.47
7859.4
7861.64
7864.14
7867
7869.79
7872.86
7874.87
7877.23
7851.34
7853.55
7854.01
7854.62
7855.52
7856.6
7857.96
7859.53
7861.37
7863.42
7865.66
7867.96
7870.01
7871.72
7872.21
7872.07
7853.41
7856.05
7856.5
7857.08
7857.96
7859.02
7860.37
7861.89
7863.63
7865.51
7867.56
7869.29
7870.52
7870.65
7869.59
7867.24
7855.9
7858.86
7859.31
7859.89
7860.75
7861.8
7863.2
7864.74
7866.39
7868
7869.36
7869.93
7869.74
7868.36
7866.26
7862.94
7858.71
7862.29
7862.79
7863.41
7864.27
7865.27
7866.4
7867.45
7868.28
7868.69
7868.58
7867.82
7866.43
7864.45
7862.15
7859.16
7862.11
7865.42
7865.79
7866.18
7866.64
7867
7867.25
7867.27
7867.03
7866.29
7865.3
7863.97
7862.43
7860.56
7858.46
7855.85
7865.28
7865.54
7865.59
7865.55
7865.49
7865.24
7864.9
7864.37
7863.71
7862.79
7861.86
7860.64
7859.24
7857.44
7855.5
7853.05
7865.53
7863.24
7863.14
7862.93
7862.66
7862.26
7861.89
7861.4
7860.8
7859.95
7858.98
7857.75
7856.39
7854.72
7852.95
7850.77
7863.28
7860.69
7860.6
7860.42
7860.18
7859.83
7859.4
7858.83
7858.17
7857.31
7856.38
7855.21
7853.96
7852.41
7850.82
7848.85
7860.72
7858.42
7858.31
7858.1
7857.82
7857.44
7857
7856.44
7855.8
7854.98
7854.09
7852.99
7851.83
7850.43
7849
7847.24
7858.47
7856.27
7856.14
7855.94
7855.67
7855.3
7854.86
7854.31
7853.68
7852.9
7852.06
7851.05
7849.99
7848.72
7847.44
7845.88
7856.31
7854.29
7854.16
7853.96
7853.68
7853.32
7852.9
7852.37
7851.77
7851.05
7850.27
7849.34
7848.38
7847.24
7846.1
7844.71
7854.33
7852.46
7852.33
7852.14
7851.87
7851.53
7851.12
7850.63
7850.07
7849.4
7848.68
7847.84
7846.97
7845.95
7844.94
7843.72
7852.5
7850.78
7850.65
7850.47
7850.22
7849.9
7849.52
7849.06
7848.54
7847.93
7847.28
7846.51
7845.74
7844.83
7843.94
7842.85
7850.82
7849.25
7849.12
7848.96
7848.72
7848.42
7848.07
7847.64
7847.17
7846.61
7846.02
7845.34
7844.64
7843.84
7843.05
7842.1
7849.29
7847.85
7847.73
7847.58
7847.35
7847.08
7846.76
7846.37
7845.94
7845.44
7844.9
7844.29
7843.68
7842.96
7842.27
7841.43
7847.89
7846.58
7846.46
7846.32
7846.12
7845.87
7845.57
7845.22
7844.83
7844.38
7843.91
7843.36
7842.82
7842.19
7841.58
7840.84
7846.61
7845.42
7845.31
7845.19
7845
7844.78
7844.5
7844.19
7843.84
7843.43
7843.01
7842.53
7842.04
7841.49
7840.96
7840.3
7845.45
7844.36
7844.27
7844.15
7843.98
7843.78
7843.53
7843.25
7842.94
7842.58
7842.2
7841.77
7841.35
7840.86
7840.39
7839.82
7844.39
7843.41
7843.32
7843.21
7843.06
7842.88
7842.66
7842.41
7842.12
7841.81
7841.47
7841.09
7840.72
7840.29
7839.88
7839.37
7843.43
7842.53
7842.45
7842.36
7842.22
7842.06
7841.86
7841.64
7841.39
7841.1
7840.81
7840.48
7840.15
7839.77
7839.41
7838.96
7842.56
7841.74
7841.67
7841.58
7841.46
7841.32
7841.14
7840.94
7840.72
7840.47
7840.21
7839.91
7839.62
7839.29
7838.98
7838.58
7841.76
7841.01
7840.95
7840.88
7840.76
7840.64
7840.48
7840.3
7840.1
7839.88
7839.65
7839.4
7839.14
7838.85
7838.57
7838.22
7841.03
7840.35
7840.29
7840.23
7840.13
7840.01
7839.87
7839.72
7839.54
7839.35
7839.15
7838.92
7838.7
7838.44
7838.19
7837.87
7840.37
7839.74
7839.69
7839.63
7839.54
7839.45
7839.32
7839.18
7839.03
7838.86
7838.68
7838.48
7838.28
7838.06
7837.84
7837.55
7839.76
7839.19
7839.14
7839.09
7839.01
7838.92
7838.81
7838.69
7838.55
7838.4
7838.24
7838.07
7837.89
7837.7
7837.5
7837.24
7839.2
7838.68
7838.63
7838.59
7838.52
7838.44
7838.34
7838.23
7838.11
7837.98
7837.84
7837.68
7837.53
7837.36
7837.18
7836.95
7838.69
7838.2
7838.16
7838.13
7838.06
7837.99
7837.91
7837.81
7837.7
7837.59
7837.46
7837.33
7837.19
7837.04
7836.88
7836.67
7838.21
7837.77
7837.73
7837.7
7837.64
7837.58
7837.5
7837.42
7837.32
7837.22
7837.11
7836.99
7836.87
7836.73
7836.59
7836.4
7837.77
7837.36
7837.33
7837.3
7837.25
7837.2
7837.13
7837.05
7836.97
7836.88
7836.78
7836.67
7836.57
7836.44
7836.31
7836.14
7837.37
7836.98
7836.96
7836.93
7836.89
7836.84
7836.78
7836.71
7836.64
7836.55
7836.47
7836.37
7836.28
7836.17
7836.05
7835.89
7836.99
7836.63
7836.61
7836.58
7836.55
7836.5
7836.45
7836.39
7836.32
7836.25
7836.17
7836.09
7836
7835.9
7835.8
7835.64
7836.64
7836.31
7836.28
7836.26
7836.23
7836.19
7836.14
7836.09
7836.03
7835.96
7835.89
7835.82
7835.74
7835.65
7835.55
7835.41
7836.31
7836
7835.98
7835.96
7835.93
7835.89
7835.85
7835.8
7835.75
7835.69
7835.63
7835.56
7835.49
7835.41
7835.32
7835.19
7836
7835.71
7835.69
7835.68
7835.65
7835.62
7835.58
7835.53
7835.49
7835.43
7835.38
7835.32
7835.25
7835.18
7835.1
7834.97
7835.72
7835.44
7835.42
7835.41
7835.38
7835.35
7835.32
7835.28
7835.24
7835.19
7835.14
7835.08
7835.03
7834.96
7834.88
7834.76
7835.44
7835.19
7835.17
7835.16
7835.13
7835.11
7835.08
7835.04
7835
7834.96
7834.91
7834.86
7834.81
7834.75
7834.67
7834.56
7835.19
7834.95
7834.93
7834.92
7834.9
7834.87
7834.84
7834.81
7834.78
7834.74
7834.69
7834.65
7834.6
7834.54
7834.47
7834.36
7834.95
7834.72
7834.71
7834.69
7834.67
7834.65
7834.63
7834.6
7834.56
7834.53
7834.49
7834.44
7834.4
7834.35
7834.28
7834.17
7834.72
7834.51
7834.49
7834.48
7834.46
7834.44
7834.42
7834.39
7834.36
7834.33
7834.29
7834.25
7834.21
7834.16
7834.09
7833.99
7834.51
7834.3
7834.29
7834.28
7834.27
7834.25
7834.22
7834.2
7834.17
7834.13
7834.1
7834.06
7834.02
7833.97
7833.91
7833.81
7834.31
7834.11
7834.1
7834.09
7834.08
7834.06
7834.04
7834.01
7833.98
7833.95
7833.92
7833.88
7833.84
7833.8
7833.74
7833.64
7834.12
7833.93
7833.92
7833.91
7833.9
7833.88
7833.86
7833.84
7833.81
7833.78
7833.75
7833.71
7833.67
7833.63
7833.57
7833.48
7833.94
7833.77
7833.76
7833.75
7833.73
7833.71
7833.69
7833.67
7833.64
7833.61
7833.58
7833.55
7833.51
7833.47
7833.41
7833.32
7833.77
7833.61
7833.6
7833.59
7833.57
7833.56
7833.54
7833.51
7833.49
7833.46
7833.43
7833.39
7833.36
7833.31
7833.25
7833.16
7833.61
7833.46
7833.45
7833.44
7833.43
7833.41
7833.39
7833.37
7833.34
7833.31
7833.28
7833.24
7833.21
7833.16
7833.1
7833.01
7833.46
7833.32
7833.31
7833.3
7833.29
7833.27
7833.25
7833.23
7833.2
7833.17
7833.14
7833.1
7833.06
7833.02
7832.96
7832.86
7833.32
7833.2
7833.19
7833.18
7833.16
7833.14
7833.12
7833.1
7833.07
7833.04
7833.01
7832.97
7832.93
7832.88
7832.82
7832.72
7833.2
7833.08
7833.07
7833.06
7833.04
7833.03
7833.01
7832.98
7832.95
7832.92
7832.88
7832.84
7832.8
7832.75
7832.68
7832.58
7833.08
7832.97
7832.96
7832.95
7832.94
7832.92
7832.9
7832.87
7832.84
7832.81
7832.77
7832.73
7832.68
7832.63
7832.56
7832.45
7832.97
7832.88
7832.87
7832.86
7832.84
7832.82
7832.8
7832.77
7832.74
7832.71
7832.67
7832.62
7832.57
7832.52
7832.44
7832.32
7832.88
7832.79
7832.78
7832.77
7832.76
7832.74
7832.72
7832.69
7832.66
7832.62
7832.58
7832.53
7832.48
7832.41
7832.33
7832.2
7832.79
7832.72
7832.71
7832.7
7832.68
7832.66
7832.64
7832.61
7832.58
7832.54
7832.5
7832.45
7832.39
7832.32
7832.23
7832.09
7832.72
7832.65
7832.64
7832.63
7832.62
7832.6
7832.58
7832.55
7832.52
7832.48
7832.44
7832.39
7832.32
7832.25
7832.15
7831.99
7832.65
7832.6
7832.59
7832.58
7832.57
7832.55
7832.53
7832.5
7832.47
7832.43
7832.39
7832.34
7832.28
7832.2
7832.08
7831.91
7832.6
7832.55
7832.55
7832.54
7832.53
7832.51
7832.49
7832.46
7832.44
7832.4
7832.36
7832.31
7832.25
7832.17
7832.05
7831.86
7832.56
7832.52
7832.51
7832.5
7832.49
7832.48
7832.46
7832.44
7832.41
7832.38
7832.35
7832.3
7832.26
7832.19
7832.1
7831.96
7832.52
7832.5
7832.5
7832.49
7832.48
7832.46
7832.45
7832.43
7832.41
7832.38
7832.35
7832.31
7832.27
7832.23
7832.17
7832.07
7832.5
7832.5
7832.5
7832.49
7832.48
7832.46
7832.45
7832.43
7832.41
7832.38
7832.35
7832.31
7832.27
7832.23
7832.17
7832.07
7832.5
)
;

boundaryField
{
    wireUpstream
    {
        type            calculated;
        value           nonuniform List<scalar> 
16
(
7832.48
7832.48
7832.47
7832.46
7832.45
7832.44
7832.42
7832.4
7832.37
7832.35
7832.32
7832.29
7832.25
7832.23
7832.21
7832.49
)
;
    }
    wireDownstream
    {
        type            calculated;
        value           nonuniform List<scalar> 
16
(
7823.53
7823.56
7823.67
7823.76
7823.92
7824.05
7824.25
7824.38
7824.55
7824.57
7824.62
7824.3
7823.85
7822.21
7820.05
7823.49
)
;
    }
    wireTopContact
    {
        type            calculated;
        value           nonuniform List<scalar> 
122
(
7820.37
7820.52
7820.57
7820.58
7820.56
7820.54
7820.5
7820.46
7820.43
7820.39
7820.36
7820.34
7820.32
7820.31
7820.29
7820.28
7820.28
7820.27
7820.27
7820.26
7820.26
7820.26
7820.26
7820.25
7820.25
7820.23
7820.22
7820.19
7820.16
7820.12
7820.07
7820.01
7819.92
7819.81
7819.69
7819.56
7819.41
7819.25
7819.08
7818.91
7818.72
7818.54
7818.37
7818.23
7818.14
7818.15
7818.33
7818.84
7820.34
7823.43
7827.73
7833.26
7839.86
7847.39
7855.61
7864.31
7872.9
7880.86
7886.46
7887.07
7885.14
7881.54
7876.95
7872.03
7867.37
7863.04
7859.23
7855.91
7853.11
7850.8
7848.87
7847.24
7845.87
7844.7
7843.7
7842.83
7842.07
7841.4
7840.81
7840.27
7839.79
7839.35
7838.93
7838.55
7838.19
7837.85
7837.53
7837.22
7836.93
7836.65
7836.38
7836.12
7835.87
7835.63
7835.4
7835.18
7834.96
7834.75
7834.55
7834.35
7834.17
7833.98
7833.81
7833.64
7833.47
7833.31
7833.15
7833
7832.85
7832.71
7832.57
7832.44
7832.32
7832.2
7832.09
7831.99
7831.91
7831.86
7831.95
7832.03
7832.03
7820.17
)
;
    }
    front
    {
        type            wedge;
    }
    back
    {
        type            wedge;
    }
}


// ************************************************************************* //
