/*--------------------------------*- C++ -*----------------------------------*\
| =========                 |                                                 |
| \\      /  F ield         | foam-extend: Open Source CFD                    |
|  \\    /   O peration     | Version:     4.1-20200408                       |
|   \\  /    A nd           | Web:         http://www.foam-extend.org         |
|    \\/     M anipulation  |                                                 |
\*---------------------------------------------------------------------------*/
FoamFile
{
    version     2.0;
    format      ascii;
    class       volSymmTensorField;
    location    "0.0185000";
    object      sigmaCauchy;
}
// * * * * * * * * * * * * * * * * * * * * * * * * * * * * * * * * * * * * * //

dimensions      [1 -1 -2 0 0 0 0];

internalField   nonuniform List<symmTensor> 
1952
(
(4.17401e+08 -457576 -0.0760195 7.30413e+07 -0.10864 7.39712e+07)
(4.15424e+08 -571877 -0.0489827 7.32515e+07 0.12006 7.40676e+07)
(4.10617e+08 -977774 0.104545 7.11663e+07 0.633486 7.46038e+07)
(4.0596e+08 -1.01615e+06 0.330026 7.09917e+07 -0.34966 7.45825e+07)
(3.99206e+08 -1.47127e+06 -0.113499 6.79089e+07 -2.6119 7.52264e+07)
(3.93015e+08 -1.45156e+06 -0.552408 6.72966e+07 -0.408619 7.48969e+07)
(3.85913e+08 -1.94305e+06 0.208223 6.30975e+07 5.3359 7.51092e+07)
(3.81196e+08 -1.80212e+06 0.737487 6.19662e+07 1.24388 7.39899e+07)
(3.78488e+08 -2.39281e+06 0.0498761 5.65616e+07 -5.84668 7.30859e+07)
(3.84288e+08 -2.09987e+06 -1.24993 5.45553e+07 0.710873 6.94485e+07)
(3.94918e+08 -2.84198e+06 -0.737855 4.77126e+07 5.19141 6.53932e+07)
(4.28064e+08 -3.13566e+06 1.47603 4.37862e+07 0.132122 5.68958e+07)
(4.81578e+08 -4.60025e+06 -0.990939 3.34022e+07 -1.50154 4.3928e+07)
(6.13563e+08 -6.93833e+06 1.24208 2.47245e+07 -2.85009 1.88337e+07)
(8.12638e+08 -1.81739e+07 -3.42333 5.71334e+06 -5.83975 -3.09062e+07)
(4.18769e+08 -140572 -0.0147954 7.4098e+07 0.0738286 7.38796e+07)
(4.15227e+08 -1.77247e+06 -0.178546 5.75944e+07 -0.0344617 5.84162e+07)
(4.13231e+08 -2.50126e+06 -0.117127 5.76861e+07 -0.0785246 5.85661e+07)
(4.08475e+08 -3.91563e+06 0.226692 5.57723e+07 0.0660729 5.90307e+07)
(4.03799e+08 -4.47783e+06 0.712629 5.54885e+07 0.00216383 5.91286e+07)
(3.97047e+08 -6.06026e+06 -0.248097 5.25538e+07 -1.52797 5.97345e+07)
(3.90825e+08 -6.51502e+06 -1.19354 5.18123e+07 -0.374396 5.94858e+07)
(3.83758e+08 -8.27685e+06 0.391453 4.7706e+07 4.04589 5.96422e+07)
(3.78877e+08 -8.58046e+06 1.48137 4.62954e+07 0.978753 5.85063e+07)
(3.76118e+08 -1.07359e+07 0.0800371 4.07425e+07 -4.75746 5.73666e+07)
(3.81575e+08 -1.09477e+07 -2.5311 3.8267e+07 0.562861 5.36128e+07)
(3.91017e+08 -1.3819e+07 -1.45828 3.0692e+07 4.16681 4.90514e+07)
(4.22942e+08 -1.56287e+07 2.99042 2.62063e+07 0.308373 3.99866e+07)
(4.74355e+08 -2.01115e+07 -1.97731 1.55344e+07 -0.449592 2.60052e+07)
(6.01788e+08 -2.39301e+07 1.79975 7.7424e+06 -2.84602 -231841)
(7.89689e+08 -3.25395e+07 -8.22966 -5.63823e+06 -6.37363 -5.16839e+07)
(4.16553e+08 -642353 -0.0356295 5.84916e+07 -0.373165 5.83371e+07)
(4.12503e+08 -2.64253e+06 -0.204002 4.4241e+07 0.0251918 4.4994e+07)
(4.1049e+08 -3.89328e+06 -0.133127 4.4292e+07 -0.245621 4.51863e+07)
(4.05772e+08 -5.91019e+06 0.243832 4.25415e+07 -0.396686 4.56519e+07)
(4.01064e+08 -6.99641e+06 0.759898 4.22419e+07 0.309753 4.58239e+07)
(3.94308e+08 -9.23085e+06 -0.268992 3.95193e+07 -0.646606 4.65132e+07)
(3.88027e+08 -1.02191e+07 -1.27387 3.8813e+07 -0.372719 4.63477e+07)
(3.80953e+08 -1.2731e+07 0.364564 3.49685e+07 3.0209 4.65893e+07)
(3.7589e+08 -1.36389e+07 1.48413 3.36479e+07 0.822976 4.55561e+07)
(3.73053e+08 -1.66617e+07 0.0604184 2.84248e+07 -3.90113 4.4458e+07)
(3.78126e+08 -1.75925e+07 -2.56735 2.6271e+07 0.37661 4.08733e+07)
(3.86507e+08 -2.14983e+07 -1.42165 1.92278e+07 3.41877 3.64753e+07)
(4.17632e+08 -2.39471e+07 3.06503 1.58275e+07 0.508184 2.76736e+07)
(4.6811e+08 -2.89894e+07 -1.96839 7.01529e+06 0.265609 1.40156e+07)
(5.94904e+08 -3.20253e+07 1.42791 2.73863e+06 -2.88909 -1.1056e+07)
(7.8594e+08 -3.66378e+07 -8.54423 -6.60431e+06 -6.57994 -5.99388e+07)
(4.13796e+08 -1.00561e+06 -0.0434094 4.50386e+07 -0.741693 4.49145e+07)
(4.084e+08 -3.4774e+06 -0.226081 3.26235e+07 0.0714241 3.3328e+07)
(4.06356e+08 -5.25781e+06 -0.145256 3.26902e+07 -0.379007 3.35618e+07)
(4.01656e+08 -7.84275e+06 0.259438 3.10965e+07 -0.758843 3.40559e+07)
(3.96909e+08 -9.45825e+06 0.800597 3.08724e+07 0.560517 3.43009e+07)
(3.90113e+08 -1.22934e+07 -0.288776 2.8402e+07 0.0359991 3.51386e+07)
(3.83732e+08 -1.38189e+07 -1.34726 2.78658e+07 -0.385664 3.50864e+07)
(3.7658e+08 -1.69688e+07 0.335555 2.44015e+07 2.2491 3.54917e+07)
(3.71279e+08 -1.84579e+07 1.47965 2.34024e+07 0.736745 3.46334e+07)
(3.68272e+08 -2.2085e+07 0.0414245 1.87706e+07 -3.26898 3.3714e+07)
(3.72913e+08 -2.35775e+07 -2.58225 1.7292e+07 0.212153 3.04279e+07)
(3.8038e+08 -2.80307e+07 -1.37188 1.12594e+07 2.9105 2.64665e+07)
(4.11055e+08 -3.0484e+07 3.1439 9.21579e+06 0.651283 1.82039e+07)
(4.61406e+08 -3.50842e+07 -1.95613 2.27949e+06 0.715522 5.23746e+06)
(5.89055e+08 -3.64921e+07 1.1473 443895 -2.85597 -1.85095e+07)
(7.82963e+08 -3.82112e+07 -8.5952 -6.84833e+06 -6.68407 -6.55513e+07)
(4.09677e+08 -1.36767e+06 -0.0496451 3.33566e+07 -1.0272 3.32454e+07)
(4.03279e+08 -4.22378e+06 -0.24708 2.27549e+07 0.106234 2.34106e+07)
(4.0119e+08 -6.48428e+06 -0.156994 2.2848e+07 -0.480035 2.36567e+07)
(3.96502e+08 -9.55089e+06 0.274165 2.14361e+07 -1.02883 2.42325e+07)
(3.91708e+08 -1.16452e+07 0.836425 2.13568e+07 0.754292 2.45497e+07)
(3.84866e+08 -1.49839e+07 -0.307405 1.91762e+07 0.539237 2.55658e+07)
(3.78397e+08 -1.69693e+07 -1.41612 1.89238e+07 -0.400939 2.5693e+07)
(3.71149e+08 -2.06093e+07 0.307923 1.59327e+07 1.70097 2.63148e+07)
(3.65699e+08 -2.25444e+07 1.48127 1.53906e+07 0.680515 2.57351e+07)
(3.62593e+08 -2.65175e+07 0.0241058 1.15351e+07 -2.8378 2.5107e+07)
(3.66874e+08 -2.83244e+07 -2.59088 1.08394e+07 0.115303 2.22074e+07)
(3.73844e+08 -3.29495e+07 -1.32268 5.99119e+06 2.62047 1.89679e+07)
(4.04727e+08 -3.507e+07 3.20724 5.20518e+06 0.722295 1.14086e+07)
(4.55904e+08 -3.89387e+07 -1.942 -78256.8 0.942921 -663430)
(5.8558e+08 -3.89892e+07 0.986134 -495039 -2.75999 -2.31096e+07)
(7.83539e+08 -3.89609e+07 -8.57247 -6.65497e+06 -6.72092 -6.84455e+07)
(4.04533e+08 -1.69568e+06 -0.0557986 2.34146e+07 -1.23812 2.33114e+07)
(3.97133e+08 -4.88088e+06 -0.269675 1.45444e+07 0.130165 1.51543e+07)
(3.95013e+08 -7.54824e+06 -0.171739 1.47023e+07 -0.549063 1.54235e+07)
(3.90335e+08 -1.10175e+07 0.288127 1.34764e+07 -1.2102 1.6092e+07)
(3.85497e+08 -1.3518e+07 0.872825 1.35747e+07 0.886659 1.64854e+07)
(3.78622e+08 -1.72678e+07 -0.324189 1.17002e+07 0.870212 1.76888e+07)
(3.72088e+08 -1.96038e+07 -1.4843 1.17823e+07 -0.411884 1.80271e+07)
(3.6477e+08 -2.36161e+07 0.283713 9.27944e+06 1.36141 1.88916e+07)
(3.59267e+08 -2.58215e+07 1.48345 9.25146e+06 0.651036 1.86234e+07)
(3.56162e+08 -2.9937e+07 0.00806503 6.14872e+06 -2.58611 1.83216e+07)
(3.60241e+08 -3.18645e+07 -2.5174 6.21445e+06 0.0763721 1.5872e+07)
(3.67084e+08 -3.64495e+07 -1.26741 2.39522e+06 2.49271 1.32681e+07)
(3.98618e+08 -3.80562e+07 3.25048 2.6266e+06 0.72889 6.43845e+06)
(4.51073e+08 -4.11861e+07 -1.9278 -1.46894e+06 1.01646 -4.78658e+06)
(5.83037e+08 -4.01934e+07 0.884597 -1.04871e+06 -2.66237 -2.61223e+07)
(7.84614e+08 -3.92515e+07 -8.51312 -6.54594e+06 -6.718 -7.01542e+07)
(3.98374e+08 -1.97167e+06 -0.0615152 1.51469e+07 -1.37848 1.50413e+07)
(3.90181e+08 -5.42718e+06 -0.289711 7.65909e+06 0.144692 8.23736e+06)
(3.88058e+08 -8.41961e+06 -0.186531 7.94612e+06 -0.591431 8.56848e+06)
(3.83393e+08 -1.2227e+07 0.300989 6.87067e+06 -1.32164 9.30461e+06)
(3.78518e+08 -1.50529e+07 0.905789 7.19845e+06 0.973708 9.79951e+06)
(3.71649e+08 -1.91152e+07 -0.339162 5.61058e+06 1.06302 1.12023e+07)
(3.65095e+08 -2.17075e+07 -1.54835 6.10535e+06 -0.429682 1.17775e+07)
(3.57768e+08 -2.59633e+07 0.261947 4.03229e+06 1.19898 1.29335e+07)
(3.52398e+08 -2.83169e+07 1.48474 4.64696e+06 0.682925 1.30136e+07)
(3.4939e+08 -3.24323e+07 -0.00636625 2.12566e+06 -2.47819 1.30719e+07)
(3.53347e+08 -3.43574e+07 -2.46131 2.97474e+06 0.0986207 1.14334e+07)
(3.60441e+08 -3.87752e+07 -1.22869 -37844 2.51972 9.12219e+06)
(3.93032e+08 -3.98706e+07 3.27082 1.06579e+06 0.671327 3.00415e+06)
(4.47029e+08 -4.24015e+07 -1.91428 -2.27363e+06 0.971076 -7.50992e+06)
(5.81361e+08 -4.06867e+07 0.826551 -1.33239e+06 -2.56543 -2.78813e+07)
(7.86331e+08 -3.93139e+07 -8.44114 -6.46292e+06 -6.68312 -7.08478e+07)
(3.91429e+08 -2.19856e+06 -0.0683391 8.23868e+06 -1.46398 8.11915e+06)
(3.82543e+08 -5.85104e+06 -0.307105 2.00093e+06 0.151103 2.55682e+06)
(3.8043e+08 -9.09869e+06 -0.200136 2.42684e+06 -0.610023 2.95681e+06)
(3.75776e+08 -1.3168e+07 0.312752 1.48339e+06 -1.36882 3.75539e+06)
(3.70901e+08 -1.62262e+07 0.934305 2.06188e+06 1.01468 4.37267e+06)
(3.64079e+08 -2.04888e+07 -0.353024 749221 1.13098 5.9681e+06)
(3.57566e+08 -2.32595e+07 -1.60352 1.65326e+06 -0.441811 6.79642e+06)
(3.50302e+08 -2.7611e+07 0.241408 -17357.2 1.18502 8.26891e+06)
(3.45192e+08 -3.00477e+07 1.47901 1.1973e+06 0.726267 8.69139e+06)
(3.424e+08 -3.41102e+07 -0.0191747 -822637 -2.49532 9.11493e+06)
(3.46401e+08 -3.59716e+07 -2.49297 699848 0.161256 8.269e+06)
(3.54e+08 -4.01556e+07 -1.20613 -1.66028e+06 2.6614 6.2759e+06)
(3.8783e+08 -4.08227e+07 3.26511 83577.3 0.590761 775875)
(4.43486e+08 -4.29601e+07 -1.90169 -2.74657e+06 0.823851 -9.15772e+06)
(5.80077e+08 -4.0756e+07 0.795767 -1.51392e+06 -2.48689 -2.87115e+07)
(7.88015e+08 -3.92711e+07 -8.36628 -6.41957e+06 -6.61815 -7.08366e+07)
(3.83796e+08 -2.37902e+06 -0.0707138 2.55846e+06 -1.49896 2.42593e+06)
(3.74428e+08 -6.16573e+06 -0.324081 -2.45927e+06 0.149876 -1.91654e+06)
(3.72337e+08 -9.60353e+06 -0.212458 -1.8957e+06 -0.606807 -1.45233e+06)
(3.67725e+08 -1.38576e+07 0.323174 -2.73028e+06 -1.35593 -583343)
(3.62899e+08 -1.70615e+07 0.958513 -1.89094e+06 1.01187 188771)
(3.56158e+08 -2.1451e+07 -0.3659 -2.98223e+06 1.08338 1.9391e+06)
(3.49767e+08 -2.43258e+07 -1.65505 -1.70809e+06 -0.447673 3.02595e+06)
(3.42624e+08 -2.87006e+07 0.221991 -3.04028e+06 1.3021 4.79665e+06)
(3.37853e+08 -3.11555e+07 1.47409 -1.36599e+06 0.769481 5.49518e+06)
(3.35357e+08 -3.51105e+07 -0.0312626 -2.93443e+06 -2.61595 6.23432e+06)
(3.3949e+08 -3.68721e+07 -2.5267 -921936 0.236785 5.9219e+06)
(3.47794e+08 -4.08553e+07 -1.19433 -2.7735e+06 2.86621 4.30953e+06)
(3.82946e+08 -4.1204e+07 3.25169 -601756 0.502057 -623621)
(4.40285e+08 -4.31042e+07 -1.89028 -3.07289e+06 0.60856 -1.0086e+07)
(5.79027e+08 -4.06203e+07 0.771979 -1.66178e+06 -2.42837 -2.8919e+07)
(7.89635e+08 -3.91814e+07 -8.29499 -6.40194e+06 -6.53458 -7.03675e+07)
(3.75687e+08 -2.51617e+06 -0.075287 -1.91399e+06 -1.48652 -2.06081e+06)
(3.65931e+08 -6.38164e+06 -0.339507 -6.01169e+06 0.1432 -5.47763e+06)
(3.63875e+08 -9.94999e+06 -0.224239 -5.32753e+06 -0.586076 -4.94938e+06)
(3.59332e+08 -1.43123e+07 0.332836 -6.0542e+06 -1.29496 -3.99e+06)
(3.54593e+08 -1.76147e+07 0.979062 -4.97489e+06 0.974939 -3.07581e+06)
(3.47963e+08 -2.20679e+07 -0.378338 -5.89363e+06 0.950063 -1.19396e+06)
(3.41755e+08 -2.49911e+07 -1.70368 -4.28225e+06 -0.451292 133945)
(3.34796e+08 -2.93613e+07 0.203622 -5.35409e+06 1.51091 2.15993e+06)
(3.3047e+08 -3.17584e+07 1.4893 -3.29097e+06 0.819956 3.09262e+06)
(3.28356e+08 -3.5604e+07 -0.0422254 -4.49174e+06 -2.80834 4.14066e+06)
(3.32689e+08 -3.72777e+07 -2.56314 -2.13061e+06 0.3337 4.28992e+06)
(3.41779e+08 -4.10672e+07 -1.1942 -3.61693e+06 3.13074 3.02236e+06)
(3.78284e+08 -4.12062e+07 3.23931 -1.12869e+06 0.405631 -1.40727e+06)
(4.37287e+08 -4.29743e+07 -1.88015 -3.36054e+06 0.342095 -1.05182e+07)
(5.78043e+08 -4.03366e+07 0.75104 -1.80652e+06 -2.38867 -2.86872e+07)
(7.91042e+08 -3.90506e+07 -8.22662 -6.41231e+06 -6.43606 -6.9585e+07)
(3.67185e+08 -2.61741e+06 -0.0813026 -5.48644e+06 -1.43883 -5.64367e+06)
(3.57232e+08 -6.50982e+06 -0.355334 -8.75114e+06 0.132147 -8.2235e+06)
(3.5523e+08 -1.0157e+07 -0.234847 -7.98261e+06 -0.549634 -7.63184e+06)
(3.5078e+08 -1.45665e+07 0.342678 -8.5965e+06 -1.1922 -6.56657e+06)
(3.46155e+08 -1.79296e+07 0.998957 -7.34222e+06 0.908509 -5.57272e+06)
(3.39678e+08 -2.23883e+07 -0.390705 -8.126e+06 0.748344 -3.55903e+06)
(3.33691e+08 -2.532e+07 -1.75256 -6.24233e+06 -0.45295 -2.03753e+06)
(3.26991e+08 -2.96571e+07 0.187363 -7.14613e+06 1.78705 183827)
(3.23161e+08 -3.19406e+07 1.5158 -4.737e+06 0.878323 1.35831e+06)
(3.21402e+08 -3.57131e+07 -0.052845 -5.69761e+06 -3.05281 2.61165e+06)
(3.26001e+08 -3.7332e+07 -2.60222 -3.05156e+06 0.45303 3.23522e+06)
(3.35957e+08 -4.09447e+07 -1.20115 -4.30888e+06 3.4447 2.26532e+06)
(3.7377e+08 -4.09589e+07 3.2285 -1.58467e+06 0.310527 -1.76867e+06)
(4.34407e+08 -4.26686e+07 -1.87145 -3.63297e+06 0.0390014 -1.06075e+07)
(5.77045e+08 -3.99792e+07 0.723083 -1.9514e+06 -2.36597 -2.81672e+07)
(7.92176e+08 -3.88963e+07 -8.16189 -6.44363e+06 -6.32777 -6.86325e+07)
(3.58459e+08 -2.67951e+06 -0.085182 -8.26113e+06 -1.36171 -8.42192e+06)
(3.4839e+08 -6.57592e+06 -0.370769 -1.08718e+07 0.11778 -1.03504e+07)
(3.46457e+08 -1.02659e+07 -0.246569 -1.00425e+07 -0.501924 -9.70045e+06)
(3.42114e+08 -1.46868e+07 0.352826 -1.05549e+07 -1.06271 -8.54042e+06)
(3.37631e+08 -1.8094e+07 1.01373 -9.16732e+06 0.819184 -7.48618e+06)
(3.31339e+08 -2.25096e+07 -0.403643 -9.84176e+06 0.495963 -5.34729e+06)
(3.256e+08 -2.54522e+07 -1.79918 -7.73426e+06 -0.451438 -3.66821e+06)
(3.19233e+08 -2.97062e+07 0.170468 -8.52359e+06 2.11686 -1.25718e+06)
(3.15932e+08 -3.18511e+07 1.56324 -5.79933e+06 0.945582 166830)
(3.14505e+08 -3.55666e+07 -0.0620881 -6.62698e+06 -3.33993 1.54656e+06)
(3.19447e+08 -3.7167e+07 -2.65237 -3.73517e+06 0.59783 2.71557e+06)
(3.30279e+08 -4.06382e+07 -1.20912 -4.86126e+06 3.80742 1.9669e+06)
(3.69355e+08 -4.05381e+07 3.21565 -1.94553e+06 0.212685 -1.76234e+06)
(4.31572e+08 -4.2221e+07 -1.86364 -3.84908e+06 -0.30986 -1.03429e+07)
(5.75963e+08 -3.95529e+07 0.690136 -2.07131e+06 -2.35637 -2.74647e+07)
(7.93018e+08 -3.87027e+07 -8.09866 -6.47192e+06 -6.21418 -6.7614e+07)
(3.49583e+08 -2.71058e+06 -0.0908401 -1.04192e+07 -1.26202 -1.05796e+07)
(3.39511e+08 -6.58317e+06 -0.387545 -1.24161e+07 0.100424 -1.18988e+07)
(3.37662e+08 -1.02867e+07 -0.257471 -1.15481e+07 -0.444028 -1.11909e+07)
(3.33425e+08 -1.46775e+07 0.362351 -1.19609e+07 -0.909932 -9.94985e+06)
(3.29118e+08 -1.811e+07 1.02596 -1.04846e+07 0.703925 -8.83002e+06)
(3.23035e+08 -2.24383e+07 -0.416655 -1.10332e+07 0.199721 -6.58999e+06)
(3.17576e+08 -2.53807e+07 -1.84103 -8.7835e+06 -0.430473 -4.76107e+06)
(3.11648e+08 -2.95138e+07 0.152756 -9.411e+06 2.48471 -2.14328e+06)
(3.08854e+08 -3.15308e+07 1.61902 -6.50984e+06 0.969838 -500054)
(3.07656e+08 -3.52323e+07 -0.0707955 -7.21159e+06 -3.71018 1.22838e+06)
(3.12974e+08 -3.68587e+07 -2.73778 -4.17447e+06 0.721013 2.69747e+06)
(3.24779e+08 -4.02088e+07 -1.21496 -5.15e+06 4.20647 2.1293e+06)
(3.65069e+08 -4.00019e+07 3.20256 -2.13914e+06 0.118489 -1.34995e+06)
(4.28762e+08 -4.17227e+07 -1.85626 -3.93258e+06 -0.710495 -9.69018e+06)
(5.74762e+08 -3.91299e+07 0.653322 -2.14595e+06 -2.35798 -2.65254e+07)
(7.93481e+08 -3.85265e+07 -8.03901 -6.47857e+06 -6.0872 -6.64471e+07)
(3.40665e+08 -2.71604e+06 -0.0938715 -1.20023e+07 -1.14276 -1.21586e+07)
(3.30643e+08 -6.55889e+06 -0.406327 -1.33627e+07 0.0800516 -1.28496e+07)
(3.28891e+08 -1.02526e+07 -0.270301 -1.24754e+07 -0.375641 -1.20828e+07)
(3.24765e+08 -1.45961e+07 0.372566 -1.27937e+07 -0.734207 -1.079e+07)
(3.2066e+08 -1.803e+07 1.04111 -1.12878e+07 0.563934 -9.62632e+06)
(3.14809e+08 -2.22526e+07 -0.430474 -1.17012e+07 -0.141668 -7.27337e+06)
(3.09645e+08 -2.51735e+07 -1.88179 -9.40755e+06 -0.394544 -5.31753e+06)
(3.04206e+08 -2.92001e+07 0.132097 -9.85404e+06 2.88914 -2.52674e+06)
(3.01856e+08 -3.11323e+07 1.63345 -6.9474e+06 0.946388 -691691)
(3.00812e+08 -3.48531e+07 -0.0831207 -7.50535e+06 -4.14306 1.46386e+06)
(3.06595e+08 -3.64661e+07 -2.79859 -4.43962e+06 0.818426 2.86349e+06)
(3.19418e+08 -3.97202e+07 -1.21912 -5.25901e+06 4.61439 2.51604e+06)
(3.60824e+08 -3.94711e+07 3.19123 -2.27104e+06 0.0313903 -799410)
(4.25877e+08 -4.12583e+07 -1.85002 -3.9884e+06 -1.12543 -8.92973e+06)
(5.73404e+08 -3.87813e+07 0.608268 -2.23514e+06 -2.37272 -2.55461e+07)
(7.93684e+08 -3.84026e+07 -7.98863 -6.48001e+06 -5.95987 -6.53293e+07)
(3.31759e+08 -2.70342e+06 -0.0988705 -1.29782e+07 -1.00307 -1.31315e+07)
(3.21825e+08 -6.50894e+06 -0.425636 -1.40567e+07 0.0582785 -1.35425e+07)
(3.20187e+08 -1.01718e+07 -0.284689 -1.31513e+07 -0.304271 -1.27189e+07)
(3.16172e+08 -1.44565e+07 0.383659 -1.3397e+07 -0.549537 -1.13848e+07)
(3.12304e+08 -1.78648e+07 1.06309 -1.18719e+07 0.412709 -1.01444e+07)
(3.06707e+08 -2.19898e+07 -0.444861 -1.21582e+07 -0.50109 -7.68815e+06)
(3.01832e+08 -2.48764e+07 -1.92724 -9.87058e+06 -0.352531 -5.61604e+06)
(2.9691e+08 -2.88331e+07 0.112685 -1.0158e+07 3.31022 -2.66481e+06)
(2.94949e+08 -3.07096e+07 1.63535 -7.2682e+06 0.921335 -675915)
(2.94037e+08 -3.4456e+07 -0.0978327 -7.72801e+06 -4.58844 1.86723e+06)
(3.00328e+08 -3.60458e+07 -2.81998 -4.65507e+06 0.926293 3.2118e+06)
(3.14148e+08 -3.92417e+07 -1.2231 -5.36372e+06 5.05237 3.11533e+06)
(3.56608e+08 -3.89966e+07 3.1794 -2.42221e+06 -0.0547657 -146878)
(4.22937e+08 -4.0839e+07 -1.84498 -4.07459e+06 -1.54927 -8.10886e+06)
(5.71896e+08 -3.8464e+07 0.556701 -2.35114e+06 -2.39752 -2.45537e+07)
(7.93642e+08 -3.82802e+07 -7.94123 -6.49032e+06 -5.83091 -6.42136e+07)
(3.2291e+08 -2.67571e+06 -0.105793 -1.36909e+07 -0.856426 -1.38423e+07)
(3.13093e+08 -6.44605e+06 -0.447307 -1.45612e+07 0.0355757 -1.40414e+07)
(3.1158e+08 -1.00672e+07 -0.300491 -1.36354e+07 -0.230658 -1.31508e+07)
(3.07688e+08 -1.42879e+07 0.39628 -1.38216e+07 -0.357587 -1.17733e+07)
(3.0406e+08 -1.76513e+07 1.09231 -1.22812e+07 0.250688 -1.04197e+07)
(2.9872e+08 -2.17e+07 -0.460624 -1.24641e+07 -0.871938 -7.91868e+06)
(2.94114e+08 -2.45507e+07 -1.97367 -1.02066e+07 -0.305584 -5.73376e+06)
(2.89703e+08 -2.84227e+07 0.0858641 -1.03631e+07 3.74228 -2.64708e+06)
(2.88091e+08 -3.03052e+07 1.59589 -7.48188e+06 0.90184 -558887)
(2.87276e+08 -3.41073e+07 -0.115299 -7.89491e+06 -5.03671 2.33305e+06)
(2.94129e+08 -3.56405e+07 -2.83191 -4.80219e+06 1.04781 3.71089e+06)
(3.08924e+08 -3.88175e+07 -1.22395 -5.44916e+06 5.50295 3.83558e+06)
(3.52387e+08 -3.85848e+07 3.17137 -2.53349e+06 -0.138393 599267)
(4.19941e+08 -4.04778e+07 -1.84056 -4.14096e+06 -1.98078 -7.21764e+06)
(5.70271e+08 -3.82025e+07 0.497688 -2.43852e+06 -2.43023 -2.35026e+07)
(7.93377e+08 -3.81743e+07 -7.89687 -6.50823e+06 -5.69649 -6.3016e+07)
(3.14153e+08 -2.64233e+06 -0.109142 -1.42057e+07 -0.705818 -1.4356e+07)
(3.04452e+08 -6.36851e+06 -0.470749 -1.48393e+07 0.0113839 -1.43049e+07)
(3.03077e+08 -9.94009e+06 -0.317031 -1.38909e+07 -0.154447 -1.33467e+07)
(2.99315e+08 -1.4095e+07 0.409997 -1.40437e+07 -0.157132 -1.19281e+07)
(2.95937e+08 -1.74157e+07 1.12501 -1.25038e+07 0.0869543 -1.04816e+07)
(2.90846e+08 -2.13969e+07 -0.477398 -1.26297e+07 -1.25587 -7.9567e+06)
(2.86543e+08 -2.42087e+07 -2.02174 -1.04319e+07 -0.264081 -5.68731e+06)
(2.826e+08 -2.79946e+07 0.0538645 -1.04974e+07 4.1858 -2.49937e+06)
(2.81223e+08 -2.99226e+07 1.53506 -7.68167e+06 0.892217 -387280)
(2.80578e+08 -3.37815e+07 -0.134213 -8.04095e+06 -5.48098 2.81211e+06)
(2.88032e+08 -3.52641e+07 -2.8284 -4.97714e+06 1.17839 4.22442e+06)
(3.03732e+08 -3.84507e+07 -1.22035 -5.58014e+06 5.95239 4.53087e+06)
(3.4818e+08 -3.82373e+07 3.16158 -2.67115e+06 -0.228031 1.3271e+06)
(4.16888e+08 -4.01818e+07 -1.8372 -4.24542e+06 -2.40947 -6.36011e+06)
(5.68533e+08 -3.80049e+07 0.432638 -2.53212e+06 -2.45747 -2.24787e+07)
(7.92945e+08 -3.81036e+07 -7.85848 -6.5318e+06 -5.56279 -6.1854e+07)
(3.05488e+08 -2.60363e+06 -0.114885 -1.44813e+07 -0.548859 -1.46332e+07)
(2.95937e+08 -6.29951e+06 -0.494921 -1.50037e+07 -0.0134569 -1.44488e+07)
(2.947e+08 -9.82498e+06 -0.335398 -1.40395e+07 -0.0781179 -1.34376e+07)
(2.91066e+08 -1.39363e+07 0.425277 -1.4196e+07 0.0446697 -1.20017e+07)
(2.87924e+08 -1.72136e+07 1.16482 -1.26738e+07 -0.0732483 -1.04913e+07)
(2.83088e+08 -2.11681e+07 -0.495364 -1.2775e+07 -1.63692 -7.96444e+06)
(2.79076e+08 -2.39308e+07 -2.07707 -1.06588e+07 -0.226305 -5.63365e+06)
(2.75548e+08 -2.76451e+07 0.0129115 -1.06457e+07 4.62084 -2.3857e+06)
(2.74356e+08 -2.96198e+07 1.42697 -7.92138e+06 0.877855 -256868)
(2.73882e+08 -3.35499e+07 -0.155182 -8.24903e+06 -5.92125 3.25782e+06)
(2.81957e+08 -3.49816e+07 -2.83098 -5.22744e+06 1.30869 4.71299e+06)
(2.98538e+08 -3.81405e+07 -1.21385 -5.7884e+06 6.39831 5.17902e+06)
(3.43948e+08 -3.79469e+07 3.15369 -2.86758e+06 -0.316989 2.00475e+06)
(4.13769e+08 -3.99237e+07 -1.83465 -4.40046e+06 -2.83274 -5.55924e+06)
(5.66701e+08 -3.78257e+07 0.364182 -2.64903e+06 -2.4843 -2.15103e+07)
(7.92395e+08 -3.80338e+07 -7.82234 -6.56219e+06 -5.42998 -6.0731e+07)
(2.96954e+08 -2.56802e+06 -0.123383 -1.46295e+07 -0.389936 -1.47844e+07)
(2.8749e+08 -6.24547e+06 -0.521227 -1.5092e+07 -0.0388951 -1.45101e+07)
(2.86385e+08 -9.737e+06 -0.354255 -1.40979e+07 -0.00268929 -1.34574e+07)
(2.82886e+08 -1.38164e+07 0.441459 -1.4292e+07 0.250137 -1.19901e+07)
(2.79969e+08 -1.70431e+07 1.21015 -1.27273e+07 -0.219778 -1.04269e+07)
(2.75385e+08 -2.09867e+07 -0.513906 -1.28846e+07 -2.0229 -7.88884e+06)
(2.7173e+08 -2.36754e+07 -2.13828 -1.07248e+07 -0.221377 -5.49118e+06)
(2.68561e+08 -2.73135e+07 -0.0300819 -1.07643e+07 5.07882 -2.20174e+06)
(2.67441e+08 -2.93889e+07 1.28533 -8.0512e+06 0.871043 276263)
(2.67213e+08 -3.33851e+07 -0.177681 -8.42308e+06 -6.36923 3.76688e+06)
(2.76008e+08 -3.47534e+07 -2.83036 -5.33796e+06 1.47081 5.29754e+06)
(2.93403e+08 -3.78751e+07 -1.20332 -5.95777e+06 6.84908 5.83587e+06)
(3.39742e+08 -3.76922e+07 3.14454 -2.98504e+06 -0.419671 2.70971e+06)
(4.10628e+08 -3.96913e+07 -1.83274 -4.54379e+06 -3.25287 -4.77429e+06)
(5.64792e+08 -3.76567e+07 0.29331 -2.7323e+06 -2.50531 -2.05611e+07)
(7.917e+08 -3.79618e+07 -7.78802 -6.60577e+06 -5.29696 -5.96369e+07)
(2.88488e+08 -2.5427e+06 -0.130263 -1.46924e+07 -0.229666 -1.48529e+07)
(2.79129e+08 -6.19888e+06 -0.54831 -1.50451e+07 -0.0645664 -1.4439e+07)
(2.78149e+08 -9.6726e+06 -0.374082 -1.40311e+07 0.074186 -1.33543e+07)
(2.74804e+08 -1.37112e+07 0.458735 -1.4272e+07 0.460571 -1.18402e+07)
(2.72099e+08 -1.69194e+07 1.25697 -1.26499e+07 -0.363573 -1.02383e+07)
(2.67792e+08 -2.08379e+07 -0.533784 -1.29311e+07 -2.41756 -7.68767e+06)
(2.64511e+08 -2.34815e+07 -2.21156 -1.06696e+07 -0.233726 -5.21154e+06)
(2.61565e+08 -2.71177e+07 -0.0577014 -1.08803e+07 5.56073 -1.9239e+06)
(2.6046e+08 -2.93145e+07 1.2603 -8.13294e+06 0.881941 1.02165e+06)
(2.60549e+08 -3.32837e+07 -0.199032 -8.60254e+06 -6.8194 4.29246e+06)
(2.70093e+08 -3.46127e+07 -2.83062 -5.43354e+06 1.63989 5.88665e+06)
(2.88279e+08 -3.77234e+07 -1.18886 -6.15126e+06 7.29665 6.45006e+06)
(3.35524e+08 -3.75186e+07 3.13101 -3.12104e+06 -0.529295 3.39064e+06)
(4.07445e+08 -3.95408e+07 -1.83139 -4.71732e+06 -3.67169 -4.01829e+06)
(5.62816e+08 -3.7527e+07 0.225706 -2.8269e+06 -2.5247 -1.96576e+07)
(7.90898e+08 -3.79106e+07 -7.75711 -6.65562e+06 -5.16386 -5.85748e+07)
(2.80102e+08 -2.52458e+06 -0.137816 -1.46276e+07 -0.0664509 -1.479e+07)
(2.70805e+08 -6.16985e+06 -0.576154 -1.49651e+07 -0.0901811 -1.43356e+07)
(2.69949e+08 -9.65349e+06 -0.392618 -1.39444e+07 0.151517 -1.32239e+07)
(2.66752e+08 -1.36494e+07 0.475785 -1.42297e+07 0.670781 -1.16693e+07)
(2.64249e+08 -1.68869e+07 1.2992 -1.25755e+07 -0.510336 -1.00389e+07)
(2.60221e+08 -2.07626e+07 -0.555224 -1.29724e+07 -2.81204 -7.47662e+06)
(2.5728e+08 -2.33889e+07 -2.29174 -1.06165e+07 -0.241038 -4.90718e+06)
(2.54495e+08 -2.70361e+07 -0.0770497 -1.09904e+07 6.04025 -1.65523e+06)
(2.53475e+08 -2.9365e+07 1.27462 -8.20025e+06 0.895139 1.68183e+06)
(2.53968e+08 -3.32862e+07 -0.220015 -8.7596e+06 -7.26572 4.8342e+06)
(2.64231e+08 -3.45445e+07 -2.82476 -5.51643e+06 1.79224 6.50274e+06)
(2.832e+08 -3.7647e+07 -1.17213 -6.30189e+06 7.73907 7.07229e+06)
(3.3135e+08 -3.73849e+07 3.1153 -3.2168e+06 -0.640615 4.10902e+06)
(4.04272e+08 -3.94073e+07 -1.83057 -4.85664e+06 -4.09169 -3.23364e+06)
(5.60822e+08 -3.73749e+07 0.159773 -2.89297e+06 -2.54286 -1.87431e+07)
(7.90016e+08 -3.78336e+07 -7.72539 -6.71358e+06 -5.03076 -5.75316e+07)
(2.71751e+08 -2.52008e+06 -0.144178 -1.45314e+07 0.0968106 -1.46942e+07)
(2.62503e+08 -6.16263e+06 -0.606644 -1.47998e+07 -0.115547 -1.41538e+07)
(2.61766e+08 -9.67407e+06 -0.412191 -1.37916e+07 0.231005 -1.30105e+07)
(2.58718e+08 -1.36293e+07 0.494079 -1.40828e+07 0.880899 -1.14189e+07)
(2.56414e+08 -1.69236e+07 1.34204 -1.24374e+07 -0.670474 -9.75306e+06)
(2.52719e+08 -2.07227e+07 -0.579294 -1.28603e+07 -3.22252 -7.12439e+06)
(2.501e+08 -2.33655e+07 -2.38485 -1.04746e+07 -0.228316 -4.49455e+06)
(2.47359e+08 -2.70691e+07 -0.084789 -1.09667e+07 6.56455 -1.06524e+06)
(2.46405e+08 -2.953e+07 1.34398 -8.17557e+06 0.93855 2.52128e+06)
(2.47426e+08 -3.33549e+07 -0.241689 -8.74121e+06 -7.73833 5.64113e+06)
(2.58419e+08 -3.45446e+07 -2.83123 -5.45244e+06 1.9348 7.39294e+06)
(2.78154e+08 -3.76513e+07 -1.15596 -6.27984e+06 8.20621 7.9238e+06)
(3.2722e+08 -3.73423e+07 3.10045 -3.1634e+06 -0.758932 5.05285e+06)
(4.01122e+08 -3.93697e+07 -1.82962 -4.87015e+06 -4.53464 -2.26956e+06)
(5.58808e+08 -3.73064e+07 0.0904777 -2.88835e+06 -2.55909 -1.77248e+07)
(7.88981e+08 -3.77984e+07 -7.69667 -6.75637e+06 -4.89005 -5.64101e+07)
(2.63417e+08 -2.52647e+06 -0.153795 -1.43643e+07 0.261458 -1.45234e+07)
(2.54172e+08 -6.17536e+06 -0.637672 -1.44143e+07 -0.141695 -1.3757e+07)
(2.53566e+08 -9.72539e+06 -0.432442 -1.34452e+07 0.315464 -1.25818e+07)
(2.50653e+08 -1.36479e+07 0.512651 -1.37167e+07 1.0983 -1.09688e+07)
(2.48577e+08 -1.69998e+07 1.38143 -1.216e+07 -0.854708 -9.25265e+06)
(2.45219e+08 -2.07344e+07 -0.60526 -1.25303e+07 -3.6524 -6.58011e+06)
(2.428e+08 -2.34645e+07 -2.45734 -1.02992e+07 -0.176639 -3.94533e+06)
(2.40068e+08 -2.72708e+07 -0.107747 -1.0807e+07 7.11719 -199769)
(2.39354e+08 -2.97911e+07 1.40877 -8.11085e+06 1.01491 3.2079e+06)
(2.40998e+08 -3.34929e+07 -0.26507 -8.63289e+06 -8.19457 6.38572e+06)
(2.5263e+08 -3.46426e+07 -2.84951 -5.42778e+06 2.05681 8.14368e+06)
(2.73113e+08 -3.774e+07 -1.14186 -6.28452e+06 8.6517 8.67301e+06)
(3.23103e+08 -3.74007e+07 3.09 -3.17964e+06 -0.86617 5.88489e+06)
(3.97974e+08 -3.94419e+07 -1.82959 -4.92729e+06 -4.96042 -1.41954e+06)
(5.56823e+08 -3.73368e+07 0.0126611 -2.91679e+06 -2.57863 -1.6781e+07)
(7.87995e+08 -3.78373e+07 -7.67827 -6.79376e+06 -4.75526 -5.53619e+07)
(2.55053e+08 -2.54108e+06 -0.162275 -1.39857e+07 0.433808 -1.41375e+07)
(2.45812e+08 -6.22941e+06 -0.671391 -1.40348e+07 -0.167784 -1.33644e+07)
(2.45337e+08 -9.82914e+06 -0.456051 -1.31172e+07 0.400451 -1.21541e+07)
(2.42575e+08 -1.37651e+07 0.533558 -1.33651e+07 1.31607 -1.05064e+07)
(2.40724e+08 -1.71702e+07 1.43225 -1.19206e+07 -1.04181 -8.74044e+06)
(2.37676e+08 -2.09019e+07 -0.632437 -1.2212e+07 -4.08281 -6.03192e+06)
(2.35388e+08 -2.37392e+07 -2.51665 -1.0194e+07 -0.117697 -3.42647e+06)
(2.32699e+08 -2.76295e+07 -0.157035 -1.0679e+07 7.67541 702714)
(2.323e+08 -3.01618e+07 1.43101 -8.09068e+06 1.0892 3.9204e+06)
(2.34591e+08 -3.37549e+07 -0.289227 -8.55619e+06 -8.66483 7.19972e+06)
(2.46857e+08 -3.4909e+07 -2.87577 -5.46549e+06 2.17867 8.88509e+06)
(2.68086e+08 -3.79306e+07 -1.12874 -6.34191e+06 9.09891 9.43366e+06)
(3.18987e+08 -3.75593e+07 3.08745 -3.27204e+06 -0.966813 6.67808e+06)
(3.94835e+08 -3.95617e+07 -1.83013 -5.04084e+06 -5.37825 -638156)
(5.54844e+08 -3.73918e+07 -0.0759379 -2.98871e+06 -2.60883 -1.58489e+07)
(7.87033e+08 -3.78802e+07 -7.66215 -6.84709e+06 -4.62559 -5.4393e+07)
(2.46651e+08 -2.56758e+06 -0.17359 -1.36215e+07 0.605408 -1.37614e+07)
(2.37322e+08 -6.31433e+06 -0.708557 -1.36778e+07 -0.194462 -1.2987e+07)
(2.36977e+08 -9.98515e+06 -0.479879 -1.27947e+07 0.485181 -1.17361e+07)
(2.34363e+08 -1.3961e+07 0.555346 -1.30352e+07 1.53677 -1.00436e+07)
(2.32756e+08 -1.73964e+07 1.48352 -1.16581e+07 -1.22208 -8.22284e+06)
(2.29986e+08 -2.11666e+07 -0.660631 -1.19415e+07 -4.51943 -5.47996e+06)
(2.27797e+08 -2.41653e+07 -2.53659 -1.0037e+07 -0.0690309 -2.7882e+06)
(2.25199e+08 -2.81508e+07 -0.226252 -1.0559e+07 8.21815 1.5033e+06)
(2.2527e+08 -3.06445e+07 1.45411 -7.9914e+06 1.12641 4.71585e+06)
(2.28204e+08 -3.41295e+07 -0.314823 -8.46547e+06 -9.14244 8.0801e+06)
(2.41099e+08 -3.53045e+07 -2.90922 -5.43468e+06 2.31124 9.69088e+06)
(2.63116e+08 -3.82334e+07 -1.11258 -6.33392e+06 9.55114 1.02608e+07)
(3.14924e+08 -3.78267e+07 3.09058 -3.31621e+06 -1.06767 7.4967e+06)
(3.91771e+08 -3.97544e+07 -1.83094 -5.10248e+06 -5.79593 193323)
(5.52935e+08 -3.75049e+07 -0.169879 -3.04899e+06 -2.63841 -1.48878e+07)
(7.86149e+08 -3.79236e+07 -7.64637 -6.88971e+06 -4.49665 -5.33998e+07)
(2.38119e+08 -2.60899e+06 -0.184043 -1.32734e+07 0.777669 -1.3404e+07)
(2.28719e+08 -6.43496e+06 -0.747128 -1.32542e+07 -0.222508 -1.25292e+07)
(2.28495e+08 -1.01939e+07 -0.507524 -1.23808e+07 0.569765 -1.12458e+07)
(2.26093e+08 -1.42323e+07 0.579818 -1.26905e+07 1.76567 -9.48869e+06)
(2.24722e+08 -1.77462e+07 1.54636 -1.12521e+07 -1.37553 -7.63521e+06)
(2.22115e+08 -2.15654e+07 -0.690744 -1.17175e+07 -4.96856 -4.87194e+06)
(2.19979e+08 -2.47562e+07 -2.59302 -9.79913e+06 -0.0363411 -1.78161e+06)
(2.17621e+08 -2.87663e+07 -0.294123 -1.04211e+07 8.74722 2.29314e+06)
(2.18261e+08 -3.12214e+07 1.46067 -7.78689e+06 1.13181 5.54e+06)
(2.21796e+08 -3.46476e+07 -0.341717 -8.37176e+06 -9.61661 8.93141e+06)
(2.35333e+08 -3.58148e+07 -2.93559 -5.362e+06 2.45987 1.05019e+07)
(2.58162e+08 -3.86618e+07 -1.09388 -6.31807e+06 10.0041 1.10992e+07)
(3.10888e+08 -3.82043e+07 3.09447 -3.34451e+06 -1.17475 8.34514e+06)
(3.88758e+08 -4.00365e+07 -1.83208 -5.15871e+06 -6.21816 1.07757e+06)
(5.51104e+08 -3.76884e+07 -0.270415 -3.09735e+06 -2.66454 -1.38607e+07)
(7.85352e+08 -3.79989e+07 -7.6343 -6.92721e+06 -4.3656 -5.23395e+07)
(2.29461e+08 -2.66134e+06 -0.194612 -1.28465e+07 0.9538 -1.29688e+07)
(2.19888e+08 -6.58474e+06 -0.787393 -1.28686e+07 -0.250832 -1.21098e+07)
(2.19792e+08 -1.05082e+07 -0.532314 -1.20082e+07 0.65515 -1.07946e+07)
(2.17561e+08 -1.4553e+07 0.602614 -1.23644e+07 1.99508 -8.98668e+06)