/*--------------------------------*- C++ -*----------------------------------*\
| =========                 |                                                 |
| \\      /  F ield         | foam-extend: Open Source CFD                    |
|  \\    /   O peration     | Version:     4.1-20200408                       |
|   \\  /    A nd           | Web:         http://www.foam-extend.org         |
|    \\/     M anipulation  |                                                 |
\*---------------------------------------------------------------------------*/
FoamFile
{
    version     2.0;
    format      ascii;
    class       volScalarField::DimensionedInternalField;
    location    "0.0185000";
    object      V0;
}
// * * * * * * * * * * * * * * * * * * * * * * * * * * * * * * * * * * * * * //

dimensions      [0 3 0 0 0 0 0];

value           nonuniform List<scalar> 
1952
(
1.43389e-14
2.38981e-14
3.34569e-14
4.30149e-14
5.25731e-14
6.21301e-14
7.1687e-14
8.1243e-14
9.07964e-14
1.00353e-13
1.09907e-13
1.19466e-13
1.29026e-13
1.38603e-13
1.48173e-13
4.77975e-15
1.43379e-14
2.38964e-14
3.34545e-14
4.30119e-14
5.25694e-14
6.21257e-14
7.16818e-14
8.1237e-14
9.07897e-14
1.00346e-13
1.09899e-13
1.19457e-13
1.29017e-13
1.38595e-13
1.48169e-13
4.77941e-15
1.4337e-14
2.38948e-14
3.34523e-14
4.30091e-14
5.25659e-14
6.21216e-14
7.1677e-14
8.12317e-14
9.07837e-14
1.00339e-13
1.09892e-13
1.1945e-13
1.2901e-13
1.3859e-13
1.48167e-13
4.7791e-15
1.43361e-14
2.38934e-14
3.34502e-14
4.30064e-14
5.25627e-14
6.21178e-14
7.16726e-14
8.12269e-14
9.07784e-14
1.00334e-13
1.09886e-13
1.19445e-13
1.29005e-13
1.38585e-13
1.48165e-13
4.7788e-15
1.43353e-14
2.3892e-14
3.34483e-14
4.3004e-14
5.25597e-14
6.21144e-14
7.16687e-14
8.12225e-14
9.07737e-14
1.00329e-13
1.09881e-13
1.1944e-13
1.29001e-13
1.38582e-13
1.48164e-13
4.77853e-15
1.43345e-14
2.38907e-14
3.34466e-14
4.30017e-14
5.2557e-14
6.21112e-14
7.16651e-14
8.12186e-14
9.07695e-14
1.00324e-13
1.09877e-13
1.19436e-13
1.28997e-13
1.38579e-13
1.48162e-13
4.77827e-15
1.43338e-14
2.38895e-14
3.34449e-14
4.29996e-14
5.25545e-14
6.21084e-14
7.16619e-14
8.12151e-14
9.07657e-14
1.0032e-13
1.09873e-13
1.19432e-13
1.28993e-13
1.38576e-13
1.48161e-13
4.77803e-15
1.43331e-14
2.38884e-14
3.34434e-14
4.29977e-14
5.25522e-14
6.21057e-14
7.16588e-14
8.12118e-14
9.07622e-14
1.00317e-13
1.09869e-13
1.19428e-13
1.2899e-13
1.38573e-13
1.48159e-13
4.77781e-15
1.43325e-14
2.38874e-14
3.3442e-14
4.29959e-14
5.255e-14
6.21033e-14
7.16561e-14
8.12089e-14
9.0759e-14
1.00314e-13
1.09866e-13
1.19425e-13
1.28987e-13
1.3857e-13
1.48157e-13
4.77761e-15
1.43319e-14
2.38865e-14
3.34407e-14
4.29943e-14
5.25481e-14
6.2101e-14
7.16535e-14
8.12061e-14
9.0756e-14
1.00311e-13
1.09863e-13
1.19422e-13
1.28983e-13
1.38567e-13
1.48156e-13
4.77741e-15
1.43314e-14
2.38856e-14
3.34394e-14
4.29927e-14
5.25462e-14
6.20989e-14
7.1651e-14
8.12035e-14
9.07532e-14
1.00308e-13
1.0986e-13
1.19419e-13
1.2898e-13
1.38564e-13
1.48154e-13
4.77723e-15
1.43309e-14
2.38847e-14
3.34383e-14
4.29912e-14
5.25444e-14
6.20968e-14
7.16488e-14
8.1201e-14
9.07506e-14
1.00305e-13
1.09857e-13
1.19416e-13
1.28977e-13
1.38561e-13
1.48151e-13
4.77706e-15
1.43304e-14
2.38839e-14
3.34371e-14
4.29899e-14
5.25427e-14
6.20949e-14
7.16466e-14
8.11987e-14
9.07481e-14
1.00302e-13
1.09854e-13
1.19413e-13
1.28975e-13
1.38559e-13
1.48149e-13
4.7769e-15
1.43299e-14
2.38832e-14
3.34361e-14
4.29885e-14
5.25412e-14
6.20931e-14
7.16446e-14
8.11965e-14
9.07457e-14
1.003e-13
1.09852e-13
1.19411e-13
1.28972e-13
1.38557e-13
1.48147e-13
4.77675e-15
1.43295e-14
2.38825e-14
3.34351e-14
4.29873e-14
5.25396e-14
6.20913e-14
7.16426e-14
8.11942e-14
9.07433e-14
1.00297e-13
1.09849e-13
1.19408e-13
1.28969e-13
1.38554e-13
1.48145e-13
4.7766e-15
1.43291e-14
2.38818e-14
3.34341e-14
4.2986e-14
5.25381e-14
6.20895e-14
7.16406e-14
8.1192e-14
9.07409e-14
1.00295e-13
1.09847e-13
1.19405e-13
1.28967e-13
1.38551e-13
1.48142e-13
4.77646e-15
1.43286e-14
2.3881e-14
3.34331e-14
4.29847e-14
5.25366e-14
6.20878e-14
7.16386e-14
8.11899e-14
9.07386e-14
1.00292e-13
1.09844e-13
1.19403e-13
1.28964e-13
1.38548e-13
1.48139e-13
4.77631e-15
1.43282e-14
2.38804e-14
3.34322e-14
4.29836e-14
5.25353e-14
6.20862e-14
7.16368e-14
8.1188e-14
9.07365e-14
1.0029e-13
1.09842e-13
1.194e-13
1.28961e-13
1.38546e-13
1.48136e-13
4.77619e-15
1.43278e-14
2.38797e-14
3.34312e-14
4.29823e-14
5.25338e-14
6.20844e-14
7.16349e-14
8.11858e-14
9.07341e-14
1.00288e-13
1.09839e-13
1.19397e-13
1.28958e-13
1.38542e-13
1.48133e-13
4.77604e-15
1.43274e-14
2.3879e-14
3.34304e-14
4.29812e-14
5.25324e-14
6.20828e-14
7.1633e-14
8.11837e-14
9.07319e-14
1.00285e-13
1.09836e-13
1.19394e-13
1.28955e-13
1.3854e-13
1.4813e-13
4.77591e-15
1.43269e-14
2.38782e-14
3.34292e-14
4.29797e-14
5.25306e-14
6.20806e-14
7.16305e-14
8.11809e-14
9.07288e-14
1.00282e-13
1.09833e-13
1.19391e-13
1.28951e-13
1.38535e-13
1.48125e-13
4.77574e-15
1.43265e-14
2.38775e-14
3.34282e-14
4.29785e-14
5.25291e-14
6.20789e-14
7.16286e-14
8.11788e-14
9.07265e-14
1.00279e-13
1.0983e-13
1.19388e-13
1.28948e-13
1.38532e-13
1.48122e-13
4.7756e-15
1.4326e-14
2.38768e-14
3.34272e-14
4.29771e-14
5.25275e-14
6.2077e-14
7.16264e-14
8.11764e-14
9.07238e-14
1.00277e-13
1.09827e-13
1.19384e-13
1.28944e-13
1.38529e-13
1.48118e-13
4.77545e-15
1.43256e-14
2.3876e-14
3.34261e-14
4.29758e-14
5.25258e-14
6.20751e-14
7.16242e-14
8.1174e-14
9.07211e-14
1.00274e-13
1.09824e-13
1.19381e-13
1.28941e-13
1.38525e-13
1.48114e-13
4.7753e-15
1.43251e-14
2.38752e-14
3.34251e-14
4.29745e-14
5.25242e-14
6.20732e-14
7.16221e-14
8.11716e-14
9.07185e-14
1.00271e-13
1.09821e-13
1.19378e-13
1.28938e-13
1.38522e-13
1.48111e-13
4.77515e-15
1.43248e-14
2.38747e-14
3.34243e-14
4.29735e-14
5.2523e-14
6.20718e-14
7.16205e-14
8.11698e-14
9.07166e-14
1.00269e-13
1.09819e-13
1.19375e-13
1.28935e-13
1.38519e-13
1.48108e-13
4.77503e-15
1.43243e-14
2.38739e-14
3.34233e-14
4.29722e-14
5.25214e-14
6.207e-14
7.16185e-14
8.11675e-14
9.07141e-14
1.00266e-13
1.09816e-13
1.19372e-13
1.28932e-13
1.38516e-13
1.48105e-13
4.77488e-15
1.43237e-14
2.38729e-14
3.34218e-14
4.29704e-14
5.25192e-14
6.20674e-14
7.16155e-14
8.11643e-14
9.07106e-14
1.00262e-13
1.09812e-13
1.19368e-13
1.28927e-13
1.38511e-13
1.481e-13
4.77467e-15
1.43233e-14
2.38722e-14
3.34208e-14
4.29691e-14
5.25177e-14
6.20656e-14
7.16136e-14
8.11621e-14
9.07083e-14
1.0026e-13
1.09809e-13
1.19365e-13
1.28925e-13
1.38508e-13
1.48097e-13
4.77452e-15
1.43228e-14
2.38713e-14
3.34197e-14
4.29676e-14
5.25159e-14
6.20635e-14
7.16113e-14
8.11596e-14
9.07056e-14
1.00257e-13
1.09806e-13
1.19362e-13
1.28922e-13
1.38505e-13
1.48093e-13
4.77435e-15
1.43222e-14
2.38704e-14
3.34184e-14
4.29661e-14
5.2514e-14
6.20614e-14
7.16089e-14
8.1157e-14
9.07028e-14
1.00254e-13
1.09803e-13
1.19359e-13
1.28919e-13
1.38502e-13
1.4809e-13
4.77417e-15
1.43218e-14
2.38698e-14
3.34176e-14
4.2965e-14
5.25127e-14
6.20599e-14
7.16074e-14
8.11554e-14
9.07012e-14
1.00252e-13
1.09802e-13
1.19358e-13
1.28917e-13
1.38501e-13
1.48089e-13
4.77403e-15
1.43212e-14
2.38688e-14
3.34162e-14
4.29633e-14
5.25107e-14
6.20577e-14
7.16049e-14
8.11527e-14
9.06984e-14
1.0025e-13
1.09799e-13
1.19355e-13
1.28915e-13
1.38498e-13
1.48087e-13
4.77384e-15
1.43204e-14
2.38675e-14
3.34144e-14
4.2961e-14
5.25081e-14
6.20546e-14
7.16015e-14
8.11491e-14
9.06946e-14
1.00246e-13
1.09795e-13
1.19351e-13
1.28911e-13
1.38495e-13
1.48083e-13
4.77357e-15
1.43197e-14
2.38663e-14
3.34127e-14
4.29588e-14
5.25055e-14
6.20518e-14
7.15984e-14
8.11458e-14
9.06913e-14
1.00242e-13
1.09792e-13
1.19348e-13
1.28908e-13
1.38492e-13
1.48081e-13
4.77332e-15
1.43189e-14
2.3865e-14
3.34109e-14
4.29566e-14
5.2503e-14
6.20489e-14
7.15953e-14
8.11425e-14
9.0688e-14
1.00239e-13
1.09788e-13
1.19345e-13
1.28905e-13
1.3849e-13
1.48079e-13
4.77305e-15
1.4318e-14
2.38636e-14
3.3409e-14
4.29542e-14
5.25002e-14
6.20457e-14
7.15919e-14
8.1139e-14
9.06844e-14
1.00235e-13
1.09785e-13
1.19342e-13
1.28902e-13
1.38488e-13
1.48078e-13
4.77276e-15
1.43172e-14
2.38622e-14
3.34071e-14
4.29519e-14
5.24974e-14
6.20426e-14
7.15887e-14
8.11356e-14
9.06812e-14
1.00232e-13
1.09783e-13
1.1934e-13
1.28901e-13
1.38487e-13
1.48078e-13
4.77248e-15
1.43161e-14
2.38604e-14
3.34047e-14
4.29489e-14
5.24939e-14
6.20387e-14
7.15844e-14
8.11312e-14
9.06768e-14
1.00228e-13
1.09779e-13
1.19336e-13
1.28898e-13
1.38485e-13
1.48077e-13
4.77212e-15
1.43149e-14
2.38584e-14
3.3402e-14
4.29455e-14
5.24899e-14
6.20343e-14
7.15796e-14
8.11263e-14
9.06718e-14
1.00223e-13
1.09774e-13
1.19332e-13
1.28896e-13
1.38484e-13
1.48077e-13
4.77172e-15
1.43136e-14
2.38562e-14
3.3399e-14
4.29418e-14
5.24855e-14
6.20294e-14
7.15743e-14
8.11207e-14
9.06663e-14
1.00218e-13
1.0977e-13
1.19328e-13
1.28893e-13
1.38483e-13
1.48077e-13
4.77128e-15
1.4312e-14
2.38537e-14
3.33954e-14
4.29373e-14
5.24802e-14
6.20234e-14
7.15678e-14
8.11139e-14
9.06594e-14
1.00211e-13
1.09764e-13
1.19323e-13
1.28889e-13
1.3848e-13
1.48077e-13
4.77076e-15
1.43104e-14
2.38509e-14
3.33917e-14
4.29326e-14
5.24746e-14
6.2017e-14
7.15608e-14
8.11065e-14
9.0652e-14
1.00204e-13
1.09757e-13
1.19317e-13
1.28885e-13
1.38479e-13
1.48079e-13
4.7702e-15
1.43085e-14
2.38478e-14
3.33873e-14
4.29271e-14
5.2468e-14
6.20095e-14
7.15524e-14
8.10976e-14
9.06429e-14
1.00195e-13
1.09749e-13
1.1931e-13
1.2888e-13
1.38476e-13
1.48079e-13
4.76957e-15
1.43064e-14
2.38443e-14
3.33824e-14
4.29208e-14
5.24605e-14
6.20007e-14
7.15426e-14
8.1087e-14
9.06318e-14
1.00184e-13
1.09738e-13
1.19301e-13
1.28873e-13
1.38472e-13
1.4808e-13
4.76887e-15
1.43041e-14
2.38405e-14
3.33771e-14
4.2914e-14
5.24523e-14
6.19911e-14
7.15318e-14
8.1075e-14
9.06191e-14
1.00171e-13
1.09725e-13
1.19289e-13
1.28865e-13
1.38466e-13
1.4808e-13
4.76812e-15
1.43016e-14
2.38364e-14
3.33712e-14
4.29064e-14
5.24429e-14
6.19801e-14
7.1519e-14
8.10609e-14
9.06036e-14
1.00154e-13
1.09709e-13
1.19274e-13
1.28852e-13
1.38457e-13
1.4808e-13
4.76729e-15
1.42989e-14
2.38318e-14
3.33648e-14
4.2898e-14
5.24325e-14
6.19676e-14
7.15045e-14
8.10443e-14
9.0585e-14
1.00134e-13
1.09688e-13
1.19252e-13
1.28833e-13
1.38442e-13
1.48076e-13
4.76639e-15
1.4296e-14
2.38269e-14
3.33579e-14
4.2889e-14
5.24212e-14
6.19539e-14
7.14881e-14
8.10253e-14
9.05633e-14
1.0011e-13
1.09661e-13
1.19225e-13
1.28805e-13
1.38417e-13
1.4806e-13
4.76544e-15
1.4293e-14
2.38218e-14
3.33506e-14
4.28793e-14
5.24089e-14
6.19388e-14
7.147e-14
8.1004e-14
9.05382e-14
1.00082e-13
1.09629e-13
1.19189e-13
1.28766e-13
1.38377e-13
1.48022e-13
4.76444e-15
1.42899e-14
2.38165e-14
3.33429e-14
4.28691e-14
5.23959e-14
6.19227e-14
7.14503e-14
8.09803e-14
9.05098e-14
1.00048e-13
1.09589e-13
1.19144e-13
1.28715e-13
1.3832e-13
1.47961e-13
4.7634e-15
1.42867e-14
2.38111e-14
3.33351e-14
4.28587e-14
5.23825e-14
6.19058e-14
7.14294e-14
8.09547e-14
9.04785e-14
1.00011e-13
1.09544e-13
1.1909e-13
1.28651e-13
1.38245e-13
1.47874e-13
4.76235e-15
1.42836e-14
2.38058e-14
3.33275e-14
4.28483e-14
5.23691e-14
6.18888e-14
7.1408e-14
8.09281e-14
9.04454e-14
9.99704e-14
1.09493e-13
1.19029e-13
1.28574e-13
1.38154e-13
1.47763e-13
4.76133e-15
1.42806e-14
2.38007e-14
3.332e-14
4.28383e-14
5.23559e-14
6.18719e-14
7.13866e-14
8.09012e-14
9.04114e-14
9.99278e-14
1.09438e-13
1.18961e-13
1.28488e-13
1.38047e-13
1.47629e-13
4.76034e-15
1.42779e-14
2.3796e-14
3.33132e-14
4.28289e-14
5.23437e-14
6.18561e-14
7.13664e-14
8.08753e-14
9.03783e-14
9.98856e-14
1.09383e-13
1.18891e-13
1.28394e-13
1.37929e-13
1.47476e-13
4.75944e-15
1.42754e-14
2.37918e-14
3.33071e-14
4.28206e-14
5.23327e-14
6.18419e-14
7.13482e-14
8.08517e-14
9.03479e-14
9.9846e-14
1.09331e-13
1.18822e-13
1.283e-13
1.37806e-13
1.47307e-13
4.75863e-15
1.42734e-14
2.37884e-14
3.33021e-14
4.28137e-14
5.23237e-14
6.18301e-14
7.1333e-14
8.0832e-14
9.03223e-14
9.98121e-14
1.09285e-13
1.1876e-13
1.28212e-13
1.37685e-13
1.47131e-13
4.75797e-15
1.42719e-14
2.37857e-14
3.32982e-14
4.28084e-14
5.23168e-14
6.18211e-14
7.13216e-14
8.08171e-14
9.03031e-14
9.97865e-14
1.09251e-13
1.18714e-13
1.28145e-13
1.37588e-13
1.46968e-13
4.75745e-15
1.42709e-14
2.3784e-14
3.32958e-14
4.28052e-14
5.23126e-14
6.18159e-14
7.13151e-14
8.0809e-14
9.02932e-14
9.97732e-14
1.09235e-13
1.1869e-13
1.28109e-13
1.3753e-13
1.46851e-13
4.75712e-15
1.42704e-14
2.37832e-14
3.32947e-14
4.28037e-14
5.23109e-14
6.18137e-14
7.13126e-14
8.08059e-14
9.02895e-14
9.97675e-14
1.09227e-13
1.18676e-13
1.28091e-13
1.37501e-13
1.46812e-13
4.75696e-15
1.42699e-14
2.37824e-14
3.32934e-14
4.28019e-14
5.23085e-14
6.18104e-14
7.13082e-14
8.07999e-14
9.02819e-14
9.97572e-14
1.09215e-13
1.18661e-13
1.28081e-13
1.37496e-13
1.46846e-13
4.75682e-15
1.42686e-14
2.378e-14
3.32899e-14
4.27971e-14
5.23023e-14
6.18024e-14
7.12984e-14
8.07875e-14
9.02673e-14
9.974e-14
1.09198e-13
1.18645e-13
1.28079e-13
1.37512e-13
1.46918e-13
4.75638e-15
1.42662e-14
2.3776e-14
3.32841e-14
4.27894e-14
5.22926e-14
6.17905e-14
7.12843e-14
8.07709e-14
9.02484e-14
9.97194e-14
1.09178e-13
1.18631e-13
1.28085e-13
1.37547e-13
1.47009e-13
4.7556e-15
1.42631e-14
2.37708e-14
3.32767e-14
4.27796e-14
5.22803e-14
6.17754e-14
7.12666e-14
8.075e-14
9.02246e-14
9.96956e-14
1.09162e-13
1.1863e-13
1.28113e-13
1.37603e-13
1.471e-13
4.75456e-15
1.42591e-14
2.37642e-14
3.32674e-14
4.27669e-14
5.22639e-14
6.17549e-14
7.12429e-14
8.07252e-14
9.02032e-14
9.96845e-14
1.0917e-13
1.1866e-13
1.28163e-13
1.37668e-13
1.47177e-13
4.75325e-15
1.42535e-14
2.37548e-14
3.32543e-14
4.27508e-14
5.22456e-14
6.17363e-14
7.12268e-14
8.07163e-14
9.02069e-14
9.97035e-14
1.09204e-13
1.18706e-13
1.28216e-13
1.37726e-13
1.4724e-13
4.7514e-15
1.42494e-14
2.37483e-14
3.32465e-14
4.27431e-14
5.22405e-14
6.17367e-14
7.12352e-14
8.07341e-14
9.02337e-14
9.97365e-14
1.09242e-13
1.18747e-13
1.28261e-13
1.37776e-13
1.47295e-13
4.75001e-15
1.42505e-14
2.37509e-14
3.32512e-14
4.27508e-14
5.22516e-14
6.17519e-14
7.12546e-14
8.0757e-14
9.02603e-14
9.97662e-14
1.09275e-13
1.18785e-13
1.28303e-13
1.37821e-13
1.47343e-13
4.75029e-15
1.42538e-14
2.37564e-14
3.32592e-14
4.27614e-14
5.22649e-14
6.17675e-14
7.12724e-14
8.07775e-14
9.02842e-14
9.97941e-14
1.09306e-13
1.18819e-13
1.2834e-13
1.37861e-13
1.47386e-13
4.75134e-15
1.42565e-14
2.3761e-14
3.32657e-14
4.277e-14
5.2276e-14
6.17814e-14
7.12892e-14
8.07971e-14
9.03064e-14
9.98189e-14
1.09334e-13
1.18849e-13
1.28373e-13
1.37896e-13
1.47421e-13
4.75227e-15
1.42593e-14
2.37657e-14
3.32724e-14
4.27789e-14
5.2287e-14
6.17945e-14
7.13045e-14
8.08147e-14
9.03264e-14
9.98413e-14
1.09358e-13
1.18876e-13
1.28401e-13
1.37926e-13
1.47452e-13
4.75319e-15
1.4262e-14
2.37702e-14
3.32787e-14
4.27871e-14
5.22972e-14
6.18068e-14
7.13189e-14
8.08312e-14
9.03449e-14
9.98617e-14
1.09381e-13
1.189e-13
1.28426e-13
1.37952e-13
1.47478e-13
4.75407e-15
1.42644e-14
2.37743e-14
3.32845e-14
4.27946e-14
5.23064e-14
6.18178e-14
7.13317e-14
8.08458e-14
9.03611e-14
9.98796e-14
1.094e-13
1.1892e-13
1.28448e-13
1.37974e-13
1.475e-13
4.75488e-15
1.42668e-14
2.37783e-14
3.32901e-14
4.28019e-14
5.23153e-14
6.18284e-14
7.13439e-14
8.08596e-14
9.03764e-14
9.98963e-14
1.09418e-13
1.18939e-13
1.28467e-13
1.37994e-13
1.4752e-13
4.75568e-15
1.42689e-14
2.37818e-14
3.3295e-14
4.28082e-14
5.2323e-14
6.18375e-14
7.13543e-14
8.08713e-14
9.03892e-14
9.99102e-14
1.09433e-13
1.18955e-13
1.28483e-13
1.3801e-13
1.47536e-13
4.75638e-15
1.42711e-14
2.37853e-14
3.33e-14
4.28146e-14
5.23308e-14
6.18466e-14
7.13647e-14
8.0883e-14
9.0402e-14
9.9924e-14
1.09447e-13
1.1897e-13
1.28499e-13
1.38026e-13
1.47551e-13
4.75709e-15
1.42729e-14
2.37883e-14
3.33042e-14
4.28199e-14
5.23373e-14
6.18542e-14
7.13733e-14
8.08926e-14
9.04125e-14
9.99353e-14
1.09459e-13
1.18982e-13
1.28511e-13
1.38038e-13
1.47563e-13
4.75769e-15
1.42745e-14
2.37911e-14
3.3308e-14
4.28247e-14
5.23432e-14
6.1861e-14
7.1381e-14
8.09011e-14
9.04217e-14
9.99451e-14
1.09469e-13
1.18993e-13
1.28522e-13
1.38048e-13
1.47573e-13
4.75823e-15
1.42759e-14
2.37933e-14
3.33111e-14
4.28288e-14
5.2348e-14
6.18666e-14
7.13874e-14
8.09081e-14
9.04292e-14
9.9953e-14
1.09477e-13
1.19001e-13
1.2853e-13
1.38056e-13
1.4758e-13
4.75869e-15
1.42772e-14
2.37955e-14
3.33141e-14
4.28326e-14
5.23526e-14
6.18719e-14
7.13933e-14
8.09146e-14
9.04362e-14
9.99604e-14
1.09485e-13
1.19009e-13
1.28537e-13
1.38063e-13
1.47587e-13
4.75912e-15
1.42785e-14
2.37977e-14
3.33173e-14
4.28365e-14
5.23573e-14
6.18775e-14
7.13995e-14
8.09214e-14
9.04435e-14
9.99682e-14
1.09493e-13
1.19017e-13
1.28545e-13
1.38072e-13
1.47594e-13
4.75958e-15
1.42795e-14
2.37994e-14
3.33196e-14
4.28395e-14
5.23609e-14
6.18815e-14
7.1404e-14
8.09264e-14
9.04488e-14
9.99736e-14
1.09498e-13
1.19023e-13
1.28551e-13
1.38077e-13
1.47599e-13
4.75992e-15
1.42805e-14
2.3801e-14
3.33218e-14
4.28422e-14
5.23641e-14
6.18853e-14
7.14082e-14
8.09309e-14
9.04535e-14
9.99786e-14
1.09503e-13
1.19028e-13
1.28556e-13
1.38081e-13
1.47603e-13
4.76023e-15
1.42813e-14
2.38023e-14
3.33236e-14
4.28445e-14
5.23669e-14
6.18884e-14
7.14117e-14
8.09347e-14
9.04575e-14
9.99827e-14
1.09508e-13
1.19032e-13
1.2856e-13
1.38085e-13
1.47606e-13
4.7605e-15
1.4282e-14
2.38035e-14
3.33253e-14
4.28466e-14
5.23694e-14
6.18913e-14
7.14149e-14
8.09381e-14
9.04611e-14
9.99864e-14
1.09511e-13
1.19035e-13
1.28563e-13
1.38088e-13
1.47609e-13
4.76075e-15
1.42827e-14
2.38046e-14
3.33267e-14
4.28485e-14
5.23716e-14
6.18938e-14
7.14176e-14
8.09411e-14
9.04643e-14
9.99897e-14
1.09515e-13
1.19039e-13
1.28566e-13
1.38091e-13
1.47612e-13
4.76096e-15
1.42833e-14
2.38056e-14
3.33282e-14
4.28503e-14
5.23737e-14
6.18963e-14
7.14204e-14
8.0944e-14
9.04674e-14
9.99929e-14
1.09518e-13
1.19042e-13
1.28569e-13
1.38094e-13
1.47614e-13
4.76118e-15
1.42838e-14
2.38064e-14
3.33292e-14
4.28516e-14
5.23752e-14
6.1898e-14
7.14222e-14
8.0946e-14
9.04694e-14
9.99949e-14
1.0952e-13
1.19044e-13
1.28571e-13
1.38096e-13
1.47615e-13
4.76133e-15
1.42841e-14
2.38069e-14
3.33299e-14
4.28525e-14
5.23763e-14
6.18992e-14
7.14235e-14
8.09474e-14
9.04708e-14
9.99963e-14
1.09521e-13
1.19045e-13
1.28572e-13
1.38096e-13
1.47616e-13
4.76144e-15
1.42844e-14
2.38075e-14
3.33307e-14
4.28535e-14
5.23775e-14
6.19005e-14
7.1425e-14
8.09489e-14
9.04723e-14
9.99979e-14
1.09523e-13
1.19046e-13
1.28573e-13
1.38097e-13
1.47617e-13
4.76156e-15
1.42847e-14
2.38079e-14
3.33313e-14
4.28542e-14
5.23783e-14
6.19014e-14
7.14259e-14
8.09499e-14
9.04734e-14
9.99989e-14
1.09524e-13
1.19047e-13
1.28574e-13
1.38098e-13
1.47617e-13
4.76165e-15
1.4285e-14
2.38083e-14
3.33319e-14
4.28549e-14
5.23791e-14
6.19023e-14
7.14269e-14
8.0951e-14
9.04744e-14
9.99999e-14
1.09525e-13
1.19048e-13
1.28575e-13
1.38098e-13
1.47617e-13
4.76173e-15
1.42851e-14
2.38086e-14
3.33322e-14
4.28554e-14
5.23796e-14
6.19029e-14
7.14275e-14
8.09515e-14
9.0475e-14
1e-13
1.09525e-13
1.19048e-13
1.28575e-13
1.38098e-13
1.47617e-13
4.76179e-15
1.42852e-14
2.38088e-14
3.33325e-14
4.28557e-14
5.238e-14
6.19033e-14
7.14279e-14
8.09519e-14
9.04753e-14
1.00001e-13
1.09525e-13
1.19048e-13
1.28575e-13
1.38098e-13
1.47617e-13
4.76183e-15
1.42853e-14
2.38089e-14
3.33326e-14
4.28558e-14
5.23801e-14
6.19034e-14
7.1428e-14
8.09519e-14
9.04752e-14
1.00001e-13
1.09525e-13
1.19048e-13
1.28574e-13
1.38097e-13
1.47616e-13
4.76184e-15
1.42853e-14
2.38089e-14
3.33327e-14
4.28559e-14
5.23802e-14
6.19034e-14
7.1428e-14
8.09519e-14
9.04752e-14
1e-13
1.09525e-13
1.19048e-13
1.28573e-13
1.38097e-13
1.47615e-13
4.76186e-15
1.42853e-14
2.38089e-14
3.33326e-14
4.28558e-14
5.23801e-14
6.19033e-14
7.14278e-14
8.09516e-14
9.04748e-14
9.99998e-14
1.09524e-13
1.19047e-13
1.28572e-13
1.38095e-13
1.47613e-13
4.76185e-15
1.42853e-14
2.38088e-14
3.33325e-14
4.28556e-14
5.23798e-14
6.1903e-14
7.14274e-14
8.09511e-14
9.04742e-14
9.99991e-14
1.09523e-13
1.19046e-13
1.28571e-13
1.38094e-13
1.47612e-13
4.76184e-15
1.42851e-14
2.38086e-14
3.33321e-14
4.28551e-14
5.23792e-14
6.19022e-14
7.14265e-14
8.095e-14
9.04729e-14
9.99977e-14
1.09521e-13
1.19044e-13
1.28569e-13
1.38092e-13
1.47609e-13
4.76178e-15
1.4285e-14
2.38084e-14
3.33319e-14
4.28548e-14
5.23788e-14
6.19018e-14
7.14259e-14
8.09494e-14
9.04722e-14
9.99968e-14
1.0952e-13
1.19043e-13
1.28568e-13
1.3809e-13
1.47607e-13
4.76175e-15
1.42849e-14
2.38082e-14
3.33317e-14
4.28545e-14
5.23785e-14
6.19013e-14
7.14254e-14
8.09488e-14
9.04714e-14
9.99959e-14
1.09519e-13
1.19042e-13
1.28567e-13
1.38089e-13
1.47606e-13
4.76172e-15
1.42848e-14
2.3808e-14
3.33313e-14
4.2854e-14
5.23779e-14
6.19006e-14
7.14245e-14
8.09478e-14
9.04703e-14
9.99947e-14
1.09518e-13
1.1904e-13
1.28565e-13
1.38087e-13
1.47604e-13
4.76167e-15
1.42846e-14
2.38077e-14
3.33309e-14
4.28535e-14
5.23772e-14
6.18998e-14
7.14236e-14
8.09467e-14
9.0469e-14
9.99932e-14
1.09516e-13
1.19038e-13
1.28563e-13
1.38085e-13
1.47601e-13
4.76161e-15
1.42843e-14
2.38073e-14
3.33303e-14
4.28527e-14
5.23763e-14
6.18987e-14
7.14223e-14
8.09452e-14
9.04674e-14
9.99914e-14
1.09514e-13
1.19036e-13
1.2856e-13
1.38082e-13
1.47598e-13
4.76153e-15
1.4284e-14
2.38068e-14
3.33296e-14
4.28519e-14
5.23752e-14
6.18974e-14
7.14208e-14
8.09435e-14
9.04655e-14
9.99893e-14
1.09512e-13
1.19033e-13
1.28558e-13
1.38079e-13
1.47595e-13
4.76143e-15
1.42837e-14
2.38062e-14
3.33288e-14
4.28509e-14
5.2374e-14
6.1896e-14
7.14192e-14
8.09417e-14
9.04634e-14
9.9987e-14
1.0951e-13
1.19031e-13
1.28555e-13
1.38076e-13
1.47592e-13
4.76133e-15
1.42834e-14
2.38057e-14
3.33281e-14
4.28499e-14
5.23728e-14
6.18946e-14
7.14176e-14
8.09399e-14
9.04614e-14
9.99848e-14
1.09507e-13
1.19028e-13
1.28552e-13
1.38073e-13
1.47588e-13
4.76122e-15
1.42832e-14
2.38053e-14
3.33276e-14
4.28492e-14
5.2372e-14
6.18936e-14
7.14164e-14
8.09385e-14
9.04599e-14
9.99831e-14
1.09505e-13
1.19026e-13
1.2855e-13
1.38071e-13
1.47586e-13
4.76114e-15
1.42828e-14
2.38047e-14
3.33267e-14
4.28481e-14
5.23706e-14
6.1892e-14
7.14146e-14
8.09365e-14
9.04576e-14
9.99806e-14
1.09503e-13
1.19023e-13
1.28547e-13
1.38067e-13
1.47582e-13
4.76102e-15
1.42824e-14
2.3804e-14
3.33256e-14
4.28468e-14
5.2369e-14
6.189e-14
7.14123e-14
8.09339e-14
9.04548e-14
9.99775e-14
1.09499e-13
1.1902e-13
1.28543e-13
1.38063e-13
1.47578e-13
4.76087e-15
1.4282e-14
2.38034e-14
3.33249e-14
4.28458e-14
5.23677e-14
6.18886e-14
7.14107e-14
8.09321e-14
9.04527e-14
9.99752e-14
1.09497e-13
1.19017e-13
1.2854e-13
1.3806e-13
1.47575e-13
4.76076e-15
1.42816e-14
2.38027e-14
3.33239e-14
4.28445e-14
5.23662e-14
6.18868e-14
7.14086e-14
8.09298e-14
9.04502e-14
9.99724e-14
1.09494e-13
1.19014e-13
1.28536e-13
1.38056e-13
1.47571e-13
4.76062e-15
1.42812e-14
2.3802e-14
3.33229e-14
4.28432e-14
5.23646e-14
6.18849e-14
7.14065e-14
8.09273e-14
9.04474e-14
9.99695e-14
1.0949e-13
1.1901e-13
1.28533e-13
1.38053e-13
1.47567e-13
4.76047e-15
1.42807e-14
2.38012e-14
3.33218e-14
4.28418e-14
5.23629e-14
6.18829e-14
7.14041e-14
8.09247e-14
9.04445e-14
9.99663e-14
1.09487e-13
1.19007e-13
1.28529e-13
1.38049e-13
1.47563e-13
4.76032e-15
1.42801e-14
2.38003e-14
3.33205e-14
4.28401e-14
5.23608e-14
6.18805e-14
7.14013e-14
8.09215e-14
9.04409e-14
9.99623e-14
1.09483e-13
1.19002e-13
1.28524e-13
1.38044e-13
1.47558e-13
4.76013e-15
1.42796e-14
2.37993e-14
3.33192e-14
4.28385e-14
5.23588e-14
6.1878e-14
7.13985e-14
8.09183e-14
9.04374e-14
9.99585e-14
1.09479e-13
1.18997e-13
1.28519e-13
1.38039e-13
1.47553e-13
4.75995e-15
1.42791e-14
2.37985e-14
3.3318e-14
4.28369e-14
5.23569e-14
6.18758e-14
7.13959e-14
8.09153e-14
9.0434e-14
9.99547e-14
1.09474e-13
1.18993e-13
1.28515e-13
1.38034e-13
1.47549e-13
4.75977e-15
1.42786e-14
2.37977e-14
3.33169e-14
4.28355e-14
5.23552e-14
6.18738e-14
7.13936e-14
8.09127e-14
9.0431e-14
9.99514e-14
1.09471e-13
1.18989e-13
1.2851e-13
1.38029e-13
1.47544e-13
4.75962e-15
1.4278e-14
2.37967e-14
3.33155e-14
4.28337e-14
5.23529e-14
6.18711e-14
7.13904e-14
8.09091e-14
9.04269e-14
9.99468e-14
1.09466e-13
1.18983e-13
1.28504e-13
1.38021e-13
1.47535e-13
4.75942e-15
1.42774e-14
2.37957e-14
3.3314e-14
4.28318e-14
5.23507e-14
6.18684e-14
7.13873e-14
8.09055e-14
9.04229e-14
9.99423e-14
1.09461e-13
1.18978e-13
1.28497e-13
1.38014e-13
1.47526e-13
4.75921e-15
1.42768e-14
2.37947e-14
3.33126e-14
4.283e-14
5.23485e-14
6.18658e-14
7.13843e-14
8.09021e-14
9.04192e-14
9.99381e-14
1.09456e-13
1.18973e-13
1.28492e-13
1.38008e-13
1.4752e-13
4.75902e-15
6.31089e-30
0
-1.51461e-28
2.52435e-29
5.04871e-29
2.52435e-29
0
5.04871e-29
-2.01948e-28
0
-5.04871e-29
0
4.03897e-28
-1.00974e-28
0
0
)
;


// ************************************************************************* //
