/*--------------------------------*- C++ -*----------------------------------*\
| =========                 |                                                 |
| \\      /  F ield         | foam-extend: Open Source CFD                    |
|  \\    /   O peration     | Version:     4.1-20200408                       |
|   \\  /    A nd           | Web:         http://www.foam-extend.org         |
|    \\/     M anipulation  |                                                 |
\*---------------------------------------------------------------------------*/
FoamFile
{
    version     2.0;
    format      ascii;
    class       volScalarField::DimensionedInternalField;
    location    "0.0185000";
    object      V0;
}
// * * * * * * * * * * * * * * * * * * * * * * * * * * * * * * * * * * * * * //

dimensions      [0 3 0 0 0 0 0];

value           nonuniform List<scalar> 
1952
(
1.43255e-14
2.38758e-14
3.34257e-14
4.2975e-14
5.25243e-14
6.20727e-14
7.16207e-14
8.11689e-14
9.07143e-14
1.00265e-13
1.09811e-13
1.19365e-13
1.2892e-13
1.385e-13
1.48081e-13
4.77529e-15
1.43244e-14
2.38739e-14
3.3423e-14
4.29715e-14
5.25201e-14
6.20678e-14
7.16151e-14
8.11626e-14
9.07074e-14
1.00257e-13
1.09803e-13
1.19356e-13
1.28911e-13
1.38493e-13
1.48077e-13
4.7749e-15
1.43232e-14
2.38719e-14
3.34202e-14
4.2968e-14
5.25158e-14
6.20627e-14
7.16093e-14
8.11561e-14
9.07003e-14
1.0025e-13
1.09795e-13
1.19348e-13
1.28903e-13
1.38486e-13
1.48073e-13
4.7745e-15
1.4322e-14
2.387e-14
3.34176e-14
4.29646e-14
5.25117e-14
6.2058e-14
7.1604e-14
8.11502e-14
9.06939e-14
1.00243e-13
1.09788e-13
1.19341e-13
1.28897e-13
1.38481e-13
1.48069e-13
4.77412e-15
1.4321e-14
2.38683e-14
3.34152e-14
4.29616e-14
5.25081e-14
6.20538e-14
7.15993e-14
8.1145e-14
9.06884e-14
1.00237e-13
1.09782e-13
1.19335e-13
1.28892e-13
1.38477e-13
1.48066e-13
4.77378e-15
1.432e-14
2.38666e-14
3.34129e-14
4.29586e-14
5.25046e-14
6.20497e-14
7.15947e-14
8.114e-14
9.0683e-14
1.00231e-13
1.09776e-13
1.1933e-13
1.28886e-13
1.38472e-13
1.48063e-13
4.77344e-15
1.4319e-14
2.3865e-14
3.34107e-14
4.29558e-14
5.25011e-14
6.20457e-14
7.15902e-14
8.11352e-14
9.06779e-14
1.00226e-13
1.0977e-13
1.19324e-13
1.28881e-13
1.38468e-13
1.48059e-13
4.77311e-15
1.43181e-14
2.38635e-14
3.34086e-14
4.29532e-14
5.2498e-14
6.20421e-14
7.15862e-14
8.11308e-14
9.06733e-14
1.00221e-13
1.09765e-13
1.19319e-13
1.28877e-13
1.38464e-13
1.48056e-13
4.77281e-15
1.43173e-14
2.38622e-14
3.34067e-14
4.29508e-14
5.24952e-14
6.20389e-14
7.15826e-14
8.1127e-14
9.06691e-14
1.00217e-13
1.09761e-13
1.19315e-13
1.28873e-13
1.3846e-13
1.48053e-13
4.77254e-15
1.43165e-14
2.38608e-14
3.34049e-14
4.29484e-14
5.24924e-14
6.20357e-14
7.15789e-14
8.1123e-14
9.06649e-14
1.00212e-13
1.09756e-13
1.19311e-13
1.28869e-13
1.38456e-13
1.48049e-13
4.77227e-15
1.43157e-14
2.38596e-14
3.34032e-14
4.29463e-14
5.24897e-14
6.20326e-14
7.15755e-14
8.11194e-14
9.06609e-14
1.00208e-13
1.09752e-13
1.19306e-13
1.28865e-13
1.38452e-13
1.48046e-13
4.77202e-15
1.4315e-14
2.38583e-14
3.34014e-14
4.2944e-14
5.2487e-14
6.20295e-14
7.1572e-14
8.11155e-14
9.06567e-14
1.00203e-13
1.09748e-13
1.19302e-13
1.2886e-13
1.38448e-13
1.48042e-13
4.77175e-15
1.43142e-14
2.38571e-14
3.33996e-14
4.29418e-14
5.24843e-14
6.20265e-14
7.15686e-14
8.11118e-14
9.06527e-14
1.00199e-13
1.09743e-13
1.19297e-13
1.28856e-13
1.38444e-13
1.48038e-13
4.7715e-15
1.43135e-14
2.38559e-14
3.3398e-14
4.29398e-14
5.24819e-14
6.20236e-14
7.15655e-14
8.11084e-14
9.06489e-14
1.00195e-13
1.09739e-13
1.19293e-13
1.28851e-13
1.3844e-13
1.48034e-13
4.77127e-15
1.43128e-14
2.38547e-14
3.33964e-14
4.29377e-14
5.24794e-14
6.20207e-14
7.15622e-14
8.11048e-14
9.06449e-14
1.00191e-13
1.09735e-13
1.19288e-13
1.28847e-13
1.38435e-13
1.4803e-13
4.77103e-15
1.43121e-14
2.38536e-14
3.33948e-14
4.29357e-14
5.2477e-14
6.20179e-14
7.15591e-14
8.11013e-14
9.0641e-14
1.00187e-13
1.0973e-13
1.19284e-13
1.28843e-13
1.38431e-13
1.48026e-13
4.7708e-15
1.43114e-14
2.38525e-14
3.33933e-14
4.29338e-14
5.24746e-14
6.20152e-14
7.1556e-14
8.1098e-14
9.06373e-14
1.00183e-13
1.09726e-13
1.1928e-13
1.28838e-13
1.38427e-13
1.48022e-13
4.77057e-15
1.43108e-14
2.38514e-14
3.33918e-14
4.29319e-14
5.24724e-14
6.20125e-14
7.1553e-14
8.10946e-14
9.06335e-14
1.00179e-13
1.09722e-13
1.19276e-13
1.28834e-13
1.38423e-13
1.48018e-13
4.77036e-15
1.43101e-14
2.38503e-14
3.33903e-14
4.29299e-14
5.24701e-14
6.20098e-14
7.155e-14
8.10911e-14
9.06298e-14
1.00175e-13
1.09718e-13
1.19271e-13
1.2883e-13
1.38419e-13
1.48014e-13
4.77014e-15
1.43095e-14
2.38492e-14
3.33887e-14
4.2928e-14
5.24677e-14
6.20071e-14
7.1547e-14
8.10876e-14
9.0626e-14
1.00171e-13
1.09714e-13
1.19267e-13
1.28825e-13
1.38414e-13
1.48009e-13
4.76992e-15
1.43088e-14
2.38481e-14
3.33872e-14
4.29261e-14
5.24654e-14
6.20044e-14
7.15439e-14
8.10841e-14
9.06222e-14
1.00167e-13
1.09709e-13
1.19263e-13
1.28821e-13
1.3841e-13
1.48005e-13
4.7697e-15
1.43082e-14
2.38471e-14
3.33857e-14
4.29242e-14
5.24632e-14
6.20018e-14
7.15409e-14
8.10807e-14
9.06187e-14
1.00163e-13
1.09705e-13
1.19258e-13
1.28817e-13
1.38406e-13
1.48001e-13
4.76948e-15
1.43075e-14
2.3846e-14
3.33842e-14
4.29223e-14
5.24609e-14
6.19991e-14
7.15377e-14
8.10773e-14
9.06149e-14
1.00159e-13
1.09701e-13
1.19254e-13
1.28812e-13
1.38402e-13
1.47997e-13
4.76926e-15
1.43068e-14
2.38449e-14
3.33827e-14
4.29203e-14
5.24585e-14
6.19964e-14
7.15346e-14
8.10738e-14
9.06112e-14
1.00155e-13
1.09697e-13
1.1925e-13
1.28808e-13
1.38397e-13
1.47992e-13
4.76904e-15
1.43062e-14
2.38438e-14
3.33812e-14
4.29184e-14
5.24562e-14
6.19936e-14
7.15314e-14
8.10704e-14
9.06074e-14
1.00151e-13
1.09693e-13
1.19245e-13
1.28803e-13
1.38393e-13
1.47988e-13
4.76882e-15
1.43055e-14
2.38427e-14
3.33797e-14
4.29165e-14
5.24539e-14
6.19909e-14
7.15283e-14
8.1067e-14
9.06038e-14
1.00147e-13
1.09689e-13
1.19241e-13
1.28799e-13
1.38389e-13
1.47984e-13
4.76859e-15
1.43048e-14
2.38415e-14
3.3378e-14
4.29144e-14
5.24514e-14
6.19879e-14
7.1525e-14
8.10634e-14
9.05998e-14
1.00143e-13
1.09684e-13
1.19237e-13
1.28795e-13
1.38384e-13
1.4798e-13
4.76835e-15
1.43041e-14
2.38403e-14
3.33764e-14
4.29124e-14
5.24489e-14
6.19851e-14
7.15218e-14
8.10598e-14
9.0596e-14
1.00139e-13
1.0968e-13
1.19233e-13
1.2879e-13
1.3838e-13
1.47976e-13
4.76812e-15
1.43034e-14
2.38391e-14
3.33748e-14
4.29103e-14
5.24464e-14
6.19822e-14
7.15185e-14
8.10563e-14
9.05922e-14
1.00135e-13
1.09676e-13
1.19228e-13
1.28786e-13
1.38376e-13
1.47972e-13
4.76787e-15
1.43026e-14
2.38379e-14
3.33731e-14
4.29081e-14
5.24438e-14
6.19793e-14
7.15153e-14
8.10528e-14
9.05884e-14
1.00131e-13
1.09672e-13
1.19224e-13
1.28782e-13
1.38373e-13
1.47969e-13
4.76763e-15
1.43018e-14
2.38364e-14
3.33711e-14
4.29056e-14
5.24408e-14
6.19759e-14
7.15114e-14
8.10485e-14
9.05838e-14
1.00126e-13
1.09667e-13
1.19219e-13
1.28777e-13
1.38368e-13
1.47964e-13
4.76733e-15
1.43009e-14
2.3835e-14
3.33691e-14
4.2903e-14
5.24377e-14
6.19722e-14
7.15073e-14
8.10441e-14
9.05791e-14
1.00121e-13
1.09662e-13
1.19214e-13
1.28772e-13
1.38363e-13
1.4796e-13
4.76703e-15
1.42999e-14
2.38334e-14
3.33669e-14
4.29003e-14
5.24344e-14
6.19685e-14
7.15032e-14
8.10396e-14
9.05744e-14
1.00116e-13
1.09657e-13
1.19209e-13
1.28768e-13
1.38359e-13
1.47955e-13
4.76672e-15
1.42989e-14
2.38316e-14
3.33644e-14
4.28972e-14
5.24307e-14
6.19642e-14
7.14985e-14
8.10344e-14
9.0569e-14
1.00111e-13
1.09651e-13
1.19204e-13
1.28762e-13
1.38354e-13
1.47951e-13
4.76636e-15
1.42979e-14
2.383e-14
3.33622e-14
4.28944e-14
5.24274e-14
6.19605e-14
7.14944e-14
8.103e-14
9.05645e-14
1.00106e-13
1.09647e-13
1.192e-13
1.28758e-13
1.38351e-13
1.47948e-13
4.76603e-15
1.42966e-14
2.3828e-14
3.33594e-14
4.28908e-14
5.24232e-14
6.19557e-14
7.14891e-14
8.10243e-14
9.05585e-14
1.001e-13
1.09641e-13
1.19194e-13
1.28753e-13
1.38346e-13
1.47944e-13
4.76562e-15
1.42953e-14
2.38258e-14
3.33563e-14
4.2887e-14
5.24187e-14
6.19505e-14
7.14834e-14
8.10181e-14
9.05522e-14
1.00093e-13
1.09634e-13
1.19188e-13
1.28748e-13
1.38341e-13
1.4794e-13
4.76517e-15
1.4294e-14
2.38236e-14
3.33533e-14
4.28833e-14
5.24142e-14
6.19455e-14
7.1478e-14
8.10122e-14
9.05462e-14
1.00087e-13
1.09629e-13
1.19182e-13
1.28743e-13
1.38337e-13
1.47937e-13
4.76472e-15
1.42924e-14
2.3821e-14
3.33497e-14
4.28788e-14
5.24089e-14
6.19394e-14
7.14713e-14
8.10051e-14
9.05389e-14
1.0008e-13
1.09622e-13
1.19176e-13
1.28737e-13
1.38332e-13
1.47933e-13
4.7642e-15
1.42907e-14
2.38182e-14
3.33459e-14
4.28739e-14
5.24031e-14
6.19328e-14
7.14641e-14
8.09973e-14
9.05309e-14
1.00072e-13
1.09614e-13
1.19168e-13
1.28731e-13
1.38328e-13
1.4793e-13
4.76363e-15
1.42889e-14
2.38152e-14
3.33417e-14
4.28687e-14
5.23969e-14
6.19257e-14
7.14562e-14
8.09889e-14
9.05223e-14
1.00063e-13
1.09606e-13
1.19161e-13
1.28725e-13
1.38323e-13
1.47927e-13
4.76303e-15
1.4287e-14
2.3812e-14
3.33373e-14
4.28631e-14
5.23902e-14
6.19181e-14
7.14478e-14
8.09799e-14
9.0513e-14
1.00054e-13
1.09597e-13
1.19153e-13
1.28719e-13
1.38318e-13
1.47924e-13
4.76239e-15
1.42848e-14
2.38084e-14
3.33324e-14
4.28568e-14
5.23826e-14
6.19093e-14
7.1438e-14
8.09693e-14
9.05019e-14
1.00043e-13
1.09586e-13
1.19143e-13
1.28711e-13
1.38312e-13
1.47921e-13
4.76167e-15
1.42825e-14
2.38045e-14
3.33269e-14
4.28498e-14
5.23741e-14
6.18995e-14
7.14269e-14
8.09572e-14
9.04892e-14
1.00029e-13
1.09574e-13
1.19131e-13
1.28701e-13
1.38305e-13
1.47918e-13
4.76089e-15
1.42799e-14
2.38003e-14
3.33209e-14
4.28421e-14
5.23647e-14
6.18885e-14
7.14144e-14
8.09434e-14
9.04743e-14
1.00014e-13
1.09558e-13
1.19117e-13
1.28689e-13
1.38296e-13
1.47914e-13
4.76004e-15
1.42772e-14
2.37957e-14
3.33144e-14
4.28338e-14
5.23545e-14
6.18763e-14
7.14004e-14
8.09277e-14
9.04571e-14
9.99959e-14
1.0954e-13
1.19099e-13
1.28674e-13
1.38284e-13
1.47909e-13
4.75913e-15
1.42742e-14
2.37907e-14
3.33073e-14
4.28245e-14
5.23429e-14
6.18625e-14
7.13842e-14
8.09093e-14
9.04366e-14
9.99736e-14
1.09517e-13
1.19075e-13
1.28653e-13
1.38267e-13
1.47901e-13
4.75814e-15
1.42712e-14
2.37856e-14
3.33001e-14
4.2815e-14
5.23311e-14
6.18481e-14
7.1367e-14
8.08895e-14
9.04138e-14
9.99484e-14
1.09489e-13
1.19047e-13
1.28625e-13
1.38242e-13
1.47888e-13
4.75715e-15
1.4268e-14
2.37803e-14
3.32924e-14
4.28048e-14
5.23182e-14
6.18323e-14
7.13479e-14
8.0867e-14
9.03873e-14
9.99184e-14
1.09455e-13
1.1901e-13
1.28586e-13
1.38202e-13
1.47853e-13
4.75611e-15
1.42646e-14
2.37745e-14
3.32842e-14
4.27938e-14
5.23041e-14
6.18148e-14
7.13266e-14
8.08415e-14
9.03567e-14
9.98829e-14
1.09414e-13
1.18963e-13
1.28533e-13
1.38144e-13
1.47789e-13
4.755e-15
1.42615e-14
2.37692e-14
3.32764e-14
4.27833e-14
5.22905e-14
6.17977e-14
7.13051e-14
8.08154e-14
9.03246e-14
9.98447e-14
1.09367e-13
1.18908e-13
1.28468e-13
1.38069e-13
1.47702e-13
4.75396e-15
1.42584e-14
2.37639e-14
3.32687e-14
4.27729e-14
5.22769e-14
6.17802e-14
7.12831e-14
8.0788e-14
9.02902e-14
9.98027e-14
1.09315e-13
1.18846e-13
1.28391e-13
1.37976e-13
1.47591e-13
4.75295e-15
1.42556e-14
2.3759e-14
3.32615e-14
4.27629e-14
5.22637e-14
6.17631e-14
7.12611e-14
8.07601e-14
9.02547e-14
9.97584e-14
1.09258e-13
1.18776e-13
1.28303e-13
1.37869e-13
1.47458e-13
4.752e-15
1.42531e-14
2.37546e-14
3.32551e-14
4.2754e-14
5.22518e-14
6.17475e-14
7.12407e-14
8.07336e-14
9.02202e-14
9.97142e-14
1.09201e-13
1.18703e-13
1.28208e-13
1.3775e-13
1.47307e-13
4.75118e-15
1.42511e-14
2.37511e-14
3.32498e-14
4.27466e-14
5.22418e-14
6.1734e-14
7.12228e-14
8.07098e-14
9.01886e-14
9.96724e-14
1.09145e-13
1.1863e-13
1.28109e-13
1.37624e-13
1.47142e-13
4.75052e-15
1.42495e-14
2.37484e-14
3.32458e-14
4.27408e-14
5.22338e-14
6.1723e-14
7.12081e-14
8.06897e-14
9.01613e-14
9.96353e-14
1.09093e-13
1.18561e-13
1.28012e-13
1.37495e-13
1.46964e-13
4.75001e-15
1.42486e-14
2.37468e-14
3.32433e-14
4.27373e-14
5.22287e-14
6.17159e-14
7.11981e-14
8.06754e-14
9.01414e-14
9.96068e-14
1.09052e-13
1.18503e-13
1.27926e-13
1.37375e-13
1.46782e-13
4.74972e-15
1.42486e-14
2.37467e-14
3.32431e-14
4.27367e-14
5.22277e-14
6.17139e-14
7.11948e-14
8.06697e-14
9.01326e-14
9.95923e-14
1.0903e-13
1.18468e-13
1.27869e-13
1.37285e-13
1.46619e-13
4.7497e-15
1.42491e-14
2.37476e-14
3.32443e-14
4.27382e-14
5.22295e-14
6.17157e-14
7.11967e-14
8.06708e-14
9.01328e-14
9.95895e-14
1.09024e-13
1.18453e-13
1.27839e-13
1.37231e-13
1.46508e-13
4.74988e-15
1.42491e-14
2.37476e-14
3.32443e-14
4.27381e-14
5.22293e-14
6.17153e-14
7.11962e-14
8.06694e-14
9.01308e-14
9.95847e-14
1.09017e-13
1.18438e-13
1.27818e-13
1.372e-13
1.46472e-13
4.74989e-15
1.42478e-14
2.37453e-14
3.3241e-14
4.27336e-14
5.22237e-14
6.17082e-14
7.11879e-14
8.06593e-14
9.01193e-14
9.95705e-14
1.09002e-13
1.18419e-13
1.27806e-13
1.37195e-13
1.46504e-13
4.74946e-15
1.42452e-14
2.37409e-14
3.32346e-14
4.27252e-14
5.22131e-14
6.16953e-14
7.11727e-14
8.06414e-14
9.01001e-14
9.95498e-14
1.08984e-13
1.18405e-13
1.2781e-13
1.37216e-13
1.46575e-13
4.74861e-15
1.42414e-14
2.37346e-14
3.32256e-14
4.27133e-14
5.21983e-14
6.16774e-14
7.11519e-14
8.06177e-14
9.00751e-14
9.95244e-14
1.08964e-13
1.18393e-13
1.27822e-13
1.37252e-13
1.46664e-13
4.74738e-15
1.42367e-14
2.37266e-14
3.32145e-14
4.26988e-14
5.21804e-14
6.16561e-14
7.11276e-14
8.05909e-14
9.00473e-14
9.94967e-14
1.08942e-13
1.18382e-13
1.27833e-13
1.37291e-13
1.46761e-13
4.7458e-15
1.42311e-14
2.37174e-14
3.32017e-14
4.26825e-14
5.21607e-14
6.16329e-14
7.11013e-14
8.05623e-14
9.00173e-14
9.94659e-14
1.08916e-13
1.18367e-13
1.2784e-13
1.37327e-13
1.46846e-13
4.74395e-15
1.4225e-14
2.37072e-14
3.31875e-14
4.26644e-14
5.21388e-14
6.16063e-14
7.10701e-14
8.05282e-14
8.99837e-14
9.94385e-14
1.08902e-13
1.18374e-13
1.2787e-13
1.37376e-13
1.46915e-13
4.74192e-15
1.42177e-14
2.36949e-14
3.31699e-14
4.26417e-14
5.21117e-14
6.15764e-14
7.10406e-14
8.05038e-14
8.99705e-14
9.94435e-14
1.08928e-13
1.1842e-13
1.27928e-13
1.37441e-13
1.46974e-13
4.73953e-15
1.42113e-14
2.36845e-14
3.31563e-14
4.26263e-14
5.2097e-14
6.15662e-14
7.10394e-14
8.05153e-14
8.99961e-14
9.94823e-14
1.08975e-13
1.18472e-13
1.27984e-13
1.37498e-13
1.47026e-13
4.73734e-15
1.42099e-14
2.36833e-14
3.31569e-14
4.26307e-14
5.21067e-14
6.15824e-14
7.1062e-14
8.05435e-14
9.00287e-14
9.95186e-14
1.09014e-13
1.18512e-13
1.28025e-13
1.3754e-13
1.47065e-13
4.73678e-15
1.42134e-14
2.36894e-14
3.31661e-14
4.26431e-14
5.21225e-14
6.16017e-14
7.10842e-14
8.0568e-14
9.00554e-14
9.95483e-14
1.09047e-13
1.18547e-13
1.28061e-13
1.37574e-13
1.47096e-13
4.73787e-15
1.42172e-14
2.36956e-14
3.31747e-14
4.26539e-14
5.21355e-14
6.16175e-14
7.11032e-14
8.05903e-14
9.00804e-14
9.95754e-14
1.09075e-13
1.18577e-13
1.2809e-13
1.37603e-13
1.47122e-13
4.73913e-15
1.42204e-14
2.3701e-14
3.31824e-14
4.26641e-14
5.21482e-14
6.16325e-14
7.11203e-14
8.06094e-14
9.01013e-14
9.95979e-14
1.09099e-13
1.18601e-13
1.28113e-13
1.37625e-13
1.47142e-13
4.74018e-15
1.42234e-14
2.37061e-14
3.31894e-14
4.26731e-14
5.21591e-14
6.16453e-14
7.1135e-14
8.06259e-14
9.01193e-14
9.96171e-14
1.09118e-13
1.18621e-13
1.28132e-13
1.37643e-13
1.47157e-13
4.74118e-15
1.4226e-14
2.37104e-14
3.31955e-14
4.26809e-14
5.21686e-14
6.16565e-14
7.11476e-14
8.06398e-14
9.01343e-14
9.96327e-14
1.09134e-13
1.18637e-13
1.28147e-13
1.37657e-13
1.47168e-13
4.74205e-15
1.42284e-14
2.37144e-14
3.3201e-14
4.26879e-14
5.2177e-14
6.16663e-14
7.11586e-14
8.06519e-14
9.01471e-14
9.96461e-14
1.09148e-13
1.1865e-13
1.28159e-13
1.37667e-13
1.47176e-13
4.74284e-15
1.42305e-14
2.37178e-14
3.32059e-14
4.2694e-14
5.21844e-14
6.16748e-14
7.11681e-14
8.06622e-14
9.01579e-14
9.96572e-14
1.09159e-13
1.1866e-13
1.28169e-13
1.37676e-13
1.47183e-13
4.74354e-15
1.42323e-14
2.37208e-14
3.321e-14
4.26993e-14
5.21906e-14
6.16819e-14
7.1176e-14
8.06706e-14
9.01667e-14
9.96661e-14
1.09167e-13
1.18668e-13
1.28176e-13
1.37682e-13
1.47186e-13
4.74414e-15
1.42338e-14
2.37234e-14
3.32135e-14
4.27037e-14
5.21959e-14
6.16879e-14
7.11825e-14
8.06776e-14
9.01738e-14
9.96732e-14
1.09174e-13
1.18675e-13
1.28181e-13
1.37685e-13
1.47188e-13
4.74466e-15
1.42353e-14
2.37258e-14
3.32168e-14
4.27078e-14
5.22008e-14
6.16934e-14
7.11885e-14
8.0684e-14
9.01804e-14
9.96798e-14
1.0918e-13
1.1868e-13
1.28186e-13
1.37689e-13
1.4719e-13
4.74515e-15
1.42365e-14
2.37278e-14
3.32195e-14
4.27112e-14
5.22048e-14
6.16979e-14
7.11934e-14
8.06891e-14
9.01855e-14
9.96848e-14
1.09185e-13
1.18684e-13
1.28189e-13
1.37691e-13
1.47191e-13
4.74555e-15
1.42373e-14
2.37291e-14
3.32214e-14
4.27135e-14
5.22074e-14
6.17009e-14
7.11965e-14
8.06922e-14
9.01885e-14
9.96875e-14
1.09187e-13
1.18686e-13
1.28189e-13
1.37691e-13
1.47189e-13
4.74583e-15
1.4238e-14
2.37303e-14
3.3223e-14
4.27155e-14
5.22096e-14
6.17033e-14
7.1199e-14
8.06947e-14
9.01907e-14
9.96894e-14
1.09188e-13
1.18687e-13
1.28189e-13
1.3769e-13
1.47187e-13
4.74607e-15
1.42386e-14
2.37312e-14
3.32242e-14
4.2717e-14
5.22114e-14
6.17052e-14
7.12009e-14
8.06966e-14
9.01924e-14
9.96908e-14
1.09189e-13
1.18687e-13
1.28189e-13
1.37688e-13
1.47184e-13
4.74626e-15
1.42388e-14
2.37315e-14
3.32246e-14
4.27174e-14
5.22118e-14
6.17054e-14
7.1201e-14
8.06964e-14
9.01918e-14
9.96897e-14
1.09187e-13
1.18684e-13
1.28185e-13
1.37684e-13
1.47178e-13
4.74633e-15
1.42392e-14
2.37322e-14
3.32254e-14
4.27184e-14
5.22129e-14
6.17066e-14
7.12021e-14
8.06974e-14
9.01926e-14
9.96902e-14
1.09188e-13
1.18684e-13
1.28184e-13
1.37682e-13
1.47175e-13
4.74646e-15
1.42393e-14
2.37322e-14
3.32255e-14
4.27185e-14
5.22128e-14
6.17064e-14
7.12017e-14
8.06967e-14
9.01915e-14
9.96886e-14
1.09185e-13
1.18681e-13
1.28181e-13
1.37677e-13
1.4717e-13
4.74648e-15
1.42393e-14
2.37323e-14
3.32255e-14
4.27184e-14
5.22127e-14
6.17061e-14
7.12012e-14
8.06959e-14
9.01904e-14
9.96871e-14
1.09183e-13
1.18679e-13
1.28177e-13
1.37673e-13
1.47165e-13
4.7465e-15
1.42393e-14
2.37323e-14
3.32255e-14
4.27184e-14
5.22125e-14
6.17058e-14
7.12007e-14
8.06952e-14
9.01893e-14
9.96857e-14
1.09181e-13
1.18676e-13
1.28174e-13
1.3767e-13
1.4716e-13
4.7465e-15
1.42392e-14
2.37322e-14
3.32253e-14
4.2718e-14
5.22121e-14
6.17052e-14
7.11998e-14
8.0694e-14
9.01878e-14
9.96838e-14
1.09179e-13
1.18673e-13
1.28171e-13
1.37666e-13
1.47156e-13
4.74648e-15
1.4239e-14
2.37318e-14
3.32247e-14
4.27173e-14
5.22111e-14
6.17039e-14
7.11982e-14
8.06921e-14
9.01855e-14
9.9681e-14
1.09176e-13
1.18669e-13
1.28166e-13
1.3766e-13
1.4715e-13
4.74641e-15
1.42387e-14
2.37312e-14
3.32239e-14
4.27162e-14
5.22097e-14
6.17022e-14
7.11962e-14
8.06896e-14
9.01825e-14
9.96776e-14
1.09172e-13
1.18665e-13
1.28161e-13
1.37655e-13
1.47143e-13
4.7463e-15
1.42382e-14
2.37304e-14
3.32228e-14
4.27147e-14
5.22079e-14
6.17e-14
7.11935e-14
8.06865e-14
9.01789e-14
9.96734e-14
1.09167e-13
1.1866e-13
1.28155e-13
1.37648e-13
1.47136e-13
4.74615e-15
1.42377e-14
2.37296e-14
3.32216e-14
4.27131e-14
5.22059e-14
6.16976e-14
7.11907e-14
8.06832e-14
9.01751e-14
9.9669e-14
1.09162e-13
1.18654e-13
1.28149e-13
1.37641e-13
1.47128e-13
4.74598e-15
1.42372e-14
2.37287e-14
3.32204e-14
4.27116e-14
5.22039e-14
6.16953e-14
7.11879e-14
8.068e-14
9.01714e-14
9.96649e-14
1.09157e-13
1.18649e-13
1.28143e-13
1.37635e-13
1.47121e-13
4.74581e-15
1.42366e-14
2.37278e-14
3.3219e-14
4.27098e-14
5.22017e-14
6.16926e-14
7.11848e-14
8.06763e-14
9.01672e-14
9.96601e-14
1.09152e-13
1.18643e-13
1.28136e-13
1.37627e-13
1.47113e-13
4.74562e-15
1.42361e-14
2.37269e-14
3.32179e-14
4.27083e-14
5.21998e-14
6.16903e-14
7.11821e-14
8.06732e-14
9.01637e-14
9.96562e-14
1.09148e-13
1.18638e-13
1.28131e-13
1.37621e-13
1.47107e-13
4.74545e-15
1.42354e-14
2.37258e-14
3.32162e-14
4.27062e-14
5.21972e-14
6.16872e-14
7.11785e-14
8.06691e-14
9.0159e-14
9.96509e-14
1.09142e-13
1.18631e-13
1.28124e-13
1.37614e-13
1.47098e-13
4.74523e-15
1.42348e-14
2.37247e-14
3.32147e-14
4.27042e-14
5.21948e-14
6.16843e-14
7.11751e-14
8.06652e-14
9.01546e-14
9.96459e-14
1.09136e-13
1.18625e-13
1.28117e-13
1.37606e-13
1.4709e-13
4.74501e-15
1.4234e-14
2.37233e-14
3.32128e-14
4.27017e-14
5.21917e-14
6.16807e-14
7.11709e-14
8.06604e-14
9.01492e-14
9.96399e-14
1.0913e-13
1.18618e-13
1.28109e-13
1.37598e-13
1.47081e-13
4.74474e-15
1.42334e-14
2.37223e-14
3.32114e-14
4.26999e-14
5.21895e-14
6.1678e-14
7.11677e-14
8.06568e-14
9.01451e-14
9.96354e-14
1.09125e-13
1.18612e-13
1.28103e-13
1.37591e-13
1.47074e-13
4.74454e-15
1.42326e-14
2.37211e-14
3.32096e-14
4.26976e-14
5.21867e-14
6.16747e-14
7.11639e-14
8.06524e-14
9.01402e-14
9.96299e-14
1.09119e-13
1.18606e-13
1.28096e-13
1.37583e-13
1.47065e-13
4.74429e-15
1.42317e-14
2.37196e-14
3.32075e-14
4.26949e-14
5.21834e-14
6.16708e-14
7.11594e-14
8.06473e-14
9.01344e-14
9.96235e-14
1.09111e-13
1.18598e-13
1.28088e-13
1.37574e-13
1.47056e-13
4.74399e-15
1.42308e-14
2.3718e-14
3.32053e-14
4.2692e-14
5.21798e-14
6.16665e-14
7.11545e-14
8.06417e-14
9.01282e-14
9.96165e-14
1.09104e-13
1.1859e-13
1.28079e-13
1.37565e-13
1.47045e-13
4.74367e-15
1.42299e-14
2.37165e-14
3.32032e-14
4.26893e-14
5.21766e-14
6.16627e-14
7.115e-14
8.06366e-14
9.01225e-14
9.96102e-14
1.09097e-13
1.18582e-13
1.2807e-13
1.37556e-13
1.47036e-13
4.74337e-15
1.42291e-14
2.37151e-14
3.32013e-14
4.26869e-14
5.21736e-14
6.16591e-14
7.11459e-14
8.0632e-14
9.01173e-14
9.96045e-14
1.09091e-13
1.18575e-13
1.28063e-13
1.37548e-13
1.47027e-13
4.7431e-15
1.4228e-14
2.37134e-14
3.31989e-14
4.26838e-14
5.21698e-14
6.16546e-14
7.11407e-14
8.06261e-14
9.01107e-14
9.95972e-14
1.09083e-13
1.18567e-13
1.28053e-13
1.37538e-13
1.47016e-13
4.74276e-15
1.42273e-14
2.37122e-14
3.31972e-14
4.26816e-14
5.21671e-14
6.16514e-14
7.1137e-14
8.06219e-14
9.0106e-14
9.9592e-14
1.09077e-13
1.18561e-13
1.28047e-13
1.3753e-13
1.47009e-13
4.74251e-15
1.42264e-14
2.37107e-14
3.3195e-14
4.26789e-14
5.21637e-14
6.16475e-14
7.11325e-14
8.06168e-14
9.01003e-14
9.95857e-14
1.0907e-13
1.18553e-13
1.28039e-13
1.37522e-13
1.46999e-13
4.74221e-15
1.42253e-14
2.37088e-14
3.31925e-14
4.26755e-14
5.21597e-14
6.16427e-14
7.11269e-14
8.06105e-14
9.00933e-14
9.95779e-14
1.09061e-13
1.18544e-13
1.28029e-13
1.37511e-13
1.46988e-13
4.74184e-15
1.42243e-14
2.37072e-14
3.31902e-14
4.26726e-14
5.21561e-14
6.16384e-14
7.1122e-14
8.06049e-14
9.00871e-14
9.95711e-14
1.09054e-13
1.18536e-13
1.2802e-13
1.37502e-13
1.46978e-13
4.74151e-15
1.42234e-14
2.37057e-14
3.3188e-14
4.26699e-14
5.21527e-14
6.16345e-14
7.11175e-14
8.05998e-14
9.00814e-14
9.95648e-14
1.09047e-13
1.18528e-13
1.28012e-13
1.37493e-13
1.46969e-13
4.74121e-15
1.42223e-14
2.37039e-14
3.31856e-14
4.26667e-14
5.21489e-14
6.16299e-14
7.11123e-14
8.05939e-14
9.00747e-14
9.95575e-14
1.09039e-13
1.1852e-13
1.28003e-13
1.37484e-13
1.46959e-13
4.74086e-15
1.42212e-14
2.37021e-14
3.31831e-14
4.26635e-14
5.21449e-14
6.16253e-14
7.11069e-14
8.05878e-14
9.0068e-14
9.95501e-14
1.09031e-13
1.18511e-13
1.27994e-13
1.37474e-13
1.46948e-13
4.7405e-15
1.42201e-14
2.37002e-14
3.31803e-14
4.266e-14
5.21407e-14
6.16202e-14
7.11011e-14
8.05812e-14
9.00606e-14
9.9542e-14
1.09022e-13
1.18501e-13
1.27983e-13
1.37463e-13
1.46937e-13
4.74011e-15
1.42189e-14
2.36982e-14
3.31776e-14
4.26564e-14
5.21363e-14
6.16151e-14
7.10951e-14
8.05745e-14
9.00531e-14
9.95337e-14
1.09013e-13
1.18492e-13
1.27973e-13
1.37452e-13
1.46925e-13
4.73972e-15
1.42177e-14
2.36963e-14
3.31749e-14
4.2653e-14
5.21321e-14
6.16101e-14
7.10894e-14
8.0568e-14
9.00458e-14
9.95256e-14
1.09004e-13
1.18482e-13
1.27963e-13
1.37441e-13
1.46914e-13
4.73933e-15
1.42166e-14
2.36944e-14
3.31722e-14
4.26495e-14
5.21278e-14
6.16051e-14
7.10835e-14
8.05613e-14
9.00384e-14
9.95174e-14
1.08995e-13
1.18472e-13
1.27952e-13
1.3743e-13
1.46903e-13
4.73895e-15
1.42155e-14
2.36925e-14
3.31696e-14
4.26462e-14
5.21237e-14
6.16002e-14
7.10779e-14
8.0555e-14
9.00313e-14
9.95095e-14
1.08987e-13
1.18463e-13
1.27942e-13
1.37419e-13
1.46892e-13
4.73858e-15
1.42144e-14
2.36906e-14
3.3167e-14
4.26428e-14
5.21196e-14
6.15953e-14
7.10722e-14
8.05485e-14
9.00239e-14
9.95013e-14
1.08978e-13
1.18453e-13
1.27931e-13
1.37406e-13
1.46878e-13
4.7382e-15
1.4213e-14
2.36883e-14
3.31637e-14
4.26386e-14
5.21145e-14
6.15892e-14
7.10652e-14
8.05405e-14
9.0015e-14
9.94914e-14
1.08967e-13
1.18441e-13
1.27918e-13
1.37392e-13
1.46861e-13
4.73774e-15
1.42118e-14
2.36864e-14
3.3161e-14
4.2635e-14
5.21101e-14
6.15841e-14
7.10593e-14
8.05338e-14
9.00075e-14
9.94832e-14
1.08958e-13
1.18431e-13
1.27907e-13
1.3738e-13
1.46848e-13
4.73735e-15
-1.89327e-29
0
-1.26218e-29
-7.57306e-29
-2.52435e-29
-2.52435e-29
0
7.57306e-29
5.04871e-29
1.00974e-28
1.00974e-28
0
0
-5.04871e-28
-1.00974e-28
6.31089e-30
)
;


// ************************************************************************* //
