/*--------------------------------*- C++ -*----------------------------------*\
  =========                 |
  \\      /  F ield         | OpenFOAM: The Open Source CFD Toolbox
   \\    /   O peration     | Website:  https://openfoam.org
    \\  /    A nd           | Version:  8
     \\/     M anipulation  |
\*---------------------------------------------------------------------------*/
FoamFile
{
    version     2.0;
    format      ascii;
    class       surfaceScalarField;
    location    "0.0470000";
    object      meshPhi;
}
// * * * * * * * * * * * * * * * * * * * * * * * * * * * * * * * * * * * * * //

dimensions      [0 3 -1 0 0 0 0];

internalField   nonuniform List<scalar> 
1691
(
-5.67220693184131e-19
-5.3051092859982e-14
-1.13513513129299e-18
-5.30219728365963e-14
-1.70126094151061e-18
-5.29873473183397e-14
-2.26981967549184e-18
-5.2954147018271e-14
-2.84097044604754e-18
-5.29372828200321e-14
-3.40966662381495e-18
-5.29150460132265e-14
-3.97304019652475e-18
-5.28731303435897e-14
-4.54603321786432e-18
-5.28428898257596e-14
-5.12595005140316e-18
-5.28403768513619e-14
-5.69746966451522e-18
-5.28403931862861e-14
-6.28201680219179e-18
-5.28460321589875e-14
-6.87825732834175e-18
-5.28822075964147e-14
-7.4790501710457e-18
-5.29317327522093e-14
-8.06315783106534e-18
-5.29572564975386e-14
-8.64881455932e-18
-5.29542106323143e-14
-9.2286643084307e-18
-5.29339783418076e-14
-9.8055780969641e-18
-5.2913665800688e-14
-1.04268887061698e-17
-5.29368420218724e-14
-1.10688129821801e-17
-5.3017629301097e-14
-1.17014748062896e-17
-5.30995781211503e-14
-1.22919657038523e-17
-5.31282626971042e-14
-1.28860126709635e-17
-5.3116116058531e-14
-1.34899810173833e-17
-5.31077279343968e-14
-1.41220006553096e-17
-5.31379318248285e-14
-1.48013590436887e-17
-5.32146868686324e-14
-1.54448459190906e-17
-5.32932114013468e-14
-1.60661850740952e-17
-5.33301207618366e-14
-1.66827352142684e-17
-5.33337358653332e-14
-1.72967761127324e-17
-5.33394007243523e-14
-1.79949566834398e-17
-5.33963110472036e-14
-1.87144519674129e-17
-5.35008331151183e-14
-1.93659759483744e-17
-5.35830444902545e-14
-2.0024151547628e-17
-5.36275011354959e-14
-2.07176192645706e-17
-5.36863956576063e-14
-2.14660000964732e-17
-5.37935459146766e-14
-2.2240780341941e-17
-5.39365155959626e-14
-2.29998158855303e-17
-5.40845634867782e-14
-2.37963177344632e-17
-5.42430883032465e-14
-2.46436698934949e-17
-5.44189192969002e-14
-2.54029549974274e-17
-5.45851495148815e-14
-2.63064809638641e-17
-5.47865910820416e-14
-2.73701861738419e-17
-5.51034885989276e-14
-2.84835367947013e-17
-5.55206928336233e-14
-2.97272667265476e-17
-5.60314382444253e-14
-3.1267745935493e-17
-5.67176435101418e-14
-3.29610333090573e-17
-5.75169942977122e-14
-3.42879288817502e-17
-5.8296321259666e-14
-3.64316377195265e-17
-5.92538343868447e-14
-3.89820090765031e-17
-6.06231416564446e-14
-4.17125639944177e-17
-6.21678813535368e-14
-4.39295757354219e-17
-6.3654698058978e-14
-4.74647125597001e-17
-6.5435099031773e-14
-5.18293033021071e-17
-6.79074186010594e-14
-5.67391156695225e-17
-7.07853714627064e-14
-6.09899617125702e-17
-7.37587113815151e-14
-6.7836591294187e-17
-7.73957595112427e-14
-7.55012905818667e-17
-8.17223813640167e-14
-8.09705891313441e-17
-8.59744547301708e-14
-9.07539637102394e-17
-9.09101978521046e-14
-1.03042559645186e-16
-9.77495214645249e-14
-1.16839118739036e-16
-1.05722582841953e-13
-1.29613430500446e-16
-1.1439753473848e-13
-1.54211459185059e-16
-1.26755905105761e-13
-1.88572532392978e-16
-1.44436666491941e-13
-2.21568147278429e-16
-1.66439235558524e-13
-2.81421669944819e-16
-1.96231995547978e-13
-3.56316865418047e-16
-2.36928633399106e-13
-4.34879078297931e-16
-2.8198913497893e-13
-4.97133607605394e-16
-3.24658810808322e-13
-5.85809164455001e-16
-3.69148572029972e-13
-6.80949582492516e-16
-4.19846894643756e-13
-7.74362775612325e-16
-4.71387218542595e-13
-8.56852679940041e-16
-5.19430642797208e-13
-9.56010267776773e-16
-5.67239088176427e-13
-1.05177128555772e-15
-6.15731329576943e-13
-1.13693554708196e-15
-6.60838370884318e-13
-1.22309646212527e-15
-7.01835971335843e-13
-1.30492277021187e-15
-7.40073922513256e-13
-1.38285014995301e-15
-7.76467148911817e-13
-1.47403989628706e-15
-8.12049356794927e-13
-1.53552720832708e-15
-8.42391283358437e-13
-1.58694223745968e-15
-8.66051178136816e-13
-1.6689266562095e-15
-8.89128715764916e-13
-1.70926805062915e-15
-9.08412413080253e-13
-1.74080878630245e-15
-9.19556640322283e-13
-1.77102600855045e-15
-9.29555666943902e-13
-1.66537596988357e-15
-9.40733049439153e-13
-1.54117487730232e-15
-9.48551047536484e-13
-1.42318910545061e-15
-9.54565269053657e-13
-1.30720874225328e-15
-9.61166800196241e-13
-1.17408604108263e-15
-9.64752928659771e-13
-1.04130470693407e-15
-9.64447604790718e-13
-9.12919217871076e-16
-9.64636040357799e-13
-7.85680726338823e-16
-9.67176859808617e-13
-6.58384578775398e-16
-9.71254851386741e-13
-5.29419234385754e-16
-9.75326106920374e-13
-3.95888575344654e-16
-9.77412637729741e-13
-2.64876705391313e-16
-9.79344380087182e-13
-1.33547594152392e-16
-9.83091702002874e-13
-9.85454089342056e-13
-1.71482068339495e-18
-1.07189511128858e-13
-3.42677509949933e-18
-1.07075841419126e-13
-5.13503470710217e-18
-1.06959288448708e-13
-6.84134234874489e-18
-1.06845534220519e-13
-8.54644887918425e-18
-1.06746321131273e-13
-1.02463673623562e-17
-1.06642327057158e-13
-1.19411681115401e-17
-1.06520706154146e-13
-1.36383687449798e-17
-1.06409577132163e-13
-1.53367205008877e-17
-1.06323382979676e-13
-1.70309317664993e-17
-1.06239253043649e-13
-1.87286183122059e-17
-1.06159941190389e-13
-2.0434237801015e-17
-1.06107763027747e-13
-2.21377306907739e-17
-1.06067457419998e-13
-2.38305192978226e-17
-1.06005794466831e-13
-2.5516082229135e-17
-1.0591882711939e-13
-2.719446900507e-17
-1.05816679101844e-13
-2.88751260086873e-17
-1.0571416009562e-13
-3.05799610357684e-17
-1.05650488766967e-13
-3.2302064349069e-17
-1.05638156501844e-13
-3.40099833449233e-17
-1.05626547820432e-13
-3.56907555077034e-17
-1.05567559886141e-13
-3.73625299672929e-17
-1.05472425141369e-13
-3.90427566316008e-17
-1.05380699016011e-13
-4.07474249556175e-17
-1.05323101598457e-13
-4.24728896646303e-17
-1.05307058689384e-13
-4.41813800996762e-17
-1.05292509371738e-13
-4.5864809167004e-17
-1.05240731820235e-13
-4.75361410464517e-17
-1.05159593308122e-13
-4.92191701978625e-17
-1.0508015649386e-13
-5.09493819489989e-17
-1.05046241107375e-13
-5.26919500581098e-17
-1.0505480913849e-13
-5.43977561927571e-17
-1.05043277119593e-13
-5.6094242473438e-17
-1.04998172747336e-13
-5.78204252847868e-17
-1.04965926252173e-13
-5.95856121189012e-17
-1.04976229107802e-13
-6.13683990085875e-17
-1.05018556883133e-13
-6.31487996518334e-17
-1.05065185610346e-13
-6.49561507121271e-17
-1.05120749849687e-13
-6.67731288150209e-17
-1.05192212150555e-13
-6.85750805869967e-17
-1.05254524623899e-13
-7.04604243415652e-17
-1.05347361691285e-13
-7.24700970702054e-17
-1.05543021327867e-13
-7.4549108265027e-17
-1.05827093841783e-13
-7.67536218501971e-17
-1.06193185337043e-13
-7.91873005534615e-17
-1.06714335923759e-13
-8.16502755162532e-17
-1.07336023998792e-13
-8.41040653190193e-17
-1.07936993860517e-13
-8.69738848795797e-17
-1.08696133641032e-13
-9.03122767902132e-17
-1.09821805690035e-13
-9.3632698795993e-17
-1.11099847630453e-13
-9.69680519746185e-17
-1.12320743199785e-13
-1.01023397574624e-16
-1.1380141039031e-13
-1.05972522902631e-16
-1.15896455873175e-13
-1.11091474039826e-16
-1.18347137012633e-13
-1.16472884466579e-16
-1.20875573004969e-13
-1.233307097777e-16
-1.2399247975754e-13
-1.30575966687434e-16
-1.27725533372188e-13
-1.37574068786162e-16
-1.31370786477442e-13
-1.46789917554801e-16
-1.35614974287821e-13
-1.58779698521737e-16
-1.41551941991554e-13
-1.71288762093181e-16
-1.48483069872786e-13
-1.85623535592017e-16
-1.55996017872172e-13
-2.0816034078987e-16
-1.66744910763927e-13
-2.37162070024111e-16
-1.82214801930724e-13
-2.72252625573715e-16
-2.01404962139197e-13
-3.23666545563657e-16
-2.27434675877554e-13
-3.9051071703076e-16
-2.63133482350301e-13
-4.56970235017948e-16
-3.02668810031921e-13
-5.20660275311036e-16
-3.39991476155749e-13
-5.95707364186488e-16
-3.78883429268696e-13
-6.80705105848961e-16
-4.23289012499687e-13
-7.62116090307219e-16
-4.68397993568488e-13
-8.40977211116211e-16
-5.10389912802242e-13
-9.25552659066193e-16
-5.52138851634065e-13
-1.01023986823462e-15
-5.94465109250198e-13
-1.08837515150114e-15
-6.33822260406473e-13
-1.16401453473329e-15
-6.695552777792e-13
-1.23673007163685e-15
-7.02811248521278e-13
-1.30957401270261e-15
-7.34420618947026e-13
-1.38231508030495e-15
-7.6514581562185e-13
-1.44110776812627e-15
-7.91379313421631e-13
-1.49493427021273e-15
-8.12065758505738e-13
-1.55280373524567e-15
-8.3170867745701e-13
-1.59532121724183e-15
-8.47874773334847e-13
-1.62815103351548e-15
-8.57520316802302e-13
-1.64995721656078e-15
-8.65983652047647e-13
-1.54828922924692e-15
-8.75528123955498e-13
-1.43740295198219e-15
-8.82498865691406e-13
-1.32654428220889e-15
-8.87949510125499e-13
-1.21390521066096e-15
-8.93664991436066e-13
-1.09325727471623e-15
-8.96810012371463e-13
-9.70804873835565e-16
-8.96810434689164e-13
-8.50833598508782e-16
-8.97194774824311e-13
-7.31778276191875e-16
-8.99348720127211e-13
-6.12559002702878e-16
-9.02661148649273e-13
-4.91785584986589e-16
-9.0612787782792e-13
-3.69247529609802e-16
-9.08417219529537e-13
-2.46939335847577e-16
-9.10497336522352e-13
-1.23967712848433e-16
-9.13535435512744e-13
-9.1560469554838e-13
-2.89070203168735e-18
-1.62696636783141e-13
-5.77461193060053e-18
-1.62480612063487e-13
-8.6512046351044e-18
-1.62267780623028e-13
-1.15219276911894e-17
-1.6205886348818e-13
-1.43874579121488e-17
-1.61862575899571e-13
-1.72442856384611e-17
-1.61662183198215e-13
-2.00924525570851e-17
-1.61446540656118e-13
-2.29386199705912e-17
-1.61240029144549e-13
-2.57816748946366e-17
-1.61055159602221e-13
-2.86169304478023e-17
-1.60872143637401e-13
-3.14510832574463e-17
-1.60693340023942e-13
-3.42880566543758e-17
-1.60538015222875e-13
-3.71190484395796e-17
-1.60392972284254e-13
-3.99364639544498e-17
-1.60229460012181e-13
-4.27434542947112e-17
-1.60044046454792e-13
-4.55399610684433e-17
-1.59845489582353e-13
-4.83342655943967e-17
-1.59646624030154e-13
-5.11457999047701e-17
-1.59481408890807e-13
-5.39682570477592e-17
-1.5936063323374e-13
-5.67741056127537e-17
-1.59240515976397e-13
-5.95520015450401e-17
-1.59079459587752e-13
-6.23179051802876e-17
-1.58887111713791e-13
-6.50870453988389e-17
-1.58697664620553e-13
-6.78734739613744e-17
-1.58537767539307e-13
-7.06741522412712e-17
-1.58413860689203e-13
-7.34556195141977e-17
-1.58291264422127e-13
-7.62110146937539e-17
-1.58136485341793e-13
-7.89517186045991e-17
-1.57956319345379e-13
-8.16984034542771e-17
-1.57777632890967e-13
-8.44824795775145e-17
-1.57638295704474e-13
-8.7273243965812e-17
-1.57535698384343e-13
-9.00274973991435e-17
-1.57415802990345e-13
-9.27695799442061e-17
-1.57266949092124e-13
-9.55334114244228e-17
-1.57129166172666e-13
-9.83271906510504e-17
-1.57028101705194e-13
-1.01132577831562e-16
-1.56954774784437e-13
-1.03931321485644e-16
-1.56885264190694e-13
-1.0674965424359e-16
-1.56823454232921e-13
-1.09572588815675e-16
-1.56775365898146e-13
-1.1237741905034e-16
-1.56719437393556e-13
-1.15251327840915e-16
-1.56689852781184e-13
-1.18230139061637e-16
-1.56749039792846e-13
-1.21264836210893e-16
-1.5688451965065e-13
-1.24405444430566e-16
-1.57091175328398e-13
-1.27741859863549e-16
-1.57431674034149e-13
-1.31100312974178e-16
-1.57858597432888e-13
-1.34443169180972e-16
-1.58267821537274e-13
-1.38149515980966e-16
-1.58813483887216e-13
-1.42259508320023e-16
-1.59675156379434e-13
-1.46348532233055e-16
-1.60668202147559e-13
-1.50440939494359e-16
-1.6161185962499e-13
-1.55163518805316e-16
-1.62779195160389e-13
-1.60659996682456e-16
-1.64475893560212e-13
-1.66299882765023e-16
-1.6647897520525e-13
-1.72158029495606e-16
-1.68549336471204e-13
-1.79309727822979e-16
-1.71126387122201e-13
-1.86794340786669e-16
-1.74233698576332e-13
-1.94032938416917e-16
-1.77265257178741e-13
-2.03221353221807e-16
-1.80811651643883e-13
-2.14820589329304e-16
-1.8581465414255e-13
-2.26865113730641e-16
-1.91673455065505e-13
-2.40449633840901e-16
-1.9803178667517e-13
-2.61206164089932e-16
-2.07171302214615e-13
-2.87600605503422e-16
-2.20370318574733e-13
-3.19160772394425e-16
-2.36766274671189e-13
-3.65024541906247e-16
-2.5903601636556e-13
-4.24315835025654e-16
-2.89616520639865e-13
-4.83266782037143e-16
-3.2349769849967e-13
-5.39628372151462e-16
-3.55466661286411e-13
-6.05959796122321e-16
-3.88762065067548e-13
-6.80905220644633e-16
-4.26782690805384e-13
-7.52693972016196e-16
-4.65401138253942e-13
-8.22190489497814e-16
-5.01322095513237e-13
-8.96621483076885e-16
-5.37011416885858e-13
-9.71104667706082e-16
-5.73181978018836e-13
-1.03990044111049e-15
-6.06786964368658e-13
-1.10644627851628e-15
-6.37262175071446e-13
-1.17038601114201e-15
-6.65588124764831e-13
-1.23437509226378e-15
-6.92465138507411e-13
-1.29799011943326e-15
-7.18566289032867e-13
-1.34994463572494e-15
-7.40821015108604e-13
-1.39763888897822e-15
-7.58308791616892e-13
-1.44775212672957e-15
-7.74853924069793e-13
-1.4852459433289e-15
-7.88366108131174e-13
-1.51470969964225e-15
-7.96298870173818e-13
-1.53294171235984e-15
-8.03320432777837e-13
-1.43732164991657e-15
-8.11454781328909e-13
-1.33408872141315e-15
-8.17348222457072e-13
-1.23078053369594e-15
-8.22061807538034e-13
-1.1256645340174e-15
-8.27020284490851e-13
-1.01386597638667e-15
-8.29722023546846e-13
-9.00554966603412e-16
-8.29744631477286e-13
-7.89276201131749e-16
-8.30142568835133e-13
-6.78560081564928e-16
-8.32005944635274e-13
-5.67757167396179e-16
-8.34809061346843e-13
-4.557602193748e-16
-8.37833850679144e-13
-3.42358674636179e-16
-8.39900604323721e-13
-2.28898504881548e-16
-8.4172460033603e-13
-1.14855705045549e-16
-8.44330309001923e-13
-8.46111756731372e-13
-4.09544876602839e-18
-2.19540407337948e-13
-8.17959352076778e-18
-2.19205436595098e-13
-1.22521679500474e-17
-2.18882790867894e-13
-1.63143303090012e-17
-2.18564727801487e-13
-2.03667008006711e-17
-2.18257342781934e-13
-2.44062335115405e-17
-2.17946562917543e-13
-2.84330065153386e-17
-2.17622935631484e-13
-3.24527014795615e-17
-2.17306987745285e-13
-3.64643724491085e-17
-2.17009321715869e-13
-4.04640051147498e-17
-2.16713312474585e-13
-4.44573565128125e-17
-2.16420886513577e-13
-4.84477240056669e-17
-2.16148221554788e-13
-5.24276290152233e-17
-2.15884244939766e-13
-5.6390564027552e-17
-2.15604761727325e-13
-6.03392351256374e-17
-2.1530685843817e-13
-6.42735778558201e-17
-2.14997898358769e-13
-6.82006559788419e-17
-2.14688658596901e-13
-7.21371000011574e-17
-2.14407706979718e-13
-7.60775228782388e-17
-2.14164188687422e-13
-7.99984542270706e-17
-2.1392134789485e-13
-8.38901484799103e-17
-2.13644155187568e-13
-8.77661935594745e-17
-2.13340600163437e-13
-9.16396275889929e-17
-2.13039402139422e-13
-9.55224780635962e-17
-2.12763058440143e-13
-9.94121769260023e-17
-2.12517061486983e-13
-1.03280136107153e-16
-2.12272249606136e-13
-1.07120468991139e-16
-2.12000406786534e-13
-1.10942906195e-16
-2.11707209915053e-13
-1.14765068686361e-16
-2.1141523509078e-13
-1.18613771506945e-16
-2.11156313952501e-13
-1.22462888308143e-16
-2.10928331725036e-13
-1.26275552916992e-16
-2.10685936070365e-13
-1.30072479912424e-16
-2.10419240307335e-13
-1.33882520243481e-16
-2.10161770185586e-13
-1.37712766878981e-16
-2.09935112252157e-13
-1.41547673915078e-16
-2.09731868266846e-13
-1.4537160060462e-16
-2.09531942525609e-13
-1.49206791177891e-16
-2.09338439341617e-13
-1.53040630637581e-16
-2.09156450654618e-13
-1.56853744569381e-16
-2.08967989074273e-13
-1.60720280601367e-16
-2.08801603352614e-13
-1.64670907102382e-16
-2.08709646989423e-13
-1.68663756805247e-16
-2.08681745032972e-13
-1.72742200907214e-16
-2.08713891507438e-13
-1.76981446533652e-16
-2.08858350912771e-13
-1.81234309641335e-16
-2.09075117292947e-13
-1.85468612427118e-16
-2.09277116399927e-13
-1.90006869208421e-16
-2.09593377896102e-13
-1.94883546703733e-16
-2.1017460849553e-13
-1.99737211771595e-16
-2.10866251492437e-13
-2.04588113877123e-16
-2.11516460182194e-13
-2.09969354148889e-16
-2.12353561401902e-13
-2.16003764784076e-16
-2.13633956220327e-13
-2.22155125784599e-16
-2.15171433900531e-13
-2.28486809308164e-16
-2.16765211437118e-13
-2.35912168365589e-16
-2.18782734545066e-13
-2.4361624014862e-16
-2.21244652235145e-13
-2.51105097304043e-16
-2.2364340003289e-13
-2.6024367499793e-16
-2.26471521496936e-13
-2.71425751747642e-16
-2.30517750769672e-13
-2.82981776708922e-16
-2.35280808005704e-13
-2.95836489985226e-16
-2.40460374695335e-13
-3.14773318098166e-16
-2.47963228196133e-13
-3.38492502420303e-16
-2.58860209847545e-13
-3.66584185865273e-16
-2.72427646734359e-13
-4.06799937443719e-16
-2.90898990797722e-13
-4.58413435809122e-16
-3.163161876819e-13
-5.09734171766178e-16
-3.44495325323977e-13
-5.58824220133211e-16
-3.71068208216962e-13
-6.16334379720333e-16
-3.98730373032084e-13
-6.81142123845524e-16
-4.30329252513072e-13
-7.43250672372017e-16
-4.62422050524945e-13
-8.03368341769935e-16
-4.92245346530548e-13
-8.67636740755026e-16
-5.21855629540386e-13
-9.31925010421831e-16
-5.51855725161993e-13
-9.91354089927978e-16
-5.79701163279122e-13
-1.04883912511141e-15
-6.0491634732603e-13
-1.10406421616035e-15
-6.28317903440214e-13
-1.15927141877218e-15
-6.50491116154325e-13
-1.21415726077428e-15
-6.72008707900802e-13
-1.25915398739031e-15
-6.9031320694188e-13
-1.30049045885923e-15
-7.04625028623949e-13
-1.34379077954373e-15
-7.18133340603716e-13
-1.37635813873398e-15
-7.29102744629811e-13
-1.40215908328325e-15
-7.35413579735351e-13
-1.41732821827796e-15
-7.41003670452187e-13
-1.32766187672426e-15
-7.47754164252719e-13
-1.23171050263083e-15
-7.52630397701609e-13
-1.13579936447063e-15
-7.56554358585879e-13
-1.0382936599954e-15
-7.60695014634393e-13
-9.35119855310993e-16
-7.6295963799001e-13
-8.30700483785503e-16
-7.63000479525092e-13
-7.28007865008464e-16
-7.63361491901905e-13
-6.25717070631601e-16
-7.64938174583495e-13
-5.23366959979612e-16
-7.67289802667821e-13
-4.2004888888393e-16
-7.69832129699258e-13
-3.15512298489301e-16
-7.71579424183571e-13
-2.10901933435415e-16
-7.73119835551518e-13
-1.0579574553468e-16
-7.75306304634238e-13
-7.76785982331935e-13
-5.32843753578031e-18
-2.77693846949934e-13
-1.06405234388416e-17
-2.77224187259765e-13
-1.59361539561427e-17
-2.76778872864796e-13
-2.121626872186e-17
-2.76338248622024e-13
-2.64813653633355e-17
-2.7590629530026e-13
-3.17289600189385e-17
-2.75471678508055e-13
-3.69590584734531e-17
-2.75026659394084e-13
-4.21763823241617e-17
-2.74587798386729e-13
-4.73801974956866e-17
-2.74163776079669e-13
-5.25671633077798e-17
-2.73741208757623e-13
-5.77420116774904e-17
-2.73321564831594e-13
-6.29074974896784e-17
-2.72917885933576e-13
-6.80574378966234e-17
-2.72521285315718e-13
-7.31864555154126e-17
-2.72112212644384e-13
-7.82967726507436e-17
-2.7168827308836e-13
-8.33883546405836e-17
-2.71255398468712e-13
-8.8466998815998e-17
-2.70822250901665e-13
-9.35464570167349e-17
-2.7041190690999e-13
-9.86223448798034e-17
-2.70031870969775e-13
-1.03675277151267e-16
-2.69652543279289e-13
-1.08697179812518e-16
-2.69245564532255e-13
-1.13699206898278e-16
-2.68817253425489e-13
-1.18692133327121e-16
-2.68390756790674e-13
-1.23685954804055e-16
-2.67984305361175e-13
-1.28678577996757e-16
-2.67602438338801e-13
-1.33646398187726e-16
-2.67221655443111e-13
-1.38584503786076e-16
-2.66819103311247e-13
-1.43500918891e-16
-2.6639929055242e-13
-1.48410174545234e-16
-2.65980418823903e-13
-1.53334423233119e-16
-2.65588190516998e-13
-1.58252201691725e-16
-2.65221008093761e-13
-1.63133086844438e-16
-2.64842340252532e-13
-1.67994043950607e-16
-2.64444098957154e-13
-1.72858848895532e-16
-2.6405322123348e-13
-1.77733432116233e-16
-2.6368716095651e-13
-1.82605096776106e-16
-2.63340085119754e-13
-1.87460841074687e-16
-2.62995794326118e-13
-1.92318890852759e-16
-2.62656663534361e-13
-1.97169013583525e-16
-2.62326829790459e-13
-2.01995230149114e-16
-2.61991866469515e-13
-2.06858410357369e-16
-2.6167462959443e-13
-2.11784014838496e-16
-2.61417289019965e-13
-2.16737537867054e-16
-2.61211602168002e-13
-2.2175513845988e-16
-2.61054494012464e-13
-2.26897854872953e-16
-2.60987843100227e-13
-2.32045103671845e-16
-2.60979358987882e-13
-2.37170093681964e-16
-2.60959040561927e-13
-2.42538190815076e-16
-2.61030527664595e-13
-2.48178311706489e-16
-2.61315372195922e-13
-2.5379290731612e-16
-2.61689405398098e-13
-2.59397909211758e-16
-2.6202999053415e-13
-2.65431558533244e-16
-2.62520333546169e-13
-2.71995911973164e-16
-2.63367040587349e-13
-2.78650235709095e-16
-2.64420942702188e-13
-2.85445207665415e-16
-2.65520072221968e-13
-2.93132019804975e-16
-2.66959364806395e-13
-3.01042630868717e-16
-2.68756343208403e-13
-3.08768498744801e-16
-2.70502731170078e-13
-3.17840388687356e-16
-2.72592572047252e-13
-3.28585103192617e-16
-2.75660278220997e-13
-3.3963137192458e-16
-2.79304567965262e-13
-3.51732627131569e-16
-2.83281975927651e-13
-3.6881850996686e-16
-2.89121964976631e-13
-3.89825038546013e-16
-2.97686268154261e-13
-4.14406293657244e-16
-3.08391942488734e-13
-4.48922173314654e-16
-3.23027531510693e-13
-4.92792107689163e-16
-3.43236415771643e-13
-5.36417517568465e-16
-3.65665094269772e-13
-5.7818195195186e-16
-3.86798700222026e-13
-6.26819022186281e-16
-4.08790045644884e-13
-6.81431635924108e-16
-4.33929708913614e-13
-7.33810442532905e-16
-4.59461363288929e-13
-7.84515190313487e-16
-4.83159991282404e-13
-8.38592246587121e-16
-5.06671575153568e-13
-8.92663921478375e-16
-5.30485736253643e-13
-9.42718571561057e-16
-5.52562523457508e-13
-9.91142767140387e-16
-5.72516989283418e-13
-1.03767431746565e-15
-5.91002954781894e-13
-1.08415405713132e-15
-6.08490092563801e-13
-1.13035979051106e-15
-6.25445263975308e-13
-1.16844065972981e-15
-6.39823936171493e-13
-1.20347547373666e-15
-6.50992595164656e-13
-1.2400900240893e-15
-6.61505109727219e-13
-1.26789430282502e-15
-6.69980176623659e-13
-1.29013811991995e-15
-6.74722415319709e-13
-1.30225533664687e-15
-6.78926888367565e-13
-1.21862184850042e-15
-6.84308960007236e-13
-1.12991165780563e-15
-6.88181403193718e-13
-1.04126621411932e-15
-6.91314712873485e-13
-9.51319685899319e-16
-6.94632131475439e-13
-8.56741411894421e-16
-6.9645419448389e-13
-7.61147252692384e-16
-6.96501640580032e-13
-6.6696303138606e-16
-6.96807843828178e-13
-5.73093068307517e-16
-6.9808492623364e-13
-4.79170850350496e-16
-6.99979768096438e-13
-3.84457448683865e-16
-7.02029889581799e-13
-2.88739668022078e-16
-7.03445366385859e-13
-1.92955729409205e-16
-7.04692809014583e-13
-9.67608133127956e-17
-7.06450065980404e-13
-7.07619019305116e-13
-6.58912578863377e-18
-3.3713133287593e-13
-1.31563135852183e-17
-3.36512046607708e-13
-1.97015935418682e-17
-3.35931839815897e-13
-2.62256794170266e-17
-3.35355774304928e-13
-3.2728955041489e-17
-3.34786311161775e-13
-3.92094757219905e-17
-3.34214915746384e-13
-4.56672454033888e-17
-3.33635615215063e-13
-5.21059570012371e-17
-3.33060910288079e-13
-5.85250661065885e-17
-3.32497507231988e-13
-6.49219522745521e-17
-3.319353240537e-13
-7.13003017040485e-17
-3.31375372061027e-13
-7.76623113490547e-17
-3.30827509488353e-13
-8.40031250707285e-17
-3.30285078529164e-13
-9.03185158072015e-17
-3.2973326548953e-13
-9.6610216368205e-17
-3.29170206205467e-13
-1.02878203086208e-16
-3.28600371980523e-13
-1.09126986631675e-16
-3.28030271715144e-13
-1.15367396081017e-16
-3.27477384766866e-13
-1.21596071372854e-16
-3.26947531785394e-13
-1.27797796327554e-16
-3.26418384877406e-13
-1.33966157987712e-16
-3.25868389057987e-13
-1.40109879418364e-16
-3.25302200967519e-13
-1.46237414279927e-16
-3.24737301696515e-13
-1.52356663912917e-16
-3.24187540300804e-13
-1.58466038067902e-16
-3.23656465871385e-13
-1.64547029129134e-16
-3.23126356245185e-13
-1.7059568471213e-16
-3.22579831555991e-13
-1.76618305898469e-16
-3.22020213892033e-13
-1.82626275014065e-16
-3.2146125239791e-13
-1.88637002791181e-16
-3.20922415106301e-13
-1.94633762616916e-16
-3.20402613575935e-13
-2.00592662798477e-16
-3.19874269181402e-13
-2.0652689814598e-16
-3.19331146638753e-13
-2.12455093565343e-16
-3.18793518992102e-13
-2.1838196578693e-16
-3.1827462487839e-13
-2.24297677411171e-16
-3.17770172689414e-13
-2.3019193941324e-16
-3.17267928418551e-13
-2.36078973928066e-16
-3.16769583180695e-13
-2.41950870967671e-16
-3.16278289593374e-13
-2.47795089463335e-16
-3.15783187695029e-13
-2.53659102805582e-16
-3.15301405221274e-13
-2.59563052792334e-16
-3.1486480010969e-13
-2.65479915717919e-16
-3.14467265638004e-13
-2.7143820932907e-16
-3.14106538996382e-13
-2.77485211439219e-16
-3.13814105340971e-13
-2.83526993378197e-16
-3.13565607633373e-13
-2.89542207856658e-16
-3.13308210302558e-13
-2.95738456325012e-16
-3.13119905405669e-13
-3.02138987514617e-16
-3.13092706478079e-13
-3.08510841720007e-16
-3.13133147670307e-13
-3.14865676125847e-16
-3.13148231187473e-13
-3.21546018119312e-16
-3.13275681706739e-13
-3.28632676185607e-16
-3.1367168992358e-13
-3.35781323664081e-16
-3.14224342230343e-13
-3.43030191352861e-16
-3.14811051109369e-13
-3.50966746880723e-16
-3.15653695031891e-13
-3.59070711132301e-16
-3.16766365265646e-13
-3.67020253534284e-16
-3.17841064463483e-13
-3.76009722519971e-16
-3.19173039113817e-13
-3.86297533884628e-16
-3.21240876268336e-13
-3.96812927161069e-16
-3.23743641311944e-13
-4.0813848942988e-16
-3.26495939905554e-13
-4.23343188336237e-16
-3.30647593793183e-13
-4.41600277604975e-16
-3.36849228614337e-13
-4.62630969056482e-16
-3.44660534173208e-13
-4.9139590886563e-16
-3.55423736504841e-13
-5.27456107984606e-16
-3.70379493234452e-13
-5.63319929881794e-16
-3.87008668058021e-13
-5.97703635339895e-16
-4.02659060998854e-13
-6.37415018399966e-16
-4.18941634911064e-13
-6.81774312812585e-16
-4.37584268096813e-13
-7.24373152544679e-16
-4.56518720550634e-13
-7.65630283459702e-16
-4.74065139821278e-13
-8.09487142261275e-16
-4.9145814973497e-13
-8.53319444202587e-16
-5.09070874274544e-13
-8.93990691847931e-16
-5.25370215108709e-13
-9.33358868404531e-16
-5.40063965913203e-13
-9.71218730623358e-16
-5.53643362986425e-13
-1.00900531383842e-15
-5.66461548822749e-13
-1.04656574961383e-15
-5.78874759983916e-13
-1.07777842792447e-15
-5.89351509713395e-13
-1.10657793039678e-15
-5.97409224900542e-13
-1.1365834039855e-15
-6.04964697128e-13
-1.15971468317192e-15
-6.10988205347149e-13
-1.17849930946323e-15
-6.14209204513423e-13
-1.1876445003382e-15
-6.17072846917131e-13
-1.11004002026312e-15
-6.21098533607403e-13
-1.02854416593978e-15
-6.23975791382517e-13
-9.4712249252542e-16
-6.26320262010388e-13
-8.64694945783941e-16
-6.28811587528847e-13
-7.78668555808873e-16
-6.30185204436185e-13
-6.9185223787257e-16
-6.30230602255954e-13
-6.0612998586581e-16
-6.30471493159956e-13
-5.2064524295403e-16
-6.31439379979138e-13
-4.35117641126088e-16
-6.3286964247377e-13
-3.48974011597199e-16
-6.34418935940989e-13
-2.62044436239851e-16
-6.35493468254487e-13
-1.75058851374947e-16
-6.36439244407494e-13
-8.77493309734904e-17
-6.3775902349364e-13
-6.38611792176244e-13
-7.87695763461142e-18
-3.97828110561426e-13
-1.57259332172714e-17
-3.97044992669847e-13
-2.35469789100265e-17
-3.96318271490719e-13
-3.13405891302557e-17
-3.9559440440094e-13
-3.91070659933016e-17
-3.94875001761766e-13
-4.68449782899278e-17
-3.94154375111659e-13
-5.45543496773066e-17
-3.93428406203541e-13
-6.22378195048297e-17
-3.92705458490147e-13
-6.98950319589081e-17
-3.91990170071217e-13
-7.75241009720064e-17
-3.91275806635214e-13
-8.5127661773969e-17
-3.90562949921625e-13
-9.27073009830679e-17
-3.89858226042345e-13
-1.00259560473928e-16
-3.89157229498296e-13
-1.07781354419286e-16
-3.8844998094652e-13
-1.15273924822379e-16
-3.87735171051743e-13
-1.22737266061346e-16
-3.87015789569161e-13
-1.30174589760074e-16
-3.86296174257216e-13
-1.3759374990196e-16
-3.85588094169964e-13
-1.44992365738512e-16
-3.84895595738585e-13
-1.52359486777647e-16
-3.84203723762183e-13
-1.59690432629851e-16
-3.83497892334536e-13
-1.66991448007195e-16
-3.82781130495277e-13
-1.74268632433349e-16
-3.82065169446567e-13
-1.81527713973648e-16
-3.81359356831436e-13
-1.88767613055609e-16
-3.80666179446368e-13
-1.95974997235733e-16
-3.79973787358884e-13
-2.03146952123386e-16
-3.79270412256255e-13
-2.10287982548914e-16
-3.78558201089921e-13
-2.17406291431156e-16
-3.77846379352467e-13
-2.24514452459224e-16
-3.77148061196356e-13
-2.31600522068605e-16
-3.76462625728337e-13
-2.38647270246374e-16
-3.75771574746005e-13
-2.45664081325419e-16
-3.750706115135e-13
-2.5266435536543e-16
-3.74373285090208e-13
-2.59651561213538e-16
-3.73688523559488e-13
-2.66618692530451e-16
-3.73013535189701e-13
-2.73558294417525e-16
-3.7234012060401e-13
-2.8048052800517e-16
-3.71669340604472e-13
-2.87379810240453e-16
-3.71003326949186e-13
-2.94247058997288e-16
-3.70334802697622e-13
-3.0111627515483e-16
-3.69675160161491e-13
-3.08002116840678e-16
-3.69045803801415e-13
-3.14885173774732e-16
-3.68442733493191e-13
-3.21785966329206e-16
-3.67864416983169e-13
-3.28738303914943e-16
-3.67331929486047e-13
-3.35674958224602e-16
-3.66829014534037e-13
-3.4258021125608e-16
-3.66320150686709e-13
-3.49603227401566e-16
-3.65857453322794e-13
-3.5676130928787e-16
-3.65502909980673e-13
-3.6388691930271e-16
-3.65194048975592e-13
-3.70987648634936e-16
-3.64868077032516e-13
-3.78309395099647e-16
-3.64616937179195e-13
-3.85911064003981e-16
-3.64545670360638e-13
-3.93545658670953e-16
-3.6457974064071e-13
-4.01239425754747e-16
-3.64636620164651e-13
-4.09414346163879e-16
-3.64864600567353e-13
-4.17698587231501e-16
-3.65273848030809e-13
-4.25858839626861e-16
-3.65657758445946e-13
-4.34750833981128e-16
-3.66212744903328e-13
-4.44562639258048e-16
-3.67259873441791e-13
-4.54526365232789e-16
-3.68598698885358e-13
-4.65054911646397e-16
-3.70103439922001e-13
-4.78349331243441e-16
-3.72542084702845e-13
-4.9382092364922e-16
-3.76351753355492e-13
-5.11262010194991e-16
-3.81236709262906e-13
-5.34225918415879e-16
-3.88091571795387e-13
-5.62409840153798e-16
-3.97749539592013e-13
-5.90444438850039e-16
-4.08529502968085e-13
-6.17391410037062e-16
-4.18651874390979e-13
-6.48124036055096e-16
-4.29187135045506e-13
-6.82171074935979e-16
-4.41294429738806e-13
-7.14938738169366e-16
-4.5359503898184e-13