/*--------------------------------*- C++ -*----------------------------------*\
| =========                 |                                                 |
| \\      /  F ield         | OpenFOAM: The Open Source CFD Toolbox           |
|  \\    /   O peration     | Version:  4.1                                   |
|   \\  /    A nd           | Web:      www.OpenFOAM.org                      |
|    \\/     M anipulation  |                                                 |
\*---------------------------------------------------------------------------*/
FoamFile
{
    version     2.0;
    format      ascii;
    class       surfaceScalarField;
    location    "0.0082";
    object      meshPhi;
}
// * * * * * * * * * * * * * * * * * * * * * * * * * * * * * * * * * * * * * //

dimensions      [0 3 -1 0 0 0 0];

internalField   nonuniform List<scalar> 
17536
(
0
-3.8179e-10
-3.819e-10
4.3059e-10
4.3061e-10
-1.9646e-09
-1.0627e-09
-1.063e-09
1.3899e-09
1.39e-09
-1.9717e-09
-1.9002e-09
-1.909e-09
2.6048e-09
2.5967e-09
-3.4644e-09
-2.9025e-09
-2.9116e-09
3.8263e-09
3.8182e-09
-3.9722e-09
-3.7545e-09
-3.7476e-09
4.9584e-09
4.9666e-09
-5.9789e-09
-4.3793e-09
-4.3726e-09
5.9116e-09
5.9197e-09
-3.9997e-09
-4.8451e-09
-4.8467e-09
6.4456e-09
6.4456e-09
-5.5218e-09
-5.0784e-09
-5.0716e-09
6.7189e-09
6.7272e-09
-6.5492e-09
-5.0116e-09
-5.0047e-09
6.7339e-09
6.7423e-09
-6.5706e-09
-4.7871e-09
-4.7883e-09
6.4787e-09
6.4792e-09
-6.0832e-09
-4.2492e-09
-4.25e-09
5.7964e-09
5.797e-09
-8.1343e-09
-3.5532e-09
-3.5618e-09
4.7695e-09
4.7622e-09
-8.1534e-09
-2.7868e-09
-2.8033e-09
3.722e-09
3.7067e-09
-8.1686e-09
-1.7103e-09
-1.7179e-09
2.3962e-09
2.3893e-09
-8.5875e-09
-3.8752e-10
-3.8603e-10
7.2222e-10
7.2382e-10
-8.7456e-09
9.2832e-10
9.388e-10
-1.0444e-09
-1.0344e-09
-8.7423e-09
2.3964e-09
2.4076e-09
-2.9982e-09
-2.9878e-09
-8.5782e-09
4.0295e-09
4.0331e-09
-5.1996e-09
-5.1973e-09
-8.3551e-09
5.5042e-09
5.5084e-09
-7.3077e-09
-7.3053e-09
-8.1256e-09
6.8987e-09
6.9033e-09
-9.2339e-09
-9.2315e-09
-7.8892e-09
8.0461e-09
8.0511e-09
-1.0729e-08
-1.0727e-08
-7.4489e-09
8.8794e-09
8.8928e-09
-1.1692e-08
-1.1681e-08
-7.0606e-09
9.2532e-09
9.2666e-09
-1.2273e-08
-1.2263e-08
-6.6442e-09
9.1611e-09
9.1659e-09
-1.224e-08
-1.2238e-08
-6.1641e-09
8.8293e-09
8.8337e-09
-1.1786e-08
-1.1784e-08
-5.7191e-09
8.2681e-09
8.2722e-09
-1.1069e-08
-1.1068e-08
-5.1529e-09
7.5699e-09
7.5736e-09
-1.0086e-08
-1.0085e-08
-4.8868e-09
6.6384e-09
6.6496e-09
-8.7725e-09
-8.7633e-09
-4.4796e-09
5.492e-09
5.5026e-09
-7.2782e-09
-7.2692e-09
-4.0796e-09
4.112e-09
4.1137e-09
-5.5344e-09
-5.5339e-09
-4.0233e-09
2.6545e-09
2.6555e-09
-3.6346e-09
-3.6344e-09
-3.681e-09
1.371e-09
1.3713e-09
-1.8113e-09
-1.8115e-09
-3.4394e-09
1.6206e-10
1.5351e-10
-1.6116e-10
-1.6985e-10
-1.9401e-09
-9.0667e-10
-9.1584e-10
1.2184e-09
1.2094e-09
-1.9432e-09
-1.5915e-09
-1.6011e-09
2.2456e-09
2.2363e-09
-1.9465e-09
-1.8213e-09
-1.823e-09
2.5902e-09
2.589e-09
-3.8998e-09
-1.7519e-09
-1.7536e-09
2.4249e-09
2.4236e-09
-1.9522e-09
-1.3679e-09
-1.3777e-09
1.9098e-09
1.9004e-09
-1.9536e-09
-8.3396e-10
-8.3538e-10
1.2115e-09
1.2102e-09
-1.9539e-09
-3.0233e-10
-3.0355e-10
4.3448e-10
4.3324e-10
-1.9533e-09
2.3779e-10
2.2859e-10
-3.3496e-10
-3.443e-10
-1.9523e-09
5.4016e-10
5.311e-10
-7.6819e-10
-7.7749e-10
-1.9519e-09
6.8705e-10
6.8627e-10
-9.4779e-10
-9.4884e-10
-1.9525e-09
6.1169e-10
6.1098e-10
-8.5543e-10
-8.5639e-10
-1.4657e-09
3.8275e-10
3.821e-10
-5.1246e-10
-5.133e-10
-9.7786e-10
2.2839e-10
2.2784e-10
-3.4223e-10
-3.4291e-10
-1.4663e-09
1.4775e-10
1.4738e-10
-2.6225e-10
-2.627e-10
7.4288e-11
7.4153e-11
-9.1488e-11
-9.1645e-11
0
-1.5437e-10
-3.5758e-10
4.0631e-10
-1.9658e-09
-7.0336e-10
-1.0796e-09
1.4071e-09
-1.9732e-09
-1.3191e-09
-1.8854e-09
2.599e-09
-2.4774e-09
-1.9911e-09
-2.8611e-09
3.892e-09
-3.977e-09
-2.5963e-09
-3.6834e-09
5.0948e-09
-5.4912e-09
-3.0206e-09
-4.2344e-09
5.9972e-09
-4.0072e-09
-3.3389e-09
-4.6873e-09
6.6008e-09
-5.0307e-09
-3.2934e-09
-4.8704e-09
6.7452e-09
-7.0678e-09
-3.2214e-09
-4.808e-09
6.6799e-09
-6.0786e-09
-3.2012e-09
-4.6364e-09
6.4631e-09
-6.0997e-09
-2.9162e-09
-4.1848e-09
5.7829e-09
-8.1583e-09
-2.4324e-09
-3.5533e-09
4.8055e-09
-8.1787e-09
-1.9051e-09
-2.7359e-09
3.7805e-09
-8.1952e-09
-1.1583e-09
-1.6555e-09
2.3663e-09
-8.6156e-09
-2.916e-10
-4.6988e-10
5.684e-10
-8.7229e-09
6.0988e-10
9.0047e-10
-1.1903e-09
-8.6678e-09
1.5701e-09
2.3563e-09
-3.1605e-09
-8.5539e-09
2.6059e-09
3.9035e-09
-5.2972e-09
-8.3796e-09
3.7972e-09
5.4563e-09
-7.4214e-09
-8.1477e-09
4.8446e-09
6.8293e-09
-9.4287e-09
-7.9082e-09
5.554e-09
7.911e-09
-1.0951e-08
-7.4652e-09
6.0191e-09
8.7036e-09
-1.1961e-08
-7.1228e-09
6.2309e-09
9.059e-09
-1.2439e-08
-6.6462e-09
6.2842e-09
8.9646e-09
-1.249e-08
-6.16e-09
6.0226e-09
8.5795e-09
-1.2061e-08
-5.7223e-09
5.5815e-09
8.0153e-09
-1.1238e-08
-5.1057e-09
5.1019e-09
7.364e-09
-1.02e-08
-4.8883e-09
4.4278e-09
6.4467e-09
-8.8893e-09
-4.4797e-09
3.6431e-09
5.2734e-09
-7.3672e-09
-4.1754e-09
2.7312e-09
3.9417e-09
-5.5657e-09
-3.9736e-09
1.7646e-09
2.5975e-09
-3.6002e-09
-3.6798e-09
8.7345e-10
1.3381e-09
-1.8024e-09
-3.4386e-09
1.216e-10
9.6847e-11
-2.6698e-10
-1.9394e-09
-5.1521e-10
-8.8263e-10
1.1276e-09
-1.9424e-09
-1.0776e-09
-1.5109e-09
2.1867e-09
-1.9461e-09
-1.258e-09
-1.7e-09
2.5722e-09
-3.8986e-09
-1.1223e-09
-1.6144e-09
2.3909e-09
-1.952e-09
-7.9535e-10
-1.2628e-09
1.8193e-09
-1.9535e-09
-4.421e-10
-7.2101e-10
1.1128e-09
-1.9539e-09
-1.8015e-10
-2.6271e-10
4.0121e-10
-1.9533e-09
1.145e-10
1.7943e-10
-2.8642e-10
-1.9523e-09
2.862e-10
4.493e-10
-6.8696e-10
-1.9519e-09
4.9861e-10
6.2082e-10
-9.7279e-10
-1.9526e-09
5.8723e-10
6.1109e-10
-9.6206e-10
-1.9541e-09
3.8308e-10
4.3136e-10
-5.9429e-10
-9.7766e-10
1.8749e-10
2.5226e-10
-3.0989e-10
-4.888e-10
5.7415e-11
1.6379e-10
-1.2299e-10
-8.191e-12
8.1823e-11
-1.7062e-11
2.2662e-21
-1.7876e-10
-3.3315e-10
4.713e-10
-1.9666e-09
-5.064e-10
-1.1854e-09
1.5294e-09
-1.9743e-09
-7.2088e-10
-2.0483e-09
2.632e-09
-1.9823e-09
-9.9179e-10
-2.9265e-09
3.9287e-09
-3.9811e-09
-1.2988e-09
-3.7246e-09
5.2077e-09
-4.9989e-09
-1.4492e-09
-4.2885e-09
6.0719e-09
-4.0131e-09
-1.5921e-09
-4.7357e-09
6.6757e-09
-4.5345e-09
-1.6589e-09
-4.8797e-09
6.8565e-09
-6.5778e-09
-1.6716e-09
-4.8954e-09
6.7864e-09
-6.091e-09
-1.7001e-09
-4.8513e-09
6.5216e-09
-6.1133e-09
-1.4883e-09
-4.401e-09
5.8421e-09
-8.1767e-09
-1.2007e-09
-3.5715e-09
4.9806e-09
-8.1983e-09
-9.9523e-10
-2.6962e-09
3.9476e-09
-8.2154e-09
-6.1315e-10
-1.69e-09
2.4252e-09
-8.5864e-09
-5.435e-11
-4.6267e-10
5.6885e-10
-8.6419e-09
4.3826e-10
9.664e-10
-1.2902e-09
-8.6895e-09
7.9832e-10
2.3393e-09
-3.2856e-09
-8.5747e-09
1.2085e-09
3.8211e-09
-5.381e-09
-8.3991e-09
1.8005e-09
5.4649e-09
-7.6305e-09
-8.1643e-09
2.4574e-09
6.9876e-09
-9.7292e-09
-7.8224e-09
2.8043e-09
8.086e-09
-1.1209e-08
-7.4773e-09
2.9571e-09
8.7619e-09
-1.2194e-08
-7.0832e-09
3.1012e-09
9.1087e-09
-1.2755e-08
-6.6489e-09
3.1598e-09
9.1867e-09
-1.2822e-08
-6.1657e-09
3.0289e-09
8.8421e-09
-1.2325e-08
-5.6775e-09
2.7593e-09
8.1874e-09
-1.1478e-08
-5.2056e-09
2.5966e-09
7.5599e-09
-1.0381e-08
-4.7908e-09
2.4428e-09
6.6336e-09
-9.1272e-09
-4.4799e-09
1.94e-09
5.3537e-09
-7.5634e-09
-4.1753e-09
1.3248e-09
3.9818e-09
-5.6968e-09
-3.8761e-09
1.0121e-09
2.7353e-09
-3.7958e-09
-3.6788e-09
5.4646e-10
1.4112e-09
-1.9001e-09
-3.4372e-09
3.2108e-11
1.2136e-10
-2.1014e-10
-1.9388e-09
-3.5096e-10
-8.6566e-10
1.2087e-09
-1.9419e-09
-4.8997e-10
-1.5182e-09
2.1381e-09
-1.9455e-09
-4.5797e-10
-1.6664e-09
2.499e-09
-3.8983e-09
-5.8143e-10
-1.5644e-09
2.4644e-09
-1.9518e-09
-4.9969e-10
-1.2376e-09
1.8927e-09
-1.9532e-09
-3.108e-10
-6.9583e-10
1.1699e-09
-1.9536e-09
-1.3099e-10
-2.2945e-10
4.4217e-10
-1.9531e-09
8.9954e-11
2.0434e-10
-2.4558e-10
-1.9523e-09
2.0434e-10
4.4143e-10
-7.0322e-10
-1.952e-09
2.2082e-10
5.559e-10
-1.0137e-09
-1.9525e-09
1.4659e-10
6.2773e-10
-9.2128e-10
-1.9539e-09
1.2201e-10
5.1347e-10
-6.1055e-10
-9.777e-10
1.3888e-10
2.9359e-10
-3.59e-10
-2.2606e-21
4.9183e-11
9.0295e-11
-1.3105e-10
-8.191e-12
0
-1.6378e-11
0
0
-3.9817e-10
4.1445e-10
-1.9669e-09
0
-1.2507e-09
1.4319e-09
-1.975e-09
0
-2.0649e-09
2.6405e-09
-1.9831e-09
0
-2.9023e-09
3.9451e-09
-3.9833e-09
0
-3.7087e-09
5.2408e-09
-5.0019e-09
0
-4.2891e-09
6.1629e-09
-4.0157e-09
0
-4.7692e-09
6.6187e-09
-4.0321e-09
0
-4.9956e-09
6.925e-09
-6.5844e-09
0
-4.9911e-09
7.1093e-09
-6.097e-09
0
-4.8672e-09
6.808e-09
-6.1201e-09
0
-4.3938e-09
6.1243e-09
-8.1867e-09
0
-3.6058e-09
5.2135e-09
-8.2094e-09
0
-2.705e-09
3.9065e-09
-8.2273e-09
-8.3089e-11
-1.6659e-09
2.3844e-09
-8.5472e-09
-8.3682e-11
-4.0474e-10
7.2734e-10
-8.7057e-09
0
1.0247e-09
-1.1491e-09
-8.7534e-09
0
2.4484e-09
-3.3026e-09
-8.5861e-09
0
3.9219e-09
-5.5564e-09
-8.4093e-09
0
5.4667e-09
-7.7147e-09
-8.2243e-09
0
6.9809e-09
-9.7394e-09
-7.7793e-09
-8.3116e-12
8.1458e-09
-1.1277e-08
-7.4836e-09
-8.3637e-12
8.8295e-09
-1.2296e-08
-7.0372e-09
-8.2765e-12
9.168e-09
-1.2954e-08
-6.6511e-09
-9.6909e-14
9.2618e-09
-1.293e-08
-6.1738e-09
8.1575e-12
8.9749e-09
-1.2318e-08
-5.6784e-09
0
8.3441e-09
-1.157e-08
-5.3045e-09
0
7.6258e-09
-1.052e-08
-4.7426e-09
0
6.683e-09
-9.2584e-09
-4.4794e-09
0
5.4189e-09
-7.6374e-09
-4.0774e-09
0
4.0792e-09
-5.8268e-09
-3.9241e-09
0
2.8328e-09
-4.0718e-09
-3.6781e-09
0
1.4274e-09
-2.1521e-09
-3.4855e-09
0
8.8753e-11
-2.667e-10
-1.9384e-09
0
-8.9812e-10
1.1353e-09
-1.9417e-09
0
-1.4937e-09
1.8695e-09
-1.9453e-09
-8.1594e-12
-1.6746e-09
2.3523e-09
-3.8978e-09
-8.1492e-12
-1.5969e-09
2.4156e-09
-1.9517e-09
0
-1.2865e-09
1.9826e-09
-1.9532e-09
0
-8.101e-10
1.2681e-09
-1.9537e-09
0
-2.7854e-10
3.9321e-10
-1.953e-09
0
1.8804e-10
-2.9472e-10
-1.9523e-09
8.1582e-12
4.5773e-10
-8.6635e-10
-1.9518e-09
1.6346e-11
5.5591e-10
-1.1525e-09
-1.9526e-09
8.1731e-12
5.6245e-10
-1.0599e-09
-1.9541e-09
0
4.7262e-10
-7.7407e-10
-9.7758e-10
0
2.5277e-10
-3.9179e-10
-4.521e-21
0
7.3878e-11
-1.0648e-10
0
1.6377e-11
-8.1892e-12
4.5326e-21
1.7876e-10
-3.9817e-10
4.1445e-10
-1.9669e-09
5.064e-10
-1.2507e-09
1.4319e-09
-1.975e-09
7.2088e-10
-2.0649e-09
2.6405e-09
-1.9831e-09
9.9179e-10
-2.9023e-09
3.9451e-09
-3.9833e-09
1.2988e-09
-3.7087e-09
5.2408e-09
-5.0019e-09
1.4492e-09
-4.2891e-09
6.1629e-09
-4.0157e-09
1.5921e-09
-4.7692e-09
6.6187e-09
-4.0321e-09
1.6671e-09
-4.9956e-09
6.9168e-09
-6.5844e-09
1.6798e-09
-4.9911e-09
7.1011e-09
-6.0971e-09
1.7003e-09
-4.8672e-09
6.808e-09
-6.1201e-09
1.4883e-09
-4.3939e-09
6.1243e-09
-8.1867e-09
1.1924e-09
-3.614e-09
5.2135e-09
-8.2094e-09
9.8689e-10
-2.7133e-09
3.9065e-09
-8.2267e-09
6.1315e-10
-1.6659e-09
2.3842e-09
-8.5472e-09
4.6039e-11
-4.0474e-10
7.3542e-10
-8.7057e-09
-4.4657e-10
1.033e-09
-1.1325e-09
-8.7534e-09
-7.9839e-10
2.4566e-09
-3.2943e-09
-8.5861e-09
-1.2085e-09
3.9219e-09
-5.5564e-09
-8.4093e-09
-1.8005e-09
5.4667e-09
-7.7147e-09
-8.2243e-09
-2.4574e-09
6.9809e-09
-9.7394e-09
-7.7792e-09
-2.8043e-09
8.1458e-09
-1.1277e-08
-7.4836e-09
-2.9571e-09
8.8294e-09
-1.2296e-08
-7.0373e-09
-3.1013e-09
9.1681e-09
-1.2954e-08
-6.651e-09
-3.16e-09
9.2617e-09
-1.293e-08
-6.1739e-09
-3.0371e-09
8.9667e-09
-1.2318e-08
-5.6788e-09
-2.8489e-09
8.336e-09
-1.1652e-08
-5.3045e-09
-2.6783e-09
7.6258e-09
-1.0603e-08
-4.7426e-09
-2.4428e-09
6.683e-09
-9.2584e-09
-4.4794e-09
-1.94e-09
5.4189e-09
-7.6374e-09
-4.0774e-09
-1.3248e-09
4.0792e-09
-5.8268e-09
-3.9241e-09
-1.0121e-09
2.8328e-09
-4.0718e-09
-3.6781e-09
-5.4646e-10
1.4274e-09
-2.1521e-09
-3.4855e-09
-2.4004e-11
9.687e-11
-2.667e-10
-1.9384e-09
3.5909e-10
-8.8997e-10
1.1353e-09
-1.9417e-09
4.8996e-10
-1.4856e-09
1.8777e-09
-1.9453e-09
4.5799e-10
-1.6665e-09
2.3605e-09
-3.8978e-09
5.8143e-10
-1.597e-09
2.4156e-09
-1.9517e-09
4.9151e-10
-1.2947e-09
1.9826e-09
-1.9532e-09
2.9447e-10
-8.1824e-10
1.2762e-09
-1.9537e-09
1.2283e-10
-2.7854e-10
4.0137e-10
-1.953e-09
-8.1795e-11
1.962e-10
-2.9472e-10
-1.9523e-09
-1.9616e-10
4.659e-10
-8.6635e-10
-1.9518e-09
-2.1266e-10
5.6408e-10
-1.1525e-09
-1.9526e-09
-1.3842e-10
5.7062e-10
-1.0599e-09
-1.9541e-09
-1.2201e-10
4.7262e-10
-7.7407e-10
-9.7758e-10
-1.3888e-10
2.5277e-10
-3.9179e-10
0
-4.9183e-11
7.3878e-11
-1.0648e-10
8.191e-12
1.6377e-11
-8.1892e-12
2.534e-25
1.5437e-10
-3.3315e-10
4.713e-10
-1.9666e-09
7.0336e-10
-1.1854e-09
1.5294e-09
-1.9743e-09
1.3109e-09
-2.0483e-09
2.6402e-09
-1.9823e-09
1.9829e-09
-2.9265e-09
3.9369e-09
-3.9812e-09
2.6046e-09
-3.7164e-09
5.2077e-09
-4.9989e-09
3.0288e-09
-4.2803e-09
6.0719e-09
-4.0131e-09
3.3472e-09
-4.7276e-09
6.6757e-09
-4.5345e-09
3.3016e-09
-4.8715e-09
6.8482e-09
-6.5778e-09
3.2297e-09
-4.8872e-09
6.7782e-09
-6.091e-09
3.2178e-09
-4.8348e-09
6.5216e-09
-6.1134e-09
2.9246e-09
-4.3928e-09
5.8421e-09
-8.1767e-09
2.4324e-09
-3.5798e-09
4.9806e-09
-8.1983e-09
1.8968e-09
-2.7127e-09
3.9476e-09
-8.2154e-09
1.1498e-09
-1.6983e-09
2.4253e-09
-8.5863e-09
2.9998e-10
-4.6267e-10
5.6878e-10
-8.6418e-09
-6.0147e-10
9.7471e-10
-1.2819e-09
-8.6895e-09
-1.5618e-09
2.3559e-09
-3.2772e-09
-8.5747e-09
-2.5892e-09
3.8377e-09
-5.381e-09
-8.3991e-09
-3.7889e-09
5.4732e-09
-7.6305e-09
-8.1644e-09
-4.8612e-09
6.9794e-09
-9.721e-09
-7.8224e-09
-5.5624e-09
8.0861e-09
-1.1201e-08
-7.4773e-09
-6.0191e-09
8.7702e-09
-1.2186e-08
-7.0832e-09
-6.2475e-09
9.1005e-09
-1.2747e-08
-6.6489e-09
-6.2925e-09
9.1783e-09
-1.2822e-08
-6.1706e-09
-6.0226e-09
8.8339e-09
-1.2325e-08
-5.6775e-09
-5.5815e-09
8.1792e-09
-1.156e-08
-5.2056e-09
-5.1101e-09
7.5518e-09
-1.0463e-08
-4.7908e-09
-4.4361e-09
6.6255e-09
-9.1272e-09
-4.4799e-09
-3.6431e-09
5.3537e-09
-7.5634e-09
-4.1753e-09
-2.7312e-09
3.9818e-09
-5.6968e-09
-3.8761e-09
-1.7646e-09
2.7353e-09
-3.7958e-09
-3.6788e-09
-8.8159e-10
1.4112e-09
-1.892e-09
-3.4372e-09
-1.297e-10
1.2948e-10
-2.0202e-10
-1.9388e-09
5.1521e-10
-8.5752e-10
1.2087e-09
-1.9419e-09
1.0776e-09
-1.51e-09
2.1462e-09
-1.9455e-09
1.258e-09
-1.6583e-09
2.5071e-09
-3.8983e-09
1.1305e-09
-1.5644e-09
2.4562e-09
-1.9518e-09
8.117e-10
-1.2458e-09
1.8763e-09
-1.9532e-09
4.5844e-10
-7.0399e-10
1.1617e-09
-1.9536e-09
1.8833e-10
-2.2945e-10
4.4215e-10
-1.9531e-09
-1.145e-10
2.125e-10
-2.4558e-10
-1.9523e-09
-2.862e-10
4.4961e-10
-7.0322e-10
-1.952e-09
-4.9044e-10
5.7222e-10
-1.0137e-09
-1.9525e-09
-5.7905e-10
6.4407e-10
-9.2128e-10
-1.9538e-09
-3.7491e-10
5.2163e-10
-6.1055e-10
-9.777e-10
-1.793e-10
3.0177e-10
-3.59e-10
-2.2606e-21
-5.7415e-11
9.0295e-11
-1.3105e-10
8.191e-12
0
-1.6378e-11
0
3.8173e-10
-3.5764e-10
4.0631e-10
-1.9658e-09
1.0625e-09
-1.0798e-09
1.4071e-09
-1.9731e-09
1.9e-09
-1.8856e-09
2.6071e-09
-2.4774e-09
2.9021e-09
-2.8615e-09
3.9001e-09
-3.977e-09
3.7541e-09
-3.6756e-09
5.0948e-09
-5.4912e-09
4.3706e-09
-4.2267e-09
6.0054e-09
-4.0072e-09
4.8363e-09
-4.6796e-09
6.6091e-09
-5.0307e-09
5.0778e-09
-4.8628e-09
6.7452e-09
-7.0678e-09
5.0111e-09
-4.8003e-09
6.6799e-09
-6.0786e-09
4.7865e-09
-4.6205e-09
6.4631e-09
-6.0997e-09
4.2486e-09
-4.1771e-09
5.7829e-09
-8.1583e-09
3.5526e-09
-3.5539e-09
4.8055e-09
-8.1786e-09
2.7947e-09
-2.7447e-09
3.7721e-09
-8.1953e-09
1.7098e-09
-1.6642e-09
2.3664e-09
-8.6156e-09
3.7865e-10
-4.7038e-10
5.684e-10
-8.7228e-09
-9.2877e-10
8.9995e-10
-1.1986e-09
-8.6679e-09
-2.397e-09
2.3641e-09
-3.1604e-09
-8.5539e-09
-4.0302e-09
3.9193e-09
-5.2972e-09
-8.3796e-09
-5.505e-09
5.4638e-09
-7.4214e-09
-8.1477e-09
-6.8995e-09
6.8203e-09
-9.4204e-09
-7.9082e-09
-8.0469e-09
7.9102e-09
-1.0942e-08
-7.4652e-09
-8.8884e-09
8.711e-09
-1.1944e-08
-7.1725e-09
-9.263e-09
9.05e-09
-1.2423e-08
-6.6457e-09
-9.1538e-09
8.9555e-09
-1.2499e-08
-6.165e-09
-8.8219e-09
8.5787e-09
-1.2069e-08
-5.7224e-09
-8.2689e-09
8.0146e-09
-1.1239e-08
-5.1057e-09
-7.5707e-09
7.3551e-09
-1.02e-08
-4.8883e-09
-6.6392e-09
6.4378e-09
-8.8893e-09
-4.4797e-09
-5.4927e-09
5.2727e-09
-7.3672e-09
-4.1754e-09
-4.1125e-09
3.9412e-09
-5.5657e-09
-3.9736e-09
-2.655e-09
2.5971e-09
-3.6002e-09
-3.6798e-09
-1.3713e-09
1.3378e-09
-1.7942e-09
-3.4386e-09
-1.5403e-10
9.6771e-11
-2.6698e-10
-1.9394e-09
9.1492e-10
-8.8251e-10
1.1194e-09
-1.9424e-09
1.5999e-09
-1.5106e-09
2.1786e-09
-1.9461e-09
1.8218e-09
-1.6995e-09
2.5722e-09
-3.8986e-09
1.7443e-09
-1.6138e-09
2.3909e-09
-1.952e-09
1.3685e-09
-1.2622e-09
1.803e-09
-1.9535e-09
8.346e-10
-7.2036e-10
1.0965e-09
-1.9539e-09
3.0294e-10
-2.621e-10
3.9303e-10
-1.9532e-09
-2.2911e-10
1.7995e-10
-2.9457e-10
-1.9523e-09
-5.3976e-10
4.497e-10
-6.8695e-10
-1.9519e-09
-6.9494e-10
6.2927e-10
-9.6463e-10
-1.9526e-09
-6.1152e-10
6.1943e-10
-9.6206e-10
-1.9541e-09
-3.8266e-10
4.3962e-10
-5.9429e-10
-9.7766e-10
-2.2834e-10
2.6049e-10
-3.0989e-10
-4.888e-10
-1.4774e-10
1.638e-10
-1.2299e-10
-7.4284e-11
8.1827e-11
-1.7062e-11
-4.5302e-21
-3.8196e-10
4.3067e-10
4.3053e-10
-1.9646e-09
-1.0632e-09
1.3902e-09
1.3898e-09
-1.9717e-09
-1.9012e-09
2.6052e-09
2.6046e-09
-3.4644e-09
-2.9038e-09
3.8268e-09
3.8259e-09
-3.9722e-09
-3.748e-09
4.9589e-09
4.966e-09
-5.9789e-09
-4.373e-09
5.9203e-09
5.9191e-09
-3.9997e-09
-4.8472e-09
6.4544e-09
6.445e-09
-5.5218e-09
-5.0805e-09
6.7196e-09
6.7184e-09
-6.5492e-09
-5.0136e-09
6.7346e-09
6.7334e-09
-6.5706e-09
-4.7889e-09
6.4794e-09
6.4785e-09
-6.0832e-09
-4.2588e-09
5.797e-09
5.7881e-09
-8.1343e-09
-3.5707e-09
4.7701e-09
4.7533e-09
-8.1534e-09
-2.8038e-09
3.7143e-09
3.7062e-09
-8.1685e-09
-1.7183e-09
2.3966e-09
2.3888e-09
-8.5875e-09
-3.8653e-10
7.3098e-10
7.2335e-10
-8.7455e-09
9.2995e-10
-1.044e-09
-1.0431e-09
-8.7423e-09
2.3986e-09
-2.9975e-09
-2.9966e-09
-8.5783e-09
4.0325e-09
-5.199e-09
-5.1979e-09
-8.3552e-09
5.4994e-09
-7.307e-09
-7.3144e-09
-8.1256e-09
6.8859e-09
-9.2333e-09
-9.2488e-09
-7.8892e-09
8.042e-09
-1.0729e-08
-1.0736e-08
-7.4489e-09
8.892e-09
-1.1683e-08
-1.1682e-08
-7.1607e-09
9.2664e-09
-1.2265e-08
-1.2264e-08
-6.6437e-09
9.1571e-09
-1.2248e-08
-1.2247e-08
-6.1641e-09
8.833e-09
-1.1793e-08
-1.1785e-08
-5.7191e-09
8.2796e-09
-1.1069e-08
-1.106e-08
-5.1529e-09
7.5728e-09
-1.0085e-08
-1.0085e-08
-4.8869e-09
6.6407e-09
-8.7719e-09
-8.772e-09
-4.4796e-09
5.4938e-09
-7.2776e-09
-7.2779e-09
-4.0796e-09
4.1131e-09
-5.5339e-09
-5.5344e-09
-4.0233e-09
2.6551e-09
-3.6342e-09
-3.6348e-09
-3.681e-09
1.371e-09
-1.8111e-09
-1.8117e-09
-3.4395e-09
1.5344e-10
-1.6923e-10
-1.699e-10
-1.9401e-09
-9.1573e-10
1.2101e-09
1.2095e-09
-1.9432e-09
-1.6008e-09
2.2372e-09
2.2366e-09
-1.9465e-09
-1.8225e-09
2.5899e-09
2.5894e-09
-3.8998e-09
-1.7449e-09
2.4325e-09
2.4323e-09
-1.9522e-09
-1.3689e-09
1.9092e-09
1.9091e-09
-1.9536e-09
-8.3474e-10
1.2109e-09
1.2109e-09
-1.9539e-09
-3.0295e-10
4.3387e-10
4.3385e-10
-1.9533e-09
2.3727e-10
-3.4365e-10
-3.3562e-10
-1.9523e-09
5.3967e-10
-7.6862e-10
-7.689e-10
-1.9519e-09
6.8655e-10
-9.3993e-10
-9.4854e-10
-1.9525e-09
6.1115e-10
-8.5562e-10
-8.562e-10
-1.4657e-09
3.8219e-10
-5.1257e-10
-5.1319e-10
-9.7786e-10
2.2788e-10
-3.4229e-10
-3.4285e-10
-1.4663e-09
1.4739e-10
-2.6228e-10
-2.6267e-10
7.4157e-11
-9.1497e-11
-9.1636e-11
2.2654e-21
-3.5747e-10
-1.5437e-10
4.0631e-10
-1.9659e-09
-1.0711e-09
-7.1152e-10
1.4071e-09
-1.9732e-09
-1.8766e-09
-1.3191e-09
2.599e-09
-2.4775e-09
-2.8602e-09
-1.983e-09
3.892e-09
-3.977e-09
-3.6741e-09
-2.6129e-09
5.0948e-09
-5.4913e-09
-4.225e-09
-3.0371e-09
5.9973e-09
-4.0073e-09
-4.686e-09
-3.3392e-09
6.601e-09
-5.0309e-09
-4.8691e-09
-3.2854e-09
6.7618e-09
-7.0681e-09
-4.7986e-09
-3.3124e-09
6.771e-09
-6.0788e-09
-4.6191e-09
-3.3001e-09
6.5454e-09
-6.0999e-09
-4.1761e-09
-2.9165e-09
5.7912e-09
-8.1587e-09
-3.5534e-09
-2.4241e-09
4.8057e-09
-8.179e-09
-2.7364e-09
-1.9801e-09
3.8556e-09
-8.1957e-09
-1.6564e-09
-1.2493e-09
2.4326e-09
-8.616e-09
-4.714e-10
-3.0001e-10
5.6012e-10
-8.7233e-09
8.9841e-10
6.0993e-10
-1.1821e-09
-8.6682e-09
2.362e-09
1.5619e-09
-3.1523e-09
-8.5543e-09
3.9086e-09
2.6722e-09
-5.3885e-09
-8.38e-09
5.4527e-09
3.8808e-09
-7.5052e-09
-8.1481e-09
6.8253e-09
4.8534e-09
-9.4208e-09
-7.9085e-09
7.9067e-09
5.5545e-09
-1.0951e-08
-7.4654e-09
8.699e-09
6.0195e-09
-1.1953e-08
-7.123e-09
9.0546e-09
6.2312e-09
-1.2431e-08
-6.6468e-09
8.952e-09
6.301e-09
-1.2482e-08
-6.1602e-09
8.5671e-09
6.0393e-09
-1.2053e-08
-5.7224e-09
8.0115e-09
5.5817e-09
-1.1239e-08
-5.1057e-09
7.3605e-09
5.0939e-09
-1.0208e-08
-4.8883e-09
6.4436e-09
4.4198e-09
-8.8893e-09
-4.4797e-09
5.271e-09
3.6431e-09
-7.3591e-09
-4.1754e-09
3.9318e-09
2.7393e-09
-5.5657e-09
-3.9736e-09
2.5883e-09
1.7646e-09
-3.6084e-09
-3.6797e-09
1.3378e-09
8.7348e-10
-1.8024e-09
-3.4386e-09
8.9174e-11
1.378e-10
-2.6698e-10
-1.9394e-09
-8.897e-10
-5.071e-10
1.1194e-09
-1.9424e-09
-1.5094e-09
-1.0776e-09
2.1786e-09
-1.946e-09
-1.6983e-09
-1.258e-09
2.5722e-09
-3.8986e-09
-1.6127e-09
-1.1305e-09
2.3827e-09
-1.952e-09
-1.2612e-09
-8.117e-10
1.7948e-09
-1.9535e-09
-7.1958e-10
-4.5844e-10
1.0965e-09
-1.9539e-09
-2.6149e-10
-1.8833e-10
3.9303e-10
-1.9532e-09
1.8047e-10
1.145e-10
-2.9457e-10
-1.9523e-09
4.5018e-10
2.862e-10
-6.9513e-10
-1.9519e-09
6.2977e-10
4.9044e-10
-9.7279e-10
-1.9526e-09
6.1997e-10
5.7905e-10
-9.6206e-10
-1.9541e-09
4.3201e-10
3.8308e-10
-5.9429e-10
-9.7766e-10
2.61e-10
1.793e-10
-3.0989e-10
-4.888e-10
1.7235e-10
4.9228e-11
-1.2299e-10
8.1958e-11
-8.191e-12
-1.7062e-11
2.265e-21
-2.112e-10
-2.1134e-10
-1.9649e-09
-7.1955e-10
-7.2811e-10
-1.9714e-09
-1.311e-09
-1.3199e-09
-1.9784e-09
-1.9751e-09
-1.9762e-09
-3.9707e-09
-2.4825e-09
-2.492e-09
-4.4842e-09
-2.8477e-09
-2.8574e-09
-3.9984e-09
-3.151e-09
-3.1527e-09
-4.0121e-09
-3.2199e-09
-3.2214e-09
-7.5507e-09
-3.2307e-09
-3.2404e-09
-6.0593e-09
-3.1733e-09
-3.1909e-09
-6.0783e-09
-2.8874e-09
-2.8964e-09
-8.1271e-09
-2.3702e-09
-2.3705e-09
-8.146e-09
-1.7843e-09
-1.784e-09
-8.1605e-09
-1.119e-09
-1.1181e-09
-8.5775e-09
-3.8433e-10
-3.8277e-10
-8.6324e-09
5.0218e-10
5.0444e-10
-8.5781e-09
1.4728e-09
1.4674e-09
-8.4648e-09
2.6009e-09
2.5963e-09
-8.3436e-09
3.7193e-09
3.7235e-09
-8.1144e-09
4.5936e-09
4.5984e-09
-7.8802e-09
5.3281e-09
5.3331e-09
-7.4423e-09
5.8427e-09
5.848e-09
-7.2058e-09
6.1206e-09
6.1258e-09
-6.6253e-09
6.098e-09
6.1113e-09
-6.1511e-09
5.8682e-09
5.8812e-09
-5.7176e-09
5.4919e-09
5.4963e-09
-5.1036e-09
4.962e-09
4.9659e-09
-4.8885e-09
4.3776e-09
4.381e-09
-4.482e-09
3.6494e-09
3.6521e-09
-4.2274e-09
2.6809e-09
2.6911e-09
-3.9778e-09
1.731e-09
1.7403e-09
-3.7325e-09
9.4606e-10
9.4645e-10
-3.4905e-09
1.4632e-10
1.5401e-10
-1.9407e-09
-5.8763e-10
-5.8058e-10
-1.9436e-09
-1.1009e-09
-1.1024e-09
-1.9467e-09
-1.2405e-09
-1.2422e-09
-3.8991e-09
-1.0884e-09
-1.0901e-09
-1.9518e-09
-7.8613e-10
-7.8776e-10
-1.9531e-09
-4.2508e-10
-4.265e-10
-1.9535e-09
-1.4689e-10
-1.4809e-10
-1.9531e-09
1.4756e-10
1.4659e-10
-1.9524e-09
2.8653e-10
2.8574e-10
-1.9523e-09
3.6004e-10
3.5121e-10
-1.9527e-09
4.4871e-10
4.3994e-10
-1.4655e-09
3.838e-10
3.8324e-10
-1.9547e-09
2.3698e-10
2.2832e-10
0
8.2207e-11
7.3694e-11
5.9192e-14
-5.9192e-14
0
-1.7064e-10
-2.926e-10
-1.9652e-09
-4.9831e-10
-8.015e-10
-1.9721e-09
-7.5355e-10
-1.3446e-09
-1.9793e-09
-1.0083e-09
-1.9765e-09
-3.4778e-09
-1.2486e-09
-2.4902e-09
-3.9874e-09
-1.4238e-09
-2.8818e-09
-4.0016e-09
-1.5928e-09
-3.2114e-09
-4.0159e-09
-1.6684e-09
-3.3625e-09
-6.5506e-09
-1.6641e-09
-3.3627e-09
-6.0662e-09
-1.6779e-09
-3.208e-09
-6.0854e-09
-1.531e-09
-2.8815e-09
-8.1368e-09
-1.194e-09
-2.4134e-09
-8.1568e-09
-8.4694e-10
-1.7931e-09
-8.1712e-09
-5.1405e-10
-1.1025e-09
-8.5387e-09
-9.6242e-11
-3.4144e-10
-8.5931e-09
4.301e-10
5.6267e-10
-8.6407e-09
8.493e-10
1.5848e-09
-8.4757e-09
1.2608e-09
2.7142e-09
-8.3543e-09
1.7783e-09
3.7426e-09
-8.1232e-09
2.3689e-09
4.6338e-09
-7.7875e-09
2.7906e-09
5.4354e-09
-7.4485e-09
2.9518e-09
5.9413e-09
-7.1106e-09
3.0211e-09
6.2272e-09
-6.6247e-09
3.0959e-09
6.2366e-09
-6.1544e-09
3.0057e-09
6.0472e-09
-5.72e-09
2.7436e-09
5.6701e-09
-5.2027e-09
2.5722e-09
5.0731e-09
-4.8392e-09
2.3367e-09
4.4796e-09
-4.4823e-09
1.842e-09
3.7423e-09
-4.2274e-09
1.3328e-09
2.8133e-09
-3.9291e-09
1.004e-09
1.8625e-09
-3.7319e-09
5.0559e-10
9.8704e-10
-3.4898e-09
-2.6639e-13
1.5394e-10
-1.9405e-09
-3.3457e-10
-5.9673e-10
-1.9432e-09
-4.8978e-10
-1.0698e-09
-1.9463e-09
-4.903e-10
-1.2421e-09
-3.8986e-09
-4.9968e-10
-1.139e-09
-1.9515e-09
-4.0986e-10
-8.6125e-10
-1.9528e-09
-2.4557e-10
-5.3263e-10
-1.9532e-09
-9.0114e-11
-1.8903e-10
-1.953e-09
8.9858e-11
1.3029e-10
-1.9525e-09
1.7974e-10
3.1832e-10
-1.9523e-09
1.6355e-10
3.5938e-10
-1.9528e-09
1.5479e-10
3.5015e-10
-9.7701e-10
1.5495e-10
3.0179e-10
-1.9546e-09
8.9822e-11
1.6305e-10
-4.5199e-21
1.6444e-11
4.091e-11
8.1891e-12
8.1297e-12
-2.2661e-21
0
-2.6004e-10
-1.9656e-09
0
-7.851e-10
-1.9725e-09
0
-1.377e-09
-1.9799e-09
0
-1.9925e-09
-2.9822e-09
0
-2.5202e-09
-3.9887e-09
8.2171e-12
-2.9703e-09
-4.5048e-09
8.1988e-12
-3.3028e-09
-4.018e-09
-8.1826e-12
-3.4392e-09
-6.0484e-09
-1.6413e-11
-3.4286e-09
-6.0698e-09
-8.2466e-12
-3.2663e-09
-6.0894e-09
0
-2.9481e-09
-8.143e-09
8.3043e-12
-2.5052e-09
-8.163e-09
1.5232e-14
-1.91e-09
-8.178e-09
-1.656e-11
-1.1866e-09
-8.4944e-09
-8.3144e-12
-3.338e-10
-8.6003e-09
-8.263e-12
6.365e-10
-8.6475e-09
-1.6738e-14
1.6833e-09
-8.533e-09
8.2476e-12
2.7718e-09
-8.3601e-09
0
3.8246e-09
-8.1289e-09
-8.2682e-12
4.7737e-09
-7.69e-09
-2.4795e-11
5.5503e-09
-7.4526e-09
-2.4822e-11
6.0725e-09
-7.0129e-09
-8.2425e-12
6.3411e-09
-6.6245e-09
8.2212e-12
6.3755e-09
-6.1608e-09
1.6408e-11
6.1692e-09
-5.7204e-09
8.1388e-12
5.7587e-09
-5.3014e-09
0
5.2191e-09
-4.742e-09
0
4.5272e-09
-4.4821e-09
0
3.7248e-09
-4.1784e-09
0
2.861e-09
-3.9287e-09
0
1.9269e-09
-3.6833e-09
0
9.8689e-10
-3.49e-09
0
1.3786e-10
-1.9404e-09
0
-5.4727e-10
-1.9432e-09
0
-9.8762e-10
-1.9463e-09
-8.15e-12
-1.1761e-09
-3.8982e-09
-8.1387e-12
-1.1381e-09
-1.9514e-09
0
-9.0943e-10
-1.9528e-09
0
-5.809e-10
-1.9532e-09
0
-2.2114e-10
-1.953e-09
-8.1712e-12
8.995e-11
-1.9526e-09
-6.095e-16
3.1059e-10
-1.9523e-09
1.6337e-11
3.9231e-10
-1.9529e-09
8.1686e-12
3.8317e-10
-9.7711e-10
0
3.0208e-10
-1.9544e-09
0
1.7962e-10
-2.2599e-21
0
7.3803e-11
0
8.1889e-12
4.5309e-21
1.7064e-10
-2.6004e-10
-1.9656e-09
4.9831e-10
-7.851e-10
-1.9725e-09
7.5355e-10
-1.377e-09
-1.9799e-09
1.0002e-09
-1.9844e-09
-2.9823e-09
1.2323e-09
-2.5202e-09
-3.9887e-09
1.4157e-09
-2.9785e-09
-4.5048e-09
1.6011e-09
-3.2947e-09
-4.018e-09
1.6767e-09
-3.4475e-09
-6.0484e-09
1.6641e-09
-3.445e-09
-6.0699e-09
1.6697e-09
-3.2745e-09
-6.0895e-09
1.5145e-09
-2.9647e-09
-8.1429e-09
1.1775e-09
-2.5135e-09
-8.163e-09
8.3863e-10
-1.9099e-09
-8.1779e-09
5.1405e-10
-1.1865e-09
-8.4944e-09
9.6308e-11
-3.3386e-10
-8.6003e-09
-4.1353e-10
6.4491e-10
-8.6475e-09
-8.4106e-10
1.6999e-09
-8.533e-09
-1.2691e-09
2.7801e-09
-8.3601e-09
-1.7701e-09
3.8331e-09
-8.1289e-09
-2.3524e-09
4.7736e-09
-7.6899e-09
-2.7824e-09
5.542e-09
-7.4525e-09
-2.9518e-09
6.0724e-09
-7.0128e-09
-3.0291e-09
6.3492e-09
-6.6244e-09
-3.1042e-09
6.3837e-09
-6.1608e-09
-3.0138e-09
6.1856e-09
-5.7204e-09
-2.7519e-09
5.7751e-09
-5.3014e-09
-2.5722e-09
5.2027e-09
-4.742e-09
-2.3368e-09
4.5109e-09
-4.4821e-09
-1.842e-09
3.7248e-09
-4.1784e-09
-1.3328e-09
2.861e-09
-3.9287e-09
-1.004e-09
1.9269e-09
-3.6833e-09
-5.0559e-10
9.8689e-10
-3.4899e-09
2.3784e-13
1.2972e-10
-1.9404e-09
3.3459e-10
-5.5539e-10
-1.9432e-09
5.0606e-10
-9.9575e-10
-1.9463e-09
5.0661e-10
-1.1843e-09
-3.8981e-09
5.0779e-10
-1.1463e-09
-1.9514e-09
4.0987e-10
-9.1757e-10
-1.9528e-09
2.3742e-10
-5.809e-10
-1.9532e-09
9.0114e-11
-2.2114e-10
-1.953e-09
-7.3546e-11
9.8106e-11
-1.9527e-09
-1.634e-10
3.1877e-10
-1.9523e-09
-1.5539e-10
3.9231e-10
-1.9529e-09
-1.4662e-10
3.8317e-10
-9.7711e-10
-1.5495e-10
3.0208e-10
-1.9544e-09
-8.9822e-11
1.7962e-10
0
-1.6444e-11
7.3803e-11
-8.1891e-12
8.1889e-12
-2.2657e-21
2.1114e-10
-2.9267e-10
-1.9652e-09
7.1937e-10
-8.0168e-10
-1.9721e-09
1.3108e-09
-1.3449e-09
-1.9793e-09
1.9748e-09
-1.9687e-09
-3.4778e-09
2.4903e-09
-2.4906e-09
-3.9874e-09
2.8554e-09
-2.8904e-09
-4.0016e-09
3.1588e-09
-3.2036e-09
-4.0159e-09
3.2275e-09
-3.3712e-09
-6.5506e-09
3.2385e-09
-3.3797e-09
-6.0661e-09
3.1892e-09
-3.2167e-09
-6.0854e-09
2.8951e-09
-2.8985e-09
-8.1368e-09
2.3696e-09
-2.4222e-09
-8.1569e-09
1.7755e-09
-1.7936e-09
-8.1712e-09
1.1102e-09
-1.103e-09
-8.5386e-09
3.838e-10
-3.4205e-10
-8.5931e-09
-5.0278e-10
5.7048e-10
-8.6407e-09
-1.4651e-09
1.6007e-09
-8.4756e-09
-2.5851e-09
2.7217e-09
-8.3544e-09
-3.7119e-09
3.7501e-09
-8.1232e-09
-4.6853e-09
4.7155e-09
-7.7876e-09
-5.4121e-09
5.5095e-09
-7.4485e-09
-5.8355e-09
5.9404e-09
-7.1104e-09
-6.1298e-09
6.2345e-09
-6.6243e-09
-6.1072e-09
6.2439e-09
-6.1543e-09
-5.8692e-09
6.0626e-09
-5.72e-09
-5.493e-09
5.6854e-09
-5.2027e-09
-4.9712e-09
5.0557e-09
-4.8392e-09
-4.3867e-09
4.4622e-09
-4.4823e-09
-3.6503e-09
3.7414e-09
-4.2274e-09
-2.6817e-09
2.8125e-09
-3.9291e-09
-1.7316e-09
1.8619e-09
-3.7319e-09
-9.4641e-10
9.8669e-10
-3.4898e-09
-1.4643e-10
1.4568e-10
-1.9405e-09
5.8774e-10
-6.0474e-10
-1.9433e-09
1.1012e-09
-1.0776e-09
-1.9463e-09
1.2409e-09
-1.2498e-09
-3.8986e-09
1.089e-09
-1.1466e-09
-1.9515e-09
7.868e-10
-8.6874e-10
-1.9528e-09
4.2575e-10
-5.3195e-10
-1.9532e-09
1.4752e-10
-1.884e-10
-1.953e-09
-1.4704e-10
1.3897e-10
-1.9525e-09
-2.8615e-10
3.2688e-10
-1.9523e-09
-3.5164e-10
3.5963e-10
-1.9528e-09
-4.4042e-10
3.5028e-10
-9.7701e-10
-3.7558e-10
3.0184e-10
-1.9546e-09
-2.2879e-10
1.6306e-10
0
-8.2216e-11
4.0901e-11
-6.4114e-14
8.1248e-12
0
3.5741e-10
-2.114e-10
-1.9649e-09
1.0791e-09
-7.2015e-10
-1.9714e-09
1.8845e-09
-1.3121e-09
-1.9784e-09
2.8599e-09
-1.9765e-09
-3.9707e-09
3.6736e-09
-2.4924e-09
-4.4842e-09
4.2245e-09
-2.8579e-09
-3.9984e-09
4.6854e-09
-3.1532e-09
-4.0121e-09
4.8685e-09
-3.2219e-09
-7.5507e-09
4.8063e-09
-3.2327e-09
-6.0593e-09
4.635e-09
-3.175e-09
-6.0783e-09
4.1755e-09
-2.8969e-09
-8.1271e-09
3.5446e-09
-2.3793e-09
-8.1459e-09
2.7358e-09
-1.7845e-09
-8.1606e-09
1.6477e-09
-1.1268e-09
-8.5776e-09
4.7091e-10
-3.8331e-10
-8.6324e-09
-8.9069e-10
5.1209e-10
-8.5782e-09
-2.3626e-09
1.4668e-09
-8.4648e-09
-3.9176e-09
2.5873e-09
-8.3437e-09
-5.4617e-09
3.7145e-09
-8.1138e-09
-6.8179e-09
4.6883e-09
-7.8803e-09
-7.8993e-09
5.4237e-09
-7.4423e-09
-8.6999e-09
5.847e-09
-7.2058e-09
-9.0471e-09
6.1331e-09
-6.6243e-09
-8.9446e-09
6.1184e-09
-6.1511e-09
-8.5679e-09
5.8801e-09
-5.7176e-09
-8.0122e-09
5.4952e-09
-5.1036e-09
-7.3612e-09
4.9648e-09
-4.8885e-09
-6.4444e-09
4.38e-09
-4.482e-09
-5.2716e-09
3.6512e-09
-4.2274e-09
-3.9324e-09
2.6903e-09
-3.9778e-09
-2.5888e-09
1.7397e-09
-3.7325e-09
-1.338e-09
9.461e-10
-3.4905e-09
-8.925e-11
1.5389e-10
-1.9407e-09
8.8981e-10
-5.8046e-10
-1.9436e-09
1.5097e-09
-1.1021e-09