/*--------------------------------*- C++ -*----------------------------------*\
| =========                 |                                                 |
| \\      /  F ield         | OpenFOAM: The Open Source CFD Toolbox           |
|  \\    /   O peration     | Version:  4.1                                   |
|   \\  /    A nd           | Web:      www.OpenFOAM.org                      |
|    \\/     M anipulation  |                                                 |
\*---------------------------------------------------------------------------*/
FoamFile
{
    version     2.0;
    format      ascii;
    class       pointVectorField;
    location    "0.0082";
    object      pointDisplacement;
}
// * * * * * * * * * * * * * * * * * * * * * * * * * * * * * * * * * * * * * //

dimensions      [0 1 0 0 0 0 0];

internalField   nonuniform List<vector> 
7105
(
(0 0 0)
(2.7856e-06 -3.8904e-06 4.9338e-10)
(5.4807e-06 -8.1265e-06 1.011e-09)
(8.0773e-06 -1.2778e-05 1.5539e-09)
(1.0683e-05 -1.7644e-05 2.108e-09)
(1.3455e-05 -2.2482e-05 2.6622e-09)
(1.6501e-05 -2.72e-05 3.2106e-09)
(1.9857e-05 -3.1847e-05 3.751e-09)
(2.3501e-05 -3.6476e-05 4.2884e-09)
(2.739e-05 -4.1058e-05 4.8297e-09)
(3.1474e-05 -4.5475e-05 5.3667e-09)
(3.5704e-05 -4.9566e-05 5.8791e-09)
(4.0038e-05 -5.3168e-05 6.3484e-09)
(4.4432e-05 -5.6128e-05 6.7522e-09)
(4.8828e-05 -5.8307e-05 7.0776e-09)
(5.3149e-05 -5.9585e-05 7.3178e-09)
(5.7303e-05 -5.9858e-05 7.4414e-09)
(6.12e-05 -5.9009e-05 7.4175e-09)
(6.477e-05 -5.6922e-05 7.2472e-09)
(6.7965e-05 -5.3542e-05 6.9331e-09)
(7.0755e-05 -4.8947e-05 6.4712e-09)
(7.3111e-05 -4.3338e-05 5.8747e-09)
(7.4998e-05 -3.6992e-05 5.1675e-09)
(7.6373e-05 -3.0226e-05 4.3864e-09)
(7.7196e-05 -2.3359e-05 3.5717e-09)
(7.7438e-05 -1.6683e-05 2.7511e-09)
(7.7089e-05 -1.0423e-05 1.9484e-09)
(7.617e-05 -4.7421e-06 1.1853e-09)
(7.4733e-05 2.3208e-07 4.8841e-10)
(7.2855e-05 4.3541e-06 -1.058e-10)
(7.0618e-05 7.4494e-06 -5.6074e-10)
(6.8094e-05 9.3649e-06 -8.6509e-10)
(6.5326e-05 1.0043e-05 -1.0275e-09)
(6.2336e-05 9.5616e-06 -1.0559e-09)
(5.9135e-05 8.1452e-06 -9.708e-10)
(5.5734e-05 6.1401e-06 -8.0556e-10)
(5.2156e-05 3.9635e-06 -5.9844e-10)
(4.8442e-05 2.0162e-06 -3.8705e-10)
(4.465e-05 5.9486e-07 -1.9876e-10)
(4.0842e-05 -1.6125e-07 -5.6254e-11)
(3.7069e-05 -2.7782e-07 3.1158e-11)
(3.3355e-05 7.6518e-08 8.1437e-11)
(2.9705e-05 5.8957e-07 1.216e-10)
(2.6095e-05 8.1849e-07 1.7314e-10)
(2.2395e-05 4.1277e-07 2.4251e-10)
(1.8256e-05 -4.7336e-07 3.0055e-10)
(1.3196e-05 -1.1337e-06 2.9251e-10)
(6.9953e-06 -9.4296e-07 1.8437e-10)
(0 0 0)
(0 0 0)
(2.7711e-06 -3.5247e-06 4.4199e-07)
(5.467e-06 -7.3333e-06 9.1923e-07)
(8.085e-06 -1.1486e-05 1.4392e-06)
(1.0722e-05 -1.5827e-05 1.9822e-06)
(1.3518e-05 -2.0156e-05 2.5235e-06)
(1.6575e-05 -2.4392e-05 3.053e-06)
(1.9928e-05 -2.8566e-05 3.574e-06)
(2.3563e-05 -3.2715e-05 4.0916e-06)
(2.744e-05 -3.6812e-05 4.6025e-06)
(3.1511e-05 -4.0756e-05 5.094e-06)
(3.5729e-05 -4.4406e-05 5.5486e-06)
(4.0049e-05 -4.7617e-05 5.9482e-06)
(4.4427e-05 -5.0255e-05 6.2761e-06)
(4.8803e-05 -5.2194e-05 6.517e-06)
(5.3101e-05 -5.3326e-05 6.6575e-06)
(5.7233e-05 -5.3554e-05 6.6856e-06)
(6.1113e-05 -5.2778e-05 6.5883e-06)
(6.4669e-05 -5.0899e-05 6.354e-06)
(6.7855e-05 -4.7875e-05 5.9777e-06)
(7.0637e-05 -4.3776e-05 5.4676e-06)
(7.2985e-05 -3.8778e-05 4.8449e-06)
(7.4862e-05 -3.3124e-05 4.1402e-06)
(7.6228e-05 -2.7094e-05 3.3885e-06)
(7.7045e-05 -2.0972e-05 2.625e-06)
(7.7286e-05 -1.5014e-05 1.8817e-06)
(7.6943e-05 -9.4226e-06 1.1837e-06)
(7.6037e-05 -4.3465e-06 5.4944e-07)
(7.4618e-05 9.4195e-08 -5.4524e-09)
(7.2759e-05 3.7687e-06 -4.6438e-07)
(7.0539e-05 6.5261e-06 -8.0894e-07)
(6.8026e-05 8.2374e-06 -1.0234e-06)
(6.5265e-05 8.8555e-06 -1.1014e-06)
(6.2279e-05 8.4524e-06 -1.0516e-06)
(5.9082e-05 7.2253e-06 -8.989e-07)
(5.5689e-05 5.4787e-06 -6.8181e-07)
(5.2122e-05 3.5763e-06 -4.4566e-07)
(4.8421e-05 1.8674e-06 -2.3355e-07)
(4.4643e-05 6.1152e-07 -7.7564e-08)
(4.0846e-05 -6.8011e-08 6.8441e-09)
(3.7078e-05 -1.9215e-07 2.1966e-08)
(3.3362e-05 8.9445e-08 -1.3699e-08)
(2.9697e-05 5.0231e-07 -6.5581e-08)
(2.6047e-05 6.744e-07 -8.696e-08)
(2.2275e-05 3.2924e-07 -4.3654e-08)
(1.8052e-05 -3.9498e-07 4.6753e-08)
(1.2965e-05 -9.2718e-07 1.1341e-07)
(6.8396e-06 -7.6832e-07 9.4452e-08)
(0 0 0)
(0 0 0)
(2.7616e-06 -3.1312e-06 1.0097e-06)
(5.4584e-06 -6.4959e-06 2.0945e-06)
(8.0909e-06 -1.0147e-05 3.2712e-06)
(1.0749e-05 -1.3958e-05 4.4992e-06)
(1.3561e-05 -1.7769e-05 5.7262e-06)
(1.6625e-05 -2.1506e-05 6.9291e-06)
(1.9977e-05 -2.5189e-05 8.1139e-06)
(2.3606e-05 -2.8845e-05 9.2896e-06)
(2.7475e-05 -3.2448e-05 1.0448e-05)
(3.1537e-05 -3.5913e-05 1.1561e-05)
(3.5746e-05 -3.9117e-05 1.259e-05)
(4.0057e-05 -4.1935e-05 1.3494e-05)
(4.4423e-05 -4.4247e-05 1.4236e-05)
(4.8785e-05 -4.5945e-05 1.478e-05)
(5.3067e-05 -4.6933e-05 1.5096e-05)
(5.7185e-05 -4.7123e-05 1.5156e-05)
(6.1052e-05 -4.6429e-05 1.4932e-05)
(6.46e-05 -4.4767e-05 1.4398e-05)
(6.7779e-05 -4.2107e-05 1.3544e-05)
(7.0555e-05 -3.8509e-05 1.2388e-05)
(7.2897e-05 -3.4125e-05 1.098e-05)
(7.4767e-05 -2.9167e-05 9.3874e-06)
(7.6127e-05 -2.3878e-05 7.6884e-06)
(7.694e-05 -1.8506e-05 5.9624e-06)
(7.718e-05 -1.3274e-05 4.2809e-06)
(7.6841e-05 -8.3604e-06 2.7013e-06)
(7.5944e-05 -3.8989e-06 1.2666e-06)
(7.4538e-05 1.9009e-09 1.2169e-08)
(7.2692e-05 3.2261e-06 -1.0244e-06)
(7.0484e-05 5.6444e-06 -1.802e-06)
(6.7979e-05 7.1486e-06 -2.2864e-06)
(6.5222e-05 7.7008e-06 -2.4653e-06)
(6.2239e-05 7.3649e-06 -2.3589e-06)
(5.9046e-05 6.313e-06 -2.0228e-06)
(5.5657e-05 4.8086e-06 -1.5419e-06)
(5.2097e-05 3.1658e-06 -1.0168e-06)
(4.8406e-05 1.6852e-06 -5.4331e-07)
(4.4637e-05 5.913e-07 -1.9317e-07)
(4.0849e-05 -8.1137e-09 -1.0421e-09)
(3.7084e-05 -1.3035e-07 3.838e-08)
(3.3366e-05 9.3878e-08 -3.3275e-08)
(2.969e-05 4.2681e-07 -1.3999e-07)
(2.6013e-05 5.5718e-07 -1.8177e-07)
(2.219e-05 2.652e-07 -8.7424e-08)
(1.7912e-05 -3.2804e-07 1.044e-07)
(1.2808e-05 -7.5904e-07 2.4403e-07)
(6.734e-06 -6.2716e-07 2.0198e-07)
(0 0 0)
(0 0 0)
(2.7566e-06 -2.6643e-06 1.583e-06)
(5.4543e-06 -5.5187e-06 3.2792e-06)
(8.0956e-06 -8.6071e-06 5.1145e-06)
(1.0766e-05 -1.183e-05 7.0291e-06)
(1.3589e-05 -1.5055e-05 8.9444e-06)
(1.6657e-05 -1.8222e-05 1.0825e-05)
(2.0009e-05 -2.1343e-05 1.2678e-05)
(2.3634e-05 -2.4439e-05 1.4515e-05)
(2.7497e-05 -2.7487e-05 1.6324e-05)
(3.1553e-05 -3.0415e-05 1.8061e-05)
(3.5757e-05 -3.3121e-05 1.9667e-05)
(4.0062e-05 -3.5501e-05 2.1078e-05)
(4.442e-05 -3.7453e-05 2.2234e-05)
(4.8773e-05 -3.8884e-05 2.3082e-05)
(5.3046e-05 -3.9714e-05 2.3573e-05)
(5.7154e-05 -3.9869e-05 2.3664e-05)
(6.1013e-05 -3.9276e-05 2.3311e-05)
(6.4556e-05 -3.7866e-05 2.2475e-05)
(6.7731e-05 -3.5616e-05 2.114e-05)
(7.0504e-05 -3.2576e-05 1.9337e-05)
(7.2841e-05 -2.8874e-05 1.7141e-05)
(7.4708e-05 -2.4689e-05 1.4659e-05)
(7.6064e-05 -2.0224e-05 1.201e-05)
(7.6874e-05 -1.5687e-05 9.3193e-06)
(7.7114e-05 -1.1266e-05 6.6967e-06)
(7.6778e-05 -7.1137e-06 4.2327e-06)
(7.5886e-05 -3.3426e-06 1.9949e-06)
(7.4487e-05 -4.6508e-08 3.9055e-08)
(7.265e-05 2.6761e-06 -1.5764e-06)
(7.0449e-05 4.7177e-06 -2.7879e-06)
(6.7949e-05 5.9894e-06 -3.543e-06)
(6.5195e-05 6.4611e-06 -3.8239e-06)
(6.2214e-05 6.1877e-06 -3.6633e-06)
(5.9022e-05 5.3136e-06 -3.1469e-06)
(5.5636e-05 4.0594e-06 -2.4054e-06)
(5.2081e-05 2.687e-06 -1.5938e-06)
(4.8396e-05 1.4474e-06 -8.6051e-07)
(4.4634e-05 5.2855e-07 -3.1657e-07)
(4.085e-05 2.0989e-08 -1.5796e-08)
(3.7088e-05 -8.9503e-08 5.0214e-08)
(3.3369e-05 8.7224e-08 -5.3725e-08)
(2.9686e-05 3.5317e-07 -2.1097e-07)
(2.5991e-05 4.5356e-07 -2.7057e-07)
(2.2138e-05 2.1234e-07 -1.2681e-07)
(1.7828e-05 -2.6964e-07 1.6115e-07)
(1.2714e-05 -6.1747e-07 3.6918e-07)
(6.6715e-06 -5.0898e-07 3.0437e-07)
(0 0 0)
(0 0 0)
(2.7551e-06 -2.1417e-06 2.1417e-06)
(5.4533e-06 -4.4341e-06 4.4342e-06)
(8.0975e-06 -6.9125e-06 6.9127e-06)
(1.0772e-05 -9.4978e-06 9.498e-06)
(1.3598e-05 -1.2085e-05 1.2086e-05)
(1.6668e-05 -1.4627e-05 1.4628e-05)
(2.002e-05 -1.7133e-05 1.7133e-05)
(2.3643e-05 -1.9617e-05 1.9617e-05)
(2.7505e-05 -2.2061e-05 2.2062e-05)
(3.1559e-05 -2.4409e-05 2.4409e-05)
(3.576e-05 -2.6578e-05 2.6579e-05)
(4.0063e-05 -2.8485e-05 2.8485e-05)
(4.4419e-05 -3.0048e-05 3.0049e-05)
(4.8769e-05 -3.1194e-05 3.1195e-05)
(5.3039e-05 -3.1857e-05 3.1858e-05)
(5.7144e-05 -3.198e-05 3.1981e-05)
(6.1e-05 -3.1501e-05 3.1503e-05)
(6.4541e-05 -3.037e-05 3.0371e-05)
(6.7714e-05 -2.8565e-05 2.8566e-05)
(7.0486e-05 -2.6129e-05 2.613e-05)
(7.2822e-05 -2.3162e-05 2.3163e-05)
(7.4687e-05 -1.9808e-05 1.9809e-05)
(7.6042e-05 -1.623e-05 1.6231e-05)
(7.6852e-05 -1.2594e-05 1.2595e-05)
(7.7091e-05 -9.051e-06 9.0518e-06)
(7.6756e-05 -5.7218e-06 5.7224e-06)
(7.5866e-05 -2.6983e-06 2.6987e-06)
(7.447e-05 -5.6114e-08 5.6355e-08)
(7.2635e-05 2.1259e-06 -2.1259e-06)
(7.0437e-05 3.7621e-06 -3.7622e-06)
(6.7939e-05 4.7819e-06 -4.7821e-06)
(6.5186e-05 5.1619e-06 -5.1622e-06)
(6.2205e-05 4.9463e-06 -4.9467e-06)
(5.9014e-05 4.2508e-06 -4.2513e-06)
(5.5629e-05 3.2513e-06 -3.2519e-06)
(5.2076e-05 2.1567e-06 -2.1574e-06)
(4.8392e-05 1.1672e-06 -1.1679e-06)
(4.4632e-05 4.3259e-07 -4.3342e-07)
(4.085e-05 2.557e-08 -2.642e-08)
(3.7089e-05 -6.5305e-08 6.4475e-08)
(3.337e-05 7.226e-08 -7.3027e-08)
(2.9684e-05 2.8102e-07 -2.8169e-07)
(2.5984e-05 3.5914e-07 -3.5968e-07)
(2.212e-05 1.6693e-07 -1.6731e-07)
(1.7799e-05 -2.1583e-07 2.1559e-07)
(1.2683e-05 -4.9154e-07 4.914e-07)
(6.6511e-06 -4.0469e-07 4.0464e-07)
(0 0 0)
(0 0 0)
(2.7566e-06 -1.583e-06 2.6643e-06)
(5.4544e-06 -3.2791e-06 5.5188e-06)
(8.0956e-06 -5.1143e-06 8.6072e-06)
(1.0766e-05 -7.0288e-06 1.183e-05)
(1.3589e-05 -8.9441e-06 1.5055e-05)
(1.6657e-05 -1.0824e-05 1.8222e-05)
(2.0009e-05 -1.2677e-05 2.1343e-05)
(2.3634e-05 -1.4515e-05 2.4439e-05)
(2.7497e-05 -1.6324e-05 2.7487e-05)
(3.1554e-05 -1.806e-05 3.0415e-05)
(3.5757e-05 -1.9666e-05 3.3122e-05)
(4.0062e-05 -2.1076e-05 3.5502e-05)
(4.442e-05 -2.2233e-05 3.7453e-05)
(4.8773e-05 -2.3081e-05 3.8885e-05)
(5.3046e-05 -2.3572e-05 3.9715e-05)
(5.7154e-05 -2.3663e-05 3.987e-05)
(6.1013e-05 -2.331e-05 3.9276e-05)
(6.4556e-05 -2.2473e-05 3.7867e-05)
(6.7731e-05 -2.1138e-05 3.5616e-05)
(7.0504e-05 -1.9336e-05 3.2577e-05)
(7.2841e-05 -1.714e-05 2.8875e-05)
(7.4708e-05 -1.4658e-05 2.4689e-05)
(7.6064e-05 -1.2009e-05 2.0224e-05)
(7.6874e-05 -9.3182e-06 1.5688e-05)
(7.7114e-05 -6.6959e-06 1.1267e-05)
(7.6778e-05 -4.2321e-06 7.1142e-06)
(7.5886e-05 -1.9944e-06 3.3429e-06)
(7.4487e-05 -3.8776e-08 4.6699e-08)
(7.265e-05 1.5765e-06 -2.676e-06)
(7.0449e-05 2.7878e-06 -4.7177e-06)
(6.7949e-05 3.5428e-06 -5.9895e-06)
(6.5195e-05 3.8236e-06 -6.4613e-06)
(6.2214e-05 3.6629e-06 -6.188e-06)
(5.9022e-05 3.1464e-06 -5.314e-06)
(5.5636e-05 2.4048e-06 -4.0599e-06)
(5.2081e-05 1.5931e-06 -2.6876e-06)
(4.8396e-05 8.5973e-07 -1.4482e-06)
(4.4634e-05 3.1575e-07 -5.2938e-07)
(4.085e-05 1.496e-08 -2.1862e-08)
(3.7088e-05 -5.1033e-08 8.8647e-08)
(3.3369e-05 5.2959e-08 -8.8008e-08)
(2.9686e-05 2.1029e-07 -3.5383e-07)
(2.5991e-05 2.7e-07 -4.5407e-07)
(2.2138e-05 1.2638e-07 -2.1268e-07)
(1.7828e-05 -1.6145e-07 2.6945e-07)
(1.2714e-05 -3.6936e-07 6.1738e-07)
(6.6716e-06 -3.0445e-07 5.0895e-07)
(0 0 0)
(0 0 0)
(2.7616e-06 -1.0096e-06 3.1312e-06)
(5.4584e-06 -2.0944e-06 6.4959e-06)
(8.091e-06 -3.271e-06 1.0147e-05)
(1.0749e-05 -4.4989e-06 1.3959e-05)
(1.3562e-05 -5.7258e-06 1.7769e-05)
(1.6626e-05 -6.9286e-06 2.1506e-05)
(1.9978e-05 -8.1133e-06 2.5189e-05)
(2.3606e-05 -9.2889e-06 2.8845e-05)
(2.7475e-05 -1.0447e-05 3.2448e-05)
(3.1537e-05 -1.156e-05 3.5913e-05)
(3.5746e-05 -1.2589e-05 3.9117e-05)
(4.0057e-05 -1.3493e-05 4.1935e-05)
(4.4423e-05 -1.4235e-05 4.4247e-05)
(4.8785e-05 -1.4779e-05 4.5945e-05)
(5.3067e-05 -1.5095e-05 4.6933e-05)
(5.7185e-05 -1.5155e-05 4.7123e-05)
(6.1052e-05 -1.4931e-05 4.6429e-05)
(6.4599e-05 -1.4396e-05 4.4767e-05)
(6.7779e-05 -1.3542e-05 4.2107e-05)
(7.0555e-05 -1.2387e-05 3.8509e-05)
(7.2897e-05 -1.0979e-05 3.4125e-05)
(7.4767e-05 -9.386e-06 2.9167e-05)
(7.6127e-05 -7.6872e-06 2.3879e-05)
(7.694e-05 -5.9613e-06 1.8506e-05)
(7.718e-05 -4.28e-06 1.3274e-05)
(7.6841e-05 -2.7006e-06 8.3608e-06)
(7.5944e-05 -1.266e-06 3.8992e-06)
(7.4537e-05 -1.1866e-08 -1.7722e-09)
(7.2692e-05 1.0245e-06 -3.226e-06)
(7.0484e-05 1.8019e-06 -5.6444e-06)
(6.7979e-05 2.2862e-06 -7.1487e-06)
(6.5222e-05 2.4649e-06 -7.7009e-06)
(6.2239e-05 2.3584e-06 -7.3651e-06)
(5.9045e-05 2.0222e-06 -6.3133e-06)
(5.5656e-05 1.5413e-06 -4.8091e-06)
(5.2097e-05 1.0161e-06 -3.1664e-06)
(4.8406e-05 5.4252e-07 -1.6859e-06)
(4.4637e-05 1.9235e-07 -5.9215e-07)
(4.0849e-05 2.0096e-10 7.2194e-09)
(3.7084e-05 -3.921e-08 1.2947e-07)
(3.3366e-05 3.2488e-08 -9.4683e-08)
(2.969e-05 1.3928e-07 -4.2748e-07)
(2.6014e-05 1.8116e-07 -5.5767e-07)
(2.219e-05 8.6943e-08 -2.6549e-07)
(1.7912e-05 -1.0474e-07 3.279e-07)
(1.2808e-05 -2.4425e-07 7.59e-07)
(6.734e-06 -2.0208e-07 6.2715e-07)
(0 0 0)
(0 0 0)
(2.7711e-06 -4.4197e-07 3.5247e-06)
(5.4671e-06 -9.1917e-07 7.3332e-06)
(8.0851e-06 -1.439e-06 1.1486e-05)
(1.0722e-05 -1.9819e-06 1.5827e-05)
(1.3518e-05 -2.5233e-06 2.0156e-05)
(1.6575e-05 -3.0526e-06 2.4392e-05)
(1.9928e-05 -3.5735e-06 2.8566e-05)
(2.3563e-05 -4.091e-06 3.2715e-05)
(2.744e-05 -4.6017e-06 3.6812e-05)
(3.1511e-05 -5.0931e-06 4.0756e-05)
(3.5729e-05 -5.5476e-06 4.4406e-05)
(4.005e-05 -5.947e-06 4.7617e-05)
(4.4427e-05 -6.2748e-06 5.0254e-05)
(4.8803e-05 -6.5156e-06 5.2193e-05)
(5.3101e-05 -6.6561e-06 5.3325e-05)
(5.7233e-05 -6.6841e-06 5.3554e-05)
(6.1113e-05 -6.5868e-06 5.2778e-05)
(6.4669e-05 -6.3525e-06 5.0898e-05)
(6.7855e-05 -5.9762e-06 4.7875e-05)
(7.0637e-05 -5.4661e-06 4.3776e-05)
(7.2985e-05 -4.8435e-06 3.8777e-05)
(7.4862e-05 -4.1389e-06 3.3124e-05)
(7.6228e-05 -3.3873e-06 2.7095e-05)
(7.7045e-05 -2.624e-06 2.0972e-05)
(7.7285e-05 -1.8808e-06 1.5014e-05)
(7.6942e-05 -1.183e-06 9.4229e-06)
(7.6036e-05 -5.4893e-07 4.3467e-06)
(7.4617e-05 5.7674e-09 -9.4131e-08)
(7.2758e-05 4.6451e-07 -3.7687e-06)
(7.0539e-05 8.089e-07 -6.5261e-06)
(6.8026e-05 1.0232e-06 -8.2374e-06)
(6.5265e-05 1.1011e-06 -8.8556e-06)
(6.2279e-05 1.0511e-06 -8.4525e-06)
(5.9082e-05 8.9834e-07 -7.2256e-06)
(5.5689e-05 6.8116e-07 -5.4791e-06)
(5.2121e-05 4.4493e-07 -3.5769e-06)
(4.8421e-05 2.3276e-07 -1.8682e-06)
(4.4643e-05 7.6728e-08 -6.1235e-07)
(4.0846e-05 -7.7033e-09 6.7118e-08)
(3.7078e-05 -2.2824e-08 1.9127e-07)
(3.3362e-05 1.2874e-08 -9.0251e-08)
(2.9697e-05 6.4823e-08 -5.0296e-07)
(2.6048e-05 8.6304e-08 -6.7486e-07)
(2.2275e-05 4.3127e-08 -3.2949e-07)
(1.8052e-05 -4.7137e-08 3.9489e-07)
(1.2965e-05 -1.1366e-07 9.2718e-07)
(6.8396e-06 -9.4567e-08 7.6835e-07)
(0 0 0)
(0 0 0)
(2.7857e-06 -5.13e-10 3.8903e-06)
(5.4808e-06 -1.0288e-09 8.1265e-06)
(8.0775e-06 -1.5422e-09 1.2777e-05)
(1.0684e-05 -2.0493e-09 1.7644e-05)
(1.3455e-05 -2.5473e-09 2.2482e-05)
(1.6502e-05 -3.028e-09 2.72e-05)
(1.9857e-05 -3.4899e-09 3.1847e-05)
(2.3501e-05 -3.9395e-09 3.6476e-05)
(2.7391e-05 -4.3872e-09 4.1058e-05)
(3.1474e-05 -4.8286e-09 4.5475e-05)
(3.5704e-05 -5.2355e-09 4.9566e-05)
(4.0038e-05 -5.5918e-09 5.3167e-05)
(4.4432e-05 -5.8918e-09 5.6127e-05)
(4.8828e-05 -6.1269e-09 5.8306e-05)
(5.3149e-05 -6.2915e-09 5.9585e-05)
(5.7303e-05 -6.3707e-09 5.9857e-05)
(6.12e-05 -6.3363e-09 5.9008e-05)
(6.477e-05 -6.164e-09 5.6921e-05)
(6.7965e-05 -5.8489e-09 5.3541e-05)
(7.0755e-05 -5.3918e-09 4.8946e-05)
(7.3111e-05 -4.8135e-09 4.3337e-05)
(7.4998e-05 -4.1552e-09 3.6992e-05)
(7.6373e-05 -3.447e-09 3.0226e-05)
(7.7196e-05 -2.718e-09 2.336e-05)
(7.7437e-05 -2.0021e-09 1.6683e-05)
(7.7088e-05 -1.3288e-09 1.0424e-05)
(7.6169e-05 -7.1657e-10 4.7422e-06)
(7.4732e-05 -1.8003e-10 -2.3206e-07)
(7.2854e-05 2.5562e-10 -4.3542e-06)
(7.0618e-05 5.6195e-10 -7.4495e-06)
(6.8093e-05 7.3016e-10 -9.365e-06)
(6.5325e-05 7.6509e-10 -1.0043e-05)
(6.2335e-05 6.7003e-10 -9.5618e-06)
(5.9134e-05 4.6555e-10 -8.1455e-06)
(5.5734e-05 1.905e-10 -6.1405e-06)
(5.2156e-05 -1.1117e-10 -3.9641e-06)
(4.8442e-05 -3.9934e-10 -2.0169e-06)
(4.465e-05 -6.4571e-10 -5.9566e-07)
(4.0842e-05 -8.2529e-10 1.604e-07)
(3.7069e-05 -9.2318e-10 2.7698e-07)
(3.3355e-05 -9.498e-10 -7.7288e-08)
(2.9705e-05 -9.265e-10 -5.902e-07)
(2.6095e-05 -8.7507e-10 -8.1891e-07)
(2.2396e-05 -8.1025e-10 -4.1298e-07)
(1.8256e-05 -7.1753e-10 4.7333e-07)
(1.3196e-05 -5.5865e-10 1.1337e-06)
(6.9954e-06 -3.1149e-10 9.4302e-07)
(0 0 0)
(0 0 0)
(2.7711e-06 -3.5247e-06 -4.4062e-07)
(5.467e-06 -7.3334e-06 -9.1644e-07)
(8.085e-06 -1.1487e-05 -1.4349e-06)
(1.0722e-05 -1.5827e-05 -1.9763e-06)
(1.3518e-05 -2.0157e-05 -2.5162e-06)
(1.6575e-05 -2.4393e-05 -3.0441e-06)
(1.9928e-05 -2.8566e-05 -3.5636e-06)
(2.3563e-05 -3.2715e-05 -4.0797e-06)
(2.744e-05 -3.6813e-05 -4.5891e-06)
(3.1511e-05 -4.0757e-05 -5.0792e-06)
(3.5729e-05 -4.4406e-05 -5.5324e-06)
(4.0049e-05 -4.7618e-05 -5.9308e-06)
(4.4427e-05 -5.0256e-05 -6.2577e-06)
(4.8803e-05 -5.2195e-05 -6.4977e-06)
(5.3101e-05 -5.3327e-05 -6.6377e-06)
(5.7233e-05 -5.3555e-05 -6.6655e-06)
(6.1113e-05 -5.2779e-05 -6.5684e-06)
(6.4669e-05 -5.09e-05 -6.3346e-06)
(6.7855e-05 -4.7876e-05 -5.9592e-06)
(7.0637e-05 -4.3777e-05 -5.4504e-06)
(7.2985e-05 -3.8778e-05 -4.8294e-06)
(7.4862e-05 -3.3125e-05 -4.1266e-06)
(7.6228e-05 -2.7095e-05 -3.377e-06)
(7.7045e-05 -2.0973e-05 -2.6158e-06)
(7.7286e-05 -1.5014e-05 -1.8747e-06)
(7.6943e-05 -9.4228e-06 -1.1788e-06)
(7.6037e-05 -4.3467e-06 -5.4655e-07)
(7.4618e-05 9.4119e-08 6.529e-09)
(7.2759e-05 3.7687e-06 4.6392e-07)
(7.0539e-05 6.5261e-06 8.073e-07)
(6.8026e-05 8.2374e-06 1.0209e-06)
(6.5265e-05 8.8555e-06 1.0986e-06)
(6.2279e-05 8.4524e-06 1.0487e-06)
(5.9083e-05 7.2254e-06 8.963e-07)
(5.5689e-05 5.4787e-06 6.7967e-07)
(5.2122e-05 3.5763e-06 4.4408e-07)
(4.8421e-05 1.8674e-06 2.3252e-07)
(4.4643e-05 6.1142e-07 7.7e-08)
(4.0846e-05 -6.811e-08 -7.0718e-09)
(3.7078e-05 -1.9223e-07 -2.2e-08)
(3.3362e-05 8.9393e-08 1.3759e-08)
(2.9697e-05 5.0229e-07 6.5708e-08)
(2.6047e-05 6.7441e-07 8.7192e-08)
(2.2275e-05 3.2925e-07 4.4051e-08)
(1.8052e-05 -3.9499e-07 -4.6197e-08)
(1.2965e-05 -9.2722e-07 -1.1284e-07)
(6.8396e-06 -7.6836e-07 -9.4077e-08)
(0 0 0)
(0 0 0)
(2.7517e-06 -2.9545e-06 1.4043e-09)
(5.4499e-06 -6.112e-06 2.8733e-09)
(8.0985e-06 -9.5207e-06 4.4171e-09)
(1.078e-05 -1.3077e-05 6.0074e-09)
(1.3611e-05 -1.6641e-05 7.6121e-09)
(1.6683e-05 -2.0147e-05 9.2047e-09)
(2.0034e-05 -2.3603e-05 1.0773e-08)
(2.3657e-05 -2.703e-05 1.2323e-08)
(2.7516e-05 -3.0402e-05 1.3853e-08)
(3.1568e-05 -3.3641e-05 1.5328e-08)
(3.5767e-05 -3.6635e-05 1.6703e-08)
(4.0067e-05 -3.9267e-05 1.7926e-08)
(4.4419e-05 -4.1427e-05 1.8948e-08)
(4.8765e-05 -4.3011e-05 1.9726e-08)
(5.303e-05 -4.3928e-05 2.0219e-08)
(5.713e-05 -4.4096e-05 2.037e-08)
(6.0982e-05 -4.3435e-05 2.0128e-08)
(6.4518e-05 -4.1871e-05 1.9485e-08)
(6.769e-05 -3.9379e-05 1.8447e-08)
(7.0459e-05 -3.6017e-05 1.7025e-08)
(7.2792e-05 -3.1925e-05 1.5257e-08)
(7.4655e-05 -2.7299e-05 1.3223e-08)
(7.6007e-05 -2.2365e-05 1.1026e-08)
(7.6816e-05 -1.7352e-05 8.7675e-09)
(7.7055e-05 -1.2467e-05 6.5341e-09)
(7.6721e-05 -7.878e-06 4.3959e-09)
(7.5834e-05 -3.711e-06 2.4178e-09)
(7.4441e-05 -7.0548e-08 6.6481e-10)
(7.2611e-05 2.9347e-06 -7.9978e-10)
(7.0417e-05 5.1877e-06 -1.9156e-09)
(6.7923e-05 6.5922e-06 -2.6412e-09)
(6.5173e-05 7.1163e-06 -2.9716e-09)
(6.2195e-05 6.8206e-06 -2.9406e-09)
(5.9006e-05 5.8642e-06 -2.6176e-09)
(5.5622e-05 4.4893e-06 -2.1014e-09)
(5.2071e-05 2.9829e-06 -1.5076e-09)
(4.839e-05 1.6202e-06 -9.4565e-10)
(4.4632e-05 6.0703e-07 -4.9804e-10)
(4.0852e-05 4.3253e-08 -2.0895e-10)
(3.7091e-05 -8.6296e-08 -7.7613e-11)
(3.337e-05 9.7427e-08 -5.7132e-11)
(2.968e-05 3.7725e-07 -6.8128e-11)
(2.5971e-05 4.7895e-07 -2.6281e-11)
(2.2092e-05 2.1876e-07 1.0924e-10)
(1.7755e-05 -2.9222e-07 2.8238e-10)
(1.2634e-05 -6.5797e-07 3.6309e-10)
(6.6179e-06 -5.4063e-07 2.5762e-10)
(0 0 0)
(0 0 0)
(2.7445e-06 -2.5343e-06 5.083e-07)
(5.4443e-06 -5.2308e-06 1.0492e-06)
(8.106e-06 -8.13e-06 1.6309e-06)
(1.0806e-05 -1.1152e-05 2.237e-06)
(1.3653e-05 -1.4186e-05 2.8453e-06)
(1.6732e-05 -1.7176e-05 3.4445e-06)
(2.0083e-05 -2.0124e-05 4.0354e-06)
(2.37e-05 -2.3045e-05 4.6205e-06)
(2.7551e-05 -2.5914e-05 5.1953e-06)
(3.1595e-05 -2.8666e-05 5.7466e-06)
(3.5784e-05 -3.1209e-05 6.2558e-06)
(4.0075e-05 -3.3444e-05 6.7032e-06)
(4.4416e-05 -3.5277e-05 7.0697e-06)
(4.8748e-05 -3.6619e-05 7.3381e-06)
(5.2997e-05 -3.7393e-05 7.4928e-06)
(5.7082e-05 -3.7529e-05 7.5197e-06)
(6.0922e-05 -3.6958e-05 7.405e-06)
(6.4449e-05 -3.5622e-05 7.1372e-06)
(6.7613e-05 -3.3501e-05 6.7125e-06)
(7.0376e-05 -3.0645e-05 6.1407e-06)
(7.2703e-05 -2.7173e-05 5.4453e-06)
(7.4559e-05 -2.3248e-05 4.6594e-06)
(7.5906e-05 -1.9061e-05 3.8211e-06)
(7.671e-05 -1.4804e-05 2.9689e-06)
(7.6949e-05 -1.0655e-05 2.1381e-06)
(7.6619e-05 -6.7541e-06 1.357e-06)
(7.5741e-05 -3.2117e-06 6.4768e-07)
(7.4361e-05 -1.1839e-07 2.8324e-08)
(7.2543e-05 2.4331e-06 -4.8246e-07)
(7.0361e-05 4.3453e-06 -8.6531e-07)
(6.7874e-05 5.5399e-06 -1.1047e-06)
(6.513e-05 5.9921e-06 -1.1956e-06)
(6.2156e-05 5.7541e-06 -1.1485e-06)
(5.897e-05 4.9601e-06 -9.9034e-07)
(5.5592e-05 3.8132e-06 -7.6172e-07)
(5.2048e-05 2.5531e-06 -5.1052e-07)
(4.8376e-05 1.4097e-06 -2.8248e-07)
(4.4627e-05 5.5512e-07 -1.12e-07)
(4.0854e-05 7.3763e-08 -1.5924e-08)
(3.7096e-05 -4.668e-08 8.149e-09)
(3.3372e-05 9.1959e-08 -1.9528e-08)
(2.967e-05 3.088e-07 -6.2925e-08)
(2.5933e-05 3.8199e-07 -7.7595e-08)
(2.2008e-05 1.6929e-07 -3.4709e-08)
(1.7625e-05 -2.3666e-07 4.7305e-08)
(1.2492e-05 -5.2379e-07 1.0544e-07)
(6.524e-06 -4.2876e-07 8.6418e-08)
(0 0 0)
(0 0 0)
(2.7405e-06 -2.0642e-06 1.0326e-06)
(5.4415e-06 -4.2554e-06 2.1288e-06)
(8.1111e-06 -6.6057e-06 3.3048e-06)
(1.0822e-05 -9.0542e-06 4.5298e-06)
(1.3678e-05 -1.1515e-05 5.7605e-06)
(1.6762e-05 -1.3942e-05 6.9744e-06)
(2.0113e-05 -1.6337e-05 8.1719e-06)
(2.3726e-05 -1.8707e-05 9.3569e-06)
(2.7573e-05 -2.1033e-05 1.052e-05)
(3.1611e-05 -2.3263e-05 1.1635e-05)
(3.5795e-05 -2.5323e-05 1.2665e-05)
(4.008e-05 -2.7133e-05 1.3569e-05)
(4.4413e-05 -2.8616e-05 1.431e-05)
(4.8737e-05 -2.9701e-05 1.4852e-05)
(5.2977e-05 -3.0326e-05 1.5164e-05)
(5.7052e-05 -3.0432e-05 1.5217e-05)
(6.0884e-05 -2.9965e-05 1.4983e-05)
(6.4406e-05 -2.8878e-05 1.4439e-05)
(6.7566e-05 -2.7158e-05 1.3579e-05)
(7.0324e-05 -2.4845e-05 1.2423e-05)
(7.2648e-05 -2.2034e-05 1.1018e-05)
(7.45e-05 -1.8857e-05 9.43e-06)
(7.5843e-05 -1.5468e-05 7.736e-06)
(7.6645e-05 -1.2022e-05 6.0139e-06)
(7.6884e-05 -8.6615e-06 4.3342e-06)
(7.6557e-05 -5.5018e-06 2.7549e-06)
(7.5684e-05 -2.632e-06 1.3205e-06)
(7.4311e-05 -1.2701e-07 6.8512e-08)
(7.2501e-05 1.9381e-06 -9.6356e-07)
(7.0325e-05 3.4856e-06 -1.737e-06)
(6.7845e-05 4.4536e-06 -2.2209e-06)
(6.5103e-05 4.8233e-06 -2.4061e-06)
(6.2131e-05 4.6374e-06 -2.3138e-06)
(5.8948e-05 4.004e-06 -1.9983e-06)
(5.5573e-05 3.0861e-06 -1.5407e-06)
(5.2033e-05 2.076e-06 -1.0371e-06)
(4.8367e-05 1.1575e-06 -5.7898e-07)
(4.4624e-05 4.6886e-07 -2.3549e-07)
(4.0855e-05 7.8104e-08 -4.0514e-08)
(3.7098e-05 -2.4497e-08 1.0777e-08)
(3.3373e-05 7.9184e-08 -4.0849e-08)
(2.9664e-05 2.4478e-07 -1.2352e-07)
(2.5909e-05 2.9801e-07 -1.5014e-07)
(2.1957e-05 1.2966e-07 -6.5608e-08)
(1.7546e-05 -1.8646e-07 9.339e-08)
(1.2407e-05 -4.0847e-07 2.052e-07)
(6.4684e-06 -3.3357e-07 1.6767e-07)
(0 0 0)
(0 0 0)
(2.7393e-06 -1.5579e-06 1.558e-06)
(5.4407e-06 -3.2104e-06 3.2106e-06)
(8.1129e-06 -4.9817e-06 4.9821e-06)
(1.0828e-05 -6.8266e-06 6.8271e-06)
(1.3687e-05 -8.681e-06 8.6816e-06)
(1.6773e-05 -1.0511e-05 1.0512e-05)
(2.0123e-05 -1.2316e-05 1.2317e-05)
(2.3736e-05 -1.4103e-05 1.4104e-05)
(2.758e-05 -1.5856e-05 1.5857e-05)
(3.1617e-05 -1.7535e-05 1.7537e-05)
(3.5799e-05 -1.9087e-05 1.9088e-05)
(4.0081e-05 -2.045e-05 2.0451e-05)
(4.4413e-05 -2.1566e-05 2.1568e-05)
(4.8733e-05 -2.2383e-05 2.2385e-05)
(5.297e-05 -2.2852e-05 2.2854e-05)
(5.7042e-05 -2.2931e-05 2.2933e-05)
(6.0872e-05 -2.2578e-05 2.258e-05)
(6.4391e-05 -2.1758e-05 2.176e-05)
(6.7549e-05 -2.0462e-05 2.0464e-05)
(7.0307e-05 -1.872e-05 1.8722e-05)
(7.2629e-05 -1.6603e-05 1.6605e-05)
(7.448e-05 -1.4211e-05 1.4212e-05)
(7.5822e-05 -1.1659e-05 1.166e-05)
(7.6623e-05 -9.0643e-06 9.0655e-06)
(7.6862e-05 -6.5335e-06 6.5345e-06)
(7.6536e-05 -4.1538e-06 4.1545e-06)
(7.5665e-05 -1.9925e-06 1.993e-06)
(7.4294e-05 -1.0611e-07 1.0637e-07)
(7.2487e-05 1.4487e-06 -1.4487e-06)
(7.0314e-05 2.6137e-06 -2.6138e-06)
(6.7834e-05 3.3428e-06 -3.3431e-06)
(6.5094e-05 3.6222e-06 -3.6226e-06)
(6.2123e-05 3.4843e-06 -3.4848e-06)
(5.8941e-05 3.0102e-06 -3.0108e-06)
(5.5567e-05 2.3224e-06 -2.3231e-06)
(5.2028e-05 1.5649e-06 -1.5656e-06)
(4.8364e-05 8.7552e-07 -8.7635e-07)
(4.4623e-05 3.5815e-07 -3.5904e-07)
(4.0855e-05 6.3796e-08 -6.4704e-08)
(3.7099e-05 -1.477e-08 1.3877e-08)
(3.3373e-05 6.103e-08 -6.1868e-08)
(2.9661e-05 1.8322e-07 -1.8396e-07)
(2.5901e-05 2.219e-07 -2.2251e-07)
(2.1939e-05 9.5946e-08 -9.6399e-08)
(1.752e-05 -1.3956e-07 1.3926e-07)
(1.2379e-05 -3.0463e-07 3.0446e-07)
(6.45e-06 -2.4857e-07 2.4849e-07)
(0 0 0)
(0 0 0)
(2.7405e-06 -1.0324e-06 2.0643e-06)
(5.4415e-06 -2.1285e-06 4.2555e-06)
(8.1111e-06 -3.3043e-06 6.606e-06)
(1.0822e-05 -4.5291e-06 9.0545e-06)
(1.3678e-05 -5.7597e-06 1.1515e-05)
(1.6763e-05 -6.9734e-06 1.3943e-05)
(2.0113e-05 -8.1707e-06 1.6337e-05)
(2.3727e-05 -9.3555e-06 1.8708e-05)
(2.7573e-05 -1.0519e-05 2.1034e-05)
(3.1611e-05 -1.1633e-05 2.3264e-05)
(3.5795e-05 -1.2663e-05 2.5324e-05)
(4.008e-05 -1.3567e-05 2.7134e-05)
(4.4413e-05 -1.4308e-05 2.8617e-05)
(4.8737e-05 -1.485e-05 2.9703e-05)
(5.2977e-05 -1.5161e-05 3.0327e-05)
(5.7052e-05 -1.5214e-05 3.0433e-05)
(6.0884e-05 -1.498e-05 2.9966e-05)
(6.4406e-05 -1.4437e-05 2.888e-05)
(6.7565e-05 -1.3577e-05 2.716e-05)
(7.0324e-05 -1.2421e-05 2.4847e-05)
(7.2648e-05 -1.1016e-05 2.2035e-05)
(7.4499e-05 -9.428e-06 1.8858e-05)
(7.5843e-05 -7.7343e-06 1.5469e-05)
(7.6645e-05 -6.0124e-06 1.2023e-05)
(7.6884e-05 -4.333e-06 8.6623e-06)
(7.6557e-05 -2.754e-06 5.5024e-06)
(7.5684e-05 -1.3199e-06 2.6324e-06)
(7.4311e-05 -6.8211e-08 1.2723e-07)
(7.2501e-05 9.6361e-07 -1.9381e-06)
(7.0325e-05 1.7368e-06 -3.4857e-06)
(6.7844e-05 2.2206e-06 -4.4538e-06)
(6.5103e-05 2.4056e-06 -4.8236e-06)
(6.2131e-05 2.3132e-06 -4.6377e-06)
(5.8948e-05 1.9976e-06 -4.0045e-06)
(5.5573e-05 1.54e-06 -3.0867e-06)
(5.2033e-05 1.0362e-06 -2.0767e-06)
(4.8367e-05 5.7812e-07 -1.1583e-06)
(4.4624e-05 2.346e-07 -4.6975e-07)
(4.0855e-05 3.9613e-08 -7.9026e-08)
(3.7098e-05 -1.1664e-08 2.3587e-08)
(3.3373e-05 4.0009e-08 -8.0032e-08)
(2.9664e-05 1.2277e-07 -2.4552e-07)
(2.5909e-05 1.495e-07 -2.9859e-07)
(2.1957e-05 6.5118e-08 -1.3008e-07)
(1.7546e-05 -9.3729e-08 1.8619e-07)
(1.2407e-05 -2.054e-07 4.0832e-07)
(6.4684e-06 -1.6776e-07 3.3351e-07)
(0 0 0)
(0 0 0)
(2.7445e-06 -5.0817e-07 2.5343e-06)
(5.4443e-06 -1.0489e-06 5.2309e-06)
(8.1061e-06 -1.6304e-06 8.1301e-06)
(1.0806e-05 -2.2363e-06 1.1152e-05)
(1.3653e-05 -2.8444e-06 1.4186e-05)
(1.6733e-05 -3.4434e-06 1.7176e-05)
(2.0083e-05 -4.0341e-06 2.0125e-05)
(2.37e-05 -4.619e-06 2.3045e-05)
(2.7551e-05 -5.1936e-06 2.5914e-05)
(3.1595e-05 -5.7446e-06 2.8667e-05)
(3.5784e-05 -6.2536e-06 3.121e-05)
(4.0075e-05 -6.7008e-06 3.3445e-05)
(4.4416e-05 -7.0672e-06 3.5277e-05)
(4.8748e-05 -7.3355e-06 3.6619e-05)
(5.2997e-05 -7.4901e-06 3.7393e-05)
(5.7082e-05 -7.5169e-06 3.7529e-05)
(6.0921e-05 -7.4023e-06 3.6958e-05)
(6.4449e-05 -7.1344e-06 3.5622e-05)
(6.7613e-05 -6.7098e-06 3.3501e-05)
(7.0375e-05 -6.1382e-06 3.0646e-05)
(7.2703e-05 -5.4429e-06 2.7173e-05)
(7.4559e-05 -4.6572e-06 2.3248e-05)
(7.5906e-05 -3.8192e-06 1.9061e-05)
(7.671e-05 -2.9673e-06 1.4805e-05)
(7.6949e-05 -2.1368e-06 1.0655e-05)
(7.6619e-05 -1.3561e-06 6.7545e-06)
(7.5741e-05 -6.4705e-07 3.2119e-06)
(7.436e-05 -2.7999e-08 1.1854e-07)
(7.2543e-05 4.8251e-07 -2.433e-06)
(7.036e-05 8.6512e-07 -4.3453e-06)
(6.7874e-05 1.1043e-06 -5.54e-06)
(6.513e-05 1.1951e-06 -5.9922e-06)
(6.2155e-05 1.1479e-06 -5.7543e-06)
(5.897e-05 9.8962e-07 -4.9605e-06)
(5.5592e-05 7.6093e-07 -3.8137e-06)
(5.2048e-05 5.0968e-07 -2.5538e-06)
(4.8376e-05 2.8161e-07 -1.4104e-06)
(4.4627e-05 1.1111e-07 -5.56e-07)
(4.0854e-05 1.5021e-08 -7.4698e-08)
(3.7096e-05 -9.0413e-09 4.575e-08)
(3.3372e-05 1.8674e-08 -9.2821e-08)
(2.9671e-05 6.2145e-08 -3.0953e-07)
(2.5933e-05 7.6927e-08 -3.8255e-07)
(2.2008e-05 3.4183e-08 -1.6968e-07)
(1.7625e-05 -4.7677e-08 2.3644e-07)
(1.2492e-05 -1.0566e-07 5.2368e-07)
(6.524e-06 -8.6523e-08 4.2872e-07)
(0 0 0)
(0 0 0)
(2.7517e-06 -1.2856e-09 2.9545e-06)
(5.45e-06 -2.6183e-09 6.1119e-06)
(8.0986e-06 -4.002e-09 9.5207e-06)
(1.078e-05 -5.4161e-09 1.3077e-05)
(1.3611e-05 -6.8358e-09 1.6641e-05)
(1.6683e-05 -8.2349e-09 2.0147e-05)
(2.0035e-05 -9.602e-09 2.3603e-05)
(2.3657e-05 -1.0944e-08 2.703e-05)
(2.7516e-05 -1.2265e-08 3.0402e-05)
(3.1568e-05 -1.354e-08 3.3641e-05)
(3.5767e-05 -1.4719e-08 3.6634e-05)
(4.0067e-05 -1.5757e-08 3.9267e-05)
(4.442e-05 -1.6613e-08 4.1427e-05)
(4.8765e-05 -1.7257e-08 4.301e-05)
(5.303e-05 -1.7654e-08 4.3927e-05)
(5.7129e-05 -1.7755e-08 4.4096e-05)
(6.0982e-05 -1.7515e-08 4.3434e-05)
(6.4518e-05 -1.6913e-08 4.187e-05)
(6.769e-05 -1.595e-08 3.9379e-05)
(7.0458e-05 -1.4639e-08 3.6017e-05)
(7.2792e-05 -1.3025e-08 3.1925e-05)
(7.4654e-05 -1.1193e-08 2.7299e-05)
(7.6007e-05 -9.2374e-09 2.2365e-05)
(7.6815e-05 -7.2455e-09 1.7352e-05)
(7.7055e-05 -5.2979e-09 1.2467e-05)
(7.672e-05 -3.4609e-09 7.8782e-06)
(7.5833e-05 -1.788e-09 3.7111e-06)
(7.4441e-05 -3.2686e-10 7.0644e-08)
(7.2611e-05 8.7371e-10 -2.9347e-06)
(7.0417e-05 1.7629e-09 -5.1877e-06)
(6.7922e-05 2.3029e-09 -6.5922e-06)
(6.5172e-05 2.4854e-09 -7.1163e-06)
(6.2194e-05 2.3367e-09 -6.8207e-06)
(5.9005e-05 1.9201e-09 -5.8645e-06)
(5.5622e-05 1.3316e-09 -4.4897e-06)
(5.2071e-05 6.8443e-10 -2.9835e-06)
(4.839e-05 8.4483e-11 -1.621e-06)
(4.4632e-05 -3.8895e-10 -6.079e-07)
(4.0852e-05 -6.9174e-10 -4.419e-08)
(3.7091e-05 -8.1963e-10 8.5356e-08)
(3.337e-05 -8.1012e-10 -9.8297e-08)
(2.9681e-05 -7.3275e-10 -3.7798e-07)
(2.5971e-05 -6.6792e-10 -4.795e-07)
(2.2092e-05 -6.6348e-10 -2.1911e-07)
(1.7755e-05 -6.8095e-10 2.9203e-07)
(1.2634e-05 -6.1109e-10 6.5789e-07)
(6.6179e-06 -3.7354e-10 5.4061e-07)
(0 0 0)
(0 0 0)
(2.7711e-06 4.4066e-07 3.5247e-06)
(5.4671e-06 9.1653e-07 7.3333e-06)
(8.0851e-06 1.4351e-06 1.1487e-05)
(1.0722e-05 1.9766e-06 1.5827e-05)
(1.3518e-05 2.5166e-06 2.0156e-05)
(1.6575e-05 3.0446e-06 2.4393e-05)
(1.9928e-05 3.5643e-06 2.8566e-05)
(2.3563e-05 4.0805e-06 3.2715e-05)
(2.744e-05 4.59e-06 3.6812e-05)