/*--------------------------------*- C++ -*----------------------------------*\
| =========                 |                                                 |
| \\      /  F ield         | foam-extend: Open Source CFD                    |
|  \\    /   O peration     | Version:     4.1-20200408                       |
|   \\  /    A nd           | Web:         http://www.foam-extend.org         |
|    \\/     M anipulation  |                                                 |
\*---------------------------------------------------------------------------*/
FoamFile
{
    version     2.0;
    format      ascii;
    class       volScalarField;
    location    "0.0160000";
    object      ccx;
}
// * * * * * * * * * * * * * * * * * * * * * * * * * * * * * * * * * * * * * //

dimensions      [0 1 0 0 0 0 0];

internalField   nonuniform List<scalar> 
1952
(
0.00297228
0.00297227
0.00297227
0.00297226
0.00297225
0.00297223
0.00297222
0.0029722
0.00297218
0.00297216
0.00297214
0.00297212
0.00297209
0.00297207
0.00297204
0.00297228
0.00291953
0.00291953
0.00291951
0.0029195
0.00291947
0.00291945
0.00291942
0.00291938
0.00291935
0.00291931
0.00291926
0.00291922
0.00291917
0.00291911
0.00291906
0.00291954
0.0028695
0.00286949
0.00286948
0.00286946
0.00286944
0.00286941
0.00286939
0.00286935
0.00286931
0.00286927
0.00286923
0.00286918
0.00286913
0.00286909
0.00286904
0.0028695
0.00281946
0.00281945
0.00281944
0.00281942
0.0028194
0.00281938
0.00281935
0.00281931
0.00281927
0.00281923
0.00281919
0.00281915
0.0028191
0.00281906
0.00281902
0.00281947
0.00276943
0.00276942
0.00276941
0.00276939
0.00276937
0.00276934
0.00276931
0.00276928
0.00276924
0.0027692
0.00276916
0.00276911
0.00276907
0.00276903
0.00276899
0.00276943
0.00271939
0.00271938
0.00271937
0.00271935
0.00271933
0.0027193
0.00271927
0.00271924
0.0027192
0.00271916
0.00271912
0.00271908
0.00271904
0.00271901
0.00271897
0.0027194
0.00266935
0.00266934
0.00266933
0.00266931
0.00266929
0.00266927
0.00266924
0.00266921
0.00266917
0.00266913
0.00266909
0.00266905
0.00266902
0.00266898
0.00266895
0.00266936
0.00261932
0.00261931
0.0026193
0.00261928
0.00261926
0.00261924
0.00261921
0.00261918
0.00261914
0.0026191
0.00261906
0.00261903
0.00261899
0.00261896
0.00261892
0.00261933
0.00256929
0.00256928
0.00256926
0.00256925
0.00256923
0.0025692
0.00256918
0.00256914
0.00256911
0.00256907
0.00256904
0.002569
0.00256897
0.00256893
0.0025689
0.00256929
0.00251925
0.00251924
0.00251923
0.00251921
0.00251919
0.00251917
0.00251915
0.00251911
0.00251908
0.00251904
0.00251901
0.00251898
0.00251894
0.00251891
0.00251888
0.00251926
0.00246922
0.00246921
0.0024692
0.00246918
0.00246916
0.00246914
0.00246912
0.00246909
0.00246905
0.00246902
0.00246898
0.00246895
0.00246892
0.00246888
0.00246886
0.00246922
0.00241919
0.00241918
0.00241917
0.00241916
0.00241914
0.00241911
0.00241909
0.00241906
0.00241903
0.00241899
0.00241896
0.00241892
0.00241889
0.00241886
0.00241883
0.00241919
0.00236917
0.00236916
0.00236915
0.00236913
0.00236911
0.00236909
0.00236906
0.00236903
0.002369
0.00236897
0.00236893
0.0023689
0.00236887
0.00236884
0.00236881
0.00236917
0.00231914
0.00231913
0.00231912
0.00231911
0.00231909
0.00231907
0.00231904
0.00231901
0.00231898
0.00231894
0.00231891
0.00231888
0.00231885
0.00231882
0.00231879
0.00231914
0.00226912
0.00226911
0.0022691
0.00226908
0.00226906
0.00226904
0.00226901
0.00226898
0.00226895
0.00226892
0.00226889
0.00226886
0.00226883
0.0022688
0.00226877
0.00226912
0.00221909
0.00221908
0.00221907
0.00221906
0.00221904
0.00221902
0.00221899
0.00221896
0.00221893
0.0022189
0.00221887
0.00221884
0.00221881
0.00221878
0.00221876
0.0022191
0.00216907
0.00216906
0.00216905
0.00216904
0.00216902
0.002169
0.00216897
0.00216894
0.00216891
0.00216888
0.00216885
0.00216882
0.00216879
0.00216876
0.00216874
0.00216908
0.00211906
0.00211905
0.00211904
0.00211902
0.002119
0.00211898
0.00211896
0.00211893
0.0021189
0.00211887
0.00211883
0.0021188
0.00211877
0.00211875
0.00211872
0.00211906
0.00206904
0.00206903
0.00206902
0.00206901
0.00206899
0.00206897
0.00206894
0.00206891
0.00206888
0.00206885
0.00206882
0.00206879
0.00206876
0.00206873
0.00206871
0.00206904
0.00201903
0.00201902
0.00201901
0.00201899
0.00201897
0.00201895
0.00201893
0.0020189
0.00201887
0.00201884
0.0020188
0.00201877
0.00201874
0.00201872
0.00201869
0.00201903
0.00196901
0.00196901
0.00196899
0.00196898
0.00196896
0.00196894
0.00196891
0.00196889
0.00196886
0.00196882
0.00196879
0.00196876
0.00196873
0.0019687
0.00196868
0.00196901
0.001919
0.00191899
0.00191898
0.00191897
0.00191895
0.00191893
0.0019189
0.00191887
0.00191884
0.00191881
0.00191878
0.00191875
0.00191872
0.00191869
0.00191866
0.001919
0.00186899
0.00186898
0.00186897
0.00186896
0.00186894
0.00186891
0.00186889
0.00186886
0.00186883
0.0018688
0.00186877
0.00186873
0.0018687
0.00186868
0.00186865
0.00186899
0.00181898
0.00181898
0.00181897
0.00181895
0.00181893
0.00181891
0.00181888
0.00181885
0.00181882
0.00181879
0.00181875
0.00181872
0.00181869
0.00181866
0.00181864
0.00181899
0.00176898
0.00176897
0.00176896
0.00176894
0.00176892
0.0017689
0.00176887
0.00176884
0.00176881
0.00176878
0.00176875
0.00176871
0.00176868
0.00176865
0.00176863
0.00176898
0.00171897
0.00171896
0.00171895
0.00171894
0.00171892
0.0017189
0.00171887
0.00171884
0.00171881
0.00171877
0.00171874
0.0017187
0.00171867
0.00171865
0.00171862
0.00171898
0.00166897
0.00166896
0.00166895
0.00166893
0.00166891
0.00166889
0.00166886
0.00166883
0.0016688
0.00166877
0.00166873
0.0016687
0.00166867
0.00166864
0.00166861
0.00166898
0.00161897
0.00161896
0.00161895
0.00161893
0.00161891
0.00161889
0.00161886
0.00161883
0.0016188
0.00161876
0.00161872
0.00161869
0.00161866
0.00161863
0.0016186
0.00161897
0.00156897
0.00156896
0.00156895
0.00156893
0.00156891
0.00156888
0.00156885
0.00156882
0.00156879
0.00156876
0.00156872
0.00156868
0.00156865
0.00156862
0.0015686
0.00156898
0.00151898
0.00151897
0.00151895
0.00151894
0.00151891
0.00151889
0.00151886
0.00151882
0.00151879
0.00151875
0.00151872
0.00151868
0.00151865
0.00151862
0.00151859
0.00151898
0.00146898
0.00146897
0.00146896
0.00146894
0.00146892
0.00146889
0.00146886
0.00146883
0.00146879
0.00146875
0.00146871
0.00146868
0.00146864
0.00146861
0.00146859
0.00146899
0.00141899
0.00141898
0.00141896
0.00141894
0.00141892
0.00141889
0.00141886
0.00141883
0.00141879
0.00141875
0.00141871
0.00141867
0.00141864
0.00141861
0.00141858
0.00141899
0.001369
0.00136899
0.00136897
0.00136895
0.00136893
0.0013689
0.00136887
0.00136883
0.00136879
0.00136875
0.00136871
0.00136867
0.00136864
0.00136861
0.00136858
0.00136901
0.00131901
0.001319
0.00131899
0.00131897
0.00131894
0.00131891
0.00131888
0.00131884
0.0013188
0.00131876
0.00131871
0.00131867
0.00131863
0.0013186
0.00131858
0.00131902
0.00126903
0.00126902
0.001269
0.00126898
0.00126895
0.00126892
0.00126888
0.00126884
0.0012688
0.00126876
0.00126872
0.00126867
0.00126863
0.0012686
0.00126857
0.00126904
0.00121905
0.00121904
0.00121902
0.001219
0.00121897
0.00121894
0.0012189
0.00121886
0.00121881
0.00121877
0.00121872
0.00121868
0.00121864
0.0012186
0.00121857
0.00121906
0.00116907
0.00116906
0.00116904
0.00116902
0.00116899
0.00116895
0.00116891
0.00116887
0.00116882
0.00116877
0.00116872
0.00116868
0.00116864
0.0011686
0.00116857
0.00116908
0.0011191
0.00111909
0.00111907
0.00111904
0.00111901
0.00111897
0.00111893
0.00111888
0.00111883
0.00111878
0.00111873
0.00111868
0.00111864
0.0011186
0.00111857
0.0011191
0.00106913
0.00106911
0.00106909
0.00106907
0.00106903
0.00106899
0.00106895
0.0010689
0.00106885
0.00106879
0.00106874
0.00106868
0.00106864
0.0010686
0.00106856
0.00106913
0.00101916
0.00101914
0.00101912
0.00101909
0.00101906
0.00101902
0.00101897
0.00101892
0.00101886
0.00101881
0.00101874
0.00101869
0.00101864
0.0010186
0.00101856
0.00101917
0.000969193
0.000969178
0.000969155
0.000969126
0.000969089
0.000969045
0.000968995
0.000968939
0.00096888
0.000968818
0.000968755
0.000968694
0.000968638
0.000968591
0.000968551
0.000969201
0.00091923
0.000919214
0.00091919
0.000919159
0.00091912
0.000919074
0.000919021
0.000918963
0.000918899
0.000918833
0.000918765
0.000918699
0.000918639
0.000918587
0.000918543
0.000919238
0.000869267
0.000869251
0.000869226
0.000869194
0.000869154
0.000869105
0.00086905
0.000868988
0.000868921
0.000868849
0.000868777
0.000868705
0.000868639
0.000868581
0.000868532
0.000869276
0.000819306
0.000819289
0.000819264
0.000819231
0.000819189
0.000819138
0.00081908
0.000819015
0.000818944
0.000818868
0.00081879
0.000818712
0.000818639
0.000818574
0.000818518
0.000819315
0.000769345
0.000769328
0.000769302
0.000769268
0.000769224
0.000769172
0.000769112
0.000769044
0.000768968
0.000768888
0.000768804
0.000768719
0.000768639
0.000768565
0.000768501
0.000769354
0.000719382
0.000719365
0.000719339
0.000719304
0.000719259
0.000719206
0.000719144
0.000719074
0.000718995
0.000718909
0.000718819
0.000718727
0.000718638
0.000718555
0.00071848
0.000719391
0.000669415
0.000669398
0.000669372
0.000669337
0.000669293
0.000669239
0.000669176
0.000669103
0.000669021
0.000668931
0.000668835
0.000668735
0.000668637
0.000668542
0.000668456
0.000669424
0.000619443
0.000619426
0.0006194
0.000619366
0.000619322
0.000619268
0.000619204
0.00061913
0.000619046
0.000618953
0.000618852
0.000618744
0.000618635
0.000618528
0.000618426
0.000619451
0.000569463
0.000569447
0.000569421
0.000569388
0.000569345
0.000569292
0.000569228
0.000569154
0.000569069
0.000568974
0.000568868
0.000568753
0.000568635
0.000568513
0.000568392
0.000569471
0.000519472
0.000519456
0.000519432
0.0005194
0.000519359
0.000519307
0.000519246
0.000519173
0.000519088
0.000518991
0.000518882
0.000518762
0.000518633
0.000518496
0.000518353
0.00051948
0.000469467
0.000469452
0.00046943
0.0004694
0.000469361
0.000469312
0.000469253
0.000469182
0.000469099
0.000469003
0.000468893
0.000468768
0.00046863
0.000468478
0.000468311
0.000469474
0.000419446
0.000419432
0.000419412
0.000419384
0.000419347
0.000419302
0.000419246
0.000419179
0.000419099
0.000419005
0.000418895
0.000418769
0.000418624
0.000418457
0.000418265
0.000419453
0.000369405
0.000369394
0.000369375
0.000369349
0.000369316
0.000369274
0.000369222
0.000369159
0.000369084
0.000368994
0.000368887
0.00036876
0.000368611
0.000368433
0.000368218
0.000369412
0.000319344
0.000319333
0.000319316
0.000319293
0.000319263
0.000319225
0.000319177
0.000319119
0.000319049
0.000318964
0.000318862
0.000318738
0.000318588
0.000318403
0.000318171
0.00031935
0.000269261
0.000269251
0.000269236
0.000269215
0.000269187
0.000269152
0.000269109
0.000269056
0.000268991
0.000268913
0.000268817
0.000268699
0.000268553
0.000268367
0.000268125
0.000269266
0.000219155
0.000219146
0.000219131
0.000219112
0.000219086
0.000219054
0.000219015
0.000218967
0.000218908
0.000218837
0.000218749
0.00021864
0.000218503
0.000218323
0.000218082
0.00021916
0.000169027
0.000169018
0.000169004
0.000168986
0.000168962
0.000168932
0.000168895
0.000168851
0.000168798
0.000168733
0.000168655
0.000168558
0.000168434
0.000168271
0.000168044
0.000169031
0.000118878
0.000118869
0.000118856
0.000118838
0.000118815
0.000118786
0.000118751
0.00011871
0.000118661
0.000118603
0.000118534
0.00011845
0.000118346
0.000118207
0.000118012
0.000118882
6.87118e-05
6.87031e-05
6.86898e-05
6.86719e-05
6.86486e-05
6.86203e-05
6.85862e-05
6.85463e-05
6.85003e-05
6.84477e-05
6.83883e-05
6.83193e-05
6.82366e-05
6.81329e-05
6.79869e-05
6.87162e-05
1.85324e-05
1.85234e-05
1.85098e-05
1.84913e-05
1.84679e-05
1.84392e-05
1.84053e-05
1.83661e-05
1.83221e-05
1.82741e-05
1.82226e-05
1.81675e-05
1.8109e-05
1.80471e-05
1.79682e-05
1.8537e-05
-3.1656e-05
-3.16652e-05
-3.16794e-05
-3.16982e-05
-3.17222e-05
-3.17512e-05
-3.17853e-05
-3.18238e-05
-3.18658e-05
-3.19095e-05
-3.19526e-05
-3.19921e-05
-3.2023e-05
-3.20389e-05
-3.20439e-05
-3.16512e-05
-8.18485e-05
-8.18578e-05
-8.18723e-05
-8.18919e-05
-8.19159e-05
-8.19448e-05
-8.1978e-05
-8.20146e-05
-8.20524e-05
-8.20889e-05
-8.21198e-05
-8.21382e-05
-8.21366e-05
-8.21077e-05
-8.20513e-05
-8.18436e-05
-0.000132039
-0.000132048
-0.000132063
-0.000132082
-0.000132105
-0.000132133
-0.000132163
-0.000132194
-0.000132224
-0.000132248
-0.000132259
-0.000132251
-0.000132218
-0.000132154
-0.000132059
-0.000132034
-0.000182219
-0.000182228
-0.000182242
-0.000182259
-0.000182279
-0.000182303
-0.000182327
-0.000182349
-0.000182365
-0.00018237
-0.000182359
-0.000182327
-0.00018227
-0.000182186
-0.000182069
-0.000182215
-0.00023238
-0.000232388
-0.000232399
-0.000232412
-0.000232427
-0.000232443
-0.000232457
-0.000232466
-0.000232465
-0.000232452
-0.000232422
-0.000232374
-0.000232305
-0.00023221
-0.000232083
-0.000232376
-0.000282511
-0.000282516
-0.000282524
-0.000282532
-0.000282539
-0.000282546
-0.000282548
-0.000282543
-0.000282529
-0.000282503
-0.000282463
-0.000282406
-0.00028233
-0.000282228
-0.000282096
-0.000282508
-0.000332605
-0.000332607
-0.000332611
-0.000332613
-0.000332615
-0.000332612
-0.000332605
-0.000332591
-0.000332569
-0.000332536
-0.000332489
-0.000332427
-0.000332345
-0.00033224
-0.000332108
-0.000332603
-0.000382668
-0.000382668
-0.000382667
-0.000382666
-0.000382662
-0.000382655
-0.000382641
-0.000382622
-0.000382593
-0.000382555
-0.000382503
-0.000382436
-0.000382351
-0.000382246
-0.000382116
-0.000382668
-0.000432708
-0.000432706
-0.000432703
-0.000432699
-0.000432691
-0.000432679
-0.000432661
-0.000432636
-0.000432603
-0.00043256
-0.000432504
-0.000432435
-0.000432349
-0.000432245
-0.000432119
-0.000432709
-0.00048273
-0.000482726
-0.000482721
-0.000482713
-0.000482702
-0.000482686
-0.000482664
-0.000482635
-0.000482599
-0.000482552
-0.000482494
-0.000482424
-0.000482338
-0.000482237
-0.000482116
-0.000482731
-0.000532733
-0.000532728
-0.000532721
-0.000532711
-0.000532697
-0.000532678
-0.000532653
-0.000532621
-0.000532582
-0.000532533
-0.000532474
-0.000532403
-0.000532319
-0.000532221
-0.000532107
-0.000532735
-0.00058272
-0.000582714
-0.000582706
-0.000582693
-0.000582677
-0.000582655
-0.000582628
-0.000582595
-0.000582553
-0.000582503
-0.000582444
-0.000582374
-0.000582292
-0.000582199
-0.000582091
-0.000582722
-0.000632691
-0.000632685
-0.000632675
-0.000632661
-0.000632643
-0.00063262
-0.000632591
-0.000632556
-0.000632514
-0.000632463
-0.000632404
-0.000632336
-0.000632258
-0.000632169
-0.000632069
-0.000632694
-0.000682649
-0.000682642
-0.000682631
-0.000682616
-0.000682597
-0.000682572
-0.000682542
-0.000682507
-0.000682464
-0.000682414
-0.000682357
-0.000682291
-0.000682216
-0.000682132
-0.000682039
-0.000682652
-0.000732594
-0.000732586
-0.000732575
-0.000732559
-0.00073254
-0.000732514
-0.000732484
-0.000732448
-0.000732406
-0.000732357
-0.000732301
-0.000732238
-0.000732167
-0.000732089
-0.000732002
-0.000732598
-0.000782528
-0.000782521
-0.000782509
-0.000782492
-0.000782472
-0.000782447
-0.000782417
-0.000782381
-0.000782339
-0.000782292
-0.000782238
-0.000782178
-0.000782111
-0.000782038
-0.000781958
-0.000782532
-0.000832452
-0.000832445
-0.000832433
-0.000832417
-0.000832396
-0.000832371
-0.000832341
-0.000832306
-0.000832266
-0.00083222
-0.000832169
-0.000832112
-0.000832049
-0.000831981
-0.000831907
-0.000832456
-0.000882368
-0.00088236
-0.000882348
-0.000882332
-0.000882312
-0.000882287
-0.000882258
-0.000882224
-0.000882185
-0.000882141
-0.000882092
-0.000882039
-0.00088198
-0.000881917
-0.000881849
-0.000882372
-0.000932275
-0.000932267
-0.000932255
-0.00093224
-0.00093222
-0.000932196
-0.000932167
-0.000932135
-0.000932098
-0.000932056
-0.00093201
-0.000931959
-0.000931905
-0.000931846
-0.000931784
-0.000932279
-0.000982176
-0.000982167
-0.000982156
-0.000982141
-0.000982121
-0.0009821
-0.000982073
-0.00098204
-0.000982004
-0.000981966
-0.000981921
-0.000981875
-0.000981826
-0.00098177
-0.000981712
-0.000982181
-0.00103207
-0.00103206
-0.00103205
-0.00103204
-0.00103202
-0.001032
-0.00103197
-0.00103194
-0.00103191
-0.00103187
-0.00103183
-0.00103179
-0.00103174
-0.00103169
-0.00103164
-0.00103208
-0.00108196
-0.00108195
-0.00108194
-0.00108193
-0.00108191
-0.00108189
-0.00108186
-0.00108183
-0.0010818
-0.00108177
-0.00108173
-0.00108169
-0.00108165
-0.0010816
-0.00108155
-0.00108196
-0.00113184
-0.00113184
-0.00113183
-0.00113181
-0.00113179
-0.00113178
-0.00113175
-0.00113172
-0.00113169
-0.00113166
-0.00113163
-0.00113159
-0.00113155
-0.00113151
-0.00113146
-0.00113184
-0.00118172
-0.00118172
-0.00118171
-0.00118169
-0.00118168
-0.00118166
-0.00118164
-0.00118161
-0.00118158
-0.00118155
-0.00118152
-0.00118149
-0.00118145
-0.00118141
-0.00118137
-0.00118172
-0.0012316
-0.00123159
-0.00123158
-0.00123157
-0.00123155
-0.00123154
-0.00123151
-0.00123149
-0.00123147
-0.00123144
-0.00123141
-0.00123137
-0.00123134
-0.00123131
-0.00123126
-0.0012316
-0.00128147
-0.00128146
-0.00128145
-0.00128144
-0.00128143
-0.00128141
-0.00128139
-0.00128137
-0.00128134
-0.00128132
-0.00128129
-0.00128126
-0.00128123
-0.00128119
-0.00128116
-0.00128147
-0.00133133
-0.00133133
-0.00133132
-0.00133131
-0.00133129
-0.00133128
-0.00133126
-0.00133124
-0.00133122
-0.00133119
-0.00133117
-0.00133114
-0.00133111
-0.00133108
-0.00133105
-0.00133134
-0.00138119
-0.00138119
-0.00138118
-0.00138117
-0.00138116
-0.00138115
-0.00138113
-0.00138111
-0.00138109
-0.00138107
-0.00138104
-0.00138102
-0.00138099
-0.00138096
-0.00138093
-0.0013812
-0.00143105
-0.00143105
-0.00143105
-0.00143104
-0.00143103
-0.00143101
-0.00143099
-0.00143098
-0.00143096
-0.00143094
-0.00143092
-0.00143089
-0.00143086
-0.00143084
-0.00143081
-0.00143106
-0.00148091
-0.00148091
-0.0014809
-0.0014809
-0.00148089
-0.00148087
-0.00148086
-0.00148084
-0.00148082
-0.0014808
-0.00148078
-0.00148076
-0.00148074
-0.00148071
-0.00148068
-0.00148092
-0.00153077
-0.00153076
-0.00153076
-0.00153075
-0.00153074
-0.00153073
-0.00153072
-0.0015307
-0.00153068
-0.00153067
-0.00153065
-0.00153063
-0.00153061
-0.00153058
-0.00153056
-0.00153077
-0.00158062
-0.00158062
-0.00158061
-0.0015806
-0.00158059
-0.00158058
-0.00158057
-0.00158056
-0.00158054
-0.00158052
-0.00158051
-0.00158049
-0.00158047
-0.00158045
-0.00158042
-0.00158062
-0.00163047
-0.00163047
-0.00163046
-0.00163045
-0.00163044
-0.00163043
-0.00163042
-0.00163041
-0.0016304
-0.00163038
-0.00163036
-0.00163035
-0.00163033
-0.00163031
-0.00163029
-0.00163047
-0.00168031
-0.00168031
-0.00168031
-0.0016803
-0.00168029
-0.00168028
-0.00168027
-0.00168026
-0.00168025
-0.00168024
-0.00168022
-0.0016802
-0.00168019
-0.00168017
-0.00168014
-0.00168032
-0.00173016
-0.00173015
-0.00173015
-0.00173015
-0.00173014
-0.00173013
-0.00173012
-0.00173011
-0.0017301
-0.00173008
-0.00173007
-0.00173006
-0.00173004
-0.00173002
-0.00173
-0.00173016
-0.00178
-0.00177999
-0.00177999
-0.00177999
-0.00177998
-0.00177998
-0.00177997
-0.00177996
-0.00177994
-0.00177993
-0.00177992
-0.0017799
-0.00177989
-0.00177987
-0.00177986
-0.00178
-0.00182984
-0.00182983
-0.00182983
-0.00182982
-0.00182982
-0.00182982
-0.00182981
-0.0018298
-0.00182979
-0.00182978
-0.00182976
-0.00182975
-0.00182973
-0.00182972
-0.0018297
-0.00182984
-0.00187967
-0.00187967
-0.00187967
-0.00187966
-0.00187966
-0.00187965
-0.00187965
-0.00187964
-0.00187963
-0.00187962
-0.00187961
-0.00187959
-0.00187958
-0.00187956
-0.00187955
-0.00187968
-0.00192951
-0.00192951
-0.0019295
-0.0019295
-0.00192949
-0.00192949
-0.00192948
-0.00192947
-0.00192947
-0.00192946
-0.00192945
-0.00192944
-0.00192942
-0.00192941
-0.00192939
-0.00192951
-0.00197934
-0.00197934
-0.00197934
-0.00197933
-0.00197933
-0.00197932
-0.00197931
-0.00197931
-0.0019793
-0.00197929
-0.00197928
-0.00197927
-0.00197926
-0.00197925
-0.00197923
-0.00197934
-0.00202917
-0.00202917
-0.00202917
-0.00202916
-0.00202916
-0.00202915
-0.00202915
-0.00202914
-0.00202913
-0.00202912
-0.00202912
-0.00202911
-0.0020291
-0.00202908
-0.00202907
-0.00202917
-0.002079
-0.002079
-0.00207899
-0.00207899
-0.00207899
-0.00207898
-0.00207898
-0.00207897
-0.00207896
-0.00207896
-0.00207895
-0.00207894
-0.00207893
-0.00207892
-0.0020789
-0.002079
-0.00212882
-0.00212882
-0.00212882
-0.00212881
-0.00212881
-0.00212881
-0.0021288
-0.0021288
-0.00212879
-0.00212878
-0.00212878
-0.00212877
-0.00212876
-0.00212875
-0.00212874
-0.00212882
-0.00217864
-0.00217864
-0.00217864
-0.00217864
-0.00217863
-0.00217863
-0.00217863
-0.00217862
-0.00217862
-0.00217861
-0.0021786
-0.0021786
-0.00217859
-0.00217858
-0.00217856
-0.00217864
-0.00222846
-0.00222846
-0.00222846
-0.00222846
-0.00222845
-0.00222845
-0.00222845
-0.00222844
-0.00222844
-0.00222843
-0.00222843
-0.00222842
-0.00222841
-0.0022284
-0.00222839
-0.00222846
-0.00227828
-0.00227828
-0.00227828
-0.00227828
-0.00227827
-0.00227827
-0.00227827
-0.00227826
-0.00227826
-0.00227826
-0.00227825
-0.00227824
-0.00227824
-0.00227823
-0.00227821
-0.00227828
-0.0023281
-0.0023281
-0.0023281
-0.00232809
-0.00232809
-0.00232809
-0.00232808
-0.00232808
-0.00232808
-0.00232807
-0.00232807
-0.00232806
-0.00232806
-0.00232805
-0.00232804
-0.0023281
-0.00237791
-0.00237791
-0.00237791
-0.00237791
-0.00237791
-0.0023779
-0.0023779
-0.0023779
-0.00237789
-0.00237789
-0.00237788
-0.00237788
-0.00237787
-0.00237787
-0.00237786
-0.00237791
-0.00242772
-0.00242772
-0.00242772
-0.00242772
-0.00242772
-0.00242772
-0.00242771
-0.00242771
-0.00242771
-0.0024277
-0.0024277
-0.00242769
-0.00242769
-0.00242768
-0.00242767
-0.00242773
-0.00247753
-0.00247753
-0.00247753
-0.00247753
-0.00247753
-0.00247753
-0.00247753
-0.00247752
-0.00247752
-0.00247752
-0.00247751
-0.00247751
-0.0024775
-0.00247749
-0.00247749
-0.00247753
-0.00252734
-0.00252734
-0.00252734
-0.00252734
-0.00252734
-0.00252734
-0.00252733
-0.00252733
-0.00252733
-0.00252733
-0.00252732
-0.00252732
-0.00252731
-0.00252731
-0.0025273
-0.00252734
-0.00257714
-0.00257714
-0.00257714
-0.00257714
-0.00257714
-0.00257714
-0.00257714
-0.00257714
-0.00257714
-0.00257713
-0.00257713
-0.00257713
-0.00257712
-0.00257712
-0.00257711
-0.00257714
-0.00262695
-0.00262695
-0.00262695
-0.00262694
-0.00262694
-0.00262694
-0.00262694
-0.00262694
-0.00262694
-0.00262694
-0.00262694
-0.00262693
-0.00262693
-0.00262692
-0.00262692
-0.00262695
-0.00267675
-0.00267675
-0.00267675
-0.00267675
-0.00267675
-0.00267674
-0.00267674
-0.00267674
-0.00267674
-0.00267674
-0.00267674
-0.00267674
-0.00267673
-0.00267673
-0.00267672
-0.00267675
-0.00272655
-0.00272655
-0.00272655
-0.00272655
-0.00272655
-0.00272654
-0.00272654
-0.00272654
-0.00272654
-0.00272654
-0.00272654
-0.00272654
-0.00272654
-0.00272653
-0.00272653
-0.00272655
-0.00277635
-0.00277635
-0.00277635
-0.00277635
-0.00277634
-0.00277634
-0.00277634
-0.00277634
-0.00277634
-0.00277634
-0.00277634
-0.00277634
-0.00277634
-0.00277633
-0.00277633
-0.00277635
-0.00282614
-0.00282614
-0.00282614
-0.00282614
-0.00282614
-0.00282614
-0.00282614
-0.00282614
-0.00282614
-0.00282614
-0.00282614
-0.00282614
-0.00282614
-0.00282613
-0.00282613
-0.00282614
-0.00287594
-0.00287594
-0.00287594
-0.00287594
-0.00287594
-0.00287594
-0.00287594
-0.00287594
-0.00287593
-0.00287594
-0.00287594
-0.00287594
-0.00287593
-0.00287593
-0.00287593
-0.00287594
-0.00292573
-0.00292573
-0.00292573
-0.00292573
-0.00292573
-0.00292573
-0.00292573
-0.00292573
-0.00292573
-0.00292573
-0.00292573
-0.00292573
-0.00292573
-0.00292573
-0.00292573
-0.00292573
-0.00297553
-0.00297552
-0.00297553
-0.00297553
-0.00297553
-0.00297553
-0.00297553
-0.00297553
-0.00297552
-0.00297552
-0.00297553
-0.00297553
-0.00297552
-0.00297552
-0.00297552
-0.00297553
-0.00302531
-0.00302532
-0.00302531
-0.00302531
-0.00302532
-0.00302532
-0.00302531
-0.00302532
-0.00302532
-0.00302531
-0.00302531
-0.00302532
-0.00302532
-0.00302532
-0.00302531
-0.00302532
-0.00307511
-0.00307511
-0.00307511
-0.0030751
-0.0030751
-0.00307511
-0.0030751
-0.0030751
-0.00307511
-0.00307511
-0.00307511
-0.0030751
-0.0030751
-0.00307511
-0.00307511
-0.0030751
)
;

boundaryField
{
    wireUpstream
    {
        type            calculated;
        value           nonuniform List<scalar> 
16
(
-0.0031
-0.0031
-0.0031
-0.0031
-0.0031
-0.0031
-0.0031
-0.0031
-0.0031
-0.0031
-0.0031
-0.0031
-0.0031
-0.0031
-0.0031
-0.0031
)
;
    }
    wireDownstream
    {
        type            calculated;
        value           nonuniform List<scalar> 
16
(
0.003
0.003
0.003
0.003
0.003
0.003
0.003
0.003
0.003
0.003
0.003
0.003
0.003
0.003
0.003
0.003
)
;
    }
    wireTopContact
    {
        type            calculated;
        value           nonuniform List<scalar> 
122
(
0.00291904
0.00286902
0.002819
0.00276898
0.00271896
0.00266893
0.00261891
0.00256889
0.00251887
0.00246884
0.00241882
0.0023688
0.00231878
0.00226876
0.00221874
0.00216873
0.00211871
0.00206869
0.00201868
0.00196866
0.00191865
0.00186863
0.00181862
0.00176861
0.0017186
0.0016686
0.00161859
0.00156858
0.00151858
0.00146857
0.00141857
0.00136857
0.00131856
0.00126856
0.00121856
0.00116856
0.00111855
0.00106855
0.00101854
0.000968534
0.000918523
0.00086851
0.000818493
0.000768472
0.000718446
0.000668415
0.000618378
0.000568333
0.000518281
0.000468224
0.000418163
0.000368101
0.000318042
0.000267988
0.000217943
0.00016791
0.000117894
6.78976e-05
1.79209e-05
-3.20448e-05
-8.20159e-05
-0.000132001
-0.000182001
-0.00023201
-0.000282022
-0.000332034
-0.000382044
-0.00043205
-0.000482051
-0.000532046
-0.000582034
-0.000632016
-0.00068199
-0.000731957
-0.000781917
-0.000831869
-0.000881813
-0.000931751
-0.000981684
-0.00103161
-0.00108153
-0.00113144
-0.00118134
-0.00123124
-0.00128114
-0.00133103
-0.00138091
-0.00143079
-0.00148067
-0.00153055
-0.00158041
-0.00163027
-0.00168013
-0.00172999
-0.00177985
-0.0018297
-0.00187954
-0.00192938
-0.00197922
-0.00202906
-0.0020789
-0.00212873
-0.00217856
-0.00222838
-0.00227821
-0.00232803
-0.00237785
-0.00242767
-0.00247748
-0.0025273
-0.00257711
-0.00262692
-0.00267672
-0.00272653
-0.00277633
-0.00282613
-0.00287593
-0.00292573
-0.00297552
-0.00302531
-0.0030751
0.00297203
)
;
    }
    front
    {
        type            wedge;
    }
    back
    {
        type            wedge;
    }
}


// ************************************************************************* //
