/*--------------------------------*- C++ -*----------------------------------*\
| =========                 |                                                 |
| \\      /  F ield         | OpenFOAM: The Open Source CFD Toolbox           |
|  \\    /   O peration     | Version:  4.1                                   |
|   \\  /    A nd           | Web:      www.OpenFOAM.org                      |
|    \\/     M anipulation  |                                                 |
\*---------------------------------------------------------------------------*/
FoamFile
{
    version     2.0;
    format      ascii;
    class       volScalarField;
    location    "0.0045";
    object      p;
}
// * * * * * * * * * * * * * * * * * * * * * * * * * * * * * * * * * * * * * //

dimensions      [0 2 -2 0 0 0 0];

internalField   nonuniform List<scalar> 
6144
(
0.0039372
0.011982
0.020358
0.029154
0.038161
0.047089
0.05566
0.063823
0.071759
0.079941
0.088828
0.098902
0.11071
0.12488
0.14212
0.16309
0.18836
0.21847
0.25416
0.29636
0.34606
0.40392
0.47003
0.54387
0.6245
0.71064
0.80077
0.89283
0.98405
1.0707
1.1476
1.2079
1.2434
1.2517
1.2396
1.1978
1.1317
1.046
0.94266
0.82196
0.68544
0.53876
0.39242
0.25934
0.15112
0.074399
0.029265
0.0070777
0.0039762
0.012073
0.020458
0.029199
0.03813
0.046996
0.055565
0.06379
0.071843
0.080158
0.089187
0.099418
0.1114
0.12577
0.14321
0.16436
0.18982
0.22015
0.2561
0.29856
0.34845
0.40638
0.47241
0.54604
0.62633
0.71203
0.80156
0.89279
0.98292
1.0681
1.1434
1.2021
1.2373
1.246
1.2322
1.1907
1.1255
1.0404
0.93747
0.81753
0.68265
0.53864
0.39547
0.2651
0.1583
0.081338
0.033705
0.0084152
0.0039964
0.01212
0.02051
0.029224
0.038113
0.046944
0.055511
0.063773
0.071901
0.080301
0.089422
0.099756
0.11185
0.12634
0.14391
0.16518
0.19076
0.22123
0.25734
0.29996
0.34997
0.40793
0.4739
0.54738
0.62745
0.71286
0.80198
0.89267
0.98207
1.0664
1.1405
1.1981
1.2325
1.2409
1.2267
1.1861
1.1215
1.0369
0.93428
0.81489
0.68109
0.53874
0.39752
0.26891
0.16319
0.086335
0.037013
0.0097346
0.0040064
0.012143
0.020534
0.029233
0.038101
0.046916
0.055484
0.06377
0.071932
0.080376
0.089545
0.09993
0.11208
0.12664
0.14426
0.1656
0.19123
0.22178
0.25797
0.30067
0.35074
0.40872
0.47466
0.54807
0.62804
0.7133
0.80222
0.89264
0.98168
1.0655
1.1391
1.1961
1.2302
1.2387
1.2246
1.1839
1.1195
1.0351
0.93266
0.81355
0.68028
0.53874
0.39847
0.27073
0.16553
0.088735
0.038568
0.01037
0.0040053
0.01214
0.02053
0.029228
0.038097
0.046913
0.055484
0.063772
0.071937
0.080383
0.089552
0.099937
0.11209
0.12664
0.14426
0.1656
0.19123
0.22178
0.25797
0.30067
0.35073
0.40871
0.47466
0.54807
0.62804
0.7133
0.80223
0.89265
0.98169
1.0655
1.1391
1.1962
1.2302
1.2387
1.2246
1.1839
1.1195
1.0351
0.93269
0.81357
0.6803
0.53875
0.39848
0.27074
0.16554
0.088739
0.038571
0.010371
0.0039931
0.012111
0.020496
0.029209
0.038099
0.046935
0.055509
0.063779
0.071914
0.08032
0.089444
0.099777
0.11187
0.12636
0.14392
0.16519
0.19076
0.22123
0.25733
0.29995
0.34995
0.40792
0.47389
0.54738
0.62745
0.71287
0.80199
0.89269
0.98209
1.0664
1.1405
1.1981
1.2325
1.2409
1.2267
1.1861
1.1216
1.0369
0.93436
0.81496
0.68115
0.53878
0.39754
0.26893
0.1632
0.086343
0.037018
0.0097369
0.0039704
0.012057
0.020434
0.029173
0.038106
0.04698
0.055562
0.063802
0.071866
0.080189
0.089223
0.099454
0.11143
0.12579
0.14322
0.16437
0.18981
0.22014
0.25608
0.29854
0.34843
0.40636
0.47239
0.54603
0.62633
0.71205
0.80159
0.89282
0.98295
1.0682
1.1434
1.2022
1.2373
1.246
1.2323
1.1908
1.1256
1.0405
0.93759
0.81764
0.68273
0.5387
0.39551
0.26512
0.15831
0.081346
0.03371
0.0084178
0.0039288
0.011958
0.020324
0.029117
0.038128
0.047066
0.055655
0.063839
0.071791
0.079985
0.088878
0.098953
0.11075
0.12491
0.14214
0.1631
0.18835
0.21846
0.25414
0.29633
0.34602
0.40389
0.47
0.54387
0.6245
0.71067
0.80081
0.89288
0.9841
1.0707
1.1476
1.2079
1.2435
1.2517
1.2397
1.1979
1.1319
1.0462
0.94282
0.8221
0.68554
0.53883
0.39246
0.25936
0.15113
0.074404
0.029265
0.0070783
0.0039776
0.012077
0.020463
0.029207
0.038138
0.047004
0.055571
0.063794
0.071845
0.080157
0.089183
0.099412
0.11139
0.12576
0.1432
0.16435
0.18981
0.22015
0.2561
0.29857
0.34847
0.4064
0.47243
0.54606
0.62636
0.71206
0.80158
0.89282
0.98294
1.0682
1.1434
1.2021
1.2373
1.246
1.2322
1.1906
1.1254
1.0403
0.93743
0.81749
0.68262
0.53862
0.39546
0.26509
0.15829
0.08133
0.0337
0.008413
0.0040038
0.01214
0.020535
0.029245
0.038121
0.04694
0.055503
0.063776
0.071929
0.080362
0.089523
0.099902
0.11205
0.1266
0.14421
0.16553
0.19116
0.2217
0.25788
0.30057
0.35063
0.40859
0.47451
0.54791
0.62788
0.71314
0.80208
0.89254
0.98163
1.0656
1.1393
1.1967
1.2314
1.2411
1.2253
1.1843
1.1199
1.0354
0.93298
0.81388
0.68062
0.53907
0.39867
0.27069
0.16516
0.087972
0.037692
0.0094669
0.0040208
0.01218
0.020581
0.029268
0.038109
0.046897
0.055459
0.063767
0.071988
0.080504
0.089756
0.10024
0.1125
0.12716
0.14489
0.16633
0.19208
0.22276
0.25909
0.30193
0.35209
0.41007
0.47593
0.54918
0.62892
0.71389
0.80242
0.89233
0.9807
1.0637
1.1363
1.1926
1.2266
1.2358
1.2203
1.1799
1.1161
1.0321
0.93002
0.81151
0.67936
0.53944
0.40097
0.27472
0.17028
0.09328
0.041012
0.010769
0.004029
0.012199
0.020601
0.029276
0.0381
0.046874
0.055437
0.063766
0.072021
0.080579
0.089877
0.10041
0.11273
0.12745
0.14524
0.16674
0.19254
0.22329
0.2597
0.30262
0.35282
0.41081
0.47664
0.54982
0.62946
0.71428
0.80261
0.89225
0.98025
1.0628
1.1348
1.1906
1.2243
1.2335
1.2181
1.1778
1.1142
1.0304
0.92855
0.81034
0.67873
0.5396
0.40206
0.27665
0.17274
0.095847
0.042542
0.011382
0.0040279
0.012196
0.020597
0.029272
0.038095
0.046872
0.055437
0.063769
0.072026
0.080585
0.089885
0.10042
0.11273
0.12746
0.14524
0.16674
0.19254
0.22329
0.2597
0.30261
0.35281
0.41081
0.47664
0.54982
0.62946
0.71428
0.80262
0.89225
0.98026
1.0628
1.1348
1.1906
1.2243
1.2335
1.2181
1.1778
1.1142
1.0304
0.92857
0.81036
0.67874
0.53962
0.40207
0.27666
0.17274
0.09585
0.042544
0.011383
0.0040175
0.012171
0.020568
0.029253
0.038096
0.046889
0.055458
0.063774
0.072002
0.080523
0.089778
0.10026
0.11252
0.12718
0.1449
0.16634
0.19208
0.22275
0.25908
0.30192
0.35207
0.41006
0.47592
0.54918
0.62893
0.71391
0.80244
0.89235
0.98072
1.0637
1.1363
1.1926
1.2266
1.2358
1.2203
1.1799
1.1161
1.0321
0.93009
0.81157
0.67941
0.53948
0.401
0.27474
0.1703
0.093289
0.041018
0.010771
0.0039982
0.012124
0.020513
0.02922
0.038099
0.046925
0.055501
0.063789
0.071952
0.080394
0.089559
0.099938
0.11208
0.12662
0.14422
0.16554
0.19116
0.22169
0.25787
0.30055
0.3506
0.40856
0.4745
0.54791
0.62789
0.71317
0.80212
0.89257
0.98167
1.0656
1.1393
1.1967
1.2314
1.2411
1.2253
1.1843
1.12
1.0355
0.93309
0.81397
0.6807
0.53912
0.39871
0.27071
0.16518
0.087985
0.037702
0.0094709
0.0039694
0.012054
0.020432
0.029172
0.038107
0.046984
0.055568
0.063812
0.071878
0.080202
0.089234
0.099463
0.11144
0.12579
0.14322
0.16436
0.18981
0.22013
0.25607
0.29853
0.34843
0.40637
0.47241
0.54606
0.62637
0.71209
0.80163
0.89287
0.98299
1.0682
1.1434
1.2022
1.2373
1.246
1.2323
1.1907
1.1256
1.0405
0.93758
0.81763
0.68273
0.5387
0.39551
0.26512
0.15831
0.081346
0.033711
0.0084178
0.003999
0.012128
0.020522
0.029239
0.038129
0.04696
0.055524
0.06378
0.071904
0.080299
0.089415
0.099744
0.11184
0.12633
0.14389
0.16517
0.19075
0.22123
0.25734
0.29997
0.34999
0.40796
0.47394
0.54742
0.6275
0.7129
0.80202
0.89271
0.98211
1.0664
1.1405
1.1981
1.2325
1.2409
1.2266
1.186
1.1214
1.0368
0.9342
0.81482
0.68103
0.5387
0.39748
0.26889
0.16317
0.08632
0.037003
0.0097309
0.0040221
0.012183
0.020586
0.029275
0.038117
0.046904
0.055465
0.063769
0.07199
0.080503
0.089753
0.10023
0.11249
0.12715
0.14489
0.16633
0.19207
0.22275
0.25909
0.30194
0.3521
0.41008
0.47594
0.5492
0.62895
0.71391
0.80244
0.89235
0.98072
1.0637
1.1363
1.1926
1.2266
1.2358
1.2203
1.1798
1.116
1.032
0.92998
0.81148
0.67933
0.53942
0.40096
0.27471
0.17028
0.093273
0.041007
0.010767
0.004037
0.012219
0.020627
0.029297
0.038107
0.046868
0.055428
0.063765
0.07205
0.080644
0.089983
0.10056
0.11293
0.12771
0.14556
0.16711
0.19298
0.22379
0.26028
0.30326
0.35351
0.41152
0.4773
0.55041
0.62994
0.71461
0.80274
0.8921
0.97976
1.0618
1.1334
1.1887
1.2222
1.2312
1.2157
1.1756
1.1124
1.0288
0.92715
0.80927
0.67822
0.53992
0.40328
0.27865
0.17519
0.098419
0.043774
0.011856
0.004044
0.012235
0.020645
0.029305
0.0381
0.046849
0.05541
0.063767
0.072084
0.080718
0.090103
0.10073
0.11316
0.128
0.1459
0.16751
0.19343
0.22431
0.26087
0.30393
0.35422
0.41223
0.47799
0.55102
0.63044
0.71496
0.80289
0.89198
0.97928
1.0609
1.1319
1.1867
1.22
1.229
1.2135
1.1736
1.1106
1.0272
0.92577
0.80819
0.67769
0.54017
0.40443
0.2806
0.17762
0.10092
0.045201
0.012409
0.0040429
0.012232
0.020641
0.0293
0.038095
0.046846
0.055409
0.063769
0.072088
0.080724
0.09011
0.10074
0.11316
0.128
0.1459
0.16751
0.19343
0.22431
0.26087
0.30392
0.35422
0.41223
0.47799
0.55102
0.63044
0.71497
0.8029
0.89199
0.97929
1.0609
1.1319
1.1867
1.22
1.229
1.2135
1.1736
1.1106
1.0272
0.92579
0.80821
0.67771
0.54018
0.40444
0.2806
0.17762
0.10092
0.045204
0.01241
0.0040338
0.01221
0.020614
0.029282
0.038094
0.04686
0.055427
0.063773
0.072065
0.080663
0.090005
0.10058
0.11295
0.12773
0.14557
0.16711
0.19297
0.22378
0.26027
0.30325
0.3535
0.4115
0.4773
0.55041
0.62995
0.71462
0.80276
0.89213
0.97978
1.0618
1.1334
1.1887
1.2222
1.2313
1.2157
1.1757
1.1124
1.0289
0.92721
0.80932
0.67827
0.53995
0.40331
0.27867
0.1752
0.09843
0.043782
0.011859
0.0040166
0.012168
0.020565
0.029251
0.038095
0.046891
0.055464
0.063783
0.072013
0.080535
0.089789
0.10027
0.11252
0.12718
0.1449
0.16633
0.19207
0.22274
0.25908
0.30192
0.35207
0.41006
0.47593
0.5492
0.62896
0.71394
0.80248
0.89239
0.98076
1.0637
1.1363
1.1926
1.2266
1.2358
1.2203
1.1799
1.1161
1.0321
0.93008
0.81157
0.67941
0.53948
0.40099
0.27474
0.1703
0.09329
0.04102
0.010772
0.0039912
0.012106
0.020491
0.029204
0.038099
0.04694
0.055522
0.063799
0.071938
0.080344
0.089467
0.099795
0.11188
0.12636
0.14391
0.16517
0.19074
0.22121
0.25732
0.29994
0.34996
0.40793
0.47392
0.54742
0.62752
0.71294
0.80207
0.89277
0.98217
1.0664
1.1405
1.1981
1.2325
1.2409
1.2267
1.1861
1.1216
1.0369
0.93434
0.81495
0.68114
0.53877
0.39754
0.26892
0.1632
0.086343
0.037021
0.009738
0.0040103
0.012155
0.020552
0.029255
0.038125
0.046939
0.055503
0.063779
0.071937
0.080373
0.089534
0.099912
0.11206
0.12661
0.14424
0.16557
0.19122
0.22177
0.25797
0.30069
0.35077
0.40876
0.47471
0.54813
0.6281
0.71336
0.80228
0.8927
0.98173
1.0655
1.1391
1.1962
1.2302
1.2387
1.2245
1.1838
1.1194
1.0349
0.93254
0.81344
0.68019
0.53867
0.39843
0.2707
0.1655
0.088716
0.038556
0.010365
0.0040315
0.012206
0.020612
0.029291
0.038115
0.046889
0.055449
0.063772
0.072024
0.080577
0.08987
0.1004
0.11271
0.12743
0.14522
0.16672
0.19253
0.22328
0.2597
0.30262
0.35283
0.41084
0.47667
0.54986
0.6295
0.71432
0.80265
0.89228
0.98028
1.0628
1.1349
1.1906
1.2243
1.2334
1.2181
1.1777
1.1141
1.0303
0.92847
0.81027
0.67867
0.53956
0.40203
0.27663
0.17272
0.095834
0.042534
0.011379
0.0040452
0.012239
0.02065
0.029312
0.038107
0.046856
0.055415
0.063769
0.072085
0.080717
0.090099
0.10073
0.11315
0.12799
0.14589
0.1675
0.19342
0.2243
0.26087
0.30393
0.35423
0.41224
0.478
0.55104
0.63046
0.71498
0.80291
0.892
0.97929
1.0609
1.1319
1.1867
1.22
1.229
1.2135
1.1736
1.1105
1.0272
0.92573
0.80816
0.67766
0.54015
0.40442
0.28059
0.17761
0.10091
0.045197
0.012407
0.0040516
0.012254
0.020667
0.029319
0.038101
0.046839
0.055399
0.063771
0.072119
0.080791
0.090218
0.10089
0.11337
0.12827
0.14623
0.16789
0.19387
0.22482
0.26146
0.30458
0.35493
0.41295
0.47867
0.55163
0.63094
0.71531
0.80304
0.89186
0.9788
1.06
1.1305
1.1848
1.2178
1.2268
1.2114
1.1715
1.1088
1.0256
0.92438
0.80713
0.67718
0.54045
0.4056
0.28255
0.18003
0.10339
0.046579
0.01294
0.0040506
0.012251
0.020663
0.029315
0.038097
0.046836
0.055399
0.063773
0.072123
0.080797
0.090225
0.1009
0.11338
0.12827
0.14623
0.16789
0.19387
0.22482
0.26145
0.30458
0.35492
0.41295
0.47867
0.55163
0.63095
0.71532
0.80305
0.89187
0.97881
1.06
1.1305
1.1848
1.2178
1.2268
1.2114
1.1716
1.1088
1.0256
0.9244
0.80715
0.6772
0.54046
0.40561
0.28255
0.18004
0.10339
0.046581
0.012941
0.004042
0.01223
0.020638
0.029298
0.038095
0.046849
0.055415
0.063778
0.072099
0.080736
0.090121
0.10075
0.11317
0.128
0.1459
0.1675
0.19342
0.2243
0.26086
0.30392
0.35422
0.41224
0.478
0.55104
0.63047
0.715
0.80293
0.89202
0.97932
1.0609
1.132
1.1868
1.22
1.229
1.2135
1.1736
1.1106
1.0272
0.92578
0.80821
0.67771
0.54018
0.40444
0.2806
0.17762
0.10093
0.045206
0.01241
0.0040262
0.012191
0.020591
0.029267
0.038095
0.046877
0.055449
0.063788
0.072048
0.080609
0.089906
0.10043
0.11274
0.12746
0.14524
0.16673
0.19253
0.22327
0.25969
0.3026
0.35282
0.41082
0.47666
0.54986
0.62952
0.71435
0.80268
0.89232
0.98032
1.0628
1.1349
1.1906
1.2243
1.2335
1.2181
1.1778
1.1142
1.0304
0.92857
0.81036
0.67874
0.53961
0.40207
0.27666
0.17274
0.095854
0.042549
0.011385
0.0040025
0.012133
0.020521
0.029221
0.038095
0.046921
0.055502
0.063802
0.071971
0.080419
0.089586
0.099964
0.11211
0.12665
0.14426
0.16558
0.19121
0.22176
0.25795
0.30066
0.35074
0.40874
0.4747
0.54814
0.62813
0.71341
0.80233
0.89276
0.98179
1.0656
1.1391
1.1962
1.2303
1.2387
1.2246
1.1839
1.1195
1.0351
0.93267
0.81355
0.68029
0.53874
0.39848
0.27074
0.16554
0.088743
0.038577
0.010373
0.0040105
0.012155
0.020553
0.029257
0.038128
0.046944
0.055509
0.063785
0.071943
0.080378
0.089537
0.099912
0.11206
0.12661
0.14423
0.16557
0.19121
0.22177
0.25797
0.30068
0.35077
0.40876
0.47472
0.54814
0.62811
0.71337
0.8023
0.89272
0.98175
1.0656
1.1391
1.1962
1.2302
1.2387
1.2245
1.1838
1.1194
1.0349
0.93253
0.81342
0.68018
0.53866
0.39842
0.27069
0.1655
0.088712
0.038554
0.010364
0.0040317
0.012207
0.020614
0.029293
0.038119
0.046894
0.055455
0.063779
0.07203
0.080581
0.089873
0.1004
0.11271
0.12743
0.14522
0.16671
0.19252
0.22328
0.2597
0.30262
0.35283
0.41084
0.47668
0.54987
0.62951
0.71433
0.80266
0.8923
0.9803
1.0628
1.1349
1.1906
1.2243
1.2334
1.2181
1.1777
1.1141
1.0303
0.92846
0.81026
0.67866
0.53955
0.40202
0.27662
0.17272
0.095832
0.042532
0.011378
0.0040454
0.01224
0.020652
0.029314
0.038111
0.046861
0.055421
0.063775
0.072091
0.080722
0.090102
0.10073
0.11315
0.12798
0.14588
0.16749
0.19341
0.2243
0.26087
0.30393
0.35423
0.41225
0.47801
0.55105
0.63047
0.71499
0.80292
0.89202
0.97931
1.0609
1.132
1.1867
1.22
1.229
1.2135
1.1735
1.1105
1.0272
0.92571
0.80815
0.67765
0.54014
0.40441
0.28058
0.17761
0.10091
0.045196
0.012407
0.0040518
0.012255
0.020669
0.029322
0.038104
0.046844
0.055405
0.063777
0.072125
0.080795
0.090221
0.10089
0.11337
0.12826
0.14622
0.16788
0.19386
0.22481
0.26145
0.30458
0.35493
0.41295
0.47868
0.55164
0.63096
0.71533
0.80306
0.89188
0.97882
1.06
1.1305
1.1848
1.2178
1.2268
1.2114
1.1715
1.1087
1.0256
0.92436
0.80712
0.67717
0.54045
0.4056
0.28254
0.18003
0.10339
0.046578
0.012939
0.0040508
0.012252
0.020664
0.029317
0.038101
0.046841
0.055405
0.06378
0.072129
0.080802
0.090229
0.1009
0.11338
0.12827
0.14622
0.16788
0.19386
0.22481
0.26145
0.30458
0.35492
0.41295
0.47868
0.55165
0.63096
0.71534
0.80307
0.89189
0.97883
1.06
1.1305
1.1848
1.2178
1.2268
1.2114
1.1715
1.1088
1.0256
0.92438
0.80713
0.67719
0.54046
0.40561
0.28255
0.18004
0.10339
0.046581
0.012941
0.0040423
0.012231
0.020639
0.0293
0.038099
0.046854
0.055421
0.063785
0.072106
0.080741
0.090124
0.10075
0.11317
0.128
0.14589
0.16749
0.19341
0.22429
0.26086
0.30391
0.35422
0.41224
0.47801
0.55106
0.63048
0.71501
0.80295
0.89204
0.97933
1.0609
1.132
1.1868
1.22
1.229
1.2135
1.1736
1.1106
1.0272
0.92576
0.80819
0.67769
0.54017
0.40444
0.2806
0.17762
0.10093
0.045206
0.012411
0.0040264
0.012192
0.020592
0.029269
0.038098
0.046882
0.055455
0.063794
0.072054
0.080614
0.08991
0.10043
0.11274
0.12745
0.14523
0.16672
0.19252
0.22326
0.25968
0.3026
0.35282
0.41083
0.47667
0.54988
0.62953
0.71437
0.8027
0.89234
0.98034
1.0628
1.1349
1.1906
1.2243
1.2335
1.2181
1.1778
1.1142
1.0304
0.92854
0.81034
0.67872
0.5396
0.40206
0.27666
0.17274
0.095855
0.042549
0.011385
0.0040027
0.012134
0.020522
0.029223
0.038099
0.046926
0.055508
0.063809
0.071978
0.080424
0.08959
0.099965
0.1121
0.12664
0.14425
0.16557
0.1912
0.22175
0.25794
0.30066
0.35074
0.40875
0.47472
0.54816
0.62815
0.71343
0.80236
0.89278
0.98181
1.0656
1.1392
1.1962
1.2303
1.2387
1.2246
1.1839
1.1195
1.035
0.93264
0.81353
0.68027
0.53873
0.39847
0.27073
0.16554
0.088746
0.038579
0.010373
0.0039995
0.01213
0.020525
0.029245
0.038139
0.046973
0.05554
0.063797
0.071922
0.080313
0.089424
0.099745
0.11183
0.12631
0.14387
0.16514
0.19072
0.22121
0.25733
0.29996
0.34999
0.40797
0.47395
0.54745
0.62753
0.71295
0.80207
0.89277
0.98216
1.0664
1.1405
1.1981
1.2325
1.2409
1.2266
1.186
1.1214
1.0367
0.93415
0.81478
0.681
0.53867
0.39747
0.26887
0.16316
0.08631
0.036996
0.009728
0.0040226
0.012185
0.02059
0.029282
0.038127
0.046918
0.055482
0.063787
0.072007
0.080518
0.089761
0.10023
0.11248
0.12714
0.14487
0.1663
0.19205
0.22273
0.25908
0.30193
0.35209
0.41009
0.47596
0.54923
0.62898
0.71396
0.8025
0.8924
0.98077
1.0637
1.1363
1.1926
1.2266
1.2358
1.2203
1.1798
1.116
1.032
0.92993
0.81144
0.6793
0.5394
0.40094
0.2747
0.17026
0.093265
0.041001
0.010765
0.0040376
0.012221
0.020631
0.029304
0.038117
0.046882
0.055445
0.063784
0.072068
0.080658
0.089992
0.10056
0.11293
0.1277
0.14554
0.16709
0.19295
0.22377
0.26026
0.30325
0.35351
0.41152
0.47732
0.55044
0.62998
0.71466
0.80279
0.89216
0.97981
1.0619
1.1334
1.1887
1.2222
1.2312
1.2156
1.1756
1.1123
1.0287
0.9271
0.80923
0.67819
0.5399
0.40327
0.27864
0.17518
0.098413
0.04377
0.011855
0.0040446
0.012237
0.020649
0.029312
0.03811
0.046864
0.055427
0.063785
0.072102
0.080733
0.090112
0.10073
0.11315
0.12798
0.14588
0.16748
0.1934
0.22429
0.26085
0.30392
0.35422
0.41224
0.47801
0.55106
0.63048
0.71501
0.80295
0.89204
0.97933
1.0609
1.132
1.1868
1.22
1.229
1.2135
1.1735
1.1105
1.0272
0.92571
0.80815
0.67766
0.54015
0.40442
0.28059
0.17761
0.10092
0.045198
0.012408
0.0040435
0.012234
0.020645
0.029307
0.038106
0.046861
0.055427
0.063788
0.072107
0.080739
0.09012
0.10074
0.11316
0.12799
0.14588
0.16748
0.1934
0.22428
0.26085
0.30391
0.35422
0.41224
0.47801
0.55106
0.63049
0.71502
0.80295
0.89205
0.97934
1.061
1.132
1.1868
1.22
1.229
1.2135
1.1736
1.1105
1.0272
0.92573
0.80817
0.67767
0.54016
0.40443
0.2806
0.17762
0.10092
0.045202
0.012409
0.0040344
0.012212
0.020618
0.02929
0.038105
0.046875
0.055445
0.063793
0.072083
0.080678
0.090015
0.10059
0.11295
0.12771
0.14555
0.16709
0.19295
0.22376
0.26025
0.30324
0.3535
0.41152
0.47733
0.55045
0.63
0.71468
0.80282
0.89218
0.97983
1.0619
1.1334
1.1887
1.2222
1.2313
1.2157
1.1756
1.1124
1.0288
0.92715
0.80927
0.67823
0.53993
0.40329
0.27866
0.1752
0.098429
0.043782
0.011859
0.0040172
0.01217
0.020569
0.029258
0.038106
0.046906
0.055482
0.063804
0.072033
0.080551
0.0898
0.10027
0.11252
0.12717
0.14488
0.16631
0.19205
0.22272
0.25906
0.30191
0.35208
0.41008
0.47596
0.54924
0.62901
0.714
0.80254
0.89245
0.98081
1.0638
1.1364
1.1926
1.2267
1.2358
1.2203
1.1799
1.1161
1.032
0.93001
0.81151
0.67936
0.53945
0.40098
0.27473
0.1703
0.093292
0.041022
0.010773
0.0039917
0.012108
0.020495
0.029211
0.038109
0.046956
0.05554
0.063821
0.071957
0.080361
0.089478
0.0998
0.11188
0.12635
0.14389
0.16515
0.19072
0.22119
0.2573
0.29994
0.34997
0.40796
0.47396
0.54747
0.62758
0.713
0.80214
0.89283
0.98222
1.0665
1.1406
1.1982
1.2325
1.2409
1.2267
1.1861
1.1215
1.0368
0.93426
0.81488
0.68109
0.53874
0.39752
0.26892
0.1632
0.08635
0.037026
0.0097394
0.0039783
0.01208
0.020469
0.029217
0.038154
0.047026
0.055599
0.063825
0.071875
0.080181
0.089197
0.099414
0.11138
0.12573
0.14316
0.16432
0.18977
0.22011
0.25607
0.29855
0.34846
0.40641
0.47246
0.54611
0.62642
0.71214
0.80167
0.89291
0.98303
1.0682
1.1435
1.2022
1.2373
1.246
1.2322
1.1906
1.1254
1.0403
0.93735
0.81743
0.68257
0.53858
0.39543
0.26506
0.15827
0.08131
0.033684
0.0084067
0.0040047
0.012143
0.020542
0.029256
0.038138
0.046963
0.055532
0.063808
0.071959
0.080387
0.089537
0.099904
0.11204
0.12657
0.14417
0.16549
0.19112
0.22167
0.25786
0.30056
0.35062
0.4086
0.47454
0.54796
0.62794
0.71323
0.80217
0.89263
0.98172
1.0656
1.1393
1.1967
1.2314
1.2411
1.2253
1.1842
1.1198
1.0353
0.9329
0.81381
0.68057
0.53903
0.39865
0.27067
0.16514
0.087957
0.037681
0.0094626
0.0040218
0.012183
0.020588
0.02928
0.038126
0.046921
0.055488
0.063798
0.072018
0.080529
0.089771
0.10024
0.11249
0.12714
0.14486
0.16629
0.19204
0.22272
0.25906
0.30192
0.35208
0.41008
0.47596
0.54923
0.62899
0.71397
0.80252
0.89242
0.98079
1.0638
1.1364
1.1926
1.2266
1.2358
1.2203
1.1798
1.116
1.032
0.92994
0.81145
0.67931
0.53941
0.40095
0.27471
0.17027
0.093269
0.041004
0.010766
0.00403
0.012202
0.020608
0.029288
0.038118
0.046899
0.055467
0.063798
0.072051
0.080604
0.089893
0.10041
0.11272
0.12743
0.14521
0.1667
0.1925
0.22325
0.25967
0.3026
0.35282
0.41083
0.47668
0.54988
0.62953
0.71437
0.8027
0.89234
0.98034
1.0628
1.1349
1.1906
1.2243
1.2334
1.2181
1.1777
1.1141
1.0303
0.92847
0.81027
0.67867
0.53957
0.40204
0.27664
0.17273
0.09584
0.042538
0.011381
0.004029
0.012199
0.020604
0.029284
0.038114
0.046897
0.055467
0.063801
0.072056
0.080611
0.089901
0.10042
0.11272
0.12743
0.14521
0.1667
0.1925
0.22325
0.25967
0.3026
0.35281
0.41083
0.47668
0.54988
0.62954
0.71437
0.80271
0.89235
0.98035
1.0629
1.1349
1.1906
1.2243
1.2335
1.2181
1.1777
1.1141
1.0303
0.92848
0.81028
0.67868
0.53958
0.40205
0.27664
0.17273
0.095846
0.042542
0.011382
0.0040186
0.012174
0.020575
0.029266
0.038114
0.046914
0.055488
0.063807
0.072034
0.080549
0.089795
0.10026
0.11251
0.12716
0.14487
0.1663
0.19204
0.22271
0.25906
0.30191
0.35208
0.41008
0.47596
0.54924
0.62901
0.714
0.80254
0.89245
0.98081
1.0638
1.1364
1.1926
1.2267
1.2358
1.2203
1.1799
1.116
1.032
0.92998
0.81149
0.67934
0.53944
0.40097
0.27473
0.17029
0.093288
0.041018
0.010771
0.0039992
0.012127
0.02052
0.029232
0.038118
0.046951
0.055532
0.063825
0.071985
0.080421
0.089578
0.099944
0.11207
0.1266
0.14419
0.1655
0.19111
0.22165
0.25784
0.30054
0.35061
0.40859
0.47455
0.54798
0.62798
0.71327
0.80222
0.89267
0.98176
1.0657
1.1394
1.1967
1.2315
1.2412
1.2253
1.1843
1.1199
1.0354
0.93297
0.81388
0.68063
0.53908
0.39869
0.2707
0.16518
0.087989
0.037705
0.0094718
0.0039703
0.012058
0.020438
0.029183
0.038125
0.047009
0.0556
0.063849
0.071912
0.080231
0.089255
0.099471
0.11143
0.12577
0.14319
0.16432
0.18976
0.2201
0.25605
0.29853
0.34844
0.4064
0.47247
0.54614
0.62647
0.7122
0.80174
0.89297
0.98308
1.0683
1.1435
1.2022
1.2373
1.246
1.2323
1.1907
1.1254
1.0404
0.93745
0.81752
0.68265
0.53865
0.39548
0.26512
0.15832
0.081356
0.033719
0.0084199
0.003938
0.011985
0.020365
0.029168
0.038183
0.04712
0.055699
0.063863
0.071801
0.079974
0.088847
0.098905
0.11069
0.12484
0.14207
0.16304
0.1883
0.21842
0.25412
0.29634
0.34605
0.40394
0.47007
0.54394
0.62458
0.71075
0.8009
0.89296
0.98418
1.0708
1.1476
1.208
1.2435
1.2517
1.2395
1.1977
1.1316
1.0459
0.94254
0.82186
0.68536
0.5387
0.39238
0.2593
0.15108
0.074366
0.029236
0.0070665
0.0039773
0.012077
0.020466
0.029215
0.038154
0.047029
0.055606
0.063835
0.071886
0.080193
0.089207
0.09942
0.11138
0.12573
0.14316
0.16431
0.18976
0.2201
0.25606
0.29853
0.34845
0.4064
0.47245
0.54611
0.62642
0.71215
0.80169
0.89292
0.98304
1.0683
1.1435
1.2022
1.2373
1.246
1.2322
1.1906
1.1254
1.0403
0.93736
0.81744
0.68258
0.5386
0.39544
0.26507
0.15827
0.081315
0.033687
0.0084084
0.0039977
0.012125
0.02052
0.029241
0.038138
0.046978
0.055552
0.063817
0.071944
0.080336
0.089443
0.099759
0.11184
0.12631
0.14386
0.16512
0.1907
0.22118
0.2573
0.29993
0.34996
0.40795
0.47394
0.54745
0.62755
0.71297
0.80211
0.8928
0.9822
1.0665
1.1406
1.1982
1.2325
1.2409
1.2266
1.186
1.1214
1.0367
0.93417
0.8148
0.68102
0.5387
0.39749
0.26889
0.16317
0.08632
0.037002
0.0097312
0.0040078
0.012148
0.020544
0.02925
0.038127
0.046951
0.055526
0.063814
0.071976
0.080412
0.089567
0.099935
0.11207
0.1266
0.14421
0.16554
0.19117
0.22173
0.25793
0.30064
0.35073
0.40874
0.47471
0.54815
0.62814
0.71342
0.80235
0.89277
0.98181
1.0656
1.1392
1.1962
1.2303
1.2387
1.2245
1.1838
1.1194
1.0349
0.93254
0.81345
0.68021
0.53869
0.39844
0.27071
0.16552
0.088726
0.038563
0.010368
0.0040067
0.012145
0.02054
0.029245
0.038123
0.046949
0.055526
0.063817
0.071981
0.080419
0.089575
0.099943
0.11208
0.12661
0.14422
0.16554
0.19117
0.22172
0.25792
0.30064
0.35073
0.40874
0.47471
0.54816
0.62815
0.71343
0.80236
0.89278
0.98181
1.0656
1.1392
1.1962
1.2303
1.2387
1.2245
1.1838
1.1194
1.035
0.93255
0.81346
0.68022
0.5387
0.39845
0.27072
0.16553
0.088733
0.038568
0.010369
0.0039944
0.012116
0.020507
0.029226
0.038125
0.046971
0.055552
0.063827
0.071959
0.080357
0.089468
0.099784
0.11186
0.12633
0.14387
0.16513
0.1907
0.22117
0.25729
0.29993
0.34996
0.40795
0.47395
0.54747
0.62757
0.713
0.80213
0.89282
0.98222
1.0665
1.1406
1.1982
1.2325
1.2409
1.2267
1.186
1.1214
1.0368
0.93421
0.81483
0.68106
0.53872
0.39751
0.26891
0.16319
0.086342
0.037019
0.0097373
0.0039718
0.012062
0.020444
0.029191
0.038133
0.047017
0.055606
0.063851
0.071912
0.080228
0.089249
0.099463
0.11142
0.12576
0.14317
0.16431
0.18975
0.22009
0.25604
0.29852
0.34843
0.4064
0.47246
0.54613
0.62646
0.71219
0.80173
0.89296
0.98308
1.0683
1.1435
1.2022
1.2373
1.246
1.2323
1.1907
1.1254
1.0403
0.93743
0.8175
0.68264
0.53864
0.39548
0.26511
0.15832
0.081353
0.033717
0.0084201
0.0039302
0.011962
0.020333
0.029134
0.038153
0.047103
0.0557
0.06389
0.071838
0.080026
0.088907
0.098965
0.11074
0.12488
0.1421
0.16304
0.18829
0.21841
0.2541
0.29631
0.34604
0.40393
0.47008
0.54397
0.62463
0.71081
0.80096
0.89302
0.98423
1.0708
1.1477
1.208
1.2435
1.2518
1.2396
1.1978
1.1317
1.046
0.94264
0.82196
0.68545
0.53877
0.39243
0.25936
0.15114
0.074422
0.029282
0.0070845
-0.0015925
0.0058771
0.041214
0.11705
0.23057
0.3732
0.53097
0.68784
0.83104
0.9548
1.0596
1.1475
1.2175
1.2614
1.2755
1.2735
1.2334
1.1663
1.0832
0.99153
0.89635
0.80125
0.70882
0.62089
0.53884
0.46385
0.39701
0.33898
0.28968
0.24825
0.21337
0.18391
0.15916
0.13867
0.12199
0.10844
0.097236
0.087695
0.07928
0.071512
0.063866
0.055841
0.047174
0.038062
0.028964
0.020237
0.011966
0.0039458
0.0016587
0.014012
0.051966
0.12697
0.23786
0.37652
0.52978
0.68297
0.82411
0.94719
1.0517
1.1388
1.207
1.2493
1.2627
1.261
1.2249
1.1612
1.0806
0.99065
0.89683
0.80275
0.71107
0.62369
0.54205
0.46734
0.40059
0.34242
0.29279
0.25094
0.21568
0.18592
0.16092
0.14018
0.12322
0.10938
0.097931
0.088179
0.079569
0.071606
0.063784
0.05566
0.047012
0.038014
0.029045
0.020389
0.012097
0.0039994
0.0032817
0.018674
0.058498
0.13389
0.24404
0.38099
0.53211
0.6833
0.82311
0.94561
1.05
1.1369
1.2048
1.2478
1.2608
1.2556
1.22
1.1574
1.0779
0.98899
0.89591
0.8024
0.71113
0.62408
0.5427
0.46822
0.40163
0.34354
0.29388
0.25191
0.21651
0.18664
0.16156
0.14076
0.12371
0.10978
0.098219
0.088369
0.079674
0.071642
0.063779
0.055636
0.047007
0.038036
0.02907
0.020386
0.012075
0.003987
0.0038127
0.020239
0.060761
0.13631
0.24603
0.38195
0.53181
0.68193
0.82108
0.94331
1.0475
1.1342
1.2018
1.2448
1.2585
1.2532
1.2179
1.1559
1.077
0.98864
0.89598
0.80277
0.71172
0.62483
0.54357
0.46918
0.40263
0.3445
0.29476
0.25268
0.21717
0.18721
0.16206
0.14119
0.12407
0.11006
0.09843
0.088516
0.079763
0.071675
0.063763
0.055597
0.04697
0.038022
0.029082
0.020417
0.012103
0.003999
0.0038132
0.020239
0.060761
0.13631
0.24603
0.38195
0.53182
0.68195
0.82111
0.94334
1.0476
1.1343
1.2018
1.2448
1.2585
1.2532
1.2179
1.1559
1.077
0.98864
0.89598
0.80277
0.71173
0.62483
0.54357
0.46917
0.40262
0.3445
0.29475
0.25268
0.21717
0.18721
0.16206
0.14119
0.12408
0.11007
0.09844
0.088526
0.079772
0.071681
0.063766
0.055596
0.046966
0.038016
0.029076
0.020411
0.012099
0.0039975
0.0032834
0.018677
0.0585
0.13389
0.24405
0.38101
0.53214
0.68336
0.82318
0.94571
1.0501
1.137
1.2049
1.2478
1.2608
1.2556
1.2201
1.1574
1.0779
0.98901
0.89593
0.80242
0.71115
0.62408
0.54269
0.4682
0.40161
0.34352
0.29386
0.25189
0.2165
0.18664
0.16157
0.14077
0.12374
0.10981
0.098251
0.0884
0.079701
0.071662
0.063789
0.055634
0.046996
0.038018
0.029049
0.020368
0.012062
0.0039826
0.0016637
0.014022
0.051975
0.12697
0.23787
0.37655
0.52984
0.68306
0.82424
0.94736
1.0519
1.139
1.2071
1.2494
1.2628
1.261
1.2249
1.1612
1.0806
0.99069
0.89687
0.80279
0.7111
0.6237
0.54204
0.46731
0.40055
0.34238
0.29276
0.25091
0.21566
0.18591
0.16092
0.1402
0.12325
0.10943
0.097983
0.08823
0.079613
0.071638
0.063802
0.055654
0.046988
0.037981
0.029009
0.020357
0.012075
0.0039917
-0.001585
0.005894
0.04123
0.11706
0.23058
0.37323
0.53104
0.68796
0.83121
0.95503
1.0599
1.1478
1.2177
1.2615
1.2756
1.2735
1.2335
1.1663
1.0832
0.99157
0.8964
0.80131
0.70886
0.62091
0.53883
0.46382
0.39696
0.33892
0.28963
0.24821
0.21335
0.1839
0.15917
0.1387
0.12204
0.1085
0.097309
0.087768
0.079343
0.071556
0.063885
0.055834
0.047144
0.038016
0.028913
0.020192
0.011936
0.003935
-0.02361
-0.051877
-0.034954
0.042119
0.17768
0.3556
0.55041
0.73498
0.89107
1.0161
1.1198
1.2125
1.2958
1.36
1.3864
1.3556
1.2894
1.1996
1.0979
0.99264
0.88782
0.78576
0.68842
0.59707
0.51248
0.43583
0.36876
0.31227
0.26598
0.22812
0.19632
0.16908
0.14613
0.12755
0.11304
0.10168
0.092319
0.084227
0.077164
0.070878
0.064709
0.057629
0.04882
0.038584
0.028115
0.018563
0.010467
0.0033322
-0.021773
-0.046571
-0.027976
0.047443
0.18066
0.3557
0.54758
0.73013
0.8856
1.011
1.115
1.2074
1.2892
1.351
1.3776
1.3496
1.2856
1.1981
1.0975
0.99293
0.88867
0.78712
0.69014
0.599
0.51457
0.43803
0.37097
0.31431
0.26773
0.22955
0.19752
0.17016
0.14711
0.12839
0.11371
0.10216
0.092663
0.084487
0.07734
0.070932
0.064602
0.057388
0.048599
0.038486
0.028179
0.018743
0.010638
0.0033997
-0.020818
-0.043803
-0.023736
0.051999
0.18385
0.357
0.54699
0.72815
0.88312
1.0088
1.1133
1.2058
1.2871
1.348
1.3736
1.3467
1.2833
1.1965
1.0967
0.99261
0.88868
0.78738
0.69056
0.59953
0.51519
0.43877
0.37175
0.31507
0.2684
0.2301
0.19796
0.17055
0.14746
0.12871
0.11396
0.10235
0.092794
0.084577
0.077392
0.070935
0.064549
0.057308
0.048522
0.038458
0.028205
0.018788
0.010673
0.0034114
-0.0205
-0.042851
-0.022195
0.053982
0.18542
0.35743
0.54609
0.72624
0.88076
1.0065
1.1113
1.204
1.2854
1.3463
1.3717
1.3454
1.2822
1.1956
1.0963
0.99266
0.889
0.78781
0.69105
0.60005
0.51576
0.43937
0.37236
0.31567