/*--------------------------------*- C++ -*----------------------------------*\
| =========                 |                                                 |
| \\      /  F ield         | OpenFOAM: The Open Source CFD Toolbox           |
|  \\    /   O peration     | Version:  4.1                                   |
|   \\  /    A nd           | Web:      www.OpenFOAM.org                      |
|    \\/     M anipulation  |                                                 |
\*---------------------------------------------------------------------------*/
FoamFile
{
    version     2.0;
    format      ascii;
    class       pointVectorField;
    location    "0.0045";
    object      pointDisplacement;
}
// * * * * * * * * * * * * * * * * * * * * * * * * * * * * * * * * * * * * * //

dimensions      [0 1 0 0 0 0 0];

internalField   nonuniform List<vector> 
7105
(
(0 0 0)
(-6.294e-06 -8.8262e-07 5.4491e-11)
(-1.1883e-05 -1.0989e-06 7.5101e-11)
(-1.6467e-05 -5.4873e-07 5.7534e-11)
(-2.025e-05 2.3775e-07 2.615e-11)
(-2.3655e-05 6.5091e-07 1.2551e-11)
(-2.6962e-05 5.3337e-07 3.1766e-11)
(-3.0236e-05 1.1135e-07 7.9661e-11)
(-3.3448e-05 -3.745e-07 1.4563e-10)
(-3.6569e-05 -8.3295e-07 2.1455e-10)
(-3.9583e-05 -1.2719e-06 2.7501e-10)
(-4.2482e-05 -1.7308e-06 3.3169e-10)
(-4.5255e-05 -2.2558e-06 3.9157e-10)
(-4.789e-05 -2.8939e-06 4.5523e-10)
(-5.0374e-05 -3.6886e-06 5.2522e-10)
(-5.2692e-05 -4.6748e-06 6.0785e-10)
(-5.4825e-05 -5.8772e-06 7.1025e-10)
(-5.6744e-05 -7.3235e-06 8.4913e-10)
(-5.8411e-05 -9.0585e-06 1.0429e-09)
(-5.9781e-05 -1.1147e-05 1.2917e-09)
(-6.0809e-05 -1.3664e-05 1.5951e-09)
(-6.1462e-05 -1.6681e-05 1.9653e-09)
(-6.1716e-05 -2.0247e-05 2.4134e-09)
(-6.1554e-05 -2.4368e-05 2.9372e-09)
(-6.0951e-05 -2.9003e-05 3.5335e-09)
(-5.9878e-05 -3.4091e-05 4.2077e-09)
(-5.8306e-05 -3.9581e-05 4.9494e-09)
(-5.6221e-05 -4.543e-05 5.7355e-09)
(-5.364e-05 -5.1562e-05 6.546e-09)
(-5.0622e-05 -5.7809e-05 7.3482e-09)
(-4.7277e-05 -6.385e-05 8.0837e-09)
(-4.3745e-05 -6.9214e-05 8.6824e-09)
(-4.015e-05 -7.3337e-05 9.0794e-09)
(-3.6545e-05 -7.569e-05 9.2292e-09)
(-3.2901e-05 -7.5951e-05 9.1357e-09)
(-2.9168e-05 -7.4151e-05 8.8301e-09)
(-2.5369e-05 -7.0631e-05 8.3253e-09)
(-2.1644e-05 -6.5772e-05 7.6413e-09)
(-1.8214e-05 -5.9734e-05 6.8283e-09)
(-1.5265e-05 -5.2442e-05 5.9197e-09)
(-1.2843e-05 -4.38e-05 4.9237e-09)
(-1.0841e-05 -3.3989e-05 3.8718e-09)
(-9.0649e-06 -2.3656e-05 2.8205e-09)
(-7.3305e-06 -1.3865e-05 1.8414e-09)
(-5.5557e-06 -5.8202e-06 1.024e-09)
(-3.8083e-06 -4.6466e-07 4.4119e-10)
(-2.2544e-06 1.8807e-06 1.1214e-10)
(-1.0084e-06 1.668e-06 -3.7494e-12)
(0 0 0)
(0 0 0)
(-6.156e-06 -7.2284e-07 8.903e-08)
(-1.1679e-05 -9.0474e-07 1.1109e-07)
(-1.6288e-05 -4.6243e-07 5.5852e-08)
(-2.0143e-05 1.8119e-07 -2.4263e-08)
(-2.3606e-05 5.3145e-07 -6.7932e-08)
(-2.6937e-05 4.4459e-07 -5.6942e-08)
(-3.0214e-05 8.9902e-08 -1.2114e-08)
(-3.3423e-05 -3.3501e-07 4.1697e-08)
(-3.654e-05 -7.4611e-07 9.3693e-08)
(-3.9552e-05 -1.1442e-06 1.439e-07)
(-4.2448e-05 -1.5616e-06 1.9642e-07)
(-4.5217e-05 -2.0386e-06 2.5644e-07)
(-4.7849e-05 -2.6167e-06 3.2918e-07)
(-5.0328e-05 -3.3344e-06 4.1937e-07)
(-5.2641e-05 -4.2229e-06 5.3088e-07)
(-5.4766e-05 -5.3059e-06 6.668e-07)
(-5.6675e-05 -6.6096e-06 8.3045e-07)
(-5.8331e-05 -8.1744e-06 1.0268e-06)
(-5.969e-05 -1.0057e-05 1.2627e-06)
(-6.071e-05 -1.2324e-05 1.5468e-06)
(-6.1355e-05 -1.5037e-05 1.8867e-06)
(-6.1603e-05 -1.8238e-05 2.2873e-06)
(-6.1435e-05 -2.1931e-05 2.7489e-06)
(-6.0825e-05 -2.6082e-05 3.2674e-06)
(-5.9746e-05 -3.0641e-05 3.8366e-06)
(-5.8173e-05 -3.556e-05 4.4504e-06)
(-5.6095e-05 -4.0796e-05 5.103e-06)
(-5.353e-05 -4.6275e-05 5.7854e-06)
(-5.0539e-05 -5.1838e-05 6.478e-06)
(-4.7226e-05 -5.72e-05 7.1451e-06)
(-4.3722e-05 -6.1943e-05 7.7347e-06)
(-4.014e-05 -6.5578e-05 8.1853e-06)
(-3.6534e-05 -6.7649e-05 8.4407e-06)
(-3.2887e-05 -6.7883e-05 8.4681e-06)
(-2.9164e-05 -6.6303e-05 8.2707e-06)
(-2.5397e-05 -6.3183e-05 7.882e-06)
(-2.1718e-05 -5.884e-05 7.3405e-06)
(-1.8325e-05 -5.3416e-05 6.6643e-06)
(-1.5385e-05 -4.6866e-05 5.8484e-06)
(-1.294e-05 -3.914e-05 4.8862e-06)
(-1.0898e-05 -3.042e-05 3.7999e-06)
(-9.0839e-06 -2.1281e-05 2.6608e-06)
(-7.3329e-06 -1.2643e-05 1.5838e-06)
(-5.5701e-06 -5.5397e-06 6.9826e-07)
(-3.8511e-06 -7.7559e-07 1.0414e-07)
(-2.3148e-06 1.3804e-06 -1.6574e-07)
(-1.0531e-06 1.321e-06 -1.6094e-07)
(0 0 0)
(0 0 0)
(-6.0624e-06 -5.927e-07 1.9103e-07)
(-1.154e-05 -7.4507e-07 2.3992e-07)
(-1.6165e-05 -3.8777e-07 1.2442e-07)
(-2.0067e-05 1.3982e-07 -4.5689e-08)
(-2.357e-05 4.3494e-07 -1.4032e-07)
(-2.6918e-05 3.6975e-07 -1.1875e-07)
(-3.0198e-05 7.2347e-08 -2.2685e-08)
(-3.3405e-05 -2.9512e-07 9.5752e-08)
(-3.6521e-05 -6.5753e-07 2.1268e-07)
(-3.953e-05 -1.0117e-06 3.2713e-07)
(-4.2424e-05 -1.3837e-06 4.4748e-07)
(-4.5191e-05 -1.8086e-06 5.8497e-07)
(-4.782e-05 -2.3225e-06 7.5121e-07)
(-5.0296e-05 -2.959e-06 9.5693e-07)
(-5.2605e-05 -3.7455e-06 1.211e-06)
(-5.4724e-05 -4.7039e-06 1.5205e-06)
(-5.6627e-05 -5.8582e-06 1.8933e-06)
(-5.8275e-05 -7.2442e-06 2.3407e-06)
(-5.9627e-05 -8.9114e-06 2.8786e-06)
(-6.064e-05 -1.0917e-05 3.5254e-06)
(-6.128e-05 -1.3314e-05 4.2982e-06)
(-6.1524e-05 -1.6137e-05 5.2079e-06)
(-6.1351e-05 -1.9391e-05 6.2555e-06)
(-6.0737e-05 -2.3048e-05 7.4321e-06)
(-5.9655e-05 -2.7063e-05 8.724e-06)
(-5.8081e-05 -3.1396e-05 1.0117e-05)
(-5.6007e-05 -3.6004e-05 1.1598e-05)
(-5.3454e-05 -4.0818e-05 1.3144e-05)
(-5.0482e-05 -4.5695e-05 1.471e-05)
(-4.7191e-05 -5.0382e-05 1.6213e-05)
(-4.3706e-05 -5.4517e-05 1.7539e-05)
(-4.0134e-05 -5.7678e-05 1.8551e-05)
(-3.6528e-05 -5.9477e-05 1.9125e-05)
(-3.2878e-05 -5.9682e-05 1.9189e-05)
(-2.9163e-05 -5.8309e-05 1.8746e-05)
(-2.5418e-05 -5.5583e-05 1.787e-05)
(-2.177e-05 -5.1764e-05 1.6641e-05)
(-1.8402e-05 -4.6977e-05 1.5102e-05)
(-1.5467e-05 -4.1199e-05 1.3246e-05)
(-1.3007e-05 -3.4406e-05 1.1064e-05)
(-1.0936e-05 -2.6774e-05 8.6149e-06)
(-9.096e-06 -1.8805e-05 6.0572e-06)
(-7.334e-06 -1.1288e-05 3.6445e-06)
(-5.5797e-06 -5.1021e-06 1.6583e-06)
(-3.8803e-06 -9.2814e-07 3.1635e-07)
(-2.3558e-06 1.0087e-06 -3.097e-07)
(-1.0835e-06 1.0457e-06 -3.2802e-07)
(0 0 0)
(0 0 0)
(-6.0072e-06 -4.8225e-07 2.884e-07)
(-1.1457e-05 -6.0808e-07 3.6368e-07)
(-1.609e-05 -3.2021e-07 1.9175e-07)
(-2.002e-05 1.0834e-07 -6.3761e-08)
(-2.3546e-05 3.5104e-07 -2.0759e-07)
(-2.6906e-05 3.0035e-07 -1.7667e-07)
(-3.0188e-05 5.6021e-08 -3.1448e-08)
(-3.3394e-05 -2.5094e-07 1.5045e-07)
(-3.6508e-05 -5.5743e-07 3.3226e-07)
(-3.9516e-05 -8.5897e-07 5.115e-07)
(-4.2409e-05 -1.1765e-06 7.005e-07)
(-4.5175e-05 -1.539e-06 9.1634e-07)
(-4.7802e-05 -1.9768e-06 1.177e-06)
(-5.0276e-05 -2.5182e-06 1.4991e-06)
(-5.2582e-05 -3.1866e-06 1.8968e-06)
(-5.4698e-05 -4.0008e-06 2.3812e-06)
(-5.6596e-05 -4.9818e-06 2.9647e-06)
(-5.824e-05 -6.1598e-06 3.6652e-06)
(-5.9586e-05 -7.5765e-06 4.5075e-06)
(-6.0596e-05 -9.2794e-06 5.5197e-06)
(-6.1233e-05 -1.1313e-05 6.728e-06)
(-6.1474e-05 -1.3706e-05 8.1496e-06)
(-6.1299e-05 -1.6462e-05 9.7863e-06)
(-6.0682e-05 -1.9558e-05 1.1625e-05)
(-5.9597e-05 -2.2957e-05 1.3643e-05)
(-5.8023e-05 -2.6625e-05 1.582e-05)
(-5.5952e-05 -3.0525e-05 1.8134e-05)
(-5.3407e-05 -3.4594e-05 2.0547e-05)
(-5.0447e-05 -3.8709e-05 2.2987e-05)
(-4.7169e-05 -4.2658e-05 2.5327e-05)
(-4.3695e-05 -4.6135e-05 2.7387e-05)
(-4.0129e-05 -4.8789e-05 2.8959e-05)
(-3.6524e-05 -5.0298e-05 2.9852e-05)
(-3.2873e-05 -5.047e-05 2.9952e-05)
(-2.9163e-05 -4.9317e-05 2.9267e-05)
(-2.5432e-05 -4.7018e-05 2.7902e-05)
(-2.1802e-05 -4.3788e-05 2.5984e-05)
(-1.8449e-05 -3.973e-05 2.3575e-05)
(-1.5518e-05 -3.4834e-05 2.0671e-05)
(-1.3048e-05 -2.9091e-05 1.7265e-05)
(-1.096e-05 -2.2658e-05 1.3452e-05)
(-9.1043e-06 -1.5956e-05 9.479e-06)
(-7.3357e-06 -9.6419e-06 5.7361e-06)
(-5.5864e-06 -4.4426e-06 2.6531e-06)
(-3.8983e-06 -9.196e-07 5.6182e-07)
(-2.3803e-06 7.4176e-07 -4.2768e-07)
(-1.1014e-06 8.218e-07 -4.8091e-07)
(0 0 0)
(0 0 0)
(-5.989e-06 -3.8362e-07 3.8375e-07)
(-1.143e-05 -4.843e-07 4.8456e-07)
(-1.6065e-05 -2.5627e-07 2.5664e-07)
(-2.0003e-05 8.3844e-08 -8.337e-08)
(-2.3538e-05 2.7655e-07 -2.76e-07)
(-2.6902e-05 2.3645e-07 -2.3586e-07)
(-3.0185e-05 4.2368e-08 -4.1755e-08)
(-3.339e-05 -2.0239e-07 2.0301e-07)
(-3.6504e-05 -4.4794e-07 4.4857e-07)
(-3.9512e-05 -6.9037e-07 6.9101e-07)
(-4.2404e-05 -9.4606e-07 9.4669e-07)
(-4.5169e-05 -1.238e-06 1.2386e-06)
(-4.7795e-05 -1.5903e-06 1.591e-06)
(-5.0269e-05 -2.0258e-06 2.0264e-06)
(-5.2574e-05 -2.5633e-06 2.5638e-06)
(-5.4689e-05 -3.2179e-06 3.2184e-06)
(-5.6586e-05 -4.0065e-06 4.007e-06)
(-5.8227e-05 -4.9536e-06 4.954e-06)
(-5.9573e-05 -6.0923e-06 6.0927e-06)
(-6.058e-05 -7.4606e-06 7.4609e-06)
(-6.1217e-05 -9.0937e-06 9.0941e-06)
(-6.1457e-05 -1.1015e-05 1.1015e-05)
(-6.1281e-05 -1.3227e-05 1.3227e-05)
(-6.0663e-05 -1.5711e-05 1.5712e-05)
(-5.9577e-05 -1.8439e-05 1.844e-05)
(-5.8003e-05 -2.1382e-05 2.1382e-05)
(-5.5933e-05 -2.4509e-05 2.451e-05)
(-5.3391e-05 -2.7771e-05 2.7772e-05)
(-5.0434e-05 -3.1068e-05 3.1069e-05)
(-4.7162e-05 -3.4228e-05 3.423e-05)
(-4.3692e-05 -3.701e-05 3.7011e-05)
(-4.0128e-05 -3.9131e-05 3.9133e-05)
(-3.6522e-05 -4.0337e-05 4.0339e-05)
(-3.2872e-05 -4.0475e-05 4.0476e-05)
(-2.9164e-05 -3.9551e-05 3.9552e-05)
(-2.5437e-05 -3.7709e-05 3.771e-05)
(-2.1813e-05 -3.5117e-05 3.5118e-05)
(-1.8465e-05 -3.186e-05 3.1861e-05)
(-1.5535e-05 -2.7931e-05 2.7933e-05)
(-1.3062e-05 -2.3328e-05 2.3329e-05)
(-1.0968e-05 -1.8177e-05 1.8178e-05)
(-9.1073e-06 -1.2815e-05 1.2816e-05)
(-7.3365e-06 -7.7657e-06 7.7661e-06)
(-5.5889e-06 -3.6059e-06 3.6061e-06)
(-3.9044e-06 -7.8191e-07 7.8196e-07)
(-2.3884e-06 5.5883e-07 -5.5885e-07)
(-1.1073e-06 6.3902e-07 -6.3905e-07)
(0 0 0)
(0 0 0)
(-6.0071e-06 -2.8828e-07 4.8239e-07)
(-1.1457e-05 -3.6344e-07 6.0836e-07)
(-1.609e-05 -1.914e-07 3.2062e-07)
(-2.002e-05 6.4205e-08 -1.0783e-07)
(-2.3546e-05 2.081e-07 -3.5045e-07)
(-2.6906e-05 1.7723e-07 -2.9972e-07)
(-3.0188e-05 3.2041e-08 -5.5379e-08)
(-3.3394e-05 -1.4984e-07 2.5158e-07)
(-3.6508e-05 -3.3164e-07 5.5807e-07)
(-3.9516e-05 -5.1087e-07 8.5961e-07)
(-4.2409e-05 -6.9988e-07 1.1772e-06)
(-4.5175e-05 -9.1573e-07 1.5397e-06)
(-4.7802e-05 -1.1764e-06 1.9775e-06)
(-5.0276e-05 -1.4986e-06 2.5188e-06)
(-5.2582e-05 -1.8963e-06 3.1872e-06)
(-5.4698e-05 -2.3807e-06 4.0014e-06)
(-5.6596e-05 -2.9643e-06 4.9822e-06)
(-5.824e-05 -3.6649e-06 6.1602e-06)
(-5.9586e-05 -4.5071e-06 7.5768e-06)
(-6.0596e-05 -5.5193e-06 9.2797e-06)
(-6.1233e-05 -6.7276e-06 1.1313e-05)
(-6.1474e-05 -8.1492e-06 1.3706e-05)
(-6.1299e-05 -9.7858e-06 1.6462e-05)
(-6.0682e-05 -1.1624e-05 1.9558e-05)
(-5.9597e-05 -1.3642e-05 2.2958e-05)
(-5.8023e-05 -1.5819e-05 2.6626e-05)
(-5.5952e-05 -1.8132e-05 3.0525e-05)
(-5.3407e-05 -2.0545e-05 3.4595e-05)
(-5.0447e-05 -2.2985e-05 3.871e-05)
(-4.7169e-05 -2.5325e-05 4.2659e-05)
(-4.3695e-05 -2.7385e-05 4.6136e-05)
(-4.0129e-05 -2.8957e-05 4.879e-05)
(-3.6524e-05 -2.985e-05 5.0299e-05)
(-3.2873e-05 -2.995e-05 5.0472e-05)
(-2.9163e-05 -2.9265e-05 4.9318e-05)
(-2.5432e-05 -2.79e-05 4.702e-05)
(-2.1802e-05 -2.5982e-05 4.3789e-05)
(-1.8449e-05 -2.3574e-05 3.9731e-05)
(-1.5518e-05 -2.0669e-05 3.4835e-05)
(-1.3048e-05 -1.7264e-05 2.9092e-05)
(-1.096e-05 -1.3451e-05 2.2659e-05)
(-9.1043e-06 -9.4782e-06 1.5957e-05)
(-7.3357e-06 -5.7356e-06 9.6421e-06)
(-5.5865e-06 -2.6528e-06 4.4426e-06)
(-3.8983e-06 -5.6166e-07 9.1951e-07)
(-2.3803e-06 4.2774e-07 -7.4188e-07)
(-1.1014e-06 4.8092e-07 -8.2188e-07)
(0 0 0)
(0 0 0)
(-6.0623e-06 -1.9091e-07 5.9285e-07)
(-1.154e-05 -2.3969e-07 7.4538e-07)
(-1.6164e-05 -1.2407e-07 3.8822e-07)
(-2.0067e-05 4.612e-08 -1.3925e-07)
(-2.357e-05 1.4083e-07 -4.343e-07)
(-2.6918e-05 1.193e-07 -3.6908e-07)
(-3.0198e-05 2.3269e-08 -7.1673e-08)
(-3.3405e-05 -9.5149e-08 2.9578e-07)
(-3.652e-05 -2.1207e-07 6.5819e-07)
(-3.953e-05 -3.2651e-07 1.0123e-06)
(-4.2424e-05 -4.4687e-07 1.3844e-06)
(-4.5191e-05 -5.8437e-07 1.8093e-06)
(-4.782e-05 -7.5064e-07 2.3232e-06)
(-5.0296e-05 -9.564e-07 2.9596e-06)
(-5.2605e-05 -1.2105e-06 3.7461e-06)
(-5.4724e-05 -1.5201e-06 4.7044e-06)
(-5.6627e-05 -1.8929e-06 5.8587e-06)
(-5.8275e-05 -2.3404e-06 7.2446e-06)
(-5.9627e-05 -2.8783e-06 8.9118e-06)
(-6.064e-05 -3.5251e-06 1.0917e-05)
(-6.128e-05 -4.2978e-06 1.3314e-05)
(-6.1524e-05 -5.2074e-06 1.6137e-05)
(-6.1351e-05 -6.2549e-06 1.9391e-05)
(-6.0737e-05 -7.4314e-06 2.3048e-05)
(-5.9655e-05 -8.7231e-06 2.7063e-05)
(-5.8081e-05 -1.0116e-05 3.1396e-05)
(-5.6007e-05 -1.1597e-05 3.6004e-05)
(-5.3454e-05 -1.3143e-05 4.0819e-05)
(-5.0482e-05 -1.4708e-05 4.5696e-05)
(-4.7191e-05 -1.6211e-05 5.0383e-05)
(-4.3706e-05 -1.7537e-05 5.4518e-05)
(-4.0134e-05 -1.8549e-05 5.7679e-05)
(-3.6528e-05 -1.9123e-05 5.9478e-05)
(-3.2878e-05 -1.9187e-05 5.9683e-05)
(-2.9163e-05 -1.8744e-05 5.831e-05)
(-2.5418e-05 -1.7868e-05 5.5584e-05)
(-2.177e-05 -1.664e-05 5.1765e-05)
(-1.8402e-05 -1.51e-05 4.6978e-05)
(-1.5467e-05 -1.3244e-05 4.12e-05)
(-1.3007e-05 -1.1063e-05 3.4406e-05)
(-1.0936e-05 -8.6138e-06 2.6775e-05)
(-9.0961e-06 -6.0563e-06 1.8805e-05)
(-7.3341e-06 -3.6439e-06 1.1288e-05)
(-5.5797e-06 -1.6579e-06 5.102e-06)
(-3.8804e-06 -3.1613e-07 9.2789e-07)
(-2.3559e-06 3.098e-07 -1.0089e-06)
(-1.0835e-06 3.2805e-07 -1.0459e-06)
(0 0 0)
(0 0 0)
(-6.1559e-06 -8.8911e-08 7.2301e-07)
(-1.1679e-05 -1.1085e-07 9.0508e-07)
(-1.6288e-05 -5.551e-08 4.6292e-07)
(-2.0143e-05 2.4697e-08 -1.8057e-07)
(-2.3605e-05 6.8437e-08 -5.3076e-07)
(-2.6936e-05 5.7497e-08 -4.4388e-07)
(-3.0213e-05 1.2699e-08 -8.9198e-08)
(-3.3423e-05 -4.1095e-08 3.3569e-07)
(-3.654e-05 -9.3082e-08 7.4678e-07)
(-3.9552e-05 -1.4329e-07 1.1449e-06)
(-4.2448e-05 -1.9582e-07 1.5623e-06)
(-4.5217e-05 -2.5586e-07 2.0393e-06)
(-4.7849e-05 -3.2863e-07 2.6174e-06)
(-5.0328e-05 -4.1888e-07 3.3351e-06)
(-5.2641e-05 -5.3044e-07 4.2236e-06)
(-5.4766e-05 -6.6641e-07 5.3065e-06)
(-5.6675e-05 -8.3012e-07 6.6101e-06)
(-5.8331e-05 -1.0265e-06 8.1749e-06)
(-5.969e-05 -1.2625e-06 1.0058e-05)
(-6.071e-05 -1.5465e-06 1.2324e-05)
(-6.1355e-05 -1.8864e-06 1.5037e-05)
(-6.1603e-05 -2.2869e-06 1.8238e-05)
(-6.1435e-05 -2.7484e-06 2.1931e-05)
(-6.0825e-05 -3.2668e-06 2.6082e-05)
(-5.9746e-05 -3.8358e-06 3.0641e-05)
(-5.8173e-05 -4.4494e-06 3.556e-05)
(-5.6095e-05 -5.1019e-06 4.0796e-05)
(-5.353e-05 -5.7841e-06 4.6274e-05)
(-5.0539e-05 -6.4765e-06 5.1838e-05)
(-4.7226e-05 -7.1434e-06 5.72e-05)
(-4.3722e-05 -7.7328e-06 6.1944e-05)
(-4.014e-05 -8.1834e-06 6.5579e-05)
(-3.6534e-05 -8.4388e-06 6.765e-05)
(-3.2887e-05 -8.4663e-06 6.7884e-05)
(-2.9164e-05 -8.2689e-06 6.6303e-05)
(-2.5397e-05 -7.8803e-06 6.3183e-05)
(-2.1718e-05 -7.3389e-06 5.884e-05)
(-1.8325e-05 -6.6628e-06 5.3416e-05)
(-1.5385e-05 -5.8471e-06 4.6866e-05)
(-1.294e-05 -4.885e-06 3.914e-05)
(-1.0898e-05 -3.7989e-06 3.042e-05)
(-9.0839e-06 -2.66e-06 2.128e-05)
(-7.333e-06 -1.5833e-06 1.2642e-05)
(-5.5701e-06 -6.9789e-07 5.5394e-06)
(-3.8512e-06 -1.0393e-07 7.7519e-07)
(-2.3148e-06 1.6584e-07 -1.3807e-06)
(-1.0531e-06 1.6098e-07 -1.3212e-06)
(0 0 0)
(0 0 0)
(-6.2939e-06 6.4405e-11 8.8279e-07)
(-1.1883e-05 1.6134e-10 1.0993e-06)
(-1.6466e-05 2.9019e-10 5.4924e-07)
(-2.025e-05 4.1803e-10 -2.371e-07)
(-2.3655e-05 5.0528e-10 -6.5019e-07)
(-2.6962e-05 5.3443e-10 -5.3264e-07)
(-3.0236e-05 5.1378e-10 -1.1063e-07)
(-3.3448e-05 4.6061e-10 3.7519e-07)
(-3.6568e-05 3.9503e-10 8.3362e-07)
(-3.9583e-05 3.3022e-10 1.2726e-06)
(-4.2482e-05 2.5962e-10 1.7315e-06)
(-4.5255e-05 1.7264e-10 2.2566e-06)
(-4.789e-05 6.6081e-11 2.8946e-06)
(-5.0374e-05 -6.1755e-11 3.6894e-06)
(-5.2692e-05 -2.1181e-10 4.6755e-06)
(-5.4825e-05 -3.8396e-10 5.8779e-06)
(-5.6744e-05 -5.8915e-10 7.3241e-06)
(-5.8411e-05 -8.4087e-10 9.059e-06)
(-5.9781e-05 -1.1337e-09 1.1147e-05)
(-6.0809e-05 -1.4617e-09 1.3664e-05)
(-6.1462e-05 -1.8288e-09 1.6681e-05)
(-6.1716e-05 -2.2374e-09 2.0247e-05)
(-6.1554e-05 -2.6852e-09 2.4368e-05)
(-6.0951e-05 -3.1765e-09 2.9003e-05)
(-5.9878e-05 -3.7228e-09 3.4091e-05)
(-5.8306e-05 -4.3266e-09 3.9581e-05)
(-5.6221e-05 -4.9751e-09 4.5429e-05)
(-5.364e-05 -5.6378e-09 5.1562e-05)
(-5.0622e-05 -6.2883e-09 5.7808e-05)
(-4.7277e-05 -6.9023e-09 6.385e-05)
(-4.3745e-05 -7.424e-09 6.9214e-05)
(-4.015e-05 -7.7833e-09 7.3337e-05)
(-3.6545e-05 -7.9319e-09 7.569e-05)
(-3.2901e-05 -7.8727e-09 7.5951e-05)
(-2.9168e-05 -7.6353e-09 7.4151e-05)
(-2.5369e-05 -7.2125e-09 7.0631e-05)
(-2.1644e-05 -6.6028e-09 6.5772e-05)
(-1.8214e-05 -5.8561e-09 5.9735e-05)
(-1.5265e-05 -5.0178e-09 5.2442e-05)
(-1.2843e-05 -4.1136e-09 4.38e-05)
(-1.0841e-05 -3.1798e-09 3.3989e-05)
(-9.065e-06 -2.2626e-09 2.3656e-05)
(-7.3306e-06 -1.4253e-09 1.3864e-05)
(-5.5558e-06 -7.4414e-10 5.8197e-06)
(-3.8084e-06 -2.7489e-10 4.6412e-07)
(-2.2545e-06 -2.8819e-11 -1.8812e-06)
(-1.0084e-06 3.488e-11 -1.6682e-06)
(0 0 0)
(0 0 0)
(-6.1561e-06 -7.2286e-07 -8.8875e-08)
(-1.1679e-05 -9.0476e-07 -1.1087e-07)
(-1.6288e-05 -4.6241e-07 -5.5676e-08)
(-2.0143e-05 1.8125e-07 2.4353e-08)
(-2.3606e-05 5.3153e-07 6.798e-08)
(-2.6937e-05 4.4467e-07 5.7033e-08)
(-3.0214e-05 8.9969e-08 1.2322e-08)
(-3.3423e-05 -3.3496e-07 -4.1327e-08)
(-3.654e-05 -7.4606e-07 -9.3149e-08)
(-3.9552e-05 -1.1442e-06 -1.4319e-07)
(-4.2448e-05 -1.5615e-06 -1.9555e-07)
(-4.5217e-05 -2.0385e-06 -2.5539e-07)
(-4.7849e-05 -2.6166e-06 -3.2794e-07)
(-5.0328e-05 -3.3343e-06 -4.1792e-07)
(-5.2641e-05 -4.2229e-06 -5.2916e-07)
(-5.4766e-05 -5.3059e-06 -6.6475e-07)
(-5.6675e-05 -6.6096e-06 -8.2798e-07)
(-5.8331e-05 -8.1744e-06 -1.0237e-06)
(-5.969e-05 -1.0057e-05 -1.259e-06)
(-6.071e-05 -1.2324e-05 -1.5422e-06)
(-6.1355e-05 -1.5037e-05 -1.8812e-06)
(-6.1603e-05 -1.8238e-05 -2.2806e-06)
(-6.1435e-05 -2.1931e-05 -2.7407e-06)
(-6.0825e-05 -2.6083e-05 -3.2576e-06)
(-5.9747e-05 -3.0641e-05 -3.8251e-06)
(-5.8173e-05 -3.556e-05 -4.4369e-06)
(-5.6095e-05 -4.0796e-05 -5.0875e-06)
(-5.353e-05 -4.6275e-05 -5.7677e-06)
(-5.0539e-05 -5.1839e-05 -6.4582e-06)
(-4.7226e-05 -5.7201e-05 -7.1233e-06)
(-4.3722e-05 -6.1944e-05 -7.7112e-06)
(-4.014e-05 -6.5579e-05 -8.1607e-06)
(-3.6534e-05 -6.765e-05 -8.4157e-06)
(-3.2887e-05 -6.7885e-05 -8.4433e-06)
(-2.9164e-05 -6.6304e-05 -8.2466e-06)
(-2.5397e-05 -6.3184e-05 -7.8592e-06)
(-2.1718e-05 -5.8841e-05 -7.3195e-06)
(-1.8325e-05 -5.3417e-05 -6.6454e-06)
(-1.5385e-05 -4.6867e-05 -5.832e-06)
(-1.294e-05 -3.914e-05 -4.8726e-06)
(-1.0898e-05 -3.0421e-05 -3.7892e-06)
(-9.0839e-06 -2.1281e-05 -2.653e-06)
(-7.3329e-06 -1.2643e-05 -1.5788e-06)
(-5.5701e-06 -5.5398e-06 -6.9546e-07)
(-3.8511e-06 -7.7552e-07 -1.0295e-07)
(-2.3148e-06 1.3805e-06 1.6602e-07)
(-1.0531e-06 1.321e-06 1.6092e-07)
(0 0 0)
(0 0 0)
(-5.9599e-06 -5.1326e-07 1.741e-10)
(-1.1387e-05 -6.4935e-07 2.3809e-10)
(-1.6027e-05 -3.467e-07 1.731e-10)
(-1.9979e-05 1.0848e-07 5.6182e-11)
(-2.3526e-05 3.7055e-07 -1.051e-11)
(-2.6895e-05 3.2012e-07 2.0191e-11)
(-3.0179e-05 5.7664e-08 1.3037e-10)
(-3.3385e-05 -2.7761e-07 2.8121e-10)
(-3.6498e-05 -6.1555e-07 4.4374e-10)
(-3.9505e-05 -9.4942e-07 6.0687e-10)
(-4.2396e-05 -1.3014e-06 7.7542e-10)
(-4.5161e-05 -1.7032e-06 9.6106e-10)
(-4.7786e-05 -2.1881e-06 1.1762e-09)
(-5.0259e-05 -2.7871e-06 1.4339e-09)
(-5.2563e-05 -3.5262e-06 1.748e-09)
(-5.4676e-05 -4.4266e-06 2.1337e-09)
(-5.6571e-05 -5.5118e-06 2.6105e-09)
(-5.821e-05 -6.8156e-06 3.1984e-09)
(-5.9553e-05 -8.3836e-06 3.9146e-09)
(-6.0559e-05 -1.0268e-05 4.7797e-09)
(-6.1194e-05 -1.2518e-05 5.8177e-09)
(-6.1432e-05 -1.5165e-05 7.0435e-09)
(-6.1254e-05 -1.8213e-05 8.4574e-09)
(-6.0635e-05 -2.1637e-05 1.0058e-08)
(-5.9548e-05 -2.5399e-05 1.1838e-08)
(-5.7973e-05 -2.9459e-05 1.3773e-08)
(-5.5905e-05 -3.3775e-05 1.5824e-08)
(-5.3365e-05 -3.8277e-05 1.7951e-08)
(-5.0414e-05 -4.2828e-05 2.0078e-08)
(-4.7147e-05 -4.7189e-05 2.2072e-08)
(-4.3683e-05 -5.1027e-05 2.3755e-08)
(-4.0122e-05 -5.3955e-05 2.4948e-08)
(-3.6517e-05 -5.5621e-05 2.5523e-08)
(-3.2867e-05 -5.5816e-05 2.5468e-08)
(-2.9162e-05 -5.455e-05 2.4836e-08)
(-2.5442e-05 -5.2016e-05 2.3644e-08)
(-2.1828e-05 -4.8442e-05 2.1922e-08)
(-1.8488e-05 -4.3944e-05 1.975e-08)
(-1.5561e-05 -3.8517e-05 1.7197e-08)
(-1.3086e-05 -3.2161e-05 1.4323e-08)
(-1.0987e-05 -2.5056e-05 1.1232e-08)
(-9.12e-06 -1.7667e-05 8.1023e-09)
(-7.3448e-06 -1.0716e-05 5.1867e-09)
(-5.5965e-06 -4.9926e-06 2.7674e-09)
(-3.9144e-06 -1.1071e-06 1.0624e-09)
(-2.4e-06 7.4244e-07 1.3995e-10)
(-1.1154e-06 8.6401e-07 -1.1853e-10)
(0 0 0)
(0 0 0)
(-5.8767e-06 -4.0884e-07 8.2408e-08)
(-1.1262e-05 -5.1977e-07 1.047e-07)
(-1.5911e-05 -2.8277e-07 5.683e-08)
(-1.9904e-05 7.9052e-08 -1.6023e-08)
(-2.3487e-05 2.922e-07 -5.8663e-08)
(-2.6874e-05 2.5561e-07 -5.1018e-08)
(-3.0162e-05 4.2273e-08 -8.0664e-09)
(-3.3367e-05 -2.3772e-07 4.8097e-08)
(-3.6478e-05 -5.2501e-07 1.0572e-07)
(-3.9483e-05 -8.1149e-07 1.6325e-07)
(-4.2372e-05 -1.1144e-06 2.2413e-07)
(-4.5135e-05 -1.46e-06 2.9361e-07)
(-4.7758e-05 -1.8763e-06 3.7727e-07)
(-5.0227e-05 -2.3896e-06 4.8038e-07)
(-5.2527e-05 -3.0221e-06 6.0739e-07)
(-5.4635e-05 -3.7923e-06 7.6206e-07)
(-5.6522e-05 -4.7209e-06 9.4852e-07)
(-5.8154e-05 -5.8369e-06 1.1725e-06)
(-5.949e-05 -7.1788e-06 1.4418e-06)
(-6.0489e-05 -8.7903e-06 1.7652e-06)
(-6.1119e-05 -1.0712e-05 2.1506e-06)
(-6.1354e-05 -1.2969e-05 2.6034e-06)
(-6.1171e-05 -1.5566e-05 3.1241e-06)
(-6.0546e-05 -1.8483e-05 3.7087e-06)
(-5.9456e-05 -2.1688e-05 4.351e-06)
(-5.7881e-05 -2.5146e-05 5.044e-06)
(-5.5818e-05 -2.8821e-05 5.78e-06)
(-5.329e-05 -3.2648e-05 6.5463e-06)
(-5.0356e-05 -3.6507e-05 7.3189e-06)
(-4.711e-05 -4.0197e-05 8.0574e-06)
(-4.3663e-05 -4.3435e-05 8.7054e-06)
(-4.0112e-05 -4.5901e-05 9.1985e-06)
(-3.6509e-05 -4.7303e-05 9.4782e-06)
(-3.286e-05 -4.7469e-05 9.5106e-06)
(-2.9163e-05 -4.6403e-05 9.2964e-06)
(-2.5465e-05 -4.426e-05 8.8663e-06)
(-2.1878e-05 -4.122e-05 8.2567e-06)
(-1.856e-05 -3.7383e-05 7.4876e-06)
(-1.5639e-05 -3.2755e-05 6.5606e-06)
(-1.3151e-05 -2.7351e-05 5.479e-06)
(-1.1029e-05 -2.1334e-05 4.2748e-06)
(-9.1386e-06 -1.5098e-05 3.0271e-06)
(-7.3528e-06 -9.24e-06 1.8551e-06)
(-5.6102e-06 -4.4139e-06 8.893e-07)
(-3.9426e-06 -1.1189e-06 2.2931e-07)
(-2.4362e-06 4.8412e-07 -9.276e-08)
(-1.1414e-06 6.5164e-07 -1.2817e-07)
(0 0 0)
(0 0 0)
(-5.8275e-06 -3.189e-07 1.6035e-07)
(-1.1187e-05 -4.0664e-07 2.0445e-07)
(-1.5842e-05 -2.237e-07 1.125e-07)
(-1.9857e-05 5.8025e-08 -2.8875e-08)
(-2.3461e-05 2.2598e-07 -1.1279e-07)
(-2.686e-05 1.9888e-07 -9.8847e-08)
(-3.0152e-05 3.0555e-08 -1.4497e-08)
(-3.3356e-05 -1.9376e-07 9.7628e-08)
(-3.6466e-05 -4.2641e-07 2.1394e-07)
(-3.947e-05 -6.598e-07 3.3073e-07)
(-4.2358e-05 -9.0713e-07 4.5458e-07)
(-4.5119e-05 -1.1892e-06 5.9588e-07)
(-4.774e-05 -1.5287e-06 7.6587e-07)
(-5.0207e-05 -1.9467e-06 9.7516e-07)
(-5.2504e-05 -2.4613e-06 1.2328e-06)
(-5.4609e-05 -3.0879e-06 1.5464e-06)
(-5.6492e-05 -3.8435e-06 1.9247e-06)
(-5.812e-05 -4.7518e-06 2.3792e-06)
(-5.9451e-05 -5.8436e-06 2.9256e-06)
(-6.0446e-05 -7.1541e-06 3.5814e-06)
(-6.1073e-05 -8.7156e-06 4.3626e-06)
(-6.1305e-05 -1.0549e-05 5.2796e-06)
(-6.1119e-05 -1.2657e-05 6.3338e-06)
(-6.0492e-05 -1.5023e-05 7.5175e-06)
(-5.94e-05 -1.7624e-05 8.8178e-06)
(-5.7825e-05 -2.043e-05 1.0221e-05)
(-5.5764e-05 -2.3409e-05 1.1711e-05)
(-5.3243e-05 -2.651e-05 1.3261e-05)
(-5.032e-05 -2.9633e-05 1.4822e-05)
(-4.7087e-05 -3.2615e-05 1.6312e-05)
(-4.3651e-05 -3.5228e-05 1.7617e-05)
(-4.0106e-05 -3.7215e-05 1.861e-05)
(-3.6504e-05 -3.8344e-05 1.9173e-05)
(-3.2856e-05 -3.8478e-05 1.9239e-05)
(-2.9165e-05 -3.7619e-05 1.8809e-05)
(-2.5479e-05 -3.5885e-05 1.7942e-05)
(-2.1909e-05 -3.342e-05 1.6708e-05)
(-1.8604e-05 -3.0304e-05 1.515e-05)
(-1.5687e-05 -2.6546e-05 1.3271e-05)
(-1.3191e-05 -2.2168e-05 1.1083e-05)
(-1.1054e-05 -1.7304e-05 8.6523e-06)
(-9.1505e-06 -1.2273e-05 6.1389e-06)
(-7.3584e-06 -7.5525e-06 3.7806e-06)
(-5.619e-06 -3.6616e-06 1.8364e-06)
(-3.9596e-06 -9.9574e-07 5.0347e-07)
(-2.4576e-06 3.1862e-07 -1.5482e-07)
(-1.1567e-06 4.8652e-07 -2.4078e-07)
(0 0 0)
(0 0 0)
(-5.8113e-06 -2.3776e-07 2.379e-07)
(-1.1162e-05 -3.0345e-07 3.0373e-07)
(-1.5819e-05 -1.675e-07 1.679e-07)
(-1.9841e-05 4.2304e-08 -4.1805e-08)
(-2.3453e-05 1.6764e-07 -1.6707e-07)
(-2.6855e-05 1.4761e-07 -1.47e-07)
(-3.0148e-05 2.1849e-08 -2.1221e-08)
(-3.3352e-05 -1.4642e-07 1.4706e-07)
(-3.6461e-05 -3.216e-07 3.2224e-07)
(-3.9465e-05 -4.9777e-07 4.9842e-07)
(-4.2353e-05 -6.8466e-07 6.8531e-07)
(-4.5113e-05 -8.9783e-07 8.9849e-07)
(-4.7734e-05 -1.1542e-06 1.1549e-06)
(-5.02e-05 -1.4698e-06 1.4705e-06)
(-5.2496e-05 -1.8582e-06 1.8589e-06)
(-5.46e-05 -2.3311e-06 2.3317e-06)
(-5.6482e-05 -2.9014e-06 2.902e-06)
(-5.8108e-05 -3.5869e-06 3.5874e-06)
(-5.9438e-05 -4.4108e-06 4.4114e-06)
(-6.0432e-05 -5.3995e-06 5.4001e-06)
(-6.1057e-05 -6.5772e-06 6.5778e-06)
(-6.1288e-05 -7.9594e-06 7.9601e-06)
(-6.1101e-05 -9.5482e-06 9.549e-06)
(-6.0474e-05 -1.1332e-05 1.1333e-05)
(-5.9381e-05 -1.3292e-05 1.3293e-05)
(-5.7806e-05 -1.5407e-05 1.5408e-05)
(-5.5746e-05 -1.7652e-05 1.7654e-05)
(-5.3228e-05 -1.9988e-05 1.999e-05)
(-5.0308e-05 -2.2339e-05 2.2341e-05)
(-4.7079e-05 -2.4582e-05 2.4585e-05)
(-4.3646e-05 -2.6548e-05 2.655e-05)
(-4.0103e-05 -2.8041e-05 2.8044e-05)
(-3.6502e-05 -2.889e-05 2.8892e-05)
(-3.2855e-05 -2.899e-05 2.8993e-05)
(-2.9166e-05 -2.8343e-05 2.8346e-05)
(-2.5484e-05 -2.7038e-05 2.7041e-05)
(-2.1919e-05 -2.518e-05 2.5183e-05)
(-1.8619e-05 -2.283e-05 2.2832e-05)
(-1.5703e-05 -1.9998e-05 2e-05)
(-1.3205e-05 -1.67e-05 1.6702e-05)
(-1.1063e-05 -1.304e-05 1.3041e-05)
(-9.1546e-06 -9.2566e-06 9.2575e-06)
(-7.3604e-06 -5.7083e-06 5.7089e-06)
(-5.622e-06 -2.7828e-06 2.7831e-06)
(-3.9653e-06 -7.7547e-07 7.7559e-07)
(-2.4648e-06 2.1919e-07 -2.1918e-07)
(-1.1617e-06 3.5481e-07 -3.5483e-07)
(0 0 0)
(0 0 0)
(-5.8275e-06 -1.6021e-07 3.1905e-07)
(-1.1187e-05 -2.0418e-07 4.0694e-07)
(-1.5842e-05 -1.1211e-07 2.2412e-07)
(-1.9857e-05 2.9352e-08 -5.7492e-08)
(-2.3461e-05 1.1333e-07 -2.2538e-07)
(-2.686e-05 9.9434e-08 -1.9824e-07)
(-3.0151e-05 1.5108e-08 -2.9904e-08)
(-3.3356e-05 -9.7003e-08 1.9441e-07)
(-3.6466e-05 -2.133e-07 4.2705e-07)
(-3.947e-05 -3.3009e-07 6.6045e-07)
(-4.2358e-05 -4.5393e-07 9.0778e-07)
(-4.5118e-05 -5.9522e-07 1.1899e-06)
(-4.774e-05 -7.6522e-07 1.5293e-06)
(-5.0207e-05 -9.7452e-07 1.9473e-06)
(-5.2504e-05 -1.2322e-06 2.4619e-06)
(-5.4609e-05 -1.5458e-06 3.0885e-06)
(-5.6492e-05 -1.9241e-06 3.8441e-06)
(-5.812e-05 -2.3786e-06 4.7523e-06)
(-5.9451e-05 -2.925e-06 5.8441e-06)
(-6.0446e-05 -3.5807e-06 7.1546e-06)
(-6.1073e-05 -4.3618e-06 8.7161e-06)
(-6.1305e-05 -5.2787e-06 1.0549e-05)
(-6.1119e-05 -6.3328e-06 1.2657e-05)
(-6.0492e-05 -7.5163e-06 1.5024e-05)
(-5.94e-05 -8.8164e-06 1.7624e-05)
(-5.7825e-05 -1.0219e-05 2.043e-05)
(-5.5764e-05 -1.1709e-05 2.3411e-05)
(-5.3243e-05 -1.3258e-05 2.6512e-05)
(-5.032e-05 -1.4819e-05 2.9635e-05)
(-4.7087e-05 -1.6309e-05 3.2616e-05)
(-4.3651e-05 -1.7614e-05 3.523e-05)
(-4.0106e-05 -1.8606e-05 3.7217e-05)
(-3.6504e-05 -1.917e-05 3.8346e-05)
(-3.2856e-05 -1.9236e-05 3.848e-05)
(-2.9165e-05 -1.8806e-05 3.7621e-05)
(-2.5479e-05 -1.7939e-05 3.5887e-05)
(-2.1909e-05 -1.6706e-05 3.3422e-05)
(-1.8604e-05 -1.5147e-05 3.0305e-05)
(-1.5687e-05 -1.3269e-05 2.6548e-05)
(-1.3191e-05 -1.1081e-05 2.2169e-05)
(-1.1054e-05 -8.6508e-06 1.7304e-05)
(-9.1505e-06 -6.1377e-06 1.2273e-05)
(-7.3584e-06 -3.7798e-06 7.5529e-06)
(-5.619e-06 -1.8359e-06 3.6618e-06)
(-3.9596e-06 -5.0326e-07 9.9574e-07)
(-2.4576e-06 1.5488e-07 -3.1868e-07)
(-1.1567e-06 2.4078e-07 -4.8657e-07)
(0 0 0)
(0 0 0)
(-5.8767e-06 -8.227e-08 4.09e-07)
(-1.1262e-05 -1.0443e-07 5.2008e-07)
(-1.5911e-05 -5.6454e-08 2.8322e-07)
(-1.9904e-05 1.6489e-08 -7.8478e-08)
(-2.3487e-05 5.9195e-08 -2.9155e-07)
(-2.6874e-05 5.1594e-08 -2.5493e-07)
(-3.0162e-05 8.6692e-09 -4.1596e-08)
(-3.3367e-05 -4.7479e-08 2.3838e-07)
(-3.6478e-05 -1.0509e-07 5.2566e-07)
(-3.9483e-05 -1.6261e-07 8.1213e-07)
(-4.2372e-05 -2.2349e-07 1.1151e-06)
(-4.5135e-05 -2.9296e-07 1.4607e-06)
(-4.7758e-05 -3.7663e-07 1.877e-06)
(-5.0227e-05 -4.7976e-07 2.3903e-06)
(-5.2527e-05 -6.0678e-07 3.0227e-06)
(-5.4635e-05 -7.6146e-07 3.7928e-06)
(-5.6522e-05 -9.4793e-07 4.7214e-06)
(-5.8154e-05 -1.1719e-06 5.8374e-06)
(-5.949e-05 -1.4412e-06 7.1792e-06)
(-6.0489e-05 -1.7645e-06 8.7907e-06)
(-6.1119e-05 -2.1499e-06 1.0712e-05)
(-6.1353e-05 -2.6025e-06 1.297e-05)
(-6.1171e-05 -3.123e-06 1.5567e-05)
(-6.0546e-05 -3.7075e-06 1.8484e-05)
(-5.9456e-05 -4.3495e-06 2.1688e-05)
(-5.7881e-05 -5.0421e-06 2.5147e-05)
(-5.5818e-05 -5.7778e-06 2.8821e-05)
(-5.329e-05 -6.5438e-06 3.2648e-05)
(-5.0356e-05 -7.3161e-06 3.6508e-05)
(-4.711e-05 -8.0543e-06 4.0198e-05)
(-4.3663e-05 -8.7021e-06 4.3436e-05)
(-4.0112e-05 -9.1949e-06 4.5902e-05)
(-3.6509e-05 -9.4747e-06 4.7304e-05)
(-3.286e-05 -9.507e-06 4.747e-05)
(-2.9164e-05 -9.293e-06 4.6404e-05)
(-2.5465e-05 -8.863e-06 4.4261e-05)
(-2.1878e-05 -8.2536e-06 4.1221e-05)
(-1.856e-05 -7.4848e-06 3.7383e-05)
(-1.5639e-05 -6.5582e-06 3.2755e-05)
(-1.3151e-05 -5.4769e-06 2.7352e-05)
(-1.1029e-05 -4.2731e-06 2.1334e-05)
(-9.1386e-06 -3.0258e-06 1.5098e-05)
(-7.3528e-06 -1.8542e-06 9.24e-06)
(-5.6102e-06 -8.8877e-07 4.4138e-06)
(-3.9426e-06 -2.2906e-07 1.1188e-06)
(-2.4362e-06 9.2852e-08 -4.8427e-07)
(-1.1414e-06 1.2819e-07 -6.5174e-07)
(0 0 0)
(0 0 0)
(-5.9598e-06 -3.9007e-11 5.1342e-07)
(-1.1387e-05 2.4237e-11 6.4969e-07)
(-1.6026e-05 2.013e-10 3.4719e-07)
(-1.9979e-05 4.0905e-10 -1.0786e-07)
(-2.3526e-05 5.4195e-10 -3.6986e-07)
(-2.6895e-05 5.5392e-10 -3.194e-07)
(-3.0179e-05 4.6832e-10 -5.696e-08)
(-3.3384e-05 3.3091e-10 2.7829e-07)
(-3.6497e-05 1.763e-10 6.162e-07)
(-3.9505e-05 1.8319e-11 9.5007e-07)
(-4.2396e-05 -1.4842e-10 1.3021e-06)
(-4.5161e-05 -3.3801e-10 1.7039e-06)
(-4.7786e-05 -5.6491e-10 2.1887e-06)
(-5.0259e-05 -8.4153e-10 2.7877e-06)
(-5.2563e-05 -1.1774e-09 3.5268e-06)
(-5.4676e-05 -1.582e-09 4.4272e-06)
(-5.6571e-05 -2.0697e-09 5.5123e-06)
(-5.821e-05 -2.657e-09 6.816e-06)
(-5.9553e-05 -3.3561e-09 8.384e-06)
(-6.0559e-05 -4.1803e-09 1.0269e-05)
(-6.1193e-05 -5.1438e-09 1.2518e-05)
(-6.1432e-05 -6.2518e-09 1.5165e-05)
(-6.1254e-05 -7.5017e-09 1.8213e-05)
(-6.0635e-05 -8.8959e-09 2.1637e-05)
(-5.9548e-05 -1.0434e-08 2.5398e-05)
(-5.7973e-05 -1.2098e-08 2.9458e-05)
(-5.5905e-05 -1.386e-08 3.3775e-05)
(-5.3365e-05 -1.5681e-08 3.8277e-05)
(-5.0414e-05 -1.7502e-08 4.2828e-05)
(-4.7147e-05 -1.9221e-08 4.719e-05)
(-4.3683e-05 -2.0688e-08 5.1028e-05)
(-4.0122e-05 -2.1744e-08 5.3956e-05)
(-3.6517e-05 -2.2267e-08 5.5621e-05)
(-3.2867e-05 -2.2246e-08 5.5816e-05)
(-2.9162e-05 -2.1721e-08 5.455e-05)