/*--------------------------------*- C++ -*----------------------------------*\
  =========                 |
  \\      /  F ield         | OpenFOAM: The Open Source CFD Toolbox
   \\    /   O peration     | Website:  https://openfoam.org
    \\  /    A nd           | Version:  8
     \\/     M anipulation  |
\*---------------------------------------------------------------------------*/
FoamFile
{
    version     2.0;
    format      ascii;
    class       surfaceScalarField;
    location    "0.0295000";
    object      phi;
}
// * * * * * * * * * * * * * * * * * * * * * * * * * * * * * * * * * * * * * //

dimensions      [0 3 -1 0 0 0 0];

internalField   nonuniform List<scalar> 
1691
(
8.96298276867401e-10
1.0171008389148e-11
8.86230168675149e-10
1.03925621558631e-11
8.76187142173712e-10
1.04584127673542e-11
8.65999889172693e-10
1.0642754882065e-11
8.55742351250474e-10
1.07504075919671e-11
8.45462219608626e-10
1.08195295698583e-11
8.35178761124036e-10
1.08602554016147e-11
8.24897853253784e-10
1.08856488705918e-11
8.14620820372768e-10
1.09106551251467e-11
8.04353942110577e-10
1.09393541441693e-11
7.94088081905563e-10
1.09608676775949e-11
7.83826774823564e-10
1.09781937299389e-11
7.73575315052325e-10
1.0997339005358e-11
7.6333134765589e-10
1.10156183520822e-11
7.53090919787969e-10
1.10322666172572e-11
7.42853417598418e-10
1.10510137780751e-11
7.3262553400706e-10
1.10719843478453e-11
7.22400288924e-10
1.10885638126072e-11
7.12178556548313e-10
1.11042583348966e-11
7.01965646331595e-10
1.11233699807e-11
6.9175933641637e-10
1.11423221640907e-11
6.81555895799327e-10
1.11599812267209e-11
6.71354003252767e-10
1.11807997527372e-11
6.61161453226838e-10
1.12054166710989e-11
6.50971751626122e-10
1.12253625372123e-11
6.40786357196097e-10
1.12443171092179e-11
6.30611812114407e-10
1.12676998114209e-11
6.20445163522167e-10
1.12910224392015e-11
6.10282491942192e-10
1.13130575360124e-11
6.00123236730996e-10
1.13392069406927e-11
5.89978016746959e-10
1.1370239070555e-11
5.79837585137365e-10
1.13958470642016e-11
5.69700679776476e-10
1.14235122852863e-11
5.59575509072254e-10
1.14612801396789e-11
5.49457564029869e-10
1.14987231718207e-11
5.39343728290918e-10
1.15333535786867e-11
5.29235578371459e-10
1.15735502878809e-11
5.19147195255544e-10
1.1622363799708e-11
5.09063221318689e-10
1.16678323663266e-11
4.98982154630932e-10
1.17166841185316e-11
4.88922394905313e-10
1.17784472697876e-11
4.78876437223586e-10
1.1840621666942e-11
4.6883775997371e-10
1.19019720905495e-11
4.5880848948664e-10
1.19782074284724e-11
4.48810080617593e-10
1.20729264191807e-11
4.38819209880776e-10
1.21601320194558e-11
4.28830525328885e-10
1.22572650988369e-11
4.18882893878869e-10
1.23888761118761e-11
4.08954136744528e-10
1.25194186752396e-11
3.9903664841267e-10
1.26494754270238e-11
3.89139814992514e-10
1.28159269064226e-11
3.793022796111e-10
1.30209399763181e-11
3.69480460538807e-10
1.32081674402297e-11
3.59655736559101e-10
1.34228578613197e-11
3.49927053952351e-10
1.37257898020287e-11
3.40228030957258e-10
1.40164331400239e-11
3.30549919595789e-10
1.43116090907989e-11
3.20927580174896e-10
1.46999059735254e-11
3.11409968277824e-10
1.51587365390137e-11
3.01931211618939e-10
1.55782621992357e-11
2.92440193458035e-10
1.6075357519065e-11
2.83186296301266e-10
1.67845621478881e-11
2.73961053285079e-10
1.74242758483754e-11
2.64765867889321e-10
1.80913325219461e-11
2.55739337063944e-10
1.89963074986598e-11
2.46907561581583e-10
2.00062766063683e-11
2.38155145643878e-10
2.09486472619167e-11
2.29340775867965e-10
2.21715162114388e-11
2.21124410335472e-10
2.41022959545338e-11
2.13134647999508e-10
2.61269288930537e-11
2.05164604533001e-10
2.85859243899067e-11
1.98207862273523e-10
3.20658391355462e-11
1.91680169969862e-10
3.52899484997465e-11
1.85248645076842e-10
3.78106868414011e-11
1.79247345685354e-10
4.00958444061963e-11
1.73637820444295e-10
4.17744733876963e-11
1.6789672445075e-10
4.25544907539946e-11
1.62443225289635e-10
4.26506937053541e-11
1.56772580353027e-10
4.19000603317216e-11
1.5084893244872e-10
4.03288874113414e-11
1.44940896414699e-10
3.82195387808538e-11
1.38610173640715e-10
3.46791054360847e-11
1.31104857986533e-10
3.04853986912341e-11
1.23667856190503e-10
2.56235970915565e-11
1.15722776474485e-10
2.02110228570917e-11
1.06264404999428e-10
1.21672495005557e-11
1.05553689001786e-10
-5.23817458288369e-13
1.05036478875389e-10
-4.20044700790622e-12
1.03279802176496e-10
-6.64957043989326e-12
1.01832252346385e-10
-8.54003429852452e-12
1.00251484345818e-10
-9.55631280037717e-12
9.84906269982943e-11
-1.04557868670181e-11
9.66459951098471e-11
-1.0958901085695e-11
9.48516972414123e-11
-1.12250608622083e-11
9.29498386614783e-11
-1.12255463341717e-11
9.11866582148023e-11
-1.09749077355058e-11
8.94890566091822e-11
-1.05366853168511e-11
8.76650579305401e-11
-9.83342994551178e-12
8.60531428955512e-11
-8.50930814967099e-12
-3.4955153183664e-12
4.91880611092259e-10
1.44106436018471e-11
4.871593212989e-10
1.51683573901056e-11
4.82039318764087e-10
1.56328405834813e-11
4.76553431999842e-10
1.61829815316886e-11
4.70862800175869e-10
1.64952905047697e-11
4.65092241424888e-10
1.66442527522126e-11
4.5930095969093e-10
1.67056204150087e-11
4.53510806255131e-10
1.67298071701718e-11
4.4772893079634e-10
1.67464523341334e-11
4.41957206041038e-10
1.67649084735165e-11
4.36193908998286e-10
1.67778959806671e-11
4.3043902159373e-10
1.67867193482347e-11
4.24693793481076e-10
1.67961269440133e-11
4.18957744933422e-10
1.68051539155132e-11
4.13229605601289e-10
1.6813807400231e-11
4.07509471288317e-10
1.6824448377273e-11
4.01798134079738e-10
1.68365193296645e-11
3.96094633524455e-10
1.68451721144266e-11
3.90399077702141e-10
1.68528468475316e-11
3.84712629670009e-10
1.68627799901686e-11
3.79034906509314e-10
1.6872925488972e-11
3.73364721166967e-10
1.68829544363717e-11
3.67702193841752e-10
1.68960282316434e-11
3.62048427026868e-10
1.69118052943595e-11
3.56402959403077e-10
1.69233635519188e-11
3.50766352752174e-10
1.69333540812178e-11
3.45140072443732e-10
1.69463048042242e-11
3.39523760698661e-10
1.69595583889923e-11
3.33916333945934e-10
1.69726147903895e-11
3.28318385369874e-10
1.69891998316694e-11
3.22731474700317e-10
1.70091076946449e-11
3.17154741006146e-10
1.70244480724346e-11
3.11588006907707e-10
1.70420286343401e-11
3.06032464904316e-10
1.70685281576511e-11
3.0048782747002e-10
1.70949866901779e-11
2.94953603664982e-10
1.71191142967569e-11
2.89431509418369e-10
1.71470940473623e-11
2.8392364553663e-10
1.7181593970067e-11
2.78428216796387e-10
1.72145319141137e-11
2.72945738148935e-10
1.7250324924405e-11
2.67479816451474e-10
1.7295426414609e-11
2.62030511550779e-10
1.73408774762924e-11
2.56596916055872e-10
1.73863993443732e-11
2.51181350039237e-10
1.74444862087317e-11
2.45786670453435e-10
1.75181958530057e-11
2.40411055042909e-10
1.75861857113781e-11
2.35056186315872e-10
1.76624023209554e-11
2.29727948345068e-10
1.77672230193323e-11
2.24426270138937e-10
1.78710380665751e-11
2.19151337503183e-10
1.79741564303261e-11
2.13908816338488e-10
1.8107978454623e-11
2.08704013289496e-10
1.82749904425703e-11
2.03534796271773e-10
1.84262989368656e-11
1.98405300211823e-10
1.86009706681365e-11
1.93327308488558e-10
1.88521012235314e-11
1.88301076189957e-10
1.90905446896714e-11
1.83329296395469e-10
1.93306856811301e-11
1.78422481300986e-10
1.965344116016e-11
1.73588299031482e-10
2.0039088796722e-11
1.68828432566391e-10
2.03836298711747e-11
1.6415488996032e-10
2.07935140017366e-11
1.5958873635147e-10
2.13942363828027e-11
1.55127647324019e-10
2.19276385730083e-11
1.50781355834437e-10
2.24785465796081e-11
1.46575768080852e-10
2.32412935622534e-11
1.42524819149978e-10
2.40947150117267e-11
1.38638212824122e-10
2.48705354927016e-11
1.34962185209561e-10
2.58803811873206e-11
1.31584423625545e-10
2.75094573222216e-11
1.28560927210639e-10
2.91746332206699e-11
1.25958740114096e-10
3.12057152803941e-11
1.23856298176753e-10
3.41786228787712e-11
1.22215144081536e-10
3.69337167193766e-11
1.20961349993444e-10
3.90591530448908e-11
1.20031757557573e-10
4.10124120024738e-11
1.19355100618768e-10
4.2430459442255e-11
1.18800255296347e-10
4.3080904761824e-11
1.18282063204941e-10
4.31328945581954e-11
1.1764049082087e-10
4.24983359092279e-11
1.16808016220533e-10
4.11110695101568e-11
1.15599337205929e-10
3.93712070241295e-11
1.13951282618146e-10
3.62633831186737e-11
1.11559616558232e-10
3.28070527617584e-11
1.0860336535396e-10
2.85043168172823e-11
1.04582559424332e-10
2.41504270585986e-11
1.00424757975575e-10
1.62387708460817e-11
9.99467241560501e-11
-1.34928266734251e-13
9.92454053578787e-11
-3.59080439012645e-12
9.79356271756797e-11
-5.43437608665287e-12
9.64388430295872e-11
-7.14031444745402e-12
9.47140863184882e-11
-7.93036097254884e-12
9.28788261954296e-11
-8.72089777213575e-12
9.09369303040047e-11
-9.11878184331163e-12
8.89678927135512e-11
-9.35881793453302e-12
8.6988439264022e-11
-9.34957440692445e-12
8.5055380265002e-11
-9.14587369933442e-12
8.31895097857801e-11
-8.77530063500253e-12
8.14335107567482e-11
-8.18192343634014e-12
7.98957293262672e-11
-7.0752280032201e-12
-2.83567314940039e-12
1.57473081150424e-10
1.3971840964558e-11
1.57658341674627e-10
1.50388738473033e-11
1.56691245844559e-10
1.665561884383e-11
1.55134360105854e-10
1.7795449485485e-11
1.53289230551978e-10
1.8395898693861e-11
1.51334666400881e-10
1.86541942264322e-11
1.49348842662582e-10
1.8746726043392e-11
1.47360583637612e-10
1.87732555312859e-11
1.45379922188129e-10
1.87822053925149e-11
1.43409857628841e-10
1.87899575755862e-11
1.41448842191109e-10
1.87937826805356e-11
1.39496059233497e-10
1.87942655225121e-11
1.37552249199388e-10
1.87946079718201e-11
1.35617132650977e-10
1.8794855157994e-11
1.33689957149691e-10
1.8795467352613e-11
1.31771077894414e-10
1.87976954986884e-11
1.29861037912975e-10
1.88008094253792e-11
1.27958902117702e-10
1.88014536672954e-11
1.26064612484168e-10
1.88011936437223e-11
1.24179104624847e-10
1.88022608747489e-11
1.22302167457335e-10
1.88037393293684e-11
1.20433085277632e-10
1.88058057621304e-11
1.18572387333386e-10
1.8810394400758e-11
1.16720960792136e-10
1.88168070956019e-11
1.148780123365e-10
1.88197844677804e-11
1.13043632945823e-10
1.88210876904404e-11
1.11219015519354e-10
1.88241560155107e-11
1.0940401097904e-10
1.88276817005354e-11
1.07597964973541e-10
1.88316712018104e-11
1.05801700546342e-10
1.88383747945999e-11
1.04016343014087e-10
1.88472754994522e-11
1.02240808905813e-10
1.88526871338634e-11
1.00475272655187e-10
1.88601706485846e-11
9.87214479634114e-11
1.88748688446846e-11
9.69791030546037e-11
1.88897537802044e-11
9.52475796436957e-11
1.89029561227213e-11
9.35283158483877e-11
1.89185745545792e-11
9.18230927790635e-11
1.8938937118803e-11
9.01307508594196e-11
1.89588844967887e-11
8.84518579115671e-11
1.898110423983e-11
8.67893330727335e-11
1.90097189132209e-11
8.51432011235842e-11
1.90386569696243e-11
8.35128244094487e-11
1.90682887566079e-11
8.19009155635578e-11
1.91077745821193e-11
8.03105266724601e-11
1.91598280673614e-11
7.87398608505035e-11
1.92079278681502e-11
7.71907176905714e-11
1.92624349235313e-11
7.56692340170702e-11
1.93394223753935e-11
7.41751555685433e-11
1.941565068826e-11
7.27082145081618e-11
1.94914224380618e-11
7.12748920492511e-11
1.95913962444449e-11
6.98811794557958e-11
1.97184979845826e-11
6.85238903612681e-11
1.98330264046791e-11
6.7207936890598e-11
1.99660535364491e-11
6.59472606597512e-11
2.01616015587118e-11
6.47404384200601e-11
2.03457307635671e-11
6.35886245541103e-11
2.05302535254253e-11
6.25062176940067e-11
2.0783004101694e-11
6.15033039040305e-11
2.10885982127426e-11
6.0575961662238e-11
2.13568908549814e-11
5.97379133831557e-11
2.1676573023078e-11
5.90185842816415e-11
2.21574514422522e-11
5.84098610367856e-11
2.2578973799139e-11
5.7918451796214e-11
2.30112030223207e-11
5.75796021393511e-11
2.36198538725907e-11
5.74088869591984e-11
2.43031965008246e-11
5.7402886494603e-11
2.49120548487456e-11
5.76111925374771e-11
2.57051548413144e-11
5.81400098508301e-11
2.70102718931635e-11
5.90215414261575e-11
2.83174822218845e-11
6.03293769669828e-11
2.99155996527277e-11
6.21932600428544e-11
3.23251415207146e-11
6.45718690844813e-11
3.45577279281219e-11
6.73615733764241e-11
3.62640858929976e-11
7.05159098789982e-11
3.78449853710851e-11
7.39378403883899e-11
3.8987771904392e-11
7.74952643495051e-11
3.94949547879764e-11
8.10659800709996e-11
3.95260920462211e-11
8.45249480687556e-11
3.89959842324927e-11
8.77249324366138e-11
3.78607336018059e-11
9.0584445618466e-11
3.64546658619471e-11
9.28560246223487e-11
3.39281190294441e-11
9.44731119971986e-11
3.11201407234523e-11
9.52538523118812e-11
2.76482361368097e-11
9.51585138969683e-11
2.41648765169454e-11
9.40479423274595e-11
1.72637173312971e-11
9.37996459863705e-11
2.45976750849942e-14
9.29170385515403e-11
-2.79959228190699e-12
9.16360588346941e-11
-4.24762096785185e-12
9.0012473535023e-11
-5.61342296326853e-12
8.82221391240768e-11
-6.23859840922993e-12
8.62712325753647e-11
-6.8701785424097e-12
8.423708170012e-11
-7.18622685568411e-12
8.2154158702492e-11
-7.37854782583946e-12
8.00720754393753e-11
-7.3709037420349e-12
7.80297944876801e-11
-7.20758099872555e-12
7.60614178017993e-11
-6.91133448545517e-12
7.4213917309454e-11
-6.43884587565526e-12
7.26101669909882e-11
-5.57538726751861e-12
-2.18265452990461e-12
-1.01143103127904e-10
1.04519834434278e-11
-9.76790041802811e-11
1.16317951241504e-11
-9.56254479066669e-11
1.4658974537089e-11
-9.41954605233761e-11
1.64222598404395e-11
-9.30344194959217e-11
1.72915377682233e-11
-9.19690429043561e-11
1.76453824508527e-11
-9.09304619600724e-11
1.77646006576846e-11
-8.98945114507037e-11
1.77936542024597e-11
-8.88528224137118e-11
1.77967537823549e-11
-8.78027075144603e-11
1.7795958821247e-11
-8.67453944606698e-11
1.77924582439987e-11
-8.56818751279836e-11
1.77866127415163e-11
-8.46118407516722e-11
1.77803342740404e-11
-8.35354504760464e-11
1.77741256012509e-11
-8.24530471572691e-11
1.77686103908057e-11
-8.13642388681641e-11
1.77643025768977e-11
-8.0268650061832e-11
1.77605040377077e-11
-7.91670728436955e-11
1.77550417152014e-11
-7.8059636495799e-11
1.77488204347103e-11
-7.69456801029361e-11
1.77432698919039e-11
-7.58252707927075e-11
1.77381851640012e-11
-7.46987072145799e-11
1.77339757899767e-11
-7.35653645036462e-11
1.7731670581942e-11
-7.24245629420554e-11
1.77305177100384e-11
-7.12771677991565e-11
1.77267846740882e-11
-7.01233544615581e-11
1.77215372287082e-11
-6.89622738027778e-11
1.77172035977684e-11
-6.77939317128818e-11
1.77133387673156e-11
-6.6618595556708e-11
1.77102119655381e-11
-6.54354711428693e-11
1.77090136759441e-11
-6.42437467310063e-11
1.77092003244702e-11
-6.30444382751149e-11
1.77069087909706e-11
-6.1837168169537e-11
1.77063178019386e-11
-6.06201395188681e-11
1.77111541245258e-11
-5.93934704190233e-11
1.77162911148355e-11
-5.81577389905765e-11
1.77203135642123e-11
-5.69118853661457e-11
1.77256943895202e-11
-5.56544343289132e-11
1.77343492362093e-11
-5.43860205134889e-11
1.77432104687941e-11
-5.31060707260383e-11
1.77537558134036e-11
-5.18123343365884e-11
1.77684512104724e-11
-5.05047658498794e-11
1.77834230463619e-11
-4.91836224774202e-11
1.77993309227183e-11
-4.78462572468108e-11
1.7822447579299e-11
-4.6489655439897e-11
1.78551140729776e-11
-4.51152520065961e-11
1.78852304083714e-11
-4.37212948692963e-11
1.7919981903326e-11
-4.23019761829077e-11
1.7971419531183e-11
-4.08575233187836e-11
1.80223174783274e-11
-3.93881658831442e-11
1.80729605229074e-11
-3.78875581947586e-11
1.81414391856991e-11
-3.63495725464372e-11
1.82308465325969e-11
-3.47774022273426e-11
1.83108175340563e-11
-3.31660199713407e-11
1.84043081805728e-11
-3.15010388601854e-11
1.8545936042033e-11
-2.97845916388108e-11
1.86781211454574e-11
-2.8016111163529e-11
1.88099823528228e-11
-2.61798629318029e-11
1.89943493329138e-11
-2.4264599422322e-11
1.92203500963301e-11
-2.22768783042357e-11
1.94154899579322e-11
-2.02029397618481e-11
1.96480264302254e-11
-1.80095253850121e-11
2.00082821106775e-11
-1.57074840508517e-11
2.03198810262345e-11
-1.32919474523535e-11
2.06372278677165e-11
-1.0723916169949e-11
2.10918241635309e-11
-7.98710981828754e-12
2.16044213632315e-11
-5.0922065344406e-12
2.20529090611573e-11
-1.99027477532633e-12
2.26365146221297e-11
1.43178490600717e-12
2.36180228762812e-11
5.19001247595639e-12
2.45837723447378e-11
9.35908206736617e-12
2.57643415335402e-11
1.40975205387174e-11
2.75971518004675e-11
1.93654226769446e-11
2.92924498612362e-11
2.5044405514592e-11
3.05797059197118e-11
3.11000409628275e-11
3.17761938937533e-11
3.74225111350781e-11
3.26444513680633e-11
4.3881496667792e-11
3.30073273703908e-11
5.03379761476818e-11
3.30333932137711e-11
5.66902392326857e-11
3.26001928540008e-11
6.27481294559054e-11
3.17523431259438e-11
6.85008189345713e-11
3.06448035123544e-11
7.35928026920795e-11
2.87723081653904e-11
7.80960469938095e-11
2.6546941952645e-11
8.1637563813147e-11
2.40312795491037e-11
8.44545356551794e-11
2.1266941726132e-11
8.56576558058835e-11
1.59749173881776e-11
8.55468642273489e-11
4.6559569976308e-14
8.45730002425987e-11
-1.91719296233662e-12
8.33302360210745e-11
-3.09915422760697e-12
8.167293207522e-11
-4.05288899959991e-12
7.98972711286267e-11
-4.56159412625446e-12
7.79354989333478e-11
-5.00868847942976e-12
7.59081394043566e-11
-5.26056268497845e-12
7.38222456922718e-11
-5.39541121558776e-12
7.17430266858487e-11
-5.39521022450175e-12
6.9700206627427e-11
-5.26886547062756e-12
6.7732434116967e-11
-5.04808678101625e-12
6.5883394358953e-11
-4.69434721788981e-12
6.42642963180083e-11
-4.06033503081653e-12
-1.51537199424855e-12
-2.7931710789517e-10
5.48906910736871e-12
-2.74676965395075e-10
7.04988945801687e-12
-2.70947120922186e-10
1.09872455930568e-11
-2.67579809761188e-10
1.311293656275e-11
-2.64340547184334e-10
1.41101319304743e-11
-2.61136837156411e-10
1.44994004026213e-11
-2.57939818059841e-10
1.46251869654381e-11
-2.5474157825003e-10
1.46529001523372e-11
-2.51539431471333e-10
1.4651967564532e-11
-2.48332243101428e-10
1.46459960819336e-11
-2.45121021926831e-10
1.46383214374095e-11
-2.41906682386392e-10
1.46292219033533e-11
-2.38689205772268e-10
1.46196872665906e-11
-2.35468659437353e-10
1.46102958042658e-11
-2.32245093909287e-10
1.46016335298945e-11
-2.29018155842996e-10
1.45938083218233e-11
-2.25787610434313e-10
1.45862567150356e-11
-2.22554055093581e-10
1.45776528674887e-11
-2.19317649340862e-10
1.45684659216206e-11
-2.16077989170401e-10
1.45595501587607e-11
-2.12835032947986e-10
1.45510457380252e-11
-2.0958877170775e-10
1.45433962401273e-11
-2.06338610709422e-10
1.45370631669422e-11
-2.03084074740389e-10
1.45314153166379e-11
-1.99825957878195e-10
1.45239710391725e-11
-1.96564583437501e-10
1.45153197776762e-11
-1.93299431165874e-10
1.45070598965705e-11
-1.90030412132943e-10
1.44991855310294e-11
-1.86757508475718e-10
1.4492038343114e-11
-1.83480041955629e-10
1.44861501791005e-11
-1.80197457731135e-10
1.44810916792977e-11
-1.76910578564181e-10
1.44743726593497e-11
-1.73618936111909e-10
1.44688922171825e-11
-1.70320877250565e-10
1.44671956149081e-11
-1.67016397514529e-10
1.44657909502727e-11
-1.63705929581516e-10
1.44636942093576e-11
-1.60388764980275e-10
1.44622495828348e-11
-1.57063740454859e-10
1.44629209015326e-11
-1.53731081627465e-10
1.44640109169019e-11
-1.50390252061816e-10
1.44662333020558e-11
-1.47039610680537e-10
1.44709705654149e-11
-1.43679068026122e-10
1.44758933556808e-11
-1.40308566696555e-10
1.4481679666963e-11
-1.3692573405219e-10
1.44923038566418e-11
-1.33527776838436e-10
1.45096815380085e-11
-1.30115692542159e-10
1.45254744495404e-11
-1.26687886677887e-10
1.45442877865025e-11
-1.23239208955495e-10
1.45746510060939e-11
-1.19769771672778e-10
1.4604578830664e-11
-1.16279669604761e-10
1.46343183884534e-11
-1.12763167020546e-10
1.46761368136193e-11
-1.09214406007186e-10
1.47329535862806e-11
-1.05636196104828e-10
1.47830868648021e-11
-1.02023826537444e-10
1.48420780179004e-11
-9.8363574499948e-11
1.4935486675085e-11
-9.46577513498023e-11
1.50216054288667e-11
-9.0906098565764e-11
1.51069903765313e-11
-8.7093145233716e-11
1.52294228658769e-11
-8.3207444584575e-11
1.53820809247774e-11
-7.92566522380674e-11
1.55114165997639e-11
-7.522806849633e-11
1.56652137730393e-11
-7.10877782850173e-11
1.59125939358943e-11
-6.68476234505646e-11
1.61230093437498e-11
-6.25042325658885e-11
1.63357113640731e-11
-5.80185890988034e-11
1.66464725164615e-11
-5.33746260686893e-11
1.69987538285233e-11
-4.85870518987028e-11
1.7301330452487e-11
-4.36107769455871e-11
1.76937431735729e-11
-3.83342326798783e-11
1.83714692621229e-11
-3.27529517370553e-11
1.90271485872955e-11
-2.67965811317897e-11
1.98258774562313e-11
-2.02951154507914e-11
2.11061856774e-11
-1.32853357708128e-11
2.22853017939041e-11
-5.88831449851126e-12
2.31772573492234e-11
1.87009076223598e-12
2.40045710850755e-11
9.8792314032788e-12
2.46143715911498e-11
1.8013511744532e-11
2.48442938548952e-11
2.61349620410521e-11
2.4875595349654e-11
3.41553920941425e-11
2.45360942667011e-11
4.18770940878091e-11
2.39799952224865e-11
4.93210267619823e-11
2.31435510669569e-11
5.61032072628472e-11
2.19261542167766e-11
6.23479918566511e-11
2.02320645367202e-11
6.76285179932368e-11
1.86751892934821e-11
7.22914397990783e-11
1.65229491268524e-11
7.50946770721501e-11
1.30859127189463e-11
7.50515276339764e-11
7.86979701989154e-16
7.40854353846009e-11
-1.04266596897149e-12
7.29242151683857e-11
-2.0323347636449e-12
7.13433030360337e-11
-2.56885203357772e-12
6.96717776467369e-11
-2.98883306229556e-12
6.78146140310601e-11
-3.25191753429188e-12
6.59030842702528e-11
-3.45084126539053e-12
6.3932363159392e-11
-3.52756230707293e-12
6.19702483762622e-11
-3.53673864451958e-12
6.00411095165653e-11
-3.44395092968829e-12
5.81830305073579e-11
-3.29465404261481e-12
5.64352905795244e-11
-3.05127135397036e-12
5.48944786195552e-11
-2.62369303187113e-12
-8.78627213763654e-13
-3.74046732459833e-10
7.36113369485267e-13
-3.69715470478299e-10
2.77805602204428e-12
-3.65541925673005e-10
6.87299560054897e-12
-3.61291571803504e-10
8.92173699880178e-12
-3.56951948981414e-10
9.82951927801724e-12
-3.52562219213857e-10
1.01685390457349e-11
-3.48151588057412e-10
1.02732887977617e-11
-3.43734114095598e-10
1.02940267862064e-11
-3.39314392732214e-10
1.02907087077754e-11
-3.3489323902813e-10
1.02831568493391e-11
-3.30471524595828e-10
1.02747669676355e-11
-3.26049970629744e-10
1.02656790382929e-11
-3.21628705231874e-10
1.0256301041777e-11
-3.1720772235348e-10
1.02470664201593e-11
-3.12786885380147e-10
1.02384092585927e-11
-3.08365902223074e-10
1.02302796803079e-11
-3.03944644710798e-10
1.02222946231433e-11
-2.99523528805988e-10
1.02136876784441e-11
-2.95102720779485e-10
1.02046805971217e-11
-2.90682020215724e-10
1.01957488957504e-11
-2.86261321386217e-10
1.01871097125506e-11
-2.81840424419774e-10
1.01791138461164e-11
-2.77418816792228e-10
1.01719289887243e-11
-2.72996192622246e-10
1.01651317234739e-11
-2.6857322298239e-10
1.0157198591136e-11
-2.64150298187406e-10
1.01484326277077e-11
-2.59727161215611e-10
1.01397987682694e-11
-2.55303675516801e-10
1.01314195824246e-11
-2.50879648050079e-10
1.01235816746981e-11
-2.46454542109457e-10
1.0116474982504e-11
-2.42028001391588e-10
1.01098412585554e-11
-2.37600646139765e-10
1.01021621090683e-11
-2.33172002725407e-10
1.00952543562589e-11
-2.28740659092903e-10
1.00907281806754e-11
-2.24306524319505e-10
1.00863986892138e-11
-2.19869894826699e-10
1.00816631673317e-11
-2.15430354167654e-10
1.00771655407694e-11
-2.10987027911018e-10
1.00739147007719e-11
-2.06539871903202e-10
1.00710248837653e-11
-2.02088425145077e-10
1.00687908509809e-11
-1.97631558876803e-10
1.00679489510799e-11
-1.93169161187585e-10
1.00671792292549e-11
-1.88700983263536e-10
1.00670088639827e-11
-1.8422504273226e-10
1.00696957385703e-11
-1.79738886509245e-10
1.00766799840285e-11
-1.75243150605166e-10
1.00826827535699e-11
-1.70736500112981e-10
1.00903504898492e-11
-1.66214593535661e-10
1.01052410373731e-11
-1.616774587476e-10
1.01197159780719e-11
-1.57125101443174e-10
1.01339800337089e-11
-1.52552682013085e-10
1.01554621598612e-11
-1.47954915635389e-10
1.01865845250696e-11
-1.43334150745078e-10
1.02133145413476e-11
-1.38686361011948e-10
1.02449258465877e-11
-1.33999221392724e-10
1.02986328631232e-11
-1.29275004002385e-10
1.03471619259532e-11
-1.2451370839877e-10
1.03948039885436e-11
-1.19701320921781e-10
1.04654925730011e-11
-1.14827038750411e-10
1.05556433169185e-11
-1.09898643249973e-10
1.06301362281641e-11
-1.04905435676704e-10
1.07181543852353e-11
-9.98153363308356e-11
1.08674520405668e-11
-9.46401033456311e-11
1.09913926581106e-11
-8.93777251510173e-11
1.11155191863202e-11
-8.3992216341454e-11
1.13015449247942e-11
-7.84687403329588e-11
1.15138372116758e-11
-7.28235669349399e-11
1.16923904357125e-11
-6.70183527623405e-11
1.19222446131937e-11
-6.09504462341283e-11
1.2333734467349e-11
-5.46234136740614e-11
1.27249147134839e-11
-4.79766260802484e-11
1.31970939104016e-11
-4.08441580508833e-11
1.39842706051223e-11
-3.32589312354946e-11
1.47027166298927e-11
-2.53334381498168e-11
1.52463090238382e-11
-1.70877206686191e-11
1.57455767208607e-11
-8.62114138600349e-12
1.61267667612933e-11
-5.18936818364048e-14
1.62461841981293e-11
8.50148200753707e-12
1.62857464836621e-11
1.69544644011265e-11
1.6039305856852e-11
2.5137314880262e-11
1.57463560716509e-11
3.30639251746225e-11
1.51594771319855e-11
4.04010898490309e-11
1.45248730425898e-11
4.72396164591428e-11
1.33233100284093e-11
5.32346224684471e-11
1.26044974829831e-11
5.86712755851365e-11
1.10051193438158e-11
6.23523715075018e-11
9.31896295692265e-12
6.23032627030942e-11
-3.91180602100626e-14
6.14463737073679e-11
-2.77442236746691e-13
6.04123507363065e-11
-1.09281555310657e-12
5.90190100474104e-11
-1.27249172139139e-12
5.75418176358321e-11
-1.61051238844915e-12
5.59051977106865e-11
-1.71580019564339e-12
5.4219018791765e-11
-1.8665829977585e-12
5.24819095787747e-11
-1.89343967443665e-12
5.07514752691415e-11
-1.91006425144375e-12
4.90504647774387e-11
-1.84728353833102e-12
4.74114789091621e-11
-1.76043525912325e-12
4.58687146095439e-11
-1.61329367932047e-12
4.45013959784247e-11
-1.36066786889576e-12
-3.18866825753078e-13
-3.82160145068495e-10
-2.16327138283045e-12
-3.79432162530736e-10
1.10671077144137e-13
-3.75853451858898e-10
3.35473694363347e-12
-3.71713168344937e-10
4.84175264587493e-12
-3.67274445502648e-10
5.45093895579225e-12
-3.6271206828804e-10
5.66615004962911e-12
-3.58107584896482e-10
5.72864579970481e-12
-3.53492807731287e-10
5.73894535321094e-12
-3.48877607350034e-10
5.73505361270888e-12
-3.44264026784315e-10
5.72896095509644e-12
-3.3965271631299e-10
5.72267388096407e-12
-3.35044140756639e-10
5.71615920750856e-12
-3.30438450501487e-10
5.70952211453958e-12
-3.25835589549109e-10
5.70297895327088e-12
-3.21235334219213e-10
5.69677426915858e-12
-3.16637455023621e-10
5.69084985257921e-12
-3.12041888107067e-10
5.68500500385802e-12
-3.07448914341895e-10
5.67883369829748e-12
-3.02858690232137e-10
5.67243583560236e-12
-2.98271147006561e-10
5.66604945696178e-12
-2.93686162204318e-10
5.65981985121226e-12
-2.89103461802857e-10
5.65394747183754e-12
-2.84522635339574e-10
5.64848277482176e-12
-2.79943490712956e-10
5.64322201351255e-12
-2.75366570733472e-10
5.63735758078149e-12
-2.7079226778105e-10
5.63103623341504e-12
-2.66220494662198e-10
5.62475741502912e-12
-2.61651112385614e-10
5.61860002313734e-12
-2.57083863219691e-10
5.61273341134589e-12
-2.52518351106902e-10
5.60721101375311e-12
-2.47954353285532e-10
5.60193850270558e-12
-2.43392337871841e-10
5.5960834658051e-12
-2.38831896246342e-10
5.5905976938901e-12
-2.34271887359445e-10
5.58636239633621e-12
-2.29712195204721e-10
5.58220341675747e-12
-2.25153022759311e-10
5.57783083500627e-12
-2.20594172538783e-10
5.57350086680511e-12
-2.16035014590457e-10
5.56979310172795e-12
-2.11475387949389e-10
5.56627172171795e-12
-2.06914943160012e-10
5.56304079989019e-12
-2.02352943635514e-10
5.56047148355643e-12
-1.97789301287441e-10
5.55788483417675e-12
-1.93223721485062e-10
5.5555873348258e-12
-1.88654685410829e-10
5.55462996793903e-12
-1.8408016162851e-10
5.55593555729551e-12
-1.79500579570285e-10
5.55665590263246e-12
-1.74914961899151e-10
5.55804298164099e-12
-1.70319831218195e-10
5.56319013150183e-12
-1.65715231710986e-10
5.56795771557553e-12
-1.61101184891797e-10
5.57250744892163e-12
-1.56473942017459e-10
5.58050524888293e-12
-1.51829044008908e-10
5.59361009330497e-12
-1.47168456557438e-10
5.60423017126321e-12
-1.42489170767796e-10
5.61677301096096e-12
-1.37780798725823e-10
5.6410273811985e-12
-1.33045535505418e-10
5.66213727476324e-12
-1.28283674268653e-10
5.68249889297363e-12
-1.23483647464189e-10
5.71435186745614e-12
-1.18636104565412e-10
5.75635669327007e-12
-1.1374824488673e-10
5.78978647755183e-12
-1.08812212609355e-10
5.82864652854239e-12
-1.03799928980926e-10
5.90048107385165e-12
-9.87223573714106e-11
5.95777041721579e-12
-9.35787438221099e-11
6.0144030919176e-12
-8.83388408689837e-11
6.10251270253471e-12
-8.29901681769515e-11
6.20398846451888e-12
-7.75484061739618e-11
6.28710030633423e-12
-7.19846076147148e-11
6.39237460518618e-12
-6.62120298738744e-11
6.59151110433214e-12
-6.023924846786e-11
6.77707564106999e-12
-5.40206078610914e-11
6.99655702793251e-12
-4.74091056297414e-11
7.38337658339134e-12
-4.04337684658938e-11
7.73003246251063e-12
-3.31873849909099e-11
7.99444253537054e-12
-2.56866002571188e-11
8.23145533320441e-12
-1.80070744373619e-11
8.42612844034837e-12
-1.02571115747577e-11
8.46724990321748e-12
-2.51672433565439e-12
8.50875951903688e-12
5.12301525500926e-12
8.35562182007634e-12
1.25567776720311e-11
8.26166123513898e-12
1.97517580846705e-11
7.90688840419451e-12
2.65058349134193e-11
7.70653663449435e-12
3.27891305805701e-11
6.9696517972089e-12
3.84755939118092e-11
6.84222697597594e-12
4.36095820249778e-11
5.78984986329262e-12
4.7434656223409e-11
5.40795201163482e-12
4.73014151394862e-11
5.02379323930158e-15
4.66575989919076e-11
2.74617473132713e-13
4.57960355281048e-11
-3.25849080304923e-13
4.47010165378149e-11
-2.74547870541599e-13
4.35079456549988e-11
-5.16409999574665e-13
4.22073796886925e-11
-5.15836110250541e-13
4.08556975459373e-11
-6.16923245036383e-13
3.94703112401854e-11
-6.11144034217416e-13
3.80858748057771e-11
-6.29494341996615e-13