/*--------------------------------*- C++ -*----------------------------------*\
| =========                 |                                                 |
| \\      /  F ield         | foam-extend: Open Source CFD                    |
|  \\    /   O peration     | Version:     4.1-20200408                       |
|   \\  /    A nd           | Web:         http://www.foam-extend.org         |
|    \\/     M anipulation  |                                                 |
\*---------------------------------------------------------------------------*/
FoamFile
{
    version     2.0;
    format      ascii;
    class       volScalarField;
    location    "0.0225000";
    object      ccx;
}
// * * * * * * * * * * * * * * * * * * * * * * * * * * * * * * * * * * * * * //

dimensions      [0 1 0 0 0 0 0];

internalField   nonuniform List<scalar> 
1952
(
0.0029687
0.00296868
0.00296866
0.00296864
0.0029686
0.00296856
0.00296852
0.00296846
0.00296841
0.00296835
0.00296829
0.00296823
0.00296817
0.00296812
0.00296808
0.0029687
0.00291233
0.00291231
0.00291227
0.00291221
0.00291214
0.00291206
0.00291197
0.00291187
0.00291175
0.00291163
0.00291151
0.00291139
0.00291127
0.00291118
0.0029111
0.00291235
0.00286222
0.0028622
0.00286216
0.0028621
0.00286203
0.00286195
0.00286186
0.00286175
0.00286164
0.00286152
0.0028614
0.00286127
0.00286116
0.00286106
0.00286099
0.00286224
0.00281211
0.00281209
0.00281205
0.00281199
0.00281192
0.00281184
0.00281174
0.00281164
0.00281153
0.00281141
0.00281128
0.00281116
0.00281105
0.00281095
0.00281087
0.00281213
0.002762
0.00276197
0.00276193
0.00276188
0.00276181
0.00276173
0.00276163
0.00276152
0.00276141
0.00276129
0.00276116
0.00276104
0.00276093
0.00276084
0.00276076
0.00276202
0.00271189
0.00271186
0.00271182
0.00271176
0.00271169
0.00271161
0.00271152
0.00271141
0.00271129
0.00271117
0.00271105
0.00271092
0.00271081
0.00271072
0.00271065
0.0027119
0.00266177
0.00266175
0.00266171
0.00266165
0.00266158
0.00266149
0.0026614
0.00266129
0.00266118
0.00266105
0.00266093
0.00266081
0.0026607
0.00266061
0.00266054
0.00266179
0.00261166
0.00261163
0.00261159
0.00261154
0.00261146
0.00261138
0.00261128
0.00261118
0.00261106
0.00261094
0.00261081
0.00261069
0.00261058
0.00261049
0.00261042
0.00261168
0.00256155
0.00256152
0.00256148
0.00256142
0.00256135
0.00256126
0.00256117
0.00256106
0.00256094
0.00256082
0.0025607
0.00256057
0.00256046
0.00256037
0.00256031
0.00256156
0.00251143
0.00251141
0.00251136
0.00251131
0.00251123
0.00251115
0.00251105
0.00251095
0.00251083
0.0025107
0.00251058
0.00251046
0.00251035
0.00251026
0.00251019
0.00251145
0.00246132
0.00246129
0.00246125
0.00246119
0.00246112
0.00246104
0.00246094
0.00246083
0.00246071
0.00246059
0.00246046
0.00246034
0.00246023
0.00246014
0.00246007
0.00246134
0.00241121
0.00241118
0.00241114
0.00241108
0.00241101
0.00241092
0.00241083
0.00241072
0.0024106
0.00241047
0.00241035
0.00241022
0.00241011
0.00241002
0.00240996
0.00241123
0.0023611
0.00236107
0.00236103
0.00236097
0.00236089
0.00236081
0.00236071
0.0023606
0.00236048
0.00236036
0.00236023
0.00236011
0.00236
0.00235991
0.00235984
0.00236112
0.00231099
0.00231096
0.00231092
0.00231086
0.00231078
0.0023107
0.0023106
0.00231049
0.00231037
0.00231024
0.00231011
0.00230999
0.00230988
0.00230979
0.00230972
0.00231101
0.00226088
0.00226085
0.0022608
0.00226074
0.00226067
0.00226058
0.00226048
0.00226037
0.00226025
0.00226013
0.00226
0.00225987
0.00225976
0.00225967
0.0022596
0.0022609
0.00221077
0.00221074
0.00221069
0.00221063
0.00221056
0.00221047
0.00221037
0.00221026
0.00221014
0.00221001
0.00220988
0.00220976
0.00220964
0.00220955
0.00220948
0.00221079
0.00216066
0.00216063
0.00216058
0.00216052
0.00216045
0.00216036
0.00216026
0.00216015
0.00216003
0.0021599
0.00215977
0.00215964
0.00215953
0.00215943
0.00215937
0.00216068
0.00211055
0.00211052
0.00211048
0.00211042
0.00211034
0.00211025
0.00211015
0.00211003
0.00210991
0.00210978
0.00210965
0.00210952
0.00210941
0.00210932
0.00210925
0.00211057
0.00206044
0.00206041
0.00206037
0.00206031
0.00206023
0.00206014
0.00206004
0.00205992
0.0020598
0.00205967
0.00205954
0.00205941
0.00205929
0.0020592
0.00205913
0.00206046
0.00201034
0.0020103
0.00201026
0.0020102
0.00201012
0.00201003
0.00200993
0.00200981
0.00200969
0.00200956
0.00200942
0.00200929
0.00200917
0.00200908
0.00200901
0.00201035
0.00196023
0.0019602
0.00196015
0.00196009
0.00196001
0.00195992
0.00195982
0.0019597
0.00195958
0.00195944
0.00195931
0.00195918
0.00195906
0.00195896
0.00195889
0.00196025
0.00191013
0.00191009
0.00191005
0.00190998
0.00190991
0.00190981
0.00190971
0.00190959
0.00190946
0.00190933
0.00190919
0.00190906
0.00190894
0.00190884
0.00190877
0.00191014
0.00186002
0.00185999
0.00185994
0.00185988
0.0018598
0.0018597
0.0018596
0.00185948
0.00185935
0.00185921
0.00185908
0.00185894
0.00185882
0.00185873
0.00185866
0.00186004
0.00180992
0.00180988
0.00180984
0.00180977
0.00180969
0.0018096
0.00180949
0.00180937
0.00180924
0.0018091
0.00180896
0.00180883
0.00180871
0.00180861
0.00180854
0.00180993
0.00175981
0.00175978
0.00175973
0.00175967
0.00175959
0.00175949
0.00175938
0.00175926
0.00175913
0.00175899
0.00175885
0.00175871
0.00175859
0.00175849
0.00175842
0.00175983
0.00170971
0.00170968
0.00170963
0.00170956
0.00170948
0.00170939
0.00170928
0.00170915
0.00170902
0.00170888
0.00170874
0.0017086
0.00170848
0.00170837
0.0017083
0.00170973
0.00165961
0.00165958
0.00165953
0.00165946
0.00165938
0.00165928
0.00165917
0.00165905
0.00165891
0.00165877
0.00165862
0.00165849
0.00165836
0.00165826
0.00165819
0.00165963
0.00160951
0.00160948
0.00160943
0.00160936
0.00160928
0.00160918
0.00160906
0.00160894
0.0016088
0.00160866
0.00160851
0.00160837
0.00160824
0.00160814
0.00160807
0.00160953
0.00155941
0.00155938
0.00155933
0.00155926
0.00155917
0.00155907
0.00155896
0.00155883
0.00155869
0.00155855
0.0015584
0.00155826
0.00155813
0.00155802
0.00155795
0.00155943
0.00150932
0.00150928
0.00150923
0.00150916
0.00150907
0.00150897
0.00150886
0.00150873
0.00150859
0.00150844
0.00150829
0.00150814
0.00150801
0.0015079
0.00150783
0.00150934
0.00145922
0.00145919
0.00145913
0.00145906
0.00145898
0.00145887
0.00145875
0.00145862
0.00145848
0.00145833
0.00145818
0.00145803
0.0014579
0.00145779
0.00145771
0.00145924
0.00140913
0.00140909
0.00140904
0.00140897
0.00140888
0.00140877
0.00140865
0.00140852
0.00140837
0.00140822
0.00140806
0.00140791
0.00140778
0.00140767
0.0014076
0.00140915
0.00135904
0.001359
0.00135894
0.00135887
0.00135878
0.00135867
0.00135855
0.00135842
0.00135827
0.00135811
0.00135795
0.0013578
0.00135766
0.00135755
0.00135748
0.00135906
0.00130895
0.00130891
0.00130885
0.00130878
0.00130868
0.00130858
0.00130845
0.00130831
0.00130816
0.001308
0.00130784
0.00130769
0.00130755
0.00130744
0.00130736
0.00130897
0.00125886
0.00125882
0.00125876
0.00125869
0.00125859
0.00125848
0.00125835
0.00125821
0.00125806
0.0012579
0.00125773
0.00125757
0.00125743
0.00125732
0.00125724
0.00125888
0.00120877
0.00120873
0.00120868
0.0012086
0.0012085
0.00120839
0.00120826
0.00120811
0.00120796
0.00120779
0.00120762
0.00120746
0.00120731
0.0012072
0.00120712
0.00120879
0.00115869
0.00115865
0.00115859
0.00115851
0.00115841
0.00115829
0.00115816
0.00115801
0.00115785
0.00115768
0.00115751
0.00115734
0.0011572
0.00115708
0.00115699
0.00115871
0.0011086
0.00110856
0.0011085
0.00110842
0.00110832
0.0011082
0.00110807
0.00110792
0.00110775
0.00110758
0.0011074
0.00110723
0.00110708
0.00110696
0.00110687
0.00110863
0.00105852
0.00105848
0.00105842
0.00105834
0.00105824
0.00105811
0.00105797
0.00105782
0.00105765
0.00105747
0.00105729
0.00105712
0.00105696
0.00105683
0.00105674
0.00105855
0.00100844
0.0010084
0.00100834
0.00100825
0.00100815
0.00100803
0.00100788
0.00100772
0.00100755
0.00100737
0.00100718
0.00100701
0.00100684
0.00100671
0.00100662
0.00100847
0.000958366
0.000958323
0.000958258
0.000958173
0.000958066
0.000957939
0.000957793
0.00095763
0.000957453
0.000957266
0.000957075
0.000956891
0.000956723
0.000956586
0.000956488
0.000958389
0.000908287
0.000908243
0.000908178
0.00090809
0.000907982
0.000907853
0.000907704
0.000907537
0.000907356
0.000907164
0.000906968
0.000906777
0.000906603
0.000906459
0.000906355
0.00090831
0.000858206
0.000858162
0.000858096
0.000858008
0.000857898
0.000857767
0.000857615
0.000857446
0.00085726
0.000857063
0.000856861
0.000856663
0.000856482
0.00085633
0.000856219
0.000858229
0.000808124
0.000808079
0.000808012
0.000807923
0.000807812
0.00080768
0.000807526
0.000807354
0.000807164
0.000806962
0.000806754
0.000806549
0.00080636
0.0008062
0.000806079
0.000808146
0.000758036
0.000757992
0.000757925
0.000757836
0.000757725
0.000757591
0.000757436
0.000757261
0.000757068
0.000756862
0.000756648
0.000756436
0.000756237
0.000756067
0.000755936
0.00075806
0.000707943
0.000707899
0.000707832
0.000707744
0.000707633
0.0007075
0.000707344
0.000707167
0.000706972
0.000706762
0.000706543
0.000706322
0.000706114
0.000705933
0.000705789
0.000707966
0.000657841
0.000657797
0.000657731
0.000657644
0.000657534
0.000657402
0.000657247
0.00065707
0.000656874
0.00065666
0.000656436
0.000656209
0.000655991
0.000655797
0.000655638
0.000657863
0.000607727
0.000607684
0.00060762
0.000607534
0.000607427
0.000607296
0.000607143
0.000606967
0.000606771
0.000606557
0.000606329
0.000606096
0.000605869
0.000605659
0.000605481
0.000607749
0.000557599
0.000557558
0.000557495
0.000557412
0.000557307
0.000557179
0.000557029
0.000556857
0.000556663
0.000556449
0.00055622
0.000555982
0.000555746
0.000555522
0.000555321
0.00055762
0.000507454
0.000507414
0.000507354
0.000507274
0.000507172
0.000507049
0.000506903
0.000506735
0.000506544
0.000506333
0.000506105
0.000505865
0.000505622
0.000505384
0.000505159
0.000507474
0.000457289
0.000457251
0.000457194
0.000457117
0.000457019
0.000456901
0.000456761
0.000456598
0.000456413
0.000456207
0.000455982
0.000455742
0.000455494
0.000455245
0.000454996
0.000457308
0.0004071
0.000407064
0.00040701
0.000406937
0.000406845
0.000406732
0.000406598
0.000406442
0.000406265
0.000406065
0.000405845
0.000405608
0.000405359
0.000405102
0.000404835
0.000407119
0.000356887
0.000356853
0.000356801
0.000356732
0.000356645
0.000356539
0.000356412
0.000356264
0.000356095
0.000355904
0.000355692
0.000355462
0.000355216
0.000354955
0.000354677
0.000356904
0.000306646
0.000306615
0.000306566
0.0003065
0.000306418
0.000306318
0.000306198
0.000306059
0.0003059
0.00030572
0.000305519
0.000305299
0.000305061
0.000304805
0.000304523
0.000306663
0.00025638
0.000256349
0.000256303
0.000256241
0.000256164
0.000256069
0.000255957
0.000255827
0.000255678
0.00025551
0.000255323
0.000255118
0.000254895
0.000254651
0.000254376
0.000256396
0.000206088
0.000206058
0.000206014
0.000205955
0.000205882
0.000205793
0.000205688
0.000205566
0.000205428
0.000205274
0.000205103
0.000204916
0.000204714
0.000204492
0.000204237
0.000206103
0.000155773
0.000155744
0.000155702
0.000155646
0.000155575
0.00015549
0.000155391
0.000155278
0.000155151
0.000155011
0.000154858
0.000154694
0.000154519
0.00015433
0.00015411
0.000155787
0.000105439
0.000105412
0.00010537
0.000105316
0.000105247
0.000105166
0.000105072
0.000104966
0.000104849
0.000104723
0.000104589
0.000104451
0.00010431
0.000104163
0.000103995
0.000105454
5.5093e-05
5.50657e-05
5.50246e-05
5.49707e-05
5.4904e-05
5.48255e-05
5.47354e-05
5.46353e-05
5.45272e-05
5.44141e-05
5.42994e-05
5.41882e-05
5.40849e-05
5.39916e-05
5.38964e-05
5.51071e-05
4.73927e-06
4.71211e-06
4.67133e-06
4.61768e-06
4.55217e-06
4.47547e-06
4.3887e-06
4.29375e-06
4.194e-06
4.09329e-06
3.9974e-06
3.91385e-06
3.85145e-06
3.81989e-06
3.81733e-06
4.75332e-06
-4.56115e-05
-4.56384e-05
-4.5679e-05
-4.57317e-05
-4.57963e-05
-4.58708e-05
-4.59542e-05
-4.60436e-05
-4.61349e-05
-4.62218e-05
-4.62973e-05
-4.63503e-05
-4.6367e-05
-4.63297e-05
-4.62317e-05
-4.55975e-05
-9.5946e-05
-9.59721e-05
-9.60116e-05
-9.60625e-05
-9.61244e-05
-9.6196e-05
-9.62741e-05
-9.63558e-05
-9.64354e-05
-9.6506e-05
-9.6557e-05
-9.65745e-05
-9.65411e-05
-9.6435e-05
-9.6245e-05
-9.59324e-05
-0.00014625
-0.000146275
-0.000146311
-0.000146359
-0.000146416
-0.000146482
-0.000146551
-0.000146621
-0.000146685
-0.000146734
-0.000146756
-0.000146735
-0.000146653
-0.000146488
-0.000146227
-0.000146237
-0.00019651
-0.000196532
-0.000196565
-0.000196607
-0.000196657
-0.000196712
-0.000196768
-0.000196822
-0.000196864
-0.000196887
-0.000196877
-0.000196819
-0.000196694
-0.000196486
-0.000196183
-0.000196498
-0.000246714
-0.000246733
-0.00024676
-0.000246795
-0.000246834
-0.000246875
-0.000246914
-0.000246947
-0.000246964
-0.000246956
-0.000246913
-0.00024682
-0.000246664
-0.000246433
-0.000246116
-0.000246705
-0.000296854
-0.000296867
-0.000296888
-0.000296913
-0.000296939
-0.000296964
-0.000296982
-0.00029699
-0.000296979
-0.000296939
-0.000296863
-0.000296741
-0.000296567
-0.000296331
-0.000296027
-0.000296846
-0.000346921
-0.00034693
-0.000346943
-0.000346957
-0.000346969
-0.000346974
-0.00034697
-0.000346951
-0.000346911
-0.000346843
-0.00034674
-0.0003466
-0.000346418
-0.000346191
-0.000345913
-0.000346917
-0.000396913
-0.000396916
-0.000396919
-0.000396921
-0.000396916
-0.000396903
-0.000396877
-0.000396835
-0.000396772
-0.000396685
-0.000396569
-0.000396422
-0.000396243
-0.000396029
-0.000395778
-0.000396911
-0.000446828
-0.000446824
-0.000446818
-0.000446806
-0.000446788
-0.00044676
-0.000446719
-0.000446663
-0.000446588
-0.000446492
-0.000446373
-0.000446228
-0.000446056
-0.000445856
-0.00044563
-0.000446829
-0.000496677
-0.000496669
-0.000496655
-0.000496635
-0.000496607
-0.000496571
-0.000496523
-0.000496459
-0.000496378
-0.00049628
-0.000496161
-0.00049602
-0.000495858
-0.000495674
-0.00049547
-0.00049668
-0.000546482
-0.000546471
-0.000546453
-0.000546429
-0.000546396
-0.000546354
-0.000546301
-0.000546233
-0.000546151
-0.000546052
-0.000545935
-0.000545801
-0.000545649
-0.00054548
-0.000545297
-0.000546487
-0.000596257
-0.000596244
-0.000596224
-0.000596197
-0.00059616
-0.000596115
-0.000596058
-0.000595989
-0.000595906
-0.000595809
-0.000595697
-0.00059557
-0.000595428
-0.000595275
-0.000595111
-0.000596263
-0.000646007
-0.000645993
-0.000645971
-0.000645942
-0.000645904
-0.000645856
-0.000645798
-0.000645729
-0.000645647
-0.000645552
-0.000645446
-0.000645327
-0.000645197
-0.000645058
-0.000644911
-0.000646014
-0.000695735
-0.000695721
-0.000695698
-0.000695668
-0.000695628
-0.00069558
-0.000695523
-0.000695454
-0.000695375
-0.000695285
-0.000695184
-0.000695074
-0.000694955
-0.000694829
-0.000694698
-0.000695743
-0.000745446
-0.000745431
-0.000745408
-0.000745377
-0.000745338
-0.00074529
-0.000745233
-0.000745167
-0.000745091
-0.000745006
-0.000744912
-0.00074481
-0.000744702
-0.000744588
-0.000744471
-0.000745453
-0.000795141
-0.000795126
-0.000795103
-0.000795073
-0.000795035
-0.000794988
-0.000794933
-0.00079487
-0.000794798
-0.000794718
-0.000794631
-0.000794537
-0.000794439
-0.000794336
-0.000794231
-0.000795148
-0.000844823
-0.000844809
-0.000844787
-0.000844757
-0.00084472
-0.000844675
-0.000844622
-0.000844562
-0.000844495
-0.000844421
-0.000844341
-0.000844255
-0.000844165
-0.000844073
-0.000843979
-0.000844831
-0.000894494
-0.00089448
-0.000894459
-0.000894431
-0.000894395
-0.000894352
-0.000894303
-0.000894247
-0.000894184
-0.000894115
-0.000894041
-0.000893963
-0.000893881
-0.000893798
-0.000893714
-0.000894502
-0.000944156
-0.000944143
-0.000944122
-0.000944096
-0.000944062
-0.000944022
-0.000943975
-0.000943923
-0.000943864
-0.000943801
-0.000943733
-0.000943662
-0.000943589
-0.000943514
-0.000943438
-0.000944163
-0.00099381
-0.000993796
-0.000993776
-0.000993753
-0.000993722
-0.000993682
-0.00099364
-0.000993592
-0.000993539
-0.000993481
-0.000993419
-0.000993355
-0.000993288
-0.00099322
-0.000993152
-0.000993816
-0.00104346
-0.00104344
-0.00104343
-0.0010434
-0.00104337
-0.00104334
-0.0010433
-0.00104326
-0.00104321
-0.00104315
-0.0010431
-0.00104304
-0.00104298
-0.00104292
-0.00104285
-0.00104346
-0.0010931
-0.00109309
-0.00109307
-0.00109305
-0.00109302
-0.00109299
-0.00109295
-0.00109291
-0.00109287
-0.00109282
-0.00109276
-0.00109271
-0.00109266
-0.0010926
-0.00109255
-0.0010931
-0.00114273
-0.00114272
-0.00114271
-0.00114269
-0.00114266
-0.00114263
-0.0011426
-0.00114256
-0.00114252
-0.00114247
-0.00114243
-0.00114238
-0.00114233
-0.00114228
-0.00114223
-0.00114274
-0.00119236
-0.00119235
-0.00119234
-0.00119232
-0.0011923
-0.00119227
-0.00119224
-0.0011922
-0.00119217
-0.00119213
-0.00119208
-0.00119204
-0.001192
-0.00119195
-0.0011919
-0.00119237
-0.00124199
-0.00124198
-0.00124196
-0.00124195
-0.00124193
-0.0012419
-0.00124187
-0.00124184
-0.00124181
-0.00124177
-0.00124173
-0.0012417
-0.00124165
-0.00124161
-0.00124157
-0.00124199
-0.0012916
-0.0012916
-0.00129159
-0.00129157
-0.00129155
-0.00129153
-0.0012915
-0.00129148
-0.00129144
-0.00129141
-0.00129138
-0.00129134
-0.0012913
-0.00129127
-0.00129123
-0.00129161
-0.00134122
-0.00134122
-0.00134121
-0.00134119
-0.00134117
-0.00134115
-0.00134113
-0.0013411
-0.00134107
-0.00134104
-0.00134101
-0.00134098
-0.00134095
-0.00134091
-0.00134088
-0.00134123
-0.00139084
-0.00139083
-0.00139082
-0.00139081
-0.00139079
-0.00139077
-0.00139075
-0.00139073
-0.0013907
-0.00139067
-0.00139064
-0.00139061
-0.00139058
-0.00139055
-0.00139052
-0.00139084
-0.00144044
-0.00144044
-0.00144043
-0.00144042
-0.0014404
-0.00144039
-0.00144037
-0.00144034
-0.00144032
-0.0014403
-0.00144027
-0.00144024
-0.00144021
-0.00144018
-0.00144016
-0.00144045
-0.00149005
-0.00149004
-0.00149004
-0.00149002
-0.00149001
-0.00148999
-0.00148998
-0.00148996
-0.00148994
-0.00148991
-0.00148989
-0.00148987
-0.00148984
-0.00148981
-0.00148979
-0.00149005
-0.00153965
-0.00153964
-0.00153964
-0.00153963
-0.00153961
-0.0015396
-0.00153958
-0.00153957
-0.00153955
-0.00153953
-0.00153951
-0.00153948
-0.00153946
-0.00153943
-0.00153941
-0.00153965
-0.00158924
-0.00158924
-0.00158923
-0.00158922
-0.00158921
-0.0015892
-0.00158919
-0.00158917
-0.00158915
-0.00158913
-0.00158911
-0.00158909
-0.00158907
-0.00158905
-0.00158902
-0.00158925
-0.00163884
-0.00163883
-0.00163882
-0.00163881
-0.00163881
-0.00163879
-0.00163878
-0.00163877
-0.00163875
-0.00163873
-0.00163871
-0.0016387
-0.00163868
-0.00163866
-0.00163863
-0.00163884
-0.00168842
-0.00168842
-0.00168841
-0.0016884
-0.0016884
-0.00168838
-0.00168837
-0.00168836
-0.00168835
-0.00168833
-0.00168831
-0.0016883
-0.00168828
-0.00168826
-0.00168824
-0.00168842
-0.001738
-0.001738
-0.001738
-0.00173799
-0.00173798
-0.00173797
-0.00173796
-0.00173795
-0.00173793
-0.00173792
-0.00173791
-0.00173789
-0.00173787
-0.00173786
-0.00173783
-0.00173801
-0.00178758
-0.00178758
-0.00178757
-0.00178757
-0.00178757
-0.00178756
-0.00178755
-0.00178753
-0.00178752
-0.00178751
-0.00178749
-0.00178748
-0.00178746
-0.00178745
-0.00178743
-0.00178759
-0.00183716
-0.00183716
-0.00183715
-0.00183715
-0.00183714
-0.00183713
-0.00183712
-0.00183712
-0.0018371
-0.00183709
-0.00183708
-0.00183706
-0.00183705
-0.00183703
-0.00183702
-0.00183716
-0.00188673
-0.00188673
-0.00188673
-0.00188672
-0.00188671
-0.0018867
-0.0018867
-0.00188669
-0.00188668
-0.00188667
-0.00188666
-0.00188664
-0.00188663
-0.00188661
-0.0018866
-0.00188673
-0.0019363
-0.0019363
-0.00193629
-0.00193629
-0.00193628
-0.00193628
-0.00193627
-0.00193626
-0.00193625
-0.00193624
-0.00193623
-0.00193622
-0.0019362
-0.00193619
-0.00193617
-0.0019363
-0.00198586
-0.00198586
-0.00198585
-0.00198585
-0.00198585
-0.00198584
-0.00198584
-0.00198583
-0.00198582
-0.00198581
-0.0019858
-0.00198579
-0.00198578
-0.00198576
-0.00198575
-0.00198586
-0.00203542
-0.00203542
-0.00203541
-0.00203541
-0.00203541
-0.0020354
-0.0020354
-0.00203539
-0.00203538
-0.00203538
-0.00203537
-0.00203536
-0.00203534
-0.00203533
-0.00203531
-0.00203542
-0.00208498
-0.00208497
-0.00208497
-0.00208497
-0.00208496
-0.00208496
-0.00208495
-0.00208495
-0.00208494
-0.00208493
-0.00208493
-0.00208492
-0.00208491
-0.00208489
-0.00208488
-0.00208498
-0.00213453
-0.00213453
-0.00213453
-0.00213452
-0.00213452
-0.00213451
-0.00213451
-0.0021345
-0.00213449
-0.00213449
-0.00213448
-0.00213447
-0.00213446
-0.00213445
-0.00213444
-0.00213453
-0.00218407
-0.00218407
-0.00218407
-0.00218407
-0.00218406
-0.00218406
-0.00218406
-0.00218405
-0.00218404
-0.00218404
-0.00218403
-0.00218402
-0.00218401
-0.002184
-0.00218399
-0.00218407
-0.00223361
-0.00223361
-0.00223361
-0.00223361
-0.00223361
-0.0022336
-0.0022336
-0.0022336
-0.00223359
-0.00223358
-0.00223358
-0.00223357
-0.00223356
-0.00223355
-0.00223354
-0.00223362
-0.00228315
-0.00228315
-0.00228315
-0.00228315
-0.00228315
-0.00228314
-0.00228314
-0.00228314
-0.00228313
-0.00228313
-0.00228312
-0.00228312
-0.00228311
-0.0022831
-0.00228309
-0.00228316
-0.00233269
-0.00233269
-0.00233269
-0.00233269
-0.00233268
-0.00233268
-0.00233268
-0.00233267
-0.00233267
-0.00233266
-0.00233266
-0.00233265
-0.00233265
-0.00233264
-0.00233263
-0.00233269
-0.00238222
-0.00238222
-0.00238222
-0.00238222
-0.00238222
-0.00238221
-0.00238221
-0.00238221
-0.0023822
-0.0023822
-0.00238219
-0.00238219
-0.00238218
-0.00238217
-0.00238216
-0.00238222
-0.00243175
-0.00243175
-0.00243175
-0.00243174
-0.00243174
-0.00243174
-0.00243174
-0.00243174
-0.00243173
-0.00243173
-0.00243172
-0.00243172
-0.00243171
-0.0024317
-0.00243169
-0.00243175
-0.00248127
-0.00248127
-0.00248127
-0.00248127
-0.00248126
-0.00248126
-0.00248126
-0.00248126
-0.00248126
-0.00248125
-0.00248125
-0.00248124
-0.00248124
-0.00248123
-0.00248122
-0.00248127
-0.00253079
-0.00253079
-0.00253079
-0.00253079
-0.00253078
-0.00253078
-0.00253078
-0.00253078
-0.00253078
-0.00253077
-0.00253077
-0.00253077
-0.00253076
-0.00253076
-0.00253075
-0.00253079
-0.00258031
-0.0025803
-0.0025803
-0.0025803
-0.0025803
-0.0025803
-0.0025803
-0.0025803
-0.00258029
-0.00258029
-0.00258029
-0.00258029
-0.00258028
-0.00258028
-0.00258027
-0.00258031
-0.00262982
-0.00262982
-0.00262982
-0.00262982
-0.00262982
-0.00262981
-0.00262981
-0.00262981
-0.00262981
-0.00262981
-0.00262981
-0.0026298
-0.0026298
-0.00262979
-0.00262979
-0.00262982
-0.00267932
-0.00267932
-0.00267932
-0.00267932
-0.00267932
-0.00267932
-0.00267932
-0.00267932
-0.00267932
-0.00267932
-0.00267932
-0.00267931
-0.00267931
-0.00267931
-0.0026793
-0.00267932
-0.00272883
-0.00272883
-0.00272883
-0.00272883
-0.00272883
-0.00272882
-0.00272882
-0.00272882
-0.00272882
-0.00272882
-0.00272882
-0.00272882
-0.00272882
-0.00272881
-0.00272881
-0.00272883
-0.00277833
-0.00277833
-0.00277833
-0.00277833
-0.00277832
-0.00277832
-0.00277832
-0.00277832
-0.00277832
-0.00277832
-0.00277832
-0.00277832
-0.00277832
-0.00277832
-0.00277831
-0.00277833
-0.00282782
-0.00282782
-0.00282782
-0.00282782
-0.00282782
-0.00282782
-0.00282782
-0.00282782
-0.00282782
-0.00282782
-0.00282782
-0.00282782
-0.00282782
-0.00282782
-0.00282781
-0.00282782
-0.00287732
-0.00287732
-0.00287732
-0.00287732
-0.00287732
-0.00287732
-0.00287732
-0.00287732
-0.00287732
-0.00287732
-0.00287732
-0.00287732
-0.00287732
-0.00287731
-0.00287731
-0.00287732
-0.00292681
-0.0029268
-0.00292681
-0.00292681
-0.00292681
-0.00292681
-0.00292681
-0.0029268
-0.00292681
-0.00292681
-0.00292681
-0.00292681
-0.00292681
-0.00292681
-0.00292681
-0.00292681
-0.0029763
-0.00297629
-0.0029763
-0.0029763
-0.0029763
-0.0029763
-0.0029763
-0.0029763
-0.00297629
-0.00297629
-0.0029763
-0.0029763
-0.00297629
-0.0029763
-0.0029763
-0.0029763
-0.00302578
-0.00302578
-0.00302578
-0.00302578
-0.00302578
-0.00302578
-0.00302578
-0.00302578
-0.00302578
-0.00302578
-0.00302578
-0.00302578
-0.00302578
-0.00302578
-0.00302578
-0.00302578
-0.00307526
-0.00307526
-0.00307526
-0.00307526
-0.00307526
-0.00307526
-0.00307526
-0.00307526
-0.00307526
-0.00307526
-0.00307526
-0.00307526
-0.00307526
-0.00307526
-0.00307526
-0.00307526
)
;

boundaryField
{
    wireUpstream
    {
        type            calculated;
        value           nonuniform List<scalar> 
16
(
-0.0031
-0.0031
-0.0031
-0.0031
-0.0031
-0.0031
-0.0031
-0.0031
-0.0031
-0.0031
-0.0031
-0.0031
-0.0031
-0.0031
-0.0031
-0.0031
)
;
    }
    wireDownstream
    {
        type            calculated;
        value           nonuniform List<scalar> 
16
(
0.003
0.003
0.003
0.003
0.003
0.003
0.003
0.003
0.003
0.003
0.003
0.003
0.003
0.003
0.003
0.003
)
;
    }
    wireTopContact
    {
        type            calculated;
        value           nonuniform List<scalar> 
122
(
0.00291106
0.00286096
0.00281085
0.00276074
0.00271063
0.00266051
0.0026104
0.00256029
0.00251017
0.00246005
0.00240993
0.00235982
0.0023097
0.00225958
0.00220946
0.00215934
0.00210922
0.00205911
0.00200899
0.00195887
0.00190875
0.00185863
0.00180851
0.0017584
0.00170828
0.00165816
0.00160804
0.00155792
0.00150781
0.00145769
0.00140757
0.00135745
0.00130733
0.00125721
0.00120709
0.00115696
0.00110684
0.00105671
0.00100658
0.000956449
0.000906314
0.000856174
0.00080603
0.000755882
0.000705728
0.000655569
0.000605401
0.000555227
0.00050505
0.000454872
0.000404699
0.000354532
0.000304374
0.000254228
0.000204098
0.000153988
0.000103901
5.38441e-05
3.82138e-06
-4.61667e-05
-9.61279e-05
-0.000146072
-0.000196007
-0.000245936
-0.000295856
-0.00034576
-0.000395644
-0.000445512
-0.000495364
-0.000545203
-0.000595028
-0.000644837
-0.000694631
-0.000744412
-0.000794179
-0.000843932
-0.000893672
-0.000943401
-0.000993116
-0.00104282
-0.00109252
-0.0011422
-0.00119188
-0.00124155
-0.00129121
-0.00134086
-0.0013905
-0.00144014
-0.00148977
-0.00153939
-0.00158901
-0.00163862
-0.00168822
-0.00173782
-0.00178742
-0.00183701
-0.00188659
-0.00193617
-0.00198574
-0.00203531
-0.00208487
-0.00213443
-0.00218399
-0.00223354
-0.00228308
-0.00233262
-0.00238216
-0.00243169
-0.00248122
-0.00253074
-0.00258026
-0.00262978
-0.0026793
-0.00272881
-0.00277831
-0.00282781
-0.00287731
-0.00292681
-0.00297629
-0.00302578
-0.00307526
0.00296806
)
;
    }
    front
    {
        type            wedge;
    }
    back
    {
        type            wedge;
    }
}


// ************************************************************************* //
