/*--------------------------------*- C++ -*----------------------------------*\
| =========                 |                                                 |
| \\      /  F ield         | foam-extend: Open Source CFD                    |
|  \\    /   O peration     | Version:     4.1-20200408                       |
|   \\  /    A nd           | Web:         http://www.foam-extend.org         |
|    \\/     M anipulation  |                                                 |
\*---------------------------------------------------------------------------*/
FoamFile
{
    version     2.0;
    format      ascii;
    class       volScalarField;
    location    "0.0225000";
    object      J;
}
// * * * * * * * * * * * * * * * * * * * * * * * * * * * * * * * * * * * * * //

dimensions      [0 0 0 0 0 0 0];

internalField   nonuniform List<scalar> 
1952
(
1.00105
1.00105
1.00104
1.00103
1.00102
1.00101
1.001
1.00099
1.00098
1.00099
1.001
1.00108
1.00118
1.00144
1.00177
1.00106
1.00099
1.00098
1.00097
1.00097
1.00095
1.00094
1.00093
1.00092
1.00091
1.00091
1.00093
1.001
1.00109
1.00134
1.00166
1.00099
1.00093
1.00093
1.00092
1.00091
1.0009
1.00089
1.00087
1.00086
1.00085
1.00086
1.00087
1.00094
1.00104
1.0013
1.00163
1.00093
1.00087
1.00087
1.00086
1.00086
1.00084
1.00083
1.00082
1.00081
1.0008
1.00081
1.00082
1.0009
1.001
1.00127
1.00162
1.00088
1.00082
1.00082
1.00081
1.00081
1.00079
1.00078
1.00077
1.00076
1.00075
1.00077
1.00078
1.00086
1.00097
1.00125
1.00161
1.00083
1.00078
1.00078
1.00077
1.00076
1.00075
1.00074
1.00073
1.00072
1.00071
1.00073
1.00075
1.00084
1.00095
1.00124
1.00161
1.00078
1.00074
1.00074
1.00073
1.00072
1.00071
1.0007
1.00069
1.00069
1.00068
1.0007
1.00073
1.00082
1.00094
1.00123
1.00161
1.00074
1.0007
1.0007
1.00069
1.00069
1.00068
1.00067
1.00066
1.00066
1.00065
1.00067
1.0007
1.0008
1.00093
1.00123
1.00161
1.0007
1.00067
1.00067
1.00066
1.00065
1.00064
1.00064
1.00063
1.00063
1.00063
1.00065
1.00069
1.00079
1.00092
1.00122
1.00162
1.00067
1.00064
1.00064
1.00063
1.00063
1.00062
1.00061
1.0006
1.00061
1.00061
1.00063
1.00067
1.00077
1.00091
1.00122
1.00162
1.00064
1.00061
1.00061
1.0006
1.0006
1.00059
1.00059
1.00058
1.00058
1.00059
1.00062
1.00066
1.00076
1.0009
1.00122
1.00163
1.00061
1.00058
1.00058
1.00058
1.00057
1.00057
1.00057
1.00056
1.00057
1.00057
1.0006
1.00064
1.00075
1.0009
1.00122
1.00163
1.00058
1.00056
1.00056
1.00055
1.00055
1.00055
1.00055
1.00054
1.00055
1.00056
1.00059
1.00063
1.00075
1.00089
1.00122
1.00163
1.00056
1.00054
1.00054
1.00053
1.00053
1.00053
1.00053
1.00052
1.00053
1.00054
1.00058
1.00062
1.00074
1.00089
1.00122
1.00163
1.00054
1.00052
1.00052
1.00052
1.00051
1.00051
1.00051
1.00051
1.00052
1.00053
1.00057
1.00061
1.00073
1.00088
1.00121
1.00163
1.00052
1.0005
1.0005
1.0005
1.0005
1.00049
1.00049
1.00049
1.0005
1.00052
1.00055
1.00061
1.00072
1.00088
1.00121
1.00164
1.0005
1.00048
1.00048
1.00048
1.00048
1.00048
1.00048
1.00048
1.00049
1.0005
1.00054
1.0006
1.00072
1.00087
1.00121
1.00164
1.00048
1.00046
1.00047
1.00046
1.00046
1.00046
1.00046
1.00046
1.00048
1.00049
1.00053
1.00059
1.00071
1.00087
1.00121
1.00164
1.00047
1.00045
1.00045
1.00045
1.00045
1.00045
1.00045
1.00045
1.00047
1.00048
1.00052
1.00058
1.0007
1.00086
1.0012
1.00163
1.00045
1.00043
1.00044
1.00043
1.00044
1.00043
1.00044
1.00044
1.00045
1.00047
1.00051
1.00057
1.0007
1.00086
1.0012
1.00163
1.00044
1.00042
1.00042
1.00042
1.00042
1.00042
1.00042
1.00043
1.00044
1.00046
1.0005
1.00056
1.00069
1.00085
1.0012
1.00163
1.00042
1.0004
1.00041
1.0004
1.00041
1.00041
1.00041
1.00041
1.00043
1.00045
1.00049
1.00055
1.00068
1.00085
1.00119
1.00163
1.00041
1.00039
1.00039
1.00039
1.00039
1.00039
1.0004
1.0004
1.00042
1.00044
1.00048
1.00054
1.00068
1.00084
1.00119
1.00163
1.00039
1.00038
1.00038
1.00038
1.00038
1.00038
1.00039
1.00039
1.00041
1.00043
1.00048
1.00054
1.00067
1.00084
1.00119
1.00163
1.00038
1.00036
1.00037
1.00036
1.00037
1.00037
1.00037
1.00038
1.0004
1.00042
1.00047
1.00053
1.00066
1.00083
1.00119
1.00163
1.00036
1.00035
1.00035
1.00035
1.00035
1.00035
1.00036
1.00037
1.00039
1.00041
1.00046
1.00052
1.00066
1.00083
1.00118
1.00163
1.00035
1.00033
1.00034
1.00034
1.00034
1.00034
1.00035
1.00035
1.00037
1.0004
1.00045
1.00051
1.00065
1.00083
1.00118
1.00162
1.00033
1.00032
1.00032
1.00032
1.00033
1.00033
1.00034
1.00034
1.00036
1.00039
1.00044
1.00051
1.00065
1.00082
1.00118
1.00162
1.00032
1.0003
1.00031
1.00031
1.00031
1.00031
1.00032
1.00033
1.00035
1.00038
1.00043
1.0005
1.00064
1.00082
1.00118
1.00162
1.0003
1.00028
1.00029
1.00029
1.0003
1.0003
1.00031
1.00032
1.00034
1.00037
1.00042
1.00049
1.00064
1.00082
1.00118
1.00163
1.00029
1.00027
1.00027
1.00027
1.00028
1.00028
1.00029
1.00031
1.00033
1.00036
1.00041
1.00049
1.00063
1.00082
1.00118
1.00163
1.00027
1.00025
1.00025
1.00025
1.00026
1.00027
1.00028
1.00029
1.00032
1.00035
1.00041
1.00048
1.00063
1.00082
1.00118
1.00163
1.00025
1.00023
1.00023
1.00023
1.00024
1.00025
1.00026
1.00028
1.0003
1.00034
1.0004
1.00047
1.00063
1.00082
1.00119
1.00164
1.00023
1.0002
1.00021
1.00021
1.00022
1.00023
1.00024
1.00026
1.00029
1.00032
1.00039
1.00047
1.00062
1.00082
1.00119
1.00164
1.0002
1.00018
1.00018
1.00019
1.0002
1.00021
1.00022
1.00024
1.00027
1.00031
1.00038
1.00046
1.00062
1.00082
1.0012
1.00165
1.00018
1.00015
1.00015
1.00016
1.00017
1.00018
1.0002
1.00022
1.00026
1.0003
1.00037
1.00046
1.00062
1.00082
1.0012
1.00166
1.00015
1.00011
1.00012
1.00013
1.00014
1.00015
1.00017
1.0002
1.00023
1.00028
1.00035
1.00045
1.00061
1.00082
1.00121
1.00167
1.00011
1.00007
1.00008
1.00009
1.0001
1.00012
1.00014
1.00017
1.00021
1.00026
1.00034
1.00044
1.00061
1.00082
1.00122
1.00169
1.00007
1.00003
1.00004
1.00005
1.00006
1.00008
1.00011
1.00014
1.00018
1.00024
1.00032
1.00043
1.0006
1.00083
1.00123
1.0017
1.00003
0.999976
0.999987
0.999997
1.00001
1.00004
1.00007
1.0001
1.00015
1.00021
1.0003
1.00041
1.0006
1.00083
1.00124
1.00172
0.999974
0.999916
0.999927
0.99994
0.999959
0.999984
1.00002
1.00006
1.00011
1.00018
1.00027
1.00039
1.00059
1.00083
1.00125
1.00174
0.999914
0.999847
0.999859
0.999873
0.999894
0.999922
0.999957
1
1.00006
1.00013
1.00024
1.00037
1.00057
1.00083
1.00126
1.00176
0.999844
0.999768
0.99978
0.999796
0.999819
0.99985
0.999888
0.999938
1
1.00008
1.0002
1.00034
1.00055
1.00082
1.00127
1.00179
0.999765
0.999677
0.99969
0.999707
0.999732
0.999766
0.999807
0.999862
0.999931
1.00002
1.00014
1.0003
1.00052
1.00081
1.00127
1.00181
0.999674
0.999574
0.999587
0.999606
0.999631
0.999668
0.999712
0.999771
0.999846
0.999943
1.00007
1.00024
1.00048
1.00079
1.00127
1.00183
0.999571
0.999458
0.999471
0.99949
0.999516
0.999554
0.999601
0.999663
0.999743
0.999848
0.999987
1.00017
1.00043
1.00075
1.00126
1.00185
0.999455
0.999329
0.999341
0.99936
0.999386
0.999424
0.999472
0.999536
0.99962
0.99973
0.999878
1.00007
1.00035
1.0007
1.00123
1.00186
0.999326
0.999187
0.999197
0.999215
0.99924
0.999277
0.999324
0.999388
0.999473
0.999586
0.999741
0.999946
1.00024
1.00062
1.00118
1.00186
0.999184
0.999032
0.99904
0.999056
0.999078
0.999111
0.999155
0.999216
0.999299
0.999412
0.99957
0.999782
1.00009
1.00049
1.00109
1.00184
0.999029
0.998867
0.998872
0.998884
0.998901
0.998928
0.998966
0.99902
0.999096
0.999203
0.999358
0.99957
0.999882
1.00031
1.00094
1.00176
0.998865
0.998694
0.998696
0.998703
0.998712
0.998731
0.998758
0.9988
0.998865
0.998958
0.9991
0.999301
0.999604
1.00003
1.00066
1.00151
0.998694
0.998518
0.998515
0.998515
0.998516
0.998522
0.998536
0.998561
0.998607
0.998678
0.998797
0.998971
0.999248
0.99964
1.00024
1.00105
0.998519
0.998343
0.998335
0.998327
0.998316
0.998308
0.998304
0.998306
0.998328
0.998367
0.998454
0.998587
0.998822
0.999163
0.999707
1.00045
0.998347
0.998177
0.998163
0.998145
0.998122
0.998096
0.998071
0.998046
0.998037
0.998037
0.998081
0.998158
0.998336
0.998603
0.999071
0.999718
0.998183
0.998028
0.998008
0.997979
0.997941
0.997896
0.997847
0.997792
0.997746
0.9977
0.997692
0.997702
0.997808
0.997981
0.998353
0.998879
0.998036
0.997903
0.997876
0.997837
0.997784
0.997719
0.997645
0.997556
0.997471
0.997373
0.997305
0.997237
0.997258
0.997319
0.997573
0.997951
0.997913
0.997811
0.997778
0.997729
0.997661
0.997576
0.997476
0.997355
0.997228
0.997076
0.996945
0.996791
0.996716
0.996643
0.996757
0.996946
0.997823
0.99776
0.997722
0.997664
0.997583
0.997481
0.997358
0.997205
0.997039
0.996834
0.996638
0.996395
0.996216
0.995994
0.99594
0.995886
0.997774
0.997755
0.997713
0.997648
0.997557
0.99744
0.997298
0.99712
0.996919
0.996668
0.996412
0.996086
0.995802
0.995428
0.995198
0.994874
0.997771
0.997816
0.997771
0.997703
0.997607
0.997483
0.997328
0.997134
0.996909
0.996627
0.996324
0.995933
0.995559
0.995039
0.994616
0.993945
0.997832
0.997915
0.99787
0.997801
0.997703
0.997577
0.997419
0.997219
0.996982
0.996683
0.996352
0.995918
0.995476
0.994846
0.994271
0.993288
0.99793
0.997957
0.99791
0.997842
0.997742
0.997616
0.997455
0.997253
0.997011
0.996703
0.996357
0.995903
0.995432
0.994775
0.994178
0.993184
0.997972
0.997911
0.997862
0.997792
0.997689
0.997561
0.997398
0.997196
0.996951
0.996645
0.996297
0.995848
0.995385
0.994763
0.99423
0.993409
0.997928
0.997789
0.997737
0.997664
0.997558
0.997427
0.997262
0.99706
0.996818
0.996523
0.99619
0.995778
0.995361
0.99484
0.994432
0.993853
0.997807
0.997593
0.997537
0.997462
0.997352
0.997219
0.997052
0.996853
0.996616
0.996341
0.996035
0.995685
0.995345
0.994971
0.994729
0.994436
0.997611
0.997329
0.997272
0.997197
0.997085
0.996952
0.996785
0.996592
0.996367
0.996117
0.995843
0.995565
0.995318
0.995117
0.995063
0.995077
0.997347
0.997013
0.996957
0.996885
0.996777
0.996648
0.996482
0.996296
0.996082
0.995854
0.995605
0.995398
0.995253
0.995246
0.99538
0.995679
0.997031
0.99666
0.996604
0.996534
0.996427
0.996298
0.996126
0.995938
0.995737
0.995542
0.995378
0.995312
0.995339
0.995516
0.995781
0.996208
0.996678
0.996228
0.996166
0.996091
0.995985
0.995864
0.995726
0.995601
0.995501
0.995455
0.995471
0.99557
0.995743
0.995996
0.996291
0.996673
0.99625
0.995841
0.995797
0.995749
0.995694
0.995653
0.995626
0.995627
0.995661
0.995756
0.995882
0.996051
0.996247
0.996488
0.996756
0.997084
0.995857
0.995838
0.995833
0.995839
0.995849
0.995882
0.995927
0.995995
0.99608
0.996198
0.996317
0.996472
0.99665
0.996879
0.997127
0.997437
0.995839
0.996134
0.996146
0.996174
0.996209
0.99626
0.996307
0.996371
0.996448
0.996556
0.996679
0.996837
0.997009
0.997222
0.997446
0.997723
0.996129
0.996457
0.996468
0.996492
0.996522
0.996568
0.996623
0.996696
0.996781
0.99689
0.997009
0.997157
0.997316
0.997512
0.997714
0.997964
0.996452
0.996745
0.99676
0.996787
0.996823
0.996871
0.996927
0.996998
0.99708
0.997184
0.997298
0.997437
0.997584
0.997763
0.997944
0.998167
0.996739
0.997019
0.997035
0.997061
0.997096
0.997142
0.997198
0.997269
0.997349
0.997448
0.997554
0.997683
0.997817
0.997979
0.99814
0.998338
0.997013
0.99727
0.997287
0.997313
0.997348
0.997393
0.997448
0.997515
0.997591
0.997682
0.997781
0.997899
0.998021
0.998166
0.99831
0.998485
0.997264
0.997503
0.99752
0.997544
0.997578
0.997621
0.997673
0.997736
0.997807
0.997892
0.997983
0.99809
0.998199
0.998329
0.998456
0.998612
0.997497
0.997716
0.997732
0.997755
0.997788
0.997828
0.997877
0.997935
0.998001
0.998079
0.998161
0.998258
0.998356
0.998472
0.998584
0.998722
0.997711
0.997911
0.997927
0.997948
0.997979
0.998016
0.998061
0.998115
0.998175
0.998246
0.998321
0.998407
0.998495
0.998597
0.998697
0.998818
0.997906
0.998089
0.998104
0.998124
0.998152
0.998186
0.998228
0.998277
0.998332
0.998396
0.998463
0.99854
0.998618
0.998709
0.998796
0.998903
0.998084
0.998251
0.998265
0.998283
0.998309
0.998341
0.998379
0.998423
0.998473
0.99853
0.99859
0.998659
0.998728
0.998808
0.998885
0.998979
0.998247
0.998399
0.998412
0.998428
0.998452
0.99848
0.998515
0.998555
0.9986
0.998651
0.998705
0.998766
0.998827
0.998897
0.998965
0.999048
0.998395
0.998533
0.998546
0.99856
0.998582
0.998607
0.998639
0.998674
0.998714
0.99876
0.998808
0.998862
0.998916
0.998977
0.999037
0.99911
0.99853
0.998656
0.998667
0.99868
0.9987
0.998722
0.998751
0.998782
0.998818
0.998859
0.998901
0.998949
0.998996
0.999051
0.999103
0.999167
0.998652
0.998767
0.998777
0.998789
0.998807
0.998827
0.998852
0.998881
0.998913
0.998948
0.998986
0.999028
0.99907
0.999118
0.999163
0.999221
0.998764
0.998869
0.998878
0.998888
0.998904
0.998922
0.998945
0.99897
0.998999
0.99903
0.999063
0.999101
0.999137
0.999179
0.99922
0.999271
0.998866
0.998961
0.99897
0.998979
0.998993
0.99901
0.99903
0.999052
0.999077
0.999105
0.999134
0.999167
0.999199
0.999236
0.999272
0.999317
0.998959
0.999046
0.999054
0.999062
0.999075
0.999089
0.999107
0.999127
0.999149
0.999174
0.9992
0.999229
0.999257
0.999289
0.999321
0.999362
0.999044
0.999124
0.999131
0.999138
0.99915
0.999162
0.999178
0.999196
0.999215
0.999237
0.99926
0.999285
0.99931
0.999339
0.999367
0.999404
0.999122
0.999196
0.999202
0.999208
0.999218
0.99923
0.999244
0.999259
0.999277
0.999296
0.999316
0.999338
0.999361
0.999386
0.999411
0.999444
0.999194
0.999262
0.999267
0.999273
0.999282
0.999292
0.999304
0.999318
0.999333
0.99935
0.999368
0.999388
0.999407
0.99943
0.999452
0.999482
0.99926
0.999322
0.999327
0.999332
0.99934
0.999349
0.99936
0.999372
0.999386
0.999401
0.999417
0.999434
0.999452
0.999471
0.999491
0.999519
0.999321
0.999379
0.999383
0.999388
0.999395
0.999403
0.999412
0.999423
0.999435
0.999449
0.999462
0.999478
0.999493
0.999511
0.999529
0.999554
0.999378
0.999431
0.999435
0.999439
0.999445
0.999452
0.999461
0.99947
0.999481
0.999493
0.999505
0.999519
0.999533
0.999548
0.999565
0.999588
0.99943
0.99948
0.999483
0.999487
0.999492
0.999498
0.999506
0.999515
0.999524
0.999535
0.999546
0.999558
0.99957
0.999584
0.999599
0.999621
0.999479
0.999525
0.999528
0.999531
0.999536
0.999542
0.999549
0.999556
0.999565
0.999574
0.999584
0.999595
0.999606
0.999619
0.999632
0.999652
0.999524
0.999567
0.99957
0.999573
0.999577
0.999582
0.999589
0.999595
0.999603
0.999611
0.99962
0.99963
0.99964
0.999651
0.999664
0.999682
0.999567
0.999607
0.99961
0.999612
0.999616
0.999621
0.999626
0.999632
0.999639
0.999647
0.999655
0.999663
0.999672
0.999683
0.999694
0.999712
0.999606
0.999644
0.999647
0.999649
0.999653
0.999657
0.999662
0.999667
0.999673
0.99968
0.999687
0.999695
0.999703
0.999713
0.999723
0.99974
0.999644
0.999679
0.999681
0.999684
0.999687
0.99969
0.999695
0.9997
0.999706
0.999712
0.999718
0.999725
0.999733
0.999741
0.999752
0.999767
0.999679
0.999712
0.999714
0.999716
0.999719
0.999723
0.999727
0.999731
0.999736
0.999742
0.999748
0.999754
0.999761
0.999769
0.999779
0.999794
0.999712
0.999744
0.999745
0.999747
0.99975
0.999753
0.999757
0.999761
0.999765
0.999771
0.999776
0.999782
0.999788
0.999796
0.999805
0.999819
0.999743
0.999773
0.999775
0.999776
0.999779
0.999782
0.999785
0.999789
0.999793
0.999798
0.999803
0.999809
0.999815
0.999821
0.99983
0.999844
0.999773
0.999801
0.999802
0.999804
0.999806
0.999809
0.999812
0.999816
0.99982
0.999824
0.999829
0.999834
0.99984
0.999846
0.999854
0.999868
0.9998
0.999827
0.999828
0.99983
0.999832
0.999835
0.999838
0.999841
0.999845
0.999849
0.999853
0.999858
0.999864
0.99987
0.999878
0.999891
0.999827
0.999852
0.999853
0.999854
0.999857
0.999859
0.999862
0.999865
0.999869
0.999873
0.999877
0.999882
0.999887
0.999893
0.9999
0.999913
0.999851
0.999875
0.999876
0.999878
0.99988
0.999882
0.999885
0.999888
0.999891
0.999895
0.999899
0.999904
0.999909
0.999915
0.999922
0.999935
0.999875
0.999897
0.999898
0.999899
0.999901
0.999904
0.999906
0.99991
0.999913
0.999917
0.999921
0.999925
0.99993
0.999936
0.999943
0.999956
0.999897
0.999918
0.999919
0.99992
0.999922
0.999924
0.999927
0.99993
0.999933
0.999937
0.999941
0.999946
0.999951
0.999956
0.999964
0.999976
0.999917
0.999937
0.999938
0.999939
0.999941
0.999943
0.999946
0.999949
0.999953
0.999956
0.999961
0.999965
0.99997
0.999976
0.999984
0.999996
0.999937
0.999955
0.999956
0.999957
0.999959
0.999961
0.999964
0.999967
0.999971
0.999975
0.999979
0.999984
0.999989
0.999995
1
1.00002
0.999954
0.999971
0.999972
0.999974
0.999976
0.999978
0.999981
0.999984
0.999988
0.999992
0.999996
1
1.00001
1.00001
1.00002
1.00003
0.999971
0.999987
0.999988
0.999989
0.999991
0.999993
0.999996
0.999999
1
1.00001
1.00001
1.00002
1.00002
1.00003
1.00004
1.00005
0.999986
1
1
1
1
1.00001
1.00001
1.00001
1.00002
1.00002
1.00003
1.00003
1.00004
1.00005
1.00005
1.00007
1
1.00001
1.00001
1.00002
1.00002
1.00002
1.00002
1.00003
1.00003
1.00003
1.00004
1.00005
1.00005
1.00006
1.00007
1.00009
1.00001
1.00002
1.00003
1.00003
1.00003
1.00003
1.00003
1.00004
1.00004
1.00005
1.00005
1.00006
1.00007
1.00007
1.00008
1.0001
1.00002
1.00003
1.00003
1.00004
1.00004
1.00004
1.00004
1.00005
1.00005
1.00006
1.00006
1.00007
1.00008
1.00009
1.0001
1.00012
1.00003
1.00004
1.00004
1.00004
1.00005
1.00005
1.00005
1.00006
1.00006
1.00006
1.00007
1.00008
1.00009
1.0001
1.00011
1.00013
1.00004
1.00005
1.00005
1.00005
1.00005
1.00006
1.00006
1.00006
1.00007
1.00007
1.00008
1.00008
1.00009
1.0001
1.00012
1.00014
1.00005
1.00006
1.00006
1.00006
1.00006
1.00006
1.00006
1.00007
1.00007
1.00008
1.00008
1.00009
1.0001
1.00011
1.00012
1.00015
1.00005
1.00006
1.00006
1.00006
1.00006
1.00007
1.00007
1.00007
1.00007
1.00008
1.00008
1.00009
1.00009
1.0001
1.00011
1.00013
1.00006
1.00006
1.00006
1.00006
1.00007
1.00007
1.00007
1.00007
1.00007
1.00008
1.00008
1.00009
1.00009
1.0001
1.00011
1.00012
1.00006
)
;

boundaryField
{
    wireUpstream
    {
        type            calculated;
        value           nonuniform List<scalar> 
16
(
1.00006
1.00006
1.00007
1.00007
1.00007
1.00007
1.00007
1.00008
1.00008
1.00008
1.00009
1.00009
1.00009
1.0001
1.0001
1.00006
)
;
    }
    wireDownstream
    {
        type            calculated;
        value           nonuniform List<scalar> 
16
(
1.00105
1.00105
1.00104
1.00103
1.00102
1.00101
1.00099
1.00099
1.00097
1.00098
1.001
1.00107
1.00117
1.00144
1.00185
1.00105
)
;
    }
    wireTopContact
    {
        type            calculated;
        value           nonuniform List<scalar> 
122
(
1.00165
1.00163
1.00161
1.0016
1.0016
1.0016
1.00161
1.00161
1.00161
1.00162
1.00162
1.00162
1.00163
1.00163
1.00163
1.00163
1.00163
1.00163
1.00163
1.00163
1.00162
1.00162
1.00162
1.00162
1.00162
1.00162
1.00162
1.00163
1.00163
1.00163
1.00163
1.00164
1.00165
1.00165
1.00166
1.00168
1.00169
1.00171
1.00173
1.00175
1.00177
1.00179
1.00182
1.00184
1.00185
1.00186
1.00186
1.00183
1.00175
1.0015
1.00103
1.00043
0.9997
0.998861
0.997935
0.996935
0.995876
0.994884
0.993954
0.993271
0.993213
0.993465
0.993906
0.994473
0.995084
0.995661
0.99619
0.996665
0.997077
0.99743
0.997719
0.997962
0.998166
0.998339
0.998487
0.998614
0.998725
0.998821
0.998906
0.998983
0.999051
0.999114
0.999171
0.999224
0.999274
0.99932
0.999364
0.999406
0.999446
0.999484
0.999521
0.999556
0.99959
0.999622
0.999654
0.999684
0.999713
0.999741
0.999769
0.999795
0.99982
0.999845
0.999869
0.999892
0.999914
0.999936
0.999957
0.999977
0.999997
1.00002
1.00003
1.00005
1.00007
1.00009
1.0001
1.00012
1.00013
1.00014
1.00015
1.00013
1.00012
1.00172
)
;
    }
    front
    {
        type            wedge;
    }
    back
    {
        type            wedge;
    }
}


// ************************************************************************* //
