/*--------------------------------*- C++ -*----------------------------------*\
| =========                 |                                                 |
| \\      /  F ield         | foam-extend: Open Source CFD                    |
|  \\    /   O peration     | Version:     4.1-20200408                       |
|   \\  /    A nd           | Web:         http://www.foam-extend.org         |
|    \\/     M anipulation  |                                                 |
\*---------------------------------------------------------------------------*/
FoamFile
{
    version     2.0;
    format      ascii;
    class       volScalarField;
    location    "0.0225000";
    object      sigmaCauchyEq;
}
// * * * * * * * * * * * * * * * * * * * * * * * * * * * * * * * * * * * * * //

dimensions      [1 -1 -2 0 0 0 0];

internalField   nonuniform List<scalar> 
1952
(
3.04472e+08
3.02906e+08
2.99699e+08
2.96361e+08
2.92209e+08
2.88027e+08
2.8388e+08
2.81234e+08
2.82605e+08
2.9273e+08
3.13666e+08
3.62466e+08
4.38771e+08
5.96464e+08
8.36213e+08
3.05189e+08
3.16285e+08
3.14751e+08
3.11559e+08
3.0828e+08
3.04225e+08
3.00031e+08
2.95779e+08
2.93188e+08
2.94776e+08
3.04899e+08
3.25909e+08
3.7409e+08
4.49227e+08
6.02891e+08
8.3126e+08
3.17024e+08
3.25799e+08
3.24242e+08
3.21068e+08
3.17772e+08
3.13737e+08
3.09064e+08
3.04763e+08
3.02015e+08
3.03501e+08
3.13187e+08
3.33681e+08
3.80601e+08
4.53981e+08
6.04854e+08
8.3286e+08
3.26538e+08
3.32692e+08
3.31071e+08
3.27878e+08
3.24479e+08
3.20292e+08
3.15057e+08
3.10567e+08
3.07477e+08
3.0867e+08
3.17705e+08
3.3749e+08
3.83216e+08
4.55271e+08
6.04942e+08
8.33411e+08
3.33426e+08
3.37173e+08
3.35474e+08
3.32204e+08
3.2864e+08
3.2415e+08
3.18349e+08
3.13573e+08
3.10125e+08
3.10915e+08
3.19383e+08
3.38565e+08
3.83559e+08
4.55095e+08
6.05038e+08
8.35527e+08
3.37921e+08
3.39288e+08
3.37523e+08
3.34128e+08
3.30404e+08
3.25347e+08
3.19263e+08
3.14198e+08
3.10426e+08
3.10829e+08
3.18887e+08
3.37681e+08
3.82394e+08
4.54007e+08
6.04857e+08
8.37409e+08
3.4007e+08
3.39452e+08
3.37644e+08
3.34123e+08
3.3017e+08
3.247e+08
3.18391e+08
3.13075e+08
3.0905e+08
3.09168e+08
3.1699e+08
3.35638e+08
3.80456e+08
4.52574e+08
6.04715e+08
8.39404e+08
3.40264e+08
3.38061e+08
3.36167e+08
3.32504e+08
3.28261e+08
3.22473e+08
3.15974e+08
3.1048e+08
3.06272e+08
3.0624e+08
3.13995e+08
3.32725e+08
3.77926e+08
4.50823e+08
6.04399e+08
8.41072e+08
3.38891e+08
3.35156e+08
3.33203e+08
3.29456e+08
3.24673e+08
3.18758e+08
3.12124e+08
3.06554e+08
3.02243e+08
3.02229e+08
3.10074e+08
3.29112e+08
3.7492e+08
4.48772e+08
6.03831e+08
8.4232e+08
3.35978e+08
3.31018e+08
3.28993e+08
3.2492e+08
3.19972e+08
3.13966e+08
3.07299e+08
3.01696e+08
2.9741e+08
2.97523e+08
3.05598e+08
3.25094e+08
3.71649e+08
4.46527e+08
6.03035e+08
8.43184e+08
3.31875e+08
3.25924e+08
3.23853e+08
3.19542e+08
3.1455e+08
3.08519e+08
3.01886e+08
2.963e+08
2.92138e+08
2.92452e+08
3.00854e+08
3.20902e+08
3.68243e+08
4.44181e+08
6.02068e+08
8.43731e+08
3.26792e+08
3.20144e+08
3.17749e+08
3.13421e+08
3.08447e+08
3.02449e+08
2.95886e+08
2.90397e+08
2.86427e+08
2.87028e+08
2.95829e+08
3.16506e+08
3.64666e+08
4.41671e+08
6.00854e+08
8.4389e+08
3.2106e+08
3.13512e+08
3.11131e+08
3.06818e+08
3.01885e+08
2.95956e+08
2.89519e+08
2.84174e+08
2.8046e+08
2.81402e+08
2.90654e+08
3.11992e+08
3.60986e+08
4.39024e+08
5.99428e+08
8.43715e+08
3.14494e+08
3.06504e+08
3.04159e+08
2.99891e+08
2.95042e+08
2.89206e+08
2.8295e+08
2.77779e+08
2.74363e+08
2.75686e+08
2.8541e+08
3.07429e+08
3.57241e+08
4.36273e+08
5.97818e+08
8.43256e+08
3.07475e+08
2.992e+08
2.9691e+08
2.92707e+08
2.87956e+08
2.82258e+08
2.76194e+08
2.71246e+08
2.68148e+08
2.69882e+08
2.80098e+08
3.02795e+08
3.53415e+08
4.33393e+08
5.96015e+08
8.42508e+08
3.00158e+08
2.91718e+08
2.89488e+08
2.85365e+08
2.80735e+08
2.75197e+08
2.69349e+08
2.64656e+08
2.61893e+08
2.6405e+08
2.74766e+08
2.98133e+08
3.49538e+08
4.30419e+08
5.94055e+08
8.41527e+08
2.92661e+08
2.84262e+08
2.82109e+08
2.78084e+08
2.73594e+08
2.68242e+08
2.6263e+08
2.58217e+08
2.55793e+08
2.58382e+08
2.69587e+08
2.93601e+08
3.45747e+08
4.2746e+08
5.9204e+08
8.40431e+08
2.85187e+08
2.76796e+08
2.74727e+08
2.70809e+08
2.66474e+08
2.61324e+08
2.55963e+08
2.51844e+08
2.49772e+08
2.52793e+08
2.64483e+08
2.89123e+08
3.41977e+08
4.24468e+08
5.89943e+08
8.39207e+08
2.777e+08
2.69111e+08
2.67135e+08
2.63334e+08
2.59167e+08
2.54235e+08
2.4914e+08
2.45338e+08
2.43629e+08
2.47094e+08
2.59277e+08
2.84536e+08
3.38085e+08
4.21331e+08
5.87657e+08
8.37716e+08
2.69992e+08
2.61386e+08
2.59508e+08
2.55832e+08
2.51842e+08
2.47139e+08
2.42318e+08
2.38845e+08
2.37507e+08
2.41415e+08
2.54089e+08
2.79945e+08
3.34173e+08
4.18144e+08
5.85287e+08
8.36102e+08
2.62243e+08
2.53758e+08
2.51986e+08
2.4844e+08
2.44638e+08
2.40176e+08
2.35639e+08
2.32516e+08
2.3155e+08
2.35909e+08
2.49067e+08
2.75501e+08
3.30376e+08
4.15033e+08
5.82945e+08
8.34455e+08
2.54588e+08
2.46028e+08
2.4437e+08
2.40964e+08
2.37363e+08
2.33158e+08
2.28921e+08
2.26175e+08
2.25599e+08
2.30435e+08
2.44094e+08
2.71094e+08
3.26606e+08
4.11931e+08
5.80586e+08
8.3275e+08
2.46829e+08
2.38089e+08
2.36552e+08
2.33294e+08
2.29911e+08
2.25977e+08
2.2206e+08
2.19712e+08
2.19547e+08
2.24891e+08
2.39051e+08
2.66645e+08
3.22784e+08
4.0881e+08
5.78181e+08
8.30899e+08
2.38857e+08
2.30027e+08
2.28621e+08
2.25523e+08
2.22375e+08
2.18731e+08
2.15155e+08
2.1323e+08
2.13493e+08
2.19369e+08
2.34034e+08
2.62236e+08
3.18991e+08
4.05722e+08
5.75792e+08
8.29024e+08
2.3076e+08
2.21975e+08
2.20714e+08
2.17789e+08
2.14899e+08
2.11567e+08
2.08357e+08
2.06879e+08
2.07595e+08
2.14003e+08
2.29202e+08
2.57966e+08
3.15367e+08
4.02748e+08
5.73612e+08
8.26818e+08
2.22669e+08
2.13762e+08
2.12662e+08
2.09929e+08
2.07326e+08
2.04336e+08
2.01524e+08
2.00528e+08
2.01726e+08
2.08698e+08
2.24447e+08
2.53775e+08
3.11823e+08
3.99873e+08
5.71516e+08
8.24604e+08
2.14412e+08
2.05229e+08
2.04306e+08
2.01786e+08
1.99503e+08
1.96885e+08
1.94511e+08
1.94044e+08
1.95755e+08
2.0333e+08
2.19653e+08
2.49578e+08
3.08279e+08
3.97038e+08
5.69455e+08
8.22478e+08
2.05828e+08
1.96391e+08
1.95664e+08
1.93383e+08
1.91453e+08
1.89246e+08
1.87357e+08
1.87468e+08
1.89726e+08
1.97955e+08
2.14871e+08
2.45431e+08
3.04797e+08
3.94279e+08
5.67501e+08
8.20528e+08
1.96932e+08
1.87282e+08
1.8677e+08
1.84761e+08
1.83224e+08
1.81476e+08
1.8013e+08
1.80863e+08
1.83741e+08
1.92669e+08
2.10215e+08
2.41445e+08
3.0149e+08
3.91708e+08
5.65772e+08
8.18774e+08
1.87755e+08
1.77843e+08
1.77569e+08
1.75866e+08
1.74765e+08
1.73527e+08
1.72784e+08
1.74197e+08
1.77756e+08
1.87426e+08
2.05644e+08
2.37571e+08
2.98322e+08
3.89305e+08
5.64258e+08
8.17187e+08
1.78239e+08
1.68e+08
1.67989e+08
1.6663e+08
1.66011e+08
1.65342e+08
1.65261e+08
1.67423e+08
1.71715e+08
1.82185e+08
2.011e+08
2.33782e+08
2.95239e+08
3.87054e+08
5.62897e+08
8.15893e+08
1.68307e+08
1.57857e+08
1.58134e+08
1.57158e+08
1.5707e+08
1.57028e+08
1.57673e+08
1.60646e+08
1.65726e+08
1.77041e+08
1.96685e+08
2.30158e+08
2.92351e+08
3.85051e+08
5.61838e+08
8.14939e+08
1.58063e+08
1.47432e+08
1.48022e+08
1.4747e+08
1.47962e+08
1.48606e+08
1.50039e+08
1.53885e+08
1.59802e+08
1.72004e+08
1.92403e+08
2.26701e+08
2.89668e+08
3.83311e+08
5.61124e+08
8.144e+08
1.47525e+08
1.36778e+08
1.37704e+08
1.37611e+08
1.38728e+08
1.40111e+08
1.4239e+08
1.47162e+08
1.53959e+08
1.67078e+08
1.88258e+08
2.23411e+08
2.87201e+08
3.81877e+08
5.60791e+08
8.14371e+08
1.36745e+08
1.26053e+08
1.27333e+08
1.27723e+08
1.29502e+08
1.31661e+08
1.34828e+08
1.40563e+08
1.48268e+08
1.62319e+08
1.84301e+08
2.20331e+08
2.84999e+08
3.80797e+08
5.60906e+08
8.14966e+08
1.25886e+08
1.15449e+08
1.17088e+08
1.17971e+08
1.20434e+08
1.23389e+08
1.27466e+08
1.34186e+08
1.42807e+08
1.57792e+08
1.80587e+08
2.17514e+08
2.8313e+08
3.80141e+08
5.61591e+08
8.16258e+08
1.15143e+08
1.05177e+08
1.07164e+08
1.08513e+08
1.11644e+08
1.15376e+08
1.20338e+08
1.28028e+08
1.37541e+08
1.53439e+08
1.77048e+08
2.14894e+08
2.81544e+08
3.79893e+08
5.62854e+08
8.18299e+08
1.0474e+08
9.55348e+07
9.78163e+07
9.95521e+07
1.03271e+08
1.07699e+08
1.13465e+08
1.22066e+08
1.3241e+08
1.49185e+08
1.73605e+08
2.12404e+08
2.80198e+08
3.80041e+08
5.64718e+08
8.21234e+08
9.49923e+07
8.69965e+07
8.94477e+07
9.14104e+07
9.55384e+07
1.00492e+08
1.06899e+08
1.16286e+08
1.27366e+08
1.44962e+08
1.70198e+08
2.09999e+08
2.79076e+08
3.8061e+08
5.67254e+08
8.25173e+08
8.64025e+07
8.0092e+07
8.24904e+07
8.44082e+07
8.86318e+07
9.38211e+07
1.00603e+08
1.10578e+08
1.2226e+08
1.40612e+08
1.66685e+08
2.07557e+08
2.78121e+08
3.81577e+08
5.70524e+08
8.30249e+08
7.95404e+07
7.55185e+07
7.75095e+07
7.89803e+07
8.27937e+07
8.7759e+07
9.45108e+07
1.04771e+08
1.1688e+08
1.35907e+08
1.6288e+08
2.04938e+08
2.77247e+08
3.82896e+08
5.74523e+08
8.36562e+08
7.51474e+07
7.41521e+07
7.52673e+07
7.57627e+07
7.84282e+07
8.24933e+07
8.8596e+07
9.86854e+07
1.10959e+08
1.30558e+08
1.5851e+08
2.01905e+08
2.76281e+08
3.84446e+08
5.79265e+08
8.44212e+08
7.41251e+07
7.7115e+07
7.68672e+07
7.58132e+07
7.63962e+07
7.86098e+07
8.31205e+07
9.23023e+07
1.04309e+08
1.24288e+08
1.53304e+08
1.98197e+08
2.75059e+08
3.86075e+08
5.84626e+08
8.53287e+08
7.75641e+07
8.58088e+07
8.38679e+07
8.08506e+07
7.84544e+07
7.76666e+07
7.92377e+07
8.62549e+07
9.71974e+07
1.17083e+08
1.47113e+08
1.9364e+08
2.73334e+08
3.87568e+08
5.90538e+08
8.63847e+08
8.67667e+07
1.01774e+08
9.81154e+07
9.30975e+07
8.7319e+07
8.2649e+07
7.98024e+07
8.27042e+07
9.10324e+07
1.09643e+08
1.40232e+08
1.88258e+08
2.70949e+08
3.88752e+08
5.96491e+08
8.75863e+08
1.03157e+08
1.2659e+08
1.2146e+08
1.14769e+08
1.05953e+08
9.74381e+07
8.955e+07
8.64021e+07
8.97487e+07
1.04471e+08
1.34171e+08
1.82654e+08
2.68054e+08
3.89404e+08
6.02502e+08
8.89135e+08
1.28247e+08
1.61779e+08
1.55535e+08
1.4763e+08
1.36556e+08
1.25065e+08
1.12948e+08
1.03603e+08
1.00246e+08
1.07324e+08
1.32801e+08
1.78867e+08
2.65461e+08
3.89536e+08
6.0835e+08
9.03336e+08
1.63556e+08
2.08683e+08
2.01677e+08
1.92971e+08
1.80417e+08
1.66964e+08
1.51991e+08
1.38079e+08
1.28692e+08
1.26315e+08
1.43216e+08
1.81508e+08
2.65334e+08
3.89536e+08
6.13301e+08
9.17811e+08
2.10464e+08
2.68349e+08
2.60893e+08
2.51722e+08
2.38309e+08
2.23716e+08
2.07022e+08
1.90357e+08
1.76895e+08
1.66862e+08
1.73676e+08
1.98792e+08
2.73143e+08
3.91754e+08
6.16803e+08
9.31051e+08
2.70055e+08
3.41235e+08
3.33607e+08
3.24259e+08
3.10499e+08
2.95412e+08
2.77845e+08
2.59828e+08
2.44062e+08
2.29457e+08
2.2864e+08
2.40203e+08
2.99633e+08
4.05051e+08
6.24249e+08
9.43658e+08
3.42818e+08
4.2706e+08
4.19525e+08
4.10271e+08
3.96616e+08
3.81584e+08
3.63821e+08
3.45493e+08
3.28687e+08
3.12029e+08
3.06905e+08
3.09138e+08
3.54378e+08
4.42571e+08
6.48914e+08
9.64152e+08
4.28491e+08
5.24693e+08
5.17503e+08
5.08607e+08
4.95474e+08
4.80977e+08
4.63578e+08
4.45688e+08
4.28613e+08
4.11391e+08
4.03894e+08
4.00568e+08
4.35014e+08
5.06154e+08
6.94737e+08
9.96202e+08
5.25957e+08
6.31895e+08
6.25289e+08
6.17011e+08
6.04794e+08
5.91266e+08
5.74729e+08
5.57838e+08
5.40978e+08
5.23987e+08
5.14795e+08
5.07738e+08
5.33223e+08
5.87718e+08
7.53733e+08
1.03217e+09
6.32985e+08
7.45206e+08
7.39402e+08
7.32003e+08
7.21075e+08
7.08931e+08
6.93749e+08
6.78348e+08
6.62146e+08
6.45957e+08
6.35358e+08
6.25614e+08
6.43003e+08
6.81664e+08
8.22019e+08
1.07031e+09
7.46119e+08
8.60008e+08
8.55198e+08
8.48927e+08
8.39646e+08
8.29281e+08
8.15963e+08
8.02546e+08
7.87544e+08
7.72739e+08
7.61104e+08
7.49592e+08
7.59408e+08
7.83388e+08
8.96437e+08
1.10886e+09
8.60738e+08
9.70808e+08
9.67133e+08
9.62206e+08
9.54872e+08
9.46642e+08
9.35698e+08
9.24764e+08
9.11664e+08
8.98957e+08
8.8705e+08
8.75032e+08
8.78188e+08
8.89384e+08
9.74443e+08
1.14585e+09
9.71348e+08
1.07145e+09
1.06897e+09
1.06553e+09
1.06033e+09
1.05448e+09
1.04634e+09
1.03832e+09
1.0279e+09
1.01807e+09
1.00708e+09
9.96245e+08
9.94425e+08
9.96079e+08
1.0542e+09
1.1812e+09
1.0718e+09
1.15554e+09
1.1542e+09
1.15223e+09
1.14916e+09
1.14573e+09
1.14059e+09
1.13568e+09
1.12859e+09
1.12225e+09
1.11355e+09
1.10558e+09
1.10088e+09
1.09687e+09
1.13031e+09
1.21204e+09
1.1557e+09
1.21643e+09
1.21601e+09
1.21528e+09
1.21404e+09
1.21268e+09
1.21029e+09
1.20821e+09
1.20458e+09
1.20179e+09
1.19665e+09
1.19298e+09
1.18863e+09
1.18502e+09
1.1993e+09
1.23653e+09
1.21645e+09
1.25129e+09
1.25147e+09
1.25159e+09
1.25161e+09
1.25168e+09
1.25134e+09
1.25131e+09
1.25062e+09
1.25073e+09
1.24981e+09
1.25096e+09
1.25088e+09
1.25293e+09
1.25252e+09
1.25197e+09
1.25122e+09
1.25333e+09
1.25334e+09
1.25336e+09
1.25338e+09
1.2534e+09
1.25342e+09
1.25344e+09
1.25345e+09
1.25344e+09
1.2534e+09
1.25332e+09
1.25316e+09
1.25291e+09
1.25246e+09
1.25187e+09
1.25333e+09
1.25326e+09
1.25327e+09
1.25328e+09
1.25329e+09
1.25331e+09
1.25332e+09
1.25333e+09
1.25333e+09
1.25331e+09
1.25325e+09
1.25315e+09
1.25296e+09
1.25267e+09
1.2522e+09
1.25163e+09
1.25326e+09
1.25309e+09
1.2531e+09
1.2531e+09
1.2531e+09
1.25311e+09
1.2531e+09
1.2531e+09
1.25307e+09
1.25303e+09
1.25294e+09
1.2528e+09
1.25259e+09
1.25227e+09
1.25183e+09
1.25135e+09
1.25309e+09
1.25284e+09
1.25283e+09
1.25283e+09
1.25282e+09
1.25281e+09
1.25278e+09
1.25275e+09
1.25269e+09
1.25261e+09
1.25249e+09
1.25232e+09
1.25209e+09
1.25178e+09
1.25143e+09
1.25108e+09
1.25284e+09
1.2525e+09
1.25249e+09
1.25248e+09
1.25245e+09
1.25242e+09
1.25237e+09
1.25231e+09
1.25222e+09
1.2521e+09
1.25194e+09
1.25175e+09
1.25152e+09
1.25126e+09
1.25102e+09
1.25083e+09
1.2525e+09
1.2521e+09
1.25208e+09
1.25206e+09
1.25202e+09
1.25197e+09
1.2519e+09
1.2518e+09
1.25169e+09
1.25154e+09
1.25135e+09
1.25114e+09
1.25093e+09
1.25073e+09
1.2506e+09
1.25057e+09
1.2521e+09
1.25164e+09
1.25162e+09
1.25159e+09
1.25154e+09
1.25148e+09
1.25139e+09
1.25127e+09
1.25113e+09
1.25096e+09
1.25077e+09
1.25057e+09
1.25039e+09
1.25026e+09
1.25023e+09
1.25031e+09
1.25165e+09
1.25116e+09
1.25113e+09
1.25109e+09
1.25103e+09
1.25095e+09
1.25085e+09
1.25073e+09
1.25058e+09
1.25041e+09
1.25027e+09
1.25014e+09
1.25003e+09
1.2349e+09
1.24328e+09
1.25009e+09
1.25117e+09
1.25066e+09
1.25062e+09
1.25057e+09
1.2505e+09
1.25041e+09
1.25033e+09
1.25024e+09
1.25013e+09
1.25003e+09
1.21197e+09
1.17069e+09
1.14162e+09
1.13464e+09
1.15712e+09
1.22012e+09
1.25067e+09
1.2502e+09
1.25018e+09
1.25014e+09
1.25008e+09
1.25002e+09
1.22433e+09
1.18849e+09
1.14858e+09
1.11277e+09
1.08024e+09
1.05788e+09
1.04846e+09
1.05777e+09
1.09226e+09
1.15676e+09
1.25021e+09
1.16773e+09
1.15653e+09
1.14106e+09
1.11987e+09
1.09693e+09
1.07081e+09
1.04463e+09
1.01822e+09
9.96643e+08
9.75151e+08
9.63202e+08
9.65241e+08
9.8592e+08
1.02845e+09
1.09585e+09
1.17097e+09
1.01911e+09
1.01091e+09
1.00033e+09
9.86404e+08
9.71117e+08
9.50227e+08
9.28709e+08
9.08242e+08
8.94048e+08
8.84343e+08
8.84551e+08
8.96628e+08
9.24171e+08
9.69233e+08
1.03347e+09
1.02151e+09
8.97087e+08
8.90075e+08
8.80984e+08
8.69127e+08
8.56746e+08
8.4232e+08
8.29037e+08
8.17399e+08
8.11302e+08
8.09761e+08
8.17439e+08
8.35647e+08
8.66991e+08
9.12336e+08
9.72812e+08
8.99183e+08
7.90182e+08
7.85414e+08
7.79298e+08
7.7146e+08
7.63331e+08
7.54012e+08
7.46295e+08
7.40846e+08
7.40787e+08
7.45945e+08
7.59395e+08
7.81713e+08
8.1463e+08
8.58458e+08
9.14124e+08
7.91634e+08
7.00889e+08
6.97667e+08
6.93502e+08
6.88483e+08
6.83667e+08
6.79034e+08
6.76492e+08
6.76598e+08
6.81551e+08
6.91493e+08
7.0852e+08
7.32966e+08
7.65909e+08
8.07338e+08
8.58131e+08
7.01945e+08
6.25243e+08
6.23587e+08
6.214e+08
6.19164e+08
6.17432e+08
6.16622e+08
6.18005e+08
6.22261e+08
6.30838e+08
6.44108e+08
6.63287e+08
6.8858e+08
7.20555e+08
7.59077e+08
8.05034e+08
6.25867e+08
5.62003e+08
5.61606e+08
5.60992e+08
5.61004e+08
5.61775e+08
5.64062e+08
5.68534e+08
5.75952e+08
5.87101e+08
6.02477e+08
6.22655e+08
6.47834e+08
6.7822e+08
7.13644e+08
7.55028e+08
5.62283e+08
5.09044e+08
5.09724e+08
5.10445e+08
5.12331e+08
5.15122e+08
5.19789e+08
5.26504e+08
5.36127e+08
5.48906e+08
5.65439e+08
5.85807e+08
6.10238e+08
6.3868e+08
6.7098e+08
7.08096e+08
5.09016e+08
4.64814e+08
4.66341e+08
4.68105e+08
4.71441e+08
4.75758e+08
4.82173e+08
4.90447e+08
5.01516e+08
5.15201e+08
5.3217e+08
5.52153e+08
5.75421e+08
6.0175e+08
6.31018e+08
6.64229e+08
4.64536e+08
4.27804e+08
4.29982e+08
4.3254e+08
4.36956e+08
4.42367e+08
4.4998e+08
4.59237e+08
4.71127e+08
4.85149e+08
5.02027e+08
5.21237e+08
5.43094e+08
5.67263e+08
5.93658e+08
6.23324e+08
4.27327e+08
3.96753e+08
3.99396e+08
4.02518e+08
4.07675e+08
4.13805e+08
4.2216e+08
4.3194e+08
4.44167e+08
4.58108e+08
4.74519e+08
4.92711e+08
5.13027e+08
5.35072e+08
5.58788e+08
5.85261e+08
3.96127e+08
3.70564e+08
3.73513e+08
3.77e+08
3.82615e+08
3.89153e+08
3.97879e+08
4.07824e+08
4.2002e+08
4.33577e+08
4.49266e+08
4.66295e+08
4.85025e+08
5.05034e+08
5.26289e+08
5.49912e+08
3.69835e+08
3.48316e+08
3.51433e+08
3.55121e+08
3.60959e+08
3.67655e+08
3.76461e+08
3.86301e+08
3.98196e+08
4.1116e+08
4.25964e+08
4.4176e+08
4.58913e+08
4.77003e+08
4.96009e+08
5.17092e+08
3.47523e+08
3.29237e+08
3.32412e+08
3.36167e+08
3.4204e+08
3.48702e+08
3.57368e+08
3.66905e+08
3.78309e+08
3.90546e+08
4.04369e+08
4.18916e+08
4.34542e+08
4.50849e+08
4.67824e+08
4.86662e+08
3.28414e+08
3.12688e+08
3.15836e+08
3.19553e+08
3.2532e+08
3.31803e+08
3.40169e+08
3.49266e+08
3.60051e+08
3.71482e+08
3.8428e+08
3.97596e+08
4.11768e+08
4.26432e+08
4.41576e+08
4.58431e+08
3.11862e+08
2.98148e+08
3.01203e+08
3.04807e+08
3.10362e+08
3.16565e+08
3.24518e+08
3.33086e+08
3.43175e+08
3.53762e+08
3.65528e+08
3.7766e+08
3.90464e+08
4.03627e+08
4.17133e+08
4.32247e+08
2.9734e+08
2.85193e+08
2.88109e+08
2.91545e+08
2.96817e+08
3.0267e+08
3.1014e+08
3.18126e+08
3.27481e+08
3.37217e+08
3.47971e+08
3.58979e+08
3.70513e+08
3.82313e+08
3.94358e+08
4.07944e+08
2.84417e+08
2.73482e+08
2.76229e+08
2.79461e+08
2.84403e+08
2.89866e+08
2.96812e+08
3.04195e+08
3.12803e+08
3.21707e+08
3.31488e+08
3.41444e+08
3.51806e+08
3.62375e+08
3.7312e+08
3.85368e+08
2.72748e+08
2.62742e+08
2.65302e+08
2.6831e+08
2.72898e+08
2.77952e+08
2.84358e+08
2.91136e+08
2.99008e+08
3.07112e+08
3.15971e+08
3.24953e+08
3.34243e+08
3.43708e+08
3.53302e+08
3.64385e+08
2.62057e+08
2.52761e+08
2.55125e+08
2.57901e+08
2.62125e+08
2.66766e+08
2.72635e+08
2.78822e+08
2.85985e+08
2.93332e+08
3.01328e+08
3.09414e+08
3.1773e+08
3.26205e+08
3.34779e+08
3.4484e+08
2.52127e+08
2.43369e+08
2.45538e+08
2.48081e+08
2.51945e+08
2.56182e+08
2.61528e+08
2.67151e+08
2.7364e+08
2.80281e+08
2.87478e+08
2.94747e+08
3.02182e+08
3.09775e+08
3.17452e+08
3.26625e+08
2.42789e+08
2.34438e+08
2.36416e+08
2.38733e+08
2.42248e+08
2.46099e+08
2.50946e+08
2.56038e+08
2.61896e+08
2.67885e+08
2.74347e+08
2.80877e+08
2.87517e+08
2.94327e+08
3.0121e+08
3.09608e+08
2.33909e+08
2.25869e+08
2.27665e+08
2.29766e+08
2.32951e+08
2.36438e+08
2.40817e+08
2.45415e+08
2.50689e+08
2.56082e+08
2.61874e+08
2.67737e+08
2.73664e+08
2.7978e+08
2.85965e+08
2.9369e+08
2.2539e+08
2.17588e+08
2.19212e+08
2.21112e+08
2.23988e+08
2.27137e+08
2.31082e+08
2.35227e+08
2.39965e+08
2.44816e+08
2.50001e+08
2.55266e+08
2.60558e+08
2.66059e+08
2.71632e+08
2.78772e+08
2.17155e+08
2.09539e+08
2.11005e+08
2.12718e+08
2.15309e+08
2.18148e+08
2.21696e+08
2.25429e+08
2.29678e+08
2.34042e+08
2.3868e+08
2.43414e+08
2.48139e+08
2.53099e+08
2.58133e+08
2.64762e+08
2.09148e+08
2.01682e+08
2.03003e+08
2.04547e+08
2.06877e+08
2.09435e+08
2.1262e+08
2.15983e+08
2.19792e+08
2.23719e+08
2.27869e+08
2.3213e+08
2.36354e+08
2.4084e+08
2.45402e+08
2.5159e+08
2.0133e+08
1.93988e+08
1.95178e+08
1.96569e+08
1.98663e+08
2.00969e+08
2.03828e+08
2.06858e+08
2.10273e+08
2.13813e+08
2.17527e+08
2.21372e+08
2.25153e+08
2.29223e+08
2.33371e+08
2.39172e+08
1.93672e+08
1.86439e+08
1.8751e+08
1.88765e+08
1.90647e+08
1.92728e+08
1.95294e+08
1.98031e+08
2.01094e+08
2.04292e+08
2.07621e+08
2.11102e+08
2.14493e+08
2.18202e+08
2.21989e+08
2.27456e+08
1.86155e+08
1.79021e+08
1.79986e+08
1.8112e+08
1.82813e+08
1.84695e+08
1.87002e+08
1.8948e+08
1.92231e+08
1.95131e+08
1.9812e+08
2.01283e+08
2.04333e+08
2.07727e+08
2.11199e+08
2.16375e+08
1.78765e+08
1.71727e+08
1.72598e+08
1.73626e+08
1.7515e+08
1.76859e+08
1.78936e+08
1.81188e+08
1.83665e+08
1.86305e+08
1.88997e+08
1.91886e+08
1.94637e+08
1.97761e+08
2.00958e+08
2.05883e+08
1.71495e+08
1.64553e+08
1.65341e+08
1.66276e+08
1.67652e+08
1.6921e+08
1.71085e+08
1.73142e+08
1.75378e+08
1.77795e+08
1.80228e+08
1.8288e+08
1.85374e+08
1.88265e+08
1.91225e+08
1.95935e+08
1.64342e+08
1.57498e+08
1.58213e+08
1.59068e+08
1.60314e+08
1.61742e+08
1.63439e+08
1.65328e+08
1.67356e+08
1.69581e+08
1.7179e+08
1.74243e+08
1.76514e+08
1.79209e+08
1.81963e+08
1.86488e+08
1.57306e+08
1.50566e+08
1.51217e+08
1.52002e+08
1.53134e+08
1.5445e+08
1.55992e+08
1.57739e+08
1.59585e+08
1.61649e+08
1.63666e+08
1.65951e+08
1.68033e+08
1.70563e+08
1.73144e+08
1.77514e+08
1.50389e+08
1.43761e+08
1.44355e+08
1.45081e+08
1.46112e+08
1.47332e+08
1.48739e+08
1.50365e+08
1.52054e+08
1.53984e+08
1.55836e+08
1.57983e+08
1.59906e+08
1.62301e+08
1.64735e+08
1.68974e+08
1.43598e+08
1.3709e+08
1.37634e+08
1.38309e+08
1.3925e+08
1.40389e+08
1.41678e+08
1.43201e+08
1.44755e+08
1.46573e+08
1.48287e+08
1.50321e+08
1.52113e+08
1.54401e+08
1.56715e+08
1.60851e+08
1.36939e+08
1.30565e+08
1.31063e+08
1.31693e+08
1.32555e+08
1.33623e+08
1.34807e+08
1.36244e+08
1.3768e+08
1.39407e+08
1.41002e+08
1.42949e+08
1.44633e+08
1.4684e+08
1.49058e+08
1.53114e+08
1.30424e+08
1.24199e+08
1.24656e+08
1.25246e+08
1.26035e+08
1.2704e+08
1.28129e+08
1.29492e+08
1.30824e+08
1.32475e+08
1.33972e+08
1.3585e+08
1.3745e+08
1.39598e+08
1.41745e+08
1.45746e+08
1.24067e+08
1.18011e+08
1.18428e+08
1.18981e+08
1.19702e+08
1.20649e+08
1.21651e+08
1.22947e+08
1.24185e+08
1.25773e+08
1.27185e+08
1.29013e+08
1.30547e+08
1.32659e+08
1.3476e+08
1.38731e+08
1.17888e+08
1.12023e+08
1.12402e+08
1.12917e+08
1.13572e+08
1.14462e+08
1.1538e+08
1.16613e+08
1.17763e+08
1.19296e+08
1.20632e+08
1.22423e+08
1.2391e+08
1.26006e+08
1.28084e+08
1.32049e+08
1.11908e+08
1.06262e+08
1.06603e+08
1.07079e+08
1.07668e+08
1.08499e+08
1.09332e+08
1.10501e+08
1.11563e+08
1.13043e+08
1.14309e+08
1.16072e+08
1.17525e+08
1.19624e+08
1.21704e+08
1.25693e+08
1.06156e+08
1.00763e+08
1.01064e+08
1.01497e+08
1.02017e+08
1.02782e+08
1.03527e+08
1.04624e+08
1.05595e+08
1.07016e+08
1.08212e+08
1.0995e+08
1.11379e+08
1.13494e+08
1.15603e+08
1.19642e+08
1.00667e+08
9.55654e+07
9.58235e+07
9.62083e+07
9.6654e+07
9.73441e+07
9.79928e+07
9.90039e+07
9.98741e+07
1.01225e+08
1.02343e+08
1.0405e+08
1.05459e+08
1.07603e+08
1.09767e+08
1.13889e+08
9.54805e+07
9.07153e+07
9.0928e+07
9.12565e+07
9.16221e+07
9.22229e+07
9.2765e+07
9.36712e+07
9.44254e+07
9.56836e+07
9.67079e+07
9.83701e+07
9.97554e+07
1.01931e+08
1.04175e+08
1.08413e+08
9.06434e+07
8.62639e+07
8.64284e+07
8.66924e+07
8.69714e+07
8.74668e+07
8.78901e+07
8.86662e+07
8.9285e+07
9.04183e+07
9.13242e+07
9.29123e+07
9.4258e+07
9.64581e+07
9.88065e+07
1.03197e+08
8.6207e+07
8.22665e+07
8.2381e+07
8.25724e+07
8.276e+07
8.31331e+07
8.34261e+07
8.40428e+07
8.45039e+07
8.54696e+07
8.62233e+07
8.76913e+07
8.89654e+07
9.11665e+07
9.36353e+07
9.82133e+07
8.22265e+07
7.87801e+07
7.88447e+07
7.89573e+07
7.90519e+07
7.92879e+07
7.94429e+07
7.98702e+07
8.01524e+07
8.08994e+07
8.14595e+07
8.2741e+07
8.38916e+07
8.60462e+07
8.8635e+07
9.34208e+07
7.87583e+07
7.58601e+07
7.58777e+07
7.59091e+07
7.59146e+07
7.60045e+07
7.60213e+07
7.62342e+07
7.63228e+07
7.67963e+07
7.71176e+07
7.81231e+07
7.90713e+07
8.1097e+07
8.37765e+07
8.87702e+07
7.58569e+07
7.35539e+07
7.35307e+07
7.34839e+07
7.34113e+07
7.3356e+07
7.32463e+07
7.32331e+07
7.3128e+07
7.32809e+07
7.33227e+07
7.39371e+07
7.45636e+07
7.63014e+07
7.89612e+07
8.41631e+07
7.35685e+07
7.18882e+07
7.18335e+07
7.17172e+07
7.1585e+07
7.13975e+07
7.11884e+07
7.09596e+07
7.06884e+07
7.05045e+07
7.02617e+07
7.03764e+07
7.05493e+07
7.17221e+07
7.40699e+07
7.94095e+07
7.19184e+07
7.0873e+07
7.07997e+07
7.06278e+07
7.04632e+07
7.01687e+07
6.99061e+07
6.94996e+07
6.91331e+07
6.86594e+07
6.82228e+07
6.78471e+07
6.75907e+07
6.79768e+07
6.96185e+07
7.45795e+07
7.09154e+07
7.07126e+07
7.06317e+07
7.04191e+07
7.02454e+07
6.98718e+07
6.9596e+07
6.90586e+07
6.86648e+07
6.79792e+07
6.74647e+07
6.67169e+07
6.61857e+07
6.57851e+07
6.63337e+07
6.95541e+07
7.07639e+07
7.09533e+07
7.08713e+07
7.06428e+07
7.04699e+07
7.00647e+07
6.97908e+07
6.91997e+07
6.88042e+07
6.8029e+07
6.74924e+07
6.65796e+07
6.59345e+07
6.51351e+07
6.5065e+07
6.675e+07
7.1008e+07
)
;

boundaryField
{
    wireUpstream
    {
        type            calculated;
        value           nonuniform List<scalar> 
16
(
7.12728e+07
7.11954e+07
7.09527e+07
7.07933e+07
7.0358e+07
7.01064e+07
6.94615e+07
6.90924e+07
6.82231e+07
6.76977e+07
6.66077e+07
6.58849e+07
6.46986e+07
6.40533e+07
6.36933e+07
7.13301e+07
)
;
    }
    wireDownstream
    {
        type            calculated;
        value           nonuniform List<scalar> 
16
(
3.04174e+08
3.026e+08
2.99386e+08
2.96036e+08
2.91862e+08
2.87658e+08
2.8347e+08
2.80784e+08
2.82093e+08
2.9215e+08
3.12979e+08
3.61691e+08
4.38039e+08
5.97054e+08
8.46526e+08
3.0489e+08
)
;
    }
    wireTopContact
    {
        type            calculated;
        value           nonuniform List<scalar> 
122
(
8.29617e+08
8.30628e+08
8.30979e+08
8.33075e+08
8.34967e+08
8.36989e+08
8.3869e+08
8.39974e+08
8.40868e+08
8.41447e+08
8.41633e+08
8.41484e+08
8.41047e+08
8.4032e+08
8.39354e+08
8.38269e+08
8.37058e+08
8.35579e+08
8.33974e+08
8.3233e+08
8.30632e+08
8.28778e+08
8.26907e+08
8.25676e+08
8.246e+08
8.23506e+08
8.22443e+08
8.21665e+08
8.21194e+08
8.19942e+08
8.18895e+08
8.18256e+08
8.18117e+08
8.18593e+08
8.19759e+08
8.21669e+08
8.24466e+08
8.28263e+08
8.33192e+08
8.39362e+08
8.46871e+08
8.55825e+08
8.66289e+08
8.78258e+08
8.91561e+08
9.05902e+08
9.20767e+08
9.34798e+08
9.48158e+08
9.69298e+08
1.00186e+09
1.03732e+09
1.07449e+09
1.11171e+09
1.14694e+09
1.18053e+09
1.21035e+09
1.23355e+09
1.25195e+09
1.25187e+09
1.25162e+09
1.25133e+09
1.25106e+09
1.2508e+09
1.25055e+09
1.2503e+09
1.25009e+09
1.21846e+09
1.1564e+09
1.096e+09
1.03381e+09
9.73218e+08
9.14542e+08
8.58541e+08
8.05416e+08
7.55387e+08
7.08425e+08
6.64532e+08
6.23603e+08
5.85516e+08
5.50149e+08
5.17306e+08
4.8686e+08
4.58609e+08
4.32409e+08
4.0809e+08
3.85497e+08
3.64499e+08
3.44938e+08
3.2671e+08
3.09678e+08
2.93747e+08
2.78816e+08
2.64794e+08
2.51611e+08
2.39181e+08
2.27455e+08
2.16362e+08
2.0586e+08
1.95901e+08
1.86443e+08
1.77459e+08
1.68908e+08
1.60773e+08
1.53023e+08
1.45643e+08
1.38614e+08
1.31918e+08
1.25548e+08
1.19482e+08
1.13715e+08
1.08227e+08
1.03003e+08
9.80188e+07
9.32354e+07
8.86085e+07
8.40603e+07
7.94605e+07
7.4885e+07
7.01439e+07
6.7354e+07
8.38312e+08
)
;
    }
    front
    {
        type            wedge;
    }
    back
    {
        type            wedge;
    }
}


// ************************************************************************* //
