/*--------------------------------*- C++ -*----------------------------------*\
| =========                 |                                                 |
| \\      /  F ield         | foam-extend: Open Source CFD                    |
|  \\    /   O peration     | Version:     4.1-20200408                       |
|   \\  /    A nd           | Web:         http://www.foam-extend.org         |
|    \\/     M anipulation  |                                                 |
\*---------------------------------------------------------------------------*/
FoamFile
{
    version     2.0;
    format      ascii;
    class       volVectorField;
    location    "0.0225000";
    object      U_0;
}
// * * * * * * * * * * * * * * * * * * * * * * * * * * * * * * * * * * * * * //

dimensions      [0 1 0 0 0 0 0];

internalField   nonuniform List<vector> 
1952
(
(0.0223866 -2.15173e-07 0)
(0.0223866 -3.50941e-07 0)
(0.0223866 -4.88203e-07 0)
(0.0223866 -6.27951e-07 0)
(0.0223866 -7.66921e-07 0)
(0.0223866 -9.09519e-07 0)
(0.0223866 -1.04979e-06 0)
(0.0223866 -1.1956e-06 0)
(0.0223866 -1.33728e-06 0)
(0.0223866 -1.48608e-06 0)
(0.0223866 -1.62731e-06 0)
(0.0223866 -1.77683e-06 0)
(0.0223867 -1.91167e-06 0)
(0.0223868 -2.05403e-06 0)
(0.0223869 -2.1643e-06 0)
(0.0223866 -9.22084e-08 0)
(0.0223862 -2.20382e-07 0)
(0.0223862 -3.59398e-07 0)
(0.0223862 -4.9998e-07 0)
(0.0223862 -6.42992e-07 0)
(0.0223862 -7.85284e-07 0)
(0.0223862 -9.31019e-07 0)
(0.0223862 -1.07464e-06 0)
(0.0223862 -1.22361e-06 0)
(0.0223863 -1.36852e-06 0)
(0.0223863 -1.52023e-06 0)
(0.0223863 -1.66438e-06 0)
(0.0223863 -1.81629e-06 0)
(0.0223864 -1.9533e-06 0)
(0.0223864 -2.09686e-06 0)
(0.0223865 -2.20747e-06 0)
(0.0223862 -9.44391e-08 0)
(0.0223859 -2.25031e-07 0)
(0.0223859 -3.6696e-07 0)
(0.0223859 -5.10454e-07 0)
(0.0223859 -6.56413e-07 0)
(0.0223859 -8.01501e-07 0)
(0.0223859 -9.50081e-07 0)
(0.0223859 -1.09662e-06 0)
(0.0223859 -1.2482e-06 0)
(0.0223859 -1.39571e-06 0)
(0.0223859 -1.5497e-06 0)
(0.0223859 -1.69606e-06 0)
(0.022386 -1.84968e-06 0)
(0.022386 -1.98807e-06 0)
(0.0223861 -2.13237e-06 0)
(0.0223862 -2.24327e-06 0)
(0.0223859 -9.64314e-08 0)
(0.0223856 -2.2915e-07 0)
(0.0223856 -3.73651e-07 0)
(0.0223856 -5.19722e-07 0)
(0.0223856 -6.68246e-07 0)
(0.0223856 -8.15789e-07 0)
(0.0223856 -9.66854e-07 0)
(0.0223856 -1.11589e-06 0)
(0.0223856 -1.26966e-06 0)
(0.0223856 -1.41929e-06 0)
(0.0223856 -1.5751e-06 0)
(0.0223856 -1.72316e-06 0)
(0.0223856 -1.87804e-06 0)
(0.0223857 -2.01747e-06 0)
(0.0223857 -2.16235e-06 0)
(0.0223859 -2.27381e-06 0)
(0.0223856 -9.81967e-08 0)
(0.0223852 -2.3278e-07 0)
(0.0223852 -3.79536e-07 0)
(0.0223852 -5.27872e-07 0)
(0.0223852 -6.78603e-07 0)
(0.0223852 -8.28306e-07 0)
(0.0223852 -9.81514e-07 0)
(0.0223852 -1.13265e-06 0)
(0.0223852 -1.28827e-06 0)
(0.0223852 -1.43972e-06 0)
(0.0223852 -1.59703e-06 0)
(0.0223853 -1.74647e-06 0)
(0.0223853 -1.9024e-06 0)
(0.0223853 -2.04273e-06 0)
(0.0223854 -2.18825e-06 0)
(0.0223855 -2.30041e-06 0)
(0.0223852 -9.97524e-08 0)
(0.0223849 -2.35975e-07 0)
(0.0223849 -3.84696e-07 0)
(0.0223849 -5.35052e-07 0)
(0.0223849 -6.87654e-07 0)
(0.0223849 -8.39334e-07 0)
(0.0223849 -9.94445e-07 0)
(0.0223849 -1.14732e-06 0)
(0.0223849 -1.30455e-06 0)
(0.0223849 -1.45749e-06 0)
(0.0223849 -1.6161e-06 0)
(0.0223849 -1.76671e-06 0)
(0.0223849 -1.92359e-06 0)
(0.022385 -2.06478e-06 0)
(0.0223851 -2.21101e-06 0)
(0.0223852 -2.32401e-06 0)
(0.0223849 -1.0112e-07 0)
(0.0223845 -2.38796e-07 0)
(0.0223845 -3.89257e-07 0)
(0.0223845 -5.41411e-07 0)
(0.0223845 -6.95672e-07 0)
(0.0223845 -8.49098e-07 0)
(0.0223845 -1.00582e-06 0)
(0.0223845 -1.1602e-06 0)
(0.0223845 -1.31882e-06 0)
(0.0223845 -1.47307e-06 0)
(0.0223845 -1.63281e-06 0)
(0.0223846 -1.7845e-06 0)
(0.0223846 -1.94228e-06 0)
(0.0223846 -2.08433e-06 0)
(0.0223847 -2.23133e-06 0)
(0.0223848 -2.3452e-06 0)
(0.0223845 -1.02328e-07 0)
(0.0223842 -2.41295e-07 0)
(0.0223842 -3.93305e-07 0)
(0.0223842 -5.47013e-07 0)
(0.0223842 -7.02773e-07 0)
(0.0223842 -8.57749e-07 0)
(0.0223842 -1.01587e-06 0)
(0.0223842 -1.17161e-06 0)
(0.0223842 -1.33147e-06 0)
(0.0223842 -1.48689e-06 0)
(0.0223842 -1.64768e-06 0)
(0.0223842 -1.80038e-06 0)
(0.0223842 -1.95905e-06 0)
(0.0223843 -2.10199e-06 0)
(0.0223844 -2.24982e-06 0)
(0.0223845 -2.3646e-06 0)
(0.0223842 -1.03399e-07 0)
(0.0223838 -2.43495e-07 0)
(0.0223838 -3.9689e-07 0)
(0.0223838 -5.51919e-07 0)
(0.0223838 -7.09067e-07 0)
(0.0223838 -8.65504e-07 0)
(0.0223838 -1.02485e-06 0)
(0.0223838 -1.18186e-06 0)
(0.0223838 -1.34285e-06 0)
(0.0223838 -1.49937e-06 0)
(0.0223838 -1.66113e-06 0)
(0.0223839 -1.81485e-06 0)
(0.0223839 -1.97438e-06 0)
(0.0223839 -2.11825e-06 0)
(0.022384 -2.26696e-06 0)
(0.0223841 -2.38271e-06 0)
(0.0223838 -1.04344e-07 0)
(0.0223835 -2.45502e-07 0)
(0.0223835 -4.00113e-07 0)
(0.0223835 -5.5642e-07 0)
(0.0223835 -7.14877e-07 0)
(0.0223835 -8.72564e-07 0)
(0.0223835 -1.03306e-06 0)
(0.0223835 -1.19123e-06 0)
(0.0223835 -1.35326e-06 0)
(0.0223835 -1.51083e-06 0)
(0.0223835 -1.67357e-06 0)
(0.0223835 -1.82829e-06 0)
(0.0223835 -1.98871e-06 0)
(0.0223836 -2.13352e-06 0)
(0.0223837 -2.28318e-06 0)
(0.0223838 -2.3999e-06 0)
(0.0223835 -1.05202e-07 0)
(0.0223831 -2.47352e-07 0)
(0.0223831 -4.03095e-07 0)
(0.0223831 -5.60644e-07 0)
(0.0223831 -7.2027e-07 0)
(0.0223831 -8.79067e-07 0)
(0.0223831 -1.04062e-06 0)
(0.0223831 -1.19987e-06 0)
(0.0223831 -1.3629e-06 0)
(0.0223831 -1.52149e-06 0)
(0.0223831 -1.68521e-06 0)
(0.0223832 -1.8409e-06 0)
(0.0223832 -2.00226e-06 0)
(0.0223832 -2.14803e-06 0)
(0.0223833 -2.29864e-06 0)
(0.0223834 -2.4163e-06 0)
(0.0223831 -1.05993e-07 0)
(0.0223828 -2.49046e-07 0)
(0.0223828 -4.05913e-07 0)
(0.0223828 -5.64637e-07 0)
(0.0223828 -7.25291e-07 0)
(0.0223828 -8.85175e-07 0)
(0.0223828 -1.04772e-06 0)
(0.0223828 -1.208e-06 0)
(0.0223828 -1.37202e-06 0)
(0.0223828 -1.5316e-06 0)
(0.0223828 -1.69632e-06 0)
(0.0223828 -1.85298e-06 0)
(0.0223828 -2.01532e-06 0)
(0.0223829 -2.16206e-06 0)
(0.0223829 -2.31363e-06 0)
(0.0223831 -2.43224e-06 0)
(0.0223828 -1.0672e-07 0)
(0.0223824 -2.50747e-07 0)
(0.0223824 -4.08675e-07 0)
(0.0223824 -5.68451e-07 0)
(0.0223824 -7.30079e-07 0)
(0.0223824 -8.90991e-07 0)
(0.0223824 -1.05447e-06 0)
(0.0223824 -1.21575e-06 0)
(0.0223824 -1.38076e-06 0)
(0.0223824 -1.54132e-06 0)
(0.0223824 -1.70704e-06 0)
(0.0223824 -1.86467e-06 0)
(0.0223825 -2.02801e-06 0)
(0.0223825 -2.17573e-06 0)
(0.0223826 -2.32827e-06 0)
(0.0223827 -2.44782e-06 0)
(0.0223824 -1.07447e-07 0)
(0.0223821 -2.52405e-07 0)
(0.0223821 -4.11334e-07 0)
(0.0223821 -5.72092e-07 0)
(0.0223821 -7.34675e-07 0)
(0.0223821 -8.96595e-07 0)
(0.0223821 -1.06098e-06 0)
(0.0223821 -1.22322e-06 0)
(0.0223821 -1.38924e-06 0)
(0.0223821 -1.55077e-06 0)
(0.0223821 -1.7175e-06 0)
(0.0223821 -1.87612e-06 0)
(0.0223821 -2.04047e-06 0)
(0.0223822 -2.18917e-06 0)
(0.0223822 -2.3427e-06 0)
(0.0223824 -2.46317e-06 0)
(0.0223821 -1.08158e-07 0)
(0.0223817 -2.53967e-07 0)
(0.0223817 -4.1386e-07 0)
(0.0223817 -5.75583e-07 0)
(0.0223817 -7.39127e-07 0)
(0.0223817 -9.0201e-07 0)
(0.0223817 -1.06734e-06 0)
(0.0223817 -1.23054e-06 0)
(0.0223817 -1.39756e-06 0)
(0.0223817 -1.56005e-06 0)
(0.0223817 -1.72779e-06 0)
(0.0223817 -1.88742e-06 0)
(0.0223817 -2.05278e-06 0)
(0.0223818 -2.20247e-06 0)
(0.0223819 -2.35698e-06 0)
(0.022382 -2.47836e-06 0)
(0.0223817 -1.08828e-07 0)
(0.0223814 -2.55475e-07 0)
(0.0223814 -4.16304e-07 0)
(0.0223814 -5.78968e-07 0)
(0.0223814 -7.43472e-07 0)
(0.0223814 -9.07285e-07 0)
(0.0223814 -1.07358e-06 0)
(0.0223813 -1.23775e-06 0)
(0.0223813 -1.40574e-06 0)
(0.0223813 -1.56924e-06 0)
(0.0223813 -1.73798e-06 0)
(0.0223814 -1.89862e-06 0)
(0.0223814 -2.065e-06 0)
(0.0223814 -2.21568e-06 0)
(0.0223815 -2.37117e-06 0)
(0.0223816 -2.49345e-06 0)
(0.0223814 -1.09473e-07 0)
(0.022381 -2.56936e-07 0)
(0.022381 -4.18684e-07 0)
(0.022381 -5.82276e-07 0)
(0.022381 -7.47729e-07 0)
(0.022381 -9.12479e-07 0)
(0.022381 -1.07974e-06 0)
(0.022381 -1.24488e-06 0)
(0.022381 -1.41385e-06 0)
(0.022381 -1.57835e-06 0)
(0.022381 -1.74811e-06 0)
(0.022381 -1.90977e-06 0)
(0.022381 -2.07716e-06 0)
(0.0223811 -2.22881e-06 0)
(0.0223811 -2.38526e-06 0)
(0.0223813 -2.50841e-06 0)
(0.022381 -1.10099e-07 0)
(0.0223807 -2.58366e-07 0)
(0.0223807 -4.21019e-07 0)
(0.0223807 -5.85528e-07 0)
(0.0223806 -7.51922e-07 0)
(0.0223806 -9.17604e-07 0)
(0.0223806 -1.08583e-06 0)
(0.0223806 -1.25194e-06 0)
(0.0223806 -1.4219e-06 0)
(0.0223806 -1.58742e-06 0)
(0.0223806 -1.75818e-06 0)
(0.0223806 -1.92086e-06 0)
(0.0223806 -2.08925e-06 0)
(0.0223807 -2.24187e-06 0)
(0.0223808 -2.39927e-06 0)
(0.0223809 -2.52327e-06 0)
(0.0223807 -1.10712e-07 0)
(0.0223803 -2.59773e-07 0)
(0.0223803 -4.2332e-07 0)
(0.0223803 -5.88735e-07 0)
(0.0223803 -7.56061e-07 0)
(0.0223803 -9.22678e-07 0)
(0.0223803 -1.09186e-06 0)
(0.0223803 -1.25896e-06 0)
(0.0223803 -1.4299e-06 0)
(0.0223803 -1.59646e-06 0)
(0.0223802 -1.76824e-06 0)
(0.0223803 -1.93194e-06 0)
(0.0223803 -2.10136e-06 0)
(0.0223803 -2.25496e-06 0)
(0.0223804 -2.41333e-06 0)
(0.0223805 -2.53822e-06 0)
(0.0223803 -1.11315e-07 0)
(0.0223799 -2.61168e-07 0)
(0.0223799 -4.256e-07 0)
(0.0223799 -5.91918e-07 0)
(0.0223799 -7.60171e-07 0)
(0.0223799 -9.27724e-07 0)
(0.0223799 -1.09787e-06 0)
(0.0223799 -1.26596e-06 0)
(0.0223799 -1.43789e-06 0)
(0.0223799 -1.60548e-06 0)
(0.0223799 -1.77828e-06 0)
(0.0223799 -1.94303e-06 0)
(0.0223799 -2.11348e-06 0)
(0.02238 -2.26808e-06 0)
(0.02238 -2.42745e-06 0)
(0.0223801 -2.55322e-06 0)
(0.0223799 -1.11913e-07 0)
(0.0223796 -2.62544e-07 0)
(0.0223796 -4.27852e-07 0)
(0.0223796 -5.95064e-07 0)
(0.0223796 -7.64236e-07 0)
(0.0223796 -9.32723e-07 0)
(0.0223795 -1.10382e-06 0)
(0.0223795 -1.2729e-06 0)
(0.0223795 -1.44583e-06 0)
(0.0223795 -1.61448e-06 0)
(0.0223795 -1.78828e-06 0)
(0.0223795 -1.95407e-06 0)
(0.0223795 -2.12559e-06 0)
(0.0223796 -2.28118e-06 0)
(0.0223797 -2.44154e-06 0)
(0.0223798 -2.56816e-06 0)
(0.0223796 -1.12502e-07 0)
(0.0223792 -2.63902e-07 0)
(0.0223792 -4.30076e-07 0)
(0.0223792 -5.98175e-07 0)
(0.0223792 -7.68262e-07 0)
(0.0223792 -9.3768e-07 0)
(0.0223792 -1.10974e-06 0)
(0.0223792 -1.27981e-06 0)
(0.0223792 -1.45374e-06 0)
(0.0223791 -1.62345e-06 0)
(0.0223791 -1.79826e-06 0)
(0.0223791 -1.96508e-06 0)
(0.0223792 -2.13769e-06 0)
(0.0223792 -2.29425e-06 0)
(0.0223793 -2.45562e-06 0)
(0.0223794 -2.58308e-06 0)
(0.0223792 -1.13084e-07 0)
(0.0223789 -2.6524e-07 0)
(0.0223788 -4.32266e-07 0)
(0.0223788 -6.01241e-07 0)
(0.0223788 -7.72232e-07 0)
(0.0223788 -9.42575e-07 0)
(0.0223788 -1.1156e-06 0)
(0.0223788 -1.28665e-06 0)
(0.0223788 -1.46159e-06 0)
(0.0223788 -1.63233e-06 0)
(0.0223788 -1.80818e-06 0)
(0.0223788 -1.97604e-06 0)
(0.0223788 -2.14972e-06 0)
(0.0223788 -2.30729e-06 0)
(0.0223789 -2.46966e-06 0)
(0.022379 -2.598e-06 0)
(0.0223789 -1.13658e-07 0)
(0.0223785 -2.66558e-07 0)
(0.0223785 -4.34424e-07 0)
(0.0223785 -6.04265e-07 0)
(0.0223785 -7.76151e-07 0)
(0.0223785 -9.47408e-07 0)
(0.0223784 -1.12139e-06 0)
(0.0223784 -1.29341e-06 0)
(0.0223784 -1.46938e-06 0)
(0.0223784 -1.64113e-06 0)
(0.0223784 -1.81804e-06 0)
(0.0223784 -1.98696e-06 0)
(0.0223784 -2.16171e-06 0)
(0.0223785 -2.32029e-06 0)
(0.0223785 -2.48368e-06 0)
(0.0223786 -2.6129e-06 0)
(0.0223785 -1.14222e-07 0)
(0.0223781 -2.67854e-07 0)
(0.0223781 -4.36544e-07 0)
(0.0223781 -6.07237e-07 0)
(0.0223781 -7.80004e-07 0)
(0.0223781 -9.52159e-07 0)
(0.0223781 -1.12709e-06 0)
(0.0223781 -1.30007e-06 0)
(0.022378 -1.47704e-06 0)
(0.022378 -1.64982e-06 0)
(0.022378 -1.82775e-06 0)
(0.022378 -1.99775e-06 0)
(0.022378 -2.17352e-06 0)
(0.0223781 -2.33315e-06 0)
(0.0223781 -2.49744e-06 0)
(0.0223783 -2.62766e-06 0)
(0.0223781 -1.14777e-07 0)
(0.0223778 -2.69123e-07 0)
(0.0223777 -4.38619e-07 0)
(0.0223777 -6.10146e-07 0)
(0.0223777 -7.83774e-07 0)
(0.0223777 -9.56804e-07 0)
(0.0223777 -1.13266e-06 0)
(0.0223777 -1.30658e-06 0)
(0.0223777 -1.48455e-06 0)
(0.0223777 -1.65837e-06 0)
(0.0223776 -1.83732e-06 0)
(0.0223776 -2.00841e-06 0)
(0.0223776 -2.18521e-06 0)
(0.0223777 -2.34589e-06 0)
(0.0223778 -2.51106e-06 0)
(0.0223779 -2.64233e-06 0)
(0.0223778 -1.1532e-07 0)
(0.0223774 -2.70359e-07 0)
(0.0223774 -4.4064e-07 0)
(0.0223774 -6.12988e-07 0)
(0.0223774 -7.87457e-07 0)
(0.0223773 -9.6135e-07 0)
(0.0223773 -1.13814e-06 0)
(0.0223773 -1.31296e-06 0)
(0.0223773 -1.49188e-06 0)
(0.0223773 -1.66677e-06 0)
(0.0223773 -1.84673e-06 0)
(0.0223773 -2.01896e-06 0)
(0.0223773 -2.19678e-06 0)
(0.0223773 -2.35857e-06 0)
(0.0223774 -2.52469e-06 0)
(0.0223775 -2.65704e-06 0)
(0.0223774 -1.15849e-07 0)
(0.022377 -2.7156e-07 0)
(0.022377 -4.42604e-07 0)
(0.022377 -6.15754e-07 0)
(0.022377 -7.91044e-07 0)
(0.022377 -9.65792e-07 0)
(0.022377 -1.14348e-06 0)
(0.0223769 -1.3192e-06 0)
(0.0223769 -1.49905e-06 0)
(0.0223769 -1.67504e-06 0)
(0.0223769 -1.85596e-06 0)
(0.0223769 -2.02938e-06 0)
(0.0223769 -2.2082e-06 0)
(0.0223769 -2.37121e-06 0)
(0.022377 -2.53833e-06 0)
(0.0223771 -2.67178e-06 0)
(0.022377 -1.16363e-07 0)
(0.0223766 -2.72729e-07 0)
(0.0223766 -4.44515e-07 0)
(0.0223766 -6.18449e-07 0)
(0.0223766 -7.94529e-07 0)
(0.0223766 -9.70143e-07 0)
(0.0223766 -1.14867e-06 0)
(0.0223766 -1.32535e-06 0)
(0.0223765 -1.50613e-06 0)
(0.0223765 -1.68319e-06 0)
(0.0223765 -1.8651e-06 0)
(0.0223765 -2.03971e-06 0)
(0.0223765 -2.21955e-06 0)
(0.0223765 -2.38379e-06 0)
(0.0223766 -2.5519e-06 0)
(0.0223767 -2.68646e-06 0)
(0.0223766 -1.16863e-07 0)
(0.0223763 -2.73869e-07 0)
(0.0223763 -4.46377e-07 0)
(0.0223763 -6.21079e-07 0)
(0.0223762 -7.97925e-07 0)
(0.0223762 -9.74389e-07 0)
(0.0223762 -1.15374e-06 0)
(0.0223762 -1.33137e-06 0)
(0.0223762 -1.51306e-06 0)
(0.0223761 -1.6912e-06 0)
(0.0223761 -1.87409e-06 0)
(0.0223761 -2.04992e-06 0)
(0.0223761 -2.23077e-06 0)
(0.0223761 -2.39628e-06 0)
(0.0223762 -2.56537e-06 0)
(0.0223763 -2.7011e-06 0)
(0.0223763 -1.1735e-07 0)
(0.0223759 -2.7499e-07 0)
(0.0223759 -4.48205e-07 0)
(0.0223759 -6.23666e-07 0)
(0.0223759 -8.01264e-07 0)
(0.0223758 -9.7857e-07 0)
(0.0223758 -1.15873e-06 0)
(0.0223758 -1.33731e-06 0)
(0.0223758 -1.51992e-06 0)
(0.0223757 -1.69913e-06 0)
(0.0223757 -1.88302e-06 0)
(0.0223757 -2.06007e-06 0)
(0.0223757 -2.24197e-06 0)
(0.0223757 -2.40876e-06 0)
(0.0223758 -2.57891e-06 0)
(0.0223759 -2.71582e-06 0)
(0.0223759 -1.1783e-07 0)
(0.0223755 -2.76106e-07 0)
(0.0223755 -4.50024e-07 0)
(0.0223755 -6.26235e-07 0)
(0.0223755 -8.0458e-07 0)
(0.0223755 -9.82719e-07 0)
(0.0223754 -1.16369e-06 0)
(0.0223754 -1.34321e-06 0)
(0.0223754 -1.52672e-06 0)
(0.0223754 -1.70701e-06 0)
(0.0223753 -1.8919e-06 0)
(0.0223753 -2.07016e-06 0)
(0.0223753 -2.25311e-06 0)
(0.0223754 -2.42121e-06 0)
(0.0223754 -2.59245e-06 0)
(0.0223755 -2.73057e-06 0)
(0.0223755 -1.18306e-07 0)
(0.0223752 -2.7724e-07 0)
(0.0223751 -4.51872e-07 0)
(0.0223751 -6.28844e-07 0)
(0.0223751 -8.07942e-07 0)
(0.0223751 -9.86911e-07 0)
(0.0223751 -1.1687e-06 0)
(0.022375 -1.34914e-06 0)
(0.022375 -1.53356e-06 0)
(0.022375 -1.71491e-06 0)
(0.0223749 -1.90082e-06 0)
(0.0223749 -2.08029e-06 0)
(0.0223749 -2.26433e-06 0)
(0.022375 -2.43377e-06 0)
(0.022375 -2.60609e-06 0)
(0.0223751 -2.74547e-06 0)
(0.0223752 -1.18791e-07 0)
(0.0223748 -2.78416e-07 0)
(0.0223748 -4.538e-07 0)
(0.0223748 -6.3156e-07 0)
(0.0223747 -8.11434e-07 0)
(0.0223747 -9.91248e-07 0)
(0.0223747 -1.17385e-06 0)
(0.0223747 -1.35522e-06 0)
(0.0223746 -1.54054e-06 0)
(0.0223746 -1.72295e-06 0)
(0.0223746 -1.90985e-06 0)
(0.0223745 -2.09053e-06 0)
(0.0223745 -2.27567e-06 0)
(0.0223746 -2.44646e-06 0)
(0.0223746 -2.61992e-06 0)
(0.0223747 -2.76062e-06 0)
(0.0223748 -1.19292e-07 0)
(0.0223744 -2.79679e-07 0)
(0.0223744 -4.55877e-07 0)
(0.0223744 -6.3449e-07 0)
(0.0223744 -8.15184e-07 0)
(0.0223743 -9.95872e-07 0)
(0.0223743 -1.17932e-06 0)
(0.0223743 -1.36162e-06 0)
(0.0223742 -1.54784e-06 0)
(0.0223742 -1.73128e-06 0)
(0.0223742 -1.91918e-06 0)
(0.0223741 -2.10105e-06 0)
(0.0223741 -2.28731e-06 0)
(0.0223742 -2.45943e-06 0)
(0.0223742 -2.63411e-06 0)
(0.0223743 -2.77619e-06 0)
(0.0223744 -1.19831e-07 0)
(0.022374 -2.8111e-07 0)
(0.022374 -4.58208e-07 0)
(0.022374 -6.37778e-07 0)
(0.022374 -8.19362e-07 0)
(0.022374 -1.00098e-06 0)
(0.0223739 -1.18532e-06 0)
(0.0223739 -1.36855e-06 0)
(0.0223738 -1.5557e-06 0)
(0.0223738 -1.74016e-06 0)
(0.0223738 -1.92904e-06 0)
(0.0223737 -2.11207e-06 0)
(0.0223737 -2.29943e-06 0)
(0.0223738 -2.47288e-06 0)
(0.0223738 -2.64876e-06 0)
(0.0223739 -2.7923e-06 0)
(0.022374 -1.20444e-07 0)
(0.0223737 -2.82811e-07 0)
(0.0223736 -4.60948e-07 0)
(0.0223736 -6.41591e-07 0)
(0.0223736 -8.24193e-07 0)
(0.0223736 -1.00681e-06 0)
(0.0223735 -1.19213e-06 0)
(0.0223735 -1.37632e-06 0)
(0.0223735 -1.56441e-06 0)
(0.0223734 -1.74988e-06 0)
(0.0223734 -1.93974e-06 0)
(0.0223733 -2.1239e-06 0)
(0.0223733 -2.31232e-06 0)
(0.0223733 -2.48711e-06 0)
(0.0223734 -2.6642e-06 0)
(0.0223735 -2.80928e-06 0)
(0.0223737 -1.21172e-07 0)
(0.0223733 -2.84872e-07 0)
(0.0223733 -4.64257e-07 0)
(0.0223733 -6.46148e-07 0)
(0.0223732 -8.29952e-07 0)
(0.0223732 -1.0137e-06 0)
(0.0223732 -1.20011e-06 0)
(0.0223731 -1.38532e-06 0)
(0.0223731 -1.57441e-06 0)
(0.022373 -1.76087e-06 0)
(0.022373 -1.9517e-06 0)
(0.0223729 -2.13698e-06 0)
(0.0223729 -2.32643e-06 0)
(0.0223729 -2.50257e-06 0)
(0.022373 -2.68089e-06 0)
(0.0223731 -2.82761e-06 0)
(0.0223733 -1.22051e-07 0)
(0.0223729 -2.87417e-07 0)
(0.0223729 -4.68322e-07 0)
(0.0223729 -6.51724e-07 0)
(0.0223728 -8.36987e-07 0)
(0.0223728 -1.02205e-06 0)
(0.0223728 -1.20973e-06 0)
(0.0223727 -1.39606e-06 0)
(0.0223727 -1.58623e-06 0)
(0.0223726 -1.7737e-06 0)
(0.0223726 -1.9655e-06 0)
(0.0223725 -2.15185e-06 0)
(0.0223725 -2.34229e-06 0)
(0.0223725 -2.51978e-06 0)
(0.0223726 -2.69932e-06 0)
(0.0223727 -2.84776e-06 0)
(0.0223729 -1.23138e-07 0)
(0.0223725 -2.90609e-07 0)
(0.0223725 -4.73405e-07 0)
(0.0223725 -6.58668e-07 0)
(0.0223725 -8.45737e-07 0)
(0.0223724 -1.03239e-06 0)
(0.0223724 -1.22157e-06 0)
(0.0223723 -1.40919e-06 0)
(0.0223723 -1.60055e-06 0)
(0.0223722 -1.78908e-06 0)
(0.0223722 -1.98186e-06 0)
(0.0223721 -2.16925e-06 0)
(0.0223721 -2.36063e-06 0)
(0.0223721 -2.53945e-06 0)
(0.0223721 -2.72016e-06 0)
(0.0223722 -2.87038e-06 0)
(0.0223725 -1.24503e-07 0)
(0.0223722 -2.94618e-07 0)
(0.0223721 -4.79831e-07 0)
(0.0223721 -6.67429e-07 0)
(0.0223721 -8.56723e-07 0)
(0.0223721 -1.04535e-06 0)
(0.022372 -1.23634e-06 0)
(0.022372 -1.42551e-06 0)
(0.0223719 -1.61823e-06 0)
(0.0223718 -1.8079e-06 0)
(0.0223718 -2.00171e-06 0)
(0.0223717 -2.19008e-06 0)
(0.0223717 -2.38232e-06 0)
(0.0223717 -2.56243e-06 0)
(0.0223717 -2.74422e-06 0)
(0.0223718 -2.89625e-06 0)
(0.0223722 -1.26221e-07 0)
(0.0223718 -2.99662e-07 0)
(0.0223718 -4.87955e-07 0)
(0.0223717 -6.78497e-07 0)
(0.0223717 -8.70565e-07 0)
(0.0223717 -1.06169e-06 0)
(0.0223716 -1.25491e-06 0)
(0.0223716 -1.44597e-06 0)
(0.0223715 -1.64031e-06 0)
(0.0223714 -1.83128e-06 0)
(0.0223714 -2.02619e-06 0)
(0.0223713 -2.2155e-06 0)
(0.0223713 -2.40851e-06 0)
(0.0223713 -2.58981e-06 0)
(0.0223713 -2.77256e-06 0)
(0.0223714 -2.92641e-06 0)
(0.0223718 -1.28386e-07 0)
(0.0223714 -3.06e-07 0)
(0.0223714 -4.98167e-07 0)
(0.0223714 -6.9241e-07 0)
(0.0223713 -8.87985e-07 0)
(0.0223713 -1.08225e-06 0)
(0.0223712 -1.27829e-06 0)
(0.0223712 -1.47172e-06 0)
(0.0223711 -1.66804e-06 0)
(0.022371 -1.86054e-06 0)
(0.022371 -2.05668e-06 0)
(0.0223709 -2.24694e-06 0)
(0.0223709 -2.44069e-06 0)
(0.0223708 -2.62299e-06 0)
(0.0223709 -2.80654e-06 0)
(0.0223709 -2.96217e-06 0)
(0.0223714 -1.31107e-07 0)
(0.022371 -3.13902e-07 0)
(0.022371 -5.10909e-07 0)
(0.022371 -7.0979e-07 0)
(0.0223709 -9.09785e-07 0)
(0.0223709 -1.10803e-06 0)
(0.0223708 -1.30765e-06 0)
(0.0223708 -1.50411e-06 0)
(0.0223707 -1.70292e-06 0)
(0.0223706 -1.89732e-06 0)
(0.0223706 -2.09495e-06 0)
(0.0223705 -2.28619e-06 0)
(0.0223704 -2.48061e-06 0)
(0.0223704 -2.66371e-06 0)
(0.0223704 -2.84783e-06 0)
(0.0223705 -3.00512e-06 0)
(0.022371 -1.345e-07 0)
(0.0223706 -3.2365e-07 0)
(0.0223706 -5.2665e-07 0)
(0.0223706 -7.3128e-07 0)
(0.0223705 -9.36799e-07 0)
(0.0223705 -1.14008e-06 0)
(0.0223704 -1.34428e-06 0)
(0.0223704 -1.5446e-06 0)
(0.0223703 -1.7467e-06 0)
(0.0223702 -1.9435e-06 0)
(0.0223702 -2.14309e-06 0)
(0.0223701 -2.33537e-06 0)
(0.02237 -2.53057e-06 0)
(0.02237 -2.71412e-06 0)
(0.02237 -2.89866e-06 0)
(0.02237 -3.05748e-06 0)
(0.0223706 -1.38684e-07 0)
(0.0223702 -3.35521e-07 0)
(0.0223702 -5.45844e-07 0)
(0.0223702 -7.57531e-07 0)
(0.0223701 -9.69884e-07 0)
(0.0223701 -1.17948e-06 0)
(0.02237 -1.38949e-06 0)
(0.02237 -1.59478e-06 0)
(0.0223699 -1.80126e-06 0)
(0.0223698 -2.00129e-06 0)
(0.0223698 -2.20351e-06 0)
(0.0223697 -2.39717e-06 0)
(0.0223696 -2.59334e-06 0)
(0.0223696 -2.77708e-06 0)
(0.0223695 -2.9618e-06 0)
(0.0223696 -3.12183e-06 0)
(0.0223702 -1.4378e-07 0)
(0.0223698 -3.49741e-07 0)
(0.0223698 -5.68855e-07 0)
(0.0223698 -7.89143e-07 0)
(0.0223697 -1.00985e-06 0)
(0.0223697 -1.22726e-06 0)
(0.0223696 -1.44461e-06 0)
(0.0223696 -1.6563e-06 0)
(0.0223695 -1.86856e-06 0)
(0.0223694 -2.07302e-06 0)
(0.0223693 -2.27897e-06 0)
(0.0223693 -2.47471e-06 0)
(0.0223692 -2.67233e-06 0)
(0.0223691 -2.85616e-06 0)
(0.0223691 -3.04069e-06 0)
(0.0223691 -3.20121e-06 0)
(0.0223698 -1.4988e-07 0)
(0.0223694 -3.66466e-07 0)
(0.0223694 -5.95958e-07 0)
(0.0223693 -8.26537e-07 0)
(0.0223693 -1.0573e-06 0)
(0.0223693 -1.28427e-06 0)
(0.0223692 -1.51074e-06 0)
(0.0223692 -1.73065e-06 0)
(0.0223691 -1.9505e-06 0)
(0.022369 -2.16112e-06 0)
(0.0223689 -2.37248e-06 0)
(0.0223688 -2.5716e-06 0)
(0.0223688 -2.77178e-06 0)
(0.0223687 -2.95606e-06 0)
(0.0223686 -3.14025e-06 0)
(0.0223686 -3.30028e-06 0)
(0.0223694 -1.57052e-07 0)
(0.0223689 -3.85753e-07 0)
(0.0223689 -6.27277e-07 0)
(0.0223689 -8.69879e-07 0)
(0.0223689 -1.11252e-06 0)
(0.0223688 -1.35097e-06 0)
(0.0223688 -1.5886e-06 0)
(0.0223687 -1.81889e-06 0)
(0.0223687 -2.0486e-06 0)
(0.0223686 -2.26773e-06 0)
(0.0223685 -2.48692e-06 0)
(0.0223684 -2.69173e-06 0)
(0.0223683 -2.89679e-06 0)
(0.0223682 -3.08325e-06 0)
(0.0223682 -3.26855e-06 0)
(0.0223682 -3.42833e-06 0)
(0.0223689 -1.65321e-07 0)
(0.0223685 -4.07494e-07 0)
(0.0223684 -6.62651e-07 0)
(0.0223684 -9.18991e-07 0)
(0.0223684 -1.17534e-06 0)
(0.0223684 -1.4273e-06 0)
(0.0223683 -1.67826e-06 0)
(0.0223683 -1.92135e-06 0)
(0.0223682 -2.16355e-06 0)
(0.0223681 -2.39408e-06 0)
(0.0223681 -2.62428e-06 0)
(0.022368 -2.83816e-06 0)
(0.0223679 -3.05196e-06 0)
(0.0223678 -3.24448e-06 0)
(0.0223677 -3.43557e-06 0)
(0.0223677 -3.59923e-06 0)
(0.0223685 -1.74639e-07 0)
(0.022368 -4.31384e-07 0)
(0.022368 -7.01597e-07 0)
(0.0223679 -9.7324e-07 0)
(0.0223679 -1.245e-06 0)
(0.0223679 -1.51242e-06 0)
(0.0223679 -1.77886e-06 0)
(0.0223678 -2.03724e-06 0)
(0.0223678 -2.29471e-06 0)
(0.0223677 -2.53979e-06 0)
(0.0223676 -2.78453e-06 0)
(0.0223675 -3.01139e-06 0)
(0.0223674 -3.23843e-06 0)
(0.0223674 -3.4417e-06 0)
(0.0223673 -3.64442e-06 0)
(0.0223672 -3.81743e-06 0)
(0.022368 -1.84876e-07 0)
(0.0223675 -4.56902e-07 0)
(0.0223675 -7.43269e-07 0)
(0.0223674 -1.03147e-06 0)
(0.0223674 -1.32004e-06 0)
(0.0223674 -1.60461e-06 0)
(0.0223674 -1.88846e-06 0)
(0.0223673 -2.16446e-06 0)
(0.0223673 -2.43979e-06 0)
(0.0223672 -2.70253e-06 0)
(0.0223671 -2.96523e-06 0)
(0.0223671 -3.20887e-06 0)
(0.022367 -3.45328e-06 0)
(0.0223669 -3.67131e-06 0)
(0.0223668 -3.88979e-06 0)
(0.0223667 -4.07488e-06 0)
(0.0223675 -1.95808e-07 0)
(0.0223669 -4.83288e-07 0)
(0.0223669 -7.86433e-07 0)
(0.0223669 -1.09197e-06 0)
(0.0223669 -1.39829e-06 0)
(0.0223669 -1.70124e-06 0)
(0.0223668 -2.00397e-06 0)
(0.0223668 -2.29948e-06 0)
(0.0223668 -2.5949e-06 0)
(0.0223667 -2.87804e-06 0)
(0.0223667 -3.16175e-06 0)
(0.0223666 -3.4257e-06 0)
(0.0223665 -3.6912e-06 0)
(0.0223664 -3.92764e-06 0)
(0.0223663 -4.16554e-06 0)
(0.0223663 -4.36506e-06 0)
(0.0223669 -2.07108e-07 0)
(0.0223663 -5.09566e-07 0)
(0.0223663 -8.29491e-07 0)
(0.0223663 -1.15251e-06 0)
(0.0223663 -1.47684e-06 0)
(0.0223663 -1.79871e-06 0)
(0.0223663 -2.12114e-06 0)
(0.0223663 -2.43741e-06 0)
(0.0223662 -2.75443e-06 0)
(0.0223662 -3.0601e-06 0)
(0.0223661 -3.36719e-06 0)
(0.0223661 -3.65445e-06 0)
(0.022366 -3.94415e-06 0)
(0.022366 -4.20219e-06 0)
(0.0223659 -4.46264e-06 0)
(0.0223658 -4.67855e-06 0)
(0.0223663 -2.18359e-07 0)
(0.0223657 -5.34575e-07 0)
(0.0223657 -8.70539e-07 0)
(0.0223657 -1.21039e-06 0)
(0.0223657 -1.5522e-06 0)
(0.0223657 -1.89268e-06 0)
(0.0223657 -2.23473e-06 0)
(0.0223657 -2.57204e-06 0)
(0.0223657 -2.91126e-06 0)
(0.0223656 -3.24068e-06 0)
(0.0223656 -3.57261e-06 0)
(0.0223656 -3.88545e-06 0)
(0.0223655 -4.20173e-06 0)
(0.0223655 -4.48422e-06 0)
(0.0223654 -4.76994e-06 0)
(0.0223653 -5.00402e-06 0)
(0.0223657 -2.29064e-07 0)
(0.0223651 -5.57015e-07 0)
(0.0223651 -9.07445e-07 0)
(0.0223651 -1.26256e-06 0)
(0.0223651 -1.62042e-06 0)
(0.0223651 -1.97819e-06 0)
(0.0223651 -2.33865e-06 0)
(0.0223651 -2.69617e-06 0)
(0.0223651 -3.0569e-06 0)
(0.0223651 -3.41004e-06 0)
(0.022365 -3.76701e-06 0)
(0.022365 -4.10661e-06 0)
(0.022365 -4.45086e-06 0)
(0.0223649 -4.76019e-06 0)
(0.0223649 -5.07372e-06 0)
(0.0223648 -5.3282e-06 0)
(0.0223651 -2.38666e-07 0)
(0.0223645 -5.75572e-07 0)
(0.0223645 -9.38021e-07 0)
(0.0223645 -1.3059e-06 0)
(0.0223645 -1.67734e-06 0)
(0.0223645 -2.04995e-06 0)
(0.0223645 -2.42635e-06 0)
(0.0223645 -2.80181e-06 0)
(0.0223645 -3.18187e-06 0)
(0.0223644 -3.55703e-06 0)
(0.0223644 -3.93751e-06 0)
(0.0223644 -4.30339e-06 0)
(0.0223644 -4.6753e-06 0)
(0.0223644 -5.01272e-06 0)
(0.0223644 -5.35553e-06 0)
(0.0223644 -5.63252e-06 0)
(0.0223645 -2.46603e-07 0)
(0.0223638 -5.89005e-07 0)
(0.0223638 -9.60195e-07 0)
(0.0223638 -1.33744e-06 0)
(0.0223638 -1.71895e-06 0)
(0.0223638 -2.10273e-06 0)
(0.0223638 -2.49131e-06 0)
(0.0223638 -2.88087e-06 0)
(0.0223638 -3.27627e-06 0)
(0.0223638 -3.6697e-06 0)
(0.0223638 -4.06985e-06 0)
(0.0223638 -4.45914e-06 0)
(0.0223638 -4.85587e-06 0)
(0.0223639 -5.22059e-06 0)
(0.0223639 -5.5923e-06 0)
(0.0223639 -5.89291e-06 0)
(0.0223638 -2.52346e-07 0)
(0.0223631 -5.96316e-07 0)
(0.0223631 -9.72292e-07 0)
(0.0223631 -1.35475e-06 0)
(0.0223631 -1.7419e-06 0)
(0.0223631 -2.13217e-06 0)
(0.0223631 -2.52788e-06 0)
(0.0223631 -2.92612e-06 0)
(0.0223631 -3.33102e-06 0)
(0.0223631 -3.7366e-06 0)
(0.0223632 -4.14984e-06 0)
(0.0223632 -4.55643e-06 0)
(0.0223632 -4.97156e-06 0)
(0.0223633 -5.35988e-06 0)
(0.0223634 -5.75735e-06 0)
(0.0223635 -6.08158e-06 0)
(0.0223631 -2.55467e-07 0)
(0.0223624 -5.97004e-07 0)
(0.0223624 -9.73438e-07 0)
(0.0223624 -1.35646e-06 0)
(0.0223624 -1.74428e-06 0)
(0.0223624 -2.13555e-06 0)
(0.0223624 -2.53239e-06 0)
(0.0223624 -2.9326e-06 0)
(0.0223624 -3.33954e-06 0)
(0.0223625 -3.74888e-06 0)
(0.0223625 -4.16568e-06 0)
(0.0223625 -4.57901e-06 0)
(0.0223626 -4.99986e-06 0)
(0.0223627 -5.39929e-06 0)
(0.0223628 -5.80572e-06 0)
(0.022363 -6.13877e-06 0)
(0.0223624 -2.55755e-07 0)
(0.0223617 -5.90852e-07 0)
(0.0223617 -9.63243e-07 0)
(0.0223617 -1.34193e-06 0)
(0.0223617 -1.72505e-06 0)
(0.0223617 -2.11132e-06 0)
(0.0223617 -2.50256e-06 0)
(0.0223617 -2.89699e-06 0)
(0.0223617 -3.2971e-06 0)
(0.0223618 -3.69982e-06 0)
(0.0223618 -4.108e-06 0)
(0.0223619 -4.5133e-06 0)
(0.022362 -4.92151e-06 0)
(0.0223621 -5.30957e-06 0)
(0.0223623 -5.69476e-06 0)
(0.0223626 -6.01135e-06 0)
(0.0223617 -2.53117e-07 0)
(0.022361 -5.77577e-07 0)
(0.022361 -9.4128e-07 0)
(0.022361 -1.31061e-06 0)
(0.022361 -1.68353e-06 0)
(0.022361 -2.05864e-06 0)
(0.022361 -2.43722e-06 0)
(0.0223611 -2.81764e-06 0)
(0.0223611 -3.20131e-06 0)
(0.0223611 -3.586e-06 0)
(0.0223612 -3.97217e-06 0)
(0.0223613 -4.35393e-06 0)
(0.0223614 -4.73214e-06 0)
(0.0223616 -5.09054e-06 0)
(0.0223619 -5.43678e-06 0)
(0.0223622 -5.72889e-06 0)
(0.022361 -2.47435e-07 0)
(0.0223604 -5.5731e-07 0)
(0.0223604 -9.07838e-07 0)
(0.0223604 -1.26306e-06 0)
(0.0223604 -1.62067e-06 0)
(0.0223604 -1.979e-06 0)
(0.0223604 -2.33855e-06 0)
(0.0223604 -2.69759e-06 0)
(0.0223605 -3.05632e-06 0)
(0.0223605 -3.41297e-06 0)
(0.0223606 -3.7657e-06 0)
(0.0223607 -4.11154e-06 0)
(0.0223609 -4.44752e-06 0)
(0.0223611 -4.76633e-06 0)
(0.0223614 -5.06882e-06 0)
(0.0223619 -5.33831e-06 0)
(0.0223604 -2.38763e-07 0)
(0.0223597 -5.30596e-07 0)
(0.0223598 -8.63878e-07 0)
(0.0223598 -1.20078e-06 0)
(0.0223598 -1.5388e-06 0)
(0.0223598 -1.87578e-06 0)
(0.0223598 -2.21136e-06 0)
(0.0223598 -2.5436e-06 0)
(0.0223599 -2.87164e-06 0)
(0.02236 -3.19403e-06 0)
(0.0223601 -3.50683e-06 0)
(0.0223602 -3.8101e-06 0)
(0.0223604 -4.09837e-06 0)
(0.0223607 -4.37386e-06 0)
(0.0223611 -4.63286e-06 0)
(0.0223616 -4.88123e-06 0)
(0.0223597 -2.27331e-07 0)
(0.0223592 -4.98421e-07 0)
(0.0223592 -8.11022e-07 0)
(0.0223592 -1.12616e-06 0)
(0.0223592 -1.44129e-06 0)
(0.0223592 -1.75372e-06 0)
(0.0223593 -2.06222e-06 0)
(0.0223593 -2.36476e-06 0)
(0.0223594 -2.65963e-06 0)
(0.0223595 -2.946e-06 0)
(0.0223596 -3.21827e-06 0)
(0.0223598 -3.47887e-06 0)
(0.0223601 -3.72078e-06 0)
(0.0223604 -3.95443e-06 0)
(0.0223608 -4.17325e-06 0)
(0.0223613 -4.40011e-06 0)
(0.0223592 -2.13559e-07 0)
(0.0223587 -4.62335e-07 0)
(0.0223587 -7.51765e-07 0)
(0.0223587 -1.04264e-06 0)
(0.0223587 -1.3326e-06 0)
(0.0223588 -1.61856e-06 0)
(0.0223588 -1.89871e-06 0)
(0.0223589 -2.17094e-06 0)
(0.022359 -2.43279e-06 0)
(0.0223591 -2.68422e-06 0)
(0.0223593 -2.91969e-06 0)
(0.0223595 -3.14338e-06 0)
(0.0223598 -3.34715e-06 0)
(0.0223601 -3.54672e-06 0)
(0.0223605 -3.73366e-06 0)
(0.022361 -3.93833e-06 0)
(0.0223587 -1.98115e-07 0)
(0.0223582 -4.24273e-07 0)
(0.0223583 -6.89247e-07 0)
(0.0223583 -9.54523e-07 0)
(0.0223583 -1.21779e-06 0)
(0.0223584 -1.47588e-06 0)
(0.0223585 -1.72719e-06 0)
(0.0223586 -1.97003e-06 0)
(0.0223587 -2.20063e-06 0)
(0.0223588 -2.41944e-06 0)
(0.022359 -2.62361e-06 0)
(0.0223593 -2.82002e-06 0)
(0.0223596 -2.99989e-06 0)
(0.0223599 -3.17883e-06 0)
(0.0223603 -3.34786e-06 0)
(0.0223608 -3.53334e-06 0)
(0.0223582 -1.81831e-07 0)
(0.0223579 -3.85506e-07 0)
(0.0223579 -6.25676e-07 0)
(0.0223579 -8.65109e-07 0)
(0.022358 -1.10088e-06 0)
(0.0223581 -1.32987e-06 0)
(0.0223582 -1.55185e-06 0)
(0.0223583 -1.7672e-06 0)
(0.0223584 -1.97091e-06 0)
(0.0223586 -2.16399e-06 0)
(0.0223588 -2.34473e-06 0)
(0.0223591 -2.52253e-06 0)
(0.0223594 -2.6898e-06 0)
(0.0223597 -2.85816e-06 0)
(0.0223601 -3.01939e-06 0)
(0.0223606 -3.19316e-06 0)