/*--------------------------------*- C++ -*----------------------------------*\
| =========                 |                                                 |
| \\      /  F ield         | foam-extend: Open Source CFD                    |
|  \\    /   O peration     | Version:     4.1-20200408                       |
|   \\  /    A nd           | Web:         http://www.foam-extend.org         |
|    \\/     M anipulation  |                                                 |
\*---------------------------------------------------------------------------*/
FoamFile
{
    version     2.0;
    format      ascii;
    class       volVectorField;
    location    "0.0225000";
    object      Velocity;
}
// * * * * * * * * * * * * * * * * * * * * * * * * * * * * * * * * * * * * * //

dimensions      [0 1 -1 0 0 0 0];

internalField   nonuniform List<vector> 
1952
(
(1.00003 7.59006e-05 0)
(1.00003 0.000122663 0)
(1.00003 0.000172162 0)
(1.00003 0.000218779 0)
(1.00003 0.000269887 0)
(1.00003 0.000316035 0)
(1.00003 0.000369413 0)
(1.00003 0.000416089 0)
(1.00003 0.000471129 0)
(1.00003 0.000516933 0)
(1.00003 0.000572643 0)
(1.00002 0.00061704 0)
(1.00001 0.000670125 0)
(0.99999 0.000706418 0)
(0.999901 0.000731591 0)
(1.00003 3.243e-05 0)
(1.00008 6.39954e-05 0)
(1.00008 0.000103696 0)
(1.00008 0.000144713 0)
(1.00008 0.000184204 0)
(1.00008 0.00022547 0)
(1.00008 0.000263831 0)
(1.00008 0.000304826 0)
(1.00007 0.00034141 0)
(1.00007 0.000380526 0)
(1.00007 0.000412891 0)
(1.00006 0.000446717 0)
(1.00005 0.000470164 0)
(1.00003 0.000490252 0)
(0.999985 0.000493045 0)
(0.999906 0.00047996 0)
(1.00008 2.73864e-05 0)
(1.00011 5.26164e-05 0)
(1.00011 8.53009e-05 0)
(1.00011 0.000118502 0)
(1.00011 0.000150673 0)
(1.0001 0.000183126 0)
(1.0001 0.000213442 0)
(1.0001 0.000243913 0)
(1.0001 0.000270846 0)
(1.00009 0.000297291 0)
(1.00008 0.000318106 0)
(1.00007 0.000336821 0)
(1.00005 0.000346662 0)
(1.00002 0.000351354 0)
(0.999962 0.00034382 0)
(0.999878 0.000329827 0)
(1.00011 2.25367e-05 0)
(1.00013 4.19119e-05 0)
(1.00013 6.78413e-05 0)
(1.00012 9.3875e-05 0)
(1.00012 0.000118901 0)
(1.00012 0.000143508 0)
(1.00012 0.000166069 0)
(1.00011 0.000187739 0)
(1.00011 0.000206042 0)
(1.0001 0.000222677 0)
(1.00008 0.000234157 0)
(1.00007 0.000242772 0)
(1.00004 0.000243972 0)
(1 0.000241668 0)
(0.99995 0.000231119 0)
(0.999879 0.000222466 0)
(1.00013 1.79602e-05 0)
(1.00014 3.19053e-05 0)
(1.00013 5.15139e-05 0)
(1.00013 7.09742e-05 0)
(1.00013 8.93877e-05 0)
(1.00013 0.000107046 0)
(1.00012 0.00012269 0)
(1.00011 0.000137038 0)
(1.0001 0.000148228 0)
(1.00009 0.000157482 0)
(1.00008 0.000162253 0)
(1.00005 0.000164552 0)
(1.00002 0.000161196 0)
(0.999987 0.000156244 0)
(0.999937 0.000146319 0)
(0.999876 0.000140634 0)
(1.00014 1.36785e-05 0)
(1.00014 2.28568e-05 0)
(1.00013 3.67696e-05 0)
(1.00013 5.03925e-05 0)
(1.00013 6.296e-05 0)
(1.00012 7.46676e-05 0)
(1.00012 8.44538e-05 0)
(1.00011 9.291e-05 0)
(1.0001 9.85236e-05 0)
(1.00008 0.000102404 0)
(1.00006 0.000102582 0)
(1.00004 0.000101052 0)
(1.00001 9.54477e-05 0)
(0.999972 8.97657e-05 0)
(0.999928 8.12512e-05 0)
(0.999878 7.79239e-05 0)
(1.00014 9.80447e-06 0)
(1.00013 1.48976e-05 0)
(1.00013 2.38279e-05 0)
(1.00012 3.24082e-05 0)
(1.00012 3.9981e-05 0)
(1.00011 4.67358e-05 0)
(1.0001 5.17481e-05 0)
(1.00009 5.56026e-05 0)
(1.00008 5.70316e-05 0)
(1.00006 5.71391e-05 0)
(1.00004 5.43589e-05 0)
(1.00002 5.06499e-05 0)
(0.999991 4.4183e-05 0)
(0.999957 3.85769e-05 0)
(0.999919 3.14981e-05 0)
(0.999878 2.93222e-05 0)
(1.00013 6.39491e-06 0)
(1.00011 8.07586e-06 0)
(1.00011 1.27624e-05 0)
(1.00011 1.70966e-05 0)
(1.0001 2.05192e-05 0)
(1.0001 2.32529e-05 0)
(1.00009 2.44819e-05 0)
(1.00008 2.48234e-05 0)
(1.00006 2.31928e-05 0)
(1.00004 2.07044e-05 0)
(1.00002 1.60747e-05 0)
(1 1.11698e-05 0)
(0.999973 4.50943e-06 0)
(0.999943 -7.61121e-07 0)
(0.999911 -6.67531e-06 0)
(0.999877 -8.2163e-06 0)
(1.00012 3.47128e-06 0)
(1.0001 2.37235e-06 0)
(1.00009 3.53329e-06 0)
(1.00009 4.37866e-06 0)
(1.00008 4.43802e-06 0)
(1.00007 3.98347e-06 0)
(1.00006 2.28764e-06 0)
(1.00005 8.36879e-09 0)
(1.00004 -3.80118e-06 0)
(1.00002 -8.03124e-06 0)
(1 -1.37666e-05 0)
(0.99998 -1.92839e-05 0)
(0.999955 -2.58273e-05 0)
(0.999929 -3.07501e-05 0)
(0.999902 -3.58329e-05 0)
(0.999875 -3.7196e-05 0)
(1.0001 1.02583e-06 0)
(1.00007 -2.28825e-06 0)
(1.00007 -3.99002e-06 0)
(1.00006 -5.94834e-06 0)
(1.00006 -8.55469e-06 0)
(1.00005 -1.14847e-05 0)
(1.00004 -1.53952e-05 0)
(1.00003 -1.95932e-05 0)
(1.00001 -2.49249e-05 0)
(0.999998 -3.03029e-05 0)
(0.999979 -3.6676e-05 0)
(0.999959 -4.24845e-05 0)
(0.999937 -4.88105e-05 0)
(0.999914 -5.34619e-05 0)
(0.999891 -5.80008e-05 0)
(0.99987 -5.94346e-05 0)
(1.00007 -9.7326e-07 0)
(1.00004 -6.01249e-06 0)
(1.00004 -9.9878e-06 0)
(1.00004 -1.41504e-05 0)
(1.00003 -1.88249e-05 0)
(1.00002 -2.36371e-05 0)
(1.00001 -2.91908e-05 0)
(1 -3.47654e-05 0)
(0.999988 -4.11383e-05 0)
(0.999973 -4.72559e-05 0)
(0.999956 -5.39774e-05 0)
(0.999938 -5.99072e-05 0)
(0.999918 -6.60131e-05 0)
(0.999899 -7.04961e-05 0)
(0.99988 -7.47255e-05 0)
(0.999863 -7.64041e-05 0)
(1.00005 -2.57133e-06 0)
(1.00002 -8.92664e-06 0)
(1.00001 -1.46703e-05 0)
(1.00001 -2.05307e-05 0)
(1 -2.67777e-05 0)
(0.999995 -3.29928e-05 0)
(0.999985 -3.97424e-05 0)
(0.999975 -4.6286e-05 0)
(0.999961 -5.33569e-05 0)
(0.999948 -5.99407e-05 0)
(0.999932 -6.68402e-05 0)
(0.999917 -7.28102e-05 0)
(0.9999 -7.87368e-05 0)
(0.999884 -8.31461e-05 0)
(0.999868 -8.72392e-05 0)
(0.999855 -8.92576e-05 0)
(1.00002 -3.82224e-06 0)
(0.999986 -1.11605e-05 0)
(0.999982 -1.82518e-05 0)
(0.999978 -2.53933e-05 0)
(0.999972 -3.28124e-05 0)
(0.999966 -4.00515e-05 0)
(0.999956 -4.76545e-05 0)
(0.999947 -5.48649e-05 0)
(0.999935 -6.2393e-05 0)
(0.999923 -6.92614e-05 0)
(0.999909 -7.62421e-05 0)
(0.999895 -8.22184e-05 0)
(0.99988 -8.80191e-05 0)
(0.999867 -9.24313e-05 0)
(0.999855 -9.65119e-05 0)
(0.999845 -9.89204e-05 0)
(0.999986 -4.78152e-06 0)
(0.999954 -1.28422e-05 0)
(0.999951 -2.0942e-05 0)
(0.999948 -2.90324e-05 0)
(0.999942 -3.73095e-05 0)
(0.999936 -4.52821e-05 0)
(0.999927 -5.34824e-05 0)
(0.999919 -6.11416e-05 0)
(0.999908 -6.89616e-05 0)
(0.999898 -7.59978e-05 0)
(0.999885 -8.30084e-05 0)
(0.999874 -8.89822e-05 0)
(0.999861 -9.47079e-05 0)
(0.99985 -9.91779e-05 0)
(0.99984 -0.000103328 0)
(0.999833 -0.000106141 0)
(0.999955 -5.5039e-06 0)
(0.999922 -1.40887e-05 0)
(0.99992 -2.2932e-05 0)
(0.999916 -3.1714e-05 0)
(0.999911 -4.06097e-05 0)
(0.999906 -4.90978e-05 0)
(0.999898 -5.77095e-05 0)
(0.999891 -6.56631e-05 0)
(0.999881 -7.36648e-05 0)
(0.999873 -8.07944e-05 0)
(0.999861 -8.78107e-05 0)
(0.999852 -9.3783e-05 0)
(0.999841 -9.94761e-05 0)
(0.999833 -0.000104038 0)
(0.999825 -0.000108308 0)
(0.999819 -0.000111517 0)
(0.999923 -6.03961e-06 0)
(0.99989 -1.5007e-05 0)
(0.999888 -2.4395e-05 0)
(0.999885 -3.36775e-05 0)
(0.999881 -4.30168e-05 0)
(0.999876 -5.18642e-05 0)
(0.999869 -6.07572e-05 0)
(0.999863 -6.8901e-05 0)
(0.999855 -7.70143e-05 0)
(0.999848 -8.41929e-05 0)
(0.999838 -9.12062e-05 0)
(0.999831 -9.71819e-05 0)
(0.999822 -0.000102874 0)
(0.999815 -0.000107545 0)
(0.999808 -0.000111959 0)
(0.999804 -0.000115536 0)
(0.999891 -6.4344e-06 0)
(0.999858 -1.56884e-05 0)
(0.999856 -2.54789e-05 0)
(0.999854 -3.51263e-05 0)
(0.99985 -4.47873e-05 0)
(0.999846 -5.38868e-05 0)
(0.99984 -6.29752e-05 0)
(0.999836 -7.1242e-05 0)
(0.999828 -7.94255e-05 0)
(0.999823 -8.6628e-05 0)
(0.999815 -9.36383e-05 0)
(0.999809 -9.96211e-05 0)
(0.999801 -0.000105332 0)
(0.999796 -0.000110115 0)
(0.999791 -0.000114678 0)
(0.999788 -0.000118583 0)
(0.999859 -6.72751e-06 0)
(0.999826 -1.62127e-05 0)
(0.999824 -2.63123e-05 0)
(0.999823 -3.62365e-05 0)
(0.999819 -4.61418e-05 0)
(0.999816 -5.54272e-05 0)
(0.999812 -6.46603e-05 0)
(0.999808 -7.30124e-05 0)
(0.999802 -8.12461e-05 0)
(0.999798 -8.84613e-05 0)
(0.999791 -9.54733e-05 0)
(0.999787 -0.000101465 0)
(0.999781 -0.000107207 0)
(0.999777 -0.000112091 0)
(0.999773 -0.000116793 0)
(0.999771 -0.000120977 0)
(0.999826 -6.95313e-06 0)
(0.999794 -1.66449e-05 0)
(0.999793 -2.69997e-05 0)
(0.999791 -3.71505e-05 0)
(0.999789 -4.7258e-05 0)
(0.999787 -5.6695e-05 0)
(0.999783 -6.60486e-05 0)
(0.999781 -7.44703e-05 0)
(0.999776 -8.27487e-05 0)
(0.999773 -8.99745e-05 0)
(0.999768 -9.69948e-05 0)
(0.999765 -0.000102994 0)
(0.99976 -0.000108768 0)
(0.999758 -0.000113733 0)
(0.999755 -0.000118554 0)
(0.999753 -0.000122962 0)
(0.999794 -7.13912e-06 0)
(0.999762 -1.70396e-05 0)
(0.999761 -2.76291e-05 0)
(0.99976 -3.79883e-05 0)
(0.999758 -4.82852e-05 0)
(0.999757 -5.78655e-05 0)
(0.999755 -6.73374e-05 0)
(0.999753 -7.58299e-05 0)
(0.99975 -8.41599e-05 0)
(0.999748 -9.14007e-05 0)
(0.999744 -9.84373e-05 0)
(0.999743 -0.000104439 0)
(0.999739 -0.000110242 0)
(0.999738 -0.000115261 0)
(0.999736 -0.000120169 0)
(0.999735 -0.000124739 0)
(0.999762 -7.309e-06 0)
(0.999729 -1.74388e-05 0)
(0.999729 -2.82678e-05 0)
(0.999729 -3.88416e-05 0)
(0.999728 -4.93368e-05 0)
(0.999728 -5.9072e-05 0)
(0.999726 -6.86752e-05 0)
(0.999726 -7.7253e-05 0)
(0.999724 -8.56485e-05 0)
(0.999724 -9.29137e-05 0)
(0.999721 -9.99741e-05 0)
(0.999721 -0.000105971 0)
(0.999718 -0.000111793 0)
(0.999718 -0.00011683 0)
(0.999716 -0.00012179 0)
(0.999716 -0.000126455 0)
(0.999729 -7.48079e-06 0)
(0.999697 -1.78763e-05 0)
(0.999697 -2.89699e-05 0)
(0.999697 -3.97837e-05 0)
(0.999697 -5.05041e-05 0)
(0.999698 -6.04213e-05 0)
(0.999697 -7.01819e-05 0)
(0.999699 -7.88693e-05 0)
(0.999698 -8.73515e-05 0)
(0.999699 -9.46534e-05 0)
(0.999697 -0.000101746 0)
(0.999699 -0.000107729 0)
(0.999697 -0.000113556 0)
(0.999698 -0.000118571 0)
(0.999697 -0.000123538 0)
(0.999697 -0.000128228 0)
(0.999697 -7.66897e-06 0)
(0.999663 -1.83748e-05 0)
(0.999664 -2.97717e-05 0)
(0.999665 -4.08644e-05 0)
(0.999666 -5.18481e-05 0)
(0.999668 -6.19859e-05 0)
(0.999668 -7.19375e-05 0)
(0.999671 -8.07665e-05 0)
(0.999671 -8.93597e-05 0)
(0.999674 -9.67141e-05 0)
(0.999674 -0.000103847 0)
(0.999676 -0.000109804 0)
(0.999676 -0.000115619 0)
(0.999678 -0.000120567 0)
(0.999677 -0.000125493 0)
(0.999677 -0.000130131 0)
(0.999663 -7.88326e-06 0)
(0.99963 -1.89487e-05 0)
(0.999631 -3.0697e-05 0)
(0.999632 -4.2116e-05 0)
(0.999634 -5.34093e-05 0)
(0.999637 -6.38134e-05 0)
(0.999639 -7.39961e-05 0)
(0.999643 -8.30036e-05 0)
(0.999645 -9.17362e-05 0)
(0.999649 -9.91599e-05 0)
(0.99965 -0.000106341 0)
(0.999654 -0.00011226 0)
(0.999655 -0.000118042 0)
(0.999657 -0.000122874 0)
(0.999657 -0.000127709 0)
(0.999658 -0.000132214 0)
(0.999629 -8.12998e-06 0)
(0.999595 -1.96026e-05 0)
(0.999597 -3.17527e-05 0)
(0.999599 -4.3549e-05 0)
(0.999602 -5.52003e-05 0)
(0.999606 -6.59206e-05 0)
(0.999609 -7.63759e-05 0)
(0.999615 -8.56027e-05 0)
(0.999618 -9.45035e-05 0)
(0.999624 -0.000102016 0)
(0.999626 -0.000109255 0)
(0.999632 -0.00011512 0)
(0.999633 -0.000120849 0)
(0.999637 -0.000125513 0)
(0.999638 -0.0001302 0)
(0.999639 -0.000134485 0)
(0.999594 -8.41101e-06 0)
(0.999559 -2.03307e-05 0)
(0.999561 -3.29302e-05 0)
(0.999564 -4.51521e-05 0)
(0.999568 -5.72077e-05 0)
(0.999574 -6.82933e-05 0)
(0.999578 -7.90624e-05 0)
(0.999585 -8.85495e-05 0)
(0.99959 -9.76484e-05 0)
(0.999598 -0.00010527 0)
(0.999602 -0.000112575 0)
(0.999609 -0.000118374 0)
(0.999612 -0.000124028 0)
(0.999617 -0.000128467 0)
(0.999619 -0.000132948 0)
(0.99962 -0.000136921 0)
(0.999558 -8.72392e-06 0)
(0.999521 -2.11161e-05 0)
(0.999524 -3.42025e-05 0)
(0.999528 -4.689e-05 0)
(0.999533 -5.93883e-05 0)
(0.99954 -7.08839e-05 0)
(0.999546 -8.20027e-05 0)
(0.999555 -9.1791e-05 0)
(0.999562 -0.000101116 0)
(0.999572 -0.000108869 0)
(0.999578 -0.00011625 0)
(0.999587 -0.00012197 0)
(0.999591 -0.000127529 0)
(0.999598 -0.000131685 0)
(0.9996 -0.0001359 0)
(0.999602 -0.000139459 0)
(0.99952 -9.06139e-06 0)
(0.999482 -2.19267e-05 0)
(0.999486 -3.55188e-05 0)
(0.999491 -4.86955e-05 0)
(0.999497 -6.16593e-05 0)
(0.999505 -7.35988e-05 0)
(0.999513 -8.50941e-05 0)
(0.999524 -9.52194e-05 0)
(0.999533 -0.000104796 0)
(0.999545 -0.000112702 0)
(0.999553 -0.00012017 0)
(0.999564 -0.000125798 0)
(0.999571 -0.000131243 0)
(0.999579 -0.000135057 0)
(0.999582 -0.000138946 0)
(0.999585 -0.000141985 0)
(0.999481 -9.40975e-06 0)
(0.999441 -2.27157e-05 0)
(0.999445 -3.68046e-05 0)
(0.999451 -5.04691e-05 0)
(0.999459 -6.38989e-05 0)
(0.999469 -7.62994e-05 0)
(0.999479 -8.81841e-05 0)
(0.999492 -9.86751e-05 0)
(0.999503 -0.000108523 0)
(0.999517 -0.000116604 0)
(0.999528 -0.000124173 0)
(0.999541 -0.000129702 0)
(0.99955 -0.000135019 0)
(0.99956 -0.000138431 0)
(0.999565 -0.000141934 0)
(0.99957 -0.000144338 0)
(0.999439 -9.74883e-06 0)
(0.999397 -2.34136e-05 0)
(0.999403 -3.79488e-05 0)
(0.99941 -5.20625e-05 0)
(0.999419 -6.59244e-05 0)
(0.999431 -7.87771e-05 0)
(0.999443 -9.10414e-05 0)
(0.999458 -0.000101914 0)
(0.999472 -0.000112044 0)
(0.999489 -0.000120322 0)
(0.999502 -0.000128004 0)
(0.999519 -0.000133431 0)
(0.99953 -0.000138611 0)
(0.999543 -0.000141567 0)
(0.999549 -0.000144626 0)
(0.999555 -0.000146275 0)
(0.999396 -1.00488e-05 0)
(0.999352 -2.39285e-05 0)
(0.999358 -3.88051e-05 0)
(0.999367 -5.32795e-05 0)
(0.999377 -6.74946e-05 0)
(0.999391 -8.07549e-05 0)
(0.999405 -9.33606e-05 0)
(0.999423 -0.000104613 0)
(0.999439 -0.000115023 0)
(0.99946 -0.000123518 0)
(0.999476 -0.00013133 0)
(0.999496 -0.00013666 0)
(0.99951 -0.000141705 0)
(0.999526 -0.000144154 0)
(0.999535 -0.00014672 0)
(0.999542 -0.000147487 0)
(0.99935 -1.02702e-05 0)
(0.999304 -2.41354e-05 0)
(0.999311 -3.91736e-05 0)
(0.999321 -5.38517e-05 0)
(0.999333 -6.82783e-05 0)
(0.999349 -8.18514e-05 0)
(0.999365 -9.47174e-05 0)
(0.999387 -0.00010632 0)
(0.999406 -0.000116991 0)
(0.99943 -0.000125718 0)
(0.99945 -0.000133678 0)
(0.999473 -0.000138926 0)
(0.999491 -0.000143849 0)
(0.99951 -0.000145752 0)
(0.999522 -0.000147785 0)
(0.999532 -0.000147542 0)
(0.999302 -1.03593e-05 0)
(0.999254 -2.38759e-05 0)
(0.999262 -3.88005e-05 0)
(0.999273 -5.34374e-05 0)
(0.999287 -6.78538e-05 0)
(0.999305 -8.15789e-05 0)
(0.999324 -9.45709e-05 0)
(0.999348 -0.000106458 0)
(0.999371 -0.000117346 0)
(0.999398 -0.000126314 0)
(0.999423 -0.000134442 0)
(0.99945 -0.000139637 0)
(0.999472 -0.00014447 0)
(0.999496 -0.000145805 0)
(0.999511 -0.000147283 0)
(0.999524 -0.0001459 0)
(0.999252 -1.02482e-05 0)
(0.999203 -2.29448e-05 0)
(0.999211 -3.73574e-05 0)
(0.999224 -5.1593e-05 0)
(0.999239 -6.56722e-05 0)
(0.999259 -7.93e-05 0)
(0.99928 -9.221e-05 0)
(0.999308 -0.000104266 0)
(0.999334 -0.00011529 0)
(0.999366 -0.000124499 0)
(0.999395 -0.000132812 0)
(0.999427 -0.000138003 0)
(0.999454 -0.0001428 0)
(0.999483 -0.00014357 0)
(0.999502 -0.000144494 0)
(0.999519 -0.000141849 0)
(0.9992 -9.84862e-06 0)
(0.99915 -2.10893e-05 0)
(0.999159 -3.44381e-05 0)
(0.999173 -4.77684e-05 0)
(0.999189 -6.10513e-05 0)
(0.999212 -7.42192e-05 0)
(0.999235 -8.67449e-05 0)
(0.999266 -9.87843e-05 0)
(0.999296 -0.000109817 0)
(0.999333 -0.000119248 0)
(0.999366 -0.000127762 0)
(0.999404 -0.000133022 0)
(0.999437 -0.000137866 0)
(0.999471 -0.000138108 0)
(0.999496 -0.000138517 0)
(0.999518 -0.0001345 0)
(0.999147 -9.05205e-06 0)
(0.999096 -1.79963e-05 0)
(0.999106 -2.9539e-05 0)
(0.999121 -4.1279e-05 0)
(0.999138 -5.31392e-05 0)
(0.999163 -6.53375e-05 0)
(0.999189 -7.70536e-05 0)
(0.999223 -8.87985e-05 0)
(0.999257 -9.96436e-05 0)
(0.999298 -0.00010925 0)
(0.999337 -0.000117973 0)
(0.999381 -0.000123402 0)
(0.99942 -0.000128414 0)
(0.999461 -0.000128214 0)
(0.999493 -0.000128196 0)
(0.999521 -0.00012272 0)
(0.999093 -7.72398e-06 0)
(0.999043 -1.32906e-05 0)
(0.999053 -2.20552e-05 0)
(0.999069 -3.12991e-05 0)
(0.999087 -4.09044e-05 0)
(0.999114 -5.1438e-05 0)
(0.999142 -6.17608e-05 0)
(0.999179 -7.28087e-05 0)
(0.999217 -8.31782e-05 0)
(0.999262 -9.28701e-05 0)
(0.999307 -0.000101789 0)
(0.999357 -0.000107519 0)
(0.999404 -0.000112862 0)
(0.999453 -0.000112374 0)
(0.999492 -0.000112083 0)
(0.999529 -0.000105098 0)
(0.99904 -5.70333e-06 0)
(0.998992 -6.52857e-06 0)
(0.999002 -1.1269e-05 0)
(0.999018 -1.68443e-05 0)
(0.999037 -2.31108e-05 0)
(0.999065 -3.10514e-05 0)
(0.999094 -3.91949e-05 0)
(0.999134 -4.89762e-05 0)
(0.999175 -5.84541e-05 0)
(0.999225 -6.80694e-05 0)
(0.999276 -7.71368e-05 0)
(0.999334 -8.33299e-05 0)
(0.999389 -8.92177e-05 0)
(0.999447 -8.86807e-05 0)
(0.999496 -8.83593e-05 0)
(0.999541 -7.98723e-05 0)
(0.998989 -2.79958e-06 0)
(0.998946 2.79945e-06 0)
(0.998955 3.64627e-06 0)
(0.998971 3.22724e-06 0)
(0.998989 1.68518e-06 0)
(0.999018 -2.44591e-06 0)
(0.999048 -7.36698e-06 0)
(0.999089 -1.5089e-05 0)
(0.999133 -2.3081e-05 0)
(0.999187 -3.23464e-05 0)
(0.999245 -4.14458e-05 0)
(0.999309 -4.82886e-05 0)
(0.999374 -5.49826e-05 0)
(0.999442 -5.47479e-05 0)
(0.999503 -5.47544e-05 0)
(0.99956 -4.48536e-05 0)
(0.998942 1.20598e-06 0)
(0.998907 1.5261e-05 0)
(0.998915 2.36165e-05 0)
(0.99893 3.02033e-05 0)
(0.998947 3.51262e-05 0)
(0.998975 3.63719e-05 0)
(0.999004 3.60404e-05 0)
(0.999046 3.14644e-05 0)
(0.999092 2.58008e-05 0)
(0.999149 1.73321e-05 0)
(0.999212 8.43548e-06 0)
(0.999284 7.58254e-07 0)
(0.999359 -7.04082e-06 0)
(0.999439 -7.59624e-06 0)
(0.999513 -8.43289e-06 0)
(0.999585 2.67773e-06 0)
(0.998903 6.55689e-06 0)
(0.998878 3.14636e-05 0)
(0.998884 4.96378e-05 0)
(0.998898 6.54855e-05 0)
(0.998912 7.90199e-05 0)
(0.998938 8.7631e-05 0)
(0.998966 9.36571e-05 0)
(0.999006 9.37052e-05 0)
(0.999053 9.15526e-05 0)
(0.999112 8.46002e-05 0)
(0.99918 7.63386e-05 0)
(0.999259 6.76982e-05 0)
(0.999344 5.84874e-05 0)
(0.999438 5.64948e-05 0)
(0.999527 5.41483e-05 0)
(0.999617 6.60988e-05 0)
(0.998876 1.35136e-05 0)
(0.998865 5.20179e-05 0)
(0.998869 8.27214e-05 0)
(0.99888 0.000110515 0)
(0.99889 0.000135259 0)
(0.998912 0.000153711 0)
(0.998935 0.000168357 0)
(0.998973 0.000175009 0)
(0.999017 0.000178026 0)
(0.999076 0.000173714 0)
(0.999147 0.000166856 0)
(0.999233 0.00015727 0)
(0.999329 0.000146409 0)
(0.999437 0.000142152 0)
(0.999545 0.000137405 0)
(0.999656 0.000149577 0)
(0.998863 2.23377e-05 0)
(0.998873 7.74856e-05 0)
(0.998873 0.000123809 0)
(0.99888 0.000166668 0)
(0.998884 0.000205693 0)
(0.9989 0.000237013 0)
(0.998916 0.000263127 0)
(0.998948 0.000279012 0)
(0.998988 0.000289492 0)
(0.999044 0.00028957 0)
(0.999116 0.000285411 0)
(0.999206 0.000275246 0)
(0.999313 0.000262698 0)
(0.999436 0.000255204 0)
(0.999565 0.000246929 0)
(0.999702 0.000258343 0)
(0.998872 3.32692e-05 0)
(0.998907 0.000108295 0)
(0.998902 0.000173642 0)
(0.998904 0.000235068 0)
(0.9989 0.00029191 0)
(0.998908 0.000339706 0)
(0.998915 0.00038081 0)
(0.998937 0.000409355 0)
(0.998968 0.000430451 0)
(0.999018 0.00043756 0)
(0.999087 0.000438264 0)
(0.999178 0.000428552 0)
(0.999294 0.000414817 0)
(0.999433 0.000403139 0)
(0.999587 0.000390117 0)
(0.999756 0.000399359 0)
(0.998907 4.64907e-05 0)
(0.998975 0.000144636 0)
(0.998964 0.000232583 0)
(0.998959 0.000316359 0)
(0.998946 0.000394938 0)
(0.998942 0.000463386 0)
(0.998936 0.00052372 0)
(0.998946 0.000569296 0)
(0.998964 0.000605243 0)
(0.999003 0.00062329 0)
(0.999064 0.000632289 0)
(0.999152 0.000625267 0)
(0.999274 0.000611865 0)
(0.999427 0.000595485 0)
(0.999608 0.000576783 0)
(0.999815 0.000581966 0)
(0.998977 6.20814e-05 0)
(0.999084 0.000186317 0)
(0.999066 0.000300392 0)
(0.999053 0.000410367 0)
(0.999028 0.000514828 0)
(0.999011 0.000608552 0)
(0.998989 0.000693053 0)
(0.998981 0.000761053 0)
(0.998981 0.000817389 0)
(0.999003 0.000851916 0)
(0.99905 0.000874449 0)
(0.999129 0.000874183 0)
(0.999252 0.000864239 0)
(0.999416 0.000843444 0)
(0.999627 0.000818498 0)
(0.999878 0.000816589 0)
(0.999087 7.9957e-05 0)
(0.99924 0.000232615 0)
(0.999215 0.000375964 0)
(0.999193 0.000515738 0)
(0.999155 0.000650147 0)
(0.999122 0.000773979 0)
(0.999081 0.000888106 0)
(0.999052 0.000984925 0)
(0.999028 0.00106865 0)
(0.999027 0.0011273 0)
(0.999052 0.00117116 0)
(0.999114 0.00118467 0)
(0.99923 0.00118405 0)
(0.999398 0.00116086 0)
(0.999639 0.00112905 0)
(0.999941 0.00111393 0)
(0.999245 9.98038e-05 0)
(0.99945 0.000282107 0)
(0.999419 0.000457046 0)
(0.999386 0.000629504 0)
(0.999334 0.000797389 0)
(0.999284 0.0009559 0)
(0.999222 0.00110523 0)
(0.999169 0.00123796 0)
(0.999117 0.00135747 0)
(0.999087 0.00145042 0)
(0.999081 0.00152708 0)
(0.999114 0.00156671 0)
(0.99921 0.00158794 0)
(0.999371 0.00157162 0)
(0.999636 0.00153784 0)
(0.999998 0.00150395 0)
(0.999458 0.000121009 0)
(0.99972 0.000332545 0)
(0.999681 0.000540015 0)
(0.999639 0.000746722 0)
(0.999574 0.000950407 0)
(0.999506 0.00114716 0)
(0.999422 0.00133656 0)
(0.999343 0.00151213 0)
(0.99926 0.00167636 0)
(0.999195 0.00181569 0)
(0.999151 0.00194048 0)
(0.999146 0.00202577 0)
(0.999205 0.00209347 0)
(0.999341 0.00211207 0)
(0.999612 0.0021081 0)
(1.00003 0.00207933 0)
(0.999729 0.000142605 0)
(1.00005 0.000380817 0)
(1.00001 0.000619787 0)
(0.999955 0.000860305 0)
(0.999877 0.0011001 0)
(0.999794 0.00133665 0)
(0.999689 0.001569 0)
(0.999585 0.00179247 0)
(0.999471 0.00200865 0)
(0.999371 0.00220532 0)
(0.999284 0.00239313 0)
(0.999236 0.00254557 0)
(0.999249 0.00269022 0)
(0.999345 0.00278616 0)
(0.999595 0.00287549 0)
(1.00004 0.00292928 0)
(1.00006 0.000163258 0)
(1.00044 0.00042304 0)
(1.00039 0.00068997 0)
(1.00033 0.000961213 0)
(1.00025 0.00123462 0)
(1.00015 0.00150949 0)
(1.00003 0.00178433 0)
(0.999901 0.00205698 0)
(0.999758 0.00232777 0)
(0.999625 0.00258707 0)
(0.999497 0.00284476 0)
(0.999405 0.0030746 0)
(0.99937 0.0033085 0)
(0.999419 0.00349758 0)
(0.999628 0.00370209 0)
(1.00004 0.00386462 0)
(1.00045 0.000181305 0)
(1.00088 0.000454808 0)
(1.00083 0.000743279 0)
(1.00077 0.00103907 0)
(1.00068 0.00134028 0)
(1.00057 0.00164829 0)
(1.00043 0.00196108 0)
(1.00029 0.00227949 0)
(1.00012 0.00260197 0)
(0.99996 0.00292248 0)
(0.999792 0.00324783 0)
(0.999653 0.00355303 0)
(0.999562 0.00386872 0)
(0.999549 0.0041365 0)
(0.99969 0.00442326 0)
(1.00002 0.00463892 0)
(1.00089 0.000194861 0)
(1.00136 0.000471536 0)
(1.00131 0.000772107 0)
(1.00125 0.00108298 0)
(1.00116 0.00140261 0)
(1.00105 0.00173461 0)
(1.0009 0.00207645 0)
(1.00075 0.00243237 0)
(1.00056 0.0027985 0)
(1.00037 0.00317343 0)
(1.00016 0.0035591 0)
(0.999976 0.00393407 0)
(0.999815 0.00432356 0)
(0.99972 0.00466323 0)
(0.999756 0.00502238 0)
(0.999953 0.00528404 0)
(1.00138 0.000201963 0)
(1.00187 0.000468875 0)
(1.00182 0.000769205 0)
(1.00176 0.00108248 0)
(1.00167 0.00140761 0)
(1.00156 0.0017504 0)
(1.00142 0.00210793 0)
(1.00126 0.00248807 0)
(1.00106 0.0028844 0)
(1.00085 0.00330129 0)
(1.0006 0.00373429 0)
(1.00036 0.00416847 0)
(1.00012 0.00461957 0)
(0.999929 0.00502255 0)
(0.999831 0.00544314 0)
(0.999859 0.00574329 0)
(1.00188 0.000200756 0)
(1.00238 0.000443206 0)
(1.00234 0.000728489 0)
(1.00228 0.00102866 0)
(1.0022 0.00134315 0)
(1.0021 0.00167977 0)
(1.00196 0.00203534 0)
(1.0018 0.00242144 0)
(1.0016 0.00282925 0)
(1.00137 0.00327003 0)
(1.0011 0.00373226 0)
(1.00081 0.00421121 0)
(1.00048 0.00470978 0)
(1.00017 0.00516915 0)
(0.999908 0.00564424 0)
(0.999727 0.00597991 0)
(1.00239 0.000189693 0)
(1.00286 0.00039218 0)
(1.00283 0.000645918 0)
(1.00278 0.00091541 0)
(1.00271 0.00120057 0)
(1.00262 0.00151077 0)
(1.0025 0.00184277 0)
(1.00235 0.00221162 0)
(1.00215 0.00260651 0)
(1.00192 0.0030464 0)
(1.00162 0.00351284 0)
(1.00129 0.00401532 0)
(1.00088 0.00454173 0)
(1.00044 0.0050491 0)
(0.999993 0.00557509 0)
(0.99956 0.00595619 0)
(1.00287 0.000167777 0)
(1.00329 0.000315201 0)
(1.00327 0.000520306 0)
(1.00323 0.000740547 0)
(1.00318 0.000976173 0)
(1.0031 0.00123741 0)
(1.003 0.00152102 0)
(1.00287 0.00184476 0)
(1.00269 0.00219645 0)
(1.00246 0.00260267 0)
(1.00215 0.00303888 0)
(1.00179 0.00353202 0)
(1.00131 0.00405313 0)
(1.00075 0.00458566 0)
(1.00009 0.00514208 0)
(0.999371 0.00556585 0)
(1.0033 0.000134764 0)
(1.00365 0.000213864 0)
(1.00363 0.000354092 0)
(1.00361 0.000507062 0)
(1.00356 0.000673046 0)
(1.00351 0.000862082 0)
(1.00343 0.00107076 0)
(1.00332 0.00131817 0)
(1.00316 0.00159112 0)
(1.00295 0.00192252 0)
(1.00265 0.00228312 0)
(1.00227 0.00271917 0)
(1.00173 0.00318452 0)
(1.00107 0.00370258 0)
(1.0002 0.00425246 0)
(0.999143 0.00469938 0)
(1.00365 9.13474e-05 0)
(1.00388 9.30946e-05 0)
(1.00387 0.000155235 0)
(1.00386 0.000225855 0)
(1.00383 0.000304789 0)
(1.00379 0.000400669 0)
(1.00373 0.000509459 0)
(1.00364 0.000649519 0)
(1.00351 0.000806576 0)
(1.00332 0.0010166 0)
(1.00304 0.00124716 0)
(1.00267 0.00156188 0)
(1.00211 0.00190077 0)
(1.00138 0.00234542 0)
(1.00034 0.00283361 0)
(0.998942 0.00328203 0)
(1.00389 3.96395e-05 0)
(1.00403 -3.72001e-05 0)
(1.00402 -6.02207e-05 0)
(1.00401 -8.1e-05 0)
(1.004 -0.000100542 0)
(1.00397 -0.000112794 0)
(1.00393 -0.000122855 0)
(1.00386 -0.000115552 0)
(1.00375 -0.000106633 0)
(1.00358 -6.29164e-05 0)
(1.00333 -2.12724e-05 0)
(1.00297 8.31495e-05 0)
(1.00243 0.000171545 0)
(1.00168 0.000366753 0)
(1.00048 0.000520173 0)
(0.998724 0.000674924 0)
(1.00403 -1.61128e-05 0)
(1.00397 -0.000171326 0)
(1.00396 -0.000282687 0)
(1.00396 -0.000399837 0)
(1.00394 -0.000524936 0)
(1.00391 -0.000655469 0)
(1.00387 -0.000798569 0)
(1.0038 -0.000944472 0)
(1.00369 -0.00111123 0)
(1.00352 -0.00127326 0)
(1.00326 -0.00147352 0)
(1.00287 -0.00166291 0)
(1.00228 -0.00194 0)
(1.00144 -0.0021917 0)
(1.00006 -0.00263781 0)
(0.998111 -0.00298371 0)
(1.00397 -7.34658e-05 0)
(1.00362 -0.000310538 0)
(1.0036 -0.00051275 0)
(1.00358 -0.000728321 0)
(1.00354 -0.000961323 0)
(1.00349 -0.00121291 0)
(1.00342 -0.00149463 0)
(1.00331 -0.00180271 0)
(1.00316 -0.00215987 0)
(1.00294 -0.00254747 0)
(1.00262 -0.00301397 0)
(1.00213 -0.0035106 0)
(1.00144 -0.00413293 0)
(1.00044 -0.00474758 0)
(0.999036 -0.00554361 0)
(0.997253 -0.00604794 0)
(1.00362 -0.000132967 0)
(1.003 -0.00044661 0)
(1.00296 -0.00073617 0)
(1.00291 -0.00104436 0)
(1.00283 -0.00137681 0)
(1.00274 -0.00173827 0)
(1.00261 -0.00214483 0)
(1.00244 -0.00259766 0)
(1.00221 -0.00312218 0)
(1.00189 -0.00370621 0)
(1.00147 -0.00439842 0)
(1.00089 -0.00514013 0)
(1.00013 -0.00600421 0)
(0.999118 -0.00681549 0)
(0.997918 -0.00770616 0)
(0.996556 -0.00817293 0)
(1.00301 -0.000191152 0)
(1.00211 -0.000571453 0)
(1.00205 -0.000939842 0)
(1.00197 -0.00132921 0)
(1.00185 -0.00174496 0)
(1.0017 -0.00219458 0)
(1.00149 -0.00269698 0)
(1.00123 -0.00325506 0)
(1.0009 -0.00389066 0)
(1.00047 -0.00459609 0)
(0.999941 -0.00541457 0)
(0.999282 -0.00628598 0)
(0.998535 -0.00725719 0)
(0.997651 -0.0081415 0)
(0.996809 -0.00902671 0)
(0.995986 -0.00946363 0)
(1.00213 -0.000244594 0)
(1.00099 -0.000676511 0)
(1.00091 -0.00111082 0)
(1.0008 -0.00156624 0)
(1.00064 -0.00204502 0)
(1.00042 -0.00255519 0)
(1.00014 -0.00311608 0)
(0.999786 -0.00372996 0)
(0.999359 -0.00441005 0)
(0.99883 -0.00514842 0)
(0.998216 -0.00597531 0)
(0.997523 -0.00684461 0)
(0.996835 -0.00778625 0)
(0.996162 -0.00863946 0)
(0.995735 -0.00945818 0)
(0.995494 -0.00990299 0)
(1.00102 -0.000289597 0)
(0.999686 -0.000750834 0)
(0.999589 -0.00123239 0)
(0.999456 -0.00173496 0)
(0.99926 -0.00225625 0)
(0.998995 -0.00280133 0)
(0.998648 -0.00338464 0)
(0.998229 -0.00400818 0)
(0.99774 -0.00468136 0)
(0.997154 -0.00539432 0)
(0.996494 -0.00614278 0)
(0.995803 -0.00689295 0)
(0.995201 -0.00766767 0)
(0.994761 -0.00836207 0)
(0.994717 -0.00901178 0)
(0.995007 -0.00947038 0)
(0.999714 -0.00032138 0)
(0.998263 -0.000786638 0)
(0.99815 -0.00129129 0)
(0.998 -0.0018183 0)
(0.997785 -0.00236637 0)
(0.997492 -0.00293702 0)
(0.997104 -0.00352684 0)
(0.996638 -0.00412951 0)
(0.996105 -0.00476471 0)
(0.995502 -0.00542861 0)
(0.994862 -0.00606373 0)
(0.994254 -0.00661839 0)
(0.993806 -0.00710525 0)
(0.993653 -0.00752525 0)
(0.993866 -0.00788762 0)
(0.994474 -0.00828404 0)
(0.998296 -0.000336574 0)
(0.996787 -0.0007969 0)
(0.996652 -0.00130597 0)
(0.996472 -0.00183602 0)
(0.996221 -0.00239662 0)
(0.995893 -0.00299106 0)
(0.99548 -0.00358834 0)
(0.994991 -0.00414915 0)
(0.994443 -0.00469629 0)
(0.993902 -0.00522077 0)
(0.99352 -0.00569558 0)
(0.993282 -0.00607252 0)
(0.993194 -0.00633127 0)
(0.99329 -0.0065457 0)
(0.993573 -0.00669957 0)
(0.994101 -0.00694074 0)
(0.996827 -0.000340834 0)
(0.995183 -0.000808944 0)
(0.995029 -0.00131814 0)
(0.994811 -0.00183175 0)
(0.994513 -0.00236126 0)
(0.994173 -0.00289918 0)
(0.993874 -0.00343377 0)
(0.993588 -0.003921 0)
(0.993304 -0.0043543 0)
(0.993086 -0.00468865 0)
(0.992988 -0.00498013 0)
(0.992977 -0.00527129 0)
(0.993049 -0.00551719 0)
(0.993207 -0.00572106 0)
(0.9935 -0.00587908 0)
(0.993934 -0.00602774 0)
(0.995233 -0.000346204 0)
(0.993782 -0.000786038 0)
(0.993685 -0.00127504 0)
(0.993551 -0.00175088 0)
(0.993376 -0.00220748 0)
(0.993201 -0.00260628 0)
(0.993066 -0.00298752 0)
(0.992954 -0.00337739 0)
(0.992863 -0.00374882 0)
(0.992799 -0.00408002 0)
(0.992727 -0.00435998 0)
(0.992712 -0.00461151 0)
(0.992798 -0.00482368 0)
(0.992998 -0.00501079 0)
(0.993324 -0.00516545 0)
(0.99379 -0.005319 0)
(0.993816 -0.000336643 0)
(0.993036 -0.000673727 0)
(0.992993 -0.00109365 0)
(0.99294 -0.00150964 0)
(0.992876 -0.00191313 0)
(0.992803 -0.00229204 0)
(0.992688 -0.0026464 0)
(0.992566 -0.00298249 0)
(0.992467 -0.00329208 0)
(0.992418 -0.00357777 0)
(0.992417 -0.00382704 0)
(0.992481 -0.00404249 0)
(0.99262 -0.0042216 0)
(0.992844 -0.00438659 0)
(0.993164 -0.00453007 0)
(0.993587 -0.00468966 0)
(0.993051 -0.000288892 0)
(0.992546 -0.000593254 0)
(0.9925 -0.000959853 0)
(0.992442 -0.0013221 0)
(0.992371 -0.00167324 0)
(0.992302 -0.00201152 0)
(0.992235 -0.00233005 0)
(0.992182 -0.00262339 0)
(0.992151 -0.00288659 0)
(0.992155 -0.00312549 0)
(0.992192 -0.00333522 0)
(0.992282 -0.00352446 0)
(0.992438 -0.00368796 0)
(0.992671 -0.00384493 0)
(0.992981 -0.00398648 0)
(0.993376 -0.00414707 0)
(0.992562 -0.000254493 0)
(0.992075 -0.000522235 0)
(0.992051 -0.000844192 0)
(0.992021 -0.00116118 0)
(0.991987 -0.00146605 0)
(0.991952 -0.0017564 0)
(0.991915 -0.00202822 0)
(0.991889 -0.00228093 0)
(0.991885 -0.00251 0)
(0.991915 -0.00272095 0)
(0.991983 -0.00290745 0)
(0.992102 -0.00307748 0)
(0.992272 -0.00322639 0)
(0.992506 -0.00337397 0)
(0.992798 -0.00351097 0)
(0.993155 -0.00367006 0)
(0.992084 -0.000224039 0)
(0.991709 -0.000452289 0)
(0.991693 -0.000731151 0)
(0.991674 -0.00100625 0)
(0.991654 -0.0012716 0)
(0.991637 -0.00152561 0)
(0.991628 -0.00176335 0)