/*--------------------------------*- C++ -*----------------------------------*\
| =========                 |                                                 |
| \\      /  F ield         | foam-extend: Open Source CFD                    |
|  \\    /   O peration     | Version:     4.1-20200408                       |
|   \\  /    A nd           | Web:         http://www.foam-extend.org         |
|    \\/     M anipulation  |                                                 |
\*---------------------------------------------------------------------------*/
FoamFile
{
    version     2.0;
    format      ascii;
    class       regIOobject;
    location    "0.0100000/uniform";
    object      profilingInfo;
}
// * * * * * * * * * * * * * * * * * * * * * * * * * * * * * * * * * * * * * //

profilingInfo
(

    {
        id              10;
        parentId        9;
        description     "Foam::Time::writeObject - outputTime";
        calls           695;
        totalTime       88.8002;
        childTime       0;
        onStack         1;
    }

    {
        id              9;
        parentId        1;
        description     "Foam::Time::writeObject";
        calls           695;
        totalTime       88.8025;
        childTime       88.8002;
        onStack         1;
    }

    {
        id              1;
        description     "application::main";
        calls           1;
        totalTime       2720.14;
        childTime       142.26;
        onStack         1;
    }

    {
        id              8;
        parentId        1;
        description     "FO::drawingForce::execute";
        calls           694;
        totalTime       0.10637;
        childTime       0;
        onStack         0;
    }

    {
        id              3;
        parentId        2;
        description     "FO::drawingForce::start";
        calls           1;
        totalTime       4.3e-05;
        childTime       0;
        onStack         0;
    }

    {
        id              2;
        parentId        1;
        description     "functionObjectList::read";
        calls           1;
        totalTime       0.000281;
        childTime       4.3e-05;
        onStack         0;
    }

    {
        id              4;
        parentId        1;
        description     "fvMatrix::solve_DU";
        calls           31710;
        totalTime       53.3508;
        childTime       43.313;
        onStack         0;
    }

    {
        id              5;
        parentId        4;
        description     "lduMatrix::solver_DUx";
        calls           31710;
        totalTime       28.3504;
        childTime       0;
        onStack         0;
    }

    {
        id              6;
        parentId        4;
        description     "lduMatrix::solver_DUy";
        calls           31710;
        totalTime       10.339;
        childTime       0;
        onStack         0;
    }

    {
        id              7;
        parentId        4;
        description     "lduMatrix::solver_DUz";
        calls           31710;
        totalTime       4.62355;
        childTime       0;
        onStack         0;
    }
);


// ************************************************************************* //
