/*--------------------------------*- C++ -*----------------------------------*\
  =========                 |
  \\      /  F ield         | OpenFOAM: The Open Source CFD Toolbox
   \\    /   O peration     | Website:  https://openfoam.org
    \\  /    A nd           | Version:  8
     \\/     M anipulation  |
\*---------------------------------------------------------------------------*/
FoamFile
{
    version     2.0;
    format      ascii;
    class       surfaceScalarField;
    location    "0.0655000";
    object      meshPhi;
}
// * * * * * * * * * * * * * * * * * * * * * * * * * * * * * * * * * * * * * //

dimensions      [0 3 -1 0 0 0 0];

internalField   nonuniform List<scalar> 
1691
(
-5.60778241114268e-19
-5.2555506736082e-14
-1.12517735148082e-18
-5.25609286996649e-14
-1.69084722806973e-18
-5.25669456238249e-14
-2.24364938586019e-18
-5.25020889374942e-14
-2.79911523298493e-18
-5.24110600459796e-14
-3.37631926964097e-18
-5.24145650135553e-14
-3.96347403981503e-18
-5.24787192563941e-14
-4.5003850231803e-18
-5.24398279304594e-14
-5.03862601595997e-18
-5.23071439304669e-14
-5.61682436867877e-18
-5.22521844025283e-14
-6.21728861819425e-18
-5.23139512231509e-14
-6.80273109670572e-18
-5.23805334933101e-14
-7.35954464857116e-18
-5.23695721713708e-14
-7.92983547435106e-18
-5.2373440921402e-14
-8.64318975812016e-18
-5.25265643325977e-14
-9.24906502901876e-18
-5.27042165435916e-14
-9.82459434692725e-18
-5.27462796371323e-14
-1.0399761883459e-17
-5.26846603694223e-14
-1.08810127195862e-17
-5.25440519682559e-14
-1.14214206773602e-17
-5.23941593850751e-14
-1.20494307789214e-17
-5.23797332014672e-14
-1.27589261333586e-17
-5.25280695324483e-14
-1.34547850409616e-17
-5.26970687078708e-14
-1.39629249013495e-17
-5.27108118704999e-14
-1.45142744644152e-17
-5.26359077587724e-14
-1.52536961913844e-17
-5.26960801150178e-14
-1.59988640469914e-17
-5.28906769779955e-14
-1.66714337267332e-17
-5.30375082211974e-14
-1.72047924426498e-17
-5.30100790551243e-14
-1.76262970804441e-17
-5.28415789147886e-14
-1.82663469571946e-17
-5.27516989303631e-14
-1.91272260533157e-17
-5.29229980081697e-14
-2.01123455285806e-17
-5.33175891391367e-14
-2.10222427186972e-17
-5.36438016753615e-14
-2.12601370628094e-17
-5.36213144984935e-14
-2.19731032975284e-17
-5.35151126279763e-14
-2.30153323531142e-17
-5.37417278864562e-14
-2.4002395780476e-17
-5.40859467007847e-14
-2.44076075852673e-17
-5.41985882428004e-14
-2.54032369346659e-17
-5.43121171872509e-14
-2.65062669078808e-17
-5.46198693120551e-14
-2.72274103131271e-17
-5.49264270632425e-14
-2.85593960501991e-17
-5.53400681851764e-14
-3.02425246622548e-17
-5.61222115231495e-14
-3.21519022746061e-17
-5.71732096820428e-14
-3.40235080184516e-17
-5.82668987773715e-14
-3.58721781523707e-17
-5.93394488791396e-14
-3.83468274944426e-17
-6.0710851214386e-14
-4.25557060952944e-17
-6.30671246759347e-14
-4.76110736887371e-17
-6.59262174872182e-14
-4.8231173560265e-17
-6.77217547048803e-14
-5.15718159828553e-17
-6.90695397064779e-14
-5.68157932456723e-17
-7.1303527944981e-14
-5.92674835292175e-17
-7.37407139807117e-14
-6.56371472534884e-17
-7.67435299407425e-14
-7.48739402348076e-17
-8.17879754579901e-14
-8.4876517075811e-17
-8.77668120061286e-14
-9.03309060627037e-17
-9.29035810685498e-14
-1.02590986048364e-16
-9.9004973169597e-14
-1.2243742205759e-16
-1.095901933616e-13
-1.49692267818437e-16
-1.24589765296783e-13
-1.75685906538129e-16
-1.42666652297854e-13
-2.22428295258765e-16
-1.67088388971182e-13
-2.82817054464361e-16
-2.01127221832142e-13
-3.48038056815785e-16
-2.3929897093012e-13
-3.94816346637099e-16
-2.7490494890943e-13
-4.68482958858524e-16
-3.1208656901481e-13
-5.45907332290617e-16
-3.5512228427712e-13
-6.20233985004168e-16
-3.98667516754151e-13
-6.91120971320278e-16
-4.40431447854757e-13
-7.82952030139296e-16
-4.84904162893851e-13
-8.62805866980064e-16
-5.27699857949778e-13
-9.06972254266619e-16
-5.62116323723713e-13
-1.00452589163582e-15
-5.98256335989854e-13
-1.09372870153073e-15
-6.40682400502816e-13
-1.1548470800269e-15
-6.77908955457026e-13
-1.22858155761384e-15
-7.08445882575341e-13
-1.28699446128197e-15
-7.35220680553308e-13
-1.33590964806085e-15
-7.61599002535634e-13
-1.46275891078413e-15
-7.94178300030314e-13
-1.47210293991531e-15
-8.18246802805351e-13
-1.49435475488166e-15
-8.23044194267422e-13
-1.50712801337239e-15
-8.24605126712541e-13
-1.5794500099996e-15
-8.3410924799422e-13
-1.59149375327458e-15
-8.43471762246866e-13
-1.59802092901258e-15
-8.49986440186651e-13
-1.54811027887889e-15
-8.6384590673115e-13
-1.42470922882141e-15
-8.76714269494219e-13
-1.30390265744815e-15
-8.79832198176578e-13
-1.19202009521407e-15
-8.8220561883314e-13
-1.08713919438763e-15
-8.87789290547572e-13
-9.60541054128993e-16
-8.90441150028919e-13
-8.37577244519253e-16
-8.89915905998123e-13
-7.27502975841368e-16
-8.9198543849428e-13
-6.01782386064995e-16
-8.92762261361571e-13
-4.77477360501161e-16
-8.88812076658761e-13
-3.57955476260303e-16
-8.87382963435458e-13
-2.43583909343485e-16
-8.93877989499442e-13
-1.22369452616184e-16
-9.01461170029347e-13
-9.0302509670036e-13
-1.70067719038112e-18
-1.06343070342323e-13
-3.40076341663468e-18
-1.06261026198834e-13
-5.09754190225808e-18
-1.06180608479412e-13
-6.7841789252857e-18
-1.06038725126724e-13
-8.46892696234581e-18
-1.05873770174566e-13
-1.01669468189769e-17
-1.05793093539546e-13
-1.18629182156565e-17
-1.0576677842062e-13
-1.35296598162487e-17
-1.0564793413656e-13
-1.51884203702276e-17
-1.05445139953432e-13
-1.68728441101008e-17
-1.05312673769917e-13
-1.85725721670478e-17
-1.05284024977671e-13
-2.0259381590552e-17
-1.05259094352962e-13
-2.19214555212061e-17
-1.05165147635353e-13
-2.36141164773594e-17
-1.05083905183973e-13
-2.53617004547685e-17
-1.05136305666863e-13
-2.7075713204077e-17
-1.05210486377244e-13
-2.87430914387435e-17
-1.05163194504779e-13
-3.03847021350562e-17
-1.05024826295194e-13
-3.19839624100174e-17
-1.04815942463646e-13
-3.36050383092457e-17
-1.04598508924367e-13
-3.53027218424109e-17
-1.04501879175162e-13
-3.70604233787722e-17
-1.04549723797867e-13
-3.87835881257767e-17
-1.0461639514588e-13
-4.04019850235043e-17
-1.04544463980685e-13
-4.20369891182916e-17
-1.04392876298149e-13
-4.37878164320021e-17
-1.04362122802001e-13
-4.55671938994348e-17
-1.0445137352408e-13
-4.72752986277321e-17
-1.04498144331176e-13
-4.88609903986494e-17
-1.04389967256887e-13
-5.03954414707159e-17
-1.04155403037712e-13
-5.20644096418964e-17
-1.03990866976882e-13
-5.39228573529791e-17
-1.04059119172175e-13
-5.58948827822815e-17
-1.04325371957944e-13
-5.76858373541327e-17
-1.04532621717684e-13
-5.91894683554272e-17
-1.04426767990165e-13
-6.08603501182578e-17
-1.04245424508065e-13
-6.28493514007171e-17
-1.04363811385238e-13
-6.47082802274601e-17
-1.04587189530705e-13
-6.63559456026153e-17
-1.04600564638264e-13
-6.82278113096069e-17
-1.04615120467254e-13
-7.02020290239498e-17
-1.04806402572711e-13
-7.20862886836633e-17
-1.04991150938893e-13
-7.42702095799406e-17
-1.05270321549291e-13
-7.68368212562904e-17
-1.05878815981019e-13
-7.95608127586606e-17
-1.06723923643779e-13
-8.22852502339384e-17
-1.07606214706852e-13
-8.50516236767126e-17
-1.08466483254625e-13
-8.84316662514313e-17
-1.09583457414015e-13
-9.32482778293341e-17
-1.11574191955016e-13
-9.78323876636836e-17
-1.14035690819338e-13
-1.00662534121916e-16
-1.15531028902778e-13
-1.04461256751265e-16
-1.16611607007763e-13
-1.0932020742374e-16
-1.1851315487875e-13
-1.13688883866445e-16
-1.20565689135191e-13
-1.19991170159365e-16
-1.2310255882185e-13
-1.29226554532537e-16
-1.27476096175058e-13
-1.38055165088563e-16
-1.32689376678554e-13
-1.45733187745503e-16
-1.37098564021386e-13
-1.57256765876903e-16
-1.42329175593316e-13
-1.76278582867664e-16
-1.51553858444195e-13
-1.99428403188318e-16
-1.64683927109275e-13
-2.27182797331817e-16
-1.80434565655572e-13
-2.67834134906107e-16
-2.01756087646119e-13
-3.2233882935386e-16
-2.31641968713263e-13
-3.76434565925464e-16
-2.65202383072534e-13
-4.26980715543331e-16
-2.96339088409828e-13
-4.88224787219466e-16
-3.28829016849821e-13
-5.578592848973e-16
-3.66587325497898e-13
-6.23795559956107e-16
-4.04725457932737e-13
-6.9187049494178e-16
-4.41222219504076e-13
-7.68930882686671e-16
-4.80111097211378e-13
-8.35673907378942e-16
-5.17558806806461e-13
-8.91618650104507e-16
-5.47604639731962e-13
-9.6624088514258e-16
-5.7904958352862e-13
-1.04373195373791e-15
-6.15928423176926e-13
-1.10603251680975e-15
-6.48370208342496e-13
-1.16590647077202e-15
-6.74904807885125e-13
-1.21880575238619e-15
-6.98093299968814e-13
-1.28013799195849e-15
-7.2121792413776e-13
-1.3532902344186e-15
-7.48751069969781e-13
-1.38993293397952e-15
-7.69174606362334e-13
-1.40353571183574e-15
-7.73697129317049e-13
-1.4295259208343e-15
-7.75101617283895e-13
-1.46828016299365e-15
-7.82521913494747e-13
-1.49468623696318e-15
-7.89991365182526e-13
-1.51075665584475e-15
-7.96194987237761e-13
-1.4315047794645e-15
-8.07332503095006e-13
-1.33158321281936e-15
-8.17870149779025e-13
-1.22080536774565e-15
-8.21394970993363e-13
-1.11577043348413e-15
-8.23711019729961e-13
-1.01067626778447e-15
-8.28206530261902e-13
-8.97810696631911e-16
-8.30532103521876e-13
-7.85701543449168e-16
-8.30642634151949e-13
-6.76193325902379e-16
-8.32195118181651e-13
-5.62026941557245e-16
-8.32663147984729e-13
-4.472193477306e-16
-8.29762337804698e-13
-3.36397796739206e-16
-8.29101591034961e-13
-2.26679177713471e-16
-8.34369668377945e-13
-1.13908952942787e-16
-8.40401937625374e-13
-8.42354757560034e-13
-2.86951573177323e-18
-1.61545754617805e-13
-5.73425375518172e-18
-1.61358214436318e-13
-8.59198609240676e-18
-1.6117673734448e-13
-1.14366871825323e-17
-1.60943634682141e-13
-1.42756175334917e-17
-1.60690704612474e-13
-1.7122064247696e-17
-1.60510722800447e-13
-1.99626559398206e-17
-1.60377848232009e-13
-2.27732213752683e-17
-1.60164860934331e-13
-2.55727664862978e-17
-1.59879144642001e-13
-2.83908248786874e-17
-1.59654370119264e-13
-3.12181028863162e-17
-1.5951954697151e-13
-3.40298843653298e-17
-1.59387997043712e-13
-3.68158386904441e-17
-1.59196810090442e-13
-3.96243684695665e-17
-1.59016710973438e-13
-4.24774064414981e-17
-1.58952172956674e-13
-4.52964228168763e-17
-1.58906537878111e-13
-4.80705249509853e-17
-1.58755895152914e-13
-5.08180351584949e-17
-1.58526243502098e-13
-5.35239367157776e-17
-1.58235515498203e-13
-5.62450752803446e-17
-1.57937463571589e-13
-5.902927722598e-17
-1.57743954187399e-13
-6.18620200888685e-17
-1.57675474553546e-13
-6.46605851534955e-17
-1.57623319215303e-13
-6.73626053075721e-17
-1.57451464406968e-13
-7.00751345181355e-17
-1.57210797191953e-13
-7.28853923338715e-17
-1.57074402345875e-13
-7.57166245746863e-17
-1.57041741426311e-13
-7.84812357941151e-17
-1.56972515015635e-13
-8.11342732501031e-17
-1.56769364665073e-13
-8.37376140305204e-17
-1.56456927674713e-13
-8.6455517046337e-17
-1.56204989902243e-13
-8.93353002940576e-17
-1.56154311171541e-13
-9.23105690917701e-17
-1.56274822755686e-13
-9.51242557443466e-17
-1.56344443706019e-13
-9.76782342409677e-17
-1.56143762566814e-13
-1.00377425660258e-16
-1.55877731528787e-13
-1.03351501094037e-16
-1.55870271662319e-13
-1.06207993432907e-16
-1.55953701182739e-13
-1.0887139560541e-16
-1.55856169104824e-13
-1.1173121002819e-16
-1.55759562897329e-13
-1.14675788082211e-16
-1.55815151018423e-13
-1.17534188891667e-16
-1.5586591362031e-13
-1.20653890729471e-16
-1.55998460583368e-13
-1.24103258671126e-16
-1.56414686686786e-13
-1.27686192120909e-16
-1.57035372415018e-13
-1.3126500295515e-16
-1.57688360144999e-13
-1.34873507907245e-16
-1.58322422350596e-13
-1.39009390272063e-16
-1.59177964440165e-13
-1.44404157591252e-16
-1.60786916002987e-13
-1.49611426350738e-16
-1.62801608168427e-13
-1.53235150405895e-16
-1.63983872621115e-13
-1.57727215459855e-16
-1.64808365109945e-13
-1.63155124395091e-16
-1.66339657728237e-13
-1.68104939589421e-16
-1.68001558241283e-13
-1.74766947422853e-16
-1.70080644109305e-13
-1.83995010051857e-16
-1.73741520991964e-13
-1.92873855367752e-16
-1.78127149340031e-13
-2.00661594350005e-16
-1.81821134746002e-13
-2.11842680201911e-16
-1.86220017967703e-13
-2.29560153200541e-16
-1.94055725628402e-13
-2.5088886025494e-16
-2.05254613359176e-13
-2.76087648575481e-16
-2.18707756196012e-13
-3.12623066013482e-16
-2.36947722163024e-13
-3.61238372167928e-16
-2.62553631823274e-13
-4.0953270504372e-16
-2.91325291570844e-13
-4.54453562383564e-16
-3.18005949358933e-13
-5.08885043219715e-16
-3.4582946593842e-13
-5.70558454465341e-16
-3.78171145430842e-13
-6.28957347583903e-16
-4.10833966576895e-13
-6.89119576621358e-16
-4.42065026484146e-13
-7.5717341705317e-16
-4.75335830254297e-13
-8.16212592151916e-16
-5.07368696153526e-13
-8.65785871436696e-16
-5.3301305460548e-13
-9.31398404601965e-16
-5.59808071404064e-13
-9.99530285605419e-16
-5.91262453553538e-13
-1.05463336734924e-15
-6.18916802246104e-13
-1.10734959386616e-15
-6.41480785366062e-13
-1.15412840852236e-15
-6.61132508135423e-13
-1.2084842145633e-15
-6.80683026694524e-13
-1.27107141985054e-15
-7.04012594013358e-13
-1.30461598232289e-15
-7.21268126587207e-13
-1.31715038963639e-15
-7.24865145008412e-13
-1.34087138723514e-15
-7.25734595766281e-13
-1.37349542188568e-15
-7.31749187343455e-13
-1.39782057384922e-15
-7.37783097511128e-13
-1.4117557052336e-15
-7.42697969168474e-13
-1.33350581186969e-15
-7.52061980555524e-13
-1.24056920020527e-15
-7.61001897028814e-13
-1.13773516975128e-15
-7.64016304127579e-13
-1.03941369260581e-15
-7.65997645864656e-13
-9.40689646538266e-16
-7.69862489699478e-13
-8.36089249538856e-16
-7.71905364470417e-13
-7.31868934024187e-16
-7.72037903083703e-13
-6.29335363545077e-16
-7.73384051924528e-13
-5.23365316463334e-16
-7.7383960281646e-13
-4.16795604222363e-16
-7.71449551062867e-13
-3.13555626750286e-16
-7.70926137520159e-13
-2.10949191315717e-16
-7.75437394482329e-13
-1.05981887619516e-16
-7.80623382224114e-13
-7.82309853938572e-13
-4.06820815772977e-18
-2.18130515798324e-13
-8.12683783424364e-18
-2.17820843233027e-13
-1.21741634317734e-17
-2.1752480816961e-13
-1.62049993306323e-17
-2.17186577719327e-13
-2.02255160352149e-17
-2.16831658189779e-13
-2.42470888128355e-17
-2.16538123642181e-13
-2.82583207790387e-17
-2.16284431018674e-13
-3.22385132581483e-17
-2.15963405520037e-13
-3.62038892803235e-17
-2.15580999992608e-13
-4.01797388418172e-17
-2.15249802424455e-13
-4.41581352907413e-17
-2.14994441451571e-13
-4.81179398675172e-17
-2.14741998543239e-13
-5.20503519646889e-17
-2.14439439502856e-13
-5.59966748382867e-17
-2.14146169773968e-13
-5.99756421272643e-17
-2.13950078317906e-13
-6.39202976372575e-17
-2.13770098912374e-13
-6.78212030371728e-17
-2.13501932251114e-13
-7.1693948469253e-17
-2.13167139131318e-13
-7.55258326682879e-17
-2.12780885645135e-13
-7.93653311294576e-17
-2.12388419612081e-13
-8.32533546782873e-17
-2.1208382697056e-13
-8.71775241907773e-17
-2.11884488928939e-13
-9.10672113252037e-17
-2.11699078300981e-13
-9.48692540505208e-17
-2.11413224909757e-13
-9.86747952930545e-17
-2.11069451847464e-13
-1.02558269365319e-16
-2.10813083720994e-13
-1.06454459457665e-16
-2.10643982416458e-13
-1.10288537017141e-16
-2.10444421530839e-13
-1.1402202283667e-16
-2.10132391770897e-13
-1.17707680413629e-16
-2.09728390857388e-13
-1.21485666470187e-16
-2.09375028791666e-13
-1.25396523056024e-16
-2.09190780352753e-13
-1.29383588972151e-16
-2.09150582453073e-13
-1.33227685534347e-16
-2.09067952773446e-13
-1.36845046259795e-16
-2.08758463952018e-13
-1.40580445332158e-16
-2.08393736989456e-13
-1.44544852185549e-16
-2.0824583544032e-13
-1.48404166740816e-16
-2.08174629753572e-13
-1.5209364982279e-16
-2.07951845680299e-13
-1.55944879736806e-16
-2.07729648417193e-13
-1.59862813913074e-16
-2.07634949527614e-13
-1.63703432272219e-16
-2.0753679490533e-13
-1.67760226251961e-16
-2.07507337643598e-13
-1.72092884689284e-16
-2.07715517093643e-13
-1.76534278984534e-16
-2.08095590869784e-13
-1.8096707454677e-16
-2.08503038535315e-13
-1.8541974985566e-16
-2.08894635394493e-13
-1.90316116846373e-16
-2.0947172817643e-13
-1.96278520360723e-16
-2.10680240742566e-13
-2.02076693590316e-16
-2.12229324750495e-13
-2.0652286478197e-16
-2.13081570299905e-13
-2.11700836689355e-16
-2.13633381157962e-13
-2.17669847464745e-16
-2.1477663031599e-13
-2.23227773264831e-16
-2.16029656060852e-13
-2.30235051847531e-16
-2.17631595732006e-13
-2.39419903583873e-16
-2.20557974856543e-13
-2.48305871806098e-16
-2.24093090559594e-13
-2.56257944655951e-16
-2.27049920236366e-13
-2.67083663901743e-16
-2.3059384313451e-13
-2.83459549013559e-16
-2.37012227896093e-13
-3.02901939647992e-16
-2.46246601805751e-13
-3.25621029507209e-16
-2.57366114542763e-13
-3.57953629055899e-16
-2.72484312600358e-13
-4.00546164337e-16
-2.93762576783151e-13
-4.42868799424802e-16
-3.1769365826509e-13
-4.82298712732537e-16
-3.39871114913057e-13
-5.29766621255916e-16
-3.6298643268393e-13
-5.83374821094087e-16
-3.89868864747512e-13
-6.3418387277451e-16
-4.17015030608271e-13
-6.86440664877895e-16
-4.42947008468296e-13
-7.45383206021866e-16
-4.70569237581812e-13
-7.96674276090337e-16
-4.97157012356288e-13
-8.3984616342342e-16
-5.18384460422536e-13
-8.96550243135113e-16
-5.40530990662061e-13
-9.55417497573747e-16
-5.66561851930328e-13
-1.00322251984319e-15
-5.89428210610927e-13
-1.04895135636543e-15
-6.08031035060001e-13
-1.08956679651939e-15
-6.24172917281377e-13
-1.13652630326173e-15
-6.40195094534319e-13
-1.19049743698684e-15
-6.59366999385692e-13
-1.21989256408146e-15
-6.73497036375729e-13
-1.23140532071221e-15
-6.76226704395588e-13
-1.25229007718455e-15
-6.76639866320669e-13
-1.28071510941594e-15
-6.81318172698321e-13
-1.30201414606343e-15
-6.85997583442798e-13
-1.31324388694785e-15
-6.89755017945875e-13
-1.23831352337993e-15
-6.9744153415553e-13
-1.15116493863258e-15
-7.04809273303739e-13
-1.05570097840626e-15
-7.07298580054116e-13
-9.64036280136117e-16
-7.08945183431913e-13
-8.72074403454074e-16
-7.12166986083687e-13
-7.7515461382922e-16
-7.1388660446549e-13
-6.78525109420491e-16
-7.14022955284185e-13
-5.83312719170828e-16
-7.1516477467462e-13
-4.85223758293511e-16
-7.15573235928556e-13
-3.86613097984314e-16
-7.13628575066771e-13
-2.90772780459028e-16
-7.13228651543456e-13
-1.954663784338e-16
-7.16996963256464e-13
-9.81638475062584e-17
-7.21314948521141e-13
-7.2270471043424e-13
-5.29612836759546e-18
-2.7607113348061e-13
-1.05773273377908e-17
-2.75623499554612e-13
-1.58423211417435e-17
-2.7520003345482e-13
-2.10867736809023e-17
-2.74743313851553e-13
-2.63157672605632e-17
-2.74273003394248e-13
-3.15387208102739e-17
-2.73852277133575e-13
-3.67462679945122e-17
-2.73464026742165e-13
-4.19212519504677e-17
-2.73021533982436e-13
-4.70770264193675e-17
-2.72529211390756e-13
-5.22345389119969e-17
-2.72078087284149e-13
-5.73872977616722e-17
-2.71688391086579e-13
-6.25178455334105e-17
-2.71301279437463e-13
-6.76188247611827e-17
-2.70873729750966e-13
-7.27243600518367e-17
-2.7045355383946e-13
-7.78499765995279e-17
-2.70111845424176e-13
-8.29404868830944e-17
-2.69783454109436e-13
-8.79879464861327e-17
-2.69384021508733e-13
-9.30051736566723e-17
-2.68930656603271e-13
-9.79817569755746e-17
-2.68435642832323e-13
-1.02957646866814e-16
-2.67935475387688e-13
-1.07966699635984e-16
-2.67506145189812e-13
-1.12998787818088e-16
-2.67161927544208e-13
-1.17995655151806e-16
-2.66829255802455e-13
-1.22913335657629e-16
-2.6641572169702e-13
-1.27826832414952e-16
-2.65955274341654e-13
-1.32797652093486e-16
-2.65565095324378e-13
-1.37772283122413e-16
-2.65245475604968e-13
-1.42688895801052e-16
-2.64901618523898e-13
-1.47515607363246e-16
-2.64467137694549e-13
-1.52295786956318e-16
-2.63958272358786e-13
-1.57145089276133e-16
-2.6348995619945e-13
-1.62097231761511e-16
-2.63158016442541e-13
-1.67105560000641e-16
-2.62942561017313e-13
-1.71989420013506e-16
-2.62693344897913e-13
-1.76679353524895e-16
-2.62261362423058e-13
-1.81459172421055e-16
-2.61784359375278e-13
-1.86420998531814e-16
-2.61481862381598e-13
-1.91289881459956e-16
-2.6124166292474e-13
-1.96011851227551e-16
-2.60879607216697e-13
-2.00859930215374e-16
-2.60517777953194e-13
-2.05756083784631e-16
-2.60258542819861e-13
-2.10582541867411e-16
-2.59996933336984e-13
-2.15579299805372e-16
-2.59790571488608e-13
-2.20796786929114e-16
-2.59775367481068e-13
-2.26097317644667e-16
-2.59899011777992e-13
-2.31384124212574e-16
-2.60045013325219e-13
-2.36680246263471e-16
-2.60178234973643e-13
-2.42334297613366e-16
-2.60460316078732e-13
-2.4885882741319e-16
-2.61250258213851e-13
-2.55242961561728e-16
-2.62315222447838e-13
-2.60508301956085e-16
-2.62820628145997e-13
-2.66366706457385e-16
-2.63083395166928e-13
-2.72869432084796e-16
-2.63821051018959e-13
-2.79027544757728e-16
-2.64647314207195e-13
-2.86368838410026e-16
-2.6575334175817e-13
-2.95495075457179e-16
-2.6792403944796e-13
-3.04372258613794e-16
-2.7058621433061e-13
-3.12473231667212e-16
-2.72784106268608e-13
-3.22923274964039e-16
-2.75450516480342e-13
-3.37927811153244e-16
-2.8042448948893e-13
-3.5544812368075e-16
-2.87662268125021e-13
-3.75647648750901e-16
-2.96413371979294e-13
-4.03727287996803e-16
-3.08370659336093e-13
-4.40231910659652e-16
-3.25273704467963e-13
-4.7651582068785e-16
-3.44311707273531e-13
-5.10398205127886e-16
-3.61938021446817e-13
-5.50846427495248e-16
-3.80302283392779e-13
-5.96326255313255e-16
-4.01681556197427e-13
-6.39489852831735e-16
-4.23268790033739e-13
-6.83798616957131e-16
-4.43867575362565e-13
-7.33580411070736e-16
-4.65810319087472e-13
-7.77079689986518e-16
-4.8692286235419e-13
-8.13844545540845e-16
-5.03718045461962e-13
-8.6164723821538e-16
-5.21216891071597e-13
-9.11241799575305e-16
-5.41824185279386e-13
-9.51750971520388e-16
-5.59900882119756e-13
-9.90514585020298e-16
-5.74549191240955e-13
-1.02502299683303e-15
-5.87202456835634e-13
-1.06466767401812e-15
-5.99732620899629e-13
-1.11008377337866e-15
-6.14783915143867e-13
-1.13539628914493e-15
-6.2581842726643e-13
-1.14599329238985e-15
-6.27718627389661e-13
-1.1641831028302e-15
-6.27732249807594e-13
-1.18852282764892e-15
-6.31141748916129e-13
-1.20697992219466e-15
-6.34542787567516e-13
-1.2157335487369e-15
-6.37229549038225e-13
-1.14415345127496e-15
-6.43299430153529e-13
-1.06271428313245e-15
-6.49129409697793e-13
-9.74526416040343e-16
-6.5109844749882e-13
-8.89451249411383e-16
-6.52408413744176e-13
-8.0414636274274e-16
-6.54985491649203e-13
-7.14800487618643e-16
-6.56371128489063e-13
-6.25685457291421e-16
-6.56496290293746e-13
-5.37721024788123e-16
-6.57425988680486e-13
-4.47411105609193e-16
-6.57774127229415e-13
-3.56669248926355e-16
-6.56247282810554e-13
-2.68173872544064e-16
-6.55950470930037e-13
-1.80106068614028e-16
-6.58973715590344e-13
-9.04044107811342e-17
-6.62424246069291e-13
-6.63512618432337e-13
-6.55273187078041e-18
-3.3534277991511e-13
-1.30846780120462e-17
-3.34742095280543e-13
-1.95949309380862e-17
-3.34178881534933e-13
-2.60800085920522e-17
-3.33590823246864e-13
-3.25439275833921e-17
-3.32992309190475e-13
-3.89941165894205e-17
-3.32431336324056e-13
-4.54232537082127e-17
-3.31895280702053e-13
-5.18178037961787e-17
-3.31318328755009e-13
-5.81881913014489e-17
-3.30703368592315e-13
-6.45509352247084e-17
-3.30119394552163e-13
-7.09010094077693e-17
-3.29582108388362e-13
-7.72246643661129e-17
-3.29047027371621e-13
-8.35160992594321e-17
-3.28481352307975e-13
-8.98020448518154e-17
-3.27921082099437e-13
-9.60948023284313e-17
-3.27420220543492e-13
-1.02351168709769e-16
-3.26929786162497e-13
-1.08564695932347e-16
-3.26385747429833e-13
-1.14745461996443e-16
-3.25800782553635e-13
-1.20885305190656e-16
-3.25184199030233e-13
-1.27015495254888e-16
-3.24563533822265e-13
-1.33162715861388e-16
-3.23996345841961e-13
-1.39319129147918e-16
-3.23493718090696e-13
-1.4543909134879e-16
-3.23000169670653e-13
-1.51487952893474e-16
-3.22445638610096e-13
-1.57524318704052e-16
-3.21855397562729e-13
-1.63596607310528e-16
-3.21318057107387e-13
-1.69663105652692e-16
-3.20834264373071e-13
-1.75675278463261e-16
-3.20332492965758e-13
-1.81607936416775e-16
-3.19762308119826e-13
-1.8749488869457e-16
-3.19135660080264e-13
-1.93426865140177e-16
-3.18539337139102e-13
-1.99430605091733e-16
-3.18046080899913e-13
-2.05469699387796e-16
-3.17641222435341e-13
-2.11402615626344e-16
-3.17211353229943e-13
-2.17174373706184e-16
-3.16643465750067e-13
-2.23007008034967e-16
-3.16041016370784e-13
-2.2897346817599e-16
-3.15570197131396e-13
-2.34858689768176e-16
-3.15146959626423e-13
-2.40619694613075e-16
-3.1463191445135e-13
-2.46470218953688e-16
-3.14116768251139e-13
-2.52349549471808e-16
-3.1367906454192e-13
-2.58165779079927e-16
-3.13239853642217e-13
-2.64105681170081e-16
-3.12842196128411e-13
-2.70209782580743e-16
-3.12588714807644e-13
-2.76370308394455e-16
-3.12440449349382e-13
-2.82511341688191e-16
-3.12309375972064e-13
-2.8865043305194e-16
-3.12168620113247e-13
-2.95059899498869e-16
-3.12139636336229e-13
-3.02141508756895e-16
-3.12493473648141e-13
-3.09106502738552e-16
-3.13055963874599e-13
-3.15187697658956e-16
-3.1319755349486e-13
-3.21721385254976e-16
-3.13155074317584e-13
-3.28750635090155e-16
-3.1346993163768e-13
-3.35501497609121e-16
-3.13851894877031e-13
-3.43166326735727e-16
-3.14443824215477e-13
-3.52218974526525e-16
-3.15838093836646e-13
-3.61071428907497e-16
-3.17604850391587e-13
-3.69306200285883e-16
-3.19022133394015e-13
-3.79361661514536e-16
-3.2078921723835e-13
-3.92966373752039e-16
-3.24292556541245e-13
-4.08529927855887e-16
-3.29502213684373e-13
-4.26171524574037e-16
-3.35850684374732e-13
-4.49949045472651e-16
-3.44608631522335e-13
-4.80300234426924e-16
-3.57089134109065e-13
-5.1047731136733e-16
-3.71181079298393e-13
-5.3875493310163e-16
-3.8420778154307e-13
-5.72126243289139e-16
-3.97777906712521e-13
-6.09413477907676e-16
-4.13609859825189e-13
-6.44875188069202e-16
-4.29595518480068e-13
-6.81192618480365e-16
-4.44826700306328e-13
-7.21764204476738e-16
-4.61058986054923e-13
-7.57428628014851e-16
-4.76666465040832e-13
-7.87780692184698e-16
-4.89014286445218e-13
-8.26687567031747e-16
-5.01865871433474e-13
-8.67000767222737e-16
-5.17049237331803e-13
-9.00215893011369e-16
-5.30335135787573e-13
-9.32033468768245e-16
-5.41036383066118e-13
-9.60484832428396e-16
-5.50222431078067e-13
-9.92884651599997e-16
-5.59295910303633e-13
-1.02979796910969e-15
-5.702608890963e-13
-1.05107665462592e-15
-5.78227315753683e-13
-1.06084211952321e-15
-5.79334125543415e-13
-1.07645273624758e-15
-5.79001177500467e-13
-1.0968310934575e-15
-5.81203784714266e-13
-1.11259743656321e-15
-5.83396312046451e-13
-1.11903630310065e-15
-5.85089183555313e-13
-1.05082954890954e-15
-5.89589225138109e-13
-9.75059866300988e-16
-5.93909632483304e-13
-8.94081468495382e-16
-5.95368695376834e-13
-8.15530929613854e-16
-5.96344655278634e-13
-7.3681249619794e-16
-5.98275983038316e-13
-6.54960614936926e-16
-5.99321418256118e-13
-5.7328557604842e-16
-5.99425896085932e-13
-4.92501462967042e-16
-6.00133819518543e-13
-4.0989591859694e-16
-6.00409308607889e-13
-3.26950378147013e-16
-5.99283793423392e-13
-2.4574005262508e-16
-5.99076287015815e-13
-1.64856067317697e-16
-6.01347818308911e-13
-8.26998291937791e-17
-6.0392856837694e-13
-6.04714839470881e-13
-7.83751188565307e-18
-3.9592147028417e-13
-1.56478957775098e-17
-3.95153297495531e-13
-2.34304999956077e-17
-3.94438562015872e-13
-3.11828027604158e-17
-3.93706820769993e-13
-3.89076924570051e-17
-3.92967867349088e-13
-4.66105561284011e-17
-3.9225416618234e-13
-5.42861536407417e-17
-3.91557532189902e-13
-6.19246786861532e-17
-3.90833553883357e-13
-6.95335724549654e-17
-3.9008374376445e-13
-7.7124825032875e-17
-3.8935457406986e-13
-8.46948519631886e-17
-3.88656979832539e-13
-9.22337456407157e-17
-3.87961100388225e-13
-9.97372514848483e-17
-3.87244648332733e-13
-1.07224594314098e-16
-3.86531645313886e-13
-1.14704785538011e-16
-3.8585862590172e-13
-1.22146756321109e-16
-3.85192954482234e-13
-1.2954568385803e-16
-3.8449136687205e-13
-1.3690886139724e-16
-3.83762176107747e-13
-1.44230376370053e-16
-3.83011643133312e-13
-1.51532691644495e-16
-3.82258182173551e-13
-1.58835141382271e-16
-3.8154056193614e-13
-1.66132213946406e-16
-3.80866498725312e-13
-1.7339106137109e-16
-3.80198863044836e-13
-1.80586567781797e-16
-3.79490393396415e-13
-1.87760723640555e-16
-3.78757695109345e-13
-1.94948600610927e-16
-3.78060348570642e-13
-2.02120385023102e-16
-3.77399176170273e-13
-2.09241083561457e-16
-3.76726234130664e-13
-2.16292377787662e-16
-3.76007426753491e-13
-2.23298406504358e-16
-3.75250481534307e-13
-2.30324545634836e-16
-3.74513605497295e-13
-2.3739033252773e-16
-3.73845937328565e-13
-2.44469743093778e-16
-3.7323796560236e-13
-2.51460984301646e-16
-3.72613675237218e-13
-2.58323892021188e-16
-3.71896773799152e-13
-2.65217954604847e-16
-3.71156155307753e-13
-2.72196407191497e-16
-3.70503761220581e-13
-2.79104817273843e-16
-3.69883799777928e-13
-2.8591155303497e-16
-3.69202391592498e-13
-2.92770319908151e-16
-3.68520652730001e-13
-2.99637901710045e-16
-3.67890922062105e-13
-3.06448138740702e-16
-3.67260351295006e-13
-3.1333471458059e-16
-3.66657489937936e-13
-3.20327503782593e-16
-3.66151324289716e-13
-3.27349103117904e-16
-3.65716076703585e-13
-3.34344763564202e-16
-3.65292641993044e-13
-3.41326659886499e-16
-3.64862679555582e-13
-3.48489889427252e-16
-3.64507137818612e-13
-3.56124041899783e-16
-3.64407970707628e-13
-3.63664616722041e-16
-3.64449900175948e-13
-3.70558288137528e-16
-3.642107167759e-13
-3.77762551293473e-16
-3.63847067162202e-13
-3.85311430957518e-16
-3.63722330067613e-13
-3.92648104925628e-16
-3.63642872698835e-13
-4.00626873766703e-16
-3.63703176158536e-13
-4.0959124846293e-16
-3.6430086104415e-13
-4.18402815366925e-16
-3.65149853332491e-13
-4.26756825027456e-16
-3.65765021976225e-13
-4.3640009932785e-16
-3.66611701850253e-13
-4.4857750497966e-16
-3.68619102894354e-13
-4.62150149358603e-16
-3.71769688039649e-13
-4.7719632981795e-16
-3.75681749032786e-13
-4.96623464987804e-16
-3.81202455921722e-13
-5.20755338648628e-16
-3.8921314488007e-13
-5.44756243900948e-16
-3.98305293665003e-13
-5.67371111950669e-16
-4.06682952835227e-13
-5.936077388455e-16
-4.15415119995226e-13
-6.22637366299699e-16
-4.25654882842444e-13
-6.50339915371151e-16
-4.35995556482031e-13
-6.78622045881575e-16
-4.45824011563577e-13
-7.09933902311061e-16
-4.56314457986488e-13
-7.37721191521678e-16
-4.66387215874966e-13