/*--------------------------------*- C++ -*----------------------------------*\
  =========                 |
  \\      /  F ield         | OpenFOAM: The Open Source CFD Toolbox
   \\    /   O peration     | Website:  https://openfoam.org
    \\  /    A nd           | Version:  8
     \\/     M anipulation  |
\*---------------------------------------------------------------------------*/
FoamFile
{
    version     2.0;
    format      ascii;
    class       volScalarField;
    location    "0.0715000";
    object      p;
}
// * * * * * * * * * * * * * * * * * * * * * * * * * * * * * * * * * * * * * //

dimensions      [0 2 -2 0 0 0 0];

internalField   nonuniform List<scalar> 
900
(
1415614.70323951
4330636.88026627
7359859.17734706
10454752.8831596
13633519.1705463
16898659.2428017
20254061.8073615
23703022.9807772
27249061.5803166
30896146.7726752
34648484.7343028
38510612.5174304
42487215.7666816
46583362.8790451
50804315.5786829
55155723.3908513
59643542.4711266
64274179.1488314
69054373.6709243
73991329.157879
79092477.9921185
84366111.1078986
89820912.7946785
95466136.505959
101311582.745102
107367877.371659
113646273.399623
120159103.321053
126919181.078103
133940560.362051
141238273.340274
148828706.523082
156728822.57826
164957715.971216
173535711.108507
182485129.273797
191829124.716781
201593666.440228
211806759.153535
222499781.054914
233704287.742199
245456675.203586
257796254.369898
270767455.299512
284414056.468307
298787683.550778
313944155.984384
329947737.084309
346858730.434348
364750939.84197
383703520.173838
403809684.101911
425149306.752758
447826858.743975
471951196.088026
497654415.421773
525030122.48333
554217313.314037
585342473.998896
618604276.871949
653999269.04684
691575417.061632
731283950.910803
773087650.265453
816298559.778731
860600986.289376
905514106.047785
950447642.701751
994405986.665898
1036838077.92044
1077115028.79843
1114451528.36644
1148237658.54849
1178088931.10977
1203556717.97393
1224356974.78887
1240206305.9869
1250985920.3755
1256122390.6125
1255892495.16473
1248946182.48621
1235992930.66257
1213614657.4802
1184698030.44477
1139320731.56235
1087968971.62852
1002825619.75682
936722379.83708
860472937.299815
790802182.853526
717080582.541608
645370913.453627
571729377.315466
498267096.978597
423589187.381682
348441026.446263
272333662.863652
195494587.834061
117897840.432369
39502116.5362172
1444516.98211957
4353605.84375389
7387090.66966125
10484234.3048601
13664346.6789158
16930263.6516935
20286132.2315696
23735422.5313523
27281793.2609129
30929208.6106559
34681893.1977491
38544355.0387852
42521319.7009864
46617821.8416487
50839148.4617135
55190929.5232844
59679153.7592225
64310190.5390577
69090793.0678942
74028133.733372
79129730.4043231
84403805.2267402
89859056.1780425
95504706.9541014
101350623.843051
107407384.447245
113686284.487338
120199559.893484
126960141.205428
133982013.8021
141280248.303579
148871101.451438
156771750.631098
165001144.393449
173579677.209581
182529447.555252
191873934.259607
201638923.465259
211852544.605236
222545693.468567
233750573.443972
245503233.3812
257843200.229808
270814021.479048
284460675.131848
298834142.792263
313990663.002404
329992755.02921
346903063.682955
364794125.50504
383745979.494374
403848238.899082
425185691.807875
447860016.768441
471981996.672805
497676398.475119
525047011.88373
554226218.82734
585349499.046316
618584792.67875
653960135.015025
691509145.453016
731195990.087632
772918609.411331
816100438.91636
860364721.876485
905240241.852719
950107317.393209
994052298.523121
1036469287.64361
1076721441.51293
1114054471.13538
1147856682.27657
1177723192.01021
1203214641.56498
1224051642.8212
1239934475.59733
1250748485.21768
1255930866.97479
1255734880.79583
1248821552.45222
1235898102.28474
1213538187.66604
1184647631.89503
1139294813.38546
1087910287.87779
1003008567.90036
936871966.094786
860570945.153473
790889908.946107
717161079.857728
645433311.839871
571775824.955834
498307411.330274
423618227.767117
348457148.527476
272342143.34191
195488303.96334
117870053.905173
39389264.1658245
1443497.75003137
4363727.95267736
7404999.98007533
10503977.5557142
13685154.9771576
16951683.1644005
20307906.1600158
23757429.625691
27304009.970901
30951631.96399
34704529.0509165
38567199.0185887
42544377.3264463
46641090.348673
50862636.8763904
55214645.8208026
59703106.6905778
64334378.0463247
69115211.049481
74052774.0922485
79154624.6635775
84428951.4778758
89884445.8831901
95530336.4484381
101376501.733191
107433511.85289
113712672.183252
120226182.583602
126987007.429554
134009123.194611
141307589.780007
148898631.595803
156799504.359785
165029111.149027
173607828.936815
182557705.496318
191902315.095565
201667425.004668
211881126.75438
222574172.199646
233778976.043392
245531544.006379
257871312.212076
270841603.912625
284487752.795233
298860677.49579
314016432.882282
330017123.874605
346926037.74106
364815607.948137
383765497.747103
403864605.014742
425198891.303671
447869831.611952
471987427.838547
497675298.477556
525039193.973699
554211375.340978
585324871.609169
618542573.876386
653896650.41916
691421256.237279
731073788.683514
772750829.658078
815892342.727769
860121133.091234
904957573.023778
949787512.414369
993708177.688813
1036109542.76229
1076350634.05366
1113683737.41474
1147497670.94762
1177383224.80352
1202900588.70286
1223770217.19079
1239687403.7832
1250539379.73621
1255761308.38237
1255602733.33233
1248719954.65505
1235834524.22862
1213495660.74684
1184638231.6768
1139287969.15942
1087970901.81611
1003162397.60165
937021358.742715
860689410.555218
790994592.210361
717244533.614516
645505662.65691
571833666.340224
498354165.698295
423653608.89736
348482831.63729
272357029.91968
195493693.172042
117866144.345349
39400936.2039643
1436881.62349033
4363564.4171825
7404900.78822743
10504029.0475105
13685311.6778917
16951961.0961244
20308206.0342787
23757678.3478239
27304175.472773
30951699.953933
34704491.258205
38567045.2376023
42544099.7556607
46640679.6926459
50862088.4052308
55213956.9916811
59702270.0475126
64333382.9531434
69114041.9073498
74051416.4645626
79153082.7305546
84427212.2666395
89882487.4351358
95528145.1534467
101374062.614178
107430811.275228
113709695.50804
120222899.83467
126983397.275585
134005167.347635
141303251.69296
148893867.442977
156794300.957153
165023439.401979
173601629.364933
182550910.035698
191894883.082638
201659329.498202
211872280.90591
222564440.099097
233768300.087535
245519885.368611
257858507.834425
270827430.783495
284472111.045566
298843516.569721
313997458.913967
329995937.419749
346902458.80547
364789565.806832
383736433.152642
403831827.602287
425162081.068168
447828903.277486
471941305.161965
497622813.224699
524979684.162178
554145047.10617
585248740.091505
618452462.296216
653788992.099917
691294955.703738
730920286.599531
772565857.71027
815677447.457099
859882305.14627
904691913.067977
949499457.978754
993405944.584917
1035801116.06208
1076040737.80869
1113380851.0648
1147210521.50601
1177118232.98501
1202663144.64549
1223565039.03754
1239516509.09542
1250406399.53703
1255666087.13807
1255546128.77716
1248697222.73416
1235852779.03093
1213543313.99332
1184729264.8508
1139398430.49364
1088158445.14436
1003291557.35124
937158008.698864
860802899.01375
791095700.642475
717327698.897595
645578726.618741
571894297.305748
498404388.467041
423693460.435569
348513484.524134
272377749.09962
195506078.180764
117872227.572976
39414837.5798181
1436394.92742967
4359468.38773327
7389015.17766686
10486177.9429319
13666635.0185797
16932941.2666808
20288881.1117586
23738012.3429125
27284134.3318903
30931258.8560904
34683630.8242953
38545746.0759277
42522345.1437926
46618451.1484467
50839369.5114118
55190731.8802954
59678519.9165332
64309085.8705772
69089171.9463421
74025946.9136532
79126998.9876579
84400487.090335
89855087.0406001
95500039.2526628
101345220.01173
107401199.713414
113679280.901256
120191635.324289
126951242.260752
133972080.269929
141269177.894107
148858743.037393
156758083.748149
164986071.903683
173563033.538298
182510995.250405
191853579.611274
201616570.126935
211827958.753213
222518403.054167
233720457.002487
245470145.428387
257806700.390691
270773322.56872
284415571.064733
298784425.879169
313935545.689523
329930815.447503
346833937.222123
364717487.002747
383660340.92511
403751085.43764
425076423.007224
447738133.866699
471844642.959794
497519219.419474
524868750.904945
554026757.425246
585121374.708489
618312652.068501
653635001.038376
691126349.641297
730732489.113057
772354946.022187
815447648.328406
859638132.994395
904432737.961253
949228395.217465
993131783.315463
1035529875.21066
1075776110.42781
1113130185.34288
1146980899.71473
1176914266.75649
1202489178.4269
1223425029.71537
1239412051.29698
1250340476.69316
1255639514.88601
1255560046.87369
1248750093.04456
1235950537.16705
1213680694.10494
1184919938.61956
1139631439.97401
1088464526.13348
1003409083.59773
937285364.770159
860913493.234989
791193197.204169
717412972.64697
645653184.823718
571958135.045692
498458484.169189
423737910.092879
348548528.73085
272403409.97763
195522780.883249
117880672.492677
39417758.7486259
1424017.69043852
4344056.30354154
7357279.89053301
10451387.8600499
13630485.2059005
16896124.6567745
20251484.9605492
23700007.046337
27245478.0079499
30891916.8704698
34643574.3612976
38504947.2361752
42480778.3661972
46576088.8448453
50796184.6530297
55146696.6955712
59633604.522001
64263257.228472
69042393.7405493
73978180.5589571
79078213.2848782
84350640.974356
89804134.5310911
95447934.6319737
101291916.280267
107346646.918353
113623426.909016
120134416.860018
126892599.813485
133911950.508986
141207488.093402
148795409.940101
156693038.084584
164919229.487155
173494296.888199
182440252.305842
191780732.009805
201541513.842584
211750565.503178
222438504.785836
233637928.582727
245384849.140047
257718452.556062
270681882.370312
284320772.164192
298686088.462826
313833406.608722
329824510.715659
346723250.132503
364602184.345013
383540035.747809
403625228.318707
424944755.228743
447600370.237073
471700214.618031
497367317.713666
524709092.070381
553859160.946135
584944956.038134
618125346.412281
653436367.924908
690916582.154348
730510054.047027
772118254.156731
815201402.224173
859386001.124962
904176153.035397
948970738.252217
992880527.571881
1035289773.6168
1075550749.78409
1112925446.55456
1146802042.11504
1176764693.164
1202372248.66737
1223343747.43478
1239367879.38543
1250335802.81385
1255675922.23366
1255638967.94126
1248872692.70605
1236122307.81404
1213902134.94285
1185203409.02978
1139978093.35614
1088886066.27681
1003519215.04778
937404679.779453
861024852.119843
791289350.998416
717501274.446687
645730094.324228
572026186.47314
498516776.386028
423787137.725127
348588243.473224
272433848.985345
195543835.440269
117892496.202007
39419816.6467428
1395590.23921884
4310653.25933337
7306737.52434997
10397756.8904558
13575521.2304746
16840336.7041716
20194869.648503
23642494.9267165
27187007.4932643
30832441.4610164
34583055.5917269
38443348.3413904
42418063.78729
46512220.8724113
50731124.8264338
55080404.7888502
59566037.9839643
64194370.6662821
68972138.8947682
73906505.8504566
79005069.7865194
84275972.2523134
89727880.3233054
95370032.8592523
101212301.827423
107265250.507139
113540176.413455
120049231.095039
126805397.425334
133822644.667951
141115984.889183
148701605.333926
156596832.36096
164820509.590363
173392941.468263
182336127.02369
191673704.626168
201431441.629155
211637292.606933
222321847.471235
233517720.141831
245260903.553767
257590563.455846
270549805.97499
284184294.650093
298544969.227741
313687375.751739
329673241.14209
346566478.709363
364439606.501242
383371306.997776
403449927.124012
424762589.902146
447410981.797225
471503199.252205
497162194.380225
524495623.243275
553637068.372298
584713995.538501
617885169.793188
653187662.414207
690660323.406203
730247474.205809
771851297.159858
814934336.147399
859122006.902365
903918681.817307
948724228.63417
992650290.100083
1035079511.30803
1075364291.78313
1112766988.39774
1146674800.63549
1176671024.30646
1202314474.38849
1223323722.07839
1239387060.87633
1250396047.56267
1255779323.77804
1255787533.50207
1249070225.35411
1236374156.64395
1214214581.8775
1185587773.90345
1140448145.6983
1089436775.82717
1003623901.85856
937516453.617324
861139423.953883
791386157.626955
717594091.538177
645810933.285519
572099880.886991
498580390.599588
423842148.082031
348633576.7328
272469826.055416
195570136.400316
117909211.386315
39423766.3699838
1343080.6437192
4247151.70267929
7230223.28073011
10319607.4795626
13496673.0066699
16760644.2804345
20114086.2397988
23560465.7562402
27103640.6269246
30747676.0931007
34496842.3895817
38355639.9927904
42328812.5638147
46421376.473808
50638634.8772511
54986213.9910908
59470088.0642501
64096600.7764806
68872485.567631
73804901.2350082
78901443.7717314
84170249.0890559
89619981.3728518
95259875.7287885
101099798.6913
107150308.074494
113422697.54542
119929111.569385
126682528.335769
133696909.833738
140987262.75121
148569764.887266
156461736.156444
164682008.090376
173250881.111117
182190343.57006
191524022.583092
201277669.977842
211479236.653417
222159298.971803
233350458.442509
245088682.066741
257413138.100764
270366920.486712
283995671.325911
298350290.989329
313486345.511262
329465560.792331
346351816.860032
364217568.313756
383141562.722729
403212183.142464
424516492.40656
447156078.029311
471239214.402926
496888997.060221
524212985.643426
553344607.249055
584412036.448668
617575228.588031
652871582.893582
690339958.125926
729926868.82766
771536445.487797
814629115.506634
858829269.527556
903644098.993388
948473728.257711
992427069.440804
1034886358.26115
1075205519.49798
1112645242.3775
1146591269.05378
1176627128.97394
1202311514.43892
1223362473.0557
1239468916.22319
1250522642.1026
1255952844.75329
1256011409.21848
1249349985.49253
1236717036.24216
1214629915.9903
1186091664.21243
1141060478.01002
1090149555.1284
1003723560.82185
937628252.023233
861260949.815485
791489609.606608
717695373.400244
645900184.066035
572182699.063055
498652714.046998
423905680.203119
348686917.603592
272513229.134103
195603170.937897
117932193.288964
39431683.2859082
1267149.03237315
4160243.60105546
7135529.38401916
10225003.4978675
13401850.1335892
16664982.9904875
20017200.0110312
23462158.1232852
27003809.12311
30646255.2290902
34393778.3159102
38250880.4046638
42222303.2682919
46313060.5998475
50528452.6508539
54874102.1443518
59355979.8468062
63980427.1697176
68754174.9925081
73684377.824199
78778625.4297055
84045049.9872552
89492313.3328139
95129645.7010305
100966906.584503
107014648.143417
113284158.816939
119787578.448892
126537876.887886
133549008.222818
140835974.355418
148414945.964479
156303227.746313
164519641.552686
173084485.129102
182019739.685975
191349011.075831
201098034.048746
211294758.029246
221969761.305412
233155608.290359
244888240.45724
257206835.43144
270154501.653058
283776816.890091
298124642.399475
313253578.979613
329225408.208592
346103893.206356
363961430.007296
382876860.683587
402938719.096052
424233841.642511
446863737.967323
470936920.096336
496576853.732392
523890682.780469
553011716.413262
584068951.965656
617224564.621144
652515526.235086
689980745.106955
729569557.732823
771189584.196011
814295815.585835
858512268.924886
903350063.873526
948209677.907496
992194757.285534
1034688221.47169
1075046275.00366
1112526750.8801
1146513627.26241
1176591492.34532
1202318539.69086
1223412563.38969
1239563043.26443
1250663001.57523
1256140200.56414
1256251900.22864
1249646339.00883
1237082681.07323
1215066037.52719
1186631475.55723
1141701551.29808
1090929076.1964
1003804829.11634
937748799.850885
861378916.455921
791598947.308871
717797764.651736
645993994.271382
572268463.676583
498729057.529733
423972527.014339
348743804.092855
272559798.388463
195639141.699911
117958308.067033
39454340.3251209
)
;

boundaryField
{
    dieWall
    {
        type            zeroGradient;
    }
    outlet
    {
        type            fixedValue;
        value           uniform 0;
    }
    Wire
    {
        type            zeroGradient;
    }
    inlet
    {
        type            fixedValue;
        value           uniform 0;
    }
    back
    {
        type            wedge;
    }
    front
    {
        type            wedge;
    }
}


// ************************************************************************* //
