/*--------------------------------*- C++ -*----------------------------------*\
| =========                 |                                                 |
| \\      /  F ield         | OpenFOAM: The Open Source CFD Toolbox           |
|  \\    /   O peration     | Version:  4.1                                   |
|   \\  /    A nd           | Web:      www.OpenFOAM.org                      |
|    \\/     M anipulation  |                                                 |
\*---------------------------------------------------------------------------*/
FoamFile
{
    version     2.0;
    format      ascii;
    class       pointVectorField;
    location    "0.0066";
    object      pointDisplacement_Next;
}
// * * * * * * * * * * * * * * * * * * * * * * * * * * * * * * * * * * * * * //

dimensions      [0 1 0 0 0 0 0];

internalField   uniform (0 0 0);

boundaryField
{
    inlet
    {
        type            fixedValue;
        value           nonuniform 0();
    }
    outlet
    {
        type            fixedValue;
        value           uniform (0 0 0);
    }
    mantle
    {
        type            fixedValue;
        value           nonuniform List<vector> 
416
(
(-3.4012e-05 -3.388e-05 -2.2156e-10)
(-3.3737e-05 -2.7557e-05 -3.8944e-10)
(-3.3755e-05 -2.7021e-05 5.3493e-06)
(-3.4037e-05 -3.3189e-05 6.5554e-06)
(-3.3773e-05 -2.5481e-05 1.055e-05)
(-3.4066e-05 -3.1253e-05 1.2931e-05)
(-3.3757e-05 -2.3022e-05 1.541e-05)
(-3.4045e-05 -2.8233e-05 1.8903e-05)
(-3.3741e-05 -1.9648e-05 1.9647e-05)
(-3.4023e-05 -2.411e-05 2.4109e-05)
(-3.3757e-05 -1.5411e-05 2.3022e-05)
(-3.4045e-05 -1.8905e-05 2.8233e-05)
(-3.3773e-05 -1.0552e-05 2.5481e-05)
(-3.4066e-05 -1.2932e-05 3.1253e-05)
(-3.3755e-05 -5.3506e-06 2.7022e-05)
(-3.4038e-05 -6.5568e-06 3.319e-05)
(-3.3737e-05 -5.5885e-10 2.7558e-05)
(-3.4012e-05 -8.0593e-10 3.3882e-05)
(-3.2983e-05 -2.1982e-05 1.7219e-10)
(-3.2994e-05 -2.1581e-05 4.2864e-06)
(-3.3004e-05 -2.0381e-05 8.4514e-06)
(-3.2994e-05 -1.8428e-05 1.2324e-05)
(-3.2983e-05 -1.5708e-05 1.5707e-05)
(-3.2994e-05 -1.2325e-05 1.8428e-05)
(-3.3005e-05 -8.4525e-06 2.0381e-05)
(-3.2994e-05 -4.2874e-06 2.1582e-05)
(-3.2983e-05 -9.8926e-10 2.1983e-05)
(-3.1729e-05 -1.7169e-05 8.5287e-10)
(-3.1746e-05 -1.6848e-05 3.3257e-06)
(-3.176e-05 -1.5903e-05 6.5837e-06)
(-3.1743e-05 -1.4397e-05 9.6471e-06)
(-3.1726e-05 -1.23e-05 1.2299e-05)
(-3.1743e-05 -9.6478e-06 1.4397e-05)
(-3.176e-05 -6.5845e-06 1.5904e-05)
(-3.1746e-05 -3.3265e-06 1.6849e-05)
(-3.173e-05 -1.4944e-09 1.7169e-05)
(-3.004e-05 -1.295e-05 5.5297e-10)
(-3.0052e-05 -1.2656e-05 2.4514e-06)
(-3.0059e-05 -1.189e-05 4.9122e-06)
(-3.0046e-05 -1.0813e-05 7.2891e-06)
(-3.0032e-05 -9.3103e-06 9.31e-06)
(-3.0046e-05 -7.2896e-06 1.0813e-05)
(-3.0059e-05 -4.9127e-06 1.189e-05)
(-3.0052e-05 -2.4519e-06 1.2657e-05)
(-3.004e-05 -9.8553e-10 1.295e-05)
(-2.7972e-05 -9.0689e-06 7.0701e-10)
(-2.7942e-05 -8.7459e-06 1.6332e-06)
(-2.7911e-05 -8.1118e-06 3.3545e-06)
(-2.7934e-05 -7.4548e-06 5.101e-06)
(-2.7961e-05 -6.5511e-06 6.551e-06)
(-2.7934e-05 -5.1012e-06 7.4548e-06)
(-2.7911e-05 -3.3547e-06 8.1118e-06)
(-2.7943e-05 -1.6335e-06 8.7459e-06)
(-2.7973e-05 -9.2771e-10 9.069e-06)
(-2.5489e-05 -5.073e-06 8.0418e-10)
(-2.5412e-05 -4.741e-06 8.4058e-07)
(-2.5348e-05 -4.2978e-06 1.7824e-06)
(-2.5403e-05 -4.046e-06 2.8293e-06)
(-2.5476e-05 -3.7113e-06 3.7113e-06)
(-2.5403e-05 -2.8293e-06 4.046e-06)
(-2.5349e-05 -1.7824e-06 4.2978e-06)
(-2.5412e-05 -8.4059e-07 4.7409e-06)
(-2.5489e-05 -8.3963e-10 5.073e-06)
(-2.2774e-05 -1.3071e-06 8.2165e-10)
(-2.2766e-05 -1.2858e-06 2.1991e-07)
(-2.2747e-05 -1.2114e-06 5.0448e-07)
(-2.2758e-05 -1.1519e-06 8.1431e-07)
(-2.2762e-05 -1.0321e-06 1.0322e-06)
(-2.2758e-05 -8.1418e-07 1.152e-06)
(-2.2747e-05 -5.0433e-07 1.2114e-06)
(-2.2766e-05 -2.1977e-07 1.2857e-06)
(-2.2774e-05 -7.3298e-10 1.3069e-06)
(-2.0674e-05 -5.8967e-07 7.6981e-10)
(-2.072e-05 -7.7809e-07 1.3988e-07)
(-2.0702e-05 -7.9042e-07 3.2157e-07)
(-2.0711e-05 -7.2459e-07 4.9644e-07)
(-2.0663e-05 -5.0744e-07 5.076e-07)
(-2.0711e-05 -4.9621e-07 7.2467e-07)
(-2.0702e-05 -3.2131e-07 7.9041e-07)
(-2.072e-05 -1.3965e-07 7.7797e-07)
(-2.0674e-05 -6.0513e-10 5.8947e-07)
(-1.9212e-05 -4.2516e-06 6.8182e-10)
(-1.9079e-05 -3.9472e-06 6.2994e-07)
(-1.895e-05 -3.4722e-06 1.4348e-06)
(-1.9067e-05 -3.2922e-06 2.3792e-06)
(-1.9196e-05 -3.0725e-06 3.0727e-06)
(-1.9067e-05 -2.379e-06 3.2923e-06)
(-1.895e-05 -1.4345e-06 3.4722e-06)
(-1.9079e-05 -6.2967e-07 3.947e-06)
(-1.9212e-05 -4.6887e-10 4.2514e-06)
(-1.6048e-05 -7.4779e-06 5.2124e-10)
(-1.574e-05 -6.6811e-06 1.0532e-06)
(-1.55e-05 -5.7424e-06 2.3789e-06)
(-1.5728e-05 -5.5024e-06 4.003e-06)
(-1.6029e-05 -5.3291e-06 5.3293e-06)
(-1.5728e-05 -4.0028e-06 5.5025e-06)
(-1.55e-05 -2.3786e-06 5.7424e-06)
(-1.574e-05 -1.0529e-06 6.681e-06)
(-1.6048e-05 -3.1686e-10 7.4777e-06)
(-9.2086e-06 -5.4193e-06 2.6789e-10)
(-9.0725e-06 -5.0084e-06 8.1412e-07)
(-8.936e-06 -4.3891e-06 1.8192e-06)
(-9.0653e-06 -4.1312e-06 2.977e-06)
(-9.1982e-06 -3.8498e-06 3.8499e-06)
(-9.0653e-06 -2.9769e-06 4.1313e-06)
(-8.936e-06 -1.819e-06 4.3891e-06)
(-9.0725e-06 -8.1399e-07 5.0084e-06)
(-9.2086e-06 -1.5192e-10 5.4192e-06)
(-3.6954e-12 -2.1697e-12 9.5876e-17)
(-1.5279e-08 -3.8395e-08 -3.1386e-08)
(-4.3039e-12 -4.1003e-12 1.5611e-12)
(-1.4935e-08 -5.9307e-09 4.9393e-08)
(-2.7645e-12 8.2741e-13 -8.2736e-13)
(-1.4935e-08 -4.9392e-08 5.9323e-09)
(-4.3039e-12 -1.561e-12 4.1003e-12)
(-1.5279e-08 3.1387e-08 3.8393e-08)
(-3.6954e-12 -5.4383e-17 2.1697e-12)
(-3.3755e-05 5.3488e-06 2.7022e-05)
(-3.4037e-05 6.5553e-06 3.319e-05)
(-3.3773e-05 1.055e-05 2.5482e-05)
(-3.4065e-05 1.2931e-05 3.1254e-05)
(-3.3757e-05 1.541e-05 2.3023e-05)
(-3.4045e-05 1.8904e-05 2.8234e-05)
(-3.3741e-05 1.9647e-05 1.9648e-05)
(-3.4022e-05 2.411e-05 2.4111e-05)
(-3.3757e-05 2.3022e-05 1.5411e-05)
(-3.4045e-05 2.8233e-05 1.8904e-05)
(-3.3773e-05 2.5481e-05 1.0551e-05)
(-3.4065e-05 3.1253e-05 1.2932e-05)
(-3.3754e-05 2.7021e-05 5.3498e-06)
(-3.4037e-05 3.3189e-05 6.5558e-06)
(-3.3737e-05 2.7557e-05 3.3472e-10)
(-3.4012e-05 3.3881e-05 -2.1891e-10)
(-3.2994e-05 4.2855e-06 2.1582e-05)
(-3.3004e-05 8.4508e-06 2.0382e-05)
(-3.2993e-05 1.2324e-05 1.8429e-05)
(-3.2982e-05 1.5707e-05 1.5709e-05)
(-3.2993e-05 1.8428e-05 1.2325e-05)
(-3.3004e-05 2.038e-05 8.4522e-06)
(-3.2994e-05 2.1581e-05 4.2869e-06)
(-3.2982e-05 2.1982e-05 1.7301e-10)
(-3.1746e-05 3.3245e-06 1.6849e-05)
(-3.176e-05 6.5828e-06 1.5904e-05)
(-3.1743e-05 9.6464e-06 1.4397e-05)
(-3.1726e-05 1.2299e-05 1.23e-05)
(-3.1743e-05 1.4396e-05 9.6481e-06)
(-3.176e-05 1.5903e-05 6.5845e-06)
(-3.1745e-05 1.6848e-05 3.3262e-06)
(-3.1729e-05 1.7169e-05 8.4309e-10)
(-3.0052e-05 2.45e-06 1.2657e-05)
(-3.0059e-05 4.911e-06 1.1891e-05)
(-3.0046e-05 7.2881e-06 1.0814e-05)
(-3.0032e-05 9.3092e-06 9.3108e-06)
(-3.0046e-05 1.0812e-05 7.2899e-06)
(-3.0059e-05 1.189e-05 4.9129e-06)
(-3.0052e-05 1.2656e-05 2.4518e-06)
(-3.004e-05 1.295e-05 5.2935e-10)
(-2.7943e-05 1.6317e-06 8.7462e-06)
(-2.7911e-05 3.353e-06 8.1123e-06)
(-2.7934e-05 5.0998e-06 7.4554e-06)
(-2.7961e-05 6.5501e-06 6.5517e-06)
(-2.7934e-05 7.4542e-06 5.1017e-06)
(-2.7911e-05 8.1115e-06 3.3551e-06)
(-2.7942e-05 8.7458e-06 1.6336e-06)
(-2.7973e-05 9.0689e-06 6.7549e-10)
(-2.5412e-05 8.3896e-07 4.7412e-06)
(-2.5349e-05 1.7809e-06 4.2982e-06)
(-2.5403e-05 2.8281e-06 4.0466e-06)
(-2.5476e-05 3.7104e-06 3.712e-06)
(-2.5403e-05 4.0454e-06 2.83e-06)
(-2.5349e-05 4.2975e-06 1.783e-06)
(-2.5412e-05 4.7409e-06 8.4086e-07)
(-2.5489e-05 5.0731e-06 7.7281e-10)
(-2.2766e-05 2.1835e-07 1.2859e-06)
(-2.2747e-05 5.0303e-07 1.2118e-06)
(-2.2758e-05 8.1309e-07 1.1525e-06)
(-2.2763e-05 1.0312e-06 1.0328e-06)
(-2.2758e-05 1.1514e-06 8.149e-07)
(-2.2747e-05 1.2112e-06 5.0495e-07)
(-2.2767e-05 1.2857e-06 2.2016e-07)
(-2.2774e-05 1.3071e-06 7.9887e-10)
(-2.072e-05 1.3847e-07 7.7814e-07)
(-2.0702e-05 3.2024e-07 7.9073e-07)
(-2.0712e-05 4.9531e-07 7.2511e-07)
(-2.0663e-05 5.0676e-07 5.081e-07)
(-2.0712e-05 7.2413e-07 4.9693e-07)
(-2.0702e-05 7.9017e-07 3.2196e-07)
(-2.072e-05 7.7799e-07 1.4009e-07)
(-2.0675e-05 5.8964e-07 7.5583e-10)
(-1.9079e-05 6.2876e-07 3.9472e-06)
(-1.895e-05 1.4337e-06 3.4725e-06)
(-1.9068e-05 2.3783e-06 3.2927e-06)
(-1.9196e-05 3.0719e-06 3.0731e-06)
(-1.9068e-05 3.2919e-06 2.3796e-06)
(-1.895e-05 3.472e-06 1.4351e-06)
(-1.9079e-05 3.9471e-06 6.3011e-07)
(-1.9212e-05 4.2516e-06 6.6976e-10)
(-1.5741e-05 1.0523e-06 6.6811e-06)
(-1.5501e-05 2.3781e-06 5.7425e-06)
(-1.5728e-05 4.0023e-06 5.5028e-06)
(-1.6029e-05 5.3287e-06 5.3296e-06)
(-1.5728e-05 5.5022e-06 4.0033e-06)
(-1.5501e-05 5.7423e-06 2.3791e-06)
(-1.5741e-05 6.6811e-06 1.0533e-06)
(-1.6048e-05 7.4779e-06 5.0867e-10)
(-9.0726e-06 8.1369e-07 5.0084e-06)
(-8.9361e-06 1.8188e-06 4.3892e-06)
(-9.0654e-06 2.9767e-06 4.1314e-06)
(-9.1984e-06 3.8496e-06 3.85e-06)
(-9.0655e-06 4.1311e-06 2.9772e-06)
(-8.9362e-06 4.389e-06 1.8193e-06)
(-9.0727e-06 5.0084e-06 8.1417e-07)
(-9.2088e-06 5.4194e-06 2.5954e-10)
(-1.5278e-08 -3.1388e-08 3.8393e-08)
(-4.3039e-12 1.561e-12 4.1002e-12)
(-1.4936e-08 4.9393e-08 5.933e-09)
(-2.7646e-12 -8.275e-13 -8.2715e-13)
(-1.4935e-08 5.9302e-09 4.9394e-08)
(-4.304e-12 4.1002e-12 1.561e-12)
(-1.528e-08 3.8396e-08 -3.1386e-08)
(-3.6955e-12 2.1697e-12 9.2448e-17)
(-3.3754e-05 2.7021e-05 -5.3498e-06)
(-3.4037e-05 3.3189e-05 -6.5562e-06)
(-3.3772e-05 2.5481e-05 -1.0551e-05)
(-3.4065e-05 3.1253e-05 -1.2932e-05)
(-3.3757e-05 2.3022e-05 -1.5411e-05)
(-3.4044e-05 2.8233e-05 -1.8904e-05)
(-3.374e-05 1.9647e-05 -1.9648e-05)
(-3.4022e-05 2.4109e-05 -2.411e-05)
(-3.3757e-05 1.5409e-05 -2.3023e-05)
(-3.4044e-05 1.8903e-05 -2.8234e-05)
(-3.3772e-05 1.055e-05 -2.5482e-05)
(-3.4065e-05 1.2931e-05 -3.1254e-05)
(-3.3754e-05 5.3487e-06 -2.7022e-05)
(-3.4037e-05 6.555e-06 -3.319e-05)
(-3.3737e-05 -5.8142e-10 -2.7558e-05)
(-3.4012e-05 -8.2696e-10 -3.3881e-05)
(-3.2994e-05 2.1581e-05 -4.2865e-06)
(-3.3004e-05 2.0381e-05 -8.4519e-06)
(-3.2993e-05 1.8428e-05 -1.2325e-05)
(-3.2982e-05 1.5707e-05 -1.5708e-05)
(-3.2993e-05 1.2324e-05 -1.8429e-05)
(-3.3004e-05 8.4509e-06 -2.0382e-05)
(-3.2993e-05 4.2856e-06 -2.1582e-05)
(-3.2982e-05 -1.0051e-09 -2.1983e-05)
(-3.1745e-05 1.6849e-05 -3.3255e-06)
(-3.176e-05 1.5904e-05 -6.5839e-06)
(-3.1742e-05 1.4397e-05 -9.6477e-06)
(-3.1725e-05 1.23e-05 -1.23e-05)
(-3.1742e-05 9.6469e-06 -1.4397e-05)
(-3.176e-05 6.5831e-06 -1.5904e-05)
(-3.1745e-05 3.3247e-06 -1.6849e-05)
(-3.1729e-05 -5.2937e-10 -1.7169e-05)
(-3.0052e-05 1.2657e-05 -2.4508e-06)
(-3.0059e-05 1.1891e-05 -4.9121e-06)
(-3.0046e-05 1.0813e-05 -7.2893e-06)
(-3.0032e-05 9.31e-06 -9.3105e-06)
(-3.0046e-05 7.2888e-06 -1.0814e-05)
(-3.0059e-05 4.9115e-06 -1.1891e-05)
(-3.0051e-05 2.4503e-06 -1.2657e-05)
(-3.004e-05 -9.8005e-10 -1.295e-05)
(-2.7942e-05 8.7461e-06 -1.6323e-06)
(-2.7911e-05 8.1121e-06 -3.354e-06)
(-2.7934e-05 7.455e-06 -5.1009e-06)
(-2.7961e-05 6.551e-06 -6.5512e-06)
(-2.7934e-05 5.1006e-06 -7.4553e-06)
(-2.791e-05 3.3537e-06 -8.1124e-06)
(-2.7942e-05 1.632e-06 -8.7464e-06)
(-2.7972e-05 -9.1484e-10 -9.0692e-06)
(-2.5412e-05 4.7412e-06 -8.3939e-07)
(-2.5348e-05 4.2982e-06 -1.7817e-06)
(-2.5403e-05 4.0462e-06 -2.829e-06)
(-2.5475e-05 3.7112e-06 -3.7113e-06)
(-2.5403e-05 2.8289e-06 -4.0462e-06)
(-2.5348e-05 1.7816e-06 -4.2982e-06)
(-2.5411e-05 8.3931e-07 -4.7413e-06)
(-2.5488e-05 -8.2629e-10 -5.0731e-06)
(-2.2767e-05 1.286e-06 -2.1862e-07)
(-2.2747e-05 1.2118e-06 -5.0357e-07)
(-2.2758e-05 1.1521e-06 -8.1377e-07)
(-2.2762e-05 1.032e-06 -1.0319e-06)
(-2.2758e-05 8.1382e-07 -1.152e-06)
(-2.2747e-05 5.0362e-07 -1.2116e-06)
(-2.2766e-05 2.1868e-07 -1.2858e-06)
(-2.2774e-05 -7.1923e-10 -1.3069e-06)
(-2.072e-05 7.7829e-07 -1.3862e-07)
(-2.0702e-05 7.907e-07 -3.2063e-07)
(-2.0712e-05 7.2477e-07 -4.9582e-07)
(-2.0663e-05 5.0742e-07 -5.0725e-07)
(-2.0712e-05 4.9595e-07 -7.2454e-07)
(-2.0702e-05 3.2076e-07 -7.9039e-07)
(-2.072e-05 1.3877e-07 -7.7795e-07)
(-2.0674e-05 -5.9129e-10 -5.8931e-07)
(-1.9079e-05 3.9474e-06 -6.2882e-07)
(-1.895e-05 3.4725e-06 -1.434e-06)
(-1.9068e-05 3.2924e-06 -2.3787e-06)
(-1.9196e-05 3.0726e-06 -3.0724e-06)
(-1.9068e-05 2.3789e-06 -3.2922e-06)
(-1.895e-05 1.4341e-06 -3.4722e-06)
(-1.9079e-05 6.2902e-07 -3.9471e-06)
(-1.9212e-05 -4.5681e-10 -4.2513e-06)
(-1.5741e-05 6.6813e-06 -1.0523e-06)
(-1.5501e-05 5.7426e-06 -2.3782e-06)
(-1.5728e-05 5.5027e-06 -4.0026e-06)
(-1.6029e-05 5.3293e-06 -5.3291e-06)
(-1.5728e-05 4.0028e-06 -5.5025e-06)
(-1.5501e-05 2.3784e-06 -5.7424e-06)
(-1.5741e-05 1.0525e-06 -6.6811e-06)
(-1.6048e-05 -3.0722e-10 -7.4778e-06)
(-9.0727e-06 5.0085e-06 -8.1368e-07)
(-8.9363e-06 4.3892e-06 -1.8189e-06)
(-9.0656e-06 4.1314e-06 -2.9768e-06)
(-9.1985e-06 3.8499e-06 -3.8498e-06)
(-9.0656e-06 2.977e-06 -4.1312e-06)
(-8.9363e-06 1.819e-06 -4.3891e-06)
(-9.0727e-06 8.138e-07 -5.0085e-06)
(-9.2088e-06 -1.4594e-10 -5.4193e-06)
(-1.5279e-08 3.8395e-08 3.1389e-08)
(-4.304e-12 4.1002e-12 -1.561e-12)
(-1.4937e-08 5.9331e-09 -4.9396e-08)
(-2.7646e-12 -8.272e-13 8.2725e-13)
(-1.4937e-08 4.9395e-08 -5.9319e-09)
(-4.304e-12 1.561e-12 -4.1002e-12)
(-1.5279e-08 -3.1389e-08 -3.8396e-08)
(-3.6955e-12 -5.1456e-17 -2.1697e-12)
(-3.3754e-05 -5.3505e-06 -2.7021e-05)
(-3.4037e-05 -6.5566e-06 -3.3189e-05)
(-3.3772e-05 -1.0552e-05 -2.5481e-05)
(-3.4065e-05 -1.2932e-05 -3.1253e-05)
(-3.3757e-05 -1.5411e-05 -2.3022e-05)
(-3.4044e-05 -1.8904e-05 -2.8233e-05)
(-3.374e-05 -1.9648e-05 -1.9647e-05)
(-3.4022e-05 -2.411e-05 -2.411e-05)
(-3.3757e-05 -2.3022e-05 -1.541e-05)
(-3.4045e-05 -2.8233e-05 -1.8904e-05)
(-3.3773e-05 -2.5481e-05 -1.055e-05)
(-3.4065e-05 -3.1253e-05 -1.2931e-05)
(-3.3755e-05 -2.7021e-05 -5.3494e-06)
(-3.4037e-05 -3.3189e-05 -6.5559e-06)
(-3.2993e-05 -4.2875e-06 -2.1582e-05)
(-3.3004e-05 -8.4526e-06 -2.0381e-05)
(-3.2993e-05 -1.2325e-05 -1.8428e-05)
(-3.2982e-05 -1.5708e-05 -1.5707e-05)
(-3.2993e-05 -1.8428e-05 -1.2324e-05)
(-3.3004e-05 -2.0381e-05 -8.4511e-06)
(-3.2994e-05 -2.1581e-05 -4.2861e-06)
(-3.1745e-05 -3.3267e-06 -1.6849e-05)
(-3.176e-05 -6.5849e-06 -1.5904e-05)
(-3.1742e-05 -9.6483e-06 -1.4396e-05)
(-3.1725e-05 -1.2301e-05 -1.2299e-05)
(-3.1742e-05 -1.4397e-05 -9.6467e-06)
(-3.176e-05 -1.5904e-05 -6.5832e-06)
(-3.1745e-05 -1.6849e-05 -3.3251e-06)
(-3.0051e-05 -2.4522e-06 -1.2657e-05)
(-3.0059e-05 -4.9132e-06 -1.189e-05)
(-3.0046e-05 -7.2902e-06 -1.0813e-05)
(-3.0032e-05 -9.311e-06 -9.3096e-06)
(-3.0046e-05 -1.0814e-05 -7.2884e-06)
(-3.0059e-05 -1.1891e-05 -4.9113e-06)
(-3.0052e-05 -1.2657e-05 -2.4504e-06)
(-2.7942e-05 -1.6338e-06 -8.746e-06)
(-2.791e-05 -3.3552e-06 -8.1117e-06)
(-2.7934e-05 -5.1019e-06 -7.4544e-06)
(-2.7961e-05 -6.5519e-06 -6.5504e-06)
(-2.7934e-05 -7.4556e-06 -5.1001e-06)
(-2.791e-05 -8.1124e-06 -3.3533e-06)
(-2.7942e-05 -8.7462e-06 -1.6319e-06)
(-2.5411e-05 -8.4089e-07 -4.7409e-06)
(-2.5348e-05 -1.783e-06 -4.2976e-06)
(-2.5402e-05 -2.83e-06 -4.0455e-06)
(-2.5475e-05 -3.7121e-06 -3.7105e-06)
(-2.5402e-05 -4.0467e-06 -2.8282e-06)
(-2.5348e-05 -4.2984e-06 -1.7811e-06)
(-2.5412e-05 -4.7413e-06 -8.3904e-07)
(-2.2766e-05 -2.2006e-07 -1.2856e-06)
(-2.2747e-05 -5.0485e-07 -1.2111e-06)
(-2.2758e-05 -8.1483e-07 -1.1513e-06)
(-2.2762e-05 -1.0328e-06 -1.0313e-06)
(-2.2758e-05 -1.1526e-06 -8.1313e-07)
(-2.2747e-05 -1.212e-06 -5.0306e-07)
(-2.2766e-05 -1.2861e-06 -2.1832e-07)
(-2.072e-05 -1.3992e-07 -7.7774e-07)
(-2.0702e-05 -3.218e-07 -7.9002e-07)
(-2.0711e-05 -4.9682e-07 -7.2406e-07)
(-2.0663e-05 -5.0808e-07 -5.0673e-07)
(-2.0711e-05 -7.2522e-07 -4.9531e-07)
(-2.0702e-05 -7.9093e-07 -3.2022e-07)
(-2.072e-05 -7.7838e-07 -1.3838e-07)
(-1.9079e-05 -6.2991e-07 -3.9469e-06)
(-1.895e-05 -1.4349e-06 -3.4719e-06)
(-1.9068e-05 -2.3795e-06 -3.2918e-06)
(-1.9196e-05 -3.0731e-06 -3.0719e-06)
(-1.9067e-05 -3.2928e-06 -2.3783e-06)
(-1.895e-05 -3.4727e-06 -1.4336e-06)
(-1.9079e-05 -3.9474e-06 -6.2864e-07)
(-1.5741e-05 -1.0531e-06 -6.681e-06)
(-1.5501e-05 -2.3789e-06 -5.7422e-06)
(-1.5728e-05 -4.0033e-06 -5.5022e-06)
(-1.6029e-05 -5.3296e-06 -5.3288e-06)
(-1.5728e-05 -5.5029e-06 -4.0024e-06)
(-1.5501e-05 -5.7427e-06 -2.378e-06)
(-1.574e-05 -6.6813e-06 -1.0522e-06)
(-9.0727e-06 -8.1408e-07 -5.0084e-06)
(-8.9362e-06 -1.8192e-06 -4.389e-06)
(-9.0654e-06 -2.9771e-06 -4.1311e-06)
(-9.1983e-06 -3.8501e-06 -3.8497e-06)
(-9.0654e-06 -4.1315e-06 -2.9767e-06)
(-8.9361e-06 -4.3893e-06 -1.8188e-06)
(-9.0725e-06 -5.0085e-06 -8.1362e-07)
(-1.528e-08 3.1388e-08 -3.8396e-08)
(-4.304e-12 -1.561e-12 -4.1002e-12)
(-1.4935e-08 -4.9395e-08 -5.931e-09)
(-2.7645e-12 8.2713e-13 8.2747e-13)
(-1.4936e-08 -5.9334e-09 -4.9395e-08)
(-4.3039e-12 -4.1002e-12 -1.561e-12)
(-1.5278e-08 -3.8394e-08 3.1389e-08)
)
;
    }
    procBoundary3to2
    {
        type            processor;
    }
}


// ************************************************************************* //
