/*--------------------------------*- C++ -*----------------------------------*\
| =========                 |                                                 |
| \\      /  F ield         | OpenFOAM: The Open Source CFD Toolbox           |
|  \\    /   O peration     | Version:  4.1                                   |
|   \\  /    A nd           | Web:      www.OpenFOAM.org                      |
|    \\/     M anipulation  |                                                 |
\*---------------------------------------------------------------------------*/
FoamFile
{
    version     2.0;
    format      ascii;
    class       surfaceVectorField;
    location    "0.0066";
    object      Uf;
}
// * * * * * * * * * * * * * * * * * * * * * * * * * * * * * * * * * * * * * //

dimensions      [0 1 -1 0 0 0 0];

internalField   nonuniform List<vector> 
4288
(
(0.035503 -0.00044419 -3.4886e-07)
(0.035458 -0.00016122 3.8353e-05)
(0.035458 -0.00016109 -3.8928e-05)
(0.03533 -0.00014335 -3.4136e-06)
(0.03533 -0.00014321 3.1296e-06)
(0.03583 -0.0011311 -6.1185e-07)
(0.035727 -0.00057703 0.00011163)
(0.035727 -0.00057678 -0.00011318)
(0.035525 -0.00057772 -1.5937e-05)
(0.035525 -0.00057774 1.4683e-05)
(0.036935 -0.0021847 -8.4426e-07)
(0.036506 -0.0012957 0.00019223)
(0.036506 -0.0012954 -0.00019432)
(0.036195 -0.0014588 -2.613e-05)
(0.036195 -0.0014582 2.4949e-05)
(0.038943 -0.0034946 -1.0932e-06)
(0.038083 -0.0023032 0.00028139)
(0.038083 -0.0023028 -0.00028402)
(0.037696 -0.0026979 -7.7727e-05)
(0.037696 -0.0026975 7.5762e-05)
(0.042009 -0.0048712 -1.0621e-06)
(0.040603 -0.003447 0.00037203)
(0.040603 -0.0034466 -0.00037498)
(0.040199 -0.0041038 -0.00011384)
(0.040199 -0.0041037 0.00011124)
(0.046081 -0.0062207 -8.1258e-07)
(0.044156 -0.0045865 0.00046943)
(0.044156 -0.0045861 -0.0004719)
(0.043765 -0.0054774 -0.00014309)
(0.043765 -0.0054775 0.00014083)
(0.051138 -0.0075366 -6.2701e-07)
(0.048711 -0.0057003 0.0005708)
(0.048711 -0.0057001 -0.00057255)
(0.048337 -0.0068145 -0.00017068)
(0.048337 -0.0068148 0.00016859)
(0.057181 -0.0088249 -5.561e-07)
(0.054253 -0.0067961 0.00066713)
(0.054253 -0.0067958 -0.00066861)
(0.053895 -0.0081379 -0.00019716)
(0.053895 -0.0081389 0.00019482)
(0.0642 -0.010083 -5.192e-07)
(0.060775 -0.0078805 0.00074479)
(0.060775 -0.0078802 -0.00074613)
(0.060435 -0.0094599 -0.00021623)
(0.060435 -0.0094608 0.00021406)
(0.07218 -0.011316 -4.2482e-07)
(0.068264 -0.0089552 0.00079921)
(0.068264 -0.0089549 -0.00080026)
(0.067945 -0.01078 -0.00022426)
(0.067945 -0.010782 0.00022175)
(0.081127 -0.012542 -5.1579e-07)
(0.076717 -0.010036 0.00082564)
(0.076717 -0.010035 -0.00082644)
(0.076417 -0.012125 -0.00021963)
(0.076417 -0.012127 0.0002168)
(0.086154 -0.011139 0.00082449)
(0.086153 -0.011138 -0.00082586)
(0.085876 -0.013523 -0.00020605)
(0.085876 -0.013525 0.00020259)
(0.035599 -0.0003453 9.9094e-05)
(0.035527 -0.00014781 5.3227e-05)
(0.035549 -0.0001315 1.6499e-05)
(0.035424 -0.00014007 4.3894e-05)
(0.036029 -0.00085503 0.00019093)
(0.035848 -0.00050196 0.00016518)
(0.035874 -0.00046291 4.9105e-05)
(0.0357 -0.00051829 0.00012255)
(0.03718 -0.0015822 0.00030634)
(0.036685 -0.0010627 0.00031592)
(0.036713 -0.001025 8.0319e-05)
(0.036464 -0.0012249 0.00021203)
(0.039215 -0.0024576 0.00045245)
(0.038297 -0.0017982 0.0005169)
(0.038325 -0.0017459 0.00014927)
(0.038022 -0.0020977 0.00027486)
(0.042284 -0.0034006 0.00060397)
(0.040833 -0.0026428 0.00073471)
(0.040869 -0.0025815 0.00022725)
(0.040546 -0.0031148 0.00036488)
(0.046359 -0.0043521 0.00075458)
(0.044384 -0.0035032 0.00095738)
(0.044431 -0.0034312 0.00030013)
(0.04411 -0.004138 0.00046372)
(0.051416 -0.0053013 0.00089631)
(0.048936 -0.0043571 0.0011811)
(0.048992 -0.0042752 0.00036296)
(0.048679 -0.0051547 0.0005637)
(0.057457 -0.0062441 0.0010192)
(0.054477 -0.005201 0.0013989)
(0.054535 -0.0051177 0.00041752)
(0.054232 -0.006176 0.00066053)
(0.06447 -0.0071761 0.0011195)
(0.060996 -0.0060338 0.0015992)
(0.061054 -0.005964 0.00047055)
(0.060767 -0.0072027 0.00074926)
(0.072446 -0.0081007 0.0011975)
(0.068481 -0.0068589 0.0017808)
(0.068544 -0.006815 0.0005235)
(0.068272 -0.0082333 0.00083305)
(0.081392 -0.0090286 0.001252)
(0.076931 -0.0076834 0.0019439)
(0.077002 -0.0076815 0.00057625)
(0.076745 -0.0092803 0.00090661)
(0.086363 -0.0085159 0.0020908)
(0.086444 -0.0085715 0.00062823)
(0.086203 -0.010357 0.00096543)
(0.035661 -0.00029122 0.00013255)
(0.035572 -0.00012234 7.2269e-05)
(0.035608 -0.0001133 4.0212e-05)
(0.035489 -0.00012874 5.9471e-05)
(0.036154 -0.00070103 0.00029865)
(0.035919 -0.0004092 0.00023566)
(0.035969 -0.00039084 0.00013582)
(0.035802 -0.00045697 0.00020112)
(0.037347 -0.0012825 0.00052259)
(0.036791 -0.00085374 0.0004725)
(0.036855 -0.00084603 0.00028592)
(0.036617 -0.0010391 0.00044125)
(0.039407 -0.001992 0.00079044)
(0.038427 -0.0014327 0.00078894)
(0.0385 -0.0014236 0.00046097)
(0.038209 -0.0017679 0.00071157)
(0.042468 -0.0027564 0.0010768)
(0.040973 -0.0020977 0.001142)
(0.041055 -0.0020929 0.00065818)
(0.040744 -0.0026105 0.0010217)
(0.046531 -0.0035214 0.0013704)
(0.044519 -0.0027762 0.001503)
(0.04461 -0.0027745 0.00086705)
(0.044301 -0.0034603 0.0013434)
(0.051584 -0.0042781 0.0016621)
(0.049067 -0.0034503 0.0018623)
(0.049164 -0.0034474 0.0010806)
(0.048861 -0.0043023 0.0016697)
(0.057625 -0.0050276 0.0019416)
(0.054606 -0.0041171 0.0022135)
(0.054705 -0.0041192 0.0012962)
(0.054411 -0.0051469 0.0019989)
(0.064635 -0.0057709 0.0022057)
(0.061123 -0.0047752 0.0025496)
(0.061224 -0.0047949 0.0015076)
(0.06094 -0.0059911 0.0023198)
(0.072608 -0.0065117 0.0024565)
(0.068606 -0.005427 0.0028729)
(0.068711 -0.005474 0.0017153)
(0.068438 -0.0068355 0.002635)
(0.08155 -0.0072564 0.0026961)
(0.077055 -0.0060776 0.0031858)
(0.077168 -0.006163 0.0019215)
(0.076904 -0.0076893 0.0029473)
(0.086482 -0.0067326 0.0034915)
(0.086605 -0.0068663 0.0021272)
(0.086353 -0.0085611 0.0032578)
(0.035698 -0.00023841 0.00017725)
(0.03559 -9.6642e-05 9.6564e-05)
(0.035644 -9.2616e-05 6.3622e-05)
(0.035527 -0.00010945 8.2067e-05)
(0.036212 -0.00055732 0.00041398)
(0.035943 -0.00031913 0.000319)
(0.036017 -0.00031369 0.00021799)
(0.035856 -0.0003806 0.00028467)
(0.037426 -0.00099992 0.00074283)
(0.036824 -0.00065225 0.00065228)
(0.036921 -0.00066294 0.00047022)
(0.036694 -0.00084342 0.00063443)
(0.039498 -0.0015387 0.0011401)
(0.038468 -0.0010902 0.0010908)
(0.038583 -0.0011012 0.00077934)
(0.038305 -0.0014182 0.001058)
(0.04256 -0.0021201 0.0015654)
(0.041018 -0.0015879 0.0015887)
(0.041146 -0.0016027 0.0011282)
(0.040848 -0.0020731 0.001535)
(0.046621 -0.0027067 0.001993)
(0.044565 -0.0020968 0.0020977)
(0.044701 -0.0021189 0.0014871)
(0.044405 -0.0027423 0.0020236)
(0.051672 -0.0032878 0.0024148)
(0.049112 -0.0026022 0.0026031)
(0.049253 -0.0026349 0.0018463)
(0.048963 -0.0034114 0.0025115)
(0.057712 -0.0038593 0.0028263)
(0.05465 -0.0030996 0.0031007)
(0.054792 -0.0031526 0.0022087)
(0.054511 -0.0040831 0.003002)
(0.064721 -0.0044218 0.0032258)
(0.061167 -0.0035853 0.0035862)
(0.06131 -0.0036689 0.0025686)
(0.06104 -0.0047466 0.0034818)
(0.072693 -0.004979 0.0036157)
(0.068649 -0.0040616 0.0040625)
(0.068797 -0.004183 0.0029227)
(0.068537 -0.0054044 0.0039516)
(0.081634 -0.0055351 0.0039993)
(0.077097 -0.004532 0.0045335)
(0.077253 -0.0047006 0.0032765)
(0.077001 -0.0060651 0.0044185)
(0.086523 -0.0050009 0.0050028)
(0.086689 -0.005225 0.0036318)
(0.086448 -0.0067353 0.0048865)
(0.035698 -0.00017734 0.00023829)
(0.035572 -7.2347e-05 0.00012225)
(0.035644 -6.3736e-05 9.2523e-05)
(0.035527 -8.2185e-05 0.00010936)
(0.036212 -0.00041402 0.00055722)
(0.035919 -0.00023577 0.00040898)
(0.036017 -0.00021823 0.00031353)
(0.035856 -0.00028494 0.00038042)
(0.037426 -0.00074259 0.0010001)
(0.03679 -0.00047254 0.00085354)
(0.036921 -0.00047055 0.00066288)
(0.036694 -0.00063491 0.00084348)
(0.039498 -0.0011395 0.0015392)
(0.038427 -0.00078865 0.0014329)
(0.038583 -0.00077954 0.0011016)
(0.038305 -0.0010585 0.0014189)
(0.04256 -0.0015646 0.0021208)
(0.040973 -0.0011415 0.0020983)
(0.041146 -0.0011281 0.0016032)
(0.040848 -0.0015351 0.002074)
(0.046621 -0.0019922 0.0027075)
(0.044519 -0.0015025 0.0027768)
(0.044701 -0.0014868 0.0021196)
(0.044405 -0.0020236 0.0027434)
(0.051672 -0.002414 0.0032886)
(0.049067 -0.0018618 0.0034509)
(0.049253 -0.0018459 0.0026356)
(0.048963 -0.0025116 0.0034126)
(0.057712 -0.0028254 0.0038603)
(0.054606 -0.0022129 0.0041178)
(0.054792 -0.0022082 0.0031536)
(0.054511 -0.0030019 0.0040846)
(0.064721 -0.0032248 0.0044228)
(0.061123 -0.0025489 0.0047759)
(0.06131 -0.002568 0.0036699)
(0.06104 -0.0034814 0.0047477)
(0.072693 -0.0036144 0.0049802)
(0.068606 -0.0028719 0.0054279)
(0.068797 -0.002922 0.0041839)
(0.068537 -0.0039508 0.0054052)
(0.081633 -0.0039974 0.0055368)
(0.077054 -0.0031842 0.006079)
(0.077253 -0.0032755 0.0047021)
(0.077001 -0.0044175 0.0060665)
(0.086482 -0.0034892 0.0067345)
(0.086689 -0.0036306 0.0052269)
(0.086448 -0.0048853 0.006737)
(0.035661 -0.00013267 0.00029101)
(0.035527 -5.3244e-05 0.00014774)
(0.035608 -4.0375e-05 0.00011319)
(0.035489 -5.958e-05 0.00012857)
(0.036154 -0.00029886 0.00070064)
(0.035848 -0.00016527 0.00050168)
(0.035969 -0.00013618 0.00039065)
(0.035802 -0.00020142 0.00045671)
(0.037347 -0.00052284 0.001282)
(0.036685 -0.00031641 0.001062)
(0.036855 -0.00028673 0.00084591)
(0.036617 -0.00044247 0.0010395)
(0.039406 -0.00079065 0.0019919)
(0.038297 -0.0005176 0.0017972)
(0.038499 -0.00046205 0.0014239)
(0.038209 -0.00071378 0.0017693)
(0.042468 -0.001077 0.0027565)
(0.040833 -0.0007353 0.0026421)
(0.041055 -0.00065914 0.0020935)
(0.040744 -0.0010238 0.0026122)
(0.046531 -0.0013704 0.0035216)
(0.044384 -0.00095778 0.0035028)
(0.04461 -0.00086784 0.0027752)
(0.044301 -0.0013451 0.003462)
(0.051584 -0.001662 0.0042785)
(0.048936 -0.0011813 0.0043571)
(0.049164 -0.001081 0.003448)
(0.048861 -0.0016706 0.0043034)
(0.057625 -0.0019412 0.0050282)
(0.054477 -0.0013987 0.0052015)
(0.054705 -0.001296 0.0041198)
(0.054411 -0.0019991 0.0051478)
(0.064635 -0.0022049 0.0057717)
(0.060996 -0.0015986 0.0060344)
(0.061224 -0.0015074 0.0047958)
(0.06094 -0.0023197 0.0059921)
(0.072608 -0.0024551 0.0065129)
(0.06848 -0.0017796 0.0068598)
(0.068711 -0.0017148 0.0054752)
(0.068438 -0.0026344 0.0068365)
(0.08155 -0.002694 0.0072582)
(0.07693 -0.0019417 0.0076847)
(0.077167 -0.0019207 0.006165)
(0.076903 -0.0029464 0.0076908)
(0.086363 -0.0020876 0.0085177)
(0.086605 -0.0021264 0.0068692)
(0.086353 -0.003257 0.0085634)
(0.035599 -9.8958e-05 0.00034529)
(0.035458 -3.8333e-05 0.00016117)
(0.03555 -1.6543e-05 0.00013153)
(0.035425 -4.3837e-05 0.00014007)
(0.036029 -0.00019112 0.00085462)
(0.035727 -0.00011171 0.00057662)
(0.035874 -4.9434e-05 0.00046291)
(0.0357 -0.00012286 0.0005183)
(0.03718 -0.00030689 0.0015813)
(0.036506 -0.00019276 0.0012947)
(0.036713 -8.1184e-05 0.0010246)
(0.036464 -0.00021304 0.0012247)
(0.039215 -0.00045305 0.0024565)
(0.038083 -0.00028211 0.0023018)
(0.038325 -0.00015038 0.0017455)
(0.038021 -0.00027618 0.0020974)
(0.042284 -0.00060441 0.0033998)
(0.040603 -0.00037275 0.0034458)
(0.040869 -0.00022816 0.0025811)
(0.040545 -0.00036627 0.0031148)
(0.046359 -0.00075465 0.0043519)
(0.044155 -0.00046977 0.0045857)
(0.044431 -0.00030071 0.0034312)
(0.04411 -0.00046458 0.0041381)
(0.051416 -0.00089603 0.0053017)
(0.048711 -0.00057055 0.0057003)
(0.048992 -0.00036296 0.0042755)
(0.048678 -0.0005636 0.0051547)
(0.057456 -0.0010186 0.0062447)
(0.054253 -0.00066632 0.0067966)
(0.054534 -0.0004172 0.0051185)
(0.054232 -0.00066014 0.0061763)
(0.064469 -0.0011184 0.0071768)
(0.060775 -0.00074405 0.0078809)
(0.061054 -0.00047023 0.005965)
(0.060767 -0.00074903 0.0072035)
(0.072445 -0.0011956 0.0081016)
(0.068263 -0.00079816 0.0089552)
(0.068543 -0.00052313 0.0068166)
(0.068272 -0.0008333 0.008235)
(0.081391 -0.0012489 0.00903)
(0.076716 -0.00082354 0.010035)
(0.077001 -0.00057569 0.0076842)
(0.076745 -0.00090724 0.0092833)
(0.086154 -0.00082099 0.011139)
(0.086444 -0.00062774 0.0085758)
(0.086203 -0.00096672 0.010362)
(0.035503 8.3566e-08 0.00044367)
(0.035458 3.8538e-05 0.0001611)
(0.03533 3.0903e-06 0.00014328)
(0.03533 -2.9042e-06 0.00014338)
(0.035831 5.0802e-08 0.00113)
(0.035727 0.00011218 0.00057659)
(0.035526 1.4864e-05 0.00057759)
(0.035526 -1.4767e-05 0.00057729)
(0.036935 -2.0805e-08 0.0021831)
(0.036506 0.00019313 0.0012945)
(0.036196 2.5438e-05 0.0014574)
(0.036196 -2.5088e-05 0.0014575)
(0.038942 2.9169e-08 0.0034928)
(0.038083 0.00028267 0.0023016)
(0.037696 7.6938e-05 0.0026961)
(0.037696 -7.6112e-05 0.0026966)
(0.042008 1.5659e-07 0.0048697)
(0.040603 0.00037358 0.0034457)
(0.040199 0.00011268 0.0041025)
(0.040199 -0.0001118 0.0041029)
(0.04608 3.2274e-07 0.0062196)
(0.044155 0.00047098 0.0045855)
(0.043765 0.00014207 0.0054767)
(0.043765 -0.00014123 0.0054768)
(0.051137 4.5924e-07 0.0075358)
(0.048711 0.00057205 0.0056999)
(0.048337 0.00016965 0.0068145)
(0.048337 -0.00016865 0.0068145)
(0.05718 4.4538e-07 0.008824)
(0.054253 0.00066813 0.006796)
(0.053895 0.00019556 0.0081387)
(0.053895 -0.00019457 0.0081385)
(0.0642 2.5451e-07 0.010082)
(0.060775 0.00074548 0.0078805)
(0.060435 0.00021418 0.0094611)
(0.060435 -0.00021453 0.0094598)
(0.072179 -3.5327e-09 0.011313)
(0.068263 0.00079916 0.0089548)
(0.067944 0.00022082 0.010782)
(0.067944 -0.00022309 0.010779)
(0.081126 -2.4597e-07 0.012538)
(0.076716 0.00082411 0.010035)
(0.076416 0.0002149 0.012127)
(0.076416 -0.00021718 0.012125)
(0.086154 0.00082142 0.011138)
(0.085877 0.00019952 0.013524)
(0.085877 -0.0001999 0.013525)
(0.035598 -0.00034528 -0.00010015)
(0.035549 -0.00013152 -1.7109e-05)
(0.035526 -0.00014778 -5.3754e-05)
(0.035424 -0.00014018 -4.4583e-05)
(0.036029 -0.00085498 -0.00019282)
(0.035874 -0.00046289 -5.067e-05)
(0.035848 -0.00050193 -0.00016664)
(0.035699 -0.00051849 -0.00012432)
(0.03718 -0.0015821 -0.00030878)
(0.036713 -0.0010249 -8.2547e-05)
(0.036685 -0.0010625 -0.00031823)
(0.036464 -0.0012248 -0.00021424)
(0.039215 -0.0024574 -0.00045522)
(0.038325 -0.0017459 -0.000152)
(0.038297 -0.0017981 -0.00051957)
(0.038021 -0.0020978 -0.00027772)
(0.042284 -0.0034003 -0.00060671)
(0.040869 -0.0025813 -0.00023005)
(0.040833 -0.0026428 -0.00073763)
(0.040546 -0.0031149 -0.00036813)
(0.046359 -0.0043519 -0.00075671)
(0.044431 -0.0034311 -0.00030274)
(0.044384 -0.0035031 -0.0009599)
(0.04411 -0.0041379 -0.00046656)
(0.051416 -0.0053011 -0.00089791)
(0.048992 -0.0042753 -0.00036498)
(0.048937 -0.0043567 -0.0011832)
(0.048679 -0.0051545 -0.00056542)
(0.057456 -0.0062438 -0.0010206)
(0.054534 -0.0051176 -0.00041913)
(0.054477 -0.0052006 -0.0014008)
(0.054232 -0.0061755 -0.00066189)
(0.06447 -0.0071757 -0.0011206)
(0.061054 -0.005964 -0.00047196)
(0.060995 -0.0060334 -0.0016006)
(0.060767 -0.0072025 -0.00075063)
(0.072446 -0.0081004 -0.0011983)
(0.068544 -0.0068149 -0.00052464)
(0.06848 -0.0068585 -0.001782)
(0.068272 -0.008233 -0.00083409)
(0.081391 -0.0090283 -0.001253)
(0.077002 -0.0076813 -0.00057699)
(0.07693 -0.0076829 -0.0019451)
(0.076744 -0.0092795 -0.00090698)
(0.086443 -0.0085713 -0.00062957)
(0.086361 -0.0085155 -0.0020922)
(0.086202 -0.010357 -0.00096656)
(0.035707 -0.00028206 -5.5254e-07)
(0.035631 -0.00011999 1.2348e-05)
(0.035631 -0.00012 -1.2924e-05)
(0.036213 -0.00069343 -9.5107e-07)
(0.035995 -0.00040622 4.3816e-05)
(0.035995 -0.00040626 -4.5357e-05)
(0.037402 -0.0012642 -1.2213e-06)
(0.036882 -0.00085476 0.00010258)
(0.036882 -0.00085475 -0.00010484)
(0.03947 -0.0019444 -1.3911e-06)
(0.038527 -0.0014273 0.0001481)
(0.038527 -0.0014273 -0.0001508)
(0.042552 -0.0026873 -1.3548e-06)
(0.041091 -0.0020902 0.00020152)
(0.041091 -0.0020902 -0.00020451)
(0.046638 -0.0034445 -1.1701e-06)
(0.044657 -0.0027731 0.00026325)
(0.044657 -0.002773 -0.00026603)
(0.051703 -0.0042064 -9.0557e-07)
(0.04922 -0.0034566 0.00033511)
(0.04922 -0.0034564 -0.00033718)
(0.057743 -0.0049679 -7.3733e-07)
(0.054762 -0.0041371 0.00041361)
(0.054762 -0.0041371 -0.00041528)
(0.06476 -0.0057278 -6.6677e-07)
(0.061282 -0.0048142 0.00048768)
(0.061282 -0.0048141 -0.00048927)
(0.072745 -0.006493 -5.2215e-07)
(0.068775 -0.0054938 0.00055851)
(0.068774 -0.0054936 -0.00055987)
(0.081705 -0.0072713 -5.7961e-07)
(0.077238 -0.0061833 0.00062735)
(0.077238 -0.0061831 -0.00062849)
(0.086686 -0.0068872 0.00069448)
(0.086685 -0.006887 -0.0006961)
(0.035775 -0.00023514 6.5718e-05)
(0.03568 -9.6736e-05 4.2168e-05)
(0.035696 -9.5426e-05 1.5951e-05)
(0.036334 -0.00056384 0.00015108)
(0.036067 -0.00032453 0.0001412)
(0.036091 -0.0003211 5.0724e-05)
(0.037566 -0.0010163 0.00025344)
(0.036985 -0.00067502 0.000292)
(0.037019 -0.00066729 9.7613e-05)
(0.039657 -0.0015599 0.00036416)
(0.038655 -0.001108 0.00046443)
(0.038695 -0.0011146 0.00015453)
(0.042735 -0.0021523 0.00048972)
(0.041228 -0.0016085 0.00066055)
(0.04127 -0.0016307 0.00021777)
(0.046812 -0.0027539 0.00063067)
(0.044792 -0.00213 0.00086994)
(0.044833 -0.0021603 0.00028812)
(0.051873 -0.0033552 0.00078151)
(0.04935 -0.0026563 0.0010895)
(0.049391 -0.0026846 0.00036254)
(0.057913 -0.0039547 0.00093045)
(0.054891 -0.003182 0.0013131)
(0.054931 -0.0032056 0.0004369)
(0.064929 -0.0045538 0.0010731)
(0.061411 -0.0037026 0.0015294)
(0.06145 -0.0037278 0.00050911)
(0.072914 -0.0051575 0.0012126)
(0.068902 -0.0042237 0.0017415)
(0.06894 -0.0042528 0.00058005)
(0.081874 -0.0057708 0.0013506)
(0.077366 -0.0047506 0.0019524)
(0.077402 -0.0047852 0.00065063)
(0.086812 -0.0052858 0.0021632)
(0.086846 -0.0053274 0.00072084)
(0.035814 -0.00018365 0.00012012)
(0.035699 -7.0006e-05 6.9873e-05)
(0.035733 -7.024e-05 4.0301e-05)
(0.036391 -0.00043146 0.00028638)
(0.036091 -0.000234 0.00023373)
(0.036139 -0.00023392 0.00013629)
(0.037644 -0.00076358 0.00050612)
(0.037018 -0.00048425 0.00048388)
(0.037085 -0.00048033 0.00028648)
(0.039747 -0.0011576 0.00075985)
(0.038697 -0.00078591 0.00078574)
(0.038776 -0.0007935 0.00047226)
(0.042827 -0.0015893 0.0010377)
(0.041274 -0.0011319 0.0011318)
(0.041359 -0.0011521 0.00068266)
(0.046901 -0.0020339 0.0013272)
(0.044837 -0.0014953 0.0014954)
(0.044922 -0.0015239 0.00090095)
(0.051959 -0.0024818 0.0016222)
(0.049394 -0.0018658 0.0018662)
(0.049477 -0.0018948 0.0011195)
(0.057998 -0.0029265 0.0019153)
(0.054934 -0.002238 0.0022385)
(0.055016 -0.0022648 0.0013389)
(0.065014 -0.0033673 0.0022028)
(0.061453 -0.0026035 0.0026041)
(0.061534 -0.0026342 0.0015579)
(0.072999 -0.0038094 0.0024884)
(0.068945 -0.0029663 0.002967)
(0.069023 -0.0030038 0.0017749)
(0.081958 -0.0042559 0.0027745)
(0.077409 -0.0033309 0.0033319)
(0.077484 -0.0033768 0.0019926)
(0.086854 -0.0036989 0.0037)
(0.086924 -0.0037546 0.0022115)
(0.035814 -0.00012035 0.00018348)
(0.03568 -4.2341e-05 9.6624e-05)
(0.035733 -4.0441e-05 7.0114e-05)
(0.036391 -0.0002868 0.00043123)
(0.036067 -0.0001416 0.00032432)
(0.036139 -0.0001366 0.00023366)
(0.037644 -0.00050661 0.00076347)
(0.036985 -0.0002927 0.00067484)
(0.037085 -0.00028701 0.00047997)
(0.039747 -0.00076025 0.0011577)
(0.038655 -0.00046518 0.0011081)
(0.038776 -0.00047275 0.0007933)
(0.042826 -0.0010379 0.0015896)
(0.041228 -0.00066121 0.0016089)
(0.041359 -0.00068302 0.0011521)
(0.046901 -0.0013271 0.0020344)
(0.044792 -0.0008703 0.0021305)
(0.044922 -0.00090107 0.0015241)
(0.051959 -0.001622 0.0024824)
(0.04935 -0.0010896 0.0026569)
(0.049477 -0.0011194 0.0018951)
(0.057998 -0.0019149 0.0029272)
(0.054891 -0.0013131 0.0031826)
(0.055016 -0.0013386 0.0022653)
(0.065014 -0.0022023 0.0033681)
(0.06141 -0.0015291 0.0037034)
(0.061533 -0.0015575 0.0026349)
(0.072999 -0.0024877 0.0038104)
(0.068902 -0.0017411 0.0042247)
(0.069023 -0.0017745 0.0030045)
(0.081958 -0.0027737 0.0042573)
(0.077366 -0.0019519 0.0047521)
(0.077484 -0.0019921 0.0033779)
(0.086812 -0.0021627 0.0052879)
(0.086925 -0.0022111 0.0037558)
(0.035776 -6.6049e-05 0.00023499)
(0.035631 -1.2546e-05 0.0001199)
(0.035696 -1.6145e-05 9.5302e-05)
(0.036334 -0.00015177 0.00056366)
(0.035995 -4.4311e-05 0.00040607)
(0.036091 -5.1176e-05 0.00032085)
(0.037566 -0.00025445 0.0010163)
(0.036882 -0.00010355 0.00085454)
(0.037019 -9.8423e-05 0.00066696)
(0.039656 -0.00036525 0.0015602)
(0.038527 -0.00014929 0.0014272)
(0.038695 -0.00015541 0.0011145)
(0.042735 -0.00049066 0.0021528)
(0.041091 -0.00020261 0.0020903)
(0.04127 -0.00021858 0.0016309)
(0.046812 -0.00063123 0.0027544)
(0.044657 -0.00026397 0.0027734)
(0.044833 -0.0002887 0.0021607)
(0.051872 -0.00078174 0.0033559)
(0.04922 -0.00033539 0.003457)
(0.04939 -0.00036278 0.002685)
(0.057913 -0.00093041 0.0039555)
(0.054762 -0.00041346 0.0041379)
(0.054931 -0.00043691 0.0032063)
(0.064929 -0.0010728 0.0045548)
(0.061282 -0.00048754 0.0048151)
(0.06145 -0.00050894 0.0037286)
(0.072913 -0.0012123 0.0051591)
(0.068774 -0.00055828 0.0054951)
(0.06894 -0.00057985 0.0042539)
(0.081873 -0.0013503 0.005773)
(0.077238 -0.00062713 0.0061856)
(0.077402 -0.00065052 0.0047869)
(0.086686 -0.00069456 0.0068905)
(0.086846 -0.00072107 0.0053296)
(0.035708 1.7901e-07 0.00028196)
(0.03555 1.6753e-05 0.00013156)
(0.035631 1.2725e-05 0.0001199)
(0.036213 1.8823e-07 0.00069324)
(0.035874 4.9865e-05 0.00046289)
(0.035995 4.4804e-05 0.00040602)
(0.037401 1.7733e-07 0.001264)
(0.036713 8.1478e-05 0.0010247)
(0.036882 0.00010394 0.00085438)
(0.039469 3.5388e-07 0.0019443)
(0.038325 0.00015087 0.0017457)
(0.038527 0.00014981 0.001427)
(0.042552 6.0651e-07 0.0026874)
(0.040869 0.00022924 0.0025815)
(0.04109 0.00020357 0.0020901)
(0.046638 8.5832e-07 0.0034448)
(0.044431 0.00030222 0.0034314)
(0.044657 0.00026544 0.0027733)
(0.051703 1.0446e-06 0.004207)
(0.048992 0.00036491 0.0042758)
(0.049219 0.00033718 0.0034569)
(0.057742 1.0146e-06 0.0049688)
(0.054534 0.00041934 0.0051184)
(0.054762 0.00041568 0.0041379)
(0.064759 8.5423e-07 0.005729)
(0.061054 0.00047204 0.0059649)
(0.061282 0.00048954 0.004815)
(0.072744 7.4011e-07 0.0064951)
(0.068543 0.00052468 0.0068162)
(0.068774 0.00056014 0.0054951)
(0.081705 6.7999e-07 0.0072748)
(0.077001 0.00057705 0.007684)
(0.077238 0.00062858 0.0061856)
(0.086443 0.00062913 0.008576)
(0.086686 0.00069552 0.0068906)
(0.035599 9.9302e-05 0.00034536)
(0.035527 5.3362e-05 0.00014773)
(0.035424 4.4136e-05 0.00014024)
(0.036029 0.00019155 0.00085476)
(0.035848 0.00016573 0.00050164)
(0.0357 0.00012331 0.00051837)
(0.03718 0.00030734 0.0015816)
(0.036685 0.00031694 0.0010619)
(0.036464 0.00021331 0.0012245)
(0.039214 0.00045374 0.0024569)
(0.038297 0.0005181 0.0017974)
(0.038021 0.000277 0.0020977)
(0.042284 0.00060549 0.0034001)
(0.040833 0.0007361 0.0026423)
(0.040545 0.00036757 0.0031152)
(0.046358 0.00075602 0.004352)
(0.044383 0.00095899 0.0035027)
(0.04411 0.0004662 0.0041384)
(0.051415 0.00089768 0.0053015)
(0.048936 0.0011827 0.0043567)
(0.048678 0.00056542 0.0051551)
(0.057456 0.0010204 0.0062444)
(0.054476 0.0014005 0.005201)
(0.054232 0.00066223 0.0061764)
(0.064469 0.0011201 0.0071763)
(0.060995 0.0016005 0.0060337)
(0.060767 0.00075036 0.007203)
(0.072445 0.0011969 0.008101)
(0.06848 0.0017814 0.0068587)
(0.068272 0.00083396 0.0082339)
(0.08139 0.0012496 0.0090294)
(0.07693 0.0019428 0.0076837)
(0.076744 0.00090798 0.0092827)
(0.086362 0.0020874 0.0085174)
(0.086203 0.00096859 0.010363)
(0.03566 -0.00029117 -0.00013349)
(0.035608 -0.00011331 -4.0762e-05)
(0.035571 -0.00012235 -7.2801e-05)
(0.035488 -0.00012879 -6.0065e-05)
(0.036153 -0.00070091 -0.00030049)
(0.035969 -0.00039085 -0.0001373)
(0.035919 -0.00040915 -0.00023717)
(0.035801 -0.00045703 -0.00020262)
(0.037347 -0.0012823 -0.00052507)
(0.036854 -0.00084601 -0.0002883)
(0.03679 -0.00085365 -0.0004748)
(0.036617 -0.0010392 -0.00044368)
(0.039406 -0.0019921 -0.0007933)
(0.038499 -0.0014236 -0.0004637)
(0.038427 -0.0014327 -0.00079166)
(0.038209 -0.0017679 -0.00071433)
(0.042468 -0.0027564 -0.0010798)
(0.041055 -0.0020929 -0.00066103)
(0.040973 -0.0020979 -0.001145)
(0.040744 -0.0026106 -0.0010247)
(0.046531 -0.0035211 -0.0013727)
(0.04461 -0.0027745 -0.00086985)
(0.044519 -0.0027761 -0.0015059)
(0.044301 -0.0034602 -0.0013462)
(0.051584 -0.0042777 -0.0016641)
(0.049164 -0.0034473 -0.0010829)
(0.049067 -0.0034498 -0.0018645)
(0.048861 -0.0043019 -0.0016717)
(0.057625 -0.0050271 -0.0019434)
(0.054705 -0.0041187 -0.001298)
(0.054606 -0.0041166 -0.0022156)
(0.054411 -0.0051462 -0.0020008)
(0.064635 -0.0057705 -0.0022071)
(0.061223 -0.0047946 -0.0015092)
(0.061123 -0.0047747 -0.0025513)
(0.06094 -0.0059906 -0.0023213)
(0.072608 -0.0065112 -0.0024579)
(0.068711 -0.0054736 -0.0017167)
(0.068606 -0.0054265 -0.0028744)
(0.068438 -0.0068349 -0.0026362)
(0.081549 -0.0072559 -0.0026977)
(0.077167 -0.0061623 -0.0019227)
(0.077054 -0.0060769 -0.0031875)
(0.076903 -0.007688 -0.0029479)
(0.086604 -0.0068658 -0.0021288)
(0.086481 -0.006732 -0.0034934)
(0.086352 -0.00856 -0.0032589)
(0.035775 -0.00023517 -6.6758e-05)
(0.035695 -9.5427e-05 -1.6489e-05)
(0.03568 -9.6755e-05 -4.2734e-05)
(0.036334 -0.00056386 -0.000153)
(0.036091 -0.00032108 -5.2189e-05)
(0.036066 -0.00032456 -0.00014274)
(0.037565 -0.0010163 -0.00025595)
(0.037019 -0.0006673 -9.9946e-05)
(0.036985 -0.00067503 -0.00029431)
(0.039657 -0.00156 -0.00036697)
(0.038695 -0.0011146 -0.00015721)
(0.038655 -0.001108 -0.00046716)
(0.042735 -0.0021524 -0.00049256)
(0.04127 -0.0016309 -0.00022058)
(0.041228 -0.0016086 -0.00066353)
(0.046812 -0.0027537 -0.00063309)
(0.044833 -0.0021603 -0.00029081)
(0.044792 -0.00213 -0.00087274)
(0.051872 -0.0033549 -0.00078353)
(0.049391 -0.0026845 -0.00036499)
(0.04935 -0.0026559 -0.0010915)
(0.057913 -0.0039546 -0.00093225)
(0.054931 -0.0032056 -0.00043901)
(0.054891 -0.0031818 -0.0013152)
(0.064928 -0.0045535 -0.0010746)
(0.06145 -0.0037277 -0.00051085)
(0.06141 -0.0037024 -0.0015312)
(0.072913 -0.0051572 -0.001214)
(0.06894 -0.0042527 -0.00058161)
(0.068902 -0.0042234 -0.0017431)
(0.081873 -0.0057704 -0.0013521)
(0.077402 -0.0047851 -0.00065211)
(0.077365 -0.0047501 -0.001954)
(0.086845 -0.0053272 -0.00072271)
(0.086811 -0.0052854 -0.0021651)
(0.035848 -0.00017991 -5.0523e-07)
(0.035748 -7.0321e-05 1.1787e-05)
(0.035748 -7.0326e-05 -1.2319e-05)
(0.036453 -0.00042635 -9.5232e-07)
(0.036164 -0.00023463 4.1999e-05)
(0.036163 -0.00023464 -4.3473e-05)
(0.037719 -0.00076564 -1.2513e-06)
(0.037119 -0.000482 9.3236e-05)
(0.037119 -0.00048201 -9.5536e-05)
(0.039831 -0.001176 -1.3385e-06)
(0.038816 -0.00079667 0.00015667)
(0.038815 -0.00079665 -0.00015936)
(0.04291 -0.0016212 -1.3433e-06)
(0.041401 -0.0011594 0.00022946)
(0.041401 -0.0011592 -0.0002323)
(0.046982 -0.0020697 -1.3227e-06)
(0.044963 -0.0015333 0.00030208)
(0.044963 -0.0015332 -0.00030483)
(0.05204 -0.0025157 -1.1875e-06)
(0.049518 -0.0019057 0.0003733)
(0.049518 -0.0019057 -0.00037583)
(0.058079 -0.002962 -9.8816e-07)
(0.055057 -0.0022773 0.00044596)
(0.055057 -0.0022772 -0.00044809)
(0.065091 -0.0034097 -8.5545e-07)
(0.061573 -0.002649 0.00051902)
(0.061573 -0.0026489 -0.0005209)
(0.073073 -0.0038614 -8.005e-07)
(0.069061 -0.0030219 0.00059166)
(0.069061 -0.0030218 -0.0005934)
(0.082029 -0.0043198 -8.8177e-07)
(0.07752 -0.0033992 0.00066452)
(0.07752 -0.0033991 -0.00066626)
(0.086959 -0.0037821 0.00073783)
(0.086959 -0.003782 -0.00073993)
(0.035888 -0.00012168 5.7637e-05)
(0.035767 -4.1093e-05 4.095e-05)
(0.035785 -4.3736e-05 1.3862e-05)
(0.036511 -0.00028643 0.00014002)
(0.036188 -0.00013847 0.00013815)
(0.036212 -0.00014407 4.6436e-05)
(0.037795 -0.00051091 0.00025327)
(0.037152 -0.00028844 0.00028794)
(0.037184 -0.00029113 9.6129e-05)
(0.039917 -0.00078024 0.00038732)
(0.038855 -0.0004763 0.00047587)
(0.038894 -0.00047783 0.00015775)
(0.042997 -0.0010725 0.00053176)
(0.041444 -0.00069174 0.00069145)
(0.041486 -0.00069201 0.00022822)
(0.047068 -0.0013686 0.00067722)
(0.045007 -0.00091284 0.00091276)
(0.045049 -0.00091496 0.0003017)
(0.052124 -0.0016645 0.00082298)
(0.049561 -0.0011332 0.0011333)
(0.049602 -0.0011381 0.00037539)
(0.058161 -0.0019605 0.00096957)
(0.055098 -0.0013543 0.0013546)
(0.055139 -0.0013607 0.00044908)
(0.065171 -0.0022566 0.0011159)
(0.061614 -0.0015756 0.001576)
(0.061652 -0.0015828 0.00052277)
(0.073151 -0.0025543 0.0012622)
(0.069101 -0.0017967 0.0017971)
(0.069138 -0.0018053 0.00059604)
(0.082105 -0.0028552 0.0014093)
(0.077559 -0.0020196 0.0020201)
(0.077594 -0.00203 0.00066972)
(0.086996 -0.0022449 0.0022453)
(0.087027 -0.0022573 0.00074383)
(0.035888 -5.787e-05 0.00012146)
(0.035748 -1.1947e-05 7.0189e-05)
(0.035785 -1.4015e-05 4.3595e-05)
(0.036511 -0.00014048 0.00028606)
(0.036164 -4.2377e-05 0.00023434)
(0.036212 -4.6789e-05 0.00014375)
(0.037795 -0.00025386 0.00051051)
(0.037119 -9.3901e-05 0.00048158)
(0.037184 -9.6762e-05 0.00029062)
(0.039917 -0.00038781 0.00077997)
(0.038815 -0.00015738 0.00079639)
(0.038894 -0.00015841 0.00047737)
(0.042997 -0.00053207 0.0010724)
(0.0414 -0.00023 0.0011593)
(0.041486 -0.00022881 0.00069172)
(0.047068 -0.00067733 0.0013688)
(0.044963 -0.00030243 0.0015334)
(0.045049 -0.00030205 0.00091486)
(0.052124 -0.00082289 0.0016649)
(0.049518 -0.0003734 0.001906)
(0.049602 -0.00037551 0.0011383)
(0.05816 -0.00096935 0.001961)
(0.055057 -0.00044583 0.0022778)
(0.055139 -0.00044904 0.001361)
(0.065171 -0.0011156 0.0022572)
(0.061573 -0.00051887 0.0026496)
(0.061652 -0.00052265 0.0015832)
(0.073151 -0.0012619 0.002555)
(0.069061 -0.00059155 0.0030226)
(0.069138 -0.00059599 0.0018057)
(0.082105 -0.0014092 0.002856)
(0.07752 -0.00066456 0.0034003)
(0.077594 -0.00066985 0.0020305)
(0.086959 -0.0007382 0.0037834)
(0.087027 -0.00074428 0.0022578)
(0.035849 1.8429e-07 0.00017969)
(0.035696 1.6302e-05 9.5293e-05)
(0.035748 1.2123e-05 7.0179e-05)
(0.036453 3.3302e-07 0.00042599)
(0.036091 5.172e-05 0.00032079)
(0.036164 4.3003e-05 0.00023432)
(0.037719 4.2679e-07 0.00076531)
(0.037019 9.9092e-05 0.00066684)
(0.037119 9.4719e-05 0.00048154)
(0.039831 5.8006e-07 0.0011759)
(0.038695 0.00015626 0.0011143)
(0.038815 0.00015846 0.00079631)
(0.042909 7.55e-07 0.0016214)
(0.04127 0.0002198 0.0016308)
(0.0414 0.00023149 0.0011592)
(0.046981 9.3737e-07 0.00207)
(0.044833 0.00029027 0.0021605)
(0.044963 0.00030419 0.0015334)
(0.05204 1.0979e-06 0.0025163)
(0.04939 0.00036477 0.0026849)
(0.049518 0.00037546 0.001906)
(0.058079 1.0652e-06 0.0029627)
(0.054931 0.00043906 0.0032061)
(0.055057 0.00044808 0.0022778)