/*--------------------------------*- C++ -*----------------------------------*\
| =========                 |                                                 |
| \\      /  F ield         | OpenFOAM: The Open Source CFD Toolbox           |
|  \\    /   O peration     | Version:  4.1                                   |
|   \\  /    A nd           | Web:      www.OpenFOAM.org                      |
|    \\/     M anipulation  |                                                 |
\*---------------------------------------------------------------------------*/
FoamFile
{
    version     2.0;
    format      ascii;
    class       volVectorField;
    location    "0.000100";
    object      wallShearStress;
}
// * * * * * * * * * * * * * * * * * * * * * * * * * * * * * * * * * * * * * //

dimensions      [0 2 -2 0 0 0 0];

internalField   uniform (0 0 0);

boundaryField
{
    inlet
    {
        type            calculated;
        value           uniform (0 0 0);
    }
    outlet
    {
        type            calculated;
        value           uniform (0 0 0);
    }
    mantle
    {
        type            calculated;
        value           nonuniform List<vector> 
1536
(
(-0.043304321 0.0040280289 -0.00043861667)
(-0.044430309 0.0038723952 -0.0011802399)
(-0.045099978 0.0034768978 -0.001870737)
(-0.045417708 0.0031307291 -0.0024613289)
(-0.045915587 0.0024168263 -0.0029551248)
(-0.04522988 0.0019059237 -0.0035074317)
(-0.04504044 0.0011859575 -0.00376637)
(-0.044076063 0.0003826375 -0.003954359)
(-0.048569233 0.0032528389 -0.00039325444)
(-0.049285451 0.0032830209 -0.00098741805)
(-0.049685545 0.0030453537 -0.0016387604)
(-0.049901971 0.0027634099 -0.0022082886)
(-0.05010314 0.002152271 -0.0026260925)
(-0.05003277 0.0016606743 -0.0031219529)
(-0.04988159 0.00095947885 -0.0032115201)
(-0.049417813 0.00034755037 -0.0031587305)
(-0.05235279 0.0030964598 -0.0003789551)
(-0.052817873 0.0030694055 -0.00091992259)
(-0.05306117 0.002862754 -0.0015308937)
(-0.05321196 0.0025584764 -0.0020546021)
(-0.053351645 0.0020789772 -0.0024856655)
(-0.053407944 0.0015627501 -0.0028551135)
(-0.053401258 0.00093731548 -0.003031744)
(-0.053164742 0.0003716384 -0.0030433918)
(-0.056684104 0.0035286775 -0.0004587343)
(-0.056729194 0.0033392151 -0.0010382386)
(-0.056744864 0.0030645062 -0.0016616153)
(-0.056794662 0.0026999012 -0.0021879801)
(-0.056937456 0.0022379174 -0.0026500892)
(-0.057128874 0.001719406 -0.0030593395)
(-0.057382648 0.0010799145 -0.0033476557)
(-0.057590716 0.0004700146 -0.0035420433)
(-0.061296408 0.0040190303 -0.00054469153)
(-0.060832227 0.0036910723 -0.0011778507)
(-0.060564023 0.0033423819 -0.001833616)
(-0.06048624 0.0029192635 -0.0023788432)
(-0.060629132 0.0024323234 -0.0028753228)
(-0.060980574 0.0018941336 -0.003333694)
(-0.061532447 0.0012243793 -0.0037029704)
(-0.062273027 0.0005636279 -0.0040488384)
(-0.066290796 0.0044820379 -0.00062402165)
(-0.065209469 0.0040301659 -0.0013062493)
(-0.064599121 0.0036158677 -0.0019971512)
(-0.064364832 0.0031389628 -0.0025630576)
(-0.064508867 0.002621234 -0.0030920742)
(-0.065029088 0.002058245 -0.0035950131)
(-0.065933951 0.001356572 -0.0040295488)
(-0.067309281 0.00064873067 -0.0045058636)
(-0.071369455 0.0048131122 -0.00068319726)
(-0.069602032 0.0042571122 -0.0013899461)
(-0.068621247 0.0037928369 -0.0020994534)
(-0.068215171 0.0032757767 -0.0026727852)
(-0.068359286 0.0027369025 -0.0032185058)
(-0.069054249 0.0021620773 -0.0037533596)
(-0.070335495 0.001443188 -0.0042323067)
(-0.072408845 0.00071130118 -0.0048122566)
(-0.076418393 0.0050464599 -0.0007287438)
(-0.073900711 0.0043985255 -0.0014399174)
(-0.07251655 0.0038962304 -0.0021541925)
(-0.071921815 0.0033499982 -0.0027259512)
(-0.072059711 0.0027961268 -0.0032770527)
(-0.072934107 0.0022188514 -0.0038310041)
(-0.074612754 0.00149314 -0.0043385273)
(-0.077435579 0.00075454961 -0.0050017503)
(-0.081366616 0.0050254504 -0.0007344392)
(-0.078057145 0.0043285341 -0.0014101634)
(-0.076254074 0.0038177768 -0.0020992907)
(-0.075464259 0.0032690971 -0.0026456237)
(-0.075590279 0.0027249379 -0.003178425)
(-0.076641567 0.0021678141 -0.0037239658)
(-0.078722767 0.001465882 -0.0042304003)
(-0.082324335 0.00075910504 -0.0049318063)
(-0.085677963 0.0048124908 -0.00071259522)
(-0.081613329 0.0040929905 -0.0013217384)
(-0.079409101 0.0035916265 -0.0019597297)
(-0.078428984 0.0030611381 -0.0024592971)
(-0.078536531 0.0025471918 -0.0029530527)
(-0.079744049 0.0020315871 -0.0034697313)
(-0.082192272 0.0013770294 -0.0039534394)
(-0.086516144 0.00073437982 -0.0046627124)
(-0.089552997 0.0043619703 -0.00065630454)
(-0.084746878 0.0036711859 -0.0011699951)
(-0.082148069 0.0032102707 -0.0017349685)
(-0.080979516 0.0027261435 -0.0021693467)
(-0.081065494 0.0022658998 -0.0026042631)
(-0.082415151 0.0018115624 -0.0030674663)
(-0.085210635 0.0012272186 -0.0035021068)
(-0.090229843 0.00067749659 -0.0041711119)
(-0.092289489 0.0036869919 -0.00056973305)
(-0.08690922 0.0030670519 -0.00095564871)
(-0.084005156 0.0026712649 -0.0014215945)
(-0.082688125 0.002256965 -0.0017696368)
(-0.082750011 0.0018723218 -0.0021241711)
(-0.084195339 0.0015016795 -0.0025107593)
(-0.087240358 0.0010117546 -0.0028737498)
(-0.092772926 0.0005875303 -0.0034596703)
(-0.094085858 0.0030332946 -0.00048930196)
(-0.088250613 0.0024854238 -0.00074883271)
(-0.085092416 0.0021519632 -0.0011201004)
(-0.083647424 0.0018029605 -0.001385241)
(-0.083681153 0.001493465 -0.0016638391)
(-0.0851948 0.0012033089 -0.0019800419)
(-0.088429905 0.00080550544 -0.0022797786)
(-0.094347033 0.00050528312 -0.0027861838)
(-0.09497263 0.0023522151 -0.00040899562)
(-0.088811779 0.0018866223 -0.00054054935)
(-0.085463404 0.0016212054 -0.00081547706)
(-0.083916421 0.001342886 -0.00099867117)
(-0.083921515 0.0011091237 -0.0012015332)
(-0.085475099 0.00089886331 -0.0014427659)
(-0.088834822 0.00059730728 -0.0016721425)
(-0.095002983 0.00042314283 -0.0020898869)
(-0.094931905 0.0016087478 -0.00031781111)
(-0.088586294 0.0012424287 -0.00031888018)
(-0.085114015 0.0010546465 -0.00049384099)
(-0.083495927 0.00085412549 -0.00059283231)
(-0.083471085 0.00069990375 -0.00071555165)
(-0.085032053 0.00057197611 -0.00087496006)
(-0.088437348 0.00037417557 -0.0010249243)
(-0.094714959 0.0003320188 -0.0013391057)
(-0.093965367 0.0008267159 -0.00021836124)
(-0.087581413 0.00057574664 -8.8749652e-05)
(-0.084058736 0.00047469246 -0.00016367939)
(-0.08240073 0.00035688928 -0.00018226108)
(-0.082341796 0.00028325786 -0.00022550097)
(-0.083875198 0.00023782995 -0.00030341019)
(-0.087259816 0.00014514762 -0.00037415853)
(-0.093508103 0.00023427388 -0.00058126893)
(-0.092156922 2.4936916e-05 -0.00011045939)
(-0.085875135 -0.00010004537 0.00014199271)
(-0.082380338 -0.00010943879 0.0001667596)
(-0.080720533 -0.00013869581 0.00022333857)
(-0.080636726 -0.00013139597 0.0002549627)
(-0.082121876 -9.7017431e-05 0.00025852203)
(-0.085427669 -8.3166301e-05 0.00027000356)
(-0.09152424 0.00013151503 0.00017471386)
(-0.08963294 -0.00073740036 -1.0478971e-05)
(-0.083577453 -0.00074155927 0.00035039719)
(-0.08017881 -0.00066123565 0.00047063483)
(-0.078553219 -0.0006035061 0.00059776499)
(-0.078450734 -0.00051837611 0.00069976077)
(-0.079866478 -0.00040857354 0.00078018466)
(-0.083041144 -0.0002953062 0.00087006557)
(-0.088879645 3.2889779e-05 0.00088181663)
(-0.086470602 -0.0014169155 7.5764153e-05)
(-0.080753816 -0.0013141964 0.00052781695)
(-0.07751549 -0.0011569088 0.00073655608)
(-0.075956309 -0.0010200211 0.00092824145)
(-0.075840563 -0.00086267011 0.0010956268)
(-0.07716762 -0.0006824674 0.001243129)
(-0.080160907 -0.00048068791 0.0014010879)
(-0.08564046 -5.6373527e-05 0.0015071245)
(-0.082818518 -0.0019792998 0.00014877544)
(-0.077529598 -0.0017894078 0.00066992944)
(-0.074502994 -0.0015700317 0.00095256501)
(-0.073034631 -0.0013675363 0.001199898)
(-0.072912021 -0.0011479568 0.0014225596)
(-0.074136784 -0.00090690047 0.0016255707)
(-0.076909692 -0.0006302252 0.0018384325)
(-0.081954317 -0.00013196608 0.0020200513)
(-0.078828309 -0.0024469167 0.00021418415)
(-0.074031932 -0.00218521 0.00078684)
(-0.071255186 -0.0019144047 0.0011312897)
(-0.069897293 -0.0016566686 0.0014251919)
(-0.069772891 -0.0013846848 0.0016934204)
(-0.070884106 -0.0010924475 0.0019426661)
(-0.073407315 -0.00075326748 0.0022002096)
(-0.077963783 -0.00019935683 0.0024446339)
(-0.074596013 -0.0028019999 0.000268755)
(-0.070335631 -0.0024886488 0.00087306476)
(-0.067837545 -0.0021793903 0.0012663095)
(-0.066606746 -0.0018785999 0.0015966655)
(-0.066485192 -0.0015653744 0.0019001059)
(-0.06747542 -0.0012323459 0.0021845738)
(-0.069729224 -0.00084355134 0.0024740835)
(-0.073762882 -0.00025468941 0.0027637143)
(-0.070294603 -0.0030546037 0.00031303849)
(-0.06658973 -0.0027069488 0.00093197108)
(-0.064387571 -0.0023710922 0.0013616384)
(-0.063294951 -0.0020392129 0.0017190894)
(-0.063180179 -0.0016952207 0.0020488429)
(-0.064046128 -0.0013312843 0.0023589315)
(-0.066021523 -0.00090511655 0.0026700373)
(-0.069520095 -0.00029947019 0.002989695)
(-0.065976466 -0.0032094247 0.00034727639)
(-0.062833955 -0.0028447509 0.00096630116)
(-0.060939804 -0.0024944414 0.0014209365)
(-0.05999298 -0.0021433007 0.0017972109)
(-0.059888939 -0.0017783798 0.0021447976)
(-0.060630135 -0.0013930151 0.002470545)
(-0.062322411 -0.00094100191 0.0027929739)
(-0.065286204 -0.00033406232 0.0031283721)
(-0.061794657 -0.0032637076 0.00036956712)
(-0.059196958 -0.0028978279 0.0009748345)
(-0.057606569 -0.0025447017 0.0014426965)
(-0.056805689 -0.0021851464 0.0018282457)
(-0.056715825 -0.0018101354 0.0021847334)
(-0.057340135 -0.001414283 0.0025173569)
(-0.058761232 -0.00094931469 0.0028417406)
(-0.061217115 -0.00035581375 0.0031807803)
(-0.057817767 -0.0032562743 0.0003848538)
(-0.055738515 -0.0028974428 0.00096911001)
(-0.054443612 -0.0025492583 0.0014423542)
(-0.053787177 -0.002189916 0.0018314536)
(-0.053712466 -0.0018120636 0.0021904165)
(-0.054224161 -0.0014132484 0.0025234785)
(-0.055385605 -0.00094329349 0.0028443998)
(-0.057355265 -0.0003702551 0.0031793607)
(-0.054098602 -0.003177745 0.00038969579)
(-0.052493721 -0.0028360321 0.00094354508)
(-0.0514653 -0.0025005138 0.0014117091)
(-0.050932079 -0.0021503552 0.0017951698)
(-0.050863139 -0.0017799031 0.0021484386)
(-0.051262469 -0.0013876213 0.0024754573)
(-0.052172209 -0.00092140461 0.0027871347)
(-0.053683227 -0.00037573049 0.0031070276)
(-0.050647658 -0.0030669224 0.00038901771)
(-0.049483132 -0.0027474577 0.0009088299)
(-0.048706025 -0.0024278409 0.0013662248)
(-0.048290951 -0.0020907375 0.0017398788)
(-0.048226403 -0.0017314122 0.0020848306)
(-0.048517594 -0.0013495433 0.0024033142)
(-0.049189279 -0.00089232945 0.0027037183)
(-0.050275956 -0.00037683338 0.0030047011)
(-0.047408315 -0.0029198838 0.00038400077)
(-0.046652648 -0.0026265984 0.00086586453)
(-0.04611305 -0.0023263801 0.0013070343)
(-0.045808993 -0.0020062811 0.0016666645)
(-0.045747613 -0.0016618116 0.0019983468)
(-0.045935511 -0.0012947573 0.0023029285)
(-0.046381234 -0.0008524641 0.0025866444)
(-0.047074392 -0.00037198238 0.0028637084)
(-0.044482871 -0.0027333302 0.00037243074)
(-0.04409472 -0.0024709273 0.00081314891)
(-0.04377081 -0.0021933161 0.0012318132)
(-0.043567517 -0.0018939866 0.0015720629)
(-0.043508772 -0.001569122 0.0018848238)
(-0.043601598 -0.0012221818 0.0021706026)
(-0.043842159 -0.00080126308 0.00243317)
(-0.04418364 -0.0003597861 0.0026809707)
(-0.041822551 -0.0025389222 0.00035896372)
(-0.041767337 -0.0023069559 0.00075968599)
(-0.041643854 -0.0020521266 0.001153001)
(-0.041534251 -0.0017744527 0.0014716413)
(-0.041477889 -0.0014706386 0.0017640124)
(-0.041482709 -0.0011451594 0.0020288922)
(-0.041534767 -0.00074944477 0.0022694489)
(-0.041559017 -0.00034666077 0.0024892061)
(-0.039463193 -0.0023232622 0.00034073363)
(-0.039698789 -0.0021210996 0.00069993959)
(-0.039754695 -0.0018903802 0.0010625972)
(-0.039730711 -0.0016364733 0.0013550711)
(-0.039676457 -0.0013571562 0.0016235868)
(-0.039603109 -0.0010576453 0.001865621)
(-0.039487919 -0.00069115944 0.0020831971)
(-0.039234096 -0.00032883264 0.002275924)
(-0.037410964 -0.0021139589 0.00032222483)
(-0.037899972 -0.0019372933 0.00064295624)
(-0.038118837 -0.0017295994 0.00097388789)
(-0.038174908 -0.001499641 0.0012391145)
(-0.038123287 -0.001245616 0.0014831479)
(-0.037979803 -0.00097315756 0.0017030829)
(-0.037716048 -0.0006371361 0.0018996594)
(-0.037219058 -0.00031196227 0.0020693696)
(-0.035625845 -0.0019014151 0.0003022017)
(-0.036333238 -0.0017466782 0.00058482058)
(-0.0366975 -0.0015613021 0.00088171421)
(-0.036825829 -0.0013561092 0.0011167488)
(-0.036777221 -0.0011286086 0.0013343598)
(-0.036572916 -0.00088553168 0.0015320254)
(-0.03617886 -0.00058218916 0.0017090616)
(-0.035472119 -0.00029389591 0.0018598122)
(-0.034169082 -0.0016918901 0.00028137181)
(-0.035056587 -0.0015548843 0.00052737215)
(-0.035543762 -0.0013903254 0.00078881364)
(-0.035740822 -0.0012096169 0.00099199855)
(-0.035699458 -0.0010096577 0.0011822)
(-0.035443207 -0.00079707186 0.0013580588)
(-0.03493701 -0.00052823917 0.0015173501)
(-0.034052801 -0.00027540554 0.0016527308)
(-0.032969077 -0.0014935609 0.00026071052)
(-0.034010365 -0.0013698313 0.00047189731)
(-0.034605631 -0.001223292 0.00069792101)
(-0.034865884 -0.0010657366 0.0008701762)
(-0.034833549 -0.00089299986 0.0010332901)
(-0.034533203 -0.00071092905 0.0011878458)
(-0.033928157 -0.00047690283 0.0013319151)
(-0.032891128 -0.00025792732 0.00145786)
(-0.032081542 -0.0012794799 0.00023569864)
(-0.033247411 -0.0011665509 0.00040913923)
(-0.03392767 -0.0010384784 0.00059693931)
(-0.034242878 -0.00090546089 0.00073574101)
(-0.034226097 -0.00076322767 0.00086886419)
(-0.03389053 -0.00061494627 0.0010009626)
(-0.033204486 -0.00041816254 0.0011289094)
(-0.032040743 -0.00023554096 0.001245233)
(-0.031499776 -0.0010757911 0.00021257191)
(-0.032771211 -0.00096926416 0.00034955359)
(-0.033522 -0.00085624274 0.00049771167)
(-0.033882311 -0.00074624564 0.00060355821)
(-0.033883176 -0.00063402957 0.00070713108)
(-0.033522658 -0.00051978033 0.00081700026)
(-0.032770092 -0.00036147077 0.00093252988)
(-0.031501064 -0.00021414587 0.0010450856)
(-0.031215898 -0.00087633642 0.00018716461)
(-0.032572896 -0.00077377527 0.00028824798)
(-0.033382008 -0.00067417437 0.00039824836)
(-0.033775394 -0.00058662349 0.00047184886)
(-0.033795292 -0.00050461361 0.00054907755)
(-0.033425367 -0.00042390626 0.00063983724)
(-0.032620767 -0.00030338739 0.00074282012)
(-0.03126441 -0.00019185618 0.00085334764)
(-0.031225121 -0.00068666161 0.00016588814)
(-0.032652949 -0.00058426631 0.00023166535)
(-0.033509818 -0.00049940929 0.00030277477)
(-0.033927853 -0.0004316337 0.00034477642)
(-0.033960494 -0.0003783233 0.00039694225)
(-0.033583238 -0.00033039202 0.00046796329)
(-0.0327356 -0.00025009619 0.00055706996)
(-0.031305174 -0.00017345896 0.00066999044)
(-0.031519109 -0.00047551674 0.0001355737)
(-0.033003716 -0.00037539319 0.00016045195)
(-0.033894575 -0.00030773415 0.00019261201)
(-0.034330866 -0.00025941404 0.00020140751)
(-0.034371689 -0.00023492641 0.0002252268)
(-0.033995677 -0.00022120111 0.00027286016)
(-0.033125544 -0.00018040035 0.00034182631)
(-0.031637751 -0.00014390051 0.00045144131)
(-0.032108005 -0.00024633233 0.00010086313)
(-0.03363037 -0.00015505423 8.3700424e-05)
(-0.034542773 -0.00010736525 7.5243834e-05)
(-0.034991325 -8.0841369e-05 5.1482031e-05)
(-0.035037097 -8.5015555e-05 4.7062939e-05)
(-0.034665812 -0.00010496893 7.1887998e-05)
(-0.033789534 -0.00010480549 0.00011852653)
(-0.032266849 -0.00011012766 0.00021816437)
(-0.032968156 7.6454586e-07 6.0350167e-05)
(-0.034514579 7.8059727e-05 -1.0933051e-06)
(-0.035438503 0.00010175626 -5.0761334e-05)
(-0.035893158 0.00010432444 -0.00010565997)
(-0.035943155 7.3085217e-05 -0.00013874219)
(-0.035578098 2.0701751e-05 -0.00013984295)
(-0.034706256 -2.1159072e-05 -0.00011753206)
(-0.033166372 -6.9718106e-05 -3.4737636e-05)
(-0.034092392 0.00024282353 2.1098942e-05)
(-0.035646522 0.0003020174 -8.2389786e-05)
(-0.036569682 0.00030160486 -0.00017080903)
(-0.037024227 0.00028059164 -0.00025470672)
(-0.03707892 0.00022451963 -0.00031590073)
(-0.036724927 0.0001426443 -0.0003437652)
(-0.035868894 5.9953836e-05 -0.00034685527)
(-0.034332909 -3.0239853e-05 -0.00028476449)
(-0.035505923 0.0004515844 -1.225486e-05)
(-0.037045512 0.00048898314 -0.00015144779)
(-0.037953951 0.00046615814 -0.00027094442)
(-0.038402626 0.00042575225 -0.00037782413)
(-0.038462774 0.00035077583 -0.00046294887)
(-0.038125799 0.00024706333 -0.00051623207)
(-0.037299545 0.00013148981 -0.00054590792)
(-0.035794412 4.9524533e-06 -0.00050992417)
(-0.037158899 0.00063655841 -3.8657242e-05)
(-0.038655632 0.00064594814 -0.00020916528)
(-0.039530229 0.00060082642 -0.00035307152)
(-0.039965511 0.00054403315 -0.00047815884)
(-0.040032888 0.00045443065 -0.00058446014)
(-0.039723343 0.00033473439 -0.00066182744)
(-0.038948128 0.00019376461 -0.00072032474)
(-0.037507732 3.5889839e-05 -0.00071884373)
(-0.039135686 0.0007497314 -3.7087838e-05)
(-0.040524701 0.00078677532 -0.00024112159)
(-0.041329121 0.00075517944 -0.00042922493)
(-0.041736957 0.00069217952 -0.00059844491)
(-0.041811667 0.00057943293 -0.00074270645)
(-0.04154347 0.00042475203 -0.00084686305)
(-0.040853206 0.00023958144 -0.00091631085)
(-0.039541362 4.4351089e-05 -0.00091046223)
(-0.041539052 0.00045684486 4.2451561e-07)
(-0.042911279 0.00053986638 -0.00016170461)
(-0.043720464 0.00054411411 -0.00030719344)
(-0.044141059 0.00051557898 -0.0004418535)
(-0.044248496 0.00043658247 -0.00054830806)
(-0.044036457 0.00031724495 -0.00061333143)
(-0.04342525 0.00017476287 -0.00064607285)
(-0.042234716 1.2134184e-05 -0.00060106661)
(-0.044191409 -0.00040973468 -0.0038718601)
(-0.045003592 -0.0011478857 -0.0038054213)
(-0.045584216 -0.0019310066 -0.0034126242)
(-0.045439323 -0.0026059483 -0.0029840716)
(-0.045433257 -0.0030175327 -0.0024718513)
(-0.04515095 -0.0034801112 -0.0019077951)
(-0.044460815 -0.0038592122 -0.0011915131)
(-0.043327949 -0.0040212271 -0.00044492676)
(-0.049446932 -0.00034218771 -0.0030952755)
(-0.049918944 -0.00096034015 -0.0032432843)
(-0.050069542 -0.0016608464 -0.0029959478)
(-0.049993008 -0.0022876289 -0.0027004925)
(-0.049902112 -0.0026979835 -0.0022074371)
(-0.04970558 -0.0030384593 -0.0016459844)
(-0.049310307 -0.0032560225 -0.00098803742)
(-0.048593314 -0.0032312206 -0.00039632672)
(-0.053171554 -0.00036142379 -0.0030256428)
(-0.053398635 -0.00094033402 -0.0030323456)
(-0.053411836 -0.0015788627 -0.0028188723)
(-0.053323425 -0.0021162827 -0.0025014676)
(-0.053219413 -0.0025356252 -0.0020571175)
(-0.053073807 -0.0028599883 -0.0015360891)
(-0.052837984 -0.0030561922 -0.00092316137)
(-0.052373834 -0.0030854589 -0.00038235837)
(-0.057593462 -0.00045915031 -0.0035391273)
(-0.057372146 -0.0010777088 -0.0033507721)
(-0.057132972 -0.0017209362 -0.0030508859)
(-0.05692601 -0.0022467681 -0.002661265)
(-0.056809951 -0.002694171 -0.0021946757)
(-0.056768314 -0.0030663426 -0.0016699209)
(-0.056760632 -0.0033397362 -0.0010441831)
(-0.05671835 -0.0035295398 -0.00046172323)
(-0.062271094 -0.0005475301 -0.0040498291)
(-0.061522839 -0.0012130511 -0.0037100989)
(-0.060977694 -0.0018859719 -0.0033380985)
(-0.060629773 -0.0024316597 -0.0028900574)
(-0.060504701 -0.0029175233 -0.0023909817)
(-0.060594948 -0.0033464474 -0.0018442411)
(-0.060872871 -0.0036971362 -0.0011840623)
(-0.061342469 -0.0040255101 -0.00054577387)
(-0.067306238 -0.00062797617 -0.0045098661)
(-0.065923991 -0.0013392049 -0.0040401134)
(-0.06502474 -0.0020461927 -0.0036090333)
(-0.064512868 -0.0026165555 -0.0031105963)
(-0.064384455 -0.003140169 -0.0025804543)
(-0.064633363 -0.0036233924 -0.0020104707)
(-0.065255468 -0.0040414986 -0.001313842)
(-0.066346457 -0.0044942546 -0.00062453216)
(-0.072406791 -0.00068776197 -0.004816988)
(-0.070328013 -0.0014224206 -0.0042441603)
(-0.069053153 -0.0021466253 -0.0037702001)
(-0.068368483 -0.0027293492 -0.0032384243)
(-0.068240587 -0.0032759507 -0.0026912026)
(-0.068663031 -0.0037996274 -0.0021132666)
(-0.069658913 -0.004268673 -0.001397634)
(-0.071437858 -0.0048259987 -0.00068259363)
(-0.07743328 -0.00072955845 -0.0050054506)
(-0.074604825 -0.0014700262 -0.0043475908)
(-0.072930752 -0.0021995949 -0.0038450228)
(-0.072066131 -0.0027837483 -0.003293628)
(-0.071942501 -0.0033444624 -0.0027410805)
(-0.072553552 -0.0038967681 -0.0021656004)
(-0.073953186 -0.0044042119 -0.0014454521)
(-0.076484206 -0.0050539432 -0.00072548056)
(-0.08232044 -0.00073291345 -0.0049342235)
(-0.078712097 -0.0014405967 -0.0042369338)
(-0.076634536 -0.0021459458 -0.0037351867)
(-0.075592136 -0.0027093278 -0.0031906509)
(-0.075477787 -0.0032589016 -0.0026561206)
(-0.076283098 -0.0038117845 -0.0021067973)
(-0.078101629 -0.0043265032 -0.0014127982)
(-0.08142637 -0.0050254781 -0.00072888698)
(-0.086510079 -0.00070490778 -0.0046651088)
(-0.082177491 -0.0013487923 -0.0039605233)
(-0.079729268 -0.0020082266 -0.0034797314)
(-0.078526748 -0.0025297996 -0.0029620294)
(-0.078427524 -0.003048675 -0.0024657373)
(-0.079420903 -0.0035827594 -0.0019622711)
(-0.081638971 -0.0040857844 -0.0013190203)
(-0.085718301 -0.0048048577 -0.00070388778)
(-0.090220733 -0.0006447753 -0.0041742553)
(-0.085189293 -0.0011968186 -0.0035109514)
(-0.082388317 -0.0017868482 -0.0030782998)
(-0.081038515 -0.0022489804 -0.0026132212)
(-0.080958761 -0.0027159265 -0.0021746652)
(-0.082140178 -0.0032059191 -0.0017355163)
(-0.08475181 -0.0036692219 -0.0011640018)
(-0.089572223 -0.0043602333 -0.00064526791)
(-0.09276118 -0.0005526216 -0.0034632477)
(-0.087209791 -0.00098040884 -0.0028834065)
(-0.084152386 -0.0014765099 -0.0025220471)
(-0.082701984 -0.0018556569 -0.0021330798)
(-0.082647923 -0.0022477496 -0.0017746303)
(-0.083982965 -0.0026686888 -0.0014210318)
(-0.086908165 -0.0030674088 -0.00094750255)
(-0.09230997 -0.0036870667 -0.00055667341)
(-0.094331314 -0.00047035835 -0.0027907166)
(-0.088387703 -0.0007744928 -0.0022899649)
(-0.085132935 -0.0011797326 -0.0019925994)
(-0.083610754 -0.001478162 -0.0016741873)
(-0.083584652 -0.0017946029 -0.0013912826)
(-0.085048281 -0.0021476893 -0.0011196612)
(-0.088229262 -0.0024835187 -0.00074113446)
(-0.094090311 -0.0030302207 -0.00047626906)
(-0.094983799 -0.00039304992 -0.0020944662)
(-0.088782049 -0.00056904985 -0.0016842179)
(-0.085398141 -0.00087849352 -0.0014580837)
(-0.083834966 -0.0010971074 -0.0012148578)
(-0.083836597 -0.0013363688 -0.0010080637)
(-0.085400956 -0.0016184946 -0.00081934881)
(-0.088773927 -0.001886157 -0.00053663064)
(-0.094963736 -0.0023508729 -0.00039873253)
(-0.094697952 -0.00030931054 -0.0013440214)
(-0.08838575 -0.00035207964 -0.0010371447)
(-0.084952237 -0.00055520149 -0.0008911598)
(-0.08337848 -0.00068926433 -0.00073182727)
(-0.083407404 -0.0008489616 -0.00060585128)
(-0.085039025 -0.0010525134 -0.0005008133)
(-0.088532489 -0.0012415495 -0.00031888057)
(-0.094907427 -0.0016060891 -0.00031179285)
(-0.093497024 -0.00021985815 -0.00058458465)
(-0.087217277 -0.00012907858 -0.0003831626)
(-0.08380286 -0.00022413165 -0.00031697685)
(-0.082254234 -0.00027312717 -0.00024063601)
(-0.082312354 -0.00035054009 -0.00019569016)
(-0.083977135 -0.00047066295 -0.00017298318)
(-0.087513666 -0.00057279861 -9.242096e-05)
(-0.093923593 -0.00082362143 -0.00021639386)
(-0.091519889 -0.00012416108 0.00017332078)
(-0.085396962 9.4029088e-05 0.00026570549)
(-0.082061275 0.0001088997 0.00024950048)
(-0.080557736 0.00014191351 0.00024354761)
(-0.080636123 0.00014720892 0.00021246156)
(-0.082295992 0.00011586369 0.0001577305)
(-0.085799823 0.00010453337 0.00013641526)
(-0.092101705 -2.1979687e-05 -0.00011078564)
(-0.088880628 -2.8905141e-05 0.00088135621)
(-0.083020429 0.00030243795 0.00086836187)
(-0.079817477 0.00041777226 0.00077498562)
(-0.078379881 0.00052799272 0.00069279782)
(-0.078471419 0.00061267693 0.00058995178)
(-0.080092442 0.00066830633 0.00046464904)
(-0.083493357 0.00074628809 0.00034783122)
(-0.089560941 0.00074202497 -9.2847242e-06)
(-0.085644569 5.9571821e-05 0.0015074343)
(-0.080147895 0.00048626089 0.0014005695)
(-0.077128424 0.00068967282 0.0012402607)
(-0.075776715 0.00086972831 0.0010910605)
(-0.075875129 0.0010256713 0.00092510939)
(-0.077425379 0.0011610986 0.00073602077)
(-0.080661088 0.0013180213 0.00052877842)
(-0.086385492 0.0014206585 7.9568556e-05)
(-0.081959283 0.0001354139 0.002020804)
(-0.076900912 0.00063488075 0.0018390312)
(-0.074102302 0.00091175903 0.0016251979)
(-0.072850927 0.0011518951 0.0014219398)
(-0.0729522 0.0013696696 0.0012012442)
(-0.074409757 0.0015716543 0.00095705949)
(-0.077435251 0.0017915021 0.00067545081)
(-0.082733502 0.0019825534 0.00015570812)
(-0.077967263 0.00020276677 0.0024460831)
(-0.073397858 0.00075639027 0.0022029136)
(-0.070848834 0.0010948854 0.0019463577)
(-0.069710134 0.0013864891 0.0016981238)
(-0.069813323 0.0016572198 0.0014315253)
(-0.071162822 0.0019152711 0.00113987)
(-0.073940705 0.0021881553 0.00079542962)
(-0.078746992 0.0024523557 0.00022221577)
(-0.073761201 0.00025688398 0.0027656924)
(-0.069712242 0.0008441228 0.002478618)
(-0.067433023 0.0012321479 0.0021915326)
(-0.066416897 0.0015652236 0.0019082957)
(-0.066520674 0.0018784229 0.0016055872)
(-0.067746546 0.0021805196 0.0012756268)
(-0.070247188 0.0024920682 0.00088088454)
(-0.074515416 0.0028074395 0.00027469715)
(-0.069512647 0.00029842217 0.002991556)
(-0.065996211 0.00090253021 0.0026745678)
(-0.06399737 0.0013281368 0.0023658034)
(-0.06310998 0.0016927617 0.002056578)
(-0.063211613 0.0020378663 0.0017264974)
(-0.064302928 0.0023714375 0.0013675954)
(-0.066508752 0.0027085753 0.00093541638)
(-0.070221036 0.0030563993 0.00031428589)
(-0.065276441 0.00032893836 0.0031300636)
(-0.062294568 0.0009354624 0.0027965294)
(-0.060582273 0.0013879857 0.0024759859)
(-0.05982443 0.0017752204 0.0021502249)
(-0.05991971 0.0021419832 0.0018009849)
(-0.060867409 0.0024946566 0.0014220931)
(-0.062766473 0.0028448939 0.00096438156)
(-0.0659166 0.0032082464 0.00034343345)
(-0.061207849 0.00034821738 0.0031822172)
(-0.058735602 0.00094255116 0.002844577)
(-0.057297988 0.0014093368 0.0025212118)
(-0.056660765 0.0018080409 0.0021875374)
(-0.056744249 0.0021853431 0.0018283701)
(-0.057546685 0.0025457437 0.0014394096)
(-0.059142271 0.0028978852 0.00096879623)
(-0.061746368 0.0032615087 0.00036231303)
(-0.057347666 0.00036331969 0.0031805944)
(-0.055363715 0.00093790125 0.0028459993)
(-0.054188776 0.0014103544 0.0025250659)
(-0.053666821 0.0018117945 0.0021899823)
(-0.053736013 0.0021911644 0.0018281725)
(-0.054393751 0.0025508289 0.0014360894)
(-0.055692178 0.002897557 0.00096096361)
(-0.057776699 0.0032536576 0.0003764478)
(-0.05367744 0.00037237473 0.0031078801)
(-0.052154297 0.00091958146 0.0027867898)
(-0.051233012 0.0013876268 0.0024740623)
(-0.050824954 0.0017815138 0.0021447694)
(-0.050888774 0.0021523677 0.0017889798)
(-0.051422135 0.0025021171 0.0014034772)
(-0.052452608 0.0028354572 0.00093460686)
(-0.054062051 0.0031744933 0.00038174317)
(-0.050271489 0.00037819455 0.0030047952)
(-0.049174529 0.00089484367 0.0027013937)
(-0.048492518 0.0013527875 0.0023990706)
(-0.048193465 0.0017346084 0.002078342)
(-0.048252835 0.002093319 0.001731393)
(-0.048666603 0.0024290086 0.0013563971)
(-0.049444621 0.0027456638 0.00089933856)
(-0.050613058 0.0030621529 0.0003819565)
(-0.047071145 0.00037797607 0.0028631537)
(-0.046368797 0.00085894834 0.0025828435)
(-0.045913712 0.0013008467 0.0022967321)
(-0.045718355 0.0016668341 0.0019900393)
(-0.045774497 0.0020096358 0.0016566875)
(-0.046076299 0.0023272071 0.0012964147)
(-0.046616013 0.0026237721 0.00085640027)
(-0.047375052 0.0029137088 0.00037797807)
(-0.044181079 0.00036904204 0.0026801706)
(-0.043831212 0.00081065579 0.0024281236)
(-0.043581112 0.0012303226 0.0021627817)
(-0.043480475 0.0015751343 0.0018747366)
(-0.043533617 0.0018972782 0.0015606528)
(-0.043733856 0.0021930175 0.0012204855)
(-0.044058341 0.0024664494 0.00080384566)
(-0.044451024 0.0027253231 0.00036701242)
(-0.041557117 0.00035738086 0.0024880989)
(-0.041525379 0.00076012689 0.0022634584)
(-0.041463913 0.0011541363 0.0020193336)
(-0.041450884 0.0014762386 0.0017519823)
(-0.041501302 0.0017763968 0.0014588801)
(-0.041607459 0.0020494036 0.0011409192)
(-0.041732607 0.0022997608 0.00075044412)
(-0.041794252 0.0025287786 0.00035409541)
(-0.039233059 0.00033955272 0.0022746882)
(-0.039479837 0.00070154769 0.0020765128)
(-0.039585897 0.0010662206 0.0018552611)
(-0.039650939 0.0013615451 0.0016104413)
(-0.039698665 0.0016365177 0.0013418568)
(-0.039720638 0.0018853973 0.0010506655)
(-0.03966792 0.002111811 0.00069149754)
(-0.039439114 0.0023119656 0.00033713044)
(-0.037218963 0.00032125293 0.0020681116)
(-0.037710613 0.00064617599 0.0018936895)
(-0.037966418 0.00097979805 0.0016935665)
(-0.038101969 0.0012485745 0.0014716758)
(-0.038147045 0.0014985484 0.0012275191)
(-0.038089804 0.0017242498 0.00096384137)
(-0.037875668 0.001928618 0.00063629161)
(-0.037394186 0.0021036481 0.00031986709)
(-0.035472493 0.00030028437 0.0018592142)
(-0.036175913 0.00058827794 0.0017047322)
(-0.036562974 0.00088983999 0.0015252667)
(-0.036759567 0.0011300879 0.0013264077)
(-0.036801836 0.0013543531 0.0011087344)
(-0.036673089 0.0015567446 0.00087455916)
(-0.036314215 0.0017405527 0.00058044725)
(-0.035614257 0.0018941511 0.00030090011)
(-0.034053297 0.00027766184 0.0016525607)
(-0.03493616 0.00053054156 0.0015153862)
(-0.035436146 0.0007982492 0.0013545269)
(-0.035685352 0.0010089123 0.0011780433)
(-0.035722813 0.0012070769 0.00098780804)
(-0.035526719 0.00138682 0.00078471913)
(-0.035042631 0.0015511438 0.00052457841)
(-0.034161276 0.0016877313 0.00028030527)
(-0.032892018 0.00025600857 0.0014579389)
(-0.033928767 0.00047506343 0.0013325694)
(-0.03452862 0.00070908898 0.0011881998)
(-0.034823159 0.0008906553 0.0010333683)
(-0.034853021 0.0010637166 0.00087018014)
(-0.034594378 0.0012216892 0.0006974387)
(-0.034000924 0.0013686451 0.0004715036)
(-0.032964597 0.0014923466 0.00026031292)
(-0.032042204 0.00022992884 0.0012455048)
(-0.033205167 0.00041224093 0.0011317044)
(-0.033886008 0.0006093407 0.0010051162)
(-0.034215762 0.00075923781 0.00087337898)
(-0.034231059 0.00090411698 0.0007390903)
(-0.033917989 0.0010387992 0.00059928442)