/*--------------------------------*- C++ -*----------------------------------*\
| =========                 |                                                 |
| \\      /  F ield         | OpenFOAM: The Open Source CFD Toolbox           |
|  \\    /   O peration     | Version:  4.1                                   |
|   \\  /    A nd           | Web:      www.OpenFOAM.org                      |
|    \\/     M anipulation  |                                                 |
\*---------------------------------------------------------------------------*/
FoamFile
{
    version     2.0;
    format      ascii;
    class       pointVectorField;
    location    "0.0044";
    object      pointDisplacement;
}
// * * * * * * * * * * * * * * * * * * * * * * * * * * * * * * * * * * * * * //

dimensions      [0 1 0 0 0 0 0];

internalField   nonuniform List<vector> 
7105
(
(0 0 0)
(-5.7411e-06 -7.8165e-07 4.7651e-11)
(-1.0845e-05 -9.712e-07 6.5095e-11)
(-1.5046e-05 -4.8314e-07 4.6438e-11)
(-1.8536e-05 2.0678e-07 1.2406e-11)
(-2.1702e-05 5.5816e-07 -7.453e-12)
(-2.4799e-05 4.4079e-07 2.3413e-12)
(-2.7881e-05 6.4993e-08 3.8781e-11)
(-3.0918e-05 -3.5551e-07 9.1945e-11)
(-3.3884e-05 -7.4728e-07 1.477e-10)
(-3.6768e-05 -1.1241e-06 1.9536e-10)
(-3.9565e-05 -1.5217e-06 2.3954e-10)
(-4.2267e-05 -1.9775e-06 2.8721e-10)
(-4.4861e-05 -2.5298e-06 3.3917e-10)
(-4.7332e-05 -3.219e-06 3.9758e-10)
(-4.9663e-05 -4.0819e-06 4.6655e-10)
(-5.1835e-05 -5.1473e-06 5.511e-10)
(-5.3824e-05 -6.442e-06 6.678e-10)
(-5.5594e-05 -8.0031e-06 8.3399e-10)
(-5.7098e-05 -9.8856e-06 1.0497e-09)
(-5.8287e-05 -1.2161e-05 1.3192e-09)
(-5.9119e-05 -1.4911e-05 1.6567e-09)
(-5.957e-05 -1.8199e-05 2.0686e-09)
(-5.9621e-05 -2.2051e-05 2.5498e-09)
(-5.9246e-05 -2.6441e-05 3.0988e-09)
(-5.8414e-05 -3.1317e-05 3.7218e-09)
(-5.7088e-05 -3.6636e-05 4.4147e-09)
(-5.5245e-05 -4.2367e-05 5.1646e-09)
(-5.2884e-05 -4.8458e-05 5.9631e-09)
(-5.005e-05 -5.4782e-05 6.7937e-09)
(-4.6838e-05 -6.1083e-05 7.6124e-09)
(-4.3393e-05 -6.6945e-05 8.3498e-09)
(-3.9861e-05 -7.1818e-05 8.915e-09)
(-3.6325e-05 -7.5114e-05 9.2419e-09)
(-3.2772e-05 -7.6386e-05 9.3303e-09)
(-2.9135e-05 -7.5533e-05 9.2018e-09)
(-2.5395e-05 -7.2816e-05 8.8615e-09)
(-2.1655e-05 -6.8627e-05 8.3176e-09)
(-1.8136e-05 -6.3193e-05 7.5908e-09)
(-1.5066e-05 -5.6484e-05 6.7045e-09)
(-1.2553e-05 -4.8365e-05 5.6884e-09)
(-1.0527e-05 -3.8894e-05 4.5892e-09)
(-8.7873e-06 -2.858e-05 3.475e-09)
(-7.1035e-06 -1.8423e-05 2.4238e-09)
(-5.3531e-06 -9.6858e-06 1.5175e-09)
(-3.604e-06 -3.4356e-06 8.2624e-10)
(-2.0642e-06 -1.0868e-07 3.7537e-10)
(-8.8815e-07 6.7658e-07 1.2954e-10)
(0 0 0)
(0 0 0)
(-5.6168e-06 -6.3996e-07 7.8811e-08)
(-1.0662e-05 -7.9957e-07 9.8149e-08)
(-1.4887e-05 -4.0768e-07 4.9193e-08)
(-1.8443e-05 1.5642e-07 -2.1044e-08)
(-2.1662e-05 4.5452e-07 -5.8228e-08)
(-2.478e-05 3.6668e-07 -4.7133e-08)
(-2.7864e-05 5.0803e-08 -7.187e-09)
(-3.0899e-05 -3.1747e-07 3.9501e-08)
(-3.3862e-05 -6.6949e-07 8.4065e-08)
(-3.6744e-05 -1.0115e-06 1.2721e-07)
(-3.9539e-05 -1.3729e-06 1.7268e-07)
(-4.2237e-05 -1.7869e-06 2.2476e-07)
(-4.4827e-05 -2.2876e-06 2.8777e-07)
(-4.7294e-05 -2.9107e-06 3.6609e-07)
(-4.9619e-05 -3.689e-06 4.6378e-07)
(-5.1784e-05 -4.6489e-06 5.8425e-07)
(-5.3764e-05 -5.8157e-06 7.3074e-07)
(-5.5522e-05 -7.2236e-06 9.0738e-07)
(-5.7014e-05 -8.9216e-06 1.1202e-06)
(-5.8193e-05 -1.0973e-05 1.3774e-06)
(-5.9018e-05 -1.3448e-05 1.6877e-06)
(-5.9462e-05 -1.6401e-05 2.0575e-06)
(-5.9505e-05 -1.9855e-05 2.4893e-06)
(-5.9123e-05 -2.3788e-05 2.9807e-06)
(-5.8283e-05 -2.8157e-05 3.5265e-06)
(-5.6953e-05 -3.2925e-05 4.1216e-06)
(-5.5113e-05 -3.8058e-05 4.7616e-06)
(-5.2765e-05 -4.3505e-05 5.4403e-06)
(-4.9955e-05 -4.9146e-05 6.1428e-06)
(-4.6777e-05 -5.4746e-05 6.8401e-06)
(-4.3364e-05 -5.9938e-05 7.4857e-06)
(-3.9851e-05 -6.4239e-05 8.0194e-06)
(-3.6317e-05 -6.7142e-05 8.3784e-06)
(-3.2757e-05 -6.8269e-05 8.5168e-06)
(-2.9123e-05 -6.7528e-05 8.4238e-06)
(-2.5408e-05 -6.513e-05 8.1249e-06)
(-2.1715e-05 -6.1395e-05 7.6593e-06)
(-1.8241e-05 -5.6516e-05 7.051e-06)
(-1.5192e-05 -5.0483e-05 6.2993e-06)
(-1.2664e-05 -4.321e-05 5.3928e-06)
(-1.0597e-05 -3.4779e-05 4.3414e-06)
(-8.8115e-06 -2.5647e-05 3.2025e-06)
(-7.1037e-06 -1.6685e-05 2.0851e-06)
(-5.3645e-06 -8.9746e-06 1.124e-06)
(-3.6499e-06 -3.4223e-06 4.32e-07)
(-2.1336e-06 -3.963e-07 5.4112e-08)
(-9.4084e-07 4.339e-07 -5.1288e-08)
(0 0 0)
(0 0 0)
(-5.5325e-06 -5.2463e-07 1.6911e-07)
(-1.0538e-05 -6.5845e-07 2.1205e-07)
(-1.4778e-05 -3.4221e-07 1.0978e-07)
(-1.8378e-05 1.1986e-07 -3.9237e-08)
(-2.1633e-05 3.7116e-07 -1.1982e-07)
(-2.4766e-05 3.0443e-07 -9.7804e-08)
(-2.7852e-05 3.9549e-08 -1.2219e-08)
(-3.0885e-05 -2.7927e-07 9.0572e-08)
(-3.3847e-05 -5.9006e-07 1.9088e-07)
(-3.6727e-05 -8.9445e-07 2.8927e-07)
(-3.952e-05 -1.2166e-06 3.9346e-07)
(-4.2217e-05 -1.5852e-06 5.1275e-07)
(-4.4804e-05 -2.0306e-06 6.5682e-07)
(-4.7267e-05 -2.5836e-06 8.3561e-07)
(-4.9588e-05 -3.2731e-06 1.0583e-06)
(-5.1748e-05 -4.1227e-06 1.3328e-06)
(-5.3721e-05 -5.1558e-06 1.6664e-06)
(-5.5472e-05 -6.4028e-06 2.069e-06)
(-5.6955e-05 -7.9068e-06 2.5544e-06)
(-5.8127e-05 -9.723e-06 3.1404e-06)
(-5.8946e-05 -1.1911e-05 3.846e-06)
(-5.9386e-05 -1.4518e-05 4.6863e-06)
(-5.9425e-05 -1.7562e-05 5.6667e-06)
(-5.9037e-05 -2.1027e-05 6.7819e-06)
(-5.8192e-05 -2.4876e-05 8.0207e-06)
(-5.686e-05 -2.9077e-05 9.3718e-06)
(-5.5021e-05 -3.3597e-05 1.0825e-05)
(-5.2683e-05 -3.8387e-05 1.2363e-05)
(-4.989e-05 -4.3337e-05 1.3953e-05)
(-4.6735e-05 -4.8239e-05 1.5526e-05)
(-4.3344e-05 -5.277e-05 1.6979e-05)
(-3.9845e-05 -5.6514e-05 1.8178e-05)
(-3.6312e-05 -5.9037e-05 1.8985e-05)
(-3.2747e-05 -6.0019e-05 1.9298e-05)
(-2.9115e-05 -5.9381e-05 1.9091e-05)
(-2.5419e-05 -5.7291e-05 1.8419e-05)
(-2.1757e-05 -5.4012e-05 1.7364e-05)
(-1.8314e-05 -4.9708e-05 1.598e-05)
(-1.5279e-05 -4.4381e-05 1.4268e-05)
(-1.274e-05 -3.7978e-05 1.2211e-05)
(-1.0645e-05 -3.0588e-05 9.8371e-06)
(-8.8277e-06 -2.2618e-05 7.278e-06)
(-7.1037e-06 -1.4818e-05 4.7738e-06)
(-5.3722e-06 -8.1055e-06 2.6184e-06)
(-3.6809e-06 -3.2465e-06 1.057e-06)
(-2.1803e-06 -5.5048e-07 1.8809e-07)
(-9.7625e-07 2.6616e-07 -7.9254e-08)
(0 0 0)
(0 0 0)
(-5.4828e-06 -4.2685e-07 2.5531e-07)
(-1.0464e-05 -5.3745e-07 3.2147e-07)
(-1.4712e-05 -2.8281e-07 1.6935e-07)
(-1.8336e-05 9.239e-08 -5.4396e-08)
(-2.1614e-05 2.9908e-07 -1.7687e-07)
(-2.4757e-05 2.4686e-07 -1.451e-07)
(-2.7845e-05 2.9253e-08 -1.5733e-08)
(-3.0877e-05 -2.3719e-07 1.4216e-07)
(-3.3837e-05 -5.0023e-07 2.982e-07)
(-3.6717e-05 -7.5951e-07 4.5235e-07)
(-3.9509e-05 -1.0344e-06 6.1596e-07)
(-4.2203e-05 -1.3488e-06 8.0321e-07)
(-4.4789e-05 -1.7284e-06 1.0292e-06)
(-4.725e-05 -2.1991e-06 1.3093e-06)
(-4.9569e-05 -2.7853e-06 1.658e-06)
(-5.1726e-05 -3.5073e-06 2.0876e-06)
(-5.3694e-05 -4.3852e-06 2.6098e-06)
(-5.544e-05 -5.4451e-06 3.2401e-06)
(-5.6918e-05 -6.7234e-06 4.0002e-06)
(-5.8085e-05 -8.2664e-06 4.9175e-06)
(-5.8901e-05 -1.0123e-05 6.0213e-06)
(-5.9338e-05 -1.2334e-05 7.3347e-06)
(-5.9374e-05 -1.4913e-05 8.8666e-06)
(-5.8982e-05 -1.7847e-05 1.0609e-05)
(-5.8135e-05 -2.1107e-05 1.2545e-05)
(-5.6801e-05 -2.4664e-05 1.4656e-05)
(-5.4964e-05 -2.849e-05 1.6926e-05)
(-5.2631e-05 -3.254e-05 1.9329e-05)
(-4.985e-05 -3.672e-05 2.1808e-05)
(-4.6708e-05 -4.0853e-05 2.4258e-05)
(-4.3331e-05 -4.4666e-05 2.6517e-05)
(-3.984e-05 -4.7812e-05 2.8381e-05)
(-3.6309e-05 -4.993e-05 2.9635e-05)
(-3.2742e-05 -5.0755e-05 3.0123e-05)
(-2.9112e-05 -5.022e-05 2.9804e-05)
(-2.5427e-05 -4.8461e-05 2.8758e-05)
(-2.1784e-05 -4.5689e-05 2.7112e-05)
(-1.8359e-05 -4.2041e-05 2.4947e-05)
(-1.5332e-05 -3.7525e-05 2.2267e-05)
(-1.2787e-05 -3.2107e-05 1.9053e-05)
(-1.0674e-05 -2.5872e-05 1.5356e-05)
(-8.8387e-06 -1.9166e-05 1.138e-05)
(-7.105e-06 -1.2613e-05 7.4942e-06)
(-5.3779e-06 -6.9709e-06 4.1486e-06)
(-3.6998e-06 -2.873e-06 1.7168e-06)
(-2.2078e-06 -5.7329e-07 3.4968e-07)
(-9.9688e-07 1.6375e-07 -9.2e-08)
(0 0 0)
(0 0 0)
(-5.4665e-06 -3.3959e-07 3.3967e-07)
(-1.044e-05 -4.2812e-07 4.2829e-07)
(-1.469e-05 -2.2642e-07 2.2668e-07)
(-1.8322e-05 7.1334e-08 -7.0992e-08)
(-2.1607e-05 2.3545e-07 -2.3502e-07)
(-2.4754e-05 1.9412e-07 -1.9363e-07)
(-2.7843e-05 2.1278e-08 -2.0714e-08)
(-3.0874e-05 -1.9117e-07 1.918e-07)
(-3.3834e-05 -4.0194e-07 4.026e-07)
(-3.6713e-05 -6.1043e-07 6.1112e-07)
(-3.9505e-05 -8.3175e-07 8.3245e-07)
(-4.2199e-05 -1.085e-06 1.0857e-06)
(-4.4784e-05 -1.3905e-06 1.3912e-06)
(-4.7244e-05 -1.7693e-06 1.7698e-06)
(-4.9562e-05 -2.2407e-06 2.2412e-06)
(-5.1718e-05 -2.8212e-06 2.8216e-06)
(-5.3685e-05 -3.5271e-06 3.5274e-06)
(-5.5429e-05 -4.3792e-06 4.3794e-06)
(-5.6906e-05 -5.4068e-06 5.407e-06)
(-5.8071e-05 -6.6469e-06 6.647e-06)
(-5.8886e-05 -8.1388e-06 8.1389e-06)
(-5.9322e-05 -9.9138e-06 9.9141e-06)
(-5.9356e-05 -1.1984e-05 1.1984e-05)
(-5.8964e-05 -1.4339e-05 1.4339e-05)
(-5.8115e-05 -1.6954e-05 1.6955e-05)
(-5.6781e-05 -1.9808e-05 1.9809e-05)
(-5.4944e-05 -2.2877e-05 2.2878e-05)
(-5.2614e-05 -2.6125e-05 2.6126e-05)
(-4.9836e-05 -2.9475e-05 2.9476e-05)
(-4.6699e-05 -3.2784e-05 3.2785e-05)
(-4.3327e-05 -3.5835e-05 3.5837e-05)
(-3.9838e-05 -3.8351e-05 3.8352e-05)
(-3.6307e-05 -4.0044e-05 4.0046e-05)
(-3.274e-05 -4.0703e-05 4.0705e-05)
(-2.9111e-05 -4.0275e-05 4.0277e-05)
(-2.543e-05 -3.8865e-05 3.8867e-05)
(-2.1793e-05 -3.6642e-05 3.6644e-05)
(-1.8375e-05 -3.3714e-05 3.3715e-05)
(-1.535e-05 -3.0089e-05 3.0091e-05)
(-1.2803e-05 -2.5744e-05 2.5745e-05)
(-1.0685e-05 -2.075e-05 2.0751e-05)
(-8.8426e-06 -1.5383e-05 1.5384e-05)
(-7.1057e-06 -1.0142e-05 1.0142e-05)
(-5.38e-06 -5.6278e-06 5.6281e-06)
(-3.7061e-06 -2.3443e-06 2.3444e-06)
(-2.2168e-06 -4.9324e-07 4.933e-07)
(-1.0036e-06 1.1245e-07 -1.1243e-07)
(0 0 0)
(0 0 0)
(-5.4828e-06 -2.5522e-07 4.2692e-07)
(-1.0464e-05 -3.2129e-07 5.3761e-07)
(-1.4712e-05 -1.6908e-07 2.8306e-07)
(-1.8336e-05 5.4749e-08 -9.2058e-08)
(-2.1614e-05 1.773e-07 -2.9867e-07)
(-2.4757e-05 1.4561e-07 -2.4637e-07)
(-2.7845e-05 1.6306e-08 -2.8694e-08)
(-3.0877e-05 -1.4154e-07 2.3781e-07)
(-3.3837e-05 -2.9754e-07 5.009e-07)
(-3.6717e-05 -4.5166e-07 7.6022e-07)
(-3.9508e-05 -6.1528e-07 1.0351e-06)
(-4.2203e-05 -8.0256e-07 1.3495e-06)
(-4.4789e-05 -1.0286e-06 1.7291e-06)
(-4.725e-05 -1.3088e-06 2.1997e-06)
(-4.9569e-05 -1.6576e-06 2.7858e-06)
(-5.1726e-05 -2.0872e-06 3.5077e-06)
(-5.3694e-05 -2.6095e-06 4.3855e-06)
(-5.544e-05 -3.2399e-06 5.4453e-06)
(-5.6918e-05 -4e-06 6.7235e-06)
(-5.8085e-05 -4.9173e-06 8.2665e-06)
(-5.8901e-05 -6.021e-06 1.0124e-05)
(-5.9338e-05 -7.3344e-06 1.2334e-05)
(-5.9374e-05 -8.8662e-06 1.4913e-05)
(-5.8982e-05 -1.0608e-05 1.7847e-05)
(-5.8135e-05 -1.2544e-05 2.1107e-05)
(-5.6801e-05 -1.4655e-05 2.4664e-05)
(-5.4964e-05 -1.6925e-05 2.849e-05)
(-5.2631e-05 -1.9328e-05 3.2541e-05)
(-4.985e-05 -2.1806e-05 3.6721e-05)
(-4.6708e-05 -2.4256e-05 4.0854e-05)
(-4.3331e-05 -2.6516e-05 4.4667e-05)
(-3.984e-05 -2.8379e-05 4.7813e-05)
(-3.6309e-05 -2.9633e-05 4.9931e-05)
(-3.2742e-05 -3.012e-05 5.0756e-05)
(-2.9112e-05 -2.9802e-05 5.0222e-05)
(-2.5427e-05 -2.8756e-05 4.8463e-05)
(-2.1783e-05 -2.711e-05 4.5691e-05)
(-1.8359e-05 -2.4945e-05 4.2043e-05)
(-1.5332e-05 -2.2265e-05 3.7526e-05)
(-1.2787e-05 -1.9052e-05 3.2108e-05)
(-1.0674e-05 -1.5355e-05 2.5873e-05)
(-8.8387e-06 -1.1379e-05 1.9166e-05)
(-7.105e-06 -7.4936e-06 1.2613e-05)
(-5.3779e-06 -4.1482e-06 6.971e-06)
(-3.6998e-06 -1.7166e-06 2.873e-06)
(-2.2078e-06 -3.4956e-07 5.7327e-07)
(-9.9688e-07 9.2049e-08 -1.6377e-07)
(0 0 0)
(0 0 0)
(-5.5325e-06 -1.6902e-07 5.247e-07)
(-1.0538e-05 -2.1186e-07 6.586e-07)
(-1.4778e-05 -1.0951e-07 3.4245e-07)
(-1.8377e-05 3.9602e-08 -1.1954e-07)
(-2.1633e-05 1.2027e-07 -3.7075e-07)
(-2.4766e-05 9.8324e-08 -3.0395e-07)
(-2.7852e-05 1.2802e-08 -3.8994e-08)
(-3.0885e-05 -8.9939e-08 2.7989e-07)
(-3.3847e-05 -1.9021e-07 5.9075e-07)
(-3.6727e-05 -2.8858e-07 8.9518e-07)
(-3.952e-05 -3.9279e-07 1.2173e-06)
(-4.2216e-05 -5.1211e-07 1.586e-06)
(-4.4804e-05 -6.5625e-07 2.0313e-06)
(-4.7267e-05 -8.3512e-07 2.5843e-06)
(-4.9588e-05 -1.0579e-06 3.2736e-06)
(-5.1748e-05 -1.3325e-06 4.1232e-06)
(-5.3721e-05 -1.6662e-06 5.1561e-06)
(-5.5472e-05 -2.0689e-06 6.403e-06)
(-5.6955e-05 -2.5542e-06 7.9069e-06)
(-5.8127e-05 -3.1402e-06 9.7231e-06)
(-5.8946e-05 -3.8458e-06 1.1911e-05)
(-5.9386e-05 -4.686e-06 1.4518e-05)
(-5.9425e-05 -5.6662e-06 1.7562e-05)
(-5.9037e-05 -6.7813e-06 2.1027e-05)
(-5.8192e-05 -8.0199e-06 2.4877e-05)
(-5.686e-05 -9.3708e-06 2.9077e-05)
(-5.5021e-05 -1.0824e-05 3.3597e-05)
(-5.2683e-05 -1.2362e-05 3.8387e-05)
(-4.989e-05 -1.3951e-05 4.3337e-05)
(-4.6735e-05 -1.5524e-05 4.824e-05)
(-4.3344e-05 -1.6977e-05 5.2771e-05)
(-3.9845e-05 -1.8176e-05 5.6515e-05)
(-3.6312e-05 -1.8983e-05 5.9037e-05)
(-3.2747e-05 -1.9296e-05 6.002e-05)
(-2.9115e-05 -1.9089e-05 5.9382e-05)
(-2.5419e-05 -1.8417e-05 5.7292e-05)
(-2.1757e-05 -1.7362e-05 5.4014e-05)
(-1.8314e-05 -1.5978e-05 4.9709e-05)
(-1.5279e-05 -1.4266e-05 4.4382e-05)
(-1.274e-05 -1.2209e-05 3.7978e-05)
(-1.0644e-05 -9.8359e-06 3.0588e-05)
(-8.8277e-06 -7.2771e-06 2.2619e-05)
(-7.1037e-06 -4.7732e-06 1.4818e-05)
(-5.3722e-06 -2.618e-06 8.1054e-06)
(-3.6809e-06 -1.0567e-06 3.2464e-06)
(-2.1803e-06 -1.8794e-07 5.5034e-07)
(-9.7624e-07 7.932e-08 -2.6624e-07)
(0 0 0)
(0 0 0)
(-5.6167e-06 -7.8718e-08 6.4002e-07)
(-1.0662e-05 -9.7961e-08 7.997e-07)
(-1.4887e-05 -4.891e-08 4.0791e-07)
(-1.8443e-05 2.1419e-08 -1.561e-07)
(-2.1662e-05 5.8686e-08 -4.5412e-07)
(-2.478e-05 4.7666e-08 -3.662e-07)
(-2.7864e-05 7.7815e-09 -5.0251e-08)
(-3.0899e-05 -3.8858e-08 3.1809e-07)
(-3.3862e-05 -8.3391e-08 6.7018e-07)
(-3.6744e-05 -1.2652e-07 1.0122e-06)
(-3.9538e-05 -1.7201e-07 1.3737e-06)
(-4.2237e-05 -2.2413e-07 1.7877e-06)
(-4.4827e-05 -2.8721e-07 2.2884e-06)
(-4.7294e-05 -3.6561e-07 2.9114e-06)
(-4.9619e-05 -4.6339e-07 3.6895e-06)
(-5.1784e-05 -5.8397e-07 4.6493e-06)
(-5.3764e-05 -7.3054e-07 5.8161e-06)
(-5.5522e-05 -9.0723e-07 7.2238e-06)
(-5.7014e-05 -1.1201e-06 8.9217e-06)
(-5.8193e-05 -1.3773e-06 1.0973e-05)
(-5.9017e-05 -1.6875e-06 1.3448e-05)
(-5.9462e-05 -2.0572e-06 1.6401e-05)
(-5.9505e-05 -2.4889e-06 1.9854e-05)
(-5.9123e-05 -2.9801e-06 2.3787e-05)
(-5.8283e-05 -3.5258e-06 2.8157e-05)
(-5.6953e-05 -4.1207e-06 3.2924e-05)
(-5.5113e-05 -4.7605e-06 3.8058e-05)
(-5.2765e-05 -5.439e-06 4.3505e-05)
(-4.9955e-05 -6.1414e-06 4.9145e-05)
(-4.6777e-05 -6.8385e-06 5.4746e-05)
(-4.3364e-05 -7.484e-06 5.9938e-05)
(-3.9851e-05 -8.0175e-06 6.4239e-05)
(-3.6317e-05 -8.3765e-06 6.7142e-05)
(-3.2757e-05 -8.5148e-06 6.8269e-05)
(-2.9123e-05 -8.4219e-06 6.7528e-05)
(-2.5408e-05 -8.1231e-06 6.5131e-05)
(-2.1715e-05 -7.6575e-06 6.1396e-05)
(-1.8241e-05 -7.0494e-06 5.6517e-05)
(-1.5192e-05 -6.2978e-06 5.0484e-05)
(-1.2664e-05 -5.3916e-06 4.3211e-05)
(-1.0597e-05 -4.3404e-06 3.4779e-05)
(-8.8115e-06 -3.2017e-06 2.5647e-05)
(-7.1038e-06 -2.0845e-06 1.6685e-05)
(-5.3645e-06 -1.1236e-06 8.9743e-06)
(-3.6499e-06 -4.3173e-07 3.422e-06)
(-2.1336e-06 -5.3961e-08 3.9603e-07)
(-9.4084e-07 5.1356e-08 -4.3404e-07)
(0 0 0)
(0 0 0)
(-5.741e-06 4.4489e-11 7.817e-07)
(-1.0845e-05 1.2403e-10 9.7133e-07)
(-1.5046e-05 2.4209e-10 4.8336e-07)
(-1.8536e-05 3.7167e-10 -2.0647e-07)
(-2.1702e-05 4.7805e-10 -5.5776e-07)
(-2.4799e-05 5.4281e-10 -4.4032e-07)
(-2.7881e-05 5.674e-10 -6.4446e-08)
(-3.0918e-05 5.6043e-10 3.5613e-07)
(-3.3884e-05 5.3338e-10 7.4799e-07)
(-3.6768e-05 4.9243e-10 1.1248e-06)
(-3.9564e-05 4.2841e-10 1.5225e-06)
(-4.2267e-05 3.3189e-10 1.9783e-06)
(-4.4861e-05 2.0359e-10 2.5306e-06)
(-4.7332e-05 4.8349e-11 3.2197e-06)
(-4.9663e-05 -1.2785e-10 4.0825e-06)
(-5.1835e-05 -3.199e-10 5.1478e-06)
(-5.3824e-05 -5.3294e-10 6.4424e-06)
(-5.5594e-05 -7.7386e-10 8.0034e-06)
(-5.7098e-05 -1.0362e-09 9.8857e-06)
(-5.8287e-05 -1.318e-09 1.2161e-05)
(-5.9119e-05 -1.6278e-09 1.491e-05)
(-5.957e-05 -1.972e-09 1.8199e-05)
(-5.9621e-05 -2.3485e-09 2.2051e-05)
(-5.9246e-05 -2.7648e-09 2.644e-05)
(-5.8413e-05 -3.2454e-09 3.1317e-05)
(-5.7088e-05 -3.8006e-09 3.6636e-05)
(-5.5245e-05 -4.4181e-09 4.2366e-05)
(-5.2884e-05 -5.0861e-09 4.8457e-05)
(-5.005e-05 -5.7936e-09 5.4782e-05)
(-4.6838e-05 -6.5e-09 6.1083e-05)
(-4.3393e-05 -7.1344e-09 6.6945e-05)
(-3.9861e-05 -7.6191e-09 7.1818e-05)
(-3.6325e-05 -7.902e-09 7.5113e-05)
(-3.2772e-05 -7.9842e-09 7.6386e-05)
(-2.9135e-05 -7.8782e-09 7.5533e-05)
(-2.5395e-05 -7.5767e-09 7.2816e-05)
(-2.1655e-05 -7.0866e-09 6.8628e-05)
(-1.8136e-05 -6.4423e-09 6.3194e-05)
(-1.5066e-05 -5.6736e-09 5.6484e-05)
(-1.2552e-05 -4.8051e-09 4.8365e-05)
(-1.0527e-05 -3.8683e-09 3.8894e-05)
(-8.7873e-06 -2.9127e-09 2.858e-05)
(-7.1035e-06 -2.0078e-09 1.8422e-05)
(-5.3531e-06 -1.2279e-09 9.6852e-06)
(-3.604e-06 -6.362e-10 3.4351e-06)
(-2.0642e-06 -2.6089e-10 1.083e-07)
(-8.8814e-07 -7.5436e-11 -6.7678e-07)
(0 0 0)
(0 0 0)
(-5.6169e-06 -6.3999e-07 -7.8679e-08)
(-1.0663e-05 -7.9959e-07 -9.7966e-08)
(-1.4887e-05 -4.0768e-07 -4.9057e-08)
(-1.8443e-05 1.5646e-07 2.1092e-08)
(-2.1662e-05 4.5458e-07 5.8225e-08)
(-2.478e-05 3.6673e-07 4.7157e-08)
(-2.7864e-05 5.0851e-08 7.3064e-09)
(-3.0899e-05 -3.1742e-07 -3.9245e-08)
(-3.3862e-05 -6.6945e-07 -8.3664e-08)
(-3.6744e-05 -1.0114e-06 -1.2667e-07)
(-3.9539e-05 -1.3729e-06 -1.7201e-07)
(-4.2237e-05 -1.7868e-06 -2.2394e-07)
(-4.4827e-05 -2.2876e-06 -2.8679e-07)
(-4.7294e-05 -2.9107e-06 -3.6493e-07)
(-4.9619e-05 -3.6889e-06 -4.6239e-07)
(-5.1784e-05 -4.6488e-06 -5.8259e-07)
(-5.3764e-05 -5.8157e-06 -7.2872e-07)
(-5.5522e-05 -7.2236e-06 -9.0488e-07)
(-5.7014e-05 -8.9216e-06 -1.1171e-06)
(-5.8193e-05 -1.0973e-05 -1.3736e-06)
(-5.9018e-05 -1.3448e-05 -1.6829e-06)
(-5.9462e-05 -1.6401e-05 -2.0516e-06)
(-5.9506e-05 -1.9855e-05 -2.4822e-06)
(-5.9123e-05 -2.3788e-05 -2.9721e-06)
(-5.8283e-05 -2.8158e-05 -3.5162e-06)
(-5.6953e-05 -3.2925e-05 -4.1094e-06)
(-5.5113e-05 -3.8058e-05 -4.7475e-06)
(-5.2765e-05 -4.3506e-05 -5.424e-06)
(-4.9955e-05 -4.9146e-05 -6.1244e-06)
(-4.6777e-05 -5.4747e-05 -6.8195e-06)
(-4.3364e-05 -5.9939e-05 -7.4631e-06)
(-3.9851e-05 -6.424e-05 -7.9953e-06)
(-3.6317e-05 -6.7143e-05 -8.3534e-06)
(-3.2757e-05 -6.827e-05 -8.4915e-06)
(-2.9123e-05 -6.7529e-05 -8.3988e-06)
(-2.5408e-05 -6.5131e-05 -8.1008e-06)
(-2.1715e-05 -6.1396e-05 -7.6366e-06)
(-1.8241e-05 -5.6517e-05 -7.0303e-06)
(-1.5192e-05 -5.0484e-05 -6.2809e-06)
(-1.2664e-05 -4.3211e-05 -5.3773e-06)
(-1.0597e-05 -3.4779e-05 -4.3289e-06)
(-8.8115e-06 -2.5647e-05 -3.193e-06)
(-7.1038e-06 -1.6686e-05 -2.0785e-06)
(-5.3645e-06 -8.9748e-06 -1.1199e-06)
(-3.6499e-06 -3.4223e-06 -4.2978e-07)
(-2.1336e-06 -3.9623e-07 -5.3125e-08)
(-9.4083e-07 4.3395e-07 5.1618e-08)
(0 0 0)
(0 0 0)
(-5.4403e-06 -4.5425e-07 1.4927e-10)
(-1.0401e-05 -5.7395e-07 2.0113e-10)
(-1.4656e-05 -3.0643e-07 1.3816e-10)
(-1.8302e-05 9.1863e-08 2.8958e-11)
(-2.1597e-05 3.151e-07 -3.48e-11)
(-2.4749e-05 2.6264e-07 -1.0756e-11)
(-2.7838e-05 2.8903e-08 8.4534e-11)
(-3.0869e-05 -2.6222e-07 2.1558e-10)
(-3.3829e-05 -5.524e-07 3.5616e-10)
(-3.6708e-05 -8.3955e-07 4.9639e-10)
(-3.9499e-05 -1.1442e-06 6.4074e-10)
(-4.2193e-05 -1.4927e-06 7.9966e-10)
(-4.4776e-05 -1.9131e-06 9.8406e-10)
(-4.7235e-05 -2.4341e-06 1.2057e-09)
(-4.9552e-05 -3.0825e-06 1.4772e-09)
(-5.1707e-05 -3.8809e-06 1.8123e-09)
(-5.3672e-05 -4.852e-06 2.2291e-09)
(-5.5413e-05 -6.0248e-06 2.7468e-09)
(-5.6888e-05 -7.4397e-06 3.3829e-09)
(-5.805e-05 -9.1477e-06 4.161e-09)
(-5.8863e-05 -1.1203e-05 5.108e-09)
(-5.9298e-05 -1.3648e-05 6.2385e-09)
(-5.9331e-05 -1.65e-05 7.5545e-09)
(-5.8936e-05 -1.9745e-05 9.0592e-09)
(-5.8086e-05 -2.3351e-05 1.075e-08)
(-5.675e-05 -2.7288e-05 1.2608e-08)
(-5.4914e-05 -3.1523e-05 1.4607e-08)
(-5.2587e-05 -3.6006e-05 1.6722e-08)
(-4.9813e-05 -4.063e-05 1.8903e-08)
(-4.6683e-05 -4.5197e-05 2.1038e-08)
(-4.3316e-05 -4.9406e-05 2.2957e-08)
(-3.9832e-05 -5.2876e-05 2.4465e-08)
(-3.6302e-05 -5.5213e-05 2.5404e-08)
(-3.2735e-05 -5.6128e-05 2.5738e-08)
(-2.9107e-05 -5.5546e-05 2.5495e-08)
(-2.5432e-05 -5.361e-05 2.4665e-08)
(-2.1804e-05 -5.0547e-05 2.3255e-08)
(-1.8395e-05 -4.6504e-05 2.1315e-08)
(-1.5376e-05 -4.1497e-05 1.8904e-08)
(-1.2828e-05 -3.5497e-05 1.6089e-08)
(-1.0704e-05 -2.8608e-05 1.2981e-08)
(-8.855e-06 -2.1214e-05 9.7671e-09)
(-7.1131e-06 -1.4e-05 6.7041e-09)
(-5.3878e-06 -7.7909e-06 4.0677e-09)
(-3.7184e-06 -3.2719e-06 2.0833e-09)
(-2.232e-06 -7.1662e-07 8.387e-10)
(-1.0145e-06 1.3328e-07 2.3476e-10)
(0 0 0)
(0 0 0)
(-5.3656e-06 -3.6179e-07 7.2929e-08)
(-1.0289e-05 -4.5947e-07 9.2549e-08)
(-1.4554e-05 -2.5022e-07 5.027e-08)
(-1.8236e-05 6.6143e-08 -1.3452e-08)
(-2.1564e-05 2.4775e-07 -4.9783e-08)
(-2.4732e-05 2.0911e-07 -4.1751e-08)
(-2.7825e-05 1.9124e-08 -3.4896e-09)
(-3.0856e-05 -2.2418e-07 4.5325e-08)
(-3.3814e-05 -4.7114e-07 9.4872e-08)
(-3.6692e-05 -7.1766e-07 1.4438e-07)
(-3.9481e-05 -9.7979e-07 1.9706e-07)
(-4.2172e-05 -1.2795e-06 2.5731e-07)
(-4.4753e-05 -1.6406e-06 3.2989e-07)
(-4.7208e-05 -2.0874e-06 4.1964e-07)
(-4.9521e-05 -2.6426e-06 5.3111e-07)
(-5.1671e-05 -3.3257e-06 6.6829e-07)
(-5.3629e-05 -4.1566e-06 8.3513e-07)
(-5.5363e-05 -5.1605e-06 1.0367e-06)
(-5.6829e-05 -6.3718e-06 1.2798e-06)
(-5.7985e-05 -7.8331e-06 1.573e-06)
(-5.8792e-05 -9.5894e-06 1.9254e-06)
(-5.9222e-05 -1.1676e-05 2.344e-06)
(-5.925e-05 -1.4107e-05 2.8315e-06)
(-5.885e-05 -1.6872e-05 3.3857e-06)
(-5.7995e-05 -1.9945e-05 4.0016e-06)
(-5.6657e-05 -2.3299e-05 4.6738e-06)
(-5.4824e-05 -2.6906e-05 5.3964e-06)
(-5.2505e-05 -3.0719e-05 6.16e-06)
(-4.9748e-05 -3.4644e-05 6.9459e-06)
(-4.6639e-05 -3.8512e-05 7.7202e-06)
(-4.3293e-05 -4.2068e-05 8.4319e-06)
(-3.9822e-05 -4.4993e-05 9.0169e-06)
(-3.6295e-05 -4.696e-05 9.41e-06)
(-3.2726e-05 -4.7732e-05 9.5639e-06)
(-2.9103e-05 -4.7246e-05 9.4658e-06)
(-2.5445e-05 -4.5613e-05 9.1378e-06)
(-2.1846e-05 -4.3011e-05 8.6159e-06)
(-1.8465e-05 -3.9563e-05 7.9247e-06)
(-1.5458e-05 -3.529e-05 7.0686e-06)
(-1.2902e-05 -3.0183e-05 6.0458e-06)
(-1.0753e-05 -2.4342e-05 4.8764e-06)
(-8.877e-06 -1.8098e-05 3.6263e-06)
(-7.1206e-06 -1.2018e-05 2.4095e-06)
(-5.4006e-06 -6.7837e-06 1.3618e-06)
(-3.7489e-06 -2.9553e-06 5.9521e-07)
(-2.2735e-06 -7.5565e-07 1.5412e-07)
(-1.045e-06 2.9967e-08 -4.4243e-09)
(0 0 0)
(0 0 0)
(-5.3214e-06 -2.8219e-07 1.4189e-07)
(-1.0222e-05 -3.5951e-07 1.8074e-07)
(-1.4492e-05 -1.9811e-07 9.9589e-08)
(-1.8195e-05 4.8122e-08 -2.3994e-08)
(-2.1543e-05 1.9124e-07 -9.5485e-08)
(-2.4722e-05 1.6237e-07 -8.0679e-08)
(-2.7817e-05 1.2475e-08 -5.5397e-09)
(-3.0847e-05 -1.8251e-07 9.1947e-08)
(-3.3805e-05 -3.8263e-07 1.9201e-07)
(-3.6681e-05 -5.8352e-07 2.9255e-07)
(-3.9469e-05 -7.9751e-07 3.9972e-07)
(-4.2159e-05 -1.0422e-06 5.2225e-07)
(-4.4738e-05 -1.3367e-06 6.6974e-07)
(-4.7192e-05 -1.7007e-06 8.5199e-07)
(-4.9502e-05 -2.1526e-06 1.0782e-06)
(-5.1648e-05 -2.7085e-06 1.3564e-06)
(-5.3603e-05 -3.3846e-06 1.6949e-06)
(-5.5332e-05 -4.2016e-06 2.1038e-06)
(-5.6793e-05 -5.1873e-06 2.5971e-06)
(-5.7945e-05 -6.3762e-06 3.192e-06)
(-5.8748e-05 -7.804e-06 3.9064e-06)
(-5.9175e-05 -9.4991e-06 4.7544e-06)
(-5.92e-05 -1.1473e-05 5.7415e-06)
(-5.8797e-05 -1.3716e-05 6.8637e-06)
(-5.7939e-05 -1.621e-05 8.1108e-06)
(-5.66e-05 -1.8932e-05 9.4719e-06)
(-5.4768e-05 -2.1858e-05 1.0935e-05)
(-5.2455e-05 -2.4949e-05 1.248e-05)
(-4.9708e-05 -2.8127e-05 1.4068e-05)
(-4.6612e-05 -3.1254e-05 1.5631e-05)
(-4.3278e-05 -3.4125e-05 1.7066e-05)
(-3.9815e-05 -3.6483e-05 1.8244e-05)
(-3.629e-05 -3.8068e-05 1.9036e-05)
(-3.2721e-05 -3.8691e-05 1.9347e-05)
(-2.9101e-05 -3.8301e-05 1.9151e-05)
(-2.5454e-05 -3.6981e-05 1.849e-05)
(-2.1871e-05 -3.4873e-05 1.7435e-05)
(-1.8507e-05 -3.2073e-05 1.6035e-05)
(-1.5508e-05 -2.8602e-05 1.4299e-05)
(-1.2947e-05 -2.446e-05 1.2229e-05)
(-1.0783e-05 -1.9735e-05 9.867e-06)
(-8.8911e-06 -1.4695e-05 7.3482e-06)
(-7.1262e-06 -9.7955e-06 4.8997e-06)
(-5.409e-06 -5.5758e-06 2.791e-06)
(-3.7673e-06 -2.4803e-06 1.2435e-06)
(-2.298e-06 -6.8453e-07 3.4511e-07)
(-1.0629e-06 -1.6844e-08 1.0036e-08)
(0 0 0)
(0 0 0)
(-5.3068e-06 -2.1041e-07 2.1049e-07)
(-1.02e-05 -2.6832e-07 2.6849e-07)
(-1.4471e-05 -1.4839e-07 1.4865e-07)
(-1.8181e-05 3.4967e-08 -3.4618e-08)
(-2.1536e-05 1.4177e-07 -1.4134e-07)
(-2.4718e-05 1.2041e-07 -1.1991e-07)
(-2.7815e-05 8.4329e-09 -7.8603e-09)
(-3.0844e-05 -1.3784e-07 1.3848e-07)
(-3.3802e-05 -2.8854e-07 2.8922e-07)
(-3.6678e-05 -4.4019e-07 4.4091e-07)
(-3.9465e-05 -6.0188e-07 6.0261e-07)
(-4.2155e-05 -7.8676e-07 7.8748e-07)
(-4.4733e-05 -1.0093e-06 1.01e-06)
(-4.7186e-05 -1.2842e-06 1.2848e-06)
(-4.9496e-05 -1.6253e-06 1.6258e-06)
(-5.1641e-05 -2.0448e-06 2.0453e-06)
(-5.3594e-05 -2.5551e-06 2.5556e-06)
(-5.5321e-05 -3.1718e-06 3.1721e-06)
(-5.6781e-05 -3.9157e-06 3.916e-06)
(-5.7931e-05 -4.8127e-06 4.8131e-06)
(-5.8733e-05 -5.8898e-06 5.8902e-06)
(-5.9159e-05 -7.168e-06 7.1686e-06)
(-5.9183e-05 -8.6557e-06 8.6564e-06)
(-5.8779e-05 -1.0347e-05 1.0348e-05)
(-5.792e-05 -1.2226e-05 1.2228e-05)
(-5.658e-05 -1.4278e-05 1.4279e-05)
(-5.4749e-05 -1.6483e-05 1.6485e-05)
(-5.2438e-05 -1.8812e-05 1.8813e-05)
(-4.9694e-05 -2.1205e-05 2.1207e-05)
(-4.6602e-05 -2.3558e-05 2.3561e-05)
(-4.3273e-05 -2.5718e-05 2.5721e-05)
(-3.9812e-05 -2.7491e-05 2.7494e-05)
(-3.6288e-05 -2.8682e-05 2.8685e-05)
(-3.2719e-05 -2.9151e-05 2.9154e-05)
(-2.9101e-05 -2.8857e-05 2.886e-05)
(-2.5457e-05 -2.7864e-05 2.7866e-05)
(-2.188e-05 -2.6275e-05 2.6278e-05)
(-1.8521e-05 -2.4164e-05 2.4166e-05)
(-1.5524e-05 -2.1547e-05 2.1549e-05)
(-1.2961e-05 -1.8426e-05 1.8428e-05)
(-1.0793e-05 -1.4869e-05 1.4871e-05)
(-8.896e-06 -1.1078e-05 1.108e-05)
(-7.1282e-06 -7.3946e-06 7.3954e-06)
(-5.412e-06 -4.2219e-06 4.2224e-06)
(-3.7734e-06 -1.8917e-06 1.892e-06)
(-2.306e-06 -5.3522e-07 5.3534e-07)
(-1.0687e-06 -2.3801e-08 2.3844e-08)
(0 0 0)
(0 0 0)
(-5.3214e-06 -1.418e-07 2.8227e-07)
(-1.0222e-05 -1.8056e-07 3.5968e-07)
(-1.4492e-05 -9.9315e-08 1.9836e-07)
(-1.8195e-05 2.4352e-08 -4.7781e-08)
(-2.1543e-05 9.5922e-08 -1.9082e-07)
(-2.4721e-05 8.119e-08 -1.6187e-07)
(-2.7817e-05 6.1188e-09 -1.1908e-08)
(-3.0847e-05 -9.1309e-08 1.8314e-07)
(-3.3805e-05 -1.9132e-07 3.8331e-07)
(-3.6681e-05 -2.9184e-07 5.8424e-07)
(-3.9469e-05 -3.9899e-07 7.9824e-07)
(-4.2159e-05 -5.2154e-07 1.0429e-06)
(-4.4738e-05 -6.6907e-07 1.3374e-06)
(-4.7192e-05 -8.5138e-07 1.7014e-06)
(-4.9502e-05 -1.0776e-06 2.1532e-06)
(-5.1648e-05 -1.3559e-06 2.709e-06)
(-5.3603e-05 -1.6944e-06 3.385e-06)
(-5.5332e-05 -2.1033e-06 4.2019e-06)
(-5.6793e-05 -2.5966e-06 5.1876e-06)
(-5.7945e-05 -3.1915e-06 6.3764e-06)
(-5.8748e-05 -3.9058e-06 7.8043e-06)
(-5.9175e-05 -4.7537e-06 9.4994e-06)
(-5.92e-05 -5.7407e-06 1.1473e-05)
(-5.8797e-05 -6.8626e-06 1.3717e-05)
(-5.7939e-05 -8.1094e-06 1.621e-05)
(-5.66e-05 -9.4702e-06 1.8932e-05)
(-5.4768e-05 -1.0933e-05 2.1859e-05)
(-5.2455e-05 -1.2478e-05 2.495e-05)
(-4.9708e-05 -1.4066e-05 2.8128e-05)
(-4.6612e-05 -1.5629e-05 3.1255e-05)
(-4.3278e-05 -1.7063e-05 3.4127e-05)
(-3.9815e-05 -1.8241e-05 3.6485e-05)
(-3.629e-05 -1.9033e-05 3.807e-05)
(-3.2721e-05 -1.9343e-05 3.8693e-05)
(-2.9101e-05 -1.9147e-05 3.8303e-05)
(-2.5454e-05 -1.8487e-05 3.6983e-05)
(-2.1871e-05 -1.7432e-05 3.4875e-05)
(-1.8507e-05 -1.6032e-05 3.2075e-05)
(-1.5508e-05 -1.4296e-05 2.8604e-05)
(-1.2947e-05 -1.2226e-05 2.4462e-05)
(-1.0783e-05 -9.8651e-06 1.9736e-05)
(-8.8911e-06 -7.3469e-06 1.4696e-05)
(-7.1262e-06 -4.8987e-06 9.796e-06)
(-5.409e-06 -2.7903e-06 5.5761e-06)
(-3.7673e-06 -1.2432e-06 2.4804e-06)
(-2.298e-06 -3.4493e-07 6.8456e-07)
(-1.0629e-06 -9.9659e-09 1.6848e-08)
(0 0 0)
(0 0 0)
(-5.3655e-06 -7.2834e-08 3.6186e-07)
(-1.0289e-05 -9.2358e-08 4.5962e-07)
(-1.4553e-05 -4.9988e-08 2.5046e-07)
(-1.8236e-05 1.3819e-08 -6.581e-08)
(-2.1564e-05 5.0229e-08 -2.4733e-07)
(-2.4732e-05 4.2272e-08 -2.0861e-07)
(-2.7825e-05 4.0766e-09 -1.8561e-08)
(-3.0856e-05 -4.4681e-08 2.248e-07)
(-3.3814e-05 -9.4183e-08 4.7183e-07)
(-3.6692e-05 -1.4367e-07 7.1838e-07)
(-3.948e-05 -1.9634e-07 9.8053e-07)
(-4.2172e-05 -2.5661e-07 1.2803e-06)
(-4.4753e-05 -3.2922e-07 1.6413e-06)
(-4.7208e-05 -4.1903e-07 2.0881e-06)
(-4.9521e-05 -5.3057e-07 2.6431e-06)
(-5.1671e-05 -6.678e-07 3.3262e-06)
(-5.3629e-05 -8.3469e-07 4.157e-06)
(-5.5363e-05 -1.0362e-06 5.1608e-06)
(-5.6829e-05 -1.2793e-06 6.372e-06)
(-5.7985e-05 -1.5725e-06 7.8332e-06)
(-5.8792e-05 -1.9248e-06 9.5895e-06)
(-5.9222e-05 -2.3432e-06 1.1676e-05)
(-5.925e-05 -2.8305e-06 1.4107e-05)
(-5.885e-05 -3.3845e-06 1.6872e-05)
(-5.7995e-05 -4.0002e-06 1.9945e-05)
(-5.6657e-05 -4.672e-06 2.3299e-05)
(-5.4824e-05 -5.3943e-06 2.6907e-05)
(-5.2505e-05 -6.1576e-06 3.072e-05)
(-4.9748e-05 -6.9432e-06 3.4645e-05)
(-4.6639e-05 -7.7172e-06 3.8513e-05)
(-4.3293e-05 -8.4287e-06 4.2069e-05)
(-3.9822e-05 -9.0135e-06 4.4993e-05)
(-3.6295e-05 -9.4064e-06 4.6961e-05)
(-3.2726e-05 -9.5603e-06 4.7733e-05)
(-2.9103e-05 -9.4622e-06 4.7248e-05)
(-2.5445e-05 -9.1342e-06 4.5614e-05)
(-2.1846e-05 -8.6125e-06 4.3012e-05)
(-1.8465e-05 -7.9216e-06 3.9565e-05)
(-1.5458e-05 -7.0658e-06 3.5292e-05)
(-1.2902e-05 -6.0434e-06 3.0184e-05)
(-1.0753e-05 -4.8744e-06 2.4343e-05)
(-8.877e-06 -3.6248e-06 1.8098e-05)
(-7.1206e-06 -2.4084e-06 1.2018e-05)
(-5.4006e-06 -1.3611e-06 6.7837e-06)
(-3.7488e-06 -5.9481e-07 2.9552e-06)
(-2.2735e-06 -1.5391e-07 7.5558e-07)
(-1.045e-06 4.5081e-09 -3.0013e-08)
(0 0 0)
(0 0 0)
(-5.4402e-06 -5.3264e-11 4.5432e-07)
(-1.0401e-05 -8.8294e-12 5.7409e-07)
(-1.4655e-05 1.4814e-10 3.0667e-07)
(-1.8301e-05 3.4574e-10 -9.1537e-08)
(-2.1597e-05 4.9072e-10 -3.1469e-07)
(-2.4749e-05 5.4039e-10 -2.6215e-07)
(-2.7838e-05 5.1064e-10 -2.8343e-08)
(-3.0869e-05 4.3498e-10 2.6285e-07)
(-3.3829e-05 3.3612e-10 5.5309e-07)
(-3.6708e-05 2.1922e-10 8.4029e-07)
(-3.9499e-05 7.5562e-11 1.145e-06)
(-4.2192e-05 -1.0723e-10 1.4934e-06)
(-4.4776e-05 -3.3818e-10 1.9138e-06)
(-4.7235e-05 -6.2228e-10 2.4348e-06)
(-4.9552e-05 -9.6187e-10 3.083e-06)
(-5.1707e-05 -1.3602e-09 3.8814e-06)
(-5.3672e-05 -1.8253e-09 4.8523e-06)
(-5.5413e-05 -2.3681e-09 6.025e-06)
(-5.6887e-05 -2.9985e-09 7.4398e-06)
(-5.805e-05 -3.732e-09 9.1477e-06)
(-5.8863e-05 -4.588e-09 1.1203e-05)
(-5.9298e-05 -5.5775e-09 1.3648e-05)
(-5.9331e-05 -6.7024e-09 1.65e-05)
(-5.8936e-05 -7.9725e-09 1.9745e-05)
(-5.8086e-05 -9.4012e-09 2.3351e-05)
(-5.675e-05 -1.0982e-08 2.7288e-05)
(-5.4914e-05 -1.2696e-08 3.1523e-05)
(-5.2587e-05 -1.4523e-08 3.6006e-05)
(-4.9813e-05 -1.6423e-08 4.063e-05)
(-4.6683e-05 -1.8293e-08 4.5197e-05)
(-4.3316e-05 -1.9973e-08 4.9406e-05)
(-3.9832e-05 -2.1289e-08 5.2876e-05)
(-3.6302e-05 -2.2105e-08 5.5213e-05)