/*--------------------------------*- C++ -*----------------------------------*\
| =========                 |                                                 |
| \\      /  F ield         | OpenFOAM: The Open Source CFD Toolbox           |
|  \\    /   O peration     | Version:  4.1                                   |
|   \\  /    A nd           | Web:      www.OpenFOAM.org                      |
|    \\/     M anipulation  |                                                 |
\*---------------------------------------------------------------------------*/
FoamFile
{
    version     2.0;
    format      ascii;
    class       volVectorField;
    location    "0.000130";
    object      U;
}
// * * * * * * * * * * * * * * * * * * * * * * * * * * * * * * * * * * * * * //

dimensions      [0 1 -1 0 0 0 0];

internalField   nonuniform List<vector> 
3072
(
(3.3781713 -0.022170903 0.0004690895)
(3.3955593 -0.023824457 0.00049216788)
(3.4155318 -0.024496196 0.00047211071)
(3.4381197 -0.026132629 0.00040334902)
(3.4644803 -0.028835328 0.00029879377)
(3.4917823 -0.028422927 0.00015056271)
(3.5008438 -0.025781378 6.1529848e-05)
(3.5014619 -0.025301817 8.2087133e-05)
(3.5103794 -0.023620072 0.00032065199)
(3.521667 -0.022226218 0.00043968287)
(3.5520323 -0.022001902 0.00036238961)
(3.5944194 -0.020492415 0.00024200286)
(3.6511548 -0.019279804 0.00016049954)
(3.7137903 -0.016592708 5.411505e-05)
(3.7832368 -0.013387533 -8.2409498e-05)
(3.8466143 -0.0096863998 -0.00015676518)
(3.9070166 -0.0064719875 -0.00012231749)
(3.9546759 -0.0050644752 -3.1279264e-05)
(3.9893494 -0.0076523509 -1.5847288e-05)
(4.0107619 -0.017200881 -3.1736797e-05)
(4.0166596 -0.037160738 -6.6040025e-05)
(4.0082871 -0.071028717 -0.00012782501)
(3.9549842 -0.11427483 5.2522712e-05)
(4.1084007 -0.10063511 0.00015725098)
(3.4115771 -0.016923533 0.0033933605)
(3.4269537 -0.018055191 0.003416612)
(3.4443766 -0.018625318 0.0029713533)
(3.4642014 -0.020260629 0.0023785703)
(3.4871374 -0.021967585 0.0027421814)
(3.510997 -0.022027625 0.0014238913)
(3.5261002 -0.019685748 -0.00029486799)
(3.5345979 -0.018341499 -0.0013338411)
(3.5453406 -0.015619211 -0.0021938005)
(3.5527496 -0.013095996 -0.0029158485)
(3.5683292 -0.011278186 -0.0032082997)
(3.5884406 -0.0088778416 -0.0035891849)
(3.6152123 -0.0069695915 -0.0035111351)
(3.6455923 -0.0043982791 -0.0036246725)
(3.6796156 -0.0019429979 -0.0037053353)
(3.7122864 0.00030840099 -0.0037835465)
(3.7445822 0.0016076568 -0.003536752)
(3.772088 0.00044452685 -0.0028475291)
(3.7946374 -0.0047417853 -0.0013854656)
(3.8129006 -0.017057422 0.0013757342)
(3.8284953 -0.039313583 0.0060405973)
(3.844512 -0.072571467 0.012571325)
(3.8382785 -0.1073887 0.021348582)
(4.0518694 -0.086160471 0.019116015)
(3.4636418 -0.014377639 0.0047177352)
(3.4781955 -0.014971569 0.0051602818)
(3.4937308 -0.015125553 0.0052101193)
(3.5105136 -0.016070478 0.0052764814)
(3.5291971 -0.01726702 0.0058144594)
(3.547905 -0.016836701 0.0048185036)
(3.5574643 -0.014648242 0.0030865681)
(3.5604484 -0.013358331 0.0020403557)
(3.5647277 -0.011153191 0.00092294631)
(3.5655787 -0.0092468006 1.397438e-05)
(3.5731305 -0.0078164727 -0.00062312349)
(3.5846564 -0.0060521171 -0.0013650421)
(3.6013982 -0.0045798394 -0.0017372977)
(3.6210962 -0.0026621923 -0.0023824735)
(3.6433354 -0.00079992321 -0.0030008853)
(3.664496 0.00093185019 -0.0035444134)
(3.6858328 0.001766746 -0.0035516357)
(3.7042198 0.00041690809 -0.0025633187)
(3.7207443 -0.0045662839 -3.7398099e-07)
(3.7370848 -0.015902553 0.0052698463)
(3.7575958 -0.035929968 0.014311595)
(3.7874647 -0.064779334 0.027246173)
(3.8044624 -0.092379224 0.041612936)
(4.0368072 -0.070787518 0.032831713)
(3.4948896 -0.011698131 0.00692005)
(3.5097591 -0.011977258 0.0075452341)
(3.5247541 -0.01190792 0.0077439319)
(3.540135 -0.01242994 0.0080543211)
(3.5566522 -0.013310721 0.0086800614)
(3.5726607 -0.012608631 0.0078182269)
(3.5791158 -0.010561543 0.0060823408)
(3.5789871 -0.0093397313 0.0050228901)
(3.5795245 -0.0074849389 0.003679382)
(3.5762537 -0.0059419357 0.0025887534)
(3.5790788 -0.0047869701 0.001727911)
(3.5855378 -0.0034429801 0.000778604)
(3.5969612 -0.0023878871 9.3963466e-05)
(3.6114325 -0.0010645564 -0.00094963715)
(3.628476 0.00021384339 -0.0019843961)
(3.6449753 0.0014565641 -0.0029045451)
(3.662218 0.0019954881 -0.003059802)
(3.6775243 0.00075753984 -0.0017264068)
(3.6926773 -0.0034980335 0.001993765)
(3.7096012 -0.013067947 0.0097823423)
(3.7334053 -0.029938381 0.02314262)
(3.7697372 -0.054215859 0.041921982)
(3.7952525 -0.077606967 0.059627879)
(4.0336685 -0.058270236 0.044393411)
(3.4989438 -0.0089174634 0.0093903016)
(3.5143412 -0.0090392858 0.0101606)
(3.5292941 -0.0088789449 0.010456362)
(3.5443257 -0.0091910945 0.011038662)
(3.5604348 -0.0099121291 0.0118482)
(3.5759995 -0.0090541956 0.011112351)
(3.5817425 -0.0071711224 0.0093120759)
(3.581173 -0.0060847542 0.0082153118)
(3.5812985 -0.0045654611 0.0065754573)
(3.5777028 -0.0033147673 0.0051782247)
(3.5801069 -0.0024212526 0.0040544536)
(3.5861087 -0.0013747294 0.0028013093)
(3.5971281 -0.00061925264 0.0018026716)
(3.6113269 0.00029161945 0.00035596698)
(3.6283693 0.001169845 -0.0010801991)
(3.6450072 0.0020986302 -0.002371784)
(3.6624912 0.0025399237 -0.0026898401)
(3.678047 0.0017037706 -0.0010259545)
(3.6936873 -0.0013951292 0.0038456785)
(3.7111007 -0.0086507357 0.014096899)
(3.7349804 -0.021684054 0.031644904)
(3.7712986 -0.040752038 0.056045334)
(3.7970125 -0.061354799 0.076783148)
(4.0394115 -0.046581194 0.05602585)
(3.4732136 -0.0062476522 0.012085031)
(3.4892324 -0.006342349 0.012998977)
(3.5049276 -0.0061504581 0.013418467)
(3.5210943 -0.0062480753 0.014353013)
(3.5389271 -0.0069600399 0.015502699)
(3.5566783 -0.0059362632 0.014980739)
(3.5644641 -0.0041785039 0.013122264)
(3.5663989 -0.0031555332 0.012053728)
(3.5695595 -0.001888674 0.010116436)
(3.5694861 -0.00081812554 0.0083242176)
(3.5759362 -0.00015181691 0.0068877194)
(3.5864043 0.0006853077 0.0052114201)
(3.6022828 0.0011756432 0.0038143759)
(3.6213878 0.0017738974 0.0018742153)
(3.6437441 0.0023138822 -5.3787496e-05)
(3.6653601 0.0029289086 -0.001845828)
(3.6873934 0.0032601026 -0.0025396634)
(3.7066479 0.0028247122 -0.00084651735)
(3.7241287 0.00087916353 0.0047249615)
(3.7410554 -0.0040011632 0.016849838)
(3.7613742 -0.013013845 0.037911778)
(3.7907493 -0.026615063 0.067693727)
(3.808171 -0.04352416 0.093832519)
(4.0523821 -0.034738242 0.069112655)
(3.4218705 -0.0043381846 0.014982318)
(3.4398763 -0.0042603693 0.016164534)
(3.4582594 -0.0037600565 0.01682101)
(3.4779077 -0.0032645937 0.018384453)
(3.5002996 -0.0038204895 0.019992202)
(3.5234257 -0.0024983328 0.019905406)
(3.5365202 -0.00088458976 0.017880649)
(3.5438772 5.7949099e-05 0.01682249)
(3.5530697 0.0010697514 0.014405566)
(3.5591423 0.0019818014 0.011973869)
(3.5732842 0.0023105786 0.010144905)
(3.5921036 0.0027975479 0.0078570145)
(3.6179422 0.0028794075 0.0060702677)
(3.6476301 0.003067497 0.0035779595)
(3.681776 0.003166355 0.0011715707)
(3.7150727 0.0033305121 -0.0011128077)
(3.7483829 0.0033674436 -0.0023177201)
(3.7770143 0.0032029243 -0.00093925229)
(3.8002719 0.0023015489 0.0046891176)
(3.8187437 -0.0001169981 0.017734253)
(3.8335825 -0.0048067354 0.041056215)
(3.8479334 -0.011899281 0.075558567)
(3.8407145 -0.021977361 0.1104511)
(4.0687759 -0.019475419 0.084705231)
(3.3852702 -0.0007136416 0.020865349)
(3.4063998 -0.00087503409 0.02227632)
(3.4284758 -0.00096351089 0.022793066)
(3.451774 -0.0011059785 0.024279838)
(3.4783856 -0.0012112247 0.026918909)
(3.5055513 -0.0012194897 0.026243747)
(3.5118661 -0.0012245278 0.024004321)
(3.5122055 -0.0013086811 0.024063684)
(3.5205847 -0.0013398069 0.022696738)
(3.5305698 -0.0013353184 0.021348809)
(3.5593941 -0.00119102 0.021098089)
(3.6004126 -0.00095861473 0.019708758)
(3.6562995 -0.00071491161 0.018604345)
(3.7182147 -0.0004967179 0.015989851)
(3.7874947 -0.00030485279 0.012894999)
(3.8513792 -0.00015044884 0.0092740211)
(3.9134015 1.1261194e-06 0.0061990819)
(3.962641 0.00030804308 0.0048462918)
(3.9982682 0.00070985492 0.007591141)
(4.0200611 0.0010227355 0.017557561)
(4.0248673 0.001117971 0.03816189)
(4.0138628 0.00092881552 0.073045334)
(3.9579891 0.00063693783 0.11760205)
(4.1212731 0.00013785029 0.099583076)
(3.4080275 -0.017120696 -0.0022225963)
(3.4244199 -0.018272467 -0.0021711831)
(3.4429178 -0.018856938 -0.0017614049)
(3.4636442 -0.020508448 -0.0013194934)
(3.4874387 -0.02221263 -0.0019228039)
(3.5121152 -0.022171845 -0.00089501794)
(3.5260459 -0.019961206 0.000598001)
(3.5354833 -0.018603662 0.0016848404)
(3.5454389 -0.015971526 0.0029171968)
(3.5548704 -0.013489475 0.0038514766)
(3.5718698 -0.011535616 0.0038495664)
(3.5922607 -0.0090885493 0.0039033291)
(3.620014 -0.0071134432 0.0036636533)
(3.650564 -0.0044598433 0.0035585674)
(3.6848246 -0.0019075635 0.0034134531)
(3.7170822 0.00045750374 0.003368015)
(3.7484556 0.0018259438 0.003193922)
(3.7749385 0.00064681224 0.0026732777)
(3.7966003 -0.0046304387 0.0013013992)
(3.8140975 -0.017058674 -0.0014066346)
(3.8291332 -0.039455293 -0.0061219121)
(3.8446463 -0.072903418 -0.01279637)
(3.8379459 -0.10795348 -0.020952596)
(4.0525793 -0.086473496 -0.018666188)
(3.3415795 -0.013989815 0.00070720777)
(3.3591858 -0.014828526 0.00075943387)
(3.3801425 -0.015391389 0.00074938983)
(3.4049958 -0.017082828 0.00067328472)
(3.4338802 -0.018172436 0.00054555734)
(3.4654113 -0.018713414 0.00033714123)
(3.49682 -0.017100091 0.00024885682)
(3.5260997 -0.01548663 0.00025494361)
(3.5526373 -0.012354091 0.00047248004)
(3.5740866 -0.0089756187 0.00062314715)
(3.5931299 -0.0055742593 0.00037136841)
(3.6081518 -0.0019917969 0.00013400028)
(3.6214581 0.0011622661 2.9234874e-05)
(3.6324439 0.0043566466 -0.00012098115)
(3.6413318 0.0069929928 -0.00025142985)
(3.6488606 0.0088792869 -0.00035107542)
(3.6550763 0.0092417856 -0.00034669459)
(3.6617081 0.0064111955 -0.00027046272)
(3.6702166 -0.00080268211 -0.00016820729)
(3.6837397 -0.015431691 -4.8994773e-05)
(3.7087997 -0.039441984 -1.1001896e-05)
(3.7523195 -0.071294084 -5.6615135e-05)
(3.7964684 -0.096040239 0.00036428423)
(4.0457383 -0.070042288 0.00038882409)
(3.3734782 -0.011574943 0.0023542416)
(3.3910336 -0.012041162 0.0027867173)
(3.4111932 -0.012304535 0.0030582758)
(3.4343322 -0.013446789 0.0034765735)
(3.4605837 -0.014173821 0.0036597263)
(3.4889608 -0.014437737 0.0035927212)
(3.5169533 -0.013171691 0.0031144682)
(3.5429785 -0.011925647 0.0027013627)
(3.5660193 -0.0095987514 0.0021356189)
(3.5843783 -0.0070987254 0.0014711259)
(3.5995886 -0.004400474 0.0004186229)
(3.6108592 -0.0016317769 -0.00062943753)
(3.6193594 0.00093618776 -0.0014871225)
(3.6246591 0.003451741 -0.0023887077)
(3.6267401 0.0055979851 -0.0031558419)
(3.6266123 0.0072147308 -0.0036664546)
(3.6249442 0.0075180621 -0.0036778751)
(3.6244818 0.0051016157 -0.002822021)
(3.6283555 -0.0011889839 -0.00089168695)
(3.6410862 -0.01385216 0.0028140806)
(3.6715941 -0.034301737 0.0086834781)
(3.7287757 -0.060220673 0.015988479)
(3.7916064 -0.077061473 0.020968351)
(4.0448311 -0.054195065 0.014780077)
(3.3973251 -0.0089446841 0.0044984488)
(3.4154397 -0.0092271048 0.0051409973)
(3.4355634 -0.0093522761 0.005545338)
(3.4579756 -0.0101821 0.0062039599)
(3.4828817 -0.010713279 0.0065111653)
(3.5095306 -0.010814628 0.0065251728)
(3.5356927 -0.0097842778 0.0058450146)
(3.5596752 -0.0088148014 0.0051668651)
(3.5803375 -0.0070401363 0.0040903086)
(3.5959899 -0.0051191495 0.0029054342)
(3.6080541 -0.0029640792 0.0013311819)
(3.6160886 -0.00079488833 -0.00020386533)
(3.6211206 0.0011942503 -0.0016004254)
(3.6228878 0.0030420826 -0.0030429428)
(3.6214999 0.0046101744 -0.004303694)
(3.6179475 0.0058533995 -0.0051648703)
(3.613119 0.0061338399 -0.0051461404)
(3.6100297 0.0043242696 -0.0035474724)
(3.6126657 -0.00053067948 0.00016957991)
(3.6260365 -0.010418671 0.0073128259)
(3.6597096 -0.026429655 0.018669252)
(3.7229349 -0.046558563 0.032573299)
(3.7918169 -0.059138041 0.039804835)
(4.0459804 -0.040999788 0.026849671)
(3.4016084 -0.0061209272 0.0069033974)
(3.4198168 -0.0063830465 0.0076887279)
(3.4396288 -0.0065189235 0.0081643685)
(3.4615702 -0.0072181637 0.0090091032)
(3.485992 -0.0076748097 0.0094243133)
(3.5121114 -0.0077137916 0.0094986736)
(3.5376379 -0.0069714108 0.0086118341)
(3.5611018 -0.0063625949 0.0076523973)
(3.5814069 -0.0051759845 0.0060172345)
(3.5967057 -0.0038561138 0.0042135519)
(3.6084245 -0.0022744324 0.0020704371)
(3.6161816 -0.00065652838 -1.6888591e-05)
(3.6209383 0.0008162718 -0.0019311822)
(3.6225821 0.0021428107 -0.003876647)
(3.6214364 0.0032828328 -0.0055706993)
(3.6182529 0.0042861558 -0.0067578258)
(3.6137048 0.0047220694 -0.0067044948)
(3.6108888 0.0038205989 -0.0043429459)
(3.6137744 0.00087098234 0.0011985554)
(3.6272588 -0.0056687593 0.011789914)
(3.6610613 -0.016632714 0.028597584)
(3.724746 -0.030712279 0.049119865)
(3.7946026 -0.040568162 0.058629896)
(4.0535957 -0.028353406 0.038832256)
(3.3832226 -0.0035138556 0.0093449862)
(3.4013434 -0.0038057885 0.010269484)
(3.421039 -0.0039509498 0.010856568)
(3.4432521 -0.00446556 0.012012179)
(3.4685135 -0.004842661 0.012649775)
(3.4958185 -0.0048278932 0.012870209)
(3.5223726 -0.0043581447 0.011813997)
(3.5471749 -0.0040362008 0.010691238)
(3.569345 -0.0033380366 0.0085653108)
(3.5867989 -0.0025166317 0.0061599444)
(3.6011597 -0.0014491275 0.0034667425)
(3.6118449 -0.00031310811 0.00078160649)
(3.6198074 0.00067593525 -0.0016805831)
(3.6249179 0.001580503 -0.0041866862)
(3.6277105 0.0023284586 -0.0063811001)
(3.6286276 0.003006168 -0.0080203367)
(3.627664 0.0034685677 -0.0081659398)
(3.6276799 0.0033561904 -0.0053824654)
(3.6316501 0.0022116204 0.0014836872)
(3.6442004 -0.00095319432 0.014911055)
(3.6747875 -0.0066355988 0.036528841)
(3.7327918 -0.01434576 0.063540531)
(3.7980429 -0.020828587 0.077735341)
(4.0645243 -0.015071147 0.051949505)
(3.3507883 -0.0013319627 0.011908016)
(3.3703763 -0.0015225804 0.013040991)
(3.3917704 -0.0015491536 0.013817239)
(3.4162325 -0.0016528593 0.015487722)
(3.4445926 -0.0017474481 0.016487289)
(3.4755377 -0.0016582199 0.016953578)
(3.5059232 -0.0016631826 0.015554885)
(3.5339701 -0.0017882212 0.014140992)
(3.5594847 -0.0018379957 0.011268768)
(3.5797069 -0.0018017651 0.0079837795)
(3.5977534 -0.0015041303 0.0045878651)
(3.6121367 -0.0011566019 0.0011156343)
(3.6249637 -0.0008495337 -0.0018938107)
(3.6357846 -0.00052240952 -0.0049889973)
(3.6453517 -0.00027935609 -0.0075882936)
(3.6539709 -6.2066223e-05 -0.0095298946)
(3.6611233 0.00023375173 -0.0098553549)
(3.6682732 0.000794688 -0.0068762582)
(3.6762465 0.0014102858 0.00070606485)
(3.688998 0.001862119 0.0160271)
(3.7133194 0.002098168 0.041271344)
(3.7563268 0.0020311079 0.074516876)
(3.8019521 0.0017326612 0.097622266)
(4.0686128 0.0011023563 0.067549667)
(3.41137 0.0023628157 0.015554057)
(3.4319687 0.0019291768 0.016777409)
(3.4528425 0.0012981514 0.01738279)
(3.4746303 0.0005536312 0.01895092)
(3.499175 0.0008805123 0.020560691)
(3.5243682 -0.0004189056 0.0203562)
(3.537032 -0.0020549051 0.018441743)
(3.5462237 -0.0031582152 0.017526104)
(3.5563977 -0.0042272119 0.015210513)
(3.564711 -0.0050650074 0.012797984)
(3.5807386 -0.0049555474 0.010846151)
(3.6004466 -0.0048447372 0.0085129196)
(3.6278245 -0.0043643553 0.006635168)
(3.6579501 -0.0040120454 0.0040160219)
(3.6920013 -0.0036881096 0.0015024256)
(3.7245707 -0.0035125091 -0.00085327027)
(3.7573729 -0.0031536826 -0.0021546456)
(3.7851019 -0.0022115035 -0.0010351855)
(3.8064709 -0.00034252338 0.0042915509)
(3.8229993 0.002835572 0.017097474)
(3.8357952 0.0079079056 0.040286533)
(3.8480845 0.014892765 0.074794443)
(3.8401144 0.024432169 0.10977885)
(4.0693143 0.021080993 0.08448477)
(3.4586933 -0.014544312 -0.0035683826)
(3.4744988 -0.015121233 -0.0039438868)
(3.4913812 -0.015288298 -0.0040138663)
(3.5093811 -0.016252549 -0.0042058496)
(3.529232 -0.017424236 -0.0049831921)
(3.548951 -0.016935876 -0.0042412035)
(3.557734 -0.014883608 -0.0027224645)
(3.5618618 -0.013580956 -0.001658421)
(3.565813 -0.01140473 -0.00035766379)
(3.5693971 -0.0094947932 0.00062477386)
(3.5789269 -0.0079020093 0.00098865643)
(3.5908943 -0.0060577215 0.0013997269)
(3.6088775 -0.0045154454 0.0016350341)
(3.6288917 -0.002524996 0.0021037419)
(3.6516165 -0.00058565915 0.0025769586)
(3.6724161 0.0012196535 0.0030863861)
(3.6926389 0.0020830776 0.0032182878)
(3.7096376 0.0006610936 0.0024186909)
(3.7249782 -0.0045291145 -2.7738078e-06)
(3.7402838 -0.016128031 -0.0051766731)
(3.7597663 -0.036475653 -0.014295915)
(3.7885935 -0.065683035 -0.02743746)
(3.8047649 -0.093733969 -0.041340858)
(4.0392018 -0.071503582 -0.032650497)
(3.3723172 -0.01160275 -0.00093240617)
(3.3901031 -0.012028272 -0.0012856863)
(3.4105588 -0.012297794 -0.0015674635)
(3.4340636 -0.013446034 -0.0021211777)
(3.4606943 -0.014148639 -0.0025802272)
(3.4893431 -0.01443455 -0.0028983431)
(3.5176406 -0.013178823 -0.0025836926)
(3.5438249 -0.011933952 -0.0021729089)
(3.5672691 -0.0095477846 -0.0012824266)
(3.5863741 -0.0069939113 -0.00041268974)
(3.6021679 -0.0042835432 0.00013409014)
(3.6135687 -0.0014778979 0.0006777756)
(3.6223157 0.0011099498 0.0013126301)
(3.6277477 0.0036384839 0.0019131127)
(3.630061 0.0057845533 0.0024490068)
(3.6299564 0.0073640961 0.0028222479)
(3.6281038 0.007626672 0.0028935037)
(3.6272462 0.0051556359 0.0022334933)
(3.6305589 -0.0012578893 0.00059569125)
(3.6426704 -0.01408361 -0.0027774399)
(3.6726253 -0.034738448 -0.0085405449)
(3.7294133 -0.060881083 -0.015973931)
(3.7919858 -0.077926854 -0.020039304)
(4.0470241 -0.054570535 -0.014064539)
(3.4096267 -0.0092760334 0.00075702521)
(3.4272869 -0.0093766306 0.00077318372)
(3.446776 -0.0093848006 0.00077158145)
(3.468229 -0.010006828 0.00070268976)
(3.4917017 -0.010353448 0.00054210353)
(3.5165602 -0.010421546 0.00035198873)
(3.5408097 -0.009586483 0.00026117639)
(3.5630999 -0.0088107435 0.00025858447)
(3.5826323 -0.0072682937 0.0004024071)
(3.5981974 -0.0055872279 0.00048620186)
(3.6101411 -0.0036442424 0.00021594595)
(3.6180799 -0.0016279475 -7.3840373e-05)
(3.6226587 0.00032593065 -0.00020822951)
(3.6234364 0.0021840503 -0.00038332571)
(3.6203026 0.0038265595 -0.00050697273)
(3.6141248 0.0051394855 -0.00055631424)
(3.6060465 0.0054355761 -0.00050141229)
(3.5998527 0.0035597505 -0.00037662104)
(3.6003134 -0.0015892341 -0.00016415999)
(3.6134391 -0.011893425 9.3997979e-05)
(3.6502998 -0.028137379 0.00021143428)
(3.7207959 -0.04754922 0.00015090978)
(3.7986147 -0.057217242 0.0007630971)
(4.0493284 -0.038705044 0.00053611308)
(3.4393255 -0.006697949 0.0027605689)
(3.4573723 -0.0066862272 0.0029987877)
(3.4766072 -0.0066050933 0.0031382168)
(3.4970309 -0.0069632068 0.0033123366)
(3.518718 -0.007148902 0.003271082)
(3.5412848 -0.0070962685 0.0031509079)
(3.5631365 -0.0065230657 0.002851388)
(3.5828594 -0.0060581639 0.0026108739)
(3.5995402 -0.0050712034 0.0022860167)
(3.6119058 -0.0039475753 0.0018900074)
(3.6203283 -0.0025617576 0.0011002675)
(3.6247081 -0.0011227054 0.00030136501)
(3.6255242 0.00022402484 -0.00041281566)
(3.6226542 0.0014204235 -0.0011876325)
(3.6161208 0.0024726659 -0.0018793787)
(3.6066969 0.0034204148 -0.0023284277)
(3.5956718 0.0037546665 -0.0022584232)
(3.5871011 0.0026378856 -0.0013310222)
(3.5866 -0.00077351435 0.00080632163)
(3.6006637 -0.0078032393 0.0047323722)
(3.640954 -0.018910989 0.010650066)
(3.7173225 -0.031981713 0.017305244)
(3.8001106 -0.037840879 0.019485886)
(4.0485248 -0.025310075 0.012488174)
(3.4431103 -0.003929659 0.0050125998)
(3.4610224 -0.0039811158 0.005407751)
(3.4798523 -0.0039549716 0.0056140866)
(3.4997744 -0.0042286946 0.0059421121)
(3.5209796 -0.0043877806 0.005976081)
(3.5430154 -0.0043314619 0.0058845417)
(3.564215 -0.0040572917 0.0053721023)
(3.5834747 -0.0039643791 0.0048421749)
(3.5998506 -0.003554385 0.0039700356)
(3.6118904 -0.0030127744 0.0029785129)
(3.6200679 -0.0022001684 0.0015952481)
(3.6242936 -0.0013181132 0.00023267183)
(3.6249554 -0.00052608053 -0.0010398992)
(3.622166 0.00014637946 -0.0023467305)
(3.6163081 0.00075509879 -0.003523548)
(3.607767 0.0014327757 -0.0043448311)
(3.5971861 0.0019298669 -0.0042399482)
(3.5887802 0.0018231896 -0.0024361184)
(3.5883017 0.00055477049 0.0017521151)
(3.6022092 -0.0026898214 0.0094847085)
(3.642558 -0.008172277 0.021315345)
(3.7194053 -0.014837334 0.034786789)
(3.8030332 -0.01837416 0.038124449)
(4.0544479 -0.012412108 0.024181186)
(3.4176531 -0.0014412084 0.00720756)
(3.4354458 -0.001558373 0.0077855136)
(3.4543233 -0.0015492616 0.0081228135)
(3.4748676 -0.0016476668 0.0087545007)
(3.4974327 -0.0017240264 0.008991563)
(3.5212833 -0.0016529532 0.0090211284)
(3.5441416 -0.0016548272 0.0083387506)
(3.5654382 -0.001819322 0.0076291925)
(3.5843042 -0.0018602174 0.0062767406)
(3.5991168 -0.0017679384 0.0047107)
(3.6105376 -0.0014439373 0.0027683729)
(3.6182802 -0.0010449423 0.00083292154)
(3.6226958 -0.000750987 -0.0010010933)
(3.623921 -0.00048763177 -0.0028515229)
(3.6225355 -0.00029322243 -0.0045579133)
(3.6184673 -3.5110575e-05 -0.0058799042)
(3.6115222 0.00038175179 -0.0059746954)
(3.6055449 0.0010517236 -0.0036268483)
(3.6055103 0.0017176834 0.0021511633)
(3.6178749 0.0021626881 0.013146688)
(3.6545823 0.0023794258 0.030366819)
(3.7257937 0.0023126986 0.050562357)
(3.8055307 0.0018751532 0.057208369)
(4.0644321 0.0011967626 0.036707477)
(3.3781712 0.00080285728 0.0094546212)
(3.3976749 0.00077626603 0.010308311)
(3.4186285 0.00089832797 0.010874196)
(3.4420033 0.0012012122 0.012033475)
(3.4684352 0.0013949192 0.012651801)
(3.4968207 0.0015250558 0.012889012)
(3.5244823 0.0010210086 0.011827644)
(3.5499793 0.00041077373 0.010751916)
(3.5728688 -0.00037009041 0.0086338447)
(3.5911088 -0.0010436339 0.0061986351)
(3.606487 -0.0014716847 0.0035033371)
(3.617934 -0.0018507739 0.00080631399)
(3.6268594 -0.0022119752 -0.0016157497)
(3.6329933 -0.0024910476 -0.0040404875)
(3.6369745 -0.002788525 -0.0061803301)
(3.6387701 -0.0030412613 -0.0078398071)
(3.6383701 -0.0028929214 -0.0080749417)
(3.6380484 -0.0016275154 -0.0053958029)
(3.6402769 0.00080402683 0.0013890118)
(3.6508912 0.0049150869 0.014772762)
(3.6795615 0.011105697 0.036377186)
(3.735325 0.018674689 0.063336983)
(3.7987664 0.024392735 0.077527353)
(4.0648783 0.017167736 0.051790154)
(3.457426 0.0042681643 0.012713036)
(3.4775191 0.0040581983 0.013593281)
(3.4970814 0.0037626434 0.013947006)
(3.5166137 0.0036028285 0.014891546)
(3.5377983 0.0040590475 0.015992759)
(3.5587229 0.0029811278 0.015368356)
(3.5668094 0.0011911316 0.013629218)
(3.5714488 2.6783326e-06 0.012766897)
(3.5763297 -0.0012609359 0.010950529)
(3.57942 -0.0021421067 0.0091519285)
(3.5887877 -0.0022949375 0.0075886394)
(3.6008498 -0.0024489918 0.00585612)
(3.6191954 -0.0023470024 0.0044026099)
(3.6393938 -0.0024123209 0.0024023982)
(3.6622552 -0.0025722892 0.00041649883)
(3.6835099 -0.0029254557 -0.0014352091)
(3.7056015 -0.0029335167 -0.0022659045)
(3.7242317 -0.0017811951 -0.00091940804)
(3.7388236 0.0011392275 0.0042410712)
(3.7521493 0.0068309831 0.016024743)
(3.7682464 0.016312857 0.036884759)
(3.7927601 0.029833474 0.066612262)
(3.8071925 0.045950864 0.09305814)
(4.0518562 0.03607176 0.068766663)
(3.4878525 -0.011884985 -0.0058143074)
(3.5040275 -0.012066372 -0.0064050197)
(3.5205631 -0.011992336 -0.006641838)
(3.5375809 -0.012530786 -0.0071006554)
(3.5556929 -0.013331611 -0.0079292719)
(3.572975 -0.012613234 -0.0072642866)
(3.579085 -0.01067985 -0.0056933242)
(3.5803663 -0.0094355149 -0.0046760555)
(3.5809646 -0.0075441282 -0.0033103007)
(3.5808683 -0.0059775204 -0.0022482528)
(3.5859259 -0.0046764882 -0.0016044908)
(3.5928006 -0.0032312061 -0.00092260044)
(3.6054137 -0.0020804587 -0.00035389562)
(3.6201737 -0.00064410891 0.00055193851)
(3.6376964 0.00071666603 0.0014952755)
(3.6538302 0.0019757927 0.0024384567)
(3.6699165 0.0024590687 0.0027508058)
(3.6837657 0.0010378448 0.0016347447)
(3.6976351 -0.003595861 -0.001887806)
(3.7134219 -0.013631982 -0.0095460763)
(3.7361504 -0.030979496 -0.022999048)
(3.7714956 -0.055600812 -0.042026162)
(3.7960973 -0.079282269 -0.05961137)
(4.0373925 -0.059218813 -0.044363815)
(3.3941455 -0.0090495197 -0.0030975305)
(3.4126554 -0.0092023562 -0.0037125686)
(3.4333782 -0.0093104752 -0.004146334)
(3.4566738 -0.010123675 -0.0049486795)
(3.4824494 -0.01059417 -0.0055266916)
(3.5096777 -0.010742426 -0.0058661933)
(3.5363661 -0.0097350275 -0.0053094489)
(3.5607951 -0.008757749 -0.0046750368)
(3.5821487 -0.0068781318 -0.0034106824)
(3.5991752 -0.0048820123 -0.00211085)
(3.6123039 -0.0027298374 -0.00098102051)
(3.6205707 -0.00050741682 0.00011191808)
(3.6258297 0.00156566 0.001277678)
(3.6276149 0.0035010758 0.0024302575)
(3.6263308 0.0051047933 0.003489072)
(3.6226006 0.0062611482 0.0042794417)
(3.6173551 0.0064044592 0.0043822501)
(3.6136236 0.0044016619 0.0030589453)
(3.615338 -0.00076973029 -0.00027348619)
(3.6277855 -0.011044575 -0.0070345377)
(3.6609356 -0.027454638 -0.018293669)
(3.7240558 -0.047883519 -0.032372752)
(3.7928627 -0.060649399 -0.039026271)
(4.0505945 -0.041699708 -0.026361439)
(3.4379019 -0.0067799109 -0.0011842655)
(3.4560927 -0.006677051 -0.0014647966)
(3.475631 -0.0065684862 -0.0016299575)
(3.4965947 -0.0069025007 -0.0019615064)
(3.5187542 -0.0070582314 -0.0022606645)
(3.5415583 -0.007036348 -0.0024867691)
(3.5635246 -0.0064765048 -0.0023491793)
(3.5834391 -0.0060033958 -0.0021413776)
(3.6003451 -0.0049704151 -0.0016108905)
(3.613385 -0.0038241474 -0.0010965666)
(3.6223614 -0.0024590728 -0.0008101913)
(3.6268752 -0.0010136555 -0.00056982626)
(3.6276776 0.00040112346 -0.00017234453)
(3.6246286 0.0016746338 0.00020868115)
(3.6178619 0.0027615573 0.00064123155)
(3.6080891 0.0036509472 0.0010494105)
(3.5966673 0.0038810462 0.0011718608)
(3.5876325 0.0026198117 0.00061184512)
(3.5865712 -0.00098326131 -0.00095434287)
(3.6002477 -0.0082204699 -0.0042435158)
(3.6406172 -0.019516011 -0.0098695879)
(3.71745 -0.032732558 -0.016665378)
(3.8005998 -0.03865687 -0.017802576)
(4.0517501 -0.025663137 -0.01143942)
(3.4738219 -0.0042445901 0.00085887162)
(3.4921271 -0.0041124959 0.0007876234)
(3.5111276 -0.0039616773 0.00076397033)
(3.5306843 -0.0040837386 0.0006695609)
(3.5505615 -0.0041341561 0.00047790556)
(3.5704685 -0.0040424113 0.00030968273)
(3.5893983 -0.0037570832 0.00022721129)
(3.6061372 -0.003595672 0.00020319603)
(3.6195729 -0.0030860629 0.00029468906)
(3.6287904 -0.0024383285 0.00034851364)
(3.6336613 -0.0015858999 0.00010452428)
(3.6340104 -0.00066411473 -0.00018900579)
(3.6304271 0.0001721281 -0.00039656409)
(3.6231686 0.00084572239 -0.00064974447)
(3.6125859 0.0013946941 -0.00080847917)
(3.5991913 0.0019612998 -0.0008049806)
(3.5843492 0.0022809089 -0.00065139913)
(3.5725476 0.0018680697 -0.00038569982)
(3.5701714 0.00017416004 6.9440346e-06)
(3.5844147 -0.0034879609 0.0004397232)
(3.6280204 -0.0092392154 0.00064823466)
(3.7106315 -0.015840945 0.00057939684)
(3.79881 -0.018329316 0.0012027443)
(4.0459913 -0.012091668 0.00069718474)
(3.4765996 -0.0014831192 0.003041779)
(3.4946578 -0.0014838834 0.003120815)
(3.5132464 -0.0014221747 0.0031515286)
(3.5322904 -0.0014989656 0.0031850231)
(3.5517282 -0.0015701349 0.0030395164)
(3.5712036 -0.0015199876 0.0028785886)
(3.5895937 -0.0015473987 0.0025608727)
(3.6059873 -0.0017571756 0.0022515188)
(3.6192249 -0.0018020225 0.001830339)
(3.6281782 -0.0016831325 0.0013321988)
(3.6328917 -0.001366794 0.00050582557)
(3.6332274 -0.00096589564 -0.00032938361)
(3.6296966 -0.00065589045 -0.0010827733)
(3.6228638 -0.00042858825 -0.0018531061)
(3.6134454 -0.00025670275 -0.0024877107)
(3.6014209 4.7350572e-05 -0.0028476875)
(3.5872431 0.00051652556 -0.0026253084)
(3.5754963 0.0011223415 -0.0014062053)
(3.5729117 0.0016531173 0.0011568119)
(3.5867561 0.0019595032 0.0055358177)
(3.6300611 0.0020846817 0.011796779)
(3.712556 0.0020486332 0.018524351)
(3.8007706 0.0017579576 0.019754078)
(4.0474998 0.00091287163 0.01238822)
(3.4428013 0.0010597798 0.0050502359)
(3.4609758 0.00097748698 0.0053301733)
(3.4800021 0.0010061893 0.005495656)
(3.5001818 0.0010955813 0.0058089785)
(3.5216434 0.0010997568 0.0058396001)
(3.5437367 0.0011489083 0.0057657235)
(3.564659 0.00082796678 0.0052745732)
(3.5839721 0.00036957745 0.0047924968)
(3.6005716 -0.00011517024 0.0039314396)
(3.6131141 -0.0004239347 0.0029213421)
(3.6218995 -0.00058023958 0.001559063)
(3.6266611 -0.00066166022 0.00020315398)
(3.6279 -0.0008328739 -0.0010724461)
(3.6261979 -0.00097382229 -0.0023356622)
(3.6222436 -0.0011937012 -0.003488526)
(3.6154615 -0.0013680455 -0.00435958)
(3.6056437 -0.0010938026 -0.0043189345)
(3.5968421 0.00020687715 -0.0024581096)
(3.594947 0.0026816393 0.0018716128)
(3.6072921 0.0067472327 0.0097494145)
(3.6465656 0.012649177 0.02168392)
(3.7225455 0.019239752 0.035124097)
(3.8053756 0.022098444 0.038366974)
(4.0556445 0.014500649 0.024476657)
(3.3951477 0.0035390564 0.0070496334)
(3.4151924 0.0035656106 0.007651335)
(3.4366278 0.0036886146 0.0080685342)
(3.4601407 0.0041732296 0.008903283)
(3.486142 0.0044339275 0.0092990961)
(3.5135694 0.0045370101 0.0094025616)
(3.5402472 0.0036972599 0.0085276832)
(3.5647165 0.0027733239 0.007658582)
(3.5862473 0.0015297409 0.0060390513)
(3.6030169 0.00043997428 0.0041752562)
(3.6164422 -0.0004691224 0.0020401737)
(3.6255674 -0.0013156049 -6.2136992e-05)
(3.6319266 -0.0021035241 -0.0019407811)
(3.6354771 -0.0027577357 -0.0037709826)
(3.6367448 -0.0034343841 -0.0053977616)
(3.6354815 -0.0041141801 -0.0066548491)
(3.6322191 -0.0041411621 -0.0067482719)
(3.6293543 -0.0023329397 -0.004429432)
(3.629851 0.0017724917 0.0011839561)
(3.6401795 0.0092701552 0.011885827)
(3.6707695 0.020818815 0.028806756)
(3.7309186 0.034814218 0.049273312)
(3.7980817 0.043987959 0.058549245)
(4.0556017 0.030100753 0.039043606)
(3.4814384 0.0070639852 0.0099904468)
(3.5013678 0.0069634221 0.01061373)
(3.520607 0.0067015603 0.010814984)
(3.5394728 0.0067754021 0.011405822)
(3.5593917 0.0072356255 0.012162424)
(3.5784782 0.0062065575 0.011322705)
(3.5845675 0.0042748071 0.0096575815)
(3.5872745 0.0030306263 0.0088061513)
(3.5898594 0.0015738797 0.0072860719)
(3.5902615 0.00061545465 0.0058411533)
(3.5962629 0.00028609479 0.0045888877)
(3.6043442 -4.0376312e-05 0.0032748252)
(3.6183763 -0.00017065664 0.0022279071)