/*--------------------------------*- C++ -*----------------------------------*\
| =========                 |                                                 |
| \\      /  F ield         | foam-extend: Open Source CFD                    |
|  \\    /   O peration     | Version:     4.1-20200408                       |
|   \\  /    A nd           | Web:         http://www.foam-extend.org         |
|    \\/     M anipulation  |                                                 |
\*---------------------------------------------------------------------------*/
FoamFile
{
    version     2.0;
    format      ascii;
    class       volSymmTensorField;
    location    "0.0630000";
    object      epsilonTrue;
}
// * * * * * * * * * * * * * * * * * * * * * * * * * * * * * * * * * * * * * //

dimensions      [0 0 0 0 0 0 0];

internalField   nonuniform List<symmTensor> 
1952
(
(0.0829471 -0.00294341 -1.07989e-10 -0.0433385 4.82567e-10 -0.0434169)
(0.0829383 -0.00493055 -5.05892e-11 -0.043234 -1.26401e-09 -0.0433607)
(0.0829331 -0.00665197 6.11283e-11 -0.0430654 -3.41363e-09 -0.0433229)
(0.0829254 -0.00824734 2.0986e-10 -0.0428898 2.59966e-09 -0.0432431)
(0.082921 -0.00962694 -5.28018e-11 -0.0426436 6.75283e-09 -0.0431817)
(0.0829201 -0.0107707 -4.11702e-10 -0.0423997 -2.82114e-10 -0.0430766)
(0.0829253 -0.0116202 -2.51845e-10 -0.0420936 -7.80292e-09 -0.0429919)
(0.0829362 -0.0121487 2.70549e-10 -0.0417877 -5.46729e-10 -0.0428637)
(0.0829555 -0.0122302 -9.11804e-13 -0.0414296 6.85412e-09 -0.0427552)
(0.0829861 -0.0118893 -4.98119e-10 -0.0409816 -2.25223e-09 -0.0426045)
(0.0830258 -0.0108816 8.05775e-11 -0.0404642 -6.93753e-09 -0.0424566)
(0.0830739 -0.00921738 4.31173e-10 -0.0397539 1.72908e-09 -0.0422675)
(0.0831226 -0.00680789 -2.70136e-11 -0.0389815 6.80562e-09 -0.0420562)
(0.0831719 -0.00388957 -3.68911e-10 -0.0381854 5.48002e-10 -0.0418116)
(0.0832155 -0.00179917 -1.77341e-10 -0.037786 -2.34235e-09 -0.0415539)
(0.0829423 -0.00158705 -4.09636e-11 -0.043414 -2.51466e-09 -0.0434087)
(0.0830278 -0.00293303 -1.47288e-10 -0.0433543 4.8266e-10 -0.0434315)
(0.0830196 -0.00492671 -7.70136e-11 -0.043249 -1.26462e-09 -0.0433765)
(0.0830153 -0.00663257 9.06245e-11 -0.0430816 -3.41468e-09 -0.0433377)
(0.0830083 -0.00823682 2.91499e-10 -0.0429054 2.60141e-09 -0.0432591)
(0.0830053 -0.00959837 -7.46793e-11 -0.0426604 6.75524e-09 -0.0431968)
(0.0830053 -0.0107524 -5.22211e-10 -0.0424164 -2.83299e-10 -0.0430929)
(0.0830121 -0.0115814 -2.81634e-10 -0.0421118 -7.80551e-09 -0.0430075)
(0.0830246 -0.0121204 3.23712e-10 -0.0418068 -5.45453e-10 -0.0428805)
(0.0830464 -0.0121807 -1.05274e-11 -0.0414507 6.85687e-09 -0.0427716)
(0.0830796 -0.0118515 -5.39348e-10 -0.0410047 -2.25472e-09 -0.0426223)
(0.0831223 -0.0108213 9.38292e-11 -0.0404906 -6.94107e-09 -0.0424743)
(0.0831738 -0.00917143 4.55639e-10 -0.0397846 1.73093e-09 -0.0422868)
(0.0832268 -0.00674407 -2.98514e-11 -0.0390164 6.80899e-09 -0.0420759)
(0.0832824 -0.00385069 -3.951e-10 -0.0382307 5.47974e-10 -0.0418332)
(0.0833348 -0.00176655 -1.84293e-10 -0.03784 -2.34359e-09 -0.0415771)
(0.0830228 -0.00158764 -4.97882e-11 -0.0434283 -2.51539e-09 -0.043424)
(0.0831083 -0.00293256 -1.47401e-10 -0.0433831 4.83002e-10 -0.0434599)
(0.0831002 -0.0049262 -7.70813e-11 -0.0432775 -1.26549e-09 -0.0434053)
(0.0830963 -0.00663138 9.07218e-11 -0.0431107 -3.41692e-09 -0.0433662)
(0.0830896 -0.00823572 2.91775e-10 -0.0429346 2.6034e-09 -0.0432881)
(0.0830871 -0.00959645 -7.4757e-11 -0.0426902 6.75987e-09 -0.0432257)
(0.0830877 -0.0107509 -5.22666e-10 -0.0424466 -2.83748e-10 -0.0431223)
(0.0830953 -0.0115785 -2.8185e-10 -0.0421431 -7.8108e-09 -0.0430369)
(0.0831082 -0.0121175 3.23769e-10 -0.041839 -5.45381e-10 -0.0429105)
(0.0831309 -0.0121772 -1.0573e-11 -0.0414841 6.86184e-09 -0.0428017)
(0.0831645 -0.0118488 -5.39565e-10 -0.0410391 -2.2569e-09 -0.042653)
(0.0832081 -0.0108172 9.39473e-11 -0.0405275 -6.94656e-09 -0.0425052)
(0.0832593 -0.00916792 4.55759e-10 -0.0398232 1.73279e-09 -0.0423187)
(0.0833095 -0.00674081 -2.98865e-11 -0.0390556 6.81436e-09 -0.0421081)
(0.0833597 -0.00384954 -3.9525e-10 -0.0382703 5.47903e-10 -0.0418662)
(0.0833992 -0.00176696 -1.84447e-10 -0.0378756 -2.34555e-09 -0.0416103)
(0.0831033 -0.00158781 -4.98149e-11 -0.0434566 -2.5169e-09 -0.0434527)
(0.0831914 -0.00293249 -1.475e-10 -0.043415 4.83402e-10 -0.0434918)
(0.0831834 -0.00492634 -7.71174e-11 -0.0433096 -1.26642e-09 -0.0434372)
(0.0831797 -0.00663134 9.08155e-11 -0.043143 -3.41947e-09 -0.0433982)
(0.0831732 -0.00823598 2.92018e-10 -0.0429672 2.6054e-09 -0.0433202)
(0.0831712 -0.00959638 -7.48228e-11 -0.0427233 6.76504e-09 -0.043258)
(0.083172 -0.0107517 -5.23037e-10 -0.0424801 -2.84003e-10 -0.0431548)
(0.0831807 -0.0115782 -2.8216e-10 -0.0421782 -7.8168e-09 -0.0430696)
(0.0831941 -0.0121172 3.23801e-10 -0.041875 -5.45618e-10 -0.0429437)
(0.0832172 -0.0121766 -1.05949e-11 -0.0415211 6.86737e-09 -0.0428352)
(0.0832509 -0.0118493 -5.39747e-10 -0.0410768 -2.25901e-09 -0.0426871)
(0.0832944 -0.0108171 9.40218e-11 -0.0405665 -6.95247e-09 -0.0425396)
(0.083345 -0.00916847 4.56011e-10 -0.0398629 1.73456e-09 -0.0423537)
(0.0833931 -0.00674169 -2.98917e-11 -0.0390954 6.82021e-09 -0.0421434)
(0.0834402 -0.00385213 -3.95497e-10 -0.0383101 5.48092e-10 -0.0419019)
(0.0834751 -0.00176886 -1.84767e-10 -0.0379138 -2.34763e-09 -0.0416462)
(0.0831862 -0.00158819 -4.98493e-11 -0.0434884 -2.51861e-09 -0.0434846)
(0.0832782 -0.002933 -1.47624e-10 -0.0434498 4.8383e-10 -0.0435263)
(0.0832708 -0.00492716 -7.71974e-11 -0.0433447 -1.26742e-09 -0.0434719)
(0.0832673 -0.00663225 9.09065e-11 -0.0431785 -3.42226e-09 -0.0434332)
(0.0832611 -0.00823719 2.92284e-10 -0.043003 2.60756e-09 -0.0433554)
(0.0832595 -0.00959774 -7.48756e-11 -0.0427595 6.7707e-09 -0.0432933)
(0.0832606 -0.0107538 -5.23402e-10 -0.0425167 -2.84245e-10 -0.0431904)
(0.0832695 -0.0115801 -2.82476e-10 -0.0422155 -7.82341e-09 -0.0431053)
(0.0832831 -0.0121192 3.2388e-10 -0.0419131 -5.46075e-10 -0.0429798)
(0.0833064 -0.012179 -1.05936e-11 -0.04156 6.87335e-09 -0.0428716)
(0.0833398 -0.0118526 -5.40014e-10 -0.0411161 -2.26105e-09 -0.0427238)
(0.0833828 -0.0108199 9.41193e-11 -0.0406069 -6.95873e-09 -0.0425766)
(0.083432 -0.00917112 4.56336e-10 -0.0399036 1.73628e-09 -0.042391)
(0.0834778 -0.00674402 -2.98847e-11 -0.0391363 6.82645e-09 -0.042181)
(0.0835196 -0.00385476 -3.95796e-10 -0.0383493 5.48223e-10 -0.0419398)
(0.0835481 -0.00177061 -1.85036e-10 -0.0379504 -2.34983e-09 -0.041684)
(0.083273 -0.00158871 -4.98918e-11 -0.043523 -2.52048e-09 -0.0435192)
(0.0833679 -0.0029338 -1.47756e-10 -0.0434871 4.843e-10 -0.0435637)
(0.0833605 -0.00492857 -7.7264e-11 -0.0433823 -1.2685e-09 -0.0435093)
(0.0833571 -0.00663406 9.0994e-11 -0.0432162 -3.42526e-09 -0.0434707)
(0.0833511 -0.00823955 2.92537e-10 -0.0430409 2.60986e-09 -0.0433929)
(0.0833497 -0.00960061 -7.49204e-11 -0.0427978 6.77674e-09 -0.043331)
(0.0833509 -0.0107576 -5.2379e-10 -0.0425553 -2.84472e-10 -0.0432282)
(0.0833601 -0.0115838 -2.82834e-10 -0.042255 -7.83044e-09 -0.0431434)
(0.0833737 -0.0121231 3.2391e-10 -0.0419532 -5.46547e-10 -0.0430181)
(0.0833967 -0.0121834 -1.05774e-11 -0.0416004 6.87968e-09 -0.0429101)
(0.0834295 -0.011858 -5.40224e-10 -0.0411567 -2.2632e-09 -0.0427626)
(0.0834715 -0.0108252 9.42132e-11 -0.0406478 -6.96528e-09 -0.0426156)
(0.0835191 -0.00917601 4.5667e-10 -0.0399444 1.73799e-09 -0.0424303)
(0.0835632 -0.00674801 -2.98677e-11 -0.0391773 6.83295e-09 -0.0422203)
(0.0836009 -0.0038582 -3.9605e-10 -0.0383887 5.48465e-10 -0.0419793)
(0.0836245 -0.00177252 -1.85304e-10 -0.0379877 -2.35211e-09 -0.0417234)
(0.0833627 -0.00158938 -4.99323e-11 -0.0435603 -2.52251e-09 -0.0435566)
(0.0834597 -0.00293496 -1.47878e-10 -0.0435265 4.84787e-10 -0.043603)
(0.0834525 -0.00493048 -7.73368e-11 -0.0434219 -1.26964e-09 -0.0435487)
(0.0834493 -0.00663657 9.10802e-11 -0.0432559 -3.42842e-09 -0.0435102)
(0.0834433 -0.00824277 2.92797e-10 -0.0430809 2.61227e-09 -0.0434325)
(0.083442 -0.00960451 -7.49546e-11 -0.042838 6.7831e-09 -0.0433707)
(0.0834431 -0.0107627 -5.24139e-10 -0.0425957 -2.84713e-10 -0.043268)
(0.0834522 -0.0115892 -2.83207e-10 -0.0422958 -7.83785e-09 -0.0431834)
(0.0834655 -0.0121286 3.24016e-10 -0.0419943 -5.47085e-10 -0.0430583)
(0.083488 -0.0121896 -1.05442e-11 -0.0416416 6.88629e-09 -0.0429504)
(0.0835199 -0.0118649 -5.40557e-10 -0.0411978 -2.2654e-09 -0.0428031)
(0.0835607 -0.0108317 9.43043e-11 -0.0406889 -6.97206e-09 -0.0426561)
(0.0836063 -0.00918193 4.56975e-10 -0.0399851 1.73976e-09 -0.0424709)
(0.0836484 -0.0067527 -2.98444e-11 -0.0392177 6.83966e-09 -0.0422609)
(0.0836826 -0.00386171 -3.96321e-10 -0.0384279 5.48803e-10 -0.04202)
(0.0837023 -0.00177439 -1.85546e-10 -0.0380253 -2.35444e-09 -0.0417638)
(0.0834545 -0.0015902 -4.99695e-11 -0.0435996 -2.52465e-09 -0.0435959)
(0.0835532 -0.00293646 -1.48015e-10 -0.0435675 4.853e-10 -0.0436441)
(0.0835458 -0.00493298 -7.74129e-11 -0.0434631 -1.27084e-09 -0.0435897)
(0.0835427 -0.00663982 9.1161e-11 -0.0432972 -3.43171e-09 -0.0435513)
(0.0835366 -0.00824693 2.93059e-10 -0.0431223 2.61479e-09 -0.0434737)
(0.0835353 -0.00960954 -7.49787e-11 -0.0428794 6.7897e-09 -0.043412)
(0.0835362 -0.0107689 -5.24523e-10 -0.0426372 -2.84965e-10 -0.0433093)
(0.083545 -0.0115957 -2.83591e-10 -0.0423375 -7.84552e-09 -0.0432248)
(0.0835577 -0.0121352 3.24076e-10 -0.0420362 -5.47629e-10 -0.0430997)
(0.0835795 -0.0121969 -1.05014e-11 -0.0416833 6.8931e-09 -0.042992)
(0.0836104 -0.0118729 -5.40826e-10 -0.0412391 -2.26763e-09 -0.0428447)
(0.0836501 -0.0108392 9.44146e-11 -0.0407303 -6.97901e-09 -0.0426977)
(0.0836939 -0.00918863 4.57254e-10 -0.0400259 1.74155e-09 -0.0425125)
(0.083734 -0.00675777 -2.98187e-11 -0.0392581 6.8465e-09 -0.0423024)
(0.0837651 -0.00386519 -3.96541e-10 -0.038467 5.49215e-10 -0.0420614)
(0.0837818 -0.00177628 -1.85777e-10 -0.0380632 -2.35682e-09 -0.041805)
(0.0835479 -0.00159115 -5.00135e-11 -0.0436406 -2.5269e-09 -0.043637)
(0.0836477 -0.00293815 -1.48134e-10 -0.0436098 4.85829e-10 -0.0436864)
(0.0836402 -0.00493579 -7.74741e-11 -0.0435055 -1.27207e-09 -0.043632)
(0.0836369 -0.00664355 9.12424e-11 -0.0433395 -3.43511e-09 -0.0435937)
(0.0836307 -0.00825167 2.93318e-10 -0.0431646 2.61738e-09 -0.0435161)
(0.0836292 -0.00961521 -7.49959e-11 -0.0429216 6.79649e-09 -0.0434544)
(0.0836298 -0.0107759 -5.24882e-10 -0.0426793 -2.85208e-10 -0.0433517)
(0.0836385 -0.011603 -2.83988e-10 -0.04238 -7.85337e-09 -0.0432672)
(0.0836507 -0.0121426 3.24193e-10 -0.0420788 -5.48153e-10 -0.0431422)
(0.0836717 -0.012205 -1.04511e-11 -0.0417255 6.90007e-09 -0.0430345)
(0.0837014 -0.0118815 -5.41112e-10 -0.0412808 -2.26995e-09 -0.0428872)
(0.0837396 -0.0108472 9.45391e-11 -0.0407716 -6.98609e-09 -0.0427401)
(0.0837815 -0.00919559 4.57531e-10 -0.0400664 1.7434e-09 -0.0425548)
(0.0838195 -0.00676305 -2.97897e-11 -0.0392978 6.85346e-09 -0.0423445)
(0.083848 -0.00386862 -3.96714e-10 -0.0385058 5.49703e-10 -0.0421034)
(0.0838624 -0.00177814 -1.85993e-10 -0.0381011 -2.35923e-09 -0.0418467)
(0.0836424 -0.00159222 -5.00382e-11 -0.0436829 -2.52923e-09 -0.0436794)
(0.0837426 -0.00294006 -1.48263e-10 -0.043653 4.86363e-10 -0.0437295)
(0.0837353 -0.00493892 -7.75469e-11 -0.0435488 -1.27332e-09 -0.0436752)
(0.083732 -0.00664767 9.13148e-11 -0.0433828 -3.43857e-09 -0.043637)
(0.0837256 -0.00825685 2.93569e-10 -0.0432079 2.62002e-09 -0.0435593)
(0.0837239 -0.00962141 -7.5007e-11 -0.0429648 6.80343e-09 -0.0434978)
(0.083724 -0.0107835 -5.25206e-10 -0.0427223 -2.85478e-10 -0.043395)
(0.0837321 -0.0116109 -2.84408e-10 -0.042423 -7.86139e-09 -0.0433105)
(0.0837436 -0.0121507 3.24283e-10 -0.0421216 -5.48685e-10 -0.0431855)
(0.0837637 -0.0122137 -1.03951e-11 -0.0417679 6.90716e-09 -0.0430778)
(0.0837922 -0.0118906 -5.41413e-10 -0.0413224 -2.27235e-09 -0.0429303)
(0.0838287 -0.0108558 9.4644e-11 -0.0408125 -6.99326e-09 -0.0427831)
(0.0838688 -0.00920305 4.57816e-10 -0.0401063 1.74525e-09 -0.0425976)
(0.083905 -0.00676854 -2.97569e-11 -0.0393373 6.86046e-09 -0.0423871)
(0.0839316 -0.00387205 -3.96827e-10 -0.0385448 5.50213e-10 -0.0421458)
(0.0839441 -0.00178001 -1.86202e-10 -0.0381394 -2.36166e-09 -0.0418888)
(0.0837373 -0.00159336 -5.00872e-11 -0.043726 -2.5316e-09 -0.0437226)
(0.0838382 -0.00294211 -1.48395e-10 -0.0436969 4.86912e-10 -0.0437736)
(0.0838306 -0.00494231 -7.76224e-11 -0.0435928 -1.2746e-09 -0.0437192)
(0.0838272 -0.00665212 9.13866e-11 -0.0434267 -3.4421e-09 -0.0436811)
(0.0838205 -0.00826249 2.93814e-10 -0.0432517 2.62274e-09 -0.0436033)
(0.0838186 -0.00962815 -7.50137e-11 -0.0430084 6.81046e-09 -0.0435417)
(0.0838182 -0.0107916 -5.25553e-10 -0.0427656 -2.85782e-10 -0.0434389)
(0.0838254 -0.0116195 -2.84809e-10 -0.042466 -7.8695e-09 -0.0433543)
(0.0838359 -0.0121595 3.24395e-10 -0.0421642 -5.49213e-10 -0.0432292)
(0.0838551 -0.0122231 -1.03293e-11 -0.0418099 6.9143e-09 -0.0431214)
(0.0838823 -0.0119004 -5.41754e-10 -0.0413635 -2.27475e-09 -0.0429737)
(0.0839176 -0.0108646 9.4759e-11 -0.0408533 -7.00048e-09 -0.0428263)
(0.0839561 -0.00921054 4.58014e-10 -0.0401462 1.74712e-09 -0.0426407)
(0.0839911 -0.00677397 -2.97235e-11 -0.0393769 6.86751e-09 -0.0424298)
(0.0840164 -0.00387529 -3.96953e-10 -0.0385843 5.50725e-10 -0.0421883)
(0.0840273 -0.00178172 -1.86386e-10 -0.0381783 -2.3641e-09 -0.0419311)
(0.0838329 -0.00159456 -5.00993e-11 -0.0437701 -2.53402e-09 -0.0437666)
(0.0839337 -0.00294429 -1.48518e-10 -0.0437414 4.8747e-10 -0.0438181)
(0.0839257 -0.00494596 -7.76773e-11 -0.0436371 -1.2759e-09 -0.0437637)
(0.0839221 -0.00665698 9.14545e-11 -0.0434708 -3.44566e-09 -0.0437255)
(0.0839149 -0.00826865 2.9405e-10 -0.0432956 2.62546e-09 -0.0436476)
(0.0839126 -0.00963547 -7.50114e-11 -0.0430519 6.81754e-09 -0.043586)
(0.0839116 -0.0108004 -5.25896e-10 -0.0428087 -2.86066e-10 -0.043483)
(0.0839182 -0.0116286 -2.85223e-10 -0.0425089 -7.87762e-09 -0.0433983)
(0.0839278 -0.0121686 3.24448e-10 -0.0422068 -5.49724e-10 -0.0432731)
(0.083946 -0.0122326 -1.02614e-11 -0.0418517 6.92145e-09 -0.0431651)
(0.0839722 -0.0119102 -5.42016e-10 -0.0414046 -2.2771e-09 -0.0430173)
(0.0840068 -0.0108733 9.48742e-11 -0.0408942 -7.00771e-09 -0.0428696)
(0.084044 -0.00921784 4.58205e-10 -0.0401866 1.74896e-09 -0.0426838)
(0.0840778 -0.00677911 -2.96916e-11 -0.039417 6.87457e-09 -0.0424727)
(0.0841017 -0.00387834 -3.97063e-10 -0.038624 5.51256e-10 -0.042231)
(0.0841114 -0.00178336 -1.86557e-10 -0.0382175 -2.36656e-09 -0.0419736)
(0.0839285 -0.00159585 -5.01401e-11 -0.0438146 -2.53648e-09 -0.0438112)
(0.0840283 -0.00294664 -1.48615e-10 -0.0437858 4.88023e-10 -0.0438626)
(0.0840202 -0.00494981 -7.77361e-11 -0.0436816 -1.2772e-09 -0.0438081)
(0.0840163 -0.00666203 9.15136e-11 -0.043515 -3.44923e-09 -0.04377)
(0.0840087 -0.00827501 2.94269e-10 -0.0433394 2.62819e-09 -0.043692)
(0.0840059 -0.00964294 -7.50041e-11 -0.0430953 6.82463e-09 -0.0436303)
(0.0840043 -0.0108092 -5.26194e-10 -0.0428516 -2.86336e-10 -0.0435271)
(0.0840107 -0.0116377 -2.8563e-10 -0.0425518 -7.88574e-09 -0.0434422)
(0.0840196 -0.0121776 3.24543e-10 -0.0422494 -5.50226e-10 -0.043317)
(0.0840371 -0.0122421 -1.01906e-11 -0.0418937 6.92861e-09 -0.0432088)
(0.0840623 -0.0119198 -5.42254e-10 -0.041446 -2.27948e-09 -0.0430608)
(0.0840961 -0.0108817 9.50199e-11 -0.0409354 -7.01496e-09 -0.0429129)
(0.0841323 -0.00922484 4.58357e-10 -0.0402272 1.75083e-09 -0.042727)
(0.0841649 -0.0067841 -2.96601e-11 -0.039457 6.88164e-09 -0.0425156)
(0.0841876 -0.0038812 -3.97114e-10 -0.0386637 5.51814e-10 -0.0422738)
(0.0841964 -0.00178494 -1.86717e-10 -0.0382569 -2.36901e-09 -0.0420161)
(0.0840231 -0.00159722 -5.01742e-11 -0.043859 -2.53893e-09 -0.0438557)
(0.084122 -0.00294902 -1.48737e-10 -0.04383 4.88574e-10 -0.0439069)
(0.084114 -0.00495371 -7.77932e-11 -0.0437259 -1.27849e-09 -0.0438524)
(0.0841099 -0.00666714 9.15658e-11 -0.0435591 -3.45278e-09 -0.0438143)
(0.084102 -0.00828136 2.94467e-10 -0.0433832 2.63091e-09 -0.0437362)
(0.0840989 -0.00965043 -7.49939e-11 -0.0431388 6.83169e-09 -0.0436744)
(0.0840967 -0.010818 -5.26445e-10 -0.0428946 -2.86622e-10 -0.0435711)
(0.0841027 -0.0116468 -2.86061e-10 -0.0425948 -7.89385e-09 -0.0434861)
(0.0841111 -0.0121866 3.24584e-10 -0.042292 -5.50707e-10 -0.0433608)
(0.0841279 -0.0122514 -1.01218e-11 -0.0419359 6.93576e-09 -0.0432524)
(0.0841524 -0.0119294 -5.42469e-10 -0.0414874 -2.28193e-09 -0.0431043)
(0.0841851 -0.0108903 9.51343e-11 -0.0409762 -7.02219e-09 -0.0429562)
(0.0842204 -0.00923194 4.58559e-10 -0.0402675 1.75267e-09 -0.0427701)
(0.0842523 -0.00678905 -2.96274e-11 -0.0394971 6.88871e-09 -0.0425585)
(0.0842741 -0.00388401 -3.97152e-10 -0.038704 5.52379e-10 -0.0423165)
(0.0842824 -0.00178645 -1.86869e-10 -0.0382969 -2.37147e-09 -0.0420586)
(0.0841168 -0.00159857 -5.02131e-11 -0.0439033 -2.54137e-09 -0.0439001)
(0.084215 -0.00295144 -1.48851e-10 -0.0438741 4.89124e-10 -0.043951)
(0.0842068 -0.00495768 -7.78586e-11 -0.0437699 -1.27978e-09 -0.0438965)
(0.0842027 -0.00667229 9.16154e-11 -0.043603 -3.45632e-09 -0.0438584)
(0.0841945 -0.00828783 2.94649e-10 -0.0434268 2.63364e-09 -0.0437803)
(0.0841912 -0.00965806 -7.49829e-11 -0.0431822 6.83873e-09 -0.0437184)
(0.0841886 -0.010827 -5.26691e-10 -0.0429376 -2.86949e-10 -0.043615)
(0.0841939 -0.0116562 -2.8647e-10 -0.0426374 -7.90193e-09 -0.0435299)
(0.0842016 -0.0121959 3.24653e-10 -0.0423343 -5.51213e-10 -0.0434044)
(0.084218 -0.0122611 -1.00473e-11 -0.0419776 6.94287e-09 -0.0432959)
(0.0842419 -0.0119391 -5.42754e-10 -0.0415285 -2.28431e-09 -0.0431476)
(0.0842742 -0.0108988 9.5251e-11 -0.0410173 -7.02941e-09 -0.0429993)
(0.0843088 -0.00923891 4.58663e-10 -0.0403082 1.75453e-09 -0.042813)
(0.0843403 -0.00679386 -2.95957e-11 -0.0395377 6.89575e-09 -0.0426012)
(0.0843617 -0.00388659 -3.9714e-10 -0.0387448 5.52936e-10 -0.0423591)
(0.0843694 -0.0017879 -1.87011e-10 -0.0383375 -2.37393e-09 -0.0421011)
(0.0842099 -0.00159994 -5.02412e-11 -0.0439474 -2.5438e-09 -0.0439443)
(0.084307 -0.0029539 -1.48959e-10 -0.0439179 4.89678e-10 -0.043995)
(0.0842983 -0.00496179 -7.79062e-11 -0.0438135 -1.28106e-09 -0.0439404)
(0.0842941 -0.00667763 9.16662e-11 -0.0436464 -3.45982e-09 -0.0439022)
(0.0842856 -0.00829452 2.94819e-10 -0.04347 2.63634e-09 -0.0438239)
(0.0842822 -0.00966589 -7.49689e-11 -0.0432251 6.8457e-09 -0.043762)
(0.0842792 -0.0108361 -5.26949e-10 -0.04298 -2.87252e-10 -0.0436585)
(0.0842845 -0.0116656 -2.8688e-10 -0.0426799 -7.90991e-09 -0.0435731)
(0.0842918 -0.012205 3.24646e-10 -0.0423766 -5.51637e-10 -0.0434476)
(0.0843079 -0.0122707 -9.97518e-12 -0.0420195 6.94994e-09 -0.043339)
(0.0843314 -0.0119487 -5.42909e-10 -0.0415699 -2.28674e-09 -0.0431906)
(0.0843634 -0.0109072 9.53842e-11 -0.0410586 -7.0366e-09 -0.0430421)
(0.0843979 -0.00924566 4.58815e-10 -0.0403495 1.75638e-09 -0.0428557)
(0.0844291 -0.00679839 -2.95656e-11 -0.0395789 6.90278e-09 -0.0426438)
(0.0844501 -0.00388899 -3.97175e-10 -0.0387863 5.53494e-10 -0.0424016)
(0.0844574 -0.00178924 -1.87139e-10 -0.0383787 -2.37639e-09 -0.0421435)
(0.084302 -0.00160134 -5.02733e-11 -0.0439913 -2.54622e-09 -0.0439883)
(0.0843973 -0.00295633 -1.49053e-10 -0.0439611 4.90215e-10 -0.0440382)
(0.0843887 -0.0049658 -7.79436e-11 -0.0438568 -1.28232e-09 -0.0439836)
(0.0843845 -0.00668286 9.17093e-11 -0.0436896 -3.46329e-09 -0.0439454)
(0.0843757 -0.00830109 2.94962e-10 -0.0435129 2.63902e-09 -0.0438671)
(0.0843724 -0.00967359 -7.49548e-11 -0.0432678 6.85261e-09 -0.0438051)
(0.0843691 -0.0108451 -5.27129e-10 -0.0430222 -2.87568e-10 -0.0437016)
(0.0843744 -0.011675 -2.87312e-10 -0.0427224 -7.91782e-09 -0.0436161)
(0.0843817 -0.0122141 3.24686e-10 -0.0424189 -5.52069e-10 -0.0434906)
(0.0843976 -0.0122801 -9.90298e-12 -0.0420614 6.95696e-09 -0.0433818)
(0.0844211 -0.0119581 -5.43155e-10 -0.0416115 -2.28912e-09 -0.0432333)
(0.084453 -0.0109153 9.54942e-11 -0.0411001 -7.04375e-09 -0.0430847)
(0.0844873 -0.00925229 4.58932e-10 -0.0403909 1.7582e-09 -0.0428983)
(0.0845186 -0.00680283 -2.95357e-11 -0.0396205 6.90979e-09 -0.0426862)
(0.084539 -0.00389133 -3.97159e-10 -0.0388279 5.54029e-10 -0.042444)
(0.0845459 -0.00179063 -1.87272e-10 -0.03842 -2.37885e-09 -0.0421859)
(0.0843922 -0.00160274 -5.03119e-11 -0.0440345 -2.5486e-09 -0.0440316)
(0.0844864 -0.00295886 -1.49161e-10 -0.0440039 4.90749e-10 -0.044081)
(0.0844779 -0.00497001 -7.79974e-11 -0.0438997 -1.28357e-09 -0.0440264)
(0.0844738 -0.00668821 9.17484e-11 -0.0437324 -3.46672e-09 -0.0439883)
(0.0844649 -0.00830778 2.95093e-10 -0.0435554 2.64169e-09 -0.04391)
(0.0844617 -0.00968141 -7.49418e-11 -0.0433102 6.85945e-09 -0.0438478)
(0.0844584 -0.0108542 -5.2733e-10 -0.0430643 -2.87903e-10 -0.0437443)
(0.0844639 -0.0116843 -2.87733e-10 -0.0427645 -7.92567e-09 -0.0436586)
(0.0844712 -0.0122231 3.24688e-10 -0.042461 -5.52474e-10 -0.0435332)
(0.0844872 -0.0122895 -9.83115e-12 -0.0421033 6.96393e-09 -0.0434243)
(0.0845107 -0.0119674 -5.4332e-10 -0.0416531 -2.29154e-09 -0.0432758)
(0.0845429 -0.0109235 9.56328e-11 -0.0411421 -7.0509e-09 -0.0431271)
(0.0845775 -0.00925892 4.59045e-10 -0.0404329 1.7601e-09 -0.0429407)
(0.0846082 -0.00680742 -2.95056e-11 -0.039662 6.91677e-09 -0.0427285)
(0.0846285 -0.00389371 -3.97149e-10 -0.0388699 5.54598e-10 -0.0424863)
(0.084635 -0.00179204 -1.87402e-10 -0.0384617 -2.38131e-09 -0.0422281)
(0.0844814 -0.00160416 -5.03352e-11 -0.0440773 -2.55095e-09 -0.0440745)
(0.0845743 -0.00296128 -1.49253e-10 -0.0440462 4.91278e-10 -0.0441234)
(0.0845658 -0.00497407 -7.8031e-11 -0.0439419 -1.28481e-09 -0.0440687)
(0.0845619 -0.00669346 9.17904e-11 -0.0437747 -3.47011e-09 -0.0440306)
(0.084553 -0.00831433 2.95201e-10 -0.0435974 2.64432e-09 -0.0439523)
(0.0845502 -0.00968908 -7.49295e-11 -0.0433523 6.86622e-09 -0.0438901)
(0.0845468 -0.0108631 -5.27483e-10 -0.0431061 -2.88243e-10 -0.0437865)
(0.084553 -0.0116937 -2.88177e-10 -0.0428069 -7.93342e-09 -0.0437008)
(0.0845606 -0.0122321 3.24706e-10 -0.0425034 -5.52795e-10 -0.0435755)
(0.0845769 -0.0122989 -9.76061e-12 -0.0421456 6.97086e-09 -0.0434665)
(0.0846006 -0.0119769 -5.43514e-10 -0.0416951 -2.29409e-09 -0.0433182)
(0.0846322 -0.0109322 9.57463e-11 -0.0411836 -7.058e-09 -0.0431693)
(0.0846671 -0.00926595 4.59281e-10 -0.0404743 1.76199e-09 -0.0429829)
(0.0846977 -0.00681234 -2.9472e-11 -0.0397033 6.92372e-09 -0.0427706)
(0.0847182 -0.00389648 -3.97183e-10 -0.0389119 5.55145e-10 -0.0425284)
(0.0847244 -0.00179356 -1.87546e-10 -0.0385034 -2.38376e-09 -0.0422702)
(0.0845691 -0.00160557 -5.03759e-11 -0.0441196 -2.55327e-09 -0.0441168)
(0.084661 -0.00296375 -1.49364e-10 -0.0440881 4.91795e-10 -0.0441652)
(0.0846528 -0.00497827 -7.80759e-11 -0.0439839 -1.28603e-09 -0.0441106)
(0.0846493 -0.0066988 9.18285e-11 -0.0438168 -3.47346e-09 -0.0440725)
(0.0846406 -0.00832106 2.95285e-10 -0.0436394 2.64697e-09 -0.0439943)
(0.0846382 -0.00969701 -7.49226e-11 -0.0433945 6.87294e-09 -0.043932)
(0.084635 -0.0108724 -5.27612e-10 -0.043148 -2.88653e-10 -0.0438287)
(0.0846408 -0.0117035 -2.88633e-10 -0.0428486 -7.94114e-09 -0.0437428)
(0.0846487 -0.0122418 3.24713e-10 -0.042545 -5.53156e-10 -0.0436175)
(0.0846653 -0.0123091 -9.68668e-12 -0.0421872 6.97774e-09 -0.0435084)
(0.0846895 -0.011987 -5.43867e-10 -0.0417365 -2.29656e-09 -0.0433601)
(0.0847214 -0.0109412 9.58131e-11 -0.0412249 -7.06506e-09 -0.0432111)
(0.0847563 -0.00927365 4.5945e-10 -0.0405155 1.76388e-09 -0.0430248)
(0.0847874 -0.00681768 -2.94367e-11 -0.0397448 6.93062e-09 -0.0428123)
(0.0848085 -0.00389938 -3.97211e-10 -0.0389545 5.55673e-10 -0.0425702)
(0.0848147 -0.00179508 -1.8769e-10 -0.0385457 -2.38619e-09 -0.0423121)
(0.0846558 -0.00160699 -5.03788e-11 -0.0441614 -2.55556e-09 -0.0441587)
(0.0847469 -0.00296631 -1.49475e-10 -0.0441297 4.92323e-10 -0.0442069)
(0.0847381 -0.0049827 -7.81091e-11 -0.0440253 -1.28725e-09 -0.0441523)
(0.0847349 -0.00670442 9.18647e-11 -0.0438583 -3.47678e-09 -0.044114)
(0.0847262 -0.00832824 2.95368e-10 -0.0436806 2.64959e-09 -0.0440359)
(0.0847243 -0.00970544 -7.49136e-11 -0.0434359 6.87958e-09 -0.0439735)
(0.0847215 -0.0108821 -5.27831e-10 -0.0431891 -2.89047e-10 -0.0438702)
(0.0847279 -0.0117138 -2.89049e-10 -0.04289 -7.94874e-09 -0.0437842)
(0.0847359 -0.012252 3.24702e-10 -0.0425863 -5.53419e-10 -0.0436591)
(0.0847529 -0.0123199 -9.60884e-12 -0.0422283 6.98454e-09 -0.0435498)
(0.0847777 -0.0119977 -5.4413e-10 -0.0417775 -2.29902e-09 -0.0434016)
(0.0848103 -0.0109506 9.59362e-11 -0.0412666 -7.07208e-09 -0.0432524)
(0.0848462 -0.00928127 4.59635e-10 -0.0405576 1.7658e-09 -0.0430663)
(0.0848777 -0.0068231 -2.93996e-11 -0.0397868 6.93748e-09 -0.0428538)
(0.0848995 -0.00390244 -3.97348e-10 -0.0389976 5.56205e-10 -0.0426118)
(0.0849061 -0.00179651 -1.87824e-10 -0.0385886 -2.38862e-09 -0.0423537)
(0.0847417 -0.00160848 -5.04366e-11 -0.0442031 -2.55785e-09 -0.0442005)
(0.0848307 -0.00296885 -1.49555e-10 -0.0441707 4.92835e-10 -0.0442479)
(0.0848222 -0.00498719 -7.81074e-11 -0.0440663 -1.28845e-09 -0.0441933)
(0.0848192 -0.00671025 9.18991e-11 -0.0438993 -3.48006e-09 -0.044155)
(0.0848105 -0.00833569 2.954e-10 -0.0437213 2.65217e-09 -0.0440769)
(0.0848091 -0.00971421 -7.4909e-11 -0.0434767 6.88614e-09 -0.0440144)
(0.0848064 -0.0108923 -5.27949e-10 -0.0432295 -2.89411e-10 -0.0439112)
(0.0848138 -0.0117245 -2.89548e-10 -0.0429312 -7.95621e-09 -0.0438249)
(0.0848226 -0.0122622 3.24668e-10 -0.0426277 -5.53659e-10 -0.0437001)
(0.0848403 -0.0123307 -9.53278e-12 -0.0422696 6.99126e-09 -0.0435908)
(0.0848661 -0.0120083 -5.44453e-10 -0.041819 -2.30146e-09 -0.0434427)
(0.0848995 -0.0109602 9.59993e-11 -0.0413082 -7.07902e-09 -0.0432935)
(0.0849362 -0.00928934 4.59913e-10 -0.0405996 1.76763e-09 -0.0431075)
(0.0849685 -0.00682863 -2.93628e-11 -0.0398292 6.9443e-09 -0.042895)
(0.0849911 -0.00390557 -3.97461e-10 -0.039041 5.56731e-10 -0.0426532)
(0.0849981 -0.00179803 -1.8797e-10 -0.0386318 -2.39104e-09 -0.0423952)
(0.0848255 -0.00161003 -5.04727e-11 -0.0442441 -2.56009e-09 -0.0442415)
(0.0849127 -0.00297164 -1.49672e-10 -0.044211 4.93333e-10 -0.0442881)
(0.0849045 -0.00499199 -7.81426e-11 -0.0441067 -1.28963e-09 -0.0442336)
(0.084902 -0.00671622 9.19373e-11 -0.0439399 -3.48329e-09 -0.0441954)
(0.0848935 -0.00834326 2.95425e-10 -0.0437616 2.65474e-09 -0.0441174)
(0.0848929 -0.0097231 -7.49031e-11 -0.0435172 6.8926e-09 -0.0440548)
(0.0848907 -0.0109024 -5.28081e-10 -0.0432698 -2.89821e-10 -0.0439517)
(0.084899 -0.0117354 -2.90008e-10 -0.0429719 -7.96361e-09 -0.0438653)
(0.0849084 -0.0122729 3.24703e-10 -0.0426686 -5.53897e-10 -0.0437407)
(0.0849271 -0.012342 -9.45352e-12 -0.0423107 6.99792e-09 -0.0436313)
(0.084954 -0.0120196 -5.44817e-10 -0.0418602 -2.30391e-09 -0.0434834)
(0.0849886 -0.0109701 9.61196e-11 -0.0413501 -7.08594e-09 -0.0433341)
(0.0850267 -0.00929743 4.60129e-10 -0.0406422 1.76953e-09 -0.0431484)
(0.0850598 -0.00683454 -2.9323e-11 -0.0398718 6.95108e-09 -0.0429359)
(0.0850834 -0.00390894 -3.97648e-10 -0.0390848 5.57262e-10 -0.0426943)
(0.0850911 -0.00179953 -1.8812e-10 -0.0386756 -2.39345e-09 -0.0424365)
(0.0849073 -0.00161165 -5.05094e-11 -0.0442843 -2.56229e-09 -0.0442819)
(0.0849932 -0.00297431 -1.49768e-10 -0.0442509 4.93834e-10 -0.044328)
(0.0849851 -0.00499682 -7.81452e-11 -0.0441465 -1.2908e-09 -0.0442735)
(0.0849832 -0.00672235 9.19692e-11 -0.0439799 -3.48647e-09 -0.0442353)
(0.0849749 -0.00835107 2.95396e-10 -0.0438013 2.65728e-09 -0.0441573)
(0.0849752 -0.00973237 -7.49075e-11 -0.0435572 6.89898e-09 -0.0440946)
(0.0849735 -0.0109131 -5.28183e-10 -0.0433095 -2.90228e-10 -0.0439916)
(0.0849831 -0.0117466 -2.90544e-10 -0.0430127 -7.97088e-09 -0.0439051)
(0.0849938 -0.0122836 3.24653e-10 -0.0427097 -5.5406e-10 -0.0437809)
(0.0850137 -0.0123535 -9.37885e-12 -0.042352 7.00452e-09 -0.0436714)
(0.085042 -0.0120309 -5.45166e-10 -0.0419019 -2.3064e-09 -0.0435238)
(0.0850777 -0.0109806 9.61727e-11 -0.041392 -7.09281e-09 -0.0433745)
(0.0851175 -0.00930618 4.60537e-10 -0.0406849 1.77137e-09 -0.0431891)
(0.0851517 -0.00684062 -2.92834e-11 -0.0399149 6.95783e-09 -0.0429767)
(0.0851765 -0.00391252 -3.97836e-10 -0.0391291 5.57794e-10 -0.0427353)
(0.0851851 -0.00180114 -1.88287e-10 -0.0387198 -2.39587e-09 -0.0424777)
(0.0849877 -0.00161328 -5.05413e-11 -0.0443241 -2.56447e-09 -0.0443218)
(0.0850719 -0.0029771 -1.49885e-10 -0.0442902 4.9432e-10 -0.0443673)
(0.0850641 -0.00500177 -7.81654e-11 -0.044186 -1.29195e-09 -0.0443128)
(0.0850629 -0.00672844 9.20048e-11 -0.0440196 -3.48961e-09 -0.0442746)
(0.0850551 -0.00835885 2.95349e-10 -0.0438408 2.65981e-09 -0.0441969)
(0.0850565 -0.00974158 -7.49163e-11 -0.0435972 6.90531e-09 -0.044134)
(0.0850555 -0.0109237 -5.28256e-10 -0.0433493 -2.90694e-10 -0.0440314)
(0.0850663 -0.0117583 -2.9105e-10 -0.043053 -7.97811e-09 -0.0439447)
(0.0850783 -0.0122949 3.24733e-10 -0.0427504 -5.54227e-10 -0.0438208)
(0.0850996 -0.0123657 -9.30098e-12 -0.042393 7.01108e-09 -0.0437112)
(0.0851297 -0.012043 -5.4567e-10 -0.0419434 -2.3089e-09 -0.043564)
(0.0851667 -0.0109914 9.62626e-11 -0.0414341 -7.09966e-09 -0.0434147)
(0.0852084 -0.00931522 4.60867e-10 -0.0407278 1.77327e-09 -0.0432296)
(0.0852441 -0.00684731 -2.92408e-11 -0.0399581 6.96455e-09 -0.0430172)
(0.0852706 -0.00391649 -3.98093e-10 -0.0391738 5.58316e-10 -0.0427762)
(0.0852803 -0.00180285 -1.88467e-10 -0.0387646 -2.39827e-09 -0.0425188)
(0.0850663 -0.00161496 -5.05886e-11 -0.0443633 -2.56661e-09 -0.0443611)
(0.0851492 -0.0029798 -1.50001e-10 -0.0443294 4.94813e-10 -0.0444064)
(0.0851416 -0.00500683 -7.8161e-11 -0.044225 -1.2931e-09 -0.044352)
(0.0851412 -0.00673471 9.20407e-11 -0.044059 -3.49273e-09 -0.0443137)
(0.0851338 -0.00836692 2.95263e-10 -0.0438799 2.66235e-09 -0.0442361)
(0.0851365 -0.00975124 -7.49338e-11 -0.0436369 6.91158e-09 -0.0441731)
(0.0851364 -0.0109347 -5.28358e-10 -0.0433887 -2.9118e-10 -0.0440708)
(0.0851486 -0.0117702 -2.91614e-10 -0.0430933 -7.98525e-09 -0.043984)
(0.0851621 -0.0123064 3.24694e-10 -0.0427911 -5.54293e-10 -0.0438605)
(0.085185 -0.0123782 -9.22522e-12 -0.0424341 7.0176e-09 -0.0437508)
(0.085217 -0.0120553 -5.4615e-10 -0.0419851 -2.31143e-09 -0.043604)
(0.0852558 -0.0110031 9.62901e-11 -0.0414761 -7.10648e-09 -0.0434547)
(0.0852999 -0.00932508 4.61392e-10 -0.040771 1.77512e-09 -0.0432699)
(0.0853373 -0.00685429 -2.91957e-11 -0.0400019 6.97127e-09 -0.0430577)
(0.0853658 -0.0039208 -3.98395e-10 -0.0392192 5.58842e-10 -0.042817)