/*--------------------------------*- C++ -*----------------------------------*\
  =========                 |
  \\      /  F ield         | OpenFOAM: The Open Source CFD Toolbox
   \\    /   O peration     | Website:  https://openfoam.org
    \\  /    A nd           | Version:  8
     \\/     M anipulation  |
\*---------------------------------------------------------------------------*/
FoamFile
{
    version     2.0;
    format      ascii;
    class       surfaceScalarField;
    location    "0.0510000";
    object      phi;
}
// * * * * * * * * * * * * * * * * * * * * * * * * * * * * * * * * * * * * * //

dimensions      [0 3 -1 0 0 0 0];

internalField   nonuniform List<scalar> 
1691
(
8.3875925372525e-10
9.89035939074671e-12
8.29017221843746e-10
1.00760431136568e-11
8.1928355758992e-10
1.01584048542786e-11
8.09405244176587e-10
1.03530526406569e-11
7.99455375876397e-10
1.04640297379403e-11
7.89475633077389e-10
1.0530338476343e-11
7.79502687951009e-10
1.05739311713081e-11
7.69532299212028e-10
1.06025863475726e-11
7.59566852006916e-10
1.06264465037571e-11
7.49605463316172e-10
1.06514311208696e-11
7.39655620618095e-10
1.06755211462461e-11
7.29711493594484e-10
1.06935484754185e-11
7.1977145279778e-10
1.07125837491857e-11
7.09834706624188e-10
1.07359553294615e-11
6.9990510889761e-10
1.07572802179442e-11
6.89980662754098e-10
1.07732996630165e-11
6.80061693967713e-10
1.0788675174739e-11
6.70151061331187e-10
1.08076917371439e-11
6.60244592657234e-10
1.08293168007844e-11
6.50338337367899e-10
1.08503646472806e-11
6.40435286593691e-10
1.08681143922199e-11
6.30546229079294e-10
1.08867076875878e-11
6.20659871746998e-10
1.09074281442055e-11
6.10777521220128e-10
1.09263174182195e-11
6.00902378840913e-10
1.09450234919221e-11
5.91037694650178e-10
1.09708358027655e-11
5.81174997622203e-10
1.09959213334361e-11
5.71316588542482e-10
1.10190219185849e-11
5.6146624769977e-10
1.10438104117914e-11
5.51629515182861e-10
1.10715854029708e-11
5.41797826755597e-10
1.10996563434419e-11
5.31968926124204e-10
1.11314770117731e-11
5.22149603154818e-10
1.11710980895286e-11
5.12338774167001e-10
1.12118836097719e-11
5.02536322796711e-10
1.12482515102681e-11
4.92738139873304e-10
1.12917781340634e-11
4.82959085779058e-10
1.13511004542303e-11
4.73191144123206e-10
1.14048101821759e-11
4.63434897322674e-10
1.14585783229313e-11
4.536812794994e-10
1.15318248040725e-11
4.43957375474833e-10
1.1626390253076e-11
4.34245790963768e-10
1.17099837869e-11
4.24547764581428e-10
1.18000031042229e-11
4.14867922409385e-10
1.19235056732675e-11
4.05225918938908e-10
1.20729957311879e-11
3.95597609037466e-10
1.22182740153532e-11
3.85977845120092e-10
1.23812909587251e-11
3.76410196910551e-10
1.25997791679318e-11
3.66887574380829e-10
1.28422861091718e-11
3.57395068122999e-10
1.30775058889849e-11
3.47901039176197e-10
1.33598954355944e-11
3.38530319598936e-10
1.3762432547398e-11
3.29193842528251e-10
1.41536728180972e-11
3.19904392697985e-10
1.45504080092432e-11
3.10646294106622e-10
1.50628820178551e-11
3.01572518376538e-10
1.57379532313404e-11
2.92547314344932e-10
1.63776026146973e-11
2.83568993285054e-10
1.70739838111501e-11
2.74739592667725e-10
1.80081697789073e-11
2.66117831869576e-10
1.90898957050531e-11
2.57602791556408e-10
2.01393517601043e-11
2.49048289275628e-10
2.14955618053998e-11
2.41042895992663e-10
2.37850148407636e-11
2.3355182491148e-10
2.66373470404224e-11
2.26504956759254e-10
2.98242332736739e-11
2.19644885974e-10
3.41133411077949e-11
2.14566093081072e-10
3.98720480934108e-11
2.09635597935962e-10
4.47090683360389e-11
2.05062400257253e-10
4.92062344671623e-11
2.01455696940722e-10
5.42501423189989e-11
1.9866112571801e-10
5.88155380551405e-11
1.96049446460381e-10
6.22235163139269e-11
1.93756286157147e-10
6.52597749485231e-11
1.92398026932552e-10
6.79885621602395e-11
1.90904579223586e-10
6.93908562207493e-11
1.89584081518286e-10
6.98732229574335e-11
1.88493411396345e-10
6.9492903448142e-11
1.86935894354725e-10
6.78875514850082e-11
1.85136926601071e-10
6.56189026669818e-11
1.83745823184089e-10
6.22210393322408e-11
1.80511921176188e-10
5.71948662756539e-11
1.76966069781655e-10
5.1722220960917e-11
1.73236376124677e-10
4.61015788225053e-11
1.68542969350966e-10
3.87623560179547e-11
1.61186187902971e-10
3.14833871155911e-11
1.55443276145026e-10
2.30582685049585e-11
1.57024454017338e-10
9.05930237311017e-12
1.56160048270999e-10
2.75574693209936e-12
1.55549938532217e-10
-1.09757003471294e-12
1.54879592127768e-10
-4.23451381798077e-12
1.53334089413178e-10
-6.4461108161627e-12
1.51842089010809e-10
-8.0674040048191e-12
1.50326836973697e-10
-8.99249919468003e-12
1.48687648996939e-10
-9.67723670868507e-12
1.46927333766246e-10
-1.0050753363313e-11
1.45237167370147e-10
-1.01619260107791e-11
1.43413366509899e-10
-9.96514357509231e-12
1.41690635467101e-10
-9.35168141684927e-12
1.39764457993039e-10
-8.04340148661906e-12
-3.51890895307548e-12
4.43307384411886e-10
1.3936393655597e-11
4.38779231915615e-10
1.46583493779174e-11
4.3382098803606e-10
1.51707219859373e-11
4.28488985740779e-10
1.57390482353001e-11
4.22953687011231e-10
1.60532438263265e-11
4.17341332768688e-10
1.61965361946931e-11
4.11712466622066e-10
1.62565726325737e-11
4.06087034618653e-10
1.62817109596106e-11
4.00469878174327e-10
1.62971923796703e-11
3.94862455365222e-10
1.63123446378462e-11
3.89265507230585e-10
1.63258785744519e-11
3.83677610272584e-10
1.6334769804251e-11
3.78097643985136e-10
1.63457774209335e-11
3.72525677646419e-10
1.63610559825997e-11
3.66962215539019e-10
1.63737912157495e-11
3.61407038754204e-10
1.63814363629522e-11
3.55860338363771e-10
1.63882508051007e-11
3.50322478509448e-10
1.63983566011247e-11
3.44792344031601e-10
1.64121813313372e-11
3.39268829536613e-10
1.64265133244231e-11
3.33753362953011e-10
1.6436112966376e-11
3.28247930423828e-10
1.64445831551466e-11
3.22750985057434e-10
1.6456740989625e-11
3.17262163366642e-10
1.64674318127643e-11
3.11782888383338e-10
1.64765076110752e-11
3.06313366624077e-10
1.64924750402078e-11
3.00852160070768e-10
1.65091455009654e-11
2.9539957348587e-10
1.65235242339739e-11
2.8995753521972e-10
1.65376772114416e-11
2.84527121713087e-10
1.6553753913231e-11
2.79106698398346e-10
1.65717492706605e-11
2.73695726571107e-10
1.65940135645229e-11
2.68295634567715e-10
1.66226514398788e-11
2.62906991767665e-10
1.6651899164661e-11
2.57530194681574e-10
1.6676329502316e-11
2.52166160936189e-10
1.67069823248452e-11
2.46817071692288e-10
1.67512488228224e-11
2.41483682431174e-10
1.67891631182474e-11
2.36165593845304e-10
1.68275414664941e-11
2.30863321371955e-10
1.68848754671704e-11
2.2558099476048e-10
1.69593878752e-11
2.20319688078616e-10
1.70218491609021e-11
2.15080104891853e-10
1.70900343119592e-11
2.09865545600773e-10
1.71883923101246e-11
2.04679734087427e-10
1.73089751407524e-11
1.9952129829219e-10
1.74266685764281e-11
1.94393927206496e-10
1.75583944596817e-11
1.89307846767594e-10
1.77353603363017e-11
1.84265692346711e-10
1.79336608074126e-11
1.79266810116942e-10
1.8125305734146e-11
1.74318769274225e-10
1.83565880332185e-11
1.69437328269821e-10
1.86922631046322e-11
1.64622741676136e-10
1.90163264053312e-11
1.59878762397095e-10
1.93421404102142e-11
1.55220827815573e-10
1.97682949492305e-11
1.50668928540612e-10
2.03369449159426e-11
1.46223318447331e-10
2.08697003199642e-11
1.41894903526978e-10
2.14480990726281e-11
1.3771252710184e-10
2.22353530747377e-11
1.33696539358654e-10
2.31496505308499e-11
1.29861602548096e-10
2.40167584807158e-11
1.26272416271943e-10
2.5125696418429e-11
1.23067045184466e-10
2.7029510281118e-11
1.20350356129065e-10
2.93905888513803e-11
1.18215115229118e-10
3.19926164042621e-11
1.1677818102224e-10
3.55795236035537e-11
1.16148937835066e-10
4.05259149046041e-11
1.16258243719169e-10
4.46186660625326e-11
1.17075089769199e-10
4.84023881631643e-11
1.18612650131551e-10
5.27202647490166e-11
1.20819425312323e-10
5.66109411554977e-11
1.23583149465041e-10
5.94551926151111e-11
1.26823486932635e-10
6.20077195149071e-11
1.30471205918889e-10
6.43240401707077e-11
1.34364517801029e-10
6.54773912661232e-11
1.38367461676514e-10
6.58464501115489e-11
1.42332632768239e-10
6.54992769021377e-11
1.46105607718324e-10
6.40801920964975e-11
1.49542541556209e-10
6.21410349365431e-11
1.52529408865099e-10
5.91878860295379e-11
1.54746809987812e-10
5.4927352008871e-11
1.56240775820765e-10
5.01763774306627e-11
1.56845158066114e-10
4.54446057470357e-11
1.56518459765155e-10
3.90317357576199e-11
1.54750686202963e-10
3.31893932151685e-11
1.52869360913048e-10
2.48783458285616e-11
1.54097360431378e-10
7.76941858596504e-12
1.54549573076452e-10
2.23895083329621e-12
1.54149419142984e-10
-7.63260463725127e-13
1.53403890014749e-10
-3.5542839987955e-12
1.52170522030605e-10
-5.27855768766235e-12
1.50720446683308e-10
-6.68416717026038e-12
1.49099934556116e-10
-7.43805304412329e-12
1.47378495834625e-10
-8.02095616411529e-12
1.4557731663015e-10
-8.31463902661627e-12
1.43763155975262e-10
-8.4129667230663e-12
1.41964795764051e-10
-8.23254990572247e-12
1.40246250037369e-10
-7.69941785151117e-12
1.38620812299951e-10
-6.48447797724976e-12
-2.63342002677458e-12
1.16952627665119e-10
1.33577656441299e-11
1.17222639293836e-10
1.4443793611068e-11
1.16294124809215e-10
1.61545974626211e-11
1.14770647109708e-10
1.73177924347016e-11
1.12963350832625e-10
1.79157143524689e-11
1.11051594945537e-10
1.81633801907938e-11
1.09113015474754e-10
1.82501593099735e-11
1.07174543724879e-10
1.82750930721219e-11
1.0524373082653e-10
1.82827948724472e-11
1.03322857456111e-10
1.82878933288169e-11
1.01412019062837e-10
1.82912984556814e-11
9.95095933244653e-11
1.82916782556568e-11
9.76152580126126e-11
1.82944820704468e-11
9.57297796473901e-11
1.83007961275113e-11
9.38529670321715e-11
1.83047665467027e-11
9.19839566757365e-11
1.83045049156036e-11
9.01227777600903e-11
1.83033881530504e-11
8.82700963426449e-11
1.8304914491828e-11
8.64258814372663e-11
1.83101850173492e-11
8.45896000019435e-11
1.83164709533679e-11
8.2761264563651e-11
1.83180066488461e-11
8.09417304353836e-11
1.83175716659506e-11
7.91309799254882e-11
1.83208570584874e-11
7.73284962981458e-11
1.83231944040387e-11
7.55346984852109e-11
1.83234857261838e-11
7.37506281404464e-11
1.83296187607351e-11
7.1975647123219e-11
1.83370859594014e-11
7.02095010730042e-11
1.83425112921611e-11
6.84532282836083e-11
1.83466905434929e-11
6.670761137809e-11
1.83520264601419e-11
6.49719764643357e-11
1.83599399137027e-11
6.32464613952335e-11
1.83719631006839e-11
6.15325511321838e-11
1.83888769777308e-11
5.98305814108909e-11
1.84060831335151e-11
5.81400060193995e-11
1.8419015182314e-11
5.64621752255942e-11
1.84367956085309e-11
5.47998097088796e-11
1.8465469042154e-11
5.3152419752938e-11
1.84883003542561e-11
5.1519577851639e-11
1.85120290094409e-11
4.99039568186374e-11
1.85520314565438e-11
4.83094451512421e-11
1.86053118997721e-11
4.67350476109368e-11
1.86475320955908e-11
4.51815747922339e-11
1.86946691270364e-11
4.36542539245593e-11
1.87667418266535e-11
4.21571659296645e-11
1.88569165333104e-11
4.06888207670708e-11
1.8945641374441e-11
3.925261008445e-11
1.90449907876989e-11
3.78588874632142e-11
1.91792212069948e-11
3.65110566865628e-11
1.93313260405361e-11
3.52072233026902e-11
1.94786449489275e-11
3.39561221556203e-11
1.96569336401078e-11
3.27766954102373e-11
1.99206630052445e-11
3.16675180190026e-11
2.01741109761852e-11
3.06297468892144e-11
2.04281841280614e-11
2.96829350064279e-11
2.07631231768373e-11
2.88516180012437e-11
2.12158866757516e-11
2.81313570857433e-11
2.16369470024589e-11
2.75320423296648e-11
2.20936078497977e-11
2.70907910407921e-11
2.27218701742525e-11
2.68304283043913e-11
2.34541940557559e-11
2.67515961681052e-11
2.41384765511686e-11
2.69144523679876e-11
2.50041726552472e-11
2.74729335510599e-11
2.65105332222541e-11
2.85274207749084e-11
2.83730302329319e-11
3.01472338024563e-11
3.04062374888138e-11
3.24968062447943e-11
3.32594849438772e-11
3.57631687384217e-11
3.72844494638694e-11
3.98218686447285e-11
4.05790289924589e-11
4.46251688369966e-11
4.36121292791494e-11
5.02355294660407e-11
4.71176371505525e-11
5.65827563889005e-11
5.02659745833355e-11
6.35039086920864e-11
5.25294753843513e-11
7.09304550895262e-11
5.4569413604346e-11
7.87996485183694e-11
5.64379185683799e-11
8.69190435073225e-11
5.7337697956587e-11
9.51343255617619e-11
5.76071621904734e-11
1.03300988009393e-10
5.73038836230002e-11
1.11227328279256e-10
5.6119304297914e-11
1.18796310703499e-10
5.45313324075441e-11
1.25813338912563e-10
5.21249563604031e-11
1.32053790321627e-10
4.86372150234984e-11
1.37408510955434e-10
4.47698780379184e-11
1.41874556036683e-10
4.09251265737184e-11
1.45136505206277e-10
3.57130794118609e-11
1.47207512802686e-10
3.1058528192189e-11
1.48137800104286e-10
2.38869188674469e-11
1.49620198216807e-10
6.22459470618292e-12
1.5001266019977e-10
1.78241105386715e-12
1.49726715771073e-10
-5.4207223700641e-13
1.48881134909044e-10
-2.77365419877533e-12
1.47660699870674e-10
-4.12368879700152e-12
1.4614670055845e-10
-5.23612585743839e-12
1.44473215236958e-10
-5.83017465000012e-12
1.42677078938198e-10
-6.29007097780871e-12
1.40816209480222e-10
-6.51907177526624e-12
1.38933976648234e-10
-6.59619544614266e-12
1.37085343448906e-10
-6.44958929417804e-12
1.35339834477508e-10
-6.01994934720556e-12
1.33824854722521e-10
-5.0360987420315e-12
-1.97576126375584e-12
-1.3435285487072e-10
9.77965987621717e-12
-1.30886770041878e-10
1.10344372664978e-11
-1.28884063276611e-10
1.42085108136804e-11
-1.27506274222218e-10
1.59965153016373e-11
-1.26391325944395e-10
1.6857172073728e-11
-1.25367061215018e-10
1.7195421806061e-11
-1.24366025120498e-10
1.73053350288971e-11
-1.23365674850681e-10
1.73308435228555e-11
-1.22359513038356e-10
1.73325984597964e-11
-1.21345633024192e-10
1.73298503175582e-11
-1.203241940005e-10
1.73255887860408e-11
-1.19296566790802e-10
1.73196675501343e-11
-1.18262630516267e-10
1.73160346970286e-11
-1.17221504372213e-10
1.73150372649296e-11
-1.16173637263462e-10
1.73121536283363e-11
-1.151200632318e-10
1.73060665774334e-11
-1.14060861968143e-10
1.72992091861754e-11
-1.12995307572596e-10
1.72942870058464e-11
-1.11922890430118e-10
1.72925932578579e-11
-1.1084376736173e-10
1.7292046374803e-11
-1.09758620202145e-10
1.72874258320428e-11
-1.08667264522391e-10
1.72806646657845e-11
-1.07569110216847e-10
1.72770490943392e-11
-1.06464572884029e-10
1.7272903238921e-11
-1.05353753802882e-10
1.72668002660671e-11
-1.04235342379165e-10
1.72652199777158e-11
-1.03109475255928e-10
1.7265103361937e-11
-1.01976586596088e-10
1.7263374705797e-11
-1.00836298959532e-10
1.72600409853411e-11
-9.96880558350493e-11
1.72573229645466e-11
-9.85318695447434e-11
1.72571793290534e-11
-9.73671684160232e-11
1.72605522218603e-11
-9.61925884540716e-11
1.72674541457584e-11
-9.50079433681241e-11
1.72744804327206e-11
-9.38140905072636e-11
1.72780867600627e-11
-9.2609672938031e-11
1.72851604343609e-11
-9.13919680967452e-11
1.73004047923597e-11
-9.01619916494543e-11
1.73108433905089e-11
-8.89198805752698e-11
1.73223220859764e-11
-8.76621365726111e-11
1.73465670871397e-11
-8.63852683202214e-11
1.73805868591037e-11
-8.50911972459279e-11
1.740546299223e-11
-8.37788977592477e-11
1.74342338818771e-11
-8.24425725062383e-11
1.74821329736282e-11
-8.10780627986656e-11
1.75439328499006e-11
-7.96864055495457e-11
1.7605268982082e-11
-7.8264523689911e-11
1.76741361536162e-11
-7.68029067167289e-11
1.77683682924466e-11
-7.52977592011711e-11
1.78766225641863e-11
-7.37507842888925e-11
1.79817692858904e-11
-7.21533069557753e-11
1.81092785747543e-11
-7.04857633826201e-11
1.83026545383402e-11
-6.87500385097028e-11
1.84875388819213e-11
-6.69456269761642e-11
1.86725750685076e-11
-6.50521585143762e-11
1.89181858342129e-11
-6.30436869453537e-11
1.92555377029241e-11
-6.09262301947884e-11
1.9566954258672e-11
-5.86903440242099e-11
1.99043728762722e-11
-5.62964791861502e-11
2.03737063905544e-11
-5.37210048109626e-11
2.09233126072554e-11
-5.09696923411528e-11
2.14304370294835e-11
-4.79880650173625e-11
2.20642383197285e-11
-4.46220684959975e-11
2.31843741421043e-11
-4.07778917385669e-11
2.45660816776928e-11
-3.64002915019642e-11
2.60623310223735e-11
-3.13025469556411e-11
2.81914953700844e-11
-2.52577861630762e-11
3.12647652316281e-11
-1.84130720385393e-11
3.37535082478229e-11
-1.082431336275e-11
3.60364956420134e-11
-2.40394725913952e-12
3.87050508339094e-11
6.76935798386929e-12
4.1094947015976e-11
1.65067132029434e-11
4.27875403831895e-11
2.67478077993193e-11
4.43165033452879e-11
3.74379136952437e-11
4.57307901032922e-11
4.83697107818295e-11
4.63854873455832e-11
5.93837072527642e-11
4.65690405575131e-11
7.0343686369875e-11
4.6315057003423e-11
8.10358971024547e-11
4.53924340195328e-11
9.13695965989479e-11
4.41568121210972e-11
1.01117284508702e-10
4.23312800571248e-11
1.10084661608815e-10
3.96200455944593e-11
1.18097212459542e-10
3.67054026206762e-11
1.25266791303822e-10
3.37020035087904e-11
1.31096166912707e-10
2.98269755676656e-11
1.35879930133148e-10
2.621495658966e-11
1.38923150994797e-10
2.07825858489596e-11
1.405114037214e-10
4.57384692843724e-12
1.40770877878992e-10
1.45882651649675e-12
1.40518547301406e-10
-3.54434989270114e-13
1.39621827560961e-10
-1.94182135814127e-12
1.3842043364131e-10
-2.98782896225832e-12
1.36901277482307e-10
-3.78290223565e-12
1.35245972474652e-10
-4.24047851199952e-12
1.33460850189426e-10
-4.5702715149459e-12
1.31621424984203e-10
-4.74506206732594e-12
1.2975816329218e-10
-4.79850397849271e-12
1.2793276691887e-10
-4.68995550201547e-12
1.26214737382467e-10
-4.36803212266184e-12
1.24742354194317e-10
-3.63038854336591e-12
-1.34859011295072e-12
-3.05809412264618e-10
4.83981340617636e-12
-3.01246380165931e-10
6.52938143774236e-12
-2.97621034529814e-10
1.06410201792658e-11
-2.94355451983973e-10
1.27886663957044e-11
-2.91212764776126e-10
1.37720994103357e-11
-2.88103012196699e-10
1.41431710787218e-11
-2.84998472270007e-10
1.42581893785343e-11
-2.81891925761527e-10
1.42815666620522e-11
-2.78781571495401e-10
1.42793645618064e-11
-2.75666829238402e-10
1.42720863013678e-11
-2.72548065266947e-10
1.42636820277452e-11
-2.69426241266066e-10
1.42545744092762e-11
-2.66300989349648e-10
1.42473723384124e-11
-2.63171515577112e-10
1.42420178262563e-11
-2.60038331120014e-10
1.42352968776876e-11
-2.56902414485142e-10
1.42263456259697e-11
-2.53763910576058e-10
1.42167742805831e-11
-2.50622160084519e-10
1.42084971183077e-11
-2.47476413178596e-10
1.42026921761087e-11
-2.4432658793245e-10
1.419792633364e-11
-2.41173653309619e-10
1.41900505073003e-11
-2.38017844687927e-10
1.41802842114307e-11
-2.3485837041111e-10
1.41728874742664e-11
-2.31695500191251e-10
1.41652323683081e-11
-2.28529583033971e-10
1.41559565255809e-11
-2.25359332277151e-10
1.41499080688575e-11
-2.22184565059035e-10
1.41451331282086e-11
-2.19005740150127e-10
1.41392006595294e-11
-2.15822926632131e-10
1.41317511016587e-11
-2.12635757621487e-10
1.41245659939914e-11
-2.09443819949509e-10
1.41195262584762e-11
-2.06246303091356e-10
1.41171707455018e-11
-2.03042042279053e-10
1.41171819770519e-11
-1.99830935510381e-10
1.41172341616965e-11
-1.96613882440754e-10
1.41147626747597e-11
-1.93389691721458e-10
1.41145428090367e-11
-1.90155919182735e-10
1.412004980151e-11
-1.86913709343607e-10
1.4121916558041e-11
-1.83662919784308e-10
1.41246868376818e-11
-1.80399913246106e-10
1.41365768627598e-11
-1.77121695471207e-10
1.41552354541879e-11
-1.73830474920113e-10
1.41669536330309e-11
-1.70525118664731e-10
1.41814371643825e-11
-1.67199981231203e-10
1.42093930512447e-11
-1.63851071444991e-10
1.42472153993446e-11
-1.60478888407633e-10
1.4285022112659e-11
-1.57080747248627e-10
1.4327658277159e-11
-1.53648415581673e-10
1.43874213257728e-11
-1.50178002402862e-10
1.44572580422187e-11
-1.46670701785307e-10
1.4525156401215e-11
-1.43118574453192e-10
1.46075466095418e-11
-1.39502955227116e-10
1.47371280284e-11
-1.3582567077436e-10
1.48599486557074e-11
-1.32086388267544e-10
1.49826208234883e-11
-1.28265778619936e-10
1.51466179890773e-11
-1.24338464756056e-10
1.53768405404843e-11
-1.20310781070055e-10
1.55872098487759e-11
-1.16174072211554e-10
1.58147703124462e-11
-1.11889832457087e-10
1.61356012088083e-11
-1.07434979514845e-10
1.6513462958225e-11
-1.02818566614078e-10
1.68576826886029e-11
-9.79937025225857e-11
1.72814267868427e-11
-9.28155489131494e-11
1.80463897179438e-11
-8.71995570152195e-11
1.89876161542545e-11
-8.11023928695737e-11
1.99991208966952e-11
-7.43344740958615e-11
2.14535530815215e-11
-6.6652953215337e-11
2.36084999767909e-11
-5.82111349315763e-11
2.53310148768843e-11
-4.90674211010104e-11
2.69059923316273e-11
-3.91228224935856e-11
2.87682796041913e-11
-2.84572026198283e-11
3.04316222420511e-11
-1.72668023962297e-11
3.15925459264872e-11
-5.60434061585713e-12
3.26421702936916e-11
6.48421735704027e-12
3.36251161267896e-11
1.87914201117028e-11
3.40577578127351e-11
3.11637225470863e-11
3.41724970117076e-11
4.34757586947254e-11
3.39740614702595e-11
5.55126835468014e-11
3.33207400294905e-11
6.72017122855105e-11
3.24268521998815e-11
7.83139017833608e-11
3.11729882548458e-11
8.86723090435199e-11
2.92117248674243e-11
9.80883646678958e-11
2.72372969244973e-11
1.06716814811235e-10
2.5019895838989e-11
1.14011102645653e-10
2.24758913801444e-11
1.20386113084099e-10
1.97801105943445e-11
1.2479740854277e-10
1.63101337540298e-11
1.26321407083725e-10
2.98727781918757e-12
1.2647908960947e-10
1.23698720386214e-12
1.26240835949721e-10
-1.80890894377677e-13
1.25365004196752e-10
-1.13090478777027e-12
1.2423507585255e-10
-1.92346869010695e-12
1.22799719170678e-10
-2.41350394469517e-12
1.21248387064266e-10
-2.75479946989868e-12
1.1957346906189e-10
-2.96075034150135e-12
1.17852549022226e-10
-3.08964645583943e-12
1.1610837360882e-10
-3.11998777080444e-12
1.14401076511177e-10
-3.04849903928854e-12
1.12794615793752e-10
-2.82775192053837e-12
1.11421925172371e-10
-2.3244353541672e-12
-7.69185914132684e-13
-3.94281713561142e-10
1.9077149114654e-13
-3.90090020915349e-10
2.39688979055244e-12
-3.86042399567034e-10
6.65246619359426e-12
-3.81910236545432e-10
8.71543668900212e-12
-3.77686727241203e-10
9.60739161602356e-12
-3.73414433672767e-10
9.92955373602476e-12
-3.69122446305586e-10
1.00247581765413e-11
-3.64824155452692e-10
1.00416945016768e-11
-3.60523966849941e-10
1.0037431974466e-11
-3.56222903793632e-10
1.00291237600978e-11
-3.51921477918457e-10
1.00202226759293e-11
-3.47620240413432e-10
1.00111641179162e-11
-3.43318684349887e-10
1.00034889788802e-11
-3.39016148437712e-10
9.99700621970949e-12
-3.34713114091721e-10
9.98964715208489e-12
-3.30410417062447e-10
9.9808880972227e-12
-3.26108234989956e-10
9.971692060535e-12
-3.21806026151492e-10
9.96326711375779e-12
-3.17502977492843e-10
9.95649488754872e-12
-3.13198865871019e-10
9.9505122945421e-12
-3.08894723834268e-10
9.9424467904481e-12
-3.04591028062648e-10
9.93298247022948e-12
-3.00286974389297e-10
9.92509947814302e-12
-2.95982706610927e-10
9.91710425766506e-12
-2.91678680755522e-10
9.90793150120359e-12
-2.87373760992511e-10
9.90084143080395e-12
-2.83067587383243e-10
9.8946574517377e-12
-2.78760578303297e-10
9.8877300428517e-12
-2.74453074964686e-10
9.87964602210688e-12
-2.70144865035492e-10
9.87162997725033e-12
-2.65835312253292e-10
9.86510693744984e-12
-2.61523527663812e-10
9.86035704187175e-12
-2.57208569993373e-10
9.85703510911142e-12
-2.52890385480505e-10
9.85371920980218e-12
-2.48569808736911e-10
9.84871083552515e-12
-2.44245888026034e-10
9.84497764665529e-12
-2.39916561523453e-10
9.84490980514794e-12
-2.35582931196821e-10
9.84232500239564e-12
-2.31244684436729e-10
9.84033711641866e-12
-2.26898452241017e-10
9.84409057355769e-12
-2.22541760045668e-10
9.85212597100413e-12
-2.18176791171499e-10
9.85539869066435e-12
-2.13802452315292e-10
9.86034708780848e-12
-2.09413693572678e-10
9.87370732469593e-12
-2.05006912738236e-10
9.8932880432006e-12
-2.00582206017614e-10
9.91289805421229e-12
-1.96137388244739e-10
9.93513534031698e-12
-1.91665702048691e-10
9.96773624713044e-12
-1.87163476510998e-10
1.00066816654954e-11
-1.82631450806356e-10
1.00444028130903e-11
-1.7806295875649e-10
1.00900191900443e-11
-1.73441224804777e-10
1.01660410161805e-11
-1.68767941483103e-10
1.02368977210445e-11
-1.64042878851197e-10
1.03074088255226e-11
-1.59249139664769e-10
1.04024281777317e-11
-1.5436343039706e-10
1.05402396752872e-11
-1.49391892750337e-10
1.06640850195855e-11
-1.44327196636157e-10
1.07976344170967e-11
-1.39134562388118e-10
1.09895343018197e-11
-1.33792870265937e-10
1.12171839449507e-11
-1.28312556057631e-10
1.142141223773e-11
-1.22656240840765e-10
1.16675235568032e-11
-1.16695809444055e-10
1.21264595564667e-11
-1.10359328101788e-10
1.26889600331461e-11
-1.03614640248219e-10
1.32886479885121e-11
-9.62872281149433e-11
1.41563396661265e-11
-8.81392647424907e-11
1.54859722294447e-11
-7.93180232936837e-11
1.65292306264451e-11
-6.98791161943162e-11
1.74803814485784e-11
-5.97233772969389e-11
1.86204157834834e-11
-4.89250978374156e-11
1.96356558088463e-11
-3.76705337038203e-11
2.03333737478214e-11
-2.60042931721882e-11
2.09640034317238e-11
-1.39616643551209e-11
2.15652790474216e-11
-1.73634576845432e-12
2.18118015655797e-11
1.05357688820368e-11
2.18760286772423e-11
2.27431798881177e-11
2.17375835228513e-11
3.46908008589996e-11
2.13382450337366e-11
4.63157058552445e-11
2.07609091142279e-11
5.7418288198913e-11
2.00241912514751e-11
6.78268184724554e-11
1.87531632969195e-11
7.73884638154312e-11
1.76234891389213e-11
8.62277987731126e-11
1.61268096580472e-11
9.38810315925452e-11
1.47657913646753e-11
1.00722513284345e-10
1.28787426970345e-11
1.05741089575341e-10
1.12303575024487e-11
1.0702666978605e-10
1.63907544265929e-12
1.071293308574e-10
1.07012571199662e-12
1.06897154636795e-10
-1.34587506401751e-14
1.06119215845386e-10
-4.17917926515552e-13
1.05119425275287e-10
-9.89285009258611e-13
1.03860193889054e-10
-1.22027064710048e-12
1.02499909042361e-10
-1.46021687118436e-12
1.01034785684475e-10
-1.56108689596055e-12
9.95299625193309e-11
-1.65040004792387e-12
9.80055213311814e-11
-1.66127965216631e-12
9.65131617142691e-11
-1.62204946061228e-12
9.51086036654046e-11
-1.48943884550849e-12
9.39091921350931e-11
-1.1918223098154e-12
-2.70284929606355e-13
-3.96460776865977e-10
-2.53426995628914e-12
-3.93904300506028e-10
-9.9182975613596e-14
-3.90441316682833e-10
3.2497404564231e-12
-3.86407249362333e-10
4.74148115838955e-12
-3.82077296910667e-10
5.3374068724606e-12
-3.77628998543846e-10
5.54108562846048e-12
-3.73142017158223e-10
5.59747505697796e-12
-3.68646236446233e-10
5.60546243000007e-12
-3.64150529840495e-10
5.60109848861797e-12
-3.59656871172236e-10
5.59466967661856e-12
-3.55165720264531e-10
5.58812979290086e-12
-3.50677288737988e-10
5.58163889068886e-12
-3.46191014360333e-10
5.57595367606908e-12
-3.41706355663211e-10
5.57092544573002e-12
-3.37223719030813e-10
5.56543615929122e-12
-3.32743777708212e-10
5.55921461585716e-12
-3.28266715234797e-10
5.55274512050365e-12
-3.23792117016302e-10
5.54665117770254e-12
-3.19319224780333e-10
5.54144535903761e-12
-3.14847753786687e-10
5.53671761680867e-12
-3.10378663687949e-10
5.53086079465686e-12
-3.05912521907374e-10
5.52418764622642e-12
-3.01448603172427e-10
5.51838682413338e-12
-2.96986969058668e-10
5.51253794793601e-12
-2.92528105102204e-10
5.50598409688739e-12
-2.88071068629779e-10
5.50056111988595e-12
-2.83615450085684e-10
5.49562696613391e-12
-2.79161602809952e-10
5.49029833771747e-12
-2.74709986575872e-10
5.48429245763323e-12
-2.70260504529128e-10
5.47827390199034e-12
-2.65812482577135e-10
5.47305799612719e-12
-2.6136509603997e-10
5.46876800723577e-12
-2.56917624903396e-10
5.46518834146633e-12
-2.52470043611636e-10
5.46160826723027e-12
-2.48023090352981e-10
5.45707055703568e-12
-2.43576081252236e-10
5.45309910332789e-12
-2.39127343433829e-10
5.45112026939711e-12
-2.34677886767486e-10
5.4476559431815e-12
-2.30227375102202e-10
5.44445863459815e-12
-2.25772982667002e-10
5.44416742318248e-12
-2.21312731375513e-10
5.44616782869633e-12
-2.1684864355659e-10
5.4454219727239e-12
-2.12379817674631e-10
5.44545402926755e-12
-2.0790210542135e-10
5.44973896153971e-12
-2.03412506727712e-10
5.45719992035973e-12
-1.98910963316869e-10
5.46458012524679e-12
-1.9439590882693e-10
5.47300394946067e-12
-1.89862134066144e-10
5.48657610355402e-12
-1.85306528384894e-10
5.50332293445554e-12
-1.8072959752016e-10
5.51932574720044e-12
-1.76126427310222e-10
5.53838040124606e-12
-1.71482841257109e-10
5.57365413803806e-12
-1.66800590359301e-10
5.60541555962289e-12
-1.6207963321516e-10
5.63682277931142e-12
-1.57306668729732e-10
5.67951901963176e-12
-1.52461780440951e-10
5.74495057028691e-12
-1.47550813724283e-10
5.80200444010345e-12
-1.42568341546001e-10
5.86317678636038e-12
-1.37485596646769e-10
5.95379040590864e-12
-1.32284936426466e-10
6.06234779411638e-12
-1.26976833223304e-10
6.15773933473006e-12
-1.2153523536291e-10
6.26869874809317e-12
-1.15855363731631e-10
6.48742321653767e-12
-1.09881777993944e-10
6.75350072586499e-12
-1.03593327219917e-10
7.03467554782428e-12
-9.68476644591407e-11
7.44110031927845e-12
-8.94320620264954e-11
8.09598791900124e-12
-8.14776678738986e-11
8.59442811549218e-12
-7.30318491785496e-11
9.04794615984979e-12
-6.40053070276945e-11
9.60179750878441e-12
-5.44603871626803e-11
1.00930679423668e-11
-4.45563373761227e-11
1.04247029347772e-11
-3.43282721048909e-11
1.07239574297778e-11
-2.3798235638724e-11
1.10179431289754e-11
-1.31325257094772e-11
1.11253446575819e-11
-2.43690969301834e-12
1.11559480579985e-11
8.19433322619627e-12
1.10771677753857e-11
1.86072976355844e-11
1.08903035833097e-11
2.87410266930064e-11
1.05860377020371e-11
3.8456626415661e-11
1.02622682849356e-11
4.75746980493496e-11
9.58494691161031e-12
5.60292127401278e-11
9.11670402932156e-12
6.38402331510805e-11
8.26194815880509e-12
7.07582930722912e-11
7.79079474821312e-12
7.69432033173142e-11
6.63389501054564e-12
8.17971829116073e-11
6.31513807829442e-12
8.26710241382446e-11
7.02569898369108e-13
8.27744012930165e-11
9.02514415148096e-13
8.25415293424311e-11
1.54642685184857e-13
8.19380369737236e-11
1.2059468799183e-13
8.11262827190097e-11
-2.43166951670337e-13
8.01337681534273e-11
-2.93784944161321e-13
7.90494663581905e-11
-4.41656262573251e-13
7.78912680714717e-11
-4.68398750920686e-13
7.66976970934602e-11
-5.22463752877733e-13
7.54913009557171e-11