/*--------------------------------*- C++ -*----------------------------------*\
  =========                 |
  \\      /  F ield         | OpenFOAM: The Open Source CFD Toolbox
   \\    /   O peration     | Website:  https://openfoam.org
    \\  /    A nd           | Version:  8
     \\/     M anipulation  |
\*---------------------------------------------------------------------------*/
FoamFile
{
    version     2.0;
    format      ascii;
    class       volScalarField::Internal;
    location    "0.0510000";
    object      V0;
}
// * * * * * * * * * * * * * * * * * * * * * * * * * * * * * * * * * * * * * //

dimensions      [0 3 0 0 0 0 0];

value           nonuniform List<scalar> 
600
(
5.91627039163607e-14
5.84490757951256e-14
5.77348031671023e-14
5.70209182503224e-14
5.63075272834418e-14
5.55945529193083e-14
5.48820918501497e-14
5.41702168498892e-14
5.34588241051774e-14
5.27478210481775e-14
5.20372751997194e-14
5.13272469718491e-14
5.06176652456154e-14
4.99084591956566e-14
4.91996873559032e-14
4.84914065177755e-14
4.77835614527104e-14
4.70760943262855e-14
4.63690578040291e-14
4.56625117220088e-14
4.49564066583392e-14
4.42506830820022e-14
4.35453961259083e-14
4.28406196835653e-14
4.21363059822564e-14
4.14323841012979e-14
4.07289254896942e-14
4.00260217005178e-14
3.93236179905066e-14
3.8621631128639e-14
3.79201604537162e-14
3.72193303854328e-14
3.6519073207127e-14
3.58192791172055e-14
3.51201073720264e-14
3.44217418193067e-14
3.372408568995e-14
3.30269828940276e-14
3.2330704610711e-14
3.1635555861778e-14
3.09413765386393e-14
3.02479018707226e-14
2.95556306762445e-14
2.88650642683239e-14
2.81759131975732e-14
2.74877331160013e-14
2.68015046600872e-14
2.61180294952886e-14
2.54367106863762e-14
2.47568099318742e-14
2.40802527557793e-14
2.34082757022612e-14
2.27396495252169e-14
2.20732026499388e-14
2.14126198068495e-14
2.07597127405067e-14
2.01120220920852e-14
1.9467546251357e-14
1.88317087519257e-14
1.82094167320235e-14
1.76001446475466e-14
1.69976775200874e-14
1.64334994330717e-14
1.59203768043761e-14
1.54338545255685e-14
1.49806956658356e-14
1.45879317367536e-14
1.42449870660489e-14
1.39215653943823e-14
1.36391276441301e-14
1.34061075534367e-14
1.31986307986987e-14
1.30054581373218e-14
1.28389034983993e-14
1.26849827812286e-14
1.25271392865765e-14
1.23737545785076e-14
1.22007428831795e-14
1.19966985234693e-14
1.17848165494322e-14
1.15339231880705e-14
1.12176797507218e-14
1.08654540588171e-14
1.04868946728809e-14
1.0021375369878e-14
9.52123178582115e-15
9.33894472685062e-15
9.38041105554133e-15
9.35936207318923e-15
9.32734347895912e-15
9.27934590819899e-15
9.21158441402517e-15
9.13828409428631e-15
9.06501538129432e-15
8.98661134006724e-15
8.90675603992447e-15
8.82746899167071e-15
8.74685003902041e-15
8.6649090716917e-15
8.53433766855958e-15
6.13177480533755e-14
6.05548288766605e-14
5.97915385584162e-14
5.90294410615715e-14
5.82685013206792e-14
5.75086586794156e-14
5.67499026875134e-14
5.59922288659179e-14
5.52356106261576e-14
5.44800225531337e-14
5.37254627750624e-14
5.29719327389655e-14
5.22194171310289e-14
5.14679013529828e-14
5.07173892303757e-14
4.99678868218923e-14
4.92193856423058e-14
4.84718773916685e-14
4.77253695788834e-14
4.69798710989493e-14
4.62353764570213e-14
4.54918803130777e-14
4.47493942863861e-14
4.4007932163183e-14
4.32674918269159e-14
4.25280712675532e-14
4.17896883843715e-14
4.10523636793109e-14
4.03160989277516e-14
3.95808976933501e-14
3.88467895840116e-14
3.81138072754563e-14
3.73819594634358e-14
3.66512604154262e-14
3.59217623172874e-14
3.51935205972965e-14
3.44665563914539e-14
3.37409041966228e-14
3.30166591888364e-14
3.22939185120456e-14
3.15727218542215e-14
3.08531354152301e-14
3.01353285736977e-14
2.94194698940202e-14
2.870563163124e-14
2.79939455777378e-14
2.72847198080143e-14
2.65782393719153e-14
2.58746175858902e-14
2.51741008995434e-14
2.44772401516974e-14
2.37845059287874e-14
2.3096064578816e-14
2.24123651771243e-14
2.1734373651706e-14
2.1062842039379e-14
2.03979935842508e-14
1.97406952656185e-14
1.90932251417267e-14
1.84584549668632e-14
1.78393399706557e-14
1.72418451510755e-14
1.66748403985759e-14
1.6144211871384e-14
1.56514043382173e-14
1.51991918099844e-14
1.47911091972062e-14
1.44252142442028e-14
1.40971301680786e-14
1.38057133816898e-14
1.35492969403485e-14
1.33213962144224e-14
1.31152556609496e-14
1.29258630195127e-14
1.27462339226589e-14
1.25681931722738e-14
1.23841371039345e-14
1.21850246268524e-14
1.19637990870789e-14
1.17156578071998e-14
1.14310839193818e-14
1.1101933371046e-14
1.07279459712459e-14
1.03062242572196e-14
9.82697352461545e-15
9.33468113974122e-15
9.14121060513423e-15
9.19343918454219e-15
9.20317960823613e-15
9.185224174559e-15
9.1473667307042e-15
9.09410900747499e-15
9.03124395947901e-15
8.96293096511842e-15
8.89092706008921e-15
8.8171550474184e-15
8.74351595428629e-15
8.67168533119538e-15
8.60388629254209e-15
8.5527098273695e-15
6.3460989367813e-14
6.26493586161663e-14
6.18374591008301e-14
6.10273901308574e-14
6.02190539587155e-14
5.94123890597555e-14
5.86073854086293e-14
5.78040385913837e-14
5.7002319788726e-14
5.62022017668536e-14
5.54036831056967e-14
5.46067655732831e-14
5.38114323626454e-14
5.30176676097709e-14
5.22254757455919e-14
5.14348633427583e-14
5.06458208007922e-14
4.98583388322155e-14
4.90724256375255e-14
4.82880907763264e-14
4.75053277429172e-14
4.67241302153678e-14
4.59445106789699e-14
4.51664839227327e-14
4.43900468277299e-14
4.36151962385655e-14
4.28419512984819e-14
4.2070333895588e-14
4.13003446246654e-14
4.05319857150587e-14
3.97652886602933e-14
3.9000288211852e-14
3.82369915056184e-14
3.7475410988999e-14
3.67156020436433e-14
3.59576234020408e-14
3.52014937396286e-14
3.44472447372291e-14
3.36949772783724e-14
3.29447942678082e-14
3.21967308027358e-14
3.1450847692775e-14
3.07073249511872e-14
2.99663410798628e-14
2.92279590860033e-14
2.84923005566794e-14
2.77596950423242e-14
2.70304441622786e-14
2.63046405492938e-14
2.55825110963362e-14
2.48646514439254e-14
2.41515582509028e-14
2.3443351883624e-14
2.27404462415908e-14
2.2043897841083e-14
2.13544977094894e-14
2.06723706101346e-14
1.99982995908595e-14
1.93346868540612e-14
1.86845037995692e-14
1.80505423320009e-14
1.74385513803001e-14
1.68582367289309e-14
1.63157453619571e-14
1.58116830697619e-14
1.53489148937876e-14
1.49316322689692e-14
1.45575099647762e-14
1.42213922119702e-14
1.39224726077523e-14
1.36591326060402e-14
1.34244192335066e-14
1.32113452750938e-14
1.30147479696053e-14
1.28274761888184e-14
1.26411795193427e-14
1.24479112720383e-14
1.22388779836658e-14
1.2006934171034e-14
1.17462843313081e-14
1.14483630149869e-14
1.11059943478015e-14
1.0717092873416e-14
1.0278202192662e-14
9.78367606719091e-15
9.27951026063547e-15
9.08176279187882e-15
9.13443816427395e-15
9.14860540381425e-15
9.13448065154725e-15
9.0999123400402e-15
9.05027643648683e-15
8.99061702708868e-15
8.92482257140722e-15
8.8552748954892e-15
8.78395093958732e-15
8.71283568033377e-15
8.64424929094217e-15
8.58238915460155e-15
8.54042137808301e-15
6.56104168380638e-14
6.47498506515592e-14
6.38891753136327e-14
6.30310008487827e-14
6.21751383049437e-14
6.13215240369304e-14
6.0470147015948e-14
5.96210021563934e-14
5.87740593534061e-14
5.79292902064744e-14
5.70866928955959e-14
5.62462689019632e-14
5.54080006626888e-14
5.45718716351755e-14
5.37378861399281e-14
5.29060506952066e-14
5.20763552391482e-14
5.12487900678047e-14
5.04233634234797e-14
4.96000849205039e-14
4.87789477097448e-14
4.79599451706642e-14
4.71430899615753e-14
4.63283970653598e-14
4.55158631235768e-14
4.47054847860753e-14
4.3897281526145e-14
4.30912755716194e-14
4.22874673673673e-14
4.14858590919689e-14
4.068648283417e-14
3.98893739276788e-14
3.90945394866065e-14
3.83019921401275e-14
3.75117883289958e-14
3.67239877727323e-14
3.59386093094596e-14
3.51556851833867e-14
3.43753181321591e-14
3.35976126915928e-14
3.28226042861922e-14
3.20503547618534e-14
3.12810471576803e-14
3.05148625228435e-14
2.97518644112669e-14
2.8992176344749e-14
2.82361327881817e-14
2.74840390236601e-14
2.67359881605722e-14
2.59922102848569e-14
2.52533086121418e-14
2.45197846036777e-14
2.37917585288044e-14
2.30696491536653e-14
2.23545237921859e-14
2.16471790271818e-14
2.09477382342151e-14
2.02569928050584e-14
1.95773693457287e-14
1.89118689473541e-14
1.82633124357115e-14
1.76375080069447e-14
1.70442305522158e-14
1.64896554018266e-14
1.59743677975395e-14
1.55011918086854e-14
1.50742810860958e-14
1.46912368069024e-14
1.43467812650482e-14
1.403999167964e-14
1.37691610128864e-14
1.35272157738509e-14
1.33070191376607e-14
1.31032806172535e-14
1.29087321339237e-14
1.27149054891857e-14
1.25137466484485e-14
1.22963747895623e-14
1.20555658607077e-14
1.17854583282533e-14
1.14775163341584e-14
1.11245873215027e-14
1.07244576436601e-14
1.02736834907169e-14
9.76708884566353e-15
9.2522723671515e-15
9.05170271775574e-15
9.10320339877601e-15
9.11772547922117e-15
9.10456024614248e-15
9.07122140090456e-15
9.02303253555799e-15
8.96489510870239e-15
8.90060023822e-15
8.83254644669017e-15
8.76271719237769e-15
8.69311627511229e-15
8.62616385236516e-15
8.56617626197107e-15
8.52581967509538e-15
6.77655439952515e-14
6.68559604248706e-14
6.59463900473032e-14
6.50399920450429e-14
6.41364884975873e-14
6.3235811768921e-14
6.23379495946963e-14
6.14428964050753e-14
6.05506209454357e-14
5.96610934857735e-14
5.87743116918686e-14
5.7890276894684e-14
5.70089708731626e-14
5.61303762887788e-14
5.52544972767659e-14
5.43813404163728e-14
5.35108952652801e-14
5.26431516100576e-14
5.17781176822376e-14
5.09158032660365e-14
5.00562012465738e-14
4.91993046112686e-14
4.83451261262317e-14
4.74936810875293e-14
4.66449659949044e-14
4.57989771972409e-14
4.49557344267932e-14
4.41152603890359e-14
4.32775554585127e-14
4.24426216270551e-14
4.16104915081092e-14
4.07812011885425e-14
3.99547578401978e-14
3.91311740729575e-14
3.83105073014349e-14
3.74928184742761e-14
3.66781266663519e-14
3.58664643501652e-14
3.50579360303592e-14
3.4252648267537e-14
3.34506368743678e-14
3.26519641770835e-14
3.18568161583711e-14
3.10653770486992e-14
3.02777109151013e-14
2.94939422721403e-14
2.87144105733136e-14
2.79394258520921e-14
2.71690813753973e-14
2.64036087473747e-14
2.56436193072976e-14
2.48896212061589e-14
2.41417335176139e-14
2.34003770140435e-14
2.26666315910199e-14
2.19413023871487e-14
2.12245081762644e-14
2.05170419290986e-14
1.98213545786906e-14
1.91404787397008e-14
1.84772534293616e-14
1.78375339902653e-14
1.72311915346347e-14
1.66644467748898e-14
1.61378414412211e-14
1.56541570215183e-14
1.52175252537655e-14
1.48254597810637e-14
1.44725379191977e-14
1.41577221832945e-14
1.3879211647022e-14
1.36298017589702e-14
1.34022067298145e-14
1.31910140831536e-14
1.29888487038468e-14
1.27871451278452e-14
1.25777714211901e-14
1.23517830002287e-14
1.21019219273255e-14
1.18223330931103e-14
1.15045061570936e-14
1.1141311051314e-14
1.07305592382001e-14
1.02688933108304e-14
9.7514406659251e-15
9.22729972161317e-15
9.0245489856969e-15
9.07440372565282e-15
9.08848498376406e-15
9.07560972589229e-15
9.04295371822857e-15
8.99569916033067e-15
8.93864761668195e-15
8.87551550206836e-15
8.80865875508786e-15
8.74003243331864e-15
8.67161319639528e-15
8.60576254919028e-15
8.54654961008618e-15
8.50631146656987e-15
6.99232446969693e-14
6.89488068679983e-14
6.79902294407061e-14
6.70354305135005e-14
6.60841114523205e-14
6.51361978504044e-14
6.41916763370015e-14
6.32505411169985e-14
6.23127605319091e-14
6.13783029887339e-14
6.04471649295342e-14
5.9519348206021e-14
5.85948345100514e-14
5.76736053128435e-14
5.67556637083561e-14
5.58410169416671e-14
5.49296547690749e-14
5.40215662561276e-14
5.31167589757838e-14
5.22152431905815e-14
5.13170119987074e-14
5.0422057544988e-14
4.95303928037559e-14
4.86420337977518e-14
4.77569760904216e-14
4.68752156887233e-14
4.5996772949911e-14
4.51216709841504e-14
4.42499107052499e-14
4.33814933226303e-14
4.25164515898157e-14
4.16548226493242e-14
4.07966141690634e-14
3.99418380247755e-14
3.90905522682529e-14
3.82428193862427e-14
3.7398658898287e-14
3.65581033574476e-14
3.57212577965881e-14
3.48882311541752e-14
3.40590605126477e-14
3.32338077129214e-14
3.24126601906312e-14
3.159580616205e-14
3.07833116358385e-14
2.99752995811298e-14
2.91721123111354e-14
2.83740669316763e-14
2.75812580073843e-14
2.67939152682846e-14
2.601265543416e-14
2.52379964352454e-14
2.44700582643206e-14
2.37092573616389e-14
2.29566830239703e-14
2.22131543062704e-14
2.14787875144557e-14
2.07543672163446e-14
2.00423553739457e-14
1.93458152322397e-14
1.86676002735819e-14
1.80135782687751e-14
1.73937001382754e-14
1.68142688633193e-14
1.62757962707185e-14
1.57809981492889e-14
1.53339953549919e-14
1.49322525078869e-14
1.4570201826552e-14
1.42466823094201e-14
1.39598266890556e-14
1.37023265294112e-14
1.34667573771159e-14
1.32476055614174e-14
1.30374211403417e-14
1.28275631343492e-14
1.26098497198747e-14
1.23753016859318e-14
1.21166428938879e-14
1.18280512277464e-14
1.15010670546822e-14
1.11285865085076e-14
1.07084666233528e-14
1.02374995073253e-14
9.7117102955381e-15
9.18345948751795e-15
8.97940065425429e-15
9.02479056373456e-15
9.03820965674744e-15
9.02543746218973e-15
8.99319640870364e-15
8.94654605030961e-15
8.89021707280174e-15
8.82787458943423e-15
8.76183998013907e-15
8.69404211008402e-15
8.62642640130944e-15
8.56126731695962e-15
8.50209576333891e-15
8.45664777635035e-15
)
;


// ************************************************************************* //
