/*--------------------------------*- C++ -*----------------------------------*\
| =========                 |                                                 |
| \\      /  F ield         | OpenFOAM: The Open Source CFD Toolbox           |
|  \\    /   O peration     | Version:  4.1                                   |
|   \\  /    A nd           | Web:      www.OpenFOAM.org                      |
|    \\/     M anipulation  |                                                 |
\*---------------------------------------------------------------------------*/
FoamFile
{
    version     2.0;
    format      ascii;
    class       pointVectorField;
    location    "0.0023";
    object      pointDisplacement;
}
// * * * * * * * * * * * * * * * * * * * * * * * * * * * * * * * * * * * * * //

dimensions      [0 1 0 0 0 0 0];

internalField   nonuniform List<vector> 
7105
(
(0 0 0)
(-1.4277e-07 -1.4036e-08 9.8843e-11)
(-2.7267e-07 -1.7477e-08 1.9487e-10)
(-3.8563e-07 -9.4214e-09 2.8345e-10)
(-4.882e-07 7.1088e-10 3.5992e-10)
(-5.9057e-07 3.3259e-09 4.2111e-10)
(-6.9873e-07 -2.3227e-09 4.6455e-10)
(-8.1372e-07 -1.074e-08 4.8805e-10)
(-9.3518e-07 -1.7764e-08 4.8977e-10)
(-1.0633e-06 -2.3035e-08 4.6851e-10)
(-1.1988e-06 -2.8121e-08 4.2461e-10)
(-1.3426e-06 -3.4917e-08 3.6102e-10)
(-1.4961e-06 -4.4878e-08 2.8321e-10)
(-1.6615e-06 -5.8272e-08 1.9835e-10)
(-1.8406e-06 -7.4477e-08 1.1444e-10)
(-2.0344e-06 -9.3984e-08 3.8962e-11)
(-2.2438e-06 -1.2036e-07 -2.222e-11)
(-2.4713e-06 -1.5982e-07 -6.5467e-11)
(-2.7229e-06 -2.1771e-07 -9.0414e-11)
(-3.0061e-06 -2.9437e-07 -1.0058e-10)
(-3.3263e-06 -3.8751e-07 -1.0115e-10)
(-3.6841e-06 -5.0281e-07 -9.6786e-11)
(-4.0779e-06 -6.6127e-07 -9.0654e-11)
(-4.51e-06 -8.9281e-07 -8.4216e-11)
(-4.9889e-06 -1.2212e-06 -7.674e-11)
(-5.5221e-06 -1.6549e-06 -6.4628e-11)
(-6.1007e-06 -2.1973e-06 -4.2549e-11)
(-6.6896e-06 -2.8763e-06 -4.2181e-12)
(-7.2369e-06 -3.7708e-06 5.9447e-11)
(-7.7005e-06 -5.0039e-06 1.6861e-10)
(-8.0666e-06 -6.6957e-06 3.4141e-10)
(-8.3343e-06 -8.8993e-06 5.7561e-10)
(-8.4772e-06 -1.1595e-05 8.6909e-10)
(-8.4113e-06 -1.4782e-05 1.2573e-09)
(-7.9975e-06 -1.8588e-05 1.7859e-09)
(-7.0889e-06 -2.3287e-05 2.4576e-09)
(-5.6007e-06 -2.9198e-05 3.2705e-09)
(-3.5613e-06 -3.648e-05 4.2272e-09)
(-1.1094e-06 -4.4951e-05 5.2802e-09)
(1.5687e-06 -5.4022e-05 6.3386e-09)
(4.3254e-06 -6.2811e-05 7.3214e-09)
(7.0833e-06 -7.036e-05 8.1754e-09)
(9.7173e-06 -7.5802e-05 8.8301e-09)
(1.1842e-05 -7.8289e-05 9.1022e-09)
(1.2795e-05 -7.6576e-05 8.6268e-09)
(1.1979e-05 -6.867e-05 7.2186e-09)
(9.2515e-06 -5.2619e-05 5.2166e-09)
(5.0084e-06 -2.8575e-05 2.8316e-09)
(0 0 0)
(0 0 0)
(-1.4037e-07 -1.1468e-08 1.5279e-09)
(-2.6939e-07 -1.4401e-08 1.9964e-09)
(-3.8338e-07 -8.054e-09 1.3081e-09)
(-4.878e-07 9.242e-11 3.8555e-10)
(-5.9152e-07 2.3089e-09 1.8321e-10)
(-7.0022e-07 -2.2621e-09 8.1077e-10)
(-8.1538e-07 -9.3925e-09 1.7428e-09)
(-9.3699e-07 -1.5637e-08 2.5412e-09)
(-1.0653e-06 -2.0534e-08 3.1402e-09)
(-1.2011e-06 -2.5324e-08 3.6959e-09)
(-1.3453e-06 -3.1608e-08 4.4149e-09)
(-1.4993e-06 -4.062e-08 5.4596e-09)
(-1.6651e-06 -5.2645e-08 6.8744e-09)
(-1.8446e-06 -6.7329e-08 8.6263e-09)
(-2.0389e-06 -8.5301e-08 1.081e-08)
(-2.249e-06 -1.097e-07 1.3835e-08)
(-2.4779e-06 -1.4577e-07 1.8355e-08)
(-2.731e-06 -1.9791e-07 2.4904e-08)
(-3.0154e-06 -2.6676e-07 3.3557e-08)
(-3.336e-06 -3.5132e-07 4.4228e-08)
(-3.6939e-06 -4.5738e-07 5.7666e-08)
(-4.0882e-06 -6.0309e-07 7.6105e-08)
(-4.5215e-06 -8.1381e-07 1.0268e-07)
(-5.0007e-06 -1.1101e-06 1.3996e-07)
(-5.5307e-06 -1.5007e-06 1.8908e-07)
(-6.1011e-06 -1.9919e-06 2.5082e-07)
(-6.679e-06 -2.6112e-06 3.2878e-07)
(-7.2165e-06 -3.4285e-06 4.3184e-07)
(-7.6742e-06 -4.5494e-06 5.7319e-07)
(-8.0353e-06 -6.0751e-06 7.6513e-07)
(-8.2924e-06 -8.0533e-06 1.0134e-06)
(-8.414e-06 -1.0476e-05 1.3174e-06)
(-8.3177e-06 -1.3353e-05 1.6785e-06)
(-7.8742e-06 -1.6799e-05 2.1104e-06)
(-6.9503e-06 -2.105e-05 2.6416e-06)
(-5.4708e-06 -2.6366e-05 3.3048e-06)
(-3.463e-06 -3.2871e-05 4.1155e-06)
(-1.0539e-06 -4.0393e-05 5.0517e-06)
(1.5839e-06 -4.8419e-05 6.049e-06)
(4.305e-06 -5.6181e-05 7.0122e-06)
(7.0105e-06 -6.2836e-05 7.8376e-06)
(9.5457e-06 -6.7595e-05 8.4288e-06)
(1.1532e-05 -6.9657e-05 8.6858e-06)
(1.237e-05 -6.7879e-05 8.4647e-06)
(1.153e-05 -6.0571e-05 7.5535e-06)
(8.8894e-06 -4.6199e-05 5.7622e-06)
(4.8132e-06 -2.5022e-05 3.1223e-06)
(0 0 0)
(0 0 0)
(-1.3874e-07 -9.3785e-09 3.1758e-09)
(-2.6718e-07 -1.1854e-08 4.1165e-09)
(-3.8184e-07 -6.8079e-09 2.617e-09)
(-4.8748e-07 -2.2113e-10 6.0789e-10)
(-5.9214e-07 1.6477e-09 1.082e-10)
(-7.0124e-07 -2.0689e-09 1.3852e-09)
(-8.1653e-07 -8.0851e-09 3.3672e-09)
(-9.3826e-07 -1.3553e-08 5.1365e-09)
(-1.0668e-06 -1.7986e-08 6.5407e-09)
(-1.2027e-06 -2.2368e-08 7.899e-09)
(-1.3472e-06 -2.8043e-08 9.6479e-09)
(-1.5015e-06 -3.6054e-08 1.2132e-08)
(-1.6677e-06 -4.6684e-08 1.5456e-08)
(-1.8474e-06 -5.9754e-08 1.9572e-08)
(-2.042e-06 -7.5941e-08 2.4716e-08)
(-2.2527e-06 -9.798e-08 3.1785e-08)
(-2.4825e-06 -1.3025e-07 4.2197e-08)
(-2.7367e-06 -1.7645e-07 5.7135e-08)
(-3.0219e-06 -2.3731e-07 7.6855e-08)
(-3.3428e-06 -3.1266e-07 1.0133e-07)
(-3.7007e-06 -4.0805e-07 1.3237e-07)
(-4.0954e-06 -5.3906e-07 1.7493e-07)
(-4.5294e-06 -7.2706e-07 2.3589e-07)
(-5.0087e-06 -9.8971e-07 3.2095e-07)
(-5.5363e-06 -1.3356e-06 4.3293e-07)
(-6.1012e-06 -1.7722e-06 5.7427e-07)
(-6.6714e-06 -2.3255e-06 7.5347e-07)
(-7.2021e-06 -3.0567e-06 9.9032e-07)
(-7.6554e-06 -4.0555e-06 1.3137e-06)
(-8.0128e-06 -5.4073e-06 1.7508e-06)
(-8.2623e-06 -7.1538e-06 2.3151e-06)
(-8.369e-06 -9.2943e-06 3.0067e-06)
(-8.2518e-06 -1.1844e-05 3.8305e-06)
(-7.7883e-06 -1.4906e-05 4.8184e-06)
(-6.8545e-06 -1.8676e-05 6.0326e-06)
(-5.3816e-06 -2.3371e-05 7.5419e-06)
(-3.396e-06 -2.9086e-05 9.3769e-06)
(-1.0169e-06 -3.5665e-05 1.1488e-05)
(1.5928e-06 -4.2664e-05 1.3731e-05)
(4.2883e-06 -4.9423e-05 1.5896e-05)
(6.9562e-06 -5.5208e-05 1.7747e-05)
(9.423e-06 -5.9319e-05 1.9061e-05)
(1.1316e-05 -6.1021e-05 1.9604e-05)
(1.2077e-05 -5.9296e-05 1.905e-05)
(1.1222e-05 -5.2719e-05 1.6942e-05)
(8.6404e-06 -4.0069e-05 1.2883e-05)
(4.678e-06 -2.1655e-05 6.9669e-06)
(0 0 0)
(0 0 0)
(-1.3779e-07 -7.6093e-09 4.7468e-09)
(-2.6587e-07 -9.6489e-09 6.1554e-09)
(-3.809e-07 -5.604e-09 3.9114e-09)
(-4.8727e-07 -2.7932e-10 8.8678e-10)
(-5.9249e-07 1.2614e-09 1.0477e-10)
(-7.0187e-07 -1.7461e-09 1.9957e-09)
(-8.1726e-07 -6.7034e-09 4.9887e-09)
(-9.3906e-07 -1.1303e-08 7.7169e-09)
(-1.0677e-06 -1.5113e-08 9.9387e-09)
(-1.2038e-06 -1.8914e-08 1.2122e-08)
(-1.3484e-06 -2.3803e-08 1.492e-08)
(-1.5029e-06 -3.0642e-08 1.8856e-08)
(-1.6693e-06 -3.969e-08 2.4097e-08)
(-1.8492e-06 -5.0856e-08 3.0602e-08)
(-2.044e-06 -6.4769e-08 3.8758e-08)
(-2.2551e-06 -8.3724e-08 4.9941e-08)
(-2.4854e-06 -1.1133e-07 6.6307e-08)
(-2.7403e-06 -1.5063e-07 8.9681e-08)
(-3.0259e-06 -2.0238e-07 1.2054e-07)
(-3.347e-06 -2.6677e-07 1.5897e-07)
(-3.705e-06 -3.4867e-07 2.0788e-07)
(-4.0999e-06 -4.6107e-07 2.7494e-07)
(-4.5344e-06 -6.2166e-07 3.7067e-07)
(-5.0135e-06 -8.4517e-07 5.0386e-07)
(-5.5396e-06 -1.1394e-06 6.7917e-07)
(-6.1009e-06 -1.5115e-06 9.0091e-07)
(-6.6664e-06 -1.9846e-06 1.1827e-06)
(-7.1929e-06 -2.6099e-06 1.5552e-06)
(-7.6433e-06 -3.4618e-06 2.0624e-06)
(-7.998e-06 -4.6111e-06 2.7464e-06)
(-8.2425e-06 -6.0933e-06 3.6285e-06)
(-8.3399e-06 -7.9106e-06 4.71e-06)
(-8.2099e-06 -1.0079e-05 6.0006e-06)
(-7.7342e-06 -1.2686e-05 7.5503e-06)
(-6.7946e-06 -1.5892e-05 9.4546e-06)
(-5.3259e-06 -1.9873e-05 1.1817e-05)
(-3.3543e-06 -2.4701e-05 1.468e-05)
(-9.9364e-07 -3.0245e-05 1.7966e-05)
(1.5983e-06 -3.6132e-05 2.1454e-05)
(4.2765e-06 -4.181e-05 2.4818e-05)
(6.9189e-06 -4.6665e-05 2.7691e-05)
(9.3424e-06 -5.0097e-05 2.972e-05)
(1.1179e-05 -5.1475e-05 3.0533e-05)
(1.1895e-05 -4.9936e-05 2.9621e-05)
(1.1032e-05 -4.4307e-05 2.629e-05)
(8.4871e-06 -3.3613e-05 1.9953e-05)
(4.5949e-06 -1.8145e-05 1.0776e-05)
(0 0 0)
(0 0 0)
(-1.3746e-07 -6.0252e-09 6.274e-09)
(-2.6542e-07 -7.6293e-09 8.1282e-09)
(-3.8057e-07 -4.3992e-09 5.1403e-09)
(-4.8716e-07 -1.5042e-10 1.1079e-09)
(-5.9259e-07 1.0896e-09 4.0105e-11)
(-7.0207e-07 -1.2869e-09 2.5339e-09)
(-8.175e-07 -5.2225e-09 6.5282e-09)
(-9.3933e-07 -8.8974e-09 1.0204e-08)
(-1.068e-06 -1.1972e-08 1.3224e-08)
(-1.2041e-06 -1.5059e-08 1.6204e-08)
(-1.3488e-06 -1.9024e-08 2.0016e-08)
(-1.5035e-06 -2.4552e-08 2.5358e-08)
(-1.6699e-06 -3.1857e-08 3.246e-08)
(-1.8498e-06 -4.0877e-08 4.1279e-08)
(-2.0447e-06 -5.2128e-08 5.2348e-08)
(-2.2559e-06 -6.7446e-08 6.7517e-08)
(-2.4864e-06 -8.9705e-08 8.9666e-08)
(-2.7415e-06 -1.2134e-07 1.2123e-07)
(-3.0273e-06 -1.6303e-07 1.6288e-07)
(-3.3484e-06 -2.1497e-07 2.1482e-07)
(-3.7064e-06 -2.8113e-07 2.8098e-07)
(-4.1015e-06 -3.7187e-07 3.7173e-07)
(-4.536e-06 -5.0129e-07 5.0116e-07)
(-5.0151e-06 -6.812e-07 6.8108e-07)
(-5.5406e-06 -9.1798e-07 9.1786e-07)
(-6.1007e-06 -1.2177e-06 1.2176e-06)
(-6.6646e-06 -1.599e-06 1.5989e-06)
(-7.1897e-06 -2.1029e-06 2.1028e-06)
(-7.6392e-06 -2.7888e-06 2.7888e-06)
(-7.9929e-06 -3.713e-06 3.713e-06)
(-8.2355e-06 -4.9044e-06 4.9044e-06)
(-8.3297e-06 -6.3654e-06 6.3655e-06)
(-8.1955e-06 -8.1098e-06 8.1099e-06)
(-7.7158e-06 -1.0206e-05 1.0206e-05)
(-6.7741e-06 -1.2783e-05 1.2783e-05)
(-5.307e-06 -1.5977e-05 1.5978e-05)
(-3.34e-06 -1.9847e-05 1.9848e-05)
(-9.8565e-07 -2.4285e-05 2.4286e-05)
(1.6002e-06 -2.8996e-05 2.8997e-05)
(4.2722e-06 -3.3536e-05 3.3538e-05)
(6.9056e-06 -3.7415e-05 3.7417e-05)
(9.3142e-06 -4.0151e-05 4.0153e-05)
(1.1132e-05 -4.1236e-05 4.1238e-05)
(1.1833e-05 -3.9982e-05 3.9983e-05)
(1.0968e-05 -3.5457e-05 3.5458e-05)
(8.4353e-06 -2.6889e-05 2.6889e-05)
(4.5668e-06 -1.4513e-05 1.4513e-05)
(0 0 0)
(0 0 0)
(-1.3774e-07 -4.4844e-09 7.8392e-09)
(-2.6579e-07 -5.6317e-09 1.0114e-08)
(-3.8081e-07 -3.1375e-09 6.3024e-09)
(-4.8718e-07 1.0936e-10 1.1875e-09)
(-5.9242e-07 1.069e-09 -1.8776e-10)
(-7.0181e-07 -6.9992e-10 2.9301e-09)
(-8.1723e-07 -3.6309e-09 7.9413e-09)
(-9.3904e-07 -6.3572e-09 1.2541e-08)
(-1.0677e-06 -8.6343e-09 1.6297e-08)
(-1.2038e-06 -1.0925e-08 1.9991e-08)
(-1.3484e-06 -1.3876e-08 2.4726e-08)
(-1.503e-06 -1.7997e-08 3.1376e-08)
(-1.6694e-06 -2.3439e-08 4.0217e-08)
(-1.8493e-06 -3.0144e-08 5.1179e-08)
(-2.0441e-06 -3.8481e-08 6.4909e-08)
(-2.2552e-06 -4.9815e-08 8.3717e-08)
(-2.4855e-06 -6.6296e-08 1.1122e-07)
(-2.7403e-06 -8.9746e-08 1.5045e-07)
(-3.026e-06 -1.2064e-07 2.0218e-07)
(-3.347e-06 -1.5909e-07 2.6656e-07)
(-3.705e-06 -2.0799e-07 3.4848e-07)
(-4.1e-06 -2.7505e-07 4.609e-07)
(-4.5344e-06 -3.7077e-07 6.2149e-07)
(-5.0136e-06 -5.0396e-07 8.45e-07)
(-5.5396e-06 -6.7926e-07 1.1392e-06)
(-6.1009e-06 -9.01e-07 1.5113e-06)
(-6.6664e-06 -1.1828e-06 1.9844e-06)
(-7.1928e-06 -1.5552e-06 2.6097e-06)
(-7.6433e-06 -2.0624e-06 3.4618e-06)
(-7.998e-06 -2.7464e-06 4.611e-06)
(-8.2424e-06 -3.6284e-06 6.0933e-06)
(-8.3398e-06 -4.71e-06 7.9107e-06)
(-8.2098e-06 -6.0004e-06 1.008e-05)
(-7.7342e-06 -7.5501e-06 1.2686e-05)
(-6.7945e-06 -9.4543e-06 1.5892e-05)
(-5.3259e-06 -1.1816e-05 1.9873e-05)
(-3.3542e-06 -1.4679e-05 2.4701e-05)
(-9.9354e-07 -1.7965e-05 3.0245e-05)
(1.5984e-06 -2.1453e-05 3.6132e-05)
(4.2766e-06 -2.4816e-05 4.1811e-05)
(6.919e-06 -2.7689e-05 4.6666e-05)
(9.3425e-06 -2.9718e-05 5.0098e-05)
(1.1179e-05 -3.0531e-05 5.1476e-05)
(1.1895e-05 -2.962e-05 4.9937e-05)
(1.1032e-05 -2.6288e-05 4.4307e-05)
(8.4871e-06 -1.9952e-05 3.3613e-05)
(4.5949e-06 -1.0776e-05 1.8145e-05)
(0 0 0)
(0 0 0)
(-1.3865e-07 -2.9052e-09 9.5843e-09)
(-2.6702e-07 -3.577e-09 1.2277e-08)
(-3.8165e-07 -1.821e-09 7.4539e-09)
(-4.873e-07 4.1528e-10 1.0698e-09)
(-5.9198e-07 1.0965e-09 -6.4191e-10)
(-7.0112e-07 -5.56e-11 3.1759e-09)
(-8.1646e-07 -1.9741e-09 9.2398e-09)
(-9.3823e-07 -3.7411e-09 1.4706e-08)
(-1.0668e-06 -5.2013e-09 1.9086e-08)
(-1.2028e-06 -6.6687e-09 2.3363e-08)
(-1.3473e-06 -8.5713e-09 2.8883e-08)
(-1.5017e-06 -1.1242e-08 3.6701e-08)
(-1.6679e-06 -1.4767e-08 4.7119e-08)
(-1.8476e-06 -1.9084e-08 5.998e-08)
(-2.0422e-06 -2.4411e-08 7.5983e-08)
(-2.2529e-06 -3.1633e-08 9.7876e-08)
(-2.4827e-06 -4.2161e-08 1.3005e-07)
(-2.7369e-06 -5.7177e-08 1.7619e-07)
(-3.022e-06 -7.6941e-08 2.3703e-07)
(-3.3429e-06 -1.0144e-07 3.124e-07)
(-3.7007e-06 -1.3247e-07 4.0781e-07)
(-4.0955e-06 -1.7502e-07 5.3883e-07)
(-4.5295e-06 -2.3597e-07 7.2684e-07)
(-5.0088e-06 -3.2102e-07 9.8948e-07)
(-5.5363e-06 -4.3301e-07 1.3354e-06)
(-6.1012e-06 -5.7434e-07 1.7719e-06)
(-6.6713e-06 -7.5354e-07 2.3253e-06)
(-7.202e-06 -9.9037e-07 3.0566e-06)
(-7.6554e-06 -1.3137e-06 4.0554e-06)
(-8.0127e-06 -1.7508e-06 5.4072e-06)
(-8.2622e-06 -2.3151e-06 7.1539e-06)
(-8.3689e-06 -3.0066e-06 9.2943e-06)
(-8.2517e-06 -3.8304e-06 1.1844e-05)
(-7.7881e-06 -4.8182e-06 1.4906e-05)
(-6.8543e-06 -6.0322e-06 1.8676e-05)
(-5.3814e-06 -7.5413e-06 2.3372e-05)
(-3.3959e-06 -9.3761e-06 2.9086e-05)
(-1.0167e-06 -1.1487e-05 3.5665e-05)
(1.5931e-06 -1.373e-05 4.2664e-05)
(4.2885e-06 -1.5894e-05 4.9423e-05)
(6.9564e-06 -1.7745e-05 5.5208e-05)
(9.4232e-06 -1.9059e-05 5.9319e-05)
(1.1316e-05 -1.9602e-05 6.1021e-05)
(1.2077e-05 -1.9049e-05 5.9297e-05)
(1.1222e-05 -1.694e-05 5.2719e-05)
(8.6404e-06 -1.2882e-05 4.0069e-05)
(4.678e-06 -6.9663e-06 2.1655e-05)
(0 0 0)
(0 0 0)
(-1.4023e-07 -1.2548e-09 1.1644e-08)
(-2.6916e-07 -1.451e-09 1.4773e-08)
(-3.831e-07 -5.0222e-10 8.6378e-09)
(-4.8753e-07 6.5102e-10 6.8633e-10)
(-5.9129e-07 1.0371e-09 -1.3834e-09)
(-7.0005e-07 5.3521e-10 3.2772e-09)
(-8.1527e-07 -3.3331e-10 1.0448e-08)
(-9.3696e-07 -1.1297e-09 1.6689e-08)
(-1.0654e-06 -1.7854e-09 2.1536e-08)
(-1.2012e-06 -2.4513e-09 2.6225e-08)
(-1.3455e-06 -3.3259e-09 3.2354e-08)
(-1.4996e-06 -4.5591e-09 4.117e-08)
(-1.6654e-06 -6.179e-09 5.2976e-08)
(-1.8449e-06 -8.1342e-09 6.7446e-08)
(-2.0392e-06 -1.0503e-08 8.5232e-08)
(-2.2494e-06 -1.3682e-08 1.0949e-07)
(-2.4782e-06 -1.8319e-08 1.4546e-07)
(-2.7313e-06 -2.4947e-08 1.9756e-07)
(-3.0156e-06 -3.3642e-08 2.6641e-07)
(-3.3362e-06 -4.4329e-08 3.5099e-07)
(-3.694e-06 -5.7764e-08 4.5708e-07)
(-4.0883e-06 -7.6194e-08 6.0281e-07)
(-4.5215e-06 -1.0275e-07 8.1354e-07)
(-5.0008e-06 -1.4003e-07 1.1098e-06)
(-5.5307e-06 -1.8915e-07 1.5005e-06)
(-6.1011e-06 -2.509e-07 1.9916e-06)
(-6.6789e-06 -3.2886e-07 2.6109e-06)
(-7.2164e-06 -4.3192e-07 3.4283e-06)
(-7.6741e-06 -5.7325e-07 4.5492e-06)
(-8.0352e-06 -7.6517e-07 6.0751e-06)
(-8.2923e-06 -1.0134e-06 8.0533e-06)
(-8.4138e-06 -1.3174e-06 1.0476e-05)
(-8.3175e-06 -1.6784e-06 1.3353e-05)
(-7.874e-06 -2.1102e-06 1.6799e-05)
(-6.9501e-06 -2.6413e-06 2.105e-05)
(-5.4706e-06 -3.3043e-06 2.6366e-05)
(-3.4628e-06 -4.1148e-06 3.287e-05)
(-1.0536e-06 -5.0508e-06 4.0393e-05)
(1.5843e-06 -6.0478e-06 4.8419e-05)
(4.3053e-06 -7.0108e-06 5.6181e-05)
(7.0108e-06 -7.8359e-06 6.2836e-05)
(9.546e-06 -8.427e-06 6.7595e-05)
(1.1532e-05 -8.684e-06 6.9657e-05)
(1.237e-05 -8.463e-06 6.7878e-05)
(1.153e-05 -7.5521e-06 6.0571e-05)
(8.8895e-06 -5.7611e-06 4.6198e-05)
(4.8132e-06 -3.1217e-06 2.5022e-05)
(0 0 0)
(0 0 0)
(-1.4259e-07 1.7564e-10 1.418e-08)
(-2.7236e-07 3.5544e-10 1.7794e-08)
(-3.8526e-07 5.3271e-10 9.9389e-09)
(-4.8785e-07 6.9175e-10 -6.2052e-12)
(-5.9028e-07 8.1703e-10 -2.486e-09)
(-6.9851e-07 8.9989e-10 3.2389e-09)
(-8.1358e-07 9.3943e-10 1.1688e-08)
(-9.3514e-07 9.3898e-10 1.871e-08)
(-1.0634e-06 9.0265e-10 2.3937e-08)
(-1.199e-06 8.3441e-10 2.8927e-08)
(-1.3428e-06 7.3897e-10 3.5571e-08)
(-1.4965e-06 6.2338e-10 4.5333e-08)
(-1.6619e-06 4.9759e-10 5.8504e-08)
(-1.841e-06 3.7283e-10 7.449e-08)
(-2.0348e-06 2.5913e-10 9.3809e-08)
(-2.2442e-06 1.6341e-10 1.2004e-07)
(-2.4717e-06 8.8856e-11 1.5942e-07)
(-2.7232e-06 3.6168e-11 2.1727e-07)
(-3.0064e-06 4.8327e-12 2.9393e-07)
(-3.3265e-06 -8.2477e-12 3.8711e-07)
(-3.6843e-06 -9.1608e-12 5.0246e-07)
(-4.078e-06 -5.5454e-12 6.6095e-07)
(-4.51e-06 -4.4603e-12 8.9249e-07)
(-4.989e-06 -1.1334e-11 1.2209e-06)
(-5.5222e-06 -3.0108e-11 1.6546e-06)
(-6.1007e-06 -6.3099e-11 2.1969e-06)
(-6.6896e-06 -1.1183e-10 2.876e-06)
(-7.2368e-06 -1.8089e-10 3.7705e-06)
(-7.7004e-06 -2.8793e-10 5.0037e-06)
(-8.0665e-06 -4.5084e-10 6.6956e-06)
(-8.3342e-06 -6.6955e-10 8.8993e-06)
(-8.477e-06 -9.4275e-10 1.1595e-05)
(-8.4111e-06 -1.2997e-09 1.4782e-05)
(-7.9972e-06 -1.7767e-09 1.8588e-05)
(-7.0886e-06 -2.3643e-09 2.3287e-05)
(-5.6004e-06 -3.0503e-09 2.9198e-05)
(-3.561e-06 -3.8395e-09 3.648e-05)
(-1.109e-06 -4.6978e-09 4.495e-05)
(1.5691e-06 -5.5581e-09 5.4022e-05)
(4.3258e-06 -6.3597e-09 6.2811e-05)
(7.0837e-06 -7.0569e-09 7.0359e-05)
(9.7176e-06 -7.5953e-09 7.5801e-05)
(1.1842e-05 -7.8254e-09 7.8289e-05)
(1.2796e-05 -7.4175e-09 7.6575e-05)
(1.1979e-05 -6.1967e-09 6.8669e-05)
(9.2515e-06 -4.4691e-09 5.2618e-05)
(5.0085e-06 -2.4287e-09 2.8575e-05)
(0 0 0)
(0 0 0)
(-1.4038e-07 -1.1483e-08 -1.3473e-09)
(-2.6941e-07 -1.443e-08 -1.6398e-09)
(-3.834e-07 -8.0932e-09 -7.8793e-10)
(-4.8782e-07 4.5835e-11 2.7755e-10)
(-5.9153e-07 2.2572e-09 5.958e-10)
(-7.0023e-07 -2.3167e-09 5.2316e-11)
(-8.1539e-07 -9.4472e-09 -8.3211e-10)
(-9.3699e-07 -1.5689e-08 -1.6239e-09)
(-1.0653e-06 -2.0583e-08 -2.2611e-09)
(-1.2011e-06 -2.537e-08 -2.8998e-09)
(-1.3453e-06 -3.1654e-08 -3.7415e-09)
(-1.4993e-06 -4.0667e-08 -4.9377e-09)
(-1.6651e-06 -5.2693e-08 -6.5181e-09)
(-1.8446e-06 -6.7378e-08 -8.4331e-09)
(-2.0389e-06 -8.535e-08 -1.0762e-08)
(-2.249e-06 -1.0975e-07 -1.3901e-08)
(-2.4779e-06 -1.4581e-07 -1.8498e-08)
(-2.731e-06 -1.9795e-07 -2.5087e-08)
(-3.0154e-06 -2.6679e-07 -3.3747e-08)
(-3.336e-06 -3.5134e-07 -4.4404e-08)
(-3.6939e-06 -4.5739e-07 -5.7816e-08)
(-4.0882e-06 -6.0309e-07 -7.6222e-08)
(-4.5215e-06 -8.1381e-07 -1.0275e-07)
(-5.0007e-06 -1.1101e-06 -1.3999e-07)
(-5.5307e-06 -1.5007e-06 -1.8904e-07)
(-6.1012e-06 -1.9919e-06 -2.5068e-07)
(-6.679e-06 -2.6112e-06 -3.2848e-07)
(-7.2165e-06 -3.4285e-06 -4.3132e-07)
(-7.6742e-06 -4.5494e-06 -5.7231e-07)
(-8.0354e-06 -6.0752e-06 -7.6375e-07)
(-8.2925e-06 -8.0534e-06 -1.0114e-06)
(-8.4141e-06 -1.0476e-05 -1.3145e-06)
(-8.3177e-06 -1.3353e-05 -1.6745e-06)
(-7.8743e-06 -1.6799e-05 -2.105e-06)
(-6.9504e-06 -2.105e-05 -2.6345e-06)
(-5.471e-06 -2.6366e-05 -3.2955e-06)
(-3.4631e-06 -3.2871e-05 -4.1036e-06)
(-1.054e-06 -4.0394e-05 -5.0371e-06)
(1.5839e-06 -4.842e-05 -6.0316e-06)
(4.305e-06 -5.6182e-05 -6.9922e-06)
(7.0105e-06 -6.2837e-05 -7.8153e-06)
(9.5458e-06 -6.7597e-05 -8.4048e-06)
(1.1532e-05 -6.9658e-05 -8.6612e-06)
(1.237e-05 -6.788e-05 -8.4414e-06)
(1.1531e-05 -6.0573e-05 -7.534e-06)
(8.8896e-06 -4.62e-05 -5.748e-06)
(4.8133e-06 -2.5023e-05 -3.1146e-06)
(0 0 0)
(0 0 0)
(-1.3702e-07 -8.1314e-09 8.1599e-11)
(-2.6483e-07 -1.0391e-08 1.6046e-10)
(-3.802e-07 -6.2242e-09 2.3357e-10)
(-4.8717e-07 -6.5442e-10 2.9819e-10)
(-5.9286e-07 9.8332e-10 3.5209e-10)
(-7.0245e-07 -2.2041e-09 3.929e-10)
(-8.1791e-07 -7.5494e-09 4.1764e-10)
(-9.3975e-07 -1.2595e-08 4.2313e-10)
(-1.0684e-06 -1.6831e-08 4.0692e-10)
(-1.2046e-06 -2.1073e-08 3.686e-10)
(-1.3494e-06 -2.6502e-08 3.1074e-10)
(-1.5041e-06 -3.4051e-08 2.3881e-10)
(-1.6706e-06 -4.4019e-08 1.6037e-10)
(-1.8507e-06 -5.6361e-08 8.3885e-11)
(-2.0456e-06 -7.1815e-08 1.7573e-11)
(-2.2571e-06 -9.2888e-08 -3.1689e-11)
(-2.4879e-06 -1.2347e-07 -5.9547e-11)
(-2.7433e-06 -1.6682e-07 -6.534e-11)
(-3.0294e-06 -2.2389e-07 -5.2165e-11)
(-3.3508e-06 -2.9512e-07 -2.4657e-11)
(-3.7089e-06 -3.8605e-07 1.4014e-11)
(-4.1041e-06 -5.1088e-07 6.4126e-11)
(-4.5389e-06 -6.8875e-07 1.2937e-10)
(-5.018e-06 -9.3577e-07 2.1571e-10)
(-5.5428e-06 -1.2608e-06 3.3083e-10)
(-6.1014e-06 -1.6728e-06 4.8548e-10)
(-6.6632e-06 -2.1977e-06 6.9695e-10)
(-7.1864e-06 -2.8917e-06 9.9251e-10)
(-7.6347e-06 -3.8356e-06 1.4079e-09)
(-7.9873e-06 -5.1061e-06 1.974e-09)
(-8.2276e-06 -6.7428e-06 2.7064e-09)
(-8.3173e-06 -8.7509e-06 3.6202e-09)
(-8.1766e-06 -1.1152e-05 4.7511e-09)
(-7.6904e-06 -1.4042e-05 6.1549e-09)
(-6.7445e-06 -1.7598e-05 7.8918e-09)
(-5.2769e-06 -2.2009e-05 1.0014e-08)
(-3.314e-06 -2.7351e-05 1.2518e-08)
(-9.6702e-07 -3.3475e-05 1.5287e-08)
(1.61e-06 -3.9973e-05 1.8111e-08)
(4.2728e-06 -4.6237e-05 2.0773e-08)
(6.8932e-06 -5.1588e-05 2.3069e-08)
(9.2798e-06 -5.5359e-05 2.4757e-08)
(1.1068e-05 -5.6833e-05 2.5378e-08)
(1.1743e-05 -5.5047e-05 2.4086e-08)
(1.0869e-05 -4.8733e-05 2.0381e-08)
(8.3524e-06 -3.6883e-05 1.4925e-08)
(4.519e-06 -1.9872e-05 8.0849e-09)
(0 0 0)
(0 0 0)
(-1.3562e-07 -6.4579e-09 1.4168e-09)
(-2.6289e-07 -8.3077e-09 1.9e-09)
(-3.788e-07 -5.0976e-09 1.3547e-09)
(-4.8683e-07 -7.2905e-10 5.6593e-10)
(-5.9339e-07 5.9827e-10 3.7751e-10)
(-7.0342e-07 -1.9248e-09 9.4371e-10)
(-8.1906e-07 -6.292e-09 1.8525e-09)
(-9.4102e-07 -1.055e-08 2.7094e-09)
(-1.0698e-06 -1.423e-08 3.4222e-09)
(-1.2062e-06 -1.7956e-08 4.1166e-09)
(-1.3513e-06 -2.268e-08 4.9871e-09)
(-1.5063e-06 -2.9169e-08 6.1947e-09)
(-1.6732e-06 -3.7703e-08 7.8054e-09)
(-1.8535e-06 -4.8329e-08 9.839e-09)
(-2.0488e-06 -6.1749e-08 1.2446e-08)
(-2.2608e-06 -8.0068e-08 1.6059e-08)
(-2.4925e-06 -1.0645e-07 2.1318e-08)
(-2.749e-06 -1.4357e-07 2.8764e-08)
(-3.0358e-06 -1.924e-07 3.8589e-08)
(-3.3575e-06 -2.5373e-07 5.0954e-08)
(-3.7158e-06 -3.3255e-07 6.6854e-08)
(-4.1114e-06 -4.4068e-07 8.8643e-08)
(-4.5467e-06 -5.9385e-07 1.1947e-07)
(-5.0256e-06 -8.0551e-07 1.6205e-07)
(-5.5479e-06 -1.0839e-06 2.1803e-07)
(-6.1012e-06 -1.4378e-06 2.8921e-07)
(-6.656e-06 -1.8905e-06 3.8024e-07)
(-7.1727e-06 -2.4894e-06 5.0068e-07)
(-7.6164e-06 -3.3011e-06 6.6391e-07)
(-7.9644e-06 -4.3886e-06 8.8249e-07)
(-8.1964e-06 -5.7861e-06 1.1633e-06)
(-8.2716e-06 -7.5018e-06 1.5081e-06)
(-8.1115e-06 -9.5585e-06 1.9212e-06)
(-7.6069e-06 -1.2038e-05 2.419e-06)
(-6.6517e-06 -1.5086e-05 3.03e-06)
(-5.1896e-06 -1.8852e-05 3.7842e-06)
(-3.2464e-06 -2.3392e-05 4.6929e-06)
(-9.2691e-07 -2.8576e-05 5.7302e-06)
(1.6219e-06 -3.4062e-05 6.8274e-06)
(4.2554e-06 -3.9342e-05 7.883e-06)
(6.8338e-06 -4.3842e-05 8.7823e-06)
(9.1527e-06 -4.6989e-05 9.4106e-06)
(1.0855e-05 -4.8155e-05 9.6434e-06)
(1.1461e-05 -4.652e-05 9.3168e-06)
(1.0576e-05 -4.105e-05 8.2239e-06)
(8.1147e-06 -3.0972e-05 6.2084e-06)
(4.3894e-06 -1.6655e-05 3.3413e-06)
(0 0 0)
(0 0 0)
(-1.3479e-07 -5.011e-09 2.6804e-09)
(-2.6174e-07 -6.4592e-09 3.5654e-09)
(-3.7795e-07 -3.9869e-09 2.4697e-09)
(-4.8659e-07 -5.9547e-10 8.977e-10)
(-5.9369e-07 4.5836e-10 4.7996e-10)
(-7.0399e-07 -1.4975e-09 1.5404e-09)
(-8.1976e-07 -4.9502e-09 3.3091e-09)
(-9.4181e-07 -8.3822e-09 5.0258e-09)
(-1.0707e-06 -1.1405e-08 6.5006e-09)
(-1.2073e-06 -1.4488e-08 7.9712e-09)
(-1.3525e-06 -1.838e-08 9.815e-09)
(-1.5077e-06 -2.3688e-08 1.2345e-08)
(-1.6747e-06 -3.0651e-08 1.5695e-08)
(-1.8553e-06 -3.9348e-08 1.9915e-08)
(-2.0508e-06 -5.0377e-08 2.5317e-08)
(-2.2632e-06 -6.543e-08 3.276e-08)
(-2.4954e-06 -8.7011e-08 4.3504e-08)
(-2.7525e-06 -1.1725e-07 5.8622e-08)
(-3.0398e-06 -1.5701e-07 7.8546e-08)
(-3.3617e-06 -2.0714e-07 1.037e-07)
(-3.7201e-06 -2.718e-07 1.3614e-07)
(-4.116e-06 -3.6044e-07 1.806e-07)
(-4.5515e-06 -4.8556e-07 2.4332e-07)
(-5.0301e-06 -6.5799e-07 3.2973e-07)
(-5.5508e-06 -8.8468e-07 4.4332e-07)
(-6.1009e-06 -1.1735e-06 5.8803e-07)
(-6.6514e-06 -1.5436e-06 7.7347e-07)
(-7.1643e-06 -2.0334e-06 1.0188e-06)
(-7.605e-06 -2.6958e-06 1.3506e-06)
(-7.9499e-06 -3.5809e-06 1.7939e-06)
(-8.1767e-06 -4.7167e-06 2.3628e-06)
(-8.243e-06 -6.1118e-06 3.0615e-06)
(-8.0712e-06 -7.7866e-06 3.9e-06)
(-7.5556e-06 -9.8075e-06 4.9114e-06)
(-6.595e-06 -1.2289e-05 6.1526e-06)
(-5.1364e-06 -1.5348e-05 7.6819e-06)
(-3.2051e-06 -1.9026e-05 9.5197e-06)
(-9.0235e-07 -2.3216e-05 1.1613e-05)
(1.6289e-06 -2.7642e-05 1.3824e-05)
(4.2437e-06 -3.1898e-05 1.595e-05)
(6.7955e-06 -3.5521e-05 1.7759e-05)
(9.073e-06 -3.8041e-05 1.9017e-05)
(1.0724e-05 -3.8943e-05 1.9466e-05)
(1.1291e-05 -3.7562e-05 1.8777e-05)
(1.0398e-05 -3.3083e-05 1.6541e-05)
(7.9712e-06 -2.4916e-05 1.2462e-05)
(4.3112e-06 -1.3383e-05 6.6962e-06)
(0 0 0)
(0 0 0)
(-1.3451e-07 -3.6992e-09 3.9316e-09)
(-2.6134e-07 -4.7479e-09 5.2133e-09)
(-3.7764e-07 -2.8788e-09 3.5695e-09)
(-4.8649e-07 -3.2561e-10 1.2173e-09)
(-5.9376e-07 4.8353e-10 5.6776e-10)
(-7.0417e-07 -9.5887e-10 2.1181e-09)
(-8.1999e-07 -3.5337e-09 4.7463e-09)
(-9.4207e-07 -6.1137e-09 7.3256e-09)
(-1.071e-06 -8.4067e-09 9.5651e-09)
(-1.2076e-06 -1.0759e-08 1.1813e-08)
(-1.3529e-06 -1.3725e-08 1.4631e-08)
(-1.5082e-06 -1.776e-08 1.8485e-08)
(-1.6753e-06 -2.3045e-08 2.3573e-08)
(-1.8559e-06 -2.9647e-08 2.9978e-08)
(-2.0515e-06 -3.8021e-08 3.8177e-08)
(-2.264e-06 -4.944e-08 4.9452e-08)
(-2.4964e-06 -6.5775e-08 6.5683e-08)
(-2.7537e-06 -8.8628e-08 8.8471e-08)
(-3.0411e-06 -1.1867e-07 1.1849e-07)
(-3.3631e-06 -1.566e-07 1.5641e-07)
(-3.7216e-06 -2.0556e-07 2.0539e-07)
(-4.1175e-06 -2.7266e-07 2.725e-07)
(-4.5531e-06 -3.6726e-07 3.6712e-07)
(-5.0316e-06 -4.9749e-07 4.9736e-07)
(-5.5518e-06 -6.687e-07 6.6857e-07)
(-6.1007e-06 -8.8694e-07 8.8682e-07)
(-6.6499e-06 -1.1668e-06 1.1667e-06)
(-7.1614e-06 -1.5371e-06 1.5371e-06)
(-7.6011e-06 -2.0376e-06 2.0377e-06)
(-7.945e-06 -2.7058e-06 2.7059e-06)
(-8.17e-06 -3.5628e-06 3.563e-06)
(-8.2332e-06 -4.6156e-06 4.6159e-06)
(-8.0575e-06 -5.8799e-06 5.8804e-06)
(-7.5383e-06 -7.4058e-06 7.4063e-06)
(-6.576e-06 -9.2784e-06 9.2792e-06)
(-5.1185e-06 -1.1585e-05 1.1586e-05)
(-3.1911e-06 -1.4354e-05 1.4356e-05)
(-8.9405e-07 -1.7507e-05 1.7509e-05)
(1.6313e-06 -2.0836e-05 2.0838e-05)
(4.2397e-06 -2.4035e-05 2.4037e-05)
(6.7823e-06 -2.6757e-05 2.6759e-05)
(9.0458e-06 -2.8646e-05 2.8648e-05)
(1.068e-05 -2.9314e-05 2.9316e-05)
(1.1234e-05 -2.8261e-05 2.8263e-05)
(1.0339e-05 -2.4877e-05 2.4879e-05)
(7.9232e-06 -1.8726e-05 1.8728e-05)
(4.285e-06 -1.0056e-05 1.0056e-05)
(0 0 0)
(0 0 0)
(-1.3475e-07 -2.4399e-09 5.2314e-09)
(-2.6167e-07 -3.0853e-09 6.9033e-09)
(-3.7786e-07 -1.7594e-09 4.6504e-09)
(-4.8651e-07 1.7176e-11 1.4558e-09)
(-5.9361e-07 5.9768e-10 5.5734e-10)
(-7.0394e-07 -3.5201e-10 2.6168e-09)
(-8.1973e-07 -2.0654e-09 6.1197e-09)
(-9.418e-07 -3.7819e-09 9.5496e-09)
(-1.0707e-06 -5.3102e-09 1.2519e-08)
(-1.2073e-06 -6.8847e-09 1.5498e-08)
(-1.3525e-06 -8.8765e-09 1.924e-08)
(-1.5078e-06 -1.1587e-08 2.4365e-08)
(-1.6748e-06 -1.5134e-08 3.1127e-08)
(-1.8554e-06 -1.9548e-08 3.9626e-08)
(-2.0509e-06 -2.5127e-08 5.0478e-08)
(-2.2633e-06 -3.2715e-08 6.5389e-08)
(-2.4955e-06 -4.3565e-08 8.6869e-08)
(-2.7525e-06 -5.8749e-08 1.1705e-07)
(-3.0399e-06 -7.8705e-08 1.5678e-07)
(-3.3617e-06 -1.0386e-07 2.0691e-07)
(-3.7201e-06 -1.3629e-07 2.7159e-07)
(-4.116e-06 -1.8073e-07 3.6025e-07)
(-4.5515e-06 -2.4344e-07 4.8538e-07)
(-5.0301e-06 -3.2983e-07 6.5782e-07)
(-5.5509e-06 -4.4342e-07 8.8451e-07)
(-6.1009e-06 -5.8811e-07 1.1733e-06)
(-6.6514e-06 -7.7351e-07 1.5435e-06)
(-7.1643e-06 -1.0188e-06 2.0333e-06)
(-7.6049e-06 -1.3506e-06 2.6958e-06)
(-7.9499e-06 -1.7938e-06 3.581e-06)
(-8.1767e-06 -2.3625e-06 4.7169e-06)
(-8.243e-06 -3.0611e-06 6.1121e-06)
(-8.0712e-06 -3.8995e-06 7.7869e-06)
(-7.5556e-06 -4.9107e-06 9.8079e-06)
(-6.595e-06 -6.1517e-06 1.229e-05)
(-5.1363e-06 -7.6807e-06 1.5349e-05)
(-3.205e-06 -9.5182e-06 1.9027e-05)
(-9.0226e-07 -1.1611e-05 2.3217e-05)
(1.629e-06 -1.3822e-05 2.7643e-05)
(4.2438e-06 -1.5948e-05 3.19e-05)
(6.7956e-06 -1.7756e-05 3.5523e-05)
(9.0731e-06 -1.9013e-05 3.8042e-05)
(1.0724e-05 -1.9463e-05 3.8944e-05)
(1.1291e-05 -1.8775e-05 3.7563e-05)
(1.0398e-05 -1.6539e-05 3.3084e-05)
(7.9712e-06 -1.246e-05 2.4917e-05)
(4.3112e-06 -6.6951e-06 1.3383e-05)
(0 0 0)
(0 0 0)
(-1.3554e-07 -1.1723e-09 6.6622e-09)
(-2.6275e-07 -1.412e-09 8.7237e-09)
(-3.7863e-07 -6.3294e-10 5.7262e-09)
(-4.8666e-07 3.6332e-10 1.5499e-09)
(-5.9325e-07 7.1657e-10 3.7262e-10)
(-7.0331e-07 2.6248e-10 2.9933e-09)
(-8.1899e-07 -5.9017e-10 7.4063e-09)
(-9.41e-07 -1.4466e-09 1.166e-08)
(-1.0699e-06 -2.2129e-09 1.5288e-08)
(-1.2063e-06 -3.0115e-09 1.8909e-08)
(-1.3514e-06 -4.0303e-09 2.3483e-08)
(-1.5065e-06 -5.4188e-09 2.9784e-08)
(-1.6733e-06 -7.2271e-09 3.8113e-08)
(-1.8537e-06 -9.4566e-09 4.8538e-08)
(-2.049e-06 -1.2241e-08 6.178e-08)
(-2.261e-06 -1.6e-08 7.9957e-08)
(-2.4927e-06 -2.1366e-08 1.0624e-07)
(-2.7491e-06 -2.8879e-08 1.4331e-07)
(-3.036e-06 -3.8736e-08 1.9212e-07)
(-3.3576e-06 -5.1107e-08 2.5346e-07)
(-3.7159e-06 -6.6995e-08 3.323e-07)
(-4.1115e-06 -8.8766e-08 4.4045e-07)
(-4.5468e-06 -1.1957e-07 5.9363e-07)
(-5.0256e-06 -1.6214e-07 8.0529e-07)
(-5.5479e-06 -2.1811e-07 1.0836e-06)
(-6.1011e-06 -2.8927e-07 1.4376e-06)
(-6.6559e-06 -3.8027e-07 1.8903e-06)
(-7.1727e-06 -5.0067e-07 2.4892e-06)
(-7.6163e-06 -6.6383e-07 3.301e-06)
(-7.9643e-06 -8.8233e-07 4.3886e-06)
(-8.1963e-06 -1.163e-06 5.7861e-06)
(-8.2715e-06 -1.5077e-06 7.5019e-06)
(-8.1114e-06 -1.9207e-06 9.5586e-06)
(-7.6068e-06 -2.4182e-06 1.2038e-05)
(-6.6516e-06 -3.029e-06 1.5086e-05)
(-5.1895e-06 -3.7829e-06 1.8852e-05)
(-3.2462e-06 -4.6913e-06 2.3392e-05)
(-9.2673e-07 -5.7282e-06 2.8577e-05)
(1.6221e-06 -6.825e-06 3.4062e-05)
(4.2556e-06 -7.8801e-06 3.9342e-05)
(6.834e-06 -8.7792e-06 4.3843e-05)
(9.1529e-06 -9.4073e-06 4.699e-05)
(1.0855e-05 -9.64e-06 4.8156e-05)
(1.1462e-05 -9.3138e-06 4.6521e-05)
(1.0576e-05 -8.2212e-06 4.105e-05)
(8.1147e-06 -6.2064e-06 3.0972e-05)
(4.3894e-06 -3.3402e-06 1.6655e-05)
(0 0 0)
(0 0 0)
(-1.369e-07 1.6209e-10 8.3151e-09)
(-2.6462e-07 3.2745e-10 1.0771e-08)
(-3.7995e-07 4.8995e-10 6.8096e-09)
(-4.8693e-07 6.3457e-10 1.427e-09)
(-5.9265e-07 7.4613e-10 -6.725e-11)
(-7.0229e-07 8.1707e-10 3.2101e-09)
(-8.1781e-07 8.48e-10 8.5956e-09)
(-9.3972e-07 8.4312e-10 1.3636e-08)
(-1.0685e-06 8.0642e-10 1.7821e-08)
(-1.2047e-06 7.409e-10 2.196e-08)
(-1.3495e-06 6.5003e-10 2.7237e-08)
(-1.5043e-06 5.3966e-10 3.4595e-08)
(-1.6709e-06 4.1855e-10 4.4352e-08)
(-1.851e-06 2.9697e-10 5.6487e-08)
(-2.0459e-06 1.8419e-10 7.1761e-08)
(-2.2573e-06 8.6498e-11 9.2694e-08)
(-2.4882e-06 6.6431e-12 1.2318e-07)
(-2.7436e-06 -5.5063e-11 1.6649e-07)
(-3.0296e-06 -9.988e-11 2.2355e-07)
(-3.3509e-06 -1.3153e-10 2.9479e-07)
(-3.709e-06 -1.5734e-10 3.8575e-07)
(-4.1042e-06 -1.8786e-10 5.106e-07)
(-4.5389e-06 -2.3455e-10 6.8848e-07)
(-5.018e-06 -3.0689e-10 9.355e-07)
(-5.5428e-06 -4.1111e-10 1.2606e-06)
(-6.1014e-06 -5.5259e-10 1.6725e-06)
(-6.6632e-06 -7.416e-10 2.1974e-06)
(-7.1863e-06 -9.9955e-10 2.8914e-06)
(-7.6346e-06 -1.3593e-09 3.8355e-06)
(-7.9872e-06 -1.8513e-09 5.106e-06)
(-8.2274e-06 -2.493e-09 6.7428e-06)
(-8.3171e-06 -3.2986e-09 8.7509e-06)
(-8.1765e-06 -4.296e-09 1.1152e-05)
(-7.6902e-06 -5.5287e-09 1.4042e-05)
(-6.7443e-06 -7.0443e-09 1.7598e-05)
(-5.2767e-06 -8.8855e-09 2.2009e-05)
(-3.3138e-06 -1.1052e-08 2.7351e-05)
(-9.6676e-07 -1.3444e-08 3.3475e-05)