/*--------------------------------*- C++ -*----------------------------------*\
| =========                 |                                                 |
| \\      /  F ield         | foam-extend: Open Source CFD                    |
|  \\    /   O peration     | Version:     4.1-20200408                       |
|   \\  /    A nd           | Web:         http://www.foam-extend.org         |
|    \\/     M anipulation  |                                                 |
\*---------------------------------------------------------------------------*/
FoamFile
{
    version     2.0;
    format      ascii;
    class       volScalarField;
    location    "0.0245000";
    object      epsilonTrueEq;
}
// * * * * * * * * * * * * * * * * * * * * * * * * * * * * * * * * * * * * * //

dimensions      [0 0 0 0 0 0 0];

internalField   nonuniform List<scalar> 
1952
(
0.00879271
0.00880796
0.00883301
0.00886136
0.00889834
0.00893739
0.00898351
0.00902377
0.00906207
0.00908218
0.00908357
0.00904133
0.00896503
0.00882269
0.0086716
0.00878582
0.00891592
0.00893172
0.00895698
0.00898586
0.00902365
0.00906328
0.00911068
0.00915072
0.00919021
0.00920873
0.00920845
0.00916083
0.0090748
0.00890689
0.00870251
0.0089088
0.00902668
0.00904266
0.00906778
0.00909678
0.00913451
0.00917412
0.00922132
0.00926028
0.00929898
0.00931443
0.00931006
0.00925429
0.0091563
0.00897105
0.00876274
0.00901944
0.00912424
0.00914029
0.0091652
0.00919435
0.00923167
0.00927113
0.00931742
0.00935433
0.00939203
0.00940374
0.00939446
0.00933092
0.00922318
0.00902722
0.00881797
0.00911691
0.00921045
0.0092263
0.00925068
0.0092802
0.00931715
0.00935594
0.00940108
0.00943584
0.00947223
0.00948009
0.00946667
0.00939737
0.00928382
0.00908604
0.00888073
0.00920303
0.00928653
0.00930184
0.00932539
0.00935546
0.00939212
0.0094298
0.00947411
0.00950743
0.0095418
0.00954653
0.00953031
0.00945701
0.00934074
0.00914486
0.00894301
0.00927904
0.00935337
0.00936833
0.00939156
0.00942165
0.00945794
0.00949478
0.00953835
0.00957061
0.00960351
0.00960621
0.00958835
0.00951311
0.00939581
0.00920234
0.00900477
0.00934589
0.00941222
0.00942714
0.00945061
0.00948019
0.00951623
0.00955267
0.00959562
0.00962738
0.00965947
0.00966106
0.0096425
0.00956665
0.0094491
0.00925791
0.00906427
0.00940478
0.00946463
0.00947951
0.00950321
0.0095325
0.0095685
0.00960478
0.00964752
0.00967927
0.009711
0.0097123
0.00969365
0.00961788
0.00950071
0.00931195
0.00912204
0.0094572
0.00951202
0.00952691
0.0095509
0.00958013
0.00961627
0.0096526
0.00969552
0.00972761
0.00975952
0.00976104
0.00974276
0.00966751
0.00955117
0.00936511
0.00917817
0.00950454
0.00955555
0.00957058
0.00959498
0.00962431
0.0096608
0.00969743
0.00974087
0.00977363
0.00980604
0.00980819
0.0097906
0.00971621
0.00960095
0.00941721
0.00923245
0.00954799
0.00959626
0.00961148
0.00963634
0.00966588
0.00970301
0.00974011
0.00978439
0.00981803
0.00985116
0.00985425
0.00983746
0.00976428
0.00964996
0.00946807
0.00928526
0.00958864
0.0096348
0.00965028
0.00967564
0.0097055
0.00974357
0.00978127
0.00982659
0.00986131
0.00989531
0.00989956
0.00988367
0.0098118
0.0096983
0.00951808
0.00933701
0.00962712
0.00967209
0.00968797
0.00971365
0.00974361
0.0097832
0.00982171
0.0098681
0.00990408
0.00993906
0.00994458
0.00992972
0.00985909
0.00974629
0.00956771
0.00938797
0.00966438
0.00970889
0.00972522
0.00975105
0.00978098
0.00982247
0.00986194
0.00990929
0.0099468
0.00998281
0.00998969
0.00997589
0.00990648
0.00979415
0.00961688
0.00943803
0.00970112
0.00974526
0.00976196
0.00978817
0.0098188
0.00986146
0.00990197
0.0099505
0.00998954
0.0100268
0.010035
0.0100224
0.00995396
0.00984172
0.00966529
0.009487
0.00973734
0.00978127
0.00979829
0.00982508
0.00985685
0.0099002
0.00994186
0.0099918
0.0100323
0.010071
0.0100804
0.0100689
0.0100014
0.00988887
0.00971328
0.00953537
0.00977315
0.00981712
0.00983453
0.00986185
0.00989478
0.00993897
0.00998196
0.0100333
0.0100754
0.0101155
0.0101261
0.0101158
0.0100486
0.00993557
0.00976093
0.00958347
0.00980883
0.00985285
0.00987076
0.00989871
0.00993278
0.00997796
0.0100223
0.010075
0.0101189
0.0101604
0.0101722
0.0101629
0.010096
0.00998199
0.00980771
0.00963065
0.00984436
0.00988827
0.00990665
0.00993521
0.00997043
0.0100167
0.0100626
0.0101167
0.0101624
0.0102048
0.0102181
0.0102096
0.0101425
0.01003
0.0098546
0.00967728
0.00987962
0.00992353
0.00994251
0.00997175
0.0100081
0.0100556
0.0101028
0.0101584
0.010206
0.0102493
0.0102643
0.010256
0.0101889
0.0100797
0.00990214
0.00972419
0.00991471
0.00995886
0.00997831
0.0100082
0.0100457
0.0100943
0.0101431
0.0102003
0.0102496
0.0102941
0.010311
0.0103031
0.0102355
0.0101288
0.00994985
0.00977157
0.00994984
0.00999396
0.0100141
0.0100447
0.0100835
0.0101333
0.0101833
0.0102425
0.0102937
0.0103392
0.0103583
0.0103507
0.0102827
0.0101778
0.00999776
0.00981973
0.00998478
0.0100285
0.0100502
0.0100824
0.0101228
0.0101738
0.0102239
0.0102848
0.0103374
0.0103844
0.0104056
0.0103992
0.0103334
0.0102278
0.0100463
0.00986853
0.0100189
0.0100651
0.0100878
0.0101212
0.0101631
0.0102152
0.0102675
0.0103292
0.0103815
0.0104309
0.0104535
0.0104514
0.0103866
0.0102788
0.0100962
0.00991773
0.0100551
0.0101019
0.0101248
0.010159
0.010202
0.010255
0.0103111
0.0103746
0.0104276
0.0104799
0.0105029
0.0105037
0.0104384
0.0103293
0.0101459
0.00996653
0.0100916
0.0101377
0.0101614
0.0101966
0.0102408
0.0102952
0.010354
0.0104203
0.0104762
0.0105314
0.0105541
0.0105557
0.0104903
0.0103807
0.0101961
0.0100159
0.0101273
0.0101729
0.0101974
0.0102337
0.0102795
0.0103364
0.0103974
0.0104666
0.0105255
0.0105832
0.0106073
0.0106086
0.0105428
0.0104331
0.0102473
0.0100667
0.0101622
0.0102073
0.0102328
0.0102704
0.010318
0.0103777
0.010441
0.0105132
0.0105749
0.0106351
0.0106615
0.0106625
0.0105968
0.010487
0.0102999
0.010119
0.0101963
0.010241
0.0102678
0.010307
0.0103565
0.010419
0.0104848
0.0105601
0.0106246
0.0106874
0.0107159
0.0107176
0.0106529
0.0105428
0.010354
0.0101731
0.0102298
0.0102741
0.010302
0.0103429
0.0103944
0.0104599
0.0105283
0.0106065
0.010674
0.0107395
0.0107705
0.0107736
0.0107103
0.0106001
0.0104101
0.0102293
0.0102624
0.0103071
0.0103361
0.0103788
0.0104324
0.0105007
0.0105718
0.0106531
0.0107235
0.0107922
0.0108258
0.0108312
0.0107695
0.0106597
0.0104698
0.0102888
0.010295
0.010339
0.0103691
0.0104135
0.010469
0.0105401
0.0106139
0.0106984
0.010772
0.0108441
0.0108805
0.0108885
0.0108286
0.010719
0.01053
0.0103498
0.0103265
0.0103713
0.0104024
0.0104484
0.0105057
0.0105794
0.0106559
0.0107436
0.0108207
0.0108965
0.0109361
0.0109471
0.0108893
0.0107803
0.0105929
0.0104142
0.0103584
0.0104046
0.0104365
0.0104838
0.0105427
0.0106189
0.0106978
0.0107887
0.0108692
0.0109489
0.0109924
0.0110066
0.0109517
0.0108448
0.0106594
0.0104827
0.0103914
0.0104395
0.0104719
0.0105204
0.0105805
0.0106589
0.01074
0.0108338
0.0109178
0.0110014
0.011049
0.0110668
0.0110155
0.0109116
0.0107288
0.0105549
0.0104261
0.0104775
0.01051
0.0105592
0.0106199
0.0107
0.0107828
0.0108792
0.0109664
0.0110539
0.011106
0.0111278
0.0110808
0.0109806
0.0108013
0.0106313
0.0104639
0.0105202
0.0105525
0.0106017
0.0106624
0.0107434
0.010827
0.0109254
0.0110154
0.0111066
0.011163
0.0111891
0.0111469
0.0110513
0.0108768
0.0107121
0.0105068
0.0105704
0.0106016
0.0106501
0.0107097
0.0107905
0.0108739
0.0109735
0.0110653
0.0111597
0.0112202
0.0112506
0.0112142
0.011124
0.0109558
0.0107981
0.0105572
0.0106311
0.0106606
0.0107073
0.0107647
0.0108435
0.0109247
0.0110246
0.0111169
0.0112135
0.0112775
0.0113122
0.0112822
0.0111986
0.0110386
0.0108898
0.0106184
0.0107063
0.0107332
0.0107769
0.0108304
0.0109052
0.0109821
0.0110804
0.0111714
0.0112684
0.0113352
0.0113738
0.0113508
0.0112748
0.0111253
0.0109877
0.0106944
0.010801
0.0108239
0.0108634
0.0109107
0.0109793
0.0110499
0.0111431
0.01123
0.0113254
0.0113933
0.0114351
0.0114196
0.0113526
0.0112158
0.0110918
0.0107902
0.010921
0.0109387
0.010972
0.0110108
0.0110703
0.0111319
0.0112161
0.0112956
0.0113864
0.0114525
0.0114965
0.0114882
0.0114313
0.0113101
0.0112026
0.0109117
0.0110727
0.0110838
0.0111092
0.0111369
0.0111841
0.0112327
0.0113037
0.0113715
0.0114532
0.0115142
0.0115577
0.0115558
0.0115095
0.0114069
0.0113209
0.0110655
0.0112634
0.0112667
0.0112821
0.0112962
0.0113277
0.0113591
0.0114121
0.0114631
0.01153
0.0115803
0.0116199
0.0116223
0.0115859
0.0115056
0.0114484
0.0112587
0.0115008
0.0114952
0.0114989
0.0114969
0.0115095
0.0115195
0.0115494
0.0115773
0.0116229
0.0116559
0.0116857
0.0116881
0.01166
0.011605
0.0115817
0.0114989
0.0117922
0.011777
0.0117678
0.0117479
0.0117388
0.0117235
0.0117256
0.0117238
0.0117407
0.0117487
0.0117598
0.0117549
0.0117314
0.0117025
0.0117175
0.0117934
0.0121441
0.0121192
0.0120966
0.012058
0.0120256
0.0119825
0.0119527
0.0119155
0.0118961
0.0118693
0.0118507
0.0118267
0.0117983
0.0117917
0.0118516
0.0121485
0.0125609
0.012527
0.0124915
0.012435
0.0123795
0.012308
0.0122446
0.0121686
0.012107
0.0120364
0.0119764
0.0119174
0.0118672
0.0118681
0.0119739
0.0125682
0.0130437
0.0130023
0.0129558
0.0128835
0.0128073
0.0127097
0.0126143
0.0124998
0.0123951
0.0122767
0.0121691
0.0120643
0.011978
0.0119653
0.0120939
0.0130535
0.0135901
0.0135433
0.0134885
0.0134044
0.0133117
0.0131929
0.0130706
0.0129225
0.012779
0.0126159
0.0124638
0.0123138
0.0121911
0.0121535
0.0122668
0.0136017
0.0141922
0.0141426
0.0140832
0.0139922
0.0138889
0.0137556
0.0136136
0.0134392
0.0132641
0.0130621
0.0128702
0.0126754
0.012513
0.0124334
0.0124876
0.0142047
0.0148361
0.0147868
0.0147267
0.0146343
0.014527
0.0143871
0.0142335
0.0140415
0.0138423
0.0136065
0.0133763
0.0131301
0.0129122
0.0127599
0.0127125
0.0148487
0.0155023
0.0154562
0.0153994
0.0153113
0.0152069
0.0150684
0.0149121
0.0147114
0.0144963
0.0142321
0.0139645
0.0136589
0.0133688
0.0131143
0.0129327
0.0155139
0.016165
0.0161248
0.0160754
0.015997
0.0159021
0.0157731
0.0156227
0.015423
0.0152009
0.0149149
0.0146127
0.0142421
0.0138667
0.0134843
0.0131398
0.0161749
0.0167946
0.0167627
0.0167241
0.01666
0.0165807
0.0164687
0.0163326
0.0161441
0.0159247
0.0156265
0.0152962
0.0148609
0.0143941
0.0138624
0.0133264
0.0168021
0.0173588
0.0173369
0.0173116
0.0172655
0.0172069
0.0171181
0.0170038
0.0168368
0.0166307
0.0163328
0.015986
0.0154946
0.0149406
0.0142463
0.013493
0.0173631
0.0178215
0.0178103
0.0178
0.0177739
0.017739
0.0176774
0.0175901
0.0174531
0.0172702
0.0169866
0.016638
0.0161064
0.0154785
0.0146178
0.0136258
0.0178224
0.0181572
0.0181565
0.0181609
0.0181546
0.0181434
0.01811
0.0180522
0.0179491
0.0177961
0.0175404
0.0172069
0.0166621
0.0159927
0.014983
0.0137238
0.0181545
0.0183325
0.0183405
0.0183579
0.0183696
0.0183797
0.0183724
0.0183424
0.018271
0.0181463
0.0179226
0.0176067
0.0170684
0.0163788
0.0152369
0.0137216
0.0183266
0.0182735
0.0182864
0.018312
0.0183355
0.0183599
0.0183702
0.018358
0.0183052
0.0181906
0.0179761
0.0176402
0.0170759
0.0163044
0.0150103
0.0133181
0.0182655
0.0179201
0.0179307
0.0179546
0.0179765
0.0179986
0.0180072
0.0179909
0.0179306
0.0177951
0.0175503
0.0171446
0.0165028
0.0155867
0.0141963
0.012505
0.0179118
0.0172678
0.0172677
0.0172773
0.0172798
0.0172774
0.0172578
0.0172086
0.0171092
0.0169227
0.0166191
0.0161277
0.0154111
0.0144027
0.0130724
0.0115938
0.0172618
0.0163409
0.0163229
0.0163066
0.0162739
0.0162266
0.0161537
0.0160438
0.0158763
0.0156174
0.0152444
0.0146856
0.0139457
0.012964
0.0118451
0.0107186
0.0163396
0.015177
0.0151359
0.0150865
0.015009
0.0149052
0.0147637
0.0145747
0.0143188
0.013976
0.0135343
0.0129381
0.0122305
0.0113829
0.0105778
0.00987923
0.0151825
0.0138246
0.0137582
0.0136731
0.0135496
0.0133906
0.0131823
0.0129138
0.012566
0.0121406
0.011637
0.0110292
0.0103882
0.00973897
0.00929831
0.00906744
0.0138382
0.0123374
0.0122486
0.0121314
0.0119682
0.0117657
0.0115077
0.0111805
0.0107607
0.0102694
0.00971568
0.00911696
0.00856174
0.00812728
0.00802982
0.00824919
0.0123588
0.0107732
0.0106724
0.0105345
0.0103428
0.0101075
0.0098126
0.0094482
0.00899293
0.00847474
0.00790602
0.00736276
0.00696412
0.00675002
0.00686127
0.0073826
0.0107989
0.0091586
0.0090586
0.00891481
0.00870746
0.00844469
0.00811059
0.00771925
0.00729472
0.00687787
0.00644544
0.0060938
0.00590542
0.00586315
0.00602733
0.00655916
0.00918377
0.00747726
0.00739602
0.00727804
0.00710245
0.00687443
0.00658135
0.00626244
0.00597269
0.00575023
0.00554277
0.00540448
0.00533153
0.00538214
0.00557961
0.00598116
0.00749886
0.00606622
0.00601021
0.0059341
0.00582405
0.00568962
0.00552559
0.00536034
0.00519599
0.00505466
0.00493898
0.00489151
0.00489077
0.00500893
0.00525697
0.00563714
0.0060836
0.00521109
0.00516343
0.00510034
0.00501455
0.00491854
0.00481067
0.00470904
0.00459877
0.00450005
0.00443435
0.00444077
0.00450753
0.00467169
0.00494174
0.00532582
0.00522472
0.00455334
0.00451175
0.00445655
0.00438328
0.00430342
0.00421727
0.00414306
0.00407749
0.00403773
0.00403045
0.00408328
0.00419007
0.00437753
0.00464811
0.00500344
0.00456476
0.00395171
0.00392148
0.00388227
0.00383242
0.00378122
0.00372988
0.00369118
0.00366324
0.00366127
0.00369243
0.00377584
0.00390902
0.00410618
0.00436747
0.00469499
0.00396072
0.00346452
0.00344363
0.00341653
0.00338421
0.0033533
0.0033268
0.00331442
0.00331783
0.00334807
0.00340957
0.00351398
0.00366046
0.00385668
0.00410176
0.00439744
0.00347118
0.00305088
0.00303954
0.00302478
0.00300997
0.00299882
0.00299564
0.00300645
0.00303453
0.00308695
0.00316801
0.00328391
0.00343497
0.00362411
0.00385025
0.00411555
0.00305505
0.0027125
0.00270912
0.00270436
0.00270363
0.00270789
0.00272273
0.00275106
0.00279747
0.00286528
0.00295862
0.00307952
0.00322906
0.0034073
0.00361337
0.00384982
0.0027145
0.00243275
0.00243621
0.00243994
0.002451
0.00246782
0.00249692
0.00253839
0.00259761
0.00267478
0.00277429
0.00289522
0.00303926
0.00320466
0.00339085
0.00360085
0.00243279
0.00220397
0.00221284
0.00222317
0.00224326
0.00226939
0.00230879
0.00235917
0.0024265
0.0025085
0.00260984
0.00272748
0.0028636
0.00301538
0.00318257
0.00336861
0.00220241
0.00201623
0.00202923
0.00204457
0.00207135
0.0021041
0.00215051
0.0022064
0.00227811
0.00236149
0.00246148
0.00257364
0.0027005
0.00283863
0.00298806
0.00315263
0.00201339
0.00186224
0.00187817
0.00189701
0.00192829
0.0019653
0.00201588
0.0020745
0.00214765
0.00222993
0.00232641
0.00243179
0.00254879
0.00267375
0.00280686
0.00295234
0.00185844
0.00173524
0.00175305
0.00177412
0.00180811
0.00184742
0.00189994
0.00195913
0.00203157
0.002111
0.00220256
0.00230045
0.00240752
0.00252003
0.00263832
0.00276695
0.00173079
0.00162981
0.00164862
0.00167085
0.00170606
0.00174612
0.00179879
0.00185697
0.00192714
0.00200256
0.00208834
0.0021785
0.00227584
0.00237679
0.00248171
0.00259549
0.00162496
0.00154136
0.00156046
0.00158301
0.00161826
0.0016579
0.00170941
0.00176544
0.00183225
0.00190296
0.00198252
0.00206497
0.00215303
0.00224336
0.00233633
0.00243713
0.00153634
0.00146619
0.00148504
0.00150725
0.00154166
0.00158001
0.00162942
0.00168251
0.00174529
0.00181091
0.00188409
0.00195906
0.00203839
0.00211904
0.00220136
0.0022908
0.00146117
0.00140128
0.00141947
0.00144088
0.00147383
0.00151028
0.00155696
0.00160664
0.00166499
0.00172536
0.00179222
0.00186008
0.0019313
0.0020032
0.00207608
0.00215564
0.0013964
0.00134423
0.00136148
0.00138176
0.00141282
0.001447
0.00149055
0.00153656
0.00159032
0.0016455
0.00170623
0.00176741
0.00183116
0.00189519
0.00195971
0.00203069
0.00133958
0.00129312
0.00130926
0.00132821
0.00135713
0.00138882
0.00142905
0.0014713
0.00152046
0.0015706
0.00162551
0.0016805
0.00173743
0.0017944
0.00185157
0.00191509
0.00128876
0.00124647
0.00126141
0.00127892
0.00130557
0.00133469
0.00137154
0.00141008
0.00145476
0.00150011
0.00154954
0.00159884
0.00164958
0.00170027
0.00175097
0.00180805
0.00124243
0.00120312
0.00121682
0.00123285
0.00125722
0.00128378
0.00131731
0.00135226
0.00139265
0.00143351
0.00147786
0.00152198
0.00156712
0.00161223
0.00165725
0.00170873
0.00119942
0.00116219
0.00117466
0.00118924
0.00121137
0.00123544
0.00126578
0.00129733
0.00133369
0.00137039
0.00141007
0.00144949
0.00148961
0.00152978
0.00156983
0.00161649
0.00115882
0.00112302
0.0011343
0.00114748
0.00116747
0.00118919
0.00121651
0.00124488
0.0012775
0.00131039
0.00134581
0.001381
0.00141663
0.00145243
0.00148812
0.00153061
0.00111998
0.00108511
0.00109528
0.00110715
0.00112512
0.00114464
0.00116915
0.00119461
0.00122378
0.0012532
0.00128476
0.00131616
0.00134779
0.00137974
0.00141164
0.00145053
0.00108238
0.00104813
0.00105725
0.0010679
0.00108401
0.00110151
0.00112344
0.00114623
0.00117227
0.00119857
0.00122664
0.00125468
0.00128274
0.00131133
0.0013399
0.00137569
0.00104568
0.00101182
0.00101999
0.00102952
0.00104392
0.00105958
0.00107917
0.00109955
0.00112276
0.00114625
0.00117122
0.00119627
0.00122119
0.00124682
0.0012725
0.0013056
0.00100963
0.000976018
0.000983323
0.000991844
0.0010047
0.00101871
0.00103617
0.00105439
0.00107506
0.00109608
0.00111828
0.00114069
0.00116284
0.0011859
0.00120906
0.00123985
0.000974066
0.000940626
0.000947153
0.00095477
0.000966238
0.000978768
0.000994331
0.00101064
0.00102905
0.00104786
0.00106762
0.00108772
0.00110744
0.00112825
0.00114922
0.00117801
0.000938886
0.000905587
0.000911418
0.000918234
0.000928463
0.000939687
0.000953561
0.000968185
0.000984587
0.00100148
0.00101907
0.00103717
0.00105476
0.00107363
0.0010927
0.00111977
0.000904034
0.000870876
0.000876091
0.000882201
0.000891333
0.00090141
0.000913791
0.00092694
0.000941577
0.00095679
0.000972499
0.000988849
0.00100459
0.00102178
0.0010392
0.00106478
0.000869487
0.000836493
0.000841165
0.000846659
0.000854824
0.000863902
0.000874972
0.00088684
0.000899932
0.000913695
0.000927758
0.000942607
0.000956737
0.000972498
0.000988484
0.00101279
0.000835247
0.000802457
0.000806652
0.000811612
0.000818929
0.000827144
0.000837066
0.00084783
0.000859578
0.000872097
0.000884734
0.0008983
0.000911045
0.000925581
0.000940338
0.000963559
0.000801334
0.000768799
0.000772577
0.000777076
0.000783653
0.000791126
0.000800049
0.00080987
0.000820452
0.000831913
0.000843324
0.000855805
0.000867364
0.000880866
0.000894569
0.000916862
0.000767782
0.00073556
0.000738974
0.000743079
0.00074901
0.00075585
0.000763905
0.000772925
0.000782502
0.000793072
0.000803434
0.000815009
0.000825564
0.000838208
0.000851021
0.000872543
0.000734635
0.000702794
0.000705889
0.000709656
0.000715023
0.000721323
0.000728626
0.00073697
0.000745682
0.00075551
0.000764981
0.00077581
0.000785522
0.000797463
0.000809529
0.000830405
0.000701946
0.000670561
0.000673375
0.000676852
0.000681726
0.000687566
0.000694213
0.000701988
0.000709957
0.000719173
0.000727891
0.000738118
0.000747134
0.00075852
0.000769979
0.000790345
0.000669779
0.000638936
0.0006415
0.000644726
0.000649161
0.000654605
0.000660677
0.000667972
0.000675298
0.000684011
0.000692096
0.000701847
0.000710298
0.00072126
0.000732238
0.000752212
0.000638212
0.000608006
0.000610344
0.000613346
0.000617385
0.000622482
0.00062804
0.000634924
0.000641688
0.000649989
0.000657539
0.000666925
0.00067493
0.000685589
0.000696211
0.000715918
0.000607333
0.000577877
0.000580003
0.000582799
0.000586473
0.000591252
0.00059634
0.00060286
0.00060912
0.000617077
0.000624173
0.000633284
0.000640946
0.000651416
0.000661805
0.000681369
0.000577251
0.000548674
0.000550597
0.000553193
0.000556516
0.000560991
0.000565632
0.000571812
0.000577603
0.00058526
0.000591957
0.000600865
0.000608274
0.000618657
0.000628933
0.000648476
0.000548094
0.000520546
0.000522266
0.000524657
0.000527632
0.000531795
0.000535994
0.000541831
0.000547165
0.000554535
0.000560865
0.000569618
0.000576848
0.000587236
0.000597527
0.000617191
0.000520013
0.000493668
0.000495182
0.000497351
0.000499968
0.000503791
0.000507532
0.000512994
0.000517855
0.00052492
0.000530883
0.000539498
0.000546599
0.000557066
0.000567496
0.000587415
0.000493187
0.000468247
0.000469543
0.000471463
0.000473701
0.000477138
0.000480387
0.000485412
0.000489756
0.000496456
0.000502019
0.000510475
0.000517469
0.000528071
0.000538774
0.00055911
0.000467823
0.000444513
0.000445579
0.000447215
0.000449047
0.000452032
0.000454741
0.000459235
0.000462993
0.000469221
0.00047431
0.000482531
0.0004894
0.000500154
0.000511257
0.000532169
0.000444155
0.000422725
0.000423549
0.00042486
0.000426257
0.000428713
0.000430826
0.000434666
0.000437744
0.000443344
0.000447838
0.000455684
0.000462349
0.000473222
0.00048484
0.000506509
0.000422443
0.000403158
0.000403731
0.000404681
0.000405621
0.000407466
0.000408929
0.000411973
0.000414264
0.000419028
0.00042276
0.000430003
0.000436309
0.00044718
0.000459392
0.00048199
0.000402959
0.000386094
0.000386419
0.000386977
0.000387454
0.000388619
0.000389394
0.000391499
0.0003929
0.000396576
0.000399345
0.000405659
0.000411347
0.000421982
0.000434784
0.000458409
0.000385986
0.000371807
0.000371899
0.000372055
0.00037209
0.000372531
0.000372622
0.000373665
0.000374107
0.000376428
0.000378014
0.000382957
0.000387637
0.000397626
0.000410869
0.00043552
0.000371791
0.000360531
0.000360421
0.00036019
0.000359839
0.000359563
0.00035903
0.000358956
0.000358442
0.000359179
0.000359384
0.00036239
0.000365476
0.000374031
0.000387163
0.000412836
0.000360603
0.000352396
0.000352131
0.000351556
0.000350911
0.000349984
0.00034896
0.000347824
0.000346493
0.000345571
0.000344375
0.000344917
0.000345764
0.000351522
0.000363099
0.000389429
0.000352545
0.00034745
0.000347092
0.000346244
0.00034544
0.000343985
0.000342699
0.000340688
0.00033889
0.000336542
0.000334397
0.000332525
0.000331263
0.000333142
0.000341232
0.000365674
0.000347659
0.000346701
0.000346306
0.000345257
0.000344408
0.000342564
0.000341214
0.000338559
0.000336627
0.000333237
0.00033071
0.000327006
0.000324392
0.000322393
0.00032509
0.000340935
0.000346954
0.000347903
0.000347503
0.000346376
0.000345531
0.000343531
0.00034219
0.000339271
0.000337332
0.0003335
0.000330864
0.000326348
0.000323173
0.000319208
0.000318854
0.000327126
0.000348173
)
;

boundaryField
{
    wireUpstream
    {
        type            calculated;
        value           nonuniform List<scalar> 
16
(
0.000349491
0.000349114
0.000347918
0.000347139
0.000344992
0.000343761
0.000340578
0.00033877
0.000334475
0.000331896
0.000326507
0.000322949
0.000317074
0.000313885
0.000312083
0.000349774
)
;
    }
    wireDownstream
    {
        type            calculated;
        value           nonuniform List<scalar> 
16
(
0.00879094
0.00880599
0.00883073
0.00885872
0.00889513
0.00893373
0.008979
0.00901885
0.00905609
0.00907592
0.00907624
0.00903412
0.00895789
0.00882235
0.00871383
0.00878415
)
;
    }
    wireTopContact
    {
        type            calculated;
        value           nonuniform List<scalar> 
122
(
0.00869288
0.00875083
0.00880514
0.00886749
0.00892949
0.00899112
0.00905054
0.00910824
0.00916432
0.00921855
0.00927129
0.00932298
0.00937386
0.00942381
0.00947266
0.00952089
0.00956882
0.00961581
0.00966235
0.00970919
0.00975646
0.00980448
0.00985306
0.00990205
0.00995058
0.00999974
0.0100502
0.0101023
0.010156
0.0102119
0.010271
0.0103315
0.0103955
0.0104636
0.0105352
0.0106111
0.0106913
0.0107768
0.0108679
0.0109652
0.0110689
0.0111793
0.0112975
0.011425
0.0115585
0.0116951
0.0118315
0.0119585
0.0120829
0.0122634
0.0124916
0.0127197
0.0129418
0.0131497
0.0133356
0.0135011
0.0136327
0.0137232
0.0137248
0.013312
0.012465
0.0115297
0.0106438
0.00980313
0.00900023
0.00820132
0.00735766
0.00654867
0.00597525
0.0056371
0.00532833
0.00500638
0.00469795
0.00440021
0.00411807
0.00385211
0.0036029
0.00337046
0.00315431
0.00295387
0.00276834
0.00259676
0.00243829
0.00229185
0.00215659
0.00203154
0.00191585
0.00180872
0.00170931
0.00161699
0.00153103
0.00145087
0.00137596
0.0013058
0.00123999
0.00117808
0.00111978
0.00106474
0.00101269
0.000963405
0.000916651
0.000872279
0.00083008
0.000789965
0.000751768
0.00071541
0.000680793
0.000647829
0.000616475
0.000586625
0.000558254
0.000531253
0.000505553
0.000481032
0.000457497
0.000434728
0.000412337
0.000389692
0.0003672
0.000343863
0.000330129
0.00867729
)
;
    }
    front
    {
        type            wedge;
    }
    back
    {
        type            wedge;
    }
}


// ************************************************************************* //
