/*--------------------------------*- C++ -*----------------------------------*\
| =========                 |                                                 |
| \\      /  F ield         | OpenFOAM: The Open Source CFD Toolbox           |
|  \\    /   O peration     | Version:  4.1                                   |
|   \\  /    A nd           | Web:      www.OpenFOAM.org                      |
|    \\/     M anipulation  |                                                 |
\*---------------------------------------------------------------------------*/
FoamFile
{
    version     2.0;
    format      ascii;
    class       pointVectorField;
    location    "0.0072";
    object      pointDisplacement;
}
// * * * * * * * * * * * * * * * * * * * * * * * * * * * * * * * * * * * * * //

dimensions      [0 1 0 0 0 0 0];

internalField   nonuniform List<vector> 
1885
(
(3.059e-05 9.2638e-06 -1.2153e-09)
(2.858e-05 9.0268e-06 -1.1956e-09)
(2.6378e-05 7.7072e-06 -1.0474e-09)
(2.4011e-05 5.7476e-06 -8.2314e-10)
(2.1524e-05 3.6379e-06 -5.7831e-10)
(1.8982e-05 1.7967e-06 -3.5219e-10)
(1.647e-05 4.4488e-07 -1.6946e-10)
(1.4063e-05 -4.5647e-07 -3.9216e-11)
(1.1758e-05 -1.0887e-06 4.2771e-11)
(9.3956e-06 -1.5042e-06 8.2896e-11)
(6.7072e-06 -1.5198e-06 8.4984e-11)
(3.5332e-06 -9.7081e-07 5.3498e-11)
(0 0 0)
(3.0535e-05 8.1301e-06 -1.0112e-06)
(2.853e-05 7.9558e-06 -9.9036e-07)
(2.6336e-05 6.8267e-06 -8.5015e-07)
(2.3981e-05 5.1291e-06 -6.393e-07)
(2.1509e-05 3.2883e-06 -4.1087e-07)
(1.8985e-05 1.6657e-06 -2.0954e-07)
(1.6484e-05 4.5386e-07 -5.8872e-08)
(1.4071e-05 -3.6928e-07 4.3998e-08)
(1.1734e-05 -9.4033e-07 1.1565e-07)
(9.3249e-06 -1.2968e-06 1.6032e-07)
(6.6126e-06 -1.2983e-06 1.607e-07)
(3.4654e-06 -8.2425e-07 1.0204e-07)
(0 0 0)
(3.0497e-05 7.0436e-06 -2.2541e-06)
(2.8495e-05 6.9164e-06 -2.2155e-06)
(2.6306e-05 5.9585e-06 -1.9103e-06)
(2.3959e-05 4.503e-06 -1.4453e-06)
(2.1498e-05 2.9152e-06 -9.3769e-07)
(1.8986e-05 1.5046e-06 -4.8615e-07)
(1.6493e-05 4.374e-07 -1.4404e-07)
(1.4076e-05 -2.9729e-07 9.2006e-08)
(1.1717e-05 -8.0319e-07 2.552e-07)
(9.2766e-06 -1.1075e-06 3.5407e-07)
(6.5487e-06 -1.1015e-06 3.5317e-07)
(3.4198e-06 -6.9608e-07 2.2348e-07)
(0 0 0)
(3.0473e-05 5.8954e-06 -3.4883e-06)
(2.8473e-05 5.8024e-06 -3.4354e-06)
(2.6287e-05 5.0122e-06 -2.9693e-06)
(2.3945e-05 3.8023e-06 -2.2542e-06)
(2.1491e-05 2.4766e-06 -1.4699e-06)
(1.8986e-05 1.2927e-06 -7.688e-07)
(1.6499e-05 3.9011e-07 -2.3401e-07)
(1.4078e-05 -2.3574e-07 1.3698e-07)
(1.1706e-05 -6.6535e-07 3.9233e-07)
(9.2477e-06 -9.1947e-07 5.445e-07)
(6.5112e-06 -9.1216e-07 5.4151e-07)
(3.3932e-06 -5.7514e-07 3.4188e-07)
(0 0 0)
(3.0465e-05 4.7054e-06 -4.706e-06)
(2.8465e-05 4.636e-06 -4.6367e-06)
(2.628e-05 4.0092e-06 -4.0099e-06)
(2.394e-05 3.0461e-06 -3.0468e-06)
(2.1489e-05 1.9888e-06 -1.9894e-06)
(1.8987e-05 1.0424e-06 -1.043e-06)
(1.65e-05 3.1905e-07 -3.1953e-07)
(1.4079e-05 -1.8364e-07 1.8322e-07)
(1.1702e-05 -5.2874e-07 5.2839e-07)
(9.2382e-06 -7.3261e-07 7.3233e-07)
(6.499e-06 -7.2707e-07 7.2687e-07)
(3.3845e-06 -4.5839e-07 4.5828e-07)
(0 0 0)
(3.0473e-05 3.4877e-06 -5.896e-06)
(2.8473e-05 3.4347e-06 -5.8031e-06)
(2.6287e-05 2.9686e-06 -5.0129e-06)
(2.3945e-05 2.2535e-06 -3.803e-06)
(2.1491e-05 1.4693e-06 -2.4773e-06)
(1.8986e-05 7.6828e-07 -1.2932e-06)
(1.6499e-05 2.3357e-07 -3.9062e-07)
(1.4078e-05 -1.3737e-07 2.353e-07)
(1.1706e-05 -3.9265e-07 6.6497e-07)
(9.2477e-06 -5.4476e-07 9.1916e-07)
(6.5112e-06 -5.417e-07 9.1194e-07)
(3.3932e-06 -3.4197e-07 5.7502e-07)
(0 0 0)
(3.0497e-05 2.2534e-06 -7.0442e-06)
(2.8495e-05 2.2149e-06 -6.917e-06)
(2.6306e-05 1.9096e-06 -5.9592e-06)
(2.3959e-05 1.4447e-06 -4.5037e-06)
(2.1498e-05 9.3714e-07 -2.9159e-06)
(1.8986e-05 4.8567e-07 -1.5052e-06)
(1.6493e-05 1.4363e-07 -4.3791e-07)
(1.4076e-05 -9.236e-08 2.9683e-07)
(1.1717e-05 -2.555e-07 8.028e-07)
(9.2766e-06 -3.5431e-07 1.1072e-06)
(6.5487e-06 -3.5334e-07 1.1013e-06)
(3.4198e-06 -2.2357e-07 6.9595e-07)
(0 0 0)
(3.0536e-05 1.0106e-06 -8.1306e-06)
(2.853e-05 9.8975e-07 -7.9564e-06)
(2.6336e-05 8.4956e-07 -6.8274e-06)
(2.3981e-05 6.3875e-07 -5.1298e-06)
(2.1509e-05 4.1037e-07 -3.2889e-06)
(1.8985e-05 2.091e-07 -1.6663e-06)
(1.6484e-05 5.849e-08 -4.5437e-07)
(1.4071e-05 -4.4327e-08 3.6884e-07)
(1.1734e-05 -1.1593e-07 9.3994e-07)
(9.3249e-06 -1.6055e-07 1.2965e-06)
(6.6126e-06 -1.6086e-07 1.298e-06)
(3.4655e-06 -1.0213e-07 8.2412e-07)
(0 0 0)
(3.0591e-05 6.9734e-10 -9.2643e-06)
(2.858e-05 6.7305e-10 -9.0275e-06)
(2.6378e-05 5.392e-10 -7.7079e-06)
(2.4011e-05 3.4298e-10 -5.7483e-06)
(2.1524e-05 1.3627e-10 -3.6385e-06)
(1.8982e-05 -4.5679e-11 -1.7973e-06)
(1.647e-05 -1.8353e-10 -4.4536e-07)
(1.4063e-05 -2.7238e-10 4.5606e-07)
(1.1758e-05 -3.1528e-10 1.0884e-06)
(9.3956e-06 -3.1075e-10 1.5039e-06)
(6.7072e-06 -2.5315e-10 1.5196e-06)
(3.5332e-06 -1.437e-10 9.7069e-07)
(0 0 0)
(3.0535e-05 8.1303e-06 1.0081e-06)
(2.853e-05 7.956e-06 9.873e-07)
(2.6336e-05 6.8269e-06 8.4746e-07)
(2.3981e-05 5.1293e-06 6.3719e-07)
(2.1509e-05 3.2884e-06 4.0939e-07)
(1.8985e-05 1.6658e-06 2.0866e-07)
(1.6484e-05 4.5393e-07 5.847e-08)
(1.4071e-05 -3.6922e-07 -4.4054e-08)
(1.1734e-05 -9.4027e-07 -1.1548e-07)
(9.3249e-06 -1.2968e-06 -1.6005e-07)
(6.6127e-06 -1.2983e-06 -1.6043e-07)
(3.4655e-06 -8.2425e-07 -1.0188e-07)
(0 0 0)
(3.0453e-05 6.4815e-06 -2.9363e-09)
(2.8456e-05 6.3875e-06 -2.9257e-09)
(2.6274e-05 5.5263e-06 -2.5764e-09)
(2.3937e-05 4.2022e-06 -2.0165e-09)
(2.1488e-05 2.7479e-06 -1.3858e-09)
(1.8988e-05 1.4444e-06 -8.0093e-10)
(1.6504e-05 4.4502e-07 -3.3158e-10)
(1.408e-05 -2.5188e-07 6.5661e-12)
(1.1696e-05 -7.2788e-07 2.2813e-10)
(9.2227e-06 -1.0035e-06 3.4033e-10)
(6.4788e-06 -9.9101e-07 3.3351e-10)
(3.3701e-06 -6.2297e-07 2.0704e-10)
(0 0 0)
(3.0415e-05 5.4376e-06 -1.085e-06)
(2.8422e-05 5.3763e-06 -1.0734e-06)
(2.6246e-05 4.6687e-06 -9.3267e-07)
(2.3917e-05 3.5688e-06 -7.1347e-07)
(2.1479e-05 2.3535e-06 -4.7106e-07)
(1.8989e-05 1.2561e-06 -2.5201e-07)
(1.651e-05 4.0544e-07 -8.2137e-08)
(1.4082e-05 -1.9378e-07 3.7633e-08)
(1.1677e-05 -6.0083e-07 1.1925e-07)
(9.1781e-06 -8.2996e-07 1.6557e-07)
(6.4221e-06 -8.1551e-07 1.6314e-07)
(3.3303e-06 -5.1061e-07 1.023e-07)
(0 0 0)
(3.0392e-05 4.3669e-06 -2.1784e-06)
(2.8401e-05 4.3267e-06 -2.1592e-06)
(2.6229e-05 3.7661e-06 -1.8801e-06)
(2.3904e-05 2.8883e-06 -1.4425e-06)
(2.1473e-05 1.9145e-06 -9.568e-07)
(1.899e-05 1.0311e-06 -5.1595e-07)
(1.6514e-05 3.419e-07 -1.7194e-07)
(1.4082e-05 -1.4638e-07 7.1859e-08)
(1.1666e-05 -4.7725e-07 2.3737e-07)
(9.1514e-06 -6.6087e-07 3.2973e-07)
(6.3888e-06 -6.4791e-07 3.2385e-07)
(3.3069e-06 -4.0484e-07 2.0255e-07)
(0 0 0)
(3.0384e-05 3.2768e-06 -3.2775e-06)
(2.8394e-05 3.2494e-06 -3.2501e-06)
(2.6223e-05 2.8309e-06 -2.8317e-06)
(2.39e-05 2.1738e-06 -2.1745e-06)
(2.147e-05 1.4436e-06 -1.4442e-06)
(1.899e-05 7.8e-07 -7.8054e-07)
(1.6515e-05 2.612e-07 -2.6166e-07)
(1.4082e-05 -1.0707e-07 1.0668e-07)
(1.1662e-05 -3.5657e-07 3.5626e-07)
(9.1425e-06 -4.9472e-07 4.9448e-07)
(6.3778e-06 -4.85e-07 4.8483e-07)
(3.2992e-06 -3.0295e-07 3.0286e-07)
(0 0 0)
(3.0392e-05 2.1777e-06 -4.3675e-06)
(2.8401e-05 2.1584e-06 -4.3274e-06)
(2.6229e-05 1.8793e-06 -3.7668e-06)
(2.3904e-05 1.4418e-06 -2.889e-06)
(2.1473e-05 9.5617e-07 -1.9151e-06)
(1.899e-05 5.1541e-07 -1.0316e-06)
(1.6514e-05 1.715e-07 -3.4237e-07)
(1.4082e-05 -7.2222e-08 1.4599e-07)
(1.1666e-05 -2.3766e-07 4.7692e-07)
(9.1514e-06 -3.2995e-07 6.6061e-07)
(6.3888e-06 -3.24e-07 6.4772e-07)
(3.3069e-06 -2.0263e-07 4.0474e-07)
(0 0 0)
(3.0415e-05 1.0842e-06 -5.4381e-06)
(2.8423e-05 1.0726e-06 -5.3768e-06)
(2.6246e-05 9.319e-07 -4.6693e-06)
(2.3917e-05 7.1277e-07 -3.5695e-06)
(2.1479e-05 4.7044e-07 -2.3541e-06)
(1.8989e-05 2.515e-07 -1.2566e-06)
(1.6511e-05 8.1717e-08 -4.059e-07)
(1.4082e-05 -3.7971e-08 1.9339e-07)
(1.1677e-05 -1.1952e-07 6.0049e-07)
(9.1781e-06 -1.6578e-07 8.2969e-07)
(6.4221e-06 -1.6328e-07 8.1531e-07)
(3.3303e-06 -1.0237e-07 5.1051e-07)
(0 0 0)
(3.0453e-05 2.2207e-09 -6.4819e-06)
(2.8456e-05 2.1897e-09 -6.388e-06)
(2.6274e-05 1.868e-09 -5.5268e-06)
(2.3937e-05 1.3712e-09 -4.2028e-06)
(2.1488e-05 8.247e-10 -2.7484e-06)
(1.8989e-05 3.3104e-10 -1.4449e-06)
(1.6504e-05 -5.2262e-11 -4.4546e-07)
(1.408e-05 -3.1636e-10 2.515e-07)
(1.1696e-05 -4.757e-10 7.2755e-07)
(9.2227e-06 -5.3134e-10 1.0033e-06)
(6.4788e-06 -4.6618e-10 9.908e-07)
(3.3701e-06 -2.7567e-10 6.2286e-07)
(0 0 0)
(3.0536e-05 -1.0087e-06 -8.1307e-06)
(2.853e-05 -9.8788e-07 -7.9565e-06)
(2.6336e-05 -8.4802e-07 -6.8275e-06)
(2.3981e-05 -6.3771e-07 -5.1298e-06)
(2.1509e-05 -4.0986e-07 -3.2889e-06)
(1.8985e-05 -2.0906e-07 -1.6662e-06)
(1.6484e-05 -5.8808e-08 -4.5433e-07)
(1.4071e-05 4.3769e-08 3.6888e-07)
(1.1734e-05 1.1524e-07 9.3997e-07)
(9.3249e-06 1.5985e-07 1.2965e-06)
(6.6127e-06 1.6029e-07 1.2981e-06)
(3.4655e-06 1.018e-07 8.2415e-07)
(0 0 0)
(3.0497e-05 7.0442e-06 2.2528e-06)
(2.8495e-05 6.9169e-06 2.2142e-06)
(2.6306e-05 5.9589e-06 1.9091e-06)
(2.3959e-05 4.5034e-06 1.4444e-06)
(2.1498e-05 2.9155e-06 9.3696e-07)
(1.8986e-05 1.5047e-06 4.8568e-07)
(1.6493e-05 4.3752e-07 1.4378e-07)
(1.4076e-05 -2.9718e-07 -9.2104e-08)
(1.1717e-05 -8.0312e-07 -2.552e-07)
(9.2766e-06 -1.1075e-06 -3.5404e-07)
(6.5488e-06 -1.1015e-06 -3.5314e-07)
(3.4199e-06 -6.961e-07 -2.2347e-07)
(0 0 0)
(3.0415e-05 5.4377e-06 1.0806e-06)
(2.8422e-05 5.3764e-06 1.069e-06)
(2.6246e-05 4.6687e-06 9.2874e-07)
(2.3917e-05 3.5689e-06 7.1036e-07)
(2.1479e-05 2.3535e-06 4.6888e-07)
(1.8989e-05 1.2561e-06 2.5072e-07)
(1.651e-05 4.0544e-07 8.1566e-08)
(1.4082e-05 -1.9377e-07 -3.7676e-08)
(1.1677e-05 -6.0081e-07 -1.1895e-07)
(9.1782e-06 -8.2996e-07 -1.6511e-07)
(6.4222e-06 -8.1553e-07 -1.6269e-07)
(3.3303e-06 -5.1063e-07 -1.0202e-07)
(0 0 0)
(3.0375e-05 4.3936e-06 -3.1626e-09)
(2.8387e-05 4.3588e-06 -3.1677e-09)
(2.6217e-05 3.7995e-06 -2.803e-09)
(2.3896e-05 2.92e-06 -2.2064e-09)
(2.1469e-05 1.9419e-06 -1.5268e-09)
(1.899e-05 1.0519e-06 -8.9075e-10)
(1.6517e-05 3.5451e-07 -3.7473e-10)
(1.4082e-05 -1.4158e-07 3.8285e-13)
(1.1657e-05 -4.7681e-07 2.4599e-10)
(9.1325e-06 -6.6038e-07 3.6882e-10)
(6.3651e-06 -6.4571e-07 3.6026e-10)
(3.2904e-06 -4.0265e-07 2.2258e-10)
(0 0 0)
(3.0351e-05 3.3227e-06 -1.1093e-06)
(2.8366e-05 3.3033e-06 -1.1031e-06)
(2.6199e-05 2.8863e-06 -9.6412e-07)
(2.3884e-05 2.2254e-06 -7.4363e-07)
(2.1463e-05 1.4874e-06 -4.9729e-07)
(1.899e-05 8.1276e-07 -2.7201e-07)
(1.652e-05 2.8073e-07 -9.4314e-08)
(1.4082e-05 -9.9839e-08 3.2819e-08)
(1.1645e-05 -3.5634e-07 1.1862e-07)
(9.1051e-06 -4.9479e-07 1.6511e-07)
(6.3315e-06 -4.8263e-07 1.6127e-07)
(3.2671e-06 -3.0029e-07 1.0041e-07)
(0 0 0)
(3.0343e-05 2.2234e-06 -2.2242e-06)
(2.8358e-05 2.2122e-06 -2.213e-06)
(2.6193e-05 1.9346e-06 -1.9354e-06)
(2.388e-05 1.4934e-06 -1.4941e-06)
(2.1461e-05 9.9987e-07 -1.0005e-06)
(1.899e-05 5.4799e-07 -5.4854e-07)
(1.6521e-05 1.9088e-07 -1.9134e-07)
(1.4082e-05 -6.5024e-08 6.466e-08)
(1.1641e-05 -2.3744e-07 2.3715e-07)
(9.0961e-06 -3.302e-07 3.2998e-07)
(6.3204e-06 -3.2197e-07 3.2182e-07)
(3.2594e-06 -2.0023e-07 2.0015e-07)
(0 0 0)
(3.0351e-05 1.1084e-06 -3.3234e-06)
(2.8366e-05 1.1022e-06 -3.304e-06)
(2.6199e-05 9.6324e-07 -2.887e-06)
(2.3884e-05 7.4283e-07 -2.2261e-06)
(2.1463e-05 4.966e-07 -1.488e-06)
(1.899e-05 2.7144e-07 -8.1329e-07)
(1.652e-05 9.3865e-08 -2.8118e-07)
(1.4082e-05 -3.3169e-08 9.9471e-08)
(1.1645e-05 -1.1888e-07 3.5604e-07)
(9.1051e-06 -1.653e-07 4.9456e-07)
(6.3315e-06 -1.614e-07 4.8247e-07)
(3.2671e-06 -1.0048e-07 3.0021e-07)
(0 0 0)
(3.0376e-05 2.2395e-09 -4.3941e-06)
(2.8387e-05 2.2103e-09 -4.3593e-06)
(2.6217e-05 1.8877e-09 -3.8001e-06)
(2.3896e-05 1.3883e-09 -2.9206e-06)
(2.1469e-05 8.3689e-10 -1.9424e-06)
(1.899e-05 3.361e-10 -1.0524e-06)
(1.6517e-05 -5.5452e-11 -3.5493e-07)
(1.4082e-05 -3.2612e-10 1.4122e-07)
(1.1657e-05 -4.8745e-10 4.765e-07)
(9.1325e-06 -5.4079e-10 6.6013e-07)
(6.3651e-06 -4.7138e-10 6.4552e-07)
(3.2904e-06 -2.7722e-10 4.0255e-07)
(0 0 0)
(3.0416e-05 -1.0814e-06 -5.438e-06)
(2.8423e-05 -1.0699e-06 -5.3767e-06)
(2.6246e-05 -9.2958e-07 -4.6691e-06)
(2.3917e-05 -7.1111e-07 -3.5693e-06)
(2.1479e-05 -4.6951e-07 -2.3539e-06)
(1.8989e-05 -2.5123e-07 -1.2565e-06)
(1.6511e-05 -8.1958e-08 -4.0582e-07)
(1.4082e-05 3.738e-08 1.9343e-07)
(1.1677e-05 1.1873e-07 6.0051e-07)
(9.1782e-06 1.6495e-07 8.2971e-07)
(6.4222e-06 1.6259e-07 8.1534e-07)
(3.3303e-06 1.0197e-07 5.1053e-07)
(0 0 0)
(3.0497e-05 -2.2534e-06 -7.0444e-06)
(2.8495e-05 -2.2149e-06 -6.9172e-06)
(2.6306e-05 -1.9097e-06 -5.9593e-06)
(2.3959e-05 -1.4449e-06 -4.5038e-06)
(2.1498e-05 -9.3744e-07 -2.9159e-06)
(1.8986e-05 -4.8607e-07 -1.5051e-06)
(1.6493e-05 -1.441e-07 -4.3784e-07)
(1.4076e-05 9.1847e-08 2.969e-07)
(1.1717e-05 2.55e-07 8.0287e-07)
(9.2767e-06 3.5388e-07 1.1073e-06)
(6.5488e-06 3.5303e-07 1.1014e-06)
(3.4199e-06 2.2341e-07 6.9601e-07)
(0 0 0)
(3.0473e-05 5.8959e-06 3.4882e-06)
(2.8472e-05 5.8029e-06 3.4353e-06)
(2.6287e-05 5.0126e-06 2.9691e-06)
(2.3945e-05 3.8026e-06 2.254e-06)
(2.1491e-05 2.4769e-06 1.4697e-06)
(1.8986e-05 1.2928e-06 7.6863e-07)
(1.6499e-05 3.9027e-07 2.3388e-07)
(1.4078e-05 -2.3559e-07 -1.3709e-07)
(1.1706e-05 -6.6521e-07 -3.9244e-07)
(9.2478e-06 -9.1938e-07 -5.4464e-07)
(6.5114e-06 -9.1212e-07 -5.4165e-07)
(3.3933e-06 -5.7513e-07 -3.4197e-07)
(0 0 0)
(3.0392e-05 4.3666e-06 2.1772e-06)
(2.8401e-05 4.3263e-06 2.1579e-06)
(2.6228e-05 3.7657e-06 1.8789e-06)
(2.3904e-05 2.888e-06 1.4415e-06)
(2.1472e-05 1.9142e-06 9.5604e-07)
(1.8989e-05 1.0309e-06 5.1543e-07)
(1.6514e-05 3.4187e-07 1.7164e-07)
(1.4082e-05 -1.4633e-07 -7.1989e-08)
(1.1666e-05 -4.7714e-07 -2.374e-07)
(9.1515e-06 -6.6076e-07 -3.2973e-07)
(6.3889e-06 -6.4783e-07 -3.2385e-07)
(3.307e-06 -4.048e-07 -2.0256e-07)
(0 0 0)
(3.0351e-05 3.3219e-06 1.1054e-06)
(2.8365e-05 3.3025e-06 1.0992e-06)
(2.6199e-05 2.8855e-06 9.6067e-07)
(2.3884e-05 2.2248e-06 7.4088e-07)
(2.1463e-05 1.487e-06 4.9535e-07)
(1.899e-05 8.1251e-07 2.7084e-07)
(1.652e-05 2.8064e-07 9.3781e-08)
(1.4082e-05 -9.9804e-08 -3.2887e-08)
(1.1645e-05 -3.5623e-07 -1.1839e-07)
(9.1052e-06 -4.9465e-07 -1.6474e-07)
(6.3316e-06 -4.825e-07 -1.609e-07)
(3.2671e-06 -3.0022e-07 -1.0019e-07)
(0 0 0)
(3.0326e-05 2.2444e-06 -1.9694e-09)
(2.8343e-05 2.236e-06 -1.9797e-09)
(2.6181e-05 1.9582e-06 -1.7617e-09)
(2.3871e-05 1.5147e-06 -1.3991e-09)
(2.1457e-05 1.0173e-06 -9.8221e-10)
(1.899e-05 5.6058e-07 -5.885e-10)
(1.6523e-05 1.9811e-07 -2.6675e-10)
(1.4081e-05 -6.2571e-08 -3.3017e-11)
(1.1632e-05 -2.3779e-07 1.1774e-10)
(9.0774e-06 -3.3097e-07 1.9204e-10)
(6.2977e-06 -3.2198e-07 1.9012e-10)
(3.2437e-06 -1.9986e-07 1.1752e-10)
(0 0 0)
(3.0317e-05 1.1301e-06 -1.131e-06)
(2.8336e-05 1.1267e-06 -1.1277e-06)
(2.6175e-05 9.8751e-07 -9.8844e-07)
(2.3867e-05 7.6465e-07 -7.6549e-07)
(2.1454e-05 5.144e-07 -5.1512e-07)
(1.899e-05 2.8419e-07 -2.8477e-07)
(1.6524e-05 1.0113e-07 -1.0159e-07)
(1.408e-05 -3.0748e-08 3.0397e-08)
(1.1627e-05 -1.1933e-07 1.1906e-07)
(9.0681e-06 -1.6622e-07 1.6604e-07)
(6.2865e-06 -1.6158e-07 1.6146e-07)
(3.2359e-06 -1.0023e-07 1.0017e-07)
(0 0 0)
(3.0326e-05 9.2008e-10 -2.2452e-06)
(2.8343e-05 8.8711e-10 -2.2368e-06)
(2.6181e-05 7.1914e-10 -1.959e-06)
(2.3871e-05 4.7347e-10 -1.5154e-06)
(2.1457e-05 2.101e-10 -1.018e-06)
(1.899e-05 -2.2532e-11 -5.6114e-07)
(1.6523e-05 -1.9723e-10 -1.9856e-07)
(1.4081e-05 -3.0838e-10 6.2222e-08)
(1.1632e-05 -3.6125e-10 2.3752e-07)
(9.0774e-06 -3.5737e-10 3.3077e-07)
(6.2977e-06 -2.9168e-10 3.2184e-07)
(3.2436e-06 -1.6548e-10 1.9979e-07)
(0 0 0)
(3.0351e-05 -1.1067e-06 -3.3223e-06)
(2.8366e-05 -1.1005e-06 -3.303e-06)
(2.6199e-05 -9.6187e-07 -2.886e-06)
(2.3884e-05 -7.4192e-07 -2.2253e-06)
(2.1463e-05 -4.9619e-07 -1.4875e-06)
(1.899e-05 -2.7148e-07 -8.1297e-07)
(1.652e-05 -9.4244e-08 -2.8104e-07)
(1.4082e-05 3.2569e-08 9.9466e-08)
(1.1645e-05 1.1818e-07 3.5594e-07)
(9.1052e-06 1.6461e-07 4.9442e-07)
(6.3316e-06 1.6084e-07 4.8233e-07)
(3.2671e-06 1.0016e-07 3.0013e-07)
(0 0 0)
(3.0392e-05 -2.1783e-06 -4.3666e-06)
(2.8402e-05 -2.1591e-06 -4.3265e-06)
(2.6229e-05 -1.88e-06 -3.7659e-06)
(2.3904e-05 -1.4425e-06 -2.8883e-06)
(2.1473e-05 -9.5682e-07 -1.9146e-06)
(1.899e-05 -5.1602e-07 -1.0313e-06)
(1.6514e-05 -1.7207e-07 -3.422e-07)
(1.4082e-05 7.17e-08 1.4602e-07)
(1.1666e-05 2.3721e-07 4.7685e-07)
(9.1515e-06 3.2961e-07 6.6051e-07)
(6.3889e-06 3.2379e-07 6.4763e-07)
(3.307e-06 2.0253e-07 4.0469e-07)
(0 0 0)
(3.0473e-05 -3.4889e-06 -5.8959e-06)
(2.8473e-05 -3.4361e-06 -5.803e-06)
(2.6287e-05 -2.9698e-06 -5.0127e-06)
(2.3945e-05 -2.2546e-06 -3.8028e-06)
(2.1492e-05 -1.4702e-06 -2.4771e-06)
(1.8986e-05 -7.6905e-07 -1.2931e-06)
(1.6499e-05 -2.342e-07 -3.9053e-07)
(1.4078e-05 1.3685e-07 2.3535e-07)
(1.1706e-05 3.9226e-07 6.6499e-07)
(9.2478e-06 5.445e-07 9.1918e-07)
(6.5114e-06 5.4156e-07 9.1196e-07)
(3.3933e-06 3.4192e-07 5.7504e-07)
(0 0 0)
(3.0464e-05 4.7056e-06 4.7055e-06)
(2.8465e-05 4.6363e-06 4.6362e-06)
(2.628e-05 4.0094e-06 4.0094e-06)
(2.394e-05 3.0463e-06 3.0464e-06)
(2.1489e-05 1.989e-06 1.9891e-06)
(1.8987e-05 1.0426e-06 1.0427e-06)
(1.65e-05 3.1921e-07 3.1939e-07)
(1.4079e-05 -1.8346e-07 -1.8329e-07)
(1.1702e-05 -5.2856e-07 -5.2843e-07)
(9.2383e-06 -7.3246e-07 -7.3238e-07)
(6.4991e-06 -7.2698e-07 -7.2694e-07)
(3.3846e-06 -4.5835e-07 -4.5833e-07)
(0 0 0)
(3.0384e-05 3.2765e-06 3.2762e-06)
(2.8394e-05 3.249e-06 3.2489e-06)
(2.6223e-05 2.8306e-06 2.8305e-06)
(2.39e-05 2.1735e-06 2.1735e-06)
(2.147e-05 1.4434e-06 1.4435e-06)
(1.899e-05 7.799e-07 7.8006e-07)
(1.6515e-05 2.612e-07 2.6139e-07)
(1.4082e-05 -1.0698e-07 -1.0679e-07)
(1.1662e-05 -3.5644e-07 -3.5628e-07)
(9.1426e-06 -4.9459e-07 -4.9447e-07)
(6.3778e-06 -4.849e-07 -4.8482e-07)
(3.2993e-06 -3.029e-07 -3.0286e-07)
(0 0 0)
(3.0343e-05 2.2223e-06 2.2219e-06)
(2.8358e-05 2.2111e-06 2.2108e-06)
(2.6193e-05 1.9336e-06 1.9334e-06)
(2.388e-05 1.4925e-06 1.4925e-06)
(2.1461e-05 9.9931e-07 9.9936e-07)
(1.899e-05 5.4768e-07 5.4781e-07)
(1.6521e-05 1.9078e-07 1.9097e-07)
(1.4082e-05 -6.4965e-08 -6.4758e-08)
(1.1641e-05 -2.3727e-07 -2.3708e-07)
(9.0961e-06 -3.3e-07 -3.2984e-07)
(6.3205e-06 -3.2178e-07 -3.2168e-07)
(3.2594e-06 -2.0012e-07 -2.0007e-07)
(0 0 0)
(3.0317e-05 1.1292e-06 1.1288e-06)
(2.8336e-05 1.1258e-06 1.1254e-06)
(2.6175e-05 9.8674e-07 9.8642e-07)
(2.3867e-05 7.6404e-07 7.6386e-07)
(2.1454e-05 5.1398e-07 5.1395e-07)
(1.899e-05 2.8395e-07 2.8404e-07)
(1.6524e-05 1.0105e-07 1.0122e-07)
(1.408e-05 -3.0721e-08 -3.0504e-08)
(1.1627e-05 -1.1922e-07 -1.1901e-07)
(9.0681e-06 -1.6609e-07 -1.659e-07)
(6.2865e-06 -1.6145e-07 -1.6132e-07)
(3.2359e-06 -1.0015e-07 -1.0008e-07)
(0 0 0)
(3.0308e-05 -2.2676e-10 -8.2757e-10)
(2.8328e-05 -2.639e-10 -8.3686e-10)
(2.6169e-05 -2.992e-10 -7.5357e-10)
(2.3863e-05 -3.2617e-10 -6.1066e-10)
(2.1452e-05 -3.3954e-10 -4.4381e-10)
(1.899e-05 -3.3696e-10 -2.8452e-10)
(1.6525e-05 -3.1894e-10 -1.5418e-10)
(1.408e-05 -2.8718e-10 -6.1747e-11)
(1.1623e-05 -2.4349e-10 -5.7447e-12)
(9.0588e-06 -1.8999e-10 2.075e-11)
(6.2753e-06 -1.2959e-10 2.5745e-11)
(3.2282e-06 -6.5505e-11 1.6529e-11)
(0 0 0)
(3.0317e-05 -1.13e-06 -1.1304e-06)
(2.8336e-05 -1.1266e-06 -1.1271e-06)
(2.6175e-05 -9.8759e-07 -9.8793e-07)
(2.3867e-05 -7.6488e-07 -7.6508e-07)
(2.1454e-05 -5.1479e-07 -5.1483e-07)
(1.899e-05 -2.847e-07 -2.8461e-07)
(1.6524e-05 -1.0171e-07 -1.0153e-07)
(1.408e-05 3.016e-08 3.0386e-08)
(1.1627e-05 1.1877e-07 1.19e-07)
(9.0681e-06 1.6575e-07 1.6595e-07)
(6.2865e-06 1.6124e-07 1.6138e-07)
(3.2359e-06 1.0004e-07 1.0012e-07)
(0 0 0)
(3.0343e-05 -2.2238e-06 -2.2227e-06)
(2.8358e-05 -2.2127e-06 -2.2116e-06)
(2.6193e-05 -1.9351e-06 -1.9341e-06)
(2.388e-05 -1.4939e-06 -1.4931e-06)
(2.1461e-05 -1.0005e-06 -9.9982e-07)
(1.899e-05 -5.4862e-07 -5.4813e-07)
(1.6521e-05 -1.915e-07 -1.9118e-07)
(1.4082e-05 6.4447e-08 6.4633e-08)
(1.1641e-05 2.3693e-07 2.37e-07)
(9.0961e-06 3.298e-07 3.2977e-07)
(6.3205e-06 3.2169e-07 3.2161e-07)
(3.2594e-06 2.0009e-07 2.0003e-07)
(0 0 0)
(3.0384e-05 -3.278e-06 -3.276e-06)
(2.8394e-05 -3.2506e-06 -3.2487e-06)
(2.6223e-05 -2.8321e-06 -2.8304e-06)
(2.39e-05 -2.1749e-06 -2.1735e-06)
(2.1471e-05 -1.4445e-06 -1.4435e-06)
(1.899e-05 -7.8081e-07 -7.8011e-07)
(1.6515e-05 -2.6188e-07 -2.6148e-07)
(1.4082e-05 1.065e-07 1.0667e-07)
(1.1662e-05 3.5613e-07 3.5611e-07)
(9.1426e-06 4.9442e-07 4.9427e-07)
(6.3778e-06 4.8482e-07 4.8463e-07)
(3.2993e-06 3.0288e-07 3.0275e-07)
(0 0 0)
(3.0465e-05 -4.7062e-06 -4.7053e-06)
(2.8465e-05 -4.6369e-06 -4.636e-06)
(2.628e-05 -4.0101e-06 -4.0093e-06)
(2.394e-05 -3.047e-06 -3.0463e-06)
(2.1489e-05 -1.9897e-06 -1.9891e-06)
(1.8987e-05 -1.0432e-06 -1.0427e-06)
(1.65e-05 -3.1973e-07 -3.1943e-07)
(1.4079e-05 1.8304e-07 1.8323e-07)
(1.1702e-05 5.2825e-07 5.2833e-07)
(9.2383e-06 7.3224e-07 7.3223e-07)
(6.4991e-06 7.2684e-07 7.2679e-07)
(3.3846e-06 4.5827e-07 4.5823e-07)
(0 0 0)
(3.0473e-05 3.4884e-06 5.8957e-06)
(2.8472e-05 3.4354e-06 5.8028e-06)
(2.6287e-05 2.9691e-06 5.0126e-06)
(2.3945e-05 2.2539e-06 3.8027e-06)
(2.1491e-05 1.4696e-06 2.477e-06)
(1.8986e-05 7.6849e-07 1.2931e-06)
(1.6499e-05 2.3373e-07 3.905e-07)
(1.4078e-05 -1.3722e-07 -2.3537e-07)
(1.1706e-05 -3.9254e-07 -6.6504e-07)
(9.2478e-06 -5.447e-07 -9.1926e-07)
(6.5114e-06 -5.4168e-07 -9.1206e-07)
(3.3933e-06 -3.4198e-07 -5.7511e-07)
(0 0 0)
(3.0392e-05 2.1774e-06 4.3664e-06)
(2.8401e-05 2.1581e-06 4.3262e-06)
(2.6228e-05 1.879e-06 3.7657e-06)
(2.3904e-05 1.4416e-06 2.8881e-06)
(2.1472e-05 9.5598e-07 1.9144e-06)
(1.8989e-05 5.153e-07 1.0311e-06)
(1.6514e-05 1.7148e-07 3.421e-07)
(1.4082e-05 -7.2161e-08 -1.461e-07)
(1.1666e-05 -2.3755e-07 -4.7695e-07)
(9.1515e-06 -3.2985e-07 -6.6063e-07)
(6.3889e-06 -3.2393e-07 -6.4775e-07)
(3.307e-06 -2.0259e-07 -4.0476e-07)
(0 0 0)
(3.0351e-05 1.1058e-06 3.3216e-06)
(2.8365e-05 1.0996e-06 3.3023e-06)
(2.6199e-05 9.6093e-07 2.8854e-06)
(2.3884e-05 7.4102e-07 2.2248e-06)
(2.1463e-05 4.9536e-07 1.4871e-06)
(1.899e-05 2.7074e-07 8.1269e-07)
(1.652e-05 9.3614e-08 2.8087e-07)
(1.4082e-05 -3.3084e-08 -9.9578e-08)
(1.1645e-05 -1.1857e-07 -3.5603e-07)
(9.1052e-06 -1.6489e-07 -4.945e-07)
(6.3316e-06 -1.6101e-07 -4.8241e-07)
(3.2671e-06 -1.0024e-07 -3.0017e-07)
(0 0 0)
(3.0326e-05 -1.3794e-09 2.244e-06)
(2.8343e-05 -1.4169e-09 2.2357e-06)
(2.6181e-05 -1.3163e-09 1.958e-06)
(2.3871e-05 -1.1214e-09 1.5146e-06)
(2.1457e-05 -8.8165e-10 1.0174e-06)
(1.899e-05 -6.4089e-10 5.6072e-07)
(1.6523e-05 -4.277e-10 1.9831e-07)
(1.4081e-05 -2.5153e-10 -6.2346e-08)
(1.1632e-05 -1.1117e-10 -2.3758e-07)
(9.0774e-06 -9.5576e-12 -3.308e-07)
(6.2977e-06 4.2365e-11 -3.2186e-07)
(3.2437e-06 3.9786e-11 -1.998e-07)
(0 0 0)
(3.0317e-05 -1.1303e-06 1.1293e-06)
(2.8336e-05 -1.1269e-06 1.126e-06)
(2.6175e-05 -9.8786e-07 9.8693e-07)
(2.3867e-05 -7.6511e-07 7.6426e-07)
(2.1454e-05 -5.1495e-07 5.1423e-07)
(1.899e-05 -2.848e-07 2.8421e-07)
(1.6524e-05 -1.0175e-07 1.0128e-07)
(1.408e-05 3.0158e-08 -3.052e-08)
(1.1627e-05 1.188e-07 -1.1908e-07)
(9.0681e-06 1.658e-07 -1.66e-07)
(6.2865e-06 1.6128e-07 -1.6141e-07)
(3.2359e-06 1.0007e-07 -1.0013e-07)
(0 0 0)
(3.0326e-05 -2.2449e-06 -1.177e-09)
(2.8343e-05 -2.2365e-06 -1.1798e-09)
(2.6181e-05 -1.9588e-06 -1.0462e-09)
(2.3871e-05 -1.5153e-06 -8.2823e-10)
(2.1457e-05 -1.018e-06 -5.8193e-10)
(1.899e-05 -5.6127e-07 -3.5501e-10)
(1.6523e-05 -1.9877e-07 -1.7639e-10)
(1.4081e-05 6.1977e-08 -5.2736e-11)
(1.1632e-05 2.3729e-07 2.4193e-11)
(9.0774e-06 3.3057e-07 6.3871e-11)
(6.2977e-06 3.2171e-07 6.9806e-11)
(3.2437e-06 1.9972e-07 4.4847e-11)
(0 0 0)
(3.0351e-05 -3.3232e-06 -1.1082e-06)
(2.8366e-05 -3.3039e-06 -1.1021e-06)
(2.6199e-05 -2.8869e-06 -9.632e-07)
(2.3884e-05 -2.2261e-06 -7.429e-07)
(2.1463e-05 -1.4881e-06 -4.9678e-07)
(1.899e-05 -8.1347e-07 -2.717e-07)
(1.652e-05 -2.814e-07 -9.4194e-08)
(1.4082e-05 9.9226e-08 3.2798e-08)
(1.1645e-05 3.5581e-07 1.185e-07)
(9.1052e-06 4.9438e-07 1.6495e-07)
(6.3316e-06 4.8235e-07 1.6112e-07)
(3.2671e-06 3.0015e-07 1.0032e-07)
(0 0 0)
(3.0392e-05 -4.3676e-06 -2.1774e-06)
(2.8401e-05 -4.3275e-06 -2.1582e-06)
(2.6229e-05 -3.7669e-06 -1.8792e-06)
(2.3904e-05 -2.8892e-06 -1.4418e-06)
(2.1473e-05 -1.9153e-06 -9.563e-07)
(1.899e-05 -1.0318e-06 -5.1565e-07)
(1.6514e-05 -3.4261e-07 -1.7182e-07)
(1.4082e-05 1.4575e-07 7.1843e-08)
(1.1666e-05 4.7671e-07 2.3726e-07)
(9.1514e-06 6.6046e-07 3.2957e-07)
(6.3888e-06 6.4764e-07 3.237e-07)
(3.3069e-06 4.047e-07 2.0246e-07)
(0 0 0)
(3.0473e-05 -5.896e-06 -3.4877e-06)
(2.8473e-05 -5.8031e-06 -3.4348e-06)
(2.6287e-05 -5.0129e-06 -2.9687e-06)
(2.3945e-05 -3.8031e-06 -2.2537e-06)
(2.1491e-05 -2.4774e-06 -1.4696e-06)
(1.8986e-05 -1.2934e-06 -7.686e-07)
(1.6499e-05 -3.9085e-07 -2.3393e-07)
(1.4078e-05 2.3507e-07 1.3697e-07)
(1.1706e-05 6.6477e-07 3.9225e-07)
(9.2478e-06 9.1901e-07 5.4439e-07)
(6.5113e-06 9.1185e-07 5.4141e-07)
(3.3932e-06 5.7498e-07 3.4182e-07)
(0 0 0)
(3.0497e-05 2.2529e-06 7.044e-06)
(2.8495e-05 2.2143e-06 6.9169e-06)
(2.6306e-05 1.9091e-06 5.959e-06)
(2.3959e-05 1.4443e-06 4.5035e-06)
(2.1498e-05 9.3686e-07 2.9157e-06)
(1.8986e-05 4.8555e-07 1.505e-06)
(1.6493e-05 1.4365e-07 4.3782e-07)
(1.4076e-05 -9.2223e-08 -2.9691e-07)
(1.1717e-05 -2.5529e-07 -8.029e-07)
(9.2767e-06 -3.5409e-07 -1.1073e-06)
(6.5488e-06 -3.5316e-07 -1.1014e-06)
(3.4199e-06 -2.2347e-07 -6.9606e-07)
(0 0 0)
(3.0415e-05 1.0808e-06 5.4376e-06)
(2.8422e-05 1.0692e-06 5.3763e-06)
(2.6246e-05 9.2888e-07 4.6688e-06)
(2.3917e-05 7.104e-07 3.569e-06)
(2.1479e-05 4.6883e-07 2.3537e-06)
(1.8989e-05 2.506e-07 1.2563e-06)
(1.651e-05 8.1409e-08 4.0572e-07)
(1.4082e-05 -3.7839e-08 -1.935e-07)
(1.1677e-05 -1.191e-07 -6.0059e-07)
(9.1782e-06 -1.6522e-07 -8.2981e-07)
(6.4223e-06 -1.6276e-07 -8.1544e-07)
(3.3304e-06 -1.0205e-07 -5.1059e-07)
(0 0 0)
(3.0375e-05 -2.7156e-09 4.3935e-06)
(2.8387e-05 -2.7468e-09 4.3587e-06)
(2.6217e-05 -2.4827e-09 3.7996e-06)
(2.3896e-05 -2.0259e-09 2.9202e-06)
(2.1469e-05 -1.4896e-09 1.9421e-06)
(1.899e-05 -9.7258e-10 1.0522e-06)
(1.6517e-05 -5.3583e-10 3.5478e-07)
(1.4082e-05 -1.9602e-10 -1.4133e-07)
(1.1657e-05 5.3266e-11 -4.766e-07)
(9.1325e-06 2.0822e-10 -6.6024e-07)
(6.3652e-06 2.481e-10 -6.4562e-07)
(3.2904e-06 1.6556e-10 -4.0261e-07)
(0 0 0)
(3.0351e-05 -1.1085e-06 3.3227e-06)
(2.8365e-05 -1.1024e-06 3.3033e-06)
(2.6199e-05 -9.635e-07 2.8864e-06)
(2.3884e-05 -7.4322e-07 2.2256e-06)
(2.1463e-05 -4.971e-07 1.4876e-06)
(1.899e-05 -2.7201e-07 8.13e-07)
(1.652e-05 -9.4463e-08 2.8099e-07)
(1.4082e-05 3.2588e-08 -9.9602e-08)
(1.1645e-05 1.1836e-07 -3.5615e-07)
(9.1052e-06 1.6488e-07 -4.9466e-07)
(6.3316e-06 1.6109e-07 -4.8255e-07)
(3.2671e-06 1.0032e-07 -3.0026e-07)
(0 0 0)
(3.0343e-05 -2.2228e-06 2.2234e-06)
(2.8358e-05 -2.2116e-06 2.2122e-06)
(2.6193e-05 -1.9342e-06 1.9347e-06)
(2.388e-05 -1.4933e-06 1.4935e-06)
(2.1461e-05 -1.0001e-06 1.0001e-06)
(1.899e-05 -5.484e-07 5.482e-07)
(1.6521e-05 -1.9145e-07 1.9111e-07)
(1.4082e-05 6.4386e-08 -6.4808e-08)
(1.1641e-05 2.368e-07 -2.3726e-07)
(9.0961e-06 3.2963e-07 -3.3008e-07)
(6.3205e-06 3.2154e-07 -3.219e-07)
(3.2594e-06 1.9999e-07 -2.002e-07)
(0 0 0)
(3.0351e-05 -3.3223e-06 1.1064e-06)
(2.8366e-05 -3.3029e-06 1.1002e-06)
(2.6199e-05 -2.8861e-06 9.6157e-07)
(2.3884e-05 -2.2254e-06 7.416e-07)
(2.1463e-05 -1.4877e-06 4.9585e-07)
(1.899e-05 -8.1322e-07 2.7113e-07)
(1.652e-05 -2.8132e-07 9.3888e-08)
(1.4082e-05 9.9191e-08 -3.2923e-08)
(1.1645e-05 3.557e-07 -1.1852e-07)
(9.1052e-06 4.9424e-07 -1.6491e-07)
(6.3316e-06 4.8222e-07 -1.6107e-07)
(3.2671e-06 3.0007e-07 -1.0029e-07)
(0 0 0)
(3.0375e-05 -4.3941e-06 -2.3027e-09)
(2.8387e-05 -4.3593e-06 -2.3006e-09)
(2.6217e-05 -3.8001e-06 -2.0246e-09)
(2.3896e-05 -2.9207e-06 -1.581e-09)
(2.1469e-05 -1.9426e-06 -1.0845e-09)
(1.899e-05 -1.0526e-06 -6.3159e-10)
(1.6517e-05 -3.5522e-07 -2.7718e-10)
(1.4082e-05 1.4093e-07 -2.9325e-11)
(1.1658e-05 4.7625e-07 1.3025e-10)
(9.1325e-06 6.5994e-07 2.1368e-10)
(6.3652e-06 6.454e-07 2.1621e-10)
(3.2904e-06 4.0249e-07 1.3612e-10)
(0 0 0)
(3.0415e-05 -5.4381e-06 -1.0842e-06)
(2.8422e-05 -5.3769e-06 -1.0727e-06)
(2.6246e-05 -4.6694e-06 -9.3199e-07)
(2.3917e-05 -3.5696e-06 -7.1293e-07)
(2.1479e-05 -2.3543e-06 -4.7067e-07)
(1.8989e-05 -1.2569e-06 -2.5179e-07)
(1.6511e-05 -4.062e-07 -8.2049e-08)
(1.4082e-05 1.9309e-07 3.7608e-08)
(1.1677e-05 6.0024e-07 1.1915e-07)
(9.1781e-06 8.2949e-07 1.6543e-07)
(6.4222e-06 8.1519e-07 1.6302e-07)
(3.3303e-06 5.1045e-07 1.0222e-07)
(0 0 0)
(3.0497e-05 -7.0441e-06 -2.2535e-06)
(2.8495e-05 -6.917e-06 -2.215e-06)
(2.6306e-05 -5.9592e-06 -1.9098e-06)
(2.3959e-05 -4.5038e-06 -1.445e-06)
(2.1498e-05 -2.916e-06 -9.3742e-07)
(1.8986e-05 -1.5054e-06 -4.8599e-07)
(1.6493e-05 -4.3819e-07 -1.4399e-07)
(1.4076e-05 2.9655e-07 9.1977e-08)
(1.1717e-05 8.0254e-07 2.5511e-07)
(9.2766e-06 1.107e-06 3.5395e-07)
(6.5487e-06 1.1011e-06 3.5306e-07)
(3.4198e-06 6.9589e-07 2.2341e-07)
(0 0 0)
(3.0535e-05 1.0082e-06 8.1301e-06)
(2.853e-05 9.8736e-07 7.956e-06)
(2.6336e-05 8.4746e-07 6.827e-06)
(2.398e-05 6.3712e-07 5.1295e-06)
(2.1509e-05 4.0928e-07 3.2887e-06)
(1.8985e-05 2.0852e-07 1.6661e-06)
(1.6484e-05 5.8327e-08 4.5429e-07)
(1.4071e-05 -4.4177e-08 -3.689e-07)
(1.1734e-05 -1.1557e-07 -9.4003e-07)
(9.325e-06 -1.601e-07 -1.2966e-06)
(6.6127e-06 -1.6044e-07 -1.2982e-06)
(3.4655e-06 -1.0188e-07 -8.2422e-07)
(0 0 0)
(3.0453e-05 -2.7216e-09 6.4814e-06)
(2.8456e-05 -2.7368e-09 6.3875e-06)
(2.6274e-05 -2.4623e-09 5.5264e-06)
(2.3937e-05 -1.9977e-09 4.2025e-06)
(2.1488e-05 -1.4551e-09 2.7482e-06)
(1.8988e-05 -9.3434e-10 1.4448e-06)
(1.6504e-05 -4.9713e-10 4.4536e-07)
(1.408e-05 -1.5862e-10 -2.5157e-07)
(1.1696e-05 8.9276e-11 -7.2764e-07)
(9.2228e-06 2.4176e-10 -1.0034e-06)
(6.4788e-06 2.7563e-10 -9.9092e-07)
(3.3702e-06 1.8168e-10 -6.2293e-07)
(0 0 0)
(3.0415e-05 -1.0846e-06 5.4376e-06)
(2.8422e-05 -1.0731e-06 5.3764e-06)
(2.6246e-05 -9.324e-07 4.6689e-06)
(2.3917e-05 -7.1333e-07 3.5691e-06)
(2.1479e-05 -4.7105e-07 2.3538e-06)
(1.8989e-05 -2.5212e-07 1.2564e-06)
(1.6511e-05 -8.2313e-08 4.0577e-07)
(1.4082e-05 3.7429e-08 -1.935e-07)
(1.1677e-05 1.1906e-07 -6.0061e-07)
(9.1782e-06 1.6542e-07 -8.2982e-07)
(6.4222e-06 1.6304e-07 -8.1544e-07)
(3.3303e-06 1.0224e-07 -5.1059e-07)
(0 0 0)
(3.0392e-05 -2.1777e-06 4.3672e-06)
(2.8401e-05 -2.1585e-06 4.3271e-06)
(2.6228e-05 -1.8795e-06 3.7665e-06)
(2.3904e-05 -1.4422e-06 2.8887e-06)
(2.1473e-05 -9.5666e-07 1.9149e-06)
(1.899e-05 -5.1599e-07 1.0314e-06)
(1.6514e-05 -1.7211e-07 3.4222e-07)
(1.4082e-05 7.1614e-08 -1.4613e-07)
(1.1666e-05 2.3711e-07 -4.7707e-07)