/*--------------------------------*- C++ -*----------------------------------*\
| =========                 |                                                 |
| \\      /  F ield         | OpenFOAM: The Open Source CFD Toolbox           |
|  \\    /   O peration     | Version:  4.1                                   |
|   \\  /    A nd           | Web:      www.OpenFOAM.org                      |
|    \\/     M anipulation  |                                                 |
\*---------------------------------------------------------------------------*/
FoamFile
{
    version     2.0;
    format      ascii;
    class       volScalarField;
    location    "0.000370";
    object      k;
}
// * * * * * * * * * * * * * * * * * * * * * * * * * * * * * * * * * * * * * //

dimensions      [0 2 -2 0 0 0 0];

internalField   nonuniform List<scalar> 
3072
(
0.39936309
0.39835196
0.39802944
0.39791087
0.39813033
0.39829857
0.39844957
0.39852889
0.39849151
0.39858843
0.39850577
0.39852732
0.39850984
0.39855156
0.39864263
0.39870962
0.39887919
0.39908843
0.39956339
0.40015422
0.40038644
0.3990827
0.39486322
0.38904667
0.40003047
0.39838801
0.39740795
0.39693594
0.39691938
0.39725686
0.39782688
0.39859102
0.39942657
0.40051785
0.40149201
0.40256217
0.40354993
0.40453499
0.40557889
0.40651147
0.40754264
0.40840943
0.40897799
0.40782208
0.40295679
0.39438732
0.38623882
0.38115079
0.39069761
0.3895009
0.38880134
0.38850677
0.38862226
0.38901347
0.38964096
0.3904365
0.39137749
0.39254683
0.39375085
0.39505755
0.39630856
0.39753493
0.39874439
0.39972847
0.40058086
0.40093481
0.40039321
0.39751525
0.39110893
0.38367582
0.38023462
0.3780621
0.38598086
0.38479046
0.38400844
0.38360149
0.38356681
0.38377862
0.38422259
0.38483734
0.38562824
0.38663057
0.38771932
0.38890139
0.39008137
0.39123455
0.39234673
0.39322441
0.39385966
0.39393726
0.39298559
0.38999524
0.38455301
0.37980118
0.37908991
0.37691938
0.38331697
0.38220785
0.3814569
0.38103613
0.38093776
0.38105551
0.38138304
0.38185826
0.38250654
0.38329938
0.38415715
0.38508947
0.3860504
0.38700115
0.3878761
0.38857203
0.38901325
0.38896912
0.38806065
0.38569583
0.38206654
0.38002573
0.3808406
0.37705474
0.38139948
0.3804233
0.37982048
0.37952999
0.37952901
0.37973306
0.38011728
0.38061561
0.38122886
0.38191274
0.38261594
0.38333452
0.38406258
0.38474767
0.38534482
0.385798
0.38603137
0.38594286
0.3853141
0.38398424
0.38254663
0.38319942
0.38462352
0.37814955
0.38011038
0.37921228
0.37877003
0.378718
0.37899379
0.37951979
0.38024124
0.38107748
0.38198929
0.38293933
0.38389087
0.38481299
0.38567107
0.3864002
0.38695116
0.38727217
0.38732606
0.38714965
0.38673213
0.38615924
0.3863695
0.38883428
0.38963604
0.37990668
0.3781293
0.3773404
0.3772149
0.37770035
0.37871692
0.38015551
0.38188201
0.38372334
0.38558203
0.38745039
0.3892968
0.3910528
0.39264247
0.39396828
0.39493106
0.39543448
0.39542256
0.39497477
0.39424485
0.39347061
0.39360086
0.39526999
0.39369024
0.38164824
0.39997769
0.39835831
0.39739119
0.39691447
0.39688519
0.39720731
0.39776092
0.39851265
0.39934134
0.4004313
0.40139896
0.40246736
0.40345373
0.40444443
0.4055077
0.40645653
0.40749383
0.40836212
0.4089258
0.40776117
0.40288995
0.39432209
0.38619062
0.38113222
0.39553558
0.39458923
0.39417529
0.39418107
0.39460131
0.39538101
0.39646974
0.39783271
0.39943697
0.40134621
0.40333796
0.40552569
0.4076821
0.40980005
0.41188348
0.41365488
0.41515618
0.41585479
0.41499617
0.41037077
0.40038814
0.38937471
0.38403668
0.37854465
0.38465306
0.38409133
0.38397351
0.38417105
0.38472208
0.38550538
0.38651073
0.38768055
0.38904367
0.39062302
0.39232987
0.39418013
0.39602481
0.39783509
0.3995159
0.40085519
0.40174875
0.40178626
0.4002935
0.39598967
0.38896338
0.38381712
0.38299112
0.37768461
0.38075513
0.38004051
0.37970342
0.37965986
0.37992049
0.38040295
0.38108375
0.38189881
0.38287609
0.38401886
0.38526024
0.38658476
0.3879319
0.38926428
0.39046624
0.39139548
0.39192314
0.39180276
0.39060358
0.38777893
0.38400054
0.38253494
0.38306164
0.37729247
0.37907846
0.37826637
0.37779047
0.37759621
0.37767223
0.37797027
0.37845664
0.37906715
0.37981267
0.38065523
0.38154343
0.38249292
0.38348925
0.38447203
0.38532629
0.38597933
0.38633663
0.38623799
0.38547985
0.38395331
0.38247548
0.3831235
0.38390266
0.37729292
0.37832657
0.37744999
0.37690916
0.37665771
0.37667732
0.37692626
0.37735926
0.37790091
0.37853651
0.37922921
0.37994103
0.38068672
0.38147223
0.38222824
0.38287833
0.3833659
0.3836306
0.38358986
0.38315117
0.38247401
0.38242636
0.38437715
0.38523319
0.37761221
0.37817435
0.37723763
0.37670767
0.37651514
0.37661823
0.37697356
0.37752041
0.37815989
0.37885103
0.37957256
0.38031136
0.38105393
0.38177063
0.38241449
0.38294678
0.38331301
0.38348989
0.38344763
0.38311034
0.38273845
0.38336432
0.38624317
0.38739517
0.37851626
0.37997067
0.37903413
0.37854938
0.37845554
0.37870655
0.37925415
0.38003039
0.38092467
0.38187552
0.38286414
0.38388184
0.3848813
0.38579108
0.3865417
0.38708689
0.38737305
0.38738884
0.38716695
0.38668855
0.38605
0.38620073
0.38864657
0.3895071
0.37986285
0.39055214
0.38940383
0.38873692
0.38844
0.3885338
0.38890566
0.38952947
0.39032895
0.39126849
0.39241708
0.39359806
0.39491735
0.39619867
0.39745983
0.39870623
0.39971265
0.40056674
0.40090509
0.40033397
0.39743292
0.39101787
0.38360102
0.38018483
0.37804199
0.38444874
0.38392911
0.383847
0.38406446
0.38462349
0.38541538
0.38644328
0.38763638
0.38900466
0.3905682
0.39226707
0.39413511
0.39600569
0.39784119
0.39953926
0.40088396
0.40177674
0.40180454
0.40029275
0.39597684
0.38895022
0.38381345
0.38299036
0.37768194
0.37855037
0.37798628
0.37776912
0.3778122
0.37813678
0.37867985
0.37942614
0.38032617
0.38139959
0.38266738
0.38409167
0.38564578
0.38723802
0.38882482
0.39026444
0.39138669
0.39204263
0.39199695
0.39083971
0.38811644
0.38458963
0.38321127
0.38323062
0.37717173
0.37791005
0.37708205
0.37652381
0.37620869
0.37614196
0.37631087
0.37670075
0.37726908
0.37802863
0.37898865
0.38010116
0.38133774
0.38266365
0.38400803
0.38523023
0.38619379
0.38676557
0.38680469
0.38609864
0.3845372
0.38286357
0.38292696
0.38304385
0.37690665
0.37794331
0.37696831
0.37622242
0.3757095
0.37543183
0.37539634
0.375598
0.3759967
0.3765848
0.37733856
0.37821153
0.37921109
0.38032909
0.38146641
0.38248482
0.38329228
0.38380256
0.38390805
0.38350197
0.3826341
0.38198647
0.38287494
0.38315336
0.37685454
0.37785195
0.37686958
0.37613459
0.37563753
0.37538269
0.37537338
0.37559056
0.37598238
0.37652093
0.37718063
0.37792791
0.3787732
0.37970259
0.38062151
0.38143423
0.38208023
0.38249357
0.38258232
0.38228616
0.38173608
0.38165067
0.38319477
0.38375717
0.37699944
0.37821461
0.37731006
0.37674389
0.37646564
0.37646138
0.37670658
0.37716326
0.37774354
0.3784055
0.37912373
0.37990006
0.38072105
0.38152928
0.38226281
0.38288386
0.38335779
0.38362448
0.38358299
0.38313479
0.3824373
0.38235527
0.384265
0.38512925
0.37757773
0.38118331
0.38014867
0.37948808
0.3791309
0.37909043
0.37930934
0.37976658
0.38036596
0.3810541
0.38180512
0.38262574
0.38348316
0.38428968
0.38498483
0.3855414
0.3859396
0.38612394
0.38598271
0.38528881
0.38388709
0.38236993
0.38297186
0.38445798
0.37809342
0.38584307
0.38469699
0.38394353
0.38352316
0.38345158
0.38364404
0.38410762
0.38474462
0.38553295
0.38650318
0.38757972
0.38880258
0.39005783
0.39128346
0.39244269
0.3933392
0.39396662
0.39401108
0.39300567
0.38996878
0.38451062
0.37977422
0.37906909
0.3769061
0.38054568
0.37986287
0.37955285
0.3795206
0.37978067
0.38026927
0.38098127
0.38183313
0.38282328
0.38395835
0.38521363
0.38658049
0.38797994
0.38936287
0.39059217
0.39152253
0.39204094
0.39189725
0.39065903
0.38780118
0.38401246
0.38255817
0.38308115
0.37729399
0.37782529
0.37701142
0.37646783
0.37616712
0.37610748
0.37627783
0.37668264
0.37727714
0.37805355
0.37902027
0.3801464
0.38139829
0.38273265
0.38408806
0.38531915
0.38628084
0.38684275
0.38686422
0.38613515
0.38455503
0.38287706
0.38295201
0.38307159
0.3769135
0.37806126
0.37701067
0.37617668
0.37555629
0.37514963
0.37497934
0.37507248
0.37540884
0.37598237
0.37679902
0.3778197
0.37901757
0.38035453
0.38171621
0.38295752
0.38395002
0.38457067
0.38472152
0.38428826
0.38329294
0.38235959
0.38276568
0.38269574
0.37674797
0.37812398
0.37700251
0.37608066
0.37535818
0.37484044
0.37456178
0.37455671
0.37481445
0.37532181
0.37606414
0.37700699
0.3781403
0.37941352
0.38069504
0.38185837
0.38280509
0.38343291
0.38364507
0.38335045
0.38260769
0.38199341
0.38263834
0.38265221
0.37671825
0.37789601
0.37689632
0.37613192
0.37559104
0.37527709
0.3752101
0.37540431
0.37583119
0.37645262
0.37723342
0.37816482
0.37923283
0.38035302
0.38143389
0.38240156
0.38319704
0.38372518
0.38385706
0.38347992
0.38263199
0.38196756
0.38281063
0.38307731
0.37682692
0.37888688
0.37802517
0.37749902
0.3772494
0.37727899
0.37756477
0.37809053
0.37879078
0.3796199
0.38053581
0.38154359
0.3826119
0.38363476
0.3845646
0.38534991
0.3859663
0.38632208
0.38623237
0.38548178
0.38395502
0.38244714
0.38302256
0.38377168
0.37724084
0.38305517
0.38186941
0.38103945
0.38052255
0.38036085
0.3804801
0.38089827
0.38153037
0.38231431
0.38321931
0.38421722
0.38528648
0.38630698
0.38723265
0.38802928
0.38865519
0.38903643
0.38894181
0.38798379
0.38557072
0.38190054
0.37982028
0.38066856
0.37699282
0.38320265
0.3821316
0.38140568
0.38097198
0.38084122
0.3809423
0.38128388
0.38178087
0.382427
0.38320383
0.38407622
0.38506012
0.38609118
0.38711376
0.38804475
0.38876625
0.38920522
0.38912629
0.38815162
0.38571695
0.38205258
0.38001977
0.38083592
0.37704074
0.37891886
0.37811532
0.37765449
0.37747045
0.37755142
0.37785341
0.37835558
0.37899407
0.37976021
0.38062382
0.38155791
0.38255687
0.38358821
0.3845991
0.38547435
0.38613542
0.38648397
0.38635287
0.38554232
0.38396539
0.38247005
0.38314471
0.38393777
0.37729708
0.37785451
0.37687874
0.37614265
0.37565046
0.37539012
0.37535841
0.3755759
0.37601223
0.37663895
0.37743406
0.37835713
0.37939461
0.38051963
0.38165332
0.38267323
0.38347691
0.38396684
0.38403395
0.38358275
0.38267998
0.38202631
0.38294209
0.38322087
0.37686973
0.37807771
0.37695712
0.37604026
0.37533241
0.37482103
0.37453598
0.37454083
0.37482957
0.37537184
0.37615358
0.37713686
0.37829707
0.3795773
0.38085965
0.38202292
0.38296156
0.38357234
0.38376039
0.38344138
0.38267913
0.3820584
0.38271
0.38270912
0.37673312
0.37805419
0.37697622
0.37612189
0.37547072
0.37501742
0.37479387
0.3748547
0.3752081
0.37582349
0.37668006
0.37775912
0.37901637
0.38035311
0.38165651
0.38284477
0.38382674
0.38447523
0.38467283
0.38429255
0.38333745
0.38239847
0.38275723
0.38265361
0.37673076
0.37781533
0.37693126
0.37632695
0.37595412
0.37582028
0.37593291
0.37631692
0.37695928
0.37781377
0.37885518
0.38007388
0.38140495
0.38272288
0.38397274
0.38510449
0.38603942
0.38664145
0.38673783
0.38609629
0.38458667
0.38289928
0.38287706
0.38293771
0.37686315
0.3805144
0.37971245
0.37928485
0.37914634
0.37932578
0.37977593
0.38051761
0.3814917
0.38263872
0.38392419
0.38531372
0.38674468
0.38809072
0.38932744
0.39041082
0.39126703
0.39177397
0.39166182
0.3904743
0.38768376
0.38392938
0.38243114
0.38292101
0.37723281
0.38571042
0.38441834
0.38350788
0.38296929
0.38283562
0.38302395
0.38357369
0.38438825
0.38537954
0.38653068
0.38774366
0.38901508
0.3902219
0.39130784
0.39231063
0.3931068
0.39367988
0.39371646
0.39271612
0.38970783
0.38427345
0.37953745
0.37889437
0.37684595
0.38132575
0.38037038
0.37978183
0.37948179
0.37945179
0.37963196
0.38001246
0.38051311
0.38111693
0.38178914
0.38249588
0.38323021
0.38397747
0.38468179
0.38529578
0.38576884
0.38602285
0.38592617
0.38525583
0.38387808
0.38243311
0.3831462
0.38461513
0.37813678
0.37823815
0.37734684
0.3768051
0.37656347
0.37658548
0.37682058
0.37724424
0.3777984
0.37845638
0.37917833
0.37992782
0.38069941
0.38147911
0.38221435
0.38285476
0.3833526
0.38362519
0.38357175
0.38310808
0.38241271
0.38238672
0.3844093
0.38529629
0.37762166
0.37779604
0.37678842
0.37604819
0.37556529
0.3753235
0.37530579
0.37551881
0.37594105
0.37653162
0.37724873
0.37805738
0.37894725
0.37988672
0.38079945
0.38160582
0.38224687
0.3826472
0.38271291
0.38239334
0.38183195
0.38176355
0.38334755
0.3838829
0.37702862
0.37783908
0.37682689
0.37606302
0.37553782
0.37523108
0.3751508
0.37534388
0.37580151
0.37647184
0.37731648
0.37830292
0.37939834
0.38053676
0.38163517
0.38260624
0.38339254
0.38390641
0.38402173
0.38362991
0.38277545
0.38211741
0.38297489
0.38319855
0.3768588
0.37777104
0.37688981
0.37629141
0.37593113
0.37580153
0.37590664
0.37629321
0.37695109
0.37782264
0.37888348
0.38011712
0.3814523
0.38277597
0.38403765
0.38517671
0.38611504
0.38671636
0.38680832
0.38616354
0.38465074
0.38296581
0.38295169
0.3829957
0.37687915
0.37840419
0.3777349
0.37741963
0.37736673
0.37760277
0.37809032
0.37886472
0.37990617
0.38115335
0.38257479
0.38413823
0.38576577
0.38731244
0.3887656
0.39007682
0.39114839
0.3918225
0.391828
0.39073625
0.38808466
0.38458165
0.38314027
0.38309932
0.37711444
0.38441314
0.3837088
0.38343625
0.3834886
0.38392321
0.38465719
0.3857418
0.38712315
0.38873629
0.39052216
0.39237956
0.39428132
0.39607253
0.39774334
0.3992807
0.40053338
0.40138052
0.40138648
0.39986907
0.39560317
0.38865876
0.3835836
0.38281617
0.37762258
0.39046227
0.38912324
0.38825087
0.38778956
0.38777883
0.38812187
0.38884475
0.38985705
0.39104864
0.39239118
0.39369235
0.39504101
0.39628455
0.39743161
0.39854895
0.39946988
0.40027442
0.40058822
0.39999269
0.39709732
0.39070932
0.3833247
0.38000713
0.37799621
0.38008925
0.37919632
0.37874995
0.37868133
0.37891968
0.37940452
0.38009092
0.38089735
0.3817755
0.38268996
0.38359683
0.38446629
0.38527489
0.38596575
0.38650332
0.3868444
0.38696689
0.38685475
0.38647942
0.38594663
0.38622054
0.38879222
0.38965034
0.37989766
0.37816172
0.37719608
0.37664819
0.37645238
0.37654371
0.37686684
0.37736998
0.37799844
0.37870296
0.37943906
0.38017157
0.38088658
0.38156128
0.38216023
0.38267386
0.38306955
0.38330163
0.38331012
0.38302217
0.38270433
0.38340359
0.38637196
0.38751476
0.37853982
0.37822534
0.37727663
0.37668402
0.37640536
0.37640194
0.37662716
0.37705977
0.37765062
0.37835326
0.37911884
0.37992051
0.38073901
0.38154308
0.38227389
0.3828919
0.38337986
0.38367202
0.38365631
0.38323863
0.38258044
0.38254963
0.38450658
0.38530555
0.37761948
0.37889808
0.37799813
0.37744982
0.37720328
0.37724131
0.37752136
0.37803879
0.37875008
0.37960994
0.38056537
0.38159285
0.38265985
0.38369125
0.38463913
0.38543331
0.38605871
0.38642221
0.38633583
0.38559532
0.38408701
0.38260726
0.38321233
0.38391695
0.37727785
0.38052737
0.3797051
0.37926426
0.37913195
0.37932291
0.37977822
0.38052258
0.38149934
0.38265254
0.38394368
0.38532718
0.38674597
0.38809138
0.38934752
0.39045158
0.39132957
0.39184754
0.39173191
0.39054314
0.38775291
0.38400317
0.38251772
0.38299679
0.37725429
0.38441329
0.38370837
0.38343725
0.38350081
0.38395093
0.38469872
0.38579152
0.38716924
0.38877574
0.390552
0.39239177
0.39427393
0.39605792
0.39774275
0.39929814
0.40056492
0.40141787
0.40141895
0.39989385
0.39562524
0.38868038
0.38360855
0.38284265
0.3776313
0.39547906
0.39431377
0.39365702
0.39345509
0.3937249
0.39444093
0.39561311
0.39719245
0.39908021
0.40121059
0.40332777
0.40551967
0.40761607
0.40961034
0.41158181
0.41327153
0.41469281
0.41530596
0.41435643
0.40971787
0.39981499
0.38895263
0.38381749
0.37849957
0.39993887
0.3981275
0.39694294
0.39628209
0.39612798
0.39640861
0.39705965
0.39802754
0.39911303
0.40036108
0.40140367
0.40249546
0.40347955
0.40440863
0.40539262
0.40628165
0.40727901
0.4081235
0.40865039
0.40746314
0.40259648
0.39405981
0.38602164
0.38109317
0.37814601
0.3773467
0.37720435
0.37766678
0.37864541
0.38003399
0.38170157
0.38348284
0.38528309
0.38708108
0.38882744
0.39046868
0.39195488
0.39320255
0.39414576
0.39472333
0.39484519
0.39454314
0.39395017
0.39329435
0.39353616
0.39531175
0.39375063
0.3816552
0.38000581
0.37903454
0.37852313
0.37841694
0.37865195
0.37916121
0.37988765
0.3807516
0.3816945
0.38266465
0.38362254
0.38453337
0.38535779
0.3860397
0.38657448
0.38692438
0.38704734
0.38694492
0.38659299
0.38607099
0.38630922
0.38883023
0.38965126
0.37989615
0.38123847
0.38015892
0.37946355
0.37909848
0.3790572
0.37926008
0.37969479
0.38029275
0.38100181
0.38176856
0.38256249
0.38336058
0.38411946
0.38478533
0.38533304
0.38576161
0.38600105
0.38592413
0.38530148
0.38397775
0.38252722
0.38316595
0.38460218
0.37812915
0.38311774
0.38188746
0.38102196
0.38049742
0.38034072
0.38046368
0.38088106
0.38152133
0.38232872
0.38325581
0.3842405
0.38527623
0.38627373
0.38719423
0.38799157
0.38863341
0.38903701
0.38895752
0.38801526
0.38562376
0.38198739
0.37992834
0.38075831
0.37702058
0.3857703
0.38444388
0.38350519
0.38295933
0.38283125
0.38303194
0.38358922
0.38440797
0.38541453
0.38658138
0.3877841
0.38902905
0.39022188
0.39132457
0.39234904
0.39316738
0.39375496
0.39378607
0.39277705
0.38976399
0.38432956
0.37959542
0.37894555
0.37686215
0.39048614
0.38913398
0.38825285
0.38779401
0.38779398
0.38815175
0.38888413
0.38989608
0.39109533
0.39244682
0.39373626
0.3950569
0.39628513
0.39744264
0.39858182
0.39951791
0.40032713
0.40063367
0.40002722
0.39712791
0.39073385
0.38335563
0.38003321
0.37800745
0.39991052
0.39810482
0.39692759
0.39627628
0.39613342
0.39642387
0.39708192
0.39805377
0.39914634
0.40040155
0.40144195
0.4025192
0.4034884
0.40441249
0.40539971
0.40628857
0.40728353
0.40812675
0.40865417
0.4074692
0.4026045
0.3940707
0.38603236
0.38109707
0.39926779
0.39814739
0.39769371
0.39745504
0.39759428
0.39774126
0.3979728
0.39823486
0.39839952
0.39861587
0.39857375
0.39860336
0.39856632
0.3985502
0.39856847
0.39858455
0.39873643
0.39895004
0.39941575
0.3999829
0.40020411
0.39890332
0.39471697
0.3889933
0.44383212
0.44397591
0.43800505
0.43292802
0.42899548
0.42630482
0.42362532
0.42067762
0.41750033
0.41428305
0.41104076
0.40777252
0.4046026
0.40148907
0.39860311
0.39592876
0.39347368
0.39136272
0.38956025
0.38817087
0.38724687
0.38673268
0.38679639
0.38724744
0.42134705
0.41980315
0.41689
0.41457396
0.41233619
0.41076655
0.40918032
0.40737832
0.40534155
0.40323193
0.40103735
0.39876268
0.39652936
0.39426512
0.39212826
0.39004433
0.38807588
0.38625172
0.38453027
0.3830169
0.38171298
0.38070656
0.38006059
0.37982101
0.40632237
0.40365513
0.40248817
0.40184576
0.40063298
0.39966665
0.39868102
0.39757164
0.3962256
0.39484514
0.39331407
0.39172425
0.39011694
0.38839118
0.38671958
0.38497462
0.38329084
0.38162938
0.37997166
0.37845065
0.3770624
0.37596911
0.37519022
0.37485329
0.39728612
0.39403042
0.39358467
0.39382583
0.39337402
0.39280503
0.39224144
0.3915664
0.39067732
0.38977786
0.38864876
0.38753218
0.38626995
0.38490237
0.38352764
0.3819927
0.38052296
0.37899624
0.37754284
0.37624506
0.37510459
0.3743166
0.37388861
0.37395608
0.39248555
0.39054576
0.39078412
0.39159153
0.39187138
0.39177442
0.39153312
0.39104984
0.3903476
0.3894986
0.38839808
0.38722718
0.38583943
0.38439068
0.38284771
0.38122517
0.37963618
0.37804158
0.37672635
0.37563515
0.3748737
0.37458627
0.37477319
0.37556083
0.39265496
0.39545681
0.39654613
0.39773239
0.3985733
0.39867001
0.3980809
0.3970487
0.39569526
0.39406713
0.39226405
0.39028058
0.38815712
0.38597539
0.38376517
0.38166433
0.37965677
0.37789098
0.37654459
0.3756631
0.37538952
0.37578218
0.37686975
0.37870562
0.39761149
0.40941915
0.41026979
0.40997851
0.40979468
0.40833851
0.40619121
0.40386535
0.40131613
0.39845087
0.39539557
0.3922048
0.38893331
0.38578004
0.38286809
0.38029303
0.378191
0.37658507
0.37555253
0.37526485
0.37581064
0.37724789
0.37960854
0.38286849
0.40301363
0.42628542
0.43461752
0.4353687
0.43410523
0.43067753
0.42650545
0.4222019
0.41740468
0.41205947
0.40631987
0.40037883
0.39447141
0.38889387
0.38390201
0.37967405
0.37636388
0.37404847
0.37287938
0.37297601
0.37435567
0.37698485
0.38079896
0.38571195
0.35670161
0.38447124
0.39475813
0.39544756
0.39490785
0.39478984
0.39503056
0.39535159
0.39563489
0.39572115
0.39561582
0.39525195
0.3946289
0.39378074
0.39268307
0.39142347
0.38994097
0.38832614
0.38663103
0.3848932
0.38323694
0.381682
0.38037605
0.37940606
0.35783015
0.38075468
0.3910122
0.39261471
0.39255881
0.39260392
0.39286633
0.39317078
0.39341907
0.39348392
0.39336163
0.39298662
0.39235902
0.39149598
0.39038246
0.38908262
0.38754568
0.38585718
0.38406204
0.38221841
0.38043446
0.37875484
0.37731445
0.37620403
0.36031384
0.37885453
0.38806942
0.38985132
0.38998021
0.39011707
0.39043222
0.3907952
0.39110274
0.391255
0.39123559
0.39098013
0.39049207
0.38977173
0.38881177
0.38764963
0.38625602
0.38470376
0.38302789
0.38129658
0.37960705
0.37801296
0.37664402
0.37558422
0.3639852
0.37868184
0.38612523
0.387395
0.38734098
0.38742306
0.38775884
0.38820544
0.38862465
0.38893045
0.3890771
0.3890209
0.38875287
0.38825587
0.38753694
0.3866006
0.3854467
0.38412846
0.38267591
0.38115964
0.37966089
0.3782424
0.37702491
0.37609416
0.36872427
0.38020731
0.38541199
0.38558837
0.3849744
0.38481146
0.385094
0.38560665
0.38615925
0.3866523
0.38700787
0.38719211
0.38717583
0.38694201
0.3864901
0.38580133
0.38490226
0.38381821
0.38260185
0.38130533
0.37999315
0.37873902
0.37765412
0.37683822
0.37463789
0.3836795
0.38637492
0.38499766
0.38347535
0.38285538
0.38297915
0.38350981
0.3841836
0.38485249
0.38541662
0.38582736
0.38604981
0.38605561
0.38583039
0.38535759
0.38465471
0.38374429
0.38269014
0.38152443
0.38031661
0.37913886
0.37809348
0.37730363
0.3817705
0.38969799
0.39000079
0.38681186
0.38414625
0.3829686
0.38290273
0.38343335
0.38418642
0.38495574
0.38562042
0.38612024
0.38641159
0.38647577
0.38629773
0.38586036
0.38516867
0.38423508
0.38311437
0.38185764
0.38053373
0.37921091
0.37799877
0.37704419
0.38993636
0.398474
0.39726597
0.39246041
0.38865088
0.38680053
0.38637434
0.38670181
0.38730356
0.3879225
0.38841919
0.38873561
0.38884226
0.38872089
0.38834803
0.38769262
0.38674139
0.3854887
0.38400354
0.38237783
0.3807024
0.37905366
0.37752218
0.37623465
0.40302766
0.42637036
0.43477707
0.43552296
0.43419711
0.43071445
0.42651384
0.42219905
0.41739603
0.41203032
0.40625075
0.40026126
0.39431116
0.38870533
0.38370344
0.37949064
0.37622035
0.37394864
0.37281014
0.37292363
0.37431438
0.37695663
0.38078805
0.38571905
0.39761667
0.40942725
0.41030112
0.41000812
0.4098009
0.40832375
0.40617797
0.40386878
0.40134606
0.39848264
0.39540022
0.39214788
0.38878575
0.38553265
0.38255383
0.37996568
0.37789074
0.37631818
0.37530895
0.37504055
0.37562094
0.37710321
0.37950835
0.3828066
0.39265373
0.39540865
0.39648628
0.39768998
0.39856303
0.3986797
0.398128
0.39712793
0.39580855
0.39419252
0.39235899
0.39032005
0.38810054
0.38579228
0.38348016
0.38132347
0.37930197
0.37754668
0.37621374
0.37535275
0.37512177
0.37556988
0.37670934
0.37858954
0.39244191
0.39044753
0.39069241
0.39152134
0.39183189
0.39176961
0.391571
0.39112493
0.39046099
0.38964423
0.38853489
0.38733481
0.38587422
0.38430465
0.38264726
0.38094096
0.37929365
0.37766321
0.3763384
0.37526772
0.37455679
0.37433267
0.37457589
0.37540967
0.39722074
0.39391719
0.39347104
0.3937221
0.39328962
0.39275322
0.39222188
0.39157598
0.39071401
0.38984925
0.38874845
0.38763818
0.38634226
0.3848846
0.38340381
0.3817598
0.38018433
0.37857329
0.37709242
0.37582029
0.37474318
0.37403133
0.37367055
0.3737907
0.40626783
0.40352437
0.40231535
0.40167241
0.40048562
0.39955617
0.3986002
0.39751035
0.39618385
0.39483336
0.39334644
0.39179405
0.39019582
0.3884284
0.38666952
0.38479164
0.38296163
0.38119068
0.37950159
0.37801212
0.37669426
0.37568621
0.37498305
0.37470292
0.42128164
0.41964382
0.4166662
0.41434084
0.41213245
0.41060705
0.4090587
0.40728062
0.40526479
0.40318855
0.40105041
0.39883684
0.39664515
0.39437852
0.39217173
0.38994585
0.38781686
0.38587639
0.38411555
0.38262902
0.38139167
0.38046859
0.37989765
0.37971144
0.4437379
0.44379916
0.43776918
0.43268136
0.42877707
0.42613852
0.42350933
0.42059812
0.41745303
0.41427829
0.41109906
0.40790445
0.4047983
0.40170932
0.39877164
0.39596003
0.39334601
0.39111747
0.38926675
0.38788868
0.38701102
0.38655712
0.38667467
0.3871578
0.38994972
0.39849722
0.39729011
0.39247661
0.38865656
0.38679871
0.38636846
0.38669362
0.38729258
0.38790519
0.38838949
0.38868819
0.38877343
0.38863025
0.38824342
0.38758841
0.38665114
0.38541596
0.38394341
0.38232675
0.38066003
0.37902059
0.3774985
0.37622084
0.38177649
0.38970824
0.39001364
0.38682265
0.38415324
0.38297281
0.38290456
0.38343289
0.38418266
0.38494287
0.38558639
0.38605303
0.38630213
0.38632042
0.38610959
0.38566681
0.3849944
0.38408884
0.38298925
0.38174816
0.38044197
0.37913892
0.3779459
0.37701014
0.37464608
0.38368802
0.38638238
0.38500637
0.38348606
0.38286786
0.38299245
0.38352244
0.38419432
0.38485571
0.3854001
0.38577677
0.38595146
0.38590064
0.38562986
0.38513878
0.3844437
0.3835534
0.38251818
0.38137025
0.38018561
0.37903452
0.37801423
0.37724775
0.36871659
0.38019367
0.38539905
0.38558254
0.38497466
0.38481555
0.38510044
0.38561381
0.38616693
0.38665689
0.38700056
0.38715975
0.38710386
0.38681693
0.3863151
0.38559435
0.38468522
0.38360612
0.38240148
0.381123
0.37983703
0.37861287
0.3775558
0.37676465
0.36398599
0.37867757
0.3861167
0.38738564
0.38733201
0.38741596
0.38775353
0.3882006
0.38862112
0.38892662
0.38906993
0.38900188
0.38871095
0.38817578
0.38741062
0.38643069
0.38524774
0.38391858
0.38246937
0.38096886
0.37949636
0.37810869
0.37691911
0.37601181
0.36031665
0.37885122
0.38805857
0.3898363
0.38996307
0.39010123
0.39041735
0.39077961
0.39108809
0.39124227
0.39122819
0.39097624
0.39048615
0.38974987
0.38875363
0.38754018
0.38610069
0.38452338
0.38284248
0.38112219
0.37945577
0.37789037
0.37654685
0.37550672
0.35783171
0.380749
0.39099679
0.39259384
0.39253575
0.39258317
0.39284746
0.39315127
0.39340118
0.39347376
0.3933688
0.39301585
0.392409
0.39155249
0.39041502
0.38906116
0.3874656
0.38573777
0.38392593
0.38208409
0.38031627
0.3786601
0.37724035
0.37614396
0.35670354
0.3844676
0.39474395
0.39542467
0.39488171
0.39476646
0.39501145
0.3953355
0.39562548
0.39572872
0.39565357
0.39532867
0.39474532
0.39392321
0.39281797
0.39151123
0.38996362
0.38829257
0.38656157
0.38480891
0.38315581
0.3816145
0.38032124
0.37935773
0.44373339
0.44379985
0.43777652
0.43269198
0.4287878
0.4261471
0.42351405
0.42059941
0.41745549
0.41428464
0.41110687
0.40791228
0.40480706
0.40171861
0.39878151
0.39596817
0.39335068
0.39111762
0.38926321
0.38788336
0.38700618
0.38655366
0.38667198
0.38715406
0.42126364
0.41963081
0.41666691
0.41434984
0.4121399
0.41060908
0.40905309
0.40726508
0.40524529
0.40316828
0.40102413
0.39880778
0.39662459
0.39437289
0.39217998
0.38996174
0.38783503
0.3858926
0.38412796
0.38263844
0.38140006
0.38047637
0.37990509
0.37971654
0.40625736
0.40351543
0.40231153
0.40167176
0.40048234
0.3995461
0.3985817
0.39748241
0.39614973
0.39479267
0.39329046
0.39173168
0.3901457
0.38840914
0.38667543
0.38480964
0.38298455
0.38121586
0.37952945
0.37804198
0.37672637
0.37572166
0.37502421
0.37474871
0.39723586
0.39393221
0.39347209
0.39371734
0.39327887
0.39272826
0.39218057
0.39152032
0.39064867
0.38977678
0.38866464
0.38755612
0.38628373
0.38487886
0.38343406
0.38180197
0.38022882
0.37861902
0.37714094
0.3758702
0.37479381
0.3740852
0.37373198
0.37385968
0.39244753
0.39047643
0.39071743
0.39152689
0.39181118
0.39171453
0.3914838
0.39101324
0.39033984
0.38952301
0.38841857
0.38724265
0.38584062
0.3843441
0.382731
0.3810372
0.3793856
0.37774659
0.37641593
0.37534157
0.37462355
0.3743962
0.37464359
0.37548312
0.39262262
0.39540421
0.39650253
0.39767969
0.39850757
0.39856857
0.3979712
0.39694322
0.39560834
0.39398563
0.39217883
0.39019829
0.38806863
0.38584532
0.38358733
0.38145127
0.37943116
0.3776623
0.3763169
0.37544583
0.37520106
0.37563829
0.37677495
0.37865633
0.39758694
0.40936599
0.41020232
0.40988254
0.40964451
0.40811955
0.40592357
0.40356854
0.40101503
0.39814886
0.39511933
0.39194714
0.38867896
0.38551633
0.38260293
0.38004693
0.37797777
0.37639993
0.37538985
0.37511984
0.37569361
0.37716631
0.37956441
0.38285701
0.40300247
0.42624495
0.43453473
0.43520968
0.43384579
0.43032799
0.42608237
0.42171886
0.41688818
0.41154592
0.40586368
0.39998172
0.39412133
0.38858767
0.38364521
0.37947593
0.37622425
0.37395779
0.37282623
0.37295092
0.37435313
0.37699807
0.38082475
0.38574602
0.35670264
0.3844651
0.39474045
0.39542101
0.39488111
0.39476679
0.39501167
0.39533784
0.39563349
0.39574243
0.3956688
0.39534279
0.39475714
0.39393147
0.39282296
0.39151264
0.38996016
0.38828324
0.38654786
0.38479432
0.38314307
0.38160434
0.38031259
0.37934872
0.35782993
0.38074425
0.39098907
0.39258408
0.39252778
0.39257504
0.39283936
0.39314478
0.39340041
0.39347852
0.39337486
0.39302335
0.3924191
0.39156381
0.39042649
0.38907104
0.3874715
0.38573795
0.38392282
0.38208228
0.38031785
0.37866407
0.37724435
0.37614533
0.36031367
0.37884461
0.38804749
0.38982125
0.38994536
0.39007975
0.3903952
0.39076063
0.39107613
0.39123607
0.39122315
0.39097609
0.39049717
0.38977162
0.38878142
0.38756938
0.38612766
0.38454777
0.38286852
0.38115276
0.37948943
0.3779238
0.37657728
0.37553171
0.36398524
0.37867459
0.38610806
0.3873683
0.38730314
0.38737493
0.3877059
0.38815473
0.38858226
0.38889478
0.38904408
0.38898972
0.3887221
0.38821105
0.38746134
0.38648781
0.38530514
0.38397602
0.38253116
0.38103429
0.37955996
0.37816542
0.37696671
0.37604907
0.36872438
0.3802025
0.38539952
0.3855643
0.38493217
0.38474891
0.38501674
0.38552436
0.38608011
0.38657764
0.38693493
0.38711918
0.38709981
0.38685121
0.38637772
0.38567231
0.38476824
0.38369112
0.38249159
0.38121469
0.37992126
0.37868382
0.3776121
0.37680625
0.37463649
0.3836751
0.3863632
0.38497087
0.38342229
0.38276955
0.38286277
0.38337385
0.38403834
0.38470428
0.385268
0.38567852
0.38589861
0.385897
0.3856695
0.38520769
0.38452643
0.38364283
0.38261539
0.38146992
0.38027671
0.3791101
0.37807258
0.37728898
0.38176637
0.38968985
0.38998277
0.38677126
0.38406711
0.38284138
0.38272725
0.38321874
0.38394639
0.38470383
0.38536716
0.38587012
0.38616618
0.3862371
0.38607979
0.3856812
0.38503614
0.38414626
0.38306151
0.38182969
0.38052159
0.37920778
0.37799983
0.3770476
0.38992913
0.39845857
0.39723445
0.39239609
0.38853361
0.38661795
0.38612544
0.38639559
0.38695773
0.38755981