/*--------------------------------*- C++ -*----------------------------------*\
| =========                 |                                                 |
| \\      /  F ield         | OpenFOAM: The Open Source CFD Toolbox           |
|  \\    /   O peration     | Version:  4.1                                   |
|   \\  /    A nd           | Web:      www.OpenFOAM.org                      |
|    \\/     M anipulation  |                                                 |
\*---------------------------------------------------------------------------*/
FoamFile
{
    version     2.0;
    format      ascii;
    class       surfaceVectorField;
    location    "0.000370";
    object      Uf;
}
// * * * * * * * * * * * * * * * * * * * * * * * * * * * * * * * * * * * * * //

dimensions      [0 1 -1 0 0 0 0];

internalField   nonuniform List<vector> 
8704
(
(9.8783061 0.026087661 0.00034548359)
(9.7619763 0.020068107 -0.01609501)
(9.7607538 0.019807619 0.016911338)
(10.088018 0.012402979 -0.017162516)
(10.087892 0.012390334 0.01786353)
(9.8818147 0.02671952 0.00031488132)
(9.7313988 0.024852218 -0.01387132)
(9.7309928 0.024585781 0.014765054)
(10.116143 0.010387444 -0.014614665)
(10.116116 0.010387806 0.015383886)
(9.9313347 0.024458264 0.00020397342)
(9.7408765 0.027199202 -0.0109947)
(9.7412444 0.026993991 0.011664057)
(10.188446 0.0071071279 -0.012410646)
(10.188485 0.0071172624 0.012995461)
(10.024626 0.020743586 8.9868045e-05)
(9.7839296 0.026988771 -0.0081442126)
(9.7848342 0.026871605 0.0084918408)
(10.278088 0.0021395773 -0.0091774481)
(10.278185 0.002154975 0.0095167599)
(10.15267 0.015946797 3.5538252e-06)
(9.8646823 0.025506138 -0.0053349824)
(9.8659892 0.025431245 0.0054406456)
(10.400608 -0.0021879601 -0.0060059633)
(10.40076 -0.0021706045 0.0061457319)
(10.305183 0.010889663 -6.0959213e-05)
(9.9697732 0.021992209 -0.0025369215)
(9.9713511 0.021920493 0.0024794152)
(10.528892 -0.0066842142 -0.0027622142)
(10.52911 -0.0066736335 0.0027468223)
(10.474993 0.0064336372 -0.00012656207)
(10.096648 0.018660272 1.156005e-05)
(10.098403 0.018616319 -0.00022289493)
(10.665675 -0.01007195 0.00038223449)
(10.665965 -0.010065622 -0.00052283693)
(10.653157 0.0028093004 -0.00023987619)
(10.239906 0.014809246 0.002301918)
(10.241723 0.014835473 -0.0027398965)
(10.805264 -0.012506782 0.0031335498)
(10.805589 -0.012510346 -0.0034478834)
(10.840226 0.00045100257 -0.00043013467)
(10.390718 0.012197436 0.0047061824)
(10.39248 0.012317054 -0.0055292365)
(10.93723 -0.014053011 0.0059339917)
(10.937569 -0.014040678 -0.0065524886)
(11.027722 -0.00081229695 -0.00060834253)
(10.560028 0.0099377039 0.0067002725)
(10.561561 0.010124748 -0.0079959285)
(11.080847 -0.013745207 0.0080244294)
(11.081181 -0.013699536 -0.009072854)
(11.2073 -0.0010495633 -0.00064877637)
(10.723276 0.0078912263 0.0082828004)
(10.724261 0.0080772939 -0.0097848307)
(11.206164 -0.012027314 0.0097532651)
(11.206434 -0.011966271 -0.011045691)
(11.377585 -0.00031607205 -0.0005482452)
(10.888985 0.0067286264 0.0097934388)
(10.889488 0.0069023584 -0.011174997)
(11.330113 -0.0096872257 0.011240265)
(11.330329 -0.0096142898 -0.012425598)
(11.533829 0.0013956105 -0.00035335333)
(11.045231 0.0061883095 0.010862962)
(11.045238 0.0063459225 -0.011931648)
(11.441701 -0.0062638199 0.01214636)
(11.441893 -0.0062038533 -0.013039407)
(11.678449 0.0045899581 -0.00010808809)
(11.192133 0.0069815199 0.011932389)
(11.191664 0.0071027407 -0.012506153)
(11.544775 -0.002346949 0.012818546)
(11.544922 -0.0023133731 -0.013286068)
(11.806243 0.0098775104 9.4145078e-05)
(11.332157 0.0092077057 0.012467258)
(11.331451 0.0092823907 -0.012492759)
(11.645515 0.0038261316 0.012978515)
(11.645596 0.00383625 -0.012990343)
(11.914315 0.017579414 0.00018979108)
(11.450275 0.013205674 0.012524056)
(11.44943 0.013261772 -0.012224524)
(11.730332 0.012265558 0.012686282)
(11.730365 0.012262733 -0.012435136)
(11.998392 0.029427301 0.00023051474)
(11.553062 0.019302555 0.012123334)
(11.552011 0.019367409 -0.011746788)
(11.809217 0.023861527 0.01202704)
(11.809213 0.023856043 -0.011694074)
(12.04892 0.051409128 0.00031886268)
(11.625413 0.029367396 0.01192662)
(11.624085 0.029443334 -0.011511702)
(11.868644 0.042688154 0.011024728)
(11.868593 0.042700822 -0.010563448)
(12.036131 0.083192436 0.00043355923)
(11.659945 0.049056579 0.010440479)
(11.65833 0.04906863 -0.0097622622)
(11.906259 0.078433292 0.0092883223)
(11.906172 0.078381594 -0.0086305914)
(11.911355 0.085471208 0.00051679916)
(11.610018 0.06617713 0.0082923339)
(11.608255 0.066102144 -0.0074033674)
(11.876655 0.12679578 0.0076921452)
(11.876548 0.12675618 -0.0068365008)
(11.662398 -0.0054557629 0.00058387299)
(11.429131 0.021738419 0.0081214031)
(11.427403 0.021539211 -0.0069500278)
(11.725862 0.12072047 0.0079327137)
(11.725757 0.12068212 -0.0069542251)
(11.3799 -0.14502509 0.00059591145)
(11.185389 -0.1242196 0.012108032)
(11.18399 -0.12444655 -0.010701081)
(11.475295 -0.010456219 0.012034257)
(11.475185 -0.01052706 -0.010968431)
(11.211487 -0.19730015 0.00047168272)
(11.063653 -0.23116119 0.012995083)
(11.062701 -0.23134006 -0.011659412)
(11.241801 -0.14673478 0.022868878)
(11.24171 -0.14674466 -0.021751534)
(11.108307 -0.21842345 -0.0053207725)
(11.107931 -0.21848204 0.0060762988)
(11.134272 -0.15355794 0.040884136)
(11.134219 -0.15356683 -0.040143421)
(9.612534 0.032606388 -0.019678907)
(9.586331 0.028576141 -0.027724509)
(9.4801533 0.019028756 -0.0058645924)
(9.7875332 0.030439197 -0.035342966)
(9.588352 0.037945705 -0.01521759)
(9.5389315 0.03475309 -0.022006165)
(9.4490037 0.025913884 -0.0033648921)
(9.785784 0.033385874 -0.029178902)
(9.5912771 0.040598025 -0.010533377)
(9.5157425 0.038173543 -0.016041015)
(9.4375207 0.030974062 -0.0010906597)
(9.8118718 0.033931882 -0.022219072)
(9.6225194 0.040966858 -0.0058781545)
(9.5161628 0.039526557 -0.0096323881)
(9.4454194 0.034016475 0.00098164264)
(9.8532927 0.032928079 -0.015160642)
(9.6799717 0.039111831 -0.0013624981)
(9.5434226 0.038842288 -0.0035533376)
(9.4758085 0.035224147 0.0029660969)
(9.92039 0.0307315 -0.0078181995)
(9.7604393 0.035870691 0.0029891276)
(9.5921134 0.035981062 0.0025989139)
(9.5248637 0.034079393 0.0047632754)
(9.9996637 0.027162733 -0.00085947953)
(9.8609855 0.032052598 0.0070997419)
(9.6612053 0.032818874 0.0085227934)
(9.592505 0.032399901 0.0065134275)
(10.092637 0.023722546 0.0060799774)
(9.9784013 0.028324167 0.011245108)
(9.7488926 0.028839463 0.014234843)
(9.6772773 0.029625678 0.0080765692)
(10.19741 0.020073247 0.012523623)
(10.11232 0.025023546 0.015210464)
(9.8512173 0.025824921 0.020239065)
(9.7771008 0.027860222 0.0097112406)
(10.307589 0.017436472 0.019459715)
(10.25789 0.021447216 0.018546875)
(9.9730101 0.02246039 0.025343259)
(9.8949816 0.025451015 0.011026089)
(10.433321 0.015119867 0.025329249)
(10.40898 0.018168062 0.021452068)
(10.101834 0.018877779 0.029865067)
(10.02097 0.022270122 0.012291568)
(10.556824 0.013150695 0.030187701)
(10.561521 0.015563616 0.023823528)
(10.238736 0.015861366 0.033681876)
(10.156433 0.019534732 0.013545508)
(10.685086 0.011801429 0.034496792)
(10.710219 0.01400681 0.025708785)
(10.376121 0.01318851 0.036490301)
(10.293329 0.016856466 0.014560871)
(10.809382 0.011273521 0.037425613)
(10.853459 0.013737039 0.026989928)
(10.511258 0.011972097 0.038714769)
(10.429428 0.015653211 0.01550685)
(10.929553 0.011934341 0.039841995)
(10.984709 0.014693922 0.027415336)
(10.643496 0.011437594 0.03950195)
(10.562753 0.014914177 0.016032305)
(11.047562 0.013898009 0.040794407)
(11.098974 0.017097855 0.026973653)
(10.760682 0.012097139 0.039107327)
(10.68279 0.015218871 0.016145022)
(11.150593 0.017529121 0.040616679)
(11.190321 0.021105961 0.025875874)
(10.864266 0.013771458 0.037219757)
(10.789562 0.016453193 0.015564067)
(11.243174 0.022886049 0.039232972)
(11.247869 0.02872031 0.023723668)
(10.94313 0.016134739 0.034284345)
(10.871821 0.018139065 0.01443506)
(11.31355 0.031059202 0.03758257)
(11.243983 0.034393674 0.020468259)
(10.986645 0.021289659 0.02967481)
(10.919199 0.021190402 0.01289084)
(11.353418 0.048530627 0.033312743)
(11.147109 0.0055976769 0.018665653)
(10.95952 0.016137625 0.025280255)
(10.897877 0.012456155 0.010350404)
(11.32229 0.065113248 0.026397794)
(10.988548 -0.09369357 0.022388733)
(10.839814 -0.041765419 0.027809864)
(10.790948 -0.048613606 0.0091653378)
(11.185901 0.025876075 0.02523121)
(10.894109 -0.20743604 0.027014816)
(10.730056 -0.16425005 0.044437448)
(10.699669 -0.16901202 0.010350389)
(11.019112 -0.10171312 0.033313397)
(10.931969 -0.24141943 0.018697968)
(10.807191 -0.23325225 0.051142413)
(10.800765 -0.23162908 0.0077548239)
(10.978243 -0.19992707 0.042003743)
(11.003396 -0.21050886 0.03205607)
(11.007122 -0.2136317 -4.3264559e-05)
(11.055895 -0.19875067 0.037665258)
(9.5131807 0.032165312 -0.028917786)
(9.519999 0.028588054 -0.037809439)
(9.4090607 0.020004564 -0.021177579)
(9.6530399 0.03478636 -0.041979913)
(9.4670646 0.03745983 -0.020845772)
(9.4581763 0.034934476 -0.028028747)
(9.3605764 0.025760685 -0.015020659)
(9.6235987 0.038537577 -0.032052985)
(9.4415973 0.040392882 -0.012440799)
(9.4139002 0.03899144 -0.017746767)
(9.3276467 0.029441742 -0.0086990778)
(9.6162688 0.040048307 -0.021669408)
(9.4387969 0.041228635 -0.0040670959)
(9.3881512 0.040850694 -0.0072171001)
(9.3108903 0.031777236 -0.0025727756)
(9.6248656 0.039528522 -0.010763947)
(9.4570803 0.039962846 0.0041313829)
(9.3834531 0.040790784 0.0030178218)
(9.3122397 0.032223974 0.0034034852)
(9.6555324 0.0379786 -0.0003973429)
(9.4951258 0.037351744 0.012153554)
(9.3969511 0.038528087 0.013138246)
(9.3298701 0.030718728 0.0093794802)
(9.7004264 0.034731586 0.0097994707)
(9.5513408 0.034059144 0.019868268)
(9.4281554 0.035769372 0.022931279)
(9.3636731 0.02864847 0.015198626)
(9.7597272 0.031361123 0.019789968)
(9.624647 0.030697236 0.027519198)
(9.477253 0.032169858 0.032339848)
(9.4135124 0.025902995 0.020723731)
(9.8335334 0.027628483 0.029335286)
(9.7147205 0.027514765 0.034734515)
(9.5422494 0.029141309 0.041709012)
(9.478688 0.024009518 0.026106277)
(9.9170096 0.024699225 0.03922319)
(9.8194349 0.023924664 0.040965689)
(9.6255927 0.025798917 0.049897457)
(9.560857 0.021691234 0.030818706)
(10.01625 0.021787375 0.047707633)
(9.9344823 0.020294636 0.046226392)
(9.721003 0.022008596 0.056948105)
(9.6553323 0.01883227 0.035058569)
(10.121464 0.018822028 0.054891546)
(10.05608 0.016935709 0.050320527)
(9.8264838 0.018468013 0.062688621)
(9.7607331 0.015996727 0.038643022)
(10.233642 0.016187334 0.060862153)
(10.180322 0.014370902 0.053330773)
(9.9386839 0.015036165 0.066826899)
(9.8729932 0.013098168 0.041356492)
(10.348523 0.013922889 0.065190516)
(10.304284 0.012700145 0.054948696)
(10.053814 0.012859623 0.069753449)
(9.9892242 0.011331747 0.043376519)
(10.462806 0.012951912 0.068384168)
(10.422301 0.011697422 0.054803058)
(10.170178 0.010958068 0.070325051)
(10.106744 0.0096988677 0.044022771)
(10.577308 0.012588454 0.069206433)
(10.529215 0.011497274 0.05287935)
(10.279074 0.0098151233 0.068915051)
(10.217618 0.0087115029 0.043409468)
(10.681103 0.013388554 0.06797759)
(10.619937 0.011410174 0.04906807)
(10.379099 0.0091805994 0.065175168)
(10.319803 0.0081060935 0.041186872)
(10.775369 0.015112121 0.06437079)
(10.685071 0.010988047 0.043285958)
(10.463464 0.0074596513 0.058937639)
(10.406252 0.0065309268 0.037188361)
(10.851574 0.017352802 0.058477744)
(10.703761 0.0045899167 0.036597959)
(10.521272 0.0038350468 0.050003649)
(10.46752 0.0025518807 0.031756613)
(10.899522 0.022868656 0.049735522)
(10.662569 -0.029963544 0.036179322)
(10.529348 -0.011307642 0.041712539)
(10.483468 -0.013739008 0.027052011)
(10.889576 0.021005037 0.039956778)
(10.610741 -0.11068293 0.05207985)
(10.483559 -0.064884925 0.049557267)
(10.455175 -0.065576805 0.028642006)
(10.80594 -0.021944865 0.038521446)
(10.658602 -0.18828628 0.070857559)
(10.487449 -0.15565423 0.084749584)
(10.481664 -0.15086922 0.043055303)
(10.744361 -0.11982779 0.05647463)
(10.813626 -0.20332362 0.063562374)
(10.686937 -0.19344813 0.10401873)
(10.696728 -0.18443248 0.048247762)
(10.840662 -0.17608726 0.064181625)
(10.958372 -0.16691823 0.078885511)
(10.966632 -0.1610674 0.027813182)
(11.012786 -0.16408038 0.041851141)
(9.4653098 0.030286941 -0.03774405)
(9.4730066 0.024434496 -0.050067746)
(9.3947842 0.020811918 -0.035399464)
(9.5745733 0.034890541 -0.05207019)
(9.4057853 0.035508371 -0.02569192)
(9.4031868 0.030027212 -0.036671848)
(9.3361639 0.025489009 -0.025137855)
(9.5266954 0.039045877 -0.037704184)
(9.3614248 0.038654534 -0.013176934)
(9.3460109 0.033867994 -0.022690783)
(9.2891134 0.028697619 -0.014808385)
(9.4960537 0.041200456 -0.023020247)
(9.3346733 0.039823384 -0.00063551827)
(9.3030759 0.035909548 -0.0080730871)
(9.2551556 0.030220797 -0.0041014035)
(9.4795942 0.041454383 -0.0076770266)
(9.3250826 0.038918573 0.011637575)
(9.2765536 0.036234631 0.0062740516)
(9.2361406 0.03004485 0.0063561988)
(9.4816328 0.040283932 0.0069473808)
(9.3325007 0.036667639 0.023662808)
(9.2655829 0.034476386 0.020363104)
(9.2316582 0.028143402 0.01665043)
(9.4984395 0.03732273 0.021210888)
(9.3567413 0.033769506 0.035302249)
(9.2701476 0.032237728 0.034213226)
(9.2419738 0.025746288 0.026780745)
(9.5292096 0.034114414 0.035312627)
(9.3982095 0.030647387 0.046571369)
(9.2914081 0.02940775 0.047547995)
(9.268033 0.022942533 0.036436488)
(9.576905 0.030422637 0.048767121)
(9.456382 0.027554471 0.057018084)
(9.3291993 0.026869728 0.06040026)
(9.3096864 0.020785307 0.045589828)
(9.6367133 0.027279247 0.06186338)
(9.5301702 0.024054989 0.066082974)
(9.383858 0.024183614 0.071877632)
(9.3676154 0.018396514 0.053730874)
(9.71203 0.02405828 0.073283513)
(9.616388 0.020355895 0.073628692)
(9.4524154 0.020934792 0.081687848)
(9.4390674 0.015527747 0.06088661)
(9.7978292 0.020626719 0.082918403)
(9.7124371 0.016738711 0.079422358)
(9.532602 0.017719119 0.089635905)
(9.5220967 0.012602803 0.066749336)
(9.891983 0.017258491 0.090850917)
(9.8157798 0.013672822 0.083460475)
(9.6234732 0.014607786 0.095422197)
(9.6153695 0.0096741357 0.071173001)
(9.994086 0.013984296 0.096643871)
(9.9231539 0.011216049 0.08528717)
(9.7217931 0.012374524 0.099245261)
(9.7158679 0.0075973108 0.074156145)
(10.098982 0.011740133 0.10056649)
(10.030164 0.0091179821 0.084525526)
(9.8247591 0.010208815 0.099914764)
(9.8206444 0.0055608644 0.074853797)
(10.206337 0.0097228944 0.10131619)
(10.132388 0.0074916235 0.081234224)
(9.9274698 0.0084169934 0.09793324)
(9.9242625 0.0039004987 0.073478522)
(10.309046 0.0084283806 0.099239698)
(10.225792 0.0051233344 0.074932317)
(10.026904 0.0068933468 0.092956077)
(10.023695 0.0025112758 0.06976304)
(10.405106 0.0077288134 0.094032923)
(10.302947 0.00022864337 0.065580154)
(10.118966 0.0029834752 0.083649811)
(10.114813 -0.00061152743 0.063148702)
(10.489959 0.0055509602 0.085445904)
(10.34878 -0.011795675 0.055524886)
(10.194257 -0.0046825037 0.071341337)
(10.189891 -0.0065671238 0.052998865)
(10.552426 0.0044300444 0.070538985)
(10.360882 -0.045506942 0.056165499)
(10.237858 -0.02301883 0.061303282)
(10.237606 -0.024041489 0.045501614)
(10.572318 -0.006244795 0.056827755)
(10.388609 -0.11016074 0.081944249)
(10.25685 -0.069388463 0.074011524)
(10.267177 -0.0658396 0.051034176)
(10.545436 -0.049585434 0.061093038)
(10.525532 -0.16390699 0.11398016)
(10.341941 -0.14079424 0.11750305)
(10.36405 -0.12662397 0.076282872)
(10.563712 -0.13557149 0.10247527)
(10.751439 -0.16427623 0.1110504)
(10.621445 -0.16230261 0.14317841)
(10.639839 -0.14248876 0.089029113)
(10.748411 -0.17429517 0.12454518)
(10.940945 -0.12791641 0.11788987)
(10.946385 -0.11870082 0.06965022)
(10.980939 -0.15230686 0.090344195)
(9.4109781 0.024020013 -0.049118155)
(9.4171717 0.01729103 -0.063054669)
(9.3720696 0.018720952 -0.050990556)
(9.4968814 0.030253811 -0.067706916)
(9.3440065 0.028313156 -0.0337385)
(9.3431904 0.021211689 -0.046375939)
(9.3065538 0.022016121 -0.037430228)
(9.4358935 0.03409173 -0.049196095)
(9.2885387 0.030918525 -0.017767134)
(9.2792418 0.023715842 -0.02925935)
(9.2503381 0.023809674 -0.023265167)
(9.3887972 0.035628411 -0.029698205)
(9.2466748 0.031881469 -0.0015468427)
(9.226959 0.024650216 -0.011582599)
(9.2052918 0.02415782 -0.0085749135)
(9.353836 0.035212308 -0.0093244277)
(9.2188813 0.031147107 0.014424723)
(9.1879182 0.024439649 0.0060308177)
(9.1730692 0.023435874 0.0058526934)
(9.3338925 0.03395883 0.010231884)
(9.2057894 0.029205484 0.030142128)
(9.1625425 0.022688775 0.023154464)
(9.154307 0.021288809 0.020103049)
(9.3290184 0.031026806 0.029184635)
(9.207673 0.026806696 0.045444425)
(9.1514499 0.020604373 0.039971648)
(9.1496396 0.018848172 0.034204187)
(9.3374348 0.027815247 0.047917938)
(9.2259178 0.024272206 0.0600405)
(9.1553529 0.018417176 0.05608495)
(9.1598975 0.016607002 0.047480469)
(9.3614509 0.024402577 0.065661097)
(9.2600988 0.021774744 0.073497705)
(9.1752518 0.01655579 0.071247233)
(9.1858006 0.014858449 0.059912079)
(9.4004442 0.021239765 0.08227897)
(9.3094302 0.01906041 0.085359399)
(9.2107329 0.01470338 0.084883472)
(9.226489 0.013169541 0.070996969)
(9.4533904 0.018236763 0.097021939)
(9.3723235 0.016196801 0.095384388)
(9.2602201 0.012768411 0.096973401)
(9.2806066 0.010975725 0.080923878)
(9.5195283 0.015160919 0.10953955)
(9.4474267 0.013483776 0.10323676)
(9.3225404 0.011012632 0.10704234)
(9.3473442 0.0088616469 0.089110589)
(9.5958847 0.012265329 0.11972146)
(9.5333779 0.011237779 0.10876197)
(9.3978775 0.0095524051 0.11478101)
(9.4263888 0.0067047144 0.09553948)
(9.6829135 0.0093488687 0.1273958)
(9.6272444 0.009389346 0.11146395)
(9.4836466 0.0085977882 0.12011291)
(9.5151402 0.0050018248 0.099946731)
(9.7777571 0.0070905049 0.13243905)
(9.7256259 0.007706547 0.11106484)
(9.5770428 0.0077440672 0.12202206)
(9.6101246 0.003137582 0.10161422)
(9.877015 0.0050022761 0.13365602)
(9.8254735 0.0063532168 0.10777384)
(9.6752614 0.0070277457 0.12105298)
(9.7086441 0.0015915854 0.10049523)
(9.9784168 0.0034997938 0.13134808)
(9.9235859 0.0039053359 0.1005708)
(9.7749773 0.0069119842 0.11748654)
(9.807506 7.4112909e-05 0.096941765)
(10.077929 0.0028741992 0.12509304)
(10.013761 -0.0022364976 0.089016452)
(9.8738583 0.0041612207 0.10809768)
(9.9036341 -0.0030916639 0.089209755)
(10.172602 0.00026882263 0.11310871)
(10.086046 -0.015712211 0.077424556)
(9.964569 -0.0039769072 0.093634242)
(9.9917449 -0.0095976338 0.077556342)
(10.253342 -0.0055252742 0.095769804)
(10.1444 -0.046197132 0.080211365)
(10.037827 -0.021419672 0.084115503)
(10.065501 -0.023840183 0.068010964)
(10.305056 -0.018842828 0.079350802)
(10.237416 -0.098130536 0.1122585)
(10.106473 -0.059892706 0.10130659)
(10.139477 -0.055641412 0.077584873)
(10.333847 -0.060350529 0.089730746)
(10.443653 -0.1357598 0.15119314)
(10.254288 -0.11307703 0.15451706)
(10.287444 -0.098944774 0.11183005)
(10.420188 -0.13051144 0.13841094)
(10.724619 -0.12533926 0.1511182)
(10.593788 -0.12383861 0.18707943)
(10.608725 -0.10528983 0.13121737)
(10.679763 -0.15448486 0.16626025)
(10.946014 -0.08587818 0.16195189)
(10.941925 -0.080974977 0.11371205)
(10.962352 -0.12274065 0.12966739)
(9.3492342 0.013956865 -0.060724485)
(9.3605783 0.0069270766 -0.076175024)
(9.3390105 0.013150916 -0.066132157)
(9.4178267 0.019565622 -0.086008904)
(9.2787984 0.016676939 -0.041859996)
(9.2846199 0.009324275 -0.055768774)
(9.2685758 0.014965993 -0.049293963)
(9.3461245 0.02310961 -0.063696094)
(9.2183951 0.018197131 -0.022483413)
(9.2186193 0.011000559 -0.034735497)
(9.2067793 0.015872964 -0.031944061)
(9.2856258 0.02555612 -0.040931968)
(9.1696507 0.018587458 -0.002869938)
(9.1642557 0.011682668 -0.013268249)
(9.1556376 0.015690345 -0.014061691)
(9.2370855 0.026593889 -0.01773878)
(9.1333607 0.017910128 0.016412655)
(9.1225529 0.01156633 0.0081074404)
(9.1166884 0.014593624 0.0039184219)
(9.2011026 0.026623902 0.0053521489)
(9.1106161 0.01649909 0.035134579)
(9.0943363 0.010665062 0.028824685)
(9.0910304 0.012537708 0.021658314)
(9.1788932 0.025373279 0.027633069)
(9.1018746 0.014950776 0.053155405)
(9.0804476 0.0096485931 0.048825178)
(9.0795522 0.010392496 0.039082218)
(9.1713633 0.023580862 0.04935442)
(9.1080349 0.013593613 0.070097327)
(9.0809344 0.0089036053 0.067741966)
(9.0823559 0.0085253367 0.055763579)
(9.177629 0.021574751 0.070103727)
(9.1291951 0.012413247 0.085597408)
(9.0961129 0.0086175018 0.085176992)
(9.0999017 0.0071302173 0.071298148)
(9.1989867 0.019547247 0.089452339)
(9.1647954 0.011196989 0.099435924)
(9.1259695 0.0083585161 0.10078537)
(9.1317352 0.0057239029 0.08545684)
(9.2353288 0.017331155 0.10707074)
(9.2141448 0.010036896 0.11132659)
(9.16943 0.0080402665 0.11453406)
(9.1766993 0.0042176364 0.098182503)
(9.2846992 0.014752514 0.12280813)
(9.2768862 0.0090585777 0.12084601)
(9.2258392 0.0080340821 0.12593883)
(9.2346117 0.0029294206 0.10900762)
(9.3464252 0.012058857 0.13627076)
(9.3520439 0.0082558624 0.1277248)
(9.2953925 0.0081561904 0.13455843)
(9.3057457 0.0018795248 0.11741175)
(9.421437 0.0092938953 0.14702953)
(9.4374831 0.0076263814 0.13149948)
(9.3757187 0.0082895824 0.14013682)
(9.3874868 0.0011362423 0.12302549)
(9.5064934 0.0065950381 0.15464439)
(9.5305657 0.0071557902 0.13212928)
(9.4644474 0.008621805 0.14235115)
(9.4774158 0.0004743662 0.12539579)
(9.5995715 0.0044124418 0.15788039)
(9.6280532 0.007008073 0.13001861)
(9.5583857 0.0090070241 0.14169759)
(9.5730233 7.4689558e-05 0.1248)
(9.6988812 0.0029902937 0.15697682)
(9.7290075 0.0062979107 0.12387053)
(9.6553273 0.0095566341 0.13881522)
(9.6712802 7.0473431e-05 0.12118298)
(9.8009441 0.0021736531 0.15283742)
(9.8285952 0.0019633335 0.11211262)
(9.7548985 0.0094490544 0.13139093)
(9.7707764 -0.0019080987 0.11393291)
(9.9046285 0.00077652088 0.14103332)
(9.9196578 -0.0095067662 0.10060032)
(9.8512363 0.0044017962 0.11686727)
(9.8676089 -0.0061893965 0.10130608)
(10.002727 -0.0042998401 0.12097767)
(10.010224 -0.034058838 0.10675274)
(9.9383795 -0.0097389404 0.10821081)
(9.9588045 -0.015527691 0.09202197)
(10.084149 -0.017374973 0.10523925)
(10.149585 -0.072574614 0.14677914)
(10.032953 -0.038201391 0.13160333)
(10.060359 -0.036266399 0.10619372)
(10.155359 -0.05197403 0.12005221)
(10.407728 -0.097619407 0.19504405)
(10.220138 -0.074326998 0.1974421)
(10.245142 -0.063177812 0.15146148)
(10.300659 -0.10537295 0.17985291)
(10.729673 -0.084481407 0.19830133)
(10.596727 -0.080773267 0.23900259)
(10.600555 -0.064772036 0.17940439)
(10.633979 -0.11854073 0.2177636)
(10.964591 -0.048980475 0.21037634)
(10.95213 -0.045766632 0.16140991)
(10.974601 -0.084157355 0.1797661)
(9.29548 0.00068818923 -0.072477981)
(9.3042664 -0.0037799531 -0.092596768)
(9.3139226 0.0038359388 -0.080649702)
(9.3497316 0.0024125988 -0.10788917)
(9.2245384 0.0022181774 -0.049799157)
(9.2298146 -0.0029246352 -0.067935542)
(9.2404856 0.0044883974 -0.060216344)
(9.267764 0.0049248634 -0.080898452)
(9.165053 0.0032106929 -0.026586868)
(9.1683365 -0.0022345612 -0.042498277)
(9.1770325 0.0047981494 -0.039160043)
(9.1965008 0.0071076722 -0.053137941)
(9.1184176 0.0035848002 -0.0032278213)
(9.1208295 -0.0018603625 -0.016789666)
(9.1254114 0.0045650257 -0.017632646)
(9.1376677 0.0085626617 -0.025089939)
(9.085325 0.0034556874 0.019730571)
(9.0877497 -0.0018013296 0.0087574656)
(9.0869327 0.0038347429 0.0039304239)
(9.092045 0.0095314055 0.002713595)
(9.066531 0.0031286729 0.04185789)
(9.0695477 -0.0018891488 0.033592324)
(9.0627777 0.0027747813 0.025057412)
(9.0605768 0.010111127 0.029554499)
(9.0622222 0.0030608051 0.062866597)
(9.0663219 -0.0017338147 0.057407715)
(9.0533921 0.0018901033 0.045497847)
(9.0442924 0.01058933 0.055160423)
(9.0723515 0.0035791465 0.082448555)
(9.0772898 -0.0010699084 0.07993329)
(9.0581286 0.0014957329 0.064872502)
(9.0430664 0.011442431 0.079247318)
(9.0963425 0.0045319553 0.10030672)
(9.1013586 0.00016135441 0.10094091)
(9.0764981 0.0015518622 0.082925174)
(9.0569455 0.012925802 0.10149057)
(9.1339677 0.0055654497 0.11624594)
(9.1380856 0.0016288853 0.11993433)
(9.1084482 0.0016002728 0.099491034)
(9.0873362 0.014207299 0.12165257)
(9.1849289 0.0067720003 0.12993502)
(9.1871982 0.0032250509 0.13657047)
(9.1536149 0.0015681255 0.11455874)
(9.1315426 0.014884792 0.13971245)
(9.2483317 0.008194459 0.14084935)
(9.2479409 0.0052284112 0.15034574)
(9.2114284 0.0017539713 0.12756717)
(9.1892505 0.015470494 0.15515094)
(9.3230113 0.009627519 0.14865851)
(9.3196795 0.0073956025 0.16069384)
(9.2813884 0.0020040334 0.13800389)
(9.2601045 0.015698303 0.16743362)
(9.406775 0.011069303 0.1531545)
(9.4006391 0.0094815075 0.16724013)
(9.3615375 0.0021859364 0.14561789)
(9.34193 0.015482161 0.17609662)
(9.4964242 0.012537818 0.15450265)
(9.488253 0.011406295 0.1696192)
(9.4494322 0.0024330678 0.14996499)
(9.4324899 0.015155105 0.18067075)
(9.5888012 0.014044545 0.15369251)
(9.5789591 0.012884302 0.16816701)
(9.5417229 0.0029724726 0.15116472)
(9.5281774 0.014675688 0.1814266)
(9.684461 0.015782994 0.15037155)
(9.671371 0.013611597 0.16424814)
(9.6364498 0.004370391 0.14953605)
(9.6276175 0.014137433 0.17999743)
(9.7822262 0.014305867 0.13936109)
(9.7678776 0.012607385 0.1547187)
(9.733208 0.0066221104 0.14219213)
(9.7312612 0.013429433 0.17349515)
(9.8735023 0.0051777119 0.12585505)
(9.861849 0.010563815 0.14118698)
(9.8289983 0.0032579631 0.12720395)
(9.8339636 0.010086733 0.15147985)
(9.9717077 -0.013047539 0.13427805)
(9.9441424 0.0030973355 0.13385898)
(9.9213393 -0.0024592718 0.11614318)
(9.9261155 -0.0012036091 0.13299715)
(10.128718 -0.038021604 0.18501651)
(10.035713 -0.011896343 0.16485918)
(10.029051 -0.01154728 0.13546752)
(10.020552 -0.025944072 0.15247178)
(10.410491 -0.05363431 0.24642908)
(10.229425 -0.030414667 0.24680371)
(10.229952 -0.021948266 0.19528636)
(10.212151 -0.060578294 0.22786955)
(10.753605 -0.045161039 0.25179001)
(10.619845 -0.036293048 0.29742527)
(10.606531 -0.022058386 0.23362296)
(10.613546 -0.070231819 0.27904466)
(10.988932 -0.020633564 0.25486503)
(10.967662 -0.016117018 0.20900301)
(10.998667 -0.049203114 0.23339494)
(9.2369492 0.00061177824 -0.081876508)
(9.3026949 0.0054046263 -0.092823457)
(9.2686435 -0.0040521525 -0.13174048)
(9.2687224 0.0053207178 -0.13174919)
(9.1726455 0.00054682974 -0.054325167)
(9.2281187 0.0045137181 -0.068192041)
(9.1865147 -0.0028484676 -0.099349681)
(9.1866175 0.003997217 -0.099388548)
(9.1238077 0.00033520942 -0.026418879)
(9.166463 0.0035077532 -0.042700781)
(9.1183923 -0.0015852033 -0.065913114)
(9.1185118 0.0024806747 -0.065961408)
(9.0907106 -7.2004452e-05 0.0012916278)
(9.1187989 0.0023710665 -0.016854064)
(9.0650336 -0.00052072205 -0.032424507)
(9.065207 0.00081759244 -0.032458364)
(9.0732823 -0.00060100234 0.028370439)
(9.0859276 0.0010645677 0.0088974564)
(9.0271869 0.00047936664 0.00067850965)
(9.0273894 -0.0010916178 0.00070908417)
(9.0712559 -0.0010558271 0.054319988)
(9.0684667 -0.0002053516 0.033968466)
(9.0057679 0.0015710112 0.032763481)
(9.0059222 -0.0031227154 0.032883442)
(9.0837521 -0.0012742342 0.078790239)
(9.0662579 -0.0012194315 0.05792663)
(9.0013053 0.0028848772 0.06329821)
(9.0013383 -0.004982823 0.06351317)
(9.1094076 -0.0012610822 0.10155651)
(9.0778651 -0.0019977517 0.080420348)
(9.0131446 0.0044142603 0.092029478)
(9.0130036 -0.0066341232 0.092251683)
(9.146444 -0.0011268382 0.12216546)
(9.1019925 -0.0029058618 0.10131101)
(9.0389585 0.0060554557 0.11881629)
(9.0386514 -0.0081561548 0.11898307)
(9.1945967 -0.00092638846 0.13997081)
(9.1385741 -0.0040014153 0.12025002)
(9.0770532 0.0072978466 0.14308119)
(9.0766725 -0.0092287481 0.14317823)
(9.2539049 -0.00062264678 0.15438253)
(9.1878609 -0.0051091492 0.13688726)
(9.1275784 0.0080445823 0.16430137)
(9.1271599 -0.009635992 0.16436049)
(9.3231595 -0.00024254028 0.16480951)
(9.2489784 -0.0062838831 0.15057086)
(9.1900817 0.0085431349 0.18197668)
(9.1896489 -0.0095466037 0.18197868)
(9.4011861 9.6616651e-05 0.17081295)
(9.3210005 -0.0075169758 0.16075586)
(9.2637966 0.0086492975 0.19546776)
(9.2634479 -0.0090087798 0.19537257)
(9.4861054 0.00031037597 0.17214937)
(9.4020935 -0.0089117486 0.16716226)
(9.3475881 0.0083118693 0.20426016)
(9.3474068 -0.0081413062 0.20411226)
(9.5750811 0.00041050633 0.16914667)
(9.4894846 -0.010456807 0.16944331)
(9.4391438 0.0076163741 0.20786169)
(9.4391357 -0.007110846 0.20773838)
(9.6650955 0.00046592927 0.16343375)
(9.5798535 -0.011791058 0.16794022)
(9.5351116 0.0066401247 0.20640615)
(9.5352148 -0.0059062687 0.20635641)
(9.7557655 0.00054796917 0.15569552)
(9.6718263 -0.012435565 0.16400179)
(9.6344391 0.0051661287 0.20160375)
(9.6346006 -0.0043063786 0.20155359)
(9.8527284 0.0006474117 0.14557421)
(9.7676514 -0.011232617 0.15445778)
(9.7392472 0.0037379847 0.19142694)
(9.7394685 -0.0026586624 0.19137388)
(9.9366735 0.00072936535 0.13877504)
(9.8606753 -0.0090254399 0.14092045)
(9.8410531 0.0042752745 0.17314227)
(9.8413352 -0.0030379559 0.17301096)
(10.0195 0.0006594744 0.15968438)
(9.9419766 -0.001317038 0.13343805)
(9.9248715 0.0032910209 0.158751)
(9.9251898 -0.0018420922 0.15864468)
(10.161503 0.00033664516 0.23291927)
(10.032706 0.013171513 0.16455481)
(10.010774 -0.0020086057 0.18999664)
(10.011135 0.0030311548 0.18990784)
(10.436905 -4.7501931e-05 0.3145874)
(10.226037 0.030586269 0.24685542)
(10.211556 -0.01070416 0.28629258)
(10.211888 0.011000553 0.2863099)
(10.790876 -0.00014852901 0.31483179)
(10.617203 0.035557592 0.29782309)
(10.641302 -0.01663748 0.34662826)
(10.641508 0.016415977 0.34676505)
(10.987828 0.020218158 0.25522499)
(11.033988 -0.013879427 0.27515619)
(11.034052 0.013942153 0.27533134)
(9.61084 0.032424395 0.020435501)
(9.4788542 0.019072663 0.0068281238)
(9.5837705 0.028426624 0.028368177)
(9.7849843 0.030267062 0.036026636)
(9.5882683 0.037808108 0.015887232)
(9.4485627 0.025990449 0.0044178931)
(9.5384804 0.034657833 0.022676193)
(9.7847516 0.033239776 0.029932853)
(9.5925293 0.040534961 0.010930601)
(9.437889 0.031043948 0.0018503686)
(9.5172438 0.038184196 0.016460997)
(9.8122457 0.033884614 0.022771399)
(9.624749 0.040950707 0.0060023798)
(9.4463462 0.034073995 -0.00061151055)
(9.5189279 0.039608615 0.0097480503)
(9.8546655 0.032936635 0.01540336)