/*--------------------------------*- C++ -*----------------------------------*\
  =========                 |
  \\      /  F ield         | OpenFOAM: The Open Source CFD Toolbox
   \\    /   O peration     | Website:  https://openfoam.org
    \\  /    A nd           | Version:  8
     \\/     M anipulation  |
\*---------------------------------------------------------------------------*/
FoamFile
{
    version     2.0;
    format      ascii;
    class       volScalarField;
    location    "0.0640000";
    object      p;
}
// * * * * * * * * * * * * * * * * * * * * * * * * * * * * * * * * * * * * * //

dimensions      [0 2 -2 0 0 0 0];

internalField   nonuniform List<scalar> 
600
(
1443734.13054451
4399869.43903245
7462101.6247487
10601135.2835836
13824303.7950346
17137680.3301846
20545111.3463264
24050336.2058887
27657211.829232
31370019.7907485
35193327.9236354
39132002.7963872
43191134.5177416
47376156.767971
51692878.4481978
56147461.1150427
60746432.0078078
65496673.3091203
70405612.7688335
75481139.5280031
80731690.3948218
86166117.1224339
91794057.7375093
97625778.0394601
103672327.653238
109945329.866393
116457448.910576
123222273.311302
130254483.276637
137569682.366656
145184754.262141
153118032.288541
161389384.733165
170020189.199005
179033345.453476
188454073.535265
198309773.093297
208630390.045512
219447394.015017
230796163.00284
242715137.715286
255247227.590486
268436131.659244
282332269.98731
296990449.732287
312472185.58368
328840022.02158
346164966.958437
364525715.573152
384010603.563288
404709372.330329
426719051.238408
450150600.439893
475126965.894237
501772485.159159
530207361.385295
560575652.559393
593024475.95704
627704585.00808
664610649.68949
703723661.131055
744944747.596371
788045014.212699
832300386.533431
877243099.701234
922294146.019034
966747962.51575
1009542873.52156
1050065339.16187
1087696739.7729
1121758855.19751
1151706290.44284
1177288754.53961
1198278502.75089
1214514629.81182
1225995946.08235
1232676033.81047
1234465400.22928
1231373046.7606
1223193407.32915
1209544814.34998
1189995459.02293
1163570235.01737
1129453407.38776
1084901048.48879
1029975078.53101
955182333.622123
888275855.959001
819017861.506929
751044683.061883
682421698.324164
613671205.941767
544239259.150169
474190276.843879
403403704.505312
331836914.539759
259475899.037691
186308428.389129
112379441.840061
37702338.5440639
1459049.74642248
4418473.3983753
7488021.57369325
10630529.3679345
13855333.263102
17169568.2653859
20577507.0369443
24083044.0390689
27690199.0249904
31403272.4350098
35226845.6858831
39165772.1336069
43225168.4001492
47410473.5479724
51727483.3979454
56182352.1369347
60781601.7155719
65532148.391092
70441394.3883585
75517231.5001042
80768064.5965164
86202811.8772669
91831070.5782365
97663115.1722649
103709943.234936
109983258.708256
116495689.603349
123260827.920102
130293300.727239
137608763.284986
145224111.234543
153157656.43622
161429221.437626
170060161.431875
179073493.417842
188494359.285064
198350148.617182
208670589.516278
219487533.139785
230836135.3667
242754942.040517
255286181.149421
268474500.41667
282369821.979836
297027130.541835
312506904.134656
328872838.316175
346195665.117697
364554090.936313
384034993.152881
404729005.628698
426733985.244804
450160217.346593
475128920.068337
501763772.743063
530189090.244216
560545442.622836
592979829.124717
627623646.495054
664494706.760203
703565512.110767
744736956.911222
787741760.057467
831947866.537446
876837910.181303
921838938.469454
966216221.637237
1008994544.36023
1049504735.60128
1087125300.52108
1121192492.18835
1151175851.82236
1176797117.66879
1197832758.79035
1214129708.32557
1225670206.41911
1232407037.4627
1234263082.25288
1231225023.31781
1223096715.13061
1209495137.17664
1189978180.37807
1163587234.59935
1129509616.9277
1084943313.09112
1030058313.46167
955433777.894626
888475753.576724
819163229.518728
751178107.913837
682532702.553534
613750888.637243
544307905.710782
474243405.747671
403439502.028309
331859863.77611
259484426.621628
186299567.512598
112355187.498435
37610806.8394772
1460925.9068863
4423110.57663723
7493037.01366431
10635560.5075867
13860693.0448475
17175200.332997
20583250.9560458
24088772.7768222
27695860.4840251
31408841.4950452
35232303.855954
39171100.6303213
43230361.6879679
47415530.5702146
51732395.3315153
56187103.029941
60786175.8040309
65536542.8616917
70445597.1694358
75521222.5660701
80771816.0528774
86206320.3058908
91834319.7864481
97666078.9462668
103712578.961244
109985553.186012
116497620.939803
123262361.667936
130294379.29264
137609349.298575
145224176.632449
153157154.481041
161428071.587107
170058278.227927
179070838.333908
188490864.26292
198345694.263352
208664987.276483
219480734.54907
230828038.611398
242745367.572724
255274730.219961
268461106.141211
282354309.971795
297009192.324141
312485874.123641
328848453.975401
346167680.883773
364522005.57415
383997690.073488
404685718.943427
426684380.478088
450103470.272345
475063177.364498
501687203.865835
530101106.309526
560444237.698244
592860289.115486
627475611.164725
664313739.058426
703346657.122218
744468908.430752
787412201.770977
831568916.821012
876416607.810201
921374158.508663
965710503.473466
1008470743.56776
1048976325.08864
1086599682.94616
1120684117.28388
1150702056.84167
1176366559.80123
1197452845.60771
1213808337.86374
1225408750.54159
1232206333.63251
1234126624.28026
1231146657.09692
1223073030.38951
1209523691.29916
1190056656.33745
1163707760.03754
1129676807.60976
1085141916.95425
1030335591.39193
955638849.728293
888685910.29168
819330391.159701
751322738.298671
682653383.602105
613851596.247128
544390325.312914
474310123.002154
403490817.517999
331896442.644578
259506686.759883
186307770.214393
112349018.073351
37608010.6019149
1452203.00616849
4405010.00736716
7459092.5573571
10596340.9814351
13819896.751155
17133595.5883329
20540928.7499898
24045685.7784919
27651950.2903828
31364060.4306699
35186609.2106484
39124452.9350821
43182726.7108717
47366875.4558901
51682682.5378377
56136289.7253658
60734218.3175342
65483399.665885
70391222.1755117
75465561.8067203
80714812.5161107
86147921.8262472
91774468.8096643
97604707.0232371
103649611.018757
109920919.605251
116431247.971692
123194162.724162
130224255.700898
137537204.637764
145149914.604951
153080664.18143
161349220.062814
169976926.815231
178986857.640096
188404109.771161
198255979.818774
208572103.120171
219384504.496875
230728274.372441
242641801.076193
255167030.534181
268349026.910946
282237591.681494
296887443.726534
312358594.681037
328715249.149648
346028195.624187
364375693.370561
383843773.856598
404523536.647537
426513448.785835
449923056.219062
474872073.542388
501484339.914987
529885758.787919
560215447.115278
592615041.456626
627210198.965152
664025967.867817
703035589.660717
744129626.268115
787044131.800756
831177912.370548
876010469.233179
920954410.078578
965284929.013414
1008050939.84808
1048572893.27067
1086219211.98157
1120336296.90821
1150395963.37615
1176108225.54473
1197246883.23158
1213658424.00544
1225316152.61668
1232172532.2024
1234152770.28197
1231231442.21274
1223215996.6187
1209726297.83463
1190321986.29699
1164035907.05
1130075639.43281
1085620021.15137
1030898448.24037
955806423.804785
888872722.701931
819494966.713603
751465993.658478
682779244.130542
613962239.433371
544485101.490937
474390568.975295
403557444.100958
331949015.021918
259545561.524017
186333601.823916
112362466.647537
37619438.7060446
1410769.95570505
4342371.12766112
7375621.59823149
10506229.9495978
13727629.6489742
17039865.0958437
20445722.5042814
23948899.4093384
27553486.3016235
31263840.1558163
35084564.223569
39020518.4419179
43076838.9643606
47258968.9581839
51572687.5527046
56024131.955364
60619820.0043622
65366680.4958089
70272096.6887699
75343938.3031461
80590594.0453991
86021008.8597181
91644755.1200031
97472078.1251788
103513944.783289
109782090.194839
116289121.484858
123048594.900507
130075091.323002
137384281.507284
144993061.741797
152919697.379962
161183939.292253
169807119.75393
178812303.248654
188224570.341351
198071194.448701
208381789.610469
219188375.584947
230526021.362601
242433081.176012
254951465.286568
268126245.039349
282007189.613227
296648971.806867
312111559.569187
328459165.626674
345762550.819997
364099916.312253
383557240.255229
404225641.875542
426203589.176832
449600565.213285
474536236.130649
501134537.710895
529521444.508088
559836193.281796
592220525.501331
626800893.224979
663603305.993075
702602008.421031
743688106.763198
786600322.512372
830738243.631853
875581324.734501
920542024.671499
964897839.614752
1007696702.16837
1048257649.14827
1085948519.19282
1120115642.26116
1150228975.65781
1175997203.57342
1197193645.94073
1213664053.42686
1225381103.43062
1232297897.29378
1234339662.39269
1231481369.16587
1223531869.65445
1210113392.58529
1190787531.40969
1164589144.72954
1130730221.12599
1086402247.29731
1031777585.48265
955958073.179337
889047718.170123
819664592.640618
751616965.821574
682918513.941275
614087923.565785
544597516.814385
474489177.527911
403642334.278897
332019701.762029
259601850.490175
186375618.218758
112390625.025274
37631890.7933021
1337672.37354464
4242107.5781701
7256714.97949388
10382107.1217259
13601664.3844506
16912311.9900756
20316417.329869
23817680.6834186
27420233.7713613
31128462.3838867
34946982.7134993
38880657.5478771
42934621.1432904
47114312.8544696
51425507.8332225
55874339.4059882
60467320.5329004
65211374.900863
70113880.2730181
75182701.5450103
80426221.0927672
85853377.1598351
91473734.7157489
97297532.7747467
103335730.326477
109600053.806723
116103099.966456
122858416.685676
129880575.103442
137185233.952029
144789275.744899
152710953.705412
160970007.370341
169587753.715492
178587237.965255
187993522.984832
197833870.656804
208137877.869692
218937534.806238
230267883.718548
242167270.5473
254677594.222213
267843880.007697
281715855.818434
296348194.813207
311800872.116937
328138041.263545
345430395.406793
363756147.161148
383201342.331016
403857057.013717
425821639.517318
449204607.989821
474125842.381737
500709362.528297
529080972.063077
559380187.533712
591749932.996372
626318604.671092
663112399.061312
702106332.499982
743194560.022177
786118650.790386
830273946.090713
875139752.844503
920131821.346967
964528572.617516
1007372476.22127
1047982222.93658
1085727174.59854
1119951462.30109
1150122248.5275
1175948419.45522
1197203149.12801
1213731289.986
1225506179.127
1232481589.18958
1234582788.61165
1231786740.02398
1223903956.45643
1210558537.96224
1191315732.54663
1165211062.79031
1131466678.09592
1087275625.76989
1032780928.59245
956078680.697719
889217638.943758
819827213.701443
751767325.72753
683058494.721439
614216703.556113
544714314.109799
474593106.555401
403733122.45821
332096710.730654
259664655.121724
186423923.805465
112425035.043241
37656232.2337909
)
;

boundaryField
{
    dieWall
    {
        type            zeroGradient;
    }
    outlet
    {
        type            fixedValue;
        value           uniform 0;
    }
    Wire
    {
        type            zeroGradient;
    }
    inlet
    {
        type            fixedValue;
        value           uniform 0;
    }
    back
    {
        type            wedge;
    }
    front
    {
        type            wedge;
    }
}


// ************************************************************************* //
