/*--------------------------------*- C++ -*----------------------------------*\
  =========                 |
  \\      /  F ield         | OpenFOAM: The Open Source CFD Toolbox
   \\    /   O peration     | Website:  https://openfoam.org
    \\  /    A nd           | Version:  8
     \\/     M anipulation  |
\*---------------------------------------------------------------------------*/
FoamFile
{
    version     2.0;
    format      ascii;
    class       surfaceVectorField;
    location    "0.0640000";
    object      Uf;
}
// * * * * * * * * * * * * * * * * * * * * * * * * * * * * * * * * * * * * * //

dimensions      [0 1 -1 0 0 0 0];

internalField   nonuniform List<vector> 
1691
(
(0.720844587229105 0.000288042746057341 -5.40792162467962e-18)
(0.543418337231786 0.000977365697461632 -5.67689611867389e-18)
(0.720964219969659 0.000189015191484206 -2.41745232145307e-18)
(0.544559908753373 0.00100815862025061 -3.66964830885552e-18)
(0.72108409651711 0.000180827326571417 1.69895205949957e-18)
(0.544596696233878 0.0010248337185346 1.99921122480924e-18)
(0.721072664183283 0.000196441911858046 3.21943317984844e-18)
(0.544682078415013 0.00109640952752464 9.94604446319578e-18)
(0.720992182367 0.000203192681147734 8.88213630611189e-18)
(0.544531661547262 0.00113586530580019 1.31458345604288e-17)
(0.720880793934116 0.00020825172214023 1.12675191388954e-17)
(0.544307351417732 0.00115684911564561 2.73768270908134e-17)
(0.720760093493333 0.000212110980846472 8.60645104099858e-18)
(0.544051441053092 0.00116867848978975 1.84263751297314e-17)
(0.720636173262571 0.000215241117925187 1.83835023633308e-17)
(0.54378593842574 0.00117686512313919 1.69227808542233e-17)
(0.720509698626238 0.000217914538259437 2.44015069154494e-17)
(0.543515360821752 0.00118332939169723 3.05745311574873e-17)
(0.720380899043823 0.000220597108912281 2.17731502876556e-17)
(0.543240191866968 0.00118945182761787 3.8979037174825e-17)
(0.720250558166629 0.000223246281057057 6.0936208132456e-18)
(0.542960706080837 0.00119596754234607 1.83081054537502e-17)
(0.720118029594455 0.000225592122360262 -6.94355157214944e-18)
(0.542676822279161 0.00120213599154039 -2.52221865603518e-17)
(0.71998229989461 0.000227783615428229 -8.27459578704874e-18)
(0.542387389512795 0.00120785959866769 -3.25513137290051e-17)
(0.719843069566996 0.000230167915282141 -2.21850492124726e-17)
(0.542091545061506 0.00121366097059501 -3.28645310593872e-17)
(0.719700899491398 0.000232608059235336 -1.99217376944359e-17)
(0.541789497677006 0.0012200788980274 -5.42228575473557e-17)
(0.719555293078066 0.000234713308325299 -1.43350234340689e-17)
(0.541481084897782 0.00122615965684691 -1.6696695593381e-17)
(0.719406100120337 0.000236620814063826 -1.11837480276613e-17)
(0.541165644399482 0.00123167923553881 -3.95505450917004e-17)
(0.719253291239549 0.000238810657890275 -4.89472345687834e-18)
(0.540843145287797 0.0012372827192649 -4.66300179373907e-18)
(0.719097185929365 0.000241163679563453 -1.23113358716316e-17)
(0.540513485570612 0.00124380083105264 -1.2756968120572e-17)
(0.718937058715638 0.000243268166085948 -6.78066300288339e-18)
(0.540176314461202 0.00125005310537364 -2.94477193611989e-17)
(0.718772523040105 0.000245270490647881 -6.54636197179291e-19)
(0.539830975655877 0.0012559706321539 1.38148487560924e-17)
(0.718603511423094 0.000247573218945939 4.0422705323412e-18)
(0.539476954779073 0.00126207053106257 7.2460013010648e-18)
(0.718430821903395 0.000250013801453803 1.01393359588103e-18)
(0.539114568520467 0.00126910432937746 3.00543596953275e-17)
(0.718253644483633 0.000252224239418855 4.80475709987713e-18)
(0.538743626467517 0.00127583025327797 1.37205866098463e-17)
(0.718071530189811 0.000254430652552437 2.19229594810098e-17)
(0.538363152722517 0.00128235365123447 4.65497674169065e-17)
(0.717884239372188 0.000257125004922423 4.78595078763486e-18)
(0.537972790574614 0.00128926705597022 3.46677462511459e-17)
(0.717692771621715 0.000259983163953856 -4.0797076456275e-18)
(0.537572623030195 0.0012975526963713 -2.94514648326224e-17)
(0.717496515885755 0.000262503325194423 -1.50911216078757e-18)
(0.537162620012902 0.00130523578150149 1.27534921415277e-17)
(0.717295345458115 0.000265094323850414 7.15712694504105e-18)
(0.536742171427006 0.00131272944488813 -1.68555405179412e-17)
(0.717088923065555 0.000268498393256197 -3.76886647966431e-18)
(0.536310846889919 0.00132089013938189 -2.24087891225076e-19)
(0.716878487347078 0.000272278803068742 -5.17914755603133e-17)
(0.5358689321162 0.00133126198441071 -5.98508673351256e-17)
(0.716662606132227 0.000275739992514723 -1.48913628282248e-17)
(0.535416109860558 0.00134094879882985 -1.05148336686574e-16)
(0.716441044611815 0.000279415739538304 2.80827430740781e-18)
(0.534951260355658 0.00135065971127693 4.54919984988977e-17)
(0.716213849155629 0.000284386650143544 -1.84525891377646e-17)
(0.534474191996087 0.00136135572664955 8.24704645810596e-18)
(0.715983763697616 0.000289924283531793 6.72150969472545e-18)
(0.533986189433306 0.00137561513345714 4.48766448272228e-17)
(0.715748697422494 0.000295048630048253 1.15380542371913e-17)
(0.533487277942479 0.00138856864082436 2.49896522034942e-17)
(0.715508756661489 0.000300812543024309 6.05568679106037e-17)
(0.532976191885415 0.00140195053332819 2.05112536368787e-17)
(0.715264294930945 0.00030876816992251 9.61858649972904e-17)
(0.532453465008959 0.00141740371263358 1.15154935721058e-16)
(0.715018779718886 0.000317747119851878 -1.12556068123818e-17)
(0.531920892799697 0.00143837045520111 6.0390482026104e-17)
(0.714769936658093 0.000326333230850137 -7.09198573045887e-17)
(0.531378768545349 0.00145772799019143 -1.31739190571814e-16)
(0.714518548134495 0.000336306846934393 -3.7110145109704e-17)
(0.530826702357232 0.00147803640002651 8.49045653694905e-19)
(0.714265760285077 0.000350027747972492 -2.54334598107802e-17)
(0.530266540525413 0.00150247116451464 -7.26578306157293e-17)
(0.714016840797959 0.000365408359187075 -2.42890001071124e-17)
(0.529701399159588 0.00153560821922544 -2.73482405661772e-17)
(0.713769441184833 0.000380344159005972 -1.6737763909577e-17)
(0.529132711293 0.00156624889029863 -4.32266098867487e-17)
(0.713525446689274 0.000398142044935924 1.03249643541952e-17)
(0.528562011044092 0.00159875622128075 7.18458431614899e-17)
(0.713287575572073 0.000422393789458148 4.12789085357193e-17)
(0.527993687273766 0.00163947550410046 4.12240781680861e-17)
(0.713063409999515 0.000449219669050771 2.55273513158895e-17)
(0.527433129838704 0.0016938523403944 6.41071235697843e-17)
(0.712850915893629 0.000475539986965681 -4.76700704707625e-18)
(0.526883714508652 0.00174407441695669 6.3828947637012e-17)
(0.712655430174089 0.000507720729856117 -1.22611715253281e-17)
(0.52635219752833 0.00179789959830451 4.04530356240541e-18)
(0.71248401209527 0.000550691896836255 -6.58462170581639e-17)
(0.525849628540723 0.00186822742983002 -4.97627372023056e-17)
(0.712346864638454 0.000597147993119181 -5.29309381661809e-17)
(0.525384914942079 0.00195827208270182 -1.50505147810441e-16)
(0.712245280952068 0.000643207163826122 1.32625702544209e-18)
(0.524966423912713 0.00204147570395781 -1.96611844020806e-17)
(0.712189465307306 0.000701040044235217 4.64853200336213e-17)
(0.524614082524002 0.00213174542108759 5.72539771851979e-18)
(0.71219387246167 0.00077616029515638 7.39144149339419e-17)
(0.524347793583147 0.00225446545902772 1.25218367883959e-16)
(0.712273010061872 0.000854925316740633 2.30659439983797e-17)
(0.524183716270276 0.0024021395607789 6.27625507109983e-17)
(0.712437926433858 0.000933450212836117 5.57852307895338e-18)
(0.524144021745816 0.00253869563189588 -7.90950885994495e-17)
(0.712711068931284 0.00103453887150739 3.39363794868915e-17)
(0.524274926594211 0.00268789636385547 -4.73502518534434e-18)
(0.713128114213605 0.00116409599811279 3.24684849864481e-17)
(0.524620817627249 0.00289892464322567 3.91726776698779e-17)
(0.713730866699229 0.00130789940567076 -2.63988360026216e-17)
(0.525226842229632 0.00314303155713528 4.10045776403857e-17)
(0.714659864808262 0.00147372187712978 -4.70949650050374e-17)
(0.526201890862765 0.00340545798345109 -9.62719985891814e-17)
(0.716142653229812 0.00174591724057076 2.2067525489196e-17)
(0.52782618098118 0.00373359658836818 -4.31019456915621e-17)
(0.71848061056641 0.00214837926072499 2.84621885964771e-17)
(0.530468187288103 0.00434607102358577 1.43314207819978e-16)
(0.72179022504066 0.00258511689356611 4.58324319664754e-17)
(0.534368185315716 0.0050982771371576 2.17901761488676e-17)
(0.726172203773643 0.00303852611654765 7.25632767498983e-17)
(0.539751573537353 0.00583342862606185 1.27047059227238e-16)
(0.731570035986646 0.00363829061038514 3.89607729841421e-17)
(0.547023636224423 0.0066570283606898 8.59878265756547e-17)
(0.738013575987159 0.00422490818422522 5.88605721556237e-18)
(0.556042794960394 0.00782131510803947 6.39323806986283e-17)
(0.745454619919155 0.00461388803868857 -1.38520173247118e-17)
(0.566778974650989 0.00857905881748095 -3.51403788811372e-17)
(0.754041503872749 0.00493343257763321 -2.22396308386027e-17)
(0.579653252665378 0.00910444966460766 -1.55979920985823e-17)
(0.763688054762957 0.005256256861739 -6.68280823250971e-18)
(0.594593925806271 0.00958828392821872 -7.91443263590275e-17)
(0.774419031704218 0.00543485938682036 -3.18720618549369e-17)
(0.611373634463119 0.010051903988964 4.65629110898823e-17)
(0.786163348957914 0.00540299808833681 -9.82632174542086e-17)
(0.629968863832431 0.0100317567062162 -1.71161253921719e-16)
(0.798856634589847 0.00529368433193577 -9.36995920146871e-17)
(0.650485815798195 0.00979609295850777 -2.19410850255669e-16)
(0.812341711015269 0.00507490053530399 -8.87462748897064e-17)
(0.672429847986631 0.00944897425157245 -2.19228007274647e-16)
(0.826529997440886 0.00470831289724592 -2.72340249462913e-17)
(0.695659172106949 0.00881538150756435 -1.82354137357905e-16)
(0.841284266405726 0.00425069953472922 4.51901589840228e-17)
(0.720019555036788 0.00796576575886346 9.06853306815978e-17)
(0.856529470346332 0.00371406868137959 3.8755702822951e-17)
(0.745291563734462 0.006997422341574 8.96091538952818e-17)
(0.872140765834656 0.00310907898638258 -2.44775842386722e-19)
(0.771124940345145 0.0058647796128163 6.97335944398256e-17)
(0.8881523492941 0.0025048139193079 1.35799480933142e-18)
(0.797824168023653 0.00466975474776944 -6.62657363541409e-17)
(0.904396879125015 0.00189126460551194 -8.68789017260834e-17)
(0.824640440465463 0.00351872826845806 7.20295186263296e-17)
(0.921144835216312 0.00129198953945814 -1.25497017483512e-16)
(0.85254864558611 0.00229666004801878 -3.09646471267029e-16)
(0.938064497964872 0.000727610554058025 -2.31711982879051e-17)
(0.880045325019967 0.00117239298977744 -2.32910414597617e-17)
(0.955974838682447 0.000274299049035537 -3.1990202465096e-17)
(0.910107901339401 0.000102537552143946 -5.89907849197228e-18)
(0.974016672066947 -0.000137474637018696 -8.61793047696219e-19)
(0.938258854246995 -0.000679194070616723 -1.27809702484489e-16)
(0.994134434881292 -0.000354683224162467 2.76383207986769e-17)
(0.97281911644488 -0.00159398565764027 1.54117146754975e-16)
(1.01377373197741 -0.000610393334758031 5.70905868276195e-18)
(1.00132733620063 -0.00187242244303227 2.11949656549476e-17)
(1.03580589608299 -0.000316689527922407 2.10230705774641e-18)
(1.0452007611742 -0.00240011878661852 2.65477871463277e-17)
(1.0355931601955 -4.5950925618429e-05 4.71257989441931e-19)
(1.06186806162662 -0.000334655416662708 -1.82783692745947e-17)
(1.03856552403807 5.75090199371241e-05 1.06323810593742e-17)
(1.05527575349863 -0.000337814621642797 1.99526354336122e-17)
(1.03914836015305 0.000103160749696764 1.00395689401538e-17)
(1.06159835417774 -2.31009384004084e-05 3.16742515872178e-17)
(1.04055490343486 0.000178362292729478 2.67747557918625e-17)
(1.05921610667806 1.34762603432286e-05 -2.89347998814705e-18)
(1.04077859708774 0.000225984207873454 1.80587027373469e-17)
(1.06132228536973 0.000207928132691036 6.11298964689726e-17)
(1.04110456895769 0.000228435256261027 -2.14541902764844e-17)
(1.05992674039804 0.000230892106927413 -1.67694127406503e-17)
(1.04096976255564 0.000241961003919408 -2.26511789688636e-17)
(1.06017386544341 0.00029352864531614 -4.63700501039738e-17)
(1.04077596755446 0.000245644286165631 -4.4494721089989e-18)
(1.05908797180371 0.000314544710864089 -3.39394469866942e-17)
(1.04036846166177 0.000238219139439287 2.42485421396446e-19)
(1.05849103029799 0.000335269514940197 4.84770366415914e-18)
(1.03993854391936 0.00022807933458451 1.06802529593538e-18)
(1.05740695738428 0.000331905991726856 1.31051789758467e-17)
(1.03944266141991 0.000213434856989917 7.17856367549189e-18)
(1.05653101711482 0.000327468526176846 7.5397984909541e-18)
(1.03893488889914 0.000201378696034192 5.09381876800554e-18)
(1.0554500534511 0.000306343835639537 1.14575124769678e-17)
(1.03822647225897 0.000260408494793804 -3.39362482050816e-19)
(1.05456056670787 0.000289938356084618 -9.44759140066736e-19)
(1.05310492573485 0.000221190068952894 5.7745142902863e-19)
(0.365756458044767 0.00197759759596118 -3.9277167114714e-18)
(0.224600758962124 0.00307889786168863 -5.4560851987939e-18)
(0.36639014493517 0.00206877890608683 7.73258990662401e-19)
(0.22700389185584 0.00333013646979234 -5.9726766747087e-19)
(0.366639385988881 0.00216937563087169 1.03017601181465e-17)
(0.227167739525028 0.00354507701267026 2.19658576695553e-18)
(0.36655252499053 0.00227512255336257 1.99542693357855e-17)
(0.227241218101523 0.00378096295952503 1.809266434523e-17)
(0.366276652317672 0.00233396675167616 3.17724328200198e-17)
(0.226924894019039 0.00391369185717377 2.78908798990741e-17)
(0.365920287437425 0.00236374806234773 3.46192088222909e-17)
(0.226483249111921 0.00397668127222205 4.2726183215642e-17)
(0.365534788573075 0.00238047323908708 2.68187250090203e-17)
(0.225987927895274 0.00400705192702456 3.28425858153938e-17)
(0.365138082313992 0.00239217775394411 2.91903623528713e-17)
(0.225474425406617 0.00402518122760803 3.44627151799468e-17)
(0.364733904372398 0.00240222444217769 4.52596316391543e-17)
(0.22495091657837 0.00403909522344447 3.67725122968846e-17)
(0.364322764926108 0.00241223246586574 3.55253669993327e-17)
(0.224418510989607 0.004052241334857 5.21820846725853e-17)
(0.363904951252949 0.00242229256188101 -1.31875656626713e-17)
(0.223877538693312 0.00406582073096979 7.3858055648755e-18)
(0.363479469890781 0.00243193969309226 -5.10287680750589e-17)
(0.223327682765547 0.00407917684880682 -5.76513250588253e-17)
(0.363044971154639 0.00244140844655591 -5.73421851115186e-17)
(0.222767347207468 0.00409211117541821 -1.09571136725178e-16)
(0.362601052270887 0.00245129221174051 -6.51263549902388e-17)
(0.222195402806452 0.00410525656118157 -6.76682486419614e-17)
(0.362148050477994 0.00246134961627607 -5.10314829301801e-17)
(0.221612110899434 0.00411910391717267 -7.57755440629315e-17)
(0.361685228688088 0.00247090834553739 -4.2077443727124e-17)
(0.221017302465057 0.00413269128669839 -2.00353542797751e-17)
(0.361211642679944 0.0024802227481197 -3.30285226747045e-17)
(0.220409651013747 0.00414566781101099 -8.73063982358249e-17)
(0.360727062662318 0.00249015106535472 -1.25751903673888e-17)
(0.219788373759445 0.00415890071486867 -1.09142139285254e-17)
(0.360231802177386 0.00250050130877378 -3.00032355207288e-17)
(0.219153704029743 0.00417322506445582 -2.47798370404878e-17)
(0.359724918635224 0.00251055470213205 -8.74764463017441e-18)
(0.218505372494402 0.00418746387040872 -4.94678056124429e-17)
(0.359205355271633 0.00252057578357663 2.17815608751214e-17)
(0.217841956053642 0.00420138634051019 4.83394088992556e-17)
(0.358672854790187 0.00253130519660216 3.34266866707519e-17)
(0.21716246230003 0.00421575223081347 6.44731570767341e-17)
(0.358127838668215 0.00254246201736272 4.28683366860909e-17)
(0.216467276663078 0.00423126259447998 6.58041835962348e-17)
(0.35756922670425 0.00255338853169525 5.57379629803669e-17)
(0.215756083351511 0.0042466904349776 6.27426542236042e-17)
(0.356995860260351 0.00256451646640082 5.93935958607899e-17)
(0.215027162066615 0.00426197772608424 9.43479145736307e-17)
(0.35640746248643 0.00257677136736395 2.3241440666295e-19)
(0.214279534041989 0.00427808139927456 5.72120730508725e-17)
(0.355804671690879 0.00258956204295865 -1.25255057542957e-17)
(0.213513722688534 0.00429586988056017 -7.65370185186243e-17)
(0.355186261852744 0.00260196803439456 -2.68385120738328e-18)
(0.212729427077408 0.00431331441966322 1.99893080240717e-17)
(0.354551071950465 0.00261478706684383 -2.42922654506689e-17)
(0.211924701179361 0.00433061551218831 -3.72104896297058e-17)
(0.353898928055011 0.0026294616314462 -5.66615927606636e-17)
(0.21109845183444 0.00434925802761536 -4.05659744811196e-17)
(0.353230834784443 0.00264518150852913 -1.13548421141576e-16)
(0.210251780283128 0.00437064503961378 -1.22125375111317e-16)
(0.352544993477958 0.00266063458963167 -4.43855315287986e-17)
(0.209384345933794 0.00439179193572364 -1.29994315588663e-16)
(0.351840049398894 0.00267689027896952 5.09634135992675e-17)
(0.208493516371476 0.00441304585952359 -1.81537946935161e-17)
(0.351116353962773 0.00269608446089017 7.19772142179247e-17)
(0.207578210606603 0.00443634950509586 8.98342061904219e-17)
(0.350376260664953 0.00271682310375028 6.32519499372692e-17)
(0.206641085060943 0.00446400025726913 1.5729028405703e-16)
(0.349617386724441 0.00273722121028822 3.40154727693612e-17)
(0.205682172104074 0.00449096431929938 -7.5287150240155e-19)
(0.348838592627215 0.00275942141348261 7.54807327670105e-17)
(0.204697986784373 0.00451850612442033 1.77827106977645e-17)
(0.348041254974922 0.00278656229522639 7.91166335753305e-17)
(0.203688268475664 0.00454987812293638 1.14336206804966e-16)
(0.347229202728223 0.00281635725173828 -6.09266222516419e-17)
(0.202657761181687 0.00458815965478873 2.53001014490005e-17)
(0.346399991633299 0.00284602762240585 -5.94514626047659e-17)
(0.201607260660208 0.0046257066684813 -2.22244105762376e-16)
(0.345553337191667 0.00287925012488511 -3.4968153628805e-17)
(0.200533057685015 0.00466457952893827 6.11349399500107e-17)
(0.344692959660186 0.00292085588510362 -7.45342614033864e-17)
(0.199436653894424 0.00471050371894188 -7.70017676197559e-17)
(0.343825858916662 0.00296666142369404 -4.64075557581508e-17)
(0.198327285266067 0.00476749086763911 -4.92623266370339e-17)
(0.342949910260862 0.00301246008554003 4.59827145052988e-17)
(0.197207601224294 0.00482308173425629 -4.97821015635795e-17)
(0.342066961225906 0.00306515725432641 1.02861781711853e-16)
(0.196073917466867 0.00488129769263869 1.54859072889025e-16)
(0.34118570405859 0.00313218762625365 6.42068523318729e-17)
(0.194932108670694 0.00495269863479874 1.35182665170864e-17)
(0.340318708950385 0.00320561285953936 1.02602229227918e-16)
(0.193800142403804 0.00504169719041833 5.43981690357038e-17)
(0.339465512523039 0.00327919822755488 7.25724182706542e-17)
(0.192684142186638 0.00512771732792247 1.01498382410561e-16)
(0.338634113660476 0.0033663139195474 -3.37496734665015e-17)
(0.191582228740573 0.00521896568675423 9.32488451674268e-18)
(0.337844465382219 0.00347724721582445 -1.35049706877949e-16)
(0.190512232406583 0.00533514190080904 -9.71306675123408e-17)
(0.337118585255898 0.00359677213196568 -1.16776867992836e-16)
(0.189508178779075 0.00547726003222827 -2.33532907214666e-16)
(0.336462119227052 0.00371701360813846 -1.51791232491373e-17)
(0.188583069737474 0.00561306469459509 5.28999728859912e-17)
(0.335896150247982 0.00386359497976719 8.51345306412475e-17)
(0.187742393411982 0.00575968699368811 8.02281478513445e-18)
(0.335463153785846 0.00404802317213601 1.13847051393418e-16)
(0.187029393334902 0.00595279697519806 1.8210171567133e-16)
(0.335201907794013 0.0042414167764362 -4.02666849871228e-17)
(0.186507439729838 0.00617966136031337 6.5663714975842e-17)
(0.335134766385356 0.0044361677160167 -8.92325585288722e-17)
(0.186204913767393 0.00639342015107643 -2.18784170509653e-16)
(0.33531275268146 0.00468031345051883 6.60390186914507e-19)
(0.186144655984291 0.00662790852999638 -6.02672934659247e-17)
(0.335833088060609 0.00498740049281267 4.77549320903218e-17)
(0.186431402903223 0.00694659607373416 2.87440876176423e-17)
(0.336797313993708 0.00532757940030596 -2.9638651480336e-17)
(0.187187906575007 0.00731693238759234 1.31987593558226e-16)
(0.338389723723168 0.00572420976969875 -9.20940634089625e-17)
(0.188545772903539 0.00770915678799775 -5.31190340755475e-17)
(0.340948271341694 0.00635756829988723 7.94024412005305e-17)
(0.190720096137315 0.00822228539544193 -8.67427353072675e-17)
(0.345013736601111 0.00727492740424624 1.36332481408437e-16)
(0.194301063358819 0.00912635514779514 2.25860296470124e-16)
(0.350963077714813 0.00826877703291857 1.03779259579063e-16)
(0.19993276456497 0.0102398079262965 3.76566261028924e-17)
(0.359106711895205 0.00930650702150385 1.40521389609057e-16)
(0.20795373347008 0.0113189683707605 1.87648280382597e-16)
(0.369743878072177 0.0106345372861422 1.11164377247163e-16)
(0.218690491767334 0.0125657625232597 8.68744328841583e-17)
(0.38328777974432 0.0119042343072207 2.25378958688889e-17)
(0.232871757258179 0.0141921153048248 1.45031514485488e-16)
(0.399641853187822 0.0127246459990099 -3.68849267429144e-17)
(0.250688950354974 0.0152716090700726 -1.45569699858267e-16)
(0.418860452529701 0.0133557297599439 -7.29552810398382e-17)
(0.271907330415839 0.0159438371030045 -3.00442087792762e-17)
(0.440961876402531 0.0139428731692792 -2.55269938263533e-17)
(0.296575418998879 0.0165503977145773 -1.61954787497876e-16)
(0.465986040517436 0.0141711064506121 -9.35575125500468e-17)
(0.324958483252088 0.0170278403190873 9.79352101024094e-17)
(0.493585433394857 0.0139119061891984 -2.92878460968599e-16)
(0.356760043609876 0.0168128955087466 -3.42396389842477e-16)
(0.523510397645178 0.0134315741226076 -3.45362685164326e-16)
(0.391486835604895 0.0162292839792998 -4.37933915809046e-16)
(0.555490726949447 0.0126732717080118 -3.1294516672195e-16)
(0.42887078585766 0.0154338525017517 -4.35437812428486e-16)
(0.589194528586207 0.0115664665275795 -6.3794241775373e-17)
(0.468639000255574 0.0142004695093749 -2.98057858137129e-16)
(0.624262214137275 0.0102305518275078 1.34986965931307e-16)
(0.510176001319718 0.0126321764096234 1.78362170324444e-16)
(0.660432697174 0.0087011450574687 1.20332146734869e-16)
(0.553298092209256 0.0108512294687145 1.79742569942823e-16)
(0.69742389339634 0.00701603553063712 3.34409050327803e-18)
(0.597319587676278 0.00883668048034347 6.05829389477743e-17)
(0.735162689058564 0.00532213102849394 4.77534743118968e-18)
(0.642563412620973 0.00671851263637372 -1.34655551124164e-16)
(0.773521647246263 0.00360242020192891 -1.51483957648054e-16)
(0.687969480217981 0.00465958137954812 1.47205859172693e-16)
(0.812650683871237 0.00191332960883322 -2.05659138264213e-16)
(0.735207751985648 0.00248416437333889 -4.46277062523824e-16)
(0.852467909869469 0.00031190988366251 -6.0860678534901e-18)
(0.781395563843549 0.000487034196933665 2.05728267857335e-17)
(0.893767763626732 -0.00105200072719955 -1.01543378379579e-16)
(0.831727756738024 -0.00147000177853353 -9.89497597412649e-18)
(0.936427714289977 -0.00233272574301297 2.85001106065006e-17)
(0.878781499401631 -0.00296529809657092 -1.78760554167759e-16)
(0.982017766333051 -0.00320240619125214 1.44925282198622e-16)
(0.936411145146876 -0.00472216002228608 2.7426959739995e-16)
(1.02966844646007 -0.00389548009604421 4.15430334030978e-17)
(0.983642546921893 -0.00542972318722646 4.39567914479876e-17)
(1.07683050007212 -0.00222430632686681 5.96508374544595e-18)
(1.05683180670056 -0.00628230834164238 2.65709427453506e-17)
(1.07755268542031 -0.000434208758379246 1.18332182625528e-18)
(1.08375924933528 -0.000487821387117078 -3.64874628270292e-17)
(1.07974351281715 -0.000166508407153875 4.05919832368054e-17)
(1.07121233208814 -0.000537006486807 3.89974412391741e-17)
(1.07990392819282 1.01595774080062e-05 1.86133890383985e-17)
(1.08074939639469 -3.17574816963516e-05 7.35210809895162e-17)
(1.08023100396312 0.000194176403010728 3.14780371095256e-17)
(1.07545264494953 1.74964479820552e-05 -1.56545983477956e-17)
(1.07961214474246 0.000330294324261805 2.61109218965457e-17)
(1.07814321725442 0.000305652544043611 9.76364671840216e-17)
(1.07888804020366 0.000374615216656057 -4.15301550692763e-17)
(1.07519276087046 0.000344552375477421 -1.96246189483765e-17)
(1.07778970766703 0.000427209658069971 -5.7325069322339e-17)
(1.07509732299319 0.000440476867390362 -6.06281936922103e-17)
(1.0765785113399 0.000456780629880198 -2.44080222362521e-17)
(1.07290711418283 0.000470041600114891 -7.94217919675038e-17)
(1.07518704843111 0.000464060599263834 1.75799992001269e-17)
(1.07168284104408 0.00050296655179968 1.66507163183497e-17)
(1.07375780166183 0.000460307901667323 1.94220870113271e-17)
(1.0696707929885 0.000498105011401838 2.2892594814674e-17)
(1.07229209059973 0.000445696060079576 1.17899618878961e-17)
(1.06807404246922 0.000491167160857017 1.50650406887796e-17)
(1.07085912208508 0.000434047470373014 5.39735783495662e-18)
(1.06616010035428 0.000460346812879831 8.13437478887131e-18)
(1.06941422324056 0.000486235195655939 -2.2612621781637e-20)
(1.06464980888283 0.000435572026785798 -1.57346303504297e-18)
(1.06288376758103 0.000303766915564354 1.45154240426424e-18)
(0.0849957219192869 0.0043569988138635 -2.10754551281144e-18)
(-0.0195020655759813 0.00562270497926398 -3.61033268146527e-18)
(0.0863230295103948 0.00484263949784945 8.32159178876621e-19)
(-0.0164906863117334 0.0060158177127877 3.52979513466656e-19)
(0.0866255871193468 0.00524082662845945 1.00198801306081e-17)
(-0.0163312226858061 0.00673159383905552 3.08409189576179e-19)
(0.0864130355300526 0.00551078078445592 2.60765042061442e-17)
(-0.0163987640673588 0.00721295605511362 1.55701359818023e-17)
(0.0859452419241277 0.00565080695708594 3.89070497895207e-17)
(-0.0169000579372492 0.00746732362866893 4.01796790851716e-17)
(0.0853727331607443 0.00571568610182914 4.09545824019692e-17)
(-0.017534676322539 0.00758151671180517 4.6417843485628e-17)
(0.0847604534397982 0.00574818261961525 4.05473579941274e-17)
(-0.0182266369847044 0.00763346024321756 4.24063593867645e-17)
(0.0841313703160125 0.00576900625861881 4.210329133679e-17)
(-0.0189400855889895 0.00766247672167852 5.18224562525758e-17)
(0.0834908363099858 0.00578644147224563 4.37236833766012e-17)
(-0.0196666849643114 0.00768433212134158 4.52349901514903e-17)
(0.0828396599975092 0.00580359293819173 2.38926042189967e-17)
(-0.0204051993831524 0.00770489408179915 4.50201599177567e-17)
(0.0821779165149784 0.00582091081305166 -3.73257319562849e-17)
(-0.0211554288167234 0.00772592183994469 -1.48783068611569e-18)
(0.0815045027039892 0.00583798439251143 -1.16575075420403e-16)
(-0.0219178376483055 0.00774695318299657 -8.79092381364568e-17)
(0.0808179505701412 0.00585501951946548 -1.20042170143716e-16)
(-0.0226940167085905 0.00776776953702871 -1.59641116537438e-16)
(0.0801177510508733 0.00587257003779603 -7.83883211600787e-17)
(-0.0234851312862363 0.00778892563621938 -9.5506669026106e-17)
(0.0794040085689456 0.005890393876684 -4.46181672371647e-17)
(-0.0242911100246581 0.00781082863632792 -6.65631978975301e-17)
(0.0786758098972407 0.00590783512259661 -6.55201441672825e-17)
(-0.025112265944686 0.0078326352135551 -9.14845743315141e-18)
(0.0779318267686211 0.00592516233775618 -6.5119361877423e-17)
(-0.0259501093550825 0.00785401615906633 -1.57829640394789e-16)
(0.0771716414669806 0.00594324128725164 -2.31935167073803e-17)
(-0.0268057384584401 0.00787579856171108 -4.77935441244158e-17)
(0.0763954151129241 0.00596190554836626 -4.43608138705078e-17)
(-0.0276790189721565 0.00789873236452546 -3.68773748586277e-17)
(0.0756020755290475 0.00598045009128532 7.93670494672205e-18)
(-0.0285703060670187 0.0079217968021542 -7.91990939591637e-17)
(0.0747902050834477 0.00599914757329302 9.13216852863641e-17)
(-0.0294812382758485 0.0079447500858447 8.10479934152964e-17)
(0.0739593517238967 0.00601874634394562 9.70781209817584e-17)
(-0.0304130200638458 0.00796833590813201 1.05877511902535e-16)
(0.0731096351855756 0.00603898266869296 8.58192339343515e-17)
(-0.0313654965691738 0.00799317666433566 9.95491382833513e-17)
(0.0722397801852106 0.00605920966485322 1.01598174767423e-16)
(-0.0323391701096914 0.00801819631179196 1.02720311640562e-16)
(0.0713482101373384 0.00607989754344782 9.21719326568956e-17)
(-0.0333359706561559 0.00804330924092513 1.5873662310943e-16)
(0.0704345371002644 0.00610198815740486 -2.00106371875472e-17)
(-0.0343571620616094 0.00806948652246243 7.27414964508177e-17)
(0.0694990946902906 0.00612488571896525 -4.38425751315489e-17)
(-0.0354023217199335 0.00809748403578825 -1.11453689969568e-16)
(0.0685402704353789 0.00614766053248747 -1.47469133296272e-17)
(-0.0364720211730831 0.0081254749840102 2.38009626598707e-17)
(0.0675562469940364 0.00617119974595866 -5.35883201794568e-17)
(-0.0375686805816575 0.00815359095081876 -6.42990909457732e-17)
(0.066546859682311 0.00619701114100034 -1.06438474324756e-16)
(-0.0386937132965202 0.0081833854454536 -7.21303740294609e-17)
(0.0655129482108368 0.00622427715244364 -1.38674329604949e-16)
(-0.0398459912978844 0.00821610368827614 -1.44748097832283e-16)
(0.064452454729637 0.0062516421445316 -1.03587679002217e-16)
(-0.0410259773005004 0.00824902790477439 -1.15297698164726e-16)
(0.0633632397684782 0.00628031917380875 2.09768126334173e-17)
(-0.0422367591392559 0.00828237165245353 -1.02276450152373e-16)
(0.062245807635652 0.00631253322574123 1.75679722908685e-16)
(-0.0434798287321786 0.00831824323253292 1.58108713296378e-16)
(0.061102364100891 0.00634685144819874 9.28401524678393e-17)
(-0.0447523748181202 0.00835866178384052 2.42615031726239e-16)
(0.0599302216317674 0.00638132544629604 -1.70698247773362e-17)
(-0.0460544650619835 0.0083989942402273 -9.46910316840948e-17)
(0.0587272526597957 0.00641835878855895 5.69231490350317e-17)
(-0.0473902359556837 0.00844025961334899 -4.79300251717652e-17)
(0.057495583597385 0.00646129812181023 6.01489080111005e-17)
(-0.0487603257405551 0.00848602221468013 8.34723085986241e-17)
(0.0562395593347594 0.00650773054229452 -1.37128008651235e-16)
(-0.0501590893523953 0.0085389971448023 2.65311036871567e-17)