/*--------------------------------*- C++ -*----------------------------------*\
  =========                 |
  \\      /  F ield         | OpenFOAM: The Open Source CFD Toolbox
   \\    /   O peration     | Website:  https://openfoam.org
    \\  /    A nd           | Version:  8
     \\/     M anipulation  |
\*---------------------------------------------------------------------------*/
FoamFile
{
    version     2.0;
    format      ascii;
    class       surfaceVectorField;
    location    "0.0640000";
    object      Uf_0;
}
// * * * * * * * * * * * * * * * * * * * * * * * * * * * * * * * * * * * * * //

dimensions      [0 1 -1 0 0 0 0];

internalField   nonuniform List<vector> 
1094
(
(0.598784734484229 0.000538511397356096 5.02174530827416e-18)
(0.367321097167129 0.00178053006044 2.86407458802093e-18)
(0.599000653237538 0.000387126573352837 1.174564798871e-17)
(0.369183249964457 0.00190225651627012 8.30879844177834e-18)
(0.599102338504683 0.000379295740447124 1.0730888769519e-17)
(0.369247947597415 0.00200242546554217 1.48219085911439e-17)
(0.599012150488059 0.000412579864194938 5.31383250845321e-18)
(0.369142856511621 0.00214907201182726 9.11626458218458e-18)
(0.598808181075448 0.000430274345518868 6.7193454745866e-18)
(0.368797704104237 0.00223591341301557 8.25015000528302e-18)
(0.598554252629238 0.000439782353783228 1.5700860662955e-17)
(0.368324603991052 0.00227827127961472 1.43504567877217e-17)
(0.598280399235923 0.000446584201811879 2.07278871710947e-17)
(0.367801504875002 0.00230023524324106 4.83118565759429e-17)
(0.597999195959611 0.000452164679149367 1.35496562484117e-17)
(0.367258456225685 0.00231526197135772 3.09041562491528e-17)
(0.597711741576115 0.000456867256629857 -8.86929141453697e-18)
(0.366703728103592 0.00232710512805132 1.7528460928771e-17)
(0.597417722407401 0.000461348485341181 -2.9837586625642e-17)
(0.366137879392244 0.00233807281203752 -1.72691218189613e-17)
(0.597116458378188 0.000466019273846069 -2.14058082604791e-17)
(0.365559930781833 0.00234925536031774 -2.31103786568793e-17)
(0.596808413763004 0.000470697358705013 -3.1297010703141e-18)
(0.364969625058165 0.0023610263793884 -1.09942210941118e-17)
(0.596492750590834 0.000475034072436558 -1.33547700349419e-17)
(0.364366529989054 0.00237259681449329 7.50927829701617e-18)
(0.596168351425965 0.000479063275235657 -8.42810349255615e-18)
(0.363749393070191 0.00238371595782705 1.54129790483779e-17)
(0.595835025415528 0.000483046385260067 2.01657094519052e-17)
(0.363117051143437 0.00239473788267614 3.15891621830117e-17)
(0.595493179426984 0.00048715054667691 5.06872844990931e-18)
(0.362469435314844 0.00240604541494653 5.896140110704e-17)
(0.595142932511631 0.000491202927546341 -9.84404566990143e-18)
(0.361806542134006 0.00241777873375057 4.0292702253e-17)
(0.594782394728626 0.000495094281776503 4.76508279812381e-18)
(0.361127158866265 0.00242926938120839 -1.58801059476074e-18)
(0.594410913921458 0.000499030126255238 3.39174742714361e-17)
(0.360429685692506 0.00244090514650177 2.190197668104e-17)
(0.594028411758783 0.000503214189268148 6.95918944304581e-17)
(0.35971341972614 0.00245291333847803 3.42218063133123e-17)
(0.593636228554131 0.000507369759690148 5.26156642766568e-17)
(0.358978727538587 0.00246575228957725 9.33289569718125e-17)
(0.593232330874775 0.000511260078276745 1.32394756477662e-17)
(0.358224843165259 0.00247814578969507 3.47264998178098e-17)
(0.592816125279898 0.000515213244056418 8.14853888177123e-18)
(0.357449866618625 0.00249067754179222 5.95899384946397e-18)
(0.592387213214841 0.000519689315841503 2.84613565653275e-18)
(0.35665296561881 0.00250376259032819 2.82282996709297e-17)
(0.59194693822142 0.000524471549439808 -1.58041218814111e-17)
(0.355834368715657 0.00251840353165447 -9.26023447283876e-18)
(0.591493035606912 0.000529112127942226 -8.63805362379471e-17)
(0.3549931027059 0.00253297570815004 -3.999274532213e-17)
(0.591024660393782 0.000533883809981162 -1.02732592622647e-16)
(0.354127114228789 0.0025477953575037 -1.6701079464551e-16)
(0.590541324183602 0.000539374820808984 -1.04860604399967e-17)
(0.353235326631089 0.00256343387830951 -1.14683501240916e-16)
(0.590044072862231 0.000545536167141647 4.85617626692269e-17)
(0.352317723819394 0.00258106788990741 8.08471172716528e-17)
(0.589531970388481 0.000551689965832847 7.35806174678313e-17)
(0.351373713152642 0.00259945225630965 1.15913758253108e-16)
(0.58900377635618 0.000557873221643886 1.65963163556951e-16)
(0.350401649337413 0.00261784654343295 1.66043907112974e-16)
(0.588459099088823 0.000565031798728859 1.92872636807885e-16)
(0.349400056658594 0.00263718928597536 2.46207933824778e-16)
(0.587898562304096 0.000573753588887763 2.73062141765985e-17)
(0.348368937441497 0.00265933873615719 1.55647893670716e-16)
(0.587322873157093 0.000583066422489503 -6.50552263828163e-17)
(0.347308287602861 0.00268434434731616 -1.99535140498318e-16)
(0.586729517893965 0.000592440499710725 -4.3714800466048e-17)
(0.346216684759149 0.00270927869575973 -8.20707411045718e-17)
(0.586118376898431 0.000603281984716257 -9.4900767997385e-17)
(0.345092219340648 0.00273559910339187 -8.04877645084992e-17)
(0.585489705223933 0.000617303396964898 5.18014168351828e-17)
(0.343935178868256 0.00276598627810984 -8.30456100844481e-17)
(0.584848366836042 0.000632937122349202 2.84582877433632e-16)
(0.342747600893629 0.00280323986512164 2.84004794471644e-16)
(0.584189665277947 0.000648552991761788 2.07485220900535e-16)
(0.341529363351733 0.00283983348427174 4.28100571992782e-16)
(0.58351421431934 0.000666345253158618 4.51813220899131e-17)
(0.340277822038473 0.00287848664583746 1.77861951359701e-16)
(0.582821389110669 0.000690478279717793 1.37268295522059e-17)
(0.338994176745804 0.00292289359711593 -1.15036715926702e-17)
(0.582124732125947 0.000718440926087272 1.78967678661602e-17)
(0.337685223122832 0.00298264821492593 -4.06737539339911e-17)
(0.581416111537799 0.000746370728697647 -1.06681039521436e-17)
(0.336353805589753 0.003040534679296 9.62328239807111e-18)
(0.580697780340271 0.000777852355304251 4.21511118102927e-17)
(0.334998103172265 0.00310183559092899 -5.94433408702912e-17)
(0.579970503946463 0.000819644383067217 -3.36996299609374e-17)
(0.333621437108776 0.0031722291713473 1.38323344058719e-16)
(0.579253832435887 0.000869845333523072 -1.05482933855916e-16)
(0.332237620413495 0.00326715577016035 -1.80448778607482e-16)
(0.578544798423279 0.000921302229952807 -6.44297050455925e-17)
(0.330856266542786 0.00336568651292276 -6.22346905256942e-17)
(0.577845980932357 0.000976921899080985 -5.53678277013622e-17)
(0.329480851246901 0.00346645414450464 -1.95028152417716e-16)
(0.577162959760086 0.00104827701006004 -1.18869626317333e-17)
(0.328120245850075 0.00357968148175469 -3.35075220156797e-17)
(0.576523830882888 0.00113693407337448 1.03769337201929e-16)
(0.326801191458791 0.00373100627319631 -1.49852116243029e-17)
(0.575940096730859 0.00123000588026208 1.1092263086417e-16)
(0.325547900772765 0.00390031187550373 2.71389538830791e-16)
(0.575414916712395 0.00132741943183122 5.82138060801396e-17)
(0.324377285846207 0.00406745746013579 -4.85087488025308e-19)
(0.574964615530566 0.00144833487891939 6.99360178945586e-17)
(0.3233120257555 0.00425200164439125 2.0876575719167e-16)
(0.574633025074582 0.00160243046463576 -7.43204962981493e-17)
(0.32240290217533 0.00449346707244945 7.34329230225772e-17)
(0.574468471963948 0.00176920038931577 -1.22326760759999e-16)
(0.32171029109808 0.00478323877673859 -2.20685768130104e-16)
(0.574489125724455 0.00194826118127891 -2.88635350323218e-17)
(0.321291806998573 0.00506662183894769 -1.22471070410151e-16)
(0.574820102428577 0.0021932489842675 -2.23286362001716e-17)
(0.321232853976234 0.00539865000546964 1.25498007456632e-17)
(0.575725428706762 0.00260236957683868 -1.32995347381781e-16)
(0.321808722123031 0.00589138166143616 -9.35557409089167e-17)
(0.577682936638353 0.00315434496302786 -1.20877345760102e-16)
(0.323494803793748 0.0067366458518732 -4.3745774651861e-16)
(0.580878676905258 0.00377988380464123 -8.81729064986919e-17)
(0.326739789806142 0.00767816471482062 -4.57683654621662e-17)
(0.585540649350649 0.00455031942917528 -6.67826461571042e-17)
(0.331912591453133 0.00875397624121716 -2.94155914505089e-16)
(0.591853197145316 0.00556330521599322 2.72576021494534e-17)
(0.339577392203673 0.0101362170495381 2.97507324364619e-17)
(0.600160315674443 0.00654390801323187 2.41972571805797e-18)
(0.350090235984396 0.0119258712156484 8.13173827012174e-17)
(0.610204579837716 0.00728437628716399 3.04968064966245e-17)
(0.363585544815683 0.0131738179136452 -7.20672666001524e-17)
(0.622110118638144 0.00796440541966606 -3.1256010055679e-17)
(0.380213144769228 0.0141846279615832 8.17052397881674e-17)
(0.635916400741782 0.00866391316573899 -1.65886448673306e-16)
(0.40005442462591 0.015179398629861 -2.04763156367427e-16)
(0.651781591100241 0.00913626427220351 -1.65775413475065e-16)
(0.423145798389049 0.0161631526430651 -2.38761841653259e-16)
(0.669317122960027 0.00926113555182208 -2.96153357090664e-17)
(0.449282492208169 0.0163826418567073 -2.06287173124952e-16)
(0.688404048513321 0.00923960250737313 9.1472185806103e-17)
(0.478262670857925 0.0162378783243251 -1.83705516664911e-17)
(0.708882667453356 0.00905853094467601 -2.43608248480012e-17)
(0.509640580077836 0.0159146454766542 1.73391006963664e-16)
(0.730502779954728 0.00860257984485657 -1.22765132651913e-16)
(0.54305506457679 0.0151977290823657 -1.6253115390925e-16)
(0.752907991102638 0.00792020450106858 -4.55437060869436e-17)
(0.578071787233272 0.0139698344729842 -2.23407724234213e-16)
(0.775897024056997 0.00711080534391119 2.67394135187969e-17)
(0.614230488617987 0.0125084792519272 4.05249860745324e-17)
(0.799276535312753 0.00616720651866756 -3.22921235905213e-17)
(0.651080485243286 0.0108439278110792 8.21128741764681e-17)
(0.822830256002754 0.00513744925648615 -5.31269375090847e-17)
(0.688337585101248 0.00894281562492257 -1.98286725144437e-16)
(0.846471455929288 0.00409352556795725 -6.5373724630172e-17)
(0.725785172268432 0.00700283703816199 -1.63013732756483e-17)
(0.870157135440988 0.00302318107259128 -3.1922158987698e-17)
(0.763172659331253 0.00505726057298471 -2.48148785691415e-16)
(0.893746871921784 0.00198701827369383 1.67025976359498e-17)
(0.800452769144953 0.00303115583296223 1.18360184817961e-16)
(0.91740246886673 0.00105760737476679 -4.96094482504387e-18)
(0.837622313893842 0.00121122230815265 -5.34759942543164e-17)
(0.941273016488684 0.000226587312255324 1.72371663064422e-17)
(0.874909739801836 -0.000455530343294472 2.96152158910206e-17)
(0.965402398651578 -0.000478487338211775 -2.61409813592618e-17)
(0.912395440205462 -0.00196693182061074 4.02736711560945e-17)
(0.990060933325811 -0.00102759859975001 -7.03148094265128e-17)
(0.95063634509207 -0.00325791966857906 -3.52147064981842e-17)
(1.01553458451764 -0.00148771950902343 7.5232205912282e-17)
(0.989319266823918 -0.00427093351676877 -1.41502962567655e-16)
(1.04264304393199 -0.00163178742349419 1.18427811452864e-16)
(1.03119633149539 -0.00519084477717877 3.39967128739296e-16)
(1.0702583055619 -0.00174207500372418 -4.37216991435191e-18)
(1.07190848280331 -0.00540222629522552 3.73608823387899e-17)
(1.09870044849092 -0.000844744623503337 -4.48014907474163e-17)
(1.12247651816769 -0.00553994216460542 3.44842453429194e-17)
(1.09871738827733 -9.96081229201462e-05 -7.48169384223063e-19)
(1.14340887167031 -0.000854499635083889 -1.1781221319801e-16)
(1.10150435168303 9.63585027662557e-05 6.39157971008588e-17)
(1.13825769248567 -0.00072480668738092 3.15209403583211e-17)
(1.10243276582594 0.000322950327927655 7.78127414035024e-17)
(1.14237562764162 -5.29299458178243e-05 1.35433548496686e-16)
(1.10349903772862 0.000404566640112817 2.21568149998829e-18)
(1.14154550993682 0.000134133352581545 8.77285638482745e-17)
(1.10402060285945 0.000516024547411791 -4.17851618646886e-17)
(1.14239876236231 0.000375286638044586 -1.66241617218498e-16)
(1.104236860531 0.000575990493524204 4.16065661404775e-17)
(1.14208028161536 0.000564411011151213 -8.81776628713497e-19)
(1.10417147363288 0.000584028806760742 7.73466581287341e-17)
(1.14180046924141 0.000654036769882865 1.241806293236e-16)
(1.10399507875345 0.000585743363955528 3.07459980551917e-17)
(1.14130191502786 0.000702563821703103 9.8293875870289e-17)
(1.10370460771234 0.000573372780903068 1.43639757581863e-17)
(1.1407476722908 0.000739834833288347 -2.0554325095519e-17)
(1.1033565921559 0.000545201372348082 8.82226108189677e-18)
(1.14009718480427 0.000743210388075184 7.75435563928444e-17)
(1.10297653219499 0.0005155061456899 -1.07399879377679e-17)
(1.13945408486223 0.00073228780135546 -4.10251429468863e-17)
(1.10254211491027 0.000478263047058591 -1.72770492396343e-18)
(1.13873930904075 0.00070912234833953 -2.05027826451012e-18)
(1.10189688654982 0.000467713974437621 -1.15684716331484e-18)
(1.13809774224565 0.000659841377049666 -4.38655947154055e-18)
(1.13697038956591 0.000508701525772704 -1.05793603279575e-20)
(0.13490524655645 0.00342945453438066 6.17075360053418e-18)
(-0.0168301883244059 0.00520344436869071 5.05507173017214e-18)
(0.135913506114304 0.00392759745468754 1.13964435565619e-17)
(-0.0140367383207461 0.00572593140666821 9.49767681587896e-18)
(0.136092089120557 0.0042854468221391 1.32123871245685e-17)
(-0.0140511583602024 0.006420132573738 1.45929028468601e-17)
(0.135747342763888 0.00453169442709758 1.20977724641346e-17)
(-0.0144154024861526 0.00693202329609225 1.58289651368012e-17)
(0.135142872039682 0.00466134084427113 1.59581500473848e-17)
(-0.015105099344393 0.00719938697374818 1.23610230827285e-17)
(0.134425324765528 0.00472401181388551 4.72519541296591e-17)
(-0.0159570825287599 0.00732158202117091 1.65020174177155e-17)
(0.133660217965736 0.00475806685258327 5.87048724231557e-17)
(-0.0168749317470255 0.00737961427695195 7.01160525668477e-17)
(0.132872433498245 0.00478181081413029 3.49955689869548e-17)
(-0.0178225937305349 0.0074142884175698 5.1205349768678e-17)
(0.132067605554892 0.00480215056617076 9.16724233527817e-18)
(-0.0187902387251778 0.00744128623904249 3.88715480509958e-17)
(0.131245844585796 0.0048219600427267 -1.04287197319658e-17)
(-0.0197770619395541 0.00746644467521047 -6.62472165213094e-18)
(0.130406605762611 0.00484227700682523 -1.26131025440317e-17)
(-0.0207838917352711 0.00749197599142663 -4.09641329178088e-18)
(0.129549582666226 0.00486292548584982 -2.92479472630613e-19)
(-0.0218111547895874 0.00751830726137131 -2.09802373157745e-17)
(0.128673493225514 0.00488337371759911 3.66128690267003e-17)
(-0.0228596690624581 0.00754480890804523 1.0589315087773e-17)
(0.127776712257597 0.00490363798566288 5.58734340168228e-17)
(-0.0239310916474779 0.00757115670230762 2.68629716386249e-17)
(0.126858271759606 0.00492410877125229 7.07674845929597e-17)
(-0.0250269839179597 0.00759765044413584 5.67990999700327e-17)
(0.125917786200671 0.0049450571374241 9.46875714424971e-17)
(-0.0261480957515834 0.00762471320241749 1.24337471957376e-16)
(0.124954608149471 0.00496624952571251 4.87963465165518e-17)
(-0.0272949667917715 0.00765242206532909 8.86385583727095e-17)
(0.123966865248287 0.00498755904316221 1.56759828136329e-17)
(-0.0284690483510096 0.007680349997315 5.94416081695424e-17)
(0.122953171749076 0.00500931708087847 2.21694863335559e-17)
(-0.0296722470960641 0.00770871906204891 5.00931363243842e-17)
(0.121912882240152 0.00503185822442249 5.80509276333134e-17)
(-0.0309057636622663 0.00773793281291806 5.22916836349886e-17)
(0.12084579936757 0.00505478098472672 7.54110634609382e-17)
(-0.0321699849044444 0.0077681688901274 2.12496732359261e-16)
(0.119749742048423 0.00507775686193006 2.74472240478085e-17)
(-0.0334663088012644 0.00779857990392328 5.94268395030971e-17)
(0.118622981997051 0.00510133170001419 2.62038895840718e-17)
(-0.0347971657739078 0.00782946629454855 -3.20845169153839e-19)
(0.117464605056647 0.00512625865471244 1.60879995164458e-17)
(-0.0361641150854189 0.00786155982519242 7.54114758376674e-17)
(0.116274577781583 0.00515223306957912 -3.36371705797368e-17)
(-0.0375675299340461 0.00789552250534176 -1.15159422556856e-17)
(0.115050535047281 0.00517860589857696 -1.21190561503607e-16)
(-0.0390087825162794 0.00793020109269916 -5.85292768014297e-17)
(0.113790336727641 0.005205856843051 -1.79214827730641e-16)
(-0.040490623201889 0.00796562588372941 -8.63197879663859e-17)
(0.112492782210952 0.00523495219847591 -2.2814072622177e-17)
(-0.0420150343182609 0.00800265582578276 -1.19743688393877e-16)
(0.111157848311791 0.00526585090977815 1.48834587514206e-16)
(-0.0435825868858833 0.00804227490875195 1.93855737857563e-16)
(0.109783824863214 0.00529752395732918 2.0923849734062e-16)
(-0.045194243632842 0.00808344505926512 2.26419902086484e-16)
(0.108368002294187 0.00533011095701638 2.46962408361555e-16)
(-0.0468527347625921 0.00812537556902864 1.98296892502953e-16)
(0.106908724565052 0.00536521247392028 2.08763634009621e-16)
(-0.0485608864507839 0.00816915077752619 2.57932427417344e-16)
(0.105406244531304 0.00540385563796165 -7.28873869040307e-17)
(-0.0503194219994541 0.00821679911916309 2.19950362851601e-16)
(0.103860434560143 0.00544451751926447 -2.16890412727631e-16)
(-0.0521280039832832 0.0082681970528939 -2.36784029810152e-16)
(0.102267805955947 0.00548644462810788 -1.19202222877586e-16)
(-0.0539888299994335 0.00832075416469062 -1.42180202196389e-16)
(0.100626373295153 0.00553206757762772 -6.8516474595619e-17)
(-0.055905679305505 0.00837569925792804 -1.60458832346049e-16)
(0.0989374590304517 0.00558436858176496 1.50959586097947e-16)
(-0.0578791160584839 0.00843660722739724 -2.12314124291474e-16)
(0.0972049957878297 0.00564077195804119 4.28723060150938e-16)
(-0.0599053324400162 0.00850534779503637 3.68093604991607e-16)
(0.0954244980349751 0.00569865664349148 3.98394802540344e-16)
(-0.0619845690909072 0.00857542608151402 4.58885261727441e-16)
(0.0935939197948905 0.00576189823675586 1.20781120159818e-16)
(-0.0641220087089846 0.00864844124943029 3.47086806833592e-16)
(0.0917169306898075 0.00583788415416795 -6.6372761554342e-17)
(-0.0663176734897213 0.0087306239113688 -3.49328107767545e-17)
(0.0898071757041442 0.00592232933199754 -4.90344180605418e-17)
(-0.0685594073722456 0.00882922954984585 -9.18033275070844e-17)
(0.0878595756073516 0.00600859489401728 -3.95605713492382e-17)
(-0.0708420044545136 0.00892924060847564 3.36393766048402e-17)
(0.0858738840175189 0.00610310532402003 3.75456099867594e-17)
(-0.0731712293135926 0.00903332721030239 -4.71809489208402e-17)
(0.0838593649637328 0.00621809567944946 -9.70400951498228e-18)
(-0.0755439269093475 0.00915129054943237 1.3014761589879e-16)
(0.0818424313450027 0.00635025026430476 -1.36805930354611e-16)
(-0.077935890582121 0.00929636517534915 -2.20659343007628e-16)
(0.0798275765728165 0.00648677307795071 -1.93950346037124e-16)
(-0.0803277991782775 0.00944897780356768 -1.04101781135171e-16)
(0.0778177890070173 0.00663296973087094 -1.72882922077984e-16)
(-0.0827194008965113 0.00960472306825066 -2.49720994691635e-16)
(0.0758326277436744 0.00681005807857733 -3.66141296260577e-17)
(-0.0851030153622454 0.00977842801197348 -5.40493468472613e-17)
(0.0739226981139793 0.00702090233970811 1.54211000019069e-16)
(-0.0874332280910288 0.00999567068120045 -3.84141404423016e-17)
(0.0721189729285609 0.00724177532555169 1.58818728565567e-16)
(-0.0896574378202927 0.0102354479407625 2.53471756963856e-16)
(0.0704332310514836 0.00747240636161096 1.51469461510637e-16)
(-0.0917568814101544 0.0104742368352917 -6.06807862948559e-17)
(0.0689075847665804 0.00774832940946015 2.12082203485629e-16)
(-0.0937122499814582 0.0107353395402309 2.65184607251025e-16)
(0.0676402010356422 0.00808735078300886 -7.44819702798751e-17)
(-0.0954385181310167 0.0110637024398932 1.55082766784107e-16)
(0.0667281399131162 0.0084513776798797 -2.20652541473219e-16)
(-0.0968088710041724 0.0114452864870597 -3.10603383687006e-16)
(0.0662260179452394 0.00884073143719064 -8.04988240277475e-17)
(-0.0977495009650995 0.0118245952986246 -2.45339098806305e-16)
(0.0663138869475912 0.00935966481798305 -5.94117573021823e-17)
(-0.0981813143029466 0.0122591420474215 3.81988283436459e-17)
(0.0674334283008162 0.0101931205524072 -4.01005355938925e-16)
(-0.0978094641362958 0.01290699850167 -1.72613132420234e-16)
(0.0703222073583642 0.0112983310569619 -3.61172756324159e-16)
(-0.0959006983436454 0.0139475555872028 -7.77839480491691e-16)
(0.0754442928018835 0.0125391995201128 -2.53793976901232e-16)
(-0.0917513523222212 0.0151232839547966 -6.11436342382731e-17)
(0.0833507795548493 0.0140444157047699 -1.96503346785699e-16)
(-0.0849057475647963 0.0164408937508348 -4.70070239873618e-16)
(0.0948715298691966 0.0159785244721837 8.43324776313004e-17)
(-0.0745407277305745 0.0181422561981004 6.75224556963666e-17)
(0.110889505819518 0.0178028299345443 6.19956451867307e-18)
(-0.0593726528349471 0.0202123455286575 1.70852335505853e-16)
(0.13111611061507 0.0191156001530665 -2.04689203249274e-17)
(-0.0391049032791394 0.0216484365925846 -1.5197030507161e-16)
(0.155597584448986 0.0202507170150026 -9.31134082086102e-17)
(-0.0141191711730433 0.0226947561944571 -5.12750173451845e-17)
(0.18467884643937 0.0213486640903875 -2.78240935859408e-16)
(0.0158679767935754 0.0236897888366141 -1.95802215574891e-16)
(0.218585957105037 0.0219306726616245 -2.79641705824994e-16)
(0.0514831924042841 0.0245248981069835 -3.67807090402182e-16)
(0.25646746565361 0.0217800643417546 -1.95209786286273e-16)
(0.0922278636050328 0.0244206185198929 -3.0648213094756e-16)
(0.297877889869813 0.0212764883110866 6.37591254749168e-17)
(0.137144530588426 0.023778724557048 -1.45156775700704e-16)
(0.342552666143473 0.0203973859230592 3.50022530940987e-17)
(0.185957737914667 0.0228478764102315 2.55292701254705e-16)
(0.389861990787033 0.0189340671606337 -2.63440118331369e-16)
(0.238265319094526 0.0213694353498296 -2.22709069395776e-16)
(0.438940171968764 0.0169955420748023 -1.37248833665133e-16)
(0.293054558790123 0.0192409549076881 -3.50845066352479e-16)
(0.489259443452129 0.0147787067925495 9.59198231704539e-17)
(0.349479876158378 0.0167783987559506 8.79247824005374e-17)
(0.540339889314523 0.0122839200569964 -8.39575333897597e-17)
(0.407030563371177 0.014036911033837 -9.46899508914948e-18)
(0.591676535315617 0.00961812361284071 -1.61148502826764e-16)
(0.465084858229948 0.0110097741695494 -4.09124188539868e-16)
(0.643045064661232 0.00692216711511202 -1.98819632366224e-16)
(0.523216315636627 0.00792668614826023 -2.96287277282361e-17)
(0.694265559947215 0.00418020446417981 -9.72040080169711e-17)
(0.581239228513467 0.00482020722359386 -2.99265895511334e-16)
(0.745089946676666 0.00152268030301792 4.77265240540568e-17)
(0.638832594131073 0.00165657671042272 2.47250486721377e-16)
(0.795806715906007 -0.00091625983653382 -1.86502062697659e-17)
(0.695933712929892 -0.00126144895998674 -1.19881753837071e-16)
(0.846714720817964 -0.00316136910038276 5.24031185268352e-17)
(0.753095587080421 -0.00397857567226572 -4.27578647665111e-17)
(0.898034335143717 -0.00515972839219211 3.03998069748982e-17)
(0.810353339268669 -0.00649646097195476 -2.00727519434946e-17)
(0.950269686723404 -0.006858349308715 -1.06513108247155e-16)
(0.868515584955328 -0.00874419430072074 4.70121545912994e-17)
(1.00430315506273 -0.00837424641470944 1.25053544013724e-16)
(0.927160450697445 -0.0106525270584015 -1.97130625757646e-16)
(1.06095759424149 -0.00931616310723658 2.55225209356706e-16)
(0.990375697521517 -0.0124510733716427 5.85867580837065e-16)
(1.12070376459313 -0.00961343777677219 7.51075995534892e-17)
(1.05166989761944 -0.0133460490419798 6.76991749779005e-17)
(1.17656058096266 -0.00518303514808242 -3.90032735353108e-17)
(1.12879481105607 -0.0132248111265302 7.26465816794028e-17)
(1.178205028516 -0.000963512273278568 -8.45169887219534e-17)
(1.15982834479617 -0.00117879654301943 -2.27693711853957e-16)
(1.1794995844101 -0.000373058347271271 1.02571882545191e-16)
(1.14987022104746 -0.000934434200764756 -2.12564398144693e-17)
(1.17981897307776 0.000137833955517472 1.44509591054927e-16)
(1.1550572875097 -9.40063211644581e-05 1.83373173391674e-16)
(1.17979414366694 0.000382715693009547 -7.99889957756337e-17)
(1.15287323767812 0.000163853975162009 8.94958600114527e-17)
(1.17946425690027 0.000645397348490729 -1.24295423972664e-16)
(1.15330949702988 0.000460808415237126 -2.8895233405011e-16)
(1.17891346102678 0.000814938652472868 8.1435925429356e-17)
(1.15231942946646 0.000689846144709975 -2.92431416073677e-19)
(1.17818175797257 0.000883761202395093 1.44454788915356e-16)
(1.15166504097241 0.000808370276830028 2.05478605697008e-16)
(1.17736109319135 0.000932590289275393 4.67038396989674e-17)
(1.15070721071453 0.000869854415183195 1.10840317366152e-16)
(1.17647783479064 0.000953439682914232 4.2491251283577e-17)
(1.14977406728993 0.000915112606856032 -4.55019472052623e-17)
(1.17555834474853 0.000944151713662099 2.73877076508009e-17)
(1.14875897388023 0.000921353855644327 1.16707183228916e-16)
(1.17463139445127 0.000927095153560161 -3.21049913519464e-17)
(1.14777339029795 0.000908311290306427 -6.30492155742394e-17)
(1.1737279201162 0.00089466252042524 -4.68891065634135e-18)
(1.1467478984772 0.000877608029288421 -3.24097348750767e-18)
(1.17287215363897 0.000858029313742634 -3.2199896564551e-18)
(1.14595310405127 0.00081491022550334 -7.83399936273518e-18)
(1.1450763844746 0.000586483650881937 -1.39137028497443e-18)
(-0.167205818140459 0.00759973559367866 8.40660727908024e-18)
(-0.239321376157219 0.0084898344218128 7.46107420180429e-18)
(-0.166309313930062 0.00840455749460199 1.27140729258024e-17)
(-0.237825784376087 0.00936073071607338 1.05221228150123e-17)
(-0.166492613702398 0.00931735404218306 1.72387501380123e-17)
(-0.238493331776467 0.0108131375289957 1.65060813679981e-17)
(-0.167209630078017 0.00986417030203666 1.61106094091102e-17)
(-0.239347130815847 0.0116892262029639 2.57387350853899e-17)
(-0.16815287889355 0.0101293893513145 1.28944269359417e-17)
(-0.240356753782744 0.0121075032724438 1.40367008118552e-17)
(-0.169192187324631 0.0102508978224769 3.94390386784062e-17)
(-0.241443506352693 0.0122923402897787 1.99742523365388e-17)
(-0.170276047551311 0.0103128999007677 6.25973114743847e-17)
(-0.24256612354466 0.0123789063250894 7.2920416980568e-17)
(-0.171386200706059 0.0103539233106947 5.51791146677144e-17)
(-0.243711918736121 0.0124301216692832 6.57478267982953e-17)
(-0.172518485082898 0.0103887282627403 2.30577103421301e-17)
(-0.244878727302491 0.0124704669043836 2.75128875588562e-17)
(-0.173673103655516 0.0104225951219158 -2.23501117590778e-19)
(-0.24606742297634 0.012508506651644 -1.55924064435505e-17)
(-0.174850695991399 0.010457140772439 -1.25040858369421e-17)
(-0.247279028234282 0.0125470087252959 2.12404354517865e-17)
(-0.176051942695584 0.0104923541408803 -1.00793488269719e-17)
(-0.248514156205338 0.0125865057209517 -1.16013931620904e-17)
(-0.177278191628064 0.0105277938957952 6.65705457269245e-19)
(-0.249773729049819 0.0126265635107781 1.35125741377264e-17)
(-0.178531136435277 0.010563441531564 2.76982330057302e-17)
(-0.25105928639063 0.0126669167861734 2.42798678135138e-17)
(-0.179812097800212 0.0105996265056037 1.10776654807484e-16)
(-0.252372376040039 0.0127077702167346 5.86079207325855e-17)
(-0.18112196826883 0.0106365921475288 1.18331855373552e-16)
(-0.253714087921644 0.0127494487980703 1.37063696847086e-16)
(-0.182461838455887 0.010674188863311 9.94961318337118e-17)
(-0.255085340433073 0.0127920313029273 1.28816695558404e-16)
(-0.183833493330427 0.0107123395188718 9.42777769787577e-17)
(-0.256487583016282 0.0128352527532955 1.13364394837827e-16)
(-0.185238585865836 0.010751341130575 8.05473254284687e-17)
(-0.257922599311793 0.012879283640446 7.42415584120512e-17)
(-0.186678191790011 0.0107914782374014 2.08008609216205e-16)
(-0.259391782229221 0.0129244486952915 9.79736081849211e-17)
(-0.188153356906881 0.0108324515004521 1.96744947209596e-16)
(-0.260896069912145 0.0129708824371032 2.70861050750633e-16)
(-0.189666255158418 0.0108740246281734 3.15103769063717e-17)
(-0.262437082077771 0.0130180235689067 6.29968338675469e-17)
(-0.191219021852654 0.0109166947726154 4.92287679201256e-17)
(-0.264017142501573 0.0130660987336834 -4.12908016194966e-17)
(-0.192812960897874 0.0109611303525684 4.77183315688137e-17)
(-0.26563803061254 0.013115707241235 1.69585824938562e-16)
(-0.194448980781864 0.0110071183543767 -3.65637679500104e-17)
(-0.267300665190687 0.0131673461628135 -8.76366697764732e-18)
(-0.196129417451468 0.011054154420083 -2.32402671634556e-17)
(-0.269006613063321 0.0132202327467845 -8.52867101629162e-17)
(-0.19785682981444 0.011102677563112 -2.61763101442419e-17)
(-0.270758520958468 0.0132743932117092 -6.99592694139582e-18)
(-0.199632842514976 0.0111535644380259 9.85184463425052e-17)
(-0.272558577611961 0.0133305276729694 -6.5706935444081e-17)
(-0.201458287486355 0.0112068095359063 2.72153760155346e-16)
(-0.274407852359072 0.0133893909343255 2.31528153565426e-16)
(-0.203335270953564 0.0112615737509352 2.154170528293e-16)
(-0.276307654919949 0.0134502570720633 2.1875154234443e-16)
(-0.205266968044082 0.0113180274281908 2.0928342251043e-16)
(-0.278260831987375 0.0135125580429791 7.92569392807638e-17)
(-0.207255590254544 0.0113776580006597 2.69277555138498e-16)
(-0.280270406664441 0.0135771718995745 2.86063697969643e-16)
(-0.209301421814117 0.0114413962453142 5.50824183943682e-17)
(-0.282337580852746 0.0136457036427196 2.37444384984925e-16)
(-0.211405223442907 0.0115079753205671 -1.61487638508419e-16)
(-0.284462381736883 0.0137180829982841 -1.21968772743125e-16)
(-0.213570595326961 0.011576791691328 -1.83794768873865e-16)
(-0.286647090271425 0.0137924047976049 -1.80302989250553e-16)
(-0.215800178251572 0.0116501420395634 -3.05502923675924e-16)
(-0.288895542499865 0.0138696233659256 -2.30581598877731e-16)
(-0.218092549620123 0.0117306619915665 6.33583079422583e-18)
(-0.291208678524253 0.0139526323740503 -4.4769352220293e-16)
(-0.220444766365887 0.011816142392492 3.98468644582686e-16)
(-0.29358306706651 0.0140427981260411 3.0362704078523e-16)
(-0.222860650538199 0.0119042939028778 4.07182641537628e-16)
(-0.296018978097201 0.0141352531022381 3.05858852718878e-16)