/*--------------------------------*- C++ -*----------------------------------*\
  =========                 |
  \\      /  F ield         | OpenFOAM: The Open Source CFD Toolbox
   \\    /   O peration     | Website:  https://openfoam.org
    \\  /    A nd           | Version:  8
     \\/     M anipulation  |
\*---------------------------------------------------------------------------*/
FoamFile
{
    version     2.0;
    format      ascii;
    class       volScalarField::Internal;
    location    "0.0640000";
    object      V0;
}
// * * * * * * * * * * * * * * * * * * * * * * * * * * * * * * * * * * * * * //

dimensions      [0 3 0 0 0 0 0];

value           nonuniform List<scalar> 
900
(
3.94729664157452e-14
3.9001701900409e-14
3.85307165098334e-14
3.80598468226941e-14
3.75891981685878e-14
3.71187280913289e-14
3.66485580227034e-14
3.61787432054116e-14
3.57091681136002e-14
3.52397678830204e-14
3.47706300880439e-14
3.43017939842391e-14
3.38331737277416e-14
3.33647212922089e-14
3.28965194794165e-14
3.24286024844641e-14
3.19608910273515e-14
3.14933461536774e-14
3.10260522057488e-14
3.05590440068871e-14
3.00922425966209e-14
2.96256111659089e-14
2.91592413999446e-14
2.8693170133812e-14
2.8227313191789e-14
2.7761622304018e-14
2.72962269094852e-14
2.68311656541456e-14
2.63663240913443e-14
2.59016528014115e-14
2.54373334635679e-14
2.49734121013164e-14
2.45097341916477e-14
2.40462307747334e-14
2.35831882638793e-14
2.31206650261402e-14
2.26584110555485e-14
2.21963855618983e-14
2.17349985406342e-14
2.127432812195e-14
2.08140130004965e-14
2.03540303553047e-14
1.9895029019063e-14
1.94370957854378e-14
1.89796480632951e-14
1.85227488529791e-14
1.80674523242015e-14
1.76138098307447e-14
1.71608370388351e-14
1.67089320924447e-14
1.62597197730795e-14
1.58130657560153e-14
1.53673925775041e-14
1.49238188388222e-14
1.44848181580695e-14
1.40497674901057e-14
1.36160984421022e-14
1.3186503312584e-14
1.2763523759536e-14
1.2346481384478e-14
1.19296031432983e-14
1.15236836865044e-14
1.11449930573591e-14
1.07884978717224e-14
1.04399827997124e-14
1.01330215225246e-14
9.87061744326836e-15
9.61861503813807e-15
9.38357280099514e-15
9.1891222767926e-15
9.02441301891278e-15
8.86309402369631e-15
8.72392665546287e-15
8.60417010991545e-15
8.48595642461978e-15
8.37427656336244e-15
8.26139778293126e-15
8.13238769738457e-15
7.99721053932604e-15
7.85556154834494e-15
7.6742575404138e-15
7.45809760786844e-15
7.24608527733893e-15
6.98316755479715e-15
6.65370200173355e-15
6.33971513701e-15
6.2145641587226e-15
6.22140205516475e-15
6.20156499430066e-15
6.18187328564076e-15
6.13948876508043e-15
6.08582665228811e-15
6.03882782919484e-15
5.98737649836518e-15
5.9327097672138e-15
5.87887813805477e-15
5.82388819752525e-15
5.76853637483287e-15
5.70906183021591e-15
5.59331998350875e-15
4.0437719799995e-14
3.99439724469701e-14
3.94509098587551e-14
3.89584374272128e-14
3.84665477973805e-14
3.79752010518304e-14
3.74843914962959e-14
3.69941144129006e-14
3.65043510171902e-14
3.6015086469655e-14
3.55263207675322e-14
3.50380528073985e-14
3.45502710432763e-14
3.40629680934766e-14
3.35761483335436e-14
3.30898135173171e-14
3.2603955653392e-14
3.2118571347039e-14
3.16336681268572e-14
3.11492500165508e-14
3.06653111616418e-14
3.01818506918375e-14
2.96988786796348e-14
2.92164009369465e-14
2.87344127568737e-14
2.82529165700284e-14
2.77719278035672e-14
2.72914552020306e-14
2.68114946885729e-14
2.63320538411824e-14
2.58531573313619e-14
2.53748196736147e-14
2.4897038753197e-14
2.44198314346565e-14
2.39432388907822e-14
2.3467285829832e-14
2.29919750939804e-14
2.25173408617968e-14
2.20434519543763e-14
2.15703519015605e-14
2.10980569325075e-14
2.06266340983668e-14
2.0156198825952e-14
1.96868235379821e-14
1.92185459371563e-14
1.87514914967719e-14
1.82858546196597e-14
1.78217541454858e-14
1.7359272256093e-14
1.6898641363809e-14
1.64401801481552e-14
1.59840730814105e-14
1.5530485660615e-14
1.50798366177293e-14
1.46326373234919e-14
1.41891624401714e-14
1.3749733678807e-14
1.33151221388575e-14
1.28863737221994e-14
1.24645527922517e-14
1.20519027566686e-14
1.16526385433177e-14
1.12712190612313e-14
1.09103804256043e-14
1.05731206956357e-14
1.02630467841374e-14
9.98085465936612e-15
9.72405567902662e-15
9.49158095645288e-15
9.2838925333889e-15
9.09842162978759e-15
8.93084051416657e-15
8.77822687637985e-15
8.63732279317372e-15
8.5031213165694e-15
8.37079823235749e-15
8.23510729427692e-15
8.09082719285676e-15
7.93437612504054e-15
7.7609012624578e-15
7.56344923745125e-15
7.33973257497796e-15
7.08959184324772e-15
6.80524723365044e-15
6.48327801865927e-15
6.1574317421538e-15
6.02670499484813e-15
6.05699541144997e-15
6.06111544231353e-15
6.04830183441683e-15
6.02108834814561e-15
5.98390240295653e-15
5.94179185010424e-15
5.89606130378935e-15
5.84783230637148e-15
5.79865099723489e-15
5.74950606465354e-15
5.70141307305088e-15
5.65485786290556e-15
5.61791755619863e-15
4.13954924670072e-14
4.08800595023622e-14
4.03653759983473e-14
3.98515543943288e-14
3.93385691436554e-14
3.88263806185596e-14
3.83149844435744e-14
3.78043762263333e-14
3.72945353668663e-14
3.67854459912617e-14
3.62771090676099e-14
3.57695237606371e-14
3.52626771538245e-14
3.47565611939518e-14
3.42511812762491e-14
3.37465394392947e-14
3.32426264362043e-14
3.27394383279641e-14
3.22369837936422e-14
3.17352672232295e-14
3.12342814755658e-14
3.07340251465746e-14
3.02345096754018e-14
2.97357412777849e-14
2.9237713751991e-14
2.87404289351638e-14
2.82439042428708e-14
2.77481488817156e-14
2.725315668207e-14
2.67589345806058e-14
2.62655102462188e-14
2.57728987875228e-14
2.52810950212656e-14
2.47901149249917e-14
2.43000046505923e-14
2.38107896014494e-14
2.33224674913234e-14
2.28350719209468e-14
2.23486794153223e-14
2.186333428356e-14
2.1379044639342e-14
2.0895877245519e-14
2.0413960325782e-14
1.99333665604041e-14
1.94541194844275e-14
1.89763456977195e-14
1.85002615377878e-14
1.80259837477839e-14
1.75535690550472e-14
1.70832571380586e-14
1.66154030800013e-14
1.61501810576259e-14
1.56877116832486e-14
1.52284375813047e-14
1.47729288413054e-14
1.43214285875248e-14
1.38741803924499e-14
1.34320087498759e-14
1.29960149896629e-14
1.25671724728255e-14
1.21475201844576e-14
1.1741541340215e-14
1.13541005236273e-14
1.0987664970949e-14
1.06448574165906e-14
1.03300891512677e-14
1.00440845687071e-14
9.78344998846873e-15
9.54725829718648e-15
9.33635806378166e-15
9.1479348879401e-15
8.97726680577337e-15
8.82148448397014e-15
8.67720787827955e-15
8.53930622940894e-15
8.40274664721771e-15
8.26227315694406e-15
8.11275365312902e-15
7.95008867346804e-15
7.76927827027299e-15
7.56456976163412e-15
7.33302334742008e-15
7.07252556303047e-15
6.77837801381859e-15
6.44842096624464e-15
6.11436297124143e-15
5.98079455803956e-15
6.01350587144101e-15
6.02165235962799e-15
6.01166872396357e-15
5.98776713663107e-15
5.95396020757019e-15
5.91403191731759e-15
5.87015065901198e-15
5.82375617175563e-15
5.77626799473362e-15
5.72898306704722e-15
5.68337826678977e-15
5.64204779104306e-15
5.61380540590049e-15
4.23551109095858e-14
4.18179207688772e-14
4.12815622886286e-14
4.07463493657641e-14
4.02122288570364e-14
3.96791608779115e-14
3.91471406932289e-14
3.86161634748027e-14
3.80862079840651e-14
3.75572579489554e-14
3.70293142121255e-14
3.65023756906916e-14
3.59764290814876e-14
3.5451466146987e-14
3.49274922804349e-14
3.44045093767548e-14
3.38825079255997e-14
3.33614839075554e-14
3.28414460752121e-14
3.23223987411101e-14
3.18043345606071e-14
3.12872521099708e-14
3.07711629475326e-14
3.02560732352676e-14
2.97419766072151e-14
2.92288749614422e-14
2.8716785911636e-14
2.82057186386469e-14
2.76956668334252e-14
2.71866375995709e-14
2.6678658931176e-14
2.61717459602865e-14
2.5665893405835e-14
2.51611175900922e-14
2.46574651902004e-14
2.41549616998243e-14
2.36536048208155e-14
2.31534287716491e-14
2.26545108924091e-14
2.21568957173846e-14
2.16605915297469e-14
2.11656661540974e-14
2.06722490009389e-14
2.01804130854584e-14
1.96901823765649e-14
1.9201685165046e-14
1.87151394599324e-14
1.82306624847438e-14
1.77483118872273e-14
1.72683298942285e-14
1.67910736584703e-14
1.63167179331392e-14
1.58453850398235e-14
1.5377521080549e-14
1.49136983156294e-14
1.44541604375605e-14
1.39991540074136e-14
1.35495085891863e-14
1.31063311528826e-14
1.26706039950985e-14
1.22443873713555e-14
1.18321882746724e-14
1.14388850736442e-14
1.10669523492271e-14
1.071901743297e-14
1.03994770394776e-14
1.01090355127439e-14
9.84426879673066e-15
9.60419877821829e-15
9.38963754606081e-15
9.19773432063755e-15
9.02371030664659e-15
8.86463756541841e-15
8.71708607871706e-15
8.57587039026819e-15
8.43589817306097e-15
8.2918591242367e-15
8.13856874670224e-15
7.97186672319337e-15
7.78671998629093e-15
7.57739252457503e-15
7.34085810890523e-15
7.0748812403695e-15
6.7749629984363e-15
6.43910238891611e-15
6.09960661791359e-15
5.96443097684342e-15
5.99689049169288e-15
6.00560839266296e-15
5.99638365191953e-15
5.97339888760706e-15
5.94058040091105e-15
5.90154899485327e-15
5.85850417926891e-15
5.81293023417954e-15
5.7662520268095e-15
5.71981531865131e-15
5.67522071996756e-15
5.6352556129253e-15
5.60833375476977e-15
4.33163684981492e-14
4.27573651163123e-14
4.21992865616958e-14
4.16426455026216e-14
4.10873534996705e-14
4.0533370244303e-14
3.99806906079012e-14
3.94293093959224e-14
3.88792047458675e-14
3.83303599262659e-14
3.77827756441589e-14
3.72364506200331e-14
3.66913711667409e-14
3.61475288131353e-14
3.56049289502764e-14
3.50635733759369e-14
3.45234523136414e-14
3.39845616174315e-14
3.34469101178215e-14
3.29105020951567e-14
3.2375329995328e-14
3.18413923282904e-14
3.13087007829245e-14
3.07772615154395e-14
3.02470679782118e-14
2.97181220742835e-14
2.91904416376333e-14
2.86640358807282e-14
2.8138898322034e-14
2.7615036158462e-14
2.70924777497721e-14
2.65712383242971e-14
2.6051312440045e-14
2.55327166590167e-14
2.50154982639991e-14
2.44996829345938e-14
2.39852682387904e-14
2.34722888779172e-14
2.29608231459384e-14
2.24509159182549e-14
2.19425754336772e-14
2.14358704009788e-14
2.09309316877589e-14
2.04278327882014e-14
1.99265976956859e-14
1.94273561736415e-14
1.89303284289635e-14
1.84356322949672e-14
1.79433255572364e-14
1.74536528451632e-14
1.69669743904708e-14
1.64834654623464e-14
1.60032486236298e-14
1.55267736892435e-14
1.50546169378789e-14
1.45870219571647e-14
1.41242355706927e-14
1.36670930174473e-14
1.32167082445498e-14
1.27740679212097e-14
1.23412456375266e-14
1.19227803464949e-14
1.15235791926873e-14
1.11461181370461e-14
1.07930214649474e-14
1.04686945264294e-14
1.01738232699676e-14
9.90492859242955e-15
9.66098273034873e-15
9.44276837824916e-15
9.24739239930485e-15
9.07001339970117e-15
8.90764822601698e-15
8.75682146417239e-15
8.61230136671161e-15
8.46895103513267e-15
8.32142037751306e-15
8.16449151760515e-15
7.99398499761641e-15
7.8048586791924e-15
7.59136640276311e-15
7.35047159658448e-15
7.07993399598055e-15
6.77527097918132e-15
6.43452407211715e-15
6.09061943736525e-15
5.95439050194683e-15
5.986333221412e-15
5.99501839744933e-15
5.98601714525418e-15
5.96342060086251e-15
5.93109519057631e-15
5.89260440580344e-15
5.85012072240922e-15
5.80511795846895e-15
5.7590118617044e-15
5.71314596898336e-15
5.66912542713522e-15
5.62971411018711e-15
5.60317985388555e-15
4.42792086522958e-14
4.3698338247985e-14
4.31184963362675e-14
4.25403920418038e-14
4.19638942078117e-14
4.13889617394472e-14
4.08155890580612e-14
4.02437706623567e-14
3.96734840945373e-14
3.91047121085022e-14
3.85374552505279e-14
3.79717120900924e-14
3.74074685718046e-14
3.68447159455046e-14
3.62834595865436e-14
3.57237012379289e-14
3.51654308678145e-14
3.46086441625633e-14
3.40533500204474e-14
3.34995527304148e-14
3.29472445391209e-14
3.2396423849813e-14
3.18471024739805e-14
3.12992866052658e-14
3.07529695196798e-14
3.02081530769225e-14
2.96648553263256e-14
2.91230855629635e-14
2.85828371329596e-14
2.80441172645896e-14
2.7506954679157e-14
2.6971364765701e-14
2.64373419152459e-14
2.59049028436775e-14
2.53740954382753e-14
2.48449456520302e-14
2.43174509010931e-14
2.37916462502599e-14
2.32676109512951e-14
2.27453903365149e-14
2.22249925657829e-14
2.1706487068292e-14
2.11900061912712e-14
2.0675624072712e-14
2.01633646635913e-14
1.96533589752305e-14
1.9145829467899e-14
1.86408948103878e-14
1.81386128057737e-14
1.76392301935776e-14
1.71431104180901e-14
1.66504295655711e-14
1.61613102248031e-14
1.56762055622295e-14
1.51956961446735e-14
1.47200258384142e-14
1.42494413659727e-14
1.3784783103262e-14
1.33271720960008e-14
1.28775991743764e-14
1.24381496729755e-14
1.20133935072301e-14
1.16082684177588e-14
1.12252539095336e-14
1.08669714437381e-14
1.05378356101463e-14
1.02385157701701e-14
9.96547824880924e-15
9.71764491832401e-15
9.49576860465457e-15
9.29691313608007e-15
9.11617403450287e-15
8.95051253624355e-15
8.79640692203478e-15
8.64857878540667e-15
8.50184748942642e-15
8.35082508295696e-15
8.19026426498103e-15
8.01597274071933e-15
7.82290634662585e-15
7.60531700843837e-15
7.36017456807202e-15
7.08525260252312e-15
6.77608349714515e-15
6.43074669036327e-15
6.08275860847209e-15
5.94569194709089e-15
5.97712601066021e-15
5.9856754591435e-15
5.97677808398491e-15
5.95445014860203e-15
5.92250627139896e-15
5.8844648523362e-15
5.84246741032693e-15
5.79796831164157e-15
5.75236749761863e-15
5.7069940392054e-15
5.66343450363349e-15
5.62441444900987e-15
5.59812368552836e-15
4.52435720099724e-14
4.46407827533005e-14
4.40391355016869e-14
4.3439534229365e-14
4.28417977982234e-14
4.22458837147329e-14
4.1651785889651e-14
4.10594985764668e-14
4.04689987516225e-14
3.98802685944016e-14
3.92933084628313e-14
3.87081168226805e-14
3.81246792660836e-14
3.75429867158148e-14
3.69630445162324e-14
3.63848543991286e-14
3.5808406088894e-14
3.52336950604297e-14
3.46607302677458e-14
3.40895160508919e-14
3.35200444676819e-14
3.2952313771563e-14
3.23863358882342e-14
3.18221170931422e-14
3.12596504901747e-14
3.06989378445365e-14
3.01399974149115e-14
2.95828386317763e-14
2.90274546684981e-14
2.84738527183428e-14
2.79220618588742e-14
2.73720977069195e-14
2.68239544781382e-14
2.62776489502379e-14
2.57332296137677e-14
2.51907227857648e-14
2.46501257086114e-14
2.41114736841257e-14
2.35748469262637e-14
2.30402913429039e-14
2.25078149737819e-14
2.19774877980436e-14
2.14494436683553e-14
2.09237575340193e-14
2.04004532261049e-14
1.98796627697236e-14
1.93616109459912e-14
1.8846417489915e-14
1.83341400810668e-14
1.78250272714317e-14
1.73194458829187e-14
1.68175731252214e-14
1.63195313592104e-14
1.58257767543765e-14
1.5336894508322e-14
1.48531291479134e-14
1.4374726863788e-14
1.39025326696415e-14
1.34376749070555e-14
1.29811482528385e-14
1.25350480968969e-14
1.21039748625712e-14
1.16928995061061e-14
1.13043073344718e-14
1.09408172642741e-14
1.06068545562691e-14
1.0303073730731e-14
1.00258858944744e-14
9.77416125922257e-15
9.54862183188526e-15
9.34628672748117e-15
9.16218668424724e-15
8.99322575836663e-15
8.83583368226078e-15
8.68468335171497e-15
8.53454906284137e-15
8.38000426087655e-15
8.21577245725917e-15
8.03764934022356e-15
7.8405903290619e-15
7.61884867008934e-15
7.36940482261234e-15
7.09005111785874e-15
6.77634177615195e-15
6.4264082766327e-15
6.07437064570475e-15
5.93649503857011e-15
5.96740160534812e-15
5.9757823944332e-15
5.9669610024291e-15
5.94487695829177e-15
5.91329225732603e-15
5.87568128571043e-15
5.83415446180073e-15
5.79014530392062e-15
5.74503599215276e-15
5.70013688209534e-15
5.65700481054952e-15
5.61831084858454e-15
5.5921901597433e-15
4.62096881355402e-14
4.55849763222133e-14
4.4961502328279e-14
4.43403774357192e-14
4.3721377136373e-14
4.31044566377898e-14
4.24896092710299e-14
4.1876829108714e-14
4.12660925968036e-14
4.06573812879616e-14
4.00506953291956e-14
3.94460331319773e-14
3.88433799574688e-14
3.82427263607673e-14
3.76440776504682e-14
3.70474355949172e-14
3.6452789689138e-14
3.58601351602494e-14
3.52694810179559e-14
3.46808317025949e-14
3.40941791018651e-14
3.3509521286936e-14
3.29268702907509e-14
3.23462325246659e-14
3.17676009506395e-14
3.11909771969588e-14
3.06163797271802e-14
3.00438181726349e-14
2.94732855446381e-14
2.89047889515938e-14
2.83383578336591e-14
2.77740081144741e-14
2.72117338441559e-14
2.66515517890003e-14
2.60935110488178e-14
2.55376384112319e-14
2.49839309464617e-14
2.44324240761899e-14
2.38831989944629e-14
2.33363023216786e-14
2.27917419564787e-14
2.22495882650506e-14
2.17099766349288e-14
2.11729830035999e-14
2.06386310189392e-14
2.010705349741e-14
1.95784775837321e-14
1.90530242886187e-14
1.85307510408727e-14
1.80119078703579e-14
1.74968650462798e-14
1.69858011514453e-14
1.6478838044448e-14
1.59764344209333e-14
1.5479180195269e-14
1.49873207904705e-14
1.45011013180507e-14
1.40213705279056e-14
1.35492636750609e-14
1.30857783513055e-14
1.26330171754228e-14
1.21956080479175e-14
1.17785542640529e-14
1.13843464652328e-14
1.10155982964794e-14
1.06767423246456e-14
1.03684166140211e-14
1.00869758405727e-14
9.83123542498401e-15
9.60188230690543e-15
9.39588848969042e-15
9.20821946902223e-15
9.03572101399217e-15
8.87477343259638e-15
8.72000216051591e-15
8.56613889916462e-15
8.40772209539795e-15
8.23945053802324e-15
8.05711188957254e-15
7.855666143069e-15
7.62937378147735e-15
7.37522858271431e-15
7.09104417691968e-15
6.77241212500697e-15
6.41758041927088e-15
6.06134963706192e-15
5.92249189673555e-15
5.95266423236437e-15
5.96080436468043e-15
5.9520480966402e-15
5.93020891481493e-15
5.89898729366902e-15
5.86181213167431e-15
5.82076322730546e-15
5.77725341908301e-15
5.73264630148313e-15
5.68822957909516e-15
5.64550558792861e-15
5.60695018363855e-15
5.58054687040741e-15
4.71591327155506e-14
4.65061039179978e-14
4.58608150896137e-14
4.52181436011567e-14
4.45778576206236e-14
4.39399084642042e-14
4.33042893139521e-14
4.26709941602147e-14
4.20399993795733e-14
4.1411285504148e-14
4.07848520013805e-14
4.01606977639739e-14
3.95388080777495e-14
3.89191728311147e-14
3.83017966624286e-14
3.76866818890403e-14
3.70738181717597e-14
3.64632003342436e-14
3.58548369767441e-14
3.52487328881017e-14
3.46448800940894e-14
3.40432761098192e-14
3.3443933335429e-14
3.28468586793757e-14
3.22520440624662e-14
3.16594909747667e-14
3.10692186272448e-14
3.04812367825771e-14
2.98955386776356e-14
2.93121308306352e-14
2.87310429439402e-14
2.81522915410659e-14
2.75758706997086e-14
2.70017965918141e-14
2.64301189749412e-14
2.58608654171196e-14
2.52940327056992e-14
2.47296564222287e-14
2.41678181617607e-14
2.36085655209874e-14
2.30519065509209e-14
2.24979114809249e-14
2.19467167965295e-14
2.13983999719439e-14
2.08529849396441e-14
2.03106037264697e-14
1.97714853500079e-14
1.92357535989985e-14
1.87034652446622e-14
1.81748702677888e-14
1.7650342212154e-14
1.71300622571028e-14
1.66141512627734e-14
1.61030676941788e-14
1.55974068971729e-14
1.50974167213784e-14
1.46033391543354e-14
1.41160239475126e-14
1.36366112262826e-14
1.31661007893055e-14
1.2706593566778e-14
1.22627309108725e-14
1.1839549537689e-14
1.14395518022652e-14
1.10653353621947e-14
1.07213353650169e-14
1.04081921965217e-14
1.01222113290543e-14
9.86214316719401e-15
9.62864422403164e-15
9.41865669107806e-15
9.22708647067935e-15
9.05072530157173e-15
8.88591931155494e-15
8.72725901517864e-15
8.56944348436781e-15
8.40698964899855e-15
8.23457936282263e-15
8.04799874645618e-15
7.84222256499505e-15
7.61152133930622e-15
7.35289718211644e-15
7.06418929336765e-15
6.74104381658953e-15
6.38208548797462e-15
6.02360457990062e-15
5.88392163169575e-15
5.91208806520053e-15
5.91993022636097e-15
5.91121809219422e-15
5.88956959216019e-15
5.85862891136233e-15
5.82178940125147e-15
5.78110914017239e-15
5.73798572469878e-15
5.69376858534709e-15
5.6497258365874e-15
5.60729295348057e-15
5.56848403289658e-15
5.53710142314671e-15
)
;


// ************************************************************************* //
