/*--------------------------------*- C++ -*----------------------------------*\
| =========                 |                                                 |
| \\      /  F ield         | OpenFOAM: The Open Source CFD Toolbox           |
|  \\    /   O peration     | Version:  4.1                                   |
|   \\  /    A nd           | Web:      www.OpenFOAM.org                      |
|    \\/     M anipulation  |                                                 |
\*---------------------------------------------------------------------------*/
FoamFile
{
    version     2.0;
    format      ascii;
    class       volScalarField;
    location    "0.000360";
    object      nut;
}
// * * * * * * * * * * * * * * * * * * * * * * * * * * * * * * * * * * * * * //

dimensions      [0 2 -1 0 0 0 0];

internalField   nonuniform List<scalar> 
3072
(
0.0003278643
0.00031926301
0.00030774927
0.0002975025
0.0002850426
0.00027383703
0.00026273553
0.00025176682
0.00024214244
0.00023196791
0.00022377501
0.0002164057
0.00021026494
0.00020541
0.0002010513
0.00019825757
0.00019613225
0.00019558623
0.00019663854
0.00020013581
0.00021012021
0.00023746365
0.00032148394
0.00058465538
0.00042474303
0.00041599574
0.00040435704
0.00039364811
0.00038012031
0.00036764451
0.00035490696
0.00034204973
0.00033061498
0.00031831969
0.00030841549
0.00029944801
0.00029205347
0.00028633205
0.00028124781
0.00027832172
0.00027633428
0.00027652188
0.00027893258
0.0002845175
0.00029891386
0.00033778435
0.00044890256
0.00070514752
0.00049528543
0.00048677291
0.00047565475
0.0004655474
0.00045302527
0.00044125536
0.00042932237
0.00041685232
0.00040575012
0.00039395042
0.00038422806
0.00037557052
0.00036834359
0.00036304459
0.00035851076
0.00035631033
0.00035538592
0.00035664469
0.00036054377
0.00036811132
0.000386694
0.00043495141
0.00055505755
0.00076533497
0.00054654889
0.00053885045
0.00052912218
0.00052053194
0.00051058562
0.00050097925
0.00049161134
0.00048134953
0.00047232435
0.00046312499
0.00045518279
0.00044858755
0.00044290806
0.00043922248
0.00043670773
0.00043613364
0.00043729748
0.00044013646
0.00044600014
0.00045595102
0.00047814313
0.00053146004
0.00064474519
0.0008011381
0.00058173216
0.00057495965
0.00056714924
0.00056063646
0.00055423215
0.00054780233
0.00054193545
0.00053604994
0.00053061756
0.00052576088
0.00052113687
0.00051790006
0.00051571482
0.00051497247
0.00051584914
0.00051796008
0.00052200056
0.00052754706
0.00053589822
0.00054868813
0.00057329715
0.00062615259
0.00071943321
0.00082209262
0.0005981893
0.00059241536
0.00058737489
0.00058354227
0.00058092525
0.00057886282
0.00057725904
0.00057660625
0.0005759208
0.00057594842
0.00057663646
0.00057792214
0.00058034764
0.00058402278
0.0005889508
0.00059519235
0.00060278987
0.00061193962
0.00062354134
0.00063922381
0.00066516914
0.00071168864
0.00077827926
0.00083307469
0.00058027041
0.00057715724
0.00057619936
0.00057664968
0.00057836743
0.00058125186
0.00058494973
0.00058931142
0.00059372266
0.00059868911
0.00060441862
0.00061075735
0.00061798542
0.00062622408
0.00063532518
0.00064574393
0.00065732031
0.00067062914
0.00068596967
0.0007047581
0.00073069524
0.00076892629
0.00081209866
0.00084007598
0.00049326984
0.00049514458
0.00050003662
0.00050753083
0.00051673518
0.00052664588
0.00053617636
0.00054465489
0.00055201615
0.00055916196
0.00056681243
0.00057536786
0.00058520428
0.00059628578
0.00060848823
0.00062198649
0.00063704715
0.00065424101
0.0006739473
0.00069697599
0.0007252952
0.00076154629
0.00080311551
0.00083947362
0.00042463581
0.00041584548
0.00040418669
0.00039344926
0.00037988241
0.00036737378
0.00035461262
0.00034170862
0.00033019878
0.00031787754
0.00030802299
0.00029911839
0.00029177998
0.00028611192
0.00028107013
0.00027817577
0.0002762171
0.00027644396
0.00027887866
0.00028446665
0.00029886583
0.00033773976
0.00044886461
0.00070512202
0.00056545692
0.00055809304
0.00054883818
0.00054015855
0.00052861216
0.00051769143
0.00050582342
0.00049342386
0.00048188589
0.00046911551
0.00045880287
0.00044924331
0.00044164774
0.00043599551
0.00043122199
0.00042925109
0.00042839173
0.00043046775
0.00043535952
0.0004445118
0.00046600157
0.00051964249
0.0006393571
0.00080080484
0.00066069281
0.00065420338
0.00064651632
0.0006395016
0.00063050934
0.00062201733
0.00061287125
0.00060319305
0.00059423719
0.00058435075
0.00057633838
0.0005689873
0.0005633449
0.00055957798
0.00055676387
0.0005565984
0.00055771663
0.00056150116
0.00056825593
0.00057964389
0.0006037289
0.00065520848
0.00074431189
0.00083024112
0.00071502896
0.00070953907
0.00070352586
0.00069827624
0.00069225316
0.00068661445
0.00068087405
0.00067474233
0.00066928721
0.00066363624
0.00065907087
0.00065532306
0.0006526632
0.00065163082
0.00065169417
0.00065358138
0.00065684506
0.00066176772
0.00066922396
0.00068038354
0.0007011619
0.00074032002
0.00079714867
0.0008413167
0.00074337505
0.00073818553
0.00073322115
0.00072914666
0.00072542168
0.00072210977
0.00071917261
0.00071649736
0.00071428269
0.00071254554
0.0007113289
0.00071104527
0.00071172356
0.00071355684
0.00071649412
0.00072040034
0.00072549463
0.00073159013
0.00073931884
0.00074953308
0.0007656861
0.00079268628
0.00082599938
0.00084649204
0.0007487059
0.00074303172
0.00073851984
0.00073501944
0.00073264252
0.000731265
0.00073035727
0.00073026792
0.00073067902
0.00073173026
0.00073361698
0.0007362952
0.00073980582
0.00074430358
0.00074962894
0.00075580675
0.00076283785
0.0007706268
0.0007793757
0.0007896082
0.00080318419
0.00082216778
0.00084190122
0.00084925051
0.00070696281
0.0007009401
0.00069688398
0.00069448443
0.00069352457
0.00069386931
0.00069506323
0.00069708332
0.00069967706
0.00070294798
0.00070709686
0.00071216112
0.00071812519
0.00072502031
0.00073275812
0.00074152514
0.00075133486
0.00076226051
0.00077427444
0.00078773979
0.00080393774
0.00082432737
0.00084369992
0.00084971477
0.00058079127
0.00057743261
0.0005764045
0.00057712811
0.00057880405
0.00058170025
0.00058516777
0.00058903319
0.0005930289
0.0005976788
0.00060330603
0.00060969777
0.00061714433
0.00062568875
0.00063504035
0.00064548476
0.00065726257
0.00067071014
0.00068609306
0.0007049886
0.00073087062
0.00076880681
0.00081187076
0.00083997531
0.00049506626
0.0004864776
0.00047533502
0.00046517201
0.00045256328
0.0004407014
0.00042868151
0.00041607947
0.00040481379
0.00039282684
0.00038321462
0.0003747341
0.00036766577
0.000362491
0.00035806039
0.00035592968
0.00035506275
0.00035641488
0.00036038408
0.00036798421
0.00038660533
0.00043489676
0.00055501459
0.00076529571
0.00066046714
0.00065396789
0.00064630422
0.00063929013
0.00063026646
0.00062171283
0.00061248249
0.0006026829
0.00059354672
0.00058348279
0.00057550017
0.00056824761
0.0005626955
0.00055899137
0.00055624974
0.00055614176
0.00055730301
0.00056117447
0.00056801305
0.00057946094
0.00060360159
0.00065512403
0.00074425593
0.00083022156
0.00076540311
0.00076052757
0.00075515713
0.00075029768
0.00074429573
0.0007386712
0.00073262722
0.00072632628
0.00072050509
0.00071425819
0.00070951813
0.00070541164
0.00070278249
0.00070159032
0.00070131194
0.0007030412
0.000705766
0.00071045156
0.00071726395
0.00072736494
0.00074542278
0.00077700281
0.0008189706
0.00084627412
0.00081401631
0.00081048878
0.0008068879
0.00080369842
0.00080013721
0.0007968701
0.00079352429
0.0007901222
0.00078713115
0.00078423675
0.00078230003
0.00078107066
0.00078085889
0.00078166019
0.00078316826
0.0007857308
0.00078889991
0.00079282061
0.00079758439
0.00080350789
0.00081260403
0.0008271267
0.00084388585
0.00085051689
0.00083064258
0.00082735601
0.00082433403
0.00082171791
0.00081934406
0.00081727064
0.00081544873
0.00081385393
0.00081258139
0.00081172186
0.00081150527
0.00081207308
0.00081349888
0.00081557745
0.00081817487
0.00082123067
0.0008245626
0.00082804256
0.00083155349
0.00083506034
0.00083936476
0.00084584902
0.00085242269
0.00085176353
0.00081896956
0.00081467319
0.00081118416
0.00080830049
0.00080608237
0.00080456749
0.00080349427
0.00080287799
0.00080261492
0.00080281189
0.0008037523
0.00080564757
0.00080835015
0.00081164402
0.00081531226
0.00081935029
0.0008237004
0.00082822937
0.00083273113
0.0008370471
0.00084178275
0.00084806253
0.00085367834
0.00085184613
0.00074887613
0.00074312499
0.00073873126
0.00073524851
0.0007327828
0.00073126314
0.00073017903
0.00072984105
0.00072997688
0.00073067853
0.00073233234
0.00073518417
0.00073901065
0.00074375494
0.00074915824
0.00075530871
0.00076232722
0.00077021747
0.00077904451
0.00078939417
0.00080310599
0.00082211095
0.00084170086
0.00084916802
0.00059854218
0.00059261223
0.00058771291
0.0005837828
0.00058108439
0.00057889453
0.00057709336
0.00057616116
0.0005752325
0.00057496374
0.00057558194
0.00057707225
0.00057972815
0.00058357487
0.00058858969
0.00059469824
0.00060235806
0.00061161868
0.00062327169
0.00063909374
0.00066508776
0.00071167089
0.00077804218
0.00083295105
0.00054635684
0.00053853442
0.00052876506
0.00052009214
0.00051001799
0.00050026923
0.00049071842
0.00048019875
0.00047085076
0.00046131317
0.00045348046
0.0004471369
0.0004417258
0.00043819817
0.00043582637
0.00043535843
0.00043661236
0.00043961063
0.0004456147
0.00045567312
0.00047797572
0.00053138231
0.00064469791
0.00080105837
0.00071480187
0.00070925622
0.00070324345
0.00069797147
0.0006918758
0.00068611773
0.00068018314
0.00067378756
0.00066799713
0.00066198146
0.00065739931
0.00065378494
0.00065126514
0.00065030772
0.00065049057
0.00065249126
0.00065585092
0.00066095497
0.00066860052
0.00067991342
0.0007008405
0.00074012441
0.00079700559
0.00084128086
0.00081387081
0.00081033334
0.00080675126
0.00080356747
0.00079998153
0.00079665626
0.00079321043
0.00078969639
0.00078659072
0.00078354368
0.00078157551
0.00078036039
0.00078015071
0.00078093122
0.00078247425
0.00078509748
0.00078832942
0.00079234723
0.00079721198
0.00080321986
0.00081240615
0.00082701781
0.00084384092
0.00085050174
0.00085269213
0.00085043567
0.00084833164
0.00084642386
0.00084440234
0.00084255269
0.00084065594
0.00083880828
0.00083722971
0.00083586146
0.00083526774
0.00083540892
0.00083633989
0.00083783118
0.00083963856
0.00084181184
0.00084403071
0.00084613153
0.00084788881
0.00084911917
0.00085038974
0.00085288435
0.00085540988
0.00085248769
0.0008583041
0.00085611225
0.00085418535
0.0008524205
0.00085075051
0.0008492855
0.00084791107
0.00084664988
0.00084557612
0.00084476697
0.00084461275
0.00084530497
0.00084677012
0.0008485985
0.00085055689
0.00085261549
0.00085456916
0.00085622403
0.0008572849
0.00085747579
0.00085706408
0.00085718222
0.00085715248
0.00085269934
0.00083062058
0.00082726357
0.00082424375
0.00082150808
0.00081903779
0.00081687219
0.00081500338
0.00081333709
0.00081185974
0.00081072909
0.00081030193
0.00081099217
0.00081267888
0.00081492607
0.00081748577
0.00082045665
0.00082377754
0.00082730548
0.00083094066
0.0008345838
0.00083905425
0.00084567892
0.00085228488
0.00085171079
0.00074343919
0.00073818991
0.00073325659
0.00072906157
0.00072519321
0.00072174467
0.00071869971
0.00071584522
0.00071325437
0.000711031
0.00070946013
0.00070934935
0.0007103927
0.00071248263
0.00071537876
0.00071921666
0.0007243152
0.00073051382
0.00073843362
0.00074881658
0.00076521109
0.00079232102
0.00082579578
0.0008463842
0.00058200088
0.00057511818
0.00056738788
0.000560751
0.00055419964
0.00054760561
0.00054160301
0.00053559291
0.00052989414
0.00052478379
0.00052002919
0.00051694978
0.00051494777
0.00051435926
0.00051515941
0.00051721241
0.00052125319
0.00052686861
0.00053535159
0.00054823011
0.00057301142
0.00062601858
0.00071941328
0.00082197311
0.0005816062
0.00057469661
0.00056680535
0.00056020729
0.00055366499
0.00054705455
0.00054092206
0.00053469991
0.00052882749
0.00052352216
0.00051887568
0.00051584416
0.0005138719
0.00051324435
0.00051423691
0.00051646921
0.00052065243
0.00052642307
0.00053503534
0.00054806783
0.0005729094
0.00062598721
0.00071912468
0.00082203216
0.00074322226
0.00073795235
0.00073293306
0.00072882111
0.00072499709
0.00072150939
0.00071833034
0.00071535034
0.00071276223
0.00071063594
0.00070926713
0.00070901191
0.00070972059
0.00071153924
0.00071453892
0.00071855473
0.00072380629
0.00073015956
0.00073818531
0.00074867458
0.00076510374
0.00079227147
0.00082578376
0.00084644394
0.00083046647
0.000827156
0.00082413426
0.00082150054
0.00081907838
0.0008168998
0.00081492494
0.00081319407
0.00081181875
0.00081088011
0.0008105976
0.00081113178
0.00081244989
0.00081440684
0.00081701015
0.0008201313
0.00082356289
0.00082719473
0.0008308701
0.00083454455
0.00083901692
0.0008456495
0.00085236279
0.00085174411
0.00085816294
0.00085599319
0.00085408394
0.00085232065
0.00085063823
0.00084912544
0.00084768443
0.00084641143
0.00084541349
0.00084470257
0.00084458759
0.00084523059
0.00084657696
0.00084827206
0.0008501603
0.00085221581
0.00085419551
0.00085589961
0.00085701682
0.00085728227
0.0008569638
0.00085716782
0.00085717604
0.00085270597
0.00085258458
0.00085030511
0.00084810055
0.00084606022
0.00084393222
0.00084200343
0.00084016841
0.00083832874
0.0008367644
0.00083529618
0.00083453098
0.00083467459
0.00083580502
0.00083733502
0.000839045
0.00084113878
0.00084328617
0.0008454388
0.00084728317
0.00084869947
0.00085014568
0.00085273926
0.00085533194
0.00085247066
0.00081389465
0.00081036433
0.00080664142
0.00080325412
0.00079950683
0.00079609329
0.00079279583
0.00078932493
0.00078618551
0.00078292646
0.00078059005
0.00077933215
0.00077945701
0.00078036172
0.00078171568
0.00078415858
0.00078722925
0.00079126837
0.00079619552
0.00080241663
0.00081184173
0.00082661949
0.00084360043
0.00085044275
0.00071507814
0.00070967465
0.00070360063
0.00069818648
0.00069197479
0.00068616543
0.00068041309
0.00067414042
0.0006683472
0.00066212002
0.00065702627
0.00065321181
0.00065086651
0.00064995191
0.00064982686
0.00065157814
0.00065473281
0.00065981831
0.00066746459
0.00067889737
0.00070005627
0.00073957431
0.00079672561
0.00084118722
0.00054679899
0.00053917369
0.00052936621
0.00052062546
0.00051050221
0.00050071172
0.0004912825
0.00048094762
0.00047177298
0.00046238434
0.00045427759
0.0004476703
0.00044210865
0.00043845779
0.00043579758
0.00043516716
0.00043625828
0.00043917246
0.00044508133
0.00045508737
0.00047742241
0.00053092259
0.00064447578
0.00080105525
0.00059812148
0.00059220228
0.00058708763
0.00058319325
0.00058047131
0.00057824079
0.00057634626
0.00057530498
0.00057420419
0.00057376611
0.0005741061
0.000575266
0.00057761202
0.00058125913
0.00058617769
0.00059246695
0.00060022571
0.00060969483
0.00062173433
0.00063792166
0.00066438927
0.00071085884
0.00077783074
0.00083297702
0.00074860369
0.00074285607
0.00073827976
0.00073475572
0.00073229357
0.00073072624
0.00072960469
0.00072925023
0.00072939967
0.00073009043
0.00073160509
0.00073401633
0.00073731067
0.00074164013
0.0007469039
0.00075309961
0.00076027753
0.00076839777
0.00077760609
0.00078827013
0.00080215033
0.00082159565
0.00084165063
0.00084918874
0.00081878788
0.00081450725
0.00081101942
0.00080814295
0.00080586041
0.00080422094
0.00080299462
0.00080228871
0.00080210186
0.00080243815
0.00080336468
0.00080496983
0.00080726926
0.00081017991
0.00081365569
0.00081766859
0.00082209992
0.00082681454
0.00083156979
0.0008362305
0.00084133046
0.0008479303
0.00085370314
0.00085185606
0.0008303992
0.00082708337
0.00082409941
0.0008213906
0.00081891838
0.00081671415
0.00081481478
0.00081322662
0.0008119293
0.00081098567
0.00081057458
0.0008110889
0.0008124723
0.00081440099
0.00081679411
0.00081970851
0.00082302219
0.00082660021
0.00083033673
0.00083416596
0.0008388675
0.00084570245
0.00085239583
0.00085174706
0.00081372278
0.00081023263
0.00080655466
0.00080321247
0.00079950078
0.00079609433
0.00079278759
0.00078938226
0.00078635404
0.00078317793
0.00078084156
0.00077949697
0.00077945204
0.00078019504
0.00078144526
0.00078383066
0.00078688497
0.00079091252
0.00079586262
0.00080217236
0.00081172124
0.00082661126
0.00084363893
0.00085045686
0.00076535138
0.00076059819
0.00075514529
0.00075010831
0.00074396236
0.00073822857
0.00073230617
0.00072597544
0.00072004494
0.00071338481
0.00070804416
0.00070360885
0.00070109716
0.00069981038
0.000699232
0.00070070925
0.00070321165
0.00070795718
0.00071487053
0.00072537274
0.00074390872
0.00077595547
0.00081841171
0.0008461299
0.00066086191
0.00065457516
0.00064686714
0.00063971345
0.00063057025
0.00062193973
0.00061284586
0.00060303708
0.00059384964
0.00058347291
0.00057486909
0.00056715284
0.00056152014
0.00055763218
0.00055453678
0.00055415559
0.00055509844
0.00055893555
0.0005657328
0.00057741065
0.00060188223
0.00065383859
0.00074353331
0.0008300164
0.00049556007
0.00048715592
0.00047596439
0.00046571335
0.00045303179
0.00044110973
0.00042918313
0.00041660607
0.00040546727
0.00039360172
0.00038373665
0.00037491531
0.00036765799
0.00036229414
0.00035760549
0.00035533965
0.00035434252
0.00035558687
0.00035941572
0.00036701382
0.00038566208
0.00043405663
0.00055450111
0.00076518001
0.00058019443
0.00057698581
0.00057594149
0.0005764339
0.00057807356
0.00058084323
0.00058421914
0.00058818148
0.00059216821
0.0005967645
0.00060204039
0.00060786456
0.00061466868
0.00062259785
0.0006315056
0.00064180813
0.00065337111
0.00066694303
0.0006828366
0.00070223818
0.00072898455
0.00076794233
0.00081167799
0.00083996604
0.00070682205
0.00070076389
0.00069671637
0.00069430544
0.00069331913
0.00069356542
0.0006946306
0.00069656427
0.00069908379
0.0007021447
0.00070586423
0.00071030364
0.00071559866
0.00072193578
0.00072932988
0.00073797981
0.00074790959
0.00075917762
0.0007717463
0.00078590096
0.0008028383
0.000823867
0.00084359426
0.00084969252
0.00074873791
0.00074302387
0.00073868125
0.00073519735
0.00073268883
0.00073112077
0.00073007407
0.00072988613
0.00073020251
0.00073101999
0.00073247825
0.00073482526
0.00073803916
0.00074222562
0.00074728063
0.00075327748
0.00076027549
0.00076830423
0.00077742211
0.00078818621
0.00080244725
0.00082208125
0.00084185906
0.00084921876
0.00074327667
0.00073808446
0.00073321403
0.00072907365
0.00072522779
0.00072179158
0.00071879021
0.0007160821
0.00071369852
0.00071164989
0.00071001404
0.00070959246
0.00071024242
0.00071191775
0.00071451262
0.00071817449
0.0007231752
0.00072936
0.00073736599
0.00074799905
0.0007647595
0.00079224146
0.00082592074
0.00084642289
0.00071495527
0.00070961438
0.00070361584
0.00069828051
0.00069213095
0.00068635576
0.00068063099
0.00067444394
0.0006687629
0.0006626328
0.00065751652
0.00065356261
0.000650958
0.0006497964
0.00064945026
0.00065105399
0.00065413553
0.00065913935
0.0006667736
0.00067832385
0.00069968749
0.00073943218
0.00079672953
0.000841195
0.00066079896
0.00065456621
0.00064691521
0.00063982394
0.00063072665
0.00062212629
0.00061305222
0.00060325994
0.00059409757
0.00058373919
0.00057510943
0.00056735003
0.00056160063
0.00055760436
0.00055440507
0.00055395307
0.00055486201
0.00055863982
0.00056540778
0.00057712769
0.00060167501
0.00065372485
0.00074350496
0.00083000737
0.00056589753
0.00055878783
0.00054953817
0.00054075733
0.00052910705
0.00051808012
0.00050625453
0.00049377885
0.00048219606
0.00046918195
0.00045840155
0.00044838169
0.00044051821
0.00043456461
0.00042950307
0.00042731598
0.00042628462
0.0004282747
0.00043306361
0.00044234946
0.00046406485
0.00051807034
0.00063841121
0.00080052069
0.0004251028
0.00041645449
0.00040474526
0.00039390368
0.00038025408
0.00036766119
0.00035491348
0.0003419972
0.00033062758
0.00031838076
0.00030838828
0.00029922231
0.00029167771
0.00028580895
0.00028061986
0.0002776306
0.00027558907
0.00027571657
0.00027802612
0.00028358855
0.00029798609
0.00033690928
0.00044826286
0.00070496014
0.00049320723
0.00049506908
0.0004999728
0.00050745586
0.00051664947
0.00052655831
0.00053602999
0.0005444383
0.00055165248
0.00055857357
0.00056578712
0.00057364646
0.00058260182
0.00059280217
0.00060428667
0.00061750998
0.00063265994
0.00065020564
0.0006705389
0.00069440018
0.00072363413
0.00076071277
0.00080281046
0.00083940096
0.00058076378
0.00057752604
0.0005765802
0.00057727048
0.00057892961
0.00058182403
0.00058540926
0.00058946529
0.0005936383
0.00059825786
0.00060346881
0.00060909762
0.00061555458
0.00062317357
0.00063180151
0.0006419989
0.0006538358
0.00066739185
0.00068316055
0.00070272894
0.0007297015
0.00076837131
0.00081180254
0.00083997889
0.00059849601
0.00059268271
0.00058783665
0.00058394794
0.00058125331
0.00057905023
0.00057733406
0.00057658012
0.00057585695
0.00057564624
0.00057600471
0.00057692419
0.00057899109
0.00058234787
0.00058690914
0.0005927592
0.00060031824
0.00060960849
0.00062143588
0.00063758486
0.0006640983
0.0007114394
0.00077812045
0.00083297108
0.00058202271
0.0005752344
0.00056757563
0.00056098985
0.00055443982
0.00054786974
0.00054192486
0.00053604247
0.00053047019
0.00052544012
0.00052055801
0.0005171831
0.00051489117
0.00051396751
0.00051446583
0.00051629971
0.00052020254
0.00052573667
0.00053420617
0.00054721604
0.00057226109
0.00062559823
0.00071939297
0.00082196315
0.00054687871
0.00053933042
0.00052959661
0.00052091213
0.00051079855
0.00050102408
0.00049160856
0.00048131485
0.00047218002
0.0004628314
0.00045466565
0.0004479417
0.0004421899
0.00043836236
0.00043551806
0.00043475054
0.00043576925
0.00043858161
0.00044443626
0.00045449216
0.00047695112
0.00053061263
0.00064433018
0.00080103525
0.0004956357
0.00048729399
0.00047615875
0.00046595161
0.00045327997
0.00044136664
0.0004294436
0.00041684959
0.00040571155
0.0003938466
0.00038393539
0.00037507214
0.00036770624
0.00036224875
0.00035746295
0.00035513335
0.00035411009
0.00035529663
0.00035908158
0.00036671034
0.00038541689
0.00043387801
0.00055438637
0.00076511877
0.00042513359
0.00041651369
0.00040482907
0.00039400904
0.0003803567
0.00036776189
0.00035501119
0.0003420862
0.00033071764
0.00031846437
0.0003084511
0.00029927373
0.00029168691
0.00028577888
0.00028055608
0.00027754787
0.00027550314
0.00027561625
0.00027791301
0.00028349027
0.00029790722
0.00033685388
0.00044821881
0.00070491303
0.00032820967
0.00031966127
0.00030807411
0.00029773506
0.00028519118
0.00027391757
0.00026281219
0.00025183129
0.00024231484
0.00023224267
0.00022402426
0.00021653925
0.00021027754
0.00020531369
0.0002008791
0.00019804256
0.00019588551
0.00019527537
0.00019623769
0.00019968806
0.00020964153
0.00023698461
0.00032107463
0.00058447979
0.00037564312
0.00021245217
0.00016620211
0.00015142093
0.00014571499
0.00014337362
0.00014212562
0.00014150819
0.00014151517
0.00014178216
0.00014272408
0.00014380086
0.00014545827
0.00014759846
0.00015014502
0.00015351241
0.00015659151
0.00016029919
0.00016392692
0.00016765996
0.00017165709
0.00017481472
0.00017836877
0.00018046065
0.00044299083
0.00025199325
0.00019650659
0.00017860688
0.00017167191
0.00016890289
0.00016755887
0.00016707809
0.00016738336
0.00016806325
0.00016959283
0.00017125146
0.0001736058
0.00017649404
0.00017982638
0.00018402619
0.00018787893
0.00019236767
0.00019662643
0.00020093903
0.00020552292
0.00020910528
0.00021316325
0.00021569999
0.00051003896
0.00029691168
0.00023220571
0.00021071539
0.00020225246
0.00019880949
0.00019707246
0.00019648287
0.00019671636
0.00019752887
0.00019925063
0.0002012078
0.00020396237
0.00020714967
0.00021088143
0.00021535542
0.00021952869
0.00022429683
0.00022868758
0.00023312888
0.00023783651
0.00024160546
0.00024589036
0.00024888203
0.00059509708
0.00035321919
0.00027701958
0.00025076461
0.00024035062
0.00023578947
0.00023327009
0.00023223049
0.00023185291
0.00023238396
0.00023365315
0.00023546268
0.00023805843
0.00024094456
0.00024453107
0.00024854039
0.00025244957
0.00025688144
0.00026078785
0.00026491325
0.00026917869
0.00027291137
0.00027729049
0.00028072131
0.00068752722
0.00043072847
0.00033970696
0.0003064071
0.00029295537
0.00028627688
0.00028212581
0.00027941939
0.00027752617
0.00027665743
0.00027631517
0.00027687578
0.00027786849
0.00027944265
0.00028166989
0.0002839869
0.00028657654
0.00028910836
0.00029180153
0.00029480218
0.00029773718
0.00030088521
0.00030490231
0.00030847811
0.00071500087
0.0005337366
0.00043432701
0.00039030333
0.00037068975
0.00035981271
0.00035132308
0.00034463505
0.00033863323
0.00033391744
0.00032978042
0.00032668945
0.00032441877
0.00032245463
0.00032119299
0.00032039516
0.00031946177
0.00031874291
0.00031869022
0.00031849709
0.00031906198
0.00032054904
0.00032293573
0.00032604171
0.00070336257
0.00061287699
0.00053936167
0.00049036606
0.00046199611
0.00044177826
0.00042411603
0.0004085771
0.00039548976
0.00038465072
0.00037529542
0.0003674
0.00036050853
0.00035442291
0.00034920671
0.00034461169
0.00034010994
0.00033536436
0.00033067446
0.00032648119
0.00032332453
0.00032145467
0.00032099258
0.00032207449
0.00060292564
0.00053833414
0.00049929037
0.00046860206
0.00044266591
0.00041985365
0.00040024718
0.00038383733
0.00037011666
0.00035848548
0.00034840236
0.00033972223
0.00033240762
0.00032651089
0.00032186908
0.00031824473
0.00031474041
0.00030956113
0.0003029695
0.00029636068
0.00029068012
0.00028644207
0.00028377463
0.00028268828
0.00010497611
9.6053452e-05
9.4358005e-05
9.3130429e-05
9.2332945e-05
9.178773e-05
9.1325995e-05
9.0851599e-05
9.0329005e-05
8.973819e-05
8.9084781e-05
8.837021e-05
8.7605215e-05
8.6806053e-05
8.598308e-05
8.5157471e-05
8.4335015e-05
8.3537907e-05
8.2784717e-05
8.2091465e-05
8.1480947e-05
8.0963259e-05
8.0559256e-05
8.0280132e-05
0.00011041516
0.00010345537
0.00010230915
0.00010136169
0.0001006988
0.0001002351
9.9843665e-05
9.9441252e-05
9.899071e-05
9.8468982e-05
9.7880436e-05
9.7222651e-05
9.6504125e-05
9.5738824e-05
9.4938268e-05
9.4126114e-05
9.3306348e-05
9.2501568e-05
9.1731511e-05
9.1016763e-05
9.0382055e-05
8.9841765e-05
8.9418309e-05
8.9126386e-05
0.00011013375
0.00010633116
0.00010599889
0.00010547051
0.00010504493
0.00010476292
0.00010455192
0.00010434685
0.00010411222
0.00010382551
0.00010347966
0.00010305598
0.00010256207
0.00010200806
0.00010140954
0.00010077915
0.00010012143
9.9458089e-05
9.8808748e-05
9.8197863e-05
9.7651666e-05
9.7187902e-05
9.6831315e-05
9.6599216e-05
0.00010504466
0.00010505032
0.00010562162
0.00010554999
0.0001053865
0.00010531229
0.00010531636
0.00010535616
0.00010539725
0.00010541675
0.00010539881
0.00010532832
0.00010519892
0.00010499949
0.00010474208
0.00010443968
0.00010409254
0.00010371712
0.00010332961
0.00010295338
0.00010261231
0.00010232596
0.00010211937
0.00010201136
9.6664501e-05
0.00010054445
0.00010193078
0.0001022404
0.00010228012
0.00010236392
0.00010253894
0.00010278499
0.00010307149
0.00010337468
0.00010367365
0.00010395202
0.00010419649
0.00010439725
0.00010455319
0.00010466095
0.00010470771
0.00010471079
0.00010468227
0.00010463692
0.00010459003
0.00010455929
0.00010456619
0.00010462874
8.6432221e-05
9.3852424e-05
9.5838415e-05
9.6374121e-05
9.6503818e-05
9.6652864e-05
9.6912977e-05
9.7277663e-05
9.7719366e-05
9.8213796e-05
9.8739508e-05
9.9280145e-05
9.9821489e-05
0.00010034885
0.00010085181
0.00010132628
0.00010175825
0.00010214323
0.00010247692
0.00010277204
0.00010303603
0.00010327859
0.00010351264
0.00010375277
7.5576847e-05
8.585506e-05
8.8193242e-05
8.8784365e-05
8.8893812e-05
8.9028268e-05
8.9298976e-05
8.9698668e-05
9.0197332e-05
9.0769879e-05
9.1396685e-05
9.2062977e-05
9.2754639e-05
9.3458258e-05
9.4163671e-05
9.4854164e-05
9.5517652e-05
9.6143467e-05
9.6725945e-05
9.7260325e-05
9.7742871e-05
9.8174488e-05
9.8562308e-05
9.891632e-05
6.4958392e-05
7.7067139e-05
7.9540949e-05
8.0095026e-05
8.0139375e-05
8.0216899e-05
8.0443084e-05
8.0806402e-05
8.1272869e-05
8.1816367e-05
8.2418649e-05
8.3067342e-05
8.3751625e-05
8.4460243e-05
8.5180087e-05
8.5896412e-05
8.6595177e-05
8.7261592e-05
8.7887336e-05
8.8467127e-05
8.8996605e-05
8.9471156e-05
8.9888718e-05
9.0252561e-05
0.00060293094
0.00053838524
0.00049941808
0.00046874701
0.0004427634
0.0004198891
0.00040026823
0.00038383999
0.00037012483
0.00035848877
0.00034836004
0.00033961481
0.00033223268
0.00032627719
0.00032161111
0.0003179903
0.00031452864
0.00030939135
0.00030281612
0.00029622706
0.00029055698
0.00028634646
0.00028371786
0.00028268402
0.00070337386
0.00061294854
0.000539519
0.00049050768
0.00046205206
0.00044170379
0.0004241
0.0004086083
0.00039557782
0.00038474451
0.00037533999
0.0003673583
0.00036032982
0.000354059
0.00034874913
0.00034411981
0.00033967012
0.00033500298
0.00033037778
0.00032621239
0.00032312676
0.00032137169
0.00032097933
0.00032208517
0.00071501443
0.00053368815
0.000434367
0.00039041869
0.00037083779
0.00035994374
0.00035144079
0.00034474065
0.00033877048
0.00033406794
0.0003298711
0.00032671326
0.00032432611
0.00032217515
0.00032078537
0.00031990626
0.00031898116
0.00031832306
0.00031834368
0.00031819833
0.00031883188
0.00032039768
0.00032283644
0.00032597954
0.00068747945
0.00043061125
0.00033965098
0.00030639814
0.00029299766
0.00028635996
0.00028224121
0.00027954496
0.00027767181
0.00027683672
0.00027647584
0.00027700472
0.0002779281
0.00027935267
0.00028143099
0.00028363384
0.00028616302
0.00028868756
0.00029141182
0.00029445915
0.00029746715
0.00030068985
0.00030478599
0.00030837278
0.0005949546
0.00035302785
0.0002768666
0.00025066059
0.00024030069
0.0002357941
0.00023331842
0.00023230695
0.00023194402
0.00023248384
0.0002337556
0.00023556691
0.0002381535
0.00024095892
0.0002444233
0.00024829017
0.00025210307
0.00025649522
0.00026041908
0.00026459352
0.00026892376
0.00027272362
0.00027715392
0.00028060304
0.00050994779
0.00029672793
0.0002320118
0.00021055205
0.00020213762
0.00019874943
0.00019706128
0.00019650463
0.00019675041
0.00019756445
0.00019929476
0.00020127025
0.00020404289
0.00020721427
0.0002108571
0.00021518895
0.00021925908
0.00022399494
0.00022838267
0.00023286484
0.00023762375
0.00024144762
0.00024577425
0.00024878314
0.0004428908
0.00025181604
0.00019631263
0.00017843116
0.00017153336
0.00016881113
0.00016751629
0.00016706986
0.00016738521
0.00016806838
0.00016961154
0.00017129443
0.00017367579
0.00017657347
0.00017984837
0.00018392381
0.00018768422
0.00019214492
0.00019640316
0.0002007415
0.00020536158
0.00020898943
0.00021308706
0.00021563843
0.00037552598
0.00021232369
0.00016606353
0.00015128919
0.00014560639
0.00014330062
0.00014209742
0.0001415127
0.00014153251