/*--------------------------------*- C++ -*----------------------------------*\
| =========                 |                                                 |
| \\      /  F ield         | foam-extend: Open Source CFD                    |
|  \\    /   O peration     | Version:     4.1-20200408                       |
|   \\  /    A nd           | Web:         http://www.foam-extend.org         |
|    \\/     M anipulation  |                                                 |
\*---------------------------------------------------------------------------*/
FoamFile
{
    version     2.0;
    format      ascii;
    class       volScalarField;
    location    "0.0385000";
    object      rho_0;
}
// * * * * * * * * * * * * * * * * * * * * * * * * * * * * * * * * * * * * * //

dimensions      [1 -3 0 0 0 0 0];

internalField   nonuniform List<scalar> 
1952
(
7842.46
7842.19
7841.84
7841.37
7840.74
7839.96
7838.95
7837.66
7836.08
7833.94
7831.38
7827.61
7823.16
7816.93
7812.09
7842.55
7842.6
7842.32
7841.97
7841.49
7840.86
7840.07
7839.05
7837.76
7836.17
7834.02
7831.44
7827.67
7823.2
7816.95
7812.08
7842.68
7842.72
7842.44
7842.08
7841.6
7840.96
7840.17
7839.14
7837.85
7836.24
7834.09
7831.5
7827.71
7823.22
7816.95
7812.07
7842.8
7842.82
7842.54
7842.18
7841.7
7841.06
7840.26
7839.22
7837.92
7836.31
7834.14
7831.54
7827.74
7823.23
7816.95
7812.04
7842.91
7842.92
7842.64
7842.27
7841.79
7841.14
7840.34
7839.29
7837.99
7836.36
7834.19
7831.57
7827.76
7823.24
7816.93
7812.02
7843.01
7843
7842.72
7842.36
7841.88
7841.22
7840.41
7839.36
7838.04
7836.41
7834.23
7831.6
7827.77
7823.23
7816.92
7811.99
7843.09
7843.08
7842.8
7842.43
7841.95
7841.28
7840.48
7839.41
7838.09
7836.45
7834.27
7831.62
7827.79
7823.23
7816.9
7811.96
7843.18
7843.16
7842.87
7842.5
7842.02
7841.35
7840.53
7839.46
7838.14
7836.49
7834.29
7831.64
7827.79
7823.22
7816.87
7811.93
7843.25
7843.22
7842.94
7842.56
7842.08
7841.4
7840.59
7839.51
7838.18
7836.52
7834.32
7831.66
7827.8
7823.21
7816.85
7811.9
7843.32
7843.28
7843
7842.62
7842.13
7841.45
7840.63
7839.55
7838.22
7836.55
7834.34
7831.67
7827.8
7823.2
7816.83
7811.87
7843.38
7843.34
7843.05
7842.68
7842.19
7841.5
7840.68
7839.59
7838.25
7836.58
7834.36
7831.68
7827.8
7823.19
7816.81
7811.84
7843.44
7843.39
7843.11
7842.73
7842.24
7841.55
7840.72
7839.63
7838.28
7836.6
7834.38
7831.69
7827.8
7823.17
7816.79
7811.82
7843.49
7843.44
7843.16
7842.78
7842.28
7841.59
7840.76
7839.66
7838.31
7836.62
7834.39
7831.7
7827.8
7823.16
7816.76
7811.79
7843.55
7843.49
7843.2
7842.82
7842.32
7841.63
7840.79
7839.69
7838.34
7836.64
7834.41
7831.7
7827.8
7823.15
7816.74
7811.77
7843.59
7843.54
7843.25
7842.86
7842.36
7841.66
7840.83
7839.72
7838.36
7836.66
7834.42
7831.71
7827.79
7823.13
7816.72
7811.74
7843.64
7843.58
7843.29
7842.91
7842.4
7841.7
7840.86
7839.75
7838.38
7836.68
7834.43
7831.71
7827.79
7823.12
7816.7
7811.72
7843.68
7843.62
7843.33
7842.95
7842.44
7841.74
7840.89
7839.77
7838.41
7836.7
7834.45
7831.72
7827.79
7823.11
7816.68
7811.69
7843.73
7843.67
7843.37
7842.99
7842.48
7841.77
7840.92
7839.8
7838.43
7836.71
7834.46
7831.72
7827.78
7823.09
7816.65
7811.67
7843.77
7843.71
7843.41
7843.03
7842.52
7841.8
7840.95
7839.82
7838.45
7836.73
7834.46
7831.73
7827.77
7823.08
7816.63
7811.64
7843.81
7843.75
7843.46
7843.07
7842.55
7841.84
7840.98
7839.85
7838.47
7836.74
7834.47
7831.73
7827.77
7823.06
7816.6
7811.61
7843.85
7843.79
7843.5
7843.11
7842.59
7841.87
7841.01
7839.88
7838.49
7836.76
7834.48
7831.73
7827.76
7823.04
7816.57
7811.58
7843.9
7843.84
7843.54
7843.15
7842.63
7841.9
7841.04
7839.9
7838.51
7836.77
7834.49
7831.73
7827.75
7823.03
7816.55
7811.55
7843.94
7843.89
7843.59
7843.19
7842.67
7841.94
7841.07
7839.92
7838.53
7836.78
7834.49
7831.72
7827.73
7823
7816.52
7811.51
7843.99
7843.94
7843.64
7843.24
7842.72
7841.98
7841.11
7839.95
7838.55
7836.79
7834.5
7831.72
7827.72
7822.98
7816.49
7811.47
7844.04
7843.99
7843.69
7843.29
7842.76
7842.02
7841.15
7839.98
7838.57
7836.81
7834.5
7831.71
7827.7
7822.95
7816.45
7811.42
7844.1
7844.05
7843.75
7843.35
7842.81
7842.06
7841.18
7840.01
7838.6
7836.82
7834.51
7831.7
7827.68
7822.92
7816.41
7811.37
7844.16
7844.12
7843.82
7843.41
7842.87
7842.11
7841.23
7840.04
7838.62
7836.83
7834.51
7831.69
7827.66
7822.89
7816.36
7811.32
7844.23
7844.2
7843.9
7843.48
7842.94
7842.17
7841.28
7840.09
7838.66
7836.85
7834.52
7831.69
7827.64
7822.85
7816.31
7811.26
7844.31
7844.29
7843.98
7843.56
7843.01
7842.24
7841.34
7840.13
7838.69
7836.87
7834.53
7831.68
7827.61
7822.81
7816.25
7811.18
7844.4
7844.39
7844.08
7843.65
7843.1
7842.31
7841.41
7840.18
7838.73
7836.89
7834.54
7831.67
7827.59
7822.77
7816.19
7811.11
7844.51
7844.52
7844.21
7843.77
7843.21
7842.41
7841.49
7840.25
7838.79
7836.93
7834.56
7831.66
7827.56
7822.72
7816.12
7811.02
7844.63
7844.66
7844.35
7843.9
7843.33
7842.52
7841.59
7840.34
7838.86
7836.98
7834.59
7831.66
7827.54
7822.67
7816.05
7810.92
7844.78
7844.83
7844.51
7844.05
7843.48
7842.65
7841.71
7840.44
7838.94
7837.03
7834.63
7831.67
7827.52
7822.62
7815.97
7810.81
7844.95
7845.03
7844.71
7844.24
7843.66
7842.82
7841.86
7840.56
7839.05
7837.11
7834.68
7831.68
7827.5
7822.57
7815.88
7810.7
7845.15
7845.27
7844.94
7844.46
7843.88
7843.01
7842.04
7840.72
7839.19
7837.21
7834.75
7831.72
7827.5
7822.52
7815.79
7810.57
7845.39
7845.55
7845.22
7844.73
7844.13
7843.25
7842.26
7840.91
7839.35
7837.34
7834.85
7831.77
7827.51
7822.48
7815.71
7810.43
7845.67
7845.87
7845.54
7845.04
7844.43
7843.53
7842.53
7841.14
7839.56
7837.51
7834.98
7831.85
7827.54
7822.45
7815.62
7810.28
7846
7846.26
7845.92
7845.41
7844.79
7843.87
7842.85
7841.43
7839.82
7837.73
7835.16
7831.96
7827.6
7822.44
7815.55
7810.14
7846.39
7846.7
7846.36
7845.84
7845.21
7844.27
7843.23
7841.79
7840.15
7838.01
7835.4
7832.13
7827.71
7822.47
7815.5
7809.99
7846.84
7847.21
7846.87
7846.34
7845.7
7844.75
7843.69
7842.22
7840.55
7838.36
7835.7
7832.36
7827.87
7822.53
7815.47
7809.85
7847.35
7847.79
7847.46
7846.91
7846.28
7845.31
7844.24
7842.74
7841.04
7838.8
7836.09
7832.67
7828.11
7822.66
7815.49
7809.73
7847.93
7848.44
7848.12
7847.57
7846.94
7845.96
7844.88
7843.36
7841.64
7839.36
7836.6
7833.1
7828.45
7822.87
7815.58
7809.65
7848.58
7849.17
7848.86
7848.31
7847.69
7846.71
7845.63
7844.11
7842.37
7840.05
7837.25
7833.66
7828.93
7823.2
7815.76
7809.62
7849.31
7849.97
7849.67
7849.14
7848.53
7847.57
7846.5
7844.99
7843.24
7840.91
7838.07
7834.41
7829.59
7823.69
7816.09
7809.67
7850.11
7850.83
7850.55
7850.04
7849.46
7848.53
7847.49
7846.01
7844.28
7841.96
7839.11
7835.39
7830.49
7824.42
7816.61
7809.86
7850.96
7851.73
7851.48
7851
7850.46
7849.58
7848.6
7847.18
7845.51
7843.23
7840.4
7836.66
7831.71
7825.47
7817.42
7810.2
7851.85
7852.65
7852.43
7852
7851.52
7850.72
7849.82
7848.5
7846.92
7844.75
7841.99
7838.3
7833.36
7826.99
7818.71
7810.88
7852.76
7853.54
7853.37
7853
7852.6
7851.91
7851.13
7849.96
7848.52
7846.52
7843.93
7840.4
7835.59
7829.24
7820.91
7812.56
7853.63
7854.35
7854.24
7853.95
7853.66
7853.1
7852.48
7851.51
7850.28
7848.55
7846.22
7843.01
7838.55
7832.58
7824.76
7816.94
7854.43
7855.03
7854.98
7854.78
7854.62
7854.23
7853.8
7853.08
7852.13
7850.74
7848.78
7846.03
7842.08
7836.74
7829.73
7822.96
7855.08
7855.49
7855.51
7855.42
7855.4
7855.21
7855.01
7854.59
7853.96
7853
7851.48
7849.32
7845.99
7841.41
7835.29
7829.51
7855.51
7855.63
7855.74
7855.76
7855.91
7855.93
7855.99
7855.9
7855.64
7855.18
7854.17
7852.7
7850.07
7846.38
7841.21
7836.36
7855.63
7855.38
7855.56
7855.71
7856.02
7856.28
7856.61
7856.89
7857.03
7857.12
7856.68
7856
7854.14
7851.49
7847.34
7843.46
7855.34
7854.6
7854.87
7855.15
7855.63
7856.12
7856.73
7857.38
7857.96
7858.61
7858.79
7858.99
7857.99
7856.61
7853.57
7850.83
7854.54
7853.22
7853.57
7853.96
7854.62
7855.34
7856.23
7857.24
7858.25
7859.49
7860.31
7861.44
7861.35
7861.49
7859.67
7858.68
7853.13
7851.13
7851.54
7852.04
7852.84
7853.73
7854.86
7856.16
7857.54
7859.28
7860.71
7862.77
7863.74
7865.66
7865.41
7866.95
7851.02
7848.1
7848.59
7849.2
7850.15
7851.24
7852.61
7854.22
7855.97
7858.17
7860.21
7863.11
7865.16
7868.75
7870.34
7874.91
7847.97
7844.66
7845.25
7846.03
7847.19
7848.56
7850.26
7852.26
7854.47
7857.2
7859.85
7863.48
7866.44
7871.39
7874.7
7882.39
7844.48
7841.88
7842.58
7843.51
7844.89
7846.53
7848.55
7850.92
7853.57
7856.76
7859.97
7864.2
7867.88
7873.71
7878.05
7887.61
7841.66
7840.17
7840.95
7842.01
7843.54
7845.37
7847.64
7850.27
7853.24
7856.73
7860.34
7864.92
7869.05
7875.28
7880.08
7890.01
7839.91
7839.52
7840.33
7841.46
7843.08
7845.03
7847.44
7850.21
7853.36
7857
7860.82
7865.49
7869.83
7875.99
7880.8
7890.17
7839.24
7839.96
7840.77
7841.9
7843.53
7845.49
7847.92
7850.7
7853.9
7857.52
7861.36
7865.88
7870.15
7875.85
7880.31
7888.48
7839.67
7841.42
7842.2
7843.28
7844.84
7846.71
7849.07
7851.73
7854.84
7858.26
7861.97
7866.12
7870.1
7874.98
7878.79
7885.3
7841.15
7843.82
7844.54
7845.52
7846.96
7848.67
7850.86
7853.3
7856.18
7859.28
7862.69
7866.28
7869.76
7873.57
7876.47
7880.99
7843.56
7846.99
7847.64
7848.52
7849.81
7851.33
7853.29
7855.41
7857.98
7860.63
7863.6
7866.47
7869.25
7871.76
7873.52
7875.86
7846.76
7850.76
7851.36
7852.13
7853.28
7854.6
7856.31
7858.1
7860.28
7862.39
7864.8
7866.8
7868.7
7869.71
7870.14
7870.23
7850.54
7854.94
7855.5
7856.19
7857.23
7858.38
7859.87
7861.32
7863.11
7864.64
7866.4
7867.41
7868.23
7867.56
7866.53
7864.44
7854.73
7859.33
7859.87
7860.5
7861.44
7862.44
7863.72
7864.9
7866.35
7867.35
7868.43
7868.41
7868.03
7865.57
7863.01
7858.89
7859.13
7863.71
7864.24
7864.82
7865.68
7866.56
7867.68
7868.69
7869.99
7870.65
7871.12
7870.07
7868.35
7864.07
7860.04
7854.19
7863.51
7868.26
7868.79
7869.4
7870.25
7871.11
7872.11
7872.95
7873.7
7873.5
7872.78
7870.4
7867.44
7862.18
7857.71
7850.82
7868.05
7873.01
7873.37
7873.73
7874.21
7874.55
7874.77
7874.49
7873.8
7872.28
7870.32
7867.19
7863.96
7859.13
7855.18
7848.79
7872.87
7874.5
7874.43
7874.2
7873.9
7873.32
7872.54
7871.21
7869.64
7867.59
7865.38
7862.44
7859.57
7855.7
7852.26
7847.32
7874.52
7871.25
7871
7870.55
7869.93
7869.03
7867.95
7866.53
7865.1
7863.26
7861.26
7858.63
7855.99
7852.59
7849.43
7845.65
7871.34
7867.08
7866.85
7866.44
7865.88
7865.1
7864.14
7862.87
7861.45
7859.66
7857.76
7855.38
7853
7850.05
7847.22
7843.86
7867.17
7863.74
7863.47
7863.03
7862.42
7861.62
7860.66
7859.45
7858.13
7856.5
7854.76
7852.65
7850.52
7847.94
7845.47
7842.52
7863.84
7860.51
7860.23
7859.82
7859.25
7858.51
7857.62
7856.51
7855.28
7853.79
7852.22
7850.34
7848.45
7846.21
7844.07
7841.53
7860.6
7857.67
7857.4
7857.01
7856.46
7855.76
7854.93
7853.92
7852.79
7851.45
7850.05
7848.39
7846.73
7844.79
7842.95
7840.76
7857.76
7855.09
7854.83
7854.47
7853.96
7853.33
7852.56
7851.65
7850.63
7849.44
7848.19
7846.73
7845.29
7843.61
7842.03
7840.16
7855.17
7852.8
7852.55
7852.22
7851.75
7851.18
7850.48
7849.66
7848.75
7847.7
7846.59
7845.32
7844.07
7842.62
7841.28
7839.68
7852.87
7850.75
7850.52
7850.22
7849.79
7849.28
7848.65
7847.93
7847.12
7846.19
7845.22
7844.12
7843.03
7841.8
7840.65
7839.29
7850.82
7848.93
7848.71
7848.45
7848.06
7847.61
7847.05
7846.41
7845.69
7844.88
7844.03
7843.08
7842.15
7841.09
7840.11
7838.96
7848.99
7847.31
7847.12
7846.89
7846.54
7846.13
7845.64
7845.07
7844.45
7843.74
7843.01
7842.18
7841.38
7840.48
7839.65
7838.67
7847.37
7845.88
7845.7
7845.5
7845.19
7844.83
7844.4
7843.9
7843.35
7842.74
7842.11
7841.4
7840.71
7839.94
7839.24
7838.41
7845.93
7844.61
7844.45
7844.27
7843.99
7843.68
7843.3
7842.87
7842.39
7841.86
7841.32
7840.71
7840.12
7839.47
7838.87
7838.17
7844.65
7843.48
7843.33
7843.18
7842.94
7842.67
7842.33
7841.96
7841.55
7841.09
7840.62
7840.1
7839.6
7839.04
7838.54
7837.93
7843.51
7842.47
7842.34
7842.21
7842
7841.76
7841.47
7841.15
7840.79
7840.4
7839.99
7839.55
7839.13
7838.65
7838.22
7837.71
7842.5
7841.58
7841.46
7841.35
7841.16
7840.96
7840.71
7840.43
7840.12
7839.78
7839.44
7839.06
7838.7
7838.3
7837.93
7837.49
7841.6
7840.78
7840.68
7840.58
7840.42
7840.24
7840.02
7839.78
7839.52
7839.23
7838.93
7838.61
7838.3
7837.96
7837.65
7837.26
7840.8
7840.06
7839.97
7839.89
7839.75
7839.6
7839.41
7839.2
7838.97
7838.73
7838.47
7838.2
7837.93
7837.64
7837.38
7837.04
7840.08
7839.42
7839.34
7839.27
7839.15
7839.02
7838.85
7838.68
7838.48
7838.27
7838.05
7837.82
7837.59
7837.34
7837.11
7836.82
7839.44
7838.84
7838.77
7838.71
7838.6
7838.49
7838.35
7838.2
7838.03
7837.85
7837.66
7837.46
7837.27
7837.06
7836.86
7836.6
7838.85
7838.31
7838.25
7838.2
7838.11
7838.01
7837.89
7837.76
7837.61
7837.46
7837.3
7837.13
7836.96
7836.78
7836.61
7836.38
7838.33
7837.83
7837.78
7837.74
7837.66
7837.57
7837.47
7837.36
7837.23
7837.1
7836.96
7836.81
7836.67
7836.52
7836.36
7836.16
7837.85
7837.4
7837.35
7837.31
7837.24
7837.17
7837.08
7836.99
7836.88
7836.76
7836.64
7836.52
7836.39
7836.26
7836.13
7835.94
7837.41
7837
7836.96
7836.92
7836.86
7836.8
7836.72
7836.64
7836.55
7836.45
7836.34
7836.23
7836.13
7836.01
7835.89
7835.72
7837.01
7836.63
7836.59
7836.56
7836.51
7836.46
7836.39
7836.32
7836.24
7836.15
7836.06
7835.97
7835.87
7835.77
7835.66
7835.51
7836.64
7836.29
7836.26
7836.23
7836.19
7836.14
7836.08
7836.02
7835.95
7835.87
7835.79
7835.71
7835.63
7835.54
7835.44
7835.3
7836.29
7835.97
7835.94
7835.92
7835.88
7835.84
7835.79
7835.73
7835.67
7835.61
7835.54
7835.46
7835.39
7835.31
7835.22
7835.09
7835.98
7835.67
7835.65
7835.63
7835.6
7835.56
7835.51
7835.47
7835.41
7835.35
7835.29
7835.23
7835.16
7835.09
7835.01
7834.88
7835.68
7835.4
7835.38
7835.36
7835.33
7835.3
7835.26
7835.21
7835.17
7835.11
7835.06
7835
7834.94
7834.88
7834.8
7834.68
7835.4
7835.14
7835.12
7835.11
7835.08
7835.05
7835.01
7834.98
7834.93
7834.88
7834.84
7834.78
7834.73
7834.67
7834.6
7834.48
7835.15
7834.9
7834.88
7834.87
7834.84
7834.82
7834.78
7834.75
7834.71
7834.67
7834.62
7834.57
7834.52
7834.47
7834.4
7834.29
7834.9
7834.67
7834.66
7834.64
7834.62
7834.6
7834.57
7834.53
7834.5
7834.46
7834.42
7834.37
7834.33
7834.27
7834.21
7834.1
7834.67
7834.46
7834.44
7834.43
7834.41
7834.39
7834.36
7834.33
7834.3
7834.26
7834.22
7834.18
7834.14
7834.08
7834.02
7833.92
7834.46
7834.26
7834.24
7834.23
7834.21
7834.19
7834.16
7834.14
7834.1
7834.07
7834.03
7833.99
7833.95
7833.9
7833.84
7833.74
7834.26
7834.07
7834.05
7834.04
7834.02
7834
7833.98
7833.95
7833.92
7833.89
7833.85
7833.81
7833.77
7833.73
7833.66
7833.56
7834.07
7833.89
7833.88
7833.87
7833.85
7833.83
7833.8
7833.78
7833.75
7833.71
7833.68
7833.64
7833.6
7833.55
7833.49
7833.39
7833.89
7833.72
7833.71
7833.7
7833.68
7833.66
7833.64
7833.61
7833.58
7833.55
7833.52
7833.48
7833.44
7833.39
7833.33
7833.23
7833.72
7833.56
7833.55
7833.54
7833.53
7833.51
7833.48
7833.46
7833.43
7833.4
7833.36
7833.32
7833.28
7833.23
7833.17
7833.07
7833.57
7833.42
7833.41
7833.4
7833.38
7833.36
7833.34
7833.31
7833.28
7833.25
7833.21
7833.17
7833.13
7833.08
7833.01
7832.91
7833.42
7833.29
7833.28
7833.26
7833.25
7833.23
7833.2
7833.18
7833.15
7833.11
7833.07
7833.03
7832.99
7832.93
7832.87
7832.76
7833.29
7833.16
7833.15
7833.14
7833.12
7833.1
7833.08
7833.05
7833.02
7832.98
7832.95
7832.9
7832.85
7832.8
7832.72
7832.61
7833.16
7833.05
7833.04
7833.03
7833.01
7832.99
7832.97
7832.94
7832.91
7832.87
7832.83
7832.78
7832.73
7832.67
7832.59
7832.47
7833.05
7832.95
7832.94
7832.93
7832.91
7832.89
7832.86
7832.83
7832.8
7832.76
7832.72
7832.67
7832.61
7832.55
7832.46
7832.34
7832.95
7832.86
7832.85
7832.84
7832.82
7832.8
7832.77
7832.74
7832.71
7832.67
7832.62
7832.57
7832.51
7832.44
7832.35
7832.21
7832.86
7832.78
7832.77
7832.76
7832.74
7832.72
7832.7
7832.66
7832.63
7832.59
7832.54
7832.49
7832.42
7832.34
7832.24
7832.09
7832.78
7832.71
7832.7
7832.69
7832.67
7832.65
7832.63
7832.6
7832.56
7832.52
7832.48
7832.42
7832.35
7832.27
7832.15
7831.99
7832.71
7832.65
7832.64
7832.63
7832.62
7832.6
7832.57
7832.55
7832.51
7832.47
7832.43
7832.37
7832.3
7832.21
7832.09
7831.9
7832.65
7832.6
7832.6
7832.59
7832.57
7832.55
7832.53
7832.51
7832.47
7832.44
7832.39
7832.34
7832.27
7832.19
7832.06
7831.85
7832.61
7832.56
7832.55
7832.54
7832.53
7832.52
7832.5
7832.47
7832.45
7832.41
7832.38
7832.33
7832.28
7832.21
7832.12
7831.96
7832.56
7832.54
7832.54
7832.53
7832.52
7832.5
7832.49
7832.46
7832.44
7832.41
7832.38
7832.34
7832.3
7832.25
7832.19
7832.08
7832.55
7832.54
7832.54
7832.53
7832.52
7832.5
7832.49
7832.46
7832.44
7832.41
7832.38
7832.34
7832.3
7832.25
7832.19
7832.08
7832.55
)
;

boundaryField
{
    wireUpstream
    {
        type            calculated;
        value           nonuniform List<scalar> 
16
(
7832.52
7832.52
7832.51
7832.5
7832.49
7832.47
7832.45
7832.43
7832.4
7832.38
7832.34
7832.31
7832.27
7832.25
7832.23
7832.53
)
;
    }
    wireDownstream
    {
        type            calculated;
        value           nonuniform List<scalar> 
16
(
7842.46
7842.19
7841.84
7841.37
7840.74
7839.96
7838.95
7837.66
7836.08
7833.94
7831.38
7827.61
7823.16
7816.93
7812.09
7842.55
)
;
    }
    wireTopContact
    {
        type            calculated;
        value           nonuniform List<scalar> 
122
(
7811.81
7811.8
7811.78
7811.75
7811.72
7811.69
7811.66
7811.63
7811.6
7811.58
7811.55
7811.52
7811.49
7811.47
7811.44
7811.42
7811.39
7811.36
7811.34
7811.3
7811.27
7811.23
7811.19
7811.15
7811.1
7811.04
7810.98
7810.91
7810.83
7810.74
7810.64
7810.53
7810.41
7810.28
7810.14
7810
7809.85
7809.71
7809.57
7809.46
7809.39
7809.38
7809.46
7809.68
7810.1
7810.85
7812.42
7816.9
7823.05
7829.65
7836.57
7843.75
7851.09
7858.72
7866.68
7874.43
7882
7887.2
7889.47
7889.58
7887.93
7884.81
7880.57
7875.53
7870.03
7864.42
7859.14
7854.73
7851.58
7849.48
7847.46
7845.59
7843.86
7842.52
7841.51
7840.73
7840.13
7839.64
7839.25
7838.91
7838.62
7838.36
7838.12
7837.89
7837.67
7837.45
7837.23
7837.01
7836.79
7836.58
7836.36
7836.14
7835.92
7835.71
7835.49
7835.28
7835.07
7834.87
7834.67
7834.47
7834.28
7834.09
7833.91
7833.73
7833.55
7833.38
7833.22
7833.06
7832.9
7832.75
7832.6
7832.46
7832.33
7832.2
7832.09
7831.99
7831.9
7831.85
7831.95
7832.03
7832.03
7811.82
)
;
    }
    front
    {
        type            wedge;
    }
    back
    {
        type            wedge;
    }
}


// ************************************************************************* //
