/*--------------------------------*- C++ -*----------------------------------*\
| =========                 |                                                 |
| \\      /  F ield         | foam-extend: Open Source CFD                    |
|  \\    /   O peration     | Version:     4.1-20200408                       |
|   \\  /    A nd           | Web:         http://www.foam-extend.org         |
|    \\/     M anipulation  |                                                 |
\*---------------------------------------------------------------------------*/
FoamFile
{
    version     2.0;
    format      ascii;
    class       volScalarField;
    location    "0.0385000";
    object      sigmaHyd;
}
// * * * * * * * * * * * * * * * * * * * * * * * * * * * * * * * * * * * * * //

dimensions      [1 -1 -2 0 0 0 0];

internalField   nonuniform List<scalar> 
1952
(
-3.19325e+08
-3.09821e+08
-2.96664e+08
-2.79484e+08
-2.56344e+08
-2.30438e+08
-1.98925e+08
-1.61127e+08
-1.16152e+08
-5.77279e+07
1.15692e+07
1.10035e+08
2.22753e+08
3.71848e+08
4.75338e+08
-3.23101e+08
-3.19925e+08
-3.10334e+08
-2.97005e+08
-2.7972e+08
-2.56311e+08
-2.3035e+08
-1.98451e+08
-1.60526e+08
-1.15126e+08
-5.65524e+07
1.31751e+07
1.11671e+08
2.24621e+08
3.73768e+08
4.77057e+08
-3.23684e+08
-3.20252e+08
-3.10612e+08
-2.97177e+08
-2.79829e+08
-2.56277e+08
-2.30328e+08
-1.98211e+08
-1.60242e+08
-1.14636e+08
-5.59988e+07
1.39391e+07
1.124e+08
2.25413e+08
3.74517e+08
4.77422e+08
-3.2402e+08
-3.20497e+08
-3.10818e+08
-2.97296e+08
-2.79898e+08
-2.56242e+08
-2.30288e+08
-1.98029e+08
-1.60027e+08
-1.14287e+08
-5.55982e+07
1.44903e+07
1.12942e+08
2.26001e+08
3.75124e+08
4.779e+08
-3.24287e+08
-3.20768e+08
-3.11057e+08
-2.97466e+08
-2.80015e+08
-2.56293e+08
-2.30304e+08
-1.97933e+08
-1.59886e+08
-1.14029e+08
-5.52709e+07
1.49602e+07
1.13405e+08
2.265e+08
3.75662e+08
4.78302e+08
-3.24579e+08
-3.21028e+08
-3.11291e+08
-2.97625e+08
-2.80123e+08
-2.56342e+08
-2.30322e+08
-1.97848e+08
-1.59761e+08
-1.13809e+08
-5.49937e+07
1.53588e+07
1.13793e+08
2.26963e+08
3.76176e+08
4.78733e+08
-3.24866e+08
-3.21294e+08
-3.11534e+08
-2.97809e+08
-2.8026e+08
-2.56441e+08
-2.3038e+08
-1.97824e+08
-1.59688e+08
-1.13647e+08
-5.47649e+07
1.57181e+07
1.14155e+08
2.27388e+08
3.76665e+08
4.79173e+08
-3.25155e+08
-3.21573e+08
-3.11788e+08
-2.98004e+08
-2.80403e+08
-2.5655e+08
-2.30454e+08
-1.97821e+08
-1.59638e+08
-1.13519e+08
-5.45709e+07
1.60333e+07
1.14456e+08
2.27795e+08
3.77149e+08
4.79632e+08
-3.25455e+08
-3.21861e+08
-3.12054e+08
-2.98217e+08
-2.80571e+08
-2.56703e+08
-2.30571e+08
-1.97867e+08
-1.59636e+08
-1.13437e+08
-5.44196e+07
1.63244e+07
1.14769e+08
2.28182e+08
3.77635e+08
4.80094e+08
-3.25765e+08
-3.22186e+08
-3.12354e+08
-2.98472e+08
-2.80771e+08
-2.56881e+08
-2.30718e+08
-1.97952e+08
-1.59667e+08
-1.13394e+08
-5.42871e+07
1.65897e+07
1.15069e+08
2.28568e+08
3.78152e+08
4.80595e+08
-3.26107e+08
-3.2253e+08
-3.12674e+08
-2.98729e+08
-2.80974e+08
-2.57048e+08
-2.30851e+08
-1.98007e+08
-1.5967e+08
-1.13318e+08
-5.41316e+07
1.68688e+07
1.15383e+08
2.28993e+08
3.78664e+08
4.811e+08
-3.26472e+08
-3.22862e+08
-3.1298e+08
-2.98988e+08
-2.81182e+08
-2.57228e+08
-2.30982e+08
-1.98073e+08
-1.59673e+08
-1.13243e+08
-5.3972e+07
1.71597e+07
1.15677e+08
2.29402e+08
3.79178e+08
4.81616e+08
-3.2682e+08
-3.23187e+08
-3.13277e+08
-2.99235e+08
-2.81378e+08
-2.57419e+08
-2.31134e+08
-1.98156e+08
-1.59702e+08
-1.13195e+08
-5.38448e+07
1.74317e+07
1.15978e+08
2.29816e+08
3.79719e+08
4.82152e+08
-3.27164e+08
-3.23551e+08
-3.13614e+08
-2.99533e+08
-2.81621e+08
-2.57653e+08
-2.31328e+08
-1.98293e+08
-1.59773e+08
-1.13187e+08
-5.373e+07
1.76997e+07
1.16322e+08
2.3024e+08
3.8028e+08
4.82725e+08
-3.2754e+08
-3.23947e+08
-3.1398e+08
-2.99839e+08
-2.8186e+08
-2.5784e+08
-2.31477e+08
-1.98365e+08
-1.59781e+08
-1.13118e+08
-5.35613e+07
1.79811e+07
1.16634e+08
2.30703e+08
3.80848e+08
4.83305e+08
-3.27954e+08
-3.24306e+08
-3.14309e+08
-3.00114e+08
-2.82086e+08
-2.58045e+08
-2.31621e+08
-1.98433e+08
-1.59776e+08
-1.1303e+08
-5.33844e+07
1.8304e+07
1.16978e+08
2.31167e+08
3.81428e+08
4.83893e+08
-3.28329e+08
-3.2467e+08
-3.14642e+08
-3.00408e+08
-2.82322e+08
-2.58279e+08
-2.3181e+08
-1.98564e+08
-1.59836e+08
-1.13015e+08
-5.32483e+07
1.8583e+07
1.1735e+08
2.31628e+08
3.82065e+08
4.84541e+08
-3.28707e+08
-3.25099e+08
-3.15039e+08
-3.00741e+08
-2.82582e+08
-2.5849e+08
-2.31976e+08
-1.98646e+08
-1.59836e+08
-1.12936e+08
-5.30413e+07
1.88984e+07
1.17725e+08
2.32164e+08
3.82688e+08
4.85214e+08
-3.29155e+08
-3.25502e+08
-3.15408e+08
-3.01045e+08
-2.82826e+08
-2.58669e+08
-2.3209e+08
-1.98666e+08
-1.59775e+08
-1.12791e+08
-5.27871e+07
1.92056e+07
1.18087e+08
2.32714e+08
3.83348e+08
4.85905e+08
-3.29576e+08
-3.2588e+08
-3.15751e+08
-3.01338e+08
-2.83062e+08
-2.58906e+08
-2.32262e+08
-1.9876e+08
-1.59777e+08
-1.12709e+08
-5.25246e+07
1.95413e+07
1.1844e+08
2.33267e+08
3.84033e+08
4.86655e+08
-3.29974e+08
-3.26358e+08
-3.16192e+08
-3.01719e+08
-2.83367e+08
-2.59154e+08
-2.32463e+08
-1.98855e+08
-1.5979e+08
-1.1257e+08
-5.22479e+07
1.99409e+07
1.18819e+08
2.33903e+08
3.84755e+08
4.87464e+08
-3.30469e+08
-3.2687e+08
-3.16668e+08
-3.0211e+08
-2.83683e+08
-2.59389e+08
-2.32637e+08
-1.98895e+08
-1.5975e+08
-1.12374e+08
-5.19597e+07
2.03689e+07
1.19286e+08
2.34604e+08
3.85516e+08
4.883e+08
-3.31007e+08
-3.2739e+08
-3.17147e+08
-3.02518e+08
-2.84024e+08
-2.59662e+08
-2.32833e+08
-1.98963e+08
-1.59728e+08
-1.1219e+08
-5.16503e+07
2.0777e+07
1.19757e+08
2.35313e+08
3.86325e+08
4.89206e+08
-3.3155e+08
-3.27981e+08
-3.17695e+08
-3.02985e+08
-2.84411e+08
-2.59993e+08
-2.33103e+08
-1.99091e+08
-1.59772e+08
-1.12051e+08
-5.13741e+07
2.11956e+07
1.20265e+08
2.36062e+08
3.87213e+08
4.90184e+08
-3.32169e+08
-3.28688e+08
-3.18359e+08
-3.0356e+08
-2.84902e+08
-2.60387e+08
-2.33425e+08
-1.99254e+08
-1.59834e+08
-1.11906e+08
-5.10727e+07
2.16539e+07
1.20835e+08
2.3688e+08
3.8818e+08
4.9125e+08
-3.32904e+08
-3.29489e+08
-3.19111e+08
-3.04208e+08
-2.85458e+08
-2.60826e+08
-2.33783e+08
-1.99426e+08
-1.59898e+08
-1.11744e+08
-5.07634e+07
2.21386e+07
1.21458e+08
2.3778e+08
3.89217e+08
4.92402e+08
-3.33736e+08
-3.30395e+08
-3.19966e+08
-3.04951e+08
-2.8611e+08
-2.61352e+08
-2.34203e+08
-1.99646e+08
-1.59987e+08
-1.11601e+08
-5.04422e+07
2.26233e+07
1.22105e+08
2.38727e+08
3.90337e+08
4.93653e+08
-3.34677e+08
-3.31445e+08
-3.20963e+08
-3.05838e+08
-2.86899e+08
-2.6203e+08
-2.34769e+08
-2.00002e+08
-1.60198e+08
-1.11549e+08
-5.0174e+07
2.31045e+07
1.22758e+08
2.39719e+08
3.91548e+08
4.95038e+08
-3.35762e+08
-3.32742e+08
-3.22204e+08
-3.06955e+08
-2.87904e+08
-2.62891e+08
-2.35513e+08
-2.00508e+08
-1.60536e+08
-1.11586e+08
-4.99657e+07
2.35802e+07
1.23438e+08
2.40778e+08
3.92858e+08
4.96565e+08
-3.37097e+08
-3.34308e+08
-3.2371e+08
-3.0832e+08
-2.89145e+08
-2.63952e+08
-2.36437e+08
-2.01158e+08
-1.60994e+08
-1.11705e+08
-4.98219e+07
2.40315e+07
1.24137e+08
2.41909e+08
3.94269e+08
4.98239e+08
-3.38703e+08
-3.36173e+08
-3.25511e+08
-3.09964e+08
-2.9066e+08
-2.65269e+08
-2.37591e+08
-2.02009e+08
-1.61622e+08
-1.11958e+08
-4.9771e+07
2.44332e+07
1.2483e+08
2.43088e+08
3.95778e+08
5.00071e+08
-3.40613e+08
-3.38407e+08
-3.27679e+08
-3.11963e+08
-2.92519e+08
-2.66913e+08
-2.39051e+08
-2.03135e+08
-1.62494e+08
-1.12407e+08
-4.98744e+07
2.47445e+07
1.2548e+08
2.44303e+08
3.97381e+08
5.02076e+08
-3.42895e+08
-3.41098e+08
-3.30304e+08
-3.14402e+08
-2.94809e+08
-2.6896e+08
-2.40893e+08
-2.04605e+08
-1.63674e+08
-1.13113e+08
-5.01872e+07
2.49172e+07
1.26054e+08
2.45528e+08
3.99063e+08
5.04255e+08
-3.45638e+08
-3.44324e+08
-3.33464e+08
-3.17363e+08
-2.97614e+08
-2.71496e+08
-2.43198e+08
-2.06503e+08
-1.65243e+08
-1.14151e+08
-5.07758e+07
2.4893e+07
1.26492e+08
2.46726e+08
4.00798e+08
5.06609e+08
-3.48919e+08
-3.48176e+08
-3.37252e+08
-3.20939e+08
-3.01042e+08
-2.74623e+08
-2.4607e+08
-2.08931e+08
-1.67299e+08
-1.15616e+08
-5.17321e+07
2.4596e+07
1.26735e+08
2.47848e+08
4.02547e+08
5.09115e+08
-3.52827e+08
-3.52756e+08
-3.41776e+08
-3.25234e+08
-3.05193e+08
-2.78457e+08
-2.49616e+08
-2.12001e+08
-1.69954e+08
-1.17621e+08
-5.31639e+07
2.39166e+07
1.26689e+08
2.48819e+08
4.04246e+08
5.11754e+08
-3.57467e+08
-3.58164e+08
-3.47121e+08
-3.30356e+08
-3.1016e+08
-2.8313e+08
-2.53966e+08
-2.15863e+08
-1.73356e+08
-1.20315e+08
-5.52132e+07
2.27424e+07
1.26244e+08
2.49563e+08
4.05833e+08
5.1447e+08
-3.62928e+08
-3.64516e+08
-3.53417e+08
-3.36439e+08
-3.16075e+08
-2.88753e+08
-2.59255e+08
-2.20654e+08
-1.77656e+08
-1.23854e+08
-5.80473e+07
2.08801e+07
1.25256e+08
2.4994e+08
4.07232e+08
5.17191e+08
-3.69327e+08
-3.71897e+08
-3.60769e+08
-3.43599e+08
-3.2311e+08
-2.95493e+08
-2.65677e+08
-2.26583e+08
-1.83075e+08
-1.28483e+08
-6.18979e+07
1.81106e+07
1.23482e+08
2.49731e+08
4.08252e+08
5.19844e+08
-3.76749e+08
-3.80431e+08
-3.69319e+08
-3.5198e+08
-3.3142e+08
-3.03541e+08
-2.73447e+08
-2.33885e+08
-1.89874e+08
-1.3446e+08
-6.70465e+07
1.4176e+07
1.20646e+08
2.48716e+08
4.0865e+08
5.22289e+08
-3.85315e+08
-3.90207e+08
-3.79146e+08
-3.61679e+08
-3.4109e+08
-3.13023e+08
-2.82707e+08
-2.42744e+08
-1.98275e+08
-1.42062e+08
-7.38271e+07
8.69492e+06
1.16411e+08
2.46581e+08
4.08184e+08
5.24319e+08
-3.95109e+08
-4.0123e+08
-3.9029e+08
-3.7277e+08
-3.52255e+08
-3.24108e+08
-2.93678e+08
-2.53439e+08
-2.086e+08
-1.51672e+08
-8.2628e+07
1.24021e+06
1.10295e+08
2.42864e+08
4.06439e+08
5.25685e+08
-4.06131e+08
-4.13495e+08
-4.02756e+08
-3.85282e+08
-3.64969e+08
-3.36916e+08
-3.06538e+08
-2.66226e+08
-2.21186e+08
-1.63699e+08
-9.39841e+07
-8.75422e+06
1.01709e+08
2.36993e+08
4.02876e+08
5.25995e+08
-4.18369e+08
-4.26896e+08
-4.16448e+08
-3.99163e+08
-3.79218e+08
-3.51494e+08
-3.21395e+08
-2.8131e+08
-2.36333e+08
-1.78575e+08
-1.08441e+08
-2.20333e+07
8.98591e+07
2.28126e+08
3.9669e+08
5.24621e+08
-4.31703e+08
-4.41201e+08
-4.31177e+08
-4.14266e+08
-3.94923e+08
-3.67835e+08
-3.38345e+08
-2.98916e+08
-2.5437e+08
-1.96829e+08
-1.26643e+08
-3.94772e+07
7.37004e+07
2.15104e+08
3.86828e+08
5.20845e+08
-4.45898e+08
-4.56066e+08
-4.46602e+08
-4.3029e+08
-4.11837e+08
-3.85792e+08
-3.57335e+08
-3.19154e+08
-2.75595e+08
-2.19038e+08
-1.49423e+08
-6.21827e+07
5.18045e+07
1.96284e+08
3.7178e+08
5.14e+08
-4.60596e+08
-4.70955e+08
-4.6222e+08
-4.4678e+08
-4.29567e+08
-4.05049e+08
-3.78179e+08
-3.41988e+08
-3.00182e+08
-2.45635e+08
-1.77577e+08
-9.14693e+07
2.22334e+07
1.69046e+08
3.48293e+08
5.01484e+08
-4.75253e+08
-4.85109e+08
-4.77276e+08
-4.63005e+08
-4.47414e+08
-4.24989e+08
-4.0035e+08
-3.67061e+08
-3.27983e+08
-2.76837e+08
-2.11797e+08
-1.28786e+08
-1.75174e+07
1.29122e+08
3.09178e+08
4.7257e+08
-4.89107e+08
-4.97495e+08
-4.90751e+08
-4.77972e+08
-4.64433e+08
-4.44699e+08
-4.23018e+08
-3.93644e+08
-3.58461e+08
-3.12421e+08
-2.52331e+08
-1.75423e+08
-7.03706e+07
6.99502e+07
2.41307e+08
3.9864e+08
-5.0112e+08
-5.06827e+08
-5.01361e+08
-4.90387e+08
-4.79321e+08
-4.62874e+08
-4.4489e+08
-4.20461e+08
-3.90351e+08
-3.51155e+08
-2.97932e+08
-2.30093e+08
-1.34605e+08
-6.13152e+06
1.48925e+08
2.86644e+08
-5.10013e+08
-5.11547e+08
-5.0753e+08
-4.98652e+08
-4.90484e+08
-4.77868e+08
-4.64274e+08
-4.45723e+08
-4.21768e+08
-3.90957e+08
-3.46112e+08
-2.89758e+08
-2.05693e+08
-9.16715e+07
4.60043e+07
1.66724e+08
-5.14232e+08
-5.09886e+08
-5.07472e+08
-5.0092e+08
-4.95973e+08
-4.87633e+08
-4.79028e+08
-4.67138e+08
-4.50275e+08
-4.29224e+08
-3.94099e+08
-3.51509e+08
-2.8031e+08
-1.83638e+08
-6.41574e+07
4.16533e+07
-5.12024e+08
-4.99823e+08
-4.99109e+08
-4.95044e+08
-4.93568e+08
-4.89801e+08
-4.86615e+08
-4.81934e+08
-4.72927e+08
-4.62723e+08
-4.38462e+08
-4.11808e+08
-3.54722e+08
-2.79777e+08
-1.78707e+08
-8.78419e+07
-5.01379e+08
-4.79159e+08
-4.80214e+08
-4.78712e+08
-4.80809e+08
-4.81702e+08
-4.84166e+08
-4.86917e+08
-4.86287e+08
-4.87636e+08
-4.75375e+08
-4.666e+08
-4.25137e+08
-3.77479e+08
-2.94296e+08
-2.24007e+08
-4.80122e+08
-4.45542e+08
-4.48406e+08
-4.49522e+08
-4.55293e+08
-4.60871e+08
-4.69104e+08
-4.79285e+08
-4.87296e+08
-5.00247e+08
-5.00408e+08
-5.09652e+08
-4.85253e+08
-4.70411e+08
-4.09623e+08
-3.69354e+08
-4.459e+08
-3.97483e+08
-4.02138e+08
-4.05726e+08
-4.14606e+08
-4.23779e+08
-4.36524e+08
-4.52481e+08
-4.67845e+08
-4.91273e+08
-5.04966e+08
-5.33424e+08
-5.30916e+08
-5.50706e+08
-5.19998e+08
-5.23989e+08
-3.97234e+08
-3.28934e+08
-3.35181e+08
-3.41177e+08
-3.53854e+08
-3.67722e+08
-3.86206e+08
-4.09058e+08
-4.33049e+08
-4.67431e+08
-4.94904e+08
-5.41912e+08
-5.62097e+08
-6.14608e+08
-6.18924e+08
-6.81566e+08
-3.28246e+08
-2.45351e+08
-2.54452e+08
-2.64777e+08
-2.83427e+08
-3.0488e+08
-3.3237e+08
-3.65495e+08
-4.00955e+08
-4.47342e+08
-4.88048e+08
-5.50751e+08
-5.90817e+08
-6.72372e+08
-7.08202e+08
-8.30779e+08
-2.43796e+08
-1.70071e+08
-1.83068e+08
-1.98869e+08
-2.23995e+08
-2.53435e+08
-2.90036e+08
-3.33106e+08
-3.79664e+08
-4.3735e+08
-4.90793e+08
-5.66374e+08
-6.22325e+08
-7.24766e+08
-7.8397e+08
-9.50766e+08
-1.66885e+08
-1.14886e+08
-1.3139e+08
-1.52342e+08
-1.8318e+08
-2.19166e+08
-2.63026e+08
-3.13527e+08
-3.68541e+08
-4.34184e+08
-4.97428e+08
-5.81969e+08
-6.49921e+08
-7.65129e+08
-8.39597e+08
-1.0281e+09
-1.09959e+08
-8.17043e+07
-1.00281e+08
-1.24573e+08
-1.59248e+08
-1.99747e+08
-2.48697e+08
-3.04159e+08
-3.65151e+08
-4.35759e+08
-5.05885e+08
-5.95158e+08
-6.70979e+08
-7.91004e+08
-8.73788e+08
-1.06625e+09
-7.54714e+07
-7.07569e+07
-9.01298e+07
-1.161e+08
-1.5262e+08
-1.95335e+08
-2.4695e+08
-3.04662e+08
-3.68855e+08
-4.41206e+08
-5.14977e+08
-6.04635e+08
-6.84152e+08
-8.01628e+08
-8.8653e+08
-1.06965e+09
-6.37044e+07
-8.0992e+07
-1.00062e+08
-1.26139e+08
-1.62627e+08
-2.05356e+08
-2.57288e+08
-3.14685e+08
-3.79408e+08
-4.50469e+08
-5.24718e+08
-6.10675e+08
-6.89834e+08
-7.98278e+08
-8.79692e+08
-1.04276e+09
-7.36642e+07
-1.11045e+08
-1.28929e+08
-1.53708e+08
-1.8849e+08
-2.29226e+08
-2.79295e+08
-3.34019e+08
-3.96775e+08
-4.63813e+08
-5.35589e+08
-6.14218e+08
-6.89168e+08
-7.83013e+08
-8.55762e+08
-9.90124e+08
-1.03956e+08
-1.59055e+08
-1.75117e+08
-1.97452e+08
-2.29145e+08
-2.66176e+08
-3.12456e+08
-3.62443e+08
-4.20993e+08
-4.81649e+08
-5.48276e+08
-6.16473e+08
-6.83589e+08
-7.5806e+08
-8.17272e+08
-9.15994e+08
-1.52603e+08
-2.22562e+08
-2.36531e+08
-2.55736e+08
-2.83439e+08
-3.15505e+08
-3.56435e+08
-3.99968e+08
-4.52337e+08
-5.04586e+08
-5.63609e+08
-6.18707e+08
-6.74537e+08
-7.25538e+08
-7.66735e+08
-8.24877e+08
-2.16933e+08
-2.98288e+08
-3.10336e+08
-3.26376e+08
-3.49926e+08
-3.76506e+08
-4.11151e+08
-4.47033e+08
-4.91595e+08
-5.33714e+08
-5.82819e+08
-6.22413e+08
-6.63524e+08
-6.87475e+08
-7.06777e+08
-7.22111e+08
-2.9344e+08
-3.82437e+08
-3.93031e+08
-4.06457e+08
-4.26501e+08
-4.4808e+08
-4.76535e+08
-5.04484e+08
-5.40238e+08
-5.70912e+08
-6.079e+08
-6.29632e+08
-6.52366e+08
-6.45942e+08
-6.40114e+08
-6.13098e+08
-3.78202e+08
-4.71534e+08
-4.8109e+08
-4.92559e+08
-5.10047e+08
-5.2782e+08
-5.51231e+08
-5.72136e+08
-5.99031e+08
-6.17662e+08
-6.40748e+08
-6.42538e+08
-6.43264e+08
-6.03661e+08
-5.70543e+08
-5.04085e+08
-4.67783e+08
-5.61679e+08
-5.70289e+08
-5.7998e+08
-5.9525e+08
-6.10124e+08
-6.30054e+08
-6.46043e+08
-6.65678e+08
-6.73544e+08
-6.82748e+08
-6.63973e+08
-6.39971e+08
-5.65586e+08
-5.04517e+08
-4.03026e+08
-5.58376e+08
-6.49247e+08
-6.5712e+08
-6.6538e+08
-6.78793e+08
-6.91888e+08
-7.10819e+08
-7.2586e+08
-7.41968e+08
-7.42279e+08
-7.38694e+08
-6.98893e+08
-6.47479e+08
-5.387e+08
-4.51597e+08
-3.21137e+08
-6.4626e+08
-7.42743e+08
-7.50842e+08
-7.59135e+08
-7.7169e+08
-7.82952e+08
-7.97305e+08
-8.02906e+08
-8.04538e+08
-7.86368e+08
-7.59761e+08
-6.97039e+08
-6.25628e+08
-5.05715e+08
-4.12534e+08
-2.66202e+08
-7.39612e+08
-8.17617e+08
-8.22231e+08
-8.25392e+08
-8.28921e+08
-8.26536e+08
-8.20503e+08
-8.02971e+08
-7.80128e+08
-7.39568e+08
-6.93272e+08
-6.22961e+08
-5.542e+08
-4.50718e+08
-3.71795e+08
-2.36638e+08
-8.15616e+08
-8.05168e+08
-8.02096e+08
-7.95264e+08
-7.85669e+08
-7.6934e+08
-7.47962e+08
-7.18727e+08
-6.86176e+08
-6.41542e+08
-5.94569e+08
-5.31666e+08
-4.73453e+08
-3.90862e+08
-3.24492e+08
-2.19542e+08
-8.06153e+08
-7.28664e+08
-7.22435e+08
-7.11829e+08
-6.97559e+08
-6.78183e+08
-6.56507e+08
-6.30172e+08
-6.00342e+08
-5.60416e+08
-5.17884e+08
-4.61823e+08
-4.07402e+08
-3.36388e+08
-2.74559e+08
-1.96526e+08
-7.30894e+08
-6.5042e+08
-6.44727e+08
-6.35436e+08
-6.22673e+08
-6.05286e+08
-5.84352e+08
-5.57721e+08
-5.27954e+08
-4.90169e+08
-4.50498e+08
-4.00668e+08
-3.52042e+08
-2.91237e+08
-2.34633e+08
-1.6774e+08
-6.52455e+08
-5.82211e+08
-5.75961e+08
-5.6648e+08
-5.53439e+08
-5.3654e+08
-5.16512e+08
-4.91815e+08
-4.64243e+08
-4.30101e+08
-3.94182e+08
-3.50076e+08
-3.0658e+08
-2.53606e+08
-2.04136e+08
-1.44208e+08
-5.84394e+08
-5.19506e+08
-5.1346e+08
-5.04716e+08
-4.92465e+08
-4.76851e+08
-4.58071e+08
-4.35101e+08
-4.09512e+08
-3.78571e+08
-3.46135e+08
-3.07262e+08
-2.68872e+08
-2.23117e+08
-1.80152e+08
-1.28897e+08
-5.21538e+08
-4.63585e+08
-4.57656e+08
-4.49477e+08
-4.37879e+08
-4.23451e+08
-4.06077e+08
-3.85195e+08
-3.61954e+08
-3.34336e+08
-3.05413e+08
-2.7132e+08
-2.37652e+08
-1.98112e+08
-1.61172e+08
-1.17167e+08
-4.65513e+08
-4.13461e+08
-4.0784e+08
-4.00395e+08
-3.89674e+08
-3.76565e+08
-3.60691e+08
-3.41854e+08
-3.20901e+08
-2.96376e+08
-2.7075e+08
-2.40995e+08
-2.11685e+08
-1.77713e+08
-1.46127e+08
-1.08766e+08
-4.15224e+08
-3.68875e+08
-3.63593e+08
-3.56855e+08
-3.47018e+08
-3.35204e+08
-3.20848e+08
-3.04032e+08
-2.85338e+08
-2.63729e+08
-2.41197e+08
-2.15347e+08
-1.89967e+08
-1.60853e+08
-1.33949e+08
-1.02232e+08
-3.70481e+08
-3.29276e+08
-3.24387e+08
-3.1836e+08
-3.0944e+08
-2.98892e+08
-2.86022e+08
-2.71118e+08
-2.54554e+08
-2.35618e+08
-2.15918e+08
-1.93559e+08
-1.71692e+08
-1.46842e+08
-1.24011e+08
-9.7191e+07
-3.30719e+08
-2.94201e+08
-2.89718e+08
-2.84365e+08
-2.7634e+08
-2.66989e+08
-2.55537e+08
-2.42418e+08
-2.27839e+08
-2.11335e+08
-1.94204e+08
-1.74939e+08
-1.56175e+08
-1.3502e+08
-1.15689e+08
-9.30205e+07
-2.95488e+08
-2.63174e+08
-2.59101e+08
-2.54382e+08
-2.47217e+08
-2.38982e+08
-2.28859e+08
-2.17374e+08
-2.04613e+08
-1.90293e+08
-1.75463e+08
-1.58923e+08
-1.42878e+08
-1.24917e+08
-1.0858e+08
-8.943e+07
-2.64312e+08
-2.35749e+08
-2.32078e+08
-2.27942e+08
-2.21584e+08
-2.14373e+08
-2.05474e+08
-1.95471e+08
-1.84355e+08
-1.71981e+08
-1.59193e+08
-1.45036e+08
-1.31358e+08
-1.16141e+08
-1.02353e+08
-8.61771e+07
-2.36751e+08
-2.1151e+08
-2.08224e+08
-2.04617e+08
-1.99008e+08
-1.92724e+08
-1.8494e+08
-1.76264e+08
-1.66621e+08
-1.55966e+08
-1.44977e+08
-1.32891e+08
-1.21258e+08
-1.08387e+08
-9.67542e+07
-8.30655e+07
-2.12386e+08
-1.90074e+08
-1.87148e+08
-1.84018e+08
-1.79094e+08
-1.7364e+08
-1.6686e+08
-1.59363e+08
-1.5103e+08
-1.41882e+08
-1.32465e+08
-1.22172e+08
-1.12298e+08
-1.01426e+08
-9.16154e+07
-8.00203e+07
-1.90836e+08
-1.71093e+08
-1.68503e+08
-1.65797e+08
-1.61491e+08
-1.56775e+08
-1.50892e+08
-1.44434e+08
-1.37254e+08
-1.2942e+08
-1.2137e+08
-1.12618e+08
-1.04249e+08
-9.50709e+07
-8.67898e+07
-7.69369e+07
-1.71754e+08
-1.54256e+08
-1.51972e+08
-1.4964e+08
-1.45889e+08
-1.41824e+08
-1.36734e+08
-1.31186e+08
-1.25015e+08
-1.18321e+08
-1.11452e+08
-1.04021e+08
-9.6934e+07
-8.9187e+07
-8.21867e+07
-7.37837e+07
-1.54827e+08
-1.39283e+08
-1.37278e+08
-1.35274e+08
-1.32015e+08
-1.2852e+08
-1.24128e+08
-1.19372e+08
-1.14079e+08
-1.08367e+08
-1.02514e+08
-9.62084e+07
-9.02095e+07
-8.3668e+07
-7.77373e+07
-7.05404e+07
-1.39776e+08
-1.25929e+08
-1.24174e+08
-1.22456e+08
-1.19632e+08
-1.16633e+08
-1.12851e+08
-1.08779e+08
-1.04246e+08
-9.93768e+07
-9.43931e+07
-8.90441e+07
-8.3964e+07
-7.84331e+07
-7.33897e+07
-6.71847e+07
-1.26353e+08
-1.13979e+08
-1.12447e+08
-1.10975e+08
-1.08534e+08
-1.05963e+08
-1.0271e+08
-9.92288e+07
-9.535e+07
-9.1201e+07
-8.69582e+07
-8.24184e+07
-7.81121e+07
-7.34266e+07
-6.91195e+07
-6.37347e+07
-1.14343e+08
-1.03243e+08
-1.01908e+08
-1.00649e+08
-9.85407e+07
-9.63395e+07
-9.35445e+07
-9.05685e+07
-8.72504e+07
-8.37142e+07
-8.01004e+07
-7.6243e+07
-7.25857e+07
-6.86048e+07
-6.49054e+07
-6.01933e+07
-1.03555e+08
-9.35584e+07
-9.23968e+07
-9.132e+07
-8.95002e+07
-8.76155e+07
-8.52143e+07
-8.26696e+07
-7.98302e+07
-7.68136e+07
-7.37319e+07
-7.04478e+07
-6.73335e+07
-6.39382e+07
-6.07391e+07
-5.65767e+07
-9.38258e+07
-8.47833e+07
-8.37733e+07
-8.2852e+07
-8.12813e+07
-7.96665e+07
-7.76027e+07
-7.54245e+07
-7.2992e+07
-7.04144e+07
-6.77812e+07
-6.49778e+07
-6.23167e+07
-5.94082e+07
-5.66227e+07
-5.29162e+07
-8.50126e+07
-7.67967e+07
-7.59186e+07
-7.51292e+07
-7.37726e+07
-7.23869e+07
-7.06109e+07
-6.87429e+07
-6.66551e+07
-6.44468e+07
-6.21904e+07
-5.97884e+07
-5.75037e+07
-5.49968e+07
-5.2548e+07
-4.92072e+07
-7.69936e+07
-6.94948e+07
-6.87309e+07
-6.80528e+07
-6.68794e+07
-6.56875e+07
-6.41558e+07
-6.25494e+07
-6.07524e+07
-5.88539e+07
-5.6913e+07
-5.48456e+07
-5.28738e+07
-5.06998e+07
-4.85296e+07
-4.54948e+07
-6.96641e+07
-6.27891e+07
-6.21236e+07
-6.15391e+07
-6.05217e+07
-5.94928e+07
-5.81679e+07
-5.6781e+07
-5.52283e+07
-5.35888e+07
-5.1911e+07
-5.01212e+07
-4.84075e+07
-4.65068e+07
-4.45619e+07
-4.17715e+07
-6.29353e+07
-5.66049e+07
-5.60236e+07
-5.55175e+07
-5.46323e+07
-5.374e+07
-5.25891e+07
-5.13857e+07
-5.00376e+07
-4.86134e+07
-4.71544e+07
-4.55944e+07
-4.40935e+07
-4.24176e+07
-4.06566e+07
-3.80659e+07
-5.67317e+07
-5.0879e+07
-5.03696e+07
-4.99286e+07
-4.91548e+07
-4.83763e+07
-4.73713e+07
-4.63204e+07
-4.51426e+07
-4.38969e+07
-4.26187e+07
-4.12481e+07
-3.99218e+07
-3.84301e+07
-3.68185e+07
-3.43915e+07
-5.09896e+07
-4.55583e+07
-4.51099e+07
-4.47227e+07
-4.40424e+07
-4.33581e+07
-4.24745e+07
-4.15496e+07
-4.05127e+07
-3.94139e+07
-3.82845e+07
-3.7069e+07
-3.58849e+07
-3.45426e+07
-3.30503e+07
-3.07507e+07
-4.56556e+07
-4.05987e+07
-4.02017e+07
-3.98584e+07
-3.92562e+07
-3.8649e+07
-3.7866e+07
-3.70443e+07
-3.61232e+07
-3.51444e+07
-3.41364e+07
-3.30474e+07
-3.19792e+07
-3.07602e+07
-2.93678e+07
-2.71827e+07
-4.0685e+07
-3.59635e+07
-3.56097e+07
-3.53019e+07
-3.47642e+07
-3.42196e+07
-3.35189e+07
-3.27808e+07
-3.19539e+07
-3.10719e+07
-3.01616e+07
-2.9174e+07
-2.81978e+07
-2.70762e+07
-2.57599e+07
-2.36594e+07
-3.6041e+07
-3.16228e+07
-3.1305e+07
-3.10253e+07
-3.05404e+07
-3.00459e+07
-2.94119e+07
-2.87405e+07
-2.7989e+07
-2.71837e+07
-2.63509e+07
-2.54435e+07
-2.45396e+07
-2.34954e+07
-2.22397e+07
-2.02105e+07
-3.16933e+07
-2.75522e+07
-2.72641e+07
-2.70063e+07
-2.65642e+07
-2.61088e+07
-2.55278e+07
-2.49083e+07
-2.42159e+07
-2.34699e+07
-2.26967e+07
-2.18503e+07
-2.10004e+07
-2.00142e+07
-1.88016e+07
-1.68239e+07
-2.76172e+07
-2.37322e+07
-2.34685e+07
-2.32271e+07
-2.28189e+07
-2.23932e+07
-2.18535e+07
-2.12732e+07
-2.06254e+07
-1.99235e+07
-1.91939e+07
-1.83919e+07
-1.75801e+07
-1.6635e+07
-1.54508e+07
-1.3509e+07
-2.37932e+07
-2.01477e+07
-1.99039e+07
-1.9674e+07
-1.92924e+07
-1.88881e+07
-1.83793e+07
-1.78269e+07
-1.72113e+07
-1.65397e+07
-1.58396e+07
-1.50666e+07
-1.42781e+07
-1.33585e+07
-1.21889e+07
-1.02694e+07
-2.02059e+07
-1.67872e+07
-1.65594e+07
-1.63371e+07
-1.59754e+07
-1.55855e+07
-1.50987e+07
-1.45643e+07
-1.39696e+07
-1.33162e+07
-1.26326e+07
-1.18746e+07
-1.10953e+07
-1.01857e+07
-9.01625e+06
-7.10171e+06
-1.68437e+07
-1.36425e+07
-1.34274e+07
-1.32092e+07
-1.2862e+07
-1.24803e+07
-1.20077e+07
-1.14828e+07
-1.08992e+07
-1.02529e+07
-9.57412e+06
-8.81797e+06
-8.03475e+06
-7.12063e+06
-5.93836e+06
-4.01586e+06
-1.3698e+07
-1.07077e+07
-1.05028e+07
-1.02858e+07
-9.94851e+06
-9.57007e+06
-9.10505e+06
-8.58232e+06
-8.00109e+06
-7.35216e+06
-6.6672e+06
-5.90043e+06
-5.1001e+06
-4.16618e+06
-2.95591e+06
-1.00734e+06
-1.0763e+07
-7.9796e+06
-7.78273e+06
-7.56487e+06
-7.23377e+06
-6.85453e+06
-6.39174e+06
-5.86507e+06
-5.27878e+06
-4.61863e+06
-3.91754e+06
-3.12844e+06
-2.29813e+06
-1.32909e+06
-75394.8
1.91752e+06
-8.03515e+06
-5.45639e+06
-5.26613e+06
-5.0458e+06
-4.71825e+06
-4.3353e+06
-3.87063e+06
-3.33534e+06
-2.73796e+06
-2.05939e+06
-1.33332e+06
-510976
362140
1.38225e+06
2.69643e+06
4.75455e+06
-5.51258e+06
-3.13764e+06
-2.95305e+06
-2.72948e+06
-2.40381e+06
-2.01548e+06
-1.5463e+06
-999326
-386550
315873
1.07431e+06
1.93958e+06
2.86808e+06
3.95595e+06
5.35023e+06
7.49987e+06
-3.19461e+06
-1.02363e+06
-844326
-617565
-293211
100757
575407
1.13514e+06
1.76546e+06
2.49483e+06
3.29083e+06
4.20664e+06
5.20208e+06
6.37407e+06
7.86978e+06
1.01404e+07
-1.08131e+06
885084
1.05895e+06
1.28798e+06
1.61037e+06
2.00869e+06
2.48781e+06
3.05903e+06
3.70629e+06
4.46259e+06
5.29816e+06
6.26889e+06
7.34075e+06
8.61212e+06
1.0233e+07
1.26604e+07
826989
2.5886e+06
2.75635e+06
2.9858e+06
3.30433e+06
3.70401e+06
4.1844e+06
4.76307e+06
5.42323e+06
6.2023e+06
7.0747e+06
8.09946e+06
9.25282e+06
1.06347e+07
1.24056e+07
1.50281e+07
2.53059e+06
4.08763e+06
4.24811e+06
4.47527e+06
4.78681e+06
5.18316e+06
5.6593e+06
6.23838e+06
6.90331e+06
7.6959e+06
8.59586e+06
9.66616e+06
1.08985e+07
1.23945e+07
1.43435e+07
1.72031e+07
4.0304e+06
5.38596e+06
5.53759e+06
5.75897e+06
6.05924e+06
6.44593e+06
6.90999e+06
7.47919e+06
8.13615e+06
8.92665e+06
9.83583e+06
1.09318e+07
1.22266e+07
1.3828e+07
1.59877e+07
1.91536e+07
5.33036e+06
6.48907e+06
6.62997e+06
6.84146e+06
7.12527e+06
7.49467e+06
7.93686e+06
8.48298e+06
9.11463e+06
9.88048e+06
1.0769e+07
1.18543e+07
1.31677e+07
1.48348e+07
1.72e+07
2.07556e+07
6.43608e+06
7.38165e+06
7.51041e+06
7.70859e+06
7.97172e+06
8.31733e+06
8.72911e+06
9.24018e+06
9.82982e+06
1.05476e+07
1.13808e+07
1.24068e+07
1.36638e+07
1.52994e+07
1.773e+07
2.15715e+07
7.33199e+06
8.21591e+06
8.32787e+06
8.50473e+06
8.73651e+06
9.04366e+06
9.40605e+06
9.85656e+06
1.03693e+07
1.09892e+07
1.16909e+07
1.25375e+07
1.35295e+07
1.47799e+07
1.66095e+07
1.94782e+07
8.17156e+06
8.54298e+06
8.64281e+06
8.80333e+06
9.01206e+06
9.29064e+06
9.61726e+06
1.00244e+07
1.04838e+07
1.10373e+07
1.16522e+07
1.23794e+07
1.31846e+07
1.41235e+07
1.52595e+07
1.73719e+07
8.5027e+06
)
;

boundaryField
{
    wireUpstream
    {
        type            zeroGradient;
    }
    wireDownstream
    {
        type            zeroGradient;
    }
    wireTopContact
    {
        type            zeroGradient;
    }
    front
    {
        type            wedge;
    }
    back
    {
        type            wedge;
    }
}


// ************************************************************************* //
