/*--------------------------------*- C++ -*----------------------------------*\
| =========                 |                                                 |
| \\      /  F ield         | OpenFOAM: The Open Source CFD Toolbox           |
|  \\    /   O peration     | Version:  4.1                                   |
|   \\  /    A nd           | Web:      www.OpenFOAM.org                      |
|    \\/     M anipulation  |                                                 |
\*---------------------------------------------------------------------------*/
FoamFile
{
    version     2.0;
    format      ascii;
    class       volScalarField;
    location    "0.0062";
    object      p;
}
// * * * * * * * * * * * * * * * * * * * * * * * * * * * * * * * * * * * * * //

dimensions      [0 2 -2 0 0 0 0];

internalField   nonuniform List<scalar> 
1536
(
0.0082934
0.0249
0.041874
0.059997
0.079958
0.10263
0.12886
0.15947
0.1952
0.23656
0.28377
0.33682
0.0082788
0.024937
0.04214
0.060476
0.080687
0.10361
0.13008
0.1609
0.19679
0.23824
0.28549
0.33853
0.0083006
0.025024
0.042318
0.060781
0.081146
0.10423
0.13086
0.16182
0.19781
0.23932
0.28659
0.33962
0.0083084
0.025058
0.042393
0.060914
0.081356
0.10452
0.13123
0.16226
0.19831
0.23986
0.28714
0.34018
0.0083019
0.025039
0.042363
0.060876
0.081312
0.10448
0.13119
0.16223
0.19829
0.23984
0.28714
0.34018
0.008281
0.024966
0.042227
0.060665
0.081015
0.1041
0.13073
0.16172
0.19774
0.23928
0.28658
0.33963
0.0082461
0.024841
0.041989
0.060282
0.080468
0.10339
0.12987
0.16074
0.19668
0.23818
0.28548
0.33855
0.0082474
0.024766
0.041661
0.059724
0.07965
0.10232
0.12857
0.15924
0.19504
0.23648
0.28376
0.33685
0.0082905
0.024969
0.042198
0.06055
0.080769
0.10369
0.13015
0.16096
0.19683
0.23827
0.2855
0.33854
0.0083138
0.025093
0.042478
0.061018
0.081452
0.1046
0.13127
0.16228
0.1983
0.23982
0.28708
0.34009
0.0083429
0.025192
0.042663
0.061324
0.081902
0.1052
0.13203
0.16317
0.19928
0.24086
0.28814
0.34115
0.0083548
0.025233
0.042742
0.061458
0.082107
0.10548
0.13239
0.1636
0.19977
0.24138
0.28868
0.34168
0.0083483
0.025214
0.042712
0.06142
0.082064
0.10544
0.13235
0.16357
0.19975
0.24137
0.28868
0.34169
0.0083233
0.025134
0.042572
0.061208
0.081772
0.10507
0.13191
0.16307
0.19922
0.24083
0.28814
0.34116
0.0082809
0.024997
0.042327
0.060824
0.081233
0.10438
0.13107
0.16212
0.19819
0.23977
0.28707
0.34012
0.008244
0.024833
0.041984
0.060276
0.08046
0.10338
0.12987
0.16074
0.19668
0.2382
0.28551
0.33858
0.0083256
0.025096
0.042433
0.060926
0.081307
0.10439
0.131
0.16194
0.1979
0.23938
0.28662
0.33963
0.0083555
0.025228
0.04272
0.061396
0.081983
0.10528
0.1321
0.16323
0.19933
0.2409
0.28816
0.34115
0.0083817
0.025323
0.042905
0.061701
0.082425
0.10587
0.13284
0.16409
0.20029
0.24192
0.2892
0.34219
0.0083931
0.025364
0.042985
0.061835
0.082626
0.10614
0.13319
0.16451
0.20077
0.24242
0.28973
0.34271
0.0083865
0.025345
0.042955
0.061796
0.082583
0.1061
0.13315
0.16448
0.20075
0.24242
0.28973
0.34272
0.0083619
0.025266
0.042815
0.061585
0.082295
0.10574
0.13272
0.164
0.20023
0.24189
0.28921
0.34221
0.0083222
0.025131
0.042567
0.061202
0.081764
0.10506
0.13191
0.16307
0.19923
0.24085
0.28817
0.3412
0.0082787
0.024959
0.042217
0.06065
0.080997
0.10408
0.13072
0.16172
0.19776
0.23932
0.28663
0.33969
0.008346
0.025167
0.042566
0.061133
0.081599
0.10477
0.13145
0.16246
0.19846
0.23995
0.2872
0.3402
0.00838
0.025306
0.042856
0.061604
0.082269
0.10565
0.13254
0.16373
0.19987
0.24145
0.28872
0.3417
0.0084057
0.0254
0.043042
0.061908
0.082707
0.10623
0.13326
0.16458
0.20082
0.24246
0.28975
0.34272
0.0084169
0.025441
0.043121
0.062041
0.082906
0.1065
0.13361
0.16499
0.20129
0.24296
0.29027
0.34324
0.0084103
0.025421
0.043091
0.062002
0.082863
0.10645
0.13357
0.16496
0.20127
0.24296
0.29027
0.34325
0.0083857
0.025342
0.042951
0.061791
0.082577
0.1061
0.13315
0.16449
0.20076
0.24244
0.28976
0.34275
0.0083464
0.025208
0.042703
0.061408
0.08205
0.10543
0.13234
0.16357
0.19978
0.24142
0.28874
0.34176
0.0082986
0.025029
0.042349
0.060855
0.081287
0.10445
0.13117
0.16224
0.19832
0.23991
0.28723
0.34028
0.0083522
0.025186
0.042595
0.06117
0.08164
0.10481
0.13149
0.16249
0.19849
0.23998
0.28722
0.34022
0.0083861
0.025324
0.042885
0.06164
0.082309
0.10569
0.13258
0.16377
0.19991
0.24149
0.28875
0.34173
0.0084118
0.025418
0.04307
0.061943
0.082748
0.10627
0.1333
0.16462
0.20086
0.2425
0.28978
0.34275
0.008423
0.025458
0.043149
0.062076
0.082946
0.10654
0.13365
0.16503
0.20132
0.243
0.2903
0.34327
0.0084162
0.025439
0.043118
0.062037
0.082902
0.1065
0.13361
0.165
0.20131
0.24299
0.29031
0.34328
0.0083915
0.025359
0.042977
0.061825
0.082616
0.10614
0.13319
0.16453
0.2008
0.24248
0.2898
0.34279
0.008352
0.025225
0.042729
0.061442
0.082088
0.10547
0.13239
0.16362
0.19982
0.24146
0.28878
0.3418
0.008304
0.025045
0.042374
0.060888
0.081326
0.10449
0.13122
0.16228
0.19836
0.23995
0.28727
0.34032
0.0083444
0.025152
0.04252
0.061037
0.08143
0.10452
0.13113
0.16206
0.198
0.23947
0.28669
0.3397
0.0083742
0.025284
0.042806
0.061505
0.082105
0.10541
0.13223
0.16335
0.19944
0.24099
0.28824
0.34123
0.0084003
0.025378
0.04299
0.061809
0.082546
0.106
0.13296
0.16421
0.2004
0.24202
0.28929
0.34227
0.0084115
0.025417
0.043069
0.061941
0.082746
0.10627
0.13331
0.16463
0.20088
0.24253
0.28983
0.3428
0.0084046
0.025397
0.043037
0.061902
0.082702
0.10623
0.13327
0.1646
0.20086
0.24253
0.28983
0.34282
0.0083795
0.025317
0.042896
0.061689
0.082413
0.10586
0.13284
0.16412
0.20036
0.24201
0.28932
0.34232
0.0083394
0.025182
0.042647
0.061304
0.081881
0.10519
0.13203
0.1632
0.19936
0.24098
0.28829
0.34131
0.0082952
0.025009
0.042296
0.060751
0.081113
0.1042
0.13085
0.16185
0.19789
0.23945
0.28676
0.33982
0.008323
0.025069
0.042346
0.060735
0.080974
0.1039
0.13036
0.16115
0.197
0.23842
0.28563
0.33864
0.0083455
0.025187
0.042624
0.061202
0.081657
0.10481
0.13148
0.16247
0.19847
0.23997
0.28722
0.34021
0.0083741
0.025283
0.042806
0.061505
0.082106
0.10541
0.13224
0.16336
0.19947
0.24103
0.2883
0.34129
0.0083856
0.025323
0.042883
0.061638
0.082309
0.10569
0.1326
0.1638
0.19996
0.24156
0.28884
0.34184
0.0083785
0.025302
0.042851
0.061597
0.082264
0.10565
0.13256
0.16377
0.19995
0.24156
0.28886
0.34186
0.0083529
0.025221
0.042709
0.061383
0.081971
0.10528
0.13212
0.16328
0.19942
0.24103
0.28833
0.34135
0.0083099
0.025082
0.042462
0.060996
0.081429
0.10458
0.13128
0.16233
0.1984
0.23997
0.28728
0.34032
0.0082727
0.024922
0.042116
0.060444
0.080651
0.10358
0.13008
0.16095
0.19689
0.23841
0.28572
0.33879
0.008339
0.025029
0.042084
0.06026
0.08025
0.10293
0.12915
0.15973
0.19543
0.23676
0.28395
0.33697
0.0083222
0.025064
0.042347
0.060738
0.08098
0.10391
0.13037
0.16118
0.19704
0.23846
0.28569
0.33871
0.0083443
0.025152
0.042522
0.061039
0.081436
0.10453
0.13115
0.1621
0.19807
0.23955
0.2868
0.33982
0.0083516
0.025185
0.042594
0.061169
0.081642
0.10482
0.13152
0.16255
0.19858
0.24011
0.28737
0.3404
0.0083444
0.025163
0.042561
0.061127
0.081596
0.10478
0.13148
0.16252
0.19856
0.24011
0.28739
0.34042
0.0083225
0.025088
0.042422
0.060914
0.081297
0.10439
0.13103
0.16201
0.19803
0.23956
0.28685
0.33989
0.0082856
0.024957
0.042181
0.060528
0.080747
0.10368
0.13017
0.16103
0.19697
0.23847
0.28577
0.33883
0.0082878
0.024881
0.04185
0.059964
0.079922
0.10261
0.12886
0.15953
0.19533
0.23677
0.28406
0.33715
0.33185
0.27852
0.23121
0.19003
0.15479
0.12488
0.099415
0.077445
0.058106
0.040613
0.02409
0.0080059
0.33425
0.28093
0.23359
0.1923
0.15683
0.12659
0.10076
0.078421
0.058741
0.040952
0.024251
0.0080467
0.33505
0.28178
0.23445
0.19312
0.15755
0.12718
0.10122
0.078786
0.059028
0.04114
0.024372
0.0080893
0.33574
0.28247
0.23512
0.19374
0.15809
0.12763
0.10157
0.079031
0.05918
0.041215
0.024392
0.0080894
0.33574
0.28247
0.2351
0.1937
0.15804
0.12758
0.10151
0.078973
0.059128
0.041175
0.024366
0.0080807
0.33506
0.28177
0.2344
0.19302
0.15741
0.12702
0.10104
0.078612
0.058875
0.041021
0.024297
0.0080637
0.33427
0.28091
0.23351
0.19215
0.1566
0.12632
0.10046
0.07813
0.058486
0.040754
0.024124
0.0080033
0.33189
0.2785
0.2311
0.18982
0.15448
0.1245
0.098998
0.077038
0.057747
0.040335
0.023914
0.0079455
0.31357
0.26028
0.21311
0.17264
0.13902
0.11154
0.088878
0.069788
0.053324
0.038308
0.023377
0.0079417
0.31496
0.26164
0.21444
0.17391
0.14012
0.11241
0.089512
0.070209
0.053534
0.038297
0.023281
0.0078883
0.31547
0.26218
0.21499
0.17442
0.14056
0.11274
0.089716
0.070319
0.05357
0.038297
0.023254
0.0078713
0.31589
0.2626
0.21541
0.1748
0.14089
0.11299
0.08988
0.070387
0.053579
0.038298
0.023253
0.0078684
0.3159
0.2626
0.21538
0.17475
0.14081
0.1129
0.089786
0.070296
0.053499
0.038236
0.023214
0.007855
0.31548
0.26216
0.21492
0.17428
0.14035
0.11247
0.089435
0.070046
0.053333
0.038114
0.023137
0.0078314
0.31497
0.2616
0.21431
0.17366
0.13977
0.11198
0.089051
0.069763
0.053145
0.037998
0.023092
0.0078233
0.31362
0.26025
0.21294
0.17232
0.13855
0.11096
0.088249
0.06918
0.052794
0.037902
0.023121
0.0078535
0.33191
0.27851
0.2311
0.18981
0.15447
0.12448
0.098981
0.077022
0.057734
0.040325
0.023906
0.0079434
0.33434
0.28096
0.23354
0.19216
0.1566
0.1263
0.10043
0.078109
0.058468
0.040743
0.024122
0.0080013
0.33516
0.28185
0.23446
0.19304
0.15739
0.12697
0.10099
0.078564
0.058839
0.041
0.024293
0.0080633
0.3359
0.2826
0.23519
0.19374
0.15803
0.12753
0.10145
0.078914
0.059082
0.041145
0.02435
0.0080759
0.33596
0.28266
0.23525
0.1938
0.15809
0.12759
0.1015
0.078965
0.059126
0.04118
0.024373
0.0080836
0.33534
0.28204
0.23464
0.19322
0.15757
0.12715
0.10116
0.078719
0.058973
0.041102
0.024349
0.0080819
0.33463
0.28125
0.23383
0.19244
0.15687
0.12656
0.10069
0.07835
0.058683
0.040914
0.024234
0.008042
0.33231
0.27892
0.2315
0.19021
0.15486
0.12487
0.099356
0.077376
0.058047
0.040575
0.024073
0.0080012
0.31363
0.26025
0.21293
0.17228
0.1385
0.1109
0.088196
0.069133
0.052769
0.037887
0.023113
0.0078512
0.31505
0.26166
0.21433
0.17363
0.13971
0.1119
0.088967
0.069695
0.05308
0.037959
0.023074
0.0078191
0.3156
0.26224
0.21493
0.17422
0.14023
0.11232
0.089284
0.069919
0.053238
0.038047
0.023105
0.0078229
0.31611
0.26275
0.21544
0.17471
0.14069
0.11272
0.0896
0.070139
0.053388
0.038169
0.023181
0.007846
0.3162
0.26284
0.21553
0.17479
0.14076
0.1128
0.08967
0.070202
0.053443
0.038213
0.02321
0.0078566
0.31589
0.26253
0.21521
0.17448
0.14048
0.11256
0.089512
0.070133
0.053432
0.038213
0.023212
0.0078596
0.3155
0.26211
0.21476
0.17403
0.14009
0.11227
0.089323
0.070031
0.053401
0.038213
0.023241
0.0078771
0.31426
0.26087
0.21352
0.17285
0.13906
0.11145
0.088728
0.069639
0.053206
0.038238
0.023346
0.0079334
0.33236
0.27896
0.23156
0.19027
0.15493
0.12495
0.099441
0.077456
0.058117
0.040629
0.024104
0.0080121
0.33475
0.28139
0.23399
0.19263
0.1571
0.12681
0.10095
0.078595
0.058897
0.041081
0.024339
0.0080762
0.33551
0.28223
0.23488
0.1935
0.15791
0.12752
0.10155
0.079092
0.059301
0.041362
0.024522
0.0081422
0.33616
0.2829
0.23556
0.19418
0.15854
0.12809
0.10202
0.079466
0.059568
0.041526
0.024596
0.00816
0.33611
0.28287
0.23555
0.19419
0.15857
0.12814
0.10209
0.079532
0.059628
0.041573
0.024626
0.0081703
0.33537
0.28214
0.23485
0.19355
0.15801
0.12768
0.10174
0.079287
0.059479
0.041502
0.024612
0.008172
0.33453
0.28124
0.23395
0.19271
0.15728
0.12708
0.10127
0.07892
0.059191
0.041312
0.024486
0.0081275
0.33206
0.27877
0.23151
0.19038
0.1552
0.12533
0.099886
0.07791
0.058527
0.040952
0.02431
0.0080829
0.31436
0.26096
0.21362
0.17296
0.13918
0.11159
0.088867
0.06977
0.053332
0.038337
0.023408
0.0079547
0.31577
0.26238
0.21506
0.17439
0.1405
0.11273
0.089794
0.070479
0.053772
0.038504
0.023425
0.0079406
0.31625
0.26292
0.21566
0.17502
0.14111
0.11326
0.090229
0.070816
0.054025
0.038669
0.023502
0.0079594
0.31659
0.26329
0.21608
0.17548
0.14158
0.11371
0.090616
0.071108
0.054237
0.038833
0.023605
0.0079921
0.31647
0.2632
0.21604
0.17549
0.14164
0.1138
0.090723
0.071219
0.054337
0.038912
0.023655
0.0080092
0.31591
0.26266
0.21554
0.17506
0.14128
0.11352
0.090549
0.071145
0.054323
0.038905
0.023652
0.008011
0.31528
0.26203
0.21491
0.17447
0.14079
0.11316
0.090315
0.07101
0.054254
0.038883
0.023666
0.0080225
0.31375
0.26054
0.21346
0.17309
0.13957
0.11218
0.089566
0.070484
0.053974
0.038842
0.023727
0.0080629
0.332
0.27872
0.23147
0.19036
0.15518
0.12532
0.099881
0.077909
0.058528
0.040953
0.024314
0.0080836
0.33435
0.28109
0.23382
0.19261
0.15721
0.12703
0.10123
0.078897
0.059176
0.041301
0.02448
0.0081262
0.33511
0.28191
0.23466
0.19341
0.15793
0.12763
0.10171
0.079273
0.059469
0.041492
0.024597
0.0081666
0.33577
0.28257
0.23531
0.19402
0.15846
0.12808
0.10206
0.079519
0.059621
0.041567
0.024619
0.0081678
0.33574
0.28254
0.23527
0.19397
0.15841
0.12802
0.102
0.07946
0.059569
0.041526
0.024591
0.0081584
0.33504
0.28182
0.23455
0.19328
0.15777
0.12746
0.10153
0.079096
0.059311
0.041369
0.024526
0.0081436
0.33424
0.28095
0.23366
0.19241
0.15698
0.12677
0.10096
0.078621
0.058921
0.041096
0.024346
0.0080779
0.33184
0.27852
0.23123
0.19007
0.15484
0.12494
0.099478
0.077509
0.058162
0.040657
0.024117
0.0080155
0.31366
0.26047
0.21341
0.17305
0.13955
0.11217
0.08957
0.070493
0.053972
0.038839
0.023725
0.0080617
0.31495
0.26175
0.21469
0.17429
0.14066
0.11308
0.090254
0.07097
0.054242
0.038869
0.023654
0.0080174
0.31541
0.26224
0.21521
0.17481
0.14111
0.11343
0.090494
0.071116
0.054307
0.038894
0.023641
0.0080057
0.31579
0.26263
0.2156
0.17518
0.14144
0.11369
0.090672
0.071196
0.054323
0.038896
0.023641
0.0080041
0.31578
0.2626
0.21556
0.17513
0.14138
0.11362
0.090591
0.071114
0.054247
0.038833
0.0236
0.0079901
0.31536
0.26216
0.2151
0.17465
0.14092
0.11319
0.090232
0.070844
0.054047
0.038675
0.023501
0.0079581
0.31487
0.26163
0.21452
0.17405
0.14035
0.11271
0.089844
0.070546
0.05382
0.03853
0.023434
0.0079421
0.31353
0.26028
0.21313
0.17268
0.13908
0.11162
0.088969
0.06988
0.053419
0.038386
0.023428
0.007959
)
;

boundaryField
{
    inlet
    {
        type            uniformTotalPressure;
        rho             rho;
        psi             none;
        gamma           1;
        p0              table
        
4
(
(0 1.3332)
(0.003 1.3332)
(0.0031 0)
(0.01 0)
)
;
        value           nonuniform 0();
    }
    outlet
    {
        type            fixedValue;
        value           uniform 0;
    }
    mantle
    {
        type            zeroGradient;
    }
    procBoundary3to2
    {
        type            processor;
        value           nonuniform List<scalar> 
128
(
0.39555
0.39723
0.39829
0.39884
0.39884
0.39831
0.39726
0.39559
0.39723
0.39873
0.39975
0.40027
0.40028
0.39977
0.39877
0.39728
0.39829
0.39975
0.40075
0.40126
0.40127
0.40078
0.3998
0.39836
0.39884
0.40028
0.40127
0.40177
0.40178
0.4013
0.40035
0.39893
0.39886
0.40031
0.40129
0.40179
0.40181
0.40134
0.40038
0.39897
0.39834
0.39982
0.40083
0.40134
0.40136
0.40088
0.39992
0.39848
0.39732
0.39884
0.39988
0.40041
0.40044
0.39995
0.39895
0.39748
0.39568
0.39738
0.39847
0.39904
0.39907
0.39855
0.39752
0.39588
0.39099
0.39338
0.39408
0.39476
0.39477
0.39409
0.3934
0.39104
0.37247
0.37393
0.37444
0.37487
0.37488
0.37445
0.37395
0.37256
0.39105
0.39346
0.39418
0.3949
0.39496
0.39436
0.39374
0.39145
0.37257
0.37402
0.37455
0.37506
0.37516
0.37485
0.37448
0.37321
0.3915
0.39386
0.39452
0.39516
0.3951
0.39437
0.39361
0.39116
0.3733
0.37475
0.3752
0.37554
0.37541
0.37483
0.37419
0.37262
0.3911
0.39343
0.3941
0.39475
0.39473
0.39404
0.39334
0.39097
0.37252
0.37385
0.37429
0.37468
0.37467
0.37426
0.37379
0.37242
)
;
    }
}


// ************************************************************************* //
