/*--------------------------------*- C++ -*----------------------------------*\
| =========                 |                                                 |
| \\      /  F ield         | foam-extend: Open Source CFD                    |
|  \\    /   O peration     | Version:     4.1-20200408                       |
|   \\  /    A nd           | Web:         http://www.foam-extend.org         |
|    \\/     M anipulation  |                                                 |
\*---------------------------------------------------------------------------*/
FoamFile
{
    version     2.0;
    format      ascii;
    class       volScalarField;
    location    "0.0035000";
    object      ccy;
}
// * * * * * * * * * * * * * * * * * * * * * * * * * * * * * * * * * * * * * //

dimensions      [0 1 0 0 0 0 0];

internalField   nonuniform List<scalar> 
1952
(
7.27075e-05
7.2726e-05
7.27432e-05
7.27588e-05
7.27726e-05
7.27843e-05
7.27939e-05
7.28017e-05
7.28079e-05
7.28123e-05
7.28155e-05
7.28175e-05
7.28188e-05
7.28189e-05
7.282e-05
7.28188e-05
7.28173e-05
7.28178e-05
7.2816e-05
7.28148e-05
7.28137e-05
7.28125e-05
7.28106e-05
7.28103e-05
7.28099e-05
7.28082e-05
7.28072e-05
7.28055e-05
7.28054e-05
7.28045e-05
7.28044e-05
7.28029e-05
7.28021e-05
7.28006e-05
7.28014e-05
7.27999e-05
7.27985e-05
7.27993e-05
7.27979e-05
7.27973e-05
7.2796e-05
7.27963e-05
7.27959e-05
7.27956e-05
7.27963e-05
7.27956e-05
7.27951e-05
7.27971e-05
7.27972e-05
7.27983e-05
7.27998e-05
7.28017e-05
7.28038e-05
0.00011841
0.00011844
0.000118468
0.000118494
0.000118516
0.000118535
0.000118551
0.000118563
0.000118573
0.00011858
0.000118585
0.000118588
0.00011859
0.000118591
0.000118591
0.00011859
0.00011859
0.000118587
0.000118586
0.000118584
0.000118583
0.00011858
0.000118579
0.000118577
0.000118574
0.000118574
0.000118571
0.000118571
0.000118569
0.000118567
0.000118565
0.000118565
0.000118563
0.000118563
0.000118561
0.00011856
0.000118559
0.000118557
0.000118557
0.000118555
0.000118555
0.000118554
0.000118553
0.000118553
0.000118552
0.000118554
0.000118553
0.000118554
0.000118555
0.000118558
0.000118559
0.000118563
0.000118566
0.000164707
0.000164749
0.000164788
0.000164824
0.000164855
0.000164881
0.000164902
0.00016492
0.000164933
0.000164943
0.00016495
0.000164954
0.000164957
0.000164958
0.000164957
0.000164956
0.000164955
0.000164953
0.00016495
0.000164947
0.000164945
0.000164943
0.000164939
0.000164938
0.000164935
0.000164932
0.000164931
0.000164928
0.000164926
0.000164925
0.000164923
0.00016492
0.00016492
0.000164918
0.000164916
0.000164914
0.000164913
0.000164911
0.000164909
0.000164909
0.000164907
0.000164905
0.000164905
0.000164905
0.000164904
0.000164904
0.000164905
0.000164906
0.000164908
0.00016491
0.000164914
0.000164918
0.000164924
0.000211202
0.000211257
0.000211307
0.000211353
0.000211392
0.000211426
0.000211453
0.000211475
0.000211492
0.000211504
0.000211512
0.000211517
0.00021152
0.000211521
0.000211522
0.00021152
0.000211517
0.000211516
0.000211512
0.000211509
0.000211505
0.000211502
0.0002115
0.000211495
0.000211493
0.000211491
0.000211486
0.000211484
0.000211482
0.00021148
0.000211478
0.000211475
0.000211472
0.000211471
0.000211469
0.000211467
0.000211465
0.000211463
0.000211461
0.000211458
0.000211458
0.000211457
0.000211455
0.000211453
0.000211454
0.000211454
0.000211455
0.000211455
0.000211459
0.000211461
0.000211466
0.00021147
0.000211478
0.000257789
0.000257856
0.000257918
0.000257974
0.000258022
0.000258062
0.000258095
0.000258121
0.000258141
0.000258155
0.000258165
0.000258171
0.000258174
0.000258176
0.000258174
0.000258173
0.000258171
0.000258167
0.000258163
0.000258159
0.000258155
0.000258152
0.000258148
0.000258144
0.00025814
0.000258137
0.000258134
0.000258131
0.000258128
0.000258125
0.000258121
0.000258119
0.000258117
0.000258114
0.000258111
0.000258109
0.000258107
0.000258105
0.000258101
0.000258101
0.000258097
0.000258096
0.000258095
0.000258094
0.000258093
0.000258093
0.000258094
0.000258096
0.000258099
0.000258102
0.000258107
0.000258114
0.000258122
0.000304426
0.000304506
0.000304579
0.000304645
0.000304702
0.000304748
0.000304787
0.000304816
0.000304839
0.000304855
0.000304866
0.000304873
0.000304877
0.000304878
0.000304877
0.000304875
0.00030487
0.000304867
0.000304864
0.000304857
0.000304854
0.000304849
0.000304845
0.000304841
0.000304837
0.000304831
0.000304828
0.000304825
0.000304822
0.000304818
0.000304815
0.000304813
0.000304808
0.000304806
0.000304803
0.0003048
0.000304797
0.000304794
0.000304792
0.000304789
0.000304787
0.000304785
0.000304783
0.000304782
0.000304781
0.000304781
0.000304782
0.000304784
0.000304787
0.000304791
0.000304797
0.000304805
0.000304815
0.000351094
0.000351188
0.000351273
0.000351348
0.000351413
0.000351466
0.000351509
0.000351542
0.000351567
0.000351584
0.000351596
0.000351603
0.000351607
0.000351607
0.000351607
0.000351604
0.000351601
0.000351596
0.00035159
0.000351586
0.000351581
0.000351576
0.000351571
0.000351566
0.000351561
0.000351556
0.000351552
0.000351548
0.000351545
0.000351541
0.000351537
0.000351534
0.00035153
0.000351526
0.000351523
0.00035152
0.000351517
0.000351514
0.000351511
0.000351508
0.000351505
0.000351503
0.000351501
0.000351499
0.000351498
0.000351498
0.000351498
0.000351502
0.000351503
0.00035151
0.000351515
0.000351526
0.000351536
0.000397784
0.000397891
0.000397988
0.000398073
0.000398146
0.000398205
0.000398252
0.000398288
0.000398314
0.000398333
0.000398345
0.000398353
0.000398356
0.000398357
0.000398354
0.000398352
0.000398348
0.000398342
0.000398338
0.000398331
0.000398326
0.00039832
0.000398316
0.00039831
0.000398305
0.000398299
0.000398295
0.000398291
0.000398286
0.000398282
0.000398278
0.000398274
0.00039827
0.000398266
0.000398263
0.00039826
0.000398256
0.000398252
0.000398249
0.000398246
0.000398243
0.00039824
0.000398238
0.000398236
0.000398235
0.000398234
0.000398235
0.000398236
0.000398241
0.000398245
0.000398254
0.000398263
0.000398277
0.00044449
0.000444611
0.000444719
0.000444814
0.000444894
0.000444958
0.000445009
0.000445047
0.000445075
0.000445094
0.000445106
0.000445114
0.000445117
0.000445117
0.000445116
0.000445111
0.000445107
0.000445101
0.000445096
0.00044509
0.000445083
0.000445077
0.000445071
0.000445067
0.00044506
0.000445056
0.00044505
0.000445046
0.000445041
0.000445036
0.000445032
0.000445028
0.000445023
0.000445019
0.000445015
0.000445012
0.000445008
0.000445004
0.000445
0.000444996
0.000444994
0.00044499
0.000444987
0.000444985
0.000444984
0.000444983
0.000444984
0.000444986
0.000444989
0.000444995
0.000445003
0.000445014
0.000445029
0.000491208
0.000491342
0.000491463
0.000491567
0.000491654
0.000491723
0.000491776
0.000491815
0.000491844
0.000491864
0.000491876
0.000491883
0.000491886
0.000491886
0.000491883
0.00049188
0.000491874
0.000491868
0.000491862
0.000491856
0.00049185
0.000491843
0.000491837
0.000491831
0.000491825
0.00049182
0.000491814
0.000491809
0.000491804
0.000491799
0.000491795
0.00049179
0.000491786
0.000491781
0.000491777
0.000491773
0.000491768
0.000491764
0.00049176
0.000491757
0.000491753
0.000491749
0.000491747
0.000491744
0.000491741
0.000491741
0.000491742
0.000491743
0.000491747
0.000491753
0.000491762
0.000491774
0.00049179
0.000537936
0.000538085
0.000538217
0.00053833
0.000538423
0.000538495
0.000538551
0.000538591
0.00053862
0.000538639
0.000538651
0.000538658
0.000538661
0.00053866
0.000538658
0.000538653
0.000538648
0.000538642
0.000538635
0.000538628
0.000538621
0.000538615
0.00053861
0.000538602
0.000538597
0.000538591
0.000538585
0.00053858
0.000538575
0.00053857
0.000538565
0.00053856
0.000538555
0.00053855
0.000538546
0.00053854
0.000538536
0.000538532
0.000538529
0.000538524
0.000538519
0.000538517
0.000538512
0.00053851
0.000538509
0.000538507
0.000538506
0.000538508
0.000538512
0.000538518
0.000538527
0.00053854
0.000538558
0.000584673
0.000584835
0.000584979
0.000585101
0.000585199
0.000585274
0.00058533
0.000585371
0.000585399
0.000585418
0.00058543
0.000585437
0.000585439
0.000585438
0.000585435
0.00058543
0.000585426
0.000585419
0.000585412
0.000585406
0.000585399
0.000585393
0.000585385
0.00058538
0.000585373
0.000585367
0.00058536
0.000585355
0.000585351
0.000585345
0.000585339
0.000585333
0.00058533
0.000585324
0.000585318
0.000585315
0.00058531
0.000585305
0.0005853
0.000585296
0.000585292
0.000585287
0.000585285
0.00058528
0.000585279
0.000585277
0.000585277
0.000585278
0.000585282
0.000585288
0.000585296
0.000585311
0.000585329
0.000631416
0.000631592
0.000631748
0.000631878
0.000631981
0.000632057
0.000632113
0.000632153
0.000632181
0.0006322
0.000632212
0.000632218
0.00063222
0.00063222
0.000632216
0.000632211
0.000632206
0.0006322
0.000632193
0.000632187
0.000632179
0.000632172
0.000632167
0.00063216
0.000632152
0.000632147
0.000632141
0.000632135
0.000632128
0.000632124
0.000632119
0.000632112
0.000632107
0.000632101
0.000632098
0.000632092
0.000632087
0.000632082
0.000632077
0.000632072
0.000632067
0.000632065
0.000632059
0.000632058
0.000632053
0.000632052
0.000632052
0.000632052
0.000632056
0.000632062
0.000632071
0.000632084
0.000632105
0.000678163
0.000678352
0.000678519
0.000678657
0.000678764
0.000678841
0.000678896
0.000678936
0.000678964
0.000678982
0.000678994
0.000679
0.000679002
0.000679001
0.000679
0.000678994
0.000678989
0.000678983
0.000678978
0.000678969
0.000678964
0.000678956
0.000678949
0.000678942
0.000678937
0.00067893
0.000678923
0.000678917
0.000678912
0.000678906
0.000678899
0.000678895
0.000678888
0.000678884
0.000678878
0.000678872
0.000678867
0.000678862
0.000678857
0.000678852
0.000678849
0.000678843
0.000678839
0.000678836
0.000678833
0.000678831
0.000678829
0.000678831
0.000678833
0.000678839
0.000678847
0.00067886
0.000678883
0.000724913
0.000725114
0.000725291
0.000725437
0.000725547
0.000725624
0.000725678
0.000725718
0.000725746
0.000725764
0.000725776
0.000725783
0.000725786
0.000725786
0.000725783
0.00072578
0.000725774
0.00072577
0.000725762
0.000725757
0.000725748
0.000725743
0.000725735
0.000725729
0.000725722
0.000725715
0.000725709
0.000725703
0.000725697
0.000725691
0.000725685
0.000725678
0.000725674
0.000725667
0.000725662
0.000725657
0.000725651
0.000725645
0.00072564
0.000725635
0.000725629
0.000725626
0.000725622
0.000725617
0.000725615
0.000725612
0.000725611
0.000725612
0.000725613
0.000725619
0.000725628
0.00072564
0.000725662
3.11603e-05
3.11682e-05
3.11755e-05
3.11823e-05
3.11882e-05
3.11932e-05
3.11973e-05
3.12007e-05
3.12033e-05
3.12052e-05
3.12066e-05
3.12075e-05
3.12081e-05
3.12083e-05
3.12077e-05
3.12081e-05
3.12083e-05
3.12073e-05
3.12068e-05
3.12064e-05
3.12059e-05
3.12054e-05
3.12049e-05
3.12044e-05
3.12039e-05
3.12035e-05
3.12031e-05
3.12027e-05
3.12023e-05
3.12019e-05
3.12016e-05
3.12012e-05
3.12009e-05
3.12006e-05
3.11997e-05
3.11999e-05
3.12002e-05
3.11994e-05
3.11991e-05
3.11988e-05
3.11986e-05
3.11984e-05
3.11982e-05
3.11981e-05
3.11981e-05
3.11981e-05
3.11982e-05
3.11984e-05
3.11988e-05
3.11993e-05
3.11999e-05
3.12007e-05
3.12016e-05
7.2688e-05
0.000118378
0.000164662
0.000211144
0.000257718
0.00030434
0.000350994
0.00039767
0.000444359
0.000491061
0.000537774
0.000584494
0.000631222
0.000677955
0.000724693
3.11519e-05
7.26677e-05
0.000118345
0.000164615
0.000211084
0.000257642
0.000304251
0.000350889
0.000397547
0.00044422
0.000490905
0.000537598
0.0005843
0.000631009
0.000677725
0.000724446
3.11433e-05
7.26473e-05
0.000118311
0.000164569
0.000211023
0.000257568
0.000304161
0.000350783
0.000397424
0.000444079
0.000490745
0.000537418
0.000584099
0.000630788
0.000677484
0.000724187
3.11346e-05
7.26283e-05
0.00011828
0.000164525
0.000210966
0.000257497
0.000304075
0.000350682
0.000397308
0.000443945
0.000490591
0.000537245
0.000583905
0.000630572
0.000677246
0.000723929
3.11264e-05
7.26111e-05
0.000118252
0.000164485
0.000210915
0.000257433
0.000303999
0.000350592
0.000397202
0.000443823
0.000490452
0.000537088
0.000583728
0.000630373
0.000677026
0.000723687
3.11191e-05
7.25965e-05
0.000118228
0.000164451
0.000210871
0.000257379
0.000303934
0.000350515
0.000397113
0.000443721
0.000490337
0.000536956
0.00058358
0.000630207
0.000676839
0.00072348
3.11129e-05
7.2585e-05
0.000118209
0.000164425
0.000210837
0.000257337
0.000303884
0.000350457
0.000397046
0.000443645
0.00049025
0.00053686
0.000583472
0.000630087
0.000676706
0.000723333
3.1108e-05
7.25769e-05
0.000118196
0.000164407
0.000210814
0.000257308
0.00030385
0.000350418
0.000397002
0.000443597
0.000490198
0.000536803
0.000583411
0.000630023
0.000676641
0.000723266
3.11045e-05
7.25724e-05
0.000118189
0.000164397
0.000210801
0.000257294
0.000303833
0.000350399
0.000396982
0.000443576
0.000490178
0.000536784
0.000583396
0.000630013
0.000676637
0.000723271
3.11025e-05
7.25714e-05
0.000118187
0.000164395
0.000210799
0.000257292
0.000303832
0.000350399
0.000396985
0.000443582
0.000490188
0.0005368
0.000583419
0.000630045
0.000676679
0.000723323
3.11021e-05
7.25735e-05
0.000118191
0.000164401
0.000210806
0.000257302
0.000303845
0.000350417
0.000397007
0.00044361
0.000490222
0.000536843
0.000583472
0.000630108
0.000676754
0.000723408
3.11029e-05
7.25785e-05
0.000118199
0.000164412
0.000210823
0.000257322
0.000303871
0.000350448
0.000397045
0.000443655
0.000490277
0.000536907
0.000583547
0.000630194
0.000676851
0.000723516
3.11052e-05
7.2586e-05
0.000118212
0.00016443
0.000210846
0.000257352
0.000303906
0.000350491
0.000397096
0.000443715
0.000490346
0.000536987
0.000583637
0.000630295
0.000676962
0.000723635
3.11083e-05
7.25954e-05
0.000118227
0.000164452
0.000210874
0.000257387
0.00030395
0.000350542
0.000397155
0.000443784
0.000490425
0.000537076
0.000583736
0.000630404
0.00067708
0.000723762
3.11123e-05
7.26062e-05
0.000118245
0.000164477
0.000210907
0.000257428
0.000303998
0.000350599
0.000397222
0.000443859
0.00049051
0.00053717
0.00058384
0.000630517
0.000677202
0.000723892
3.1117e-05
7.26181e-05
0.000118264
0.000164504
0.000210942
0.000257471
0.00030405
0.00035066
0.000397291
0.000443938
0.000490598
0.000537267
0.000583946
0.000630632
0.000677324
0.00072402
3.1122e-05
7.26305e-05
0.000118284
0.000164532
0.000210978
0.000257516
0.000304103
0.000350722
0.000397362
0.000444018
0.000490686
0.000537364
0.000584051
0.000630745
0.000677444
0.000724147
3.11274e-05
7.26433e-05
0.000118305
0.000164561
0.000211015
0.000257561
0.000304158
0.000350785
0.000397433
0.000444097
0.000490773
0.000537459
0.000584154
0.000630854
0.00067756
0.000724269
3.11328e-05
7.26562e-05
0.000118326
0.00016459
0.000211053
0.000257607
0.000304211
0.000350846
0.000397503
0.000444175
0.000490859
0.000537552
0.000584253
0.00063096
0.000677672
0.000724386
3.11383e-05
7.26687e-05
0.000118347
0.000164619
0.00021109
0.000257652
0.000304264
0.000350906
0.000397571
0.000444251
0.000490941
0.000537641
0.000584349
0.000631062
0.00067778
0.000724499
3.11438e-05
7.268e-05
0.000118365
0.000164644
0.000211122
0.000257691
0.00030431
0.000350959
0.000397631
0.000444316
0.000491013
0.000537719
0.000584432
0.00063115
0.000677873
0.000724597
3.11485e-05
7.269e-05
0.000118382
0.000164667
0.000211151
0.000257726
0.000304351
0.000351007
0.000397684
0.000444376
0.000491078
0.00053779
0.000584507
0.00063123
0.000677957
0.000724686
3.11529e-05
7.27005e-05
0.000118398
0.00016469
0.000211181
0.000257763
0.000304394
0.000351056
0.000397739
0.000444436
0.000491144
0.000537861
0.000584584
0.000631311
0.000678043
0.000724776
3.11574e-05
7.27105e-05
0.000118415
0.000164713
0.00021121
0.000257797
0.000304435
0.000351103
0.000397791
0.000444493
0.000491207
0.000537928
0.000584656
0.000631388
0.000678123
0.000724861
3.11616e-05
7.27197e-05
0.000118429
0.000164734
0.000211236
0.00025783
0.000304473
0.000351146
0.000397839
0.000444547
0.000491264
0.000537991
0.000584722
0.000631459
0.000678199
0.00072494
3.11656e-05
7.27283e-05
0.000118443
0.000164753
0.000211261
0.00025786
0.000304508
0.000351186
0.000397884
0.000444596
0.000491318
0.000538048
0.000584784
0.000631525
0.000678269
0.000725014
3.11693e-05
7.27361e-05
0.000118457
0.000164771
0.000211284
0.000257888
0.00030454
0.000351223
0.000397926
0.000444642
0.000491368
0.000538103
0.000584842
0.000631587
0.000678334
0.000725083
3.11729e-05
7.27437e-05
0.000118469
0.000164788
0.000211305
0.000257912
0.00030457
0.000351258
0.000397964
0.000444684
0.000491415
0.000538152
0.000584897
0.000631643
0.000678395
0.000725147
3.11759e-05
7.27513e-05
0.00011848
0.000164803
0.000211325
0.000257937
0.000304598
0.000351289
0.000398
0.000444724
0.000491456
0.000538199
0.000584946
0.000631698
0.00067845
0.000725207
3.11783e-05
7.27561e-05
0.00011849
0.000164817
0.000211343
0.00025796
0.000304624
0.000351318
0.000398032
0.00044476
0.000491498
0.000538241
0.000584992
0.000631747
0.000678505
0.000725263
3.11821e-05
7.27627e-05
0.000118499
0.000164831
0.00021136
0.000257978
0.000304647
0.000351346
0.000398063
0.000444794
0.000491533
0.000538283
0.000585036
0.000631793
0.000678553
0.000725315
3.11841e-05
7.27681e-05
0.000118508
0.000164842
0.000211375
0.000257999
0.00030467
0.000351371
0.000398092
0.000444824
0.000491569
0.000538319
0.000585075
0.000631836
0.000678599
0.000725365
3.11864e-05
7.27739e-05
0.000118516
0.000164855
0.000211389
0.000258015
0.00030469
0.000351394
0.000398118
0.000444854
0.000491601
0.000538354
0.000585113
0.000631877
0.000678642
0.000725409
3.11886e-05
7.27778e-05
0.000118524
0.000164863
0.000211403
0.000258031
0.000304709
0.000351417
0.000398142
0.000444882
0.00049163
0.000538387
0.000585148
0.000631914
0.000678682
0.000725453
3.119e-05
7.27821e-05
0.00011853
0.000164875
0.000211415
0.000258046
0.000304727
0.000351436
0.000398166
0.000444907
0.000491659
0.000538417
0.000585181
0.000631949
0.000678721
0.000725492
3.1193e-05
7.27854e-05
0.000118538
0.000164883
0.000211427
0.000258061
0.000304743
0.000351456
0.000398187
0.000444931
0.000491686
0.000538445
0.000585213
0.000631982
0.000678755
0.000725531
3.11942e-05
7.27907e-05
0.000118544
0.000164891
0.000211439
0.000258074
0.000304758
0.000351474
0.000398207
0.000444953
0.000491709
0.000538473
0.000585241
0.000632013
0.000678789
0.000725567
3.11958e-05
7.27935e-05
0.000118549
0.0001649
0.000211447
0.000258087
0.000304774
0.00035149
0.000398226
0.000444975
0.000491733
0.000538498
0.000585268
0.000632044
0.000678821
0.000725601
3.11973e-05
7.27969e-05
0.000118555
0.000164907
0.000211458
0.000258098
0.000304788
0.000351506
0.000398244
0.000444996
0.000491755
0.000538522
0.000585295
0.000632071
0.000678851
0.000725633
3.11988e-05
7.27993e-05
0.000118561
0.000164914
0.000211467
0.00025811
0.000304801
0.000351522
0.000398262
0.000445013
0.000491777
0.000538545
0.000585319
0.000632097
0.00067888
0.000725662
3.12001e-05
7.2803e-05
0.000118564
0.000164922
0.000211475
0.00025812
0.000304814
0.000351536
0.000398277
0.000445033
0.000491795
0.000538567
0.000585343
0.000632123
0.000678907
0.000725692
3.12014e-05
7.28059e-05
0.00011857
0.000164928
0.000211483
0.000258131
0.000304825
0.000351549
0.000398293
0.000445049
0.000491814
0.000538588
0.000585364
0.000632148
0.000678932
0.00072572
3.12026e-05
7.28093e-05
0.000118573
0.000164934
0.000211493
0.000258139
0.000304837
0.000351562
0.000398307
0.000445065
0.000491832
0.000538607
0.000585387
0.000632169
0.000678958
0.000725746
3.12038e-05
7.28112e-05
0.000118578
0.00016494
0.000211499
0.00025815
0.000304846
0.000351575
0.000398321
0.000445081
0.000491851
0.000538626
0.000585407
0.000632192
0.000678981
0.000725771
3.12049e-05
7.28137e-05
0.000118582
0.000164945
0.000211506
0.000258158
0.000304857
0.000351587
0.000398335
0.000445096
0.000491866
0.000538644
0.000585426
0.000632213
0.000679003
0.000725794
3.1206e-05
7.2816e-05
0.000118586
0.000164951
0.000211513
0.000258166
0.000304868
0.000351597
0.000398348
0.00044511
0.000491882
0.000538661
0.000585445
0.000632234
0.000679025
0.000725817
3.1207e-05
7.28176e-05
0.00011859
0.000164956
0.00021152
0.000258174
0.000304876
0.00035161
0.00039836
0.000445125
0.000491897
0.000538677
0.000585463
0.000632252
0.000679045
0.000725839
3.1208e-05
7.28213e-05
0.000118593
0.000164962
0.000211526
0.000258182
0.000304886
0.00035162
0.000398372
0.000445137
0.000491912
0.000538693
0.00058548
0.000632271
0.000679066
0.000725861
3.12089e-05
7.28219e-05
0.000118598
0.000164965
0.000211532
0.000258189
0.000304895
0.00035163
0.000398383
0.00044515
0.000491926
0.000538709
0.000585498
0.000632289
0.000679084
0.000725881
3.12098e-05
7.28255e-05
0.000118599
0.000164971
0.000211538
0.000258196
0.000304903
0.000351639
0.000398395
0.000445161
0.00049194
0.000538723
0.000585513
0.000632306
0.000679103
0.000725901
3.12107e-05
7.28267e-05
0.000118603
0.000164974
0.000211544
0.000258204
0.000304912
0.000351649
0.000398404
0.000445175
0.000491952
0.000538738
0.000585528
0.000632323
0.00067912
0.000725919
3.12116e-05
7.28287e-05
0.000118606
0.000164979
0.00021155
0.000258211
0.00030492
0.000351658
0.000398416
0.000445185
0.000491964
0.000538752
0.000585543
0.00063234
0.000679137
0.000725937
3.12124e-05
7.28305e-05
0.000118609
0.000164983
0.000211555
0.000258217
0.000304927
0.000351667
0.000398426
0.000445197
0.000491978
0.000538764
0.000585558
0.000632354
0.000679154
0.000725955
3.12132e-05
7.28323e-05
0.000118612
0.000164987
0.00021156
0.000258223
0.000304935
0.000351675
0.000398435
0.000445207
0.000491989
0.000538778
0.00058557
0.000632369
0.000679171
0.000725971
3.1214e-05
7.2834e-05
0.000118616
0.000164991
0.000211566
0.000258229
0.000304942
0.000351684
0.000398444
0.000445217
0.000492
0.00053879
0.000585585
0.000632383
0.000679184
0.000725989
3.12142e-05
7.28357e-05
0.000118617
0.000164996
0.00021157
0.000258236
0.000304949
0.000351692
0.000398453
0.000445227
0.000492011
0.000538802
0.000585597
0.000632397
0.0006792
0.000726003
3.1216e-05
7.28373e-05
0.000118621
0.000164999
0.000211575
0.00025824
0.000304956
0.000351699
0.000398462
0.000445237
0.000492022
0.000538813
0.00058561
0.00063241
0.000679214
0.000726019
3.12161e-05
7.2838e-05
0.000118623
0.000165002
0.000211579
0.000258247
0.000304961
0.000351707
0.00039847
0.000445246
0.000492032
0.000538824
0.000585622
0.000632423
0.000679227
0.000726033
3.12168e-05
7.2841e-05
0.000118625
0.000165005
0.000211584
0.00025825
0.000304968
0.000351712
0.000398478
0.000445256
0.000492041
0.000538835
0.000585633
0.000632435
0.00067924
0.000726047
3.12174e-05
7.28415e-05
0.000118628
0.000165007
0.000211587
0.000258257
0.000304972
0.00035172
0.000398486
0.000445262
0.000492051
0.000538844
0.000585643
0.000632447
0.000679252
0.000726059
3.12179e-05
7.28428e-05
0.000118629
0.000165011
0.00021159
0.00025826
0.000304978
0.000351726
0.000398491
0.000445272
0.000492058
0.000538854
0.000585654
0.000632457
0.000679264
0.000726072
3.12185e-05
7.28439e-05
0.000118631
0.000165013
0.000211594
0.000258264
0.000304983
0.000351731
0.000398499
0.000445277
0.000492066
0.000538863
0.000585662
0.000632468
0.000679275
0.000726083
3.1219e-05
7.28449e-05
0.000118632
0.000165016
0.000211596
0.000258268
0.000304987
0.000351736
0.000398503
0.000445284
0.000492074
0.000538869
0.000585672
0.000632476
0.000679285
0.000726094
3.12194e-05
7.28458e-05
0.000118635
0.000165017
0.000211599
0.000258271
0.00030499
0.00035174
0.000398508
0.000445289
0.000492079
0.000538877
0.000585677
0.000632485
0.000679292
0.000726104
3.12198e-05
7.28464e-05
0.000118636
0.000165019
0.000211601
0.000258273
0.000304993
0.000351743
0.000398512
0.000445294
0.000492083
0.000538881
0.000585684
0.00063249
0.000679301
0.000726111
3.122e-05
7.28469e-05
0.000118636
0.00016502
0.000211603
0.000258275
0.000304996
0.000351746
0.000398515
0.000445296
0.000492088
0.000538884
0.000585688
0.000632496
0.000679305
0.000726116
3.12202e-05
7.28473e-05
0.000118637
0.000165021
0.000211603
0.000258276
0.000304998
0.000351747
0.000398517
0.000445298
0.000492089
0.000538888
0.00058569
0.000632498
0.000679308
0.000726121
3.12204e-05
7.28474e-05
0.000118637
0.000165022
0.000211605
0.000258277
0.000304998
0.000351748
0.000398517
0.000445299
0.00049209
0.000538889
0.000585692
0.000632499
0.000679309
0.000726121
3.12205e-05
7.28475e-05
0.000118637
0.000165022
0.000211604
0.000258277
0.000304998
0.000351748
0.000398518
0.0004453
0.000492091
0.000538889
0.000585692
0.000632499
0.00067931
0.000726122
3.12205e-05
)
;

boundaryField
{
    wireUpstream
    {
        type            calculated;
        value           nonuniform List<scalar> 
16
(
7.28475e-05
0.000118637
0.000165022
0.000211604
0.000258277
0.000304998
0.000351748
0.000398518
0.0004453
0.000492091
0.000538889
0.000585692
0.000632499
0.00067931
0.000726122
3.12205e-05
)
;
    }
    wireDownstream
    {
        type            calculated;
        value           nonuniform List<scalar> 
16
(
7.2805e-05
0.000118568
0.000164926
0.000211481
0.000258126
0.000304819
0.000351541
0.000398282
0.000445035
0.000491797
0.000538565
0.000585338
0.000632114
0.000678891
0.000725671
3.12021e-05
)
;
    }
    wireTopContact
    {
        type            calculated;
        value           nonuniform List<scalar> 
122
(
0.00074825
0.000748432
0.000748581
0.000748692
0.00074877
0.000748825
0.000748864
0.000748893
0.000748912
0.000748924
0.000748932
0.000748935
0.000748934
0.000748933
0.000748929
0.000748925
0.000748919
0.000748913
0.000748906
0.0007489
0.000748893
0.000748886
0.000748879
0.000748872
0.000748866
0.000748859
0.000748853
0.000748846
0.00074884
0.000748834
0.000748828
0.000748822
0.000748817
0.000748811
0.000748805
0.0007488
0.000748794
0.000748789
0.000748784
0.000748779
0.000748774
0.00074877
0.000748766
0.000748763
0.000748761
0.000748759
0.00074876
0.000748762
0.000748767
0.000748775
0.000748788
0.000748044
0.000747817
0.000747564
0.000747297
0.000747031
0.00074678
0.000746564
0.000746411
0.000746344
0.000746351
0.000746407
0.000746497
0.000746608
0.000746731
0.000746862
0.000746994
0.000747126
0.000747255
0.00074738
0.0007475
0.000747616
0.000747716
0.000747807
0.000747899
0.000747986
0.000748068
0.000748144
0.000748214
0.00074828
0.000748342
0.000748399
0.000748453
0.000748503
0.00074855
0.000748595
0.000748636
0.000748675
0.000748712
0.000748747
0.00074878
0.000748811
0.000748841
0.000748869
0.000748897
0.000748923
0.000748947
0.000748971
0.000748993
0.000749015
0.000749036
0.000749056
0.000749076
0.000749094
0.000749112
0.00074913
0.000749146
0.000749162
0.000749178
0.000749193
0.000749207
0.00074922
0.000749232
0.000749244
0.000749255
0.000749265
0.000749273
0.000749279
0.000749282
0.000749283
0.000749284
0.000748807
)
;
    }
    front
    {
        type            wedge;
    }
    back
    {
        type            wedge;
    }
}


// ************************************************************************* //
