/*--------------------------------*- C++ -*----------------------------------*\
| =========                 |                                                 |
| \\      /  F ield         | foam-extend: Open Source CFD                    |
|  \\    /   O peration     | Version:     4.1-20200408                       |
|   \\  /    A nd           | Web:         http://www.foam-extend.org         |
|    \\/     M anipulation  |                                                 |
\*---------------------------------------------------------------------------*/
FoamFile
{
    version     2.0;
    format      ascii;
    class       volSymmTensorField;
    location    "0.0515000";
    object      bEbar;
}
// * * * * * * * * * * * * * * * * * * * * * * * * * * * * * * * * * * * * * //

dimensions      [0 0 0 0 0 0 0];

internalField   nonuniform List<symmTensor> 
1952
(
(0.996208 2.59909e-06 -5.9778e-11 1.00188 -1.3723e-11 1.00192)
(0.996362 -5.80971e-06 -4.17544e-11 1.00175 3.87103e-11 1.0019)
(0.996521 2.42324e-06 4.32382e-11 1.00162 1.05726e-10 1.00187)
(0.996799 -6.06072e-06 1.25614e-10 1.0014 -1.05145e-10 1.00181)
(0.997092 2.67662e-06 -3.94181e-11 1.00116 -2.69266e-10 1.00175)
(0.997466 -4.78252e-06 -1.97186e-10 1.00085 2.75464e-11 1.00169)
(0.997922 2.72137e-06 -4.50079e-11 1.00051 4.02409e-10 1.00157)
(0.998553 -7.76101e-07 1.11065e-10 1.00005 -2.08637e-11 1.0014)
(0.999337 5.09723e-06 -2.14053e-11 0.999538 -4.34978e-10 1.00113)
(1.00047 6.78862e-06 -1.3654e-10 0.998783 2.13642e-10 1.00074)
(1.00189 1.23192e-05 -1.96679e-12 0.997948 4.81338e-10 1.00017)
(1.00384 1.78238e-05 9.54928e-11 0.996652 -2.07712e-10 0.999523)
(1.00632 2.38192e-05 -1.15894e-11 0.995255 -4.52697e-10 0.998461)
(1.00908 3.90534e-05 -1.28613e-10 0.993231 1.72977e-10 0.997751)
(1.01033 5.27118e-05 -3.35374e-11 0.992164 1.5508e-10 0.997588)
(0.996194 -2.65546e-06 -1.43279e-11 1.0019 5.95052e-11 1.00192)
(0.996197 6.23549e-06 -1.1964e-10 1.00188 -1.40048e-11 1.00193)
(0.996352 -1.03627e-05 -8.35565e-11 1.00175 3.86514e-11 1.00191)
(0.996511 7.33444e-06 8.65449e-11 1.00163 1.06641e-10 1.00187)
(0.996789 -9.37151e-06 2.51411e-10 1.0014 -1.04466e-10 1.00182)
(0.997081 9.66204e-06 -7.88691e-11 1.00117 -2.71084e-10 1.00176)
(0.997455 -5.05791e-06 -3.94394e-10 1.00086 2.56721e-11 1.00169)
(0.997911 1.15206e-05 -9.01105e-11 1.00052 4.0422e-10 1.00158)
(0.998543 5.16477e-06 2.21948e-10 1.00006 -1.93441e-11 1.0014)
(0.999329 1.83641e-05 -4.28165e-11 0.999542 -4.36958e-10 1.00113)
(1.00047 2.28918e-05 -2.72889e-10 0.998785 2.13035e-10 1.00075)
(1.00188 3.48479e-05 -3.6967e-12 0.997949 4.83271e-10 1.00017)
(1.00384 4.54922e-05 1.9011e-10 0.99665 -2.0782e-10 0.999527)
(1.00632 5.41105e-05 -2.3161e-11 0.995249 -4.5478e-10 0.998464)
(1.0091 7.43701e-05 -2.55072e-10 0.993217 1.73309e-10 0.997755)
(1.01035 7.55817e-05 -6.55499e-11 0.992141 1.55851e-10 0.997593)
(0.996183 -5.02647e-06 -2.86853e-11 1.00191 5.99057e-11 1.00192)
(0.99619 7.15136e-06 -1.19713e-10 1.00189 -1.40791e-11 1.00193)
(0.996345 -9.53016e-06 -8.35658e-11 1.00176 3.87615e-11 1.00191)
(0.996504 9.41975e-06 8.66035e-11 1.00163 1.07056e-10 1.00188)
(0.996784 -7.32419e-06 2.51409e-10 1.0014 -1.04703e-10 1.00182)
(0.997075 1.32892e-05 -7.89125e-11 1.00117 -2.72091e-10 1.00176)
(0.997449 -1.47092e-06 -3.94139e-10 1.00086 2.56033e-11 1.00169)
(0.997906 1.65183e-05 -9.03442e-11 1.00052 4.05488e-10 1.00158)
(0.998539 1.05548e-05 2.21288e-10 1.00006 -1.92766e-11 1.00141)
(0.999327 2.4831e-05 -4.28402e-11 0.999542 -4.37993e-10 1.00113)
(1.00047 3.02095e-05 -2.72325e-10 0.998783 2.13533e-10 1.00075)
(1.00188 4.24554e-05 -3.35247e-12 0.997946 4.84374e-10 1.00018)
(1.00384 5.29044e-05 1.89232e-10 0.996645 -2.08197e-10 0.999531)
(1.00632 6.02961e-05 -2.31528e-11 0.995242 -4.5587e-10 0.998467)
(1.0091 7.9321e-05 -2.5462e-10 0.993209 1.73487e-10 0.99776)
(1.01035 7.69953e-05 -6.54987e-11 0.992137 1.56217e-10 0.997602)
(0.996177 -4.91497e-06 -2.87097e-11 1.00191 6.0166e-11 1.00192)
(0.996185 8.11683e-06 -1.19782e-10 1.00189 -1.41199e-11 1.00194)
(0.99634 -8.45537e-06 -8.35776e-11 1.00176 3.89007e-11 1.00191)
(0.9965 1.15418e-05 8.66553e-11 1.00163 1.07363e-10 1.00188)
(0.99678 -5.07176e-06 2.51375e-10 1.00141 -1.05085e-10 1.00182)
(0.997071 1.65531e-05 -7.8959e-11 1.00117 -2.72955e-10 1.00177)
(0.997445 1.78819e-06 -3.93873e-10 1.00086 2.5663e-11 1.0017)
(0.997904 2.06567e-05 -9.0581e-11 1.00052 4.06468e-10 1.00158)
(0.998538 1.49058e-05 2.20563e-10 1.00006 -1.94136e-11 1.00141)
(0.999328 2.96499e-05 -4.28671e-11 0.99954 -4.38793e-10 1.00113)
(1.00047 3.52199e-05 -2.71508e-10 0.998779 2.14044e-10 1.00075)
(1.00188 4.72135e-05 -2.90404e-12 0.997941 4.85228e-10 1.00018)
(1.00384 5.73437e-05 1.88309e-10 0.996639 -2.08558e-10 0.999534)
(1.00633 6.31209e-05 -2.31463e-11 0.995234 -4.56648e-10 0.998469)
(1.0091 8.07533e-05 -2.54055e-10 0.9932 1.737e-10 0.997763)
(1.01035 7.64638e-05 -6.56496e-11 0.992131 1.5649e-10 0.997608)
(0.996171 -4.71911e-06 -2.87279e-11 1.00191 6.03762e-11 1.00193)
(0.996182 9.04552e-06 -1.19859e-10 1.00189 -1.41514e-11 1.00194)
(0.996337 -7.42506e-06 -8.35781e-11 1.00176 3.90102e-11 1.00191)
(0.996498 1.34586e-05 8.67037e-11 1.00163 1.07587e-10 1.00188)
(0.996779 -3.17878e-06 2.51198e-10 1.00141 -1.0538e-10 1.00182)
(0.997069 1.92725e-05 -7.90177e-11 1.00117 -2.73602e-10 1.00177)
(0.997444 4.62609e-06 -3.93495e-10 1.00086 2.57285e-11 1.0017)
(0.997904 2.40172e-05 -9.08922e-11 1.00052 4.07199e-10 1.00158)
(0.998539 1.83009e-05 2.19678e-10 1.00005 -1.95184e-11 1.00141)
(0.999331 3.30923e-05 -4.29011e-11 0.999536 -4.39357e-10 1.00113)
(1.00048 3.86656e-05 -2.70654e-10 0.998773 2.14343e-10 1.00075)
(1.00189 5.00759e-05 -2.47467e-12 0.997935 4.85765e-10 1.00018)
(1.00385 5.95541e-05 1.87444e-10 0.996632 -2.08736e-10 0.999536)
(1.00634 6.39144e-05 -2.31404e-11 0.995226 -4.5713e-10 0.99847)
(1.00911 8.10138e-05 -2.53743e-10 0.993193 1.73847e-10 0.997766)
(1.01035 7.59543e-05 -6.5763e-11 0.992127 1.56686e-10 0.997612)
(0.996168 -4.51537e-06 -2.87618e-11 1.00191 6.0523e-11 1.00193)
(0.99618 9.86759e-06 -1.1993e-10 1.00189 -1.41727e-11 1.00194)
(0.996336 -6.56776e-06 -8.35793e-11 1.00176 3.90926e-11 1.00191)
(0.996497 1.50888e-05 8.675e-11 1.00163 1.07728e-10 1.00188)
(0.996779 -1.50398e-06 2.51079e-10 1.0014 -1.05626e-10 1.00182)
(0.99707 2.1601e-05 -7.90744e-11 1.00117 -2.74014e-10 1.00177)
(0.997445 6.81085e-06 -3.93147e-10 1.00086 2.58547e-11 1.0017)
(0.997906 2.64475e-05 -9.12074e-11 1.00051 4.07612e-10 1.00158)
(0.998542 2.06077e-05 2.18765e-10 1.00005 -1.97801e-11 1.00141)
(0.999336 3.51151e-05 -4.29405e-11 0.999531 -4.39675e-10 1.00113)
(1.00048 4.04225e-05 -2.69736e-10 0.998767 2.14718e-10 1.00075)
(1.00189 5.09627e-05 -1.9374e-12 0.997929 4.86183e-10 1.00018)
(1.00385 6.02411e-05 1.86531e-10 0.996625 -2.08976e-10 0.999537)
(1.00634 6.33683e-05 -2.31332e-11 0.995219 -4.57466e-10 0.998471)
(1.00911 8.05878e-05 -2.53354e-10 0.993186 1.74115e-10 0.997768)
(1.01035 7.50031e-05 -6.59031e-11 0.992122 1.56836e-10 0.997617)
(0.996166 -4.35006e-06 -2.8768e-11 1.00191 6.06098e-11 1.00193)
(0.99618 1.05237e-05 -1.20015e-10 1.00189 -1.41797e-11 1.00194)
(0.996337 -6.09481e-06 -8.35808e-11 1.00176 3.91348e-11 1.00191)
(0.996499 1.62506e-05 8.67994e-11 1.00163 1.07763e-10 1.00188)
(0.996782 -6.61005e-07 2.50884e-10 1.0014 -1.05778e-10 1.00182)
(0.997071 2.29556e-05 -7.91441e-11 1.00117 -2.74301e-10 1.00177)
(0.997447 7.98914e-06 -3.92683e-10 1.00086 2.58812e-11 1.0017)
(0.997909 2.77705e-05 -9.15894e-11 1.00051 4.07906e-10 1.00158)
(0.998547 2.17059e-05 2.17721e-10 1.00004 -1.9873e-11 1.00141)
(0.999342 3.59544e-05 -4.29841e-11 0.999526 -4.39859e-10 1.00113)
(1.00049 4.10796e-05 -2.68727e-10 0.998761 2.14847e-10 1.00075)
(1.0019 5.09486e-05 -1.43391e-12 0.997922 4.86362e-10 1.00018)
(1.00386 5.98766e-05 1.85655e-10 0.996619 -2.09067e-10 0.999537)
(1.00635 6.21245e-05 -2.31269e-11 0.995212 -4.57625e-10 0.998471)
(1.00912 7.97001e-05 -2.53049e-10 0.99318 1.74373e-10 0.997769)
(1.01035 7.40737e-05 -6.60237e-11 0.992118 1.56947e-10 0.99762)
(0.996166 -4.27662e-06 -2.87995e-11 1.00191 6.06181e-11 1.00193)
(0.996182 1.09979e-05 -1.20108e-10 1.00189 -1.41792e-11 1.00194)
(0.996338 -5.91465e-06 -8.35734e-11 1.00176 3.91529e-11 1.00191)
(0.996501 1.7056e-05 8.6845e-11 1.00163 1.07739e-10 1.00188)
(0.996785 -1.43545e-07 2.50704e-10 1.0014 -1.05899e-10 1.00182)
(0.997074 2.39018e-05 -7.92078e-11 1.00116 -2.74394e-10 1.00177)
(0.99745 8.51178e-06 -3.92282e-10 1.00085 2.59859e-11 1.0017)
(0.997914 2.83689e-05 -9.19586e-11 1.00051 4.07945e-10 1.00158)
(0.998552 2.20477e-05 2.16713e-10 1.00004 -2.01688e-11 1.00141)
(0.999349 3.58578e-05 -4.30299e-11 0.99952 -4.39867e-10 1.00113)
(1.0005 4.08139e-05 -2.67783e-10 0.998754 2.15162e-10 1.00075)
(1.00191 4.98412e-05 -8.40316e-13 0.997916 4.86539e-10 1.00018)
(1.00386 5.89862e-05 1.84731e-10 0.996612 -2.09282e-10 0.999538)
(1.00636 6.03582e-05 -2.3118e-11 0.995206 -4.5773e-10 0.998471)
(1.00912 7.89246e-05 -2.52655e-10 0.993173 1.74738e-10 0.99777)
(1.01035 7.30756e-05 -6.61401e-11 0.992114 1.57035e-10 0.997623)
(0.996168 -4.29283e-06 -2.88241e-11 1.00191 6.05816e-11 1.00193)
(0.996184 1.13316e-05 -1.20192e-10 1.00189 -1.41688e-11 1.00194)
(0.996341 -6.01267e-06 -8.35712e-11 1.00176 3.9151e-11 1.00191)
(0.996505 1.74553e-05 8.68898e-11 1.00163 1.07648e-10 1.00188)
(0.99679 -3.11961e-07 2.50475e-10 1.0014 -1.0596e-10 1.00182)
(0.997078 2.40237e-05 -7.92811e-11 1.00116 -2.74448e-10 1.00177)
(0.997454 8.20797e-06 -3.91761e-10 1.00085 2.59843e-11 1.0017)
(0.997919 2.80323e-05 -9.23852e-11 1.0005 4.07972e-10 1.00158)
(0.998558 2.13263e-05 2.15553e-10 1.00004 -2.02294e-11 1.00141)
(0.999355 3.48225e-05 -4.30792e-11 0.999515 -4.39824e-10 1.00113)
(1.00051 3.96935e-05 -2.66674e-10 0.998748 2.15159e-10 1.00074)
(1.00191 4.83549e-05 -2.79025e-13 0.99791 4.86492e-10 1.00018)
(1.00387 5.77962e-05 1.83789e-10 0.996606 -2.09328e-10 0.999537)
(1.00636 5.87005e-05 -2.31126e-11 0.995199 -4.57697e-10 0.99847)
(1.00913 7.805e-05 -2.52193e-10 0.993166 1.75102e-10 0.997771)
(1.01035 7.20289e-05 -6.62505e-11 0.992109 1.57103e-10 0.997625)
(0.99617 -4.37557e-06 -2.88575e-11 1.00191 6.04974e-11 1.00193)
(0.996187 1.14172e-05 -1.20267e-10 1.00189 -1.41557e-11 1.00193)
(0.996344 -6.60206e-06 -8.35487e-11 1.00175 3.91258e-11 1.00191)
(0.996508 1.73256e-05 8.69323e-11 1.00162 1.07529e-10 1.00188)
(0.996794 -1.10725e-06 2.50234e-10 1.00139 -1.05962e-10 1.00182)
(0.997082 2.36506e-05 -7.93554e-11 1.00116 -2.74304e-10 1.00177)
(0.997459 7.30855e-06 -3.91295e-10 1.00085 2.60823e-11 1.0017)
(0.997924 2.72153e-05 -9.28118e-11 1.0005 4.07771e-10 1.00158)
(0.998564 2.02975e-05 2.14455e-10 1.00003 -2.0527e-11 1.00141)
(0.999363 3.35535e-05 -4.31314e-11 0.99951 -4.39644e-10 1.00113)
(1.00052 3.8556e-05 -2.65741e-10 0.998742 2.15435e-10 1.00074)
(1.00192 4.64333e-05 3.39794e-13 0.997904 4.86552e-10 1.00018)
(1.00388 5.63063e-05 1.82807e-10 0.9966 -2.09447e-10 0.999537)
(1.00637 5.66441e-05 -2.31001e-11 0.995193 -4.57726e-10 0.998469)
(1.00914 7.72513e-05 -2.51851e-10 0.993159 1.75441e-10 0.997771)
(1.01036 7.11892e-05 -6.6332e-11 0.992103 1.57163e-10 0.997627)
(0.996173 -4.60353e-06 -2.88923e-11 1.00191 6.0385e-11 1.00193)
(0.99619 1.14474e-05 -1.20362e-10 1.00189 -1.41303e-11 1.00193)
(0.996348 -7.25019e-06 -8.35393e-11 1.00175 3.90992e-11 1.00191)
(0.996513 1.7076e-05 8.69792e-11 1.00162 1.07355e-10 1.00188)
(0.996799 -2.00699e-06 2.5001e-10 1.00139 -1.06009e-10 1.00182)
(0.997086 2.2823e-05 -7.94243e-11 1.00115 -2.74296e-10 1.00177)
(0.997463 5.90047e-06 -3.90709e-10 1.00084 2.60567e-11 1.0017)
(0.997929 2.57555e-05 -9.32659e-11 1.00049 4.07723e-10 1.00158)
(0.998569 1.85736e-05 2.13186e-10 1.00003 -2.06379e-11 1.00141)
(0.99937 3.1581e-05 -4.31835e-11 0.999505 -4.39552e-10 1.00113)
(1.00053 3.65316e-05 -2.6438e-10 0.998736 2.15535e-10 1.00074)
(1.00193 4.41923e-05 1.01606e-12 0.997899 4.86517e-10 1.00018)
(1.00388 5.47559e-05 1.81792e-10 0.996594 -2.09606e-10 0.999536)
(1.00638 5.49135e-05 -2.30917e-11 0.995186 -4.5769e-10 0.998468)
(1.00914 7.67368e-05 -2.51309e-10 0.993153 1.75837e-10 0.997771)
(1.01036 7.01922e-05 -6.64222e-11 0.992098 1.57209e-10 0.997629)
(0.996176 -4.85044e-06 -2.8909e-11 1.00191 6.02414e-11 1.00193)
(0.996193 1.13527e-05 -1.20445e-10 1.00189 -1.41127e-11 1.00193)
(0.996352 -8.21131e-06 -8.35113e-11 1.00175 3.90677e-11 1.00191)
(0.996517 1.65102e-05 8.70097e-11 1.00162 1.07214e-10 1.00187)
(0.996804 -3.59663e-06 2.49622e-10 1.00139 -1.05995e-10 1.00182)
(0.997091 2.14795e-05 -7.95119e-11 1.00115 -2.74145e-10 1.00176)
(0.997467 4.08102e-06 -3.90168e-10 1.00084 2.61132e-11 1.0017)
(0.997934 2.3951e-05 -9.37337e-11 1.00049 4.07552e-10 1.00158)
(0.998575 1.65367e-05 2.12018e-10 1.00002 -2.08302e-11 1.00141)
(0.999377 2.936e-05 -4.32358e-11 0.999499 -4.39384e-10 1.00112)
(1.00053 3.46297e-05 -2.6339e-10 0.998729 2.15687e-10 1.00074)
(1.00193 4.1998e-05 1.6354e-12 0.997893 4.86505e-10 1.00018)
(1.00389 5.30703e-05 1.80763e-10 0.996588 -2.09718e-10 0.999536)
(1.00639 5.28289e-05 -2.30797e-11 0.99518 -4.57652e-10 0.998467)
(1.00915 7.59854e-05 -2.50885e-10 0.993146 1.76215e-10 0.997771)
(1.01037 6.92445e-05 -6.65029e-11 0.992092 1.57255e-10 0.99763)
(0.996179 -5.18102e-06 -2.89542e-11 1.00191 6.0111e-11 1.00192)
(0.996196 1.11312e-05 -1.20517e-10 1.00188 -1.40903e-11 1.00193)
(0.996355 -9.35525e-06 -8.34931e-11 1.00175 3.90395e-11 1.00191)
(0.996521 1.57065e-05 8.70487e-11 1.00162 1.07055e-10 1.00187)
(0.996809 -5.19498e-06 2.49343e-10 1.00138 -1.0601e-10 1.00181)
(0.997094 1.99811e-05 -7.95834e-11 1.00115 -2.74069e-10 1.00176)
(0.997471 1.89021e-06 -3.89543e-10 1.00084 2.61329e-11 1.0017)
(0.997939 2.17084e-05 -9.42246e-11 1.00049 4.07436e-10 1.00158)
(0.998581 1.40989e-05 2.1066e-10 1.00002 -2.10072e-11 1.0014)
(0.999383 2.67113e-05 -4.32934e-11 0.999495 -4.39247e-10 1.00112)
(1.00054 3.21085e-05 -2.6198e-10 0.998723 2.15853e-10 1.00073)
(1.00194 3.927e-05 2.36642e-12 0.997887 4.86474e-10 1.00018)
(1.0039 5.13285e-05 1.7965e-10 0.996582 -2.0992e-10 0.999535)
(1.00639 5.10108e-05 -2.30708e-11 0.995173 -4.57603e-10 0.998465)
(1.00916 7.56761e-05 -2.50205e-10 0.993139 1.76633e-10 0.997771)
(1.01037 6.81726e-05 -6.65989e-11 0.992086 1.57296e-10 0.997632)
(0.996182 -5.57405e-06 -2.89566e-11 1.00191 5.99706e-11 1.00192)
(0.996199 1.08497e-05 -1.20602e-10 1.00188 -1.40703e-11 1.00193)
(0.996358 -1.07415e-05 -8.3448e-11 1.00175 3.90134e-11 1.00191)
(0.996524 1.47035e-05 8.7074e-11 1.00161 1.06912e-10 1.00187)
(0.996812 -7.44024e-06 2.48879e-10 1.00138 -1.05993e-10 1.00181)
(0.997098 1.7789e-05 -7.96742e-11 1.00115 -2.73957e-10 1.00176)
(0.997475 -7.5007e-07 -3.88917e-10 1.00083 2.61292e-11 1.0017)
(0.997944 1.90002e-05 -9.4735e-11 1.00048 4.07325e-10 1.00158)
(0.998586 1.12239e-05 2.09398e-10 1.00001 -2.1082e-11 1.0014)
(0.99939 2.37044e-05 -4.335e-11 0.99949 -4.39102e-10 1.00112)
(1.00055 2.95533e-05 -2.60877e-10 0.998717 2.15876e-10 1.00073)
(1.00195 3.67205e-05 3.00534e-12 0.997882 4.86408e-10 1.00017)
(1.0039 4.95271e-05 1.78541e-10 0.996576 -2.0999e-10 0.999534)
(1.0064 4.92354e-05 -2.30617e-11 0.995166 -4.57535e-10 0.998464)
(1.00917 7.51805e-05 -2.49591e-10 0.993131 1.7703e-10 0.997771)
(1.01038 6.71449e-05 -6.66796e-11 0.992079 1.57344e-10 0.997633)
(0.996184 -6.02548e-06 -2.9009e-11 1.0019 5.98429e-11 1.00192)
(0.996201 1.04088e-05 -1.20679e-10 1.00188 -1.40513e-11 1.00193)
(0.99636 -1.23952e-05 -8.34103e-11 1.00174 3.89866e-11 1.00191)
(0.996527 1.34708e-05 8.70942e-11 1.00161 1.06769e-10 1.00187)
(0.996816 -9.77136e-06 2.48475e-10 1.00138 -1.05987e-10 1.00181)
(0.997101 1.54748e-05 -7.97541e-11 1.00114 -2.73866e-10 1.00176)
(0.997478 -3.74549e-06 -3.88246e-10 1.00083 2.61606e-11 1.0017)
(0.997948 1.60518e-05 -9.52706e-11 1.00048 4.07202e-10 1.00158)
(0.998591 8.18373e-06 2.07971e-10 1.00001 -2.12818e-11 1.0014)
(0.999396 2.06088e-05 -4.34121e-11 0.999485 -4.38967e-10 1.00112)
(1.00056 2.68844e-05 -2.59497e-10 0.998711 2.16105e-10 1.00073)
(1.00196 3.36457e-05 3.76474e-12 0.997876 4.86458e-10 1.00017)
(1.00391 4.74815e-05 1.77332e-10 0.996569 -2.10173e-10 0.999534)
(1.00641 4.72581e-05 -2.30525e-11 0.995159 -4.57567e-10 0.998463)
(1.00917 7.50128e-05 -2.48822e-10 0.993123 1.77424e-10 0.99777)
(1.01038 6.60305e-05 -6.67738e-11 0.992073 1.57397e-10 0.997634)
(0.996187 -6.55998e-06 -2.90374e-11 1.0019 5.97145e-11 1.00192)
(0.996202 9.91121e-06 -1.20759e-10 1.00188 -1.40317e-11 1.00193)
(0.996362 -1.41905e-05 -8.33604e-11 1.00174 3.89814e-11 1.0019)
(0.996529 1.21827e-05 8.71074e-11 1.00161 1.06645e-10 1.00187)
(0.996818 -1.23314e-05 2.47896e-10 1.00138 -1.06049e-10 1.00181)
(0.997103 1.26021e-05 -7.98487e-11 1.00114 -2.73934e-10 1.00176)
(0.99748 -7.12269e-06 -3.87552e-10 1.00083 2.60989e-11 1.0017)
(0.997951 1.26567e-05 -9.58106e-11 1.00048 4.07281e-10 1.00158)
(0.998596 4.76859e-06 2.066e-10 1 -2.13034e-11 1.0014)
(0.999402 1.69994e-05 -4.34717e-11 0.99948 -4.38961e-10 1.00112)
(1.00057 2.38101e-05 -2.58129e-10 0.998705 2.16125e-10 1.00073)
(1.00196 3.04897e-05 4.4894e-12 0.99787 4.86464e-10 1.00017)
(1.00392 4.54595e-05 1.7617e-10 0.996563 -2.1025e-10 0.999533)
(1.00642 4.53411e-05 -2.30448e-11 0.995151 -4.57574e-10 0.998461)
(1.00918 7.45355e-05 -2.47888e-10 0.993115 1.77781e-10 0.997771)
(1.01039 6.49009e-05 -6.68674e-11 0.992065 1.57442e-10 0.997636)
(0.996188 -7.1358e-06 -2.90978e-11 1.0019 5.96099e-11 1.00192)
(0.996202 9.31204e-06 -1.20835e-10 1.00188 -1.40317e-11 1.00193)
(0.996362 -1.61194e-05 -8.3299e-11 1.00174 3.89822e-11 1.0019)
(0.99653 1.07764e-05 8.71015e-11 1.00161 1.06604e-10 1.00187)
(0.996819 -1.52079e-05 2.47163e-10 1.00138 -1.06107e-10 1.00181)
(0.997104 9.6231e-06 -7.99493e-11 1.00114 -2.73947e-10 1.00176)
(0.997482 -1.07543e-05 -3.8686e-10 1.00082 2.61673e-11 1.0017)
(0.997955 9.09082e-06 -9.63836e-11 1.00047 4.07289e-10 1.00158)
(0.9986 8.30395e-07 2.05118e-10 1 -2.13873e-11 1.0014)
(0.999408 1.29677e-05 -4.35377e-11 0.999475 -4.38924e-10 1.00112)
(1.00058 2.02462e-05 -2.56814e-10 0.998699 2.16056e-10 1.00073)
(1.00197 2.70757e-05 5.22526e-12 0.997864 4.86424e-10 1.00017)
(1.00392 4.32224e-05 1.74876e-10 0.996556 -2.10149e-10 0.999533)
(1.00643 4.30976e-05 -2.30381e-11 0.995143 -4.57578e-10 0.99846)
(1.00919 7.34753e-05 -2.47212e-10 0.993106 1.78089e-10 0.997773)
(1.01039 6.38098e-05 -6.69406e-11 0.992057 1.57509e-10 0.997638)
(0.996187 -7.73582e-06 -2.91061e-11 1.0019 5.95532e-11 1.00192)
(0.996201 8.42234e-06 -1.2092e-10 1.00188 -1.40421e-11 1.00193)
(0.996361 -1.86404e-05 -8.32459e-11 1.00174 3.8969e-11 1.00191)
(0.996531 8.62697e-06 8.70995e-11 1.00161 1.06604e-10 1.00187)
(0.996819 -1.89584e-05 2.46554e-10 1.00138 -1.06176e-10 1.00181)
(0.997105 6.02563e-06 -8.00449e-11 1.00114 -2.74033e-10 1.00176)
(0.997484 -1.50714e-05 -3.86133e-10 1.00082 2.62278e-11 1.0017)
(0.997957 4.92817e-06 -9.69937e-11 1.00047 4.07347e-10 1.00158)
(0.998603 -3.45145e-06 2.03558e-10 0.999997 -2.14735e-11 1.0014)
(0.999414 8.84178e-06 -4.36097e-11 0.99947 -4.38917e-10 1.00112)
(1.00058 1.67005e-05 -2.55386e-10 0.998693 2.16108e-10 1.00072)
(1.00198 2.32688e-05 5.99171e-12 0.997857 4.86504e-10 1.00017)
(1.00393 4.04353e-05 1.73593e-10 0.996549 -2.10104e-10 0.999533)
(1.00644 4.05889e-05 -2.30295e-11 0.995134 -4.57701e-10 0.998459)
(1.0092 7.25439e-05 -2.46681e-10 0.993097 1.78328e-10 0.997774)
(1.0104 6.27725e-05 -6.70117e-11 0.992048 1.57587e-10 0.997639)
(0.996186 -8.50446e-06 -2.91531e-11 1.0019 5.95109e-11 1.00192)
(0.996198 7.5617e-06 -1.21003e-10 1.00188 -1.40614e-11 1.00193)
(0.996359 -2.12189e-05 -8.31786e-11 1.00174 3.89607e-11 1.00191)
(0.996529 6.41402e-06 8.71121e-11 1.00161 1.06654e-10 1.00187)
(0.996817 -2.29929e-05 2.46028e-10 1.00138 -1.06337e-10 1.00181)
(0.997104 2.08421e-06 -8.01373e-11 1.00114 -2.74319e-10 1.00177)
(0.997483 -1.97915e-05 -3.85357e-10 1.00082 2.62882e-11 1.0017)
(0.997958 2.5946e-07 -9.76205e-11 1.00047 4.07599e-10 1.00158)
(0.998606 -8.1264e-06 2.01937e-10 0.999994 -2.16134e-11 1.0014)
(0.999418 4.13169e-06 -4.3683e-11 0.999466 -4.39088e-10 1.00112)
(1.00059 1.24982e-05 -2.53734e-10 0.998687 2.16282e-10 1.00072)
(1.00198 1.8789e-05 6.84502e-12 0.99785 4.86734e-10 1.00017)
(1.00394 3.7138e-05 1.72325e-10 0.996541 -2.10172e-10 0.999533)
(1.00645 3.75217e-05 -2.30205e-11 0.995125 -4.57901e-10 0.998459)
(1.00921 7.14403e-05 -2.46091e-10 0.993088 1.78552e-10 0.997775)
(1.01041 6.17356e-05 -6.70838e-11 0.99204 1.57659e-10 0.997641)
(0.996183 -9.29335e-06 -2.91948e-11 1.00191 5.95051e-11 1.00192)
(0.996193 6.62711e-06 -1.21095e-10 1.00189 -1.40967e-11 1.00193)
(0.996355 -2.39878e-05 -8.31158e-11 1.00175 3.89947e-11 1.00191)
(0.996526 3.79648e-06 8.71474e-11 1.00161 1.06791e-10 1.00187)
(0.996814 -2.74049e-05 2.45656e-10 1.00138 -1.06508e-10 1.00182)
(0.997101 -2.12928e-06 -8.02331e-11 1.00114 -2.74745e-10 1.00177)
(0.997482 -2.50431e-05 -3.84568e-10 1.00082 2.62826e-11 1.0017)
(0.997959 -5.09805e-06 -9.82709e-11 1.00047 4.08037e-10 1.00158)
(0.998607 -1.37398e-05 2.00227e-10 0.999991 -2.15871e-11 1.0014)
(0.999422 -1.65632e-06 -4.37606e-11 0.999461 -4.39367e-10 1.00112)
(1.0006 7.21125e-06 -2.52079e-10 0.998681 2.16217e-10 1.00072)
(1.00199 1.3742e-05 7.66171e-12 0.997844 4.86885e-10 1.00017)
(1.00395 3.34699e-05 1.71074e-10 0.996533 -2.10192e-10 0.999533)
(1.00646 3.39927e-05 -2.30165e-11 0.995116 -4.58022e-10 0.998457)
(1.00922 6.98039e-05 -2.45552e-10 0.993078 1.78867e-10 0.997776)
(1.01042 6.05274e-05 -6.71707e-11 0.99203 1.57742e-10 0.997642)
(0.996178 -1.0146e-05 -2.92294e-11 1.00191 5.95719e-11 1.00192)
(0.996187 5.3199e-06 -1.21191e-10 1.00189 -1.4132e-11 1.00194)
(0.99635 -2.73675e-05 -8.30542e-11 1.00175 3.90699e-11 1.00191)
(0.996522 4.97009e-07 8.71706e-11 1.00161 1.0696e-10 1.00187)
(0.996809 -3.24234e-05 2.45163e-10 1.00138 -1.06664e-10 1.00182)
(0.997098 -7.02505e-06 -8.03417e-11 1.00114 -2.75145e-10 1.00177)
(0.99748 -3.11622e-05 -3.83783e-10 1.00082 2.62698e-11 1.00171)
(0.997959 -1.11763e-05 -9.89676e-11 1.00046 4.08455e-10 1.00158)
(0.998609 -2.01971e-05 1.98469e-10 0.999988 -2.15747e-11 1.0014)
(0.999426 -8.06252e-06 -4.38509e-11 0.999456 -4.39605e-10 1.00112)
(1.0006 1.55652e-06 -2.50575e-10 0.998675 2.16186e-10 1.00072)
(1.002 7.90055e-06 8.46819e-12 0.997837 4.87077e-10 1.00017)
(1.00396 2.90645e-05 1.6981e-10 0.996525 -2.10151e-10 0.999534)
(1.00647 2.99094e-05 -2.30127e-11 0.995106 -4.5821e-10 0.998456)
(1.00923 6.78442e-05 -2.4507e-10 0.993067 1.79138e-10 0.997777)
(1.01043 5.92209e-05 -6.72714e-11 0.99202 1.57843e-10 0.997644)
(0.996172 -1.11735e-05 -2.92725e-11 1.00191 5.96793e-11 1.00193)
(0.996179 3.77898e-06 -1.21303e-10 1.00189 -1.41748e-11 1.00194)
(0.996342 -3.11296e-05 -8.30014e-11 1.00175 3.91409e-11 1.00192)
(0.996516 -3.19268e-06 8.71882e-11 1.00161 1.0717e-10 1.00188)
(0.996803 -3.80772e-05 2.44614e-10 1.00138 -1.06919e-10 1.00183)
(0.997093 -1.27551e-05 -8.04568e-11 1.00114 -2.75714e-10 1.00178)
(0.997476 -3.81193e-05 -3.82994e-10 1.00082 2.62669e-11 1.00171)
(0.997957 -1.80827e-05 -9.96956e-11 1.00046 4.09015e-10 1.00158)
(0.99861 -2.74156e-05 1.96614e-10 0.999985 -2.15756e-11 1.00141)
(0.99943 -1.50511e-05 -4.39482e-11 0.999452 -4.39953e-10 1.00112)
(1.00061 -4.8335e-06 -2.48748e-10 0.998668 2.16223e-10 1.00072)
(1.002 1.0654e-06 9.34612e-12 0.99783 4.87373e-10 1.00017)
(1.00396 2.39288e-05 1.68578e-10 0.996516 -2.10183e-10 0.999534)
(1.00648 2.5356e-05 -2.30092e-11 0.995095 -4.58488e-10 0.998456)
(1.00924 6.56631e-05 -2.44635e-10 0.993055 1.79401e-10 0.997778)
(1.01044 5.7903e-05 -6.73739e-11 0.992008 1.57952e-10 0.997646)
(0.996164 -1.23047e-05 -2.93191e-11 1.00192 5.98117e-11 1.00193)
(0.996169 2.11701e-06 -1.21428e-10 1.0019 -1.42281e-11 1.00194)
(0.996333 -3.51844e-05 -8.29475e-11 1.00176 3.92347e-11 1.00192)
(0.996508 -7.39122e-06 8.7227e-11 1.00162 1.07457e-10 1.00188)
(0.996795 -4.44752e-05 2.44136e-10 1.00138 -1.07194e-10 1.00183)
(0.997086 -1.92399e-05 -8.0584e-11 1.00114 -2.76417e-10 1.00178)
(0.997471 -4.59439e-05 -3.8218e-10 1.00082 2.62179e-11 1.00171)
(0.997955 -2.60016e-05 -1.00472e-10 1.00046 4.09743e-10 1.00159)
(0.998609 -3.5749e-05 1.94693e-10 0.999983 -2.15137e-11 1.00141)
(0.999433 -2.31042e-05 -4.4054e-11 0.999447 -4.40417e-10 1.00112)
(1.00062 -1.20412e-05 -2.46983e-10 0.998662 2.16249e-10 1.00072)
(1.00201 -6.62146e-06 1.01892e-11 0.997822 4.87752e-10 1.00017)
(1.00397 1.7872e-05 1.67417e-10 0.996506 -2.10236e-10 0.999535)
(1.0065 2.0088e-05 -2.30072e-11 0.995084 -4.58813e-10 0.998455)
(1.00925 6.29381e-05 -2.44264e-10 0.993043 1.79689e-10 0.997779)
(1.01045 5.64065e-05 -6.74996e-11 0.991996 1.58072e-10 0.997647)
(0.996153 -1.35165e-05 -2.93781e-11 1.00192 5.99968e-11 1.00194)
(0.996157 2.33573e-07 -1.21551e-10 1.0019 -1.42919e-11 1.00195)
(0.996321 -3.96774e-05 -8.28862e-11 1.00176 3.93609e-11 1.00193)
(0.996498 -1.20419e-05 8.72642e-11 1.00162 1.07819e-10 1.00189)
(0.996785 -5.14111e-05 2.43597e-10 1.00139 -1.07499e-10 1.00184)
(0.997078 -2.6517e-05 -8.07236e-11 1.00114 -2.77248e-10 1.00179)
(0.997465 -5.45913e-05 -3.81367e-10 1.00082 2.6171e-11 1.00172)
(0.997951 -3.49546e-05 -1.01279e-10 1.00046 4.10616e-10 1.00159)
(0.998608 -4.5075e-05 1.92703e-10 0.99998 -2.15046e-11 1.00141)
(0.999435 -3.21155e-05 -4.41716e-11 0.999443 -4.40991e-10 1.00112)
(1.00062 -2.01759e-05 -2.44886e-10 0.998656 2.16408e-10 1.00072)
(1.00201 -1.54599e-05 1.10987e-11 0.997814 4.88236e-10 1.00018)
(1.00398 1.08466e-05 1.66317e-10 0.996496 -2.10366e-10 0.999537)
(1.00651 1.41621e-05 -2.30075e-11 0.995071 -4.59207e-10 0.998455)
(1.00926 5.97029e-05 -2.43907e-10 0.993029 1.79986e-10 0.997781)
(1.01046 5.4762e-05 -6.76476e-11 0.991983 1.58199e-10 0.997648)
(0.996141 -1.48548e-05 -2.94414e-11 1.00193 6.02383e-11 1.00194)
(0.996142 -1.79017e-06 -1.21696e-10 1.00191 -1.43689e-11 1.00196)
(0.996307 -4.45267e-05 -8.28272e-11 1.00177 3.9505e-11 1.00193)
(0.996486 -1.72088e-05 8.73115e-11 1.00163 1.08256e-10 1.0019)
(0.996772 -5.90428e-05 2.43072e-10 1.00139 -1.07804e-10 1.00184)
(0.997067 -3.46424e-05 -8.08775e-11 1.00115 -2.78216e-10 1.00179)
(0.997456 -6.41483e-05 -3.80561e-10 1.00082 2.60201e-11 1.00173)
(0.997945 -4.51924e-05 -1.02134e-10 1.00046 4.11703e-10 1.0016)
(0.998605 -5.56454e-05 1.90638e-10 0.999978 -2.12156e-11 1.00142)
(0.999437 -4.25434e-05 -4.43047e-11 0.999438 -4.41678e-10 1.00113)
(1.00062 -3.02739e-05 -2.42769e-10 0.998649 2.16576e-10 1.00073)
(1.00202 -2.53719e-05 1.1939e-11 0.997807 4.88825e-10 1.00018)
(1.00399 2.93752e-06 1.65355e-10 0.996485 -2.10605e-10 0.999538)
(1.00652 7.59365e-06 -2.3011e-11 0.995058 -4.59598e-10 0.998455)
(1.00927 5.58537e-05 -2.43648e-10 0.993015 1.80357e-10 0.997782)
(1.01047 5.29043e-05 -6.78224e-11 0.991968 1.58332e-10 0.99765)
(0.996125 -1.6298e-05 -2.94963e-11 1.00193 6.05315e-11 1.00195)
(0.996125 -4.03722e-06 -1.21848e-10 1.00192 -1.44491e-11 1.00197)
(0.996291 -4.98491e-05 -8.27603e-11 1.00178 3.9669e-11 1.00194)
(0.996472 -2.28953e-05 8.73588e-11 1.00163 1.08735e-10 1.0019)
(0.996758 -6.72843e-05 2.42476e-10 1.0014 -1.08084e-10 1.00185)
(0.997055 -4.34551e-05 -8.10484e-11 1.00115 -2.79237e-10 1.0018)
(0.997446 -7.45233e-05 -3.79753e-10 1.00083 2.57796e-11 1.00173)
(0.997938 -5.6244e-05 -1.03033e-10 1.00046 4.12928e-10 1.0016)
(0.998602 -6.72187e-05 1.88522e-10 0.999977 -2.06577e-11 1.00142)
(0.999437 -5.41246e-05 -4.44467e-11 0.999434 -4.42404e-10 1.00113)
(1.00063 -4.19177e-05 -2.41174e-10 0.998642 2.16689e-10 1.00073)
(1.00203 -3.64831e-05 1.27047e-11 0.997798 4.89534e-10 1.00018)
(1.004 -6.08513e-06 1.64404e-10 0.996474 -2.10839e-10 0.999539)
(1.00654 -4.17656e-08 -2.30168e-11 0.995044 -4.60041e-10 0.998454)
(1.00929 5.14515e-05 -2.43443e-10 0.992999 1.80731e-10 0.997783)
(1.01049 5.0727e-05 -6.80467e-11 0.991951 1.58473e-10 0.997651)
(0.996108 -1.78874e-05 -2.95628e-11 1.00194 6.08575e-11 1.00196)
(0.996106 -6.35434e-06 -1.22016e-10 1.00193 -1.45372e-11 1.00198)
(0.996273 -5.5462e-05 -8.26858e-11 1.00179 3.98284e-11 1.00195)
(0.996455 -2.88042e-05 8.74062e-11 1.00164 1.09258e-10 1.00191)
(0.996742 -7.60411e-05 2.4179e-10 1.0014 -1.08388e-10 1.00186)
(0.997042 -5.29859e-05 -8.12397e-11 1.00115 -2.80387e-10 1.00181)
(0.997435 -8.57915e-05 -3.78918e-10 1.00083 2.54946e-11 1.00174)
(0.99793 -6.82931e-05 -1.03989e-10 1.00046 4.14313e-10 1.00161)
(0.998597 -7.99787e-05 1.86367e-10 0.999976 -2.00131e-11 1.00143)
(0.999437 -6.71159e-05 -4.45967e-11 0.99943 -4.43218e-10 1.00113)
(1.00063 -5.47524e-05 -2.39972e-10 0.998636 2.16727e-10 1.00074)
(1.00203 -4.88709e-05 1.34302e-11 0.99779 4.90288e-10 1.00018)
(1.00401 -1.64913e-05 1.63591e-10 0.996462 -2.11027e-10 0.999541)
(1.00655 -8.75007e-06 -2.30252e-11 0.995029 -4.60542e-10 0.998454)
(1.0093 4.6296e-05 -2.4326e-10 0.992982 1.81064e-10 0.997783)
(1.01051 4.82886e-05 -6.83168e-11 0.991934 1.58602e-10 0.997651)
(0.996089 -1.95774e-05 -2.96195e-11 1.00195 6.12038e-11 1.00197)
(0.996085 -8.60678e-06 -1.22194e-10 1.00194 -1.46282e-11 1.00199)
(0.996253 -6.11782e-05 -8.25964e-11 1.0018 3.99916e-11 1.00196)
(0.996437 -3.49258e-05 8.74736e-11 1.00165 1.09808e-10 1.00192)
(0.996724 -8.51826e-05 2.41154e-10 1.00141 -1.08668e-10 1.00187)
(0.997026 -6.29569e-05 -8.14489e-11 1.00116 -2.81594e-10 1.00182)
(0.997421 -9.76484e-05 -3.78087e-10 1.00084 2.51546e-11 1.00175)
(0.99792 -8.12695e-05 -1.04991e-10 1.00046 4.15793e-10 1.00162)
(0.998591 -9.38206e-05 1.84258e-10 0.999976 -1.93283e-11 1.00143)
(0.999436 -8.1495e-05 -4.47549e-11 0.999426 -4.44076e-10 1.00114)
(1.00063 -6.8698e-05 -2.38912e-10 0.99863 2.16707e-10 1.00074)
(1.00204 -6.23689e-05 1.41354e-11 0.997781 4.90996e-10 1.00019)
(1.00402 -2.82107e-05 1.6287e-10 0.996449 -2.11129e-10 0.999543)
(1.00657 -1.85246e-05 -2.30385e-11 0.995013 -4.61009e-10 0.998453)
(1.00932 4.00666e-05 -2.43213e-10 0.992963 1.81396e-10 0.997784)
(1.01053 4.55868e-05 -6.86322e-11 0.991914 1.58723e-10 0.997651)
(0.996068 -2.13203e-05 -2.97174e-11 1.00196 6.15634e-11 1.00198)
(0.996063 -1.07637e-05 -1.22377e-10 1.00195 -1.47155e-11 1.002)
(0.996232 -6.6991e-05 -8.2491e-11 1.00181 4.01525e-11 1.00197)
(0.996418 -4.10285e-05 8.7534e-11 1.00166 1.10342e-10 1.00193)
(0.996704 -9.43464e-05 2.40367e-10 1.00142 -1.08859e-10 1.00188)
(0.997009 -7.31874e-05 -8.16826e-11 1.00117 -2.82716e-10 1.00183)