/*--------------------------------*- C++ -*----------------------------------*\
| =========                 |                                                 |
| \\      /  F ield         | foam-extend: Open Source CFD                    |
|  \\    /   O peration     | Version:     4.1-20200408                       |
|   \\  /    A nd           | Web:         http://www.foam-extend.org         |
|    \\/     M anipulation  |                                                 |
\*---------------------------------------------------------------------------*/
FoamFile
{
    version     2.0;
    format      ascii;
    class       volScalarField;
    location    "0.0515000";
    object      ccx;
}
// * * * * * * * * * * * * * * * * * * * * * * * * * * * * * * * * * * * * * //

dimensions      [0 1 0 0 0 0 0];

internalField   nonuniform List<scalar> 
1952
(
0.00289279
0.00289263
0.0028924
0.0028921
0.00289174
0.00289133
0.00289087
0.00289038
0.00288987
0.00288937
0.0028889
0.00288847
0.00288813
0.00288789
0.00288775
0.00289287
0.00276047
0.00276016
0.00275969
0.00275909
0.00275837
0.00275754
0.00275662
0.00275564
0.00275463
0.00275363
0.00275268
0.00275183
0.00275114
0.00275066
0.00275037
0.00276064
0.00271025
0.00270994
0.00270947
0.00270887
0.00270815
0.00270731
0.00270639
0.00270542
0.00270441
0.0027034
0.00270245
0.0027016
0.00270091
0.00270043
0.00270014
0.00271042
0.00266003
0.00265972
0.00265925
0.00265865
0.00265793
0.00265709
0.00265617
0.00265519
0.00265418
0.00265318
0.00265222
0.00265137
0.00265068
0.0026502
0.00264991
0.0026602
0.00260982
0.0026095
0.00260904
0.00260843
0.00260771
0.00260687
0.00260595
0.00260497
0.00260396
0.00260295
0.002602
0.00260115
0.00260045
0.00259997
0.00259968
0.00260998
0.0025596
0.00255929
0.00255882
0.00255821
0.00255749
0.00255665
0.00255573
0.00255475
0.00255374
0.00255273
0.00255177
0.00255091
0.00255022
0.00254974
0.00254945
0.00255976
0.00250938
0.00250907
0.0025086
0.00250799
0.00250726
0.00250643
0.00250551
0.00250453
0.00250351
0.0025025
0.00250154
0.00250069
0.00249999
0.00249951
0.00249922
0.00250954
0.00245916
0.00245885
0.00245838
0.00245777
0.00245704
0.00245621
0.00245528
0.0024543
0.00245329
0.00245228
0.00245132
0.00245046
0.00244976
0.00244928
0.00244899
0.00245932
0.00240894
0.00240863
0.00240816
0.00240755
0.00240682
0.00240598
0.00240506
0.00240407
0.00240306
0.00240205
0.00240109
0.00240023
0.00239953
0.00239904
0.00239875
0.0024091
0.00235872
0.0023584
0.00235794
0.00235733
0.0023566
0.00235576
0.00235483
0.00235385
0.00235283
0.00235182
0.00235086
0.00235
0.0023493
0.00234881
0.00234852
0.00235888
0.00230849
0.00230818
0.00230771
0.00230711
0.00230637
0.00230553
0.00230461
0.00230362
0.0023026
0.00230159
0.00230063
0.00229977
0.00229907
0.00229858
0.00229829
0.00230866
0.00225827
0.00225796
0.00225749
0.00225688
0.00225615
0.00225531
0.00225438
0.00225339
0.00225238
0.00225136
0.0022504
0.00224954
0.00224884
0.00224835
0.00224806
0.00225844
0.00220805
0.00220773
0.00220726
0.00220666
0.00220592
0.00220508
0.00220415
0.00220317
0.00220215
0.00220113
0.00220017
0.00219931
0.00219861
0.00219812
0.00219783
0.00220822
0.00215783
0.00215751
0.00215704
0.00215643
0.0021557
0.00215486
0.00215393
0.00215294
0.00215192
0.0021509
0.00214994
0.00214908
0.00214838
0.00214789
0.0021476
0.002158
0.0021076
0.00210728
0.00210681
0.00210621
0.00210547
0.00210463
0.0021037
0.00210271
0.00210169
0.00210067
0.00209971
0.00209885
0.00209814
0.00209765
0.00209736
0.00210777
0.00205738
0.00205706
0.00205659
0.00205598
0.00205525
0.0020544
0.00205347
0.00205248
0.00205146
0.00205044
0.00204947
0.00204861
0.00204791
0.00204742
0.00204713
0.00205755
0.00200715
0.00200683
0.00200636
0.00200575
0.00200502
0.00200417
0.00200324
0.00200225
0.00200123
0.00200021
0.00199924
0.00199838
0.00199768
0.00199719
0.0019969
0.00200732
0.00195693
0.00195661
0.00195613
0.00195552
0.00195479
0.00195394
0.00195301
0.00195202
0.00195099
0.00194997
0.00194901
0.00194815
0.00194744
0.00194695
0.00194666
0.0019571
0.0019067
0.00190638
0.00190591
0.0019053
0.00190456
0.00190371
0.00190278
0.00190179
0.00190076
0.00189974
0.00189877
0.00189791
0.00189721
0.00189672
0.00189643
0.00190687
0.00185647
0.00185615
0.00185568
0.00185507
0.00185433
0.00185348
0.00185255
0.00185156
0.00185053
0.00184951
0.00184854
0.00184768
0.00184697
0.00184648
0.00184619
0.00185664
0.00180625
0.00180593
0.00180545
0.00180484
0.0018041
0.00180325
0.00180232
0.00180133
0.0018003
0.00179928
0.00179831
0.00179744
0.00179674
0.00179625
0.00179596
0.00180642
0.00175602
0.0017557
0.00175522
0.00175461
0.00175387
0.00175302
0.00175209
0.0017511
0.00175007
0.00174904
0.00174807
0.00174721
0.0017465
0.00174601
0.00174572
0.00175619
0.00170579
0.00170547
0.001705
0.00170438
0.00170364
0.00170279
0.00170186
0.00170086
0.00169983
0.00169881
0.00169784
0.00169697
0.00169626
0.00169577
0.00169548
0.00170596
0.00165556
0.00165524
0.00165477
0.00165416
0.00165341
0.00165256
0.00165163
0.00165063
0.0016496
0.00164857
0.0016476
0.00164673
0.00164603
0.00164553
0.00164524
0.00165574
0.00160534
0.00160502
0.00160454
0.00160393
0.00160318
0.00160233
0.00160139
0.00160039
0.00159936
0.00159834
0.00159736
0.00159649
0.00159579
0.0015953
0.001595
0.00160551
0.00155511
0.00155479
0.00155431
0.0015537
0.00155295
0.0015521
0.00155116
0.00155016
0.00154913
0.0015481
0.00154713
0.00154626
0.00154555
0.00154506
0.00154476
0.00155528
0.00150488
0.00150456
0.00150409
0.00150347
0.00150272
0.00150187
0.00150093
0.00149993
0.0014989
0.00149787
0.00149689
0.00149602
0.00149531
0.00149482
0.00149452
0.00150506
0.00145466
0.00145434
0.00145386
0.00145324
0.0014525
0.00145164
0.0014507
0.0014497
0.00144866
0.00144763
0.00144665
0.00144578
0.00144507
0.00144458
0.00144428
0.00145483
0.00140443
0.00140411
0.00140363
0.00140302
0.00140227
0.00140141
0.00140047
0.00139946
0.00139842
0.00139739
0.00139641
0.00139554
0.00139483
0.00139434
0.00139404
0.00140461
0.00135421
0.00135389
0.00135341
0.00135279
0.00135204
0.00135118
0.00135023
0.00134923
0.00134819
0.00134715
0.00134617
0.0013453
0.00134459
0.00134409
0.0013438
0.00135438
0.00130398
0.00130366
0.00130318
0.00130256
0.00130181
0.00130095
0.0013
0.001299
0.00129795
0.00129692
0.00129593
0.00129506
0.00129435
0.00129385
0.00129355
0.00130415
0.00125375
0.00125343
0.00125295
0.00125233
0.00125158
0.00125072
0.00124977
0.00124876
0.00124772
0.00124668
0.0012457
0.00124482
0.0012441
0.0012436
0.0012433
0.00125393
0.00120353
0.00120321
0.00120272
0.0012021
0.00120135
0.00120049
0.00119954
0.00119853
0.00119748
0.00119644
0.00119546
0.00119458
0.00119386
0.00119336
0.00119306
0.0012037
0.0011533
0.00115298
0.0011525
0.00115188
0.00115112
0.00115026
0.00114931
0.0011483
0.00114725
0.0011462
0.00114521
0.00114433
0.00114361
0.00114311
0.00114281
0.00115348
0.00110308
0.00110275
0.00110227
0.00110165
0.00110089
0.00110003
0.00109908
0.00109806
0.00109701
0.00109597
0.00109497
0.00109408
0.00109336
0.00109286
0.00109255
0.00110325
0.00105285
0.00105252
0.00105204
0.00105142
0.00105066
0.0010498
0.00104884
0.00104783
0.00104678
0.00104573
0.00104473
0.00104384
0.00104312
0.0010426
0.0010423
0.00105302
0.00100262
0.0010023
0.00100181
0.00100119
0.00100043
0.000999567
0.000998612
0.000997593
0.000996541
0.000995491
0.000994492
0.000993597
0.000992867
0.000992352
0.000992042
0.00100279
0.000952385
0.00095206
0.000951577
0.000950952
0.000950198
0.000949332
0.000948376
0.000947356
0.000946301
0.000945249
0.000944247
0.000943351
0.000942617
0.000942097
0.000941783
0.000952559
0.000902147
0.000901822
0.000901339
0.000900715
0.000899961
0.000899096
0.00089814
0.000897119
0.000896063
0.000895008
0.000894004
0.000893104
0.000892365
0.00089184
0.00089152
0.000902321
0.000851903
0.000851579
0.000851097
0.000850474
0.000849721
0.000848856
0.000847902
0.000846881
0.000845824
0.000844768
0.000843761
0.000842857
0.000842113
0.000841582
0.000841255
0.000852076
0.00080165
0.000801327
0.000800846
0.000800225
0.000799474
0.000798612
0.000797659
0.00079664
0.000795584
0.000794526
0.000793518
0.000792611
0.000791861
0.000791323
0.000790988
0.000801823
0.000751387
0.000751065
0.000750587
0.000749968
0.00074922
0.000748361
0.000747411
0.000746395
0.00074534
0.000744284
0.000743274
0.000742363
0.000741609
0.000741063
0.000740718
0.000751559
0.000701109
0.00070079
0.000700314
0.000699699
0.000698956
0.000698101
0.000697156
0.000696144
0.000695093
0.000694039
0.00069303
0.000692117
0.000691357
0.000690802
0.000690445
0.00070128
0.000650814
0.000650498
0.000650025
0.000649415
0.000648677
0.000647829
0.000646891
0.000645885
0.00064484
0.000643791
0.000642784
0.000641871
0.000641107
0.000640543
0.000640171
0.000650984
0.000600497
0.000600184
0.000599716
0.000599112
0.000598381
0.000597541
0.000596612
0.000595615
0.000594578
0.000593536
0.000592535
0.000591624
0.000590858
0.000590284
0.000589894
0.000600665
0.000550156
0.000549846
0.000549384
0.000548787
0.000548065
0.000547235
0.000546316
0.000545331
0.000544305
0.000543274
0.000542282
0.000541376
0.00054061
0.000540029
0.000539618
0.000550322
0.000499786
0.00049948
0.000499025
0.000498436
0.000497724
0.000496906
0.000496
0.000495029
0.000494019
0.000493
0.00049202
0.000491124
0.000490362
0.000489776
0.000489347
0.00049995
0.000449384
0.000449083
0.000448634
0.000448055
0.000447355
0.000446551
0.000445661
0.000444706
0.000443712
0.000442711
0.000441746
0.000440863
0.000440109
0.000439524
0.000439083
0.000449545
0.000398945
0.00039865
0.00039821
0.000397641
0.000396954
0.000396165
0.000395292
0.000394357
0.000393383
0.000392402
0.000391458
0.000390591
0.000389851
0.000389272
0.000388829
0.000399104
0.00034847
0.000348181
0.000347749
0.000347192
0.000346519
0.000345747
0.000344893
0.000343979
0.000343028
0.000342072
0.000341153
0.00034031
0.000339591
0.000339024
0.000338589
0.000348626
0.000297955
0.000297672
0.00029725
0.000296705
0.000296048
0.000295294
0.000294461
0.000293571
0.000292647
0.00029172
0.00029083
0.000290019
0.000289329
0.000288784
0.000288367
0.000298108
0.000247401
0.000247125
0.000246712
0.000246181
0.000245539
0.000244805
0.000243995
0.000243132
0.000242238
0.000241344
0.00024049
0.000239718
0.000239066
0.000238556
0.000238173
0.000247551
0.000196811
0.000196542
0.000196139
0.000195622
0.000194998
0.000194284
0.000193499
0.000192664
0.000191803
0.000190946
0.000190134
0.000189409
0.000188807
0.000188352
0.00018803
0.000196957
0.000146189
0.000145927
0.000145536
0.000145033
0.000144427
0.000143735
0.000142975
0.00014217
0.000141343
0.000140527
0.000139763
0.000139094
0.00013856
0.000138188
0.000137968
0.000146331
9.55383e-05
9.5284e-05
9.49045e-05
9.44164e-05
9.38294e-05
9.31596e-05
9.24264e-05
9.16527e-05
9.08647e-05
9.00951e-05
8.93864e-05
8.87873e-05
8.8344e-05
8.80906e-05
8.80172e-05
9.56762e-05
4.48662e-05
4.462e-05
4.42527e-05
4.3781e-05
4.32151e-05
4.25714e-05
4.18696e-05
4.11334e-05
4.03912e-05
3.9678e-05
3.90394e-05
3.85279e-05
3.81978e-05
3.80914e-05
3.82038e-05
4.50001e-05
-5.81353e-06
-6.04958e-06
-6.40167e-06
-6.85233e-06
-7.39057e-06
-7.99999e-06
-8.66047e-06
-9.3478e-06
-1.00318e-05
-1.06753e-05
-1.12291e-05
-1.16366e-05
-1.18358e-05
-1.17752e-05
-1.14528e-05
-5.68484e-06
-5.64695e-05
-5.6691e-05
-5.70209e-05
-5.74421e-05
-5.7943e-05
-5.85066e-05
-5.91135e-05
-5.97386e-05
-6.03512e-05
-6.09114e-05
-6.13681e-05
-6.16594e-05
-6.17165e-05
-6.14803e-05
-6.09401e-05
-5.63482e-05
-0.000107047
-0.000107249
-0.000107549
-0.000107932
-0.000108384
-0.000108891
-0.000109432
-0.000109983
-0.000110513
-0.00011098
-0.000111331
-0.0001115
-0.000111412
-0.000111002
-0.000110253
-0.000106937
-0.000157481
-0.000157659
-0.000157923
-0.000158258
-0.000158655
-0.000159095
-0.000159563
-0.000160032
-0.000160472
-0.00016084
-0.000161081
-0.000161127
-0.0001609
-0.00016033
-0.000159392
-0.000157383
-0.000207697
-0.000207848
-0.000208073
-0.000208359
-0.000208694
-0.000209066
-0.000209455
-0.000209839
-0.000210186
-0.000210455
-0.000210588
-0.000210519
-0.000210165
-0.000209454
-0.000208358
-0.000207613
-0.00025763
-0.000257756
-0.000257942
-0.000258178
-0.000258454
-0.000258757
-0.000259069
-0.000259369
-0.000259627
-0.0002598
-0.000259834
-0.000259659
-0.000259196
-0.000258372
-0.000257154
-0.00025756
-0.000307233
-0.000307336
-0.000307488
-0.000307678
-0.000307899
-0.000308138
-0.000308379
-0.000308601
-0.000308776
-0.000308862
-0.000308807
-0.000308543
-0.000307992
-0.000307084
-0.000305786
-0.000307176
-0.000356481
-0.000356563
-0.000356685
-0.000356836
-0.000357009
-0.000357191
-0.000357369
-0.000357522
-0.000357623
-0.000357634
-0.000357504
-0.00035717
-0.000356555
-0.000355595
-0.000354257
-0.000356435
-0.000405369
-0.000405436
-0.000405532
-0.000405649
-0.000405781
-0.000405915
-0.000406039
-0.000406132
-0.000406171
-0.000406119
-0.000405929
-0.000405543
-0.00040489
-0.000403911
-0.000402576
-0.000405333
-0.000453915
-0.000453966
-0.000454041
-0.000454129
-0.000454226
-0.000454319
-0.000454396
-0.00045444
-0.000454427
-0.000454325
-0.000454091
-0.000453672
-0.000453006
-0.00045204
-0.000450748
-0.000453886
-0.000502146
-0.000502184
-0.000502238
-0.000502301
-0.000502366
-0.000502423
-0.000502461
-0.000502463
-0.000502408
-0.000502268
-0.000502004
-0.000501571
-0.000500915
-0.000499991
-0.000498778
-0.000502125
-0.000550099
-0.000550124
-0.000550159
-0.000550197
-0.000550233
-0.000550257
-0.000550259
-0.000550225
-0.000550137
-0.000549968
-0.000549688
-0.000549256
-0.000548631
-0.000547777
-0.000546671
-0.000550085
-0.000597812
-0.000597825
-0.00059784
-0.000597854
-0.000597862
-0.000597855
-0.000597825
-0.000597759
-0.000597641
-0.000597452
-0.000597164
-0.000596749
-0.000596174
-0.00059541
-0.000594434
-0.000597804
-0.000645318
-0.000645319
-0.000645318
-0.000645309
-0.000645289
-0.000645253
-0.000645192
-0.000645096
-0.000644953
-0.000644747
-0.000644459
-0.00064407
-0.000643558
-0.000642899
-0.000642069
-0.000645317
-0.000692649
-0.000692639
-0.000692623
-0.000692595
-0.000692551
-0.000692486
-0.000692396
-0.000692272
-0.000692106
-0.000691886
-0.000691602
-0.000691245
-0.000690803
-0.000690255
-0.000689575
-0.000692652
-0.000739827
-0.000739809
-0.00073978
-0.000739735
-0.000739671
-0.000739584
-0.000739471
-0.000739325
-0.00073914
-0.000738911
-0.000738636
-0.000738311
-0.000737933
-0.000737488
-0.000736951
-0.000739835
-0.00078688
-0.000786854
-0.000786814
-0.000786757
-0.000786681
-0.000786581
-0.000786455
-0.000786297
-0.000786105
-0.000785877
-0.000785612
-0.000785313
-0.000784983
-0.000784618
-0.000784201
-0.000786892
-0.000833848
-0.000833818
-0.000833771
-0.000833707
-0.000833624
-0.000833518
-0.000833387
-0.000833228
-0.000833037
-0.000832817
-0.000832566
-0.000832289
-0.000831992
-0.00083168
-0.000831346
-0.000833863
-0.000880766
-0.000880734
-0.000880684
-0.000880617
-0.00088053
-0.000880422
-0.00088029
-0.000880132
-0.000879947
-0.000879737
-0.000879503
-0.000879249
-0.000878979
-0.000878704
-0.000878423
-0.000880782
-0.000927648
-0.000927615
-0.000927564
-0.000927495
-0.000927407
-0.000927298
-0.000927168
-0.000927014
-0.000926838
-0.000926641
-0.000926425
-0.000926193
-0.000925951
-0.000925706
-0.000925463
-0.000927665
-0.000974501
-0.000974467
-0.000974415
-0.000974347
-0.000974259
-0.000974152
-0.000974026
-0.00097388
-0.000973714
-0.000973531
-0.000973332
-0.000973122
-0.000972906
-0.000972689
-0.000972479
-0.000974518
-0.00102133
-0.0010213
-0.00102125
-0.00102118
-0.00102109
-0.00102099
-0.00102087
-0.00102073
-0.00102058
-0.00102041
-0.00102023
-0.00102004
-0.00101985
-0.00101966
-0.00101948
-0.00102135
-0.00106814
-0.00106811
-0.00106806
-0.001068
-0.00106791
-0.00106782
-0.0010677
-0.00106758
-0.00106743
-0.00106728
-0.00106711
-0.00106694
-0.00106677
-0.00106661
-0.00106645
-0.00106816
-0.00111494
-0.00111491
-0.00111486
-0.0011148
-0.00111472
-0.00111463
-0.00111453
-0.00111441
-0.00111428
-0.00111413
-0.00111399
-0.00111384
-0.00111369
-0.00111354
-0.00111341
-0.00111495
-0.00116172
-0.00116169
-0.00116165
-0.00116159
-0.00116152
-0.00116144
-0.00116134
-0.00116123
-0.00116111
-0.00116098
-0.00116085
-0.00116072
-0.00116059
-0.00116046
-0.00116034
-0.00116173
-0.0012085
-0.00120848
-0.00120843
-0.00120838
-0.00120831
-0.00120823
-0.00120814
-0.00120804
-0.00120794
-0.00120782
-0.0012077
-0.00120759
-0.00120747
-0.00120736
-0.00120726
-0.00120851
-0.00125527
-0.00125525
-0.00125521
-0.00125516
-0.0012551
-0.00125503
-0.00125494
-0.00125485
-0.00125476
-0.00125465
-0.00125455
-0.00125444
-0.00125434
-0.00125425
-0.00125416
-0.00125529
-0.00130204
-0.00130202
-0.00130198
-0.00130194
-0.00130188
-0.00130182
-0.00130174
-0.00130166
-0.00130157
-0.00130148
-0.00130139
-0.0013013
-0.00130121
-0.00130112
-0.00130105
-0.00130205
-0.00134881
-0.00134878
-0.00134875
-0.00134871
-0.00134866
-0.0013486
-0.00134853
-0.00134846
-0.00134838
-0.0013483
-0.00134822
-0.00134814
-0.00134806
-0.00134799
-0.00134792
-0.00134881
-0.00139556
-0.00139555
-0.00139552
-0.00139548
-0.00139543
-0.00139538
-0.00139532
-0.00139526
-0.00139518
-0.00139511
-0.00139504
-0.00139497
-0.0013949
-0.00139484
-0.00139478
-0.00139557
-0.00144232
-0.00144231
-0.00144228
-0.00144225
-0.00144221
-0.00144216
-0.0014421
-0.00144205
-0.00144198
-0.00144192
-0.00144186
-0.00144179
-0.00144173
-0.00144168
-0.00144163
-0.00144233
-0.00148908
-0.00148906
-0.00148904
-0.00148901
-0.00148897
-0.00148893
-0.00148888
-0.00148883
-0.00148878
-0.00148872
-0.00148866
-0.00148861
-0.00148856
-0.00148851
-0.00148846
-0.00148909
-0.00153583
-0.00153582
-0.0015358
-0.00153577
-0.00153574
-0.0015357
-0.00153566
-0.00153561
-0.00153557
-0.00153552
-0.00153547
-0.00153542
-0.00153537
-0.00153533
-0.00153529
-0.00153584
-0.00158259
-0.00158257
-0.00158255
-0.00158253
-0.0015825
-0.00158247
-0.00158243
-0.00158239
-0.00158235
-0.00158231
-0.00158226
-0.00158222
-0.00158218
-0.00158214
-0.0015821
-0.00158259
-0.00162933
-0.00162932
-0.0016293
-0.00162928
-0.00162926
-0.00162923
-0.0016292
-0.00162916
-0.00162912
-0.00162909
-0.00162905
-0.00162901
-0.00162897
-0.00162894
-0.00162891
-0.00162934
-0.00167608
-0.00167607
-0.00167605
-0.00167603
-0.00167601
-0.00167599
-0.00167596
-0.00167593
-0.00167589
-0.00167586
-0.00167583
-0.00167579
-0.00167576
-0.00167573
-0.0016757
-0.00167609
-0.00172282
-0.00172281
-0.0017228
-0.00172278
-0.00172276
-0.00172274
-0.00172272
-0.00172269
-0.00172266
-0.00172263
-0.0017226
-0.00172257
-0.00172254
-0.00172252
-0.00172249
-0.00172283
-0.00176956
-0.00176956
-0.00176955
-0.00176953
-0.00176951
-0.0017695
-0.00176947
-0.00176945
-0.00176942
-0.0017694
-0.00176937
-0.00176934
-0.00176932
-0.00176929
-0.00176927
-0.00176957
-0.0018163
-0.0018163
-0.00181629
-0.00181628
-0.00181626
-0.00181624
-0.00181623
-0.0018162
-0.00181618
-0.00181615
-0.00181613
-0.00181611
-0.00181608
-0.00181606
-0.00181604
-0.00181631
-0.00186304
-0.00186303
-0.00186302
-0.00186301
-0.001863
-0.00186299
-0.00186297
-0.00186295
-0.00186293
-0.00186291
-0.00186289
-0.00186287
-0.00186284
-0.00186282
-0.0018628
-0.00186305
-0.00190977
-0.00190977
-0.00190976
-0.00190975
-0.00190974
-0.00190972
-0.00190971
-0.00190969
-0.00190967
-0.00190966
-0.00190964
-0.00190962
-0.0019096
-0.00190958
-0.00190956
-0.00190978
-0.0019565
-0.0019565
-0.00195649
-0.00195648
-0.00195647
-0.00195646
-0.00195644
-0.00195643
-0.00195642
-0.0019564
-0.00195638
-0.00195636
-0.00195635
-0.00195633
-0.00195631
-0.00195651
-0.00200322
-0.00200322
-0.00200321
-0.00200321
-0.0020032
-0.00200319
-0.00200317
-0.00200316
-0.00200315
-0.00200314
-0.00200312
-0.0020031
-0.00200309
-0.00200307
-0.00200305
-0.00200323
-0.00204994
-0.00204994
-0.00204993
-0.00204993
-0.00204993
-0.00204992
-0.0020499
-0.00204989
-0.00204988
-0.00204987
-0.00204985
-0.00204984
-0.00204982
-0.00204981
-0.00204979
-0.00204995
-0.00209666
-0.00209666
-0.00209665
-0.00209665
-0.00209664
-0.00209664
-0.00209663
-0.00209661
-0.00209661
-0.00209659
-0.00209658
-0.00209657
-0.00209655
-0.00209654
-0.00209652
-0.00209667
-0.00214338
-0.00214337
-0.00214337
-0.00214336
-0.00214336
-0.00214335
-0.00214334
-0.00214333
-0.00214332
-0.00214331
-0.0021433
-0.00214329
-0.00214328
-0.00214326
-0.00214325
-0.00214338
-0.00219008
-0.00219008
-0.00219008
-0.00219007
-0.00219007
-0.00219006
-0.00219005
-0.00219004
-0.00219004
-0.00219003
-0.00219002
-0.00219001
-0.00219
-0.00218998
-0.00218997
-0.00219008
-0.00223678
-0.00223678
-0.00223678
-0.00223678
-0.00223677
-0.00223677
-0.00223676
-0.00223675
-0.00223675
-0.00223674
-0.00223673
-0.00223672
-0.00223671
-0.0022367
-0.00223668
-0.00223679
-0.00228348
-0.00228348
-0.00228348
-0.00228348
-0.00228347
-0.00228347
-0.00228346
-0.00228346
-0.00228345
-0.00228345
-0.00228344
-0.00228343
-0.00228342
-0.00228341
-0.00228339
-0.00228349
-0.00233018
-0.00233018
-0.00233018
-0.00233017
-0.00233017
-0.00233016
-0.00233016
-0.00233016
-0.00233015
-0.00233014
-0.00233014
-0.00233013
-0.00233012
-0.00233011
-0.0023301
-0.00233018
-0.00237687
-0.00237687
-0.00237687
-0.00237687
-0.00237686
-0.00237686
-0.00237686
-0.00237685
-0.00237684
-0.00237684
-0.00237683
-0.00237683
-0.00237682
-0.00237681
-0.0023768
-0.00237687
-0.00242355
-0.00242355
-0.00242355
-0.00242355
-0.00242355
-0.00242354
-0.00242354
-0.00242354
-0.00242353
-0.00242353
-0.00242352
-0.00242352
-0.00242351
-0.0024235
-0.00242349
-0.00242356
-0.00247023
-0.00247023
-0.00247023
-0.00247023
-0.00247023
-0.00247023
-0.00247022
-0.00247022
-0.00247022
-0.00247021
-0.00247021
-0.0024702
-0.0024702
-0.00247019
-0.00247018
-0.00247024
-0.00251691
-0.00251691
-0.00251691
-0.00251691
-0.00251691
-0.0025169
-0.0025169
-0.0025169
-0.00251689
-0.00251689
-0.00251689
-0.00251688
-0.00251688
-0.00251687
-0.00251686
-0.00251691
-0.00256359
-0.00256359
-0.00256358
-0.00256358
-0.00256358
-0.00256358
-0.00256358
-0.00256357
-0.00256357
-0.00256357
-0.00256356
-0.00256356
-0.00256355
-0.00256355
-0.00256354
-0.00256359
-0.00261025
-0.00261025
-0.00261025
-0.00261025
-0.00261025
-0.00261025
-0.00261025
-0.00261024
-0.00261024
-0.00261024
-0.00261024
-0.00261023
-0.00261023
-0.00261022
-0.00261021
-0.00261025
-0.00265691
-0.00265691
-0.00265691
-0.00265691
-0.00265691
-0.00265691
-0.00265691
-0.00265691
-0.00265691
-0.0026569
-0.0026569
-0.0026569
-0.00265689
-0.00265689
-0.00265688
-0.00265691
-0.00270357
-0.00270357
-0.00270357
-0.00270357
-0.00270357
-0.00270357
-0.00270357
-0.00270357
-0.00270357
-0.00270356
-0.00270356
-0.00270356
-0.00270356
-0.00270355
-0.00270355
-0.00270357
-0.00275023
-0.00275023
-0.00275023
-0.00275023
-0.00275023
-0.00275023
-0.00275023
-0.00275022
-0.00275022
-0.00275022
-0.00275022
-0.00275022
-0.00275021
-0.00275021
-0.00275021
-0.00275023
-0.00279688
-0.00279688
-0.00279688
-0.00279688
-0.00279688
-0.00279688
-0.00279688
-0.00279688
-0.00279688
-0.00279687
-0.00279687
-0.00279687
-0.00279687
-0.00279687
-0.00279686
-0.00279688
-0.00284352
-0.00284352
-0.00284352
-0.00284352
-0.00284352
-0.00284352
-0.00284352
-0.00284352
-0.00284352
-0.00284352
-0.00284352
-0.00284352
-0.00284352
-0.00284352
-0.00284351
-0.00284352
-0.00289016
-0.00289016
-0.00289016
-0.00289016
-0.00289016
-0.00289016
-0.00289016
-0.00289016
-0.00289016
-0.00289016
-0.00289016
-0.00289016
-0.00289016
-0.00289016
-0.00289016
-0.00289016
-0.0029368
-0.0029368
-0.0029368
-0.0029368
-0.0029368
-0.0029368
-0.0029368
-0.0029368
-0.0029368
-0.0029368
-0.0029368
-0.0029368
-0.0029368
-0.0029368
-0.0029368
-0.0029368
-0.00298343
-0.00298344
-0.00298344
-0.00298344
-0.00298344
-0.00298344
-0.00298344
-0.00298344
-0.00298343
-0.00298343
-0.00298344
-0.00298344
-0.00298343
-0.00298344
-0.00298343
-0.00298344
-0.00303007
-0.00303007
-0.00303007
-0.00303006
-0.00303006
-0.00303007
-0.00303006
-0.00303006
-0.00303006
-0.00303007
-0.00303007
-0.00303006
-0.00303007
-0.00303006
-0.00303007
-0.00303007
-0.00307669
-0.00307669
-0.00307669
-0.00307669
-0.00307669
-0.00307669
-0.00307669
-0.00307669
-0.00307669
-0.00307669
-0.00307669
-0.00307669
-0.00307669
-0.00307669
-0.00307669
-0.00307669
)
;

boundaryField
{
    wireUpstream
    {
        type            calculated;
        value           nonuniform List<scalar> 
16
(
-0.0031
-0.0031
-0.0031
-0.0031
-0.0031
-0.0031
-0.0031
-0.0031
-0.0031
-0.0031
-0.0031
-0.0031
-0.0031
-0.0031
-0.0031
-0.0031
)
;
    }
    wireDownstream
    {
        type            calculated;
        value           nonuniform List<scalar> 
16
(
0.003
0.003
0.003
0.003
0.003
0.003
0.003
0.003
0.003
0.003
0.003
0.003
0.003
0.003
0.003
0.003
)
;
    }
    wireTopContact
    {
        type            calculated;
        value           nonuniform List<scalar> 
122
(
0.00275028
0.00270005
0.00264982
0.00259959
0.00254936
0.00249912
0.00244889
0.00239866
0.00234843
0.0022982
0.00224797
0.00219773
0.0021475
0.00209727
0.00204703
0.0019968
0.00194656
0.00189633
0.00184609
0.00179586
0.00174562
0.00169538
0.00164514
0.0015949
0.00154466
0.00149442
0.00144418
0.00139394
0.0013437
0.00129345
0.0012432
0.00119296
0.0011427
0.00109245
0.00104219
0.000991932
0.000941671
0.000891405
0.000841137
0.000790865
0.000740589
0.000690311
0.000640028
0.000589739
0.000539449
0.000489164
0.000438893
0.000388636
0.000338398
0.000288185
0.000238011
0.000187902
0.000137896
8.80252e-05
3.83137e-05
-1.1227e-05
-6.05953e-05
-0.000109795
-0.000158833
-0.000207716
-0.00025645
-0.000305042
-0.000353497
-0.000401823
-0.000450023
-0.0004981
-0.000546056
-0.000593893
-0.000641608
-0.000689197
-0.000736653
-0.000783972
-0.000831169
-0.00087828
-0.000925342
-0.000972376
-0.00101939
-0.00106638
-0.00111334
-0.00116029
-0.00120721
-0.00125412
-0.00130101
-0.00134789
-0.00139475
-0.0014416
-0.00148844
-0.00153527
-0.00158209
-0.00162889
-0.00167569
-0.00172248
-0.00176926
-0.00181603
-0.00186279
-0.00190955
-0.0019563
-0.00200304
-0.00204978
-0.00209652
-0.00214324
-0.00218996
-0.00223668
-0.00228339
-0.00233009
-0.00237679
-0.00242349
-0.00247017
-0.00251685
-0.00256353
-0.00261021
-0.00265688
-0.00270354
-0.0027502
-0.00279686
-0.00284351
-0.00289015
-0.00293679
-0.00298343
-0.00303007
-0.00307669
0.0028877
)
;
    }
    front
    {
        type            wedge;
    }
    back
    {
        type            wedge;
    }
}


// ************************************************************************* //
