/*--------------------------------*- C++ -*----------------------------------*\
| =========                 |                                                 |
| \\      /  F ield         | foam-extend: Open Source CFD                    |
|  \\    /   O peration     | Version:     4.1-20200408                       |
|   \\  /    A nd           | Web:         http://www.foam-extend.org         |
|    \\/     M anipulation  |                                                 |
\*---------------------------------------------------------------------------*/
FoamFile
{
    version     2.0;
    format      ascii;
    class       volScalarField;
    location    "0.0515000";
    object      epsilonPEq;
}
// * * * * * * * * * * * * * * * * * * * * * * * * * * * * * * * * * * * * * //

dimensions      [0 0 0 0 0 0 0];

internalField   nonuniform List<scalar> 
1952
(
0.0691163
0.069221
0.0694317
0.0696476
0.0698954
0.0701436
0.070403
0.0704787
0.0703506
0.0696952
0.0686125
0.0667174
0.0640016
0.0616081
0.0603394
0.069019
0.0692004
0.0693052
0.069516
0.069732
0.0699797
0.0702293
0.0704894
0.0705651
0.0704366
0.069782
0.0686993
0.0668031
0.0640848
0.0616916
0.0604233
0.069103
0.0692846
0.0693895
0.0696004
0.0698165
0.070064
0.0703154
0.0705763
0.0706522
0.0705237
0.0698698
0.0687855
0.0668878
0.0641668
0.0617746
0.0605073
0.069187
0.0693691
0.0694742
0.0696852
0.0699015
0.070149
0.070401
0.0706624
0.0707384
0.0706097
0.069958
0.0688727
0.0669734
0.0642495
0.0618573
0.0605907
0.0692714
0.0694531
0.0695583
0.0697693
0.0699858
0.070233
0.0704872
0.0707494
0.0708253
0.0706965
0.0700457
0.0689598
0.0670589
0.0643319
0.06194
0.060674
0.0693553
0.0695378
0.0696431
0.0698543
0.0700709
0.070318
0.0705731
0.070836
0.070912
0.0707827
0.0701331
0.0690465
0.0671438
0.0644137
0.0620228
0.0607577
0.0694399
0.0696223
0.0697277
0.069939
0.0701557
0.0704027
0.0706589
0.0709222
0.070998
0.0708681
0.0702199
0.0691331
0.0672287
0.0644955
0.0621059
0.0608418
0.0695243
0.0697068
0.0698122
0.0700235
0.0702401
0.0704868
0.0707444
0.0710082
0.071084
0.0709535
0.0703073
0.0692205
0.0673144
0.0645784
0.0621891
0.0609256
0.0696086
0.0697912
0.0698966
0.0701079
0.0703244
0.0705709
0.0708304
0.0710949
0.0711708
0.0710398
0.0703946
0.0693077
0.0674002
0.0646611
0.0622722
0.0610094
0.069693
0.0698759
0.0699814
0.0701927
0.0704094
0.0706556
0.0709162
0.0711814
0.0712574
0.0711259
0.0704818
0.0693947
0.0674856
0.0647435
0.0623554
0.0610933
0.0697776
0.0699604
0.070066
0.0702774
0.0704942
0.0707402
0.0710021
0.0712677
0.0713438
0.0712117
0.070569
0.0694818
0.0675711
0.0648262
0.0624389
0.0611777
0.0698619
0.0700449
0.0701505
0.070362
0.0705788
0.0708247
0.071088
0.0713542
0.0714304
0.0712978
0.0706564
0.0695691
0.0676568
0.0649091
0.0625225
0.0612618
0.0699463
0.0701295
0.0702352
0.0704468
0.0706637
0.0709094
0.0711741
0.0714409
0.0715171
0.071384
0.0707441
0.0696567
0.0677428
0.0649922
0.0626056
0.0613454
0.0700308
0.0702142
0.0703199
0.0705318
0.0707487
0.0709942
0.0712605
0.0715279
0.0716043
0.0714706
0.0708319
0.0697444
0.0678288
0.0650754
0.062689
0.0614291
0.0701153
0.0702993
0.070405
0.0706172
0.0708342
0.0710805
0.0713472
0.071615
0.0716915
0.0715572
0.0709189
0.069831
0.0679135
0.0651572
0.0627718
0.0615127
0.0702004
0.0703846
0.0704901
0.0707028
0.0709199
0.071167
0.0714334
0.0717012
0.0717776
0.0716426
0.0710064
0.0699182
0.0679989
0.06524
0.0628543
0.0615961
0.0702858
0.0704696
0.070575
0.0707879
0.0710048
0.0712539
0.0715204
0.0717882
0.0718645
0.0717289
0.0710934
0.0700047
0.0680834
0.065322
0.0629374
0.0616797
0.0703707
0.0705553
0.0706608
0.0708736
0.0710902
0.0713401
0.0716068
0.0718747
0.0719507
0.0718145
0.0711799
0.0700904
0.068167
0.065406
0.0630206
0.0617631
0.0704563
0.0706404
0.070746
0.0709587
0.071175
0.0714258
0.0716926
0.0719604
0.0720361
0.0718991
0.0712668
0.0701771
0.0682523
0.0654912
0.0631041
0.0618468
0.0705413
0.070725
0.0708305
0.0710431
0.071259
0.0715117
0.0717791
0.0720472
0.0721227
0.0719852
0.0713537
0.0702635
0.0683371
0.0655758
0.063188
0.0619309
0.0706259
0.0708098
0.0709154
0.071128
0.0713437
0.0715972
0.0718651
0.0721334
0.0722088
0.0720707
0.0714404
0.0703495
0.0684212
0.0656607
0.0632723
0.0620155
0.0707107
0.0708939
0.0709995
0.0712123
0.0714278
0.0716824
0.0719508
0.0722194
0.0722946
0.0721558
0.0715277
0.0704366
0.0685065
0.0657457
0.0633568
0.0621002
0.0707946
0.0709777
0.0710834
0.0712961
0.0715114
0.0717682
0.0720373
0.0723062
0.0723816
0.0722424
0.0716152
0.0705236
0.0685916
0.0658305
0.0634408
0.0621843
0.0708784
0.071062
0.0711679
0.0713808
0.0715961
0.0718538
0.0721236
0.0723929
0.0724683
0.0723285
0.0717025
0.0706105
0.0686764
0.0659149
0.0635248
0.0622687
0.0709626
0.0711463
0.0712523
0.0714654
0.0716806
0.0719395
0.0722099
0.0724795
0.0725549
0.0724144
0.0717894
0.0706969
0.0687609
0.0659992
0.0636091
0.0623531
0.0710467
0.0712309
0.071337
0.0715502
0.0717653
0.0720252
0.0722961
0.0725658
0.0726411
0.0725
0.0718761
0.0707831
0.0688451
0.066084
0.0636931
0.0624375
0.0711312
0.0713157
0.0714218
0.071635
0.0718498
0.0721108
0.0723821
0.0726519
0.072727
0.0725853
0.0719636
0.0708703
0.0689304
0.0661683
0.0637774
0.0625221
0.0712159
0.0714004
0.0715065
0.0717197
0.0719342
0.072197
0.0724689
0.072739
0.0728141
0.0726718
0.0720503
0.0709564
0.0690146
0.0662531
0.0638615
0.0626065
0.0713006
0.0714859
0.0715921
0.0718053
0.0720196
0.0722827
0.072555
0.0728251
0.0729001
0.0727571
0.0721378
0.0710435
0.0690998
0.0663375
0.0639456
0.0626911
0.071386
0.0715707
0.0716768
0.0718901
0.0721041
0.0723692
0.072642
0.0729124
0.0729873
0.0728437
0.0722248
0.0711301
0.0691846
0.0664221
0.0640299
0.0627756
0.0714707
0.0716562
0.0717624
0.0719757
0.0721895
0.0724551
0.0727285
0.072999
0.0730739
0.0729296
0.0723121
0.0712167
0.0692692
0.0665068
0.0641144
0.0628601
0.0715561
0.0717411
0.0718474
0.0720607
0.0722743
0.0725413
0.0728151
0.0730857
0.0731604
0.0730155
0.0723996
0.071304
0.0693546
0.0665919
0.0641991
0.0629448
0.0716409
0.0718261
0.0719324
0.0721457
0.072359
0.0726276
0.0729021
0.0731729
0.0732477
0.0731022
0.0724873
0.0713912
0.0694399
0.066677
0.0642835
0.0630291
0.0717258
0.0719113
0.0720177
0.0722311
0.0724443
0.0727139
0.0729889
0.07326
0.0733347
0.0731886
0.072575
0.0714784
0.0695252
0.066762
0.0643674
0.0631131
0.071811
0.0719964
0.0721028
0.0723163
0.0725293
0.0728001
0.0730757
0.0733471
0.0734217
0.073275
0.0726627
0.0715658
0.0696106
0.0668462
0.0644513
0.0631974
0.0718959
0.0720816
0.0721881
0.0724016
0.0726144
0.0728865
0.0731626
0.0734342
0.0735088
0.0733616
0.0727495
0.0716518
0.0696945
0.0669306
0.0645352
0.0632815
0.071981
0.0721668
0.0722733
0.072487
0.0726996
0.0729721
0.0732486
0.0735202
0.0735947
0.0734466
0.0728365
0.0717383
0.0697791
0.0670149
0.064619
0.0633659
0.0720662
0.0722513
0.0723578
0.0725714
0.0727837
0.073058
0.0733349
0.0736067
0.073681
0.0735324
0.0729233
0.0718247
0.0698636
0.0670989
0.0647033
0.0634503
0.0721506
0.072336
0.0724426
0.0726561
0.0728682
0.0731434
0.073421
0.0736929
0.0737672
0.0736179
0.0730099
0.0719106
0.0699474
0.0671836
0.0647877
0.063535
0.0722353
0.0724202
0.0725269
0.0727405
0.0729524
0.0732286
0.0735066
0.0737786
0.0738528
0.0737028
0.0730971
0.0719977
0.0700328
0.0672684
0.0648721
0.0636194
0.0723194
0.072504
0.0726107
0.0728243
0.0730359
0.0733143
0.073593
0.0738655
0.0739398
0.0737894
0.0731845
0.0720847
0.070118
0.0673531
0.0649557
0.0637033
0.0724031
0.0725883
0.0726952
0.0729089
0.0731206
0.0733998
0.0736793
0.0739521
0.0740265
0.0738756
0.0732718
0.0721715
0.0702029
0.067437
0.0650396
0.0637872
0.0724872
0.0726723
0.0727794
0.0729933
0.073205
0.0734854
0.0737655
0.0740386
0.074113
0.0739615
0.073358
0.0722572
0.0702866
0.0675214
0.0651246
0.0638718
0.0725711
0.0727566
0.0728637
0.0730777
0.0732894
0.0735703
0.0738509
0.0741241
0.0741984
0.0740462
0.073445
0.0723437
0.0703711
0.0676051
0.0652094
0.0639563
0.0726553
0.0728405
0.0729475
0.0731611
0.073373
0.0736559
0.0739371
0.0742104
0.0742846
0.0741319
0.073531
0.0724292
0.0704547
0.0676891
0.0652942
0.0640409
0.0727391
0.0729252
0.0730319
0.0732453
0.0734574
0.0737408
0.0740223
0.0742958
0.0743698
0.0742165
0.0736177
0.0725154
0.0705389
0.0677726
0.0653787
0.0641253
0.0728236
0.0730088
0.0731156
0.0733291
0.0735409
0.0738261
0.0741081
0.0743818
0.0744557
0.0743018
0.0737037
0.072601
0.0706227
0.0678567
0.0654636
0.06421
0.0729073
0.0730929
0.0731997
0.0734134
0.0736249
0.0739108
0.0741934
0.0744674
0.0745412
0.0743867
0.0737906
0.0726875
0.0707072
0.0679402
0.065548
0.0642943
0.0729913
0.0731765
0.0732833
0.0734972
0.0737086
0.0739962
0.0742794
0.0745537
0.0746275
0.0744724
0.0738768
0.0727732
0.070791
0.0680246
0.0656326
0.0643787
0.0730748
0.0732605
0.0733674
0.0735815
0.0737928
0.074081
0.0743649
0.0746394
0.0747132
0.0745575
0.0739641
0.0728601
0.070876
0.0681081
0.0657169
0.0644256
0.0731587
0.0733441
0.0734511
0.0736653
0.0738765
0.0741668
0.0744513
0.0747261
0.0748
0.0746437
0.0740501
0.0729455
0.0709595
0.068192
0.0658014
0.0643102
0.0732422
0.0734285
0.0735356
0.07375
0.0739612
0.0742516
0.0745366
0.0748116
0.0748854
0.0747284
0.0741369
0.0730317
0.0710436
0.0682755
0.065874
0.0639094
0.0733265
0.0735123
0.0736193
0.0738338
0.0740448
0.0743371
0.0746226
0.0748977
0.0749714
0.0748139
0.0742231
0.0731175
0.0711276
0.0683598
0.0656655
0.0630206
0.0734102
0.0735967
0.0737037
0.0739183
0.0741291
0.0744221
0.0747082
0.0749835
0.0750572
0.0748991
0.0743102
0.0732041
0.0712122
0.0683378
0.0649613
0.0615296
0.0734945
0.0736809
0.0737879
0.0740026
0.0742132
0.0745078
0.0747944
0.07507
0.0751436
0.0749849
0.0742438
0.0729348
0.0706777
0.0675188
0.0635807
0.0595149
0.0735786
0.0737655
0.0738725
0.0740873
0.0742978
0.074521
0.0746692
0.0747582
0.0746219
0.0742274
0.0732362
0.0716494
0.0690957
0.0656992
0.0614537
0.057069
0.0736632
0.0735633
0.0735983
0.0736942
0.0737561
0.0737853
0.0737036
0.0735164
0.0730848
0.0723807
0.0711164
0.069269
0.0665021
0.0629734
0.0586452
0.0542312
0.073489
0.0725354
0.0724588
0.0723792
0.0722273
0.0720103
0.0716668
0.0711949
0.0704804
0.0694972
0.0680064
0.0659643
0.0630923
0.0595395
0.0553278
0.0511245
0.0725084
0.0703104
0.0701258
0.0698816
0.0695334
0.0690964
0.0685266
0.0678221
0.0668918
0.0657044
0.0640691
0.0619236
0.0590629
0.0556033
0.0516767
0.047866
0.0703334
0.0666937
0.0664408
0.0660905
0.0656171
0.065041
0.0643327
0.0634918
0.062446
0.0611573
0.0594774
0.0573269
0.0545824
0.0513188
0.0477964
0.0444965
0.0667534
0.0617017
0.0614373
0.0610625
0.0605609
0.0599525
0.0592152
0.0583483
0.0572944
0.0560098
0.0543828
0.0523199
0.0497772
0.0467904
0.0437501
0.0410353
0.0617751
0.0555642
0.055339
0.055013
0.0545709
0.0540265
0.0533589
0.0525647
0.0515959
0.0504065
0.0489136
0.0470165
0.0447415
0.0420944
0.0395892
0.0375104
0.0556283
0.048664
0.0485062
0.0482717
0.0479419
0.0475222
0.0469885
0.0463333
0.0455138
0.0444843
0.0431835
0.0415111
0.0395513
0.0372934
0.0353621
0.0339571
0.0487043
0.0414532
0.0413621
0.0412224
0.0410125
0.0407312
0.0403504
0.0398595
0.0392167
0.0383805
0.0373025
0.0358929
0.0342781
0.0324488
0.0311202
0.0304164
0.0414673
0.0343662
0.0343167
0.0342413
0.0341186
0.0339462
0.0336945
0.0333527
0.0328781
0.0322364
0.031385
0.0302541
0.0289972
0.0276255
0.0269181
0.0269292
0.0343631
0.0277495
0.0277062
0.0276472
0.027556
0.0274351
0.0272578
0.0270181
0.0266724
0.0261977
0.0255518
0.0246948
0.0237932
0.0228975
0.0228155
0.0235326
0.0277436
0.0218201
0.0217544
0.0216696
0.0215542
0.0214209
0.0212503
0.0210474
0.0207697
0.0204114
0.0199285
0.0193211
0.0187585
0.0183463
0.0188757
0.0202567
0.0218231
0.0166581
0.0165622
0.0164334
0.0162604
0.0160664
0.0158429
0.0156104
0.0153312
0.0150231
0.0146436
0.0142443
0.0139904
0.014053
0.0151537
0.0171182
0.0166734
0.0122341
0.012121
0.0119599
0.0117308
0.0114628
0.0111562
0.0108479
0.0105076
0.010182
0.00983757
0.00958813
0.00959235
0.0100894
0.0116787
0.0141076
0.0122567
0.00847137
0.00835911
0.00819226
0.00793882
0.00762426
0.007249
0.00685936
0.00643043
0.00603826
0.0056666
0.00549671
0.00568184
0.00651599
0.00843884
0.011169
0.0084943
0.00528854
0.00517626
0.00501222
0.00476478
0.00445259
0.0040606
0.00363203
0.00314297
0.00269229
0.00228613
0.00215665
0.00243502
0.00342454
0.00541862
0.0082199
0.00531295
0.00255548
0.00242469
0.00224482
0.00201672
0.00177446
0.00146804
0.00112508
0.00072665
0.000369574
6.86922e-05
2.3792e-05
0.00029108
0.00109229
0.00274551
0.00530656
0.00259006
0.000405294
0.000284691
0.000125867
0
0
0
0
0
0
0
0
0
0
0.000781231
0.00274563
0.000441086
0
0
0
0
0
0
0
0
0
0
0
0
0
0
0.000902195
0
0
0
0
0
0
0
0
0
0
0
0
0
0
0
0
0
0
0
0
0
0
0
0
0
0
0
0
0
0
0
0
0
0
0
0
0
0
0
0
0
0
0
0
0
0
0
0
0
0
0
0
0
0
0
0
0
0
0
0
0
0
0
0
0
0
0
0
0
0
0
0
0
0
0
0
0
0
0
0
0
0
0
0
0
0
0
0
0
0
0
0
0
0
0
0
0
0
0
0
0
0
0
0
0
0
0
0
0
0
0
0
0
0
0
0
0
0
0
0
0
0
0
0
0
0
0
0
0
0
0
0
0
0
0
0
0
0
0
0
0
0
0
0
0
0
0
0
0
0
0
0
0
0
0
0
0
0
0
0
0
0
0
0
0
0
0
0
0
0
0
0
0
0
0
0
0
0
0
0
0
0
0
0
0
0
0
0
0
0
0
0
0
0
0
0
0
0
0
0
0
0
0
0
0
0
0
0
0
0
0
0
0
0
0
0
0
0
0
0
0
0
0
0
0
0
0
0
0
0
0
0
0
0
0
0
0
0
0
0
0
0
0
0
0
0
0
0
0
0
0
0
0
0
0
0
0
0
0
0
0
0
0
0
0
0
0
0
0
0
0
0
0
0
0
0
0
0
0
0
0
0
0
0
0
0
0
0
0
0
0
0
0
0
0
0
0
0
0
0
0
0
0
0
0
0
0
0
0
0
0
0
0
0
0
0
0
0
0
0
0
0
0
0
0
0
0
0
0
0
0
0
0
0
0
0
0
0
0
0
0
0
0
0
0
0
0
0
0
0
0
0
0
0
0
0
0
0
0
0
0
0
0
0
0
0
0
0
0
0
0
0
0
0
0
0
0
0
0
0
0
0
0
0
0
0
0
0
0
0
0
0
0
0
0
0
0
0
0
0
0
0
0
0
0
0
0
0
0
0
0
0
0
0
0
0
0
0
0
0
0
0
0
0
0
0
0
0
0
0
0
0
0
0
0
0
0
0
0
0
0
0
0
0
0
0
0
0
0
0
0
0
0
0
0
0
0
0
0
0
0
0
0
0
0
0
0
0
0
0
0
0
0
0
0
0
0
0
0
0
0
0
0
0
0
0
0
0
0
0
0
0
0
0
0
0
0
0
0
0
0
0
0
0
0
0
0
0
0
0
0
0
0
0
0
0
0
0
0
0
0
0
0
0
0
0
0
0
0
0
0
0
0
0
0
0
0
0
0
0
0
0
0
0
0
0
0
0
0
0
0
0
0
0
0
0
0
0
0
0
0
0
0
0
0
0
0
0
0
0
0
0
0
0
0
0
0
0
0
0
0
0
0
0
0
0
0
0
0
0
0
0
0
0
0
0
0
0
0
0
0
0
0
0
0
0
0
0
0
0
0
0
0
0
0
0
0
0
0
0
0
0
0
0
0
0
0
0
0
0
0
0
0
0
0
0
0
0
0
0
0
0
0
0
0
0
0
0
0
0
0
0
0
0
0
0
0
0
0
0
0
0
0
0
0
0
0
0
0
0
0
0
0
0
0
0
0
0
0
0
0
0
0
0
0
0
0
0
0
0
0
0
0
0
0
0
0
0
0
0
0
0
0
0
0
0
0
0
0
0
0
0
0
0
0
0
0
0
0
0
0
0
0
0
0
0
0
0
0
0
0
0
0
0
0
0
0
0
0
0
0
0
0
0
0
0
0
0
0
0
0
0
0
0
0
0
0
0
0
0
0
0
0
0
0
0
0
0
0
)
;

boundaryField
{
    wireUpstream
    {
        type            calculated;
        value           uniform 0;
    }
    wireDownstream
    {
        type            calculated;
        value           nonuniform List<scalar> 
16
(
0.0691163
0.069221
0.0694317
0.0696476
0.0698954
0.0701436
0.070403
0.0704787
0.0703506
0.0696952
0.0686125
0.0667174
0.0640016
0.0616081
0.0603394
0.069019
)
;
    }
    wireTopContact
    {
        type            calculated;
        value           nonuniform List<scalar> 
122
(
0.0601879
0.0602709
0.0603537
0.0604363
0.0605198
0.0606037
0.0606873
0.0607709
0.0608545
0.0609387
0.0610226
0.061106
0.0611895
0.0612729
0.0613561
0.0614396
0.061523
0.0616066
0.0616905
0.0617749
0.0618595
0.0619435
0.0620277
0.062112
0.0621962
0.0622807
0.062365
0.0624494
0.0625338
0.0626181
0.0627027
0.0627868
0.0628708
0.0629548
0.0630389
0.0631231
0.0632073
0.063292
0.0633762
0.0634599
0.0635436
0.063628
0.0637123
0.0637968
0.063881
0.0639654
0.0640496
0.0641338
0.06419
0.064076
0.0636641
0.0627554
0.0612444
0.0592234
0.0568006
0.0539921
0.0509067
0.0476611
0.0442966
0.0408347
0.0373069
0.0337518
0.030214
0.026737
0.0233589
0.0201099
0.0170045
0.0140322
0.0111349
0.0082236
0.00533665
0.00278198
0.000917256
0
0
0
0
0
0
0
0
0
0
0
0
0
0
0
0
0
0
0
0
0
0
0
0
0
0
0
0
0
0
0
0
0
0
0
0
0
0
0
0
0
0
0
0
0
0
0
0
0.0601048
)
;
    }
    front
    {
        type            wedge;
    }
    back
    {
        type            wedge;
    }
}


// ************************************************************************* //
