/*--------------------------------*- C++ -*----------------------------------*\
| =========                 |                                                 |
| \\      /  F ield         | foam-extend: Open Source CFD                    |
|  \\    /   O peration     | Version:     4.1-20200408                       |
|   \\  /    A nd           | Web:         http://www.foam-extend.org         |
|    \\/     M anipulation  |                                                 |
\*---------------------------------------------------------------------------*/
FoamFile
{
    version     2.0;
    format      ascii;
    class       volTensorField;
    location    "0.0515000";
    object      grad(DU);
}
// * * * * * * * * * * * * * * * * * * * * * * * * * * * * * * * * * * * * * //

dimensions      [0 0 0 0 0 0 0];

internalField   nonuniform List<tensor> 
1952
(
(1.54966e-06 -1.44075e-05 7.13221e-11 5.08259e-07 -1.54387e-05 5.7123e-13 1.52268e-14 1.10211e-13 -1.63449e-05)
(1.3465e-06 -3.92102e-06 4.89779e-11 1.0012e-06 -1.65252e-05 -1.84276e-13 -1.20399e-14 -2.82555e-13 -1.54849e-05)
(8.92493e-07 -2.69198e-05 -5.21523e-11 1.30962e-06 -1.58309e-05 -3.13867e-12 -1.50261e-14 8.34067e-14 -1.6438e-05)
(5.05605e-07 -1.37835e-05 -1.47905e-10 1.83862e-06 -1.63653e-05 -6.85559e-14 5.8637e-14 -9.98237e-14 -1.55685e-05)
(-3.18582e-07 -3.99233e-05 4.29461e-11 2.05388e-06 -1.61422e-05 5.77116e-12 3.21738e-14 -2.64454e-13 -1.63757e-05)
(-8.83484e-07 -2.77622e-05 2.19633e-10 2.67491e-06 -1.61483e-05 2.82304e-12 -1.09246e-13 1.90008e-13 -1.56404e-05)
(-2.10068e-06 -5.43018e-05 5.45786e-11 3.64173e-06 -1.59844e-05 -5.03333e-12 8.62344e-14 -9.29618e-13 -1.62449e-05)
(-3.15454e-06 -4.44599e-05 -1.11655e-10 4.93805e-06 -1.53596e-05 -2.1214e-12 3.68565e-13 -1.18239e-12 -1.5589e-05)
(-5.00833e-06 -7.18915e-05 2.03236e-11 6.43747e-06 -1.47128e-05 5.48922e-12 3.25888e-14 -1.56699e-13 -1.59571e-05)
(-6.71014e-06 -6.62962e-05 1.10933e-10 8.47685e-06 -1.32628e-05 6.63338e-14 -4.23395e-13 9.97655e-13 -1.52711e-05)
(-9.35802e-06 -9.4323e-05 -1.69596e-11 1.26804e-05 -1.14654e-05 -5.38136e-12 1.89642e-13 8.06236e-13 -1.53643e-05)
(-1.24589e-05 -9.20222e-05 -6.39589e-11 2.01656e-05 -7.96043e-06 3.02375e-13 9.20746e-13 -4.59925e-13 -1.45108e-05)
(-1.68917e-05 -0.000124346 8.14586e-12 3.41348e-05 -4.1246e-06 4.706e-12 2.76886e-14 -3.42783e-14 -1.41478e-05)
(-2.23796e-05 -0.000133036 9.69474e-11 6.39868e-05 3.61092e-06 1.06097e-12 -4.21244e-12 -2.75949e-13 -1.29591e-05)
(-3.05049e-05 -0.000177598 2.54877e-11 0.000127764 1.15482e-05 -9.13424e-13 -4.0155e-12 -7.02787e-13 -1.177e-05)
(1.65843e-06 8.28409e-07 1.67389e-11 3.86899e-07 -1.65705e-05 -5.32481e-13 1.06272e-14 -1.32532e-12 -1.57563e-05)
(-9.37794e-07 -3.76245e-06 -7.4321e-16 8.20426e-07 -8.15347e-06 1.95594e-13 2.70533e-14 3.89931e-14 -8.50799e-06)
(-1.05557e-06 -5.66417e-06 1.56242e-15 1.68312e-06 -8.40097e-06 -2.07291e-13 -2.37524e-14 -2.02874e-13 -8.17715e-06)
(-1.28768e-06 -8.70681e-06 5.44981e-16 2.14189e-06 -7.95969e-06 -1.45262e-12 -2.00326e-14 5.80852e-14 -8.42152e-06)
(-1.456e-06 -1.03939e-05 -3.04654e-15 3.11014e-06 -7.94376e-06 5.14993e-13 1.43335e-13 1.46699e-13 -8.03654e-06)
(-1.90211e-06 -1.38446e-05 -4.63586e-17 3.58931e-06 -7.47074e-06 2.70575e-12 5.67387e-14 -1.19212e-13 -8.19398e-06)
(-2.28907e-06 -1.55762e-05 2.00141e-15 4.62766e-06 -7.09625e-06 3.66405e-13 -1.87419e-13 -9.33753e-14 -7.79017e-06)
(-3.0351e-06 -1.931e-05 1.07075e-15 5.87436e-06 -6.40761e-06 -2.69389e-12 1.89774e-13 -3.85856e-13 -7.82193e-06)
(-3.4793e-06 -2.12047e-05 -9.81736e-16 7.5195e-06 -5.70573e-06 -4.35444e-13 5.98615e-13 -3.17939e-13 -7.37005e-06)
(-4.32159e-06 -2.4998e-05 -5.19286e-17 9.15955e-06 -4.72555e-06 2.4026e-12 5.62397e-14 -6.09036e-14 -7.27851e-06)
(-4.96176e-06 -2.69083e-05 -1.43385e-15 1.11521e-05 -3.53036e-06 -4.89829e-13 -5.60763e-13 3.02328e-13 -6.75991e-06)
(-5.92201e-06 -3.04938e-05 1.53191e-15 1.44818e-05 -1.92631e-06 -2.21533e-12 -4.46633e-15 3.54052e-13 -6.52429e-06)
(-5.96816e-06 -3.19228e-05 2.84118e-15 1.82821e-05 -3.43417e-07 3.38047e-13 3.515e-13 -3.12727e-13 -5.88714e-06)
(-5.24899e-06 -3.42308e-05 -4.41394e-16 2.24513e-05 1.17676e-06 1.81765e-12 3.56395e-14 -9.52678e-15 -5.52518e-06)
(-1.79675e-06 -3.40945e-05 -2.90911e-15 2.69302e-05 1.79501e-06 2.48541e-13 -2.23897e-13 6.20079e-13 -4.84814e-06)
(7.96327e-06 -3.35271e-05 7.12036e-16 3.20204e-05 -8.63078e-07 -5.35469e-13 4.60693e-14 5.95697e-14 -4.54207e-06)
(-9.01977e-07 -1.55496e-06 1.86538e-17 6.0871e-07 -8.58512e-06 -2.99065e-13 2.07948e-14 -6.96304e-13 -8.31518e-06)
(-3.56388e-06 -3.18563e-06 -5.19419e-16 8.58847e-07 -5.98487e-06 1.40273e-13 3.20787e-14 8.19465e-15 -6.10126e-06)
(-3.70127e-06 -4.91286e-06 1.12025e-15 1.78807e-06 -5.91457e-06 -1.52046e-13 -2.23789e-14 -1.94411e-13 -5.99361e-06)
(-3.89538e-06 -7.33281e-06 5.02131e-16 2.23462e-06 -5.59154e-06 -1.03045e-12 -2.04524e-14 5.70802e-14 -5.97373e-06)
(-4.06171e-06 -8.94047e-06 -2.18359e-15 3.26772e-06 -5.3678e-06 3.70392e-13 1.61316e-13 2.66707e-13 -5.77875e-06)
(-4.44124e-06 -1.16277e-05 -2.19828e-16 3.88479e-06 -4.84915e-06 1.88471e-12 6.04642e-14 -7.39084e-14 -5.70745e-06)
(-4.80113e-06 -1.32536e-05 1.41006e-15 5.09587e-06 -4.32536e-06 2.55433e-13 -1.9499e-13 -2.20009e-13 -5.43242e-06)
(-5.42379e-06 -1.6067e-05 9.44103e-16 6.30386e-06 -3.53591e-06 -1.81559e-12 2.20143e-13 -2.01632e-13 -5.27141e-06)
(-5.73025e-06 -1.7699e-05 -4.72873e-16 7.93151e-06 -2.80981e-06 -2.89915e-13 6.4599e-13 -5.71377e-15 -4.90725e-06)
(-6.29711e-06 -2.04701e-05 -4.10401e-16 9.75091e-06 -1.81418e-06 1.54196e-12 5.9058e-14 -2.97218e-14 -4.67118e-06)
(-6.65137e-06 -2.19572e-05 -7.25378e-16 1.19058e-05 -7.62622e-07 -3.06613e-13 -5.86671e-13 6.09435e-14 -4.23065e-06)
(-7.10226e-06 -2.43285e-05 1.15677e-15 1.49215e-05 4.68729e-07 -1.32686e-12 -6.3978e-14 1.80259e-13 -3.90753e-06)
(-6.59437e-06 -2.50872e-05 1.64721e-15 1.82371e-05 1.30763e-06 1.9521e-13 3.42862e-13 -2.11947e-13 -3.39929e-06)
(-5.59311e-06 -2.63619e-05 -4.13519e-16 2.21404e-05 1.94977e-06 1.0098e-12 3.5916e-14 -2.12737e-15 -3.06945e-06)
(-3.37989e-06 -2.58332e-05 -1.56243e-15 2.59019e-05 1.90045e-06 1.33901e-13 -1.20056e-13 4.21142e-13 -2.61208e-06)
(5.30048e-07 -2.57352e-05 4.72013e-16 2.73589e-05 6.95144e-07 -2.60369e-13 3.79427e-13 -1.33967e-14 -2.39876e-06)
(-3.55704e-06 -1.33087e-06 1.40719e-17 5.98785e-07 -6.1111e-06 -2.18674e-13 2.09549e-14 -5.03592e-13 -6.07692e-06)
(-6.28698e-06 -2.8005e-06 -3.36687e-16 9.51998e-07 -3.87077e-06 9.0922e-14 4.25587e-14 5.90147e-15 -3.95499e-06)
(-6.44172e-06 -4.51399e-06 7.27166e-16 2.00813e-06 -3.72422e-06 -9.84511e-14 -2.03471e-14 -1.34504e-13 -3.87892e-06)
(-6.65938e-06 -6.38334e-06 3.25642e-16 2.47901e-06 -3.42925e-06 -6.56281e-13 -2.29063e-14 3.4945e-14 -3.80447e-06)
(-6.86718e-06 -8.06559e-06 -1.38021e-15 3.63739e-06 -3.12838e-06 2.33883e-13 1.78607e-13 2.01801e-13 -3.64802e-06)
(-7.27833e-06 -1.00111e-05 -1.4508e-16 4.31739e-06 -2.6082e-06 1.16153e-12 6.70569e-14 -4.05436e-14 -3.51738e-06)
(-7.57671e-06 -1.16317e-05 8.51685e-16 5.61471e-06 -2.08955e-06 1.53986e-13 -2.07085e-13 -1.47845e-13 -3.27626e-06)
(-8.10442e-06 -1.3507e-05 5.68416e-16 6.79919e-06 -1.35164e-06 -1.05997e-12 2.5339e-13 -1.14601e-13 -3.07733e-06)
(-8.32435e-06 -1.49454e-05 -2.62171e-16 8.37982e-06 -6.83757e-07 -1.62857e-13 6.86176e-13 2.12169e-14 -2.75697e-06)
(-8.71602e-06 -1.66217e-05 -2.31375e-16 1.00839e-05 1.81419e-07 8.26601e-13 6.42602e-14 -1.25214e-14 -2.50401e-06)
(-8.68007e-06 -1.77006e-05 -3.59259e-16 1.19622e-05 9.45002e-07 -1.54135e-13 -5.73429e-13 8.10085e-14 -2.1261e-06)
(-8.54828e-06 -1.88327e-05 5.57606e-16 1.43679e-05 1.77088e-06 -6.23608e-13 -1.3187e-13 1.04689e-13 -1.83643e-06)
(-7.4761e-06 -1.91602e-05 6.98363e-16 1.65853e-05 2.12469e-06 8.27754e-14 2.4151e-13 -2.2056e-13 -1.44106e-06)
(-5.67714e-06 -1.95274e-05 -1.68161e-16 1.88891e-05 2.19034e-06 3.94734e-13 3.40675e-14 1.0902e-15 -1.19982e-06)
(-2.38802e-06 -1.90418e-05 -5.41067e-16 2.01539e-05 1.22681e-06 4.63512e-14 1.27884e-13 4.82149e-13 -9.04301e-07)
(2.60514e-06 -1.86517e-05 1.70191e-16 2.02397e-05 -5.61963e-07 -1.0244e-13 3.16485e-13 1.21032e-14 -8.66423e-07)
(-6.2669e-06 -1.19428e-06 9.59651e-18 6.02453e-07 -3.95607e-06 -1.42233e-13 1.74688e-14 -3.26916e-13 -3.95196e-06)
(-8.39917e-06 -2.37213e-06 -1.79255e-16 1.02898e-06 -2.03132e-06 4.83931e-14 4.80122e-14 6.05832e-15 -2.10532e-06)
(-8.51777e-06 -3.84107e-06 3.83714e-16 2.16391e-06 -1.86861e-06 -5.18504e-14 -1.77633e-14 -7.53486e-14 -2.04128e-06)
(-8.69164e-06 -5.35018e-06 1.69899e-16 2.65069e-06 -1.59878e-06 -3.37173e-13 -2.47985e-14 1.34562e-14 -1.95456e-06)
(-8.84743e-06 -6.78483e-06 -6.89025e-16 3.8854e-06 -1.29613e-06 1.16672e-13 1.88212e-13 1.12253e-13 -1.81883e-06)
(-9.14403e-06 -8.25892e-06 -7.31878e-17 4.59129e-06 -8.25305e-07 5.54963e-13 7.14477e-14 -1.4753e-14 -1.68055e-06)
(-9.31803e-06 -9.57304e-06 3.82788e-16 5.92417e-06 -3.70703e-07 6.90407e-14 -2.14088e-13 -5.49847e-14 -1.4704e-06)
(-9.63257e-06 -1.08884e-05 2.4283e-16 7.04548e-06 2.51378e-07 -4.4176e-13 2.7841e-13 -5.68857e-14 -1.28238e-06)
(-9.65598e-06 -1.19529e-05 -9.52693e-17 8.52165e-06 7.72284e-07 -5.97237e-14 7.03496e-13 -2.07923e-14 -1.01163e-06)
(-9.73188e-06 -1.29766e-05 -7.6241e-17 1.00701e-05 1.40747e-06 2.62176e-13 6.72535e-14 -1.57948e-15 -7.94198e-07)
(-9.38733e-06 -1.36181e-05 -8.27877e-17 1.16589e-05 1.86901e-06 -3.59474e-14 -5.53376e-13 1.32497e-13 -4.952e-07)
(-8.85949e-06 -1.41379e-05 8.62836e-17 1.35546e-05 2.28753e-06 -9.47044e-14 -1.79035e-13 5.51908e-14 -2.78904e-07)
(-7.57458e-06 -1.41466e-05 1.88685e-18 1.50414e-05 2.2636e-06 2.54316e-16 1.98255e-13 -2.27336e-13 -3.90899e-09)
(-5.75157e-06 -1.41398e-05 1.93345e-17 1.65098e-05 1.97572e-06 -4.41542e-14 3.17429e-14 2.30945e-15 1.342e-07)
(-3.03588e-06 -1.36833e-05 1.76404e-16 1.67523e-05 1.03569e-06 -1.51175e-14 1.75804e-13 3.75917e-13 2.94667e-07)
(4.54705e-07 -1.37148e-05 -5.31306e-17 1.58272e-05 -2.5459e-07 3.00312e-14 3.42376e-13 -9.05655e-16 2.64678e-07)
(-8.36911e-06 -1.01413e-06 5.33474e-18 6.27336e-07 -2.10108e-06 -7.60829e-14 2.04884e-14 -1.74364e-13 -2.11352e-06)
(-1.00965e-05 -1.93791e-06 -4.86157e-17 1.09948e-06 -5.04401e-07 1.3113e-14 5.20087e-14 6.57077e-15 -5.7075e-07)
(-1.01796e-05 -3.13701e-06 9.70034e-17 2.30389e-06 -3.55744e-07 -1.31202e-14 -1.71395e-14 -2.33195e-14 -5.14777e-07)
(-1.03172e-05 -4.32817e-06 3.83394e-17 2.80174e-06 -1.14943e-07 -7.51078e-14 -2.6273e-14 -4.85629e-15 -4.3547e-07)
(-1.04133e-05 -5.47853e-06 -1.19996e-16 4.0882e-06 1.49537e-07 2.03806e-14 1.96248e-13 2.43245e-14 -3.16345e-07)
(-1.06171e-05 -6.5771e-06 -8.8495e-18 4.78203e-06 5.52045e-07 6.43256e-14 7.53194e-14 4.86376e-15 -1.94853e-07)
(-1.06693e-05 -7.5812e-06 3.94288e-18 6.09598e-06 9.10266e-07 5.98386e-16 -2.21008e-13 3.55427e-14 -1.50972e-08)
(-1.08084e-05 -8.48136e-06 -2.67521e-17 7.11792e-06 1.39622e-06 4.77061e-14 2.99823e-13 -1.83017e-14 1.38624e-07)
(-1.06589e-05 -9.22286e-06 3.35599e-17 8.43673e-06 1.75957e-06 2.12655e-14 7.08578e-13 -7.9842e-14 3.58846e-07)
(-1.04942e-05 -9.82725e-06 5.15936e-17 9.74783e-06 2.17935e-06 -1.72625e-13 6.90247e-14 5.34157e-15 5.22864e-07)
(-9.9077e-06 -1.01896e-05 1.2418e-16 1.09669e-05 2.39552e-06 5.41461e-14 -5.28664e-13 1.85974e-13 7.47788e-07)
(-9.10194e-06 -1.03986e-05 -2.78218e-16 1.23507e-05 2.52394e-06 3.0142e-13 -2.17222e-13 2.79982e-14 8.87497e-07)
(-7.67362e-06 -1.03188e-05 -5.16932e-16 1.31405e-05 2.27838e-06 -6.11618e-14 1.5987e-13 -2.32276e-13 1.06569e-06)
(-5.78573e-06 -1.02405e-05 1.64392e-16 1.38666e-05 1.79793e-06 -3.6844e-13 2.87115e-14 2.87884e-15 1.11981e-06)
(-3.26049e-06 -9.95324e-06 7.09773e-16 1.32894e-05 8.34724e-07 -6.07468e-14 1.97103e-13 3.2842e-13 1.18469e-06)
(-2.31946e-07 -1.00079e-05 -2.22069e-16 1.20486e-05 -3.08684e-07 1.21995e-13 3.0287e-13 -3.90833e-16 1.09272e-06)
(-1.00678e-05 -8.30204e-07 1.51108e-18 6.59743e-07 -5.65113e-07 -2.09416e-14 2.3382e-14 -4.75525e-14 -5.81478e-07)
(-1.12971e-05 -1.52032e-06 5.62113e-17 1.13999e-06 7.16606e-07 -1.51708e-14 5.36096e-14 6.71232e-15 6.59677e-07)
(-1.13356e-05 -2.45554e-06 -1.33492e-16 2.38727e-06 8.38186e-07 1.78911e-14 -1.75364e-14 1.94331e-14 7.06934e-07)
(-1.14215e-05 -3.36546e-06 -6.85679e-17 2.87744e-06 1.04188e-06 1.33095e-13 -2.55181e-14 -1.91079e-14 7.71278e-07)
(-1.14382e-05 -4.23964e-06 3.31118e-16 4.18089e-06 1.24674e-06 -5.5781e-14 2.05267e-13 -5.08123e-14 8.71874e-07)
(-1.15345e-05 -5.03332e-06 4.51863e-17 4.83407e-06 1.5693e-06 -3.18983e-13 7.66008e-14 1.93337e-14 9.65767e-07)
(-1.14601e-05 -5.75631e-06 -2.90328e-16 6.09397e-06 1.81936e-06 -5.24246e-14 -2.31589e-13 1.10687e-13 1.11257e-06)
(-1.14359e-05 -6.34892e-06 -2.39226e-16 6.9968e-06 2.16978e-06 4.2123e-13 3.15776e-13 8.12821e-15 1.22291e-06)
(-1.11306e-05 -6.83117e-06 1.29799e-16 8.13892e-06 2.37905e-06 8.23705e-14 7.10479e-13 -1.36548e-13 1.39273e-06)
(-1.07775e-05 -7.15871e-06 1.50636e-16 9.21549e-06 2.60946e-06 -4.94632e-13 6.91657e-14 9.52439e-15 1.49819e-06)
(-1.00462e-05 -7.3323e-06 2.73735e-16 1.00997e-05 2.6394e-06 1.19932e-13 -5.13069e-13 2.26807e-13 1.65522e-06)
(-9.11375e-06 -7.37589e-06 -5.45653e-16 1.10766e-05 2.56525e-06 5.85744e-13 -2.42692e-13 1.2567e-14 1.72461e-06)
(-7.70728e-06 -7.26065e-06 -8.85592e-16 1.13672e-05 2.2069e-06 -1.04736e-13 1.46049e-13 -2.27897e-13 1.82456e-06)
(-5.97811e-06 -7.17733e-06 2.69887e-16 1.16248e-05 1.66171e-06 -5.96938e-13 2.56178e-14 3.07242e-15 1.81424e-06)
(-3.85925e-06 -7.01765e-06 1.08795e-15 1.06106e-05 8.36195e-07 -9.30287e-14 1.8019e-13 2.6998e-13 1.81432e-06)
(-1.49412e-06 -7.1938e-06 -3.4637e-16 9.21166e-06 -5.96841e-08 1.90076e-13 2.76885e-13 -2.52373e-15 1.69445e-06)
(-1.12763e-05 -6.52045e-07 -1.74284e-18 6.8503e-07 6.65354e-07 2.33604e-14 1.95321e-14 5.42034e-14 6.49094e-07)
(-1.20823e-05 -1.13361e-06 1.36341e-16 1.15564e-06 1.6452e-06 -3.67549e-14 5.4695e-14 6.51097e-15 1.5988e-06)
(-1.20823e-05 -1.82586e-06 -3.09658e-16 2.42744e-06 1.73627e-06 4.15084e-14 -1.97733e-14 5.25194e-14 1.63691e-06)
(-1.2123e-05 -2.48745e-06 -1.50813e-16 2.89344e-06 1.9013e-06 2.90658e-13 -2.40804e-14 -2.95558e-14 1.68441e-06)
(-1.20699e-05 -3.11654e-06 6.71597e-16 4.18973e-06 2.04273e-06 -1.13118e-13 2.16486e-13 -1.09986e-13 1.76629e-06)
(-1.20811e-05 -3.66177e-06 8.73793e-17 4.78088e-06 2.2898e-06 -6.0463e-13 7.69146e-14 2.95914e-14 1.83061e-06)
(-1.19049e-05 -4.15478e-06 -5.08445e-16 5.96166e-06 2.43901e-06 -9.16245e-14 -2.46398e-13 1.6869e-13 1.94641e-06)
(-1.1762e-05 -4.52055e-06 -3.9774e-16 6.73316e-06 2.67337e-06 6.93862e-13 3.28133e-13 2.55193e-14 2.01422e-06)
(-1.13458e-05 -4.81598e-06 1.99154e-16 7.68961e-06 2.75595e-06 1.26536e-13 7.13362e-13 -1.82795e-13 2.13987e-06)
(-1.08754e-05 -4.97151e-06 2.23399e-16 8.53881e-06 2.84367e-06 -7.24005e-13 6.80464e-14 1.19349e-14 2.19287e-06)
(-1.00688e-05 -5.04273e-06 3.78807e-16 9.11752e-06 2.74877e-06 1.66344e-13 -5.0602e-13 2.55195e-13 2.29525e-06)
(-9.09411e-06 -5.0172e-06 -7.35424e-16 9.76172e-06 2.55184e-06 7.84152e-13 -2.59922e-13 5.14875e-15 2.30868e-06)
(-7.75642e-06 -4.92419e-06 -1.14255e-15 9.66696e-06 2.15145e-06 -1.35037e-13 1.4448e-13 -2.21205e-13 2.35228e-06)
(-6.19137e-06 -4.87758e-06 3.45035e-16 9.60428e-06 1.59908e-06 -7.55947e-13 2.25916e-14 3.16762e-15 2.29743e-06)
(-4.38758e-06 -4.82315e-06 1.35421e-15 8.32799e-06 8.9748e-07 -1.15691e-13 1.52125e-13 2.30075e-13 2.25633e-06)
(-2.46295e-06 -5.02719e-06 -4.35914e-16 6.9355e-06 1.63065e-07 2.37285e-13 2.45165e-13 -1.97834e-15 2.12077e-06)
(-1.2071e-05 -4.86686e-07 -4.33496e-18 7.01324e-07 1.60375e-06 5.72367e-14 2.27044e-14 1.31922e-13 1.58981e-06)
(-1.24859e-05 -7.91045e-07 1.94405e-16 1.14564e-06 2.31393e-06 -5.23544e-14 5.31334e-14 6.11805e-15 2.27768e-06)
(-1.24532e-05 -1.27022e-06 -4.37121e-16 2.4241e-06 2.3754e-06 5.85405e-14 -2.30457e-14 7.67815e-14 2.3072e-06)
(-1.24553e-05 -1.71874e-06 -2.1043e-16 2.85027e-06 2.50451e-06 4.03515e-13 -2.05659e-14 -3.67725e-14 2.33836e-06)
(-1.23435e-05 -2.14079e-06 9.14823e-16 4.12127e-06 2.58638e-06 -1.53946e-13 2.30687e-13 -1.54117e-13 2.4031e-06)
(-1.22891e-05 -2.48522e-06 1.18093e-16 4.6375e-06 2.76871e-06 -8.05758e-13 7.59262e-14 3.64104e-14 2.4395e-06)
(-1.20363e-05 -2.79661e-06 -6.61102e-16 5.72767e-06 2.8316e-06 -1.18987e-13 -2.66147e-13 2.11236e-13 2.52856e-06)
(-1.18146e-05 -2.99409e-06 -5.08632e-16 6.36953e-06 2.97498e-06 8.81417e-13 3.37711e-13 3.57658e-14 2.5585e-06)
(-1.13312e-05 -3.1579e-06 2.46477e-16 7.14934e-06 2.96119e-06 1.56608e-13 7.20856e-13 -2.18863e-13 2.64848e-06)
(-1.08043e-05 -3.20304e-06 2.7329e-16 7.80097e-06 2.94943e-06 -8.77615e-13 6.65019e-14 1.3093e-14 2.65804e-06)
(-9.98736e-06 -3.21912e-06 4.48596e-16 8.12487e-06 2.78018e-06 1.97119e-13 -5.09095e-13 2.73977e-13 2.71952e-06)
(-9.04426e-06 -3.16598e-06 -8.61489e-16 8.51828e-06 2.51789e-06 9.14185e-13 -2.70715e-13 2.86754e-15 2.69139e-06)
(-7.82967e-06 -3.10641e-06 -1.31115e-15 8.15077e-06 2.12403e-06 -1.54839e-13 1.5339e-13 -2.12958e-13 2.69717e-06)
(-6.46944e-06 -3.09909e-06 3.95159e-16 7.89143e-06 1.60336e-06 -8.60355e-13 1.97549e-14 3.22836e-15 2.61466e-06)
(-4.97287e-06 -3.12314e-06 1.53246e-15 6.48472e-06 1.03551e-06 -1.308e-13 1.1761e-13 1.97839e-13 2.55099e-06)
(-3.43934e-06 -3.35723e-06 -4.97948e-16 5.15847e-06 4.44263e-07 2.69498e-13 2.18079e-13 -1.292e-15 2.41308e-06)
(-1.24838e-05 -3.39969e-07 -6.26039e-18 7.06322e-07 2.28163e-06 8.17673e-14 2.60528e-14 1.88137e-13 2.27076e-06)
(-1.25745e-05 -4.9511e-07 2.33075e-16 1.11704e-06 2.75584e-06 -6.27014e-14 5.05325e-14 5.67759e-15 2.7281e-06)
(-1.2519e-05 -7.92063e-07 -5.21784e-16 2.39038e-06 2.79177e-06 6.98123e-14 -2.61579e-14 9.31784e-14 2.75046e-06)
(-1.24952e-05 -1.06133e-06 -2.49927e-16 2.76569e-06 2.89182e-06 4.77575e-13 -1.66036e-14 -4.13579e-14 2.7674e-06)
(-1.23431e-05 -1.31314e-06 1.07416e-15 4.00142e-06 2.92369e-06 -1.80573e-13 2.47031e-13 -1.84821e-13 2.81834e-06)
(-1.22499e-05 -1.49744e-06 1.38326e-16 4.43672e-06 3.05727e-06 -9.35086e-13 7.45996e-14 4.04898e-14 2.83096e-06)
(-1.19512e-05 -1.66983e-06 -7.58739e-16 5.4331e-06 3.05327e-06 -1.36427e-13 -2.90537e-13 2.4083e-13 2.8997e-06)
(-1.16916e-05 -1.7441e-06 -5.78868e-16 5.95336e-06 3.13339e-06 9.98752e-13 3.44964e-13 4.03567e-14 2.89891e-06)
(-1.1183e-05 -1.81939e-06 2.76052e-16 6.5709e-06 3.05464e-06 1.75235e-13 7.3315e-13 -2.4602e-13 2.96338e-06)
(-1.065e-05 -1.79647e-06 3.03999e-16 7.05582e-06 2.98259e-06 -9.70813e-13 6.44523e-14 1.3408e-14 2.94021e-06)
(-9.86687e-06 -1.78962e-06 4.9106e-16 7.16914e-06 2.77913e-06 2.15638e-13 -5.19302e-13 2.86423e-13 2.9747e-06)
(-8.99656e-06 -1.73272e-06 -9.37142e-16 7.37524e-06 2.49247e-06 9.91483e-13 -2.76983e-13 3.96465e-15 2.91882e-06)
(-7.92192e-06 -1.712e-06 -1.41237e-15 6.81276e-06 2.13296e-06 -1.66644e-13 1.67652e-13 -2.05651e-13 2.90279e-06)
(-6.75871e-06 -1.74006e-06 4.25712e-16 6.43628e-06 1.65884e-06 -9.23392e-13 1.74477e-14 3.29456e-15 2.80613e-06)
(-5.52207e-06 -1.81986e-06 1.64358e-15 4.97378e-06 1.20899e-06 -1.40159e-13 8.28633e-14 1.74939e-13 2.73348e-06)
(-4.29311e-06 -2.06158e-06 -5.38348e-16 3.75036e-06 7.2398e-07 2.89715e-13 1.93163e-13 1.16931e-16 2.60091e-06)
(-1.25794e-05 -2.13103e-07 -7.56071e-18 7.02645e-07 2.73103e-06 9.80783e-14 2.26829e-14 2.25465e-13 2.72333e-06)
(-1.23998e-05 -2.45792e-07 2.55263e-16 1.07592e-06 3.00622e-06 -6.85921e-14 4.72592e-14 5.29155e-15 2.98466e-06)
(-1.23311e-05 -3.90618e-07 -5.70113e-16 2.33738e-06 3.02194e-06 7.62119e-14 -2.99564e-14 1.02868e-13 3.00179e-06)
(-1.22946e-05 -5.11961e-07 -2.72188e-16 2.65518e-06 3.10176e-06 5.1899e-13 -1.23368e-14 -4.3863e-14 3.00722e-06)
(-1.21204e-05 -6.26623e-07 1.16322e-15 3.85234e-06 3.09496e-06 -1.95342e-13 2.66575e-13 -2.04296e-13 3.04861e-06)
(-1.20133e-05 -6.84145e-07 1.49338e-16 4.20695e-06 3.19712e-06 -1.00493e-12 7.23239e-14 4.24002e-14 3.04233e-06)
(-1.16969e-05 -7.51675e-07 -8.11207e-16 5.11365e-06 3.14591e-06 -1.45738e-13 -3.18511e-13 2.60244e-13 3.0979e-06)
(-1.1435e-05 -7.34951e-07 -6.15241e-16 5.52635e-06 3.18894e-06 1.0591e-12 3.51113e-13 4.03572e-14 3.0739e-06)
(-1.09372e-05 -7.51652e-07 2.91487e-16 6.00086e-06 3.07307e-06 1.84686e-13 7.4989e-13 -2.66637e-13 3.12302e-06)
(-1.04378e-05 -6.85457e-07 3.19026e-16 6.35192e-06 2.97266e-06 -1.01609e-12 6.23171e-14 1.31215e-14 3.07724e-06)
(-9.72343e-06 -6.72663e-07 5.12201e-16 6.29598e-06 2.76557e-06 2.24543e-13 -5.34712e-13 2.95212e-13 3.09726e-06)
(-8.95515e-06 -6.20727e-07 -9.73147e-16 6.36723e-06 2.48259e-06 1.02773e-12 -2.80258e-13 7.38619e-15 3.02539e-06)
(-8.03285e-06 -6.35627e-07 -1.46128e-15 5.66896e-06 2.17498e-06 -1.72256e-13 1.84758e-13 -1.99832e-13 3.00057e-06)
(-7.06152e-06 -6.91797e-07 4.41044e-16 5.22856e-06 1.75445e-06 -9.54451e-13 1.53527e-14 3.37381e-15 2.90042e-06)
(-6.05393e-06 -8.11789e-07 1.70262e-15 3.7549e-06 1.41101e-06 -1.45066e-13 5.00496e-14 1.58513e-13 2.82915e-06)
(-5.07717e-06 -1.05698e-06 -5.61853e-16 2.64319e-06 1.00985e-06 3.0085e-13 1.72018e-13 1.73403e-15 2.70812e-06)
(-1.2409e-05 -1.0615e-07 -8.31192e-18 6.92854e-07 2.98669e-06 1.07406e-13 2.28465e-14 2.46759e-13 2.98191e-06)
(-1.20129e-05 -3.89808e-08 2.63639e-16 1.02988e-06 3.09724e-06 -7.07589e-14 4.25828e-14 5.02044e-15 3.07919e-06)
(-1.1941e-05 -5.86585e-08 -5.8806e-16 2.27875e-06 3.09862e-06 7.85503e-14 -3.46739e-14 1.06924e-13 3.09322e-06)
(-1.19056e-05 -5.9396e-08 -2.80009e-16 2.53694e-06 3.16791e-06 5.33327e-13 -7.41307e-15 -4.47468e-14 3.09011e-06)
(-1.17272e-05 -6.494e-08 1.19426e-15 3.69824e-06 3.1342e-06 -2.00347e-13 2.88009e-13 -2.14566e-13 3.12656e-06)
(-1.163e-05 -2.25881e-08 1.52648e-16 3.97716e-06 3.22229e-06 -1.02614e-12 7.03731e-14 4.26121e-14 3.10642e-06)
(-1.13218e-05 -1.19593e-08 -8.27023e-16 4.80255e-06 3.14235e-06 -1.48468e-13 -3.48783e-13 2.71883e-13 3.15613e-06)
(-1.1088e-05 7.2216e-08 -6.24221e-16 5.12445e-06 3.17181e-06 1.0737e-12 3.57325e-13 3.66372e-14 3.11612e-06)
(-1.06307e-05 9.32491e-08 2.95652e-16 5.47516e-06 3.04253e-06 1.86858e-13 7.70771e-13 -2.82763e-13 3.1595e-06)
(-1.01947e-05 1.87047e-07 3.21697e-16 5.72223e-06 2.93919e-06 -1.02371e-12 6.05275e-14 1.24044e-14 3.1002e-06)
(-9.57276e-06 1.96321e-07 5.16653e-16 5.53011e-06 2.75122e-06 2.25968e-13 -5.52565e-13 3.02365e-13 3.11668e-06)
(-8.92261e-06 2.39947e-07 -9.7848e-16 5.50563e-06 2.49064e-06 1.03226e-12 -2.82039e-13 1.24602e-14 3.03855e-06)
(-8.15451e-06 1.94006e-07 -1.46986e-15 4.71154e-06 2.24474e-06 -1.73107e-13 2.01865e-13 -1.96042e-13 3.01543e-06)
(-7.36142e-06 1.16475e-07 4.44603e-16 4.23886e-06 1.87833e-06 -9.609e-13 1.3504e-14 3.46523e-15 2.91992e-06)
(-6.55144e-06 -3.19086e-08 1.72136e-15 2.77628e-06 1.62811e-06 -1.46532e-13 2.12645e-14 1.47552e-13 2.85769e-06)
(-5.77963e-06 -2.75344e-07 -5.72048e-16 1.77123e-06 1.29001e-06 3.04867e-13 1.54273e-13 3.57112e-15 2.75242e-06)
(-1.20234e-05 -1.73879e-08 -8.59252e-18 6.80639e-07 3.08049e-06 1.1089e-13 2.30476e-14 2.54648e-13 3.07823e-06)
(-1.14542e-05 1.30375e-07 2.60624e-16 9.85686e-07 3.05772e-06 -6.98637e-14 3.91409e-14 4.89964e-15 3.04045e-06)
(-1.13882e-05 2.12461e-07 -5.8102e-16 2.22664e-06 3.05042e-06 7.75576e-14 -3.91601e-14 1.06352e-13 3.05356e-06)
(-1.13667e-05 3.09246e-07 -2.75966e-16 2.42702e-06 3.11881e-06 5.25524e-13 -2.91944e-15 -4.43873e-14 3.04472e-06)
(-1.12002e-05 3.89786e-07 1.17802e-15 3.56002e-06 3.06906e-06 -1.97421e-13 3.11393e-13 -2.17533e-13 3.08082e-06)
(-1.11336e-05 5.11064e-07 1.49784e-16 3.77197e-06 3.15916e-06 -1.00802e-12 6.84617e-14 4.14937e-14 3.05144e-06)
(-1.08557e-05 5.79609e-07 -8.1342e-16 4.52755e-06 3.06673e-06 -1.45928e-13 -3.79864e-13 2.77801e-13 3.10219e-06)
(-1.06753e-05 7.15001e-07 -6.11483e-16 4.77699e-06 3.10271e-06 1.05186e-12 3.63903e-13 2.98543e-14 3.05256e-06)
(-1.02826e-05 7.59763e-07 2.90826e-16 5.02252e-06 2.97953e-06 1.83285e-13 7.9418e-13 -2.96116e-13 3.0988e-06)
(-9.93246e-06 8.72514e-07 3.14744e-16 5.19227e-06 2.89291e-06 -1.00177e-12 5.87869e-14 1.13667e-14 3.03364e-06)
(-9.42078e-06 8.73745e-07 5.08015e-16 4.89041e-06 2.74118e-06 2.21569e-13 -5.70727e-13 3.09114e-13 3.05581e-06)
(-8.89877e-06 9.09404e-07 -9.5994e-16 4.79887e-06 2.51544e-06 1.01217e-12 -2.83053e-13 1.87518e-14 2.97927e-06)
(-8.28509e-06 8.37238e-07 -1.44722e-15 3.93542e-06 2.33731e-06 -1.70276e-13 2.17084e-13 -1.94196e-13 2.96617e-06)
(-7.65812e-06 7.43701e-07 4.38835e-16 3.44693e-06 2.02348e-06 -9.48318e-13 1.21834e-14 3.56735e-15 2.88159e-06)
(-7.02173e-06 5.74194e-07 1.70877e-15 2.00278e-06 1.85597e-06 -1.45332e-13 -2.92357e-15 1.40685e-13 2.83424e-06)
(-6.42011e-06 3.33045e-07 -5.7176e-16 1.08905e-06 1.56575e-06 3.03398e-13 1.40112e-13 5.5147e-15 2.74793e-06)
(-1.14631e-05 5.53251e-08 -8.48175e-18 6.69412e-07 3.04124e-06 1.09565e-13 2.32371e-14 2.51511e-13 3.04106e-06)
(-1.07566e-05 2.68092e-07 2.48287e-16 9.49895e-07 2.91212e-06 -6.64736e-14 3.61216e-14 4.93267e-15 2.89311e-06)
(-1.07044e-05 4.32424e-07 -5.53618e-16 2.19272e-06 2.90125e-06 7.38542e-14 -4.43111e-14 1.02007e-13 2.90728e-06)
(-1.07085e-05 6.07906e-07 -2.62323e-16 2.34064e-06 2.97777e-06 4.99752e-13 1.53804e-15 -4.30771e-14 2.89523e-06)
(-1.05676e-05 7.56079e-07 1.12351e-15 3.45685e-06 2.92142e-06 -1.88096e-13 3.36232e-13 -2.1481e-13 2.93529e-06)
(-1.05501e-05 9.40317e-07 1.42077e-16 3.61352e-06 3.02796e-06 -9.58236e-13 6.75474e-14 3.93289e-14 2.90064e-06)
(-1.03209e-05 1.05163e-06 -7.7631e-16 4.31234e-06 2.93658e-06 -1.39181e-13 -4.11211e-13 2.79721e-13 2.95876e-06)
(-1.02145e-05 1.22711e-06 -5.81554e-16 4.5084e-06 2.99599e-06 1.00099e-12 3.71551e-13 2.04519e-14 2.90479e-06)
(-9.90555e-06 1.28627e-06 2.78818e-16 4.66527e-06 2.89452e-06 1.75179e-13 8.18727e-13 -3.08291e-13 2.96144e-06)
(-9.65837e-06 1.41322e-06 3.00106e-16 4.7808e-06 2.83978e-06 -9.56556e-13 5.76731e-14 1.00688e-14 2.89662e-06)
(-9.26977e-06 1.4045e-06 4.89161e-16 4.38873e-06 2.73721e-06 2.12619e-13 -5.86987e-13 3.16579e-13 2.9322e-06)
(-8.88183e-06 1.4336e-06 -9.22399e-16 4.24992e-06 2.55457e-06 9.72862e-13 -2.83601e-13 2.60965e-14 2.86342e-06)
(-8.42113e-06 1.33934e-06 -1.40025e-15 3.3326e-06 2.44816e-06 -1.64579e-13 2.28815e-13 -1.94348e-13 2.86699e-06)
(-7.94911e-06 1.23346e-06 4.25501e-16 2.83308e-06 2.18426e-06 -9.20892e-13 1.11493e-14 3.6749e-15 2.79816e-06)
(-7.46698e-06 1.04743e-06 1.67166e-15 1.4045e-06 2.09111e-06 -1.4205e-13 -2.13786e-14 1.3709e-13 2.77019e-06)
(-7.00837e-06 8.07739e-07 -5.63133e-16 5.58945e-07 1.83649e-06 2.97636e-13 1.29211e-13 7.53602e-15 2.70527e-06)
(-1.07612e-05 1.14469e-07 -8.05938e-18 6.62557e-07 2.89358e-06 1.04317e-13 2.33515e-14 2.39385e-13 2.89501e-06)
(-9.94344e-06 3.7945e-07 2.28358e-16 9.2789e-07 2.68074e-06 -6.10597e-14 3.37783e-14 5.12204e-15 2.65764e-06)
(-9.91203e-06 6.09985e-07 -5.09726e-16 2.18698e-06 2.67059e-06 6.79559e-14 -4.90041e-14 9.46317e-14 2.67472e-06)
(-9.95202e-06 8.48966e-07 -2.40951e-16 2.29037e-06 2.76345e-06 4.59441e-13 5.4286e-15 -4.10524e-14 2.66152e-06)
(-9.84844e-06 1.05022e-06 1.03806e-15 3.40461e-06 2.70826e-06 -1.73624e-13 3.62172e-13 -2.07803e-13 2.70949e-06)
(-9.89574e-06 1.28538e-06 1.30401e-16 3.5198e-06 2.84382e-06 -8.82991e-13 6.7351e-14 3.63309e-14 2.67277e-06)
(-9.73076e-06 1.42831e-06 -7.20406e-16 4.17598e-06 2.76459e-06 -1.29077e-13 -4.41995e-13 2.78997e-13 2.74388e-06)
(-9.7153e-06 1.63646e-06 -5.37637e-16 4.33794e-06 2.86133e-06 9.26956e-13 3.80912e-13 8.77492e-15 2.68983e-06)
(-9.50603e-06 1.70396e-06 2.61099e-16 4.42077e-06 2.79423e-06 1.63482e-13 8.43683e-13 -3.20325e-13 2.76338e-06)
(-9.37498e-06 1.84287e-06 2.79182e-16 4.50203e-06 2.78294e-06 -8.9293e-13 5.72365e-14 8.55612e-15 2.70386e-06)
(-9.12042e-06 1.82373e-06 4.62194e-16 4.03398e-06 2.73984e-06 2.00088e-13 -5.99441e-13 3.25165e-13 2.75924e-06)
(-8.87074e-06 1.84807e-06 -8.69597e-16 3.86087e-06 2.60594e-06 9.18439e-13 -2.84379e-13 3.4309e-14 2.7031e-06)
(-8.56294e-06 1.73486e-06 -1.33408e-15 2.89721e-06 2.57455e-06 -1.56635e-13 2.36384e-13 -1.96152e-13 2.72869e-06)
(-8.23757e-06 1.61872e-06 4.06228e-16 2.38329e-06 2.35816e-06 -8.8185e-13 1.0289e-14 3.78852e-15 2.67944e-06)
(-7.89624e-06 1.41834e-06 1.61535e-15 9.59886e-07 2.33346e-06 -1.37143e-13 -3.40525e-14 1.35883e-13 2.67443e-06)
(-7.56108e-06 1.1774e-06 -5.48073e-16 1.54391e-07 2.10555e-06 2.88528e-13 1.2183e-13 9.63745e-15 2.63292e-06)
(-9.94149e-06 1.62303e-07 -7.38754e-18 6.63073e-07 2.65796e-06 9.58843e-14 1.9916e-14 2.19966e-13 2.66065e-06)
(-9.03153e-06 4.69062e-07 2.0229e-16 9.24686e-07 2.38032e-06 -5.40157e-14 3.12079e-14 5.44387e-15 2.35118e-06)
(-9.02639e-06 7.52676e-07 -4.52527e-16 2.21838e-06 2.37433e-06 6.02895e-14 -5.41036e-14 8.48257e-14 2.3727e-06)
(-9.11162e-06 1.04309e-06 -2.13346e-16 2.28778e-06 2.49072e-06 4.07418e-13 8.68879e-15 -3.84851e-14 2.36e-06)
(-9.05467e-06 1.28579e-06 9.27641e-16 3.41736e-06 2.44264e-06 -1.55026e-13 3.88883e-13 -1.97633e-13 2.41935e-06)
(-9.18045e-06 1.56314e-06 1.15436e-16 3.50701e-06 2.61805e-06 -7.87273e-13 6.85125e-14 3.26604e-14 2.38294e-06)
(-9.09219e-06 1.72914e-06 -6.49479e-16 4.13503e-06 2.55957e-06 -1.16295e-13 -4.71082e-13 2.76738e-13 2.47199e-06)
(-9.18216e-06 1.96547e-06 -4.82431e-16 4.28263e-06 2.70507e-06 8.34354e-13 3.9258e-13 -4.97688e-15 2.42101e-06)
(-9.08576e-06 2.03701e-06 2.38875e-16 4.30389e-06 2.68238e-06 1.48927e-13 8.67669e-13 -3.33253e-13 2.51704e-06)
(-9.0821e-06 2.18749e-06 2.53319e-16 4.36846e-06 2.72357e-06 -8.14585e-13 5.7479e-14 6.84376e-15 2.46653e-06)
(-8.97104e-06 2.15781e-06 4.28731e-16 3.83407e-06 2.74842e-06 1.84711e-13 -6.06588e-13 3.35438e-13 2.54708e-06)
(-8.86399e-06 2.17935e-06 -8.04899e-16 3.63426e-06 2.6674e-06 8.51971e-13 -2.85567e-13 4.34087e-14 2.50735e-06)
(-8.71051e-06 2.04919e-06 -1.25261e-15 2.62586e-06 2.71448e-06 -1.4691e-13 2.38086e-13 -1.99529e-13 2.55936e-06)
(-8.52709e-06 1.9237e-06 3.82443e-16 2.08745e-06 2.54375e-06 -8.33604e-13 9.7306e-15 3.90545e-15 2.53276e-06)
(-8.31819e-06 1.70944e-06 1.54375e-15 6.53891e-07 2.58414e-06 -1.30954e-13 -4.02312e-14 1.36519e-13 2.55368e-06)
(-8.09358e-06 1.46346e-06 -5.28116e-16 -1.44842e-07 2.37643e-06 2.768e-13 1.18011e-13 1.18135e-14 2.53739e-06)
(-9.02086e-06 2.008e-07 -6.5071e-18 6.73661e-07 2.35151e-06 8.48834e-14 2.31702e-14 1.94669e-13 2.3551e-06)
(-8.03077e-06 5.40195e-07 1.71247e-16 9.43932e-07 2.02455e-06 -4.56617e-14 3.19757e-14 5.89153e-15 1.98763e-06)