/*--------------------------------*- C++ -*----------------------------------*\
  =========                 |
  \\      /  F ield         | OpenFOAM: The Open Source CFD Toolbox
   \\    /   O peration     | Website:  https://openfoam.org
    \\  /    A nd           | Version:  8
     \\/     M anipulation  |
\*---------------------------------------------------------------------------*/
FoamFile
{
    version     2.0;
    format      ascii;
    class       surfaceScalarField;
    location    "0.0955000";
    object      phi;
}
// * * * * * * * * * * * * * * * * * * * * * * * * * * * * * * * * * * * * * //

dimensions      [0 3 -1 0 0 0 0];

internalField   nonuniform List<scalar> 
1691
(
7.50439927408867e-10
9.41968396212069e-12
7.41200167196317e-10
9.54081095568931e-12
7.31932874553951e-10
9.64343150300492e-12
7.2253665809863e-10
9.84410585636444e-12
7.13073475706125e-10
9.954001748088e-12
7.03588914956449e-10
1.00149032053501e-11
6.94102643678168e-10
1.00537418712326e-11
6.84625383785089e-10
1.00873544203922e-11
6.75155591983634e-10
1.01159941135621e-11
6.65691030946439e-10
1.01396396830071e-11
6.56231521513054e-10
1.01622744736155e-11
6.4677740762684e-10
1.01864565317166e-11
6.37332222098338e-10
1.02107857976414e-11
6.27890798715599e-10
1.02313268310428e-11
6.18454390911475e-10
1.02502425526785e-11
6.09021410467575e-10
1.02704784180438e-11
5.99597709741735e-10
1.02933158933669e-11
5.90178516919193e-10
1.03132523169388e-11
5.80764499004091e-10
1.03315511889745e-11
5.71354364247987e-10
1.03512907610373e-11
5.6195147948882e-10
1.03741443236274e-11
5.52555729039124e-10
1.03970903408514e-11
5.43165062740701e-10
1.04182124320714e-11
5.33779892563373e-10
1.04399439346895e-11
5.24400252765226e-10
1.04657149719859e-11
5.15031782433878e-10
1.04960497931245e-11
5.05668871786392e-10
1.0524581877738e-11
4.96313209340416e-10
1.05531217953555e-11
4.86961599562765e-10
1.0586550058373e-11
4.77624659834451e-10
1.0629283454613e-11
4.68295397494508e-10
1.06718976555404e-11
4.58975193481332e-10
1.07150138457408e-11
4.49662175111712e-10
1.07645897288903e-11
4.40363849171598e-10
1.08281802406745e-11
4.31082338054704e-10
1.09005694944667e-11
4.21812151650267e-10
1.09738587789503e-11
4.12555263083281e-10
1.10541358833352e-11
4.03309919632532e-10
1.1156098377315e-11
3.94100751810646e-10
1.12870768945137e-11
3.8490643039351e-10
1.14191246999107e-11
3.75736386804788e-10
1.15587728199784e-11
3.6657645576227e-10
1.17304427879485e-11
3.57476619118698e-10
1.19626072667835e-11
3.4840682744035e-10
1.22052927173703e-11
3.39374519518666e-10
1.24564851956499e-11
3.30367371954908e-10
1.27507484337301e-11
3.21428489007478e-10
1.31402079580183e-11
3.12569312164673e-10
1.35888439059782e-11
3.03763041695899e-10
1.40452209518118e-11
2.95018787896637e-10
1.45481049524691e-11
2.8633180126803e-10
1.51901976721029e-11
2.77831300403611e-10
1.60080878913035e-11
2.69402228069336e-10
1.68260544163971e-11
2.61106859850077e-10
1.76769598315084e-11
2.52837448427964e-10
1.87353239801457e-11
2.44855219500487e-10
2.0361148057287e-11
2.372020095806e-10
2.25317863571294e-11
2.30078497643676e-10
2.52615245932676e-11
2.23217292113997e-10
2.90725123527656e-11
2.17667857412615e-10
3.49312323895467e-11
2.13188751285433e-10
4.15646641034416e-11
2.09461259081333e-10
4.79376263037368e-11
2.06304413277044e-10
5.46613539365474e-11
2.04546367710271e-10
6.25470192277663e-11
2.0405592526435e-10
7.02831636082104e-11
2.0418538107148e-10
7.68075982099995e-11
2.04900204237054e-10
8.30928938916054e-11
2.07057414799829e-10
8.98048246543218e-11
2.10131033372293e-10
9.54949307451038e-11
2.13520856832703e-10
9.95519995827732e-11
2.17360398788841e-10
1.02795455346701e-10
2.22100083715565e-10
1.05263900838016e-10
2.26750746419588e-10
1.06109600429217e-10
2.31397568815663e-10
1.05697538045981e-10
2.3648848364339e-10
1.0408994189346e-10
2.40652720853506e-10
1.00746183365394e-10
2.44354241281947e-10
9.64688237529066e-11
2.47890796414285e-10
9.15118806695224e-11
2.51191477483184e-10
8.5062679326662e-11
2.51875335352089e-10
7.71025635975638e-11
2.52355136360316e-10
6.93533213492503e-11
2.52880198189012e-10
6.11057937035276e-11
2.5085666003205e-10
5.19016794357283e-11
2.47208980865314e-10
4.23823152147425e-11
2.42902344941667e-10
3.44836675843083e-11
2.39993654692583e-10
2.47066782100895e-11
2.39662060298723e-10
1.04025987412872e-11
2.40498961096858e-10
4.06817628319472e-12
2.40476300156968e-10
3.44325568734625e-13
2.39447207372075e-10
-3.22654637590392e-12
2.38074031706839e-10
-5.39864632770431e-12
2.36883607912174e-10
-6.91160245149841e-12
2.35469056583729e-10
-7.77234032998864e-12
2.33923467446733e-10
-8.35202320810055e-12
2.32460721264981e-10
-8.58593822225177e-12
2.30931186482359e-10
-8.59872510750072e-12
2.29440105593952e-10
-8.36470235157698e-12
2.27915195389246e-10
-7.82967856740308e-12
2.25911397502699e-10
-6.64092205294835e-12
-3.52562056914173e-12
3.8010647391351e-10
1.32121689384846e-11
3.75822577244908e-10
1.382472876516e-11
3.71079345124144e-10
1.43866844608128e-11
3.65973697764246e-10
1.49497738316368e-11
3.60683593676359e-10
1.52441262335518e-11
3.55328955923094e-10
1.53695612027028e-11
3.49962293542229e-10
1.54204291435428e-11
3.4460209686046e-10
1.54475851926714e-11
3.39251954923434e-10
1.54661719475104e-11
3.33911088125004e-10
1.54805356650169e-11
3.28578886793799e-10
1.54945008434127e-11
3.23255611794958e-10
1.55097559523828e-11
3.17941495242007e-10
1.55249265093888e-11
3.12635513190301e-10
1.55373358779253e-11
3.07337208374307e-10
1.55485782736829e-11
3.02046974359101e-10
1.55607437379463e-11
2.96765672534031e-10
1.55746474281917e-11
2.91492731566541e-10
1.55862203298963e-11
2.86227660783052e-10
1.55966463289043e-11
2.80970621166255e-10
1.56083551503762e-11
2.75722445760841e-10
1.5622345167026e-11
2.70483305803777e-10
1.56362536075143e-11
2.65252751030791e-10
1.56487897102882e-11
2.60030838799468e-10
1.56618810625888e-11
2.54818442185561e-10
1.56781386353116e-11
2.49616548184426e-10
1.56979717976865e-11
2.44424655754837e-10
1.57165031799936e-11
2.39242542725728e-10
1.5735264050025e-11
2.34071038930929e-10
1.57580892493689e-11
2.28912003472282e-10
1.57883738976304e-11
2.23765334046394e-10
1.58186443253227e-11
2.18630932026625e-10
1.58494947493334e-11
2.13509929048417e-10
1.58856517310269e-11
2.08404856103048e-10
1.59332931514167e-11
2.03317071254551e-10
1.5988387078789e-11
1.98246483595061e-10
1.60444772379088e-11
1.93194276127226e-10
1.61063722469666e-11
1.8816411073787e-10
1.61862919062422e-11
1.83160504151993e-10
1.62907119384791e-11
1.78183430595532e-10
1.6396230933654e-11
1.7323421973539e-10
1.65080226264659e-11
1.68318100738714e-10
1.66466028029832e-11
1.63443943435639e-10
1.68368023188275e-11
1.5861351424674e-10
1.70357511014363e-11
1.53828599894371e-10
1.72414253754479e-11
1.4909619253145e-10
1.74831875718153e-11
1.44429606874976e-10
1.78068329484872e-11
1.39837380606537e-10
1.8181123144813e-11
1.35322163695806e-10
1.85604979437212e-11
1.30892906400066e-10
1.89774149806795e-11
1.26569312311013e-10
1.95138411105861e-11
1.22373393799477e-10
2.02040787828389e-11
1.18308619458089e-10
2.08909409006855e-11
1.14388248880573e-10
2.15974853179081e-11
1.10649245586028e-10
2.24745092493178e-11
1.071793316639e-10
2.38312768275727e-11
1.0409162245528e-10
2.561978877586e-11
1.01529777047293e-10
2.78237650561372e-11
9.96808725549193e-11
3.0921914333364e-11
9.87641683708597e-11
3.58485209268772e-11
9.88589694180521e-11
4.14705695150453e-11
9.99650382405046e-11
4.68324487268314e-11
1.02129879985968e-10
5.24975760434788e-11
1.05448097466096e-10
5.92300085606441e-11
1.09905970804038e-10
6.58266371183306e-11
1.15408269790762e-10
7.1306813103061e-11
1.2191351245471e-10
7.65895772793684e-11
1.29415912478166e-10
8.23051126689703e-11
1.37792256879843e-10
8.71218213386394e-11
1.46852583025673e-10
9.0494751323339e-11
1.56455841456483e-10
9.31948912787773e-11
1.66474281011852e-10
9.52481215518374e-11
1.76697556569748e-10
9.58891876027358e-11
1.86939803327362e-10
9.54583378485882e-11
1.97024621364354e-10
9.40082917275158e-11
2.0670206279895e-10
9.10720137151587e-11
2.1582941523851e-10
8.73448064921923e-11
2.24327533226988e-10
8.30169730540049e-11
2.31955921250963e-10
7.74371040337518e-11
2.38434015895273e-10
7.06269739427263e-11
2.43846233468906e-10
6.39436037024658e-11
2.48255911933947e-10
5.66985578129024e-11
2.51189479430732e-10
4.89705549747432e-11
2.52868202144204e-10
4.07062869563791e-11
2.53147269279054e-10
3.4207454590919e-11
2.52987048364405e-10
2.48695726272669e-11
2.54716289566673e-10
8.67517170109459e-12
2.55803203928293e-10
2.98227368585631e-12
2.55832981746777e-10
3.15601281846686e-13
2.55303065133909e-10
-2.69546804492127e-12
2.54256057151791e-10
-4.3508695995522e-12
2.5304343793929e-10
-5.69890403378335e-12
2.51638355912893e-10
-6.36782782375054e-12
2.501389782488e-10
-6.85345697553764e-12
2.48596385060547e-10
-7.0438168755962e-12
2.47052606129753e-10
-7.05491789247132e-12
2.45532856764157e-10
-6.84454846751836e-12
2.44046213939122e-10
-6.34254708873672e-12
2.42589905556563e-10
-5.18424352902502e-12
-2.64303691590886e-12
7.47917652529135e-11
1.25122207663505e-11
7.50784014869751e-11
1.35381141655171e-11
7.41492770733419e-11
1.53158302217181e-11
7.26538656295642e-11
1.64452064646683e-11
7.09015461360061e-11
1.69964666628002e-11
6.90613367800526e-11
1.72097912234446e-11
6.72013113843485e-11
1.72804797037044e-11
6.53453582999416e-11
1.73035735396553e-11
6.34988537511707e-11
1.7312713799368e-11
6.16615540830153e-11
1.7317864981285e-11
5.98330538116242e-11
1.73230267456829e-11
5.80136322439551e-11
1.73292022584723e-11
5.62033070839235e-11
1.73352759974204e-11
5.44011618316311e-11
1.7339508997714e-11
5.26067590264034e-11
1.7343012931595e-11
5.0820541189493e-11
1.73469936603633e-11
4.90431884526706e-11
1.73520302101114e-11
4.72741014416909e-11
1.73553345259295e-11
4.55128142595099e-11
1.73579584633377e-11
4.37596462962823e-11
1.73615485422948e-11
4.20153450478086e-11
1.73666723177853e-11
4.02799689804385e-11
1.73716535171383e-11
3.85530622173816e-11
1.73757194864165e-11
3.68346924573117e-11
1.73802759215809e-11
3.51257708554764e-11
1.73870872690119e-11
3.34272169188827e-11
1.73965541767701e-11
3.17385563235473e-11
1.74051933515818e-11
3.00595565987339e-11
1.74142928917748e-11
2.83912227981783e-11
1.74264576001967e-11
2.67353833295486e-11
1.74442695585302e-11
2.50919306410254e-11
1.74621783450431e-11
2.34606647820665e-11
1.74808432521291e-11
2.18427697332311e-11
1.75036063508286e-11
2.02409053802173e-11
1.75351964800414e-11
1.86565531734165e-11
1.75727717561843e-11
1.7089558081398e-11
1.76115031299511e-11
1.55409593937797e-11
1.7655000377287e-11
1.40148296561919e-11
1.77124499192952e-11
1.25161194552232e-11
1.77894503015678e-11
1.10447064613382e-11
1.78676771625626e-11
9.60141556469725e-12
1.79513535401842e-11
8.19215555323556e-12
1.80559032267038e-11
6.82705622650304e-12
1.82019373904765e-11
5.50772107882507e-12
1.83551177249144e-11
4.23502514179109e-12
1.85141529231455e-11
3.01651204548559e-12
1.87017297457334e-11
1.86800412588861e-12
1.89553691338658e-11
7.99039913630351e-13
1.9250144947061e-11
-1.8930550896379e-13
1.95489209050752e-11
-1.08911475786936e-12
1.98772725147225e-11
-1.87680811662192e-12
2.03015754214658e-11
-2.52513448486125e-12
2.08524800401334e-11
-3.03345349106278e-12
2.13993668354287e-11
-3.39480907510961e-12
2.19589896720623e-11
-3.5718792685411e-12
2.26517697366137e-11
-3.46904810764781e-12
2.37286604742342e-11
-2.98239962927998e-12
2.51334237468343e-11
-1.99731753915195e-12
2.68390939379669e-11
-3.21889035492452e-13
2.92469988202518e-11
2.34588022065908e-12
3.31813372939576e-11
6.11238159444503e-12
3.77047755011603e-11
1.09419606906679e-11
4.20037646463895e-11
1.68912427436732e-11
4.6549378895289e-11
2.41217044414608e-11
5.20007652513196e-11
3.26095867873767e-11
5.73400984231351e-11
4.21883979231887e-11
6.17295254177673e-11
5.2821454385326e-11
6.59584476315048e-11
6.45534238781388e-11
7.05758238983806e-11
7.72271137767175e-11
7.44513734803987e-11
9.05985471243339e-11
7.71264186283827e-11
1.04530950083568e-10
7.92652054193991e-11
1.1889203427023e-10
8.08897078656437e-11
1.33436692222531e-10
8.1347386249231e-11
1.47961549354287e-10
8.09364996776578e-11
1.62269704548392e-10
7.97033302462716e-11
1.76096931750337e-10
7.72481633842797e-11
1.89290773965167e-10
7.41543411090664e-11
2.01730153222784e-10
7.05806930840771e-11
2.13180936527711e-10
6.5989054713226e-11
2.23408800184313e-10
6.04016723888509e-11
2.32445157347541e-10
5.49097655461777e-11
2.40199090185935e-10
4.89470147814878e-11
2.46552849182077e-10
4.26191617012916e-11
2.51406604631315e-10
3.5855187376277e-11
2.54927465889172e-10
3.06894701929193e-11
2.56947251719586e-10
2.28523030882868e-11
2.59187238268995e-10
6.43690616901018e-12
2.60147175586213e-10
2.02345268065405e-12
2.60306867295808e-10
1.56889901624784e-13
2.59785296537556e-10
-2.17291445734544e-12
2.58857134689739e-10
-3.42198205690022e-12
2.57640916176453e-10
-4.48248819366137e-12
2.56263187576691e-10
-4.99048166400669e-12
2.54772784563918e-10
-5.3638443971557e-12
2.53238431721171e-10
-5.51012781782836e-12
2.51700476427187e-10
-5.51698794406821e-12
2.50202170026348e-10
-5.34584069519453e-12
2.48793720011589e-10
-4.93370272462053e-12
2.47600314962905e-10
-3.99047086225884e-12
-2.04637879619331e-12
-1.59516175728192e-10
8.93018030910305e-12
-1.56179851654186e-10
1.02018122459304e-11
-1.54320419464814e-10
1.34564198839799e-11
-1.53049297282125e-10
1.51741059847004e-11
-1.52014062187001e-10
1.59612529949526e-11
-1.51054675127491e-10
1.62504253531964e-11
-1.50112321820282e-10
1.63381522328978e-11
-1.49167234427792e-10
1.6358522212299e-11
-1.48214910404314e-10
1.63604278703403e-11
-1.47255392924105e-10
1.63583778506873e-11
-1.46288912305156e-10
1.63565723487476e-11
-1.45315261942255e-10
1.63555770825674e-11
-1.44334504210345e-10
1.63545430571113e-11
-1.43347366335532e-10
1.63523996570174e-11
-1.4235417133654e-10
1.63498505109442e-11
-1.41354601869454e-10
1.63474569314472e-11
-1.40348171213596e-10
1.63456301700137e-11
-1.39335411978165e-10
1.6342602959147e-11
-1.38316656260251e-10
1.633922815774e-11
-1.37291589695216e-10
1.63365078126334e-11
-1.3625962501819e-10
1.63347339312322e-11
-1.35220759200566e-10
1.63328119929643e-11
-1.3417535109848e-10
1.63303348156663e-11
-1.33123300952904e-10
1.63282512038915e-11
-1.32063834457992e-10
1.63276481595552e-11
-1.3099615702737e-10
1.63289056548525e-11
-1.29920628525374e-10
1.63296949163342e-11
-1.28837337208474e-10
1.63310311193506e-11
-1.27745344934575e-10
1.63345004898117e-11
-1.26643017474016e-10
1.63419994800394e-11
-1.25530404239058e-10
1.63496480492912e-11
-1.24407575421773e-10
1.63580984918971e-11
-1.23273416554143e-10
1.63695079387025e-11
-1.22125466582748e-10
1.63872860053643e-11
-1.20962244070892e-10
1.64095820858503e-11
-1.19783728367857e-10
1.64330185365681e-11
-1.18588835095913e-10
1.64601368298479e-11
-1.17373688093156e-10
1.64973313712932e-11
-1.16133447043186e-10
1.6549237585623e-11
-1.14868035229655e-10
1.66022989039602e-11
-1.13576490273145e-10
1.66598489413896e-11
-1.12253060621801e-10
1.67325138816347e-11
-1.10887671319063e-10
1.68365836149115e-11
-1.09478616339033e-10
1.69460950681749e-11
-1.0802491235842e-10
1.70604816420263e-11
-1.06519064409593e-10
1.71959103649012e-11
-1.04944984951873e-10
1.73813170414248e-11
-1.03292923644853e-10
1.75981425496766e-11
-1.01561932257447e-10
1.78180088902887e-11
-9.97444576355247e-11
1.80598457735539e-11
-9.78163432628148e-11
1.83735010362002e-11
-9.57489749568141e-11
1.87851867066237e-11
-9.35422441578459e-11
1.91927435649595e-11
-9.11916271114346e-11
1.96085222904051e-11
-8.8660641536814e-11
2.01209755500069e-11
-8.58547594021211e-11
2.09229947508305e-11
-8.26808716039916e-11
2.19598220064229e-11
-7.90449112530033e-11
2.32035478315588e-11
-7.47595309576896e-11
2.49621349363675e-11
-6.94909854782421e-11
2.79133821673189e-11
-6.31150881924558e-11
3.13295914172984e-11
-5.56773866464716e-11
3.45669632617323e-11
-4.71166759907887e-11
3.79897587149388e-11
-3.72448832962098e-11
4.21301975830969e-11
-2.608884258125e-11
4.61854090716668e-11
-1.38456764995594e-11
4.94878945837554e-11
-5.51188841506459e-13
5.26658997822384e-11
1.38617478721146e-11
5.61655730517885e-11
2.92250536767189e-11
5.90913140415385e-11
4.52716177523411e-11
6.10829724533767e-11
6.18687136402281e-11
6.26708461573788e-11
7.8887146612614e-11
6.38739501788795e-11
9.6065883194756e-11
6.41715093583436e-11
1.13197191772666e-10
6.38082371895706e-11
1.30083570251107e-10
6.28201783515816e-11
1.46444048530067e-10
6.08910663168838e-11
1.62128297324009e-10
5.84734635762649e-11
1.77009434369746e-10
5.57026662231647e-11
1.90857771143848e-10
5.21434706165693e-11
2.03416366371897e-10
4.78456493875458e-11
2.14744231685596e-10
4.35844162778981e-11
2.24678445332896e-10
3.90151795969319e-11
2.33221261772974e-10
3.40786940654477e-11
2.40101050794942e-10
2.89780312090445e-11
2.45762596559106e-10
2.50307884096659e-11
2.49344244127708e-10
1.92731964914869e-11
2.51606032732714e-10
4.17687690900837e-12
2.52334590499603e-10
1.29598838553024e-12
2.52515352340712e-10
-2.29914663143396e-14
2.51962288705673e-10
-1.61896211249226e-12
2.51099852392811e-10
-2.55883106599375e-12
2.49919753535418e-10
-3.30212192337305e-12
2.48610037220627e-10
-3.68106412100246e-12
2.4718355265539e-10
-3.93812588529501e-12
2.45721912064621e-10
-4.04922869354396e-12
2.44254823367922e-10
-4.0500648890634e-12
2.4283391082291e-10
-3.92460883580557e-12
2.41519631307802e-10
-3.61900237763843e-12
2.40453147065392e-10
-2.92355455031775e-12
-1.52602027204686e-12
-3.17982484367332e-10
4.07707400129046e-12
-3.13620095740764e-10
5.83944628101752e-12
-3.10194786346638e-10
1.00311328350433e-11
-3.07102494548569e-10
1.20818363929441e-11
-3.04117512946501e-10
1.29762932958421e-11
-3.01158985887853e-10
1.32919199880777e-11
-2.98203470530565e-10
1.33826633521849e-11
-2.95244371986267e-10
1.33994604867569e-11
-2.92280701194774e-10
1.33967959302744e-11
-2.89312880736413e-10
1.33905884415297e-11
-2.86341050997789e-10
1.33847694266383e-11
-2.83365061944955e-10
1.33796136607808e-11
-2.80384989330711e-10
1.33744956890598e-11
-2.77401339561899e-10
1.33687790751372e-11
-2.74414323710102e-10
1.33628679611058e-11
-2.71423768253181e-10
1.33569348638111e-11
-2.68429375976953e-10
1.33512690515601e-11
-2.65431566716036e-10
1.33448218081245e-11
-2.62430541131908e-10
1.33382284035611e-11
-2.59426042194483e-10
1.33320350889665e-11
-2.56417657687259e-10
1.33263760957541e-11
-2.53405409674232e-10
1.3320588715875e-11
-2.5038953928048e-10
1.33144882514572e-11
-2.4736992941924e-10
1.33086670766934e-11
-2.44345986221961e-10
1.33037326547514e-11
-2.41317068698616e-10
1.33000174443151e-11
-2.38283396640341e-10
1.32960533813307e-11
-2.35244920273707e-10
1.32925847139241e-11
-2.32200846095159e-10
1.3290462056634e-11
-2.29149812686509e-10
1.32910245652538e-11
-2.26091789958817e-10
1.32917097933105e-11
-2.23026697895094e-10
1.32930918874854e-11
-2.19953552700799e-10
1.32964241289193e-11
-2.16870236951751e-10
1.33040103040947e-11
-2.13775357465238e-10
1.33147357982023e-11
-2.10668690476829e-10
1.33263829361883e-11
-2.07549134607296e-10
1.33406109188054e-11
-2.04413273963351e-10
1.33614993033355e-11
-2.01256689086553e-10
1.33926811572186e-11
-1.9807905398724e-10
1.34246976040549e-11
-1.94879220368605e-10
1.34600559258233e-11
-1.91652010199785e-10
1.35053438628559e-11
-1.8838810821982e-10
1.35727169321047e-11
-1.85085715192741e-10
1.36437351209203e-11
-1.81743591380453e-10
1.37183914260173e-11
-1.78354783608429e-10
1.3807130488381e-11
-1.74904177807303e-10
1.39307377985133e-11
-1.71382402342529e-10
1.40764274541415e-11
-1.67788335775361e-10
1.42240233458e-11
-1.64114975729083e-10
1.43865329032471e-11
-1.60339549032915e-10
1.45981132578067e-11
-1.56434251188539e-10
1.48799638007996e-11
-1.52398974945625e-10
1.51575749291012e-11
-1.48230491204322e-10
1.54401885031581e-11
-1.43895317706545e-10
1.57859945081854e-11
-1.39305526288914e-10
1.63334213227513e-11
-1.34380505967544e-10
1.70350895235967e-11
-1.29044524877028e-10
1.78679834497251e-11
-1.23125505885532e-10
1.90436357622028e-11
-1.16287663665998e-10
2.10761351425928e-11
-1.08400083431699e-10
2.34427294419102e-11
-9.95101069105394e-11
2.56778907874011e-11
-8.95576756533562e-11
2.80384226676678e-11
-7.83476837715731e-11
3.09214361322148e-11
-6.59062537309328e-11
3.37453357674272e-11
-5.2439653782619e-11
3.60228402113094e-11
-3.79826395606045e-11
3.82108388159602e-11
-2.24571992589627e-11
4.06428229952856e-11
-6.02942358869568e-12
4.2666787065776e-11
1.10319754789687e-11
4.40247068911201e-11
2.86024224127929e-11
4.51031543024446e-11
4.65608275733885e-11
4.59182260668863e-11
6.46481745928912e-11
4.60870267318668e-11
8.26640154445973e-11
4.57954694076742e-11
1.00420076592507e-10
4.50673748130445e-11
1.17638558577115e-10
4.36759659825163e-11
1.34176976288397e-10
4.19384070830771e-11
1.49913788185904e-10
3.996897344693e-11
1.6463151934366e-10
3.74285069409033e-11
1.78074034017326e-10
3.44057121935242e-11
1.90310025820606e-10
3.13509384750567e-11
2.0115473579391e-10
2.81728440353025e-11
2.10654024601536e-10
2.45817506615511e-11
2.18484147541958e-10
2.11505322464584e-11
2.25232282902291e-10
1.82855062565714e-11
2.29740650709192e-10
1.47673756926528e-11
2.31749945295303e-10
2.16935035085293e-12
2.32242458132808e-10
8.04552643930621e-13
2.32388505667022e-10
-1.68189683097247e-13
2.31841076165362e-10
-1.0706690626322e-12
2.31057013113028e-10
-1.77406073644297e-12
2.29972211897329e-10
-2.21703923670915e-12
2.28785493094959e-10
-2.49461673359863e-12
2.27491501090607e-10
-2.64487727782693e-12
2.26170038225378e-10
-2.72852658272672e-12
2.24843051818428e-10
-2.72331235293241e-12
2.23560861197353e-10
-2.64214232969033e-12
2.22381380669362e-10
-2.43908105455229e-12
2.21440037839843e-10
-1.98175125112222e-12
-1.06803000298337e-12
-3.97350114466537e-10
-4.3737803652083e-13
-3.93375588140621e-10
1.86494312158438e-12
-3.8951583598673e-10
6.17140351625088e-12
-3.85564062068062e-10
8.13008517985394e-12
-3.81524606474013e-10
8.93686007895857e-12
-3.77442205514569e-10
9.20954121292154e-12
-3.73343515792537e-10
9.2840007147011e-12
-3.69239289511094e-10
9.29527175771613e-12
-3.65133125669575e-10
9.29067170135479e-12
-3.61026083516666e-10
9.28357804125421e-12
-3.56918244174857e-10
9.27695749943654e-12
-3.52809469113793e-10
9.27086468785719e-12
-3.48699805831252e-10
9.26485810725732e-12
-3.44589560208052e-10
9.25856327129453e-12
-3.40478851808327e-10
9.25219357838003e-12
-3.36367625131548e-10
9.24574223310481e-12
-3.32255734948198e-10
9.23941056918067e-12
-3.28143489250697e-10
9.23260465074821e-12
-3.24030986975754e-10
9.22575235708223e-12
-3.19918040534644e-10
9.21911523837702e-12
-3.1580439115466e-10
9.21275377953172e-12
-3.11690072557311e-10
9.20629529957676e-12
-3.07575226507417e-10
9.19966643414434e-12
-3.03459737672019e-10
9.19320429114331e-12
-2.99343188878026e-10
9.18721185812953e-12
-2.95225091084924e-10
9.18194934955632e-12
-2.91105550131928e-10
9.17654339121535e-12
-2.86984426432338e-10
9.17149137804453e-12
-2.82861100447776e-10
9.16717235200433e-12
-2.78734497677247e-10
9.16448131739284e-12
-2.74604534804909e-10
9.16183287611542e-12
-2.704710302546e-10
9.15967422809848e-12
-2.66333176018631e-10
9.15863227186247e-12
-2.62189257164519e-10
9.16013209268392e-12
-2.58038044096534e-10
9.16355630272237e-12
-2.53879185472228e-10
9.16755597955774e-12
-2.49711654000836e-10
9.17310963865588e-12
-2.45532641980235e-10
9.18251599347206e-12
-2.41338332884519e-10
9.19840063386762e-12
-2.37128258430047e-10
9.21465718443636e-12
-2.32901209957279e-10
9.23304830019994e-12
-2.28652873864972e-10
9.25704782077497e-12
-2.24375121992776e-10
9.29500018101772e-12
-2.20066239949362e-10
9.33488683329232e-12
-2.15724870644951e-10
9.37705655723631e-12
-2.11345051600027e-10
9.42733880425213e-12
-2.06913503666559e-10
9.49921566724542e-12
-2.02421789637638e-10
9.58477498101336e-12
-1.97868744979175e-10
9.67106115222952e-12
-1.93248302910619e-10
9.76613745067726e-12
-1.88540596814581e-10
9.89044514058004e-12
-1.83720289610636e-10
1.00597314266207e-11
-1.78787383361649e-10
1.02247762389576e-11
-1.73739566856539e-10
1.03925220965577e-11
-1.68548555702367e-10
1.05951767540192e-11
-1.63137409503957e-10
1.09224945715773e-11
-1.57440062193578e-10
1.1338031695279e-11
-1.5139831661293e-10
1.18266570101669e-11
-1.44865621413345e-10
1.25114638369722e-11
-1.37529588283763e-10
1.37407019388423e-11
-1.29264685404173e-10
1.5178549765572e-11
-1.20115577955109e-10
1.65296915107838e-11
-1.10028933924424e-10
1.79528789262305e-11
-9.88190991978529e-11
1.97128375816051e-11
-8.65089744013107e-11
2.14365734149664e-11
-7.32953252159718e-11
2.28107464950107e-11
-5.92105553605249e-11
2.41280349304863e-11
-4.41747430064549e-11
2.56097062766628e-11
-2.83401409873641e-11
2.68354377043405e-11
-1.19564169400202e-11
2.76441314574718e-11
4.86589451013777e-12
2.82836152495176e-11
2.20202576956232e-11
2.87665506840819e-11
3.9267361199441e-11
2.88427934158722e-11
5.64265993388086e-11
2.86393285327543e-11
7.33293092103318e-11
2.8167949691943e-11
8.9720975693529e-11
2.72876814597633e-11
1.05473230921869e-10
2.61895032820608e-11
1.20479897926392e-10
2.49654311776531e-11
1.34543650173379e-10
2.33675325154816e-11
1.47436954276899e-10
2.15149878325621e-11
1.59215651422719e-10
1.95747520357226e-11
1.69719179336543e-10
1.76716870243941e-11
1.78977023444316e-10
1.53262500736503e-11
1.86727593978639e-10
1.34025772642586e-11
1.93545389617749e-10
1.14705483230974e-11
1.98362048299961e-10
9.95325730109632e-12
1.99899783662588e-10
6.33381481708636e-13
2.00197260649455e-10
5.08142721230166e-13
2.00278535170321e-10
-2.48626202952312e-13
1.99792089981082e-10
-5.8336663151715e-13
1.99114557104559e-10
-1.09582297976798e-12
1.98188133041527e-10
-1.29033341419033e-12
1.97179543612629e-10
-1.48629506932519e-12
1.96084128740371e-10
-1.5501949042533e-12
1.9496611886916e-10
-1.61127893676293e-12
1.93844161943119e-10
-1.6016212835571e-12
1.92760363787286e-10
-1.55809180865006e-12
1.91764694190517e-10
-1.44295976718884e-12
1.90974472315497e-10
-1.19105764179156e-12
-6.81721285496926e-13
-3.94191323666544e-10
-3.03622657122014e-12
-3.91804561424703e-10
-5.21795442838034e-13
-3.88465540764891e-10
2.83240618675595e-12
-3.84574925741085e-10
4.23949335841533e-12
-3.80412917092413e-10
4.77487428749435e-12
-3.76149702051978e-10
4.94634883260731e-12
-3.71855823019362e-10
4.99014933370348e-12
-3.67555630102768e-10
4.99511713551261e-12
-3.63255923803614e-10
4.99100582379628e-12
-3.58958077404379e-10
4.98576410617219e-12
-3.54662054215238e-10
4.98096232044358e-12
-3.50367680336494e-10
4.97651739371657e-12
-3.46074954210031e-10
4.97215815889541e-12
-3.41784035204717e-10
4.96767467904238e-12
-3.37494978479108e-10
4.96317155394028e-12
-3.332078026089e-10
4.95860107035859e-12
-3.28922454637499e-10
4.95409486245074e-12
-3.2463915633871e-10
4.94933534507925e-12
-3.20357943533668e-10
4.9445661895898e-12
-3.16078691405017e-10
4.93989011492512e-12
-3.11801252151414e-10
4.93534202260451e-12
-3.07525665214867e-10
4.93073398070287e-12
-3.03252009874728e-10
4.92603572872052e-12
-2.98980190920618e-10
4.92141175130423e-12
-2.947099415637e-10
4.91699085575361e-12
-2.90440903480586e-10
4.91294136314599e-12
-2.86173123844258e-10
4.90879515484222e-12
-2.81906436709657e-10
4.90483501623071e-12
-2.77640405510218e-10
4.90117793223496e-12
-2.73374217651525e-10
4.89835391609036e-12
-2.69107792240838e-10
4.89549485899089e-12
-2.64840924116614e-10
4.89289449379191e-12
-2.60573018894269e-10
4.89079052389529e-12
-2.56302777025112e-10
4.88993152321853e-12
-2.52029202048565e-10
4.89001531223702e-12
-2.47751944489117e-10
4.890330401186e-12
-2.43470166816802e-10
4.89136242636117e-12
-2.39181764299821e-10
4.89414239200177e-12
-2.34883632252699e-10
4.90029734439468e-12
-2.30575362045351e-10
4.90642127987717e-12
-2.26255880207743e-10
4.91360763310934e-12
-2.21921974743533e-10
4.92318255331298e-12
-2.17566979556709e-10
4.94004015553751e-12
-2.13189552560165e-10
4.95749403029917e-12
-2.08788486014743e-10
4.97602505550236e-12
-2.04359230215256e-10
4.99811027029782e-12
-1.99891010297735e-10
5.03102117635881e-12
-1.95376879047542e-10
5.07070600976727e-12
-1.90815982965746e-10
5.11024868222737e-12
-1.86203637275502e-10
5.1538384602184e-12
-1.81524189628042e-10
5.21103513242451e-12
-1.76756185003689e-10
5.29180166973511e-12
-1.71900211199306e-10
5.36891016034309e-12
-1.66954804111863e-10
5.44726554445478e-12
-1.61899028237702e-10
5.53959535807933e-12
-1.56670710654132e-10
5.69439794233606e-12
-1.51220642373495e-10
5.88825480223228e-12
-1.45507932301137e-10
6.11436902540363e-12
-1.39421397888769e-10
6.42545671707712e-12
-1.32695709772781e-10
7.01561865339658e-12
-1.25223903930072e-10
7.70747246334455e-12
-1.17045328863074e-10
8.35203021365233e-12
-1.08118658993019e-10
9.02731611395061e-12
-9.82828251446063e-11
9.87824743101176e-12
-8.75559379043433e-11
1.07110562888353e-11
-7.61078234636962e-11
1.13641973865483e-11
-6.39662321759968e-11
1.19884219836727e-11
-5.10569933049265e-11
1.27031738799075e-11
-3.7507239580325e-11
1.32889472267802e-11
-2.35269245299685e-11
1.36669794479362e-11
-9.20519782432159e-12
1.3964675773289e-11
5.37356495716714e-12
1.41904857245603e-11
2.00079585629371e-11
1.4211278713253e-11
3.45511130569944e-11
1.40992887477835e-11
4.88654093586036e-11
1.38569585420281e-11
6.27404226105822e-11
1.34160566176729e-11
7.60691601352117e-11
1.28641144141893e-11
8.87715814053741e-11
1.22661367762212e-11
1.00678050556586e-10
1.14638461592527e-11
1.11618222885109e-10
1.05773964576057e-11
1.21611897287481e-10
9.58358541912226e-12
1.30569084891556e-10
8.71686610411727e-12
1.3844374616393e-10
7.45392826826041e-12
1.4514821308734e-10
6.70071686338135e-12
1.51059005027783e-10
5.56257851370537e-12
1.55580980477768e-10
5.43380871388151e-12
1.56469446286372e-10
-2.53326707133504e-13
1.56647533967536e-10
3.31113590267713e-13
1.56642406926907e-10
-2.42667833973663e-13
1.56275082266306e-10
-2.1518942693967e-13
1.55732687448962e-10
-5.52727319873898e-13
1.55023846999317e-10
-5.81214369588799e-13
1.54242908466284e-10
-7.05625202527945e-13
1.53405115455709e-10
-7.13129881461611e-13
1.52546326240575e-10
-7.5325078380986e-13