/*--------------------------------*- C++ -*----------------------------------*\
| =========                 |                                                 |
| \\      /  F ield         | OpenFOAM: The Open Source CFD Toolbox           |
|  \\    /   O peration     | Version:  4.1                                   |
|   \\  /    A nd           | Web:      www.OpenFOAM.org                      |
|    \\/     M anipulation  |                                                 |
\*---------------------------------------------------------------------------*/
FoamFile
{
    version     2.0;
    format      ascii;
    class       volVectorField;
    location    "0.0076";
    object      cellDisplacement;
}
// * * * * * * * * * * * * * * * * * * * * * * * * * * * * * * * * * * * * * //

dimensions      [0 1 0 0 0 0 0];

internalField   nonuniform List<vector> 
1536
(
(-2.9339e-07 -1.0571e-06 3.9215e-10)
(-7.7526e-07 -3.1559e-06 1.1628e-09)
(-9.8231e-07 -5.2309e-06 1.9154e-09)
(-8.3767e-07 -7.359e-06 2.6786e-09)
(-3.4444e-07 -9.687e-06 3.4959e-09)
(4.6876e-07 -1.2336e-05 4.4096e-09)
(1.5869e-06 -1.5344e-05 5.4465e-09)
(3.0113e-06 -1.8688e-05 6.6077e-09)
(4.7481e-06 -2.2318e-05 7.8821e-09)
(6.8016e-06 -2.6177e-05 9.2481e-09)
(9.1686e-06 -3.0192e-05 1.0672e-08)
(1.1835e-05 -3.4273e-05 1.2128e-08)
(-2.741e-07 -9.2882e-07 1.5573e-07)
(-7.2388e-07 -2.7758e-06 4.6533e-07)
(-9.1401e-07 -4.61e-06 7.7269e-07)
(-7.6636e-07 -6.497e-06 1.0888e-06)
(-2.7611e-07 -8.5577e-06 1.434e-06)
(5.347e-07 -1.0893e-05 1.8251e-06)
(1.6526e-06 -1.3539e-05 2.2677e-06)
(3.0776e-06 -1.6476e-05 2.7589e-06)
(4.8148e-06 -1.9665e-05 3.292e-06)
(6.8673e-06 -2.3052e-05 3.8583e-06)
(9.2313e-06 -2.6575e-05 4.4469e-06)
(1.1893e-05 -3.0154e-05 5.0446e-06)
(-2.6106e-07 -7.8695e-07 3.1526e-07)
(-6.8898e-07 -2.3535e-06 9.4266e-07)
(-8.6715e-07 -3.9134e-06 1.5671e-06)
(-7.1679e-07 -5.5213e-06 2.2106e-06)
(-2.2813e-07 -7.2754e-06 2.9125e-06)
(5.8113e-07 -9.2585e-06 3.706e-06)
(1.6988e-06 -1.1501e-05 4.6028e-06)
(3.1241e-06 -1.3989e-05 5.5976e-06)
(4.8615e-06 -1.6689e-05 6.677e-06)
(6.9132e-06 -1.9557e-05 7.8234e-06)
(9.275e-06 -2.2539e-05 9.015e-06)
(1.1933e-05 -2.5567e-05 1.0225e-05)
(-2.5453e-07 -6.352e-07 4.7673e-07)
(-6.7144e-07 -1.9003e-06 1.4261e-06)
(-8.4345e-07 -3.1614e-06 2.3722e-06)
(-6.915e-07 -4.4623e-06 3.3481e-06)
(-2.035e-07 -5.8808e-06 4.4121e-06)
(6.05e-07 -7.4827e-06 5.6137e-06)
(1.7225e-06 -9.2921e-06 6.9708e-06)
(3.1481e-06 -1.1299e-05 8.4759e-06)
(4.8855e-06 -1.3477e-05 1.0109e-05)
(6.9367e-06 -1.579e-05 1.1843e-05)
(9.2975e-06 -1.8194e-05 1.3646e-05)
(1.1954e-05 -2.0634e-05 1.5475e-05)
(-2.5453e-07 -4.7665e-07 6.3527e-07)
(-6.7144e-07 -1.4258e-06 1.9005e-06)
(-8.4345e-07 -2.3719e-06 3.1617e-06)
(-6.9151e-07 -3.3477e-06 4.4627e-06)
(-2.035e-07 -4.4116e-06 5.8813e-06)
(6.05e-07 -5.613e-06 7.4832e-06)
(1.7225e-06 -6.97e-06 9.2928e-06)
(3.1481e-06 -8.475e-06 1.13e-05)
(4.8855e-06 -1.0108e-05 1.3478e-05)
(6.9367e-06 -1.1842e-05 1.5791e-05)
(9.2975e-06 -1.3644e-05 1.8195e-05)
(1.1954e-05 -1.5474e-05 2.0636e-05)
(-2.6106e-07 -3.1519e-07 7.8701e-07)
(-6.8898e-07 -9.4244e-07 2.3537e-06)
(-8.6715e-07 -1.5668e-06 3.9137e-06)
(-7.1679e-07 -2.2101e-06 5.5216e-06)
(-2.2814e-07 -2.9119e-06 7.2757e-06)
(5.8113e-07 -3.7053e-06 9.2589e-06)
(1.6988e-06 -4.6019e-06 1.1501e-05)
(3.1242e-06 -5.5965e-06 1.3989e-05)
(4.8615e-06 -6.6757e-06 1.6689e-05)
(6.9132e-06 -7.8219e-06 1.9558e-05)
(9.275e-06 -9.0133e-06 2.254e-05)
(1.1933e-05 -1.0223e-05 2.5567e-05)
(-2.741e-07 -1.5566e-07 9.2887e-07)
(-7.2388e-07 -4.6511e-07 2.776e-06)
(-9.1401e-07 -7.7235e-07 4.6102e-06)
(-7.6636e-07 -1.0884e-06 6.4972e-06)
(-2.7611e-07 -1.4334e-06 8.558e-06)
(5.3471e-07 -1.8244e-06 1.0894e-05)
(1.6526e-06 -2.2668e-06 1.3539e-05)
(3.0776e-06 -2.7579e-06 1.6476e-05)
(4.8148e-06 -3.2908e-06 1.9665e-05)
(6.8673e-06 -3.8568e-06 2.3053e-05)
(9.2313e-06 -4.4452e-06 2.6576e-05)
(1.1893e-05 -5.0427e-06 3.0155e-05)
(-2.9339e-07 -3.2545e-10 1.0572e-06)
(-7.7526e-07 -9.6975e-10 3.156e-06)
(-9.8232e-07 -1.6115e-09 5.2311e-06)
(-8.3767e-07 -2.2768e-09 7.3592e-06)
(-3.4444e-07 -2.996e-09 9.6872e-06)
(4.6877e-07 -3.7972e-09 1.2336e-05)
(1.5869e-06 -4.6975e-09 1.5344e-05)
(3.0113e-06 -5.7015e-09 1.8688e-05)
(4.7481e-06 -6.8021e-09 2.2319e-05)
(6.8016e-06 -7.9826e-09 2.6177e-05)
(9.1686e-06 -9.2176e-09 3.0192e-05)
(1.1835e-05 -1.0475e-08 3.4273e-05)
(-2.7411e-07 -9.2878e-07 -1.5505e-07)
(-7.239e-07 -2.7757e-06 -4.633e-07)
(-9.1404e-07 -4.6098e-06 -7.6935e-07)
(-7.6639e-07 -6.4967e-06 -1.0841e-06)
(-2.7614e-07 -8.5573e-06 -1.4279e-06)
(5.3467e-07 -1.0893e-05 -1.8174e-06)
(1.6526e-06 -1.3538e-05 -2.2583e-06)
(3.0775e-06 -1.6475e-05 -2.7475e-06)
(4.8147e-06 -1.9664e-05 -3.2784e-06)
(6.8672e-06 -2.3051e-05 -3.8423e-06)
(9.2312e-06 -2.6574e-05 -4.4285e-06)
(1.1893e-05 -3.0153e-05 -5.0237e-06)
(-2.5407e-07 -7.9493e-07 7.312e-10)
(-6.7028e-07 -2.3783e-06 2.1822e-09)
(-8.4202e-07 -3.9573e-06 3.623e-09)
(-6.9014e-07 -5.5866e-06 5.1025e-09)
(-2.0222e-07 -7.363e-06 6.6978e-09)
(6.0633e-07 -9.3685e-06 8.4803e-09)
(1.7239e-06 -1.1634e-05 1.0489e-08)
(3.1496e-06 -1.4147e-05 1.2723e-08)
(4.8871e-06 -1.6873e-05 1.5161e-08)
(6.9385e-06 -1.9769e-05 1.7766e-08)
(9.2992e-06 -2.2779e-05 2.048e-08)
(1.1955e-05 -2.5834e-05 2.3244e-08)
(-2.4079e-07 -6.493e-07 1.6306e-07)
(-6.3456e-07 -1.944e-06 4.8814e-07)
(-7.9361e-07 -3.2385e-06 8.1304e-07)
(-6.383e-07 -4.5767e-06 1.1488e-06)
(-1.515e-07 -6.0343e-06 1.5145e-06)
(6.5565e-07 -7.676e-06 1.9263e-06)
(1.773e-06 -9.5272e-06 2.3906e-06)
(3.199e-06 -1.1579e-05 2.9051e-06)
(4.9367e-06 -1.3805e-05 3.4632e-06)
(6.9872e-06 -1.6168e-05 4.0556e-06)
(9.3458e-06 -1.8624e-05 4.6713e-06)
(1.1998e-05 -2.1116e-05 5.2958e-06)
(-2.3416e-07 -4.9303e-07 3.2913e-07)
(-6.1668e-07 -1.4766e-06 9.8569e-07)
(-7.6924e-07 -2.4612e-06 1.6428e-06)
(-6.1203e-07 -3.4798e-06 2.3226e-06)
(-1.2565e-07 -4.5888e-06 3.0626e-06)
(6.8084e-07 -5.8365e-06 3.8951e-06)
(1.798e-06 -7.2421e-06 4.833e-06)
(3.2242e-06 -8.7995e-06 5.872e-06)
(4.9619e-06 -1.0489e-05 6.9988e-06)
(7.012e-06 -1.2282e-05 8.1952e-06)
(9.3695e-06 -1.4145e-05 9.4381e-06)
(1.202e-05 -1.6035e-05 1.0699e-05)
(-2.3416e-07 -3.2904e-07 4.9311e-07)
(-6.1668e-07 -9.8542e-07 1.4769e-06)
(-7.6924e-07 -1.6424e-06 2.4616e-06)
(-6.1203e-07 -2.322e-06 3.4803e-06)
(-1.2565e-07 -3.0618e-06 4.5894e-06)
(6.8084e-07 -3.8942e-06 5.8372e-06)
(1.798e-06 -4.8319e-06 7.243e-06)
(3.2242e-06 -5.8707e-06 8.8005e-06)
(4.9619e-06 -6.9973e-06 1.049e-05)
(7.0121e-06 -8.1934e-06 1.2283e-05)
(9.3695e-06 -9.4361e-06 1.4147e-05)
(1.202e-05 -1.0697e-05 1.6037e-05)
(-2.4079e-07 -1.6296e-07 6.4937e-07)
(-6.3456e-07 -4.8785e-07 1.9442e-06)
(-7.9361e-07 -8.1258e-07 3.2388e-06)
(-6.383e-07 -1.1482e-06 4.5771e-06)
(-1.515e-07 -1.5137e-06 6.0347e-06)
(6.5566e-07 -1.9253e-06 7.6765e-06)
(1.773e-06 -2.3894e-06 9.5278e-06)
(3.199e-06 -2.9037e-06 1.158e-05)
(4.9367e-06 -3.4614e-06 1.3806e-05)
(6.9872e-06 -4.0536e-06 1.6169e-05)
(9.3458e-06 -4.6689e-06 1.8625e-05)
(1.1998e-05 -5.2932e-06 2.1118e-05)
(-2.5407e-07 -6.3314e-10 7.9497e-07)
(-6.7028e-07 -1.8939e-09 2.3784e-06)
(-8.4202e-07 -3.1569e-09 3.9575e-06)
(-6.9014e-07 -4.4675e-09 5.5868e-06)
(-2.0222e-07 -5.8891e-09 7.3632e-06)
(6.0634e-07 -7.4782e-09 9.3687e-06)
(1.7239e-06 -9.2633e-09 1.1634e-05)
(3.1496e-06 -1.1244e-08 1.4147e-05)
(4.8871e-06 -1.3404e-08 1.6873e-05)
(6.9385e-06 -1.5709e-08 1.9769e-05)
(9.2992e-06 -1.8113e-08 2.2779e-05)
(1.1955e-05 -2.0557e-08 2.5834e-05)
(-2.7411e-07 1.5513e-07 9.2881e-07)
(-7.239e-07 4.6355e-07 2.7758e-06)
(-9.1404e-07 7.6974e-07 4.6099e-06)
(-7.664e-07 1.0847e-06 6.4968e-06)
(-2.7614e-07 1.4286e-06 8.5574e-06)
(5.3468e-07 1.8182e-06 1.0893e-05)
(1.6526e-06 2.2593e-06 1.3538e-05)
(3.0776e-06 2.7487e-06 1.6475e-05)
(4.8147e-06 3.2798e-06 1.9664e-05)
(6.8672e-06 3.844e-06 2.3051e-05)
(9.2312e-06 4.4305e-06 2.6574e-05)
(1.1893e-05 5.0259e-06 3.0153e-05)
(-2.611e-07 -7.8704e-07 -3.1528e-07)
(-6.8908e-07 -2.3538e-06 -9.4274e-07)
(-8.6728e-07 -3.9139e-06 -1.5673e-06)
(-7.1693e-07 -5.5219e-06 -2.2109e-06)
(-2.2827e-07 -7.2762e-06 -2.913e-06)
(5.8098e-07 -9.2596e-06 -3.7067e-06)
(1.6986e-06 -1.1502e-05 -4.6038e-06)
(3.124e-06 -1.399e-05 -5.5988e-06)
(4.8613e-06 -1.6691e-05 -6.6785e-06)
(6.913e-06 -1.956e-05 -7.8252e-06)
(9.2748e-06 -2.2542e-05 -9.0171e-06)
(1.1933e-05 -2.557e-05 -1.0227e-05)
(-2.4082e-07 -6.4921e-07 -1.6237e-07)
(-6.3464e-07 -1.9437e-06 -4.8607e-07)
(-7.9371e-07 -3.238e-06 -8.0962e-07)
(-6.3841e-07 -4.576e-06 -1.144e-06)
(-1.5161e-07 -6.0333e-06 -1.5082e-06)
(6.5554e-07 -7.6748e-06 -1.9185e-06)
(1.7729e-06 -9.5257e-06 -2.381e-06)
(3.1989e-06 -1.1577e-05 -2.8935e-06)
(4.9365e-06 -1.3803e-05 -3.4493e-06)
(6.9871e-06 -1.6166e-05 -4.0394e-06)
(9.3456e-06 -1.8622e-05 -4.6526e-06)
(1.1998e-05 -2.1113e-05 -5.2746e-06)
(-2.2731e-07 -4.9953e-07 5.7255e-10)
(-5.9819e-07 -1.4967e-06 1.7106e-09)
(-7.4402e-07 -2.4962e-06 2.8398e-09)
(-5.8478e-07 -3.5315e-06 3.9932e-09)
(-9.8782e-08 -4.658e-06 5.2306e-09)
(7.071e-07 -5.9239e-06 6.6086e-09)
(1.8242e-06 -7.349e-06 8.1572e-09)
(3.2506e-06 -8.9275e-06 9.8778e-09)
(4.9884e-06 -1.0639e-05 1.1755e-08)
(7.0381e-06 -1.2457e-05 1.3761e-08)
(9.3943e-06 -1.4345e-05 1.586e-08)
(1.2043e-05 -1.626e-05 1.8007e-08)
(-2.2056e-07 -3.3908e-07 1.7038e-07)
(-5.7992e-07 -1.0163e-06 5.1063e-07)
(-7.1897e-07 -1.696e-06 8.5209e-07)
(-5.5758e-07 -2.4005e-06 1.206e-06)
(-7.1839e-08 -3.1668e-06 1.5909e-06)
(7.3345e-07 -4.0269e-06 2.0229e-06)
(1.8504e-06 -4.9945e-06 2.5089e-06)
(3.277e-06 -6.0658e-06 3.0469e-06)
(5.0148e-06 -7.2274e-06 3.6304e-06)
(7.064e-06 -8.4606e-06 4.2497e-06)
(9.4192e-06 -9.7415e-06 4.893e-06)
(1.2066e-05 -1.1041e-05 5.5455e-06)
(-2.2056e-07 -1.7026e-07 3.3918e-07)
(-5.7992e-07 -5.1029e-07 1.0166e-06)
(-7.1897e-07 -8.5154e-07 1.6964e-06)
(-5.5758e-07 -1.2052e-06 2.4011e-06)
(-7.1838e-08 -1.5899e-06 3.1676e-06)
(7.3345e-07 -2.0218e-06 4.0279e-06)
(1.8504e-06 -2.5075e-06 4.9956e-06)
(3.277e-06 -3.0452e-06 6.0672e-06)
(5.0148e-06 -3.6283e-06 7.2291e-06)
(7.064e-06 -4.2473e-06 8.4625e-06)
(9.4192e-06 -4.8903e-06 9.7437e-06)
(1.2066e-05 -5.5424e-06 1.1043e-05)
(-2.2731e-07 -4.4166e-10 4.9961e-07)
(-5.9819e-07 -1.323e-09 1.4969e-06)
(-7.4402e-07 -2.206e-09 2.4966e-06)
(-5.8478e-07 -3.1186e-09 3.5319e-06)
(-9.8778e-08 -4.1062e-09 4.6585e-06)
(7.0711e-07 -5.209e-09 5.9246e-06)
(1.8242e-06 -6.4455e-09 7.3498e-06)
(3.2506e-06 -7.8146e-09 8.9284e-06)
(4.9884e-06 -9.303e-09 1.064e-05)
(7.0381e-06 -1.0891e-08 1.2458e-05)
(9.3944e-06 -1.2552e-08 1.4346e-05)
(1.2043e-05 -1.425e-08 1.6262e-05)
(-2.4082e-07 1.6251e-07 6.4924e-07)
(-6.3463e-07 4.8649e-07 1.9438e-06)
(-7.9371e-07 8.103e-07 3.2381e-06)
(-6.3841e-07 1.1449e-06 4.5761e-06)
(-1.5161e-07 1.5094e-06 6.0334e-06)
(6.5556e-07 1.92e-06 7.6749e-06)
(1.7729e-06 2.3828e-06 9.5258e-06)
(3.1989e-06 2.8957e-06 1.1577e-05)
(4.9366e-06 3.452e-06 1.3803e-05)
(6.9871e-06 4.0426e-06 1.6166e-05)
(9.3456e-06 4.6562e-06 1.8622e-05)
(1.1998e-05 5.2787e-06 2.1113e-05)
(-2.611e-07 3.1539e-07 7.8705e-07)
(-6.8908e-07 9.4307e-07 2.3538e-06)
(-8.6728e-07 1.5678e-06 3.9139e-06)
(-7.1693e-07 2.2116e-06 5.5219e-06)
(-2.2827e-07 2.9139e-06 7.2761e-06)
(5.81e-07 3.7078e-06 9.2594e-06)
(1.6986e-06 4.6052e-06 1.1502e-05)
(3.124e-06 5.6006e-06 1.399e-05)
(4.8613e-06 6.6805e-06 1.6691e-05)
(6.913e-06 7.8276e-06 1.9559e-05)
(9.2748e-06 9.0198e-06 2.2541e-05)
(1.1933e-05 1.023e-05 2.5569e-05)
(-2.5454e-07 -6.3515e-07 -4.7662e-07)
(-6.7145e-07 -1.9001e-06 -1.4258e-06)
(-8.4346e-07 -3.1611e-06 -2.3718e-06)
(-6.9151e-07 -4.462e-06 -3.3476e-06)
(-2.0351e-07 -5.8803e-06 -4.4115e-06)
(6.0498e-07 -7.4821e-06 -5.613e-06)
(1.7224e-06 -9.2915e-06 -6.9701e-06)
(3.148e-06 -1.1298e-05 -8.4751e-06)
(4.8854e-06 -1.3476e-05 -1.0108e-05)
(6.9366e-06 -1.5789e-05 -1.1842e-05)
(9.2973e-06 -1.8192e-05 -1.3645e-05)
(1.1954e-05 -2.0633e-05 -1.5474e-05)
(-2.3415e-07 -4.927e-07 -3.2897e-07)
(-6.1666e-07 -1.4756e-06 -9.852e-07)
(-7.6921e-07 -2.4595e-06 -1.642e-06)
(-6.1199e-07 -3.4775e-06 -2.3215e-06)
(-1.2562e-07 -4.5857e-06 -3.0613e-06)
(6.8087e-07 -5.8325e-06 -3.8936e-06)
(1.798e-06 -7.2372e-06 -4.8312e-06)
(3.2242e-06 -8.7936e-06 -5.8699e-06)
(4.9619e-06 -1.0482e-05 -6.9965e-06)
(7.012e-06 -1.2274e-05 -8.1924e-06)
(9.3694e-06 -1.4136e-05 -9.4349e-06)
(1.202e-05 -1.6025e-05 -1.0695e-05)
(-2.2055e-07 -3.3892e-07 -1.6986e-07)
(-5.799e-07 -1.0158e-06 -5.091e-07)
(-7.1895e-07 -1.6952e-06 -8.4956e-07)
(-5.5755e-07 -2.3993e-06 -1.2025e-06)
(-7.1815e-08 -3.1653e-06 -1.5863e-06)
(7.3347e-07 -4.0251e-06 -2.0173e-06)
(1.8504e-06 -4.9921e-06 -2.5019e-06)
(3.277e-06 -6.0629e-06 -3.0386e-06)
(5.0148e-06 -7.224e-06 -3.6204e-06)
(7.064e-06 -8.4566e-06 -4.2381e-06)
(9.4191e-06 -9.737e-06 -4.8797e-06)
(1.2066e-05 -1.1036e-05 -5.5303e-06)
(-2.137e-07 -1.735e-07 1.9608e-10)
(-5.6134e-07 -5.2018e-07 5.8152e-10)
(-6.9343e-07 -8.6857e-07 9.5288e-10)
(-5.2972e-07 -1.23e-06 1.3174e-09)
(-4.4163e-08 -1.623e-06 1.6944e-09)
(7.6056e-07 -2.0636e-06 2.1048e-09)
(1.8773e-06 -2.5589e-06 2.5627e-09)
(3.3041e-06 -3.1071e-06 3.0733e-09)
(5.0419e-06 -3.7015e-06 3.6362e-09)
(7.0908e-06 -4.3324e-06 4.2472e-09)
(9.4447e-06 -4.9877e-06 4.8974e-09)
(1.209e-05 -5.6523e-06 5.575e-09)
(-2.137e-07 -6.0594e-11 1.7363e-07)
(-5.6134e-07 -1.7987e-10 5.2056e-07)
(-6.9343e-07 -2.9522e-10 8.6919e-07)
(-5.2972e-07 -4.0927e-10 1.2309e-06)
(-4.4162e-08 -5.2716e-10 1.6241e-06)
(7.6056e-07 -6.5408e-10 2.065e-06)
(1.8774e-06 -7.9246e-10 2.5606e-06)
(3.3041e-06 -9.422e-10 3.1091e-06)
(5.042e-06 -1.1037e-09 3.7038e-06)
(7.0908e-06 -1.2796e-09 4.3351e-06)
(9.4447e-06 -1.4725e-09 4.9909e-06)
(1.209e-05 -1.6813e-09 5.6559e-06)
(-2.2055e-07 1.7004e-07 3.3903e-07)
(-5.799e-07 5.0962e-07 1.0161e-06)
(-7.1895e-07 8.5042e-07 1.6957e-06)
(-5.5755e-07 1.2037e-06 2.4e-06)
(-7.181e-08 1.5879e-06 3.1662e-06)
(7.3348e-07 2.0192e-06 4.0262e-06)
(1.8504e-06 2.5043e-06 4.9935e-06)
(3.277e-06 3.0414e-06 6.0645e-06)
(5.0148e-06 3.6239e-06 7.2259e-06)
(7.064e-06 4.2421e-06 8.4588e-06)
(9.4192e-06 4.8843e-06 9.7395e-06)
(1.2066e-05 5.5356e-06 1.1038e-05)
(-2.3415e-07 3.2919e-07 4.9269e-07)
(-6.1665e-07 9.8588e-07 1.4756e-06)
(-7.692e-07 1.6431e-06 2.4595e-06)
(-6.1198e-07 2.3231e-06 3.4774e-06)
(-1.2561e-07 3.0633e-06 4.5855e-06)
(6.8089e-07 3.8961e-06 5.8322e-06)
(1.7981e-06 4.8343e-06 7.2368e-06)
(3.2243e-06 5.8737e-06 8.793e-06)
(4.9619e-06 7.001e-06 1.0481e-05)
(7.012e-06 8.1977e-06 1.2273e-05)
(9.3694e-06 9.441e-06 1.4135e-05)
(1.202e-05 1.0702e-05 1.6023e-05)
(-2.5453e-07 4.7677e-07 6.3512e-07)
(-6.7144e-07 1.4262e-06 1.9e-06)
(-8.4344e-07 2.3725e-06 3.161e-06)
(-6.9149e-07 3.3485e-06 4.4617e-06)
(-2.0348e-07 4.4128e-06 5.8799e-06)
(6.0502e-07 5.6146e-06 7.4815e-06)
(1.7225e-06 6.972e-06 9.2907e-06)
(3.1481e-06 8.4775e-06 1.1297e-05)
(4.8854e-06 1.0111e-05 1.3475e-05)
(6.9367e-06 1.1845e-05 1.5787e-05)
(9.2974e-06 1.3648e-05 1.8191e-05)
(1.1954e-05 1.5478e-05 2.0631e-05)
(-2.5453e-07 -4.7669e-07 -6.3509e-07)
(-6.7143e-07 -1.4259e-06 -1.8999e-06)
(-8.4343e-07 -2.3721e-06 -3.1609e-06)
(-6.9147e-07 -3.3479e-06 -4.4617e-06)
(-2.0347e-07 -4.4119e-06 -5.88e-06)
(6.0501e-07 -5.6135e-06 -7.4817e-06)
(1.7225e-06 -6.9706e-06 -9.2911e-06)
(3.148e-06 -8.4757e-06 -1.1298e-05)
(4.8854e-06 -1.0109e-05 -1.3475e-05)
(6.9366e-06 -1.1843e-05 -1.5788e-05)
(9.2973e-06 -1.3646e-05 -1.8192e-05)
(1.1953e-05 -1.5475e-05 -2.0632e-05)
(-2.3414e-07 -3.2905e-07 -4.9262e-07)
(-6.1664e-07 -9.8545e-07 -1.4754e-06)
(-7.6918e-07 -1.6424e-06 -2.4592e-06)
(-6.1195e-07 -2.322e-06 -3.4771e-06)
(-1.2558e-07 -3.0619e-06 -4.5852e-06)
(6.809e-07 -3.8943e-06 -5.8319e-06)
(1.7981e-06 -4.8321e-06 -7.2366e-06)
(3.2243e-06 -5.8709e-06 -8.7928e-06)
(4.9619e-06 -6.9976e-06 -1.0481e-05)
(7.012e-06 -8.1938e-06 -1.2273e-05)
(9.3694e-06 -9.4365e-06 -1.4134e-05)
(1.202e-05 -1.0697e-05 -1.6023e-05)
(-2.2054e-07 -1.6998e-07 -3.3882e-07)
(-5.7988e-07 -5.0943e-07 -1.0155e-06)
(-7.1892e-07 -8.501e-07 -1.6947e-06)
(-5.5752e-07 -1.2032e-06 -2.3987e-06)
(-7.1782e-08 -1.5872e-06 -3.1645e-06)
(7.335e-07 -2.0183e-06 -4.0242e-06)
(1.8504e-06 -2.5032e-06 -4.9911e-06)
(3.277e-06 -3.0401e-06 -6.0618e-06)
(5.0148e-06 -3.6222e-06 -7.2227e-06)
(7.064e-06 -4.2401e-06 -8.455e-06)
(9.4191e-06 -4.882e-06 -9.7351e-06)
(1.2066e-05 -5.533e-06 -1.1033e-05)
(-2.137e-07 5.0998e-11 -1.7336e-07)
(-5.6132e-07 1.5581e-10 -5.1978e-07)
(-6.934e-07 2.681e-10 -8.6794e-07)
(-5.2969e-07 3.9192e-10 -1.2292e-06)
(-4.413e-08 5.3185e-10 -1.6219e-06)
(7.6059e-07 6.9165e-10 -2.0623e-06)
(1.8774e-06 8.7409e-10 -2.5574e-06)
(3.3041e-06 1.0807e-09 -3.1053e-06)
(5.042e-06 1.3079e-09 -3.6993e-06)
(7.0907e-06 1.5462e-09 -4.3299e-06)
(9.4447e-06 1.7839e-09 -4.9849e-06)
(1.209e-05 2.0104e-09 -5.649e-06)
(-2.137e-07 1.7349e-07 1.2338e-10)
(-5.6132e-07 5.2015e-07 3.6264e-10)
(-6.934e-07 8.6854e-07 5.8505e-10)
(-5.2969e-07 1.23e-06 7.9356e-10)
(-4.4129e-08 1.623e-06 1.0014e-09)
(7.6059e-07 2.0637e-06 1.2237e-09)
(1.8774e-06 2.559e-06 1.4709e-09)
(3.3041e-06 3.1072e-06 1.7484e-09)
(5.042e-06 3.7017e-06 2.0594e-09)
(7.0908e-06 4.3326e-06 2.4048e-09)
(9.4447e-06 4.988e-06 2.7811e-09)
(1.209e-05 5.6526e-06 3.1821e-09)
(-2.2054e-07 3.3903e-07 1.7023e-07)
(-5.7988e-07 1.0161e-06 5.1019e-07)
(-7.1892e-07 1.6957e-06 8.5136e-07)
(-5.5752e-07 2.4001e-06 1.2049e-06)
(-7.1779e-08 3.1664e-06 1.5895e-06)
(7.335e-07 4.0265e-06 2.0212e-06)
(1.8504e-06 4.9939e-06 2.5068e-06)
(3.277e-06 6.0652e-06 3.0443e-06)
(5.0148e-06 7.2267e-06 3.6273e-06)
(7.064e-06 8.4598e-06 4.2461e-06)
(9.4191e-06 9.7407e-06 4.8889e-06)
(1.2066e-05 1.104e-05 5.5408e-06)
(-2.3414e-07 4.9307e-07 3.2892e-07)
(-6.1663e-07 1.4767e-06 9.8505e-07)
(-7.6918e-07 2.4614e-06 1.6417e-06)
(-6.1195e-07 3.4802e-06 2.321e-06)
(-1.2557e-07 4.5893e-06 3.0606e-06)
(6.8092e-07 5.8371e-06 3.8926e-06)
(1.7981e-06 7.2429e-06 4.8298e-06)
(3.2243e-06 8.8006e-06 5.8682e-06)
(4.962e-06 1.049e-05 6.9944e-06)
(7.012e-06 1.2283e-05 8.1899e-06)
(9.3694e-06 1.4147e-05 9.4321e-06)
(1.202e-05 1.6037e-05 1.0692e-05)
(-2.5452e-07 6.3525e-07 4.7658e-07)
(-6.7139e-07 1.9004e-06 1.4256e-06)
(-8.4338e-07 3.1617e-06 2.3715e-06)
(-6.9142e-07 4.4627e-06 3.3471e-06)
(-2.0341e-07 5.8814e-06 4.4108e-06)
(6.0509e-07 7.4835e-06 5.612e-06)
(1.7226e-06 9.2932e-06 6.9688e-06)
(3.1481e-06 1.13e-05 8.4735e-06)
(4.8855e-06 1.3478e-05 1.0106e-05)
(6.9367e-06 1.5791e-05 1.184e-05)
(9.2974e-06 1.8196e-05 1.3642e-05)
(1.1954e-05 2.0637e-05 1.5471e-05)
(-2.6108e-07 -3.1534e-07 -7.8698e-07)
(-6.8901e-07 -9.4292e-07 -2.3536e-06)
(-8.6719e-07 -1.5676e-06 -3.9136e-06)
(-7.1683e-07 -2.2112e-06 -5.5217e-06)
(-2.2817e-07 -2.9134e-06 -7.2759e-06)
(5.8107e-07 -3.7072e-06 -9.2593e-06)
(1.6987e-06 -4.6044e-06 -1.1502e-05)
(3.124e-06 -5.5995e-06 -1.399e-05)
(4.8613e-06 -6.6793e-06 -1.6691e-05)
(6.9129e-06 -7.8261e-06 -1.9559e-05)
(9.2747e-06 -9.0183e-06 -2.2541e-05)
(1.1933e-05 -1.0228e-05 -2.557e-05)
(-2.4079e-07 -1.6246e-07 -6.4914e-07)
(-6.3457e-07 -4.8635e-07 -1.9435e-06)
(-7.9362e-07 -8.1006e-07 -3.2377e-06)
(-6.3831e-07 -1.1446e-06 -4.5757e-06)
(-1.5151e-07 -1.5089e-06 -6.033e-06)
(6.5563e-07 -1.9193e-06 -7.6744e-06)
(1.7729e-06 -2.382e-06 -9.5253e-06)
(3.1989e-06 -2.8947e-06 -1.1577e-05)
(4.9366e-06 -3.4507e-06 -1.3802e-05)
(6.9871e-06 -4.0411e-06 -1.6165e-05)
(9.3456e-06 -4.6545e-06 -1.8621e-05)
(1.1998e-05 -5.2768e-06 -2.1113e-05)
(-2.2729e-07 4.3492e-10 -4.9946e-07)
(-5.9813e-07 1.3078e-09 -1.4965e-06)
(-7.4393e-07 2.1942e-09 -2.4959e-06)
(-5.8468e-07 3.1231e-09 -3.531e-06)
(-9.8683e-08 4.1387e-09 -4.6575e-06)
(7.0719e-07 5.2791e-09 -5.9233e-06)
(1.8242e-06 6.5635e-09 -7.3484e-06)
(3.2506e-06 7.9911e-09 -8.9268e-06)
(4.9884e-06 9.5448e-09 -1.0639e-05)
(7.038e-06 1.1193e-08 -1.2456e-05)
(9.3943e-06 1.2896e-08 -1.4344e-05)
(1.2043e-05 1.4607e-08 -1.6259e-05)
(-2.2054e-07 1.7019e-07 -3.3896e-07)
(-5.7986e-07 5.1007e-07 -1.0159e-06)
(-7.1889e-07 8.5118e-07 -1.6954e-06)
(-5.5748e-07 1.2047e-06 -2.3997e-06)
(-7.1743e-08 1.5893e-06 -3.1659e-06)
(7.3353e-07 2.021e-06 -4.0259e-06)
(1.8504e-06 2.5066e-06 -4.9932e-06)
(3.277e-06 3.0442e-06 -6.0643e-06)
(5.0148e-06 3.6271e-06 -7.2258e-06)
(7.064e-06 4.2459e-06 -8.4586e-06)
(9.4191e-06 4.8887e-06 -9.7393e-06)
(1.2066e-05 5.5405e-06 -1.1038e-05)
(-2.2054e-07 3.3895e-07 -1.7e-07)
(-5.7986e-07 1.0159e-06 -5.0952e-07)
(-7.1889e-07 1.6953e-06 -8.5027e-07)
(-5.5748e-07 2.3996e-06 -1.2035e-06)
(-7.1743e-08 3.1656e-06 -1.5877e-06)
(7.3353e-07 4.0256e-06 -2.019e-06)
(1.8504e-06 4.9928e-06 -2.5041e-06)
(3.277e-06 6.0638e-06 -3.0411e-06)
(5.0148e-06 7.2251e-06 -3.6235e-06)
(7.064e-06 8.4579e-06 -4.2417e-06)
(9.4191e-06 9.7384e-06 -4.8838e-06)
(1.2066e-05 1.1037e-05 -5.5349e-06)
(-2.2729e-07 4.9952e-07 4.3223e-10)
(-5.9813e-07 1.4966e-06 1.2883e-09)
(-7.4393e-07 2.4962e-06 2.1301e-09)
(-5.8469e-07 3.5314e-06 2.9828e-09)
(-9.8685e-08 4.6579e-06 3.8948e-09)
(7.0719e-07 5.9239e-06 4.9116e-09)
(1.8242e-06 7.349e-06 6.0556e-09)
(3.2506e-06 8.9276e-06 7.3288e-09)
(4.9884e-06 1.064e-05 8.7238e-09)
(7.0381e-06 1.2457e-05 1.0226e-08)
(9.3943e-06 1.4345e-05 1.1807e-08)
(1.2043e-05 1.626e-05 1.3432e-08)
(-2.4076e-07 6.4931e-07 1.6292e-07)
(-6.3449e-07 1.944e-06 4.8771e-07)
(-7.9351e-07 3.2385e-06 8.1232e-07)
(-6.3819e-07 4.5768e-06 1.1478e-06)
(-1.5139e-07 6.0344e-06 1.5131e-06)
(6.5577e-07 7.6762e-06 1.9246e-06)
(1.7731e-06 9.5275e-06 2.3885e-06)
(3.1991e-06 1.158e-05 2.9026e-06)
(4.9367e-06 1.3806e-05 3.4601e-06)
(6.9872e-06 1.6169e-05 4.0521e-06)
(9.3457e-06 1.8625e-05 4.6672e-06)
(1.1998e-05 2.1117e-05 5.2913e-06)
(-2.6103e-07 7.8695e-07 3.1515e-07)
(-6.889e-07 2.3535e-06 9.4232e-07)
(-8.6703e-07 3.9135e-06 1.5666e-06)
(-7.1666e-07 5.5214e-06 2.2098e-06)
(-2.2799e-07 7.2756e-06 2.9114e-06)
(5.8126e-07 9.2588e-06 3.7047e-06)
(1.6989e-06 1.1501e-05 4.6012e-06)
(3.1242e-06 1.3989e-05 5.5956e-06)
(4.8615e-06 1.669e-05 6.6747e-06)
(6.9132e-06 1.9558e-05 7.8207e-06)
(9.275e-06 2.254e-05 9.012e-06)
(1.1933e-05 2.5568e-05 1.0221e-05)
(-2.7407e-07 -1.5511e-07 -9.2872e-07)
(-7.2379e-07 -4.6348e-07 -2.7756e-06)
(-9.1388e-07 -7.6962e-07 -4.6096e-06)
(-7.6622e-07 -1.0845e-06 -6.4965e-06)
(-2.7597e-07 -1.4283e-06 -8.5571e-06)
(5.3482e-07 -1.8179e-06 -1.0893e-05)
(1.6527e-06 -2.2588e-06 -1.3538e-05)
(3.0776e-06 -2.7482e-06 -1.6475e-05)
(4.8148e-06 -3.2792e-06 -1.9664e-05)
(6.8672e-06 -3.8433e-06 -2.3051e-05)
(9.2311e-06 -4.4297e-06 -2.6574e-05)
(1.1892e-05 -5.025e-06 -3.0153e-05)
(-2.5403e-07 6.3178e-10 -7.9488e-07)
(-6.7017e-07 1.8955e-09 -2.3782e-06)
(-8.4187e-07 3.174e-09 -3.9571e-06)
(-6.8997e-07 4.513e-09 -5.5864e-06)
(-2.0205e-07 5.9736e-09 -7.3628e-06)
(6.0648e-07 7.6097e-09 -9.3684e-06)
(1.724e-06 9.4501e-09 -1.1634e-05)
(3.1497e-06 1.1493e-08 -1.4147e-05)
(4.8871e-06 1.3717e-08 -1.6873e-05)
(6.9384e-06 1.6081e-08 -1.9769e-05)
(9.2991e-06 1.8522e-08 -2.2779e-05)
(1.1955e-05 2.0972e-08 -2.5834e-05)
(-2.4075e-07 1.6291e-07 -6.4926e-07)
(-6.3446e-07 4.8769e-07 -1.9439e-06)
(-7.9346e-07 8.1233e-07 -3.2384e-06)
(-6.3814e-07 1.1478e-06 -4.5766e-06)
(-1.5134e-07 1.5133e-06 -6.0342e-06)
(6.558e-07 1.9249e-06 -7.676e-06)
(1.7731e-06 2.3889e-06 -9.5273e-06)
(3.1991e-06 2.903e-06 -1.1579e-05)
(4.9367e-06 3.4607e-06 -1.3805e-05)
(6.9872e-06 4.0528e-06 -1.6169e-05)
(9.3457e-06 4.668e-06 -1.8625e-05)
(1.1998e-05 5.2921e-06 -2.1117e-05)
(-2.3413e-07 3.2888e-07 -4.9303e-07)
(-6.1659e-07 9.8495e-07 -1.4766e-06)
(-7.6911e-07 1.6416e-06 -2.4612e-06)
(-6.1187e-07 2.3209e-06 -3.48e-06)
(-1.255e-07 3.0605e-06 -4.5891e-06)
(6.8098e-07 3.8925e-06 -5.8368e-06)
(1.7981e-06 4.8298e-06 -7.2426e-06)
(3.2243e-06 5.8683e-06 -8.8002e-06)
(4.962e-06 6.9944e-06 -1.0489e-05)
(7.012e-06 8.1901e-06 -1.2283e-05)
(9.3694e-06 9.4322e-06 -1.4146e-05)
(1.202e-05 1.0692e-05 -1.6037e-05)
(-2.3413e-07 4.9263e-07 -3.2917e-07)
(-6.1659e-07 1.4754e-06 -9.858e-07)
(-7.6911e-07 2.4592e-06 -1.643e-06)
(-6.1187e-07 3.4771e-06 -2.323e-06)
(-1.255e-07 4.5852e-06 -3.0632e-06)
(6.8098e-07 5.8319e-06 -3.896e-06)
(1.7981e-06 7.2365e-06 -4.8342e-06)
(3.2243e-06 8.7927e-06 -5.8736e-06)
(4.962e-06 1.0481e-05 -7.0008e-06)
(7.012e-06 1.2273e-05 -8.1975e-06)
(9.3694e-06 1.4134e-05 -9.4408e-06)
(1.202e-05 1.6023e-05 -1.0702e-05)
(-2.4079e-07 6.4917e-07 -1.625e-07)
(-6.3455e-07 1.9436e-06 -4.8648e-07)
(-7.9359e-07 3.2378e-06 -8.103e-07)
(-6.3828e-07 4.5758e-06 -1.145e-06)
(-1.5148e-07 6.0331e-06 -1.5095e-06)
(6.5567e-07 7.6745e-06 -1.9201e-06)
(1.773e-06 9.5254e-06 -2.383e-06)
(3.199e-06 1.1577e-05 -2.896e-06)
(4.9366e-06 1.3803e-05 -3.4523e-06)
(6.9871e-06 1.6166e-05 -4.0429e-06)
(9.3456e-06 1.8621e-05 -4.6565e-06)
(1.1998e-05 2.1113e-05 -5.2791e-06)
(-2.5403e-07 7.949e-07 6.2178e-10)
(-6.7018e-07 2.3783e-06 1.8532e-09)
(-8.4188e-07 3.9572e-06 3.0703e-09)
(-6.8999e-07 5.5865e-06 4.3164e-09)
(-2.0207e-07 7.3629e-06 5.6605e-09)
(6.0648e-07 9.3684e-06 7.1653e-09)
(1.724e-06 1.1634e-05 8.8619e-09)
(3.1497e-06 1.4147e-05 1.075e-08)
(4.8872e-06 1.6873e-05 1.2819e-08)
(6.9385e-06 1.9769e-05 1.5045e-08)
(9.2992e-06 2.2779e-05 1.7378e-08)
(1.1955e-05 2.5834e-05 1.9759e-08)
(-2.7406e-07 9.288e-07 1.5565e-07)
(-7.2377e-07 2.7758e-06 4.6506e-07)
(-9.1385e-07 4.6099e-06 7.7225e-07)
(-7.6618e-07 6.4969e-06 1.0882e-06)
(-2.7593e-07 8.5577e-06 1.4332e-06)
(5.3487e-07 1.0893e-05 1.824e-06)
(1.6527e-06 1.3539e-05 2.2664e-06)
(3.0777e-06 1.6476e-05 2.7574e-06)
(4.8149e-06 1.9665e-05 3.2902e-06)
(6.8673e-06 2.3053e-05 3.8562e-06)
(9.2312e-06 2.6576e-05 4.4446e-06)
(1.1893e-05 3.0155e-05 5.042e-06)
(-2.9333e-07 3.3144e-10 -1.0571e-06)
(-7.751e-07 9.9441e-10 -3.1557e-06)
(-9.821e-07 1.6686e-09 -5.2308e-06)
(-8.3742e-07 2.3788e-09 -7.3588e-06)
(-3.442e-07 3.1522e-09 -9.6869e-06)
(4.6897e-07 4.0133e-09 -1.2336e-05)
(1.5871e-06 4.9792e-09 -1.5344e-05)
(3.0114e-06 6.0487e-09 -1.8688e-05)
(4.7482e-06 7.215e-09 -2.2319e-05)
(6.8016e-06 8.4541e-09 -2.6177e-05)
(9.1685e-06 9.7243e-09 -3.0192e-05)
(1.1835e-05 1.0982e-08 -3.4273e-05)
(-2.7405e-07 1.5564e-07 -9.2877e-07)
(-7.2373e-07 4.6507e-07 -2.7757e-06)
(-9.138e-07 7.723e-07 -4.6098e-06)
(-7.6612e-07 1.0883e-06 -6.4969e-06)
(-2.7588e-07 1.4334e-06 -8.5576e-06)
(5.3491e-07 1.8244e-06 -1.0893e-05)
(1.6528e-06 2.2669e-06 -1.3539e-05)
(3.0777e-06 2.7579e-06 -1.6476e-05)
(4.8148e-06 3.2908e-06 -1.9665e-05)
(6.8672e-06 3.8569e-06 -2.3053e-05)
(9.2311e-06 4.4453e-06 -2.6576e-05)
(1.1892e-05 5.0427e-06 -3.0155e-05)
(-2.6101e-07 3.1513e-07 -7.8692e-07)
(-6.8884e-07 9.4229e-07 -2.3534e-06)
(-8.6695e-07 1.5666e-06 -3.9133e-06)
(-7.1657e-07 2.2098e-06 -5.5213e-06)
(-2.2791e-07 2.9115e-06 -7.2754e-06)
(5.8132e-07 3.7048e-06 -9.2587e-06)
(1.6989e-06 4.6014e-06 -1.1501e-05)
(3.1242e-06 5.596e-06 -1.3989e-05)
(4.8615e-06 6.6751e-06 -1.6689e-05)
(6.9131e-06 7.8212e-06 -1.9558e-05)
(9.2749e-06 9.0125e-06 -2.254e-05)
(1.1933e-05 1.0222e-05 -2.5568e-05)
(-2.5449e-07 4.7655e-07 -6.3521e-07)
(-6.7132e-07 1.4255e-06 -1.9003e-06)
(-8.4327e-07 2.3714e-06 -3.1615e-06)
(-6.913e-07 3.347e-06 -4.4626e-06)
(-2.033e-07 4.4107e-06 -5.8813e-06)
(6.0518e-07 5.612e-06 -7.4833e-06)
(1.7226e-06 6.9688e-06 -9.293e-06)
(3.1481e-06 8.4736e-06 -1.13e-05)
(4.8855e-06 1.0106e-05 -1.3478e-05)
(6.9367e-06 1.184e-05 -1.5791e-05)
(9.2973e-06 1.3642e-05 -1.8196e-05)
(1.1953e-05 1.5471e-05 -2.0636e-05)
(-2.545e-07 6.3507e-07 -4.7674e-07)
(-6.7135e-07 1.8999e-06 -1.4261e-06)
(-8.4331e-07 3.1608e-06 -2.3724e-06)
(-6.9135e-07 4.4615e-06 -3.3484e-06)
(-2.0335e-07 5.8797e-06 -4.4127e-06)
(6.0513e-07 7.4813e-06 -5.6145e-06)
(1.7226e-06 9.2905e-06 -6.972e-06)
(3.1481e-06 1.1297e-05 -8.4774e-06)
(4.8854e-06 1.3475e-05 -1.0111e-05)
(6.9366e-06 1.5787e-05 -1.1845e-05)
(9.2973e-06 1.8191e-05 -1.3648e-05)
(1.1953e-05 2.0631e-05 -1.5478e-05)
(-2.6106e-07 7.8699e-07 -3.1538e-07)
(-6.8897e-07 2.3536e-06 -9.4302e-07)
(-8.6713e-07 3.9136e-06 -1.5678e-06)
(-7.1676e-07 5.5216e-06 -2.2116e-06)
(-2.281e-07 7.2758e-06 -2.9139e-06)
(5.8114e-07 9.2591e-06 -3.7079e-06)
(1.6987e-06 1.1502e-05 -4.6052e-06)
(3.1241e-06 1.399e-05 -5.6006e-06)
(4.8613e-06 1.669e-05 -6.6806e-06)
(6.913e-06 1.9559e-05 -7.8277e-06)
(9.2747e-06 2.2541e-05 -9.02e-06)
(1.1933e-05 2.5569e-05 -1.023e-05)
(-2.7407e-07 9.2874e-07 -1.5513e-07)
(-7.2379e-07 2.7756e-06 -4.6353e-07)
(-9.1387e-07 4.6096e-06 -7.6974e-07)
(-7.662e-07 6.4965e-06 -1.0847e-06)
(-2.7595e-07 8.5571e-06 -1.4286e-06)
(5.3485e-07 1.0893e-05 -1.8184e-06)
(1.6527e-06 1.3538e-05 -2.2594e-06)
(3.0777e-06 1.6475e-05 -2.7489e-06)
(4.8148e-06 1.9664e-05 -3.2801e-06)
(6.8672e-06 2.3051e-05 -3.8443e-06)
(9.2311e-06 2.6574e-05 -4.4307e-06)
(1.1892e-05 3.0153e-05 -5.0262e-06)
(-2.9334e-07 1.0571e-06 3.2885e-10)
(-7.7513e-07 3.1558e-06 9.7298e-10)
(-9.8213e-07 5.2308e-06 1.5975e-09)
(-8.3746e-07 7.3588e-06 2.2282e-09)
(-3.4423e-07 9.6868e-06 2.9045e-09)
(4.6896e-07 1.2336e-05 3.6637e-09)
(1.5871e-06 1.5344e-05 4.525e-09)
(3.0114e-06 1.8688e-05 5.4874e-09)
(4.7482e-06 2.2318e-05 6.5543e-09)
(6.8016e-06 2.6177e-05 7.7214e-09)
(9.1686e-06 3.0192e-05 8.9549e-09)
(1.1835e-05 3.4273e-05 1.0217e-08)
(1.163e-05 -4.4813e-05 3.9345e-06)
(8.9449e-06 -3.9429e-05 3.4637e-06)
(6.5666e-06 -3.4142e-05 3.0005e-06)
(4.5098e-06 -2.9066e-05 2.5553e-06)
(2.7746e-06 -2.4293e-05 2.1367e-06)
(1.3533e-06 -1.9898e-05 1.7515e-06)
(2.3469e-07 -1.5955e-05 1.4054e-06)
(-5.8825e-07 -1.2511e-05 1.1023e-06)
(-1.0967e-06 -9.5278e-06 8.3862e-07)
(-1.236e-06 -6.8183e-06 5.9886e-07)
(-9.6942e-07 -4.1431e-06 3.6308e-07)
(-3.67e-07 -1.3935e-06 1.2187e-07)
(1.1683e-05 -4.1465e-05 1.1069e-05)
(9.0039e-06 -3.6503e-05 9.7489e-06)
(6.629e-06 -3.1626e-05 8.4502e-06)
(4.573e-06 -2.6941e-05 7.2016e-06)
(2.8374e-06 -2.2533e-05 6.0268e-06)
(1.4153e-06 -1.8475e-05 4.945e-06)
(2.9686e-07 -1.483e-05 3.972e-06)
(-5.2273e-07 -1.1637e-05 3.1175e-06)
(-1.0245e-06 -8.8529e-06 2.371e-06)
(-1.1623e-06 -6.3172e-06 1.6904e-06)
(-9.1134e-07 -3.8272e-06 1.0231e-06)
(-3.4471e-07 -1.2852e-06 3.4333e-07)
(1.1723e-05 -3.7031e-05 1.8298e-05)
(9.0472e-06 -3.2614e-05 1.612e-05)
(6.6747e-06 -2.8269e-05 1.3977e-05)
(4.6196e-06 -2.4093e-05 1.1916e-05)
(2.8838e-06 -2.0164e-05 9.9767e-06)
(1.4612e-06 -1.6545e-05 8.1898e-06)
(3.4298e-07 -1.3291e-05 6.582e-06)
(-4.7414e-07 -1.0434e-05 5.1681e-06)
(-9.7212e-07 -7.9334e-06 3.93e-06)
(-1.1103e-06 -5.6518e-06 2.7998e-06)
(-8.7124e-07 -3.4178e-06 1.6931e-06)
(-3.2944e-07 -1.1465e-06 5.6798e-07)
(1.1744e-05 -3.156e-05 2.5233e-05)
(9.0707e-06 -2.7803e-05 2.2231e-05)
(6.6994e-06 -2.4107e-05 1.9278e-05)
(4.6449e-06 -2.0553e-05 1.6438e-05)
(2.909e-06 -1.7208e-05 1.3765e-05)