/*--------------------------------*- C++ -*----------------------------------*\
| =========                 |                                                 |
| \\      /  F ield         | OpenFOAM: The Open Source CFD Toolbox           |
|  \\    /   O peration     | Version:  4.1                                   |
|   \\  /    A nd           | Web:      www.OpenFOAM.org                      |
|    \\/     M anipulation  |                                                 |
\*---------------------------------------------------------------------------*/
FoamFile
{
    version     2.0;
    format      ascii;
    class       pointVectorField;
    location    "0.0076";
    object      pointDisplacement_Next;
}
// * * * * * * * * * * * * * * * * * * * * * * * * * * * * * * * * * * * * * //

dimensions      [0 1 0 0 0 0 0];

internalField   uniform (0 0 0);

boundaryField
{
    inlet
    {
        type            fixedValue;
        value           nonuniform 0();
    }
    outlet
    {
        type            fixedValue;
        value           uniform (0 0 0);
    }
    mantle
    {
        type            fixedValue;
        value           nonuniform List<vector> 
416
(
(1.7649e-05 -6.5968e-05 2.4106e-11)
(1.4463e-05 -5.8584e-05 -4.2071e-10)
(1.4429e-05 -5.7409e-05 1.1385e-05)
(1.7605e-05 -6.4616e-05 1.2804e-05)
(1.439e-05 -5.4023e-05 2.2381e-05)
(1.7558e-05 -6.0762e-05 2.5168e-05)
(1.4405e-05 -4.8656e-05 3.2557e-05)
(1.7579e-05 -5.4718e-05 3.6619e-05)
(1.4429e-05 -4.1442e-05 4.1442e-05)
(1.7612e-05 -4.6614e-05 4.6614e-05)
(1.4405e-05 -3.2556e-05 4.8656e-05)
(1.7579e-05 -3.6618e-05 5.4718e-05)
(1.4391e-05 -2.238e-05 5.4023e-05)
(1.7558e-05 -2.5168e-05 6.0762e-05)
(1.4429e-05 -1.1385e-05 5.7409e-05)
(1.7605e-05 -1.2804e-05 6.4616e-05)
(1.4463e-05 8.444e-10 5.8584e-05)
(1.7649e-05 4.8333e-10 6.5967e-05)
(1.1533e-05 -5.1192e-05 -1.2115e-10)
(1.1512e-05 -5.0178e-05 9.9525e-06)
(1.1479e-05 -4.7244e-05 1.9576e-05)
(1.1492e-05 -4.2566e-05 2.8477e-05)
(1.15e-05 -3.6255e-05 3.6255e-05)
(1.1492e-05 -2.8476e-05 4.2566e-05)
(1.1479e-05 -1.9575e-05 4.7244e-05)
(1.1512e-05 -9.952e-06 5.0178e-05)
(1.1533e-05 4.6458e-10 5.1192e-05)
(8.9261e-06 -4.4e-05 -1.7914e-10)
(8.8973e-06 -4.3125e-05 8.5427e-06)
(8.867e-06 -4.0604e-05 1.6812e-05)
(8.8811e-06 -3.6613e-05 2.4498e-05)
(8.9031e-06 -3.1204e-05 3.1205e-05)
(8.8811e-06 -2.4498e-05 3.6613e-05)
(8.867e-06 -1.6812e-05 4.0603e-05)
(8.8974e-06 -8.5424e-06 4.3125e-05)
(8.9263e-06 4.5087e-10 4.4e-05)
(6.6426e-06 -3.7176e-05 -2.2551e-10)
(6.6083e-06 -3.6413e-05 7.1937e-06)
(6.5736e-06 -3.4269e-05 1.4183e-05)
(6.6004e-06 -3.0936e-05 2.0716e-05)
(6.6316e-06 -2.6407e-05 2.6407e-05)
(6.6004e-06 -2.0716e-05 3.0936e-05)
(6.5737e-06 -1.4182e-05 3.4269e-05)
(6.6084e-06 -7.1934e-06 3.6413e-05)
(6.6427e-06 4.1867e-10 3.7176e-05)
(4.6658e-06 -3.0818e-05 -2.5072e-10)
(4.642e-06 -3.0197e-05 5.9707e-06)
(4.6189e-06 -2.8441e-05 1.1777e-05)
(4.6397e-06 -2.568e-05 1.7199e-05)
(4.6626e-06 -2.192e-05 2.192e-05)
(4.6397e-06 -1.7199e-05 2.568e-05)
(4.6189e-06 -1.1777e-05 2.8441e-05)
(4.6421e-06 -5.9705e-06 3.0197e-05)
(4.666e-06 3.6689e-10 3.0818e-05)
(3.0139e-06 -2.5013e-05 -2.4126e-10)
(3.0042e-06 -2.4527e-05 4.8586e-06)
(2.993e-06 -2.3117e-05 9.5789e-06)
(3.0053e-06 -2.0882e-05 1.3983e-05)
(3.0155e-06 -1.7816e-05 1.7816e-05)
(3.0053e-06 -1.3983e-05 2.0882e-05)
(2.993e-06 -9.5787e-06 2.3117e-05)
(3.0043e-06 -4.8584e-06 2.4527e-05)
(3.0141e-06 2.9929e-10 2.5013e-05)
(1.6884e-06 -1.9837e-05 -1.8092e-10)
(1.6724e-06 -1.9458e-05 3.8504e-06)
(1.6574e-06 -1.8354e-05 7.6045e-06)
(1.6767e-06 -1.6582e-05 1.1103e-05)
(1.6944e-06 -1.4149e-05 1.4149e-05)
(1.6767e-06 -1.1103e-05 1.6582e-05)
(1.6575e-06 -7.6043e-06 1.8354e-05)
(1.6725e-06 -3.8503e-06 1.9458e-05)
(1.6885e-06 2.1984e-10 1.9836e-05)
(6.2666e-07 -1.5369e-05 -1.0344e-10)
(6.0383e-07 -1.5074e-05 2.9694e-06)
(5.8735e-07 -1.4207e-05 5.8751e-06)
(6.1236e-07 -1.2852e-05 8.6113e-06)
(6.3857e-07 -1.0978e-05 1.0978e-05)
(6.1238e-07 -8.6112e-06 1.2852e-05)
(5.8738e-07 -5.875e-06 1.4207e-05)
(6.0388e-07 -2.9693e-06 1.5074e-05)
(6.2672e-07 1.464e-10 1.5369e-05)
(-1.8282e-07 -1.1538e-05 -2.9719e-11)
(-1.8354e-07 -1.1272e-05 2.2e-06)
(-1.8072e-07 -1.0587e-05 4.3792e-06)
(-1.6994e-07 -9.5985e-06 6.4561e-06)
(-1.6328e-07 -8.2431e-06 8.2432e-06)
(-1.6991e-07 -6.456e-06 9.5985e-06)
(-1.8067e-07 -4.3791e-06 1.0587e-05)
(-1.8346e-07 -2.1999e-06 1.1273e-05)
(-1.8273e-07 7.2015e-11 1.1538e-05)
(-5.847e-07 -7.8262e-06 1.861e-11)
(-5.6509e-07 -7.5905e-06 1.4649e-06)
(-5.4634e-07 -7.0851e-06 2.9345e-06)
(-5.5023e-07 -6.4473e-06 4.3611e-06)
(-5.6266e-07 -5.5881e-06 5.5881e-06)
(-5.5021e-07 -4.361e-06 6.4473e-06)
(-5.4629e-07 -2.9344e-06 7.0851e-06)
(-5.6499e-07 -1.4649e-06 7.5905e-06)
(-5.8458e-07 1.1889e-11 7.8262e-06)
(-4.7554e-07 -3.8369e-06 3.3788e-11)
(-4.6544e-07 -3.7265e-06 7.1614e-07)
(-4.528e-07 -3.4749e-06 1.4407e-06)
(-4.5693e-07 -3.1602e-06 2.1431e-06)
(-4.6335e-07 -2.7366e-06 2.7366e-06)
(-4.5691e-07 -2.1431e-06 3.1602e-06)
(-4.5276e-07 -1.4406e-06 3.4749e-06)
(-4.6538e-07 -7.1612e-07 3.7265e-06)
(-4.7546e-07 -1.6554e-11 3.8369e-06)
(-2.2985e-13 -1.3822e-12 2.2252e-17)
(-1.3572e-09 -6.1878e-09 -4.4661e-09)
(-8.9744e-14 -9.3969e-13 3.6855e-13)
(-9.565e-10 -2.4994e-09 7.606e-09)
(-4.3799e-13 -1.4447e-12 1.4447e-12)
(-9.5713e-10 -7.6048e-09 2.4995e-09)
(-8.9716e-14 -3.6856e-13 9.3968e-13)
(-1.3562e-09 4.4653e-09 6.1872e-09)
(-2.2982e-13 -1.4153e-17 1.3822e-12)
(1.4429e-05 1.1386e-05 5.7409e-05)
(1.7605e-05 1.2805e-05 6.4616e-05)
(1.439e-05 2.2381e-05 5.4023e-05)
(1.7557e-05 2.5168e-05 6.0762e-05)
(1.4405e-05 3.2557e-05 4.8656e-05)
(1.7579e-05 3.6619e-05 5.4718e-05)
(1.4428e-05 4.1442e-05 4.1441e-05)
(1.7612e-05 4.6614e-05 4.6614e-05)
(1.4405e-05 4.8656e-05 3.2556e-05)
(1.7579e-05 5.4718e-05 3.6618e-05)
(1.439e-05 5.4023e-05 2.238e-05)
(1.7557e-05 6.0762e-05 2.5168e-05)
(1.4429e-05 5.7409e-05 1.1385e-05)
(1.7605e-05 6.4616e-05 1.2804e-05)
(1.4463e-05 5.8584e-05 4.0474e-10)
(1.7648e-05 6.5967e-05 1.5608e-10)
(1.1512e-05 9.953e-06 5.0178e-05)
(1.1479e-05 1.9576e-05 4.7244e-05)
(1.1492e-05 2.8477e-05 4.2566e-05)
(1.15e-05 3.6256e-05 3.6255e-05)
(1.1492e-05 4.2567e-05 2.8477e-05)
(1.1479e-05 4.7244e-05 1.9576e-05)
(1.1512e-05 5.0178e-05 9.9524e-06)
(1.1533e-05 5.1192e-05 -6.8203e-11)
(8.8974e-06 8.5433e-06 4.3125e-05)
(8.8671e-06 1.6812e-05 4.0603e-05)
(8.8813e-06 2.4498e-05 3.6612e-05)
(8.9032e-06 3.1205e-05 3.1204e-05)
(8.8813e-06 3.6613e-05 2.4498e-05)
(8.8671e-06 4.0604e-05 1.6812e-05)
(8.8975e-06 4.3125e-05 8.5426e-06)
(8.9263e-06 4.3999e-05 -1.4332e-10)
(6.6085e-06 7.1943e-06 3.6413e-05)
(6.5739e-06 1.4183e-05 3.4269e-05)
(6.6007e-06 2.0716e-05 3.0936e-05)
(6.6319e-06 2.6407e-05 2.6407e-05)
(6.6007e-06 3.0936e-05 2.0715e-05)
(6.5739e-06 3.4269e-05 1.4182e-05)
(6.6086e-06 3.6413e-05 7.1935e-06)
(6.6428e-06 3.7175e-05 -2.0408e-10)
(4.6422e-06 5.9712e-06 3.0197e-05)
(4.6191e-06 1.1778e-05 2.844e-05)
(4.64e-06 1.7199e-05 2.5679e-05)
(4.6629e-06 2.192e-05 2.1919e-05)
(4.64e-06 2.568e-05 1.7198e-05)
(4.6192e-06 2.8441e-05 1.1777e-05)
(4.6423e-06 3.0197e-05 5.9705e-06)
(4.6661e-06 3.0818e-05 -2.2903e-10)
(3.0044e-06 4.859e-06 2.4527e-05)
(2.9933e-06 9.5791e-06 2.3116e-05)
(3.0056e-06 1.3983e-05 2.0881e-05)
(3.0158e-06 1.7816e-05 1.7815e-05)
(3.0056e-06 2.0881e-05 1.3982e-05)
(2.9933e-06 2.3117e-05 9.5784e-06)
(3.0045e-06 2.4527e-05 4.8584e-06)
(3.0142e-06 2.5013e-05 -2.2779e-10)
(1.6726e-06 3.8507e-06 1.9457e-05)
(1.6577e-06 7.6046e-06 1.8354e-05)
(1.677e-06 1.1103e-05 1.6581e-05)
(1.6947e-06 1.4149e-05 1.4149e-05)
(1.677e-06 1.6581e-05 1.1102e-05)
(1.6578e-06 1.8354e-05 7.6041e-06)
(1.6728e-06 1.9457e-05 3.8502e-06)
(1.6888e-06 1.9836e-05 -1.9264e-10)
(6.04e-07 2.9696e-06 1.5074e-05)
(5.8759e-07 5.8752e-06 1.4207e-05)
(6.1266e-07 8.6112e-06 1.2852e-05)
(6.3891e-07 1.0978e-05 1.0978e-05)
(6.1275e-07 1.2852e-05 8.6108e-06)
(5.8777e-07 1.4207e-05 5.8747e-06)
(6.0427e-07 1.5073e-05 2.9692e-06)
(6.2709e-07 1.5368e-05 -1.335e-10)
(-1.8335e-07 2.2e-06 1.1272e-05)
(-1.8046e-07 4.3791e-06 1.0586e-05)
(-1.6962e-07 6.4559e-06 9.598e-06)
(-1.6292e-07 8.2428e-06 8.2426e-06)
(-1.6952e-07 9.5981e-06 6.4557e-06)
(-1.8025e-07 1.0586e-05 4.3788e-06)
(-1.8303e-07 1.1272e-05 2.1998e-06)
(-1.823e-07 1.1538e-05 -6.0116e-11)
(-5.649e-07 1.4649e-06 7.5903e-06)
(-5.4611e-07 2.9343e-06 7.0848e-06)
(-5.4994e-07 4.3608e-06 6.4469e-06)
(-5.6233e-07 5.5877e-06 5.5877e-06)
(-5.4985e-07 6.4469e-06 4.3607e-06)
(-5.4592e-07 7.0846e-06 2.9342e-06)
(-5.6461e-07 7.59e-06 1.4648e-06)
(-5.842e-07 7.8258e-06 -1.4158e-12)
(-4.6533e-07 7.1607e-07 3.7264e-06)
(-4.5266e-07 1.4406e-06 3.4747e-06)
(-4.5676e-07 2.1429e-06 3.16e-06)
(-4.6315e-07 2.7364e-06 2.7364e-06)
(-4.567e-07 3.1599e-06 2.1429e-06)
(-4.5255e-07 3.4746e-06 1.4405e-06)
(-4.6516e-07 3.7262e-06 7.1607e-07)
(-4.7524e-07 3.8366e-06 1.9926e-11)
(-1.3567e-09 -4.4644e-09 6.1879e-09)
(-8.9682e-14 3.6844e-13 9.3969e-13)
(-9.5595e-10 7.6043e-09 2.4967e-09)
(-4.3792e-13 1.4446e-12 1.4445e-12)
(-9.5658e-10 2.4979e-09 7.6034e-09)
(-8.9626e-14 9.3962e-13 3.6853e-13)
(-1.3555e-09 6.1855e-09 -4.4642e-09)
(-2.2974e-13 1.3821e-12 1.4012e-17)
(1.4429e-05 5.7409e-05 -1.1385e-05)
(1.7605e-05 6.4616e-05 -1.2804e-05)
(1.439e-05 5.4023e-05 -2.238e-05)
(1.7557e-05 6.0762e-05 -2.5168e-05)
(1.4405e-05 4.8656e-05 -3.2556e-05)
(1.7579e-05 5.4718e-05 -3.6618e-05)
(1.4428e-05 4.1442e-05 -4.1441e-05)
(1.7612e-05 4.6614e-05 -4.6614e-05)
(1.4405e-05 3.2557e-05 -4.8656e-05)
(1.7579e-05 3.6619e-05 -5.4718e-05)
(1.439e-05 2.2381e-05 -5.4023e-05)
(1.7557e-05 2.5169e-05 -6.0762e-05)
(1.4429e-05 1.1386e-05 -5.7409e-05)
(1.7605e-05 1.2805e-05 -6.4616e-05)
(1.4462e-05 7.9459e-10 -5.8584e-05)
(1.7648e-05 3.9014e-10 -6.5967e-05)
(1.1512e-05 5.0177e-05 -9.9525e-06)
(1.1479e-05 4.7244e-05 -1.9576e-05)
(1.1492e-05 4.2566e-05 -2.8477e-05)
(1.1499e-05 3.6255e-05 -3.6255e-05)
(1.1492e-05 2.8477e-05 -4.2566e-05)
(1.1479e-05 1.9576e-05 -4.7244e-05)
(1.1512e-05 9.9529e-06 -5.0177e-05)
(1.1532e-05 4.3053e-10 -5.1192e-05)
(8.8974e-06 4.3125e-05 -8.5428e-06)
(8.8669e-06 4.0603e-05 -1.6812e-05)
(8.881e-06 3.6613e-05 -2.4498e-05)
(8.9029e-06 3.1205e-05 -3.1204e-05)
(8.8809e-06 2.4498e-05 -3.6613e-05)
(8.8668e-06 1.6812e-05 -4.0603e-05)
(8.8972e-06 8.5432e-06 -4.3125e-05)
(8.926e-06 4.0675e-10 -4.4e-05)
(6.6085e-06 3.6412e-05 -7.1939e-06)
(6.5738e-06 3.4269e-05 -1.4183e-05)
(6.6005e-06 3.0936e-05 -2.0716e-05)
(6.6317e-06 2.6407e-05 -2.6407e-05)
(6.6004e-06 2.0716e-05 -3.0936e-05)
(6.5737e-06 1.4183e-05 -3.4269e-05)
(6.6083e-06 7.1941e-06 -3.6413e-05)
(6.6426e-06 3.6163e-10 -3.7176e-05)
(4.6422e-06 3.0197e-05 -5.971e-06)
(4.6191e-06 2.844e-05 -1.1777e-05)
(4.6399e-06 2.568e-05 -1.7199e-05)
(4.6627e-06 2.192e-05 -2.1919e-05)
(4.6398e-06 1.7199e-05 -2.568e-05)
(4.619e-06 1.1778e-05 -2.8441e-05)
(4.6421e-06 5.9711e-06 -3.0197e-05)
(4.6659e-06 3.3055e-10 -3.0818e-05)
(3.0045e-06 2.4527e-05 -4.8588e-06)
(2.9933e-06 2.3117e-05 -9.5789e-06)
(3.0056e-06 2.0881e-05 -1.3983e-05)
(3.0158e-06 1.7816e-05 -1.7816e-05)
(3.0056e-06 1.3983e-05 -2.0881e-05)
(2.9933e-06 9.5791e-06 -2.3117e-05)
(3.0044e-06 4.8589e-06 -2.4527e-05)
(3.0141e-06 2.9235e-10 -2.5013e-05)
(1.6728e-06 1.9457e-05 -3.8506e-06)
(1.6578e-06 1.8354e-05 -7.6045e-06)
(1.6771e-06 1.6581e-05 -1.1103e-05)
(1.6948e-06 1.4149e-05 -1.4149e-05)
(1.6771e-06 1.1103e-05 -1.6581e-05)
(1.6578e-06 7.6046e-06 -1.8354e-05)
(1.6728e-06 3.8506e-06 -1.9457e-05)
(1.6887e-06 2.3561e-10 -1.9836e-05)
(6.0432e-07 1.5073e-05 -2.9695e-06)
(5.8788e-07 1.4207e-05 -5.8751e-06)
(6.1292e-07 1.2852e-05 -8.6112e-06)
(6.3914e-07 1.0978e-05 -1.0978e-05)
(6.1294e-07 8.6112e-06 -1.2852e-05)
(5.879e-07 5.8751e-06 -1.4207e-05)
(6.0433e-07 2.9695e-06 -1.5073e-05)
(6.2707e-07 1.7748e-10 -1.5368e-05)
(-1.8296e-07 1.1272e-05 -2.2e-06)
(-1.8011e-07 1.0586e-05 -4.379e-06)
(-1.6929e-07 9.5982e-06 -6.4559e-06)
(-1.6263e-07 8.2428e-06 -8.2428e-06)
(-1.6929e-07 6.4559e-06 -9.5981e-06)
(-1.8011e-07 4.379e-06 -1.0586e-05)
(-1.8298e-07 2.2e-06 -1.1272e-05)
(-1.8235e-07 1.1e-10 -1.1538e-05)
(-5.6455e-07 7.5901e-06 -1.4648e-06)
(-5.4579e-07 7.0847e-06 -2.9342e-06)
(-5.4965e-07 6.4469e-06 -4.3607e-06)
(-5.6207e-07 5.5877e-06 -5.5876e-06)
(-5.4966e-07 4.3608e-06 -6.4468e-06)
(-5.4581e-07 2.9343e-06 -7.0845e-06)
(-5.646e-07 1.4648e-06 -7.5899e-06)
(-5.8427e-07 5.0386e-11 -7.8258e-06)
(-4.6513e-07 3.7262e-06 -7.1603e-07)
(-4.5248e-07 3.4746e-06 -1.4405e-06)
(-4.5659e-07 3.1599e-06 -2.1428e-06)
(-4.6301e-07 2.7363e-06 -2.7363e-06)
(-4.566e-07 2.1429e-06 -3.1599e-06)
(-4.525e-07 1.4405e-06 -3.4746e-06)
(-4.6516e-07 7.1606e-07 -3.7261e-06)
(-4.753e-07 9.8362e-12 -3.8366e-06)
(-1.3559e-09 6.1865e-09 4.4643e-09)
(-8.9595e-14 9.3959e-13 -3.6844e-13)
(-9.5593e-10 2.4979e-09 -7.6029e-09)
(-4.3787e-13 1.4446e-12 -1.4445e-12)
(-9.5527e-10 7.6027e-09 -2.4979e-09)
(-8.9619e-14 3.6846e-13 -9.3957e-13)
(-1.3565e-09 -4.4645e-09 -6.1854e-09)
(-2.2976e-13 -2.2365e-18 -1.3821e-12)
(1.4429e-05 -1.1385e-05 -5.7409e-05)
(1.7605e-05 -1.2804e-05 -6.4617e-05)
(1.439e-05 -2.238e-05 -5.4024e-05)
(1.7557e-05 -2.5168e-05 -6.0762e-05)
(1.4405e-05 -3.2556e-05 -4.8656e-05)
(1.7579e-05 -3.6618e-05 -5.4718e-05)
(1.4428e-05 -4.1442e-05 -4.1442e-05)
(1.7612e-05 -4.6614e-05 -4.6614e-05)
(1.4405e-05 -4.8656e-05 -3.2557e-05)
(1.7579e-05 -5.4718e-05 -3.6619e-05)
(1.439e-05 -5.4023e-05 -2.2381e-05)
(1.7557e-05 -6.0762e-05 -2.5168e-05)
(1.4429e-05 -5.7409e-05 -1.1385e-05)
(1.7605e-05 -6.4617e-05 -1.2804e-05)
(1.1512e-05 -9.952e-06 -5.0178e-05)
(1.1479e-05 -1.9575e-05 -4.7244e-05)
(1.1492e-05 -2.8476e-05 -4.2567e-05)
(1.1499e-05 -3.6255e-05 -3.6256e-05)
(1.1492e-05 -4.2566e-05 -2.8477e-05)
(1.1479e-05 -4.7244e-05 -1.9576e-05)
(1.1512e-05 -5.0178e-05 -9.9527e-06)
(8.8972e-06 -8.5423e-06 -4.3125e-05)
(8.8668e-06 -1.6811e-05 -4.0603e-05)
(8.881e-06 -2.4497e-05 -3.6613e-05)
(8.9029e-06 -3.1204e-05 -3.1205e-05)
(8.881e-06 -3.6612e-05 -2.4498e-05)
(8.8669e-06 -4.0603e-05 -1.6812e-05)
(8.8973e-06 -4.3125e-05 -8.5431e-06)
(6.6083e-06 -7.1934e-06 -3.6413e-05)
(6.5736e-06 -1.4182e-05 -3.4269e-05)
(6.6003e-06 -2.0715e-05 -3.0936e-05)
(6.6316e-06 -2.6407e-05 -2.6407e-05)
(6.6003e-06 -3.0936e-05 -2.0716e-05)
(6.5736e-06 -3.4269e-05 -1.4183e-05)
(6.6083e-06 -3.6413e-05 -7.1941e-06)
(4.6421e-06 -5.9704e-06 -3.0197e-05)
(4.6189e-06 -1.1777e-05 -2.8441e-05)
(4.6397e-06 -1.7198e-05 -2.568e-05)
(4.6626e-06 -2.1919e-05 -2.192e-05)
(4.6397e-06 -2.568e-05 -1.7199e-05)
(4.6189e-06 -2.8441e-05 -1.1778e-05)
(4.642e-06 -3.0197e-05 -5.9712e-06)
(3.0044e-06 -4.8583e-06 -2.4527e-05)
(2.9932e-06 -9.5785e-06 -2.3117e-05)
(3.0054e-06 -1.3983e-05 -2.0882e-05)
(3.0156e-06 -1.7816e-05 -1.7816e-05)
(3.0053e-06 -2.0881e-05 -1.3983e-05)
(2.9931e-06 -2.3117e-05 -9.5793e-06)
(3.0042e-06 -2.4527e-05 -4.859e-06)
(1.6727e-06 -3.8502e-06 -1.9457e-05)
(1.6577e-06 -7.6042e-06 -1.8354e-05)
(1.6769e-06 -1.1103e-05 -1.6582e-05)
(1.6946e-06 -1.4149e-05 -1.4149e-05)
(1.6768e-06 -1.6581e-05 -1.1103e-05)
(1.6576e-06 -1.8354e-05 -7.6048e-06)
(1.6725e-06 -1.9458e-05 -3.8507e-06)
(6.0423e-07 -2.9692e-06 -1.5074e-05)
(5.8772e-07 -5.8748e-06 -1.4207e-05)
(6.1271e-07 -8.611e-06 -1.2852e-05)
(6.3887e-07 -1.0978e-05 -1.0978e-05)
(6.1262e-07 -1.2852e-05 -8.6113e-06)
(5.8753e-07 -1.4207e-05 -5.8752e-06)
(6.0393e-07 -1.5074e-05 -2.9696e-06)
(-1.8309e-07 -2.1998e-06 -1.1272e-05)
(-1.8031e-07 -4.3789e-06 -1.0586e-05)
(-1.6957e-07 -6.4558e-06 -9.5983e-06)
(-1.6297e-07 -8.2428e-06 -8.243e-06)
(-1.6967e-07 -9.5982e-06 -6.456e-06)
(-1.8053e-07 -1.0586e-05 -4.3791e-06)
(-1.8344e-07 -1.1272e-05 -2.2e-06)
(-5.6469e-07 -1.4648e-06 -7.59e-06)
(-5.46e-07 -2.9342e-06 -7.0847e-06)
(-5.4993e-07 -4.3608e-06 -6.447e-06)
(-5.6242e-07 -5.5878e-06 -5.5878e-06)
(-5.5003e-07 -6.447e-06 -4.3609e-06)
(-5.462e-07 -7.0849e-06 -2.9343e-06)
(-5.6501e-07 -7.5904e-06 -1.4648e-06)
(-4.6522e-07 -7.1605e-07 -3.7262e-06)
(-4.5261e-07 -1.4405e-06 -3.4746e-06)
(-4.5677e-07 -2.1429e-06 -3.16e-06)
(-4.6322e-07 -2.7364e-06 -2.7364e-06)
(-4.5683e-07 -3.16e-06 -2.1429e-06)
(-4.5273e-07 -3.4748e-06 -1.4405e-06)
(-4.6541e-07 -3.7264e-06 -7.1606e-07)
(-1.3559e-09 4.4651e-09 -6.1853e-09)
(-8.9668e-14 -3.6852e-13 -9.3957e-13)
(-9.5695e-10 -7.6035e-09 -2.4992e-09)
(-4.3792e-13 -1.4445e-12 -1.4446e-12)
(-9.561e-10 -2.4975e-09 -7.6033e-09)
(-8.973e-14 -9.3968e-13 -3.6842e-13)
(-1.3571e-09 -6.1878e-09 4.4644e-09)
)
;
    }
    procBoundary3to2
    {
        type            processor;
    }
}


// ************************************************************************* //
