/*--------------------------------*- C++ -*----------------------------------*\
  =========                 |
  \\      /  F ield         | OpenFOAM: The Open Source CFD Toolbox
   \\    /   O peration     | Website:  https://openfoam.org
    \\  /    A nd           | Version:  8
     \\/     M anipulation  |
\*---------------------------------------------------------------------------*/
FoamFile
{
    version     2.0;
    format      ascii;
    class       surfaceScalarField;
    location    "0.0330000";
    object      phi;
}
// * * * * * * * * * * * * * * * * * * * * * * * * * * * * * * * * * * * * * //

dimensions      [0 3 -1 0 0 0 0];

internalField   nonuniform List<scalar> 
1691
(
8.86335730175785e-10
1.01241336812063e-11
8.7632051599115e-10
1.03400851571389e-11
8.66331915004543e-10
1.0407536868943e-11
8.56198076119573e-10
1.05931063427537e-11
8.45992992557855e-10
1.07020724029611e-11
8.35762933305193e-10
1.07714147209388e-11
8.25531010493087e-10
1.08139042850081e-11
8.15300234445363e-10
1.08410750232675e-11
8.05072916415997e-10
1.08646579657851e-11
7.94860258584106e-10
1.08900135677557e-11
7.84650327633419e-10
1.09105335606541e-11
7.74443689518191e-10
1.09295467370774e-11
7.64242859408216e-10
1.09513136146527e-11
7.54048992641255e-10
1.09724305026664e-11
7.43859685399307e-10
1.0988109367859e-11
7.33674522254131e-10
1.10041019975686e-11
7.23498916355768e-10
1.10254421895189e-11
7.13325563701866e-10
1.10442353818535e-11
7.03155912723378e-10
1.1060187850392e-11
6.92991797988858e-10
1.10789800829021e-11
6.82835483021032e-10
1.11005505509823e-11
6.72682418036003e-10
1.1118023996746e-11
6.6253334274553e-10
1.11347867967132e-11
6.52395815365513e-10
1.11563265245606e-11
6.42263301743652e-10
1.11767566796497e-11
6.32134310878644e-10
1.11966033921246e-11
6.2200975846867e-10
1.1220707921981e-11
6.11894761472744e-10
1.12474832618138e-11
6.01784341261764e-10
1.1269368902524e-11
5.91677739212333e-10
1.12927583683957e-11
5.8158326129714e-10
1.13244733021945e-11
5.71494388222513e-10
1.13548231535868e-11
5.61409837450755e-10
1.13829921819865e-11
5.51331233409263e-10
1.14160346385926e-11
5.4126895747277e-10
1.14552941609581e-11
5.31211524549256e-10
1.14911066316934e-11
5.21156620350373e-10
1.15307205975644e-11
5.11118248050745e-10
1.15813906386519e-11
5.01091536210032e-10
1.16302671555921e-11
4.91072391772032e-10
1.16777370233352e-11
4.81059596516131e-10
1.17378611813627e-11
4.71072224410486e-10
1.18133881250945e-11
4.610919376166e-10
1.18815616912016e-11
4.51116387501316e-10
1.19560674828822e-11
4.41169556951574e-10
1.20569811089993e-11
4.31241484748747e-10
1.21617024106173e-11
4.21324603986918e-10
1.22637161713429e-11
4.11417405316796e-10
1.23908636416632e-11
4.01563221327776e-10
1.25554814536563e-11
3.91722190130915e-10
1.27063273410502e-11
3.81887869764297e-10
1.28739608077372e-11
3.72112207028462e-10
1.31056359395622e-11
3.6237501470932e-10
1.33483443412756e-11
3.52660670410716e-10
1.35845896505946e-11
3.42963223905955e-10
1.38820380660701e-11
3.33381731778691e-10
1.42738846264502e-11
3.23825295564921e-10
1.4633504848058e-11
3.14281455561368e-10
1.50277465320219e-11
3.04864876291041e-10
1.55716446949755e-11
2.95538398716439e-10
1.61483801790718e-11
2.86258744731247e-10
1.67062488148397e-11
2.77014590083446e-10
1.74039976324964e-11
2.6803122195311e-10
1.83192082299063e-11
2.59101049236045e-10
1.91536078963119e-11
2.5018854474292e-10
2.0075782386789e-11
2.41548087757483e-10
2.14006383165078e-11
2.3314311485316e-10
2.29432720109608e-11
2.24911103364758e-10
2.46683304748704e-11
2.16800995298526e-10
2.72009617305711e-11
2.09867810935769e-10
3.08140333962411e-11
2.03113320318426e-10
3.40811376727274e-11
1.96510040426129e-10
3.73625029808403e-11
1.91011836747661e-10
4.10134232133794e-11
1.85573359848291e-10
4.36311593363678e-11
1.80268662541539e-10
4.54814968098513e-11
1.75398129670368e-10
4.69663511501765e-11
1.70608168283074e-10
4.76771202592383e-11
1.65706027978252e-10
4.75651550012102e-11
1.61122357710682e-10
4.67137918248809e-11
1.558344082604e-10
4.45369247615757e-11
1.50206685883891e-10
4.19393802344334e-11
1.44785789271444e-10
3.85088131573501e-11
1.38284054560493e-10
3.38585062638761e-11
1.30728886889222e-10
2.80293221432342e-11
1.22688444096255e-10
2.27672421536237e-11
1.15345118829288e-10
1.51007232497371e-11
1.14021223475958e-10
1.53181762509326e-12
1.13545186741946e-10
-2.70644946895388e-12
1.12563466281649e-10
-5.20122079450631e-12
1.10936209084773e-10
-7.57782023646169e-12
1.09382317764564e-10
-8.89472933922895e-12
1.07844791904734e-10
-9.86491638230675e-12
1.06034340063103e-10
-1.05369394492567e-11
1.0423240670099e-10
-1.09668528566309e-11
1.0244543765919e-10
-1.10893299191399e-11
1.00585428899664e-10
-1.09826485220466e-11
9.88958756369253e-11
-1.05788406935834e-11
9.7255525863464e-11
-9.97479225483263e-12
9.51404681333272e-11
-8.73202534755494e-12
-3.65374271663083e-12
4.82904880853279e-10
1.43263654796358e-11
4.7821866436123e-10
1.50806255680616e-11
4.73127863486161e-10
1.55525777665489e-11
4.67668986404058e-10
1.61061359034621e-11
4.62004799566333e-10
1.64203239312091e-11
4.56260533650861e-10
1.65696648524615e-11
4.50495869737054e-10
1.66324745569183e-11
4.44732441199117e-10
1.66583273274075e-11
4.38977570374764e-10
1.66732679466268e-11
4.33233879671809e-10
1.66873602263767e-11
4.27499312414975e-10
1.66986734852249e-11
4.21772726863658e-10
1.67096189953634e-11
4.16054720559912e-10
1.67227181244658e-11
4.10345457056833e-10
1.67350042000875e-11
4.04644259373488e-10
1.67425274364851e-11
3.98951342835767e-10
1.67501439729096e-11
3.93267346058436e-10
1.67624705480045e-11
3.87591123253137e-10
1.67734028504077e-11
3.81922441574465e-10
1.67817338025406e-11
3.76262165594589e-10
1.6792041423216e-11
3.70610635937174e-10
1.68047769708763e-11
3.64967141334985e-10
1.68141152154009e-11
3.59332260511352e-10
1.68221681618057e-11
3.53707263136615e-10
1.68337414840687e-11
3.48091243778355e-10
1.6845112635476e-11
3.42483401892592e-10
1.68566916008119e-11
3.36884327553271e-10
1.6871934608799e-11
3.31294860106924e-10
1.68890159206595e-11
3.25714558102406e-10
1.69016552724598e-11
3.20143794337429e-10
1.69154240838077e-11
3.14583752911548e-10
1.69363258302506e-11
3.09033761481619e-10
1.69565228348814e-11
3.03493397351883e-10
1.69749572980028e-11
2.97964114655603e-10
1.69968208060435e-11
2.92447518530144e-10
1.7023304912809e-11
2.86942192820919e-10
1.7047753396981e-11
2.81448153895495e-10
1.70759808835376e-11
2.75968017457614e-10
1.71126519515199e-11
2.705022828891e-10
1.71470327995217e-11
2.65050282321477e-10
1.71806703835281e-11
2.59613364823024e-10
1.7225608041713e-11
2.54194082944073e-10
1.72833896098137e-11
2.48791357760655e-10
1.73348848108111e-11
2.43406350305734e-10
1.73915440116479e-11
2.38043244285227e-10
1.74704294729131e-11
2.32702464294466e-10
1.75526921438651e-11
2.2738373292489e-10
1.76325029195328e-11
2.2209104829727e-10
1.77334278508351e-11
2.16830083570975e-10
1.78661365598354e-11
2.11599464155627e-10
1.79864368685943e-11
2.06401795788207e-10
1.8120890573384e-11
2.01245351414732e-10
1.83110649040357e-11
1.96132006999084e-10
1.8510364136115e-11
1.91062857224089e-10
1.87020934140405e-11
1.86046340414905e-10
1.89465344947262e-11
1.81093709372961e-10
1.92740066660372e-11
1.76203808925295e-10
1.95703117738442e-11
1.71383888057786e-10
1.98939721356257e-11
1.66651402365027e-10
2.03498089507566e-11
1.62011541335895e-10
2.08331469664905e-11
1.57468488936559e-10
2.12932450476516e-11
1.53040161563831e-10
2.18751758065752e-11
1.48749322008036e-10
2.26516563153186e-11
1.44597265727645e-10
2.3345818030996e-11
1.4060345402656e-10
2.41081383696344e-11
1.36815987229162e-10
2.52248209358542e-11
1.33279217623774e-10
2.65142713389767e-11
1.30062948649552e-10
2.7915408654224e-11
1.27279001167229e-10
3.00113692871182e-11
1.25031455844519e-10
3.30824968603808e-11
1.23298689565416e-10
3.58279989617677e-11
1.22065110607452e-10
3.86028648212479e-11
1.21324901276914e-10
4.17533483413715e-11
1.20981476600178e-10
4.39672977552318e-11
1.20935145155752e-10
4.55134238400294e-11
1.2111637631268e-10
4.6763777862711e-11
1.21409117492656e-10
4.73563357217685e-11
1.21710269888125e-10
4.72294894512436e-11
1.21868076835489e-10
4.65153121627505e-11
1.21756935409574e-10
4.46013187683114e-11
1.21210791565692e-10
4.24330820643152e-11
1.20226543917499e-10
3.94355258868141e-11
1.18444404401742e-10
3.55779438123592e-11
1.15946435099467e-10
3.04600738684095e-11
1.12405864683409e-10
2.62371838292626e-11
1.08832623938915e-10
1.85993138129001e-11
1.0867055423442e-10
1.61589965427288e-12
1.0822203207499e-10
-2.33717382485149e-12
1.07179917990951e-10
-4.23931892342825e-12
1.05847144724771e-10
-6.32714852102168e-12
1.04238877647379e-10
-7.37054499524573e-12
1.02519442501848e-10
-8.23050750565552e-12
1.00659262518174e-10
-8.76214653176245e-12
9.87455432949248e-11
-9.13853228945988e-12
9.68055757217247e-11
-9.23427924000863e-12
9.48869831328719e-11
-9.14824260065495e-12
9.30335783776418e-11
-8.80945099258789e-12
9.12725835410039e-11
-8.29834716924133e-12
8.96838449771676e-11
-7.22815699954146e-12
-2.93509653089533e-12
1.49460942228925e-10
1.38561283517201e-11
1.49666423274482e-10
1.49307864156287e-11
1.48708683174729e-10
1.65658613810849e-11
1.47158476010828e-10
1.77117840771041e-11
1.45319927254983e-10
1.83142110438873e-11
1.43372346879539e-10
1.85724887921627e-11
1.41394180752163e-10
1.86657920786597e-11
1.39414123500535e-10
1.8693438640382e-11
1.37441649028e-10
1.87006972535381e-11
1.35479601312185e-10
1.87042650110289e-11
1.33526729587396e-10
1.8706304369263e-11
1.3158218643826e-10
1.87088207614211e-11
1.29646561265042e-10
1.87128986426153e-11
1.2771978709916e-10
1.87162309784882e-11
1.25800749901966e-10
1.87159127696191e-11
1.23889632665639e-10
1.87154993156413e-11
1.21987489293341e-10
1.87187434436032e-11
1.20093554887645e-10
1.8721365508651e-11
1.18207220162391e-10
1.87220019181572e-11
1.16329289485418e-10
1.87238126205929e-11
1.14460316046812e-10
1.8727487703006e-11
1.12599430404983e-10
1.87286225064338e-11
1.10746771170302e-10
1.87283381812124e-11
1.0890348613026e-10
1.87304404765657e-11
1.07069083080366e-10
1.87328345986428e-11
1.05243064080174e-10
1.87359243813141e-11
1.03426253953094e-10
1.87418495981114e-11
1.01619283182904e-10
1.87489900325622e-11
9.9821290337932e-11
1.8752556647468e-11
9.80326429100895e-11
1.87568835418039e-11
9.6254849024177e-11
1.87668264297789e-11
9.44874239906443e-11
1.87765366005877e-11
9.27298157278306e-11
1.8785031703741e-11
9.09832893734507e-11
1.87957014865146e-11
8.92491633390457e-11
1.88096826274548e-11
8.75263919487305e-11
1.88226683682942e-11
8.58154297539971e-11
1.88389718658286e-11
8.41186059663479e-11
1.8861393683395e-11
8.24358437752355e-11
1.88816051821574e-11
8.07665591584593e-11
1.89016522728333e-11
7.91128706114497e-11
1.89308759094775e-11
7.74774034119173e-11
1.89703118391081e-11
7.58587178506997e-11
1.90048887116069e-11
7.42579674313486e-11
1.90434684928103e-11
7.26798111711575e-11
1.90996186662887e-11
7.11247144877466e-11
1.91586746140567e-11
6.95919397571478e-11
1.92159930771993e-11
6.80860999037875e-11
1.92897917614815e-11
6.66133525548076e-11
1.93892030745011e-11
6.51713946327556e-11
1.94784982622192e-11
6.37630507899175e-11
1.95790947321747e-11
6.23985225479116e-11
1.97251579239709e-11
6.10795152707407e-11
1.98786088414666e-11
5.98053084359807e-11
2.00252029714206e-11
5.8586296735205e-11
2.02140597175864e-11
5.74364702613122e-11
2.04718364413128e-11
5.63515893806052e-11
2.07025873153697e-11
5.53383438113456e-11
2.09539918713661e-11
5.44195042986216e-11
2.13147850077738e-11
5.36001622159526e-11
2.16978349775014e-11
5.28794020911598e-11
2.20583592907129e-11
5.22798654758533e-11
2.25179547988066e-11
5.18322553827194e-11
2.31412472769195e-11
5.15284537089012e-11
2.36901153677198e-11
5.13858771188107e-11
2.42895764009488e-11
5.1465236413337e-11
2.51824938463823e-11
5.18066046663806e-11
2.620743766759e-11
5.24571994197966e-11
2.72958780454877e-11
5.35483793156589e-11
2.8946885606996e-11
5.52268035662112e-11
3.14251877848426e-11
5.74483756277892e-11
3.36206253123834e-11
6.02068173447445e-11
3.58512311383553e-11
6.35340752100309e-11
3.84257929252564e-11
6.72871761615235e-11
4.02068729296196e-11
7.13519560024607e-11
4.1434173002687e-11
7.56560499949985e-11
4.243826094784e-11
8.00839973312764e-11
4.29002722151949e-11
8.4496854096123e-11
4.27820696640074e-11
8.87747065748573e-11
4.21967460220076e-11
9.27069678647039e-11
4.06223520674326e-11
9.62279814738448e-11
3.88597830163972e-11
9.91674164444468e-11
3.64387318239896e-11
1.0137943195871e-10
3.33036367675962e-11
1.02619689716305e-10
2.91531879824192e-11
1.03000561563781e-10
2.57860786609971e-11
1.02407179024169e-10
1.91188326028048e-11
1.02531952856775e-10
1.41416684546088e-12
1.01926600329846e-10
-1.81055489697433e-12
1.00908232535238e-10
-3.30104308182583e-12
9.94696425633781e-11
-4.97039503795949e-12
9.78123859008832e-11
-5.79678140698144e-12
9.59801120469083e-11
-6.48270527193475e-12
9.40373500325413e-11
-6.90429576661472e-12
9.20190339834931e-11
-7.20518211766215e-12
8.99817578599505e-11
-7.28161009909322e-12
8.79628826884684e-11
-7.21347121938742e-12
8.60117692565726e-11
-6.94235333951446e-12
8.41647531757744e-11
-6.53577368008497e-12
8.2549066317004e-11
-5.69726464516903e-12
-2.26208907213318e-12
-1.08174776074472e-10
1.03188081612383e-11
-1.04703407295194e-10
1.15163475273233e-11
-1.02655482864258e-10
1.45747548010276e-11
-1.01233397428396e-10
1.63463998498847e-11
-1.00079930422286e-10
1.72173285462037e-11
-9.90214969354725e-11
1.75705311168554e-11
-9.79891278875954e-11
1.76897927550902e-11
-9.69588143741903e-11
1.77193835082273e-11
-9.59229656527568e-11
1.77209936501589e-11
-9.4879374315836e-11
1.77167070027819e-11
-9.38287642235446e-11
1.77116156544578e-11
-9.27716056156794e-11
1.77074689011655e-11
-9.17074562081152e-11
1.77044385682675e-11
-9.06364925446346e-11
1.77008397586251e-11
-8.95598075741538e-11
1.76946815527714e-11
-8.84773051939359e-11
1.76883263851545e-11
-8.73879254826152e-11
1.76845704477322e-11
-8.62921321613371e-11
1.76806636409283e-11
-8.51905272698416e-11
1.7675379728649e-11
-8.40825221414799e-11
1.76706834192987e-11
-8.29675750487547e-11
1.76672991297804e-11
-8.18464807413078e-11
1.76621567314111e-11
-8.07193510442222e-11
1.76557120491594e-11
-7.95852711908217e-11
1.76507534863341e-11
-7.84444443391963e-11
1.76462916215384e-11
-7.72970522626903e-11
1.76426969316823e-11
-7.61422966086929e-11
1.76411355563617e-11
-7.4979715586289e-11
1.76403351541037e-11
-7.38102238052113e-11
1.76368823469946e-11
-7.2633515587924e-11
1.76338824045437e-11
-7.14481035218058e-11
1.76350019879842e-11
-7.0254281633393e-11
1.7636170008461e-11
-6.90525107044902e-11
1.76365792011432e-11
-6.78418421184649e-11
1.76382254425151e-11
-6.66212087176622e-11
1.76421251310404e-11
-6.53912673918845e-11
1.76456807399927e-11
-6.41513508212169e-11
1.76518800425076e-11
-6.28995334300155e-11
1.76622761349344e-11
-6.16361536146863e-11
1.76708034057836e-11
-6.03615423429991e-11
1.76794919892271e-11
-5.90734225975238e-11
1.76950749662197e-11
-5.77692724348972e-11
1.77183418328361e-11
-5.64504559987704e-11
1.77381012473286e-11
-5.51158633830005e-11
1.77607460091095e-11
-5.3760981173618e-11
1.77964509680166e-11
-5.23852481877446e-11
1.78344940268285e-11
-5.0989313203201e-11
1.78714248078563e-11
-4.95687005798127e-11
1.79203392557232e-11
-4.8117318890337e-11
1.79887612865688e-11
-4.66375685207901e-11
1.80494566382656e-11
-4.51265562180991e-11
1.81185319692229e-11
-4.35736830684171e-11
1.82224221584924e-11
-4.19772458223698e-11
1.83319650231276e-11
-4.03384956693772e-11
1.84358949296346e-11
-3.86467504092198e-11
1.85713497298009e-11
-3.68870417621797e-11
1.87606338280279e-11
-3.50647444059132e-11
1.89281679956002e-11
-3.31737005696664e-11
1.9110186383695e-11
-3.11893384239463e-11
1.93770040726898e-11
-2.91065344931899e-11
1.9660800764601e-11
-2.69285706572325e-11
1.99251509592962e-11
-2.46314148587227e-11
2.02644198952402e-11
-2.21807878773009e-11
2.07329559080053e-11
-1.95895003490989e-11
2.11396530811491e-11
-1.68419470333535e-11
2.15811884493447e-11
-1.38726649415539e-11
2.22505215158652e-11
-1.064562056795e-11
2.30151746367278e-11
-7.12948593992743e-12
2.38110190566238e-11
-3.18738261617824e-12
2.50316518754187e-11
1.34912790072254e-12
2.69099226656488e-11
6.4258457238262e-12
2.85581893566754e-11
1.2043555241528e-11
3.02403685820121e-11
1.82576929109094e-11
3.22113587485841e-11
2.49005702264581e-11
3.35566399054398e-11
3.1851509487209e-11
3.44687037917541e-11
3.90398032839124e-11
3.52284652620735e-11
4.63529224793871e-11
3.55589445488984e-11
5.36348815998993e-11
3.54654492517269e-11
6.07922038882141e-11
3.49986128985365e-11
6.75622614367411e-11
3.3805497982116e-11
7.39473346366843e-11
3.24223532253282e-11
7.96920232493448e-11
3.06366523861745e-11
8.47678729957787e-11
2.81654967591427e-11
8.87384443421469e-11
2.51160234098946e-11
9.20022791556965e-11
2.24520990030079e-11
9.36980466366204e-11
1.73493284630758e-11
9.39614901929492e-11
1.07388452031407e-12
9.32584926852703e-11
-1.18620643898436e-12
9.22758253656046e-11
-2.39843855441186e-12
9.08011607623181e-11
-3.57752712925109e-12
8.91587352222319e-11
-4.23776134425989e-12
8.7315203845131e-11
-4.72356612045109e-12
8.53807512549987e-11
-5.05469405571043e-12
8.33613280320485e-11
-5.27066431673684e-12
8.13291746009814e-11
-5.33402430650607e-12
7.93117789102999e-11
-5.28019406578109e-12
7.73636382022229e-11
-5.07826670141143e-12
7.55176666272219e-11
-4.77426853072004e-12
7.38932940560327e-11
-4.15772252343719e-12
-1.58028066831622e-12
-2.85316925588315e-10
5.35389362279503e-12
-2.80685489087444e-10
6.94310127350273e-12
-2.76971601240409e-10
1.09189322199079e-11
-2.73621085440849e-10
1.30538191074873e-11
-2.70397999887433e-10
1.405204783241e-11
-2.67209944246047e-10
1.44401582450914e-11
-2.64028053061665e-10
1.45654648952382e-11
-2.60844530675831e-10
1.45932996494301e-11
-2.57657423131649e-10
1.45911978749851e-11
-2.5446614060482e-10
1.45826109687545e-11
-2.51271151289734e-10
1.45736873785449e-11
-2.48072607077289e-10
1.45658575545316e-11
-2.44870198076777e-10
1.45588314007797e-11
-2.4166412745773e-10
1.45514404488309e-11
-2.38455296212067e-10
1.45423892465514e-11
-2.35243686901661e-10
1.45331179221547e-11
-2.32028413227418e-10
1.45255611849587e-11
-2.2880969222192e-10
1.45180782486576e-11
-2.25588005989944e-10
1.45097069385362e-11
-2.2236299139687e-10
1.45015621106478e-11
-2.1913421054783e-10
1.44942805121854e-11
-2.15902299749875e-10
1.44858642885485e-11
-2.12667502879219e-10
1.44763948519602e-11
-2.09429170040446e-10
1.44677761676439e-11
-2.06187295676053e-10
1.44596503148628e-11
-2.02941821422997e-10
1.44523228451244e-11
-1.99692067437766e-10
1.44463450428102e-11
-1.96437716822719e-10
1.44408189786563e-11
-1.93179577302394e-10
1.44334551607867e-11
-1.8991741980577e-10
1.44263133974712e-11
-1.8664994892744e-10
1.44219864689545e-11
-1.83377283492331e-10
1.44178136828498e-11
-1.80099745914359e-10
1.44131999417171e-11
-1.7681669427711e-10
1.44091924997865e-11
-1.73527304436472e-10
1.44066237293051e-11
-1.70231893959433e-10
1.44040227999093e-11
-1.66929726683315e-10
1.44033225736257e-11
-1.63619307355273e-10
1.44053279855632e-11
-1.60301055856815e-10
1.44058875836534e-11
-1.56975068457446e-10
1.440669946578e-11
-1.53639199079207e-10
1.44122544171473e-11
-1.50291168181044e-10
1.44232071097894e-11
-1.46932088843629e-10
1.44317527375332e-11
-1.43560950266011e-10
1.44421651982396e-11
-1.4017371392335e-10
1.44616026368914e-11
-1.36769728132281e-10
1.44827194910352e-11
-1.33349426067959e-10
1.45031332897809e-11
-1.29908812355739e-10
1.45315145474014e-11
-1.26442242425487e-10
1.45737450620899e-11
-1.22951861177686e-10
1.46103828436633e-11
-1.19434911765784e-10
1.4652615272218e-11
-1.15881315552385e-10
1.47195300928406e-11
-1.12289355565027e-10
1.47903487536045e-11
-1.08660365501653e-10
1.48568812472615e-11
-1.04984318817086e-10
1.49448555478513e-11
-1.01246495682263e-10
1.50718151369844e-11
-9.74524525366662e-11
1.51824820545695e-11
-9.35967791452334e-11
1.53022117140495e-11
-8.96553340233027e-11
1.54825814943146e-11
-8.56230960333742e-11
1.56747535024716e-11
-8.15045004991889e-11
1.58517100753703e-11
-7.72763254972559e-11
1.6080242164561e-11
-7.29037609039686e-11
1.64030796284197e-11
-6.84017263002364e-11
1.66787717701598e-11
-6.37568841249842e-11
1.69758146326487e-11
-5.89044704161393e-11
1.74356947606541e-11
-5.38129774009853e-11
1.79587102434968e-11
-4.8463450777058e-11
1.84929812869695e-11
-4.27241445580621e-11
1.93193909261812e-11
-3.64202826640514e-11
2.06274389238621e-11
-2.96097372330201e-11
2.17620119291826e-11
-2.22870298807914e-11
2.29245492940537e-11
-1.43836866481556e-11
2.43077213486412e-11
-6.07458323278546e-12
2.52401495180701e-11
2.52039498193791e-12
2.58591368279275e-11
1.13368956500193e-11
2.63903834339842e-11
2.02674215126444e-11
2.66001170113262e-11
2.91569329886539e-11
2.65411763394523e-11
3.79285981997847e-11
2.61860366890942e-11
4.63084504687135e-11
2.53787536654882e-11
5.43291347838615e-11
2.43492285973294e-11
6.17159604963996e-11
2.31923711282655e-11
6.84860317584948e-11
2.13330910609595e-11
7.41484051984832e-11
1.93870383286784e-11
7.92129343873424e-11
1.73174355178899e-11
8.2467661526951e-11
1.4020900611459e-11
8.27757593662735e-11
6.88988155675573e-13
8.20597929193161e-11
-5.48850265493883e-13
8.11421807027752e-11
-1.56085755774147e-12
7.97318047670028e-11
-2.24891934112938e-12
7.8185665262582e-11
-2.77499942902929e-12
7.64402539017589e-11
-3.06252619705663e-12
7.46176124434073e-11
-3.31688921339378e-12
7.27111690478107e-11
-3.44911594495047e-12
7.07953274998064e-11
-3.50274906637847e-12
6.88917728462637e-11
-3.4607704052542e-12
6.70540574727495e-11
-3.32462567375947e-12
6.53107919627443e-11
-3.11549280247045e-12
6.37679612711044e-11
-2.69975062488496e-12
-9.31446613547116e-13
-3.78936845584641e-10
6.16539102240412e-13
-3.74628886253734e-10
2.69456663441842e-12
-3.70477027225649e-10
6.8263606508105e-12
-3.66247075475247e-10
8.88301158560386e-12
-3.61927102850723e-10
9.79107619775138e-12
-3.57556856347029e-10
1.01287777813713e-11
-3.5316552921875e-10
1.02328715324511e-11
-3.48767176051819e-10
1.02535425270708e-11
-3.44366959703698e-10
1.02494378313247e-11
-3.39966192291853e-10
1.02401616076273e-11
-3.35565241556933e-10
1.02309162506931e-11
-3.31164004313402e-10
1.02226587138091e-11
-3.26762246937425e-10
1.02149682817288e-11
-3.22360146163302e-10
1.0207090273819e-11
-3.17958378339412e-10
1.0198226475695e-11
-3.1355698349949e-10
1.01891767320539e-11
-3.09155286728966e-10
1.01811683626173e-11
-3.04753329804179e-10
1.01732833671111e-11
-3.00351462178437e-10
1.01648662064923e-11
-2.959495049365e-10
1.01564986994823e-11
-2.91547138124869e-10
1.01486633430742e-11
-2.87144835165301e-10
1.01401536641645e-11
-2.82742899541197e-10
1.01308995474864e-11
-2.78340914824998e-10
1.01220945580714e-11
-2.73938748215729e-10
1.01136513276262e-11
-2.69536194130435e-10
1.01057903010531e-11
-2.65132715430406e-10
1.00987379113313e-11
-2.60728108726411e-10
1.00919416197165e-11
-2.56323031975479e-10
1.00839725955689e-11
-2.51917334730268e-10
1.00760734695347e-11
-2.47509966735133e-10
1.00699294322099e-11
-2.43100921731839e-10
1.00639198905973e-11
-2.38690400088966e-10
1.00576651571284e-11
-2.34278017654503e-10
1.00516438906369e-11
-2.29863167653227e-10
1.0046464042803e-11
-2.25445928383136e-10
1.00413246333392e-11
-2.21025595067222e-10
1.00373742088184e-11
-2.16601063634594e-10
1.00350294830905e-11
-2.12172758135517e-10
1.00316661598171e-11
-2.07740620044981e-10
1.00284912562407e-11
-2.03302792432018e-10
1.00281971327893e-11
-1.9885731367947e-10
1.00313323829065e-11
-1.94405036292168e-10
1.00329002103989e-11
-1.8994511380217e-10
1.00354806031156e-11
-1.85474136379839e-10
1.00436795335063e-11
-1.80991435623502e-10
1.00528820345953e-11
-1.76497264005269e-10
1.00616096220926e-11
-1.71988306774988e-10
1.00749691126524e-11
-1.67459599100188e-10
1.00971991198842e-11
-1.6291295707445e-10
1.01156415218787e-11
-1.58345982771267e-10
1.01372517788449e-11
-1.53749706010194e-10
1.01745195468777e-11
-1.49122516571709e-10
1.0214048918484e-11
-1.44465693531494e-10
1.0250564744594e-11
-1.39770555204081e-10
1.02997832936524e-11
-1.35023541285931e-10
1.03743009068533e-11
-1.30229937620805e-10
1.04377118984665e-11
-1.25385370050261e-10
1.05058005678348e-11
-1.20467788938855e-10
1.06124619448359e-11
-1.15472603680507e-10
1.07261781641883e-11
-1.10404690441782e-10
1.08293492607949e-11
-1.05243455906517e-10
1.09633803107128e-11
-9.99560711975971e-11
1.11587354149651e-11
-9.4557822111772e-11
1.13220038852942e-11
-8.90382336045941e-11
1.14959976847439e-11
-8.33378215621313e-11
1.17731477406027e-11
-7.74304970167754e-11
1.20866635281188e-11
-7.13069185981509e-11
1.24011078431333e-11
-6.48502516586495e-11
1.28899487494602e-11
-5.78932805227936e-11
1.36919834070325e-11
-5.0493000718043e-11
1.43761913079175e-11
-4.2641559626681e-11
1.50800420791197e-11
-3.42664426467755e-11
1.59323167777939e-11
-2.55335881053826e-11
1.64998807965511e-11
-1.65547148922568e-11
1.68656200009721e-11
-7.3822400404156e-12
1.7196251977287e-11
1.88344103799547e-12
1.7306044846082e-11
1.11062921316713e-11
1.728346748755e-11
2.02166235568792e-11
1.7034697995694e-11
2.89695310783937e-11
1.65788625781823e-11
3.73907284869339e-11
1.5875510775096e-11
4.52514486306889e-11
1.52741331636886e-11
5.25426852400629e-11
1.39794770826982e-11
5.88558828104174e-11
1.30072103036095e-11
6.46328877381451e-11
1.14703039141392e-11
6.87042780785611e-11
9.87584028462322e-12
6.89607643463075e-11
3.55737150748575e-13
6.83206349122367e-11
1.27026713903094e-14
6.74997254125357e-11
-8.19949332843367e-13
6.62560493309536e-11
-1.08698477536427e-12
6.48891955670507e-11
-1.49149960737532e-12
6.33517490684973e-11
-1.60943405134801e-12
6.17450616447239e-11
-1.79502698269779e-12
6.00661409128021e-11
-1.85508295257174e-12
5.83781779108458e-11
-1.89935306851963e-12
5.67012152624649e-11
-1.86795041370282e-12
5.50818005640294e-11
-1.78930379834266e-12
5.35444039309341e-11
-1.66260839303288e-12
5.21772905001236e-11
-1.41752306056636e-12
-3.60797235213917e-13
-3.85834885026219e-10
-2.24935650141312e-12
-3.83140430121014e-10
6.07472637845801e-14
-3.7958389212503e-10
3.33030936759617e-12
-3.75462772614561e-10
4.82222306343736e-12
-3.71042634196358e-10
5.43111297804451e-12
-3.6649912434415e-10
5.64529576223523e-12
-3.61913660517163e-10
5.70729094120452e-12
-3.57317902830812e-10
5.71751794213217e-12
-3.52722102820898e-10
5.71321869247293e-12
-3.48128715836352e-10
5.70620475320968e-12
-3.43537964334389e-10
5.69944393921651e-12
-3.38949544414112e-10
5.69336423684649e-12
-3.3436324300489e-10
5.6876355460862e-12
-3.29779182366923e-10
5.68184200663924e-12
-3.25197846617007e-10
5.67554486338541e-12
-3.20619308715246e-10
5.66912872888748e-12
-3.16043074227209e-10
5.66326123130654e-12
-3.11469090156726e-10
5.65747205247416e-12
-3.06897601041942e-10
5.65140214549208e-12
-3.02328549226289e-10
5.64532641666995e-12
-2.97761707917503e-10
5.63954474018518e-12
-2.9319741938266e-10
5.63341756732919e-12
-2.8863599572358e-10
5.62686335228829e-12
-2.84077187848962e-10
5.62052424809934e-12
-2.79520818962499e-10
5.61437194096921e-12
-2.74966633031118e-10
5.60853504749271e-12
-2.70414229566329e-10
5.60310227157832e-12
-2.65863480679914e-10
5.59780551682792e-12
-2.61314908715097e-10
5.59186558237872e-12
-2.56768437475599e-10
5.5859176854277e-12
-2.52223251915595e-10
5.58090018212587e-12
-2.47679290726149e-10
5.57594220571586e-12
-2.43136675763749e-10
5.57085614862264e-12
-2.38595215155529e-10
5.5658231302677e-12
-2.34054479082452e-10
5.56121141841595e-12
-2.29514433247805e-10
5.55660011188671e-12
-2.2497448252631e-10
5.55257558471463e-12
-2.2043383835442e-10
5.54937233225501e-12
-2.15892906299231e-10
5.54555926909492e-12
-2.11351576813289e-10
5.54181969841899e-12
-2.06808378559272e-10
5.53948411133088e-12
-2.02261706004147e-10
5.53896549157363e-12
-1.97712229641918e-10
5.53753689043837e-12
-1.93159334835293e-10
5.53649828459926e-12
-1.88600301173197e-10
5.53836126228469e-12
-1.84034559229321e-10
5.54065068753571e-12
-1.79462287681049e-10
5.54261922016015e-12
-1.74880986964547e-10
5.54669916399832e-12
-1.70286523814356e-10
5.55550226229572e-12
-1.65680460685543e-10
5.56206920086919e-12
-1.61060981496537e-10
5.56995874898003e-12
-1.56420643160125e-10
5.58600725755652e-12
-1.51758149660745e-10
5.60298901848113e-12
-1.47074724534223e-10
5.618174596112e-12
-1.42363595506866e-10
5.63923266953709e-12
-1.37613117761032e-10
5.67381755802534e-12
-1.3282811838687e-10
5.70202217840729e-12
-1.2800555585285e-10
5.73185215203447e-12
-1.23126850077124e-10
5.78165711632457e-12
-1.18188302540571e-10
5.83466060530238e-12
-1.13194727630892e-10
5.88172589565476e-12
-1.08129770014715e-10
5.94317265074191e-12
-1.02964869016835e-10
6.03722949194673e-12
-9.77143596561991e-11
6.11330640463056e-12
-9.23712112947469e-11
6.19292723245194e-12
-8.68853696745696e-11
6.32545311935833e-12
-8.12373388011587e-11
6.47416478089672e-12
-7.54248703801792e-11
6.62056656149002e-12
-6.93552968008326e-11
6.8477865047801e-12
-6.28823714311396e-11
7.24071946692785e-12
-5.60586631034714e-11
7.56704216409648e-12
-4.8876016176097e-11
7.904383418377e-12
-4.12663721517777e-11
8.3223999553974e-12
-3.33711756199448e-11
8.59725123160745e-12
-2.52864015312029e-11
8.76615582057533e-12
-1.70462471353803e-11
8.93437391569007e-12
-8.74205434683042e-12
8.97338008596524e-12
-4.72244228973051e-13
8.9787120743512e-12
7.69090819134095e-12
8.83045110092261e-12
1.55726377106619e-11
8.65006764979324e-12
2.31539712417455e-11
8.24158660827404e-12
3.0318326006404e-11
8.05220751286226e-12
3.69574602794077e-11
7.277931592904e-12
4.28830171575532e-11
7.01501282089825e-12
4.82806430625547e-11
6.00256786509192e-12
5.24144248706955e-11
5.66843090785957e-12
5.25188869672639e-11
1.74557840284438e-13
5.20464617587554e-11
4.06598671873241e-13
5.13534842525165e-11
-2.06929177072846e-13
5.03783970440057e-11
-1.93598440901831e-13
4.92732773421047e-11
-4.69696224584981e-13
4.80529592229105e-11
-4.73438136130155e-13
4.67657274018833e-11
-5.92594258625762e-13
4.54282518129468e-11
-6.02474935655017e-13
4.40791750352738e-11
-6.34831089102714e-13