/*--------------------------------*- C++ -*----------------------------------*\
| =========                 |                                                 |
| \\      /  F ield         | OpenFOAM: The Open Source CFD Toolbox           |
|  \\    /   O peration     | Version:  4.1                                   |
|   \\  /    A nd           | Web:      www.OpenFOAM.org                      |
|    \\/     M anipulation  |                                                 |
\*---------------------------------------------------------------------------*/
FoamFile
{
    version     2.0;
    format      ascii;
    class       volVectorField;
    location    "0.0051";
    object      cellDisplacement;
}
// * * * * * * * * * * * * * * * * * * * * * * * * * * * * * * * * * * * * * //

dimensions      [0 1 0 0 0 0 0];

internalField   nonuniform List<vector> 
1536
(
(-4.3035e-06 -6.115e-07 1.5604e-10)
(-1.2433e-05 -1.384e-06 3.6588e-10)
(-1.9386e-05 -1.1694e-06 3.6913e-10)
(-2.5061e-05 -2.3591e-07 2.1365e-10)
(-2.9852e-05 6.318e-07 5.4693e-11)
(-3.4218e-05 8.8629e-07 3.2509e-11)
(-3.8394e-05 5.3793e-07 1.6431e-10)
(-4.2427e-05 -1.3999e-07 4.0144e-10)
(-4.6298e-05 -9.3678e-07 6.9522e-10)
(-4.9976e-05 -1.7719e-06 1.0097e-09)
(-5.3427e-05 -2.6463e-06 1.3388e-09)
(-5.6623e-05 -3.6014e-06 1.6989e-09)
(-4.2221e-06 -4.9728e-07 8.3251e-08)
(-1.223e-05 -1.128e-06 1.887e-07)
(-1.9157e-05 -9.6143e-07 1.6049e-07)
(-2.4886e-05 -2.0896e-07 3.4241e-08)
(-2.9751e-05 5.0341e-07 -8.4835e-08)
(-3.4164e-05 7.2391e-07 -1.2117e-07)
(-3.8355e-05 4.3966e-07 -7.3097e-08)
(-4.2389e-05 -1.3734e-07 2.3698e-08)
(-4.6256e-05 -8.3003e-07 1.3976e-07)
(-4.9928e-05 -1.5646e-06 2.629e-07)
(-5.3374e-05 -2.3381e-06 3.9262e-07)
(-5.6565e-05 -3.1844e-06 5.3457e-07)
(-4.1684e-06 -3.9993e-07 1.6083e-07)
(-1.2096e-05 -9.0871e-07 3.6523e-07)
(-1.9003e-05 -7.7918e-07 3.1297e-07)
(-2.4766e-05 -1.7752e-07 7.1097e-08)
(-2.9679e-05 3.984e-07 -1.5948e-07)
(-3.4123e-05 5.82e-07 -2.3195e-07)
(-3.8328e-05 3.5237e-07 -1.3935e-07)
(-4.2363e-05 -1.2573e-07 5.1873e-08)
(-4.6227e-05 -7.0776e-07 2.8446e-07)
(-4.9895e-05 -1.3301e-06 5.3341e-07)
(-5.3336e-05 -1.9882e-06 7.9688e-07)
(-5.6524e-05 -2.709e-06 1.0856e-06)
(-4.1419e-06 -3.1505e-07 2.37e-07)
(-1.2029e-05 -7.1654e-07 5.3895e-07)
(-1.8927e-05 -6.1632e-07 4.6357e-07)
(-2.4706e-05 -1.4382e-07 1.0833e-07)
(-2.9642e-05 3.1023e-07 -2.3243e-07)
(-3.4103e-05 4.5631e-07 -3.4138e-07)
(-3.8313e-05 2.7498e-07 -2.0492e-07)
(-4.2349e-05 -1.0625e-07 8.0931e-08)
(-4.6212e-05 -5.7351e-07 4.3118e-07)
(-4.9878e-05 -1.0755e-06 8.076e-07)
(-5.3317e-05 -1.6075e-06 1.2068e-06)
(-5.6504e-05 -2.1907e-06 1.6445e-06)
(-4.1419e-06 -2.3697e-07 3.1508e-07)
(-1.2029e-05 -5.3884e-07 7.1662e-07)
(-1.8927e-05 -4.634e-07 6.1645e-07)
(-2.4705e-05 -1.081e-07 1.4401e-07)
(-2.9642e-05 2.3271e-07 -3.0999e-07)
(-3.4103e-05 3.4171e-07 -4.5602e-07)
(-3.8313e-05 2.0531e-07 -2.7465e-07)
(-4.2349e-05 -8.0488e-08 1.0664e-07)
(-4.6212e-05 -4.3067e-07 5.7395e-07)
(-4.9878e-05 -8.0702e-07 1.076e-06)
(-5.3317e-05 -1.2061e-06 1.6081e-06)
(-5.6504e-05 -1.6437e-06 2.1915e-06)
(-4.1684e-06 -1.6079e-07 3.9995e-07)
(-1.2096e-05 -3.6511e-07 9.0877e-07)
(-1.9003e-05 -3.1278e-07 7.7928e-07)
(-2.4766e-05 -7.084e-08 1.7766e-07)
(-2.9679e-05 1.5979e-07 -3.9821e-07)
(-3.4123e-05 2.3232e-07 -5.8177e-07)
(-3.8328e-05 1.3978e-07 -3.5211e-07)
(-4.2363e-05 -5.1384e-08 1.2604e-07)
(-4.6227e-05 -2.839e-07 7.0812e-07)
(-4.9895e-05 -5.3278e-07 1.3305e-06)
(-5.3336e-05 -7.9616e-07 1.9887e-06)
(-5.6525e-05 -1.0848e-06 2.7096e-06)
(-4.2221e-06 -8.3206e-08 4.9729e-07)
(-1.223e-05 -1.8857e-07 1.128e-06)
(-1.9157e-05 -1.6028e-07 9.6149e-07)
(-2.4886e-05 -3.3965e-08 2.0905e-07)
(-2.9751e-05 8.5171e-08 -5.0328e-07)
(-3.4164e-05 1.2157e-07 -7.2375e-07)
(-3.8355e-05 7.3549e-08 -4.3947e-07)
(-4.2389e-05 -2.3184e-08 1.3755e-07)
(-4.6256e-05 -1.3918e-07 8.3028e-07)
(-4.9928e-05 -2.6225e-07 1.5649e-06)
(-5.3374e-05 -3.9188e-07 2.3385e-06)
(-5.6565e-05 -5.3374e-07 3.1849e-06)
(-4.3035e-06 -1.1218e-10 6.1149e-07)
(-1.2433e-05 -2.3674e-10 1.3839e-06)
(-1.9386e-05 -1.6135e-10 1.1694e-06)
(-2.5061e-05 6.4067e-11 2.3594e-07)
(-2.9852e-05 2.856e-10 -6.3174e-07)
(-3.4218e-05 3.6615e-10 -8.8621e-07)
(-3.8394e-05 2.9175e-10 -5.3784e-07)
(-4.2427e-05 1.1308e-10 1.401e-07)
(-4.6298e-05 -1.2024e-10 9.3693e-07)
(-4.9976e-05 -3.7021e-10 1.7721e-06)
(-5.3427e-05 -6.2712e-10 2.6466e-06)
(-5.6623e-05 -9.0523e-10 3.6019e-06)
(-4.2222e-06 -4.9731e-07 -8.3014e-08)
(-1.223e-05 -1.128e-06 -1.8813e-07)
(-1.9157e-05 -9.615e-07 -1.5989e-07)
(-2.4887e-05 -2.0898e-07 -3.3851e-08)
(-2.9752e-05 5.0342e-07 8.5011e-08)
(-3.4164e-05 7.2392e-07 1.2133e-07)
(-3.8355e-05 4.3965e-07 7.3478e-08)
(-4.2389e-05 -1.3734e-07 -2.2916e-08)
(-4.6256e-05 -8.3001e-07 -1.3848e-07)
(-4.9928e-05 -1.5646e-06 -2.6107e-07)
(-5.3374e-05 -2.338e-06 -3.9021e-07)
(-5.6565e-05 -3.1842e-06 -5.3153e-07)
(-4.139e-06 -3.9189e-07 2.8966e-10)
(-1.2023e-05 -8.9149e-07 6.7121e-10)
(-1.892e-05 -7.6769e-07 6.358e-10)
(-2.4701e-05 -1.8077e-07 2.8218e-10)
(-2.964e-05 3.8553e-07 -7.4278e-11)
(-3.4101e-05 5.6995e-07 -1.6602e-10)
(-3.8312e-05 3.4484e-07 4.6389e-11)
(-4.2348e-05 -1.3203e-07 4.6745e-10)
(-4.6211e-05 -7.1735e-07 9.9707e-10)
(-4.9876e-05 -1.346e-06 1.5769e-09)
(-5.3316e-05 -2.0122e-06 2.1957e-09)
(-5.6502e-05 -2.7423e-06 2.8727e-09)
(-4.0851e-06 -3.0279e-07 7.6309e-08)
(-1.1887e-05 -6.9017e-07 1.7388e-07)
(-1.8763e-05 -5.9838e-07 1.5069e-07)
(-2.4576e-05 -1.4802e-07 3.7243e-08)
(-2.9562e-05 2.9179e-07 -7.3162e-08)
(-3.4057e-05 4.3927e-07 -1.0975e-07)
(-3.8281e-05 2.643e-07 -6.5527e-08)
(-4.2319e-05 -1.1622e-07 2.9955e-08)
(-4.6179e-05 -5.8999e-07 1.4873e-07)
(-4.9841e-05 -1.1032e-06 2.7747e-07)
(-5.3276e-05 -1.6494e-06 4.1459e-07)
(-5.646e-05 -2.2489e-06 5.6511e-07)
(-4.0585e-06 -2.2383e-07 1.4968e-07)
(-1.182e-05 -5.1069e-07 3.4148e-07)
(-1.8685e-05 -4.4425e-07 2.9705e-07)
(-2.4513e-05 -1.125e-07 7.5304e-08)
(-2.9522e-05 2.1312e-07 -1.4205e-07)
(-3.4033e-05 3.2352e-07 -2.154e-07)
(-3.8265e-05 1.9368e-07 -1.2851e-07)
(-4.2305e-05 -9.1814e-08 6.2006e-08)
(-4.6163e-05 -4.4971e-07 3.0076e-07)
(-4.9823e-05 -8.3914e-07 5.6061e-07)
(-5.3256e-05 -1.2546e-06 8.379e-07)
(-5.6438e-05 -1.7109e-06 1.1425e-06)
(-4.0585e-06 -1.4964e-07 2.2386e-07)
(-1.182e-05 -3.4137e-07 5.1078e-07)
(-1.8685e-05 -2.9688e-07 4.4439e-07)
(-2.4513e-05 -7.508e-08 1.1269e-07)
(-2.9522e-05 1.4232e-07 -2.1288e-07)
(-3.4033e-05 2.1572e-07 -3.2324e-07)
(-3.8265e-05 1.2888e-07 -1.9336e-07)
(-4.2305e-05 -6.1573e-08 9.2195e-08)
(-4.6163e-05 -3.0025e-07 4.5016e-07)
(-4.9823e-05 -5.6001e-07 8.3966e-07)
(-5.3256e-05 -8.3721e-07 1.2552e-06)
(-5.6438e-05 -1.1417e-06 1.7116e-06)
(-4.0851e-06 -7.6264e-08 3.0281e-07)
(-1.1887e-05 -1.7375e-07 6.9022e-07)
(-1.8763e-05 -1.5049e-07 5.9848e-07)
(-2.4576e-05 -3.6995e-08 1.4817e-07)
(-2.9562e-05 7.3455e-08 -2.9159e-07)
(-3.4057e-05 1.1009e-07 -4.3904e-07)
(-3.8281e-05 6.5926e-08 -2.6403e-07)
(-4.2319e-05 -2.9487e-08 1.1654e-07)
(-4.6179e-05 -1.4818e-07 5.9036e-07)
(-4.9841e-05 -2.7684e-07 1.1036e-06)
(-5.3276e-05 -4.1385e-07 1.65e-06)
(-5.646e-05 -5.6425e-07 2.2495e-06)
(-4.139e-06 -2.4203e-10 3.9189e-07)
(-1.2023e-05 -5.357e-10 8.9151e-07)
(-1.892e-05 -4.2941e-10 7.6775e-07)
(-2.4701e-05 -2.1608e-11 1.8087e-07)
(-2.964e-05 3.8116e-10 -3.8539e-07)
(-3.4101e-05 5.2194e-10 -5.6977e-07)
(-3.8312e-05 3.6773e-10 -3.4463e-07)
(-4.2348e-05 1.5264e-11 1.3227e-07)
(-4.6211e-05 -4.3644e-10 7.1762e-07)
(-4.9877e-05 -9.2868e-10 1.3463e-06)
(-5.3316e-05 -1.4477e-09 2.0126e-06)
(-5.6503e-05 -2.0109e-09 2.7428e-06)
(-4.2222e-06 8.3058e-08 4.9731e-07)
(-1.223e-05 1.8826e-07 1.128e-06)
(-1.9157e-05 1.6009e-07 9.6151e-07)
(-2.4887e-05 3.4108e-08 2.0903e-07)
(-2.9752e-05 -8.4703e-08 -5.0332e-07)
(-3.4164e-05 -1.2097e-07 -7.238e-07)
(-3.8355e-05 -7.3067e-08 -4.3951e-07)
(-4.2389e-05 2.339e-08 1.375e-07)
(-4.6256e-05 1.3902e-07 8.3019e-07)
(-4.9928e-05 2.6169e-07 1.5648e-06)
(-5.3374e-05 3.9091e-07 2.3383e-06)
(-5.6565e-05 5.3233e-07 3.1846e-06)
(-4.1686e-06 -4.0008e-07 -1.6094e-07)
(-1.2096e-05 -9.0905e-07 -3.6546e-07)
(-1.9004e-05 -7.7946e-07 -3.1306e-07)
(-2.4767e-05 -1.7758e-07 -7.0872e-08)
(-2.968e-05 3.9852e-07 1.6e-07)
(-3.4124e-05 5.8217e-07 2.3262e-07)
(-3.8328e-05 3.5247e-07 1.4003e-07)
(-4.2363e-05 -1.2575e-07 -5.1217e-08)
(-4.6227e-05 -7.0788e-07 -2.8383e-07)
(-4.9895e-05 -1.3303e-06 -5.3279e-07)
(-5.3336e-05 -1.9885e-06 -7.9628e-07)
(-5.6525e-05 -2.7094e-06 -1.085e-06)
(-4.0853e-06 -3.0284e-07 -7.6108e-08)
(-1.1887e-05 -6.9028e-07 -1.7339e-07)
(-1.8763e-05 -5.9846e-07 -1.5015e-07)
(-2.4576e-05 -1.4802e-07 -3.6852e-08)
(-2.9562e-05 2.9185e-07 7.3389e-08)
(-3.4057e-05 4.3933e-07 1.0997e-07)
(-3.8281e-05 2.6434e-07 6.595e-08)
(-4.232e-05 -1.1618e-07 -2.9152e-08)
(-4.6179e-05 -5.8991e-07 -1.4743e-07)
(-4.9841e-05 -1.1031e-06 -2.7563e-07)
(-5.3276e-05 -1.6492e-06 -4.1216e-07)
(-5.646e-05 -2.2486e-06 -5.6203e-07)
(-4.031e-06 -2.1979e-07 2.0902e-10)
(-1.1751e-05 -5.0206e-07 4.9247e-10)
(-1.8604e-05 -4.3852e-07 4.8271e-10)
(-2.4447e-05 -1.1415e-07 2.4831e-10)
(-2.948e-05 2.0678e-07 1.1159e-11)
(-3.4009e-05 3.1766e-07 -4.3717e-11)
(-3.8248e-05 1.8975e-07 1.2117e-10)
(-4.2289e-05 -9.6087e-08 4.4429e-10)
(-4.6147e-05 -4.5716e-07 8.5339e-10)
(-4.9804e-05 -8.5169e-07 1.3056e-09)
(-5.3235e-05 -1.2735e-06 1.7908e-09)
(-5.6415e-05 -1.737e-06 2.3204e-09)
(-4.0042e-06 -1.4493e-07 7.2887e-08)
(-1.1683e-05 -3.3142e-07 1.6668e-07)
(-1.8524e-05 -2.9054e-07 1.4616e-07)
(-2.4382e-05 -7.7477e-08 3.9092e-08)
(-2.9438e-05 1.3459e-07 -6.7385e-08)
(-3.3983e-05 2.0879e-07 -1.0451e-07)
(-3.8231e-05 1.2406e-07 -6.1847e-08)
(-4.2273e-05 -6.7628e-08 3.445e-08)
(-4.613e-05 -3.1148e-07 1.5693e-07)
(-4.9785e-05 -5.791e-07 2.9137e-07)
(-5.3214e-05 -8.6587e-07 4.3545e-07)
(-5.6392e-05 -1.1812e-06 5.9392e-07)
(-4.0042e-06 -7.2842e-08 1.4496e-07)
(-1.1683e-05 -1.6655e-07 3.3152e-07)
(-1.8524e-05 -1.4597e-07 2.9069e-07)
(-2.4382e-05 -3.8863e-08 7.7677e-08)
(-2.9438e-05 6.765e-08 -1.3435e-07)
(-3.3983e-05 1.0482e-07 -2.0851e-07)
(-3.8231e-05 6.2211e-08 -1.2373e-07)
(-4.2273e-05 -3.4014e-08 6.8022e-08)
(-4.613e-05 -1.564e-07 3.1195e-07)
(-4.9785e-05 -2.9074e-07 5.7966e-07)
(-5.3214e-05 -4.3471e-07 8.6654e-07)
(-5.6392e-05 -5.9305e-07 1.182e-06)
(-4.031e-06 -1.5501e-10 2.1981e-07)
(-1.175e-05 -3.4376e-10 5.0213e-07)
(-1.8604e-05 -2.693e-10 4.3863e-07)
(-2.4447e-05 2.9574e-12 1.1431e-07)
(-2.948e-05 2.6955e-10 -2.0657e-07)
(-3.4009e-05 3.6491e-10 -3.1741e-07)
(-3.8248e-05 2.6096e-10 -1.8946e-07)
(-4.2289e-05 1.8788e-11 9.6425e-08)
(-4.6147e-05 -2.9324e-10 4.5755e-07)
(-4.9804e-05 -6.3388e-10 8.5216e-07)
(-5.3235e-05 -9.915e-10 1.274e-06)
(-5.6415e-05 -1.3758e-09 1.7376e-06)
(-4.0852e-06 7.6167e-08 3.0284e-07)
(-1.1887e-05 1.7355e-07 6.9029e-07)
(-1.8763e-05 1.5038e-07 5.9851e-07)
(-2.4576e-05 3.7114e-08 1.4813e-07)
(-2.9562e-05 -7.3102e-08 -2.9167e-07)
(-3.4057e-05 -1.0965e-07 -4.3911e-07)
(-3.8281e-05 -6.5563e-08 -2.6409e-07)
(-4.232e-05 2.9623e-08 1.1645e-07)
(-4.6179e-05 1.4801e-07 5.902e-07)
(-4.9841e-05 2.7632e-07 1.1034e-06)
(-5.3276e-05 4.1298e-07 1.6496e-06)
(-5.646e-05 5.63e-07 2.249e-06)
(-4.1686e-06 1.6099e-07 4.0006e-07)
(-1.2096e-05 3.656e-07 9.0903e-07)
(-1.9004e-05 3.1327e-07 7.7948e-07)
(-2.4767e-05 7.1125e-08 1.7766e-07)
(-2.968e-05 -1.5971e-07 -3.9838e-07)
(-3.4124e-05 -2.3228e-07 -5.8199e-07)
(-3.8328e-05 -1.3965e-07 -3.5227e-07)
(-4.2363e-05 5.1671e-08 1.2595e-07)
(-4.6227e-05 2.8436e-07 7.0809e-07)
(-4.9895e-05 5.3342e-07 1.3306e-06)
(-5.3336e-05 7.9701e-07 1.9888e-06)
(-5.6525e-05 1.0859e-06 2.7098e-06)
(-4.142e-06 -3.151e-07 -2.3704e-07)
(-1.2029e-05 -7.1665e-07 -5.3899e-07)
(-1.8927e-05 -6.1641e-07 -4.6351e-07)
(-2.4706e-05 -1.4386e-07 -1.0808e-07)
(-2.9642e-05 3.1024e-07 2.3287e-07)
(-3.4103e-05 4.5633e-07 3.4193e-07)
(-3.8313e-05 2.7498e-07 2.0553e-07)
(-4.2349e-05 -1.0626e-07 -8.0271e-08)
(-4.6212e-05 -5.7351e-07 -4.3045e-07)
(-4.9878e-05 -1.0754e-06 -8.0681e-07)
(-5.3317e-05 -1.6075e-06 -1.2059e-06)
(-5.6504e-05 -2.1907e-06 -1.6435e-06)
(-4.0586e-06 -2.2373e-07 -1.4968e-07)
(-1.182e-05 -5.1047e-07 -3.4147e-07)
(-1.8685e-05 -4.4405e-07 -2.9694e-07)
(-2.4513e-05 -1.1246e-07 -7.5032e-08)
(-2.9522e-05 2.1301e-07 1.4247e-07)
(-3.4033e-05 3.2335e-07 2.1592e-07)
(-3.8265e-05 1.9358e-07 1.2911e-07)
(-4.2305e-05 -9.1755e-08 -6.1319e-08)
(-4.6163e-05 -4.4943e-07 -2.9996e-07)
(-4.9823e-05 -8.386e-07 -5.5968e-07)
(-5.3256e-05 -1.2538e-06 -8.3684e-07)
(-5.6438e-05 -1.7098e-06 -1.1413e-06)
(-4.0042e-06 -1.4488e-07 -7.2734e-08)
(-1.1683e-05 -3.3132e-07 -1.663e-07)
(-1.8524e-05 -2.9045e-07 -1.4572e-07)
(-2.4382e-05 -7.7453e-08 -3.8736e-08)
(-2.9438e-05 1.3454e-07 6.7657e-08)
(-3.3983e-05 2.0872e-07 1.0481e-07)
(-3.8231e-05 1.2401e-07 6.2317e-08)
(-4.2273e-05 -6.7596e-08 -3.3688e-08)
(-4.613e-05 -3.1134e-07 -1.558e-07)
(-4.9785e-05 -5.7884e-07 -2.8983e-07)
(-5.3214e-05 -8.6548e-07 -4.3348e-07)
(-5.6392e-05 -1.1807e-06 -5.9148e-07)
(-3.9771e-06 -7.1952e-08 5.5727e-11)
(-1.1614e-05 -1.6473e-07 1.4247e-10)
(-1.8443e-05 -1.4495e-07 1.7556e-10)
(-2.4315e-05 -3.96e-08 1.6651e-10)
(-2.9394e-05 6.5975e-08 1.555e-10)
(-3.3957e-05 1.0344e-07 1.8024e-10)
(-3.8213e-05 6.1168e-08 2.5373e-10)
(-4.2257e-05 -3.5748e-08 3.6812e-10)
(-4.6112e-05 -1.5992e-07 5.0896e-10)
(-4.9766e-05 -2.9678e-07 6.6486e-10)
(-5.3193e-05 -4.4375e-07 8.3118e-10)
(-5.6369e-05 -6.055e-07 1.0088e-09)
(-3.9771e-06 -2.3313e-12 7.1999e-08)
(-1.1614e-05 3.9549e-12 1.6486e-07)
(-1.8443e-05 3.2909e-11 1.4514e-07)
(-2.4315e-05 7.6601e-11 3.9819e-08)
(-2.9394e-05 1.1416e-10 -6.5728e-08)
(-3.3957e-05 1.281e-10 -1.0316e-07)
(-3.8213e-05 1.1494e-10 -6.0825e-08)
(-4.2257e-05 8.2044e-11 3.6169e-08)
(-4.6112e-05 3.9974e-11 1.6044e-07)
(-4.9766e-05 -1.652e-12 2.9741e-07)
(-5.3193e-05 -3.7003e-11 4.4451e-07)
(-5.6369e-05 -6.5144e-11 6.0641e-07)
(-4.0042e-06 7.2805e-08 1.4492e-07)
(-1.1683e-05 1.6649e-07 3.3142e-07)
(-1.8524e-05 1.4597e-07 2.906e-07)
(-2.4382e-05 3.9002e-08 7.7643e-08)
(-2.9438e-05 -6.7383e-08 -1.3432e-07)
(-3.3983e-05 -1.0451e-07 -2.0845e-07)
(-3.8231e-05 -6.1945e-08 -1.237e-07)
(-4.2273e-05 3.4162e-08 6.7976e-08)
(-4.613e-05 1.564e-07 3.1181e-07)
(-4.9785e-05 2.9057e-07 5.7941e-07)
(-5.3214e-05 4.3438e-07 8.6617e-07)
(-5.6392e-05 5.9256e-07 1.1815e-06)
(-4.0585e-06 1.4977e-07 2.2371e-07)
(-1.182e-05 3.417e-07 5.1044e-07)
(-1.8685e-05 2.9723e-07 4.4408e-07)
(-2.4513e-05 7.5316e-08 1.1259e-07)
(-2.9522e-05 -1.4221e-07 -2.1277e-07)
(-3.4033e-05 -2.1564e-07 -3.2306e-07)
(-3.8265e-05 -1.2875e-07 -1.9327e-07)
(-4.2305e-05 6.1803e-08 9.2066e-08)
(-4.6163e-05 3.006e-07 4.4974e-07)
(-4.9823e-05 5.605e-07 8.3892e-07)
(-5.3256e-05 8.3785e-07 1.2541e-06)
(-5.6438e-05 1.1425e-06 1.7101e-06)
(-4.1419e-06 2.3709e-07 3.1507e-07)
(-1.2029e-05 5.3915e-07 7.166e-07)
(-1.8927e-05 4.6373e-07 6.1641e-07)
(-2.4706e-05 1.0834e-07 1.4396e-07)
(-2.9642e-05 -2.3257e-07 -3.1003e-07)
(-3.4103e-05 -3.416e-07 -4.5606e-07)
(-3.8313e-05 -2.0515e-07 -2.7471e-07)
(-4.2349e-05 8.0725e-08 1.0652e-07)
(-4.6212e-05 4.31e-07 5.7375e-07)
(-4.9878e-05 8.0746e-07 1.0757e-06)
(-5.3317e-05 1.2067e-06 1.6077e-06)
(-5.6504e-05 1.6444e-06 2.1909e-06)
(-4.142e-06 -2.3705e-07 -3.1508e-07)
(-1.2029e-05 -5.3904e-07 -7.166e-07)
(-1.8927e-05 -4.6357e-07 -6.1632e-07)
(-2.4706e-05 -1.0816e-07 -1.4374e-07)
(-2.9642e-05 2.3275e-07 3.104e-07)
(-3.4103e-05 3.4178e-07 4.5653e-07)
(-3.8313e-05 2.0534e-07 2.7523e-07)
(-4.2349e-05 -8.0513e-08 -1.0596e-07)
(-4.6212e-05 -4.3075e-07 -5.7317e-07)
(-4.9878e-05 -8.0715e-07 -1.075e-06)
(-5.3317e-05 -1.2063e-06 -1.6071e-06)
(-5.6504e-05 -1.6439e-06 -2.1903e-06)
(-4.0586e-06 -1.497e-07 -2.2371e-07)
(-1.182e-05 -3.4151e-07 -5.1042e-07)
(-1.8685e-05 -2.97e-07 -4.4397e-07)
(-2.4513e-05 -7.5118e-08 -1.1234e-07)
(-2.9522e-05 1.4236e-07 2.1316e-07)
(-3.4033e-05 2.1578e-07 3.2354e-07)
(-3.8265e-05 1.2892e-07 1.9382e-07)
(-4.2305e-05 -6.1574e-08 -9.1456e-08)
(-4.6163e-05 -3.0028e-07 -4.4908e-07)
(-4.9823e-05 -5.6007e-07 -8.382e-07)
(-5.3256e-05 -8.3728e-07 -1.2533e-06)
(-5.6438e-05 -1.1418e-06 -1.7093e-06)
(-4.0042e-06 -7.2755e-08 -1.4486e-07)
(-1.1683e-05 -1.6636e-07 -3.3126e-07)
(-1.8524e-05 -1.4579e-07 -2.9036e-07)
(-2.4382e-05 -3.8816e-08 -7.7352e-08)
(-2.9438e-05 6.7563e-08 1.3467e-07)
(-3.3983e-05 1.0468e-07 2.0888e-07)
(-3.8231e-05 6.2133e-08 1.2424e-07)
(-4.2273e-05 -3.395e-08 -6.7302e-08)
(-4.613e-05 -1.5615e-07 -3.1097e-07)
(-4.9785e-05 -2.9027e-07 -5.7841e-07)
(-5.3214e-05 -4.34e-07 -8.6499e-07)
(-5.6392e-05 -5.9207e-07 -1.1802e-06)
(-3.9771e-06 3.077e-11 -7.1926e-08)
(-1.1614e-05 7.9863e-11 -1.6466e-07)
(-1.8443e-05 1.0049e-10 -1.4487e-07)
(-2.4315e-05 9.585e-11 -3.9511e-08)
(-2.9394e-05 8.2997e-11 6.6074e-08)
(-3.3957e-05 7.8272e-11 1.0358e-07)
(-3.8213e-05 8.7801e-11 6.1364e-08)
(-4.2257e-05 1.1009e-10 -3.5464e-08)
(-4.6112e-05 1.4265e-10 -1.5954e-07)
(-4.9766e-05 1.8604e-10 -2.963e-07)
(-5.3193e-05 2.4347e-10 -4.4318e-07)
(-5.6369e-05 3.1826e-10 -6.0483e-07)
(-3.9771e-06 7.198e-08 3.7367e-11)
(-1.1614e-05 1.6481e-07 1.0011e-10)
(-1.8443e-05 1.4508e-07 1.372e-10)
(-2.4315e-05 3.9768e-08 1.5459e-10)
(-2.9394e-05 -6.5783e-08 1.723e-10)
(-3.3957e-05 -1.0324e-07 2.0879e-10)
(-3.8213e-05 -6.0973e-08 2.6993e-10)
(-4.2257e-05 3.5931e-08 3.5155e-10)
(-4.6112e-05 1.6009e-07 4.4637e-10)
(-4.9766e-05 2.9695e-07 5.4835e-10)
(-5.3193e-05 4.4395e-07 6.5471e-10)
(-5.6369e-05 6.0574e-07 7.6536e-10)
(-4.0042e-06 1.4495e-07 7.2849e-08)
(-1.1683e-05 3.3149e-07 1.6659e-07)
(-1.8524e-05 2.9065e-07 1.4607e-07)
(-2.4382e-05 7.764e-08 3.9062e-08)
(-2.9438e-05 -1.344e-07 -6.7359e-08)
(-3.3983e-05 -2.0859e-07 -1.0446e-07)
(-3.8231e-05 -1.2386e-07 -6.1826e-08)
(-4.2273e-05 6.7792e-08 3.4404e-08)
(-4.613e-05 3.1161e-07 1.5679e-07)
(-4.9785e-05 5.792e-07 2.9112e-07)
(-5.3214e-05 8.6596e-07 4.3509e-07)
(-5.6392e-05 1.1813e-06 5.9343e-07)
(-4.0585e-06 2.2389e-07 1.4962e-07)
(-1.182e-05 5.1086e-07 3.4135e-07)
(-1.8685e-05 4.4446e-07 2.9693e-07)
(-2.4513e-05 1.1269e-07 7.5253e-08)
(-2.9522e-05 -2.1296e-07 -1.4202e-07)
(-3.4033e-05 -3.2338e-07 -2.1535e-07)
(-3.8265e-05 -1.9353e-07 -1.2849e-07)
(-4.2305e-05 9.199e-08 6.1921e-08)
(-4.6163e-05 4.4992e-07 3.0053e-07)
(-4.9823e-05 8.3939e-07 5.6023e-07)
(-5.3256e-05 1.2549e-06 8.3736e-07)
(-5.6438e-05 1.7113e-06 1.1418e-06)
(-4.1419e-06 3.1512e-07 2.3698e-07)
(-1.2029e-05 7.1673e-07 5.3889e-07)
(-1.8927e-05 6.1654e-07 4.6351e-07)
(-2.4706e-05 1.4402e-07 1.0828e-07)
(-2.9642e-05 -3.1008e-07 -2.3246e-07)
(-3.4103e-05 -4.5617e-07 -3.414e-07)
(-3.8313e-05 -2.7483e-07 -2.0497e-07)
(-4.2349e-05 1.0643e-07 8.0827e-08)
(-4.6212e-05 5.7372e-07 4.3099e-07)
(-4.9878e-05 1.0757e-06 8.0732e-07)
(-5.3317e-05 1.6079e-06 1.2064e-06)
(-5.6504e-05 2.1912e-06 1.644e-06)
(-4.1686e-06 -1.6096e-07 -4.0005e-07)
(-1.2096e-05 -3.6549e-07 -9.0898e-07)
(-1.9004e-05 -3.1311e-07 -7.7935e-07)
(-2.4767e-05 -7.0931e-08 -1.7742e-07)
(-2.968e-05 1.5992e-07 3.9873e-07)
(-3.4124e-05 2.3251e-07 5.8243e-07)
(-3.8328e-05 1.3989e-07 3.5279e-07)
(-4.2363e-05 -5.1417e-08 -1.2539e-07)
(-4.6227e-05 -2.8409e-07 -7.0748e-07)
(-4.9895e-05 -5.3311e-07 -1.3299e-06)
(-5.3336e-05 -7.9664e-07 -1.9881e-06)
(-5.6525e-05 -1.0854e-06 -2.709e-06)
(-4.0853e-06 -7.6123e-08 -3.0282e-07)
(-1.1887e-05 -1.7343e-07 -6.9023e-07)
(-1.8764e-05 -1.5021e-07 -5.9836e-07)
(-2.4576e-05 -3.6915e-08 -1.4787e-07)
(-2.9562e-05 7.3314e-08 2.9204e-07)
(-3.4057e-05 1.0987e-07 4.3957e-07)
(-3.8281e-05 6.5795e-08 2.6464e-07)
(-4.232e-05 -2.9374e-08 -1.1583e-07)
(-4.6179e-05 -1.4773e-07 -5.8952e-07)
(-4.9841e-05 -2.7601e-07 -1.1026e-06)
(-5.3276e-05 -4.126e-07 -1.6488e-06)
(-5.646e-05 -5.6254e-07 -2.2482e-06)
(-4.031e-06 1.8576e-10 -2.1977e-07)
(-1.1751e-05 4.345e-10 -5.0202e-07)
(-1.8604e-05 4.1426e-10 -4.3844e-07)
(-2.4447e-05 1.8578e-10 -1.1403e-07)
(-2.948e-05 -5.1359e-11 2.0694e-07)
(-3.4009e-05 -1.3301e-10 3.1787e-07)
(-3.8248e-05 -2.8548e-11 1.9002e-07)
(-4.2289e-05 2.0659e-10 -9.5759e-08)
(-4.6147e-05 5.1155e-10 -4.5677e-07)
(-4.9804e-05 8.5485e-10 -8.5126e-07)
(-5.3235e-05 1.2338e-09 -1.273e-06)
(-5.6415e-05 1.6623e-09 -1.7365e-06)
(-4.0042e-06 7.2851e-08 -1.4491e-07)
(-1.1683e-05 1.6659e-07 -3.3137e-07)
(-1.8524e-05 1.4607e-07 -2.9045e-07)
(-2.4382e-05 3.9031e-08 -7.7373e-08)
(-2.9438e-05 -6.7424e-08 1.3472e-07)
(-3.3983e-05 -1.0457e-07 2.0896e-07)
(-3.8231e-05 -6.1978e-08 1.2429e-07)
(-4.2273e-05 3.4203e-08 -6.7318e-08)
(-4.613e-05 1.5654e-07 -3.1108e-07)
(-4.9785e-05 2.9083e-07 -5.7863e-07)
(-5.3214e-05 4.3476e-07 -8.6532e-07)
(-5.6392e-05 5.9308e-07 -1.1806e-06)
(-4.0042e-06 1.4492e-07 -7.277e-08)
(-1.1683e-05 3.3141e-07 -1.6638e-07)
(-1.8524e-05 2.9059e-07 -1.4579e-07)
(-2.4382e-05 7.7623e-08 -3.8753e-08)
(-2.9438e-05 -1.3436e-07 6.7699e-08)
(-3.3983e-05 -2.0853e-07 1.0488e-07)
(-3.8231e-05 -1.2383e-07 6.2363e-08)
(-4.2273e-05 6.7781e-08 -3.3705e-08)
(-4.613e-05 3.1154e-07 -1.559e-07)
(-4.9785e-05 5.7907e-07 -2.9004e-07)
(-5.3214e-05 8.6576e-07 -4.3381e-07)
(-5.6392e-05 1.1811e-06 -5.9194e-07)
(-4.031e-06 2.1981e-07 1.7728e-10)
(-1.175e-05 5.0214e-07 4.1932e-10)
(-1.8604e-05 4.3864e-07 4.1654e-10)
(-2.4447e-05 1.1431e-07 2.2833e-10)
(-2.948e-05 -2.066e-07 4.2076e-11)
(-3.4009e-05 -3.1748e-07 8.8201e-12)
(-3.8248e-05 -1.8958e-07 1.5198e-10)
(-4.2289e-05 9.6237e-08 4.1517e-10)
(-4.6147e-05 4.5729e-07 7.3858e-10)
(-4.9804e-05 8.5182e-07 1.0893e-09)
(-5.3235e-05 1.2736e-06 1.461e-09)
(-5.6415e-05 1.7372e-06 1.8636e-09)
(-4.0851e-06 3.0283e-07 7.6279e-08)
(-1.1887e-05 6.9028e-07 1.7381e-07)
(-1.8763e-05 5.9852e-07 1.5062e-07)
(-2.4576e-05 1.4818e-07 3.7215e-08)
(-2.9562e-05 -2.9163e-07 -7.3146e-08)
(-3.4057e-05 -4.3912e-07 -1.0972e-07)
(-3.8281e-05 -2.6416e-07 -6.5518e-08)
(-4.2319e-05 1.1636e-07 2.9903e-08)
(-4.6179e-05 5.9012e-07 1.4859e-07)
(-4.9841e-05 1.1034e-06 2.7724e-07)
(-5.3276e-05 1.6496e-06 4.1424e-07)
(-5.646e-05 2.2492e-06 5.6464e-07)
(-4.1684e-06 3.9997e-07 1.6081e-07)
(-1.2096e-05 9.0883e-07 3.6519e-07)
(-1.9003e-05 7.7934e-07 3.1292e-07)
(-2.4766e-05 1.7768e-07 7.1065e-08)
(-2.9679e-05 -3.9825e-07 -1.5949e-07)
(-3.4123e-05 -5.8187e-07 -2.3196e-07)
(-3.8328e-05 -3.5225e-07 -1.3938e-07)
(-4.2363e-05 1.2585e-07 5.1798e-08)
(-4.6227e-05 7.0788e-07 2.8432e-07)
(-4.9895e-05 1.3303e-06 5.332e-07)
(-5.3336e-05 1.9884e-06 7.9659e-07)
(-5.6525e-05 2.7093e-06 1.0852e-06)
(-4.2222e-06 -8.3023e-08 -4.9729e-07)
(-1.223e-05 -1.8816e-07 -1.128e-06)
(-1.9157e-05 -1.5993e-07 -9.6136e-07)
(-2.4887e-05 -3.3892e-08 -2.0879e-07)
(-2.9752e-05 8.4956e-08 5.0368e-07)
(-3.4164e-05 1.2125e-07 7.2425e-07)
(-3.8355e-05 7.3358e-08 4.4003e-07)
(-4.2389e-05 -2.309e-08 -1.3692e-07)
(-4.6256e-05 -1.3871e-07 -8.2956e-07)
(-4.9928e-05 -2.6136e-07 -1.5641e-06)
(-5.3374e-05 -3.9055e-07 -2.3376e-06)
(-5.6565e-05 -5.3192e-07 -3.1839e-06)
(-4.139e-06 2.769e-10 -3.9187e-07)
(-1.2023e-05 6.3877e-10 -8.9143e-07)
(-1.892e-05 5.9498e-10 -7.6759e-07)
(-2.4701e-05 2.3939e-10 -1.8061e-07)
(-2.964e-05 -1.2536e-10 3.8576e-07)
(-3.4101e-05 -2.4431e-10 5.7025e-07)
(-3.8312e-05 -8.2101e-11 3.4519e-07)
(-4.2348e-05 2.6991e-10 -1.3164e-07)
(-4.6211e-05 7.1915e-10 -7.1693e-07)
(-4.9876e-05 1.2159e-09 -1.3456e-06)
(-5.3316e-05 1.7551e-09 -2.0118e-06)
(-5.6502e-05 2.3583e-09 -2.742e-06)
(-4.0851e-06 7.6286e-08 -3.0279e-07)
(-1.1887e-05 1.7382e-07 -6.9015e-07)
(-1.8763e-05 1.5063e-07 -5.9831e-07)
(-2.4576e-05 3.7197e-08 -1.4789e-07)
(-2.9562e-05 -7.3201e-08 2.92e-07)
(-3.4057e-05 -1.0982e-07 4.3954e-07)
(-3.8281e-05 -6.5652e-08 2.6462e-07)
(-4.2319e-05 2.9735e-08 -1.1587e-07)
(-4.6179e-05 1.4839e-07 -5.8961e-07)
(-4.9841e-05 2.7702e-07 -1.1028e-06)
(-5.3276e-05 4.1401e-07 -1.6491e-06)
(-5.646e-05 5.6441e-07 -2.2486e-06)
(-4.0585e-06 1.4963e-07 -2.2385e-07)
(-1.182e-05 3.4136e-07 -5.1074e-07)
(-1.8685e-05 2.9694e-07 -4.4425e-07)
(-2.4513e-05 7.5247e-08 -1.1241e-07)
(-2.9522e-05 -1.4206e-07 2.1331e-07)
(-3.4033e-05 -2.1542e-07 3.2379e-07)
(-3.8265e-05 -1.2861e-07 1.9399e-07)
(-4.2305e-05 6.1761e-08 -9.1499e-08)
(-4.6163e-05 3.0033e-07 -4.494e-07)
(-4.9823e-05 5.5998e-07 -8.3884e-07)
(-5.3256e-05 8.3707e-07 -1.2543e-06)
(-5.6438e-05 1.1415e-06 -1.7107e-06)
(-4.0585e-06 2.2372e-07 -1.4974e-07)
(-1.182e-05 5.1046e-07 -3.4159e-07)
(-1.8685e-05 4.441e-07 -2.9704e-07)
(-2.4513e-05 1.126e-07 -7.5048e-08)
(-2.9522e-05 -2.1279e-07 1.4255e-07)
(-3.4033e-05 -3.2311e-07 2.1604e-07)
(-3.8265e-05 -1.9337e-07 1.292e-07)
(-4.2305e-05 9.1911e-08 -6.1318e-08)
(-4.6163e-05 4.4953e-07 -3.0008e-07)
(-4.9823e-05 8.3865e-07 -5.5995e-07)
(-5.3256e-05 1.2538e-06 -8.3728e-07)
(-5.6438e-05 1.7098e-06 -1.1419e-06)
(-4.0852e-06 3.0285e-07 -7.6135e-08)
(-1.1887e-05 6.9032e-07 -1.7345e-07)
(-1.8763e-05 5.9855e-07 -1.502e-07)
(-2.4576e-05 1.4816e-07 -3.6859e-08)
(-2.9562e-05 -2.9168e-07 7.3434e-08)
(-3.4057e-05 -4.3915e-07 1.1004e-07)
(-3.8281e-05 -2.6418e-07 6.6005e-08)
(-4.232e-05 1.163e-07 -2.9149e-08)
(-4.6179e-05 5.8999e-07 -1.4751e-07)
(-4.9841e-05 1.1031e-06 -2.758e-07)
(-5.3276e-05 1.6493e-06 -4.1244e-07)
(-5.646e-05 2.2487e-06 -5.6244e-07)
(-4.139e-06 3.9191e-07 2.711e-10)
(-1.2023e-05 8.9156e-07 6.287e-10)
(-1.892e-05 7.678e-07 5.9797e-10)
(-2.4701e-05 1.8091e-07 2.7281e-10)
(-2.964e-05 -3.8538e-07 -5.0974e-11)
(-3.4101e-05 -5.6981e-07 -1.271e-10)
(-3.8312e-05 -3.4472e-07 7.2486e-11)
(-4.2348e-05 1.3212e-07 4.532e-10)
(-4.6211e-05 7.1741e-07 9.2231e-10)
(-4.9876e-05 1.346e-06 1.4288e-09)
(-5.3316e-05 2.0123e-06 1.9644e-09)
(-5.6503e-05 2.7425e-06 2.5476e-09)
(-4.2221e-06 4.9731e-07 8.3239e-08)
(-1.223e-05 1.1281e-06 1.8867e-07)
(-1.9157e-05 9.6155e-07 1.6046e-07)
(-2.4886e-05 2.091e-07 3.4226e-08)
(-2.9751e-05 -5.0327e-07 -8.4834e-08)
(-3.4164e-05 -7.2379e-07 -1.2116e-07)
(-3.8355e-05 -4.3956e-07 -7.3102e-08)
(-4.2389e-05 1.374e-07 2.3662e-08)
(-4.6256e-05 8.3007e-07 1.3968e-07)
(-4.9928e-05 1.5646e-06 2.6276e-07)
(-5.3374e-05 2.3382e-06 3.9242e-07)
(-5.6565e-05 3.1845e-06 5.343e-07)
(-4.3035e-06 1.5138e-10 -6.1147e-07)
(-1.2433e-05 3.5296e-10 -1.3839e-06)
(-1.9386e-05 3.4916e-10 -1.1692e-06)
(-2.5061e-05 1.856e-10 -2.3569e-07)
(-2.9852e-05 1.2508e-11 6.3209e-07)
(-3.4218e-05 -3.6102e-11 8.8665e-07)
(-3.8394e-05 5.5854e-11 5.3836e-07)
(-4.2427e-05 2.4299e-10 -1.3952e-07)
(-4.6298e-05 4.8056e-10 -9.3628e-07)
(-4.9976e-05 7.3847e-10 -1.7714e-06)
(-5.3427e-05 1.0157e-09 -2.6458e-06)
(-5.6623e-05 1.3292e-09 -3.6011e-06)
(-4.2221e-06 8.3245e-08 -4.9726e-07)
(-1.223e-05 1.8869e-07 -1.1279e-06)
(-1.9157e-05 1.6047e-07 -9.6132e-07)
(-2.4886e-05 3.4219e-08 -2.0878e-07)
(-2.9751e-05 -8.4869e-08 5.0367e-07)
(-3.4164e-05 -1.2123e-07 7.2425e-07)
(-3.8355e-05 -7.3209e-08 4.4005e-07)
(-4.2389e-05 2.3521e-08 -1.369e-07)
(-4.6256e-05 1.3951e-07 -8.2957e-07)
(-4.9928e-05 2.6257e-07 -1.5641e-06)
(-5.3374e-05 3.9221e-07 -2.3377e-06)
(-5.6565e-05 5.3409e-07 -3.184e-06)
(-4.1684e-06 1.6082e-07 -3.9993e-07)
(-1.2096e-05 3.6521e-07 -9.087e-07)
(-1.9003e-05 3.1295e-07 -7.7911e-07)
(-2.4766e-05 7.1073e-08 -1.7737e-07)
(-2.9679e-05 -1.5951e-07 3.9863e-07)
(-3.4123e-05 -2.3201e-07 5.8231e-07)
(-3.8328e-05 -1.3947e-07 3.5273e-07)
(-4.2363e-05 5.1671e-08 -1.2534e-07)
(-4.6227e-05 2.8416e-07 -7.0736e-07)
(-4.9895e-05 5.33e-07 -1.3297e-06)
(-5.3336e-05 7.9637e-07 -1.9878e-06)
(-5.6524e-05 1.085e-06 -2.7087e-06)
(-4.1419e-06 2.3699e-07 -3.1508e-07)
(-1.2029e-05 5.3892e-07 -7.166e-07)
(-1.8927e-05 4.6354e-07 -6.1632e-07)
(-2.4706e-05 1.083e-07 -1.4372e-07)
(-2.9642e-05 -2.3246e-07 3.1045e-07)
(-3.4103e-05 -3.4144e-07 4.5661e-07)
(-3.8313e-05 -2.0504e-07 2.7531e-07)
(-4.2349e-05 8.0706e-08 -1.0591e-07)
(-4.6212e-05 4.3082e-07 -5.7318e-07)
(-4.9878e-05 8.0711e-07 -1.0752e-06)
(-5.3317e-05 1.2062e-06 -1.6073e-06)
(-5.6504e-05 1.6437e-06 -2.1906e-06)
(-4.1419e-06 3.1508e-07 -2.3705e-07)
(-1.2029e-05 7.1663e-07 -5.3902e-07)
(-1.8927e-05 6.1645e-07 -4.6353e-07)
(-2.4706e-05 1.44e-07 -1.0806e-07)
(-2.9642e-05 -3.1002e-07 2.3293e-07)
(-3.4103e-05 -4.5609e-07 3.4203e-07)
(-3.8313e-05 -2.7477e-07 2.0563e-07)
(-4.2349e-05 1.064e-07 -8.0211e-08)
(-4.6212e-05 5.7358e-07 -4.3046e-07)
(-4.9878e-05 1.0754e-06 -8.0689e-07)
(-5.3317e-05 1.6074e-06 -1.2061e-06)
(-5.6504e-05 2.1906e-06 -1.6438e-06)
(-4.1686e-06 4.0008e-07 -1.6096e-07)
(-1.2096e-05 9.0907e-07 -3.6549e-07)
(-1.9004e-05 7.7953e-07 -3.1308e-07)
(-2.4767e-05 1.7771e-07 -7.0854e-08)
(-2.968e-05 -3.9836e-07 1.6006e-07)
(-3.4124e-05 -5.82e-07 2.327e-07)
(-3.8328e-05 -3.5233e-07 1.4011e-07)
(-4.2363e-05 1.2584e-07 -5.1164e-08)
(-4.6227e-05 7.0792e-07 -2.8382e-07)
(-4.9895e-05 1.3303e-06 -5.3285e-07)
(-5.3336e-05 1.9885e-06 -7.9642e-07)
(-5.6525e-05 2.7094e-06 -1.0853e-06)
(-4.2222e-06 4.9733e-07 -8.3023e-08)
(-1.223e-05 1.1281e-06 -1.8815e-07)
(-1.9157e-05 9.6159e-07 -1.5991e-07)
(-2.4887e-05 2.0911e-07 -3.3841e-08)
(-2.9752e-05 -5.0328e-07 8.5046e-08)
(-3.4164e-05 -7.2379e-07 1.2138e-07)
(-3.8355e-05 -4.3956e-07 7.353e-08)
(-4.2389e-05 1.3739e-07 -2.2885e-08)
(-4.6256e-05 8.3002e-07 -1.3848e-07)
(-4.9928e-05 1.5645e-06 -2.6112e-07)
(-5.3374e-05 2.338e-06 -3.9032e-07)
(-5.6565e-05 3.1843e-06 -5.3171e-07)
(-4.3035e-06 6.1152e-07 1.501e-10)
(-1.2433e-05 1.384e-06 3.5281e-10)
(-1.9386e-05 1.1695e-06 3.5889e-10)
(-2.5061e-05 2.3604e-07 2.1491e-10)
(-2.9852e-05 -6.3167e-07 7.049e-11)
(-3.4218e-05 -8.8618e-07 5.751e-11)
(-3.8394e-05 -5.3786e-07 1.8634e-10)
(-4.2427e-05 1.4001e-07 4.067e-10)
(-4.6298e-05 9.3676e-07 6.725e-10)
(-4.9976e-05 1.7718e-06 9.518e-10)
(-5.3427e-05 2.6462e-06 1.2407e-09)
(-5.6623e-05 3.6015e-06 1.5537e-09)
(-5.6831e-05 -4.6416e-06 4.1034e-07)
(-5.362e-05 -3.4201e-06 3.0233e-07)
(-5.0149e-05 -2.2969e-06 2.0277e-07)
(-4.6447e-05 -1.2045e-06 1.0561e-07)
(-4.2557e-05 -1.2209e-07 9.238e-09)
(-3.8521e-05 8.6626e-07 -7.795e-08)
(-3.4394e-05 1.45e-06 -1.2779e-07)
(-3.0196e-05 1.1154e-06 -9.7952e-08)
(-2.5697e-05 -2.8879e-07 2.0308e-08)
(-2.0259e-05 -1.888e-06 1.5302e-07)
(-1.3222e-05 -2.2941e-06 1.8754e-07)
(-4.6235e-06 -1.0203e-06 8.3215e-08)
(-5.6774e-05 -4.3212e-06 1.1603e-06)
(-5.3567e-05 -3.1803e-06 8.5386e-07)
(-5.0102e-05 -2.1323e-06 5.7237e-07)
(-4.6407e-05 -1.1184e-06 3.0049e-07)
(-4.2523e-05 -1.2616e-07 3.5471e-08)
(-3.849e-05 7.5611e-07 -1.9852e-07)
(-3.4354e-05 1.2473e-06 -3.2743e-07)
(-3.011e-05 9.3097e-07 -2.4443e-07)
(-2.5516e-05 -2.7067e-07 6.7528e-08)
(-1.9992e-05 -1.6058e-06 4.1282e-07)
(-1.2975e-05 -1.9353e-06 4.9851e-07)
(-4.5223e-06 -8.5964e-07 2.2133e-07)
(-5.6733e-05 -3.8784e-06 1.9237e-06)
(-5.3529e-05 -2.8523e-06 1.4148e-06)