/*--------------------------------*- C++ -*----------------------------------*\
| =========                 |                                                 |
| \\      /  F ield         | OpenFOAM: The Open Source CFD Toolbox           |
|  \\    /   O peration     | Version:  4.1                                   |
|   \\  /    A nd           | Web:      www.OpenFOAM.org                      |
|    \\/     M anipulation  |                                                 |
\*---------------------------------------------------------------------------*/
FoamFile
{
    version     2.0;
    format      ascii;
    class       pointVectorField;
    location    "0.0051";
    object      pointDisplacement_Next;
}
// * * * * * * * * * * * * * * * * * * * * * * * * * * * * * * * * * * * * * //

dimensions      [0 1 0 0 0 0 0];

internalField   uniform (0 0 0);

boundaryField
{
    inlet
    {
        type            fixedValue;
        value           nonuniform 0();
    }
    outlet
    {
        type            fixedValue;
        value           uniform (0 0 0);
    }
    mantle
    {
        type            fixedValue;
        value           nonuniform List<vector> 
416
(
(-6.0139e-05 -7.3493e-06 6.1004e-10)
(-5.7006e-05 -5.6006e-06 4.3905e-10)
(-5.6998e-05 -5.496e-06 1.0889e-06)
(-6.0138e-05 -7.212e-06 1.4259e-06)
(-5.699e-05 -5.1963e-06 2.1498e-06)
(-6.0138e-05 -6.8183e-06 2.8199e-06)
(-5.6988e-05 -4.7094e-06 3.1496e-06)
(-6.0129e-05 -6.1783e-06 4.1352e-06)
(-5.6992e-05 -4.0235e-06 4.0243e-06)
(-6.0126e-05 -5.2811e-06 5.2822e-06)
(-5.6988e-05 -3.1483e-06 4.7102e-06)
(-6.0129e-05 -4.134e-06 6.1793e-06)
(-5.699e-05 -2.1486e-06 5.1966e-06)
(-6.0138e-05 -2.8188e-06 6.8191e-06)
(-5.6998e-05 -1.0878e-06 5.496e-06)
(-6.0138e-05 -1.4248e-06 7.2126e-06)
(-5.7006e-05 4.8498e-10 5.6003e-06)
(-6.0139e-05 3.5923e-10 7.3497e-06)
(-5.3572e-05 -4.0536e-06 5.4415e-10)
(-5.3565e-05 -3.9736e-06 7.9067e-07)
(-5.355e-05 -3.7494e-06 1.556e-06)
(-5.3558e-05 -3.4101e-06 2.2772e-06)
(-5.3556e-05 -2.9109e-06 2.9119e-06)
(-5.3558e-05 -2.276e-06 3.4106e-06)
(-5.355e-05 -1.5547e-06 3.7494e-06)
(-5.3566e-05 -7.8949e-07 3.9731e-06)
(-5.3572e-05 3.3554e-10 4.0528e-06)
(-4.9816e-05 -2.5452e-06 1.1906e-09)
(-4.9819e-05 -2.4863e-06 4.7278e-07)
(-4.9822e-05 -2.3253e-06 9.6343e-07)
(-4.9812e-05 -2.1152e-06 1.4402e-06)
(-4.9806e-05 -1.8278e-06 1.8278e-06)
(-4.9812e-05 -1.4389e-06 2.1156e-06)
(-4.9822e-05 -9.6207e-07 2.3249e-06)
(-4.9819e-05 -4.7159e-07 2.4854e-06)
(-4.9817e-05 -3.6767e-10 2.544e-06)
(-4.5858e-05 -1.0284e-06 4.8251e-10)
(-4.586e-05 -9.5353e-07 1.3359e-07)
(-4.5857e-05 -8.1746e-07 3.3798e-07)
(-4.5858e-05 -7.8255e-07 5.8875e-07)
(-4.5854e-05 -7.4294e-07 7.4373e-07)
(-4.5858e-05 -5.8753e-07 7.8272e-07)
(-4.5857e-05 -3.3663e-07 8.1694e-07)
(-4.586e-05 -1.3243e-07 9.524e-07)
(-4.5858e-05 2.7748e-10 1.0269e-06)
(-4.1793e-05 6.0291e-07 4.485e-10)
(-4.1739e-05 7.9488e-07 -2.7825e-07)
(-4.1687e-05 9.6236e-07 -3.9808e-07)
(-4.1738e-05 7.4917e-07 -3.5758e-07)
(-4.1792e-05 4.1448e-07 -4.1377e-07)
(-4.1738e-05 3.5872e-07 -7.491e-07)
(-4.1687e-05 3.9935e-07 -9.63e-07)
(-4.1739e-05 2.7933e-07 -7.9613e-07)
(-4.1793e-05 2.5056e-10 -6.0449e-07)
(-3.7488e-05 2.8237e-06 4.0705e-10)
(-3.7375e-05 3.0997e-06 -7.4086e-07)
(-3.7283e-05 3.1844e-06 -1.3169e-06)
(-3.7373e-05 2.7083e-06 -1.6591e-06)
(-3.7486e-05 1.9856e-06 -1.985e-06)
(-3.7373e-05 1.6601e-06 -2.7083e-06)
(-3.7283e-05 1.318e-06 -3.185e-06)
(-3.7375e-05 7.4185e-07 -3.1009e-06)
(-3.7487e-05 2.2889e-10 -2.8253e-06)
(-3.3083e-05 5.1167e-06 3.5779e-10)
(-3.3064e-05 5.0141e-06 -1.0283e-06)
(-3.3031e-05 4.7544e-06 -1.9663e-06)
(-3.3061e-05 4.2677e-06 -2.8108e-06)
(-3.3079e-05 3.61e-06 -3.6095e-06)
(-3.3061e-05 2.8118e-06 -4.2677e-06)
(-3.3031e-05 1.9673e-06 -4.755e-06)
(-3.3063e-05 1.0291e-06 -5.0153e-06)
(-3.3083e-05 2.1148e-10 -5.1181e-06)
(-2.9633e-05 3.6435e-06 3.0442e-10)
(-2.9685e-05 3.2975e-06 -6.5682e-07)
(-2.9655e-05 3.0506e-06 -1.2624e-06)
(-2.9681e-05 2.7944e-06 -1.864e-06)
(-2.9628e-05 2.5734e-06 -2.573e-06)
(-2.9681e-05 1.8648e-06 -2.7945e-06)
(-2.9655e-05 1.2633e-06 -3.0512e-06)
(-2.9685e-05 6.5757e-07 -3.2985e-06)
(-2.9633e-05 1.8458e-10 -3.6447e-06)
(-2.7118e-05 -3.335e-06 2.4992e-10)
(-2.6934e-05 -2.956e-06 3.8467e-07)
(-2.676e-05 -2.4184e-06 1.001e-06)
(-2.6931e-05 -2.3607e-06 1.8163e-06)
(-2.7114e-05 -2.3554e-06 2.3558e-06)
(-2.6931e-05 -1.8157e-06 2.3607e-06)
(-2.676e-05 -1.0004e-06 2.4179e-06)
(-2.6934e-05 -3.8409e-07 2.9552e-06)
(-2.7117e-05 1.3326e-10 3.334e-06)
(-2.2372e-05 -9.1252e-06 1.801e-10)
(-2.1958e-05 -8.0319e-06 1.2164e-06)
(-2.1639e-05 -6.778e-06 2.8058e-06)
(-2.1957e-05 -6.5364e-06 4.8145e-06)
(-2.237e-05 -6.4466e-06 6.4468e-06)
(-2.1957e-05 -4.8141e-06 6.5364e-06)
(-2.1639e-05 -2.8053e-06 6.7776e-06)
(-2.1958e-05 -1.2161e-06 8.0313e-06)
(-2.2372e-05 7.9184e-11 9.1244e-06)
(-1.2743e-05 -7.0666e-06 8.4529e-11)
(-1.256e-05 -6.499e-06 1.0378e-06)
(-1.238e-05 -5.6505e-06 2.3393e-06)
(-1.256e-05 -5.3272e-06 3.8582e-06)
(-1.2742e-05 -4.993e-06 4.9931e-06)
(-1.256e-05 -3.8581e-06 5.3271e-06)
(-1.238e-05 -2.3391e-06 5.6504e-06)
(-1.256e-05 -1.0376e-06 6.4986e-06)
(-1.2742e-05 4.4432e-11 7.0662e-06)
(-5.0873e-12 -2.8752e-12 2.6267e-17)
(-2.0552e-08 -5.5035e-08 -4.2955e-08)
(-6.0577e-12 -5.5708e-12 2.1176e-12)
(-2.0545e-08 -8.4103e-09 6.9215e-08)
(-3.6091e-12 1.2898e-12 -1.2896e-12)
(-2.0545e-08 -6.9213e-08 8.4127e-09)
(-6.0577e-12 -2.1177e-12 5.5708e-12)
(-2.0552e-08 4.2956e-08 5.503e-08)
(-5.0873e-12 2.2631e-17 2.8751e-12)
(-5.6998e-05 1.0885e-06 5.496e-06)
(-6.0138e-05 1.4255e-06 7.2127e-06)
(-5.699e-05 2.1493e-06 5.1966e-06)
(-6.0138e-05 2.8196e-06 6.8192e-06)
(-5.6988e-05 3.1489e-06 4.7101e-06)
(-6.0129e-05 4.1348e-06 6.1793e-06)
(-5.6992e-05 4.0239e-06 4.0241e-06)
(-6.0126e-05 5.2817e-06 5.2821e-06)
(-5.6988e-05 4.7096e-06 3.1492e-06)
(-6.0129e-05 6.1787e-06 4.135e-06)
(-5.699e-05 5.1961e-06 2.1495e-06)
(-6.0138e-05 6.8184e-06 2.8197e-06)
(-5.6998e-05 5.4954e-06 1.0887e-06)
(-6.0138e-05 7.2117e-06 1.4257e-06)
(-5.7006e-05 5.5996e-06 7.2719e-10)
(-6.0139e-05 7.3486e-06 6.2802e-10)
(-5.3566e-05 7.9016e-07 3.9731e-06)
(-5.355e-05 1.5553e-06 3.7493e-06)
(-5.3558e-05 2.2765e-06 3.4105e-06)
(-5.3556e-05 2.9113e-06 2.9116e-06)
(-5.3558e-05 3.4102e-06 2.2769e-06)
(-5.355e-05 3.7492e-06 1.5556e-06)
(-5.3566e-05 3.9729e-06 7.9042e-07)
(-5.3572e-05 4.0525e-06 5.5777e-10)
(-4.9819e-05 4.7221e-07 2.4854e-06)
(-4.9822e-05 9.6269e-07 2.3249e-06)
(-4.9812e-05 1.4395e-06 2.1154e-06)
(-4.9807e-05 1.8282e-06 1.8276e-06)
(-4.9812e-05 2.1154e-06 1.4399e-06)
(-4.9822e-05 2.3251e-06 9.6313e-07)
(-4.9819e-05 2.4858e-06 4.7256e-07)
(-4.9816e-05 2.5444e-06 1.2039e-09)
(-4.586e-05 1.3301e-07 9.5242e-07)
(-4.5857e-05 3.3724e-07 8.1697e-07)
(-4.5858e-05 5.8814e-07 7.8274e-07)
(-4.5854e-05 7.4348e-07 7.4371e-07)
(-4.5858e-05 7.8293e-07 5.8864e-07)
(-4.5857e-05 8.1761e-07 3.3781e-07)
(-4.586e-05 9.5339e-07 1.3345e-07)
(-4.5858e-05 1.028e-06 4.9367e-10)
(-4.1739e-05 -2.788e-07 -7.9605e-07)
(-4.1687e-05 -3.9875e-07 -9.6285e-07)
(-4.1738e-05 -3.5806e-07 -7.4891e-07)
(-4.1792e-05 -4.1381e-07 -4.1361e-07)
(-4.1738e-05 -7.4854e-07 -3.5749e-07)
(-4.1687e-05 -9.6184e-07 -3.9807e-07)
(-4.1739e-05 -7.9454e-07 -2.7828e-07)
(-4.1793e-05 -6.0277e-07 4.5639e-10)
(-3.7375e-05 -7.4135e-07 -3.1008e-06)
(-3.7283e-05 -1.3174e-06 -3.1848e-06)
(-3.7373e-05 -1.6594e-06 -2.708e-06)
(-3.7486e-05 -1.9848e-06 -1.9847e-06)
(-3.7373e-05 -2.7074e-06 -1.6588e-06)
(-3.7283e-05 -3.1835e-06 -1.3167e-06)
(-3.7375e-05 -3.0988e-06 -7.4078e-07)
(-3.7488e-05 -2.823e-06 4.1075e-10)
(-3.3063e-05 -1.0287e-06 -5.015e-06)
(-3.3031e-05 -1.9667e-06 -4.7546e-06)
(-3.3061e-05 -2.811e-06 -4.2672e-06)
(-3.3079e-05 -3.6091e-06 -3.609e-06)
(-3.3061e-05 -4.2666e-06 -2.8104e-06)
(-3.3031e-05 -4.7531e-06 -1.9659e-06)
(-3.3064e-05 -5.0129e-06 -1.0281e-06)
(-3.3083e-05 -5.1155e-06 3.5773e-10)
(-2.9685e-05 -6.5717e-07 -3.2983e-06)
(-2.9655e-05 -1.2627e-06 -3.0507e-06)
(-2.9681e-05 -1.864e-06 -2.7939e-06)
(-2.9627e-05 -2.5724e-06 -2.5724e-06)
(-2.9681e-05 -2.7932e-06 -1.8635e-06)
(-2.9655e-05 -3.0492e-06 -1.262e-06)
(-2.9685e-05 -3.2961e-06 -6.5659e-07)
(-2.9633e-05 -3.6421e-06 3.0079e-10)
(-2.6934e-05 3.844e-07 2.9554e-06)
(-2.676e-05 1.0008e-06 2.4184e-06)
(-2.6931e-05 1.8163e-06 2.3612e-06)
(-2.7114e-05 2.3563e-06 2.3564e-06)
(-2.6931e-05 2.3619e-06 1.8168e-06)
(-2.676e-05 2.4197e-06 1.0015e-06)
(-2.6934e-05 2.9575e-06 3.8489e-07)
(-2.7117e-05 3.3364e-06 2.4463e-10)
(-2.1958e-05 1.2163e-06 8.0315e-06)
(-2.1639e-05 2.8057e-06 6.7779e-06)
(-2.1957e-05 4.8145e-06 6.5368e-06)
(-2.237e-05 6.4473e-06 6.4473e-06)
(-2.1957e-05 6.5373e-06 4.8149e-06)
(-2.1639e-05 6.779e-06 2.8061e-06)
(-2.1958e-05 8.0331e-06 1.2166e-06)
(-2.2372e-05 9.1263e-06 1.7521e-10)
(-1.256e-05 1.0377e-06 6.4987e-06)
(-1.238e-05 2.3392e-06 5.6505e-06)
(-1.256e-05 3.8583e-06 5.3274e-06)
(-1.2742e-05 4.9934e-06 4.9934e-06)
(-1.256e-05 5.3276e-06 3.8585e-06)
(-1.238e-05 5.6511e-06 2.3394e-06)
(-1.256e-05 6.4995e-06 1.0379e-06)
(-1.2743e-05 7.0671e-06 8.445e-11)
(-2.0552e-08 -4.2958e-08 5.503e-08)
(-6.0577e-12 2.1178e-12 5.5708e-12)
(-2.0545e-08 6.9213e-08 8.4147e-09)
(-3.6091e-12 -1.2897e-12 -1.2894e-12)
(-2.0545e-08 8.41e-09 6.9217e-08)
(-6.0577e-12 5.5709e-12 2.1176e-12)
(-2.0552e-08 5.5038e-08 -4.2956e-08)
(-5.0873e-12 2.8754e-12 2.7614e-17)
(-5.6998e-05 5.4951e-06 -1.0874e-06)
(-6.0138e-05 7.2114e-06 -1.4244e-06)
(-5.699e-05 5.1956e-06 -2.1481e-06)
(-6.0138e-05 6.8179e-06 -2.8182e-06)
(-5.6988e-05 4.7091e-06 -3.1477e-06)
(-6.0129e-05 6.1781e-06 -4.1334e-06)
(-5.6991e-05 4.0235e-06 -4.0224e-06)
(-6.0126e-05 5.2812e-06 -5.2804e-06)
(-5.6988e-05 3.1486e-06 -4.7084e-06)
(-6.0129e-05 4.1344e-06 -6.1775e-06)
(-5.6989e-05 2.1491e-06 -5.1951e-06)
(-6.0138e-05 2.8193e-06 -6.8175e-06)
(-5.6998e-05 1.0884e-06 -5.4949e-06)
(-6.0138e-05 1.4255e-06 -7.2113e-06)
(-5.7006e-05 4.7143e-10 -5.5995e-06)
(-6.0139e-05 3.4511e-10 -7.3487e-06)
(-5.3565e-05 3.9727e-06 -7.8925e-07)
(-5.355e-05 3.7488e-06 -1.5543e-06)
(-5.3558e-05 3.4098e-06 -2.2755e-06)
(-5.3556e-05 2.9109e-06 -2.9101e-06)
(-5.3558e-05 2.2763e-06 -3.409e-06)
(-5.355e-05 1.5552e-06 -3.748e-06)
(-5.3565e-05 7.9016e-07 -3.9721e-06)
(-5.3571e-05 3.2775e-10 -4.0521e-06)
(-4.9819e-05 2.4856e-06 -4.7147e-07)
(-4.9822e-05 2.3248e-06 -9.6194e-07)
(-4.9812e-05 2.1151e-06 -1.4386e-06)
(-4.9806e-05 1.8279e-06 -1.8262e-06)
(-4.9812e-05 1.4393e-06 -2.1141e-06)
(-4.9822e-05 9.6263e-07 -2.3237e-06)
(-4.9819e-05 4.7223e-07 -2.4845e-06)
(-4.9816e-05 9.7952e-10 -2.5435e-06)
(-4.586e-05 9.5328e-07 -1.3243e-07)
(-4.5857e-05 8.1741e-07 -3.3672e-07)
(-4.5857e-05 7.827e-07 -5.8749e-07)
(-4.5854e-05 7.4328e-07 -7.4254e-07)
(-4.5857e-05 5.8803e-07 -7.8163e-07)
(-4.5857e-05 3.3723e-07 -8.1602e-07)
(-4.586e-05 1.3305e-07 -9.5172e-07)
(-4.5858e-05 2.7342e-10 -1.0265e-06)
(-4.1739e-05 -7.9458e-07 2.7921e-07)
(-4.1687e-05 -9.6191e-07 3.9903e-07)
(-4.1738e-05 -7.4861e-07 3.5846e-07)
(-4.1792e-05 -4.1385e-07 4.1455e-07)
(-4.1738e-05 -3.5804e-07 7.4977e-07)
(-4.1687e-05 -3.9867e-07 9.6356e-07)
(-4.1739e-05 -2.7872e-07 7.9654e-07)
(-4.1793e-05 2.4902e-10 6.0475e-07)
(-3.7375e-05 -3.0988e-06 7.416e-07)
(-3.7283e-05 -3.1834e-06 1.3175e-06)
(-3.7373e-05 -2.7073e-06 1.6596e-06)
(-3.7486e-05 -1.9847e-06 1.9854e-06)
(-3.7373e-05 -1.6593e-06 2.7086e-06)
(-3.7283e-05 -1.3173e-06 3.1852e-06)
(-3.7374e-05 -7.4123e-07 3.101e-06)
(-3.7487e-05 2.3162e-10 2.8253e-06)
(-3.3064e-05 -5.0128e-06 1.0288e-06)
(-3.3031e-05 -4.753e-06 1.9666e-06)
(-3.3061e-05 -4.2663e-06 2.811e-06)
(-3.3079e-05 -3.6088e-06 3.6094e-06)
(-3.3061e-05 -2.8107e-06 4.2675e-06)
(-3.3031e-05 -1.9665e-06 4.7548e-06)
(-3.3064e-05 -1.0285e-06 5.015e-06)
(-3.3083e-05 2.1625e-10 5.1179e-06)
(-2.9685e-05 -3.2959e-06 6.5717e-07)
(-2.9655e-05 -3.049e-06 1.2625e-06)
(-2.9681e-05 -2.7929e-06 1.8638e-06)
(-2.9628e-05 -2.5721e-06 2.5726e-06)
(-2.9681e-05 -1.8637e-06 2.794e-06)
(-2.9655e-05 -1.2625e-06 3.0506e-06)
(-2.9685e-05 -6.5698e-07 3.298e-06)
(-2.9633e-05 1.9055e-10 3.6443e-06)
(-2.6934e-05 2.9576e-06 -3.8443e-07)
(-2.676e-05 2.42e-06 -1.0011e-06)
(-2.6931e-05 2.3622e-06 -1.8166e-06)
(-2.7114e-05 2.3567e-06 -2.3563e-06)
(-2.6931e-05 1.8167e-06 -2.3613e-06)
(-2.676e-05 1.0011e-06 -2.4186e-06)
(-2.6934e-05 3.8457e-07 -2.9558e-06)
(-2.7117e-05 1.3918e-10 -3.3344e-06)
(-2.1958e-05 8.0332e-06 -1.2163e-06)
(-2.1639e-05 6.7792e-06 -2.8058e-06)
(-2.1957e-05 6.5376e-06 -4.8147e-06)
(-2.237e-05 6.4476e-06 -6.4473e-06)
(-2.1957e-05 4.8148e-06 -6.5369e-06)
(-2.1639e-05 2.8059e-06 -6.7781e-06)
(-2.1958e-05 1.2164e-06 -8.0318e-06)
(-2.2372e-05 8.3915e-11 -9.1248e-06)
(-1.256e-05 6.4996e-06 -1.0377e-06)
(-1.238e-05 5.6512e-06 -2.3393e-06)
(-1.256e-05 5.3277e-06 -3.8584e-06)
(-1.2742e-05 4.9935e-06 -4.9934e-06)
(-1.256e-05 3.8585e-06 -5.3274e-06)
(-1.238e-05 2.3394e-06 -5.6507e-06)
(-1.256e-05 1.0378e-06 -6.4989e-06)
(-1.2743e-05 4.4316e-11 -7.0664e-06)
(-2.0552e-08 5.5038e-08 4.2957e-08)
(-6.0577e-12 5.5709e-12 -2.1176e-12)
(-2.0545e-08 8.4112e-09 -6.9217e-08)
(-3.6091e-12 -1.2895e-12 1.2895e-12)
(-2.0545e-08 6.9214e-08 -8.4139e-09)
(-6.0577e-12 2.1178e-12 -5.5709e-12)
(-2.0552e-08 -4.2958e-08 -5.5032e-08)
(-5.0873e-12 2.1463e-17 -2.8752e-12)
(-5.6998e-05 -1.0879e-06 -5.4956e-06)
(-6.0138e-05 -1.4249e-06 -7.212e-06)
(-5.6989e-05 -2.149e-06 -5.1965e-06)
(-6.0138e-05 -2.8192e-06 -6.8188e-06)
(-5.6987e-05 -3.1491e-06 -4.7101e-06)
(-6.0128e-05 -4.1347e-06 -6.1791e-06)
(-5.6991e-05 -4.0244e-06 -4.024e-06)
(-6.0126e-05 -5.282e-06 -5.2819e-06)
(-5.6988e-05 -4.7104e-06 -3.149e-06)
(-6.0128e-05 -6.1792e-06 -4.1346e-06)
(-5.6989e-05 -5.197e-06 -2.149e-06)
(-6.0138e-05 -6.819e-06 -2.819e-06)
(-5.6998e-05 -5.4965e-06 -1.0879e-06)
(-6.0138e-05 -7.2124e-06 -1.4248e-06)
(-5.3565e-05 -7.8966e-07 -3.9728e-06)
(-5.355e-05 -1.5551e-06 -3.7493e-06)
(-5.3558e-05 -2.2767e-06 -3.4106e-06)
(-5.3556e-05 -2.9118e-06 -2.9117e-06)
(-5.3558e-05 -3.411e-06 -2.2768e-06)
(-5.355e-05 -3.7502e-06 -1.5552e-06)
(-5.3565e-05 -3.974e-06 -7.8967e-07)
(-4.9819e-05 -4.7176e-07 -2.4852e-06)
(-4.9821e-05 -9.625e-07 -2.3249e-06)
(-4.9812e-05 -1.4396e-06 -2.1155e-06)
(-4.9806e-05 -1.8287e-06 -1.8276e-06)
(-4.9812e-05 -2.1161e-06 -1.4397e-06)
(-4.9822e-05 -2.326e-06 -9.627e-07)
(-4.9819e-05 -2.4867e-06 -4.7183e-07)
(-4.586e-05 -1.3261e-07 -9.5224e-07)
(-4.5857e-05 -3.3705e-07 -8.1693e-07)
(-4.5857e-05 -5.8819e-07 -7.827e-07)
(-4.5854e-05 -7.4375e-07 -7.4356e-07)
(-4.5857e-05 -7.8337e-07 -5.8832e-07)
(-4.5857e-05 -8.1812e-07 -3.3729e-07)
(-4.586e-05 -9.5389e-07 -1.327e-07)
(-4.1739e-05 2.7915e-07 7.9618e-07)
(-4.1687e-05 3.9892e-07 9.6294e-07)
(-4.1738e-05 3.5806e-07 7.4906e-07)
(-4.1792e-05 4.1369e-07 4.139e-07)
(-4.1738e-05 7.4838e-07 3.5795e-07)
(-4.1687e-05 9.6172e-07 3.9871e-07)
(-4.1739e-05 7.9452e-07 2.7907e-07)
(-3.7374e-05 7.4165e-07 3.1008e-06)
(-3.7283e-05 1.3176e-06 3.1849e-06)
(-3.7373e-05 1.6595e-06 2.7082e-06)
(-3.7486e-05 1.9849e-06 1.9851e-06)
(-3.7373e-05 2.7076e-06 1.6594e-06)
(-3.7283e-05 3.1837e-06 1.3174e-06)
(-3.7375e-05 3.0993e-06 7.416e-07)
(-3.3063e-05 1.0289e-06 5.015e-06)
(-3.3031e-05 1.9668e-06 4.7547e-06)
(-3.3061e-05 2.8111e-06 4.2675e-06)
(-3.3079e-05 3.6092e-06 3.6094e-06)
(-3.3061e-05 4.2669e-06 2.811e-06)
(-3.3031e-05 4.7538e-06 1.9667e-06)
(-3.3064e-05 5.0138e-06 1.0289e-06)
(-2.9685e-05 6.5735e-07 3.2981e-06)
(-2.9655e-05 1.2628e-06 3.0507e-06)
(-2.9681e-05 1.8641e-06 2.7941e-06)
(-2.9628e-05 2.5727e-06 2.5728e-06)
(-2.9681e-05 2.7937e-06 1.8641e-06)
(-2.9655e-05 3.05e-06 1.2628e-06)
(-2.9685e-05 3.2972e-06 6.5736e-07)
(-2.6934e-05 -3.8428e-07 -2.9557e-06)
(-2.676e-05 -1.0008e-06 -2.4184e-06)
(-2.6931e-05 -1.8162e-06 -2.361e-06)
(-2.7114e-05 -2.3561e-06 -2.3559e-06)
(-2.6931e-05 -2.3614e-06 -1.8162e-06)
(-2.676e-05 -2.4189e-06 -1.0008e-06)
(-2.6934e-05 -2.9563e-06 -3.8423e-07)
(-2.1958e-05 -1.2162e-06 -8.0317e-06)
(-2.1639e-05 -2.8056e-06 -6.778e-06)
(-2.1957e-05 -4.8145e-06 -6.5367e-06)
(-2.237e-05 -6.4471e-06 -6.447e-06)
(-2.1957e-05 -6.5369e-06 -4.8144e-06)
(-2.1639e-05 -6.7783e-06 -2.8056e-06)
(-2.1958e-05 -8.0321e-06 -1.2161e-06)
(-1.256e-05 -1.0377e-06 -6.4989e-06)
(-1.238e-05 -2.3392e-06 -5.6506e-06)
(-1.256e-05 -3.8583e-06 -5.3273e-06)
(-1.2742e-05 -4.9933e-06 -4.9932e-06)
(-1.256e-05 -5.3274e-06 -3.8582e-06)
(-1.238e-05 -5.6507e-06 -2.3392e-06)
(-1.256e-05 -6.4991e-06 -1.0376e-06)
(-2.0552e-08 4.2957e-08 -5.5032e-08)
(-6.0577e-12 -2.1177e-12 -5.5708e-12)
(-2.0545e-08 -6.9215e-08 -8.4129e-09)
(-3.6091e-12 1.2895e-12 1.2895e-12)
(-2.0545e-08 -8.4125e-09 -6.9216e-08)
(-6.0577e-12 -5.5708e-12 -2.1176e-12)
(-2.0552e-08 -5.5035e-08 4.2957e-08)
)
;
    }
    procBoundary3to2
    {
        type            processor;
    }
}


// ************************************************************************* //
