/*--------------------------------*- C++ -*----------------------------------*\
| =========                 |                                                 |
| \\      /  F ield         | foam-extend: Open Source CFD                    |
|  \\    /   O peration     | Version:     4.1-20200408                       |
|   \\  /    A nd           | Web:         http://www.foam-extend.org         |
|    \\/     M anipulation  |                                                 |
\*---------------------------------------------------------------------------*/
FoamFile
{
    version     2.0;
    format      ascii;
    class       volScalarField::DimensionedInternalField;
    location    "0.0445000";
    object      V0;
}
// * * * * * * * * * * * * * * * * * * * * * * * * * * * * * * * * * * * * * //

dimensions      [0 3 0 0 0 0 0];

value           nonuniform List<scalar> 
1952
(
1.38745e-14
2.31251e-14
3.23777e-14
4.16314e-14
5.08899e-14
6.01503e-14
6.94183e-14
7.8691e-14
8.79719e-14
9.72655e-14
1.06573e-13
1.15906e-13
1.25266e-13
1.34669e-13
1.44041e-13
4.62479e-15
1.38734e-14
2.31234e-14
3.23753e-14
4.16284e-14
5.08862e-14
6.0146e-14
6.94133e-14
7.86854e-14
8.79657e-14
9.72587e-14
1.06566e-13
1.15898e-13
1.25258e-13
1.3466e-13
1.44031e-13
4.62445e-15
1.38725e-14
2.31218e-14
3.2373e-14
4.16255e-14
5.08828e-14
6.01419e-14
6.94087e-14
7.86802e-14
8.79599e-14
9.72524e-14
1.06559e-13
1.15891e-13
1.2525e-13
1.34652e-13
1.44022e-13
4.62412e-15
1.38715e-14
2.31201e-14
3.23707e-14
4.16225e-14
5.08791e-14
6.01377e-14
6.94039e-14
7.86747e-14
8.79539e-14
9.72457e-14
1.06552e-13
1.15883e-13
1.25242e-13
1.34643e-13
1.44013e-13
4.62379e-15
1.38704e-14
2.31185e-14
3.23684e-14
4.16195e-14
5.08755e-14
6.01334e-14
6.9399e-14
7.86692e-14
8.79478e-14
9.7239e-14
1.06544e-13
1.15875e-13
1.25234e-13
1.34634e-13
1.44004e-13
4.62345e-15
1.38694e-14
2.31168e-14
3.2366e-14
4.16166e-14
5.08719e-14
6.01292e-14
6.93942e-14
7.86637e-14
8.79417e-14
9.72324e-14
1.06537e-13
1.15867e-13
1.25225e-13
1.34626e-13
1.43994e-13
4.62312e-15
1.38684e-14
2.31151e-14
3.23636e-14
4.16134e-14
5.08681e-14
6.01247e-14
6.9389e-14
7.8658e-14
8.79353e-14
9.72253e-14
1.0653e-13
1.15859e-13
1.25217e-13
1.34616e-13
1.43984e-13
4.62277e-15
1.38673e-14
2.31133e-14
3.23611e-14
4.16103e-14
5.08643e-14
6.01202e-14
6.93839e-14
7.86521e-14
8.79288e-14
9.72182e-14
1.06522e-13
1.15851e-13
1.25208e-13
1.34607e-13
1.43974e-13
4.62241e-15
1.38664e-14
2.31118e-14
3.2359e-14
4.16076e-14
5.0861e-14
6.01164e-14
6.93795e-14
7.86472e-14
8.79233e-14
9.72122e-14
1.06515e-13
1.15844e-13
1.252e-13
1.34599e-13
1.43966e-13
4.62211e-15
1.38654e-14
2.31101e-14
3.23567e-14
4.16046e-14
5.08573e-14
6.01121e-14
6.93746e-14
7.86416e-14
8.79171e-14
9.72054e-14
1.06508e-13
1.15836e-13
1.25192e-13
1.3459e-13
1.43956e-13
4.62177e-15
1.38644e-14
2.31084e-14
3.23543e-14
4.16016e-14
5.08537e-14
6.01078e-14
6.93696e-14
7.8636e-14
8.79109e-14
9.71986e-14
1.06501e-13
1.15828e-13
1.25183e-13
1.34581e-13
1.43947e-13
4.62143e-15
1.38634e-14
2.31068e-14
3.23521e-14
4.15987e-14
5.08502e-14
6.01037e-14
6.93649e-14
7.86307e-14
8.7905e-14
9.71921e-14
1.06493e-13
1.1582e-13
1.25175e-13
1.34573e-13
1.43938e-13
4.62111e-15
1.38624e-14
2.31051e-14
3.23497e-14
4.15957e-14
5.08465e-14
6.00994e-14
6.93601e-14
7.86252e-14
8.78989e-14
9.71854e-14
1.06486e-13
1.15812e-13
1.25167e-13
1.34564e-13
1.43928e-13
4.62077e-15
1.38614e-14
2.31035e-14
3.23474e-14
4.15927e-14
5.08429e-14
6.00952e-14
6.93552e-14
7.86197e-14
8.78928e-14
9.71787e-14
1.06479e-13
1.15805e-13
1.25159e-13
1.34555e-13
1.43919e-13
4.62044e-15
1.38604e-14
2.31018e-14
3.23451e-14
4.15898e-14
5.08393e-14
6.00909e-14
6.93503e-14
7.86142e-14
8.78866e-14
9.71719e-14
1.06472e-13
1.15797e-13
1.2515e-13
1.34546e-13
1.4391e-13
4.62011e-15
1.38594e-14
2.31001e-14
3.23428e-14
4.15868e-14
5.08357e-14
6.00867e-14
6.93455e-14
7.86087e-14
8.78805e-14
9.71652e-14
1.06464e-13
1.15789e-13
1.25142e-13
1.34537e-13
1.439e-13
4.61977e-15
1.38584e-14
2.30985e-14
3.23404e-14
4.15838e-14
5.0832e-14
6.00824e-14
6.93406e-14
7.86031e-14
8.78743e-14
9.71584e-14
1.06457e-13
1.15781e-13
1.25134e-13
1.34528e-13
1.43891e-13
4.61943e-15
1.38574e-14
2.30968e-14
3.23381e-14
4.15808e-14
5.08284e-14
6.00781e-14
6.93357e-14
7.85977e-14
8.78683e-14
9.71518e-14
1.0645e-13
1.15773e-13
1.25125e-13
1.3452e-13
1.43881e-13
4.6191e-15
1.38564e-14
2.30951e-14
3.23357e-14
4.15778e-14
5.08248e-14
6.00739e-14
6.93309e-14
7.85922e-14
8.78622e-14
9.71451e-14
1.06443e-13
1.15766e-13
1.25117e-13
1.34511e-13
1.43872e-13
4.61876e-15
1.38554e-14
2.30935e-14
3.23335e-14
4.15749e-14
5.08212e-14
6.00697e-14
6.93261e-14
7.85868e-14
8.78563e-14
9.71386e-14
1.06435e-13
1.15758e-13
1.25109e-13
1.34502e-13
1.43863e-13
4.61843e-15
1.38544e-14
2.30918e-14
3.23311e-14
4.15719e-14
5.08176e-14
6.00655e-14
6.93213e-14
7.85814e-14
8.78502e-14
9.7132e-14
1.06428e-13
1.1575e-13
1.25101e-13
1.34494e-13
1.43854e-13
4.6181e-15
1.38534e-14
2.30901e-14
3.23287e-14
4.15688e-14
5.08138e-14
6.00611e-14
6.93162e-14
7.85757e-14
8.78439e-14
9.71252e-14
1.06421e-13
1.15742e-13
1.25093e-13
1.34485e-13
1.43844e-13
4.61775e-15
1.38523e-14
2.30883e-14
3.23262e-14
4.15657e-14
5.081e-14
6.00566e-14
6.93112e-14
7.857e-14
8.78376e-14
9.71183e-14
1.06413e-13
1.15734e-13
1.25084e-13
1.34476e-13
1.43834e-13
4.61739e-15
1.38513e-14
2.30867e-14
3.2324e-14
4.15629e-14
5.08067e-14
6.00527e-14
6.93067e-14
7.8565e-14
8.78321e-14
9.71123e-14
1.06407e-13
1.15727e-13
1.25077e-13
1.34468e-13
1.43826e-13
4.61707e-15
1.38503e-14
2.3085e-14
3.23216e-14
4.15598e-14
5.08029e-14
6.00484e-14
6.93017e-14
7.85594e-14
8.7826e-14
9.71056e-14
1.064e-13
1.1572e-13
1.25069e-13
1.34459e-13
1.43817e-13
4.61672e-15
1.38492e-14
2.30832e-14
3.23192e-14
4.15567e-14
5.07991e-14
6.0044e-14
6.92967e-14
7.85538e-14
8.78198e-14
9.70989e-14
1.06393e-13
1.15712e-13
1.25061e-13
1.34451e-13
1.43808e-13
4.61637e-15
1.38481e-14
2.30814e-14
3.23167e-14
4.15535e-14
5.07953e-14
6.00395e-14
6.92917e-14
7.85482e-14
8.78136e-14
9.70923e-14
1.06386e-13
1.15705e-13
1.25053e-13
1.34443e-13
1.438e-13
4.61601e-15
1.3847e-14
2.30796e-14
3.23141e-14
4.15503e-14
5.07914e-14
6.0035e-14
6.92865e-14
7.85425e-14
8.78074e-14
9.70855e-14
1.06378e-13
1.15697e-13
1.25045e-13
1.34434e-13
1.43791e-13
4.61564e-15
1.38459e-14
2.30778e-14
3.23115e-14
4.1547e-14
5.07874e-14
6.00304e-14
6.92813e-14
7.85367e-14
8.7801e-14
9.70787e-14
1.06371e-13
1.1569e-13
1.25037e-13
1.34426e-13
1.43783e-13
4.61526e-15
1.38447e-14
2.30758e-14
3.23088e-14
4.15436e-14
5.07833e-14
6.00256e-14
6.92759e-14
7.85307e-14
8.77946e-14
9.70718e-14
1.06364e-13
1.15682e-13
1.2503e-13
1.34418e-13
1.43774e-13
4.61487e-15
1.38435e-14
2.30738e-14
3.23061e-14
4.15401e-14
5.07791e-14
6.00208e-14
6.92705e-14
7.85247e-14
8.77882e-14
9.70649e-14
1.06357e-13
1.15674e-13
1.25022e-13
1.3441e-13
1.43766e-13
4.61447e-15
1.38423e-14
2.30717e-14
3.23032e-14
4.15365e-14
5.07747e-14
6.00158e-14
6.92648e-14
7.85185e-14
8.77814e-14
9.70577e-14
1.06349e-13
1.15667e-13
1.25014e-13
1.34402e-13
1.43758e-13
4.61405e-15
1.3841e-14
2.30696e-14
3.23002e-14
4.15327e-14
5.07702e-14
6.00105e-14
6.92589e-14
7.8512e-14
8.77745e-14
9.70504e-14
1.06342e-13
1.15659e-13
1.25007e-13
1.34394e-13
1.43751e-13
4.61361e-15
1.38396e-14
2.30673e-14
3.2297e-14
4.15286e-14
5.07653e-14
6.00049e-14
6.92526e-14
7.85051e-14
8.77671e-14
9.70426e-14
1.06334e-13
1.15651e-13
1.24999e-13
1.34386e-13
1.43743e-13
4.61314e-15
1.38381e-14
2.30649e-14
3.22937e-14
4.15245e-14
5.07603e-14
5.99992e-14
6.92462e-14
7.84982e-14
8.77598e-14
9.70349e-14
1.06326e-13
1.15643e-13
1.24991e-13
1.34379e-13
1.43736e-13
4.61266e-15
1.38366e-14
2.30623e-14
3.22901e-14
4.152e-14
5.07549e-14
5.9993e-14
6.92392e-14
7.84906e-14
8.77517e-14
9.70265e-14
1.06318e-13
1.15634e-13
1.24983e-13
1.34371e-13
1.43729e-13
4.61214e-15
1.38349e-14
2.30596e-14
3.22863e-14
4.15152e-14
5.07491e-14
5.99864e-14
6.92317e-14
7.84824e-14
8.7743e-14
9.70174e-14
1.06308e-13
1.15625e-13
1.24974e-13
1.34363e-13
1.43721e-13
4.61159e-15
1.38331e-14
2.30567e-14
3.22822e-14
4.151e-14
5.07428e-14
5.99792e-14
6.92236e-14
7.84736e-14
8.77336e-14
9.70076e-14
1.06299e-13
1.15616e-13
1.24965e-13
1.34354e-13
1.43714e-13
4.611e-15
1.38313e-14
2.30535e-14
3.22778e-14
4.15044e-14
5.07361e-14
5.99714e-14
6.92148e-14
7.84639e-14
8.77233e-14
9.69968e-14
1.06288e-13
1.15605e-13
1.24956e-13
1.34345e-13
1.43706e-13
4.61038e-15
1.38292e-14
2.30502e-14
3.22731e-14
4.14984e-14
5.07287e-14
5.99628e-14
6.9205e-14
7.84531e-14
8.77117e-14
9.69846e-14
1.06276e-13
1.15593e-13
1.24945e-13
1.34335e-13
1.43698e-13
4.6097e-15
1.38271e-14
2.30467e-14
3.22681e-14
4.1492e-14
5.07209e-14
5.99537e-14
6.91944e-14
7.84415e-14
8.7699e-14
9.69713e-14
1.06262e-13
1.15579e-13
1.24932e-13
1.34324e-13
1.4369e-13
4.609e-15
1.38248e-14
2.30428e-14
3.22627e-14
4.1485e-14
5.07122e-14
5.99434e-14
6.91825e-14
7.84281e-14
8.76843e-14
9.69556e-14
1.06246e-13
1.15563e-13
1.24918e-13
1.34311e-13
1.4368e-13
4.60825e-15
1.38224e-14
2.30389e-14
3.2257e-14
4.14776e-14
5.07029e-14
5.99323e-14
6.91693e-14
7.84132e-14
8.76675e-14
9.69375e-14
1.06227e-13
1.15544e-13
1.249e-13
1.34295e-13
1.43668e-13
4.60747e-15
1.38201e-14
2.30348e-14
3.22512e-14
4.147e-14
5.06933e-14
5.99206e-14
6.91553e-14
7.8397e-14
8.76488e-14
9.69169e-14
1.06205e-13
1.15521e-13
1.24879e-13
1.34276e-13
1.43656e-13
4.60668e-15
1.38176e-14
2.30306e-14
3.2245e-14
4.14618e-14
5.06827e-14
5.99077e-14
6.91394e-14
7.83783e-14
8.76268e-14
9.6892e-14
1.06177e-13
1.15492e-13
1.2485e-13
1.3425e-13
1.43641e-13
4.60587e-15
1.38152e-14
2.30265e-14
3.22391e-14
4.14538e-14
5.06722e-14
5.98945e-14
6.91229e-14
7.83584e-14
8.76026e-14
9.68638e-14
1.06144e-13
1.15455e-13
1.2481e-13
1.34211e-13
1.43617e-13
4.60509e-15
1.38129e-14
2.30226e-14
3.22333e-14
4.14458e-14
5.06616e-14
5.98809e-14
6.91054e-14
7.83369e-14
8.75758e-14
9.68317e-14
1.06105e-13
1.15409e-13
1.24757e-13
1.34151e-13
1.43555e-13
4.60436e-15
1.38109e-14
2.3019e-14
3.22279e-14
4.14382e-14
5.06513e-14
5.98673e-14
6.90876e-14
7.83144e-14
8.75468e-14
9.67963e-14
1.06061e-13
1.15355e-13
1.24691e-13
1.34069e-13
1.43445e-13
4.60369e-15
1.38092e-14
2.30161e-14
3.22233e-14
4.14315e-14
5.06419e-14
5.98546e-14
6.90703e-14
7.82919e-14
8.75169e-14
9.67585e-14
1.06012e-13
1.15294e-13
1.24613e-13
1.33969e-13
1.43313e-13
4.60316e-15
1.38081e-14
2.30139e-14
3.22198e-14
4.14262e-14
5.06341e-14
5.98434e-14
6.90543e-14
7.82703e-14
8.7487e-14
9.67199e-14
1.05959e-13
1.15228e-13
1.24527e-13
1.33862e-13
1.4318e-13
4.6028e-15
1.38076e-14
2.30129e-14
3.22179e-14
4.14228e-14
5.06284e-14
5.98345e-14
6.90409e-14
7.82511e-14
8.7459e-14
9.66825e-14
1.05907e-13
1.15161e-13
1.24437e-13
1.3375e-13
1.43044e-13
4.60267e-15
1.38081e-14
2.30134e-14
3.22181e-14
4.1422e-14
5.0626e-14
5.98293e-14
6.90316e-14
7.82361e-14
8.74355e-14
9.66491e-14
1.05857e-13
1.15096e-13
1.24345e-13
1.33634e-13
1.42905e-13
4.60285e-15
1.38096e-14
2.30157e-14
3.22208e-14
4.14244e-14
5.06274e-14
5.98286e-14
6.90275e-14
7.82267e-14
8.74183e-14
9.66219e-14
1.05813e-13
1.15035e-13
1.24253e-13
1.33518e-13
1.42758e-13
4.60338e-15
1.38124e-14
2.302e-14
3.22263e-14
4.14304e-14
5.06333e-14
5.98331e-14
6.90299e-14
7.82254e-14
8.74116e-14
9.66069e-14
1.05784e-13
1.14989e-13
1.24171e-13
1.33407e-13
1.42598e-13
4.60431e-15
1.38167e-14
2.3027e-14
3.22357e-14
4.14418e-14
5.06462e-14
5.98462e-14
6.90425e-14
7.82356e-14
8.74183e-14
9.66067e-14
1.05772e-13
1.1496e-13
1.24105e-13
1.33305e-13
1.42422e-13
4.60576e-15
1.38226e-14
2.30367e-14
3.22489e-14
4.14579e-14
5.06646e-14
5.98655e-14
6.90618e-14
7.82521e-14
8.74306e-14
9.66104e-14
1.05765e-13
1.14934e-13
1.24048e-13
1.33213e-13
1.42251e-13
4.60777e-15
1.38289e-14
2.30468e-14
3.22622e-14
4.14733e-14
5.06812e-14
5.98817e-14
6.90765e-14
7.82628e-14
8.74364e-14
9.66066e-14
1.05751e-13
1.14902e-13
1.23995e-13
1.33131e-13
1.42107e-13
4.60992e-15
1.38337e-14
2.30543e-14
3.22716e-14
4.14837e-14
5.06914e-14
5.98903e-14
6.90827e-14
7.82646e-14
8.74336e-14
9.65951e-14
1.05732e-13
1.14868e-13
1.23949e-13
1.33062e-13
1.4201e-13
4.61158e-15
1.38362e-14
2.3058e-14
3.22761e-14
4.14882e-14
5.06952e-14
5.98923e-14
6.90824e-14
7.82602e-14
8.74254e-14
9.658e-14
1.05713e-13
1.14838e-13
1.23917e-13
1.33015e-13
1.41967e-13
4.61246e-15
1.38363e-14
2.30579e-14
3.22756e-14
4.14868e-14
5.06926e-14
5.98878e-14
6.90758e-14
7.82504e-14
8.74135e-14
9.65636e-14
1.05696e-13
1.14816e-13
1.239e-13
1.32994e-13
1.41965e-13
4.61252e-15
1.3834e-14
2.30541e-14
3.22702e-14
4.14798e-14
5.06841e-14
5.98775e-14
6.9064e-14
7.82365e-14
8.73989e-14
9.65471e-14
1.05682e-13
1.14801e-13
1.23898e-13
1.32993e-13
1.41995e-13
4.61176e-15
1.38295e-14
2.30468e-14
3.22604e-14
4.14677e-14
5.06701e-14
5.98618e-14
6.90473e-14
7.82187e-14
8.73819e-14
9.65303e-14
1.05671e-13
1.14793e-13
1.23907e-13
1.33009e-13
1.42049e-13
4.61026e-15
1.38233e-14
2.30367e-14
3.22468e-14
4.14512e-14
5.06512e-14
5.98412e-14
6.90261e-14
7.81973e-14
8.73624e-14
9.6513e-14
1.05661e-13
1.14789e-13
1.23923e-13
1.33038e-13
1.42124e-13
4.60816e-15
1.38157e-14
2.30245e-14
3.22303e-14
4.1431e-14
5.06282e-14
5.98163e-14
6.90004e-14
7.8172e-14
8.73398e-14
9.64942e-14
1.05651e-13
1.14789e-13
1.23946e-13
1.33078e-13
1.42212e-13
4.60563e-15
1.38074e-14
2.30108e-14
3.22116e-14
4.1408e-14
5.06018e-14
5.97875e-14
6.89706e-14
7.81427e-14
8.73137e-14
9.64732e-14
1.05641e-13
1.1479e-13
1.23973e-13
1.33126e-13
1.42309e-13
4.60285e-15
1.37986e-14
2.29962e-14
3.21915e-14
4.13829e-14
5.05724e-14
5.9755e-14
6.89363e-14
7.81086e-14
8.72823e-14
9.64477e-14
1.05626e-13
1.14792e-13
1.24001e-13
1.33179e-13
1.42408e-13
4.5999e-15
1.37895e-14
2.29812e-14
3.21708e-14
4.13567e-14
5.05414e-14
5.97201e-14
6.88988e-14
7.80704e-14
8.72459e-14
9.64168e-14
1.05607e-13
1.14791e-13
1.24028e-13
1.33233e-13
1.42506e-13
4.59687e-15
1.37805e-14
2.29663e-14
3.21503e-14
4.1331e-14
5.05105e-14
5.96849e-14
6.88599e-14
7.803e-14
8.72053e-14
9.63793e-14
1.05578e-13
1.14782e-13
1.24047e-13
1.33282e-13
1.42592e-13
4.5938e-15
1.37715e-14
2.29517e-14
3.21304e-14
4.13058e-14
5.04796e-14
5.96486e-14
6.88187e-14
7.79858e-14
8.71607e-14
9.63399e-14
1.05549e-13
1.14769e-13
1.24055e-13
1.33316e-13
1.42651e-13
4.59079e-15
1.37617e-14
2.29353e-14
3.21078e-14
4.12779e-14
5.0448e-14
5.9616e-14
6.87881e-14
7.79615e-14
8.71469e-14
9.6341e-14
1.05561e-13
1.14789e-13
1.24072e-13
1.3334e-13
1.42674e-13
4.58753e-15
1.37553e-14
2.29251e-14
3.20952e-14
4.12652e-14
5.04386e-14
5.96138e-14
6.87971e-14
7.79853e-14
8.71855e-14
9.63933e-14
1.05619e-13
1.14848e-13
1.24113e-13
1.33369e-13
1.42674e-13
4.58531e-15
1.37581e-14
2.29311e-14
3.21057e-14
4.12817e-14
5.04617e-14
5.96439e-14
6.88341e-14
7.80291e-14
8.72337e-14
9.6446e-14
1.05672e-13
1.14903e-13
1.24157e-13
1.33408e-13
1.42686e-13
4.58611e-15
1.37649e-14
2.29426e-14
3.21221e-14
4.13029e-14
5.04877e-14
5.96743e-14
6.88677e-14
7.80654e-14
8.72714e-14
9.64856e-14
1.05711e-13
1.14942e-13
1.24192e-13
1.33443e-13
1.42711e-13
4.58832e-15
1.37707e-14
2.29521e-14
3.21351e-14
4.13194e-14
5.0508e-14
5.96987e-14
6.88959e-14
7.8097e-14
8.7305e-14
9.65204e-14
1.05745e-13
1.14974e-13
1.24219e-13
1.33466e-13
1.42727e-13
4.59026e-15
1.3776e-14
2.2961e-14
3.21475e-14
4.13353e-14
5.05271e-14
5.97207e-14
6.89202e-14
7.81232e-14
8.73321e-14
9.6548e-14
1.05772e-13
1.14999e-13
1.2424e-13
1.33482e-13
1.42733e-13
4.59201e-15
1.37807e-14
2.29686e-14
3.21581e-14
4.13487e-14
5.05432e-14
5.97393e-14
6.89408e-14
7.81454e-14
8.73551e-14
9.6571e-14
1.05793e-13
1.15019e-13
1.24256e-13
1.33493e-13
1.42737e-13
4.59356e-15
1.37847e-14
2.29754e-14
3.21674e-14
4.13605e-14
5.05571e-14
5.97552e-14
6.89582e-14
7.81638e-14
8.73738e-14
9.65893e-14
1.0581e-13
1.15033e-13
1.24267e-13
1.335e-13
1.42737e-13
4.59492e-15
1.37883e-14
2.29812e-14
3.21754e-14
4.13706e-14
5.0569e-14
5.97686e-14
6.89727e-14
7.8179e-14
8.7389e-14
9.66041e-14
1.05823e-13
1.15045e-13
1.24275e-13
1.33504e-13
1.42735e-13
4.5961e-15
1.37913e-14
2.29862e-14
3.21823e-14
4.13791e-14
5.0579e-14
5.97798e-14
6.89847e-14
7.81915e-14
8.74012e-14
9.66156e-14
1.05834e-13
1.15053e-13
1.2428e-13
1.33505e-13
1.42732e-13
4.59711e-15
1.3794e-14
2.29906e-14
3.21882e-14
4.13865e-14
5.05876e-14
5.97894e-14
6.89949e-14
7.82019e-14
8.74114e-14
9.66251e-14
1.05842e-13
1.15059e-13
1.24283e-13
1.33505e-13
1.42728e-13
4.598e-15
1.37962e-14
2.29942e-14
3.21931e-14
4.13926e-14
5.05946e-14
5.97971e-14
6.9003e-14
7.82101e-14
8.74192e-14
9.66322e-14
1.05847e-13
1.15063e-13
1.24284e-13
1.33504e-13
1.42722e-13
4.59874e-15
1.3798e-14
2.29971e-14
3.21971e-14
4.13975e-14
5.06003e-14
5.98033e-14
6.90094e-14
7.82164e-14
8.7425e-14
9.66372e-14
1.05851e-13
1.15065e-13
1.24284e-13
1.33501e-13
1.42717e-13
4.59935e-15
1.37995e-14
2.29996e-14
3.22004e-14
4.14015e-14
5.06048e-14
5.98082e-14
6.90144e-14
7.82213e-14
8.74295e-14
9.66408e-14
1.05853e-13
1.15066e-13
1.24283e-13
1.33498e-13
1.42711e-13
4.59986e-15
1.38007e-14
2.30016e-14
3.22031e-14
4.14048e-14
5.06085e-14
5.98121e-14
6.90183e-14
7.8225e-14
8.74326e-14
9.66432e-14
1.05855e-13
1.15066e-13
1.24281e-13
1.33494e-13
1.42704e-13
4.60027e-15
1.38017e-14
2.30032e-14
3.22052e-14
4.14073e-14
5.06113e-14
5.98151e-14
6.90212e-14
7.82276e-14
8.74347e-14
9.66446e-14
1.05855e-13
1.15065e-13
1.24279e-13
1.3349e-13
1.42698e-13
4.6006e-15
1.38025e-14
2.30044e-14
3.22068e-14
4.14093e-14
5.06134e-14
5.98173e-14
6.90233e-14
7.82294e-14
8.7436e-14
9.66452e-14
1.05855e-13
1.15063e-13
1.24276e-13
1.33486e-13
1.42692e-13
4.60086e-15
1.3803e-14
2.30053e-14
3.2208e-14
4.14106e-14
5.06148e-14
5.98186e-14
6.90244e-14
7.82302e-14
8.74363e-14
9.66448e-14
1.05853e-13
1.15061e-13
1.24272e-13
1.33481e-13
1.42686e-13
4.60105e-15
1.38034e-14
2.30058e-14
3.22087e-14
4.14114e-14
5.06156e-14
5.98193e-14
6.90248e-14
7.82303e-14
8.74358e-14
9.66437e-14
1.05851e-13
1.15058e-13
1.24268e-13
1.33476e-13
1.42679e-13
4.60117e-15
1.38037e-14
2.30064e-14
3.22094e-14
4.14122e-14
5.06164e-14
5.982e-14
6.90254e-14
7.82306e-14
8.74357e-14
9.66431e-14
1.0585e-13
1.15056e-13
1.24265e-13
1.33472e-13
1.42674e-13
4.60129e-15
1.38039e-14
2.30066e-14
3.22097e-14
4.14125e-14
5.06166e-14
5.98201e-14
6.90252e-14
7.823e-14
8.74347e-14
9.66415e-14
1.05848e-13
1.15053e-13
1.24262e-13
1.33467e-13
1.42668e-13
4.60135e-15
1.3804e-14
2.30068e-14
3.22099e-14
4.14127e-14
5.06168e-14
5.98201e-14
6.9025e-14
7.82295e-14
8.74338e-14
9.66401e-14
1.05846e-13
1.15051e-13
1.24258e-13
1.33463e-13
1.42664e-13
4.6014e-15
1.38039e-14
2.30067e-14
3.22097e-14
4.14123e-14
5.06162e-14
5.98192e-14
6.90238e-14
7.8228e-14
8.74318e-14
9.66376e-14
1.05843e-13
1.15047e-13
1.24254e-13
1.33458e-13
1.42658e-13
4.60138e-15
1.38037e-14
2.30064e-14
3.22092e-14
4.14116e-14
5.06153e-14
5.9818e-14
6.90223e-14
7.82261e-14
8.74294e-14
9.66347e-14
1.05839e-13
1.15043e-13
1.24249e-13
1.33453e-13
1.42651e-13
4.60132e-15
1.38037e-14
2.30063e-14
3.22091e-14
4.14115e-14
5.0615e-14
5.98177e-14
6.90217e-14
7.82253e-14
8.74283e-14
9.66333e-14
1.05837e-13
1.1504e-13
1.24246e-13
1.33449e-13
1.42648e-13
4.60132e-15
1.38039e-14
2.30065e-14
3.22094e-14
4.14118e-14
5.06153e-14
5.98179e-14
6.90219e-14
7.82253e-14
8.74282e-14
9.6633e-14
1.05837e-13
1.1504e-13
1.24245e-13
1.33448e-13
1.42646e-13
4.60136e-15
1.38031e-14
2.30052e-14
3.22075e-14
4.14094e-14
5.06123e-14
5.98143e-14
6.90177e-14
7.82204e-14
8.74226e-14
9.66266e-14
1.0583e-13
1.15032e-13
1.24236e-13
1.33438e-13
1.42635e-13
4.60111e-15
1.3803e-14
2.3005e-14
3.22072e-14
4.14089e-14
5.06117e-14
5.98136e-14
6.90167e-14
7.82192e-14
8.74211e-14
9.66249e-14
1.05828e-13
1.15029e-13
1.24234e-13
1.33435e-13
1.42632e-13
4.60107e-15
1.38027e-14
2.30045e-14
3.22065e-14
4.14079e-14
5.06105e-14
5.9812e-14
6.90149e-14
7.82171e-14
8.74186e-14
9.6622e-14
1.05824e-13
1.15026e-13
1.2423e-13
1.33431e-13
1.42627e-13
4.60096e-15
1.38023e-14
2.30039e-14
3.22056e-14
4.14068e-14
5.0609e-14
5.98103e-14
6.90128e-14
7.82146e-14
8.74158e-14
9.66188e-14
1.05821e-13
1.15022e-13
1.24225e-13
1.33426e-13
1.42622e-13
4.60084e-15
1.38021e-14
2.30036e-14
3.22052e-14
4.14063e-14
5.06085e-14
5.98096e-14
6.90119e-14
7.82136e-14
8.74146e-14
9.66174e-14
1.05819e-13
1.1502e-13
1.24223e-13
1.33424e-13
1.42619e-13
4.6008e-15
1.38014e-14
2.30023e-14
3.22034e-14
4.14039e-14
5.06055e-14
5.98061e-14
6.90079e-14
7.8209e-14
8.74094e-14
9.66116e-14
1.05813e-13
1.15013e-13
1.24215e-13
1.33415e-13
1.4261e-13
4.60054e-15
1.38009e-14
2.30015e-14
3.22022e-14
4.14025e-14
5.06037e-14
5.98039e-14
6.90053e-14
7.8206e-14
8.7406e-14
9.66079e-14
1.05809e-13
1.15008e-13
1.2421e-13
1.3341e-13
1.42604e-13
4.60038e-15
1.38008e-14
2.30013e-14
3.2202e-14
4.14021e-14
5.06033e-14
5.98034e-14
6.90047e-14
7.82053e-14
8.74052e-14
9.66069e-14
1.05808e-13
1.15007e-13
1.24209e-13
1.33408e-13
1.42602e-13
4.60034e-15
1.37997e-14
2.29995e-14
3.21995e-14
4.13989e-14
5.05993e-14
5.97987e-14
6.89992e-14
7.81991e-14
8.73983e-14
9.65992e-14
1.05799e-13
1.14998e-13
1.24199e-13
1.33398e-13
1.42591e-13
4.59998e-15
1.37994e-14
2.2999e-14
3.21988e-14
4.1398e-14
5.05982e-14
5.97973e-14
6.89977e-14
7.81973e-14
8.73963e-14
9.6597e-14
1.05797e-13
1.14995e-13
1.24196e-13
1.33394e-13
1.42588e-13
4.59988e-15
1.3799e-14
2.29983e-14
3.21977e-14
4.13966e-14
5.05965e-14
5.97954e-14
6.89954e-14
7.81948e-14
8.73934e-14
9.65938e-14
1.05793e-13
1.14991e-13
1.24192e-13
1.3339e-13
1.42583e-13
4.59974e-15
1.37983e-14
2.29972e-14
3.21962e-14
4.13946e-14
5.05941e-14
5.97925e-14
6.89921e-14
7.8191e-14
8.73892e-14
9.65892e-14
1.05788e-13
1.14986e-13
1.24186e-13
1.33384e-13
1.42576e-13
4.59952e-15
1.37975e-14
2.29959e-14
3.21943e-14
4.13922e-14
5.05912e-14
5.9789e-14
6.89881e-14
7.81865e-14
8.73841e-14
9.65835e-14
1.05782e-13
1.14979e-13
1.24179e-13
1.33376e-13
1.42568e-13
4.59925e-15
1.37974e-14
2.29957e-14
3.2194e-14
4.13919e-14
5.05907e-14
5.97885e-14
6.89875e-14
7.81858e-14
8.73833e-14
9.65827e-14
1.05781e-13
1.14978e-13
1.24178e-13
1.33375e-13
1.42567e-13
4.59921e-15
1.37965e-14
2.29941e-14
3.21919e-14
4.13891e-14
5.05874e-14
5.97846e-14
6.89829e-14
7.81806e-14
8.73776e-14
9.65764e-14
1.05774e-13
1.14971e-13
1.2417e-13
1.33366e-13
1.42558e-13
4.5989e-15
1.37958e-14
2.29931e-14
3.21904e-14
4.13873e-14
5.05851e-14
5.97819e-14
6.89798e-14
7.81771e-14
8.73737e-14
9.65721e-14
1.05769e-13
1.14966e-13
1.24164e-13
1.33361e-13
1.42552e-13
4.5987e-15
1.37949e-14
2.29915e-14
3.21882e-14
4.13844e-14
5.05816e-14
5.97777e-14
6.89751e-14
7.81718e-14
8.73677e-14
9.65655e-14
1.05762e-13
1.14958e-13
1.24156e-13
1.33352e-13
1.42542e-13
4.59838e-15
1.37947e-14
2.29912e-14
3.21878e-14
4.13839e-14
5.0581e-14
5.9777e-14
6.89742e-14
7.81708e-14
8.73667e-14
9.65644e-14
1.05761e-13
1.14957e-13
1.24155e-13
1.33351e-13
1.42541e-13
4.59832e-15
1.37936e-14
2.29894e-14
3.21853e-14
4.13806e-14
5.0577e-14
5.97723e-14
6.89688e-14
7.81646e-14
8.73598e-14
9.65568e-14
1.05753e-13
1.14948e-13
1.24145e-13
1.33341e-13
1.42531e-13
4.59796e-15
1.37931e-14
2.29885e-14
3.2184e-14
4.1379e-14
5.0575e-14
5.97699e-14
6.8966e-14
7.81615e-14
8.73563e-14
9.6553e-14
1.05749e-13
1.14943e-13
1.24141e-13
1.33336e-13
1.42526e-13
4.59778e-15
1.37923e-14
2.29872e-14
3.21822e-14
4.13767e-14
5.05722e-14
5.97666e-14
6.89622e-14
7.81572e-14
8.73515e-14
9.65477e-14
1.05743e-13
1.14937e-13
1.24134e-13
1.33329e-13
1.42519e-13
4.59752e-15
1.37916e-14
2.2986e-14
3.21805e-14
4.13745e-14
5.05694e-14
5.97634e-14
6.89585e-14
7.81529e-14
8.73467e-14
9.65423e-14
1.05737e-13
1.14931e-13
1.24127e-13
1.33322e-13
1.42512e-13
4.59728e-15
1.37907e-14
2.29845e-14
3.21783e-14
4.13717e-14
5.0566e-14
5.97593e-14
6.89538e-14
7.81476e-14
8.73407e-14
9.65357e-14
1.0573e-13
1.14923e-13
1.24119e-13
1.33312e-13
1.42503e-13
4.59697e-15
1.37898e-14
2.2983e-14
3.21763e-14
4.1369e-14
5.05628e-14
5.97555e-14
6.89493e-14
7.81425e-14
8.73349e-14
9.65292e-14
1.05722e-13
1.14915e-13
1.2411e-13
1.33302e-13
1.42491e-13
4.59668e-15
1.37891e-14
2.29819e-14
3.21747e-14
4.1367e-14
5.05603e-14
5.97526e-14
6.8946e-14
7.81387e-14
8.73306e-14
9.65244e-14
1.05717e-13
1.14909e-13
1.24103e-13
1.33294e-13
1.42481e-13
4.59646e-15
1.37881e-14
2.29803e-14
3.21725e-14
4.13641e-14
5.05568e-14
5.97484e-14
6.89411e-14
7.81331e-14
8.73244e-14
9.65176e-14
1.0571e-13
1.14901e-13
1.24094e-13
1.33285e-13
1.42471e-13
4.59613e-15
-1.26218e-29
0
1.26218e-29
0
2.52435e-29
-2.52435e-29
5.04871e-29
-1.00974e-28
0
-5.04871e-29
-1.51461e-28
5.04871e-29
5.04871e-29
0
1.00974e-28
0
)
;


// ************************************************************************* //
