/*--------------------------------*- C++ -*----------------------------------*\
| =========                 |                                                 |
| \\      /  F ield         | OpenFOAM: The Open Source CFD Toolbox           |
|  \\    /   O peration     | Version:  4.1                                   |
|   \\  /    A nd           | Web:      www.OpenFOAM.org                      |
|    \\/     M anipulation  |                                                 |
\*---------------------------------------------------------------------------*/
FoamFile
{
    version     2.0;
    format      ascii;
    class       volScalarField;
    location    "0.000470";
    object      epsilon;
}
// * * * * * * * * * * * * * * * * * * * * * * * * * * * * * * * * * * * * * //

dimensions      [0 2 -3 0 0 0 0];

internalField   nonuniform List<scalar> 
3072
(
75.569656
75.849026
76.423087
76.877922
77.55794
78.094122
78.660648
79.199811
79.594336
80.024694
80.053091
79.979231
79.62641
79.08514
78.391647
77.364892
76.142809
74.258656
71.286179
66.086668
57.371077
45.59864
31.541306
19.948159
61.710375
62.16902
62.752239
63.222493
63.856123
64.312429
64.815934
65.259348
65.604005
65.948356
65.951036
65.907036
65.617365
65.212961
64.666761
63.832859
62.758826
60.905527
57.770285
52.352611
44.033295
34.010421
24.594058
17.93608
45.822423
46.278768
46.837817
47.314844
47.907798
48.380782
48.916239
49.389726
49.778602
50.120094
50.240183
50.284237
50.13772
49.866475
49.420596
48.712664
47.706463
46.087062
43.541509
39.540257
33.907544
27.429547
21.269916
16.807697
35.49997
35.952488
36.46954
36.957475
37.505973
38.013131
38.554018
39.057382
39.511578
39.88385
40.146908
40.297557
40.328679
40.21992
39.930884
39.424935
38.607457
37.32836
35.364045
32.409783
28.425357
23.908478
19.562326
16.269126
28.955013
29.352929
29.778478
30.226244
30.687013
31.180607
31.667135
32.139277
32.579083
32.953581
33.281327
33.501702
33.636016
33.62928
33.457872
33.095375
32.454177
31.469564
29.977893
27.831571
25.011183
21.781256
18.554918
15.977168
24.699991
25.002224
25.331472
25.700581
26.095457
26.530336
26.984436
27.4435
27.884278
28.30581
28.681358
28.999846
29.219631
29.31022
29.232469
28.95895
28.456592
27.672714
26.541182
24.998137
22.991595
20.612774
18.038333
15.852739
22.67423
22.851152
23.097438
23.407937
23.770356
24.202865
24.689243
25.215858
25.764197
26.306901
26.815222
27.254758
27.584715
27.749649
27.713364
27.457097
26.965929
26.23318
25.259558
24.021118
22.422738
20.415683
18.021999
15.875245
24.552312
24.562076
24.715429
24.997196
25.384857
25.892827
26.532256
27.29675
28.155851
29.044673
29.891593
30.620366
31.149867
31.397453
31.310291
30.849081
30.026848
28.897308
27.524403
25.922157
23.973116
21.537976
18.684186
16.181019
61.723722
62.178539
62.756714
63.22366
63.857637
64.316847
64.820222
65.260879
65.606373
65.954484
65.963428
65.928911
65.645294
65.243924
64.700824
63.867919
62.791319
60.93272
57.791931
52.368286
44.042166
34.013246
24.597002
17.936959
45.147109
45.460305
45.827356
46.092747
46.514346
46.78607
47.14622
47.446337
47.714329
47.964111
48.0056
48.053531
47.927611
47.746739
47.431958
46.893677
46.0719
44.538186
41.921338
37.682605
31.869956
25.575675
20.214466
16.435574
30.073018
30.375883
30.743024
31.082455
31.519993
31.907365
32.363977
32.780968
33.17663
33.547433
33.80037
34.016155
34.10825
34.116426
33.988344
33.669047
33.095444
32.074795
30.435381
27.975337
24.803918
21.431387
18.298415
15.835167
22.673961
22.994917
23.372408
23.762479
24.210003
24.666995
25.155493
25.638681
26.10872
26.544806
26.924845
27.240221
27.476238
27.611986
27.62021
27.467156
27.093335
26.417227
25.342793
23.785768
21.831738
19.716562
17.50539
15.590172
19.013981
19.33827
19.704104
20.110042
20.548611
21.029356
21.522233
22.014403
22.491685
22.941605
23.356285
23.706699
23.984501
24.158061
24.210328
24.116637
23.840198
23.348848
22.590819
21.551343
20.286166
18.85339
17.116798
15.472661
17.29652
17.627108
18.002593
18.417282
18.8718
19.353111
19.854596
20.352015
20.835766
21.291976
21.710487
22.069657
22.348643
22.523849
22.576255
22.486091
22.238066
21.819076
21.223759
20.471049
19.587141
18.515347
16.983974
15.432139
17.720185
18.045213
18.422977
18.844606
19.304468
19.79269
20.296185
20.799707
21.292855
21.75591
22.171388
22.518628
22.778979
22.928378
22.943157
22.80632
22.509468
22.053783
21.452242
20.734725
19.905287
18.836815
17.186449
15.493623
22.656657
22.834296
23.075724
23.386849
23.749243
24.16724
24.635014
25.149242
25.700696
26.246855
26.752948
27.183717
27.504571
27.663335
27.626936
27.375114
26.885665
26.162522
25.205061
23.984237
22.406623
20.416105
18.026109
15.875662
45.79389
46.238146
46.782874
47.250681
47.842225
48.316148
48.848363
49.309638
49.700328
50.049565
50.178238
50.233571
50.1006
49.840805
49.403194
48.700292
47.690568
46.066846
43.52204
39.525811
33.901166
27.425703
21.272141
16.809112
30.042475
30.339505
30.699086
31.034891
31.470519
31.856188
32.308544
32.721628
33.119725
33.49432
33.750188
33.965073
34.062402
34.076347
33.953667
33.638078
33.06394
32.045416
30.413106
27.963429
24.802763
21.434249
18.298874
15.83508
20.232853
20.54969
20.924646
21.315122
21.781724
22.245305
22.748153
23.233912
23.706841
24.152368
24.522237
24.836898
25.048485
25.161138
25.145384
24.969609
24.603737
23.988219
23.084382
21.856901
20.372338
18.788093
17.080313
15.483619
16.399879
16.731186
17.115715
17.533339
17.999187
18.488443
18.999301
19.50784
20.006908
20.484296
20.912165
21.279068
21.562856
21.748986
21.817315
21.747762
21.523275
21.128094
20.559139
19.81996
18.942835
17.953699
16.691218
15.369997
14.944538
15.279565
15.659982
16.083022
16.542991
17.035563
17.543391
18.055409
18.559251
19.046196
19.495719
19.886059
20.198022
20.412998
20.51396
20.48638
20.321591
20.022603
19.599917
19.072557
18.452284
17.692004
16.570241
15.330764
14.89096
15.23356
15.623216
16.052848
16.51759
17.011321
17.521878
18.035909
18.545606
19.036413
19.488304
19.878218
20.187344
20.39752
20.492393
20.457851
20.288561
19.98955
19.578803
19.083793
18.511931
17.779918
16.619755
15.335912
17.29297
17.622265
17.997778
18.409298
18.857778
19.326323
19.810603
20.297735
20.784285
21.249053
21.669605
22.02267
22.295656
22.46937
22.525676
22.441704
22.201621
21.791381
21.20442
20.460021
19.583792
18.519491
16.9876
15.433076
24.69115
24.989526
25.315205
25.678618
26.061295
26.467546
26.883522
27.317488
27.758876
28.191368
28.572868
28.882419
29.09235
29.173292
29.09248
28.822611
28.324457
27.553137
26.446002
24.935776
22.964576
20.613864
18.044976
15.85437
35.446075
35.882952
36.384877
36.863379
37.4119
37.92135
38.456004
38.957493
39.426418
39.817738
40.092695
40.257671
40.305311
40.209219
39.929005
39.426571
38.601472
37.312742
35.344225
32.39405
28.417585
23.903523
19.564508
16.270659
22.636298
22.95146
23.322173
23.70886
24.155524
24.612787
25.100833
25.58509
26.065401
26.513058
26.896847
27.21486
27.458818
27.599397
27.611764
27.459916
27.081504
26.401088
25.326582
23.775084
21.829305
19.71814
17.505811
15.590089
16.394087
16.726346
17.110152
17.52717
17.991976
18.48047
18.993335
19.505182
20.010896
20.493908
20.924067
21.292429
21.57954
21.766417
21.835222
21.765388
21.538438
21.139714
20.566786
19.82523
18.948208
17.958077
16.692582
15.370062
14.271447
14.608787
14.995466
15.421331
15.888808
16.38364
16.899078
17.416996
17.930422
18.425035
18.87908
19.275306
19.593282
19.818733
19.934836
19.927661
19.7906
19.527134
19.15242
18.685416
18.135761
17.463438
16.461566
15.309731
13.8491
14.184622
14.567913
14.992577
15.453939
15.944175
16.453479
16.968769
17.481103
17.979148
18.442295
18.847694
19.175709
19.412199
19.542289
19.553982
19.442826
19.215107
18.889568
18.487598
18.011131
17.398608
16.431308
15.300039
14.94585
15.281631
15.661629
16.082313
16.535857
17.019623
17.51873
18.02617
18.532769
19.025043
19.480439
19.872871
20.183847
20.398214
20.500635
20.476389
20.317002
20.021888
19.601135
19.074368
18.454093
17.693688
16.570089
15.330731
19.019505
19.341903
19.703629
20.10744
20.535361
20.993012
21.457272
21.930374
22.408064
22.864062
23.281479
23.626754
23.895941
24.060891
24.108416
24.014645
23.744062
23.265873
22.525878
21.509902
20.268321
18.854663
17.120464
15.47393
28.95198
29.343883
29.762855
30.205307
30.648682
31.106484
31.542678
31.9792
32.413276
32.7922
33.123791
33.342378
33.473257
33.451204
33.265897
32.89217
32.252959
31.289942
29.833272
27.736988
24.969042
21.78877
18.5631
15.979724
28.909299
29.293896
29.704646
30.141982
30.602068
31.098173
31.582268
32.065095
32.522445
32.919296
33.262593
33.493928
33.646334
33.652549
33.490339
33.125461
32.475204
31.477859
29.97674
27.828782
25.011798
21.786174
18.558726
15.978257
18.986748
19.308644
19.669488
20.071393
20.507764
20.98777
21.480918
21.985723
22.478007
22.942091
23.363907
23.718316
24.001397
24.181047
24.238067
24.14319
23.862555
23.364161
22.599662
21.55791
20.29395
18.860706
17.119412
15.472783
14.938929
15.276127
15.657186
16.079748
16.537676
17.028905
17.541153
18.063039
18.577486
19.072654
19.52695
19.922055
20.237898
20.45595
20.557798
20.528435
20.359424
20.053038
19.621144
19.086423
18.462671
17.699275
16.572527
15.330866
13.850809
14.187545
14.571676
14.9959
15.455191
15.944409
16.456084
16.976501
17.493784
17.995752
18.462463
18.871257
19.201431
19.439315
19.569198
19.578621
19.463986
19.231938
18.901067
18.494869
18.016757
17.402521
16.432591
15.300115
14.276223
14.613083
14.999506
15.423802
15.885097
16.371269
16.880107
17.395822
17.907852
18.407074
18.868393
19.268978
19.587051
19.813183
19.930451
19.924704
19.791332
19.531527
19.158768
18.690852
18.139348
17.464573
16.460099
15.309358
16.413796
16.743664
17.125388
17.539523
17.995503
18.46905
18.964503
19.466806
19.965248
20.448435
20.885075
21.256486
21.539208
21.725207
21.792785
21.722174
21.502277
21.114904
20.552879
19.818591
18.944867
17.957936
16.69111
15.370354
22.691468
23.008181
23.38165
23.771514
24.207012
24.637253
25.089645
25.548022
26.007782
26.440749
26.820833
27.132371
27.358259
27.481302
27.474581
27.304528
26.92814
26.268328
25.222489
23.706707
21.797056
19.717144
17.509894
15.592784
35.496299
35.938683
36.448299
36.934396
37.467687
37.938021
38.425189
38.888504
39.325815
39.692401
39.959292
40.115649
40.14537
40.022748
39.710079
39.172831
38.347473
37.094005
35.176478
32.289089
28.375169
23.926719
19.573399
16.27312
24.668573
24.960205
25.27819
25.63948
26.035021
26.468745
26.926234
27.394617
27.857674
28.299823
28.692065
29.017689
29.250763
29.357953
29.288309
29.013513
28.50708
27.713368
26.569094
25.01815
23.008872
20.626665
18.043278
15.85326
17.281552
17.609968
17.983969
18.396138
18.848599
19.32851
19.83331
20.341673
20.841193
21.313482
21.740913
22.105397
22.39131
22.574472
22.632754
22.544079
22.293463
21.867355
21.260953
20.49936
19.609403
18.529846
16.988617
15.432506
14.889616
15.234397
15.625185
16.054606
16.516965
17.009756
17.526774
18.052314
18.571507
19.069195
19.528267
19.926919
20.24331
20.458211
20.554912
20.518788
20.34275
20.033059
19.611084
19.106528
18.527289
17.788425
16.62224
15.336
14.951399
15.288149
15.66913
16.090239
16.541626
17.022833
17.526974
18.041655
18.553624
19.050437
19.51227
19.913585
20.230758
20.448095
20.550563
20.523432
20.356941
20.052789
19.623061
19.089264
18.463854
17.698959
16.571837
15.331005
16.419899
16.749539
17.132378
17.54593
18.001079
18.472621
18.972117
19.476575
19.975503
20.460154
20.900734
21.277929
21.565447
21.752246
21.820709
21.749004
21.526059
21.134013
20.567345
19.829093
18.952871
17.961862
16.692346
15.370612
20.274994
20.588914
20.961209
21.35026
21.806722
22.250841
22.729462
23.200258
23.659461
24.106573
24.482543
24.804437
25.015535
25.126032
25.102937
24.916226
24.552772
23.946163
23.057178
21.843402
20.372391
18.799203
17.08471
15.485958
30.107787
30.407814
30.771484
31.118815
31.551348
31.911728
32.323311
32.704036
33.071351
33.424125
33.673473
33.887797
33.973238
33.966587
33.805333
33.445436
32.856462
31.84951
30.254249
27.853677
24.751051
21.437869
18.309566
15.840754
45.818876
46.264576
46.813441
47.293829
47.885831
48.329718
48.813824
49.243777
49.602624
49.924717
50.049103
50.109116
49.96432
49.68052
49.198164
48.441458
47.413275
45.815394
43.330052
39.403555
33.856101
27.456678
21.288857
16.813543
22.655025
22.824884
23.064361
23.373026
23.736202
24.168651
24.657748
25.191619
25.754376
26.309282
26.82807
27.277227
27.622656
27.805578
27.781384
27.529976
27.040523
26.302227
25.316712
24.064569
22.454433
20.434768
18.027634
15.875499
17.718407
18.04263
18.420308
18.841951
19.299679
19.787271
20.294687
20.805979
21.307043
21.778478
22.203556
22.562544
22.834125
22.993347
23.015781
22.881652
22.581462
22.115697
21.500598
20.770213
19.929594
18.850329
17.190869
15.494191
17.30081
17.63206
18.00998
18.422051
18.864796
19.333809
19.823864
20.320824
20.814275
21.286205
21.718468
22.086389
22.369236
22.546627
22.603449
22.517649
22.268902
21.844821
21.244275
20.487938
19.600502
18.526859
16.989824
15.433465
19.029154
19.35299
19.716365
20.120538
20.549802
21.005806
21.478142
21.95746
22.43837
22.899472
23.329066
23.69095
23.970051
24.138156
24.185616
24.090583
23.81207
23.321161
22.569143
21.541923
20.28841
18.862239
17.123028
15.474778
22.701167
23.017436
23.390789
23.780571
24.220001
24.652227
25.114685
25.575013
26.031518
26.467583
26.858458
27.182709
27.417338
27.542012
27.536481
27.36632
26.985728
26.317992
25.264557
23.740127
21.81987
19.726618
17.512947
15.593501
30.119077
30.415783
30.780365
31.127421
31.567002
31.934002
32.348196
32.726585
33.088888
33.443631
33.698089
33.917795
34.00551
33.99934
33.841075
33.481645
32.892307
31.88273
30.285472
27.882459
24.774294
21.450702
18.313246
15.841126
45.179169
45.486441
45.855774
46.144902
46.590972
46.847747
47.156116
47.397419
47.608336
47.824821
47.860606
47.921465
47.789627
47.580825
47.198942
46.574797
45.713413
44.186524
41.630714
37.483172
31.781375
25.578871
20.235138
16.444392
61.690956
62.127123
62.700561
63.18211
63.832047
64.277231
64.741187
65.140475
65.445091
65.767794
65.782877
65.771872
65.492875
65.077089
64.477681
63.574864
62.463634
60.62596
57.54959
52.210366
43.985985
34.049462
24.622686
17.942691
24.548976
24.554291
24.701
24.983089
25.368557
25.875159
26.516266
27.282949
28.143785
29.034494
29.889059
30.633727
31.185176
31.456427
31.391038
30.94444
30.126209
28.986204
27.594225
25.973612
24.007439
21.555931
18.690503
16.18237
22.666735
22.846791
23.088351
23.393559
23.752044
24.17062
24.645019
25.165764
25.719557
26.26881
26.786946
27.23606
27.571756
27.744129
27.720032
27.471757
26.980058
26.246064
25.272128
24.031703
22.435067
20.43073
18.032061
15.87772
24.702157
25.003728
25.332977
25.697483
26.07786
26.488876
26.913037
27.3533
27.798315
28.234958
28.632216
28.961965
29.186087
29.274171
29.198478
28.927285
28.424443
27.640396
26.517041
24.987892
22.994427
20.626053
18.05006
15.856183
28.96148
29.353803
29.773303
30.220649
30.672195
31.135787
31.584234
32.023428
32.454426
32.836879
33.182338
33.420397
33.563739
33.547482
33.366482
32.996076
32.351473
31.374157
29.902358
27.788893
25.000906
21.797116
18.567696
15.981355
35.503224
35.943456
36.451275
36.940476
37.486898
37.971874
38.470884
38.933095
39.360351
39.725828
40.001668
40.169092
40.207897
40.089809
39.781661
39.24788
38.419452
37.156339
35.227342
32.327192
28.399726
23.932002
19.577221
16.274242
45.828199
46.268034
46.816767
47.29977
47.905299
48.364736
48.851838
49.275859
49.625805
49.945627
50.070234
50.131205
49.98892
49.709483
49.232111
48.479474
47.451675
45.850057
43.358792
39.425743
33.871953
27.46034
21.292532
16.814287
61.688306
62.122039
62.692801
63.173818
63.83098
64.28226
64.74817
65.143497
65.444192
65.765241
65.777883
65.763252
65.483622
65.068857
64.475953
63.577116
62.468035
60.630775
57.553594
52.213151
43.988056
34.045737
24.624101
17.942868
75.506592
75.763006
76.32673
76.789756
77.491238
78.022395
78.562799
79.070082
79.431953
79.850861
79.892643
79.845568
79.50265
78.958907
78.233299
77.163208
75.919207
74.067973
71.155871
66.017087
57.364828
45.66478
31.575996
19.950842
51.816113
79.600838
100.6391
112.26268
117.0855
119.95062
122.48088
124.79297
126.6485
128.21307
129.34429
130.19882
130.77431
130.94198
130.87227
130.30654
129.59454
128.62133
127.42013
126.12275
124.54783
123.01118
121.34244
119.7357
34.835315
54.142207
71.806571
83.542017
89.791733
93.303585
95.769014
97.703027
99.11481
100.209
100.88533
101.28043
101.40209
101.18891
100.78303
100.00493
99.123805
98.059534
96.87671
95.664763
94.290509
93.021478
91.683035
90.482321
26.084487
40.309594
54.923211
65.440729
71.592394
75.075723
77.357346
79.037929
80.222148
81.074629
81.54926
81.730918
81.667891
81.319576
80.81776
80.059913
79.208981
78.240581
77.202067
76.180299
75.058422
74.052104
73.010008
72.095805
21.781148
32.459184
44.407328
53.563002
59.400904
62.853422
65.078794
66.656782
67.756889
68.469957
68.823246
68.846803
68.625372
68.173679
67.545478
66.761378
65.892798
64.974524
64.021711
63.125136
62.206623
61.373143
60.551001
59.831378
19.698102
27.796303
37.46689
45.340028
50.946843
54.577891
57.015845
58.708407
59.888291
60.589827
60.873096
60.784204
60.358985
59.720945
58.874522
57.929505
56.93067
55.903943
54.928241
53.993251
53.159564
52.396044
51.727399
51.144124
19.430403
25.826867
33.495019
40.05388
45.383437
49.271002
52.045039
54.015034
55.380158
56.131696
56.368369
56.122672
55.446119
54.50187
53.325328
52.082419
50.807794
49.601404
48.456015
47.462645
46.60172
45.913453
45.351377
44.974844
20.67692
26.704097
33.42251
39.012549
44.00066
48.158743
51.345793
53.774512
55.536374
56.497342
56.624035
55.960723
54.645149
52.870855
50.814806
48.671993
46.629872
44.867602
43.418663
42.33636
41.587363
41.144032
40.972857
41.068279
25.455791
32.908839
40.941419
47.533628
53.693383
59.290265
63.851615
67.545069
70.356806
71.937142
72.032909
70.649559
67.983339
64.400098
60.287278
56.03649
52.022831
48.58399
45.909282
44.01287
42.817182
42.224959
42.146067
42.53195
261.13153
236.87586
229.1415
224.36366
221.25175
219.29373
217.80842
216.03429
213.52324
210.17008
206.00664
201.15333
195.74599
189.90916
183.7928
177.51285
171.23996
165.06558
159.12823
153.52689
148.34411
143.69721
139.60498
136.20353
214.27698
200.3477
196.67797
194.68715
193.34221
192.29917
191.24274
189.78141
187.65589
184.79994
181.25292
177.09831
172.45691
167.43857
162.16447
156.75475
151.32176
145.97377
140.81132
135.92488
131.39162
127.29126
123.67352
120.61189
187.928
179.83968
178.9025
178.61266
178.26191
177.72027
176.89354
175.58225
173.62463
170.97824
167.68341
163.81904
159.49457
154.81781
149.89995
144.85827
139.79075
134.79933
129.9713
125.38824
121.13025
117.2585
113.83721
110.91529
173.99168
169.68047
170.89509
171.78666
172.05237
171.81195
171.12166
169.88114
167.97783
165.38584
162.13743
158.32162
154.04239
149.413
144.55211
139.56945
134.57081
129.64268
124.87572
120.34511
116.13201
112.29637
108.89997
105.99105
168.93037
167.6817
170.87082
172.65504
173.28412
173.19656
172.567
171.34047
169.4186
166.77049
163.42161
159.46499
155.01435
150.19194
145.13096
139.94356
134.74381
129.62053
124.66834
119.97193
115.6021
111.62821
108.10307
105.08099
171.83221
173.46204
178.63908
181.09562
181.83963
181.72067
181.03562
179.74337
177.72556
174.91906
171.34256
167.08692
162.27267
157.0426
151.54074
145.9006
140.24454
134.66987
129.28936
124.18761
119.44951
115.13814
111.31392
108.02706
183.43992
187.84905
195.20333
198.17486
198.77184
198.39315
197.51074
196.07924
193.91041
190.87076
186.94106
182.20529
176.79625
170.88653
164.65394
158.26611
151.86341
145.55859
139.4663
133.68765
128.3079
123.39603
119.02197
115.25315
206.37065
213.36344
223.54225
227.32947
227.84929
227.19235
226.09149
224.50366
222.1127
218.6619
214.06722
208.41689
201.88001
194.685
187.07643
179.27901
171.48235
163.8323
156.47547
149.53805
143.11735
137.28046
132.07334
127.54315
25.456389
32.909751
40.955543
47.568237
53.734133
59.327471
63.879747
67.565071
70.375951
71.961293
72.063662
70.685576
68.011347
64.40777
60.2734
56.005746
51.984685
48.550379
45.886188
43.99867
42.809915
42.219671
42.136486
42.524225
20.678911
26.706381
33.426288
39.01724
44.003301
48.153594
51.331782
53.756741
55.520086
56.483238
56.613693
55.955577
54.642375
52.863172
50.79312
48.633435
46.581357
44.820661
43.383353
42.313166
41.57326
41.130634
40.95694
41.053791
19.433703
25.833349
33.489765
40.025943
45.330163
49.196429
51.959817
53.929139
55.298783
56.055156
56.298162
56.061249
55.393529
54.450134
53.263676
52.003817
50.717647
49.519195
48.395141
47.422508
46.57487
45.89538
45.340331
44.969571
19.697566
27.804599
37.458016
45.29587
50.882781
54.487348
56.907685
58.594891
59.778275
60.486789
60.777604
60.695642
60.274502
59.636834
58.786051
57.831822
56.827819
55.813731
54.864888
53.952763
53.134123
52.381004
51.719259
51.143848
21.779373
32.47244
44.402481
53.525402
59.338277
62.760351
64.962185
66.53064
67.636796
68.362132
68.723261
68.749666
68.527912
68.074652
67.445101
66.660203
65.794148
64.891517
63.964907
63.089774
62.184426
61.359806
60.546219
59.836754
26.084762
40.331568
54.921625
65.401758
71.520912
74.971637
77.228812
78.900165
80.091699
80.960121
81.444954
81.628169
81.564125
81.213887
80.715527
79.966096
79.12614
78.17543
77.162698
76.158793
75.045065
74.045013
73.012798
72.111707
34.830479
54.166282
71.803978
83.497765
89.705146
93.181836
95.623549
97.551914
98.980484
100.09789
100.78928
101.1861
101.30729
101.09337
100.69302
99.930377
99.069051
98.026529
96.86584
95.663551
94.287529
93.020158
91.693204
90.510473
51.799913
79.613506
100.61453
112.19469
116.9692
119.79938
122.31094
124.62741
126.51275
128.11351
129.26863
130.12532
130.69812
130.86602
130.80191
130.2532
129.56652
128.61816
127.43027
126.12922
124.54016
122.99751
121.34278
119.7615
206.37927
213.38532
223.57469
227.36238
227.8739
227.20758
226.09956
224.50786
222.11647
218.66591
214.06873
208.41223
201.86395
194.65173
187.02366
179.2076
171.40124
163.75542
156.41178
149.48967
143.08276
137.25676
132.05805
127.53446
183.44722
187.86569
195.2261
198.19509
198.7836
198.3967
197.51108
196.08269
193.92122
190.88827
186.95987
182.21675
176.78802
170.84667
164.5767
158.15307
151.72902
145.4272
139.35557
133.60315
128.24788
123.35611
118.99716
115.23923
171.84055
173.47163
178.64268
181.08875
181.82417
181.70153
181.01999
179.73681
177.73066
174.93373
171.35972
167.09666
162.26219
156.99939
151.45876
145.78117
140.10279
134.53103
129.17179
124.09728
119.38495
115.09435
111.28584
108.01076
168.93012
167.67713
170.8501
172.61698
173.23446
173.14331
172.51958
171.30527
169.39781
166.76241
163.41851
159.45591
154.98841
150.14122
145.0525
139.83816
134.62252
129.50243
124.56697
119.89142
115.5414
111.58468
108.07393
105.06358
173.99634
169.67695
170.86384
171.72332
171.96441
171.71262
171.02607
169.79892
167.91339
165.33918
162.10201
158.28599
153.99792
149.3573
144.48601
139.4927
134.48723
129.56145
124.80303
120.28189
116.07841
112.25341
108.86893
105.97167
187.93935
179.83861
178.85758
178.51673
178.12518
177.5619
176.73551
175.43971
173.50688
170.88909
167.61728
163.76226
159.43819
154.76382
149.85143
144.81101
139.74197
134.752
129.92523
125.3405
121.08204
117.21493
113.80354
110.89344
214.29177
200.34507
196.61359
194.55023
193.14591
192.06968
191.01077
189.56961
187.48085
184.67102
181.1652
177.03106
172.39556
167.38616
162.12684
156.72417
151.29057
145.94202
140.77608
135.88118
131.34125
127.24341
123.6358
120.58733
261.14228
236.86705
229.05231
224.17716
220.98343
218.97953
217.49073
215.7462
213.29312
210.01182
205.91317
201.09282
195.69396
189.86737
183.77028
177.49865
171.22265
165.04313
159.09712
153.48323
148.29074
143.64553
139.56415
136.17708
51.800274
79.600645
100.60848
112.19794
116.97783
119.81118
122.32379
124.63984
126.5249
128.12548
129.27598
130.12917
130.69939
130.86352
130.79422
130.24188
129.55423
128.60739
127.42185
126.12246
124.53564
122.99389
121.33578
119.75456
34.827592
54.147692
71.795076
83.501761
89.721665
93.20546
95.649969
97.578615
99.005215
100.1196
100.80777
101.20375
101.32372
101.10814
100.70184
99.933696
99.074625
98.038471
96.880854
95.677596
94.299343
93.029236
91.700908
90.516636
26.082378
40.313549
54.913877
65.407189
71.540823
75.003343
77.266959
78.938963
80.12682
80.989571
81.470588
81.653125
81.588347
81.236597
80.734023
79.98222
79.146341
78.20045
77.187489
76.178532
75.058019
74.054074
73.020189
72.117492
21.781899
32.464243
44.40461
53.542317
59.370289
62.807833
65.020404
66.591205
67.692905
68.409898
68.764364
68.788077
68.563522
68.105812
67.472223
66.688491
65.826891
64.924645
63.991851
63.109145
62.196125
61.367391
60.552206
59.840834
19.700156
27.801896
37.471063
45.334053
50.941814
54.56559
56.999628
58.692263
59.873297
60.572937
60.852815
60.760695
60.328708
59.681135
58.82442
57.870256
56.868637
55.851605
54.893885
53.974043
53.148194
52.390211
51.726159
51.147999
19.431838
25.833626
33.503618
40.07129
45.410985
49.309086
52.090173
54.067295
55.435974
56.183289
56.414737
56.162583
55.473462
54.508597
53.306984
52.042781
50.754351
49.552704
48.42189
47.442987
46.591506
45.907856
45.348881
44.975489
20.678239
26.708333
33.435629
39.044874
44.062099
48.252631
51.464708
53.910863
55.680822
56.64
56.754438
56.07131
54.726735
52.918534
50.830325
48.665513
46.61166
44.845918
43.400819
42.324247
41.58135
41.136336
40.966226
41.063938
25.459439
32.915213
40.959778
47.577252
53.767271
59.401279
63.996929
67.713511
70.536993
72.117361
72.197786
70.784794
68.074503
64.445061
60.297475
56.026939
52.00446
48.565612
45.894599
44.002172
42.811018
42.220646
42.138713
42.522897
261.13842
236.86305
229.05383
224.18406
220.99583
218.99706
217.51082
215.76781
213.3171
210.03861
205.93967
201.11567
195.71293
189.88247
183.78206
177.50729
171.22777
165.04643
159.10149
153.48955
148.29844
143.6521
139.56842
136.17948
214.28453
200.33881
196.61707
194.56315
193.16791
192.09986
191.04565
189.60806
187.52351
184.71718
181.21072
177.07267
172.43402
167.42163
162.15769
156.74903
151.31131
145.96202
140.79886
135.9081
131.36906
127.26638
123.65212
120.59833
187.93423
179.83565
178.86377
178.53068
178.14499
177.58619
176.76246
175.47039
173.54311
170.93123
167.66301
163.81071
159.48991
154.81511
149.89783
144.85148
139.77803
134.78624
129.96103
125.37905
121.11985
117.24618
113.82598
110.90837
173.99697
169.68151
170.87506
171.7366
171.9758
171.72028
171.02973
169.80218
167.92105
165.35443
162.12727
158.32484
154.04957
149.41524
144.54448
139.5489
134.53948
129.60937
124.84866
120.3267
116.11962
112.28641
108.8921
105.98624
168.93501
167.6874
170.86513
172.62796
173.2349
173.13069
172.49453
171.27212
169.36356
166.73453
163.40516
159.46321
155.01556
150.18252
145.10398
139.89805
134.68573
129.56224
124.62136
119.94047
115.58314
111.61624
108.09494
105.07554
171.83576
173.46946
178.64009
181.07903
181.80099
181.66034
180.9586
179.65785
177.64204
174.84645
171.28589
167.0451
162.23449
156.99295
151.47463
145.82089
140.15863
134.59055
129.22851
124.14868
119.42744
115.1253
111.30521
108.02036
183.4414
187.8526
195.20028
198.15342
198.72318
198.31244
197.39807
195.94058
193.75758
190.71695
186.79814
182.07717
176.67591
170.76488
164.5304
158.14497
151.75207
145.46817
139.40356
133.6508
128.28902
123.38593
119.01463
115.24666
206.37089
213.35995
223.52628
227.28867
227.77002
227.06416
225.90976
224.27094
221.84041
218.36912
213.77739
208.14677
201.63554
194.46546
186.88365
179.11664
171.35335
163.73904
156.41607
149.5059
143.10321
137.27406
132.06821
127.53763
25.459496
32.919515
40.971568
47.593497
53.785502
59.413219
64.002512
67.719308
70.541702
72.116783
72.184183
70.760193
68.052054
64.436773
60.305723
56.041694
52.018745
48.574135
45.897445
44.000993
42.806834
42.216802
42.137617
42.528457
20.681652
26.715123
33.446538
39.055397
44.06647
48.24972
51.462757
53.912761
55.685492
56.644793
56.757093
56.071191
54.726068
52.925114
50.843885
48.679243
46.617432
44.841923
43.386931
42.303619
41.557788
41.117632
40.949368
41.048712
19.434778
25.837319
33.501358
40.065371
45.401808
49.305712
52.103719
54.094963
55.471236
56.223315
56.451074
56.191766
55.496892
54.537162
53.342221
52.073315
50.77284
49.548995
48.398708
47.407681
46.55135
45.872598
45.323255
44.956169
19.697156
27.793764
37.461187
45.329984
50.951774
54.59315
57.042697
58.746059
59.928334
60.624354
60.89654
60.794668
60.360156
59.717612
58.864564
57.900658
56.878715
55.83937
54.862933
53.92907
53.099899
52.347943
51.692452
51.121781
21.778256
32.45018
44.3973
53.552254
59.405873
62.863418
65.091479
66.670957
67.767453
68.471381
68.813793
68.826459
68.597926
68.141459
67.51168
66.714467
65.830712
64.907222
63.956042
63.059252
62.144059
61.320853
60.511895
59.805945
26.083447
40.298789
54.909395
65.428468
71.595903
75.081811
77.362178
79.038871
80.215778
81.057675
81.520789
81.692018
81.620602
81.266568
80.762649
79.998273
79.141686
78.175623
77.142408
76.123522
75.005682
74.009279
72.980128
72.078315
34.834029
54.133226
71.79751
83.538287
89.801469
93.313772
95.77525
97.702765
99.105503
100.18929
100.85439
101.23988
101.35428
101.13741
100.73045
99.949456
99.068259
98.009653
96.833264
95.626436
94.258571
92.99893
91.67191
90.481433
51.812996
79.594476
100.63257
112.25839
117.08959
119.95981
122.49199
124.80309
126.65491
128.21422
129.34084
130.1908
130.75708
130.9199
130.84773
130.27867
129.56293
128.59446
127.39606
126.10244
124.53205
123.00152
121.33857
119.73747
206.37719
213.37406
223.54679
227.30806
227.77918
227.05716
225.88583
224.23128
221.78443
218.29744
213.69304
208.05866
201.55528
194.39978
186.83123
179.06923
171.30416
163.68704
156.36493
149.46081
143.06773
137.24962
132.05405
127.53121
183.44499
187.85554
195.20491
198.1569
198.71765
198.29189
197.35958
195.88002
193.66893
190.59847
186.6545
181.92164
176.52878
170.64108
164.42744
158.05013
151.65681
145.3723
139.31217
133.57065
128.22575
123.34233
118.9896
115.23569
171.83683
173.46339
178.633
181.07483
181.79555
181.64623
180.92785
179.60196
177.55266
174.72097
171.12881
166.86807
162.05781
156.83346
151.33219
145.68623
140.02773
134.46578