# p  FACE_DATA 1536
#  x  y  z  p
-0.024478 -0.0049527 0.0004878 0.019308
-0.024478 -0.0047624 0.0014447 0.020325
-0.024478 -0.004389 0.002346 0.021078
-0.024478 -0.003847 0.0031572 0.021117
-0.024478 -0.0031572 0.003847 0.021142
-0.024478 -0.002346 0.004389 0.021152
-0.024478 -0.0014447 0.0047624 0.020438
-0.024478 -0.00048781 0.0049527 0.019447
-0.023436 -0.0049558 0.00048812 0.078324
-0.023436 -0.0047654 0.0014456 0.080159
-0.023436 -0.0043917 0.0023474 0.081478
-0.023436 -0.0038493 0.003159 0.081291
-0.023436 -0.003159 0.0038493 0.081366
-0.023436 -0.0023474 0.0043917 0.081694
-0.023436 -0.0014456 0.0047654 0.080486
-0.023436 -0.00048812 0.0049558 0.078724
-0.022395 -0.0049628 0.00048882 0.18523
-0.022395 -0.004772 0.0014476 0.18776
-0.022395 -0.0043977 0.0023506 0.18999
-0.022395 -0.0038545 0.0031633 0.19025
-0.022395 -0.0031633 0.0038545 0.19036
-0.022395 -0.0023506 0.0043977 0.19032
-0.022395 -0.0014476 0.004772 0.18826
-0.022395 -0.00048882 0.0049628 0.18585
-0.021356 -0.0049748 0.00048997 0.34274
-0.021356 -0.0047834 0.001451 0.34255
-0.021356 -0.0044081 0.0023562 0.34331
-0.021356 -0.0038637 0.0031709 0.34282
-0.021356 -0.0031709 0.0038637 0.34295
-0.021356 -0.0023562 0.0044081 0.34368
-0.021356 -0.001451 0.0047834 0.34313
-0.021356 -0.00048997 0.0049748 0.34346
-0.020317 -0.0049915 0.00049154 0.53731
-0.020317 -0.0047992 0.0014558 0.53372
-0.020317 -0.0044226 0.002364 0.53265
-0.020317 -0.0038764 0.0031814 0.53149
-0.020317 -0.0031814 0.0038764 0.53161
-0.020317 -0.002364 0.0044226 0.53299
-0.020317 -0.0014558 0.0047992 0.53424
-0.020317 -0.00049154 0.0049915 0.53796
-0.019276 -0.0050101 0.00049331 0.7373
-0.019276 -0.0048169 0.001461 0.73095
-0.019276 -0.0044389 0.0023727 0.72848
-0.019276 -0.0038908 0.0031932 0.72689
-0.019276 -0.0031932 0.0038908 0.72699
-0.019276 -0.0023727 0.0044389 0.72874
-0.019276 -0.001461 0.0048169 0.73132
-0.019276 -0.00049331 0.0050101 0.73774
-0.018235 -0.0050265 0.00049494 0.91216
-0.018235 -0.0048327 0.0014658 0.90497
-0.018235 -0.0044535 0.0023805 0.90204
-0.018235 -0.0039035 0.0032037 0.90017
-0.018235 -0.0032037 0.0039035 0.90022
-0.018235 -0.0023805 0.0044535 0.90217
-0.018235 -0.0014658 0.0048327 0.90513
-0.018235 -0.00049494 0.0050265 0.91231
-0.017195 -0.0050388 0.00049623 1.0487
-0.017195 -0.0048448 0.0014696 1.0424
-0.017195 -0.0044647 0.0023865 1.0399
-0.017195 -0.0039132 0.0032115 1.0378
-0.017195 -0.0032115 0.0039132 1.0378
-0.017195 -0.0023865 0.0044647 1.0399
-0.017195 -0.0014696 0.0048448 1.0424
-0.017195 -0.00049623 0.0050388 1.0486
-0.016156 -0.0050479 0.00049719 1.153
-0.016156 -0.0048537 0.0014724 1.148
-0.016156 -0.0044729 0.0023909 1.1463
-0.016156 -0.0039203 0.0032173 1.1442
-0.016156 -0.0032173 0.0039203 1.1442
-0.016156 -0.0023909 0.0044729 1.1462
-0.016156 -0.0014724 0.0048537 1.1479
-0.016156 -0.00049719 0.0050479 1.1528
-0.015118 -0.0050551 0.00049792 1.2397
-0.015118 -0.0048607 0.0014745 1.2353
-0.015118 -0.0044794 0.0023943 1.234
-0.015118 -0.003926 0.003222 1.2317
-0.015118 -0.003222 0.003926 1.2317
-0.015118 -0.0023943 0.0044794 1.2339
-0.015118 -0.0014745 0.0048607 1.2352
-0.015118 -0.00049792 0.0050551 1.2395
-0.014081 -0.0050613 0.00049852 1.3181
-0.014081 -0.0048667 0.0014763 1.3127
-0.014081 -0.004485 0.0023972 1.311
-0.014081 -0.0039309 0.003226 1.3086
-0.014081 -0.003226 0.0039309 1.3086
-0.014081 -0.0023972 0.004485 1.311
-0.014081 -0.0014763 0.0048667 1.3127
-0.014081 -0.00049852 0.0050613 1.318
-0.013044 -0.0050663 0.00049898 1.3827
-0.013044 -0.0048714 0.0014777 1.3748
-0.013044 -0.0044893 0.0023996 1.3724
-0.013044 -0.0039347 0.0032292 1.3698
-0.013044 -0.0032292 0.0039347 1.3698
-0.013044 -0.0023996 0.0044893 1.3724
-0.013044 -0.0014777 0.0048714 1.3749
-0.013044 -0.00049898 0.0050663 1.3828
-0.024478 0.0004878 0.0049527 0.019457
-0.024478 0.0014447 0.0047624 0.020466
-0.024478 0.002346 0.004389 0.021194
-0.024478 0.0031572 0.003847 0.021197
-0.024478 0.003847 0.0031572 0.021188
-0.024478 0.004389 0.002346 0.021166
-0.024478 0.0047624 0.0014447 0.02042
-0.024478 0.0049527 0.0004878 0.019397
-0.023436 0.00048812 0.0049558 0.078756
-0.023436 0.0014456 0.0047654 0.08057
-0.023436 0.0023474 0.0043917 0.081822
-0.023436 0.003159 0.0038493 0.081538
-0.023436 0.0038493 0.003159 0.081515
-0.023436 0.0043917 0.0023474 0.081756
-0.023436 0.0047654 0.0014456 0.080463
-0.023436 0.0049558 0.00048812 0.078616
-0.022395 0.00048882 0.0049628 0.18591
-0.022395 0.0014476 0.004772 0.1884
-0.022395 0.0023506 0.0043977 0.19054
-0.022395 0.0031633 0.0038545 0.19066
-0.022395 0.0038545 0.0031633 0.19063
-0.022395 0.0043977 0.0023506 0.19046
-0.022395 0.004772 0.0014476 0.18827
-0.022395 0.0049628 0.00048882 0.18573
-0.021356 0.00048997 0.0049748 0.34354
-0.021356 0.001451 0.0047834 0.34332
-0.021356 0.0023562 0.0044081 0.34397
-0.021356 0.0031709 0.0038637 0.34335
-0.021356 0.0038637 0.0031709 0.34332
-0.021356 0.0044081 0.0023562 0.3439
-0.021356 0.0047834 0.001451 0.3432
-0.021356 0.0049748 0.00048997 0.34339
-0.020317 0.00049154 0.0049915 0.53802
-0.020317 0.0014558 0.0047992 0.53441
-0.020317 0.002364 0.0044226 0.53327
-0.020317 0.0031814 0.0038764 0.53201
-0.020317 0.0038764 0.0031814 0.53201
-0.020317 0.0044226 0.002364 0.53325
-0.020317 0.0047992 0.0014558 0.53436
-0.020317 0.0049915 0.00049154 0.53796
-0.019276 0.00049331 0.0050101 0.73776
-0.019276 0.001461 0.0048169 0.73141
-0.019276 0.0023727 0.0044389 0.7289
-0.019276 0.0031932 0.0038908 0.72728
-0.019276 0.0038908 0.0031932 0.72731
-0.019276 0.0044389 0.0023727 0.72897
-0.019276 0.0048169 0.001461 0.73148
-0.019276 0.0050101 0.00049331 0.7378
-0.018235 0.00049494 0.0050265 0.91228
-0.018235 0.0014658 0.0048327 0.90509
-0.018235 0.0023805 0.0044535 0.90218
-0.018235 0.0032037 0.0039035 0.90034
-0.018235 0.0039035 0.0032037 0.90041
-0.018235 0.0044535 0.0023805 0.90236
-0.018235 0.0048327 0.0014658 0.90531
-0.018235 0.0050265 0.00049494 0.91245
-0.017195 0.00049623 0.0050388 1.0485
-0.017195 0.0014696 0.0048448 1.0422
-0.017195 0.0023865 0.0044647 1.0397
-0.017195 0.0032115 0.0039132 1.0378
-0.017195 0.0039132 0.0032115 1.0379
-0.017195 0.0044647 0.0023865 1.04
-0.017195 0.0048448 0.0014696 1.0425
-0.017195 0.0050388 0.00049623 1.0488
-0.016156 0.00049719 0.0050479 1.1527
-0.016156 0.0014724 0.0048537 1.1476
-0.016156 0.0023909 0.0044729 1.146
-0.016156 0.0032173 0.0039203 1.144
-0.016156 0.0039203 0.0032173 1.1441
-0.016156 0.0044729 0.0023909 1.1464
-0.016156 0.0048537 0.0014724 1.1481
-0.016156 0.0050479 0.00049719 1.1532
-0.015118 0.00049792 0.0050551 1.2394
-0.015118 0.0014745 0.0048607 1.2348
-0.015118 0.0023943 0.0044794 1.2335
-0.015118 0.003222 0.003926 1.2315
-0.015118 0.003926 0.003222 1.2316
-0.015118 0.0044794 0.0023943 1.2341
-0.015118 0.0048607 0.0014745 1.2355
-0.015118 0.0050551 0.00049792 1.24
-0.014081 0.00049852 0.0050613 1.3179
-0.014081 0.0014763 0.0048667 1.3123
-0.014081 0.0023972 0.004485 1.3107
-0.014081 0.003226 0.0039309 1.3085
-0.014081 0.0039309 0.003226 1.3086
-0.014081 0.004485 0.0023972 1.3112
-0.014081 0.0048667 0.0014763 1.313
-0.014081 0.0050613 0.00049852 1.3186
-0.013044 0.00049898 0.0050663 1.3827
-0.013044 0.0014777 0.0048714 1.3748
-0.013044 0.0023996 0.0044893 1.3723
-0.013044 0.0032292 0.0039347 1.3698
-0.013044 0.0039347 0.0032292 1.3699
-0.013044 0.0044893 0.0023996 1.3727
-0.013044 0.0048714 0.0014777 1.3753
-0.013044 0.0050663 0.00049898 1.3833
-0.024478 0.0049527 -0.00048781 0.019386
-0.024478 0.0047624 -0.0014447 0.020388
-0.024478 0.004389 -0.002346 0.021122
-0.024478 0.003847 -0.0031572 0.021138
-0.024478 0.0031572 -0.003847 0.021142
-0.024478 0.002346 -0.004389 0.02113
-0.024478 0.0014447 -0.0047624 0.020395
-0.024478 0.0004878 -0.0049527 0.019383
-0.023436 0.0049558 -0.00048812 0.07858
-0.023436 0.0047654 -0.0014456 0.080365
-0.023436 0.0043917 -0.0023474 0.081622
-0.023436 0.0038493 -0.003159 0.08137
-0.023436 0.003159 -0.0038493 0.081383
-0.023436 0.0023474 -0.0043917 0.081653
-0.023436 0.0014456 -0.0047654 0.080386
-0.023436 0.00048812 -0.0049558 0.078568
-0.022395 0.0049628 -0.00048882 0.18568
-0.022395 0.004772 -0.0014476 0.18812
-0.022395 0.0043977 -0.0023506 0.19026
-0.022395 0.0038545 -0.0031633 0.19043
-0.022395 0.0031633 -0.0038545 0.19045
-0.022395 0.0023506 -0.0043977 0.19032
-0.022395 0.0014476 -0.004772 0.18816
-0.022395 0.00048882 -0.0049628 0.18566
-0.021356 0.0049748 -0.00048997 0.34332
-0.021356 0.0047834 -0.001451 0.34303
-0.021356 0.0044081 -0.0023563 0.34368
-0.021356 0.0038637 -0.0031709 0.3431
-0.021356 0.0031709 -0.0038637 0.34314
-0.021356 0.0023562 -0.0044081 0.34378
-0.021356 0.001451 -0.0047834 0.34311
-0.021356 0.00048997 -0.0049748 0.34333
-0.020317 0.0049915 -0.00049154 0.5379
-0.020317 0.0047992 -0.0014558 0.53421
-0.020317 0.0044226 -0.002364 0.53304
-0.020317 0.0038764 -0.0031814 0.53181
-0.020317 0.0031814 -0.0038764 0.53188
-0.020317 0.002364 -0.0044226 0.5332
-0.020317 0.0014558 -0.0047992 0.53438
-0.020317 0.00049154 -0.0049915 0.538
-0.019276 0.0050101 -0.00049331 0.73774
-0.019276 0.0048169 -0.001461 0.73133
-0.019276 0.0044389 -0.0023727 0.72881
-0.019276 0.0038908 -0.0031932 0.72722
-0.019276 0.0031932 -0.0038908 0.7273
-0.019276 0.0023727 -0.0044389 0.72903
-0.019276 0.001461 -0.0048169 0.7316
-0.019276 0.0004933 -0.0050101 0.73796
-0.018235 0.0050265 -0.00049494 0.9124
-0.018235 0.0048327 -0.0014658 0.90519
-0.018235 0.0044535 -0.0023805 0.90228
-0.018235 0.0039035 -0.0032037 0.90046
-0.018235 0.0032037 -0.0039035 0.90054
-0.018235 0.0023805 -0.0044535 0.90252
-0.018235 0.0014658 -0.0048327 0.90549
-0.018235 0.00049494 -0.0050265 0.91265
-0.017195 0.0050388 -0.00049623 1.0488
-0.017195 0.0048448 -0.0014696 1.0425
-0.017195 0.0044647 -0.0023865 1.04
-0.017195 0.0039132 -0.0032115 1.0381
-0.017195 0.0032115 -0.0039132 1.0381
-0.017195 0.0023865 -0.0044647 1.0402
-0.017195 0.0014696 -0.0048448 1.0427
-0.017195 0.00049623 -0.0050388 1.0489
-0.016156 0.0050479 -0.00049719 1.1531
-0.016156 0.0048537 -0.0014724 1.1481
-0.016156 0.0044729 -0.0023909 1.1464
-0.016156 0.0039203 -0.0032173 1.1444
-0.016156 0.0032173 -0.0039203 1.1444
-0.016156 0.0023909 -0.0044729 1.1465
-0.016156 0.0014724 -0.0048537 1.1482
-0.016156 0.00049719 -0.0050479 1.1531
-0.015118 0.0050551 -0.00049792 1.2399
-0.015118 0.0048607 -0.0014745 1.2355
-0.015118 0.0044794 -0.0023943 1.2342
-0.015118 0.003926 -0.003222 1.2319
-0.015118 0.003222 -0.003926 1.2319
-0.015118 0.0023943 -0.0044794 1.2341
-0.015118 0.0014745 -0.0048607 1.2354
-0.015118 0.00049792 -0.0050551 1.2396
-0.014081 0.0050613 -0.00049852 1.3186
-0.014081 0.0048667 -0.0014763 1.3131
-0.014081 0.004485 -0.0023972 1.3114
-0.014081 0.0039309 -0.003226 1.3089
-0.014081 0.003226 -0.0039309 1.3088
-0.014081 0.0023972 -0.004485 1.3111
-0.014081 0.0014763 -0.0048667 1.3127
-0.014081 0.00049852 -0.0050613 1.3178
-0.013044 0.0050663 -0.00049898 1.3834
-0.013044 0.0048714 -0.0014777 1.3754
-0.013044 0.0044893 -0.0023996 1.3729
-0.013044 0.0039347 -0.0032292 1.3702
-0.013044 0.0032292 -0.0039347 1.3701
-0.013044 0.0023996 -0.0044893 1.3725
-0.013044 0.0014777 -0.0048714 1.3749
-0.013044 0.00049898 -0.0050663 1.3825
-0.024478 -0.00048781 -0.0049527 0.019382
-0.024478 -0.0014447 -0.0047624 0.020394
-0.024478 -0.002346 -0.004389 0.021131
-0.024478 -0.0031572 -0.003847 0.02114
-0.024478 -0.003847 -0.0031572 0.021129
-0.024478 -0.004389 -0.002346 0.021096
-0.024478 -0.0047624 -0.0014447 0.020342
-0.024478 -0.0049527 -0.00048781 0.019315
-0.023436 -0.00048812 -0.0049558 0.078564
-0.023436 -0.0014456 -0.0047654 0.080375
-0.023436 -0.0023474 -0.0043917 0.081635
-0.023436 -0.003159 -0.0038493 0.081358
-0.023436 -0.0038493 -0.003159 0.081327
-0.023436 -0.0043917 -0.0023474 0.081536
-0.023436 -0.0047654 -0.0014456 0.080216
-0.023436 -0.0049558 -0.00048812 0.07835
-0.022395 -0.00048882 -0.0049628 0.18564
-0.022395 -0.0014476 -0.004772 0.18811
-0.022395 -0.0023506 -0.0043977 0.19023
-0.022395 -0.0031633 -0.0038545 0.19034
-0.022395 -0.0038545 -0.0031633 0.19029
-0.022395 -0.0043977 -0.0023506 0.19007
-0.022395 -0.004772 -0.0014476 0.18784
-0.022395 -0.0049628 -0.00048882 0.18527
-0.021356 -0.00048997 -0.0049748 0.34329
-0.021356 -0.001451 -0.0047834 0.34299
-0.021356 -0.0023562 -0.0044081 0.34358
-0.021356 -0.0031709 -0.0038637 0.3429
-0.021356 -0.0038637 -0.0031709 0.34283
-0.021356 -0.0044081 -0.0023562 0.34337
-0.021356 -0.0047834 -0.001451 0.34262
-0.021356 -0.0049748 -0.00048997 0.34277
-0.020317 -0.00049154 -0.0049915 0.53793
-0.020317 -0.0014558 -0.0047992 0.53417
-0.020317 -0.002364 -0.0044226 0.5329
-0.020317 -0.0031814 -0.0038764 0.53151
-0.020317 -0.0038764 -0.0031814 0.53142
-0.020317 -0.0044226 -0.002364 0.53263
-0.020317 -0.0047993 -0.0014558 0.53373
-0.020317 -0.0049915 -0.00049154 0.53732
-0.019276 -0.00049331 -0.0050101 0.73787
-0.019276 -0.001461 -0.0048169 0.73133
-0.019276 -0.0023727 -0.0044389 0.72864
-0.019276 -0.0031932 -0.0038908 0.72682
-0.019276 -0.0038908 -0.0031932 0.72673
-0.019276 -0.0044389 -0.0023727 0.72836
-0.019276 -0.0048169 -0.001461 0.7309
-0.019276 -0.0050101 -0.00049331 0.73728
-0.018235 -0.00049494 -0.0050265 0.91255
-0.018235 -0.0014658 -0.0048327 0.90516
-0.018235 -0.0023805 -0.0044535 0.90204
-0.018235 -0.0032037 -0.0039035 0.89998
-0.018235 -0.0039035 -0.0032037 0.8999
-0.018235 -0.0044535 -0.0023805 0.90182
-0.018235 -0.0048327 -0.0014658 0.90484
-0.018235 -0.0050265 -0.00049494 0.91211
-0.017195 -0.00049623 -0.0050388 1.0488
-0.017195 -0.0014696 -0.0048448 1.0423
-0.017195 -0.0023865 -0.0044647 1.0397
-0.017195 -0.0032115 -0.0039132 1.0375
-0.017195 -0.0039132 -0.0032115 1.0375
-0.017195 -0.0044647 -0.0023865 1.0396
-0.017195 -0.0048448 -0.0014696 1.0422
-0.017195 -0.0050388 -0.00049623 1.0486
-0.016156 -0.00049719 -0.0050479 1.1529
-0.016156 -0.0014724 -0.0048537 1.1477
-0.016156 -0.0023909 -0.0044729 1.146
-0.016156 -0.0032173 -0.0039203 1.1438
-0.016156 -0.0039203 -0.0032173 1.1439
-0.016156 -0.0044729 -0.0023909 1.146
-0.016156 -0.0048537 -0.0014724 1.1479
-0.016156 -0.0050479 -0.00049719 1.153
-0.015118 -0.00049792 -0.0050551 1.2394
-0.015118 -0.0014745 -0.0048607 1.2349
-0.015118 -0.0023943 -0.0044794 1.2336
-0.015118 -0.003222 -0.003926 1.2314
-0.015118 -0.003926 -0.003222 1.2314
-0.015118 -0.0044794 -0.0023943 1.2338
-0.015118 -0.0048607 -0.0014745 1.2352
-0.015118 -0.0050551 -0.00049792 1.2397
-0.014081 -0.00049852 -0.0050613 1.3177
-0.014081 -0.0014763 -0.0048667 1.3123
-0.014081 -0.0023972 -0.004485 1.3107
-0.014081 -0.003226 -0.0039309 1.3084
-0.014081 -0.0039309 -0.003226 1.3084
-0.014081 -0.004485 -0.0023972 1.3109
-0.014081 -0.0048667 -0.0014763 1.3126
-0.014081 -0.0050613 -0.00049852 1.318
-0.013044 -0.00049898 -0.0050663 1.3825
-0.013044 -0.0014777 -0.0048714 1.3746
-0.013044 -0.0023996 -0.0044893 1.3722
-0.013044 -0.0032292 -0.0039347 1.3697
-0.013044 -0.0039347 -0.0032292 1.3697
-0.013044 -0.0044893 -0.0023996 1.3723
-0.013044 -0.0048714 -0.0014777 1.3748
-0.013044 -0.0050663 -0.00049898 1.3827
-0.012006 -0.0050688 0.00049919 1.4148
-0.012006 -0.0048737 0.0014784 1.4061
-0.012006 -0.0044914 0.0024007 1.4021
-0.012006 -0.0039367 0.0032308 1.3997
-0.012006 -0.0032308 0.0039367 1.3997
-0.012006 -0.0024007 0.0044914 1.402
-0.012006 -0.0014784 0.0048737 1.406
-0.012006 -0.00049919 0.0050688 1.4147
-0.010968 -0.0050675 0.00049902 1.389
-0.010968 -0.0048724 0.0014779 1.3828
-0.010968 -0.0044902 0.0024001 1.3795
-0.010968 -0.0039357 0.00323 1.3777
-0.010968 -0.00323 0.0039357 1.3777
-0.010968 -0.0024001 0.0044902 1.3795
-0.010968 -0.0014779 0.0048724 1.3826
-0.010968 -0.00049903 0.0050675 1.3888
-0.0099292 -0.0050618 0.00049847 1.3214
-0.0099292 -0.004867 0.0014763 1.3169
-0.0099293 -0.0044852 0.0023974 1.3142
-0.0099293 -0.0039314 0.0032265 1.3131
-0.0099293 -0.0032265 0.0039314 1.313
-0.0099293 -0.0023974 0.0044852 1.3141
-0.0099292 -0.0014763 0.004867 1.3168
-0.0099292 -0.00049847 0.0050618 1.3213
-0.0088911 -0.0050525 0.00049759 1.225
-0.0088911 -0.0048582 0.0014737 1.223
-0.0088912 -0.0044772 0.0023932 1.2211
-0.0088911 -0.0039243 0.0032206 1.2203
-0.0088911 -0.0032206 0.0039243 1.2203
-0.0088912 -0.0023932 0.0044772 1.2211
-0.0088911 -0.0014737 0.0048582 1.2229
-0.0088911 -0.00049759 0.0050525 1.2249
-0.0078532 -0.0050416 0.00049655 1.1134
-0.0078532 -0.0048478 0.0014706 1.1128
-0.0078533 -0.0044677 0.0023881 1.1119
-0.0078532 -0.003916 0.0032138 1.1116
-0.0078532 -0.0032138 0.003916 1.1115
-0.0078533 -0.0023881 0.0044677 1.1119
-0.0078532 -0.0014706 0.0048478 1.1127
-0.0078532 -0.00049655 0.0050416 1.1133
-0.0068152 -0.0050307 0.00049547 0.99764
-0.0068152 -0.0048373 0.0014674 0.99812
-0.0068153 -0.0044581 0.0023829 0.99782
-0.0068153 -0.0039076 0.0032069 0.99793
-0.0068153 -0.0032069 0.0039076 0.99793
-0.0068153 -0.0023829 0.0044581 0.9978
-0.0068152 -0.0014674 0.0048373 0.99808
-0.0068152 -0.00049547 0.0050307 0.9976
-0.0057768 -0.0050204 0.00049445 0.88414
-0.0057768 -0.0048275 0.0014644 0.88534
-0.0057769 -0.004449 0.0023781 0.88546
-0.0057769 -0.0038997 0.0032004 0.88589
-0.0057769 -0.0032004 0.0038997 0.88589
-0.0057769 -0.0023781 0.004449 0.88547
-0.0057768 -0.0014644 0.0048275 0.88534
-0.0057768 -0.00049445 0.0050204 0.88416
-0.0047378 -0.005011 0.0004935 0.77632
-0.0047378 -0.0048184 0.0014616 0.77801
-0.0047378 -0.0044407 0.0023736 0.77842
-0.0047378 -0.0038924 0.0031945 0.779
-0.0047378 -0.0031945 0.0038924 0.77899
-0.0047378 -0.0023736 0.0044407 0.77841
-0.0047378 -0.0014616 0.0048184 0.77803
-0.0047378 -0.0004935 0.005011 0.77637
-0.003698 -0.0050025 0.00049266 0.67619
-0.003698 -0.0048102 0.0014591 0.67813
-0.003698 -0.0044331 0.0023696 0.67871
-0.003698 -0.0038858 0.0031891 0.67938
-0.003698 -0.0031891 0.0038858 0.67936
-0.003698 -0.0023696 0.0044331 0.67869
-0.003698 -0.0014591 0.0048102 0.67815
-0.003698 -0.00049266 0.0050025 0.67625
-0.0026575 -0.0049947 0.00049191 0.58412
-0.0026575 -0.0048028 0.0014569 0.58615
-0.0026575 -0.0044263 0.002366 0.58682
-0.0026575 -0.0038798 0.0031841 0.58756
-0.0026575 -0.0031841 0.0038798 0.58755
-0.0026575 -0.002366 0.0044263 0.58681
-0.0026575 -0.0014569 0.0048028 0.58616
-0.0026575 -0.00049191 0.0049947 0.58416
-0.0016164 -0.0049877 0.00049122 0.49945
-0.0016165 -0.004796 0.0014548 0.5016
-0.0016165 -0.0044201 0.0023626 0.50234
-0.0016164 -0.0038744 0.0031796 0.50311
-0.0016164 -0.0031796 0.0038744 0.50311
-0.0016165 -0.0023626 0.0044201 0.50234
-0.0016165 -0.0014548 0.004796 0.5016
-0.0016164 -0.00049122 0.0049877 0.49946
-0.00057491 -0.0049813 0.00049059 0.42238
-0.00057493 -0.0047899 0.001453 0.42469
-0.00057493 -0.0044144 0.0023596 0.42553
-0.00057491 -0.0038694 0.0031756 0.42628
-0.00057491 -0.0031756 0.0038694 0.42628
-0.00057493 -0.0023596 0.0044144 0.42552
-0.00057493 -0.001453 0.0047899 0.42467
-0.00057491 -0.00049059 0.0049813 0.42236
-0.012006 0.00049919 0.0050688 1.4148
-0.012006 0.0014784 0.0048737 1.4061
-0.012006 0.0024007 0.0044914 1.4022
-0.012006 0.0032308 0.0039367 1.3999
-0.012006 0.0039367 0.0032308 1.4
-0.012006 0.0044914 0.0024007 1.4025
-0.012006 0.0048737 0.0014784 1.4066
-0.012006 0.0050688 0.00049919 1.4154
-0.010968 0.00049902 0.0050675 1.3889
-0.010968 0.0014779 0.0048724 1.3828
-0.010968 0.0024001 0.0044902 1.3797
-0.010968 0.00323 0.0039357 1.3781
-0.010968 0.0039357 0.00323 1.3782
-0.010968 0.0044902 0.0024001 1.38
-0.010968 0.0048724 0.0014779 1.3833
-0.010968 0.0050675 0.00049902 1.3896
-0.0099292 0.00049847 0.0050618 1.3214
-0.0099292 0.0014763 0.004867 1.317
-0.0099293 0.0023974 0.0044852 1.3144
-0.0099293 0.0032265 0.0039314 1.3134
-0.0099293 0.0039314 0.0032265 1.3135
-0.0099293 0.0044852 0.0023974 1.3147
-0.0099292 0.004867 0.0014763 1.3176
-0.0099292 0.0050618 0.00049847 1.3221
-0.0088911 0.00049759 0.0050525 1.225
-0.0088911 0.0014737 0.0048582 1.2231
-0.0088912 0.0023932 0.0044772 1.2214
-0.0088911 0.0032206 0.0039243 1.2207
-0.0088911 0.0039243 0.0032206 1.2208
-0.0088912 0.0044772 0.0023932 1.2217
-0.0088911 0.0048582 0.0014737 1.2237
-0.0088911 0.0050525 0.00049759 1.2257
-0.0078532 0.00049655 0.0050416 1.1134
-0.0078532 0.0014706 0.0048478 1.1129
-0.0078533 0.0023881 0.0044677 1.1122
-0.0078532 0.0032138 0.003916 1.1119
-0.0078532 0.003916 0.0032138 1.1121
-0.0078533 0.0044677 0.0023881 1.1125
-0.0078532 0.0048478 0.0014706 1.1135
-0.0078532 0.0050416 0.00049655 1.1142
-0.0068152 0.00049547 0.0050307 0.99765
-0.0068152 0.0014674 0.0048373 0.99821
-0.0068153 0.0023829 0.0044581 0.99803
-0.0068153 0.0032069 0.0039076 0.99826
-0.0068153 0.0039076 0.0032069 0.99837
-0.0068153 0.0044581 0.0023829 0.99838
-0.0068152 0.0048373 0.0014674 0.9988
-0.0068152 0.0050307 0.00049547 0.99845
-0.0057768 0.00049445 0.0050204 0.88419
-0.0057768 0.0014644 0.0048275 0.88543
-0.0057769 0.0023781 0.004449 0.88562
-0.0057769 0.0032004 0.0038997 0.88612
-0.0057769 0.0038997 0.0032004 0.88621
-0.0057769 0.004449 0.0023781 0.8859
-0.0057768 0.0048275 0.0014644 0.88591
-0.0057768 0.0050204 0.00049445 0.88486
-0.0047378 0.0004935 0.005011 0.77638
-0.0047378 0.0014616 0.0048184 0.77808
-0.0047378 0.0023736 0.0044407 0.77849
-0.0047378 0.0031945 0.0038924 0.7791
-0.0047378 0.0038924 0.0031945 0.77917
-0.0047378 0.0044407 0.0023736 0.77869
-0.0047378 0.0048184 0.0014616 0.77843
-0.0047378 0.005011 0.0004935 0.77691
-0.003698 0.00049266 0.0050025 0.67625
-0.003698 0.0014591 0.0048102 0.67814
-0.003698 0.0023696 0.0044332 0.67868
-0.003698 0.0031891 0.0038858 0.67936
-0.003698 0.0038858 0.0031891 0.67941
-0.003698 0.0044332 0.0023696 0.67884
-0.003698 0.0048102 0.0014591 0.67841
-0.003698 0.0050025 0.00049266 0.67664
-0.0026575 0.00049191 0.0049947 0.58414
-0.0026575 0.0014569 0.0048028 0.5861
-0.0026575 0.002366 0.0044263 0.58671
-0.0026575 0.0031841 0.0038798 0.58744
-0.0026575 0.0038798 0.0031841 0.58749
-0.0026575 0.0044263 0.002366 0.58685
-0.0026575 0.0048028 0.0014569 0.58631
-0.0026575 0.0049947 0.00049191 0.58442
-0.0016164 0.00049122 0.0049877 0.49943
-0.0016165 0.0014548 0.004796 0.5015
-0.0016165 0.0023626 0.0044201 0.50218
-0.0016164 0.0031796 0.0038744 0.50293
-0.0016164 0.0038744 0.0031796 0.50298
-0.0016165 0.0044201 0.0023626 0.50231
-0.0016165 0.004796 0.0014548 0.50167
-0.0016164 0.0049877 0.00049122 0.49963
-0.00057491 0.00049059 0.0049813 0.42231
-0.00057493 0.001453 0.0047899 0.42452
-0.00057493 0.0023596 0.0044144 0.4253
-0.00057491 0.0031756 0.0038694 0.42604
-0.00057491 0.0038694 0.0031756 0.42608
-0.00057493 0.0044144 0.0023596 0.42542
-0.00057493 0.0047899 0.001453 0.42467
-0.00057491 0.0049813 0.00049059 0.42245
-0.012006 0.0050688 -0.00049919 1.4155
-0.012006 0.0048737 -0.0014784 1.4068
-0.012006 0.0044914 -0.0024007 1.4027
-0.012006 0.0039367 -0.0032308 1.4002
-0.012006 0.0032308 -0.0039367 1.4001
-0.012006 0.0024007 -0.0044914 1.4023
-0.012006 0.0014784 -0.0048737 1.4061
-0.012006 0.00049919 -0.0050688 1.4148
-0.010968 0.0050675 -0.00049902 1.3897
-0.010968 0.0048724 -0.0014779 1.3836
-0.010968 0.0044902 -0.0024001 1.3804
-0.010968 0.0039357 -0.00323 1.3785
-0.010968 0.00323 -0.0039357 1.3783
-0.010968 0.0024001 -0.0044902 1.38
-0.010968 0.0014779 -0.0048724 1.383
-0.010968 0.00049903 -0.0050675 1.3891
-0.0099292 0.0050618 -0.00049847 1.3222
-0.0099292 0.004867 -0.0014763 1.3179
-0.0099293 0.0044852 -0.0023974 1.3152
-0.0099293 0.0039314 -0.0032265 1.314
-0.0099293 0.0032265 -0.0039314 1.3138
-0.0099293 0.0023974 -0.0044852 1.3148
-0.0099292 0.0014763 -0.004867 1.3174
-0.0099292 0.00049847 -0.0050618 1.3217
-0.0088911 0.0050525 -0.00049759 1.2258
-0.0088911 0.0048582 -0.0014737 1.224
-0.0088912 0.0044772 -0.0023932 1.2222
-0.0088911 0.0039243 -0.0032206 1.2213
-0.0088911 0.0032206 -0.0039243 1.2212
-0.0088912 0.0023932 -0.0044772 1.2219
-0.0088911 0.0014737 -0.0048582 1.2236
-0.0088911 0.00049759 -0.0050525 1.2255
-0.0078532 0.0050416 -0.00049655 1.1143
-0.0078532 0.0048478 -0.0014706 1.1139
-0.0078533 0.0044677 -0.0023881 1.113
-0.0078532 0.003916 -0.0032138 1.1127
-0.0078532 0.0032138 -0.003916 1.1126
-0.0078533 0.0023881 -0.0044677 1.1128
-0.0078532 0.0014706 -0.0048478 1.1136
-0.0078532 0.00049655 -0.0050416 1.114
-0.0068152 0.0050307 -0.00049547 0.99857
-0.0068152 0.0048373 -0.0014674 0.99913
-0.0068153 0.0044581 -0.0023829 0.99888
-0.0068153 0.0039076 -0.0032069 0.99898
-0.0068153 0.0032069 -0.0039076 0.99891
-0.0068153 0.0023829 -0.0044581 0.99871
-0.0068152 0.0014674 -0.0048373 0.9989
-0.0068152 0.00049547 -0.0050307 0.99831
-0.0057768 0.0050204 -0.00049445 0.88498
-0.0057768 0.0048275 -0.0014644 0.88625
-0.0057769 0.004449 -0.0023781 0.8864
-0.0057769 0.0038997 -0.0032004 0.8868
-0.0057769 0.0032004 -0.0038997 0.88675
-0.0057769 0.0023781 -0.004449 0.88626
-0.0057768 0.0014644 -0.0048275 0.88604
-0.0057768 0.00049445 -0.0050204 0.88473
-0.0047378 0.005011 -0.0004935 0.77702
-0.0047378 0.0048184 -0.0014616 0.77875
-0.0047378 0.0044407 -0.0023736 0.77919
-0.0047378 0.0038924 -0.0031945 0.77975
-0.0047378 0.0031945 -0.0038924 0.77971
-0.0047378 0.0023736 -0.0044407 0.77907
-0.0047378 0.0014616 -0.0048184 0.77857
-0.0047378 0.0004935 -0.005011 0.77678
-0.003698 0.0050025 -0.00049266 0.67674
-0.003698 0.0048102 -0.0014591 0.6787
-0.003698 0.0044331 -0.0023696 0.67928
-0.003698 0.0038858 -0.0031891 0.67994
-0.003698 0.0031891 -0.0038858 0.67991
-0.003698 0.0023696 -0.0044331 0.67918
-0.003698 0.0014591 -0.0048102 0.67852
-0.003698 0.00049266 -0.0050025 0.67653
-0.0026575 0.0049947 -0.00049191 0.58451
-0.0026575 0.0048028 -0.0014569 0.58655
-0.0026575 0.0044263 -0.002366 0.58721
-0.0026575 0.0038798 -0.0031841 0.58794
-0.0026575 0.0031841 -0.0038798 0.58791
-0.0026575 0.002366 -0.0044263 0.58712
-0.0026575 0.0014569 -0.0048028 0.5864
-0.0026575 0.00049191 -0.0049947 0.58434
-0.0016164 0.0049877 -0.00049122 0.49969
-0.0016165 0.004796 -0.0014548 0.50183
-0.0016165 0.0044201 -0.0023626 0.50257
-0.0016164 0.0038744 -0.0031796 0.50332
-0.0016164 0.0031796 -0.0038744 0.5033
-0.0016165 0.0023626 -0.0044201 0.5025
-0.0016165 0.0014548 -0.004796 0.50172
-0.0016164 0.00049122 -0.0049877 0.49956
-0.00057491 0.0049813 -0.00049059 0.4225
-0.00057493 0.0047899 -0.001453 0.42479
-0.00057493 0.0044144 -0.0023596 0.42561
-0.00057491 0.0038694 -0.0031756 0.42636
-0.00057491 0.0031756 -0.0038694 0.42635
-0.00057493 0.0023596 -0.0044144 0.42558
-0.00057493 0.001453 -0.0047899 0.42472
-0.00057491 0.00049059 -0.0049813 0.42241
-0.012006 -0.00049919 -0.0050688 1.4147
-0.012006 -0.0014784 -0.0048737 1.4059
-0.012006 -0.0024007 -0.0044914 1.402
-0.012006 -0.0032308 -0.0039367 1.3997
-0.012006 -0.0039367 -0.0032308 1.3997
-0.012006 -0.0044914 -0.0024007 1.4021
-0.012006 -0.0048737 -0.0014784 1.4061
-0.012006 -0.0050688 -0.00049919 1.4148
-0.010968 -0.00049902 -0.0050675 1.389
-0.010968 -0.0014779 -0.0048724 1.3828
-0.010968 -0.0024001 -0.0044902 1.3796
-0.010968 -0.00323 -0.0039357 1.3778
-0.010968 -0.0039357 -0.00323 1.3779
-0.010968 -0.0044902 -0.0024001 1.3796
-0.010968 -0.0048724 -0.0014779 1.3828
-0.010968 -0.0050675 -0.00049902 1.389
-0.0099292 -0.00049847 -0.0050618 1.3216
-0.0099292 -0.0014763 -0.004867 1.3171
-0.0099293 -0.0023974 -0.0044852 1.3143
-0.0099293 -0.0032265 -0.0039314 1.3132
-0.0099293 -0.0039314 -0.0032265 1.3132
-0.0099293 -0.0044852 -0.0023974 1.3143
-0.0099292 -0.004867 -0.0014763 1.317
-0.0099292 -0.0050618 -0.00049847 1.3214
-0.0088911 -0.00049759 -0.0050525 1.2253
-0.0088911 -0.0014737 -0.0048582 1.2233
-0.0088912 -0.0023932 -0.0044772 1.2214
-0.0088911 -0.0032206 -0.0039243 1.2205
-0.0088911 -0.0039243 -0.0032206 1.2205
-0.0088912 -0.0044772 -0.0023932 1.2213
-0.0088911 -0.0048582 -0.0014737 1.2231
-0.0088911 -0.0050525 -0.00049759 1.225
-0.0078532 -0.00049655 -0.0050416 1.1139
-0.0078532 -0.0014706 -0.0048478 1.1132
-0.0078533 -0.0023881 -0.0044677 1.1122
-0.0078532 -0.0032138 -0.003916 1.1118
-0.0078532 -0.003916 -0.0032138 1.1117
-0.0078533 -0.0044677 -0.0023881 1.112
-0.0078532 -0.0048478 -0.0014706 1.1129
-0.0078532 -0.0050416 -0.00049655 1.1134
-0.0068152 -0.00049547 -0.0050307 0.99816
-0.0068152 -0.0014674 -0.0048373 0.99849
-0.0068153 -0.0023829 -0.0044581 0.99808
-0.0068153 -0.0032069 -0.0039076 0.9981
-0.0068153 -0.0039076 -0.0032069 0.99804
-0.0068153 -0.0044581 -0.0023829 0.99789
-0.0068152 -0.0048373 -0.0014674 0.99815
-0.0068152 -0.0050307 -0.00049547 0.99765
-0.0057768 -0.00049445 -0.0050204 0.8846
-0.0057768 -0.0014644 -0.0048275 0.88565
-0.0057769 -0.0023781 -0.004449 0.88566
-0.0057769 -0.0032004 -0.0038997 0.88598
-0.0057769 -0.0038997 -0.0032004 0.88593
-0.0057769 -0.004449 -0.0023781 0.88548
-0.0057768 -0.0048275 -0.0014644 0.88534
-0.0057768 -0.0050204 -0.00049445 0.88413
-0.0047378 -0.0004935 -0.005011 0.77667
-0.0047378 -0.0014616 -0.0048184 0.77822
-0.0047378 -0.0023736 -0.0044407 0.77851
-0.0047378 -0.0031945 -0.0038924 0.779
-0.0047378 -0.0038924 -0.0031945 0.77895
-0.0047378 -0.0044407 -0.0023736 0.77836
-0.0047378 -0.0048184 -0.0014616 0.77795
-0.0047378 -0.005011 -0.0004935 0.77629
-0.003698 -0.00049266 -0.0050025 0.67643
-0.003698 -0.0014591 -0.0048102 0.67823
-0.003698 -0.0023696 -0.0044332 0.67869
-0.003698 -0.0031891 -0.0038858 0.67928
-0.003698 -0.0038858 -0.0031891 0.67924
-0.003698 -0.0044332 -0.0023696 0.67856
-0.003698 -0.0048102 -0.0014591 0.67802
-0.003698 -0.0050025 -0.00049266 0.67615
-0.0026575 -0.00049191 -0.0049947 0.58426
-0.0026575 -0.0014569 -0.0048028 0.58617
-0.0026575 -0.002366 -0.0044263 0.58672
-0.0026575 -0.0031841 -0.0038798 0.58738
-0.0026575 -0.0038798 -0.0031841 0.58734
-0.0026575 -0.0044263 -0.002366 0.58661
-0.0026575 -0.0048028 -0.0014569 0.58601
-0.0026575 -0.0049947 -0.00049191 0.58407
-0.0016164 -0.00049122 -0.0049877 0.49949
-0.0016165 -0.0014548 -0.004796 0.50155
-0.0016165 -0.0023626 -0.0044201 0.5022
-0.0016164 -0.0031796 -0.0038744 0.50289
-0.0016164 -0.0038744 -0.0031796 0.50286
-0.0016165 -0.0044201 -0.0023626 0.50212
-0.0016165 -0.004796 -0.0014548 0.50144
-0.0016164 -0.0049877 -0.00049122 0.49939
-0.00057491 -0.00049059 -0.0049813 0.42236
-0.00057493 -0.001453 -0.0047899 0.4246
-0.00057493 -0.0023596 -0.0044144 0.42536
-0.00057491 -0.0031756 -0.0038694 0.42606
-0.00057491 -0.0038694 -0.0031756 0.42604
-0.00057493 -0.0044144 -0.0023596 0.42532
-0.00057493 -0.0047899 -0.001453 0.42455
-0.00057491 -0.0049813 -0.00049059 0.42233