/*--------------------------------*- C++ -*----------------------------------*\
  =========                 |
  \\      /  F ield         | OpenFOAM: The Open Source CFD Toolbox
   \\    /   O peration     | Website:  https://openfoam.org
    \\  /    A nd           | Version:  8
     \\/     M anipulation  |
\*---------------------------------------------------------------------------*/
FoamFile
{
    version     2.0;
    format      ascii;
    class       surfaceVectorField;
    location    "0.0805000";
    object      Uf_0;
}
// * * * * * * * * * * * * * * * * * * * * * * * * * * * * * * * * * * * * * //

dimensions      [0 1 -1 0 0 0 0];

internalField   nonuniform List<vector> 
1691
(
(0.704439173992707 0.000292468902700125 -1.53496062086423e-18)
(0.528121136236947 0.000998475201845275 -2.23942555476962e-18)
(0.704526368928222 0.00019159964753921 -4.31438223564124e-19)
(0.529177552848641 0.00101878051348501 -3.974790729524e-18)
(0.704602470556913 0.000185241432008787 6.44157331611754e-18)
(0.529147570733909 0.00104006352566112 4.41256033223557e-18)
(0.704544708027425 0.000201146075403375 -8.20426480475914e-19)
(0.529152030146412 0.00111276989189872 9.07615241690602e-18)
(0.704417721631536 0.00020796152928267 -1.49511044395519e-17)
(0.528918387597419 0.00115200636556742 -9.40976850860088e-18)
(0.704259857701483 0.000212897235112012 -1.11776378798277e-17)
(0.528612078390578 0.00117274409999423 -9.44188594850179e-18)
(0.704091270061991 0.000216922351003912 5.52656812740027e-18)
(0.528273065802448 0.00118426557850392 -6.24336608223919e-18)
(0.703919477676043 0.000220478515150277 1.33322951683509e-17)
(0.527923230890271 0.00119364247469549 1.43162233415066e-17)
(0.703744040647943 0.000223302524569246 1.55894059077991e-17)
(0.527566889456018 0.00120090433742517 1.89016933581572e-17)
(0.703565131919601 0.000225903038365897 1.35663606008082e-17)
(0.527203702090065 0.00120752032525739 1.2802139572321e-17)
(0.703382489275033 0.000228773856242234 2.38323284338642e-17)
(0.52683342602268 0.00121420350471721 7.33559295774884e-18)
(0.7031961983282 0.000231673773273043 5.1280980160104e-17)
(0.526455816931429 0.00122177249672163 5.44109405775906e-17)
(0.703005090747255 0.000234126764758772 1.93140532713822e-17)
(0.52606987972924 0.00122868611865269 7.89578725862816e-17)
(0.702809317628329 0.000236364755055656 -6.39425548278211e-18)
(0.525674969424027 0.0012350399587369 -3.97451999296471e-17)
(0.702608768822212 0.000238819227741662 -9.53886203154715e-19)
(0.525270971605897 0.00124145528494549 -8.90913275006165e-18)
(0.702403438096439 0.000241403180830775 -1.36241644848606e-17)
(0.524857555543769 0.00124858015899964 -3.82489413991558e-17)
(0.70219286332217 0.00024373623492783 1.04642496001582e-17)
(0.52443425984774 0.00125554310380277 2.59028497029164e-17)
(0.701976505796737 0.00024589444221678 5.79267068214075e-17)
(0.524000526624716 0.00126206411721702 4.94602719915946e-17)
(0.70175414790693 0.000248219787819881 4.61711710533583e-17)
(0.523555498150861 0.0012686644172471 1.0939928718071e-16)
(0.701526100778379 0.000250762932902106 8.19393343483014e-18)
(0.523099168118382 0.00127587894590934 2.94719975795605e-17)
(0.701292204824548 0.00025319612784437 2.86500718642462e-17)
(0.522631365977737 0.00128336489503412 1.66789531414555e-17)
(0.701051617978355 0.000255469851024885 1.52075629649713e-17)
(0.522151288014273 0.00129044864481005 5.07871236302919e-17)
(0.700804043025194 0.000257908621918534 1.06183167238472e-17)
(0.521658075610856 0.00129766589194399 -3.58552544883817e-17)
(0.70054977527526 0.000260695178189251 3.95168391860975e-17)
(0.521151355871835 0.00130549214464024 4.03906446412817e-17)
(0.70028951846384 0.000263487882087392 -2.66469525659284e-19)
(0.520631500859636 0.00131408099305326 6.7932823790884e-17)
(0.700021917359483 0.000266139622109435 -1.05522618985424e-17)
(0.520097926737921 0.0013222082648471 -2.3638223736238e-17)
(0.699746374715278 0.000269060292997029 1.36199820571358e-17)
(0.519549054368517 0.00133064478742421 2.7274138688535e-17)
(0.699462896269868 0.00027267077774131 1.15645175377389e-17)
(0.518984490798421 0.00133992005882865 5.27246548080614e-17)
(0.699172552684704 0.000276505700497878 -3.4490893277768e-18)
(0.518404543246224 0.00135089907355929 -2.63725788718576e-17)
(0.698873896033987 0.000280110721319591 -2.13261661316731e-17)
(0.517808657024079 0.00136125398930175 -3.28814253521371e-17)
(0.698566753609807 0.000284012139158125 -1.17534353033472e-17)
(0.517195448571247 0.00137189533184081 -5.49454714562916e-17)
(0.698251035700829 0.000289116615381546 -3.76958265711605e-17)
(0.516564680345482 0.00138357975260168 1.03268726676685e-17)
(0.69792869308288 0.000294868491350232 -3.21418009077242e-18)
(0.515917012120691 0.00139851818707234 -1.20758082462531e-16)
(0.697597890857968 0.000300381685239967 3.96052420729957e-17)
(0.515252067387981 0.00141276769605114 3.45729377985582e-17)
(0.697258387587309 0.000306385304038132 3.53260077476202e-18)
(0.514568437174504 0.00142745039599951 1.17995413463897e-17)
(0.696910120812466 0.000314322738935582 2.65880761424537e-18)
(0.513865829646313 0.00144379744104515 2.78520653882985e-18)
(0.696556163992603 0.000323703882999465 -2.50936652231023e-17)
(0.513145660948329 0.00146528502541181 1.40954784153005e-17)
(0.696195448767236 0.000333085780092486 -2.81586590563892e-17)
(0.512408528328264 0.00148695959690895 -1.15683947387351e-16)
(0.695827700061634 0.00034327425904194 5.20383395504715e-17)
(0.511653707025463 0.00150914401064513 -2.48492748549051e-18)
(0.695452780896212 0.000356627200499832 6.56512164797475e-17)
(0.510881331345043 0.0015341419644472 1.31701956243823e-16)
(0.695074634666632 0.000373067167058105 4.39788657951277e-17)
(0.510093591889312 0.00156732632473744 5.04333122316885e-17)
(0.694694199738945 0.000390110570803612 7.24445240446559e-17)
(0.509292753480503 0.00160323809000035 1.20708955418238e-16)
(0.694311552282198 0.000408207505470273 2.17214924020345e-17)
(0.508480170216774 0.00163933736515185 1.00977393421543e-16)
(0.693928265334812 0.00043131777060716 -5.68101684857436e-17)
(0.507657583627838 0.00167966091840245 -1.07855696867166e-16)
(0.693550207658851 0.000460777697378982 -5.53680196955365e-19)
(0.506831176886127 0.00173305685651583 -1.47920591388679e-16)
(0.693180901896171 0.00049228700033962 3.872657448634e-17)
(0.506005567646391 0.00179522377684765 7.82372440340232e-17)
(0.692820797289303 0.000525020260972619 9.18943894345702e-18)
(0.505184989330965 0.00185660450077286 1.07953107254733e-17)
(0.692475282408758 0.000565436780135344 3.81151745155904e-17)
(0.504376270450371 0.00192413509876107 2.22486509964928e-17)
(0.69215274258019 0.000618212786675419 2.89928428106729e-17)
(0.503592853283929 0.00201186228954375 1.24966875906993e-16)
(0.691863965848659 0.000675517192536856 -5.1121814529785e-17)
(0.502844761924843 0.00212105975443363 -1.10873958759935e-17)
(0.691610177006268 0.000733159157197212 -2.74057275671904e-17)
(0.502143050121854 0.00222532117233333 -1.84991920464033e-16)
(0.691405792987165 0.000802131636932605 -2.70191196256726e-17)
(0.501505507254785 0.00233748168297795 4.30614569702513e-17)
(0.691262395837046 0.000894540441089343 -2.18274373526471e-17)
(0.500962471877656 0.00248044750979598 -1.3872682157722e-16)
(0.691205849031961 0.000996208138484178 3.26137394269008e-17)
(0.500532121462706 0.00267011637617305 4.86239145274067e-17)
(0.691243147870363 0.00109556916997538 1.47895223780075e-17)
(0.500242532627318 0.00284563811363023 3.23767870265593e-17)
(0.691418342409236 0.00121232528177634 -3.55946609779012e-17)
(0.5001404968089 0.00303094843442842 -2.10960521063481e-17)
(0.691797738497989 0.0013967807266133 -3.65210106220516e-17)
(0.500324458552947 0.00326916121516794 -1.69743238835921e-16)
(0.692594736421227 0.00164906856847207 -1.77226242945888e-17)
(0.500949855961226 0.00367829251493298 2.29018663193084e-17)
(0.694029213625202 0.00194367582651598 -3.88360265479089e-17)
(0.502276241082304 0.00414544079034819 -9.30548842955828e-17)
(0.696403999092699 0.00232952380262554 -4.7402671320457e-17)
(0.504656409714995 0.0047063953337511 -1.97103055513053e-17)
(0.699850801708414 0.00294213817040037 -2.04196624167528e-17)
(0.508603413621646 0.00549367292377159 -8.61425861280676e-17)
(0.704513694847634 0.00362806729556015 2.80319172255516e-17)
(0.514256467060889 0.00677289393283214 4.44261161355773e-17)
(0.710280433182864 0.00419613180833887 4.76236623772764e-18)
(0.52166768969851 0.00779773436090818 9.89366394230619e-17)
(0.717272688593901 0.00474503431334441 1.42810683869065e-17)
(0.53119950363606 0.0087045028336906 -2.32037695120599e-17)
(0.725418737514178 0.00537080801445905 -2.00185027150001e-17)
(0.54296705060543 0.00964199547652714 1.08615204381817e-16)
(0.734808751659138 0.00588462447005544 -3.80500724408846e-17)
(0.55682089802862 0.0107315908952447 -1.08880335217658e-16)
(0.745395895206978 0.00615199753060044 2.94919903124534e-17)
(0.572773199505544 0.0112689721580785 -4.12657222181231e-17)
(0.757213018761839 0.00633474778634147 3.53944991602964e-19)
(0.591089445152096 0.0115473540975432 8.37916643418172e-17)
(0.770079732962326 0.00645041637790307 4.38588091537021e-17)
(0.611423938669677 0.0117360904945571 -8.55289762351458e-17)
(0.783909632053587 0.00636933851374563 8.19155982183512e-17)
(0.633455364660439 0.01172658816808 1.87113424033788e-16)
(0.798547356428021 0.0060809644543525 -1.47656078087747e-17)
(0.657047271199351 0.0112374985286316 7.02964392930065e-17)
(0.813843677242556 0.00569544593471394 -2.79996228139446e-17)
(0.68203165780975 0.0105240729025002 -1.99618454297922e-16)
(0.829625618973604 0.00519270254227131 5.49731678753745e-17)
(0.707899596868926 0.00965808001244793 1.50154062652086e-17)
(0.845776169971088 0.00457524528922481 1.34652152448665e-16)
(0.734480280364305 0.00853283609776111 7.61369266360713e-17)
(0.862159457477125 0.00390541031248484 7.30057599799326e-17)
(0.761572865336797 0.00727745384159335 3.35123800870326e-16)
(0.878718087017272 0.00318692262981382 -4.21264512535021e-17)
(0.788941392196427 0.005959689419057 3.17578672450552e-17)
(0.895355852919705 0.00244550994531374 -2.50056264117062e-18)
(0.816369976792288 0.00453603429619403 -1.27001035966524e-16)
(0.912137826299303 0.00175141101507619 -6.3100365185374e-18)
(0.84410719929019 0.00315119488674943 1.41978557774881e-16)
(0.928974298722351 0.00109389397047331 -4.3553668405888e-17)
(0.871637718119911 0.00188374970319549 -1.37921702113606e-16)
(0.94612062952434 0.00050403438916907 -5.66347643844506e-19)
(0.899823927900741 0.000637345427943794 -3.35565963204949e-17)
(0.963302589555845 -1.92077697481247e-05 7.99645265311076e-17)
(0.927464473503302 -0.000434254219087393 -3.86502470019335e-17)
(0.981332017240185 -0.000420101258419584 7.03004126306003e-17)
(0.957125811023618 -0.00141484861101273 2.09418428353833e-16)
(0.999474188617121 -0.000737904117457076 3.80458492552602e-17)
(0.985195877483142 -0.0020738935268423 -6.06438169957346e-18)
(1.01947671018016 -0.000831321746963605 2.20142423370983e-17)
(1.01889557012574 -0.00277303258353778 1.54889500005808e-16)
(1.03883149318376 -0.000970435762187683 -2.72827149615156e-17)
(1.04703486510905 -0.00282520004811908 -6.51640296369533e-17)
(1.06029824615552 -0.00057346133369866 -1.9464532632869e-17)
(1.08888977432089 -0.00315926633053324 -1.2241061537057e-17)
(1.06030481357257 -0.000157716058443249 -2.78196885195859e-18)
(1.10493440688972 -0.000630688057521792 -3.56213889912735e-17)
(1.06344363434715 2.20985044799867e-05 1.95796982734113e-17)
(1.09886164760799 -0.000480972408647256 5.70145594095869e-17)
(1.06417639173095 0.000118744865454606 1.78590816258187e-17)
(1.10486478027651 -4.57740540766624e-05 5.79039633715475e-17)
(1.06574512167132 0.000223044156627793 1.63852515665736e-17)
(1.10284712222305 4.75823632247821e-05 -3.97116550794958e-18)
(1.06616911436928 0.000304626836722464 -1.3683205710311e-17)
(1.10504862412074 0.000311542041219196 6.07091707724124e-17)
(1.06664465427555 0.000328115726368673 -2.56186753350927e-17)
(1.10403070062491 0.000375500246253356 -9.99472489001042e-17)
(1.06668169501398 0.000349193571480832 -1.17013350659758e-18)
(1.10449947556808 0.000460999183749447 -1.42909854425298e-17)
(1.06667305008838 0.000358026719990909 -6.38825675380908e-19)
(1.10381518235654 0.000494855411092063 -5.68338067978729e-18)
(1.06646937838811 0.000353842723683263 -5.49505014959103e-18)
(1.10357322591582 0.00052508757812111 1.83433509858175e-17)
(1.06624665406626 0.000342900644210575 -9.04307434993392e-18)
(1.10291427013344 0.000523402242250515 -1.10682136931469e-17)
(1.06596626690706 0.000325268841360434 -2.58636631457914e-18)
(1.10244137976278 0.000518572382025608 -1.20366482123438e-17)
(1.0656561180694 0.000305497134038762 3.02008069242126e-18)
(1.10177592121146 0.000488948381458826 7.67584688223201e-19)
(1.06508814367423 0.000332016219285792 3.24603377383781e-18)
(1.10123625000815 0.000459979114203348 6.74047418792197e-18)
(1.0999482917811 0.000354644937769399 2.40280609459254e-18)
(0.351419558310194 0.00200828391510259 -4.69794800448427e-18)
(0.211242486229702 0.00313729861225432 -4.74355149011418e-18)
(0.351962114789811 0.00209551114883109 8.92978746533514e-19)
(0.213514213726206 0.00337173229094488 -8.1165673581045e-18)
(0.352099162579951 0.0022005368020318 7.05990961760809e-18)
(0.213554926163483 0.00359695852663208 4.29618534573712e-18)
(0.351894048377774 0.00230676276184233 4.53158578618011e-19)
(0.213486363706428 0.00383374734293323 2.77458766621194e-18)
(0.351499689157732 0.00236495399138856 -3.84970728198936e-18)
(0.213025666909796 0.0039647971899324 -1.27759469831513e-18)
(0.351024744850274 0.00239432568502267 -4.47013792638194e-18)
(0.212441301013611 0.00402653115985729 5.42359238063633e-18)
(0.350518733516622 0.00241178367676602 2.57864113718104e-18)
(0.211801393103691 0.00405690790333781 -8.51858493688574e-18)
(0.349999853104495 0.00242502099239304 1.99252046520599e-17)
(0.211140922744154 0.00407709707613398 -5.83770761894266e-18)
(0.349470733767292 0.00243629326721271 1.61028003309583e-17)
(0.2104677557118 0.00409318123837155 1.35876590171089e-17)
(0.348930902847827 0.00244720163042966 6.52808633331968e-18)
(0.209781608262366 0.00410808192809432 -8.90383492751863e-18)
(0.34837996150745 0.00245870925471867 3.80856480636169e-17)
(0.209081742674538 0.00412331019085941 5.09945962411026e-18)
(0.347817853849564 0.00247038999655029 8.22781611730223e-17)
(0.208368192126358 0.00413956515325228 8.43884831410591e-17)
(0.347243131642385 0.00248140720626574 1.96150076691868e-17)
(0.207640033585075 0.00415532592626967 8.37245496002397e-17)
(0.346654782463697 0.00249215310969858 -4.2335046274081e-17)
(0.206895583557841 0.00417044032888682 -5.4378161388051e-17)
(0.346052441327226 0.00250338527030857 -4.64644415782919e-17)
(0.206133993817316 0.00418578260830956 -4.22465467875175e-17)
(0.34543607940194 0.00251497631263059 1.50024520180369e-18)
(0.205355155396265 0.00420202203926635 -4.22954356704655e-17)
(0.344804796730837 0.0025262652299042 6.51794656405199e-17)
(0.204558584801979 0.00421825027712414 5.90425290961738e-17)
(0.344157337537389 0.00253739094006897 1.0126009489966e-16)
(0.20374287853546 0.00423408528432266 6.85513648184531e-17)
(0.343493050938622 0.00254898973913706 9.26744800092601e-17)
(0.202906647682784 0.00425018174971738 1.40201537245375e-16)
(0.342811901563813 0.002561176053181 3.80393568305943e-17)
(0.202049636301785 0.00426718359527751 6.08998404068409e-17)
(0.34211326242923 0.00257336067456578 3.89475736744315e-17)
(0.20117157975102 0.00428468465050376 3.54327366268467e-17)
(0.341395657435386 0.00258546350222241 -5.72899259521362e-19)
(0.200271048132166 0.00430194867516789 8.33940607842824e-17)
(0.34065816786589 0.00259810734852693 -5.93303313632337e-18)
(0.199346383130268 0.00431955315737431 -2.96360312685419e-17)
(0.339900691321617 0.00261166088569178 6.89937697513501e-17)
(0.198396899486884 0.00433821404911489 3.3932149288226e-17)
(0.33912309059115 0.00262549900037113 4.44619057265055e-17)
(0.197422737829057 0.00435793977935943 9.49281638215968e-17)
(0.338323497356424 0.00263936399705111 1.44271487262005e-17)
(0.19642260072185 0.00437751958247434 -1.52068064723027e-17)
(0.337500586236696 0.00265407297699871 6.66435761627111e-17)
(0.195394107886736 0.00439767509459276 5.86447982593547e-17)
(0.33665412332905 0.00267045973439373 1.45592429089482e-17)
(0.194336310071916 0.00441940608703838 4.75048282698132e-17)
(0.335784461618823 0.0026876446428081 -5.60075126797993e-17)
(0.19324973812569 0.00444336897384852 -5.92757290404771e-17)
(0.334889488026037 0.00270477753481556 -6.67252902336862e-17)
(0.192133280894569 0.004467179547901 -2.05932935842282e-17)
(0.333967729338422 0.00272293065868042 -3.2728104386925e-17)
(0.190984088343735 0.00449151077867358 -7.11450566028051e-17)
(0.333019045941909 0.00274391487261222 -7.32793160986853e-17)
(0.189800886065531 0.00451799696975203 -7.6633568588362e-18)
(0.332044876906732 0.0027666714631259 -8.2718758628379e-17)
(0.18858522636497 0.00454865064548834 -1.68386303662165e-16)
(0.331042804730573 0.00278949342162936 6.58355861699914e-18)
(0.187336609585535 0.00457937603580929 -2.13123939796746e-17)
(0.33001106147072 0.00281388931976231 1.10451587287398e-17)
(0.186051491447022 0.0046108335211225 2.11337184855884e-17)
(0.328949892069857 0.00284280688039122 1.42981552249687e-17)
(0.1847283299967 0.00464558518896969 -1.19891014692625e-17)
(0.327862422978277 0.00287531528997991 -7.71194392006531e-17)
(0.183370240796409 0.0046871256654035 4.48385937413598e-17)
(0.32674719314325 0.0029085698512707 -8.97857278217327e-17)
(0.181978632612863 0.00473010204132934 -2.48032335893386e-16)
(0.325602459265641 0.00294428716836306 7.77553455216991e-17)
(0.180550139889779 0.004774123554292 1.23605206121703e-17)
(0.32442930011607 0.00298736671074953 1.16325431091026e-16)
(0.179083177793393 0.00482330948328985 1.4279039559834e-16)
(0.323233668098754 0.00303770839311755 1.27680193586174e-16)
(0.177583381064485 0.0048837577360857 8.95050706288456e-17)
(0.322017122332168 0.00309029687321371 1.49384501053856e-16)
(0.176056605317889 0.00494911747574098 1.74483285082998e-16)
(0.320778795938878 0.00314617480873865 -2.95910338676222e-17)
(0.174501417604232 0.00501553052862514 1.37761320359252e-16)
(0.319522602621369 0.00321369787324892 -1.99530365535679e-16)
(0.172916701601377 0.00508928176022977 -1.24804411543379e-16)
(0.31826048814776 0.00329567364240425 -6.8359379801063e-17)
(0.171314035072506 0.00518170841339848 -2.39714643823813e-16)
(0.317000695275174 0.00338324984611937 5.00448443377505e-17)
(0.16970901660425 0.00528704415374667 1.00360081723757e-16)
(0.315744810853739 0.00347482195172117 2.39445283200249e-17)
(0.168105127317629 0.00539299030575414 1.70820236101345e-17)
(0.314503114306063 0.00358421667425629 1.09755172955695e-16)
(0.166503976613506 0.00550874283354032 4.02034019366174e-17)
(0.313298957093298 0.00372113299981001 8.44016421392991e-17)
(0.164927494082029 0.0056546909512975 1.9366988027097e-16)
(0.312156752248141 0.00386919097531372 -1.46023028910407e-16)
(0.163413344076231 0.00582959442061274 -2.07817399027835e-17)
(0.311083543951009 0.00401960069473787 -1.13637603610559e-16)
(0.161977366449366 0.006001232505762 -3.11029744004302e-16)
(0.310103692879812 0.00419620248995223 -6.96563543036264e-17)
(0.160626867028455 0.00618364829197163 5.78413845450484e-17)
(0.309262607839508 0.0044241167606885 -6.74433166062161e-17)
(0.159404040350768 0.00641444551093319 -1.86164436629699e-16)
(0.308620749658173 0.00467346934503652 4.83421642882188e-17)
(0.158393225643847 0.00670549163618148 5.1165415182307e-17)
(0.30820072509875 0.00491956991030301 -3.83702061330451e-18)
(0.157640028916048 0.0069842369049861 6.8191284957522e-17)
(0.308070949273936 0.00520812425675318 -1.56360406071817e-16)
(0.157171326597239 0.00727097651499603 -8.87803553597985e-17)
(0.308384601623375 0.00564699896503109 -1.09458688179245e-16)
(0.157076980780475 0.00765217468116712 -3.15907378162823e-16)
(0.309471052668453 0.00623872608803572 -5.31763395138846e-17)
(0.15767253353632 0.00826222583622903 6.05237085369534e-18)
(0.311647793918211 0.00693062674454299 -7.36304918571722e-17)
(0.159336516788475 0.00897710111430736 -1.47481377705263e-16)
(0.315370728411609 0.00783905397745293 -5.88709660716762e-17)
(0.162439790255361 0.00981651856571493 -8.0245426479925e-17)
(0.321165924953833 0.00923310139275456 -2.0612876900076e-17)
(0.167519791219466 0.0110433494242123 -1.25114474178997e-16)
(0.329666926361245 0.0107770389264979 1.15973298137372e-16)
(0.175584575933357 0.0128853878700519 9.17956089631741e-17)
(0.340918346237116 0.012056624126792 7.06902210915108e-17)
(0.187062614078792 0.0144219667321429 1.20328556023817e-16)
(0.355119401081055 0.0132717522200782 7.19732570519203e-17)
(0.201916366185945 0.0157171685085058 -4.05117459844132e-17)
(0.372467400579519 0.0146086425670273 1.91380699573005e-17)
(0.22039886376648 0.0170834694384508 1.55024269221191e-16)
(0.393234065766657 0.0156554716269025 -1.1218346831658e-16)
(0.243098835391788 0.018541698453306 -1.42193037616314e-16)
(0.417130107627068 0.0161355741216681 1.33321287097584e-17)
(0.269918770666137 0.0192277921930145 -1.62817620603425e-16)
(0.44401534280079 0.0163784267261094 -2.52046308086275e-18)
(0.300369465678931 0.019462735573121 1.00793472056199e-16)
(0.47369744189225 0.0164189838547907 5.82615106875155e-17)
(0.334336679466609 0.0195380186028627 -1.77926349827804e-16)
(0.505908396098152 0.0159837514452893 1.7553189017591e-16)
(0.37170186604847 0.0192442253775172 2.34355517464755e-16)
(0.540110181109279 0.0150637015886239 -1.15022108776968e-16)
(0.41184242046424 0.0182474854323269 1.44210031205582e-16)
(0.575884663495025 0.0138880706120751 -1.56497865478224e-16)
(0.454077363379403 0.0168775443328572 -4.05066858071628e-16)
(0.612846361801971 0.0124282424215246 3.6259158915166e-17)
(0.497967079974225 0.0152454002657426 3.08329983461712e-17)
(0.650606914490034 0.0107035124941928 2.76535310184135e-16)
(0.543076835951318 0.0132296909711605 3.94024216315296e-17)
(0.688836772807349 0.0088479571079634 2.92996389931746e-16)
(0.588835468185186 0.0110130493464416 6.14853725381815e-16)
(0.727318579089597 0.00688052537209683 -5.31816937771208e-17)
(0.63507240819908 0.00868013970933001 1.4167997144644e-16)
(0.765836100607154 0.00487119011656341 1.77279532552362e-17)
(0.681238609225863 0.00621667570246979 -2.52321090953563e-16)
(0.80442511618238 0.00297051534091646 9.80873247899048e-18)
(0.727614988507999 0.00380635709423279 1.8408851898323e-16)
(0.843100886655281 0.00115718393541759 -1.2701498059076e-16)
(0.773540845527654 0.00157665894755811 -3.8315413086375e-16)
(0.882082996038418 -0.000505405369075478 -7.0903022559115e-17)
(0.820484665646247 -0.000625928678586038 -6.52306023644033e-17)
(0.921381094898704 -0.00200230997415741 9.1609731801919e-17)
(0.866193924557358 -0.00253851466480904 -1.46473011429402e-16)
(0.961840261871944 -0.00322396175776238 1.31411524485292e-16)
(0.91511608042777 -0.00434569863231428 2.64497553321101e-16)
(1.00345873148479 -0.00427067494941538 1.10486480661635e-16)
(0.961158207111292 -0.00563645163985881 -1.52265991934908e-17)
(1.04767928767511 -0.00483925301996546 6.55401402904922e-17)
(1.01645818196632 -0.00705836567382146 3.03560156411918e-16)
(1.09345819870405 -0.00520792520597909 -4.93922897122628e-17)
(1.06241713661887 -0.00741061065493753 -1.48662564752849e-16)
(1.13828753298097 -0.00303070776589517 -2.82933344628579e-17)
(1.1314554510854 -0.00786879043614644 5.40746136110205e-18)
(1.13884408145975 -0.000726327258191386 2.36959705940194e-17)
(1.1567489025867 -0.000924491868503396 -7.02707373652788e-17)
(1.14102512907658 -0.000274778495626081 9.41838864927041e-17)
(1.14489063347933 -0.000769309765988631 1.12612837635905e-16)
(1.14125054759696 2.53815346448571e-05 3.57902753191338e-17)
(1.15380784834728 -6.46447583325946e-05 9.4686399573087e-17)
(1.14181262922176 0.000283201082732146 4.01083923208105e-17)
(1.1490879289382 6.77583139581145e-05 -3.33578869840278e-17)
(1.14156998434261 0.000495583126233847 -2.56121480790439e-17)
(1.1518867844953 0.000457882594237257 8.88226500170622e-17)
(1.14127550813813 0.000586412776691363 -8.78207809071143e-17)
(1.14963701356115 0.000557690968424283 -1.91343400502583e-16)
(1.14067948059382 0.000660158211422018 -1.86041004850382e-17)
(1.15000186633122 0.000688987404044007 -4.13011000150336e-17)
(1.14002695198478 0.000703392006036623 1.31863966560279e-17)
(1.14857011797139 0.00073773299068731 -1.19639642548124e-17)
(1.13923781678121 0.00071904748649944 1.25507311326539e-17)
(1.14802521746315 0.000784562107893261 3.39473299849283e-17)
(1.1384283845134 0.000715734548415909 -1.40154583276667e-17)
(1.1468198384646 0.000783081255701954 -1.07001732680694e-17)
(1.13758744404105 0.000695856700751939 -8.60987781172506e-18)
(1.1459855903171 0.000774957912197715 -2.36883904050046e-17)
(1.13674208838531 0.000669209460891865 4.48373957263343e-18)
(1.14486595746561 0.000732376030390122 -1.01765862190089e-18)
(1.13576514275263 0.000663808075396456 5.87400262520711e-18)
(1.14405496222504 0.000689711031686672 7.06227471326469e-18)
(1.14284299505234 0.000486669630740664 3.51309947177263e-18)
(0.0724377013032339 0.00442961960307176 -8.18509810045391e-18)
(-0.0311520000821161 0.00571949228835158 -8.54746531637178e-18)
(0.0736334891637441 0.00491292483362252 -4.71208670583427e-18)
(-0.0282991480066597 0.00610577826754684 -1.3620537142073e-17)
(0.0737726077549076 0.0053169274555216 -2.39570381541775e-20)
(-0.0283016183918623 0.00683617798383845 -6.50882243731067e-19)
(0.0733917302794177 0.00558542802699962 1.03755757280089e-18)
(-0.0285507108058575 0.00731560050415165 -5.17710866662848e-18)
(0.0727556596659618 0.0057231133047663 8.0624898081868e-18)
(-0.0292345709724447 0.0075657124714777 6.14685935707968e-18)
(0.0720143591331933 0.00578711496908506 1.36922893301778e-18)
(-0.0300507252477509 0.00767741493240941 8.32372322695004e-18)
(0.0712306249215748 0.0058209594254916 -1.70127010162965e-17)
(-0.0309270131334692 0.00772968456364045 -1.34746466704261e-17)
(0.0704270689648683 0.00584452496727016 -1.22671377323402e-17)
(-0.0318282958216401 0.00776176602421127 -4.86924412247536e-17)
(0.0696079536459953 0.00586469423436862 -1.15872281090133e-17)
(-0.0327466396275966 0.00778728794382641 -3.78745307762652e-17)
(0.0687727834601322 0.00588438309914641 -1.03696881061281e-17)
(-0.0336821967851616 0.00781129539334822 -3.89373602623787e-17)
(0.0679211204827518 0.00590483989655705 5.16466284782543e-17)
(-0.0346358787190199 0.00783580113243786 -8.74552689062011e-18)
(0.0670527161134907 0.00592565693986193 8.58477949454752e-17)
(-0.0356077439634583 0.00786144073558468 9.1416885431834e-17)
(0.0661659903319481 0.00594598518313272 9.35269955665939e-18)
(-0.0365987230670279 0.00788687227657035 7.2299827469147e-17)
(0.0652593856629329 0.00596618086053789 -5.43072101112434e-17)
(-0.0376107866834724 0.00791188193185207 -1.14250645171372e-17)
(0.0643322789265823 0.00598702223477508 -3.80446075525281e-17)
(-0.0386451509463002 0.00793728964887024 -6.58905008675173e-17)
(0.0633844520297356 0.00600839714643954 1.55595263856253e-17)
(-0.0397020716574605 0.00796370194942718 -4.17268362594272e-18)
(0.0624147393954824 0.0060296607141658 6.24284040689928e-17)
(-0.0407821870446938 0.00799032887057856 4.64456602673713e-17)
(0.061421482198981 0.00605095673946707 1.07705001169782e-16)
(-0.0418872138497139 0.00801681230288949 7.88574584570401e-17)
(0.0604036930942566 0.00607295454422743 1.08274645304612e-16)
(-0.0430187782393443 0.00804377715378893 1.47935497419274e-16)
(0.0593610276318386 0.00609578370723239 5.82996947857821e-17)
(-0.0441774503285768 0.00807184381161669 8.95211999869072e-17)
(0.0582925135584038 0.00611886705406972 8.0161658124389e-17)
(-0.045363749766324 0.00810064811407883 5.41924202005895e-17)
(0.0571962763856923 0.00614213231913101 5.42150247210398e-17)
(-0.046579389052598 0.008129526491018 1.00628631967557e-16)
(0.0560709506583591 0.00616625352724373 1.04673844813265e-17)
(-0.0478263595146561 0.00815901994203485 1.64309236797583e-17)
(0.0549160874052445 0.00619161319464508 6.00098214933821e-17)
(-0.0491056578790842 0.00818985899546818 2.18286177671935e-17)
(0.0537310045966238 0.00621759959639489 3.49049289310051e-17)
(-0.0504175492992021 0.00822202821380619 9.16065443986699e-17)
(0.0525134539011409 0.0062439752072903 2.92808716805855e-17)
(-0.0517637188118534 0.00825445583006366 -2.83462834769543e-17)
(0.0512615928272281 0.00627164867418893 3.93799104362262e-17)
(-0.0531468125749011 0.00828780032803783 5.26499297085018e-17)
(0.0499749706903506 0.00630148945182916 -2.67961304529697e-17)
(-0.0545681513151343 0.0083231351946447 -2.87010486842536e-17)
(0.0486534566254599 0.00633260262531543 -2.36338587376382e-17)
(-0.0560274619680955 0.00836100611381008 -6.14968281655696e-17)
(0.0472944439539251 0.00636411529506967 -2.50374936322085e-17)
(-0.0575262294962319 0.00839924603012328 -2.00183191420507e-18)
(0.0458955610118287 0.00639725553834569 -4.59176510997412e-17)
(-0.0590678373313099 0.00843841511240005 -5.14550994279901e-17)
(0.0444565715382769 0.00643394587912011 -1.03394416067073e-16)
(-0.0606541204034176 0.0084803180408016 -5.06829815646505e-17)
(0.042978619804471 0.00647309798023913 -1.06561735581636e-16)
(-0.0622835683994032 0.00852675012994839 -1.90616229450925e-16)
(0.0414588202106346 0.00651293464085566 -6.65815009596102e-18)
(-0.0639568993952759 0.00857393664961761 -6.8234359140087e-18)
(0.0398942615502752 0.00655518222851863 -2.05545008152979e-18)
(-0.0656783966189206 0.00862235270213287 7.77082962946642e-17)
(0.038285357126642 0.00660305618023295 1.87661386372773e-17)
(-0.0674501782733905 0.0086748422158965 2.30931701233892e-17)
(0.036635471275765 0.00665557620297673 -1.27280702684606e-16)
(-0.0692687999583249 0.00873465031966138 1.02969748891741e-16)
(0.0349428119987072 0.0067097363424479 -1.4508560478799e-16)
(-0.071132681222337 0.00879673574442704 -3.48066683804932e-16)
(0.033204336153446 0.00676755771318627 7.7887017328166e-17)
(-0.0730460799939917 0.00886051274550356 -1.04693422731694e-17)