/*--------------------------------*- C++ -*----------------------------------*\
| =========                 |                                                 |
| \\      /  F ield         | foam-extend: Open Source CFD                    |
|  \\    /   O peration     | Version:     4.1-20200408                       |
|   \\  /    A nd           | Web:         http://www.foam-extend.org         |
|    \\/     M anipulation  |                                                 |
\*---------------------------------------------------------------------------*/
FoamFile
{
    version     2.0;
    format      ascii;
    class       volSymmTensorField;
    location    "0.0125000";
    object      bEbar;
}
// * * * * * * * * * * * * * * * * * * * * * * * * * * * * * * * * * * * * * //

dimensions      [0 0 0 0 0 0 0];

internalField   nonuniform List<symmTensor> 
1952
(
(1.00419 -4.27785e-06 1.15116e-11 0.997908 9.03517e-12 0.997912)
(1.00418 -3.12321e-06 8.48054e-12 0.997911 -3.08154e-11 0.997918)
(1.00415 -7.91668e-06 -6.41936e-12 0.997921 -8.21545e-11 0.997943)
(1.00411 -5.90739e-06 -1.91024e-11 0.997935 6.04787e-11 0.997969)
(1.00406 -1.15611e-05 7.86106e-12 0.997952 1.47932e-10 0.997999)
(1.00402 -1.00414e-05 3.46357e-11 0.997965 -6.92004e-12 0.998023)
(1.004 -1.69316e-05 1.23725e-11 0.997973 -1.63039e-10 0.998042)
(1.004 -1.52058e-05 -9.96497e-12 0.997966 -1.73695e-11 0.998042)
(1.00405 -2.34147e-05 9.38054e-12 0.99794 1.53763e-10 0.998018)
(1.00412 -2.19489e-05 1.37083e-11 0.997907 -4.60725e-11 0.99799)
(1.00427 -3.65329e-05 -9.63195e-12 0.997836 -1.89592e-10 0.997912)
(1.00449 -3.73968e-05 5.37722e-12 0.997726 4.79122e-11 0.997798)
(1.00452 -4.97082e-05 -1.94737e-11 0.997683 2.20644e-10 0.997816)
(1.00455 -8.82237e-05 6.51115e-11 0.997636 1.30326e-12 0.997833)
(1.0046 -0.00026863 -5.85159e-11 0.997548 -2.74525e-11 0.997865)
(1.0042 -4.3068e-07 3.32054e-12 0.997907 -6.83246e-11 0.997907)
(1.00431 -1.8169e-05 2.29724e-11 0.99785 1.00559e-11 0.997852)
(1.0043 -2.13307e-05 1.69772e-11 0.99785 -3.34725e-11 0.99786)
(1.00427 -3.87594e-05 -1.27936e-11 0.997861 -9.01399e-11 0.997882)
(1.00423 -3.97577e-05 -3.79634e-11 0.997872 6.51059e-11 0.997909)
(1.00419 -5.99934e-05 1.56755e-11 0.997889 1.63317e-10 0.997939)
(1.00415 -6.30925e-05 6.92236e-11 0.997899 -6.26043e-12 0.997966)
(1.00412 -8.87993e-05 2.46248e-11 0.997906 -1.82186e-10 0.997982)
(1.00413 -9.41269e-05 -2.02752e-11 0.997896 -2.17692e-11 0.997984)
(1.00419 -0.000126065 1.86888e-11 0.99787 1.70255e-10 0.997958)
(1.00425 -0.00013684 2.80017e-11 0.997834 -4.78477e-11 0.997934)
(1.0044 -0.000188486 -1.882e-11 0.997763 -2.05919e-10 0.997855)
(1.00462 -0.000211955 1.04335e-11 0.997655 5.13951e-11 0.997736)
(1.00464 -0.000264711 -3.89477e-11 0.997621 2.40019e-10 0.99776)
(1.00462 -0.000338446 1.22069e-10 0.997609 1.4663e-12 0.997789)
(1.00452 -0.00049525 -1.39589e-10 0.997658 -3.70349e-11 0.997837)
(1.00432 -4.85336e-06 6.64982e-12 0.997847 -7.45256e-11 0.997849)
(1.00441 -2.86842e-05 2.28959e-11 0.9978 1.0867e-11 0.997802)
(1.00441 -3.79442e-05 1.69488e-11 0.997799 -3.58982e-11 0.99781)
(1.00437 -6.35576e-05 -1.27454e-11 0.997811 -9.69963e-11 0.997831)
(1.00433 -7.08262e-05 -3.79372e-11 0.997821 6.95876e-11 0.997859)
(1.00429 -0.000100425 1.56103e-11 0.997839 1.76601e-10 0.997889)
(1.00425 -0.000110339 6.91415e-11 0.997848 -6.15695e-12 0.997917)
(1.00422 -0.000147625 2.45276e-11 0.997857 -1.98207e-10 0.997933)
(1.00423 -0.000162405 -2.04291e-11 0.997847 -2.44268e-11 0.997937)
(1.00428 -0.000208397 1.86235e-11 0.997824 1.83958e-10 0.99791)
(1.00433 -0.000231688 2.83197e-11 0.997793 -5.04276e-11 0.997889)
(1.00447 -0.000299469 -1.80429e-11 0.997732 -2.18682e-10 0.99781)
(1.0047 -0.000337383 1.02291e-11 0.997636 5.53939e-11 0.997683)
(1.00468 -0.000402936 -3.88911e-11 0.997624 2.54911e-10 0.997709)
(1.00462 -0.000467714 1.17737e-10 0.997653 3.00542e-13 0.99774)
(1.00451 -0.000563982 -1.45727e-10 0.997725 -4.15734e-11 0.997783)
(1.00442 -9.13711e-06 6.63019e-12 0.997797 -7.99427e-11 0.997799)
(1.00449 -3.97186e-05 2.28289e-11 0.997763 1.15241e-11 0.997764)
(1.00448 -5.58267e-05 1.69069e-11 0.997762 -3.79663e-11 0.997773)
(1.00445 -8.94717e-05 -1.27057e-11 0.997775 -1.02548e-10 0.997793)
(1.00441 -0.00010389 -3.7838e-11 0.997785 7.36261e-11 0.997822)
(1.00436 -0.000142323 1.55649e-11 0.997805 1.87582e-10 0.997851)
(1.00432 -0.00015963 6.90293e-11 0.997815 -6.18057e-12 0.997882)
(1.00429 -0.000206841 2.44326e-11 0.997828 -2.10864e-10 0.997898)
(1.00429 -0.000230608 -2.04739e-11 0.997822 -2.59773e-11 0.997903)
(1.00433 -0.000287015 1.85813e-11 0.997805 1.94598e-10 0.997877)
(1.00437 -0.000319648 2.85452e-11 0.997783 -5.29503e-11 0.997859)
(1.0045 -0.000394535 -1.7017e-11 0.997734 -2.28085e-10 0.99778)
(1.00472 -0.000437802 9.79023e-12 0.99765 5.86263e-11 0.997646)
(1.00469 -0.000500393 -3.87747e-11 0.997656 2.65864e-10 0.997674)
(1.00461 -0.00053984 1.14984e-10 0.997706 5.72942e-13 0.997705)
(1.00449 -0.000590908 -1.47442e-10 0.997784 -4.45429e-11 0.997745)
(1.00449 -1.3783e-05 6.61546e-12 0.997759 -8.44357e-11 0.997761)
(1.00454 -5.01494e-05 2.27984e-11 0.997737 1.20491e-11 0.997738)
(1.00453 -7.29469e-05 1.68977e-11 0.997737 -3.96323e-11 0.997747)
(1.0045 -0.000113741 -1.26865e-11 0.997751 -1.06973e-10 0.997767)
(1.00446 -0.000134979 -3.76753e-11 0.997762 7.69054e-11 0.997797)
(1.0044 -0.000181067 1.55567e-11 0.997785 1.962e-10 0.997826)
(1.00436 -0.000205063 6.87879e-11 0.997798 -6.29632e-12 0.997859)
(1.00432 -0.000259728 2.43609e-11 0.997816 -2.20466e-10 0.997875)
(1.00432 -0.000290261 -2.04354e-11 0.997814 -2.68139e-11 0.997882)
(1.00435 -0.000353354 1.85706e-11 0.997806 2.02475e-10 0.997856)
(1.00438 -0.000390671 2.86748e-11 0.997791 -5.4825e-11 0.997842)
(1.0045 -0.000466086 -1.59123e-11 0.997755 -2.34531e-10 0.997762)
(1.00472 -0.000508458 8.46093e-12 0.997679 6.0865e-11 0.997621)
(1.00468 -0.000563437 -3.86405e-11 0.997693 2.73681e-10 0.997648)
(1.00459 -0.000579233 1.14158e-10 0.997747 1.85625e-12 0.997679)
(1.00449 -0.000603364 -1.4782e-10 0.997814 -4.65201e-11 0.997714)
(1.00455 -1.82772e-05 6.61353e-12 0.997733 -8.8013e-11 0.997736)
(1.00457 -5.97247e-05 2.27921e-11 0.997723 1.2453e-11 0.997724)
(1.00456 -8.84087e-05 1.6873e-11 0.997724 -4.0892e-11 0.997733)
(1.00452 -0.000135517 -1.2685e-11 0.997739 -1.10313e-10 0.997753)
(1.00448 -0.000162729 -3.75571e-11 0.997752 7.92892e-11 0.997783)
(1.00442 -0.000215046 1.55674e-11 0.997778 2.02396e-10 0.997813)
(1.00437 -0.000244392 6.85975e-11 0.997794 -6.50086e-12 0.997847)
(1.00433 -0.000304483 2.43395e-11 0.997817 -2.27241e-10 0.997865)
(1.00432 -0.000339191 -2.03017e-11 0.997821 -2.71022e-11 0.997873)
(1.00435 -0.000406191 1.85954e-11 0.997819 2.07763e-10 0.997848)
(1.00437 -0.000444062 2.88417e-11 0.997813 -5.66085e-11 0.997834)
(1.00447 -0.000515908 -1.47387e-11 0.997784 -2.38661e-10 0.997756)
(1.00469 -0.000554105 5.98329e-12 0.997713 6.23729e-11 0.997611)
(1.00466 -0.000601623 -3.85103e-11 0.997729 2.79102e-10 0.997632)
(1.00457 -0.000597123 1.1435e-10 0.99778 3.468e-12 0.997662)
(1.00449 -0.000607893 -1.47505e-10 0.997834 -4.78706e-11 0.997693)
(1.00458 -2.23833e-05 6.61878e-12 0.997719 -9.07168e-11 0.997721)
(1.00458 -6.79828e-05 2.28213e-11 0.997719 1.27426e-11 0.99772)
(1.00456 -0.000101573 1.68642e-11 0.997721 -4.17756e-11 0.997729)
(1.00453 -0.000153929 -1.26958e-11 0.997738 -1.12602e-10 0.997749)
(1.00448 -0.000185994 -3.75228e-11 0.997753 8.10012e-11 0.99778)
(1.00442 -0.000243158 1.56079e-11 0.997781 2.06524e-10 0.997811)
(1.00437 -0.000276237 6.85065e-11 0.997802 -6.75766e-12 0.997846)
(1.00432 -0.000339688 2.43681e-11 0.997829 -2.31382e-10 0.997865)
(1.0043 -0.000376648 -2.04092e-11 0.997839 -2.67701e-11 0.997873)
(1.00432 -0.00044471 1.86364e-11 0.997842 2.10769e-10 0.99785)
(1.00434 -0.000481547 2.96651e-11 0.997842 -5.84295e-11 0.997836)
(1.00444 -0.000548715 -1.37673e-11 0.997818 -2.40805e-10 0.99776)
(1.00466 -0.000581967 4.14979e-12 0.997747 6.33353e-11 0.997614)
(1.00463 -0.00062308 -3.8368e-11 0.99776 2.82691e-10 0.997622)
(1.00456 -0.000604438 1.15161e-10 0.997805 5.27381e-12 0.997651)
(1.00449 -0.000609347 -1.47011e-10 0.997846 -4.87509e-11 0.997679)
(1.00458 -2.59137e-05 6.61382e-12 0.997715 -9.25942e-11 0.997717)
(1.00457 -7.46254e-05 2.28786e-11 0.997725 1.29289e-11 0.997725)
(1.00455 -0.000111983 1.68643e-11 0.997728 -4.22997e-11 0.997735)
(1.00451 -0.000168447 -1.2723e-11 0.997746 -1.13917e-10 0.997755)
(1.00447 -0.000204279 -3.75448e-11 0.997764 8.20389e-11 0.997786)
(1.0044 -0.000264898 1.56751e-11 0.997794 2.08861e-10 0.997817)
(1.00434 -0.000300459 6.85153e-11 0.997818 -6.95111e-12 0.997853)
(1.00429 -0.000365363 2.4424e-11 0.997849 -2.33179e-10 0.997874)
(1.00427 -0.000403338 -2.0689e-11 0.997863 -2.59378e-11 0.997883)
(1.00428 -0.000470457 1.86899e-11 0.99787 2.11951e-10 0.99786)
(1.00429 -0.000505627 3.07946e-11 0.997874 -5.95378e-11 0.997846)
(1.00439 -0.000568254 -1.30257e-11 0.997852 -2.41251e-10 0.997771)
(1.00461 -0.000596955 3.15218e-12 0.997779 6.37921e-11 0.997623)
(1.00461 -0.00063311 -3.82169e-11 0.997787 2.84812e-10 0.997619)
(1.00454 -0.000605565 1.16281e-10 0.997824 6.72853e-12 0.997647)
(1.00449 -0.000609332 -1.46478e-10 0.997853 -4.92454e-11 0.997672)
(1.00457 -2.86969e-05 6.63455e-12 0.99772 -9.37188e-11 0.997722)
(1.00454 -7.97855e-05 2.29488e-11 0.997738 1.30127e-11 0.997738)
(1.00452 -0.000120004 1.68884e-11 0.997743 -4.25288e-11 0.997748)
(1.00448 -0.000179565 -1.27672e-11 0.997762 -1.14429e-10 0.997768)
(1.00443 -0.000217851 -3.75935e-11 0.997781 8.25143e-11 0.997799)
(1.00437 -0.000280511 1.57657e-11 0.997814 2.09669e-10 0.997831)
(1.00431 -0.000317633 6.89048e-11 0.997841 -7.12623e-12 0.997867)
(1.00425 -0.000382835 2.44227e-11 0.997874 -2.33137e-10 0.99789)
(1.00422 -0.000420735 -2.10415e-11 0.997892 -2.4924e-11 0.997899)
(1.00424 -0.000486048 1.87603e-11 0.9979 2.11613e-10 0.997877)
(1.00424 -0.000519397 3.17501e-11 0.997907 -6.01076e-11 0.997863)
(1.00434 -0.000578118 -1.24891e-11 0.997886 -2.40416e-10 0.997788)
(1.00457 -0.000603011 2.24563e-12 0.99781 6.39253e-11 0.997636)
(1.00458 -0.000635861 -3.80788e-11 0.99781 2.85793e-10 0.997621)
(1.00453 -0.000603082 1.1748e-10 0.997839 7.80062e-12 0.997647)
(1.00449 -0.000608296 -1.45938e-10 0.997859 -4.94352e-11 0.997669)
(1.00455 -3.08256e-05 6.64011e-12 0.997733 -9.41892e-11 0.997735)
(1.0045 -8.34572e-05 2.30295e-11 0.997758 1.30155e-11 0.997757)
(1.00448 -0.000125468 1.69136e-11 0.997763 -4.2511e-11 0.997768)
(1.00444 -0.000187129 -1.28301e-11 0.997784 -1.14253e-10 0.997788)
(1.00439 -0.000226999 -3.76664e-11 0.997805 8.25721e-11 0.997819)
(1.00432 -0.000290663 1.58749e-11 0.997838 2.09146e-10 0.997852)
(1.00426 -0.000328397 6.93819e-11 0.997868 -7.3165e-12 0.997888)
(1.0042 -0.000393245 2.44243e-11 0.997903 -2.31719e-10 0.997912)
(1.00417 -0.000430622 -2.15332e-11 0.997923 -2.40252e-11 0.99792)
(1.00418 -0.000493903 1.88338e-11 0.997932 2.10096e-10 0.997899)
(1.00419 -0.000525526 3.25607e-11 0.997939 -6.01576e-11 0.997885)
(1.00429 -0.000581167 -1.2121e-11 0.997918 -2.38565e-10 0.997809)
(1.00452 -0.000602925 1.55126e-12 0.997839 6.3827e-11 0.997654)
(1.00456 -0.000633659 -3.79489e-11 0.99783 2.85914e-10 0.997627)
(1.00451 -0.000598626 1.18627e-10 0.997852 8.59387e-12 0.997651)
(1.00448 -0.000606676 -1.45416e-10 0.997863 -4.93899e-11 0.997671)
(1.00451 -3.22779e-05 6.67816e-12 0.997753 -9.41137e-11 0.997754)
(1.00445 -8.57562e-05 2.31405e-11 0.997783 1.29473e-11 0.997782)
(1.00443 -0.000128869 1.69704e-11 0.997789 -4.22815e-11 0.997793)
(1.00439 -0.000191737 -1.29062e-11 0.99781 -1.1351e-10 0.997814)
(1.00434 -0.000232417 -3.78107e-11 0.997832 8.22177e-11 0.997844)
(1.00427 -0.000296371 1.59848e-11 0.997866 2.07547e-10 0.997877)
(1.0042 -0.000334296 6.98075e-11 0.997898 -7.47617e-12 0.997913)
(1.00414 -0.000398209 2.44562e-11 0.997934 -2.29171e-10 0.997938)
(1.00411 -0.000434622 -2.20013e-11 0.997955 -2.31325e-11 0.997946)
(1.00412 -0.00049602 1.89098e-11 0.997965 2.07773e-10 0.997924)
(1.00413 -0.000526034 3.33275e-11 0.997972 -5.98032e-11 0.99791)
(1.00423 -0.000579274 -1.18566e-11 0.99795 -2.36024e-10 0.997833)
(1.00447 -0.000598895 8.40965e-13 0.997867 6.35277e-11 0.997674)
(1.00453 -0.000628729 -3.78378e-11 0.997847 2.85368e-10 0.997637)
(1.00449 -0.000593065 1.19707e-10 0.997863 9.14507e-12 0.997659)
(1.00447 -0.000604754 -1.44929e-10 0.997868 -4.91583e-11 0.997677)
(1.00446 -3.31545e-05 6.75802e-12 0.997777 -9.3579e-11 0.997779)
(1.00439 -8.70045e-05 2.32494e-11 0.997812 1.28148e-11 0.997811)
(1.00437 -0.000130456 1.70139e-11 0.997819 -4.18959e-11 0.997821)
(1.00433 -0.000193844 -1.2975e-11 0.99784 -1.12365e-10 0.997842)
(1.00428 -0.000234821 -3.79648e-11 0.997863 8.15142e-11 0.997872)
(1.00421 -0.000298596 1.60955e-11 0.997897 2.05181e-10 0.997905)
(1.00414 -0.000336352 7.02108e-11 0.99793 -7.54126e-12 0.997941)
(1.00408 -0.00039905 2.45107e-11 0.997966 -2.25851e-10 0.997967)
(1.00405 -0.000434246 -2.23993e-11 0.997988 -2.23668e-11 0.997975)
(1.00406 -0.000493997 1.8989e-11 0.997997 2.04699e-10 0.997953)
(1.00407 -0.000522595 3.39953e-11 0.998004 -5.91928e-11 0.997937)
(1.00417 -0.000574085 -1.16907e-11 0.99798 -2.32845e-10 0.99786)
(1.00442 -0.000592375 1.83588e-13 0.997893 6.31387e-11 0.997697)
(1.0045 -0.000622114 -3.77422e-11 0.997864 2.8434e-10 0.997649)
(1.00447 -0.000586931 1.20672e-10 0.997874 9.53941e-12 0.99767)
(1.00446 -0.000602631 -1.44477e-10 0.997874 -4.87891e-11 0.997685)
(1.0044 -3.35617e-05 6.78754e-12 0.997806 -9.2678e-11 0.997807)
(1.00433 -8.73912e-05 2.33582e-11 0.997844 1.26457e-11 0.997843)
(1.00431 -0.000130639 1.70523e-11 0.997851 -4.13575e-11 0.997853)
(1.00427 -0.000193999 -1.30358e-11 0.997872 -1.10807e-10 0.997874)
(1.00421 -0.000234789 -3.81178e-11 0.997896 8.05493e-11 0.997904)
(1.00415 -0.000298181 1.62012e-11 0.99793 2.02093e-10 0.997937)
(1.00408 -0.000335337 7.05502e-11 0.997963 -7.58916e-12 0.997973)
(1.00401 -0.000396743 2.45533e-11 0.997999 -2.2183e-10 0.997998)
(1.00398 -0.000430755 -2.28976e-11 0.998022 -2.16282e-11 0.998006)
(1.004 -0.000489082 1.90579e-11 0.99803 2.01095e-10 0.997983)
(1.00401 -0.000516615 3.46159e-11 0.998035 -5.83231e-11 0.997967)
(1.00412 -0.000566813 -1.15641e-11 0.998009 -2.29182e-10 0.997889)
(1.00437 -0.000584552 -4.46908e-13 0.997918 6.26586e-11 0.997722)
(1.00447 -0.000614859 -3.76602e-11 0.997879 2.82953e-10 0.997662)
(1.00445 -0.000580828 1.21551e-10 0.997886 9.82045e-12 0.997682)
(1.00444 -0.000600588 -1.44081e-10 0.997881 -4.83136e-11 0.997696)
(1.00434 -3.36097e-05 6.82712e-12 0.997838 -9.14933e-11 0.997839)
(1.00426 -8.70739e-05 2.34687e-11 0.997878 1.24376e-11 0.997877)
(1.00424 -0.000129819 1.71029e-11 0.997885 -4.07022e-11 0.997887)
(1.0042 -0.000192828 -1.31e-11 0.997906 -1.08953e-10 0.997909)
(1.00415 -0.000233042 -3.82371e-11 0.99793 7.93538e-11 0.997937)
(1.00408 -0.000295845 1.63023e-11 0.997964 1.98458e-10 0.997971)
(1.00401 -0.000332284 7.08185e-11 0.997997 -7.69307e-12 0.998006)
(1.00395 -0.000392404 2.4619e-11 0.998033 -2.17453e-10 0.998031)
(1.00392 -0.000425106 -2.32763e-11 0.998055 -2.10238e-11 0.998039)
(1.00393 -0.000482241 1.91218e-11 0.998062 1.97107e-10 0.998016)
(1.00395 -0.000509192 3.51337e-11 0.998065 -5.72573e-11 0.997998)
(1.00406 -0.000558546 -1.1481e-11 0.998037 -2.25204e-10 0.997919)
(1.00432 -0.000576385 -1.04585e-12 0.997943 6.21229e-11 0.997748)
(1.00444 -0.000607636 -3.75914e-11 0.997895 2.81302e-10 0.997677)
(1.00442 -0.000575011 1.22332e-10 0.997897 9.99911e-12 0.997696)
(1.00442 -0.000598692 -1.43738e-10 0.997889 -4.77585e-11 0.997709)
(1.00427 -3.33474e-05 6.87687e-12 0.997872 -9.0063e-11 0.997873)
(1.00419 -8.6299e-05 2.35637e-11 0.997913 1.21986e-11 0.997912)
(1.00417 -0.000128253 1.7144e-11 0.997921 -3.99665e-11 0.997922)
(1.00413 -0.00019072 -1.31541e-11 0.997941 -1.06905e-10 0.997944)
(1.00407 -0.00023032 -3.83477e-11 0.997966 7.79801e-11 0.997972)
(1.00401 -0.000292271 1.63896e-11 0.997999 1.94475e-10 0.998006)
(1.00394 -0.000327856 7.10159e-11 0.998032 -7.77583e-12 0.998039)
(1.00388 -0.000386856 2.4775e-11 0.998066 -2.12796e-10 0.998064)
(1.00385 -0.000418572 -2.34264e-11 0.998088 -2.04632e-11 0.998072)
(1.00387 -0.000474525 1.91801e-11 0.998094 1.92934e-10 0.998048)
(1.00389 -0.000501017 3.56806e-11 0.998096 -5.60803e-11 0.99803)
(1.004 -0.000549951 -1.13911e-11 0.998065 -2.21071e-10 0.99795)
(1.00427 -0.000568183 -1.65111e-12 0.997967 6.15406e-11 0.997775)
(1.00441 -0.00060069 -3.75328e-11 0.99791 2.79463e-10 0.997694)
(1.00439 -0.000569577 1.23041e-10 0.997909 1.00837e-11 0.997711)
(1.00439 -0.000596986 -1.43447e-10 0.997898 -4.7144e-11 0.997723)
(1.0042 -3.28743e-05 6.87802e-12 0.997908 -8.84534e-11 0.997908)
(1.00411 -8.53604e-05 2.36352e-11 0.997949 1.19389e-11 0.997949)
(1.0041 -0.000126496 1.71825e-11 0.997957 -3.91855e-11 0.997958)
(1.00405 -0.000188315 -1.32018e-11 0.997977 -1.04763e-10 0.99798)
(1.004 -0.000227134 -3.84205e-11 0.998001 7.64713e-11 0.998008)
(1.00394 -0.000288184 1.64676e-11 0.998033 1.90331e-10 0.998041)
(1.00387 -0.000322868 7.11766e-11 0.998066 -7.71456e-12 0.998074)
(1.00381 -0.000380699 2.49498e-11 0.998099 -2.07808e-10 0.998099)
(1.00378 -0.000411641 -2.32907e-11 0.99812 -1.98258e-11 0.998106)
(1.0038 -0.000466524 1.92363e-11 0.998125 1.8862e-10 0.998082)
(1.00382 -0.000492697 3.61611e-11 0.998125 -5.49393e-11 0.998062)
(1.00394 -0.000541474 -1.13241e-11 0.998093 -2.16831e-10 0.997981)
(1.00422 -0.000560322 -2.28348e-12 0.997992 6.0941e-11 0.997803)
(1.00438 -0.000594188 -3.74889e-11 0.997925 2.77492e-10 0.997711)
(1.00437 -0.000564405 1.23676e-10 0.997922 1.01045e-11 0.997728)
(1.00437 -0.000595388 -1.43193e-10 0.997908 -4.6486e-11 0.997738)
(1.00412 -3.23521e-05 6.94282e-12 0.997944 -8.67306e-11 0.997945)
(1.00404 -8.44013e-05 2.37008e-11 0.997986 1.1672e-11 0.997985)
(1.00402 -0.000124583 1.71875e-11 0.997994 -3.83653e-11 0.997995)
(1.00398 -0.000185719 -1.32338e-11 0.998014 -1.02526e-10 0.998017)
(1.00393 -0.000223693 -3.84433e-11 0.998037 7.48899e-11 0.998044)
(1.00387 -0.00028394 1.65363e-11 0.998068 1.86031e-10 0.998076)
(1.0038 -0.000317627 7.13061e-11 0.9981 -7.61182e-12 0.998109)
(1.00374 -0.000374446 2.50678e-11 0.998132 -2.02659e-10 0.998134)
(1.00372 -0.000404666 -2.32844e-11 0.998152 -1.92416e-11 0.99814)
(1.00374 -0.000458677 1.92777e-11 0.998155 1.83994e-10 0.998116)
(1.00376 -0.000484652 3.65379e-11 0.998154 -5.38613e-11 0.998095)
(1.00388 -0.000533251 -1.12615e-11 0.99812 -2.12328e-10 0.998013)
(1.00417 -0.000553062 -2.9185e-12 0.998016 6.03973e-11 0.997832)
(1.00435 -0.000588358 -3.74544e-11 0.997941 2.75453e-10 0.997728)
(1.00433 -0.000559676 1.24256e-10 0.997935 1.00981e-11 0.997744)
(1.00434 -0.000593987 -1.4298e-10 0.99792 -4.58017e-11 0.997754)
(1.00405 -3.18173e-05 6.97318e-12 0.997981 -8.49334e-11 0.997981)
(1.00397 -8.33923e-05 2.3752e-11 0.998023 1.14048e-11 0.998023)
(1.00395 -0.000122676 1.71881e-11 0.99803 -3.74858e-11 0.998032)
(1.00391 -0.000183183 -1.32518e-11 0.99805 -1.00121e-10 0.998055)
(1.00386 -0.000220228 -3.84197e-11 0.998073 7.32531e-11 0.998081)
(1.00379 -0.000279703 1.65934e-11 0.998103 1.81455e-10 0.998113)
(1.00373 -0.000312393 7.13758e-11 0.998134 -7.57062e-12 0.998144)
(1.00368 -0.000368416 2.51799e-11 0.998165 -1.97237e-10 0.998169)
(1.00365 -0.000398012 -2.33339e-11 0.998184 -1.85653e-11 0.998175)
(1.00367 -0.000451354 1.93008e-11 0.998186 1.79261e-10 0.998151)
(1.0037 -0.000477241 3.67475e-11 0.998183 -5.27215e-11 0.998128)
(1.00382 -0.00052577 -1.12125e-11 0.998147 -2.0773e-10 0.998046)
(1.00411 -0.000546855 -3.50752e-12 0.998041 5.98649e-11 0.997861)
(1.00431 -0.000583482 -3.74264e-11 0.997957 2.7336e-10 0.997746)
(1.0043 -0.000555677 1.24777e-10 0.99795 1.00442e-11 0.997762)
(1.00431 -0.00059289 -1.42815e-10 0.997933 -4.50961e-11 0.997771)
(1.00398 -3.12542e-05 6.95934e-12 0.998018 -8.30648e-11 0.998019)
(1.00389 -8.22916e-05 2.37771e-11 0.99806 1.11181e-11 0.99806)
(1.00387 -0.000120847 1.72154e-11 0.998068 -3.65844e-11 0.998069)
(1.00383 -0.000180916 -1.32666e-11 0.998087 -9.76742e-11 0.998092)
(1.00378 -0.000217056 -3.83503e-11 0.998109 7.1542e-11 0.998118)
(1.00372 -0.000275848 1.66352e-11 0.998138 1.7677e-10 0.998149)
(1.00366 -0.000307905 7.13903e-11 0.998168 -7.5294e-12 0.998179)
(1.00361 -0.000363244 2.52707e-11 0.998197 -1.91666e-10 0.998205)
(1.00358 -0.000392243 -2.32008e-11 0.998215 -1.77724e-11 0.99821)
(1.00361 -0.000445095 1.9322e-11 0.998216 1.7458e-10 0.998185)
(1.00364 -0.000470906 3.68712e-11 0.998212 -5.16261e-11 0.998161)
(1.00376 -0.000519435 -1.11438e-11 0.998174 -2.03174e-10 0.998079)
(1.00406 -0.000541678 -4.20813e-12 0.998065 5.93912e-11 0.997891)
(1.00428 -0.000579569 -3.74092e-11 0.997973 2.71233e-10 0.997765)
(1.00427 -0.000552223 1.25233e-10 0.997964 9.93616e-12 0.99778)
(1.00428 -0.000591953 -1.42679e-10 0.997946 -4.43758e-11 0.997788)
(1.0039 -3.06447e-05 6.97898e-12 0.998056 -8.11189e-11 0.998056)
(1.00382 -8.14442e-05 2.37782e-11 0.998098 1.08189e-11 0.998098)
(1.0038 -0.000119321 1.7209e-11 0.998105 -3.56871e-11 0.998107)
(1.00376 -0.000179039 -1.32702e-11 0.998123 -9.52583e-11 0.998129)
(1.00371 -0.000214512 -3.82613e-11 0.998145 6.98061e-11 0.998154)
(1.00365 -0.000272775 1.66614e-11 0.998173 1.7212e-10 0.998185)
(1.00359 -0.000304441 7.13523e-11 0.998201 -7.48197e-12 0.998215)
(1.00354 -0.000359238 2.53375e-11 0.998229 -1.86166e-10 0.99824)
(1.00352 -0.000387746 -2.2924e-11 0.998246 -1.70064e-11 0.998244)
(1.00354 -0.000440095 1.93414e-11 0.998245 1.6984e-10 0.998219)
(1.00358 -0.000465855 3.69145e-11 0.99824 -5.07324e-11 0.998195)
(1.0037 -0.00051431 -1.10969e-11 0.998201 -1.98601e-10 0.998112)
(1.004 -0.000537077 -4.78683e-12 0.99809 5.89765e-11 0.997921)
(1.00424 -0.0005764 -3.7397e-11 0.99799 2.69095e-10 0.997783)
(1.00424 -0.000549349 1.25636e-10 0.99798 9.85572e-12 0.997798)
(1.00425 -0.00059119 -1.42568e-10 0.997961 -4.36507e-11 0.997806)
(1.00382 -3.0149e-05 6.97797e-12 0.998093 -7.91409e-11 0.998094)
(1.00374 -8.09301e-05 2.37914e-11 0.998135 1.05186e-11 0.998135)
(1.00372 -0.000118275 1.72032e-11 0.998142 -3.47729e-11 0.998144)
(1.00368 -0.000177774 -1.32581e-11 0.99816 -9.28002e-11 0.998167)
(1.00364 -0.000212756 -3.81515e-11 0.998181 6.80572e-11 0.998191)
(1.00358 -0.000270609 1.66723e-11 0.998207 1.67417e-10 0.998222)
(1.00352 -0.000301962 7.1251e-11 0.998235 -7.42543e-12 0.99825)
(1.00347 -0.000356327 2.53778e-11 0.998261 -1.80649e-10 0.998275)
(1.00345 -0.00038437 -2.26882e-11 0.998277 -1.63146e-11 0.998279)
(1.00348 -0.000436152 1.93429e-11 0.998274 1.64927e-10 0.998255)
(1.00351 -0.000462046 3.69365e-11 0.998268 -4.9863e-11 0.998228)
(1.00364 -0.000510464 -1.10729e-11 0.998227 -1.93887e-10 0.998146)
(1.00394 -0.000533546 -5.08652e-12 0.998115 5.85539e-11 0.997953)
(1.00421 -0.000573999 -3.73843e-11 0.998007 2.66943e-10 0.997802)
(1.0042 -0.000547224 1.25967e-10 0.997996 9.79827e-12 0.997816)
(1.00421 -0.000590697 -1.42492e-10 0.997976 -4.29198e-11 0.997824)
(1.00375 -2.98252e-05 7.01691e-12 0.998131 -7.71572e-11 0.998131)
(1.00366 -8.06925e-05 2.37718e-11 0.998172 1.02014e-11 0.998173)
(1.00365 -0.000117675 1.71577e-11 0.998179 -3.38212e-11 0.998182)
(1.00361 -0.000177132 -1.32282e-11 0.998196 -9.02628e-11 0.998204)
(1.00356 -0.000211785 -3.79877e-11 0.998217 6.62532e-11 0.998228)
(1.00351 -0.000269409 1.66685e-11 0.998242 1.62581e-10 0.998258)
(1.00346 -0.000300556 7.10913e-11 0.998268 -7.37368e-12 0.998286)
(1.0034 -0.000354628 2.53999e-11 0.998293 -1.74954e-10 0.998311)
(1.00339 -0.00038231 -2.24812e-11 0.998308 -1.55478e-11 0.998313)
(1.00342 -0.000433634 1.93259e-11 0.998304 1.59954e-10 0.99829)
(1.00345 -0.000459628 3.68461e-11 0.998296 -4.89184e-11 0.998262)
(1.00358 -0.000508087 -1.10633e-11 0.998254 -1.89103e-10 0.998179)
(1.00389 -0.000531385 -5.21312e-12 0.99814 5.81261e-11 0.997984)
(1.00417 -0.000572598 -3.73739e-11 0.998024 2.64771e-10 0.99782)
(1.00417 -0.000545904 1.26232e-10 0.998012 9.7116e-12 0.997834)
(1.00418 -0.00059049 -1.4245e-10 0.997992 -4.21808e-11 0.997842)
(1.00367 -2.95881e-05 7.03874e-12 0.998169 -7.51395e-11 0.998169)
(1.00359 -8.08745e-05 2.36915e-11 0.99821 9.88112e-12 0.998212)
(1.00357 -0.000117688 1.70625e-11 0.998217 -3.28568e-11 0.99822)
(1.00353 -0.000177195 -1.31913e-11 0.998233 -8.7678e-11 0.998243)
(1.00349 -0.000211744 -3.77959e-11 0.998253 6.44215e-11 0.998266)
(1.00344 -0.000269306 1.66469e-11 0.998277 1.57646e-10 0.998295)
(1.00339 -0.000300544 7.09008e-11 0.998302 -7.33677e-12 0.998322)
(1.00334 -0.000354478 2.53931e-11 0.998324 -1.69172e-10 0.998347)
(1.00332 -0.000381941 -2.20659e-11 0.998339 -1.47151e-11 0.998348)
(1.00335 -0.000432842 1.93094e-11 0.998333 1.55066e-10 0.998325)
(1.00339 -0.000458871 3.66825e-11 0.998325 -4.79295e-11 0.998296)
(1.00352 -0.000507485 -1.10553e-11 0.998281 -1.84377e-10 0.998213)
(1.00383 -0.000530545 -5.2173e-12 0.998165 5.76744e-11 0.998016)
(1.00413 -0.000572151 -3.73664e-11 0.998041 2.62563e-10 0.997839)
(1.00413 -0.00054534 1.26408e-10 0.998028 9.5882e-12 0.997853)
(1.00415 -0.000590472 -1.42428e-10 0.998007 -4.14312e-11 0.997861)
(1.0036 -2.94829e-05 7.02976e-12 0.998207 -7.30699e-11 0.998207)
(1.00351 -8.14568e-05 2.36182e-11 0.998248 9.56949e-12 0.99825)
(1.0035 -0.000118376 1.69728e-11 0.998255 -3.18991e-11 0.998258)
(1.00346 -0.000178217 -1.31391e-11 0.99827 -8.50847e-11 0.998281)
(1.00342 -0.000212932 -3.75534e-11 0.998289 6.25823e-11 0.998303)
(1.00336 -0.000270631 1.661e-11 0.998311 1.52672e-10 0.998333)
(1.00331 -0.000302173 7.0619e-11 0.998335 -7.28634e-12 0.998358)
(1.00327 -0.000356117 2.53557e-11 0.998356 -1.635e-10 0.998383)
(1.00326 -0.000383454 -2.15702e-11 0.998369 -1.39792e-11 0.998383)
(1.00329 -0.000433975 1.92853e-11 0.998362 1.50125e-10 0.99836)
(1.00333 -0.000459779 3.64002e-11 0.998352 -4.70412e-11 0.99833)
(1.00345 -0.000508455 -1.10545e-11 0.998307 -1.7963e-10 0.998247)
(1.00377 -0.000530912 -5.15629e-12 0.99819 5.72379e-11 0.998047)
(1.0041 -0.000572561 -3.73627e-11 0.998058 2.60318e-10 0.997859)
(1.0041 -0.000545309 1.26497e-10 0.998044 9.44452e-12 0.997872)
(1.00411 -0.000590542 -1.42418e-10 0.998023 -4.06717e-11 0.997879)
(1.00352 -2.95801e-05 6.98827e-12 0.998245 -7.09718e-11 0.998245)
(1.00343 -8.24845e-05 2.35216e-11 0.998287 9.24597e-12 0.998289)
(1.00342 -0.000119784 1.68961e-11 0.998294 -3.09132e-11 0.998297)
(1.00338 -0.00018029 -1.30659e-11 0.998308 -8.2439e-11 0.99832)
(1.00334 -0.000215467 -3.7237e-11 0.998326 6.07027e-11 0.998341)
(1.00329 -0.000273509 1.6557e-11 0.998346 1.47602e-10 0.998371)
(1.00324 -0.000305344 7.02104e-11 0.998369 -7.26342e-12 0.998395)
(1.0032 -0.000359343 2.52895e-11 0.998388 -1.57758e-10 0.998419)
(1.00319 -0.000386603 -2.1339e-11 0.9984 -1.32655e-11 0.998417)
(1.00322 -0.000437108 1.9238e-11 0.99839 1.44997e-10 0.998396)
(1.00326 -0.000462404 3.59344e-11 0.99838 -4.61477e-11 0.998365)
(1.00339 -0.000510904 -1.10743e-11 0.998334 -1.7471e-10 0.998282)
(1.00372 -0.000532607 -4.96343e-12 0.998214 5.68338e-11 0.998079)
(1.00406 -0.000573982 -3.73607e-11 0.998074 2.58037e-10 0.997878)
(1.00406 -0.000546051 1.26472e-10 0.99806 9.31985e-12 0.997891)
(1.00408 -0.000590756 -1.42424e-10 0.998039 -3.99038e-11 0.997898)
(1.00344 -2.98882e-05 6.99988e-12 0.998284 -6.88526e-11 0.998284)
(1.00335 -8.40134e-05 2.34043e-11 0.998326 8.90285e-12 0.998329)
(1.00334 -0.000122032 1.67799e-11 0.998333 -2.98768e-11 0.998337)
(1.0033 -0.000183418 -1.29818e-11 0.998346 -7.96886e-11 0.99836)
(1.00326 -0.000219336 -3.68872e-11 0.998363 5.87596e-11 0.998381)
(1.00322 -0.000277913 1.64809e-11 0.998382 1.42347e-10 0.998409)
(1.00317 -0.000310141 6.97242e-11 0.998404 -7.29168e-12 0.998432)
(1.00313 -0.000364311 2.52227e-11 0.99842 -1.51741e-10 0.998456)
(1.00312 -0.000391397 -2.10667e-11 0.998431 -1.24175e-11 0.998454)
(1.00316 -0.000442196 1.91742e-11 0.99842 1.39802e-10 0.998432)
(1.0032 -0.000466991 3.53478e-11 0.998408 -4.51153e-11 0.9984)
(1.00333 -0.00051517 -1.10877e-11 0.99836 -1.69692e-10 0.998317)
(1.00366 -0.000535906 -4.61553e-12 0.998239 5.64132e-11 0.998111)
(1.00402 -0.000576752 -3.73609e-11 0.998091 2.55701e-10 0.997897)
(1.00403 -0.000547898 1.26326e-10 0.998075 9.19834e-12 0.99791)
(1.00404 -0.000591264 -1.42461e-10 0.998054 -3.91243e-11 0.997917)
(1.00336 -3.03918e-05 6.98801e-12 0.998324 -6.66756e-11 0.998324)
(1.00327 -8.60538e-05 2.32265e-11 0.998367 8.55507e-12 0.99837)
(1.00326 -0.000125173 1.66164e-11 0.998373 -2.88147e-11 0.998379)
(1.00322 -0.000187667 -1.28847e-11 0.998385 -7.68632e-11 0.9984)
(1.00319 -0.000224661 -3.65214e-11 0.998402 5.67528e-11 0.998421)
(1.00314 -0.000283979 1.63866e-11 0.998418 1.36954e-10 0.998449)
(1.0031 -0.000316891 6.9186e-11 0.998438 -7.29568e-12 0.998471)
(1.00306 -0.000371369 2.51353e-11 0.998453 -1.45562e-10 0.998494)
(1.00306 -0.000398375 -2.05299e-11 0.998461 -1.1529e-11 0.99849)
(1.00309 -0.000449499 1.91095e-11 0.998449 1.34624e-10 0.998468)
(1.00314 -0.000473628 3.46393e-11 0.998436 -4.40287e-11 0.998435)
(1.00327 -0.000521534 -1.1088e-11 0.998386 -1.64714e-10 0.998351)
(1.0036 -0.000540815 -4.14098e-12 0.998263 5.5957e-11 0.998143)
(1.00399 -0.000580888 -3.73617e-11 0.998107 2.53287e-10 0.997917)
(1.00399 -0.000550826 1.26018e-10 0.998089 9.05737e-12 0.997929)
(1.00401 -0.000591966 -1.42519e-10 0.998068 -3.833e-11 0.997936)
(1.00328 -3.10948e-05 6.91468e-12 0.998365 -6.44164e-11 0.998365)
(1.00319 -8.86487e-05 2.30388e-11 0.998409 8.20923e-12 0.998412)
(1.00317 -0.000129252 1.64532e-11 0.998415 -2.77419e-11 0.998421)
(1.00314 -0.000193176 -1.27731e-11 0.998426 -7.39972e-11 0.998442)
(1.0031 -0.000231671 -3.61192e-11 0.998441 5.47013e-11 0.998462)
(1.00306 -0.000291944 1.62687e-11 0.998455 1.31477e-10 0.998489)
(1.00302 -0.00032587 6.8561e-11 0.998474 -7.26575e-12 0.99851)
(1.00299 -0.000380794 2.50079e-11 0.998485 -1.39317e-10 0.998532)
(1.00299 -0.000407795 -1.98224e-11 0.998493 -1.06857e-11 0.998528)
(1.00302 -0.000459169 1.90368e-11 0.998478 1.29289e-10 0.998506)
(1.00307 -0.000482402 3.38233e-11 0.998463 -4.30968e-11 0.998471)
(1.00321 -0.000529968 -1.1086e-11 0.998411 -1.59768e-10 0.998387)
(1.00355 -0.000547221 -3.55714e-12 0.998286 5.54696e-11 0.998176)
(1.00395 -0.000586309 -3.73686e-11 0.998122 2.50792e-10 0.997937)