/*--------------------------------*- C++ -*----------------------------------*\
| =========                 |                                                 |
| \\      /  F ield         | foam-extend: Open Source CFD                    |
|  \\    /   O peration     | Version:     4.1-20200408                       |
|   \\  /    A nd           | Web:         http://www.foam-extend.org         |
|    \\/     M anipulation  |                                                 |
\*---------------------------------------------------------------------------*/
FoamFile
{
    version     2.0;
    format      ascii;
    class       volVectorField;
    location    "0.0125000";
    object      DU_0;
}
// * * * * * * * * * * * * * * * * * * * * * * * * * * * * * * * * * * * * * //

dimensions      [0 1 0 0 0 0 0];

internalField   nonuniform List<vector> 
1952
(
(5.00036e-05 3.8292e-09 0)
(5.00036e-05 6.21073e-09 0)
(5.00037e-05 8.70696e-09 0)
(5.00037e-05 1.11205e-08 0)
(5.00037e-05 1.36879e-08 0)
(5.00038e-05 1.61146e-08 0)
(5.00038e-05 1.87358e-08 0)
(5.00038e-05 2.11697e-08 0)
(5.00038e-05 2.37965e-08 0)
(5.00037e-05 2.6145e-08 0)
(5.00034e-05 2.85696e-08 0)
(5.00028e-05 3.04791e-08 0)
(5.00016e-05 3.20599e-08 0)
(4.9999e-05 3.24853e-08 0)
(4.99939e-05 3.16622e-08 0)
(5.00036e-05 1.63719e-09 0)
(5.00051e-05 3.20513e-09 0)
(5.00051e-05 5.20553e-09 0)
(5.00051e-05 7.24897e-09 0)
(5.00051e-05 9.25042e-09 0)
(5.00051e-05 1.1288e-08 0)
(5.00051e-05 1.3229e-08 0)
(5.00051e-05 1.52008e-08 0)
(5.00049e-05 1.70005e-08 0)
(5.00047e-05 1.8786e-08 0)
(5.00043e-05 2.02644e-08 0)
(5.00036e-05 2.16036e-08 0)
(5.00024e-05 2.23911e-08 0)
(5.00004e-05 2.27904e-08 0)
(4.9997e-05 2.23414e-08 0)
(4.99914e-05 2.13071e-08 0)
(5.00051e-05 1.37239e-09 0)
(5.0006e-05 2.59087e-09 0)
(5.0006e-05 4.2011e-09 0)
(5.0006e-05 5.82183e-09 0)
(5.00059e-05 7.39766e-09 0)
(5.00059e-05 8.95448e-09 0)
(5.00058e-05 1.04086e-08 0)
(5.00056e-05 1.18154e-08 0)
(5.00053e-05 1.30348e-08 0)
(5.00049e-05 1.41509e-08 0)
(5.00042e-05 1.49491e-08 0)
(5.00031e-05 1.55531e-08 0)
(5.00015e-05 1.56626e-08 0)
(4.99991e-05 1.55081e-08 0)
(4.99957e-05 1.4774e-08 0)
(4.99909e-05 1.40847e-08 0)
(5.0006e-05 1.11007e-09 0)
(5.00063e-05 1.99563e-09 0)
(5.00063e-05 3.22696e-09 0)
(5.00062e-05 4.44929e-09 0)
(5.00061e-05 5.61832e-09 0)
(5.00059e-05 6.74006e-09 0)
(5.00057e-05 7.75004e-09 0)
(5.00054e-05 8.67772e-09 0)
(5.00049e-05 9.41438e-09 0)
(5.00043e-05 1.00214e-08 0)
(5.00033e-05 1.03352e-08 0)
(5.0002e-05 1.04767e-08 0)
(5.00001e-05 1.02276e-08 0)
(4.99976e-05 9.85151e-09 0)
(4.99944e-05 9.11891e-09 0)
(4.99902e-05 8.6351e-09 0)
(5.00063e-05 8.5552e-10 0)
(5.00061e-05 1.4429e-09 0)
(5.0006e-05 2.3239e-09 0)
(5.00059e-05 3.18464e-09 0)
(5.00057e-05 3.98606e-09 0)
(5.00055e-05 4.72886e-09 0)
(5.00051e-05 5.35736e-09 0)
(5.00046e-05 5.89489e-09 0)
(5.0004e-05 6.25188e-09 0)
(5.00032e-05 6.48692e-09 0)
(5.0002e-05 6.47231e-09 0)
(5.00006e-05 6.3334e-09 0)
(4.99987e-05 5.908e-09 0)
(4.99962e-05 5.46309e-09 0)
(4.99933e-05 4.8124e-09 0)
(4.99899e-05 4.49506e-09 0)
(5.00061e-05 6.18949e-10 0)
(5.00053e-05 9.46679e-10 0)
(5.00052e-05 1.5153e-09 0)
(5.00051e-05 2.0582e-09 0)
(5.00048e-05 2.54083e-09 0)
(5.00045e-05 2.9644e-09 0)
(5.0004e-05 3.27945e-09 0)
(5.00034e-05 3.5107e-09 0)
(5.00027e-05 3.58293e-09 0)
(5.00017e-05 3.55742e-09 0)
(5.00005e-05 3.33316e-09 0)
(4.99989e-05 3.0358e-09 0)
(4.99971e-05 2.54137e-09 0)
(4.99948e-05 2.0941e-09 0)
(4.99922e-05 1.53714e-09 0)
(4.99894e-05 1.30355e-09 0)
(5.00054e-05 4.06429e-10 0)
(5.00042e-05 5.14653e-10 0)
(5.0004e-05 8.13293e-10 0)
(5.00038e-05 1.08495e-09 0)
(5.00035e-05 1.29973e-09 0)
(5.00031e-05 1.46179e-09 0)
(5.00026e-05 1.52714e-09 0)
(5.00019e-05 1.52402e-09 0)
(5.00011e-05 1.38866e-09 0)
(5e-05 1.18486e-09 0)
(4.99988e-05 8.31219e-10 0)
(4.99973e-05 4.48242e-10 0)
(4.99955e-05 -6.24601e-11 0)
(4.99934e-05 -4.88102e-10 0)
(4.99912e-05 -9.64244e-10 0)
(4.99889e-05 -1.14923e-09 0)
(5.00042e-05 2.21307e-10 0)
(5.00027e-05 1.48991e-10 0)
(5.00025e-05 2.20808e-10 0)
(5.00023e-05 2.67277e-10 0)
(5.00019e-05 2.63256e-10 0)
(5.00015e-05 2.16724e-10 0)
(5.00009e-05 8.85116e-11 0)
(5.00002e-05 -8.93226e-11 0)
(4.99993e-05 -3.71799e-10 0)
(4.99982e-05 -6.93989e-10 0)
(4.9997e-05 -1.12356e-09 0)
(4.99955e-05 -1.54878e-09 0)
(4.99939e-05 -2.05104e-09 0)
(4.99921e-05 -2.45112e-09 0)
(4.99902e-05 -2.86716e-09 0)
(4.99883e-05 -3.0347e-09 0)
(5.00027e-05 6.45469e-11 0)
(5.00009e-05 -1.52557e-10 0)
(5.00007e-05 -2.66448e-10 0)
(5.00004e-05 -4.02309e-10 0)
(5.00001e-05 -5.80691e-10 0)
(4.99996e-05 -7.89812e-10 0)
(4.9999e-05 -1.06465e-09 0)
(4.99982e-05 -1.37008e-09 0)
(4.99973e-05 -1.75451e-09 0)
(4.99963e-05 -2.15362e-09 0)
(4.99951e-05 -2.62557e-09 0)
(4.99938e-05 -3.06921e-09 0)
(4.99923e-05 -3.55436e-09 0)
(4.99907e-05 -3.93263e-09 0)
(4.99892e-05 -4.30727e-09 0)
(4.99876e-05 -4.47425e-09 0)
(5.0001e-05 -6.47815e-11 0)
(4.99989e-05 -3.95068e-10 0)
(4.99987e-05 -6.5728e-10 0)
(4.99984e-05 -9.3719e-10 0)
(4.9998e-05 -1.25126e-09 0)
(4.99976e-05 -1.58415e-09 0)
(4.99969e-05 -1.96761e-09 0)
(4.99962e-05 -2.36405e-09 0)
(4.99953e-05 -2.81746e-09 0)
(4.99943e-05 -3.26499e-09 0)
(4.99932e-05 -3.75879e-09 0)
(4.9992e-05 -4.20823e-09 0)
(4.99907e-05 -4.67536e-09 0)
(4.99893e-05 -5.03826e-09 0)
(4.9988e-05 -5.38736e-09 0)
(4.99868e-05 -5.56574e-09 0)
(4.9999e-05 -1.68832e-10 0)
(4.99968e-05 -5.8539e-10 0)
(4.99966e-05 -9.63212e-10 0)
(4.99963e-05 -1.35426e-09 0)
(4.99959e-05 -1.77145e-09 0)
(4.99954e-05 -2.19642e-09 0)
(4.99948e-05 -2.65848e-09 0)
(4.99941e-05 -3.1184e-09 0)
(4.99933e-05 -3.61719e-09 0)
(4.99924e-05 -4.0942e-09 0)
(4.99913e-05 -4.59774e-09 0)
(4.99902e-05 -5.04708e-09 0)
(4.99891e-05 -5.49869e-09 0)
(4.99879e-05 -5.85262e-09 0)
(4.99869e-05 -6.1881e-09 0)
(4.99859e-05 -6.3846e-09 0)
(4.99969e-05 -2.50522e-10 0)
(4.99946e-05 -7.31097e-10 0)
(4.99944e-05 -1.19684e-09 0)
(4.99941e-05 -1.6715e-09 0)
(4.99937e-05 -2.16518e-09 0)
(4.99932e-05 -2.65691e-09 0)
(4.99927e-05 -3.17446e-09 0)
(4.9992e-05 -3.67726e-09 0)
(4.99912e-05 -4.20494e-09 0)
(4.99904e-05 -4.69884e-09 0)
(4.99894e-05 -5.20541e-09 0)
(4.99885e-05 -5.65221e-09 0)
(4.99875e-05 -6.09201e-09 0)
(4.99865e-05 -6.44236e-09 0)
(4.99856e-05 -6.77298e-09 0)
(4.99848e-05 -6.9914e-09 0)
(4.99946e-05 -3.13086e-10 0)
(4.99923e-05 -8.39869e-10 0)
(4.99921e-05 -1.37078e-09 0)
(4.99918e-05 -1.90678e-09 0)
(4.99915e-05 -2.4557e-09 0)
(4.9991e-05 -2.99449e-09 0)
(4.99905e-05 -3.55002e-09 0)
(4.99899e-05 -4.0808e-09 0)
(4.99892e-05 -4.62592e-09 0)
(4.99884e-05 -5.12867e-09 0)
(4.99876e-05 -5.63467e-09 0)
(4.99867e-05 -6.07841e-09 0)
(4.99859e-05 -6.51004e-09 0)
(4.99851e-05 -6.86092e-09 0)
(4.99843e-05 -7.19268e-09 0)
(4.99837e-05 -7.43452e-09 0)
(4.99923e-05 -3.59808e-10 0)
(4.999e-05 -9.18986e-10 0)
(4.99898e-05 -1.49695e-09 0)
(4.99895e-05 -2.07668e-09 0)
(4.99892e-05 -2.6644e-09 0)
(4.99888e-05 -3.23525e-09 0)
(4.99883e-05 -3.8159e-09 0)
(4.99877e-05 -4.36394e-09 0)
(4.99871e-05 -4.91885e-09 0)
(4.99864e-05 -5.42527e-09 0)
(4.99857e-05 -5.92909e-09 0)
(4.9985e-05 -6.36999e-09 0)
(4.99842e-05 -6.79661e-09 0)
(4.99836e-05 -7.15081e-09 0)
(4.9983e-05 -7.48758e-09 0)
(4.99825e-05 -7.75282e-09 0)
(4.999e-05 -3.93807e-10 0)
(4.99876e-05 -9.75106e-10 0)
(4.99875e-05 -1.58617e-09 0)
(4.99872e-05 -2.19622e-09 0)
(4.99869e-05 -2.81038e-09 0)
(4.99866e-05 -3.40227e-09 0)
(4.99861e-05 -3.99878e-09 0)
(4.99856e-05 -4.55667e-09 0)
(4.99851e-05 -5.11634e-09 0)
(4.99845e-05 -5.62333e-09 0)
(4.99839e-05 -6.12436e-09 0)
(4.99832e-05 -6.56298e-09 0)
(4.99826e-05 -6.98701e-09 0)
(4.9982e-05 -7.3462e-09 0)
(4.99815e-05 -7.6902e-09 0)
(4.99812e-05 -7.97769e-09 0)
(4.99877e-05 -4.17934e-10 0)
(4.99853e-05 -1.0141e-09 0)
(4.99852e-05 -1.64794e-09 0)
(4.9985e-05 -2.27847e-09 0)
(4.99847e-05 -2.91016e-09 0)
(4.99844e-05 -3.51526e-09 0)
(4.9984e-05 -4.12132e-09 0)
(4.99835e-05 -4.68411e-09 0)
(4.99831e-05 -5.24546e-09 0)
(4.99826e-05 -5.75119e-09 0)
(4.9982e-05 -6.24946e-09 0)
(4.99815e-05 -6.68628e-09 0)
(4.9981e-05 -7.10945e-09 0)
(4.99805e-05 -7.47434e-09 0)
(4.99801e-05 -7.82651e-09 0)
(4.99798e-05 -8.13434e-09 0)
(4.99853e-05 -4.34705e-10 0)
(4.9983e-05 -1.04103e-09 0)
(4.99829e-05 -1.69044e-09 0)
(4.99827e-05 -2.33467e-09 0)
(4.99825e-05 -2.97785e-09 0)
(4.99822e-05 -3.59096e-09 0)
(4.99819e-05 -4.2025e-09 0)
(4.99815e-05 -4.76715e-09 0)
(4.99811e-05 -5.32847e-09 0)
(4.99806e-05 -5.83201e-09 0)
(4.99802e-05 -6.32782e-09 0)
(4.99798e-05 -6.7632e-09 0)
(4.99793e-05 -7.18659e-09 0)
(4.99789e-05 -7.55711e-09 0)
(4.99786e-05 -7.91742e-09 0)
(4.99783e-05 -8.24313e-09 0)
(4.9983e-05 -4.46299e-10 0)
(4.99807e-05 -1.0602e-09 0)
(4.99806e-05 -1.72059e-09 0)
(4.99804e-05 -2.37424e-09 0)
(4.99803e-05 -3.02518e-09 0)
(4.998e-05 -3.64323e-09 0)
(4.99797e-05 -4.25797e-09 0)
(4.99794e-05 -4.82288e-09 0)
(4.99791e-05 -5.38344e-09 0)
(4.99788e-05 -5.8845e-09 0)
(4.99784e-05 -6.37826e-09 0)
(4.9978e-05 -6.81237e-09 0)
(4.99776e-05 -7.23648e-09 0)
(4.99773e-05 -7.61195e-09 0)
(4.99771e-05 -7.97963e-09 0)
(4.99769e-05 -8.32039e-09 0)
(4.99807e-05 -4.54554e-10 0)
(4.99784e-05 -1.07519e-09 0)
(4.99783e-05 -1.74413e-09 0)
(4.99782e-05 -2.40498e-09 0)
(4.99781e-05 -3.06191e-09 0)
(4.99779e-05 -3.68347e-09 0)
(4.99777e-05 -4.30055e-09 0)
(4.99774e-05 -4.8652e-09 0)
(4.99771e-05 -5.42506e-09 0)
(4.99769e-05 -5.92369e-09 0)
(4.99766e-05 -6.41591e-09 0)
(4.99763e-05 -6.84867e-09 0)
(4.9976e-05 -7.27358e-09 0)
(4.99757e-05 -7.6528e-09 0)
(4.99755e-05 -8.02654e-09 0)
(4.99753e-05 -8.3792e-09 0)
(4.99784e-05 -4.61007e-10 0)
(4.99761e-05 -1.08891e-09 0)
(4.99761e-05 -1.76574e-09 0)
(4.9976e-05 -2.43329e-09 0)
(4.99759e-05 -3.0959e-09 0)
(4.99757e-05 -3.72096e-09 0)
(4.99756e-05 -4.34055e-09 0)
(4.99754e-05 -4.90535e-09 0)
(4.99752e-05 -5.46502e-09 0)
(4.9975e-05 -5.96166e-09 0)
(4.99747e-05 -6.45277e-09 0)
(4.99746e-05 -6.88398e-09 0)
(4.99743e-05 -7.30935e-09 0)
(4.99741e-05 -7.69075e-09 0)
(4.99739e-05 -8.06876e-09 0)
(4.99738e-05 -8.42999e-09 0)
(4.99762e-05 -4.66914e-10 0)
(4.99739e-05 -1.10374e-09 0)
(4.99738e-05 -1.78922e-09 0)
(4.99738e-05 -2.46429e-09 0)
(4.99737e-05 -3.13355e-09 0)
(4.99736e-05 -3.76309e-09 0)
(4.99735e-05 -4.38629e-09 0)
(4.99734e-05 -4.95222e-09 0)
(4.99733e-05 -5.51271e-09 0)
(4.99731e-05 -6.00792e-09 0)
(4.99729e-05 -6.49842e-09 0)
(4.99728e-05 -6.92762e-09 0)
(4.99726e-05 -7.35287e-09 0)
(4.99725e-05 -7.73451e-09 0)
(4.99723e-05 -8.11469e-09 0)
(4.99722e-05 -8.48089e-09 0)
(4.99739e-05 -4.73292e-10 0)
(4.99716e-05 -1.12152e-09 0)
(4.99716e-05 -1.81753e-09 0)
(4.99716e-05 -2.50202e-09 0)
(4.99716e-05 -3.17978e-09 0)
(4.99715e-05 -3.81571e-09 0)
(4.99715e-05 -4.44417e-09 0)
(4.99714e-05 -5.01284e-09 0)
(4.99713e-05 -5.57537e-09 0)
(4.99713e-05 -6.06997e-09 0)
(4.99712e-05 -6.56024e-09 0)
(4.99711e-05 -6.98697e-09 0)
(4.99709e-05 -7.41119e-09 0)
(4.99709e-05 -7.79091e-09 0)
(4.99707e-05 -8.17083e-09 0)
(4.99706e-05 -8.53826e-09 0)
(4.99716e-05 -4.80935e-10 0)
(4.99693e-05 -1.14367e-09 0)
(4.99693e-05 -1.85294e-09 0)
(4.99693e-05 -2.54954e-09 0)
(4.99694e-05 -3.23841e-09 0)
(4.99694e-05 -3.88321e-09 0)
(4.99694e-05 -4.51917e-09 0)
(4.99694e-05 -5.09251e-09 0)
(4.99694e-05 -5.65861e-09 0)
(4.99694e-05 -6.15347e-09 0)
(4.99694e-05 -6.64397e-09 0)
(4.99694e-05 -7.06751e-09 0)
(4.99693e-05 -7.4897e-09 0)
(4.99692e-05 -7.86501e-09 0)
(4.99691e-05 -8.24202e-09 0)
(4.9969e-05 -8.60666e-09 0)
(4.99693e-05 -4.90448e-10 0)
(4.9967e-05 -1.17115e-09 0)
(4.99671e-05 -1.89697e-09 0)
(4.99671e-05 -2.60896e-09 0)
(4.99672e-05 -3.312e-09 0)
(4.99672e-05 -3.96871e-09 0)
(4.99673e-05 -4.61464e-09 0)
(4.99674e-05 -5.19501e-09 0)
(4.99675e-05 -5.7663e-09 0)
(4.99676e-05 -6.26251e-09 0)
(4.99676e-05 -6.7536e-09 0)
(4.99676e-05 -7.17328e-09 0)
(4.99676e-05 -7.59221e-09 0)
(4.99676e-05 -7.96047e-09 0)
(4.99675e-05 -8.33168e-09 0)
(4.99675e-05 -8.68929e-09 0)
(4.9967e-05 -5.02246e-10 0)
(4.99647e-05 -1.20451e-09 0)
(4.99647e-05 -1.95053e-09 0)
(4.99648e-05 -2.68152e-09 0)
(4.99649e-05 -3.40212e-09 0)
(4.99651e-05 -4.07404e-09 0)
(4.99652e-05 -4.73271e-09 0)
(4.99654e-05 -5.32262e-09 0)
(4.99655e-05 -5.90089e-09 0)
(4.99657e-05 -6.39956e-09 0)
(4.99658e-05 -6.89169e-09 0)
(4.99659e-05 -7.30669e-09 0)
(4.99659e-05 -7.72107e-09 0)
(4.9966e-05 -8.07937e-09 0)
(4.99659e-05 -8.44168e-09 0)
(4.99659e-05 -8.78768e-09 0)
(4.99646e-05 -5.16567e-10 0)
(4.99622e-05 -1.24383e-09 0)
(4.99624e-05 -2.01377e-09 0)
(4.99625e-05 -2.76747e-09 0)
(4.99627e-05 -3.50904e-09 0)
(4.99629e-05 -4.19965e-09 0)
(4.99631e-05 -4.87386e-09 0)
(4.99633e-05 -5.47602e-09 0)
(4.99636e-05 -6.0631e-09 0)
(4.99638e-05 -6.5655e-09 0)
(4.9964e-05 -7.0591e-09 0)
(4.99642e-05 -7.46863e-09 0)
(4.99643e-05 -7.87711e-09 0)
(4.99644e-05 -8.22237e-09 0)
(4.99644e-05 -8.57251e-09 0)
(4.99643e-05 -8.90201e-09 0)
(4.99622e-05 -5.33447e-10 0)
(4.99598e-05 -1.28873e-09 0)
(4.99599e-05 -2.08605e-09 0)
(4.99601e-05 -2.86602e-09 0)
(4.99603e-05 -3.63181e-09 0)
(4.99606e-05 -4.34455e-09 0)
(4.99609e-05 -5.03701e-09 0)
(4.99612e-05 -5.65421e-09 0)
(4.99616e-05 -6.25193e-09 0)
(4.99619e-05 -6.7594e-09 0)
(4.99622e-05 -7.25494e-09 0)
(4.99625e-05 -7.65819e-09 0)
(4.99626e-05 -8.05937e-09 0)
(4.99628e-05 -8.38831e-09 0)
(4.99628e-05 -8.72279e-09 0)
(4.99628e-05 -9.03046e-09 0)
(4.99597e-05 -5.52718e-10 0)
(4.99572e-05 -1.33818e-09 0)
(4.99574e-05 -2.16577e-09 0)
(4.99576e-05 -2.97503e-09 0)
(4.99579e-05 -3.76784e-09 0)
(4.99583e-05 -4.50586e-09 0)
(4.99587e-05 -5.21902e-09 0)
(4.99591e-05 -5.85399e-09 0)
(4.99595e-05 -6.46413e-09 0)
(4.996e-05 -6.97812e-09 0)
(4.99604e-05 -7.47613e-09 0)
(4.99608e-05 -7.87237e-09 0)
(4.9961e-05 -8.26493e-09 0)
(4.99613e-05 -8.57418e-09 0)
(4.99613e-05 -8.88943e-09 0)
(4.99614e-05 -9.16953e-09 0)
(4.99572e-05 -5.73939e-10 0)
(4.99545e-05 -1.39047e-09 0)
(4.99548e-05 -2.2502e-09 0)
(4.9955e-05 -3.09093e-09 0)
(4.99554e-05 -3.9127e-09 0)
(4.99559e-05 -4.67865e-09 0)
(4.99564e-05 -5.41443e-09 0)
(4.99569e-05 -6.06975e-09 0)
(4.99575e-05 -6.69385e-09 0)
(4.99581e-05 -7.21592e-09 0)
(4.99585e-05 -7.71695e-09 0)
(4.99591e-05 -8.1056e-09 0)
(4.99594e-05 -8.48825e-09 0)
(4.99598e-05 -8.77432e-09 0)
(4.99599e-05 -9.0666e-09 0)
(4.996e-05 -9.31288e-09 0)
(4.99545e-05 -5.96374e-10 0)
(4.99518e-05 -1.44295e-09 0)
(4.99521e-05 -2.33513e-09 0)
(4.99524e-05 -3.20811e-09 0)
(4.99528e-05 -4.05953e-09 0)
(4.99534e-05 -4.85511e-09 0)
(4.9954e-05 -5.61469e-09 0)
(4.99547e-05 -6.29253e-09 0)
(4.99553e-05 -6.93192e-09 0)
(4.99561e-05 -7.46363e-09 0)
(4.99567e-05 -7.96838e-09 0)
(4.99574e-05 -8.34904e-09 0)
(4.99578e-05 -8.7208e-09 0)
(4.99583e-05 -8.9802e-09 0)
(4.99585e-05 -9.24585e-09 0)
(4.99586e-05 -9.45162e-09 0)
(4.99517e-05 -6.1889e-10 0)
(4.99489e-05 -1.49192e-09 0)
(4.99492e-05 -2.41466e-09 0)
(4.99496e-05 -3.31871e-09 0)
(4.99501e-05 -4.19864e-09 0)
(4.99508e-05 -5.02426e-09 0)
(4.99515e-05 -5.80755e-09 0)
(4.99523e-05 -6.50954e-09 0)
(4.99531e-05 -7.16498e-09 0)
(4.99541e-05 -7.70803e-09 0)
(4.99548e-05 -8.21716e-09 0)
(4.99557e-05 -8.58982e-09 0)
(4.99563e-05 -8.94986e-09 0)
(4.99569e-05 -9.17927e-09 0)
(4.99572e-05 -9.41462e-09 0)
(4.99574e-05 -9.57267e-09 0)
(4.99488e-05 -6.39896e-10 0)
(4.99458e-05 -1.53228e-09 0)
(4.99462e-05 -2.48063e-09 0)
(4.99466e-05 -3.4118e-09 0)
(4.99473e-05 -4.31658e-09 0)
(4.99481e-05 -5.17062e-09 0)
(4.99489e-05 -5.97598e-09 0)
(4.99499e-05 -6.70273e-09 0)
(4.99509e-05 -7.37439e-09 0)
(4.9952e-05 -7.93034e-09 0)
(4.9953e-05 -8.44475e-09 0)
(4.9954e-05 -8.80977e-09 0)
(4.99548e-05 -9.15792e-09 0)
(4.99556e-05 -9.35429e-09 0)
(4.9956e-05 -9.55607e-09 0)
(4.99563e-05 -9.65882e-09 0)
(4.99457e-05 -6.57198e-10 0)
(4.99426e-05 -1.5573e-09 0)
(4.99431e-05 -2.52229e-09 0)
(4.99436e-05 -3.47295e-09 0)
(4.99444e-05 -4.39552e-09 0)
(4.99452e-05 -5.27378e-09 0)
(4.99462e-05 -6.09719e-09 0)
(4.99474e-05 -6.84803e-09 0)
(4.99486e-05 -7.5349e-09 0)
(4.99499e-05 -8.10534e-09 0)
(4.99511e-05 -8.6258e-09 0)
(4.99523e-05 -8.98433e-09 0)
(4.99533e-05 -9.32087e-09 0)
(4.99543e-05 -9.48175e-09 0)
(4.99549e-05 -9.64709e-09 0)
(4.99553e-05 -9.6866e-09 0)
(4.99425e-05 -6.67905e-10 0)
(4.99393e-05 -1.55819e-09 0)
(4.99398e-05 -2.52557e-09 0)
(4.99404e-05 -3.4832e-09 0)
(4.99413e-05 -4.41207e-09 0)
(4.99423e-05 -5.30661e-09 0)
(4.99435e-05 -6.14109e-09 0)
(4.99448e-05 -6.91326e-09 0)
(4.99462e-05 -7.61305e-09 0)
(4.99477e-05 -8.19914e-09 0)
(4.99491e-05 -8.72663e-09 0)
(4.99506e-05 -9.08054e-09 0)
(4.99519e-05 -9.40689e-09 0)
(4.99531e-05 -9.53068e-09 0)
(4.99539e-05 -9.65765e-09 0)
(4.99545e-05 -9.62591e-09 0)
(4.99392e-05 -6.68247e-10 0)
(4.99359e-05 -1.52383e-09 0)
(4.99364e-05 -2.47262e-09 0)
(4.99371e-05 -3.41846e-09 0)
(4.99381e-05 -4.33631e-09 0)
(4.99392e-05 -5.23444e-09 0)
(4.99405e-05 -6.06885e-09 0)
(4.99421e-05 -6.85695e-09 0)
(4.99437e-05 -7.56515e-09 0)
(4.99454e-05 -8.16771e-09 0)
(4.99471e-05 -8.70286e-09 0)
(4.9949e-05 -9.05529e-09 0)
(4.99505e-05 -9.3738e-09 0)
(4.9952e-05 -9.46038e-09 0)
(4.9953e-05 -9.5482e-09 0)
(4.99539e-05 -9.43731e-09 0)
(4.99357e-05 -6.53439e-10 0)
(4.99323e-05 -1.44029e-09 0)
(4.99329e-05 -2.34107e-09 0)
(4.99337e-05 -3.24836e-09 0)
(4.99347e-05 -4.13058e-09 0)
(4.9936e-05 -5.01323e-09 0)
(4.99375e-05 -5.83113e-09 0)
(4.99392e-05 -6.62581e-09 0)
(4.99411e-05 -7.33524e-09 0)
(4.99431e-05 -7.95391e-09 0)
(4.99451e-05 -8.49733e-09 0)
(4.99473e-05 -8.85253e-09 0)
(4.99491e-05 -9.1674e-09 0)
(4.9951e-05 -9.21842e-09 0)
(4.99523e-05 -9.26836e-09 0)
(4.99535e-05 -9.07092e-09 0)
(4.99321e-05 -6.17504e-10 0)
(4.99287e-05 -1.29049e-09 0)
(4.99293e-05 -2.10341e-09 0)
(4.99302e-05 -2.93547e-09 0)
(4.99313e-05 -3.74816e-09 0)
(4.99327e-05 -4.58814e-09 0)
(4.99344e-05 -5.36608e-09 0)
(4.99363e-05 -6.15284e-09 0)
(4.99384e-05 -6.85218e-09 0)
(4.99408e-05 -7.48519e-09 0)
(4.99431e-05 -8.03646e-09 0)
(4.99456e-05 -8.40052e-09 0)
(4.99478e-05 -8.71747e-09 0)
(4.99501e-05 -8.73753e-09 0)
(4.99518e-05 -8.7533e-09 0)
(4.99533e-05 -8.46307e-09 0)
(4.99285e-05 -5.53105e-10 0)
(4.99251e-05 -1.054e-09 0)
(4.99258e-05 -1.72663e-09 0)
(4.99266e-05 -2.43464e-09 0)
(4.99279e-05 -3.13247e-09 0)
(4.99294e-05 -3.89221e-09 0)
(4.99312e-05 -4.59773e-09 0)
(4.99333e-05 -5.35485e-09 0)
(4.99357e-05 -6.02738e-09 0)
(4.99383e-05 -6.67001e-09 0)
(4.9941e-05 -7.22756e-09 0)
(4.99439e-05 -7.60785e-09 0)
(4.99466e-05 -7.93518e-09 0)
(4.99493e-05 -7.93222e-09 0)
(4.99515e-05 -7.92132e-09 0)
(4.99534e-05 -7.53382e-09 0)
(4.99249e-05 -4.51467e-10 0)
(4.99215e-05 -7.06714e-10 0)
(4.99222e-05 -1.17173e-09 0)
(4.99232e-05 -1.69214e-09 0)
(4.99244e-05 -2.21589e-09 0)
(4.99261e-05 -2.84469e-09 0)
(4.9928e-05 -3.43383e-09 0)
(4.99303e-05 -4.12989e-09 0)
(4.99329e-05 -4.75116e-09 0)
(4.99358e-05 -5.39435e-09 0)
(4.99389e-05 -5.95386e-09 0)
(4.99422e-05 -6.35935e-09 0)
(4.99454e-05 -6.70751e-09 0)
(4.99487e-05 -6.69445e-09 0)
(4.99514e-05 -6.6691e-09 0)
(4.99539e-05 -6.18289e-09 0)
(4.99213e-05 -3.02245e-10 0)
(4.99182e-05 -2.2131e-10 0)
(4.99189e-05 -3.94219e-10 0)
(4.99198e-05 -6.46417e-10 0)
(4.99211e-05 -9.20118e-10 0)
(4.99228e-05 -1.35128e-09 0)
(4.99248e-05 -1.7652e-09 0)
(4.99272e-05 -2.35594e-09 0)
(4.99301e-05 -2.89058e-09 0)
(4.99332e-05 -3.51824e-09 0)
(4.99367e-05 -4.07055e-09 0)
(4.99405e-05 -4.5107e-09 0)
(4.99442e-05 -4.89213e-09 0)
(4.99482e-05 -4.88777e-09 0)
(4.99515e-05 -4.86631e-09 0)
(4.99547e-05 -4.28424e-09 0)
(4.9918e-05 -9.3711e-11 0)
(4.99152e-05 4.32542e-10 0)
(4.99158e-05 6.55402e-10 0)
(4.99168e-05 7.71873e-10 0)
(4.9918e-05 8.43504e-10 0)
(4.99197e-05 6.96636e-10 0)
(4.99218e-05 5.349e-10 0)
(4.99243e-05 1.11446e-10 0)
(4.99272e-05 -2.86788e-10 0)
(4.99306e-05 -8.71201e-10 0)
(4.99345e-05 -1.39984e-09 0)
(4.99387e-05 -1.88225e-09 0)
(4.99431e-05 -2.31116e-09 0)
(4.99477e-05 -2.34124e-09 0)
(4.99519e-05 -2.35026e-09 0)
(4.99559e-05 -1.6817e-09 0)
(4.9915e-05 1.87137e-10 0)
(4.99127e-05 1.28652e-09 0)
(4.99133e-05 2.02937e-09 0)
(4.99141e-05 2.63642e-09 0)
(4.99153e-05 3.17107e-09 0)
(4.99169e-05 3.41808e-09 0)
(4.99189e-05 3.60898e-09 0)
(4.99214e-05 3.43687e-09 0)
(4.99245e-05 3.24645e-09 0)
(4.99281e-05 2.74926e-09 0)
(4.99323e-05 2.27545e-09 0)
(4.9937e-05 1.74743e-09 0)
(4.9942e-05 1.25957e-09 0)
(4.99474e-05 1.16056e-09 0)
(4.99525e-05 1.08573e-09 0)
(4.99576e-05 1.82159e-09 0)
(4.99125e-05 5.53881e-10 0)
(4.9911e-05 2.37196e-09 0)
(4.99114e-05 3.77967e-09 0)
(4.99122e-05 5.02224e-09 0)
(4.99132e-05 6.16144e-09 0)
(4.99147e-05 6.93945e-09 0)
(4.99165e-05 7.61048e-09 0)
(4.99189e-05 7.80425e-09 0)
(4.9922e-05 7.92e-09 0)
(4.99256e-05 7.58145e-09 0)
(4.99301e-05 7.21349e-09 0)
(4.99352e-05 6.65062e-09 0)
(4.99409e-05 6.09722e-09 0)
(4.99472e-05 5.88843e-09 0)
(4.99534e-05 5.70064e-09 0)
(4.99597e-05 6.47069e-09 0)
(4.99108e-05 1.01993e-09 0)
(4.99103e-05 3.71631e-09 0)
(4.99106e-05 5.95281e-09 0)
(4.99112e-05 7.99765e-09 0)
(4.99119e-05 9.90836e-09 0)
(4.99131e-05 1.13836e-08 0)
(4.99147e-05 1.2696e-08 0)
(4.99169e-05 1.34061e-08 0)
(4.99198e-05 1.39663e-08 0)
(4.99234e-05 1.38942e-08 0)
(4.99279e-05 1.37205e-08 0)
(4.99334e-05 1.31567e-08 0)
(4.99397e-05 1.25517e-08 0)
(4.9947e-05 1.21881e-08 0)
(4.99544e-05 1.1834e-08 0)
(4.99623e-05 1.25859e-08 0)
(4.99101e-05 1.597e-09 0)
(4.99109e-05 5.33875e-09 0)
(4.9911e-05 8.58232e-09 0)
(4.99113e-05 1.16153e-08 0)
(4.99118e-05 1.44875e-08 0)
(4.99126e-05 1.68576e-08 0)
(4.99138e-05 1.90083e-08 0)
(4.99156e-05 2.04316e-08 0)
(4.99181e-05 2.16224e-08 0)
(4.99215e-05 2.1981e-08 0)
(4.9926e-05 2.2141e-08 0)
(4.99316e-05 2.1658e-08 0)
(4.99385e-05 2.10498e-08 0)
(4.99467e-05 2.04975e-08 0)
(4.99556e-05 1.99235e-08 0)
(4.99653e-05 2.05805e-08 0)
(4.99108e-05 2.29323e-09 0)
(4.99132e-05 7.24419e-09 0)
(4.9913e-05 1.16794e-08 0)
(4.99131e-05 1.5898e-08 0)
(4.99131e-05 1.99402e-08 0)
(4.99135e-05 2.34306e-08 0)
(4.99141e-05 2.66557e-08 0)
(4.99153e-05 2.90396e-08 0)
(4.99173e-05 3.11108e-08 0)
(4.99202e-05 3.21365e-08 0)
(4.99244e-05 3.28496e-08 0)
(4.99299e-05 3.26025e-08 0)
(4.99373e-05 3.21065e-08 0)
(4.99463e-05 3.13587e-08 0)
(4.99568e-05 3.05219e-08 0)
(4.99688e-05 3.09621e-08 0)
(4.99131e-05 3.11062e-09 0)
(4.99175e-05 9.41601e-09 0)
(4.99171e-05 1.52205e-08 0)
(4.99168e-05 2.08216e-08 0)
(4.99163e-05 2.62498e-08 0)
(4.99161e-05 3.11068e-08 0)
(4.99161e-05 3.56762e-08 0)
(4.99165e-05 3.93232e-08 0)
(4.99177e-05 4.25962e-08 0)
(4.99198e-05 4.46229e-08 0)
(4.99234e-05 4.62201e-08 0)
(4.99286e-05 4.64885e-08 0)
(4.99361e-05 4.6336e-08 0)
(4.99458e-05 4.54624e-08 0)
(4.9958e-05 4.43454e-08 0)
(4.99725e-05 4.43686e-08 0)
(4.99175e-05 4.04188e-09 0)
(4.99241e-05 1.18084e-08 0)
(4.99234e-05 1.91345e-08 0)
(4.99228e-05 2.6296e-08 0)
(4.99218e-05 3.33162e-08 0)
(4.99209e-05 3.97896e-08 0)
(4.99201e-05 4.59947e-08 0)
(4.99196e-05 5.12542e-08 0)
(4.99198e-05 5.61266e-08 0)
(4.99209e-05 5.96049e-08 0)
(4.99235e-05 6.25732e-08 0)
(4.99278e-05 6.38387e-08 0)
(4.99349e-05 6.44973e-08 0)
(4.9945e-05 6.38004e-08 0)
(4.99588e-05 6.25742e-08 0)
(4.99763e-05 6.2001e-08 0)
(4.99242e-05 5.06721e-09 0)
(4.99334e-05 1.4339e-08 0)
(4.99324e-05 2.32897e-08 0)
(4.99314e-05 3.21449e-08 0)
(4.99299e-05 4.09258e-08 0)
(4.99284e-05 4.92413e-08 0)
(4.99266e-05 5.73663e-08 0)
(4.99252e-05 6.46086e-08 0)
(4.99242e-05 7.15328e-08 0)
(4.99239e-05 7.70245e-08 0)
(4.99252e-05 8.20273e-08 0)
(4.99282e-05 8.50483e-08 0)
(4.99344e-05 8.73788e-08 0)
(4.9944e-05 8.76873e-08 0)
(4.99589e-05 8.7199e-08 0)
(4.99797e-05 8.64922e-08 0)
(4.99336e-05 6.15112e-09 0)
(4.99454e-05 1.68849e-08 0)
(4.99443e-05 2.74867e-08 0)
(4.99429e-05 3.80931e-08 0)
(4.99409e-05 4.87311e-08 0)
(4.99388e-05 5.90487e-08 0)
(4.99362e-05 6.93226e-08 0)
(4.99338e-05 7.88838e-08 0)
(4.99315e-05 8.83041e-08 0)
(4.99298e-05 9.64145e-08 0)
(4.99294e-05 1.04218e-07 0)
(4.99308e-05 1.09972e-07 0)
(4.99353e-05 1.15199e-07 0)
(4.99439e-05 1.17943e-07 0)
(4.9959e-05 1.20011e-07 0)
(4.99822e-05 1.20982e-07 0)
(4.99457e-05 7.2408e-09 0)
(4.99603e-05 1.92826e-08 0)
(4.9959e-05 3.1457e-08 0)
(4.99574e-05 4.37633e-08 0)
(4.99551e-05 5.62424e-08 0)
(4.99524e-05 6.86064e-08 0)
(4.99492e-05 8.11413e-08 0)
(4.99459e-05 9.32426e-08 0)
(4.99424e-05 1.05492e-07 0)
(4.99393e-05 1.16732e-07 0)
(4.99371e-05 1.28019e-07 0)
(4.99366e-05 1.37442e-07 0)
(4.99391e-05 1.46754e-07 0)
(4.99458e-05 1.53395e-07 0)
(4.99602e-05 1.59855e-07 0)
(4.99845e-05 1.64322e-07 0)
(4.99607e-05 8.26623e-09 0)
(4.99779e-05 2.13375e-08 0)
(4.99765e-05 3.48782e-08 0)
(4.99748e-05 4.86952e-08 0)
(4.99722e-05 6.28505e-08 0)
(4.99693e-05 7.71415e-08 0)
(4.99656e-05 9.18691e-08 0)
(4.99616e-05 1.06534e-07 0)
(4.99572e-05 1.21726e-07 0)
(4.99529e-05 1.3637e-07 0)
(4.9949e-05 1.51547e-07 0)
(4.99465e-05 1.65281e-07 0)
(4.99466e-05 1.79474e-07 0)
(4.99509e-05 1.91013e-07 0)
(4.9963e-05 2.02989e-07 0)
(4.9986e-05 2.11899e-07 0)
(4.99782e-05 9.14406e-09 0)
(4.99976e-05 2.28383e-08 0)
(4.99963e-05 3.73976e-08 0)
(4.99947e-05 5.23796e-08 0)
(4.99922e-05 6.7871e-08 0)
(4.99892e-05 8.37687e-08 0)
(4.99854e-05 1.00391e-07 0)
(4.99811e-05 1.17378e-07 0)
(4.99761e-05 1.35318e-07 0)
(4.99709e-05 1.53293e-07 0)
(4.99655e-05 1.72365e-07 0)
(4.9961e-05 1.90608e-07 0)
(4.99584e-05 2.0993e-07 0)
(4.99594e-05 2.26777e-07 0)
(4.99676e-05 2.44569e-07 0)
(4.99864e-05 2.57955e-07 0)
(4.9998e-05 9.78396e-09 0)
(5.0019e-05 2.3581e-08 0)
(5.00179e-05 3.86728e-08 0)
(5.00164e-05 5.4316e-08 0)
(5.00141e-05 7.06211e-08 0)
(5.00114e-05 8.75882e-08 0)
(5.00078e-05 1.0555e-07 0)
(5.00036e-05 1.24309e-07 0)
(4.99985e-05 1.44445e-07 0)
(4.99928e-05 1.65261e-07 0)
(4.99865e-05 1.87764e-07 0)
(4.99802e-05 2.10224e-07 0)
(4.99746e-05 2.34413e-07 0)
(4.99717e-05 2.56598e-07 0)
(4.99741e-05 2.80235e-07 0)
(4.99856e-05 2.98329e-07 0)
(5.00193e-05 1.0099e-08 0)
(5.00411e-05 2.33961e-08 0)
(5.00402e-05 3.84156e-08 0)
(5.00391e-05 5.40767e-08 0)
(5.00373e-05 7.05058e-08 0)
(5.00351e-05 8.77974e-08 0)
(5.0032e-05 1.06287e-07 0)
(5.00284e-05 1.2595e-07 0)
(5.00236e-05 1.47337e-07 0)
(5.0018e-05 1.70032e-07 0)
(5.00111e-05 1.94962e-07 0)
(5.00036e-05 2.20735e-07 0)
(4.9995e-05 2.48861e-07 0)
(4.99875e-05 2.75762e-07 0)
(4.99825e-05 3.04455e-07 0)
(4.99837e-05 3.26696e-07 0)
(5.00413e-05 1.00169e-08 0)
(5.00627e-05 2.21785e-08 0)
(5.00622e-05 3.64446e-08 0)
(5.00615e-05 5.13839e-08 0)
(5.00604e-05 6.7124e-08 0)
(5.00589e-05 8.38297e-08 0)
(5.00567e-05 1.01821e-07 0)
(5.00539e-05 1.21229e-07 0)
(5.005e-05 1.42559e-07 0)
(5.00451e-05 1.65705e-07 0)
(5.00383e-05 1.9151e-07 0)
(5.00299e-05 2.19069e-07 0)
(5.00189e-05 2.496e-07 0)
(5.00067e-05 2.80161e-07 0)
(4.99928e-05 3.12998e-07 0)
(4.9981e-05 3.39468e-07 0)
(5.00629e-05 9.49318e-09 0)
(5.00829e-05 1.99155e-08 0)
(5.00827e-05 3.27321e-08 0)
(5.00825e-05 4.61803e-08 0)
(5.0082e-05 6.03682e-08 0)
(5.00814e-05 7.54919e-08 0)
(5.00802e-05 9.18225e-08 0)
(5.00785e-05 1.09602e-07 0)
(5.00758e-05 1.29244e-07 0)
(5.0072e-05 1.50939e-07 0)
(5.0066e-05 1.7542e-07 0)
(5.00576e-05 2.02357e-07 0)
(5.0045e-05 2.32736e-07 0)
(5.00285e-05 2.6482e-07 0)
(5.00052e-05 2.99898e-07 0)
(4.99781e-05 3.29986e-07 0)
(5.00829e-05 8.5229e-09 0)
(5.01003e-05 1.67024e-08 0)
(5.01004e-05 2.74321e-08 0)
(5.01007e-05 3.86758e-08 0)
(5.01008e-05 5.04968e-08 0)
(5.01009e-05 6.3072e-08 0)
(5.01007e-05 7.65743e-08 0)
(5.01001e-05 9.12689e-08 0)
(5.00986e-05 1.07384e-07 0)
(5.00961e-05 1.25338e-07 0)
(5.00915e-05 1.45676e-07 0)
(5.00838e-05 1.68565e-07 0)
(5.00708e-05 1.94915e-07 0)
(5.00515e-05 2.24562e-07 0)
(5.00193e-05 2.57749e-07 0)
(4.99749e-05 2.88989e-07 0)
(5.01002e-05 7.14716e-09 0)
(5.0114e-05 1.27365e-08 0)
(5.01144e-05 2.08738e-08 0)
(5.0115e-05 2.93435e-08 0)
(5.01155e-05 3.81434e-08 0)
(5.01161e-05 4.73891e-08 0)
(5.01164e-05 5.71151e-08 0)
(5.01165e-05 6.74934e-08 0)
(5.01159e-05 7.84876e-08 0)
(5.01144e-05 9.05804e-08 0)
(5.0111e-05 1.03906e-07 0)
(5.01043e-05 1.18887e-07 0)
(5.00924e-05 1.36317e-07 0)
(5.00729e-05 1.56206e-07 0)
(5.00359e-05 1.77076e-07 0)
(4.99767e-05 2.00846e-07 0)
(5.01139e-05 5.45051e-09 0)
(5.01233e-05 8.31173e-09 0)
(5.01237e-05 1.35562e-08 0)
(5.01244e-05 1.89191e-08 0)
(5.0125e-05 2.43387e-08 0)
(5.01258e-05 2.98585e-08 0)
(5.01262e-05 3.53919e-08 0)
(5.01263e-05 4.10246e-08 0)
(5.01257e-05 4.66013e-08 0)
(5.01247e-05 5.22891e-08 0)
(5.0122e-05 5.70364e-08 0)
(5.01161e-05 6.10094e-08 0)
(5.01044e-05 6.36908e-08 0)
(5.00801e-05 6.29039e-08 0)
(5.00377e-05 5.59418e-08 0)
(4.99732e-05 5.31075e-08 0)
(5.01232e-05 3.5581e-09 0)
(5.01281e-05 3.88142e-09 0)
(5.01285e-05 6.23579e-09 0)
(5.01292e-05 8.50155e-09 0)
(5.01298e-05 1.06151e-08 0)
(5.01305e-05 1.256e-08 0)
(5.01309e-05 1.40718e-08 0)
(5.01309e-05 1.51832e-08 0)
(5.01303e-05 1.56252e-08 0)
(5.01277e-05 1.51125e-08 0)
(5.0122e-05 1.12001e-08 0)
(5.01116e-05 3.78979e-09 0)
(5.00932e-05 -9.78943e-09 0)
(5.00605e-05 -2.90876e-08 0)
(5.00186e-05 -4.89124e-08 0)
(4.99671e-05 -6.00766e-08 0)
(5.0128e-05 1.66224e-09 0)
(5.01284e-05 -2.53849e-10 0)
(5.01285e-05 -6.07069e-10 0)
(5.0129e-05 -1.26397e-09 0)
(5.01292e-05 -2.2677e-09 0)
(5.01293e-05 -3.69573e-09 0)
(5.01286e-05 -6.16006e-09 0)
(5.0127e-05 -9.86371e-09 0)
(5.01239e-05 -1.60696e-08 0)
(5.01168e-05 -2.50023e-08 0)
(5.01044e-05 -3.84546e-08 0)
(5.00852e-05 -5.565e-08 0)
(5.0059e-05 -7.85625e-08 0)
(5.00274e-05 -1.00119e-07 0)
(5.00032e-05 -1.16147e-07 0)
(4.99677e-05 -1.26065e-07 0)
(5.01283e-05 -1.09708e-10 0)
(5.01217e-05 -4.34968e-09 0)
(5.01212e-05 -7.39617e-09 0)
(5.01208e-05 -1.10289e-08 0)
(5.012e-05 -1.54734e-08 0)
(5.01185e-05 -2.0965e-08 0)
(5.01151e-05 -2.8224e-08 0)
(5.01092e-05 -3.72479e-08 0)
(5.01004e-05 -4.96845e-08 0)
(5.00872e-05 -6.56262e-08 0)
(5.00693e-05 -8.51199e-08 0)
(5.00469e-05 -1.04336e-07 0)
(5.00262e-05 -1.24451e-07 0)
(5.00098e-05 -1.36773e-07 0)
(4.99967e-05 -1.49335e-07 0)
(4.99705e-05 -1.60719e-07 0)
(5.01217e-05 -1.85996e-09 0)
(5.0106e-05 -8.73483e-09 0)
(5.01045e-05 -1.46391e-08 0)
(5.01026e-05 -2.13757e-08 0)
(5.00994e-05 -2.9493e-08 0)
(5.00948e-05 -3.94584e-08 0)
(5.00876e-05 -5.18138e-08 0)
(5.00774e-05 -6.53448e-08 0)
(5.00637e-05 -8.06915e-08 0)
(5.00474e-05 -9.71811e-08 0)
(5.0033e-05 -1.14647e-07 0)
(5.00203e-05 -1.28754e-07 0)
(5.00108e-05 -1.41047e-07 0)
(5.00019e-05 -1.51855e-07 0)
(4.99892e-05 -1.6597e-07 0)
(4.99719e-05 -1.77075e-07 0)
(5.01063e-05 -3.72969e-09 0)
(5.00788e-05 -1.37357e-08 0)
(5.0076e-05 -2.27726e-08 0)
(5.0072e-05 -3.25133e-08 0)
(5.00658e-05 -4.34113e-08 0)