/*--------------------------------*- C++ -*----------------------------------*\
| =========                 |                                                 |
| \\      /  F ield         | foam-extend: Open Source CFD                    |
|  \\    /   O peration     | Version:     4.1-20200408                       |
|   \\  /    A nd           | Web:         http://www.foam-extend.org         |
|    \\/     M anipulation  |                                                 |
\*---------------------------------------------------------------------------*/
FoamFile
{
    version     2.0;
    format      ascii;
    class       volVectorField;
    location    "0.0125000";
    object      U;
}
// * * * * * * * * * * * * * * * * * * * * * * * * * * * * * * * * * * * * * //

dimensions      [0 1 0 0 0 0 0];

internalField   nonuniform List<vector> 
1952
(
(0.0124729 -4.83437e-08 0)
(0.0124729 -7.90657e-08 0)
(0.0124729 -1.10111e-07 0)
(0.0124729 -1.42419e-07 0)
(0.012473 -1.74566e-07 0)
(0.012473 -2.08533e-07 0)
(0.0124731 -2.42093e-07 0)
(0.0124732 -2.77903e-07 0)
(0.0124733 -3.12684e-07 0)
(0.0124734 -3.49563e-07 0)
(0.0124735 -3.85437e-07 0)
(0.0124736 -4.22768e-07 0)
(0.0124737 -4.56279e-07 0)
(0.0124738 -4.93882e-07 0)
(0.0124739 -5.31829e-07 0)
(0.0124728 -2.07254e-08 0)
(0.0124727 -5.31037e-08 0)
(0.0124727 -8.67585e-08 0)
(0.0124728 -1.20962e-07 0)
(0.0124728 -1.56287e-07 0)
(0.0124729 -1.91727e-07 0)
(0.0124729 -2.28806e-07 0)
(0.012473 -2.65811e-07 0)
(0.0124731 -3.04982e-07 0)
(0.0124731 -3.43457e-07 0)
(0.0124732 -3.84027e-07 0)
(0.0124733 -4.23822e-07 0)
(0.0124734 -4.65123e-07 0)
(0.0124735 -5.02582e-07 0)
(0.0124736 -5.43052e-07 0)
(0.0124738 -5.83582e-07 0)
(0.0124727 -2.2756e-08 0)
(0.0124726 -5.73184e-08 0)
(0.0124726 -9.3607e-08 0)
(0.0124726 -1.30531e-07 0)
(0.0124727 -1.6855e-07 0)
(0.0124727 -2.06752e-07 0)
(0.0124728 -2.46564e-07 0)
(0.0124728 -2.86347e-07 0)
(0.0124729 -3.28324e-07 0)
(0.012473 -3.69566e-07 0)
(0.0124731 -4.12923e-07 0)
(0.0124732 -4.55259e-07 0)
(0.0124733 -4.98955e-07 0)
(0.0124734 -5.38063e-07 0)
(0.0124735 -5.79035e-07 0)
(0.0124736 -6.18844e-07 0)
(0.0124726 -2.45592e-08 0)
(0.0124724 -6.09067e-08 0)
(0.0124725 -9.94541e-08 0)
(0.0124725 -1.38659e-07 0)
(0.0124725 -1.78966e-07 0)
(0.0124726 -2.19421e-07 0)
(0.0124726 -2.61491e-07 0)
(0.0124727 -3.03435e-07 0)
(0.0124728 -3.47539e-07 0)
(0.0124729 -3.90688e-07 0)
(0.0124729 -4.35979e-07 0)
(0.012473 -4.7977e-07 0)
(0.0124732 -5.24739e-07 0)
(0.0124733 -5.64308e-07 0)
(0.0124734 -6.04908e-07 0)
(0.0124735 -6.43784e-07 0)
(0.0124724 -2.6097e-08 0)
(0.0124723 -6.38909e-08 0)
(0.0124723 -1.04314e-07 0)
(0.0124724 -1.45382e-07 0)
(0.0124724 -1.87556e-07 0)
(0.0124724 -2.2979e-07 0)
(0.0124725 -2.73644e-07 0)
(0.0124726 -3.1718e-07 0)
(0.0124726 -3.62846e-07 0)
(0.0124727 -4.07225e-07 0)
(0.0124728 -4.53782e-07 0)
(0.0124729 -4.98274e-07 0)
(0.012473 -5.43844e-07 0)
(0.0124731 -5.83297e-07 0)
(0.0124733 -6.2324e-07 0)
(0.0124734 -6.61535e-07 0)
(0.0124723 -2.7377e-08 0)
(0.0124722 -6.62892e-08 0)
(0.0124722 -1.0821e-07 0)
(0.0124722 -1.50749e-07 0)
(0.0124723 -1.94385e-07 0)
(0.0124723 -2.37958e-07 0)
(0.0124724 -2.83162e-07 0)
(0.0124724 -3.27785e-07 0)
(0.0124725 -3.74576e-07 0)
(0.0124726 -4.19699e-07 0)
(0.0124727 -4.67e-07 0)
(0.0124728 -5.11742e-07 0)
(0.0124729 -5.57542e-07 0)
(0.012473 -5.96653e-07 0)
(0.0124731 -6.35937e-07 0)
(0.0124733 -6.73859e-07 0)
(0.0124722 -2.84062e-08 0)
(0.012472 -6.81451e-08 0)
(0.0124721 -1.11216e-07 0)
(0.0124721 -1.54869e-07 0)
(0.0124721 -1.99596e-07 0)
(0.0124722 -2.44142e-07 0)
(0.0124722 -2.90298e-07 0)
(0.0124723 -3.35646e-07 0)
(0.0124724 -3.83162e-07 0)
(0.0124724 -4.28682e-07 0)
(0.0124725 -4.76416e-07 0)
(0.0124726 -5.21102e-07 0)
(0.0124727 -5.66955e-07 0)
(0.0124729 -6.05643e-07 0)
(0.012473 -6.44328e-07 0)
(0.0124731 -6.82064e-07 0)
(0.012472 -2.92031e-08 0)
(0.0124719 -6.95086e-08 0)
(0.0124719 -1.13421e-07 0)
(0.0124719 -1.57873e-07 0)
(0.012472 -2.03373e-07 0)
(0.012472 -2.48576e-07 0)
(0.0124721 -2.95371e-07 0)
(0.0124721 -3.41153e-07 0)
(0.0124722 -3.89104e-07 0)
(0.0124723 -4.34775e-07 0)
(0.0124724 -4.82742e-07 0)
(0.0124725 -5.27205e-07 0)
(0.0124726 -5.7303e-07 0)
(0.0124727 -6.11296e-07 0)
(0.0124729 -6.49464e-07 0)
(0.012473 -6.87109e-07 0)
(0.0124719 -2.97891e-08 0)
(0.0124717 -7.04428e-08 0)
(0.0124718 -1.14923e-07 0)
(0.0124718 -1.59911e-07 0)
(0.0124718 -2.05903e-07 0)
(0.0124719 -2.51523e-07 0)
(0.0124719 -2.98679e-07 0)
(0.012472 -3.447e-07 0)
(0.0124721 -3.92835e-07 0)
(0.0124722 -4.38545e-07 0)
(0.0124723 -4.86541e-07 0)
(0.0124724 -5.30798e-07 0)
(0.0124725 -5.7657e-07 0)
(0.0124726 -6.14442e-07 0)
(0.0124727 -6.52143e-07 0)
(0.0124729 -6.89775e-07 0)
(0.0124717 -3.0191e-08 0)
(0.0124716 -7.10078e-08 0)
(0.0124716 -1.1583e-07 0)
(0.0124717 -1.61135e-07 0)
(0.0124717 -2.07405e-07 0)
(0.0124717 -2.53242e-07 0)
(0.0124718 -3.0056e-07 0)
(0.0124719 -3.46658e-07 0)
(0.012472 -3.94814e-07 0)
(0.012472 -4.40461e-07 0)
(0.0124721 -4.884e-07 0)
(0.0124722 -5.3244e-07 0)
(0.0124724 -5.78175e-07 0)
(0.0124725 -6.15681e-07 0)
(0.0124726 -6.52969e-07 0)
(0.0124728 -6.90619e-07 0)
(0.0124716 -3.04339e-08 0)
(0.0124715 -7.12191e-08 0)
(0.0124715 -1.16192e-07 0)
(0.0124715 -1.61667e-07 0)
(0.0124716 -2.08032e-07 0)
(0.0124716 -2.53959e-07 0)
(0.0124717 -3.01259e-07 0)
(0.0124717 -3.47359e-07 0)
(0.0124718 -3.95355e-07 0)
(0.0124719 -4.40956e-07 0)
(0.012472 -4.8863e-07 0)
(0.0124721 -5.32632e-07 0)
(0.0124722 -5.78038e-07 0)
(0.0124724 -6.15706e-07 0)
(0.0124725 -6.52792e-07 0)
(0.0124726 -6.90347e-07 0)
(0.0124715 -3.05242e-08 0)
(0.0124713 -7.11927e-08 0)
(0.0124714 -1.16149e-07 0)
(0.0124714 -1.61648e-07 0)
(0.0124714 -2.07989e-07 0)
(0.0124715 -2.53886e-07 0)
(0.0124715 -3.0105e-07 0)
(0.0124716 -3.47071e-07 0)
(0.0124717 -3.94806e-07 0)
(0.0124718 -4.40338e-07 0)
(0.0124719 -4.87707e-07 0)
(0.012472 -5.31728e-07 0)
(0.0124721 -5.76764e-07 0)
(0.0124722 -6.14779e-07 0)
(0.0124724 -6.51735e-07 0)
(0.0124725 -6.89143e-07 0)
(0.0124713 -3.05125e-08 0)
(0.0124712 -7.10041e-08 0)
(0.0124712 -1.15811e-07 0)
(0.0124713 -1.61203e-07 0)
(0.0124713 -2.07414e-07 0)
(0.0124713 -2.53204e-07 0)
(0.0124714 -3.00137e-07 0)
(0.0124715 -3.46047e-07 0)
(0.0124716 -3.93456e-07 0)
(0.0124716 -4.38941e-07 0)
(0.0124717 -4.85984e-07 0)
(0.0124719 -5.30095e-07 0)
(0.012472 -5.74839e-07 0)
(0.0124721 -6.13125e-07 0)
(0.0124722 -6.49902e-07 0)
(0.0124724 -6.87189e-07 0)
(0.0124712 -3.04314e-08 0)
(0.0124711 -7.06893e-08 0)
(0.0124711 -1.15284e-07 0)
(0.0124711 -1.60447e-07 0)
(0.0124712 -2.0643e-07 0)
(0.0124712 -2.52082e-07 0)
(0.0124713 -2.98736e-07 0)
(0.0124713 -3.44511e-07 0)
(0.0124714 -3.91615e-07 0)
(0.0124715 -4.37022e-07 0)
(0.0124716 -4.83693e-07 0)
(0.0124717 -5.27918e-07 0)
(0.0124718 -5.72386e-07 0)
(0.012472 -6.10888e-07 0)
(0.0124721 -6.47475e-07 0)
(0.0124723 -6.84643e-07 0)
(0.0124711 -3.02966e-08 0)
(0.0124709 -7.02972e-08 0)
(0.012471 -1.14616e-07 0)
(0.012471 -1.59476e-07 0)
(0.012471 -2.05157e-07 0)
(0.0124711 -2.50639e-07 0)
(0.0124711 -2.96967e-07 0)
(0.0124712 -3.42601e-07 0)
(0.0124713 -3.89385e-07 0)
(0.0124714 -4.34699e-07 0)
(0.0124715 -4.81041e-07 0)
(0.0124716 -5.25362e-07 0)
(0.0124717 -5.69587e-07 0)
(0.0124718 -6.08243e-07 0)
(0.012472 -6.44624e-07 0)
(0.0124721 -6.81667e-07 0)
(0.0124709 -3.01269e-08 0)
(0.0124708 -6.98047e-08 0)
(0.0124708 -1.13793e-07 0)
(0.0124709 -1.58366e-07 0)
(0.0124709 -2.037e-07 0)
(0.012471 -2.48961e-07 0)
(0.012471 -2.94947e-07 0)
(0.0124711 -3.40432e-07 0)
(0.0124712 -3.86847e-07 0)
(0.0124713 -4.32096e-07 0)
(0.0124714 -4.7817e-07 0)
(0.0124715 -5.22576e-07 0)
(0.0124716 -5.66587e-07 0)
(0.0124717 -6.05403e-07 0)
(0.0124719 -6.41562e-07 0)
(0.012472 -6.7845e-07 0)
(0.0124708 -2.9915e-08 0)
(0.0124707 -6.92432e-08 0)
(0.0124707 -1.12878e-07 0)
(0.0124707 -1.57178e-07 0)
(0.0124708 -2.02116e-07 0)
(0.0124708 -2.47132e-07 0)
(0.0124709 -2.92806e-07 0)
(0.012471 -3.38127e-07 0)
(0.012471 -3.84204e-07 0)
(0.0124711 -4.29389e-07 0)
(0.0124712 -4.75195e-07 0)
(0.0124713 -5.1964e-07 0)
(0.0124715 -5.63457e-07 0)
(0.0124716 -6.02404e-07 0)
(0.0124717 -6.3833e-07 0)
(0.0124719 -6.75043e-07 0)
(0.0124707 -2.96745e-08 0)
(0.0124706 -6.8685e-08 0)
(0.0124706 -1.11953e-07 0)
(0.0124706 -1.55935e-07 0)
(0.0124707 -2.00474e-07 0)
(0.0124707 -2.45237e-07 0)
(0.0124708 -2.90609e-07 0)
(0.0124708 -3.35757e-07 0)
(0.0124709 -3.81536e-07 0)
(0.012471 -4.26638e-07 0)
(0.0124711 -4.72156e-07 0)
(0.0124712 -5.16616e-07 0)
(0.0124713 -5.6023e-07 0)
(0.0124715 -5.99261e-07 0)
(0.0124716 -6.34948e-07 0)
(0.0124718 -6.71477e-07 0)
(0.0124705 -2.9434e-08 0)
(0.0124704 -6.8123e-08 0)
(0.0124705 -1.11019e-07 0)
(0.0124705 -1.54639e-07 0)
(0.0124705 -1.98805e-07 0)
(0.0124706 -2.43316e-07 0)
(0.0124706 -2.88351e-07 0)
(0.0124707 -3.33335e-07 0)
(0.0124708 -3.78791e-07 0)
(0.0124709 -4.23813e-07 0)
(0.012471 -4.69079e-07 0)
(0.0124711 -5.13548e-07 0)
(0.0124712 -5.56973e-07 0)
(0.0124714 -5.96084e-07 0)
(0.0124715 -6.3153e-07 0)
(0.0124716 -6.67855e-07 0)
(0.0124704 -2.91911e-08 0)
(0.0124703 -6.75337e-08 0)
(0.0124703 -1.1006e-07 0)
(0.0124704 -1.5334e-07 0)
(0.0124704 -1.97134e-07 0)
(0.0124705 -2.41382e-07 0)
(0.0124705 -2.86068e-07 0)
(0.0124706 -3.30905e-07 0)
(0.0124707 -3.7604e-07 0)
(0.0124708 -4.2099e-07 0)
(0.0124709 -4.66006e-07 0)
(0.012471 -5.10479e-07 0)
(0.0124711 -5.53721e-07 0)
(0.0124712 -5.92899e-07 0)
(0.0124714 -6.28089e-07 0)
(0.0124715 -6.64198e-07 0)
(0.0124703 -2.89378e-08 0)
(0.0124702 -6.69493e-08 0)
(0.0124702 -1.0911e-07 0)
(0.0124702 -1.52053e-07 0)
(0.0124703 -1.95486e-07 0)
(0.0124703 -2.3943e-07 0)
(0.0124704 -2.8375e-07 0)
(0.0124705 -3.28462e-07 0)
(0.0124706 -3.73264e-07 0)
(0.0124706 -4.1815e-07 0)
(0.0124707 -4.6294e-07 0)
(0.0124709 -5.07424e-07 0)
(0.012471 -5.50495e-07 0)
(0.0124711 -5.89746e-07 0)
(0.0124712 -6.24673e-07 0)
(0.0124714 -6.60551e-07 0)
(0.0124702 -2.86862e-08 0)
(0.0124701 -6.63482e-08 0)
(0.0124701 -1.08138e-07 0)
(0.0124701 -1.50756e-07 0)
(0.0124702 -1.93815e-07 0)
(0.0124702 -2.37477e-07 0)
(0.0124703 -2.81427e-07 0)
(0.0124704 -3.26032e-07 0)
(0.0124704 -3.70492e-07 0)
(0.0124705 -4.15338e-07 0)
(0.0124706 -4.59878e-07 0)
(0.0124707 -5.04405e-07 0)
(0.0124709 -5.47302e-07 0)
(0.012471 -5.8664e-07 0)
(0.0124711 -6.21288e-07 0)
(0.0124713 -6.56933e-07 0)
(0.0124701 -2.8428e-08 0)
(0.01247 -6.57475e-08 0)
(0.01247 -1.07157e-07 0)
(0.01247 -1.4945e-07 0)
(0.01247 -1.92109e-07 0)
(0.0124701 -2.35525e-07 0)
(0.0124702 -2.79133e-07 0)
(0.0124702 -3.23601e-07 0)
(0.0124703 -3.67758e-07 0)
(0.0124704 -4.12548e-07 0)
(0.0124705 -4.5682e-07 0)
(0.0124706 -5.01386e-07 0)
(0.0124707 -5.44098e-07 0)
(0.0124709 -5.8351e-07 0)
(0.012471 -6.17883e-07 0)
(0.0124712 -6.53294e-07 0)
(0.0124699 -2.81695e-08 0)
(0.0124698 -6.5152e-08 0)
(0.0124699 -1.06169e-07 0)
(0.0124699 -1.48114e-07 0)
(0.0124699 -1.90361e-07 0)
(0.01247 -2.33521e-07 0)
(0.01247 -2.76766e-07 0)
(0.0124701 -3.21111e-07 0)
(0.0124702 -3.6492e-07 0)
(0.0124703 -4.09702e-07 0)
(0.0124704 -4.53678e-07 0)
(0.0124705 -4.98376e-07 0)
(0.0124706 -5.40797e-07 0)
(0.0124708 -5.8045e-07 0)
(0.0124709 -6.14626e-07 0)
(0.0124711 -6.49753e-07 0)
(0.0124698 -2.79125e-08 0)
(0.0124697 -6.45176e-08 0)
(0.0124697 -1.05136e-07 0)
(0.0124698 -1.4675e-07 0)
(0.0124698 -1.88586e-07 0)
(0.0124699 -2.31494e-07 0)
(0.0124699 -2.74366e-07 0)
(0.01247 -3.18587e-07 0)
(0.0124701 -3.62048e-07 0)
(0.0124702 -4.06822e-07 0)
(0.0124703 -4.505e-07 0)
(0.0124704 -4.95353e-07 0)
(0.0124705 -5.37464e-07 0)
(0.0124706 -5.77405e-07 0)
(0.0124708 -6.11383e-07 0)
(0.0124709 -6.46226e-07 0)
(0.0124697 -2.76398e-08 0)
(0.0124696 -6.38578e-08 0)
(0.0124696 -1.04068e-07 0)
(0.0124697 -1.45345e-07 0)
(0.0124697 -1.8676e-07 0)
(0.0124698 -2.29414e-07 0)
(0.0124698 -2.71874e-07 0)
(0.0124699 -3.15954e-07 0)
(0.01247 -3.5909e-07 0)
(0.0124701 -4.03858e-07 0)
(0.0124702 -4.47265e-07 0)
(0.0124703 -4.92269e-07 0)
(0.0124704 -5.34159e-07 0)
(0.0124705 -5.74304e-07 0)
(0.0124707 -6.08025e-07 0)
(0.0124708 -6.42636e-07 0)
(0.0124696 -2.73564e-08 0)
(0.0124695 -6.31831e-08 0)
(0.0124695 -1.02973e-07 0)
(0.0124695 -1.43892e-07 0)
(0.0124696 -1.8488e-07 0)
(0.0124696 -2.27268e-07 0)
(0.0124697 -2.69293e-07 0)
(0.0124698 -3.13214e-07 0)
(0.0124699 -3.56054e-07 0)
(0.0124699 -4.00808e-07 0)
(0.01247 -4.43928e-07 0)
(0.0124702 -4.89096e-07 0)
(0.0124703 -5.30762e-07 0)
(0.0124704 -5.71141e-07 0)
(0.0124705 -6.04608e-07 0)
(0.0124707 -6.39004e-07 0)
(0.0124695 -2.70663e-08 0)
(0.0124694 -6.24898e-08 0)
(0.0124694 -1.01837e-07 0)
(0.0124694 -1.42364e-07 0)
(0.0124695 -1.82915e-07 0)
(0.0124695 -2.25e-07 0)
(0.0124696 -2.66605e-07 0)
(0.0124697 -3.10356e-07 0)
(0.0124697 -3.52872e-07 0)
(0.0124698 -3.97604e-07 0)
(0.0124699 -4.40433e-07 0)
(0.01247 -4.8577e-07 0)
(0.0124702 -5.27181e-07 0)
(0.0124703 -5.67873e-07 0)
(0.0124704 -6.01127e-07 0)
(0.0124706 -6.35309e-07 0)
(0.0124694 -2.67681e-08 0)
(0.0124693 -6.17451e-08 0)
(0.0124693 -1.00628e-07 0)
(0.0124693 -1.40729e-07 0)
(0.0124694 -1.80827e-07 0)
(0.0124694 -2.22572e-07 0)
(0.0124695 -2.6376e-07 0)
(0.0124696 -3.07344e-07 0)
(0.0124696 -3.49492e-07 0)
(0.0124697 -3.94226e-07 0)
(0.0124698 -4.36781e-07 0)
(0.0124699 -4.82273e-07 0)
(0.01247 -5.23502e-07 0)
(0.0124702 -5.64484e-07 0)
(0.0124703 -5.97535e-07 0)
(0.0124705 -6.31523e-07 0)
(0.0124693 -2.64462e-08 0)
(0.0124692 -6.09393e-08 0)
(0.0124692 -9.93443e-08 0)
(0.0124692 -1.38993e-07 0)
(0.0124693 -1.78626e-07 0)
(0.0124693 -2.20013e-07 0)
(0.0124694 -2.60785e-07 0)
(0.0124694 -3.04193e-07 0)
(0.0124695 -3.46002e-07 0)
(0.0124696 -3.90732e-07 0)
(0.0124697 -4.32959e-07 0)
(0.0124698 -4.78587e-07 0)
(0.0124699 -5.19655e-07 0)
(0.0124701 -5.60921e-07 0)
(0.0124702 -5.93785e-07 0)
(0.0124704 -6.27612e-07 0)
(0.0124692 -2.60955e-08 0)
(0.0124691 -6.01036e-08 0)
(0.0124691 -9.79832e-08 0)
(0.0124691 -1.3715e-07 0)
(0.0124692 -1.76282e-07 0)
(0.0124692 -2.1729e-07 0)
(0.0124693 -2.5762e-07 0)
(0.0124693 -3.00834e-07 0)
(0.0124694 -3.42306e-07 0)
(0.0124695 -3.8701e-07 0)
(0.0124696 -4.28942e-07 0)
(0.0124697 -4.74737e-07 0)
(0.0124698 -5.15598e-07 0)
(0.01247 -5.57152e-07 0)
(0.0124701 -5.89879e-07 0)
(0.0124703 -6.23567e-07 0)
(0.0124691 -2.5736e-08 0)
(0.012469 -5.92286e-08 0)
(0.012469 -9.65515e-08 0)
(0.012469 -1.35211e-07 0)
(0.0124691 -1.73815e-07 0)
(0.0124691 -2.14415e-07 0)
(0.0124692 -2.54282e-07 0)
(0.0124692 -2.97268e-07 0)
(0.0124693 -3.38392e-07 0)
(0.0124694 -3.8304e-07 0)
(0.0124695 -4.24723e-07 0)
(0.0124696 -4.7069e-07 0)
(0.0124697 -5.11353e-07 0)
(0.0124699 -5.53216e-07 0)
(0.01247 -5.85828e-07 0)
(0.0124701 -6.19416e-07 0)
(0.012469 -2.53608e-08 0)
(0.0124689 -5.83052e-08 0)
(0.0124689 -9.50509e-08 0)
(0.0124689 -1.33182e-07 0)
(0.012469 -1.71237e-07 0)
(0.012469 -2.11405e-07 0)
(0.0124691 -2.50788e-07 0)
(0.0124691 -2.93502e-07 0)
(0.0124692 -3.34256e-07 0)
(0.0124693 -3.78837e-07 0)
(0.0124694 -4.20257e-07 0)
(0.0124695 -4.66378e-07 0)
(0.0124696 -5.06894e-07 0)
(0.0124697 -5.49119e-07 0)
(0.0124699 -5.81627e-07 0)
(0.01247 -6.15167e-07 0)
(0.0124689 -2.49636e-08 0)
(0.0124688 -5.73476e-08 0)
(0.0124688 -9.34954e-08 0)
(0.0124688 -1.31081e-07 0)
(0.0124689 -1.6857e-07 0)
(0.0124689 -2.08281e-07 0)
(0.012469 -2.47172e-07 0)
(0.012469 -2.89552e-07 0)
(0.0124691 -3.29902e-07 0)
(0.0124692 -3.7443e-07 0)
(0.0124693 -4.15575e-07 0)
(0.0124694 -4.61864e-07 0)
(0.0124695 -5.0224e-07 0)
(0.0124696 -5.44863e-07 0)
(0.0124698 -5.77293e-07 0)
(0.0124699 -6.10846e-07 0)
(0.0124688 -2.45517e-08 0)
(0.0124687 -5.63728e-08 0)
(0.0124687 -9.19114e-08 0)
(0.0124687 -1.28937e-07 0)
(0.0124688 -1.65845e-07 0)
(0.0124688 -2.05081e-07 0)
(0.0124689 -2.43461e-07 0)
(0.0124689 -2.85481e-07 0)
(0.012469 -3.254e-07 0)
(0.0124691 -3.6987e-07 0)
(0.0124692 -4.10723e-07 0)
(0.0124693 -4.57199e-07 0)
(0.0124694 -4.97434e-07 0)
(0.0124695 -5.40492e-07 0)
(0.0124697 -5.72878e-07 0)
(0.0124698 -6.06506e-07 0)
(0.0124687 -2.41323e-08 0)
(0.0124686 -5.54021e-08 0)
(0.0124686 -9.03321e-08 0)
(0.0124686 -1.2679e-07 0)
(0.0124687 -1.63104e-07 0)
(0.0124687 -2.01861e-07 0)
(0.0124688 -2.3969e-07 0)
(0.0124688 -2.81372e-07 0)
(0.0124689 -3.20855e-07 0)
(0.012469 -3.65233e-07 0)
(0.0124691 -4.05791e-07 0)
(0.0124692 -4.52452e-07 0)
(0.0124693 -4.92565e-07 0)
(0.0124694 -5.36092e-07 0)
(0.0124695 -5.68469e-07 0)
(0.0124697 -6.02246e-07 0)
(0.0124686 -2.37149e-08 0)
(0.0124685 -5.44709e-08 0)
(0.0124685 -8.88132e-08 0)
(0.0124685 -1.24715e-07 0)
(0.0124686 -1.60445e-07 0)
(0.0124686 -1.98719e-07 0)
(0.0124687 -2.35998e-07 0)
(0.0124687 -2.77336e-07 0)
(0.0124688 -3.16382e-07 0)
(0.0124689 -3.60651e-07 0)
(0.012469 -4.00907e-07 0)
(0.0124691 -4.47761e-07 0)
(0.0124692 -4.87743e-07 0)
(0.0124693 -5.31779e-07 0)
(0.0124694 -5.64176e-07 0)
(0.0124696 -5.98178e-07 0)
(0.0124685 -2.33146e-08 0)
(0.0124684 -5.3625e-08 0)
(0.0124684 -8.74277e-08 0)
(0.0124684 -1.22814e-07 0)
(0.0124685 -1.57995e-07 0)
(0.0124685 -1.95805e-07 0)
(0.0124686 -2.32556e-07 0)
(0.0124686 -2.73545e-07 0)
(0.0124687 -3.12152e-07 0)
(0.0124688 -3.56305e-07 0)
(0.0124689 -3.9625e-07 0)
(0.012469 -4.43299e-07 0)
(0.0124691 -4.83151e-07 0)
(0.0124692 -5.27735e-07 0)
(0.0124693 -5.6019e-07 0)
(0.0124695 -5.94503e-07 0)
(0.0124684 -2.29509e-08 0)
(0.0124683 -5.29305e-08 0)
(0.0124683 -8.62826e-08 0)
(0.0124684 -1.21228e-07 0)
(0.0124684 -1.55935e-07 0)
(0.0124684 -1.93323e-07 0)
(0.0124685 -2.29594e-07 0)
(0.0124685 -2.7025e-07 0)
(0.0124686 -3.0843e-07 0)
(0.0124687 -3.52462e-07 0)
(0.0124688 -3.92083e-07 0)
(0.0124689 -4.39333e-07 0)
(0.012469 -4.79033e-07 0)
(0.0124691 -5.24211e-07 0)
(0.0124692 -5.56728e-07 0)
(0.0124694 -5.9144e-07 0)
(0.0124683 -2.26524e-08 0)
(0.0124682 -5.24764e-08 0)
(0.0124683 -8.55209e-08 0)
(0.0124683 -1.20151e-07 0)
(0.0124683 -1.54503e-07 0)
(0.0124683 -1.91549e-07 0)
(0.0124684 -2.27421e-07 0)
(0.0124684 -2.67773e-07 0)
(0.0124685 -3.05556e-07 0)
(0.0124686 -3.49466e-07 0)
(0.0124687 -3.88755e-07 0)
(0.0124688 -4.36197e-07 0)
(0.0124689 -4.75731e-07 0)
(0.012469 -5.21532e-07 0)
(0.0124691 -5.54133e-07 0)
(0.0124693 -5.89342e-07 0)
(0.0124682 -2.24572e-08 0)
(0.0124682 -5.23723e-08 0)
(0.0124682 -8.53197e-08 0)
(0.0124682 -1.1982e-07 0)
(0.0124682 -1.53998e-07 0)
(0.0124683 -1.90829e-07 0)
(0.0124683 -2.2643e-07 0)
(0.0124684 -2.66536e-07 0)
(0.0124684 -3.03992e-07 0)
(0.0124685 -3.47781e-07 0)
(0.0124686 -3.86749e-07 0)
(0.0124687 -4.3437e-07 0)
(0.0124688 -4.73709e-07 0)
(0.0124689 -5.20167e-07 0)
(0.012469 -5.52807e-07 0)
(0.0124691 -5.886e-07 0)
(0.0124681 -2.24125e-08 0)
(0.0124681 -5.276e-08 0)
(0.0124681 -8.59079e-08 0)
(0.0124681 -1.20549e-07 0)
(0.0124681 -1.5481e-07 0)
(0.0124682 -1.91624e-07 0)
(0.0124682 -2.27138e-07 0)
(0.0124683 -2.67101e-07 0)
(0.0124683 -3.0433e-07 0)
(0.0124684 -3.48012e-07 0)
(0.0124685 -3.86673e-07 0)
(0.0124686 -4.34442e-07 0)
(0.0124686 -4.73549e-07 0)
(0.0124688 -5.20666e-07 0)
(0.0124689 -5.53335e-07 0)
(0.012469 -5.89805e-07 0)
(0.0124681 -2.25792e-08 0)
(0.012468 -5.37921e-08 0)
(0.012468 -8.75383e-08 0)
(0.012468 -1.22688e-07 0)
(0.0124681 -1.57389e-07 0)
(0.0124681 -1.94466e-07 0)
(0.0124681 -2.30166e-07 0)
(0.0124682 -2.70131e-07 0)
(0.0124682 -3.07312e-07 0)
(0.0124683 -3.50889e-07 0)
(0.0124684 -3.8934e-07 0)
(0.0124685 -4.37169e-07 0)
(0.0124685 -4.761e-07 0)
(0.0124687 -5.2384e-07 0)
(0.0124688 -5.565e-07 0)
(0.0124689 -5.93689e-07 0)
(0.012468 -2.30229e-08 0)
(0.0124679 -5.56795e-08 0)
(0.0124679 -9.05519e-08 0)
(0.012468 -1.26708e-07 0)
(0.012468 -1.62324e-07 0)
(0.012468 -2.00064e-07 0)
(0.0124681 -2.36319e-07 0)
(0.0124681 -2.76533e-07 0)
(0.0124682 -3.13875e-07 0)
(0.0124682 -3.57419e-07 0)
(0.0124683 -3.95754e-07 0)
(0.0124684 -4.43583e-07 0)
(0.0124684 -4.82317e-07 0)
(0.0124685 -5.30606e-07 0)
(0.0124687 -5.63188e-07 0)
(0.0124688 -6.01167e-07 0)
(0.0124679 -2.3834e-08 0)
(0.0124679 -5.86346e-08 0)
(0.0124679 -9.53037e-08 0)
(0.0124679 -1.33113e-07 0)
(0.0124679 -1.7027e-07 0)
(0.0124679 -2.09196e-07 0)
(0.012468 -2.46526e-07 0)
(0.012468 -2.87323e-07 0)
(0.0124681 -3.25157e-07 0)
(0.0124681 -3.68694e-07 0)
(0.0124682 -4.07183e-07 0)
(0.0124683 -4.54738e-07 0)
(0.0124683 -4.93514e-07 0)
(0.0124684 -5.41817e-07 0)
(0.0124685 -5.75163e-07 0)
(0.0124687 -6.14191e-07 0)
(0.0124679 -2.51039e-08 0)
(0.0124678 -6.29359e-08 0)
(0.0124678 -1.0223e-07 0)
(0.0124678 -1.42505e-07 0)
(0.0124678 -1.81983e-07 0)
(0.0124679 -2.22788e-07 0)
(0.0124679 -2.61849e-07 0)
(0.0124679 -3.03728e-07 0)
(0.012468 -3.42516e-07 0)
(0.012468 -3.86284e-07 0)
(0.0124681 -4.25201e-07 0)
(0.0124682 -4.72433e-07 0)
(0.0124682 -5.11361e-07 0)
(0.0124683 -5.59457e-07 0)
(0.0124684 -5.93684e-07 0)
(0.0124685 -6.33771e-07 0)
(0.0124678 -2.69516e-08 0)
(0.0124677 -6.89026e-08 0)
(0.0124677 -1.11826e-07 0)
(0.0124677 -1.55542e-07 0)
(0.0124678 -1.98342e-07 0)
(0.0124678 -2.41888e-07 0)
(0.0124678 -2.83569e-07 0)
(0.0124679 -3.27188e-07 0)
(0.0124679 -3.67662e-07 0)
(0.012468 -4.12072e-07 0)
(0.012468 -4.51752e-07 0)
(0.0124681 -4.98751e-07 0)
(0.0124681 -5.379e-07 0)
(0.0124682 -5.85667e-07 0)
(0.0124683 -6.20368e-07 0)
(0.0124684 -6.61356e-07 0)
(0.0124677 -2.95128e-08 0)
(0.0124676 -7.67832e-08 0)
(0.0124676 -1.24529e-07 0)
(0.0124677 -1.72865e-07 0)
(0.0124677 -2.2017e-07 0)
(0.0124677 -2.67579e-07 0)
(0.0124677 -3.12958e-07 0)
(0.0124678 -3.59295e-07 0)
(0.0124678 -4.02349e-07 0)
(0.0124679 -4.48084e-07 0)
(0.0124679 -4.89131e-07 0)
(0.012468 -5.36144e-07 0)
(0.012468 -5.7566e-07 0)
(0.0124681 -6.22906e-07 0)
(0.0124682 -6.57727e-07 0)
(0.0124683 -6.99394e-07 0)
(0.0124676 -3.28954e-08 0)
(0.0124676 -8.68486e-08 0)
(0.0124676 -1.40819e-07 0)
(0.0124676 -1.95164e-07 0)
(0.0124676 -2.48363e-07 0)
(0.0124676 -3.01023e-07 0)
(0.0124677 -3.51456e-07 0)
(0.0124677 -4.01797e-07 0)
(0.0124677 -4.48653e-07 0)
(0.0124678 -4.96739e-07 0)
(0.0124678 -5.4007e-07 0)
(0.0124679 -5.87626e-07 0)
(0.0124679 -6.27774e-07 0)
(0.012468 -6.7443e-07 0)
(0.0124681 -7.08932e-07 0)
(0.0124681 -7.5084e-07 0)
(0.0124675 -3.72163e-08 0)
(0.0124675 -9.9326e-08 0)
(0.0124675 -1.61064e-07 0)
(0.0124675 -2.22968e-07 0)
(0.0124675 -2.83654e-07 0)
(0.0124675 -3.43223e-07 0)
(0.0124676 -4.00357e-07 0)
(0.0124676 -4.56345e-07 0)
(0.0124677 -5.08646e-07 0)
(0.0124677 -5.60553e-07 0)
(0.0124677 -6.0754e-07 0)
(0.0124678 -6.56612e-07 0)
(0.0124678 -6.98123e-07 0)
(0.0124679 -7.44388e-07 0)
(0.0124679 -7.78417e-07 0)
(0.012468 -8.19967e-07 0)
(0.0124675 -4.25713e-08 0)
(0.0124674 -1.14366e-07 0)
(0.0124674 -1.85513e-07 0)
(0.0124674 -2.56687e-07 0)
(0.0124674 -3.26637e-07 0)
(0.0124675 -3.94992e-07 0)
(0.0124675 -4.60753e-07 0)
(0.0124675 -5.24409e-07 0)
(0.0124676 -5.84203e-07 0)
(0.0124676 -6.41985e-07 0)
(0.0124676 -6.94629e-07 0)
(0.0124677 -7.47009e-07 0)
(0.0124677 -7.91486e-07 0)
(0.0124678 -8.38358e-07 0)
(0.0124678 -8.72589e-07 0)
(0.0124678 -9.13612e-07 0)
(0.0124674 -4.9024e-08 0)
(0.0124673 -1.31989e-07 0)
(0.0124673 -2.14204e-07 0)
(0.0124673 -2.96453e-07 0)
(0.0124673 -3.77546e-07 0)
(0.0124673 -4.56693e-07 0)
(0.0124674 -5.33267e-07 0)
(0.0124674 -6.06921e-07 0)
(0.0124675 -6.76707e-07 0)
(0.0124675 -7.43007e-07 0)
(0.0124675 -8.04065e-07 0)
(0.0124676 -8.62527e-07 0)
(0.0124676 -9.12837e-07 0)
(0.0124676 -9.62717e-07 0)
(0.0124677 -9.99663e-07 0)
(0.0124677 -1.04178e-06 0)
(0.0124672 -5.65811e-08 0)
(0.0124671 -1.52051e-07 0)
(0.0124671 -2.46928e-07 0)
(0.0124672 -3.41983e-07 0)
(0.0124672 -4.36079e-07 0)
(0.0124672 -5.28088e-07 0)
(0.0124673 -6.17762e-07 0)
(0.0124673 -7.03984e-07 0)
(0.0124674 -7.86599e-07 0)
(0.0124674 -8.64573e-07 0)
(0.0124674 -9.37523e-07 0)
(0.0124675 -1.00575e-06 0)
(0.0124675 -1.06597e-06 0)
(0.0124675 -1.12276e-06 0)
(0.0124675 -1.16683e-06 0)
(0.0124675 -1.21352e-06 0)
(0.0124671 -6.51813e-08 0)
(0.012467 -1.74217e-07 0)
(0.012467 -2.8315e-07 0)
(0.012467 -3.92556e-07 0)
(0.0124671 -5.01335e-07 0)
(0.0124671 -6.08161e-07 0)
(0.0124671 -7.13157e-07 0)
(0.0124672 -8.14533e-07 0)
(0.0124672 -9.12931e-07 0)
(0.0124673 -1.00602e-06 0)
(0.0124673 -1.09477e-06 0)
(0.0124674 -1.17711e-06 0)
(0.0124674 -1.25215e-06 0)
(0.0124674 -1.32077e-06 0)
(0.0124674 -1.3775e-06 0)
(0.0124674 -1.43322e-06 0)
(0.012467 -7.46799e-08 0)
(0.0124668 -1.9793e-07 0)
(0.0124668 -3.21968e-07 0)
(0.0124669 -4.46926e-07 0)
(0.0124669 -5.71737e-07 0)
(0.0124669 -6.95005e-07 0)
(0.012467 -8.17256e-07 0)
(0.012467 -9.3613e-07 0)
(0.0124671 -1.05308e-06 0)
(0.0124671 -1.16465e-06 0)
(0.0124672 -1.27312e-06 0)
(0.0124672 -1.37414e-06 0)
(0.0124673 -1.46913e-06 0)
(0.0124673 -1.55495e-06 0)
(0.0124673 -1.63025e-06 0)
(0.0124672 -1.69951e-06 0)
(0.0124668 -8.48388e-08 0)
(0.0124666 -2.2242e-07 0)
(0.0124666 -3.62125e-07 0)
(0.0124667 -5.03303e-07 0)
(0.0124667 -6.45002e-07 0)
(0.0124667 -7.85814e-07 0)
(0.0124668 -9.26656e-07 0)
(0.0124668 -1.06484e-06 0)
(0.0124669 -1.20254e-06 0)
(0.012467 -1.33549e-06 0)
(0.012467 -1.46715e-06 0)
(0.0124671 -1.59113e-06 0)
(0.0124671 -1.71102e-06 0)
(0.0124671 -1.81944e-06 0)
(0.0124671 -1.91925e-06 0)
(0.0124671 -2.00679e-06 0)
(0.0124666 -9.53275e-08 0)
(0.0124664 -2.46751e-07 0)
(0.0124664 -4.02073e-07 0)
(0.0124665 -5.59497e-07 0)
(0.0124665 -7.18253e-07 0)
(0.0124665 -8.76965e-07 0)
(0.0124666 -1.03693e-06 0)
(0.0124666 -1.19538e-06 0)
(0.0124667 -1.3551e-06 0)
(0.0124668 -1.51135e-06 0)
(0.0124668 -1.66867e-06 0)
(0.0124669 -1.819e-06 0)
(0.0124669 -1.96778e-06 0)
(0.012467 -2.10359e-06 0)
(0.012467 -2.23291e-06 0)
(0.0124669 -2.34291e-06 0)
(0.0124664 -1.05745e-07 0)
(0.0124662 -2.69894e-07 0)
(0.0124662 -4.40098e-07 0)
(0.0124662 -6.13059e-07 0)
(0.0124663 -7.88195e-07 0)
(0.0124663 -9.64235e-07 0)
(0.0124664 -1.14287e-06 0)
(0.0124664 -1.32136e-06 0)
(0.0124665 -1.50311e-06 0)
(0.0124666 -1.68312e-06 0)
(0.0124666 -1.86692e-06 0)
(0.0124667 -2.04545e-06 0)
(0.0124667 -2.22552e-06 0)
(0.0124668 -2.39245e-06 0)
(0.0124668 -2.5555e-06 0)
(0.0124667 -2.69223e-06 0)
(0.0124662 -1.15652e-07 0)
(0.0124659 -2.9078e-07 0)
(0.0124659 -4.74416e-07 0)
(0.012466 -6.61428e-07 0)
(0.012466 -8.51394e-07 0)
(0.012466 -1.04318e-06 0)
(0.0124661 -1.23881e-06 0)
(0.0124662 -1.43575e-06 0)
(0.0124662 -1.63781e-06 0)
(0.0124663 -1.84017e-06 0)
(0.0124664 -2.04914e-06 0)
(0.0124665 -2.25532e-06 0)
(0.0124665 -2.4665e-06 0)
(0.0124666 -2.66617e-06 0)
(0.0124666 -2.86537e-06 0)
(0.0124666 -3.03253e-06 0)
(0.0124659 -1.24592e-07 0)
(0.0124656 -3.08451e-07 0)
(0.0124657 -5.03431e-07 0)
(0.0124657 -7.02287e-07 0)
(0.0124657 -9.04727e-07 0)
(0.0124658 -1.10968e-06 0)
(0.0124658 -1.31944e-06 0)
(0.0124659 -1.53178e-06 0)
(0.012466 -1.75053e-06 0)
(0.012466 -1.97154e-06 0)
(0.0124661 -2.20159e-06 0)
(0.0124662 -2.43142e-06 0)
(0.0124663 -2.6697e-06 0)
(0.0124663 -2.89976e-06 0)
(0.0124664 -3.1332e-06 0)
(0.0124664 -3.33198e-06 0)
(0.0124656 -1.32154e-07 0)
(0.0124653 -3.22143e-07 0)
(0.0124654 -5.25865e-07 0)
(0.0124654 -7.33789e-07 0)
(0.0124654 -9.45662e-07 0)
(0.0124655 -1.16044e-06 0)
(0.0124655 -1.38054e-06 0)
(0.0124656 -1.60397e-06 0)
(0.0124657 -1.83428e-06 0)
(0.0124657 -2.06809e-06 0)
(0.0124658 -2.31215e-06 0)
(0.0124659 -2.55768e-06 0)
(0.012466 -2.81409e-06 0)
(0.0124661 -3.06478e-06 0)
(0.0124662 -3.3199e-06 0)
(0.0124663 -3.54283e-06 0)
(0.0124653 -1.38014e-07 0)
(0.012465 -3.31368e-07 0)
(0.0124651 -5.40904e-07 0)
(0.0124651 -7.5479e-07 0)
(0.0124651 -9.7265e-07 0)
(0.0124652 -1.19357e-06 0)
(0.0124652 -1.4198e-06 0)
(0.0124653 -1.64951e-06 0)
(0.0124654 -1.88598e-06 0)
(0.0124654 -2.12611e-06 0)
(0.0124655 -2.37554e-06 0)
(0.0124656 -2.62574e-06 0)
(0.0124657 -2.8855e-06 0)
(0.0124658 -3.13611e-06 0)
(0.012466 -3.38444e-06 0)
(0.0124661 -3.60469e-06 0)
(0.012465 -1.41963e-07 0)
(0.0124647 -3.36131e-07 0)
(0.0124647 -5.48561e-07 0)
(0.0124648 -7.65275e-07 0)
(0.0124648 -9.85764e-07 0)
(0.0124649 -1.2092e-06 0)
(0.0124649 -1.43751e-06 0)
(0.012465 -1.66897e-06 0)
(0.012465 -1.90645e-06 0)
(0.0124651 -2.14664e-06 0)
(0.0124652 -2.39267e-06 0)
(0.0124653 -2.63609e-06 0)
(0.0124654 -2.88276e-06 0)
(0.0124656 -3.11458e-06 0)
(0.0124658 -3.3428e-06 0)
(0.012466 -3.55178e-06 0)
(0.0124647 -1.44002e-07 0)
(0.0124644 -3.36727e-07 0)
(0.0124644 -5.49311e-07 0)
(0.0124645 -7.65888e-07 0)
(0.0124645 -9.85802e-07 0)
(0.0124645 -1.20831e-06 0)
(0.0124646 -1.43469e-06 0)
(0.0124647 -1.66306e-06 0)
(0.0124647 -1.89487e-06 0)
(0.0124648 -2.12664e-06 0)
(0.0124649 -2.35961e-06 0)
(0.012465 -2.58629e-06 0)
(0.0124652 -2.81019e-06 0)
(0.0124654 -3.02032e-06 0)
(0.0124656 -3.2325e-06 0)
(0.0124658 -3.43165e-06 0)
(0.0124644 -1.44257e-07 0)
(0.0124641 -3.33157e-07 0)
(0.0124641 -5.43172e-07 0)
(0.0124642 -7.56615e-07 0)
(0.0124642 -9.7249e-07 0)
(0.0124642 -1.19e-06 0)
(0.0124643 -1.40953e-06 0)
(0.0124644 -1.62935e-06 0)
(0.0124644 -1.84921e-06 0)
(0.0124645 -2.06555e-06 0)
(0.0124647 -2.27925e-06 0)
(0.0124648 -2.48677e-06 0)
(0.012465 -2.69049e-06 0)
(0.0124652 -2.88793e-06 0)
(0.0124654 -3.08764e-06 0)
(0.0124657 -3.27566e-06 0)
(0.0124641 -1.42731e-07 0)
(0.0124638 -3.25094e-07 0)
(0.0124638 -5.29647e-07 0)
(0.0124639 -7.36848e-07 0)
(0.0124639 -9.45092e-07 0)
(0.012464 -1.15324e-06 0)
(0.012464 -1.36065e-06 0)
(0.0124641 -1.56701e-06 0)
(0.0124642 -1.77181e-06 0)
(0.0124643 -1.97195e-06 0)
(0.0124644 -2.16825e-06 0)
(0.0124646 -2.36139e-06 0)
(0.0124648 -2.55287e-06 0)
(0.012465 -2.73963e-06 0)
(0.0124652 -2.92533e-06 0)
(0.0124655 -3.10245e-06 0)
(0.0124638 -1.39288e-07 0)
(0.0124636 -3.11894e-07 0)
(0.0124636 -5.07764e-07 0)
(0.0124636 -7.0562e-07 0)
(0.0124637 -9.03402e-07 0)
(0.0124637 -1.0998e-06 0)
(0.0124638 -1.29357e-06 0)
(0.0124639 -1.48564e-06 0)
(0.012464 -1.67619e-06 0)
(0.0124641 -1.86406e-06 0)
(0.0124642 -2.04878e-06 0)
(0.0124644 -2.23029e-06 0)
(0.0124646 -2.40897e-06 0)
(0.0124648 -2.58375e-06 0)
(0.0124651 -2.75577e-06 0)
(0.0124654 -2.92287e-06 0)
(0.0124635 -1.33651e-07 0)
(0.0124633 -2.94936e-07 0)
(0.0124633 -4.79852e-07 0)
(0.0124634 -6.66376e-07 0)
(0.0124634 -8.52522e-07 0)
(0.0124635 -1.03741e-06 0)
(0.0124636 -1.22035e-06 0)
(0.0124637 -1.40116e-06 0)
(0.0124638 -1.57916e-06 0)
(0.0124639 -1.75485e-06 0)
(0.0124641 -1.92723e-06 0)
(0.0124642 -2.09674e-06 0)
(0.0124644 -2.26259e-06 0)
(0.0124647 -2.42577e-06 0)
(0.0124649 -2.58568e-06 0)
(0.0124652 -2.74351e-06 0)
(0.0124633 -1.2641e-07 0)
(0.0124631 -2.77627e-07 0)