/*--------------------------------*- C++ -*----------------------------------*\
| =========                 |                                                 |
| \\      /  F ield         | OpenFOAM: The Open Source CFD Toolbox           |
|  \\    /   O peration     | Version:  4.1                                   |
|   \\  /    A nd           | Web:      www.OpenFOAM.org                      |
|    \\/     M anipulation  |                                                 |
\*---------------------------------------------------------------------------*/
FoamFile
{
    version     2.0;
    format      ascii;
    class       volVectorField;
    location    "0.000570";
    object      wallShearStress;
}
// * * * * * * * * * * * * * * * * * * * * * * * * * * * * * * * * * * * * * //

dimensions      [0 2 -2 0 0 0 0];

internalField   uniform (0 0 0);

boundaryField
{
    inlet
    {
        type            calculated;
        value           uniform (0 0 0);
    }
    outlet
    {
        type            calculated;
        value           nonuniform 0();
    }
    mantle
    {
        type            calculated;
        value           nonuniform List<vector> 
768
(
(-0.2100285 0.0022479792 0.0047014373)
(-0.21811908 0.0075478211 0.0027671968)
(-0.22644506 0.010507457 -0.00047538001)
(-0.23456163 0.012823026 -0.0058249721)
(-0.24218181 0.01286543 -0.012265893)
(-0.24828552 0.0097480771 -0.017900855)
(-0.2518789 0.0046460703 -0.021330377)
(-0.25095342 -0.0022972418 -0.020040032)
(-0.19972169 -0.004242378 0.0042103494)
(-0.21013356 0.0013078625 0.0040842246)
(-0.22115612 0.0057269874 0.001980677)
(-0.23288291 0.0098022715 -0.0032349508)
(-0.24484047 0.011511027 -0.010641278)
(-0.25585235 0.0096878202 -0.018125503)
(-0.26452003 0.0053258724 -0.023486312)
(-0.26809882 -0.00086665848 -0.024278132)
(-0.19687762 -0.0061421394 0.0031425203)
(-0.20896321 -0.001748275 0.00290409)
(-0.2218942 0.0021153708 0.0012163182)
(-0.23638305 0.0060151005 -0.0034339951)
(-0.25213984 0.0082870084 -0.010570987)
(-0.26774782 0.0077882851 -0.018435852)
(-0.28122137 0.0048384735 -0.025046099)
(-0.28913749 3.4783072e-05 -0.027712513)
(-0.19041274 -0.011412584 0.002653152)
(-0.20429556 -0.0080209444 0.002683304)
(-0.2196507 -0.0044314186 0.0016229913)
(-0.23735409 -0.00042883566 -0.0020195887)
(-0.25759514 0.0028527657 -0.0082835584)
(-0.27899102 0.0043035429 -0.016184631)
(-0.29910301 0.0034717216 -0.024140954)
(-0.31300311 0.00034155622 -0.028858921)
(-0.18013391 -0.012850314 0.002063075)
(-0.19597709 -0.010552763 0.0022964521)
(-0.21430461 -0.0075855696 0.0015737132)
(-0.23577047 -0.0040891744 -0.0011687914)
(-0.26104227 -0.00069076478 -0.006162235)
(-0.2892019 0.0017737335 -0.013180175)
(-0.31742642 0.0024427436 -0.021247004)
(-0.33875323 0.00059738364 -0.027090852)
(-0.17185354 -0.0099378783 0.0013095694)
(-0.18915931 -0.0085187922 0.0013536846)
(-0.21000422 -0.0064633066 0.00047271139)
(-0.23477036 -0.0040456787 -0.001829977)
(-0.26447953 -0.0015190768 -0.0056735105)
(-0.2988378 0.00070303387 -0.011199993)
(-0.33489395 0.001847291 -0.01806809)
(-0.36373871 0.00084863814 -0.023735072)
(-0.16746412 -0.0057372224 0.00053722935)
(-0.18570958 -0.0048131549 5.8707078e-05)
(-0.20833534 -0.0035379988 -0.0013098889)
(-0.23562531 -0.0021461217 -0.0036868023)
(-0.2688384 -0.00075831002 -0.0069776277)
(-0.30819768 0.00056933253 -0.011272566)
(-0.35084069 0.0014806158 -0.016555301)
(-0.38627615 0.0010143057 -0.021147795)
(-0.16667548 -0.0021011104 -0.0001421669)
(-0.18551535 -0.0014014629 -0.0012560833)
(-0.20940367 -0.00061885515 -0.0031845616)
(-0.23869085 7.4136763e-05 -0.0059179136)
(-0.27482416 0.00055926475 -0.0092611589)
(-0.31829254 0.0009788308 -0.013045135)
(-0.36639812 0.0013855654 -0.017273768)
(-0.40678129 0.0011278893 -0.020706386)
(-0.16857948 0.000505496 -0.00064048001)
(-0.18777059 0.0010847263 -0.0022790694)
(-0.2125884 0.0015426704 -0.0047193831)
(-0.24354831 0.0017726388 -0.0078553704)
(-0.28227917 0.0016703336 -0.011486703)
(-0.32951417 0.0014687192 -0.015323437)
(-0.38259036 0.0014158246 -0.019264174)
(-0.42671545 0.0012007968 -0.022273261)
(-0.17210998 0.0022961858 -0.0010073263)
(-0.19151218 0.0027867577 -0.0030738763)
(-0.21702799 0.0029577609 -0.0059122305)
(-0.24939346 0.0027930763 -0.009334623)
(-0.29049849 0.0022526713 -0.013188583)
(-0.34128646 0.0016603068 -0.017223291)
(-0.39914174 0.001298151 -0.02127013)
(-0.44702862 0.0011853382 -0.024616632)
(-0.17715335 0.0037343726 -0.0013139612)
(-0.1965497 0.0040824751 -0.0037396696)
(-0.22246311 0.003930173 -0.0068690603)
(-0.25584406 0.0033408818 -0.010448234)
(-0.29886717 0.002361825 -0.014342271)
(-0.35284459 0.0014630675 -0.018426334)
(-0.41512623 0.00091331199 -0.022543109)
(-0.46709897 0.0010514946 -0.026455035)
(-0.18350446 0.0050183451 -0.0015674752)
(-0.20263542 0.0052036808 -0.0043042151)
(-0.22861226 0.0046962089 -0.0076619666)
(-0.26259699 0.0036538522 -0.011300335)
(-0.30705197 0.0021978315 -0.015055784)
(-0.36363177 0.00098088461 -0.0189327)
(-0.42971325 0.00030606233 -0.022866012)
(-0.48579109 0.0008239234 -0.027206464)
(-0.19122055 0.006330094 -0.001799675)
(-0.20982272 0.0063170644 -0.0048130687)
(-0.23552341 0.005416697 -0.0083332553)
(-0.26971481 0.0038750365 -0.011915081)
(-0.31495391 0.0019051422 -0.015374883)
(-0.37330736 0.00033829903 -0.018812165)
(-0.44223055 -0.00043210056 -0.022236685)
(-0.5019996 0.00055573123 -0.026751951)
(-0.2004268 0.0076568377 -0.0020144766)
(-0.21815466 0.0074068255 -0.0052567653)
(-0.24315363 0.0060977542 -0.0088612643)
(-0.27698405 0.0040261284 -0.012262389)
(-0.32235303 0.001569455 -0.015285126)
(-0.38157806 -0.0003651017 -0.018093599)
(-0.45207691 -0.0012155373 -0.020757094)
(-0.51477146 0.00029711419 -0.025139395)
(-0.21101316 0.0090640956 -0.0022212792)
(-0.22751946 0.0085177038 -0.0056406519)
(-0.25141751 0.0067683899 -0.0092269707)
(-0.28436758 0.0041631562 -0.012329665)
(-0.3291507 0.0012067685 -0.014772221)
(-0.38820285 -0.0010800688 -0.016785614)
(-0.45892395 -0.00195002 -0.018554917)
(-0.52335344 5.6817814e-05 -0.022465689)
(-0.22335895 0.010459983 -0.0023969136)
(-0.2381416 0.009574851 -0.0059275388)
(-0.26037457 0.0073706216 -0.0093903104)
(-0.29175785 0.0042542324 -0.012073765)
(-0.33509755 0.00084549018 -0.013814045)
(-0.39292601 -0.0017646669 -0.014866851)
(-0.46251208 -0.0026036798 -0.015634585)
(-0.52712788 -0.00015668643 -0.018779587)
(-0.237039 0.011764316 -0.002526577)
(-0.24963067 0.010526216 -0.0060873104)
(-0.2696964 0.0078998861 -0.0093264301)
(-0.29897073 0.0043248876 -0.011486952)
(-0.34013118 0.00049831634 -0.012392884)
(-0.39551047 -0.0023765342 -0.012374298)
(-0.46257392 -0.003166626 -0.012011773)
(-0.5256802 -0.00035989702 -0.014155387)
(-0.25228068 0.012994653 -0.0025971768)
(-0.2621505 0.011371625 -0.0060796812)
(-0.2795404 0.008325383 -0.0089774016)
(-0.30604248 0.0043267769 -0.010506394)
(-0.34400061 0.0001512787 -0.010468742)
(-0.39586932 -0.002893384 -0.0092816156)
(-0.45898876 -0.0036206949 -0.0076721748)
(-0.51901072 -0.00059559073 -0.0086345614)
(-0.26887204 0.014004556 -0.0025814856)
(-0.27536829 0.012009194 -0.0058600654)
(-0.28944838 0.0085871047 -0.0083081176)
(-0.31251942 0.0042533228 -0.0091374651)
(-0.34659469 -0.00014189565 -0.00814363)
(-0.39385818 -0.0033097457 -0.0057389393)
(-0.45182066 -0.0040129015 -0.0029021215)
(-0.50742962 -0.0008779708 -0.0026346196)
(-0.28658958 0.014854157 -0.0024869139)
(-0.28915097 0.012492107 -0.0054471689)
(-0.29939467 0.0087478044 -0.0073597903)
(-0.31848341 0.0041301294 -0.0074274826)
(-0.34793172 -0.00038980263 -0.0054939226)
(-0.38952577 -0.0036237468 -0.0020027931)
(-0.44119506 -0.0043366869 0.0019574658)
(-0.49125486 -0.0011603384 0.0034319215)
(-0.30550947 0.015330378 -0.002296665)
(-0.30342525 0.012659665 -0.0048179167)
(-0.30920005 0.0086851825 -0.0061289419)
(-0.32358911 0.003901612 -0.0054440676)
(-0.34777074 -0.00062647049 -0.00267558)
(-0.38305902 -0.0038508254 0.0017498667)
(-0.42738171 -0.004535827 0.0066487298)
(-0.47100423 -0.001402846 0.0091828985)
(-0.32471483 0.01545566 -0.0020226867)
(-0.31750779 0.012540657 -0.0040136682)
(-0.31839937 0.0084378685 -0.0046919739)
(-0.32770958 0.003624802 -0.0033102415)
(-0.34617639 -0.00086345075 0.00018020173)
(-0.37442187 -0.0040085348 0.0053123656)
(-0.41078702 -0.004630328 0.010897957)
(-0.44746783 -0.001606725 0.014263236)
(-0.34448424 0.015033885 -0.0016477713)
(-0.33155893 0.011974556 -0.0030116375)
(-0.32711794 0.0078577521 -0.0030506337)
(-0.33083506 0.0031624565 -0.0010676094)
(-0.34301182 -0.00115566 0.0029497584)
(-0.36398019 -0.0040831953 0.0084701719)
(-0.3920547 -0.0046135125 0.01446114)
(-0.42157207 -0.0017650614 0.018365891)
(-0.36339494 0.013953484 -0.0011829595)
(-0.34443384 0.010919086 -0.0018533311)
(-0.33441554 0.0069401392 -0.0012911167)
(-0.33247864 0.0025256035 0.0011559672)
(-0.33840484 -0.0014491791 0.0054730735)
(-0.35211564 -0.0041069339 0.011186954)
(-0.37190688 -0.004502584 0.017221028)
(-0.39440805 -0.0018826082 0.021364613)
(-0.25094983 0.0022969144 -0.020034323)
(-0.25187267 -0.0046321416 -0.02133569)
(-0.24827308 -0.0097373869 -0.017911315)
(-0.24215154 -0.012844674 -0.012256989)
(-0.23452032 -0.012802684 -0.0058284478)
(-0.22638374 -0.010502267 -0.00048889774)
(-0.21805524 -0.0075511841 0.0027612081)
(-0.2099643 -0.0022546196 0.0047041687)
(-0.26810309 0.00087283235 -0.02427763)
(-0.2645253 -0.0053050234 -0.023501317)
(-0.2558443 -0.0096747758 -0.018146042)
(-0.24480042 -0.011484753 -0.01064084)
(-0.23283434 -0.0097753481 -0.0032507249)
(-0.22109346 -0.0057209795 0.0019536146)
(-0.21005901 -0.001312767 0.0040688195)
(-0.19964451 0.0042355302 0.0042089279)
(-0.28915681 -3.5715627e-05 -0.027711754)
(-0.28125045 -0.0048216375 -0.02506223)
(-0.26775156 -0.0077801509 -0.018452576)
(-0.2520919 -0.008257387 -0.010566447)
(-0.23632479 -0.005975264 -0.0034465681)
(-0.22182164 -0.0020919918 0.0011913635)
(-0.20886832 0.0017606914 0.0028865582)
(-0.19677022 0.0061529785 0.0031374298)
(-0.31303916 -0.00035819584 -0.028851221)
(-0.29915849 -0.0034672502 -0.02414935)
(-0.2790108 -0.0043071754 -0.016191012)
(-0.25754795 -0.002833188 -0.0082760424)
(-0.23728847 0.0004634109 -0.0020259503)
(-0.21956651 0.0044585988 0.0016053105)
(-0.20418326 0.0080365447 0.0026663232)
(-0.19028334 0.011422107 0.0026457192)
(-0.3387993 -0.00063048738 -0.027074871)
(-0.31749658 -0.0024537927 -0.021241213)
(-0.28923644 -0.0017908516 -0.013173195)
(-0.2610087 0.00069536174 -0.0061505094)
(-0.23570819 0.0041129594 -0.0011671863)
(-0.21421294 0.0076079938 0.0015643498)
(-0.19585396 0.010565369 0.0022846756)
(-0.17999307 0.012854612 0.0020567154)
(-0.36378663 -0.00089837525 -0.023709753)
(-0.33496514 -0.0018780995 -0.018043625)
(-0.29888164 -0.00073332353 -0.011175549)
(-0.26446638 0.0015104605 -0.0056517675)
(-0.2347129 0.0040587215 -0.0018153031)
(-0.20990599 0.0064823415 0.00047845629)
(-0.18902615 0.0085321265 0.0013515835)
(-0.17170503 0.0099440229 0.001306046)
(-0.38630786 -0.0010821712 -0.021116591)
(-0.35090112 -0.0015342429 -0.01651475)
(-0.30825218 -0.00061377909 -0.011231359)
(-0.26884866 0.00073695172 -0.0069403452)
(-0.23558228 0.0021467255 -0.0036581023)
(-0.20824241 0.0035500249 -0.0012921136)
(-0.18558261 0.004824737 6.3705954e-05)
(-0.16732412 0.0057458596 0.00053524604)
(-0.40679694 -0.0012124044 -0.020678812)
(-0.36644474 -0.0014575772 -0.017225018)
(-0.3183542 -0.0010315582 -0.012988841)
(-0.27485191 -0.00058858258 -0.0092080371)
(-0.2386615 -8.0107973e-05 -0.0058719664)
(-0.20932324 0.00062899867 -0.0031535199)
(-0.18540216 0.0014175293 -0.0012424111)
(-0.16654946 0.0021162958 -0.00014135176)
(-0.42672428 -0.0012934023 -0.022249623)
(-0.3826276 -0.0014967883 -0.019215379)
(-0.32957437 -0.0015259316 -0.015260272)
(-0.28231232 -0.0017020672 -0.011420671)
(-0.24352466 -0.0017798684 -0.0077953953)
(-0.21251215 -0.0015297674 -0.0046741905)
(-0.18766014 -0.0010600941 -0.0022545073)
(-0.16845512 -0.00047950374 -0.00063450326)
(-0.44702364 -0.0012782474 -0.024595974)
(-0.39916963 -0.0013821472 -0.021227309)
(-0.34134356 -0.0017208849 -0.017161153)
(-0.29052927 -0.0022884161 -0.013119257)
(-0.24936951 -0.0028048863 -0.0092688541)
(-0.21695047 -0.0029481433 -0.0058588876)
(-0.19139844 -0.0027613652 -0.0030403177)
(-0.1719816 -0.0022658112 -0.00099603678)
(-0.46708269 -0.0011416099 -0.026433143)
(-0.41515061 -0.00099705693 -0.022502943)
(-0.35289756 -0.0015249806 -0.018366033)
(-0.29889644 -0.0024041157 -0.014273349)
(-0.25582327 -0.0033600337 -0.010378942)
(-0.22238975 -0.0039285782 -0.00681156)
(-0.19643478 -0.0040645715 -0.0037016626)
(-0.1770256 -0.0037096883 -0.0013003891)
(-0.48576619 -0.00091205561 -0.027185302)
(-0.42971179 -0.00038397565 -0.022823632)
(-0.36367096 -0.0010410902 -0.018867338)
(-0.30707298 -0.0022414927 -0.014980974)
(-0.26257434 -0.0036757866 -0.011224373)
(-0.22854528 -0.0046975267 -0.0075985832)
(-0.20253351 -0.0051903911 -0.0042645444)
(-0.18339535 -0.0049971967 -0.0015552421)
(-0.50196075 -0.00064197922 -0.026734711)
(-0.44221309 0.00035921224 -0.022197589)
(-0.37331466 -0.00039808928 -0.018742025)
(-0.31495388 -0.0019433237 -0.015289766)
(-0.26968344 -0.0038918486 -0.011832383)
(-0.23545847 -0.0054126503 -0.0082654246)
(-0.20973397 -0.006299436 -0.0047705549)
(-0.19112647 -0.0063035688 -0.0017861863)
(-0.51471503 -0.00037867281 -0.025120562)
(-0.45205215 0.0011445421 -0.020715549)
(-0.38155457 0.00031038642 -0.018025014)
(-0.32231648 -0.0016024183 -0.015199961)
(-0.27693688 -0.0040347045 -0.012175893)
(-0.24308757 -0.0060840594 -0.0087897723)
(-0.21807538 -0.0073780614 -0.0052116118)
(-0.20034238 -0.0076196828 -0.0019991203)
(-0.52327658 -0.00011787731 -0.022450828)
(-0.45885994 0.0018938138 -0.018514808)
(-0.38814388 0.0010325685 -0.016724574)
(-0.32908461 -0.0012399995 -0.014700028)
(-0.28429255 -0.0041732639 -0.01225116)
(-0.25134075 -0.0067570144 -0.0091591879)
(-0.22743845 -0.0084895343 -0.0055953808)
(-0.21092884 -0.0090271638 -0.0022033455)
(-0.52702878 0.00013502638 -0.018772787)
(-0.46240255 0.0025767348 -0.01561373)
(-0.39281819 0.0017324785 -0.014829537)
(-0.33500558 -0.00087442702 -0.013767056)
(-0.29166914 -0.0042710548 -0.01202012)
(-0.26029962 -0.0073709335 -0.009339116)
(-0.23807292 -0.0095602656 -0.0058893678)
(-0.22328777 -0.010435203 -0.0023768254)
(-0.52556352 0.00038700603 -0.01416045)
(-0.46242385 0.003177257 -0.01201673)
(-0.39536198 0.0023657726 -0.012375931)
(-0.34000996 -0.00051563361 -0.012383523)
(-0.29886946 -0.0043425831 -0.011469213)
(-0.26962147 -0.0079088203 -0.0093010697)
(-0.24957505 -0.010525159 -0.0060622404)
(-0.23698443 -0.011753519 -0.0025055499)
(-0.51888521 0.00066052072 -0.0086500206)
(-0.45880516 0.003663699 -0.0077023849)
(-0.39570072 0.0029042565 -0.0093212139)
(-0.34386214 -0.00015702744 -0.010497543)
(-0.30593282 -0.0043423239 -0.010524328)
(-0.27946133 -0.0083433179 -0.0089818633)
(-0.26210282 -0.011387668 -0.0060727723)
(-0.25224173 -0.013003971 -0.002579215)
(-0.50730426 0.00096360171 -0.0026561731)
(-0.45161844 0.0040738172 -0.0029448511)
(-0.39368507 0.0033374308 -0.0057949141)
(-0.34645047 0.00014920432 -0.0081927291)
(-0.31240765 -0.0042614845 -0.0091782293)
(-0.2893763 -0.008607321 -0.0083367379)
(-0.27533471 -0.012036893 -0.0058718881)
(-0.26885262 -0.014031188 -0.0025716333)
(-0.49114252 0.0012453276 0.0034102389)
(-0.44099473 0.0044016613 0.0019140152)
(-0.38935228 0.0036631759 -0.0020592828)
(-0.34778854 0.00041187398 -0.0055478099)
(-0.31837579 -0.0041242813 -0.0074777929)
(-0.29933126 -0.0087576826 -0.0074025482)
(-0.28912907 -0.012518141 -0.0054745498)
(-0.28658236 -0.014890367 -0.0024880992)
(-0.47091281 0.001475699 0.0091655544)
(-0.4272014 0.0045957895 0.0066086013)
(-0.38290072 0.0038940471 0.001696595)
(-0.34762877 0.00065814049 -0.0027287286)
(-0.32348247 -0.0038839659 -0.0054987073)
(-0.30913803 -0.0086841779 -0.0061812269)
(-0.3034063 -0.012681993 -0.0048578455)
(-0.30550819 -0.015373451 -0.0023092607)
(-0.44739456 0.0016671595 0.014250657)
(-0.41063859 0.0046814075 0.010860927)
(-0.37428707 0.0040477143 0.0052638653)
(-0.34604061 0.00089162099 0.00012600006)
(-0.32760575 -0.0036062402 -0.003367892)
(-0.31833715 -0.0084366864 -0.0047511993)
(-0.31748862 -0.012562758 -0.0040608965)
(-0.32471305 -0.015502166 -0.0020438131)
(-0.42151012 0.0018144613 0.018355248)
(-0.39193334 0.0046561611 0.014429268)
(-0.36386715 0.0041148451 0.0084254841)
(-0.34289947 0.0011764565 0.0028980164)
(-0.33074788 -0.003152443 -0.0011230118)
(-0.32706917 -0.0078609373 -0.0031056766)
(-0.33154385 -0.01199544 -0.0030560103)
(-0.34448587 -0.015074417 -0.0016711894)
(-0.39435563 0.0019178543 0.021354925)
(-0.37180155 0.0045331711 0.017195218)
(-0.35202705 0.004129377 0.011150904)
(-0.33830974 0.0014629787 0.0054298459)
(-0.33240742 -0.0025188571 0.0011120099)
(-0.33437815 -0.006942744 -0.0013327201)
(-0.34443051 -0.010932438 -0.001885797)
(-0.36340512 -0.013976049 -0.0012026772)
(-0.20997023 -0.002254706 -0.0046982148)
(-0.21807016 -0.0075546319 -0.0027591007)
(-0.22640596 -0.010510755 0.00049053317)
(-0.23453851 -0.012818089 0.0058397967)
(-0.24216961 -0.012853032 0.012270335)
(-0.24827975 -0.009737648 0.017900465)
(-0.25188658 -0.0046382755 0.021324799)
(-0.2509587 0.0022994305 0.020032685)
(-0.19965376 0.0042352485 -0.0042008181)
(-0.21008156 -0.0013173063 -0.0040657676)
(-0.22112026 -0.0057310257 -0.0019520919)
(-0.23286294 -0.009794861 0.0032629524)
(-0.24482769 -0.011494621 0.010657457)
(-0.2558528 -0.0096710633 0.01813627)
(-0.26453119 -0.0053097903 0.023483503)
(-0.26810957 0.00087634616 0.024273899)
(-0.19678213 0.0061514769 -0.0031331071)
(-0.20889673 0.0017550503 -0.0028866251)
(-0.22185412 -0.0021053717 -0.0011917356)
(-0.23636521 -0.0059978326 0.003458733)
(-0.25213361 -0.0082670864 0.010587965)
(-0.26775762 -0.0077703776 0.018447392)
(-0.28123693 -0.0048230325 0.025044143)
(-0.28914609 -2.3308006e-05 0.027707084)
(-0.19029628 0.011420794 -0.0026482704)
(-0.20421259 0.0080317691 -0.0026722808)
(-0.21959986 0.0044463514 -0.0016099932)
(-0.23733133 0.00044628398 0.0020325462)
(-0.25759568 -0.0028351734 0.0082917046)
(-0.27900945 -0.0042904052 0.01618749)
(-0.29912122 -0.0034641298 0.02413604)
(-0.31300211 -0.00033679008 0.028850285)
(-0.18000583 0.012853203 -0.0020655156)
(-0.19588244 0.010561184 -0.0022956925)
(-0.21424446 0.0075978833 -0.0015729118)
(-0.23574296 0.0041034641 0.0011667493)
(-0.26104296 0.0007018286 0.0061556434)
(-0.28922319 -0.0017702042 0.01317175)
(-0.31744319 -0.0024465996 0.021238142)
(-0.33874135 -0.00060582431 0.027082826)
(-0.17171753 0.0099421917 -0.0013199497)
(-0.18905351 0.0085278955 -0.0013661166)
(-0.20993391 0.0064746219 -0.00048942495)
(-0.23473217 0.0040544711 0.0018100609)
(-0.26447296 0.0015195225 0.0056498032)
(-0.29885142 -0.00071444683 0.011177279)
(-0.33490309 -0.0018694328 0.018053248)
(-0.36371602 -0.00087704089 0.023728605)
(-0.167335 0.0057439242 -0.00055299524)
(-0.18560541 0.004821133 -8.0910369e-05)
(-0.20826124 0.0035443596 0.0012789736)
(-0.23558185 0.0021446318 0.0036504648)
(-0.26882458 0.00074316146 0.0069369628)
(-0.30820152 -0.00060226983 0.011236308)
(-0.35083956 -0.0015277892 0.016532825)
(-0.38623694 -0.0010678782 0.021141165)
(-0.16655849 0.0021141705 0.00012327407)
(-0.18541886 0.0014140087 0.0012255502)
(-0.20933149 0.00062400043 0.0031408157)
(-0.23864544 -8.3289215e-05 0.0058648135)
(-0.27480642 -0.00058815973 0.0092055334)
(-0.31828852 -0.0010301172 0.012994504)
(-0.36638182 -0.0014562458 0.017239675)
(-0.40671892 -0.0012057364 0.02069727)
(-0.1684631 -0.0004812932 0.00062054824)
(-0.18767302 -0.001063364 0.0022414694)
(-0.21251282 -0.0015337739 0.0046639975)
(-0.24349828 -0.0017832679 0.0077884658)
(-0.28225622 -0.0017057544 0.011417099)
(-0.32950147 -0.0015317493 0.015261499)
(-0.38255258 -0.0015023477 0.01922102)
(-0.42662433 -0.0012956864 0.022258544)
(-0.17198943 -0.002267026 0.00098754291)
(-0.19140889 -0.0027629473 0.0030324687)
(-0.21694517 -0.0029489785 0.0058517252)
(-0.24933593 -0.0028056361 0.0092618005)
(-0.29046906 -0.002291952 0.013112542)
(-0.34126664 -0.0017291295 0.017155402)
(-0.39908681 -0.0013936466 0.021224346)
(-0.44690183 -0.001290228 0.024596526)
(-0.17703377 -0.0037101287 0.0012951917)
(-0.19644385 -0.0040647516 0.0036980911)
(-0.22237894 -0.003926199 0.0068084086)
(-0.25578451 -0.0033574554 0.010373877)
(-0.29883565 -0.0024050198 0.014265533)
(-0.35282146 -0.0015323818 0.01835581)
(-0.41506487 -0.0010114421 0.022493717)
(-0.46694392 -0.0011596075 0.026427689)
(-0.18340291 -0.004998031 0.0015508547)
(-0.20253971 -0.0051902851 0.0042635182)
(-0.22853071 -0.0046952031 0.0075999242)
(-0.26253583 -0.0036722297 0.011224769)
(-0.3070176 -0.0022399266 0.014976846)
(-0.36360422 -0.0010462272 0.018857524)
(-0.4296338 -0.00039551168 0.02280909)
(-0.48562503 -0.00092770002 0.027174718)
(-0.19113303 -0.0063057728 0.0017823058)
(-0.20973607 -0.0063017402 0.0047714532)
(-0.23544189 -0.0054133005 0.0082708127)
(-0.269649 -0.0038894286 0.011838789)
(-0.31491181 -0.0019395742 0.015291375)
(-0.37326548 -0.00039847709 0.018735447)
(-0.44213773 0.00035632102 0.022177956)
(-0.50182782 -0.00065063814 0.026718226)
(-0.20034733 -0.0076226811 0.0019977182)
(-0.21807315 -0.0073821368 0.0052150131)
(-0.24306944 -0.0060868583 0.0087984052)
(-0.27690892 -0.0040332151 0.012186803)
(-0.32229099 -0.0015965135 0.015206977)
(-0.3815284 0.00031629164 0.0180228)
(-0.45198845 0.0011476496 0.020696474)
(-0.51459917 -0.00038416065 0.025096961)
(-0.21093135 -0.009028879 0.0022094819)
(-0.22743171 -0.0084917435 0.0056041664)
(-0.25132083 -0.0067582095 0.0091703344)
(-0.28427082 -0.0041711275 0.012262757)
(-0.32907544 -0.0012331695 0.014707221)
(-0.38814274 0.0010405099 0.01672284)
(-0.45881609 0.0018983852 0.018495895)
(-0.52319109 -0.00012424693 0.022427058)
(-0.22328595 -0.010433534 0.0023963302)
(-0.23806123 -0.0095563936 0.0059069012)
(-0.2602799 -0.0073664557 0.0093522734)
(-0.29165484 -0.0042670851 0.012028485)
(-0.33501022 -0.00086968976 0.013769363)
(-0.3928382 0.0017365158 0.014823194)
(-0.46238043 0.0025754327 0.015594074)
(-0.52697657 0.00012274809 0.018749916)
(-0.23698004 -0.011748499 0.0025397696)
(-0.24956278 -0.010514766 0.0060888374)
(-0.26960762 -0.0078978473 0.0093151914)
(-0.29886782 -0.0043351451 0.011471348)
(-0.34003055 -0.00051341162 0.012377807)
(-0.39539797 0.0023631225 0.012362149)
(-0.46241774 0.0031643991 0.011994449)
(-0.52553414 0.00036297865 0.014137657)
(-0.25224003 -0.012997212 0.0026208888)
(-0.26210058 -0.011373487 0.0061032977)
(-0.27946274 -0.0083280177 0.0089952689)
(-0.30594539 -0.0043326238 0.010522083)
(-0.34389837 -0.00015610984 0.010485173)
(-0.39575146 0.0028944779 0.009300999)
(-0.45881662 0.0036390796 0.0076792949)
(-0.51886731 0.00062658255 0.0086288393)
(-0.26885517 -0.014024963 0.0026082545)
(-0.27534342 -0.012023998 0.0058983264)
(-0.28939069 -0.0085933715 0.008348095)
(-0.31243772 -0.0042538131 0.0091764695)
(-0.34650422 0.00014721062 0.0081815011)
(-0.39375322 0.0033235765 0.0057758254)
(-0.4516516 0.0040434509 0.0029269462)
(-0.50729446 0.00092529266 0.0026384877)
(-0.28658948 -0.014887852 0.0025115036)
(-0.28914776 -0.012513799 0.0054922637)
(-0.29935648 -0.0087532622 0.007411791)
(-0.3184215 -0.0041234236 0.0074785485)
(-0.34786261 0.00040618721 0.0055408366)
(-0.38943938 0.0036490236 0.0020450663)
(-0.44105039 0.0043737717 -0.0019239544)
(-0.49113465 0.0012128907 -0.0034215091)
(-0.30552155 -0.015375041 0.0023187352)
(-0.30343764 -0.012686314 0.0048659409)
(-0.30917762 -0.0086901885 0.006186885)
(-0.32354378 -0.0038904941 0.0055003136)
(-0.34771512 0.00064995585 0.002724614)
(-0.38299287 0.0038819862 -0.0017056957)
(-0.42726837 0.0045756558 -0.0066123377)
(-0.4709038 0.0014546298 -0.0091679457)
(-0.32473205 -0.015505326 0.0020423576)
(-0.31752916 -0.012570341 0.0040609549)
(-0.31838801 -0.0084456245 0.0047516147)
(-0.327675 -0.0036147146 0.0033672284)
(-0.34612986 0.00088308529 -0.00012941443)
(-0.37437558 0.0040375902 -0.0052682243)
(-0.41070259 0.0046687394 -0.010860827)
(-0.44738798 0.0016555684 -0.014245525)
(-0.34450789 -0.015077036 0.001663553)
(-0.33159034 -0.012002017 0.0030518489)
(-0.32712301 -0.0078692762 0.0031030017)
(-0.33081822 -0.0031611704 0.0011204583)
(-0.34298555 0.0011676202 -0.0029009997)
(-0.36394868 0.0041090483 -0.008430701)
(-0.39199216 0.0046498055 -0.014427778)
(-0.42150991 0.0018095304 -0.01834739)
(-0.36342635 -0.013977989 0.0011927762)
(-0.34447809 -0.010937479 0.001879886)
(-0.33443901 -0.006950788 0.0013285666)
(-0.33248413 -0.0025274138 -0.0011155816)
(-0.33839609 0.0014579695 -0.0054345969)
(-0.35208551 0.0041289469 -0.011155553)
(-0.37185381 0.0045341332 -0.017194924)
(-0.39436363 0.0019191647 -0.021348439)
(-0.25095437 -0.0022973503 0.02003014)
(-0.25187705 0.0046371888 0.021329566)
(-0.24828544 0.0097436865 0.017898387)
(-0.2421764 0.012852958 0.012244175)
(-0.23455846 0.012808121 0.0058068677)
(-0.22644523 0.010501299 0.00046744499)
(-0.21811838 0.0075483181 -0.0027715324)
(-0.21002837 0.0022493796 -0.0047066253)
(-0.26809675 -0.0008659556 0.024265218)
(-0.26451931 0.0053171419 0.023488853)
(-0.25584955 0.0096879858 0.018122347)
(-0.24482661 0.011499161 0.010617087)
(-0.23287487 0.0097866612 0.0032203501)
(-0.22115762 0.0057254623 -0.0019826656)
(-0.21013771 0.0013140029 -0.0040859741)
(-0.19972218 -0.0042397648 -0.0042142678)
(-0.28913568 4.3570973e-05 0.027697828)
(-0.28122665 0.004831434 0.025050247)
(-0.26773732 0.0077921953 0.018431178)
(-0.25210452 0.0082753996 0.010545111)
(-0.236363 0.0059976517 0.0034207399)
(-0.22189805 0.0021131154 -0.0012154652)
(-0.20897358 -0.0017428614 -0.0029034939)
(-0.19687866 -0.0061395921 -0.00314428)
(-0.31300776 0.00035880397 0.028844777)
(-0.29911666 0.0034674544 0.024145135)
(-0.27897343 0.0043125646 0.01618309)
(-0.25754029 0.002847937 0.0082663005)
(-0.23732294 -0.00044154262 0.0020114617)
(-0.2196539 -0.0044344456 -0.0016220616)
(-0.20430924 -0.0080184244 -0.0026830273)
(-0.1904144 -0.0114112 -0.0026546335)
(-0.33876274 0.00061802219 0.027076509)
(-0.31744063 0.002442168 0.021246771)
(-0.28917884 0.0017872172 0.013180862)
(-0.26098335 -0.00068623659 0.0061569136)
(-0.23573473 -0.0040941027 0.0011663776)
(-0.21430328 -0.0075878679 -0.0015738612)
(-0.19598877 -0.01055226 -0.0022985118)
(-0.18013496 -0.012850051 -0.0020665471)
(-0.36373903 0.00086673464 0.023719203)
(-0.33489481 0.0018497025 0.01805989)
(-0.29880946 0.00071713851 0.011199245)
(-0.26442813 -0.0015097598 0.005674658)
(-0.23473483 -0.0040444486 0.0018297833)
(-0.20999602 -0.0064637697 -0.00047498493)
(-0.18916564 -0.0085189195 -0.0013583034)
(-0.17185305 -0.0099376933 -0.0013152123)
(-0.38625045 0.0010271384 0.021134207)
(-0.35081186 0.0014842608 0.016540589)
(-0.30816075 0.00057947622 0.011267161)
(-0.26879232 -0.00075076588 0.0069766854)
(-0.23558837 -0.0021436505 0.0036840664)
(-0.20831982 -0.0035378633 0.0013048334)
(-0.18571014 -0.004813349 -6.5075173e-05)
(-0.16746209 -0.0057377207 -0.00054359178)
(-0.40672503 0.0011354659 0.020696486)
(-0.36633277 0.0013895477 0.017258309)
(-0.31823863 0.00098306257 0.013034071)
(-0.27477125 0.00056045075 0.0092527214)
(-0.23864473 7.1870983e-05 0.0059090993)
(-0.20937786 -0.00062246037 0.003176174)
(-0.18550851 -0.0014040202 0.0012481299)
(-0.16667107 -0.0021020904 0.00013492357)
(-0.42661971 0.0012025154 0.022264713)
(-0.38249166 0.001418884 0.01925092)
(-0.32943664 0.0014689876 0.015308225)
(-0.28220523 0.0016663789 0.011471486)
(-0.24348212 0.0017649898 0.0078411589)
(-0.21254364 0.0015340385 0.0047075858)
(-0.18775042 0.0010783956 0.0022697807)
(-0.16857053 0.00050365394 0.00063307924)
(-0.44688978 0.0011806519 0.024609836)
(-0.39900758 0.0012990291 0.021258351)
(-0.34118064 0.0016594922 0.017206546)
(-0.29040021 0.0022474352 0.013169833)
(-0.24930337 0.0027832166 0.0093171575)
(-0.2169599 0.0029464893 0.0058986731)
(-0.19147451 0.0027787807 0.0030648537)
(-0.17209516 0.0022932358 0.0010015373)
(-0.46692211 0.0010428561 0.026447362)
(-0.41495559 0.00091163722 0.022534077)
(-0.35270923 0.0014608363 0.018409745)
(-0.29874107 0.0023570027 0.014322293)
(-0.25572695 0.0033315167 0.010429617)
(-0.22237006 0.0039189358 0.0068562871)
(-0.19649501 0.004074441 0.0037332629)
(-0.17713233 0.0037310548 0.0013113153)
(-0.48559018 0.00081383074 0.027194923)
(-0.4295197 0.00029844468 0.02285626)
(-0.36346509 0.00097313251 0.01891553)
(-0.30689596 0.0021910647 0.015037057)
(-0.26245306 0.0036455785 0.011284204)
(-0.22849642 0.0046872951 0.0076521944)
(-0.20256578 0.0051969654 0.0043010698)
(-0.18347785 0.005015477 0.0015682634)
(-0.50179489 0.00054350395 0.026734695)
(-0.44201982 -0.00044646652 0.02222708)
(-0.37310695 0.00032178218 0.018795339)
(-0.31476582 0.0018917706 0.015358695)
(-0.26954699 0.0038639443 0.011901927)
(-0.23539074 0.0054075773 0.0083258004)
(-0.20974219 0.0063109002 0.0048118633)
(-0.19119019 0.0063274375 0.0018021125)
(-0.51458087 0.00028118963 0.025117608)
(-0.45187138 -0.0012365673 0.020745998)
(-0.38134835 -0.00038767155 0.018079891)
(-0.3221281 0.001550571 0.015272335)
(-0.27678369 0.0040112603 0.012250919)
(-0.24299768 0.0060865583 0.0088544217)
(-0.21806132 0.0073995226 0.0052563706)
(-0.20039157 0.0076537707 0.0020180679)
(-0.52318171 3.6407199e-05 0.022441133)
(-0.45871768 -0.0019751362 0.018541165)
(-0.38795095 -0.0011019611 0.016778331)
(-0.32889208 0.0011897404 0.014764189)
(-0.28413191 0.0041511021 0.012320997)
(-0.25123719 0.0067595749 0.0092217082)
(-0.2274139 0.0085114343 0.0056415864)
(-0.21097369 0.0090617296 0.002226579)
(-0.52697452 -0.00018123296 0.018757418)
(-0.46230444 -0.0026275798 0.015624668)
(-0.39266342 -0.0017794175 0.01486667)
(-0.33481287 0.00083696214 0.013809505)
(-0.29149704 0.0042510706 0.012067724)
(-0.26017899 0.0073684683 0.0093862685)
(-0.23803016 0.0095725401 0.0059288752)
(-0.22331787 0.010459383 0.0024024026)
(-0.52553718 -0.0003897048 0.014139369)
(-0.4623626 -0.0031871452 0.012007629)
(-0.3952446 -0.0023811413 0.012377482)
(-0.33983052 0.00050220355 0.012390398)
(-0.29869669 0.0043315822 0.01148108)
(-0.26949334 0.0079035539 0.0093206134)
(-0.24951751 0.010527322 0.0060861426)
(-0.2369972 0.011764521 0.002528953)
(-0.51886879 -0.00062865025 0.0086227468)