/*--------------------------------*- C++ -*----------------------------------*\
  =========                 |
  \\      /  F ield         | OpenFOAM: The Open Source CFD Toolbox
   \\    /   O peration     | Website:  https://openfoam.org
    \\  /    A nd           | Version:  8
     \\/     M anipulation  |
\*---------------------------------------------------------------------------*/
FoamFile
{
    version     2.0;
    format      ascii;
    class       surfaceVectorField;
    location    "0.0770000";
    object      Uf_0;
}
// * * * * * * * * * * * * * * * * * * * * * * * * * * * * * * * * * * * * * //

dimensions      [0 1 -1 0 0 0 0];

internalField   nonuniform List<vector> 
1094
(
(0.590910737620569 0.000542880199386661 -3.51760621620772e-18)
(0.360531695540549 0.00179624028490322 -1.75034292726364e-18)
(0.591101699232965 0.000390493372811552 -1.23854507276036e-17)
(0.362350477340669 0.00191178327680513 -9.99499565661943e-18)
(0.591172408841963 0.000384121889848141 -9.02195589730255e-18)
(0.362363936633781 0.00201478068484482 -1.85443924487371e-17)
(0.591048390723147 0.000417632258744119 7.1302591297599e-18)
(0.362205056710558 0.00216157913819567 -2.54084770798384e-18)
(0.590811455510263 0.000435244141274462 2.15558499660564e-17)
(0.361804634424331 0.00224739370297667 1.4646957985345e-17)
(0.590525194705746 0.000444669268250946 2.12806413270193e-17)
(0.361277770257954 0.00228908306156313 3.47206195030442e-17)
(0.590219072996397 0.000451360837420806 1.47302638610717e-17)
(0.36070134056962 0.00231082792593588 1.71671510737931e-17)
(0.589904216603173 0.000457142886912121 6.87949455449307e-18)
(0.360104006218199 0.00232589529711699 3.16663916074062e-17)
(0.589582840375821 0.00046229574567136 -1.34035740227904e-17)
(0.359493621098214 0.00233881616131472 1.97473040920127e-18)
(0.589253730241094 0.000467013054139373 1.04161310424622e-17)
(0.358870721061843 0.00235069262431716 -1.98209718843026e-17)
(0.588916290838421 0.0004716670682141 6.97640142539173e-17)
(0.358233978632461 0.00236245316777525 5.89522638484468e-17)
(0.588570151710516 0.000476458257257025 8.58393116611362e-17)
(0.357582595763635 0.0023744558400926 1.03776104083463e-16)
(0.588216359167252 0.000481063016905271 4.74391752466738e-17)
(0.356916612076281 0.00238699664185171 7.4205722794575e-17)
(0.587852821832754 0.000485268722525162 2.75508359730048e-17)
(0.356235193088597 0.00239882681309289 1.8422250197163e-17)
(0.587478984560655 0.00048936669485408 1.24568758360566e-17)
(0.355536646699321 0.00241054278655397 7.54024391006929e-18)
(0.587094502042819 0.000493624680391303 4.46725664388839e-18)
(0.354820065272292 0.00242242805273453 -4.36843950959853e-17)
(0.586700059760627 0.000497974600813559 3.71167861427554e-17)
(0.354085496354842 0.00243496827487436 5.04592550479553e-17)
(0.586294642231616 0.000502119636813376 4.03391699556067e-17)
(0.353332326987815 0.00244752797677868 3.03340572907242e-17)
(0.585877189734729 0.000506106003439144 2.22940689061023e-18)
(0.352559079664492 0.00245988450432825 -1.94799524125017e-17)
(0.585447169697687 0.000510278966364694 -2.13772090763223e-17)
(0.351764627893096 0.00247246819003368 -5.99201270711215e-17)
(0.585004386270077 0.0005148152852008 -2.84749640135104e-17)
(0.350948208639604 0.00248580560835873 -3.08936896615275e-17)
(0.58454932502737 0.000519335201470336 -1.64599793630703e-17)
(0.350109531208293 0.00249997724345363 -8.43785014413541e-17)
(0.584080256472951 0.000523644362501506 -1.20084988194659e-17)
(0.349247567485375 0.00251381824217217 2.03964252330025e-17)
(0.583596626828876 0.000528148369129561 -1.02683697765265e-16)
(0.348360573558659 0.0025279656290244 -4.73488000155706e-17)
(0.583097760948087 0.000533332658908005 -1.12708900737842e-16)
(0.347447522173254 0.00254296518360375 -2.28981388201962e-16)
(0.58258479365479 0.00053889935296439 -3.53546654249912e-18)
(0.34650825628323 0.00255976906567517 -8.81727860179621e-17)
(0.582055807488558 0.00054431542927504 -8.46101851670051e-18)
(0.345541775991445 0.00257660168140448 -3.3860759932532e-17)
(0.581509849116808 0.000549876254380815 -5.40858941694704e-17)
(0.344546146719068 0.00259367660168747 -1.35949711676244e-16)
(0.58094611862115 0.000556238726012261 -5.20242833800992e-17)
(0.343519833270701 0.00261173427518443 -9.28976767681617e-17)
(0.580365394077675 0.000563579807486981 -7.097021648623e-17)
(0.342462329858967 0.00263196643173786 -1.07368165313107e-16)
(0.579768074618401 0.000571241426264733 -6.89337780657348e-17)
(0.341373639099591 0.00265388077881048 -1.75601616001555e-16)
(0.579151715729459 0.000579066359993044 -1.22526477321578e-16)
(0.340252349417979 0.0026759937227598 -8.96355193141348e-17)
(0.578515444421639 0.000587930584893857 -1.45601960113154e-16)
(0.33909563832421 0.0026994361312599 -1.51035450749038e-16)
(0.577858848776908 0.000599184795124148 1.66720010299365e-19)
(0.337902936666779 0.00272560191611446 5.43279880911897e-17)
(0.577186745819142 0.000611818928359275 6.69719273972784e-17)
(0.336675921964389 0.00275749710177815 9.70023793132101e-17)
(0.576494507710122 0.000624584859132463 6.95900722603841e-17)
(0.335414133588331 0.00278907524639034 5.53535987498932e-17)
(0.575781828203287 0.000638851110734278 1.18839246995569e-16)
(0.334114637420091 0.00282260913310052 2.03190195574169e-16)
(0.575048195170531 0.000656981864925607 1.15744612754571e-16)
(0.332776535188029 0.00286007831470017 2.75895182153411e-16)
(0.574299791951274 0.000678923031604305 -9.79995706591587e-18)
(0.33140349367226 0.00290678783834878 9.19349775862571e-17)
(0.57353592693366 0.000702176554922157 -1.10734513475699e-16)
(0.329997785471945 0.00295754282878017 -1.36172980800817e-16)
(0.572754618199731 0.000726951581357557 -1.37908412522754e-16)
(0.32855857015323 0.00300982203533486 -2.02562177599305e-16)
(0.57195684169403 0.000756805438036114 -8.95464681767313e-17)
(0.327084736060283 0.00306703842612187 -2.45723314220915e-16)
(0.571147612463167 0.000795424164782575 3.63003730965487e-17)
(0.325582372613606 0.00313640161995393 -1.31644285208274e-17)
(0.570339478812472 0.000838658956094108 4.81274035235148e-18)
(0.32406093782729 0.00322270888361081 7.57064306508047e-17)
(0.569525496095249 0.000882889327473737 -7.4353749739492e-17)
(0.322525548068073 0.00330828917356523 -1.46959602583885e-16)
(0.568710859403 0.000933374491077304 -2.3069066122492e-17)
(0.320975469427834 0.00339987449577138 -1.55965314832287e-16)
(0.567898219229297 0.00100148535064719 -5.52972918227307e-17)
(0.31942244036508 0.00350632845545297 7.36425687403442e-17)
(0.567123207291139 0.00108139463797133 -1.35985572448122e-16)
(0.317890503624146 0.00365486676975828 6.88938175487616e-17)
(0.566375798244237 0.0011620465583083 -7.1994847860057e-17)
(0.316395984976394 0.00380043792411236 -9.64815927290224e-17)
(0.565667594888761 0.00125086342449621 -1.29576624872343e-17)
(0.314950087596854 0.00395326004318638 -2.27947814393943e-17)
(0.565011122187738 0.00136380854888569 3.63133665686338e-17)
(0.313570208767359 0.00412633198361959 -3.1286949656202e-17)
(0.564448533712135 0.00150452947635392 1.10709429283337e-16)
(0.312307362659927 0.00435571306675216 1.73785691797305e-16)
(0.564008535042387 0.00165381701219965 8.1484070131369e-17)
(0.311202759906237 0.00461749592513728 2.7421250748674e-16)
(0.563703820025383 0.00180806168114087 -6.41006815104957e-17)
(0.310303682786719 0.00487556403693268 5.0407819172265e-17)
(0.563587753449596 0.00199794539744889 -8.33837475712389e-17)
(0.309645700893865 0.00515643500217333 -1.7046940416171e-16)
(0.563787034710383 0.00231708573044301 7.98703443461618e-17)
(0.309380539362399 0.0055287124257009 -2.62624916851427e-17)
(0.56475454613304 0.00277137097405901 1.89751347688784e-16)
(0.309851030314947 0.00621546403080625 2.05604152166114e-16)
(0.566764165202752 0.00331038576660882 1.06389200293158e-16)
(0.311535171087578 0.00701534332614999 2.78455196423726e-16)
(0.570125863740704 0.00398641408886728 -7.11391735010849e-17)
(0.314823010447908 0.00797216765664094 1.03106836515084e-17)
(0.575005543218274 0.00497536450229261 -5.2391991270551e-17)
(0.320298355755706 0.0092002571335348 -1.76251139611002e-16)
(0.581936611101629 0.00606819497226546 -5.98315674266223e-17)
(0.328500446824335 0.01110198265121 8.68659304903729e-17)
(0.590678818158646 0.00696468993643455 -1.091181975936e-16)
(0.339677621803399 0.0126260333393172 -2.01713191469248e-16)
(0.601337217638621 0.00776139417055956 -1.19239368796072e-17)
(0.354010690763974 0.0138909384347948 -1.1542098119911e-16)
(0.613921629771501 0.00861568332805467 -7.88153602181742e-18)
(0.371617837567458 0.0150533219332501 6.95181048250287e-17)
(0.628739232535428 0.00936203410803064 -9.79607544900264e-17)
(0.392704449071362 0.0164170627688344 -9.57800658317586e-17)
(0.645490854373727 0.00975077531907815 -9.36741475999276e-17)
(0.417162888295258 0.0171631290025522 -2.97054755868183e-16)
(0.66401483773462 0.00988838599428312 -1.77258742665013e-16)
(0.444792308094543 0.0173605552976605 3.38369430837481e-17)
(0.684086222350383 0.00991152136454908 -1.94682295339726e-16)
(0.475247573476359 0.0172507444674963 -5.18972520296966e-16)
(0.705632126318203 0.00969981412858857 -1.56955623496194e-17)
(0.50815788434497 0.0170024708145908 -1.53564670070022e-16)
(0.728172106037517 0.00915246277590728 -6.79576802327645e-17)
(0.543039998850367 0.0160862445447851 9.54813474142873e-17)
(0.75143367209885 0.00841350619625018 -2.09704907009635e-17)
(0.579415056091952 0.0147535265748119 -1.53975701922692e-16)
(0.775173514031452 0.00753962593768483 6.37961423422607e-17)
(0.616719648741807 0.0131914528249267 2.8540985743063e-16)
(0.799190453371601 0.0065206746830653 -4.94248128779127e-17)
(0.654557510169885 0.0114022216045325 -1.88251273041503e-17)
(0.823246767749844 0.00541242646194558 -1.43425103130334e-17)
(0.692594450696636 0.00936922401310826 -1.73257113641711e-16)
(0.847252115800484 0.0042849446781824 -1.74081745846989e-18)
(0.730580142452795 0.00729838075441805 -9.26122421866917e-17)
(0.871140719089615 0.00313828318200556 -7.69176006567924e-17)
(0.7682660317152 0.00521036758395927 1.02834865998652e-16)
(0.894793530604818 0.00203607503811359 -1.24321056376863e-16)
(0.80558834625372 0.0030814767369974 -1.75620248345501e-16)
(0.918360033721254 0.00103978086740901 -4.33477374197887e-17)
(0.84256165737747 0.00115680934039205 -9.12178453451988e-17)
(0.941935521891953 0.000142781245405972 -5.99639403528464e-17)
(0.879315800213424 -0.000610856272641287 1.52610641730702e-16)
(0.965574057848569 -0.000616107117771769 -3.87747742290285e-17)
(0.916056621890087 -0.00221944559959136 -1.62146576566873e-16)
(0.989428332944414 -0.00123795445559443 8.62766765660221e-17)
(0.952852624431071 -0.00356224054047925 2.21056202721008e-16)
(1.01397376668781 -0.00171996291241818 4.08176494226066e-17)
(0.990424996132281 -0.00470254567105461 1.23806018689821e-16)
(1.03927259648121 -0.00200199208955536 -1.11916025542634e-18)
(1.02865419488662 -0.00558204271098984 -6.75513257360427e-17)
(1.06602983281177 -0.00202189590319242 -2.6467198867195e-17)
(1.06976191583413 -0.00615710911630832 5.9755631621996e-17)
(1.09333596965696 -0.0021407169016149 -1.75520494623253e-17)
(1.10973828757459 -0.00627302227248128 -6.0484390831862e-17)
(1.12147073838354 -0.0010905008208998 2.35846245886023e-17)
(1.15925256547384 -0.0063259607334984 -9.84303209491905e-18)
(1.12147243297614 -0.000128007053125645 4.3107867389187e-17)
(1.1798224567952 -0.00104927031615606 1.04285655454604e-16)
(1.12420410142675 6.11055037210294e-05 4.99435396912831e-17)
(1.1746891800192 -0.000771111378809061 -2.85492451992259e-17)
(1.12519096642114 0.000272019380381444 -1.71232428806807e-17)
(1.17860775306836 -0.000161239100991483 3.43859916840334e-17)
(1.12632328017817 0.000433968846770229 -7.79206499489964e-17)
(1.17804988823027 9.89921179859125e-05 -1.04793795359611e-16)
(1.12684284935081 0.000560386147210854 -5.35514562279996e-17)
(1.1788987867044 0.000446527019970939 -1.13903501596257e-16)
(1.1271248218016 0.000597239875044111 -2.63411077691169e-17)
(1.17869452920836 0.000589321191592883 -5.38807615419816e-17)
(1.12720430920251 0.00062164959222289 3.73284629630014e-19)
(1.17868448311932 0.000687807270557553 -2.98131510814569e-18)
(1.12715127648012 0.000625315795619053 3.51464803561561e-17)
(1.17842528485477 0.000756126709319768 5.14470228335579e-18)
(1.12701053610681 0.000607036527821795 5.61560368030968e-17)
(1.17812956511254 0.000784413101347667 8.94149512539306e-17)
(1.12683144810236 0.000580037831049432 2.49225263819415e-17)
(1.17778243221666 0.000786507066677589 4.259317397252e-17)
(1.12663290446633 0.000539536159788281 2.778636422309e-18)
(1.17743367903126 0.000775284928714828 9.22748153096142e-18)
(1.12638900036463 0.000489915783477469 -1.50316830506833e-18)
(1.17703015653952 0.000730605940063705 9.06463984595614e-19)
(1.1259706654932 0.000460043766598396 1.37459859011178e-18)
(1.17670704006863 0.000678276420861776 -6.76618695390991e-18)
(1.17588271881726 0.000533456620131405 1.00339975352185e-17)
(0.129108218730941 0.00345720825420318 -8.27988124856731e-18)
(-0.0218259757870259 0.00523862321990047 -7.95214137469124e-18)
(0.130055187557845 0.00395335881431355 -1.61998838434176e-17)
(-0.0190963653472711 0.00576325114963481 -1.45183231972326e-17)
(0.130158533421009 0.00431198001649183 -1.20500307524526e-17)
(-0.0191942122321589 0.0064617879275607 -1.59849277882706e-17)
(0.12973608425499 0.00455641731191853 4.99871401903569e-18)
(-0.0196434886407094 0.0069705003499647 -4.01471429701816e-18)
(0.129055690737728 0.00468401635687636 2.79009408191912e-17)
(-0.0204190789706227 0.00723329916633271 1.13996831542878e-17)
(0.128263441252164 0.00474569696605324 3.06322407168229e-17)
(-0.0213554424014311 0.00735294557355585 3.69649640482452e-17)
(0.127423080849737 0.00477973357062634 3.42705050895621e-17)
(-0.0223577957343426 0.00741035218805872 1.09360198464012e-17)
(0.126558123269672 0.00480442997042548 2.68282911916214e-17)
(-0.0233918175339677 0.00744574188941681 3.69191213996121e-17)
(0.12567454050325 0.0048262833842568 -4.43353943330046e-18)
(-0.0244480199975368 0.00747463757070636 1.87845510749161e-18)
(0.124771902691514 0.00484741916146136 2.90266819125749e-17)
(-0.0255255412005874 0.00750185755321808 -2.40835808363504e-17)
(0.123849042537426 0.00486874994836092 9.32272331424958e-17)
(-0.0266258188358816 0.00752909746772153 4.83905916072904e-17)
(0.122905264714819 0.00489059994920268 9.21111397698797e-17)
(-0.027749944038676 0.00755699500816862 9.95943986733985e-17)
(0.121940241799756 0.00491249241593073 4.50349423867633e-17)
(-0.028898381964739 0.00758554754142423 6.58119282909898e-17)
(0.120951889272233 0.00493410353639099 -1.80321842648388e-18)
(-0.0300724784750868 0.00761392178272062 2.42893345169118e-17)
(0.119938717698295 0.00495586194822244 -4.91209137574583e-17)
(-0.0312743366804687 0.00764237573356467 -5.21491632815032e-17)
(0.118899869239517 0.00497819445739185 2.53907215822852e-18)
(-0.0325053254087393 0.00767139581146578 -4.95028655645448e-17)
(0.117834968181987 0.00500102937644976 4.36642556525125e-17)
(-0.033766060288338 0.00770131676964041 6.19768615807748e-17)
(0.11674255615138 0.00502395614121818 -3.004811679929e-17)
(-0.0350576081457104 0.00773169651273724 -8.64863223905343e-18)
(0.11562074865759 0.00504708488059324 -8.22496819457677e-17)
(-0.0363819551770674 0.00776228988910898 -1.21728025793632e-16)
(0.114468155902027 0.00507095213844585 -6.9645447008319e-17)
(-0.0377409829300412 0.00779354268567091 -1.40282905775647e-16)
(0.113284020111898 0.00509586306926086 -8.72939067901976e-17)
(-0.0391359475129729 0.00782605912648422 -3.85572984847332e-17)
(0.112067570721928 0.00512128128790027 -4.7405829985971e-17)
(-0.0405676611361871 0.00785978396463488 -1.34031823873427e-16)
(0.11081643392567 0.00514695120580904 -1.5157245144253e-17)
(-0.042037944715817 0.00789385692719105 9.6650712509063e-18)
(0.109528732908729 0.0051735359011031 -1.74588353300732e-16)
(-0.0435493911928158 0.00792870221828564 -6.86038382213753e-17)
(0.108203323770081 0.00520183822792042 -2.04543039025393e-16)
(-0.0451037873105135 0.00796518136541459 -2.37953596387463e-16)
(0.106839960539853 0.00523143432513643 -1.18975382778078e-16)
(-0.0467017796718225 0.00800392872642911 -1.44519347342789e-16)
(0.105436099201995 0.00526152849414523 -1.62509895194575e-16)
(-0.0483449701450085 0.00804358029503127 -1.75547502941341e-16)
(0.10398919861806 0.00529263914223005 -1.75283552210698e-16)
(-0.0500364288616452 0.00808409841857862 -3.08655771456348e-16)
(0.102497582213518 0.00532588228310021 -1.48805631238931e-16)
(-0.0517787157521116 0.00812648884596938 -1.72905020674241e-16)
(0.10096097749706 0.00536162831961704 -2.129712495346e-16)
(-0.0535729495404334 0.00817194210858017 -2.02368592290787e-16)
(0.0993782953680133 0.00539885718137865 -1.9668445137784e-16)
(-0.0554197746433834 0.00821994494436835 -2.50236695509198e-16)
(0.0977461594655082 0.00543740063413598 -1.18330277745578e-16)
(-0.0573217788646577 0.00826923936719828 -1.55477677152322e-16)
(0.0960621229003145 0.00547880809351066 5.05952343194206e-17)
(-0.0592828012841988 0.00832079134943696 -9.70948352932119e-17)
(0.0943259813194039 0.00552544947818754 1.52073103864519e-16)
(-0.0613045441654146 0.00837681045679034 1.57338699966435e-16)
(0.092540541563847 0.00557569545045339 8.53255773105957e-17)
(-0.0633849306892003 0.00843937151066326 8.73013664964653e-17)
(0.0907013325260211 0.00562753773764291 1.90078008483632e-16)
(-0.0655249126670854 0.00850353467842602 7.56719957240267e-17)
(0.0888057383585705 0.00568342753617389 3.61679130926506e-16)
(-0.0677293702516486 0.00857059782147663 2.97184572380504e-16)
(0.0868543263415516 0.0057475880991786 2.52029523382191e-16)
(-0.0700001339240955 0.00864398223225345 3.70951636407019e-16)
(0.0848535083552666 0.0058200349699334 -3.54423285515057e-17)
(-0.0723323386694262 0.00872839819348405 7.62709518753337e-17)
(0.0828035869963004 0.00589650338979408 -2.28803718176586e-16)
(-0.0747216563353265 0.00881912434532357 -1.82417873577777e-16)
(0.0807016149213386 0.00597751415604524 -3.11333135684049e-16)
(-0.077170329339575 0.00891307685647144 -2.99445219326429e-16)
(0.0785491164153257 0.0060695174686771 -1.68729769994661e-16)
(-0.0796809779304071 0.0090142429094241 -3.14164491458291e-16)
(0.0763573099213497 0.00617920225164976 2.65751145357417e-17)
(-0.0822463720423249 0.0091316136267972 -8.65131969594166e-18)
(0.0741423480348273 0.00629922301662962 -7.73819370944306e-17)
(-0.0848482723194114 0.00926823419386757 8.51114336525548e-17)
(0.0719013256342681 0.00642325330989251 -2.29265799750473e-16)
(-0.08747884821163 0.00940761045777586 -3.07365998806836e-16)
(0.0696387143528008 0.00656092779733289 -5.83607144450755e-17)
(-0.090141766137511 0.00955396317174923 -1.40847094785294e-16)
(0.0673748164409955 0.00673304399418486 1.98856787900633e-16)
(-0.0928258476016837 0.00972292938648167 1.74088824005369e-16)
(0.0651596715106284 0.00692897998519042 1.08605505530356e-16)
(-0.0954829296488125 0.00993689061975236 3.27859996832969e-16)
(0.0629973112882344 0.00712846768131224 -4.68251660894613e-17)
(-0.0980807685567822 0.0101537320665576 1.22676096318857e-16)
(0.0609027966906032 0.00734505264683613 -4.12769345376352e-17)
(-0.100615489182227 0.0103774247612811 -4.44829954444303e-17)
(0.0589164861972629 0.00760849824445132 1.07499628742313e-16)
(-0.103063664157376 0.0106293668741283 -8.28223938908721e-17)
(0.0571254186523874 0.00792524407286108 3.38678006462178e-16)
(-0.10534260516696 0.0109461912029755 3.65584466966116e-16)
(0.0555968068109852 0.00825935184194822 2.42563019825881e-16)
(-0.107356855416714 0.0113009843564782 5.67180317719558e-16)
(0.0543648176348093 0.00860424209186431 -5.71224712612102e-17)
(-0.109051151762052 0.0116537251354672 8.87975367220262e-17)
(0.0535184106641044 0.00902070149415486 -1.1266565140676e-16)
(-0.110387232051127 0.0120287731180692 -2.14686001985588e-16)
(0.0533270205637844 0.00968605069030903 1.00843397007956e-16)
(-0.111220959263176 0.0125380037028678 -5.75307033239555e-17)
(0.0544247934847132 0.01061198607772 2.95142891896717e-16)
(-0.111015522083293 0.0133951687931977 2.7518223239193e-16)
(0.0572851094600861 0.0117004339466673 1.81229854925879e-16)
(-0.109111926700362 0.0144133279368932 4.17719654169282e-16)
(0.0624588558846957 0.0130489994465853 -9.59189178667134e-17)
(-0.105038401170528 0.0155944304814816 1.57998415604017e-17)
(0.070743422611845 0.0149735479580823 -3.5591435214261e-17)
(-0.0980980590760921 0.0171577907547049 -2.46436769593289e-16)
(0.0833741495595354 0.0170590598135333 -5.62852347629972e-17)
(-0.0868074914084203 0.0194005078837127 6.82276650428671e-17)
(0.100304680457251 0.0187229740019568 -2.08123873330179e-16)
(-0.0704170054851485 0.021227014592833 -2.85015919547882e-16)
(0.121563075857342 0.0201388377494018 -3.33754217177346e-17)
(-0.0491657153282711 0.0226300952856107 -2.34044042775188e-16)
(0.147449026886958 0.0215971393605738 -1.89630440463379e-17)
(-0.0229387430019249 0.0239032208445859 3.66547661312004e-17)
(0.178556273155578 0.0227654908952515 -2.962741680971e-16)
(0.00908936536195599 0.0252654122234894 -1.86344277296448e-16)
(0.214307253153714 0.0231721166833827 -1.6920486464523e-16)
(0.0469642203536699 0.0258512293508115 -5.08370500999672e-16)
(0.254069683347926 0.0230241008728501 -3.09278459304918e-16)
(0.0897327159230423 0.0256679235762533 9.79109605354491e-17)
(0.297483324018418 0.0225809396762302 -4.78489439578722e-16)
(0.136781840608273 0.0250692373297344 -7.37465759344236e-16)
(0.34429257542789 0.0216120017256391 -4.23654272046683e-17)
(0.187993748968192 0.0241741941691549 -8.98045518344424e-17)
(0.393445668257428 0.0199473588217358 9.53942336926144e-18)
(0.242578324183942 0.0224498055252643 1.01231499078513e-16)
(0.444152855992116 0.0178729134675956 1.52622973217764e-16)
(0.299287681534411 0.0201554130321854 -1.19885378701424e-16)
(0.495877351907773 0.0155076173667021 2.02923122576001e-16)
(0.357398538889932 0.0175478228588079 5.95875597291076e-16)
(0.548091911043383 0.0128463764593358 -1.42542341567253e-16)
(0.416367278910285 0.0146323564813862 -2.72123317242597e-17)
(0.600251145363811 0.0100116779379536 -2.51120571995665e-16)
(0.475497779116168 0.0114265911231752 -3.42802487086313e-16)
(0.65210454739488 0.00714230765829496 1.17814871994869e-17)
(0.534332561907977 0.00816643266188783 -3.86448402174534e-16)
(0.703436491110145 0.0042471044845588 3.78595667088091e-18)
(0.592641839293359 0.00488061533185703 2.25925367389376e-16)
(0.754038731977948 0.00146104252279152 -1.42385713090141e-16)
(0.650101497604234 0.00158524527316046 -1.21728440133738e-16)
(0.804161978821945 -0.00110297301570439 1.04133161436914e-16)
(0.70671837945542 -0.00145963116483459 3.90079022277379e-17)
(0.85402883139835 -0.00346324505792417 4.90841123975278e-17)
(0.76285004236141 -0.00429346702014048 3.37736041031278e-16)
(0.903804326408913 -0.00554572039497809 9.74425825942282e-17)
(0.818722340726737 -0.00691614301272177 -1.22970396727891e-16)
(0.953933509973967 -0.00734938009415274 2.56631851506957e-16)
(0.874422750694212 -0.00920649433173051 3.32674623537453e-16)
(1.00514088856954 -0.00888771667232749 1.50715011415291e-17)
(0.931113398656684 -0.01124444522565 2.48193237600677e-16)
(1.05805873395848 -0.0100591373601762 -6.06150436525648e-18)
(0.988462758771487 -0.0129543784111909 -2.46002081079105e-16)
(1.11352439995811 -0.0107216646571482 2.43165237512048e-17)
(1.05006112339199 -0.0143430598508273 1.2409069396954e-16)
(1.17194514642905 -0.0109210433726622 -5.19703894042279e-17)
(1.11000328306742 -0.0150651057459477 -1.22166774281634e-16)
(1.22635723670223 -0.00593157057005923 7.04063999750293e-17)
(1.18483617567124 -0.0147004466538692 -2.12918446362228e-17)
(1.22782521513765 -0.00108736645440745 3.28324699783823e-17)
(1.21487172201401 -0.00144778242267896 2.09656722356769e-16)
(1.22906748716425 -0.000467820335146737 -4.28274509958642e-17)
(1.20512828807862 -0.00102237083650898 -6.32343390891864e-17)
(1.22938480075024 2.94223429889654e-05 -5.28573190396414e-17)
(1.21004418153466 -0.000213759382047265 6.99722204523896e-17)
(1.2295086386881 0.00041358491217214 -1.40033577468166e-16)
(1.20808187500858 0.000121727943841762 -1.16375600741468e-16)
(1.22941165877346 0.000709410935315111 -1.13480266446197e-16)
(1.20869166614538 0.000536005061657845 -1.38431883219744e-16)
(1.22914059533882 0.000841985771476259 -3.04326762105809e-17)
(1.20804946333253 0.00072462878803982 -1.29176698735365e-17)
(1.2287731633401 0.000937377819900888 1.78270412729588e-18)
(1.20777911270258 0.000848045664288908 -3.67351155705435e-18)
(1.22834294513833 0.0009921871585307 5.924330011232e-17)
(1.20726662625287 0.000931826002302633 9.41547706371326e-18)
(1.22787041065654 0.00100435780217457 7.56071594229321e-17)
(1.20680076018715 0.000968597954071859 1.35036228547613e-16)
(1.22737924426727 0.000996759465949635 2.68473752879505e-17)
(1.20627730826546 0.000972547552820378 3.80136509048271e-17)
(1.22689213208142 0.000961728854422419 7.30322519118387e-18)
(1.20579230310098 0.000957085045401072 1.70203838034874e-17)
(1.22641080450386 0.000907474878066215 -4.33806488577003e-18)
(1.20526073679994 0.000903524854442763 1.30576961956585e-18)
(1.22594934781002 0.000849215887183282 1.91282281788577e-18)
(1.20493391021113 0.00083403707092713 -2.76947113224621e-18)
(1.20441961210518 0.000618040970348644 1.81806803599543e-17)
(-0.171488775615211 0.00764960847152895 -1.42455558751731e-17)
(-0.242956135946553 0.00854469975006431 -1.35187646490023e-17)
(-0.170670348004915 0.00846286889170217 -1.42937580850658e-17)
(-0.24153982864048 0.00943091146308603 -1.67339128515027e-17)
(-0.17094843271138 0.00937579005304941 -7.89501315901484e-18)
(-0.242298979331833 0.0108887761920948 -5.46286055230428e-18)
(-0.171760830669773 0.00991646625910432 2.40399649606221e-18)
(-0.243242692072012 0.0117567972605693 -5.83576657169453e-18)
(-0.172798096318359 0.010176622225238 2.04736505849566e-17)
(-0.24434326607163 0.0121671632243279 1.90517657477676e-18)
(-0.173931375874009 0.0102959937505747 1.71203652159905e-17)
(-0.245521651192039 0.0123480808084563 1.55471816973348e-17)
(-0.175110794764961 0.0103581426873891 1.35120561201027e-17)
(-0.24673771046904 0.0124340029223339 -1.39482634246243e-17)
(-0.176318993419273 0.0104008854848684 1.17899129980879e-17)
(-0.247979646864523 0.0124865947761708 2.22541873433184e-17)
(-0.177551770060202 0.0104382081297786 -1.79193554722446e-17)
(-0.249245315727134 0.0125296138375613 1.17038176247558e-18)
(-0.178809639439007 0.0104745888988289 -4.75370662753487e-18)
(-0.250535481573541 0.0125706489257935 -6.19390201210777e-17)
(-0.180093891954117 0.0105114585053576 5.46457994943153e-17)
(-0.251851626709193 0.0126119788962456 2.6748057663513e-18)
(-0.181405456355584 0.0105491714973368 7.30940015881966e-17)
(-0.253194888526478 0.0126542511837202 8.27645471181664e-17)
(-0.182745310300167 0.0105873435916262 4.49603195274724e-17)
(-0.254566070362812 0.0126974505471548 6.14689640229246e-17)
(-0.184115381456763 0.0106257067104576 -2.64011276780617e-17)
(-0.255966595921063 0.0127409953995378 4.36549205774813e-17)
(-0.185517468193144 0.0106646084669054 -5.25445723278315e-17)
(-0.25739841040002 0.0127850456076321 -4.99150897061423e-17)
(-0.186952795931764 0.0107044340556533 1.0275924084549e-17)
(-0.258863025854968 0.012829982964313 -1.5141674431695e-18)
(-0.188422390570954 0.0107451516485457 9.27438866391864e-18)
(-0.260361495546987 0.012876069596317 5.62601105471432e-17)
(-0.189927942806412 0.0107864589850038 -1.01044553295907e-16)
(-0.261895144480577 0.0129230254680171 -2.83742173462792e-17)
(-0.191471576638489 0.0108284703017231 -1.80369404698905e-16)
(-0.26346595679047 0.0129706985561092 -1.67271896096377e-16)
(-0.193055072911959 0.0108716780301785 -1.09130274322211e-16)
(-0.265075928476055 0.0130194419044714 -1.78176879136183e-16)
(-0.194679677066696 0.0109163580683586 -8.55580905880907e-17)
(-0.266726577167651 0.013069733152424 7.37147144953415e-18)
(-0.19634686006389 0.0109621025081549 -7.67047741324309e-17)
(-0.26841913839915 0.0131215552435052 -2.36821606886748e-17)
(-0.198059161907688 0.0110087315662195 -4.41691183287457e-17)
(-0.270155645610945 0.0131743299077908 -1.75864583687258e-17)
(-0.199818975500952 0.0110568599151551 -1.32249581759976e-16)
(-0.271938723308019 0.0132283849915574 -6.63632967565185e-17)
(-0.201627848775653 0.0111072075382437 -1.7750263931618e-16)
(-0.273770405934228 0.0132844258352196 -1.63902646822353e-16)
(-0.203486937238918 0.0111594528371949 -2.01618384572786e-16)
(-0.27565184336468 0.0133429345510702 -1.68669726481668e-16)
(-0.20539898050319 0.0112129601431924 -3.22938123692753e-16)
(-0.27758492123996 0.0134029652823331 -2.91957646756754e-16)
(-0.207367078923517 0.0112682111153173 -3.06509697758354e-16)
(-0.27957277688866 0.0134644964977956 -4.11454701885579e-16)
(-0.209393411864843 0.0113262558299799 -2.2695584947767e-16)
(-0.281618180479785 0.0135283527279899 -2.20262549178479e-16)
(-0.211479058379749 0.0113874486676298 -2.39926232641725e-16)
(-0.283722703822106 0.0135954824881308 -2.93820106721255e-16)
(-0.213625896868886 0.0114509722061678 -2.08768867448695e-16)
(-0.285887570244672 0.0136655396770784 -2.23427682397769e-16)
(-0.215837537155149 0.0115167309754849 -1.34117499436226e-16)
(-0.288115615915589 0.0137376325360339 -2.18223466418082e-16)
(-0.218117021208671 0.0115862452925062 1.0349499958403e-17)
(-0.29041056652926 0.0138125296590819 -8.28050769062096e-17)
(-0.220464733580257 0.0116616022255103 9.20361028145273e-17)
(-0.292774477050706 0.013892063260288 7.74201530056342e-17)
(-0.222879346621207 0.0117414447823639 7.75696949067105e-17)
(-0.295205999861396 0.0139777675010852 7.05269157858365e-17)
(-0.225364844783977 0.0118240711231926 1.83571642752672e-16)
(-0.297706335916538 0.0140660039817673 6.11160271898408e-17)
(-0.227924650240703 0.0119117732550414 3.06490092773385e-16)
(-0.300280169159312 0.0141576916535752 1.86384481294911e-16)
(-0.23055783154291 0.0120084713202676 1.937975298822e-16)
(-0.302929400080255 0.0142557018783984 3.04252223500914e-16)
(-0.233258509343838 0.0121141773766829 -7.18831525028125e-17)
(-0.305649690422379 0.0143636570956896 5.87471776641142e-17)