/*--------------------------------*- C++ -*----------------------------------*\
| =========                 |                                                 |
| \\      /  F ield         | foam-extend: Open Source CFD                    |
|  \\    /   O peration     | Version:     4.1-20200408                       |
|   \\  /    A nd           | Web:         http://www.foam-extend.org         |
|    \\/     M anipulation  |                                                 |
\*---------------------------------------------------------------------------*/
FoamFile
{
    version     2.0;
    format      ascii;
    class       volSymmTensorField;
    location    "0.0490000";
    object      sigmaCauchy;
}
// * * * * * * * * * * * * * * * * * * * * * * * * * * * * * * * * * * * * * //

dimensions      [1 -1 -2 0 0 0 0];

internalField   nonuniform List<symmTensor> 
1952
(
(-5.58072e+08 106894 -3.91143 -1.95425e+08 -0.92915 -1.92855e+08)
(-5.39157e+08 -473248 -2.73349 -1.94315e+08 2.65293 -1.85027e+08)
(-5.16445e+08 12436.2 2.81326 -1.88951e+08 7.24695 -1.74064e+08)
(-4.82933e+08 -562936 8.18425 -1.8571e+08 -7.10161 -1.60522e+08)
(-4.38788e+08 -75021.5 -2.62621 -1.78488e+08 -17.9567 -1.43506e+08)
(-3.86437e+08 -450243 -13.0777 -1.73033e+08 1.87232 -1.23432e+08)
(-3.25432e+08 -153921 -2.9739 -1.63734e+08 26.5005 -9.95337e+07)
(-2.47635e+08 -269728 7.54291 -1.55981e+08 -1.34564 -7.30425e+07)
(-1.52967e+08 -103002 -1.46412 -1.44502e+08 -28.8789 -4.55442e+07)
(-2.31352e+07 136599 -9.57635 -1.35017e+08 14.1152 -1.19749e+07)
(1.36646e+08 215151 -0.335339 -1.20936e+08 32.2321 1.85644e+07)
(3.70115e+08 913157 6.21372 -1.10123e+08 -12.8874 6.72602e+07)
(6.45445e+08 838162 -0.83907 -9.16971e+07 -29.5138 1.06319e+08)
(9.77141e+08 2.06084e+06 -8.81086 -7.94342e+07 10.2575 2.0064e+08)
(1.17038e+09 2.26456e+06 -2.37266 -5.13774e+07 9.92684 2.86749e+08)
(-5.62632e+08 -197593 -0.945209 -1.97995e+08 4.20876 -1.96983e+08)
(-5.58641e+08 241507 -7.82877 -1.95434e+08 -0.943354 -1.92793e+08)
(-5.39682e+08 -942022 -5.4688 -1.94178e+08 2.63709 -1.84981e+08)
(-5.168e+08 95424.7 5.63052 -1.88717e+08 7.27781 -1.73809e+08)
(-4.83238e+08 -1.08234e+06 16.3674 -1.85374e+08 -7.03121 -1.60274e+08)
(-4.38745e+08 -2611.52 -5.25656 -1.77905e+08 -18.0078 -1.42977e+08)
(-3.86523e+08 -773821 -26.1535 -1.72391e+08 1.76206 -1.22784e+08)
(-3.25207e+08 -92026.1 -5.95874 -1.62765e+08 26.5635 -9.86051e+07)
(-2.4733e+08 -305332 15.0468 -1.54952e+08 -1.26267 -7.20545e+07)
(-1.52224e+08 125520 -2.92946 -1.43161e+08 -28.9666 -4.42921e+07)
(-2.21865e+07 645377 -19.0863 -1.33661e+08 14.0733 -1.06363e+07)
(1.38148e+08 863831 -0.65509 -1.19379e+08 32.3072 2.01047e+07)
(3.71609e+08 2.27098e+06 12.4173 -1.08688e+08 -12.9267 6.90143e+07)
(6.47388e+08 1.97571e+06 -1.6761 -9.031e+07 -29.619 1.08217e+08)
(9.79442e+08 3.9923e+06 -17.5195 -7.83684e+07 10.2973 2.02628e+08)
(1.1729e+09 3.30672e+06 -4.68846 -5.10112e+07 9.96093 2.88641e+08)
(-5.63201e+08 -398376 -1.89174 -1.97909e+08 4.21237 -1.96967e+08)
(-5.59008e+08 280512 -7.83297 -1.95326e+08 -0.946597 -1.92657e+08)
(-5.4001e+08 -931835 -5.46845 -1.94014e+08 2.63748 -1.84833e+08)
(-5.17023e+08 184760 5.6332 -1.88516e+08 7.2922 -1.73566e+08)
(-4.83409e+08 -1.03102e+06 16.3559 -1.85124e+08 -7.02715 -1.60018e+08)
(-4.3871e+08 141632 -5.26075 -1.7758e+08 -18.0364 -1.42599e+08)
(-3.8659e+08 -660996 -26.1486 -1.72041e+08 1.75731 -1.22316e+08)
(-3.25076e+08 100518 -5.97695 -1.62294e+08 26.6263 -9.79916e+07)
(-2.47132e+08 -120772 14.9833 -1.54471e+08 -1.25216 -7.14167e+07)
(-1.5177e+08 366008 -2.93171 -1.42588e+08 -29.0191 -4.35507e+07)
(-2.16097e+07 900200 -19.0016 -1.3313e+08 14.0921 -9.88139e+06)
(1.3906e+08 1.15145e+06 -0.631388 -1.18828e+08 32.3496 2.09139e+07)
(3.72438e+08 2.61141e+06 12.3927 -1.0826e+08 -12.963 6.98845e+07)
(6.48348e+08 2.25242e+06 -1.67497 -8.99828e+07 -29.6727 1.09105e+08)
(9.803e+08 4.22596e+06 -17.4894 -7.82018e+07 10.3243 2.03549e+08)
(1.17298e+09 3.36224e+06 -4.68576 -5.10927e+07 9.97969 2.89356e+08)
(-5.63577e+08 -403776 -1.89471 -1.97774e+08 4.21811 -1.96854e+08)
(-5.59278e+08 320483 -7.83677 -1.95163e+08 -0.948452 -1.92484e+08)
(-5.40233e+08 -915376 -5.46736 -1.93836e+08 2.64148 -1.84633e+08)
(-5.17161e+08 266064 5.63531 -1.88314e+08 7.30442 -1.73315e+08)
(-4.83489e+08 -982165 16.3405 -1.8491e+08 -7.03598 -1.59739e+08)
(-4.3861e+08 265510 -5.26495 -1.77336e+08 -18.0622 -1.42255e+08)
(-3.86549e+08 -547942 -26.131 -1.71792e+08 1.75627 -1.21946e+08)
(-3.24889e+08 274921 -5.99878 -1.62013e+08 26.6714 -9.75361e+07)
(-2.46873e+08 35934.7 14.9112 -1.542e+08 -1.24516 -7.09469e+07)
(-1.51314e+08 560428 -2.93432 -1.42308e+08 -29.0545 -4.3033e+07)
(-2.10216e+07 1.08675e+06 -18.9096 -1.32882e+08 14.0981 -9.36151e+06)
(1.3994e+08 1.34644e+06 -0.605406 -1.18604e+08 32.3699 2.14521e+07)
(3.73208e+08 2.79852e+06 12.3675 -1.08103e+08 -12.9914 7.05334e+07)
(6.49177e+08 2.36946e+06 -1.67377 -8.99057e+07 -29.7125 1.09765e+08)
(9.81098e+08 4.27308e+06 -17.4621 -7.81843e+07 10.3465 2.04296e+08)
(1.17338e+09 3.33651e+06 -4.69107 -5.11075e+07 9.99547 2.90102e+08)
(-5.63858e+08 -406203 -1.89613 -1.97617e+08 4.22397 -1.96696e+08)
(-5.59544e+08 364693 -7.8416 -1.95102e+08 -0.949716 -1.92412e+08)
(-5.40449e+08 -887442 -5.46598 -1.93763e+08 2.64364 -1.84536e+08)
(-5.17292e+08 347427 5.63749 -1.8823e+08 7.31142 -1.73177e+08)
(-4.83539e+08 -923040 16.3235 -1.84809e+08 -7.03966 -1.59573e+08)
(-4.38471e+08 385583 -5.26969 -1.77222e+08 -18.0759 -1.42032e+08)
(-3.86475e+08 -448543 -26.109 -1.71668e+08 1.75829 -1.21649e+08)
(-3.24687e+08 419457 -6.02174 -1.61887e+08 26.7061 -9.7183e+07)
(-2.46577e+08 157631 14.8359 -1.54076e+08 -1.24157 -7.05797e+07)
(-1.50828e+08 709187 -2.93724 -1.42196e+08 -29.0808 -4.2633e+07)
(-2.0398e+07 1.21668e+06 -18.8173 -1.3279e+08 14.0994 -8.95813e+06)
(1.40831e+08 1.46994e+06 -0.579743 -1.18548e+08 32.3799 2.18636e+07)
(3.73975e+08 2.88545e+06 12.3446 -1.0809e+08 -13.0143 7.10619e+07)
(6.49978e+08 2.40406e+06 -1.67262 -8.99333e+07 -29.7434 1.10316e+08)
(9.8182e+08 4.2819e+06 -17.4427 -7.82257e+07 10.3636 2.04926e+08)
(1.17365e+09 3.30676e+06 -4.69517 -5.11352e+07 10.008 2.90729e+08)
(-5.64138e+08 -404552 -1.89759 -1.97559e+08 4.2263 -1.96638e+08)
(-5.5975e+08 407652 -7.84629 -1.95079e+08 -0.950573 -1.92378e+08)
(-5.40609e+08 -863476 -5.46495 -1.93738e+08 2.64489 -1.84485e+08)
(-5.17373e+08 427306 5.63928 -1.88202e+08 7.31525 -1.73093e+08)
(-4.83541e+08 -867540 16.3038 -1.84768e+08 -7.04108 -1.59467e+08)
(-4.38307e+08 494552 -5.27466 -1.77188e+08 -18.0831 -1.41882e+08)
(-3.86359e+08 -372165 -26.0856 -1.71622e+08 1.7602 -1.21418e+08)
(-3.24459e+08 533793 -6.04767 -1.61844e+08 26.7325 -9.69041e+07)
(-2.46259e+08 242597 14.7525 -1.54034e+08 -1.23883 -7.02886e+07)
(-1.50343e+08 808373 -2.94057 -1.42173e+08 -29.1 -4.23191e+07)
(-1.97805e+07 1.28367e+06 -18.7192 -1.32787e+08 14.0996 -8.64041e+06)
(1.41689e+08 1.51919e+06 -0.551765 -1.18577e+08 32.3838 2.21873e+07)
(3.74684e+08 2.89997e+06 12.3233 -1.08148e+08 -13.0343 7.14964e+07)
(6.50723e+08 2.37424e+06 -1.67144 -8.99875e+07 -29.7669 1.10784e+08)
(9.82533e+08 4.24549e+06 -17.4254 -7.828e+07 10.3838 2.05478e+08)
(1.17402e+09 3.26437e+06 -4.69975 -5.11496e+07 10.0183 2.91327e+08)
(-5.64361e+08 -403602 -1.90102 -1.97541e+08 4.22659 -1.96618e+08)
(-5.59933e+08 444979 -7.85118 -1.95097e+08 -0.951275 -1.92383e+08)
(-5.40743e+08 -851117 -5.46304 -1.93753e+08 2.6453 -1.84472e+08)
(-5.17429e+08 493717 5.64147 -1.88218e+08 7.31731 -1.73048e+08)
(-4.8351e+08 -834093 16.2824 -1.84779e+08 -7.04097 -1.594e+08)
(-4.38117e+08 578234 -5.27981 -1.77212e+08 -18.0864 -1.41777e+08)
(-3.86231e+08 -325421 -26.0618 -1.71644e+08 1.76084 -1.21245e+08)
(-3.24234e+08 609623 -6.07451 -1.6187e+08 26.753 -9.66893e+07)
(-2.45937e+08 281968 14.6685 -1.54064e+08 -1.23755 -7.0059e+07)
(-1.49876e+08 851389 -2.94396 -1.42218e+08 -29.114 -4.20737e+07)
(-1.91838e+07 1.29382e+06 -18.6229 -1.32847e+08 14.1 -8.38968e+06)
(1.42514e+08 1.50744e+06 -0.523274 -1.18653e+08 32.3838 2.24424e+07)
(3.75373e+08 2.87421e+06 12.3027 -1.08236e+08 -13.0517 7.18511e+07)
(6.51458e+08 2.32141e+06 -1.67025 -9.00573e+07 -29.7832 1.11181e+08)
(9.83238e+08 4.20215e+06 -17.4068 -7.83425e+07 10.4067 2.05985e+08)
(1.17441e+09 3.21971e+06 -4.70369 -5.11658e+07 10.0271 2.91899e+08)
(-5.64561e+08 -405222 -1.9026 -1.97561e+08 4.22542 -1.96635e+08)
(-5.60086e+08 476273 -7.85641 -1.95163e+08 -0.951635 -1.92437e+08)
(-5.40849e+08 -851354 -5.46146 -1.9382e+08 2.64488 -1.84509e+08)
(-5.17463e+08 541997 5.64319 -1.88288e+08 7.31669 -1.73056e+08)
(-4.83464e+08 -826980 16.2603 -1.8485e+08 -7.03973 -1.5939e+08)
(-4.37922e+08 627442 -5.28507 -1.77296e+08 -18.0841 -1.41734e+08)
(-3.86091e+08 -315660 -26.0363 -1.71728e+08 1.76125 -1.2115e+08)
(-3.24008e+08 647082 -6.1033 -1.61961e+08 26.7652 -9.65544e+07)
(-2.45626e+08 279801 14.5812 -1.5416e+08 -1.23615 -6.99108e+07)
(-1.49426e+08 852566 -2.9476 -1.42323e+08 -29.1208 -4.19081e+07)
(-1.86077e+07 1.26491e+06 -18.523 -1.32958e+08 14.097 -8.21518e+06)
(1.43323e+08 1.46446e+06 -0.491651 -1.18767e+08 32.377 2.26295e+07)
(3.76041e+08 2.82246e+06 12.2789 -1.08348e+08 -13.0684 7.21546e+07)
(6.5217e+08 2.24166e+06 -1.66901 -9.0148e+07 -29.7954 1.11533e+08)
(9.8395e+08 4.14562e+06 -17.3896 -7.84103e+07 10.4308 2.06465e+08)
(1.17487e+09 3.17837e+06 -4.70688 -5.11836e+07 10.0348 2.92456e+08)
(-5.64731e+08 -410054 -1.90422 -1.9763e+08 4.22235 -1.96701e+08)
(-5.60232e+08 497128 -7.86159 -1.95286e+08 -0.951697 -1.92547e+08)
(-5.40949e+08 -869451 -5.45954 -1.93941e+08 2.64333 -1.84602e+08)
(-5.17495e+08 568257 5.64524 -1.88415e+08 7.31357 -1.73122e+08)
(-4.83413e+08 -847935 16.2373 -1.84972e+08 -7.03568 -1.59436e+08)
(-4.37724e+08 650249 -5.29068 -1.77432e+08 -18.0768 -1.41747e+08)
(-3.85956e+08 -337857 -26.0078 -1.71861e+08 1.7615 -1.211e+08)
(-3.238e+08 648150 -6.13242 -1.62103e+08 26.7726 -9.64713e+07)
(-2.45329e+08 242358 14.493 -1.54299e+08 -1.23512 -6.98126e+07)
(-1.49001e+08 819583 -2.95132 -1.42469e+08 -29.1237 -4.17943e+07)
(-1.80532e+07 1.20735e+06 -18.4236 -1.331e+08 14.0932 -8.08741e+06)
(1.44104e+08 1.39325e+06 -0.460196 -1.18903e+08 32.3673 2.27738e+07)
(3.76687e+08 2.75084e+06 12.2569 -1.08471e+08 -13.0866 7.24325e+07)
(6.52882e+08 2.16286e+06 -1.6677 -9.02429e+07 -29.8059 1.11871e+08)
(9.84691e+08 4.10104e+06 -17.3713 -7.84739e+07 10.4579 2.06956e+08)
(1.17537e+09 3.14433e+06 -4.70838 -5.11964e+07 10.0423 2.93039e+08)
(-5.64892e+08 -419722 -1.90685 -1.97753e+08 4.21732 -1.96823e+08)
(-5.60379e+08 512397 -7.86673 -1.95442e+08 -0.951607 -1.9269e+08)
(-5.41051e+08 -898499 -5.45764 -1.94096e+08 2.64123 -1.8473e+08)
(-5.1753e+08 579372 5.64715 -1.88576e+08 7.30907 -1.73223e+08)
(-4.83365e+08 -890255 16.2141 -1.8513e+08 -7.03035 -1.59518e+08)
(-4.37536e+08 642560 -5.29646 -1.77601e+08 -18.0666 -1.41798e+08)
(-3.85832e+08 -396185 -25.9803 -1.72024e+08 1.76233 -1.21082e+08)
(-3.23605e+08 616321 -6.16263 -1.6227e+08 26.7773 -9.64178e+07)
(-2.4505e+08 173403 14.403 -1.54458e+08 -1.2345 -6.97424e+07)
(-1.48592e+08 758838 -2.95517 -1.42631e+08 -29.1249 -4.17044e+07)
(-1.75189e+07 1.133e+06 -18.3213 -1.33244e+08 14.0877 -7.97852e+06)
(1.44876e+08 1.31979e+06 -0.426918 -1.19044e+08 32.3555 2.29062e+07)
(3.77342e+08 2.67511e+06 12.2313 -1.08585e+08 -13.1058 7.27274e+07)
(6.53606e+08 2.07575e+06 -1.66633 -9.03337e+07 -29.8175 1.12227e+08)
(9.85445e+08 4.05298e+06 -17.355 -7.85407e+07 10.4847 2.07455e+08)
(1.17591e+09 3.10066e+06 -4.7105 -5.12043e+07 10.0495 2.93636e+08)
(-5.65055e+08 -432419 -1.90662 -1.97909e+08 4.21134 -1.96977e+08)
(-5.60537e+08 515623 -7.87135 -1.95626e+08 -0.951361 -1.92861e+08)
(-5.41166e+08 -946510 -5.45617 -1.94275e+08 2.63867 -1.84885e+08)
(-5.17583e+08 567756 5.64892 -1.88758e+08 7.30381 -1.73349e+08)
(-4.8334e+08 -957807 16.1899 -1.85296e+08 -7.0236 -1.59622e+08)
(-4.37373e+08 614978 -5.30219 -1.77777e+08 -18.0557 -1.41864e+08)
(-3.85727e+08 -479554 -25.9504 -1.72176e+08 1.76316 -1.21054e+08)
(-3.23431e+08 558660 -6.19366 -1.62423e+08 26.7845 -9.63509e+07)
(-2.44788e+08 81390.1 14.3104 -1.54592e+08 -1.2328 -6.96523e+07)
(-1.48199e+08 686726 -2.95909 -1.4277e+08 -29.1286 -4.15915e+07)
(-1.69829e+07 1.04387e+06 -18.2163 -1.33379e+08 14.0833 -7.84585e+06)
(1.45632e+08 1.22955e+06 -0.395388 -1.19186e+08 32.346 2.30524e+07)
(3.77967e+08 2.58663e+06 12.213 -1.08742e+08 -13.1264 7.30076e+07)
(6.5433e+08 1.97604e+06 -1.66492 -9.0419e+07 -29.8295 1.12589e+08)
(9.86228e+08 4.01521e+06 -17.3352 -7.86171e+07 10.51 2.07901e+08)
(1.17652e+09 3.06095e+06 -4.71262 -5.12092e+07 10.0557 2.94193e+08)
(-5.65227e+08 -450394 -1.90864 -1.98093e+08 4.20461 -1.97159e+08)
(-5.60729e+08 519013 -7.87693 -1.95787e+08 -0.951475 -1.93008e+08)
(-5.41311e+08 -995798 -5.45411 -1.94429e+08 2.6367 -1.85015e+08)
(-5.17661e+08 560042 5.65097 -1.8892e+08 7.30071 -1.73447e+08)
(-4.83327e+08 -1.0269e+06 16.1646 -1.85448e+08 -7.01808 -1.59697e+08)
(-4.37228e+08 581643 -5.30822 -1.77948e+08 -18.0482 -1.41908e+08)
(-3.85648e+08 -575449 -25.925 -1.72349e+08 1.76351 -1.21028e+08)
(-3.23275e+08 485904 -6.22553 -1.62583e+08 26.793 -9.6279e+07)
(-2.44533e+08 -34241.4 14.2157 -1.54749e+08 -1.23481 -6.95578e+07)
(-1.47815e+08 567669 -2.96291 -1.42916e+08 -29.1336 -4.14747e+07)
(-1.64754e+07 909415 -18.1142 -1.33533e+08 14.0869 -7.71548e+06)
(1.46381e+08 1.07751e+06 -0.361803 -1.19309e+08 32.3409 2.3207e+07)
(3.78602e+08 2.49869e+06 12.1879 -1.08854e+08 -13.1391 7.32276e+07)
(6.55091e+08 1.90212e+06 -1.6638 -9.04895e+07 -29.8333 1.12887e+08)
(9.87043e+08 3.97823e+06 -17.3069 -7.86795e+07 10.5408 2.08382e+08)
(1.17714e+09 3.02453e+06 -4.71372 -5.12275e+07 10.0621 2.9478e+08)
(-5.65434e+08 -468863 -1.91174 -1.98254e+08 4.19926 -1.97319e+08)
(-5.60932e+08 509561 -7.88246 -1.9596e+08 -0.951501 -1.93166e+08)
(-5.41465e+08 -1.068e+06 -5.45236 -1.94605e+08 2.63515 -1.85157e+08)
(-5.17757e+08 512865 5.65302 -1.891e+08 7.29677 -1.73565e+08)
(-4.83349e+08 -1.14512e+06 16.1413 -1.85644e+08 -7.01615 -1.59798e+08)
(-4.37123e+08 484258 -5.31404 -1.78146e+08 -18.0393 -1.41984e+08)
(-3.85603e+08 -713346 -25.896 -1.72555e+08 1.76185 -1.21099e+08)
(-3.23159e+08 379221 -6.25854 -1.62799e+08 26.7927 -9.63099e+07)
(-2.44338e+08 -174967 14.1234 -1.54968e+08 -1.23101 -6.95746e+07)
(-1.47479e+08 441439 -2.96727 -1.43128e+08 -29.1293 -4.14621e+07)
(-1.59932e+07 786448 -18.0072 -1.33712e+08 14.0755 -7.67505e+06)
(1.47153e+08 980759 -0.322599 -1.19465e+08 32.3228 2.32958e+07)
(3.79304e+08 2.40789e+06 12.1509 -1.08957e+08 -13.1585 7.35286e+07)
(6.55855e+08 1.79653e+06 -1.66228 -9.06084e+07 -29.8436 1.13235e+08)
(9.87865e+08 3.91643e+06 -17.2927 -7.87475e+07 10.5694 2.08935e+08)
(1.17782e+09 2.98716e+06 -4.71426 -5.12432e+07 10.0695 2.95431e+08)
(-5.65651e+08 -493075 -1.91379 -1.98426e+08 4.19371 -1.97489e+08)
(-5.61208e+08 487949 -7.88803 -1.96207e+08 -0.951218 -1.934e+08)
(-5.41699e+08 -1.15608e+06 -5.45099 -1.9484e+08 2.63201 -1.85373e+08)
(-5.17929e+08 444835 5.65521 -1.89336e+08 7.29092 -1.73749e+08)
(-4.83432e+08 -1.27857e+06 16.1171 -1.85848e+08 -7.00747 -1.59952e+08)
(-4.37051e+08 392514 -5.3201 -1.78349e+08 -18.0274 -1.42089e+08)
(-3.85564e+08 -876931 -25.8556 -1.72717e+08 1.76511 -1.21066e+08)
(-3.2305e+08 240637 -6.29156 -1.62973e+08 26.8017 -9.62484e+07)
(-2.44127e+08 -340848 14.0253 -1.55107e+08 -1.22977 -6.94844e+07)
(-1.47116e+08 317318 -2.97141 -1.43284e+08 -29.1353 -4.13449e+07)
(-1.54682e+07 665358 -17.8971 -1.33849e+08 14.0679 -7.53273e+06)
(1.47909e+08 869039 -0.291578 -1.19625e+08 32.3134 2.34532e+07)
(3.79921e+08 2.28793e+06 12.1389 -1.09134e+08 -13.186 7.38758e+07)
(6.56627e+08 1.68691e+06 -1.66063 -9.07015e+07 -29.8646 1.13692e+08)
(9.88748e+08 3.89846e+06 -17.2714 -7.88323e+07 10.5919 2.0944e+08)
(1.17854e+09 2.94732e+06 -4.71587 -5.12371e+07 10.0764 2.9605e+08)
(-5.65939e+08 -521698 -1.91532 -1.98671e+08 4.18642 -1.97734e+08)
(-5.61525e+08 473311 -7.89408 -1.96358e+08 -0.95193 -1.93533e+08)
(-5.41966e+08 -1.23512e+06 -5.44913 -1.94974e+08 2.63044 -1.85491e+08)
(-5.18132e+08 402446 5.65733 -1.89487e+08 7.29119 -1.73834e+08)
(-4.83528e+08 -1.38911e+06 16.0919 -1.85969e+08 -6.99988 -1.60012e+08)
(-4.37033e+08 304723 -5.32654 -1.78498e+08 -18.0258 -1.42116e+08)
(-3.85607e+08 -1.05481e+06 -25.8371 -1.72856e+08 1.76728 -1.20968e+08)
(-3.2299e+08 95032.3 -6.32557 -1.63087e+08 26.8239 -9.60912e+07)
(-2.43943e+08 -527381 13.9247 -1.55208e+08 -1.23202 -6.92976e+07)
(-1.46771e+08 132145 -2.97538 -1.43369e+08 -29.1523 -4.11261e+07)
(-1.49865e+07 474362 -17.7896 -1.33957e+08 14.0772 -7.30179e+06)
(1.48655e+08 667068 -0.256606 -1.19712e+08 32.3196 2.37107e+07)
(3.80612e+08 2.17974e+06 12.1085 -1.09235e+08 -13.1941 7.41456e+07)
(6.57481e+08 1.59146e+06 -1.65962 -9.07405e+07 -29.8713 1.14049e+08)
(9.89644e+08 3.85758e+06 -17.2424 -7.88953e+07 10.619 2.09948e+08)
(1.17928e+09 2.90629e+06 -4.71729 -5.12515e+07 10.0827 2.96655e+08)
(-5.66271e+08 -548730 -1.91821 -1.98815e+08 4.18331 -1.9788e+08)
(-5.61896e+08 441568 -7.89982 -1.96451e+08 -0.95295 -1.9361e+08)
(-5.42281e+08 -1.34304e+06 -5.44733 -1.95073e+08 2.63167 -1.85548e+08)
(-5.18382e+08 311537 5.65936 -1.89592e+08 7.29436 -1.73865e+08)
(-4.83698e+08 -1.55679e+06 16.0698 -1.86099e+08 -7.00448 -1.60025e+08)
(-4.37087e+08 148851 -5.33233 -1.78629e+08 -18.031 -1.4211e+08)
(-3.85672e+08 -1.26194e+06 -25.8077 -1.7301e+08 1.7636 -1.21e+08)
(-3.22949e+08 -80124.1 -6.3623 -1.63251e+08 26.8337 -9.60676e+07)
(-2.43808e+08 -738749 13.8252 -1.55393e+08 -1.22564 -6.92606e+07)
(-1.46465e+08 -68235.6 -2.98017 -1.43544e+08 -29.1551 -4.10517e+07)
(-1.45086e+07 280628 -17.6774 -1.34124e+08 14.0689 -7.20567e+06)
(1.49459e+08 498860 -0.214255 -1.19841e+08 32.3078 2.38613e+07)
(3.81333e+08 2.04707e+06 12.0725 -1.09335e+08 -13.2146 7.44753e+07)
(6.58308e+08 1.45713e+06 -1.65812 -9.08481e+07 -29.8836 1.14429e+08)
(9.90585e+08 3.7816e+06 -17.2255 -7.89673e+07 10.6488 2.10522e+08)
(1.18009e+09 2.86308e+06 -4.71846 -5.1268e+07 10.0907 2.97342e+08)
(-5.66658e+08 -582889 -1.92003 -1.98909e+08 4.18297 -1.9797e+08)
(-5.6236e+08 396956 -7.90588 -1.96646e+08 -0.953704 -1.93787e+08)
(-5.42692e+08 -1.47095e+06 -5.44664 -1.95254e+08 2.6305 -1.85707e+08)
(-5.18723e+08 188717 5.66205 -1.89786e+08 7.29463 -1.73992e+08)
(-4.83929e+08 -1.75288e+06 16.0481 -1.86265e+08 -6.99867 -1.60123e+08)
(-4.37189e+08 -19282.2 -5.33883 -1.78799e+08 -18.0293 -1.4217e+08)
(-3.85789e+08 -1.51936e+06 -25.7666 -1.73152e+08 1.76726 -1.20933e+08)
(-3.22959e+08 -311120 -6.39821 -1.63421e+08 26.8524 -9.59736e+07)
(-2.43692e+08 -995428 13.7234 -1.55539e+08 -1.22276 -6.91415e+07)
(-1.46158e+08 -286819 -2.98482 -1.43706e+08 -29.1678 -4.0898e+07)
(-1.40211e+07 84163.5 -17.5652 -1.34269e+08 14.0611 -7.03033e+06)
(1.50231e+08 319171 -0.179152 -1.19993e+08 32.3033 2.40653e+07)
(3.82045e+08 1.88461e+06 12.0487 -1.09492e+08 -13.2388 7.48654e+07)
(6.59199e+08 1.31611e+06 -1.65673 -9.09461e+07 -29.906 1.14924e+08)
(9.91572e+08 3.7429e+06 -17.2023 -7.90521e+07 10.6709 2.11115e+08)
(1.18095e+09 2.81872e+06 -4.72003 -5.1267e+07 10.0988 2.98041e+08)
(-5.67137e+08 -622598 -1.92376 -1.99097e+08 4.1801 -1.98159e+08)
(-5.62911e+08 351423 -7.91287 -1.96757e+08 -0.955254 -1.93879e+08)
(-5.43189e+08 -1.60288e+06 -5.44533 -1.95353e+08 2.63119 -1.85786e+08)
(-5.19138e+08 76587.2 5.66486 -1.89911e+08 7.3006 -1.74039e+08)
(-4.84226e+08 -1.9317e+06 16.03 -1.86354e+08 -6.99346 -1.60149e+08)
(-4.37396e+08 -187819 -5.34528 -1.78923e+08 -18.0378 -1.42172e+08)
(-3.85988e+08 -1.80421e+06 -25.7454 -1.7326e+08 1.76848 -1.20808e+08)
(-3.22997e+08 -562390 -6.43707 -1.63519e+08 26.8846 -9.5779e+07)
(-2.43593e+08 -1.27335e+06 13.6149 -1.55623e+08 -1.21721 -6.89254e+07)
(-1.45846e+08 -555238 -2.98979 -1.43779e+08 -29.1907 -4.06337e+07)
(-1.35306e+07 -171384 -17.4502 -1.34365e+08 14.0631 -6.75392e+06)
(1.51032e+08 72003.5 -0.140325 -1.20078e+08 32.3111 2.43819e+07)
(3.82788e+08 1.71614e+06 12.0195 -1.09605e+08 -13.2531 7.5253e+07)
(6.60136e+08 1.16303e+06 -1.65553 -9.09884e+07 -29.924 1.15403e+08)
(9.92615e+08 3.67421e+06 -17.1794 -7.91243e+07 10.6966 2.1171e+08)
(1.18184e+09 2.76592e+06 -4.72231 -5.12707e+07 10.107 2.98747e+08)
(-5.67708e+08 -664866 -1.92596 -1.99201e+08 4.1815 -1.98263e+08)
(-5.63559e+08 288070 -7.91919 -1.96786e+08 -0.95713 -1.93894e+08)
(-5.4377e+08 -1.7705e+06 -5.44369 -1.9539e+08 2.63558 -1.85777e+08)
(-5.19617e+08 -77609.6 5.66732 -1.8995e+08 7.31093 -1.73999e+08)
(-4.84589e+08 -2.16746e+06 16.0134 -1.86413e+08 -7.00385 -1.60082e+08)
(-4.37702e+08 -420250 -5.35119 -1.78996e+08 -18.0654 -1.42044e+08)
(-3.86269e+08 -2.11631e+06 -25.7143 -1.73358e+08 1.75895 -1.20722e+08)
(-3.23089e+08 -849723 -6.47907 -1.63607e+08 26.9183 -9.56168e+07)
(-2.43552e+08 -1.58476e+06 13.5058 -1.55743e+08 -1.2037 -6.87568e+07)
(-1.45585e+08 -863239 -2.99509 -1.43882e+08 -29.2107 -4.0414e+07)
(-1.30619e+07 -461701 -17.3349 -1.34497e+08 14.0587 -6.52263e+06)
(1.51848e+08 -201651 -0.0981406 -1.20173e+08 32.3143 2.46665e+07)
(3.83581e+08 1.51242e+06 11.9852 -1.09722e+08 -13.2717 7.56556e+07)
(6.61109e+08 979818 -1.65441 -9.10653e+07 -29.9428 1.15884e+08)
(9.93706e+08 3.57881e+06 -17.156 -7.92073e+07 10.7251 2.12344e+08)
(1.18283e+09 2.70219e+06 -4.72588 -5.12767e+07 10.1163 2.99518e+08)
(-5.68379e+08 -716584 -1.9275 -1.99235e+08 4.18692 -1.98292e+08)
(-5.64352e+08 215621 -7.92657 -1.96833e+08 -0.958979 -1.93931e+08)
(-5.44492e+08 -1.95434e+06 -5.44243 -1.95451e+08 2.64103 -1.85788e+08)
(-5.20222e+08 -263706 5.67071 -1.89998e+08 7.32178 -1.73979e+08)
(-4.85067e+08 -2.44653e+06 15.9958 -1.86488e+08 -7.019 -1.60029e+08)
(-4.38102e+08 -709525 -5.35781 -1.79064e+08 -18.1001 -1.41885e+08)
(-3.86612e+08 -2.48275e+06 -25.6729 -1.73444e+08 1.74926 -1.20599e+08)
(-3.23225e+08 -1.19497e+06 -6.5218 -1.63695e+08 26.957 -9.54297e+07)
(-2.43541e+08 -1.95603e+06 13.3963 -1.55862e+08 -1.18851 -6.85703e+07)
(-1.45329e+08 -1.21676e+06 -3.0007 -1.43995e+08 -29.2343 -4.0169e+07)
(-1.25833e+07 -785577 -17.2198 -1.34634e+08 14.0496 -6.26764e+06)
(1.52687e+08 -503259 -0.0564577 -1.2029e+08 32.3182 2.49752e+07)
(3.84395e+08 1.27376e+06 11.955 -1.09856e+08 -13.2923 7.61201e+07)
(6.62133e+08 773871 -1.65323 -9.11573e+07 -29.9685 1.16439e+08)
(9.9487e+08 3.48142e+06 -17.1319 -7.9299e+07 10.7499 2.13042e+08)
(1.18388e+09 2.63514e+06 -4.72991 -5.12865e+07 10.1264 3.00331e+08)
(-5.69197e+08 -772102 -1.93117 -1.99292e+08 4.19345 -1.98344e+08)
(-5.65269e+08 129300 -7.93508 -1.96849e+08 -0.961193 -1.93939e+08)
(-5.45339e+08 -2.16257e+06 -5.44161 -1.95487e+08 2.64809 -1.85771e+08)
(-5.20939e+08 -478452 5.67415 -1.90019e+08 7.33574 -1.73933e+08)
(-4.85659e+08 -2.76686e+06 15.9726 -1.86536e+08 -7.036 -1.59958e+08)
(-4.38637e+08 -1.04201e+06 -5.36523 -1.79107e+08 -18.1429 -1.41699e+08)
(-3.87056e+08 -2.89305e+06 -25.6245 -1.73489e+08 1.74033 -1.20412e+08)
(-3.23437e+08 -1.59541e+06 -6.56738 -1.63742e+08 27.0069 -9.51756e+07)
(-2.43589e+08 -2.37955e+06 13.2808 -1.55933e+08 -1.1707 -6.83191e+07)
(-1.45106e+08 -1.62321e+06 -3.0067 -1.44065e+08 -29.2664 -3.9853e+07)
(-1.21144e+07 -1.16457e+06 -17.1032 -1.34737e+08 14.0418 -5.94033e+06)
(1.53536e+08 -853635 -0.0142784 -1.20385e+08 32.329 2.53603e+07)
(3.85259e+08 991284 11.9257 -1.09982e+08 -13.3105 7.66467e+07)
(6.63226e+08 531523 -1.65215 -9.12357e+07 -29.9989 1.17057e+08)
(9.96102e+08 3.35849e+06 -17.1117 -7.93868e+07 10.7723 2.13798e+08)
(1.18504e+09 2.56385e+06 -4.73446 -5.12956e+07 10.1372 3.01189e+08)
(-5.70142e+08 -834454 -1.93429 -1.99322e+08 4.20271 -1.98365e+08)
(-5.66371e+08 29741.3 -7.94351 -1.96819e+08 -0.964229 -1.93899e+08)
(-5.46363e+08 -2.3957e+06 -5.44015 -1.95476e+08 2.65717 -1.85705e+08)
(-5.21821e+08 -722535 5.67771 -1.89997e+08 7.3556 -1.73833e+08)
(-4.86399e+08 -3.13032e+06 15.9446 -1.86536e+08 -7.05552 -1.59834e+08)
(-4.39287e+08 -1.41613e+06 -5.37337 -1.79113e+08 -18.1942 -1.41465e+08)
(-3.8759e+08 -3.34879e+06 -25.5731 -1.73496e+08 1.73227 -1.20162e+08)
(-3.23718e+08 -2.05317e+06 -6.61521 -1.63755e+08 27.0668 -9.48581e+07)
(-2.43677e+08 -2.86527e+06 13.1619 -1.55974e+08 -1.15392 -6.79997e+07)
(-1.44902e+08 -2.09656e+06 -3.01298 -1.44107e+08 -29.3065 -3.94693e+07)
(-1.16422e+07 -1.61061e+06 -16.9873 -1.34824e+08 14.0385 -5.54824e+06)
(1.54411e+08 -1.27064e+06 0.0283821 -1.20462e+08 32.347 2.58095e+07)
(3.8615e+08 657401 11.9017 -1.10104e+08 -13.3313 7.7221e+07)
(6.64382e+08 253247 -1.6511 -9.13037e+07 -30.0337 1.17734e+08)
(9.97438e+08 3.21216e+06 -17.093 -7.94819e+07 10.7944 2.14591e+08)
(1.18629e+09 2.47818e+06 -4.74078 -5.13003e+07 10.1487 3.02096e+08)
(-5.71276e+08 -903419 -1.93783 -1.99306e+08 4.21623 -1.98341e+08)
(-5.67638e+08 -83484.8 -7.95246 -1.96758e+08 -0.967972 -1.93825e+08)
(-5.47549e+08 -2.65773e+06 -5.43866 -1.95431e+08 2.66775 -1.85608e+08)
(-5.22857e+08 -1.00061e+06 5.68114 -1.89949e+08 7.38029 -1.73699e+08)
(-4.87285e+08 -3.54538e+06 15.9123 -1.86506e+08 -7.07621 -1.59678e+08)
(-4.40093e+08 -1.84652e+06 -5.3828 -1.79094e+08 -18.2535 -1.41206e+08)
(-3.88256e+08 -3.86217e+06 -25.5194 -1.73482e+08 1.72486 -1.19878e+08)
(-3.2411e+08 -2.58083e+06 -6.6665 -1.63753e+08 27.1364 -9.45023e+07)
(-2.4385e+08 -3.42075e+06 13.0389 -1.56e+08 -1.13646 -6.76376e+07)
(-1.44751e+08 -2.6485e+06 -3.01977 -1.44136e+08 -29.3539 -3.90391e+07)
(-1.11936e+07 -2.13169e+06 -16.8719 -1.34905e+08 14.0374 -5.10929e+06)
(1.553e+08 -1.75845e+06 0.0730712 -1.2053e+08 32.3707 2.63108e+07)
(3.87115e+08 262584 11.8732 -1.10229e+08 -13.3506 7.78307e+07)
(6.65634e+08 -82426.1 -1.65027 -9.13749e+07 -30.07 1.18444e+08)
(9.98864e+08 3.02759e+06 -17.0763 -7.95806e+07 10.8151 2.15421e+08)
(1.18769e+09 2.38384e+06 -4.74852 -5.13098e+07 10.1605 3.03037e+08)
(-5.72577e+08 -980234 -1.94103 -1.99256e+08 4.23325 -1.98283e+08)
(-5.69136e+08 -211950 -7.96273 -1.96681e+08 -0.972609 -1.93733e+08)
(-5.48958e+08 -2.95205e+06 -5.43657 -1.95366e+08 2.67979 -1.85491e+08)
(-5.24105e+08 -1.31448e+06 5.68428 -1.89891e+08 7.41051 -1.73542e+08)
(-4.88366e+08 -4.00651e+06 15.8777 -1.86457e+08 -7.09769 -1.59499e+08)
(-4.41044e+08 -2.32622e+06 -5.39277 -1.79065e+08 -18.3182 -1.4094e+08)
(-3.89046e+08 -4.43633e+06 -25.4656 -1.73461e+08 1.71706 -1.19583e+08)
(-3.24605e+08 -3.1782e+06 -6.72072 -1.6375e+08 27.2126 -9.41318e+07)
(-2.44092e+08 -4.04887e+06 12.9134 -1.56031e+08 -1.11807 -6.7256e+07)
(-1.44641e+08 -3.28255e+06 -3.02722 -1.44169e+08 -29.4057 -3.85861e+07)
(-1.07495e+07 -2.73308e+06 -16.7578 -1.34996e+08 14.0382 -4.64403e+06)
(1.5622e+08 -2.3304e+06 0.119153 -1.20599e+08 32.398 2.68463e+07)
(3.88111e+08 -201218 11.8508 -1.10352e+08 -13.3734 7.84863e+07)
(6.66965e+08 -461051 -1.64957 -9.1445e+07 -30.1098 1.19206e+08)
(1.00044e+09 2.81289e+06 -17.0612 -7.96775e+07 10.8392 2.16323e+08)
(1.18923e+09 2.27937e+06 -4.75747 -5.13199e+07 10.1733 3.04065e+08)
(-5.74111e+08 -1.06665e+06 -1.9455 -1.99187e+08 4.25412 -1.98207e+08)
(-5.70851e+08 -354398 -7.97314 -1.96625e+08 -0.977661 -1.93662e+08)
(-5.50577e+08 -3.27967e+06 -5.43469 -1.9532e+08 2.69285 -1.85394e+08)
(-5.25548e+08 -1.66853e+06 5.68841 -1.89853e+08 7.44358 -1.73403e+08)
(-4.89628e+08 -4.52501e+06 15.842 -1.86425e+08 -7.12047 -1.59336e+08)
(-4.42188e+08 -2.87422e+06 -5.40394 -1.79051e+08 -18.3903 -1.40674e+08)
(-3.90011e+08 -5.08055e+06 -25.4103 -1.73458e+08 1.70761 -1.19291e+08)
(-3.25243e+08 -3.86086e+06 -6.7783 -1.63763e+08 27.2967 -9.37593e+07)
(-2.44451e+08 -4.7582e+06 12.7872 -1.56077e+08 -1.09717 -6.68689e+07)
(-1.4461e+08 -4.00574e+06 -3.0352 -1.44212e+08 -29.4629 -3.81169e+07)
(-1.03489e+07 -3.41293e+06 -16.6463 -1.35088e+08 14.0376 -4.15466e+06)
(1.57152e+08 -2.96634e+06 0.167437 -1.20669e+08 32.4284 2.7422e+07)
(3.89215e+08 -733467 11.8225 -1.10468e+08 -13.3962 7.92111e+07)
(6.68427e+08 -906731 -1.64909 -9.1522e+07 -30.1536 1.20038e+08)
(1.00214e+09 2.54727e+06 -17.0515 -7.9782e+07 10.8619 2.17307e+08)
(1.19096e+09 2.15173e+06 -4.76925 -5.1329e+07 10.1869 3.05177e+08)
(-5.75865e+08 -1.16252e+06 -1.95043 -1.99139e+08 4.27727 -1.98151e+08)
(-5.72847e+08 -510762 -7.98472 -1.96619e+08 -0.983134 -1.9364e+08)
(-5.52473e+08 -3.63984e+06 -5.43164 -1.95312e+08 2.70669 -1.85343e+08)
(-5.27259e+08 -2.0564e+06 5.69242 -1.89845e+08 7.47991 -1.73301e+08)
(-4.91141e+08 -5.08427e+06 15.804 -1.86409e+08 -7.14491 -1.59199e+08)
(-4.43519e+08 -3.47555e+06 -5.41619 -1.79041e+08 -18.4702 -1.40402e+08)
(-3.91141e+08 -5.79259e+06 -25.3553 -1.73445e+08 1.69461 -1.18989e+08)
(-3.26021e+08 -4.61491e+06 -6.83908 -1.63756e+08 27.391 -9.33612e+07)
(-2.44906e+08 -5.54145e+06 12.658 -1.56102e+08 -1.072 -6.64477e+07)
(-1.44636e+08 -4.80133e+06 -3.04398 -1.44236e+08 -29.527 -3.76013e+07)
(-9.94291e+06 -4.16983e+06 -16.5338 -1.35175e+08 14.0377 -3.61079e+06)
(1.58114e+08 -3.68537e+06 0.215299 -1.20745e+08 32.4637 2.8052e+07)
(3.90333e+08 -1.35037e+06 11.8091 -1.10629e+08 -13.4253 7.99983e+07)
(6.69978e+08 -1.42233e+06 -1.64871 -9.15995e+07 -30.2042 1.20957e+08)
(1.00403e+09 2.24827e+06 -17.0442 -7.98997e+07 10.8844 2.18323e+08)
(1.19292e+09 2.00918e+06 -4.7838 -5.13358e+07 10.2004 3.0634e+08)
(-5.779e+08 -1.26907e+06 -1.95405 -1.9914e+08 4.30268 -1.98146e+08)
(-5.75108e+08 -666614 -7.99669 -1.96639e+08 -0.989022 -1.93645e+08)
(-5.54625e+08 -4.00631e+06 -5.42868 -1.95333e+08 2.72235 -1.85315e+08)
(-5.29198e+08 -2.45465e+06 5.69701 -1.89862e+08 7.51986 -1.73216e+08)
(-4.92875e+08 -5.66811e+06 15.7602 -1.86424e+08 -7.1732 -1.59079e+08)
(-4.45097e+08 -4.12045e+06 -5.43003 -1.79064e+08 -18.5603 -1.40135e+08)
(-3.92487e+08 -6.55161e+06 -25.2994 -1.73455e+08 1.68027 -1.18683e+08)
(-3.2697e+08 -5.44043e+06 -6.9022 -1.63759e+08 27.4963 -9.29453e+07)
(-2.455e+08 -6.41048e+06 12.5299 -1.56141e+08 -1.04582 -6.60048e+07)
(-1.4476e+08 -5.70986e+06 -3.05322 -1.44252e+08 -29.5992 -3.70493e+07)
(-9.60901e+06 -5.04463e+06 -16.4311 -1.35273e+08 14.0443 -3.02998e+06)
(1.59066e+08 -4.53575e+06 0.264028 -1.20799e+08 32.5077 2.87393e+07)
(3.91558e+08 -2.04709e+06 11.7914 -1.10759e+08 -13.4457 8.07782e+07)
(6.71704e+08 -1.988e+06 -1.64892 -9.16631e+07 -30.2497 1.21878e+08)
(1.0061e+09 1.89594e+06 -17.0339 -8.00147e+07 10.9095 2.19424e+08)
(1.19511e+09 1.84702e+06 -4.80129 -5.13557e+07 10.2138 3.07585e+08)
(-5.80207e+08 -1.37829e+06 -1.95863 -1.99173e+08 4.33095 -1.98171e+08)
(-5.77658e+08 -832532 -8.00983 -1.96772e+08 -0.995492 -1.93757e+08)
(-5.57068e+08 -4.40698e+06 -5.42449 -1.9545e+08 2.73724 -1.85395e+08)