/*--------------------------------*- C++ -*----------------------------------*\
| =========                 |                                                 |
| \\      /  F ield         | foam-extend: Open Source CFD                    |
|  \\    /   O peration     | Version:     4.1-20200408                       |
|   \\  /    A nd           | Web:         http://www.foam-extend.org         |
|    \\/     M anipulation  |                                                 |
\*---------------------------------------------------------------------------*/
FoamFile
{
    version     2.0;
    format      ascii;
    class       volScalarField;
    location    "0.0490000";
    object      sigmaHyd;
}
// * * * * * * * * * * * * * * * * * * * * * * * * * * * * * * * * * * * * * //

dimensions      [1 -1 -2 0 0 0 0];

internalField   nonuniform List<scalar> 
1952
(
-4.47221e+08
-4.3223e+08
-4.11167e+08
-3.85027e+08
-3.51161e+08
-3.11853e+08
-2.67162e+08
-2.16029e+08
-1.57093e+08
-8.16111e+07
6.81228e+06
1.27457e+08
2.63577e+08
4.2791e+08
5.348e+08
-4.53981e+08
-4.44075e+08
-4.28994e+08
-4.07784e+08
-3.81573e+08
-3.47439e+08
-3.08038e+08
-2.63065e+08
-2.1187e+08
-1.52627e+08
-7.70828e+07
1.16228e+07
1.32138e+08
2.68438e+08
4.32359e+08
5.39115e+08
-4.50794e+08
-4.42288e+08
-4.27173e+08
-4.05909e+08
-3.7968e+08
-3.45458e+08
-3.06049e+08
-2.61046e+08
-2.09866e+08
-1.50579e+08
-7.50867e+07
1.36175e+07
1.339e+08
2.69977e+08
4.33277e+08
5.39032e+08
-4.48997e+08
-4.40738e+08
-4.256e+08
-4.04313e+08
-3.78072e+08
-3.43817e+08
-3.04399e+08
-2.59407e+08
-2.08271e+08
-1.49024e+08
-7.35721e+07
1.50241e+07
1.35169e+08
2.71084e+08
4.34072e+08
5.39431e+08
-4.47449e+08
-4.39399e+08
-4.24244e+08
-4.02934e+08
-3.76686e+08
-3.42388e+08
-3.02981e+08
-2.58002e+08
-2.069e+08
-1.47697e+08
-7.22415e+07
1.62014e+07
1.36137e+08
2.71935e+08
4.34591e+08
5.39528e+08
-4.46117e+08
-4.38235e+08
-4.23071e+08
-4.01745e+08
-3.75498e+08
-3.41164e+08
-3.01792e+08
-2.56838e+08
-2.05759e+08
-1.4657e+08
-7.11338e+07
1.7211e+07
1.36912e+08
2.72656e+08
4.35027e+08
5.39715e+08
-4.44962e+08
-4.37254e+08
-4.22074e+08
-4.00729e+08
-3.7446e+08
-3.40092e+08
-3.00731e+08
-2.55839e+08
-2.04771e+08
-1.45615e+08
-7.02221e+07
1.803e+07
1.37595e+08
2.73279e+08
4.35411e+08
5.39877e+08
-4.43988e+08
-4.36404e+08
-4.21209e+08
-3.9985e+08
-3.73564e+08
-3.3918e+08
-2.99845e+08
-2.55e+08
-2.03936e+08
-1.44812e+08
-6.94251e+07
1.87233e+07
1.38178e+08
2.73827e+08
4.35781e+08
5.40087e+08
-4.43146e+08
-4.35692e+08
-4.20478e+08
-3.99105e+08
-3.72793e+08
-3.38392e+08
-2.99076e+08
-2.54282e+08
-2.03231e+08
-1.44129e+08
-6.87464e+07
1.93228e+07
1.38716e+08
2.74343e+08
4.36165e+08
5.4034e+08
-4.4244e+08
-4.35103e+08
-4.19874e+08
-3.98489e+08
-3.72152e+08
-3.37733e+08
-2.98435e+08
-2.53657e+08
-2.02613e+08
-1.43516e+08
-6.81215e+07
1.98868e+07
1.39231e+08
2.74866e+08
4.36556e+08
5.4064e+08
-4.41857e+08
-4.34595e+08
-4.19349e+08
-3.97951e+08
-3.7159e+08
-3.37145e+08
-2.9786e+08
-2.53087e+08
-2.02045e+08
-1.4294e+08
-6.75388e+07
2.04058e+07
1.39731e+08
2.75403e+08
4.36981e+08
5.40972e+08
-4.41353e+08
-4.34163e+08
-4.18899e+08
-3.97483e+08
-3.71092e+08
-3.36623e+08
-2.97366e+08
-2.52587e+08
-2.01538e+08
-1.42433e+08
-6.69925e+07
2.08828e+07
1.40208e+08
2.75925e+08
4.37449e+08
5.4136e+08
-4.40928e+08
-4.33792e+08
-4.18513e+08
-3.97084e+08
-3.70682e+08
-3.36182e+08
-2.96967e+08
-2.52185e+08
-2.01135e+08
-1.41993e+08
-6.64865e+07
2.13856e+07
1.40684e+08
2.76469e+08
4.37926e+08
5.4181e+08
-4.40563e+08
-4.33551e+08
-4.18255e+08
-3.96801e+08
-3.70363e+08
-3.35803e+08
-2.96576e+08
-2.51785e+08
-2.00714e+08
-1.41532e+08
-6.59939e+07
2.18553e+07
1.4119e+08
2.77062e+08
4.38464e+08
5.42305e+08
-4.40329e+08
-4.33309e+08
-4.17991e+08
-3.96516e+08
-3.70043e+08
-3.35451e+08
-2.96239e+08
-2.51417e+08
-2.00312e+08
-1.41097e+08
-6.54777e+07
2.23555e+07
1.41707e+08
2.77663e+08
4.39026e+08
5.42847e+08
-4.40092e+08
-4.33125e+08
-4.17788e+08
-3.96282e+08
-3.69786e+08
-3.35132e+08
-2.95933e+08
-2.51079e+08
-1.99957e+08
-1.40667e+08
-6.49803e+07
2.28684e+07
1.42235e+08
2.78304e+08
4.39628e+08
5.43449e+08
-4.39919e+08
-4.33008e+08
-4.17642e+08
-3.96102e+08
-3.6955e+08
-3.34833e+08
-2.95619e+08
-2.50736e+08
-1.99564e+08
-1.40228e+08
-6.44671e+07
2.33806e+07
1.4281e+08
2.78974e+08
4.40287e+08
5.44089e+08
-4.39809e+08
-4.32881e+08
-4.17493e+08
-3.95922e+08
-3.69341e+08
-3.34567e+08
-2.95358e+08
-2.50416e+08
-1.99209e+08
-1.39782e+08
-6.39273e+07
2.39671e+07
1.43402e+08
2.79694e+08
4.40953e+08
5.44793e+08
-4.39693e+08
-4.32831e+08
-4.1741e+08
-3.95793e+08
-3.69155e+08
-3.34293e+08
-2.95053e+08
-2.50064e+08
-1.98804e+08
-1.39301e+08
-6.33844e+07
2.45214e+07
1.44037e+08
2.80464e+08
4.41702e+08
5.45532e+08
-4.39655e+08
-4.32768e+08
-4.17314e+08
-3.95662e+08
-3.68974e+08
-3.34055e+08
-2.94817e+08
-2.49755e+08
-1.98436e+08
-1.38849e+08
-6.28113e+07
2.51397e+07
1.4469e+08
2.81252e+08
4.42478e+08
5.46336e+08
-4.39601e+08
-4.32776e+08
-4.17291e+08
-3.95587e+08
-3.68859e+08
-3.33841e+08
-2.94583e+08
-2.49453e+08
-1.98088e+08
-1.3838e+08
-6.22474e+07
2.57628e+07
1.45371e+08
2.82098e+08
4.43315e+08
5.47216e+08
-4.39625e+08
-4.3286e+08
-4.17333e+08
-3.95583e+08
-3.68778e+08
-3.33672e+08
-2.94379e+08
-2.49175e+08
-1.97723e+08
-1.37915e+08
-6.16642e+07
2.64222e+07
1.46115e+08
2.82995e+08
4.44216e+08
5.48146e+08
-4.39718e+08
-4.32972e+08
-4.17411e+08
-3.95604e+08
-3.68751e+08
-3.33544e+08
-2.9421e+08
-2.48898e+08
-1.97379e+08
-1.3742e+08
-6.1048e+07
2.71222e+07
1.46875e+08
2.83946e+08
4.45165e+08
5.49173e+08
-4.39847e+08
-4.33195e+08
-4.17582e+08
-3.95711e+08
-3.68773e+08
-3.3345e+08
-2.94073e+08
-2.48662e+08
-1.97042e+08
-1.36952e+08
-6.045e+07
2.78289e+07
1.47698e+08
2.8496e+08
4.46203e+08
5.50265e+08
-4.40083e+08
-4.33487e+08
-4.17832e+08
-3.95893e+08
-3.68889e+08
-3.3345e+08
-2.94015e+08
-2.48466e+08
-1.96749e+08
-1.36479e+08
-5.98222e+07
2.85797e+07
1.48535e+08
2.86034e+08
4.47298e+08
5.51472e+08
-4.40394e+08
-4.33925e+08
-4.18215e+08
-3.96197e+08
-3.69104e+08
-3.33522e+08
-2.94029e+08
-2.48347e+08
-1.96511e+08
-1.36057e+08
-5.92363e+07
2.93246e+07
1.4942e+08
2.87178e+08
4.48494e+08
5.52779e+08
-4.4085e+08
-4.34521e+08
-4.18757e+08
-3.96656e+08
-3.69472e+08
-3.33744e+08
-2.94167e+08
-2.48317e+08
-1.96345e+08
-1.35673e+08
-5.86551e+07
3.00888e+07
1.50325e+08
2.88381e+08
4.49771e+08
5.54213e+08
-4.41466e+08
-4.35312e+08
-4.19488e+08
-3.97288e+08
-3.70006e+08
-3.34105e+08
-2.9444e+08
-2.48409e+08
-1.96284e+08
-1.35366e+08
-5.81324e+07
3.0832e+07
1.51256e+08
2.89643e+08
4.51155e+08
5.55789e+08
-4.4228e+08
-4.36359e+08
-4.20471e+08
-3.98166e+08
-3.70768e+08
-3.34683e+08
-2.94905e+08
-2.48662e+08
-1.96354e+08
-1.35151e+08
-5.76653e+07
3.15785e+07
1.52208e+08
2.90975e+08
4.52622e+08
5.57511e+08
-4.43351e+08
-4.37688e+08
-4.21734e+08
-3.99304e+08
-3.71784e+08
-3.35484e+08
-2.95564e+08
-2.49076e+08
-1.96564e+08
-1.35034e+08
-5.72834e+07
3.22621e+07
1.53154e+08
2.92358e+08
4.54197e+08
5.59378e+08
-4.44709e+08
-4.39357e+08
-4.23328e+08
-4.00765e+08
-3.73104e+08
-3.36581e+08
-2.9652e+08
-2.49757e+08
-1.97003e+08
-1.35117e+08
-5.70403e+07
3.28783e+07
1.54072e+08
2.93767e+08
4.55858e+08
5.61416e+08
-4.46408e+08
-4.41442e+08
-4.25344e+08
-4.02629e+08
-3.74834e+08
-3.38052e+08
-2.97818e+08
-2.50744e+08
-1.97731e+08
-1.35417e+08
-5.69861e+07
3.33806e+07
1.54915e+08
2.95207e+08
4.57578e+08
5.6362e+08
-4.4853e+08
-4.44043e+08
-4.27869e+08
-4.04992e+08
-3.77031e+08
-3.39974e+08
-2.99536e+08
-2.5212e+08
-1.98795e+08
-1.36022e+08
-5.71953e+07
3.36723e+07
1.55649e+08
2.96624e+08
4.59383e+08
5.65961e+08
-4.51167e+08
-4.47197e+08
-4.30956e+08
-4.07902e+08
-3.7979e+08
-3.42447e+08
-3.01809e+08
-2.54006e+08
-2.00347e+08
-1.37055e+08
-5.77447e+07
3.37e+07
1.56162e+08
2.97923e+08
4.61196e+08
5.68473e+08
-4.54364e+08
-4.51072e+08
-4.3477e+08
-4.1153e+08
-3.8326e+08
-3.45598e+08
-3.04746e+08
-2.56545e+08
-2.02514e+08
-1.38627e+08
-5.87825e+07
3.34036e+07
1.56425e+08
2.99115e+08
4.62962e+08
5.71111e+08
-4.58282e+08
-4.55773e+08
-4.3942e+08
-4.15985e+08
-3.8754e+08
-3.49542e+08
-3.08397e+08
-2.59758e+08
-2.05306e+08
-1.40774e+08
-6.03736e+07
3.259e+07
1.56307e+08
3.00091e+08
4.64639e+08
5.73809e+08
-4.63027e+08
-4.61296e+08
-4.44907e+08
-4.21279e+08
-3.92678e+08
-3.54372e+08
-3.12996e+08
-2.63893e+08
-2.08994e+08
-1.43785e+08
-6.27199e+07
3.11434e+07
1.5563e+08
3.00676e+08
4.66099e+08
5.76535e+08
-4.68595e+08
-4.67849e+08
-4.51453e+08
-4.27637e+08
-3.98915e+08
-3.60293e+08
-3.18682e+08
-2.69129e+08
-2.13786e+08
-1.47828e+08
-6.60558e+07
2.88384e+07
1.54194e+08
3.00732e+08
4.67195e+08
5.79197e+08
-4.75191e+08
-4.75526e+08
-4.59153e+08
-4.35178e+08
-4.06346e+08
-3.67446e+08
-3.25609e+08
-2.75644e+08
-2.19833e+08
-1.53137e+08
-7.06181e+07
2.54066e+07
1.51781e+08
3.00021e+08
4.67733e+08
5.81629e+08
-4.82901e+08
-4.84337e+08
-4.6804e+08
-4.43949e+08
-4.15087e+08
-3.75989e+08
-3.3399e+08
-2.83659e+08
-2.27429e+08
-1.59992e+08
-7.66947e+07
2.05614e+07
1.48019e+08
2.98247e+08
4.67399e+08
5.83669e+08
-4.91734e+08
-4.94371e+08
-4.78206e+08
-4.5406e+08
-4.25237e+08
-3.86033e+08
-3.43962e+08
-2.934e+08
-2.36825e+08
-1.68743e+08
-8.4716e+07
1.38002e+07
1.42491e+08
2.94995e+08
4.65882e+08
5.85046e+08
-5.01773e+08
-5.05559e+08
-4.89607e+08
-4.65511e+08
-4.3686e+08
-3.97737e+08
-3.55766e+08
-3.05157e+08
-2.48385e+08
-1.7983e+08
-9.51199e+07
4.63131e+06
1.34587e+08
2.89649e+08
4.62605e+08
5.85412e+08
-5.1294e+08
-5.17846e+08
-5.02211e+08
-4.78295e+08
-4.49998e+08
-4.11158e+08
-3.69519e+08
-3.19169e+08
-2.6246e+08
-1.937e+08
-1.08514e+08
-7.63289e+06
1.23565e+08
2.8146e+08
4.56811e+08
5.84184e+08
-5.25174e+08
-5.31052e+08
-5.1585e+08
-4.92294e+08
-4.64547e+08
-4.26298e+08
-3.85265e+08
-3.35589e+08
-2.79291e+08
-2.10812e+08
-1.25521e+08
-2.38763e+07
1.08439e+08
2.69331e+08
4.47516e+08
5.80652e+08
-5.38278e+08
-5.44732e+08
-5.30114e+08
-5.07136e+08
-4.80242e+08
-4.42983e+08
-4.03001e+08
-3.54543e+08
-2.99206e+08
-2.31702e+08
-1.46884e+08
-4.51438e+07
8.78285e+07
2.51688e+08
4.33258e+08
5.74232e+08
-5.51807e+08
-5.58425e+08
-5.44553e+08
-5.22416e+08
-4.9671e+08
-4.60906e+08
-4.2251e+08
-3.76012e+08
-3.2237e+08
-2.56844e+08
-1.73439e+08
-7.27549e+07
5.98943e+07
2.26066e+08
4.10996e+08
5.62475e+08
-5.65285e+08
-5.71359e+08
-5.58424e+08
-5.3743e+08
-5.13307e+08
-4.79514e+08
-4.43329e+08
-3.99668e+08
-3.48661e+08
-2.86456e+08
-2.05823e+08
-1.08142e+08
2.22046e+07
1.8834e+08
3.73932e+08
5.35334e+08
-5.77937e+08
-5.82508e+08
-5.70708e+08
-5.51178e+08
-5.29078e+08
-4.97906e+08
-4.64672e+08
-4.24864e+08
-3.77625e+08
-3.20419e+08
-2.44385e+08
-1.52613e+08
-2.81003e+07
1.32169e+08
3.09526e+08
4.65815e+08
-5.88734e+08
-5.9061e+08
-5.80147e+08
-5.62404e+08
-5.42773e+08
-5.14827e+08
-4.85285e+08
-4.50361e+08
-4.08052e+08
-3.57555e+08
-2.87928e+08
-2.04994e+08
-8.94405e+07
5.96384e+07
2.21544e+08
3.60086e+08
-5.96414e+08
-5.94072e+08
-5.85138e+08
-5.69484e+08
-5.52744e+08
-5.28599e+08
-5.03461e+08
-4.7438e+08
-4.38089e+08
-3.95883e+08
-3.34183e+08
-2.62492e+08
-1.57528e+08
-2.21835e+07
1.23519e+08
2.47551e+08
-5.99389e+08
-5.9102e+08
-5.83788e+08
-5.70487e+08
-5.57028e+08
-5.3719e+08
-5.17123e+08
-4.94715e+08
-4.65455e+08
-4.32941e+08
-3.80539e+08
-3.22503e+08
-2.29395e+08
-1.10931e+08
1.8259e+07
1.30477e+08
-5.95797e+08
-5.7939e+08
-5.74001e+08
-5.63257e+08
-5.53385e+08
-5.3823e+08
-5.23732e+08
-5.08622e+08
-4.87233e+08
-4.65587e+08
-4.23813e+08
-3.81812e+08
-3.01617e+08
-2.04923e+08
-9.08223e+07
9.86738e+06
-5.83586e+08
-5.56826e+08
-5.5338e+08
-5.4532e+08
-5.39243e+08
-5.29025e+08
-5.20474e+08
-5.12981e+08
-5.0013e+08
-4.90175e+08
-4.60456e+08
-4.36746e+08
-3.71459e+08
-3.0322e+08
-2.02873e+08
-1.17215e+08
-5.60419e+08
-5.20836e+08
-5.19397e+08
-5.14086e+08
-5.1196e+08
-5.06863e+08
-5.04537e+08
-5.04816e+08
-5.00966e+08
-5.0292e+08
-4.8629e+08
-4.8095e+08
-4.33169e+08
-3.98522e+08
-3.1796e+08
-2.54228e+08
-5.23821e+08
-4.6943e+08
-4.70084e+08
-4.67576e+08
-4.69379e+08
-4.69166e+08
-4.72013e+08
-4.78237e+08
-4.81725e+08
-4.94101e+08
-4.91676e+08
-5.07298e+08
-4.83006e+08
-4.82818e+08
-4.29188e+08
-4.0376e+08
-4.71774e+08
-3.98129e+08
-4.0033e+08
-3.99796e+08
-4.04871e+08
-4.09583e+08
-4.19471e+08
-4.33549e+08
-4.46305e+08
-4.70777e+08
-4.83119e+08
-5.1938e+08
-5.18838e+08
-5.52225e+08
-5.29621e+08
-5.61234e+08
-4.00114e+08
-3.06338e+08
-3.11459e+08
-3.14863e+08
-3.26033e+08
-3.3881e+08
-3.58973e+08
-3.84725e+08
-4.10786e+08
-4.49378e+08
-4.76325e+08
-5.2948e+08
-5.50317e+08
-6.16198e+08
-6.23306e+08
-7.15737e+08
-3.07481e+08
-2.12698e+08
-2.23216e+08
-2.34055e+08
-2.54185e+08
-2.77091e+08
-3.07673e+08
-3.45137e+08
-3.84273e+08
-4.36119e+08
-4.78162e+08
-5.46105e+08
-5.84472e+08
-6.75012e+08
-7.06886e+08
-8.49652e+08
-2.11678e+08
-1.36373e+08
-1.52079e+08
-1.70384e+08
-1.99011e+08
-2.3176e+08
-2.71881e+08
-3.18723e+08
-3.68191e+08
-4.29733e+08
-4.83696e+08
-5.62912e+08
-6.15738e+08
-7.23718e+08
-7.74666e+08
-9.50142e+08
-1.32837e+08
-8.38553e+07
-1.02948e+08
-1.26512e+08
-1.60953e+08
-2.00446e+08
-2.47796e+08
-3.0157e+08
-3.59086e+08
-4.27509e+08
-4.90888e+08
-5.77584e+08
-6.41651e+08
-7.59854e+08
-8.24752e+08
-1.01733e+09
-7.81665e+07
-5.40979e+07
-7.49181e+07
-1.01766e+08
-1.39688e+08
-1.8335e+08
-2.35442e+08
-2.93502e+08
-3.56523e+08
-4.28818e+08
-4.98719e+08
-5.88894e+08
-6.60822e+08
-7.82376e+08
-8.56265e+08
-1.05292e+09
-4.67759e+07
-4.60237e+07
-6.725e+07
-9.55996e+07
-1.34934e+08
-1.80362e+08
-2.34753e+08
-2.94497e+08
-3.60451e+08
-4.33699e+08
-5.07169e+08
-5.9688e+08
-6.73161e+08
-7.91748e+08
-8.69838e+08
-1.05916e+09
-3.76969e+07
-5.79606e+07
-7.86578e+07
-1.07041e+08
-1.46088e+08
-1.91215e+08
-2.45666e+08
-3.04676e+08
-3.71047e+08
-4.42478e+08
-5.16598e+08
-6.02182e+08
-6.79254e+08
-7.89147e+08
-8.66713e+08
-1.03872e+09
-4.92746e+07
-8.85088e+07
-1.07887e+08
-1.34947e+08
-1.72183e+08
-2.1517e+08
-2.67677e+08
-3.23815e+08
-3.8829e+08
-4.55431e+08
-5.27459e+08
-6.05669e+08
-6.79998e+08
-7.76024e+08
-8.48285e+08
-9.94126e+08
-8.01107e+07
-1.36334e+08
-1.53651e+08
-1.78096e+08
-2.12096e+08
-2.51283e+08
-3.00045e+08
-3.51452e+08
-4.11961e+08
-4.72683e+08
-5.40121e+08
-6.08171e+08
-6.76324e+08
-7.53876e+08
-8.16088e+08
-9.28123e+08
-1.28797e+08
-1.9977e+08
-2.14451e+08
-2.35205e+08
-2.6476e+08
-2.98722e+08
-3.42154e+08
-3.87219e+08
-4.41888e+08
-4.94355e+08
-5.5492e+08
-6.10442e+08
-6.69104e+08
-7.24206e+08
-7.71938e+08
-8.44502e+08
-1.93473e+08
-2.76298e+08
-2.88235e+08
-3.04791e+08
-3.29216e+08
-3.56992e+08
-3.93854e+08
-4.31231e+08
-4.78353e+08
-5.20924e+08
-5.72451e+08
-6.13312e+08
-6.59161e+08
-6.88336e+08
-7.17516e+08
-7.4717e+08
-2.71288e+08
-3.62266e+08
-3.72029e+08
-3.84784e+08
-4.04277e+08
-4.25728e+08
-4.55441e+08
-4.84277e+08
-5.2245e+08
-5.53688e+08
-5.9404e+08
-6.18101e+08
-6.47606e+08
-6.47782e+08
-6.5498e+08
-6.41436e+08
-3.58208e+08
-4.53388e+08
-4.62035e+08
-4.72238e+08
-4.88014e+08
-5.04111e+08
-5.2716e+08
-5.47513e+08
-5.76011e+08
-5.94911e+08
-6.22019e+08
-6.26938e+08
-6.36137e+08
-6.04464e+08
-5.86963e+08
-5.32752e+08
-4.49749e+08
-5.45808e+08
-5.54126e+08
-5.63126e+08
-5.76829e+08
-5.89319e+08
-6.07157e+08
-6.20173e+08
-6.39375e+08
-6.45982e+08
-6.58627e+08
-6.42403e+08
-6.27236e+08
-5.61564e+08
-5.1775e+08
-4.27236e+08
-5.42282e+08
-6.35392e+08
-6.43252e+08
-6.51613e+08
-6.64426e+08
-6.75083e+08
-6.89769e+08
-6.979e+08
-7.1009e+08
-7.06926e+08
-7.06411e+08
-6.6816e+08
-6.25156e+08
-5.25184e+08
-4.54876e+08
-3.32973e+08
-6.32239e+08
-7.22243e+08
-7.29485e+08
-7.37804e+08
-7.51093e+08
-7.62143e+08
-7.76586e+08
-7.83374e+08
-7.91435e+08
-7.80629e+08
-7.64088e+08
-7.01653e+08
-6.33331e+08
-5.02277e+08
-4.08028e+08
-2.60473e+08
-7.19716e+08
-8.21513e+08
-8.27159e+08
-8.32048e+08
-8.39864e+08
-8.43951e+08
-8.48607e+08
-8.43261e+08
-8.34135e+08
-8.0284e+08
-7.63567e+08
-6.86036e+08
-6.05852e+08
-4.71029e+08
-3.75707e+08
-2.1563e+08
-8.19653e+08
-8.72854e+08
-8.71934e+08
-8.66875e+08
-8.60626e+08
-8.48216e+08
-8.32624e+08
-8.06372e+08
-7.75024e+08
-7.25157e+08
-6.73226e+08
-5.99184e+08
-5.27512e+08
-4.17685e+08
-3.39968e+08
-1.95561e+08
-8.73074e+08
-8.12395e+08
-8.0694e+08
-7.9702e+08
-7.83927e+08
-7.647e+08
-7.41449e+08
-7.09002e+08
-6.72713e+08
-6.23807e+08
-5.75592e+08
-5.0967e+08
-4.47732e+08
-3.6199e+08
-2.96541e+08
-1.86705e+08
-8.14171e+08
-7.21327e+08
-7.14521e+08
-7.04786e+08
-6.92157e+08
-6.7432e+08
-6.52836e+08
-6.23525e+08
-5.90667e+08
-5.4676e+08
-5.01548e+08
-4.42403e+08
-3.8579e+08
-3.11668e+08
-2.49081e+08
-1.68792e+08
-7.23795e+08
-6.48523e+08
-6.42012e+08
-6.31989e+08
-6.18268e+08
-5.99785e+08
-5.77608e+08
-5.48864e+08
-5.17038e+08
-4.76615e+08
-4.35163e+08
-3.82912e+08
-3.32429e+08
-2.69408e+08
-2.11906e+08
-1.43483e+08
-6.50809e+08
-5.77594e+08
-5.70985e+08
-5.61401e+08
-5.48125e+08
-5.30773e+08
-5.09922e+08
-4.83555e+08
-4.54316e+08
-4.17984e+08
-3.80361e+08
-3.34162e+08
-2.89157e+08
-2.34275e+08
-1.83815e+08
-1.22441e+08
-5.79861e+08
-5.15662e+08
-5.09181e+08
-5.00037e+08
-4.87152e+08
-4.70744e+08
-4.50997e+08
-4.2666e+08
-3.99729e+08
-3.671e+08
-3.33297e+08
-2.92739e+08
-2.53088e+08
-2.05823e+08
-1.61973e+08
-1.09593e+08
-5.17809e+08
-4.59133e+08
-4.52877e+08
-4.4441e+08
-4.32317e+08
-4.17257e+08
-3.99074e+08
-3.77077e+08
-3.52715e+08
-3.2371e+08
-2.93604e+08
-2.58106e+08
-2.23369e+08
-1.82574e+08
-1.44851e+08
-9.99185e+07
-4.61137e+08
-4.09035e+08
-4.03091e+08
-3.95326e+08
-3.84085e+08
-3.70358e+08
-3.53732e+08
-3.33957e+08
-3.12057e+08
-2.86401e+08
-2.59783e+08
-2.28874e+08
-1.98662e+08
-1.63662e+08
-1.31399e+08
-9.3266e+07
-4.10879e+08
-3.64273e+08
-3.58709e+08
-3.51693e+08
-3.41401e+08
-3.29056e+08
-3.14048e+08
-2.96448e+08
-2.76947e+08
-2.54399e+08
-2.31022e+08
-2.04215e+08
-1.78072e+08
-1.48115e+08
-1.20652e+08
-8.83353e+07
-3.65948e+08
-3.24637e+08
-3.19486e+08
-3.13203e+08
-3.03864e+08
-2.92844e+08
-2.79398e+08
-2.63829e+08
-2.46574e+08
-2.26856e+08
-2.0644e+08
-1.83287e+08
-1.60778e+08
-1.35233e+08
-1.11934e+08
-8.46207e+07
-3.26142e+08
-2.89517e+08
-2.848e+08
-2.79224e+08
-2.70827e+08
-2.6107e+08
-2.49118e+08
-2.35435e+08
-2.20265e+08
-2.03106e+08
-1.85367e+08
-1.65442e+08
-1.46139e+08
-1.24416e+08
-1.04703e+08
-8.16466e+07
-2.90859e+08
-2.58491e+08
-2.54209e+08
-2.49293e+08
-2.41798e+08
-2.33211e+08
-2.22651e+08
-2.10688e+08
-1.9742e+08
-1.8255e+08
-1.67204e+08
-1.50116e+08
-1.33621e+08
-1.15196e+08
-9.85513e+07
-7.90999e+07
-2.59678e+08
-2.31086e+08
-2.27228e+08
-2.22921e+08
-2.16274e+08
-2.08759e+08
-1.99483e+08
-1.89073e+08
-1.77523e+08
-1.64688e+08
-1.51463e+08
-1.36852e+08
-1.22798e+08
-1.07202e+08
-9.31649e+07
-7.67438e+07
-2.32129e+08
-2.0689e+08
-2.03437e+08
-1.99684e+08
-1.93821e+08
-1.87276e+08
-1.79165e+08
-1.70144e+08
-1.60131e+08
-1.49089e+08
-1.37731e+08
-1.2527e+08
-1.13327e+08
-1.00153e+08
-8.83287e+07
-7.4469e+07
-2.07802e+08
-1.85513e+08
-1.82441e+08
-1.79184e+08
-1.74038e+08
-1.68362e+08
-1.613e+08
-1.53511e+08
-1.44862e+08
-1.35389e+08
-1.25663e+08
-1.1506e+08
-1.0493e+08
-9.38111e+07
-8.38464e+07
-7.21089e+07
-1.86306e+08
-1.66606e+08
-1.63886e+08
-1.61072e+08
-1.56574e+08
-1.51669e+08
-1.45543e+08
-1.38838e+08
-1.3139e+08
-1.23285e+08
-1.14976e+08
-1.0597e+08
-9.73933e+07
-8.80205e+07
-7.96239e+07
-6.96737e+07
-1.67294e+08
-1.49854e+08
-1.47457e+08
-1.45033e+08
-1.41115e+08
-1.3689e+08
-1.31592e+08
-1.25836e+08
-1.19437e+08
-1.12518e+08
-1.05433e+08
-9.7794e+07
-9.05389e+07
-8.2638e+07
-7.55488e+07
-6.70703e+07
-1.50448e+08
-1.34976e+08
-1.32872e+08
-1.3079e+08
-1.27387e+08
-1.23757e+08
-1.19187e+08
-1.14256e+08
-1.08771e+08
-1.02872e+08
-9.68411e+07
-9.03682e+07
-8.42354e+07
-7.75762e+07
-7.15826e+07
-6.43351e+07
-1.35488e+08
-1.21725e+08
-1.19883e+08
-1.18099e+08
-1.15152e+08
-1.12038e+08
-1.08104e+08
-1.03887e+08
-9.91927e+07
-9.417e+07
-8.904e+07
-8.35574e+07
-7.83733e+07
-7.27565e+07
-6.76761e+07
-6.14532e+07
-1.22165e+08
-1.09883e+08
-1.08274e+08
-1.06748e+08
-1.042e+08
-1.01533e+08
-9.81517e+07
-9.45487e+07
-9.05355e+07
-8.6261e+07
-8.18992e+07
-7.72541e+07
-7.28679e+07
-6.8121e+07
-6.37929e+07
-5.84021e+07
-1.1026e+08
-9.92586e+07
-9.78574e+07
-9.65525e+07
-9.43524e+07
-9.20706e+07
-8.91669e+07
-8.609e+07
-8.26602e+07
-7.90221e+07
-7.53123e+07
-7.13733e+07
-6.76572e+07
-6.36367e+07
-5.99331e+07
-5.52358e+07
-9.95818e+07
-8.96883e+07
-8.84692e+07
-8.7354e+07
-8.54558e+07
-8.35035e+07
-8.10105e+07
-7.83823e+07
-7.54501e+07
-7.2351e+07
-6.91923e+07
-6.58459e+07
-6.26888e+07
-5.92697e+07
-5.60764e+07
-5.19375e+07
-8.99652e+07
-8.10297e+07
-7.99698e+07
-7.90162e+07
-7.73784e+07
-7.5707e+07
-7.35655e+07
-7.13182e+07
-6.88087e+07
-6.61645e+07
-6.34698e+07
-6.06194e+07
-5.79282e+07
-5.50079e+07
-5.22347e+07
-4.85558e+07
-8.1267e+07
-7.31606e+07
-7.22391e+07
-7.14224e+07
-7.00083e+07
-6.8575e+07
-6.67331e+07
-6.48076e+07
-6.26558e+07
-6.03936e+07
-5.8088e+07
-5.56509e+07
-5.33459e+07
-5.08367e+07
-4.84061e+07
-4.51011e+07
-7.33642e+07
-6.59765e+07
-6.51748e+07
-6.44736e+07
-6.32505e+07
-6.20181e+07
-6.04303e+07
-5.87756e+07
-5.69249e+07
-5.49825e+07
-5.30017e+07
-5.09078e+07
-4.89218e+07
-4.67503e+07
-4.45979e+07
-4.1594e+07
-6.61516e+07
-5.93885e+07
-5.86899e+07
-5.80855e+07
-5.70249e+07
-5.59612e+07
-5.45879e+07
-5.31599e+07
-5.15615e+07
-4.98853e+07
-4.81746e+07
-4.63644e+07
-4.46409e+07
-4.27461e+07
-4.08197e+07
-3.80611e+07
-5.95398e+07
-5.33217e+07
-5.27114e+07
-5.21876e+07
-5.12645e+07
-5.03416e+07
-4.91484e+07
-4.7909e+07
-4.65211e+07
-4.50653e+07
-4.35779e+07
-4.20009e+07
-4.0492e+07
-3.88226e+07
-3.70776e+07
-3.45151e+07
-5.3453e+07
-4.77129e+07
-4.71777e+07
-4.67206e+07
-4.59132e+07
-4.5107e+07
-4.40641e+07
-4.29807e+07
-4.17671e+07
-4.04928e+07
-3.91888e+07
-3.78025e+07
-3.6468e+07
-3.4981e+07
-3.33813e+07
-3.09755e+07
-4.78276e+07
-4.25089e+07
-4.20374e+07
-4.1635e+07
-4.09243e+07
-4.02141e+07
-3.92958e+07
-3.83404e+07
-3.72702e+07
-3.61438e+07
-3.49893e+07
-3.37575e+07
-3.25636e+07
-3.12237e+07
-2.97399e+07
-2.7462e+07
-4.26101e+07
-3.76662e+07
-3.72483e+07
-3.68903e+07
-3.62599e+07
-3.56277e+07
-3.48119e+07
-3.39603e+07
-3.30067e+07
-3.19999e+07
-3.09656e+07
-2.98574e+07
-2.87748e+07
-2.7551e+07
-2.6156e+07
-2.39742e+07
-3.77564e+07
-3.31486e+07
-3.27756e+07
-3.2453e+07
-3.18886e+07
-3.13191e+07
-3.05865e+07
-2.98181e+07
-2.89582e+07
-2.80463e+07
-2.71073e+07
-2.60966e+07
-2.51009e+07
-2.39679e+07
-2.26417e+07
-2.05383e+07
-3.323e+07
-2.89265e+07
-2.85909e+07
-2.8296e+07
-2.77853e+07
-2.72653e+07
-2.65993e+07
-2.58962e+07
-2.51101e+07
-2.42719e+07
-2.34064e+07
-2.24701e+07
-2.15394e+07
-2.04741e+07
-1.91959e+07
-1.71469e+07
-2.9001e+07
-2.49764e+07
-2.46715e+07
-2.43978e+07
-2.39303e+07
-2.34482e+07
-2.28346e+07
-2.21812e+07
-2.14518e+07
-2.06689e+07
-1.98581e+07
-1.89762e+07
-1.80917e+07
-1.70744e+07
-1.58278e+07
-1.38158e+07
-2.50457e+07
-2.12795e+07
-2.1e+07
-2.07417e+07
-2.03082e+07
-1.98543e+07
-1.92807e+07
-1.86637e+07
-1.79759e+07
-1.72322e+07
-1.64594e+07
-1.56142e+07
-1.4759e+07
-1.37721e+07
-1.25423e+07
-1.05537e+07
-2.1345e+07
-1.78216e+07
-1.75626e+07
-1.73149e+07
-1.69076e+07
-1.64735e+07
-1.59292e+07
-1.53371e+07
-1.46778e+07
-1.39591e+07
-1.32094e+07
-1.23849e+07
-1.15432e+07
-1.05696e+07
-9.34143e+06
-7.35859e+06
-1.78845e+07
-1.45918e+07
-1.43495e+07
-1.41084e+07
-1.37207e+07
-1.32993e+07
-1.27752e+07
-1.21979e+07
-1.15557e+07
-1.08495e+07
-1.01095e+07
-9.29095e+06
-8.44838e+06
-7.47259e+06
-6.23241e+06
-4.24326e+06
-1.46532e+07
-1.15823e+07
-1.13535e+07
-1.11157e+07
-1.07422e+07
-1.03276e+07
-9.81602e+06
-9.24525e+06
-8.61007e+06
-7.90534e+06
-7.16279e+06
-6.33636e+06
-5.47821e+06
-4.48302e+06
-3.21338e+06
-1.19513e+06
-1.1643e+07
-8.78817e+06
-8.57021e+06
-8.33317e+06
-7.96966e+06
-7.55718e+06
-7.05195e+06
-6.48076e+06
-5.84435e+06
-5.13156e+06
-4.37557e+06
-3.52861e+06
-2.64114e+06
-1.61052e+06
-295705
1.76911e+06
-8.84863e+06
-6.20608e+06
-5.9972e+06
-5.75916e+06
-5.40236e+06
-4.98872e+06
-4.48512e+06
-3.90828e+06
-3.26397e+06
-2.53527e+06
-1.75625e+06
-877065
53492.8
1.1368e+06
2.51544e+06
4.65056e+06
-6.26679e+06
-3.83427e+06
-3.63323e+06
-3.39328e+06
-3.04117e+06
-2.62445e+06
-2.11944e+06
-1.53359e+06
-876676
-126309
683498
1.60497e+06
2.59163e+06
3.74482e+06
5.20747e+06
7.43993e+06
-3.89541e+06
-1.67184e+06
-1.47805e+06
-1.23617e+06
-887950
-467750
39827.2
635900
1.30771e+06
2.08292e+06
2.92881e+06
3.90028e+06
4.95484e+06
6.19467e+06
7.76337e+06
1.01237e+07
-1.73336e+06
281876
468440
711330
1.05515e+06
1.47754e+06
1.98676e+06
2.59173e+06
3.27777e+06
4.07761e+06
4.96137e+06
5.98693e+06
7.11873e+06
8.46049e+06
1.01596e+07
1.26851e+07
220275
2.02803e+06
2.2068e+06
2.44882e+06
2.78639e+06
3.20791e+06
3.71551e+06
4.32515e+06
5.02112e+06
5.84102e+06
6.75938e+06
7.83746e+06
9.05093e+06
1.05051e+07
1.23596e+07
1.50888e+07
1.96685e+06
3.56832e+06
3.73822e+06
3.97658e+06
4.30478e+06
4.72061e+06
5.22094e+06
5.82792e+06
6.52532e+06
7.35541e+06
8.29831e+06
9.41933e+06
1.07109e+07
1.228e+07
1.43187e+07
1.72963e+07
3.50827e+06
4.90758e+06
5.06708e+06
5.29819e+06
5.61269e+06
6.01634e+06
6.50139e+06
7.09511e+06
7.78073e+06
8.6047e+06
9.5527e+06
1.06953e+07
1.20462e+07
1.37188e+07
1.59727e+07
1.9268e+07
4.84953e+06
6.05244e+06
6.19965e+06
6.41928e+06
6.71482e+06
7.09847e+06
7.55826e+06
8.12522e+06
8.7813e+06
9.57593e+06
1.04981e+07
1.1624e+07
1.29875e+07
1.472e+07
1.71778e+07
2.08716e+07
5.99739e+06
6.98647e+06
7.12003e+06
7.3247e+06
7.59704e+06
7.95412e+06
8.3801e+06
8.90821e+06
9.51791e+06
1.02594e+07
1.11202e+07
1.21791e+07
1.34759e+07
1.51617e+07
1.76637e+07
2.16072e+07
6.93517e+06
7.87332e+06
7.98824e+06
8.16937e+06
8.40717e+06
8.72221e+06
9.09451e+06
9.55741e+06
1.00851e+07
1.07231e+07
1.14461e+07
1.23181e+07
1.33405e+07
1.46279e+07
1.65077e+07
1.94452e+07
7.82791e+06
8.23549e+06
8.33695e+06
8.50007e+06
8.71254e+06
8.99638e+06
9.32984e+06
9.74608e+06
1.02167e+07
1.07845e+07
1.14164e+07
1.21645e+07
1.29942e+07
1.39622e+07
1.51324e+07
1.72932e+07
8.19458e+06
)
;

boundaryField
{
    wireUpstream
    {
        type            zeroGradient;
    }
    wireDownstream
    {
        type            zeroGradient;
    }
    wireTopContact
    {
        type            zeroGradient;
    }
    front
    {
        type            wedge;
    }
    back
    {
        type            wedge;
    }
}


// ************************************************************************* //
