/*--------------------------------*- C++ -*----------------------------------*\
| =========                 |                                                 |
| \\      /  F ield         | OpenFOAM: The Open Source CFD Toolbox           |
|  \\    /   O peration     | Version:  4.1                                   |
|   \\  /    A nd           | Web:      www.OpenFOAM.org                      |
|    \\/     M anipulation  |                                                 |
\*---------------------------------------------------------------------------*/
FoamFile
{
    version     2.0;
    format      ascii;
    class       volVectorField;
    location    "1e-05";
    object      U;
}
// * * * * * * * * * * * * * * * * * * * * * * * * * * * * * * * * * * * * * //

dimensions      [0 1 -1 0 0 0 0];

internalField   nonuniform List<vector> 
6144
(
(0.257288 0.00130377 1.94188e-06)
(0.252808 0.00311521 -4.84193e-05)
(0.247829 0.00396693 -7.37557e-05)
(0.241686 0.00424973 -0.000102309)
(0.235315 0.00419085 -0.000133546)
(0.22907 0.00399491 -0.000135643)
(0.223107 0.0036855 -0.00011061)
(0.217598 0.00322071 -8.81642e-05)
(0.212846 0.00263151 -6.95192e-05)
(0.209104 0.00197749 -6.59591e-05)
(0.20649 0.00128054 -4.67821e-05)
(0.20507 0.000570625 -1.16437e-05)
(0.204882 -0.000181853 4.64731e-05)
(0.206117 -0.00099273 0.000104586)
(0.208754 -0.00176559 0.000156447)
(0.212557 -0.00238502 0.000165498)
(0.217267 -0.00299037 0.000145832)
(0.222702 -0.00358611 0.000131325)
(0.228759 -0.0041188 0.000124398)
(0.235134 -0.00449233 9.73818e-05)
(0.241505 -0.00462891 8.01774e-05)
(0.247548 -0.00441841 7.21115e-05)
(0.252794 -0.00369878 4.92274e-05)
(0.257498 -0.00198607 3.35107e-05)
(0.257574 0.000224905 3.58015e-05)
(0.253845 0.00173721 6.13538e-05)
(0.250606 0.00237278 4.72003e-05)
(0.24717 0.00258473 -1.37275e-05)
(0.243723 0.00257375 -7.69441e-05)
(0.240373 0.00242789 -0.000120656)
(0.237262 0.0021856 -0.000160644)
(0.234547 0.00188614 -0.000158527)
(0.232375 0.00155463 -8.5764e-05)
(0.230836 0.00119809 -1.02684e-05)
(0.229959 0.000807346 6.20036e-05)
(0.229747 0.000365026 0.000151813)
(0.230181 -0.000110793 0.000245138)
(0.23125 -0.000609053 0.000334338)
(0.232931 -0.00120278 0.000392319)
(0.235206 -0.00199636 0.000435174)
(0.238094 -0.00316131 0.000466877)
(0.241633 -0.00506163 0.000452999)
(0.245957 -0.00845761 0.000372456)
(0.251416 -0.0148612 0.000217658)
(0.260111 -0.0268202 1.71414e-06)
(0.278148 -0.0482901 -0.000237168)
(0.247641 -0.0988768 -0.000531287)
(0.340152 -0.072006 -0.000248783)
(0.25656 0.000461329 -0.000311954)
(0.252762 0.00110839 -0.000941939)
(0.248815 0.00160459 -0.00113478)
(0.243824 0.0018992 -0.00116457)
(0.238564 0.00202855 -0.0011171)
(0.233305 0.00207787 -0.00103129)
(0.228176 0.00204878 -0.000912453)
(0.22333 0.00188993 -0.000770932)
(0.219095 0.0016087 -0.000601722)
(0.215746 0.00125794 -0.000443286)
(0.213391 0.000853513 -0.000267113)
(0.212119 0.000424753 -7.351e-05)
(0.211994 -6.29298e-05 0.000148596)
(0.213194 -0.000608766 0.000371587)
(0.215665 -0.00106499 0.000589516)
(0.219136 -0.00140604 0.000718568)
(0.22332 -0.00170673 0.000824291)
(0.228045 -0.00200193 0.000933788)
(0.233229 -0.00219662 0.00105694)
(0.238568 -0.00225303 0.00112941)
(0.243764 -0.00216338 0.00117003)
(0.248609 -0.00186866 0.00115105)
(0.252726 -0.00131615 0.000985957)
(0.256531 -0.000290174 0.000461506)
(0.256058 0.000890174 -0.000295795)
(0.251356 0.00178592 -0.000776094)
(0.246969 0.00228646 -0.000896572)
(0.242366 0.00249894 -0.000913091)
(0.23786 0.00250142 -0.000870285)
(0.233601 0.0023427 -0.000802929)
(0.229729 0.00208576 -0.000749385)
(0.226405 0.00178137 -0.000669007)
(0.223797 0.00143391 -0.000544765)
(0.221954 0.00104956 -0.000424819)
(0.22083 0.000637105 -0.000304769)
(0.220422 0.000179353 -0.000162025)
(0.220742 -0.000293075 -8.0458e-06)
(0.221789 -0.000777629 0.000158406)
(0.2235 -0.00135238 0.00032557)
(0.225904 -0.00204819 0.000536469)
(0.229157 -0.00297048 0.000872672)
(0.233407 -0.00436306 0.00137619)
(0.238872 -0.00667157 0.00221339)
(0.245985 -0.0106573 0.00381177)
(0.256946 -0.0172694 0.00692951)
(0.280683 -0.0269208 0.0131751)
(0.252588 -0.0516867 0.0336364)
(0.390962 -0.0289883 0.0236884)
(0.257268 0.000196019 -0.000308555)
(0.25464 0.000471268 -0.000897007)
(0.252029 0.000777159 -0.00112426)
(0.248465 0.00102228 -0.00120015)
(0.244552 0.00118851 -0.0011892)
(0.240487 0.00128288 -0.00115196)
(0.236395 0.00130703 -0.00108888)
(0.232415 0.00123586 -0.000972066)
(0.228888 0.001083 -0.000776634)
(0.226128 0.000881168 -0.000577714)
(0.224198 0.000621624 -0.000360856)
(0.223153 0.0003344 -0.000116604)
(0.22311 -8.56376e-06 0.000173026)
(0.224233 -0.000374098 0.000489544)
(0.226415 -0.000650503 0.000769908)
(0.229403 -0.000860568 0.000924971)
(0.232916 -0.0010437 0.00103949)
(0.236718 -0.0012594 0.00112621)
(0.240784 -0.00137733 0.00119352)
(0.244823 -0.00137893 0.00119405)
(0.248587 -0.0012886 0.00114852)
(0.251949 -0.00104051 0.0010457)
(0.254611 -0.000593748 0.000820844)
(0.25708 0.00015754 0.00022235)
(0.256507 0.000918403 -0.000661408)
(0.252885 0.00149559 -0.0012786)
(0.249604 0.00189412 -0.00148847)
(0.246064 0.00208709 -0.00156461)
(0.242499 0.00209229 -0.00154202)
(0.239037 0.00193798 -0.0014488)
(0.235845 0.00172287 -0.0013234)
(0.233077 0.00147798 -0.00114882)
(0.230868 0.00116648 -0.000933716)
(0.229269 0.000833268 -0.000696526)
(0.228266 0.000483393 -0.000442729)
(0.227876 9.3327e-05 -0.000165267)
(0.228144 -0.000309603 0.000113744)
(0.229064 -0.000729834 0.000396763)
(0.230564 -0.00122288 0.000704545)
(0.232685 -0.0018114 0.00106248)
(0.235566 -0.00255994 0.00155815)
(0.239333 -0.00367772 0.00223584)
(0.244187 -0.00550185 0.00324993)
(0.250477 -0.00850786 0.00498637)
(0.260155 -0.0132144 0.00796012)
(0.281806 -0.0198096 0.0128587)
(0.253823 -0.0376382 0.0335259)
(0.380999 -0.020101 0.0220567)
(0.258027 0.000100252 -0.000258278)
(0.25646 0.000248422 -0.000697484)
(0.255037 0.000423632 -0.000914195)
(0.252788 0.000612575 -0.00101663)
(0.250194 0.000779762 -0.00104751)
(0.247376 0.00088281 -0.00105972)
(0.244447 0.000917074 -0.00105263)
(0.241503 0.000896937 -0.000971614)
(0.23887 0.000828808 -0.000777208)
(0.236898 0.000718616 -0.000578136)
(0.235561 0.000550847 -0.000365913)
(0.234814 0.000333688 -0.000121193)
(0.234835 6.67296e-05 0.000189445)
(0.235801 -0.00019294 0.000537417)
(0.23757 -0.000372785 0.00082793)
(0.239944 -0.00052176 0.000971843)
(0.242583 -0.000677523 0.00104812)
(0.245179 -0.000894131 0.00107618)
(0.247939 -0.000997183 0.00107482)
(0.250608 -0.000984684 0.00101803)
(0.253013 -0.000916193 0.000915478)
(0.255051 -0.000723306 0.000763807)
(0.256423 -0.000370893 0.000519427)
(0.25772 0.000260694 -1.62696e-05)
(0.257039 0.000935002 -0.000796558)
(0.254534 0.00142928 -0.00140759)
(0.252393 0.00175703 -0.0017022)
(0.249979 0.00191682 -0.00185789)
(0.247468 0.00190369 -0.00189014)
(0.244882 0.00174123 -0.00180363)
(0.242461 0.00153833 -0.00165256)
(0.240314 0.00130673 -0.00143891)
(0.238536 0.00100378 -0.00116703)
(0.237209 0.000689078 -0.000861971)
(0.236341 0.000358559 -0.000532325)
(0.235959 6.7534e-06 -0.000166198)
(0.236146 -0.00035462 0.00019973)
(0.236894 -0.000736591 0.000566234)
(0.23813 -0.00116415 0.000977796)
(0.239911 -0.00165731 0.00145679)
(0.24233 -0.00224523 0.00208148)
(0.245463 -0.0031087 0.00290664)
(0.249474 -0.00450505 0.00408546)
(0.254612 -0.00674356 0.00593695)
(0.262658 -0.0101464 0.00876681)
(0.281606 -0.0149316 0.0127776)
(0.254705 -0.030812 0.0309529)
(0.365249 -0.0174531 0.0194248)
(0.258197 0.00013247 -0.000199738)
(0.256846 0.000361293 -0.00050594)
(0.25572 0.000501191 -0.000727163)
(0.253784 0.00065885 -0.000863637)
(0.251386 0.000826231 -0.000934386)
(0.248686 0.000919798 -0.000987487)
(0.245891 0.000914202 -0.00101438)
(0.243102 0.000899112 -0.000933867)
(0.240553 0.000847707 -0.000741491)
(0.238486 0.000745278 -0.00055531)
(0.236934 0.000610622 -0.000341017)
(0.236007 0.000410746 -9.08994e-05)
(0.235884 0.000136868 0.00022052)
(0.236681 -0.000102327 0.000566554)
(0.238185 -0.000257785 0.000843804)
(0.24015 -0.00044484 0.000955792)
(0.242437 -0.00066888 0.00100898)
(0.2449 -0.000929928 0.00103195)
(0.247634 -0.00107188 0.00101878)
(0.250336 -0.00108857 0.000957249)
(0.252849 -0.00103822 0.000837714)
(0.255004 -0.000874598 0.000640198)
(0.256447 -0.000559807 0.000336446)
(0.257795 0.000116942 -0.000185166)
(0.25693 0.000905949 -0.000839716)
(0.254429 0.00144242 -0.00139716)
(0.25229 0.00170555 -0.00174945)
(0.249902 0.00180388 -0.00194797)
(0.247507 0.00174315 -0.00200974)
(0.245113 0.00157355 -0.00192947)
(0.242887 0.00137909 -0.00177145)
(0.240962 0.00113696 -0.00155452)
(0.23942 0.000851123 -0.00126297)
(0.238295 0.000566184 -0.000933529)
(0.237652 0.000255503 -0.000576621)
(0.237536 -5.56648e-05 -0.000175108)
(0.237926 -0.000355541 0.000241137)
(0.238806 -0.000695948 0.000665404)
(0.240166 -0.00106578 0.0011475)
(0.242002 -0.00144828 0.00171978)
(0.24433 -0.00191521 0.00244052)
(0.247219 -0.00260222 0.00341081)
(0.25086 -0.00371037 0.00483146)
(0.255603 -0.00554774 0.00702063)
(0.263238 -0.00842053 0.010253)
(0.281577 -0.012568 0.0147077)
(0.254859 -0.0297098 0.0311243)
(0.363136 -0.0184207 0.0180423)
(0.257657 0.000205829 -0.000236379)
(0.255436 0.000610956 -0.000579032)
(0.253354 0.000781463 -0.000884518)
(0.250321 0.000909126 -0.00109601)
(0.246692 0.00104073 -0.00121858)
(0.242753 0.00109087 -0.00128927)
(0.238825 0.0010251 -0.00129496)
(0.235029 0.000979089 -0.00116806)
(0.23154 0.000877143 -0.00095501)
(0.228563 0.000737638 -0.000734847)
(0.226275 0.000609104 -0.000451943)
(0.224925 0.000432285 -0.000108871)
(0.224681 0.000166375 0.000279317)
(0.225572 -8.09007e-05 0.000652626)
(0.227318 -0.0002562 0.000952518)
(0.229659 -0.000491706 0.00109576)
(0.232651 -0.000754203 0.00122564)
(0.236263 -0.00102601 0.00134001)
(0.240293 -0.00122425 0.00138644)
(0.24438 -0.00130991 0.00135797)
(0.24831 -0.00129123 0.00124655)
(0.251874 -0.00115767 0.000995695)
(0.254663 -0.000861791 0.000566242)
(0.257236 -0.000129541 -0.000124862)
(0.256296 0.000748154 -0.00087387)
(0.25271 0.00129164 -0.00149373)
(0.249438 0.00147183 -0.00190484)
(0.245946 0.00149119 -0.00211203)
(0.242571 0.00138558 -0.0021556)
(0.239423 0.00124216 -0.00204741)
(0.236564 0.00108855 -0.00185819)
(0.234175 0.000879061 -0.00161616)
(0.232347 0.000660279 -0.00130426)
(0.231075 0.000445677 -0.000959779)
(0.230442 0.000210883 -0.000580251)
(0.230483 -1.84491e-05 -0.000161611)
(0.231102 -0.000230584 0.000276062)
(0.232262 -0.000494861 0.000740762)
(0.233994 -0.000788407 0.00126968)
(0.236248 -0.00106334 0.00189879)
(0.239017 -0.00145124 0.00269815)
(0.242399 -0.00203923 0.0038474)
(0.246645 -0.00299909 0.00565058)
(0.252281 -0.00473495 0.00856757)
(0.261258 -0.00771331 0.0130732)
(0.281736 -0.0125791 0.0193842)
(0.254109 -0.0321725 0.03716)
(0.376566 -0.0210468 0.0202002)
(0.257015 0.000260449 -0.000437139)
(0.253606 0.000775385 -0.00106327)
(0.250159 0.000962985 -0.0015117)
(0.245669 0.00104245 -0.00179334)
(0.24064 0.00110119 -0.00193921)
(0.23544 0.00108431 -0.00197791)
(0.23042 0.000982221 -0.00189832)
(0.225695 0.000901714 -0.00169826)
(0.221405 0.000764016 -0.00141755)
(0.217823 0.000629718 -0.00106835)
(0.215173 0.000528296 -0.000655185)
(0.213646 0.000402825 -0.0001707)
(0.213414 0.000191588 0.000365)
(0.214464 -2.97761e-05 0.000824228)
(0.216517 -0.00021592 0.0011962)
(0.219398 -0.00046382 0.00145664)
(0.223138 -0.000699793 0.00172048)
(0.227697 -0.000934061 0.00197066)
(0.23284 -0.00116415 0.00212821)
(0.238209 -0.00131268 0.00217784)
(0.243536 -0.00133982 0.00211011)
(0.248569 -0.00126362 0.00183712)
(0.252799 -0.00102443 0.00129164)
(0.256699 -0.000390878 0.000278613)
(0.25588 0.000348895 -0.000904131)
(0.251239 0.000759819 -0.00181657)
(0.246856 0.000848139 -0.00232466)
(0.242287 0.00082164 -0.00253202)
(0.237931 0.000727801 -0.00252761)
(0.233933 0.000643577 -0.00237447)
(0.230374 0.000573977 -0.00213198)
(0.227398 0.000464374 -0.00181403)
(0.225097 0.000353814 -0.00144725)
(0.223507 0.000253201 -0.00106295)
(0.222673 0.000146711 -0.000623034)
(0.222591 4.07394e-05 -0.000155313)
(0.223203 -5.06489e-05 0.000319866)
(0.224473 -0.000190383 0.000843945)
(0.226401 -0.000363809 0.00143227)
(0.228966 -0.00052745 0.002121)
(0.232182 -0.000819866 0.00302713)
(0.236153 -0.00130122 0.00439799)
(0.241146 -0.00214295 0.00667383)
(0.247735 -0.00379345 0.0105978)
(0.258099 -0.00694154 0.0170825)
(0.280681 -0.0131072 0.0265735)
(0.252909 -0.0328252 0.0507027)
(0.386689 -0.0230013 0.0286004)
(0.257729 8.49705e-06 -0.00123642)
(0.25356 4.68027e-05 -0.00292808)
(0.24898 0.000106377 -0.00371379)
(0.243236 0.000166969 -0.00399261)
(0.237014 0.000243442 -0.00398267)
(0.23076 0.000290451 -0.00377642)
(0.224846 0.000304591 -0.00339002)
(0.219401 0.000323729 -0.00290774)
(0.214549 0.000309896 -0.00233451)
(0.210596 0.000319722 -0.00166085)
(0.207779 0.000348996 -0.000966537)
(0.206209 0.000351016 -0.000241442)
(0.206024 0.000277667 0.000527252)
(0.207205 0.000172895 0.0012031)
(0.209535 6.45438e-05 0.00180026)
(0.212911 -7.44531e-05 0.0023377)
(0.217303 -0.00017089 0.00288477)
(0.222593 -0.000244263 0.00343923)
(0.22858 -0.00032442 0.00394922)
(0.234942 -0.000353722 0.00433849)
(0.241372 -0.000298679 0.00452591)
(0.247553 -0.000203534 0.00437414)
(0.25288 -8.77507e-05 0.00367691)
(0.257661 -4.04708e-06 0.00192299)
(0.257502 -7.85122e-06 -0.00027643)
(0.25384 -4.40473e-05 -0.00175328)
(0.250606 -5.6524e-05 -0.00239391)
(0.247185 -5.29352e-05 -0.00259371)
(0.243785 -5.15618e-05 -0.00255122)
(0.240528 -4.53603e-05 -0.00239964)
(0.237549 -2.23715e-05 -0.00216208)
(0.234968 -1.96809e-05 -0.00183586)
(0.232896 -3.83769e-05 -0.00148372)
(0.231444 -5.17376e-05 -0.00112075)
(0.23066 -5.62849e-05 -0.00069885)
(0.230539 -6.14739e-05 -0.000247964)
(0.23108 -6.1599e-05 0.000211585)
(0.232238 -9.09156e-05 0.000734854)
(0.233976 -0.000132664 0.00135492)
(0.236317 -0.000150899 0.00211925)
(0.239231 -0.000197684 0.00322661)
(0.242713 -0.000238954 0.00507831)
(0.246906 -0.000241778 0.00845501)
(0.252148 -0.000211722 0.0148596)
(0.260564 -0.000128593 0.0267608)
(0.278053 1.58911e-05 0.0480844)
(0.24821 0.000276145 0.0976047)
(0.338939 0.000206112 0.0710697)
(0.256504 0.000480772 0.000285693)
(0.252692 0.00118058 0.000762653)
(0.248727 0.00168808 0.000891118)
(0.24371 0.00197427 0.000885307)
(0.238486 0.00209672 0.000808169)
(0.233329 0.00213372 0.000746029)
(0.228279 0.00208841 0.000695638)
(0.223439 0.00190973 0.000615842)
(0.219141 0.00160269 0.000505558)
(0.215706 0.00125904 0.000348338)
(0.213302 0.00086372 0.000199948)
(0.21201 0.000446358 6.11814e-05)
(0.211865 -3.69276e-05 -6.17739e-05)
(0.21304 -0.00062677 -0.0001479)
(0.215495 -0.00111867 -0.000241687)
(0.218966 -0.00148143 -0.000337486)
(0.223169 -0.00179011 -0.000470642)
(0.227913 -0.00207246 -0.000622676)
(0.233105 -0.00225568 -0.000771393)
(0.238463 -0.00230614 -0.00090077)
(0.243693 -0.00220309 -0.000988486)
(0.248546 -0.00189013 -0.0010034)
(0.25267 -0.00132711 -0.000891351)
(0.256506 -0.000304675 -0.000396042)
(0.256027 0.000884822 0.00034061)
(0.251403 0.00179984 0.00081507)
(0.247131 0.00231417 0.000895029)
(0.242713 0.00254146 0.00084154)
(0.238451 0.00255023 0.000752991)
(0.234416 0.00240037 0.000653216)
(0.230765 0.00215609 0.000537638)
(0.227679 0.00184296 0.000447211)
(0.225192 0.00148293 0.000391265)
(0.223331 0.00109213 0.000322836)
(0.222227 0.00068572 0.00023208)
(0.221935 0.000229609 0.000148252)
(0.222398 -0.000260599 8.41264e-05)
(0.223528 -0.000768114 1.74221e-05)
(0.225279 -0.00135527 -9.30151e-05)
(0.227696 -0.00206079 -0.000260013)
(0.230859 -0.00301861 -0.0005208)
(0.234902 -0.00443912 -0.000996903)
(0.240102 -0.00674798 -0.0018963)
(0.246917 -0.0107179 -0.00363512)
(0.257486 -0.0172736 -0.00697355)
(0.28058 -0.0268415 -0.013434)
(0.252315 -0.0517308 -0.033938)
(0.388551 -0.0291724 -0.0236975)
(0.255414 -2.17829e-05 -2.53137e-05)
(0.252566 6.33325e-05 -0.000136242)
(0.249795 0.00031892 -0.00017787)
(0.246075 0.000521805 -0.000191939)
(0.242144 0.000681333 -0.000205233)
(0.2382 0.000803151 -0.000188712)
(0.234239 0.000874727 -0.000138597)
(0.230309 0.000851267 -8.71623e-05)
(0.226749 0.000747159 -4.45749e-05)
(0.223905 0.000632308 -4.80652e-05)
(0.221924 0.000456243 -3.52958e-05)
(0.220884 0.000258762 -1.44228e-05)
(0.22084 2.314e-06 3.83322e-05)
(0.221935 -0.000319105 0.000137388)
(0.224076 -0.000527404 0.000224739)
(0.227006 -0.000660936 0.000254487)
(0.230448 -0.000766854 0.00023819)
(0.234217 -0.000876879 0.00019854)
(0.238261 -0.000896118 0.000172263)
(0.242334 -0.000833425 0.000138959)
(0.246187 -0.000704839 0.000110826)
(0.249671 -0.000451592 8.88668e-05)
(0.252487 -5.98949e-05 5.91672e-05)
(0.255186 0.00048711 4.94332e-05)
(0.253991 0.00100708 2.94105e-05)
(0.248623 0.0014706 1.2974e-05)
(0.243512 0.00185971 -1.50428e-05)
(0.238157 0.00206785 -5.90619e-05)
(0.232964 0.00208078 -8.70602e-05)
(0.228063 0.00192668 -0.000109868)
(0.223645 0.00172146 -0.0001456)
(0.219926 0.00149018 -0.000145233)
(0.217 0.00119934 -0.000103137)
(0.214854 0.000864935 -7.55521e-05)
(0.21351 0.000525776 -7.66185e-05)
(0.213011 0.000143481 -5.92555e-05)
(0.213355 -0.000256112 -1.2456e-05)
(0.214476 -0.000677753 4.50394e-05)
(0.216278 -0.0011897 7.28066e-05)
(0.218873 -0.00176533 9.10561e-05)
(0.222512 -0.00252499 0.000153104)
(0.227448 -0.00364627 0.000188431)
(0.234089 -0.00542805 0.000153387)
(0.243101 -0.00836002 6.86004e-05)
(0.257102 -0.0129474 -6.9103e-05)
(0.289977 -0.0189563 -0.000187717)
(0.259612 -0.0345708 -7.00777e-05)
(0.449065 -0.0167497 7.84791e-05)
(0.256071 -0.000137263 -5.98304e-05)
(0.254448 -0.000257925 -0.000300614)
(0.253001 -0.00011431 -0.000394022)
(0.250697 5.18437e-05 -0.000411596)
(0.248134 0.000223324 -0.000410538)
(0.245443 0.000343202 -0.000405792)
(0.242621 0.000397708 -0.000377632)
(0.23968 0.000393592 -0.000319822)
(0.236946 0.000361307 -0.000226284)
(0.234815 0.000346908 -0.000171652)
(0.233375 0.000287166 -0.000102764)
(0.232632 0.000202655 -2.47417e-05)
(0.23269 6.93018e-05 9.81946e-05)
(0.233669 -9.00151e-05 0.000293776)
(0.235424 -0.000162259 0.000452517)
(0.237754 -0.000212126 0.00050221)
(0.240379 -0.000273022 0.000497059)
(0.243084 -0.000380594 0.000449663)
(0.245888 -0.000401167 0.000402684)
(0.248587 -0.000361027 0.000339702)
(0.250981 -0.000279631 0.000276793)
(0.252984 -7.97378e-05 0.000215542)
(0.254347 0.000244586 0.000129716)
(0.255687 0.000581984 -5.89107e-05)
(0.254396 0.000748418 -0.000410426)
(0.250208 0.000939204 -0.000695123)
(0.246311 0.00124037 -0.000817228)
(0.242093 0.00143199 -0.000894552)
(0.237877 0.00145547 -0.0009063)
(0.233801 0.00132579 -0.000871196)
(0.230092 0.00119502 -0.000817829)
(0.22695 0.00105815 -0.000715082)
(0.224435 0.000837211 -0.000575733)
(0.222549 0.000594581 -0.000418942)
(0.221328 0.000352779 -0.00027374)
(0.220848 7.92158e-05 -0.000108241)
(0.221141 -0.000213299 7.19162e-05)
(0.222131 -0.000541024 0.000261656)
(0.223724 -0.000931183 0.000449939)
(0.226073 -0.00137321 0.000635299)
(0.229401 -0.00195142 0.000918769)
(0.233922 -0.0028305 0.00124015)
(0.240064 -0.00425484 0.00159507)
(0.248478 -0.00655911 0.00212833)
(0.261681 -0.0101257 0.00296018)
(0.293846 -0.0150269 0.00410534)
(0.261958 -0.0250626 0.0128708)
(0.436723 -0.0121199 0.00852099)
(0.256861 -0.000164475 -3.63546e-05)
(0.256315 -0.000305891 -0.000216917)
(0.255982 -0.000232256 -0.000331698)
(0.25488 -0.00010525 -0.00036875)
(0.253507 6.2976e-05 -0.000381692)
(0.251959 0.00017561 -0.000397999)
(0.250231 0.000197775 -0.000401255)
(0.248304 0.00020073 -0.000347076)
(0.246457 0.000214329 -0.0002278)
(0.24511 0.000255467 -0.000156083)
(0.244286 0.000270237 -7.86997e-05)
(0.243876 0.000242706 2.74278e-06)
(0.244011 0.000165265 0.000134638)
(0.244811 8.60341e-05 0.000352089)
(0.246118 7.76665e-05 0.000525807)
(0.247822 4.50751e-05 0.000564033)
(0.249489 -4.88991e-05 0.000533694)
(0.25101 -0.000203442 0.000453955)
(0.252582 -0.000256575 0.000368128)
(0.254032 -0.000242622 0.000276046)
(0.255211 -0.000193453 0.000183129)
(0.25602 -3.66923e-05 8.20598e-05)
(0.256172 0.000225601 -5.01166e-05)
(0.256348 0.000518101 -0.000229692)
(0.254942 0.00067692 -0.000533647)
(0.251957 0.000827273 -0.000858264)
(0.249271 0.00105939 -0.00107238)
(0.24623 0.00120141 -0.00122467)
(0.243103 0.00119591 -0.00127904)
(0.239942 0.00106933 -0.00123261)
(0.237061 0.000957146 -0.00115505)
(0.23458 0.000825253 -0.00102996)
(0.232525 0.00062485 -0.000846148)
(0.23094 0.000421586 -0.000626837)
(0.229865 0.000210466 -0.000408165)
(0.229383 -7.63326e-06 -0.000153237)
(0.229577 -0.00023398 0.000109128)
(0.230373 -0.000512669 0.000374388)
(0.231688 -0.000822229 0.000669275)
(0.233717 -0.00114108 0.000992096)
(0.236622 -0.00155626 0.00144614)
(0.240531 -0.00219569 0.00200148)
(0.245875 -0.00323227 0.00270127)
(0.25325 -0.00490171 0.00373355)
(0.26506 -0.00747629 0.00527005)
(0.294915 -0.0111097 0.0073153)
(0.263095 -0.0197265 0.0177682)
(0.417641 -0.0103777 0.0110523)
(0.257074 -9.77151e-05 4.80544e-05)
(0.256791 -0.00012979 5.893e-06)
(0.256793 -8.11412e-05 -0.000121127)
(0.256022 1.24128e-05 -0.000188955)
(0.254846 0.000184481 -0.000232853)
(0.253426 0.00030292 -0.000285432)
(0.251853 0.000286205 -0.000320998)
(0.250105 0.000286038 -0.000259883)
(0.248384 0.000300863 -0.000136495)
(0.246941 0.000337777 -7.85968e-05)
(0.245836 0.000388756 -1.65239e-05)
(0.245183 0.000384823 4.3521e-05)
(0.245132 0.000286907 0.00014972)
(0.245711 0.000190481 0.000336883)
(0.2467 0.00016784 0.00048367)
(0.247936 5.57119e-05 0.000478233)
(0.249192 -0.000128682 0.00041934)
(0.250563 -0.000325661 0.000346254)
(0.252138 -0.00042352 0.000260839)
(0.253666 -0.00043807 0.00017033)
(0.25499 -0.000386707 6.65638e-05)
(0.255948 -0.000249746 -8.34291e-05)
(0.256192 -2.99908e-05 -0.000285131)
(0.256437 0.000325785 -0.000435586)
(0.254805 0.000650086 -0.000563997)
(0.251833 0.000873272 -0.000802328)
(0.249137 0.00104055 -0.00106985)
(0.246107 0.00111224 -0.00126867)
(0.2431 0.00105992 -0.00135919)
(0.240156 0.000949369 -0.00131821)
(0.237509 0.000833255 -0.00124482)
(0.235309 0.000655073 -0.00113864)
(0.233565 0.000464999 -0.000949006)
(0.23225 0.000281437 -0.000717137)
(0.231456 8.26192e-05 -0.000479354)
(0.231275 -9.78004e-05 -0.000193251)
(0.231683 -0.000260371 0.000112519)
(0.232616 -0.000503729 0.000428679)
(0.234081 -0.000757087 0.000792716)
(0.236216 -0.000937897 0.00121825)
(0.239046 -0.00122302 0.0017892)
(0.242662 -0.00166236 0.00253743)
(0.247553 -0.00232307 0.00357181)
(0.25444 -0.00342352 0.00512107)
(0.265731 -0.00511987 0.0074388)
(0.294804 -0.00739331 0.0106906)
(0.263225 -0.0164901 0.0203551)
(0.414808 -0.00989515 0.0112343)
(0.256545 -3.18696e-05 8.2833e-05)
(0.255421 4.35162e-05 0.000103199)
(0.254592 9.32616e-05 -6.34689e-05)
(0.252876 0.000161364 -0.000193785)
(0.250608 0.000309467 -0.000301704)
(0.248065 0.000404648 -0.00040418)
(0.245432 0.000373284 -0.000454861)
(0.242712 0.000373027 -0.000380408)
(0.240079 0.000355975 -0.000262872)
(0.237701 0.000367875 -0.000207488)
(0.235753 0.000431153 -0.00012389)
(0.234574 0.000454669 -1.24704e-05)
(0.234349 0.000362135 0.000140694)
(0.235008 0.000243969 0.000343237)
(0.236237 0.000171328 0.000490232)
(0.237811 -8.71104e-06 0.00048744)
(0.239811 -0.000208843 0.000485586)
(0.242299 -0.000388284 0.000490122)
(0.245115 -0.00051695 0.000439103)
(0.247937 -0.000564028 0.000354419)
(0.250572 -0.000508661 0.000239734)
(0.252843 -0.000387915 3.41451e-05)
(0.254378 -0.000205904 -0.000266974)
(0.255862 0.000138536 -0.000530458)
(0.254136 0.000491026 -0.000680942)
(0.250004 0.000687357 -0.000926596)
(0.246084 0.000767214 -0.00123999)
(0.241856 0.000776275 -0.00144786)
(0.237803 0.000708895 -0.00152896)
(0.234068 0.0006484 -0.0014661)
(0.230764 0.000567098 -0.00135912)
(0.228098 0.000408318 -0.00122437)
(0.22609 0.000270074 -0.00100781)
(0.224661 0.000142138 -0.000748855)
(0.223904 1.24555e-05 -0.000481398)
(0.223885 -9.81974e-05 -0.00017221)
(0.224518 -0.000187175 0.000164176)
(0.22574 -0.000352527 0.000534314)
(0.227618 -0.000520114 0.000958318)
(0.230225 -0.000594563 0.00144347)
(0.233512 -0.000775723 0.00209488)
(0.237598 -0.00103453 0.00301968)
(0.243013 -0.0013688 0.00440204)
(0.250633 -0.00196447 0.00657026)
(0.262962 -0.00289872 0.00988343)
(0.293604 -0.00411532 0.0144578)
(0.262169 -0.0118714 0.0248018)
(0.430702 -0.00763774 0.0123938)
(0.255947 2.78032e-06 3.67343e-05)
(0.253583 2.47105e-05 -6.20409e-05)
(0.251432 6.53844e-05 -0.00029801)
(0.248316 0.000114894 -0.000498617)
(0.244667 0.000215497 -0.000674824)
(0.240821 0.000272834 -0.00080736)
(0.237 0.000259064 -0.000841124)
(0.233235 0.000258512 -0.000760119)
(0.229683 0.000235358 -0.000634369)
(0.226562 0.0002661 -0.000517027)
(0.224111 0.000350894 -0.000355707)
(0.222667 0.000422054 -0.000131319)
(0.222424 0.000392253 0.000155769)
(0.22327 0.000304388 0.000428003)
(0.224869 0.000200671 0.000615373)
(0.227036 1.71134e-05 0.000694277)
(0.229886 -0.000123835 0.000803942)
(0.233459 -0.000225369 0.000909335)
(0.237513 -0.000336396 0.000914652)
(0.241697 -0.000394431 0.000846297)
(0.245775 -0.000338826 0.000718378)
(0.249533 -0.00023662 0.000465055)
(0.25252 -0.000109884 6.98584e-05)
(0.255364 2.2654e-06 -0.000470151)
(0.253774 7.97919e-06 -0.000995058)
(0.248482 -3.39838e-05 -0.00147904)
(0.243325 -3.82125e-05 -0.0018653)
(0.237909 -3.61887e-05 -0.00205886)
(0.2328 -4.37151e-05 -0.00208014)
(0.228176 -2.02177e-05 -0.00195822)
(0.224151 -8.43973e-06 -0.0017694)
(0.22088 -4.87178e-05 -0.00152252)
(0.218389 -7.96893e-05 -0.00121578)
(0.216652 -9.5914e-05 -0.0008831)
(0.215699 -8.86978e-05 -0.000521817)
(0.215533 -7.53123e-05 -0.000130925)
(0.216126 -5.22085e-05 0.000269528)
(0.217433 -7.34902e-05 0.000729481)
(0.219497 -9.6073e-05 0.00124214)
(0.222397 -5.82575e-05 0.0018021)
(0.226104 -8.73389e-05 0.00256468)
(0.230751 -0.000119595 0.00368191)
(0.236843 -0.000111482 0.00541502)
(0.245237 -0.000102692 0.00824876)
(0.258518 -5.63295e-05 0.0126695)
(0.289886 2.26545e-05 0.0184592)
(0.25984 0.000178897 0.0335682)
(0.443033 0.000177068 0.0164454)
(0.257009 -0.000262229 -0.000437471)
(0.253593 -0.000743854 -0.00106461)
(0.250137 -0.000852524 -0.00151679)
(0.245624 -0.000836743 -0.00180336)
(0.240596 -0.000736085 -0.0019808)
(0.235448 -0.000620912 -0.00203213)
(0.230453 -0.000511858 -0.0019225)
(0.225694 -0.00039464 -0.00170845)
(0.221329 -0.000278029 -0.00141557)
(0.217639 -0.000108346 -0.00107032)
(0.214896 9.66495e-05 -0.000695303)
(0.213342 0.000287397 -0.000262227)
(0.213139 0.000410379 0.000243166)
(0.214189 0.000460181 0.000702605)
(0.216214 0.000457785 0.00107981)
(0.219089 0.000424329 0.00138426)
(0.222846 0.000451764 0.00169295)
(0.227422 0.000524246 0.00197906)
(0.232586 0.000590585 0.00217468)
(0.237998 0.000671904 0.00225827)
(0.243377 0.000798793 0.00219599)
(0.248451 0.000902292 0.00191054)
(0.252719 0.000879119 0.00133929)
(0.25668 0.000408978 0.0002831)
(0.255937 -0.000335074 -0.000912564)
(0.25138 -0.000811281 -0.00181333)
(0.247045 -0.000914234 -0.0023232)
(0.24251 -0.000886686 -0.00252573)
(0.238166 -0.000807728 -0.00250902)
(0.234171 -0.000711104 -0.00236528)
(0.230668 -0.000617862 -0.00212385)
(0.227739 -0.000533477 -0.00178329)
(0.225419 -0.000456895 -0.0014035)
(0.223782 -0.000375816 -0.00101165)
(0.222826 -0.00026383 -0.000576131)
(0.222524 -0.000147167 -0.000116003)
(0.222936 -3.14082e-05 0.000345089)
(0.224067 7.70724e-05 0.000872134)
(0.22591 0.000206144 0.00146419)
(0.22852 0.00039154 0.00212439)
(0.231845 0.000630852 0.0030343)
(0.235913 0.00105954 0.00441421)
(0.241034 0.00190832 0.0066806)
(0.247713 0.00358066 0.0106071)
(0.258088 0.00681233 0.0170816)
(0.280596 0.0131263 0.0265345)
(0.252828 0.0331226 0.0505917)
(0.386075 0.0232566 0.0285418)
(0.257129 0.000264832 0.000243617)
(0.254481 0.000634256 0.000651227)
(0.251832 0.000956709 0.000801924)
(0.248193 0.00116127 0.000859046)
(0.244309 0.00128642 0.000850448)
(0.240413 0.00135266 0.000857995)
(0.236462 0.00134093 0.000871327)
(0.232473 0.00121164 0.000840247)
(0.22877 0.00100768 0.000735109)
(0.225751 0.00081887 0.000536733)
(0.223657 0.00059031 0.000323032)
(0.222576 0.00034857 0.000109677)
(0.222531 3.54009e-05 -0.000106343)
(0.223635 -0.000396083 -0.000273396)
(0.225798 -0.000731231 -0.000415783)
(0.228802 -0.000984446 -0.000522708)
(0.232378 -0.00119783 -0.000637903)
(0.236298 -0.0013626 -0.000783697)
(0.240444 -0.00143501 -0.000900434)
(0.244561 -0.00143941 -0.000954255)
(0.248402 -0.00132708 -0.00097064)
(0.251796 -0.00104861 -0.000923209)
(0.254498 -0.000610032 -0.000742841)
(0.257039 0.000105379 -0.000146524)
(0.256433 0.000878174 0.000716006)
(0.252861 0.00151195 0.00130055)
(0.249675 0.00193705 0.00147195)
(0.246292 0.00214869 0.00149281)
(0.242946 0.00217657 0.0014255)
(0.239714 0.00206337 0.00128732)
(0.236743 0.0018531 0.00111968)
(0.234185 0.00158313 0.000948009)
(0.232097 0.00127977 0.000759369)
(0.230536 0.000932377 0.000556441)
(0.229631 0.00058878 0.000322079)
(0.229464 0.000207107 7.76804e-05)
(0.229981 -0.000226721 -0.00012999)
(0.231062 -0.000692414 -0.000326963)
(0.232653 -0.00123174 -0.000564405)
(0.234793 -0.00185158 -0.00086108)
(0.237553 -0.00267195 -0.00127503)
(0.241076 -0.00385249 -0.00190854)
(0.245607 -0.00568824 -0.00294597)
(0.251483 -0.00868399 -0.00476055)
(0.260603 -0.0132936 -0.007883)
(0.281536 -0.019693 -0.012922)
(0.253563 -0.0381497 -0.0331341)
(0.378065 -0.0207787 -0.0215891)
(0.255985 -8.41553e-05 -4.09145e-05)
(0.254356 -0.000160507 -6.27726e-05)
(0.252882 -1.44206e-05 -6.17275e-05)
(0.250516 0.000121382 -4.70128e-05)
(0.247931 0.000261873 -3.64712e-05)
(0.245291 0.000369778 1.52796e-05)
(0.242512 0.00040572 0.00010181)
(0.239552 0.000359662 0.000183544)
(0.236712 0.000302183 0.000215562)
(0.23441 0.00029083 0.0001556)
(0.232854 0.000248231 8.76274e-05)
(0.232095 0.000201823 6.93033e-06)
(0.232171 8.62593e-05 -4.43405e-05)
(0.233153 -0.000111795 -1.02745e-05)
(0.234905 -0.000216263 2.92885e-05)
(0.237251 -0.000285618 5.42725e-05)
(0.239957 -0.000359322 4.34338e-05)
(0.242789 -0.000420432 -2.68202e-05)
(0.245674 -0.000404883 -6.88585e-05)
(0.248429 -0.000374112 -6.42947e-05)
(0.250868 -0.000285585 -6.29372e-05)
(0.252893 -7.24907e-05 -5.96605e-05)