/*--------------------------------*- C++ -*----------------------------------*\
| =========                 |                                                 |
| \\      /  F ield         | foam-extend: Open Source CFD                    |
|  \\    /   O peration     | Version:     4.1-20200408                       |
|   \\  /    A nd           | Web:         http://www.foam-extend.org         |
|    \\/     M anipulation  |                                                 |
\*---------------------------------------------------------------------------*/
FoamFile
{
    version     2.0;
    format      ascii;
    class       pointVectorField;
    location    "0.0085000";
    object      pointDU;
}
// * * * * * * * * * * * * * * * * * * * * * * * * * * * * * * * * * * * * * //

dimensions      [0 1 0 0 0 0 0];

internalField   nonuniform List<vector> 
4059
(
(0 4.26493e-17 -3.4127e-16)
(0 -5.03426e-14 2.51642e-15)
(0 4.81129e-10 -2.101e-11)
(0 4.2758e-17 -3.41954e-16)
(0 -5.03426e-14 -2.54112e-15)
(0 4.81129e-10 2.10071e-11)
(0 2.3511e-14 -7.08105e-16)
(0 7.59227e-15 -1.3077e-17)
(0 5.80132e-15 6.51176e-17)
(0 1.79226e-15 2.40157e-16)
(0 2.23446e-15 2.20849e-16)
(0 1.77932e-16 3.1064e-16)
(0 -4.66269e-16 3.38767e-16)
(0 1.72787e-17 3.17654e-16)
(0 -2.91008e-15 4.45464e-16)
(0 5.40172e-16 2.94825e-16)
(0 -4.71003e-15 5.24056e-16)
(0 1.11079e-15 2.69911e-16)
(0 -5.06739e-15 5.39654e-16)
(0 1.0714e-15 2.71631e-16)
(0 -4.68318e-15 5.22882e-16)
(0 5.87936e-10 -2.56733e-11)
(0 6.70403e-10 -2.92738e-11)
(0 7.32931e-10 -3.20037e-11)
(0 7.75843e-10 -3.38771e-11)
(0 7.98399e-10 -3.48616e-11)
(0 8.01561e-10 -3.49994e-11)
(0 7.85121e-10 -3.42814e-11)
(0 7.50815e-10 -3.27833e-11)
(0 6.9875e-10 -3.05098e-11)
(0 6.31325e-10 -2.75657e-11)
(0 5.49197e-10 -2.39796e-11)
(0 4.5521e-10 -1.98757e-11)
(0 3.50883e-10 -1.53205e-11)
(0 2.39213e-10 -1.04445e-11)
(0 1.2444e-10 -5.43315e-12)
(0 2.3511e-14 6.83408e-16)
(0 7.59227e-15 -1.16225e-17)
(0 5.80132e-15 -8.98171e-17)
(0 1.79226e-15 -2.64857e-16)
(0 2.23446e-15 -2.45551e-16)
(0 1.77932e-16 -3.35341e-16)
(0 -4.66269e-16 -3.63466e-16)
(0 1.72787e-17 -3.42355e-16)
(0 -2.91008e-15 -4.70168e-16)
(0 5.40172e-16 -3.19524e-16)
(0 -4.71003e-15 -5.48751e-16)
(0 1.11079e-15 -2.94611e-16)
(0 -5.06739e-15 -5.64359e-16)
(0 1.0714e-15 -2.9633e-16)
(0 -4.68318e-15 -5.47581e-16)
(0 5.87936e-10 2.56704e-11)
(0 6.70403e-10 2.9271e-11)
(0 7.32931e-10 3.20009e-11)
(0 7.75843e-10 3.38745e-11)
(0 7.98399e-10 3.48592e-11)
(0 8.01561e-10 3.49972e-11)
(0 7.85121e-10 3.42793e-11)
(0 7.50815e-10 3.27815e-11)
(0 6.9875e-10 3.05082e-11)
(0 6.31325e-10 2.75643e-11)
(0 5.49197e-10 2.39784e-11)
(0 4.5521e-10 1.98748e-11)
(0 3.50883e-10 1.53197e-11)
(0 2.39213e-10 1.0444e-11)
(0 1.2444e-10 5.4329e-12)
(5.00036e-05 3.71564e-09 -1.62228e-10)
(5.00036e-05 3.71564e-09 1.62228e-10)
(5.00036e-05 1.86224e-09 8.13068e-11)
(5.00036e-05 1.86224e-09 -8.13066e-11)
(5.00036e-05 5.56188e-09 -2.42837e-10)
(5.00036e-05 5.56188e-09 2.42837e-10)
(5.00035e-05 7.38454e-09 -3.22416e-10)
(5.00035e-05 7.38454e-09 3.22417e-10)
(5.00035e-05 9.1881e-09 -4.01161e-10)
(5.00035e-05 9.1881e-09 4.01162e-10)
(5.00034e-05 1.09553e-08 -4.78319e-10)
(5.00034e-05 1.09553e-08 4.7832e-10)
(5.00034e-05 1.26902e-08 -5.54064e-10)
(5.00034e-05 1.26902e-08 5.54065e-10)
(5.00033e-05 1.43703e-08 -6.27422e-10)
(5.00033e-05 1.43703e-08 6.27424e-10)
(5.00032e-05 1.59933e-08 -6.98284e-10)
(5.00032e-05 1.59933e-08 6.98286e-10)
(5.0003e-05 1.75194e-08 -7.64915e-10)
(5.0003e-05 1.75194e-08 7.64917e-10)
(5.00027e-05 1.8919e-08 -8.2602e-10)
(5.00027e-05 1.8919e-08 8.26022e-10)
(5.00022e-05 2.01051e-08 -8.77807e-10)
(5.00022e-05 2.01051e-08 8.77809e-10)
(5.00012e-05 2.0965e-08 -9.1535e-10)
(5.00012e-05 2.0965e-08 9.15352e-10)
(4.99995e-05 2.13266e-08 -9.31141e-10)
(4.99995e-05 2.13266e-08 9.31143e-10)
(4.99962e-05 2.09359e-08 -9.14083e-10)
(4.99962e-05 2.09359e-08 9.14085e-10)
(4.999e-05 2.00102e-08 -8.73663e-10)
(4.999e-05 2.00102e-08 8.73665e-10)
(5.00036e-05 4.27465e-17 -3.42048e-16)
(5.00045e-05 3.00146e-09 -1.31046e-10)
(5.00045e-05 3.00146e-09 1.31047e-10)
(5.00046e-05 1.5047e-09 6.56965e-11)
(5.00046e-05 1.5047e-09 -6.56964e-11)
(5.00045e-05 4.48381e-09 -1.95767e-10)
(5.00045e-05 4.48381e-09 1.95767e-10)
(5.00044e-05 5.93849e-09 -2.5928e-10)
(5.00044e-05 5.93849e-09 2.5928e-10)
(5.00043e-05 7.36114e-09 -3.21394e-10)
(5.00043e-05 7.36114e-09 3.21395e-10)
(5.00042e-05 8.73306e-09 -3.81293e-10)
(5.00042e-05 8.73306e-09 3.81294e-10)
(5.00041e-05 1.00476e-08 -4.38686e-10)
(5.00041e-05 1.00476e-08 4.38687e-10)
(5.00039e-05 1.12761e-08 -4.92323e-10)
(5.00039e-05 1.12761e-08 4.92324e-10)
(5.00036e-05 1.24026e-08 -5.41507e-10)
(5.00036e-05 1.24026e-08 5.41508e-10)
(5.00033e-05 1.33782e-08 -5.84104e-10)
(5.00033e-05 1.33782e-08 5.84106e-10)
(5.00027e-05 1.41666e-08 -6.18529e-10)
(5.00027e-05 1.41666e-08 6.1853e-10)
(5.00018e-05 1.46857e-08 -6.41193e-10)
(5.00018e-05 1.46857e-08 6.41194e-10)
(5.00004e-05 1.48766e-08 -6.49524e-10)
(5.00004e-05 1.48766e-08 6.49526e-10)
(4.99983e-05 1.46548e-08 -6.39842e-10)
(4.99983e-05 1.46548e-08 6.39843e-10)
(4.99949e-05 1.40517e-08 -6.13508e-10)
(4.99949e-05 1.40517e-08 6.13509e-10)
(4.999e-05 1.3331e-08 -5.82045e-10)
(4.999e-05 1.3331e-08 5.82047e-10)
(5.00046e-05 4.27473e-17 -3.42054e-16)
(5.0005e-05 2.33671e-09 -1.02023e-10)
(5.0005e-05 2.33671e-09 1.02023e-10)
(5.0005e-05 1.17279e-09 5.12048e-11)
(5.0005e-05 1.17279e-09 -5.12047e-11)
(5.00049e-05 3.48123e-09 -1.51994e-10)
(5.00049e-05 3.48123e-09 1.51994e-10)
(5.00048e-05 4.59287e-09 -2.00529e-10)
(5.00048e-05 4.59287e-09 2.00529e-10)
(5.00046e-05 5.66246e-09 -2.47228e-10)
(5.00046e-05 5.66246e-09 2.47229e-10)
(5.00045e-05 6.66981e-09 -2.9121e-10)
(5.00045e-05 6.66981e-09 2.91211e-10)
(5.00042e-05 7.60322e-09 -3.31963e-10)
(5.00042e-05 7.60322e-09 3.31964e-10)
(5.00039e-05 8.43253e-09 -3.68172e-10)
(5.00039e-05 8.43253e-09 3.68173e-10)
(5.00035e-05 9.13928e-09 -3.99029e-10)
(5.00035e-05 9.13928e-09 3.9903e-10)
(5.00029e-05 9.67861e-09 -4.22577e-10)
(5.00029e-05 9.67861e-09 4.22578e-10)
(5.00021e-05 1.0026e-08 -4.37743e-10)
(5.00021e-05 1.0026e-08 4.37744e-10)
(5.0001e-05 1.01244e-08 -4.42041e-10)
(5.0001e-05 1.01244e-08 4.42042e-10)
(4.99994e-05 9.97159e-09 -4.35369e-10)
(4.99994e-05 9.97159e-09 4.3537e-10)
(4.99971e-05 9.5472e-09 -4.16839e-10)
(4.99971e-05 9.5472e-09 4.1684e-10)
(4.99941e-05 9.00282e-09 -3.93071e-10)
(4.99941e-05 9.00282e-09 3.93072e-10)
(4.99902e-05 8.54266e-09 -3.7298e-10)
(4.99902e-05 8.54266e-09 3.72981e-10)
(5.0005e-05 4.27477e-17 -3.42057e-16)
(5.00049e-05 1.72468e-09 -7.5301e-11)
(5.00049e-05 1.72468e-09 7.53012e-11)
(5.0005e-05 8.67182e-10 3.78617e-11)
(5.0005e-05 8.67182e-10 -3.78617e-11)
(5.00048e-05 2.55994e-09 -1.11769e-10)
(5.00048e-05 2.55994e-09 1.11769e-10)
(5.00047e-05 3.35893e-09 -1.46654e-10)
(5.00047e-05 3.35893e-09 1.46654e-10)
(5.00045e-05 4.1106e-09 -1.79472e-10)
(5.00045e-05 4.1106e-09 1.79473e-10)
(5.00042e-05 4.79477e-09 -2.09344e-10)
(5.00042e-05 4.79477e-09 2.09344e-10)
(5.00039e-05 5.39893e-09 -2.35722e-10)
(5.00039e-05 5.39893e-09 2.35723e-10)
(5.00035e-05 5.89559e-09 -2.57407e-10)
(5.00035e-05 5.89559e-09 2.57407e-10)
(5.00029e-05 6.27001e-09 -2.73754e-10)
(5.00029e-05 6.27001e-09 2.73755e-10)
(5.00022e-05 6.48776e-09 -2.83261e-10)
(5.00022e-05 6.48776e-09 2.83262e-10)
(5.00012e-05 6.54006e-09 -2.85545e-10)
(5.00012e-05 6.54006e-09 2.85545e-10)
(4.99999e-05 6.39625e-09 -2.79266e-10)
(4.99999e-05 6.39625e-09 2.79267e-10)
(4.99982e-05 6.0883e-09 -2.65821e-10)
(4.99982e-05 6.0883e-09 2.65821e-10)
(4.9996e-05 5.63021e-09 -2.4582e-10)
(4.9996e-05 5.63021e-09 2.45821e-10)
(4.99933e-05 5.18083e-09 -2.262e-10)
(4.99933e-05 5.18083e-09 2.262e-10)
(4.99903e-05 4.86325e-09 -2.12334e-10)
(4.99903e-05 4.86325e-09 2.12334e-10)
(5.0005e-05 4.27477e-17 -3.42057e-16)
(5.00044e-05 1.17728e-09 -5.14008e-11)
(5.00044e-05 1.17728e-09 5.14009e-11)
(5.00045e-05 5.93595e-10 2.59166e-11)
(5.00045e-05 5.93595e-10 -2.59166e-11)
(5.00043e-05 1.73798e-09 -7.58814e-11)
(5.00043e-05 1.73798e-09 7.58816e-11)
(5.00041e-05 2.26177e-09 -9.87507e-11)
(5.00041e-05 2.26177e-09 9.87509e-11)
(5.00039e-05 2.73772e-09 -1.19531e-10)
(5.00039e-05 2.73772e-09 1.19532e-10)
(5.00036e-05 3.14714e-09 -1.37407e-10)
(5.00036e-05 3.14714e-09 1.37407e-10)
(5.00031e-05 3.47929e-09 -1.51909e-10)
(5.00031e-05 3.47929e-09 1.51909e-10)
(5.00026e-05 3.71155e-09 -1.62049e-10)
(5.00026e-05 3.71155e-09 1.6205e-10)
(5.00019e-05 3.83509e-09 -1.67443e-10)
(5.00019e-05 3.83509e-09 1.67444e-10)
(5.00011e-05 3.82692e-09 -1.67087e-10)
(5.00011e-05 3.82692e-09 1.67087e-10)
(5e-05 3.69118e-09 -1.6116e-10)
(5e-05 3.69118e-09 1.6116e-10)
(4.99987e-05 3.41666e-09 -1.49174e-10)
(4.99987e-05 3.41666e-09 1.49175e-10)
(4.9997e-05 3.05019e-09 -1.33174e-10)
(4.9997e-05 3.05019e-09 1.33174e-10)
(4.9995e-05 2.61806e-09 -1.14306e-10)
(4.9995e-05 2.61806e-09 1.14307e-10)
(4.99927e-05 2.25645e-09 -9.85186e-11)
(4.99927e-05 2.25645e-09 9.85188e-11)
(4.99903e-05 2.03567e-09 -8.88789e-11)
(4.99903e-05 2.03567e-09 8.88791e-11)
(5.00045e-05 4.27473e-17 -3.42054e-16)
(5.00036e-05 6.99722e-10 -3.05502e-11)
(5.00036e-05 6.99722e-10 3.05503e-11)
(5.00037e-05 3.54601e-10 1.54819e-11)
(5.00037e-05 3.54601e-10 -1.54819e-11)
(5.00034e-05 1.02299e-09 -4.46643e-11)
(5.00034e-05 1.02299e-09 4.46644e-11)
(5.00032e-05 1.31137e-09 -5.72555e-11)
(5.00032e-05 1.31137e-09 5.72556e-11)
(5.00029e-05 1.55537e-09 -6.79084e-11)
(5.00029e-05 1.55537e-09 6.79085e-11)
(5.00026e-05 1.73876e-09 -7.59158e-11)
(5.00026e-05 1.73876e-09 7.5916e-11)
(5.00021e-05 1.85383e-09 -8.09396e-11)
(5.00021e-05 1.85383e-09 8.09398e-11)
(5.00015e-05 1.88347e-09 -8.22338e-11)
(5.00015e-05 1.88347e-09 8.2234e-11)
(5.00007e-05 1.8247e-09 -7.96677e-11)
(5.00007e-05 1.8247e-09 7.96679e-11)
(4.99998e-05 1.66435e-09 -7.26667e-11)
(4.99998e-05 1.66435e-09 7.26668e-11)
(4.99987e-05 1.41475e-09 -6.17688e-11)
(4.99987e-05 1.41475e-09 6.1769e-11)
(4.99974e-05 1.07674e-09 -4.70113e-11)
(4.99974e-05 1.07674e-09 4.70114e-11)
(4.99958e-05 6.98975e-10 -3.05176e-11)
(4.99958e-05 6.98975e-10 3.05176e-11)
(4.9994e-05 3.0841e-10 -1.34652e-11)
(4.9994e-05 3.0841e-10 1.34652e-11)
(4.99921e-05 9.55142e-12 -4.16704e-13)
(4.99921e-05 9.55142e-12 4.16682e-13)
(4.99901e-05 -1.62665e-10 7.10242e-12)
(4.99901e-05 -1.62665e-10 -7.10246e-12)
(5.00037e-05 4.27466e-17 -3.42048e-16)
(5.00025e-05 2.93315e-10 -1.28061e-11)
(5.00025e-05 2.93315e-10 1.28061e-11)
(5.00026e-05 1.50911e-10 6.58857e-12)
(5.00026e-05 1.50911e-10 -6.58858e-12)
(5.00023e-05 4.16403e-10 -1.81802e-11)
(5.00023e-05 4.16403e-10 1.81803e-11)
(5.00021e-05 5.08643e-10 -2.22075e-11)
(5.00021e-05 5.08643e-10 2.22075e-11)
(5.00017e-05 5.62644e-10 -2.45653e-11)
(5.00017e-05 5.62644e-10 2.45653e-11)
(5.00013e-05 5.65141e-10 -2.46743e-11)
(5.00013e-05 5.65141e-10 2.46743e-11)
(5.00008e-05 5.11645e-10 -2.23386e-11)
(5.00008e-05 5.11645e-10 2.23386e-11)
(5.00001e-05 3.90204e-10 -1.70364e-11)
(5.00001e-05 3.90204e-10 1.70364e-11)
(4.99994e-05 2.02455e-10 -8.83905e-12)
(4.99994e-05 2.02455e-10 8.83905e-12)
(4.99984e-05 -5.74967e-11 2.51068e-12)
(4.99984e-05 -5.74967e-11 -2.51071e-12)
(4.99973e-05 -3.73324e-10 1.63e-11)
(4.99973e-05 -3.73324e-10 -1.63001e-11)
(4.99961e-05 -7.38e-10 3.22221e-11)
(4.99961e-05 -7.38e-10 -3.22222e-11)
(4.99946e-05 -1.10749e-09 4.83542e-11)
(4.99946e-05 -1.10749e-09 -4.83543e-11)
(4.99931e-05 -1.45898e-09 6.37008e-11)
(4.99931e-05 -1.45898e-09 -6.3701e-11)
(4.99914e-05 -1.71568e-09 7.49085e-11)
(4.99914e-05 -1.71568e-09 -7.49087e-11)
(4.99899e-05 -1.86364e-09 8.13686e-11)
(4.99899e-05 -1.86364e-09 -8.13688e-11)
(5.00026e-05 4.27456e-17 -3.42041e-16)
(5.00011e-05 -4.44194e-11 1.93971e-12)
(5.00011e-05 -4.44194e-11 -1.93974e-12)
(5.00012e-05 -1.86242e-11 -8.13495e-13)
(5.00012e-05 -1.86242e-11 8.13469e-13)
(5.00009e-05 -8.60985e-11 3.75946e-12)
(5.00009e-05 -8.60985e-11 -3.75949e-12)
(5.00007e-05 -1.53367e-10 6.69645e-12)
(5.00007e-05 -1.53367e-10 -6.69649e-12)
(5.00003e-05 -2.51226e-10 1.09691e-11)
(5.00003e-05 -2.51226e-10 -1.09691e-11)
(4.99999e-05 -3.90014e-10 1.70287e-11)
(4.99999e-05 -3.90014e-10 -1.70287e-11)
(4.99993e-05 -5.7124e-10 2.49412e-11)
(4.99993e-05 -5.7124e-10 -2.49413e-11)
(4.99986e-05 -8.02612e-10 3.50431e-11)
(4.99986e-05 -8.02612e-10 -3.50432e-11)
(4.99979e-05 -1.07932e-09 4.71244e-11)
(4.99979e-05 -1.07932e-09 -4.71245e-11)
(4.99969e-05 -1.40246e-09 6.1233e-11)
(4.99969e-05 -1.40246e-09 -6.12332e-11)
(4.99959e-05 -1.75475e-09 7.66145e-11)
(4.99959e-05 -1.75475e-09 -7.66147e-11)
(4.99947e-05 -2.12687e-09 9.28615e-11)
(4.99947e-05 -2.12687e-09 -9.28618e-11)
(4.99934e-05 -2.48205e-09 1.08369e-10)
(4.99934e-05 -2.48205e-09 -1.08369e-10)
(4.99921e-05 -2.80304e-09 1.22384e-10)
(4.99921e-05 -2.80304e-09 -1.22384e-10)
(4.99907e-05 -3.03538e-09 1.32528e-10)
(4.99907e-05 -3.03538e-09 -1.32528e-10)
(4.99895e-05 -3.17766e-09 1.3874e-10)
(4.99895e-05 -3.17766e-09 -1.3874e-10)
(5.00013e-05 4.27445e-17 -3.42032e-16)
(4.99996e-05 -3.18707e-10 1.39154e-11)
(4.99996e-05 -3.18707e-10 -1.39154e-11)
(4.99997e-05 -1.56524e-10 -6.83436e-12)
(4.99997e-05 -1.56524e-10 6.83432e-12)
(4.99994e-05 -4.92929e-10 2.15221e-11)
(4.99994e-05 -4.92929e-10 -2.15221e-11)
(4.99991e-05 -6.86981e-10 2.99946e-11)
(4.99991e-05 -6.86981e-10 -2.99947e-11)
(4.99987e-05 -9.03508e-10 3.94483e-11)
(4.99987e-05 -9.03508e-10 -3.94485e-11)
(4.99983e-05 -1.15021e-09 5.02196e-11)
(4.99983e-05 -1.15021e-09 -5.02197e-11)
(4.99977e-05 -1.42614e-09 6.22669e-11)
(4.99977e-05 -1.42614e-09 -6.22671e-11)
(4.99971e-05 -1.73579e-09 7.57867e-11)
(4.99971e-05 -1.73579e-09 -7.57869e-11)
(4.99963e-05 -2.0725e-09 9.04875e-11)
(4.99963e-05 -2.0725e-09 -9.04877e-11)
(4.99954e-05 -2.43454e-09 1.06295e-10)
(4.99954e-05 -2.43454e-09 -1.06295e-10)
(4.99944e-05 -2.8056e-09 1.22495e-10)
(4.99944e-05 -2.8056e-09 -1.22496e-10)
(4.99934e-05 -3.17627e-09 1.38679e-10)
(4.99934e-05 -3.17627e-09 -1.38679e-10)
(4.99922e-05 -3.51748e-09 1.53577e-10)
(4.99922e-05 -3.51748e-09 -1.53577e-10)
(4.99911e-05 -3.81724e-09 1.66664e-10)
(4.99911e-05 -3.81724e-09 -1.66665e-10)
(4.999e-05 -4.038e-09 1.76303e-10)
(4.999e-05 -4.038e-09 -1.76304e-10)
(4.9989e-05 -4.18534e-09 1.82736e-10)
(4.9989e-05 -4.18534e-09 -1.82737e-10)
(4.99997e-05 4.27432e-17 -3.42021e-16)
(4.99979e-05 -5.36508e-10 2.34247e-11)
(4.99979e-05 -5.36508e-10 -2.34248e-11)
(4.9998e-05 -2.66194e-10 -1.16227e-11)
(4.9998e-05 -2.66194e-10 1.16226e-11)
(4.99977e-05 -8.14982e-10 3.55832e-11)
(4.99977e-05 -8.14982e-10 -3.55833e-11)
(4.99974e-05 -1.10759e-09 4.83586e-11)
(4.99974e-05 -1.10759e-09 -4.83588e-11)
(4.9997e-05 -1.41481e-09 6.17724e-11)
(4.9997e-05 -1.41481e-09 -6.17726e-11)
(4.99966e-05 -1.74215e-09 7.60643e-11)
(4.99966e-05 -1.74215e-09 -7.60645e-11)
(4.99961e-05 -2.08677e-09 9.11108e-11)
(4.99961e-05 -2.08677e-09 -9.1111e-11)
(4.99954e-05 -2.45092e-09 1.0701e-10)
(4.99954e-05 -2.45092e-09 -1.0701e-10)
(4.99947e-05 -2.82706e-09 1.23433e-10)
(4.99947e-05 -2.82706e-09 -1.23433e-10)
(4.99939e-05 -3.21214e-09 1.40245e-10)
(4.99939e-05 -3.21214e-09 -1.40246e-10)
(4.9993e-05 -3.59175e-09 1.5682e-10)
(4.9993e-05 -3.59175e-09 -1.5682e-10)
(4.9992e-05 -3.95759e-09 1.72792e-10)
(4.9992e-05 -3.95759e-09 -1.72793e-10)
(4.9991e-05 -4.28771e-09 1.87206e-10)
(4.9991e-05 -4.28771e-09 -1.87206e-10)
(4.99901e-05 -4.57444e-09 1.99725e-10)
(4.99901e-05 -4.57444e-09 -1.99725e-10)
(4.99891e-05 -4.79294e-09 2.09265e-10)
(4.99891e-05 -4.79294e-09 -2.09265e-10)
(4.99884e-05 -4.95242e-09 2.16227e-10)
(4.99884e-05 -4.95242e-09 -2.16228e-10)
(4.99981e-05 4.27417e-17 -3.4201e-16)
(4.99961e-05 -7.05656e-10 3.08099e-11)
(4.99961e-05 -7.05656e-10 -3.081e-11)
(4.99962e-05 -3.51498e-10 -1.53471e-11)
(4.99962e-05 -3.51498e-10 1.5347e-11)
(4.99959e-05 -1.06433e-09 4.64701e-11)
(4.99959e-05 -1.06433e-09 -4.64702e-11)
(4.99957e-05 -1.43187e-09 6.25171e-11)
(4.99957e-05 -1.43187e-09 -6.25173e-11)
(4.99953e-05 -1.8069e-09 7.88911e-11)
(4.99953e-05 -1.8069e-09 -7.88913e-11)
(4.99949e-05 -2.19316e-09 9.57555e-11)
(4.99949e-05 -2.19316e-09 -9.57558e-11)
(4.99943e-05 -2.58647e-09 1.12928e-10)
(4.99943e-05 -2.58647e-09 -1.12928e-10)
(4.99937e-05 -2.9876e-09 1.30442e-10)
(4.99937e-05 -2.9876e-09 -1.30442e-10)
(4.99931e-05 -3.3889e-09 1.47963e-10)
(4.99931e-05 -3.3889e-09 -1.47963e-10)
(4.99923e-05 -3.78687e-09 1.65339e-10)
(4.99923e-05 -3.78687e-09 -1.65339e-10)
(4.99915e-05 -4.16947e-09 1.82043e-10)
(4.99915e-05 -4.16947e-09 -1.82044e-10)
(4.99907e-05 -4.52991e-09 1.97781e-10)
(4.99907e-05 -4.52991e-09 -1.97781e-10)
(4.99898e-05 -4.8524e-09 2.11861e-10)
(4.99898e-05 -4.8524e-09 -2.11861e-10)
(4.9989e-05 -5.13258e-09 2.24094e-10)
(4.9989e-05 -5.13258e-09 -2.24094e-10)
(4.99882e-05 -5.35504e-09 2.33806e-10)
(4.99882e-05 -5.35504e-09 -2.33807e-10)
(4.99876e-05 -5.53051e-09 2.41467e-10)
(4.99876e-05 -5.53051e-09 -2.41468e-10)
(4.99963e-05 4.27402e-17 -3.41998e-16)
(4.99943e-05 -8.34177e-10 3.64213e-11)
(4.99943e-05 -8.34177e-10 -3.64214e-11)
(4.99944e-05 -4.16413e-10 -1.81814e-11)
(4.99944e-05 -4.16413e-10 1.81813e-11)
(4.99941e-05 -1.2532e-09 5.47162e-11)
(4.99941e-05 -1.2532e-09 -5.47164e-11)
(4.99939e-05 -1.67646e-09 7.3196e-11)
(4.99939e-05 -1.67646e-09 -7.31962e-11)
(4.99935e-05 -2.10102e-09 9.17326e-11)
(4.99935e-05 -2.10102e-09 -9.17329e-11)
(4.99931e-05 -2.52931e-09 1.10433e-10)
(4.99931e-05 -2.52931e-09 -1.10433e-10)
(4.99926e-05 -2.95625e-09 1.29073e-10)
(4.99926e-05 -2.95625e-09 -1.29073e-10)
(4.99921e-05 -3.38173e-09 1.4765e-10)
(4.99921e-05 -3.38173e-09 -1.4765e-10)
(4.99914e-05 -3.79841e-09 1.65843e-10)
(4.99914e-05 -3.79841e-09 -1.65843e-10)
(4.99908e-05 -4.20293e-09 1.83504e-10)
(4.99908e-05 -4.20293e-09 -1.83505e-10)
(4.999e-05 -4.58566e-09 2.00215e-10)
(4.999e-05 -4.58566e-09 -2.00215e-10)
(4.99893e-05 -4.9414e-09 2.15746e-10)
(4.99893e-05 -4.9414e-09 -2.15747e-10)
(4.99886e-05 -5.25943e-09 2.29632e-10)
(4.99886e-05 -5.25943e-09 -2.29633e-10)
(4.99879e-05 -5.53785e-09 2.41788e-10)
(4.99879e-05 -5.53785e-09 -2.41789e-10)
(4.99873e-05 -5.7682e-09 2.51845e-10)
(4.99873e-05 -5.7682e-09 -2.51846e-10)
(4.99868e-05 -5.96157e-09 2.60288e-10)
(4.99868e-05 -5.96157e-09 -2.60289e-10)
(4.99945e-05 4.27387e-17 -3.41985e-16)
(4.99924e-05 -9.29808e-10 4.05966e-11)
(4.99924e-05 -9.29808e-10 -4.05967e-11)
(4.99925e-05 -4.64795e-10 -2.02938e-11)
(4.99925e-05 -4.64795e-10 2.02937e-11)
(4.99923e-05 -1.39328e-09 6.08321e-11)
(4.99923e-05 -1.39328e-09 -6.08322e-11)
(4.9992e-05 -1.85706e-09 8.10814e-11)
(4.9992e-05 -1.85706e-09 -8.10816e-11)
(4.99917e-05 -2.31697e-09 1.01161e-10)
(4.99917e-05 -2.31697e-09 -1.01162e-10)
(4.99913e-05 -2.77451e-09 1.21138e-10)
(4.99913e-05 -2.77451e-09 -1.21138e-10)
(4.99909e-05 -3.22398e-09 1.40762e-10)
(4.99909e-05 -3.22398e-09 -1.40762e-10)
(4.99904e-05 -3.66486e-09 1.60012e-10)
(4.99904e-05 -3.66486e-09 -1.60012e-10)
(4.99898e-05 -4.09037e-09 1.7859e-10)
(4.99898e-05 -4.09037e-09 -1.7859e-10)
(4.99892e-05 -4.49759e-09 1.96369e-10)
(4.99892e-05 -4.49759e-09 -1.9637e-10)
(4.99886e-05 -4.87913e-09 2.13028e-10)
(4.99886e-05 -4.87913e-09 -2.13028e-10)
(4.9988e-05 -5.23125e-09 2.28402e-10)
(4.9988e-05 -5.23125e-09 -2.28402e-10)
(4.99873e-05 -5.54738e-09 2.42204e-10)
(4.99873e-05 -5.54738e-09 -2.42205e-10)
(4.99868e-05 -5.82729e-09 2.54425e-10)
(4.99868e-05 -5.82729e-09 -2.54426e-10)
(4.99862e-05 -6.06773e-09 2.64923e-10)
(4.99862e-05 -6.06773e-09 -2.64924e-10)
(4.99859e-05 -6.27938e-09 2.74164e-10)
(4.99859e-05 -6.27938e-09 -2.74165e-10)
(4.99926e-05 4.27371e-17 -3.41972e-16)
(4.99906e-05 -9.99698e-10 4.3648e-11)
(4.99906e-05 -9.99698e-10 -4.36482e-11)
(4.99907e-05 -5.00214e-10 -2.18402e-11)
(4.99907e-05 -5.00214e-10 2.18401e-11)
(4.99904e-05 -1.49529e-09 6.52859e-11)
(4.99904e-05 -1.49529e-09 -6.52861e-11)
(4.99902e-05 -1.98797e-09 8.6797e-11)
(4.99902e-05 -1.98797e-09 -8.67973e-11)
(4.99899e-05 -2.47255e-09 1.07954e-10)
(4.99899e-05 -2.47255e-09 -1.07954e-10)
(4.99896e-05 -2.94989e-09 1.28795e-10)
(4.99896e-05 -2.94989e-09 -1.28796e-10)
(4.99892e-05 -3.41395e-09 1.49057e-10)
(4.99892e-05 -3.41395e-09 -1.49057e-10)
(4.99887e-05 -3.86409e-09 1.6871e-10)
(4.99887e-05 -3.86409e-09 -1.6871e-10)
(4.99882e-05 -4.29413e-09 1.87486e-10)
(4.99882e-05 -4.29413e-09 -1.87487e-10)
(4.99877e-05 -4.7018e-09 2.05285e-10)
(4.99877e-05 -4.7018e-09 -2.05286e-10)
(4.99871e-05 -5.08167e-09 2.21871e-10)
(4.99871e-05 -5.08167e-09 -2.21871e-10)
(4.99866e-05 -5.43126e-09 2.37134e-10)
(4.99866e-05 -5.43126e-09 -2.37135e-10)
(4.99861e-05 -5.7473e-09 2.50933e-10)
(4.99861e-05 -5.7473e-09 -2.50934e-10)
(4.99856e-05 -6.0307e-09 2.63306e-10)
(4.99856e-05 -6.0307e-09 -2.63307e-10)
(4.99852e-05 -6.2821e-09 2.74283e-10)
(4.99852e-05 -6.2821e-09 -2.74283e-10)
(4.99849e-05 -6.5114e-09 2.84294e-10)
(4.99849e-05 -6.5114e-09 -2.84295e-10)
(4.99907e-05 4.27354e-17 -3.41959e-16)
(4.99887e-05 -1.05025e-09 4.58552e-11)
(4.99887e-05 -1.05025e-09 -4.58553e-11)
(4.99888e-05 -5.2588e-10 -2.29608e-11)
(4.99888e-05 -5.2588e-10 2.29607e-11)
(4.99885e-05 -1.56878e-09 6.84947e-11)
(4.99885e-05 -1.56878e-09 -6.84949e-11)
(4.99883e-05 -2.08181e-09 9.08942e-11)
(4.99883e-05 -2.08181e-09 -9.08945e-11)
(4.99881e-05 -2.58333e-09 1.12791e-10)
(4.99881e-05 -2.58333e-09 -1.12791e-10)
(4.99878e-05 -3.07381e-09 1.34206e-10)
(4.99878e-05 -3.07381e-09 -1.34206e-10)
(4.99874e-05 -3.54699e-09 1.54865e-10)
(4.99874e-05 -3.54699e-09 -1.54866e-10)
(4.9987e-05 -4.0023e-09 1.74744e-10)
(4.9987e-05 -4.0023e-09 -1.74745e-10)
(4.99866e-05 -4.43421e-09 1.93602e-10)
(4.99866e-05 -4.43421e-09 -1.93602e-10)
(4.99862e-05 -4.8411e-09 2.11367e-10)
(4.99862e-05 -4.8411e-09 -2.11368e-10)
(4.99857e-05 -5.2192e-09 2.27876e-10)
(4.99857e-05 -5.2192e-09 -2.27876e-10)
(4.99852e-05 -5.56713e-09 2.43066e-10)
(4.99852e-05 -5.56713e-09 -2.43067e-10)
(4.99848e-05 -5.88421e-09 2.5691e-10)
(4.99848e-05 -5.88421e-09 -2.56911e-10)
(4.99844e-05 -6.17206e-09 2.69478e-10)
(4.99844e-05 -6.17206e-09 -2.69479e-10)
(4.99841e-05 -6.43431e-09 2.80928e-10)
(4.99841e-05 -6.43431e-09 -2.80929e-10)
(4.99838e-05 -6.67988e-09 2.9165e-10)
(4.99838e-05 -6.67988e-09 -2.91651e-10)
(4.99888e-05 4.27338e-17 -3.41946e-16)
(4.99868e-05 -1.08706e-09 4.74622e-11)
(4.99868e-05 -1.08706e-09 -4.74623e-11)
(4.99869e-05 -5.44602e-10 -2.37782e-11)
(4.99869e-05 -5.44602e-10 2.37781e-11)
(4.99867e-05 -1.62207e-09 7.08214e-11)
(4.99867e-05 -1.62207e-09 -7.08216e-11)
(4.99865e-05 -2.14951e-09 9.38498e-11)
(4.99865e-05 -2.14951e-09 -9.38501e-11)
(4.99863e-05 -2.66268e-09 1.16255e-10)
(4.99863e-05 -2.66268e-09 -1.16256e-10)
(4.9986e-05 -3.16184e-09 1.38049e-10)
(4.9986e-05 -3.16184e-09 -1.3805e-10)
(4.99857e-05 -3.64061e-09 1.58953e-10)
(4.99857e-05 -3.64061e-09 -1.58953e-10)
(4.99854e-05 -4.09859e-09 1.78949e-10)
(4.99854e-05 -4.09859e-09 -1.78949e-10)
(4.9985e-05 -4.53083e-09 1.97821e-10)
(4.9985e-05 -4.53083e-09 -1.97821e-10)
(4.99846e-05 -4.93637e-09 2.15527e-10)
(4.99846e-05 -4.93637e-09 -2.15527e-10)
(4.99843e-05 -5.3128e-09 2.31962e-10)
(4.99843e-05 -5.3128e-09 -2.31963e-10)
(4.99839e-05 -5.65963e-09 2.47105e-10)
(4.99839e-05 -5.65963e-09 -2.47106e-10)
(4.99835e-05 -5.97824e-09 2.61016e-10)
(4.99835e-05 -5.97824e-09 -2.61017e-10)
(4.99832e-05 -6.27071e-09 2.73785e-10)
(4.99832e-05 -6.27071e-09 -2.73786e-10)
(4.99829e-05 -6.54298e-09 2.85673e-10)
(4.99829e-05 -6.54298e-09 -2.85673e-10)
(4.99827e-05 -6.8029e-09 2.97021e-10)
(4.99827e-05 -6.8029e-09 -2.97022e-10)
(4.99869e-05 4.27322e-17 -3.41933e-16)
(4.99849e-05 -1.11492e-09 4.86786e-11)
(4.99849e-05 -1.11492e-09 -4.86787e-11)
(4.9985e-05 -5.58792e-10 -2.43978e-11)
(4.9985e-05 -5.58792e-10 2.43977e-11)
(4.99848e-05 -1.66226e-09 7.25762e-11)
(4.99848e-05 -1.66226e-09 -7.25764e-11)
(4.99847e-05 -2.20034e-09 9.60692e-11)
(4.99847e-05 -2.20034e-09 -9.60694e-11)
(4.99845e-05 -2.72191e-09 1.18841e-10)
(4.99845e-05 -2.72191e-09 -1.18842e-10)
(4.99843e-05 -3.2271e-09 1.40898e-10)
(4.99843e-05 -3.2271e-09 -1.40899e-10)
(4.99841e-05 -3.70943e-09 1.61958e-10)
(4.99841e-05 -3.70943e-09 -1.61958e-10)
(4.99838e-05 -4.16876e-09 1.82012e-10)
(4.99838e-05 -4.16876e-09 -1.82013e-10)
(4.99835e-05 -4.6006e-09 2.00867e-10)
(4.99835e-05 -4.6006e-09 -2.00867e-10)
(4.99831e-05 -5.00462e-09 2.18507e-10)
(4.99831e-05 -5.00462e-09 -2.18507e-10)
(4.99828e-05 -5.37951e-09 2.34875e-10)
(4.99828e-05 -5.37951e-09 -2.34875e-10)
(4.99825e-05 -5.72551e-09 2.49982e-10)
(4.99825e-05 -5.72551e-09 -2.49982e-10)
(4.99822e-05 -6.04564e-09 2.63959e-10)
(4.99822e-05 -6.04564e-09 -2.63959e-10)
(4.99819e-05 -6.34225e-09 2.76909e-10)
(4.99819e-05 -6.34225e-09 -2.76909e-10)
(4.99817e-05 -6.62311e-09 2.89172e-10)
(4.99817e-05 -6.62311e-09 -2.89172e-10)
(4.99815e-05 -6.89509e-09 3.01046e-10)
(4.99815e-05 -6.89509e-09 -3.01047e-10)
(4.9985e-05 4.27306e-17 -3.41921e-16)
(4.99831e-05 -1.13788e-09 4.96811e-11)
(4.99831e-05 -1.13788e-09 -4.96813e-11)
(4.99831e-05 -5.70491e-10 -2.49086e-11)
(4.99831e-05 -5.70491e-10 2.49085e-11)
(4.9983e-05 -1.69533e-09 7.40199e-11)
(4.9983e-05 -1.69533e-09 -7.40201e-11)
(4.99829e-05 -2.2421e-09 9.78923e-11)
(4.99829e-05 -2.2421e-09 -9.78926e-11)
(4.99828e-05 -2.77044e-09 1.2096e-10)
(4.99828e-05 -2.77044e-09 -1.20961e-10)
(4.99826e-05 -3.28043e-09 1.43227e-10)
(4.99826e-05 -3.28043e-09 -1.43227e-10)
(4.99824e-05 -3.76551e-09 1.64406e-10)
(4.99824e-05 -3.76551e-09 -1.64406e-10)
(4.99822e-05 -4.22575e-09 1.84501e-10)
(4.99822e-05 -4.22575e-09 -1.84501e-10)
(4.99819e-05 -4.65706e-09 2.03332e-10)
(4.99819e-05 -4.65706e-09 -2.03332e-10)
(4.99817e-05 -5.05967e-09 2.2091e-10)
(4.99817e-05 -5.05967e-09 -2.20911e-10)
(4.99814e-05 -5.4331e-09 2.37214e-10)
(4.99814e-05 -5.4331e-09 -2.37215e-10)
(4.99811e-05 -5.77827e-09 2.52285e-10)
(4.99811e-05 -5.77827e-09 -2.52286e-10)
(4.99809e-05 -6.09946e-09 2.66308e-10)
(4.99809e-05 -6.09946e-09 -2.66309e-10)
(4.99807e-05 -6.39921e-09 2.79396e-10)
(4.99807e-05 -6.39921e-09 -2.79397e-10)
(4.99805e-05 -6.68684e-09 2.91954e-10)
(4.99805e-05 -6.68684e-09 -2.91955e-10)
(4.99803e-05 -6.96828e-09 3.04242e-10)
(4.99803e-05 -6.96828e-09 -3.04243e-10)
(4.99832e-05 4.2729e-17 -3.41908e-16)
(4.99812e-05 -1.15931e-09 5.06168e-11)
(4.99812e-05 -1.15931e-09 -5.0617e-11)
(4.99813e-05 -5.81397e-10 -2.53848e-11)
(4.99813e-05 -5.81397e-10 2.53847e-11)
(4.99812e-05 -1.72623e-09 7.53693e-11)
(4.99812e-05 -1.72623e-09 -7.53695e-11)
(4.99811e-05 -2.28122e-09 9.96005e-11)
(4.99811e-05 -2.28122e-09 -9.96008e-11)
(4.9981e-05 -2.81607e-09 1.22953e-10)
(4.9981e-05 -2.81607e-09 -1.22953e-10)
(4.99809e-05 -3.33078e-09 1.45425e-10)
(4.99809e-05 -3.33078e-09 -1.45426e-10)
(4.99807e-05 -3.8187e-09 1.66728e-10)
(4.99807e-05 -3.8187e-09 -1.66729e-10)
(4.99806e-05 -4.28012e-09 1.86874e-10)
(4.99806e-05 -4.28012e-09 -1.86875e-10)
(4.99804e-05 -4.71117e-09 2.05695e-10)
(4.99804e-05 -4.71117e-09 -2.05695e-10)
(4.99802e-05 -5.11266e-09 2.23224e-10)
(4.99802e-05 -5.11266e-09 -2.23225e-10)
(4.998e-05 -5.48468e-09 2.39467e-10)
(4.998e-05 -5.48468e-09 -2.39467e-10)
(4.99798e-05 -5.82877e-09 2.5449e-10)
(4.99798e-05 -5.82877e-09 -2.5449e-10)
(4.99796e-05 -6.1502e-09 2.68524e-10)
(4.99796e-05 -6.1502e-09 -2.68524e-10)
(4.99794e-05 -6.45169e-09 2.81687e-10)
(4.99794e-05 -6.45169e-09 -2.81688e-10)
(4.99792e-05 -6.74389e-09 2.94445e-10)
(4.99792e-05 -6.74389e-09 -2.94446e-10)
(4.99791e-05 -7.03195e-09 3.07022e-10)
(4.99791e-05 -7.03195e-09 -3.07023e-10)
(4.99813e-05 4.27274e-17 -3.41895e-16)
(4.99794e-05 -1.18197e-09 5.16061e-11)
(4.99794e-05 -1.18197e-09 -5.16062e-11)
(4.99794e-05 -5.92902e-10 -2.58871e-11)
(4.99794e-05 -5.92902e-10 2.5887e-11)
(4.99794e-05 -1.75904e-09 7.68016e-11)
(4.99794e-05 -1.75904e-09 -7.68018e-11)
(4.99793e-05 -2.32297e-09 1.01424e-10)
(4.99793e-05 -2.32297e-09 -1.01424e-10)
(4.99792e-05 -2.86512e-09 1.25094e-10)
(4.99792e-05 -2.86512e-09 -1.25095e-10)
(4.99792e-05 -3.3854e-09 1.4781e-10)
(4.99792e-05 -3.3854e-09 -1.4781e-10)
(4.99791e-05 -3.87699e-09 1.69273e-10)
(4.99791e-05 -3.87699e-09 -1.69274e-10)
(4.9979e-05 -4.34039e-09 1.89506e-10)
(4.9979e-05 -4.34039e-09 -1.89506e-10)
(4.99788e-05 -4.77181e-09 2.08342e-10)
(4.99788e-05 -4.77181e-09 -2.08343e-10)
(4.99787e-05 -5.17258e-09 2.2584e-10)
(4.99787e-05 -5.17258e-09 -2.25841e-10)
(4.99785e-05 -5.54316e-09 2.4202e-10)
(4.99785e-05 -5.54316e-09 -2.42021e-10)
(4.99784e-05 -5.88571e-09 2.56976e-10)
(4.99784e-05 -5.88571e-09 -2.56976e-10)
(4.99782e-05 -6.20625e-09 2.70971e-10)
(4.99782e-05 -6.20625e-09 -2.70972e-10)
(4.99781e-05 -6.50774e-09 2.84134e-10)
(4.99781e-05 -6.50774e-09 -2.84135e-10)
(4.9978e-05 -6.80203e-09 2.96983e-10)
(4.9978e-05 -6.80203e-09 -2.96984e-10)
(4.99778e-05 -7.09364e-09 3.09715e-10)
(4.99778e-05 -7.09364e-09 -3.09716e-10)
(4.99794e-05 4.27258e-17 -3.41882e-16)
(4.99775e-05 -1.20806e-09 5.27454e-11)
(4.99775e-05 -1.20806e-09 -5.27456e-11)
(4.99775e-05 -6.06122e-10 -2.64643e-11)
(4.99775e-05 -6.06122e-10 2.64642e-11)
(4.99775e-05 -1.79699e-09 7.84587e-11)
(4.99775e-05 -1.79699e-09 -7.84589e-11)
(4.99775e-05 -2.37157e-09 1.03545e-10)
(4.99775e-05 -2.37157e-09 -1.03546e-10)
(4.99775e-05 -2.92268e-09 1.27607e-10)
(4.99775e-05 -2.92268e-09 -1.27608e-10)
(4.99774e-05 -3.45008e-09 1.50634e-10)
(4.99774e-05 -3.45008e-09 -1.50634e-10)
(4.99774e-05 -3.94677e-09 1.7232e-10)
(4.99774e-05 -3.94677e-09 -1.7232e-10)
(4.99774e-05 -4.41336e-09 1.92692e-10)
(4.99774e-05 -4.41336e-09 -1.92692e-10)
(4.99773e-05 -4.84601e-09 2.11582e-10)
(4.99773e-05 -4.84601e-09 -2.11582e-10)
(4.99772e-05 -5.24656e-09 2.2907e-10)
(4.99772e-05 -5.24656e-09 -2.29071e-10)
(4.99771e-05 -5.61563e-09 2.45184e-10)
(4.99771e-05 -5.61563e-09 -2.45185e-10)
(4.9977e-05 -5.95599e-09 2.60044e-10)
(4.9977e-05 -5.95599e-09 -2.60045e-10)
(4.99769e-05 -6.27428e-09 2.73941e-10)
(4.99769e-05 -6.27428e-09 -2.73942e-10)
(4.99768e-05 -6.57371e-09 2.87015e-10)
(4.99768e-05 -6.57371e-09 -2.87016e-10)
(4.99767e-05 -6.86734e-09 2.99835e-10)
(4.99767e-05 -6.86734e-09 -2.99835e-10)
(4.99766e-05 -7.15922e-09 3.12579e-10)
(4.99766e-05 -7.15922e-09 -3.12579e-10)
(4.99775e-05 4.27242e-17 -3.41869e-16)
(4.99756e-05 -1.2393e-09 5.41095e-11)
(4.99756e-05 -1.2393e-09 -5.41096e-11)
(4.99756e-05 -6.21919e-10 -2.7154e-11)
(4.99756e-05 -6.21919e-10 2.71539e-11)
(4.99757e-05 -1.84261e-09 8.04506e-11)
(4.99757e-05 -1.84261e-09 -8.04508e-11)
(4.99757e-05 -2.43027e-09 1.06108e-10)
(4.99757e-05 -2.43027e-09 -1.06108e-10)