/*--------------------------------*- C++ -*----------------------------------*\
| =========                 |                                                 |
| \\      /  F ield         | foam-extend: Open Source CFD                    |
|  \\    /   O peration     | Version:     4.1-20200408                       |
|   \\  /    A nd           | Web:         http://www.foam-extend.org         |
|    \\/     M anipulation  |                                                 |
\*---------------------------------------------------------------------------*/
FoamFile
{
    version     2.0;
    format      ascii;
    class       volScalarField;
    location    "0.0085000";
    object      sigmaCauchyEq;
}
// * * * * * * * * * * * * * * * * * * * * * * * * * * * * * * * * * * * * * //

dimensions      [1 -1 -2 0 0 0 0];

internalField   nonuniform List<scalar> 
1952
(
4.33936e+08
4.32996e+08
4.32052e+08
4.30454e+08
4.28791e+08
4.26605e+08
4.24306e+08
4.21639e+08
4.1884e+08
4.15867e+08
4.12804e+08
4.0987e+08
4.07071e+08
4.05114e+08
4.05217e+08
4.34113e+08
4.45772e+08
4.44833e+08
4.43889e+08
4.42285e+08
4.40658e+08
4.38501e+08
4.36311e+08
4.3375e+08
4.31162e+08
4.28348e+08
4.2546e+08
4.22303e+08
4.18509e+08
4.12943e+08
3.99992e+08
4.45974e+08
4.55422e+08
4.54474e+08
4.53522e+08
4.51898e+08
4.5026e+08
4.48069e+08
4.45848e+08
4.43192e+08
4.40461e+08
4.37299e+08
4.33821e+08
4.29434e+08
4.23634e+08
4.14636e+08
3.99622e+08
4.5563e+08
4.62409e+08
4.61437e+08
4.60455e+08
4.58779e+08
4.57065e+08
4.54753e+08
4.52355e+08
4.4941e+08
4.46255e+08
4.42419e+08
4.37973e+08
4.32167e+08
4.24566e+08
4.13612e+08
3.97978e+08
4.62617e+08
4.67024e+08
4.66012e+08
4.64973e+08
4.63205e+08
4.61358e+08
4.58853e+08
4.56184e+08
4.52853e+08
4.49178e+08
4.44634e+08
4.39296e+08
4.32452e+08
4.23824e+08
4.12481e+08
3.98091e+08
4.67239e+08
4.69411e+08
4.68346e+08
4.6723e+08
4.65346e+08
4.63334e+08
4.60601e+08
4.57631e+08
4.53901e+08
4.49728e+08
4.44576e+08
4.38562e+08
4.31078e+08
4.22025e+08
4.10956e+08
3.98023e+08
4.69637e+08
4.69812e+08
4.68692e+08
4.67491e+08
4.65484e+08
4.63303e+08
4.60351e+08
4.57103e+08
4.53029e+08
4.48464e+08
4.42883e+08
4.36474e+08
4.28738e+08
4.19745e+08
4.09371e+08
3.98028e+08
4.70053e+08
4.6849e+08
4.6732e+08
4.66037e+08
4.63922e+08
4.61592e+08
4.58456e+08
4.54988e+08
4.50661e+08
4.45838e+08
4.40015e+08
4.33458e+08
4.25751e+08
4.17108e+08
4.0758e+08
3.9771e+08
4.68745e+08
4.65712e+08
4.64503e+08
4.63154e+08
4.60957e+08
4.58514e+08
4.55251e+08
4.51639e+08
4.47165e+08
4.42221e+08
4.36327e+08
4.29825e+08
4.22352e+08
4.14235e+08
4.05602e+08
3.97074e+08
4.6598e+08
4.61749e+08
4.60518e+08
4.59124e+08
4.56879e+08
4.5437e+08
4.51041e+08
4.47366e+08
4.42846e+08
4.37905e+08
4.32081e+08
4.25781e+08
4.1867e+08
4.11162e+08
4.03402e+08
3.96059e+08
4.62026e+08
4.56843e+08
4.55608e+08
4.54193e+08
4.51939e+08
4.4941e+08
4.46079e+08
4.42415e+08
4.37941e+08
4.33104e+08
4.27457e+08
4.2146e+08
4.14786e+08
4.07915e+08
4.00976e+08
3.94671e+08
4.57125e+08
4.51221e+08
4.49999e+08
4.48589e+08
4.46361e+08
4.43858e+08
4.40582e+08
4.36995e+08
4.32641e+08
4.27986e+08
4.22591e+08
4.1696e+08
4.10757e+08
4.04516e+08
3.98327e+08
3.92927e+08
4.51501e+08
4.45064e+08
4.43875e+08
4.42491e+08
4.40324e+08
4.37887e+08
4.34714e+08
4.31257e+08
4.27081e+08
4.22663e+08
4.17569e+08
4.12338e+08
4.06614e+08
4.00975e+08
3.95461e+08
3.90847e+08
4.4534e+08
4.38537e+08
4.37394e+08
4.36058e+08
4.33979e+08
4.31641e+08
4.2861e+08
4.25325e+08
4.21368e+08
4.17226e+08
4.12462e+08
4.07643e+08
4.02387e+08
3.9731e+08
3.92397e+08
3.88463e+08
4.38802e+08
4.31757e+08
4.30676e+08
4.29403e+08
4.27437e+08
4.25223e+08
4.22365e+08
4.19282e+08
4.15573e+08
4.11728e+08
4.07307e+08
4.02899e+08
3.9809e+08
3.9353e+08
3.89148e+08
3.85803e+08
4.3201e+08
4.24826e+08
4.23816e+08
4.22621e+08
4.20786e+08
4.18718e+08
4.16054e+08
4.13193e+08
4.09751e+08
4.06216e+08
4.0214e+08
3.98132e+08
3.93741e+08
3.89653e+08
3.85736e+08
3.829e+08
4.25062e+08
4.17809e+08
4.16878e+08
4.15772e+08
4.14082e+08
4.12175e+08
4.09721e+08
4.07098e+08
4.03931e+08
4.0071e+08
3.96974e+08
3.93349e+08
3.89347e+08
3.85688e+08
3.82178e+08
3.79782e+08
4.18025e+08
4.10754e+08
4.09911e+08
4.08902e+08
4.07368e+08
4.05634e+08
4.03401e+08
4.01024e+08
3.98139e+08
3.95231e+08
3.91825e+08
3.88566e+08
3.84922e+08
3.81651e+08
3.78496e+08
3.76481e+08
4.10949e+08
4.03686e+08
4.02935e+08
4.02031e+08
4.00662e+08
3.99109e+08
3.97107e+08
3.94982e+08
3.9238e+08
3.89782e+08
3.86695e+08
3.83784e+08
3.8047e+08
3.77552e+08
3.74705e+08
3.73021e+08
4.03857e+08
3.96616e+08
3.95964e+08
3.9517e+08
3.93974e+08
3.92611e+08
3.90845e+08
3.88977e+08
3.86659e+08
3.84369e+08
3.81591e+08
3.79012e+08
3.76003e+08
3.73406e+08
3.70829e+08
3.69434e+08
3.96762e+08
3.89539e+08
3.88989e+08
3.88312e+08
3.87297e+08
3.86131e+08
3.84609e+08
3.83003e+08
3.80971e+08
3.78986e+08
3.7651e+08
3.7425e+08
3.71524e+08
3.69225e+08
3.66883e+08
3.65741e+08
3.89658e+08
3.8244e+08
3.81998e+08
3.81445e+08
3.80618e+08
3.79659e+08
3.78387e+08
3.77051e+08
3.75309e+08
3.7363e+08
3.71451e+08
3.69502e+08
3.67045e+08
3.65023e+08
3.6289e+08
3.61971e+08
3.8253e+08
3.75291e+08
3.74964e+08
3.74542e+08
3.73913e+08
3.73171e+08
3.7216e+08
3.71104e+08
3.69659e+08
3.68291e+08
3.6641e+08
3.64768e+08
3.62569e+08
3.60811e+08
3.58865e+08
3.58146e+08
3.75351e+08
3.68063e+08
3.67856e+08
3.67575e+08
3.67154e+08
3.66644e+08
3.65907e+08
3.65146e+08
3.64008e+08
3.62963e+08
3.61385e+08
3.60054e+08
3.58109e+08
3.56608e+08
3.54833e+08
3.54295e+08
3.68089e+08
3.60712e+08
3.60635e+08
3.60505e+08
3.60308e+08
3.60046e+08
3.596e+08
3.59151e+08
3.58339e+08
3.57632e+08
3.56369e+08
3.55358e+08
3.5367e+08
3.52426e+08
3.50812e+08
3.50442e+08
3.60702e+08
3.53196e+08
3.53258e+08
3.53295e+08
3.53336e+08
3.53344e+08
3.5321e+08
3.53099e+08
3.52635e+08
3.52288e+08
3.5136e+08
3.50686e+08
3.49264e+08
3.48284e+08
3.46827e+08
3.46617e+08
3.53147e+08
3.45466e+08
3.45678e+08
3.45898e+08
3.46198e+08
3.46501e+08
3.46706e+08
3.46962e+08
3.46876e+08
3.46919e+08
3.46353e+08
3.46039e+08
3.44903e+08
3.44201e+08
3.42902e+08
3.4285e+08
3.45372e+08
3.37472e+08
3.37847e+08
3.3827e+08
3.38852e+08
3.39481e+08
3.40057e+08
3.40716e+08
3.41045e+08
3.41515e+08
3.41346e+08
3.41426e+08
3.40601e+08
3.40199e+08
3.39068e+08
3.39177e+08
3.37328e+08
3.29163e+08
3.29716e+08
3.30364e+08
3.31255e+08
3.32246e+08
3.3323e+08
3.34335e+08
3.35122e+08
3.36064e+08
3.36337e+08
3.36852e+08
3.36372e+08
3.36301e+08
3.35355e+08
3.35637e+08
3.28964e+08
3.20492e+08
3.2124e+08
3.22139e+08
3.23368e+08
3.2476e+08
3.26194e+08
3.27795e+08
3.29091e+08
3.30558e+08
3.31325e+08
3.32326e+08
3.32238e+08
3.32538e+08
3.31803e+08
3.32274e+08
3.20231e+08
3.11417e+08
3.12376e+08
3.13555e+08
3.15154e+08
3.16991e+08
3.18922e+08
3.21072e+08
3.22937e+08
3.24989e+08
3.26313e+08
3.27859e+08
3.28218e+08
3.2894e+08
3.2845e+08
3.29138e+08
3.11087e+08
3.01906e+08
3.03094e+08
3.04582e+08
3.06584e+08
3.08914e+08
3.11392e+08
3.14152e+08
3.16649e+08
3.19353e+08
3.21306e+08
3.23466e+08
3.24339e+08
3.25544e+08
3.25346e+08
3.2629e+08
3.01498e+08
2.9194e+08
2.93373e+08
2.95201e+08
2.97641e+08
3.00512e+08
3.03589e+08
3.07022e+08
3.1022e+08
3.13649e+08
3.16312e+08
3.19162e+08
3.20629e+08
3.2239e+08
3.22544e+08
3.23794e+08
2.91445e+08
2.81522e+08
2.83216e+08
2.85413e+08
2.88323e+08
2.91781e+08
2.9551e+08
2.99678e+08
3.0365e+08
3.07882e+08
3.11342e+08
3.1497e+08
3.17121e+08
3.19525e+08
3.20106e+08
3.21729e+08
2.80933e+08
2.70684e+08
2.72649e+08
2.75242e+08
2.78648e+08
2.82736e+08
2.87164e+08
2.92129e+08
2.96946e+08
3.02059e+08
3.0641e+08
3.10908e+08
3.1385e+08
3.16996e+08
3.18097e+08
3.20181e+08
2.69992e+08
2.59497e+08
2.61739e+08
2.64745e+08
2.68664e+08
2.73416e+08
2.78579e+08
2.84395e+08
2.90122e+08
2.96195e+08
3.01535e+08
3.07002e+08
3.10853e+08
3.14855e+08
3.16592e+08
3.19248e+08
2.58696e+08
2.48082e+08
2.50595e+08
2.5402e+08
2.58454e+08
2.63885e+08
2.69806e+08
2.76512e+08
2.83204e+08
2.90306e+08
2.96733e+08
3.03272e+08
3.08167e+08
3.13156e+08
3.15671e+08
3.19039e+08
2.4717e+08
2.36624e+08
2.39388e+08
2.43218e+08
2.48144e+08
2.54246e+08
2.60919e+08
2.68531e+08
2.76224e+08
2.84415e+08
2.92022e+08
2.99736e+08
3.05824e+08
3.11949e+08
3.15417e+08
3.19675e+08
2.35604e+08
2.25388e+08
2.28362e+08
2.32555e+08
2.37917e+08
2.44642e+08
2.52024e+08
2.60525e+08
2.69224e+08
2.78543e+08
2.87411e+08
2.964e+08
3.03847e+08
3.11276e+08
3.15913e+08
3.21288e+08
2.2427e+08
2.14734e+08
2.17849e+08
2.22323e+08
2.28017e+08
2.35264e+08
2.43261e+08
2.52581e+08
2.62249e+08
2.72707e+08
2.829e+08
2.93258e+08
3.02243e+08
3.11167e+08
3.17241e+08
3.24016e+08
2.13543e+08
2.05139e+08
2.08288e+08
2.12909e+08
2.18771e+08
2.2637e+08
2.34815e+08
2.44817e+08
2.55357e+08
2.66919e+08
2.78469e+08
2.90273e+08
3.00993e+08
3.11627e+08
3.19467e+08
3.28005e+08
2.03913e+08
1.97209e+08
2.00241e+08
2.04813e+08
2.10601e+08
2.1829e+08
2.26929e+08
2.37375e+08
2.48612e+08
2.6119e+08
2.7408e+08
2.87384e+08
3.00042e+08
3.12628e+08
3.22643e+08
3.33399e+08
1.96005e+08
1.91697e+08
1.94418e+08
1.9868e+08
2.04069e+08
2.11484e+08
2.19946e+08
2.30478e+08
2.42121e+08
2.55535e+08
2.69677e+08
2.84485e+08
2.99283e+08
3.14089e+08
3.26786e+08
3.40336e+08
1.90592e+08
1.89521e+08
1.91699e+08
1.95335e+08
1.99913e+08
2.06577e+08
2.14367e+08
2.24445e+08
2.36078e+08
2.50029e+08
2.65218e+08
2.81451e+08
2.98553e+08
3.15868e+08
3.31859e+08
3.48934e+08
1.88605e+08
1.91758e+08
1.93159e+08
1.95826e+08
1.99147e+08
2.04496e+08
2.10989e+08
2.19909e+08
2.30881e+08
2.44852e+08
2.60736e+08
2.7816e+08
2.97642e+08
3.17741e+08
3.37747e+08
3.59265e+08
1.91119e+08
1.99651e+08
2.00078e+08
2.01476e+08
2.03094e+08
2.06558e+08
2.11007e+08
2.1786e+08
2.27227e+08
2.40557e+08
2.56469e+08
2.74618e+08
2.96349e+08
3.19443e+08
3.44264e+08
3.71331e+08
1.99353e+08
2.14527e+08
2.13878e+08
2.13816e+08
2.13433e+08
2.14511e+08
2.16266e+08
2.20018e+08
2.26531e+08
2.38222e+08
2.53161e+08
2.71201e+08
2.94634e+08
3.20758e+08
3.51177e+08
3.85021e+08
2.14591e+08
2.37766e+08
2.36088e+08
2.34539e+08
2.3212e+08
2.30566e+08
2.29189e+08
2.28739e+08
2.31485e+08
2.40046e+08
2.52567e+08
2.6893e+08
2.92858e+08
3.21474e+08
3.58025e+08
4.00055e+08
2.38166e+08
2.70646e+08
2.68111e+08
2.65265e+08
2.61056e+08
2.57009e+08
2.52561e+08
2.47495e+08
2.4568e+08
2.49443e+08
2.58008e+08
2.7032e+08
2.92385e+08
3.21597e+08
3.63685e+08
4.15602e+08
2.71301e+08
3.1419e+08
3.11076e+08
3.07299e+08
3.01806e+08
2.95807e+08
2.8871e+08
2.79503e+08
2.73285e+08
2.7146e+08
2.74911e+08
2.80775e+08
2.97733e+08
3.23865e+08
3.68365e+08
4.30243e+08
3.14991e+08
3.68993e+08
3.65615e+08
3.61341e+08
3.55194e+08
3.48031e+08
3.39197e+08
3.26955e+08
3.17436e+08
3.1087e+08
3.09494e+08
3.08294e+08
3.18213e+08
3.37998e+08
3.80541e+08
4.47517e+08
3.69827e+08
4.35019e+08
4.31667e+08
4.27377e+08
4.21204e+08
4.13751e+08
4.03759e+08
3.9021e+08
3.78935e+08
3.69431e+08
3.64739e+08
3.57856e+08
3.6105e+08
3.73486e+08
4.11176e+08
4.77317e+08
4.35774e+08
5.11594e+08
5.08544e+08
5.04647e+08
4.99001e+08
4.9196e+08
4.81704e+08
4.68118e+08
4.5641e+08
4.45683e+08
4.39186e+08
4.28079e+08
4.24897e+08
4.28476e+08
4.56756e+08
5.14002e+08
5.12191e+08
5.97214e+08
5.9472e+08
5.91558e+08
5.86932e+08
5.80899e+08
5.71083e+08
5.58489e+08
5.47401e+08
5.36815e+08
5.29721e+08
5.15661e+08
5.06526e+08
5.0033e+08
5.15314e+08
5.5694e+08
5.97598e+08
6.89557e+08
6.87809e+08
6.85682e+08
6.82432e+08
6.77783e+08
6.69107e+08
6.58321e+08
6.48631e+08
6.39262e+08
6.32455e+08
6.16567e+08
6.01953e+08
5.85843e+08
5.85049e+08
6.05669e+08
6.89688e+08
7.85529e+08
7.84657e+08
7.8377e+08
7.82144e+08
7.7926e+08
7.72171e+08
7.63841e+08
7.56251e+08
7.49007e+08
7.43389e+08
7.26811e+08
7.07476e+08
6.81904e+08
6.63557e+08
6.58672e+08
7.85392e+08
8.81337e+08
8.81439e+08
8.81898e+08
8.82082e+08
8.8074e+08
8.75988e+08
8.7056e+08
8.65719e+08
8.61345e+08
8.57904e+08
8.42229e+08
8.19772e+08
7.86639e+08
7.50656e+08
7.16181e+08
8.80951e+08
9.72946e+08
9.73996e+08
9.75781e+08
9.77716e+08
9.77932e+08
9.75685e+08
9.73346e+08
9.71626e+08
9.70674e+08
9.70304e+08
9.57155e+08
9.33677e+08
8.96137e+08
8.44806e+08
7.80432e+08
9.72335e+08
1.05622e+09
1.05807e+09
1.06104e+09
1.06447e+09
1.06597e+09
1.06603e+09
1.06662e+09
1.06794e+09
1.07044e+09
1.07323e+09
1.06401e+09
1.04116e+09
1.00167e+09
9.36946e+08
8.4368e+08
1.05542e+09
1.12731e+09
1.12973e+09
1.13353e+09
1.13794e+09
1.14024e+09
1.14207e+09
1.14489e+09
1.1486e+09
1.15382e+09
1.15956e+09
1.15486e+09
1.13495e+09
1.09799e+09
1.02662e+09
9.07852e+08
1.12639e+09
1.18315e+09
1.18577e+09
1.18985e+09
1.19457e+09
1.19682e+09
1.19949e+09
1.20324e+09
1.20792e+09
1.21386e+09
1.22049e+09
1.21823e+09
1.20082e+09
1.16846e+09
1.09947e+09
9.75104e+08
1.1822e+09
1.22178e+09
1.22413e+09
1.22789e+09
1.23182e+09
1.23363e+09
1.23614e+09
1.23951e+09
1.24331e+09
1.24692e+09
1.25001e+09
1.2444e+09
1.2227e+09
1.18513e+09
1.11131e+09
9.83007e+08
1.22088e+09
1.24284e+09
1.2446e+09
1.24782e+09
1.25e+09
1.25001e+09
1.25002e+09
1.25003e+09
1.25003e+09
1.25002e+09
1.25001e+09
1.23998e+09
1.21158e+09
1.16596e+09
1.08803e+09
9.67934e+08
1.24205e+09
1.24681e+09
1.24791e+09
1.25e+09
1.25e+09
1.25001e+09
1.25001e+09
1.25001e+09
1.24947e+09
1.24339e+09
1.23275e+09
1.21339e+09
1.17996e+09
1.12995e+09
1.05478e+09
9.51515e+08
1.24621e+09
1.23419e+09
1.23439e+09
1.23513e+09
1.23476e+09
1.23321e+09
1.23008e+09
1.2255e+09
1.21845e+09
1.2084e+09
1.19353e+09
1.17016e+09
1.13393e+09
1.08362e+09
1.01583e+09
9.32486e+08
1.23385e+09
1.20642e+09
1.20556e+09
1.20468e+09
1.2021e+09
1.19842e+09
1.19302e+09
1.18604e+09
1.17628e+09
1.16256e+09
1.14344e+09
1.11693e+09
1.08024e+09
1.03282e+09
9.74648e+08
9.10841e+08
1.20638e+09
1.16636e+09
1.16455e+09
1.16242e+09
1.15841e+09
1.15309e+09
1.14561e+09
1.13616e+09
1.12361e+09
1.10746e+09
1.08622e+09
1.05883e+09
1.02359e+09
9.81166e+08
9.33463e+08
8.87145e+08
1.16661e+09
1.11704e+09
1.1145e+09
1.11138e+09
1.10615e+09
1.09953e+09
1.09059e+09
1.07959e+09
1.06541e+09
1.0479e+09
1.02582e+09
9.99073e+08
9.66798e+08
9.30596e+08
8.9324e+08
8.61802e+08
1.11752e+09
1.06128e+09
1.05823e+09
1.05442e+09
1.04839e+09
1.04091e+09
1.03097e+09
1.01904e+09
1.00403e+09
9.86271e+08
9.64667e+08
9.39889e+08
9.11535e+08
8.81961e+08
8.541e+08
8.34787e+08
1.06192e+09
1.0016e+09
9.98239e+08
9.94016e+08
9.87512e+08
9.7957e+08
9.69208e+08
9.57036e+08
9.42037e+08
9.24915e+08
9.0473e+08
8.82743e+08
8.58812e+08
8.35755e+08
8.16265e+08
8.06621e+08
1.00235e+09
9.4016e+08
9.36679e+08
9.32279e+08
9.2563e+08
9.17615e+08
9.07301e+08
8.9544e+08
8.81104e+08
8.65293e+08
8.472e+08
8.28478e+08
8.09098e+08
7.92083e+08
7.79704e+08
7.77544e+08
9.40976e+08
8.7873e+08
8.7528e+08
8.70905e+08
8.6439e+08
8.56631e+08
8.46772e+08
8.35675e+08
8.22504e+08
8.08461e+08
7.9285e+08
7.7756e+08
7.62578e+08
7.50936e+08
7.44431e+08
7.47947e+08
8.79564e+08
8.18682e+08
8.1539e+08
8.11209e+08
8.05054e+08
7.97812e+08
7.8872e+08
7.78708e+08
7.67034e+08
7.55024e+08
7.42069e+08
7.30156e+08
7.19235e+08
7.1221e+08
7.10428e+08
7.18132e+08
8.19499e+08
7.61035e+08
7.57999e+08
7.54137e+08
7.48515e+08
7.41981e+08
7.33876e+08
7.25154e+08
7.15171e+08
7.05299e+08
6.94999e+08
6.86248e+08
6.7894e+08
6.75761e+08
6.77664e+08
6.88334e+08
7.61807e+08
7.06494e+08
7.03782e+08
7.0033e+08
6.95358e+08
6.89656e+08
6.8267e+08
6.75344e+08
6.67125e+08
6.59369e+08
6.516e+08
6.45706e+08
6.41518e+08
6.41465e+08
6.46179e+08
6.58875e+08
7.07199e+08
6.55498e+08
6.53153e+08
6.50166e+08
6.45913e+08
6.41107e+08
6.35299e+08
6.2939e+08
6.22914e+08
6.17163e+08
6.11714e+08
6.08314e+08
6.06741e+08
6.09144e+08
6.15906e+08
6.2985e+08
6.56121e+08
6.0827e+08
6.06312e+08
6.03816e+08
6.0031e+08
5.96414e+08
5.91783e+08
5.87246e+08
5.82423e+08
5.78506e+08
5.75119e+08
5.73838e+08
5.74399e+08
5.78682e+08
5.86884e+08
6.01513e+08
6.08802e+08
5.64865e+08
5.63297e+08
5.61293e+08
5.58525e+08
5.55515e+08
5.52013e+08
5.48759e+08
5.45451e+08
5.43158e+08
5.4155e+08
5.42016e+08
5.44267e+08
5.49928e+08
5.59062e+08
5.73923e+08
5.65303e+08
5.25211e+08
5.2402e+08
5.22491e+08
5.20428e+08
5.1825e+08
5.15794e+08
5.13702e+08
5.11742e+08
5.10848e+08
5.10735e+08
5.12603e+08
5.16149e+08
5.22771e+08
5.32441e+08
5.47211e+08
5.25555e+08
4.89148e+08
4.88309e+08
4.87223e+08
4.85813e+08
4.84392e+08
4.8288e+08
4.81811e+08
4.81019e+08
4.81298e+08
4.82406e+08
4.85362e+08
4.89862e+08
4.97106e+08
5.07003e+08
5.2145e+08
4.89402e+08
4.56453e+08
4.55935e+08
4.5525e+08
4.54427e+08
4.53678e+08
4.52994e+08
4.52803e+08
4.52995e+08
4.54232e+08
4.56308e+08
4.60078e+08
4.65245e+08
4.72833e+08
4.82717e+08
4.96667e+08
4.56623e+08
4.26869e+08
4.26636e+08
4.26306e+08
4.25998e+08
4.25829e+08
4.25852e+08
4.26394e+08
4.27396e+08
4.29389e+08
4.3221e+08
4.3656e+08
4.42156e+08
4.49878e+08
4.5958e+08
4.72936e+08
4.26963e+08
4.00122e+08
4.00135e+08
4.0011e+08
4.00241e+08
4.00561e+08
4.01174e+08
4.0231e+08
4.03957e+08
4.0653e+08
4.09896e+08
4.14629e+08
4.2046e+08
4.28147e+08
4.37535e+08
4.50219e+08
4.00149e+08
3.75933e+08
3.76153e+08
3.76384e+08
3.76881e+08
3.77601e+08
3.78691e+08
3.80296e+08
3.8244e+08
3.85434e+08
3.89179e+08
3.94135e+08
4.00048e+08
4.07581e+08
4.16572e+08
4.28562e+08
3.75902e+08
3.54031e+08
3.54421e+08
3.54861e+08
3.55653e+08
3.56691e+08
3.58154e+08
3.60113e+08
3.62623e+08
3.65907e+08
3.69888e+08
3.74936e+08
3.80812e+08
3.88097e+08
3.96634e+08
4.07915e+08
3.53952e+08
3.34159e+08
3.34682e+08
3.35288e+08
3.36311e+08
3.37592e+08
3.39336e+08
3.4155e+08
3.44313e+08
3.47773e+08
3.51876e+08
3.56913e+08
3.62661e+08
3.69637e+08
3.77688e+08
3.88274e+08
3.34041e+08
3.16076e+08
3.16702e+08
3.17433e+08
3.18629e+08
3.20087e+08
3.2203e+08
3.24414e+08
3.27335e+08
3.3088e+08
3.35011e+08
3.3996e+08
3.45512e+08
3.5214e+08
3.59692e+08
3.69608e+08
3.15928e+08
2.99563e+08
3.00264e+08
3.01086e+08
3.02403e+08
3.03981e+08
3.06054e+08
3.08537e+08
3.11537e+08
3.15094e+08
3.1918e+08
3.23982e+08
3.29291e+08
3.35546e+08
3.42599e+08
3.51871e+08
2.99393e+08
2.84423e+08
2.85174e+08
2.86056e+08
2.87451e+08
2.89102e+08
2.91247e+08
2.93771e+08
2.96785e+08
3.00298e+08
3.04283e+08
3.08897e+08
3.13933e+08
3.19808e+08
3.26375e+08
3.35049e+08
2.84237e+08
2.7048e+08
2.71259e+08
2.72177e+08
2.73613e+08
2.75297e+08
2.77467e+08
2.79984e+08
2.82964e+08
2.86388e+08
2.90232e+08
2.94629e+08
2.99374e+08
3.04868e+08
3.10964e+08
3.1907e+08
2.70283e+08
2.57576e+08
2.58367e+08
2.593e+08
2.60748e+08
2.62433e+08
2.64589e+08
2.67065e+08
2.69972e+08
2.73275e+08
2.76949e+08
2.81114e+08
2.8556e+08
2.90683e+08
2.96333e+08
3.03921e+08
2.57375e+08
2.45576e+08
2.46365e+08
2.47296e+08
2.48732e+08
2.50394e+08
2.52507e+08
2.54914e+08
2.57719e+08
2.60881e+08
2.64366e+08
2.6829e+08
2.72436e+08
2.77201e+08
2.8243e+08
2.89536e+08
2.45374e+08
2.34361e+08
2.35137e+08
2.36053e+08
2.37459e+08
2.3908e+08
2.41127e+08
2.43447e+08
2.4613e+08
2.49137e+08
2.52422e+08
2.56104e+08
2.59955e+08
2.6438e+08
2.69216e+08
2.75883e+08
2.3416e+08
2.23828e+08
2.24583e+08
2.25475e+08
2.26836e+08
2.28402e+08
2.30369e+08
2.32588e+08
2.35137e+08
2.37982e+08
2.41063e+08
2.44508e+08
2.48075e+08
2.5218e+08
2.5665e+08
2.62918e+08
2.23631e+08
2.13888e+08
2.14616e+08
2.15477e+08
2.16785e+08
2.18287e+08
2.20163e+08
2.22275e+08
2.24682e+08
2.27364e+08
2.30242e+08
2.33458e+08
2.36753e+08
2.40559e+08
2.44692e+08
2.50596e+08
2.13697e+08
2.04465e+08
2.05163e+08
2.05989e+08
2.07237e+08
2.08671e+08
2.1045e+08
2.12451e+08
2.14716e+08
2.17237e+08
2.19917e+08
2.22916e+08
2.25956e+08
2.29488e+08
2.33312e+08
2.3889e+08
2.04281e+08
1.95496e+08
1.96161e+08
1.9695e+08
1.98135e+08
1.99498e+08
2.01177e+08
2.0307e+08
2.05192e+08
2.07559e+08
2.1005e+08
2.12846e+08
2.15647e+08
2.18926e+08
2.22467e+08
2.27748e+08
1.9532e+08
1.86924e+08
1.87556e+08
1.88307e+08
1.89428e+08
1.90721e+08
1.92302e+08
1.94088e+08
1.96074e+08
1.98294e+08
2.00607e+08
2.03215e+08
2.05797e+08
2.08847e+08
2.12133e+08
2.1715e+08
1.86756e+08
1.78705e+08
1.79303e+08
1.80017e+08
1.81074e+08
1.82301e+08
1.83785e+08
1.85471e+08
1.87326e+08
1.89411e+08
1.91557e+08
1.93994e+08
1.96374e+08
1.99218e+08
2.02272e+08
2.07052e+08
1.78545e+08
1.708e+08
1.71365e+08
1.72043e+08
1.73039e+08
1.74201e+08
1.75594e+08
1.77187e+08
1.78919e+08
1.80881e+08
1.82873e+08
1.85156e+08
1.87353e+08
1.90013e+08
1.9286e+08
1.9743e+08
1.70647e+08
1.63176e+08
1.63709e+08
1.64354e+08
1.65291e+08
1.66394e+08
1.67701e+08
1.69209e+08
1.70828e+08
1.72679e+08
1.74531e+08
1.76676e+08
1.78709e+08
1.81207e+08
1.83869e+08
1.88256e+08
1.63031e+08
1.55807e+08
1.56311e+08
1.56925e+08
1.57806e+08
1.58856e+08
1.60082e+08
1.61514e+08
1.63029e+08
1.64781e+08
1.66508e+08
1.68533e+08
1.70421e+08
1.72778e+08
1.75276e+08
1.79501e+08
1.55669e+08
1.48674e+08
1.49149e+08
1.49735e+08
1.50564e+08
1.51565e+08
1.52717e+08
1.54082e+08
1.55503e+08
1.5717e+08
1.58785e+08
1.60708e+08
1.62468e+08
1.64706e+08
1.67062e+08
1.71151e+08
1.48542e+08
1.4176e+08
1.42208e+08
1.42768e+08
1.43549e+08
1.44507e+08
1.45591e+08
1.46897e+08
1.48232e+08
1.49827e+08
1.51344e+08
1.53181e+08
1.54831e+08
1.56969e+08
1.59203e+08
1.63174e+08
1.41634e+08
1.35056e+08
1.35479e+08
1.36015e+08
1.3675e+08
1.37669e+08
1.3869e+08
1.39944e+08
1.41203e+08
1.42737e+08
1.44169e+08
1.45936e+08
1.47495e+08
1.49553e+08
1.51687e+08
1.55564e+08
1.34934e+08
1.28556e+08
1.28954e+08
1.29469e+08
1.3016e+08
1.31044e+08
1.32005e+08
1.33215e+08
1.34405e+08
1.35888e+08
1.37246e+08
1.38958e+08
1.40441e+08
1.42439e+08
1.44491e+08
1.48295e+08
1.2844e+08
1.22262e+08
1.22635e+08
1.23129e+08
1.23776e+08
1.24626e+08
1.25531e+08
1.26701e+08
1.27827e+08
1.29268e+08
1.30562e+08
1.32234e+08
1.33657e+08
1.35612e+08
1.37604e+08
1.41357e+08
1.2215e+08
1.16178e+08
1.16527e+08
1.16998e+08
1.17603e+08
1.18419e+08
1.19268e+08
1.20398e+08
1.21464e+08
1.22869e+08
1.24108e+08
1.2575e+08
1.27128e+08
1.2906e+08
1.31012e+08
1.34736e+08
1.16071e+08
1.10318e+08
1.1064e+08
1.11088e+08
1.11647e+08
1.12427e+08
1.13218e+08
1.14309e+08
1.15314e+08
1.16686e+08
1.17874e+08
1.19496e+08
1.20842e+08
1.22766e+08
1.247e+08
1.28419e+08
1.10216e+08
1.047e+08
1.04994e+08
1.05414e+08
1.05924e+08
1.06662e+08
1.07391e+08
1.08438e+08
1.09379e+08
1.10717e+08
1.11854e+08
1.13463e+08
1.14787e+08
1.1672e+08
1.1866e+08
1.22401e+08
1.04605e+08
9.93499e+07
9.96125e+07
9.99996e+07
1.00456e+08
1.01143e+08
1.01803e+08
1.02795e+08
1.03666e+08
1.04962e+08
1.06047e+08
1.07641e+08
1.08952e+08
1.10907e+08
1.12874e+08
1.16663e+08
9.92625e+07
9.43013e+07
9.45288e+07
9.48761e+07
9.52711e+07
9.5897e+07
9.64776e+07
9.74005e+07
9.81882e+07
9.94288e+07
1.00451e+08
1.02027e+08
1.03327e+08
1.05313e+08
1.07334e+08
1.11202e+08
9.42232e+07
8.9594e+07
8.97825e+07
9.00817e+07
9.04079e+07
9.09572e+07
9.14463e+07
9.22796e+07
9.29681e+07
9.41309e+07
9.50747e+07
9.66159e+07
9.79002e+07
9.99214e+07
1.02021e+08
1.05999e+08
8.9527e+07
8.52741e+07
8.54201e+07
8.56623e+07
8.59119e+07
8.6368e+07
8.67519e+07
8.74703e+07
8.80389e+07
8.90923e+07
8.99326e+07
9.14116e+07
9.26651e+07
9.4715e+07
9.6915e+07
1.01039e+08
8.52205e+07
8.13927e+07
8.14935e+07
8.16702e+07
8.1837e+07
8.21827e+07
8.24484e+07
8.30227e+07
8.34485e+07
8.43512e+07
8.50545e+07
8.64275e+07
8.76198e+07
8.96764e+07
9.19933e+07
9.62969e+07
8.13543e+07
7.80032e+07
7.80581e+07
7.81628e+07
7.82437e+07
7.84638e+07
7.86019e+07
7.90026e+07
7.92633e+07
7.99658e+07
8.04915e+07
8.16959e+07
8.27778e+07
8.47969e+07
8.72314e+07
9.17347e+07
7.79815e+07
7.51585e+07
7.51696e+07
7.51992e+07
7.51966e+07
7.52814e+07
7.52899e+07
7.54917e+07
7.55711e+07
7.60204e+07
7.63239e+07
7.72746e+07
7.81715e+07
8.0077e+07
8.26034e+07
8.73072e+07
7.51541e+07
7.29045e+07
7.28769e+07
7.28336e+07
7.27568e+07
7.27061e+07
7.25942e+07
7.25846e+07
7.24802e+07
7.26295e+07
7.26696e+07
7.32565e+07
7.38543e+07
7.54978e+07
7.80156e+07
8.29232e+07
7.29166e+07
7.1267e+07
7.12093e+07
7.11009e+07
7.09666e+07
7.07918e+07
7.05838e+07
7.03712e+07
7.01068e+07
6.99385e+07
6.97063e+07
6.9823e+07
6.9992e+07
7.11092e+07
7.33429e+07
7.83972e+07
7.12938e+07
7.02578e+07
7.01817e+07
7.00212e+07
6.98545e+07
6.95791e+07
6.93175e+07
6.89372e+07
6.85785e+07
6.81356e+07
6.77147e+07
6.73663e+07
6.71238e+07
6.74988e+07
6.90682e+07
7.37786e+07
7.02961e+07
7.00691e+07
6.9985e+07
6.97864e+07
6.96091e+07
6.92595e+07
6.89827e+07
6.84787e+07
6.80905e+07
6.7447e+07
6.69484e+07
6.62474e+07
6.57408e+07
6.53729e+07
6.59069e+07
6.89775e+07
7.01158e+07
7.02822e+07
7.01967e+07
6.99832e+07
6.98058e+07
6.94264e+07
6.915e+07
6.85954e+07
6.8204e+07
6.74755e+07
6.69542e+07
6.60968e+07
6.5481e+07
6.47355e+07
6.46812e+07
6.62979e+07
7.03321e+07
)
;

boundaryField
{
    wireUpstream
    {
        type            calculated;
        value           nonuniform List<scalar> 
16
(
7.05706e+07
7.04888e+07
7.02619e+07
7.0096e+07
6.9688e+07
6.94309e+07
6.88248e+07
6.84562e+07
6.76378e+07
6.71249e+07
6.60991e+07
6.54084e+07
6.42998e+07
6.3698e+07
6.3371e+07
7.0623e+07
)
;
    }
    wireDownstream
    {
        type            calculated;
        value           nonuniform List<scalar> 
16
(
4.33678e+08
4.32735e+08
4.3179e+08
4.30189e+08
4.28518e+08
4.26321e+08
4.24e+08
4.21303e+08
4.1845e+08
4.15397e+08
4.12208e+08
4.09109e+08
4.0622e+08
4.05151e+08
4.14619e+08
4.33852e+08
)
;
    }
    wireTopContact
    {
        type            calculated;
        value           nonuniform List<scalar> 
122
(
4.01574e+08
3.99851e+08
3.97724e+08
3.97702e+08
3.976e+08
3.97625e+08
3.97346e+08
3.96758e+08
3.95792e+08
3.94453e+08
3.92754e+08
3.90715e+08
3.88369e+08
3.8574e+08
3.82865e+08
3.7977e+08
3.76488e+08
3.73043e+08
3.69467e+08
3.6578e+08
3.62011e+08
3.58183e+08
3.54323e+08
3.50455e+08
3.4661e+08
3.42814e+08
3.39104e+08
3.35517e+08
3.32095e+08
3.28888e+08
3.25953e+08
3.23353e+08
3.21165e+08
3.19471e+08
3.1837e+08
3.17967e+08
3.18383e+08
3.19749e+08
3.22206e+08
3.25902e+08
3.30989e+08
3.37614e+08
3.4591e+08
3.5598e+08
3.67859e+08
3.81464e+08
3.96604e+08
4.12768e+08
4.28831e+08
4.47814e+08
4.7965e+08
5.16871e+08
5.59626e+08
6.07595e+08
6.59426e+08
7.15166e+08
7.78578e+08
8.4195e+08
9.04837e+08
9.79171e+08
9.83032e+08
9.64007e+08
9.46468e+08
9.2737e+08
9.06187e+08
8.83188e+08
8.58586e+08
8.32205e+08
8.04602e+08
7.75974e+08
7.46744e+08
7.17224e+08
6.87646e+08
6.58374e+08
6.29478e+08
6.01252e+08
5.73739e+08
5.47089e+08
5.21375e+08
4.96622e+08
4.72921e+08
4.50218e+08
4.28577e+08
4.07936e+08
3.88301e+08
3.69638e+08
3.519e+08
3.3508e+08
3.19097e+08
3.03946e+08
2.89557e+08
2.75899e+08
2.6293e+08
2.50601e+08
2.38891e+08
2.27741e+08
2.17138e+08
2.07032e+08
1.97403e+08
1.88221e+08
1.79457e+08
1.71099e+08
1.63112e+08
1.55492e+08
1.48211e+08
1.41261e+08
1.34629e+08
1.28298e+08
1.22267e+08
1.16515e+08
1.11041e+08
1.05825e+08
1.00857e+08
9.6114e+07
9.15596e+07
8.71531e+07
8.28224e+07
7.84394e+07
7.40559e+07
6.9521e+07
6.68508e+07
4.12736e+08
)
;
    }
    front
    {
        type            wedge;
    }
    back
    {
        type            wedge;
    }
}


// ************************************************************************* //
