/*--------------------------------*- C++ -*----------------------------------*\
| =========                 |                                                 |
| \\      /  F ield         | OpenFOAM: The Open Source CFD Toolbox           |
|  \\    /   O peration     | Version:  4.1                                   |
|   \\  /    A nd           | Web:      www.OpenFOAM.org                      |
|    \\/     M anipulation  |                                                 |
\*---------------------------------------------------------------------------*/
FoamFile
{
    version     2.0;
    format      ascii;
    class       volScalarField;
    location    "0.000160";
    object      nut;
}
// * * * * * * * * * * * * * * * * * * * * * * * * * * * * * * * * * * * * * //

dimensions      [0 2 -1 0 0 0 0];

internalField   nonuniform List<scalar> 
6144
(
0.00084117404
0.00088789393
0.00091091044
0.00092836353
0.00094267761
0.00095478798
0.0009649826
0.0009732774
0.0009796544
0.00098403984
0.00098595085
0.00098567235
0.00098330796
0.00097880735
0.00097221692
0.00096363406
0.00095313326
0.00094083777
0.00092693361
0.00091151362
0.00089350819
0.00086544494
0.00080623964
0.00074024406
0.00068159355
0.0006317007
0.00059038562
0.00055683122
0.00053006486
0.00050928975
0.00049377987
0.00048283643
0.00047596177
0.00047291448
0.00047355923
0.00047807455
0.00048673028
0.00049985005
0.00051788598
0.00054140277
0.00057146601
0.00060899739
0.00065468432
0.00070815922
0.00076674982
0.00082152603
0.00085287048
0.00086280275
0.00086134571
0.00089554181
0.00091720103
0.00093471245
0.00094962587
0.00096246647
0.00097329033
0.00098198911
0.00098850249
0.00099279891
0.00099462247
0.00099396466
0.00099091045
0.00098543237
0.00097761356
0.00096760107
0.00095554669
0.00094161962
0.0009260541
0.00090907497
0.00089032752
0.00086634873
0.00082617643
0.00077828078
0.00073333538
0.0006932261
0.00065850878
0.00062921507
0.00060504143
0.00058572508
0.00057089461
0.00056008515
0.0005530105
0.00054956204
0.00054960252
0.00055320145
0.00056056869
0.0005718739
0.00058740745
0.00060750814
0.00063257177
0.00066285941
0.00069843083
0.0007384476
0.00078068653
0.00081984139
0.00084562633
0.00085334497
0.00086191883
0.00089345306
0.00091559833
0.0009336595
0.00094903411
0.00096221324
0.00097323939
0.00098199779
0.00098844549
0.00099258343
0.00099423909
0.00099324709
0.0009897487
0.00098376764
0.00097539313
0.00096475444
0.00095206738
0.00093755128
0.00092146942
0.00090409534
0.00088539216
0.00086388897
0.00083361808
0.0007940513
0.00075537229
0.00071974082
0.00068804081
0.00066062758
0.0006375489
0.00061877753
0.00060409254
0.00059309334
0.00058555762
0.00058144982
0.00058071917
0.00058331852
0.00058946048
0.00059922713
0.00061285384
0.00063061149
0.00065272157
0.00067912734
0.0007097196
0.00074375169
0.00077948022
0.00081329802
0.00083870434
0.00084764347
0.00086267314
0.0008932794
0.00091607713
0.00093469504
0.00095043912
0.00096381227
0.00097489644
0.00098359582
0.0009898874
0.00099380295
0.00099522004
0.00099388999
0.00099001079
0.00098365544
0.00097488855
0.00096379475
0.00095066832
0.00093579383
0.00091945525
0.00090192834
0.00088335041
0.00086326807
0.00083829183
0.00080267671
0.00076613749
0.00073165004
0.00070044741
0.00067306988
0.00064972649
0.00063050463
0.00061524223
0.00060358381
0.00059534956
0.00059053786
0.00058911457
0.00059098683
0.00059640028
0.00060537875
0.00061810907
0.0006348575
0.0006557161
0.00068059108
0.00070932945
0.00074129068
0.00077498789
0.00080742472
0.00083355849
0.00084548424
0.00086407243
0.00089416159
0.00091732172
0.00093619636
0.00095204264
0.00096539858
0.00097635959
0.00098485767
0.00099085538
0.00099440406
0.00099544595
0.00099377562
0.00098953291
0.00098284156
0.00097376898
0.00096244757
0.00094920175
0.00093431149
0.00091805596
0.00090069934
0.00088245049
0.00086320454
0.00084080569
0.00080882375
0.00077254159
0.00073759308
0.00070570248
0.00067750742
0.00065330719
0.00063323553
0.00061716907
0.00060482938
0.00059600023
0.00059064874
0.00058870577
0.00059007925
0.00059494305
0.00060337107
0.00061551105
0.00063160119
0.00065168259
0.00067577741
0.00070378585
0.00073517666
0.00076864578
0.00080154402
0.00082946729
0.00084470923
0.00086629716
0.00089596082
0.00091902867
0.000937726
0.00095330752
0.00096634886
0.00097697922
0.00098513596
0.00099075865
0.00099389726
0.00099457769
0.00099266586
0.00098816888
0.00098128781
0.00097215175
0.00096095105
0.00094794398
0.00093337876
0.00091751227
0.00090058642
0.00088283107
0.00086425897
0.00084340371
0.00081448016
0.0007766423
0.0007395581
0.00070557423
0.00067550971
0.00064976798
0.00062840658
0.00061124809
0.00059804974
0.00058854324
0.00058259426
0.00058009996
0.0005809858
0.00058523744
0.00059305841
0.00060461424
0.0006200831
0.00063964696
0.00066347228
0.00069156624
0.00072359974
0.00075851169
0.00079391501
0.00082556802
0.00084487754
0.00087020256
0.00089984551
0.00092253143
0.00094074341
0.00095579447
0.0009682916
0.00097840558
0.00098611032
0.00099135981
0.0009941998
0.00099469464
0.00099274385
0.00098818127
0.00098134261
0.00097240888
0.00096157273
0.00094902363
0.00093496288
0.00091963114
0.00090325064
0.00088605497
0.00086811935
0.00084834116
0.00082087284
0.00077703705
0.00073331359
0.000693487
0.0006586811
0.00062926957
0.00060505075
0.00058563233
0.00057064108
0.00055975117
0.00055265675
0.00054926573
0.0005495434
0.00055327211
0.00056070421
0.0005720753
0.00058759049
0.00060762363
0.00063257279
0.0006626742
0.00069796945
0.0007377701
0.00077998417
0.00082009417
0.00084683029
0.00086503062
0.00089682524
0.00091903056
0.0009362452
0.0009501376
0.00096148877
0.00097060411
0.0009775783
0.00098243608
0.00098519561
0.0009858946
0.00098440519
0.00098024785
0.00097403474
0.00096600569
0.00095630438
0.00094505355
0.00093239274
0.00091852103
0.00090362207
0.00088789368
0.00087136215
0.00085258535
0.00082276424
0.00076204512
0.00070155975
0.00064855896
0.0006041251
0.00056774061
0.00053843031
0.0005153752
0.0004978151
0.00048512173
0.0004767718
0.00047254712
0.00047229549
0.00047581114
0.00048322815
0.00049493357
0.00051128133
0.00053291607
0.00056064057
0.00059524397
0.00063750599
0.00068756651
0.00074419318
0.00080278335
0.00084823927
0.0008613463
0.00089554946
0.00091716715
0.00093460472
0.00094948352
0.00096232672
0.00097313207
0.00098175753
0.0009881588
0.00099233663
0.00099406394
0.00099334909
0.00099027209
0.00098483681
0.00097712024
0.00096724914
0.00095530435
0.00094146811
0.00092598806
0.00090905868
0.00089033336
0.00086639101
0.00082633618
0.00077828523
0.00073320929
0.00069316067
0.00065851775
0.00062919062
0.00060502575
0.00058577615
0.00057102422
0.00056010762
0.00055297947
0.00054962592
0.000549723
0.00055325834
0.00056050087
0.00057167069
0.00058700474
0.00060683941
0.00063179144
0.0006621476
0.00069777752
0.00073787421
0.00078022791
0.00081955585
0.00084559015
0.0008533458
0.00087627295
0.00090325601
0.00092475744
0.00094272151
0.00095826372
0.00097172366
0.00098301619
0.00099195105
0.00099845227
0.0010025278
0.0010040774
0.0010030276
0.00099938115
0.00099314065
0.00098442443
0.0009734187
0.00096028973
0.00094527006
0.00092866496
0.00091076779
0.00089169893
0.00087066213
0.00084439226
0.00081477358
0.00078580604
0.00075882218
0.00073445919
0.00071301411
0.00069467656
0.00067961871
0.00066774769
0.00065877723
0.00065272665
0.00064966627
0.00064946272
0.00065211317
0.00065772448
0.00066633423
0.00067799587
0.00069275024
0.00071065091
0.00073156206
0.0007550697
0.0007803206
0.00080583156
0.00082890083
0.00084555007
0.00085199912
0.00087667362
0.00090323577
0.00092566788
0.00094446374
0.00096066262
0.0009746265
0.00098628695
0.000995462
0.0010020864
0.0010061773
0.0010076447
0.0010063806
0.0010023946
0.00099571659
0.00098647827
0.00097488588
0.00096116802
0.00094560134
0.00092851855
0.00091024614
0.00089103618
0.00087088935
0.0008488374
0.00082494118
0.00080151202
0.00077940561
0.00075913699
0.00074101138
0.00072526616
0.00071217031
0.00070170864
0.00069363425
0.00068794751
0.00068477886
0.00068411825
0.00068596321
0.00069035318
0.00069726228
0.00070674089
0.0007187777
0.0007332759
0.00075005217
0.00076881417
0.00078896347
0.00080946633
0.00082845067
0.00084344778
0.00085043243
0.00087674603
0.00090378597
0.00092717554
0.00094674985
0.00096350508
0.00097784901
0.00098975468
0.00099905726
0.0010056988
0.0010097021
0.0010109882
0.0010094433
0.0010050964
0.00099800113
0.0009882871
0.00097617244
0.00096195007
0.00094594714
0.00092851027
0.0009099732
0.00089063725
0.00087075789
0.00085005734
0.00082772827
0.00080558768
0.00078450952
0.00076503633
0.00074747902
0.00073210043
0.00071919855
0.00070877335
0.00070059911
0.00069469932
0.00069122166
0.00069019973
0.00069161942
0.00069551981
0.00070186665
0.00071071722
0.00072206118
0.00073575938
0.0007516606
0.00076951538
0.00078877796
0.000808499
0.00082694851
0.00084203205
0.00084979833
0.00087699899
0.00090431717
0.00092816997
0.00094805305
0.00096493264
0.0009792712
0.00099109327
0.0010002509
0.0010066691
0.0010103687
0.0010113146
0.0010094401
0.0010047822
0.00099740431
0.00098743409
0.00097511049
0.00096076278
0.0009447375
0.0009273721
0.0009089839
0.00088988089
0.00087035625
0.000850349
0.00082896417
0.00080712541
0.00078614651
0.00076666371
0.00074900046
0.00073344031
0.000720289
0.00070956942
0.00070110946
0.00069493639
0.00069118403
0.00068988248
0.00069102574
0.00069464561
0.00070075263
0.00070939306
0.00072053881
0.00073406142
0.00074986606
0.00076769991
0.00078701769
0.00080688617
0.00082561015
0.00084123978
0.00084966799
0.00087734411
0.00090452438
0.0009281711
0.00094777045
0.00096428869
0.00097822375
0.00098964691
0.00099842112
0.0010044484
0.0010077521
0.0010083585
0.0010062464
0.0010014447
0.00099403585
0.00098415823
0.00097205883
0.00095804294
0.00094243045
0.00092553683
0.00090765116
0.0008890587
0.00087003575
0.00085060021
0.00082990796
0.00080767138
0.00078597154
0.00076562118
0.00074706874
0.00073068107
0.00071674773
0.00070530528
0.00069626672
0.00068963615
0.00068546735
0.00068381433
0.00068467863
0.00068803413
0.00069396962
0.00070254374
0.00071369138
0.00072738028
0.00074358024
0.00076202937
0.00078222199
0.0008032395
0.00082334503
0.00084046372
0.00084981094
0.00087777498
0.00090496014
0.00092807268
0.00094709892
0.00096305405
0.00097644407
0.00098736958
0.00099571748
0.0010013923
0.001004424
0.0010048619
0.0010026854
0.00099789842
0.00099063812
0.00098106323
0.00096940251
0.00095590183
0.00094082677
0.00092447341
0.00090711242
0.00088899976
0.00087037241
0.0008511204
0.00082962335
0.00080319629
0.00077652502
0.00075124365
0.00072822003
0.00070800511
0.00069082257
0.00067667511
0.00066552768
0.00065731812
0.00065198448
0.00064959308
0.00065015246
0.00065353612
0.00065988727
0.00066931516
0.00068178677
0.00069741002
0.00071627307
0.00073816554
0.00076265722
0.00078878407
0.00081455796
0.00083711773
0.00084989149
0.00087032423
0.00089998466
0.0009226868
0.00094091686
0.00095597906
0.00096848632
0.00097862928
0.00098638238
0.00099169783
0.00099459605
0.00099509451
0.00099309586
0.00098848906
0.00098161745
0.00097266429
0.00096181381
0.00094924363
0.00093515535
0.00091979809
0.00090340992
0.00088619113
0.00086820062
0.00084831058
0.00082053518
0.00077646343
0.00073278103
0.00069305836
0.00065844008
0.00062917245
0.00060493887
0.00058545194
0.00057038619
0.00055946159
0.00055242599
0.00054913747
0.00054951584
0.00055334034
0.00056083713
0.0005722524
0.00058775314
0.00060773914
0.00063266094
0.00066273329
0.00069798493
0.0007377403
0.00077992134
0.00082005056
0.00084682702
0.00086189122
0.00089339871
0.00091537431
0.00093317144
0.00094841151
0.00096157099
0.00097251278
0.00098104011
0.00098715538
0.00099094322
0.00099232223
0.00099117852
0.00098765294
0.00098178759
0.00097368409
0.00096346327
0.00095117664
0.00093700742
0.00092121621
0.00090400656
0.00088537253
0.00086392116
0.00083377828
0.00079403254
0.0007551609
0.00071954427
0.00068786894
0.00066036482
0.00063719523
0.0006183388
0.00060355113
0.00059223394
0.00058454796
0.00058049797
0.00057980732
0.00058231493
0.00058832705
0.00059806982
0.00061169112
0.00062928006
0.00065124922
0.00067773697
0.00070846087
0.00074273177
0.00077874696
0.00081290928
0.00083864764
0.0008476579
0.00087666866
0.00090322783
0.00092562366
0.00094436424
0.0009605295
0.00097447747
0.00098610114
0.00099521213
0.0010017481
0.0010057314
0.0010071019
0.0010057719
0.0010017557
0.00099510413
0.00098595947
0.00097451489
0.00096093594
0.00094547325
0.00092845843
0.0009102118
0.0008910127
0.00087088326
0.00084886727
0.0008249326
0.00080144061
0.00077931873
0.00075903431
0.00074085637
0.00072506425
0.00071188946
0.00070126008
0.00069297313
0.00068716766
0.00068397052
0.00068328118
0.00068504657
0.00068937216
0.00069629597
0.00070579859
0.00071780838
0.00073234035
0.00074927508
0.00076822376
0.00078857488
0.00080926713
0.00082838257
0.00084346687
0.00085045272
0.00087788224
0.00090439902
0.00092783402
0.00094755325
0.00096451404
0.00097909477
0.00099123091
0.0010007499
0.0010075792
0.0010117271
0.0010131158
0.0010116374
0.0010073019
0.0010001821
0.00099043276
0.00097828609
0.00096398137
0.00094782508
0.00093018653
0.0009114351
0.00089192385
0.00087199108
0.00085183681
0.00083188351
0.00081290971
0.00079526119
0.0007791546
0.00076472288
0.00075213668
0.00074161014
0.00073309721
0.00072640431
0.00072157654
0.00071877398
0.00071800786
0.00071927202
0.00072256984
0.00072788656
0.00073523014
0.00074451604
0.00075565589
0.00076857696
0.00078306947
0.00079875493
0.00081494086
0.00083023255
0.00084309908
0.00085016677
0.00087820408
0.00090536149
0.00092977258
0.00095031944
0.00096790588
0.000982952
0.00099544011
0.0010052102
0.0010121829
0.0010163571
0.0010176493
0.0010159522
0.0010112922
0.001003754
0.00099349012
0.0009807605
0.00096586979
0.00094918015
0.00093107681
0.00091194354
0.00089215542
0.00087210683
0.00085217979
0.0008327585
0.00081441065
0.00079741223
0.00078194322
0.0007681049
0.00075603413
0.00074592785
0.00073774031
0.00073127798
0.00072657203
0.00072376967
0.00072292128
0.00072403221
0.00072707289
0.0007320368
0.00073896041
0.0007477482
0.00075829281
0.00077056875
0.00078441679
0.00079947918
0.00081508694
0.00082988951
0.00084255053
0.0008499117
0.00087835281
0.00090580595
0.00093058191
0.00095137819
0.00096906516
0.00098410968
0.00099655148
0.001006244
0.0010130858
0.0010170523
0.0010180854
0.0010161265
0.0010112205
0.0010034516
0.00099296377
0.00098003239
0.00096500678
0.00094827588
0.00093021388
0.00091118522
0.00089154959
0.00087168429
0.00085196283
0.00083270783
0.00081442305
0.00079747673
0.00078205717
0.00076826023
0.00075620585
0.00074607601
0.00073783511
0.00073131743
0.00072655002
0.00072367019
0.00072273183
0.00072373879
0.00072667907
0.00073158437
0.00073848598
0.00074726138
0.00075782093
0.00077016721
0.00078411034
0.00079925569
0.00081492226
0.00082975947
0.000842513
0.00084994068
0.00087822803
0.00090546357
0.0009298446
0.00095020576
0.00096742256
0.00098198935
0.00099399113
0.0010032923
0.001009769
0.001013387
0.0010141316
0.0010119896
0.0010070203
0.00099931139
0.00098900096
0.00097636196
0.00096173639
0.0009454848
0.00092795496
0.00090947751
0.00089037094
0.0008709739
0.00085160634
0.00083244889
0.00081384659
0.00079642904
0.00078046586
0.00076611503
0.00075353151
0.00074287817
0.00073415129
0.00072726029
0.00072221066
0.00071911534
0.00071803505
0.00071896389
0.00072188264
0.00072687727
0.00073397832
0.00074303115
0.00075399432
0.00076689005
0.00078147004
0.00079730502
0.00081369339
0.00082924247
0.00084261224
0.00085012291
0.00087731367
0.00090450398
0.00092815752
0.00094776607
0.0009642779
0.00097819472
0.00098962362
0.000998441
0.0010045229
0.0010078544
0.0010084441
0.0010062673
0.0010013999
0.00099394861
0.00098406233
0.0009719872
0.00095800509
0.00094241312
0.00092552885
0.0009076555
0.00088906363
0.0008700212
0.00085054778
0.00082975383
0.00080736815
0.00078555993
0.0007651631
0.00074665985
0.00073038128
0.00071648725
0.0007050261
0.00069602105
0.00068946231
0.00068537764
0.00068382797
0.00068480301
0.00068823146
0.00069422644
0.00070284709
0.00071395271
0.00072756856
0.00074373362
0.00076213886
0.00078227387
0.0008032477
0.00082332958
0.00084044788
0.00084980016
0.00086632186
0.0008960065
0.00091909148
0.0009378078
0.00095339075
0.00096642644
0.000977088
0.00098530404
0.00099097845
0.00099413271
0.00099476809
0.00099274128
0.00098813644
0.0009811669
0.00097200543
0.00096085137
0.00094790504
0.00093339109
0.00091756516
0.00090067934
0.00088291486
0.00086427901
0.00084328177
0.00081394931
0.00077573651
0.00073858919
0.00070466744
0.00067477798
0.00064918581
0.00062778057
0.00061053809
0.00059731754
0.00058789183
0.00058205607
0.00057974042
0.00058087477
0.00058532124
0.00059328694
0.00060495266
0.00062038052
0.00063984114
0.00066362276
0.00069166519
0.00072362473
0.00075847179
0.0007938402
0.00082553698
0.00084487382
0.00086255626
0.00089303415
0.00091538595
0.00093354642
0.00094901358
0.00096227714
0.00097320578
0.00098163533
0.00098758377
0.00099113143
0.00099225682
0.00099076305
0.0009868431
0.00098058889
0.00097214058
0.00096164215
0.00094915211
0.00093482887
0.00091892528
0.00090168803
0.00088329124
0.00086327722
0.00083838884
0.00080262057
0.00076589454
0.00073143731
0.00070020402
0.00067270809
0.00064923728
0.00062983662
0.00061432412
0.00060236019
0.00059393802
0.00058912891
0.00058782122
0.00058987
0.00059539039
0.00060453811
0.0006173626
0.00063389348
0.0006544551
0.00067922727
0.00070799327
0.00074013956
0.00077411075
0.00080689749
0.00083341178
0.00084550279
0.00087670629
0.0009036847
0.00092692207
0.00094633256
0.00096296063
0.00097719985
0.00098898184
0.00099817787
0.0010047236
0.0010086061
0.0010097748
0.0010081368
0.0010037313
0.00099667398
0.00098714269
0.00097533424
0.0009614154
0.00094563397
0.00092833013
0.00090986154
0.00089057565
0.00087073718
0.00085007584
0.00082771554
0.00080551591
0.00078441479
0.00076487977
0.00074724717
0.00073179702
0.00071874445
0.00070809222
0.0006996634
0.0006935731
0.00069001198
0.0006889794
0.00069044405
0.00069443032
0.00070094541
0.00070991797
0.00072124687
0.00073495403
0.00075098835
0.00076899656
0.0007884248
0.00080830824
0.00082686986
0.00084206739
0.0008498431
0.00087817825
0.00090528569
0.00092960836
0.00095005859
0.00096755244
0.00098249927
0.00099488996
0.001004614
0.0010115773
0.0010157381
0.0010170113
0.0010152843
0.0010105874
0.0010030634
0.0009929066
0.00098035097
0.00096562719
0.00094904475
0.00093099028
0.0009118791
0.00089211371
0.00087209018
0.00085218379
0.00083276306
0.00081440579
0.00079739194
0.00078189226
0.00076803559
0.00075595039
0.00074577641
0.00073748706
0.00073092849
0.00072614246
0.00072330109
0.00072245578
0.00072362527
0.00072677518
0.0007318806
0.00073891309
0.00074775326
0.00075834344
0.00077067678
0.00078455061
0.00079960376
0.00081518258
0.00082994718
0.00084261126
0.00084994938
0.00087858348
0.00090629837
0.00093152057
0.00095277164
0.00097090856
0.00098636816
0.0009991932
0.0010092821
0.0010165199
0.0010208428
0.0010221457
0.001020307
0.001015368
0.0010074818
0.00099684586
0.00098372387
0.00096839938
0.00095123519
0.00093263546
0.00091303262
0.00089284989
0.00087250225
0.00085243801
0.00083317046
0.00081514198
0.00079854759
0.00078352114
0.00077015435
0.00075853053
0.00074876781
0.00074083168
0.00073458666
0.00073004633
0.00072734079
0.0007265332
0.00072765558
0.00073064824
0.00073550462
0.0007422361
0.00075069881
0.00076081165
0.00077260601
0.00078592534
0.00080042742
0.00081548551
0.00082979604
0.00084218995
0.00084973771
0.00087865678
0.00090651545
0.00093192616
0.00095332968
0.00097154326
0.00098702702
0.00099987295
0.0010099888
0.0010172324
0.0010214993
0.0010226904
0.001020723
0.0010156516
0.0010076239
0.00099682854
0.00098354628
0.00096810452
0.00095089253
0.00093230317
0.00091274554
0.0008926216
0.00087233414
0.00085231936
0.00083307111
0.00081504148
0.00079844927
0.00078343576
0.00077008464
0.00075845714
0.00074867259
0.00074070669
0.00073443501
0.00072986353
0.00072711911
0.00072626306
0.00072730471
0.00073021908
0.000735039
0.0007417786
0.00075026478
0.00076042743
0.00077231397
0.00078573665
0.00080032042
0.00081543654
0.00082977781
0.00084218849
0.00084974447
0.00087834585
0.00090580122
0.00093059628
0.00095142026
0.00096909471
0.00098408773
0.00099651908
0.0010062975
0.0010132608
0.0010172845
0.0010182968
0.001016254
0.0010112298
0.0010033576
0.00099280983
0.00097986844
0.00096486683
0.00094816733
0.00093013455
0.00091113852
0.00089153046
0.00087167726
0.00085195269
0.00083268092
0.00081435531
0.00079735112
0.00078188159
0.00076807538
0.00075601457
0.00074579653
0.00073744394
0.00073087073
0.00072607651
0.00072318976
0.00072226803
0.00072329252
0.00072625231
0.00073122706
0.00073822344
0.00074704361
0.00075764393
0.00077006988
0.00078407276
0.00079923467
0.00081490558
0.00082974512
0.00084249978
0.00084993489
0.00087695939
0.00090429355
0.00092817246
0.00094808885
0.00096495281
0.00097923568
0.00099106037
0.0010003257
0.0010068713
0.0010106097
0.0010115002
0.0010094773
0.0010046491
0.00099713436
0.00098709815
0.0009748008
0.00096052896
0.00094457671
0.00092726844
0.00090893658
0.00088986364
0.00087033224
0.00085028208
0.00082876986
0.00080675231
0.00078562849
0.00076606441
0.00074843828
0.00073294875
0.00071970847
0.00070884009
0.00070033396
0.00069419607
0.00069049693
0.00068930287
0.00069061238
0.00069435235
0.00070061511
0.00070940985
0.00072056292
0.00073406164
0.00074990628
0.00076774602
0.00078702787
0.0008068673
0.00082557883
0.00084120963
0.00084965173
0.00086407189
0.00089418813
0.00091738131
0.00093629152
0.00095213592
0.00096546988
0.00097646691
0.00098503655
0.00099103671
0.00099449069
0.00099539969
0.00099352932
0.00098906998
0.00098215951
0.00097297376
0.00096174374
0.00094868629
0.00093399805
0.00091791982
0.00090071548
0.00088249671
0.00086320398
0.00084066528
0.00080826588
0.00077158978
0.00073653209
0.00070468499
0.00067665587
0.00065253432
0.00063235949
0.0006161108
0.00060366738
0.00059487495
0.00058960904
0.00058786203
0.00058964079
0.00059479088
0.00060346749
0.00061580081
0.00063184808
0.00065181879
0.00067588412
0.00070384899
0.00073516755
0.00076858427
0.00080146656
0.00082942069
0.00084470095
0.00086389383
0.00089375279
0.00091632411
0.00093460765
0.00095004224
0.0009631455
0.00097386168
0.00098208676
0.00098784034
0.00099116227
0.0009920409
0.00099029444
0.00098606218
0.00097952455
0.00097085693
0.00096021018
0.00094766266
0.00093336255
0.0009175393
0.00090046698
0.00088238829
0.000863192
0.00084081584
0.0008087455
0.00077234793
0.00073740554
0.00070543063
0.00067714077
0.00065284137
0.0006325909
0.00061629666
0.00060384672
0.00059499538
0.0005896895
0.00058794959
0.00058965967
0.00059476982
0.00060335815
0.000615439
0.0006311728
0.0006508694
0.00067472081
0.00070257615
0.00073394293
0.00076756909
0.00080080157
0.00082919644
0.00084469896
0.00087690481
0.00090405306
0.0009275971
0.00094716348
0.00096378566
0.00097789482
0.00098949661
0.00099852747
0.0010049115
0.0010085912
0.0010095178
0.0010076126
0.0010029302
0.00099564351
0.00098595448
0.00097404945
0.00096009951
0.00094435307
0.00092714189
0.00090883835
0.00088980345
0.0008703295
0.00085035143
0.00082895173
0.0008070777
0.0007860502
0.00076647999
0.00074876432
0.00073315624
0.00071984648
0.00070893022
0.00070036908
0.00069408871
0.00069030087
0.00068907453
0.00069039238
0.0006942223
0.00070052076
0.00070920412
0.0007202404
0.00073368059
0.00074948848
0.00076732769
0.00078667162
0.00080661812
0.00082545512
0.00084125988
0.00084971827
0.00087827275
0.00090556667
0.00093009119
0.00095062616
0.00096808053
0.00098289195
0.00099512313
0.0010047287
0.001011591
0.0010156144
0.0010167069
0.0010147666
0.001009849
0.0010021524
0.00099189666
0.00097930017
0.00096458178
0.0009480407
0.00093005915
0.00091106654
0.00089147574
0.0008716582
0.00085196701
0.00083271805
0.00081442589
0.00079744908
0.00078198792
0.00076819022
0.00075613973
0.00074592801
0.0007375911
0.00073103172
0.00072624503
0.00072340811
0.00072257723
0.00072377592
0.00072696091
0.00073207536
0.00073906591
0.00074784032
0.00075837976
0.00077067762
0.00078452069
0.00079954494
0.00081509406
0.0008298445
0.00084261535
0.00085000557
0.00087860772
0.00090636719
0.00093162209
0.0009528625
0.00097093136
0.0009862692
0.00099898329
0.0010090379
0.0010162848
0.0010205945
0.001021842
0.0010199075
0.0010148507
0.0010068802
0.000996228
0.00098314254
0.00096787881
0.00095077248
0.0009322229
0.00091267777
0.00089257612
0.0008723181
0.00085232242
0.0008330809
0.00081505509
0.00079845971
0.00078344376
0.00077011188
0.00075850115
0.0007486884
0.00074069577
0.00073443472
0.00072991822
0.00072727008
0.00072653119
0.00072773107
0.00073081339
0.00073575176
0.00074252898
0.0007510022
0.00076111615
0.00077289862
0.00078618536
0.00080063679
0.00081562824
0.00082987119
0.00084226506
0.00084979061
0.00087857633
0.00090628807
0.00093153024
0.00095281355
0.00097093615
0.00098633235
0.00099914115
0.0010093311
0.0010167234
0.0010211382
0.0010224408
0.0010205355
0.0010154821
0.0010074793
0.00099675697
0.00098358212
0.00096824476
0.00095110005
0.00093253457
0.00091296938
0.00089282268
0.00087249779
0.00085243826
0.00083317716
0.00081515345
0.00079855286
0.00078353004
0.00077018005
0.00075852401
0.00074865781
0.0007406078
0.00073428195
0.00072969539
0.00072697614
0.00072616797
0.0007272698
0.0007302533
0.00073513934
0.00074192243
0.00075042429
0.00076058826
0.00077245547
0.00078584101
0.00080038205
0.00081546095
0.00082978187
0.00084218074
0.00084973435
0.0008781919
0.00090535379
0.00092980329
0.00095040326
0.00096796152
0.00098290218
0.00099536689
0.0010053098
0.0010125363
0.0010168435
0.0010181128
0.0010162775
0.001011402
0.0010036555
0.00099324768
0.00098044972
0.00096556215
0.00094892043
0.00093088152
0.00091182129
0.00089210263
0.00087209205
0.00085216348
0.00083271967
0.00081432776
0.00079727019
0.00078175988
0.00076793692
0.00075584778
0.00074558428
0.00073720151
0.00073061596
0.00072583086
0.00072298069
0.00072211765
0.00072321693
0.00072626737
0.00073133306
0.00073839786
0.00074727078
0.00075790696
0.00077033062
0.00078430243
0.00079942126
0.00081505211
0.00082986496
0.00084253069
0.0008499034
0.00087669748
0.00090376342
0.0009271997
0.00094682746
0.00096355606
0.00097781059
0.00098971287
0.00099918916
0.0010060527
0.0010101416
0.0010113681
0.0010096413
0.0010050563
0.0009977398
0.00098787839
0.00097572519
0.00096154996
0.00094563348
0.00092828856
0.0009098448
0.00089058047
0.00087072044
0.00084997914
0.00082751535
0.00080519673
0.00078400283
0.00076448219
0.00074697976
0.00073161803
0.00071855987
0.00070790007
0.00069959004
0.00069363877
0.00069014075
0.0006891615
0.00069069327
0.00069469365
0.0007012319
0.00071028929
0.00072172411
0.00073548434
0.00075151555
0.00076945742
0.00078873755
0.00080845653
0.00082690869
0.00084199573
0.00084977972
0.00086266085
0.00089330608
0.00091615597
0.00093482722
0.00095057616
0.00096393233
0.00097505627
0.00098388012
0.00099024148
0.00099409241
0.00099537789
0.00099383459
0.00098969649
0.00098305015
0.00097406345
0.00096296608
0.00094998626
0.00093532175
0.00091919491
0.00090185324
0.00088335051
0.00086324718
0.00083814336
0.0008021516
0.00076525006
0.00073070769
0.00069960294
0.0006723769
0.00064900125
0.00062962146
0.00061410424
0.00060225711
0.00059395286
0.00058914799
0.00058785512
0.00059005887
0.00059572316
0.00060497026
0.00061793639
0.00063478339
0.00065562508
0.00068054707
0.00070931164
0.00074124786
0.00077492021
0.0008073749
0.0008335321
0.00084547111
0.00086615097
0.00089559965
0.0009181355
0.00093628668
0.00095147245
0.00096422844
0.0009745972
0.00098253169
0.00098803808
0.00099112734
0.0009918034
0.00098993316
0.00098554457
0.00097889134
0.00097016387
0.00095951008
0.00094703737
0.00093290096
0.00091728763
0.00090047974
0.00088279191
0.0008642439
0.00084338118
0.00081438921
0.00077652612
0.00073946508
0.00070539986
0.00067527656
0.00064942376
0.00062790099
0.00061057784
0.00059736202
0.00058791559
0.00058213518
0.0005798849
0.0005809928
0.0005853026
0.00059303777
0.00060429129
0.00061936005
0.00063858889
0.00066218769
0.0006901243
0.00072212556
0.00075720764
0.00079299578
0.00082520959
0.00084483812
0.00087722527
0.00090418264
0.00092745533
0.00094667765
0.00096289478
0.00097655958
0.00098773969
0.000996399
0.0010024514
0.0010058362
0.0010065342
0.0010044939
0.00099975956
0.00099250677
0.00098292905
0.00097120846
0.00095753084
0.00094215105
0.00092537334
0.00090753971
0.00088899546
0.00087001449
0.00085059851
0.00082990367
0.00080767275
0.00078595439
0.00076556121
0.00074700492
0.00073057671
0.00071649747
0.00070490414
0.00069580762
0.00068912739
0.00068497387
0.00068339325
0.00068433787
0.00068776161
0.00069366016
0.00070201897
0.00071293167
0.00072650765
0.00074266858
0.00076113037
0.00078142859
0.0008026444
0.00082300853
0.0008404314
0.00084985369
0.00087811099
0.00090511932
0.00092915201
0.00094916039
0.00096608181
0.00098036811
0.00099212083
0.001001313
0.0010078179
0.0010115397
0.0010124162
0.0010103777
0.0010054871
0.00099793055
0.00098790887
0.00097563092
0.00096131731
0.00094525902
0.00092781076
0.00090936373
0.00089030002
0.00087095274
0.00085161615
0.00083247819
0.00081390269
0.00079649013
0.00078053072
0.00076621978
0.00075364489
0.00074291331
0.00073411641
0.00072720343
0.00072217702
0.00071918314
0.00071823795
0.00071933336
0.00072244224
0.00072751095
0.00073449385
0.00074339916
0.00075427428
0.00076703346
0.00078147754
0.00079725864
0.00081364461
0.00082922293
0.00084270257
0.00085019158
0.00087826405
0.00090556126
0.00093010702
0.00095067309
0.00096812999
0.00098291192
0.00099514459
0.0010048095
0.0010117476
0.0010158228
0.0010169279
0.0010149761
0.0010100357
0.0010023014
0.00099198981
0.00097933329
0.00096457284
0.00094801706
0.00093004
0.00091105652
0.00089147425
0.00087166039
0.00085196636
0.00083272204
0.00081443904
0.00079746979
0.00078204124
0.00076828871
0.00075624337
0.00074599361
0.00073761125
0.00073103986
0.00072632708
0.00072361295
0.00072287449
0.00072409762
0.00072725373
0.00073231427
0.00073923575
0.00074793931
0.00075841785
0.00077062066
0.00078440074
0.0007994363