/*--------------------------------*- C++ -*----------------------------------*\
| =========                 |                                                 |
| \\      /  F ield         | foam-extend: Open Source CFD                    |
|  \\    /   O peration     | Version:     4.1-20200408                       |
|   \\  /    A nd           | Web:         http://www.foam-extend.org         |
|    \\/     M anipulation  |                                                 |
\*---------------------------------------------------------------------------*/
FoamFile
{
    version     2.0;
    format      ascii;
    class       volSymmTensorField;
    location    "0.0435000";
    object      bEbar;
}
// * * * * * * * * * * * * * * * * * * * * * * * * * * * * * * * * * * * * * //

dimensions      [0 0 0 0 0 0 0];

internalField   nonuniform List<symmTensor> 
1952
(
(0.995831 4.54575e-06 -6.44177e-11 1.00206 -1.36975e-11 1.00212)
(0.996022 -5.945e-06 -4.4624e-11 1.0019 3.81934e-11 1.00209)
(0.996164 4.90382e-06 4.62225e-11 1.00176 1.07194e-10 1.00209)
(0.996416 -6.41214e-06 1.34568e-10 1.00153 -1.10907e-10 1.00206)
(0.996718 5.8549e-06 -4.08244e-11 1.00127 -2.85176e-10 1.00202)
(0.997139 -3.71156e-06 -2.0435e-10 1.00093 2.79438e-11 1.00194)
(0.997663 8.64497e-06 -4.79882e-11 1.00054 4.20698e-10 1.0018)
(0.998404 2.58918e-06 1.08039e-10 1.00002 -2.4766e-11 1.00158)
(0.999244 1.5429e-05 -2.17708e-11 0.999458 -4.51833e-10 1.0013)
(1.00038 1.18752e-05 -1.34969e-10 0.998666 2.35383e-10 1.00096)
(1.0018 2.47079e-05 4.27656e-12 0.997806 5.12906e-10 1.0004)
(1.00388 2.71496e-05 7.95388e-11 0.996407 -2.25997e-10 0.99973)
(1.00658 4.42236e-05 -1.0764e-11 0.994883 -4.73224e-10 0.998572)
(1.00921 5.53174e-05 -1.24905e-10 0.992804 2.16023e-10 0.998054)
(1.01029 8.37823e-05 -3.08835e-11 0.991786 1.68766e-10 0.998008)
(0.995811 -3.0563e-06 -1.55579e-11 1.00209 5.5331e-11 1.00211)
(0.995816 1.10518e-05 -1.28954e-10 1.00207 -1.4132e-11 1.00213)
(0.996004 -9.62653e-06 -8.93124e-11 1.00191 3.83052e-11 1.0021)
(0.996146 1.4042e-05 9.25159e-11 1.00177 1.08805e-10 1.0021)
(0.996399 -8.20223e-06 2.69225e-10 1.00154 -1.10397e-10 1.00207)
(0.996701 1.84552e-05 -8.16899e-11 1.00128 -2.88133e-10 1.00203)
(0.997123 -1.78585e-07 -4.08798e-10 1.00094 2.57302e-11 1.00195)
(0.997649 2.69199e-05 -9.60872e-11 1.00055 4.23806e-10 1.0018)
(0.998392 1.58522e-05 2.1595e-10 1.00002 -2.26411e-11 1.00159)
(0.999232 4.44059e-05 -4.35562e-11 0.999464 -4.54996e-10 1.00131)
(1.00037 3.79139e-05 -2.69491e-10 0.99867 2.34722e-10 1.00096)
(1.00179 6.43236e-05 8.42674e-12 0.997807 5.15816e-10 1.00041)
(1.00388 6.82755e-05 1.58905e-10 0.996402 -2.26292e-10 0.999734)
(1.00659 9.64973e-05 -2.14875e-11 0.994873 -4.76532e-10 0.998578)
(1.00923 0.00010238 -2.46987e-10 0.992784 2.15835e-10 0.998061)
(1.01032 0.000120103 -5.9206e-11 0.991755 1.69916e-10 0.998015)
(0.995795 -5.60386e-06 -3.11641e-11 1.0021 5.60712e-11 1.00212)
(0.995807 1.25811e-05 -1.29044e-10 1.00207 -1.42491e-11 1.00213)
(0.995994 -7.80043e-06 -8.93596e-11 1.00192 3.85075e-11 1.0021)
(0.996137 1.76196e-05 9.259e-11 1.00177 1.09551e-10 1.0021)
(0.99639 -4.57212e-06 2.6927e-10 1.00154 -1.10819e-10 1.00208)
(0.996692 2.40651e-05 -8.17476e-11 1.00129 -2.89627e-10 1.00203)
(0.997115 5.76248e-06 -4.08878e-10 1.00094 2.57292e-11 1.00195)
(0.997643 3.47276e-05 -9.62053e-11 1.00055 4.25568e-10 1.00181)
(0.998389 2.48412e-05 2.16062e-10 1.00002 -2.27313e-11 1.00159)
(0.999228 5.46599e-05 -4.35663e-11 0.999463 -4.56841e-10 1.00131)
(1.00037 4.8276e-05 -2.68658e-10 0.998667 2.35363e-10 1.00097)
(1.00179 7.48703e-05 8.43395e-12 0.997802 5.17521e-10 1.00041)
(1.00388 7.85911e-05 1.58434e-10 0.996394 -2.26955e-10 0.999738)
(1.00659 0.000105608 -2.14723e-11 0.994863 -4.78199e-10 0.998584)
(1.00923 0.000109402 -2.46237e-10 0.992773 2.15883e-10 0.998068)
(1.01031 0.000122234 -5.91206e-11 0.991751 1.70407e-10 0.998027)
(0.995785 -5.27621e-06 -3.11939e-11 1.0021 5.65356e-11 1.00212)
(0.995801 1.44899e-05 -1.29096e-10 1.00208 -1.43505e-11 1.00213)
(0.995987 -5.71262e-06 -8.93293e-11 1.00192 3.87706e-11 1.00211)
(0.99613 2.08902e-05 9.2653e-11 1.00178 1.10176e-10 1.0021)
(0.996384 -1.11681e-06 2.69227e-10 1.00154 -1.11434e-10 1.00208)
(0.996687 2.89986e-05 -8.17999e-11 1.00129 -2.909e-10 1.00203)
(0.997111 1.10196e-05 -4.08774e-10 1.00094 2.59466e-11 1.00195)
(0.997641 4.11909e-05 -9.64096e-11 1.00055 4.26885e-10 1.00181)
(0.998389 3.13642e-05 2.15245e-10 1.00002 -2.30428e-11 1.00159)
(0.999229 6.15816e-05 -4.36176e-11 0.999459 -4.58199e-10 1.00131)
(1.00037 5.54135e-05 -2.6788e-10 0.998662 2.3603e-10 1.00097)
(1.00179 8.12957e-05 8.51744e-12 0.997795 5.18776e-10 1.00041)
(1.00389 8.43973e-05 1.58147e-10 0.996384 -2.2734e-10 0.999741)
(1.0066 0.000110077 -2.14556e-11 0.994853 -4.79249e-10 0.998587)
(1.00923 0.000110871 -2.45612e-10 0.992763 2.16052e-10 0.998074)
(1.01031 0.000121847 -5.9286e-11 0.991744 1.70748e-10 0.998035)
(0.995779 -4.88282e-06 -3.12264e-11 1.00211 5.68862e-11 1.00213)
(0.995798 1.55483e-05 -1.29271e-10 1.00208 -1.44197e-11 1.00214)
(0.995983 -4.3483e-06 -8.946e-11 1.00192 3.89628e-11 1.00211)
(0.996126 2.3631e-05 9.27291e-11 1.00178 1.10633e-10 1.00211)
(0.996381 1.82464e-06 2.69234e-10 1.00154 -1.11893e-10 1.00208)
(0.996686 3.27509e-05 -8.18581e-11 1.00129 -2.91826e-10 1.00204)
(0.997111 1.49704e-05 -4.08741e-10 1.00094 2.60919e-11 1.00196)
(0.997643 4.55597e-05 -9.66155e-11 1.00055 4.27804e-10 1.00181)
(0.998394 3.61439e-05 2.14924e-10 1.00002 -2.33172e-11 1.00159)
(0.999233 6.67741e-05 -4.36455e-11 0.999454 -4.59003e-10 1.00131)
(1.00037 6.02755e-05 -2.671e-10 0.998655 2.36745e-10 1.00097)
(1.0018 8.50459e-05 8.63287e-12 0.997787 5.19532e-10 1.00042)
(1.0039 8.76125e-05 1.57777e-10 0.996374 -2.2782e-10 0.999741)
(1.0066 0.000111017 -2.14412e-11 0.994843 -4.79976e-10 0.99859)
(1.00924 0.000111092 -2.45067e-10 0.992755 2.16152e-10 0.998079)
(1.01031 0.000121041 -5.94529e-11 0.99174 1.70989e-10 0.998042)
(0.995776 -4.51648e-06 -3.12617e-11 1.00211 5.71251e-11 1.00213)
(0.995798 1.69033e-05 -1.29339e-10 1.00208 -1.44407e-11 1.00214)
(0.995982 -2.82288e-06 -8.94307e-11 1.00192 3.90689e-11 1.00211)
(0.996126 2.59276e-05 9.28005e-11 1.00178 1.10849e-10 1.00211)
(0.996382 4.13938e-06 2.6917e-10 1.00154 -1.12237e-10 1.00209)
(0.996688 3.58173e-05 -8.19307e-11 1.00128 -2.92287e-10 1.00204)
(0.997114 1.80289e-05 -4.08644e-10 1.00094 2.63235e-11 1.00196)
(0.997648 4.88386e-05 -9.68685e-11 1.00055 4.28113e-10 1.00181)
(0.998402 3.94914e-05 2.14368e-10 1.00001 -2.38059e-11 1.00159)
(0.99924 6.91443e-05 -4.36953e-11 0.999447 -4.59629e-10 1.00131)
(1.00038 6.25461e-05 -2.66106e-10 0.998647 2.37108e-10 1.00097)
(1.00181 8.59329e-05 8.84648e-12 0.997778 5.20078e-10 1.00042)
(1.00391 8.8038e-05 1.57233e-10 0.996364 -2.28064e-10 0.99974)
(1.00661 0.000110352 -2.14293e-11 0.994834 -4.8038e-10 0.998591)
(1.00924 0.00011028 -2.44552e-10 0.992746 2.16439e-10 0.998082)
(1.01031 0.00012 -5.96156e-11 0.991735 1.71148e-10 0.998047)
(0.995775 -4.25596e-06 -3.12819e-11 1.00211 5.72391e-11 1.00213)
(0.995801 1.77604e-05 -1.2948e-10 1.00208 -1.44791e-11 1.00214)
(0.995984 -2.08999e-06 -8.94987e-11 1.00192 3.91771e-11 1.00211)
(0.996128 2.74276e-05 9.28781e-11 1.00178 1.11011e-10 1.00211)
(0.996384 5.48103e-06 2.6916e-10 1.00154 -1.1253e-10 1.00209)
(0.996692 3.76527e-05 -8.19968e-11 1.00128 -2.92616e-10 1.00204)
(0.997119 1.97498e-05 -4.0854e-10 1.00093 2.6491e-11 1.00196)
(0.997655 5.05494e-05 -9.71388e-11 1.00054 4.2828e-10 1.00181)
(0.998411 4.09e-05 2.13639e-10 1 -2.41536e-11 1.00159)
(0.999248 7.02008e-05 -4.37461e-11 0.999439 -4.59839e-10 1.00131)
(1.00039 6.33331e-05 -2.65314e-10 0.998639 2.37535e-10 1.00097)
(1.00182 8.55377e-05 9.0551e-12 0.99777 5.20295e-10 1.00041)
(1.00392 8.7554e-05 1.56936e-10 0.996355 -2.28294e-10 0.999738)
(1.00662 0.000108589 -2.14139e-11 0.994825 -4.80598e-10 0.998591)
(1.00925 0.00010873 -2.44039e-10 0.992739 2.16707e-10 0.998085)
(1.01031 0.000118654 -5.97852e-11 0.991731 1.71255e-10 0.998052)
(0.995778 -4.08513e-06 -3.13266e-11 1.00211 5.72365e-11 1.00213)
(0.995806 1.82551e-05 -1.29611e-10 1.00207 -1.44696e-11 1.00213)
(0.995988 -1.86974e-06 -8.95493e-11 1.00192 3.91906e-11 1.00211)
(0.996132 2.83536e-05 9.29551e-11 1.00177 1.10979e-10 1.00211)
(0.996389 5.98684e-06 2.69073e-10 1.00154 -1.12652e-10 1.00208)
(0.996698 3.84623e-05 -8.20761e-11 1.00128 -2.92583e-10 1.00203)
(0.997126 2.01011e-05 -4.08412e-10 1.00093 2.66487e-11 1.00195)
(0.997664 5.07412e-05 -9.74454e-11 1.00053 4.28073e-10 1.00181)
(0.998421 4.10454e-05 2.13165e-10 0.999995 -2.45726e-11 1.00159)
(0.999258 6.9609e-05 -4.37924e-11 0.999432 -4.59965e-10 1.00131)
(1.0004 6.26331e-05 -2.64212e-10 0.998631 2.37783e-10 1.00097)
(1.00183 8.38635e-05 9.34341e-12 0.997761 5.20407e-10 1.00041)
(1.00393 8.60834e-05 1.56337e-10 0.996345 -2.28545e-10 0.999736)
(1.00663 0.000105934 -2.1399e-11 0.994816 -4.80725e-10 0.998591)
(1.00925 0.000107292 -2.4358e-10 0.992731 2.16999e-10 0.998086)
(1.01031 0.000117567 -5.99102e-11 0.991726 1.71327e-10 0.998055)
(0.995782 -4.09418e-06 -3.13475e-11 1.00211 5.71542e-11 1.00212)
(0.995812 1.87072e-05 -1.29711e-10 1.00207 -1.44641e-11 1.00213)
(0.995993 -1.8879e-06 -8.95577e-11 1.00191 3.92072e-11 1.00211)
(0.996138 2.87104e-05 9.30263e-11 1.00177 1.10903e-10 1.0021)
(0.996395 5.84121e-06 2.69013e-10 1.00153 -1.12794e-10 1.00208)
(0.996705 3.87329e-05 -8.21483e-11 1.00127 -2.92474e-10 1.00203)
(0.997134 2.00442e-05 -4.08243e-10 1.00092 2.68598e-11 1.00195)
(0.997673 5.05986e-05 -9.77529e-11 1.00053 4.27734e-10 1.0018)
(0.998432 4.05918e-05 2.12306e-10 0.999987 -2.50876e-11 1.00158)
(0.999267 6.79712e-05 -4.38508e-11 0.999424 -4.59993e-10 1.00131)
(1.00041 6.09799e-05 -2.633e-10 0.998623 2.38029e-10 1.00097)
(1.00184 8.11809e-05 9.62046e-12 0.997753 5.20465e-10 1.00041)
(1.00394 8.36846e-05 1.55868e-10 0.996336 -2.2872e-10 0.999734)
(1.00664 0.000103411 -2.1383e-11 0.994809 -4.80699e-10 0.99859)
(1.00926 0.00010602 -2.43013e-10 0.992723 2.17453e-10 0.998087)
(1.01031 0.000116375 -6.00308e-11 0.99172 1.71356e-10 0.998058)
(0.995789 -4.2017e-06 -3.13958e-11 1.0021 5.69947e-11 1.00212)
(0.995819 1.8787e-05 -1.29873e-10 1.00207 -1.44584e-11 1.00213)
(0.995999 -2.50633e-06 -8.96334e-11 1.00191 3.92082e-11 1.00211)
(0.996144 2.85991e-05 9.30977e-11 1.00177 1.10797e-10 1.0021)
(0.996402 5.05052e-06 2.68894e-10 1.00153 -1.12873e-10 1.00208)
(0.996712 3.80002e-05 -8.22269e-11 1.00127 -2.92305e-10 1.00203)
(0.997142 1.87347e-05 -4.08022e-10 1.00091 2.69836e-11 1.00195)
(0.997683 4.89312e-05 -9.8108e-11 1.00052 4.27404e-10 1.0018)
(0.998444 3.85209e-05 2.11453e-10 0.99998 -2.53491e-11 1.00158)
(0.999277 6.56587e-05 -4.39107e-11 0.999417 -4.59829e-10 1.00131)
(1.00042 5.87922e-05 -2.62212e-10 0.998616 2.38202e-10 1.00097)
(1.00185 7.81994e-05 9.96454e-12 0.997746 5.20321e-10 1.00041)
(1.00396 8.13977e-05 1.55393e-10 0.996327 -2.28831e-10 0.99973)
(1.00665 0.000100451 -2.13639e-11 0.9948 -4.80599e-10 0.998588)
(1.00927 0.000104252 -2.42516e-10 0.992715 2.17821e-10 0.998088)
(1.01031 0.000115186 -6.01381e-11 0.991714 1.71374e-10 0.99806)
(0.995795 -4.37897e-06 -3.14355e-11 1.0021 5.68115e-11 1.00212)
(0.995827 1.86012e-05 -1.30001e-10 1.00206 -1.4417e-11 1.00212)
(0.996006 -3.38973e-06 -8.96797e-11 1.0019 3.91513e-11 1.0021)
(0.996151 2.81262e-05 9.31643e-11 1.00176 1.1058e-10 1.0021)
(0.996409 3.70625e-06 2.68768e-10 1.00152 -1.12874e-10 1.00208)
(0.996721 3.68896e-05 -8.23043e-11 1.00126 -2.91938e-10 1.00203)
(0.997151 1.68461e-05 -4.07766e-10 1.00091 2.71343e-11 1.00195)
(0.997693 4.69169e-05 -9.8485e-11 1.00052 4.26837e-10 1.0018)
(0.998455 3.63719e-05 2.10722e-10 0.999972 -2.57412e-11 1.00157)
(0.999287 6.2687e-05 -4.39609e-11 0.99941 -4.59615e-10 1.0013)
(1.00043 5.61062e-05 -2.6115e-10 0.998609 2.38399e-10 1.00097)
(1.00186 7.48292e-05 1.02779e-11 0.997738 5.20177e-10 1.0004)
(1.00397 7.88937e-05 1.54841e-10 0.996318 -2.29109e-10 0.999727)
(1.00666 9.74093e-05 -2.13453e-11 0.994792 -4.80522e-10 0.998587)
(1.00928 0.000103104 -2.41922e-10 0.992707 2.1827e-10 0.998088)
(1.01032 0.000114086 -6.02277e-11 0.991708 1.7138e-10 0.998062)
(0.995803 -4.70819e-06 -3.14945e-11 1.0021 5.65788e-11 1.00211)
(0.995835 1.84649e-05 -1.301e-10 1.00206 -1.43909e-11 1.00212)
(0.996013 -4.47444e-06 -8.96675e-11 1.0019 3.91161e-11 1.0021)
(0.996158 2.71926e-05 9.32314e-11 1.00176 1.10365e-10 1.0021)
(0.996417 1.84099e-06 2.6861e-10 1.00152 -1.12908e-10 1.00207)
(0.996729 3.53022e-05 -8.23861e-11 1.00126 -2.91575e-10 1.00202)
(0.99716 1.46625e-05 -4.07454e-10 1.0009 2.73096e-11 1.00194)
(0.997703 4.46771e-05 -9.88881e-11 1.00051 4.26257e-10 1.00179)
(0.998467 3.39006e-05 2.09658e-10 0.999965 -2.61348e-11 1.00157)
(0.999296 5.91898e-05 -4.40268e-11 0.999403 -4.59479e-10 1.0013)
(1.00043 5.30011e-05 -2.5997e-10 0.998602 2.38428e-10 1.00097)
(1.00187 7.10809e-05 1.06497e-11 0.997731 5.2004e-10 1.0004)
(1.00398 7.60503e-05 1.54257e-10 0.996309 -2.29163e-10 0.999724)
(1.00667 9.47386e-05 -2.13274e-11 0.994784 -4.8034e-10 0.998585)
(1.00928 0.000101826 -2.41333e-10 0.992699 2.18742e-10 0.998089)
(1.01032 0.000113048 -6.03048e-11 0.991701 1.71369e-10 0.998064)
(0.99581 -5.10713e-06 -3.15124e-11 1.00209 5.63305e-11 1.00211)
(0.995843 1.79943e-05 -1.30259e-10 1.00205 -1.43688e-11 1.00211)
(0.996019 -5.99938e-06 -8.97407e-11 1.0019 3.90875e-11 1.0021)
(0.996164 2.60321e-05 9.32914e-11 1.00175 1.10177e-10 1.00209)
(0.996424 -3.51179e-07 2.68415e-10 1.00151 -1.12939e-10 1.00207)
(0.996736 3.32756e-05 -8.24641e-11 1.00125 -2.91259e-10 1.00202)
(0.997168 1.18094e-05 -4.07045e-10 1.0009 2.74521e-11 1.00194)
(0.997712 4.18291e-05 -9.93455e-11 1.0005 4.25773e-10 1.00179)
(0.998477 3.07282e-05 2.08466e-10 0.999958 -2.64039e-11 1.00157)
(0.999306 5.54944e-05 -4.40873e-11 0.999396 -4.59173e-10 1.0013)
(1.00044 4.98935e-05 -2.58889e-10 0.998595 2.38652e-10 1.00096)
(1.00188 6.74098e-05 1.09817e-11 0.997723 5.19808e-10 1.0004)
(1.00399 7.35727e-05 1.53843e-10 0.9963 -2.29373e-10 0.99972)
(1.00668 9.17901e-05 -2.13049e-11 0.994776 -4.80205e-10 0.998583)
(1.00929 0.000100525 -2.40727e-10 0.99269 2.19196e-10 0.998089)
(1.01033 0.000112012 -6.0371e-11 0.991694 1.71363e-10 0.998065)
(0.995818 -5.54136e-06 -3.15658e-11 1.00209 5.60731e-11 1.00211)
(0.99585 1.74468e-05 -1.30371e-10 1.00205 -1.43262e-11 1.00211)
(0.996025 -7.6271e-06 -8.97502e-11 1.00189 3.90188e-11 1.00209)
(0.996171 2.45869e-05 9.33477e-11 1.00175 1.09927e-10 1.00209)
(0.996431 -2.9562e-06 2.68186e-10 1.00151 -1.12918e-10 1.00207)
(0.996744 3.09592e-05 -8.2548e-11 1.00125 -2.90831e-10 1.00202)
(0.997176 8.56213e-06 -4.06606e-10 1.00089 2.76086e-11 1.00194)
(0.997722 3.87903e-05 -9.98352e-11 1.0005 4.25134e-10 1.00179)
(0.998488 2.77046e-05 2.074e-10 0.999952 -2.67285e-11 1.00156)
(0.999315 5.13299e-05 -4.41462e-11 0.99939 -4.59007e-10 1.0013)
(1.00045 4.63059e-05 -2.576e-10 0.998587 2.3869e-10 1.00096)
(1.00189 6.36082e-05 1.13689e-11 0.997716 5.19653e-10 1.0004)
(1.00401 7.08838e-05 1.53155e-10 0.996291 -2.29545e-10 0.999717)
(1.00669 8.89612e-05 -2.12841e-11 0.994767 -4.80095e-10 0.998582)
(1.0093 9.94035e-05 -2.40163e-10 0.99268 2.19638e-10 0.998089)
(1.01034 0.000111045 -6.04247e-11 0.991686 1.71359e-10 0.998066)
(0.995825 -6.08752e-06 -3.15948e-11 1.00208 5.58321e-11 1.0021)
(0.995857 1.67976e-05 -1.30488e-10 1.00205 -1.43061e-11 1.00211)
(0.99603 -9.54724e-06 -8.97619e-11 1.00189 3.89989e-11 1.00209)
(0.996176 2.27601e-05 9.34066e-11 1.00175 1.09749e-10 1.00209)
(0.996436 -5.96662e-06 2.67942e-10 1.00151 -1.12984e-10 1.00207)
(0.996751 2.82053e-05 -8.26294e-11 1.00124 -2.90536e-10 1.00201)
(0.997183 5.0698e-06 -4.06056e-10 1.00089 2.7827e-11 1.00194)
(0.997731 3.58269e-05 -1.00411e-10 1.00049 4.24605e-10 1.00178)
(0.998498 2.4616e-05 2.05602e-10 0.999945 -2.71823e-11 1.00156)
(0.999323 4.68287e-05 -4.42176e-11 0.999384 -4.58858e-10 1.00129)
(1.00046 4.26284e-05 -2.56529e-10 0.99858 2.38983e-10 1.00096)
(1.0019 5.9674e-05 1.17035e-11 0.997708 5.19585e-10 1.00039)
(1.00402 6.81099e-05 1.5269e-10 0.996281 -2.29845e-10 0.999714)
(1.0067 8.62503e-05 -2.12622e-11 0.994757 -4.80002e-10 0.99858)
(1.00931 9.84395e-05 -2.39564e-10 0.99267 2.20146e-10 0.998088)
(1.01034 0.00011008 -6.04798e-11 0.991678 1.71348e-10 0.998067)
(0.995831 -6.69839e-06 -3.16054e-11 1.00208 5.55837e-11 1.0021)
(0.995862 1.5969e-05 -1.3063e-10 1.00205 -1.42933e-11 1.00211)
(0.996034 -1.17089e-05 -8.9801e-11 1.00189 3.89725e-11 1.00209)
(0.996181 2.07405e-05 9.34597e-11 1.00174 1.09621e-10 1.00209)
(0.996441 -9.15231e-06 2.67662e-10 1.0015 -1.12975e-10 1.00207)
(0.996757 2.50898e-05 -8.27147e-11 1.00124 -2.9033e-10 1.00201)
(0.99719 1.20843e-06 -4.05457e-10 1.00088 2.78769e-11 1.00193)
(0.99774 3.23128e-05 -1.0104e-10 1.00048 4.24294e-10 1.00178)
(0.998506 2.06893e-05 2.03952e-10 0.999939 -2.74835e-11 1.00156)
(0.999331 4.22043e-05 -4.42784e-11 0.999377 -4.58783e-10 1.00129)
(1.00047 3.86867e-05 -2.55376e-10 0.998573 2.39306e-10 1.00096)
(1.00191 5.5467e-05 1.21026e-11 0.9977 5.19522e-10 1.00039)
(1.00403 6.50179e-05 1.5208e-10 0.996272 -2.30037e-10 0.999711)
(1.00671 8.34691e-05 -2.12431e-11 0.994748 -4.79849e-10 0.998578)
(1.00932 9.73504e-05 -2.38879e-10 0.99266 2.20683e-10 0.998088)
(1.01035 0.00010908 -6.0536e-11 0.991669 1.71336e-10 0.998068)
(0.995836 -7.32466e-06 -3.16689e-11 1.00208 5.53896e-11 1.0021)
(0.995866 1.51479e-05 -1.30758e-10 1.00204 -1.42807e-11 1.0021)
(0.996037 -1.3938e-05 -8.98283e-11 1.00188 3.89531e-11 1.00209)
(0.996184 1.85972e-05 9.35086e-11 1.00174 1.09529e-10 1.00209)
(0.996445 -1.26408e-05 2.67345e-10 1.0015 -1.12981e-10 1.00206)
(0.996761 2.16369e-05 -8.28018e-11 1.00123 -2.90193e-10 1.00201)
(0.997196 -3.24393e-06 -4.04794e-10 1.00088 2.78659e-11 1.00193)
(0.997747 2.8118e-05 -1.01704e-10 1.00048 4.24068e-10 1.00178)
(0.998513 1.58887e-05 2.02359e-10 0.999933 -2.76599e-11 1.00156)
(0.999339 3.72209e-05 -4.43382e-11 0.999371 -4.58639e-10 1.00129)
(1.00048 3.45923e-05 -2.54314e-10 0.998566 2.39667e-10 1.00096)
(1.00192 5.13274e-05 1.24634e-11 0.997693 5.19395e-10 1.00039)
(1.00405 6.22885e-05 1.51664e-10 0.996262 -2.30327e-10 0.999707)
(1.00672 8.04897e-05 -2.12187e-11 0.994738 -4.7979e-10 0.998576)
(1.00933 9.59459e-05 -2.38299e-10 0.992649 2.21143e-10 0.998088)
(1.01036 0.000108048 -6.05866e-11 0.991659 1.71341e-10 0.99807)
(0.99584 -8.00209e-06 -3.17002e-11 1.00208 5.5217e-11 1.0021)
(0.995869 1.39989e-05 -1.30888e-10 1.00204 -1.42694e-11 1.0021)
(0.996039 -1.6609e-05 -8.9832e-11 1.00188 3.89213e-11 1.00209)
(0.996187 1.60007e-05 9.35654e-11 1.00174 1.09449e-10 1.00208)
(0.996448 -1.673e-05 2.67006e-10 1.0015 -1.12899e-10 1.00206)
(0.996766 1.77029e-05 -8.28998e-11 1.00123 -2.90062e-10 1.00201)
(0.997201 -8.19377e-06 -4.04099e-10 1.00087 2.77072e-11 1.00193)
(0.997755 2.35508e-05 -1.02402e-10 1.00047 4.23907e-10 1.00178)
(0.998519 1.06332e-05 2.01173e-10 0.999927 -2.78413e-11 1.00156)
(0.999345 3.18779e-05 -4.438e-11 0.999366 -4.58698e-10 1.00129)
(1.00049 3.00985e-05 -2.53176e-10 0.998559 2.40098e-10 1.00095)
(1.00193 4.68909e-05 1.2853e-11 0.997685 5.1943e-10 1.00039)
(1.00406 5.91602e-05 1.50978e-10 0.996252 -2.30753e-10 0.999704)
(1.00674 7.72276e-05 -2.11995e-11 0.994727 -4.79803e-10 0.998575)
(1.00935 9.48187e-05 -2.37701e-10 0.992638 2.21636e-10 0.998088)
(1.01037 0.000107012 -6.06403e-11 0.991649 1.71355e-10 0.998071)
(0.995842 -8.82982e-06 -3.17528e-11 1.00208 5.50716e-11 1.00209)
(0.995871 1.30288e-05 -1.31001e-10 1.00204 -1.42845e-11 1.0021)
(0.996039 -1.93506e-05 -8.98109e-11 1.00188 3.89443e-11 1.00209)
(0.996187 1.32835e-05 9.36096e-11 1.00174 1.09475e-10 1.00209)
(0.996449 -2.10554e-05 2.6661e-10 1.0015 -1.129e-10 1.00206)
(0.996768 1.36798e-05 -8.29976e-11 1.00123 -2.90124e-10 1.00201)
(0.997205 -1.33179e-05 -4.03372e-10 1.00087 2.75457e-11 1.00193)
(0.997761 1.85712e-05 -1.03026e-10 1.00047 4.2393e-10 1.00178)
(0.998525 5.10153e-06 2.00286e-10 0.999921 -2.79405e-11 1.00156)
(0.999352 2.60648e-05 -4.44203e-11 0.99936 -4.58902e-10 1.00129)
(1.0005 2.50819e-05 -2.52142e-10 0.998551 2.40356e-10 1.00095)
(1.00194 4.15338e-05 1.32184e-11 0.997676 5.19516e-10 1.00038)
(1.00407 5.53667e-05 1.50451e-10 0.996241 -2.31043e-10 0.999702)
(1.00675 7.39488e-05 -2.11805e-11 0.994717 -4.79783e-10 0.998573)
(1.00936 9.3588e-05 -2.36994e-10 0.992627 2.22224e-10 0.998088)
(1.01038 0.000105737 -6.07239e-11 0.991639 1.71366e-10 0.998072)
(0.995843 -9.6771e-06 -3.17876e-11 1.00208 5.49568e-11 1.00209)
(0.99587 1.16945e-05 -1.31166e-10 1.00204 -1.43131e-11 1.0021)
(0.996037 -2.26221e-05 -8.98555e-11 1.00188 3.89869e-11 1.00209)
(0.996186 1.01738e-05 9.36555e-11 1.00174 1.0958e-10 1.00209)
(0.996449 -2.59727e-05 2.66176e-10 1.0015 -1.12948e-10 1.00207)
(0.99677 8.84446e-06 -8.31031e-11 1.00123 -2.90322e-10 1.00201)
(0.997208 -1.94296e-05 -4.02633e-10 1.00087 2.74234e-11 1.00193)
(0.997766 1.24616e-05 -1.03687e-10 1.00046 4.24045e-10 1.00177)
(0.99853 -1.02031e-06 1.99391e-10 0.999916 -2.79449e-11 1.00156)
(0.999357 1.99387e-05 -4.4464e-11 0.999354 -4.59089e-10 1.00129)
(1.0005 1.94379e-05 -2.51136e-10 0.998544 2.40492e-10 1.00095)
(1.00195 3.59515e-05 1.35858e-11 0.997668 5.19539e-10 1.00038)
(1.00409 5.13135e-05 1.49993e-10 0.99623 -2.31214e-10 0.999699)
(1.00676 7.01596e-05 -2.11608e-11 0.994706 -4.79787e-10 0.998571)
(1.00937 9.16543e-05 -2.36314e-10 0.992614 2.2269e-10 0.998088)
(1.01039 0.000104371 -6.0819e-11 0.991627 1.71394e-10 0.998073)
(0.995842 -1.05816e-05 -3.18575e-11 1.00208 5.49142e-11 1.00209)
(0.995867 1.01965e-05 -1.31313e-10 1.00204 -1.43295e-11 1.0021)
(0.996034 -2.61593e-05 -8.98566e-11 1.00188 3.9023e-11 1.00209)
(0.996183 6.63528e-06 9.37044e-11 1.00174 1.09692e-10 1.00209)
(0.996447 -3.14188e-05 2.65741e-10 1.00149 -1.12991e-10 1.00207)
(0.99677 3.29597e-06 -8.32214e-11 1.00122 -2.90527e-10 1.00201)
(0.997209 -2.61757e-05 -4.01935e-10 1.00087 2.73011e-11 1.00193)
(0.997771 5.64359e-06 -1.04389e-10 1.00046 4.24165e-10 1.00177)
(0.998534 -7.95641e-06 1.984e-10 0.999911 -2.80863e-11 1.00156)
(0.999363 1.28569e-05 -4.45094e-11 0.999348 -4.59347e-10 1.00129)
(1.00051 1.31531e-05 -2.50194e-10 0.998536 2.40761e-10 1.00095)
(1.00196 2.99143e-05 1.39312e-11 0.997659 5.19656e-10 1.00038)
(1.0041 4.68672e-05 1.49528e-10 0.996219 -2.3151e-10 0.999696)
(1.00677 6.58532e-05 -2.11396e-11 0.994694 -4.79938e-10 0.99857)
(1.00938 8.96733e-05 -2.35697e-10 0.992601 2.23112e-10 0.998088)
(1.0104 0.000103055 -6.09059e-11 0.991615 1.71442e-10 0.998074)
(0.995839 -1.16304e-05 -3.1887e-11 1.00208 5.49089e-11 1.0021)
(0.995863 8.51274e-06 -1.31464e-10 1.00204 -1.43659e-11 1.00211)
(0.996029 -3.01736e-05 -8.98383e-11 1.00189 3.90908e-11 1.0021)
(0.996179 2.60852e-06 9.37594e-11 1.00174 1.09873e-10 1.00209)
(0.996444 -3.7497e-05 2.65277e-10 1.0015 -1.13046e-10 1.00207)
(0.996768 -2.76256e-06 -8.33488e-11 1.00122 -2.90848e-10 1.00202)
(0.99721 -3.33827e-05 -4.01219e-10 1.00086 2.70991e-11 1.00193)
(0.997774 -1.77813e-06 -1.05091e-10 1.00045 4.24462e-10 1.00177)
(0.998537 -1.57661e-05 1.97591e-10 0.999907 -2.8157e-11 1.00156)
(0.999367 4.95257e-06 -4.45566e-11 0.999342 -4.59819e-10 1.00129)
(1.00052 6.06122e-06 -2.49245e-10 0.998529 2.41001e-10 1.00095)
(1.00197 2.30911e-05 1.4311e-11 0.99765 5.19929e-10 1.00038)
(1.00412 4.16314e-05 1.48986e-10 0.996206 -2.31784e-10 0.999694)
(1.00679 6.11646e-05 -2.11224e-11 0.994681 -4.80151e-10 0.998569)
(1.0094 8.73406e-05 -2.35181e-10 0.992587 2.23518e-10 0.998088)
(1.01041 0.000101608 -6.10112e-11 0.991602 1.71497e-10 0.998075)
(0.995834 -1.27459e-05 -3.19406e-11 1.00208 5.49392e-11 1.0021)
(0.995856 6.68547e-06 -1.31637e-10 1.00205 -1.44219e-11 1.00211)
(0.996021 -3.46019e-05 -8.98536e-11 1.00189 3.92129e-11 1.0021)
(0.996172 -1.84349e-06 9.38082e-11 1.00174 1.10162e-10 1.0021)
(0.996438 -4.40666e-05 2.64768e-10 1.0015 -1.13205e-10 1.00207)
(0.996765 -9.53532e-06 -8.34795e-11 1.00122 -2.91382e-10 1.00202)
(0.997208 -4.13311e-05 -4.00506e-10 1.00086 2.69409e-11 1.00194)
(0.997776 -1.01359e-05 -1.05788e-10 1.00045 4.2499e-10 1.00178)
(0.998539 -2.4316e-05 1.9675e-10 0.999902 -2.81685e-11 1.00156)
(0.999371 -3.93733e-06 -4.46109e-11 0.999336 -4.60389e-10 1.00129)
(1.00053 -1.94287e-06 -2.48388e-10 0.998521 2.41288e-10 1.00095)
(1.00198 1.51493e-05 1.46727e-11 0.997641 5.20289e-10 1.00038)
(1.00413 3.54005e-05 1.48574e-10 0.996194 -2.32111e-10 0.999692)
(1.0068 5.56711e-05 -2.11052e-11 0.994668 -4.80418e-10 0.998568)
(1.00941 8.46687e-05 -2.34659e-10 0.992572 2.2395e-10 0.998088)
(1.01043 9.99968e-05 -6.11427e-11 0.991588 1.71559e-10 0.998075)
(0.995827 -1.39061e-05 -3.20012e-11 1.00208 5.50194e-11 1.0021)
(0.995846 4.70975e-06 -1.31882e-10 1.00205 -1.44867e-11 1.00212)
(0.996011 -3.93887e-05 -8.98962e-11 1.00189 3.93294e-11 1.00211)
(0.996164 -6.61737e-06 9.38592e-11 1.00175 1.1052e-10 1.0021)
(0.996431 -5.10589e-05 2.64213e-10 1.0015 -1.13361e-10 1.00208)
(0.996759 -1.6934e-05 -8.36284e-11 1.00122 -2.92043e-10 1.00202)
(0.997205 -5.00466e-05 -3.99765e-10 1.00086 2.67338e-11 1.00194)
(0.997776 -1.94987e-05 -1.06534e-10 1.00045 4.25671e-10 1.00178)
(0.998539 -3.38623e-05 1.95974e-10 0.999898 -2.80672e-11 1.00156)
(0.999374 -1.39001e-05 -4.46693e-11 0.999331 -4.6106e-10 1.0013)
(1.00053 -1.11848e-05 -2.4756e-10 0.998513 2.41468e-10 1.00096)
(1.00199 5.99793e-06 1.5074e-11 0.997631 5.20688e-10 1.00038)
(1.00414 2.80046e-05 1.4816e-10 0.996181 -2.32305e-10 0.999691)
(1.00682 4.95861e-05 -2.10917e-11 0.994654 -4.80664e-10 0.998567)
(1.00943 8.13876e-05 -2.34143e-10 0.992556 2.24424e-10 0.998088)
(1.01044 9.81858e-05 -6.12992e-11 0.991572 1.71627e-10 0.998076)
(0.995818 -1.4775e-05 -3.2058e-11 1.00209 5.51761e-11 1.00211)
(0.995834 2.47833e-06 -1.3207e-10 1.00206 -1.45655e-11 1.00212)
(0.995999 -4.44721e-05 -8.98936e-11 1.0019 3.94359e-11 1.00211)
(0.996153 -1.18551e-05 9.39153e-11 1.00175 1.1093e-10 1.00211)
(0.996421 -5.87702e-05 2.63644e-10 1.0015 -1.13533e-10 1.00208)
(0.996752 -2.52855e-05 -8.37909e-11 1.00123 -2.92792e-10 1.00203)
(0.9972 -5.98401e-05 -3.99081e-10 1.00086 2.65435e-11 1.00194)
(0.997775 -3.01736e-05 -1.0731e-10 1.00045 4.26424e-10 1.00178)
(0.998539 -4.45292e-05 1.95061e-10 0.999895 -2.79159e-11 1.00157)
(0.999376 -2.49795e-05 -4.47425e-11 0.999326 -4.61689e-10 1.0013)
(1.00054 -2.14805e-05 -2.4684e-10 0.998505 2.41622e-10 1.00096)
(1.002 -3.95509e-06 1.54531e-11 0.997621 5.21044e-10 1.00038)
(1.00416 2.00192e-05 1.47959e-10 0.996167 -2.32549e-10 0.999689)
(1.00683 4.25169e-05 -2.10768e-11 0.994639 -4.81017e-10 0.998566)
(1.00945 7.71912e-05 -2.33731e-10 0.992539 2.24801e-10 0.998088)
(1.01046 9.60261e-05 -6.15004e-11 0.991556 1.71711e-10 0.998076)
(0.995807 -1.6052e-05 -3.21023e-11 1.00209 5.53617e-11 1.00211)
(0.995819 1.22342e-07 -1.32245e-10 1.00206 -1.46326e-11 1.00213)
(0.995985 -4.99087e-05 -8.98512e-11 1.00191 3.9554e-11 1.00212)
(0.99614 -1.7621e-05 9.39822e-11 1.00176 1.11337e-10 1.00212)
(0.99641 -6.71716e-05 2.63046e-10 1.00151 -1.13665e-10 1.00209)
(0.996743 -3.44175e-05 -8.39745e-11 1.00123 -2.93529e-10 1.00204)
(0.997194 -7.03937e-05 -3.98381e-10 1.00086 2.62732e-11 1.00195)
(0.997773 -4.15695e-05 -1.08182e-10 1.00044 4.27235e-10 1.00179)
(0.998538 -5.62585e-05 1.94124e-10 0.999892 -2.78197e-11 1.00157)
(0.999377 -3.74012e-05 -4.48158e-11 0.999321 -4.62483e-10 1.0013)
(1.00054 -3.29451e-05 -2.46128e-10 0.998497 2.41915e-10 1.00096)
(1.00201 -1.5092e-05 1.58568e-11 0.997611 5.2156e-10 1.00038)
(1.00418 1.07989e-05 1.47617e-10 0.996152 -2.32915e-10 0.999688)
(1.00685 3.45323e-05 -2.10688e-11 0.994623 -4.81432e-10 0.998565)
(1.00947 7.27198e-05 -2.3337e-10 0.99252 2.25214e-10 0.998088)
(1.01048 9.38444e-05 -6.17187e-11 0.991538 1.71797e-10 0.998076)
(0.995793 -1.75477e-05 -3.21859e-11 1.0021 5.5576e-11 1.00212)
(0.995802 -2.11671e-06 -1.32421e-10 1.00207 -1.47304e-11 1.00214)
(0.995969 -5.54586e-05 -8.97708e-11 1.00191 3.96831e-11 1.00213)
(0.996126 -2.35479e-05 9.40471e-11 1.00176 1.11822e-10 1.00212)
(0.996396 -7.57888e-05 2.62373e-10 1.00151 -1.138e-10 1.0021)
(0.996733 -4.38277e-05 -8.4171e-11 1.00123 -2.94403e-10 1.00204)
(0.997186 -8.12661e-05 -3.97689e-10 1.00087 2.59414e-11 1.00195)
(0.997769 -5.373e-05 -1.09015e-10 1.00044 4.28237e-10 1.00179)
(0.998535 -6.88398e-05 1.93376e-10 0.999889 -2.7558e-11 1.00158)
(0.999378 -5.09354e-05 -4.49028e-11 0.999316 -4.63357e-10 1.00131)
(1.00055 -4.56403e-05 -2.45525e-10 0.998489 2.42056e-10 1.00096)
(1.00202 -2.78265e-05 1.62666e-11 0.9976 5.22085e-10 1.00038)
(1.00419 1.90552e-07 1.47461e-10 0.996137 -2.33143e-10 0.999687)
(1.00687 2.57901e-05 -2.10634e-11 0.994606 -4.81823e-10 0.998564)
(1.00949 6.7497e-05 -2.33006e-10 0.9925 2.25698e-10 0.998088)
(1.0105 9.12748e-05 -6.1992e-11 0.991518 1.71875e-10 0.998076)
(0.995778 -1.90047e-05 -3.2239e-11 1.00211 5.57902e-11 1.00213)
(0.995784 -4.42245e-06 -1.32585e-10 1.00208 -1.48207e-11 1.00215)
(0.995951 -6.11729e-05 -8.96845e-11 1.00192 3.98207e-11 1.00214)
(0.996109 -2.96007e-05 9.41116e-11 1.00177 1.12307e-10 1.00213)
(0.996381 -8.47998e-05 2.61629e-10 1.00152 -1.13947e-10 1.00211)
(0.99672 -5.38928e-05 -8.43878e-11 1.00124 -2.95295e-10 1.00205)
(0.997176 -9.30587e-05 -3.9698e-10 1.00087 2.5627e-11 1.00196)
(0.997764 -6.70122e-05 -1.09939e-10 1.00044 4.29257e-10 1.0018)
(0.998531 -8.23247e-05 1.92499e-10 0.999888 -2.72011e-11 1.00158)
(0.999378 -6.53478e-05 -4.49999e-11 0.999312 -4.64174e-10 1.00131)
(1.00055 -5.94424e-05 -2.44988e-10 0.998482 2.42153e-10 1.00097)
(1.00203 -4.1297e-05 1.668e-11 0.99759 5.22548e-10 1.00038)
(1.00421 -1.12542e-05 1.47405e-10 0.996122 -2.33391e-10 0.999686)
(1.00689 1.58008e-05 -2.10589e-11 0.994588 -4.82254e-10 0.998563)
(1.00951 6.10793e-05 -2.32874e-10 0.992479 2.26073e-10 0.998087)
(1.01052 8.84615e-05 -6.23081e-11 0.991496 1.71952e-10 0.998075)
(0.995761 -2.0945e-05 -3.23371e-11 1.00212 5.60232e-11 1.00214)
(0.995764 -6.44775e-06 -1.32761e-10 1.00209 -1.48898e-11 1.00216)
(0.995932 -6.67559e-05 -8.95767e-11 1.00193 3.99358e-11 1.00215)
(0.996092 -3.55212e-05 9.41791e-11 1.00178 1.12732e-10 1.00214)
(0.996365 -9.35778e-05 2.60817e-10 1.00153 -1.14001e-10 1.00212)
(0.996707 -6.39428e-05 -8.46272e-11 1.00124 -2.96082e-10 1.00206)
(0.997166 -0.000104661 -3.96278e-10 1.00087 2.52244e-11 1.00197)