/*--------------------------------*- C++ -*----------------------------------*\
| =========                 |                                                 |
| \\      /  F ield         | foam-extend: Open Source CFD                    |
|  \\    /   O peration     | Version:     4.1-20200408                       |
|   \\  /    A nd           | Web:         http://www.foam-extend.org         |
|    \\/     M anipulation  |                                                 |
\*---------------------------------------------------------------------------*/
FoamFile
{
    version     2.0;
    format      ascii;
    class       volSymmTensorField;
    location    "0.0435000";
    object      epsilonTrue;
}
// * * * * * * * * * * * * * * * * * * * * * * * * * * * * * * * * * * * * * //

dimensions      [0 0 0 0 0 0 0];

internalField   nonuniform List<symmTensor> 
1952
(
(0.0354623 -0.00152233 -5.12727e-11 -0.0185633 1.90303e-10 -0.018585)
(0.0354663 -0.00256261 -2.43435e-11 -0.0185381 -5.40786e-10 -0.0185671)
(0.0354741 -0.00349414 3.28716e-11 -0.0184894 -1.44954e-09 -0.0185604)
(0.035483 -0.00439274 9.2253e-11 -0.0184386 1.09793e-09 -0.0185355)
(0.0354951 -0.00522279 -3.78579e-11 -0.0183533 2.85749e-09 -0.0185196)
(0.0355083 -0.00593463 -1.93073e-10 -0.0182654 -1.23963e-10 -0.0184834)
(0.0355249 -0.0065276 -9.18361e-11 -0.0181356 -3.31335e-09 -0.018456)
(0.035544 -0.00692079 1.56599e-10 -0.0179891 -2.32925e-10 -0.0184056)
(0.0355645 -0.00709903 -1.2627e-11 -0.0177942 2.9072e-09 -0.0183612)
(0.0355836 -0.00699397 -2.74156e-10 -0.0175492 -9.5932e-10 -0.0182919)
(0.0356048 -0.0064988 5.03792e-11 -0.0172467 -2.94508e-09 -0.0182215)
(0.0356237 -0.00564989 2.47903e-10 -0.0167959 7.39232e-10 -0.0181247)
(0.0356395 -0.00434043 -2.8291e-11 -0.0162615 2.88603e-09 -0.0180087)
(0.0356509 -0.00269253 -1.93065e-10 -0.0155065 1.95754e-10 -0.0178653)
(0.0356557 -0.00119615 -1.31323e-10 -0.0150283 -9.72155e-10 -0.0176837)
(0.0354584 -0.000766236 -1.87668e-11 -0.0185891 -1.1114e-09 -0.0185726)
(0.0355364 -0.00152659 -7.70863e-11 -0.0186065 1.90746e-10 -0.0186282)
(0.03554 -0.00257341 -4.24182e-11 -0.0185806 -5.42109e-10 -0.0186104)
(0.0355479 -0.00350503 5.12473e-11 -0.0185313 -1.45287e-09 -0.0186032)
(0.0355561 -0.00440944 1.45966e-10 -0.0184798 1.10068e-09 -0.0185782)
(0.0355683 -0.00523934 -5.5785e-11 -0.0183931 2.86405e-09 -0.0185618)
(0.0355807 -0.00595497 -2.80569e-10 -0.0183044 -1.24413e-10 -0.0185252)
(0.0355975 -0.00654841 -1.11361e-10 -0.0181729 -3.32088e-09 -0.0184973)
(0.0356158 -0.00694219 2.06489e-10 -0.0180255 -2.33425e-10 -0.0184464)
(0.0356366 -0.00711939 -2.34378e-11 -0.0178296 2.91362e-09 -0.0184016)
(0.0356549 -0.00701205 -3.44726e-10 -0.0175841 -9.61364e-10 -0.0183316)
(0.0356764 -0.00651733 4.70086e-11 -0.0172801 -2.95139e-09 -0.0182609)
(0.0356948 -0.00566274 2.95592e-10 -0.0168287 7.40657e-10 -0.0181635)
(0.035711 -0.00435339 -3.49532e-11 -0.0162931 2.89219e-09 -0.0180471)
(0.0357218 -0.00269492 -2.59432e-10 -0.0155374 1.96364e-10 -0.017903)
(0.0357262 -0.00119786 -1.50359e-10 -0.0150603 -9.74364e-10 -0.0177211)
(0.0355325 -0.00076983 -2.5144e-11 -0.0186321 -1.11391e-09 -0.018616)
(0.0356099 -0.00153011 -7.72192e-11 -0.0186473 1.91199e-10 -0.018669)
(0.0356133 -0.00257953 -4.24749e-11 -0.018621 -5.43306e-10 -0.0186512)
(0.0356212 -0.00351291 5.13218e-11 -0.0185712 -1.45606e-09 -0.0186439)
(0.035629 -0.0044195 1.46145e-10 -0.0185192 1.10311e-09 -0.0186186)
(0.0356412 -0.00525066 -5.58572e-11 -0.0184316 2.87032e-09 -0.018602)
(0.0356529 -0.00596784 -2.80905e-10 -0.0183424 -1.24623e-10 -0.018565)
(0.0356698 -0.00656239 -1.11693e-10 -0.0182098 -3.32807e-09 -0.0185369)
(0.0356873 -0.00695667 2.06681e-10 -0.0180616 -2.34023e-10 -0.0184855)
(0.0357085 -0.00713274 -2.34604e-11 -0.0178651 2.91983e-09 -0.0184404)
(0.0357261 -0.00702436 -3.4481e-10 -0.0176191 -9.63288e-10 -0.0183701)
(0.0357477 -0.00652862 4.72175e-11 -0.0173142 -2.95756e-09 -0.0182991)
(0.0357654 -0.00567222 2.95656e-10 -0.0168618 7.42093e-10 -0.0182012)
(0.0357816 -0.00436106 -3.49531e-11 -0.0163251 2.89822e-09 -0.0180845)
(0.0357922 -0.00269894 -2.59726e-10 -0.0155685 1.97006e-10 -0.01794)
(0.035797 -0.00119996 -1.50491e-10 -0.015092 -9.76435e-10 -0.0177577)
(0.035606 -0.000771789 -2.5194e-11 -0.018673 -1.11628e-09 -0.0186569)
(0.0356822 -0.00153343 -7.73451e-11 -0.0186869 1.91648e-10 -0.0187088)
(0.0356855 -0.00258529 -4.25218e-11 -0.0186605 -5.44451e-10 -0.0186909)
(0.0356934 -0.00352039 5.13923e-11 -0.0186101 -1.45918e-09 -0.0186835)
(0.0357009 -0.00442899 1.46289e-10 -0.0185578 1.10543e-09 -0.0186579)
(0.0357131 -0.0052614 -5.59317e-11 -0.0184696 2.87644e-09 -0.0186413)
(0.0357244 -0.00598001 -2.8119e-10 -0.0183798 -1.24803e-10 -0.018604)
(0.0357414 -0.00657565 -1.12041e-10 -0.0182464 -3.33512e-09 -0.0185757)
(0.0357584 -0.00697048 2.0677e-10 -0.0180975 -2.34609e-10 -0.0185239)
(0.0357799 -0.00714544 -2.34872e-11 -0.0179008 2.92593e-09 -0.0184786)
(0.035797 -0.00703603 -3.44833e-10 -0.0176542 -9.65233e-10 -0.018408)
(0.0358188 -0.00653919 4.74497e-11 -0.0173486 -2.96366e-09 -0.0183367)
(0.035836 -0.00568105 2.95688e-10 -0.0168953 7.4358e-10 -0.0182385)
(0.0358521 -0.00436803 -3.49548e-11 -0.0163575 2.90418e-09 -0.0181216)
(0.0358625 -0.00270252 -2.59977e-10 -0.0156001 1.97569e-10 -0.0179766)
(0.0358676 -0.00120183 -1.50599e-10 -0.0151238 -9.7849e-10 -0.0177941)
(0.0356784 -0.000773645 -2.52472e-11 -0.0187128 -1.11857e-09 -0.0186967)
(0.0357534 -0.00153657 -7.74764e-11 -0.0187256 1.92087e-10 -0.0187478)
(0.0357566 -0.00259074 -4.25647e-11 -0.0186991 -5.45569e-10 -0.0187296)
(0.0357645 -0.00352749 5.14622e-11 -0.0186484 -1.46224e-09 -0.0187222)
(0.0357718 -0.00443796 1.46401e-10 -0.0185958 1.10769e-09 -0.0186965)
(0.0357842 -0.00527159 -5.60082e-11 -0.018507 2.88244e-09 -0.0186798)
(0.0357952 -0.00599155 -2.81427e-10 -0.0184168 -1.24977e-10 -0.0186422)
(0.0358124 -0.00658828 -1.12406e-10 -0.0182828 -3.34205e-09 -0.0186138)
(0.0358291 -0.00698366 2.06779e-10 -0.0181332 -2.35183e-10 -0.0185617)
(0.0358508 -0.00715752 -2.35204e-11 -0.0179363 2.93194e-09 -0.0185162)
(0.0358677 -0.00704713 -3.44791e-10 -0.0176892 -9.67163e-10 -0.0184454)
(0.0358897 -0.00654919 4.76996e-11 -0.0173831 -2.9697e-09 -0.0183739)
(0.0359067 -0.00568944 2.95686e-10 -0.016929 7.45064e-10 -0.0182755)
(0.0359229 -0.00437462 -3.49574e-11 -0.0163902 2.91008e-09 -0.0181582)
(0.0359333 -0.00270594 -2.60209e-10 -0.0156321 1.98107e-10 -0.018013)
(0.0359386 -0.00120365 -1.50703e-10 -0.0151558 -9.8053e-10 -0.0178301)
(0.0357496 -0.00077541 -2.52969e-11 -0.0187517 -1.12082e-09 -0.0187355)
(0.0358238 -0.00153957 -7.76042e-11 -0.0187637 1.92519e-10 -0.018786)
(0.035827 -0.00259599 -4.26053e-11 -0.0187371 -5.46667e-10 -0.0187678)
(0.035835 -0.0035343 5.15278e-11 -0.018686 -1.46524e-09 -0.0187604)
(0.0358422 -0.0044466 1.46492e-10 -0.0186333 1.10991e-09 -0.0187344)
(0.0358548 -0.0052814 -5.60885e-11 -0.0185441 2.88836e-09 -0.0187177)
(0.0358656 -0.00600269 -2.81635e-10 -0.0184535 -1.2515e-10 -0.0186798)
(0.035883 -0.00660047 -1.12784e-10 -0.018319 -3.34889e-09 -0.0186514)
(0.0358994 -0.00699642 2.06727e-10 -0.0181688 -2.35745e-10 -0.018599)
(0.0359214 -0.00716919 -2.35561e-11 -0.0179718 2.93789e-09 -0.0185534)
(0.0359381 -0.00705783 -3.44699e-10 -0.0177242 -9.69075e-10 -0.0184824)
(0.0359603 -0.0065588 4.79665e-11 -0.0174176 -2.97568e-09 -0.0184107)
(0.0359772 -0.00569746 2.95658e-10 -0.0169628 7.46539e-10 -0.018312)
(0.0359936 -0.0043809 -3.49618e-11 -0.0164231 2.91594e-09 -0.0181946)
(0.036004 -0.00270914 -2.6042e-10 -0.0156643 1.98634e-10 -0.018049)
(0.0360097 -0.00120541 -1.50802e-10 -0.015188 -9.82558e-10 -0.0178659)
(0.03582 -0.000777117 -2.53559e-11 -0.01879 -1.12302e-09 -0.0187738)
(0.0358936 -0.00154248 -7.77337e-11 -0.0188013 1.92944e-10 -0.0188238)
(0.0358968 -0.00260111 -4.26437e-11 -0.0187747 -5.4775e-10 -0.0188054)
(0.0359049 -0.00354092 5.15935e-11 -0.0187233 -1.46821e-09 -0.018798)
(0.035912 -0.00445504 1.46565e-10 -0.0186704 1.1121e-09 -0.0187719)
(0.0359248 -0.00529094 -5.617e-11 -0.0185808 2.8942e-09 -0.0187552)
(0.0359355 -0.00601357 -2.81812e-10 -0.0184899 -1.25321e-10 -0.0187171)
(0.0359532 -0.00661238 -1.13178e-10 -0.0183549 -3.35566e-09 -0.0186886)
(0.0359695 -0.00700888 2.06634e-10 -0.0182041 -2.36298e-10 -0.018636)
(0.0359918 -0.00718057 -2.35943e-11 -0.0180071 2.94378e-09 -0.0185902)
(0.0360083 -0.00706823 -3.44562e-10 -0.0177592 -9.70975e-10 -0.018519)
(0.0360309 -0.00656814 4.82451e-11 -0.017452 -2.98161e-09 -0.0184472)
(0.0360477 -0.0057052 2.95608e-10 -0.0169966 7.48006e-10 -0.0183483)
(0.0360643 -0.00438697 -3.49666e-11 -0.0164561 2.92176e-09 -0.0182307)
(0.0360749 -0.00271219 -2.60625e-10 -0.0156966 1.99152e-10 -0.0180849)
(0.0360808 -0.00120712 -1.50898e-10 -0.0152203 -9.84576e-10 -0.0179015)
(0.0358898 -0.000778788 -2.54045e-11 -0.0188277 -1.1252e-09 -0.0188115)
(0.0359631 -0.00154532 -7.78607e-11 -0.0188385 1.93365e-10 -0.0188611)
(0.0359663 -0.00260615 -4.26781e-11 -0.0188119 -5.48822e-10 -0.0188426)
(0.0359745 -0.00354741 5.16579e-11 -0.0187602 -1.47114e-09 -0.0188353)
(0.0359816 -0.00446334 1.46625e-10 -0.0187072 1.11427e-09 -0.018809)
(0.0359945 -0.0053003 -5.62524e-11 -0.0186172 2.89999e-09 -0.0187923)
(0.0360052 -0.00602427 -2.81966e-10 -0.018526 -1.25487e-10 -0.018754)
(0.0360231 -0.00662406 -1.13586e-10 -0.0183906 -3.36237e-09 -0.0187255)
(0.0360393 -0.00702113 2.0649e-10 -0.0182393 -2.36852e-10 -0.0186726)
(0.0360619 -0.00719174 -2.36362e-11 -0.0180422 2.94962e-09 -0.0186268)
(0.0360784 -0.00707842 -3.44388e-10 -0.017794 -9.72859e-10 -0.0185554)
(0.0361013 -0.00657729 4.85356e-11 -0.0174865 -2.98751e-09 -0.0184834)
(0.0361181 -0.00571276 2.9554e-10 -0.0170304 7.49463e-10 -0.0183844)
(0.0361351 -0.0043929 -3.49723e-11 -0.0164891 2.92755e-09 -0.0182666)
(0.0361457 -0.00271513 -2.6082e-10 -0.0157289 1.99664e-10 -0.0181205)
(0.0361519 -0.00120881 -1.50992e-10 -0.0152526 -9.86585e-10 -0.017937)
(0.0359593 -0.000780436 -2.54451e-11 -0.0188651 -1.12735e-09 -0.0188488)
(0.0360323 -0.00154812 -7.79914e-11 -0.0188754 1.93783e-10 -0.0188982)
(0.0360355 -0.00261114 -4.27149e-11 -0.0188488 -5.49886e-10 -0.0188796)
(0.0360437 -0.00355382 5.17226e-11 -0.0187968 -1.47405e-09 -0.0188723)
(0.0360509 -0.00447155 1.46673e-10 -0.0187437 1.11643e-09 -0.0188458)
(0.036064 -0.00530955 -5.63382e-11 -0.0186533 2.90573e-09 -0.0188291)
(0.0360746 -0.00603488 -2.82098e-10 -0.018562 -1.25651e-10 -0.0187906)
(0.0360929 -0.00663561 -1.14009e-10 -0.0184262 -3.36903e-09 -0.0187621)
(0.0361089 -0.00703325 2.063e-10 -0.0182743 -2.37397e-10 -0.018709)
(0.0361318 -0.00720282 -2.36775e-11 -0.0180773 2.95542e-09 -0.0186631)
(0.0361483 -0.00708852 -3.4418e-10 -0.0178288 -9.74731e-10 -0.0185915)
(0.0361716 -0.00658637 4.88375e-11 -0.017521 -2.99337e-09 -0.0185195)
(0.0361885 -0.00572023 2.95455e-10 -0.0170643 7.50915e-10 -0.0184203)
(0.0362057 -0.00439878 -3.49783e-11 -0.0165221 2.9333e-09 -0.0183023)
(0.0362165 -0.00271801 -2.61004e-10 -0.0157612 2.00174e-10 -0.018156)
(0.0362229 -0.0012105 -1.51087e-10 -0.015285 -9.88586e-10 -0.0179722)
(0.0360284 -0.000782071 -2.5505e-11 -0.0189022 -1.12948e-09 -0.0188858)
(0.0361012 -0.0015509 -7.81169e-11 -0.0189121 1.94199e-10 -0.018935)
(0.0361045 -0.00261612 -4.275e-11 -0.0188855 -5.50944e-10 -0.0189163)
(0.0361128 -0.0035602 5.17872e-11 -0.0188332 -1.47694e-09 -0.0189091)
(0.0361199 -0.00447975 1.46709e-10 -0.01878 1.11857e-09 -0.0188824)
(0.0361332 -0.00531876 -5.64228e-11 -0.0186893 2.91144e-09 -0.0188657)
(0.0361438 -0.00604548 -2.82213e-10 -0.0185978 -1.25805e-10 -0.018827)
(0.0361623 -0.00664711 -1.14447e-10 -0.0184615 -3.37566e-09 -0.0187985)
(0.0361781 -0.00704534 2.06068e-10 -0.0183091 -2.37953e-10 -0.0187452)
(0.0362015 -0.00721389 -2.37226e-11 -0.0181123 2.96119e-09 -0.0186992)
(0.0362181 -0.00709858 -3.43941e-10 -0.0178636 -9.76608e-10 -0.0186275)
(0.0362417 -0.00659543 4.91498e-11 -0.0175554 -2.99921e-09 -0.0185553)
(0.0362587 -0.00572763 2.95355e-10 -0.0170981 7.52369e-10 -0.018456)
(0.0362762 -0.00440463 -3.49852e-11 -0.0165551 2.93904e-09 -0.0183379)
(0.0362872 -0.00272086 -2.61183e-10 -0.0157936 2.00679e-10 -0.0181913)
(0.0362939 -0.00121219 -1.51184e-10 -0.0153174 -9.9058e-10 -0.0180074)
(0.0360973 -0.000783706 -2.55512e-11 -0.0189391 -1.1316e-09 -0.0189226)
(0.0361699 -0.0015537 -7.82458e-11 -0.0189486 1.94611e-10 -0.0189716)
(0.0361732 -0.00262112 -4.27807e-11 -0.018922 -5.51995e-10 -0.0189528)
(0.0361816 -0.00356659 5.18481e-11 -0.0188694 -1.47982e-09 -0.0189456)
(0.0361887 -0.00448796 1.46739e-10 -0.0188162 1.1207e-09 -0.0189188)
(0.0362022 -0.00532797 -5.65104e-11 -0.018725 2.91712e-09 -0.0189021)
(0.0362128 -0.00605608 -2.82313e-10 -0.0186334 -1.25957e-10 -0.0188632)
(0.0362316 -0.0066585 -1.149e-10 -0.0184967 -3.38226e-09 -0.0188347)
(0.0362472 -0.00705744 2.05747e-10 -0.0183438 -2.38525e-10 -0.0187812)
(0.0362712 -0.00722505 -2.37713e-11 -0.0181473 2.96694e-09 -0.0187351)
(0.0362878 -0.00710863 -3.43675e-10 -0.0178983 -9.78487e-10 -0.0186633)
(0.0363118 -0.0066045 4.94701e-11 -0.0175897 -3.00503e-09 -0.0185911)
(0.0363289 -0.00573501 2.95246e-10 -0.0171319 7.53826e-10 -0.0184916)
(0.0363467 -0.00441048 -3.49923e-11 -0.0165881 2.94475e-09 -0.0183733)
(0.0363579 -0.00272369 -2.61361e-10 -0.015826 2.01177e-10 -0.0182265)
(0.0363647 -0.00121389 -1.51282e-10 -0.0153497 -9.92568e-10 -0.0180424)
(0.036166 -0.000785348 -2.56081e-11 -0.0189757 -1.1337e-09 -0.0189591)
(0.0362384 -0.0015565 -7.83731e-11 -0.0189849 1.95021e-10 -0.019008)
(0.0362417 -0.00262617 -4.28095e-11 -0.0189582 -5.5304e-10 -0.0189891)
(0.0362502 -0.00357302 5.19124e-11 -0.0189054 -1.48268e-09 -0.0189819)
(0.0362574 -0.00449621 1.46762e-10 -0.0188521 1.12283e-09 -0.018955)
(0.036271 -0.00533723 -5.65979e-11 -0.0187606 2.92277e-09 -0.0189383)
(0.0362817 -0.00606672 -2.82404e-10 -0.018669 -1.26098e-10 -0.0188993)
(0.0363007 -0.00666991 -1.15367e-10 -0.0185317 -3.38885e-09 -0.0188708)
(0.036316 -0.00706959 2.05365e-10 -0.0183782 -2.3911e-10 -0.018817)
(0.0363409 -0.00723631 -2.38225e-11 -0.0181822 2.97265e-09 -0.0187708)
(0.0363575 -0.0071187 -3.43369e-10 -0.017933 -9.80399e-10 -0.018699)
(0.0363818 -0.00661363 4.98018e-11 -0.0176241 -3.01083e-09 -0.0186266)
(0.0363991 -0.00574241 2.95126e-10 -0.0171658 7.55289e-10 -0.0185271)
(0.0364171 -0.00441636 -3.49997e-11 -0.0166211 2.95044e-09 -0.0184086)
(0.0364285 -0.00272654 -2.6154e-10 -0.0158584 2.0167e-10 -0.0182617)
(0.0364354 -0.00121559 -1.51382e-10 -0.0153821 -9.9455e-10 -0.0180774)
(0.0362345 -0.000787006 -2.56489e-11 -0.0190121 -1.13579e-09 -0.0189955)
(0.0363066 -0.00155933 -7.84984e-11 -0.0190209 1.95429e-10 -0.0190442)
(0.0363099 -0.00263126 -4.28399e-11 -0.0189943 -5.54079e-10 -0.0190251)
(0.0363186 -0.00357954 5.19732e-11 -0.0189413 -1.48552e-09 -0.019018)
(0.0363259 -0.00450455 1.46783e-10 -0.018888 1.12494e-09 -0.0189909)
(0.0363397 -0.00534665 -5.66879e-11 -0.0187962 2.92839e-09 -0.0189744)
(0.0363506 -0.00607742 -2.82514e-10 -0.0187045 -1.26255e-10 -0.0189351)
(0.0363697 -0.00668131 -1.15847e-10 -0.0185666 -3.39539e-09 -0.0189067)
(0.0363846 -0.00708179 2.04788e-10 -0.0184124 -2.39668e-10 -0.0188527)
(0.0364104 -0.00724778 -2.38774e-11 -0.0182171 2.97834e-09 -0.0188064)
(0.0364272 -0.00712883 -3.4307e-10 -0.0179678 -9.8233e-10 -0.0187345)
(0.0364518 -0.00662276 5.01336e-11 -0.0176584 -3.01662e-09 -0.018662)
(0.0364693 -0.00574987 2.95014e-10 -0.0171997 7.56753e-10 -0.0185624)
(0.0364875 -0.00442225 -3.50067e-11 -0.0166541 2.95612e-09 -0.0184438)
(0.036499 -0.00272941 -2.61726e-10 -0.0158909 2.02159e-10 -0.0182967)
(0.0365061 -0.00121729 -1.51483e-10 -0.0154145 -9.96528e-10 -0.0181122)
(0.0363026 -0.000788681 -2.57292e-11 -0.0190483 -1.13787e-09 -0.0190316)
(0.0363745 -0.00156219 -7.86272e-11 -0.0190568 1.95834e-10 -0.0190801)
(0.0363778 -0.00263641 -4.28643e-11 -0.0190301 -5.55113e-10 -0.019061)
(0.0363867 -0.00358611 5.2037e-11 -0.0189769 -1.48834e-09 -0.0190539)
(0.036394 -0.00451299 1.46791e-10 -0.0189236 1.12705e-09 -0.0190267)
(0.0364082 -0.00535617 -5.67794e-11 -0.0188316 2.93397e-09 -0.0190102)
(0.0364191 -0.00608823 -2.82612e-10 -0.0187397 -1.26462e-10 -0.0189708)
(0.0364385 -0.00669278 -1.16341e-10 -0.0186016 -3.40187e-09 -0.0189424)
(0.0364536 -0.00709415 2.0415e-10 -0.018447 -2.40158e-10 -0.0188882)
(0.0364797 -0.00725939 -2.39367e-11 -0.0182518 2.98402e-09 -0.0188418)
(0.0364967 -0.00713909 -3.42746e-10 -0.0180024 -9.84199e-10 -0.0187699)
(0.0365217 -0.00663201 5.04693e-11 -0.0176927 -3.02237e-09 -0.0186974)
(0.0365394 -0.00575744 2.94904e-10 -0.0172335 7.58194e-10 -0.0185976)
(0.0365579 -0.00442822 -3.50141e-11 -0.0166871 2.96178e-09 -0.0184789)
(0.0365695 -0.00273234 -2.61914e-10 -0.0159233 2.02648e-10 -0.0183316)
(0.0365767 -0.00121902 -1.51588e-10 -0.0154469 -9.98501e-10 -0.018147)
(0.0363705 -0.000790389 -2.57592e-11 -0.0190842 -1.13993e-09 -0.0190675)
(0.0364421 -0.00156511 -7.87577e-11 -0.0190924 1.96233e-10 -0.0191158)
(0.0364455 -0.00264164 -4.28875e-11 -0.0190658 -5.56144e-10 -0.0190967)
(0.0364545 -0.00359276 5.21009e-11 -0.0190124 -1.49114e-09 -0.0190896)
(0.0364619 -0.00452156 1.46782e-10 -0.018959 1.12916e-09 -0.0190623)
(0.0364764 -0.00536575 -5.68729e-11 -0.0188669 2.93953e-09 -0.0190458)
(0.0364874 -0.00609919 -2.82686e-10 -0.0187748 -1.26669e-10 -0.0190063)
(0.0365073 -0.00670432 -1.16846e-10 -0.0186364 -3.40831e-09 -0.0189779)
(0.0365224 -0.00710669 2.03523e-10 -0.0184816 -2.40639e-10 -0.0189236)
(0.036549 -0.00727123 -2.39956e-11 -0.0182865 2.98967e-09 -0.0188772)
(0.0365662 -0.00714955 -3.42406e-10 -0.0180369 -9.86047e-10 -0.0188051)
(0.0365916 -0.00664148 5.08147e-11 -0.017727 -3.02811e-09 -0.0187326)
(0.0366094 -0.00576513 2.94783e-10 -0.0172674 7.59629e-10 -0.0186327)
(0.0366283 -0.00443433 -3.50216e-11 -0.0167202 2.96742e-09 -0.0185139)
(0.03664 -0.00273532 -2.62098e-10 -0.0159557 2.03134e-10 -0.0183664)
(0.0366473 -0.00122077 -1.51696e-10 -0.0154792 -1.00047e-09 -0.0181816)
(0.0364379 -0.000792147 -2.58141e-11 -0.01912 -1.14198e-09 -0.0191031)
(0.0365092 -0.00156813 -7.88852e-11 -0.0191279 1.96625e-10 -0.0191512)
(0.0365128 -0.00264698 -4.29178e-11 -0.0191013 -5.57172e-10 -0.0191321)
(0.036522 -0.00359951 5.21615e-11 -0.0190477 -1.49393e-09 -0.0191251)
(0.0365296 -0.0045303 1.46764e-10 -0.0189943 1.13126e-09 -0.0190977)
(0.0365445 -0.00537548 -5.69688e-11 -0.018902 2.94505e-09 -0.0190812)
(0.0365555 -0.00611035 -2.82743e-10 -0.0188098 -1.26868e-10 -0.0190417)
(0.0365758 -0.00671602 -1.17367e-10 -0.0186712 -3.41472e-09 -0.0190132)
(0.0365911 -0.00711945 2.02852e-10 -0.0185161 -2.41123e-10 -0.0189588)
(0.0366181 -0.00728332 -2.40554e-11 -0.0183211 2.9953e-09 -0.0189123)
(0.0366355 -0.0071602 -3.42042e-10 -0.0180715 -9.87902e-10 -0.0188403)
(0.0366614 -0.00665116 5.11697e-11 -0.0177613 -3.03383e-09 -0.0187677)
(0.0366795 -0.00577299 2.94658e-10 -0.0173012 7.6106e-10 -0.0186677)
(0.0366987 -0.00444056 -3.50296e-11 -0.0167533 2.97305e-09 -0.0185488)
(0.0367105 -0.00273837 -2.62286e-10 -0.0159882 2.03618e-10 -0.0184012)
(0.0367179 -0.00122255 -1.51807e-10 -0.0155117 -1.00243e-09 -0.0182162)
(0.0365048 -0.000794024 -2.58895e-11 -0.0191554 -1.144e-09 -0.0191383)
(0.0365759 -0.00157129 -7.90121e-11 -0.0191631 1.97017e-10 -0.0191864)
(0.0365797 -0.00265248 -4.29529e-11 -0.0191365 -5.5819e-10 -0.0191673)
(0.0365891 -0.00360639 5.22248e-11 -0.0190828 -1.4967e-09 -0.0191603)
(0.0365969 -0.00453928 1.4674e-10 -0.0190294 1.13333e-09 -0.0191328)
(0.0366122 -0.00538541 -5.70669e-11 -0.018937 2.95054e-09 -0.0191164)
(0.0366233 -0.00612174 -2.82778e-10 -0.0188447 -1.27056e-10 -0.0190768)
(0.0366442 -0.00672794 -1.17907e-10 -0.0187059 -3.42111e-09 -0.0190484)
(0.0366594 -0.0071324 2.02143e-10 -0.0185504 -2.416e-10 -0.0189938)
(0.036687 -0.00729566 -2.41161e-11 -0.0183557 3.0009e-09 -0.0189473)
(0.0367048 -0.00717111 -3.41674e-10 -0.0181061 -9.89751e-10 -0.0188752)
(0.0367312 -0.00666106 5.15316e-11 -0.0177957 -3.03952e-09 -0.0188026)
(0.0367496 -0.00578104 2.94531e-10 -0.0173352 7.62486e-10 -0.0187026)
(0.0367691 -0.00444693 -3.5037e-11 -0.0167865 2.97866e-09 -0.0185836)
(0.0367812 -0.00274151 -2.6248e-10 -0.0160208 2.04098e-10 -0.0184358)
(0.0367886 -0.00122436 -1.51922e-10 -0.0155442 -1.00439e-09 -0.0182507)
(0.0365713 -0.000796063 -2.59552e-11 -0.0191906 -1.14602e-09 -0.0191734)
(0.0366421 -0.00157455 -7.91437e-11 -0.0191979 1.97409e-10 -0.0192213)
(0.0366461 -0.00265813 -4.29865e-11 -0.0191715 -5.59192e-10 -0.0192021)
(0.0366558 -0.00361343 5.22901e-11 -0.0191177 -1.49945e-09 -0.0191953)
(0.0366638 -0.00454847 1.46707e-10 -0.0190644 1.13537e-09 -0.0191677)
(0.0366796 -0.00539555 -5.71682e-11 -0.0189718 2.956e-09 -0.0191514)
(0.0366908 -0.00613338 -2.8279e-10 -0.0188795 -1.27231e-10 -0.0191117)
(0.0367124 -0.00674006 -1.18475e-10 -0.0187406 -3.42747e-09 -0.0190833)
(0.0367275 -0.00714558 2.01347e-10 -0.0185847 -2.42077e-10 -0.0190287)
(0.0367558 -0.00730834 -2.41807e-11 -0.0183902 3.00647e-09 -0.0189822)
(0.0367741 -0.00718233 -3.41297e-10 -0.0181407 -9.91588e-10 -0.01891)
(0.036801 -0.00667123 5.19008e-11 -0.01783 -3.04519e-09 -0.0188374)
(0.0368198 -0.00578932 2.94405e-10 -0.0173692 7.63898e-10 -0.0187373)
(0.0368397 -0.00445348 -3.50451e-11 -0.0168198 2.98426e-09 -0.0186183)
(0.0368518 -0.00274477 -2.62681e-10 -0.0160534 2.04581e-10 -0.0184703)
(0.0368594 -0.0012262 -1.52043e-10 -0.0155768 -1.00635e-09 -0.0182851)
(0.0366375 -0.000798142 -2.60139e-11 -0.0192256 -1.14802e-09 -0.0192083)
(0.0367076 -0.00157799 -7.92761e-11 -0.0192325 1.97795e-10 -0.0192559)
(0.036712 -0.00266403 -4.30244e-11 -0.0192063 -5.60186e-10 -0.0192367)
(0.036722 -0.0036207 5.23563e-11 -0.0191524 -1.50218e-09 -0.01923)
(0.0367302 -0.00455796 1.46664e-10 -0.0190991 1.1374e-09 -0.0192024)
(0.0367466 -0.00540604 -5.72734e-11 -0.0190065 2.96142e-09 -0.0191861)
(0.0367581 -0.00614538 -2.82778e-10 -0.0189142 -1.27402e-10 -0.0191463)
(0.0367804 -0.00675253 -1.19077e-10 -0.0187751 -3.43379e-09 -0.019118)
(0.0367952 -0.00715904 2.00452e-10 -0.0186188 -2.4256e-10 -0.0190633)
(0.0368243 -0.0073214 -2.42454e-11 -0.0184246 3.01201e-09 -0.0190168)
(0.0368433 -0.00719394 -3.40948e-10 -0.0181754 -9.93406e-10 -0.0189447)
(0.0368707 -0.0066817 5.22733e-11 -0.0178644 -3.05084e-09 -0.018872)
(0.03689 -0.00579791 2.94287e-10 -0.0174032 7.65298e-10 -0.0187719)
(0.0369103 -0.00446025 -3.50524e-11 -0.0168531 2.98983e-09 -0.0186528)
(0.0369227 -0.00274818 -2.62877e-10 -0.0160861 2.05071e-10 -0.0185048)
(0.0369305 -0.00122812 -1.52172e-10 -0.0156096 -1.0083e-09 -0.0183195)
(0.0367029 -0.000800269 -2.60784e-11 -0.0192602 -1.15001e-09 -0.0192429)
(0.0367721 -0.00158155 -7.94372e-11 -0.0192666 1.98172e-10 -0.0192901)
(0.0367772 -0.00267015 -4.30773e-11 -0.0192408 -5.61163e-10 -0.0192709)
(0.0367876 -0.00362822 5.24193e-11 -0.0191868 -1.50488e-09 -0.0192643)
(0.036796 -0.00456773 1.46609e-10 -0.0191335 1.13942e-09 -0.0192367)
(0.036813 -0.00541693 -5.73783e-11 -0.0190409 2.96678e-09 -0.0192205)
(0.0368248 -0.00615774 -2.8274e-10 -0.0189486 -1.27601e-10 -0.0191807)
(0.0368481 -0.00676539 -1.19724e-10 -0.0188095 -3.44003e-09 -0.0191525)
(0.0368631 -0.00717266 1.9942e-10 -0.0186533 -2.43055e-10 -0.0190977)
(0.0368926 -0.00733485 -2.43133e-11 -0.0184591 3.01753e-09 -0.0190512)
(0.0369123 -0.00720593 -3.40616e-10 -0.0182099 -9.95152e-10 -0.0189791)
(0.0369405 -0.00669249 5.26514e-11 -0.0178988 -3.05644e-09 -0.0189065)
(0.0369602 -0.00580678 2.94176e-10 -0.0174373 7.66675e-10 -0.0188064)
(0.036981 -0.00446725 -3.50598e-11 -0.0168866 2.99538e-09 -0.0186872)
(0.0369937 -0.00275174 -2.63082e-10 -0.016119 2.05563e-10 -0.0185391)
(0.0370017 -0.0012301 -1.5231e-10 -0.0156425 -1.01025e-09 -0.0183537)
(0.0367675 -0.000802434 -2.61634e-11 -0.0192942 -1.15197e-09 -0.0192772)
(0.0368359 -0.00158523 -7.96112e-11 -0.0193005 1.98546e-10 -0.0193239)
(0.0368415 -0.00267655 -4.31462e-11 -0.0192749 -5.62136e-10 -0.0193047)
(0.0368525 -0.00363595 5.2485e-11 -0.019221 -1.50755e-09 -0.0192983)
(0.036861 -0.00457772 1.46515e-10 -0.0191675 1.14145e-09 -0.0192707)
(0.0368789 -0.00542814 -5.74909e-11 -0.0190751 2.97209e-09 -0.0192545)
(0.0368911 -0.00617047 -2.82676e-10 -0.0189826 -1.27882e-10 -0.0192148)
(0.0369154 -0.00677874 -1.20388e-10 -0.0188438 -3.44616e-09 -0.0191865)
(0.0369316 -0.00718647 1.9853e-10 -0.0186883 -2.43486e-10 -0.0191319)
(0.0369608 -0.00734862 -2.43771e-11 -0.0184936 3.02301e-09 -0.0190855)
(0.0369812 -0.00721834 -3.40306e-10 -0.0182443 -9.96853e-10 -0.0190133)
(0.0370101 -0.00670372 5.30391e-11 -0.0179333 -3.06201e-09 -0.0189408)
(0.0370304 -0.00581598 2.94067e-10 -0.0174714 7.68027e-10 -0.0188406)
(0.037052 -0.00447453 -3.5067e-11 -0.0169201 3.00091e-09 -0.0187215)
(0.0370649 -0.00275544 -2.63284e-10 -0.016152 2.06058e-10 -0.0185732)
(0.0370733 -0.00123216 -1.52457e-10 -0.0156756 -1.01219e-09 -0.0183878)
(0.0368313 -0.00080454 -2.62022e-11 -0.019328 -1.15391e-09 -0.0193112)
(0.0368992 -0.00158904 -7.97922e-11 -0.0193341 1.98922e-10 -0.0193576)
(0.036905 -0.00268319 -4.32159e-11 -0.0193085 -5.63112e-10 -0.0193384)
(0.0369164 -0.00364391 5.25451e-11 -0.0192547 -1.51019e-09 -0.019332)
(0.0369253 -0.00458806 1.46402e-10 -0.0192012 1.14351e-09 -0.0193044)
(0.036944 -0.00543968 -5.76076e-11 -0.0191091 2.97735e-09 -0.0192882)
(0.0369568 -0.00618366 -2.82605e-10 -0.0190165 -1.28193e-10 -0.0192486)
(0.036982 -0.00679264 -1.21051e-10 -0.0188779 -3.45223e-09 -0.0192203)
(0.0369996 -0.00720075 1.97839e-10 -0.0187232 -2.43865e-10 -0.0191658)
(0.0370289 -0.00736275 -2.44364e-11 -0.018528 3.02845e-09 -0.0191195)
(0.0370501 -0.0072312 -3.39991e-10 -0.0182788 -9.98604e-10 -0.0190473)
(0.0370798 -0.00671543 5.34287e-11 -0.0179676 -3.06757e-09 -0.0189749)
(0.0371008 -0.00582559 2.9396e-10 -0.0175056 7.69387e-10 -0.0188747)
(0.0371231 -0.00448214 -3.50742e-11 -0.0169539 3.00642e-09 -0.0187556)
(0.0371366 -0.00275934 -2.63509e-10 -0.0161852 2.06542e-10 -0.0186073)
(0.0371452 -0.00123429 -1.52614e-10 -0.0157089 -1.01413e-09 -0.0184218)
(0.0368944 -0.000806707 -2.62948e-11 -0.0193617 -1.15584e-09 -0.0193448)
(0.0369615 -0.00159297 -7.99814e-11 -0.0193674 1.99293e-10 -0.0193908)
(0.0369675 -0.00269009 -4.32809e-11 -0.0193418 -5.64078e-10 -0.0193716)
(0.0369795 -0.00365212 5.26132e-11 -0.0192882 -1.51279e-09 -0.0193652)
(0.0369889 -0.0045988 1.46284e-10 -0.0192346 1.14555e-09 -0.0193377)
(0.0370085 -0.0054516 -5.77309e-11 -0.0191429 2.98255e-09 -0.0193216)
(0.037022 -0.00619733 -2.8254e-10 -0.0190502 -1.28509e-10 -0.0192821)
(0.0370482 -0.00680712 -1.21724e-10 -0.0189118 -3.45825e-09 -0.0192537)
(0.0370669 -0.00721557 1.9723e-10 -0.0187577 -2.44248e-10 -0.0191994)
(0.0370969 -0.00737731 -2.44968e-11 -0.0185625 3.03385e-09 -0.0191532)
(0.0371191 -0.00724459 -3.39716e-10 -0.0183134 -1.00037e-09 -0.0190811)
(0.0371495 -0.00672762 5.38152e-11 -0.0180022 -3.07309e-09 -0.0190088)
(0.0371715 -0.00583566 2.93873e-10 -0.01754 7.70739e-10 -0.0189087)
(0.0371947 -0.00449012 -3.50817e-11 -0.0169878 3.0119e-09 -0.0187896)
(0.0372086 -0.00276352 -2.63748e-10 -0.0162186 2.07021e-10 -0.0186412)
(0.0372176 -0.00123652 -1.52783e-10 -0.0157424 -1.01606e-09 -0.0184557)
(0.0369566 -0.000808928 -2.63654e-11 -0.0193949 -1.15774e-09 -0.019378)
(0.0370227 -0.00159703 -8.01759e-11 -0.0194003 1.99659e-10 -0.0194237)
(0.037029 -0.00269723 -4.3352e-11 -0.0193747 -5.65034e-10 -0.0194046)
(0.0370416 -0.00366061 5.26831e-11 -0.0193213 -1.51537e-09 -0.0193982)
(0.0370516 -0.00460992 1.4616e-10 -0.0192678 1.14758e-09 -0.0193708)
(0.0370721 -0.005464 -5.786e-11 -0.0191764 2.98771e-09 -0.0193546)
(0.0370865 -0.00621151 -2.82496e-10 -0.0190837 -1.28825e-10 -0.0193153)
(0.0371136 -0.00682223 -1.22404e-10 -0.0189455 -3.46422e-09 -0.0192869)
(0.0371334 -0.00723101 1.96674e-10 -0.018792 -2.44628e-10 -0.0192327)
(0.0371645 -0.00739244 -2.4557e-11 -0.0185969 3.0392e-09 -0.0191867)
(0.0371878 -0.00725863 -3.39477e-10 -0.0183481 -1.00216e-09 -0.0191147)
(0.0372193 -0.00674045 5.42016e-11 -0.0180367 -3.07858e-09 -0.0190425)
(0.0372424 -0.00584638 2.93803e-10 -0.0175746 7.72102e-10 -0.0189424)
(0.0372665 -0.00449861 -3.50892e-11 -0.0170219 3.01736e-09 -0.0188234)
(0.0372811 -0.00276804 -2.63995e-10 -0.0162522 2.07501e-10 -0.018675)
(0.0372906 -0.00123888 -1.52971e-10 -0.0157762 -1.01799e-09 -0.0184894)
(0.0370177 -0.000811219 -2.64214e-11 -0.0194278 -1.15962e-09 -0.0194109)
(0.0370827 -0.00160119 -8.03778e-11 -0.0194329 2.00021e-10 -0.0194563)
(0.0370894 -0.00270462 -4.34152e-11 -0.0194073 -5.65981e-10 -0.0194372)
(0.0371026 -0.00366944 5.27532e-11 -0.0193542 -1.51792e-09 -0.0194308)
(0.0371132 -0.00462148 1.46028e-10 -0.0193006 1.14959e-09 -0.0194035)
(0.0371346 -0.00547694 -5.79953e-11 -0.0192095 2.99282e-09 -0.0193873)
(0.0371499 -0.00622627 -2.82468e-10 -0.0191169 -1.29137e-10 -0.0193482)
(0.0371781 -0.00683803 -1.23101e-10 -0.0189788 -3.47013e-09 -0.0193198)
(0.0371993 -0.00724712 1.96127e-10 -0.0188259 -2.45013e-10 -0.0192657)
(0.0372316 -0.00740827 -2.46195e-11 -0.0186312 3.0445e-09 -0.0192198)
(0.0372563 -0.00727336 -3.39279e-10 -0.0183828 -1.00394e-09 -0.019148)
(0.037289 -0.00675391 5.45862e-11 -0.0180714 -3.08404e-09 -0.0190759)
(0.0373134 -0.0058577 2.93759e-10 -0.0176094 7.73465e-10 -0.0189759)
(0.0373387 -0.00450759 -3.50961e-11 -0.0170562 3.02278e-09 -0.018857)
(0.0373542 -0.00277291 -2.64267e-10 -0.0162863 2.07982e-10 -0.0187086)
(0.0373645 -0.00124136 -1.53175e-10 -0.0158104 -1.01991e-09 -0.0185231)
(0.0370776 -0.000813583 -2.65117e-11 -0.0194604 -1.16148e-09 -0.0194435)
(0.0371415 -0.00160548 -8.05814e-11 -0.0194652 2.00381e-10 -0.0194886)
(0.0371485 -0.00271227 -4.34783e-11 -0.0194396 -5.6692e-10 -0.0194695)
(0.0371624 -0.00367857 5.28282e-11 -0.0193867 -1.52044e-09 -0.0194631)
(0.0371735 -0.00463344 1.45891e-10 -0.019333 1.15158e-09 -0.0194359)
(0.037196 -0.00549036 -5.81363e-11 -0.0192423 2.99787e-09 -0.0194197)
(0.0372123 -0.00624155 -2.82461e-10 -0.0191497 -1.29452e-10 -0.0193807)
(0.0372418 -0.00685446 -1.23809e-10 -0.0190118 -3.47598e-09 -0.0193523)
(0.0372643 -0.0072639 1.95602e-10 -0.0188597 -2.45387e-10 -0.0192984)
(0.0372982 -0.00742478 -2.4686e-11 -0.0186653 3.04976e-09 -0.0192526)
(0.0373246 -0.00728877 -3.39118e-10 -0.0184174 -1.00571e-09 -0.019181)
(0.0373588 -0.00676802 5.49758e-11 -0.0181063 -3.08946e-09 -0.019109)
(0.0373847 -0.00586963 2.93736e-10 -0.0176444 7.74823e-10 -0.0190092)