/*--------------------------------*- C++ -*----------------------------------*\
| =========                 |                                                 |
| \\      /  F ield         | foam-extend: Open Source CFD                    |
|  \\    /   O peration     | Version:     4.1-20200408                       |
|   \\  /    A nd           | Web:         http://www.foam-extend.org         |
|    \\/     M anipulation  |                                                 |
\*---------------------------------------------------------------------------*/
FoamFile
{
    version     2.0;
    format      ascii;
    class       volSymmTensorField;
    location    "0.0435000";
    object      sigmaCauchy;
}
// * * * * * * * * * * * * * * * * * * * * * * * * * * * * * * * * * * * * * //

dimensions      [1 -1 -2 0 0 0 0];

internalField   nonuniform List<symmTensor> 
1952
(
(-6.72125e+08 310275 -4.39689 -2.46731e+08 -0.934938 -2.43004e+08)
(-6.4617e+08 -405746 -3.04559 -2.44936e+08 2.6067 -2.32093e+08)
(-6.19342e+08 334647 3.15432 -2.37376e+08 7.31515 -2.15225e+08)
(-5.80693e+08 -437514 9.18186 -2.31871e+08 -7.56745 -1.95307e+08)
(-5.32297e+08 399417 -2.78501 -2.21511e+08 -19.4545 -1.70775e+08)
(-4.71534e+08 -253145 -13.9376 -2.13014e+08 1.90589 -1.44167e+08)
(-3.96762e+08 589470 -3.27215 -2.00289e+08 28.6859 -1.14972e+08)
(-2.99604e+08 176492 7.36446 -1.89625e+08 -1.68817 -8.31018e+07)
(-1.8918e+08 1.05134e+06 -1.48347 -1.74639e+08 -30.7882 -4.91906e+07)
(-4.54465e+07 808818 -9.19269 -1.6204e+08 16.0319 -6.00475e+06)
(1.2794e+08 1.68197e+06 0.291123 -1.43679e+08 34.9157 3.30679e+07)
(3.78714e+08 1.84682e+06 5.41052 -1.29445e+08 -15.3731 9.66244e+07)
(6.89537e+08 3.00565e+06 -0.731573 -1.05425e+08 -32.1626 1.45277e+08)
(1.02477e+09 3.75562e+06 -8.48004 -8.92542e+07 14.6662 2.67159e+08)
(1.20246e+09 5.68411e+06 -2.09526 -5.32714e+07 11.4497 3.68914e+08)
(-6.79079e+08 -208619 -1.06196 -2.50392e+08 3.77681 -2.48981e+08)
(-6.71854e+08 754344 -8.80178 -2.44997e+08 -0.964585 -2.41136e+08)
(-6.46017e+08 -657004 -6.09551 -2.42954e+08 2.6143 -2.30124e+08)
(-6.19048e+08 958245 6.31341 -2.3532e+08 7.42501 -2.1307e+08)
(-5.80264e+08 -559650 18.3696 -2.29658e+08 -7.53252 -1.93131e+08)
(-5.31548e+08 1.25898e+06 -5.57276 -2.19074e+08 -19.656 -1.68315e+08)
(-4.70628e+08 -12180.1 -27.8815 -2.10463e+08 1.75489 -1.41661e+08)
(-3.9541e+08 1.83555e+06 -6.55175 -1.97449e+08 28.8974 -1.12154e+08)
(-2.97958e+08 1.08055e+06 14.72 -1.86714e+08 -1.54331 -8.02257e+07)
(-1.87242e+08 3.02578e+06 -2.96789 -1.7146e+08 -31.003 -4.6011e+07)
(-4.32724e+07 2.58225e+06 -18.3546 -1.58918e+08 15.9866 -2.72819e+06)
(1.30738e+08 4.37868e+06 0.573631 -1.40409e+08 35.113 3.6598e+07)
(3.82097e+08 4.64425e+06 10.8091 -1.26476e+08 -15.3929 1.00201e+08)
(6.93401e+08 6.55826e+06 -1.46036 -1.02614e+08 -32.3867 1.49198e+08)
(1.02893e+09 6.95062e+06 -16.7681 -8.73421e+07 14.6532 2.70899e+08)
(1.20736e+09 8.14805e+06 -4.01667 -5.21156e+07 11.5275 3.72599e+08)
(-6.78825e+08 -382507 -2.1272 -2.48465e+08 3.8273 -2.47164e+08)
(-6.7173e+08 858723 -8.80792 -2.43908e+08 -0.972575 -2.40019e+08)
(-6.45912e+08 -532371 -6.0987 -2.41821e+08 2.62809 -2.29004e+08)
(-6.18851e+08 1.20238e+06 6.31843 -2.34145e+08 7.47585 -2.11845e+08)
(-5.80007e+08 -311961 18.3726 -2.28469e+08 -7.56127 -1.91884e+08)
(-5.31111e+08 1.64167e+06 -5.57666 -2.17795e+08 -19.7578 -1.66951e+08)
(-4.70086e+08 393019 -27.8867 -2.09202e+08 1.75481 -1.40271e+08)
(-3.94592e+08 2.36789e+06 -6.55975 -1.96082e+08 29.0173 -1.10649e+08)
(-2.96882e+08 1.69326e+06 14.7275 -1.85425e+08 -1.54944 -7.86984e+07)
(-1.86098e+08 3.72444e+06 -2.96855 -1.70123e+08 -31.1285 -4.42523e+07)
(-4.20901e+07 3.28797e+06 -18.2977 -1.57763e+08 16.03 -1.0019e+06)
(1.32227e+08 5.09658e+06 0.574117 -1.39277e+08 35.2288 3.83517e+07)
(3.83719e+08 5.34589e+06 10.777 -1.25675e+08 -15.4378 1.01835e+08)
(6.94918e+08 7.17736e+06 -1.45931 -1.0201e+08 -32.4996 1.50868e+08)
(1.03001e+09 7.42731e+06 -16.7171 -8.71405e+07 14.6563 2.72343e+08)
(1.20703e+09 8.2926e+06 -4.01087 -5.21619e+07 11.5608 3.7363e+08)
(-6.78707e+08 -360141 -2.12922 -2.47347e+08 3.85898 -2.4607e+08)
(-6.71374e+08 989002 -8.81138 -2.42977e+08 -0.979487 -2.39051e+08)
(-6.45624e+08 -389878 -6.0966 -2.40837e+08 2.64604 -2.27912e+08)
(-6.18503e+08 1.42556e+06 6.3227 -2.33141e+08 7.5185 -2.10741e+08)
(-5.79563e+08 -76200.6 18.3695 -2.2746e+08 -7.60322 -1.9073e+08)
(-5.30514e+08 1.97821e+06 -5.58019 -2.16762e+08 -19.8445 -1.65758e+08)
(-4.69389e+08 751569 -27.8795 -2.08218e+08 1.76963 -1.39053e+08)
(-3.9366e+08 2.80858e+06 -6.57363 -1.95096e+08 29.1069 -1.09403e+08)
(-2.95791e+08 2.13787e+06 14.6717 -1.84551e+08 -1.57066 -7.74815e+07)
(-1.8501e+08 4.19605e+06 -2.97202 -1.69319e+08 -31.2208 -4.29456e+07)
(-4.09338e+07 3.77407e+06 -18.2446 -1.57069e+08 16.0754 324739)
(1.33575e+08 5.53393e+06 0.579796 -1.38699e+08 35.3139 3.96389e+07)
(3.85251e+08 5.74079e+06 10.7573 -1.25259e+08 -15.4639 1.03058e+08)
(6.96338e+08 7.48106e+06 -1.45817 -1.01744e+08 -32.5708 1.52054e+08)
(1.03105e+09 7.527e+06 -16.6745 -8.70665e+07 14.6677 2.73491e+08)
(1.20739e+09 8.26631e+06 -4.02208 -5.21475e+07 11.5839 3.74632e+08)
(-6.78398e+08 -333287 -2.13142 -2.46378e+08 3.88289 -2.45116e+08)
(-6.70931e+08 1.06124e+06 -8.82329 -2.4224e+08 -0.984208 -2.38289e+08)
(-6.45253e+08 -296764 -6.10549 -2.40094e+08 2.65915 -2.27081e+08)
(-6.18058e+08 1.61258e+06 6.32785 -2.3238e+08 7.54966 -2.09875e+08)
(-5.79028e+08 124495 18.3699 -2.26716e+08 -7.63452 -1.89825e+08)
(-5.29826e+08 2.23417e+06 -5.58413 -2.16016e+08 -19.9075 -1.64816e+08)
(-4.68585e+08 1.02102e+06 -27.8771 -2.0752e+08 1.77953 -1.38088e+08)
(-3.92661e+08 3.10644e+06 -6.58763 -1.94425e+08 29.1694 -1.08426e+08)
(-2.9456e+08 2.46366e+06 14.6497 -1.83972e+08 -1.58936 -7.65103e+07)
(-1.83775e+08 4.54983e+06 -2.9739 -1.68777e+08 -31.2754 -4.19785e+07)
(-3.97102e+07 4.10518e+06 -18.1914 -1.56682e+08 16.124 1.25342e+06)
(1.34964e+08 5.78918e+06 0.58765 -1.38383e+08 35.3652 4.05248e+07)
(3.86754e+08 5.95947e+06 10.7321 -1.25117e+08 -15.4965 1.03868e+08)
(6.97552e+08 7.54492e+06 -1.45718 -1.01689e+08 -32.6201 1.52949e+08)
(1.03188e+09 7.54196e+06 -16.6375 -8.71228e+07 14.6745 2.74332e+08)
(1.20747e+09 8.21163e+06 -4.03339 -5.21565e+07 11.6002 3.75372e+08)
(-6.77981e+08 -308281 -2.13383 -2.45628e+08 3.89918 -2.44368e+08)
(-6.70403e+08 1.15372e+06 -8.82794 -2.4171e+08 -0.985639 -2.3776e+08)
(-6.44758e+08 -192656 -6.10347 -2.39591e+08 2.66638 -2.26534e+08)
(-6.17498e+08 1.7693e+06 6.3327 -2.31862e+08 7.56436 -2.09297e+08)
(-5.78403e+08 282430 18.3655 -2.26254e+08 -7.65793 -1.89218e+08)
(-5.2907e+08 2.44335e+06 -5.58906 -2.15543e+08 -19.9389 -1.64188e+08)
(-4.67731e+08 1.22961e+06 -27.8704 -2.07121e+08 1.79532 -1.37447e+08)
(-3.91591e+08 3.33e+06 -6.60485 -1.94028e+08 29.1903 -1.07776e+08)
(-2.93288e+08 2.69181e+06 14.6118 -1.83674e+08 -1.62266 -7.58719e+07)
(-1.82601e+08 4.71131e+06 -2.97728 -1.68522e+08 -31.3179 -4.1213e+07)
(-3.85503e+07 4.25981e+06 -18.1236 -1.56536e+08 16.1487 2.00276e+06)
(1.3625e+08 5.84953e+06 0.602188 -1.38277e+08 35.4022 4.12391e+07)
(3.88152e+08 5.98838e+06 10.6951 -1.25118e+08 -15.513 1.04535e+08)
(6.98744e+08 7.49966e+06 -1.45637 -1.01708e+08 -32.6474 1.53626e+08)
(1.03273e+09 7.48687e+06 -16.6025 -8.7168e+07 14.6939 2.75063e+08)
(1.20774e+09 8.14099e+06 -4.04442 -5.21717e+07 11.611 3.76048e+08)
(-6.77493e+08 -290497 -2.13519 -2.4512e+08 3.90695 -2.43849e+08)
(-6.69737e+08 1.21221e+06 -8.83753 -2.41388e+08 -0.988256 -2.37397e+08)
(-6.44212e+08 -142638 -6.10809 -2.39247e+08 2.67375 -2.26057e+08)
(-6.16902e+08 1.87165e+06 6.33798 -2.31514e+08 7.57537 -2.08827e+08)
(-5.77716e+08 373969 18.3647 -2.25927e+08 -7.67788 -1.88713e+08)
(-5.28256e+08 2.56854e+06 -5.59354 -2.15232e+08 -19.9613 -1.63676e+08)
(-4.66824e+08 1.34697e+06 -27.8631 -2.06864e+08 1.80673 -1.36923e+08)
(-3.90521e+08 3.44663e+06 -6.62326 -1.93807e+08 29.2016 -1.07265e+08)
(-2.92053e+08 2.78782e+06 14.562 -1.83534e+08 -1.64635 -7.53813e+07)
(-1.81427e+08 4.78328e+06 -2.98073 -1.68423e+08 -31.332 -4.07244e+07)
(-3.7399e+07 4.31339e+06 -18.0696 -1.56501e+08 16.1776 2.49921e+06)
(1.37493e+08 5.82261e+06 0.616387 -1.3828e+08 35.4168 4.17041e+07)
(3.89546e+08 5.95544e+06 10.6748 -1.25161e+08 -15.5286 1.04998e+08)
(6.99852e+08 7.37985e+06 -1.45531 -1.01758e+08 -32.662 1.54177e+08)
(1.03354e+09 7.3816e+06 -16.5676 -8.72428e+07 14.7121 2.75686e+08)
(1.20805e+09 8.0497e+06 -4.05592 -5.21779e+07 11.6182 3.76652e+08)
(-6.76873e+08 -278836 -2.13824 -2.44764e+08 3.90676 -2.43501e+08)
(-6.69091e+08 1.24597e+06 -8.84643 -2.41222e+08 -0.987603 -2.37227e+08)
(-6.43614e+08 -127605 -6.11153 -2.39111e+08 2.67467 -2.25869e+08)
(-6.16245e+08 1.93484e+06 6.34322 -2.31361e+08 7.57318 -2.08606e+08)
(-5.77009e+08 408479 18.3588 -2.2582e+08 -7.68623 -1.88472e+08)
(-5.27434e+08 2.62376e+06 -5.59894 -2.15117e+08 -19.959 -1.63412e+08)
(-4.65923e+08 1.37093e+06 -27.8543 -2.06802e+08 1.81748 -1.36644e+08)
(-3.89451e+08 3.45969e+06 -6.64414 -1.93742e+08 29.1874 -1.06974e+08)
(-2.90786e+08 2.79772e+06 14.5297 -1.8353e+08 -1.6749 -7.50814e+07)
(-1.80291e+08 4.74294e+06 -2.98387 -1.68409e+08 -31.3406 -4.0316e+07)
(-3.63204e+07 4.2657e+06 -17.9945 -1.5658e+08 16.1945 2.88645e+06)
(1.38673e+08 5.70862e+06 0.636009 -1.38335e+08 35.4243 4.2081e+07)
(3.90843e+08 5.85539e+06 10.634 -1.25302e+08 -15.5456 1.05353e+08)
(7.00936e+08 7.19939e+06 -1.4543 -1.01856e+08 -32.6706 1.54661e+08)
(1.03439e+09 7.28398e+06 -16.5364 -8.73379e+07 14.7319 2.76249e+08)
(1.20852e+09 7.97589e+06 -4.06439 -5.21727e+07 11.623 3.77237e+08)
(-6.76258e+08 -279454 -2.13967 -2.44617e+08 3.90113 -2.43342e+08)
(-6.68369e+08 1.27684e+06 -8.85322 -2.41196e+08 -0.987224 -2.37178e+08)
(-6.43009e+08 -128844 -6.11209 -2.39073e+08 2.6758 -2.2573e+08)
(-6.15599e+08 1.95919e+06 6.34807 -2.31307e+08 7.568 -2.08466e+08)
(-5.763e+08 398543 18.3546 -2.25796e+08 -7.69584 -1.88297e+08)
(-5.2662e+08 2.64221e+06 -5.60385 -2.15081e+08 -19.9515 -1.63227e+08)
(-4.6504e+08 1.36705e+06 -27.8427 -2.06818e+08 1.83187 -1.36441e+08)
(-3.88404e+08 3.44996e+06 -6.66509 -1.93746e+08 29.1642 -1.06765e+08)
(-2.89596e+08 2.76679e+06 14.471 -1.83605e+08 -1.71 -7.48808e+07)
(-1.79197e+08 4.63133e+06 -2.98784 -1.68488e+08 -31.3424 -4.00055e+07)
(-3.52508e+07 4.1531e+06 -17.9323 -1.56682e+08 16.2112 3.23299e+06)
(1.3983e+08 5.526e+06 0.654866 -1.38422e+08 35.4281 4.24188e+07)
(3.92149e+08 5.6922e+06 10.6021 -1.25411e+08 -15.5575 1.05704e+08)
(7.02016e+08 7.02788e+06 -1.45321 -1.01923e+08 -32.6687 1.55062e+08)
(1.03531e+09 7.19756e+06 -16.4979 -8.7393e+07 14.7626 2.76771e+08)
(1.20903e+09 7.89502e+06 -4.07257 -5.21849e+07 11.625 3.77775e+08)
(-6.75584e+08 -286792 -2.14295 -2.44578e+08 3.89024 -2.43305e+08)
(-6.67687e+08 1.28228e+06 -8.86427 -2.41249e+08 -0.986833 -2.37203e+08)
(-6.42408e+08 -171051 -6.11725 -2.3912e+08 2.67586 -2.2567e+08)
(-6.14947e+08 1.95159e+06 6.35293 -2.31331e+08 7.56071 -2.08391e+08)
(-5.75592e+08 344593 18.3465 -2.25836e+08 -7.70122 -1.88188e+08)
(-5.25796e+08 2.59222e+06 -5.6092 -2.15116e+08 -19.9399 -1.63094e+08)
(-4.64159e+08 1.27773e+06 -27.8276 -2.06885e+08 1.84032 -1.36289e+08)
(-3.87376e+08 3.33627e+06 -6.68928 -1.93828e+08 29.1416 -1.06606e+08)
(-2.88437e+08 2.62563e+06 14.4129 -1.83726e+08 -1.72782 -7.47291e+07)
(-1.78183e+08 4.47375e+06 -2.99192 -1.68613e+08 -31.3311 -3.98339e+07)
(-3.42654e+07 4.00409e+06 -17.8581 -1.56825e+08 16.2229 3.42852e+06)
(1.40914e+08 5.32303e+06 0.678287 -1.38548e+08 35.4183 4.26213e+07)
(3.93435e+08 5.53662e+06 10.5697 -1.2554e+08 -15.5649 1.05941e+08)
(7.03151e+08 6.82674e+06 -1.45191 -1.01999e+08 -32.6618 1.55436e+08)
(1.03624e+09 7.07752e+06 -16.4641 -8.74837e+07 14.7876 2.77273e+08)
(1.20969e+09 7.81432e+06 -4.07983 -5.21757e+07 11.6262 3.78333e+08)
(-6.74939e+08 -298891 -2.14566 -2.44618e+08 3.87773 -2.43347e+08)
(-6.67004e+08 1.2696e+06 -8.87299 -2.41385e+08 -0.984013 -2.3734e+08)
(-6.41839e+08 -231341 -6.12041 -2.39282e+08 2.67198 -2.25789e+08)
(-6.14332e+08 1.91931e+06 6.35747 -2.3147e+08 7.54589 -2.08477e+08)
(-5.74943e+08 252875 18.3378 -2.26015e+08 -7.70129 -1.88246e+08)
(-5.25052e+08 2.51647e+06 -5.61447 -2.15272e+08 -19.9148 -1.63126e+08)
(-4.63363e+08 1.14892e+06 -27.8101 -2.07072e+08 1.85059 -1.36299e+08)
(-3.86428e+08 3.19892e+06 -6.71497 -1.93987e+08 29.1029 -1.06593e+08)
(-2.87319e+08 2.47915e+06 14.363 -1.83905e+08 -1.75455 -7.46968e+07)
(-1.77142e+08 4.27126e+06 -2.99533 -1.68749e+08 -31.3165 -3.96837e+07)
(-3.32697e+07 3.82115e+06 -17.7858 -1.57017e+08 16.2363 3.59506e+06)
(1.4202e+08 5.09361e+06 0.699614 -1.38675e+08 35.4083 4.28068e+07)
(3.94717e+08 5.36629e+06 10.5322 -1.25722e+08 -15.5838 1.06153e+08)
(7.04237e+08 6.61998e+06 -1.45063 -1.021e+08 -32.6565 1.55808e+08)
(1.03727e+09 6.99959e+06 -16.4237 -8.75752e+07 14.818 2.77766e+08)
(1.21042e+09 7.73968e+06 -4.0859 -5.21697e+07 11.6266 3.78898e+08)
(-6.74289e+08 -321362 -2.14969 -2.44773e+08 3.86184 -2.43491e+08)
(-6.66397e+08 1.26029e+06 -8.87975 -2.41594e+08 -0.982227 -2.37531e+08)
(-6.41299e+08 -305369 -6.11957 -2.39484e+08 2.66957 -2.25898e+08)
(-6.1375e+08 1.8556e+06 6.36204 -2.31646e+08 7.53125 -2.08576e+08)
(-5.74312e+08 125609 18.3271 -2.26212e+08 -7.70362 -1.88307e+08)
(-5.24312e+08 2.40818e+06 -5.62005 -2.15444e+08 -19.8901 -1.63163e+08)
(-4.6258e+08 1e+06 -27.7888 -2.07276e+08 1.86254 -1.36315e+08)
(-3.85471e+08 3.0462e+06 -6.74245 -1.94162e+08 29.0633 -1.06585e+08)
(-2.86261e+08 2.31069e+06 14.2904 -1.84111e+08 -1.78137 -7.46928e+07)
(-1.76221e+08 4.03297e+06 -2.99981 -1.68937e+08 -31.3071 -3.95433e+07)
(-3.2345e+07 3.60967e+06 -17.7054 -1.57201e+08 16.2382 3.7836e+06)
(1.4307e+08 4.83845e+06 0.724925 -1.38817e+08 35.3989 4.30204e+07)
(3.96e+08 5.17286e+06 10.4924 -1.25863e+08 -15.5874 1.06413e+08)
(7.05438e+08 6.43846e+06 -1.44942 -1.02177e+08 -32.644 1.56151e+08)
(1.03834e+09 6.91274e+06 -16.3836 -8.76461e+07 14.85 2.78269e+08)
(1.21125e+09 7.66922e+06 -4.09112 -5.21779e+07 11.6258 3.79455e+08)
(-6.73727e+08 -348592 -2.15091 -2.4498e+08 3.84489 -2.43697e+08)
(-6.65799e+08 1.22817e+06 -8.89061 -2.41833e+08 -0.980722 -2.37746e+08)
(-6.40839e+08 -409442 -6.12457 -2.39711e+08 2.66762 -2.26024e+08)
(-6.13246e+08 1.77641e+06 6.36614 -2.31841e+08 7.51837 -2.08684e+08)
(-5.73759e+08 -23960.7 18.3137 -2.26419e+08 -7.70575 -1.88379e+08)
(-5.23647e+08 2.26993e+06 -5.62536 -2.15626e+08 -19.8685 -1.63206e+08)
(-4.61869e+08 805413 -27.7609 -2.07477e+08 1.87226 -1.36331e+08)
(-3.84599e+08 2.85201e+06 -6.77362 -1.94353e+08 29.0303 -1.06577e+08)
(-2.85271e+08 2.09445e+06 14.2092 -1.84312e+08 -1.79971 -7.46776e+07)
(-1.75287e+08 3.78117e+06 -3.00393 -1.69111e+08 -31.2862 -3.94871e+07)
(-3.1406e+07 3.39802e+06 -17.6317 -1.57395e+08 16.2535 3.88325e+06)
(1.44144e+08 4.58855e+06 0.747516 -1.38965e+08 35.383 4.31463e+07)
(3.97333e+08 5.00433e+06 10.4642 -1.26014e+08 -15.6017 1.06602e+08)
(7.0661e+08 6.23805e+06 -1.44788 -1.02262e+08 -32.6347 1.56519e+08)
(1.03947e+09 6.8244e+06 -16.3425 -8.77383e+07 14.8807 2.78795e+08)
(1.21216e+09 7.59892e+06 -4.09559 -5.2171e+07 11.6253 3.8006e+08)
(-6.73167e+08 -378231 -2.15456 -2.45208e+08 3.82733 -2.43927e+08)
(-6.65339e+08 1.1908e+06 -8.89829 -2.42082e+08 -0.977813 -2.37995e+08)
(-6.40425e+08 -520530 -6.12522 -2.39984e+08 2.66293 -2.26254e+08)
(-6.1278e+08 1.67779e+06 6.36998 -2.32086e+08 7.50136 -2.08878e+08)
(-5.73251e+08 -201699 18.2981 -2.267e+08 -7.70428 -1.8854e+08)
(-5.23027e+08 2.11191e+06 -5.63108 -2.15873e+08 -19.8393 -1.63332e+08)
(-4.61197e+08 583945 -27.7309 -2.07757e+08 1.88294 -1.36435e+08)
(-3.83735e+08 2.64482e+06 -6.807 -1.94587e+08 28.9866 -1.06642e+08)
(-2.84322e+08 1.88837e+06 14.1365 -1.84555e+08 -1.82183 -7.47443e+07)
(-1.74425e+08 3.49741e+06 -3.00794 -1.69297e+08 -31.2748 -3.93773e+07)
(-3.05173e+07 3.15367e+06 -17.5439 -1.57626e+08 16.2561 4.02676e+06)
(1.4519e+08 4.32976e+06 0.773872 -1.39116e+08 35.3724 4.33317e+07)
(3.98643e+08 4.82142e+06 10.4174 -1.262e+08 -15.6133 1.06837e+08)
(7.07868e+08 6.04578e+06 -1.44646 -1.02365e+08 -32.6272 1.5692e+08)
(1.04067e+09 6.74827e+06 -16.3041 -8.78337e+07 14.9107 2.79355e+08)
(1.21315e+09 7.53329e+06 -4.09922 -5.21649e+07 11.625 3.80695e+08)
(-6.7274e+08 -415510 -2.15653 -2.45479e+08 3.81087 -2.44187e+08)
(-6.64896e+08 1.1465e+06 -8.90624 -2.42366e+08 -0.976439 -2.38254e+08)
(-6.40115e+08 -651574 -6.12602 -2.40246e+08 2.66158 -2.26411e+08)
(-6.12428e+08 1.55314e+06 6.37399 -2.32319e+08 7.4892 -2.09027e+08)
(-5.72832e+08 -407098 18.2815 -2.26946e+08 -7.70883 -1.88645e+08)
(-5.22489e+08 1.92405e+06 -5.63663 -2.1608e+08 -19.8191 -1.63408e+08)
(-4.60599e+08 345765 -27.6934 -2.08002e+08 1.89782 -1.36481e+08)
(-3.82918e+08 2.44276e+06 -6.84622 -1.94771e+08 28.9505 -1.06645e+08)
(-2.83462e+08 1.67784e+06 14.0139 -1.84779e+08 -1.85276 -7.47637e+07)
(-1.73603e+08 3.19071e+06 -3.0128 -1.69487e+08 -31.2646 -3.92757e+07)
(-2.95946e+07 2.90321e+06 -17.4709 -1.57819e+08 16.276 4.21527e+06)
(1.46279e+08 4.06196e+06 0.796646 -1.39253e+08 35.3677 4.35515e+07)
(4.00021e+08 4.63272e+06 10.3857 -1.26358e+08 -15.6337 1.07123e+08)
(7.09125e+08 5.86153e+06 -1.44497 -1.02455e+08 -32.6207 1.57334e+08)
(1.04193e+09 6.6828e+06 -16.2634 -8.79125e+07 14.9451 2.79903e+08)
(1.21421e+09 7.46779e+06 -4.10294 -5.21673e+07 11.6242 3.81321e+08)
(-6.72343e+08 -457205 -2.15726 -2.45749e+08 3.79392 -2.44461e+08)
(-6.6462e+08 1.08994e+06 -8.91596 -2.42611e+08 -0.975566 -2.38477e+08)
(-6.39887e+08 -799100 -6.12869 -2.40473e+08 2.65978 -2.26558e+08)
(-6.12138e+08 1.41532e+06 6.37762 -2.3252e+08 7.48048 -2.09139e+08)
(-5.72476e+08 -624454 18.2623 -2.27141e+08 -7.70818 -1.88718e+08)
(-5.21996e+08 1.71152e+06 -5.64245 -2.16255e+08 -19.8051 -1.63432e+08)
(-4.60006e+08 82415.8 -27.6525 -2.08186e+08 1.90123 -1.36472e+08)
(-3.82097e+08 2.20315e+06 -6.8891 -1.94942e+08 28.9293 -1.06583e+08)
(-2.82674e+08 1.41019e+06 13.9014 -1.84979e+08 -1.87329 -7.4652e+07)
(-1.72859e+08 2.87562e+06 -3.01694 -1.69687e+08 -31.2595 -3.91624e+07)
(-2.87095e+07 2.63476e+06 -17.3924 -1.57989e+08 16.298 4.4118e+06)
(1.47338e+08 3.77558e+06 0.823814 -1.39404e+08 35.3634 4.37688e+07)
(4.01393e+08 4.4224e+06 10.3442 -1.26479e+08 -15.6467 1.07418e+08)
(7.10487e+08 5.67249e+06 -1.44367 -1.02535e+08 -32.6102 1.57735e+08)
(1.04325e+09 6.60884e+06 -16.2168 -8.79797e+07 14.9815 2.80492e+08)
(1.21534e+09 7.39994e+06 -4.10674 -5.21836e+07 11.6234 3.81976e+08)
(-6.72104e+08 -499952 -2.1616 -2.4599e+08 3.78067 -2.44702e+08)
(-6.64396e+08 1.0339e+06 -8.9247 -2.42833e+08 -0.974704 -2.38681e+08)
(-6.39778e+08 -951236 -6.13056 -2.40687e+08 2.65845 -2.26706e+08)
(-6.11965e+08 1.26906e+06 6.38096 -2.3272e+08 7.47419 -2.09252e+08)
(-5.72228e+08 -862469 18.2407 -2.27341e+08 -7.70859 -1.8879e+08)
(-5.21608e+08 1.47597e+06 -5.64838 -2.16452e+08 -19.7957 -1.63458e+08)
(-4.59509e+08 -221238 -27.6072 -2.08379e+08 1.90048 -1.36469e+08)
(-3.81368e+08 1.91715e+06 -6.93439 -1.95142e+08 28.9138 -1.06534e+08)
(-2.81954e+08 1.08298e+06 13.7928 -1.85177e+08 -1.88531 -7.45291e+07)
(-1.72115e+08 2.53607e+06 -3.02101 -1.69887e+08 -31.2496 -3.90847e+07)
(-2.7805e+07 2.3559e+06 -17.32 -1.58177e+08 16.3225 4.56586e+06)
(1.48433e+08 3.49379e+06 0.848368 -1.39569e+08 35.3546 4.39435e+07)
(4.02845e+08 4.23673e+06 10.3159 -1.26625e+08 -15.6663 1.07693e+08)
(7.11864e+08 5.46999e+06 -1.442 -1.02634e+08 -32.606 1.58199e+08)
(1.04463e+09 6.51346e+06 -16.1774 -8.80723e+07 15.0127 2.81137e+08)
(1.21655e+09 7.32993e+06 -4.11015 -5.21845e+07 11.6236 3.82696e+08)
(-6.71919e+08 -546191 -2.16373 -2.46206e+08 3.7689 -2.44917e+08)
(-6.64341e+08 955474 -8.93359 -2.43062e+08 -0.973937 -2.38895e+08)
(-6.39764e+08 -1.13352e+06 -6.13081 -2.40909e+08 2.65628 -2.26883e+08)
(-6.11881e+08 1.09187e+06 6.38484 -2.32943e+08 7.46876 -2.09385e+08)
(-5.72067e+08 -1.14147e+06 18.2176 -2.2755e+08 -7.70302 -1.8889e+08)
(-5.21299e+08 1.20761e+06 -5.65507 -2.16672e+08 -19.7868 -1.635e+08)
(-4.59055e+08 -558821 -27.5598 -2.08564e+08 1.88965 -1.36482e+08)
(-3.80671e+08 1.60574e+06 -6.98197 -1.95342e+08 28.9028 -1.06492e+08)
(-2.81295e+08 724760 13.712 -1.85353e+08 -1.89767 -7.43219e+07)
(-1.71403e+08 2.17202e+06 -3.02385 -1.70036e+08 -31.2536 -3.8894e+07)
(-2.69082e+07 2.04985e+06 -17.2425 -1.58335e+08 16.3518 4.8143e+06)
(1.49539e+08 3.1918e+06 0.874888 -1.39692e+08 35.3569 4.42102e+07)
(4.04275e+08 4.02393e+06 10.2692 -1.26791e+08 -15.6953 1.08032e+08)
(7.13293e+08 5.24829e+06 -1.44069 -1.02741e+08 -32.6068 1.58715e+08)
(1.04609e+09 6.43691e+06 -16.1366 -8.81637e+07 15.0461 2.81799e+08)
(1.21786e+09 7.25959e+06 -4.11378 -5.21784e+07 11.6245 3.83453e+08)
(-6.71901e+08 -602690 -2.16733 -2.46437e+08 3.75897 -2.45146e+08)
(-6.64391e+08 889262 -8.94128 -2.43285e+08 -0.974971 -2.39081e+08)
(-6.39903e+08 -1.32063e+06 -6.12937 -2.41082e+08 2.65786 -2.2696e+08)
(-6.11946e+08 906461 6.38785 -2.33118e+08 7.47054 -2.09437e+08)
(-5.72034e+08 -1.43659e+06 18.1906 -2.27689e+08 -7.70308 -1.88904e+08)
(-5.21102e+08 933178 -5.66174 -2.16834e+08 -19.791 -1.63461e+08)
(-4.58698e+08 -908289 -27.5103 -2.08693e+08 1.87864 -1.36416e+08)
(-3.80071e+08 1.26622e+06 -7.02454 -1.95505e+08 28.9044 -1.06387e+08)
(-2.80711e+08 347721 13.6515 -1.85513e+08 -1.90443 -7.40891e+07)
(-1.70691e+08 1.77593e+06 -3.02659 -1.70155e+08 -31.2674 -3.86119e+07)
(-2.59921e+07 1.70819e+06 -17.172 -1.58463e+08 16.3693 5.14624e+06)
(1.50678e+08 2.82714e+06 0.899757 -1.3979e+08 35.3626 4.4559e+07)
(4.05782e+08 3.7659e+06 10.2333 -1.26915e+08 -15.715 1.08456e+08)
(7.14785e+08 5.02544e+06 -1.43939 -1.02808e+08 -32.6053 1.59236e+08)
(1.04763e+09 6.35333e+06 -16.0886 -8.82326e+07 15.0859 2.82483e+08)
(1.21922e+09 7.17308e+06 -4.11943 -5.21912e+07 11.6253 3.84222e+08)
(-6.72002e+08 -660522 -2.1697 -2.46633e+08 3.75115 -2.45351e+08)
(-6.64605e+08 798192 -8.95256 -2.43436e+08 -0.976918 -2.39195e+08)
(-6.40164e+08 -1.5439e+06 -6.13243 -2.41201e+08 2.66077 -2.26989e+08)
(-6.12119e+08 694251 6.391 -2.3324e+08 7.47765 -2.09428e+08)
(-5.72091e+08 -1.7721e+06 18.161 -2.27788e+08 -7.70637 -1.88856e+08)
(-5.20983e+08 603331 -5.66894 -2.16953e+08 -19.8045 -1.63359e+08)
(-4.58414e+08 -1.32511e+06 -27.4598 -2.08812e+08 1.8703 -1.36293e+08)
(-3.79518e+08 849655 -7.06958 -1.95642e+08 28.9121 -1.06226e+08)
(-2.80198e+08 -69544.3 13.5905 -1.85672e+08 -1.90472 -7.3884e+07)
(-1.70036e+08 1.35853e+06 -3.02956 -1.70287e+08 -31.2801 -3.83554e+07)
(-2.51262e+07 1.32381e+06 -17.1035 -1.58625e+08 16.3786 5.43564e+06)
(1.51806e+08 2.44716e+06 0.924759 -1.39912e+08 35.3641 4.48803e+07)
(4.07327e+08 3.4902e+06 10.2021 -1.27045e+08 -15.7265 1.08856e+08)
(7.1637e+08 4.76791e+06 -1.43804 -1.02884e+08 -32.6054 1.59792e+08)
(1.04921e+09 6.22202e+06 -16.0424 -8.83318e+07 15.1175 2.83225e+08)
(1.22071e+09 7.08037e+06 -4.12586 -5.22e+07 11.6271 3.85051e+08)
(-6.72255e+08 -722263 -2.17448 -2.46758e+08 3.74824 -2.45482e+08)
(-6.64993e+08 695949 -8.96263 -2.43569e+08 -0.978041 -2.3931e+08)
(-6.40607e+08 -1.78532e+06 -6.13251 -2.41329e+08 2.66323 -2.2707e+08)
(-6.12466e+08 452788 6.39434 -2.33379e+08 7.48532 -2.09462e+08)
(-5.72325e+08 -2.14368e+06 18.1313 -2.27918e+08 -7.70927 -1.88856e+08)
(-5.21029e+08 224837 -5.67701 -2.17099e+08 -19.8185 -1.63303e+08)
(-4.58271e+08 -1.7852e+06 -27.4122 -2.08952e+08 1.86195 -1.36208e+08)
(-3.79053e+08 384790 -7.11744 -1.95779e+08 28.9203 -1.06084e+08)
(-2.79709e+08 -542308 13.5229 -1.85826e+08 -1.91436 -7.36456e+07)
(-1.6939e+08 876003 -3.03265 -1.70428e+08 -31.2977 -3.80666e+07)
(-2.42415e+07 895779 -17.0393 -1.58804e+08 16.3969 5.76217e+06)
(1.52992e+08 2.03621e+06 0.948267 -1.40042e+08 35.3719 4.52494e+07)
(4.08923e+08 3.18775e+06 10.1704 -1.27215e+08 -15.7466 1.09294e+08)
(7.17981e+08 4.47523e+06 -1.4366 -1.02989e+08 -32.6155 1.6044e+08)
(1.05092e+09 6.08751e+06 -16.0004 -8.84461e+07 15.146 2.84052e+08)
(1.22231e+09 6.99107e+06 -4.13173 -5.2202e+07 11.6303 3.85962e+08)
(-6.72678e+08 -793850 -2.17649 -2.46886e+08 3.74789 -2.45609e+08)
(-6.65572e+08 581027 -8.97295 -2.43712e+08 -0.980529 -2.39421e+08)
(-6.41207e+08 -2.05928e+06 -6.13127 -2.41438e+08 2.66786 -2.27104e+08)
(-6.12961e+08 178004 6.3981 -2.33508e+08 7.49771 -2.09462e+08)
(-5.72689e+08 -2.55839e+06 18.0996 -2.28017e+08 -7.71308 -1.88822e+08)
(-5.21181e+08 -188450 -5.6857 -2.17228e+08 -19.8404 -1.63209e+08)
(-4.58215e+08 -2.27672e+06 -27.3634 -2.09055e+08 1.84817 -1.36086e+08)
(-3.78663e+08 -121236 -7.16531 -1.95901e+08 28.9406 -1.05901e+08)
(-2.79325e+08 -1.07462e+06 13.4677 -1.85952e+08 -1.91918 -7.33229e+07)
(-1.68801e+08 337443 -3.03586 -1.70533e+08 -31.3298 -3.76708e+07)
(-2.33793e+07 412794 -16.9746 -1.58941e+08 16.4132 6.19992e+06)
(1.54181e+08 1.57176e+06 0.974121 -1.40138e+08 35.3904 4.57357e+07)
(4.10548e+08 2.83162e+06 10.1335 -1.2737e+08 -15.7651 1.09843e+08)
(7.19705e+08 4.15658e+06 -1.43543 -1.03082e+08 -32.6298 1.61159e+08)
(1.05271e+09 5.92912e+06 -15.9653 -8.85527e+07 15.1735 2.84929e+08)
(1.22403e+09 6.89282e+06 -4.13885 -5.22042e+07 11.634 3.86916e+08)
(-6.733e+08 -869990 -2.18015 -2.47005e+08 3.74996 -2.45736e+08)
(-6.66378e+08 456310 -8.98475 -2.43848e+08 -0.984352 -2.39517e+08)
(-6.42037e+08 -2.36151e+06 -6.13233 -2.41514e+08 2.6762 -2.27073e+08)
(-6.13664e+08 -125799 6.40144 -2.33594e+08 7.51741 -2.09398e+08)
(-5.73248e+08 -3.00664e+06 18.065 -2.28061e+08 -7.72394 -1.88716e+08)
(-5.21499e+08 -650459 -5.69462 -2.17292e+08 -19.8769 -1.63034e+08)
(-4.58318e+08 -2.81881e+06 -27.3148 -2.09104e+08 1.83739 -1.3588e+08)
(-3.78404e+08 -691083 -7.2128 -1.95967e+08 28.9765 -1.05625e+08)
(-2.78995e+08 -1.65737e+06 13.4104 -1.8604e+08 -1.91996 -7.29485e+07)
(-1.68227e+08 -268269 -3.03955 -1.70588e+08 -31.3685 -3.72084e+07)
(-2.25076e+07 -132317 -16.9162 -1.59053e+08 16.4326 6.7013e+06)
(1.55421e+08 1.03117e+06 0.998734 -1.40203e+08 35.4147 4.62904e+07)
(4.12247e+08 2.40781e+06 10.1054 -1.2752e+08 -15.7873 1.1045e+08)
(7.21484e+08 3.78324e+06 -1.43425 -1.03159e+08 -32.6478 1.61926e+08)
(1.05464e+09 5.7477e+06 -15.9297 -8.86615e+07 15.2028 2.85827e+08)
(1.2259e+09 6.7835e+06 -4.14774 -5.22049e+07 11.6381 3.87908e+08)
(-6.74126e+08 -949188 -2.1843 -2.47096e+08 3.75545 -2.45847e+08)
(-6.67421e+08 321460 -9.0015 -2.43913e+08 -0.988777 -2.39545e+08)
(-6.43068e+08 -2.6882e+06 -6.13525 -2.41553e+08 2.68416 -2.27047e+08)
(-6.14542e+08 -451568 6.40493 -2.33641e+08 7.54184 -2.09309e+08)
(-5.73975e+08 -3.48372e+06 18.0271 -2.28078e+08 -7.73456 -1.88587e+08)
(-5.21965e+08 -1.15517e+06 -5.70478 -2.17334e+08 -19.922 -1.62822e+08)
(-4.58541e+08 -3.41321e+06 -27.2642 -2.09139e+08 1.82326 -1.35641e+08)
(-3.78239e+08 -1.32945e+06 -7.26364 -1.96025e+08 29.0229 -1.05311e+08)
(-2.78788e+08 -2.30804e+06 13.3576 -1.8613e+08 -1.91305 -7.25526e+07)
(-1.67738e+08 -947077 -3.04353 -1.70653e+08 -31.4142 -3.67171e+07)
(-2.16829e+07 -761729 -16.8598 -1.5917e+08 16.4448 7.23122e+06)
(1.56644e+08 408262 1.02605 -1.40281e+08 35.4417 4.68829e+07)
(4.13985e+08 1.90476e+06 10.0772 -1.27649e+08 -15.8004 1.11108e+08)
(7.23417e+08 3.3697e+06 -1.43332 -1.03219e+08 -32.6643 1.62719e+08)
(1.0567e+09 5.52493e+06 -15.8946 -8.87595e+07 15.2348 2.86798e+08)
(1.22793e+09 6.66059e+06 -4.15833 -5.22148e+07 11.6426 3.88969e+08)
(-6.75176e+08 -1.0085e+06 -2.18818 -2.47152e+08 3.76615 -2.45905e+08)
(-6.68753e+08 169157 -9.01434 -2.43941e+08 -0.994158 -2.39528e+08)
(-6.44358e+08 -3.03515e+06 -6.13509 -2.41597e+08 2.69143 -2.27058e+08)
(-6.1565e+08 -808992 6.40878 -2.33683e+08 7.56988 -2.09234e+08)
(-5.74932e+08 -4.00987e+06 17.9883 -2.28122e+08 -7.7463 -1.88485e+08)
(-5.2264e+08 -1.72488e+06 -5.71587 -2.1739e+08 -19.9731 -1.62627e+08)
(-4.58968e+08 -4.08114e+06 -27.2176 -2.0921e+08 1.81028 -1.35425e+08)
(-3.7824e+08 -2.05728e+06 -7.31657 -1.96095e+08 29.0742 -1.05007e+08)
(-2.78658e+08 -3.03509e+06 13.2952 -1.8624e+08 -1.90274 -7.2202e+07)
(-1.67296e+08 -1.70197e+06 -3.04851 -1.70738e+08 -31.4569 -3.62642e+07)
(-2.08768e+07 -1.46289e+06 -16.8107 -1.59328e+08 16.4553 7.72113e+06)
(1.57909e+08 -269211 1.05184 -1.40374e+08 35.4658 4.74594e+07)
(4.15829e+08 1.36162e+06 10.0635 -1.27816e+08 -15.8169 1.11762e+08)
(7.25439e+08 2.88929e+06 -1.4323 -1.03295e+08 -32.6881 1.63602e+08)
(1.05891e+09 5.24002e+06 -15.8665 -8.88987e+07 15.2603 2.87841e+08)
(1.23016e+09 6.51403e+06 -4.17194 -5.22075e+07 11.6482 3.90128e+08)
(-6.76392e+08 -1.09566e+06 -2.19121 -2.47247e+08 3.77883 -2.45965e+08)
(-6.70343e+08 8350.41 -9.02635 -2.44067e+08 -0.998745 -2.39626e+08)
(-6.45882e+08 -3.4062e+06 -6.13222 -2.41716e+08 2.69951 -2.27152e+08)
(-6.16988e+08 -1.20246e+06 6.41337 -2.33813e+08 7.59764 -2.09249e+08)
(-5.76115e+08 -4.5831e+06 17.9476 -2.28229e+08 -7.75537 -1.88472e+08)
(-5.23518e+08 -2.34783e+06 -5.72841 -2.17511e+08 -20.0234 -1.6251e+08)
(-4.59567e+08 -4.8009e+06 -27.1699 -2.09311e+08 1.79186 -1.35275e+08)
(-3.78365e+08 -2.83427e+06 -7.37599 -1.96189e+08 29.1295 -1.04741e+08)
(-2.78659e+08 -3.83455e+06 13.2314 -1.86353e+08 -1.89618 -7.17985e+07)
(-1.66951e+08 -2.54831e+06 -3.0535 -1.70817e+08 -31.511 -3.57538e+07)
(-2.01107e+07 -2.24367e+06 -16.7621 -1.59478e+08 16.4752 8.28145e+06)
(1.59184e+08 -1.02726e+06 1.07932 -1.40458e+08 35.5008 4.81153e+07)
(4.17689e+08 734490 10.0402 -1.28011e+08 -15.8417 1.12485e+08)
(7.27583e+08 2.34666e+06 -1.43175 -1.03395e+08 -32.7161 1.64546e+08)
(1.0613e+09 4.93645e+06 -15.8419 -8.90386e+07 15.2883 2.88938e+08)
(1.23265e+09 6.36599e+06 -4.18672 -5.22062e+07 11.6539 3.91353e+08)
(-6.77938e+08 -1.19776e+06 -2.19692 -2.47405e+08 3.79347 -2.46108e+08)
(-6.72251e+08 -144476 -9.03839 -2.44251e+08 -1.00542 -2.39751e+08)
(-6.47715e+08 -3.785e+06 -6.12676 -2.41885e+08 2.70833 -2.27276e+08)
(-6.18607e+08 -1.60692e+06 6.41782 -2.33975e+08 7.63076 -2.09282e+08)
(-5.77566e+08 -5.17108e+06 17.9017 -2.28353e+08 -7.76457 -1.8848e+08)
(-5.24634e+08 -2.98976e+06 -5.74183 -2.17646e+08 -20.0831 -1.62397e+08)
(-4.60382e+08 -5.54242e+06 -27.1227 -2.0942e+08 1.76923 -1.3513e+08)
(-3.78693e+08 -3.66339e+06 -7.4328 -1.96305e+08 29.1979 -1.04472e+08)
(-2.78802e+08 -4.69209e+06 13.1804 -1.86495e+08 -1.87834 -7.14135e+07)
(-1.6668e+08 -3.47045e+06 -3.05942 -1.70902e+08 -31.5705 -3.52201e+07)
(-1.93696e+07 -3.10825e+06 -16.721 -1.59625e+08 16.4848 8.87489e+06)
(1.60483e+08 -1.89405e+06 1.10721 -1.40539e+08 35.5364 4.88202e+07)
(4.19662e+08 12960.3 10.0295 -1.28169e+08 -15.8572 1.13282e+08)
(7.29878e+08 1.75257e+06 -1.43137 -1.0346e+08 -32.7424 1.65528e+08)