/*--------------------------------*- C++ -*----------------------------------*\
| =========                 |                                                 |
| \\      /  F ield         | foam-extend: Open Source CFD                    |
|  \\    /   O peration     | Version:     4.1-20200408                       |
|   \\  /    A nd           | Web:         http://www.foam-extend.org         |
|    \\/     M anipulation  |                                                 |
\*---------------------------------------------------------------------------*/
FoamFile
{
    version     2.0;
    format      ascii;
    class       volVectorField;
    location    "0.0435000";
    object      U_0;
}
// * * * * * * * * * * * * * * * * * * * * * * * * * * * * * * * * * * * * * //

dimensions      [0 1 0 0 0 0 0];

internalField   nonuniform List<vector> 
1952
(
(0.0426987 -1.95083e-06 0)
(0.0426984 -3.17327e-06 0)
(0.0426981 -4.41113e-06 0)
(0.0426976 -5.64681e-06 0)
(0.0426971 -6.88442e-06 0)
(0.0426964 -8.11081e-06 0)
(0.0426957 -9.33803e-06 0)
(0.042695 -1.05476e-05 0)
(0.0426942 -1.17561e-05 0)
(0.0426934 -1.29412e-05 0)
(0.0426927 -1.412e-05 0)
(0.0426921 -1.52683e-05 0)
(0.0426917 -1.63934e-05 0)
(0.0426914 -1.74786e-05 0)
(0.0426913 -1.85268e-05 0)
(0.0426988 -8.35805e-07 0)
(0.0426962 -1.95368e-06 0)
(0.0426959 -3.17796e-06 0)
(0.0426956 -4.41764e-06 0)
(0.0426951 -5.65517e-06 0)
(0.0426945 -6.89458e-06 0)
(0.0426939 -8.12281e-06 0)
(0.0426932 -9.3518e-06 0)
(0.0426924 -1.05632e-05 0)
(0.0426917 -1.17734e-05 0)
(0.0426909 -1.29604e-05 0)
(0.0426902 -1.4141e-05 0)
(0.0426896 -1.52911e-05 0)
(0.0426891 -1.64182e-05 0)
(0.0426889 -1.75054e-05 0)
(0.0426888 -1.85554e-05 0)
(0.0426962 -8.37034e-07 0)
(0.0426936 -1.95665e-06 0)
(0.0426934 -3.18278e-06 0)
(0.042693 -4.42433e-06 0)
(0.0426926 -5.66373e-06 0)
(0.042692 -6.90501e-06 0)
(0.0426914 -8.13508e-06 0)
(0.0426907 -9.36595e-06 0)
(0.0426899 -1.05791e-05 0)
(0.0426892 -1.17913e-05 0)
(0.0426884 -1.29802e-05 0)
(0.0426877 -1.41627e-05 0)
(0.0426871 -1.53148e-05 0)
(0.0426866 -1.64439e-05 0)
(0.0426863 -1.75331e-05 0)
(0.0426863 -1.8585e-05 0)
(0.0426937 -8.38306e-07 0)
(0.0426911 -1.95965e-06 0)
(0.0426909 -3.18768e-06 0)
(0.0426905 -4.43118e-06 0)
(0.04269 -5.67249e-06 0)
(0.0426895 -6.91573e-06 0)
(0.0426888 -8.1477e-06 0)
(0.0426882 -9.38055e-06 0)
(0.0426874 -1.05956e-05 0)
(0.0426866 -1.18098e-05 0)
(0.0426859 -1.30007e-05 0)
(0.0426852 -1.41852e-05 0)
(0.0426845 -1.53394e-05 0)
(0.0426841 -1.64704e-05 0)
(0.0426838 -1.75616e-05 0)
(0.0426837 -1.86153e-05 0)
(0.0426912 -8.39596e-07 0)
(0.0426886 -1.96274e-06 0)
(0.0426883 -3.19271e-06 0)
(0.042688 -4.43819e-06 0)
(0.0426875 -5.68148e-06 0)
(0.042687 -6.92672e-06 0)
(0.0426863 -8.16068e-06 0)
(0.0426856 -9.39556e-06 0)
(0.0426849 -1.06126e-05 0)
(0.0426841 -1.18288e-05 0)
(0.0426833 -1.30217e-05 0)
(0.0426826 -1.42083e-05 0)
(0.042682 -1.53643e-05 0)
(0.0426815 -1.64973e-05 0)
(0.0426813 -1.75905e-05 0)
(0.0426812 -1.86461e-05 0)
(0.0426887 -8.4092e-07 0)
(0.0426861 -1.96592e-06 0)
(0.0426858 -3.19786e-06 0)
(0.0426855 -4.44536e-06 0)
(0.042685 -5.69064e-06 0)
(0.0426844 -6.93793e-06 0)
(0.0426838 -8.17388e-06 0)
(0.0426831 -9.41081e-06 0)
(0.0426823 -1.06299e-05 0)
(0.0426816 -1.18481e-05 0)
(0.0426808 -1.3043e-05 0)
(0.0426801 -1.42316e-05 0)
(0.0426795 -1.53897e-05 0)
(0.042679 -1.65246e-05 0)
(0.0426787 -1.76197e-05 0)
(0.0426787 -1.86773e-05 0)
(0.0426862 -8.42281e-07 0)
(0.0426835 -1.9691e-06 0)
(0.0426833 -3.20306e-06 0)
(0.0426829 -4.45263e-06 0)
(0.0426825 -5.69996e-06 0)
(0.0426819 -6.94933e-06 0)
(0.0426812 -8.18732e-06 0)
(0.0426806 -9.42635e-06 0)
(0.0426798 -1.06474e-05 0)
(0.042679 -1.18677e-05 0)
(0.0426783 -1.30646e-05 0)
(0.0426775 -1.42553e-05 0)
(0.0426769 -1.54153e-05 0)
(0.0426765 -1.65522e-05 0)
(0.0426762 -1.76492e-05 0)
(0.0426761 -1.87087e-05 0)
(0.0426836 -8.43648e-07 0)
(0.042681 -1.97237e-06 0)
(0.0426807 -3.20837e-06 0)
(0.0426804 -4.46002e-06 0)
(0.0426799 -5.7094e-06 0)
(0.0426794 -6.96087e-06 0)
(0.0426787 -8.2009e-06 0)
(0.042678 -9.44201e-06 0)
(0.0426772 -1.06651e-05 0)
(0.0426765 -1.18874e-05 0)
(0.0426757 -1.30864e-05 0)
(0.042675 -1.42791e-05 0)
(0.0426744 -1.54411e-05 0)
(0.0426739 -1.65799e-05 0)
(0.0426736 -1.76789e-05 0)
(0.0426736 -1.87402e-05 0)
(0.0426811 -8.45048e-07 0)
(0.0426785 -1.97565e-06 0)
(0.0426782 -3.2137e-06 0)
(0.0426779 -4.46745e-06 0)
(0.0426774 -5.7189e-06 0)
(0.0426768 -6.97248e-06 0)
(0.0426762 -8.21456e-06 0)
(0.0426755 -9.45777e-06 0)
(0.0426747 -1.06829e-05 0)
(0.0426739 -1.19073e-05 0)
(0.0426732 -1.31082e-05 0)
(0.0426724 -1.4303e-05 0)
(0.0426718 -1.5467e-05 0)
(0.0426714 -1.66078e-05 0)
(0.0426711 -1.77087e-05 0)
(0.042671 -1.87719e-05 0)
(0.0426785 -8.46452e-07 0)
(0.0426759 -1.97893e-06 0)
(0.0426756 -3.21905e-06 0)
(0.0426753 -4.47492e-06 0)
(0.0426748 -5.72846e-06 0)
(0.0426743 -6.98416e-06 0)
(0.0426736 -8.2283e-06 0)
(0.0426729 -9.47363e-06 0)
(0.0426721 -1.07008e-05 0)
(0.0426714 -1.19273e-05 0)
(0.0426706 -1.31302e-05 0)
(0.0426699 -1.4327e-05 0)
(0.0426693 -1.5493e-05 0)
(0.0426688 -1.66357e-05 0)
(0.0426685 -1.77386e-05 0)
(0.0426685 -1.88037e-05 0)
(0.042676 -8.47862e-07 0)
(0.0426734 -1.98227e-06 0)
(0.0426731 -3.22446e-06 0)
(0.0426728 -4.48244e-06 0)
(0.0426723 -5.73807e-06 0)
(0.0426717 -6.99589e-06 0)
(0.0426711 -8.24209e-06 0)
(0.0426704 -9.48952e-06 0)
(0.0426696 -1.07187e-05 0)
(0.0426688 -1.19472e-05 0)
(0.042668 -1.31522e-05 0)
(0.0426673 -1.43511e-05 0)
(0.0426667 -1.5519e-05 0)
(0.0426662 -1.66637e-05 0)
(0.042666 -1.77684e-05 0)
(0.0426659 -1.88355e-05 0)
(0.0426735 -8.49291e-07 0)
(0.0426708 -1.98557e-06 0)
(0.0426705 -3.22984e-06 0)
(0.0426702 -4.48994e-06 0)
(0.0426697 -5.74764e-06 0)
(0.0426692 -7.00758e-06 0)
(0.0426685 -8.25585e-06 0)
(0.0426678 -9.50538e-06 0)
(0.042667 -1.07366e-05 0)
(0.0426663 -1.19672e-05 0)
(0.0426655 -1.31742e-05 0)
(0.0426648 -1.43751e-05 0)
(0.0426641 -1.5545e-05 0)
(0.0426637 -1.66917e-05 0)
(0.0426634 -1.77984e-05 0)
(0.0426633 -1.88673e-05 0)
(0.0426709 -8.50707e-07 0)
(0.0426682 -1.98887e-06 0)
(0.042668 -3.23521e-06 0)
(0.0426676 -4.49744e-06 0)
(0.0426671 -5.75723e-06 0)
(0.0426666 -7.01929e-06 0)
(0.0426659 -8.26962e-06 0)
(0.0426652 -9.52127e-06 0)
(0.0426645 -1.07545e-05 0)
(0.0426637 -1.19872e-05 0)
(0.0426629 -1.31962e-05 0)
(0.0426622 -1.43991e-05 0)
(0.0426616 -1.5571e-05 0)
(0.0426611 -1.67196e-05 0)
(0.0426608 -1.78282e-05 0)
(0.0426608 -1.88991e-05 0)
(0.0426683 -8.52122e-07 0)
(0.0426657 -1.99218e-06 0)
(0.0426654 -3.24059e-06 0)
(0.0426651 -4.50491e-06 0)
(0.0426646 -5.76678e-06 0)
(0.042664 -7.03095e-06 0)
(0.0426634 -8.28333e-06 0)
(0.0426627 -9.53707e-06 0)
(0.0426619 -1.07723e-05 0)
(0.0426611 -1.2007e-05 0)
(0.0426603 -1.32181e-05 0)
(0.0426596 -1.4423e-05 0)
(0.042659 -1.55969e-05 0)
(0.0426585 -1.67475e-05 0)
(0.0426582 -1.78581e-05 0)
(0.0426582 -1.89309e-05 0)
(0.0426658 -8.53541e-07 0)
(0.0426631 -1.99545e-06 0)
(0.0426628 -3.24591e-06 0)
(0.0426625 -4.51234e-06 0)
(0.042662 -5.77627e-06 0)
(0.0426615 -7.04256e-06 0)
(0.0426608 -8.29699e-06 0)
(0.0426601 -9.55284e-06 0)
(0.0426593 -1.07901e-05 0)
(0.0426585 -1.20268e-05 0)
(0.0426578 -1.32399e-05 0)
(0.042657 -1.44469e-05 0)
(0.0426564 -1.56227e-05 0)
(0.0426559 -1.67753e-05 0)
(0.0426557 -1.78879e-05 0)
(0.0426556 -1.89627e-05 0)
(0.0426632 -8.54944e-07 0)
(0.0426605 -1.9987e-06 0)
(0.0426603 -3.25121e-06 0)
(0.0426599 -4.51972e-06 0)
(0.0426594 -5.78572e-06 0)
(0.0426589 -7.05408e-06 0)
(0.0426582 -8.31057e-06 0)
(0.0426575 -9.56849e-06 0)
(0.0426567 -1.08078e-05 0)
(0.042656 -1.20466e-05 0)
(0.0426552 -1.32617e-05 0)
(0.0426545 -1.44708e-05 0)
(0.0426538 -1.56486e-05 0)
(0.0426534 -1.68032e-05 0)
(0.0426531 -1.79176e-05 0)
(0.042653 -1.89944e-05 0)
(0.0426606 -8.56339e-07 0)
(0.042658 -2.00195e-06 0)
(0.0426577 -3.25648e-06 0)
(0.0426573 -4.52706e-06 0)
(0.0426569 -5.79512e-06 0)
(0.0426563 -7.06556e-06 0)
(0.0426556 -8.32411e-06 0)
(0.0426549 -9.58408e-06 0)
(0.0426542 -1.08254e-05 0)
(0.0426534 -1.20663e-05 0)
(0.0426526 -1.32834e-05 0)
(0.0426519 -1.44945e-05 0)
(0.0426513 -1.56743e-05 0)
(0.0426508 -1.68308e-05 0)
(0.0426505 -1.79473e-05 0)
(0.0426504 -1.9026e-05 0)
(0.0426581 -8.5773e-07 0)
(0.0426554 -2.00517e-06 0)
(0.0426551 -3.26173e-06 0)
(0.0426548 -4.53435e-06 0)
(0.0426543 -5.80446e-06 0)
(0.0426537 -7.07694e-06 0)
(0.042653 -8.33756e-06 0)
(0.0426523 -9.59954e-06 0)
(0.0426516 -1.0843e-05 0)
(0.0426508 -1.20859e-05 0)
(0.04265 -1.3305e-05 0)
(0.0426493 -1.45182e-05 0)
(0.0426487 -1.56999e-05 0)
(0.0426482 -1.68585e-05 0)
(0.0426479 -1.79769e-05 0)
(0.0426478 -1.90576e-05 0)
(0.0426555 -8.59112e-07 0)
(0.0426528 -2.00835e-06 0)
(0.0426525 -3.26691e-06 0)
(0.0426522 -4.54157e-06 0)
(0.0426517 -5.81373e-06 0)
(0.0426511 -7.08823e-06 0)
(0.0426505 -8.35091e-06 0)
(0.0426497 -9.61489e-06 0)
(0.042649 -1.08604e-05 0)
(0.0426482 -1.21054e-05 0)
(0.0426474 -1.33266e-05 0)
(0.0426467 -1.45417e-05 0)
(0.0426461 -1.57254e-05 0)
(0.0426456 -1.6886e-05 0)
(0.0426453 -1.80064e-05 0)
(0.0426452 -1.90891e-05 0)
(0.0426529 -8.60475e-07 0)
(0.0426502 -2.0115e-06 0)
(0.0426499 -3.27205e-06 0)
(0.0426496 -4.54874e-06 0)
(0.0426491 -5.82293e-06 0)
(0.0426485 -7.09946e-06 0)
(0.0426479 -8.3642e-06 0)
(0.0426472 -9.63019e-06 0)
(0.0426464 -1.08777e-05 0)
(0.0426456 -1.21248e-05 0)
(0.0426448 -1.3348e-05 0)
(0.0426441 -1.45652e-05 0)
(0.0426435 -1.57509e-05 0)
(0.042643 -1.69135e-05 0)
(0.0426427 -1.80358e-05 0)
(0.0426426 -1.91205e-05 0)
(0.0426503 -8.61827e-07 0)
(0.0426476 -2.01466e-06 0)
(0.0426473 -3.27718e-06 0)
(0.042647 -4.55586e-06 0)
(0.0426465 -5.83208e-06 0)
(0.0426459 -7.1106e-06 0)
(0.0426453 -8.37738e-06 0)
(0.0426446 -9.64536e-06 0)
(0.0426438 -1.08949e-05 0)
(0.042643 -1.2144e-05 0)
(0.0426422 -1.33692e-05 0)
(0.0426415 -1.45885e-05 0)
(0.0426409 -1.57762e-05 0)
(0.0426404 -1.69407e-05 0)
(0.0426401 -1.80651e-05 0)
(0.04264 -1.91518e-05 0)
(0.0426477 -8.63179e-07 0)
(0.042645 -2.01776e-06 0)
(0.0426447 -3.28225e-06 0)
(0.0426444 -4.56291e-06 0)
(0.0426439 -5.84113e-06 0)
(0.0426433 -7.12162e-06 0)
(0.0426427 -8.39043e-06 0)
(0.0426419 -9.66036e-06 0)
(0.0426412 -1.0912e-05 0)
(0.0426404 -1.21631e-05 0)
(0.0426396 -1.33903e-05 0)
(0.0426389 -1.46116e-05 0)
(0.0426383 -1.58013e-05 0)
(0.0426378 -1.6968e-05 0)
(0.0426375 -1.80944e-05 0)
(0.0426374 -1.91831e-05 0)
(0.0426451 -8.64512e-07 0)
(0.0426424 -2.02083e-06 0)
(0.0426421 -3.28725e-06 0)
(0.0426418 -4.56989e-06 0)
(0.0426413 -5.8501e-06 0)
(0.0426407 -7.13255e-06 0)
(0.0426401 -8.40337e-06 0)
(0.0426393 -9.67526e-06 0)
(0.0426386 -1.09289e-05 0)
(0.0426378 -1.2182e-05 0)
(0.042637 -1.34113e-05 0)
(0.0426363 -1.46347e-05 0)
(0.0426356 -1.58264e-05 0)
(0.0426352 -1.69951e-05 0)
(0.0426349 -1.81236e-05 0)
(0.0426348 -1.92144e-05 0)
(0.0426425 -8.6583e-07 0)
(0.0426398 -2.02389e-06 0)
(0.0426395 -3.29223e-06 0)
(0.0426392 -4.57681e-06 0)
(0.0426387 -5.859e-06 0)
(0.0426381 -7.14339e-06 0)
(0.0426374 -8.41623e-06 0)
(0.0426367 -9.69005e-06 0)
(0.0426359 -1.09457e-05 0)
(0.0426352 -1.22008e-05 0)
(0.0426344 -1.34322e-05 0)
(0.0426337 -1.46576e-05 0)
(0.042633 -1.58515e-05 0)
(0.0426325 -1.70222e-05 0)
(0.0426323 -1.81527e-05 0)
(0.0426322 -1.92456e-05 0)
(0.0426399 -8.6714e-07 0)
(0.0426372 -2.02694e-06 0)
(0.0426369 -3.29721e-06 0)
(0.0426366 -4.58371e-06 0)
(0.0426361 -5.86787e-06 0)
(0.0426355 -7.15419e-06 0)
(0.0426348 -8.42904e-06 0)
(0.0426341 -9.70481e-06 0)
(0.0426333 -1.09625e-05 0)
(0.0426325 -1.22196e-05 0)
(0.0426318 -1.34531e-05 0)
(0.042631 -1.46805e-05 0)
(0.0426304 -1.58764e-05 0)
(0.0426299 -1.70491e-05 0)
(0.0426296 -1.81817e-05 0)
(0.0426296 -1.92767e-05 0)
(0.0426373 -8.68447e-07 0)
(0.0426346 -2.02999e-06 0)
(0.0426343 -3.30218e-06 0)
(0.0426339 -4.59059e-06 0)
(0.0426335 -5.87672e-06 0)
(0.0426329 -7.16493e-06 0)
(0.0426322 -8.44179e-06 0)
(0.0426315 -9.71945e-06 0)
(0.0426307 -1.09792e-05 0)
(0.0426299 -1.22383e-05 0)
(0.0426291 -1.34738e-05 0)
(0.0426284 -1.47032e-05 0)
(0.0426278 -1.59012e-05 0)
(0.0426273 -1.7076e-05 0)
(0.042627 -1.82107e-05 0)
(0.0426269 -1.93078e-05 0)
(0.0426347 -8.69753e-07 0)
(0.042632 -2.03302e-06 0)
(0.0426317 -3.30713e-06 0)
(0.0426313 -4.59745e-06 0)
(0.0426308 -5.88555e-06 0)
(0.0426303 -7.17565e-06 0)
(0.0426296 -8.45452e-06 0)
(0.0426289 -9.73406e-06 0)
(0.0426281 -1.09958e-05 0)
(0.0426273 -1.22569e-05 0)
(0.0426265 -1.34945e-05 0)
(0.0426258 -1.47259e-05 0)
(0.0426251 -1.5926e-05 0)
(0.0426246 -1.71029e-05 0)
(0.0426244 -1.82397e-05 0)
(0.0426243 -1.9339e-05 0)
(0.042632 -8.7105e-07 0)
(0.0426293 -2.03607e-06 0)
(0.0426291 -3.31211e-06 0)
(0.0426287 -4.60436e-06 0)
(0.0426282 -5.89444e-06 0)
(0.0426276 -7.18644e-06 0)
(0.042627 -8.46733e-06 0)
(0.0426262 -9.74876e-06 0)
(0.0426254 -1.10126e-05 0)
(0.0426247 -1.22755e-05 0)
(0.0426239 -1.35152e-05 0)
(0.0426231 -1.47487e-05 0)
(0.0426225 -1.59508e-05 0)
(0.042622 -1.71298e-05 0)
(0.0426217 -1.82688e-05 0)
(0.0426217 -1.93702e-05 0)
(0.0426294 -8.72357e-07 0)
(0.0426267 -2.03917e-06 0)
(0.0426264 -3.31716e-06 0)
(0.0426261 -4.61134e-06 0)
(0.0426256 -5.90342e-06 0)
(0.042625 -7.19732e-06 0)
(0.0426243 -8.48023e-06 0)
(0.0426236 -9.76352e-06 0)
(0.0426228 -1.10294e-05 0)
(0.042622 -1.22943e-05 0)
(0.0426212 -1.3536e-05 0)
(0.0426205 -1.47715e-05 0)
(0.0426199 -1.59758e-05 0)
(0.0426194 -1.71569e-05 0)
(0.0426191 -1.8298e-05 0)
(0.042619 -1.94017e-05 0)
(0.0426268 -8.73686e-07 0)
(0.0426241 -2.04233e-06 0)
(0.0426238 -3.32232e-06 0)
(0.0426234 -4.61847e-06 0)
(0.0426229 -5.9126e-06 0)
(0.0426224 -7.2084e-06 0)
(0.0426217 -8.49339e-06 0)
(0.042621 -9.77853e-06 0)
(0.0426202 -1.10465e-05 0)
(0.0426194 -1.23133e-05 0)
(0.0426186 -1.35571e-05 0)
(0.0426179 -1.47947e-05 0)
(0.0426172 -1.6001e-05 0)
(0.0426167 -1.71842e-05 0)
(0.0426164 -1.83275e-05 0)
(0.0426164 -1.94335e-05 0)
(0.0426242 -8.75038e-07 0)
(0.0426214 -2.04562e-06 0)
(0.0426212 -3.32767e-06 0)
(0.0426208 -4.62587e-06 0)
(0.0426203 -5.9221e-06 0)
(0.0426197 -7.21986e-06 0)
(0.0426191 -8.50697e-06 0)
(0.0426183 -9.79401e-06 0)
(0.0426175 -1.1064e-05 0)
(0.0426167 -1.23327e-05 0)
(0.0426159 -1.35787e-05 0)
(0.0426152 -1.48182e-05 0)
(0.0426146 -1.60267e-05 0)
(0.0426141 -1.7212e-05 0)
(0.0426138 -1.83575e-05 0)
(0.0426137 -1.94657e-05 0)
(0.0426215 -8.76445e-07 0)
(0.0426188 -2.04909e-06 0)
(0.0426185 -3.33332e-06 0)
(0.0426182 -4.63364e-06 0)
(0.0426177 -5.93206e-06 0)
(0.0426171 -7.23183e-06 0)
(0.0426164 -8.52111e-06 0)
(0.0426157 -9.81004e-06 0)
(0.0426149 -1.10822e-05 0)
(0.0426141 -1.23528e-05 0)
(0.0426133 -1.36008e-05 0)
(0.0426126 -1.48424e-05 0)
(0.0426119 -1.60529e-05 0)
(0.0426114 -1.72404e-05 0)
(0.0426111 -1.83881e-05 0)
(0.0426111 -1.94986e-05 0)
(0.0426189 -8.77936e-07 0)
(0.0426162 -2.0528e-06 0)
(0.0426159 -3.33936e-06 0)
(0.0426155 -4.64195e-06 0)
(0.042615 -5.94271e-06 0)
(0.0426145 -7.24458e-06 0)
(0.0426138 -8.53614e-06 0)
(0.042613 -9.827e-06 0)
(0.0426122 -1.11013e-05 0)
(0.0426114 -1.23739e-05 0)
(0.0426106 -1.3624e-05 0)
(0.0426099 -1.48675e-05 0)
(0.0426093 -1.60802e-05 0)
(0.0426088 -1.72697e-05 0)
(0.0426085 -1.84196e-05 0)
(0.0426084 -1.95325e-05 0)
(0.0426163 -8.79524e-07 0)
(0.0426135 -2.05688e-06 0)
(0.0426132 -3.34598e-06 0)
(0.0426129 -4.65102e-06 0)
(0.0426124 -5.9543e-06 0)
(0.0426118 -7.25841e-06 0)
(0.0426111 -8.55238e-06 0)
(0.0426104 -9.84524e-06 0)
(0.0426096 -1.11218e-05 0)
(0.0426088 -1.23962e-05 0)
(0.042608 -1.36485e-05 0)
(0.0426072 -1.48939e-05 0)
(0.0426066 -1.61087e-05 0)
(0.0426061 -1.73003e-05 0)
(0.0426058 -1.84523e-05 0)
(0.0426057 -1.95677e-05 0)
(0.0426136 -8.8127e-07 0)
(0.0426109 -2.06142e-06 0)
(0.0426106 -3.35334e-06 0)
(0.0426102 -4.6611e-06 0)
(0.0426097 -5.96714e-06 0)
(0.0426091 -7.27367e-06 0)
(0.0426085 -8.57024e-06 0)
(0.0426077 -9.86519e-06 0)
(0.0426069 -1.11441e-05 0)
(0.0426061 -1.24205e-05 0)
(0.0426053 -1.36749e-05 0)
(0.0426046 -1.49222e-05 0)
(0.0426039 -1.6139e-05 0)
(0.0426034 -1.73326e-05 0)
(0.0426031 -1.84868e-05 0)
(0.042603 -1.96045e-05 0)
(0.042611 -8.83217e-07 0)
(0.0426082 -2.06658e-06 0)
(0.0426079 -3.3617e-06 0)
(0.0426076 -4.67251e-06 0)
(0.0426071 -5.98165e-06 0)
(0.0426065 -7.29086e-06 0)
(0.0426058 -8.59026e-06 0)
(0.0426051 -9.88746e-06 0)
(0.0426043 -1.11689e-05 0)
(0.0426035 -1.24471e-05 0)
(0.0426026 -1.37038e-05 0)
(0.0426019 -1.49528e-05 0)
(0.0426012 -1.61716e-05 0)
(0.0426007 -1.73672e-05 0)
(0.0426004 -1.85235e-05 0)
(0.0426004 -1.96437e-05 0)
(0.0426083 -8.85429e-07 0)
(0.0426056 -2.07254e-06 0)
(0.0426053 -3.37134e-06 0)
(0.0426049 -4.68565e-06 0)
(0.0426044 -5.99829e-06 0)
(0.0426038 -7.31051e-06 0)
(0.0426031 -8.61306e-06 0)
(0.0426024 -9.91268e-06 0)
(0.0426016 -1.11968e-05 0)
(0.0426008 -1.2477e-05 0)
(0.0426 -1.37359e-05 0)
(0.0425992 -1.49867e-05 0)
(0.0425986 -1.62074e-05 0)
(0.0425981 -1.74049e-05 0)
(0.0425977 -1.85632e-05 0)
(0.0425977 -1.96857e-05 0)
(0.0426057 -8.87991e-07 0)
(0.0426029 -2.0795e-06 0)
(0.0426026 -3.38257e-06 0)
(0.0426022 -4.70095e-06 0)
(0.0426017 -6.01765e-06 0)
(0.0426012 -7.33333e-06 0)
(0.0426005 -8.63945e-06 0)
(0.0425997 -9.94179e-06 0)
(0.0425989 -1.12289e-05 0)
(0.0425981 -1.25111e-05 0)
(0.0425973 -1.37723e-05 0)
(0.0425965 -1.50248e-05 0)
(0.0425959 -1.62474e-05 0)
(0.0425954 -1.74466e-05 0)
(0.0425951 -1.86067e-05 0)
(0.042595 -1.97316e-05 0)
(0.042603 -8.90978e-07 0)
(0.0426002 -2.0877e-06 0)
(0.0425999 -3.3958e-06 0)
(0.0425996 -4.71897e-06 0)
(0.0425991 -6.0404e-06 0)
(0.0425985 -7.36014e-06 0)
(0.0425978 -8.67037e-06 0)
(0.0425971 -9.97581e-06 0)
(0.0425963 -1.12661e-05 0)
(0.0425954 -1.25506e-05 0)
(0.0425946 -1.38142e-05 0)
(0.0425939 -1.50682e-05 0)
(0.0425932 -1.62926e-05 0)
(0.0425927 -1.74933e-05 0)
(0.0425924 -1.86551e-05 0)
(0.0425923 -1.97822e-05 0)
(0.0426003 -8.94495e-07 0)
(0.0425975 -2.09738e-06 0)
(0.0425973 -3.41142e-06 0)
(0.0425969 -4.74025e-06 0)
(0.0425964 -6.06726e-06 0)
(0.0425958 -7.39177e-06 0)
(0.0425951 -8.70679e-06 0)
(0.0425944 -1.00158e-05 0)
(0.0425936 -1.13099e-05 0)
(0.0425928 -1.25967e-05 0)
(0.0425919 -1.3863e-05 0)
(0.0425912 -1.51185e-05 0)
(0.0425905 -1.63446e-05 0)
(0.04259 -1.75465e-05 0)
(0.0425897 -1.87098e-05 0)
(0.0425896 -1.98388e-05 0)
(0.0425976 -8.98648e-07 0)
(0.0425948 -2.10883e-06 0)
(0.0425946 -3.42992e-06 0)
(0.0425942 -4.76548e-06 0)
(0.0425937 -6.09908e-06 0)
(0.0425931 -7.42932e-06 0)
(0.0425924 -8.75e-06 0)
(0.0425917 -1.00633e-05 0)
(0.0425909 -1.13617e-05 0)
(0.0425901 -1.26513e-05 0)
(0.0425892 -1.39205e-05 0)
(0.0425885 -1.51774e-05 0)
(0.0425878 -1.64051e-05 0)
(0.0425873 -1.7608e-05 0)
(0.042587 -1.87723e-05 0)
(0.0425868 -1.99031e-05 0)
(0.0425949 -9.03564e-07 0)
(0.0425921 -2.12234e-06 0)
(0.0425919 -3.45174e-06 0)
(0.0425915 -4.79527e-06 0)
(0.042591 -6.13669e-06 0)
(0.0425904 -7.47378e-06 0)
(0.0425897 -8.80119e-06 0)
(0.042589 -1.01197e-05 0)
(0.0425882 -1.14232e-05 0)
(0.0425874 -1.27162e-05 0)
(0.0425865 -1.39887e-05 0)
(0.0425858 -1.52471e-05 0)
(0.0425851 -1.64764e-05 0)
(0.0425846 -1.76798e-05 0)
(0.0425842 -1.88447e-05 0)
(0.0425841 -1.99768e-05 0)
(0.0425922 -9.09359e-07 0)
(0.0425894 -2.13817e-06 0)
(0.0425891 -3.47734e-06 0)
(0.0425888 -4.83029e-06 0)
(0.0425883 -6.18095e-06 0)
(0.0425877 -7.52628e-06 0)
(0.042587 -8.86169e-06 0)
(0.0425863 -1.01866e-05 0)
(0.0425855 -1.14964e-05 0)
(0.0425847 -1.27934e-05 0)
(0.0425839 -1.407e-05 0)
(0.0425831 -1.53301e-05 0)
(0.0425824 -1.65611e-05 0)
(0.0425819 -1.77646e-05 0)
(0.0425815 -1.89298e-05 0)
(0.0425814 -2.00627e-05 0)
(0.0425895 -9.16151e-07 0)
(0.0425867 -2.15653e-06 0)
(0.0425864 -3.50705e-06 0)
(0.042586 -4.87104e-06 0)
(0.0425856 -6.23252e-06 0)
(0.042585 -7.58769e-06 0)
(0.0425843 -8.93266e-06 0)
(0.0425836 -1.02654e-05 0)
(0.0425828 -1.15829e-05 0)
(0.042582 -1.28852e-05 0)
(0.0425811 -1.4167e-05 0)
(0.0425804 -1.54293e-05 0)
(0.0425797 -1.66625e-05 0)
(0.0425792 -1.78657e-05 0)
(0.0425788 -1.90307e-05 0)
(0.0425787 -2.01635e-05 0)
(0.0425868 -9.24025e-07 0)
(0.0425839 -2.17753e-06 0)
(0.0425836 -3.54109e-06 0)
(0.0425833 -4.91784e-06 0)
(0.0425828 -6.29191e-06 0)
(0.0425822 -7.65872e-06 0)
(0.0425816 -9.01508e-06 0)
(0.0425808 -1.03575e-05 0)
(0.04258 -1.16846e-05 0)
(0.0425792 -1.29937e-05 0)
(0.0425784 -1.42824e-05 0)
(0.0425777 -1.5548e-05 0)
(0.042577 -1.67843e-05 0)
(0.0425764 -1.79872e-05 0)
(0.0425761 -1.91514e-05 0)
(0.0425759 -2.02826e-05 0)
(0.042584 -9.33034e-07 0)
(0.0425811 -2.20115e-06 0)
(0.0425809 -3.57942e-06 0)
(0.0425805 -4.97071e-06 0)
(0.04258 -6.35919e-06 0)
(0.0425795 -7.73961e-06 0)
(0.0425788 -9.10936e-06 0)
(0.0425781 -1.04637e-05 0)
(0.0425773 -1.18025e-05 0)
(0.0425765 -1.31209e-05 0)
(0.0425757 -1.44189e-05 0)
(0.042575 -1.56899e-05 0)
(0.0425743 -1.69316e-05 0)
(0.0425737 -1.81353e-05 0)
(0.0425734 -1.92993e-05 0)
(0.0425732 -2.04276e-05 0)
(0.0425812 -9.43163e-07 0)
(0.0425783 -2.22717e-06 0)
(0.042578 -3.6217e-06 0)
(0.0425777 -5.02919e-06 0)
(0.0425772 -6.43382e-06 0)
(0.0425767 -7.8298e-06 0)
(0.042576 -9.21503e-06 0)
(0.0425753 -1.05836e-05 0)
(0.0425745 -1.19368e-05 0)
(0.0425738 -1.32673e-05 0)
(0.042573 -1.45781e-05 0)
(0.0425722 -1.5858e-05 0)
(0.0425716 -1.71098e-05 0)
(0.042571 -1.83188e-05 0)
(0.0425706 -1.94881e-05 0)
(0.0425704 -2.06176e-05 0)
(0.0425784 -9.54315e-07 0)
(0.0425754 -2.25509e-06 0)
(0.0425752 -3.66714e-06 0)
(0.0425748 -5.09223e-06 0)
(0.0425744 -6.51452e-06 0)
(0.0425738 -7.92783e-06 0)
(0.0425732 -9.33044e-06 0)
(0.0425725 -1.07156e-05 0)
(0.0425718 -1.20857e-05 0)
(0.042571 -1.34313e-05 0)
(0.0425702 -1.47586e-05 0)
(0.0425695 -1.60517e-05 0)
(0.0425688 -1.73194e-05 0)
(0.0425683 -1.85401e-05 0)
(0.0425679 -1.97249e-05 0)
(0.0425677 -2.08676e-05 0)
(0.0425755 -9.66283e-07 0)
(0.0425725 -2.28418e-06 0)
(0.0425723 -3.71456e-06 0)
(0.042572 -5.15818e-06 0)
(0.0425715 -6.59917e-06 0)
(0.042571 -8.03115e-06 0)
(0.0425704 -9.45256e-06 0)
(0.0425697 -1.08562e-05 0)
(0.0425689 -1.22452e-05 0)
(0.0425682 -1.36084e-05 0)
(0.0425674 -1.49548e-05 0)
(0.0425667 -1.62637e-05 0)
(0.0425661 -1.75506e-05 0)
(0.0425655 -1.87851e-05 0)
(0.0425652 -1.99879e-05 0)
(0.042565 -2.11438e-05 0)
(0.0425726 -9.7875e-07 0)
(0.0425696 -2.31341e-06 0)
(0.0425694 -3.76223e-06 0)
(0.042569 -5.22467e-06 0)
(0.0425686 -6.6847e-06 0)
(0.0425681 -8.13598e-06 0)
(0.0425675 -9.5769e-06 0)
(0.0425668 -1.10002e-05 0)
(0.0425661 -1.24093e-05 0)
(0.0425654 -1.37918e-05 0)
(0.0425646 -1.51592e-05 0)
(0.0425639 -1.64855e-05 0)
(0.0425633 -1.77936e-05 0)
(0.0425628 -1.9042e-05 0)
(0.0425624 -2.02631e-05 0)
(0.0425622 -2.14301e-05 0)
(0.0425697 -9.9127e-07 0)
(0.0425666 -2.34146e-06 0)
(0.0425664 -3.80805e-06 0)
(0.0425661 -5.28871e-06 0)
(0.0425657 -6.76727e-06 0)
(0.0425651 -8.23761e-06 0)
(0.0425646 -9.69785e-06 0)
(0.0425639 -1.1141e-05 0)
(0.0425632 -1.25705e-05 0)
(0.0425625 -1.39733e-05 0)
(0.0425618 -1.53621e-05 0)
(0.0425611 -1.67069e-05 0)
(0.0425605 -1.80372e-05 0)
(0.0425601 -1.92984e-05 0)
(0.0425597 -2.05388e-05 0)
(0.0425595 -2.17134e-05 0)
(0.0425667 -1.00328e-06 0)
(0.0425636 -2.36681e-06 0)
(0.0425634 -3.8495e-06 0)
(0.0425631 -5.3468e-06 0)
(0.0425627 -6.84232e-06 0)
(0.0425622 -8.33041e-06 0)
(0.0425616 -9.80863e-06 0)
(0.042561 -1.12709e-05 0)
(0.0425603 -1.27196e-05 0)
(0.0425596 -1.41425e-05 0)
(0.0425589 -1.55522e-05 0)
(0.0425583 -1.6916e-05 0)
(0.0425578 -1.82683e-05 0)
(0.0425573 -1.95415e-05 0)
(0.042557 -2.08031e-05 0)
(0.0425568 -2.19808e-05 0)
(0.0425637 -1.01414e-06 0)
(0.0425605 -2.38775e-06 0)
(0.0425603 -3.88377e-06 0)
(0.04256 -5.39495e-06 0)
(0.0425596 -6.90464e-06 0)
(0.0425591 -8.40786e-06 0)
(0.0425586 -9.90132e-06 0)
(0.042558 -1.13803e-05 0)
(0.0425574 -1.28457e-05 0)
(0.0425567 -1.42871e-05 0)
(0.0425561 -1.57158e-05 0)
(0.0425555 -1.70986e-05 0)
(0.0425549 -1.84716e-05 0)
(0.0425545 -1.9758e-05 0)
(0.0425543 -2.10426e-05 0)
(0.0425541 -2.22161e-05 0)
(0.0425606 -1.0231e-06 0)
(0.0425574 -2.40238e-06 0)
(0.0425572 -3.90774e-06 0)
(0.0425569 -5.42874e-06 0)
(0.0425566 -6.94846e-06 0)
(0.0425561 -8.46277e-06 0)
(0.0425556 -9.96728e-06 0)
(0.042555 -1.14591e-05 0)
(0.0425544 -1.29372e-05 0)
(0.0425538 -1.4394e-05 0)
(0.0425531 -1.58381e-05 0)
(0.0425526 -1.72389e-05 0)
(0.0425521 -1.86304e-05 0)
(0.0425518 -1.99332e-05 0)
(0.0425515 -2.12354e-05 0)
(0.0425515 -2.2392e-05 0)
(0.0425575 -1.02936e-06 0)
(0.0425543 -2.40891e-06 0)
(0.0425541 -3.91849e-06 0)
(0.0425538 -5.44414e-06 0)
(0.0425535 -6.96867e-06 0)
(0.042553 -8.48901e-06 0)
(0.0425525 -9.99953e-06 0)
(0.0425519 -1.14997e-05 0)
(0.0425514 -1.29859e-05 0)
(0.0425508 -1.44533e-05 0)
(0.0425502 -1.59066e-05 0)
(0.0425497 -1.73195e-05 0)
(0.0425493 -1.87215e-05 0)
(0.042549 -2.00338e-05 0)
(0.0425489 -2.1337e-05 0)
(0.0425489 -2.24627e-05 0)
(0.0425544 -1.03215e-06 0)
(0.0425512 -2.40675e-06 0)
(0.042551 -3.91507e-06 0)
(0.0425507 -5.43968e-06 0)
(0.0425503 -6.96316e-06 0)
(0.0425499 -8.48339e-06 0)
(0.0425494 -9.99322e-06 0)
(0.0425489 -1.14949e-05 0)
(0.0425483 -1.29805e-05 0)
(0.0425478 -1.44476e-05 0)
(0.0425473 -1.58955e-05 0)
(0.0425468 -1.73039e-05 0)
(0.0425465 -1.86943e-05 0)
(0.0425463 -1.99939e-05 0)
(0.0425462 -2.12752e-05 0)
(0.0425464 -2.23621e-05 0)
(0.0425512 -1.03121e-06 0)
(0.042548 -2.39433e-06 0)
(0.0425478 -3.89457e-06 0)
(0.0425475 -5.41048e-06 0)
(0.0425472 -6.92409e-06 0)
(0.0425468 -8.43372e-06 0)
(0.0425463 -9.93018e-06 0)
(0.0425458 -1.14172e-05 0)
(0.0425453 -1.28833e-05 0)
(0.0425448 -1.43296e-05 0)
(0.0425443 -1.57489e-05 0)
(0.0425439 -1.71286e-05 0)
(0.0425437 -1.84798e-05 0)
(0.0425436 -1.97431e-05 0)
(0.0425437 -2.09798e-05 0)
(0.0425441 -2.20233e-05 0)
(0.042548 -1.02588e-06 0)
(0.0425448 -2.36372e-06 0)
(0.0425446 -3.84367e-06 0)
(0.0425444 -5.33737e-06 0)
(0.042544 -6.8259e-06 0)
(0.0425437 -8.30765e-06 0)
(0.0425432 -9.77147e-06 0)
(0.0425428 -1.12221e-05 0)
(0.0425423 -1.26455e-05 0)
(0.0425419 -1.40468e-05 0)
(0.0425414 -1.5413e-05 0)
(0.0425411 -1.67395e-05 0)
(0.042541 -1.80276e-05 0)
(0.042541 -1.92342e-05 0)
(0.0425413 -2.04058e-05 0)
(0.0425419 -2.13999e-05 0)
(0.0425449 -1.0128e-06 0)
(0.0425417 -2.30456e-06 0)
(0.0425415 -3.74576e-06 0)
(0.0425413 -5.1979e-06 0)
(0.042541 -6.64102e-06 0)
(0.0425406 -8.07364e-06 0)
(0.0425402 -9.48295e-06 0)
(0.0425398 -1.0875e-05 0)
(0.0425394 -1.22335e-05 0)
(0.042539 -1.35675e-05 0)
(0.0425387 -1.48591e-05 0)
(0.0425385 -1.61126e-05 0)
(0.0425384 -1.73193e-05 0)
(0.0425386 -1.84552e-05 0)
(0.042539 -1.95495e-05 0)
(0.0425398 -2.04946e-05 0)
(0.0425417 -9.87531e-07 0)
(0.0425386 -2.20921e-06 0)
(0.0425385 -3.589e-06 0)
(0.0425383 -4.97688e-06 0)
(0.042538 -6.35224e-06 0)
(0.0425377 -7.71379e-06 0)
(0.0425374 -9.04758e-06 0)
(0.042537 -1.03608e-05 0)
(0.0425367 -1.16354e-05 0)
(0.0425364 -1.28842e-05 0)
(0.0425361 -1.40852e-05 0)
(0.042536 -1.52516e-05 0)
(0.042536 -1.63657e-05 0)
(0.0425363 -1.74235e-05 0)
(0.0425369 -1.84366e-05 0)
(0.0425379 -1.93375e-05 0)
(0.0425387 -9.46777e-07 0)
(0.0425357 -2.0755e-06 0)
(0.0425356 -3.37044e-06 0)
(0.0425354 -4.67128e-06 0)
(0.0425352 -5.95744e-06 0)
(0.0425349 -7.22791e-06 0)
(0.0425347 -8.4681e-06 0)
(0.0425344 -9.68614e-06 0)
(0.0425341 -1.08626e-05 0)
(0.0425339 -1.20134e-05 0)
(0.0425337 -1.31134e-05 0)
(0.0425337 -1.41842e-05 0)
(0.0425339 -1.52e-05 0)
(0.0425343 -1.61772e-05 0)
(0.042535 -1.71093e-05 0)
(0.0425361 -1.79709e-05 0)
(0.0425358 -8.89571e-07 0)
(0.042533 -1.90791e-06 0)
(0.0425329 -3.09753e-06 0)
(0.0425328 -4.29176e-06 0)
(0.0425326 -5.47078e-06 0)
(0.0425324 -6.63396e-06 0)
(0.0425322 -7.76646e-06 0)
(0.042532 -8.87712e-06 0)
(0.0425318 -9.9455e-06 0)
(0.0425316 -1.09903e-05 0)
(0.0425316 -1.19835e-05 0)
(0.0425316 -1.29545e-05 0)
(0.0425319 -1.38705e-05 0)
(0.0425324 -1.47669e-05 0)
(0.0425332 -1.56197e-05 0)
(0.0425344 -1.64451e-05 0)
(0.0425331 -8.17798e-07 0)
(0.0425306 -1.7164e-06 0)
(0.0425306 -2.78629e-06 0)
(0.0425304 -3.86009e-06 0)
(0.0425303 -4.9194e-06 0)
(0.0425301 -5.96394e-06 0)
(0.04253 -6.9792e-06 0)
(0.0425298 -7.97443e-06 0)
(0.0425297 -8.92879e-06 0)
(0.0425296 -9.86292e-06 0)
(0.0425297 -1.07469e-05 0)
(0.0425298 -1.16165e-05 0)
(0.0425301 -1.24333e-05 0)
(0.0425307 -1.32494e-05 0)
(0.0425317 -1.40252e-05 0)
(0.042533 -1.48152e-05 0)
(0.0425307 -7.35732e-07 0)
(0.0425285 -1.514e-06 0)
(0.0425285 -2.45748e-06 0)
(0.0425284 -3.40421e-06 0)
(0.0425283 -4.33761e-06 0)
(0.0425282 -5.25774e-06 0)
(0.0425281 -6.15088e-06 0)
(0.042528 -7.02658e-06 0)
(0.0425279 -7.86423e-06 0)
(0.0425279 -8.68581e-06 0)
(0.042528 -9.46042e-06 0)
(0.0425282 -1.02286e-05 0)
(0.0425286 -1.09479e-05 0)
(0.0425293 -1.16843e-05 0)
(0.0425303 -1.23846e-05 0)
(0.0425316 -1.31377e-05 0)
(0.0425285 -6.48975e-07 0)
(0.0425267 -1.31381e-06 0)
(0.0425267 -2.13204e-06 0)
(0.0425266 -2.95245e-06 0)
(0.0425265 -3.76038e-06 0)
(0.0425265 -4.55612e-06 0)
(0.0425264 -5.32712e-06 0)
(0.0425264 -6.08318e-06 0)
(0.0425264 -6.80453e-06 0)
(0.0425264 -7.51401e-06 0)
(0.0425266 -8.18075e-06 0)
(0.0425269 -8.84867e-06 0)
(0.0425273 -9.47274e-06 0)
(0.042528 -1.01296e-05 0)
(0.042529 -1.07554e-05 0)
(0.0425304 -1.14683e-05 0)
(0.0425267 -5.63167e-07 0)
(0.0425252 -1.12642e-06 0)
(0.0425252 -1.8271e-06 0)
(0.0425251 -2.52837e-06 0)
(0.0425251 -3.21737e-06 0)
(0.042525 -3.89443e-06 0)
(0.042525 -4.54831e-06 0)
(0.042525 -5.18882e-06 0)
(0.0425251 -5.79759e-06 0)
(0.0425252 -6.39789e-06 0)
(0.0425254 -6.95997e-06 0)
(0.0425257 -7.52969e-06 0)
(0.0425262 -8.06134e-06 0)
(0.042527 -8.63856e-06 0)
(0.042528 -9.19069e-06 0)
(0.0425293 -9.85859e-06 0)
(0.0425252 -4.82866e-07 0)
(0.0425239 -9.58453e-07 0)
(0.0425239 -1.55357e-06 0)
(0.0425239 -2.14748e-06 0)
(0.0425239 -2.72889e-06 0)
(0.0425239 -3.29792e-06 0)
(0.0425239 -3.84456e-06 0)
(0.042524 -4.37821e-06 0)
(0.042524 -4.88196e-06 0)
(0.0425242 -5.37907e-06 0)
(0.0425245 -5.84178e-06 0)
(0.0425248 -6.31673e-06 0)
(0.0425253 -6.75945e-06 0)
(0.0425261 -7.25719e-06 0)
(0.042527 -7.73653e-06 0)
(0.0425283 -8.35372e-06 0)
(0.0425239 -4.10902e-07 0)
(0.0425229 -8.12375e-07 0)
(0.0425229 -1.31576e-06 0)
(0.0425229 -1.81638e-06 0)
(0.0425229 -2.30434e-06 0)
(0.042523 -2.77944e-06 0)
(0.042523 -3.23266e-06 0)
(0.0425231 -3.67247e-06 0)
(0.0425232 -4.08319e-06 0)
(0.0425234 -4.48707e-06 0)
(0.0425237 -4.85887e-06 0)
(0.0425241 -5.24466e-06 0)
(0.0425246 -5.6031e-06 0)
(0.0425254 -6.02203e-06 0)
(0.0425262 -6.42966e-06 0)
(0.0425274 -6.99e-06 0)
(0.0425229 -3.48324e-07 0)