/*--------------------------------*- C++ -*----------------------------------*\
| =========                 |                                                 |
| \\      /  F ield         | foam-extend: Open Source CFD                    |
|  \\    /   O peration     | Version:     4.1-20200408                       |
|   \\  /    A nd           | Web:         http://www.foam-extend.org         |
|    \\/     M anipulation  |                                                 |
\*---------------------------------------------------------------------------*/
FoamFile
{
    version     2.0;
    format      ascii;
    class       volVectorField;
    location    "0.0190000";
    object      DU_0;
}
// * * * * * * * * * * * * * * * * * * * * * * * * * * * * * * * * * * * * * //

dimensions      [0 1 0 0 0 0 0];

internalField   nonuniform List<vector> 
1952
(
(5.00046e-05 3.64782e-09 0)
(5.00045e-05 5.90274e-09 0)
(5.00045e-05 8.22908e-09 0)
(5.00045e-05 1.04478e-08 0)
(5.00045e-05 1.27606e-08 0)
(5.00044e-05 1.48861e-08 0)
(5.00043e-05 1.71403e-08 0)
(5.00042e-05 1.91373e-08 0)
(5.00041e-05 2.12734e-08 0)
(5.00039e-05 2.30631e-08 0)
(5.00036e-05 2.49531e-08 0)
(5.00029e-05 2.62816e-08 0)
(5.00018e-05 2.74197e-08 0)
(4.99995e-05 2.76164e-08 0)
(4.99952e-05 2.69102e-08 0)
(5.00046e-05 1.56111e-09 0)
(5.00063e-05 2.9775e-09 0)
(5.00063e-05 4.82338e-09 0)
(5.00063e-05 6.69475e-09 0)
(5.00062e-05 8.501e-09 0)
(5.00061e-05 1.03177e-08 0)
(5.0006e-05 1.20082e-08 0)
(5.00058e-05 1.37031e-08 0)
(5.00056e-05 1.52004e-08 0)
(5.00053e-05 1.66715e-08 0)
(5.00048e-05 1.78371e-08 0)
(5.00041e-05 1.88897e-08 0)
(5.0003e-05 1.94602e-08 0)
(5.00012e-05 1.97456e-08 0)
(4.99984e-05 1.9362e-08 0)
(4.99938e-05 1.86058e-08 0)
(5.00064e-05 1.27542e-09 0)
(5.00076e-05 2.36402e-09 0)
(5.00075e-05 3.82525e-09 0)
(5.00074e-05 5.29075e-09 0)
(5.00073e-05 6.69811e-09 0)
(5.00071e-05 8.07994e-09 0)
(5.00069e-05 9.34756e-09 0)
(5.00067e-05 1.05653e-08 0)
(5.00063e-05 1.15986e-08 0)
(5.00058e-05 1.25392e-08 0)
(5.00051e-05 1.3196e-08 0)
(5.00041e-05 1.36934e-08 0)
(5.00027e-05 1.37856e-08 0)
(5.00007e-05 1.36826e-08 0)
(4.99978e-05 1.31275e-08 0)
(4.9994e-05 1.26645e-08 0)
(5.00076e-05 1.01308e-09 0)
(5.00082e-05 1.79822e-09 0)
(5.00081e-05 2.90352e-09 0)
(5.0008e-05 4.00044e-09 0)
(5.00078e-05 5.03991e-09 0)
(5.00076e-05 6.0373e-09 0)
(5.00072e-05 6.92517e-09 0)
(5.00069e-05 7.74211e-09 0)
(5.00064e-05 8.38674e-09 0)
(5.00057e-05 8.92367e-09 0)
(5.00048e-05 9.21276e-09 0)
(5.00036e-05 9.36292e-09 0)
(5.0002e-05 9.20229e-09 0)
(5e-05 8.95135e-09 0)
(4.99973e-05 8.42618e-09 0)
(4.99939e-05 8.12835e-09 0)
(5.00082e-05 7.70954e-10 0)
(5.00083e-05 1.29164e-09 0)
(5.00082e-05 2.07877e-09 0)
(5.0008e-05 2.85054e-09 0)
(5.00078e-05 3.56547e-09 0)
(5.00075e-05 4.23363e-09 0)
(5.00071e-05 4.79822e-09 0)
(5.00066e-05 5.29024e-09 0)
(5.0006e-05 5.62743e-09 0)
(5.00052e-05 5.86792e-09 0)
(5.00042e-05 5.90365e-09 0)
(5.00029e-05 5.84251e-09 0)
(5.00013e-05 5.55661e-09 0)
(4.99993e-05 5.26409e-09 0)
(4.99969e-05 4.81467e-09 0)
(4.99942e-05 4.64745e-09 0)
(5.00083e-05 5.54037e-10 0)
(5.0008e-05 8.48503e-10 0)
(5.00078e-05 1.35855e-09 0)
(5.00077e-05 1.85024e-09 0)
(5.00074e-05 2.28813e-09 0)
(5.0007e-05 2.6819e-09 0)
(5.00066e-05 2.98206e-09 0)
(5.0006e-05 3.21899e-09 0)
(5.00053e-05 3.3239e-09 0)
(5.00044e-05 3.35486e-09 0)
(5.00033e-05 3.22623e-09 0)
(5.0002e-05 3.04407e-09 0)
(5.00004e-05 2.70922e-09 0)
(4.99986e-05 2.41981e-09 0)
(4.99965e-05 2.04822e-09 0)
(4.99943e-05 1.94503e-09 0)
(5.0008e-05 3.64199e-10 0)
(5.00073e-05 4.70125e-10 0)
(5.00071e-05 7.44845e-10 0)
(5.00069e-05 1.00114e-09 0)
(5.00066e-05 1.20889e-09 0)
(5.00062e-05 1.37961e-09 0)
(5.00057e-05 1.46961e-09 0)
(5.00051e-05 1.51102e-09 0)
(5.00043e-05 1.44526e-09 0)
(5.00034e-05 1.3311e-09 0)
(5.00023e-05 1.09884e-09 0)
(5.00011e-05 8.49393e-10 0)
(4.99996e-05 5.02569e-10 0)
(4.9998e-05 2.30699e-10 0)
(4.99962e-05 -7.75085e-11 0)
(4.99944e-05 -1.45567e-10 0)
(5.00073e-05 2.02031e-10 0)
(5.00063e-05 1.54381e-10 0)
(5.00062e-05 2.33877e-10 0)
(5.00059e-05 2.96857e-10 0)
(5.00056e-05 3.18064e-10 0)
(5.00052e-05 3.11646e-10 0)
(5.00046e-05 2.3877e-10 0)
(5.0004e-05 1.3376e-10 0)
(5.00032e-05 -5.42008e-11 0)
(5.00023e-05 -2.66436e-10 0)
(5.00012e-05 -5.61453e-10 0)
(5.00001e-05 -8.4614e-10 0)
(4.99987e-05 -1.18782e-09 0)
(4.99973e-05 -1.44145e-09 0)
(4.99958e-05 -1.70455e-09 0)
(4.99944e-05 -1.7629e-09 0)
(5.00064e-05 6.66534e-11 0)
(5.00051e-05 -1.03241e-10 0)
(5.0005e-05 -1.82098e-10 0)
(5.00047e-05 -2.74383e-10 0)
(5.00044e-05 -4.01056e-10 0)
(5.00039e-05 -5.45155e-10 0)
(5.00034e-05 -7.41606e-10 0)
(5.00028e-05 -9.54171e-10 0)
(5.0002e-05 -1.22792e-09 0)
(5.00011e-05 -1.50535e-09 0)
(5.00001e-05 -1.8372e-09 0)
(4.9999e-05 -2.13942e-09 0)
(4.99978e-05 -2.47032e-09 0)
(4.99966e-05 -2.70993e-09 0)
(4.99954e-05 -2.94372e-09 0)
(4.99942e-05 -3.00632e-09 0)
(5.00052e-05 -4.38473e-11 0)
(5.00038e-05 -3.08974e-10 0)
(5.00036e-05 -5.13546e-10 0)
(5.00034e-05 -7.27923e-10 0)
(5.0003e-05 -9.69392e-10 0)
(5.00026e-05 -1.21834e-09 0)
(5.0002e-05 -1.5067e-09 0)
(5.00014e-05 -1.79676e-09 0)
(5.00007e-05 -2.12957e-09 0)
(4.99999e-05 -2.44951e-09 0)
(4.99989e-05 -2.80212e-09 0)
(4.9998e-05 -3.11244e-09 0)
(4.99969e-05 -3.43238e-09 0)
(4.99959e-05 -3.66367e-09 0)
(4.99949e-05 -3.88115e-09 0)
(4.9994e-05 -3.95777e-09 0)
(5.00038e-05 -1.32123e-10 0)
(5.00023e-05 -4.69774e-10 0)
(5.00021e-05 -7.72042e-10 0)
(5.00019e-05 -1.08041e-09 0)
(5.00015e-05 -1.40915e-09 0)
(5.00011e-05 -1.73632e-09 0)
(5.00006e-05 -2.09168e-09 0)
(5e-05 -2.43649e-09 0)
(4.99993e-05 -2.80917e-09 0)
(4.99986e-05 -3.15631e-09 0)
(4.99977e-05 -3.52008e-09 0)
(4.99969e-05 -3.83393e-09 0)
(4.9996e-05 -4.14508e-09 0)
(4.99951e-05 -4.37329e-09 0)
(4.99943e-05 -4.58403e-09 0)
(4.99936e-05 -4.68006e-09 0)
(5.00023e-05 -2.01145e-10 0)
(5.00007e-05 -5.92924e-10 0)
(5.00005e-05 -9.69592e-10 0)
(5.00003e-05 -1.34886e-09 0)
(5e-05 -1.74266e-09 0)
(4.99996e-05 -2.12701e-09 0)
(4.99991e-05 -2.53029e-09 0)
(4.99986e-05 -2.913e-09 0)
(4.9998e-05 -3.31206e-09 0)
(4.99973e-05 -3.67622e-09 0)
(4.99966e-05 -4.04569e-09 0)
(4.99958e-05 -4.36115e-09 0)
(4.99951e-05 -4.66643e-09 0)
(4.99944e-05 -4.89581e-09 0)
(4.99937e-05 -5.10674e-09 0)
(4.99932e-05 -5.2251e-09 0)
(5.00008e-05 -2.54025e-10 0)
(4.99991e-05 -6.85374e-10 0)
(4.99989e-05 -1.11758e-09 0)
(4.99987e-05 -1.54926e-09 0)
(4.99984e-05 -1.9906e-09 0)
(4.99981e-05 -2.41589e-09 0)
(4.99976e-05 -2.85273e-09 0)
(4.99972e-05 -3.26108e-09 0)
(4.99966e-05 -3.67718e-09 0)
(4.9996e-05 -4.05171e-09 0)
(4.99954e-05 -4.4239e-09 0)
(4.99948e-05 -4.74036e-09 0)
(4.99941e-05 -5.04254e-09 0)
(4.99935e-05 -5.27617e-09 0)
(4.9993e-05 -5.49186e-09 0)
(4.99926e-05 -5.63344e-09 0)
(4.99991e-05 -2.93737e-10 0)
(4.99974e-05 -7.53632e-10 0)
(4.99973e-05 -1.22663e-09 0)
(4.99971e-05 -1.69637e-09 0)
(4.99968e-05 -2.1719e-09 0)
(4.99965e-05 -2.62594e-09 0)
(4.99961e-05 -3.0859e-09 0)
(4.99957e-05 -3.51121e-09 0)
(4.99952e-05 -3.93811e-09 0)
(4.99948e-05 -4.3188e-09 0)
(4.99942e-05 -4.69228e-09 0)
(4.99937e-05 -5.00979e-09 0)
(4.99931e-05 -5.31119e-09 0)
(4.99927e-05 -5.55103e-09 0)
(4.99923e-05 -5.77433e-09 0)
(4.9992e-05 -5.93872e-09 0)
(4.99975e-05 -3.2307e-10 0)
(4.99958e-05 -8.03467e-10 0)
(4.99956e-05 -1.30608e-09 0)
(4.99955e-05 -1.80316e-09 0)
(4.99952e-05 -2.303e-09 0)
(4.9995e-05 -2.77694e-09 0)
(4.99946e-05 -3.25265e-09 0)
(4.99943e-05 -3.68895e-09 0)
(4.99939e-05 -4.12261e-09 0)
(4.99935e-05 -4.50686e-09 0)
(4.9993e-05 -4.88104e-09 0)
(4.99926e-05 -5.19981e-09 0)
(4.99921e-05 -5.50218e-09 0)
(4.99918e-05 -5.74919e-09 0)
(4.99915e-05 -5.98152e-09 0)
(4.99913e-05 -6.16733e-09 0)
(4.99958e-05 -3.44495e-10 0)
(4.99941e-05 -8.3993e-10 0)
(4.9994e-05 -1.36413e-09 0)
(4.99939e-05 -1.88085e-09 0)
(4.99937e-05 -2.39807e-09 0)
(4.99935e-05 -2.88583e-09 0)
(4.99931e-05 -3.37236e-09 0)
(4.99929e-05 -3.81581e-09 0)
(4.99925e-05 -4.25378e-09 0)
(4.99922e-05 -4.64013e-09 0)
(4.99918e-05 -5.01494e-09 0)
(4.99915e-05 -5.33521e-09 0)
(4.99911e-05 -5.63967e-09 0)
(4.99908e-05 -5.89408e-09 0)
(4.99906e-05 -6.13582e-09 0)
(4.99905e-05 -6.34098e-09 0)
(4.99941e-05 -3.6018e-10 0)
(4.99924e-05 -8.67323e-10 0)
(4.99924e-05 -1.4077e-09 0)
(4.99923e-05 -1.93895e-09 0)
(4.99921e-05 -2.46905e-09 0)
(4.99919e-05 -2.96674e-09 0)
(4.99917e-05 -3.46108e-09 0)
(4.99915e-05 -3.90939e-09 0)
(4.99912e-05 -4.35045e-09 0)
(4.99909e-05 -4.73814e-09 0)
(4.99906e-05 -5.11381e-09 0)
(4.99904e-05 -5.43562e-09 0)
(4.99901e-05 -5.74286e-09 0)
(4.99899e-05 -6.00416e-09 0)
(4.99897e-05 -6.25488e-09 0)
(4.99896e-05 -6.47681e-09 0)
(4.99925e-05 -3.71967e-10 0)
(4.99908e-05 -8.89195e-10 0)
(4.99907e-05 -1.44251e-09 0)
(4.99906e-05 -1.98527e-09 0)
(4.99905e-05 -2.52567e-09 0)
(4.99904e-05 -3.03117e-09 0)
(4.99902e-05 -3.53177e-09 0)
(4.99901e-05 -3.98392e-09 0)
(4.99898e-05 -4.42761e-09 0)
(4.99897e-05 -4.81649e-09 0)
(4.99894e-05 -5.19328e-09 0)
(4.99893e-05 -5.51663e-09 0)
(4.9989e-05 -5.82678e-09 0)
(4.99889e-05 -6.09403e-09 0)
(4.99888e-05 -6.35266e-09 0)
(4.99887e-05 -6.58844e-09 0)
(4.99908e-05 -3.81383e-10 0)
(4.99891e-05 -9.08509e-10 0)
(4.99891e-05 -1.47332e-09 0)
(4.9989e-05 -2.0263e-09 0)
(4.99889e-05 -2.576e-09 0)
(4.99889e-05 -3.08859e-09 0)
(4.99887e-05 -3.59513e-09 0)
(4.99887e-05 -4.05098e-09 0)
(4.99885e-05 -4.49756e-09 0)
(4.99884e-05 -4.88775e-09 0)
(4.99882e-05 -5.26612e-09 0)
(4.99881e-05 -5.59073e-09 0)
(4.9988e-05 -5.90368e-09 0)
(4.99879e-05 -6.17542e-09 0)
(4.99878e-05 -6.44046e-09 0)
(4.99878e-05 -6.68686e-09 0)
(4.99891e-05 -3.89697e-10 0)
(4.99874e-05 -9.27524e-10 0)
(4.99874e-05 -1.50375e-09 0)
(4.99874e-05 -2.06696e-09 0)
(4.99874e-05 -2.62616e-09 0)
(4.99873e-05 -3.14621e-09 0)
(4.99873e-05 -3.65912e-09 0)
(4.99873e-05 -4.11932e-09 0)
(4.99871e-05 -4.56936e-09 0)
(4.99871e-05 -4.96134e-09 0)
(4.9987e-05 -5.34159e-09 0)
(4.9987e-05 -5.66718e-09 0)
(4.99869e-05 -5.98238e-09 0)
(4.99869e-05 -6.25691e-09 0)
(4.99868e-05 -6.52643e-09 0)
(4.99869e-05 -6.78001e-09 0)
(4.99874e-05 -3.97881e-10 0)
(4.99858e-05 -9.48079e-10 0)
(4.99858e-05 -1.53676e-09 0)
(4.99858e-05 -2.11127e-09 0)
(4.99858e-05 -2.68113e-09 0)
(4.99858e-05 -3.20985e-09 0)
(4.99858e-05 -3.73036e-09 0)
(4.99858e-05 -4.196e-09 0)
(4.99858e-05 -4.65057e-09 0)
(4.99859e-05 -5.0449e-09 0)
(4.99858e-05 -5.42753e-09 0)
(4.99859e-05 -5.75355e-09 0)
(4.99858e-05 -6.0704e-09 0)
(4.99859e-05 -6.34562e-09 0)
(4.99858e-05 -6.61747e-09 0)
(4.99859e-05 -6.87455e-09 0)
(4.99857e-05 -4.06724e-10 0)
(4.9984e-05 -9.71359e-10 0)
(4.99841e-05 -1.57425e-09 0)
(4.99841e-05 -2.16183e-09 0)
(4.99842e-05 -2.74408e-09 0)
(4.99843e-05 -3.28328e-09 0)
(4.99843e-05 -3.81292e-09 0)
(4.99844e-05 -4.2856e-09 0)
(4.99844e-05 -4.74579e-09 0)
(4.99846e-05 -5.14329e-09 0)
(4.99846e-05 -5.52859e-09 0)
(4.99847e-05 -5.85455e-09 0)
(4.99847e-05 -6.17208e-09 0)
(4.99848e-05 -6.44579e-09 0)
(4.99848e-05 -6.71749e-09 0)
(4.99849e-05 -6.9742e-09 0)
(4.9984e-05 -4.16735e-10 0)
(4.99823e-05 -9.98211e-10 0)
(4.99824e-05 -1.61758e-09 0)
(4.99824e-05 -2.22049e-09 0)
(4.99825e-05 -2.81735e-09 0)
(4.99827e-05 -3.36924e-09 0)
(4.99828e-05 -3.90999e-09 0)
(4.9983e-05 -4.39148e-09 0)
(4.9983e-05 -4.85873e-09 0)
(4.99833e-05 -5.26023e-09 0)
(4.99833e-05 -5.6487e-09 0)
(4.99836e-05 -5.97389e-09 0)
(4.99836e-05 -6.2912e-09 0)
(4.99838e-05 -6.56089e-09 0)
(4.99838e-05 -6.82987e-09 0)
(4.99839e-05 -7.08205e-09 0)
(4.99823e-05 -4.28278e-10 0)
(4.99805e-05 -1.02883e-09 0)
(4.99806e-05 -1.66705e-09 0)
(4.99807e-05 -2.28772e-09 0)
(4.99808e-05 -2.90148e-09 0)
(4.99811e-05 -3.46848e-09 0)
(4.99812e-05 -4.02227e-09 0)
(4.99815e-05 -4.5146e-09 0)
(4.99817e-05 -4.99024e-09 0)
(4.9982e-05 -5.39676e-09 0)
(4.99821e-05 -5.78871e-09 0)
(4.99824e-05 -6.11253e-09 0)
(4.99825e-05 -6.42847e-09 0)
(4.99827e-05 -6.69155e-09 0)
(4.99828e-05 -6.95497e-09 0)
(4.99829e-05 -7.19828e-09 0)
(4.99805e-05 -4.41437e-10 0)
(4.99787e-05 -1.06301e-09 0)
(4.99788e-05 -1.72238e-09 0)
(4.99789e-05 -2.36315e-09 0)
(4.99791e-05 -2.99605e-09 0)
(4.99794e-05 -3.58057e-09 0)
(4.99796e-05 -4.14942e-09 0)
(4.998e-05 -4.65462e-09 0)
(4.99802e-05 -5.14014e-09 0)
(4.99806e-05 -5.55267e-09 0)
(4.99809e-05 -5.94861e-09 0)
(4.99812e-05 -6.27035e-09 0)
(4.99814e-05 -6.5839e-09 0)
(4.99817e-05 -6.83756e-09 0)
(4.99818e-05 -7.09256e-09 0)
(4.99819e-05 -7.32231e-09 0)
(4.99786e-05 -4.56127e-10 0)
(4.99767e-05 -1.09985e-09 0)
(4.99769e-05 -1.78212e-09 0)
(4.99771e-05 -2.44488e-09 0)
(4.99773e-05 -3.09869e-09 0)
(4.99777e-05 -3.7029e-09 0)
(4.9978e-05 -4.28847e-09 0)
(4.99784e-05 -4.80856e-09 0)
(4.99788e-05 -5.30524e-09 0)
(4.99793e-05 -5.72491e-09 0)
(4.99796e-05 -6.12521e-09 0)
(4.99801e-05 -6.44429e-09 0)
(4.99803e-05 -6.75436e-09 0)
(4.99807e-05 -6.99576e-09 0)
(4.99808e-05 -7.23932e-09 0)
(4.9981e-05 -7.45056e-09 0)
(4.99767e-05 -4.71956e-10 0)
(4.99747e-05 -1.13782e-09 0)
(4.99749e-05 -1.84384e-09 0)
(4.99752e-05 -2.5297e-09 0)
(4.99755e-05 -3.20551e-09 0)
(4.99759e-05 -3.83104e-09 0)
(4.99763e-05 -4.4346e-09 0)
(4.99768e-05 -4.97135e-09 0)
(4.99773e-05 -5.48039e-09 0)
(4.99779e-05 -5.9083e-09 0)
(4.99783e-05 -6.31351e-09 0)
(4.99789e-05 -6.62938e-09 0)
(4.99792e-05 -6.93506e-09 0)
(4.99797e-05 -7.1613e-09 0)
(4.99799e-05 -7.39044e-09 0)
(4.99801e-05 -7.57786e-09 0)
(4.99747e-05 -4.88275e-10 0)
(4.99726e-05 -1.17452e-09 0)
(4.99729e-05 -1.90372e-09 0)
(4.99732e-05 -2.6125e-09 0)
(4.99735e-05 -3.31017e-09 0)
(4.99741e-05 -3.95781e-09 0)
(4.99745e-05 -4.57985e-09 0)
(4.99752e-05 -5.13467e-09 0)
(4.99757e-05 -5.65692e-09 0)
(4.99765e-05 -6.09421e-09 0)
(4.9977e-05 -6.50485e-09 0)
(4.99777e-05 -6.81719e-09 0)
(4.99782e-05 -7.11771e-09 0)
(4.99787e-05 -7.32595e-09 0)
(4.9979e-05 -7.53771e-09 0)
(4.99792e-05 -7.69572e-09 0)
(4.99726e-05 -5.04046e-10 0)
(4.99704e-05 -1.20654e-09 0)
(4.99707e-05 -1.95633e-09 0)
(4.99711e-05 -2.68604e-09 0)
(4.99715e-05 -3.4038e-09 0)
(4.99721e-05 -4.07305e-09 0)
(4.99727e-05 -4.713e-09 0)
(4.99735e-05 -5.28664e-09 0)
(4.99741e-05 -5.82254e-09 0)
(4.9975e-05 -6.27027e-09 0)
(4.99757e-05 -6.68698e-09 0)
(4.99765e-05 -6.99569e-09 0)
(4.99771e-05 -7.29062e-09 0)
(4.99778e-05 -7.47819e-09 0)
(4.99781e-05 -7.6698e-09 0)
(4.99785e-05 -7.7925e-09 0)
(4.99704e-05 -5.17811e-10 0)
(4.99681e-05 -1.22927e-09 0)
(4.99685e-05 -1.99428e-09 0)
(4.99689e-05 -2.7404e-09 0)
(4.99694e-05 -3.47418e-09 0)
(4.99701e-05 -4.16275e-09 0)
(4.99707e-05 -4.81852e-09 0)
(4.99717e-05 -5.41084e-09 0)
(4.99725e-05 -5.96019e-09 0)
(4.99735e-05 -6.41935e-09 0)
(4.99743e-05 -6.84284e-09 0)
(4.99753e-05 -7.14821e-09 0)
(4.9976e-05 -7.43759e-09 0)
(4.99768e-05 -7.60212e-09 0)
(4.99773e-05 -7.77114e-09 0)
(4.99778e-05 -7.85243e-09 0)
(4.99681e-05 -5.27582e-10 0)
(4.99657e-05 -1.23654e-09 0)
(4.99661e-05 -2.00777e-09 0)
(4.99666e-05 -2.76241e-09 0)
(4.99671e-05 -3.50506e-09 0)
(4.99679e-05 -4.20815e-09 0)
(4.99687e-05 -4.87563e-09 0)
(4.99698e-05 -5.48513e-09 0)
(4.99707e-05 -6.04683e-09 0)
(4.99719e-05 -6.51819e-09 0)
(4.99729e-05 -6.94922e-09 0)
(4.99741e-05 -7.25208e-09 0)
(4.9975e-05 -7.53655e-09 0)
(4.9976e-05 -7.67623e-09 0)
(4.99766e-05 -7.82081e-09 0)
(4.99772e-05 -7.85446e-09 0)
(4.99656e-05 -5.30721e-10 0)
(4.99632e-05 -1.22045e-09 0)
(4.99636e-05 -1.98409e-09 0)
(4.99641e-05 -2.73498e-09 0)
(4.99648e-05 -3.47536e-09 0)
(4.99657e-05 -4.1849e-09 0)
(4.99666e-05 -4.85726e-09 0)
(4.99678e-05 -5.48064e-09 0)
(4.99689e-05 -6.05233e-09 0)
(4.99703e-05 -6.53636e-09 0)
(4.99715e-05 -6.97578e-09 0)
(4.99729e-05 -7.27766e-09 0)
(4.9974e-05 -7.55874e-09 0)
(4.99752e-05 -7.67262e-09 0)
(4.9976e-05 -7.79173e-09 0)
(4.99767e-05 -7.7716e-09 0)
(4.99631e-05 -5.23823e-10 0)
(4.99606e-05 -1.1709e-09 0)
(4.9961e-05 -1.90711e-09 0)
(4.99616e-05 -2.63627e-09 0)
(4.99624e-05 -3.35809e-09 0)
(4.99634e-05 -4.06161e-09 0)
(4.99644e-05 -4.72846e-09 0)
(4.99658e-05 -5.35985e-09 0)
(4.99671e-05 -5.93748e-09 0)
(4.99686e-05 -6.43405e-09 0)
(4.99701e-05 -6.88273e-09 0)
(4.99717e-05 -7.18602e-09 0)
(4.9973e-05 -7.46643e-09 0)
(4.99745e-05 -7.55474e-09 0)
(4.99755e-05 -7.64864e-09 0)
(4.99764e-05 -7.56891e-09 0)
(4.99605e-05 -5.02559e-10 0)
(4.9958e-05 -1.07531e-09 0)
(4.99584e-05 -1.75661e-09 0)
(4.99591e-05 -2.43895e-09 0)
(4.99599e-05 -3.11932e-09 0)
(4.9961e-05 -3.79877e-09 0)
(4.99621e-05 -4.44501e-09 0)
(4.99637e-05 -5.07519e-09 0)
(4.99651e-05 -5.6523e-09 0)
(4.99669e-05 -6.16047e-09 0)
(4.99686e-05 -6.6191e-09 0)
(4.99705e-05 -6.92743e-09 0)
(4.99721e-05 -7.21128e-09 0)
(4.99738e-05 -7.27608e-09 0)
(4.99751e-05 -7.34678e-09 0)
(4.99762e-05 -7.20233e-09 0)
(4.99578e-05 -4.61522e-10 0)
(4.99553e-05 -9.18257e-10 0)
(4.99557e-05 -1.50781e-09 0)
(4.99565e-05 -2.10929e-09 0)
(4.99573e-05 -2.71717e-09 0)
(4.99585e-05 -3.34718e-09 0)
(4.99598e-05 -3.9518e-09 0)
(4.99615e-05 -4.56684e-09 0)
(4.99631e-05 -5.13385e-09 0)
(4.99651e-05 -5.65117e-09 0)
(4.99671e-05 -6.12019e-09 0)
(4.99692e-05 -6.43842e-09 0)
(4.99712e-05 -6.73179e-09 0)
(4.99732e-05 -6.77743e-09 0)
(4.99748e-05 -6.82948e-09 0)
(4.99762e-05 -6.61636e-09 0)
(4.99551e-05 -3.94091e-10 0)
(4.99526e-05 -6.81116e-10 0)
(4.99531e-05 -1.13067e-09 0)
(4.99539e-05 -1.60633e-09 0)
(4.99547e-05 -2.10047e-09 0)
(4.99561e-05 -2.64655e-09 0)
(4.99574e-05 -3.18069e-09 0)
(4.99592e-05 -3.76062e-09 0)
(4.99611e-05 -4.30331e-09 0)
(4.99633e-05 -4.82525e-09 0)
(4.99655e-05 -5.30412e-09 0)
(4.9968e-05 -5.63877e-09 0)
(4.99703e-05 -5.94981e-09 0)
(4.99727e-05 -5.98399e-09 0)
(4.99747e-05 -6.02517e-09 0)
(4.99765e-05 -5.74137e-09 0)
(4.99525e-05 -2.92266e-10 0)
(4.99501e-05 -3.41991e-10 0)
(4.99506e-05 -5.89818e-10 0)
(4.99513e-05 -8.81519e-10 0)
(4.99522e-05 -1.20837e-09 0)
(4.99536e-05 -1.62449e-09 0)
(4.9955e-05 -2.04953e-09 0)
(4.99569e-05 -2.56606e-09 0)
(4.99589e-05 -3.06426e-09 0)
(4.99614e-05 -3.58269e-09 0)
(4.99639e-05 -4.06936e-09 0)
(4.99667e-05 -4.42835e-09 0)
(4.99694e-05 -4.76787e-09 0)
(4.99723e-05 -4.80247e-09 0)
(4.99747e-05 -4.84506e-09 0)
(4.9977e-05 -4.49134e-09 0)
(4.99499e-05 -1.46648e-10 0)
(4.99478e-05 1.2443e-10 0)
(4.99482e-05 1.5582e-10 0)
(4.9949e-05 1.21801e-10 0)
(4.99499e-05 3.07355e-11 0)
(4.99512e-05 -1.95243e-10 0)
(4.99527e-05 -4.59901e-10 0)
(4.99547e-05 -8.73913e-10 0)
(4.99568e-05 -1.29868e-09 0)
(4.99594e-05 -1.80014e-09 0)
(4.99622e-05 -2.28934e-09 0)
(4.99654e-05 -2.6818e-09 0)
(4.99686e-05 -3.06304e-09 0)
(4.99719e-05 -3.11542e-09 0)
(4.99749e-05 -3.17737e-09 0)
(4.99778e-05 -2.75862e-09 0)
(4.99476e-05 5.36291e-11 0)
(4.99459e-05 7.46285e-10 0)
(4.99462e-05 1.15208e-09 0)
(4.9947e-05 1.4674e-09 0)
(4.99477e-05 1.698e-09 0)
(4.99491e-05 1.73968e-09 0)
(4.99505e-05 1.70237e-09 0)
(4.99525e-05 1.44446e-09 0)
(4.99547e-05 1.13384e-09 0)
(4.99575e-05 6.71252e-10 0)
(4.99606e-05 1.90216e-10 0)
(4.99641e-05 -2.44923e-10 0)
(4.99677e-05 -6.83242e-10 0)
(4.99717e-05 -7.77539e-10 0)
(4.99753e-05 -8.83994e-10 0)
(4.99789e-05 -4.10823e-10 0)
(4.99457e-05 3.20637e-10 0)
(4.99445e-05 1.55385e-09 0)
(4.99447e-05 2.44861e-09 0)
(4.99454e-05 3.22497e-09 0)
(4.9946e-05 3.88328e-09 0)
(4.99473e-05 4.29079e-09 0)
(4.99485e-05 4.56751e-09 0)
(4.99505e-05 4.53828e-09 0)
(4.99527e-05 4.39906e-09 0)
(4.99556e-05 4.01023e-09 0)
(4.99589e-05 3.55749e-09 0)
(4.99627e-05 3.0729e-09 0)
(4.99669e-05 2.56154e-09 0)
(4.99714e-05 2.39333e-09 0)
(4.99759e-05 2.20847e-09 0)
(4.99803e-05 2.71726e-09 0)
(4.99443e-05 6.67359e-10 0)
(4.99439e-05 2.57768e-09 0)
(4.9944e-05 4.09592e-09 0)
(4.99445e-05 5.4665e-09 0)
(4.99449e-05 6.6808e-09 0)
(4.99459e-05 7.57642e-09 0)
(4.9947e-05 8.27794e-09 0)
(4.99488e-05 8.5745e-09 0)
(4.99509e-05 8.68671e-09 0)
(4.99537e-05 8.42609e-09 0)
(4.99572e-05 8.03747e-09 0)
(4.99613e-05 7.50342e-09 0)
(4.9966e-05 6.90571e-09 0)
(4.99712e-05 6.62261e-09 0)
(4.99766e-05 6.31488e-09 0)
(4.9982e-05 6.82835e-09 0)
(4.99438e-05 1.10688e-09 0)
(4.99443e-05 3.84607e-09 0)
(4.99442e-05 6.14145e-09 0)
(4.99445e-05 8.261e-09 0)
(4.99446e-05 1.01832e-08 0)
(4.99453e-05 1.17164e-08 0)
(4.99461e-05 1.29822e-08 0)
(4.99475e-05 1.37332e-08 0)
(4.99494e-05 1.42078e-08 0)
(4.99521e-05 1.41594e-08 0)
(4.99555e-05 1.38961e-08 0)
(4.99598e-05 1.33282e-08 0)
(4.9965e-05 1.26402e-08 0)
(4.9971e-05 1.21935e-08 0)
(4.99774e-05 1.17068e-08 0)
(4.99841e-05 1.21765e-08 0)
(4.99442e-05 1.65131e-09 0)
(4.99461e-05 5.38108e-09 0)
(4.99457e-05 8.62317e-09 0)
(4.99458e-05 1.1666e-08 0)
(4.99455e-05 1.44713e-08 0)
(4.99457e-05 1.68204e-08 0)
(4.9946e-05 1.88234e-08 0)
(4.9947e-05 2.01966e-08 0)
(4.99484e-05 2.11861e-08 0)
(4.99507e-05 2.14771e-08 0)
(4.9954e-05 2.14409e-08 0)
(4.99584e-05 2.08865e-08 0)
(4.9964e-05 2.01282e-08 0)
(4.99707e-05 1.9469e-08 0)
(4.99783e-05 1.87409e-08 0)
(4.99865e-05 1.90967e-08 0)
(4.99461e-05 2.31004e-09 0)
(4.99495e-05 7.19303e-09 0)
(4.99489e-05 1.15607e-08 0)
(4.99486e-05 1.57154e-08 0)
(4.99478e-05 1.95985e-08 0)
(4.99475e-05 2.29703e-08 0)
(4.9947e-05 2.59191e-08 0)
(4.99474e-05 2.81284e-08 0)
(4.99481e-05 2.98382e-08 0)
(4.99499e-05 3.06564e-08 0)
(4.99527e-05 3.10106e-08 0)
(4.99569e-05 3.05724e-08 0)
(4.99629e-05 2.98118e-08 0)
(4.99703e-05 2.89092e-08 0)
(4.99791e-05 2.78887e-08 0)
(4.99892e-05 2.80363e-08 0)
(4.99496e-05 3.08741e-09 0)
(4.9955e-05 9.27394e-09 0)
(4.99541e-05 1.49445e-08 0)
(4.99533e-05 2.04041e-08 0)
(4.99519e-05 2.55719e-08 0)
(4.99509e-05 3.01964e-08 0)
(4.99496e-05 3.43347e-08 0)
(4.99491e-05 3.76453e-08 0)
(4.99489e-05 4.03447e-08 0)
(4.99498e-05 4.19582e-08 0)
(4.99519e-05 4.29524e-08 0)
(4.99557e-05 4.28216e-08 0)
(4.99616e-05 4.22026e-08 0)
(4.99695e-05 4.10633e-08 0)
(4.99798e-05 3.97168e-08 0)
(4.99921e-05 3.95092e-08 0)
(4.99552e-05 3.97986e-09 0)
(4.99629e-05 1.15891e-08 0)
(4.99616e-05 1.87218e-08 0)
(4.99604e-05 2.5668e-08 0)
(4.99583e-05 3.23249e-08 0)
(4.99565e-05 3.84437e-08 0)
(4.99542e-05 4.40427e-08 0)
(4.99525e-05 4.877e-08 0)
(4.99511e-05 5.28013e-08 0)
(4.99509e-05 5.55803e-08 0)
(4.99519e-05 5.75878e-08 0)
(4.99547e-05 5.80949e-08 0)
(4.99603e-05 5.78918e-08 0)
(4.99684e-05 5.66025e-08 0)
(4.99802e-05 5.48983e-08 0)
(4.99949e-05 5.40504e-08 0)
(4.99632e-05 4.97235e-09 0)
(4.99736e-05 1.40693e-08 0)
(4.99719e-05 2.27835e-08 0)
(4.99701e-05 3.13639e-08 0)
(4.99673e-05 3.96897e-08 0)
(4.99646e-05 4.75341e-08 0)
(4.99612e-05 5.48738e-08 0)
(4.99583e-05 6.13712e-08 0)
(4.99554e-05 6.71478e-08 0)
(4.99536e-05 7.15871e-08 0)
(4.99531e-05 7.51584e-08 0)
(4.99545e-05 7.6884e-08 0)
(4.99591e-05 7.76743e-08 0)
(4.99669e-05 7.66422e-08 0)
(4.99798e-05 7.47832e-08 0)
(4.99974e-05 7.30113e-08 0)
(4.9974e-05 6.03503e-09 0)
(4.99872e-05 1.66032e-08 0)
(4.99852e-05 2.69504e-08 0)
(4.99829e-05 3.72487e-08 0)
(4.99794e-05 4.73657e-08 0)
(4.99757e-05 5.71205e-08 0)
(4.99712e-05 6.6451e-08 0)
(4.99669e-05 7.50697e-08 0)
(4.99624e-05 8.30405e-08 0)
(4.99588e-05 8.97372e-08 0)
(4.99563e-05 9.56157e-08 0)
(4.99557e-05 9.94872e-08 0)
(4.99585e-05 1.02412e-07 0)
(4.99651e-05 1.0289e-07 0)
(4.99783e-05 1.02256e-07 0)
(4.99988e-05 1.0052e-07 0)
(4.99877e-05 7.12005e-09 0)
(5.0004e-05 1.9035e-08 0)
(5.00016e-05 3.09689e-08 0)
(4.99989e-05 4.29697e-08 0)
(4.99947e-05 5.49023e-08 0)
(4.99902e-05 6.66565e-08 0)
(4.99846e-05 7.81373e-08 0)
(4.99789e-05 8.91479e-08 0)
(4.99727e-05 9.96949e-08 0)
(4.99673e-05 1.09216e-07 0)
(4.99625e-05 1.18161e-07 0)
(4.99597e-05 1.25247e-07 0)
(4.99601e-05 1.31785e-07 0)
(4.99646e-05 1.35768e-07 0)
(4.99769e-05 1.39262e-07 0)
(4.99988e-05 1.40977e-07 0)
(5.00046e-05 8.16058e-09 0)
(5.00237e-05 2.11674e-08 0)
(5.00211e-05 3.45143e-08 0)
(5.0018e-05 4.80692e-08 0)
(5.00133e-05 6.17027e-08 0)
(5.00081e-05 7.53969e-08 0)
(5.00015e-05 8.90276e-08 0)
(4.99947e-05 1.02525e-07 0)
(4.99869e-05 1.15825e-07 0)
(4.99797e-05 1.28497e-07 0)
(4.99727e-05 1.40935e-07 0)
(4.99675e-05 1.51862e-07 0)
(4.99653e-05 1.62789e-07 0)
(4.99673e-05 1.7127e-07 0)
(4.99776e-05 1.8026e-07 0)
(4.99981e-05 1.87017e-07 0)
(5.00244e-05 9.072e-09 0)
(5.00462e-05 2.27732e-08 0)
(5.00435e-05 3.72118e-08 0)
(5.00402e-05 5.20139e-08 0)
(5.00351e-05 6.70645e-08 0)
(5.00294e-05 8.24521e-08 0)
(5.00221e-05 9.80275e-08 0)
(5.00142e-05 1.13872e-07 0)
(5.00051e-05 1.29832e-07 0)
(4.99962e-05 1.45655e-07 0)
(4.9987e-05 1.61589e-07 0)
(4.99793e-05 1.76416e-07 0)
(4.9974e-05 1.91608e-07 0)
(4.99729e-05 2.04225e-07 0)
(4.99797e-05 2.17643e-07 0)
(4.99963e-05 2.27432e-07 0)
(5.0047e-05 9.75719e-09 0)
(5.00708e-05 2.36119e-08 0)
(5.00681e-05 3.86618e-08 0)
(5.00647e-05 5.42321e-08 0)
(5.00596e-05 7.02286e-08 0)
(5.00535e-05 8.68552e-08 0)
(5.00458e-05 1.03941e-07 0)
(5.00373e-05 1.21742e-07 0)
(5.00271e-05 1.39993e-07 0)
(5.00167e-05 1.58681e-07 0)
(5.00054e-05 1.77816e-07 0)
(4.99951e-05 1.96366e-07 0)
(4.99861e-05 2.15552e-07 0)
(4.99807e-05 2.32107e-07 0)
(4.99822e-05 2.49585e-07 0)
(4.99925e-05 2.62054e-07 0)
(5.00716e-05 1.01132e-08 0)
(5.00967e-05 2.34521e-08 0)
(5.00941e-05 3.84793e-08 0)
(5.00908e-05 5.41678e-08 0)
(5.00858e-05 7.04508e-08 0)
(5.00798e-05 8.76456e-08 0)
(5.0072e-05 1.05568e-07 0)
(5.00632e-05 1.24658e-07 0)
(5.00524e-05 1.44535e-07 0)
(5.00408e-05 1.65479e-07 0)
(5.00274e-05 1.87196e-07 0)
(5.00144e-05 2.08987e-07 0)
(5.00014e-05 2.31621e-07 0)
(4.99907e-05 2.51777e-07 0)
(4.99854e-05 2.72879e-07 0)
(4.9987e-05 2.87747e-07 0)
(5.00975e-05 1.00411e-08 0)
(5.01228e-05 2.20979e-08 0)
(5.01204e-05 3.63344e-08 0)
(5.01174e-05 5.13376e-08 0)
(5.01128e-05 6.70722e-08 0)
(5.01072e-05 8.39583e-08 0)
(5.00997e-05 1.01807e-07 0)
(5.00909e-05 1.21248e-07 0)
(5.00798e-05 1.41783e-07 0)
(5.00675e-05 1.64052e-07 0)
(5.00525e-05 1.87404e-07 0)
(5.00368e-05 2.11674e-07 0)
(5.00193e-05 2.36972e-07 0)
(5.00027e-05 2.60305e-07 0)
(4.99888e-05 2.84582e-07 0)
(4.99794e-05 3.0165e-07 0)
(5.01234e-05 9.4575e-09 0)
(5.01476e-05 1.94164e-08 0)
(5.01456e-05 3.19988e-08 0)
(5.0143e-05 4.53978e-08 0)
(5.0139e-05 5.96075e-08 0)
(5.0134e-05 7.51281e-08 0)
(5.01272e-05 9.17762e-08 0)
(5.01189e-05 1.10351e-07 0)
(5.01081e-05 1.3027e-07 0)
(5.00955e-05 1.52557e-07 0)
(5.00794e-05 1.76208e-07 0)
(5.00615e-05 2.01794e-07 0)
(5.00396e-05 2.28613e-07 0)
(5.00165e-05 2.54474e-07 0)
(4.99927e-05 2.81281e-07 0)
(4.997e-05 3.00376e-07 0)
(5.01481e-05 8.30573e-09 0)
(5.01697e-05 1.53667e-08 0)
(5.01681e-05 2.53969e-08 0)
(5.01662e-05 3.62147e-08 0)
(5.01629e-05 4.78409e-08 0)
(5.01588e-05 6.08117e-08 0)
(5.01529e-05 7.49547e-08 0)
(5.01456e-05 9.11948e-08 0)
(5.01355e-05 1.08901e-07 0)
(5.01232e-05 1.29461e-07 0)
(5.01066e-05 1.51598e-07 0)
(5.00871e-05 1.76776e-07 0)
(5.00613e-05 2.03442e-07 0)
(5.00319e-05 2.30841e-07 0)
(4.9997e-05 2.59443e-07 0)
(4.9959e-05 2.80866e-07 0)
(5.01701e-05 6.56889e-09 0)
(5.01875e-05 1.0025e-08 0)
(5.01864e-05 1.66407e-08 0)
(5.01851e-05 2.39205e-08 0)
(5.01827e-05 3.18985e-08 0)
(5.01795e-05 4.1087e-08 0)
(5.01748e-05 5.13242e-08 0)
(5.01686e-05 6.35807e-08 0)
(5.01597e-05 7.71972e-08 0)
(5.01482e-05 9.38469e-08 0)
(5.0132e-05 1.12065e-07 0)
(5.01117e-05 1.34294e-07 0)
(5.00831e-05 1.58167e-07 0)
(5.00482e-05 1.8518e-07 0)
(5.0002e-05 2.14193e-07 0)
(4.99461e-05 2.38243e-07 0)
(5.01878e-05 4.27985e-09 0)
(5.01995e-05 3.66797e-09 0)
(5.01988e-05 6.16626e-09 0)
(5.0198e-05 9.09895e-09 0)
(5.01963e-05 1.2492e-08 0)
(5.0194e-05 1.67752e-08 0)
(5.01904e-05 2.17877e-08 0)
(5.01853e-05 2.84407e-08 0)
(5.01777e-05 3.60706e-08 0)
(5.01673e-05 4.64214e-08 0)
(5.01522e-05 5.78907e-08 0)
(5.01323e-05 7.36607e-08 0)
(5.01029e-05 9.05145e-08 0)
(5.00652e-05 1.12797e-07 0)
(5.00102e-05 1.3703e-07 0)
(4.99356e-05 1.596e-07 0)
(5.01997e-05 1.55827e-09 0)
(5.02063e-05 -3.23735e-09 0)
(5.02058e-05 -5.26459e-09 0)
(5.02054e-05 -7.18792e-09 0)
(5.02043e-05 -9.01946e-09 0)
(5.02027e-05 -1.04606e-08 0)
(5.02e-05 -1.17148e-08 0)
(5.01959e-05 -1.20124e-08 0)
(5.01896e-05 -1.21038e-08 0)
(5.01803e-05 -1.04559e-08 0)
(5.01664e-05 -8.88786e-09 0)
(5.0147e-05 -4.39197e-09 0)
(5.01176e-05 -1.3145e-09 0)
(5.00776e-05 6.51413e-09 0)
(5.00135e-05 1.08931e-08 0)
(4.99207e-05 1.5233e-08 0)
(5.02063e-05 -1.39553e-09 0)
(5.02018e-05 -1.04736e-08 0)
(5.02012e-05 -1.72453e-08 0)
(5.02007e-05 -2.43074e-08 0)
(5.01996e-05 -3.17716e-08 0)
(5.0198e-05 -3.95086e-08 0)
(5.01955e-05 -4.78886e-08 0)
(5.01914e-05 -5.63548e-08 0)
(5.01851e-05 -6.59338e-08 0)
(5.01752e-05 -7.53665e-08 0)
(5.01606e-05 -8.69118e-08 0)
(5.01386e-05 -9.81857e-08 0)
(5.01061e-05 -1.1434e-07 0)
(5.00596e-05 -1.29306e-07 0)
(4.99864e-05 -1.54411e-07 0)
(4.98838e-05 -1.7366e-07 0)
(5.02019e-05 -4.49081e-09 0)
(5.01813e-05 -1.79781e-08 0)
(5.01801e-05 -2.96394e-08 0)
(5.01788e-05 -4.19867e-08 0)
(5.01767e-05 -5.52646e-08 0)
(5.01738e-05 -6.95537e-08 0)
(5.01698e-05 -8.54669e-08 0)
(5.01638e-05 -1.02736e-07 0)
(5.01553e-05 -1.22693e-07 0)
(5.01425e-05 -1.44269e-07 0)
(5.01242e-05 -1.70013e-07 0)
(5.00969e-05 -1.97404e-07 0)
(5.00589e-05 -2.31244e-07 0)
(5.00051e-05 -2.64239e-07 0)
(4.99311e-05 -3.06135e-07 0)
(4.98378e-05 -3.32275e-07 0)
(5.01815e-05 -7.69927e-09 0)
(5.01463e-05 -2.52323e-08 0)
(5.01441e-05 -4.15702e-08 0)
(5.01416e-05 -5.88971e-08 0)
(5.01374e-05 -7.75583e-08 0)
(5.01321e-05 -9.78137e-08 0)
(5.01251e-05 -1.205e-07 0)
(5.01154e-05 -1.45643e-07 0)
(5.01026e-05 -1.74719e-07 0)
(5.0085e-05 -2.06794e-07 0)
(5.00617e-05 -2.4434e-07 0)
(5.00293e-05 -2.84322e-07 0)
(4.99885e-05 -3.30257e-07 0)
(4.99344e-05 -3.72918e-07 0)
(4.98711e-05 -4.19408e-07 0)
(4.97996e-05 -4.43912e-07 0)
(5.01468e-05 -1.08011e-08 0)
(5.00973e-05 -3.17611e-08 0)
(5.00941e-05 -5.22634e-08 0)
(5.00898e-05 -7.39346e-08 0)
(5.00832e-05 -9.71071e-08 0)
(5.00746e-05 -1.22086e-07 0)
(5.00635e-05 -1.49833e-07 0)
(5.0049e-05 -1.80587e-07 0)
(5.00308e-05 -2.15706e-07 0)
(5.00075e-05 -2.54302e-07 0)
(4.9979e-05 -2.98487e-07 0)
(4.99433e-05 -3.45144e-07 0)
(4.99034e-05 -3.96407e-07 0)
(4.98566e-05 -4.42623e-07 0)
(4.98116e-05 -4.8846e-07 0)
(4.97679e-05 -5.11013e-07 0)
(5.00982e-05 -1.35939e-08 0)
(5.00363e-05 -3.70993e-08 0)
(5.00319e-05 -6.09986e-08 0)
(5.00258e-05 -8.616e-08 0)
(5.00168e-05 -1.12758e-07 0)
(5.0005e-05 -1.4093e-07 0)
(4.99897e-05 -1.7159e-07 0)
(4.99703e-05 -2.05076e-07 0)
(4.9947e-05 -2.42435e-07 0)
(4.99188e-05 -2.82769e-07 0)
(4.98862e-05 -3.27511e-07 0)
(4.98493e-05 -3.74099e-07 0)
(4.98131e-05 -4.23924e-07 0)
(4.97779e-05 -4.69134e-07 0)
(4.97548e-05 -5.1199e-07 0)
(4.97409e-05 -5.345e-07 0)
(5.00375e-05 -1.58756e-08 0)
(4.99656e-05 -4.08229e-08 0)
(4.996e-05 -6.70691e-08 0)
(4.99524e-05 -9.4597e-08 0)
(4.99415e-05 -1.23401e-07 0)