/*--------------------------------*- C++ -*----------------------------------*\
| =========                 |                                                 |
| \\      /  F ield         | foam-extend: Open Source CFD                    |
|  \\    /   O peration     | Version:     4.1-20200408                       |
|   \\  /    A nd           | Web:         http://www.foam-extend.org         |
|    \\/     M anipulation  |                                                 |
\*---------------------------------------------------------------------------*/
FoamFile
{
    version     2.0;
    format      ascii;
    class       volScalarField;
    location    "0.0190000";
    object      rho_0_0;
}
// * * * * * * * * * * * * * * * * * * * * * * * * * * * * * * * * * * * * * //

dimensions      [1 -3 0 0 0 0 0];

internalField   nonuniform List<scalar> 
1952
(
7822.9
7822.94
7823.05
7823.15
7823.32
7823.46
7823.7
7823.91
7824.17
7824.32
7824.47
7824.28
7824.08
7822.86
7821.14
7822.86
7823.35
7823.39
7823.5
7823.6
7823.77
7823.92
7824.16
7824.37
7824.63
7824.78
7824.92
7824.73
7824.5
7823.2
7821.35
7823.31
7823.75
7823.8
7823.91
7824.01
7824.17
7824.32
7824.56
7824.76
7825.02
7825.16
7825.28
7825.05
7824.78
7823.4
7821.4
7823.72
7824.13
7824.17
7824.28
7824.38
7824.54
7824.68
7824.92
7825.11
7825.36
7825.48
7825.57
7825.31
7824.98
7823.53
7821.42
7824.1
7824.47
7824.51
7824.62
7824.71
7824.87
7825.01
7825.24
7825.42
7825.65
7825.74
7825.81
7825.52
7825.14
7823.62
7821.43
7824.44
7824.78
7824.82
7824.92
7825.02
7825.17
7825.3
7825.52
7825.69
7825.9
7825.97
7826.01
7825.68
7825.26
7823.69
7821.44
7824.75
7825.07
7825.1
7825.2
7825.29
7825.43
7825.56
7825.77
7825.92
7826.12
7826.16
7826.17
7825.81
7825.35
7823.75
7821.44
7825.03
7825.32
7825.36
7825.45
7825.53
7825.67
7825.78
7825.98
7826.12
7826.3
7826.32
7826.31
7825.92
7825.43
7823.79
7821.45
7825.29
7825.55
7825.58
7825.68
7825.75
7825.88
7825.98
7826.17
7826.29
7826.45
7826.46
7826.43
7826.03
7825.51
7823.84
7821.46
7825.52
7825.76
7825.78
7825.87
7825.94
7826.06
7826.17
7826.34
7826.45
7826.6
7826.59
7826.54
7826.12
7825.58
7823.89
7821.47
7825.72
7825.95
7825.97
7826.06
7826.12
7826.24
7826.33
7826.5
7826.6
7826.73
7826.71
7826.64
7826.21
7825.64
7823.93
7821.48
7825.92
7826.12
7826.15
7826.23
7826.28
7826.4
7826.48
7826.64
7826.73
7826.85
7826.82
7826.73
7826.29
7825.7
7823.97
7821.51
7826.09
7826.28
7826.3
7826.38
7826.43
7826.54
7826.62
7826.78
7826.85
7826.96
7826.92
7826.82
7826.36
7825.77
7824.02
7821.54
7826.25
7826.43
7826.44
7826.52
7826.57
7826.68
7826.76
7826.9
7826.97
7827.07
7827.01
7826.91
7826.44
7825.83
7824.07
7821.57
7826.4
7826.56
7826.58
7826.65
7826.7
7826.81
7826.88
7827.02
7827.08
7827.18
7827.11
7826.99
7826.51
7825.89
7824.12
7821.61
7826.54
7826.69
7826.71
7826.78
7826.82
7826.92
7826.99
7827.12
7827.18
7827.27
7827.19
7827.07
7826.59
7825.95
7824.17
7821.66
7826.67
7826.81
7826.82
7826.89
7826.93
7827.03
7827.1
7827.22
7827.28
7827.36
7827.28
7827.14
7826.66
7826.02
7824.23
7821.71
7826.78
7826.92
7826.94
7827
7827.04
7827.14
7827.21
7827.33
7827.37
7827.45
7827.37
7827.22
7826.73
7826.09
7824.29
7821.77
7826.9
7827.04
7827.05
7827.11
7827.15
7827.25
7827.31
7827.43
7827.47
7827.54
7827.45
7827.3
7826.81
7826.16
7824.34
7821.82
7827.01
7827.15
7827.16
7827.22
7827.25
7827.35
7827.42
7827.52
7827.56
7827.63
7827.53
7827.38
7826.88
7826.22
7824.4
7821.88
7827.12
7827.25
7827.26
7827.32
7827.36
7827.45
7827.52
7827.62
7827.65
7827.72
7827.62
7827.45
7826.96
7826.29
7824.46
7821.93
7827.23
7827.36
7827.37
7827.43
7827.46
7827.56
7827.61
7827.71
7827.75
7827.81
7827.7
7827.53
7827.03
7826.36
7824.52
7821.99
7827.34
7827.47
7827.47
7827.53
7827.56
7827.66
7827.71
7827.81
7827.84
7827.89
7827.78
7827.61
7827.1
7826.42
7824.58
7822.04
7827.44
7827.58
7827.58
7827.64
7827.67
7827.76
7827.81
7827.9
7827.92
7827.98
7827.86
7827.68
7827.17
7826.48
7824.63
7822.1
7827.55
7827.69
7827.68
7827.74
7827.77
7827.86
7827.91
7828
7828.01
7828.06
7827.94
7827.75
7827.23
7826.55
7824.69
7822.14
7827.66
7827.8
7827.79
7827.85
7827.88
7827.97
7828.01
7828.09
7828.1
7828.14
7828.01
7827.82
7827.3
7826.61
7824.74
7822.19
7827.77
7827.91
7827.91
7827.97
7827.99
7828.07
7828.11
7828.19
7828.19
7828.23
7828.09
7827.89
7827.36
7826.66
7824.78
7822.23
7827.89
7828.04
7828.03
7828.09
7828.11
7828.18
7828.21
7828.29
7828.28
7828.31
7828.16
7827.96
7827.42
7826.71
7824.82
7822.26
7828.02
7828.17
7828.16
7828.21
7828.23
7828.29
7828.32
7828.39
7828.37
7828.39
7828.24
7828.02
7827.48
7826.76
7824.86
7822.28
7828.15
7828.31
7828.3
7828.34
7828.36
7828.42
7828.43
7828.49
7828.47
7828.48
7828.31
7828.09
7827.53
7826.8
7824.88
7822.3
7828.29
7828.46
7828.45
7828.49
7828.5
7828.55
7828.56
7828.61
7828.57
7828.57
7828.39
7828.15
7827.59
7826.84
7824.9
7822.3
7828.44
7828.63
7828.62
7828.65
7828.65
7828.69
7828.7
7828.73
7828.68
7828.66
7828.47
7828.22
7827.63
7826.87
7824.91
7822.29
7828.61
7828.82
7828.8
7828.83
7828.83
7828.86
7828.85
7828.86
7828.8
7828.76
7828.55
7828.28
7827.68
7826.89
7824.91
7822.26
7828.81
7829.04
7829.01
7829.04
7829.02
7829.04
7829.01
7829.01
7828.93
7828.86
7828.63
7828.34
7827.72
7826.9
7824.89
7822.22
7829.03
7829.28
7829.25
7829.26
7829.23
7829.23
7829.2
7829.17
7829.08
7828.98
7828.72
7828.4
7827.75
7826.91
7824.86
7822.16
7829.27
7829.55
7829.52
7829.52
7829.48
7829.46
7829.41
7829.36
7829.24
7829.11
7828.82
7828.48
7827.79
7826.91
7824.83
7822.09
7829.55
7829.87
7829.83
7829.82
7829.77
7829.73
7829.65
7829.58
7829.43
7829.26
7828.95
7828.56
7827.84
7826.9
7824.78
7821.99
7829.87
7830.24
7830.2
7830.17
7830.11
7830.05
7829.95
7829.84
7829.66
7829.45
7829.09
7828.66
7827.89
7826.9
7824.72
7821.87
7830.24
7830.67
7830.61
7830.58
7830.5
7830.41
7830.29
7830.15
7829.93
7829.68
7829.27
7828.78
7827.95
7826.89
7824.65
7821.73
7830.67
7831.16
7831.1
7831.05
7830.95
7830.84
7830.69
7830.51
7830.26
7829.95
7829.49
7828.94
7828.04
7826.9
7824.58
7821.58
7831.17
7831.73
7831.66
7831.6
7831.48
7831.35
7831.17
7830.95
7830.65
7830.28
7829.76
7829.15
7828.16
7826.93
7824.51
7821.4
7831.74
7832.39
7832.32
7832.24
7832.1
7831.94
7831.73
7831.47
7831.13
7830.7
7830.11
7829.41
7828.34
7826.99
7824.45
7821.21
7832.4
7833.14
7833.07
7832.97
7832.83
7832.64
7832.4
7832.1
7831.71
7831.21
7830.55
7829.76
7828.58
7827.09
7824.42
7821.01
7833.16
7834.01
7833.93
7833.82
7833.66
7833.46
7833.19
7832.85
7832.41
7831.85
7831.11
7830.21
7828.92
7827.27
7824.43
7820.82
7834.03
7834.98
7834.9
7834.79
7834.62
7834.4
7834.11
7833.74
7833.26
7832.63
7831.81
7830.81
7829.39
7827.56
7824.53
7820.66
7835
7836.07
7836
7835.88
7835.71
7835.48
7835.18
7834.79
7834.28
7833.6
7832.71
7831.6
7830.04
7828.01
7824.74
7820.54
7836.09
7837.28
7837.21
7837.1
7836.94
7836.72
7836.42
7836.02
7835.49
7834.78
7833.84
7832.64
7830.95
7828.69
7825.15
7820.52
7837.3
7838.6
7838.55
7838.45
7838.31
7838.11
7837.82
7837.44
7836.92
7836.21
7835.25
7833.99
7832.19
7829.72
7825.89
7820.74
7838.62
7840.03
7839.99
7839.92
7839.81
7839.65
7839.41
7839.07
7838.6
7837.92
7836.98
7835.73
7833.88
7831.28
7827.23
7821.6
7840.04
7841.54
7841.53
7841.49
7841.43
7841.33
7841.15
7840.91
7840.51
7839.94
7839.08
7837.92
7836.13
7833.55
7829.48
7823.7
7841.54
7843.1
7843.12
7843.14
7843.14
7843.12
7843.04
7842.91
7842.65
7842.24
7841.55
7840.58
7838.96
7836.57
7832.67
7826.98
7843.09
7844.69
7844.74
7844.81
7844.89
7844.98
7845.02
7845.06
7844.97
7844.79
7844.35
7843.69
7842.38
7840.37
7836.85
7831.57
7844.66
7846.24
7846.34
7846.47
7846.64
7846.85
7847.04
7847.27
7847.41
7847.52
7847.41
7847.18
7846.31
7844.88
7841.95
7837.39
7846.2
7847.72
7847.86
7848.06
7848.33
7848.67
7849.03
7849.48
7849.87
7850.33
7850.61
7850.91
7850.62
7849.95
7847.83
7844.29
7847.66
7849.06
7849.24
7849.52
7849.89
7850.36
7850.9
7851.58
7852.25
7853.09
7853.81
7854.71
7855.11
7855.39
7854.29
7852.12
7848.99
7850.22
7850.44
7850.78
7851.24
7851.84
7852.55
7853.45
7854.4
7855.62
7856.81
7858.34
7859.51
7860.9
7861.08
7860.79
7850.13
7851.13
7851.38
7851.78
7852.32
7853.03
7853.88
7854.97
7856.17
7857.73
7859.36
7861.5
7863.45
7866.01
7867.6
7869.51
7851.03
7851.75
7852.03
7852.47
7853.07
7853.86
7854.82
7856.05
7857.45
7859.25
7861.21
7863.82
7866.41
7869.99
7872.96
7877.27
7851.65
7852.02
7852.31
7852.76
7853.39
7854.21
7855.21
7856.5
7857.99
7859.92
7862.07
7864.98
7868.04
7872.46
7876.72
7883.83
7851.91
7851.99
7852.29
7852.74
7853.38
7854.19
7855.21
7856.51
7858.04
7860.04
7862.29
7865.34
7868.58
7873.19
7877.62
7884.88
7851.89
7852.11
7852.44
7852.91
7853.58
7854.43
7855.49
7856.85
7858.44
7860.5
7862.81
7865.85
7869.06
7873.39
7877.33
7883.11
7852.01
7852.74
7853.1
7853.6
7854.32
7855.21
7856.34
7857.75
7859.4
7861.48
7863.77
7866.65
7869.6
7873.24
7876.19
7879.83
7852.63
7853.91
7854.29
7854.8
7855.55
7856.49
7857.65
7859.08
7860.75
7862.79
7865.02
7867.64
7870.19
7872.8
7874.27
7875.4
7853.8
7855.52
7855.9
7856.41
7857.18
7858.15
7859.37
7860.81
7862.51
7864.52
7866.63
7868.78
7870.38
7871.38
7871.25
7870.61
7855.41
7857.53
7857.94
7858.46
7859.28
7860.32
7861.65
7863.11
7864.74
7866.37
7867.7
7868.58
7868.78
7868.43
7867.43
7866.15
7857.41
7860.29
7860.75
7861.29
7862.1
7863
7864.04
7865
7865.83
7866.37
7866.58
7866.3
7865.67
7864.81
7863.74
7862.4
7860.15
7862.62
7862.94
7863.26
7863.67
7864
7864.32
7864.49
7864.46
7864.19
7863.78
7863.17
7862.53
7861.66
7860.56
7859.14
7862.5
7862.32
7862.4
7862.44
7862.47
7862.42
7862.34
7862.14
7861.85
7861.49
7861.11
7860.51
7859.8
7858.84
7857.74
7856.33
7862.3
7860.5
7860.47
7860.38
7860.28
7860.18
7860.07
7859.88
7859.6
7859.19
7858.71
7858.04
7857.3
7856.34
7855.27
7853.89
7860.51
7858.62
7858.6
7858.53
7858.43
7858.28
7858.08
7857.8
7857.46
7857
7856.49
7855.82
7855.08
7854.13
7853.09
7851.78
7858.64
7856.84
7856.79
7856.68
7856.55
7856.37
7856.14
7855.84
7855.48
7855.01
7854.48
7853.81
7853.08
7852.16
7851.18
7849.94
7856.86
7855.13
7855.07
7854.96
7854.81
7854.61
7854.36
7854.03
7853.66
7853.18
7852.66
7852
7851.29
7850.42
7849.5
7848.35
7855.15
7853.51
7853.44
7853.32
7853.16
7852.95
7852.69
7852.36
7851.98
7851.51
7851
7850.37
7849.7
7848.87
7848.03
7846.96
7853.53
7851.98
7851.9
7851.78
7851.62
7851.4
7851.14
7850.82
7850.44
7849.99
7849.49
7848.89
7848.27
7847.5
7846.72
7845.74
7852.01
7850.54
7850.46
7850.35
7850.18
7849.97
7849.71
7849.39
7849.04
7848.6
7848.13
7847.57
7846.98
7846.28
7845.56
7844.67
7850.57
7849.21
7849.13
7849.01
7848.85
7848.64
7848.39
7848.09
7847.75
7847.34
7846.9
7846.38
7845.83
7845.19
7844.54
7843.72
7849.23
7847.96
7847.88
7847.77
7847.61
7847.42
7847.18
7846.89
7846.57
7846.19
7845.78
7845.3
7844.8
7844.21
7843.62
7842.88
7847.99
7846.81
7846.73
7846.62
7846.47
7846.29
7846.06
7845.8
7845.49
7845.14
7844.76
7844.32
7843.87
7843.33
7842.8
7842.13
7846.83
7845.74
7845.66
7845.56
7845.42
7845.25
7845.04
7844.79
7844.51
7844.19
7843.84
7843.43
7843.02
7842.54
7842.06
7841.46
7845.76
7844.75
7844.68
7844.59
7844.45
7844.29
7844.1
7843.87
7843.61
7843.31
7843
7842.63
7842.26
7841.82
7841.39
7840.85
7844.77
7843.84
7843.77
7843.69
7843.56
7843.41
7843.23
7843.02
7842.79
7842.52
7842.23
7841.9
7841.56
7841.17
7840.78
7840.29
7843.86
7843
7842.93
7842.85
7842.74
7842.6
7842.44
7842.25
7842.03
7841.79
7841.52
7841.23
7840.92
7840.57
7840.22
7839.78
7843.01
7842.22
7842.16
7842.09
7841.98
7841.86
7841.71
7841.53
7841.34
7841.11
7840.88
7840.61
7840.34
7840.02
7839.71
7839.31
7842.24
7841.5
7841.45
7841.38
7841.28
7841.17
7841.03
7840.88
7840.7
7840.5
7840.29
7840.04
7839.8
7839.52
7839.24
7838.88
7841.52
7840.84
7840.79
7840.73
7840.64
7840.54
7840.41
7840.27
7840.11
7839.93
7839.74
7839.52
7839.3
7839.05
7838.8
7838.47
7840.85
7840.22
7840.18
7840.13
7840.04
7839.95
7839.84
7839.71
7839.57
7839.4
7839.23
7839.04
7838.84
7838.62
7838.39
7838.09
7840.24
7839.66
7839.61
7839.57
7839.49
7839.41
7839.31
7839.19
7839.06
7838.92
7838.76
7838.59
7838.41
7838.21
7838.01
7837.74
7839.67
7839.13
7839.09
7839.05
7838.98
7838.91
7838.82
7838.71
7838.59
7838.46
7838.32
7838.17
7838.01
7837.83
7837.65
7837.4
7839.14
7838.64
7838.61
7838.57
7838.51
7838.44
7838.36
7838.26
7838.16
7838.04
7837.92
7837.78
7837.64
7837.47
7837.31
7837.08
7838.65
7838.19
7838.15
7838.12
7838.07
7838.01
7837.93
7837.85
7837.75
7837.65
7837.54
7837.41
7837.28
7837.14
7836.99
7836.78
7838.2
7837.76
7837.73
7837.7
7837.65
7837.6
7837.53
7837.46
7837.37
7837.28
7837.18
7837.06
7836.95
7836.82
7836.68
7836.49
7837.77
7837.37
7837.34
7837.31
7837.27
7837.22
7837.16
7837.09
7837.02
7836.93
7836.84
7836.74
7836.64
7836.52
7836.39
7836.22
7837.38
7837
7836.98
7836.95
7836.91
7836.87
7836.81
7836.75
7836.68
7836.6
7836.52
7836.43
7836.34
7836.23
7836.12
7835.95
7837.01
7836.65
7836.63
7836.61
7836.57
7836.53
7836.48
7836.43
7836.37
7836.3
7836.22
7836.14
7836.06
7835.96
7835.86
7835.7
7836.66
7836.33
7836.31
7836.29
7836.26
7836.22
7836.18
7836.13
7836.07
7836.01
7835.94
7835.87
7835.79
7835.7
7835.61
7835.46
7836.33
7836.02
7836.01
7835.99
7835.96
7835.93
7835.88
7835.84
7835.79
7835.73
7835.67
7835.6
7835.54
7835.46
7835.37
7835.23
7836.03
7835.74
7835.72
7835.7
7835.68
7835.65
7835.61
7835.57
7835.52
7835.47
7835.42
7835.36
7835.29
7835.22
7835.14
7835.01
7835.74
7835.47
7835.45
7835.44
7835.41
7835.38
7835.35
7835.31
7835.27
7835.22
7835.17
7835.12
7835.06
7834.99
7834.91
7834.79
7835.47
7835.21
7835.2
7835.18
7835.16
7835.14
7835.1
7835.07
7835.03
7834.99
7834.94
7834.89
7834.84
7834.78
7834.7
7834.59
7835.21
7834.97
7834.96
7834.94
7834.92
7834.9
7834.87
7834.84
7834.8
7834.77
7834.72
7834.68
7834.63
7834.57
7834.5
7834.39
7834.97
7834.74
7834.73
7834.72
7834.7
7834.68
7834.65
7834.62
7834.59
7834.55
7834.51
7834.47
7834.42
7834.37
7834.3
7834.19
7834.75
7834.53
7834.52
7834.51
7834.49
7834.47
7834.44
7834.42
7834.38
7834.35
7834.31
7834.27
7834.23
7834.18
7834.11
7834.01
7834.53
7834.33
7834.31
7834.3
7834.29
7834.27
7834.24
7834.22
7834.19
7834.16
7834.12
7834.08
7834.04
7833.99
7833.93
7833.83
7834.33
7834.13
7834.12
7834.11
7834.1
7834.08
7834.06
7834.03
7834
7833.97
7833.94
7833.9
7833.86
7833.82
7833.76
7833.66
7834.14
7833.95
7833.94
7833.93
7833.92
7833.9
7833.88
7833.85
7833.83
7833.8
7833.77
7833.73
7833.69
7833.65
7833.59
7833.49
7833.96
7833.78
7833.77
7833.76
7833.75
7833.73
7833.71
7833.69
7833.66
7833.63
7833.6
7833.56
7833.53
7833.48
7833.42
7833.33
7833.79
7833.62
7833.61
7833.6
7833.59
7833.57
7833.55
7833.53
7833.5
7833.47
7833.44
7833.41
7833.37
7833.32
7833.27
7833.17
7833.63
7833.47
7833.47
7833.46
7833.44
7833.42
7833.4
7833.38
7833.35
7833.32
7833.29
7833.26
7833.22
7833.17
7833.11
7833.02
7833.48
7833.34
7833.33
7833.32
7833.3
7833.28
7833.26
7833.24
7833.21
7833.18
7833.15
7833.11
7833.07
7833.03
7832.97
7832.87
7833.34
7833.21
7833.2
7833.19
7833.17
7833.16
7833.13
7833.11
7833.08
7833.05
7833.02
7832.98
7832.94
7832.89
7832.83
7832.73
7833.21
7833.09
7833.08
7833.07
7833.06
7833.04
7833.02
7832.99
7832.96
7832.93
7832.89
7832.85
7832.81
7832.76
7832.69
7832.59
7833.09
7832.98
7832.97
7832.96
7832.95
7832.93
7832.91
7832.88
7832.85
7832.82
7832.78
7832.74
7832.69
7832.64
7832.56
7832.45
7832.98
7832.88
7832.88
7832.87
7832.85
7832.83
7832.81
7832.78
7832.75
7832.72
7832.68
7832.63
7832.58
7832.52
7832.44
7832.33
7832.89
7832.8
7832.79
7832.78
7832.76
7832.75
7832.72
7832.69
7832.66
7832.63
7832.58
7832.54
7832.48
7832.42
7832.33
7832.21
7832.8
7832.72
7832.71
7832.7
7832.69
7832.67
7832.65
7832.62
7832.59
7832.55
7832.51
7832.46
7832.4
7832.33
7832.23
7832.09
7832.73
7832.66
7832.65
7832.64
7832.63
7832.61
7832.58
7832.56
7832.52
7832.49
7832.44
7832.39
7832.33
7832.25
7832.15
7831.99
7832.66
7832.6
7832.6
7832.59
7832.57
7832.55
7832.53
7832.51
7832.48
7832.44
7832.39
7832.34
7832.28
7832.2
7832.08
7831.91
7832.61
7832.56
7832.55
7832.54
7832.53
7832.51
7832.49
7832.47
7832.44
7832.4
7832.36
7832.31
7832.25
7832.17
7832.05
7831.86
7832.56
7832.52
7832.52
7832.51
7832.5
7832.48
7832.46
7832.44
7832.41
7832.38
7832.35
7832.31
7832.26
7832.2
7832.11
7831.96
7832.52
7832.51
7832.5
7832.49
7832.48
7832.47
7832.45
7832.43
7832.41
7832.38
7832.35
7832.32
7832.28
7832.23
7832.17
7832.07
7832.51
7832.51
7832.5
7832.49
7832.48
7832.47
7832.45
7832.43
7832.41
7832.38
7832.35
7832.32
7832.28
7832.23
7832.17
7832.07
7832.51
7832.51
7832.5
7832.49
7832.48
7832.47
7832.45
7832.43
7832.41
7832.38
7832.35
7832.32
7832.28
7832.23
7832.17
7832.07
7832.51
)
;

boundaryField
{
    wireUpstream
    {
        type            calculated;
        value           nonuniform List<scalar> 
16
(
7832.49
7832.48
7832.48
7832.47
7832.45
7832.44
7832.42
7832.4
7832.38
7832.35
7832.32
7832.29
7832.26
7832.23
7832.21
7832.49
)
;
    }
    wireDownstream
    {
        type            calculated;
        value           nonuniform List<scalar> 
16
(
7822.9
7822.94
7823.05
7823.15
7823.32
7823.46
7823.7
7823.91
7824.17
7824.32
7824.47
7824.28
7824.08
7822.86
7821.14
7822.86
)
;
    }
    wireTopContact
    {
        type            calculated;
        value           nonuniform List<scalar> 
122
(
7821.39
7821.46
7821.5
7821.51
7821.52
7821.52
7821.53
7821.54
7821.56
7821.57
7821.6
7821.63
7821.66
7821.7
7821.75
7821.8
7821.85
7821.91
7821.97
7822.02
7822.08
7822.13
7822.18
7822.23
7822.28
7822.31
7822.35
7822.37
7822.38
7822.38
7822.36
7822.33
7822.29
7822.23
7822.15
7822.05
7821.93
7821.79
7821.62
7821.45
7821.26
7821.06
7820.88
7820.73
7820.64
7820.66
7820.89
7821.73
7823.86
7827.15
7831.78
7837.61
7844.5
7852.28
7860.95
7869.58
7877.17
7884.13
7884.81
7882.79
7879.56
7875.23
7870.62
7866.2
7862.45
7859.18
7856.36
7853.91
7851.79
7849.95
7848.34
7846.95
7845.73
7844.66
7843.71
7842.86
7842.11
7841.44
7840.83
7840.27
7839.76
7839.29
7838.86
7838.45
7838.08
7837.72
7837.38
7837.07
7836.76
7836.48
7836.2
7835.94
7835.69
7835.45
7835.22
7835
7834.78
7834.58
7834.38
7834.19
7834
7833.82
7833.65
7833.48
7833.32
7833.16
7833.01
7832.86
7832.72
7832.58
7832.45
7832.32
7832.2
7832.09
7831.99
7831.91
7831.86
7831.95
7832.03
7832.03
7832.03
7821.19
)
;
    }
    front
    {
        type            wedge;
    }
    back
    {
        type            wedge;
    }
}


// ************************************************************************* //
