/*--------------------------------*- C++ -*----------------------------------*\
| =========                 |                                                 |
| \\      /  F ield         | OpenFOAM: The Open Source CFD Toolbox           |
|  \\    /   O peration     | Version:  4.1                                   |
|   \\  /    A nd           | Web:      www.OpenFOAM.org                      |
|    \\/     M anipulation  |                                                 |
\*---------------------------------------------------------------------------*/
FoamFile
{
    version     2.0;
    format      ascii;
    class       volVectorField;
    location    "0.0100";
    object      cellDisplacement;
}
// * * * * * * * * * * * * * * * * * * * * * * * * * * * * * * * * * * * * * //

dimensions      [0 1 0 0 0 0 0];

internalField   nonuniform List<vector> 
1536
(
(4.9373e-05 -2.5558e-05 8.6484e-09)
(5.2334e-05 -2.1241e-05 7.2512e-09)
(5.4889e-05 -1.648e-05 5.6925e-09)
(5.7007e-05 -1.1519e-05 4.0545e-09)
(5.8666e-05 -6.6138e-06 2.4219e-09)
(5.9851e-05 -2.0005e-06 8.6962e-10)
(6.0556e-05 2.1385e-06 -5.3507e-10)
(6.0789e-05 5.6901e-06 -1.746e-09)
(6.0581e-05 8.5927e-06 -2.7334e-09)
(5.9987e-05 1.0802e-05 -3.4732e-09)
(5.908e-05 1.2277e-05 -3.9433e-09)
(5.7932e-05 1.2989e-05 -4.1337e-09)
(4.9298e-05 -2.2411e-05 3.7441e-06)
(5.225e-05 -1.8637e-05 3.1143e-06)
(5.4798e-05 -1.4474e-05 2.4194e-06)
(5.6912e-05 -1.0137e-05 1.6955e-06)
(5.8568e-05 -5.8471e-06 9.7955e-07)
(5.9752e-05 -1.8089e-06 3.0544e-07)
(6.046e-05 1.8188e-06 -3.0032e-07)
(6.0699e-05 4.935e-06 -8.2078e-07)
(6.0502e-05 7.4827e-06 -1.2462e-06)
(5.9922e-05 9.4215e-06 -1.57e-06)
(5.9029e-05 1.0716e-05 -1.7863e-06)
(5.7892e-05 1.1343e-05 -1.8915e-06)
(4.9245e-05 -1.8954e-05 7.5727e-06)
(5.2191e-05 -1.5768e-05 6.3006e-06)
(5.4735e-05 -1.2255e-05 4.8976e-06)
(5.6845e-05 -8.5944e-06 3.4361e-06)
(5.85e-05 -4.9733e-06 1.9903e-06)
(5.9684e-05 -1.5628e-06 6.2847e-07)
(6.0393e-05 1.5033e-06 -5.9593e-07)
(6.0637e-05 4.1387e-06 -1.6483e-06)
(6.0447e-05 6.2937e-06 -2.5089e-06)
(5.9877e-05 7.9337e-06 -3.1637e-06)
(5.8993e-05 9.0287e-06 -3.6013e-06)
(5.7864e-05 9.5608e-06 -3.8143e-06)
(4.9218e-05 -1.5275e-05 1.1451e-05)
(5.2161e-05 -1.271e-05 9.5291e-06)
(5.4703e-05 -9.8823e-06 7.4092e-06)
(5.6811e-05 -6.9359e-06 5.2007e-06)
(5.8465e-05 -4.021e-06 3.0158e-06)
(5.9649e-05 -1.2748e-06 9.5734e-07)
(6.0358e-05 1.195e-06 -8.9393e-07)
(6.0605e-05 3.3185e-06 -2.4856e-06)
(6.0419e-05 5.0551e-06 -3.7873e-06)
(5.9853e-05 6.3767e-06 -4.7778e-06)
(5.8974e-05 7.2594e-06 -5.4395e-06)
(5.785e-05 7.689e-06 -5.7618e-06)
(4.9218e-05 -1.1451e-05 1.5275e-05)
(5.2161e-05 -9.5292e-06 1.271e-05)
(5.4703e-05 -7.4095e-06 9.8818e-06)
(5.6811e-05 -5.2012e-06 6.9353e-06)
(5.8465e-05 -3.0165e-06 4.0202e-06)
(5.9649e-05 -9.5822e-07 1.2739e-06)
(6.0358e-05 8.9292e-07 -1.196e-06)
(6.0605e-05 2.4845e-06 -3.3196e-06)
(6.0419e-05 3.7861e-06 -5.0562e-06)
(5.9853e-05 4.7767e-06 -6.3777e-06)
(5.8974e-05 5.4385e-06 -7.2603e-06)
(5.785e-05 5.7609e-06 -7.6898e-06)
(4.9245e-05 -7.5724e-06 1.8954e-05)
(5.2191e-05 -6.3005e-06 1.5768e-05)
(5.4735e-05 -4.8978e-06 1.2254e-05)
(5.6845e-05 -3.4365e-06 8.5935e-06)
(5.85e-05 -1.9909e-06 4.9724e-06)
(5.9684e-05 -6.2931e-07 1.5619e-06)
(6.0393e-05 5.9493e-07 -1.5043e-06)
(6.0637e-05 1.6472e-06 -4.1397e-06)
(6.0447e-05 2.5077e-06 -6.2947e-06)
(5.9877e-05 3.1626e-06 -7.9346e-06)
(5.8993e-05 3.6002e-06 -9.0295e-06)
(5.7864e-05 3.8134e-06 -9.5615e-06)
(4.9297e-05 -3.7438e-06 2.2411e-05)
(5.225e-05 -3.1141e-06 1.8636e-05)
(5.4798e-05 -2.4196e-06 1.4473e-05)
(5.6912e-05 -1.6959e-06 1.0136e-05)
(5.8568e-05 -9.8017e-07 5.8461e-06)
(5.9752e-05 -3.0627e-07 1.8079e-06)
(6.046e-05 2.9934e-07 -1.8198e-06)
(6.0699e-05 8.1969e-07 -4.936e-06)
(6.0502e-05 1.2451e-06 -7.4836e-06)
(5.9922e-05 1.5688e-06 -9.4223e-06)
(5.9029e-05 1.7853e-06 -1.0716e-05)
(5.7893e-05 1.8906e-06 -1.1344e-05)
(4.9373e-05 -8.3886e-09 2.5557e-05)
(5.2334e-05 -7.2197e-09 2.124e-05)
(5.4889e-05 -5.895e-09 1.6479e-05)
(5.7007e-05 -4.4835e-09 1.1518e-05)
(5.8666e-05 -3.0575e-09 6.6127e-06)
(5.9851e-05 -1.6827e-09 1.9995e-06)
(6.0556e-05 -4.1515e-10 -2.1395e-06)
(6.0789e-05 7.0765e-10 -5.691e-06)
(6.0581e-05 1.6623e-09 -8.5936e-06)
(5.9987e-05 2.4262e-09 -1.0803e-05)
(5.9081e-05 2.9821e-09 -1.2277e-05)
(5.7933e-05 3.3167e-09 -1.2989e-05)
(4.9298e-05 -2.2411e-05 -3.7293e-06)
(5.225e-05 -1.8636e-05 -3.1018e-06)
(5.4799e-05 -1.4473e-05 -2.4096e-06)
(5.6912e-05 -1.0136e-05 -1.6885e-06)
(5.8568e-05 -5.8468e-06 -9.7532e-07)
(5.9753e-05 -1.8087e-06 -3.0386e-07)
(6.046e-05 1.8189e-06 2.9951e-07)
(6.0699e-05 4.935e-06 8.1789e-07)
(6.0502e-05 7.4825e-06 1.2416e-06)
(5.9922e-05 9.4213e-06 1.5641e-06)
(5.9029e-05 1.0715e-05 1.7797e-06)
(5.7892e-05 1.1343e-05 1.8846e-06)
(4.9215e-05 -1.9136e-05 1.6749e-08)
(5.2158e-05 -1.5923e-05 1.4e-08)
(5.47e-05 -1.238e-05 1.0954e-08)
(5.6808e-05 -8.6881e-06 7.7691e-09)
(5.8461e-05 -5.0349e-06 4.6065e-09)
(5.9645e-05 -1.5925e-06 1.6126e-09)
(6.0355e-05 1.5041e-06 -1.0912e-09)
(6.0602e-05 4.1671e-06 -3.4182e-09)
(6.0417e-05 6.3451e-06 -5.3155e-09)
(5.9851e-05 8.0025e-06 -6.7463e-09)
(5.8973e-05 9.1092e-06 -7.6777e-09)
(5.7849e-05 9.6474e-06 -8.0938e-09)
(4.9159e-05 -1.5603e-05 3.91e-06)
(5.2095e-05 -1.2989e-05 3.2551e-06)
(5.4632e-05 -1.0106e-05 2.533e-06)
(5.6737e-05 -7.1017e-06 1.7805e-06)
(5.8389e-05 -4.1286e-06 1.0358e-06)
(5.9572e-05 -1.3255e-06 3.3372e-07)
(6.0284e-05 1.198e-06 -2.9836e-07)
(6.0536e-05 3.3695e-06 -8.4226e-07)
(6.0358e-05 5.146e-06 -1.2872e-06)
(5.9803e-05 6.4976e-06 -1.6257e-06)
(5.8935e-05 7.4005e-06 -1.852e-06)
(5.7819e-05 7.8407e-06 -1.9624e-06)
(4.913e-05 -1.1833e-05 7.8922e-06)
(5.2064e-05 -9.8522e-06 6.5714e-06)
(5.4598e-05 -7.6683e-06 5.1149e-06)
(5.6701e-05 -5.3928e-06 3.5973e-06)
(5.8351e-05 -3.1405e-06 2.0952e-06)
(5.9535e-05 -1.0165e-06 6.7862e-07)
(6.0248e-05 8.9638e-07 -5.9709e-07)
(6.0502e-05 2.5429e-06 -1.6952e-06)
(6.0329e-05 3.8901e-06 -2.5936e-06)
(5.9778e-05 4.9152e-06 -3.2771e-06)
(5.8915e-05 5.6e-06 -3.7339e-06)
(5.7803e-05 5.9345e-06 -3.957e-06)
(4.913e-05 -7.8916e-06 1.1833e-05)
(5.2064e-05 -6.571e-06 9.8522e-06)
(5.4598e-05 -5.1148e-06 7.6681e-06)
(5.6701e-05 -3.5975e-06 5.3924e-06)
(5.8351e-05 -2.0957e-06 3.1399e-06)
(5.9535e-05 -6.7939e-07 1.0156e-06)
(6.0248e-05 5.9612e-07 -8.9735e-07)
(6.0502e-05 1.6941e-06 -2.544e-06)
(6.0329e-05 2.5924e-06 -3.8912e-06)
(5.9778e-05 3.2759e-06 -4.9163e-06)
(5.8915e-05 3.7327e-06 -5.6011e-06)
(5.7803e-05 3.9559e-06 -5.9354e-06)
(4.9159e-05 -3.909e-06 1.5603e-05)
(5.2095e-05 -3.2545e-06 1.2988e-05)
(5.4632e-05 -2.5327e-06 1.0105e-05)
(5.6737e-05 -1.7806e-06 7.1011e-06)
(5.8388e-05 -1.0362e-06 4.1278e-06)
(5.9572e-05 -3.3443e-07 1.3246e-06)
(6.0284e-05 2.974e-07 -1.199e-06)
(6.0536e-05 8.4112e-07 -3.3705e-06)
(6.0358e-05 1.2859e-06 -5.147e-06)
(5.9803e-05 1.6244e-06 -6.4986e-06)
(5.8935e-05 1.8507e-06 -7.4013e-06)
(5.7819e-05 1.9612e-06 -7.8414e-06)
(4.9215e-05 -1.5676e-08 1.9135e-05)
(5.2158e-05 -1.3276e-08 1.5922e-05)
(5.47e-05 -1.06e-08 1.2379e-05)
(5.6808e-05 -7.7841e-09 8.6872e-06)
(5.8461e-05 -4.9706e-09 5.034e-06)
(5.9645e-05 -2.2899e-09 1.5916e-06)
(6.0355e-05 1.5236e-10 -1.505e-06)
(6.0602e-05 2.2823e-09 -4.168e-06)
(6.0417e-05 4.0569e-09 -6.3459e-06)
(5.9852e-05 5.446e-09 -8.0032e-06)
(5.8973e-05 6.4201e-09 -9.1098e-06)
(5.7849e-05 6.9577e-09 -9.6478e-06)
(4.9297e-05 3.7302e-06 2.2409e-05)
(5.225e-05 3.1023e-06 1.8635e-05)
(5.4798e-05 2.4098e-06 1.4472e-05)
(5.6912e-05 1.6884e-06 1.0135e-05)
(5.8568e-05 9.7491e-07 5.8457e-06)
(5.9752e-05 3.0319e-07 1.8077e-06)
(6.046e-05 -3.004e-07 -1.8198e-06)
(6.0699e-05 -8.1894e-07 -4.9358e-06)
(6.0502e-05 -1.2428e-06 -7.4832e-06)
(5.9922e-05 -1.5653e-06 -9.4218e-06)
(5.9029e-05 -1.7808e-06 -1.0716e-05)
(5.7893e-05 -1.8856e-06 -1.1343e-05)
(4.9245e-05 -1.8957e-05 -7.575e-06)
(5.2191e-05 -1.577e-05 -6.3024e-06)
(5.4735e-05 -1.2256e-05 -4.8989e-06)
(5.6846e-05 -8.5953e-06 -3.4368e-06)
(5.85e-05 -4.9737e-06 -1.9905e-06)
(5.9684e-05 -1.5628e-06 -6.2829e-07)
(6.0393e-05 1.5037e-06 5.9647e-07)
(6.0637e-05 4.1395e-06 1.6492e-06)
(6.0447e-05 6.2948e-06 2.51e-06)
(5.9877e-05 7.935e-06 3.1651e-06)
(5.8993e-05 9.0301e-06 3.6028e-06)
(5.7864e-05 9.5623e-06 3.816e-06)
(4.9159e-05 -1.5601e-05 -3.8951e-06)
(5.2096e-05 -1.2987e-05 -3.2426e-06)
(5.4632e-05 -1.0104e-05 -2.5231e-06)
(5.6737e-05 -7.1006e-06 -1.7734e-06)
(5.8389e-05 -4.1278e-06 -1.0315e-06)
(5.9572e-05 -1.3251e-06 -3.3204e-07)
(6.0284e-05 1.1981e-06 2.9764e-07)
(6.0536e-05 3.3693e-06 8.3948e-07)
(6.0358e-05 5.1455e-06 1.2827e-06)
(5.9803e-05 6.4969e-06 1.62e-06)
(5.8935e-05 7.3997e-06 1.8455e-06)
(5.7819e-05 7.8398e-06 1.9556e-06)
(4.91e-05 -1.1986e-05 1.2886e-08)
(5.203e-05 -9.9817e-06 1.0787e-08)
(5.4562e-05 -7.7714e-06 8.4568e-09)
(5.6663e-05 -5.4685e-06 6.0181e-09)
(5.8312e-05 -3.1888e-06 3.5945e-09)
(5.9496e-05 -1.0384e-06 1.2998e-09)
(6.021e-05 8.9898e-07 -7.7241e-10)
(6.0467e-05 2.5671e-06 -2.5556e-09)
(6.0297e-05 3.9321e-06 -4.0059e-09)
(5.9752e-05 4.9706e-06 -5.0929e-09)
(5.8894e-05 5.6644e-06 -5.7939e-09)
(5.7787e-05 6.0036e-06 -6.098e-09)
(4.907e-05 -8.1282e-06 4.0814e-06)
(5.1996e-05 -6.7703e-06 3.3995e-06)
(5.4525e-05 -5.273e-06 2.6477e-06)
(5.6625e-05 -3.7131e-06 1.8644e-06)
(5.8274e-05 -2.1687e-06 1.089e-06)
(5.9457e-05 -7.1162e-07 3.5738e-07)
(6.0172e-05 6.0157e-07 -3.0196e-07)
(6.0432e-05 1.7327e-06 -8.6983e-07)
(6.0266e-05 2.6582e-06 -1.3345e-06)
(5.9726e-05 3.3625e-06 -1.688e-06)
(5.8874e-05 3.8331e-06 -1.9243e-06)
(5.7771e-05 4.0634e-06 -2.0398e-06)
(4.907e-05 -4.08e-06 8.1291e-06)
(5.1996e-05 -3.3985e-06 6.7708e-06)
(5.4525e-05 -2.6471e-06 5.2732e-06)
(5.6625e-05 -1.8643e-06 3.7129e-06)
(5.8274e-05 -1.0893e-06 2.1683e-06)
(5.9457e-05 -3.5802e-07 7.1091e-07)
(6.0172e-05 3.0101e-07 -6.0252e-07)
(6.0432e-05 8.6865e-07 -1.7338e-06)
(6.0266e-05 1.3332e-06 -2.6595e-06)
(5.9727e-05 1.6866e-06 -3.3637e-06)
(5.8874e-05 1.9229e-06 -3.8343e-06)
(5.7771e-05 2.0386e-06 -4.0645e-06)
(4.91e-05 -1.0992e-08 1.1986e-05)
(5.203e-05 -9.3661e-09 9.9817e-06)
(5.4561e-05 -7.5466e-09 7.7711e-06)
(5.6663e-05 -5.6254e-09 5.468e-06)
(5.8312e-05 -3.699e-09 3.1881e-06)
(5.9496e-05 -1.8579e-09 1.0376e-06)
(6.021e-05 -1.7506e-10 -8.999e-07)
(6.0467e-05 1.3002e-09 -2.5682e-06)
(6.0297e-05 2.5379e-09 -3.9331e-06)
(5.9752e-05 3.5168e-09 -4.9716e-06)
(5.8894e-05 4.2168e-09 -5.6654e-06)
(5.7787e-05 4.6202e-09 -6.0044e-06)
(4.9159e-05 3.8973e-06 1.56e-05)
(5.2095e-05 3.2443e-06 1.2986e-05)
(5.4632e-05 2.5242e-06 1.0103e-05)
(5.6737e-05 1.774e-06 7.0996e-06)
(5.8389e-05 1.0315e-06 4.1269e-06)
(5.9572e-05 3.3154e-07 1.3242e-06)
(6.0284e-05 -2.9858e-07 -1.1989e-06)
(6.0536e-05 -8.4076e-07 -3.3701e-06)
(6.0358e-05 -1.2843e-06 -5.1462e-06)
(5.9803e-05 -1.6217e-06 -6.4975e-06)
(5.8935e-05 -1.8471e-06 -7.4001e-06)
(5.7819e-05 -1.9572e-06 -7.8401e-06)
(4.9245e-05 7.5766e-06 1.8955e-05)
(5.2191e-05 6.3036e-06 1.5769e-05)
(5.4735e-05 4.8996e-06 1.2255e-05)
(5.6845e-05 3.4371e-06 8.5941e-06)
(5.85e-05 1.9904e-06 4.9726e-06)
(5.9684e-05 6.2777e-07 1.5618e-06)
(6.0393e-05 -5.9732e-07 -1.5046e-06)
(6.0637e-05 -1.6503e-06 -4.1402e-06)
(6.0447e-05 -2.5113e-06 -6.2954e-06)
(5.9877e-05 -3.1664e-06 -7.9353e-06)
(5.8993e-05 -3.6042e-06 -9.0303e-06)
(5.7864e-05 -3.8172e-06 -9.5623e-06)
(4.9218e-05 -1.5274e-05 -1.1451e-05)
(5.2161e-05 -1.271e-05 -9.5286e-06)
(5.4703e-05 -9.8816e-06 -7.4087e-06)
(5.6811e-05 -6.9353e-06 -5.2002e-06)
(5.8465e-05 -4.0205e-06 -3.0153e-06)
(5.9649e-05 -1.2744e-06 -9.5695e-07)
(6.0359e-05 1.1952e-06 8.9423e-07)
(6.0605e-05 3.3185e-06 2.4858e-06)
(6.0419e-05 5.055e-06 3.7874e-06)
(5.9853e-05 6.3765e-06 4.778e-06)
(5.8974e-05 7.2591e-06 5.4397e-06)
(5.785e-05 7.6887e-06 5.762e-06)
(4.913e-05 -1.1825e-05 -7.8901e-06)
(5.2064e-05 -9.8456e-06 -6.5695e-06)
(5.4598e-05 -7.6631e-06 -5.1133e-06)
(5.6701e-05 -5.3891e-06 -3.596e-06)
(5.8352e-05 -3.1383e-06 -2.0943e-06)
(5.9535e-05 -1.0156e-06 -6.7808e-07)
(6.0248e-05 8.9595e-07 5.9728e-07)
(6.0502e-05 2.5414e-06 1.6951e-06)
(6.0329e-05 3.8877e-06 2.5932e-06)
(5.9778e-05 4.912e-06 3.2767e-06)
(5.8915e-05 5.5964e-06 3.7334e-06)
(5.7803e-05 5.9306e-06 3.9565e-06)
(4.907e-05 -8.1245e-06 -4.0708e-06)
(5.1996e-05 -6.7671e-06 -3.3906e-06)
(5.4525e-05 -5.2705e-06 -2.6406e-06)
(5.6625e-05 -3.7113e-06 -1.8593e-06)
(5.8274e-05 -2.1677e-06 -1.0859e-06)
(5.9457e-05 -7.1122e-07 -3.5612e-07)
(6.0172e-05 6.0137e-07 3.0152e-07)
(6.0432e-05 1.7319e-06 8.6794e-07)
(6.0266e-05 2.6571e-06 1.3315e-06)
(5.9727e-05 3.361e-06 1.6841e-06)
(5.8874e-05 3.8314e-06 1.9198e-06)
(5.7771e-05 4.0616e-06 2.0352e-06)
(4.9039e-05 -4.1564e-06 3.812e-09)
(5.1962e-05 -3.4627e-06 3.2281e-09)
(5.4488e-05 -2.6979e-06 2.5679e-09)
(5.6586e-05 -1.9011e-06 1.8673e-09)
(5.8234e-05 -1.1122e-06 1.1636e-09)
(5.9417e-05 -3.6767e-07 4.9141e-10)
(6.0133e-05 3.0354e-07 -1.1861e-10)
(6.0395e-05 8.8183e-07 -6.4225e-10)
(6.0235e-05 1.3551e-06 -1.0611e-09)
(5.97e-05 1.7152e-06 -1.362e-09)
(5.8852e-05 1.9559e-06 -1.5356e-09)
(5.7754e-05 2.0739e-06 -1.5785e-09)
(4.9039e-05 -1.7937e-09 4.1582e-06)
(5.1962e-05 -1.696e-09 3.464e-06)
(5.4488e-05 -1.5631e-09 2.6987e-06)
(5.6586e-05 -1.3996e-09 1.9014e-06)
(5.8234e-05 -1.2135e-09 1.112e-06)
(5.9417e-05 -1.0148e-09 3.6708e-07)
(6.0133e-05 -8.1257e-10 -3.0449e-07)
(6.0395e-05 -6.1304e-10 -8.8307e-07)
(6.0235e-05 -4.1893e-10 -1.3566e-06)
(5.97e-05 -2.3356e-10 -1.7167e-06)
(5.8852e-05 -6.5057e-11 -1.9574e-06)
(5.7754e-05 7.5075e-11 -2.0753e-06)
(4.907e-05 4.0739e-06 8.1256e-06)
(5.1996e-05 3.393e-06 6.7679e-06)
(5.4525e-05 2.6423e-06 5.271e-06)
(5.6625e-05 1.8603e-06 3.7113e-06)
(5.8273e-05 1.0861e-06 2.1673e-06)
(5.9457e-05 3.5573e-07 7.1057e-07)
(6.0172e-05 -3.0249e-07 -6.023e-07)
(6.0432e-05 -8.6937e-07 -1.7331e-06)
(6.0266e-05 -1.3332e-06 -2.6584e-06)
(5.9727e-05 -1.6861e-06 -3.3623e-06)
(5.8874e-05 -1.9218e-06 -3.8327e-06)
(5.7771e-05 -2.0372e-06 -4.0628e-06)
(4.913e-05 7.8945e-06 1.1823e-05)
(5.2063e-05 6.5731e-06 9.8439e-06)
(5.4598e-05 5.1159e-06 7.6616e-06)
(5.6701e-05 3.5976e-06 5.3878e-06)
(5.8351e-05 2.0949e-06 3.1372e-06)
(5.9535e-05 6.7785e-07 1.0147e-06)
(6.0248e-05 -5.983e-07 -8.9669e-07)
(6.0502e-05 -1.6967e-06 -2.542e-06)
(6.0329e-05 -2.5954e-06 -3.8881e-06)
(5.9778e-05 -3.2791e-06 -4.9122e-06)
(5.8915e-05 -3.7359e-06 -5.5964e-06)
(5.7803e-05 -3.959e-06 -5.9304e-06)
(4.9217e-05 1.1454e-05 1.5272e-05)
(5.2161e-05 9.5306e-06 1.2707e-05)
(5.4703e-05 7.4101e-06 9.8797e-06)
(5.6811e-05 5.201e-06 6.9337e-06)
(5.8465e-05 3.0155e-06 4.0192e-06)
(5.9649e-05 9.566e-07 1.2735e-06)
(6.0359e-05 -8.9506e-07 -1.1959e-06)
(6.0605e-05 -2.487e-06 -3.319e-06)
(6.0419e-05 -3.7889e-06 -5.0553e-06)
(5.9854e-05 -4.7796e-06 -6.3765e-06)
(5.8975e-05 -5.4414e-06 -7.2589e-06)
(5.785e-05 -5.7636e-06 -7.6882e-06)
(4.9218e-05 -1.1452e-05 -1.5273e-05)
(5.2161e-05 -9.5301e-06 -1.2708e-05)
(5.4703e-05 -7.4101e-06 -9.8802e-06)
(5.6811e-05 -5.2015e-06 -6.934e-06)
(5.8465e-05 -3.0166e-06 -4.0192e-06)
(5.9649e-05 -9.5806e-07 -1.2733e-06)
(6.0359e-05 8.9327e-07 1.1962e-06)
(6.0605e-05 2.485e-06 3.3194e-06)
(6.0419e-05 3.7867e-06 5.0558e-06)
(5.9853e-05 4.7774e-06 6.3772e-06)
(5.8975e-05 5.4392e-06 7.2597e-06)
(5.785e-05 5.7616e-06 7.6893e-06)
(4.913e-05 -7.892e-06 -1.1823e-05)
(5.2064e-05 -6.5713e-06 -9.844e-06)
(5.4598e-05 -5.115e-06 -7.6615e-06)
(5.6701e-05 -3.5976e-06 -5.3877e-06)
(5.8352e-05 -2.0956e-06 -3.137e-06)
(5.9535e-05 -6.7924e-07 -1.0145e-06)
(6.0248e-05 5.9634e-07 8.9695e-07)
(6.0502e-05 1.6943e-06 2.5422e-06)
(6.0329e-05 2.5927e-06 3.8884e-06)
(5.9778e-05 3.2762e-06 4.9126e-06)
(5.8915e-05 3.7331e-06 5.5969e-06)
(5.7803e-05 3.9562e-06 5.9311e-06)
(4.907e-05 -4.0732e-06 -8.1224e-06)
(5.1996e-05 -3.3928e-06 -6.7651e-06)
(5.4525e-05 -2.6427e-06 -5.2687e-06)
(5.6625e-05 -1.8611e-06 -3.7096e-06)
(5.8274e-05 -1.0874e-06 -2.1662e-06)
(5.9457e-05 -3.5733e-07 -7.1002e-07)
(6.0172e-05 3.0061e-07 6.0233e-07)
(6.0432e-05 8.6731e-07 1.7327e-06)
(6.0266e-05 1.3311e-06 2.6576e-06)
(5.9727e-05 1.6839e-06 3.3613e-06)
(5.8874e-05 1.9198e-06 3.8316e-06)
(5.7771e-05 2.0353e-06 4.0618e-06)
(4.9039e-05 8.8515e-10 -4.1536e-06)
(5.1962e-05 5.4274e-10 -3.4601e-06)
(5.4488e-05 1.8923e-10 -2.6956e-06)
(5.6586e-05 -1.5466e-10 -1.8991e-06)
(5.8234e-05 -4.7105e-10 -1.1106e-06)
(5.9417e-05 -7.4657e-10 -3.6641e-07)
(6.0133e-05 -9.7236e-10 3.0444e-07)
(6.0395e-05 -1.1423e-09 8.824e-07)
(6.0235e-05 -1.2508e-09 1.3554e-06)
(5.97e-05 -1.2958e-09 1.7152e-06)
(5.8852e-05 -1.283e-09 1.9558e-06)
(5.7754e-05 -1.2232e-09 2.0736e-06)
(4.9038e-05 4.1555e-06 2.0675e-09)
(5.1962e-05 3.4616e-06 1.7695e-09)
(5.4488e-05 2.6965e-06 1.4248e-09)
(5.6586e-05 1.8995e-06 1.0527e-09)
(5.8233e-05 1.1105e-06 6.7431e-10)
(5.9417e-05 3.6591e-07 3.097e-10)
(6.0133e-05 -3.0532e-07 -2.2373e-11)
(6.0395e-05 -8.8358e-07 -3.055e-10)
(6.0235e-05 -1.3568e-06 -5.2612e-10)
(5.97e-05 -1.7167e-06 -6.7408e-10)
(5.8852e-05 -1.9572e-06 -7.4266e-10)
(5.7754e-05 -2.075e-06 -7.2985e-10)
(4.9069e-05 8.1264e-06 4.078e-06)
(5.1996e-05 6.7683e-06 3.3966e-06)
(5.4525e-05 5.271e-06 2.6454e-06)
(5.6625e-05 3.7111e-06 1.8628e-06)
(5.8273e-05 2.1668e-06 1.088e-06)
(5.9457e-05 7.0975e-07 3.5703e-07)
(6.0172e-05 -6.0331e-07 -3.0177e-07)
(6.0432e-05 -1.7342e-06 -8.6917e-07)
(6.0267e-05 -2.6596e-06 -1.3335e-06)
(5.9727e-05 -3.3636e-06 -1.6867e-06)
(5.8874e-05 -3.834e-06 -1.9227e-06)
(5.7771e-05 -4.0641e-06 -2.0382e-06)
(4.913e-05 1.1833e-05 7.8873e-06)
(5.2063e-05 9.8521e-06 6.5673e-06)
(5.4598e-05 7.6677e-06 5.1116e-06)
(5.6701e-05 5.3918e-06 3.595e-06)
(5.8351e-05 3.1391e-06 2.0938e-06)
(5.9535e-05 1.0148e-06 6.781e-07)
(6.0248e-05 -8.9831e-07 -5.9682e-07)
(6.0502e-05 -2.545e-06 -1.6942e-06)
(6.0329e-05 -3.8922e-06 -2.592e-06)
(5.9778e-05 -4.9172e-06 -3.2752e-06)
(5.8915e-05 -5.602e-06 -3.7316e-06)
(5.7803e-05 -5.9362e-06 -3.9545e-06)
(4.9217e-05 1.5276e-05 1.1448e-05)
(5.2161e-05 1.2711e-05 9.5265e-06)
(5.4703e-05 9.8819e-06 7.4071e-06)
(5.6811e-05 6.935e-06 5.1992e-06)
(5.8464e-05 4.0196e-06 3.0148e-06)
(5.9649e-05 1.2731e-06 9.5695e-07)
(6.0359e-05 -1.1969e-06 -8.9381e-07)
(6.0605e-05 -3.3206e-06 -2.485e-06)
(6.0419e-05 -5.0573e-06 -3.7863e-06)
(5.9853e-05 -6.3789e-06 -4.7766e-06)
(5.8975e-05 -7.2615e-06 -5.4381e-06)
(5.785e-05 -7.6909e-06 -5.7602e-06)
(4.9245e-05 -7.5765e-06 -1.8956e-05)
(5.2191e-05 -6.3039e-06 -1.5769e-05)
(5.4735e-05 -4.9004e-06 -1.2255e-05)
(5.6846e-05 -3.4382e-06 -8.594e-06)
(5.85e-05 -1.9918e-06 -4.9725e-06)
(5.9684e-05 -6.2939e-07 -1.5616e-06)
(6.0393e-05 5.9553e-07 1.5048e-06)
(6.0637e-05 1.6484e-06 4.1405e-06)
(6.0447e-05 2.5093e-06 6.2957e-06)
(5.9877e-05 3.1646e-06 7.9358e-06)
(5.8993e-05 3.6024e-06 9.0309e-06)
(5.7864e-05 3.8156e-06 9.563e-06)
(4.9159e-05 -3.8971e-06 -1.56e-05)
(5.2096e-05 -3.2446e-06 -1.2986e-05)
(5.4632e-05 -2.5249e-06 -1.0103e-05)
(5.6737e-05 -1.775e-06 -7.0993e-06)
(5.8389e-05 -1.0329e-06 -4.1266e-06)
(5.9572e-05 -3.332e-07 -1.3239e-06)
(6.0284e-05 2.9673e-07 1.1991e-06)
(6.0536e-05 8.3879e-07 3.3702e-06)
(6.0358e-05 1.2822e-06 5.1463e-06)
(5.9803e-05 1.6197e-06 6.4977e-06)
(5.8935e-05 1.8453e-06 7.4004e-06)
(5.7819e-05 1.9555e-06 7.8405e-06)
(4.91e-05 1.0067e-08 -1.1985e-05)
(5.203e-05 8.1917e-09 -9.9801e-06)
(5.4561e-05 6.1483e-09 -7.7699e-06)
(5.6663e-05 4.0449e-09 -5.467e-06)
(5.8312e-05 1.9876e-09 -3.1874e-06)
(5.9496e-05 7.0631e-11 -1.0372e-06)
(6.021e-05 -1.6338e-09 9.0003e-07)
(6.0467e-05 -3.0772e-09 2.5681e-06)
(6.0297e-05 -4.228e-09 3.9329e-06)
(5.9752e-05 -5.0663e-09 4.9712e-06)
(5.8894e-05 -5.5849e-09 5.665e-06)
(5.7787e-05 -5.7882e-09 6.0041e-06)
(4.9069e-05 4.0775e-06 -8.1258e-06)
(5.1996e-05 3.396e-06 -6.768e-06)
(5.4525e-05 2.6447e-06 -5.2709e-06)
(5.6625e-05 1.862e-06 -3.7112e-06)
(5.8273e-05 1.0871e-06 -2.1672e-06)
(5.9457e-05 3.5608e-07 -7.1034e-07)
(6.0172e-05 -3.0272e-07 6.0256e-07)
(6.0432e-05 -8.7011e-07 1.7334e-06)
(6.0266e-05 -1.3344e-06 2.6587e-06)
(5.9727e-05 -1.6876e-06 3.3627e-06)
(5.8874e-05 -1.9235e-06 3.8332e-06)
(5.7771e-05 -2.039e-06 4.0635e-06)
(4.9069e-05 8.1245e-06 -4.0742e-06)
(5.1996e-05 6.7668e-06 -3.3934e-06)
(5.4525e-05 5.2698e-06 -2.6428e-06)
(5.6625e-05 3.7102e-06 -1.8609e-06)
(5.8273e-05 2.1663e-06 -1.0868e-06)
(5.9457e-05 7.0958e-07 -3.5647e-07)
(6.0172e-05 -6.0319e-07 3.0172e-07)
(6.0432e-05 -1.7339e-06 8.6861e-07)
(6.0267e-05 -2.659e-06 1.3325e-06)
(5.9727e-05 -3.3629e-06 1.6855e-06)
(5.8874e-05 -3.8331e-06 1.9214e-06)
(5.7771e-05 -4.0632e-06 2.0369e-06)
(4.9099e-05 1.1985e-05 9.5293e-09)
(5.203e-05 9.9806e-06 7.9742e-09)
(5.4561e-05 7.77e-06 6.2467e-09)
(5.6663e-05 5.4669e-06 4.4368e-09)
(5.8312e-05 3.1871e-06 2.6373e-09)
(5.9496e-05 1.0366e-06 9.3388e-10)
(6.021e-05 -9.0075e-07 -6.0312e-10)
(6.0467e-05 -2.5689e-06 -1.9216e-09)
(6.0297e-05 -3.9338e-06 -2.9867e-09)
(5.9752e-05 -4.9721e-06 -3.7745e-09)
(5.8894e-05 -5.6658e-06 -4.2675e-09)
(5.7787e-05 -6.0047e-06 -4.4579e-09)
(4.9158e-05 1.5603e-05 3.9067e-06)
(5.2095e-05 1.2988e-05 3.2524e-06)
(5.4632e-05 1.0105e-05 2.5308e-06)
(5.6737e-05 7.1004e-06 1.7789e-06)
(5.8388e-05 4.127e-06 1.0349e-06)
(5.9572e-05 1.3237e-06 3.3334e-07)
(6.0284e-05 -1.1998e-06 -2.9821e-07)
(6.0536e-05 -3.3714e-06 -8.4165e-07)
(6.0358e-05 -5.1478e-06 -1.2862e-06)
(5.9803e-05 -6.4994e-06 -1.6244e-06)
(5.8935e-05 -7.4021e-06 -1.8504e-06)
(5.7819e-05 -7.8421e-06 -1.9607e-06)
(4.9244e-05 1.8954e-05 7.5702e-06)
(5.2191e-05 1.5768e-05 6.2985e-06)
(5.4735e-05 1.2254e-05 4.896e-06)
(5.6845e-05 8.5931e-06 3.4349e-06)
(5.8499e-05 4.9718e-06 1.9895e-06)
(5.9684e-05 1.5611e-06 6.2815e-07)
(6.0393e-05 -1.5051e-06 -5.9584e-07)
(6.0637e-05 -4.1406e-06 -1.6479e-06)
(6.0447e-05 -6.2957e-06 -2.5081e-06)
(5.9877e-05 -7.9355e-06 -3.1628e-06)
(5.8993e-05 -9.0304e-06 -3.6001e-06)
(5.7864e-05 -9.5623e-06 -3.8131e-06)
(4.9297e-05 -3.7308e-06 -2.241e-05)
(5.225e-05 -3.1033e-06 -1.8635e-05)
(5.4798e-05 -2.4111e-06 -1.4472e-05)
(5.6912e-05 -1.6899e-06 -1.0135e-05)
(5.8568e-05 -9.7655e-07 -5.8456e-06)
(5.9753e-05 -3.0495e-07 -1.8075e-06)
(6.046e-05 2.9857e-07 1.82e-06)
(6.0699e-05 8.1711e-07 4.936e-06)
(6.0502e-05 1.241e-06 7.4835e-06)
(5.9922e-05 1.5636e-06 9.4222e-06)
(5.9029e-05 1.7793e-06 1.0716e-05)
(5.7893e-05 1.8843e-06 1.1344e-05)
(4.9215e-05 1.4726e-08 -1.9135e-05)
(5.2158e-05 1.2068e-08 -1.5922e-05)
(5.47e-05 9.1612e-09 -1.2379e-05)
(5.6808e-05 6.1592e-09 -8.6869e-06)
(5.8461e-05 3.2131e-09 -5.0337e-06)
(5.9645e-05 4.5708e-10 -1.5913e-06)
(6.0355e-05 -2.0039e-09 1.5053e-06)
(6.0602e-05 -4.0986e-09 4.1682e-06)
(6.0417e-05 -5.7847e-09 6.3462e-06)
(5.9852e-05 -7.0331e-09 8.0035e-06)
(5.8973e-05 -7.826e-09 9.1102e-06)
(5.7849e-05 -8.1631e-09 9.6484e-06)
(4.9159e-05 3.907e-06 -1.5603e-05)
(5.2095e-05 3.2524e-06 -1.2988e-05)
(5.4632e-05 2.5305e-06 -1.0105e-05)
(5.6737e-05 1.7785e-06 -7.1007e-06)
(5.8388e-05 1.0342e-06 -4.1274e-06)
(5.9572e-05 3.3247e-07 -1.3243e-06)
(6.0284e-05 -2.9921e-07 1.1992e-06)
(6.0536e-05 -8.4274e-07 3.3707e-06)
(6.0358e-05 -1.2873e-06 5.1471e-06)
(5.9803e-05 -1.6256e-06 6.4988e-06)
(5.8935e-05 -1.8516e-06 7.4016e-06)
(5.7819e-05 -1.9619e-06 7.8418e-06)
(4.913e-05 7.8872e-06 -1.1833e-05)
(5.2063e-05 6.567e-06 -9.8522e-06)
(5.4598e-05 5.1111e-06 -7.668e-06)
(5.6701e-05 3.5943e-06 -5.3922e-06)
(5.8351e-05 2.093e-06 -3.1396e-06)
(5.9535e-05 6.7721e-07 -1.0154e-06)
(6.0248e-05 -5.9777e-07 8.9763e-07)
(6.0502e-05 -1.6952e-06 2.5443e-06)
(6.0329e-05 -2.593e-06 3.8915e-06)
(5.9778e-05 -3.2761e-06 4.9166e-06)
(5.8915e-05 -3.7325e-06 5.6015e-06)
(5.7803e-05 -3.9554e-06 5.936e-06)
(4.913e-05 1.1823e-05 -7.895e-06)
(5.2063e-05 9.8434e-06 -6.5736e-06)
(5.4598e-05 7.6609e-06 -5.1165e-06)
(5.6701e-05 5.387e-06 -3.5983e-06)
(5.8351e-05 3.1363e-06 -2.0956e-06)
(5.9535e-05 1.0138e-06 -6.7858e-07)
(6.0248e-05 -8.976e-07 5.9757e-07)
(6.0502e-05 -2.5429e-06 1.696e-06)
(6.0329e-05 -3.8889e-06 2.5948e-06)
(5.9778e-05 -4.913e-06 3.2786e-06)
(5.8915e-05 -5.5972e-06 3.7356e-06)
(5.7803e-05 -5.9311e-06 3.9589e-06)
(4.9159e-05 1.56e-05 -3.8984e-06)
(5.2095e-05 1.2986e-05 -3.2454e-06)
(5.4632e-05 1.0103e-05 -2.5253e-06)
(5.6737e-05 7.0989e-06 -1.775e-06)
(5.8389e-05 4.1261e-06 -1.0324e-06)
(5.9572e-05 1.3233e-06 -3.3241e-07)
(6.0284e-05 -1.1998e-06 2.978e-07)
(6.0536e-05 -3.3709e-06 8.401e-07)
(6.0358e-05 -5.147e-06 1.2837e-06)
(5.9803e-05 -6.4982e-06 1.6213e-06)
(5.8935e-05 -7.4008e-06 1.847e-06)
(5.7819e-05 -7.8407e-06 1.9572e-06)
(4.9215e-05 1.9135e-05 1.4133e-08)
(5.2158e-05 1.5922e-05 1.1797e-08)
(5.4699e-05 1.2379e-05 9.2116e-09)
(5.6808e-05 8.6866e-06 6.5104e-09)
(5.8461e-05 5.0333e-06 3.8303e-09)
(5.9645e-05 1.5908e-06 1.2949e-09)
(6.0355e-05 -1.5059e-06 -9.9342e-10)
(6.0602e-05 -4.1688e-06 -2.9558e-09)
(6.0417e-05 -6.3468e-06 -4.5458e-09)
(5.9852e-05 -8.004e-06 -5.733e-09)
(5.8973e-05 -9.1105e-06 -6.4893e-09)
(5.7849e-05 -9.6485e-06 -6.8023e-09)
(4.9297e-05 2.2411e-05 3.7422e-06)
(5.2249e-05 1.8636e-05 3.1126e-06)
(5.4798e-05 1.4473e-05 2.4181e-06)
(5.6911e-05 1.0136e-05 1.6945e-06)
(5.8568e-05 5.8456e-06 9.7893e-07)
(5.9752e-05 1.8072e-06 3.0518e-07)
(6.046e-05 -1.8206e-06 -3.0028e-07)
(6.0699e-05 -4.9368e-06 -8.2045e-07)
(6.0502e-05 -7.4844e-06 -1.2456e-06)
(5.9922e-05 -9.4231e-06 -1.5692e-06)
(5.9029e-05 -1.0717e-05 -1.7854e-06)
(5.7893e-05 -1.1344e-05 -1.8905e-06)
(4.9373e-05 7.4102e-09 -2.5557e-05)
(5.2334e-05 5.9716e-09 -2.124e-05)
(5.4889e-05 4.4097e-09 -1.6479e-05)
(5.7007e-05 2.8059e-09 -1.1518e-05)
(5.8666e-05 1.242e-09 -6.6126e-06)
(5.9851e-05 -2.0908e-10 -1.9993e-06)
(6.0556e-05 -1.493e-09 2.1397e-06)
(6.0789e-05 -2.5772e-09 5.6912e-06)
(6.0581e-05 -3.4416e-09 8.5939e-06)
(5.9987e-05 -4.0653e-09 1.0803e-05)
(5.9081e-05 -4.4405e-09 1.2278e-05)
(5.7933e-05 -4.5742e-09 1.299e-05)
(4.9297e-05 3.7425e-06 -2.2411e-05)
(5.225e-05 3.1126e-06 -1.8636e-05)
(5.4798e-05 2.4179e-06 -1.4473e-05)
(5.6912e-05 1.6941e-06 -1.0136e-05)
(5.8568e-05 9.7824e-07 -5.846e-06)
(5.9752e-05 3.0431e-07 -1.8077e-06)
(6.046e-05 -3.0127e-07 1.8201e-06)
(6.0699e-05 -8.2153e-07 4.9362e-06)
(6.0502e-05 -1.2468e-06 7.4839e-06)
(5.9922e-05 -1.5704e-06 9.4227e-06)
(5.9029e-05 -1.7866e-06 1.0717e-05)
(5.7893e-05 -1.8918e-06 1.1344e-05)
(4.9244e-05 7.5705e-06 -1.8954e-05)
(5.2191e-05 6.2984e-06 -1.5768e-05)
(5.4735e-05 4.8957e-06 -1.2254e-05)
(5.6845e-05 3.4343e-06 -8.5934e-06)
(5.8499e-05 1.9888e-06 -4.9722e-06)
(5.9684e-05 6.2727e-07 -1.5616e-06)
(6.0393e-05 -5.9683e-07 1.5045e-06)
(6.0637e-05 -1.649e-06 4.14e-06)
(6.0447e-05 -2.5092e-06 6.2951e-06)
(5.9877e-05 -3.1639e-06 7.935e-06)
(5.8993e-05 -3.6013e-06 9.0301e-06)
(5.7864e-05 -3.8142e-06 9.5622e-06)
(4.9217e-05 1.1448e-05 -1.5276e-05)
(5.2161e-05 9.5263e-06 -1.2711e-05)
(5.4703e-05 7.4067e-06 -9.8823e-06)
(5.6811e-05 5.1986e-06 -6.9355e-06)
(5.8465e-05 3.0141e-06 -4.0202e-06)
(5.9649e-05 9.5607e-07 -1.2737e-06)
(6.0359e-05 -8.9478e-07 1.1963e-06)
(6.0605e-05 -2.4861e-06 3.32e-06)
(6.0419e-05 -3.7874e-06 5.0568e-06)
(5.9853e-05 -4.7776e-06 6.3784e-06)
(5.8975e-05 -5.4391e-06 7.2612e-06)
(5.785e-05 -5.7612e-06 7.6908e-06)
(4.9217e-05 1.5272e-05 -1.1454e-05)
(5.2161e-05 1.2707e-05 -9.5311e-06)
(5.4703e-05 9.8792e-06 -7.4107e-06)
(5.6811e-05 6.9331e-06 -5.2016e-06)
(5.8465e-05 4.0184e-06 -3.0162e-06)
(5.9649e-05 1.2726e-06 -9.5728e-07)
(6.0359e-05 -1.1968e-06 8.9438e-07)
(6.0605e-05 -3.3199e-06 2.4864e-06)
(6.0419e-05 -5.0562e-06 3.7884e-06)
(5.9853e-05 -6.3774e-06 4.7792e-06)
(5.8975e-05 -7.2597e-06 5.4411e-06)
(5.785e-05 -7.6891e-06 5.7635e-06)
(4.9244e-05 1.8955e-05 -7.5775e-06)
(5.2191e-05 1.5769e-05 -6.3045e-06)
(5.4735e-05 1.2255e-05 -4.9005e-06)
(5.6845e-05 8.5935e-06 -3.438e-06)
(5.85e-05 4.9719e-06 -1.9912e-06)
(5.9684e-05 1.561e-06 -6.2858e-07)
(6.0393e-05 -1.5054e-06 5.9657e-07)
(6.0637e-05 -4.1411e-06 1.6496e-06)
(6.0447e-05 -6.2963e-06 2.5107e-06)
(5.9877e-05 -7.9362e-06 3.166e-06)
(5.8993e-05 -9.0311e-06 3.6039e-06)
(5.7865e-05 -9.563e-06 3.8172e-06)
(4.9297e-05 2.2409e-05 -3.7313e-06)
(5.2249e-05 1.8635e-05 -3.1035e-06)
(5.4798e-05 1.4472e-05 -2.411e-06)
(5.6911e-05 1.0135e-05 -1.6895e-06)
(5.8568e-05 5.8451e-06 -9.7592e-07)
(5.9752e-05 1.807e-06 -3.0412e-07)
(6.046e-05 -1.8206e-06 2.9956e-07)
(6.0699e-05 -4.9366e-06 8.1822e-07)
(6.0502e-05 -7.4841e-06 1.2422e-06)
(5.9922e-05 -9.4226e-06 1.5649e-06)
(5.9029e-05 -1.0717e-05 1.7806e-06)
(5.7893e-05 -1.1344e-05 1.8856e-06)
(4.9373e-05 2.5557e-05 7.1184e-09)
(5.2333e-05 2.124e-05 5.949e-09)
(5.4889e-05 1.6478e-05 4.6487e-09)
(5.7006e-05 1.1517e-05 3.2866e-09)
(5.8665e-05 6.6122e-06 1.9317e-09)
(5.9851e-05 1.9989e-06 6.439e-10)
(6.0556e-05 -2.1402e-06 -5.2319e-10)
(6.0789e-05 -5.6918e-06 -1.5184e-09)
(6.0581e-05 -8.5944e-06 -2.3145e-09)
(5.9988e-05 -1.0804e-05 -2.8967e-09)
(5.9081e-05 -1.2278e-05 -3.2454e-09)
(5.7933e-05 -1.299e-05 -3.3556e-09)
(5.8074e-05 1.7424e-05 -1.52e-06)
(5.9264e-05 1.6492e-05 -1.4374e-06)
(6.0222e-05 1.4544e-05 -1.2665e-06)
(6.0866e-05 1.1622e-05 -1.0113e-06)
(6.1114e-05 7.7903e-06 -6.7593e-07)
(6.0904e-05 3.0994e-06 -2.6487e-07)
(6.0207e-05 -2.3858e-06 2.1501e-07)
(5.9017e-05 -8.5235e-06 7.5096e-07)
(5.7348e-05 -1.5065e-05 1.3219e-06)
(5.5214e-05 -2.1685e-05 1.9001e-06)
(5.2636e-05 -2.8035e-05 2.455e-06)
(4.9644e-05 -3.3788e-05 2.9577e-06)
(5.8036e-05 1.5977e-05 -4.2376e-06)
(5.9215e-05 1.5114e-05 -4.0058e-06)
(6.0159e-05 1.3317e-05 -3.5267e-06)
(6.0789e-05 1.0624e-05 -2.8105e-06)
(6.1027e-05 7.0884e-06 -1.8698e-06)
(6.0811e-05 2.7616e-06 -7.1782e-07)
(6.0112e-05 -2.2902e-06 6.2591e-07)
(5.8925e-05 -7.9333e-06 2.1251e-06)
(5.7258e-05 -1.3942e-05 3.7206e-06)
(5.5129e-05 -2.0021e-05 5.335e-06)
(5.2557e-05 -2.5853e-05 6.8841e-06)
(4.9573e-05 -3.1137e-05 8.2877e-06)
(5.8009e-05 1.4162e-05 -6.9658e-06)
(5.918e-05 1.3391e-05 -6.5835e-06)
(6.0114e-05 1.179e-05 -5.7936e-06)
(6.0734e-05 9.3923e-06 -4.6115e-06)
(6.0964e-05 6.2438e-06 -3.0596e-06)
(6.0745e-05 2.3914e-06 -1.1605e-06)
(6.0045e-05 -2.1023e-06 1.0541e-06)
(5.8858e-05 -7.1165e-06 3.524e-06)
(5.7194e-05 -1.2452e-05 6.151e-06)
(5.5067e-05 -1.7848e-05 8.808e-06)
(5.2499e-05 -2.3025e-05 1.1357e-05)
(4.9522e-05 -2.7716e-05 1.3667e-05)
(5.7994e-05 1.201e-05 -9.5865e-06)
(5.9161e-05 1.1352e-05 -9.0603e-06)
(6.009e-05 9.9905e-06 -7.972e-06)
(6.0705e-05 7.9506e-06 -6.3425e-06)
(6.0931e-05 5.2728e-06 -4.2036e-06)
(6.0709e-05 1.9971e-06 -1.5871e-06)
(6.0009e-05 -1.8224e-06 1.4636e-06)
(5.8822e-05 -6.082e-06 4.8655e-06)
(5.7159e-05 -1.0612e-05 8.483e-06)
(5.5034e-05 -1.5193e-05 1.2141e-05)
(5.2469e-05 -1.9588e-05 1.565e-05)
(4.9494e-05 -2.3571e-05 1.8831e-05)