/*--------------------------------*- C++ -*----------------------------------*\
| =========                 |                                                 |
| \\      /  F ield         | foam-extend: Open Source CFD                    |
|  \\    /   O peration     | Version:     4.1-20200408                       |
|   \\  /    A nd           | Web:         http://www.foam-extend.org         |
|    \\/     M anipulation  |                                                 |
\*---------------------------------------------------------------------------*/
FoamFile
{
    version     2.0;
    format      ascii;
    class       volScalarField;
    location    "0.0340000";
    object      epsilonPEq;
}
// * * * * * * * * * * * * * * * * * * * * * * * * * * * * * * * * * * * * * //

dimensions      [0 0 0 0 0 0 0];

internalField   nonuniform List<scalar> 
1952
(
0.0234093
0.0234448
0.0235097
0.0235746
0.0236547
0.0237112
0.0237505
0.0237012
0.0235702
0.0232313
0.0226885
0.0217067
0.0203519
0.0185416
0.0170036
0.0233817
0.0234838
0.0235195
0.0235844
0.0236493
0.0237296
0.0237862
0.0238256
0.0237758
0.0236442
0.0233042
0.0227597
0.0217753
0.0204167
0.0186061
0.0170692
0.0234561
0.0235584
0.023594
0.023659
0.0237241
0.0238045
0.0238612
0.0239008
0.0238505
0.0237186
0.0233775
0.0228315
0.0218444
0.0204821
0.0186692
0.0171335
0.0235305
0.0236316
0.0236673
0.0237326
0.0237978
0.0238782
0.0239352
0.0239747
0.0239239
0.0237918
0.0234495
0.0229016
0.0219117
0.0205454
0.0187316
0.017198
0.0236036
0.0237046
0.0237402
0.023806
0.0238713
0.0239519
0.0240091
0.0240482
0.0239968
0.0238647
0.0235211
0.0229711
0.0219784
0.0206081
0.0187949
0.0172629
0.0236764
0.0237781
0.0238134
0.0238801
0.0239456
0.0240262
0.0240835
0.0241225
0.024071
0.0239384
0.0235935
0.0230418
0.0220464
0.0206722
0.0188574
0.0173273
0.0237501
0.0238509
0.023886
0.0239533
0.0240189
0.0240996
0.0241571
0.0241959
0.0241445
0.0240111
0.023665
0.0231114
0.0221132
0.0207402
0.0189204
0.0173913
0.023823
0.0239238
0.023959
0.0240263
0.024092
0.0241729
0.0242305
0.0242693
0.0242179
0.0240838
0.0237365
0.0231811
0.0221799
0.0208088
0.018984
0.0174558
0.0238957
0.0239966
0.0240321
0.0240994
0.0241651
0.0242463
0.0243039
0.0243428
0.0242915
0.0241568
0.0238085
0.0232512
0.0222469
0.0208769
0.0190477
0.0175209
0.0239684
0.0240695
0.0241051
0.0241726
0.0242384
0.0243198
0.0243776
0.0244165
0.0243653
0.02423
0.0238806
0.0233215
0.0223177
0.0209453
0.0191117
0.0175865
0.0240412
0.0241426
0.0241784
0.024246
0.024312
0.0243935
0.0244515
0.0244906
0.0244395
0.0243039
0.0239531
0.0233922
0.0223898
0.0210139
0.0191757
0.0176521
0.0241142
0.0242156
0.0242515
0.0243194
0.0243855
0.0244673
0.0245256
0.0245648
0.0245138
0.0243779
0.0240258
0.0234626
0.0224613
0.0210825
0.01924
0.0177171
0.024187
0.0242888
0.024325
0.0243931
0.0244595
0.0245415
0.0246001
0.0246395
0.0245886
0.0244523
0.0240986
0.023533
0.0225327
0.0211517
0.0193047
0.017782
0.0242602
0.0243625
0.0243989
0.0244674
0.024534
0.0246163
0.0246751
0.0247147
0.0246638
0.0245269
0.0241718
0.0236036
0.0226041
0.0212212
0.0193697
0.0178474
0.0243337
0.0244368
0.0244735
0.0245421
0.0246089
0.0246915
0.0247506
0.0247904
0.0247394
0.0246019
0.0242453
0.0236744
0.0226744
0.0212894
0.0194334
0.0179127
0.0244079
0.0245106
0.0245476
0.0246164
0.0246834
0.0247663
0.0248255
0.0248653
0.0248142
0.0246758
0.0243176
0.0237468
0.0227445
0.0213569
0.0194964
0.017978
0.0244816
0.0245845
0.0246217
0.0246908
0.024758
0.024841
0.0249003
0.02494
0.0248888
0.0247493
0.0243893
0.023822
0.0228168
0.0214264
0.0195609
0.0180435
0.0245554
0.0246599
0.0246974
0.0247665
0.024834
0.0249171
0.0249767
0.0250164
0.0249651
0.0248248
0.0244631
0.0238972
0.0228899
0.0214966
0.0196255
0.0181087
0.0246306
0.0247356
0.0247732
0.0248425
0.0249103
0.0249935
0.0250534
0.0250931
0.0250418
0.0249008
0.024537
0.0239717
0.0229623
0.0215661
0.0196897
0.0181742
0.0247061
0.0248112
0.0248488
0.0249181
0.0249866
0.02507
0.0251299
0.0251697
0.0251181
0.0249763
0.0246117
0.0240462
0.0230348
0.0216358
0.0197545
0.0182404
0.0247816
0.0248874
0.0249248
0.0249938
0.0250632
0.0251468
0.0252067
0.0252465
0.0251944
0.0250518
0.0246885
0.0241208
0.0231071
0.0217051
0.019819
0.0183067
0.0248577
0.0249635
0.0250008
0.0250698
0.0251397
0.0252234
0.0252833
0.0253232
0.0252706
0.025127
0.0247652
0.0241956
0.0231795
0.0217742
0.0198835
0.0183727
0.0249336
0.0250395
0.025077
0.0251465
0.0252163
0.0253001
0.02536
0.0253998
0.0253468
0.0252019
0.0248419
0.024271
0.0232526
0.021844
0.0199486
0.018439
0.0250096
0.025116
0.0251536
0.0252234
0.0252933
0.0253772
0.0254372
0.0254769
0.0254235
0.0252772
0.0249186
0.0243469
0.0233261
0.0219142
0.0200142
0.0185057
0.025086
0.0251928
0.0252305
0.0253007
0.0253706
0.0254546
0.0255145
0.0255541
0.0255004
0.0253527
0.0249943
0.0244216
0.0233987
0.0219835
0.0200788
0.0185727
0.0251628
0.0252691
0.0253068
0.0253773
0.0254472
0.0255312
0.0255911
0.0256304
0.0255763
0.0254283
0.02507
0.0244963
0.0234711
0.0220529
0.0201436
0.01864
0.0252389
0.0253455
0.0253832
0.0254539
0.0255239
0.0256079
0.0256677
0.0257067
0.0256521
0.0255068
0.025147
0.0245719
0.0235445
0.0221232
0.0202094
0.0187077
0.0253152
0.0254224
0.0254603
0.0255312
0.0256012
0.0256852
0.025745
0.0257839
0.0257288
0.025586
0.0252247
0.0246481
0.0236184
0.0221941
0.0202756
0.0187751
0.0253921
0.0254996
0.0255375
0.0256087
0.0256789
0.025763
0.0258228
0.0258616
0.0258059
0.0256646
0.0253024
0.0247246
0.0236925
0.0222652
0.020342
0.0188426
0.0254691
0.0255769
0.0256149
0.0256864
0.0257568
0.025841
0.0259008
0.0259395
0.025883
0.0257434
0.0253806
0.0248015
0.023767
0.0223367
0.0204087
0.0189109
0.0255463
0.0256545
0.0256926
0.0257644
0.025835
0.0259192
0.025979
0.0260176
0.0259603
0.0258217
0.0254582
0.0248778
0.0238408
0.0224074
0.0204747
0.0189789
0.0256239
0.0257318
0.02577
0.025842
0.0259127
0.025997
0.0260566
0.026095
0.0260369
0.0258997
0.0255355
0.0249538
0.0239144
0.0224779
0.0205404
0.0190467
0.025701
0.025809
0.0258472
0.0259195
0.0259902
0.0260745
0.0261339
0.026172
0.0261131
0.0259791
0.0256145
0.0250315
0.0239898
0.0225503
0.020608
0.0191155
0.0257781
0.0258874
0.0259258
0.0259982
0.0260691
0.0261533
0.0262128
0.0262508
0.0261913
0.0260577
0.0256926
0.0251084
0.0240643
0.0226217
0.0206747
0.0191836
0.0258565
0.025965
0.0260034
0.0260761
0.026147
0.0262313
0.0262907
0.0263286
0.0262684
0.0261359
0.02577
0.0251845
0.0241381
0.0226924
0.0207407
0.0192516
0.025934
0.0260423
0.0260807
0.0261536
0.0262247
0.0263089
0.0263681
0.0264058
0.0263465
0.0262155
0.0258492
0.0252623
0.0242137
0.0227649
0.0208085
0.0193201
0.0260112
0.0261206
0.0261591
0.0262322
0.0263034
0.0263878
0.026447
0.0264845
0.0264264
0.0262943
0.0259269
0.0253386
0.0242876
0.0228359
0.0208785
0.0193894
0.0260893
0.0261976
0.0262362
0.0263097
0.026381
0.0264655
0.0265245
0.0265619
0.0265061
0.0263731
0.0260044
0.0254148
0.0243614
0.0229066
0.020949
0.0194593
0.0261663
0.0262747
0.0263134
0.0263873
0.0264586
0.0265432
0.0266021
0.026639
0.0265857
0.0264525
0.0260828
0.0254917
0.0244361
0.022978
0.0210195
0.019529
0.0262433
0.0263522
0.026391
0.0264652
0.0265365
0.0266213
0.0266801
0.0267168
0.0266656
0.0265322
0.0261616
0.0255689
0.024511
0.0230493
0.0210897
0.0195987
0.0263207
0.0264299
0.0264688
0.0265432
0.0266146
0.0266998
0.0267584
0.0267947
0.0267453
0.0266119
0.0262406
0.0256464
0.0245862
0.0231207
0.0211599
0.0196685
0.0263983
0.026508
0.0265471
0.0266215
0.0266925
0.0267785
0.026837
0.0268728
0.0268252
0.0266917
0.0263199
0.0257241
0.0246616
0.0231924
0.02123
0.0197381
0.0264764
0.0265864
0.0266257
0.0267
0.0267707
0.0268575
0.0269158
0.0269512
0.0269052
0.0267712
0.0263993
0.0258018
0.0247369
0.0232641
0.0213
0.0198078
0.0265548
0.0266648
0.0267042
0.0267787
0.0268498
0.0269365
0.0269947
0.0270296
0.0269849
0.0268509
0.0264786
0.0258794
0.0248121
0.0233357
0.02137
0.0198776
0.026633
0.0267434
0.0267827
0.0268573
0.0269289
0.0270155
0.0270735
0.0271079
0.0270647
0.0269311
0.0265577
0.0259569
0.0248872
0.0234072
0.02144
0.019948
0.0267114
0.026822
0.0268614
0.0269361
0.027008
0.0270945
0.0271524
0.0271877
0.0271448
0.0270113
0.0266369
0.0260344
0.0249623
0.0234787
0.0215101
0.0200193
0.02679
0.0269008
0.0269402
0.027015
0.0270873
0.0271736
0.0272313
0.0272688
0.0272251
0.0270915
0.0267161
0.026112
0.0250375
0.0235502
0.0215803
0.0200905
0.0268686
0.0269795
0.0270191
0.027094
0.0271666
0.0272529
0.0273104
0.0273499
0.0273057
0.0271719
0.0267953
0.0261897
0.0251128
0.0236219
0.0216505
0.0201617
0.0269473
0.0270584
0.0270981
0.0271732
0.027246
0.0273324
0.0273894
0.0274306
0.0273864
0.0272524
0.0268747
0.0262675
0.0251881
0.0236936
0.0217207
0.0202329
0.0270261
0.0271374
0.0271772
0.0272524
0.0273255
0.0274119
0.0274683
0.0275113
0.0274672
0.0273331
0.0269543
0.0263455
0.0252635
0.0237655
0.021791
0.020304
0.0271049
0.0272165
0.0272563
0.0273317
0.027405
0.0274914
0.0275473
0.0275919
0.0275481
0.0274138
0.027034
0.0264235
0.025339
0.0238374
0.0218612
0.0203752
0.0271839
0.0272956
0.0273355
0.027411
0.0274844
0.0275708
0.0276263
0.0276724
0.0276289
0.0274945
0.0271137
0.0265016
0.0254145
0.0239092
0.0219314
0.0204464
0.027263
0.0273747
0.0274146
0.0274903
0.0275638
0.0276502
0.0277052
0.0277529
0.0277096
0.0275751
0.0271933
0.0265796
0.0254899
0.023981
0.0220017
0.0205176
0.027342
0.0274537
0.0274937
0.0275695
0.0276432
0.0277295
0.027784
0.0278334
0.0277904
0.0276557
0.027273
0.0266576
0.0255654
0.0240528
0.0220719
0.0205758
0.0274209
0.0275327
0.0275727
0.0276486
0.0277225
0.0278088
0.0278629
0.0279138
0.0278711
0.0277362
0.0273526
0.0267356
0.0256408
0.0241246
0.0221421
0.0205238
0.0274998
0.0276116
0.0276516
0.0277277
0.0278017
0.027888
0.0279416
0.0279941
0.0279517
0.0278167
0.0274321
0.0268135
0.0257162
0.0241964
0.0222123
0.0203102
0.0275786
0.0276904
0.0277304
0.0278067
0.0278808
0.0279672
0.0280203
0.0280744
0.0280323
0.0278971
0.0275116
0.0268914
0.0257916
0.0242681
0.0222019
0.0198758
0.0276573
0.0277691
0.0278092
0.0278856
0.0279599
0.0280463
0.028099
0.028122
0.0280421
0.0278579
0.0274276
0.0267589
0.0256045
0.0240358
0.0217777
0.0191811
0.0277359
0.0275413
0.0275724
0.0276315
0.0276831
0.0277338
0.0277428
0.0277057
0.0275569
0.0272834
0.0267648
0.0259904
0.0247501
0.0231067
0.0207721
0.0181484
0.0275132
0.026821
0.0268365
0.0268689
0.0268847
0.0268836
0.0268301
0.0267163
0.0264817
0.0261006
0.0254745
0.0245708
0.02324
0.0215144
0.0192209
0.0167518
0.0267999
0.0255413
0.0255377
0.0255396
0.0255156
0.0254609
0.025344
0.0251529
0.0248336
0.0243517
0.0236314
0.0226228
0.0212464
0.0194991
0.017368
0.0151997
0.0255277
0.0237059
0.0236812
0.0236516
0.0235881
0.023484
0.0233108
0.0230541
0.0226674
0.0221121
0.0213341
0.0202751
0.0189238
0.0172508
0.0153909
0.0136225
0.0236999
0.0213946
0.0213462
0.0212834
0.0211805
0.0210312
0.0208105
0.0205043
0.0200735
0.019481
0.0186896
0.0176434
0.0163849
0.0148725
0.0133547
0.0120424
0.0213966
0.0187424
0.0186674
0.0185679
0.0184223
0.0182275
0.0179623
0.0176173
0.0171608
0.0165623
0.0157965
0.0148206
0.0137112
0.0124301
0.0113031
0.0104814
0.0187535
0.0159046
0.0158029
0.0156653
0.0154735
0.0152284
0.0149143
0.0145316
0.0140553
0.0134668
0.0127488
0.0118847
0.0109671
0.00997642
0.00927827
0.0089665
0.0159252
0.0130218
0.0128991
0.0127297
0.0124944
0.0121967
0.0118273
0.0114015
0.0109007
0.0103203
0.00965055
0.00891527
0.00821228
0.00755629
0.00731331
0.00751493
0.0130496
0.0102001
0.0100668
0.00988047
0.00961723
0.00927708
0.00885575
0.00838629
0.00785626
0.00727512
0.00663826
0.00601971
0.00552162
0.00521336
0.00542279
0.00611862
0.0102318
0.0075227
0.00738594
0.00719849
0.00693109
0.0065762
0.00612686
0.00562825
0.00507346
0.00448771
0.00387399
0.00335185
0.00302055
0.00301465
0.00360211
0.00471941
0.00755611
0.00505669
0.00491487
0.0047259
0.00446041
0.0041142
0.00367679
0.00318311
0.00262488
0.00205698
0.00151945
0.00115306
0.000979803
0.00113794
0.00189395
0.00324231
0.00509344
0.00278861
0.00263832
0.00243309
0.00214844
0.00181413
0.00146852
0.00108966
0.000654207
0.000243416
0
0
0
0
0.000532939
0.00175239
0.00283076
0.000808933
0.000683935
0.000506168
0.000260307
5.57633e-06
0
0
0
0
0
0
0
0
0
0.000533974
0.000845591
0
0
0
0
0
0
0
0
0
0
0
0
0
0
0
0
0
0
0
0
0
0
0
0
0
0
0
0
0
0
0
0
0
0
0
0
0
0
0
0
0
0
0
0
0
0
0
0
0
0
0
0
0
0
0
0
0
0
0
0
0
0
0
0
0
0
0
0
0
0
0
0
0
0
0
0
0
0
0
0
0
0
0
0
0
0
0
0
0
0
0
0
0
0
0
0
0
0
0
0
0
0
0
0
0
0
0
0
0
0
0
0
0
0
0
0
0
0
0
0
0
0
0
0
0
0
0
0
0
0
0
0
0
0
0
0
0
0
0
0
0
0
0
0
0
0
0
0
0
0
0
0
0
0
0
0
0
0
0
0
0
0
0
0
0
0
0
0
0
0
0
0
0
0
0
0
0
0
0
0
0
0
0
0
0
0
0
0
0
0
0
0
0
0
0
0
0
0
0
0
0
0
0
0
0
0
0
0
0
0
0
0
0
0
0
0
0
0
0
0
0
0
0
0
0
0
0
0
0
0
0
0
0
0
0
0
0
0
0
0
0
0
0
0
0
0
0
0
0
0
0
0
0
0
0
0
0
0
0
0
0
0
0
0
0
0
0
0
0
0
0
0
0
0
0
0
0
0
0
0
0
0
0
0
0
0
0
0
0
0
0
0
0
0
0
0
0
0
0
0
0
0
0
0
0
0
0
0
0
0
0
0
0
0
0
0
0
0
0
0
0
0
0
0
0
0
0
0
0
0
0
0
0
0
0
0
0
0
0
0
0
0
0
0
0
0
0
0
0
0
0
0
0
0
0
0
0
0
0
0
0
0
0
0
0
0
0
0
0
0
0
0
0
0
0
0
0
0
0
0
0
0
0
0
0
0
0
0
0
0
0
0
0
0
0
0
0
0
0
0
0
0
0
0
0
0
0
0
0
0
0
0
0
0
0
0
0
0
0
0
0
0
0
0
0
0
0
0
0
0
0
0
0
0
0
0
0
0
0
0
0
0
0
0
0
0
0
0
0
0
0
0
0
0
0
0
0
0
0
0
0
0
0
0
0
0
0
0
0
0
0
0
0
0
0
0
0
0
0
0
0
0
0
0
0
0
0
0
0
0
0
0
0
0
0
0
0
0
0
0
0
0
0
0
0
0
0
0
0
0
0
0
0
0
0
0
0
0
0
0
0
0
0
0
0
0
0
0
0
0
0
0
0
0
0
0
0
0
0
0
0
0
0
0
0
0
0
0
0
0
0
0
0
0
0
0
0
0
0
0
0
0
0
0
0
0
0
0
0
0
0
0
0
0
0
0
0
0
0
0
0
0
0
0
0
0
0
0
0
0
0
0
0
0
0
0
0
0
0
0
0
0
0
0
0
0
0
0
0
0
0
0
0
0
0
0
0
0
0
0
0
0
0
0
0
0
0
0
0
0
0
0
0
0
0
0
0
0
0
0
0
0
0
0
0
0
0
0
0
0
0
0
0
0
0
0
0
0
0
0
0
0
0
0
0
0
0
0
0
0
0
0
0
0
0
0
0
0
0
0
0
0
0
0
0
0
0
0
0
0
0
0
0
0
0
0
0
0
0
0
0
0
0
0
0
0
0
0
0
0
0
0
0
0
0
0
0
0
0
0
0
0
0
0
0
0
0
0
0
0
0
0
0
0
0
0
0
0
0
0
0
0
0
0
0
0
0
0
0
0
0
0
0
0
0
0
0
0
0
0
0
0
0
0
0
0
0
0
0
0
0
0
0
0
0
0
0
0
0
0
0
0
0
0
0
0
0
0
0
0
0
0
0
0
0
0
0
0
0
0
0
0
0
0
0
0
0
0
0
0
0
0
0
0
0
0
)
;

boundaryField
{
    wireUpstream
    {
        type            calculated;
        value           uniform 0;
    }
    wireDownstream
    {
        type            calculated;
        value           nonuniform List<scalar> 
16
(
0.0234093
0.0234448
0.0235097
0.0235746
0.0236547
0.0237112
0.0237505
0.0237012
0.0235702
0.0232313
0.0226885
0.0217067
0.0203519
0.0185416
0.0170036
0.0233817
)
;
    }
    wireTopContact
    {
        type            calculated;
        value           nonuniform List<scalar> 
122
(
0.0169818
0.0170459
0.0171101
0.0171747
0.0172389
0.0173028
0.0173672
0.0174321
0.0174974
0.0175627
0.0176275
0.0176921
0.0177573
0.0178226
0.0178877
0.0179529
0.0180179
0.0180833
0.0181493
0.0182154
0.0182812
0.0183473
0.0184138
0.0184808
0.0185479
0.0186154
0.0186826
0.0187499
0.0188181
0.018886
0.0189536
0.0190222
0.0190901
0.019158
0.0192263
0.0192952
0.0193648
0.0194342
0.0195036
0.0195731
0.0196425
0.0197123
0.0197826
0.0198532
0.0199242
0.0199953
0.0200661
0.0201371
0.020208
0.0202789
0.0203498
0.0204207
0.0204767
0.0204173
0.0201911
0.0197475
0.0190659
0.018063
0.0166681
0.0151055
0.0135184
0.0119313
0.0103693
0.00886084
0.00742324
0.00604917
0.00467978
0.0032324
0.0017586
0.000537963
0
0
0
0
0
0
0
0
0
0
0
0
0
0
0
0
0
0
0
0
0
0
0
0
0
0
0
0
0
0
0
0
0
0
0
0
0
0
0
0
0
0
0
0
0
0
0
0
0
0
0
0.0169166
)
;
    }
    front
    {
        type            wedge;
    }
    back
    {
        type            wedge;
    }
}


// ************************************************************************* //
