/*--------------------------------*- C++ -*----------------------------------*\
| =========                 |                                                 |
| \\      /  F ield         | foam-extend: Open Source CFD                    |
|  \\    /   O peration     | Version:     4.1-20200408                       |
|   \\  /    A nd           | Web:         http://www.foam-extend.org         |
|    \\/     M anipulation  |                                                 |
\*---------------------------------------------------------------------------*/
FoamFile
{
    version     2.0;
    format      ascii;
    class       volScalarField;
    location    "0.0340000";
    object      sigmaY;
}
// * * * * * * * * * * * * * * * * * * * * * * * * * * * * * * * * * * * * * //

dimensions      [1 -1 -2 0 0 0 0];

internalField   nonuniform List<scalar> 
1952
(
1.2586e+09
1.25861e+09
1.25864e+09
1.25866e+09
1.25869e+09
1.25871e+09
1.25873e+09
1.25871e+09
1.25866e+09
1.25854e+09
1.25834e+09
1.25798e+09
1.25748e+09
1.25681e+09
1.25625e+09
1.25859e+09
1.25863e+09
1.25864e+09
1.25867e+09
1.25869e+09
1.25872e+09
1.25874e+09
1.25875e+09
1.25874e+09
1.25869e+09
1.25856e+09
1.25836e+09
1.258e+09
1.2575e+09
1.25684e+09
1.25627e+09
1.25862e+09
1.25866e+09
1.25867e+09
1.25869e+09
1.25872e+09
1.25875e+09
1.25877e+09
1.25878e+09
1.25876e+09
1.25871e+09
1.25859e+09
1.25839e+09
1.25803e+09
1.25753e+09
1.25686e+09
1.2563e+09
1.25865e+09
1.25868e+09
1.2587e+09
1.25872e+09
1.25874e+09
1.25877e+09
1.25879e+09
1.25881e+09
1.25879e+09
1.25874e+09
1.25862e+09
1.25841e+09
1.25805e+09
1.25755e+09
1.25688e+09
1.25632e+09
1.25867e+09
1.25871e+09
1.25872e+09
1.25875e+09
1.25877e+09
1.2588e+09
1.25882e+09
1.25884e+09
1.25882e+09
1.25877e+09
1.25864e+09
1.25844e+09
1.25808e+09
1.25757e+09
1.25691e+09
1.25634e+09
1.2587e+09
1.25874e+09
1.25875e+09
1.25877e+09
1.2588e+09
1.25883e+09
1.25885e+09
1.25886e+09
1.25884e+09
1.2588e+09
1.25867e+09
1.25847e+09
1.2581e+09
1.2576e+09
1.25693e+09
1.25637e+09
1.25873e+09
1.25876e+09
1.25878e+09
1.2588e+09
1.25883e+09
1.25885e+09
1.25888e+09
1.25889e+09
1.25887e+09
1.25882e+09
1.2587e+09
1.25849e+09
1.25812e+09
1.25762e+09
1.25695e+09
1.25639e+09
1.25875e+09
1.25879e+09
1.2588e+09
1.25883e+09
1.25885e+09
1.25888e+09
1.2589e+09
1.25892e+09
1.2589e+09
1.25885e+09
1.25872e+09
1.25852e+09
1.25815e+09
1.25765e+09
1.25698e+09
1.25641e+09
1.25878e+09
1.25882e+09
1.25883e+09
1.25885e+09
1.25888e+09
1.25891e+09
1.25893e+09
1.25894e+09
1.25893e+09
1.25888e+09
1.25875e+09
1.25854e+09
1.25817e+09
1.25767e+09
1.257e+09
1.25644e+09
1.25881e+09
1.25884e+09
1.25886e+09
1.25888e+09
1.25891e+09
1.25894e+09
1.25896e+09
1.25897e+09
1.25895e+09
1.2589e+09
1.25877e+09
1.25857e+09
1.2582e+09
1.2577e+09
1.25702e+09
1.25646e+09
1.25883e+09
1.25887e+09
1.25888e+09
1.25891e+09
1.25893e+09
1.25896e+09
1.25898e+09
1.259e+09
1.25898e+09
1.25893e+09
1.2588e+09
1.25859e+09
1.25823e+09
1.25772e+09
1.25705e+09
1.25649e+09
1.25886e+09
1.2589e+09
1.25891e+09
1.25894e+09
1.25896e+09
1.25899e+09
1.25901e+09
1.25903e+09
1.25901e+09
1.25896e+09
1.25883e+09
1.25862e+09
1.25825e+09
1.25775e+09
1.25707e+09
1.25651e+09
1.25889e+09
1.25892e+09
1.25894e+09
1.25896e+09
1.25899e+09
1.25902e+09
1.25904e+09
1.25905e+09
1.25903e+09
1.25898e+09
1.25885e+09
1.25865e+09
1.25828e+09
1.25777e+09
1.25709e+09
1.25653e+09
1.25891e+09
1.25895e+09
1.25896e+09
1.25899e+09
1.25901e+09
1.25904e+09
1.25907e+09
1.25908e+09
1.25906e+09
1.25901e+09
1.25888e+09
1.25867e+09
1.25831e+09
1.2578e+09
1.25712e+09
1.25656e+09
1.25894e+09
1.25898e+09
1.25899e+09
1.25902e+09
1.25904e+09
1.25907e+09
1.25909e+09
1.25911e+09
1.25909e+09
1.25904e+09
1.25891e+09
1.2587e+09
1.25833e+09
1.25782e+09
1.25714e+09
1.25658e+09
1.25897e+09
1.25901e+09
1.25902e+09
1.25904e+09
1.25907e+09
1.2591e+09
1.25912e+09
1.25914e+09
1.25912e+09
1.25907e+09
1.25893e+09
1.25873e+09
1.25836e+09
1.25785e+09
1.25716e+09
1.25661e+09
1.259e+09
1.25903e+09
1.25905e+09
1.25907e+09
1.2591e+09
1.25913e+09
1.25915e+09
1.25916e+09
1.25914e+09
1.25909e+09
1.25896e+09
1.25875e+09
1.25838e+09
1.25787e+09
1.25719e+09
1.25663e+09
1.25902e+09
1.25906e+09
1.25907e+09
1.2591e+09
1.25912e+09
1.25916e+09
1.25918e+09
1.25919e+09
1.25917e+09
1.25912e+09
1.25899e+09
1.25878e+09
1.25841e+09
1.2579e+09
1.25721e+09
1.25665e+09
1.25905e+09
1.25909e+09
1.2591e+09
1.25913e+09
1.25915e+09
1.25918e+09
1.25921e+09
1.25922e+09
1.2592e+09
1.25915e+09
1.25902e+09
1.25881e+09
1.25844e+09
1.25792e+09
1.25723e+09
1.25668e+09
1.25908e+09
1.25912e+09
1.25913e+09
1.25916e+09
1.25918e+09
1.25921e+09
1.25923e+09
1.25925e+09
1.25923e+09
1.25918e+09
1.25904e+09
1.25884e+09
1.25846e+09
1.25795e+09
1.25726e+09
1.2567e+09
1.25911e+09
1.25914e+09
1.25916e+09
1.25918e+09
1.25921e+09
1.25924e+09
1.25926e+09
1.25928e+09
1.25926e+09
1.2592e+09
1.25907e+09
1.25886e+09
1.25849e+09
1.25797e+09
1.25728e+09
1.25673e+09
1.25913e+09
1.25917e+09
1.25919e+09
1.25921e+09
1.25924e+09
1.25927e+09
1.25929e+09
1.2593e+09
1.25929e+09
1.25923e+09
1.2591e+09
1.25889e+09
1.25852e+09
1.258e+09
1.25731e+09
1.25675e+09
1.25916e+09
1.2592e+09
1.25921e+09
1.25924e+09
1.25927e+09
1.2593e+09
1.25932e+09
1.25933e+09
1.25931e+09
1.25926e+09
1.25913e+09
1.25892e+09
1.25854e+09
1.25803e+09
1.25733e+09
1.25677e+09
1.25919e+09
1.25923e+09
1.25924e+09
1.25927e+09
1.25929e+09
1.25932e+09
1.25935e+09
1.25936e+09
1.25934e+09
1.25929e+09
1.25916e+09
1.25895e+09
1.25857e+09
1.25805e+09
1.25735e+09
1.2568e+09
1.25922e+09
1.25926e+09
1.25927e+09
1.2593e+09
1.25932e+09
1.25935e+09
1.25937e+09
1.25939e+09
1.25937e+09
1.25932e+09
1.25918e+09
1.25897e+09
1.2586e+09
1.25808e+09
1.25738e+09
1.25682e+09
1.25925e+09
1.25928e+09
1.2593e+09
1.25932e+09
1.25935e+09
1.25938e+09
1.2594e+09
1.25942e+09
1.2594e+09
1.25934e+09
1.25921e+09
1.259e+09
1.25862e+09
1.2581e+09
1.2574e+09
1.25685e+09
1.25927e+09
1.25931e+09
1.25933e+09
1.25935e+09
1.25938e+09
1.25941e+09
1.25943e+09
1.25945e+09
1.25943e+09
1.25937e+09
1.25924e+09
1.25903e+09
1.25865e+09
1.25813e+09
1.25743e+09
1.25687e+09
1.2593e+09
1.25934e+09
1.25935e+09
1.25938e+09
1.25941e+09
1.25944e+09
1.25946e+09
1.25947e+09
1.25945e+09
1.2594e+09
1.25927e+09
1.25906e+09
1.25868e+09
1.25815e+09
1.25745e+09
1.2569e+09
1.25933e+09
1.25937e+09
1.25938e+09
1.25941e+09
1.25944e+09
1.25947e+09
1.25949e+09
1.2595e+09
1.25948e+09
1.25943e+09
1.2593e+09
1.25908e+09
1.25871e+09
1.25818e+09
1.25747e+09
1.25692e+09
1.25936e+09
1.2594e+09
1.25941e+09
1.25944e+09
1.25946e+09
1.25949e+09
1.25952e+09
1.25953e+09
1.25951e+09
1.25946e+09
1.25933e+09
1.25911e+09
1.25873e+09
1.25821e+09
1.2575e+09
1.25695e+09
1.25939e+09
1.25943e+09
1.25944e+09
1.25947e+09
1.25949e+09
1.25952e+09
1.25955e+09
1.25956e+09
1.25954e+09
1.25949e+09
1.25935e+09
1.25914e+09
1.25876e+09
1.25823e+09
1.25752e+09
1.25697e+09
1.25941e+09
1.25945e+09
1.25947e+09
1.25949e+09
1.25952e+09
1.25955e+09
1.25957e+09
1.25959e+09
1.25957e+09
1.25952e+09
1.25938e+09
1.25917e+09
1.25879e+09
1.25826e+09
1.25755e+09
1.257e+09
1.25944e+09
1.25948e+09
1.2595e+09
1.25952e+09
1.25955e+09
1.25958e+09
1.2596e+09
1.25962e+09
1.25959e+09
1.25955e+09
1.25941e+09
1.2592e+09
1.25881e+09
1.25829e+09
1.25757e+09
1.25702e+09
1.25947e+09
1.25951e+09
1.25953e+09
1.25955e+09
1.25958e+09
1.25961e+09
1.25963e+09
1.25965e+09
1.25962e+09
1.25957e+09
1.25944e+09
1.25923e+09
1.25884e+09
1.25831e+09
1.2576e+09
1.25705e+09
1.2595e+09
1.25954e+09
1.25955e+09
1.25958e+09
1.25961e+09
1.25964e+09
1.25966e+09
1.25967e+09
1.25965e+09
1.2596e+09
1.25947e+09
1.25925e+09
1.25887e+09
1.25834e+09
1.25762e+09
1.25707e+09
1.25953e+09
1.25957e+09
1.25958e+09
1.25961e+09
1.25964e+09
1.25967e+09
1.25969e+09
1.2597e+09
1.25968e+09
1.25963e+09
1.2595e+09
1.25928e+09
1.2589e+09
1.25836e+09
1.25765e+09
1.2571e+09
1.25956e+09
1.2596e+09
1.25961e+09
1.25964e+09
1.25966e+09
1.2597e+09
1.25972e+09
1.25973e+09
1.25971e+09
1.25966e+09
1.25953e+09
1.25931e+09
1.25892e+09
1.25839e+09
1.25767e+09
1.25712e+09
1.25959e+09
1.25963e+09
1.25964e+09
1.25967e+09
1.25969e+09
1.25972e+09
1.25975e+09
1.25976e+09
1.25974e+09
1.25969e+09
1.25955e+09
1.25934e+09
1.25895e+09
1.25842e+09
1.2577e+09
1.25715e+09
1.25961e+09
1.25965e+09
1.25967e+09
1.2597e+09
1.25972e+09
1.25975e+09
1.25977e+09
1.25979e+09
1.25977e+09
1.25972e+09
1.25958e+09
1.25937e+09
1.25898e+09
1.25844e+09
1.25772e+09
1.25718e+09
1.25964e+09
1.25968e+09
1.2597e+09
1.25972e+09
1.25975e+09
1.25978e+09
1.2598e+09
1.25982e+09
1.2598e+09
1.25975e+09
1.25961e+09
1.25939e+09
1.25901e+09
1.25847e+09
1.25775e+09
1.2572e+09
1.25967e+09
1.25971e+09
1.25973e+09
1.25975e+09
1.25978e+09
1.25981e+09
1.25983e+09
1.25984e+09
1.25983e+09
1.25978e+09
1.25964e+09
1.25942e+09
1.25903e+09
1.2585e+09
1.25777e+09
1.25723e+09
1.2597e+09
1.25974e+09
1.25975e+09
1.25978e+09
1.25981e+09
1.25984e+09
1.25986e+09
1.25987e+09
1.25986e+09
1.25981e+09
1.25967e+09
1.25945e+09
1.25906e+09
1.25852e+09
1.2578e+09
1.25725e+09
1.25973e+09
1.25977e+09
1.25978e+09
1.25981e+09
1.25984e+09
1.25987e+09
1.25989e+09
1.2599e+09
1.25989e+09
1.25984e+09
1.2597e+09
1.25948e+09
1.25909e+09
1.25855e+09
1.25783e+09
1.25728e+09
1.25976e+09
1.2598e+09
1.25981e+09
1.25984e+09
1.25987e+09
1.2599e+09
1.25992e+09
1.25993e+09
1.25991e+09
1.25987e+09
1.25973e+09
1.25951e+09
1.25912e+09
1.25857e+09
1.25785e+09
1.2573e+09
1.25979e+09
1.25983e+09
1.25984e+09
1.25987e+09
1.25989e+09
1.25993e+09
1.25995e+09
1.25996e+09
1.25994e+09
1.2599e+09
1.25976e+09
1.25954e+09
1.25914e+09
1.2586e+09
1.25788e+09
1.25733e+09
1.25981e+09
1.25986e+09
1.25987e+09
1.2599e+09
1.25992e+09
1.25996e+09
1.25998e+09
1.25999e+09
1.25997e+09
1.25992e+09
1.25979e+09
1.25957e+09
1.25917e+09
1.25863e+09
1.2579e+09
1.25736e+09
1.25984e+09
1.25988e+09
1.2599e+09
1.25993e+09
1.25995e+09
1.25998e+09
1.26001e+09
1.26002e+09
1.26e+09
1.25995e+09
1.25982e+09
1.25959e+09
1.2592e+09
1.25865e+09
1.25793e+09
1.25738e+09
1.25987e+09
1.25991e+09
1.25993e+09
1.25995e+09
1.25998e+09
1.26001e+09
1.26003e+09
1.26005e+09
1.26003e+09
1.25998e+09
1.25985e+09
1.25962e+09
1.25923e+09
1.25868e+09
1.25795e+09
1.25741e+09
1.2599e+09
1.25994e+09
1.25996e+09
1.25998e+09
1.26001e+09
1.26004e+09
1.26006e+09
1.26008e+09
1.26006e+09
1.26001e+09
1.25987e+09
1.25965e+09
1.25925e+09
1.25871e+09
1.25798e+09
1.25743e+09
1.25993e+09
1.25997e+09
1.25999e+09
1.26001e+09
1.26004e+09
1.26007e+09
1.26009e+09
1.26011e+09
1.26009e+09
1.26004e+09
1.2599e+09
1.25968e+09
1.25928e+09
1.25873e+09
1.25801e+09
1.25746e+09
1.25996e+09
1.26e+09
1.26001e+09
1.26004e+09
1.26007e+09
1.2601e+09
1.26012e+09
1.26014e+09
1.26012e+09
1.26007e+09
1.25993e+09
1.25971e+09
1.25931e+09
1.25876e+09
1.25803e+09
1.25749e+09
1.25999e+09
1.26003e+09
1.26004e+09
1.26007e+09
1.2601e+09
1.26013e+09
1.26015e+09
1.26017e+09
1.26015e+09
1.2601e+09
1.25996e+09
1.25974e+09
1.25934e+09
1.25878e+09
1.25806e+09
1.25751e+09
1.26002e+09
1.26006e+09
1.26007e+09
1.2601e+09
1.26013e+09
1.26016e+09
1.26018e+09
1.2602e+09
1.26018e+09
1.26013e+09
1.25999e+09
1.25977e+09
1.25937e+09
1.25881e+09
1.25808e+09
1.25754e+09
1.26005e+09
1.26009e+09
1.2601e+09
1.26013e+09
1.26016e+09
1.26019e+09
1.26021e+09
1.26023e+09
1.26021e+09
1.26016e+09
1.26002e+09
1.25979e+09
1.25939e+09
1.25884e+09
1.25811e+09
1.25756e+09
1.26008e+09
1.26012e+09
1.26013e+09
1.26016e+09
1.26019e+09
1.26022e+09
1.26024e+09
1.26026e+09
1.26024e+09
1.26019e+09
1.26005e+09
1.25982e+09
1.25942e+09
1.25886e+09
1.25814e+09
1.25754e+09
1.2601e+09
1.26015e+09
1.26016e+09
1.26019e+09
1.26021e+09
1.26025e+09
1.26027e+09
1.26029e+09
1.26027e+09
1.26022e+09
1.26008e+09
1.25985e+09
1.25945e+09
1.25889e+09
1.25816e+09
1.25746e+09
1.26013e+09
1.26017e+09
1.26019e+09
1.26022e+09
1.26024e+09
1.26028e+09
1.2603e+09
1.26032e+09
1.2603e+09
1.26025e+09
1.26011e+09
1.25988e+09
1.25948e+09
1.25892e+09
1.25816e+09
1.2573e+09
1.26016e+09
1.2602e+09
1.26022e+09
1.26025e+09
1.26027e+09
1.2603e+09
1.26032e+09
1.26033e+09
1.2603e+09
1.26024e+09
1.26008e+09
1.25983e+09
1.25941e+09
1.25883e+09
1.258e+09
1.25705e+09
1.26019e+09
1.26012e+09
1.26013e+09
1.26015e+09
1.26017e+09
1.26019e+09
1.26019e+09
1.26018e+09
1.26013e+09
1.26002e+09
1.25983e+09
1.25955e+09
1.25909e+09
1.25849e+09
1.25763e+09
1.25667e+09
1.26011e+09
1.25985e+09
1.25986e+09
1.25987e+09
1.25988e+09
1.25988e+09
1.25986e+09
1.25982e+09
1.25973e+09
1.25959e+09
1.25936e+09
1.25903e+09
1.25854e+09
1.2579e+09
1.25706e+09
1.25615e+09
1.25985e+09
1.25938e+09
1.25938e+09
1.25938e+09
1.25938e+09
1.25935e+09
1.25931e+09
1.25924e+09
1.25912e+09
1.25895e+09
1.25868e+09
1.25831e+09
1.25781e+09
1.25716e+09
1.25638e+09
1.25558e+09
1.25938e+09
1.25871e+09
1.2587e+09
1.25869e+09
1.25867e+09
1.25863e+09
1.25856e+09
1.25847e+09
1.25833e+09
1.25812e+09
1.25784e+09
1.25745e+09
1.25695e+09
1.25634e+09
1.25565e+09
1.25501e+09
1.25871e+09
1.25786e+09
1.25784e+09
1.25782e+09
1.25778e+09
1.25773e+09
1.25765e+09
1.25753e+09
1.25738e+09
1.25716e+09
1.25687e+09
1.25648e+09
1.25602e+09
1.25546e+09
1.25491e+09
1.25442e+09
1.25786e+09
1.25689e+09
1.25686e+09
1.25682e+09
1.25677e+09
1.2567e+09
1.2566e+09
1.25647e+09
1.25631e+09
1.25609e+09
1.2558e+09
1.25545e+09
1.25504e+09
1.25457e+09
1.25415e+09
1.25385e+09
1.25689e+09
1.25584e+09
1.25581e+09
1.25576e+09
1.25569e+09
1.2556e+09
1.25548e+09
1.25534e+09
1.25516e+09
1.25495e+09
1.25468e+09
1.25437e+09
1.25403e+09
1.25367e+09
1.25341e+09
1.25329e+09
1.25585e+09
1.25478e+09
1.25474e+09
1.25468e+09
1.25459e+09
1.25448e+09
1.25435e+09
1.25419e+09
1.25401e+09
1.25379e+09
1.25355e+09
1.25328e+09
1.25302e+09
1.25278e+09
1.25269e+09
1.25276e+09
1.25479e+09
1.25375e+09
1.2537e+09
1.25363e+09
1.25353e+09
1.25341e+09
1.25325e+09
1.25308e+09
1.25289e+09
1.25267e+09
1.25244e+09
1.25221e+09
1.25203e+09
1.25192e+09
1.25199e+09
1.25225e+09
1.25376e+09
1.25276e+09
1.25271e+09
1.25264e+09
1.25255e+09
1.25242e+09
1.25225e+09
1.25207e+09
1.25186e+09
1.25165e+09
1.25142e+09
1.25123e+09
1.25111e+09
1.25111e+09
1.25132e+09
1.25173e+09
1.25278e+09
1.25186e+09
1.25181e+09
1.25174e+09
1.25164e+09
1.25151e+09
1.25135e+09
1.25117e+09
1.25096e+09
1.25076e+09
1.25056e+09
1.25042e+09
1.25036e+09
1.25042e+09
1.2507e+09
1.25119e+09
1.25187e+09
1.25102e+09
1.25097e+09
1.25089e+09
1.25079e+09
1.25067e+09
1.25054e+09
1.2504e+09
1.25024e+09
1.25009e+09
1.25e+09
1.25e+09
1.25e+09
1.25e+09
1.2502e+09
1.25064e+09
1.25104e+09
1.2503e+09
1.25025e+09
1.25019e+09
1.2501e+09
1.25e+09
1.25e+09
1.25e+09
1.25e+09
1.25e+09
1.25e+09
1.25e+09
1.25e+09
1.25e+09
1.25e+09
1.2502e+09
1.25031e+09
1.25e+09
1.25e+09
1.25e+09
1.25e+09
1.25e+09
1.25e+09
1.25e+09
1.25e+09
1.25e+09
1.25e+09
1.25e+09
1.25e+09
1.25e+09
1.25e+09
1.25e+09
1.25e+09
1.25e+09
1.25e+09
1.25e+09
1.25e+09
1.25e+09
1.25e+09
1.25e+09
1.25e+09
1.25e+09
1.25e+09
1.25e+09
1.25e+09
1.25e+09
1.25e+09
1.25e+09
1.25e+09
1.25e+09
1.25e+09
1.25e+09
1.25e+09
1.25e+09
1.25e+09
1.25e+09
1.25e+09
1.25e+09
1.25e+09
1.25e+09
1.25e+09
1.25e+09
1.25e+09
1.25e+09
1.25e+09
1.25e+09
1.25e+09
1.25e+09
1.25e+09
1.25e+09
1.25e+09
1.25e+09
1.25e+09
1.25e+09
1.25e+09
1.25e+09
1.25e+09
1.25e+09
1.25e+09
1.25e+09
1.25e+09
1.25e+09
1.25e+09
1.25e+09
1.25e+09
1.25e+09
1.25e+09
1.25e+09
1.25e+09
1.25e+09
1.25e+09
1.25e+09
1.25e+09
1.25e+09
1.25e+09
1.25e+09
1.25e+09
1.25e+09
1.25e+09
1.25e+09
1.25e+09
1.25e+09
1.25e+09
1.25e+09
1.25e+09
1.25e+09
1.25e+09
1.25e+09
1.25e+09
1.25e+09
1.25e+09
1.25e+09
1.25e+09
1.25e+09
1.25e+09
1.25e+09
1.25e+09
1.25e+09
1.25e+09
1.25e+09
1.25e+09
1.25e+09
1.25e+09
1.25e+09
1.25e+09
1.25e+09
1.25e+09
1.25e+09
1.25e+09
1.25e+09
1.25e+09
1.25e+09
1.25e+09
1.25e+09
1.25e+09
1.25e+09
1.25e+09
1.25e+09
1.25e+09
1.25e+09
1.25e+09
1.25e+09
1.25e+09
1.25e+09
1.25e+09
1.25e+09
1.25e+09
1.25e+09
1.25e+09
1.25e+09
1.25e+09
1.25e+09
1.25e+09
1.25e+09
1.25e+09
1.25e+09
1.25e+09
1.25e+09
1.25e+09
1.25e+09
1.25e+09
1.25e+09
1.25e+09
1.25e+09
1.25e+09
1.25e+09
1.25e+09
1.25e+09
1.25e+09
1.25e+09
1.25e+09
1.25e+09
1.25e+09
1.25e+09
1.25e+09
1.25e+09
1.25e+09
1.25e+09
1.25e+09
1.25e+09
1.25e+09
1.25e+09
1.25e+09
1.25e+09
1.25e+09
1.25e+09
1.25e+09
1.25e+09
1.25e+09
1.25e+09
1.25e+09
1.25e+09
1.25e+09
1.25e+09
1.25e+09
1.25e+09
1.25e+09
1.25e+09
1.25e+09
1.25e+09
1.25e+09
1.25e+09
1.25e+09
1.25e+09
1.25e+09
1.25e+09
1.25e+09
1.25e+09
1.25e+09
1.25e+09
1.25e+09
1.25e+09
1.25e+09
1.25e+09
1.25e+09
1.25e+09
1.25e+09
1.25e+09
1.25e+09
1.25e+09
1.25e+09
1.25e+09
1.25e+09
1.25e+09
1.25e+09
1.25e+09
1.25e+09
1.25e+09
1.25e+09
1.25e+09
1.25e+09
1.25e+09
1.25e+09
1.25e+09
1.25e+09
1.25e+09
1.25e+09
1.25e+09
1.25e+09
1.25e+09
1.25e+09
1.25e+09
1.25e+09
1.25e+09
1.25e+09
1.25e+09
1.25e+09
1.25e+09
1.25e+09
1.25e+09
1.25e+09
1.25e+09
1.25e+09
1.25e+09
1.25e+09
1.25e+09
1.25e+09
1.25e+09
1.25e+09
1.25e+09
1.25e+09
1.25e+09
1.25e+09
1.25e+09
1.25e+09
1.25e+09
1.25e+09
1.25e+09
1.25e+09
1.25e+09
1.25e+09
1.25e+09
1.25e+09
1.25e+09
1.25e+09
1.25e+09
1.25e+09
1.25e+09
1.25e+09
1.25e+09
1.25e+09
1.25e+09
1.25e+09
1.25e+09
1.25e+09
1.25e+09
1.25e+09
1.25e+09
1.25e+09
1.25e+09
1.25e+09
1.25e+09
1.25e+09
1.25e+09
1.25e+09
1.25e+09
1.25e+09
1.25e+09
1.25e+09
1.25e+09
1.25e+09
1.25e+09
1.25e+09
1.25e+09
1.25e+09
1.25e+09
1.25e+09
1.25e+09
1.25e+09
1.25e+09
1.25e+09
1.25e+09
1.25e+09
1.25e+09
1.25e+09
1.25e+09
1.25e+09
1.25e+09
1.25e+09
1.25e+09
1.25e+09
1.25e+09
1.25e+09
1.25e+09
1.25e+09
1.25e+09
1.25e+09
1.25e+09
1.25e+09
1.25e+09
1.25e+09
1.25e+09
1.25e+09
1.25e+09
1.25e+09
1.25e+09
1.25e+09
1.25e+09
1.25e+09
1.25e+09
1.25e+09
1.25e+09
1.25e+09
1.25e+09
1.25e+09
1.25e+09
1.25e+09
1.25e+09
1.25e+09
1.25e+09
1.25e+09
1.25e+09
1.25e+09
1.25e+09
1.25e+09
1.25e+09
1.25e+09
1.25e+09
1.25e+09
1.25e+09
1.25e+09
1.25e+09
1.25e+09
1.25e+09
1.25e+09
1.25e+09
1.25e+09
1.25e+09
1.25e+09
1.25e+09
1.25e+09
1.25e+09
1.25e+09
1.25e+09
1.25e+09
1.25e+09
1.25e+09
1.25e+09
1.25e+09
1.25e+09
1.25e+09
1.25e+09
1.25e+09
1.25e+09
1.25e+09
1.25e+09
1.25e+09
1.25e+09
1.25e+09
1.25e+09
1.25e+09
1.25e+09
1.25e+09
1.25e+09
1.25e+09
1.25e+09
1.25e+09
1.25e+09
1.25e+09
1.25e+09
1.25e+09
1.25e+09
1.25e+09
1.25e+09
1.25e+09
1.25e+09
1.25e+09
1.25e+09
1.25e+09
1.25e+09
1.25e+09
1.25e+09
1.25e+09
1.25e+09
1.25e+09
1.25e+09
1.25e+09
1.25e+09
1.25e+09
1.25e+09
1.25e+09
1.25e+09
1.25e+09
1.25e+09
1.25e+09
1.25e+09
1.25e+09
1.25e+09
1.25e+09
1.25e+09
1.25e+09
1.25e+09
1.25e+09
1.25e+09
1.25e+09
1.25e+09
1.25e+09
1.25e+09
1.25e+09
1.25e+09
1.25e+09
1.25e+09
1.25e+09
1.25e+09
1.25e+09
1.25e+09
1.25e+09
1.25e+09
1.25e+09
1.25e+09
1.25e+09
1.25e+09
1.25e+09
1.25e+09
1.25e+09
1.25e+09
1.25e+09
1.25e+09
1.25e+09
1.25e+09
1.25e+09
1.25e+09
1.25e+09
1.25e+09
1.25e+09
1.25e+09
1.25e+09
1.25e+09
1.25e+09
1.25e+09
1.25e+09
1.25e+09
1.25e+09
1.25e+09
1.25e+09
1.25e+09
1.25e+09
1.25e+09
1.25e+09
1.25e+09
1.25e+09
1.25e+09
1.25e+09
1.25e+09
1.25e+09
1.25e+09
1.25e+09
1.25e+09
1.25e+09
1.25e+09
1.25e+09
1.25e+09
1.25e+09
1.25e+09
1.25e+09
1.25e+09
1.25e+09
1.25e+09
1.25e+09
1.25e+09
1.25e+09
1.25e+09
1.25e+09
1.25e+09
1.25e+09
1.25e+09
1.25e+09
1.25e+09
1.25e+09
1.25e+09
1.25e+09
1.25e+09
1.25e+09
1.25e+09
1.25e+09
1.25e+09
1.25e+09
1.25e+09
1.25e+09
1.25e+09
1.25e+09
1.25e+09
1.25e+09
1.25e+09
1.25e+09
1.25e+09
1.25e+09
1.25e+09
1.25e+09
1.25e+09
1.25e+09
1.25e+09
1.25e+09
1.25e+09
1.25e+09
1.25e+09
1.25e+09
1.25e+09
1.25e+09
1.25e+09
1.25e+09
1.25e+09
1.25e+09
1.25e+09
1.25e+09
1.25e+09
1.25e+09
1.25e+09
1.25e+09
1.25e+09
1.25e+09
1.25e+09
1.25e+09
1.25e+09
1.25e+09
1.25e+09
1.25e+09
1.25e+09
1.25e+09
1.25e+09
1.25e+09
1.25e+09
1.25e+09
1.25e+09
1.25e+09
1.25e+09
1.25e+09
1.25e+09
1.25e+09
1.25e+09
1.25e+09
1.25e+09
1.25e+09
1.25e+09
1.25e+09
1.25e+09
1.25e+09
1.25e+09
1.25e+09
1.25e+09
1.25e+09
1.25e+09
1.25e+09
1.25e+09
1.25e+09
1.25e+09
1.25e+09
1.25e+09
1.25e+09
1.25e+09
1.25e+09
1.25e+09
1.25e+09
1.25e+09
1.25e+09
1.25e+09
1.25e+09
1.25e+09
1.25e+09
1.25e+09
1.25e+09
1.25e+09
1.25e+09
1.25e+09
1.25e+09
1.25e+09
1.25e+09
1.25e+09
1.25e+09
1.25e+09
1.25e+09
1.25e+09
1.25e+09
1.25e+09
1.25e+09
1.25e+09
1.25e+09
1.25e+09
1.25e+09
1.25e+09
1.25e+09
1.25e+09
1.25e+09
1.25e+09
1.25e+09
1.25e+09
1.25e+09
1.25e+09
1.25e+09
1.25e+09
1.25e+09
1.25e+09
1.25e+09
1.25e+09
1.25e+09
1.25e+09
1.25e+09
1.25e+09
1.25e+09
1.25e+09
1.25e+09
1.25e+09
1.25e+09
1.25e+09
1.25e+09
1.25e+09
1.25e+09
1.25e+09
1.25e+09
1.25e+09
1.25e+09
1.25e+09
1.25e+09
1.25e+09
1.25e+09
1.25e+09
1.25e+09
1.25e+09
1.25e+09
1.25e+09
1.25e+09
1.25e+09
1.25e+09
1.25e+09
1.25e+09
1.25e+09
1.25e+09
1.25e+09
1.25e+09
1.25e+09
1.25e+09
1.25e+09
1.25e+09
1.25e+09
1.25e+09
1.25e+09
1.25e+09
1.25e+09
1.25e+09
1.25e+09
1.25e+09
1.25e+09
1.25e+09
1.25e+09
1.25e+09
1.25e+09
1.25e+09
1.25e+09
1.25e+09
1.25e+09
1.25e+09
1.25e+09
1.25e+09
1.25e+09
1.25e+09
1.25e+09
1.25e+09
1.25e+09
1.25e+09
1.25e+09
1.25e+09
1.25e+09
1.25e+09
1.25e+09
1.25e+09
1.25e+09
1.25e+09
1.25e+09
1.25e+09
1.25e+09
1.25e+09
1.25e+09
1.25e+09
1.25e+09
1.25e+09
1.25e+09
1.25e+09
1.25e+09
1.25e+09
1.25e+09
1.25e+09
1.25e+09
1.25e+09
1.25e+09
1.25e+09
1.25e+09
1.25e+09
1.25e+09
1.25e+09
1.25e+09
1.25e+09
1.25e+09
1.25e+09
1.25e+09
1.25e+09
1.25e+09
1.25e+09
1.25e+09
1.25e+09
1.25e+09
1.25e+09
1.25e+09
1.25e+09
1.25e+09
1.25e+09
1.25e+09
1.25e+09
1.25e+09
1.25e+09
1.25e+09
1.25e+09
1.25e+09
1.25e+09
1.25e+09
1.25e+09
1.25e+09
1.25e+09
1.25e+09
1.25e+09
1.25e+09
1.25e+09
1.25e+09
1.25e+09
1.25e+09
1.25e+09
1.25e+09
1.25e+09
1.25e+09
1.25e+09
1.25e+09
1.25e+09
1.25e+09
1.25e+09
1.25e+09
1.25e+09
1.25e+09
1.25e+09
1.25e+09
1.25e+09
1.25e+09
1.25e+09
1.25e+09
1.25e+09
1.25e+09
1.25e+09
1.25e+09
1.25e+09
1.25e+09
1.25e+09
1.25e+09
1.25e+09
1.25e+09
1.25e+09
1.25e+09
1.25e+09
1.25e+09
1.25e+09
1.25e+09
1.25e+09
1.25e+09
1.25e+09
1.25e+09
1.25e+09
1.25e+09
1.25e+09
1.25e+09
1.25e+09
1.25e+09
1.25e+09
1.25e+09
1.25e+09
1.25e+09
1.25e+09
1.25e+09
1.25e+09
1.25e+09
1.25e+09
1.25e+09
1.25e+09
1.25e+09
1.25e+09
1.25e+09
1.25e+09
1.25e+09
1.25e+09
1.25e+09
1.25e+09
1.25e+09
1.25e+09
1.25e+09
1.25e+09
1.25e+09
1.25e+09
)
;

boundaryField
{
    wireUpstream
    {
        type            calculated;
        value           uniform 1.25e+09;
    }
    wireDownstream
    {
        type            calculated;
        value           nonuniform List<scalar> 
16
(
1.2586e+09
1.25861e+09
1.25864e+09
1.25866e+09
1.25869e+09
1.25871e+09
1.25873e+09
1.25871e+09
1.25866e+09
1.25854e+09
1.25834e+09
1.25798e+09
1.25748e+09
1.25681e+09
1.25625e+09
1.25859e+09
)
;
    }
    wireTopContact
    {
        type            calculated;
        value           nonuniform List<scalar> 
122
(
1.25624e+09
1.25626e+09
1.25629e+09
1.25631e+09
1.25633e+09
1.25636e+09
1.25638e+09
1.2564e+09
1.25643e+09
1.25645e+09
1.25648e+09
1.2565e+09
1.25652e+09
1.25655e+09
1.25657e+09
1.2566e+09
1.25662e+09
1.25664e+09
1.25667e+09
1.25669e+09
1.25672e+09
1.25674e+09
1.25677e+09
1.25679e+09
1.25681e+09
1.25684e+09
1.25686e+09
1.25689e+09
1.25691e+09
1.25694e+09
1.25696e+09
1.25699e+09
1.25701e+09
1.25704e+09
1.25706e+09
1.25709e+09
1.25712e+09
1.25714e+09
1.25717e+09
1.25719e+09
1.25722e+09
1.25724e+09
1.25727e+09
1.25729e+09
1.25732e+09
1.25735e+09
1.25737e+09
1.2574e+09
1.25742e+09
1.25745e+09
1.25748e+09
1.2575e+09
1.25752e+09
1.2575e+09
1.25742e+09
1.25726e+09
1.25701e+09
1.25664e+09
1.25612e+09
1.25555e+09
1.25497e+09
1.25438e+09
1.25381e+09
1.25326e+09
1.25273e+09
1.25222e+09
1.25172e+09
1.25119e+09
1.25065e+09
1.2502e+09
1.25e+09
1.25e+09
1.25e+09
1.25e+09
1.25e+09
1.25e+09
1.25e+09
1.25e+09
1.25e+09
1.25e+09
1.25e+09
1.25e+09
1.25e+09
1.25e+09
1.25e+09
1.25e+09
1.25e+09
1.25e+09
1.25e+09
1.25e+09
1.25e+09
1.25e+09
1.25e+09
1.25e+09
1.25e+09
1.25e+09
1.25e+09
1.25e+09
1.25e+09
1.25e+09
1.25e+09
1.25e+09
1.25e+09
1.25e+09
1.25e+09
1.25e+09
1.25e+09
1.25e+09
1.25e+09
1.25e+09
1.25e+09
1.25e+09
1.25e+09
1.25e+09
1.25e+09
1.25e+09
1.25e+09
1.25e+09
1.25e+09
1.25e+09
1.25e+09
1.25622e+09
)
;
    }
    front
    {
        type            wedge;
    }
    back
    {
        type            wedge;
    }
}


// ************************************************************************* //
