/*--------------------------------*- C++ -*----------------------------------*\
| =========                 |                                                 |
| \\      /  F ield         | foam-extend: Open Source CFD                    |
|  \\    /   O peration     | Version:     4.1-20200408                       |
|   \\  /    A nd           | Web:         http://www.foam-extend.org         |
|    \\/     M anipulation  |                                                 |
\*---------------------------------------------------------------------------*/
FoamFile
{
    version     2.0;
    format      ascii;
    class       volSymmTensorField;
    location    "0.0340000";
    object      sigmaCauchy;
}
// * * * * * * * * * * * * * * * * * * * * * * * * * * * * * * * * * * * * * //

dimensions      [1 -1 -2 0 0 0 0];

internalField   nonuniform List<symmTensor> 
1952
(
(-1.75836e+08 -316907 -2.46528 -6.14191e+07 -0.940679 -6.05382e+07)
(-1.68838e+08 -762307 -1.72467 -6.12323e+07 2.74934 -5.84041e+07)
(-1.6142e+08 -834070 1.73806 -6.08139e+07 7.5246 -5.58693e+07)
(-1.48634e+08 -1.22082e+06 4.97741 -6.03563e+07 -6.19841 -5.28035e+07)
(-1.32175e+08 -1.35602e+06 -1.87669 -6.01391e+07 -16.7504 -4.81984e+07)
(-1.08795e+08 -1.58829e+06 -8.61249 -5.90915e+07 0.79943 -4.35046e+07)
(-7.82809e+07 -1.83556e+06 -1.86914 -5.89403e+07 22.6229 -3.67534e+07)
(-3.52808e+07 -1.84917e+06 4.63132 -5.72104e+07 1.23882 -2.94735e+07)
(1.94538e+07 -2.23585e+06 -1.30241 -5.6766e+07 -22.7543 -1.99279e+07)
(9.94009e+07 -2.00266e+06 -7.37639 -5.42522e+07 8.07712 -9.09291e+06)
(1.98914e+08 -2.53652e+06 -0.706379 -5.30766e+07 24.4 2.43116e+06)
(3.52404e+08 -2.11468e+06 5.39109 -4.99538e+07 -6.34172 1.77497e+07)
(5.44919e+08 -2.90645e+06 -1.03069 -4.75562e+07 -21.3417 2.62657e+07)
(8.17768e+08 -2.90014e+06 -7.5392 -4.48574e+07 0.929645 4.97774e+07)
(1.05313e+09 -6.23686e+06 -2.79096 -4.03198e+07 3.8898 6.52394e+07)
(-1.76917e+08 -234705 -0.632948 -6.16099e+07 5.25284 -6.14152e+07)
(-1.78066e+08 -1.02373e+06 -4.94081 -6.80353e+07 -0.912229 -6.71478e+07)
(-1.71079e+08 -2.18548e+06 -3.45516 -6.77645e+07 2.64885 -6.50122e+07)
(-1.63551e+08 -2.54937e+06 3.48336 -6.71666e+07 7.28257 -6.23293e+07)
(-1.50799e+08 -3.58939e+06 9.97187 -6.66291e+07 -5.99469 -5.92243e+07)
(-1.34155e+08 -4.07834e+06 -3.76059 -6.60831e+07 -16.2852 -5.44073e+07)
(-1.10819e+08 -4.77578e+06 -17.2538 -6.49438e+07 0.757682 -4.96269e+07)
(-8.00787e+07 -5.50306e+06 -3.75134 -6.43801e+07 22.0863 -4.26315e+07)
(-3.71259e+07 -5.71431e+06 9.27463 -6.25422e+07 1.18523 -3.52246e+07)
(1.7826e+07 -6.74732e+06 -2.60845 -6.16778e+07 -22.3283 -2.54404e+07)
(9.77206e+07 -6.41368e+06 -14.7784 -5.90382e+07 7.97684 -1.4445e+07)
(1.97334e+08 -7.75352e+06 -1.407 -5.75176e+07 24.0143 -2.75272e+06)
(3.50712e+08 -6.95185e+06 10.8196 -5.42052e+07 -6.28629 1.27268e+07)
(5.42949e+08 -8.51537e+06 -2.06111 -5.15591e+07 -20.9652 2.12236e+07)
(8.14605e+08 -7.38718e+06 -15.3749 -4.81607e+07 0.990183 4.50795e+07)
(1.04704e+09 -9.58243e+06 -5.92538 -4.26881e+07 3.76172 6.04781e+07)
(-1.79155e+08 -647249 -1.26951 -6.82139e+07 5.05773 -6.80552e+07)
(-1.80033e+08 -1.36794e+06 -4.94821 -7.28693e+07 -0.888521 -7.19987e+07)
(-1.73045e+08 -2.77392e+06 -3.45847 -7.25427e+07 2.58063 -6.98373e+07)
(-1.65434e+08 -3.32972e+06 3.4889 -7.18028e+07 7.10451 -6.70594e+07)
(-1.52689e+08 -4.60838e+06 9.98036 -7.11675e+07 -5.86368 -6.38882e+07)
(-1.35904e+08 -5.28584e+06 -3.76683 -7.03827e+07 -15.9495 -5.89158e+07)
(-1.12576e+08 -6.19036e+06 -17.2694 -6.90974e+07 0.750755 -5.40283e+07)
(-8.16568e+07 -7.11415e+06 -3.76697 -6.82212e+07 21.7176 -4.68293e+07)
(-3.87063e+07 -7.4817e+06 9.27091 -6.61804e+07 1.14833 -3.92739e+07)
(1.64308e+07 -8.72363e+06 -2.61182 -6.49445e+07 -22.0337 -2.92529e+07)
(9.63473e+07 -8.47651e+06 -14.7902 -6.20242e+07 7.90748 -1.80528e+07)
(1.96101e+08 -1.00001e+07 -1.39364 -6.00471e+07 23.7618 -6.10796e+06)
(3.4958e+08 -9.15039e+06 10.8483 -5.63102e+07 -6.24715 9.6582e+06)
(5.41995e+08 -1.06572e+07 -2.05944 -5.29934e+07 -20.73 1.84452e+07)
(8.13843e+08 -9.03986e+06 -15.4797 -4.88652e+07 1.06631 4.29277e+07)
(1.04745e+09 -1.02885e+07 -5.97087 -4.27018e+07 3.71907 5.94276e+07)
(-1.81133e+08 -809607 -1.272 -7.30743e+07 4.91711 -7.29246e+07)
(-1.82442e+08 -1.654e+06 -4.95553 -7.70243e+07 -0.868958 -7.61764e+07)
(-1.75439e+08 -3.26436e+06 -3.46082 -7.66546e+07 2.5273 -7.39814e+07)
(-1.67757e+08 -3.97854e+06 3.49392 -7.57967e+07 6.96207 -7.11315e+07)
(-1.54993e+08 -5.45742e+06 9.98377 -7.50617e+07 -5.76183 -6.78867e+07)
(-1.38083e+08 -6.28532e+06 -3.77283 -7.40871e+07 -15.6836 -6.27869e+07)
(-1.14731e+08 -7.36568e+06 -17.2773 -7.2642e+07 0.744555 -5.77877e+07)
(-8.36524e+07 -8.43385e+06 -3.78492 -7.15098e+07 21.43 -5.04111e+07)
(-4.06669e+07 -8.92799e+06 9.25919 -6.92362e+07 1.12907 -4.27052e+07)
(1.4645e+07 -1.03029e+07 -2.61527 -6.76723e+07 -21.8061 -3.24665e+07)
(9.46431e+07 -1.00857e+07 -14.8015 -6.44196e+07 7.83714 -2.10568e+07)
(1.9459e+08 -1.16856e+07 -1.38176 -6.20057e+07 23.5667 -8.85168e+06)
(3.48353e+08 -1.06571e+07 10.8874 -5.7812e+07 -6.20602 7.2311e+06)
(5.41177e+08 -1.19823e+07 -2.05741 -5.39022e+07 -20.5543 1.63503e+07)
(8.1342e+08 -9.90178e+06 -15.5578 -4.92715e+07 1.14254 4.15209e+07)
(1.04748e+09 -1.05388e+07 -5.9693 -4.27494e+07 3.69896 5.8824e+07)
(-1.83555e+08 -945598 -1.27222 -7.72687e+07 4.80469 -7.71176e+07)
(-1.85226e+08 -1.88025e+06 -4.96225 -8.0467e+07 -0.85416 -7.96407e+07)
(-1.78201e+08 -3.65377e+06 -3.46313 -8.00614e+07 2.48809 -7.74122e+07)
(-1.70446e+08 -4.4915e+06 3.49805 -7.90924e+07 6.85607 -7.44995e+07)
(-1.57645e+08 -6.12936e+06 9.98453 -7.82668e+07 -5.6895 -7.11789e+07)
(-1.40606e+08 -7.0692e+06 -3.77833 -7.71152e+07 -15.4888 -6.59636e+07)
(-1.17199e+08 -8.28654e+06 -17.2806 -7.55186e+07 0.74385 -6.08495e+07)
(-8.59422e+07 -9.44808e+06 -3.80361 -7.41464e+07 21.2216 -5.33058e+07)
(-4.28765e+07 -1.00293e+07 9.24267 -7.16465e+07 1.11134 -4.54461e+07)
(1.26696e+07 -1.14614e+07 -2.61844 -6.9784e+07 -21.6466 -3.49952e+07)
(9.28242e+07 -1.12295e+07 -14.8043 -6.62033e+07 7.78937 -2.3369e+07)
(1.93098e+08 -1.28145e+07 -1.36992 -6.34391e+07 23.433 -1.09008e+07)
(3.47307e+08 -1.15796e+07 10.9148 -5.88054e+07 -6.17275 5.51115e+06)
(5.40597e+08 -1.273e+07 -2.05522 -5.44799e+07 -20.4385 1.49164e+07)
(8.1354e+08 -1.04062e+07 -15.6076 -4.94927e+07 1.22327 4.08982e+07)
(1.04838e+09 -1.06737e+07 -5.96008 -4.27418e+07 3.69789 5.89701e+07)
(-1.86356e+08 -1.05375e+06 -1.27556 -8.07517e+07 4.72092 -8.05977e+07)
(-1.88292e+08 -2.05266e+06 -4.96815 -8.32181e+07 -0.844025 -8.24091e+07)
(-1.81237e+08 -3.95732e+06 -3.4648 -8.27787e+07 2.46172 -8.01489e+07)
(-1.73411e+08 -4.88148e+06 3.50119 -8.1711e+07 6.78459 -7.71795e+07)
(-1.60553e+08 -6.64752e+06 9.98193 -8.07992e+07 -5.64257 -7.37844e+07)
(-1.43387e+08 -7.65851e+06 -3.78333 -7.94899e+07 -15.3608 -6.84638e+07)
(-1.19892e+08 -8.98472e+06 -17.2773 -7.77494e+07 0.745453 -6.32337e+07)
(-8.84493e+07 -1.01914e+07 -3.82366 -7.6161e+07 21.0895 -5.55341e+07)
(-4.52516e+07 -1.08405e+07 9.21671 -7.34527e+07 1.09769 -4.75175e+07)
(1.05569e+07 -1.22691e+07 -2.62131 -7.1325e+07 -21.5519 -3.68649e+07)
(9.09399e+07 -1.20241e+07 -14.7959 -6.74609e+07 7.76714 -2.50204e+07)
(1.91617e+08 -1.35309e+07 -1.35808 -6.44139e+07 23.3611 -1.22951e+07)
(3.46365e+08 -1.20752e+07 10.9576 -5.9431e+07 -6.15939 4.43532e+06)
(5.40169e+08 -1.30854e+07 -2.05195 -5.48263e+07 -20.3814 1.40781e+07)
(8.13817e+08 -1.06245e+07 -15.6657 -4.97116e+07 1.28569 4.05865e+07)
(1.04926e+09 -1.0704e+07 -5.94364 -4.27056e+07 3.70819 5.93832e+07)
(-1.89441e+08 -1.13833e+06 -1.27666 -8.35397e+07 4.66403 -8.3383e+07)
(-1.91578e+08 -2.17735e+06 -4.9734 -8.55305e+07 -0.836781 -8.47382e+07)
(-1.84485e+08 -4.18204e+06 -3.46677 -8.50649e+07 2.44408 -8.24461e+07)
(-1.76587e+08 -5.16017e+06 3.50446 -8.39024e+07 6.73503 -7.9427e+07)
(-1.63655e+08 -7.02264e+06 9.97921 -8.29221e+07 -5.61493 -7.59577e+07)
(-1.46356e+08 -8.07153e+06 -3.78822 -8.14581e+07 -15.2753 -7.05416e+07)
(-1.22743e+08 -9.47119e+06 -17.272 -7.96047e+07 0.754734 -6.51947e+07)
(-9.11003e+07 -1.06893e+07 -3.84409 -7.77961e+07 21.0009 -5.73502e+07)
(-4.77224e+07 -1.13711e+07 9.1867 -7.49344e+07 1.06732 -4.91753e+07)
(8.38886e+06 -1.27613e+07 -2.62426 -7.252e+07 -21.4966 -3.83303e+07)
(8.90645e+07 -1.24842e+07 -14.7776 -6.84738e+07 7.79474 -2.62736e+07)
(1.90291e+08 -1.38917e+07 -1.34692 -6.50931e+07 23.3364 -1.32782e+07)
(3.45616e+08 -1.22434e+07 10.9939 -5.99304e+07 -6.19792 3.73615e+06)
(5.39805e+08 -1.3299e+07 -2.04772 -5.50298e+07 -20.3994 1.39255e+07)
(8.14237e+08 -1.06884e+07 -15.687 -4.99453e+07 1.32191 4.06094e+07)
(1.05027e+09 -1.0704e+07 -5.92803 -4.26201e+07 3.72805 6.00667e+07)
(-1.92747e+08 -1.20036e+06 -1.27949 -8.58878e+07 4.62447 -8.57274e+07)
(-1.95017e+08 -2.26004e+06 -4.97958 -8.73966e+07 -0.832551 -8.66177e+07)
(-1.87875e+08 -4.33926e+06 -3.46814 -8.69045e+07 2.43454 -8.42932e+07)
(-1.799e+08 -5.34374e+06 3.50763 -8.56646e+07 6.70743 -8.12306e+07)
(-1.66879e+08 -7.2745e+06 9.97488 -8.46226e+07 -5.60211 -7.76928e+07)
(-1.49436e+08 -8.33447e+06 -3.79276 -8.30295e+07 -15.2313 -7.21887e+07)
(-1.25676e+08 -9.77622e+06 -17.2643 -8.10807e+07 0.763764 -6.67321e+07)
(-9.38177e+07 -1.09837e+07 -3.86492 -7.90867e+07 20.9593 -5.8754e+07)
(-5.02117e+07 -1.1665e+07 9.1514 -7.61128e+07 1.03972 -5.0432e+07)
(6.22231e+06 -1.30084e+07 -2.62721 -7.34509e+07 -21.4787 -3.94117e+07)
(8.72425e+07 -1.26752e+07 -14.747 -6.93145e+07 7.84237 -2.71661e+07)
(1.89051e+08 -1.4002e+07 -1.33418 -6.56251e+07 23.3473 -1.39338e+07)
(3.44816e+08 -1.21962e+07 10.9986 -6.04074e+07 -6.2526 3.26438e+06)
(5.39476e+08 -1.33792e+07 -2.04433 -5.52282e+07 -20.4506 1.40542e+07)
(8.14769e+08 -1.06379e+07 -15.6919 -5.01493e+07 1.35285 4.09293e+07)
(1.05121e+09 -1.06653e+07 -5.91015 -4.25736e+07 3.75587 6.09318e+07)
(-1.96203e+08 -1.24454e+06 -1.28024 -8.77808e+07 4.60185 -8.76181e+07)
(-1.98557e+08 -2.30739e+06 -4.98518 -8.88751e+07 -0.830732 -8.81081e+07)
(-1.9136e+08 -4.44098e+06 -3.46976 -8.83636e+07 2.43202 -8.57527e+07)
(-1.83302e+08 -5.45022e+06 3.51058 -8.70517e+07 6.69782 -8.26506e+07)
(-1.70177e+08 -7.42624e+06 9.96985 -8.59628e+07 -5.6044 -7.9046e+07)
(-1.52579e+08 -8.48041e+06 -3.79741 -8.4251e+07 -15.2219 -7.34612e+07)
(-1.28651e+08 -9.93963e+06 -17.2565 -8.22323e+07 0.777184 -6.78977e+07)
(-9.65581e+07 -1.11339e+07 -3.88501 -8.00682e+07 20.9544 -5.97957e+07)
(-5.26948e+07 -1.1787e+07 9.11883 -7.70232e+07 1.00488 -5.13315e+07)
(4.09223e+06 -1.31088e+07 -2.6299 -7.41335e+07 -21.4929 -4.01474e+07)
(8.54852e+07 -1.26901e+07 -14.7189 -6.99677e+07 7.91466 -2.77253e+07)
(1.8795e+08 -1.39514e+07 -1.31587 -6.6002e+07 23.3905 -1.42649e+07)
(3.44107e+08 -1.20003e+07 10.9655 -6.07833e+07 -6.31835 3.0586e+06)
(5.39101e+08 -1.33475e+07 -2.04171 -5.54435e+07 -20.5185 1.42966e+07)
(8.15328e+08 -1.05145e+07 -15.6874 -5.03026e+07 1.39216 4.14449e+07)
(1.05209e+09 -1.06162e+07 -5.89291 -4.2565e+07 3.79058 6.1957e+07)
(-1.99762e+08 -1.27455e+06 -1.28145 -8.92855e+07 4.59343 -8.91195e+07)
(-2.02151e+08 -2.32491e+06 -4.99043 -9.00308e+07 -0.831042 -8.92718e+07)
(-1.94893e+08 -4.49413e+06 -3.4712 -8.95016e+07 2.4349 -8.68877e+07)
(-1.86744e+08 -5.48968e+06 3.51333 -8.81321e+07 6.70333 -8.37471e+07)
(-1.73507e+08 -7.49148e+06 9.96432 -8.69991e+07 -5.61562 -8.00814e+07)
(-1.5574e+08 -8.52587e+06 -3.80209 -8.51979e+07 -15.2408 -7.442e+07)
(-1.31633e+08 -9.98046e+06 -17.2478 -8.31092e+07 0.786355 -6.87584e+07)
(-9.92869e+07 -1.11584e+07 -3.90505 -8.08242e+07 20.9844 -6.05391e+07)
(-5.51514e+07 -1.176e+07 9.08292 -7.7693e+07 0.98962 -5.19453e+07)
(2.00719e+06 -1.30754e+07 -2.63276 -7.46572e+07 -21.5321 -4.06113e+07)
(8.38343e+07 -1.25675e+07 -14.6743 -7.04097e+07 7.95838 -2.80177e+07)
(1.8694e+08 -1.37779e+07 -1.28792 -6.63015e+07 23.4411 -1.43602e+07)
(3.43326e+08 -1.18091e+07 10.9137 -6.10408e+07 -6.39025 3.31242e+06)
(5.38703e+08 -1.32573e+07 -2.03933 -5.56595e+07 -20.6034 1.4667e+07)
(8.15908e+08 -1.03275e+07 -15.6793 -5.03771e+07 1.44183 4.2114e+07)
(1.05283e+09 -1.05635e+07 -5.87726 -4.26111e+07 3.82939 6.30539e+07)
(-2.03377e+08 -1.29138e+06 -1.28471 -9.04614e+07 4.59654 -9.02932e+07)
(-2.05765e+08 -2.31997e+06 -4.99641 -9.09228e+07 -0.832954 -9.01694e+07)
(-1.9844e+08 -4.51335e+06 -3.47247 -9.03813e+07 2.44216 -8.77579e+07)
(-1.90192e+08 -5.47962e+06 3.51617 -8.89641e+07 6.72034 -8.45814e+07)
(-1.76836e+08 -7.4987e+06 9.95761 -8.77965e+07 -5.63525 -8.08587e+07)
(-1.58886e+08 -8.49837e+06 -3.8071 -8.59262e+07 -15.2815 -7.5125e+07)
(-1.3459e+08 -9.94396e+06 -17.2384 -8.37778e+07 0.79457 -6.93726e+07)
(-1.01972e+08 -1.1092e+07 -3.92601 -8.14095e+07 21.04 -6.10428e+07)
(-5.75574e+07 -1.16466e+07 9.04595 -7.81961e+07 0.984033 -5.23318e+07)
(-22736.3 -1.29457e+07 -2.63573 -7.508e+07 -21.5912 -4.08611e+07)
(8.22627e+07 -1.23729e+07 -14.6333 -7.07327e+07 7.98468 -2.81165e+07)
(1.85934e+08 -1.35668e+07 -1.26975 -6.65779e+07 23.4995 -1.43135e+07)
(3.42569e+08 -1.16154e+07 10.9073 -6.12441e+07 -6.45186 3.76123e+06)
(5.38337e+08 -1.31139e+07 -2.03661 -5.58077e+07 -20.6992 1.51566e+07)
(8.16457e+08 -1.01401e+07 -15.6661 -5.04351e+07 1.48731 4.28431e+07)
(1.05344e+09 -1.05384e+07 -5.8663 -4.26636e+07 3.87082 6.41668e+07)
(-2.07011e+08 -1.29961e+06 -1.28437 -9.13717e+07 4.60856 -9.12005e+07)
(-2.09371e+08 -2.29762e+06 -5.00201 -9.16266e+07 -0.836044 -9.08756e+07)
(-2.01976e+08 -4.50627e+06 -3.47357 -9.10771e+07 2.45236 -8.84388e+07)
(-1.93623e+08 -5.43164e+06 3.51946 -8.96228e+07 6.74536 -8.52285e+07)
(-1.80141e+08 -7.46116e+06 9.95014 -8.84292e+07 -5.65999 -8.14543e+07)
(-1.61999e+08 -8.41632e+06 -3.8124 -8.65095e+07 -15.3369 -7.56529e+07)
(-1.37509e+08 -9.85001e+06 -17.2275 -8.43138e+07 0.801327 -6.98193e+07)
(-1.0461e+08 -1.09626e+07 -3.94881 -8.18918e+07 21.1124 -6.13878e+07)
(-5.99071e+07 -1.14768e+07 9.00221 -7.86139e+07 0.984201 -5.25758e+07)
(-2.00114e+06 -1.27562e+07 -2.63934 -7.54503e+07 -21.6619 -4.09839e+07)
(8.07499e+07 -1.21429e+07 -14.5829 -7.10315e+07 8.0072 -2.81142e+07)
(1.84952e+08 -1.33219e+07 -1.25028 -6.68345e+07 23.5649 -1.4199e+07)
(3.41759e+08 -1.14021e+07 10.9095 -6.1449e+07 -6.50938 4.22356e+06)
(5.37952e+08 -1.29644e+07 -2.03388 -5.59612e+07 -20.8048 1.57201e+07)
(8.16942e+08 -9.97425e+06 -15.6509 -5.05282e+07 1.52006 4.3619e+07)
(1.05395e+09 -1.0523e+07 -5.85835 -4.27232e+07 3.91351 6.52609e+07)
(-2.10641e+08 -1.30066e+06 -1.28805 -9.20912e+07 4.62668 -9.19167e+07)
(-2.1295e+08 -2.26527e+06 -5.00943 -9.21462e+07 -0.840189 -9.13951e+07)
(-2.05481e+08 -4.48655e+06 -3.47515 -9.15943e+07 2.46536 -8.8935e+07)
(-1.97017e+08 -5.36304e+06 3.5226 -9.01127e+07 6.77764 -8.56943e+07)
(-1.83405e+08 -7.40451e+06 9.94187 -8.89031e+07 -5.68986 -8.18742e+07)
(-1.65061e+08 -8.30769e+06 -3.81826 -8.69535e+07 -15.4057 -7.60114e+07)
(-1.40374e+08 -9.73591e+06 -17.2161 -8.47212e+07 0.806625 -7.01076e+07)
(-1.07187e+08 -1.08083e+07 -3.97312 -8.2277e+07 21.1998 -6.15855e+07)
(-6.21951e+07 -1.12894e+07 8.95878 -7.89403e+07 0.992398 -5.26892e+07)
(-3.93442e+06 -1.25527e+07 -2.64314 -7.57651e+07 -21.742 -4.09984e+07)
(7.92958e+07 -1.18902e+07 -14.5477 -7.12795e+07 8.02294 -2.80151e+07)
(1.83961e+08 -1.3077e+07 -1.23892 -6.70441e+07 23.6355 -1.4027e+07)
(3.40944e+08 -1.12148e+07 10.9296 -6.16254e+07 -6.56978 4.74265e+06)
(5.37553e+08 -1.28114e+07 -2.03123 -5.6107e+07 -20.9201 1.63628e+07)
(8.17373e+08 -9.81966e+06 -15.645 -5.06177e+07 1.54507 4.44486e+07)
(1.05435e+09 -1.04884e+07 -5.8491 -4.27797e+07 3.95762 6.63538e+07)
(-2.14245e+08 -1.29829e+06 -1.28958 -9.26239e+07 4.65045 -9.24458e+07)
(-2.16498e+08 -2.22855e+06 -5.01581 -9.25079e+07 -0.845157 -9.17556e+07)
(-2.08952e+08 -4.46315e+06 -3.4766 -9.19594e+07 2.48079 -8.92735e+07)
(-2.00375e+08 -5.28582e+06 3.52627 -9.04543e+07 6.81577 -8.60063e+07)
(-1.8663e+08 -7.34392e+06 9.93251 -8.92403e+07 -5.72523 -8.21437e+07)
(-1.68081e+08 -8.18862e+06 -3.82452 -8.72663e+07 -15.4854 -7.6226e+07)
(-1.43193e+08 -9.62097e+06 -17.2027 -8.50135e+07 0.814204 -7.0258e+07)
(-1.09712e+08 -1.06447e+07 -4.00012 -8.25554e+07 21.2973 -6.16545e+07)
(-6.44327e+07 -1.11021e+07 8.91061 -7.91784e+07 0.997101 -5.2683e+07)
(-5.80611e+06 -1.23448e+07 -2.64732 -7.60122e+07 -21.8306 -4.09073e+07)
(7.78898e+07 -1.16211e+07 -14.5198 -7.1477e+07 8.0438 -2.78238e+07)
(1.82942e+08 -1.28255e+07 -1.23203 -6.72308e+07 23.7144 -1.38036e+07)
(3.40079e+08 -1.10555e+07 10.9528 -6.17817e+07 -6.63174 5.28976e+06)
(5.37152e+08 -1.26912e+07 -2.02879 -5.62179e+07 -21.0418 1.70686e+07)
(8.17758e+08 -9.69867e+06 -15.6437 -5.0704e+07 1.56789 4.53141e+07)
(1.05465e+09 -1.0471e+07 -5.84126 -4.28044e+07 4.00523 6.75271e+07)
(-2.17817e+08 -1.29482e+06 -1.29117 -9.29982e+07 4.67892 -9.28156e+07)
(-2.2001e+08 -2.19152e+06 -5.02333 -9.27391e+07 -0.850763 -9.1985e+07)
(-2.12383e+08 -4.44182e+06 -3.47828 -9.21998e+07 2.49817 -8.94821e+07)
(-2.03691e+08 -5.20855e+06 3.52982 -9.06762e+07 6.85837 -8.61934e+07)
(-1.89808e+08 -7.28832e+06 9.9227 -8.94695e+07 -5.76505 -8.2292e+07)
(-1.71049e+08 -8.07177e+06 -3.83149 -8.74792e+07 -15.5732 -7.63276e+07)
(-1.45959e+08 -9.51916e+06 -17.1889 -8.52226e+07 0.823712 -7.03025e+07)
(-1.12176e+08 -1.04919e+07 -4.02883 -8.27642e+07 21.4016 -6.16294e+07)
(-6.66133e+07 -1.09474e+07 8.86113 -7.93631e+07 0.999168 -5.25915e+07)
(-7.61374e+06 -1.21723e+07 -2.65192 -7.62337e+07 -21.9242 -4.07487e+07)
(7.65474e+07 -1.1386e+07 -14.5153 -7.16547e+07 8.06681 -2.75695e+07)
(1.81867e+08 -1.26112e+07 -1.23445 -6.74232e+07 23.7987 -1.35673e+07)
(3.39162e+08 -1.09087e+07 10.9802 -6.1999e+07 -6.68554 5.72981e+06)
(5.36724e+08 -1.25921e+07 -2.02701 -5.63429e+07 -21.1547 1.76866e+07)
(8.18101e+08 -9.59476e+06 -15.6458 -5.08387e+07 1.59289 4.60821e+07)
(1.0549e+09 -1.0482e+07 -5.83706 -4.28e+07 4.05457 6.8727e+07)
(-2.21355e+08 -1.29175e+06 -1.29295 -9.32408e+07 4.71108 -9.30532e+07)
(-2.23491e+08 -2.15965e+06 -5.03192 -9.29841e+07 -0.856194 -9.22282e+07)
(-2.15781e+08 -4.43225e+06 -3.4806 -9.2461e+07 2.5153 -8.97057e+07)
(-2.06975e+08 -5.14389e+06 3.53407 -9.09202e+07 6.8992 -8.64017e+07)
(-1.9295e+08 -7.25545e+06 9.91261 -8.97366e+07 -5.80587 -8.24644e+07)
(-1.73986e+08 -7.97594e+06 -3.83935 -8.77258e+07 -15.6569 -7.64635e+07)
(-1.4869e+08 -9.45536e+06 -17.1736 -8.54913e+07 0.838346 -7.03857e+07)
(-1.14613e+08 -1.0368e+07 -4.06126 -8.30072e+07 21.4953 -6.16534e+07)
(-6.87762e+07 -1.08474e+07 8.80512 -7.96164e+07 0.983275 -5.25542e+07)
(-9.36863e+06 -1.20399e+07 -2.65715 -7.64531e+07 -22.0111 -4.06349e+07)
(7.5245e+07 -1.11774e+07 -14.5333 -7.18672e+07 8.11852 -2.73589e+07)
(1.80782e+08 -1.24827e+07 -1.2387 -6.75908e+07 23.903 -1.31582e+07)
(3.38209e+08 -1.07872e+07 10.993 -6.22697e+07 -6.72123 6.15181e+06)
(5.36286e+08 -1.25026e+07 -2.02561 -5.64557e+07 -21.2653 1.82913e+07)
(8.18387e+08 -9.46672e+06 -15.6413 -5.10285e+07 1.61372 4.6799e+07)
(1.05509e+09 -1.04933e+07 -5.83457 -4.27851e+07 4.10448 6.99187e+07)
(-2.24861e+08 -1.29181e+06 -1.29658 -9.34966e+07 4.74221 -9.33035e+07)
(-2.26955e+08 -2.13692e+06 -5.04111 -9.31615e+07 -0.861951 -9.2404e+07)
(-2.19158e+08 -4.4378e+06 -3.48308 -9.26598e+07 2.53359 -8.98625e+07)
(-2.10238e+08 -5.09952e+06 3.53877 -9.11017e+07 6.94217 -8.6549e+07)
(-1.96065e+08 -7.24499e+06 9.90349 -8.99549e+07 -5.85065 -8.25773e+07)
(-1.76898e+08 -7.90724e+06 -3.84778 -8.79151e+07 -15.7442 -7.65481e+07)
(-1.51389e+08 -9.409e+06 -17.1604 -8.57307e+07 0.859618 -7.04172e+07)
(-1.17018e+08 -1.02631e+07 -4.09457 -8.31889e+07 21.5871 -6.16332e+07)
(-7.09071e+07 -1.07394e+07 8.74749 -7.9864e+07 0.943083 -5.24719e+07)
(-1.10389e+07 -1.19001e+07 -2.66281 -7.65975e+07 -22.1 -4.04687e+07)
(7.39483e+07 -1.09725e+07 -14.5221 -7.20893e+07 8.21041 -2.71267e+07)
(1.7963e+08 -1.24444e+07 -1.22261 -6.77359e+07 24.0385 -1.25151e+07)
(3.3728e+08 -1.06949e+07 10.989 -6.24832e+07 -6.75484 6.7894e+06)
(5.35873e+08 -1.24364e+07 -2.02375 -5.65308e+07 -21.3941 1.90769e+07)
(8.18642e+08 -9.35473e+06 -15.6397 -5.1187e+07 1.62369 4.76549e+07)
(1.05521e+09 -1.04846e+07 -5.83047 -4.27902e+07 4.15443 7.10933e+07)
(-2.2835e+08 -1.29571e+06 -1.30006 -9.36839e+07 4.7754 -9.3485e+07)
(-2.30414e+08 -2.12713e+06 -5.05073 -9.31291e+07 -0.868849 -9.23699e+07)
(-2.22526e+08 -4.46437e+06 -3.48604 -9.26508e+07 2.55531 -8.98097e+07)
(-2.13488e+08 -5.08411e+06 3.54358 -9.1078e+07 6.99395 -8.64891e+07)
(-1.99161e+08 -7.26758e+06 9.89485 -8.9973e+07 -5.90275 -8.24826e+07)
(-1.79782e+08 -7.88213e+06 -3.85639 -8.79091e+07 -15.8487 -7.64264e+07)
(-1.5405e+08 -9.40267e+06 -17.1476 -8.5787e+07 0.883107 -7.02405e+07)
(-1.19371e+08 -1.02139e+07 -4.12926 -8.32038e+07 21.6988 -6.14055e+07)
(-7.29901e+07 -1.0678e+07 8.68477 -7.99724e+07 0.899979 -5.21842e+07)
(-1.26677e+07 -1.18187e+07 -2.66889 -7.66491e+07 -22.2073 -4.01139e+07)
(7.25836e+07 -1.08544e+07 -14.4686 -7.2242e+07 8.30016 -2.6761e+07)
(1.78427e+08 -1.24595e+07 -1.1905 -6.78443e+07 24.1772 -1.18972e+07)
(3.36381e+08 -1.06412e+07 10.9761 -6.26102e+07 -6.80605 7.48749e+06)
(5.3546e+08 -1.24309e+07 -2.02206 -5.65961e+07 -21.526 1.98887e+07)
(8.18884e+08 -9.29845e+06 -15.6469 -5.12904e+07 1.63589 4.85305e+07)
(1.05528e+09 -1.04863e+07 -5.82733 -4.2808e+07 4.20363 7.22252e+07)
(-2.31834e+08 -1.30506e+06 -1.30176 -9.36604e+07 4.81558 -9.34556e+07)
(-2.33892e+08 -2.13019e+06 -5.06106 -9.30614e+07 -0.87604 -9.22992e+07)
(-2.25908e+08 -4.51289e+06 -3.48942 -9.26058e+07 2.57769 -8.97188e+07)
(-2.1675e+08 -5.09861e+06 3.54924 -9.10224e+07 7.04764 -8.63906e+07)
(-2.02263e+08 -7.32704e+06 9.88718 -8.99598e+07 -5.95599 -8.23474e+07)
(-1.82667e+08 -7.90725e+06 -3.8656 -8.78776e+07 -15.957 -7.62639e+07)
(-1.56704e+08 -9.45348e+06 -17.1368 -8.5823e+07 0.906424 -7.00218e+07)
(-1.21715e+08 -1.02429e+07 -4.1656 -8.32041e+07 21.8148 -6.11372e+07)
(-7.50563e+07 -1.07068e+07 8.62045 -8.00758e+07 0.857399 -5.18635e+07)
(-1.42691e+07 -1.18259e+07 -2.67576 -7.67021e+07 -22.3176 -3.97241e+07)
(7.12144e+07 -1.08149e+07 -14.4049 -7.23821e+07 8.38039 -2.63885e+07)
(1.77197e+08 -1.25321e+07 -1.1576 -6.79659e+07 24.3088 -1.1357e+07)
(3.35491e+08 -1.0644e+07 10.9581 -6.27619e+07 -6.86338 8.13537e+06)
(5.35044e+08 -1.2482e+07 -2.02087 -5.66932e+07 -21.6521 2.06365e+07)
(8.19143e+08 -9.27958e+06 -15.6555 -5.13975e+07 1.65419 4.93607e+07)
(1.05534e+09 -1.05078e+07 -5.82644 -4.28258e+07 4.25351 7.33691e+07)
(-2.35336e+08 -1.32065e+06 -1.30634 -9.35996e+07 4.8571 -9.33891e+07)
(-2.374e+08 -2.14828e+06 -5.07318 -9.29901e+07 -0.883449 -9.22226e+07)
(-2.29319e+08 -4.58787e+06 -3.49327 -9.25581e+07 2.60027 -8.96218e+07)
(-2.20033e+08 -5.14973e+06 3.55501 -9.09706e+07 7.10228 -8.62849e+07)
(-2.05384e+08 -7.43005e+06 9.8803 -8.99503e+07 -6.00837 -8.22088e+07)
(-1.85565e+08 -7.99231e+06 -3.8758 -8.7862e+07 -16.0664 -7.60987e+07)
(-1.5937e+08 -9.56171e+06 -17.1285 -8.58692e+07 0.926126 -6.98072e+07)
(-1.24066e+08 -1.03498e+07 -4.20429 -8.32279e+07 21.9324 -6.0877e+07)
(-7.7107e+07 -1.08053e+07 8.54821 -8.01811e+07 0.825481 -5.15581e+07)
(-1.5836e+07 -1.18895e+07 -2.68403 -7.67676e+07 -22.4251 -3.93479e+07)
(6.97962e+07 -1.08738e+07 -14.3108 -7.25201e+07 8.46925 -2.59395e+07)
(1.7593e+08 -1.26852e+07 -1.1204 -6.81195e+07 24.447 -1.08222e+07)
(3.34623e+08 -1.06999e+07 10.9402 -6.29045e+07 -6.93037 8.81766e+06)
(5.34641e+08 -1.2565e+07 -2.01986 -5.68114e+07 -21.78 2.13942e+07)
(8.19425e+08 -9.27561e+06 -15.6641 -5.14877e+07 1.67728 5.02258e+07)
(1.05541e+09 -1.05374e+07 -5.82633 -4.28533e+07 4.30441 7.45513e+07)
(-2.38871e+08 -1.34366e+06 -1.30911 -9.35339e+07 4.89912 -9.33174e+07)
(-2.40971e+08 -2.18531e+06 -5.08569 -9.28739e+07 -0.891443 -9.2098e+07)
(-2.3279e+08 -4.69658e+06 -3.4974 -9.24621e+07 2.62369 -8.94781e+07)
(-2.23369e+08 -5.24392e+06 3.56154 -9.08809e+07 7.16049 -8.61301e+07)
(-2.08558e+08 -7.58804e+06 9.87374 -8.98916e+07 -6.05918 -8.20268e+07)
(-1.88503e+08 -8.14054e+06 -3.88693 -8.78197e+07 -16.1817 -7.5887e+07)
(-1.6207e+08 -9.7394e+06 -17.1217 -8.58612e+07 0.936943 -6.95527e+07)
(-1.26443e+08 -1.05288e+07 -4.24525 -8.32402e+07 22.0624 -6.05722e+07)
(-7.91355e+07 -1.0981e+07 8.47272 -8.02222e+07 0.821135 -5.12046e+07)
(-1.74222e+07 -1.20364e+07 -2.69293 -7.684e+07 -22.5366 -3.89393e+07)
(6.83291e+07 -1.10499e+07 -14.2398 -7.26331e+07 8.5544 -2.53269e+07)
(1.7467e+08 -1.28916e+07 -1.08864 -6.82538e+07 24.592 -1.02689e+07)
(3.33807e+08 -1.08076e+07 10.9231 -6.3009e+07 -7.00539 9.51461e+06)
(5.34271e+08 -1.27003e+07 -2.01919 -5.69288e+07 -21.9053 2.21398e+07)
(8.19747e+08 -9.30081e+06 -15.6687 -5.15645e+07 1.70656 5.10921e+07)
(1.05549e+09 -1.06006e+07 -5.8301 -4.28909e+07 4.3555 7.5753e+07)
(-2.4247e+08 -1.37622e+06 -1.31366 -9.342e+07 4.94358 -9.31982e+07)
(-2.44627e+08 -2.2402e+06 -5.09929 -9.27487e+07 -0.899829 -9.19617e+07)
(-2.36344e+08 -4.83995e+06 -3.5017 -9.2357e+07 2.64769 -8.93244e+07)
(-2.26777e+08 -5.37839e+06 3.56848 -9.07876e+07 7.22092 -8.59636e+07)
(-2.11798e+08 -7.80163e+06 9.86564 -8.98286e+07 -6.10984 -8.18373e+07)
(-1.91494e+08 -8.34734e+06 -3.89896 -8.77841e+07 -16.3003 -7.56661e+07)
(-1.64812e+08 -9.99023e+06 -17.1148 -8.58572e+07 0.944544 -6.92932e+07)
(-1.28856e+08 -1.07792e+07 -4.28879 -8.3271e+07 22.1977 -6.02606e+07)
(-8.11797e+07 -1.12472e+07 8.39664 -8.02766e+07 0.825278 -5.08497e+07)
(-1.90364e+07 -1.22866e+07 -2.70216 -7.69324e+07 -22.6488 -3.85392e+07)
(6.68249e+07 -1.13257e+07 -14.2099 -7.27527e+07 8.63415 -2.47106e+07)
(1.73432e+08 -1.31639e+07 -1.06194 -6.83791e+07 24.7385 -9.66303e+06)
(3.33006e+08 -1.09851e+07 10.9045 -6.31385e+07 -7.07316 1.02307e+07)
(5.3393e+08 -1.28908e+07 -2.01862 -5.70605e+07 -22.0312 2.28985e+07)
(8.20107e+08 -9.35071e+06 -15.6695 -5.16651e+07 1.73247 5.19732e+07)
(1.05565e+09 -1.06783e+07 -5.83658 -4.29378e+07 4.40602 7.6952e+07)
(-2.46158e+08 -1.41908e+06 -1.31686 -9.32971e+07 4.9896 -9.30696e+07)
(-2.48401e+08 -2.31786e+06 -5.11394 -9.25988e+07 -0.908767 -9.17983e+07)
(-2.40011e+08 -5.02449e+06 -3.50635 -9.22266e+07 2.67276 -8.91449e+07)
(-2.30287e+08 -5.56524e+06 3.57577 -9.06736e+07 7.28499 -8.57684e+07)
(-2.15136e+08 -8.08444e+06 9.85791 -8.97423e+07 -6.16112 -8.16225e+07)
(-1.94569e+08 -8.6315e+06 -3.91196 -8.77363e+07 -16.4251 -7.54163e+07)
(-1.67625e+08 -1.03277e+07 -17.1094 -8.58339e+07 0.948365 -6.90073e+07)
(-1.31335e+08 -1.1118e+07 -4.33458 -8.32936e+07 22.3413 -5.99227e+07)
(-8.32589e+07 -1.15969e+07 8.32381 -8.0318e+07 0.83621 -5.04643e+07)
(-2.07031e+07 -1.26154e+07 -2.71169 -7.69958e+07 -22.7641 -3.81218e+07)
(6.52927e+07 -1.16896e+07 -14.1906 -7.28539e+07 8.7208 -2.40583e+07)
(1.7222e+08 -1.35199e+07 -1.03518 -6.84786e+07 24.8933 -8.96113e+06)
(3.32257e+08 -1.12456e+07 10.8881 -6.32444e+07 -7.14041 1.10471e+07)
(5.33662e+08 -1.31387e+07 -2.01813 -5.71719e+07 -22.1647 2.37527e+07)
(8.20548e+08 -9.42949e+06 -15.6733 -5.17507e+07 1.75506 5.29409e+07)
(1.05586e+09 -1.07552e+07 -5.84308 -4.29939e+07 4.45672 7.81811e+07)
(-2.49967e+08 -1.47284e+06 -1.32154 -9.31498e+07 5.03823 -9.29163e+07)
(-2.52327e+08 -2.41569e+06 -5.12931 -9.23836e+07 -0.918473 -9.15686e+07)
(-2.43827e+08 -5.24955e+06 -3.51105 -9.203e+07 2.69993 -8.88983e+07)
(-2.33933e+08 -5.79879e+06 3.58353 -9.04956e+07 7.3548 -8.55035e+07)
(-2.18598e+08 -8.43453e+06 9.84847 -8.95892e+07 -6.2159 -8.13366e+07)
(-1.97748e+08 -8.9837e+06 -3.92604 -8.76272e+07 -16.5608 -7.50902e+07)
(-1.7052e+08 -1.07468e+07 -17.105 -8.57501e+07 0.950995 -6.86444e+07)
(-1.33873e+08 -1.15395e+07 -4.38185 -8.32691e+07 22.4974 -5.95062e+07)
(-8.53642e+07 -1.20188e+07 8.26454 -8.03272e+07 0.849156 -5e+07)
(-2.2421e+07 -1.30397e+07 -2.7208 -7.70392e+07 -22.8877 -3.76464e+07)
(6.37e+07 -1.21592e+07 -14.1989 -7.29518e+07 8.80635 -2.33802e+07)
(1.7102e+08 -1.39494e+07 -1.0083 -6.85617e+07 25.0528 -8.19066e+06)
(3.31538e+08 -1.15947e+07 10.8749 -6.33492e+07 -7.20393 1.19205e+07)
(5.33474e+08 -1.34635e+07 -2.01778 -5.72522e+07 -22.3038 2.46863e+07)
(8.21086e+08 -9.57505e+06 -15.682 -5.18313e+07 1.77523 5.39753e+07)
(1.05618e+09 -1.08573e+07 -5.85187 -4.30332e+07 4.5087 7.94875e+07)
(-2.53932e+08 -1.53787e+06 -1.3271 -9.29377e+07 5.09125 -9.26976e+07)
(-2.56436e+08 -2.53624e+06 -5.14658 -9.21492e+07 -0.928627 -9.13206e+07)
(-2.47818e+08 -5.51859e+06 -3.51596 -9.18194e+07 2.72895 -8.86319e+07)
(-2.37743e+08 -6.08688e+06 3.592 -9.02999e+07 7.42838 -8.52183e+07)
(-2.22211e+08 -8.86026e+06 9.83825 -8.9427e+07 -6.27568 -8.1027e+07)
(-2.01054e+08 -9.42544e+06 -3.94131 -8.75056e+07 -16.7036 -7.47401e+07)
(-1.73527e+08 -1.1275e+07 -17.1029 -8.56701e+07 0.957411 -6.8256e+07)
(-1.3649e+08 -1.20888e+07 -4.43114 -8.32509e+07 22.6583 -5.90677e+07)
(-8.75382e+07 -1.2566e+07 8.22015 -8.03616e+07 0.854706 -4.95147e+07)
(-2.42484e+07 -1.35826e+07 -2.73008 -7.7108e+07 -23.0162 -3.71746e+07)
(6.20826e+07 -1.27244e+07 -14.1965 -7.30938e+07 8.8875 -2.27835e+07)
(1.69849e+08 -1.4476e+07 -0.977952 -6.86924e+07 25.2031 -7.48714e+06)
(3.30853e+08 -1.20185e+07 10.8632 -6.35284e+07 -7.26459 1.27181e+07)
(5.3337e+08 -1.38515e+07 -2.01801 -5.73596e+07 -22.4359 2.55752e+07)
(8.21752e+08 -9.77288e+06 -15.6948 -5.19545e+07 1.8003 5.49761e+07)
(1.05665e+09 -1.0993e+07 -5.86442 -4.30504e+07 4.56236 8.08883e+07)
(-2.58083e+08 -1.61505e+06 -1.33299 -9.27102e+07 5.14743 -9.24618e+07)
(-2.60768e+08 -2.67875e+06 -5.16442 -9.1999e+07 -0.93879 -9.11572e+07)
(-2.52027e+08 -5.83306e+06 -3.52094 -9.1693e+07 2.75824 -8.84483e+07)
(-2.41759e+08 -6.42877e+06 3.60085 -9.0185e+07 7.50218 -8.50137e+07)
(-2.26021e+08 -9.36434e+06 9.82655 -8.93448e+07 -6.3361 -8.07954e+07)
(-2.04538e+08 -9.95313e+06 -3.9582 -8.74541e+07 -16.8463 -7.44639e+07)
(-1.76693e+08 -1.19138e+07 -17.1031 -8.56561e+07 0.964823 -6.79364e+07)
(-1.39219e+08 -1.2751e+07 -4.48317 -8.32751e+07 22.8168 -5.86855e+07)
(-8.976e+07 -1.32168e+07 8.19805 -8.04266e+07 0.855771 -4.90646e+07)
(-2.61204e+07 -1.4246e+07 -2.73889 -7.71929e+07 -23.154 -3.6643e+07)
(6.04071e+07 -1.34103e+07 -14.1991 -7.32901e+07 8.96144 -2.21574e+07)
(1.68696e+08 -1.51052e+07 -0.946338 -6.88442e+07 25.3578 -6.73575e+06)
(3.30221e+08 -1.25048e+07 10.8533 -6.37541e+07 -7.32423 1.35533e+07)
(5.33359e+08 -1.42805e+07 -2.01843 -5.74913e+07 -22.5717 2.65179e+07)
(8.22541e+08 -9.98188e+06 -15.7019 -5.21137e+07 1.82535 5.60306e+07)
(1.05731e+09 -1.11449e+07 -5.87994 -4.30675e+07 4.61717 8.23809e+07)
(-2.6246e+08 -1.70504e+06 -1.3392 -9.25683e+07 5.20392 -9.23111e+07)