/*--------------------------------*- C++ -*----------------------------------*\
| =========                 |                                                 |
| \\      /  F ield         | foam-extend: Open Source CFD                    |
|  \\    /   O peration     | Version:     4.1-20200408                       |
|   \\  /    A nd           | Web:         http://www.foam-extend.org         |
|    \\/     M anipulation  |                                                 |
\*---------------------------------------------------------------------------*/
FoamFile
{
    version     2.0;
    format      ascii;
    class       volTensorField;
    location    "0.0465000";
    object      F;
}
// * * * * * * * * * * * * * * * * * * * * * * * * * * * * * * * * * * * * * //

dimensions      [0 0 0 0 0 0 0];

internalField   nonuniform List<tensor> 
1952
(
(1.04034 -0.00295853 -1.67008e-10 -0.000400031 0.97948 -6.12893e-11 5.41465e-11 4.81576e-10 0.979455)
(1.04035 -0.00500692 -8.62917e-11 -0.000640364 0.979509 -7.08907e-10 3.59887e-11 -4.74328e-10 0.979476)
(1.04036 -0.00676563 1.25162e-10 -0.000900423 0.979565 2.20915e-10 -4.34563e-11 -3.39393e-09 0.979486)
(1.04038 -0.00846112 3.1801e-10 -0.00114105 0.979623 1.10778e-09 -1.2854e-10 1.29946e-09 0.979515)
(1.04039 -0.00999479 -1.34376e-10 -0.00139762 0.979721 -3.04091e-10 1.82891e-11 6.56257e-09 0.979536)
(1.04041 -0.0112885 -5.95237e-10 -0.00163479 0.979823 -1.22954e-09 1.76264e-10 9.55946e-10 0.979579)
(1.04043 -0.0123083 -2.00975e-10 -0.00188367 0.979971 -4.9576e-10 4.4851e-11 -6.75991e-09 0.979613)
(1.04045 -0.0129112 4.54921e-10 -0.00211145 0.980129 6.28903e-10 -1.1938e-10 -1.13836e-09 0.979672)
(1.04047 -0.012979 -6.34451e-11 -0.00234698 0.980336 -1.41568e-10 -1.27029e-11 6.50829e-09 0.979722)
(1.04049 -0.0124711 -6.94561e-10 -0.00256489 0.980602 -7.17952e-10 1.22889e-10 -1.38462e-09 0.979799)
(1.0405 -0.0111686 1.45453e-10 -0.00278367 0.980933 1.52078e-10 9.53592e-12 -6.60259e-09 0.979877)
(1.04051 -0.00916736 6.1798e-10 -0.00298574 0.981422 4.74106e-10 -1.09702e-10 1.14621e-09 0.979982)
(1.04051 -0.00619238 -5.35086e-11 -0.00318431 0.982004 -4.57062e-11 -3.38998e-11 6.37416e-09 0.980108)
(1.04052 -0.00245707 -5.1864e-10 -0.00336992 0.982778 -5.55777e-10 1.0107e-10 1.00244e-09 0.980263)
(1.04052 0.000869953 -2.89284e-10 -0.00357318 0.983242 -1.23625e-10 2.45985e-11 -2.01684e-09 0.980453)
(1.04033 -0.00153331 -5.25024e-11 -0.000168001 0.979451 -1.72913e-09 1.29078e-11 -6.92343e-10 0.979468)
(1.04041 -0.00296331 -1.67249e-10 -0.000400144 0.979445 -6.13924e-11 -2.9927e-12 4.82441e-10 0.979421)
(1.04042 -0.0050149 -8.6394e-11 -0.000649912 0.979475 -7.10237e-10 -4.00316e-12 -4.75071e-10 0.979441)
(1.04043 -0.00677676 1.25383e-10 -0.000903512 0.979531 2.21371e-10 -2.56518e-12 -3.3997e-09 0.979451)
(1.04044 -0.00847461 3.18658e-10 -0.00115319 0.97959 1.11005e-09 -9.37451e-12 1.30119e-09 0.979481)
(1.04046 -0.0100098 -1.34559e-10 -0.00140342 0.979689 -3.04531e-10 -2.0701e-11 6.57353e-09 0.979502)
(1.04048 -0.0113057 -5.95956e-10 -0.00164641 0.979792 -1.23181e-09 -1.45106e-11 9.58392e-10 0.979545)
(1.0405 -0.0123254 -2.01483e-10 -0.00188955 0.97994 -4.96348e-10 1.33604e-12 -6.77068e-09 0.97958)
(1.04052 -0.0129287 4.54883e-10 -0.00212115 0.980098 6.30527e-10 -8.22435e-12 -1.1408e-09 0.979639)
(1.04054 -0.0129964 -6.35372e-11 -0.00235297 0.980307 -1.4174e-10 -3.53794e-11 6.51881e-09 0.97969)
(1.04056 -0.0124874 -6.9489e-10 -0.00256889 0.980574 -7.19243e-10 -2.072e-11 -1.38616e-09 0.979767)
(1.04057 -0.0111841 1.45745e-10 -0.00278549 0.980906 1.52304e-10 5.00165e-12 -6.613e-09 0.979845)
(1.04058 -0.00918082 6.18514e-10 -0.00297975 0.981394 4.74652e-10 -1.76591e-11 1.14771e-09 0.979951)
(1.04058 -0.00620397 -5.3494e-11 -0.00317611 0.981977 -4.57794e-11 -4.73777e-11 6.38415e-09 0.980077)
(1.04059 -0.00246838 -5.18613e-10 -0.00334737 0.98275 -5.55949e-10 -3.81366e-11 1.0039e-09 0.980232)
(1.04059 0.00085507 -2.89058e-10 -0.00355088 0.983212 -1.23799e-10 -1.26814e-11 -2.02016e-09 0.980423)
(1.0404 -0.0015361 -5.25929e-11 -0.000171479 0.979417 -1.73184e-09 -1.0329e-12 -6.93517e-10 0.979433)
(1.04048 -0.00296783 -1.67438e-10 -0.000400779 0.979411 -6.14362e-11 -3.00174e-12 4.83227e-10 0.979387)
(1.04048 -0.0050226 -8.64455e-11 -0.000651402 0.979442 -7.11399e-10 -4.01429e-12 -4.75874e-10 0.979407)
(1.0405 -0.0067876 1.2559e-10 -0.000904494 0.979498 2.21784e-10 -2.57691e-12 -3.40529e-09 0.979418)
(1.04051 -0.00848789 3.19182e-10 -0.0011548 0.979557 1.11205e-09 -9.401e-12 1.30331e-09 0.979447)
(1.04053 -0.0100241 -1.34742e-10 -0.00140483 0.979657 -3.04981e-10 -2.07487e-11 6.58423e-09 0.979468)
(1.04055 -0.0113218 -5.96494e-10 -0.00164798 0.97976 -1.23394e-09 -1.45477e-11 9.59937e-10 0.979512)
(1.04057 -0.0123421 -2.01952e-10 -0.00189072 0.979909 -4.9706e-10 1.32416e-12 -6.78165e-09 0.979547)
(1.04059 -0.0129464 4.5465e-10 -0.00212227 0.980068 6.31713e-10 -8.25434e-12 -1.14265e-09 0.979606)
(1.04061 -0.0130142 -6.36384e-11 -0.00235352 0.980276 -1.41927e-10 -3.54581e-11 6.52924e-09 0.979657)
(1.04063 -0.0125042 -6.94987e-10 -0.0025687 0.980544 -7.20499e-10 -2.07818e-11 -1.3884e-09 0.979735)
(1.04064 -0.0112004 1.46085e-10 -0.00278486 0.980877 1.52505e-10 4.99207e-12 -6.62353e-09 0.979813)
(1.04065 -0.00919511 6.18968e-10 -0.00297782 0.981365 4.75485e-10 -1.76998e-11 1.14952e-09 0.979919)
(1.04065 -0.0062149 -5.34835e-11 -0.00317439 0.98195 -4.58522e-11 -4.74791e-11 6.39426e-09 0.980045)
(1.04065 -0.0024757 -5.18882e-10 -0.00334461 0.982721 -5.5634e-10 -3.82372e-11 1.00547e-09 0.980201)
(1.04066 0.000849277 -2.89179e-10 -0.00354793 0.983182 -1.24082e-10 -1.27235e-11 -2.02338e-09 0.980391)
(1.04047 -0.00153893 -5.2676e-11 -0.000171816 0.979383 -1.73449e-09 -1.03615e-12 -6.9466e-10 0.979399)
(1.04054 -0.00297239 -1.6766e-10 -0.000401256 0.979378 -6.14548e-11 -3.01074e-12 4.84002e-10 0.979354)
(1.04055 -0.00503055 -8.65023e-11 -0.00065236 0.979408 -7.12485e-10 -4.02547e-12 -4.76662e-10 0.979374)
(1.04056 -0.0067985 1.2579e-10 -0.000905444 0.979465 2.22171e-10 -2.58842e-12 -3.41081e-09 0.979385)
(1.04058 -0.00850129 3.19625e-10 -0.00115629 0.979524 1.11388e-09 -9.42748e-12 1.30539e-09 0.979414)
(1.0406 -0.0100388 -1.34924e-10 -0.00140618 0.979625 -3.05433e-10 -2.0796e-11 6.59479e-09 0.979435)
(1.04062 -0.0113381 -5.97056e-10 -0.00164993 0.979728 -1.23592e-09 -1.45846e-11 9.6146e-10 0.979479)
(1.04064 -0.0123582 -2.02496e-10 -0.00189235 0.979877 -4.9775e-10 1.31139e-12 -6.79251e-09 0.979514)
(1.04066 -0.0129638 4.54084e-10 -0.00212363 0.980036 6.33009e-10 -8.28426e-12 -1.14448e-09 0.979573)
(1.04068 -0.0130315 -6.37465e-11 -0.00235427 0.980245 -1.42113e-10 -3.55362e-11 6.53962e-09 0.979625)
(1.04069 -0.0125203 -6.9491e-10 -0.00256927 0.980513 -7.21952e-10 -2.08436e-11 -1.39064e-09 0.979703)
(1.04071 -0.011216 1.46464e-10 -0.00278453 0.980846 1.52626e-10 4.98248e-12 -6.63406e-09 0.979781)
(1.04072 -0.00920773 6.1955e-10 -0.00297711 0.981336 4.7659e-10 -1.77404e-11 1.15133e-09 0.979887)
(1.04072 -0.00622602 -5.34648e-11 -0.00317251 0.981921 -4.59233e-11 -4.75815e-11 6.40441e-09 0.980013)
(1.04072 -0.00248483 -5.19428e-10 -0.00334128 0.982692 -5.57006e-10 -3.83384e-11 1.00706e-09 0.98017)
(1.04072 0.000842992 -2.89358e-10 -0.00354493 0.983153 -1.24338e-10 -1.27654e-11 -2.02664e-09 0.98036)
(1.04054 -0.0015417 -5.2755e-11 -0.000172049 0.97935 -1.73709e-09 -1.0394e-12 -6.95782e-10 0.979365)
(1.04061 -0.00297683 -1.67846e-10 -0.0004016 0.979345 -6.1473e-11 -3.01971e-12 4.84774e-10 0.97932)
(1.04062 -0.00503845 -8.65416e-11 -0.000652924 0.979375 -7.13568e-10 -4.0366e-12 -4.77448e-10 0.979341)
(1.04063 -0.00680923 1.25969e-10 -0.000906144 0.979432 2.22555e-10 -2.60018e-12 -3.41631e-09 0.979351)
(1.04065 -0.00851451 3.19993e-10 -0.00115727 0.979492 1.11565e-09 -9.45391e-12 1.30746e-09 0.979381)
(1.04067 -0.0100532 -1.35112e-10 -0.00140705 0.979593 -3.05884e-10 -2.08428e-11 6.60533e-09 0.979403)
(1.04068 -0.0113543 -5.97446e-10 -0.00165097 0.979697 -1.23778e-09 -1.46217e-11 9.62977e-10 0.979446)
(1.04071 -0.0123749 -2.03042e-10 -0.00189298 0.979846 -4.98481e-10 1.29897e-12 -6.80333e-09 0.979481)
(1.04072 -0.0129815 4.53618e-10 -0.00212413 0.980004 6.34086e-10 -8.31422e-12 -1.14631e-09 0.979541)
(1.04075 -0.0130492 -6.38548e-11 -0.00235415 0.980214 -1.4231e-10 -3.56148e-11 6.55e-09 0.979592)
(1.04076 -0.0125368 -6.9487e-10 -0.00256903 0.980482 -7.22967e-10 -2.09055e-11 -1.39287e-09 0.97967)
(1.04078 -0.0112324 1.46814e-10 -0.00278334 0.980815 1.52903e-10 4.97339e-12 -6.64461e-09 0.979749)
(1.04078 -0.00922094 6.20266e-10 -0.00297594 0.981305 4.7723e-10 -1.77812e-11 1.15314e-09 0.979855)
(1.04079 -0.00623662 -5.34464e-11 -0.00316998 0.98189 -4.60016e-11 -4.76847e-11 6.41462e-09 0.979981)
(1.04079 -0.00249296 -5.19898e-10 -0.00333826 0.982662 -5.57911e-10 -3.844e-11 1.00866e-09 0.980138)
(1.04079 0.000837281 -2.89504e-10 -0.00354228 0.983124 -1.24575e-10 -1.28072e-11 -2.02993e-09 0.980328)
(1.04061 -0.0015444 -5.28396e-11 -0.000172205 0.979316 -1.73968e-09 -1.04264e-12 -6.96899e-10 0.979332)
(1.04068 -0.00298131 -1.68065e-10 -0.000401727 0.979312 -6.14888e-11 -3.02871e-12 4.85538e-10 0.979287)
(1.04069 -0.00504643 -8.65756e-11 -0.000653085 0.979343 -7.14631e-10 -4.0478e-12 -4.78225e-10 0.979308)
(1.0407 -0.00682003 1.26157e-10 -0.000906326 0.9794 2.22933e-10 -2.61192e-12 -3.42176e-09 0.979319)
(1.04071 -0.00852783 3.20351e-10 -0.00115735 0.979459 1.11737e-09 -9.48043e-12 1.30951e-09 0.979349)
(1.04073 -0.0100679 -1.35296e-10 -0.00140698 0.97956 -3.06337e-10 -2.08899e-11 6.61579e-09 0.97937)
(1.04075 -0.0113713 -5.97786e-10 -0.00165046 0.979665 -1.23961e-09 -1.46591e-11 9.64485e-10 0.979414)
(1.04077 -0.0123918 -2.03698e-10 -0.00189224 0.979813 -4.99218e-10 1.28702e-12 -6.81413e-09 0.979449)
(1.04079 -0.0129989 4.53012e-10 -0.00212357 0.979972 6.35208e-10 -8.34424e-12 -1.14815e-09 0.979508)
(1.04082 -0.0130666 -6.39635e-11 -0.00235326 0.980182 -1.42508e-10 -3.5694e-11 6.5604e-09 0.97956)
(1.04083 -0.0125531 -6.94692e-10 -0.00256818 0.980451 -7.24129e-10 -2.09674e-11 -1.39512e-09 0.979638)
(1.04084 -0.0112484 1.47208e-10 -0.00278197 0.980784 1.53151e-10 4.96456e-12 -6.65521e-09 0.979716)
(1.04085 -0.00923394 6.20827e-10 -0.00297477 0.981274 4.77979e-10 -1.78223e-11 1.15497e-09 0.979823)
(1.04085 -0.00624664 -5.34313e-11 -0.00316843 0.98186 -4.60811e-11 -4.77878e-11 6.4249e-09 0.979949)
(1.04085 -0.00250009 -5.20213e-10 -0.00333657 0.982633 -5.58816e-10 -3.85417e-11 1.01027e-09 0.980106)
(1.04086 0.000832239 -2.8966e-10 -0.00354048 0.983095 -1.24818e-10 -1.28489e-11 -2.03324e-09 0.980297)
(1.04067 -0.00154709 -5.29128e-11 -0.000172261 0.979283 -1.74224e-09 -1.04589e-12 -6.98004e-10 0.979299)
(1.04075 -0.00298579 -1.68263e-10 -0.000401742 0.979279 -6.15112e-11 -3.03774e-12 4.86306e-10 0.979254)
(1.04075 -0.00505454 -8.66051e-11 -0.000653077 0.97931 -7.1571e-10 -4.05901e-12 -4.79007e-10 0.979275)
(1.04077 -0.00683085 1.26331e-10 -0.000906301 0.979367 2.23323e-10 -2.62355e-12 -3.42724e-09 0.979285)
(1.04078 -0.00854133 3.20608e-10 -0.00115726 0.979427 1.11914e-09 -9.50708e-12 1.31157e-09 0.979316)
(1.0408 -0.0100826 -1.35492e-10 -0.00140678 0.979528 -3.06794e-10 -2.0937e-11 6.62634e-09 0.979337)
(1.04082 -0.0113882 -5.98032e-10 -0.00165024 0.979632 -1.24156e-09 -1.46964e-11 9.66009e-10 0.979381)
(1.04084 -0.0124093 -2.04318e-10 -0.00189197 0.979781 -4.99999e-10 1.27458e-12 -6.82502e-09 0.979416)
(1.04086 -0.0130171 4.52508e-10 -0.0021233 0.97994 6.36081e-10 -8.37423e-12 -1.14998e-09 0.979476)
(1.04088 -0.0130847 -6.40779e-11 -0.00235291 0.980151 -1.42712e-10 -3.57728e-11 6.57084e-09 0.979527)
(1.0409 -0.0125699 -6.94637e-10 -0.00256804 0.980419 -7.24936e-10 -2.10293e-11 -1.39736e-09 0.979605)
(1.04091 -0.0112651 1.47552e-10 -0.00278145 0.980753 1.53521e-10 4.95521e-12 -6.66584e-09 0.979684)
(1.04092 -0.00924721 6.21634e-10 -0.00297471 0.981244 4.7846e-10 -1.78635e-11 1.15679e-09 0.979791)
(1.04092 -0.00625547 -5.34151e-11 -0.00316819 0.981829 -4.61615e-11 -4.78905e-11 6.43517e-09 0.979917)
(1.04092 -0.00250574 -5.20407e-10 -0.00333639 0.982603 -5.59726e-10 -3.86435e-11 1.01188e-09 0.980074)
(1.04092 0.000828384 -2.89812e-10 -0.00353998 0.983066 -1.25056e-10 -1.28905e-11 -2.03656e-09 0.980265)
(1.04074 -0.0015498 -5.29478e-11 -0.000172268 0.97925 -1.74481e-09 -1.04914e-12 -6.99115e-10 0.979266)
(1.04081 -0.00299033 -1.68483e-10 -0.000401778 0.979246 -6.15306e-11 -3.04676e-12 4.87069e-10 0.979221)
(1.04082 -0.00506275 -8.66325e-11 -0.00065314 0.979277 -7.16775e-10 -4.07032e-12 -4.79784e-10 0.979242)
(1.04084 -0.00684188 1.26516e-10 -0.000906329 0.979334 2.23703e-10 -2.63552e-12 -3.4327e-09 0.979253)
(1.04085 -0.00855499 3.20915e-10 -0.00115738 0.979394 1.12086e-09 -9.53358e-12 1.31363e-09 0.979283)
(1.04087 -0.0100975 -1.35686e-10 -0.00140682 0.979495 -3.07249e-10 -2.09838e-11 6.63683e-09 0.979304)
(1.04089 -0.0114048 -5.98459e-10 -0.00165054 0.9796 -1.24339e-09 -1.47336e-11 9.67521e-10 0.979348)
(1.04091 -0.0124259 -2.04912e-10 -0.00189214 0.979749 -5.00745e-10 1.26142e-12 -6.83585e-09 0.979384)
(1.04093 -0.0130346 4.51901e-10 -0.00212306 0.979908 6.37168e-10 -8.40424e-12 -1.15182e-09 0.979443)
(1.04095 -0.0131024 -6.4186e-11 -0.00235272 0.980119 -1.42912e-10 -3.58518e-11 6.58125e-09 0.979495)
(1.04097 -0.0125866 -6.94471e-10 -0.00256764 0.980387 -7.25867e-10 -2.1091e-11 -1.39961e-09 0.979573)
(1.04098 -0.0112813 1.4797e-10 -0.00278085 0.980722 1.53876e-10 4.94595e-12 -6.67647e-09 0.979652)
(1.04099 -0.00926113 6.21975e-10 -0.00297387 0.981213 4.79018e-10 -1.79047e-11 1.15861e-09 0.979759)
(1.04099 -0.00626502 -5.34072e-11 -0.00316748 0.981798 -4.62417e-11 -4.79938e-11 6.44547e-09 0.979885)
(1.04099 -0.00251095 -5.20452e-10 -0.00333611 0.982573 -5.60528e-10 -3.87453e-11 1.01349e-09 0.980042)
(1.04099 0.000824534 -2.89971e-10 -0.00353956 0.983036 -1.25306e-10 -1.2932e-11 -2.03987e-09 0.980233)
(1.04081 -0.00155256 -5.305e-11 -0.000172284 0.979217 -1.74737e-09 -1.05241e-12 -7.00219e-10 0.979233)
(1.04088 -0.00299491 -1.6869e-10 -0.000401743 0.979213 -6.1552e-11 -3.05583e-12 4.87836e-10 0.979188)
(1.04089 -0.00507109 -8.66535e-11 -0.000653056 0.979244 -7.17846e-10 -4.08164e-12 -4.80565e-10 0.979209)
(1.0409 -0.0068529 1.26687e-10 -0.00090623 0.979301 2.24087e-10 -2.64722e-12 -3.43817e-09 0.97922)
(1.04092 -0.00856883 3.21113e-10 -0.00115715 0.979361 1.12258e-09 -9.56033e-12 1.31569e-09 0.97925)
(1.04094 -0.0101126 -1.35884e-10 -0.00140646 0.979463 -3.07707e-10 -2.10312e-11 6.64736e-09 0.979271)
(1.04096 -0.0114223 -5.9859e-10 -0.00164994 0.979568 -1.24523e-09 -1.47711e-11 9.6904e-10 0.979316)
(1.04098 -0.012444 -2.0562e-10 -0.00189128 0.979716 -5.01506e-10 1.24899e-12 -6.84672e-09 0.979351)
(1.041 -0.0130528 4.51367e-10 -0.00212234 0.979876 6.3824e-10 -8.43451e-12 -1.15366e-09 0.979411)
(1.04102 -0.0131208 -6.42991e-11 -0.00235201 0.980087 -1.43113e-10 -3.59309e-11 6.59171e-09 0.979462)
(1.04104 -0.0126037 -6.94525e-10 -0.00256719 0.980355 -7.26699e-10 -2.11526e-11 -1.40186e-09 0.979541)
(1.04105 -0.0112977 1.48347e-10 -0.00278045 0.98069 1.54242e-10 4.93696e-12 -6.68713e-09 0.979619)
(1.04106 -0.00927464 6.22574e-10 -0.0029736 0.981182 4.79606e-10 -1.79458e-11 1.16044e-09 0.979726)
(1.04106 -0.0062735 -5.33948e-11 -0.0031677 0.981768 -4.63221e-11 -4.80968e-11 6.45578e-09 0.979853)
(1.04106 -0.00251549 -5.20453e-10 -0.00333657 0.982543 -5.61264e-10 -3.8847e-11 1.0151e-09 0.98001)
(1.04106 0.000821363 -2.90137e-10 -0.00353997 0.983006 -1.25558e-10 -1.29737e-11 -2.04318e-09 0.980201)
(1.04088 -0.00155534 -5.31494e-11 -0.000172268 0.979184 -1.74994e-09 -1.05568e-12 -7.01328e-10 0.9792)
(1.04095 -0.00299955 -1.68903e-10 -0.000401745 0.97918 -6.15743e-11 -3.06492e-12 4.88601e-10 0.979155)
(1.04096 -0.0050795 -8.66775e-11 -0.00065307 0.979211 -7.18917e-10 -4.09301e-12 -4.81345e-10 0.979176)
(1.04097 -0.00686408 1.26865e-10 -0.000906229 0.979269 2.24474e-10 -2.65914e-12 -3.44364e-09 0.979187)
(1.04099 -0.00858271 3.21384e-10 -0.00115718 0.979329 1.1243e-09 -9.58705e-12 1.31775e-09 0.979217)
(1.04101 -0.0101276 -1.36084e-10 -0.00140645 0.97943 -3.08166e-10 -2.10785e-11 6.6579e-09 0.979238)
(1.04102 -0.0114393 -5.98869e-10 -0.00164994 0.979535 -1.24708e-09 -1.48087e-11 9.70561e-10 0.979283)
(1.04105 -0.0124611 -2.0629e-10 -0.00189113 0.979684 -5.023e-10 1.23541e-12 -6.85763e-09 0.979318)
(1.04107 -0.0130702 4.50823e-10 -0.00212248 0.979844 6.39269e-10 -8.46483e-12 -1.15551e-09 0.979378)
(1.04109 -0.0131388 -6.44022e-11 -0.00235191 0.980056 -1.43316e-10 -3.60088e-11 6.60218e-09 0.97943)
(1.0411 -0.012621 -6.94516e-10 -0.00256706 0.980324 -7.27528e-10 -2.12149e-11 -1.40411e-09 0.979508)
(1.04112 -0.0113137 1.48816e-10 -0.00278073 0.980659 1.54608e-10 4.92805e-12 -6.69779e-09 0.979587)
(1.04113 -0.00928815 6.22865e-10 -0.00297387 0.981152 4.80243e-10 -1.79868e-11 1.16227e-09 0.979694)
(1.04113 -0.0062821 -5.33871e-11 -0.00316849 0.981738 -4.63994e-11 -4.81994e-11 6.46606e-09 0.979821)
(1.04113 -0.00251982 -5.20268e-10 -0.00333708 0.982514 -5.61973e-10 -3.89486e-11 1.0167e-09 0.979978)
(1.04113 0.000817928 -2.9033e-10 -0.00354031 0.982977 -1.25816e-10 -1.30153e-11 -2.04648e-09 0.980169)
(1.04094 -0.00155816 -5.32444e-11 -0.000172269 0.979151 -1.7525e-09 -1.05897e-12 -7.02435e-10 0.979168)
(1.04102 -0.00300427 -1.69113e-10 -0.000401705 0.979147 -6.15943e-11 -3.07401e-12 4.89367e-10 0.979122)
(1.04102 -0.00508815 -8.66957e-11 -0.000653016 0.979178 -7.19985e-10 -4.10437e-12 -4.82126e-10 0.979143)
(1.04104 -0.00687551 1.27041e-10 -0.000906147 0.979236 2.24856e-10 -2.67113e-12 -3.44912e-09 0.979154)
(1.04105 -0.00859708 3.21577e-10 -0.00115717 0.979296 1.12601e-09 -9.61376e-12 1.31982e-09 0.979184)
(1.04107 -0.0101432 -1.36292e-10 -0.00140647 0.979398 -3.08625e-10 -2.11259e-11 6.66844e-09 0.979205)
(1.04109 -0.011457 -5.99028e-10 -0.00165028 0.979503 -1.24888e-09 -1.48464e-11 9.7208e-10 0.97925)
(1.04112 -0.0124789 -2.07038e-10 -0.00189151 0.979652 -5.03109e-10 1.222e-12 -6.86852e-09 0.979285)
(1.04113 -0.0130879 4.50226e-10 -0.00212315 0.979812 6.40127e-10 -8.49528e-12 -1.15735e-09 0.979345)
(1.04116 -0.0131572 -6.45074e-11 -0.00235236 0.980024 -1.43522e-10 -3.60873e-11 6.61264e-09 0.979397)
(1.04117 -0.0126384 -6.94598e-10 -0.00256752 0.980292 -7.28515e-10 -2.12774e-11 -1.40637e-09 0.979476)
(1.04119 -0.0113297 1.49274e-10 -0.00278143 0.980628 1.5492e-10 4.91957e-12 -6.70844e-09 0.979554)
(1.0412 -0.00930125 6.23261e-10 -0.00297447 0.981122 4.80969e-10 -1.80278e-11 1.1641e-09 0.979662)
(1.0412 -0.00629058 -5.33771e-11 -0.00316902 0.981707 -4.64754e-11 -4.83021e-11 6.47633e-09 0.979788)
(1.0412 -0.00252431 -5.20198e-10 -0.00333721 0.982484 -5.62748e-10 -3.90502e-11 1.01831e-09 0.979946)
(1.0412 0.000814538 -2.90497e-10 -0.00354045 0.982947 -1.26074e-10 -1.30569e-11 -2.04979e-09 0.980137)
(1.04101 -0.00156105 -5.32811e-11 -0.000172253 0.979118 -1.75507e-09 -1.06225e-12 -7.03544e-10 0.979135)
(1.04109 -0.003009 -1.69318e-10 -0.000401859 0.979114 -6.16153e-11 -3.08312e-12 4.90133e-10 0.979089)
(1.04109 -0.00509676 -8.67133e-11 -0.000653282 0.979145 -7.21056e-10 -4.11578e-12 -4.82906e-10 0.97911)
(1.04111 -0.00688685 1.27218e-10 -0.000906519 0.979203 2.25239e-10 -2.68303e-12 -3.45459e-09 0.979121)
(1.04112 -0.0086112 3.21796e-10 -0.00115771 0.979263 1.12772e-09 -9.64051e-12 1.32188e-09 0.979151)
(1.04114 -0.0101585 -1.36497e-10 -0.00140704 0.979365 -3.09082e-10 -2.1173e-11 6.67897e-09 0.979172)
(1.04116 -0.0114742 -5.99302e-10 -0.00165113 0.979471 -1.25064e-09 -1.48841e-11 9.73596e-10 0.979217)
(1.04119 -0.0124961 -2.07731e-10 -0.00189237 0.979619 -5.03925e-10 1.20838e-12 -6.87939e-09 0.979252)
(1.0412 -0.0131054 4.49567e-10 -0.00212388 0.979779 6.40951e-10 -8.52631e-12 -1.15918e-09 0.979313)
(1.04123 -0.0131752 -6.46161e-11 -0.00235311 0.979992 -1.43729e-10 -3.61661e-11 6.62308e-09 0.979364)
(1.04124 -0.0126556 -6.94456e-10 -0.00256808 0.980261 -7.29433e-10 -2.13399e-11 -1.40861e-09 0.979443)
(1.04126 -0.0113457 1.4978e-10 -0.00278193 0.980597 1.55244e-10 4.91073e-12 -6.71906e-09 0.979522)
(1.04126 -0.00931475 6.23437e-10 -0.00297462 0.981092 4.81613e-10 -1.80689e-11 1.16592e-09 0.979629)
(1.04127 -0.00629955 -5.33688e-11 -0.00316896 0.981677 -4.65523e-11 -4.84057e-11 6.48658e-09 0.979756)
(1.04126 -0.00252872 -5.20082e-10 -0.00333717 0.982454 -5.63568e-10 -3.91519e-11 1.01992e-09 0.979914)
(1.04126 0.000811049 -2.90663e-10 -0.00354047 0.982917 -1.26328e-10 -1.30987e-11 -2.05309e-09 0.980106)
(1.04108 -0.00156393 -5.33939e-11 -0.000172319 0.979085 -1.75763e-09 -1.06555e-12 -7.04652e-10 0.979102)
(1.04115 -0.0030138 -1.69552e-10 -0.000401984 0.979082 -6.16327e-11 -3.09224e-12 4.90895e-10 0.979056)
(1.04116 -0.00510555 -8.67337e-11 -0.000653491 0.979112 -7.22115e-10 -4.12722e-12 -4.83682e-10 0.979078)
(1.04117 -0.00689843 1.27395e-10 -0.000906784 0.979171 2.25616e-10 -2.69512e-12 -3.46003e-09 0.979088)
(1.04119 -0.00862571 3.2199e-10 -0.00115803 0.97923 1.12938e-09 -9.66723e-12 1.32392e-09 0.979119)
(1.04121 -0.0101742 -1.36711e-10 -0.00140739 0.979333 -3.09538e-10 -2.12206e-11 6.68945e-09 0.97914)
(1.04123 -0.0114923 -5.99415e-10 -0.00165137 0.979439 -1.25235e-09 -1.49222e-11 9.75103e-10 0.979185)
(1.04125 -0.0125141 -2.0854e-10 -0.00189261 0.979587 -5.04721e-10 1.19538e-12 -6.8902e-09 0.97922)
(1.04127 -0.0131231 4.48818e-10 -0.00212415 0.979747 6.41867e-10 -8.55753e-12 -1.16101e-09 0.97928)
(1.04129 -0.0131935 -6.47289e-11 -0.00235335 0.97996 -1.43933e-10 -3.62453e-11 6.63349e-09 0.979332)
(1.04131 -0.0126729 -6.94328e-10 -0.00256816 0.980229 -7.30473e-10 -2.14025e-11 -1.41086e-09 0.979411)
(1.04133 -0.0113616 1.50296e-10 -0.00278201 0.980566 1.55526e-10 4.90163e-12 -6.72968e-09 0.979489)
(1.04133 -0.00932813 6.23624e-10 -0.00297439 0.981061 4.82383e-10 -1.81103e-11 1.16774e-09 0.979597)
(1.04134 -0.00630846 -5.3362e-11 -0.00316887 0.981647 -4.66299e-11 -4.85094e-11 6.49686e-09 0.979724)
(1.04133 -0.00253294 -5.20021e-10 -0.00333718 0.982424 -5.64346e-10 -3.92538e-11 1.02153e-09 0.979882)
(1.04133 0.000807843 -2.90811e-10 -0.00354064 0.982888 -1.26589e-10 -1.31405e-11 -2.05639e-09 0.980074)
(1.04115 -0.00156688 -5.34942e-11 -0.000172374 0.979052 -1.76018e-09 -1.06885e-12 -7.05755e-10 0.979069)
(1.04122 -0.00301859 -1.69754e-10 -0.000402115 0.979049 -6.16523e-11 -3.10138e-12 4.91657e-10 0.979023)
(1.04123 -0.00511431 -8.67471e-11 -0.000653686 0.979079 -7.23177e-10 -4.13872e-12 -4.84459e-10 0.979045)
(1.04124 -0.00690995 1.27575e-10 -0.000907039 0.979138 2.25997e-10 -2.70725e-12 -3.46548e-09 0.979055)
(1.04126 -0.00864014 3.22187e-10 -0.00115826 0.979198 1.13107e-09 -9.69404e-12 1.32598e-09 0.979086)
(1.04128 -0.0101897 -1.36919e-10 -0.0014077 0.979301 -3.09995e-10 -2.12683e-11 6.69994e-09 0.979107)
(1.0413 -0.0115103 -5.99517e-10 -0.00165147 0.979406 -1.25414e-09 -1.49604e-11 9.76616e-10 0.979152)
(1.04132 -0.0125321 -2.09339e-10 -0.00189285 0.979555 -5.05541e-10 1.18237e-12 -6.90105e-09 0.979187)
(1.04134 -0.013141 4.48031e-10 -0.00212455 0.979715 6.42669e-10 -8.58888e-12 -1.16285e-09 0.979248)
(1.04136 -0.0132118 -6.48467e-11 -0.00235388 0.979928 -1.44139e-10 -3.63248e-11 6.64391e-09 0.979299)
(1.04138 -0.0126902 -6.94051e-10 -0.0025688 0.980198 -7.31456e-10 -2.14652e-11 -1.4131e-09 0.979378)
(1.04139 -0.0113777 1.50852e-10 -0.00278269 0.980535 1.55816e-10 4.8922e-12 -6.74029e-09 0.979457)
(1.0414 -0.0093412 6.23824e-10 -0.00297518 0.98103 4.83155e-10 -1.81517e-11 1.16957e-09 0.979565)
(1.0414 -0.00631703 -5.33528e-11 -0.00316977 0.981616 -4.67063e-11 -4.86125e-11 6.50712e-09 0.979692)
(1.0414 -0.00253692 -5.19941e-10 -0.00333801 0.982394 -5.65169e-10 -3.93561e-11 1.02313e-09 0.97985)
(1.0414 0.000805108 -2.90986e-10 -0.00354158 0.982858 -1.26841e-10 -1.31824e-11 -2.05969e-09 0.980042)
(1.04121 -0.0015698 -5.3527e-11 -0.00017243 0.979019 -1.76273e-09 -1.07217e-12 -7.06857e-10 0.979036)
(1.04129 -0.00302351 -1.69986e-10 -0.000402323 0.979016 -6.1671e-11 -3.11055e-12 4.92415e-10 0.978991)
(1.04129 -0.00512335 -8.67595e-11 -0.000654026 0.979047 -7.24231e-10 -4.15029e-12 -4.85231e-10 0.979012)
(1.04131 -0.00692179 1.27751e-10 -0.000907509 0.979105 2.26377e-10 -2.71936e-12 -3.4709e-09 0.979022)
(1.04132 -0.00865499 3.22347e-10 -0.00115885 0.979165 1.13275e-09 -9.72087e-12 1.32802e-09 0.979054)
(1.04135 -0.0102057 -1.37137e-10 -0.00140843 0.979268 -3.1045e-10 -2.1316e-11 6.71038e-09 0.979074)
(1.04136 -0.0115285 -5.99646e-10 -0.00165233 0.979374 -1.25595e-09 -1.49987e-11 9.78121e-10 0.97912)
(1.04139 -0.0125501 -2.10148e-10 -0.00189391 0.979523 -5.06332e-10 1.16861e-12 -6.91185e-09 0.979155)
(1.04141 -0.0131592 4.47135e-10 -0.00212556 0.979683 6.4356e-10 -8.6203e-12 -1.16467e-09 0.979215)
(1.04143 -0.0132303 -6.4969e-11 -0.00235506 0.979896 -1.44342e-10 -3.64038e-11 6.65429e-09 0.979267)
(1.04145 -0.0127077 -6.93717e-10 -0.00256998 0.980166 -7.32468e-10 -2.15282e-11 -1.41534e-09 0.979346)
(1.04146 -0.0113938 1.51435e-10 -0.00278392 0.980504 1.56107e-10 4.88245e-12 -6.75087e-09 0.979425)
(1.04147 -0.00935426 6.23976e-10 -0.00297647 0.981 4.8391e-10 -1.81934e-11 1.17139e-09 0.979533)
(1.04147 -0.0063256 -5.33442e-11 -0.00317096 0.981586 -4.67829e-11 -4.87157e-11 6.51735e-09 0.97966)
(1.04147 -0.00254054 -5.19903e-10 -0.00333918 0.982364 -5.65986e-10 -3.94589e-11 1.02474e-09 0.979818)
(1.04147 0.000802671 -2.91132e-10 -0.00354254 0.982829 -1.27095e-10 -1.32245e-11 -2.06298e-09 0.98001)
(1.04128 -0.00157281 -5.36115e-11 -0.00017252 0.978987 -1.76527e-09 -1.0755e-12 -7.07954e-10 0.979003)
(1.04135 -0.00302843 -1.70205e-10 -0.000402557 0.978984 -6.16894e-11 -3.11973e-12 4.93171e-10 0.978958)
(1.04136 -0.00513242 -8.67783e-11 -0.000654406 0.979014 -7.25283e-10 -4.16191e-12 -4.86002e-10 0.97898)
(1.04138 -0.00693364 1.2793e-10 -0.000908039 0.979073 2.26756e-10 -2.73164e-12 -3.47631e-09 0.97899)
(1.04139 -0.00866989 3.22504e-10 -0.00115954 0.979133 1.13443e-09 -9.74767e-12 1.33005e-09 0.979021)
(1.04141 -0.0102217 -1.37356e-10 -0.00140933 0.979236 -3.10903e-10 -2.13638e-11 6.72078e-09 0.979042)
(1.04143 -0.0115467 -5.99724e-10 -0.0016534 0.979342 -1.25773e-09 -1.5037e-11 9.79621e-10 0.979088)
(1.04146 -0.0125682 -2.10979e-10 -0.00189516 0.979491 -5.07119e-10 1.15506e-12 -6.9226e-09 0.979122)
(1.04148 -0.0131775 4.46185e-10 -0.00212687 0.979651 6.44448e-10 -8.65169e-12 -1.16649e-09 0.979183)
(1.0415 -0.0132489 -6.50957e-11 -0.00235651 0.979864 -1.44544e-10 -3.6483e-11 6.66463e-09 0.979235)
(1.04152 -0.0127253 -6.93331e-10 -0.00257153 0.980135 -7.33468e-10 -2.15912e-11 -1.41757e-09 0.979314)
(1.04153 -0.01141 1.52045e-10 -0.00278553 0.980472 1.56398e-10 4.87251e-12 -6.76141e-09 0.979393)
(1.04154 -0.00936724 6.24117e-10 -0.0029782 0.98097 4.84638e-10 -1.82352e-11 1.1732e-09 0.979501)
(1.04154 -0.00633409 -5.33353e-11 -0.00317257 0.981556 -4.68598e-11 -4.88187e-11 6.52755e-09 0.979628)
(1.04154 -0.00254407 -5.19856e-10 -0.00334074 0.982334 -5.66762e-10 -3.95619e-11 1.02633e-09 0.979786)
(1.04154 0.000800445 -2.91291e-10 -0.00354391 0.982799 -1.27353e-10 -1.32668e-11 -2.06627e-09 0.979979)
(1.04135 -0.00157582 -5.37449e-11 -0.000172621 0.978954 -1.7678e-09 -1.07884e-12 -7.09047e-10 0.978971)
(1.04142 -0.00303347 -1.7044e-10 -0.000402938 0.978951 -6.17074e-11 -3.12891e-12 4.93922e-10 0.978926)
(1.04143 -0.00514173 -8.67882e-11 -0.00065503 0.978982 -7.26327e-10 -4.17361e-12 -4.86767e-10 0.978948)
(1.04144 -0.00694574 1.28106e-10 -0.000908908 0.979041 2.27132e-10 -2.74399e-12 -3.48168e-09 0.978957)
(1.04146 -0.00868512 3.22627e-10 -0.00116066 0.979101 1.13612e-09 -9.77444e-12 1.33207e-09 0.978989)
(1.04148 -0.010238 -1.3758e-10 -0.00141071 0.979204 -3.11352e-10 -2.14113e-11 6.73111e-09 0.97901)
(1.0415 -0.0115652 -5.99792e-10 -0.00165501 0.97931 -1.25953e-09 -1.50754e-11 9.81111e-10 0.979055)
(1.04153 -0.0125866 -2.1183e-10 -0.00189697 0.979459 -5.0789e-10 1.14098e-12 -6.93328e-09 0.97909)
(1.04154 -0.013196 4.45162e-10 -0.00212872 0.979619 6.45366e-10 -8.68314e-12 -1.1683e-09 0.979151)
(1.04157 -0.0132678 -6.52231e-11 -0.00235853 0.979833 -1.44745e-10 -3.65622e-11 6.6749e-09 0.979203)
(1.04158 -0.012743 -6.92876e-10 -0.00257356 0.980103 -7.34452e-10 -2.16543e-11 -1.41979e-09 0.979282)
(1.0416 -0.0114264 1.52665e-10 -0.00278755 0.980441 1.56697e-10 4.86231e-12 -6.7719e-09 0.979361)
(1.04161 -0.00938042 6.24251e-10 -0.0029802 0.980939 4.85324e-10 -1.82769e-11 1.175e-09 0.979469)
(1.04161 -0.00634271 -5.33283e-11 -0.00317446 0.981526 -4.69368e-11 -4.89218e-11 6.53771e-09 0.979597)
(1.04161 -0.0025475 -5.19835e-10 -0.0033425 0.982304 -5.67537e-10 -3.9665e-11 1.02792e-09 0.979755)
(1.04161 0.0007984 -2.91445e-10 -0.00354545 0.982769 -1.2761e-10 -1.33091e-11 -2.06954e-09 0.979947)
(1.04141 -0.00157891 -5.37914e-11 -0.000172785 0.978922 -1.77031e-09 -1.0822e-12 -7.10133e-10 0.978939)
(1.04149 -0.00303854 -1.7067e-10 -0.000403399 0.97892 -6.17239e-11 -3.1381e-12 4.94667e-10 0.978894)
(1.04149 -0.0051511 -8.67976e-11 -0.000655777 0.97895 -7.27361e-10 -4.18537e-12 -4.87525e-10 0.978916)
(1.04151 -0.00695784 1.28278e-10 -0.000909964 0.979009 2.27505e-10 -2.75631e-12 -3.487e-09 0.978925)
(1.04152 -0.0087004 3.22725e-10 -0.00116196 0.979069 1.13777e-09 -9.80119e-12 1.33408e-09 0.978957)
(1.04155 -0.0102544 -1.37808e-10 -0.00141224 0.979173 -3.11798e-10 -2.14588e-11 6.74135e-09 0.978978)
(1.04157 -0.011584 -5.99834e-10 -0.00165675 0.979279 -1.26128e-09 -1.51138e-11 9.82588e-10 0.979024)
(1.04159 -0.0126052 -2.12707e-10 -0.00189893 0.979427 -5.08651e-10 1.12669e-12 -6.94387e-09 0.979058)
(1.04161 -0.0132148 4.44091e-10 -0.00213074 0.979588 6.46297e-10 -8.71467e-12 -1.17009e-09 0.979119)
(1.04164 -0.013287 -6.53563e-11 -0.00236066 0.979801 -1.44943e-10 -3.66412e-11 6.6851e-09 0.979171)
(1.04165 -0.0127611 -6.92405e-10 -0.00257567 0.980072 -7.35446e-10 -2.17176e-11 -1.42199e-09 0.97925)
(1.04167 -0.0114431 1.53312e-10 -0.00278966 0.98041 1.56987e-10 4.85204e-12 -6.78232e-09 0.979329)
(1.04168 -0.00939385 6.2433e-10 -0.00298219 0.980908 4.86025e-10 -1.83188e-11 1.17679e-09 0.979437)
(1.04168 -0.00635154 -5.33203e-11 -0.00317631 0.981495 -4.70141e-11 -4.90253e-11 6.54781e-09 0.979565)
(1.04168 -0.00255104 -5.19777e-10 -0.00334414 0.982274 -5.68287e-10 -3.97681e-11 1.02951e-09 0.979723)