/*--------------------------------*- C++ -*----------------------------------*\
| =========                 |                                                 |
| \\      /  F ield         | foam-extend: Open Source CFD                    |
|  \\    /   O peration     | Version:     4.1-20200408                       |
|   \\  /    A nd           | Web:         http://www.foam-extend.org         |
|    \\/     M anipulation  |                                                 |
\*---------------------------------------------------------------------------*/
FoamFile
{
    version     2.0;
    format      ascii;
    class       volTensorField;
    location    "0.0465000";
    object      F;
}
// * * * * * * * * * * * * * * * * * * * * * * * * * * * * * * * * * * * * * //

dimensions      [0 0 0 0 0 0 0];

internalField   nonuniform List<tensor> 
1952
(
(1.05843 -0.0041253 -2.25555e-10 -0.000402206 0.970637 -7.00165e-11 6.57903e-11 6.84315e-10 0.970593)
(1.05844 -0.00695922 -1.11433e-10 -0.000637497 0.970688 -1.0013e-09 4.2052e-11 -6.8602e-10 0.970629)
(1.05846 -0.0093798 1.75658e-10 -0.000903352 0.970787 3.26683e-10 -5.8436e-11 -4.8624e-09 0.970647)
(1.05847 -0.0116692 4.42121e-10 -0.00113675 0.970883 1.59198e-09 -1.68369e-10 1.85087e-09 0.970699)
(1.05849 -0.013648 -1.77336e-10 -0.00140172 0.97104 -4.24236e-10 9.34391e-12 9.37897e-09 0.970733)
(1.05852 -0.0152949 -7.97239e-10 -0.00163006 0.971189 -1.74182e-09 1.97289e-10 1.3607e-09 0.970804)
(1.05854 -0.0165057 -2.80904e-10 -0.00188807 0.971411 -7.01296e-10 4.76283e-11 -9.67209e-09 0.970855)
(1.05857 -0.0171829 5.9882e-10 -0.00210624 0.971622 8.90882e-10 -1.49994e-10 -1.63191e-09 0.970947)
(1.05859 -0.0171674 -7.87787e-11 -0.00235161 0.971901 -1.93301e-10 -3.66301e-11 9.29562e-09 0.971017)
(1.05861 -0.0164622 -8.66147e-10 -0.00255817 0.97224 -9.93619e-10 1.06084e-10 -1.98695e-09 0.97113)
(1.05863 -0.0146898 2.20991e-10 -0.00278635 0.972664 2.27492e-10 -2.60516e-12 -9.44096e-09 0.971232)
(1.05864 -0.0121073 7.57794e-10 -0.0029751 0.973282 6.66178e-10 -1.13856e-10 1.63149e-09 0.971378)
(1.05865 -0.0081918 -4.61527e-11 -0.00317978 0.973974 -6.47726e-11 -6.74714e-11 9.11452e-09 0.971538)
(1.05866 -0.00345863 -5.99245e-10 -0.00335214 0.974823 -7.37065e-10 4.77384e-11 1.42961e-09 0.971738)
(1.05868 0.000321035 -3.00627e-10 -0.00357219 0.975269 -1.92186e-10 3.8679e-12 -2.899e-09 0.971963)
(1.05842 -0.00219677 -7.192e-11 -0.000166719 0.97059 -2.42868e-09 1.50199e-11 -9.93813e-10 0.970607)
(1.05852 -0.0041302 -2.25766e-10 -0.000393087 0.970604 -7.00837e-11 -5.90236e-12 6.85166e-10 0.970561)
(1.05853 -0.0069675 -1.11488e-10 -0.000638381 0.970656 -1.00252e-09 -7.7884e-12 -6.86655e-10 0.970596)
(1.05854 -0.0093909 1.75875e-10 -0.000887306 0.970755 3.27164e-10 -6.75457e-12 -4.86789e-09 0.970615)
(1.05856 -0.011683 4.42543e-10 -0.00113201 0.970852 1.59441e-09 -1.82163e-11 1.85213e-09 0.970666)
(1.05858 -0.0136643 -1.7751e-10 -0.0013779 0.971009 -4.24614e-10 -3.48755e-11 9.38926e-09 0.970701)
(1.0586 -0.0153134 -7.98041e-10 -0.00161544 0.971159 -1.74425e-09 -2.64266e-11 1.36359e-09 0.970772)
(1.05863 -0.016525 -2.81313e-10 -0.00185358 0.97138 -7.01633e-10 -4.3007e-12 -9.68202e-09 0.970824)
(1.05866 -0.0172036 5.98912e-10 -0.00207798 0.971592 8.93298e-10 -1.81565e-11 -1.63463e-09 0.970916)
(1.05868 -0.017188 -7.88568e-11 -0.00230487 0.971871 -1.93415e-10 -5.88818e-11 9.30558e-09 0.970987)
(1.0587 -0.0164844 -8.65611e-10 -0.00251136 0.97221 -9.95786e-10 -4.06472e-11 -1.98813e-09 0.9711)
(1.05873 -0.0147124 2.2155e-10 -0.00272168 0.972633 2.27296e-10 6.51205e-15 -9.45099e-09 0.971202)
(1.05874 -0.0121303 7.57476e-10 -0.00290252 0.973249 6.67354e-10 -3.03627e-11 1.63285e-09 0.971347)
(1.05875 -0.00822117 -4.61168e-11 -0.00308916 0.973939 -6.48295e-11 -7.79241e-11 9.12439e-09 0.971508)
(1.05877 -0.00350586 -5.96206e-10 -0.00324225 0.974782 -7.37292e-10 -7.0389e-11 1.43114e-09 0.971707)
(1.05879 0.000229836 -2.97877e-10 -0.00343555 0.975221 -1.92038e-10 -2.67003e-11 -2.90261e-09 0.971931)
(1.05851 -0.00219978 -7.19849e-11 -0.000168515 0.970558 -2.43105e-09 -2.11365e-12 -9.949e-10 0.970574)
(1.05861 -0.00413519 -2.25991e-10 -0.000390764 0.970567 -7.01015e-11 -5.91842e-12 6.86008e-10 0.970524)
(1.05862 -0.00697615 -1.11524e-10 -0.000634985 0.97062 -1.00376e-09 -7.8118e-12 -6.87547e-10 0.970559)
(1.05863 -0.00940231 1.7608e-10 -0.000881787 0.970719 3.2766e-10 -6.78119e-12 -4.87399e-09 0.970578)
(1.05865 -0.0116974 4.42808e-10 -0.00112546 0.970816 1.59667e-09 -1.82636e-11 1.85441e-09 0.97063)
(1.05867 -0.013681 -1.77698e-10 -0.00136882 0.970973 -4.25086e-10 -3.49507e-11 9.40094e-09 0.970665)
(1.0587 -0.0153325 -7.98517e-10 -0.00160503 0.971123 -1.74664e-09 -2.64932e-11 1.36528e-09 0.970736)
(1.05872 -0.0165456 -2.81833e-10 -0.00184056 0.971344 -7.02314e-10 -4.34151e-12 -9.69413e-09 0.970788)
(1.05875 -0.0172263 5.98527e-10 -0.00206334 0.971556 8.95017e-10 -1.82127e-11 -1.6367e-09 0.97088)
(1.05877 -0.0172107 -7.89655e-11 -0.00228731 0.971835 -1.93589e-10 -5.90055e-11 9.31719e-09 0.970951)
(1.05879 -0.0165092 -8.64475e-10 -0.0024918 0.972174 -9.97691e-10 -4.07604e-11 -1.99067e-09 0.971063)
(1.05882 -0.0147372 2.22378e-10 -0.00269959 0.972596 2.27285e-10 -3.47941e-14 -9.46291e-09 0.971165)
(1.05884 -0.0121519 7.57571e-10 -0.00287888 0.97321 6.68433e-10 -3.04348e-11 1.63491e-09 0.971311)
(1.05884 -0.00824314 -4.60849e-11 -0.00306376 0.9739 -6.4902e-11 -7.80834e-11 9.13611e-09 0.971471)
(1.05886 -0.00352863 -5.96036e-10 -0.00321587 0.974742 -7.38416e-10 -7.05657e-11 1.43299e-09 0.97167)
(1.05887 0.000204443 -2.97959e-10 -0.00340974 0.975183 -1.92424e-10 -2.67838e-11 -2.90643e-09 0.971894)
(1.0586 -0.00220292 -7.20505e-11 -0.000167573 0.970521 -2.43379e-09 -2.11999e-12 -9.96145e-10 0.970537)
(1.0587 -0.00414023 -2.26196e-10 -0.000388886 0.97053 -7.00895e-11 -5.93459e-12 6.86875e-10 0.970486)
(1.05871 -0.00698492 -1.11554e-10 -0.000632163 0.970582 -1.00497e-09 -7.83491e-12 -6.8846e-10 0.970521)
(1.05872 -0.00941387 1.76287e-10 -0.000877334 0.970681 3.28138e-10 -6.80761e-12 -4.88028e-09 0.97054)
(1.05874 -0.011712 4.43077e-10 -0.00112013 0.970778 1.59873e-09 -1.83113e-11 1.85676e-09 0.970592)
(1.05876 -0.013698 -1.77893e-10 -0.00136154 0.970936 -4.25585e-10 -3.50262e-11 9.41301e-09 0.970627)
(1.05879 -0.015352 -7.99059e-10 -0.00159672 0.971086 -1.7488e-09 -2.65594e-11 1.36701e-09 0.970698)
(1.05882 -0.0165657 -2.8242e-10 -0.00183016 0.971306 -7.03068e-10 -4.38142e-12 -9.70667e-09 0.97075)
(1.05884 -0.0172484 5.97869e-10 -0.00205145 0.971518 8.96716e-10 -1.8269e-11 -1.63886e-09 0.970842)
(1.05887 -0.0172333 -7.9071e-11 -0.00227292 0.971796 -1.93782e-10 -5.913e-11 9.3293e-09 0.970913)
(1.05889 -0.0165337 -8.634e-10 -0.00247595 0.972135 -9.99649e-10 -4.08734e-11 -1.99332e-09 0.971025)
(1.05891 -0.0147631 2.23019e-10 -0.00268154 0.972557 2.27361e-10 -7.31891e-14 -9.4754e-09 0.971127)
(1.05893 -0.0121754 7.57935e-10 -0.00286003 0.97317 6.69679e-10 -3.05063e-11 1.63705e-09 0.971272)
(1.05894 -0.00826525 -4.60551e-11 -0.00304443 0.97386 -6.49751e-11 -7.8244e-11 9.14834e-09 0.971433)
(1.05895 -0.00355035 -5.95939e-10 -0.00319652 0.974702 -7.39617e-10 -7.07432e-11 1.43491e-09 0.971631)
(1.05896 0.000182858 -2.98291e-10 -0.00339058 0.975143 -1.92749e-10 -2.68659e-11 -2.91044e-09 0.971856)
(1.05869 -0.00220605 -7.21229e-11 -0.000166801 0.970483 -2.43661e-09 -2.12632e-12 -9.97424e-10 0.970499)
(1.05879 -0.00414526 -2.26435e-10 -0.000387031 0.97049 -7.00798e-11 -5.95085e-12 6.87771e-10 0.970447)
(1.0588 -0.00699377 -1.11587e-10 -0.000629127 0.970543 -1.00622e-09 -7.85765e-12 -6.89406e-10 0.970482)
(1.05882 -0.00942541 1.76492e-10 -0.000873053 0.970642 3.28636e-10 -6.83356e-12 -4.8868e-09 0.970501)
(1.05883 -0.0117269 4.43247e-10 -0.00111453 0.970739 1.60085e-09 -1.83597e-11 1.8592e-09 0.970553)
(1.05886 -0.013715 -1.78088e-10 -0.00135469 0.970896 -4.26108e-10 -3.51026e-11 9.42555e-09 0.970588)
(1.05888 -0.0153726 -7.99212e-10 -0.00158838 0.971046 -1.75108e-09 -2.66253e-11 1.36881e-09 0.970659)
(1.05891 -0.0165874 -2.83178e-10 -0.00182072 0.971266 -7.03904e-10 -4.41867e-12 -9.71971e-09 0.970711)
(1.05893 -0.0172713 5.97106e-10 -0.00204116 0.971478 8.98155e-10 -1.83252e-11 -1.6411e-09 0.970802)
(1.05896 -0.0172564 -7.91924e-11 -0.00226148 0.971756 -1.93994e-10 -5.92555e-11 9.34189e-09 0.970873)
(1.05898 -0.0165582 -8.6218e-10 -0.00246387 0.972095 -1.00139e-09 -4.09862e-11 -1.99607e-09 0.970986)
(1.05901 -0.0147879 2.23836e-10 -0.00266862 0.972517 2.27549e-10 -1.10407e-13 -9.48837e-09 0.971088)
(1.05902 -0.0121965 7.58148e-10 -0.00284693 0.97313 6.70874e-10 -3.0577e-11 1.63928e-09 0.971233)
(1.05903 -0.00828553 -4.6022e-11 -0.00303048 0.97382 -6.50511e-11 -7.84055e-11 9.16098e-09 0.971393)
(1.05904 -0.00356826 -5.96314e-10 -0.00318281 0.974662 -7.40789e-10 -7.0921e-11 1.43688e-09 0.971592)
(1.05905 0.000166876 -2.98546e-10 -0.0033772 0.975105 -1.93088e-10 -2.69473e-11 -2.91455e-09 0.971816)
(1.05879 -0.00220913 -7.21924e-11 -0.000166011 0.970444 -2.43953e-09 -2.13261e-12 -9.98748e-10 0.97046)
(1.05889 -0.00415045 -2.26651e-10 -0.000385528 0.97045 -7.00716e-11 -5.96717e-12 6.88691e-10 0.970407)
(1.0589 -0.00700288 -1.11616e-10 -0.000626719 0.970503 -1.00751e-09 -7.88005e-12 -6.90378e-10 0.970442)
(1.05891 -0.00943724 1.76697e-10 -0.000869708 0.970602 3.2915e-10 -6.85923e-12 -4.8935e-09 0.970461)
(1.05893 -0.011742 4.43444e-10 -0.00111038 0.970699 1.60307e-09 -1.84083e-11 1.8617e-09 0.970513)
(1.05895 -0.0137322 -1.78286e-10 -0.00134968 0.970856 -4.26642e-10 -3.51786e-11 9.43842e-09 0.970547)
(1.05898 -0.0153923 -7.99564e-10 -0.00158274 0.971006 -1.75351e-09 -2.66904e-11 1.37066e-09 0.970619)
(1.05901 -0.016608 -2.83842e-10 -0.00181426 0.971225 -7.04732e-10 -4.45641e-12 -9.73309e-09 0.97067)
(1.05903 -0.0172938 5.96285e-10 -0.00203366 0.971437 8.99803e-10 -1.83814e-11 -1.64339e-09 0.970762)
(1.05906 -0.017279 -7.93112e-11 -0.00225319 0.971715 -1.94204e-10 -5.93808e-11 9.35478e-09 0.970833)
(1.05908 -0.0165822 -8.60929e-10 -0.00245483 0.972054 -1.00332e-09 -4.10986e-11 -1.99889e-09 0.970945)
(1.0591 -0.0148129 2.24569e-10 -0.00265883 0.972477 2.27715e-10 -1.46009e-13 -9.50161e-09 0.971048)
(1.05912 -0.0122174 7.58678e-10 -0.0028368 0.973089 6.71951e-10 -3.06473e-11 1.64154e-09 0.971192)
(1.05912 -0.00830392 -4.59873e-11 -0.00302009 0.973779 -6.51297e-11 -7.85683e-11 9.17388e-09 0.971353)
(1.05913 -0.00358387 -5.96628e-10 -0.00317245 0.974622 -7.41986e-10 -7.10991e-11 1.4389e-09 0.971551)
(1.05914 0.000153476 -2.98812e-10 -0.00336693 0.975066 -1.9341e-10 -2.70278e-11 -2.91874e-09 0.971776)
(1.05888 -0.00221229 -7.22844e-11 -0.000165369 0.970404 -2.44254e-09 -2.13887e-12 -1.00011e-09 0.97042)
(1.05898 -0.00415558 -2.2688e-10 -0.000384198 0.970409 -7.00592e-11 -5.98353e-12 6.89631e-10 0.970366)
(1.05899 -0.00701199 -1.11652e-10 -0.000624548 0.970461 -1.00881e-09 -7.90218e-12 -6.91372e-10 0.970401)
(1.05901 -0.00944898 1.76899e-10 -0.000866731 0.970561 3.29664e-10 -6.88454e-12 -4.90035e-09 0.97042)
(1.05902 -0.0117572 4.43543e-10 -0.00110655 0.970658 1.60527e-09 -1.84573e-11 1.86425e-09 0.970472)
(1.05905 -0.0137496 -1.78496e-10 -0.00134506 0.970815 -4.27187e-10 -3.52552e-11 9.45155e-09 0.970506)
(1.05907 -0.0154131 -7.99646e-10 -0.00157733 0.970966 -1.75582e-09 -2.67552e-11 1.37254e-09 0.970578)
(1.0591 -0.0166296 -2.84675e-10 -0.00180805 0.971184 -7.05587e-10 -4.49227e-12 -9.74672e-09 0.970629)
(1.05912 -0.0173164 5.95331e-10 -0.00202706 0.971396 9.01397e-10 -1.84374e-11 -1.64573e-09 0.970721)
(1.05915 -0.0173015 -7.94372e-11 -0.00224576 0.971673 -1.94426e-10 -5.95073e-11 9.36793e-09 0.970792)
(1.05917 -0.0166055 -8.59732e-10 -0.00244726 0.972013 -1.00511e-09 -4.12106e-11 -2.00176e-09 0.970904)
(1.0592 -0.0148371 2.25292e-10 -0.00265049 0.972436 2.27963e-10 -1.79736e-13 -9.51514e-09 0.971006)
(1.05921 -0.0122377 7.59169e-10 -0.00282857 0.973049 6.73176e-10 -3.07172e-11 1.64385e-09 0.971151)
(1.05922 -0.00832101 -4.59524e-11 -0.00301216 0.973739 -6.52075e-11 -7.87315e-11 9.18702e-09 0.971312)
(1.05922 -0.00359666 -5.9709e-10 -0.00316528 0.974583 -7.43166e-10 -7.12772e-11 1.44095e-09 0.97151)
(1.05922 0.000143449 -2.99024e-10 -0.0033601 0.975027 -1.93724e-10 -2.71077e-11 -2.92301e-09 0.971735)
(1.05897 -0.00221541 -7.23625e-11 -0.0001648 0.970363 -2.44563e-09 -2.1451e-12 -1.0015e-09 0.970379)
(1.05908 -0.00416076 -2.27104e-10 -0.000383084 0.970367 -7.00536e-11 -5.99992e-12 6.9059e-10 0.970324)
(1.05909 -0.00702115 -1.11682e-10 -0.000622715 0.970419 -1.01016e-09 -7.92399e-12 -6.92387e-10 0.970359)
(1.05911 -0.00946076 1.77098e-10 -0.000864259 0.970519 3.30201e-10 -6.90951e-12 -4.90734e-09 0.970378)
(1.05912 -0.0117724 4.43661e-10 -0.00110326 0.970616 1.6076e-09 -1.85067e-11 1.86686e-09 0.97043)
(1.05915 -0.0137667 -1.787e-10 -0.00134123 0.970773 -4.27743e-10 -3.53319e-11 9.46496e-09 0.970464)
(1.05917 -0.0154337 -7.99685e-10 -0.00157258 0.970924 -1.75835e-09 -2.68196e-11 1.37447e-09 0.970536)
(1.0592 -0.0166513 -2.85488e-10 -0.00180287 0.971142 -7.0649e-10 -4.52688e-12 -9.76066e-09 0.970588)
(1.05922 -0.017339 5.9448e-10 -0.00202169 0.971354 9.02909e-10 -1.84931e-11 -1.64812e-09 0.970679)
(1.05925 -0.0173237 -7.95639e-11 -0.00224027 0.971632 -1.94652e-10 -5.96339e-11 9.38132e-09 0.97075)
(1.05927 -0.0166283 -8.58508e-10 -0.0024418 0.971972 -1.00682e-09 -4.13219e-11 -2.00468e-09 0.970862)
(1.05929 -0.0148601 2.26094e-10 -0.00264513 0.972395 2.28246e-10 -2.12878e-13 -9.52886e-09 0.970965)
(1.0593 -0.012256 7.59615e-10 -0.00282359 0.973008 6.74292e-10 -3.07866e-11 1.64619e-09 0.971109)
(1.05931 -0.00833599 -4.59141e-11 -0.00300759 0.973699 -6.52865e-11 -7.88944e-11 9.2003e-09 0.97127)
(1.05931 -0.00360742 -5.97446e-10 -0.00316112 0.974544 -7.44207e-10 -7.1455e-11 1.44301e-09 0.971469)
(1.05931 0.000135535 -2.99256e-10 -0.00335583 0.974989 -1.94038e-10 -2.7187e-11 -2.9273e-09 0.971694)
(1.05907 -0.00221856 -7.24544e-11 -0.000164321 0.970321 -2.44878e-09 -2.1513e-12 -1.00292e-09 0.970337)
(1.05918 -0.00416593 -2.27341e-10 -0.000382173 0.970325 -7.00449e-11 -6.01634e-12 6.91562e-10 0.970281)
(1.05919 -0.0070304 -1.11697e-10 -0.000621245 0.970377 -1.01152e-09 -7.94564e-12 -6.93416e-10 0.970316)
(1.0592 -0.00947258 1.77286e-10 -0.000862241 0.970476 3.30741e-10 -6.93426e-12 -4.91442e-09 0.970335)
(1.05922 -0.0117877 4.43716e-10 -0.00110075 0.970574 1.60995e-09 -1.85561e-11 1.86951e-09 0.970387)
(1.05924 -0.013784 -1.78906e-10 -0.00133828 0.970731 -4.28304e-10 -3.54085e-11 9.47853e-09 0.970422)
(1.05926 -0.0154539 -7.99768e-10 -0.0015693 0.970882 -1.76088e-09 -2.68835e-11 1.37642e-09 0.970493)
(1.05929 -0.0166723 -2.86293e-10 -0.00179935 0.9711 -7.07388e-10 -4.56165e-12 -9.77475e-09 0.970545)
(1.05932 -0.0173611 5.93508e-10 -0.00201804 0.971312 9.04544e-10 -1.85485e-11 -1.65053e-09 0.970637)
(1.05935 -0.0173455 -7.96889e-11 -0.00223658 0.97159 -1.94877e-10 -5.97601e-11 9.39485e-09 0.970708)
(1.05936 -0.0166504 -8.57305e-10 -0.00243828 0.97193 -1.00863e-09 -4.14325e-11 -2.00763e-09 0.97082)
(1.05939 -0.0148825 2.26867e-10 -0.00264178 0.972354 2.28526e-10 -2.4546e-13 -9.5427e-09 0.970922)
(1.0594 -0.0122735 7.60133e-10 -0.00282058 0.972968 6.755e-10 -3.08553e-11 1.64855e-09 0.971067)
(1.0594 -0.00834956 -4.58749e-11 -0.00300489 0.97366 -6.53627e-11 -7.9057e-11 9.21366e-09 0.971228)
(1.0594 -0.00361625 -5.97794e-10 -0.00315859 0.974505 -7.45227e-10 -7.16326e-11 1.44509e-09 0.971427)
(1.0594 0.00012934 -2.99433e-10 -0.00335305 0.97495 -1.94355e-10 -2.72661e-11 -2.93163e-09 0.971652)
(1.05917 -0.00222173 -7.24957e-11 -0.000163931 0.970278 -2.45197e-09 -2.15748e-12 -1.00437e-09 0.970294)
(1.05927 -0.00417108 -2.27574e-10 -0.000381466 0.970282 -7.00387e-11 -6.03275e-12 6.92548e-10 0.970238)
(1.05928 -0.00703959 -1.11717e-10 -0.000620091 0.970334 -1.01291e-09 -7.96706e-12 -6.9446e-10 0.970273)
(1.0593 -0.00948432 1.77484e-10 -0.000860744 0.970433 3.31289e-10 -6.95861e-12 -4.9216e-09 0.970292)
(1.05932 -0.011803 4.43765e-10 -0.00109886 0.970531 1.61235e-09 -1.86057e-11 1.87219e-09 0.970344)
(1.05934 -0.0138011 -1.79114e-10 -0.00133624 0.970688 -4.28871e-10 -3.54855e-11 9.49229e-09 0.970379)
(1.05936 -0.0154743 -7.99759e-10 -0.00156708 0.97084 -1.76346e-09 -2.69468e-11 1.37839e-09 0.97045)
(1.05939 -0.0166934 -2.8714e-10 -0.00179722 0.971057 -7.08313e-10 -4.59522e-12 -9.78901e-09 0.970502)
(1.05941 -0.0173829 5.92559e-10 -0.00201592 0.97127 9.06096e-10 -1.86036e-11 -1.65296e-09 0.970594)
(1.05944 -0.0173667 -7.98152e-11 -0.00223485 0.971548 -1.95106e-10 -5.9886e-11 9.40849e-09 0.970665)
(1.05946 -0.0166716 -8.56101e-10 -0.00243679 0.971889 -1.01033e-09 -4.15426e-11 -2.01059e-09 0.970777)
(1.05948 -0.0149031 2.27727e-10 -0.00264083 0.972314 2.28826e-10 -2.7794e-13 -9.55661e-09 0.97088)
(1.05949 -0.0122891 7.60406e-10 -0.00281973 0.972928 6.76591e-10 -3.09236e-11 1.65092e-09 0.971025)
(1.05949 -0.00836238 -4.58337e-11 -0.00300362 0.973621 -6.54401e-11 -7.92194e-11 9.22706e-09 0.971186)
(1.05949 -0.00362444 -5.98227e-10 -0.00315717 0.974466 -7.46144e-10 -7.18099e-11 1.44717e-09 0.971385)
(1.05949 0.000124214 -2.99606e-10 -0.0033515 0.974911 -1.9467e-10 -2.73447e-11 -2.93596e-09 0.971611)
(1.05927 -0.00222488 -7.25946e-11 -0.000163625 0.970235 -2.45522e-09 -2.16362e-12 -1.00583e-09 0.970251)
(1.05937 -0.0041762 -2.27792e-10 -0.000381175 0.970238 -7.00314e-11 -6.04913e-12 6.9354e-10 0.970194)
(1.05938 -0.00704879 -1.11724e-10 -0.000619673 0.970291 -1.01431e-09 -7.98836e-12 -6.95511e-10 0.97023)
(1.0594 -0.00949594 1.77668e-10 -0.000860222 0.97039 3.3184e-10 -6.98298e-12 -4.92882e-09 0.970249)
(1.05941 -0.0118179 4.43778e-10 -0.00109841 0.970488 1.6148e-09 -1.86552e-11 1.87488e-09 0.970301)
(1.05944 -0.0138178 -1.79317e-10 -0.00133577 0.970646 -4.29437e-10 -3.55618e-11 9.50611e-09 0.970336)
(1.05946 -0.0154934 -7.99823e-10 -0.00156693 0.970798 -1.76607e-09 -2.70097e-11 1.38037e-09 0.970407)
(1.05949 -0.0167133 -2.87908e-10 -0.00179704 0.971015 -7.092e-10 -4.6293e-12 -9.80329e-09 0.970459)
(1.05951 -0.017404 5.91545e-10 -0.00201549 0.971228 9.0787e-10 -1.86587e-11 -1.6554e-09 0.970551)
(1.05954 -0.0173873 -7.99379e-11 -0.00223441 0.971507 -1.95325e-10 -6.00113e-11 9.42213e-09 0.970623)
(1.05955 -0.0166923 -8.54789e-10 -0.00243617 0.971849 -1.01224e-09 -4.16525e-11 -2.01356e-09 0.970735)
(1.05957 -0.0149239 2.28533e-10 -0.00264015 0.972274 2.2905e-10 -3.09766e-13 -9.57051e-09 0.970838)
(1.05958 -0.0123044 7.60961e-10 -0.00281884 0.972888 6.77657e-10 -3.09918e-11 1.65328e-09 0.970983)
(1.05958 -0.00837369 -4.57891e-11 -0.00300294 0.973581 -6.5518e-11 -7.93815e-11 9.24047e-09 0.971144)
(1.05958 -0.00363148 -5.98501e-10 -0.00315623 0.974426 -7.47167e-10 -7.19872e-11 1.44926e-09 0.971344)
(1.05958 0.000119698 -2.9977e-10 -0.00335057 0.974872 -1.94989e-10 -2.74228e-11 -2.9403e-09 0.971569)
(1.05936 -0.00222806 -7.2642e-11 -0.0001635 0.970191 -2.45849e-09 -2.16975e-12 -1.0073e-09 0.970208)
(1.05947 -0.00418118 -2.28009e-10 -0.000381077 0.970195 -7.00191e-11 -6.06551e-12 6.94534e-10 0.970151)
(1.05948 -0.00705775 -1.11732e-10 -0.000619504 0.970247 -1.01571e-09 -8.00961e-12 -6.96564e-10 0.970186)
(1.05949 -0.00950728 1.7785e-10 -0.000860025 0.970347 3.32383e-10 -7.00723e-12 -4.93605e-09 0.970205)
(1.05951 -0.0118327 4.43766e-10 -0.00109811 0.970445 1.61718e-09 -1.87047e-11 1.87757e-09 0.970257)
(1.05953 -0.0138344 -1.79517e-10 -0.00133545 0.970603 -4.30003e-10 -3.56386e-11 9.51992e-09 0.970292)
(1.05955 -0.0155132 -7.99743e-10 -0.00156644 0.970756 -1.76854e-09 -2.70728e-11 1.38235e-09 0.970364)
(1.05958 -0.0167335 -2.88806e-10 -0.00179654 0.970973 -7.10106e-10 -4.66187e-12 -9.81756e-09 0.970417)
(1.0596 -0.0174245 5.9046e-10 -0.00201524 0.971186 9.09526e-10 -1.87138e-11 -1.65784e-09 0.970508)
(1.05963 -0.0174072 -8.00584e-11 -0.00223402 0.971465 -1.95552e-10 -6.01374e-11 9.43581e-09 0.97058)
(1.05965 -0.0167121 -8.53571e-10 -0.00243599 0.971807 -1.01398e-09 -4.1762e-11 -2.01653e-09 0.970692)
(1.05967 -0.0149435 2.29315e-10 -0.00263983 0.972234 2.29337e-10 -3.40917e-13 -9.58446e-09 0.970795)
(1.05968 -0.0123193 7.61318e-10 -0.00281875 0.972848 6.78859e-10 -3.10599e-11 1.65565e-09 0.970941)
(1.05968 -0.00838495 -4.57459e-11 -0.0030029 0.973542 -6.55936e-11 -7.95435e-11 9.25391e-09 0.971102)
(1.05967 -0.00363749 -5.98917e-10 -0.00315659 0.974387 -7.48153e-10 -7.21642e-11 1.45134e-09 0.971302)
(1.05967 0.000116649 -2.999e-10 -0.00335102 0.974833 -1.95301e-10 -2.75009e-11 -2.94465e-09 0.971527)
(1.05946 -0.00223114 -7.27864e-11 -0.000163456 0.970148 -2.46176e-09 -2.17587e-12 -1.00878e-09 0.970164)
(1.05957 -0.00418607 -2.28214e-10 -0.000381248 0.970151 -7.00127e-11 -6.08186e-12 6.95529e-10 0.970107)
(1.05957 -0.00706659 -1.11738e-10 -0.000619767 0.970204 -1.01712e-09 -8.03079e-12 -6.97619e-10 0.970143)
(1.05959 -0.00951838 1.78016e-10 -0.000860404 0.970304 3.32939e-10 -7.03135e-12 -4.94329e-09 0.970162)
(1.05961 -0.0118472 4.43712e-10 -0.00109851 0.970402 1.61966e-09 -1.87542e-11 1.88028e-09 0.970214)
(1.05963 -0.0138504 -1.79715e-10 -0.00133599 0.970561 -4.30569e-10 -3.57151e-11 9.53377e-09 0.970249)
(1.05965 -0.0155322 -7.99586e-10 -0.0015669 0.970713 -1.77121e-09 -2.71356e-11 1.38434e-09 0.970321)
(1.05968 -0.0167533 -2.89642e-10 -0.00179719 0.970931 -7.11018e-10 -4.69508e-12 -9.83189e-09 0.970374)
(1.0597 -0.0174449 5.89429e-10 -0.00201595 0.971145 9.11139e-10 -1.87689e-11 -1.66029e-09 0.970465)
(1.05973 -0.0174268 -8.01794e-11 -0.00223501 0.971424 -1.95776e-10 -6.02629e-11 9.44947e-09 0.970537)
(1.05974 -0.0167316 -8.52172e-10 -0.00243696 0.971767 -1.01575e-09 -4.18713e-11 -2.0195e-09 0.970649)
(1.05976 -0.0149625 2.30195e-10 -0.00264103 0.972194 2.29607e-10 -3.72654e-13 -9.59838e-09 0.970753)
(1.05977 -0.0123325 7.61705e-10 -0.00281999 0.972808 6.79864e-10 -3.11279e-11 1.65802e-09 0.970899)
(1.05977 -0.00839481 -4.56983e-11 -0.00300396 0.973503 -6.56718e-11 -7.97056e-11 9.26732e-09 0.97106)
(1.05976 -0.00364303 -5.99225e-10 -0.00315751 0.974348 -7.4907e-10 -7.23409e-11 1.45343e-09 0.97126)
(1.05976 0.000113839 -3.00043e-10 -0.00335182 0.974794 -1.9561e-10 -2.75788e-11 -2.94899e-09 0.971486)
(1.05956 -0.0022342 -7.28099e-11 -0.000163528 0.970104 -2.46504e-09 -2.18197e-12 -1.01026e-09 0.97012)
(1.05966 -0.0041909 -2.2841e-10 -0.000381611 0.970108 -7.00016e-11 -6.09819e-12 6.96518e-10 0.970064)
(1.05967 -0.00707536 -1.11727e-10 -0.000620355 0.970161 -1.01851e-09 -8.05206e-12 -6.98666e-10 0.970099)
(1.05969 -0.00952941 1.78187e-10 -0.000861173 0.970261 3.33483e-10 -7.05558e-12 -4.95049e-09 0.970119)
(1.0597 -0.0118615 4.43659e-10 -0.00109951 0.970359 1.62206e-09 -1.88035e-11 1.88296e-09 0.970171)
(1.05972 -0.0138665 -1.79907e-10 -0.0013371 0.970518 -4.31132e-10 -3.57914e-11 9.54751e-09 0.970206)
(1.05974 -0.0155508 -7.99543e-10 -0.00156828 0.970671 -1.77375e-09 -2.71983e-11 1.3863e-09 0.970278)
(1.05977 -0.0167721 -2.90481e-10 -0.00179861 0.970889 -7.11902e-10 -4.72879e-12 -9.8461e-09 0.970331)
(1.05979 -0.0174644 5.88283e-10 -0.00201732 0.971103 9.12876e-10 -1.88241e-11 -1.66272e-09 0.970423)
(1.05982 -0.0174457 -8.02964e-11 -0.00223629 0.971382 -1.95997e-10 -6.03882e-11 9.46308e-09 0.970495)
(1.05984 -0.0167503 -8.50875e-10 -0.00243819 0.971726 -1.01758e-09 -4.19805e-11 -2.02247e-09 0.970607)
(1.05985 -0.0149814 2.30948e-10 -0.00264206 0.972154 2.29869e-10 -4.03958e-13 -9.61226e-09 0.970711)
(1.05986 -0.0123465 7.6215e-10 -0.00282091 0.972769 6.81001e-10 -3.1196e-11 1.66038e-09 0.970856)
(1.05986 -0.00840436 -4.56538e-11 -0.00300526 0.973463 -6.57477e-11 -7.98673e-11 9.28071e-09 0.971018)
(1.05986 -0.00364766 -5.99439e-10 -0.00315872 0.974309 -7.50059e-10 -7.25175e-11 1.45551e-09 0.971218)
(1.05985 0.000111457 -3.00158e-10 -0.00335286 0.974755 -1.95923e-10 -2.76566e-11 -2.95333e-09 0.971444)
(1.05965 -0.00223724 -7.29151e-11 -0.000163685 0.970061 -2.46829e-09 -2.18808e-12 -1.01173e-09 0.970077)
(1.05976 -0.00419565 -2.28618e-10 -0.000382028 0.970065 -6.99941e-11 -6.11449e-12 6.97502e-10 0.970021)
(1.05976 -0.00708402 -1.11712e-10 -0.000620987 0.970118 -1.0199e-09 -8.0733e-12 -6.9971e-10 0.970056)
(1.05978 -0.00954021 1.7835e-10 -0.000862064 0.970218 3.34033e-10 -7.07976e-12 -4.95766e-09 0.970075)
(1.0598 -0.0118757 4.43541e-10 -0.00110048 0.970317 1.62449e-09 -1.88529e-11 1.88563e-09 0.970128)
(1.05982 -0.0138822 -1.801e-10 -0.00133832 0.970476 -4.31694e-10 -3.58682e-11 9.56123e-09 0.970163)
(1.05984 -0.0155696 -7.99257e-10 -0.00156936 0.970629 -1.77633e-09 -2.72612e-11 1.38827e-09 0.970235)
(1.05987 -0.0167916 -2.91386e-10 -0.00179993 0.970847 -7.12804e-10 -4.76114e-12 -9.8603e-09 0.970288)
(1.05989 -0.0174841 5.87151e-10 -0.00201886 0.971061 9.14479e-10 -1.88793e-11 -1.66515e-09 0.97038)
(1.05991 -0.0174646 -8.04166e-11 -0.00223811 0.971341 -1.96222e-10 -6.05139e-11 9.47666e-09 0.970452)
(1.05993 -0.0167689 -8.49493e-10 -0.0024402 0.971685 -1.01929e-09 -4.20895e-11 -2.02542e-09 0.970564)
(1.05995 -0.0149992 2.31827e-10 -0.00264436 0.972113 2.30156e-10 -4.35621e-13 -9.62611e-09 0.970669)
(1.05995 -0.0123588 7.62395e-10 -0.00282333 0.972729 6.82129e-10 -3.1264e-11 1.66273e-09 0.970814)
(1.05995 -0.00841342 -4.56055e-11 -0.00300755 0.973424 -6.58237e-11 -8.00284e-11 9.29406e-09 0.970977)
(1.05995 -0.00365192 -5.99733e-10 -0.00316097 0.97427 -7.50946e-10 -7.2694e-11 1.45758e-09 0.971177)
(1.05995 0.000109833 -3.00274e-10 -0.00335477 0.974716 -1.96242e-10 -2.77344e-11 -2.95765e-09 0.971403)
(1.05975 -0.00224023 -7.2959e-11 -0.000163863 0.970018 -2.47153e-09 -2.19418e-12 -1.01319e-09 0.970034)
(1.05985 -0.00420042 -2.28822e-10 -0.000382575 0.970022 -6.99869e-11 -6.13073e-12 6.98478e-10 0.969978)
(1.05986 -0.00709274 -1.11701e-10 -0.000621881 0.970075 -1.02128e-09 -8.09461e-12 -7.00745e-10 0.970014)
(1.05988 -0.00955109 1.78512e-10 -0.000863286 0.970176 3.34581e-10 -7.10406e-12 -4.96476e-09 0.970033)
(1.05989 -0.0118898 4.43447e-10 -0.00110207 0.970274 1.62692e-09 -1.8902e-11 1.88829e-09 0.970085)
(1.05991 -0.0138978 -1.80295e-10 -0.00134025 0.970434 -4.32251e-10 -3.59441e-11 9.57484e-09 0.970121)
(1.05993 -0.0155877 -7.99154e-10 -0.00157166 0.970588 -1.77896e-09 -2.73239e-11 1.39022e-09 0.970193)
(1.05996 -0.01681 -2.92203e-10 -0.00180258 0.970805 -7.13675e-10 -4.79492e-12 -9.87439e-09 0.970246)
(1.05998 -0.0175032 5.85992e-10 -0.0020215 0.97102 9.16219e-10 -1.89345e-11 -1.66756e-09 0.970338)
(1.06001 -0.0174829 -8.05317e-11 -0.00224103 0.9713 -1.96439e-10 -6.06387e-11 9.49013e-09 0.97041)
(1.06002 -0.0167871 -8.48104e-10 -0.00244304 0.971645 -1.02116e-09 -4.21984e-11 -2.02835e-09 0.970522)
(1.06004 -0.015017 2.32656e-10 -0.0026474 0.972074 2.30394e-10 -4.67841e-13 -9.63986e-09 0.970627)
(1.06005 -0.0123713 7.62756e-10 -0.00282616 0.972689 6.83195e-10 -3.1332e-11 1.66507e-09 0.970773)
(1.06005 -0.00842216 -4.55568e-11 -0.00301003 0.973385 -6.58999e-11 -8.01896e-11 9.30733e-09 0.970935)
(1.06004 -0.00365611 -5.9997e-10 -0.00316301 0.97423 -7.51854e-10 -7.28703e-11 1.45965e-09 0.971135)
(1.06004 0.000108067 -3.0039e-10 -0.00335652 0.974676 -1.9656e-10 -2.78122e-11 -2.96195e-09 0.971361)
(1.05984 -0.00224325 -7.3066e-11 -0.000164099 0.969975 -2.47474e-09 -2.20028e-12 -1.01464e-09 0.969991)
(1.05994 -0.00420516 -2.29021e-10 -0.000383179 0.96998 -6.99775e-11 -6.14694e-12 6.99446e-10 0.969935)
(1.05995 -0.00710147 -1.11681e-10 -0.000622849 0.970033 -1.02265e-09 -8.11596e-12 -7.01772e-10 0.969971)
(1.05997 -0.00956192 1.78669e-10 -0.000864638 0.970133 3.35121e-10 -7.12834e-12 -4.97182e-09 0.96999)
(1.05998 -0.011904 4.43285e-10 -0.00110377 0.970233 1.6293e-09 -1.8951e-11 1.89092e-09 0.970043)
(1.06001 -0.0139136 -1.80488e-10 -0.00134232 0.970392 -4.32804e-10 -3.60201e-11 9.58833e-09 0.970078)
(1.06003 -0.0156062 -7.98911e-10 -0.00157413 0.970546 -1.7815e-09 -2.73865e-11 1.39216e-09 0.970151)
(1.06006 -0.0168289 -2.93107e-10 -0.00180535 0.970763 -7.14526e-10 -4.82869e-12 -9.88835e-09 0.970204)
(1.06007 -0.0175223 5.84754e-10 -0.00202433 0.970979 9.17931e-10 -1.89898e-11 -1.66995e-09 0.970296)
(1.0601 -0.0175013 -8.06527e-11 -0.00224398 0.971259 -1.96657e-10 -6.07635e-11 9.50351e-09 0.970368)
(1.06012 -0.016805 -8.46693e-10 -0.0024459 0.971604 -1.02297e-09 -4.23073e-11 -2.03127e-09 0.970481)
(1.06013 -0.0150347 2.3349e-10 -0.00265015 0.972034 2.30632e-10 -5.00048e-13 -9.65353e-09 0.970585)
(1.06014 -0.0123836 7.63051e-10 -0.00282857 0.972649 6.84292e-10 -3.14002e-11 1.6674e-09 0.970731)
(1.06014 -0.00843107 -4.5509e-11 -0.00301226 0.973345 -6.59766e-11 -8.0351e-11 9.32056e-09 0.970894)
(1.06013 -0.00366033 -6.00245e-10 -0.00316496 0.97419 -7.52784e-10 -7.30466e-11 1.46171e-09 0.971094)
(1.06013 0.000106383 -3.00502e-10 -0.00335833 0.974636 -1.96877e-10 -2.78901e-11 -2.96625e-09 0.97132)
(1.05994 -0.00224626 -7.31073e-11 -0.000164357 0.969932 -2.47791e-09 -2.20637e-12 -1.01608e-09 0.969949)
(1.06004 -0.00420993 -2.29217e-10 -0.000383906 0.969938 -6.99704e-11 -6.16308e-12 7.00404e-10 0.969893)
(1.06004 -0.00711024 -1.11663e-10 -0.000624021 0.969991 -1.024e-09 -8.13735e-12 -7.02788e-10 0.969929)
(1.06006 -0.00957274 1.78822e-10 -0.000866252 0.970092 3.35661e-10 -7.15276e-12 -4.97879e-09 0.969948)
(1.06008 -0.0119181 4.43127e-10 -0.00110575 0.970191 1.6317e-09 -1.89998e-11 1.89352e-09 0.970001)
(1.0601 -0.0139291 -1.80683e-10 -0.00134465 0.97035 -4.3335e-10 -3.60957e-11 9.60168e-09 0.970037)
(1.06012 -0.0156244 -7.98671e-10 -0.0015766 0.970505 -1.78407e-09 -2.74492e-11 1.39407e-09 0.970109)
(1.06015 -0.0168476 -2.93979e-10 -0.00180797 0.970722 -7.15361e-10 -4.86274e-12 -9.9022e-09 0.970162)
(1.06017 -0.0175415 5.83562e-10 -0.00202704 0.970937 9.19687e-10 -1.90451e-11 -1.67232e-09 0.970254)
(1.06019 -0.0175196 -8.07689e-11 -0.00224673 0.971218 -1.96871e-10 -6.08881e-11 9.51679e-09 0.970327)
(1.06021 -0.0168231 -8.45255e-10 -0.00244852 0.971563 -1.02483e-09 -4.24162e-11 -2.03416e-09 0.970439)
(1.06023 -0.0150526 2.34315e-10 -0.00265263 0.971993 2.30849e-10 -5.32435e-13 -9.66712e-09 0.970544)
(1.06023 -0.012396 7.63445e-10 -0.0028309 0.972608 6.85408e-10 -3.14686e-11 1.66972e-09 0.97069)
(1.06023 -0.00843955 -4.54606e-11 -0.00301468 0.973305 -6.60532e-11 -8.05121e-11 9.33372e-09 0.970852)
(1.06023 -0.0036643 -6.00437e-10 -0.00316711 0.97415 -7.53731e-10 -7.32228e-11 1.46376e-09 0.971053)