/*--------------------------------*- C++ -*----------------------------------*\
  =========                 |
  \\      /  F ield         | OpenFOAM: The Open Source CFD Toolbox
   \\    /   O peration     | Website:  https://openfoam.org
    \\  /    A nd           | Version:  8
     \\/     M anipulation  |
\*---------------------------------------------------------------------------*/
FoamFile
{
    version     2.0;
    format      ascii;
    class       volVectorField;
    location    "0.0180000";
    object      cellDisplacement;
}
// * * * * * * * * * * * * * * * * * * * * * * * * * * * * * * * * * * * * * //

dimensions      [0 1 0 0 0 0 0];

internalField   nonuniform List<vector> 
600
(
(7.72946305889393e-29 -4.97157905028767e-07 -3.09540526534641e-14)
(7.66645110663016e-29 -4.99127774542748e-07 -2.90666598668141e-14)
(7.52380851971796e-29 -5.02975249043125e-07 -3.5416246801382e-15)
(7.40333598423972e-29 -5.07663666276482e-07 -3.63272436743582e-14)
(7.2679013400126e-29 -5.12871085285794e-07 4.82455999399289e-14)
(7.15492884690224e-29 -5.18670193713104e-07 1.3069193260933e-13)
(7.02777493158693e-29 -5.25034421863413e-07 7.59764214426677e-14)
(6.920289598472e-29 -5.31808100374562e-07 2.69216869461036e-14)
(6.79763761382388e-29 -5.38997274069511e-07 5.81228450073626e-14)
(6.69465665884954e-29 -5.46639051063153e-07 5.0135834378904e-14)
(6.57634107372742e-29 -5.54656659553177e-07 -9.07535900029623e-15)
(6.47604742924976e-29 -5.62973941835972e-07 -1.00893848868027e-15)
(6.36050224918171e-29 -5.7167675532856e-07 4.63444786004388e-14)
(6.26284351083524e-29 -5.80751569831201e-07 -3.3952961108641e-14)
(6.14971989205691e-29 -5.90095475841246e-07 -7.67852354606467e-14)
(6.05369876170557e-29 -5.99758316779543e-07 1.11668971020984e-14)
(5.94251065190964e-29 -6.09776496757693e-07 6.90984461106274e-15)
(5.8480009127899e-29 -6.20097664245043e-07 -6.86888948065865e-14)
(5.73844511683106e-29 -6.30704013265378e-07 -6.36781257910801e-14)
(5.64523663438037e-29 -6.41669947824488e-07 4.28263883918547e-14)
(5.5370119813056e-29 -6.52979684375848e-07 2.66003761299385e-14)
(5.44467339443901e-29 -6.64564597412632e-07 8.31146177402255e-15)
(5.33803756943823e-29 -6.76518858521961e-07 -2.85459821597192e-15)
(5.2470354203995e-29 -6.88873140434392e-07 -1.9064595137114e-14)
(5.14102438928538e-29 -7.01549078134293e-07 6.5547290375792e-14)
(5.0508174890732e-29 -7.14580807083463e-07 1.27665196227404e-13)
(4.94685578393849e-29 -7.28052863617008e-07 6.67127516995891e-14)
(4.85757068632596e-29 -7.41936731456499e-07 -1.48216097663279e-15)
(4.75424215974735e-29 -7.56176631078848e-07 -1.00491153749951e-14)
(4.66621357516742e-29 -7.70921561781442e-07 -5.65201877255012e-15)
(4.56465058973565e-29 -7.86193385883427e-07 4.0425320225475e-15)
(4.47730877243641e-29 -8.01875458620893e-07 -1.09049846356088e-15)
(4.37665450255164e-29 -8.18082264900168e-07 -3.86590545721288e-14)
(4.29065503023296e-29 -8.34908838221398e-07 -3.81448817190816e-14)
(4.19156577675684e-29 -8.5228560314569e-07 -4.33623177198699e-14)
(4.10650448531515e-29 -8.70209969080728e-07 -5.03478795434257e-14)
(4.0088175310946e-29 -8.88877303454095e-07 2.89086642109217e-15)
(3.92489688282418e-29 -9.08290774555927e-07 -6.71189689561231e-14)
(3.82867183657998e-29 -9.28316974001055e-07 -3.97547798192207e-14)
(3.74612863069038e-29 -9.49202944513905e-07 7.71134249012835e-14)
(3.65145745167144e-29 -9.71056119134818e-07 6.38165267005006e-14)
(3.56983291364002e-29 -9.93718613994426e-07 -6.02649908289684e-14)
(3.47696683876535e-29 -1.01733041863533e-06 -1.198907201888e-13)
(3.39713326422404e-29 -1.04215023672338e-06 1.23825941452937e-14)
(3.30542600835421e-29 -1.06812667366394e-06 1.26308803310811e-14)
(3.22659450171508e-29 -1.09516734222784e-06 -3.13955729713361e-14)
(3.13729114802101e-29 -1.1237427867579e-06 -3.29024785202991e-14)
(3.05997538048619e-29 -1.15395605943964e-06 1.11655970996554e-14)
(2.97174174126679e-29 -1.18551539799178e-06 2.92336059107137e-14)
(2.89600021061421e-29 -1.21890384903927e-06 3.14216908467326e-14)
(2.81018892480275e-29 -1.25446400748955e-06 4.87557332319633e-14)
(2.73534530747275e-29 -1.29197178209229e-06 -2.24474498118156e-14)
(2.65090634678024e-29 -1.33164398601972e-06 -7.83871298548329e-14)
(2.57819105184086e-29 -1.37419682668824e-06 -5.48571742717431e-14)
(2.4953256581917e-29 -1.41961306889455e-06 8.44842759156093e-14)
(2.42312599361546e-29 -1.46752793563515e-06 1.27637054215208e-13)
(2.34197120890497e-29 -1.51919988341665e-06 1.2915460593776e-13)
(2.27125063383805e-29 -1.57505434061633e-06 4.49368242993742e-14)
(2.19110812719349e-29 -1.63432990659632e-06 -4.51784116812738e-14)
(2.12122480305476e-29 -1.69806317807101e-06 -2.11517444730074e-14)
(2.04246334716604e-29 -1.76732856510625e-06 -6.63717233059311e-14)
(1.9729280920697e-29 -1.84171700975653e-06 -5.19051190945096e-14)
(1.8802339356883e-29 -1.92131262325036e-06 -7.45420910663538e-14)
(1.8090299914364e-29 -2.00819319097767e-06 -9.56727114737811e-14)
(1.73496168476121e-29 -2.10258158703595e-06 2.89810088849168e-14)
(1.66336284348055e-29 -2.20327604887127e-06 5.00071729266512e-14)
(1.59003784468964e-29 -2.31314091337303e-06 -7.59788164335321e-16)
(1.51855403706235e-29 -2.43340593276282e-06 -1.84404388564763e-14)
(1.44415444533718e-29 -2.56234659498885e-06 1.29915736034567e-14)
(1.3719450683819e-29 -2.70191747138246e-06 7.31184624395426e-14)
(1.29714983029024e-29 -2.85488907238941e-06 1.43934152179335e-14)
(1.22350161416418e-29 -3.02042406993046e-06 -1.44174893985474e-13)
(1.14743540925392e-29 -3.19807225951988e-06 -1.18553087370704e-13)
(1.07327627296988e-29 -3.39330444276908e-06 3.78277370414416e-14)
(9.96139688586904e-30 -3.60952979456208e-06 -3.88057664664904e-14)
(9.20585258120531e-30 -3.84614374992438e-06 -3.34274642486456e-14)
(8.42327460436476e-30 -4.10961481973429e-06 1.92047651292207e-16)
(7.6601626757797e-30 -4.39398549007012e-06 -2.38319862750199e-14)
(6.87502663754939e-30 -4.68391527794172e-06 1.03392651448921e-13)
(6.10828136673129e-30 -4.96949451757249e-06 8.14540154523303e-14)
(5.32221896999609e-30 -5.23306047241749e-06 -3.32272319439891e-14)
(4.57614075493233e-30 -5.46286399972201e-06 -1.46597608623666e-14)
(3.8096730488001e-30 -5.65252576834927e-06 3.52328208812519e-14)
(3.07677023808239e-30 -5.77086482681978e-06 -3.79226446114139e-14)
(2.37312228340807e-30 -5.80436583105524e-06 -6.17746321935095e-14)
(1.72864932920146e-30 -5.76526386946602e-06 -5.77919608068472e-15)
(1.28036886231335e-30 -5.6497807348774e-06 1.0044667413678e-13)
(1.16509380392125e-30 -5.47890695234508e-06 1.42443818983817e-13)
(1.04621201981089e-30 -5.28283401830617e-06 4.25442948314714e-14)
(9.31977918065316e-31 -5.06743843220109e-06 -3.63668868600487e-14)
(8.23698883107144e-31 -4.84025139074442e-06 -2.28763531201224e-14)
(7.27999771958029e-31 -4.61024390160955e-06 5.61981826880315e-14)
(6.40440893170038e-31 -4.38192155058504e-06 6.56005692703484e-14)
(5.68641201378791e-31 -4.16195662235983e-06 2.26464740686315e-14)
(5.04374948370736e-31 -3.9546707654739e-06 9.79032928027212e-15)
(4.51645588553078e-31 -3.75957361982624e-06 -5.19348991368558e-14)
(4.08833011825019e-31 -3.58382603646812e-06 -6.57716387228574e-16)
(3.74773444873338e-31 -3.43014205633697e-06 6.54441860235257e-14)
(3.46420267267156e-31 -3.29373008630416e-06 3.56666759271961e-14)
(3.2317901186265e-31 -3.17669075136085e-06 4.54933168011038e-15)
(2.14889112097221e-28 -1.25140784097069e-06 -9.04080515565617e-14)
(2.13133428475912e-28 -1.25234169523373e-06 -8.51323891209243e-14)
(2.09069849598187e-28 -1.25488019908587e-06 -1.01935427816098e-14)
(2.05436693630543e-28 -1.25809439802078e-06 -1.06726282629256e-13)
(2.01525592309006e-28 -1.26172698569073e-06 1.39969174903416e-13)
(1.98055588637805e-28 -1.2658372519556e-06 3.82272510255536e-13)
(1.94322267287224e-28 -1.27040396556726e-06 2.22929013556832e-13)
(1.90978442967734e-28 -1.27530165672645e-06 7.876831912109e-14)
(1.87353209697071e-28 -1.28053544731451e-06 1.70051915771272e-13)
(1.8411787127411e-28 -1.2861356838959e-06 1.47309430057536e-13)
(1.80598455249656e-28 -1.29204057005034e-06 -2.63578264661742e-14)
(1.77438426408729e-28 -1.29818862990522e-06 -3.36244052146075e-15)
(1.73995611389415e-28 -1.3046494194803e-06 1.3621055676706e-13)
(1.70910025480811e-28 -1.31141220096444e-06 -9.88228508418025e-14)
(1.67538185789404e-28 -1.31839400692558e-06 -2.25627504665392e-13)
(1.64509135696642e-28 -1.32563536001913e-06 3.23626475624044e-14)
(1.61198878399455e-28 -1.33316576762978e-06 2.08530991720022e-14)
(1.58223977389802e-28 -1.34094287657309e-06 -2.01282464440165e-13)
(1.54970659261094e-28 -1.34895253872765e-06 -1.87755226986657e-13)
(1.52046521804417e-28 -1.35725519934847e-06 1.25379499216695e-13)
(1.4884405060659e-28 -1.36583820769732e-06 7.83535475014826e-14)
(1.45962744239322e-28 -1.3746461051203e-06 2.45911490337728e-14)
(1.42816901154475e-28 -1.3837552661692e-06 -8.2239585631846e-15)
(1.39987318460367e-28 -1.39319069819633e-06 -5.65615889836101e-14)
(1.36879899489525e-28 -1.40288898946447e-06 1.91967165457754e-13)
(1.34092418680534e-28 -1.41287797269882e-06 3.75730660265382e-13)
(1.31050566635651e-28 -1.42322662839476e-06 1.97088686976138e-13)
(1.2830766416558e-28 -1.43391182049653e-06 -3.98045772544031e-15)
(1.25304933047625e-28 -1.44488795654038e-06 -2.95806784152179e-14)
(1.22613189896905e-28 -1.45627670937479e-06 -1.67331195948649e-14)
(1.19671501114799e-28 -1.46809608952735e-06 1.18982729254086e-14)
(1.17020597499121e-28 -1.48025078618798e-06 -2.95215581637812e-15)
(1.14123646729113e-28 -1.49283463171244e-06 -1.13808447467653e-13)
(1.11526031812975e-28 -1.50592513721406e-06 -1.12470928618459e-13)
(1.08687062324238e-28 -1.51946531561786e-06 -1.27859414174831e-13)
(1.06135567611714e-28 -1.53345323607435e-06 -1.48871864306068e-13)
(1.03351219362406e-28 -1.54804864193378e-06 8.70459278352815e-15)
(1.00849892831336e-28 -1.56325424072478e-06 -1.98026668800354e-13)
(9.81222277373216e-29 -1.57896063082671e-06 -1.18241165589154e-13)
(9.56758896365682e-29 -1.59536984434753e-06 2.27373038385516e-13)
(9.30063273303834e-29 -1.6125700604377e-06 1.89387526590281e-13)
(9.06066680997033e-29 -1.63043190510417e-06 -1.77250449656969e-13)
(8.80008544084972e-29 -1.6490695866809e-06 -3.5502335358276e-13)
(8.56645232723012e-29 -1.6686952346754e-06 3.60169722278673e-14)
(8.3110312871612e-29 -1.68926689311902e-06 3.76174454300597e-14)
(8.08228849505489e-29 -1.71070717111441e-06 -9.2718839698694e-14)
(7.83442364031486e-29 -1.7334025909715e-06 -9.76514005915351e-14)
(7.61157371880201e-29 -1.75743826747055e-06 3.27706082236877e-14)
(7.36877693961951e-29 -1.78257233924746e-06 8.65139382660583e-14)
(7.1519485750352e-29 -1.80920142066124e-06 9.30167888789865e-14)
(6.91681070616611e-29 -1.83760752842432e-06 1.44823765089281e-13)
(6.70480028789128e-29 -1.86760533279215e-06 -6.595049558597e-14)
(6.47534806229704e-29 -1.89936929447754e-06 -2.32375887513968e-13)
(6.27043967543405e-29 -1.93348957996578e-06 -1.63578450487905e-13)
(6.04715500041638e-29 -1.96995376270736e-06 2.49896049984744e-13)
(5.84638853074498e-29 -2.00845562140212e-06 3.78728196473595e-13)
(5.62943834964387e-29 -2.05002926973731e-06 3.83960599062533e-13)
(5.43461668169982e-29 -2.09502628594352e-06 1.34308748029282e-13)
(5.22282754127926e-29 -2.14281477840002e-06 -1.33958371306669e-13)
(5.03275213597572e-29 -2.19424784037709e-06 -6.27583827586078e-14)
(4.82669390344439e-29 -2.25021022839596e-06 -1.97202302540502e-13)
(4.64051200129208e-29 -2.31035989326452e-06 -1.54324535815761e-13)
(4.41002583452709e-29 -2.37475807809144e-06 -2.2155847698605e-13)
(4.22357046682396e-29 -2.44512032033644e-06 -2.85198620436289e-13)
(4.03317539141771e-29 -2.52163438939529e-06 8.56089402020139e-14)
(3.84916082509086e-29 -2.60328633553375e-06 1.49040187442002e-13)
(3.66322043473098e-29 -2.69244142805028e-06 -1.95293169104194e-15)
(3.48258476917154e-29 -2.79012398491189e-06 -5.50027032786951e-14)
(3.29783824051122e-29 -2.89488953051156e-06 3.83005533273777e-14)
(3.11885264304305e-29 -3.00834557540265e-06 2.17964050717415e-13)
(2.93635681209264e-29 -3.13277923393413e-06 4.39044675031911e-14)
(2.75786489987616e-29 -3.26749820036555e-06 -4.29412862129326e-13)
(2.57592071638168e-29 -3.41211229784679e-06 -3.54524974134028e-13)
(2.39937087754673e-29 -3.57110602716421e-06 1.12538971450997e-13)
(2.21848866817398e-29 -3.74728967542138e-06 -1.15525846135346e-13)
(2.04229590783183e-29 -3.94014430358539e-06 -1.00000871151648e-13)
(1.86226445294869e-29 -4.15494103045935e-06 5.2798102369747e-16)
(1.68757038001549e-29 -4.38689751274124e-06 -7.16351449531225e-14)
(1.50989059658049e-29 -4.62340784240923e-06 3.08296865091502e-13)
(1.33774388737595e-29 -4.85637841363772e-06 2.43795369899214e-13)
(1.16319748391728e-29 -5.07145629890285e-06 -9.87758934245975e-14)
(9.96823863123067e-30 -5.25898655895861e-06 -4.4033065596891e-14)
(8.30172848673714e-30 -5.41352614164154e-06 1.05146676182715e-13)
(6.71024627412479e-30 -5.51004142123632e-06 -1.12661240161196e-13)
(5.17434888792323e-30 -5.53756703911585e-06 -1.8420753725851e-13)
(3.82084852767799e-30 -5.50567311561623e-06 -1.77537647451151e-14)
(2.86089292217965e-30 -5.41188522845392e-06 2.99193028467998e-13)
(2.62854163478928e-30 -5.27302031553994e-06 4.25473480937955e-13)
(2.37863525125208e-30 -5.11309906626342e-06 1.27435475300903e-13)
(2.14047524151926e-30 -4.93732659810148e-06 -1.0858081085142e-13)
(1.91189625229111e-30 -4.75189698748314e-06 -6.8543232087547e-14)
(1.70483496273312e-30 -4.56406611623049e-06 1.67988126699894e-13)
(1.52118707462746e-30 -4.37753309509418e-06 1.96361569195612e-13)
(1.36483298428728e-30 -4.19781557666735e-06 6.78581363847011e-14)
(1.22506542406413e-30 -4.02840262268367e-06 2.93742630903111e-14)
(1.11301378297987e-30 -3.86885799877381e-06 -1.55571616005423e-13)
(1.01996916223166e-30 -3.72518504097383e-06 -2.04110944692489e-15)
(9.45262644798023e-31 -3.59956115456595e-06 1.96054197020051e-13)
(8.84463885028741e-31 -3.48800119752285e-06 1.06877902920573e-13)
(8.34652643901039e-31 -3.39077878612049e-06 1.3623551540832e-14)
(3.28156356563772e-28 -1.98105476735556e-06 -1.47965468594088e-13)
(3.25517827087596e-28 -1.98127207233712e-06 -1.40053557954534e-13)
(3.19266453837648e-28 -1.9828012548954e-06 -1.61741434932848e-14)
(3.13538780322953e-28 -1.9848495815499e-06 -1.764803677277e-13)
(3.0747570888358e-28 -1.98721931467112e-06 2.25688820321786e-13)
(3.01956195809829e-28 -1.98995505805717e-06 6.26233915685328e-13)
(2.96119156048839e-28 -1.99304086124208e-06 3.67291690534539e-13)
(2.907667678481e-28 -1.99638114404991e-06 1.29008276306594e-13)
(2.85076978399772e-28 -1.99997960372501e-06 2.78399918329766e-13)
(2.7987254566219e-28 -2.00385948126921e-06 2.43056188466654e-13)
(2.74329345796206e-28 -2.00797380244118e-06 -4.25124030389733e-14)
(2.69236378687466e-28 -2.01227565854879e-06 -6.795838764185e-15)
(2.63805940975235e-28 -2.0168180859726e-06 2.24619476396609e-13)
(2.58823724238036e-28 -2.02159308633223e-06 -1.59894969564931e-13)
(2.53501704484382e-28 -2.02653739392378e-06 -3.71627748429754e-13)
(2.48610991355994e-28 -2.03168193096251e-06 5.19102718563939e-14)
(2.43385684746408e-28 -2.03704943653063e-06 3.60118713505251e-14)
(2.38583905508516e-28 -2.04260766638682e-06 -3.29461421969381e-13)
(2.33452227046073e-28 -2.04834583159383e-06 -3.10750531737119e-13)
(2.28736349549593e-28 -2.05431025906142e-06 2.04751808321569e-13)
(2.23690221239574e-28 -2.06049148980617e-06 1.29336516685459e-13)
(2.19051595735346e-28 -2.06684721821371e-06 4.09030176255672e-14)
(2.14099625107527e-28 -2.0734359395813e-06 -1.30072546326465e-14)
(2.09548687135277e-28 -2.08027703628415e-06 -9.44938268389114e-14)
(2.04669479292378e-28 -2.08732211183397e-06 3.13166124458006e-13)
(2.00196093256535e-28 -2.094592525191e-06 6.18230977067725e-13)
(1.9542185668993e-28 -2.1021413579731e-06 3.26357274466468e-13)
(1.91029127605426e-28 -2.10995115972612e-06 -5.44639060775066e-15)
(1.86329433305636e-28 -2.11798706787867e-06 -4.86379877030868e-14)
(1.82025346770935e-28 -2.12634248053341e-06 -2.77825463093819e-14)
(1.77426768486133e-28 -2.1350316275177e-06 1.95492976175739e-14)
(1.73200245922076e-28 -2.14398156290464e-06 -4.10232923300637e-15)
(1.68683475826391e-28 -2.15326433940946e-06 -1.86939109082999e-13)
(1.64548978372755e-28 -2.16293987772033e-06 -1.85171054154815e-13)
(1.60130996798521e-28 -2.17296471854207e-06 -2.1045548190503e-13)
(1.56081058807754e-28 -2.18333747154202e-06 -2.46153254089526e-13)
(1.51757219808974e-28 -2.19418115998471e-06 1.48614774073269e-14)
(1.47796902454593e-28 -2.20549840863103e-06 -3.26021812698811e-13)
(1.43571460438804e-28 -2.21720535183192e-06 -1.97224599295452e-13)
(1.39706862377023e-28 -2.22945743802488e-06 3.73744468761304e-13)
(1.35580651329909e-28 -2.24232314392393e-06 3.1452992690911e-13)
(1.31802839358296e-28 -2.25570339848359e-06 -2.89995466829944e-13)
(1.27784142508964e-28 -2.26968620081805e-06 -5.87179705054286e-13)
(1.24112583337084e-28 -2.28443541530642e-06 5.78687976510554e-14)
(1.20187157249491e-28 -2.29991951592686e-06 6.27470649686151e-14)
(1.16606088093792e-28 -2.31607913317329e-06 -1.52563967637434e-13)
(1.12802652239898e-28 -2.33321235054596e-06 -1.61891147693962e-13)
(1.09324074585648e-28 -2.35138600532217e-06 5.337716793835e-14)
(1.05614140055359e-28 -2.37041424058248e-06 1.42709448372773e-13)
(1.02240007210617e-28 -2.39060289346054e-06 1.53457558467411e-13)
(9.86544264173404e-29 -2.41217077083002e-06 2.40139673592466e-13)
(9.537185940566e-29 -2.43497609950933e-06 -1.07526072690753e-13)
(9.18879428770248e-29 -2.45915361748744e-06 -3.83953270063208e-13)
(8.87230914858347e-29 -2.48515968682148e-06 -2.72553733857265e-13)
(8.53479826745797e-29 -2.51298680099744e-06 4.11400951066411e-13)
(8.22681294873182e-29 -2.54239924520763e-06 6.26187391150993e-13)
(7.90028522812582e-29 -2.57419588779982e-06 6.36430736008784e-13)
(7.60286706339702e-29 -2.60865099013955e-06 2.24230309832848e-13)
(7.2861726150109e-29 -2.64527780816912e-06 -2.21157103875875e-13)
(6.99802041137014e-29 -2.68473577935986e-06 -1.03657824510426e-13)
(6.69168807361927e-29 -2.72771163379335e-06 -3.26348935671098e-13)
(6.41187550539912e-29 -2.77394361295506e-06 -2.55558971194138e-13)
(6.07871835101418e-29 -2.82347908683594e-06 -3.66682970910023e-13)
(5.80193879597501e-29 -2.8776466442293e-06 -4.73755307637573e-13)
(5.52223380273899e-29 -2.93659690787005e-06 1.40537292308308e-13)
(5.25222418997726e-29 -2.99954607156076e-06 2.47414600380776e-13)
(4.98151126049881e-29 -3.06832427495819e-06 -2.60850970562036e-15)
(4.71929532396459e-29 -3.14373130002766e-06 -9.13660575364761e-14)
(4.45393413951755e-29 -3.22465192888038e-06 6.27018813980449e-14)
(4.19753900008524e-29 -3.3123296130103e-06 3.61679224578478e-13)
(3.93861645998742e-29 -3.40854074058438e-06 7.47769343747137e-14)
(3.68671297654098e-29 -3.51275523686845e-06 -7.11660255876452e-13)
(3.43235719089374e-29 -3.62466953234174e-06 -5.90163281013972e-13)
(3.18649660398551e-29 -3.74775824331902e-06 1.86252305775616e-13)
(2.93721874695801e-29 -3.88420770911627e-06 -1.91309573168059e-13)
(2.69564779675344e-29 -4.03361784547882e-06 -1.66451497737969e-13)
(2.4511575238325e-29 -4.20008147391744e-06 8.0693810084851e-16)
(2.21511791401226e-29 -4.37991204197917e-06 -1.19799988309682e-13)
(1.97711985361279e-29 -4.56333951158056e-06 5.11357051396049e-13)
(1.74776127054739e-29 -4.74408580923626e-06 4.05861904191737e-13)
(1.5172192773158e-29 -4.91101673523458e-06 -1.63339452178964e-13)
(1.29845315644525e-29 -5.05662750368862e-06 -7.35504876453012e-14)
(1.08050075105186e-29 -5.17669554678641e-06 1.7455173880036e-13)
(8.7405688420167e-30 -5.25179337912775e-06 -1.86190092218289e-13)
(6.75718626800612e-30 -5.27337069297439e-06 -3.05573380596883e-13)
(4.99800062460452e-30 -5.24882777941888e-06 -3.01981120198055e-14)
(3.76476973480266e-30 -5.1762240787095e-06 4.95632735376893e-13)
(3.47862983206731e-30 -5.06847546190084e-06 7.06735189764423e-13)
(3.17130299916035e-30 -4.94434644662763e-06 2.12184595083234e-13)
(2.87549347199325e-30 -4.8078863288352e-06 -1.80274715189048e-13)
(2.58981462489641e-30 -4.66390428076017e-06 -1.14168152330791e-13)
(2.33182257002812e-30 -4.51803466686038e-06 2.79200191651212e-13)
(2.09947479928734e-30 -4.37315247962787e-06 3.26753536702939e-13)
(1.90208785220425e-30 -4.23354597215016e-06 1.13011828118132e-13)
(1.72601654297348e-30 -4.10192988999778e-06 4.89813814206525e-14)
(1.5830425827594e-30 -3.97796935391097e-06 -2.59018529465343e-13)
(1.46420701685921e-30 -3.86633015271148e-06 -3.47864311047359e-15)
(1.36911092428285e-30 -3.76870825653647e-06 3.26446425564659e-13)
(1.29119135967887e-30 -3.68201739389523e-06 1.78011466946886e-13)
(1.23153716181018e-30 -3.60651955914564e-06 2.28539404176409e-14)
(3.70724910543796e-28 -2.68758762649434e-06 -2.03758729295207e-13)
(3.67707052334672e-28 -2.68739180151827e-06 -1.94357743157596e-13)
(3.60676840853304e-28 -2.68818280896402e-06 -2.11957704353401e-14)
(3.54092607865598e-28 -2.68934153214385e-06 -2.46634635414186e-13)
(3.4724322317658e-28 -2.69072690643438e-06 3.03609561656786e-13)
(3.40859381297817e-28 -2.69236958287937e-06 8.63037953400954e-13)
(3.34224786795853e-28 -2.69425878033142e-06 5.10482654773167e-13)
(3.28006662557172e-28 -2.69632753814258e-06 1.77727364355213e-13)
(3.21521194785219e-28 -2.69857812836958e-06 3.83177952934092e-13)
(3.15453170518712e-28 -2.70102697246861e-06 3.3839733407674e-13)
(3.09116303856554e-28 -2.70364137942884e-06 -5.71529996616919e-14)
(3.03167885347709e-28 -2.70638833612098e-06 -1.20221195707152e-14)
(2.96951920776122e-28 -2.70930496131774e-06 3.12333249960988e-13)
(2.91122931872935e-28 -2.71238588842745e-06 -2.16033307692545e-13)
(2.85024246728962e-28 -2.71558672138182e-06 -5.15738739911135e-13)
(2.79299127179075e-28 -2.71892909599946e-06 6.91625480112262e-14)
(2.73308762034746e-28 -2.72242920311139e-06 5.33452444894183e-14)
(2.67685579057098e-28 -2.72606448626588e-06 -4.5282319352478e-13)
(2.6180117180746e-28 -2.72982727230487e-06 -4.34110725310373e-13)
(2.56278243569979e-28 -2.73375020382432e-06 2.80399665805151e-13)
(2.50493791444058e-28 -2.73782687575045e-06 1.79923550420216e-13)
(2.45064077958674e-28 -2.74202756804208e-06 5.75284670914777e-14)
(2.39387253235984e-28 -2.74639341228006e-06 -1.69190018448016e-14)
(2.34060377355962e-28 -2.75093828850363e-06 -1.33682663363144e-13)
(2.2847397549115e-28 -2.75562822654269e-06 4.27976364826627e-13)
(2.23241993195638e-28 -2.760478187755e-06 8.55578942656963e-13)
(2.17773628186844e-28 -2.76552576525874e-06 4.55781332183312e-13)
(2.12639725961499e-28 -2.77075897577316e-06 -5.29916415427418e-15)
(2.07264543825053e-28 -2.77615317199476e-06 -6.72102209895929e-14)
(2.02236345711121e-28 -2.78177417661281e-06 -3.89356765909142e-14)
(1.96977473339271e-28 -2.78763249037721e-06 2.69758902498135e-14)
(1.92046136058197e-28 -2.79367672536254e-06 -4.15493273416413e-15)
(1.86887919209164e-28 -2.79995760221082e-06 -2.57866518177189e-13)
(1.82066544044925e-28 -2.80651782206606e-06 -2.56256747664516e-13)
(1.77024087479034e-28 -2.81332695477921e-06 -2.91108142216985e-13)
(1.72306979744224e-28 -2.82038389551356e-06 -3.42696560030388e-13)
(1.67377296421834e-28 -2.82777571795223e-06 2.16320941602593e-14)
(1.62769546530928e-28 -2.83550485031951e-06 -4.50971135211948e-13)
(1.57956699271675e-28 -2.84351206948183e-06 -2.77873898187291e-13)
(1.53464398756577e-28 -2.85190713002696e-06 5.15698080829801e-13)
(1.48770185324273e-28 -2.86073907795931e-06 4.40346202730615e-13)
(1.44386235292127e-28 -2.86993819414837e-06 -3.9736380114315e-13)
(1.39818220849523e-28 -2.87956655758617e-06 -8.17122221788349e-13)
(1.35560396955112e-28 -2.88974054793699e-06 7.72015656218555e-14)
(1.31107552279042e-28 -2.90043860102357e-06 8.83308444110904e-14)
(1.26962837645841e-28 -2.91161856593084e-06 -2.10704501384438e-13)
(1.22650297629811e-28 -2.92349152409493e-06 -2.25935449327473e-13)
(1.18630064639229e-28 -2.9361060761113e-06 7.26451875812679e-14)
(1.14434448902058e-28 -2.94933080960729e-06 1.97735385701775e-13)
(1.10541047297371e-28 -2.96338205219255e-06 2.12638773064802e-13)
(1.06489511192398e-28 -2.97841607316662e-06 3.35081410889658e-13)
(1.02712735281015e-28 -2.99433335006106e-06 -1.46515600797874e-13)
(9.87866978767169e-29 -3.01122898531833e-06 -5.33022364751047e-13)
(9.51499431471414e-29 -3.02942715577167e-06 -3.82692940911112e-13)
(9.13563752496893e-29 -3.04892453921698e-06 5.68190677362727e-13)
(8.78320749228952e-29 -3.06955402446539e-06 8.69868740515362e-13)
(8.41725398775985e-29 -3.09188216844752e-06 8.87037714420874e-13)
(8.07794196181389e-29 -3.11610608942726e-06 3.1551366886917e-13)
(7.7244715692532e-29 -3.14188111446247e-06 -3.06544139751386e-13)
(7.39721528067371e-29 -3.16967497455363e-06 -1.43738064366959e-13)
(7.05677766409978e-29 -3.19997782605961e-06 -4.53731458948202e-13)
(6.74085421274929e-29 -3.23260588148496e-06 -3.55581391739606e-13)
(6.38206771515736e-29 -3.26759186527822e-06 -5.09760499302212e-13)
(6.07305507616124e-29 -3.30588092205675e-06 -6.61774298355249e-13)
(5.76373457655876e-29 -3.34758498070311e-06 1.93283659324513e-13)
(5.46477691209729e-29 -3.39214655987404e-06 3.45242638318385e-13)
(5.16743936387193e-29 -3.4408656530329e-06 -2.51125984592636e-15)
(4.87947960900088e-29 -3.49431714540708e-06 -1.27577417664115e-13)
(4.59103103053831e-29 -3.55170993402743e-06 8.59220491730905e-14)
(4.31234934892245e-29 -3.6139263725053e-06 5.04258114342825e-13)
(4.03371557943944e-29 -3.6822343151576e-06 1.07597005103349e-13)
(3.76318575322091e-29 -3.75626161689781e-06 -9.90578300820121e-13)
(3.49276059076207e-29 -3.83579015403489e-06 -8.25855199793103e-13)
(3.23170831055007e-29 -3.92329181290684e-06 2.58786385549488e-13)
(2.96994815473991e-29 -4.02032964333737e-06 -2.65994977590315e-13)
(2.71686667127499e-29 -4.12661982799528e-06 -2.32818650547375e-13)
(2.46347954252345e-29 -4.24508143844698e-06 1.01686897176619e-15)
(2.21942468484624e-29 -4.37310733980912e-06 -1.68517939836651e-13)
(1.97590297849883e-29 -4.50374403251042e-06 7.12499041968379e-13)
(1.74187448237305e-29 -4.63251984026229e-06 5.68071261616834e-13)
(1.50906872020509e-29 -4.75150331934146e-06 -2.26898471957779e-13)
(1.28855687887991e-29 -4.85533725853948e-06 -1.03379389334688e-13)
(1.07091957853745e-29 -4.94101740335439e-06 2.43774171888128e-13)
(8.65506160576127e-30 -4.99469617947474e-06 -2.58815850571813e-13)
(6.69541028247891e-30 -5.01024428887301e-06 -4.26610065338869e-13)
(4.96055875720605e-30 -4.99291478378302e-06 -4.3378034424051e-14)
(3.79400701341764e-30 -4.9412868996696e-06 6.91036596357697e-13)
(3.52397614506278e-30 -4.86450542485815e-06 9.87257206130882e-13)
(3.2345592010006e-30 -4.77603039236663e-06 2.9707066525316e-13)
(2.95356618629871e-30 -4.67874964833162e-06 -2.51637133480447e-13)
(2.68157932635162e-30 -4.57609009751577e-06 -1.59838786236819e-13)
(2.43498402776502e-30 -4.47206937934495e-06 3.89987070450219e-13)
(2.2117120999731e-30 -4.36873870480671e-06 4.56876152299421e-13)
(2.02110797527536e-30 -4.26915795751259e-06 1.5812752501182e-13)
(1.85138057118522e-30 -4.17526649784652e-06 6.86233017218295e-14)
(1.71221558371365e-30 -4.08682766391193e-06 -3.62239093553452e-13)
(1.59652404722432e-30 -4.00717199750021e-06 -4.98984605132605e-15)
(1.50365124855368e-30 -3.93751273572803e-06 4.56565999802372e-13)
(1.42746383020995e-30 -3.87564899986579e-06 2.49019714085107e-13)
(1.37086989108687e-30 -3.82180169899437e-06 3.2063230236426e-14)
(3.26651161171183e-28 -3.37239466919431e-06 -2.57895374996567e-13)
(3.23856311267353e-28 -3.37207367366923e-06 -2.4856204160702e-13)
(3.17717710004172e-28 -3.37237021073637e-06 -2.49580741655116e-14)
(3.11869220470778e-28 -3.37288654015945e-06 -3.18104638914412e-13)
(3.05868374175006e-28 -3.37353702934097e-06 3.71963574298266e-13)
(3.00171106302296e-28 -3.37433922250253e-06 1.09301079472612e-12)
(2.94330034763596e-28 -3.37528715686184e-06 6.53865859959375e-13)
(2.88761066552615e-28 -3.37634140258961e-06 2.25047938578264e-13)
(2.8303756344411e-28 -3.37750299353166e-06 4.84358353745318e-13)
(2.77587106383456e-28 -3.37878171575789e-06 4.34295429882959e-13)
(2.71980538132587e-28 -3.38015854399306e-06 -6.98540527382864e-14)
(2.66628753454751e-28 -3.38161388614121e-06 -1.97414257312808e-14)
(2.61122035220863e-28 -3.38316953251776e-06 4.0002115546674e-13)
(2.55869255612342e-28 -3.38482253568091e-06 -2.66091681672293e-13)
(2.50459720002731e-28 -3.38654668726807e-06 -6.58820104932797e-13)
(2.45296319914979e-28 -3.38835467036196e-06 8.34382133644709e-14)
(2.39979320765144e-28 -3.39025622708642e-06 7.37445920541969e-14)
(2.34904314995042e-28 -3.39223810755596e-06 -5.70905832550725e-13)
(2.29678196807426e-28 -3.39429565506044e-06 -5.59198962823554e-13)
(2.24691314090968e-28 -3.39644819929329e-06 3.5174870312944e-13)
(2.19553293468488e-28 -3.39869216455944e-06 2.30452440331618e-13)
(2.14650194564923e-28 -3.40100997320279e-06 7.47396262513156e-14)
(2.09605384376132e-28 -3.40342589581341e-06 -1.96516630307892e-14)
(2.04793232939245e-28 -3.40594833277714e-06 -1.74878180741833e-13)
(1.9983149440057e-28 -3.40855723972804e-06 5.35237491324814e-13)
(1.95105643904276e-28 -3.41126135433732e-06 1.08810800683146e-12)
(1.90245285031471e-28 -3.41408307996256e-06 5.86575057074575e-13)
(1.85608445882636e-28 -3.41701558502889e-06 -2.94730033421086e-15)
(1.80834236778864e-28 -3.42004413627678e-06 -8.5269734556311e-14)
(1.76292293259466e-28 -3.42320766376107e-06 -5.03229070923103e-14)
(1.7161985439077e-28 -3.42651278579673e-06 3.4145466457548e-14)
(1.6716752947787e-28 -3.42992904075128e-06 -2.74120779269245e-15)
(1.62587523198183e-28 -3.43348634194996e-06 -3.26403275211147e-13)
(1.58234337541224e-28 -3.43721034460962e-06 -3.25736702004857e-13)
(1.53757175581581e-28 -3.4410831733703e-06 -3.69764515143179e-13)
(1.4950000385298e-28 -3.44510397819094e-06 -4.38998272843784e-13)
(1.45124955161029e-28 -3.44932454254663e-06 2.92653461330578e-14)
(1.40967997018e-28 -3.45374678088272e-06 -5.72712420584903e-13)
(1.36697941562122e-28 -3.45833547103954e-06 -3.61311759134676e-13)
(1.32646135155524e-28 -3.46315561606808e-06 6.52670957228081e-13)
(1.28483646398894e-28 -3.46823685163607e-06 5.67875060317679e-13)
(1.24532831766006e-28 -3.47353796578607e-06 -4.98211082580231e-13)