/*--------------------------------*- C++ -*----------------------------------*\
| =========                 |                                                 |
| \\      /  F ield         | OpenFOAM: The Open Source CFD Toolbox           |
|  \\    /   O peration     | Version:  4.1                                   |
|   \\  /    A nd           | Web:      www.OpenFOAM.org                      |
|    \\/     M anipulation  |                                                 |
\*---------------------------------------------------------------------------*/
FoamFile
{
    version     2.0;
    format      ascii;
    class       volScalarField;
    location    "0.00012";
    object      epsilon;
}
// * * * * * * * * * * * * * * * * * * * * * * * * * * * * * * * * * * * * * //

dimensions      [0 2 -3 0 0 0 0];

internalField   nonuniform List<scalar> 
6144
(
14.548
14.5478
14.5478
14.5478
14.5479
14.5479
14.5479
14.548
14.5479
14.5479
14.5479
14.5478
14.5478
14.5477
14.5477
14.5477
14.5477
14.5477
14.5477
14.5477
14.5477
14.5477
14.5477
14.5477
14.5477
14.5477
14.5477
14.5477
14.5477
14.5478
14.5479
14.548
14.5483
14.5489
14.55
14.5522
14.5567
14.5667
14.5901
14.6561
15.04
20.8895
139.685
2384.04
30764.3
170454
470576
994015
14.7204
14.7204
14.7204
14.7204
14.7204
14.7204
14.7204
14.7204
14.7204
14.7204
14.7204
14.7204
14.7204
14.7204
14.7204
14.7204
14.7204
14.7204
14.7204
14.7204
14.7204
14.7204
14.7204
14.7204
14.7204
14.7204
14.7204
14.7204
14.7204
14.7204
14.7205
14.7206
14.7209
14.7213
14.7222
14.724
14.7279
14.7365
14.7566
14.8115
15.0991
19.2397
103.669
1761.56
23945.1
142168
403596
822602
14.8055
14.8055
14.8055
14.8055
14.8055
14.8055
14.8055
14.8055
14.8055
14.8055
14.8055
14.8055
14.8055
14.8055
14.8055
14.8055
14.8055
14.8055
14.8055
14.8055
14.8055
14.8055
14.8055
14.8055
14.8055
14.8055
14.8055
14.8055
14.8055
14.8055
14.8056
14.8057
14.8059
14.8062
14.807
14.8086
14.8121
14.8198
14.8378
14.8839
15.0774
17.3884
62.6652
973.481
14583.1
103378
316818
622842
14.8324
14.8324
14.8324
14.8324
14.8324
14.8324
14.8324
14.8324
14.8324
14.8324
14.8324
14.8324
14.8324
14.8324
14.8324
14.8324
14.8324
14.8324
14.8324
14.8324
14.8324
14.8324
14.8324
14.8324
14.8324
14.8324
14.8324
14.8324
14.8324
14.8324
14.8324
14.8325
14.8327
14.833
14.8337
14.8352
14.8384
14.8455
14.8615
14.9002
15.0254
16.078
34.655
409.566
6742.16
62524
225492
436519
14.8324
14.8324
14.8324
14.8324
14.8324
14.8324
14.8324
14.8324
14.8324
14.8324
14.8324
14.8324
14.8324
14.8324
14.8324
14.8324
14.8324
14.8324
14.8324
14.8324
14.8324
14.8324
14.8324
14.8324
14.8324
14.8324
14.8324
14.8324
14.8324
14.8324
14.8324
14.8325
14.8327
14.833
14.8337
14.8351
14.8381
14.8446
14.859
14.892
14.9782
15.412
21.3306
134.777
2240.25
27859.3
139997
282872
14.8055
14.8055
14.8055
14.8055
14.8055
14.8055
14.8055
14.8055
14.8055
14.8055
14.8055
14.8055
14.8055
14.8055
14.8055
14.8055
14.8055
14.8055
14.8055
14.8055
14.8055
14.8055
14.8055
14.8055
14.8055
14.8055
14.8055
14.8055
14.8055
14.8055
14.8056
14.8057
14.8058
14.8062
14.8068
14.8082
14.8111
14.8172
14.8303
14.859
14.9248
15.1267
16.6969
41.7133
507.251
7858.36
65807.5
160309
14.7204
14.7204
14.7204
14.7204
14.7204
14.7204
14.7204
14.7204
14.7204
14.7204
14.7204
14.7204
14.7204
14.7204
14.7204
14.7204
14.7204
14.7204
14.7204
14.7204
14.7204
14.7204
14.7204
14.7204
14.7204
14.7204
14.7204
14.7204
14.7204
14.7205
14.7206
14.7208
14.7211
14.7216
14.7225
14.7243
14.7276
14.7342
14.7474
14.7745
14.8313
14.9604
15.4183
19.628
83.0005
1167.76
15919.4
65460.1
14.548
14.5478
14.5478
14.5478
14.5478
14.5478
14.5478
14.5478
14.5478
14.5478
14.5478
14.5478
14.5477
14.5477
14.5477
14.5477
14.5477
14.5477
14.5477
14.5477
14.5477
14.5477
14.5477
14.5477
14.5477
14.5478
14.5479
14.5482
14.5485
14.549
14.5497
14.5508
14.5525
14.555
14.5589
14.5647
14.5739
14.5885
14.6124
14.6521
14.7202
14.8408
15.0826
15.9187
22.7928
107.193
1366.87
11416.3
14.7204
14.7204
14.7204
14.7204
14.7204
14.7205
14.7205
14.7205
14.7205
14.7205
14.7204
14.7204
14.7204
14.7204
14.7204
14.7204
14.7204
14.7204
14.7204
14.7204
14.7204
14.7204
14.7204
14.7204
14.7204
14.7204
14.7204
14.7204
14.7204
14.7204
14.7204
14.7205
14.7207
14.7211
14.7219
14.7236
14.7273
14.7359
14.7565
14.8107
15.0301
17.4129
62.7102
990.682
15636.1
113672
341740
666621
14.7505
14.7507
14.7507
14.7507
14.7507
14.7507
14.7507
14.7507
14.7507
14.7507
14.7507
14.7507
14.7507
14.7507
14.7507
14.7507
14.7507
14.7507
14.7507
14.7507
14.7507
14.7507
14.7507
14.7507
14.7507
14.7507
14.7507
14.7507
14.7507
14.7507
14.7507
14.7508
14.7509
14.7512
14.7519
14.7534
14.7568
14.7646
14.7832
14.8307
15.0093
16.834
51.4062
766.203
12301.9
94562.8
294359
565665
14.7664
14.7665
14.7665
14.7665
14.7665
14.7665
14.7665
14.7665
14.7665
14.7665
14.7665
14.7665
14.7665
14.7665
14.7665
14.7665
14.7665
14.7665
14.7665
14.7665
14.7665
14.7665
14.7665
14.7665
14.7665
14.7665
14.7665
14.7665
14.7665
14.7665
14.7665
14.7666
14.7667
14.767
14.7677
14.7691
14.7723
14.7797
14.7969
14.8391
14.9736
16.0471
34.8183
421.297
7146.86
65606.5
227959
435302
14.7708
14.7709
14.7709
14.771
14.771
14.771
14.771
14.771
14.771
14.771
14.771
14.771
14.771
14.771
14.771
14.771
14.771
14.7709
14.7709
14.7709
14.7709
14.7709
14.7709
14.7709
14.7709
14.7709
14.7709
14.771
14.771
14.771
14.771
14.7711
14.7712
14.7715
14.7721
14.7735
14.7766
14.7835
14.7992
14.8361
14.9356
15.4707
23.1694
175.837
3049.5
35803.1
156794
306280
14.7708
14.7709
14.7709
14.771
14.771
14.771
14.771
14.771
14.771
14.771
14.771
14.771
14.771
14.771
14.771
14.771
14.771
14.7709
14.7709
14.7709
14.7709
14.7709
14.7709
14.7709
14.7709
14.7709
14.7709
14.771
14.771
14.771
14.771
14.7711
14.7712
14.7715
14.7721
14.7735
14.7764
14.7829
14.7972
14.8295
14.9061
15.1692
17.6477
61.0807
904.898
13496.7
89389.3
193258
14.7664
14.7665
14.7665
14.7665
14.7665
14.7665
14.7665
14.7665
14.7665
14.7665
14.7665
14.7665
14.7665
14.7665
14.7665
14.7665
14.7665
14.7665
14.7665
14.7665
14.7665
14.7665
14.7665
14.7665
14.7665
14.7665
14.7665
14.7665
14.7665
14.7665
14.7666
14.7666
14.7668
14.7671
14.7677
14.7691
14.7719
14.7781
14.7913
14.8198
14.8823
15.0369
15.7621
24.6208
179.962
2955.79
33345.9
100153
14.7505
14.7507
14.7507
14.7507
14.7507
14.7507
14.7507
14.7507
14.7507
14.7507
14.7507
14.7507
14.7507
14.7507
14.7507
14.7507
14.7507
14.7507
14.7507
14.7507
14.7507
14.7507
14.7507
14.7507
14.7507
14.7507
14.7507
14.7507
14.7507
14.7507
14.7508
14.7509
14.7512
14.7516
14.7524
14.754
14.7571
14.7635
14.7766
14.8034
14.8581
14.9731
15.2646
16.8264
34.9486
320.454
4910.34
30825.6
14.7204
14.7204
14.7204
14.7204
14.7204
14.7204
14.7204
14.7204
14.7204
14.7204
14.7204
14.7204
14.7204
14.7204
14.7204
14.7204
14.7204
14.7204
14.7204
14.7204
14.7204
14.7204
14.7204
14.7204
14.7204
14.7204
14.7205
14.7206
14.7208
14.7211
14.7216
14.7223
14.7234
14.725
14.7275
14.7316
14.7382
14.7493
14.7683
14.8013
14.8591
14.9614
15.1482
15.5814
17.6877
36.9206
269.752
2822.04
14.8055
14.8055
14.8055
14.8055
14.8055
14.8055
14.8055
14.8056
14.8056
14.8055
14.8055
14.8055
14.8055
14.8055
14.8055
14.8055
14.8055
14.8055
14.8055
14.8055
14.8055
14.8055
14.8055
14.8055
14.8055
14.8055
14.8055
14.8055
14.8055
14.8055
14.8055
14.8056
14.8057
14.806
14.8067
14.8082
14.8117
14.8197
14.839
14.8875
15.0342
15.9276
29.0089
295.466
5507.73
59448
220677
421487
14.7664
14.7665
14.7665
14.7665
14.7665
14.7665
14.7665
14.7665
14.7665
14.7665
14.7665
14.7665
14.7665
14.7665
14.7665
14.7665
14.7665
14.7665
14.7665
14.7665
14.7665
14.7665
14.7665
14.7665
14.7665
14.7665
14.7665
14.7665
14.7665
14.7665
14.7665
14.7666
14.7667
14.767
14.7676
14.769
14.7723
14.7798
14.7974
14.8403
14.9641
15.6857
26.348
244.138
4443.47
48880.6
189011
361200
14.765
14.7651
14.7651
14.7651
14.7651
14.7651
14.7651
14.7651
14.7651
14.7651
14.7651
14.7651
14.7651
14.7651
14.7651
14.7651
14.7651
14.7651
14.7651
14.7651
14.7651
14.7651
14.7651
14.7651
14.7651
14.7651
14.7651
14.7651
14.7651
14.7651
14.7651
14.7652
14.7653
14.7656
14.7662
14.7676
14.7708
14.7779
14.7942
14.8329
14.9348
15.4084
21.4521
140.027
2481.62
31526.9
142645
278604
14.7653
14.7654
14.7654
14.7654
14.7654
14.7654
14.7654
14.7654
14.7654
14.7654
14.7654
14.7654
14.7654
14.7654
14.7654
14.7654
14.7654
14.7654
14.7654
14.7654
14.7654
14.7654
14.7654
14.7654
14.7654
14.7654
14.7654
14.7654
14.7654
14.7654
14.7655
14.7655
14.7656
14.7659
14.7666
14.7679
14.771
14.7777
14.7927
14.827
14.9096
15.1919
17.7885
63.7649
981.743
14858
91828.6
192741
14.7653
14.7654
14.7654
14.7654
14.7654
14.7654
14.7654
14.7654
14.7654
14.7654
14.7654
14.7654
14.7654
14.7654
14.7654
14.7654
14.7654
14.7654
14.7654
14.7654
14.7654
14.7654
14.7654
14.7654
14.7654
14.7654
14.7654
14.7654
14.7654
14.7654
14.7655
14.7655
14.7657
14.766
14.7666
14.7679
14.7709
14.7772
14.791
14.8213
14.8892
15.0657
15.9956
28.5838
264.123
4488.32
44026.7
114383
14.765
14.7651
14.7651
14.7651
14.7651
14.7651
14.7651
14.7651
14.7651
14.7651
14.7651
14.7651
14.7651
14.7651
14.7651
14.7651
14.7651
14.7651
14.7651
14.7651
14.7651
14.7651
14.7651
14.7651
14.7651
14.7651
14.7651
14.7651
14.7651
14.7651
14.7652
14.7652
14.7654
14.7657
14.7663
14.7677
14.7705
14.7766
14.7893
14.8163
14.8736
14.9999
15.3677
17.9728
54.9374
716.244
10672.8
48815.4
14.7664
14.7665
14.7665
14.7665
14.7665
14.7665
14.7665
14.7665
14.7665
14.7665
14.7665
14.7665
14.7665
14.7665
14.7665
14.7665
14.7665
14.7665
14.7665
14.7665
14.7665
14.7665
14.7665
14.7665
14.7665
14.7665
14.7665
14.7665
14.7665
14.7666
14.7667
14.7668
14.767
14.7674
14.7682
14.7697
14.7727
14.7789
14.7912
14.8162
14.8664
14.967
15.179
15.8144
20.1838
71.4651
835.982
8076.95
14.8055
14.8055
14.8055
14.8055
14.8055
14.8055
14.8055
14.8055
14.8055
14.8055
14.8055
14.8055
14.8055
14.8055
14.8055
14.8055
14.8055
14.8055
14.8055
14.8055
14.8055
14.8055
14.8055
14.8055
14.8055
14.8055
14.8056
14.8057
14.8059
14.8061
14.8065
14.807
14.8079
14.8092
14.8113
14.8147
14.8203
14.83
14.8468
14.8762
14.928
15.0182
15.1738
15.4569
16.1862
20.1805
52.0213
312.709
14.8324
14.8324
14.8324
14.8324
14.8324
14.8324
14.8324
14.8324
14.8324
14.8324
14.8324
14.8324
14.8324
14.8324
14.8324
14.8324
14.8324
14.8324
14.8324
14.8324
14.8324
14.8324
14.8324
14.8324
14.8324
14.8323
14.8323
14.8323
14.8323
14.8323
14.8324
14.8324
14.8325
14.8328
14.8335
14.8349
14.8382
14.8457
14.8636
14.9072
15.0219
15.4419
19.0461
80.9461
1389.29
21731.9
120628
245812
14.7708
14.7709
14.7709
14.771
14.771
14.771
14.771
14.771
14.771
14.771
14.771
14.771
14.771
14.771
14.771
14.771
14.7709
14.7709
14.7709
14.7709
14.7709
14.7709
14.7709
14.7709
14.7709
14.7709
14.7709
14.7709
14.7709
14.771
14.771
14.771
14.7712
14.7714
14.7721
14.7735
14.7766
14.7837
14.8001
14.8389
14.9366
15.2769
18.1781
68.2444
1104.15
17220.4
101291
209502
14.7653
14.7654
14.7654
14.7654
14.7654
14.7654
14.7654
14.7654
14.7654
14.7654
14.7654
14.7654
14.7654
14.7654
14.7654
14.7654
14.7654
14.7654
14.7654
14.7654
14.7654
14.7654
14.7654
14.7654
14.7654
14.7654
14.7654
14.7654
14.7654
14.7654
14.7654
14.7655
14.7656
14.7659
14.7665
14.7679
14.7709
14.7777
14.793
14.828
14.9116
15.1638
16.9088
44.45
598.97
9973.51
71673.5
158032
14.7649
14.765
14.765
14.765
14.765
14.765
14.765
14.765
14.765
14.765
14.765
14.765
14.765
14.765
14.765
14.765
14.765
14.765
14.765
14.765
14.765
14.765
14.765
14.765
14.765
14.765
14.765
14.765
14.765
14.765
14.7651
14.7651
14.7653
14.7656
14.7662
14.7676
14.7705
14.777
14.7912
14.8226
14.8936
15.0751
15.9259
26.5122
224.427
3909.77
39437.6
103082
14.7649
14.765
14.765
14.765
14.765
14.765
14.765
14.765
14.765
14.765
14.765
14.765
14.765
14.765
14.765
14.765
14.765
14.765
14.765
14.765
14.765
14.765
14.765
14.765
14.765
14.765
14.765
14.765
14.765
14.765
14.7651
14.7651
14.7653
14.7656
14.7662
14.7676
14.7705
14.7766
14.7898
14.8179
14.8783
15.014
15.4193
18.3845
62.6595
887.645
12898.9
52198.5
14.7653
14.7654
14.7654
14.7654
14.7654
14.7654
14.7654
14.7654
14.7654
14.7654
14.7654
14.7654
14.7654
14.7654
14.7654
14.7654
14.7654
14.7654
14.7654
14.7654
14.7654
14.7654
14.7654
14.7654
14.7654
14.7654
14.7654
14.7654
14.7654
14.7654
14.7655
14.7656
14.7657
14.766
14.7667
14.768
14.7709
14.7768
14.789
14.8142
14.8661
14.9732
15.2107
16.0214
22.7724
115.549
1628.99
13514.8
14.7708
14.7709
14.7709
14.771
14.771
14.771
14.771
14.771
14.771
14.771
14.771
14.771
14.771
14.771
14.771
14.771
14.771
14.771
14.771
14.771
14.771
14.771
14.771
14.771
14.771
14.771
14.771
14.771
14.771
14.771
14.7711
14.7712
14.7715
14.7719
14.7726
14.7742
14.7772
14.7831
14.795
14.8184
14.8641
14.9522
15.1209
15.4709
16.6023
24.3929
99.5335
815.543
14.8324
14.8324
14.8324
14.8324
14.8324
14.8324
14.8324
14.8324
14.8324
14.8324
14.8324
14.8324
14.8324
14.8324
14.8324
14.8324
14.8324
14.8324
14.8324
14.8324
14.8324
14.8324
14.8324
14.8324
14.8324
14.8324
14.8325
14.8326
14.8327
14.8329
14.8333
14.8338
14.8346
14.8358
14.8378
14.841
14.8463
14.8555
14.8714
14.8992
14.9471
15.0284
15.1617
15.3748
15.7259
16.6222
21.0343
40.7535
14.8324
14.8324
14.8324
14.8324
14.8324
14.8324
14.8324
14.8324
14.8324
14.8324
14.8324
14.8324
14.8324
14.8324
14.8324
14.8324
14.8324
14.8324
14.8324
14.8324
14.8324
14.8324
14.8324
14.8324
14.8324
14.8323
14.8323
14.8323
14.8323
14.8323
14.8324
14.8324
14.8325
14.8328
14.8334
14.8348
14.8379
14.8451
14.8615
14.9006
14.9967
15.2672
16.4938
30.0673
286.876
5204.07
48986.9
121899
14.7708
14.7709
14.7709
14.771
14.771
14.771
14.771
14.771
14.771
14.771
14.771
14.771
14.771
14.771
14.771
14.771
14.7709
14.7709
14.7709
14.7709
14.7709
14.7709
14.7709
14.7709
14.7709
14.7709
14.7709
14.7709
14.7709
14.771
14.771
14.771
14.7712
14.7714
14.7721
14.7734
14.7765
14.7833
14.7986
14.8336
14.9164
15.136
16.0696
26.0516
209.103
3720.86
38295.2
101213
14.7653
14.7654
14.7654
14.7654
14.7654
14.7654
14.7654
14.7654
14.7654
14.7654
14.7654
14.7654
14.7654
14.7654
14.7654
14.7654
14.7654
14.7654
14.7654
14.7654
14.7654
14.7654
14.7654
14.7654
14.7654
14.7654
14.7654
14.7654
14.7654
14.7654
14.7655
14.7655
14.7656
14.7659
14.7665
14.7679
14.7709
14.7773
14.7916
14.8232
14.895
15.0703
15.6834
20.9859
108.733
1795.15
22511.9
70743
14.7649
14.765
14.765
14.765
14.765
14.765
14.765
14.765
14.765
14.765
14.765
14.765
14.765
14.765
14.765
14.765
14.765
14.765
14.765
14.765
14.765
14.765
14.765
14.765
14.765
14.765
14.765
14.765
14.765
14.765
14.7651
14.7651
14.7653
14.7656
14.7662
14.7676
14.7705
14.7767
14.79
14.8186
14.8807
15.0202
15.4
17.5461
45.6133
548.858
8522.45
38510.2
14.7649
14.765
14.765
14.765
14.765
14.765
14.765
14.765
14.765
14.765
14.765
14.765
14.765
14.765
14.765
14.765
14.765
14.765
14.765
14.765
14.765
14.765
14.765
14.765
14.765
14.765
14.765
14.765
14.765
14.7651
14.7651
14.7652
14.7653
14.7656
14.7663
14.7676
14.7704
14.7764
14.7888
14.8146
14.8683
14.9806
15.2307
16.0344
22.2812
106.71
1497.29
11999.7
14.7653
14.7654
14.7654
14.7654
14.7654
14.7654
14.7654
14.7654
14.7654
14.7654
14.7654
14.7654
14.7654
14.7654
14.7654
14.7654
14.7654
14.7654
14.7654
14.7654
14.7654
14.7654
14.7654
14.7654
14.7654
14.7654
14.7654
14.7654
14.7654
14.7654
14.7655
14.7656
14.7657
14.766
14.7667
14.7681
14.7709
14.7766
14.7881
14.8115
14.858
14.9498
15.1309
15.5187
16.8569
26.803
131.295
1135.38
14.7708
14.7709
14.7709
14.771
14.771
14.771
14.771
14.771
14.771
14.771
14.771
14.771
14.771
14.771
14.771
14.771
14.771
14.771
14.771
14.771
14.771
14.771
14.771
14.771
14.771
14.771
14.771
14.771
14.771
14.7711
14.7711
14.7712
14.7715
14.7719
14.7727
14.7742
14.7771
14.7829
14.7943
14.8161
14.8576
14.9345
15.0733
15.319
15.7768
17.1379
24.4037
58.7553
14.8324
14.8324
14.8324
14.8324
14.8324
14.8324
14.8324
14.8324
14.8324
14.8324
14.8324
14.8324
14.8324
14.8324
14.8324
14.8324
14.8324
14.8324
14.8324
14.8324
14.8324
14.8324
14.8324
14.8324
14.8324
14.8324
14.8325
14.8326
14.8327
14.8329
14.8333
14.8338
14.8346
14.8358
14.8378
14.841
14.8464
14.8555
14.8711
14.8979
14.9433
15.0176
15.1336
15.3041
15.5304
15.8219
16.4658
18.078
14.8055
14.8055
14.8055
14.8055
14.8055
14.8055
14.8056
14.8056
14.8056
14.8055
14.8055
14.8055
14.8055
14.8055
14.8055
14.8055
14.8055
14.8055
14.8055
14.8055
14.8055
14.8055
14.8055
14.8055
14.8055
14.8055
14.8055
14.8055
14.8055
14.8055
14.8055
14.8056
14.8057
14.806
14.8066
14.8079
14.8109
14.8176
14.8327
14.8673
14.9489
15.1526
15.7575
18.967
59.1496
783.055
10954.6
42436
14.7664
14.7665
14.7665
14.7665
14.7665
14.7665
14.7665
14.7665
14.7665
14.7665
14.7665
14.7665
14.7665
14.7665
14.7665
14.7665
14.7665
14.7665
14.7665
14.7665
14.7665
14.7665
14.7665
14.7665
14.7665
14.7665
14.7665
14.7665
14.7665
14.7665
14.7665
14.7666
14.7667
14.767
14.7677
14.769
14.772
14.7785
14.7928
14.8244
14.8959
15.0646
15.5262
17.7009
42.4235
468.965
7016.58
31857.4
14.765
14.7651
14.7651
14.7651
14.7651
14.7651
14.7651
14.7651
14.7651
14.7651
14.7651
14.7651
14.7651
14.7651
14.7651
14.7651
14.7651
14.7651
14.7651
14.7651
14.7651
14.7651
14.7651
14.7651
14.7651
14.7651
14.7651
14.7651
14.7651
14.7651
14.7652
14.7652
14.7654
14.7657
14.7663
14.7676
14.7705
14.7767
14.7899
14.8186
14.8809
15.0204
15.3619
16.6012
27.3783
186.528
2773.74
17112.5
14.7653
14.7654
14.7654
14.7654
14.7654
14.7654
14.7654
14.7654
14.7654
14.7654
14.7654
14.7654
14.7654
14.7654
14.7654
14.7654
14.7654
14.7654
14.7654
14.7654
14.7654
14.7654
14.7654
14.7654
14.7654
14.7654
14.7654
14.7654
14.7654
14.7654
14.7655
14.7655
14.7657
14.766
14.7666
14.768
14.7708
14.7767
14.7892
14.8152
14.8696
14.9845
15.236
15.9034
19.496
57.262
585.397
5256.07
14.7653
14.7654
14.7654
14.7654
14.7654
14.7654
14.7654
14.7654
14.7654
14.7654
14.7654
14.7654
14.7654
14.7654
14.7654
14.7654
14.7654
14.7654
14.7654
14.7654
14.7654
14.7654
14.7654
14.7654
14.7654
14.7654
14.7654
14.7654
14.7654
14.7654
14.7655
14.7656
14.7657
14.766
14.7667
14.768
14.7708
14.7765
14.7881
14.8117
14.8591
14.9538
15.1428
15.5371
16.7081
23.8934
89.1769
651.952
14.765
14.7651
14.7651
14.7651
14.7651
14.7651
14.7651
14.7651
14.7651
14.7651
14.7651
14.7651
14.7651
14.7651
14.7651
14.7651
14.7651
14.7651
14.7651
14.7651
14.7651
14.7651
14.7651
14.7651
14.7651
14.7651
14.7651
14.7651
14.7651
14.7651
14.7652
14.7653
14.7654
14.7658
14.7664
14.7678
14.7705
14.776
14.7869
14.8084
14.8498
14.9283
15.0734
15.336
15.8342
17.2723
24.55
56.5578
14.7664
14.7665
14.7665
14.7665
14.7665
14.7665
14.7665
14.7665
14.7665
14.7665
14.7665
14.7665
14.7665
14.7665
14.7665
14.7665
14.7665
14.7665
14.7665
14.7665
14.7665
14.7665
14.7665
14.7665
14.7665
14.7665
14.7665
14.7665
14.7666
14.7666
14.7667
14.7668
14.767
14.7674
14.7682
14.7697
14.7727
14.7783
14.7891
14.8095
14.8471
14.9141
15.0289
15.2163
15.4994
15.9312
16.9181
18.841
14.8055
14.8055
14.8055
14.8055
14.8055
14.8055
14.8055
14.8055
14.8055
14.8055
14.8055
14.8055
14.8055
14.8055
14.8055
14.8055
14.8055
14.8055
14.8055
14.8055
14.8055
14.8055
14.8055
14.8055
14.8055
14.8055
14.8056
14.8057
14.8059
14.8061
14.8065
14.807
14.8079
14.8093
14.8114
14.8148
14.8204
14.8298
14.8457
14.8723
14.9163
14.9858
15.0889
15.2297
15.3959
15.5462
15.6676
15.6743
14.7204
14.7204
14.7204
14.7204
14.7204
14.7204
14.7205
14.7205
14.7205
14.7205
14.7204
14.7204
14.7204
14.7204
14.7204
14.7204
14.7204
14.7204
14.7204
14.7204
14.7204
14.7204
14.7204
14.7204
14.7204
14.7204
14.7204
14.7204
14.7204
14.7204
14.7205
14.7206
14.7208
14.7212
14.7219
14.7235
14.7267
14.7334
14.7479
14.7798
14.8509
15.0156
15.4214
16.6073
22.9647
89.4851
948.081
6207.67
14.7505
14.7507
14.7507
14.7507
14.7507
14.7507
14.7507
14.7507
14.7507
14.7507
14.7507
14.7507
14.7507
14.7507
14.7507
14.7507
14.7507
14.7507
14.7507
14.7507
14.7507
14.7507
14.7507
14.7507
14.7507
14.7507
14.7507
14.7507
14.7507
14.7507
14.7507
14.7508
14.751
14.7514
14.7521
14.7536
14.7567
14.7632
14.7771
14.8065
14.8698
15.0086
15.3263
16.1501
19.8643
53.4045
461.796
3483.67
14.7664
14.7665
14.7665
14.7665
14.7665
14.7665
14.7665
14.7665
14.7665
14.7665
14.7665
14.7665
14.7665
14.7665
14.7665
14.7665
14.7665
14.7665
14.7665
14.7665
14.7665
14.7665
14.7665
14.7665
14.7665
14.7665
14.7665
14.7665
14.7665
14.7665
14.7666
14.7667
14.7668
14.7672
14.7679
14.7693
14.7722
14.7783
14.791
14.8174
14.8725
14.9884
15.2367
15.8011
17.6839
30.0788
146.761
1068.11
14.7708
14.7709
14.7709
14.771
14.771
14.771
14.771
14.771
14.771
14.771
14.771
14.771
14.771
14.771
14.771
14.771
14.771
14.771
14.771
14.7709
14.7709
14.7709
14.7709
14.771
14.771
14.771
14.771
14.771
14.771
14.771
14.771
14.7711
14.7713
14.7717
14.7724
14.7738
14.7767
14.7825
14.7944
14.8184
14.8667
14.9634
15.1568
15.5454
16.4677
20.2587
43.6887
173.301
14.7708
14.7709
14.7709
14.771
14.771
14.771
14.771
14.771
14.771
14.771
14.771
14.771
14.771
14.771
14.771
14.771
14.771
14.771
14.771
14.7709
14.7709
14.7709
14.7709
14.771
14.771
14.771
14.771
14.771
14.771
14.771
14.7711
14.7712
14.7713
14.7717
14.7724
14.7738
14.7766
14.7823
14.7934
14.8154
14.8578
14.9388
15.0903
15.3657
15.8712
17.0883
21.6218
35.4226
14.7664
14.7665
14.7665
14.7665
14.7665
14.7665
14.7665
14.7665
14.7665
14.7665
14.7665
14.7665
14.7665
14.7665
14.7665
14.7665
14.7665
14.7665
14.7665
14.7665
14.7665
14.7665
14.7665
14.7665
14.7665
14.7665
14.7665
14.7665
14.7665
14.7666
14.7666
14.7667
14.7669
14.7673
14.768
14.7694
14.7722
14.7777
14.7883
14.8084
14.846
14.9143
15.0341
15.2346
15.5474
16.0407
17.0762
18.3878
14.7505
14.7507
14.7507
14.7507
14.7507
14.7507
14.7507
14.7507
14.7507
14.7507
14.7507
14.7507
14.7507
14.7507
14.7507
14.7507
14.7507
14.7507
14.7507
14.7507
14.7507
14.7507
14.7507
14.7507
14.7507
14.7507
14.7507
14.7507
14.7507
14.7508
14.7509
14.751
14.7513
14.7518
14.7527
14.7543
14.7574
14.7632
14.7739
14.7936
14.8287
14.889
14.9872
15.138
15.3453
15.5946
15.9075
15.9019
14.7204
14.7204
14.7204
14.7204
14.7204
14.7204
14.7204
14.7204
14.7204
14.7204
14.7204
14.7204
14.7204
14.7204
14.7204
14.7204
14.7204
14.7204
14.7204
14.7204
14.7204
14.7204
14.7204
14.7204
14.7204
14.7204
14.7205
14.7207
14.7209
14.7212
14.7217
14.7224
14.7235
14.7253
14.7279
14.7321
14.7388
14.7497
14.7673
14.796
14.8416
14.9108
15.0087
15.1335
15.266
15.3632
15.3957
15.2489
14.548
14.5478
14.5478
14.5478
14.5479
14.5479
14.5479
14.5479
14.5479
14.5479
14.5478
14.5478
14.5478
14.5477
14.5477
14.5477
14.5477
14.5477
14.5477
14.5477
14.5477
14.5477
14.5477
14.5477
14.5477
14.5477
14.5477
14.5478
14.5479
14.5481
14.5484
14.5489
14.5497
14.5509
14.5529
14.5563
14.5621
14.5723
14.5913
14.6271
14.6976
14.8411
15.1451
15.8188
17.655
25.6732
71.2777
257.744
14.7204
14.7204
14.7204
14.7204
14.7204
14.7204
14.7204
14.7204
14.7204
14.7204
14.7204
14.7204
14.7204
14.7204
14.7204
14.7204
14.7204
14.7204
14.7204
14.7204
14.7204
14.7204
14.7204
14.7204
14.7204
14.7204
14.7204
14.7204
14.7205
14.7206
14.7208
14.7211
14.7216
14.7225
14.724
14.7266
14.7313
14.7398
14.7559
14.7866
14.8461
14.9627
15.1954
15.6662
16.7882
20.9576
41.7193
120.62
14.8055
14.8055
14.8055
14.8055
14.8055
14.8055
14.8055
14.8055
14.8055
14.8055
14.8055
14.8055
14.8055
14.8055
14.8055
14.8055
14.8055
14.8055
14.8055
14.8055
14.8055
14.8055
14.8055
14.8055
14.8055
14.8055
14.8055
14.8055
14.8056
14.8057
14.8058
14.8061
14.8065
14.8073
14.8086
14.8109
14.815
14.8227
14.8371
14.8645
14.9168
15.0168
15.2075
15.5682
16.296
18.3324
26.0795
47.8017
14.8324
14.8324
14.8324
14.8324
14.8324
14.8324
14.8324
14.8324
14.8324
14.8324
14.8324
14.8324
14.8324
14.8324
14.8324
14.8324
14.8324
14.8324
14.8324
14.8324
14.8324
14.8324
14.8324
14.8324
14.8324
14.8324
14.8324
14.8324
14.8324
14.8325
14.8327
14.833
14.8334
14.8342
14.8355
14.8377
14.8418
14.8492
14.8629
14.8885
14.9359
15.0231
15.1806
15.4571
15.9353
16.9127
19.5194
23.5104
14.8324
14.8324
14.8324
14.8324
14.8324
14.8324
14.8324
14.8324
14.8324
14.8324
14.8324
14.8324
14.8324
14.8324
14.8324
14.8324
14.8324
14.8324
14.8324
14.8324
14.8324
14.8324
14.8324
14.8324
14.8324
14.8324
14.8324
14.8324
14.8325
14.8326
14.8328
14.833
14.8335
14.8343
14.8356
14.8379
14.842
14.8494
14.8628
14.887
14.9305
15.007
15.1377
15.3506
15.6749
16.177
17.1247
17.6552
14.8055
14.8055
14.8055
14.8055
14.8055
14.8055
14.8055
14.8055
14.8055
14.8055
14.8055
14.8055
14.8055
14.8055
14.8055
14.8055
14.8055
14.8055
14.8055
14.8055
14.8055
14.8055
14.8055
14.8055
14.8055
14.8055
14.8055
14.8055
14.8056
14.8057
14.806
14.8063
14.8068
14.8077
14.8091
14.8116
14.8159
14.8235
14.8368
14.8601
14.9005
14.968
15.0763
15.24
15.4618
15.7339
16.1157
16.0552
14.7204
14.7204
14.7204
14.7204
14.7204
14.7204
14.7204
14.7204
14.7204
14.7204
14.7204
14.7204
14.7204
14.7204
14.7204
14.7204
14.7204
14.7204
14.7204
14.7204
14.7204
14.7204
14.7204
14.7204
14.7204
14.7204
14.7204
14.7205
14.7206
14.7208
14.7211
14.7216
14.7223
14.7235
14.7254
14.7286
14.7338
14.7425
14.7572
14.7817
14.8219
14.885
14.9781
15.1054
15.2561
15.4028
15.5526
15.4124
14.548
14.5478
14.5478
14.5478
14.5478
14.5478
14.5478
14.5478
14.5478
14.5478
14.5478
14.5478
14.5477
14.5477
14.5477
14.5477
14.5477
14.5477
14.5477
14.5477
14.5477
14.5477
14.5477
14.5477
14.5477
14.5478
14.548
14.5483
14.5488
14.5494
14.5505
14.552
14.5543
14.5577
14.5629
14.5706
14.5824
14.6003
14.6277
14.6691
14.7303
14.8164
14.9277
15.0531
15.1606
15.199
15.1514
14.9624
2.0192e+06
779219
275497
57823.4
5483.68
323.851
33.9545
20.0391
19.3362
19.273
19.2578
19.2521
19.2497
19.2487
19.2482
19.248
19.2479
19.248
19.248
19.2481
19.2482
19.2483
19.2484
19.2484
19.2485
19.2485
19.2485
19.2485
19.2486
19.2486
19.2486
19.2486
19.2486
19.2487
19.2487
19.2489
19.2491
19.2493
19.2495
19.2496
19.2497
19.2497
19.2496
19.2495
19.2493
19.2491
19.2491
19.2538
1.66047e+06
703481
246713
50929.2
4411.87
246.914
27.7728
17.299
16.7294
16.6636
16.6427
16.6331
16.6282
16.6255
16.624
16.623
16.6225
16.6222
16.622
16.6219
16.6218
16.6218
16.6218
16.6218
16.6218
16.6218
16.6218
16.6218
16.6219
16.6219
16.6219
16.6219
16.6219
16.6219
16.6219
16.6221
16.6223
16.6225
16.6227
16.6228
16.6228
16.6228
16.6228
16.6226
16.6225
16.6223
16.6223
16.6247
1.20275e+06
557796
188489
35197.2
2784.8
159.482
23.2235
16.6927
16.3128
16.2594
16.2403
16.2312
16.2265
16.2238
16.2222
16.2213
16.2207
16.2203
16.2201
16.22
16.2199
16.2198
16.2198
16.2198
16.2198
16.2198
16.2198
16.2198
16.2198
16.2198
16.2198
16.2198
16.2199
16.2199
16.2199
16.22
16.2202
16.2204
16.2206
16.2207
16.2207
16.2207
16.2206
16.2206
16.2204
16.2203
16.2202
16.222
772845
384787
121180
17753.9
1247.55
78.6473
19.3379
16.4023
16.1952
16.153
16.1355
16.1268
16.1221
16.1194
16.1179
16.1169
16.1163
16.116
16.1157
16.1156
16.1155
16.1154
16.1154
16.1154
16.1154
16.1154
16.1154
16.1154
16.1154
16.1154
16.1154
16.1154
16.1154
16.1154
16.1155
16.1156
16.1158
16.116
16.1161
16.1162
16.1162
16.1162
16.1162
16.1161
16.116
16.1159
16.1158
16.1174
461299
233994
58312.4
5983.28
372.913
34.2855
17.2475
16.2971
16.1885
16.1528
16.136
16.1273
16.1225
16.1197
16.1181
16.1171
16.1164
16.116
16.1158
16.1156
16.1155
16.1154
16.1154
16.1154
16.1154
16.1154
16.1154
16.1154
16.1154
16.1154
16.1154
16.1154
16.1154
16.1154
16.1155
16.1156
16.1158
16.116
16.1161
16.1162
16.1162
16.1162
16.1162
16.1161
16.116
16.1159
16.1158
16.1174
245675
111127
17381
1315.04
88.3967
20.3708
16.6712
16.3699
16.2955
16.2611
16.2431
16.2336
16.2282
16.225
16.2231
16.2219
16.2211
16.2206
16.2203
16.2201
16.22
16.2199
16.2199
16.2198
16.2198
16.2198
16.2198
16.2198
16.2198
16.2198
16.2198
16.2199
16.2199
16.2199
16.2199
16.22
16.2202
16.2204
16.2205
16.2206
16.2206
16.2206
16.2206
16.2206
16.2205
16.2203
16.2203
16.222
98524.7
29850
2704.43
184.474
26.9633
17.6651
16.9446
16.7925
16.7209
16.6809
16.6578
16.6441
16.6359
16.6308
16.6277
16.6256
16.6243
16.6234
16.6228
16.6224
16.6222
16.622
16.622
16.6219
16.6219
16.6219
16.6219
16.6219
16.6219
16.6219
16.6219
16.6219
16.6219
16.6219
16.6219
16.622
16.6222
16.6224
16.6225
16.6226
16.6227
16.6227
16.6226
16.6226
16.6225
16.6224
16.6223
16.6247
20441.2
3299.6
237.262
34.3593
20.9416
19.7794
19.5362
19.4181
19.3497
19.3095
19.2856
19.2713
19.2626
19.2573
19.254
19.2519
19.2505
19.2497
19.2492
19.2488
19.2486
19.2486
19.2485
19.2485
19.2485
19.2485
19.2485
19.2486
19.2486
19.2486
19.2486
19.2486
19.2487
19.2487
19.2487
19.2488
19.2489
19.2491
19.2493
19.2494
19.2494
19.2494
19.2494
19.2493
19.2493
19.2491
19.2492
19.2538
6.39088e+06
1.17062e+06
199686
50305.3
5257
328.613
150.567
144.289
144.375
144.54
144.63
144.679
144.707
144.724
144.734
144.741
144.746
144.749
144.751
144.752
144.753
144.754
144.754
144.755
144.755
144.755
144.756
144.756
144.756
144.756
144.756
144.756
144.756
144.756
144.756
144.756
144.756
144.756
144.756
144.756
144.756
144.756
144.756
144.756
144.756
144.755
144.755
144.753
4.87714e+06
1.06269e+06
149033
19311.4
840.003
152.543
130.737
130.443
130.691
130.827
130.897
130.934
130.955
130.968
130.975
130.98
130.983
130.985
130.987
130.988
130.989
130.989
130.99
130.99
130.99
130.99
130.99
130.99
130.991
130.991
130.991
130.991
130.991
130.991
130.991
130.991
130.991
130.991
130.991
130.991
130.991
130.99
130.99
130.99
130.99
130.99
130.99
130.988
1.77124e+06
669211
52856.6
3647.67
224.326
124.826
121.821
122.104
122.309
122.413
122.465
122.493
122.509
122.518
122.523
122.527
122.529
122.531
122.532
122.533
122.533
122.534
122.534
122.534
122.534
122.534
122.535
122.535
122.535
122.535
122.535
122.535
122.535
122.535
122.535
122.535
122.535
122.535
122.535
122.535
122.535
122.535
122.535
122.535
122.534
122.534
122.534
122.533
582810
155949
11246.2
497.026
131.289
118.011
117.966
118.22
118.361
118.432
118.469
118.488
118.499
118.505
118.509
118.512
118.513
118.514
118.515
118.516
118.516
118.516
118.517
118.517
118.517
118.517
118.517
118.517
118.517
118.517
118.517
118.517
118.517
118.517
118.517
118.517
118.517
118.517
118.517
118.517
118.517
118.517
118.517
118.517
118.517
118.517
118.517
118.515
211445
52006.5
4078.03
284.492
125.25
118.276
118.218
118.35
118.426
118.467
118.488
118.5
118.506
118.51
118.512
118.513
118.514
118.515
118.516
118.516
118.516
118.516
118.517
118.517
118.517
118.517
118.517
118.517
118.517
118.517
118.517
118.517
118.517
118.517
118.517
118.517
118.517
118.517
118.517
118.517
118.517
118.517
118.517
118.517
118.517
118.517
118.517
118.515
57662.1
12647.3
881.816
159.462
124.128
122.467
122.446
122.481