/*--------------------------------*- C++ -*----------------------------------*\
| =========                 |                                                 |
| \\      /  F ield         | OpenFOAM: The Open Source CFD Toolbox           |
|  \\    /   O peration     | Version:  4.1                                   |
|   \\  /    A nd           | Web:      www.OpenFOAM.org                      |
|    \\/     M anipulation  |                                                 |
\*---------------------------------------------------------------------------*/
FoamFile
{
    version     2.0;
    format      ascii;
    class       volVectorField;
    location    "0.00012";
    object      U;
}
// * * * * * * * * * * * * * * * * * * * * * * * * * * * * * * * * * * * * * //

dimensions      [0 1 -1 0 0 0 0];

internalField   nonuniform List<vector> 
6144
(
(3.11047 5.12492e-05 1.08487e-06)
(3.11039 9.77123e-05 3.51735e-06)
(3.11033 0.000128673 7.75933e-06)
(3.11023 0.000180754 1.24628e-05)
(3.11012 0.00023033 1.81458e-05)
(3.11 0.000272038 2.15175e-05)
(3.10987 0.000300033 2.19307e-05)
(3.10974 0.000310953 2.0792e-05)
(3.10961 0.000302742 2.04705e-05)
(3.10948 0.000268917 2.11947e-05)
(3.10937 0.000210619 2.45856e-05)
(3.10929 0.000137922 2.80913e-05)
(3.10925 6.50926e-05 2.88611e-05)
(3.10923 -3.35909e-06 2.53649e-05)
(3.10925 -6.55581e-05 2.05716e-05)
(3.10929 -0.000119091 1.11067e-05)
(3.10936 -0.000164851 -2.01711e-06)
(3.10944 -0.000199408 -1.87401e-05)
(3.10953 -0.000226907 -3.62167e-05)
(3.10962 -0.000251473 -5.49806e-05)
(3.10971 -0.00028275 -7.23621e-05)
(3.10979 -0.000337911 -8.98425e-05)
(3.1099 -0.000427225 -0.000108886)
(3.11003 -0.000551731 -0.000137813)
(3.11019 -0.00070901 -0.00018264)
(3.11031 -0.000915258 -0.000252003)
(3.11035 -0.00120952 -0.000362956)
(3.11031 -0.00163288 -0.000533895)
(3.11015 -0.00223289 -0.000788791)
(3.10981 -0.00307225 -0.00116571)
(3.10918 -0.0042727 -0.00172683)
(3.10808 -0.00600575 -0.00255163)
(3.10631 -0.00851939 -0.00377593)
(3.10353 -0.0121879 -0.00560262)
(3.09928 -0.0175643 -0.00834585)
(3.09285 -0.0254965 -0.0124847)
(3.08328 -0.0373389 -0.0187772)
(3.06917 -0.0551143 -0.0284816)
(3.04848 -0.0819758 -0.0435889)
(3.01811 -0.123104 -0.0674506)
(2.97555 -0.187925 -0.10569)
(2.91896 -0.288212 -0.163597)
(2.82985 -0.456586 -0.258476)
(2.72845 -0.835538 -0.516259)
(2.5534 -1.12912 -0.884887)
(1.86986 -0.373795 0.336552)
(1.94086 -0.407783 2.25535)
(1.99509 -0.35043 3.81795)
(3.11005 4.68441e-05 -6.06074e-06)
(3.10995 8.87319e-05 -5.44709e-06)
(3.10989 0.000116311 3.44676e-07)
(3.10978 0.000160929 -9.58693e-07)
(3.10965 0.000200622 8.16889e-07)
(3.10952 0.000234876 2.08557e-06)
(3.10937 0.0002584 1.53695e-06)
(3.10923 0.000266882 -7.2225e-07)
(3.10908 0.000260151 -1.08896e-06)
(3.10894 0.000230217 4.69415e-07)
(3.10881 0.000179061 6.6224e-06)
(3.10872 0.000114637 1.40951e-05)
(3.10867 5.0758e-05 2.07451e-05)
(3.10865 -1.0371e-05 2.114e-05)
(3.10867 -6.72016e-05 1.92842e-05)
(3.10872 -0.00011476 1.07964e-05)
(3.1088 -0.000153937 -1.61535e-06)
(3.10889 -0.000184351 -1.75507e-05)
(3.10898 -0.000209032 -3.23728e-05)
(3.10909 -0.000233372 -4.81531e-05)
(3.1092 -0.000266893 -6.1505e-05)
(3.1093 -0.000324648 -7.80409e-05)
(3.10943 -0.000420722 -9.95532e-05)
(3.10961 -0.000552392 -0.000128975)
(3.10981 -0.000717386 -0.000173834)
(3.11 -0.000932924 -0.000243554)
(3.11012 -0.00123784 -0.000357193)
(3.11018 -0.00168305 -0.000538443)
(3.11016 -0.00232055 -0.000812001)
(3.11001 -0.0032181 -0.00121627)
(3.10962 -0.0044997 -0.0018228)
(3.10888 -0.00634444 -0.00271666)
(3.1076 -0.00901411 -0.00404083)
(3.10553 -0.0128981 -0.00601241)
(3.10231 -0.0185724 -0.0089618)
(3.09742 -0.0269162 -0.013396)
(3.09017 -0.0392982 -0.0201431)
(3.07962 -0.05775 -0.0305207)
(3.06447 -0.08545 -0.0466074)
(3.04313 -0.127613 -0.071832)
(3.0151 -0.192864 -0.111671)
(2.98035 -0.293213 -0.171561)
(2.9318 -0.461654 -0.262256)
(2.9365 -0.775807 -0.445445)
(3.03178 -0.800125 -0.802459)
(2.66572 0.22528 -0.0934389)
(2.46429 0.377369 1.58899)
(2.52594 0.297715 2.89493)
(3.10983 3.93563e-05 -1.63066e-05)
(3.10974 7.23204e-05 -2.52661e-05)
(3.10968 9.37864e-05 -2.42682e-05)
(3.10956 0.000130786 -3.18291e-05)
(3.10944 0.000162299 -3.50372e-05)
(3.1093 0.000188372 -3.56062e-05)
(3.10915 0.000207051 -3.63765e-05)
(3.10901 0.000213564 -3.88943e-05)
(3.10886 0.000208709 -3.83769e-05)
(3.10872 0.000184064 -3.32719e-05)
(3.10859 0.000142682 -2.08229e-05)
(3.1085 9.07719e-05 -4.51653e-06)
(3.10845 4.03311e-05 1.34118e-05)
(3.10843 -8.80382e-06 2.41189e-05)
(3.10844 -5.51853e-05 2.95418e-05)
(3.10849 -9.44122e-05 2.77755e-05)
(3.10857 -0.000126975 2.11776e-05)
(3.10866 -0.000153453 8.65574e-06)
(3.10876 -0.000176904 -4.82965e-06)
(3.10887 -0.000201601 -2.07901e-05)
(3.10898 -0.000235252 -3.28874e-05)
(3.1091 -0.000289883 -4.38565e-05)
(3.10925 -0.000381454 -5.98481e-05)
(3.10944 -0.000511056 -8.43542e-05)
(3.10967 -0.000678991 -0.000126742)
(3.1099 -0.000901958 -0.00020103)
(3.11008 -0.00121634 -0.000323457)
(3.11022 -0.00167318 -0.000516361)
(3.11032 -0.00232895 -0.000809656)
(3.11033 -0.00326117 -0.00124914)
(3.11017 -0.00459084 -0.00190531)
(3.10977 -0.00650821 -0.0028764)
(3.10898 -0.00928693 -0.00431672)
(3.10765 -0.013328 -0.00645784)
(3.10551 -0.0192222 -0.00965232)
(3.10225 -0.0278657 -0.0144408)
(3.09746 -0.0405937 -0.0216699)
(3.09067 -0.0593846 -0.0326668)
(3.08137 -0.0872919 -0.049528)
(3.06938 -0.129121 -0.0757215)
(3.05613 -0.192324 -0.116649)
(3.04444 -0.287208 -0.178827)
(3.04011 -0.441381 -0.276305)
(3.13469 -0.718136 -0.460953)
(3.41176 -0.717173 -0.747136)
(3.23645 0.460879 -0.358979)
(2.86739 0.956066 0.952817)
(2.82151 1.02018 1.89541)
(3.10977 3.36206e-05 -2.46074e-05)
(3.10968 5.9834e-05 -4.24655e-05)
(3.10962 7.60013e-05 -4.74166e-05)
(3.1095 0.000106336 -6.0306e-05)
(3.10937 0.00013235 -6.61755e-05)
(3.10924 0.000153135 -6.84749e-05)
(3.1091 0.000168459 -7.01173e-05)
(3.10896 0.000173913 -7.25165e-05)
(3.10881 0.000170288 -7.11878e-05)
(3.10867 0.000149758 -6.29012e-05)
(3.10854 0.000116236 -4.46705e-05)
(3.10845 7.40121e-05 -1.98897e-05)
(3.1084 3.28313e-05 7.60951e-06)
(3.10838 -8.87382e-06 2.53812e-05)
(3.1084 -4.7013e-05 3.68421e-05)
(3.10845 -7.90192e-05 4.05479e-05)
(3.10853 -0.000105522 3.87302e-05)
(3.10862 -0.000127881 3.04714e-05)
(3.10871 -0.000148671 1.89233e-05)
(3.10882 -0.00017283 3.9527e-06)
(3.10894 -0.000205963 -5.44919e-06)
(3.10907 -0.000259144 -1.08128e-05)
(3.10923 -0.000346532 -1.92438e-05)
(3.10944 -0.000473321 -3.81029e-05)
(3.10969 -0.000640058 -7.90948e-05)
(3.10995 -0.000864187 -0.00015628)
(3.11019 -0.00118152 -0.000283166)
(3.11041 -0.00163993 -0.000480457)
(3.11062 -0.00229757 -0.000779765)
(3.11078 -0.00323744 -0.00123206)
(3.11086 -0.00458202 -0.00191153)
(3.1108 -0.00652375 -0.00292254)
(3.11052 -0.00933622 -0.00442503)
(3.10992 -0.0134221 -0.00665515)
(3.10889 -0.0193681 -0.00997123)
(3.10727 -0.0280447 -0.0149261)
(3.10493 -0.0407258 -0.0223562)
(3.10184 -0.0592766 -0.0335478)
(3.0982 -0.0864955 -0.050515)
(3.09492 -0.126588 -0.0764806)
(3.09513 -0.185784 -0.116426)
(3.10457 -0.271999 -0.177062)
(3.13424 -0.402775 -0.269608)
(3.27699 -0.622466 -0.429142)
(3.67355 -0.664842 -0.66129)
(3.68245 0.460817 -0.457036)
(3.20443 1.34563 0.477824)
(2.97605 1.67071 1.07682)
(3.10977 2.76124e-05 -3.22007e-05)
(3.10968 4.77039e-05 -5.80621e-05)
(3.10961 6.06168e-05 -6.72955e-05)
(3.10949 8.58129e-05 -8.34108e-05)
(3.10937 0.000108007 -8.9896e-05)
(3.10923 0.000125706 -9.14335e-05)
(3.10909 0.00013921 -9.25642e-05)
(3.10896 0.000144223 -9.51608e-05)
(3.10881 0.000141481 -9.45036e-05)
(3.10867 0.000123949 -8.46911e-05)
(3.10855 9.60457e-05 -6.21329e-05)
(3.10845 6.08338e-05 -3.03826e-05)
(3.1084 2.71236e-05 4.27749e-06)
(3.10839 -7.67772e-06 2.82597e-05)
(3.1084 -3.77918e-05 4.54668e-05)
(3.10845 -6.37321e-05 5.401e-05)
(3.10853 -8.59314e-05 5.57898e-05)
(3.10862 -0.000106706 4.97765e-05)
(3.10872 -0.000125796 3.9806e-05)
(3.10883 -0.000148914 2.62874e-05)
(3.10895 -0.000180341 1.9739e-05)
(3.10909 -0.000229632 1.96586e-05)
(3.10926 -0.000308982 1.9135e-05)
(3.10949 -0.000426043 8.77509e-06)
(3.10977 -0.000585629 -2.69952e-05)
(3.11006 -0.000805779 -0.000102081)
(3.11035 -0.00111932 -0.000226242)
(3.11065 -0.00157102 -0.000419305)
(3.11097 -0.00221888 -0.000714337)
(3.11129 -0.00314759 -0.0011627)
(3.11161 -0.00447905 -0.00184019)
(3.11189 -0.00640362 -0.00285108)
(3.11211 -0.009187 -0.00435468)
(3.11226 -0.013222 -0.00658539)
(3.11231 -0.0190719 -0.00989825)
(3.1123 -0.0275597 -0.014829)
(3.11235 -0.0398731 -0.0221806)
(3.11279 -0.0577221 -0.0331713)
(3.11444 -0.0835755 -0.0496745)
(3.11908 -0.12096 -0.0745993)
(3.13105 -0.174812 -0.112346)
(3.15867 -0.250803 -0.169017)
(3.2153 -0.357846 -0.253593)
(3.37305 -0.517435 -0.386842)
(3.794 -0.578943 -0.562498)
(4.03684 0.267227 -0.495737)
(3.51993 1.50977 0.13165)
(3.07875 2.10101 0.495682)
(3.10983 2.12678e-05 -3.87149e-05)
(3.10973 3.6017e-05 -7.02595e-05)
(3.10967 4.68459e-05 -8.14196e-05)
(3.10955 6.77208e-05 -9.91139e-05)
(3.10942 8.71024e-05 -0.000104946)
(3.10928 0.000102531 -0.000104422)
(3.10915 0.000115117 -0.000104232)
(3.10901 0.000120172 -0.000106594)
(3.10887 0.000117621 -0.000106944)
(3.10873 0.000102247 -9.70183e-05)
(3.1086 7.87032e-05 -7.20307e-05)
(3.10851 4.95137e-05 -3.49976e-05)
(3.10846 2.23467e-05 5.62094e-06)
(3.10845 -4.92832e-06 3.50858e-05)
(3.10846 -2.71775e-05 5.7248e-05)
(3.10852 -4.91833e-05 6.83066e-05)
(3.1086 -6.89027e-05 7.10161e-05)
(3.10869 -8.86675e-05 6.55056e-05)
(3.10879 -0.000106608 5.59829e-05)
(3.1089 -0.000128723 4.3355e-05)
(3.10902 -0.00015748 3.92669e-05)
(3.10916 -0.000199733 4.59438e-05)
(3.10935 -0.000266844 5.64379e-05)
(3.10959 -0.000368386 5.93728e-05)
(3.10989 -0.000514761 3.49377e-05)
(3.11023 -0.000725189 -3.30729e-05)
(3.11057 -0.00102912 -0.000148805)
(3.11094 -0.00146503 -0.000329587)
(3.11136 -0.00209037 -0.000610133)
(3.11185 -0.00299015 -0.00103906)
(3.11239 -0.00428341 -0.00169088)
(3.11301 -0.00615563 -0.00266643)
(3.11372 -0.00885935 -0.00411875)
(3.11458 -0.0127696 -0.00627077)
(3.11569 -0.0184134 -0.00946036)
(3.11721 -0.0265563 -0.0141913)
(3.11951 -0.0382812 -0.0212103)
(3.12323 -0.0551134 -0.0316353)
(3.12966 -0.0791661 -0.0471444)
(3.14125 -0.113278 -0.0702553)
(3.16304 -0.161109 -0.104627)
(3.20481 -0.226303 -0.155366)
(3.28199 -0.311794 -0.229557)
(3.44436 -0.420322 -0.336081)
(3.82744 -0.464966 -0.463258)
(4.25872 0.0630916 -0.487379)
(3.84832 1.43818 -0.122422)
(3.11756 2.26667 0.0967993)
(3.11004 1.12346e-05 -4.71893e-05)
(3.10994 1.69533e-05 -8.6735e-05)
(3.10987 2.37562e-05 -0.000100501)
(3.10975 3.95663e-05 -0.00011877)
(3.10962 5.72199e-05 -0.000122617)
(3.10949 7.11919e-05 -0.000119688)
(3.10936 8.24724e-05 -0.000118072)
(3.10923 8.70964e-05 -0.000120511)
(3.10909 8.42122e-05 -0.000122355)
(3.10896 7.19413e-05 -0.000111874)
(3.10883 5.41699e-05 -8.38036e-05)
(3.10874 3.27614e-05 -4.06232e-05)
(3.10869 1.40148e-05 7.19442e-06)
(3.10868 -2.75762e-06 4.452e-05)
(3.1087 -1.682e-05 7.19038e-05)
(3.10876 -3.29776e-05 8.63336e-05)
(3.10884 -4.87275e-05 9.02606e-05)
(3.10893 -6.64728e-05 8.43051e-05)
(3.10903 -8.46731e-05 7.32646e-05)
(3.10915 -0.000105802 6.16719e-05)
(3.10927 -0.000131436 6.11506e-05)
(3.1094 -0.000166931 7.75001e-05)
(3.10959 -0.000222591 0.000102764)
(3.10985 -0.000308393 0.000123467)
(3.11017 -0.000437558 0.000113753)
(3.11054 -0.000635597 5.24401e-05)
(3.11092 -0.000931172 -5.73849e-05)
(3.11136 -0.0013495 -0.000219376)
(3.11188 -0.00194732 -0.000474657)
(3.1125 -0.00280897 -0.00086864)
(3.11326 -0.00404975 -0.00147188)
(3.11419 -0.00584789 -0.00237814)
(3.11536 -0.00844017 -0.00372836)
(3.11689 -0.0121793 -0.00572656)
(3.11897 -0.017552 -0.00868247)
(3.12192 -0.0252615 -0.0130542)
(3.12628 -0.0362796 -0.0195122)
(3.13298 -0.0519382 -0.0290448)
(3.14365 -0.0740046 -0.0431033)
(3.16118 -0.104693 -0.0637793)
(3.19099 -0.146531 -0.0940106)
(3.24314 -0.201258 -0.137906)
(3.33364 -0.267684 -0.200514)
(3.49715 -0.338598 -0.284444)
(3.82209 -0.345929 -0.369821)
(4.2629 -0.0141982 -0.39081)
(4.09992 1.04593 -0.27986)
(3.07517 2.1427 -0.126139)
(3.11047 3.50991e-06 -5.22912e-05)
(3.11038 6.91153e-06 -9.56777e-05)
(3.11031 1.36385e-05 -0.000110344)
(3.1102 2.26737e-05 -0.000130219)
(3.11009 3.48118e-05 -0.00013318)
(3.10997 4.57216e-05 -0.000128007)
(3.10986 5.46899e-05 -0.000124265)
(3.10975 5.80986e-05 -0.000126123)
(3.10963 5.51463e-05 -0.000129532)
(3.1095 4.5419e-05 -0.000120129)
(3.10939 3.22455e-05 -9.14554e-05)
(3.10931 1.72562e-05 -4.61915e-05)
(3.10927 4.98322e-06 3.98428e-06)
(3.10926 -3.87063e-06 4.63092e-05)
(3.10929 -1.29739e-05 7.58798e-05)
(3.10934 -2.43124e-05 9.23467e-05)
(3.10942 -3.63365e-05 9.7343e-05)
(3.1095 -5.11675e-05 9.23046e-05)
(3.1096 -6.60306e-05 8.2533e-05)
(3.1097 -8.27558e-05 7.65524e-05)
(3.10981 -0.000103215 8.44809e-05)
(3.10994 -0.000132374 0.000109489)
(3.11012 -0.000180173 0.000145058)
(3.11037 -0.000254906 0.000175667)
(3.11068 -0.000373304 0.00017561)
(3.11105 -0.000557696 0.00012676)
(3.11145 -0.000832329 2.9056e-05)
(3.11191 -0.00122887 -0.000112377)
(3.11249 -0.00179268 -0.000330046)
(3.11322 -0.00260513 -0.000664617)
(3.11414 -0.00377524 -0.00117592)
(3.11533 -0.00546933 -0.00193906)
(3.11689 -0.00790911 -0.00307199)
(3.11901 -0.0114227 -0.00474496)
(3.12197 -0.0164611 -0.00722624)
(3.1262 -0.0236664 -0.0109059)
(3.13241 -0.0339094 -0.0163499)
(3.14176 -0.0483486 -0.0243862)
(3.15613 -0.068454 -0.0362155)
(3.1787 -0.0959423 -0.053519)
(3.215 -0.132426 -0.0785965)
(3.27462 -0.178041 -0.114566)
(3.37223 -0.229116 -0.164401)
(3.53292 -0.273377 -0.228334)
(3.80603 -0.256563 -0.287211)
(4.14958 -0.0195484 -0.29231)
(4.08842 0.555626 -0.243234)
(3.09998 1.37631 -0.221443)
(3.11005 4.60114e-05 9.48378e-06)
(3.10995 8.7728e-05 1.49953e-05)
(3.10989 0.000115595 1.9413e-05)
(3.10978 0.000161681 3.17453e-05)
(3.10966 0.000203956 4.16298e-05)
(3.10952 0.000240313 4.74904e-05)
(3.10937 0.000265173 4.96032e-05)
(3.10923 0.000274254 5.02506e-05)
(3.10908 0.000267902 5.0233e-05)
(3.10894 0.000238224 4.93085e-05)
(3.10881 0.00018802 4.91118e-05)
(3.10872 0.000125229 4.91419e-05)
(3.10867 6.22433e-05 4.49845e-05)
(3.10865 4.63966e-07 3.75894e-05)
(3.10866 -5.77554e-05 2.69061e-05)
(3.10871 -0.000108166 1.33665e-05)
(3.10879 -0.000149737 -4.38634e-06)
(3.10888 -0.000182128 -2.59899e-05)
(3.10897 -0.000208631 -4.91692e-05)
(3.10908 -0.000233783 -7.24627e-05)
(3.10919 -0.000266102 -9.40405e-05)
(3.10929 -0.000320219 -0.000113245)
(3.10941 -0.000410059 -0.000133118)
(3.10958 -0.000533706 -0.00016497)
(3.10977 -0.000689044 -0.000211212)
(3.10993 -0.000891036 -0.000282768)
(3.11003 -0.00117884 -0.000397005)
(3.11004 -0.00160141 -0.000569798)
(3.10995 -0.00220748 -0.000825297)
(3.10969 -0.00305898 -0.00120217)
(3.10916 -0.00427827 -0.00175208)
(3.1082 -0.00603439 -0.00255948)
(3.10659 -0.00857907 -0.00375549)
(3.10402 -0.012293 -0.00553389)
(3.10005 -0.0177406 -0.00819665)
(3.09401 -0.0257843 -0.0121961)
(3.08498 -0.0377737 -0.0182189)
(3.07162 -0.0557558 -0.0274072)
(3.052 -0.082984 -0.0415418)
(3.02327 -0.12484 -0.0637068)
(2.98267 -0.190718 -0.0993082)
(2.92629 -0.292519 -0.155999)
(2.83816 -0.452532 -0.257003)
(2.76918 -0.778309 -0.537369)
(2.73894 -1.26361 -0.975833)
(2.09147 -1.07466 -0.0290355)
(2.02078 -1.21771 1.73482)
(2.3398 -1.05788 2.86789)
(3.10954 3.94666e-05 2.64715e-06)
(3.10942 7.50649e-05 7.16795e-06)
(3.10935 0.00010149 1.39575e-05)
(3.10922 0.000144098 2.15787e-05)
(3.10907 0.000182987 2.98367e-05)
(3.10891 0.000216371 3.47245e-05)
(3.10874 0.000239387 3.58268e-05)
(3.10857 0.000246741 3.47808e-05)
(3.1084 0.000240733 3.44515e-05)
(3.10822 0.000213054 3.43653e-05)
(3.10808 0.000168051 3.7265e-05)
(3.10797 0.000112013 4.08044e-05)
(3.1079 5.56013e-05 4.13429e-05)
(3.10788 -6.63332e-07 3.64124e-05)
(3.10789 -5.41422e-05 2.93767e-05)
(3.10795 -9.93393e-05 1.5214e-05)
(3.10804 -0.000137246 -2.7542e-06)
(3.10814 -0.000167989 -2.48981e-05)
(3.10825 -0.000193996 -4.6981e-05)
(3.10838 -0.000219776 -6.95224e-05)
(3.10851 -0.000252933 -8.88154e-05)
(3.10864 -0.000305883 -0.000107836)
(3.10881 -0.0003952 -0.000128703)
(3.10903 -0.000521188 -0.000160438)
(3.10929 -0.00068419 -0.000206333)
(3.10954 -0.000899497 -0.000276651)
(3.10973 -0.00120492 -0.000391631)
(3.10987 -0.00165406 -0.000573278)
(3.10995 -0.00230154 -0.000846351)
(3.10991 -0.00321999 -0.00125101)
(3.10967 -0.00453283 -0.0018507)
(3.10911 -0.00642221 -0.0027299)
(3.10805 -0.00916136 -0.00403132)
(3.10626 -0.0131542 -0.00596605)
(3.1034 -0.0190019 -0.0088561)
(3.09899 -0.0276116 -0.0131897)
(3.09237 -0.0403639 -0.0197304)
(3.08267 -0.0593482 -0.0297202)
(3.06874 -0.0878249 -0.0450716)
(3.04919 -0.131065 -0.0689692)
(3.02362 -0.197664 -0.1069)
(2.99132 -0.299273 -0.166411)
(2.94634 -0.460551 -0.262877)
(2.96443 -0.740924 -0.475137)
(3.17354 -0.943331 -0.888775)
(2.83816 -0.459154 -0.480541)
(2.58941 -0.388065 1.0245)
(2.7923 -0.32859 2.01558)
(3.10927 3.23973e-05 -7.5022e-06)
(3.10916 6.08679e-05 -1.11736e-05)
(3.10909 8.33034e-05 -7.49961e-06)
(3.10895 0.000120022 -5.72651e-06)
(3.1088 0.000155038 5.56398e-08)
(3.10863 0.000184463 5.74353e-06)
(3.10846 0.00020548 8.53998e-06)
(3.10829 0.000211758 7.44388e-06)
(3.10811 0.000206336 6.90711e-06)
(3.10793 0.000181235 8.40241e-06)
(3.10778 0.000142473 1.53605e-05)
(3.10766 9.42196e-05 2.48933e-05)
(3.1076 4.69915e-05 3.40997e-05)
(3.10757 -8.37479e-07 3.75713e-05)
(3.10759 -4.52969e-05 3.71196e-05)
(3.10764 -8.42037e-05 2.76368e-05)
(3.10773 -0.000117639 1.2661e-05)
(3.10784 -0.000145891 -7.7946e-06)
(3.10795 -0.000170228 -2.76173e-05)
(3.10808 -0.000195185 -4.76403e-05)
(3.10822 -0.000226251 -6.24429e-05)
(3.10836 -0.000275256 -7.51217e-05)
(3.10855 -0.000358218 -9.01745e-05)
(3.1088 -0.000480452 -0.00011546)
(3.10909 -0.000643644 -0.000158608)
(3.10939 -0.00086584 -0.000232309)
(3.10965 -0.00118416 -0.000354857)
(3.10988 -0.00164787 -0.000546834)
(3.11008 -0.00231374 -0.000837583)
(3.11022 -0.00326464 -0.001271)
(3.11023 -0.00462502 -0.00191441)
(3.11002 -0.00658911 -0.00286321)
(3.10948 -0.00943881 -0.00426929)
(3.10845 -0.01359 -0.00635804)
(3.1067 -0.0196546 -0.00947024)
(3.10395 -0.0285493 -0.0141245)
(3.09983 -0.0416381 -0.0211269)
(3.09392 -0.0609576 -0.031756)
(3.08582 -0.0896176 -0.0479856)
(3.07545 -0.132427 -0.0730288)
(3.06441 -0.196796 -0.112162)
(3.05556 -0.292509 -0.172677)
(3.05334 -0.439863 -0.26694)
(3.13487 -0.688419 -0.454327)
(3.44484 -0.827252 -0.844245)
(3.36272 -0.126847 -0.77152)
(3.03157 0.240231 0.352024)
(3.095 0.380068 1.10196)
(3.1092 2.69272e-05 -1.54602e-05)
(3.10908 5.04013e-05 -2.62346e-05)
(3.10901 7.00063e-05 -2.68709e-05)
(3.10887 0.000100837 -3.06626e-05)
(3.10872 0.000130863 -2.82192e-05)
(3.10855 0.000156416 -2.35812e-05)
(3.10839 0.00017535 -2.08469e-05)
(3.10822 0.000180888 -2.17386e-05)
(3.10804 0.000176343 -2.16864e-05)
(3.10786 0.000153965 -1.78988e-05)
(3.10771 0.000120963 -6.4359e-06)
(3.1076 7.98639e-05 1.01208e-05)
(3.10753 4.02452e-05 2.82944e-05)
(3.10751 -7.1014e-07 3.80663e-05)
(3.10752 -3.78575e-05 4.21195e-05)
(3.10758 -7.08697e-05 3.73715e-05)
(3.10767 -9.92577e-05 2.69296e-05)
(3.10777 -0.000125115 1.04215e-05)
(3.10789 -0.000146972 -6.68076e-06)
(3.10802 -0.00017121 -2.47898e-05)
(3.10816 -0.00020121 -3.60718e-05)
(3.10831 -0.000247668 -4.30982e-05)
(3.10851 -0.000324834 -5.213e-05)
(3.10878 -0.000441076 -7.17514e-05)
(3.10909 -0.000600509 -0.00011164)
(3.10943 -0.000823528 -0.000185973)
(3.10975 -0.0011469 -0.000311134)
(3.11006 -0.00161531 -0.000506438)
(3.11038 -0.00228583 -0.000802708)
(3.11068 -0.00324598 -0.00124707)
(3.11093 -0.00462157 -0.00191008)
(3.11107 -0.0066105 -0.00289254)
(3.11103 -0.0094922 -0.00434987)
(3.11075 -0.013682 -0.00651112)
(3.11012 -0.0197805 -0.00972157)
(3.10902 -0.0286763 -0.0145075)
(3.10737 -0.0416693 -0.0216681)
(3.10516 -0.0606627 -0.0324393)
(3.10268 -0.0884853 -0.0487236)
(3.1009 -0.12934 -0.0735437)
(3.10289 -0.189383 -0.111674)
(3.11459 -0.276151 -0.169943)
(3.14561 -0.402786 -0.257842)
(3.26693 -0.600959 -0.405125)
(3.62723 -0.715224 -0.703972)
(3.76635 -0.00630226 -0.860163)
(3.39411 0.700346 -0.157832)
(3.27353 1.02187 0.331901)
(3.1092 2.14611e-05 -2.28358e-05)
(3.10908 4.03039e-05 -4.0524e-05)
(3.10901 5.79257e-05 -4.52375e-05)
(3.10886 8.39067e-05 -5.35071e-05)
(3.10871 0.000109942 -5.36906e-05)
(3.10855 0.000131898 -5.02573e-05)
(3.10838 0.000148944 -4.79931e-05)
(3.10822 0.000154242 -4.89563e-05)
(3.10804 0.00015029 -4.89868e-05)
(3.10787 0.000130251 -4.31348e-05)
(3.10772 0.000101394 -2.72954e-05)
(3.1076 6.56487e-05 -3.69628e-06)
(3.10754 3.24268e-05 2.23832e-05)
(3.10751 -1.24667e-06 3.84085e-05)
(3.10753 -3.06656e-05 4.78002e-05)
(3.10759 -5.85789e-05 4.78846e-05)
(3.10768 -8.294e-05 4.18223e-05)
(3.10778 -0.000107133 2.91435e-05)
(3.1079 -0.000127173 1.45928e-05)
(3.10803 -0.000150101 -1.40232e-06)
(3.10817 -0.000178009 -9.25833e-06)
(3.10833 -0.000220275 -1.12432e-05)
(3.10854 -0.000289606 -1.40686e-05)
(3.10883 -0.000395904 -2.65432e-05)
(3.10917 -0.000547391 -6.14402e-05)
(3.10954 -0.000765763 -0.000132425)
(3.10992 -0.00108642 -0.000253239)
(3.1103 -0.00155111 -0.000442863)
(3.11073 -0.00221454 -0.000732764)
(3.1112 -0.00316641 -0.0011705)
(3.11168 -0.00453087 -0.00182802)
(3.11216 -0.00650486 -0.0028059)
(3.11264 -0.0093596 -0.00425792)
(3.1131 -0.0135004 -0.00640903)
(3.11356 -0.0195018 -0.00959746)
(3.11408 -0.0282058 -0.0143332)
(3.1148 -0.0408208 -0.0213802)
(3.1161 -0.0590814 -0.0318985)
(3.11883 -0.0854722 -0.0476463)
(3.12479 -0.123509 -0.0713387)
(3.1381 -0.178032 -0.107118)
(3.16677 -0.25442 -0.160977)
(3.22348 -0.35938 -0.240934)
(3.36366 -0.506437 -0.358785)
(3.71948 -0.596787 -0.549601)
(4.05272 -0.0535845 -0.784588)
(3.71508 0.952949 -0.51014)
(3.36592 1.47788 -0.239662)
(3.10927 1.50179e-05 -2.9794e-05)
(3.10915 2.88722e-05 -5.30922e-05)
(3.10907 4.41977e-05 -6.02773e-05)
(3.10892 6.43904e-05 -7.17464e-05)
(3.10877 8.63412e-05 -7.30245e-05)
(3.10861 0.000104897 -6.95011e-05)
(3.10845 0.000120323 -6.73779e-05)
(3.10829 0.000125723 -6.82824e-05)
(3.10812 0.000121922 -6.91098e-05)
(3.10795 0.000104313 -6.21627e-05)
(3.10779 7.98268e-05 -4.29352e-05)
(3.10768 5.007e-05 -1.3313e-05)
(3.10761 2.29605e-05 1.93023e-05)
(3.10759 -2.31498e-06 4.14072e-05)
(3.10761 -2.39716e-05 5.58747e-05)
(3.10767 -4.75268e-05 5.98484e-05)
(3.10776 -6.81986e-05 5.64849e-05)
(3.10787 -8.95783e-05 4.67233e-05)
(3.10799 -0.000107359 3.38203e-05)
(3.10812 -0.000128316 1.95786e-05)
(3.10826 -0.000153231 1.50212e-05)
(3.10842 -0.000189852 1.90791e-05)
(3.10864 -0.000250192 2.48551e-05)
(3.10894 -0.000344556 2.32711e-05)
(3.10931 -0.000484862 -2.23379e-06)
(3.10972 -0.000692914 -6.53204e-05)
(3.11014 -0.00100394 -0.000175148)
(3.11061 -0.00145641 -0.000349891)
(3.11114 -0.00210132 -0.00062162)
(3.11176 -0.00302826 -0.00103525)
(3.11247 -0.00435796 -0.00166187)
(3.11329 -0.00628292 -0.00259814)
(3.11426 -0.00906204 -0.0039909)
(3.11544 -0.0130841 -0.00605252)
(3.11695 -0.0188885 -0.00910209)
(3.119 -0.0272603 -0.0136164)
(3.12195 -0.0393005 -0.0203017)
(3.12651 -0.0565549 -0.0302134)
(3.13395 -0.08115 -0.0449191)
(3.14668 -0.115926 -0.0667614)
(3.16943 -0.164448 -0.0991422)
(3.21108 -0.229983 -0.146817)
(3.28632 -0.314311 -0.216463)
(3.43469 -0.417114 -0.313228)
(3.75332 -0.466858 -0.430822)
(4.17734 -0.116663 -0.592801)
(4.00242 0.944034 -0.675972)
(3.3733 1.68853 -0.589785)
(3.10953 4.83494e-06 -3.82332e-05)
(3.1094 1.01456e-05 -6.87742e-05)
(3.10933 2.09167e-05 -7.89233e-05)
(3.10918 3.4393e-05 -9.30517e-05)
(3.10903 5.23937e-05 -9.47013e-05)
(3.10888 6.80894e-05 -9.03945e-05)
(3.10873 8.10088e-05 -8.77691e-05)
(3.10857 8.58172e-05 -8.87317e-05)
(3.10841 8.22125e-05 -9.02987e-05)
(3.10825 6.84103e-05 -8.22595e-05)
(3.1081 4.99819e-05 -5.96234e-05)
(3.10799 2.83287e-05 -2.36033e-05)
(3.10793 1.0152e-05 1.65151e-05)
(3.10791 -4.51776e-06 4.56801e-05)
(3.10794 -1.74058e-05 6.60637e-05)
(3.108 -3.32656e-05 7.4301e-05)
(3.10809 -4.8659e-05 7.3436e-05)
(3.10819 -6.66258e-05 6.52073e-05)
(3.10831 -8.25527e-05 5.36147e-05)
(3.10844 -0.000100522 4.17431e-05)
(3.10858 -0.000121159 4.09707e-05)
(3.10874 -0.00015107 5.35935e-05)
(3.10896 -0.000201488 7.25114e-05)
(3.10926 -0.000282127 8.78207e-05)
(3.10964 -0.000409454 7.68163e-05)
(3.11008 -0.000607715 2.11789e-05)
(3.11054 -0.000905875 -7.60802e-05)
(3.11106 -0.00133949 -0.000226604)
(3.11169 -0.00195622 -0.000466741)
(3.11244 -0.00284321 -0.000837035)
(3.11336 -0.00411696 -0.00140525)
(3.11449 -0.00596163 -0.00226064)
(3.11591 -0.00862118 -0.00353652)
(3.11775 -0.0124616 -0.00542425)
(3.12023 -0.017981 -0.00821008)
(3.1237 -0.0258971 -0.0123214)
(3.1287 -0.0371936 -0.0183837)
(3.1362 -0.0532151 -0.0273166)
(3.14781 -0.0757304 -0.0404599)
(3.16634 -0.106946 -0.0597472)
(3.19677 -0.149267 -0.0878286)
(3.24793 -0.204007 -0.128281)
(3.33445 -0.26955 -0.186166)
(3.48527 -0.337541 -0.264316)
(3.76011 -0.347973 -0.345901)
(4.13693 -0.10164 -0.411294)
(4.12537 0.6211 -0.522014)
(3.31563 1.5602 -0.62184)
(3.11004 -3.29677e-06 -4.62908e-05)
(3.10994 -9.89674e-07 -8.38096e-05)
(3.10987 8.8511e-06 -9.57998e-05)
(3.10975 1.44873e-05 -0.000111541)
(3.10962 2.52814e-05 -0.00011246)
(3.10949 3.6186e-05 -0.000105978)
(3.10936 4.57967e-05 -0.000101352)
(3.10923 4.89611e-05 -0.000101492)
(3.1091 4.56266e-05 -0.000104385)
(3.10896 3.52926e-05 -9.67599e-05)
(3.10884 2.25317e-05 -7.29691e-05)
(3.10875 9.15843e-06 -3.37475e-05)
(3.1087 -9.4148e-07 1.13924e-05)
(3.10869 -7.79812e-06 4.71685e-05)
(3.10871 -1.41323e-05 7.22303e-05)
(3.10877 -2.4154e-05 8.50176e-05)
(3.10885 -3.49639e-05 8.69631e-05)
(3.10894 -4.90523e-05 8.01421e-05)
(3.10904 -6.03316e-05 6.95761e-05)
(3.10916 -7.34582e-05 6.22123e-05)
(3.10929 -8.90083e-05 6.75132e-05)
(3.10943 -0.00011258 9.03581e-05)
(3.10963 -0.000153872 0.00012515)
(3.10991 -0.000223662 0.000158039)
(3.11027 -0.00034222 0.000162447)
(3.11069 -0.000526657 0.000118544)
(3.11114 -0.000799464 3.34746e-05)
(3.11167 -0.00120543 -8.73639e-05)
(3.11234 -0.00178047 -0.00027815)
(3.11317 -0.00260628 -0.000575928)
(3.11422 -0.00379331 -0.00104043)
(3.11558 -0.00551058 -0.00174499)
(3.11737 -0.00798767 -0.00280083)
(3.11978 -0.011561 -0.00436402)
(3.12312 -0.0166837 -0.00667062)
(3.12784 -0.0239991 -0.0100772)
(3.13468 -0.034373 -0.0151005)
(3.1448 -0.048955 -0.0224898)
(3.16008 -0.0691853 -0.03332)
(3.18355 -0.0967171 -0.0490925)
(3.22018 -0.133014 -0.071799)
(3.2784 -0.177977 -0.1041)
(3.37109 -0.227735 -0.149272)
(3.51889 -0.269511 -0.208497)
(3.75555 -0.257229 -0.269665)
(4.04291 -0.0650354 -0.30069)
(4.04069 0.377826 -0.28875)
(3.38313 0.884129 -0.345275)
(3.10984 3.88451e-05 1.96412e-05)
(3.10974 7.39093e-05 3.38948e-05)
(3.10968 9.8976e-05 4.23695e-05)
(3.10957 0.000140042 6.03103e-05)
(3.10944 0.000177296 7.29445e-05)
(3.1093 0.000207448 8.06741e-05)
(3.10915 0.000227251 8.48403e-05)
(3.10901 0.000233391 8.66694e-05)
(3.10886 0.00022791 8.62408e-05)
(3.10872 0.000203028 8.17815e-05)
(3.10859 0.000163263 7.37796e-05)
(3.1085 0.000113599 6.38357e-05)
(3.10845 6.15445e-05 5.32044e-05)
(3.10842 8.86035e-06 3.91423e-05)
(3.10844 -4.11398e-05 2.02023e-05)
(3.10848 -8.47629e-05 2.70468e-07)
(3.10855 -0.000122624 -2.2927e-05)
(3.10864 -0.000155089 -4.74902e-05)
(3.10874 -0.000183612 -7.2801e-05)
(3.10885 -0.000211647 -9.70195e-05)
(3.10896 -0.000245634 -0.000119256)
(3.10907 -0.000297128 -0.000142417)
(3.10921 -0.000379126 -0.000171037)
(3.10939 -0.000495438 -0.000211066)
(3.10959 -0.00064627 -0.000261471)
(3.10977 -0.000847214 -0.000336457)
(3.10989 -0.00113551 -0.000455549)
(3.10993 -0.00156001 -0.000631938)
(3.10989 -0.00217277 -0.000886218)
(3.1097 -0.00304371 -0.0012524)
(3.10925 -0.00429278 -0.00177734)
(3.10841 -0.00609416 -0.00254615)
(3.10697 -0.00871368 -0.00367967)
(3.10466 -0.0125489 -0.00535156)
(3.10105 -0.0181962 -0.00783102)
(3.09555 -0.0265546 -0.0115262)
(3.0873 -0.0390068 -0.0170728)
(3.07513 -0.0576958 -0.0254654)
(3.05733 -0.0859722 -0.038287)
(3.03147 -0.129369 -0.0582352)
(2.9951 -0.19742 -0.0898923)
(2.94407 -0.303941 -0.140633)
(2.86849 -0.474003 -0.22343)
(2.79812 -0.80574 -0.405668)
(2.7862 -1.40003 -0.86632)
(2.43003 -1.66294 -0.545057)
(2.27288 -1.89402 1.01429)
(2.77389 -1.71343 1.8642)
(3.10928 3.21472e-05 1.30261e-05)
(3.10916 6.18775e-05 2.53412e-05)
(3.10909 8.66742e-05 3.47269e-05)
(3.10895 0.00012506 4.73591e-05)
(3.1088 0.000162059 5.54231e-05)
(3.10863 0.000192198 5.92252e-05)
(3.10846 0.000212617 5.98887e-05)
(3.10829 0.000218352 5.96746e-05)
(3.10811 0.000212714 5.98275e-05)
(3.10793 0.000187636 5.84674e-05)
(3.10778 0.00014972 5.67896e-05)
(3.10767 0.000102115 5.46363e-05)
(3.1076 5.31765e-05 5.09803e-05)
(3.10757 3.32568e-06 4.13444e-05)
(3.10758 -4.28718e-05 2.68354e-05)
(3.10763 -8.22064e-05 8.05717e-06)
(3.10772 -0.000117738 -1.36798e-05)
(3.10782 -0.000148848 -3.8201e-05)
(3.10794 -0.000175261 -6.35733e-05)
(3.10807 -0.000201207 -8.96209e-05)
(3.10821 -0.000232458 -0.000113148)
(3.10835 -0.000280628 -0.000137611)
(3.10853 -0.000359425 -0.000167555)
(3.10877 -0.000475521 -0.000208253)
(3.10905 -0.000631886 -0.000258448)
(3.10933 -0.000845437 -0.000330929)
(3.10955 -0.00115262 -0.000448603)
(3.10973 -0.00160309 -0.000632234)
(3.10987 -0.00225166 -0.000903714)
(3.10991 -0.00317815 -0.00130101)
(3.10977 -0.00450647 -0.0018791)
(3.10934 -0.00642516 -0.00272455)
(3.10847 -0.00921474 -0.00396978)
(3.10695 -0.0132903 -0.00580741)
(3.10448 -0.0192708 -0.00853232)
(3.10063 -0.0280843 -0.0125931)
(3.09481 -0.041141 -0.0186837)
(3.08629 -0.060591 -0.0278906)
(3.07411 -0.0897238 -0.041891)
(3.05718 -0.133799 -0.0634984)
(3.03529 -0.201367 -0.0974792)
(3.00831 -0.304448 -0.151411)
(2.97438 -0.464667 -0.234566)
(2.98116 -0.742893 -0.38)
(3.13391 -1.09776 -0.766627)
(3.03528 -1.0748 -0.9281)
(2.80194 -1.09463 0.290892)
(3.11354 -0.960223 1.05193)
(3.10898 2.50215e-05 2.93183e-06)
(3.10886 4.86429e-05 6.89167e-06)
(3.10879 7.062e-05 1.28056e-05)
(3.10864 0.000102971 1.98219e-05)
(3.10849 0.000136108 2.63978e-05)
(3.10831 0.000164129 3.10582e-05)
(3.10814 0.000184427 3.31205e-05)
(3.10796 0.000189775 3.28144e-05)
(3.10777 0.000184787 3.29159e-05)
(3.10759 0.000161327 3.31016e-05)
(3.10743 0.000127557 3.5516e-05)
(3.10732 8.49299e-05 3.90432e-05)