/*--------------------------------*- C++ -*----------------------------------*\
| =========                 |                                                 |
| \\      /  F ield         | OpenFOAM: The Open Source CFD Toolbox           |
|  \\    /   O peration     | Version:  4.1                                   |
|   \\  /    A nd           | Web:      www.OpenFOAM.org                      |
|    \\/     M anipulation  |                                                 |
\*---------------------------------------------------------------------------*/
FoamFile
{
    version     2.0;
    format      ascii;
    class       volVectorField;
    location    "0.0047";
    object      cellDisplacement;
}
// * * * * * * * * * * * * * * * * * * * * * * * * * * * * * * * * * * * * * //

dimensions      [0 1 0 0 0 0 0];

internalField   nonuniform List<vector> 
1536
(
(-6.2826e-05 -3.1344e-05 1.0969e-08)
(-6.1033e-05 -3.6055e-05 1.2611e-08)
(-5.8746e-05 -4.0981e-05 1.4324e-08)
(-5.5994e-05 -4.6034e-05 1.6064e-08)
(-5.2847e-05 -5.1047e-05 1.777e-08)
(-4.9407e-05 -5.5721e-05 1.935e-08)
(-4.5783e-05 -5.9642e-05 2.0659e-08)
(-4.206e-05 -6.2364e-05 2.1547e-08)
(-3.8276e-05 -6.3529e-05 2.1903e-08)
(-3.4426e-05 -6.2974e-05 2.1689e-08)
(-3.0511e-05 -6.0776e-05 2.0974e-08)
(-2.66e-05 -5.7203e-05 1.982e-08)
(-6.2721e-05 -2.7615e-05 4.6221e-06)
(-6.093e-05 -3.1753e-05 5.3133e-06)
(-5.8649e-05 -3.6077e-05 6.0353e-06)
(-5.5912e-05 -4.0504e-05 6.7739e-06)
(-5.2786e-05 -4.4882e-05 7.504e-06)
(-4.9367e-05 -4.8951e-05 8.1823e-06)
(-4.576e-05 -5.2354e-05 8.7492e-06)
(-4.2046e-05 -5.4711e-05 9.1415e-06)
(-3.8263e-05 -5.5718e-05 9.3083e-06)
(-3.4416e-05 -5.5235e-05 9.2267e-06)
(-3.0516e-05 -5.3326e-05 8.9074e-06)
(-2.6633e-05 -5.0209e-05 8.3871e-06)
(-6.2648e-05 -2.3436e-05 9.3757e-06)
(-6.0858e-05 -2.6941e-05 1.0776e-05)
(-5.8582e-05 -3.0602e-05 1.2239e-05)
(-5.5855e-05 -3.4345e-05 1.3734e-05)
(-5.2743e-05 -3.8039e-05 1.5209e-05)
(-4.9339e-05 -4.1465e-05 1.6576e-05)
(-4.5743e-05 -4.4324e-05 1.7716e-05)
(-4.2035e-05 -4.6301e-05 1.8505e-05)
(-3.8255e-05 -4.7144e-05 1.884e-05)
(-3.4411e-05 -4.6737e-05 1.8676e-05)
(-3.0522e-05 -4.5131e-05 1.8034e-05)
(-2.6657e-05 -4.2502e-05 1.6983e-05)
(-6.261e-05 -1.8925e-05 1.4195e-05)
(-6.0821e-05 -2.1752e-05 1.6315e-05)
(-5.8548e-05 -2.4704e-05 1.8528e-05)
(-5.5826e-05 -2.772e-05 2.0789e-05)
(-5.2721e-05 -3.0694e-05 2.3018e-05)
(-4.9324e-05 -3.3448e-05 2.5081e-05)
(-4.5735e-05 -3.5744e-05 2.6802e-05)
(-4.203e-05 -3.733e-05 2.799e-05)
(-3.8251e-05 -3.8005e-05 2.8496e-05)
(-3.4409e-05 -3.7677e-05 2.825e-05)
(-3.0525e-05 -3.6385e-05 2.7281e-05)
(-2.667e-05 -3.4269e-05 2.5694e-05)
(-6.261e-05 -1.4194e-05 1.8926e-05)
(-6.0821e-05 -1.6314e-05 2.1753e-05)
(-5.8548e-05 -1.8526e-05 2.4705e-05)
(-5.5826e-05 -2.0787e-05 2.7721e-05)
(-5.2721e-05 -2.3016e-05 3.0695e-05)
(-4.9324e-05 -2.5079e-05 3.3449e-05)
(-4.5735e-05 -2.68e-05 3.5745e-05)
(-4.203e-05 -2.7988e-05 3.7331e-05)
(-3.825e-05 -2.8494e-05 3.8007e-05)
(-3.4409e-05 -2.8247e-05 3.7679e-05)
(-3.0525e-05 -2.7278e-05 3.6387e-05)
(-2.667e-05 -2.5691e-05 3.4271e-05)
(-6.2648e-05 -9.3744e-06 2.3436e-05)
(-6.0858e-05 -1.0775e-05 2.6941e-05)
(-5.8582e-05 -1.2237e-05 3.0602e-05)
(-5.5855e-05 -1.3732e-05 3.4346e-05)
(-5.2743e-05 -1.5206e-05 3.804e-05)
(-4.9339e-05 -1.6573e-05 4.1466e-05)
(-4.5743e-05 -1.7714e-05 4.4325e-05)
(-4.2035e-05 -1.8502e-05 4.6302e-05)
(-3.8255e-05 -1.8837e-05 4.7145e-05)
(-3.4411e-05 -1.8674e-05 4.6738e-05)
(-3.0522e-05 -1.8031e-05 4.5132e-05)
(-2.6657e-05 -1.698e-05 4.2503e-05)
(-6.2721e-05 -4.6207e-06 2.7615e-05)
(-6.093e-05 -5.3118e-06 3.1753e-05)
(-5.8649e-05 -6.0335e-06 3.6077e-05)
(-5.5912e-05 -6.772e-06 4.0504e-05)
(-5.2786e-05 -7.5018e-06 4.4882e-05)
(-4.9367e-05 -8.1799e-06 4.8951e-05)
(-4.576e-05 -8.7467e-06 5.2354e-05)
(-4.2046e-05 -9.1388e-06 5.4711e-05)
(-3.8263e-05 -9.3055e-06 5.5718e-05)
(-3.4416e-05 -9.2238e-06 5.5235e-05)
(-3.0516e-05 -8.9046e-06 5.3326e-05)
(-2.6633e-05 -8.3843e-06 5.021e-05)
(-6.2826e-05 -9.8218e-09 3.1344e-05)
(-6.1033e-05 -1.1285e-08 3.6055e-05)
(-5.8745e-05 -1.2814e-08 4.0981e-05)
(-5.5994e-05 -1.438e-08 4.6034e-05)
(-5.2847e-05 -1.5929e-08 5.1046e-05)
(-4.9406e-05 -1.7348e-08 5.572e-05)
(-4.5783e-05 -1.8493e-08 5.9641e-05)
(-4.206e-05 -1.9241e-08 6.2363e-05)
(-3.8276e-05 -1.9488e-08 6.3528e-05)
(-3.4425e-05 -1.9208e-08 6.2973e-05)
(-3.0511e-05 -1.8483e-08 6.0776e-05)
(-2.66e-05 -1.737e-08 5.7203e-05)
(-6.2721e-05 -2.7613e-05 -4.6031e-06)
(-6.093e-05 -3.1752e-05 -5.2915e-06)
(-5.8649e-05 -3.6076e-05 -6.0105e-06)
(-5.5912e-05 -4.0502e-05 -6.7462e-06)
(-5.2786e-05 -4.488e-05 -7.4734e-06)
(-4.9367e-05 -4.8949e-05 -8.1489e-06)
(-4.576e-05 -5.2352e-05 -8.7137e-06)
(-4.2046e-05 -5.4709e-05 -9.1044e-06)
(-3.8263e-05 -5.5716e-05 -9.2707e-06)
(-3.4416e-05 -5.5233e-05 -9.1894e-06)
(-3.0516e-05 -5.3324e-05 -8.8713e-06)
(-2.6633e-05 -5.0207e-05 -8.353e-06)
(-6.2608e-05 -2.3691e-05 2.1282e-08)
(-6.0818e-05 -2.723e-05 2.4453e-08)
(-5.8545e-05 -3.0925e-05 2.7761e-08)
(-5.5824e-05 -3.47e-05 3.1122e-08)
(-5.2718e-05 -3.8421e-05 3.4409e-08)
(-4.9322e-05 -4.1867e-05 3.7427e-08)
(-4.5733e-05 -4.474e-05 3.9914e-08)
(-4.2028e-05 -4.6725e-05 4.1605e-08)
(-3.8249e-05 -4.7572e-05 4.2294e-08)
(-3.4408e-05 -4.7164e-05 4.1899e-08)
(-3.0524e-05 -4.555e-05 4.0506e-08)
(-2.667e-05 -4.2905e-05 3.8223e-08)
(-6.253e-05 -1.9383e-05 4.8623e-06)
(-6.0742e-05 -2.2273e-05 5.5866e-06)
(-5.8475e-05 -2.5289e-05 6.3423e-06)
(-5.5763e-05 -2.8366e-05 7.1133e-06)
(-5.2672e-05 -3.1393e-05 7.8716e-06)
(-4.9291e-05 -3.419e-05 8.5721e-06)
(-4.5714e-05 -3.6518e-05 9.1548e-06)
(-4.2016e-05 -3.8123e-05 9.5567e-06)
(-3.824e-05 -3.8807e-05 9.7275e-06)
(-3.4403e-05 -3.8476e-05 9.6441e-06)
(-3.0531e-05 -3.7167e-05 9.3158e-06)
(-2.6696e-05 -3.5016e-05 8.7765e-06)
(-6.2491e-05 -1.4727e-05 9.8267e-06)
(-6.0703e-05 -1.692e-05 1.129e-05)
(-5.8439e-05 -1.9208e-05 1.2816e-05)
(-5.5733e-05 -2.1541e-05 1.4372e-05)
(-5.2649e-05 -2.3834e-05 1.5901e-05)
(-4.9275e-05 -2.5951e-05 1.7312e-05)
(-4.5704e-05 -2.7709e-05 1.8485e-05)
(-4.2009e-05 -2.8922e-05 1.9294e-05)
(-3.8235e-05 -2.9437e-05 1.9637e-05)
(-3.44e-05 -2.9187e-05 1.947e-05)
(-3.0534e-05 -2.8196e-05 1.8809e-05)
(-2.6709e-05 -2.6567e-05 1.7722e-05)
(-6.2491e-05 -9.8249e-06 1.4728e-05)
(-6.0703e-05 -1.1288e-05 1.6922e-05)
(-5.8439e-05 -1.2814e-05 1.921e-05)
(-5.5733e-05 -1.4369e-05 2.1543e-05)
(-5.2649e-05 -1.5898e-05 2.3836e-05)
(-4.9275e-05 -1.7309e-05 2.5953e-05)
(-4.5704e-05 -1.8482e-05 2.7712e-05)
(-4.2009e-05 -1.929e-05 2.8924e-05)
(-3.8235e-05 -1.9634e-05 2.944e-05)
(-3.44e-05 -1.9466e-05 2.9189e-05)
(-3.0534e-05 -1.8805e-05 2.8199e-05)
(-2.6709e-05 -1.7719e-05 2.6569e-05)
(-6.253e-05 -4.8602e-06 1.9384e-05)
(-6.0741e-05 -5.5842e-06 2.2274e-05)
(-5.8475e-05 -6.3396e-06 2.5289e-05)
(-5.5763e-05 -7.1102e-06 2.8367e-05)
(-5.2672e-05 -7.8682e-06 3.1394e-05)
(-4.9291e-05 -8.5685e-06 3.4191e-05)
(-4.5714e-05 -9.151e-06 3.6519e-05)
(-4.2016e-05 -9.5526e-06 3.8125e-05)
(-3.824e-05 -9.7233e-06 3.8808e-05)
(-3.4403e-05 -9.6399e-06 3.8477e-05)
(-3.0531e-05 -9.3116e-06 3.7169e-05)
(-2.6696e-05 -8.7724e-06 3.5018e-05)
(-6.2608e-05 -1.9108e-08 2.3691e-05)
(-6.0818e-05 -2.1965e-08 2.723e-05)
(-5.8545e-05 -2.4944e-08 3.0924e-05)
(-5.5824e-05 -2.798e-08 3.4699e-05)
(-5.2718e-05 -3.0957e-08 3.8421e-05)
(-4.9322e-05 -3.3683e-08 4.1867e-05)
(-4.5733e-05 -3.5908e-08 4.474e-05)
(-4.2028e-05 -3.7393e-08 4.6725e-05)
(-3.8249e-05 -3.7948e-08 4.7572e-05)
(-3.4408e-05 -3.7509e-08 4.7164e-05)
(-3.0524e-05 -3.6172e-08 4.555e-05)
(-2.667e-05 -3.4038e-08 4.2906e-05)
(-6.2721e-05 4.6049e-06 2.7613e-05)
(-6.093e-05 5.2936e-06 3.1751e-05)
(-5.8649e-05 6.0128e-06 3.6075e-05)
(-5.5912e-05 6.7488e-06 4.0502e-05)
(-5.2786e-05 7.4762e-06 4.4879e-05)
(-4.9367e-05 8.152e-06 4.8948e-05)
(-4.576e-05 8.717e-06 5.2351e-05)
(-4.2046e-05 9.1079e-06 5.4708e-05)
(-3.8263e-05 9.2742e-06 5.5715e-05)
(-3.4416e-05 9.193e-06 5.5232e-05)
(-3.0516e-05 8.8749e-06 5.3323e-05)
(-2.6633e-05 8.3565e-06 5.0207e-05)
(-6.2648e-05 -2.3439e-05 -9.378e-06)
(-6.0858e-05 -2.6944e-05 -1.0779e-05)
(-5.8583e-05 -3.0606e-05 -1.2242e-05)
(-5.5856e-05 -3.435e-05 -1.3737e-05)
(-5.2743e-05 -3.8045e-05 -1.5213e-05)
(-4.9339e-05 -4.1471e-05 -1.658e-05)
(-4.5743e-05 -4.433e-05 -1.7721e-05)
(-4.2035e-05 -4.6308e-05 -1.851e-05)
(-3.8255e-05 -4.7151e-05 -1.8845e-05)
(-3.4411e-05 -4.6744e-05 -1.8682e-05)
(-3.0522e-05 -4.5137e-05 -1.8039e-05)
(-2.6657e-05 -4.2508e-05 -1.6988e-05)
(-6.253e-05 -1.938e-05 -4.8429e-06)
(-6.0742e-05 -2.227e-05 -5.5643e-06)
(-5.8475e-05 -2.5285e-05 -6.317e-06)
(-5.5763e-05 -2.8362e-05 -7.085e-06)
(-5.2673e-05 -3.1389e-05 -7.8404e-06)
(-4.9291e-05 -3.4186e-05 -8.5382e-06)
(-4.5714e-05 -3.6513e-05 -9.1188e-06)
(-4.2016e-05 -3.8118e-05 -9.5191e-06)
(-3.824e-05 -3.8802e-05 -9.6893e-06)
(-3.4403e-05 -3.8471e-05 -9.6062e-06)
(-3.0531e-05 -3.7162e-05 -9.2791e-06)
(-2.6696e-05 -3.5011e-05 -8.7419e-06)
(-6.2449e-05 -1.4939e-05 1.6545e-08)
(-6.0662e-05 -1.7163e-05 1.8989e-08)
(-5.8401e-05 -1.9482e-05 2.154e-08)
(-5.57e-05 -2.1845e-05 2.4129e-08)
(-5.2624e-05 -2.4166e-05 2.6652e-08)
(-4.9258e-05 -2.6306e-05 2.8958e-08)
(-4.5693e-05 -2.8082e-05 3.0857e-08)
(-4.2002e-05 -2.9306e-05 3.2157e-08)
(-3.823e-05 -2.9827e-05 3.2707e-08)
(-3.4398e-05 -2.9574e-05 3.2436e-08)
(-3.0538e-05 -2.8574e-05 3.1371e-08)
(-2.6723e-05 -2.6925e-05 2.9591e-08)
(-6.2408e-05 -1.0149e-05 5.0976e-06)
(-6.0622e-05 -1.1658e-05 5.8554e-06)
(-5.8363e-05 -1.3231e-05 6.6457e-06)
(-5.5668e-05 -1.4834e-05 7.4506e-06)
(-5.2599e-05 -1.6407e-05 8.2401e-06)
(-4.9241e-05 -1.7854e-05 8.967e-06)
(-4.5682e-05 -1.9055e-05 9.5701e-06)
(-4.1995e-05 -1.9882e-05 9.9852e-06)
(-3.8225e-05 -2.0233e-05 1.0162e-05)
(-3.4396e-05 -2.0062e-05 1.0075e-05)
(-3.0542e-05 -1.9385e-05 9.7355e-06)
(-2.6737e-05 -1.8269e-05 9.1747e-06)
(-6.2408e-05 -5.095e-06 1.0151e-05)
(-6.0622e-05 -5.8525e-06 1.166e-05)
(-5.8363e-05 -6.6424e-06 1.3234e-05)
(-5.5668e-05 -7.4469e-06 1.4837e-05)
(-5.2599e-05 -8.236e-06 1.641e-05)
(-4.9241e-05 -8.9627e-06 1.7858e-05)
(-4.5682e-05 -9.5654e-06 1.9059e-05)
(-4.1995e-05 -9.9803e-06 1.9886e-05)
(-3.8225e-05 -1.0156e-05 2.0237e-05)
(-3.4396e-05 -1.007e-05 2.0066e-05)
(-3.0542e-05 -9.7305e-06 1.9389e-05)
(-2.6737e-05 -9.1699e-06 1.8272e-05)
(-6.2449e-05 -1.3327e-08 1.494e-05)
(-6.0662e-05 -1.5314e-08 1.7164e-05)
(-5.8401e-05 -1.7385e-08 1.9483e-05)
(-5.57e-05 -1.9492e-08 2.1847e-05)
(-5.2624e-05 -2.155e-08 2.4168e-05)
(-4.9258e-05 -2.3427e-08 2.6308e-05)
(-4.5693e-05 -2.496e-08 2.8084e-05)
(-4.2002e-05 -2.5986e-08 2.9308e-05)
(-3.823e-05 -2.6379e-08 2.9829e-05)
(-3.4398e-05 -2.6088e-08 2.9576e-05)
(-3.0538e-05 -2.5145e-08 2.8576e-05)
(-2.6723e-05 -2.3627e-08 2.6928e-05)
(-6.253e-05 4.8464e-06 1.938e-05)
(-6.0742e-05 5.5684e-06 2.2269e-05)
(-5.8475e-05 6.3217e-06 2.5284e-05)
(-5.5763e-05 7.0902e-06 2.8361e-05)
(-5.2672e-05 7.846e-06 3.1388e-05)
(-4.9291e-05 8.5444e-06 3.4185e-05)
(-4.5714e-05 9.1253e-06 3.6512e-05)
(-4.2016e-05 9.526e-06 3.8117e-05)
(-3.824e-05 9.6963e-06 3.8801e-05)
(-3.4403e-05 9.6132e-06 3.847e-05)
(-3.0531e-05 9.286e-06 3.7162e-05)
(-2.6696e-05 8.7484e-06 3.5011e-05)
(-6.2648e-05 9.3807e-06 2.3438e-05)
(-6.0858e-05 1.0782e-05 2.6943e-05)
(-5.8583e-05 1.2245e-05 3.0604e-05)
(-5.5856e-05 1.3741e-05 3.4348e-05)
(-5.2743e-05 1.5217e-05 3.8043e-05)
(-4.9339e-05 1.6585e-05 4.1469e-05)
(-4.5743e-05 1.7726e-05 4.4328e-05)
(-4.2035e-05 1.8515e-05 4.6306e-05)
(-3.8255e-05 1.8851e-05 4.7149e-05)
(-3.4411e-05 1.8687e-05 4.6742e-05)
(-3.0522e-05 1.8044e-05 4.5135e-05)
(-2.6657e-05 1.6993e-05 4.2506e-05)
(-6.2611e-05 -1.8924e-05 -1.4194e-05)
(-6.0821e-05 -2.1751e-05 -1.6314e-05)
(-5.8549e-05 -2.4702e-05 -1.8527e-05)
(-5.5827e-05 -2.7718e-05 -2.0787e-05)
(-5.2721e-05 -3.0692e-05 -2.3016e-05)
(-4.9325e-05 -3.3446e-05 -2.508e-05)
(-4.5735e-05 -3.5742e-05 -2.6801e-05)
(-4.203e-05 -3.7328e-05 -2.7989e-05)
(-3.8251e-05 -3.8003e-05 -2.8495e-05)
(-3.4409e-05 -3.7675e-05 -2.8248e-05)
(-3.0525e-05 -3.6383e-05 -2.7279e-05)
(-2.667e-05 -3.4267e-05 -2.5692e-05)
(-6.2491e-05 -1.4717e-05 -9.8233e-06)
(-6.0703e-05 -1.6909e-05 -1.1286e-05)
(-5.8439e-05 -1.9195e-05 -1.2812e-05)
(-5.5733e-05 -2.1527e-05 -1.4367e-05)
(-5.2649e-05 -2.3818e-05 -1.5896e-05)
(-4.9275e-05 -2.5933e-05 -1.7307e-05)
(-4.5704e-05 -2.7691e-05 -1.848e-05)
(-4.201e-05 -2.8902e-05 -1.9288e-05)
(-3.8235e-05 -2.9418e-05 -1.9631e-05)
(-3.44e-05 -2.9167e-05 -1.9464e-05)
(-3.0534e-05 -2.8178e-05 -1.8803e-05)
(-2.6709e-05 -2.6549e-05 -1.7716e-05)
(-6.2408e-05 -1.0144e-05 -5.0836e-06)
(-6.0622e-05 -1.1652e-05 -5.8394e-06)
(-5.8363e-05 -1.3225e-05 -6.6276e-06)
(-5.5668e-05 -1.4827e-05 -7.4304e-06)
(-5.2599e-05 -1.6399e-05 -8.2178e-06)
(-4.9241e-05 -1.7846e-05 -8.9429e-06)
(-4.5682e-05 -1.9046e-05 -9.5444e-06)
(-4.1995e-05 -1.9873e-05 -9.9584e-06)
(-3.8225e-05 -2.0224e-05 -1.0134e-05)
(-3.4396e-05 -2.0053e-05 -1.0048e-05)
(-3.0542e-05 -1.9376e-05 -9.7093e-06)
(-2.6737e-05 -1.826e-05 -9.15e-06)
(-6.2366e-05 -5.198e-06 5.1375e-09)
(-6.058e-05 -5.9704e-06 5.8632e-09)
(-5.8325e-05 -6.7757e-06 6.617e-09)
(-5.5635e-05 -7.5955e-06 7.3766e-09)
(-5.2573e-05 -8.3988e-06 8.1112e-09)
(-4.9223e-05 -9.1377e-06 8.7788e-09)
(-4.567e-05 -9.7502e-06 9.3306e-09)
(-4.1987e-05 -1.0171e-05 9.7174e-09)
(-3.8219e-05 -1.035e-05 9.8949e-09)
(-3.4393e-05 -1.0263e-05 9.8381e-09)
(-3.0546e-05 -9.9176e-06 9.5494e-09)
(-2.6752e-05 -9.347e-06 9.0432e-09)
(-6.2366e-05 -1.7631e-09 5.2011e-06)
(-6.058e-05 -2.0156e-09 5.9738e-06)
(-5.8325e-05 -2.2719e-09 6.7796e-06)
(-5.5635e-05 -2.5283e-09 7.5998e-06)
(-5.2573e-05 -2.7759e-09 8.4036e-06)
(-4.9223e-05 -2.9982e-09 9.1429e-06)
(-4.567e-05 -3.1747e-09 9.7557e-06)
(-4.1987e-05 -3.2849e-09 1.0177e-05)
(-3.8219e-05 -3.3081e-09 1.0356e-05)
(-3.4393e-05 -3.2372e-09 1.0269e-05)
(-3.0546e-05 -3.0824e-09 9.9235e-06)
(-2.6752e-05 -2.855e-09 9.3527e-06)
(-6.2408e-05 5.0883e-06 1.0146e-05)
(-6.0622e-05 5.8448e-06 1.1655e-05)
(-5.8363e-05 6.6337e-06 1.3228e-05)
(-5.5668e-05 7.4372e-06 1.4831e-05)
(-5.2599e-05 8.2253e-06 1.6403e-05)
(-4.9241e-05 8.951e-06 1.785e-05)
(-4.5682e-05 9.553e-06 1.9051e-05)
(-4.1995e-05 9.9674e-06 1.9877e-05)
(-3.8225e-05 1.0144e-05 2.0229e-05)
(-3.4396e-05 1.0058e-05 2.0057e-05)
(-3.0542e-05 9.7183e-06 1.9381e-05)
(-2.6737e-05 9.1585e-06 1.8265e-05)
(-6.2491e-05 9.8296e-06 1.4716e-05)
(-6.0703e-05 1.1293e-05 1.6907e-05)
(-5.8439e-05 1.282e-05 1.9193e-05)
(-5.5733e-05 1.4376e-05 2.1525e-05)
(-5.2649e-05 1.5906e-05 2.3816e-05)
(-4.9275e-05 1.7318e-05 2.5931e-05)
(-4.5704e-05 1.8491e-05 2.7688e-05)
(-4.2009e-05 1.93e-05 2.89e-05)
(-3.8235e-05 1.9644e-05 2.9415e-05)
(-3.44e-05 1.9476e-05 2.9165e-05)
(-3.0534e-05 1.8815e-05 2.8175e-05)
(-2.6709e-05 1.7728e-05 2.6547e-05)
(-6.2611e-05 1.4198e-05 1.8922e-05)
(-6.0821e-05 1.6318e-05 2.1748e-05)
(-5.8548e-05 1.8532e-05 2.47e-05)
(-5.5827e-05 2.0793e-05 2.7715e-05)
(-5.2721e-05 2.3022e-05 3.0688e-05)
(-4.9324e-05 2.5087e-05 3.3442e-05)
(-4.5735e-05 2.6808e-05 3.5737e-05)
(-4.203e-05 2.7996e-05 3.7323e-05)
(-3.8251e-05 2.8502e-05 3.7999e-05)
(-3.4409e-05 2.8256e-05 3.7671e-05)
(-3.0525e-05 2.7286e-05 3.6379e-05)
(-2.667e-05 2.5699e-05 3.4264e-05)
(-6.2611e-05 -1.4195e-05 -1.8923e-05)
(-6.0821e-05 -1.6315e-05 -2.1749e-05)
(-5.8549e-05 -1.8528e-05 -2.4701e-05)
(-5.5827e-05 -2.0789e-05 -2.7717e-05)
(-5.2721e-05 -2.3018e-05 -3.069e-05)
(-4.9325e-05 -2.5082e-05 -3.3444e-05)
(-4.5735e-05 -2.6803e-05 -3.574e-05)
(-4.203e-05 -2.7991e-05 -3.7326e-05)
(-3.8251e-05 -2.8497e-05 -3.8001e-05)
(-3.4409e-05 -2.825e-05 -3.7674e-05)
(-3.0525e-05 -2.7281e-05 -3.6382e-05)
(-2.667e-05 -2.5694e-05 -3.4265e-05)
(-6.2491e-05 -9.8253e-06 -1.4715e-05)
(-6.0703e-05 -1.1288e-05 -1.6907e-05)
(-5.8439e-05 -1.2814e-05 -1.9193e-05)
(-5.5733e-05 -1.437e-05 -2.1525e-05)
(-5.2649e-05 -1.5899e-05 -2.3816e-05)
(-4.9275e-05 -1.731e-05 -2.5931e-05)
(-4.5704e-05 -1.8483e-05 -2.7688e-05)
(-4.201e-05 -1.9291e-05 -2.89e-05)
(-3.8235e-05 -1.9635e-05 -2.9415e-05)
(-3.44e-05 -1.9467e-05 -2.9165e-05)
(-3.0534e-05 -1.8806e-05 -2.8175e-05)
(-2.6709e-05 -1.772e-05 -2.6547e-05)
(-6.2408e-05 -5.0863e-06 -1.0142e-05)
(-6.0622e-05 -5.8425e-06 -1.165e-05)
(-5.8363e-05 -6.6311e-06 -1.3222e-05)
(-5.5668e-05 -7.4342e-06 -1.4824e-05)
(-5.2599e-05 -8.222e-06 -1.6396e-05)
(-4.9241e-05 -8.9473e-06 -1.7842e-05)
(-4.5682e-05 -9.5491e-06 -1.9043e-05)
(-4.1995e-05 -9.9633e-06 -1.9869e-05)
(-3.8225e-05 -1.0139e-05 -2.022e-05)
(-3.4396e-05 -1.0053e-05 -2.0049e-05)
(-3.0542e-05 -9.7141e-06 -1.9373e-05)
(-2.6737e-05 -9.1544e-06 -1.8257e-05)
(-6.2366e-05 1.642e-09 -5.1947e-06)
(-6.058e-05 1.9029e-09 -5.9667e-06)
(-5.8325e-05 2.184e-09 -6.7715e-06)
(-5.5635e-05 2.4761e-09 -7.5909e-06)
(-5.2573e-05 2.7651e-09 -8.3938e-06)
(-4.9223e-05 3.0323e-09 -9.1324e-06)
(-4.567e-05 3.2539e-09 -9.7445e-06)
(-4.1988e-05 3.4082e-09 -1.0166e-05)
(-3.8219e-05 3.4861e-09 -1.0344e-05)
(-3.4393e-05 3.4821e-09 -1.0257e-05)
(-3.0547e-05 3.3936e-09 -9.9119e-06)
(-2.6752e-05 3.2285e-09 -9.3417e-06)
(-6.2366e-05 5.1979e-06 2.9264e-09)
(-6.058e-05 5.9702e-06 3.3191e-09)
(-5.8325e-05 6.7756e-06 3.7252e-09)
(-5.5635e-05 7.5954e-06 4.131e-09)
(-5.2573e-05 8.3988e-06 4.5201e-09)
(-4.9223e-05 9.1377e-06 4.8723e-09)
(-4.567e-05 9.7502e-06 5.167e-09)
(-4.1988e-05 1.0172e-05 5.3831e-09)
(-3.8219e-05 1.035e-05 5.4951e-09)
(-3.4393e-05 1.0263e-05 5.4867e-09)
(-3.0547e-05 9.9179e-06 5.3566e-09)
(-2.6752e-05 9.3474e-06 5.1074e-09)
(-6.2408e-05 1.0147e-05 5.0933e-06)
(-6.0622e-05 1.1656e-05 5.8504e-06)
(-5.8363e-05 1.323e-05 6.64e-06)
(-5.5668e-05 1.4833e-05 7.4443e-06)
(-5.2599e-05 1.6405e-05 8.233e-06)
(-4.9241e-05 1.7852e-05 8.9594e-06)
(-4.5682e-05 1.9053e-05 9.5619e-06)
(-4.1995e-05 1.988e-05 9.9767e-06)
(-3.8225e-05 2.0231e-05 1.0153e-05)
(-3.4396e-05 2.006e-05 1.0067e-05)
(-3.0542e-05 1.9383e-05 9.7273e-06)
(-2.6737e-05 1.8267e-05 9.167e-06)
(-6.2491e-05 1.4728e-05 9.8204e-06)
(-6.0703e-05 1.6922e-05 1.1282e-05)
(-5.8439e-05 1.921e-05 1.2808e-05)
(-5.5733e-05 2.1544e-05 1.4363e-05)
(-5.2649e-05 2.3837e-05 1.5891e-05)
(-4.9275e-05 2.5953e-05 1.7301e-05)
(-4.5704e-05 2.7712e-05 1.8474e-05)
(-4.2009e-05 2.8925e-05 1.9281e-05)
(-3.8235e-05 2.9441e-05 1.9625e-05)
(-3.44e-05 2.919e-05 1.9457e-05)
(-3.0534e-05 2.82e-05 1.8797e-05)
(-2.6709e-05 2.657e-05 1.7711e-05)
(-6.2611e-05 1.8927e-05 1.4191e-05)
(-6.0821e-05 2.1754e-05 1.631e-05)
(-5.8548e-05 2.4707e-05 1.8523e-05)
(-5.5826e-05 2.7723e-05 2.0783e-05)
(-5.2721e-05 3.0697e-05 2.3011e-05)
(-4.9324e-05 3.3451e-05 2.5074e-05)
(-4.5735e-05 3.5748e-05 2.6795e-05)
(-4.203e-05 3.7334e-05 2.7983e-05)
(-3.8251e-05 3.8009e-05 2.8488e-05)
(-3.4409e-05 3.7682e-05 2.8242e-05)
(-3.0525e-05 3.639e-05 2.7273e-05)
(-2.667e-05 3.4273e-05 2.5687e-05)
(-6.2648e-05 -9.3794e-06 -2.3438e-05)
(-6.0858e-05 -1.0781e-05 -2.6943e-05)
(-5.8583e-05 -1.2244e-05 -3.0605e-05)
(-5.5856e-05 -1.3739e-05 -3.4348e-05)
(-5.2743e-05 -1.5215e-05 -3.8043e-05)
(-4.9339e-05 -1.6583e-05 -4.147e-05)
(-4.5743e-05 -1.7724e-05 -4.4329e-05)
(-4.2036e-05 -1.8512e-05 -4.6306e-05)
(-3.8255e-05 -1.8848e-05 -4.715e-05)
(-3.4411e-05 -1.8684e-05 -4.6743e-05)
(-3.0522e-05 -1.8041e-05 -4.5136e-05)
(-2.6657e-05 -1.699e-05 -4.2507e-05)
(-6.253e-05 -4.8451e-06 -1.9379e-05)
(-6.0742e-05 -5.5668e-06 -2.2268e-05)
(-5.8475e-05 -6.3198e-06 -2.5284e-05)
(-5.5764e-05 -7.0881e-06 -2.836e-05)
(-5.2673e-05 -7.8437e-06 -3.1387e-05)
(-4.9291e-05 -8.5418e-06 -3.4184e-05)
(-4.5714e-05 -9.1225e-06 -3.6511e-05)
(-4.2016e-05 -9.5231e-06 -3.8116e-05)
(-3.824e-05 -9.6933e-06 -3.88e-05)
(-3.4403e-05 -9.6102e-06 -3.8469e-05)
(-3.0531e-05 -9.283e-06 -3.7161e-05)
(-2.6696e-05 -8.7455e-06 -3.501e-05)
(-6.245e-05 1.3241e-08 -1.4938e-05)
(-6.0662e-05 1.5242e-08 -1.7161e-05)
(-5.8401e-05 1.7339e-08 -1.948e-05)
(-5.57e-05 1.948e-08 -2.1843e-05)
(-5.2624e-05 2.1577e-08 -2.4164e-05)
(-4.9258e-05 2.3499e-08 -2.6303e-05)
(-4.5693e-05 2.5081e-08 -2.808e-05)
(-4.2002e-05 2.6155e-08 -2.9304e-05)
(-3.823e-05 2.6605e-08 -2.9824e-05)
(-3.4398e-05 2.6378e-08 -2.9571e-05)
(-3.0538e-05 2.5499e-08 -2.8571e-05)
(-2.6723e-05 2.404e-08 -2.6923e-05)
(-6.2408e-05 5.0929e-06 -1.0146e-05)
(-6.0622e-05 5.85e-06 -1.1655e-05)
(-5.8363e-05 6.6396e-06 -1.3228e-05)
(-5.5668e-05 7.4439e-06 -1.4831e-05)
(-5.2599e-05 8.2327e-06 -1.6403e-05)
(-4.9241e-05 8.9591e-06 -1.785e-05)
(-4.5682e-05 9.5617e-06 -1.9051e-05)
(-4.1995e-05 9.9764e-06 -1.9877e-05)
(-3.8225e-05 1.0153e-05 -2.0229e-05)
(-3.4396e-05 1.0067e-05 -2.0057e-05)
(-3.0542e-05 9.727e-06 -1.9381e-05)
(-2.6737e-05 9.1666e-06 -1.8264e-05)
(-6.2408e-05 1.0145e-05 -5.0879e-06)
(-6.0622e-05 1.1654e-05 -5.8444e-06)
(-5.8363e-05 1.3227e-05 -6.6332e-06)
(-5.5668e-05 1.4829e-05 -7.4367e-06)
(-5.2599e-05 1.6401e-05 -8.2248e-06)
(-4.9241e-05 1.7848e-05 -8.9505e-06)
(-4.5682e-05 1.9049e-05 -9.5525e-06)
(-4.1995e-05 1.9875e-05 -9.9669e-06)
(-3.8225e-05 2.0226e-05 -1.0143e-05)
(-3.4396e-05 2.0055e-05 -1.0057e-05)
(-3.0542e-05 1.9379e-05 -9.7175e-06)
(-2.6737e-05 1.8263e-05 -9.1576e-06)
(-6.2449e-05 1.4939e-05 1.2315e-08)
(-6.0662e-05 1.7162e-05 1.4124e-08)
(-5.8401e-05 1.9482e-05 1.6012e-08)
(-5.57e-05 2.1845e-05 1.7926e-08)
(-5.2624e-05 2.4166e-05 1.9789e-08)
(-4.9258e-05 2.6306e-05 2.1491e-08)
(-4.5693e-05 2.8082e-05 2.2899e-08)
(-4.2002e-05 2.9306e-05 2.3876e-08)
(-3.823e-05 2.9827e-05 2.4306e-08)
(-3.4398e-05 2.9574e-05 2.4133e-08)
(-3.0538e-05 2.8574e-05 2.338e-08)
(-2.6723e-05 2.6926e-05 2.21e-08)
(-6.253e-05 1.9384e-05 4.8581e-06)
(-6.0742e-05 2.2274e-05 5.5818e-06)
(-5.8475e-05 2.5289e-05 6.3368e-06)
(-5.5763e-05 2.8367e-05 7.1071e-06)
(-5.2672e-05 3.1394e-05 7.8648e-06)
(-4.9291e-05 3.4191e-05 8.5647e-06)
(-4.5714e-05 3.6519e-05 9.147e-06)
(-4.2016e-05 3.8125e-05 9.5485e-06)
(-3.824e-05 3.8808e-05 9.7192e-06)
(-3.4403e-05 3.8477e-05 9.6359e-06)
(-3.0531e-05 3.7169e-05 9.3079e-06)
(-2.6696e-05 3.5018e-05 8.7691e-06)
(-6.2648e-05 2.3437e-05 9.3726e-06)
(-6.0858e-05 2.6942e-05 1.0773e-05)
(-5.8583e-05 3.0603e-05 1.2235e-05)
(-5.5856e-05 3.4346e-05 1.3729e-05)
(-5.2743e-05 3.8041e-05 1.5203e-05)
(-4.9339e-05 4.1467e-05 1.657e-05)
(-4.5743e-05 4.4326e-05 1.7711e-05)
(-4.2035e-05 4.6303e-05 1.8499e-05)
(-3.8255e-05 4.7146e-05 1.8834e-05)
(-3.4411e-05 4.6739e-05 1.867e-05)
(-3.0522e-05 4.5133e-05 1.8028e-05)
(-2.6657e-05 4.2504e-05 1.6978e-05)
(-6.2721e-05 -4.6044e-06 -2.7613e-05)
(-6.093e-05 -5.293e-06 -3.1751e-05)
(-5.865e-05 -6.0122e-06 -3.6075e-05)
(-5.5912e-05 -6.7481e-06 -4.0502e-05)
(-5.2786e-05 -7.4754e-06 -4.488e-05)
(-4.9367e-05 -8.1511e-06 -4.8949e-05)
(-4.576e-05 -8.716e-06 -5.2351e-05)
(-4.2046e-05 -9.1069e-06 -5.4708e-05)
(-3.8264e-05 -9.2731e-06 -5.5715e-05)
(-3.4417e-05 -9.1918e-06 -5.5232e-05)
(-3.0517e-05 -8.8737e-06 -5.3323e-05)
(-2.6634e-05 -8.3552e-06 -5.0207e-05)
(-6.2608e-05 1.9093e-08 -2.369e-05)
(-6.0818e-05 2.1973e-08 -2.7229e-05)
(-5.8545e-05 2.498e-08 -3.0924e-05)
(-5.5824e-05 2.8047e-08 -3.4699e-05)
(-5.2719e-05 3.1058e-08 -3.842e-05)
(-4.9322e-05 3.3827e-08 -4.1866e-05)
(-4.5733e-05 3.6108e-08 -4.4739e-05)
(-4.2028e-05 3.765e-08 -4.6725e-05)
(-3.8249e-05 3.8265e-08 -4.7571e-05)
(-3.4408e-05 3.7889e-08 -4.7163e-05)
(-3.0525e-05 3.6609e-08 -4.555e-05)
(-2.6671e-05 3.4531e-08 -4.2905e-05)
(-6.253e-05 4.8587e-06 -1.9383e-05)
(-6.0742e-05 5.5825e-06 -2.2273e-05)
(-5.8475e-05 6.3377e-06 -2.5289e-05)
(-5.5763e-05 7.1082e-06 -2.8366e-05)
(-5.2672e-05 7.866e-06 -3.1393e-05)
(-4.9291e-05 8.5661e-06 -3.4191e-05)
(-4.5714e-05 9.1485e-06 -3.6518e-05)
(-4.2016e-05 9.5501e-06 -3.8124e-05)
(-3.824e-05 9.7208e-06 -3.8807e-05)
(-3.4403e-05 9.6374e-06 -3.8476e-05)
(-3.0531e-05 9.3093e-06 -3.7167e-05)
(-2.6696e-05 8.7704e-06 -3.5016e-05)
(-6.2491e-05 9.8204e-06 -1.4728e-05)
(-6.0703e-05 1.1282e-05 -1.6921e-05)
(-5.8439e-05 1.2808e-05 -1.9209e-05)
(-5.5733e-05 1.4363e-05 -2.1543e-05)
(-5.2649e-05 1.5891e-05 -2.3836e-05)
(-4.9275e-05 1.7302e-05 -2.5953e-05)
(-4.5704e-05 1.8474e-05 -2.7712e-05)
(-4.201e-05 1.9282e-05 -2.8924e-05)
(-3.8235e-05 1.9625e-05 -2.944e-05)
(-3.4401e-05 1.9458e-05 -2.9189e-05)
(-3.0535e-05 1.8797e-05 -2.8199e-05)
(-2.671e-05 1.7711e-05 -2.6569e-05)
(-6.2491e-05 1.4715e-05 -9.8295e-06)
(-6.0703e-05 1.6907e-05 -1.1293e-05)
(-5.8439e-05 1.9193e-05 -1.282e-05)
(-5.5733e-05 2.1524e-05 -1.4376e-05)
(-5.2649e-05 2.3816e-05 -1.5906e-05)
(-4.9275e-05 2.593e-05 -1.7318e-05)
(-4.5704e-05 2.7688e-05 -1.8491e-05)
(-4.201e-05 2.8899e-05 -1.93e-05)
(-3.8235e-05 2.9415e-05 -1.9644e-05)
(-3.44e-05 2.9164e-05 -1.9476e-05)
(-3.0535e-05 2.8175e-05 -1.8815e-05)
(-2.6709e-05 2.6546e-05 -1.7727e-05)
(-6.253e-05 1.9379e-05 -4.847e-06)
(-6.0742e-05 2.2269e-05 -5.569e-06)
(-5.8475e-05 2.5284e-05 -6.3224e-06)
(-5.5763e-05 2.8361e-05 -7.091e-06)
(-5.2673e-05 3.1388e-05 -7.8471e-06)
(-4.9291e-05 3.4184e-05 -8.5455e-06)
(-4.5714e-05 3.6511e-05 -9.1265e-06)
(-4.2016e-05 3.8117e-05 -9.5272e-06)
(-3.824e-05 3.8801e-05 -9.6975e-06)
(-3.4403e-05 3.847e-05 -9.6143e-06)
(-3.0531e-05 3.7161e-05 -9.2869e-06)
(-2.6696e-05 3.501e-05 -8.7491e-06)
(-6.2608e-05 2.3691e-05 1.8058e-08)
(-6.0818e-05 2.723e-05 2.0744e-08)
(-5.8545e-05 3.0924e-05 2.3549e-08)
(-5.5824e-05 3.4699e-05 2.6392e-08)
(-5.2719e-05 3.8421e-05 2.9165e-08)
(-4.9322e-05 4.1867e-05 3.171e-08)
(-4.5733e-05 4.474e-05 3.3815e-08)
(-4.2028e-05 4.6725e-05 3.5263e-08)
(-3.8249e-05 4.7572e-05 3.5865e-08)
(-3.4408e-05 4.7164e-05 3.5557e-08)
(-3.0524e-05 4.555e-05 3.4428e-08)
(-2.667e-05 4.2906e-05 3.2558e-08)
(-6.2721e-05 2.7615e-05 4.6196e-06)
(-6.093e-05 3.1753e-05 5.3105e-06)
(-5.8649e-05 3.6077e-05 6.0321e-06)
(-5.5912e-05 4.0504e-05 6.7704e-06)
(-5.2786e-05 4.4883e-05 7.5001e-06)
(-4.9367e-05 4.8952e-05 8.1779e-06)
(-4.576e-05 5.2355e-05 8.7446e-06)
(-4.2046e-05 5.4712e-05 9.1367e-06)
(-3.8264e-05 5.5718e-05 9.3035e-06)
(-3.4416e-05 5.5236e-05 9.2219e-06)
(-3.0517e-05 5.3326e-05 8.9029e-06)
(-2.6634e-05 5.021e-05 8.3829e-06)
(-6.2826e-05 9.9075e-09 -3.1344e-05)
(-6.1033e-05 1.1408e-08 -3.6055e-05)
(-5.8746e-05 1.2966e-08 -4.0981e-05)
(-5.5994e-05 1.456e-08 -4.6034e-05)
(-5.2847e-05 1.6132e-08 -5.1046e-05)
(-4.9407e-05 1.759e-08 -5.5721e-05)
(-4.5783e-05 1.8799e-08 -5.9642e-05)
(-4.2061e-05 1.961e-08 -6.2364e-05)
(-3.8277e-05 1.9921e-08 -6.3529e-05)
(-3.4426e-05 1.9705e-08 -6.2974e-05)
(-3.0511e-05 1.9034e-08 -6.0776e-05)
(-2.66e-05 1.7971e-08 -5.7203e-05)
(-6.2721e-05 4.6203e-06 -2.7614e-05)
(-6.093e-05 5.3113e-06 -3.1753e-05)
(-5.8649e-05 6.033e-06 -3.6077e-05)
(-5.5912e-05 6.7715e-06 -4.0504e-05)
(-5.2786e-05 7.5013e-06 -4.4882e-05)
(-4.9367e-05 8.1794e-06 -4.8951e-05)
(-4.576e-05 8.7462e-06 -5.2354e-05)
(-4.2046e-05 9.1383e-06 -5.4711e-05)
(-3.8264e-05 9.3051e-06 -5.5718e-05)
(-3.4417e-05 9.2235e-06 -5.5235e-05)
(-3.0517e-05 8.9043e-06 -5.3326e-05)
(-2.6634e-05 8.3841e-06 -5.021e-05)
(-6.2648e-05 9.373e-06 -2.3436e-05)
(-6.0858e-05 1.0773e-05 -2.6941e-05)
(-5.8583e-05 1.2235e-05 -3.0602e-05)
(-5.5856e-05 1.373e-05 -3.4346e-05)
(-5.2743e-05 1.5204e-05 -3.804e-05)
(-4.9339e-05 1.6571e-05 -4.1466e-05)
(-4.5743e-05 1.7712e-05 -4.4326e-05)
(-4.2036e-05 1.85e-05 -4.6303e-05)
(-3.8255e-05 1.8835e-05 -4.7146e-05)
(-3.4411e-05 1.8672e-05 -4.6739e-05)
(-3.0522e-05 1.8029e-05 -4.5132e-05)
(-2.6658e-05 1.6979e-05 -4.2503e-05)
(-6.2611e-05 1.4191e-05 -1.8927e-05)
(-6.0821e-05 1.631e-05 -2.1754e-05)
(-5.8549e-05 1.8523e-05 -2.4706e-05)
(-5.5827e-05 2.0783e-05 -2.7723e-05)
(-5.2721e-05 2.3012e-05 -3.0697e-05)
(-4.9325e-05 2.5075e-05 -3.3451e-05)
(-4.5735e-05 2.6795e-05 -3.5747e-05)
(-4.203e-05 2.7983e-05 -3.7333e-05)
(-3.8251e-05 2.8489e-05 -3.8009e-05)
(-3.4409e-05 2.8243e-05 -3.7681e-05)
(-3.0525e-05 2.7274e-05 -3.6389e-05)
(-2.667e-05 2.5687e-05 -3.4272e-05)
(-6.2611e-05 1.8922e-05 -1.4198e-05)
(-6.0821e-05 2.1748e-05 -1.6318e-05)
(-5.8549e-05 2.47e-05 -1.8531e-05)
(-5.5827e-05 2.7715e-05 -2.0793e-05)
(-5.2721e-05 3.0689e-05 -2.3022e-05)
(-4.9325e-05 3.3442e-05 -2.5087e-05)
(-4.5735e-05 3.5738e-05 -2.6808e-05)
(-4.203e-05 3.7324e-05 -2.7996e-05)
(-3.8251e-05 3.7999e-05 -2.8502e-05)
(-3.4409e-05 3.7671e-05 -2.8256e-05)
(-3.0525e-05 3.638e-05 -2.7286e-05)
(-2.667e-05 3.4264e-05 -2.5699e-05)
(-6.2648e-05 2.3438e-05 -9.381e-06)
(-6.0858e-05 2.6943e-05 -1.0782e-05)
(-5.8583e-05 3.0604e-05 -1.2246e-05)
(-5.5856e-05 3.4348e-05 -1.3742e-05)
(-5.2743e-05 3.8043e-05 -1.5217e-05)
(-4.9339e-05 4.1469e-05 -1.6586e-05)
(-4.5743e-05 4.4329e-05 -1.7727e-05)
(-4.2036e-05 4.6306e-05 -1.8516e-05)
(-3.8255e-05 4.7149e-05 -1.8851e-05)
(-3.4411e-05 4.6742e-05 -1.8687e-05)
(-3.0522e-05 4.5135e-05 -1.8044e-05)
(-2.6657e-05 4.2506e-05 -1.6993e-05)
(-6.2721e-05 2.7613e-05 -4.6054e-06)
(-6.093e-05 3.1751e-05 -5.2942e-06)
(-5.8649e-05 3.6075e-05 -6.0136e-06)
(-5.5912e-05 4.0502e-05 -6.7496e-06)
(-5.2786e-05 4.488e-05 -7.4772e-06)
(-4.9367e-05 4.8949e-05 -8.1531e-06)
(-4.576e-05 5.2351e-05 -8.7182e-06)
(-4.2046e-05 5.4708e-05 -9.1091e-06)
(-3.8264e-05 5.5715e-05 -9.2754e-06)
(-3.4417e-05 5.5232e-05 -9.194e-06)
(-3.0517e-05 5.3323e-05 -8.8758e-06)
(-2.6634e-05 5.0207e-05 -8.3571e-06)
(-6.2826e-05 3.1344e-05 9.2072e-09)
(-6.1033e-05 3.6055e-05 1.0578e-08)
(-5.8746e-05 4.0981e-05 1.2017e-08)
(-5.5994e-05 4.6034e-05 1.3466e-08)
(-5.2847e-05 5.1046e-05 1.4866e-08)
(-4.9407e-05 5.5721e-05 1.6156e-08)
(-4.5783e-05 5.9642e-05 1.7233e-08)
(-4.2061e-05 6.2364e-05 1.7982e-08)
(-3.8277e-05 6.3529e-05 1.8294e-08)
(-3.4426e-05 6.2974e-05 1.8142e-08)
(-3.0511e-05 6.0776e-05 1.7613e-08)
(-2.66e-05 5.7203e-05 1.6735e-08)
(-2.6486e-05 -7.5261e-05 6.5886e-06)
(-3.05e-05 -8.0055e-05 7.0061e-06)
(-3.4467e-05 -8.3046e-05 7.2672e-06)
(-3.8324e-05 -8.3802e-05 7.3353e-06)
(-4.2108e-05 -8.2197e-05 7.1978e-06)
(-4.5858e-05 -7.8468e-05 6.8743e-06)
(-4.9544e-05 -7.3132e-05 6.41e-06)
(-5.3065e-05 -6.6829e-05 5.861e-06)
(-5.6287e-05 -6.0143e-05 5.2779e-06)
(-5.9092e-05 -5.3469e-05 4.6949e-06)
(-6.1405e-05 -4.6998e-05 4.1286e-06)
(-6.3201e-05 -4.0818e-05 3.5873e-06)
(-2.6513e-05 -6.9444e-05 1.8486e-05)
(-3.0498e-05 -7.3831e-05 1.9649e-05)
(-3.4452e-05 -7.6554e-05 2.0372e-05)
(-3.8312e-05 -7.7245e-05 2.0559e-05)
(-4.21e-05 -7.5793e-05 2.0179e-05)
(-4.5844e-05 -7.2407e-05 1.9286e-05)
(-4.9512e-05 -6.755e-05 1.8002e-05)
(-5.3009e-05 -6.1791e-05 1.6477e-05)
(-5.6209e-05 -5.5656e-05 1.4851e-05)
(-5.8998e-05 -4.9509e-05 1.3218e-05)
(-6.1305e-05 -4.3536e-05 1.1629e-05)
(-6.31e-05 -3.7828e-05 1.0109e-05)
(-2.6535e-05 -6.1871e-05 3.0515e-05)
(-3.0499e-05 -6.5759e-05 3.243e-05)
(-3.4444e-05 -6.8165e-05 3.3615e-05)
(-3.8304e-05 -6.8777e-05 3.392e-05)