/*--------------------------------*- C++ -*----------------------------------*\
| =========                 |                                                 |
| \\      /  F ield         | OpenFOAM: The Open Source CFD Toolbox           |
|  \\    /   O peration     | Version:  4.1                                   |
|   \\  /    A nd           | Web:      www.OpenFOAM.org                      |
|    \\/     M anipulation  |                                                 |
\*---------------------------------------------------------------------------*/
FoamFile
{
    version     2.0;
    format      ascii;
    class       pointVectorField;
    location    "0.0047";
    object      pointDisplacement_Next;
}
// * * * * * * * * * * * * * * * * * * * * * * * * * * * * * * * * * * * * * //

dimensions      [0 1 0 0 0 0 0];

internalField   uniform (0 0 0);

boundaryField
{
    inlet
    {
        type            fixedValue;
        value           nonuniform 0();
    }
    outlet
    {
        type            fixedValue;
        value           nonuniform 0();
    }
    mantle
    {
        type            fixedValue;
        value           nonuniform List<vector> 
416
(
(-2.3164e-05 -9.325e-05 2.5586e-10)
(-2.7884e-05 -0.00010225 -3.3611e-10)
(-2.7819e-05 -0.00010012 1.9894e-05)
(-2.3117e-05 -9.1342e-05 1.8181e-05)
(-2.7755e-05 -9.3971e-05 3.895e-05)
(-2.3064e-05 -8.5733e-05 3.5577e-05)
(-2.7802e-05 -8.4358e-05 5.642e-05)
(-2.3102e-05 -7.6952e-05 5.1482e-05)
(-2.7859e-05 -7.1708e-05 7.1708e-05)
(-2.3143e-05 -6.5373e-05 6.5373e-05)
(-2.7802e-05 -5.642e-05 8.4358e-05)
(-2.3101e-05 -5.1482e-05 7.6953e-05)
(-2.7755e-05 -3.895e-05 9.3972e-05)
(-2.3063e-05 -3.5577e-05 8.5734e-05)
(-2.7818e-05 -1.9893e-05 0.00010012)
(-2.3117e-05 -1.8181e-05 9.1342e-05)
(-2.7883e-05 9.6181e-10 0.00010225)
(-2.3164e-05 5.9325e-10 9.3248e-05)
(-3.2523e-05 -0.00011012 -1.9517e-11)
(-3.2447e-05 -0.00010776 2.137e-05)
(-3.2382e-05 -0.00010112 4.187e-05)
(-3.2435e-05 -9.0798e-05 6.0721e-05)
(-3.2504e-05 -7.7227e-05 7.7226e-05)
(-3.2435e-05 -6.0721e-05 9.0797e-05)
(-3.2382e-05 -4.187e-05 0.00010112)
(-3.2447e-05 -2.1369e-05 0.00010776)
(-3.2522e-05 4.2587e-10 0.00011012)
(-3.6619e-05 -0.00011512 2.8823e-10)
(-3.6584e-05 -0.0001127 2.2365e-05)
(-3.6557e-05 -0.00010578 4.3823e-05)
(-3.6596e-05 -9.4976e-05 6.3517e-05)
(-3.6635e-05 -8.0754e-05 8.0754e-05)
(-3.6595e-05 -6.3517e-05 9.4975e-05)
(-3.6557e-05 -4.3823e-05 0.00010578)
(-3.6584e-05 -2.2365e-05 0.00011269)
(-3.6619e-05 -1.577e-10 0.00011512)
(-4.0331e-05 -0.00011633 -3.4006e-10)
(-4.0341e-05 -0.0001139 2.2637e-05)
(-4.0362e-05 -0.00010696 4.4348e-05)
(-4.0386e-05 -9.6032e-05 6.4229e-05)
(-4.0395e-05 -8.164e-05 8.164e-05)
(-4.0385e-05 -6.4229e-05 9.6031e-05)
(-4.0362e-05 -4.4348e-05 0.00010696)
(-4.034e-05 -2.2637e-05 0.0001139)
(-4.0331e-05 1.9698e-10 0.00011633)
(-4.4007e-05 -0.00011337 -2.7816e-10)
(-4.4031e-05 -0.00011103 2.2055e-05)
(-4.4077e-05 -0.0001043 4.3224e-05)
(-4.4104e-05 -9.3697e-05 6.2663e-05)
(-4.4112e-05 -7.9675e-05 7.9675e-05)
(-4.4104e-05 -6.2663e-05 9.3696e-05)
(-4.4077e-05 -4.3224e-05 0.0001043)
(-4.403e-05 -2.2055e-05 0.00011102)
(-4.4007e-05 -1.9049e-11 0.00011336)
(-4.7836e-05 -0.00010689 -5.8618e-10)
(-4.788e-05 -0.00010469 2.0772e-05)
(-4.7938e-05 -9.8376e-05 4.0744e-05)
(-4.7966e-05 -8.8443e-05 5.9145e-05)
(-4.7957e-05 -7.525e-05 7.5249e-05)
(-4.7966e-05 -5.9145e-05 8.8441e-05)
(-4.7937e-05 -4.0744e-05 9.8374e-05)
(-4.788e-05 -2.0772e-05 0.00010468)
(-4.7836e-05 1.8863e-10 0.00010689)
(-5.1842e-05 -9.8003e-05 -8.7086e-10)
(-5.1882e-05 -9.6007e-05 1.9041e-05)
(-5.1943e-05 -9.0261e-05 3.7378e-05)
(-5.1947e-05 -8.1199e-05 5.4307e-05)
(-5.1935e-05 -6.9107e-05 6.9107e-05)
(-5.1947e-05 -5.4307e-05 8.1198e-05)
(-5.1943e-05 -3.7378e-05 9.0258e-05)
(-5.1882e-05 -1.9041e-05 9.6004e-05)
(-5.1842e-05 4.0102e-10 9.8e-05)
(-5.5756e-05 -8.8258e-05 -7.8261e-10)
(-5.58e-05 -8.6474e-05 1.7148e-05)
(-5.5864e-05 -8.1314e-05 3.3682e-05)
(-5.5844e-05 -7.3207e-05 4.8979e-05)
(-5.5816e-05 -6.2332e-05 6.2331e-05)
(-5.5844e-05 -4.8979e-05 7.3206e-05)
(-5.5864e-05 -3.3682e-05 8.1311e-05)
(-5.58e-05 -1.7148e-05 8.6471e-05)
(-5.5756e-05 2.3984e-10 8.8255e-05)
(-5.9303e-05 -7.88e-05 -7.1666e-10)
(-5.9326e-05 -7.721e-05 1.5309e-05)
(-5.9364e-05 -7.2639e-05 3.0094e-05)
(-5.9363e-05 -6.5418e-05 4.3777e-05)
(-5.9355e-05 -5.5722e-05 5.5721e-05)
(-5.9363e-05 -4.3778e-05 6.5417e-05)
(-5.9364e-05 -3.0094e-05 7.2637e-05)
(-5.9326e-05 -1.531e-05 7.7208e-05)
(-5.9303e-05 1.2177e-10 7.8797e-05)
(-6.2277e-05 -6.9863e-05 -8.3038e-10)
(-6.2289e-05 -6.8445e-05 1.3558e-05)
(-6.2308e-05 -6.44e-05 2.6677e-05)
(-6.2327e-05 -5.8031e-05 3.8844e-05)
(-6.2329e-05 -4.9459e-05 4.9458e-05)
(-6.2327e-05 -3.8845e-05 5.803e-05)
(-6.2309e-05 -2.6678e-05 6.4398e-05)
(-6.2289e-05 -1.3559e-05 6.8443e-05)
(-6.2277e-05 1.8092e-10 6.9861e-05)
(-6.4604e-05 -6.1254e-05 -8.0227e-10)
(-6.4621e-05 -6.0013e-05 1.1875e-05)
(-6.4649e-05 -5.6477e-05 2.3384e-05)
(-6.4647e-05 -5.0924e-05 3.4089e-05)
(-6.4641e-05 -4.3421e-05 4.342e-05)
(-6.4647e-05 -3.4089e-05 5.0923e-05)
(-6.465e-05 -2.3385e-05 5.6476e-05)
(-6.4621e-05 -1.1875e-05 6.0011e-05)
(-6.4604e-05 1.1725e-10 6.1252e-05)
(-6.6325e-05 -5.2954e-05 -7.1311e-10)
(-6.636e-05 -5.1857e-05 1.0242e-05)
(-6.6402e-05 -4.8793e-05 2.0195e-05)
(-6.6375e-05 -4.4041e-05 2.9495e-05)
(-6.6345e-05 -3.7596e-05 3.7595e-05)
(-6.6375e-05 -2.9496e-05 4.404e-05)
(-6.6402e-05 -2.0196e-05 4.8792e-05)
(-6.636e-05 -1.0243e-05 5.1856e-05)
(-6.6325e-05 2.1964e-11 5.2952e-05)
(-2.7818e-05 1.9894e-05 0.00010011)
(-2.3117e-05 1.8182e-05 9.1341e-05)
(-2.7755e-05 3.8951e-05 9.3971e-05)
(-2.3063e-05 3.5578e-05 8.5733e-05)
(-2.7802e-05 5.642e-05 8.4357e-05)
(-2.3102e-05 5.1482e-05 7.6952e-05)
(-2.7859e-05 7.1708e-05 7.1707e-05)
(-2.3143e-05 6.5373e-05 6.5372e-05)
(-2.7802e-05 8.4358e-05 5.6419e-05)
(-2.3102e-05 7.6952e-05 5.1481e-05)
(-2.7755e-05 9.3971e-05 3.895e-05)
(-2.3063e-05 8.5733e-05 3.5577e-05)
(-2.7819e-05 0.00010011 1.9893e-05)
(-2.3117e-05 9.134e-05 1.8181e-05)
(-2.7884e-05 0.00010225 -3.4715e-10)
(-2.3164e-05 9.3247e-05 4.2168e-10)
(-3.2447e-05 2.137e-05 0.00010776)
(-3.2382e-05 4.187e-05 0.00010112)
(-3.2435e-05 6.0721e-05 9.0797e-05)
(-3.2504e-05 7.7226e-05 7.7226e-05)
(-3.2435e-05 9.0797e-05 6.0721e-05)
(-3.2383e-05 0.00010112 4.187e-05)
(-3.2448e-05 0.00010776 2.137e-05)
(-3.2523e-05 0.00011012 -1.6358e-10)
(-3.6584e-05 2.2366e-05 0.00011269)
(-3.6557e-05 4.3823e-05 0.00010578)
(-3.6596e-05 6.3517e-05 9.4975e-05)
(-3.6635e-05 8.0754e-05 8.0753e-05)
(-3.6596e-05 9.4975e-05 6.3517e-05)
(-3.6557e-05 0.00010578 4.3823e-05)
(-3.6584e-05 0.0001127 2.2365e-05)
(-3.6619e-05 0.00011512 1.8658e-10)
(-4.0341e-05 2.2638e-05 0.0001139)
(-4.0362e-05 4.4348e-05 0.00010696)
(-4.0386e-05 6.4229e-05 9.6031e-05)
(-4.0395e-05 8.164e-05 8.1639e-05)
(-4.0386e-05 9.6033e-05 6.4228e-05)
(-4.0362e-05 0.00010696 4.4348e-05)
(-4.0341e-05 0.0001139 2.2637e-05)
(-4.0331e-05 0.00011633 -3.4063e-10)
(-4.4031e-05 2.2056e-05 0.00011102)
(-4.4077e-05 4.3225e-05 0.0001043)
(-4.4104e-05 6.2663e-05 9.3696e-05)
(-4.4113e-05 7.9675e-05 7.9674e-05)
(-4.4104e-05 9.3697e-05 6.2663e-05)
(-4.4078e-05 0.0001043 4.3224e-05)
(-4.4031e-05 0.00011103 2.2055e-05)
(-4.4007e-05 0.00011337 -1.9548e-10)
(-4.788e-05 2.0772e-05 0.00010468)
(-4.7938e-05 4.0745e-05 9.8374e-05)
(-4.7966e-05 5.9145e-05 8.8441e-05)
(-4.7958e-05 7.525e-05 7.5249e-05)
(-4.7966e-05 8.8442e-05 5.9144e-05)
(-4.7938e-05 9.8376e-05 4.0744e-05)
(-4.788e-05 0.00010468 2.0771e-05)
(-4.7836e-05 0.00010689 -4.4775e-10)
(-5.1882e-05 1.9041e-05 9.6004e-05)
(-5.1943e-05 3.7379e-05 9.0258e-05)
(-5.1948e-05 5.4307e-05 8.1197e-05)
(-5.1936e-05 6.9107e-05 6.9106e-05)
(-5.1948e-05 8.1199e-05 5.4306e-05)
(-5.1943e-05 9.026e-05 3.7378e-05)
(-5.1882e-05 9.6006e-05 1.9041e-05)
(-5.1842e-05 9.8002e-05 -6.4599e-10)
(-5.58e-05 1.7148e-05 8.6471e-05)
(-5.5864e-05 3.3683e-05 8.1311e-05)
(-5.5844e-05 4.8979e-05 7.3205e-05)
(-5.5816e-05 6.2332e-05 6.2331e-05)
(-5.5844e-05 7.3207e-05 4.8978e-05)
(-5.5864e-05 8.1313e-05 3.3682e-05)
(-5.58e-05 8.6472e-05 1.7148e-05)
(-5.5756e-05 8.8257e-05 -4.4295e-10)
(-5.9326e-05 1.531e-05 7.7207e-05)
(-5.9364e-05 3.0094e-05 7.2637e-05)
(-5.9363e-05 4.3778e-05 6.5416e-05)
(-5.9356e-05 5.5721e-05 5.5721e-05)
(-5.9363e-05 6.5417e-05 4.3777e-05)
(-5.9364e-05 7.2638e-05 3.0093e-05)
(-5.9326e-05 7.7208e-05 1.5309e-05)
(-5.9303e-05 7.8798e-05 -3.3908e-10)
(-6.2289e-05 1.3559e-05 6.8443e-05)
(-6.2309e-05 2.6678e-05 6.4398e-05)
(-6.2327e-05 3.8844e-05 5.803e-05)
(-6.2329e-05 4.9458e-05 4.9457e-05)
(-6.2327e-05 5.803e-05 3.8844e-05)
(-6.2308e-05 6.4399e-05 2.6677e-05)
(-6.2289e-05 6.8443e-05 1.3558e-05)
(-6.2277e-05 6.9861e-05 -4.4583e-10)
(-6.4621e-05 1.1875e-05 6.0011e-05)
(-6.465e-05 2.3385e-05 5.6475e-05)
(-6.4647e-05 3.4089e-05 5.0923e-05)
(-6.4641e-05 4.342e-05 4.3419e-05)
(-6.4647e-05 5.0923e-05 3.4088e-05)
(-6.4649e-05 5.6476e-05 2.3384e-05)
(-6.4621e-05 6.0011e-05 1.1875e-05)
(-6.4604e-05 6.1252e-05 -3.993e-10)
(-6.636e-05 1.0243e-05 5.1856e-05)
(-6.6402e-05 2.0196e-05 4.8792e-05)
(-6.6375e-05 2.9495e-05 4.404e-05)
(-6.6345e-05 3.7595e-05 3.7595e-05)
(-6.6375e-05 4.404e-05 2.9495e-05)
(-6.6402e-05 4.8792e-05 2.0195e-05)
(-6.636e-05 5.1855e-05 1.0242e-05)
(-6.6325e-05 5.2951e-05 -3.6517e-10)
(-2.7819e-05 0.00010011 -1.9893e-05)
(-2.3117e-05 9.1341e-05 -1.818e-05)
(-2.7756e-05 9.3971e-05 -3.895e-05)
(-2.3064e-05 8.5733e-05 -3.5576e-05)
(-2.7803e-05 8.4357e-05 -5.6419e-05)
(-2.3102e-05 7.6952e-05 -5.148e-05)
(-2.786e-05 7.1707e-05 -7.1706e-05)
(-2.3144e-05 6.5372e-05 -6.5371e-05)
(-2.7804e-05 5.6419e-05 -8.4355e-05)
(-2.3103e-05 5.1481e-05 -7.695e-05)
(-2.7757e-05 3.895e-05 -9.3969e-05)
(-2.3065e-05 3.5577e-05 -8.5731e-05)
(-2.782e-05 1.9893e-05 -0.00010011)
(-2.3118e-05 1.8181e-05 -9.1339e-05)
(-2.7885e-05 -5.7486e-11 -0.00010225)
(-2.3166e-05 4.868e-10 -9.3246e-05)
(-3.2448e-05 0.00010776 -2.137e-05)
(-3.2383e-05 0.00010112 -4.187e-05)
(-3.2436e-05 9.0797e-05 -6.0721e-05)
(-3.2505e-05 7.7226e-05 -7.7225e-05)
(-3.2436e-05 6.0721e-05 -9.0796e-05)
(-3.2384e-05 4.187e-05 -0.00010112)
(-3.2449e-05 2.137e-05 -0.00010776)
(-3.2524e-05 3.0026e-10 -0.00011012)
(-3.6584e-05 0.0001127 -2.2366e-05)
(-3.6558e-05 0.00010578 -4.3823e-05)
(-3.6596e-05 9.4976e-05 -6.3517e-05)
(-3.6636e-05 8.0755e-05 -8.0754e-05)
(-3.6597e-05 6.3517e-05 -9.4975e-05)
(-3.6558e-05 4.3823e-05 -0.00010578)
(-3.6585e-05 2.2366e-05 -0.00011269)
(-3.662e-05 7.6113e-10 -0.00011512)
(-4.0341e-05 0.0001139 -2.2638e-05)
(-4.0362e-05 0.00010696 -4.4348e-05)
(-4.0386e-05 9.6033e-05 -6.4229e-05)
(-4.0396e-05 8.1641e-05 -8.1641e-05)
(-4.0387e-05 6.4229e-05 -9.6033e-05)
(-4.0363e-05 4.4348e-05 -0.00010696)
(-4.0342e-05 2.2638e-05 -0.0001139)
(-4.0332e-05 2.9009e-10 -0.00011633)
(-4.4031e-05 0.00011103 -2.2056e-05)
(-4.4078e-05 0.0001043 -4.3225e-05)
(-4.4104e-05 9.3698e-05 -6.2664e-05)
(-4.4113e-05 7.9676e-05 -7.9676e-05)
(-4.4105e-05 6.2664e-05 -9.3697e-05)
(-4.4078e-05 4.3225e-05 -0.0001043)
(-4.4031e-05 2.2056e-05 -0.00011103)
(-4.4008e-05 3.6044e-11 -0.00011336)
(-4.788e-05 0.00010469 -2.0772e-05)
(-4.7938e-05 9.8376e-05 -4.0745e-05)
(-4.7966e-05 8.8443e-05 -5.9146e-05)
(-4.7958e-05 7.5251e-05 -7.5251e-05)
(-4.7966e-05 5.9145e-05 -8.8443e-05)
(-4.7938e-05 4.0745e-05 -9.8376e-05)
(-4.788e-05 2.0772e-05 -0.00010468)
(-4.7837e-05 1.4232e-10 -0.00010689)
(-5.1882e-05 9.6006e-05 -1.9042e-05)
(-5.1943e-05 9.026e-05 -3.7379e-05)
(-5.1948e-05 8.1199e-05 -5.4308e-05)
(-5.1936e-05 6.9107e-05 -6.9108e-05)
(-5.1948e-05 5.4308e-05 -8.1199e-05)
(-5.1943e-05 3.7379e-05 -9.026e-05)
(-5.1882e-05 1.9041e-05 -9.6006e-05)
(-5.1842e-05 -9.9921e-11 -9.8001e-05)
(-5.58e-05 8.6473e-05 -1.7149e-05)
(-5.5864e-05 8.1313e-05 -3.3683e-05)
(-5.5844e-05 7.3207e-05 -4.8979e-05)
(-5.5816e-05 6.2331e-05 -6.2332e-05)
(-5.5844e-05 4.8979e-05 -7.3206e-05)
(-5.5864e-05 3.3682e-05 -8.1312e-05)
(-5.58e-05 1.7148e-05 -8.6472e-05)
(-5.5756e-05 2.9387e-11 -8.8256e-05)
(-5.9326e-05 7.7208e-05 -1.531e-05)
(-5.9364e-05 7.2637e-05 -3.0094e-05)
(-5.9363e-05 6.5417e-05 -4.3778e-05)
(-5.9356e-05 5.5721e-05 -5.5721e-05)
(-5.9363e-05 4.3777e-05 -6.5416e-05)
(-5.9364e-05 3.0094e-05 -7.2637e-05)
(-5.9326e-05 1.531e-05 -7.7208e-05)
(-5.9304e-05 -1.7979e-10 -7.8798e-05)
(-6.2289e-05 6.8443e-05 -1.3559e-05)
(-6.2308e-05 6.4398e-05 -2.6678e-05)
(-6.2327e-05 5.8029e-05 -3.8844e-05)
(-6.2329e-05 4.9457e-05 -4.9457e-05)
(-6.2327e-05 3.8843e-05 -5.8029e-05)
(-6.2309e-05 2.6677e-05 -6.4398e-05)
(-6.229e-05 1.3558e-05 -6.8442e-05)
(-6.2277e-05 -1.6976e-10 -6.9861e-05)
(-6.4621e-05 6.001e-05 -1.1875e-05)
(-6.4649e-05 5.6475e-05 -2.3385e-05)
(-6.4647e-05 5.0922e-05 -3.4088e-05)
(-6.4641e-05 4.3419e-05 -4.3419e-05)
(-6.4648e-05 3.4088e-05 -5.0922e-05)
(-6.465e-05 2.3384e-05 -5.6475e-05)
(-6.4622e-05 1.1875e-05 -6.001e-05)
(-6.4604e-05 -2.5343e-10 -6.1252e-05)
(-6.636e-05 5.1855e-05 -1.0243e-05)
(-6.6402e-05 4.8791e-05 -2.0195e-05)
(-6.6375e-05 4.4038e-05 -2.9495e-05)
(-6.6346e-05 3.7594e-05 -3.7594e-05)
(-6.6375e-05 2.9494e-05 -4.4039e-05)
(-6.6402e-05 2.0194e-05 -4.8791e-05)
(-6.636e-05 1.0242e-05 -5.1855e-05)
(-6.6325e-05 -3.4271e-10 -5.2951e-05)
(-2.782e-05 -1.9893e-05 -0.00010011)
(-2.3118e-05 -1.818e-05 -9.134e-05)
(-2.7756e-05 -3.895e-05 -9.397e-05)
(-2.3064e-05 -3.5577e-05 -8.5733e-05)
(-2.7803e-05 -5.642e-05 -8.4357e-05)
(-2.3102e-05 -5.1481e-05 -7.6952e-05)
(-2.786e-05 -7.1708e-05 -7.1708e-05)
(-2.3144e-05 -6.5373e-05 -6.5373e-05)
(-2.7803e-05 -8.4359e-05 -5.642e-05)
(-2.3102e-05 -7.6954e-05 -5.1482e-05)
(-2.7755e-05 -9.3973e-05 -3.8951e-05)
(-2.3064e-05 -8.5735e-05 -3.5578e-05)
(-2.7819e-05 -0.00010012 -1.9894e-05)
(-2.3117e-05 -9.1343e-05 -1.8181e-05)
(-3.2449e-05 -2.1369e-05 -0.00010776)
(-3.2383e-05 -4.187e-05 -0.00010112)
(-3.2436e-05 -6.0721e-05 -9.0797e-05)
(-3.2504e-05 -7.7227e-05 -7.7227e-05)
(-3.2435e-05 -9.0799e-05 -6.0722e-05)
(-3.2383e-05 -0.00010112 -4.1871e-05)
(-3.2447e-05 -0.00010776 -2.137e-05)
(-3.6585e-05 -2.2365e-05 -0.00011269)
(-3.6558e-05 -4.3823e-05 -0.00010578)
(-3.6596e-05 -6.3517e-05 -9.4975e-05)
(-3.6635e-05 -8.0755e-05 -8.0755e-05)
(-3.6596e-05 -9.4977e-05 -6.3518e-05)
(-3.6557e-05 -0.00010579 -4.3824e-05)
(-3.6584e-05 -0.0001127 -2.2366e-05)
(-4.0342e-05 -2.2637e-05 -0.0001139)
(-4.0363e-05 -4.4348e-05 -0.00010696)
(-4.0386e-05 -6.4229e-05 -9.6033e-05)
(-4.0396e-05 -8.1641e-05 -8.1641e-05)
(-4.0386e-05 -9.6034e-05 -6.423e-05)
(-4.0362e-05 -0.00010696 -4.4349e-05)
(-4.0341e-05 -0.0001139 -2.2638e-05)
(-4.4031e-05 -2.2055e-05 -0.00011103)
(-4.4078e-05 -4.3224e-05 -0.0001043)
(-4.4105e-05 -6.2664e-05 -9.3697e-05)
(-4.4113e-05 -7.9676e-05 -7.9676e-05)
(-4.4104e-05 -9.3698e-05 -6.2664e-05)
(-4.4077e-05 -0.0001043 -4.3226e-05)
(-4.4031e-05 -0.00011103 -2.2056e-05)
(-4.788e-05 -2.0772e-05 -0.00010468)
(-4.7938e-05 -4.0745e-05 -9.8376e-05)
(-4.7966e-05 -5.9145e-05 -8.8443e-05)
(-4.7958e-05 -7.5251e-05 -7.5251e-05)
(-4.7966e-05 -8.8444e-05 -5.9146e-05)
(-4.7938e-05 -9.8377e-05 -4.0746e-05)
(-4.788e-05 -0.00010469 -2.0773e-05)
(-5.1882e-05 -1.9041e-05 -9.6006e-05)
(-5.1943e-05 -3.7379e-05 -9.026e-05)
(-5.1948e-05 -5.4308e-05 -8.12e-05)
(-5.1936e-05 -6.9108e-05 -6.9108e-05)
(-5.1948e-05 -8.12e-05 -5.4308e-05)
(-5.1943e-05 -9.0261e-05 -3.738e-05)
(-5.1882e-05 -9.6007e-05 -1.9042e-05)
(-5.58e-05 -1.7148e-05 -8.6473e-05)
(-5.5864e-05 -3.3683e-05 -8.1313e-05)
(-5.5844e-05 -4.898e-05 -7.3208e-05)
(-5.5816e-05 -6.2333e-05 -6.2333e-05)
(-5.5844e-05 -7.3208e-05 -4.898e-05)
(-5.5864e-05 -8.1314e-05 -3.3684e-05)
(-5.58e-05 -8.6474e-05 -1.7149e-05)
(-5.9326e-05 -1.531e-05 -7.7209e-05)
(-5.9364e-05 -3.0094e-05 -7.2638e-05)
(-5.9363e-05 -4.3778e-05 -6.5418e-05)
(-5.9356e-05 -5.5722e-05 -5.5723e-05)
(-5.9363e-05 -6.5418e-05 -4.3779e-05)
(-5.9364e-05 -7.2639e-05 -3.0095e-05)
(-5.9326e-05 -7.721e-05 -1.5311e-05)
(-6.229e-05 -1.3559e-05 -6.8443e-05)
(-6.2309e-05 -2.6678e-05 -6.4399e-05)
(-6.2327e-05 -3.8845e-05 -5.8031e-05)
(-6.2329e-05 -4.9459e-05 -4.9459e-05)
(-6.2327e-05 -5.8031e-05 -3.8846e-05)
(-6.2309e-05 -6.44e-05 -2.6679e-05)
(-6.2289e-05 -6.8445e-05 -1.356e-05)
(-6.4622e-05 -1.1875e-05 -6.0011e-05)
(-6.465e-05 -2.3385e-05 -5.6476e-05)
(-6.4647e-05 -3.4089e-05 -5.0924e-05)
(-6.4641e-05 -4.3421e-05 -4.3421e-05)
(-6.4647e-05 -5.0924e-05 -3.409e-05)
(-6.465e-05 -5.6477e-05 -2.3386e-05)
(-6.4621e-05 -6.0013e-05 -1.1876e-05)
(-6.636e-05 -1.0243e-05 -5.1855e-05)
(-6.6402e-05 -2.0195e-05 -4.8792e-05)
(-6.6375e-05 -2.9495e-05 -4.404e-05)
(-6.6346e-05 -3.7595e-05 -3.7596e-05)
(-6.6375e-05 -4.4041e-05 -2.9496e-05)
(-6.6402e-05 -4.8793e-05 -2.0196e-05)
(-6.636e-05 -5.1857e-05 -1.0244e-05)
)
;
    }
    procBoundary1to0
    {
        type            processor;
    }
    procBoundary1to2
    {
        type            processor;
    }
}


// ************************************************************************* //
