/*--------------------------------*- C++ -*----------------------------------*\
| =========                 |                                                 |
| \\      /  F ield         | foam-extend: Open Source CFD                    |
|  \\    /   O peration     | Version:     4.1-20200408                       |
|   \\  /    A nd           | Web:         http://www.foam-extend.org         |
|    \\/     M anipulation  |                                                 |
\*---------------------------------------------------------------------------*/
FoamFile
{
    version     2.0;
    format      ascii;
    class       volScalarField;
    location    "0.0520000";
    object      epsilonPEq;
}
// * * * * * * * * * * * * * * * * * * * * * * * * * * * * * * * * * * * * * //

dimensions      [0 0 0 0 0 0 0];

internalField   nonuniform List<scalar> 
1952
(
0.0496904
0.0497615
0.0499024
0.0500345
0.0502286
0.0503901
0.0505311
0.0505205
0.0503566
0.0497818
0.0488331
0.0472299
0.0450034
0.042622
0.0413148
0.0496236
0.0497575
0.0498286
0.0499696
0.0501017
0.0502966
0.0504584
0.0505996
0.0505889
0.0504247
0.0498488
0.0489013
0.0472973
0.0450685
0.0426858
0.0413791
0.0496906
0.0498242
0.0498954
0.0500365
0.0501686
0.0503648
0.050527
0.0506683
0.0506576
0.0504931
0.049916
0.0489692
0.0473645
0.0451336
0.0427495
0.0414433
0.0497572
0.0498912
0.0499624
0.0501035
0.0502356
0.0504327
0.0505954
0.0507369
0.0507261
0.0505614
0.0499831
0.0490369
0.0474314
0.0451983
0.0428135
0.0415079
0.0498241
0.049958
0.0500292
0.0501705
0.0503025
0.0505006
0.0506636
0.0508052
0.0507943
0.0506292
0.0500497
0.0491051
0.0474989
0.0452637
0.0428773
0.0415724
0.0498908
0.0500245
0.0500958
0.0502371
0.0503691
0.0505689
0.0507324
0.050874
0.0508632
0.0506979
0.0501173
0.049173
0.0475661
0.0453286
0.0429422
0.0416369
0.0499573
0.0500916
0.050163
0.0503044
0.0504367
0.0506368
0.0508007
0.0509424
0.0509315
0.0507659
0.0501841
0.0492405
0.0476327
0.045393
0.0430079
0.0417023
0.0500243
0.0501583
0.0502296
0.0503711
0.0505047
0.0507047
0.0508686
0.0510104
0.0509994
0.0508334
0.0502505
0.0493086
0.0477001
0.0454582
0.0430732
0.0417674
0.0500908
0.0502248
0.0502962
0.0504377
0.0505728
0.0507731
0.0509372
0.051079
0.0510681
0.0509018
0.0503178
0.0493772
0.0477681
0.0455239
0.0431385
0.041832
0.0501573
0.0502919
0.0503633
0.0505048
0.0506411
0.0508418
0.0510063
0.0511482
0.0511373
0.0509708
0.0503857
0.0494451
0.0478351
0.0455885
0.0432034
0.0418968
0.0502243
0.0503594
0.0504309
0.0505723
0.0507089
0.0509101
0.0510748
0.0512167
0.0512057
0.0510389
0.0504525
0.0495128
0.047902
0.0456529
0.0432682
0.0419616
0.0502917
0.0504264
0.0504978
0.0506392
0.0507769
0.0509785
0.0511434
0.0512853
0.0512742
0.0511069
0.0505193
0.0495806
0.0479691
0.0457177
0.0433331
0.0420265
0.0503587
0.0504934
0.0505648
0.0507061
0.0508449
0.051047
0.051212
0.0513539
0.0513428
0.0511751
0.0505863
0.0496485
0.0480362
0.0457823
0.0433979
0.0420913
0.0504257
0.0505606
0.050632
0.0507732
0.0509129
0.0511154
0.0512807
0.0514226
0.0514114
0.0512434
0.0506534
0.0497165
0.0481034
0.0458471
0.0434628
0.0421561
0.0504927
0.0506277
0.0506991
0.0508402
0.050981
0.051184
0.0513495
0.0514915
0.0514801
0.0513118
0.0507223
0.0497844
0.0481702
0.0459115
0.0435278
0.0422213
0.0505598
0.0506948
0.0507663
0.0509074
0.0510488
0.0512523
0.051418
0.05156
0.0515486
0.0513798
0.0507919
0.0498528
0.0482373
0.0459761
0.0435926
0.0422864
0.0506269
0.0507617
0.0508331
0.0509742
0.0511168
0.0513208
0.0514867
0.0516289
0.0516174
0.0514481
0.0508617
0.0499218
0.0483049
0.0460411
0.0436577
0.0423514
0.0506937
0.0508286
0.0509001
0.0510412
0.051185
0.0513896
0.0515558
0.0516982
0.0516865
0.0515166
0.0509311
0.0499907
0.0483724
0.0461058
0.0437229
0.0424163
0.0507606
0.0508959
0.0509675
0.0511086
0.0512531
0.0514582
0.0516247
0.0517671
0.0517553
0.0515846
0.0510005
0.0500598
0.04844
0.0461708
0.0437881
0.0424815
0.0508277
0.050963
0.0510346
0.0511757
0.0513214
0.0515271
0.0516938
0.0518363
0.0518243
0.0516529
0.0510701
0.0501293
0.0485081
0.0462362
0.0438531
0.0425463
0.0508948
0.0510305
0.0511021
0.0512432
0.05139
0.0515962
0.0517631
0.0519056
0.0518936
0.0517215
0.0511396
0.0501985
0.048576
0.0463015
0.0439186
0.0426113
0.0509622
0.0510983
0.05117
0.051311
0.0514586
0.0516653
0.0518324
0.0519749
0.0519628
0.0517899
0.0512085
0.0502672
0.0486433
0.0463662
0.0439836
0.0426765
0.05103
0.0511661
0.0512377
0.0513787
0.0515269
0.051734
0.0519013
0.0520437
0.0520314
0.0518576
0.0512782
0.0503367
0.0487115
0.0464318
0.0440488
0.0427413
0.0510977
0.0512336
0.0513052
0.051446
0.0515958
0.0518034
0.0519709
0.0521133
0.0521009
0.0519265
0.0513471
0.0504053
0.0487787
0.0464964
0.0441139
0.0428063
0.0511652
0.0513017
0.0513733
0.0515141
0.0516641
0.0518721
0.0520397
0.052182
0.0521694
0.0519942
0.0514161
0.050474
0.0488459
0.046561
0.0441788
0.0428715
0.0512332
0.0513691
0.0514406
0.0515814
0.0517325
0.0519409
0.0521086
0.0522508
0.052238
0.052062
0.0514852
0.050543
0.0489137
0.0466262
0.044244
0.0429365
0.0513005
0.0514364
0.0515079
0.0516486
0.0518009
0.0520098
0.0521776
0.0523199
0.0523069
0.0521303
0.0515541
0.0506116
0.0489808
0.0466908
0.0443092
0.0430018
0.0513678
0.0515039
0.0515754
0.051716
0.0518689
0.0520783
0.0522462
0.0523884
0.0523753
0.052198
0.0516231
0.0506804
0.0490483
0.0467557
0.0443744
0.0430672
0.0514352
0.0515709
0.0516424
0.0517829
0.051937
0.0521469
0.0523149
0.0524573
0.052444
0.0522661
0.0516924
0.0507497
0.0491163
0.0468212
0.0444397
0.0431322
0.0515022
0.0516381
0.0517096
0.0518499
0.0520053
0.0522156
0.0523838
0.0525265
0.0525131
0.0523346
0.0517614
0.0508184
0.0491837
0.0468859
0.0445051
0.0431973
0.0515693
0.0517054
0.051777
0.0519173
0.0520732
0.0522838
0.052452
0.0525952
0.0525816
0.0524024
0.0518305
0.0508873
0.0492512
0.046951
0.0445702
0.0432626
0.0516366
0.0517724
0.051844
0.0519842
0.0521414
0.0523523
0.0525205
0.0526642
0.0526505
0.0524704
0.0518999
0.0509566
0.0493193
0.0470165
0.0446351
0.0433274
0.0517035
0.0518396
0.0519112
0.0520513
0.0522097
0.0524211
0.0525896
0.0527334
0.0527196
0.0525389
0.0519689
0.0510252
0.0493865
0.0470812
0.0447003
0.0433923
0.0517707
0.051907
0.0519786
0.0521188
0.0522776
0.0524893
0.0526582
0.052802
0.052788
0.0526066
0.0520372
0.0510933
0.0494532
0.0471453
0.0447652
0.0434576
0.051838
0.0519741
0.0520456
0.0521857
0.0523453
0.0525572
0.0527265
0.0528703
0.0528559
0.0526737
0.0521064
0.0511623
0.0495209
0.0472106
0.0448302
0.0435228
0.051905
0.0520408
0.0521123
0.0522523
0.0524135
0.0526259
0.0527955
0.0529394
0.0529249
0.0527421
0.0521753
0.0512311
0.0495884
0.0472754
0.0448952
0.0435875
0.0519717
0.0521081
0.0521796
0.0523196
0.0524814
0.0526942
0.0528642
0.0530081
0.0529934
0.05281
0.0522438
0.0512992
0.0496551
0.0473395
0.0449604
0.0436527
0.0520389
0.052175
0.0522465
0.0523865
0.052549
0.052762
0.0529324
0.0530764
0.0530615
0.0528772
0.0523125
0.0513679
0.0497225
0.0474044
0.0450254
0.0437179
0.0521057
0.0522415
0.052313
0.0524529
0.0526167
0.0528303
0.053001
0.0531451
0.05313
0.0529451
0.0523821
0.0514376
0.0497909
0.0474704
0.0450902
0.0437825
0.0521722
0.0523084
0.0523799
0.0525198
0.052685
0.0528991
0.0530702
0.0532146
0.0531995
0.053014
0.0524509
0.051506
0.049858
0.0475347
0.0451552
0.0438474
0.052239
0.0523758
0.0524474
0.0525873
0.0527526
0.052967
0.0531386
0.053283
0.0532677
0.0530814
0.0525192
0.0515739
0.0499244
0.0475987
0.04522
0.0439126
0.0523064
0.0524425
0.0525141
0.0526539
0.0528201
0.0530348
0.0532066
0.0533511
0.0533355
0.0531483
0.0525879
0.0516426
0.0499918
0.0476637
0.0452852
0.0439777
0.052373
0.052509
0.0525805
0.0527202
0.052888
0.0531032
0.0532752
0.0534199
0.0534041
0.0532164
0.0526569
0.0517114
0.0500593
0.0477286
0.0453501
0.0440426
0.0524395
0.052576
0.0526476
0.0527872
0.0529558
0.0531714
0.0533438
0.0534886
0.0534726
0.0532842
0.0527258
0.0517801
0.0501267
0.0477934
0.0454151
0.0441075
0.0525064
0.0526429
0.0527145
0.0528541
0.0530236
0.0532397
0.0534125
0.0535574
0.0535413
0.0533522
0.0527945
0.0518486
0.0501939
0.047858
0.0454799
0.0441724
0.0525732
0.0527098
0.0527814
0.052921
0.0530913
0.0533078
0.053481
0.053626
0.0536097
0.0534198
0.0528633
0.0519172
0.0502612
0.0479227
0.0455446
0.0442372
0.0526401
0.0527767
0.0528482
0.0529878
0.0531591
0.053376
0.0535495
0.0536946
0.0536781
0.0534876
0.052932
0.0519857
0.0503283
0.0479873
0.0456095
0.0443021
0.0527069
0.0528436
0.0529151
0.0530547
0.0532268
0.0534441
0.0536179
0.0537632
0.0537465
0.0535552
0.0530006
0.052054
0.0503952
0.0480516
0.0456744
0.0443675
0.0527737
0.0529104
0.0529819
0.0531224
0.0532946
0.0535121
0.0536863
0.0538316
0.0538146
0.0536227
0.0530693
0.0521225
0.0504624
0.0481163
0.0457394
0.0444331
0.0528405
0.0529771
0.0530487
0.0531903
0.0533625
0.0535803
0.0537547
0.0539001
0.053883
0.0536904
0.0531382
0.0521913
0.0505299
0.0481812
0.0458043
0.0444986
0.0529072
0.0530441
0.0531156
0.0532582
0.0534305
0.0536486
0.0538232
0.0539688
0.0539516
0.0537583
0.053207
0.05226
0.0505973
0.0482459
0.0458694
0.0445623
0.0529741
0.0531112
0.0531826
0.053326
0.0534985
0.0537169
0.0538918
0.0540375
0.0540201
0.0538261
0.0532758
0.0523286
0.0506646
0.0483107
0.0459343
0.0444865
0.0530412
0.0531783
0.0532495
0.0533937
0.0535666
0.0537852
0.0539604
0.0541063
0.0540886
0.0538939
0.0533449
0.0523975
0.0507322
0.0483758
0.0459993
0.0442118
0.0531082
0.0532453
0.0533164
0.0534617
0.0536349
0.0538538
0.0540293
0.0541753
0.0541575
0.0539621
0.0534135
0.0524658
0.0507991
0.0484401
0.0459863
0.0436328
0.0531752
0.0533126
0.0533836
0.0535293
0.0537028
0.0539219
0.0540977
0.0542438
0.0542256
0.0540295
0.0534825
0.0525346
0.0508665
0.0485049
0.0456161
0.0426273
0.0532424
0.0533794
0.0534503
0.0535973
0.0537711
0.0539905
0.0541667
0.0543128
0.0542944
0.0540976
0.0534494
0.0523707
0.0505333
0.0479985
0.0446993
0.0412169
0.0533092
0.0534466
0.0535174
0.0536553
0.0537739
0.0539057
0.0539774
0.0539897
0.0538227
0.0534563
0.0526335
0.0513616
0.0493294
0.0466432
0.0431472
0.0394596
0.0533763
0.0530931
0.0531109
0.0531632
0.0531761
0.0531662
0.0530718
0.0528879
0.0525122
0.0519217
0.0509017
0.0494343
0.0472519
0.0444762
0.0409663
0.0373301
0.0530446
0.0519765
0.051921
0.0518609
0.0517429
0.0515737
0.0513005
0.0509174
0.0503415
0.0495472
0.0483591
0.0467373
0.044478
0.0416827
0.0383119
0.0349232
0.0519595
0.049884
0.0497663
0.0496104
0.049378
0.0490734
0.0486538
0.0481127
0.0473853
0.0464414
0.0451452
0.0434383
0.0411928
0.0384731
0.0353774
0.0323809
0.0498961
0.0467413
0.0465892
0.0463778
0.0460783
0.0456945
0.0451913
0.0445615
0.043755
0.0427377
0.0414087
0.0396969
0.0375516
0.0349986
0.0322748
0.0297607
0.0467718
0.0426392
0.0424844
0.0422636
0.0419529
0.0415544
0.0410371
0.0403925
0.0395811
0.0385674
0.0372793
0.0356396
0.033666
0.0313533
0.0290629
0.0270861
0.0426749
0.0378121
0.0376757
0.0374785
0.0371981
0.0368343
0.0363573
0.0357573
0.0350011
0.0340549
0.0328679
0.0313651
0.0296181
0.0276043
0.0257897
0.0243886
0.0378429
0.0325808
0.032467
0.0323025
0.0320659
0.0317566
0.0313457
0.0308227
0.0301573
0.0293208
0.0282757
0.0269579
0.0254761
0.023808
0.0225013
0.0217039
0.0326034
0.0272795
0.0271778
0.0270331
0.0268265
0.0265608
0.0262092
0.0257639
0.0251963
0.0244863
0.0236022
0.0224993
0.021307
0.0200219
0.0192461
0.0190682
0.0272971
0.0221911
0.0220855
0.0219382
0.0217332
0.0214797
0.0211554
0.0207601
0.0202689
0.0196759
0.0189498
0.0180732
0.017182
0.0163089
0.016077
0.016514
0.0222099
0.0175077
0.0173862
0.0172188
0.0169907
0.0167173
0.0163797
0.0159896
0.0155311
0.0150207
0.0144265
0.013768
0.0131766
0.0127349
0.0130449
0.0140651
0.0175323
0.0133214
0.0131812
0.0129893
0.0127308
0.0124238
0.012047
0.0116227
0.0111476
0.0106686
0.0101585
0.00968516
0.00937285
0.0093617
0.0101847
0.0117242
0.0133538
0.00965048
0.00949616
0.00928666
0.00900809
0.00867868
0.00826887
0.007804
0.0072855
0.00679022
0.00630491
0.00595736
0.00586996
0.00624284
0.00749456
0.00944829
0.00968965
0.00647346
0.00631578
0.00610062
0.00581514
0.00547859
0.00505783
0.00458195
0.00404291
0.00352879
0.00304336
0.00277145
0.00282901
0.00345682
0.0049516
0.00714776
0.00651578
0.00370512
0.00355751
0.00334939
0.00306357
0.00271924
0.00229773
0.00187146
0.00143926
0.00104011
0.000674803
0.000519566
0.000636634
0.00123116
0.00262757
0.00479532
0.00374571
0.0013194
0.00120779
0.00104655
0.000815038
0.000530665
0.000198135
0
0
0
0
0
0
0
0.000821441
0.00259232
0.00135027
0
0
0
0
0
0
0
0
0
0
0
0
0
0
0.000888644
0
0
0
0
0
0
0
0
0
0
0
0
0
0
0
0
0
0
0
0
0
0
0
0
0
0
0
0
0
0
0
0
0
0
0
0
0
0
0
0
0
0
0
0
0
0
0
0
0
0
0
0
0
0
0
0
0
0
0
0
0
0
0
0
0
0
0
0
0
0
0
0
0
0
0
0
0
0
0
0
0
0
0
0
0
0
0
0
0
0
0
0
0
0
0
0
0
0
0
0
0
0
0
0
0
0
0
0
0
0
0
0
0
0
0
0
0
0
0
0
0
0
0
0
0
0
0
0
0
0
0
0
0
0
0
0
0
0
0
0
0
0
0
0
0
0
0
0
0
0
0
0
0
0
0
0
0
0
0
0
0
0
0
0
0
0
0
0
0
0
0
0
0
0
0
0
0
0
0
0
0
0
0
0
0
0
0
0
0
0
0
0
0
0
0
0
0
0
0
0
0
0
0
0
0
0
0
0
0
0
0
0
0
0
0
0
0
0
0
0
0
0
0
0
0
0
0
0
0
0
0
0
0
0
0
0
0
0
0
0
0
0
0
0
0
0
0
0
0
0
0
0
0
0
0
0
0
0
0
0
0
0
0
0
0
0
0
0
0
0
0
0
0
0
0
0
0
0
0
0
0
0
0
0
0
0
0
0
0
0
0
0
0
0
0
0
0
0
0
0
0
0
0
0
0
0
0
0
0
0
0
0
0
0
0
0
0
0
0
0
0
0
0
0
0
0
0
0
0
0
0
0
0
0
0
0
0
0
0
0
0
0
0
0
0
0
0
0
0
0
0
0
0
0
0
0
0
0
0
0
0
0
0
0
0
0
0
0
0
0
0
0
0
0
0
0
0
0
0
0
0
0
0
0
0
0
0
0
0
0
0
0
0
0
0
0
0
0
0
0
0
0
0
0
0
0
0
0
0
0
0
0
0
0
0
0
0
0
0
0
0
0
0
0
0
0
0
0
0
0
0
0
0
0
0
0
0
0
0
0
0
0
0
0
0
0
0
0
0
0
0
0
0
0
0
0
0
0
0
0
0
0
0
0
0
0
0
0
0
0
0
0
0
0
0
0
0
0
0
0
0
0
0
0
0
0
0
0
0
0
0
0
0
0
0
0
0
0
0
0
0
0
0
0
0
0
0
0
0
0
0
0
0
0
0
0
0
0
0
0
0
0
0
0
0
0
0
0
0
0
0
0
0
0
0
0
0
0
0
0
0
0
0
0
0
0
0
0
0
0
0
0
0
0
0
0
0
0
0
0
0
0
0
0
0
0
0
0
0
0
0
0
0
0
0
0
0
0
0
0
0
0
0
0
0
0
0
0
0
0
0
0
0
0
0
0
0
0
0
0
0
0
0
0
0
0
0
0
0
0
0
0
0
0
0
0
0
0
0
0
0
0
0
0
0
0
0
0
0
0
0
0
0
0
0
0
0
0
0
0
0
0
0
0
0
0
0
0
0
0
0
0
0
0
0
0
0
0
0
0
0
0
0
0
0
0
0
0
0
0
0
0
0
0
0
0
0
0
0
0
0
0
0
0
0
0
0
0
0
0
0
0
0
0
0
0
0
0
0
0
0
0
0
0
0
0
0
0
0
0
0
0
0
0
0
0
0
0
0
0
0
0
0
0
0
0
0
0
0
0
0
0
0
0
0
0
0
0
0
0
0
0
0
0
0
0
0
0
0
0
0
0
0
0
0
0
0
0
0
0
0
0
0
0
0
0
0
0
0
0
0
0
0
0
0
0
0
0
0
0
0
0
0
0
0
)
;

boundaryField
{
    wireUpstream
    {
        type            calculated;
        value           uniform 0;
    }
    wireDownstream
    {
        type            calculated;
        value           nonuniform List<scalar> 
16
(
0.0496904
0.0497615
0.0499024
0.0500345
0.0502286
0.0503901
0.0505311
0.0505205
0.0503566
0.0497818
0.0488331
0.0472299
0.0450034
0.042622
0.0413148
0.0496236
)
;
    }
    wireTopContact
    {
        type            calculated;
        value           nonuniform List<scalar> 
122
(
0.0412124
0.0412764
0.0413408
0.0414052
0.0414695
0.0415346
0.0415995
0.041664
0.0417285
0.0417931
0.0418577
0.0419224
0.041987
0.0420519
0.0421168
0.0421816
0.0422462
0.0423113
0.0423758
0.0424406
0.0425056
0.0425702
0.042635
0.0427
0.0427648
0.0428298
0.0428951
0.0429599
0.0430247
0.0430898
0.0431544
0.0432191
0.0432842
0.0433492
0.0434137
0.0434787
0.0435437
0.0436081
0.0436728
0.0437378
0.0438027
0.0438674
0.043932
0.0439967
0.0440613
0.044126
0.0441909
0.0442559
0.0443204
0.0443854
0.0443099
0.0440238
0.0434249
0.0424037
0.0409904
0.03926
0.0371602
0.0347675
0.0322287
0.029606
0.0269261
0.0242251
0.0215415
0.0189139
0.0163757
0.01395
0.0116386
0.00939768
0.00713325
0.00480981
0.00261867
0.000902597
0
0
0
0
0
0
0
0
0
0
0
0
0
0
0
0
0
0
0
0
0
0
0
0
0
0
0
0
0
0
0
0
0
0
0
0
0
0
0
0
0
0
0
0
0
0
0
0
0
0.0411482
)
;
    }
    front
    {
        type            wedge;
    }
    back
    {
        type            wedge;
    }
}


// ************************************************************************* //
