/*--------------------------------*- C++ -*----------------------------------*\
| =========                 |                                                 |
| \\      /  F ield         | foam-extend: Open Source CFD                    |
|  \\    /   O peration     | Version:     4.1-20200408                       |
|   \\  /    A nd           | Web:         http://www.foam-extend.org         |
|    \\/     M anipulation  |                                                 |
\*---------------------------------------------------------------------------*/
FoamFile
{
    version     2.0;
    format      ascii;
    class       volScalarField;
    location    "0.0520000";
    object      rho;
}
// * * * * * * * * * * * * * * * * * * * * * * * * * * * * * * * * * * * * * //

dimensions      [1 -3 0 0 0 0 0];

internalField   nonuniform List<scalar> 
1952
(
7858.42
7857.53
7856.29
7854.73
7852.71
7850.54
7848.03
7845.09
7841.73
7837.41
7832.65
7826.01
7818.44
7809.74
7804.16
7858.82
7858.2
7857.3
7856.05
7854.49
7852.46
7850.28
7847.76
7844.83
7841.45
7837.13
7832.36
7825.73
7818.15
7809.48
7803.9
7858.6
7858.08
7857.18
7855.93
7854.37
7852.34
7850.16
7847.63
7844.7
7841.32
7837.01
7832.25
7825.62
7818.07
7809.43
7803.92
7858.48
7857.98
7857.08
7855.83
7854.26
7852.23
7850.06
7847.53
7844.6
7841.22
7836.92
7832.16
7825.55
7818
7809.39
7803.9
7858.37
7857.89
7856.98
7855.73
7854.17
7852.14
7849.97
7847.44
7844.51
7841.14
7836.84
7832.09
7825.49
7817.96
7809.36
7803.9
7858.28
7857.81
7856.9
7855.65
7854.09
7852.06
7849.89
7847.37
7844.44
7841.07
7836.78
7832.04
7825.44
7817.92
7809.34
7803.89
7858.2
7857.74
7856.84
7855.58
7854.02
7851.99
7849.83
7847.3
7844.38
7841.01
7836.73
7831.99
7825.4
7817.89
7809.32
7803.89
7858.14
7857.68
7856.78
7855.52
7853.96
7851.94
7849.77
7847.25
7844.33
7840.96
7836.68
7831.95
7825.37
7817.86
7809.3
7803.88
7858.08
7857.63
7856.73
7855.48
7853.91
7851.89
7849.72
7847.2
7844.28
7840.91
7836.64
7831.92
7825.33
7817.83
7809.28
7803.87
7858.03
7857.59
7856.69
7855.43
7853.87
7851.84
7849.68
7847.16
7844.24
7840.87
7836.61
7831.89
7825.3
7817.8
7809.26
7803.86
7857.99
7857.56
7856.65
7855.4
7853.83
7851.81
7849.65
7847.12
7844.21
7840.84
7836.58
7831.86
7825.27
7817.78
7809.24
7803.84
7857.96
7857.53
7856.62
7855.36
7853.8
7851.78
7849.62
7847.09
7844.18
7840.8
7836.55
7831.83
7825.24
7817.75
7809.21
7803.82
7857.93
7857.5
7856.6
7855.34
7853.77
7851.75
7849.59
7847.06
7844.15
7840.77
7836.52
7831.8
7825.21
7817.72
7809.19
7803.8
7857.9
7857.48
7856.57
7855.31
7853.74
7851.72
7849.56
7847.04
7844.12
7840.74
7836.49
7831.77
7825.18
7817.69
7809.16
7803.77
7857.88
7857.46
7856.56
7855.29
7853.72
7851.7
7849.54
7847.01
7844.09
7840.71
7836.46
7831.74
7825.15
7817.66
7809.13
7803.74
7857.86
7857.44
7856.54
7855.27
7853.7
7851.68
7849.52
7846.99
7844.07
7840.68
7836.43
7831.71
7825.12
7817.62
7809.1
7803.71
7857.85
7857.43
7856.52
7855.26
7853.68
7851.66
7849.5
7846.96
7844.05
7840.65
7836.4
7831.68
7825.08
7817.59
7809.06
7803.68
7857.84
7857.42
7856.51
7855.24
7853.66
7851.64
7849.48
7846.94
7844.02
7840.62
7836.37
7831.64
7825.05
7817.55
7809.03
7803.64
7857.83
7857.41
7856.5
7855.23
7853.65
7851.62
7849.46
7846.92
7844
7840.59
7836.34
7831.61
7825.01
7817.51
7808.98
7803.6
7857.82
7857.4
7856.49
7855.22
7853.63
7851.61
7849.44
7846.9
7843.97
7840.56
7836.31
7831.58
7824.97
7817.47
7808.94
7803.55
7857.81
7857.4
7856.49
7855.21
7853.62
7851.59
7849.43
7846.88
7843.95
7840.53
7836.28
7831.54
7824.93
7817.42
7808.9
7803.51
7857.81
7857.4
7856.48
7855.2
7853.61
7851.58
7849.41
7846.86
7843.92
7840.5
7836.25
7831.5
7824.88
7817.37
7808.85
7803.46
7857.81
7857.4
7856.48
7855.2
7853.6
7851.57
7849.4
7846.84
7843.9
7840.46
7836.22
7831.46
7824.84
7817.32
7808.79
7803.4
7857.81
7857.41
7856.49
7855.2
7853.6
7851.56
7849.39
7846.82
7843.88
7840.43
7836.18
7831.42
7824.79
7817.27
7808.74
7803.34
7857.82
7857.42
7856.5
7855.2
7853.6
7851.56
7849.38
7846.81
7843.86
7840.4
7836.15
7831.38
7824.74
7817.21
7808.68
7803.28
7857.83
7857.44
7856.51
7855.21
7853.61
7851.56
7849.38
7846.79
7843.84
7840.37
7836.12
7831.33
7824.69
7817.15
7808.61
7803.21
7857.85
7857.47
7856.54
7855.24
7853.62
7851.57
7849.38
7846.79
7843.83
7840.35
7836.08
7831.29
7824.63
7817.08
7808.54
7803.13
7857.88
7857.51
7856.57
7855.27
7853.65
7851.59
7849.39
7846.79
7843.82
7840.33
7836.05
7831.25
7824.58
7817.02
7808.47
7803.04
7857.92
7857.56
7856.62
7855.31
7853.68
7851.62
7849.42
7846.8
7843.82
7840.31
7836.03
7831.2
7824.52
7816.95
7808.39
7802.95
7857.97
7857.63
7856.69
7855.37
7853.74
7851.66
7849.45
7846.82
7843.83
7840.3
7836.01
7831.16
7824.47
7816.87
7808.31
7802.85
7858.04
7857.71
7856.77
7855.44
7853.8
7851.72
7849.5
7846.85
7843.85
7840.3
7835.99
7831.13
7824.42
7816.8
7808.22
7802.74
7858.13
7857.82
7856.88
7855.54
7853.89
7851.8
7849.57
7846.9
7843.88
7840.31
7835.99
7831.1
7824.37
7816.72
7808.13
7802.63
7858.24
7857.96
7857.01
7855.66
7854.01
7851.9
7849.66
7846.98
7843.94
7840.34
7836
7831.08
7824.32
7816.64
7808.03
7802.5
7858.38
7858.13
7857.18
7855.82
7854.16
7852.04
7849.78
7847.08
7844.02
7840.39
7836.04
7831.08
7824.29
7816.57
7807.93
7802.37
7858.56
7858.34
7857.38
7856.02
7854.34
7852.21
7849.94
7847.21
7844.14
7840.47
7836.09
7831.1
7824.28
7816.51
7807.84
7802.23
7858.77
7858.59
7857.63
7856.26
7854.57
7852.42
7850.14
7847.39
7844.29
7840.59
7836.18
7831.14
7824.28
7816.46
7807.76
7802.08
7859.02
7858.89
7857.93
7856.55
7854.85
7852.69
7850.39
7847.61
7844.49
7840.75
7836.32
7831.22
7824.32
7816.43
7807.68
7801.94
7859.33
7859.25
7858.29
7856.89
7855.19
7853.01
7850.7
7847.9
7844.75
7840.97
7836.5
7831.35
7824.4
7816.44
7807.63
7801.8
7859.69
7859.67
7858.71
7857.3
7855.6
7853.4
7851.08
7848.26
7845.09
7841.26
7836.76
7831.54
7824.53
7816.48
7807.61
7801.67
7860.1
7860.14
7859.19
7857.78
7856.07
7853.87
7851.54
7848.69
7845.5
7841.64
7837.1
7831.81
7824.74
7816.59
7807.64
7801.57
7860.58
7860.69
7859.74
7858.32
7856.62
7854.42
7852.08
7849.23
7846.02
7842.12
7837.54
7832.19
7825.05
7816.78
7807.74
7801.51
7861.12
7861.29
7860.36
7858.94
7857.25
7855.06
7852.73
7849.87
7846.65
7842.73
7838.12
7832.7
7825.49
7817.08
7807.93
7801.5
7861.73
7861.95
7861.04
7859.63
7857.96
7855.79
7853.48
7850.64
7847.42
7843.49
7838.87
7833.39
7826.11
7817.55
7808.27
7801.58
7862.39
7862.66
7861.77
7860.39
7858.75
7856.61
7854.33
7851.54
7848.35
7844.43
7839.81
7834.29
7826.96
7818.24
7808.81
7801.8
7863.09
7863.39
7862.53
7861.18
7859.59
7857.51
7855.29
7852.57
7849.44
7845.59
7841
7835.48
7828.11
7819.24
7809.63
7802.16
7863.81
7864.1
7863.29
7861.99
7860.46
7858.48
7856.35
7853.74
7850.7
7846.97
7842.47
7837.02
7829.69
7820.7
7810.92
7802.87
7864.51
7864.77
7864.01
7862.77
7861.34
7859.47
7857.46
7855.02
7852.13
7848.59
7844.26
7839
7831.81
7822.87
7813.11
7804.58
7865.17
7865.33
7864.63
7863.48
7862.16
7860.44
7858.59
7856.37
7853.69
7850.45
7846.39
7841.47
7834.64
7826.1
7816.95
7809.03
7865.71
7865.71
7865.08
7864.03
7862.84
7861.31
7859.67
7857.71
7855.31
7852.44
7848.74
7844.31
7837.96
7830.04
7821.69
7814.62
7866.06
7865.81
7865.28
7864.33
7863.31
7861.99
7860.59
7858.96
7856.88
7854.48
7851.22
7847.41
7841.62
7834.44
7826.93
7820.52
7866.14
7865.54
7865.1
7864.29
7863.44
7862.36
7861.24
7859.97
7858.28
7856.42
7853.66
7850.6
7845.44
7839.19
7832.5
7826.64
7865.84
7864.78
7864.44
7863.76
7863.12
7862.29
7861.48
7860.61
7859.35
7858.09
7855.9
7853.71
7849.26
7844.22
7838.25
7832.97
7865.04
7863.4
7863.16
7862.64
7862.2
7861.64
7861.14
7860.7
7859.9
7859.3
7857.76
7856.54
7852.94
7849.46
7844.18
7839.7
7863.63
7861.25
7861.14
7860.76
7860.55
7860.26
7860.1
7860.08
7859.76
7859.81
7858.91
7858.66
7856.13
7854.52
7850.28
7847.04
7861.45
7858.25
7858.25
7858.03
7858.03
7857.96
7858.05
7858.35
7858.46
7859.17
7859.08
7859.9
7858.63
7858.88
7856.1
7855.09
7858.42
7854.1
7854.19
7854.08
7854.31
7854.55
7855.02
7855.76
7856.44
7857.85
7858.63
7860.56
7860.5
7862.52
7861.38
7863.5
7854.24
7848.9
7849.17
7849.35
7849.96
7850.73
7851.8
7853.21
7854.62
7856.73
7858.28
7861.22
7862.31
7866
7866.37
7871.72
7848.98
7843.85
7844.44
7845.05
7846.15
7847.47
7849.15
7851.21
7853.33
7856.14
7858.42
7862.13
7864.16
7869.12
7870.75
7878.62
7843.8
7839.85
7840.72
7841.74
7843.31
7845.1
7847.29
7849.84
7852.51
7855.83
7858.72
7863.02
7865.81
7871.68
7874.3
7883.85
7839.66
7837.13
7838.18
7839.47
7841.33
7843.48
7846.04
7848.95
7852.04
7855.72
7859.1
7863.78
7867.17
7873.56
7876.93
7887.38
7836.82
7835.63
7836.75
7838.21
7840.25
7842.6
7845.4
7848.53
7851.91
7855.78
7859.52
7864.35
7868.17
7874.73
7878.59
7889.28
7835.23
7835.26
7836.39
7837.92
7840.03
7842.47
7845.38
7848.59
7852.12
7856.04
7859.96
7864.77
7868.82
7875.22
7879.34
7889.65
7834.8
7835.92
7837.03
7838.55
7840.64
7843.06
7845.98
7849.14
7852.69
7856.5
7860.47
7865.05
7869.16
7875.09
7879.21
7888.63
7835.44
7837.55
7838.59
7840.04
7842.04
7844.35
7847.16
7850.16
7853.61
7857.2
7861.06
7865.24
7869.22
7874.41
7878.29
7886.3
7837.09
7840.08
7841.01
7842.33
7844.16
7846.27
7848.88
7851.63
7854.87
7858.12
7861.75
7865.38
7869.05
7873.26
7876.64
7882.84
7839.67
7843.44
7844.23
7845.36
7846.95
7848.78
7851.11
7853.53
7856.46
7859.27
7862.54
7865.51
7868.69
7871.7
7874.34
7878.42
7843.09
7847.5
7848.15
7849.05
7850.37
7851.86
7853.84
7855.85
7858.38
7860.68
7863.48
7865.66
7868.18
7869.8
7871.5
7873.26
7847.23
7852.08
7852.61
7853.31
7854.36
7855.5
7857.09
7858.63
7860.69
7862.39
7864.6
7865.89
7867.57
7867.65
7868.2
7867.62
7851.86
7856.97
7857.43
7857.99
7858.82
7859.67
7860.88
7861.96
7863.5
7864.54
7866.04
7866.32
7866.94
7865.32
7864.59
7861.81
7856.78
7861.97
7862.39
7862.87
7863.58
7864.23
7865.16
7865.83
7866.86
7867.22
7867.92
7867.07
7866.42
7862.98
7860.87
7856.14
7861.8
7866.87
7867.25
7867.65
7868.29
7868.85
7869.62
7870.03
7870.65
7870.43
7870.34
7868.34
7866.25
7860.93
7857.41
7851.01
7866.73
7871.59
7871.92
7872.25
7872.86
7873.46
7874.24
7874.58
7875.02
7874.38
7873.55
7870.38
7866.72
7859.59
7854.76
7846.96
7871.47
7876.83
7877.15
7877.42
7877.91
7878.21
7878.54
7878.3
7877.92
7876.33
7874.33
7870.11
7865.58
7858.2
7852.94
7844.35
7876.71
7880.05
7880.14
7880.02
7879.84
7879.23
7878.51
7877.14
7875.53
7872.92
7870.08
7865.84
7861.82
7855.65
7851.22
7843.1
7880
7877.52
7877.27
7876.77
7876.03
7874.98
7873.75
7872
7870.05
7867.36
7864.62
7860.9
7857.64
7852.68
7849.11
7842.72
7877.61
7872.73
7872.34
7871.72
7870.91
7869.93
7868.76
7867.17
7865.39
7862.99
7860.5
7857.17
7854.08
7849.9
7846.57
7841.96
7872.88
7868.58
7868.22
7867.66
7866.89
7865.88
7864.67
7863.09
7861.35
7859.11
7856.82
7853.89
7851.13
7847.59
7844.42
7840.67
7868.71
7864.7
7864.32
7863.77
7863.02
7862.06
7860.92
7859.47
7857.86
7855.85
7853.77
7851.19
7848.72
7845.64
7842.87
7839.42
7864.82
7861.25
7860.89
7860.38
7859.67
7858.76
7857.68
7856.33
7854.85
7853.04
7851.17
7848.91
7846.72
7844.08
7841.65
7838.74
7861.37
7858.14
7857.79
7857.32
7856.65
7855.81
7854.81
7853.59
7852.25
7850.64
7848.97
7847
7845.07
7842.8
7840.71
7838.2
7858.25
7855.38
7855.05
7854.61
7853.99
7853.23
7852.31
7851.22
7850.01
7848.58
7847.11
7845.39
7843.71
7841.76
7839.97
7837.84
7855.48
7852.91
7852.6
7852.21
7851.64
7850.96
7850.13
7849.15
7848.07
7846.82
7845.52
7844.03
7842.58
7840.91
7839.38
7837.58
7853
7850.73
7850.44
7850.09
7849.58
7848.96
7848.22
7847.36
7846.4
7845.3
7844.17
7842.88
7841.63
7840.21
7838.91
7837.39
7850.81
7848.79
7848.53
7848.22
7847.76
7847.22
7846.55
7845.79
7844.95
7844
7843.01
7841.9
7840.83
7839.62
7838.52
7837.24
7848.87
7847.09
7846.85
7846.58
7846.16
7845.69
7845.1
7844.43
7843.7
7842.87
7842.02
7841.06
7840.15
7839.12
7838.19
7837.11
7847.15
7845.58
7845.37
7845.13
7844.76
7844.34
7843.83
7843.25
7842.61
7841.89
7841.16
7840.34
7839.56
7838.69
7837.91
7837
7845.64
7844.25
7844.06
7843.85
7843.53
7843.16
7842.71
7842.21
7841.65
7841.04
7840.41
7839.71
7839.05
7838.31
7837.65
7836.88
7844.3
7843.08
7842.91
7842.73
7842.44
7842.13
7841.73
7841.3
7840.82
7840.29
7839.75
7839.16
7838.59
7837.97
7837.42
7836.77
7843.12
7842.04
7841.89
7841.74
7841.49
7841.21
7840.87
7840.5
7840.08
7839.63
7839.17
7838.67
7838.19
7837.67
7837.2
7836.65
7842.08
7841.13
7840.99
7840.86
7840.64
7840.4
7840.11
7839.79
7839.43
7839.05
7838.65
7838.22
7837.82
7837.38
7836.99
7836.52
7841.16
7840.31
7840.19
7840.08
7839.89
7839.69
7839.43
7839.16
7838.85
7838.52
7838.19
7837.83
7837.48
7837.11
7836.78
7836.38
7840.34
7839.59
7839.48
7839.38
7839.22
7839.05
7838.83
7838.59
7838.33
7838.05
7837.76
7837.46
7837.17
7836.86
7836.58
7836.23
7839.61
7838.94
7838.85
7838.77
7838.62
7838.48
7838.29
7838.09
7837.86
7837.62
7837.38
7837.12
7836.88
7836.61
7836.37
7836.07
7838.96
7838.36
7838.28
7838.21
7838.09
7837.96
7837.8
7837.63
7837.44
7837.23
7837.03
7836.81
7836.6
7836.38
7836.17
7835.91
7838.38
7837.84
7837.77
7837.71
7837.6
7837.5
7837.36
7837.21
7837.05
7836.87
7836.7
7836.51
7836.34
7836.15
7835.97
7835.74
7837.86
7837.37
7837.31
7837.26
7837.17
7837.07
7836.95
7836.83
7836.69
7836.54
7836.39
7836.23
7836.08
7835.92
7835.77
7835.57
7837.38
7836.94
7836.89
7836.85
7836.77
7836.69
7836.58
7836.48
7836.36
7836.23
7836.1
7835.97
7835.84
7835.7
7835.57
7835.39
7836.95
7836.55
7836.51
7836.47
7836.4
7836.33
7836.24
7836.15
7836.05
7835.94
7835.83
7835.72
7835.61
7835.49
7835.37
7835.2
7836.56
7836.2
7836.16
7836.12
7836.07
7836.01
7835.93
7835.85
7835.76
7835.67
7835.57
7835.47
7835.38
7835.27
7835.17
7835.02
7836.21
7835.87
7835.84
7835.81
7835.75
7835.7
7835.64
7835.57
7835.49
7835.41
7835.33
7835.24
7835.16
7835.07
7834.97
7834.83
7835.88
7835.57
7835.54
7835.51
7835.47
7835.42
7835.36
7835.3
7835.24
7835.17
7835.09
7835.02
7834.94
7834.86
7834.78
7834.65
7835.57
7835.29
7835.26
7835.24
7835.2
7835.16
7835.11
7835.06
7835
7834.93
7834.87
7834.8
7834.74
7834.66
7834.58
7834.46
7835.29
7835.03
7835
7834.98
7834.95
7834.91
7834.87
7834.82
7834.77
7834.71
7834.66
7834.59
7834.54
7834.47
7834.39
7834.28
7835.03
7834.78
7834.76
7834.74
7834.71
7834.68
7834.64
7834.6
7834.55
7834.5
7834.45
7834.39
7834.34
7834.28
7834.21
7834.09
7834.79
7834.56
7834.54
7834.52
7834.49
7834.46
7834.43
7834.39
7834.35
7834.3
7834.25
7834.2
7834.15
7834.09
7834.02
7833.91
7834.56
7834.34
7834.33
7834.31
7834.29
7834.26
7834.23
7834.19
7834.15
7834.11
7834.06
7834.02
7833.97
7833.91
7833.85
7833.74
7834.35
7834.15
7834.13
7834.12
7834.09
7834.07
7834.04
7834
7833.97
7833.92
7833.88
7833.84
7833.79
7833.74
7833.67
7833.56
7834.15
7833.96
7833.95
7833.93
7833.91
7833.89
7833.86
7833.83
7833.79
7833.75
7833.71
7833.66
7833.62
7833.57
7833.5
7833.39
7833.96
7833.79
7833.78
7833.76
7833.74
7833.72
7833.69
7833.66
7833.62
7833.58
7833.54
7833.5
7833.45
7833.4
7833.33
7833.23
7833.79
7833.63
7833.62
7833.6
7833.58
7833.56
7833.53
7833.5
7833.47
7833.43
7833.39
7833.34
7833.3
7833.24
7833.17
7833.07
7833.63
7833.48
7833.47
7833.45
7833.43
7833.41
7833.38
7833.35
7833.32
7833.28
7833.24
7833.19
7833.14
7833.09
7833.02
7832.91
7833.48
7833.34
7833.33
7833.32
7833.3
7833.27
7833.25
7833.22
7833.18
7833.14
7833.1
7833.05
7833
7832.94
7832.87
7832.75
7833.34
7833.21
7833.2
7833.19
7833.17
7833.15
7833.12
7833.09
7833.05
7833.01
7832.97
7832.92
7832.87
7832.8
7832.72
7832.61
7833.22
7833.1
7833.09
7833.07
7833.06
7833.03
7833.01
7832.97
7832.94
7832.9
7832.85
7832.8
7832.74
7832.67
7832.59
7832.46
7833.1
7832.99
7832.98
7832.97
7832.95
7832.93
7832.9
7832.87
7832.83
7832.79
7832.74
7832.69
7832.62
7832.55
7832.46
7832.33
7833
7832.9
7832.89
7832.88
7832.86
7832.84
7832.81
7832.78
7832.74
7832.69
7832.65
7832.59
7832.52
7832.44
7832.34
7832.2
7832.9
7832.82
7832.81
7832.8
7832.78
7832.76
7832.73
7832.7
7832.66
7832.61
7832.56
7832.5
7832.43
7832.35
7832.24
7832.08
7832.82
7832.75
7832.74
7832.73
7832.71
7832.69
7832.66
7832.63
7832.59
7832.55
7832.5
7832.44
7832.36
7832.27
7832.15
7831.98
7832.75
7832.68
7832.68
7832.67
7832.65
7832.63
7832.6
7832.57
7832.54
7832.5
7832.45
7832.39
7832.31
7832.22
7832.09
7831.89
7832.69
7832.63
7832.63
7832.62
7832.6
7832.58
7832.56
7832.53
7832.5
7832.46
7832.41
7832.36
7832.29
7832.2
7832.06
7831.85
7832.64
7832.59
7832.58
7832.57
7832.56
7832.54
7832.52
7832.5
7832.47
7832.43
7832.4
7832.35
7832.29
7832.23
7832.12
7831.97
7832.59
7832.57
7832.56
7832.55
7832.54
7832.53
7832.51
7832.49
7832.46
7832.43
7832.4
7832.36
7832.31
7832.26
7832.2
7832.08
7832.57
)
;

boundaryField
{
    wireUpstream
    {
        type            calculated;
        value           nonuniform List<scalar> 
16
(
7832.54
7832.54
7832.53
7832.52
7832.51
7832.49
7832.47
7832.45
7832.42
7832.39
7832.36
7832.33
7832.29
7832.26
7832.24
7832.55
)
;
    }
    wireDownstream
    {
        type            calculated;
        value           nonuniform List<scalar> 
16
(
7858.41
7857.52
7856.28
7854.72
7852.71
7850.53
7848.02
7845.09
7841.74
7837.42
7832.68
7826.06
7818.54
7809.93
7804.56
7858.81
)
;
    }
    wireTopContact
    {
        type            calculated;
        value           nonuniform List<scalar> 
122
(
7803.39
7803.4
7803.38
7803.38
7803.38
7803.37
7803.36
7803.35
7803.34
7803.33
7803.31
7803.28
7803.26
7803.23
7803.2
7803.17
7803.13
7803.09
7803.05
7803
7802.95
7802.9
7802.84
7802.77
7802.7
7802.63
7802.54
7802.45
7802.35
7802.24
7802.13
7802
7801.87
7801.73
7801.59
7801.45
7801.32
7801.21
7801.12
7801.07
7801.09
7801.21
7801.46
7801.91
7802.7
7804.32
7808.94
7814.69
7820.74
7827.02
7833.39
7839.96
7846.99
7854.67
7862.74
7870.85
7877.63
7882.75
7886.27
7888.22
7888.68
7887.76
7885.56
7882.23
7877.96
7872.96
7867.53
7861.95
7856.57
7851.78
7848
7845.53
7844.19
7843.22
7841.8
7840.6
7839.42
7838.71
7838.16
7837.8
7837.53
7837.33
7837.18
7837.05
7836.94
7836.83
7836.72
7836.6
7836.47
7836.34
7836.19
7836.04
7835.88
7835.71
7835.54
7835.36
7835.18
7835
7834.81
7834.63
7834.45
7834.26
7834.08
7833.9
7833.73
7833.55
7833.38
7833.22
7833.06
7832.9
7832.75
7832.6
7832.46
7832.32
7832.19
7832.08
7831.98
7831.89
7831.85
7831.95
7832.04
7803.59
)
;
    }
    front
    {
        type            wedge;
    }
    back
    {
        type            wedge;
    }
}


// ************************************************************************* //
