/*--------------------------------*- C++ -*----------------------------------*\
| =========                 |                                                 |
| \\      /  F ield         | foam-extend: Open Source CFD                    |
|  \\    /   O peration     | Version:     4.1-20200408                       |
|   \\  /    A nd           | Web:         http://www.foam-extend.org         |
|    \\/     M anipulation  |                                                 |
\*---------------------------------------------------------------------------*/
FoamFile
{
    version     2.0;
    format      ascii;
    class       volScalarField;
    location    "0.0520000";
    object      rho_0_0;
}
// * * * * * * * * * * * * * * * * * * * * * * * * * * * * * * * * * * * * * //

dimensions      [1 -3 0 0 0 0 0];

internalField   nonuniform List<scalar> 
1952
(
7858.03
7857.14
7855.89
7854.33
7852.31
7850.13
7847.61
7844.69
7841.32
7837.01
7832.25
7825.64
7818.09
7809.45
7803.93
7858.43
7857.93
7857.03
7855.79
7854.23
7852.2
7850.03
7847.51
7844.59
7841.22
7836.92
7832.16
7825.56
7818.03
7809.41
7803.91
7858.33
7857.84
7856.94
7855.7
7854.14
7852.11
7849.94
7847.42
7844.5
7841.13
7836.84
7832.09
7825.5
7817.98
7809.38
7803.92
7858.24
7857.77
7856.87
7855.62
7854.06
7852.03
7849.86
7847.35
7844.43
7841.06
7836.78
7832.04
7825.45
7817.94
7809.36
7803.91
7858.16
7857.7
7856.8
7855.55
7853.99
7851.96
7849.8
7847.28
7844.37
7841
7836.72
7831.99
7825.42
7817.91
7809.34
7803.91
7858.09
7857.64
7856.74
7855.49
7853.93
7851.91
7849.74
7847.23
7844.31
7840.95
7836.68
7831.96
7825.38
7817.88
7809.32
7803.9
7858.03
7857.59
7856.69
7855.44
7853.88
7851.86
7849.7
7847.18
7844.27
7840.91
7836.64
7831.92
7825.35
7817.85
7809.3
7803.89
7857.99
7857.55
7856.65
7855.4
7853.83
7851.82
7849.66
7847.14
7844.23
7840.87
7836.61
7831.89
7825.32
7817.82
7809.28
7803.88
7857.94
7857.51
7856.61
7855.36
7853.8
7851.78
7849.62
7847.11
7844.2
7840.83
7836.57
7831.86
7825.29
7817.8
7809.26
7803.86
7857.91
7857.49
7856.58
7855.33
7853.77
7851.75
7849.59
7847.07
7844.17
7840.8
7836.54
7831.83
7825.26
7817.77
7809.23
7803.84
7857.88
7857.46
7856.56
7855.3
7853.74
7851.72
7849.56
7847.05
7844.14
7840.77
7836.52
7831.8
7825.23
7817.74
7809.21
7803.81
7857.86
7857.44
7856.54
7855.28
7853.71
7851.69
7849.54
7847.02
7844.11
7840.74
7836.49
7831.77
7825.2
7817.71
7809.18
7803.79
7857.84
7857.42
7856.52
7855.26
7853.69
7851.67
7849.52
7846.99
7844.08
7840.71
7836.46
7831.74
7825.16
7817.68
7809.15
7803.76
7857.82
7857.4
7856.5
7855.24
7853.67
7851.65
7849.49
7846.97
7844.06
7840.68
7836.43
7831.71
7825.13
7817.64
7809.12
7803.73
7857.8
7857.39
7856.48
7855.22
7853.65
7851.63
7849.47
7846.95
7844.03
7840.65
7836.4
7831.68
7825.1
7817.61
7809.08
7803.69
7857.79
7857.38
7856.47
7855.21
7853.63
7851.61
7849.46
7846.92
7844.01
7840.62
7836.37
7831.65
7825.06
7817.57
7809.05
7803.66
7857.78
7857.37
7856.46
7855.19
7853.62
7851.6
7849.44
7846.9
7843.98
7840.59
7836.34
7831.62
7825.02
7817.53
7809
7803.62
7857.77
7857.36
7856.45
7855.18
7853.6
7851.58
7849.42
7846.88
7843.96
7840.56
7836.31
7831.58
7824.98
7817.48
7808.96
7803.57
7857.77
7857.36
7856.45
7855.17
7853.59
7851.57
7849.4
7846.86
7843.94
7840.53
7836.28
7831.54
7824.94
7817.44
7808.92
7803.53
7857.76
7857.36
7856.45
7855.17
7853.58
7851.55
7849.39
7846.84
7843.91
7840.5
7836.25
7831.5
7824.9
7817.39
7808.87
7803.48
7857.76
7857.36
7856.45
7855.16
7853.58
7851.54
7849.38
7846.82
7843.89
7840.46
7836.22
7831.47
7824.85
7817.34
7808.82
7803.42
7857.77
7857.37
7856.45
7855.17
7853.57
7851.54
7849.37
7846.8
7843.87
7840.43
7836.18
7831.42
7824.8
7817.29
7808.76
7803.36
7857.78
7857.38
7856.46
7855.17
7853.57
7851.53
7849.36
7846.79
7843.85
7840.4
7836.15
7831.38
7824.75
7817.23
7808.7
7803.3
7857.79
7857.4
7856.48
7855.18
7853.58
7851.54
7849.36
7846.78
7843.83
7840.37
7836.11
7831.34
7824.7
7817.17
7808.63
7803.22
7857.81
7857.43
7856.5
7855.2
7853.6
7851.54
7849.36
7846.77
7843.82
7840.35
7836.08
7831.29
7824.65
7817.1
7808.56
7803.15
7857.84
7857.46
7856.54
7855.23
7853.62
7851.56
7849.37
7846.77
7843.81
7840.32
7836.05
7831.25
7824.59
7817.03
7808.49
7803.06
7857.88
7857.51
7856.58
7855.27
7853.66
7851.59
7849.39
7846.78
7843.81
7840.31
7836.03
7831.21
7824.54
7816.96
7808.41
7802.97
7857.93
7857.58
7856.65
7855.33
7853.71
7851.63
7849.43
7846.8
7843.82
7840.3
7836.01
7831.17
7824.48
7816.89
7808.33
7802.87
7858
7857.67
7856.73
7855.41
7853.78
7851.69
7849.48
7846.84
7843.84
7840.29
7836
7831.14
7824.43
7816.81
7808.24
7802.76
7858.09
7857.78
7856.84
7855.51
7853.87
7851.77
7849.55
7846.89
7843.88
7840.31
7835.99
7831.11
7824.38
7816.74
7808.14
7802.64
7858.2
7857.92
7856.98
7855.63
7853.98
7851.88
7849.64
7846.96
7843.93
7840.34
7836.01
7831.09
7824.34
7816.66
7808.05
7802.52
7858.34
7858.09
7857.14
7855.79
7854.13
7852.01
7849.76
7847.06
7844.01
7840.39
7836.04
7831.09
7824.31
7816.59
7807.96
7802.38
7858.52
7858.3
7857.35
7855.98
7854.31
7852.18
7849.92
7847.19
7844.13
7840.47
7836.09
7831.1
7824.29
7816.53
7807.86
7802.24
7858.73
7858.55
7857.6
7856.22
7854.55
7852.4
7850.12
7847.37
7844.28
7840.59
7836.19
7831.15
7824.3
7816.48
7807.77
7802.1
7858.98
7858.85
7857.9
7856.51
7854.83
7852.66
7850.37
7847.6
7844.48
7840.75
7836.32
7831.23
7824.34
7816.45
7807.7
7801.96
7859.29
7859.21
7858.25
7856.86
7855.16
7852.99
7850.68
7847.88
7844.74
7840.97
7836.5
7831.36
7824.42
7816.46
7807.65
7801.82
7859.64
7859.62
7858.67
7857.27
7855.57
7853.38
7851.06
7848.24
7845.08
7841.26
7836.76
7831.55
7824.55
7816.5
7807.63
7801.69
7860.06
7860.1
7859.15
7857.74
7856.04
7853.84
7851.51
7848.68
7845.49
7841.63
7837.1
7831.82
7824.76
7816.61
7807.66
7801.59
7860.54
7860.64
7859.7
7858.29
7856.59
7854.39
7852.06
7849.21
7846.01
7842.12
7837.54
7832.19
7825.07
7816.8
7807.76
7801.52
7861.08
7861.25
7860.32
7858.91
7857.22
7855.03
7852.7
7849.85
7846.64
7842.72
7838.12
7832.71
7825.51
7817.1
7807.95
7801.52
7861.69
7861.91
7861
7859.6
7857.93
7855.76
7853.45
7850.62
7847.41
7843.49
7838.86
7833.39
7826.12
7817.57
7808.29
7801.6
7862.34
7862.62
7861.73
7860.35
7858.72
7856.58
7854.31
7851.52
7848.33
7844.43
7839.81
7834.3
7826.97
7818.25
7808.82
7801.81
7863.04
7863.34
7862.49
7861.15
7859.56
7857.49
7855.27
7852.55
7849.42
7845.58
7840.99
7835.48
7828.13
7819.25
7809.64
7802.18
7863.76
7864.07
7863.25
7861.96
7860.44
7858.45
7856.32
7853.72
7850.69
7846.96
7842.46
7837.02
7829.69
7820.71
7810.93
7802.88
7864.47
7864.73
7863.97
7862.74
7861.31
7859.44
7857.44
7854.99
7852.11
7848.58
7844.25
7838.99
7831.81
7822.87
7813.11
7804.59
7865.13
7865.29
7864.6
7863.45
7862.13
7860.41
7858.57
7856.34
7853.67
7850.43
7846.37
7841.46
7834.63
7826.1
7816.94
7809
7865.67
7865.67
7865.05
7864
7862.82
7861.28
7859.64
7857.69
7855.29
7852.43
7848.72
7844.3
7837.96
7830.03
7821.67
7814.6
7866.02
7865.78
7865.24
7864.3
7863.28
7861.96
7860.57
7858.94
7856.87
7854.47
7851.2
7847.4
7841.62
7834.43
7826.91
7820.5
7866.1
7865.51
7865.07
7864.26
7863.42
7862.34
7861.22
7859.96
7858.27
7856.41
7853.65
7850.58
7845.44
7839.18
7832.48
7826.62
7865.81
7864.75
7864.42
7863.74
7863.1
7862.27
7861.46
7860.6
7859.34
7858.08
7855.89
7853.7
7849.25
7844.21
7838.23
7832.95
7865.02
7863.38
7863.15
7862.62
7862.19
7861.63
7861.13
7860.69
7859.9
7859.29
7857.75
7856.54
7852.93
7849.45
7844.17
7839.68
7863.61
7861.24
7861.12
7860.75
7860.54
7860.25
7860.09
7860.08
7859.76
7859.81
7858.92
7858.66
7856.13
7854.51
7850.27
7847.02
7861.44
7858.25
7858.25
7858.02
7858.03
7857.96
7858.06
7858.36
7858.47
7859.17
7859.09
7859.91
7858.63
7858.88
7856.09
7855.07
7858.41
7854.1
7854.19
7854.09
7854.32
7854.56
7855.03
7855.77
7856.45
7857.86
7858.63
7860.57
7860.51
7862.52
7861.38
7863.48
7854.24
7848.91
7849.18
7849.36
7849.98
7850.74
7851.81
7853.22
7854.63
7856.74
7858.29
7861.22
7862.32
7865.99
7866.37
7871.71
7848.99
7843.87
7844.45
7845.06
7846.16
7847.47
7849.16
7851.22
7853.34
7856.15
7858.42
7862.13
7864.16
7869.12
7870.75
7878.62
7843.82
7839.86
7840.74
7841.75
7843.31
7845.11
7847.3
7849.85
7852.52
7855.83
7858.73
7863.02
7865.82
7871.69
7874.31
7883.85
7839.67
7837.14
7838.19
7839.47
7841.34
7843.48
7846.04
7848.95
7852.05
7855.72
7859.11
7863.78
7867.17
7873.56
7876.93
7887.38
7836.83
7835.64
7836.76
7838.21
7840.25
7842.61
7845.41
7848.53
7851.91
7855.79
7859.52
7864.36
7868.17
7874.73
7878.6
7889.29
7835.23
7835.26
7836.4
7837.92
7840.03
7842.47
7845.39
7848.59
7852.12
7856.04
7859.97
7864.77
7868.83
7875.22
7879.35
7889.66
7834.8
7835.92
7837.03
7838.55
7840.65
7843.07
7845.98
7849.14
7852.69
7856.51
7860.47
7865.05
7869.16
7875.09
7879.22
7888.63
7835.45
7837.55
7838.59
7840.04
7842.04
7844.35
7847.16
7850.16
7853.61
7857.2
7861.06
7865.24
7869.22
7874.41
7878.29
7886.3
7837.09
7840.08
7841.01
7842.33
7844.16
7846.27
7848.88
7851.64
7854.88
7858.12
7861.75
7865.38
7869.06
7873.26
7876.64
7882.84
7839.67
7843.44
7844.23
7845.36
7846.95
7848.78
7851.11
7853.53
7856.46
7859.28
7862.55
7865.51
7868.7
7871.7
7874.34
7878.41
7843.1
7847.5
7848.15
7849.05
7850.37
7851.86
7853.84
7855.85
7858.38
7860.68
7863.48
7865.66
7868.18
7869.8
7871.49
7873.25
7847.23
7852.09
7852.62
7853.32
7854.36
7855.51
7857.09
7858.64
7860.7
7862.4
7864.61
7865.89
7867.57
7867.65
7868.2
7867.61
7851.87
7856.97
7857.44
7857.99
7858.83
7859.67
7860.89
7861.97
7863.5
7864.55
7866.05
7866.32
7866.94
7865.32
7864.58
7861.8
7856.78
7861.97
7862.4
7862.87
7863.59
7864.24
7865.17
7865.84
7866.86
7867.23
7867.92
7867.08
7866.42
7862.98
7860.86
7856.13
7861.8
7866.87
7867.26
7867.66
7868.3
7868.86
7869.63
7870.04
7870.66
7870.44
7870.35
7868.35
7866.26
7860.94
7857.4
7851
7866.73
7871.59
7871.92
7872.25
7872.87
7873.47
7874.25
7874.6
7875.03
7874.4
7873.57
7870.39
7866.73
7859.6
7854.76
7846.95
7871.47
7876.83
7877.15
7877.42
7877.91
7878.21
7878.54
7878.3
7877.92
7876.33
7874.32
7870.11
7865.58
7858.2
7852.94
7844.35
7876.72
7880.04
7880.13
7880.01
7879.81
7879.21
7878.48
7877.11
7875.49
7872.89
7870.05
7865.81
7861.8
7855.64
7851.21
7843.11
7879.99
7877.49
7877.24
7876.73
7876
7874.95
7873.71
7871.97
7870.01
7867.33
7864.59
7860.87
7857.61
7852.67
7849.1
7842.73
7877.58
7872.7
7872.31
7871.68
7870.88
7869.9
7868.74
7867.15
7865.37
7862.96
7860.47
7857.15
7854.06
7849.89
7846.56
7841.96
7872.84
7868.55
7868.19
7867.63
7866.86
7865.85
7864.64
7863.07
7861.32
7859.09
7856.8
7853.88
7851.12
7847.58
7844.42
7840.67
7868.68
7864.67
7864.29
7863.75
7863
7862.04
7860.89
7859.44
7857.84
7855.83
7853.76
7851.18
7848.7
7845.64
7842.86
7839.43
7864.8
7861.23
7860.87
7860.36
7859.65
7858.74
7857.65
7856.31
7854.83
7853.02
7851.16
7848.9
7846.71
7844.07
7841.65
7838.74
7861.35
7858.12
7857.77
7857.3
7856.63
7855.8
7854.79
7853.58
7852.23
7850.63
7848.96
7846.99
7845.07
7842.79
7840.71
7838.2
7858.23
7855.36
7855.03
7854.6
7853.97
7853.22
7852.3
7851.2
7849.99
7848.57
7847.1
7845.38
7843.71
7841.76
7839.97
7837.85
7855.46
7852.89
7852.59
7852.2
7851.63
7850.94
7850.11
7849.14
7848.06
7846.81
7845.51
7844.02
7842.57
7840.91
7839.38
7837.59
7852.99
7850.71
7850.43
7850.08
7849.56
7848.95
7848.21
7847.34
7846.39
7845.29
7844.16
7842.88
7841.63
7840.2
7838.91
7837.39
7850.8
7848.78
7848.52
7848.21
7847.75
7847.21
7846.54
7845.78
7844.94
7843.99
7843.01
7841.9
7840.83
7839.62
7838.52
7837.24
7848.86
7847.08
7846.84
7846.57
7846.15
7845.68
7845.09
7844.43
7843.69
7842.86
7842.01
7841.06
7840.15
7839.12
7838.2
7837.11
7847.14
7845.57
7845.36
7845.12
7844.75
7844.33
7843.82
7843.24
7842.6
7841.89
7841.15
7840.34
7839.56
7838.69
7837.91
7837
7845.63
7844.25
7844.05
7843.85
7843.52
7843.16
7842.71
7842.2
7841.65
7841.03
7840.4
7839.71
7839.05
7838.31
7837.66
7836.89
7844.3
7843.07
7842.9
7842.72
7842.44
7842.12
7841.73
7841.29
7840.81
7840.29
7839.75
7839.16
7838.59
7837.97
7837.42
7836.77
7843.12
7842.04
7841.89
7841.73
7841.48
7841.21
7840.87
7840.49
7840.08
7839.63
7839.17
7838.66
7838.19
7837.67
7837.2
7836.65
7842.08
7841.12
7840.99
7840.85
7840.63
7840.4
7840.1
7839.78
7839.43
7839.04
7838.65
7838.22
7837.82
7837.38
7836.99
7836.52
7841.15
7840.31
7840.19
7840.07
7839.88
7839.68
7839.43
7839.15
7838.85
7838.52
7838.18
7837.82
7837.48
7837.11
7836.78
7836.38
7840.34
7839.58
7839.48
7839.38
7839.22
7839.04
7838.83
7838.59
7838.33
7838.05
7837.76
7837.46
7837.17
7836.86
7836.58
7836.23
7839.61
7838.94
7838.85
7838.76
7838.62
7838.47
7838.28
7838.08
7837.86
7837.62
7837.38
7837.12
7836.88
7836.61
7836.37
7836.08
7838.96
7838.36
7838.28
7838.21
7838.09
7837.96
7837.8
7837.63
7837.43
7837.23
7837.03
7836.81
7836.6
7836.38
7836.17
7835.91
7838.38
7837.84
7837.77
7837.71
7837.6
7837.49
7837.35
7837.21
7837.05
7836.87
7836.7
7836.51
7836.34
7836.15
7835.97
7835.74
7837.85
7837.37
7837.31
7837.26
7837.16
7837.07
7836.95
7836.83
7836.69
7836.54
7836.39
7836.23
7836.08
7835.92
7835.77
7835.57
7837.38
7836.94
7836.89
7836.84
7836.77
7836.69
7836.58
7836.48
7836.36
7836.23
7836.1
7835.97
7835.84
7835.7
7835.57
7835.39
7836.95
7836.55
7836.51
7836.47
7836.4
7836.33
7836.24
7836.15
7836.05
7835.94
7835.83
7835.71
7835.6
7835.49
7835.37
7835.2
7836.56
7836.2
7836.16
7836.12
7836.06
7836.01
7835.93
7835.85
7835.76
7835.67
7835.57
7835.47
7835.38
7835.27
7835.17
7835.02
7836.2
7835.87
7835.83
7835.81
7835.75
7835.7
7835.64
7835.57
7835.49
7835.41
7835.33
7835.24
7835.16
7835.07
7834.97
7834.83
7835.88
7835.57
7835.54
7835.51
7835.47
7835.42
7835.36
7835.3
7835.24
7835.17
7835.09
7835.02
7834.94
7834.86
7834.78
7834.65
7835.57
7835.29
7835.26
7835.24
7835.2
7835.16
7835.11
7835.05
7835
7834.93
7834.87
7834.8
7834.74
7834.66
7834.58
7834.46
7835.29
7835.03
7835
7834.98
7834.95
7834.91
7834.87
7834.82
7834.77
7834.71
7834.66
7834.59
7834.54
7834.47
7834.39
7834.28
7835.03
7834.78
7834.76
7834.74
7834.71
7834.68
7834.64
7834.6
7834.55
7834.5
7834.45
7834.39
7834.34
7834.28
7834.21
7834.09
7834.79
7834.56
7834.54
7834.52
7834.49
7834.46
7834.43
7834.39
7834.35
7834.3
7834.25
7834.2
7834.15
7834.09
7834.02
7833.91
7834.56
7834.34
7834.33
7834.31
7834.29
7834.26
7834.23
7834.19
7834.15
7834.11
7834.06
7834.02
7833.97
7833.91
7833.84
7833.74
7834.35
7834.15
7834.13
7834.12
7834.09
7834.07
7834.04
7834
7833.96
7833.92
7833.88
7833.84
7833.79
7833.74
7833.67
7833.56
7834.15
7833.96
7833.95
7833.93
7833.91
7833.89
7833.86
7833.82
7833.79
7833.75
7833.71
7833.66
7833.62
7833.57
7833.5
7833.39
7833.96
7833.79
7833.77
7833.76
7833.74
7833.72
7833.69
7833.66
7833.62
7833.58
7833.54
7833.5
7833.45
7833.4
7833.33
7833.23
7833.79
7833.63
7833.61
7833.6
7833.58
7833.56
7833.53
7833.5
7833.47
7833.43
7833.39
7833.34
7833.3
7833.24
7833.17
7833.07
7833.63
7833.48
7833.47
7833.45
7833.43
7833.41
7833.38
7833.35
7833.32
7833.28
7833.24
7833.19
7833.14
7833.09
7833.02
7832.91
7833.48
7833.34
7833.33
7833.32
7833.3
7833.27
7833.25
7833.22
7833.18
7833.14
7833.1
7833.05
7833
7832.94
7832.87
7832.75
7833.34
7833.21
7833.2
7833.19
7833.17
7833.15
7833.12
7833.09
7833.05
7833.01
7832.97
7832.92
7832.87
7832.8
7832.72
7832.61
7833.22
7833.1
7833.09
7833.07
7833.06
7833.03
7833.01
7832.97
7832.94
7832.89
7832.85
7832.8
7832.74
7832.67
7832.59
7832.46
7833.1
7832.99
7832.98
7832.97
7832.95
7832.93
7832.9
7832.87
7832.83
7832.79
7832.74
7832.69
7832.62
7832.55
7832.46
7832.33
7833
7832.9
7832.89
7832.88
7832.86
7832.84
7832.81
7832.78
7832.74
7832.69
7832.65
7832.59
7832.52
7832.44
7832.34
7832.2
7832.9
7832.82
7832.81
7832.8
7832.78
7832.76
7832.73
7832.7
7832.66
7832.61
7832.56
7832.5
7832.43
7832.35
7832.24
7832.08
7832.82
7832.75
7832.74
7832.72
7832.71
7832.69
7832.66
7832.63
7832.59
7832.55
7832.5
7832.44
7832.36
7832.27
7832.15
7831.98
7832.75
7832.68
7832.68
7832.66
7832.65
7832.63
7832.6
7832.57
7832.54
7832.5
7832.45
7832.39
7832.31
7832.22
7832.09
7831.89
7832.69
7832.63
7832.63
7832.62
7832.6
7832.58
7832.56
7832.53
7832.5
7832.46
7832.41
7832.36
7832.29
7832.2
7832.06
7831.85
7832.64
7832.59
7832.58
7832.57
7832.56
7832.54
7832.52
7832.5
7832.47
7832.43
7832.4
7832.35
7832.29
7832.23
7832.12
7831.97
7832.59
7832.57
7832.56
7832.55
7832.54
7832.53
7832.51
7832.49
7832.46
7832.43
7832.4
7832.36
7832.31
7832.26
7832.2
7832.08
7832.57
7832.57
7832.56
7832.55
7832.54
7832.53
7832.51
7832.49
7832.46
7832.43
7832.4
7832.36
7832.31
7832.26
7832.2
7832.08
7832.57
7832.57
7832.56
7832.55
7832.54
7832.53
7832.51
7832.49
7832.46
7832.43
7832.4
7832.36
7832.31
7832.26
7832.2
7832.08
7832.57
)
;

boundaryField
{
    wireUpstream
    {
        type            calculated;
        value           nonuniform List<scalar> 
16
(
7832.54
7832.54
7832.53
7832.52
7832.51
7832.49
7832.47
7832.45
7832.42
7832.39
7832.36
7832.33
7832.29
7832.26
7832.24
7832.55
)
;
    }
    wireDownstream
    {
        type            calculated;
        value           nonuniform List<scalar> 
16
(
7858.03
7857.14
7855.89
7854.33
7852.31
7850.13
7847.61
7844.69
7841.32
7837.01
7832.25
7825.64
7818.09
7809.45
7803.93
7858.43
)
;
    }
    wireTopContact
    {
        type            calculated;
        value           nonuniform List<scalar> 
122
(
7803.4
7803.4
7803.39
7803.39
7803.38
7803.37
7803.36
7803.34
7803.32
7803.3
7803.28
7803.25
7803.22
7803.18
7803.15
7803.11
7803.07
7803.02
7802.97
7802.91
7802.86
7802.79
7802.72
7802.65
7802.56
7802.47
7802.37
7802.26
7802.15
7802.02
7801.89
7801.75
7801.61
7801.47
7801.34
7801.23
7801.14
7801.09
7801.11
7801.22
7801.48
7801.93
7802.71
7804.32
7808.92
7814.67
7820.71
7827
7833.37
7839.95
7846.98
7854.65
7862.72
7870.84
7877.63
7882.75
7886.28
7888.23
7888.69
7887.77
7885.56
7882.23
7877.95
7872.95
7867.52
7861.94
7856.56
7851.77
7848
7845.53
7844.2
7843.22
7841.8
7840.6
7839.42
7838.72
7838.17
7837.8
7837.53
7837.33
7837.18
7837.06
7836.94
7836.83
7836.72
7836.6
7836.47
7836.34
7836.19
7836.04
7835.88
7835.71
7835.54
7835.36
7835.18
7835
7834.81
7834.63
7834.45
7834.26
7834.08
7833.9
7833.73
7833.55
7833.38
7833.22
7833.06
7832.9
7832.75
7832.6
7832.46
7832.32
7832.19
7832.08
7831.98
7831.89
7831.85
7831.95
7832.04
7832.04
7832.04
7803.42
)
;
    }
    front
    {
        type            wedge;
    }
    back
    {
        type            wedge;
    }
}


// ************************************************************************* //
