/*--------------------------------*- C++ -*----------------------------------*\
| =========                 |                                                 |
| \\      /  F ield         | foam-extend: Open Source CFD                    |
|  \\    /   O peration     | Version:     4.1-20200408                       |
|   \\  /    A nd           | Web:         http://www.foam-extend.org         |
|    \\/     M anipulation  |                                                 |
\*---------------------------------------------------------------------------*/
FoamFile
{
    version     2.0;
    format      ascii;
    class       volSymmTensorField;
    location    "0.0520000";
    object      sigmaCauchy;
}
// * * * * * * * * * * * * * * * * * * * * * * * * * * * * * * * * * * * * * //

dimensions      [1 -1 -2 0 0 0 0];

internalField   nonuniform List<symmTensor> 
1952
(
(-6.09182e+08 185651 -4.11225 -2.1759e+08 -0.934285 -2.14564e+08)
(-5.87777e+08 -375878 -2.87282 -2.16247e+08 2.64782 -2.05417e+08)
(-5.61459e+08 184145 2.9781 -2.09817e+08 7.19636 -1.92606e+08)
(-5.22419e+08 -378528 8.65577 -2.06054e+08 -7.2378 -1.76989e+08)
(-4.78477e+08 205817 -2.69839 -1.97378e+08 -18.4852 -1.55863e+08)
(-4.24876e+08 -275945 -13.5076 -1.90674e+08 1.91359 -1.32401e+08)
(-3.58821e+08 226133 -3.07755 -1.79622e+08 27.5811 -1.05941e+08)
(-2.74395e+08 17328.9 7.61744 -1.70658e+08 -1.54253 -7.70289e+07)
(-1.71646e+08 409617 -1.45492 -1.57384e+08 -29.7652 -4.74613e+07)
(-3.00497e+07 558340 -9.31694 -1.46839e+08 14.762 -1.11041e+07)
(1.37746e+08 926952 -0.0479947 -1.30761e+08 33.0006 2.33491e+07)
(3.71369e+08 1.34579e+06 6.36674 -1.18712e+08 -14.3158 8.02292e+07)
(6.57466e+08 1.74203e+06 -0.779473 -9.74921e+07 -30.9949 1.24156e+08)
(9.96887e+08 2.84274e+06 -8.66328 -8.37314e+07 12.0309 2.28357e+08)
(1.18307e+09 3.75314e+06 -2.26306 -5.21075e+07 10.637 3.21636e+08)
(-6.14594e+08 -175295 -0.983255 -2.20662e+08 4.03128 -2.19473e+08)
(-6.09296e+08 452451 -8.22944 -2.16558e+08 -0.95442 -2.13465e+08)
(-5.87841e+08 -660540 -5.74695 -2.15087e+08 2.64609 -2.0433e+08)
(-5.61344e+08 556496 5.9599 -2.0856e+08 7.26563 -1.91322e+08)
(-5.2225e+08 -555319 17.3127 -2.04719e+08 -7.1945 -1.75715e+08)
(-4.78129e+08 731596 -5.39986 -1.95813e+08 -18.6182 -1.54317e+08)
(-4.24509e+08 -210887 -27.0102 -1.89065e+08 1.78892 -1.30824e+08)
(-3.58073e+08 906672 -6.1652 -1.77697e+08 27.7153 -1.04079e+08)
(-2.73535e+08 542679 15.215 -1.68723e+08 -1.44383 -7.51231e+07)
(-1.70293e+08 1.4317e+06 -2.91041 -1.55148e+08 -29.9109 -4.52896e+07)
(-2.8396e+07 1.80964e+06 -18.6163 -1.4465e+08 14.7326 -8.86815e+06)
(1.39655e+08 2.59973e+06 -0.0786244 -1.28415e+08 33.1463 2.58705e+07)
(3.73486e+08 3.39174e+06 12.6672 -1.16564e+08 -14.3296 8.28036e+07)
(6.60245e+08 3.93172e+06 -1.55767 -9.54322e+07 -31.1457 1.26861e+08)
(1.00003e+09 5.40427e+06 -17.1762 -8.22498e+07 12.0523 2.31057e+08)
(1.18669e+09 5.3624e+06 -4.41818 -5.13691e+07 10.6917 3.24298e+08)
(-6.14713e+08 -331038 -1.96912 -2.19544e+08 4.06322 -2.1842e+08)
(-6.09351e+08 529832 -8.23337 -2.15866e+08 -0.959684 -2.12754e+08)
(-5.87859e+08 -583962 -5.74719 -2.14373e+08 2.65594 -2.03606e+08)
(-5.61244e+08 727909 5.96325 -2.07786e+08 7.29746 -1.90519e+08)
(-5.22086e+08 -377884 17.3088 -2.03946e+08 -7.21707 -1.74895e+08)
(-4.77907e+08 1.00827e+06 -5.4027 -1.94953e+08 -18.6969 -1.53337e+08)
(-4.24279e+08 63613 -26.9869 -1.88225e+08 1.78497 -1.29838e+08)
(-3.57608e+08 1.27108e+06 -6.18342 -1.7675e+08 27.811 -1.02984e+08)
(-2.73009e+08 934345 15.1566 -1.67839e+08 -1.44154 -7.40372e+07)
(-1.69479e+08 1.89074e+06 -2.91258 -1.54192e+08 -29.9889 -4.41229e+07)
(-2.74216e+07 2.31611e+06 -18.5521 -1.43814e+08 14.7721 -7.73108e+06)
(1.40699e+08 3.13929e+06 -0.0465856 -1.27601e+08 33.2264 2.71138e+07)
(3.74541e+08 3.93261e+06 12.5937 -1.15945e+08 -14.366 8.40308e+07)
(6.61504e+08 4.39338e+06 -1.55749 -9.49679e+07 -31.2214 1.2805e+08)
(1.001e+09 5.78842e+06 -17.1217 -8.20545e+07 12.0677 2.32139e+08)
(1.18657e+09 5.43858e+06 -4.4181 -5.14345e+07 10.7168 3.25084e+08)
(-6.14781e+08 -318932 -1.96923 -2.18843e+08 4.08386 -2.17733e+08)
(-6.09279e+08 606950 -8.23783 -2.15254e+08 -0.962833 -2.1214e+08)
(-5.87749e+08 -508987 -5.74539 -2.13771e+08 2.66629 -2.0297e+08)
(-5.61032e+08 888962 5.96556 -2.07151e+08 7.3212 -1.89846e+08)
(-5.21823e+08 -230199 17.2906 -2.03325e+08 -7.24114 -1.74203e+08)
(-4.77588e+08 1.22641e+06 -5.40699 -1.94306e+08 -18.7557 -1.52555e+08)
(-4.23927e+08 297016 -26.9615 -1.87602e+08 1.78796 -1.29033e+08)
(-3.57072e+08 1.5623e+06 -6.20403 -1.76107e+08 27.8805 -1.02126e+08)
(-2.72393e+08 1.24098e+06 15.1004 -1.67248e+08 -1.44421 -7.31843e+07)
(-1.68647e+08 2.23244e+06 -2.91487 -1.53613e+08 -30.0441 -4.32457e+07)
(-2.64086e+07 2.68146e+06 -18.4992 -1.43328e+08 14.7981 -6.87701e+06)
(1.41702e+08 3.50153e+06 -0.0185032 -1.27177e+08 33.2807 2.80335e+07)
(3.75525e+08 4.25196e+06 12.5219 -1.1567e+08 -14.3838 8.49161e+07)
(6.62617e+08 4.61465e+06 -1.55731 -9.47943e+07 -31.271 1.28894e+08)
(1.00187e+09 5.89499e+06 -17.0747 -8.20194e+07 12.0811 2.32987e+08)
(1.18695e+09 5.39478e+06 -4.42971 -5.14222e+07 10.7361 3.25886e+08)
(-6.14725e+08 -305681 -1.97164 -2.1825e+08 4.10014 -2.17133e+08)
(-6.09137e+08 678426 -8.24201 -2.14803e+08 -0.96479 -2.11689e+08)
(-5.87565e+08 -438309 -5.74393 -2.13342e+08 2.67396 -2.02495e+08)
(-5.60752e+08 1.03803e+06 5.9675 -2.0669e+08 7.33591 -1.89344e+08)
(-5.21481e+08 -79177.4 17.2743 -2.02888e+08 -7.26146 -1.7368e+08)
(-4.772e+08 1.425e+06 -5.4108 -1.93839e+08 -18.7976 -1.51947e+08)
(-4.23501e+08 498746 -26.9312 -1.87183e+08 1.79478 -1.28412e+08)
(-3.56475e+08 1.80237e+06 -6.22804 -1.75671e+08 27.9251 -1.01471e+08)
(-2.71714e+08 1.48951e+06 15.0283 -1.66885e+08 -1.45991 -7.2537e+07)
(-1.67747e+08 2.48789e+06 -2.91785 -1.53254e+08 -30.0794 -4.25826e+07)
(-2.53481e+07 2.93656e+06 -18.4244 -1.43083e+08 14.8315 -6.24402e+06)
(1.42699e+08 3.69633e+06 0.0203569 -1.26973e+08 33.3231 2.87705e+07)
(3.76467e+08 4.41323e+06 12.4456 -1.15594e+08 -14.4032 8.56321e+07)
(6.63657e+08 4.69357e+06 -1.55718 -9.47476e+07 -31.3076 1.29582e+08)
(1.00261e+09 5.96009e+06 -17.0278 -8.20625e+07 12.0928 2.33618e+08)
(1.1871e+09 5.33578e+06 -4.44095 -5.14304e+07 10.7499 3.2649e+08)
(-6.14602e+08 -292963 -1.97337 -2.17819e+08 4.11001 -2.16694e+08)
(-6.08922e+08 745615 -8.24666 -2.14477e+08 -0.965535 -2.11366e+08)
(-5.87307e+08 -378099 -5.74178 -2.1305e+08 2.67989 -2.02151e+08)
(-5.60384e+08 1.17782e+06 5.96906 -2.06357e+08 7.34289 -1.88975e+08)
(-5.21084e+08 46754.5 17.2458 -2.02598e+08 -7.27999 -1.73298e+08)
(-4.76769e+08 1.56538e+06 -5.4158 -1.93531e+08 -18.8321 -1.51442e+08)
(-4.2302e+08 646049 -26.8986 -1.86906e+08 1.79527 -1.2789e+08)
(-3.55835e+08 1.96867e+06 -6.25312 -1.7539e+08 27.9616 -1.00922e+08)
(-2.70989e+08 1.65526e+06 14.9581 -1.66656e+08 -1.46574 -7.1996e+07)
(-1.66855e+08 2.63302e+06 -2.92083 -1.5306e+08 -30.1051 -4.20457e+07)
(-2.43083e+07 3.07104e+06 -18.3487 -1.42966e+08 14.8446 -5.73768e+06)
(1.43641e+08 3.77817e+06 0.0585741 -1.2691e+08 33.3463 2.92945e+07)
(3.77377e+08 4.47189e+06 12.3741 -1.15573e+08 -14.4115 8.61662e+07)
(6.64669e+08 4.68348e+06 -1.55714 -9.47573e+07 -31.3276 1.30104e+08)
(1.00331e+09 5.93861e+06 -16.9723 -8.20857e+07 12.1066 2.34221e+08)
(1.18738e+09 5.25646e+06 -4.45295 -5.14688e+07 10.7593 3.27027e+08)
(-6.1441e+08 -282299 -1.97613 -2.17521e+08 4.11484 -2.16384e+08)
(-6.08633e+08 802194 -8.25114 -2.14239e+08 -0.966448 -2.11118e+08)
(-5.86969e+08 -333842 -5.73891 -2.12836e+08 2.683 -2.01886e+08)
(-5.59955e+08 1.29795e+06 5.96931 -2.06139e+08 7.34688 -1.88692e+08)
(-5.20663e+08 133254 17.2067 -2.02418e+08 -7.29184 -1.72997e+08)
(-4.76312e+08 1.6734e+06 -5.4212 -1.93365e+08 -18.846 -1.51138e+08)
(-4.22497e+08 743240 -26.8659 -1.86764e+08 1.80435 -1.27551e+08)
(-3.55186e+08 2.08168e+06 -6.28102 -1.75275e+08 27.9737 -1.00575e+08)
(-2.70275e+08 1.73457e+06 14.8792 -1.66569e+08 -1.47746 -7.16481e+07)
(-1.65975e+08 2.69018e+06 -2.92431 -1.53018e+08 -30.1128 -4.17016e+07)
(-2.32794e+07 3.10838e+06 -18.2758 -1.42939e+08 14.847 -5.4013e+06)
(1.44552e+08 3.77793e+06 0.0990556 -1.26934e+08 33.3531 2.96786e+07)
(3.78233e+08 4.46363e+06 12.2946 -1.15608e+08 -14.4051 8.65548e+07)
(6.65615e+08 4.61493e+06 -1.55706 -9.48364e+07 -31.3355 1.30486e+08)
(1.00397e+09 5.87089e+06 -16.9356 -8.21364e+07 12.1202 2.34801e+08)
(1.1877e+09 5.18263e+06 -4.46205 -5.15041e+07 10.767 3.27564e+08)
(-6.14141e+08 -274548 -1.97697 -2.17293e+08 4.11645 -2.16149e+08)
(-6.0831e+08 835101 -8.25597 -2.14147e+08 -0.966938 -2.1101e+08)
(-5.8659e+08 -335831 -5.73675 -2.12745e+08 2.68205 -2.01762e+08)
(-5.59485e+08 1.35756e+06 5.96979 -2.06068e+08 7.34555 -1.88541e+08)
(-5.20225e+08 146194 17.1762 -2.02351e+08 -7.29823 -1.72775e+08)
(-4.7584e+08 1.72086e+06 -5.42627 -1.93319e+08 -18.8492 -1.50954e+08)
(-4.21962e+08 769436 -26.8308 -1.86737e+08 1.81247 -1.27342e+08)
(-3.54547e+08 2.12568e+06 -6.31149 -1.75277e+08 27.972 -1.00364e+08)
(-2.69573e+08 1.75649e+06 14.7948 -1.66597e+08 -1.4904 -7.14342e+07)
(-1.65125e+08 2.70448e+06 -2.92821 -1.53057e+08 -30.1091 -4.14855e+07)
(-2.22778e+07 3.10946e+06 -18.1949 -1.43004e+08 14.8536 -5.1874e+06)
(1.45438e+08 3.71616e+06 0.142425 -1.27007e+08 33.3568 3.00244e+07)
(3.79073e+08 4.3934e+06 12.216 -1.15704e+08 -14.4007 8.6922e+07)
(6.66543e+08 4.51394e+06 -1.55678 -9.49243e+07 -31.3419 1.30858e+08)
(1.00464e+09 5.81178e+06 -16.9082 -8.22164e+07 12.1325 2.35289e+08)
(1.18813e+09 5.11545e+06 -4.46978 -5.15067e+07 10.773 3.28076e+08)
(-6.13838e+08 -279651 -1.97952 -2.17201e+08 4.11286 -2.16053e+08)
(-6.07984e+08 866835 -8.26077 -2.14153e+08 -0.966972 -2.10998e+08)
(-5.86207e+08 -345986 -5.73339 -2.12733e+08 2.67861 -2.01733e+08)
(-5.59017e+08 1.40569e+06 5.97124 -2.06075e+08 7.34014 -1.88482e+08)
(-5.19794e+08 130214 17.1517 -2.02344e+08 -7.30551 -1.72603e+08)
(-4.75361e+08 1.7335e+06 -5.43087 -1.93303e+08 -18.8522 -1.50786e+08)
(-4.21419e+08 753634 -26.792 -1.86724e+08 1.82057 -1.27143e+08)
(-3.53903e+08 2.12047e+06 -6.34295 -1.75275e+08 27.9683 -1.00163e+08)
(-2.68872e+08 1.73497e+06 14.7059 -1.66618e+08 -1.50843 -7.12185e+07)
(-1.64278e+08 2.66414e+06 -2.93206 -1.53094e+08 -30.1058 -4.12673e+07)
(-2.13231e+07 3.05359e+06 -18.0977 -1.43084e+08 14.8658 -4.98028e+06)
(1.46251e+08 3.6012e+06 0.192234 -1.27101e+08 33.3616 3.03226e+07)
(3.79879e+08 4.28993e+06 12.1379 -1.15788e+08 -14.403 8.72705e+07)
(6.67481e+08 4.38219e+06 -1.55634 -9.49868e+07 -31.3459 1.31224e+08)
(1.00534e+09 5.75508e+06 -16.8755 -8.22735e+07 12.1463 2.35739e+08)
(1.18861e+09 5.05523e+06 -4.47607 -5.15158e+07 10.7766 3.28537e+08)
(-6.13529e+08 -287239 -1.98175 -2.17201e+08 4.10609 -2.16054e+08)
(-6.07636e+08 892466 -8.26564 -2.14166e+08 -0.967114 -2.1099e+08)
(-5.85802e+08 -368725 -5.73036 -2.12741e+08 2.67549 -2.01712e+08)
(-5.58541e+08 1.42506e+06 5.9741 -2.06107e+08 7.33394 -1.88443e+08)
(-5.19389e+08 87734.4 17.1383 -2.02379e+08 -7.30857 -1.72499e+08)
(-4.74895e+08 1.72732e+06 -5.43535 -1.9333e+08 -18.8522 -1.50659e+08)
(-4.20896e+08 700630 -26.7521 -1.86758e+08 1.82416 -1.2699e+08)
(-3.53282e+08 2.07003e+06 -6.37532 -1.75323e+08 27.964 -1.00002e+08)
(-2.68202e+08 1.65138e+06 14.611 -1.66672e+08 -1.51627 -7.10466e+07)
(-1.63483e+08 2.55631e+06 -2.93604 -1.53181e+08 -30.1001 -4.10958e+07)
(-2.04048e+07 2.93283e+06 -17.9991 -1.43166e+08 14.8595 -4.80988e+06)
(1.47056e+08 3.46092e+06 0.239755 -1.27197e+08 33.353 3.05104e+07)
(3.80687e+08 4.17993e+06 12.0596 -1.15867e+08 -14.401 8.75077e+07)
(6.68435e+08 4.23872e+06 -1.55614 -9.50541e+07 -31.338 1.31482e+08)
(1.00607e+09 5.68177e+06 -16.8443 -8.23211e+07 12.1684 2.36169e+08)
(1.18916e+09 4.99146e+06 -4.48182 -5.15313e+07 10.7793 3.29007e+08)
(-6.13196e+08 -299016 -1.98354 -2.17206e+08 4.09915 -2.16059e+08)
(-6.07303e+08 893698 -8.27048 -2.14236e+08 -0.96636 -2.11048e+08)
(-5.85429e+08 -428908 -5.72748 -2.12829e+08 2.67293 -2.01756e+08)
(-5.58097e+08 1.40222e+06 5.97587 -2.06195e+08 7.32393 -1.88477e+08)
(-5.18991e+08 10521.3 17.1169 -2.02489e+08 -7.3066 -1.72524e+08)
(-4.74444e+08 1.68403e+06 -5.44027 -1.93439e+08 -18.8395 -1.50655e+08)
(-4.20405e+08 599204 -26.7118 -1.86895e+08 1.82766 -1.26966e+08)
(-3.52697e+08 1.98626e+06 -6.41001 -1.7546e+08 27.9465 -9.99647e+07)
(-2.67573e+08 1.52795e+06 14.5123 -1.66821e+08 -1.52668 -7.10024e+07)
(-1.62711e+08 2.42948e+06 -2.94058 -1.53328e+08 -30.0829 -4.10394e+07)
(-1.95017e+07 2.81355e+06 -17.9087 -1.43294e+08 14.854 -4.74614e+06)
(1.47848e+08 3.29646e+06 0.286625 -1.27313e+08 33.3406 3.06823e+07)
(3.81473e+08 4.05249e+06 11.9785 -1.1599e+08 -14.3942 8.77185e+07)
(6.69388e+08 4.08745e+06 -1.55581 -9.51397e+07 -31.3294 1.31732e+08)
(1.00684e+09 5.61156e+06 -16.8145 -8.23955e+07 12.189 2.3659e+08)
(1.18979e+09 4.93054e+06 -4.48689 -5.1535e+07 10.7819 3.29499e+08)
(-6.12876e+08 -321524 -1.98551 -2.17279e+08 4.0904 -2.16127e+08)
(-6.07014e+08 882106 -8.27607 -2.14386e+08 -0.965336 -2.11184e+08)
(-5.85086e+08 -506294 -5.72521 -2.12975e+08 2.66809 -2.01877e+08)
(-5.57668e+08 1.36289e+06 5.97707 -2.06346e+08 7.31142 -1.88576e+08)
(-5.1863e+08 -95355.4 17.0923 -2.02641e+08 -7.30784 -1.72548e+08)
(-4.74037e+08 1.60315e+06 -5.4451 -1.93588e+08 -18.8286 -1.50664e+08)
(-4.19945e+08 462823 -26.6704 -1.87055e+08 1.83227 -1.26955e+08)
(-3.52138e+08 1.87527e+06 -6.44575 -1.75614e+08 27.9284 -9.9941e+07)
(-2.66968e+08 1.38449e+06 14.4064 -1.66987e+08 -1.53947 -7.09713e+07)
(-1.6195e+08 2.30126e+06 -2.94536 -1.53484e+08 -30.0658 -4.09922e+07)
(-1.86425e+07 2.68532e+06 -17.7937 -1.43442e+08 14.8518 -4.69888e+06)
(1.48609e+08 3.10773e+06 0.338193 -1.27442e+08 33.3294 3.08452e+07)
(3.82278e+08 3.91909e+06 11.8971 -1.16113e+08 -14.3917 8.79492e+07)
(6.70378e+08 3.94184e+06 -1.55536 -9.52268e+07 -31.3222 1.32007e+08)
(1.00767e+09 5.55563e+06 -16.785 -8.24635e+07 12.2102 2.37033e+08)
(1.19048e+09 4.87942e+06 -4.49038 -5.15434e+07 10.784 3.30002e+08)
(-6.12603e+08 -348502 -1.98735 -2.17426e+08 4.07934 -2.16273e+08)
(-6.06772e+08 866829 -8.28161 -2.14555e+08 -0.964353 -2.1134e+08)
(-5.84793e+08 -591981 -5.72273 -2.13138e+08 2.66315 -2.02018e+08)
(-5.57296e+08 1.30298e+06 5.97928 -2.06518e+08 7.29952 -1.88693e+08)
(-5.18313e+08 -232134 17.0729 -2.02807e+08 -7.3077 -1.72592e+08)
(-4.73665e+08 1.49701e+06 -5.44999 -1.93745e+08 -18.8186 -1.50681e+08)
(-4.19517e+08 297492 -26.6259 -1.87214e+08 1.83452 -1.26951e+08)
(-3.51606e+08 1.73403e+06 -6.48343 -1.75763e+08 27.9126 -9.99161e+07)
(-2.66382e+08 1.20733e+06 14.2949 -1.6715e+08 -1.54983 -7.09365e+07)
(-1.612e+08 2.14985e+06 -2.95033 -1.53632e+08 -30.0502 -4.09324e+07)
(-1.7826e+07 2.55353e+06 -17.6796 -1.4359e+08 14.8479 -4.64807e+06)
(1.49355e+08 2.91447e+06 0.387068 -1.27557e+08 33.3192 3.10157e+07)
(3.83092e+08 3.77529e+06 11.8178 -1.16232e+08 -14.39 8.81843e+07)
(6.7139e+08 3.79156e+06 -1.55486 -9.53002e+07 -31.3144 1.32289e+08)
(1.00854e+09 5.49569e+06 -16.7568 -8.25293e+07 12.2339 2.37479e+08)
(1.19123e+09 4.82794e+06 -4.49359 -5.15494e+07 10.786 3.30523e+08)
(-6.12376e+08 -377541 -1.99014 -2.17594e+08 4.06842 -2.1644e+08)
(-6.06587e+08 841619 -8.28691 -2.14718e+08 -0.963533 -2.11489e+08)
(-5.84558e+08 -693500 -5.71998 -2.13298e+08 2.65907 -2.02151e+08)
(-5.56976e+08 1.22906e+06 5.98108 -2.06682e+08 7.28901 -1.88801e+08)
(-5.18053e+08 -381806 17.0502 -2.02966e+08 -7.30765 -1.72637e+08)
(-4.73345e+08 1.36831e+06 -5.45496 -1.9389e+08 -18.8105 -1.50696e+08)
(-4.19135e+08 112151 -26.5802 -1.87369e+08 1.83779 -1.2694e+08)
(-3.51113e+08 1.56868e+06 -6.52164 -1.75898e+08 27.8991 -9.98792e+07)
(-2.65821e+08 1.01259e+06 14.1773 -1.67317e+08 -1.56559 -7.08889e+07)
(-1.60434e+08 1.99131e+06 -2.95565 -1.5376e+08 -30.0367 -4.08468e+07)
(-1.70342e+07 2.41929e+06 -17.5389 -1.43749e+08 14.8525 -4.59323e+06)
(1.50063e+08 2.70448e+06 0.440254 -1.27707e+08 33.312 3.11749e+07)
(3.83923e+08 3.62508e+06 11.7391 -1.16362e+08 -14.3929 8.84384e+07)
(6.72446e+08 3.64577e+06 -1.55438 -9.53893e+07 -31.3081 1.32591e+08)
(1.00946e+09 5.43768e+06 -16.7259 -8.2588e+07 12.2585 2.37955e+08)
(1.19204e+09 4.77909e+06 -4.49631 -5.15648e+07 10.7878 3.31062e+08)
(-6.12208e+08 -410865 -1.99312 -2.17757e+08 4.05855 -2.16601e+08)
(-6.06477e+08 811435 -8.29247 -2.14874e+08 -0.963221 -2.11628e+08)
(-5.8439e+08 -805709 -5.71748 -2.13445e+08 2.65526 -2.02272e+08)
(-5.56719e+08 1.13655e+06 5.98302 -2.06842e+08 7.28081 -1.88896e+08)
(-5.17853e+08 -555342 17.0293 -2.03115e+08 -7.30641 -1.72671e+08)
(-4.73078e+08 1.21406e+06 -5.46003 -1.94038e+08 -18.8065 -1.50693e+08)
(-4.18795e+08 -97891.5 -26.5332 -1.87506e+08 1.83515 -1.26911e+08)
(-3.50652e+08 1.36458e+06 -6.56152 -1.76033e+08 27.8939 -9.98176e+07)
(-2.65263e+08 786414 14.053 -1.67447e+08 -1.56441 -7.08089e+07)
(-1.59663e+08 1.79862e+06 -2.9616 -1.53884e+08 -30.0267 -4.07246e+07)
(-1.62959e+07 2.217e+06 -17.3923 -1.43875e+08 14.8575 -4.41184e+06)
(1.50749e+08 2.48809e+06 0.488386 -1.27865e+08 33.3091 3.13145e+07)
(3.84784e+08 3.47923e+06 11.666 -1.16457e+08 -14.4024 8.86881e+07)
(6.73534e+08 3.50967e+06 -1.55388 -9.54917e+07 -31.2993 1.32875e+08)
(1.01042e+09 5.37742e+06 -16.6976 -8.26342e+07 12.2882 2.3846e+08)
(1.1929e+09 4.72966e+06 -4.49863 -5.15878e+07 10.7899 3.31633e+08)
(-6.12114e+08 -446961 -1.99521 -2.17908e+08 4.05015 -2.16752e+08)
(-6.06441e+08 768419 -8.29798 -2.15024e+08 -0.962925 -2.11764e+08)
(-5.84304e+08 -938424 -5.71469 -2.13593e+08 2.65238 -2.02393e+08)
(-5.56541e+08 1.02226e+06 5.98469 -2.07e+08 7.27389 -1.8899e+08)
(-5.17728e+08 -749961 17.0048 -2.03258e+08 -7.30331 -1.72724e+08)
(-4.72875e+08 1.04274e+06 -5.46515 -1.94193e+08 -18.8032 -1.50702e+08)
(-4.18523e+08 -329104 -26.4846 -1.87641e+08 1.82781 -1.26899e+08)
(-3.50248e+08 1.15284e+06 -6.6026 -1.76188e+08 27.8938 -9.97647e+07)
(-2.64733e+08 544438 13.9233 -1.67565e+08 -1.5471 -7.07371e+07)
(-1.58925e+08 1.59074e+06 -2.96766 -1.54034e+08 -30.0168 -4.06135e+07)
(-1.5562e+07 1.97674e+06 -17.276 -1.43993e+08 14.8588 -4.15784e+06)
(1.51474e+08 2.25946e+06 0.531224 -1.27989e+08 33.3125 3.1531e+07)
(3.85682e+08 3.32553e+06 11.5892 -1.16546e+08 -14.4111 8.89818e+07)
(6.74658e+08 3.35741e+06 -1.55337 -9.55821e+07 -31.2929 1.33194e+08)
(1.01144e+09 5.32195e+06 -16.6684 -8.26922e+07 12.3175 2.38972e+08)
(1.19382e+09 4.6731e+06 -4.50187 -5.16014e+07 10.7925 3.32234e+08)
(-6.12095e+08 -488798 -1.99708 -2.18057e+08 4.04291 -2.169e+08)
(-6.06515e+08 719011 -8.30403 -2.15174e+08 -0.963238 -2.11894e+08)
(-5.84311e+08 -1.08504e+06 -5.71177 -2.13723e+08 2.64939 -2.02504e+08)
(-5.5644e+08 899232 5.986 -2.0715e+08 7.26986 -1.89065e+08)
(-5.17667e+08 -968140 16.9756 -2.03377e+08 -7.30324 -1.72719e+08)
(-4.72732e+08 843498 -5.47078 -1.94329e+08 -18.8084 -1.50658e+08)
(-4.18288e+08 -595749 -26.4321 -1.87747e+08 1.81914 -1.2683e+08)
(-3.49874e+08 913009 -6.64584 -1.76323e+08 27.903 -9.96564e+07)
(-2.64219e+08 267398 13.7887 -1.67671e+08 -1.52632 -7.06165e+07)
(-1.58211e+08 1.34517e+06 -2.97366 -1.54178e+08 -30.0121 -4.04676e+07)
(-1.48857e+07 1.71988e+06 -17.181 -1.4412e+08 14.8558 -3.9029e+06)
(1.52208e+08 2.01219e+06 0.571127 -1.28091e+08 33.3191 3.18089e+07)
(3.86605e+08 3.14635e+06 11.5172 -1.16638e+08 -14.4162 8.93255e+07)
(6.75828e+08 3.1902e+06 -1.5528 -9.56563e+07 -31.2904 1.33568e+08)
(1.0125e+09 5.25944e+06 -16.6359 -8.27462e+07 12.3429 2.39518e+08)
(1.1948e+09 4.6144e+06 -4.50547 -5.16243e+07 10.7948 3.32839e+08)
(-6.12188e+08 -534597 -1.99869 -2.18199e+08 4.03722 -2.17043e+08)
(-6.06684e+08 665803 -8.31018 -2.15285e+08 -0.964132 -2.11984e+08)
(-5.84414e+08 -1.24146e+06 -5.70849 -2.13816e+08 2.64774 -2.02575e+08)
(-5.56437e+08 756177 5.98829 -2.07267e+08 7.26978 -1.89101e+08)
(-5.17713e+08 -1.21504e+06 16.9522 -2.03467e+08 -7.30458 -1.72683e+08)
(-4.72679e+08 620623 -5.47644 -1.94435e+08 -18.8209 -1.50572e+08)
(-4.18132e+08 -892937 -26.3785 -1.87826e+08 1.80882 -1.26722e+08)
(-3.49565e+08 635715 -6.69034 -1.76429e+08 27.9204 -9.95057e+07)
(-2.63752e+08 -51269.1 13.6552 -1.67765e+08 -1.50546 -7.0455e+07)
(-1.57516e+08 1.05282e+06 -2.97971 -1.54296e+08 -30.0126 -4.02787e+07)
(-1.41976e+07 1.44341e+06 -17.0893 -1.44239e+08 14.8505 -3.64148e+06)
(1.52966e+08 1.75218e+06 0.609768 -1.28197e+08 33.3249 3.21026e+07)
(3.87564e+08 2.94408e+06 11.4462 -1.16735e+08 -14.4151 8.96739e+07)
(6.77052e+08 3.0077e+06 -1.55226 -9.57381e+07 -31.2876 1.33948e+08)
(1.01362e+09 5.1693e+06 -16.6071 -8.28022e+07 12.3665 2.40104e+08)
(1.19586e+09 4.55355e+06 -4.50922 -5.16493e+07 10.7977 3.33475e+08)
(-6.12377e+08 -582942 -2.00213 -2.18301e+08 4.03429 -2.17146e+08)
(-6.06978e+08 601496 -8.31608 -2.15353e+08 -0.965631 -2.12029e+08)
(-5.84636e+08 -1.42164e+06 -5.70518 -2.13876e+08 2.64816 -2.02602e+08)
(-5.56545e+08 590575 5.98984 -2.07352e+08 7.27355 -1.89096e+08)
(-5.17838e+08 -1.48858e+06 16.921 -2.03535e+08 -7.30531 -1.72639e+08)
(-4.72698e+08 362593 -5.48272 -1.94532e+08 -18.8362 -1.50479e+08)
(-4.18037e+08 -1.23143e+06 -26.3228 -1.87906e+08 1.7969 -1.26611e+08)
(-3.49309e+08 311958 -6.73662 -1.76541e+08 27.9407 -9.93541e+07)
(-2.63322e+08 -413574 13.5207 -1.67862e+08 -1.48243 -7.02923e+07)
(-1.56832e+08 713143 -2.98601 -1.54408e+08 -30.0138 -4.00838e+07)
(-1.35343e+07 1.11542e+06 -17.0061 -1.44348e+08 14.8521 -3.34327e+06)
(1.53729e+08 1.45637e+06 0.647229 -1.28304e+08 33.337 3.24465e+07)
(3.88541e+08 2.71168e+06 11.3792 -1.16842e+08 -14.4155 9.00668e+07)
(6.78314e+08 2.81123e+06 -1.55162 -9.58236e+07 -31.2895 1.34379e+08)
(1.0148e+09 5.07162e+06 -16.5843 -8.28797e+07 12.3895 2.40717e+08)
(1.19699e+09 4.49033e+06 -4.51284 -5.16567e+07 10.8018 3.34175e+08)
(-6.12691e+08 -638158 -2.00489 -2.18361e+08 4.03456 -2.17206e+08)
(-6.07404e+08 519269 -8.32333 -2.15416e+08 -0.967536 -2.1207e+08)
(-5.84986e+08 -1.6315e+06 -5.70218 -2.1392e+08 2.64892 -2.02624e+08)
(-5.56768e+08 387723 5.9914 -2.07425e+08 7.28004 -1.89079e+08)
(-5.18096e+08 -1.81026e+06 16.891 -2.03575e+08 -7.31063 -1.72548e+08)
(-4.72838e+08 56876.3 -5.48939 -1.94601e+08 -18.8608 -1.50341e+08)
(-4.18047e+08 -1.6177e+06 -26.2686 -1.8795e+08 1.78503 -1.26453e+08)
(-3.49135e+08 -53273 -6.7838 -1.76618e+08 27.9707 -9.91512e+07)
(-2.62951e+08 -808007 13.3886 -1.67925e+08 -1.45807 -7.00749e+07)
(-1.56185e+08 342768 -2.99222 -1.54497e+08 -30.0226 -3.98333e+07)
(-1.28564e+07 753833 -16.9246 -1.44449e+08 14.8562 -2.9866e+06)
(1.54533e+08 1.1148e+06 0.686026 -1.28385e+08 33.3561 3.28629e+07)
(3.89574e+08 2.44354e+06 11.3131 -1.16939e+08 -14.4199 9.05304e+07)
(6.79652e+08 2.57795e+06 -1.551 -9.58896e+07 -31.2968 1.34884e+08)
(1.01606e+09 4.96375e+06 -16.5585 -8.29519e+07 12.41 2.41356e+08)
(1.19821e+09 4.42039e+06 -4.51795 -5.1668e+07 10.806 3.34886e+08)
(-6.1314e+08 -701478 -2.00791 -2.18413e+08 4.03668 -2.1726e+08)
(-6.08005e+08 436718 -8.32996 -2.15428e+08 -0.970345 -2.12056e+08)
(-5.85501e+08 -1.84994e+06 -5.69827 -2.13909e+08 2.65148 -2.0259e+08)
(-5.57148e+08 178332 5.99334 -2.0745e+08 7.29244 -1.89005e+08)
(-5.18466e+08 -2.15452e+06 16.8585 -2.0357e+08 -7.31845 -1.72399e+08)
(-4.7307e+08 -280439 -5.49666 -1.94624e+08 -18.8949 -1.50138e+08)
(-4.18127e+08 -2.04315e+06 -26.2103 -1.8795e+08 1.77253 -1.2623e+08)
(-3.49009e+08 -472970 -6.83298 -1.76653e+08 28.0108 -9.88808e+07)
(-2.62612e+08 -1.26534e+06 13.2558 -1.6797e+08 -1.43463 -6.97956e+07)
(-1.55556e+08 -110097 -2.99857 -1.54569e+08 -30.0391 -3.95213e+07)
(-1.22278e+07 334189 -16.8556 -1.44547e+08 14.8548 -2.61828e+06)
(1.55331e+08 730519 0.724093 -1.28469e+08 33.3758 3.33003e+07)
(3.90629e+08 2.12822e+06 11.2519 -1.17041e+08 -14.4197 9.10153e+07)
(6.81051e+08 2.31539e+06 -1.55048 -9.59607e+07 -31.3064 1.35422e+08)
(1.01741e+09 4.81991e+06 -16.5332 -8.30199e+07 12.4289 2.42071e+08)
(1.19954e+09 4.34499e+06 -4.5231 -5.16882e+07 10.8108 3.3565e+08)
(-6.13766e+08 -767650 -2.0111 -2.18412e+08 4.04306 -2.17261e+08)
(-6.08748e+08 335359 -8.3378 -2.154e+08 -0.973708 -2.12002e+08)
(-5.86156e+08 -2.10385e+06 -5.69447 -2.13875e+08 2.65639 -2.0252e+08)
(-5.57666e+08 -83673.8 5.99615 -2.07451e+08 7.30839 -1.88903e+08)
(-5.19006e+08 -2.55265e+06 16.8298 -2.03559e+08 -7.32738 -1.72262e+08)
(-4.73454e+08 -674302 -5.50456 -1.94645e+08 -18.9334 -1.49942e+08)
(-4.18349e+08 -2.53062e+06 -26.1561 -1.87968e+08 1.76078 -1.26015e+08)
(-3.49005e+08 -968115 -6.88328 -1.76697e+08 28.0552 -9.86139e+07)
(-2.62381e+08 -1.7917e+06 13.1271 -1.68023e+08 -1.41352 -6.95154e+07)
(-1.54977e+08 -622202 -3.0054 -1.54626e+08 -30.0596 -3.91886e+07)
(-1.15535e+07 -142507 -16.7701 -1.44622e+08 14.8577 -2.21223e+06)
(1.56175e+08 288977 0.763388 -1.28548e+08 33.3975 3.37616e+07)
(3.91746e+08 1.76936e+06 11.1914 -1.17145e+08 -14.4218 9.15238e+07)
(6.82535e+08 2.02033e+06 -1.55012 -9.60407e+07 -31.317 1.35985e+08)
(1.01885e+09 4.65058e+06 -16.5185 -8.31094e+07 12.4512 2.42816e+08)
(1.20099e+09 4.25967e+06 -4.52943 -5.16936e+07 10.8172 3.36497e+08)
(-6.14535e+08 -843614 -2.01364 -2.18373e+08 4.05277 -2.17222e+08)
(-6.09723e+08 212603 -8.34583 -2.15386e+08 -0.977374 -2.11965e+08)
(-5.87043e+08 -2.3942e+06 -5.69067 -2.13846e+08 2.66244 -2.02461e+08)
(-5.58394e+08 -375145 5.99744 -2.07448e+08 7.32807 -1.88801e+08)
(-5.19687e+08 -2.98883e+06 16.7882 -2.03524e+08 -7.33782 -1.72107e+08)
(-4.73963e+08 -1.12149e+06 -5.51343 -1.94652e+08 -18.9778 -1.49728e+08)
(-4.18681e+08 -3.06977e+06 -26.0999 -1.87957e+08 1.74573 -1.2578e+08)
(-3.49079e+08 -1.50805e+06 -6.93623 -1.76727e+08 28.1087 -9.83174e+07)
(-2.62182e+08 -2.35928e+06 12.9936 -1.68053e+08 -1.38251 -6.92019e+07)
(-1.54416e+08 -1.18121e+06 -3.01272 -1.54685e+08 -30.0846 -3.88212e+07)
(-1.09386e+07 -692895 -16.7065 -1.44715e+08 14.8689 -1.71533e+06)
(1.57019e+08 -228001 0.801711 -1.28619e+08 33.4345 3.4337e+07)
(3.92904e+08 1.34453e+06 11.135 -1.17251e+08 -14.4307 9.2147e+07)
(6.84094e+08 1.66946e+06 -1.54964 -9.61081e+07 -31.338 1.36667e+08)
(1.02041e+09 4.46527e+06 -16.4966 -8.3193e+07 12.4689 2.43619e+08)
(1.20257e+09 4.16473e+06 -4.53761 -5.17065e+07 10.8234 3.37374e+08)
(-6.15539e+08 -930243 -2.0181 -2.1835e+08 4.0651 -2.17199e+08)
(-6.10903e+08 91037.1 -8.35506 -2.15358e+08 -0.982172 -2.11906e+08)
(-5.88107e+08 -2.69435e+06 -5.68642 -2.13785e+08 2.66899 -2.0238e+08)
(-5.59283e+08 -684792 6.00054 -2.07435e+08 7.35303 -1.88671e+08)
(-5.20582e+08 -3.46977e+06 16.7549 -2.03474e+08 -7.35646 -1.71873e+08)
(-4.74661e+08 -1.61847e+06 -5.52271 -1.94632e+08 -19.0391 -1.49434e+08)
(-4.19163e+08 -3.67046e+06 -26.0444 -1.87917e+08 1.73366 -1.25461e+08)
(-3.49277e+08 -2.133e+06 -6.99004 -1.76719e+08 28.1766 -9.79366e+07)
(-2.62104e+08 -3.0191e+06 12.8674 -1.6807e+08 -1.35853 -6.88109e+07)
(-1.53949e+08 -1.85388e+06 -3.01993 -1.54724e+08 -30.1227 -3.83777e+07)
(-1.03246e+07 -1.31034e+06 -16.6389 -1.44797e+08 14.8663 -1.24273e+06)
(1.57904e+08 -803899 0.842938 -1.28681e+08 33.4638 3.48976e+07)
(3.94135e+08 860724 11.0806 -1.17356e+08 -14.431 9.27571e+07)
(6.85785e+08 1.27549e+06 -1.54963 -9.61732e+07 -31.3558 1.37353e+08)
(1.02211e+09 4.22444e+06 -16.4814 -8.3276e+07 12.4897 2.44504e+08)
(1.20432e+09 4.05674e+06 -4.54682 -5.1725e+07 10.8306 3.38336e+08)
(-6.16752e+08 -1.01999e+06 -2.02138 -2.18303e+08 4.08087 -2.17156e+08)
(-6.12324e+08 -50673.2 -8.36409 -2.15315e+08 -0.987219 -2.11838e+08)
(-5.89432e+08 -3.03284e+06 -5.68228 -2.13738e+08 2.67916 -2.02291e+08)
(-5.60436e+08 -1.0486e+06 6.00388 -2.07417e+08 7.38227 -1.88541e+08)
(-5.2167e+08 -3.99918e+06 16.7183 -2.03438e+08 -7.36976 -1.71729e+08)
(-4.75525e+08 -2.17373e+06 -5.53354 -1.94632e+08 -19.0977 -1.49205e+08)
(-4.19814e+08 -4.3327e+06 -25.9898 -1.87914e+08 1.71709 -1.25212e+08)
(-3.49611e+08 -2.83385e+06 -7.04795 -1.76741e+08 28.2458 -9.76064e+07)
(-2.62114e+08 -3.75377e+06 12.7349 -1.68109e+08 -1.32781 -6.84607e+07)
(-1.53497e+08 -2.58656e+06 -3.02852 -1.54763e+08 -30.1594 -3.79412e+07)
(-9.72653e+06 -2.00888e+06 -16.5681 -1.44873e+08 14.876 -694832)
(1.58788e+08 -1.4627e+06 0.881754 -1.28754e+08 33.5038 3.55196e+07)
(3.95412e+08 307437 11.0312 -1.17474e+08 -14.4389 9.34344e+07)
(6.87548e+08 825800 -1.54958 -9.62566e+07 -31.3795 1.38104e+08)
(1.02395e+09 3.94761e+06 -16.4734 -8.33828e+07 12.5127 2.45437e+08)
(1.20627e+09 3.93197e+06 -4.55864 -5.17328e+07 10.839 3.39397e+08)
(-6.18206e+08 -1.12087e+06 -2.02544 -2.18254e+08 4.10063 -2.17104e+08)
(-6.14012e+08 -207122 -8.37514 -2.15347e+08 -0.992727 -2.11843e+08)
(-5.91003e+08 -3.40398e+06 -5.67732 -2.1374e+08 2.68866 -2.02268e+08)
(-5.61796e+08 -1.43154e+06 6.00616 -2.07454e+08 7.41364 -1.88458e+08)
(-5.22999e+08 -4.56521e+06 16.6716 -2.03425e+08 -7.38881 -1.71561e+08)
(-4.76616e+08 -2.78443e+06 -5.54524 -1.94658e+08 -19.1679 -1.48964e+08)
(-4.20656e+08 -5.05315e+06 -25.9366 -1.87908e+08 1.69999 -1.2494e+08)
(-3.50104e+08 -3.59367e+06 -7.1064 -1.7677e+08 28.3274 -9.72494e+07)
(-2.62247e+08 -4.54475e+06 12.6082 -1.68143e+08 -1.29151 -6.80783e+07)
(-1.5316e+08 -3.40045e+06 -3.03712 -1.54816e+08 -30.2047 -3.74785e+07)
(-9.1714e+06 -2.80092e+06 -16.5164 -1.44976e+08 14.8855 -112244)
(1.59712e+08 -2.21291e+06 0.923319 -1.28822e+08 33.5506 3.62226e+07)
(3.9678e+08 -328208 10.984 -1.17596e+08 -14.4475 9.42016e+07)
(6.89471e+08 305901 -1.54977 -9.6329e+07 -31.4097 1.38966e+08)
(1.02597e+09 3.63768e+06 -16.4621 -8.34846e+07 12.5311 2.46458e+08)
(1.20844e+09 3.7939e+06 -4.57287 -5.17522e+07 10.8469 3.40507e+08)
(-6.19933e+08 -1.23212e+06 -2.03036 -2.18274e+08 4.1214 -2.17126e+08)
(-6.15992e+08 -359252 -8.38653 -2.15432e+08 -0.998785 -2.11898e+08)
(-5.92861e+08 -3.78031e+06 -5.67186 -2.13786e+08 2.6991 -2.02295e+08)
(-5.63441e+08 -1.83825e+06 6.01086 -2.07538e+08 7.44896 -1.88421e+08)
(-5.24576e+08 -5.17354e+06 16.6332 -2.03457e+08 -7.40922 -1.71435e+08)
(-4.77921e+08 -3.4379e+06 -5.55812 -1.9471e+08 -19.2452 -1.48738e+08)
(-4.21688e+08 -5.82735e+06 -25.8822 -1.87927e+08 1.68198 -1.24679e+08)
(-3.50749e+08 -4.43439e+06 -7.16946 -1.76803e+08 28.4173 -9.6881e+07)
(-2.6251e+08 -5.42781e+06 12.4788 -1.68195e+08 -1.25704 -6.76819e+07)
(-1.52893e+08 -4.31716e+06 -3.04648 -1.54865e+08 -30.2571 -3.69768e+07)
(-8.66468e+06 -3.66568e+06 -16.4603 -1.45077e+08 14.8864 460138)
(1.60631e+08 -3.03715e+06 0.964694 -1.28892e+08 33.5938 3.6913e+07)
(3.98203e+08 -1.04165e+06 10.9433 -1.17725e+08 -14.4518 9.49638e+07)
(6.91509e+08 -276658 -1.55018 -9.64092e+07 -31.4377 1.39835e+08)
(1.02818e+09 3.25495e+06 -16.4628 -8.35924e+07 12.5534 2.47554e+08)