/*--------------------------------*- C++ -*----------------------------------*\
| =========                 |                                                 |
| \\      /  F ield         | foam-extend: Open Source CFD                    |
|  \\    /   O peration     | Version:     4.1-20200408                       |
|   \\  /    A nd           | Web:         http://www.foam-extend.org         |
|    \\/     M anipulation  |                                                 |
\*---------------------------------------------------------------------------*/
FoamFile
{
    version     2.0;
    format      ascii;
    class       volScalarField::DimensionedInternalField;
    location    "0.0195000";
    object      V0;
}
// * * * * * * * * * * * * * * * * * * * * * * * * * * * * * * * * * * * * * //

dimensions      [0 3 0 0 0 0 0];

value           nonuniform List<scalar> 
1952
(
1.4315e-14
2.38584e-14
3.34013e-14
4.29439e-14
5.24865e-14
6.20284e-14
7.15704e-14
8.11126e-14
9.06519e-14
1.00197e-13
1.09738e-13
1.1929e-13
1.28843e-13
1.38426e-13
1.4801e-13
4.77178e-15
1.43137e-14
2.38562e-14
3.33983e-14
4.294e-14
5.24819e-14
6.20231e-14
7.15642e-14
8.11056e-14
9.06443e-14
1.00189e-13
1.0973e-13
1.19281e-13
1.28835e-13
1.38418e-13
1.48005e-13
4.77135e-15
1.43125e-14
2.38542e-14
3.33955e-14
4.29364e-14
5.24775e-14
6.2018e-14
7.15583e-14
8.10991e-14
9.06372e-14
1.00181e-13
1.09722e-13
1.19273e-13
1.28827e-13
1.38412e-13
1.48001e-13
4.77094e-15
1.43113e-14
2.38523e-14
3.33929e-14
4.29331e-14
5.24735e-14
6.20132e-14
7.15529e-14
8.10931e-14
9.06308e-14
1.00174e-13
1.09715e-13
1.19266e-13
1.28821e-13
1.38407e-13
1.47997e-13
4.77055e-15
1.43103e-14
2.38505e-14
3.33904e-14
4.29299e-14
5.24696e-14
6.20088e-14
7.15478e-14
8.10876e-14
9.06249e-14
1.00168e-13
1.09709e-13
1.1926e-13
1.28815e-13
1.38402e-13
1.47994e-13
4.77019e-15
1.43092e-14
2.38488e-14
3.3388e-14
4.29269e-14
5.24661e-14
6.20046e-14
7.15431e-14
8.10826e-14
9.06195e-14
1.00163e-13
1.09703e-13
1.19255e-13
1.28811e-13
1.38398e-13
1.47991e-13
4.76985e-15
1.43082e-14
2.38471e-14
3.33857e-14
4.2924e-14
5.24626e-14
6.20005e-14
7.15386e-14
8.10776e-14
9.06142e-14
1.00157e-13
1.09698e-13
1.19249e-13
1.28806e-13
1.38394e-13
1.47987e-13
4.76952e-15
1.43073e-14
2.38456e-14
3.33836e-14
4.29213e-14
5.24593e-14
6.19968e-14
7.15344e-14
8.1073e-14
9.06093e-14
1.00152e-13
1.09693e-13
1.19245e-13
1.28801e-13
1.3839e-13
1.47984e-13
4.7692e-15
1.43064e-14
2.38441e-14
3.33816e-14
4.29187e-14
5.24562e-14
6.19933e-14
7.15304e-14
8.10687e-14
9.06048e-14
1.00147e-13
1.09688e-13
1.1924e-13
1.28797e-13
1.38386e-13
1.47981e-13
4.76891e-15
1.43056e-14
2.38427e-14
3.33797e-14
4.29163e-14
5.24533e-14
6.199e-14
7.15267e-14
8.10647e-14
9.06005e-14
1.00143e-13
1.09683e-13
1.19235e-13
1.28793e-13
1.38382e-13
1.47978e-13
4.76863e-15
1.43047e-14
2.38412e-14
3.33776e-14
4.29137e-14
5.24502e-14
6.19863e-14
7.15225e-14
8.10601e-14
9.05956e-14
1.00138e-13
1.09678e-13
1.1923e-13
1.28787e-13
1.38377e-13
1.47973e-13
4.76832e-15
1.43038e-14
2.38398e-14
3.33756e-14
4.29111e-14
5.2447e-14
6.19826e-14
7.15184e-14
8.10556e-14
9.05907e-14
1.00133e-13
1.09673e-13
1.19225e-13
1.28782e-13
1.38372e-13
1.47968e-13
4.76802e-15
1.4303e-14
2.38384e-14
3.33736e-14
4.29085e-14
5.2444e-14
6.19791e-14
7.15145e-14
8.10513e-14
9.0586e-14
1.00128e-13
1.09668e-13
1.1922e-13
1.28777e-13
1.38367e-13
1.47963e-13
4.76774e-15
1.4302e-14
2.38368e-14
3.33715e-14
4.29058e-14
5.24408e-14
6.19753e-14
7.15102e-14
8.10465e-14
9.05809e-14
1.00122e-13
1.09662e-13
1.19214e-13
1.28771e-13
1.38361e-13
1.47957e-13
4.76744e-15
1.43013e-14
2.38356e-14
3.33698e-14
4.29037e-14
5.24381e-14
6.19722e-14
7.15068e-14
8.10427e-14
9.05768e-14
1.00118e-13
1.09657e-13
1.19209e-13
1.28766e-13
1.38357e-13
1.47953e-13
4.76719e-15
1.43004e-14
2.38341e-14
3.33677e-14
4.2901e-14
5.24349e-14
6.19685e-14
7.15025e-14
8.10379e-14
9.05716e-14
1.00112e-13
1.09652e-13
1.19203e-13
1.2876e-13
1.38351e-13
1.47947e-13
4.76689e-15
1.42995e-14
2.38326e-14
3.33655e-14
4.28983e-14
5.24316e-14
6.19646e-14
7.14982e-14
8.10331e-14
9.05664e-14
1.00107e-13
1.09646e-13
1.19197e-13
1.28754e-13
1.38344e-13
1.4794e-13
4.76658e-15
1.42987e-14
2.38313e-14
3.33637e-14
4.2896e-14
5.24288e-14
6.19614e-14
7.14945e-14
8.10289e-14
9.05619e-14
1.00102e-13
1.09641e-13
1.19192e-13
1.28749e-13
1.38339e-13
1.47935e-13
4.76631e-15
1.42977e-14
2.38297e-14
3.33616e-14
4.28932e-14
5.24255e-14
6.19575e-14
7.14901e-14
8.1024e-14
9.05566e-14
1.00096e-13
1.09635e-13
1.19185e-13
1.28742e-13
1.38333e-13
1.47928e-13
4.76601e-15
1.42968e-14
2.38282e-14
3.33595e-14
4.28906e-14
5.24223e-14
6.19537e-14
7.14859e-14
8.10192e-14
9.05514e-14
1.0009e-13
1.09629e-13
1.19179e-13
1.28736e-13
1.38326e-13
1.47922e-13
4.7657e-15
1.4296e-14
2.38268e-14
3.33574e-14
4.2888e-14
5.24191e-14
6.19501e-14
7.14817e-14
8.10146e-14
9.05463e-14
1.00085e-13
1.09623e-13
1.19173e-13
1.2873e-13
1.3832e-13
1.47915e-13
4.76541e-15
1.42951e-14
2.38254e-14
3.33556e-14
4.28855e-14
5.24162e-14
6.19467e-14
7.14778e-14
8.10103e-14
9.05417e-14
1.0008e-13
1.09618e-13
1.19168e-13
1.28724e-13
1.38314e-13
1.47909e-13
4.76514e-15
1.42943e-14
2.38239e-14
3.33535e-14
4.28829e-14
5.24131e-14
6.1943e-14
7.14737e-14
8.10056e-14
9.05366e-14
1.00075e-13
1.09612e-13
1.19162e-13
1.28718e-13
1.38308e-13
1.47902e-13
4.76484e-15
1.42934e-14
2.38224e-14
3.33514e-14
4.28803e-14
5.24099e-14
6.19392e-14
7.14694e-14
8.10008e-14
9.05314e-14
1.00069e-13
1.09606e-13
1.19155e-13
1.28712e-13
1.38302e-13
1.47896e-13
4.76454e-15
1.42924e-14
2.38209e-14
3.33493e-14
4.28776e-14
5.24066e-14
6.19354e-14
7.14651e-14
8.0996e-14
9.05261e-14
1.00063e-13
1.096e-13
1.19149e-13
1.28705e-13
1.38295e-13
1.47889e-13
4.76423e-15
1.42915e-14
2.38194e-14
3.33472e-14
4.28748e-14
5.24033e-14
6.19316e-14
7.14607e-14
8.09911e-14
9.05209e-14
1.00057e-13
1.09594e-13
1.19143e-13
1.28699e-13
1.38289e-13
1.47882e-13
4.76392e-15
1.42905e-14
2.38177e-14
3.33448e-14
4.28718e-14
5.23997e-14
6.19273e-14
7.14559e-14
8.09858e-14
9.05151e-14
1.00051e-13
1.09587e-13
1.19136e-13
1.28692e-13
1.38282e-13
1.47875e-13
4.76358e-15
1.42896e-14
2.38162e-14
3.33427e-14
4.28692e-14
5.23965e-14
6.19236e-14
7.14517e-14
8.09812e-14
9.05101e-14
1.00046e-13
1.09582e-13
1.1913e-13
1.28686e-13
1.38276e-13
1.47869e-13
4.76328e-15
1.42886e-14
2.38145e-14
3.33404e-14
4.28663e-14
5.2393e-14
6.19196e-14
7.14472e-14
8.09762e-14
9.05046e-14
1.0004e-13
1.09576e-13
1.19124e-13
1.2868e-13
1.3827e-13
1.47862e-13
4.76295e-15
1.42874e-14
2.38126e-14
3.33377e-14
4.28628e-14
5.23888e-14
6.19147e-14
7.14417e-14
8.09702e-14
9.0498e-14
1.00033e-13
1.09568e-13
1.19117e-13
1.28672e-13
1.38262e-13
1.47854e-13
4.76255e-15
1.42864e-14
2.38109e-14
3.33354e-14
4.28598e-14
5.23853e-14
6.19106e-14
7.1437e-14
8.09651e-14
9.04925e-14
1.00027e-13
1.09563e-13
1.19111e-13
1.28666e-13
1.38256e-13
1.47849e-13
4.76221e-15
1.42853e-14
2.3809e-14
3.33329e-14
4.28566e-14
5.23814e-14
6.19062e-14
7.14321e-14
8.09598e-14
9.04867e-14
1.00021e-13
1.09556e-13
1.19104e-13
1.2866e-13
1.3825e-13
1.47842e-13
4.76184e-15
1.42841e-14
2.3807e-14
3.33301e-14
4.28531e-14
5.23772e-14
6.19014e-14
7.14267e-14
8.09539e-14
9.04804e-14
1.00015e-13
1.0955e-13
1.19098e-13
1.28653e-13
1.38243e-13
1.47836e-13
4.76144e-15
1.42829e-14
2.3805e-14
3.33273e-14
4.28496e-14
5.2373e-14
6.18966e-14
7.14214e-14
8.09481e-14
9.04743e-14
1.00009e-13
1.09543e-13
1.19091e-13
1.28647e-13
1.38237e-13
1.4783e-13
4.76103e-15
1.42816e-14
2.38029e-14
3.33244e-14
4.2846e-14
5.23687e-14
6.18916e-14
7.14158e-14
8.09421e-14
9.0468e-14
1.00002e-13
1.09537e-13
1.19085e-13
1.28641e-13
1.38231e-13
1.47824e-13
4.7606e-15
1.42801e-14
2.38005e-14
3.33211e-14
4.28418e-14
5.23636e-14
6.18858e-14
7.14094e-14
8.09352e-14
9.04607e-14
9.99945e-14
1.09529e-13
1.19077e-13
1.28634e-13
1.38224e-13
1.47818e-13
4.76011e-15
1.42786e-14
2.3798e-14
3.33176e-14
4.28374e-14
5.23584e-14
6.18799e-14
7.14029e-14
8.09282e-14
9.04533e-14
9.99869e-14
1.09522e-13
1.1907e-13
1.28627e-13
1.38218e-13
1.47812e-13
4.7596e-15
1.4277e-14
2.37953e-14
3.33138e-14
4.28327e-14
5.23527e-14
6.18735e-14
7.13958e-14
8.09205e-14
9.04453e-14
9.99788e-14
1.09514e-13
1.19062e-13
1.2862e-13
1.38211e-13
1.47807e-13
4.75906e-15
1.42752e-14
2.37924e-14
3.33098e-14
4.28276e-14
5.23466e-14
6.18665e-14
7.13881e-14
8.09122e-14
9.04367e-14
9.997e-14
1.09505e-13
1.19054e-13
1.28613e-13
1.38204e-13
1.47802e-13
4.75846e-15
1.42734e-14
2.37895e-14
3.33057e-14
4.28225e-14
5.23405e-14
6.18596e-14
7.13804e-14
8.0904e-14
9.04282e-14
9.99614e-14
1.09497e-13
1.19046e-13
1.28606e-13
1.38199e-13
1.47798e-13
4.75787e-15
1.42714e-14
2.37861e-14
3.33011e-14
4.28167e-14
5.23335e-14
6.18515e-14
7.13715e-14
8.08944e-14
9.04182e-14
9.99512e-14
1.09487e-13
1.19037e-13
1.28598e-13
1.38192e-13
1.47793e-13
4.75719e-15
1.42691e-14
2.37824e-14
3.32959e-14
4.281e-14
5.23256e-14
6.18424e-14
7.13613e-14
8.08833e-14
9.04067e-14
9.99393e-14
1.09476e-13
1.19027e-13
1.28589e-13
1.38185e-13
1.47788e-13
4.75644e-15
1.42667e-14
2.37783e-14
3.32902e-14
4.28028e-14
5.23168e-14
6.18322e-14
7.13499e-14
8.08709e-14
9.03936e-14
9.99258e-14
1.09462e-13
1.19014e-13
1.28578e-13
1.38176e-13
1.47783e-13
4.75563e-15
1.42641e-14
2.3774e-14
3.32841e-14
4.2795e-14
5.23074e-14
6.18212e-14
7.13374e-14
8.08571e-14
9.0379e-14
9.99106e-14
1.09447e-13
1.19e-13
1.28565e-13
1.38166e-13
1.47777e-13
4.75476e-15
1.42613e-14
2.37693e-14
3.32776e-14
4.27866e-14
5.22971e-14
6.18091e-14
7.13235e-14
8.08418e-14
9.03624e-14
9.98932e-14
1.0943e-13
1.18983e-13
1.28551e-13
1.38154e-13
1.47771e-13
4.75384e-15
1.42583e-14
2.37643e-14
3.32705e-14
4.27775e-14
5.22858e-14
6.17956e-14
7.13079e-14
8.08242e-14
9.03429e-14
9.98726e-14
1.09408e-13
1.18962e-13
1.28532e-13
1.38139e-13
1.47763e-13
4.75286e-15
1.42551e-14
2.3759e-14
3.32629e-14
4.27675e-14
5.22734e-14
6.17806e-14
7.12902e-14
8.0804e-14
9.03199e-14
9.98475e-14
1.09381e-13
1.18934e-13
1.28506e-13
1.38117e-13
1.47752e-13
4.7518e-15
1.42521e-14
2.37538e-14
3.32555e-14
4.27577e-14
5.22611e-14
6.17656e-14
7.12722e-14
8.0783e-14
9.02955e-14
9.982e-14
1.09351e-13
1.18901e-13
1.28473e-13
1.38086e-13
1.47732e-13
4.75079e-15
1.42488e-14
2.37482e-14
3.32475e-14
4.2747e-14
5.22475e-14
6.17488e-14
7.12518e-14
8.07588e-14
9.02668e-14
9.9787e-14
1.09313e-13
1.18859e-13
1.28427e-13
1.38037e-13
1.47684e-13
4.7497e-15
1.42455e-14
2.37426e-14
3.32394e-14
4.27362e-14
5.22335e-14
6.17313e-14
7.12302e-14
8.07327e-14
9.02352e-14
9.97498e-14
1.09269e-13
1.18808e-13
1.28367e-13
1.37969e-13
1.47606e-13
4.74862e-15
1.42424e-14
2.37373e-14
3.32317e-14
4.27257e-14
5.22199e-14
6.17139e-14
7.12083e-14
8.07057e-14
9.02018e-14
9.97094e-14
1.09219e-13
1.18749e-13
1.28296e-13
1.37885e-13
1.47504e-13
4.7476e-15
1.42395e-14
2.37322e-14
3.32243e-14
4.27155e-14
5.22064e-14
6.16966e-14
7.11861e-14
8.06777e-14
9.01665e-14
9.96658e-14
1.09164e-13
1.18683e-13
1.28213e-13
1.37785e-13
1.47383e-13
4.74663e-15
1.42368e-14
2.37277e-14
3.32175e-14
4.27061e-14
5.21938e-14
6.168e-14
7.11646e-14
8.06501e-14
9.01309e-14
9.96209e-14
1.09106e-13
1.18611e-13
1.28121e-13
1.37673e-13
1.47243e-13
4.74576e-15
1.42346e-14
2.37237e-14
3.32116e-14
4.26979e-14
5.21826e-14
6.1665e-14
7.11447e-14
8.0624e-14
9.00966e-14
9.95764e-14
1.09048e-13
1.18536e-13
1.28024e-13
1.37551e-13
1.47088e-13
4.74503e-15
1.42329e-14
2.37208e-14
3.32072e-14
4.26915e-14
5.21738e-14
6.16528e-14
7.11282e-14
8.06015e-14
9.00662e-14
9.95357e-14
1.08993e-13
1.18464e-13
1.27925e-13
1.37425e-13
1.46923e-13
4.74449e-15
1.4232e-14
2.37191e-14
3.32045e-14
4.26873e-14
5.21678e-14
6.16442e-14
7.11159e-14
8.05841e-14
9.00419e-14
9.95015e-14
1.08944e-13
1.18398e-13
1.27831e-13
1.37298e-13
1.46747e-13
4.74418e-15
1.42318e-14
2.37187e-14
3.32037e-14
4.26858e-14
5.21653e-14
6.16399e-14
7.11092e-14
8.05734e-14
9.00259e-14
9.94774e-14
1.08909e-13
1.18346e-13
1.27752e-13
1.37185e-13
1.46569e-13
4.74412e-15
1.42325e-14
2.37198e-14
3.32052e-14
4.26875e-14
5.2167e-14
6.16411e-14
7.11095e-14
8.05717e-14
9.00215e-14
9.94676e-14
1.08892e-13
1.18316e-13
1.27701e-13
1.37104e-13
1.46413e-13
4.74436e-15
1.42335e-14
2.37214e-14
3.32075e-14
4.26905e-14
5.21706e-14
6.16449e-14
7.11137e-14
8.05751e-14
9.00239e-14
9.94666e-14
1.08887e-13
1.18301e-13
1.27672e-13
1.3705e-13
1.46307e-13
4.74469e-15
1.42333e-14
2.37211e-14
3.3207e-14
4.26898e-14
5.21698e-14
6.16438e-14
7.11123e-14
8.05726e-14
9.00203e-14
9.94596e-14
1.08877e-13
1.18283e-13
1.27648e-13
1.37017e-13
1.46273e-13
4.74462e-15
1.42315e-14
2.37181e-14
3.32027e-14
4.26841e-14
5.21628e-14
6.16352e-14
7.11023e-14
8.05607e-14
9.00069e-14
9.94435e-14
1.0886e-13
1.18263e-13
1.27636e-13
1.37011e-13
1.46304e-13
4.74403e-15
1.42284e-14
2.3713e-14
3.31955e-14
4.26746e-14
5.2151e-14
6.16209e-14
7.10858e-14
8.05419e-14
8.99871e-14
9.94226e-14
1.08842e-13
1.18249e-13
1.2764e-13
1.37031e-13
1.46372e-13
4.74303e-15
1.42242e-14
2.37059e-14
3.31855e-14
4.26616e-14
5.21348e-14
6.16015e-14
7.10636e-14
8.05172e-14
8.99616e-14
9.93975e-14
1.08823e-13
1.18239e-13
1.27653e-13
1.37067e-13
1.4646e-13
4.74165e-15
1.42188e-14
2.36968e-14
3.31726e-14
4.26449e-14
5.21143e-14
6.15771e-14
7.1036e-14
8.04868e-14
8.99306e-14
9.93675e-14
1.088e-13
1.18227e-13
1.27666e-13
1.37107e-13
1.46555e-13
4.73984e-15
1.42128e-14
2.36868e-14
3.31586e-14
4.2627e-14
5.20927e-14
6.15522e-14
7.1008e-14
8.04562e-14
8.98994e-14
9.93375e-14
1.08775e-13
1.18213e-13
1.27676e-13
1.37147e-13
1.46649e-13
4.73788e-15
1.42062e-14
2.36757e-14
3.31431e-14
4.26071e-14
5.20688e-14
6.15247e-14
7.0977e-14
8.0421e-14
8.98623e-14
9.93029e-14
1.0875e-13
1.18204e-13
1.27689e-13
1.37185e-13
1.4672e-13
4.7357e-15
1.4199e-14
2.36636e-14
3.31259e-14
4.25847e-14
5.20409e-14
6.14923e-14
7.0942e-14
8.03871e-14
8.98355e-14
9.92906e-14
1.08757e-13
1.18232e-13
1.27732e-13
1.37237e-13
1.46774e-13
4.73331e-15
1.41908e-14
2.36504e-14
3.31084e-14
4.25638e-14
5.20184e-14
6.1471e-14
7.09266e-14
8.03835e-14
8.98477e-14
9.93202e-14
1.08802e-13
1.18287e-13
1.2779e-13
1.37296e-13
1.46823e-13
4.73053e-15
1.41867e-14
2.36445e-14
3.31024e-14
4.25599e-14
5.20197e-14
6.14803e-14
7.09455e-14
8.0412e-14
8.98834e-14
9.9361e-14
1.08846e-13
1.18334e-13
1.27838e-13
1.37344e-13
1.46865e-13
4.72905e-15
1.41898e-14
2.365e-14
3.31108e-14
4.2572e-14
5.20362e-14
6.15011e-14
7.097e-14
8.04402e-14
8.99141e-14
9.93937e-14
1.0888e-13
1.18371e-13
1.27875e-13
1.3738e-13
1.46896e-13
4.73002e-15
1.4194e-14
2.3657e-14
3.31207e-14
4.25847e-14
5.20512e-14
6.15183e-14
7.09894e-14
8.04627e-14
8.99399e-14
9.94222e-14
1.0891e-13
1.18401e-13
1.27904e-13
1.37408e-13
1.4692e-13
4.73142e-15
1.41972e-14
2.36624e-14
3.31285e-14
4.2595e-14
5.20642e-14
6.15339e-14
7.10075e-14
8.04829e-14
8.99616e-14
9.94452e-14
1.08934e-13
1.18425e-13
1.27927e-13
1.37429e-13
1.46937e-13
4.73245e-15
1.42004e-14
2.36677e-14
3.31359e-14
4.26045e-14
5.20756e-14
6.15473e-14
7.10227e-14
8.04997e-14
8.99798e-14
9.94646e-14
1.08954e-13
1.18444e-13
1.27945e-13
1.37445e-13
1.46949e-13
4.73351e-15
1.42031e-14
2.36724e-14
3.31424e-14
4.26129e-14
5.20858e-14
6.15592e-14
7.10362e-14
8.05145e-14
8.99955e-14
9.94809e-14
1.0897e-13
1.1846e-13
1.27959e-13
1.37457e-13
1.46958e-13
4.73443e-15
1.42056e-14
2.36765e-14
3.31481e-14
4.26201e-14
5.20945e-14
6.15692e-14
7.10473e-14
8.05267e-14
9.00083e-14
9.9494e-14
1.08983e-13
1.18472e-13
1.2797e-13
1.37466e-13
1.46964e-13
4.73525e-15
1.42079e-14
2.36802e-14
3.31533e-14
4.26267e-14
5.21024e-14
6.15783e-14
7.10574e-14
8.05375e-14
9.00195e-14
9.95054e-14
1.08994e-13
1.18483e-13
1.27979e-13
1.37473e-13
1.46968e-13
4.736e-15
1.42097e-14
2.36832e-14
3.31575e-14
4.26319e-14
5.21086e-14
6.15853e-14
7.10651e-14
8.05456e-14
9.00278e-14
9.95136e-14
1.09001e-13
1.18489e-13
1.27984e-13
1.37477e-13
1.46969e-13
4.73661e-15
1.42113e-14
2.36859e-14
3.31611e-14
4.26365e-14
5.21139e-14
6.15914e-14
7.10716e-14
8.05525e-14
9.00347e-14
9.95203e-14
1.09007e-13
1.18495e-13
1.27988e-13
1.37479e-13
1.46969e-13
4.73714e-15
1.42125e-14
2.36879e-14
3.31638e-14
4.26398e-14
5.21179e-14
6.15957e-14
7.10762e-14
8.05572e-14
9.00392e-14
9.95245e-14
1.09011e-13
1.18497e-13
1.27989e-13
1.37479e-13
1.46966e-13
4.73755e-15
1.42137e-14
2.36898e-14
3.31665e-14
4.26432e-14
5.21218e-14
6.16001e-14
7.10808e-14
8.05619e-14
9.00439e-14
9.95288e-14
1.09015e-13
1.185e-13
1.27991e-13
1.37479e-13
1.46965e-13
4.73795e-15
1.42146e-14
2.36913e-14
3.31684e-14
4.26456e-14
5.21245e-14
6.1603e-14
7.10839e-14
8.0565e-14
9.00467e-14
9.95312e-14
1.09016e-13
1.18501e-13
1.2799e-13
1.37478e-13
1.46962e-13
4.73825e-15
1.42151e-14
2.36922e-14
3.31696e-14
4.2647e-14
5.21261e-14
6.16047e-14
7.10855e-14
8.05664e-14
9.00477e-14
9.95317e-14
1.09016e-13
1.185e-13
1.27988e-13
1.37474e-13
1.46956e-13
4.73844e-15
1.42155e-14
2.36927e-14
3.31703e-14
4.26478e-14
5.21269e-14
6.16054e-14
7.1086e-14
8.05666e-14
9.00474e-14
9.95309e-14
1.09014e-13
1.18497e-13
1.27984e-13
1.37469e-13
1.4695e-13
4.73855e-15
1.42158e-14
2.36931e-14
3.31709e-14
4.26484e-14
5.21275e-14
6.1606e-14
7.10864e-14
8.05667e-14
9.00471e-14
9.953e-14
1.09013e-13
1.18495e-13
1.27981e-13
1.37465e-13
1.46944e-13
4.73865e-15
1.4216e-14
2.36935e-14
3.31714e-14
4.2649e-14
5.2128e-14
6.16064e-14
7.10867e-14
8.05667e-14
9.00467e-14
9.95292e-14
1.09011e-13
1.18493e-13
1.27978e-13
1.37461e-13
1.46939e-13
4.73873e-15
1.42159e-14
2.36933e-14
3.31711e-14
4.26485e-14
5.21274e-14
6.16055e-14
7.10854e-14
8.0565e-14
9.00444e-14
9.95263e-14
1.09008e-13
1.18488e-13
1.27972e-13
1.37454e-13
1.46931e-13
4.7387e-15
1.4216e-14
2.36935e-14
3.31713e-14
4.26487e-14
5.21275e-14
6.16055e-14
7.10852e-14
8.05646e-14
9.00437e-14
9.95251e-14
1.09006e-13
1.18486e-13
1.27969e-13
1.3745e-13
1.46927e-13
4.73874e-15
1.42159e-14
2.36933e-14
3.31709e-14
4.26482e-14
5.21268e-14
6.16045e-14
7.10839e-14
8.05628e-14
9.00415e-14
9.95224e-14
1.09003e-13
1.18482e-13
1.27965e-13
1.37445e-13
1.4692e-13
4.73869e-15
1.42155e-14
2.36926e-14
3.31699e-14
4.26468e-14
5.2125e-14
6.16024e-14
7.10813e-14
8.05597e-14
9.00378e-14
9.9518e-14
1.08998e-13
1.18476e-13
1.27958e-13
1.37437e-13
1.46911e-13
4.73856e-15
1.42151e-14
2.3692e-14
3.31691e-14
4.26457e-14
5.21236e-14
6.16006e-14
7.10791e-14
8.05571e-14
9.00347e-14
9.95143e-14
1.08993e-13
1.18471e-13
1.27952e-13
1.37431e-13
1.46904e-13
4.73845e-15
1.42148e-14
2.36915e-14
3.31683e-14
4.26447e-14
5.21223e-14
6.15989e-14
7.10771e-14
8.05547e-14
9.00318e-14
9.9511e-14
1.08989e-13
1.18467e-13
1.27947e-13
1.37425e-13
1.46898e-13
4.73835e-15
1.42143e-14
2.36906e-14
3.31671e-14
4.26431e-14
5.21203e-14
6.15965e-14
7.10742e-14
8.05513e-14
9.00278e-14
9.95064e-14
1.08984e-13
1.18461e-13
1.2794e-13
1.37417e-13
1.46889e-13
4.73818e-15
1.42138e-14
2.36897e-14
3.31657e-14
4.26413e-14
5.21181e-14
6.15939e-14
7.1071e-14
8.05476e-14
9.00236e-14
9.95017e-14
1.08979e-13
1.18455e-13
1.27934e-13
1.3741e-13
1.46881e-13
4.738e-15
1.42131e-14
2.36885e-14
3.31641e-14
4.26393e-14
5.21155e-14
6.15908e-14
7.10674e-14
8.05434e-14
9.00188e-14
9.94962e-14
1.08973e-13
1.18448e-13
1.27926e-13
1.37402e-13
1.46872e-13
4.73777e-15
1.42124e-14
2.36873e-14
3.31624e-14
4.2637e-14
5.21128e-14
6.15875e-14
7.10635e-14
8.05389e-14
9.00137e-14
9.94905e-14
1.08966e-13
1.18441e-13
1.27918e-13
1.37393e-13
1.46863e-13
4.73753e-15
1.42117e-14
2.36862e-14
3.31608e-14
4.26349e-14
5.21101e-14
6.15843e-14
7.10598e-14
8.05347e-14
9.00088e-14
9.9485e-14
1.0896e-13
1.18434e-13
1.27911e-13
1.37385e-13
1.46854e-13
4.7373e-15
1.42109e-14
2.36849e-14
3.31591e-14
4.26327e-14
5.21074e-14
6.1581e-14
7.1056e-14
8.05302e-14
9.00039e-14
9.94794e-14
1.08954e-13
1.18427e-13
1.27903e-13
1.37377e-13
1.46845e-13
4.73706e-15
1.42102e-14
2.36838e-14
3.31574e-14
4.26306e-14
5.21048e-14
6.15779e-14
7.10524e-14
8.05261e-14
8.99992e-14
9.94742e-14
1.08948e-13
1.18421e-13
1.27896e-13
1.37369e-13
1.46837e-13
4.73683e-15
1.42095e-14
2.36826e-14
3.31557e-14
4.26283e-14
5.2102e-14
6.15747e-14
7.10486e-14
8.05218e-14
8.99943e-14
9.94687e-14
1.08942e-13
1.18414e-13
1.27889e-13
1.37361e-13
1.46828e-13
4.73658e-15
1.42085e-14
2.36809e-14
3.31534e-14
4.26253e-14
5.20983e-14
6.15703e-14
7.10435e-14
8.0516e-14
8.99877e-14
9.94614e-14
1.08934e-13
1.18405e-13
1.27879e-13
1.37351e-13
1.46817e-13
4.73625e-15
1.42077e-14
2.36796e-14
3.31515e-14
4.26229e-14
5.20954e-14
6.15667e-14
7.10394e-14
8.05113e-14
8.99825e-14
9.94555e-14
1.08928e-13
1.18398e-13
1.27872e-13
1.37343e-13
1.46808e-13
4.73598e-15
1.42069e-14
2.36782e-14
3.31495e-14
4.26204e-14
5.20923e-14
6.15631e-14
7.10351e-14
8.05064e-14
8.9977e-14
9.94495e-14
1.08921e-13
1.18391e-13
1.27864e-13
1.37334e-13
1.46799e-13
4.7357e-15
1.42059e-14
2.36766e-14
3.31474e-14
4.26176e-14
5.20888e-14
6.1559e-14
7.10304e-14
8.05011e-14
8.9971e-14
9.94428e-14
1.08914e-13
1.18383e-13
1.27855e-13
1.37325e-13
1.46789e-13
4.73539e-15
1.42051e-14
2.36753e-14
3.31455e-14
4.26152e-14
5.20859e-14
6.15555e-14
7.10264e-14
8.04965e-14
8.99659e-14
9.94371e-14
1.08907e-13
1.18376e-13
1.27848e-13
1.37317e-13
1.4678e-13
4.73513e-15
1.42042e-14
2.36737e-14
3.31433e-14
4.26124e-14
5.20825e-14
6.15514e-14
7.10217e-14
8.04912e-14
8.99599e-14
9.94305e-14
1.089e-13
1.18368e-13
1.27839e-13
1.37307e-13
1.4677e-13
4.73482e-15
1.42032e-14
2.36721e-14
3.31411e-14
4.26094e-14
5.20789e-14
6.15472e-14
7.10168e-14
8.04856e-14
8.99537e-14
9.94237e-14
1.08893e-13
1.1836e-13
1.2783e-13
1.37298e-13
1.4676e-13
4.7345e-15
1.42022e-14
2.36703e-14
3.31385e-14
4.26062e-14
5.20749e-14
6.15425e-14
7.10114e-14
8.04795e-14
8.99469e-14
9.94161e-14
1.08884e-13
1.18351e-13
1.27821e-13
1.37287e-13
1.46749e-13
4.73414e-15
1.42011e-14
2.36685e-14
3.3136e-14
4.2603e-14
5.2071e-14
6.15379e-14
7.1006e-14
8.04734e-14
8.99401e-14
9.94086e-14
1.08876e-13
1.18342e-13
1.27811e-13
1.37277e-13
1.46738e-13
4.73378e-15
1.41999e-14
2.36665e-14
3.31332e-14
4.25993e-14
5.20665e-14
6.15326e-14
7.09999e-14
8.04665e-14
8.99324e-14
9.94001e-14
1.08867e-13
1.18332e-13
1.278e-13
1.37266e-13
1.46726e-13
4.73337e-15
1.4199e-14
2.36651e-14
3.31312e-14
4.25968e-14
5.20634e-14
6.15289e-14
7.09956e-14
8.04617e-14
8.9927e-14
9.93941e-14
1.0886e-13
1.18325e-13
1.27793e-13
1.37257e-13
1.46717e-13
4.73309e-15
1.41978e-14
2.3663e-14
3.31282e-14
4.2593e-14
5.20588e-14
6.15235e-14
7.09894e-14
8.04546e-14
8.99191e-14
9.93854e-14
1.08851e-13
1.18315e-13
1.27782e-13
1.37246e-13
1.46704e-13
4.73267e-15
1.41964e-14
2.36606e-14
3.3125e-14
4.25888e-14
5.20536e-14
6.15174e-14
7.09824e-14
8.04467e-14
8.99103e-14
9.93757e-14
1.0884e-13
1.18303e-13
1.27769e-13
1.37232e-13
1.46691e-13
4.7322e-15
1.41951e-14
2.36585e-14
3.3122e-14
4.25849e-14
5.20489e-14
6.15118e-14
7.0976e-14
8.04394e-14
8.99021e-14
9.93668e-14
1.0883e-13
1.18293e-13
1.27758e-13
1.3722e-13
1.46678e-13
4.73177e-15
1.41938e-14
2.36564e-14
3.3119e-14
4.25811e-14
5.20443e-14
6.15064e-14
7.09697e-14
8.04323e-14
8.98942e-14
9.9358e-14
1.08821e-13
1.18282e-13
1.27747e-13
1.37209e-13
1.46665e-13
4.73135e-15
1.41927e-14
2.36546e-14
3.31166e-14
4.2578e-14
5.20404e-14
6.15018e-14
7.09644e-14
8.04263e-14
8.98875e-14
9.93507e-14
1.08813e-13
1.18274e-13
1.27738e-13
1.37199e-13
1.46655e-13
4.731e-15
1.41914e-14
2.36524e-14
3.31135e-14
4.25741e-14
5.20356e-14
6.14961e-14
7.09578e-14
8.04189e-14
8.98792e-14
9.93415e-14
1.08803e-13
1.18263e-13
1.27726e-13
1.37187e-13
1.46643e-13
4.73057e-15
1.41898e-14
2.36496e-14
3.31096e-14
4.2569e-14
5.20294e-14
6.14888e-14
7.09493e-14
8.04092e-14
8.98684e-14
9.93296e-14
1.0879e-13
1.18249e-13
1.27711e-13
1.37171e-13
1.46626e-13
4.73e-15
1.41885e-14
2.36476e-14
3.31067e-14
4.25653e-14
5.20249e-14
6.14834e-14
7.09432e-14
8.04022e-14
8.98605e-14
9.93208e-14
1.0878e-13
1.18238e-13
1.27699e-13
1.37158e-13
1.46614e-13
4.72959e-15
1.41872e-14
2.36453e-14
3.31035e-14
4.25612e-14
5.20199e-14
6.14775e-14
7.09363e-14
8.03944e-14
8.98517e-14
9.9311e-14
1.08769e-13
1.18226e-13
1.27686e-13
1.37144e-13
1.46597e-13
4.72914e-15
1.41858e-14
2.3643e-14
3.31003e-14
4.2557e-14
5.20148e-14
6.14714e-14
7.09293e-14
8.03864e-14
8.98428e-14
9.93011e-14
1.08758e-13
1.18214e-13
1.27673e-13
1.37129e-13
1.4658e-13
4.72868e-15
1.41846e-14
2.3641e-14
3.30975e-14
4.25534e-14
5.20104e-14
6.14662e-14
7.09233e-14
8.03796e-14
8.98352e-14
9.92927e-14
1.08749e-13
1.18204e-13
1.27662e-13
1.37117e-13
1.46567e-13
4.72828e-15
-3.15544e-29
6.31089e-29
0
0
2.52435e-29
1.26218e-28
0
0
5.04871e-29
0
-5.04871e-29
-2.01948e-28
5.04871e-29
-2.01948e-28
0
0
)
;


// ************************************************************************* //
