/*--------------------------------*- C++ -*----------------------------------*\
| =========                 |                                                 |
| \\      /  F ield         | foam-extend: Open Source CFD                    |
|  \\    /   O peration     | Version:     4.1-20200408                       |
|   \\  /    A nd           | Web:         http://www.foam-extend.org         |
|    \\/     M anipulation  |                                                 |
\*---------------------------------------------------------------------------*/
FoamFile
{
    version     2.0;
    format      ascii;
    class       volVectorField;
    location    "0.0295000";
    object      U_0_0;
}
// * * * * * * * * * * * * * * * * * * * * * * * * * * * * * * * * * * * * * //

dimensions      [0 1 0 0 0 0 0];

internalField   nonuniform List<vector> 
1952
(
(0.029186 -9.97642e-07 0)
(0.0291859 -1.62366e-06 0)
(0.0291857 -2.25813e-06 0)
(0.0291855 -2.89313e-06 0)
(0.0291852 -3.52944e-06 0)
(0.0291848 -4.16248e-06 0)
(0.0291845 -4.79542e-06 0)
(0.0291841 -5.42224e-06 0)
(0.0291836 -6.04684e-06 0)
(0.0291832 -6.66175e-06 0)
(0.0291828 -7.26931e-06 0)
(0.0291825 -7.86238e-06 0)
(0.0291822 -8.43549e-06 0)
(0.029182 -8.98793e-06 0)
(0.029182 -9.49937e-06 0)
(0.029186 -4.27372e-07 0)
(0.0291847 -1.00221e-06 0)
(0.0291846 -1.6311e-06 0)
(0.0291844 -2.26841e-06 0)
(0.0291842 -2.90626e-06 0)
(0.0291839 -3.54535e-06 0)
(0.0291835 -4.1811e-06 0)
(0.0291832 -4.81679e-06 0)
(0.0291828 -5.44616e-06 0)
(0.0291823 -6.07334e-06 0)
(0.0291819 -6.69063e-06 0)
(0.0291815 -7.30057e-06 0)
(0.0291812 -7.8958e-06 0)
(0.0291809 -8.47103e-06 0)
(0.0291807 -9.02536e-06 0)
(0.0291807 -9.53874e-06 0)
(0.0291847 -4.29333e-07 0)
(0.0291834 -1.00657e-06 0)
(0.0291833 -1.63819e-06 0)
(0.0291831 -2.27822e-06 0)
(0.0291829 -2.9188e-06 0)
(0.0291826 -3.56056e-06 0)
(0.0291822 -4.19889e-06 0)
(0.0291819 -4.83721e-06 0)
(0.0291814 -5.46905e-06 0)
(0.029181 -6.09873e-06 0)
(0.0291806 -6.71834e-06 0)
(0.0291802 -7.33057e-06 0)
(0.0291798 -7.92795e-06 0)
(0.0291796 -8.50527e-06 0)
(0.0291794 -9.06152e-06 0)
(0.0291794 -9.57689e-06 0)
(0.0291834 -4.31203e-07 0)
(0.0291821 -1.01076e-06 0)
(0.029182 -1.645e-06 0)
(0.0291818 -2.28765e-06 0)
(0.0291815 -2.93086e-06 0)
(0.0291813 -3.57516e-06 0)
(0.0291809 -4.216e-06 0)
(0.0291805 -4.85686e-06 0)
(0.0291801 -5.49111e-06 0)
(0.0291797 -6.12319e-06 0)
(0.0291793 -6.74508e-06 0)
(0.0291789 -7.35957e-06 0)
(0.0291785 -7.95907e-06 0)
(0.0291783 -8.53846e-06 0)
(0.0291781 -9.09667e-06 0)
(0.0291781 -9.61408e-06 0)
(0.0291821 -4.32999e-07 0)
(0.0291808 -1.01479e-06 0)
(0.0291806 -1.65155e-06 0)
(0.0291805 -2.29674e-06 0)
(0.0291802 -2.94244e-06 0)
(0.0291799 -3.58926e-06 0)
(0.0291796 -4.23258e-06 0)
(0.0291792 -4.87586e-06 0)
(0.0291788 -5.51248e-06 0)
(0.0291784 -6.14689e-06 0)
(0.0291779 -6.77103e-06 0)
(0.0291776 -7.38773e-06 0)
(0.0291772 -7.98936e-06 0)
(0.0291769 -8.57085e-06 0)
(0.0291768 -9.13105e-06 0)
(0.0291768 -9.65051e-06 0)
(0.0291808 -4.34727e-07 0)
(0.0291795 -1.0187e-06 0)
(0.0291793 -1.65789e-06 0)
(0.0291792 -2.30557e-06 0)
(0.0291789 -2.95368e-06 0)
(0.0291786 -3.60299e-06 0)
(0.0291783 -4.24873e-06 0)
(0.0291779 -4.89438e-06 0)
(0.0291775 -5.53333e-06 0)
(0.0291771 -6.17003e-06 0)
(0.0291766 -6.79639e-06 0)
(0.0291762 -7.4153e-06 0)
(0.0291759 -8.01906e-06 0)
(0.0291756 -8.60265e-06 0)
(0.0291754 -9.16485e-06 0)
(0.0291754 -9.68635e-06 0)
(0.0291795 -4.36401e-07 0)
(0.0291781 -1.02252e-06 0)
(0.029178 -1.66409e-06 0)
(0.0291778 -2.3142e-06 0)
(0.0291776 -2.96469e-06 0)
(0.0291773 -3.61643e-06 0)
(0.0291769 -4.26452e-06 0)
(0.0291766 -4.91249e-06 0)
(0.0291762 -5.55371e-06 0)
(0.0291757 -6.19266e-06 0)
(0.0291753 -6.82124e-06 0)
(0.0291749 -7.44232e-06 0)
(0.0291745 -8.0482e-06 0)
(0.0291743 -8.63387e-06 0)
(0.0291741 -9.19808e-06 0)
(0.0291741 -9.72166e-06 0)
(0.0291782 -4.38039e-07 0)
(0.0291768 -1.02625e-06 0)
(0.0291767 -1.67014e-06 0)
(0.0291765 -2.32263e-06 0)
(0.0291763 -2.97541e-06 0)
(0.029176 -3.62951e-06 0)
(0.0291756 -4.27994e-06 0)
(0.0291752 -4.93021e-06 0)
(0.0291748 -5.57371e-06 0)
(0.0291744 -6.21489e-06 0)
(0.029174 -6.84567e-06 0)
(0.0291736 -7.46893e-06 0)
(0.0291732 -8.07695e-06 0)
(0.0291729 -8.66471e-06 0)
(0.0291728 -9.23098e-06 0)
(0.0291728 -9.75664e-06 0)
(0.0291769 -4.39637e-07 0)
(0.0291755 -1.02992e-06 0)
(0.0291753 -1.67611e-06 0)
(0.0291752 -2.33093e-06 0)
(0.0291749 -2.98599e-06 0)
(0.0291746 -3.64242e-06 0)
(0.0291743 -4.29515e-06 0)
(0.0291739 -4.94771e-06 0)
(0.0291735 -5.59345e-06 0)
(0.0291731 -6.23687e-06 0)
(0.0291726 -6.86984e-06 0)
(0.0291722 -7.49528e-06 0)
(0.0291718 -8.10544e-06 0)
(0.0291716 -8.69533e-06 0)
(0.0291714 -9.26365e-06 0)
(0.0291714 -9.79135e-06 0)
(0.0291755 -4.41211e-07 0)
(0.0291741 -1.03355e-06 0)
(0.029174 -1.682e-06 0)
(0.0291738 -2.33914e-06 0)
(0.0291736 -2.99647e-06 0)
(0.0291733 -3.65519e-06 0)
(0.0291729 -4.31017e-06 0)
(0.0291726 -4.965e-06 0)
(0.0291721 -5.61297e-06 0)
(0.0291717 -6.25861e-06 0)
(0.0291713 -6.89377e-06 0)
(0.0291709 -7.52138e-06 0)
(0.0291705 -8.13368e-06 0)
(0.0291702 -8.72568e-06 0)
(0.0291701 -9.29602e-06 0)
(0.0291701 -9.82576e-06 0)
(0.0291742 -4.42766e-07 0)
(0.0291728 -1.03714e-06 0)
(0.0291727 -1.68783e-06 0)
(0.0291725 -2.34725e-06 0)
(0.0291722 -3.00682e-06 0)
(0.029172 -3.6678e-06 0)
(0.0291716 -4.32503e-06 0)
(0.0291712 -4.98211e-06 0)
(0.0291708 -5.63229e-06 0)
(0.0291704 -6.28016e-06 0)
(0.0291699 -6.91749e-06 0)
(0.0291695 -7.54729e-06 0)
(0.0291691 -8.1617e-06 0)
(0.0291689 -8.7558e-06 0)
(0.0291687 -9.32816e-06 0)
(0.0291687 -9.85995e-06 0)
(0.0291728 -4.44304e-07 0)
(0.0291715 -1.04069e-06 0)
(0.0291713 -1.69359e-06 0)
(0.0291711 -2.35527e-06 0)
(0.0291709 -3.01705e-06 0)
(0.0291706 -3.68026e-06 0)
(0.0291702 -4.33974e-06 0)
(0.0291699 -4.99906e-06 0)
(0.0291694 -5.65144e-06 0)
(0.029169 -6.30151e-06 0)
(0.0291686 -6.94101e-06 0)
(0.0291682 -7.57297e-06 0)
(0.0291678 -8.18951e-06 0)
(0.0291675 -8.78569e-06 0)
(0.0291674 -9.36008e-06 0)
(0.0291674 -9.8939e-06 0)
(0.0291715 -4.45825e-07 0)
(0.0291701 -1.0442e-06 0)
(0.02917 -1.69929e-06 0)
(0.0291698 -2.36321e-06 0)
(0.0291695 -3.02718e-06 0)
(0.0291693 -3.69264e-06 0)
(0.0291689 -4.35434e-06 0)
(0.0291685 -5.0159e-06 0)
(0.0291681 -5.67047e-06 0)
(0.0291677 -6.32276e-06 0)
(0.0291672 -6.96442e-06 0)
(0.0291668 -7.59856e-06 0)
(0.0291664 -8.21719e-06 0)
(0.0291662 -8.81549e-06 0)
(0.029166 -9.39186e-06 0)
(0.029166 -9.92769e-06 0)
(0.0291702 -4.47328e-07 0)
(0.0291688 -1.04769e-06 0)
(0.0291686 -1.70496e-06 0)
(0.0291684 -2.3711e-06 0)
(0.0291682 -3.03728e-06 0)
(0.0291679 -3.70496e-06 0)
(0.0291675 -4.36884e-06 0)
(0.0291672 -5.03263e-06 0)
(0.0291667 -5.68936e-06 0)
(0.0291663 -6.34385e-06 0)
(0.0291658 -6.98764e-06 0)
(0.0291654 -7.62393e-06 0)
(0.0291651 -8.24465e-06 0)
(0.0291648 -8.84501e-06 0)
(0.0291646 -9.42337e-06 0)
(0.0291646 -9.96124e-06 0)
(0.0291688 -4.48822e-07 0)
(0.0291674 -1.05111e-06 0)
(0.0291673 -1.71054e-06 0)
(0.0291671 -2.37883e-06 0)
(0.0291668 -3.04723e-06 0)
(0.0291665 -3.71717e-06 0)
(0.0291662 -4.3832e-06 0)
(0.0291658 -5.04921e-06 0)
(0.0291654 -5.70809e-06 0)
(0.0291649 -6.36478e-06 0)
(0.0291645 -7.0107e-06 0)
(0.0291641 -7.64916e-06 0)
(0.0291637 -8.27198e-06 0)
(0.0291634 -8.87442e-06 0)
(0.0291633 -9.45479e-06 0)
(0.0291633 -9.9947e-06 0)
(0.0291674 -4.50289e-07 0)
(0.029166 -1.05451e-06 0)
(0.0291659 -1.71611e-06 0)
(0.0291657 -2.38654e-06 0)
(0.0291655 -3.05716e-06 0)
(0.0291652 -3.72932e-06 0)
(0.0291648 -4.39751e-06 0)
(0.0291644 -5.06573e-06 0)
(0.029164 -5.72675e-06 0)
(0.0291636 -6.38564e-06 0)
(0.0291631 -7.03369e-06 0)
(0.0291627 -7.67433e-06 0)
(0.0291623 -8.29924e-06 0)
(0.029162 -8.9038e-06 0)
(0.0291619 -9.48616e-06 0)
(0.0291619 -1.00281e-05 0)
(0.0291661 -4.51751e-07 0)
(0.0291647 -1.05792e-06 0)
(0.0291645 -1.72166e-06 0)
(0.0291644 -2.39425e-06 0)
(0.0291641 -3.06705e-06 0)
(0.0291638 -3.74137e-06 0)
(0.0291634 -4.41172e-06 0)
(0.0291631 -5.08213e-06 0)
(0.0291626 -5.74528e-06 0)
(0.0291622 -6.40637e-06 0)
(0.0291617 -7.05654e-06 0)
(0.0291613 -7.69933e-06 0)
(0.0291609 -8.32633e-06 0)
(0.0291607 -8.93296e-06 0)
(0.0291605 -9.5173e-06 0)
(0.0291605 -1.00612e-05 0)
(0.0291647 -4.53211e-07 0)
(0.0291633 -1.06128e-06 0)
(0.0291632 -1.72715e-06 0)
(0.029163 -2.40183e-06 0)
(0.0291627 -3.07679e-06 0)
(0.0291624 -3.75329e-06 0)
(0.0291621 -4.42579e-06 0)
(0.0291617 -5.0984e-06 0)
(0.0291612 -5.76368e-06 0)
(0.0291608 -6.42696e-06 0)
(0.0291603 -7.07926e-06 0)
(0.0291599 -7.72422e-06 0)
(0.0291595 -8.35333e-06 0)
(0.0291593 -8.96204e-06 0)
(0.0291591 -9.54842e-06 0)
(0.0291591 -1.00944e-05 0)
(0.0291633 -4.54653e-07 0)
(0.0291619 -1.06463e-06 0)
(0.0291618 -1.73261e-06 0)
(0.0291616 -2.40939e-06 0)
(0.0291613 -3.0865e-06 0)
(0.029161 -3.76514e-06 0)
(0.0291607 -4.43978e-06 0)
(0.0291603 -5.11458e-06 0)
(0.0291599 -5.782e-06 0)
(0.0291594 -6.44746e-06 0)
(0.029159 -7.10189e-06 0)
(0.0291585 -7.74901e-06 0)
(0.0291582 -8.38024e-06 0)
(0.0291579 -8.99106e-06 0)
(0.0291577 -9.57949e-06 0)
(0.0291577 -1.01275e-05 0)
(0.029162 -4.5609e-07 0)
(0.0291606 -1.06797e-06 0)
(0.0291604 -1.73805e-06 0)
(0.0291602 -2.41693e-06 0)
(0.02916 -3.09619e-06 0)
(0.0291597 -3.77691e-06 0)
(0.0291593 -4.45368e-06 0)
(0.0291589 -5.13067e-06 0)
(0.0291585 -5.80021e-06 0)
(0.029158 -6.46786e-06 0)
(0.0291576 -7.12442e-06 0)
(0.0291571 -7.77371e-06 0)
(0.0291568 -8.40704e-06 0)
(0.0291565 -9.01998e-06 0)
(0.0291563 -9.61041e-06 0)
(0.0291563 -1.01604e-05 0)
(0.0291606 -4.5752e-07 0)
(0.0291592 -1.07127e-06 0)
(0.029159 -1.74342e-06 0)
(0.0291588 -2.42441e-06 0)
(0.0291586 -3.10576e-06 0)
(0.0291583 -3.7886e-06 0)
(0.0291579 -4.46748e-06 0)
(0.0291575 -5.14663e-06 0)
(0.0291571 -5.81829e-06 0)
(0.0291566 -6.48811e-06 0)
(0.0291562 -7.14679e-06 0)
(0.0291557 -7.79823e-06 0)
(0.0291554 -8.43365e-06 0)
(0.0291551 -9.04867e-06 0)
(0.0291549 -9.64109e-06 0)
(0.0291549 -1.01931e-05 0)
(0.0291592 -4.58934e-07 0)
(0.0291578 -1.07452e-06 0)
(0.0291576 -1.7487e-06 0)
(0.0291575 -2.43181e-06 0)
(0.0291572 -3.11525e-06 0)
(0.0291569 -3.8002e-06 0)
(0.0291565 -4.48119e-06 0)
(0.0291561 -5.16245e-06 0)
(0.0291557 -5.83624e-06 0)
(0.0291552 -6.50819e-06 0)
(0.0291548 -7.16899e-06 0)
(0.0291543 -7.82256e-06 0)
(0.029154 -8.46007e-06 0)
(0.0291537 -9.07717e-06 0)
(0.0291535 -9.67157e-06 0)
(0.0291535 -1.02256e-05 0)
(0.0291578 -4.60327e-07 0)
(0.0291564 -1.07774e-06 0)
(0.0291562 -1.75392e-06 0)
(0.0291561 -2.43912e-06 0)
(0.0291558 -3.12464e-06 0)
(0.0291555 -3.81167e-06 0)
(0.0291551 -4.49476e-06 0)
(0.0291547 -5.1781e-06 0)
(0.0291543 -5.85401e-06 0)
(0.0291538 -6.52806e-06 0)
(0.0291534 -7.19097e-06 0)
(0.0291529 -7.84666e-06 0)
(0.0291526 -8.48625e-06 0)
(0.0291523 -9.10542e-06 0)
(0.0291521 -9.70181e-06 0)
(0.0291521 -1.02579e-05 0)
(0.0291564 -4.61704e-07 0)
(0.029155 -1.08092e-06 0)
(0.0291549 -1.75906e-06 0)
(0.0291547 -2.44633e-06 0)
(0.0291544 -3.1339e-06 0)
(0.0291541 -3.823e-06 0)
(0.0291537 -4.50818e-06 0)
(0.0291533 -5.19359e-06 0)
(0.0291529 -5.8716e-06 0)
(0.0291524 -6.54774e-06 0)
(0.029152 -7.21277e-06 0)
(0.0291515 -7.87056e-06 0)
(0.0291511 -8.51225e-06 0)
(0.0291509 -9.13351e-06 0)
(0.0291507 -9.73194e-06 0)
(0.0291507 -1.02901e-05 0)
(0.029155 -4.63062e-07 0)
(0.0291536 -1.08407e-06 0)
(0.0291535 -1.76417e-06 0)
(0.0291533 -2.45348e-06 0)
(0.029153 -3.14308e-06 0)
(0.0291527 -3.83423e-06 0)
(0.0291523 -4.52147e-06 0)
(0.0291519 -5.20893e-06 0)
(0.0291515 -5.88904e-06 0)
(0.029151 -6.56726e-06 0)
(0.0291505 -7.23441e-06 0)
(0.0291501 -7.89431e-06 0)
(0.0291497 -8.53812e-06 0)
(0.0291494 -9.16149e-06 0)
(0.0291493 -9.76198e-06 0)
(0.0291493 -1.03222e-05 0)
(0.0291536 -4.64409e-07 0)
(0.0291522 -1.08721e-06 0)
(0.0291521 -1.76925e-06 0)
(0.0291519 -2.46056e-06 0)
(0.0291516 -3.15218e-06 0)
(0.0291513 -3.84536e-06 0)
(0.0291509 -4.53465e-06 0)
(0.0291505 -5.22416e-06 0)
(0.0291501 -5.90636e-06 0)
(0.0291496 -6.58665e-06 0)
(0.0291491 -7.25592e-06 0)
(0.0291487 -7.91794e-06 0)
(0.0291483 -8.56389e-06 0)
(0.029148 -9.18939e-06 0)
(0.0291479 -9.79197e-06 0)
(0.0291478 -1.03543e-05 0)
(0.0291522 -4.65747e-07 0)
(0.0291508 -1.09033e-06 0)
(0.0291506 -1.77431e-06 0)
(0.0291505 -2.46762e-06 0)
(0.0291502 -3.16125e-06 0)
(0.0291499 -3.85645e-06 0)
(0.0291495 -4.54778e-06 0)
(0.0291491 -5.23933e-06 0)
(0.0291486 -5.92361e-06 0)
(0.0291482 -6.60598e-06 0)
(0.0291477 -7.27737e-06 0)
(0.0291473 -7.94152e-06 0)
(0.0291469 -8.58962e-06 0)
(0.0291466 -9.21727e-06 0)
(0.0291464 -9.82197e-06 0)
(0.0291464 -1.03865e-05 0)
(0.0291508 -4.67083e-07 0)
(0.0291494 -1.09347e-06 0)
(0.0291492 -1.7794e-06 0)
(0.029149 -2.47471e-06 0)
(0.0291488 -3.17035e-06 0)
(0.0291485 -3.86756e-06 0)
(0.0291481 -4.56093e-06 0)
(0.0291477 -5.2545e-06 0)
(0.0291472 -5.94086e-06 0)
(0.0291468 -6.6253e-06 0)
(0.0291463 -7.2988e-06 0)
(0.0291458 -7.96508e-06 0)
(0.0291455 -8.61531e-06 0)
(0.0291452 -9.24515e-06 0)
(0.029145 -9.85194e-06 0)
(0.029145 -1.04186e-05 0)
(0.0291494 -4.68427e-07 0)
(0.029148 -1.09665e-06 0)
(0.0291478 -1.78454e-06 0)
(0.0291476 -2.48187e-06 0)
(0.0291474 -3.17953e-06 0)
(0.029147 -3.87875e-06 0)
(0.0291467 -4.57417e-06 0)
(0.0291462 -5.26977e-06 0)
(0.0291458 -5.95819e-06 0)
(0.0291453 -6.64471e-06 0)
(0.0291448 -7.3203e-06 0)
(0.0291444 -7.98869e-06 0)
(0.029144 -8.64106e-06 0)
(0.0291437 -9.27307e-06 0)
(0.0291436 -9.88194e-06 0)
(0.0291435 -1.04508e-05 0)
(0.029148 -4.69784e-07 0)
(0.0291466 -1.09986e-06 0)
(0.0291464 -1.78979e-06 0)
(0.0291462 -2.48917e-06 0)
(0.0291459 -3.18886e-06 0)
(0.0291456 -3.89012e-06 0)
(0.0291452 -4.58759e-06 0)
(0.0291448 -5.28521e-06 0)
(0.0291444 -5.97569e-06 0)
(0.0291439 -6.66427e-06 0)
(0.0291434 -7.34192e-06 0)
(0.029143 -8.01239e-06 0)
(0.0291426 -8.66689e-06 0)
(0.0291423 -9.30103e-06 0)
(0.0291421 -9.91199e-06 0)
(0.0291421 -1.04831e-05 0)
(0.0291466 -4.71163e-07 0)
(0.0291451 -1.10316e-06 0)
(0.029145 -1.79517e-06 0)
(0.0291448 -2.49667e-06 0)
(0.0291445 -3.19843e-06 0)
(0.0291442 -3.90176e-06 0)
(0.0291438 -4.6013e-06 0)
(0.0291434 -5.30095e-06 0)
(0.0291429 -5.99349e-06 0)
(0.0291425 -6.68412e-06 0)
(0.029142 -7.36382e-06 0)
(0.0291415 -8.03633e-06 0)
(0.0291411 -8.69299e-06 0)
(0.0291408 -9.32924e-06 0)
(0.0291407 -9.94232e-06 0)
(0.0291407 -1.05157e-05 0)
(0.0291452 -4.72577e-07 0)
(0.0291437 -1.10661e-06 0)
(0.0291436 -1.80079e-06 0)
(0.0291434 -2.50447e-06 0)
(0.0291431 -3.2084e-06 0)
(0.0291428 -3.91383e-06 0)
(0.0291424 -4.6155e-06 0)
(0.029142 -5.31718e-06 0)
(0.0291415 -6.01182e-06 0)
(0.029141 -6.70446e-06 0)
(0.0291405 -7.38623e-06 0)
(0.0291401 -8.06078e-06 0)
(0.0291397 -8.7196e-06 0)
(0.0291394 -9.35799e-06 0)
(0.0291392 -9.97318e-06 0)
(0.0291392 -1.05489e-05 0)
(0.0291438 -4.74056e-07 0)
(0.0291423 -1.1103e-06 0)
(0.0291421 -1.80677e-06 0)
(0.0291419 -2.51275e-06 0)
(0.0291417 -3.21896e-06 0)
(0.0291413 -3.92656e-06 0)
(0.0291409 -4.63045e-06 0)
(0.0291405 -5.33416e-06 0)
(0.0291401 -6.03096e-06 0)
(0.0291396 -6.72558e-06 0)
(0.0291391 -7.40947e-06 0)
(0.0291386 -8.08607e-06 0)
(0.0291382 -8.74699e-06 0)
(0.0291379 -9.38758e-06 0)
(0.0291377 -1.00049e-05 0)
(0.0291377 -1.05829e-05 0)
(0.0291423 -4.75639e-07 0)
(0.0291409 -1.11432e-06 0)
(0.0291407 -1.81327e-06 0)
(0.0291405 -2.5217e-06 0)
(0.0291402 -3.23035e-06 0)
(0.0291399 -3.94024e-06 0)
(0.0291395 -4.64645e-06 0)
(0.0291391 -5.35227e-06 0)
(0.0291386 -6.05127e-06 0)
(0.0291381 -6.74789e-06 0)
(0.0291376 -7.43387e-06 0)
(0.0291372 -8.11252e-06 0)
(0.0291368 -8.77549e-06 0)
(0.0291365 -9.41826e-06 0)
(0.0291363 -1.00376e-05 0)
(0.0291363 -1.06181e-05 0)
(0.0291409 -4.77361e-07 0)
(0.0291394 -1.11875e-06 0)
(0.0291393 -1.82045e-06 0)
(0.0291391 -2.53155e-06 0)
(0.0291388 -3.24287e-06 0)
(0.0291385 -3.95519e-06 0)
(0.0291381 -4.66389e-06 0)
(0.0291376 -5.37189e-06 0)
(0.0291372 -6.07316e-06 0)
(0.0291367 -6.77179e-06 0)
(0.0291362 -7.45988e-06 0)
(0.0291357 -8.14052e-06 0)
(0.0291353 -8.80553e-06 0)
(0.029135 -9.45044e-06 0)
(0.0291348 -1.00719e-05 0)
(0.0291348 -1.06548e-05 0)
(0.0291395 -4.79256e-07 0)
(0.029138 -1.12374e-06 0)
(0.0291378 -1.82854e-06 0)
(0.0291376 -2.54262e-06 0)
(0.0291373 -3.2569e-06 0)
(0.029137 -3.9719e-06 0)
(0.0291366 -4.68328e-06 0)
(0.0291362 -5.39361e-06 0)
(0.0291357 -6.09725e-06 0)
(0.0291352 -6.79794e-06 0)
(0.0291347 -7.48812e-06 0)
(0.0291343 -8.17074e-06 0)
(0.0291338 -8.83775e-06 0)
(0.0291335 -9.48479e-06 0)
(0.0291333 -1.01083e-05 0)
(0.0291333 -1.06936e-05 0)
(0.029138 -4.8139e-07 0)
(0.0291365 -1.12948e-06 0)
(0.0291364 -1.8378e-06 0)
(0.0291362 -2.55528e-06 0)
(0.0291359 -3.2729e-06 0)
(0.0291356 -3.99089e-06 0)
(0.0291352 -4.70524e-06 0)
(0.0291347 -5.41809e-06 0)
(0.0291343 -6.12425e-06 0)
(0.0291338 -6.82703e-06 0)
(0.0291333 -7.51935e-06 0)
(0.0291328 -8.20388e-06 0)
(0.0291324 -8.87282e-06 0)
(0.0291321 -9.52188e-06 0)
(0.0291319 -1.01473e-05 0)
(0.0291318 -1.07351e-05 0)
(0.0291366 -4.83847e-07 0)
(0.0291351 -1.13615e-06 0)
(0.0291349 -1.84855e-06 0)
(0.0291347 -2.56997e-06 0)
(0.0291344 -3.29142e-06 0)
(0.0291341 -4.01284e-06 0)
(0.0291337 -4.73051e-06 0)
(0.0291333 -5.44615e-06 0)
(0.0291328 -6.15502e-06 0)
(0.0291323 -6.86001e-06 0)
(0.0291318 -7.55446e-06 0)
(0.0291313 -8.24087e-06 0)
(0.0291309 -8.91158e-06 0)
(0.0291306 -9.56263e-06 0)
(0.0291304 -1.019e-05 0)
(0.0291303 -1.07802e-05 0)
(0.0291351 -4.86708e-07 0)
(0.0291336 -1.14398e-06 0)
(0.0291335 -1.86116e-06 0)
(0.0291333 -2.58719e-06 0)
(0.029133 -3.3131e-06 0)
(0.0291326 -4.03848e-06 0)
(0.0291322 -4.75996e-06 0)
(0.0291318 -5.47875e-06 0)
(0.0291313 -6.19061e-06 0)
(0.0291308 -6.89796e-06 0)
(0.0291303 -7.59459e-06 0)
(0.0291298 -8.28288e-06 0)
(0.0291294 -8.9552e-06 0)
(0.0291291 -9.60817e-06 0)
(0.0291289 -1.02373e-05 0)
(0.0291288 -1.08299e-05 0)
(0.0291337 -4.90066e-07 0)
(0.0291322 -1.15322e-06 0)
(0.029132 -1.87605e-06 0)
(0.0291318 -2.60752e-06 0)
(0.0291315 -3.33867e-06 0)
(0.0291312 -4.06874e-06 0)
(0.0291308 -4.79465e-06 0)
(0.0291303 -5.51709e-06 0)
(0.0291299 -6.23236e-06 0)
(0.0291294 -6.9423e-06 0)
(0.0291288 -7.64128e-06 0)
(0.0291284 -8.33139e-06 0)
(0.0291279 -9.00528e-06 0)
(0.0291276 -9.65992e-06 0)
(0.0291274 -1.02906e-05 0)
(0.0291273 -1.08854e-05 0)
(0.0291322 -4.94029e-07 0)
(0.0291307 -1.16415e-06 0)
(0.0291305 -1.89368e-06 0)
(0.0291303 -2.63161e-06 0)
(0.02913 -3.36898e-06 0)
(0.0291297 -4.10461e-06 0)
(0.0291293 -4.83577e-06 0)
(0.0291289 -5.56253e-06 0)
(0.0291284 -6.28176e-06 0)
(0.0291279 -6.99464e-06 0)
(0.0291274 -7.69621e-06 0)
(0.0291269 -8.3881e-06 0)
(0.0291264 -9.06344e-06 0)
(0.0291261 -9.7194e-06 0)
(0.0291259 -1.03512e-05 0)
(0.0291258 -1.0948e-05 0)
(0.0291307 -4.98717e-07 0)
(0.0291292 -1.17705e-06 0)
(0.0291291 -1.9145e-06 0)
(0.0291288 -2.66009e-06 0)
(0.0291286 -3.40485e-06 0)
(0.0291282 -4.14714e-06 0)
(0.0291278 -4.88456e-06 0)
(0.0291274 -5.61651e-06 0)
(0.0291269 -6.34046e-06 0)
(0.0291264 -7.05679e-06 0)
(0.0291259 -7.76131e-06 0)
(0.0291254 -8.45504e-06 0)
(0.029125 -9.13174e-06 0)
(0.0291246 -9.78869e-06 0)
(0.0291244 -1.04214e-05 0)
(0.0291243 -1.10199e-05 0)
(0.0291293 -5.04251e-07 0)
(0.0291277 -1.19221e-06 0)
(0.0291276 -1.93898e-06 0)
(0.0291273 -2.69363e-06 0)
(0.0291271 -3.44716e-06 0)
(0.0291267 -4.19744e-06 0)
(0.0291263 -4.94238e-06 0)
(0.0291259 -5.68064e-06 0)
(0.0291254 -6.41034e-06 0)
(0.0291249 -7.13088e-06 0)
(0.0291244 -7.83903e-06 0)
(0.0291239 -8.53482e-06 0)
(0.0291235 -9.21304e-06 0)
(0.0291231 -9.87062e-06 0)
(0.0291229 -1.05037e-05 0)
(0.0291228 -1.11034e-05 0)
(0.0291278 -5.1075e-07 0)
(0.0291262 -1.20985e-06 0)
(0.029126 -1.96753e-06 0)
(0.0291258 -2.73282e-06 0)
(0.0291256 -3.49669e-06 0)
(0.0291252 -4.25652e-06 0)
(0.0291248 -5.01051e-06 0)
(0.0291244 -5.75653e-06 0)
(0.0291239 -6.49335e-06 0)
(0.0291234 -7.21922e-06 0)
(0.0291229 -7.93198e-06 0)
(0.0291224 -8.63032e-06 0)
(0.029122 -9.31038e-06 0)
(0.0291216 -9.96826e-06 0)
(0.0291213 -1.06012e-05 0)
(0.0291213 -1.12014e-05 0)
(0.0291262 -5.18318e-07 0)
(0.0291246 -1.23012e-06 0)
(0.0291245 -2.00037e-06 0)
(0.0291243 -2.77801e-06 0)
(0.029124 -3.55397e-06 0)
(0.0291237 -4.32513e-06 0)
(0.0291233 -5.08996e-06 0)
(0.0291229 -5.84552e-06 0)
(0.0291224 -6.59123e-06 0)
(0.0291219 -7.32401e-06 0)
(0.0291214 -8.0429e-06 0)
(0.0291209 -8.74482e-06 0)
(0.0291204 -9.42746e-06 0)
(0.0291201 -1.00855e-05 0)
(0.0291198 -1.0718e-05 0)
(0.0291197 -1.13175e-05 0)
(0.0291247 -5.27012e-07 0)
(0.0291231 -1.25305e-06 0)
(0.0291229 -2.03757e-06 0)
(0.0291227 -2.82935e-06 0)
(0.0291225 -3.61925e-06 0)
(0.0291222 -4.40371e-06 0)
(0.0291218 -5.1814e-06 0)
(0.0291213 -5.94863e-06 0)
(0.0291209 -6.70548e-06 0)
(0.0291204 -7.44738e-06 0)
(0.0291199 -8.17474e-06 0)
(0.0291194 -8.88214e-06 0)
(0.0291189 -9.5693e-06 0)
(0.0291186 -1.02284e-05 0)
(0.0291183 -1.08604e-05 0)
(0.0291182 -1.14578e-05 0)
(0.0291231 -5.36843e-07 0)
(0.0291215 -1.27847e-06 0)
(0.0291214 -2.07888e-06 0)
(0.0291212 -2.88654e-06 0)
(0.0291209 -3.69221e-06 0)
(0.0291206 -4.49199e-06 0)
(0.0291202 -5.28472e-06 0)
(0.0291198 -6.06603e-06 0)
(0.0291193 -6.83669e-06 0)
(0.0291189 -7.59057e-06 0)
(0.0291184 -8.32966e-06 0)
(0.0291179 -9.04583e-06 0)
(0.0291174 -9.74137e-06 0)
(0.0291171 -1.04048e-05 0)
(0.0291168 -1.10403e-05 0)
(0.0291166 -1.16375e-05 0)
(0.0291215 -5.47741e-07 0)
(0.0291199 -1.30597e-06 0)
(0.0291197 -2.12366e-06 0)
(0.0291195 -2.94871e-06 0)
(0.0291193 -3.77182e-06 0)
(0.029119 -4.58882e-06 0)
(0.0291186 -5.39868e-06 0)
(0.0291182 -6.19652e-06 0)
(0.0291178 -6.9838e-06 0)
(0.0291173 -7.75288e-06 0)
(0.0291168 -8.50757e-06 0)
(0.0291163 -9.23688e-06 0)
(0.0291159 -9.9464e-06 0)
(0.0291155 -1.06206e-05 0)
(0.0291153 -1.1268e-05 0)
(0.0291151 -1.18743e-05 0)
(0.0291199 -5.59529e-07 0)
(0.0291182 -1.33489e-06 0)
(0.0291181 -2.17084e-06 0)
(0.0291179 -3.01438e-06 0)
(0.0291177 -3.85621e-06 0)
(0.0291174 -4.69196e-06 0)
(0.029117 -5.52073e-06 0)
(0.0291166 -6.33729e-06 0)
(0.0291162 -7.14366e-06 0)
(0.0291157 -7.9309e-06 0)
(0.0291153 -8.70463e-06 0)
(0.0291148 -9.45094e-06 0)
(0.0291144 -1.01792e-05 0)
(0.029114 -1.0869e-05 0)
(0.0291137 -1.15348e-05 0)
(0.0291135 -1.21559e-05 0)
(0.0291183 -5.71923e-07 0)
(0.0291165 -1.3643e-06 0)
(0.0291164 -2.21887e-06 0)
(0.0291162 -3.08143e-06 0)
(0.029116 -3.94265e-06 0)
(0.0291157 -4.79808e-06 0)
(0.0291154 -5.64696e-06 0)
(0.029115 -6.4838e-06 0)
(0.0291146 -7.31105e-06 0)
(0.0291141 -8.11872e-06 0)
(0.0291137 -8.91404e-06 0)
(0.0291132 -9.67993e-06 0)
(0.0291128 -1.04298e-05 0)
(0.0291125 -1.11374e-05 0)
(0.0291122 -1.1823e-05 0)
(0.029112 -1.24585e-05 0)
(0.0291166 -5.84521e-07 0)
(0.0291148 -1.39298e-06 0)
(0.0291147 -2.2658e-06 0)
(0.0291145 -3.14712e-06 0)
(0.0291143 -4.02759e-06 0)
(0.029114 -4.90285e-06 0)
(0.0291137 -5.77213e-06 0)
(0.0291133 -6.63001e-06 0)
(0.0291129 -7.47904e-06 0)
(0.0291125 -8.30851e-06 0)
(0.029112 -9.12693e-06 0)
(0.0291116 -9.91394e-06 0)
(0.0291112 -1.06872e-05 0)
(0.0291109 -1.14131e-05 0)
(0.0291106 -1.21189e-05 0)
(0.0291105 -1.27674e-05 0)
(0.0291148 -5.96808e-07 0)
(0.029113 -1.41951e-06 0)
(0.0291129 -2.30927e-06 0)
(0.0291127 -3.20814e-06 0)
(0.0291125 -4.10675e-06 0)
(0.0291122 -5.00098e-06 0)
(0.0291119 -5.88991e-06 0)
(0.0291116 -6.76852e-06 0)
(0.0291112 -7.6391e-06 0)
(0.0291108 -8.49077e-06 0)
(0.0291104 -9.33266e-06 0)
(0.02911 -1.01416e-05 0)
(0.0291096 -1.09391e-05 0)
(0.0291093 -1.16831e-05 0)
(0.0291091 -1.24097e-05 0)
(0.0291089 -1.30695e-05 0)
(0.0291131 -6.08168e-07 0)
(0.0291112 -1.44227e-06 0)
(0.0291111 -2.34664e-06 0)
(0.0291109 -3.26077e-06 0)
(0.0291107 -4.17527e-06 0)
(0.0291105 -5.08641e-06 0)
(0.0291102 -5.993e-06 0)
(0.0291098 -6.89074e-06 0)
(0.0291095 -7.7813e-06 0)
(0.0291091 -8.65435e-06 0)
(0.0291087 -9.51876e-06 0)
(0.0291084 -1.03497e-05 0)
(0.029108 -1.11713e-05 0)
(0.0291078 -1.19332e-05 0)
(0.0291076 -1.2682e-05 0)
(0.0291074 -1.33506e-05 0)
(0.0291112 -6.17913e-07 0)
(0.0291094 -1.45952e-06 0)
(0.0291092 -2.37503e-06 0)
(0.0291091 -3.30093e-06 0)
(0.0291089 -4.22782e-06 0)
(0.0291087 -5.15245e-06 0)
(0.0291084 -6.07324e-06 0)
(0.0291081 -6.98698e-06 0)
(0.0291077 -7.89431e-06 0)
(0.0291074 -8.78634e-06 0)
(0.029107 -9.67066e-06 0)
(0.0291067 -1.05226e-05 0)
(0.0291064 -1.13671e-05 0)
(0.0291062 -1.21473e-05 0)
(0.029106 -1.29204e-05 0)
(0.0291059 -1.35951e-05 0)
(0.0291094 -6.25293e-07 0)
(0.0291075 -1.46956e-06 0)
(0.0291074 -2.39165e-06 0)
(0.0291072 -3.32469e-06 0)
(0.029107 -4.25922e-06 0)
(0.0291068 -5.19261e-06 0)
(0.0291065 -6.12273e-06 0)
(0.0291062 -7.04772e-06 0)
(0.0291059 -7.96689e-06 0)
(0.0291056 -8.87364e-06 0)
(0.0291053 -9.77329e-06 0)
(0.029105 -1.06437e-05 0)
(0.0291047 -1.15079e-05 0)
(0.0291046 -1.23068e-05 0)
(0.0291045 -1.31026e-05 0)
(0.0291045 -1.37787e-05 0)
(0.0291075 -6.29584e-07 0)
(0.0291056 -1.47127e-06 0)
(0.0291055 -2.39467e-06 0)
(0.0291053 -3.32944e-06 0)
(0.0291052 -4.26607e-06 0)
(0.0291049 -5.20251e-06 0)
(0.0291047 -6.13599e-06 0)
(0.0291044 -7.06604e-06 0)
(0.0291041 -7.99031e-06 0)
(0.0291038 -8.90489e-06 0)
(0.0291035 -9.81192e-06 0)
(0.0291033 -1.06938e-05 0)
(0.0291031 -1.15682e-05 0)
(0.029103 -1.23802e-05 0)
(0.029103 -1.31861e-05 0)
(0.0291031 -1.38558e-05 0)
(0.0291056 -6.30305e-07 0)
(0.0291037 -1.46323e-06 0)
(0.0291036 -2.38167e-06 0)
(0.0291034 -3.31157e-06 0)
(0.0291033 -4.24333e-06 0)
(0.029103 -5.17533e-06 0)
(0.0291028 -6.10399e-06 0)
(0.0291025 -7.02994e-06 0)
(0.0291023 -7.94895e-06 0)
(0.029102 -8.85956e-06 0)
(0.0291018 -9.75999e-06 0)
(0.0291015 -1.06379e-05 0)
(0.0291014 -1.15036e-05 0)
(0.0291014 -1.23112e-05 0)
(0.0291015 -1.31064e-05 0)
(0.0291017 -1.37631e-05 0)
(0.0291037 -6.26853e-07 0)
(0.0291017 -1.44135e-06 0)
(0.0291016 -2.34585e-06 0)
(0.0291015 -3.26142e-06 0)
(0.0291014 -4.17818e-06 0)
(0.0291012 -5.09478e-06 0)
(0.0291009 -6.00662e-06 0)
(0.0291007 -6.91516e-06 0)
(0.0291005 -7.81412e-06 0)
(0.0291002 -8.70423e-06 0)
(0.0291 -9.57965e-06 0)
(0.0290999 -1.04334e-05 0)
(0.0290998 -1.1268e-05 0)
(0.0290998 -1.20493e-05 0)
(0.0291001 -1.28106e-05 0)
(0.0291005 -1.34442e-05 0)
(0.0291018 -6.17478e-07 0)
(0.0290998 -1.40091e-06 0)
(0.0290998 -2.27959e-06 0)
(0.0290996 -3.16839e-06 0)
(0.0290995 -4.05717e-06 0)
(0.0290993 -4.94463e-06 0)
(0.0290991 -5.82516e-06 0)
(0.0290989 -6.70075e-06 0)
(0.0290987 -7.56316e-06 0)
(0.0290985 -8.41513e-06 0)
(0.0290983 -9.24697e-06 0)
(0.0290982 -1.00573e-05 0)
(0.0290982 -1.08411e-05 0)
(0.0290984 -1.15778e-05 0)
(0.0290987 -1.22868e-05 0)
(0.0290993 -1.28891e-05 0)
(0.0290999 -6.00169e-07 0)
(0.029098 -1.33934e-06 0)
(0.0290979 -2.17873e-06 0)
(0.0290978 -3.0269e-06 0)
(0.0290977 -3.8735e-06 0)
(0.0290975 -4.71719e-06 0)
(0.0290974 -5.55145e-06 0)
(0.0290972 -6.37874e-06 0)
(0.029097 -7.18904e-06 0)
(0.0290969 -7.9871e-06 0)
(0.0290968 -8.75978e-06 0)
(0.0290967 -9.51156e-06 0)
(0.0290968 -1.02307e-05 0)
(0.0290971 -1.09114e-05 0)
(0.0290975 -1.15593e-05 0)
(0.0290982 -1.21293e-05 0)
(0.029098 -5.73813e-07 0)
(0.0290963 -1.25718e-06 0)
(0.0290962 -2.04425e-06 0)
(0.0290961 -2.83844e-06 0)
(0.029096 -3.62938e-06 0)
(0.0290959 -4.41569e-06 0)
(0.0290957 -5.19021e-06 0)
(0.0290956 -5.95584e-06 0)
(0.0290955 -6.70122e-06 0)
(0.0290954 -7.43309e-06 0)
(0.0290953 -8.13552e-06 0)
(0.0290954 -8.81895e-06 0)
(0.0290955 -9.46581e-06 0)
(0.0290958 -1.00854e-05 0)
(0.0290964 -1.06704e-05 0)
(0.0290972 -1.12099e-05 0)
(0.0290963 -5.38643e-07 0)
(0.0290947 -1.15831e-06 0)
(0.0290946 -1.8825e-06 0)
(0.0290946 -2.61188e-06 0)
(0.0290945 -3.33631e-06 0)
(0.0290944 -4.05433e-06 0)
(0.0290942 -4.75856e-06 0)
(0.0290941 -5.45236e-06 0)
(0.0290941 -6.1236e-06 0)
(0.029094 -6.78093e-06 0)
(0.029094 -7.40652e-06 0)
(0.0290941 -8.01638e-06 0)
(0.0290944 -8.58829e-06 0)
(0.0290948 -9.14559e-06 0)
(0.0290954 -9.66888e-06 0)
(0.0290963 -1.01795e-05 0)
(0.0290947 -4.96318e-07 0)
(0.0290933 -1.04891e-06 0)
(0.0290932 -1.7036e-06 0)
(0.0290932 -2.36135e-06 0)
(0.0290931 -3.01239e-06 0)
(0.029093 -3.65521e-06 0)
(0.0290929 -4.28251e-06 0)
(0.0290929 -4.89812e-06 0)
(0.0290928 -5.48981e-06 0)
(0.0290928 -6.06798e-06 0)
(0.0290929 -6.61385e-06 0)
(0.0290931 -7.14833e-06 0)
(0.0290934 -7.64571e-06 0)
(0.0290938 -8.14139e-06 0)
(0.0290945 -8.60564e-06 0)
(0.0290955 -9.08786e-06 0)
(0.0290933 -4.49488e-07 0)
(0.029092 -9.3581e-07 0)
(0.029092 -1.51874e-06 0)
(0.0290919 -2.10259e-06 0)
(0.0290919 -2.67808e-06 0)
(0.0290918 -3.24348e-06 0)
(0.0290918 -3.79178e-06 0)
(0.0290918 -4.32715e-06 0)
(0.0290918 -4.83775e-06 0)
(0.0290918 -5.33554e-06 0)
(0.029092 -5.8018e-06 0)
(0.0290922 -6.26134e-06 0)
(0.0290925 -6.68636e-06 0)
(0.0290931 -7.12175e-06 0)
(0.0290938 -7.52977e-06 0)
(0.0290947 -7.98297e-06 0)
(0.029092 -4.01073e-07 0)
(0.0290909 -8.24916e-07 0)
(0.0290909 -1.33768e-06 0)
(0.0290909 -1.84948e-06 0)
(0.0290909 -2.35161e-06 0)
(0.0290908 -2.84207e-06 0)
(0.0290908 -3.31414e-06 0)
(0.0290909 -3.77184e-06 0)
(0.0290909 -4.204e-06 0)
(0.029091 -4.62371e-06 0)
(0.0290912 -5.01318e-06 0)
(0.0290915 -5.40001e-06 0)
(0.0290918 -5.75578e-06 0)
(0.0290924 -6.13221e-06 0)
(0.0290931 -6.48653e-06 0)
(0.029094 -6.90893e-06 0)
(0.0290909 -3.53595e-07 0)
(0.02909 -7.20383e-07 0)
(0.02909 -1.16726e-06 0)
(0.02909 -1.61175e-06 0)
(0.02909 -2.04591e-06 0)
(0.02909 -2.4676e-06 0)
(0.0290901 -2.87034e-06 0)
(0.0290901 -3.2575e-06 0)
(0.0290902 -3.61845e-06 0)
(0.0290904 -3.96648e-06 0)
(0.0290906 -4.28527e-06 0)
(0.0290909 -4.60376e-06 0)
(0.0290913 -4.89441e-06 0)
(0.0290918 -5.21309e-06 0)
(0.0290925 -5.51564e-06 0)
(0.0290934 -5.90414e-06 0)
(0.02909 -3.08832e-07 0)
(0.0290893 -6.24595e-07 0)
(0.0290893 -1.01137e-06 0)
(0.0290893 -1.39486e-06 0)
(0.0290893 -1.76807e-06 0)
(0.0290894 -2.12899e-06 0)
(0.0290895 -2.47165e-06 0)
(0.0290895 -2.7986e-06 0)
(0.0290897 -3.09962e-06 0)
(0.0290899 -3.3869e-06 0)
(0.0290901 -3.64542e-06 0)
(0.0290905 -3.90358e-06 0)
(0.0290909 -4.13574e-06 0)
(0.0290914 -4.39898e-06 0)
(0.0290921 -4.65126e-06 0)
(0.0290929 -5.00065e-06 0)
(0.0290893 -2.67808e-07 0)
(0.0290887 -5.3859e-07 0)
(0.0290887 -8.71764e-07 0)
(0.0290888 -1.20137e-06 0)
(0.0290888 -1.5212e-06 0)
(0.0290889 -1.82953e-06 0)
(0.029089 -2.12107e-06 0)
(0.0290891 -2.39816e-06 0)
(0.0290893 -2.65208e-06 0)
(0.0290895 -2.89291e-06 0)
(0.0290898 -3.10624e-06 0)
(0.0290901 -3.31765e-06 0)
(0.0290906 -3.50362e-06 0)
(0.0290911 -3.71845e-06 0)
(0.0290917 -3.92334e-06 0)