/*--------------------------------*- C++ -*----------------------------------*\
| =========                 |                                                 |
| \\      /  F ield         | OpenFOAM: The Open Source CFD Toolbox           |
|  \\    /   O peration     | Version:  4.1                                   |
|   \\  /    A nd           | Web:      www.OpenFOAM.org                      |
|    \\/     M anipulation  |                                                 |
\*---------------------------------------------------------------------------*/
FoamFile
{
    version     2.0;
    format      ascii;
    class       pointVectorField;
    location    "0.0074";
    object      pointDisplacement;
}
// * * * * * * * * * * * * * * * * * * * * * * * * * * * * * * * * * * * * * //

dimensions      [0 1 0 0 0 0 0];

internalField   nonuniform List<vector> 
1885
(
(0 0 0)
(-1.9778e-06 -2.1775e-06 2.7808e-10)
(-3.6035e-06 -4.1601e-06 5.3103e-10)
(-4.6855e-06 -5.9622e-06 7.6006e-10)
(-5.2383e-06 -7.8605e-06 9.9086e-10)
(-5.38e-06 -1.0186e-05 1.2548e-09)
(-5.2016e-06 -1.3088e-05 1.5757e-09)
(-4.7261e-06 -1.6526e-05 1.9651e-09)
(-3.9376e-06 -2.0394e-05 2.4263e-09)
(-2.8111e-06 -2.4609e-05 2.9537e-09)
(-1.325e-06 -2.9116e-05 3.5329e-09)
(5.2916e-07 -3.3868e-05 4.1589e-09)
(2.7406e-06 -3.879e-05 4.8297e-09)
(0 0 0)
(-1.9036e-06 -1.9343e-06 2.4217e-07)
(-3.4843e-06 -3.716e-06 4.6553e-07)
(-4.5598e-06 -5.3625e-06 6.7232e-07)
(-5.1289e-06 -7.1014e-06 8.9084e-07)
(-5.2875e-06 -9.206e-06 1.1549e-06)
(-5.1161e-06 -1.1808e-05 1.4809e-06)
(-4.6396e-06 -1.4882e-05 1.8654e-06)
(-3.847e-06 -1.8342e-05 2.2981e-06)
(-2.7165e-06 -2.2116e-05 2.7701e-06)
(-1.2291e-06 -2.6153e-05 3.2745e-06)
(6.2235e-07 -3.0406e-05 3.8054e-06)
(2.8276e-06 -3.4807e-05 4.3543e-06)
(0 0 0)
(-1.8527e-06 -1.6942e-06 5.4719e-07)
(-3.4024e-06 -3.2681e-06 1.0555e-06)
(-4.4727e-06 -4.7402e-06 1.5308e-06)
(-5.0524e-06 -6.2977e-06 2.0337e-06)
(-5.2223e-06 -8.1665e-06 2.6369e-06)
(-5.0559e-06 -1.0461e-05 3.3766e-06)
(-4.579e-06 -1.3165e-05 4.2476e-06)
(-3.7837e-06 -1.621e-05 5.2279e-06)
(-2.6506e-06 -1.9533e-05 6.2977e-06)
(-1.1624e-06 -2.3088e-05 7.4416e-06)
(6.8714e-07 -2.6831e-05 8.6455e-06)
(2.888e-06 -3.0701e-05 9.8896e-06)
(0 0 0)
(-1.8221e-06 -1.4315e-06 8.5238e-07)
(-3.3526e-06 -2.7677e-06 1.6476e-06)
(-4.4189e-06 -4.0251e-06 2.3952e-06)
(-5.0042e-06 -5.3567e-06 3.1867e-06)
(-5.1807e-06 -6.9472e-06 4.1323e-06)
(-5.0175e-06 -8.8916e-06 5.288e-06)
(-4.5405e-06 -1.118e-05 6.6472e-06)
(-3.7436e-06 -1.3756e-05 8.1773e-06)
(-2.6089e-06 -1.6569e-05 9.8474e-06)
(-1.1202e-06 -1.9579e-05 1.1634e-05)
(7.281e-07 -2.2746e-05 1.3514e-05)
(2.9262e-06 -2.6019e-05 1.5456e-05)
(0 0 0)
(-1.8119e-06 -1.1494e-06 1.1495e-06)
(-3.3359e-06 -2.2236e-06 2.2238e-06)
(-4.4007e-06 -3.2359e-06 3.2361e-06)
(-4.9877e-06 -4.308e-06 4.3083e-06)
(-5.1665e-06 -5.5869e-06 5.5873e-06)
(-5.0044e-06 -7.1483e-06 7.1487e-06)
(-4.5273e-06 -8.9843e-06 8.9848e-06)
(-3.7298e-06 -1.1052e-05 1.1052e-05)
(-2.5946e-06 -1.3308e-05 1.3309e-05)
(-1.1058e-06 -1.5723e-05 1.5723e-05)
(7.4213e-07 -1.8263e-05 1.8264e-05)
(2.9393e-06 -2.0888e-05 2.0889e-05)
(0 0 0)
(-1.8221e-06 -8.5226e-07 1.4316e-06)
(-3.3526e-06 -1.6473e-06 2.7679e-06)
(-4.4189e-06 -2.3949e-06 4.0253e-06)
(-5.0042e-06 -3.1864e-06 5.357e-06)
(-5.1808e-06 -4.1319e-06 6.9475e-06)
(-5.0176e-06 -5.2876e-06 8.8919e-06)
(-4.5406e-06 -6.6467e-06 1.118e-05)
(-3.7436e-06 -8.1767e-06 1.3757e-05)
(-2.6089e-06 -9.8466e-06 1.657e-05)
(-1.1203e-06 -1.1633e-05 1.9579e-05)
(7.2807e-07 -1.3513e-05 2.2747e-05)
(2.9262e-06 -1.5455e-05 2.602e-05)
(0 0 0)
(-1.8528e-06 -5.4706e-07 1.6943e-06)
(-3.4024e-06 -1.0553e-06 3.2683e-06)
(-4.4727e-06 -1.5305e-06 4.7404e-06)
(-5.0525e-06 -2.0333e-06 6.2979e-06)
(-5.2224e-06 -2.6365e-06 8.1667e-06)
(-5.056e-06 -3.3761e-06 1.0461e-05)
(-4.5791e-06 -4.2471e-06 1.3165e-05)
(-3.7838e-06 -5.2273e-06 1.621e-05)
(-2.6507e-06 -6.2969e-06 1.9533e-05)
(-1.1624e-06 -7.4407e-06 2.3088e-05)
(6.8708e-07 -8.6444e-06 2.6832e-05)
(2.8879e-06 -9.8883e-06 3.0702e-05)
(0 0 0)
(-1.9036e-06 -2.4205e-07 1.9344e-06)
(-3.4844e-06 -4.6531e-07 3.7161e-06)
(-4.5599e-06 -6.7204e-07 5.3627e-06)
(-5.1291e-06 -8.905e-07 7.1016e-06)
(-5.2876e-06 -1.1546e-06 9.2062e-06)
(-5.1162e-06 -1.4804e-06 1.1808e-05)
(-4.6397e-06 -1.8649e-06 1.4882e-05)
(-3.8471e-06 -2.2976e-06 1.8342e-05)
(-2.7166e-06 -2.7694e-06 2.2116e-05)
(-1.2292e-06 -3.2737e-06 2.6153e-05)
(6.2227e-07 -3.8044e-06 3.0406e-05)
(2.8275e-06 -4.3531e-06 3.4807e-05)
(0 0 0)
(-1.9779e-06 -1.7247e-10 2.1776e-06)
(-3.6036e-06 -3.4367e-10 4.1602e-06)
(-4.6856e-06 -5.2459e-10 5.9624e-06)
(-5.2384e-06 -7.316e-10 7.8606e-06)
(-5.3802e-06 -9.7861e-10 1.0186e-05)
(-5.2018e-06 -1.2747e-09 1.3088e-05)
(-4.7262e-06 -1.6243e-09 1.6526e-05)
(-3.9377e-06 -2.0292e-09 2.0394e-05)
(-2.8112e-06 -2.4845e-09 2.4609e-05)
(-1.3251e-06 -2.9746e-09 2.9116e-05)
(5.2906e-07 -3.4856e-09 3.3868e-05)
(2.7405e-06 -4.0131e-09 3.879e-05)
(0 0 0)
(-1.9036e-06 -1.9344e-06 -2.4143e-07)
(-3.4843e-06 -3.716e-06 -4.641e-07)
(-4.5598e-06 -5.3625e-06 -6.7025e-07)
(-5.1289e-06 -7.1015e-06 -8.881e-07)
(-5.2874e-06 -9.2061e-06 -1.1514e-06)
(-5.1161e-06 -1.1808e-05 -1.4765e-06)
(-4.6396e-06 -1.4882e-05 -1.8599e-06)
(-3.847e-06 -1.8342e-05 -2.2914e-06)
(-2.7165e-06 -2.2117e-05 -2.7619e-06)
(-1.2291e-06 -2.6154e-05 -3.2648e-06)
(6.2232e-07 -3.0407e-05 -3.794e-06)
(2.8275e-06 -3.4808e-05 -4.3411e-06)
(0 0 0)
(-1.7965e-06 -1.5754e-06 7.3053e-10)
(-3.3112e-06 -3.0521e-06 1.4254e-09)
(-4.3743e-06 -4.4496e-06 2.0971e-09)
(-4.9642e-06 -5.9311e-06 2.8033e-09)
(-5.146e-06 -7.6942e-06 3.6132e-09)
(-4.9851e-06 -9.8432e-06 4.5765e-09)
(-4.5078e-06 -1.237e-05 5.7109e-09)
(-3.7094e-06 -1.5218e-05 7.01e-09)
(-2.5734e-06 -1.8328e-05 8.4545e-09)
(-1.0843e-06 -2.1657e-05 1.0018e-08)
(7.632e-07 -2.5161e-05 1.1675e-08)
(2.9593e-06 -2.8781e-05 1.3399e-08)
(0 0 0)
(-1.7501e-06 -1.3363e-06 2.6855e-07)
(-3.2352e-06 -2.5978e-06 5.2193e-07)
(-4.2913e-06 -3.8027e-06 7.6376e-07)
(-4.8885e-06 -5.0821e-06 1.0205e-06)
(-5.0798e-06 -6.5946e-06 1.324e-06)
(-4.9237e-06 -8.4274e-06 1.6918e-06)
(-4.4465e-06 -1.0578e-05 2.1231e-06)
(-3.6458e-06 -1.3001e-05 2.6088e-06)
(-2.5075e-06 -1.565e-05 3.1396e-06)
(-1.0176e-06 -1.8484e-05 3.7077e-06)
(8.2809e-07 -2.1467e-05 4.3054e-06)
(3.0201e-06 -2.4546e-05 4.9223e-06)
(0 0 0)
(-1.7224e-06 -1.082e-06 5.4201e-07)
(-3.1895e-06 -2.1075e-06 1.0555e-06)
(-4.2407e-06 -3.092e-06 1.5482e-06)
(-4.8419e-06 -4.1382e-06 2.0716e-06)
(-5.0387e-06 -5.3706e-06 2.6883e-06)
(-4.8856e-06 -6.8589e-06 3.433e-06)
(-4.4084e-06 -8.603e-06 4.3055e-06)
(-3.6065e-06 -1.0568e-05 5.2882e-06)
(-2.4668e-06 -1.2716e-05 6.3624e-06)
(-9.7651e-07 -1.5015e-05 7.5122e-06)
(8.6811e-07 -1.7434e-05 8.7218e-06)
(3.0577e-06 -1.9931e-05 9.9699e-06)
(0 0 0)
(-1.7131e-06 -8.1546e-07 8.156e-07)
(-3.1742e-06 -1.5892e-06 1.5895e-06)
(-4.2237e-06 -2.3331e-06 2.3335e-06)
(-4.8261e-06 -3.1237e-06 3.1242e-06)
(-5.0247e-06 -4.0541e-06 4.0546e-06)
(-4.8726e-06 -5.1764e-06 5.177e-06)
(-4.3955e-06 -6.4908e-06 6.4915e-06)
(-3.5932e-06 -7.9716e-06 7.9724e-06)
(-2.453e-06 -9.5904e-06 9.5914e-06)
(-9.6263e-07 -1.1323e-05 1.1324e-05)
(8.8164e-07 -1.3146e-05 1.3147e-05)
(3.0704e-06 -1.5027e-05 1.5028e-05)
(0 0 0)
(-1.7224e-06 -5.4186e-07 1.0821e-06)
(-3.1895e-06 -1.0552e-06 2.1077e-06)
(-4.2407e-06 -1.5478e-06 3.0923e-06)
(-4.8419e-06 -2.0711e-06 4.1385e-06)
(-5.0387e-06 -2.6877e-06 5.371e-06)
(-4.8856e-06 -3.4323e-06 6.8593e-06)
(-4.4085e-06 -4.3047e-06 8.6035e-06)
(-3.6065e-06 -5.2873e-06 1.0569e-05)
(-2.4668e-06 -6.3613e-06 1.2717e-05)
(-9.7654e-07 -7.5108e-06 1.5016e-05)
(8.6809e-07 -8.7202e-06 1.7435e-05)
(3.0577e-06 -9.968e-06 1.9932e-05)
(0 0 0)
(-1.7502e-06 -2.6839e-07 1.3364e-06)
(-3.2353e-06 -5.2163e-07 2.598e-06)
(-4.2913e-06 -7.6335e-07 3.8029e-06)
(-4.8886e-06 -1.02e-06 5.0823e-06)
(-5.0799e-06 -1.3234e-06 6.5949e-06)
(-4.9238e-06 -1.691e-06 8.4277e-06)
(-4.4466e-06 -2.1222e-06 1.0578e-05)
(-3.6459e-06 -2.6078e-06 1.3002e-05)
(-2.5075e-06 -3.1384e-06 1.565e-05)
(-1.0177e-06 -3.7062e-06 1.8485e-05)
(8.2805e-07 -4.3036e-06 2.1467e-05)
(3.0201e-06 -4.9203e-06 2.4547e-05)
(0 0 0)
(-1.7966e-06 -5.8074e-10 1.5755e-06)
(-3.3112e-06 -1.1449e-09 3.0522e-06)
(-4.3744e-06 -1.712e-09 4.4497e-06)
(-4.9643e-06 -2.3307e-09 5.9313e-06)
(-5.1461e-06 -3.0523e-09 7.6943e-06)
(-4.9852e-06 -3.9102e-09 9.8433e-06)
(-4.5079e-06 -4.9131e-09 1.237e-05)
(-3.7096e-06 -6.0522e-09 1.5218e-05)
(-2.5735e-06 -7.3093e-09 1.8328e-05)
(-1.0843e-06 -8.658e-09 2.1657e-05)
(7.6314e-07 -1.007e-08 2.5161e-05)
(2.9592e-06 -1.1521e-08 2.8781e-05)
(0 0 0)
(-1.9036e-06 2.4155e-07 1.9344e-06)
(-3.4844e-06 4.6432e-07 3.7161e-06)
(-4.5599e-06 6.7053e-07 5.3627e-06)
(-5.1291e-06 8.8843e-07 7.1016e-06)
(-5.2876e-06 1.1518e-06 9.2062e-06)
(-5.1162e-06 1.4769e-06 1.1808e-05)
(-4.6398e-06 1.8604e-06 1.4882e-05)
(-3.8471e-06 2.292e-06 1.8342e-05)
(-2.7166e-06 2.7626e-06 2.2116e-05)
(-1.2292e-06 3.2656e-06 2.6154e-05)
(6.2223e-07 3.795e-06 3.0407e-05)
(2.8275e-06 4.3423e-06 3.4808e-05)
(0 0 0)
(-1.8528e-06 -1.6942e-06 -5.4687e-07)
(-3.4024e-06 -3.2683e-06 -1.0549e-06)
(-4.4727e-06 -4.7403e-06 -1.5299e-06)
(-5.0524e-06 -6.2979e-06 -2.0325e-06)
(-5.2223e-06 -8.1668e-06 -2.6354e-06)
(-5.0559e-06 -1.0461e-05 -3.3749e-06)
(-4.579e-06 -1.3165e-05 -4.2455e-06)
(-3.7837e-06 -1.621e-05 -5.2253e-06)
(-2.6506e-06 -1.9534e-05 -6.2945e-06)
(-1.1624e-06 -2.3089e-05 -7.4378e-06)
(6.8706e-07 -2.6833e-05 -8.641e-06)
(2.8879e-06 -3.0703e-05 -9.8843e-06)
(0 0 0)
(-1.7502e-06 -1.3363e-06 -2.6743e-07)
(-3.2353e-06 -2.5978e-06 -5.1973e-07)
(-4.2913e-06 -3.8026e-06 -7.6052e-07)
(-4.8886e-06 -5.082e-06 -1.0161e-06)
(-5.0799e-06 -6.5945e-06 -1.3185e-06)
(-4.9238e-06 -8.4272e-06 -1.6847e-06)
(-4.4465e-06 -1.0578e-05 -2.1143e-06)
(-3.6459e-06 -1.3001e-05 -2.5981e-06)
(-2.5075e-06 -1.5649e-05 -3.1267e-06)
(-1.0177e-06 -1.8484e-05 -3.6924e-06)
(8.28e-07 -2.1467e-05 -4.2875e-06)
(3.02e-06 -2.4546e-05 -4.9018e-06)
(0 0 0)
(-1.7029e-06 -1.0919e-06 8.0659e-10)
(-3.1575e-06 -2.1301e-06 1.5816e-09)
(-4.2053e-06 -3.1305e-06 2.3375e-09)
(-4.8091e-06 -4.1944e-06 3.1341e-09)
(-5.0096e-06 -5.4444e-06 4.0455e-09)
(-4.8585e-06 -6.9501e-06 5.1244e-09)
(-4.3814e-06 -8.7133e-06 6.3884e-09)
(-3.5785e-06 -1.07e-05 7.8294e-09)
(-2.4378e-06 -1.2872e-05 9.4271e-09)
(-9.4724e-07 -1.5197e-05 1.1156e-08)
(8.9668e-07 -1.7643e-05 1.2991e-08)
(3.0846e-06 -2.0166e-05 1.4896e-08)
(0 0 0)
(-1.6747e-06 -8.3228e-07 2.7868e-07)
(-3.1107e-06 -1.6267e-06 5.4459e-07)
(-4.1531e-06 -2.3961e-06 8.0204e-07)
(-4.7603e-06 -3.2151e-06 1.076e-06)
(-4.9662e-06 -4.1739e-06 1.3968e-06)
(-4.8181e-06 -5.3251e-06 1.7819e-06)
(-4.3412e-06 -6.6713e-06 2.2322e-06)
(-3.5371e-06 -8.188e-06 2.7394e-06)
(-2.395e-06 -9.8467e-06 3.2941e-06)
(-9.0406e-07 -1.1622e-05 3.888e-06)
(9.3878e-07 -1.349e-05 4.5125e-06)
(3.1242e-06 -1.5416e-05 5.1565e-06)
(0 0 0)
(-1.6653e-06 -5.5902e-07 5.5919e-07)
(-3.0952e-06 -1.0932e-06 1.0936e-06)
(-4.1356e-06 -1.6114e-06 1.6119e-06)
(-4.7439e-06 -2.1631e-06 2.1636e-06)
(-4.9516e-06 -2.8082e-06 2.8089e-06)
(-4.8044e-06 -3.5821e-06 3.5829e-06)
(-4.3276e-06 -4.4865e-06 4.4874e-06)
(-3.5231e-06 -5.5053e-06 5.5065e-06)
(-2.3806e-06 -6.6197e-06 6.621e-06)
(-8.895e-07 -7.8127e-06 7.8143e-06)
(9.5298e-07 -9.0673e-06 9.0692e-06)
(3.1375e-06 -1.0361e-05 1.0363e-05)
(0 0 0)
(-1.6747e-06 -2.7849e-07 8.3242e-07)
(-3.1108e-06 -5.4423e-07 1.6269e-06)
(-4.1531e-06 -8.0152e-07 2.3965e-06)
(-4.7604e-06 -1.0753e-06 3.2155e-06)
(-4.9663e-06 -1.396e-06 4.1744e-06)
(-4.8181e-06 -1.7809e-06 5.3257e-06)
(-4.3413e-06 -2.231e-06 6.672e-06)
(-3.5371e-06 -2.738e-06 8.1888e-06)
(-2.3951e-06 -3.2924e-06 9.8477e-06)
(-9.0408e-07 -3.886e-06 1.1624e-05)
(9.3876e-07 -4.5102e-06 1.3491e-05)
(3.1241e-06 -5.1538e-06 1.5418e-05)
(0 0 0)
(-1.7029e-06 -6.019e-10 1.092e-06)
(-3.1575e-06 -1.1897e-09 2.1302e-06)
(-4.2053e-06 -1.7809e-09 3.1307e-06)
(-4.8092e-06 -2.4241e-09 4.1947e-06)
(-5.0097e-06 -3.173e-09 5.4446e-06)
(-4.8586e-06 -4.0615e-09 6.9504e-06)
(-4.3815e-06 -5.0962e-09 8.7136e-06)
(-3.5786e-06 -6.2656e-09 1.07e-05)
(-2.4379e-06 -7.5512e-09 1.2872e-05)
(-9.4729e-07 -8.9303e-09 1.5197e-05)
(8.9665e-07 -1.0378e-08 1.7643e-05)
(3.0846e-06 -1.1866e-08 2.0167e-05)
(0 0 0)
(-1.7502e-06 2.6762e-07 1.3363e-06)
(-3.2354e-06 5.201e-07 2.5979e-06)
(-4.2914e-06 7.6103e-07 3.8027e-06)
(-4.8887e-06 1.0168e-06 5.0821e-06)
(-5.08e-06 1.3192e-06 6.5945e-06)
(-4.9239e-06 1.6857e-06 8.4272e-06)
(-4.4466e-06 2.1155e-06 1.0578e-05)
(-3.646e-06 2.5995e-06 1.3001e-05)
(-2.5076e-06 3.1284e-06 1.5649e-05)
(-1.0178e-06 3.6944e-06 1.8484e-05)
(8.2795e-07 4.2899e-06 2.1467e-05)
(3.02e-06 4.9046e-06 2.4546e-05)
(0 0 0)
(-1.8528e-06 5.4701e-07 1.6943e-06)
(-3.4025e-06 1.0551e-06 3.2684e-06)
(-4.4729e-06 1.5303e-06 4.7404e-06)
(-5.0526e-06 2.0329e-06 6.2979e-06)
(-5.2225e-06 2.6359e-06 8.1668e-06)
(-5.0561e-06 3.3754e-06 1.0461e-05)
(-4.5792e-06 4.2461e-06 1.3165e-05)
(-3.7839e-06 5.2261e-06 1.621e-05)
(-2.6508e-06 6.2954e-06 1.9534e-05)
(-1.1625e-06 7.439e-06 2.3089e-05)
(6.8699e-07 8.6424e-06 2.6832e-05)
(2.8878e-06 9.8859e-06 3.0703e-05)
(0 0 0)
(-1.8221e-06 -1.4315e-06 -8.5236e-07)
(-3.3526e-06 -2.7678e-06 -1.6475e-06)
(-4.4188e-06 -4.0252e-06 -2.3952e-06)
(-5.0041e-06 -5.3568e-06 -3.1868e-06)
(-5.1807e-06 -6.9474e-06 -4.1324e-06)
(-5.0175e-06 -8.8919e-06 -5.2882e-06)
(-4.5405e-06 -1.118e-05 -6.6476e-06)
(-3.7435e-06 -1.3757e-05 -8.1777e-06)
(-2.6089e-06 -1.657e-05 -9.8479e-06)
(-1.1203e-06 -1.958e-05 -1.1634e-05)
(7.2804e-07 -2.2747e-05 -1.3515e-05)
(2.9261e-06 -2.602e-05 -1.5457e-05)
(0 0 0)
(-1.7224e-06 -1.0818e-06 -5.4168e-07)
(-3.1895e-06 -2.1072e-06 -1.0549e-06)
(-4.2407e-06 -3.0915e-06 -1.5472e-06)
(-4.8419e-06 -4.1375e-06 -2.0703e-06)
(-5.0387e-06 -5.3697e-06 -2.6867e-06)
(-4.8856e-06 -6.8578e-06 -3.4311e-06)
(-4.4084e-06 -8.6017e-06 -4.3031e-06)
(-3.6065e-06 -1.0566e-05 -5.2854e-06)
(-2.4668e-06 -1.2714e-05 -6.359e-06)
(-9.7658e-07 -1.5013e-05 -7.5081e-06)
(8.6803e-07 -1.7432e-05 -8.717e-06)
(3.0576e-06 -1.9928e-05 -9.9643e-06)
(0 0 0)
(-1.6747e-06 -8.3204e-07 -2.7769e-07)
(-3.1107e-06 -1.6262e-06 -5.4264e-07)
(-4.1531e-06 -2.3954e-06 -7.9915e-07)
(-4.7603e-06 -3.2141e-06 -1.0721e-06)
(-4.9662e-06 -4.1726e-06 -1.3918e-06)
(-4.8181e-06 -5.3235e-06 -1.7756e-06)
(-4.3412e-06 -6.6693e-06 -2.2244e-06)
(-3.5371e-06 -8.1855e-06 -2.7299e-06)
(-2.395e-06 -9.8437e-06 -3.2827e-06)
(-9.0407e-07 -1.1619e-05 -3.8744e-06)
(9.3876e-07 -1.3486e-05 -4.4967e-06)
(3.1241e-06 -1.5411e-05 -5.1384e-06)
(0 0 0)
(-1.6462e-06 -5.6628e-07 5.0762e-10)
(-3.0633e-06 -1.109e-06 9.9519e-10)
(-4.0998e-06 -1.6372e-06 1.4679e-09)
(-4.7101e-06 -2.2e-06 1.9613e-09)
(-4.9213e-06 -2.8566e-06 2.5216e-09)
(-4.7761e-06 -3.6425e-06 3.1826e-09)
(-4.2996e-06 -4.5602e-06 3.9569e-09)
(-3.4942e-06 -5.5942e-06 4.8413e-09)
(-2.3508e-06 -6.7253e-06 5.8253e-09)
(-8.5945e-07 -7.9365e-06 6.896e-09)
(9.8228e-07 -9.2101e-06 8.0385e-09)
(3.1651e-06 -1.0523e-05 9.2303e-09)
(0 0 0)
(-1.6367e-06 -2.8602e-07 2.8622e-07)
(-3.0474e-06 -5.6046e-07 5.6086e-07)
(-4.0819e-06 -8.2803e-07 8.2859e-07)
(-4.6932e-06 -1.1131e-06 1.1139e-06)
(-4.906e-06 -1.4455e-06 1.4464e-06)
(-4.7619e-06 -1.8428e-06 1.8439e-06)
(-4.2854e-06 -2.3066e-06 2.3079e-06)
(-3.4797e-06 -2.8291e-06 2.8307e-06)
(-2.3358e-06 -3.4007e-06 3.4026e-06)
(-8.4436e-07 -4.0128e-06 4.0151e-06)
(9.97e-07 -4.6565e-06 4.6591e-06)
(3.179e-06 -5.3199e-06 5.3229e-06)
(0 0 0)
(-1.6462e-06 -2.6959e-10 5.6646e-07)
(-3.0633e-06 -5.3584e-10 1.1093e-06)
(-4.0998e-06 -8.0784e-10 1.6377e-06)
(-4.7102e-06 -1.1084e-09 2.2006e-06)
(-4.9213e-06 -1.4619e-09 2.8574e-06)
(-4.7762e-06 -1.8818e-09 3.6434e-06)
(-4.2996e-06 -2.3685e-09 4.5613e-06)
(-3.4942e-06 -2.9147e-09 5.5955e-06)
(-2.3508e-06 -3.5117e-09 6.7269e-06)
(-8.5947e-07 -4.1504e-09 7.9383e-06)
(9.8227e-07 -4.8208e-09 9.2122e-06)
(3.1651e-06 -5.5102e-09 1.0525e-05)
(0 0 0)
(-1.6748e-06 2.7797e-07 8.3213e-07)
(-3.1108e-06 5.432e-07 1.6264e-06)
(-4.1532e-06 7.9996e-07 2.3956e-06)
(-4.7604e-06 1.0732e-06 3.2143e-06)
(-4.9663e-06 1.3931e-06 4.1729e-06)
(-4.8182e-06 1.7773e-06 5.3238e-06)
(-4.3413e-06 2.2264e-06 6.6696e-06)
(-3.5371e-06 2.7323e-06 8.1859e-06)
(-2.3951e-06 3.2856e-06 9.8442e-06)
(-9.0411e-07 3.8779e-06 1.162e-05)
(9.3873e-07 4.5008e-06 1.3487e-05)
(3.1241e-06 5.1431e-06 1.5412e-05)
(0 0 0)
(-1.7224e-06 5.4195e-07 1.0818e-06)
(-3.1896e-06 1.0554e-06 2.1072e-06)
(-4.2408e-06 1.5479e-06 3.0915e-06)
(-4.842e-06 2.0713e-06 4.1374e-06)
(-5.0388e-06 2.6879e-06 5.3696e-06)
(-4.8857e-06 3.4325e-06 6.8575e-06)
(-4.4085e-06 4.3049e-06 8.6013e-06)
(-3.6066e-06 5.2876e-06 1.0566e-05)
(-2.4669e-06 6.3617e-06 1.2714e-05)
(-9.7663e-07 7.5113e-06 1.5012e-05)
(8.68e-07 8.7207e-06 1.7431e-05)
(3.0576e-06 9.9686e-06 1.9927e-05)
(0 0 0)
(-1.8222e-06 8.5253e-07 1.4315e-06)
(-3.3527e-06 1.6478e-06 2.7678e-06)
(-4.419e-06 2.3956e-06 4.0252e-06)
(-5.0043e-06 3.1873e-06 5.3567e-06)
(-5.1808e-06 4.1331e-06 6.9472e-06)
(-5.0177e-06 5.289e-06 8.8915e-06)
(-4.5406e-06 6.6484e-06 1.118e-05)
(-3.7437e-06 8.1788e-06 1.3756e-05)
(-2.609e-06 9.8492e-06 1.6569e-05)
(-1.1203e-06 1.1636e-05 1.9579e-05)
(7.2799e-07 1.3516e-05 2.2746e-05)
(2.9261e-06 1.5459e-05 2.6019e-05)
(0 0 0)
(-1.8119e-06 -1.1494e-06 -1.1494e-06)
(-3.3358e-06 -2.2236e-06 -2.2236e-06)
(-4.4006e-06 -3.2358e-06 -3.2358e-06)
(-4.9875e-06 -4.308e-06 -4.308e-06)
(-5.1663e-06 -5.5869e-06 -5.587e-06)
(-5.0042e-06 -7.1484e-06 -7.1484e-06)
(-4.5272e-06 -8.9844e-06 -8.9844e-06)
(-3.7297e-06 -1.1052e-05 -1.1052e-05)
(-2.5945e-06 -1.3309e-05 -1.3308e-05)
(-1.1057e-06 -1.5723e-05 -1.5723e-05)
(7.4214e-07 -1.8264e-05 -1.8263e-05)
(2.9393e-06 -2.0889e-05 -2.0888e-05)
(0 0 0)
(-1.7131e-06 -8.1532e-07 -8.1527e-07)
(-3.1742e-06 -1.589e-06 -1.5889e-06)
(-4.2237e-06 -2.3327e-06 -2.3325e-06)
(-4.826e-06 -3.1231e-06 -3.123e-06)
(-5.0246e-06 -4.0534e-06 -4.0531e-06)
(-4.8725e-06 -5.1754e-06 -5.1751e-06)
(-4.3954e-06 -6.4897e-06 -6.4893e-06)
(-3.5931e-06 -7.9703e-06 -7.9697e-06)
(-2.4529e-06 -9.5888e-06 -9.5881e-06)
(-9.626e-07 -1.1321e-05 -1.132e-05)
(8.8164e-07 -1.3144e-05 -1.3143e-05)
(3.0703e-06 -1.5024e-05 -1.5023e-05)
(0 0 0)
(-1.6653e-06 -5.587e-07 -5.5861e-07)
(-3.0951e-06 -1.0926e-06 -1.0924e-06)
(-4.1355e-06 -1.6105e-06 -1.6102e-06)
(-4.7438e-06 -2.1618e-06 -2.1614e-06)
(-4.9514e-06 -2.8066e-06 -2.8061e-06)
(-4.8043e-06 -3.5799e-06 -3.5794e-06)
(-4.3275e-06 -4.4838e-06 -4.4831e-06)
(-3.523e-06 -5.5021e-06 -5.5012e-06)
(-2.3805e-06 -6.6158e-06 -6.6147e-06)
(-8.8945e-07 -7.8082e-06 -7.8068e-06)
(9.5301e-07 -9.0621e-06 -9.0605e-06)
(3.1375e-06 -1.0355e-05 -1.0353e-05)
(0 0 0)
(-1.6366e-06 -2.8579e-07 -2.8564e-07)
(-3.0474e-06 -5.6001e-07 -5.5972e-07)
(-4.0818e-06 -8.2735e-07 -8.2693e-07)
(-4.6931e-06 -1.1122e-06 -1.1117e-06)
(-4.906e-06 -1.4443e-06 -1.4436e-06)
(-4.7619e-06 -1.8413e-06 -1.8404e-06)
(-4.2854e-06 -2.3047e-06 -2.3035e-06)
(-3.4796e-06 -2.8268e-06 -2.8254e-06)
(-2.3358e-06 -3.3979e-06 -3.3962e-06)
(-8.4433e-07 -4.0095e-06 -4.0075e-06)
(9.9702e-07 -4.6526e-06 -4.6502e-06)
(3.179e-06 -5.3155e-06 -5.3127e-06)
(0 0 0)
(-1.6271e-06 2.5666e-11 2.1528e-10)
(-3.0314e-06 4.6711e-11 4.1881e-10)
(-4.0637e-06 5.9932e-11 6.1015e-10)
(-4.676e-06 6.4614e-11 8.0272e-10)
(-4.8905e-06 6.2676e-11 1.0161e-09)
(-4.7474e-06 5.799e-11 1.2666e-09)
(-4.2711e-06 5.5025e-11 1.5621e-09)
(-3.4649e-06 5.7109e-11 1.9042e-09)
(-2.3206e-06 6.4798e-11 2.2912e-09)
(-8.2904e-07 7.6238e-11 2.7203e-09)
(1.012e-06 8.9552e-11 3.1873e-09)
(3.193e-06 1.0387e-10 3.6829e-09)
(0 0 0)
(-1.6367e-06 2.8592e-07 2.8607e-07)
(-3.0474e-06 5.6025e-07 5.6056e-07)
(-4.0819e-06 8.277e-07 8.2815e-07)
(-4.6932e-06 1.1127e-06 1.1133e-06)
(-4.906e-06 1.4448e-06 1.4456e-06)
(-4.7619e-06 1.8419e-06 1.8429e-06)
(-4.2854e-06 2.3054e-06 2.3067e-06)
(-3.4797e-06 2.8276e-06 2.8291e-06)
(-2.3358e-06 3.399e-06 3.4008e-06)
(-8.4435e-07 4.0108e-06 4.0129e-06)
(9.9701e-07 4.6541e-06 4.6566e-06)
(3.179e-06 5.3172e-06 5.3201e-06)
(0 0 0)
(-1.6653e-06 5.5906e-07 5.5881e-07)
(-3.0951e-06 1.0933e-06 1.0928e-06)
(-4.1356e-06 1.6115e-06 1.6107e-06)
(-4.7439e-06 2.1631e-06 2.1621e-06)
(-4.9515e-06 2.8082e-06 2.8069e-06)
(-4.8044e-06 3.582e-06 3.5803e-06)
(-4.3276e-06 4.4864e-06 4.4843e-06)
(-3.5231e-06 5.5052e-06 5.5027e-06)
(-2.3806e-06 6.6196e-06 6.6165e-06)
(-8.8948e-07 7.8126e-06 7.8089e-06)
(9.5299e-07 9.0672e-06 9.063e-06)
(3.1375e-06 1.0361e-05 1.0356e-05)
(0 0 0)
(-1.7131e-06 8.1569e-07 8.1522e-07)
(-3.1742e-06 1.5897e-06 1.5887e-06)
(-4.2237e-06 2.3337e-06 2.3323e-06)
(-4.8261e-06 3.1245e-06 3.1226e-06)
(-5.0247e-06 4.0551e-06 4.0526e-06)
(-4.8726e-06 5.1776e-06 5.1745e-06)
(-4.3955e-06 6.4923e-06 6.4884e-06)
(-3.5931e-06 7.9734e-06 7.9687e-06)
(-2.453e-06 9.5925e-06 9.5868e-06)
(-9.6263e-07 1.1326e-05 1.1319e-05)
(8.8164e-07 1.3149e-05 1.3141e-05)
(3.0704e-06 1.503e-05 1.5021e-05)
(0 0 0)
(-1.8119e-06 1.1496e-06 1.1494e-06)
(-3.3359e-06 2.2239e-06 2.2235e-06)
(-4.4007e-06 3.2363e-06 3.2356e-06)
(-4.9877e-06 4.3086e-06 4.3076e-06)
(-5.1665e-06 5.5876e-06 5.5864e-06)
(-5.0044e-06 7.1492e-06 7.1476e-06)
(-4.5273e-06 8.9854e-06 8.9835e-06)
(-3.7298e-06 1.1053e-05 1.1051e-05)
(-2.5946e-06 1.331e-05 1.3307e-05)
(-1.1058e-06 1.5724e-05 1.5721e-05)
(7.4213e-07 1.8266e-05 1.8262e-05)
(2.9393e-06 2.0891e-05 2.0886e-05)
(0 0 0)
(-1.8221e-06 -8.5237e-07 -1.4315e-06)
(-3.3525e-06 -1.6475e-06 -2.7678e-06)
(-4.4187e-06 -2.3952e-06 -4.0252e-06)
(-5.004e-06 -3.1868e-06 -5.3569e-06)
(-5.1806e-06 -4.1325e-06 -6.9474e-06)
(-5.0174e-06 -5.2883e-06 -8.8919e-06)
(-4.5404e-06 -6.6477e-06 -1.118e-05)
(-3.7434e-06 -8.1779e-06 -1.3757e-05)
(-2.6088e-06 -9.8482e-06 -1.657e-05)
(-1.1202e-06 -1.1635e-05 -1.9579e-05)
(7.2808e-07 -1.3515e-05 -2.2747e-05)
(2.9262e-06 -1.5458e-05 -2.602e-05)
(0 0 0)
(-1.7224e-06 -5.4174e-07 -1.0818e-06)
(-3.1895e-06 -1.055e-06 -2.1071e-06)
(-4.2407e-06 -1.5474e-06 -3.0914e-06)
(-4.8418e-06 -2.0706e-06 -4.1374e-06)
(-5.0386e-06 -2.687e-06 -5.3696e-06)
(-4.8855e-06 -3.4315e-06 -6.8576e-06)
(-4.4083e-06 -4.3036e-06 -8.6014e-06)
(-3.6064e-06 -5.2861e-06 -1.0566e-05)
(-2.4667e-06 -6.3599e-06 -1.2714e-05)
(-9.7653e-07 -7.5092e-06 -1.5013e-05)
(8.6806e-07 -8.7183e-06 -1.7431e-05)
(3.0576e-06 -9.9659e-06 -1.9927e-05)
(0 0 0)
(-1.6747e-06 -2.7781e-07 -8.3197e-07)
(-3.1107e-06 -5.4287e-07 -1.6261e-06)
(-4.153e-06 -7.9949e-07 -2.3952e-06)
(-4.7602e-06 -1.0726e-06 -3.2138e-06)
(-4.9661e-06 -1.3924e-06 -4.1723e-06)
(-4.818e-06 -1.7764e-06 -5.3231e-06)
(-4.3411e-06 -2.2253e-06 -6.6688e-06)
(-3.537e-06 -2.7311e-06 -8.1849e-06)
(-2.395e-06 -3.2841e-06 -9.843e-06)
(-9.0402e-07 -3.8762e-06 -1.1618e-05)
(9.3879e-07 -4.4988e-06 -1.3485e-05)
(3.1241e-06 -5.1408e-06 -1.541e-05)
(0 0 0)
(-1.6461e-06 3.2449e-10 -5.6617e-07)
(-3.0632e-06 6.3625e-10 -1.1087e-06)
(-4.0997e-06 9.3777e-10 -1.6369e-06)
(-4.7101e-06 1.2504e-09 -2.1995e-06)
(-4.9212e-06 1.6025e-09 -2.8561e-06)
(-4.7761e-06 2.0155e-09 -3.6418e-06)
(-4.2995e-06 2.4982e-09 -4.5593e-06)
(-3.4941e-06 3.0496e-09 -5.5931e-06)
(-2.3507e-06 3.6615e-09 -6.724e-06)
(-8.594e-07 4.3214e-09 -7.9349e-06)
(9.8232e-07 5.016e-09 -9.2082e-06)
(3.1651e-06 5.7314e-09 -1.0521e-05)
(0 0 0)
(-1.6366e-06 2.8599e-07 -2.8579e-07)
(-3.0474e-06 5.6041e-07 -5.6001e-07)
(-4.0818e-06 8.2793e-07 -8.2737e-07)
(-4.6931e-06 1.113e-06 -1.1123e-06)
(-4.9059e-06 1.4452e-06 -1.4443e-06)
(-4.7618e-06 1.8424e-06 -1.8413e-06)
(-4.2854e-06 2.3061e-06 -2.3048e-06)
(-3.4796e-06 2.8284e-06 -2.8268e-06)
(-2.3358e-06 3.3999e-06 -3.398e-06)
(-8.4431e-07 4.0119e-06 -4.0096e-06)
(9.9704e-07 4.6554e-06 -4.6527e-06)
(3.179e-06 5.3186e-06 -5.3155e-06)
(0 0 0)
(-1.6462e-06 5.6633e-07 3.0156e-10)
(-3.0633e-06 1.1091e-06 5.8494e-10)
(-4.0997e-06 1.6373e-06 8.5111e-10)
(-4.7101e-06 2.2001e-06 1.124e-09)
(-4.9212e-06 2.8567e-06 1.4358e-09)
(-4.7761e-06 3.6426e-06 1.8088e-09)
(-4.2995e-06 4.5603e-06 2.25e-09)
(-3.4942e-06 5.5943e-06 2.756e-09)
(-2.3508e-06 6.7254e-06 3.3214e-09)
(-8.5942e-07 7.9366e-06 3.9419e-09)
(9.8231e-07 9.2102e-06 4.6116e-09)
(3.1651e-06 1.0523e-05 5.318e-09)
(0 0 0)
(-1.6747e-06 8.3234e-07 2.7842e-07)
(-3.1107e-06 1.6268e-06 5.4407e-07)
(-4.153e-06 2.3963e-06 8.0124e-07)
(-4.7603e-06 3.2152e-06 1.0749e-06)
(-4.9662e-06 4.174e-06 1.3954e-06)
(-4.818e-06 5.3253e-06 1.7801e-06)
(-4.3412e-06 6.6714e-06 2.23e-06)
(-3.537e-06 8.1882e-06 2.7367e-06)
(-2.395e-06 9.8469e-06 3.2909e-06)
(-9.0402e-07 1.1623e-05 3.8842e-06)
(9.3881e-07 1.349e-05 4.5082e-06)
(3.1242e-06 1.5417e-05 5.1516e-06)
(0 0 0)
(-1.7223e-06 1.0821e-06 5.4176e-07)
(-3.1895e-06 2.1077e-06 1.055e-06)
(-4.2407e-06 3.0923e-06 1.5474e-06)
(-4.8418e-06 4.1385e-06 2.0706e-06)
(-5.0386e-06 5.371e-06 2.687e-06)
(-4.8855e-06 6.8594e-06 3.4314e-06)
(-4.4084e-06 8.6036e-06 4.3034e-06)
(-3.6064e-06 1.0569e-05 5.2858e-06)
(-2.4667e-06 1.2717e-05 6.3595e-06)
(-9.7648e-07 1.5016e-05 7.5088e-06)
(8.6815e-07 1.7436e-05 8.7178e-06)
(3.0577e-06 1.9932e-05 9.9653e-06)
(0 0 0)
(-1.8221e-06 1.4316e-06 8.5222e-07)
(-3.3525e-06 2.7679e-06 1.6472e-06)
(-4.4188e-06 4.0253e-06 2.3947e-06)
(-5.0041e-06 5.357e-06 3.1861e-06)
(-5.1807e-06 6.9475e-06 4.1315e-06)
(-5.0175e-06 8.892e-06 5.287e-06)
(-4.5405e-06 1.118e-05 6.646e-06)
(-3.7435e-06 1.3757e-05 8.1759e-06)
(-2.6089e-06 1.657e-05 9.8457e-06)
(-1.1202e-06 1.958e-05 1.1632e-05)
(7.2814e-07 2.2747e-05 1.3512e-05)
(2.9262e-06 2.602e-05 1.5454e-05)
(0 0 0)
(-1.8527e-06 -5.4687e-07 -1.6942e-06)
(-3.4023e-06 -1.0549e-06 -3.2683e-06)
(-4.4725e-06 -1.5299e-06 -4.7404e-06)
(-5.0522e-06 -2.0325e-06 -6.298e-06)
(-5.2221e-06 -2.6355e-06 -8.1669e-06)
(-5.0557e-06 -3.3749e-06 -1.0461e-05)
(-4.5788e-06 -4.2456e-06 -1.3165e-05)
(-3.7835e-06 -5.2255e-06 -1.6211e-05)
(-2.6505e-06 -6.2948e-06 -1.9534e-05)
(-1.1623e-06 -7.4382e-06 -2.3089e-05)
(6.8713e-07 -8.6416e-06 -2.6833e-05)
(2.8879e-06 -9.8851e-06 -3.0703e-05)
(0 0 0)
(-1.7501e-06 -2.675e-07 -1.3362e-06)
(-3.2352e-06 -5.1987e-07 -2.5977e-06)
(-4.2912e-06 -7.6071e-07 -3.8026e-06)
(-4.8884e-06 -1.0164e-06 -5.0819e-06)
(-5.0797e-06 -1.3188e-06 -6.5945e-06)
(-4.9236e-06 -1.6852e-06 -8.4272e-06)
(-4.4464e-06 -2.1149e-06 -1.0578e-05)
(-3.6457e-06 -2.5988e-06 -1.3001e-05)
(-2.5074e-06 -3.1276e-06 -1.5649e-05)
(-1.0176e-06 -3.6936e-06 -1.8484e-05)
(8.2807e-07 -4.2889e-06 -2.1466e-05)
(3.0201e-06 -4.9035e-06 -2.4546e-05)
(0 0 0)
(-1.7029e-06 6.6709e-10 -1.0919e-06)
(-3.1573e-06 1.3102e-09 -2.13e-06)
(-4.2051e-06 1.9396e-09 -3.1305e-06)
(-4.8089e-06 2.6026e-09 -4.1944e-06)
(-5.0095e-06 3.3572e-09 -5.4443e-06)
(-4.8583e-06 4.2453e-09 -6.9501e-06)
(-4.3812e-06 5.2813e-09 -8.7132e-06)
(-3.5784e-06 6.4585e-09 -1.07e-05)
(-2.4377e-06 7.758e-09 -1.2872e-05)
(-9.4715e-07 9.1536e-09 -1.5197e-05)
(8.9675e-07 1.0619e-08 -1.7642e-05)
(3.0846e-06 1.2126e-08 -2.0165e-05)
(0 0 0)
(-1.6747e-06 2.7844e-07 -8.3225e-07)
(-3.1106e-06 5.4412e-07 -1.6266e-06)
(-4.1529e-06 8.0134e-07 -2.396e-06)
(-4.7602e-06 1.0751e-06 -3.215e-06)
(-4.9661e-06 1.3956e-06 -4.1737e-06)
(-4.8179e-06 1.7804e-06 -5.3249e-06)
(-4.3411e-06 2.2302e-06 -6.6711e-06)
(-3.5369e-06 2.7371e-06 -8.1877e-06)
(-2.3949e-06 3.2913e-06 -9.8464e-06)
(-9.0396e-07 3.8846e-06 -1.1622e-05)
(9.3885e-07 4.5086e-06 -1.349e-05)
(3.1242e-06 5.152e-06 -1.5416e-05)
(0 0 0)
(-1.6653e-06 5.5878e-07 -5.5898e-07)
(-3.0951e-06 1.0927e-06 -1.0931e-06)
(-4.1355e-06 1.6107e-06 -1.6113e-06)
(-4.7438e-06 2.162e-06 -2.1629e-06)
(-4.9514e-06 2.8068e-06 -2.808e-06)
(-4.8042e-06 3.5802e-06 -3.5818e-06)
(-4.3275e-06 4.4841e-06 -4.4862e-06)
(-3.5229e-06 5.5025e-06 -5.505e-06)
(-2.3805e-06 6.6162e-06 -6.6192e-06)
(-8.894e-07 7.8086e-06 -7.8122e-06)
(9.5305e-07 9.0626e-06 -9.0667e-06)
(3.1376e-06 1.0356e-05 -1.036e-05)
(0 0 0)
(-1.6747e-06 8.3207e-07 -2.7794e-07)
(-3.1107e-06 1.6263e-06 -5.4315e-07)
(-4.153e-06 2.3955e-06 -7.9992e-07)
(-4.7603e-06 3.2141e-06 -1.0732e-06)
(-4.9662e-06 4.1726e-06 -1.3932e-06)
(-4.818e-06 5.3235e-06 -1.7773e-06)
(-4.3411e-06 6.6692e-06 -2.2265e-06)
(-3.537e-06 8.1854e-06 -2.7325e-06)
(-2.395e-06 9.8436e-06 -3.2858e-06)
(-9.0402e-07 1.1619e-05 -3.8781e-06)
(9.3881e-07 1.3486e-05 -4.501e-06)
(3.1242e-06 1.5411e-05 -5.1433e-06)
(0 0 0)
(-1.7029e-06 1.092e-06 5.8756e-10)
(-3.1574e-06 2.1301e-06 1.1444e-09)
(-4.2052e-06 3.1306e-06 1.6787e-09)
(-4.809e-06 4.1945e-06 2.2403e-09)
(-5.0096e-06 5.4444e-06 2.8906e-09)
(-4.8584e-06 6.9502e-06 3.6707e-09)
(-4.3813e-06 8.7133e-06 4.5905e-09)
(-3.5784e-06 1.07e-05 5.6384e-09)
(-2.4378e-06 1.2872e-05 6.7986e-09)
(-9.4718e-07 1.5197e-05 8.0578e-09)
(8.9674e-07 1.7643e-05 9.4006e-09)
(3.0846e-06 2.0166e-05 1.0802e-08)
(0 0 0)
(-1.7501e-06 1.3363e-06 2.6836e-07)
(-3.2352e-06 2.5979e-06 5.2155e-07)
(-4.2912e-06 3.8029e-06 7.6319e-07)
(-4.8884e-06 5.0823e-06 1.0197e-06)
(-5.0797e-06 6.5948e-06 1.323e-06)
(-4.9237e-06 8.4276e-06 1.6905e-06)
(-4.4464e-06 1.0578e-05 2.1215e-06)
(-3.6458e-06 1.3002e-05 2.607e-06)
(-2.5074e-06 1.565e-05 3.1374e-06)
(-1.0175e-06 1.8485e-05 3.7051e-06)
(8.2815e-07 2.1467e-05 4.3024e-06)
(3.0202e-06 2.4547e-05 4.9189e-06)
(0 0 0)
(-1.8527e-06 1.6942e-06 5.4706e-07)
(-3.4023e-06 3.2683e-06 1.0552e-06)
(-4.4726e-06 4.7403e-06 1.5304e-06)
(-5.0523e-06 6.2978e-06 2.0332e-06)
(-5.2222e-06 8.1666e-06 2.6362e-06)
(-5.0558e-06 1.0461e-05 3.3758e-06)
(-4.5789e-06 1.3165e-05 4.2466e-06)
(-3.7836e-06 1.621e-05 5.2268e-06)
(-2.6505e-06 1.9533e-05 6.2963e-06)
(-1.1623e-06 2.3088e-05 7.44e-06)
(6.8721e-07 2.6832e-05 8.6437e-06)
(2.888e-06 3.0702e-05 9.8875e-06)
(0 0 0)
(-1.9035e-06 -2.4143e-07 -1.9343e-06)
(-3.4841e-06 -4.641e-07 -3.716e-06)
(-4.5595e-06 -6.7025e-07 -5.3625e-06)
(-5.1286e-06 -8.8809e-07 -7.1015e-06)
(-5.2871e-06 -1.1514e-06 -9.2062e-06)
(-5.1158e-06 -1.4765e-06 -1.1808e-05)
(-4.6393e-06 -1.86e-06 -1.4882e-05)
(-3.8467e-06 -2.2915e-06 -1.8342e-05)
(-2.7163e-06 -2.7621e-06 -2.2117e-05)
(-1.2289e-06 -3.2652e-06 -2.6154e-05)
(6.2243e-07 -3.7945e-06 -3.0407e-05)
(2.8276e-06 -4.3418e-06 -3.4808e-05)
(0 0 0)
(-1.7964e-06 6.623e-10 -1.5754e-06)
(-3.311e-06 1.2973e-09 -3.0521e-06)
(-4.3741e-06 1.9162e-09 -4.4496e-06)
(-4.9639e-06 2.5664e-09 -5.9311e-06)
(-5.1457e-06 3.3044e-09 -7.6943e-06)
(-4.9848e-06 4.1716e-09 -9.8433e-06)
(-4.5075e-06 5.1832e-09 -1.2371e-05)
(-3.7092e-06 6.3334e-09 -1.5218e-05)
(-2.5732e-06 7.6029e-09 -1.8328e-05)
(-1.0841e-06 8.9624e-09 -2.1657e-05)
(7.633e-07 1.0384e-08 -2.5161e-05)
(2.9594e-06 1.1842e-08 -2.8781e-05)
(0 0 0)
(-1.75e-06 2.6842e-07 -1.3363e-06)
(-3.2351e-06 5.2167e-07 -2.5978e-06)
(-4.291e-06 7.6338e-07 -3.8028e-06)