/*--------------------------------*- C++ -*----------------------------------*\
| =========                 |                                                 |
| \\      /  F ield         | OpenFOAM: The Open Source CFD Toolbox           |
|  \\    /   O peration     | Version:  4.1                                   |
|   \\  /    A nd           | Web:      www.OpenFOAM.org                      |
|    \\/     M anipulation  |                                                 |
\*---------------------------------------------------------------------------*/
FoamFile
{
    version     2.0;
    format      ascii;
    class       volScalarField;
    location    "0.0049";
    object      p;
}
// * * * * * * * * * * * * * * * * * * * * * * * * * * * * * * * * * * * * * //

dimensions      [0 2 -2 0 0 0 0];

internalField   nonuniform List<scalar> 
6144
(
0.0055828
0.016383
0.026373
0.035816
0.045401
0.055695
0.06682
0.07856
0.090814
0.10368
0.11767
0.13356
0.15227
0.17459
0.20112
0.23238
0.26894
0.31158
0.36112
0.41819
0.48296
0.55502
0.63344
0.71679
0.80323
0.89055
0.97618
1.0569
1.1286
1.1855
1.2201
1.2287
1.219
1.1795
1.1139
1.0276
0.92478
0.80764
0.67819
0.54027
0.40106
0.27042
0.15837
0.072632
0.016819
-0.0075652
-0.014155
-0.007712
0.0055185
0.016242
0.026271
0.03583
0.045512
0.055839
0.066947
0.078676
0.090998
0.10401
0.11821
0.13435
0.15329
0.17582
0.20254
0.234
0.27079
0.31366
0.36338
0.42053
0.48523
0.55707
0.63512
0.71797
0.80376
0.89031
0.97498
1.0546
1.1248
1.1803
1.2143
1.2233
1.2116
1.172
1.1075
1.0222
0.9202
0.80391
0.67572
0.53977
0.40308
0.27494
0.16474
0.079769
0.022767
-0.0036795
-0.01141
-0.0065173
0.0054766
0.016149
0.0262
0.035829
0.045575
0.055921
0.06702
0.078756
0.091112
0.10422
0.11855
0.13485
0.15394
0.1766
0.20345
0.23504
0.27197
0.31499
0.36483
0.42201
0.48666
0.55835
0.63615
0.71865
0.80403
0.89006
0.9741
1.0529
1.1222
1.1765
1.2097
1.2185
1.2057
1.1672
1.1033
1.0188
0.91736
0.80166
0.67431
0.5396
0.40449
0.27799
0.16915
0.085002
0.027883
0.00016778
-0.0085875
-0.0055144
0.0054556
0.016101
0.026158
0.035817
0.045588
0.055943
0.067038
0.078777
0.091153
0.10431
0.11872
0.13509
0.15427
0.177
0.20391
0.23557
0.27259
0.31568
0.36557
0.42278
0.4874
0.55902
0.6367
0.71903
0.8042
0.88997
0.97368
1.0521
1.1208
1.1747
1.2076
1.2163
1.2036
1.1648
1.1013
1.017
0.91587
0.80047
0.67354
0.53945
0.40512
0.27942
0.17125
0.087451
0.030253
0.0019258
-0.0074227
-0.0050876
0.0054517
0.01609
0.026139
0.035791
0.045557
0.055908
0.067001
0.078739
0.091118
0.10428
0.11869
0.13507
0.15426
0.17699
0.20391
0.23558
0.2726
0.3157
0.36559
0.42281
0.48743
0.55904
0.63671
0.71904
0.8042
0.88997
0.97367
1.052
1.1208
1.1747
1.2076
1.2163
1.2036
1.1648
1.1012
1.017
0.91583
0.80043
0.6735
0.53942
0.40509
0.27939
0.17122
0.087417
0.030221
0.0019
-0.0074394
-0.0050931
0.0054648
0.016115
0.026143
0.035753
0.045481
0.055816
0.066909
0.078644
0.091006
0.10413
0.11848
0.13479
0.15391
0.17659
0.20346
0.23507
0.27202
0.31505
0.36489
0.42209
0.48673
0.55842
0.6362
0.71869
0.80405
0.89006
0.97407
1.0528
1.1221
1.1764
1.2097
1.2184
1.2056
1.1671
1.1032
1.0187
0.91723
0.80153
0.67419
0.53949
0.40439
0.27789
0.16905
0.084898
0.027786
8.9483e-05
-0.0086377
-0.0055315
0.005499
0.016184
0.026177
0.035703
0.045357
0.055664
0.066762
0.07849
0.090821
0.10386
0.11808
0.13425
0.15323
0.17579
0.20255
0.23404
0.27086
0.31375
0.36349
0.42065
0.48536
0.55719
0.63522
0.71804
0.8038
0.8903
0.97494
1.0545
1.1247
1.1802
1.2142
1.2232
1.2115
1.1718
1.1073
1.022
0.91999
0.8037
0.67553
0.53959
0.40292
0.27477
0.16457
0.079598
0.022606
-0.0038089
-0.011491
-0.0065454
0.0055556
0.016302
0.026242
0.035638
0.045183
0.055449
0.06656
0.078306
0.090565
0.10346
0.11748
0.13343
0.15219
0.17456
0.20114
0.23245
0.26905
0.31171
0.36127
0.41836
0.48313
0.55518
0.63357
0.71688
0.80328
0.89055
0.97612
1.0568
1.1285
1.1854
1.22
1.2286
1.2189
1.1793
1.1137
1.0274
0.92448
0.80735
0.67792
0.54002
0.40083
0.27018
0.15813
0.072397
0.016593
-0.0077452
-0.014267
-0.0077513
0.0055216
0.016251
0.026284
0.035847
0.045531
0.055856
0.066961
0.078685
0.091001
0.10401
0.1182
0.13433
0.15327
0.17578
0.2025
0.23396
0.27075
0.31362
0.36334
0.42049
0.4852
0.55704
0.6351
0.71794
0.80374
0.89029
0.97496
1.0545
1.1248
1.1803
1.2143
1.2233
1.2116
1.172
1.1075
1.0222
0.92021
0.80392
0.67574
0.53979
0.4031
0.27496
0.16476
0.079788
0.022785
-0.0036638
-0.011398
-0.0065127
0.0054614
0.016118
0.026185
0.035854
0.045634
0.055999
0.067094
0.078823
0.09119
0.10433
0.11871
0.13507
0.15421
0.17692
0.20381
0.23544
0.27244
0.31551
0.36538
0.42257
0.48718
0.55879
0.63647
0.71883
0.80403
0.88985
0.97364
1.0521
1.1211
1.1752
1.2087
1.2186
1.2046
1.1653
1.1017
1.0175
0.91627
0.80084
0.67389
0.53976
0.40529
0.27931
0.17064
0.086143
0.028276
-0.0002027
-0.0095517
-0.0054059
0.0054199
0.016027
0.026114
0.035851
0.045697
0.056085
0.067173
0.07891
0.09131
0.10454
0.11905
0.13556
0.15485
0.17768
0.2047
0.23646
0.27359
0.3168
0.36677
0.42398
0.48853
0.55998
0.63742
0.71944
0.80423
0.88953
0.97268
1.0503
1.1183
1.1714
1.2041
1.2135
1.1994
1.1607
1.0978
1.0142
0.91362
0.79881
0.67273
0.53984
0.40693
0.28253
0.17519
0.091427
0.033529
0.0039128
-0.006532
-0.0044473
0.0053991
0.015979
0.026072
0.035838
0.045711
0.056108
0.067194
0.078935
0.091355
0.10463
0.11921
0.13579
0.15517
0.17807
0.20514
0.23697
0.27418
0.31745
0.36748
0.42471
0.48923
0.5606
0.63792
0.71977
0.80434
0.88939
0.97221
1.0495
1.117
1.1695
1.2019
1.2112
1.1972
1.1585
1.0959
1.0126
0.91227
0.79776
0.67212
0.53984
0.40768
0.28406
0.17735
0.09393
0.035999
0.005772
-0.0053468
-0.0040385
0.0053953
0.015968
0.026054
0.035813
0.045681
0.056074
0.067158
0.078899
0.09132
0.1046
0.11918
0.13577
0.15515
0.17806
0.20515
0.23698
0.27419
0.31747
0.3675
0.42473
0.48925
0.56062
0.63793
0.71978
0.80435
0.88939
0.9722
1.0495
1.1169
1.1695
1.2019
1.2112
1.1972
1.1585
1.0958
1.0126
0.91222
0.79772
0.67208
0.5398
0.40765
0.28402
0.17731
0.093895
0.035967
0.0057462
-0.0053637
-0.0040443
0.0054086
0.015993
0.026059
0.035777
0.045606
0.055982
0.067064
0.0788
0.091205
0.10444
0.11897
0.1355
0.15481
0.17767
0.2047
0.23648
0.27363
0.31685
0.36683
0.42405
0.4886
0.56005
0.63747
0.71948
0.80425
0.88953
0.97266
1.0503
1.1183
1.1713
1.2041
1.2134
1.1994
1.1607
1.0977
1.0141
0.91349
0.79868
0.67261
0.53973
0.40682
0.28243
0.17508
0.091323
0.033433
0.0038348
-0.0065833
-0.0044648
0.0054425
0.016062
0.026093
0.03573
0.045482
0.055827
0.06691
0.07864
0.091014
0.10417
0.11858
0.13497
0.15415
0.17689
0.20382
0.23549
0.27251
0.3156
0.36548
0.42268
0.48729
0.55889
0.63656
0.71889
0.80406
0.88985
0.9736
1.052
1.121
1.1751
1.2086
1.2184
1.2045
1.1652
1.1015
1.0173
0.91606
0.80063
0.6737
0.53957
0.40511
0.27914
0.17047
0.08597
0.028117
-0.00033281
-0.0096363
-0.0054356
0.005495
0.016172
0.026155
0.035672
0.045316
0.055612
0.066701
0.078431
0.090752
0.10378
0.11801
0.13419
0.15318
0.17575
0.20252
0.23402
0.27084
0.31374
0.36349
0.42066
0.48536
0.55719
0.63522
0.71803
0.80379
0.89028
0.97491
1.0544
1.1247
1.1801
1.2141
1.2231
1.2114
1.1717
1.1072
1.0219
0.91991
0.80363
0.67546
0.53953
0.40285
0.27471
0.16451
0.079547
0.022561
-0.0038481
-0.01152
-0.0065554
0.0054826
0.016167
0.026227
0.035863
0.045611
0.055956
0.067049
0.078774
0.091118
0.10421
0.11853
0.13481
0.15389
0.17654
0.20338
0.23496
0.2719
0.31491
0.36475
0.42194
0.48659
0.55829
0.63609
0.7186
0.80399
0.89003
0.97407
1.0528
1.1221
1.1765
1.2097
1.2184
1.2057
1.1672
1.1033
1.0188
0.91737
0.80168
0.67433
0.53963
0.40453
0.27803
0.1692
0.085046
0.027926
0.00020496
-0.0085606
-0.0055048
0.0054229
0.016035
0.026127
0.035868
0.045715
0.056102
0.067187
0.078919
0.091313
0.10453
0.11904
0.13554
0.15483
0.17765
0.20466
0.23642
0.27355
0.31676
0.36673
0.42395
0.4885
0.55995
0.63739
0.71942
0.80421
0.88952
0.97267
1.0503
1.1183
1.1714
1.2041
1.2135
1.1994
1.1607
1.0978
1.0142
0.91362
0.79882
0.67274
0.53986
0.40695
0.28256
0.17521
0.091452
0.033552
0.0039325
-0.0065187
-0.0044425
0.0053836
0.015948
0.026058
0.035864
0.045774
0.056186
0.067269
0.079008
0.091438
0.10474
0.11938
0.13602
0.15545
0.1784
0.20553
0.23741
0.27468
0.31801
0.36807
0.42531
0.4898
0.5611
0.63829
0.71999
0.80437
0.88917
0.97169
1.0486
1.1156
1.1678
1.1999
1.2091
1.1948
1.1563
1.094
1.0111
0.91107
0.7969
0.67169
0.54003
0.40859
0.28567
0.17946
0.096209
0.038138
0.0073434
-0.0042806
-0.0036194
0.0053633
0.015901
0.026017
0.03585
0.045788
0.056211
0.067292
0.079036
0.091485
0.10483
0.11953
0.13625
0.15576
0.17878
0.20597
0.23791
0.27525
0.31865
0.36876
0.42601
0.49046
0.56168
0.63875
0.72029
0.80445
0.889
0.9712
1.0477
1.1143
1.166
1.1979
1.207
1.1927
1.1542
1.0921
1.0095
0.90979
0.79593
0.67116
0.5401
0.4094
0.28719
0.18155
0.098568
0.040428
0.0090586
-0.003183
-0.0032371
0.0053596
0.01589
0.025999
0.035826
0.045758
0.056177
0.067256
0.079
0.09145
0.1048
0.11951
0.13623
0.15574
0.17877
0.20597
0.23792
0.27526
0.31867
0.36878
0.42603
0.49048
0.5617
0.63877
0.7203
0.80446
0.889
0.97119
1.0477
1.1142
1.1659
1.1978
1.2069
1.1926
1.1542
1.0921
1.0095
0.90975
0.79589
0.67112
0.54006
0.40936
0.28716
0.18152
0.098533
0.040396
0.0090324
-0.0032003
-0.0032431
0.0053725
0.015915
0.026004
0.035791
0.045685
0.056085
0.067161
0.078899
0.091333
0.10465
0.1193
0.13596
0.15541
0.17839
0.20553
0.23743
0.27472
0.31806
0.36813
0.42538
0.48986
0.56116
0.63834
0.72003
0.80439
0.88917
0.97167
1.0485
1.1156
1.1677
1.1999
1.209
1.1947
1.1562
1.0939
1.011
0.91095
0.79677
0.67157
0.53991
0.40848
0.28555
0.17935
0.096103
0.038041
0.0072642
-0.0043331
-0.0036375
0.0054044
0.01598
0.026037
0.035746
0.045565
0.055932
0.067006
0.078737
0.091138
0.10437
0.11891
0.13544
0.15476
0.17763
0.20467
0.23646
0.27362
0.31684
0.36683
0.42406
0.48861
0.56005
0.63748
0.71948
0.80424
0.88952
0.97263
1.0503
1.1182
1.1713
1.204
1.2134
1.1993
1.1606
1.0976
1.014
0.91341
0.79861
0.67255
0.53967
0.40676
0.28237
0.17503
0.091275
0.033389
0.0037987
-0.0066076
-0.0044736
0.0054566
0.016089
0.0261
0.035691
0.0454
0.055715
0.066791
0.078518
0.09087
0.10399
0.11834
0.13467
0.1538
0.1765
0.20339
0.23501
0.27199
0.31503
0.36489
0.42209
0.48674
0.55843
0.63621
0.71869
0.80403
0.89003
0.97402
1.0528
1.122
1.1763
1.2095
1.2183
1.2054
1.1669
1.1031
1.0185
0.91707
0.80139
0.67406
0.53936
0.40427
0.27777
0.16894
0.084797
0.027695
1.1497e-05
-0.0086925
-0.00555
0.0054646
0.016127
0.026198
0.035867
0.045642
0.055994
0.06708
0.078804
0.091161
0.1043
0.11868
0.13504
0.15419
0.1769
0.20381
0.23546
0.27247
0.31556
0.36546
0.42268
0.48731
0.55893
0.63662
0.71896
0.80414
0.88992
0.97364
1.052
1.1208
1.1747
1.2075
1.2163
1.2036
1.1648
1.1013
1.017
0.91589
0.8005
0.67358
0.5395
0.40519
0.2795
0.17133
0.087527
0.030324
0.0019872
-0.0073786
-0.0050727
0.005405
0.015996
0.026098
0.035871
0.045746
0.056142
0.067222
0.078953
0.091361
0.10462
0.11919
0.13576
0.15512
0.17801
0.20507
0.2369
0.2741
0.31738
0.3674
0.42464
0.48916
0.56055
0.63787
0.71973
0.80431
0.88936
0.97219
1.0495
1.1169
1.1695
1.2019
1.2112
1.1972
1.1585
1.0958
1.0126
0.91228
0.79778
0.67215
0.53988
0.40773
0.28411
0.17741
0.093985
0.03605
0.0058141
-0.0053182
-0.0040286
0.0053662
0.015909
0.02603
0.035866
0.045805
0.056227
0.067306
0.079045
0.091487
0.10483
0.11952
0.13623
0.15573
0.17875
0.20593
0.23788
0.27521
0.31861
0.36872
0.42598
0.49043
0.56166
0.63873
0.72027
0.80444
0.88899
0.97119
1.0477
1.1143
1.166
1.1978
1.207
1.1927
1.1542
1.0921
1.0095
0.9098
0.79594
0.67118
0.54012
0.40942
0.28722
0.18158
0.098598
0.040455
0.0090806
-0.0031683
-0.003232
0.0053462
0.015863
0.025989
0.035852
0.045819
0.056252
0.06733
0.079073
0.091535
0.10492
0.11968
0.13646
0.15603
0.17912
0.20636
0.23837
0.27578
0.31924
0.3694
0.42666
0.49108
0.56222
0.63918
0.72055
0.80451
0.8888
0.97069
1.0468
1.1129
1.1642
1.1958
1.2048
1.1905
1.1521
1.0903
1.008
0.90855
0.79501
0.67069
0.54023
0.41025
0.28875
0.18365
0.10089
0.042659
0.010734
-0.0020942
-0.0028555
0.0053426
0.015853
0.025971
0.035828
0.045789
0.056219
0.067295
0.079037
0.091501
0.10489
0.11965
0.13644
0.15602
0.17911
0.20636
0.23838
0.27579
0.31926
0.36941
0.42668
0.4911
0.56224
0.63919
0.72056
0.80451
0.8888
0.97068
1.0468
1.1129
1.1641
1.1958
1.2048
1.1905
1.1521
1.0902
1.0079
0.90851
0.79497
0.67064
0.54019
0.41021
0.28871
0.18361
0.10086
0.042626
0.010707
-0.0021118
-0.0028617
0.0053554
0.015877
0.025977
0.035794
0.045717
0.056127
0.067199
0.078937
0.091383
0.10473
0.11944
0.13617
0.15569
0.17873
0.20593
0.2379
0.27525
0.31866
0.36878
0.42604
0.49049
0.56171
0.63878
0.7203
0.80446
0.88899
0.97117
1.0476
1.1142
1.1659
1.1978
1.2069
1.1926
1.1541
1.092
1.0094
0.90967
0.79582
0.67105
0.54
0.4093
0.28711
0.18147
0.09849
0.040357
0.0090002
-0.0032218
-0.0032505
0.0053869
0.015942
0.02601
0.03575
0.045599
0.055974
0.067042
0.078773
0.091186
0.10446
0.11905
0.13565
0.15505
0.17798
0.20508
0.23693
0.27416
0.31746
0.3675
0.42474
0.48927
0.56064
0.63795
0.71979
0.80434
0.88937
0.97216
1.0494
1.1168
1.1694
1.2018
1.2111
1.1971
1.1583
1.0956
1.0124
0.91207
0.79758
0.67194
0.53968
0.40753
0.28391
0.17721
0.093803
0.035884
0.0056775
-0.0054095
-0.0040602
0.0054391
0.016051
0.026074
0.035697
0.045434
0.055757
0.066826
0.07855
0.090914
0.10407
0.11849
0.13489
0.1541
0.17686
0.20381
0.23551
0.27255
0.31567
0.36559
0.42282
0.48745
0.55906
0.63673
0.71905
0.80419
0.88993
0.9736
1.0519
1.1207
1.1745
1.2074
1.2161
1.2033
1.1646
1.101
1.0168
0.91559
0.80021
0.6733
0.53923
0.40491
0.27922
0.17106
0.087271
0.030087
0.0017877
-0.0075166
-0.0051187
0.0054636
0.016124
0.026193
0.035858
0.045629
0.055976
0.067057
0.078776
0.091129
0.10426
0.11864
0.135
0.15415
0.17687
0.20378
0.23543
0.27245
0.31555
0.36545
0.42267
0.4873
0.55893
0.63662
0.71896
0.80414
0.88991
0.97363
1.052
1.1208
1.1746
1.2075
1.2162
1.2035
1.1648
1.1012
1.017
0.91585
0.80046
0.67356
0.5395
0.40519
0.2795
0.17133
0.087528
0.030323
0.0019862
-0.0073787
-0.005073
0.0054041
0.015993
0.026093
0.035862
0.045733
0.056124
0.067199
0.078925
0.091328
0.10458
0.11915
0.13572
0.15508
0.17797
0.20504
0.23687
0.27408
0.31736
0.36739
0.42464
0.48916
0.56054
0.63787
0.71973
0.80431
0.88936
0.97218
1.0494
1.1169
1.1695
1.2019
1.2112
1.1972
1.1585
1.0958
1.0125
0.91224
0.79775
0.67213
0.53987
0.40773
0.28411
0.17741
0.093985
0.036049
0.0058127
-0.005319
-0.0040289
0.0053654
0.015907
0.026025
0.035858
0.045793
0.05621
0.067283
0.079017
0.091455
0.10479
0.11948
0.1362
0.15569
0.17871
0.2059
0.23785
0.27519
0.3186
0.36871
0.42597
0.49043
0.56165
0.63873
0.72027
0.80443
0.88898
0.97118
1.0477
1.1142
1.1659
1.1978
1.2069
1.1926
1.1542
1.0921
1.0095
0.90976
0.79591
0.67116
0.54011
0.40942
0.28722
0.18158
0.098597
0.040453
0.0090788
-0.0031696
-0.0032325
0.0053454
0.015861
0.025984
0.035844
0.045806
0.056235
0.067308
0.079046
0.091503
0.10488
0.11964
0.13643
0.156
0.17908
0.20633
0.23835
0.27575
0.31922
0.36938
0.42665
0.49107
0.56222
0.63917
0.72054
0.8045
0.8888
0.97068
1.0468
1.1129
1.1641
1.1958
1.2048
1.1905
1.152
1.0902
1.0079
0.90851
0.79498
0.67066
0.54022
0.41024
0.28875
0.18364
0.10089
0.042657
0.010732
-0.0020958
-0.0028561
0.0053419
0.01585
0.025967
0.035821
0.045778
0.056202
0.067273
0.07901
0.091469
0.10485
0.11961
0.1364
0.15598
0.17908
0.20633
0.23835
0.27576
0.31924
0.3694
0.42667
0.49109
0.56224
0.63919
0.72055
0.80451
0.8888
0.97067
1.0468
1.1129
1.1641
1.1957
1.2048
1.1904
1.152
1.0902
1.0079
0.90847
0.79494
0.67062
0.54017
0.4102
0.28871
0.18361
0.10085
0.042624
0.010705
-0.0021136
-0.0028623
0.0053547
0.015875
0.025973
0.035787
0.045706
0.056111
0.067177
0.07891
0.091351
0.1047
0.1194
0.13613
0.15565
0.17869
0.2059
0.23787
0.27522
0.31864
0.36876
0.42603
0.49048
0.56171
0.63878
0.7203
0.80445
0.88899
0.97116
1.0476
1.1142
1.1659
1.1977
1.2068
1.1925
1.1541
1.092
1.0094
0.90963
0.79578
0.67103
0.53998
0.40929
0.2871
0.18146
0.098487
0.040354
0.0089977
-0.0032234
-0.0032511
0.0053863
0.01594
0.026006
0.035744
0.045588
0.055958
0.067021
0.078746
0.091154
0.10442
0.11902
0.13562
0.15501
0.17794
0.20504
0.2369
0.27414
0.31744
0.36748
0.42473
0.48926
0.56064
0.63794
0.71979
0.80434
0.88936
0.97215
1.0494
1.1168
1.1694
1.2018
1.211
1.197
1.1583
1.0956
1.0123
0.91203
0.79754
0.67192
0.53966
0.40752
0.28391
0.17721
0.0938
0.035882
0.0056751
-0.0054111
-0.0040609
0.0054387
0.01605
0.02607
0.035691
0.045424
0.055742
0.066805
0.078523
0.090882
0.10404
0.11845
0.13485
0.15406
0.17682
0.20378
0.23547
0.27253
0.31565
0.36557
0.42281
0.48744
0.55906
0.63673
0.71905
0.80419
0.88992
0.9736
1.0519
1.1207
1.1745
1.2073
1.216
1.2033
1.1645
1.1009
1.0167
0.91555
0.80017
0.67327
0.5392
0.4049
0.27921
0.17105
0.087268
0.030085
0.0017858
-0.007518
-0.0051192
0.0054798
0.016158
0.02621
0.035836
0.045571
0.055901
0.066979
0.07869
0.09102
0.1041
0.11842
0.1347
0.15378
0.17644
0.20329
0.23488
0.27184
0.31487
0.36472
0.42193
0.48658
0.55828
0.63609
0.7186
0.80398
0.89
0.97403
1.0528
1.1221
1.1764
1.2096
1.2184
1.2056
1.1671
1.1032
1.0187
0.91725
0.80158
0.67427
0.5396
0.40453
0.27804
0.16921
0.085051
0.027925
0.00020331
-0.0085596
-0.0055055
0.0054202
0.016027
0.026111
0.035842
0.045676
0.056049
0.067119
0.078836
0.091216
0.10443
0.11893
0.13542
0.15472
0.17755
0.20457
0.23634
0.27349
0.31671
0.3667
0.42393
0.48849
0.55995
0.63739
0.71942
0.8042
0.8895
0.97263
1.0503
1.1182
1.1713
1.204
1.2134
1.1993
1.1606
1.0977
1.0141
0.91351
0.79873
0.67268
0.53983
0.40694
0.28256
0.17522
0.091453
0.033549
0.0039282
-0.0065214
-0.0044437
0.0053811
0.01594
0.026043
0.035839
0.045737
0.056134
0.067202
0.078926
0.091342
0.10464
0.11926
0.13591
0.15534
0.1783
0.20543
0.23733
0.27461
0.31796
0.36804
0.42529
0.48978
0.56109
0.63829
0.71998
0.80436
0.88915
0.97166
1.0485
1.1155
1.1677
1.1999
1.209
1.1947
1.1562
1.0939
1.011
0.91096
0.79681
0.67163
0.53999
0.40858
0.28566
0.17946
0.096206
0.038133
0.0073377
-0.0042847
-0.003621
0.005361
0.015893
0.026002
0.035826
0.045751
0.05616
0.067226
0.078954
0.091389
0.10473
0.11942
0.13614
0.15564
0.17867
0.20587
0.23783
0.27518
0.3186
0.36872
0.42598
0.49044
0.56167
0.63875
0.72028
0.80444
0.88898
0.97117
1.0476
1.1142
1.1659
1.1978
1.2069
1.1926
1.1541
1.092
1.0094
0.90968
0.79584
0.67109
0.54006
0.40937
0.28718
0.18155
0.098563
0.040422
0.0090518
-0.0031879
-0.0032389
0.0053576
0.015883
0.025985
0.035803
0.045723
0.056127
0.067191
0.078919
0.091354
0.10469
0.11939
0.13612
0.15563
0.17866
0.20587
0.23784
0.27519
0.31861
0.36873
0.426
0.49046
0.56169
0.63876
0.72029
0.80445
0.88898
0.97117
1.0476
1.1142
1.1659
1.1977
1.2068
1.1925
1.154
1.092
1.0094
0.90964
0.7958
0.67105
0.54001
0.40933
0.28714
0.18151
0.098526
0.040388
0.009025
-0.0032057
-0.0032451
0.0053707
0.015909
0.025992
0.035769
0.045651
0.056036
0.067096
0.078819
0.091238
0.10454
0.11918
0.13584
0.15529
0.17828
0.20543
0.23735
0.27464
0.318
0.36809
0.42534
0.48984
0.56114
0.63833
0.72002
0.80438
0.88916
0.97165
1.0485
1.1155
1.1676
1.1998
1.2089
1.1946
1.1561
1.0938
1.0108
0.91083
0.79668
0.6715
0.53986
0.40845
0.28553
0.17933
0.096093
0.038033
0.0072566
-0.0043384
-0.0036395
0.0054029
0.015975
0.026026
0.035726
0.045533
0.055885
0.066942
0.078658
0.091042
0.10427
0.11879
0.13532
0.15464
0.17751
0.20456
0.23637
0.27354
0.31678
0.36678
0.42402
0.48858
0.56003
0.63747
0.71947
0.80423
0.88951
0.97261
1.0502
1.1182
1.1712
1.2039
1.2132
1.1992
1.1604
1.0975
1.0139
0.9133
0.79852
0.67247
0.53961
0.40672
0.28234
0.17501
0.091265
0.033381
0.0037913
-0.0066125
-0.0044753
0.0054554
0.016085
0.02609
0.035672
0.045369
0.05567
0.066729
0.078439
0.090774
0.10388
0.11823
0.13455
0.15368
0.17638
0.20328
0.23492
0.27191
0.31496
0.36484
0.42205
0.48671
0.5584
0.6362
0.71868
0.80403
0.89002
0.974
1.0527
1.1219
1.1763
1.2094
1.2181
1.2053
1.1668
1.1029
1.0184
0.91695
0.80129
0.67397
0.5393
0.40422
0.27774
0.16892
0.084786
0.027686
4.5388e-06
-0.0086973
-0.0055514
0.005517
0.016236
0.026257
0.035803
0.045465
0.055767
0.066847
0.078546
0.090839
0.10383
0.11801
0.13414
0.15308
0.17561
0.20235
0.23383
0.27065
0.31354
0.3633
0.42047
0.48518
0.55704
0.63509
0.71793
0.80372
0.89025
0.9749
1.0545
1.1247
1.1801
1.2141
1.2231
1.2114
1.1718
1.1072
1.022
0.92001
0.80376
0.67563
0.53974
0.4031
0.27498
0.16477
0.079796
0.022782
-0.003667
-0.011395
-0.0065131
0.0054571
0.016105
0.026158
0.035811
0.04557
0.055911
0.06698
0.078685
0.091028
0.10415
0.11852
0.13488
0.15403
0.17674
0.20365
0.23531
0.27233
0.31543
0.36533
0.42254
0.48716
0.55877
0.63646
0.71882
0.80401
0.88982
0.97358
1.052
1.121
1.1751
1.2085
1.2184
1.2044
1.1651
1.1015
1.0173
0.91608
0.80069
0.67379
0.5397
0.40528
0.27932
0.17065
0.086145
0.028271
-0.0002105
-0.0095566
-0.0054078
0.0054159
0.016013
0.026088
0.03581
0.045635
0.055998
0.06706
0.078773
0.091149
0.10436
0.11886
0.13536
0.15466
0.17751
0.20454
0.23632
0.27348
0.31671
0.36671
0.42395
0.4885
0.55997
0.63741
0.71943
0.80421
0.8895
0.97263
1.0503
1.1182
1.1713
1.204
1.2133
1.1993
1.1605
1.0976
1.014
0.91343
0.79866
0.67263
0.53978
0.4069
0.28253
0.17519
0.091424
0.03352
0.0039025
-0.0065394
-0.0044503
0.0053954
0.015967
0.026048
0.035798
0.04565
0.056023
0.067083
0.078799
0.091194
0.10445
0.11902
0.1356
0.15498
0.17789
0.20498
0.23683
0.27406
0.31736
0.36741
0.42466
0.4892
0.56058
0.6379
0.71976
0.80433
0.88936
0.97217
1.0494
1.1169
1.1694
1.2018
1.211
1.197
1.1583
1.0956
1.0124
0.91208
0.79761
0.67201
0.53977
0.40764
0.28404
0.17734
0.093921
0.035988
0.0057598
-0.0053556
-0.0040419
0.005392
0.015956
0.026031
0.035775
0.045622
0.055991
0.067048
0.078764
0.09116
0.10442
0.11899
0.13558
0.15496
0.17788
0.20498
0.23684
0.27407
0.31738
0.36743
0.42468
0.48921
0.5606
0.63792
0.71977
0.80434
0.88937
0.97216
1.0494
1.1168
1.1694
1.2018
1.211
1.197
1.1583
1.0956
1.0123
0.91204
0.79757
0.67196
0.53972
0.4076
0.28399
0.1773
0.093883
0.035954
0.005733
-0.0053733
-0.004048
0.0054057
0.015983
0.026038
0.035741
0.04555
0.055901
0.066956
0.078667
0.091045
0.10426
0.11878
0.1353
0.15462
0.17748
0.20453
0.23633
0.27351
0.31675
0.36675
0.424
0.48856
0.56002
0.63745
0.71947
0.80423
0.88951
0.97262
1.0502
1.1182
1.1712
1.2039
1.2132
1.1991
1.1604
1.0975
1.0139
0.9133
0.79853
0.67249
0.53964
0.40676
0.28239
0.17506
0.091308
0.033418
0.0038214
-0.0065932
-0.0044687
0.0054401
0.016054
0.026075
0.035697
0.045429
0.055749
0.066805
0.078508
0.090854
0.10399
0.11839
0.13477
0.15395
0.1767
0.20364
0.23533
0.27238
0.31549
0.3654
0.42262
0.48724
0.55886
0.63654
0.71888
0.80405
0.88983
0.97357
1.052
1.1209
1.175
1.2084
1.2182
1.2042
1.1649
1.1013
1.017
0.91587
0.80048
0.67357
0.53948
0.40505
0.27909
0.17044
0.085953
0.028102
-0.0003463
-0.0096464
-0.0054394
0.0054932
0.016165
0.026139
0.035642
0.045266
0.055537
0.066598
0.0783
0.090592
0.1036
0.11782
0.13399
0.15298
0.17556
0.20234
0.23386
0.27071
0.31363
0.36341
0.42059
0.48531
0.55715
0.63519
0.71802
0.80378
0.89027
0.97488
1.0544
1.1246
1.18
1.2139
1.2229
1.2112
1.1715
1.1069
1.0217
0.91971
0.80347
0.67533
0.53942
0.40278
0.27466
0.16448
0.079527
0.022545
-0.003863
-0.011532
-0.0065591
0.0055765
0.016363
0.026336
0.035755
0.04531
0.05557
0.06666
0.078372
0.090587
0.10343
0.1174
0.1333
0.15201
0.17435
0.20091
0.2322
0.2688
0.31148
0.36105
0.41815
0.48294
0.55501
0.63343
0.71678
0.80321
0.89051
0.97609
1.0568
1.1285
1.1853
1.2199
1.2285
1.2188
1.1792
1.1136
1.0273
0.9245
0.80742
0.67804
0.54021
0.40106
0.27044
0.15839
0.072646
0.01681
-0.0075729
-0.014152
-0.0077135
0.0055126
0.016223
0.026234
0.035771
0.045423
0.055715
0.066786
0.078487
0.09077
0.10376
0.11794
0.13408
0.15303
0.17557
0.20232
0.23381
0.27064
0.31355
0.36331
0.42049
0.48521
0.55706
0.63511
0.71795
0.80374
0.89026
0.9749
1.0544
1.1247
1.1801
1.2141
1.223
1.2113
1.1717
1.1072
1.0219
0.91993
0.8037
0.67558
0.5397
0.40307
0.27495
0.16475
0.079775
0.02276
-0.003691
-0.011415
-0.0065205
0.005471
0.016131
0.026165
0.035772
0.045488
0.055799
0.066861
0.078564
0.090885
0.10397
0.11829
0.13458
0.15368
0.17635
0.20322
0.23484
0.27182
0.31487
0.36474
0.42196
0.48663
0.55833
0.63613
0.71864
0.80401
0.89002
0.97403
1.0528
1.122
1.1763
1.2095
1.2182
1.2054
1.1669
1.103
1.0185
0.91709
0.80145
0.67416
0.53951
0.40446
0.27798
0.16915
0.084998
0.027871
0.00015141
-0.008599
-0.0055196
0.0054505
0.016085
0.026125
0.035761
0.045504
0.055824
0.066881
0.078586
0.090926
0.10406
0.11845
0.13482
0.154
0.17674
0.20368
0.23537
0.27242
0.31555
0.36548
0.42272
0.48736
0.55899
0.63668
0.71901
0.80418
0.88993
0.97362
1.052
1.1207
1.1745
1.2074
1.2161
1.2033
1.1645
1.101
1.0167
0.91561
0.80026
0.67339
0.53935
0.40507
0.2794
0.17124
0.087439
0.030235
0.0019061
-0.0074372
-0.005093
0.0054472
0.016075
0.026109
0.035739
0.045476
0.055792
0.066846
0.07855
0.090891
0.10402
0.11842
0.1348
0.15398
0.17674
0.20368
0.23538
0.27243
0.31556
0.36549
0.42274
0.48738
0.55901
0.63669
0.71903
0.80418
0.88994
0.97362
1.0519
1.1207
1.1745
1.2073
1.216
1.2033
1.1645
1.1009
1.0167
0.91556
0.80021
0.67334
0.5393
0.40502
0.27935
0.1712
0.087398
0.030201
0.0018797
-0.0074545
-0.0050989
0.005461
0.016101
0.026116
0.035704
0.045404
0.055703
0.066757
0.078457
0.09078
0.10387
0.1182
0.13451
0.15363
0.17633
0.20322
0.23486
0.27184
0.31491
0.36479
0.42201
0.48668
0.55838
0.63618
0.71867
0.80403
0.89003
0.97402
1.0527
1.122
1.1763
1.2094
1.2181
1.2053
1.1668
1.1029
1.0184
0.91696
0.80132
0.67402
0.53937
0.40431
0.27784
0.16902
0.084877
0.027765
6.8826e-05
-0.0086537
-0.0055376
0.005496
0.016173
0.026152
0.035658
0.045283
0.055554
0.066612
0.078309
0.090596
0.1036
0.11781
0.13397
0.15295
0.17553
0.20231
0.23383
0.27068
0.31361
0.36338
0.42057
0.48529
0.55714
0.63519
0.71802
0.80378
0.89028
0.97489
1.0544
1.1246
1.18
1.2139
1.2229
1.2111
1.1715
1.1069
1.0217
0.91972
0.80349
0.67536
0.53946
0.40283
0.27471
0.16453
0.079576
0.022585
-0.0038305
-0.011509
-0.0065519
0.0055533
0.016293
0.026221
0.035598
0.045114
0.055344
0.066415
0.07813
0.090342
0.10321
0.11721
0.13314
0.15191
0.17429
0.2009
0.23223
0.26886
0.31156
0.36116
0.41827
0.48306
0.55513
0.63354
0.71686
0.80326
0.89052
0.97608
1.0568
1.1284
1.1852
1.2197
1.2282
1.2185
1.1789
1.1133
1.027
0.92421
0.80713
0.67774
0.53988
0.40073
0.27011
0.15809
0.072373
0.016574
-0.0077681
-0.014289
-0.0077577
-0.012575
-0.028005
-0.031988
-0.016369
0.036562
0.1281
0.24705
0.38632
0.53459
0.67997
0.81431
0.93449
1.0402
1.1304
1.2005
1.2405
1.2531
1.2486
1.2089
1.1457
1.0686
0.9836
0.89466
0.80459
0.71581
0.63048
0.55045
0.47723
0.41182
0.35465
0.30549
0.26351
0.22759
0.19686
0.17079
0.14903
0.13104
0.11594
0.10265
0.090191
0.078017
0.066109
0.054868
0.044766
0.035784
0.026989
0.017198
0.0059574
-0.009962
-0.019766
-0.019266
-0.0021106
0.05066
0.13741
0.2527
0.38827
0.53301
0.67578
0.80863
0.92793
1.0327
1.1213
1.1893
1.2283
1.2401
1.237
1.2012
1.1411
1.0661
0.98259
0.89482
0.80572
0.71775
0.63307
0.55353
0.48058
0.41523
0.35791
0.30845
0.26609
0.22984
0.19884
0.17252
0.15048
0.13215
0.11669
0.10307
0.090397
0.07815
0.06624
0.055053
0.044943
0.035808
0.026814
0.016953
0.0058439
-0.0095842
-0.018814
-0.01649
0.003854
0.058086
0.14387
0.25794
0.39185
0.53484
0.67615
0.80804
0.9268
1.0311
1.1192
1.1869
1.2266
1.2377
1.2318
1.1967
1.1376
1.0637
0.98099
0.89383
0.80523
0.71769
0.63338
0.55414
0.48144
0.41624
0.35898
0.30947
0.267
0.23064
0.19955
0.17316
0.15102
0.13257
0.11696
0.10323
0.090483
0.078229
0.066366
0.055198
0.045039
0.035783
0.026666
0.016775
0.0057635
-0.009002
-0.017539
-0.014898
0.0058039
0.060491
0.14601
0.2594
0.39236
0.53437
0.67492
0.80632
0.92475
1.0287
1.1164
1.1837
1.2236
1.2354
1.2295
1.1948
1.1362
1.0628
0.98062
0.89382
0.80551
0.71821
0.6341
0.55501
0.4824
0.41722
0.35992
0.31033
0.26776
0.2313
0.20012
0.17365
0.15143
0.13287
0.11716
0.10332
0.090515
0.078235
0.066379
0.055225
0.045056
0.035763
0.026603
0.016703
0.0057318
-0.0090091
-0.017559
-0.014926
0.005765
0.060448
0.14597
0.25936
0.39231
0.53433
0.67487
0.80626
0.9247
1.0287
1.1164
1.1837
1.2236
1.2353
1.2295
1.1947
1.1362
1.0628
0.9806
0.89381
0.80552
0.71823
0.63413
0.55505
0.48244
0.41726
0.35995
0.31036
0.26779
0.23132
0.20013
0.17365
0.15141
0.13284
0.11712
0.10328
0.090467
0.078182
0.066326
0.055176
0.045013
0.035728
0.026577
0.016687
0.0057263
-0.0096058
-0.018875
-0.016588
0.0037247
0.057953
0.14374
0.25781
0.39172
0.5347
0.676
0.80787
0.92663
1.031
1.1191
1.1868
1.2266
1.2376
1.2317
1.1966
1.1376
1.0636
0.98095
0.89382
0.80526
0.71775
0.63347
0.55425
0.48155
0.41635
0.35908
0.30955
0.26708
0.23069
0.19957
0.17315
0.15098
0.13249
0.11686
0.1031
0.090338
0.078073
0.066208
0.055051
0.044909
0.035676
0.026587
0.016726
0.0057471
-0.0099998
-0.019874
-0.019444
-0.0023346
0.050433
0.1372
0.2525
0.38807
0.53278
0.67553
0.80836
0.92766
1.0324
1.1211
1.1892
1.2283
1.24
1.2368
1.2011
1.1409
1.066
0.98252
0.8948
0.80575
0.71784
0.63321
0.55369
0.48076
0.4154
0.35807
0.30859
0.26621
0.22992
0.19887
0.17251
0.15041
0.13202
0.11652
0.10286
0.090161
0.077895
0.065987
0.054813
0.044729
0.035635
0.026685
0.016874
0.0058171
-0.012635
-0.02817
-0.03224
-0.016666
0.036247
0.12779
0.24676
0.38602
0.53428
0.67962
0.81394
0.93412
1.0399
1.1301
1.2003
1.2404
1.253
1.2484
1.2087
1.1455
1.0684
0.9835
0.89463
0.80464
0.71594
0.63066
0.55068
0.47747
0.41206
0.35487
0.30569
0.26366
0.2277
0.19691
0.17077
0.14893
0.13086
0.11571
0.10236
0.089858
0.077665
0.065759
0.054538
0.044476
0.035544
0.026813
0.01709
0.0059209
-0.035503
-0.09616
-0.1249
-0.11161
-0.051357
0.065244
0.20967
0.37998
0.55625
0.71996
0.86272
0.98665
1.0983
1.1995
1.2842
1.343
1.3595
1.3238
1.2589
1.1756
1.083
0.98673
0.88944
0.7926
0.69818
0.6084
0.52527
0.45047
0.38515
0.32962
0.28324
0.24436
0.2111
0.18238
0.15806
0.13834
0.1229
0.11061
0.099811
0.089007
0.077437
0.065201
0.053245
0.043054
0.035232
0.028237
0.019204
0.0069261
-0.033483
-0.090963
-0.11751
-0.10388
-0.044264
0.07192
0.21267
0.37984
0.55357
0.71581
0.85813
0.9821
1.0935
1.1939
1.2774
1.3345
1.3522
1.3186
1.2557
1.1742
1.0825
0.98685
0.89009
0.79375
0.69974
0.61026
0.52735
0.45268
0.38734
0.33166
0.28503
0.24587
0.2124
0.18351
0.15906
0.13917
0.12351
0.11098
0.099959
0.089008
0.077366
0.065132
0.053245
0.04311
0.035216
0.02805
0.018961
0.006818
-0.032334
-0.087484
-0.11275
-0.098728
-0.039467
0.07697
0.21562
0.3809
0.55315
0.71452
0.85659
0.9806
1.0919
1.1919
1.2748
1.3311
1.3482
1.3158
1.2535
1.1728
1.0818
0.98656
0.89006
0.79395
0.70013
0.61081
0.52805
0.45349
0.3882
0.33249
0.28575
0.24646
0.21288
0.18393
0.15944
0.13948
0.12372