/*--------------------------------*- C++ -*----------------------------------*\
| =========                 |                                                 |
| \\      /  F ield         | OpenFOAM: The Open Source CFD Toolbox           |
|  \\    /   O peration     | Version:  4.1                                   |
|   \\  /    A nd           | Web:      www.OpenFOAM.org                      |
|    \\/     M anipulation  |                                                 |
\*---------------------------------------------------------------------------*/
FoamFile
{
    version     2.0;
    format      ascii;
    class       pointVectorField;
    location    "0.0049";
    object      pointDisplacement_Next_Iter2;
}
// * * * * * * * * * * * * * * * * * * * * * * * * * * * * * * * * * * * * * //

dimensions      [0 1 0 0 0 0 0];

internalField   uniform (0 0 0);

boundaryField
{
    inlet
    {
        type            fixedValue;
        value           uniform (0 0 0);
    }
    outlet
    {
        type            fixedValue;
        value           uniform (0 0 0);
    }
    mantle
    {
        type            fixedValue;
        value           nonuniform List<vector> 
1568
(
(-2.4836e-13 3.0057e-12 1.7269e-16)
(-6.8451e-07 8.0125e-06 2.3775e-10)
(-6.9274e-07 7.7312e-06 -1.4801e-06)
(1.2528e-09 2.8033e-08 -1.7074e-09)
(-7.294e-07 7.0623e-06 -2.8931e-06)
(-4.7131e-13 1.7148e-12 -6.6362e-13)
(-7.9076e-07 6.2685e-06 -4.2077e-06)
(-3.5798e-09 4.6464e-09 -1.7061e-08)
(-8.2557e-07 5.3455e-06 -5.3452e-06)
(-4.6282e-15 3.0946e-12 -3.0956e-12)
(-7.9077e-07 4.2072e-06 -6.2667e-06)
(-3.5796e-09 1.7026e-08 -4.6713e-09)
(-7.2941e-07 2.8923e-06 -7.0587e-06)
(-4.7129e-13 6.6476e-13 -1.7137e-12)
(-6.9274e-07 1.4796e-06 -7.726e-06)
(1.2501e-09 1.6992e-09 -2.7971e-08)
(-6.8446e-07 8.8103e-11 -8.0064e-06)
(-2.4835e-13 1.1872e-16 -3.0034e-12)
(-1.3919e-06 1.4774e-05 2.4827e-10)
(-1.3997e-06 1.421e-05 -2.7691e-06)
(-1.4532e-06 1.297e-05 -5.3495e-06)
(-1.5568e-06 1.1441e-05 -7.6691e-06)
(-1.6281e-06 9.7302e-06 -9.73e-06)
(-1.5568e-06 7.6675e-06 -1.1438e-05)
(-1.4532e-06 5.3475e-06 -1.2963e-05)
(-1.3997e-06 2.7678e-06 -1.42e-05)
(-1.3917e-06 -1.8562e-11 -1.4764e-05)
(-2.154e-06 1.7856e-05 3.7993e-10)
(-2.1575e-06 1.7325e-05 -3.4986e-06)
(-2.1902e-06 1.589e-05 -6.6375e-06)
(-2.2616e-06 1.3843e-05 -9.2465e-06)
(-2.3051e-06 1.1571e-05 -1.157e-05)
(-2.2617e-06 9.2442e-06 -1.3838e-05)
(-2.1902e-06 6.6346e-06 -1.5882e-05)
(-2.1575e-06 3.4969e-06 -1.7314e-05)
(-2.1538e-06 1.2877e-10 -1.7844e-05)
(-3.172e-06 1.6748e-05 5.8423e-10)
(-3.1617e-06 1.6333e-05 -3.387e-06)
(-3.1449e-06 1.5005e-05 -6.3477e-06)
(-3.1557e-06 1.2895e-05 -8.595e-06)
(-3.1604e-06 1.0601e-05 -1.06e-05)
(-3.1557e-06 8.5927e-06 -1.289e-05)
(-3.145e-06 6.3446e-06 -1.4996e-05)
(-3.1617e-06 3.3855e-06 -1.6322e-05)
(-3.1718e-06 4.138e-10 -1.6737e-05)
(-4.6274e-06 1.1506e-05 7.1634e-10)
(-4.5994e-06 1.1096e-05 -2.2625e-06)
(-4.5403e-06 1.0012e-05 -4.2004e-06)
(-4.4992e-06 8.5359e-06 -5.6973e-06)
(-4.4825e-06 7.047e-06 -7.0462e-06)
(-4.4993e-06 5.6953e-06 -8.5311e-06)
(-4.5404e-06 4.1979e-06 -1.0003e-05)
(-4.5995e-06 2.2615e-06 -1.1086e-05)
(-4.6273e-06 5.7479e-10 -1.1495e-05)
(-6.4715e-06 1.7297e-06 8.3635e-10)
(-6.4243e-06 1.4073e-06 -2.3369e-07)
(-6.3342e-06 8.9668e-07 -3.4971e-07)
(-6.274e-06 5.2822e-07 -3.6483e-07)
(-6.2528e-06 4.2596e-07 -4.2527e-07)
(-6.2741e-06 3.6333e-07 -5.2402e-07)
(-6.3344e-06 3.4789e-07 -8.8897e-07)
(-6.4245e-06 2.332e-07 -1.3972e-06)
(-6.4717e-06 6.9144e-10 -1.7189e-06)
(-8.5036e-06 -1.2456e-05 8.7492e-10)
(-8.4203e-06 -1.2353e-05 2.4942e-06)
(-8.298e-06 -1.1881e-05 4.947e-06)
(-8.272e-06 -1.0857e-05 7.2549e-06)
(-8.2915e-06 -9.2672e-06 9.2679e-06)
(-8.2721e-06 -7.2559e-06 1.086e-05)
(-8.2982e-06 -4.9483e-06 1.1887e-05)
(-8.4207e-06 -2.4943e-06 1.2362e-05)
(-8.5041e-06 6.503e-10 1.2466e-05)
(-1.0438e-05 -2.8945e-05 7.6647e-10)
(-1.0324e-05 -2.8348e-05 5.594e-06)
(-1.0185e-05 -2.6709e-05 1.1052e-05)
(-1.0196e-05 -2.4135e-05 1.6165e-05)
(-1.0257e-05 -2.0621e-05 2.0621e-05)
(-1.0196e-05 -1.6165e-05 2.4138e-05)
(-1.0186e-05 -1.1053e-05 2.6714e-05)
(-1.0324e-05 -5.5939e-06 2.8355e-05)
(-1.0438e-05 5.5852e-10 2.8953e-05)
(-1.2141e-05 -4.5336e-05 7.5169e-10)
(-1.2068e-05 -4.4334e-05 8.7301e-06)
(-1.1967e-05 -4.1603e-05 1.7199e-05)
(-1.1955e-05 -3.7482e-05 2.5097e-05)
(-1.1981e-05 -3.198e-05 3.1981e-05)
(-1.1955e-05 -2.5096e-05 3.7484e-05)
(-1.1967e-05 -1.7199e-05 4.1605e-05)
(-1.2068e-05 -8.7297e-06 4.4337e-05)
(-1.2142e-05 1.6177e-10 4.534e-05)
(-1.4047e-05 -6.0043e-05 4.2341e-10)
(-1.4015e-05 -5.8659e-05 1.1567e-05)
(-1.3945e-05 -5.4984e-05 2.2761e-05)
(-1.3924e-05 -4.9473e-05 3.3139e-05)
(-1.3909e-05 -4.221e-05 4.2211e-05)
(-1.3924e-05 -3.3137e-05 4.9472e-05)
(-1.3945e-05 -2.276e-05 5.4983e-05)
(-1.4015e-05 -1.1567e-05 5.8658e-05)
(-1.4047e-05 9.2401e-11 6.0044e-05)
(-1.6682e-05 -7.2288e-05 -2.479e-11)
(-1.6643e-05 -7.0723e-05 1.402e-05)
(-1.6583e-05 -6.634e-05 2.75e-05)
(-1.658e-05 -5.9608e-05 3.9908e-05)
(-1.6593e-05 -5.0741e-05 5.0742e-05)
(-1.658e-05 -3.9906e-05 5.9606e-05)
(-1.6583e-05 -2.7497e-05 6.6335e-05)
(-1.6642e-05 -1.4019e-05 7.0717e-05)
(-1.6682e-05 2.8801e-10 7.2283e-05)
(-2.0277e-05 -8.2871e-05 -8.0293e-11)
(-2.0228e-05 -8.116e-05 1.6147e-05)
(-2.0161e-05 -7.6185e-05 3.1611e-05)
(-2.0192e-05 -6.8392e-05 4.5756e-05)
(-2.0229e-05 -5.8118e-05 5.8118e-05)
(-2.0192e-05 -4.5753e-05 6.8388e-05)
(-2.0161e-05 -3.1607e-05 7.6178e-05)
(-2.0228e-05 -1.6145e-05 8.1151e-05)
(-2.0277e-05 8.1806e-11 8.2863e-05)
(-2.4749e-05 -9.2671e-05 -3.2759e-10)
(-2.4694e-05 -9.0769e-05 1.8055e-05)
(-2.4633e-05 -8.524e-05 3.5328e-05)
(-2.4662e-05 -7.6497e-05 5.1135e-05)
(-2.4704e-05 -6.4985e-05 6.4985e-05)
(-2.4662e-05 -5.1133e-05 7.6493e-05)
(-2.4633e-05 -3.5325e-05 8.5232e-05)
(-2.4694e-05 -1.8054e-05 9.076e-05)
(-2.4749e-05 4.0809e-10 9.2662e-05)
(-2.9629e-05 -0.00010154 -5.3718e-11)
(-2.9569e-05 -9.9449e-05 1.9765e-05)
(-2.9508e-05 -9.3386e-05 3.8672e-05)
(-2.9536e-05 -8.3811e-05 5.6006e-05)
(-2.9579e-05 -7.1197e-05 7.1197e-05)
(-2.9536e-05 -5.6004e-05 8.3808e-05)
(-2.9508e-05 -3.8671e-05 9.338e-05)
(-2.9569e-05 -1.9764e-05 9.9442e-05)
(-2.9629e-05 3.6451e-12 0.00010153)
(-3.4357e-05 -0.00010874 4.2104e-10)
(-3.4312e-05 -0.00010649 2.1165e-05)
(-3.4268e-05 -9.9983e-05 4.143e-05)
(-3.4295e-05 -8.9724e-05 5.9983e-05)
(-3.4331e-05 -7.6236e-05 7.6237e-05)
(-3.4295e-05 -5.9983e-05 8.9722e-05)
(-3.4268e-05 -4.1429e-05 9.9979e-05)
(-3.4312e-05 -2.1165e-05 0.00010648)
(-3.4356e-05 -7.2169e-10 0.00010873)
(-3.8688e-05 -0.00011331 -3.5408e-10)
(-3.8663e-05 -0.00011094 2.2053e-05)
(-3.8651e-05 -0.00010414 4.3186e-05)
(-3.8679e-05 -9.3477e-05 6.2522e-05)
(-3.8709e-05 -7.9453e-05 7.9452e-05)
(-3.8679e-05 -6.2522e-05 9.3476e-05)
(-3.865e-05 -4.3186e-05 0.00010414)
(-3.8662e-05 -2.2053e-05 0.00011093)
(-3.8687e-05 -5.9667e-11 0.00011331)
(-4.2625e-05 -0.00011435 -2.1495e-10)
(-4.263e-05 -0.00011192 2.2203e-05)
(-4.2655e-05 -0.00010505 4.3529e-05)
(-4.2685e-05 -9.4363e-05 6.3132e-05)
(-4.2703e-05 -8.0275e-05 8.0274e-05)
(-4.2684e-05 -6.3133e-05 9.4361e-05)
(-4.2654e-05 -4.353e-05 0.00010505)
(-4.2629e-05 -2.2203e-05 0.00011192)
(-4.2623e-05 -4.2609e-10 0.00011434)
(-4.6448e-05 -0.0001115 -5.3097e-10)
(-4.649e-05 -0.00010909 2.1601e-05)
(-4.6543e-05 -0.0001024 4.2401e-05)
(-4.6571e-05 -9.2056e-05 6.1597e-05)
(-4.6563e-05 -7.839e-05 7.8388e-05)
(-4.6571e-05 -6.1597e-05 9.2053e-05)
(-4.6542e-05 -4.2401e-05 0.00010239)
(-4.6489e-05 -2.1601e-05 0.00010908)
(-4.6447e-05 -1.8027e-10 0.00011149)
(-5.0434e-05 -0.00010499 -9.0068e-10)
(-5.0475e-05 -0.0001028 2.0375e-05)
(-5.0537e-05 -9.658e-05 3.9997e-05)
(-5.0545e-05 -8.6854e-05 5.8104e-05)
(-5.0534e-05 -7.3929e-05 7.3927e-05)
(-5.0545e-05 -5.8105e-05 8.6851e-05)
(-5.0537e-05 -3.9997e-05 9.6575e-05)
(-5.0475e-05 -2.0375e-05 0.0001028)
(-5.0433e-05 1.1927e-10 0.00010498)
(-5.4524e-05 -9.6497e-05 -8.7079e-10)
(-5.4569e-05 -9.456e-05 1.8772e-05)
(-5.4631e-05 -8.8906e-05 3.6841e-05)
(-5.4621e-05 -7.9979e-05 5.35e-05)
(-5.4596e-05 -6.805e-05 6.8048e-05)
(-5.4621e-05 -5.3501e-05 7.9976e-05)
(-5.463e-05 -3.6841e-05 8.8902e-05)
(-5.4569e-05 -1.8772e-05 9.4553e-05)
(-5.4524e-05 -6.2018e-12 9.6489e-05)
(-5.8532e-05 -8.76e-05 -7.8905e-10)
(-5.8547e-05 -8.585e-05 1.7049e-05)
(-5.858e-05 -8.0765e-05 3.3469e-05)
(-5.8593e-05 -7.2675e-05 4.8614e-05)
(-5.8596e-05 -6.1851e-05 6.1849e-05)
(-5.8593e-05 -4.8615e-05 7.2673e-05)
(-5.858e-05 -3.3469e-05 8.0761e-05)
(-5.8547e-05 -1.7049e-05 8.5845e-05)
(-5.8532e-05 -6.2522e-11 8.7594e-05)
(-6.2122e-05 -7.8824e-05 -8.3106e-10)
(-6.2119e-05 -7.7235e-05 1.5319e-05)
(-6.2129e-05 -7.2664e-05 3.0102e-05)
(-6.2164e-05 -6.5425e-05 4.3772e-05)
(-6.2184e-05 -5.5715e-05 5.5713e-05)
(-6.2164e-05 -4.3773e-05 6.5423e-05)
(-6.2129e-05 -3.0102e-05 7.266e-05)
(-6.2119e-05 -1.5319e-05 7.7231e-05)
(-6.2122e-05 5.1269e-11 7.882e-05)
(-6.504e-05 -7.0179e-05 -7.9576e-10)
(-6.505e-05 -6.8754e-05 1.3614e-05)
(-6.5074e-05 -6.4682e-05 2.6783e-05)
(-6.5083e-05 -5.8281e-05 3.9003e-05)
(-6.5086e-05 -4.9665e-05 4.9664e-05)
(-6.5083e-05 -3.9003e-05 5.8278e-05)
(-6.5074e-05 -2.6783e-05 6.4678e-05)
(-6.505e-05 -1.3614e-05 6.8749e-05)
(-6.504e-05 4.9652e-11 7.0175e-05)
(-6.7286e-05 -6.1702e-05 -6.9336e-10)
(-6.7322e-05 -6.0416e-05 1.1941e-05)
(-6.7366e-05 -5.6821e-05 2.3523e-05)
(-6.7344e-05 -5.1251e-05 3.4318e-05)
(-6.7317e-05 -4.3729e-05 4.3729e-05)
(-6.7344e-05 -3.4318e-05 5.1249e-05)
(-6.7366e-05 -2.3522e-05 5.6817e-05)
(-6.7322e-05 -1.1942e-05 6.0411e-05)
(-6.7286e-05 -2.6412e-12 6.1697e-05)
(-6.8969e-05 -5.3406e-05 -6.3106e-11)
(-6.8988e-05 -5.2332e-05 1.0357e-05)
(-6.9015e-05 -4.9271e-05 2.0405e-05)
(-6.9006e-05 -4.4443e-05 2.9755e-05)
(-6.8995e-05 -3.7903e-05 3.7902e-05)
(-6.9006e-05 -2.9755e-05 4.4441e-05)
(-6.9015e-05 -2.0405e-05 4.9266e-05)
(-6.8988e-05 -1.0357e-05 5.2326e-05)
(-6.8969e-05 -4.9212e-10 5.34e-05)
(-7.0121e-05 -4.5562e-05 -4.9217e-10)
(-7.0131e-05 -4.4678e-05 8.8558e-06)
(-7.0145e-05 -4.211e-05 1.7453e-05)
(-7.0149e-05 -3.7995e-05 2.5427e-05)
(-7.0146e-05 -3.2389e-05 3.2388e-05)
(-7.015e-05 -2.5427e-05 3.7992e-05)
(-7.0145e-05 -1.7452e-05 4.2106e-05)
(-7.0132e-05 -8.8554e-06 4.4672e-05)
(-7.0121e-05 6.7765e-11 4.5556e-05)
(-7.0774e-05 -3.84e-05 -4.0256e-10)
(-7.0785e-05 -3.7655e-05 7.4562e-06)
(-7.0801e-05 -3.5499e-05 1.4696e-05)
(-7.0795e-05 -3.2062e-05 2.1455e-05)
(-7.0789e-05 -2.7348e-05 2.7347e-05)
(-7.0795e-05 -2.1454e-05 3.2059e-05)
(-7.0802e-05 -1.4695e-05 3.5494e-05)
(-7.0785e-05 -7.4555e-06 3.7649e-05)
(-7.0774e-05 5.1808e-11 3.8394e-05)
(-7.0946e-05 -3.2006e-05 -2.6394e-10)
(-7.0967e-05 -3.136e-05 6.1861e-06)
(-7.0991e-05 -2.9551e-05 1.2222e-05)
(-7.0968e-05 -2.6728e-05 1.79e-05)
(-7.0948e-05 -2.2843e-05 2.2843e-05)
(-7.0969e-05 -1.7899e-05 2.6726e-05)
(-7.0991e-05 -1.222e-05 2.9547e-05)
(-7.0967e-05 -6.1852e-06 3.1353e-05)
(-7.0947e-05 1.0565e-10 3.1999e-05)
(-7.0666e-05 -2.6407e-05 -1.3789e-10)
(-7.0671e-05 -2.59e-05 5.1232e-06)
(-7.0678e-05 -2.4443e-05 1.0118e-05)
(-7.0666e-05 -2.2107e-05 1.4799e-05)
(-7.0658e-05 -1.8876e-05 1.8876e-05)
(-7.0666e-05 -1.4798e-05 2.2105e-05)
(-7.0679e-05 -1.0117e-05 2.4439e-05)
(-7.0672e-05 -5.1221e-06 2.5894e-05)
(-7.0666e-05 1.445e-10 2.64e-05)
(-6.9926e-05 -2.1691e-05 1.5838e-11)
(-6.9925e-05 -2.1303e-05 4.2274e-06)
(-6.9918e-05 -2.0123e-05 8.3384e-06)
(-6.9916e-05 -1.8213e-05 1.2185e-05)
(-6.9913e-05 -1.5528e-05 1.5528e-05)
(-6.9916e-05 -1.2184e-05 1.8212e-05)
(-6.9918e-05 -8.3368e-06 2.0119e-05)
(-6.9925e-05 -4.2262e-06 2.1298e-05)
(-6.9927e-05 1.9552e-10 2.1684e-05)
(-6.8738e-05 -1.7882e-05 -7.7087e-10)
(-6.8735e-05 -1.7545e-05 3.4738e-06)
(-6.8732e-05 -1.657e-05 6.8609e-06)
(-6.8725e-05 -1.5002e-05 1.0042e-05)
(-6.8724e-05 -1.2813e-05 1.2814e-05)
(-6.8725e-05 -1.0041e-05 1.5001e-05)
(-6.8732e-05 -6.8593e-06 1.6567e-05)
(-6.8735e-05 -3.4726e-06 1.7541e-05)
(-6.8739e-05 1.1723e-09 1.7877e-05)
(-6.7124e-05 -1.4683e-05 2.4427e-10)
(-6.7127e-05 -1.4373e-05 2.8234e-06)
(-6.7132e-05 -1.3549e-05 5.5997e-06)
(-6.7117e-05 -1.2288e-05 8.2389e-06)
(-6.711e-05 -1.0532e-05 1.0532e-05)
(-6.7118e-05 -8.2377e-06 1.2287e-05)
(-6.7132e-05 -5.5982e-06 1.3547e-05)
(-6.7128e-05 -2.8222e-06 1.437e-05)
(-6.7124e-05 3.0263e-10 1.4678e-05)
(-6.5127e-05 -1.1834e-05 3.5141e-10)
(-6.5125e-05 -1.16e-05 2.2849e-06)
(-6.5122e-05 -1.0949e-05 4.5291e-06)
(-6.5114e-05 -9.926e-06 6.652e-06)
(-6.5112e-05 -8.4959e-06 8.4964e-06)
(-6.5114e-05 -6.6509e-06 9.9256e-06)
(-6.5122e-05 -4.5278e-06 1.0948e-05)
(-6.5125e-05 -2.2837e-06 1.1597e-05)
(-6.5127e-05 3.0115e-10 1.1831e-05)
(-6.2823e-05 -9.34e-06 3.7975e-10)
(-6.2822e-05 -9.1725e-06 1.8189e-06)
(-6.2815e-05 -8.6722e-06 3.594e-06)
(-6.2811e-05 -7.8609e-06 5.2631e-06)
(-6.2807e-05 -6.7137e-06 6.7143e-06)
(-6.2811e-05 -5.262e-06 7.861e-06)
(-6.2815e-05 -3.5928e-06 8.6716e-06)
(-6.2822e-05 -1.8179e-06 9.1712e-06)
(-6.2823e-05 3.6039e-10 9.3383e-06)
(-6.0284e-05 -7.296e-06 5.146e-10)
(-6.0278e-05 -7.1687e-06 1.4257e-06)
(-6.0273e-05 -6.7853e-06 2.8117e-06)
(-6.0268e-05 -6.1494e-06 4.1126e-06)
(-6.027e-05 -5.2484e-06 5.2493e-06)
(-6.0268e-05 -4.1116e-06 6.1497e-06)
(-6.0273e-05 -2.8106e-06 6.7852e-06)
(-6.0278e-05 -1.4247e-06 7.168e-06)
(-6.0284e-05 3.315e-10 7.2951e-06)
(-5.75e-05 -5.6488e-06 4.5096e-10)
(-5.7497e-05 -5.5445e-06 1.0962e-06)
(-5.7496e-05 -5.2435e-06 2.1684e-06)
(-5.7488e-05 -4.7542e-06 3.1819e-06)
(-5.7488e-05 -4.0645e-06 4.0653e-06)
(-5.7489e-05 -3.1809e-06 4.7546e-06)
(-5.7496e-05 -2.1674e-06 5.2435e-06)
(-5.7497e-05 -1.0951e-06 5.5439e-06)
(-5.75e-05 4.682e-10 5.648e-06)
(-5.445e-05 -4.3604e-06 3.3464e-10)
(-5.4441e-05 -4.2779e-06 8.4714e-07)
(-5.4432e-05 -4.0435e-06 1.6726e-06)
(-5.4431e-05 -3.6658e-06 2.4516e-06)
(-5.4436e-05 -3.1328e-06 3.1334e-06)
(-5.4431e-05 -2.4505e-06 3.6661e-06)
(-5.4432e-05 -1.6714e-06 4.0431e-06)
(-5.4441e-05 -8.4601e-07 4.2768e-06)
(-5.445e-05 5.6395e-10 4.359e-06)
(-5.1122e-05 -3.2618e-06 4.102e-10)
(-5.1116e-05 -3.1946e-06 6.3577e-07)
(-5.11e-05 -3.0105e-06 1.2493e-06)
(-5.1109e-05 -2.7378e-06 1.8278e-06)
(-5.1107e-05 -2.3371e-06 2.3378e-06)
(-5.1109e-05 -1.8265e-06 2.7377e-06)
(-5.11e-05 -1.2479e-06 3.0095e-06)
(-5.1116e-05 -6.345e-07 3.1927e-06)
(-5.1122e-05 4.2379e-10 3.2595e-06)
(-4.7497e-05 -2.1505e-06 1.0321e-09)
(-4.7498e-05 -2.0995e-06 3.9828e-07)
(-4.75e-05 -1.9588e-06 8.1211e-07)
(-4.7492e-05 -1.7773e-06 1.2119e-06)
(-4.7487e-05 -1.5346e-06 1.5344e-06)
(-4.7492e-05 -1.2104e-06 1.7769e-06)
(-4.75e-05 -8.1042e-07 1.9571e-06)
(-4.7498e-05 -3.9687e-07 2.0968e-06)
(-4.7497e-05 -2.7037e-10 2.1472e-06)
(-4.3681e-05 -9.5397e-07 3.5709e-10)
(-4.3682e-05 -8.852e-07 1.2512e-07)
(-4.3678e-05 -7.5593e-07 3.1367e-07)
(-4.3679e-05 -7.1645e-07 5.3966e-07)
(-4.3677e-05 -6.7636e-07 6.7696e-07)
(-4.3679e-05 -5.3811e-07 7.1566e-07)
(-4.3678e-05 -3.1181e-07 7.5363e-07)
(-4.3682e-05 -1.2363e-07 8.8166e-07)
(-4.3681e-05 3.3684e-10 9.4976e-07)
(-3.9762e-05 4.4863e-07 3.1724e-10)
(-3.971e-05 6.355e-07 -2.4057e-07)
(-3.9659e-05 8.066e-07 -3.3342e-07)
(-3.971e-05 6.199e-07 -2.784e-07)
(-3.9762e-05 3.1781e-07 -3.1727e-07)
(-3.971e-05 2.7993e-07 -6.2085e-07)
(-3.9659e-05 3.3527e-07 -8.0918e-07)
(-3.971e-05 2.4204e-07 -6.3945e-07)
(-3.9762e-05 3.221e-10 -4.5333e-07)
(-3.5617e-05 2.5295e-06 2.6784e-10)
(-3.5509e-05 2.8016e-06 -6.7808e-07)
(-3.5422e-05 2.8985e-06 -1.1994e-06)
(-3.551e-05 2.4605e-06 -1.4993e-06)
(-3.5618e-05 1.7875e-06 -1.7871e-06)
(-3.551e-05 1.5007e-06 -2.4615e-06)
(-3.5422e-05 1.2011e-06 -2.9011e-06)
(-3.5509e-05 6.7943e-07 -2.8056e-06)
(-3.5617e-05 2.9756e-10 -2.5342e-06)
(-3.139e-05 4.7941e-06 2.1664e-10)
(-3.1372e-05 4.7018e-06 -9.6681e-07)
(-3.1341e-05 4.4644e-06 -1.8472e-06)
(-3.1371e-05 4.0078e-06 -2.638e-06)
(-3.1389e-05 3.3881e-06 -3.3877e-06)
(-3.1371e-05 2.6392e-06 -4.0087e-06)
(-3.1341e-05 1.8487e-06 -4.4667e-06)
(-3.1372e-05 9.6797e-07 -4.7054e-06)
(-3.139e-05 2.3342e-10 -4.7983e-06)
(-2.8096e-05 3.524e-06 1.645e-10)
(-2.8147e-05 3.1942e-06 -6.366e-07)
(-2.812e-05 2.9578e-06 -1.2242e-06)
(-2.8146e-05 2.7088e-06 -1.8069e-06)
(-2.8094e-05 2.4911e-06 -2.4908e-06)
(-2.8146e-05 1.8078e-06 -2.7095e-06)
(-2.812e-05 1.2254e-06 -2.9596e-06)
(-2.8147e-05 6.3753e-07 -3.1971e-06)
(-2.8096e-05 1.6626e-10 -3.5275e-06)
(-2.5725e-05 -3.0098e-06 1.1509e-10)
(-2.555e-05 -2.6558e-06 3.3671e-07)
(-2.5385e-05 -2.1565e-06 8.9303e-07)
(-2.5549e-05 -2.1146e-06 1.6386e-06)
(-2.5723e-05 -2.1261e-06 2.1263e-06)
(-2.5549e-05 -1.6379e-06 2.114e-06)
(-2.5385e-05 -8.9216e-07 2.1551e-06)
(-2.555e-05 -3.3603e-07 2.6536e-06)
(-2.5725e-05 1.2786e-10 3.0073e-06)
(-2.1245e-05 -8.492e-06 7.4525e-11)
(-2.0849e-05 -7.4621e-06 1.1246e-06)
(-2.0545e-05 -6.2854e-06 2.6025e-06)
(-2.0849e-05 -6.0694e-06 4.4781e-06)
(-2.1244e-05 -6.0007e-06 6.0008e-06)
(-2.0849e-05 -4.4777e-06 6.0691e-06)
(-2.0545e-05 -2.602e-06 6.2845e-06)
(-2.0849e-05 -1.1242e-06 7.4607e-06)
(-2.1245e-05 8.9622e-11 8.4903e-06)
(-1.2109e-05 -6.604e-06 4.7738e-11)
(-1.1935e-05 -6.0692e-06 9.6662e-07)
(-1.1763e-05 -5.2721e-06 2.183e-06)
(-1.1934e-05 -4.9736e-06 3.6058e-06)
(-1.2109e-05 -4.6671e-06 4.6671e-06)
(-1.1934e-05 -3.6056e-06 4.9734e-06)
(-1.1763e-05 -2.1828e-06 5.2716e-06)
(-1.1935e-05 -9.6644e-07 6.0686e-06)
(-1.2109e-05 3.0991e-11 6.6032e-06)
(-4.8355e-12 -2.6902e-12 2.4854e-17)
(-1.962e-08 -5.1808e-08 -4.063e-08)
(-5.7668e-12 -5.2052e-12 1.9771e-12)
(-1.9617e-08 -7.8052e-09 6.5315e-08)
(-3.4172e-12 1.1963e-12 -1.1959e-12)
(-1.9618e-08 -6.5311e-08 7.8078e-09)
(-5.7668e-12 -1.9774e-12 5.2053e-12)
(-1.9619e-08 4.0633e-08 5.1803e-08)
(-4.8355e-12 4.2081e-18 2.6899e-12)
(-6.9275e-07 -1.4793e-06 -7.7257e-06)
(1.2535e-09 -1.7173e-09 -2.8011e-08)
(-7.2946e-07 -2.8914e-06 -7.0578e-06)
(-4.7143e-13 -6.6349e-13 -1.7125e-12)
(-7.9091e-07 -4.2055e-06 -6.2649e-06)
(-3.5824e-09 -1.7016e-08 -4.6426e-09)
(-8.2579e-07 -5.343e-06 -5.3428e-06)
(-4.5346e-15 -3.0948e-12 -3.0953e-12)
(-7.9102e-07 -6.2653e-06 -4.2054e-06)
(-3.5807e-09 -4.6375e-09 -1.7007e-08)
(-7.2969e-07 -7.0585e-06 -2.8915e-06)
(-4.7151e-13 -1.7131e-12 -6.6306e-13)
(-6.9308e-07 -7.7269e-06 -1.4793e-06)
(1.248e-09 -2.7998e-08 -1.7307e-09)
(-6.8484e-07 -8.0083e-06 2.7412e-10)
(-2.485e-13 -3.0041e-12 2.3959e-16)
(-1.3996e-06 -2.7676e-06 -1.4201e-05)
(-1.4532e-06 -5.3466e-06 -1.2962e-05)
(-1.5569e-06 -7.6654e-06 -1.1436e-05)
(-1.6283e-06 -9.7265e-06 -9.7263e-06)
(-1.5571e-06 -1.1436e-05 -7.6655e-06)
(-1.4536e-06 -1.2964e-05 -5.3469e-06)
(-1.4002e-06 -1.4203e-05 -2.7679e-06)
(-1.3923e-06 -1.4768e-05 2.0574e-10)
(-2.1573e-06 -3.4968e-06 -1.7315e-05)
(-2.19e-06 -6.6346e-06 -1.5883e-05)
(-2.2615e-06 -9.2435e-06 -1.3838e-05)
(-2.305e-06 -1.1568e-05 -1.1568e-05)
(-2.2618e-06 -1.3838e-05 -9.2437e-06)
(-2.1904e-06 -1.5884e-05 -6.6351e-06)
(-2.1578e-06 -1.7319e-05 -3.4973e-06)
(-2.1543e-06 -1.785e-05 4.0584e-10)
(-3.1614e-06 -3.3854e-06 -1.6325e-05)
(-3.1446e-06 -6.3457e-06 -1.5e-05)
(-3.1553e-06 -8.5939e-06 -1.2892e-05)
(-3.1601e-06 -1.0601e-05 -1.0601e-05)
(-3.1556e-06 -1.2892e-05 -8.5941e-06)
(-3.1451e-06 -1.5001e-05 -6.3463e-06)
(-3.1619e-06 -1.6328e-05 -3.386e-06)
(-3.1722e-06 -1.6744e-05 6.6349e-10)
(-4.5992e-06 -2.2613e-06 -1.1089e-05)
(-4.54e-06 -4.1996e-06 -1.0009e-05)
(-4.4989e-06 -5.6982e-06 -8.5362e-06)
(-4.4822e-06 -7.0491e-06 -7.0493e-06)
(-4.4992e-06 -8.5358e-06 -5.6983e-06)
(-4.5406e-06 -1.0009e-05 -4.2e-06)
(-4.6e-06 -1.1092e-05 -2.2618e-06)
(-4.6282e-06 -1.1501e-05 7.0937e-10)
(-6.4244e-06 -2.3303e-07 -1.4016e-06)
(-6.3342e-06 -3.5018e-07 -8.9607e-07)
(-6.2739e-06 -3.674e-07 -5.3105e-07)
(-6.2527e-06 -4.2983e-07 -4.3022e-07)
(-6.2742e-06 -5.2975e-07 -3.6724e-07)
(-6.3348e-06 -8.9452e-07 -3.5014e-07)
(-6.4253e-06 -1.4014e-06 -2.3336e-07)
(-6.4729e-06 -1.7212e-06 6.2919e-10)
(-8.4207e-06 2.4943e-06 1.2357e-05)
(-8.2983e-06 4.9455e-06 1.1879e-05)
(-8.2723e-06 7.2509e-06 1.0852e-05)
(-8.2918e-06 9.2621e-06 9.2616e-06)
(-8.2724e-06 1.0854e-05 7.2515e-06)
(-8.2986e-06 1.1883e-05 4.9462e-06)
(-8.4213e-06 1.2361e-05 2.4944e-06)
(-8.5049e-06 1.2468e-05 4.5376e-10)
(-1.0324e-05 5.5938e-06 2.835e-05)
(-1.0186e-05 1.105e-05 2.6705e-05)
(-1.0197e-05 1.616e-05 2.4129e-05)
(-1.0258e-05 2.0616e-05 2.0615e-05)
(-1.0197e-05 2.4132e-05 1.6161e-05)
(-1.0186e-05 2.6711e-05 1.1052e-05)
(-1.0324e-05 2.8356e-05 5.5943e-06)
(-1.0438e-05 2.8959e-05 2.792e-10)
(-1.2069e-05 8.7297e-06 4.4334e-05)
(-1.1968e-05 1.7198e-05 4.1599e-05)
(-1.1956e-05 2.5094e-05 3.7478e-05)
(-1.1982e-05 3.1977e-05 3.1976e-05)
(-1.1956e-05 3.7481e-05 2.5095e-05)
(-1.1967e-05 4.1605e-05 1.7199e-05)
(-1.2068e-05 4.434e-05 8.7305e-06)
(-1.2142e-05 4.5347e-05 2.7011e-10)
(-1.4015e-05 1.1567e-05 5.8656e-05)
(-1.3945e-05 2.276e-05 5.498e-05)
(-1.3925e-05 3.3137e-05 4.947e-05)
(-1.391e-05 4.221e-05 4.2209e-05)
(-1.3925e-05 4.9472e-05 3.3137e-05)
(-1.3945e-05 5.4985e-05 2.2761e-05)
(-1.4015e-05 5.8663e-05 1.1568e-05)
(-1.4047e-05 6.0051e-05 -7.4134e-12)
(-1.6642e-05 1.4019e-05 7.0717e-05)
(-1.6583e-05 2.7498e-05 6.6335e-05)
(-1.658e-05 3.9907e-05 5.9605e-05)
(-1.6593e-05 5.0742e-05 5.074e-05)
(-1.658e-05 5.9607e-05 3.9907e-05)
(-1.6583e-05 6.634e-05 2.7499e-05)
(-1.6643e-05 7.0725e-05 1.402e-05)
(-1.6683e-05 7.2294e-05 -2.7258e-11)
(-2.0228e-05 1.6146e-05 8.1151e-05)
(-2.0161e-05 3.1608e-05 7.6179e-05)
(-2.0192e-05 4.5754e-05 6.8388e-05)
(-2.0228e-05 5.8118e-05 5.8117e-05)
(-2.0192e-05 6.839e-05 4.5754e-05)
(-2.0161e-05 7.6183e-05 3.1609e-05)
(-2.0228e-05 8.1161e-05 1.6146e-05)
(-2.0277e-05 8.2876e-05 -2.3164e-10)
(-2.4694e-05 1.8054e-05 9.076e-05)
(-2.4633e-05 3.5326e-05 8.5232e-05)
(-2.4662e-05 5.1132e-05 7.6492e-05)
(-2.4704e-05 6.4983e-05 6.4983e-05)
(-2.4662e-05 7.6494e-05 5.1132e-05)
(-2.4633e-05 8.5236e-05 3.5326e-05)
(-2.4694e-05 9.0769e-05 1.8054e-05)
(-2.4749e-05 9.2673e-05 -3.729e-10)
(-2.9569e-05 1.9763e-05 9.9441e-05)
(-2.9508e-05 3.867e-05 9.3379e-05)
(-2.9536e-05 5.6002e-05 8.3806e-05)
(-2.9578e-05 7.1194e-05 7.1194e-05)
(-2.9536e-05 8.3807e-05 5.6002e-05)
(-2.9508e-05 9.3381e-05 3.867e-05)
(-2.9569e-05 9.9446e-05 1.9764e-05)
(-2.9628e-05 0.00010154 9.6997e-11)
(-3.4312e-05 2.1164e-05 0.00010648)
(-3.4268e-05 4.1428e-05 9.9976e-05)
(-3.4295e-05 5.998e-05 8.9719e-05)
(-3.4332e-05 7.6234e-05 7.6233e-05)
(-3.4295e-05 8.972e-05 5.998e-05)
(-3.4268e-05 9.9977e-05 4.1428e-05)
(-3.4312e-05 0.00010648 2.1164e-05)
(-3.4357e-05 0.00010873 4.1727e-10)
(-3.8662e-05 2.2052e-05 0.00011093)
(-3.865e-05 4.3184e-05 0.00010414)
(-3.8679e-05 6.252e-05 9.3473e-05)
(-3.871e-05 7.945e-05 7.945e-05)
(-3.8679e-05 9.3473e-05 6.252e-05)
(-3.8651e-05 0.00010414 4.3184e-05)
(-3.8663e-05 0.00011093 2.2051e-05)
(-3.8688e-05 0.00011331 -6.1018e-10)
(-4.2629e-05 2.2203e-05 0.00011192)
(-4.2655e-05 4.3528e-05 0.00010505)
(-4.2685e-05 6.3131e-05 9.4359e-05)
(-4.2704e-05 8.0273e-05 8.0273e-05)
(-4.2685e-05 9.4361e-05 6.3132e-05)
(-4.2656e-05 0.00010505 4.3528e-05)
(-4.263e-05 0.00011192 2.2203e-05)
(-4.2625e-05 0.00011434 -3.68e-10)
(-4.649e-05 2.1601e-05 0.00010908)
(-4.6543e-05 4.24e-05 0.00010239)
(-4.6571e-05 6.1597e-05 9.2053e-05)
(-4.6563e-05 7.8389e-05 7.8389e-05)
(-4.6572e-05 9.2055e-05 6.1597e-05)
(-4.6543e-05 0.00010239 4.2401e-05)
(-4.6491e-05 0.00010909 2.1601e-05)
(-4.6448e-05 0.0001115 -4.7275e-10)
(-5.0475e-05 2.0375e-05 0.0001028)
(-5.0537e-05 3.9996e-05 9.6575e-05)
(-5.0545e-05 5.8105e-05 8.6851e-05)
(-5.0534e-05 7.3929e-05 7.3928e-05)
(-5.0545e-05 8.6854e-05 5.8105e-05)
(-5.0537e-05 9.658e-05 3.9997e-05)
(-5.0475e-05 0.0001028 2.0375e-05)
(-5.0434e-05 0.00010499 -7.0567e-10)
(-5.4569e-05 1.8772e-05 9.4553e-05)
(-5.4631e-05 3.684e-05 8.8903e-05)
(-5.4621e-05 5.3501e-05 7.9977e-05)
(-5.4597e-05 6.805e-05 6.8049e-05)
(-5.4621e-05 7.998e-05 5.3501e-05)
(-5.4631e-05 8.8907e-05 3.6842e-05)
(-5.4569e-05 9.456e-05 1.8772e-05)
(-5.4524e-05 9.6496e-05 -6.2569e-10)
(-5.8547e-05 1.7049e-05 8.5845e-05)
(-5.858e-05 3.3469e-05 8.0762e-05)
(-5.8593e-05 4.8615e-05 7.2674e-05)
(-5.8597e-05 6.1852e-05 6.1851e-05)
(-5.8593e-05 7.2677e-05 4.8615e-05)
(-5.858e-05 8.0766e-05 3.347e-05)
(-5.8547e-05 8.5851e-05 1.7049e-05)
(-5.8532e-05 8.76e-05 -5.1523e-10)
(-6.2119e-05 1.5319e-05 7.7231e-05)
(-6.2129e-05 3.0103e-05 7.2662e-05)
(-6.2164e-05 4.3773e-05 6.5424e-05)
(-6.2184e-05 5.5716e-05 5.5715e-05)
(-6.2164e-05 6.5427e-05 4.3773e-05)
(-6.2129e-05 7.2666e-05 3.0103e-05)
(-6.2119e-05 7.7237e-05 1.5319e-05)
(-6.2122e-05 7.8825e-05 -5.3943e-10)
(-6.505e-05 1.3614e-05 6.875e-05)
(-6.5075e-05 2.6784e-05 6.468e-05)
(-6.5083e-05 3.9004e-05 5.828e-05)
(-6.5087e-05 4.9667e-05 4.9666e-05)
(-6.5083e-05 5.8282e-05 3.9004e-05)
(-6.5074e-05 6.4684e-05 2.6784e-05)
(-6.505e-05 6.8755e-05 1.3614e-05)
(-6.504e-05 7.018e-05 -3.9428e-10)
(-6.7322e-05 1.1942e-05 6.0412e-05)
(-6.7366e-05 2.3523e-05 5.6819e-05)
(-6.7344e-05 3.4319e-05 5.125e-05)
(-6.7317e-05 4.373e-05 4.373e-05)
(-6.7344e-05 5.1252e-05 3.432e-05)
(-6.7366e-05 5.6822e-05 2.3524e-05)
(-6.7322e-05 6.0417e-05 1.1942e-05)
(-6.7286e-05 6.1702e-05 -2.4012e-10)
(-6.8988e-05 1.0358e-05 5.2327e-05)
(-6.9015e-05 2.0405e-05 4.9267e-05)
(-6.9006e-05 2.9755e-05 4.4442e-05)
(-6.8995e-05 3.7904e-05 3.7903e-05)
(-6.9006e-05 4.4444e-05 2.9756e-05)
(-6.9015e-05 4.9271e-05 2.0406e-05)
(-6.8988e-05 5.2332e-05 1.0358e-05)
(-6.8969e-05 5.3405e-05 4.0034e-10)
(-7.0132e-05 8.8556e-06 4.4673e-05)
(-7.0145e-05 1.7452e-05 4.2106e-05)
(-7.0149e-05 2.5427e-05 3.7992e-05)
(-7.0146e-05 3.2389e-05 3.2388e-05)
(-7.0149e-05 3.7994e-05 2.5427e-05)
(-7.0145e-05 4.211e-05 1.7453e-05)
(-7.0131e-05 4.4677e-05 8.856e-06)
(-7.0121e-05 4.556e-05 -4.1984e-11)
(-7.0785e-05 7.4555e-06 3.7649e-05)
(-7.0802e-05 1.4695e-05 3.5494e-05)
(-7.0795e-05 2.1454e-05 3.2059e-05)
(-7.0789e-05 2.7347e-05 2.7347e-05)
(-7.0795e-05 3.2061e-05 2.1454e-05)
(-7.0801e-05 3.5497e-05 1.4696e-05)
(-7.0785e-05 3.7653e-05 7.4561e-06)
(-7.0774e-05 3.8397e-05 9.3427e-11)
(-7.0967e-05 6.1852e-06 3.1353e-05)
(-7.0991e-05 1.222e-05 2.9546e-05)
(-7.0969e-05 1.7898e-05 2.6725e-05)
(-7.0948e-05 2.2842e-05 2.2842e-05)
(-7.0968e-05 2.6727e-05 1.7899e-05)
(-7.0991e-05 2.9549e-05 1.2221e-05)
(-7.0967e-05 3.1356e-05 6.1858e-06)
(-7.0946e-05 3.2002e-05 1.8175e-10)
(-7.0672e-05 5.1222e-06 2.5894e-05)
(-7.0679e-05 1.0116e-05 2.4438e-05)
(-7.0666e-05 1.4797e-05 2.2104e-05)
(-7.0658e-05 1.8875e-05 1.8875e-05)
(-7.0666e-05 2.2105e-05 1.4798e-05)
(-7.0679e-05 2.444e-05 1.0117e-05)
(-7.0671e-05 2.5896e-05 5.1227e-06)
(-7.0666e-05 2.6402e-05 2.6797e-10)
(-6.9925e-05 4.2265e-06 2.1298e-05)
(-6.9918e-05 8.3369e-06 2.0118e-05)
(-6.9917e-05 1.2184e-05 1.8211e-05)
(-6.9913e-05 1.5527e-05 1.5527e-05)
(-6.9916e-05 1.8212e-05 1.2184e-05)
(-6.9918e-05 2.012e-05 8.3376e-06)
(-6.9925e-05 2.13e-05 4.227e-06)
(-6.9927e-05 2.1687e-05 3.2576e-10)
(-6.8735e-05 3.4731e-06 1.7541e-05)
(-6.8732e-05 6.8598e-06 1.6567e-05)
(-6.8725e-05 1.0041e-05 1.5e-05)
(-6.8724e-05 1.2814e-05 1.2812e-05)
(-6.8725e-05 1.5001e-05 1.0042e-05)
(-6.8732e-05 1.6568e-05 6.8604e-06)
(-6.8735e-05 1.7543e-05 3.4736e-06)
(-6.8739e-05 1.7879e-05 1.3205e-09)
(-6.7128e-05 2.8229e-06 1.437e-05)
(-6.7132e-05 5.5989e-06 1.3547e-05)
(-6.7118e-05 8.2382e-06 1.2287e-05)
(-6.711e-05 1.0532e-05 1.0532e-05)
(-6.7118e-05 1.2288e-05 8.2387e-06)
(-6.7132e-05 1.3549e-05 5.5996e-06)
(-6.7128e-05 1.4373e-05 2.8235e-06)
(-6.7124e-05 1.4682e-05 4.787e-10)
(-6.5125e-05 2.2845e-06 1.1598e-05)
(-6.5122e-05 4.5287e-06 1.0948e-05)
(-6.5114e-05 6.6518e-06 9.9261e-06)
(-6.5112e-05 8.4968e-06 8.4967e-06)
(-6.5114e-05 9.927e-06 6.6523e-06)
(-6.5122e-05 1.095e-05 4.5294e-06)
(-6.5125e-05 1.1601e-05 2.2851e-06)
(-6.5127e-05 1.1836e-05 5.4692e-10)
(-6.2822e-05 1.8187e-06 9.1715e-06)
(-6.2815e-05 3.5938e-06 8.6721e-06)
(-6.2811e-05 5.2632e-06 7.8616e-06)
(-6.2807e-05 6.7151e-06 6.715e-06)
(-6.2811e-05 7.8627e-06 5.2637e-06)
(-6.2815e-05 8.6743e-06 3.5946e-06)
(-6.2822e-05 9.1749e-06 1.8193e-06)
(-6.2823e-05 9.3424e-06 5.2941e-10)
(-6.0278e-05 1.4255e-06 7.1682e-06)
(-6.0273e-05 2.8116e-06 6.7856e-06)
(-6.0268e-05 4.1128e-06 6.1503e-06)
(-6.027e-05 5.25e-06 5.2498e-06)
(-6.0268e-05 6.1513e-06 4.1133e-06)
(-6.0273e-05 6.7878e-06 2.8124e-06)
(-6.0278e-05 7.1714e-06 1.4261e-06)
(-6.0284e-05 7.2988e-06 4.1455e-10)
(-5.7497e-05 1.096e-06 5.5439e-06)
(-5.7496e-05 2.1682e-06 5.2436e-06)
(-5.7488e-05 3.1818e-06 4.7547e-06)
(-5.7488e-05 4.0657e-06 4.0655e-06)
(-5.7488e-05 4.7557e-06 3.1823e-06)
(-5.7496e-05 5.2454e-06 2.1689e-06)
(-5.7497e-05 5.5465e-06 1.0965e-06)
(-5.75e-05 5.6509e-06 4.6036e-10)
(-5.4441e-05 8.4686e-07 4.2766e-06)
(-5.4432e-05 1.672e-06 4.0427e-06)
(-5.4431e-05 2.451e-06 3.6655e-06)
(-5.4436e-05 3.1332e-06 3.1329e-06)
(-5.4431e-05 3.6662e-06 2.4513e-06)
(-5.4432e-05 4.044e-06 1.6725e-06)
(-5.4441e-05 4.2783e-06 8.4712e-07)
(-5.445e-05 4.3609e-06 5.2174e-10)
(-5.1116e-05 6.3523e-07 3.1922e-06)
(-5.11e-05 1.2483e-06 3.0084e-06)
(-5.1109e-05 1.8264e-06 2.7364e-06)
(-5.1107e-05 2.3365e-06 2.3364e-06)
(-5.1109e-05 2.7368e-06 1.8265e-06)
(-5.11e-05 3.0091e-06 1.2484e-06)
(-5.1116e-05 3.193e-06 6.3529e-07)
(-5.1122e-05 3.2603e-06 3.8627e-10)
(-4.7498e-05 3.9747e-07 2.0959e-06)
(-4.75e-05 8.1055e-07 1.9555e-06)
(-4.7492e-05 1.2098e-06 1.7748e-06)
(-4.7487e-05 1.5332e-06 1.5322e-06)
(-4.7492e-05 1.7749e-06 1.2097e-06)
(-4.75e-05 1.9556e-06 8.1044e-07)
(-4.7498e-05 2.0959e-06 3.9737e-07)
(-4.7497e-05 2.1469e-06 1.0051e-09)
(-4.3682e-05 1.2412e-07 8.8061e-07)
(-4.3678e-05 3.1174e-07 7.5168e-07)
(-4.3679e-05 5.3711e-07 7.1306e-07)
(-4.3677e-05 6.7418e-07 6.7406e-07)
(-4.3679e-05 7.1298e-07 5.3686e-07)
(-4.3678e-05 7.5134e-07 3.1142e-07)
(-4.3682e-05 8.7993e-07 1.2388e-07)
(-4.3681e-05 9.4858e-07 3.3254e-10)
(-3.971e-05 -2.4161e-07 -6.406e-07)
(-3.9659e-05 -3.3548e-07 -8.1134e-07)
(-3.971e-05 -2.8118e-07 -6.2375e-07)
(-3.9762e-05 -3.2039e-07 -3.2052e-07)
(-3.971e-05 -6.2393e-07 -2.8152e-07)
(-3.9659e-05 -8.1192e-07 -3.359e-07)
(-3.971e-05 -6.4168e-07 -2.4194e-07)
(-3.9762e-05 -4.5504e-07 2.8522e-10)
(-3.5509e-05 -6.7906e-07 -2.8067e-06)
(-3.5422e-05 -1.2014e-06 -2.9032e-06)
(-3.5509e-05 -1.502e-06 -2.4644e-06)
(-3.5618e-05 -1.7902e-06 -1.7903e-06)
(-3.5509e-05 -2.4646e-06 -1.5024e-06)
(-3.5422e-05 -2.9038e-06 -1.2018e-06)
(-3.5509e-05 -2.8079e-06 -6.7942e-07)
(-3.5617e-05 -2.536e-06 2.329e-10)
(-3.1372e-05 -9.677e-07 -4.7064e-06)
(-3.1341e-05 -1.849e-06 -4.4686e-06)
(-3.1371e-05 -2.6405e-06 -4.0112e-06)
(-3.1389e-05 -3.3905e-06 -3.3906e-06)
(-3.1371e-05 -4.0114e-06 -2.6408e-06)
(-3.1341e-05 -4.4691e-06 -1.8494e-06)