/*--------------------------------*- C++ -*----------------------------------*\
| =========                 |                                                 |
| \\      /  F ield         | foam-extend: Open Source CFD                    |
|  \\    /   O peration     | Version:     4.1-20200408                       |
|   \\  /    A nd           | Web:         http://www.foam-extend.org         |
|    \\/     M anipulation  |                                                 |
\*---------------------------------------------------------------------------*/
FoamFile
{
    version     2.0;
    format      ascii;
    class       volVectorField;
    location    "0.0350000";
    object      U;
}
// * * * * * * * * * * * * * * * * * * * * * * * * * * * * * * * * * * * * * //

dimensions      [0 1 0 0 0 0 0];

internalField   nonuniform List<vector> 
1952
(
(0.034756 -8.87946e-07 0)
(0.0347559 -1.44535e-06 0)
(0.0347558 -2.01007e-06 0)
(0.0347556 -2.57592e-06 0)
(0.0347554 -3.14255e-06 0)
(0.0347551 -3.70715e-06 0)
(0.0347548 -4.27104e-06 0)
(0.0347544 -4.83055e-06 0)
(0.034754 -5.38705e-06 0)
(0.0347537 -5.93634e-06 0)
(0.0347533 -6.47714e-06 0)
(0.034753 -7.00722e-06 0)
(0.0347528 -7.51693e-06 0)
(0.0347527 -8.01075e-06 0)
(0.0347527 -8.46432e-06 0)
(0.0347561 -3.80398e-07 0)
(0.0347549 -8.92119e-07 0)
(0.0347548 -1.45215e-06 0)
(0.0347546 -2.01944e-06 0)
(0.0347544 -2.58788e-06 0)
(0.0347542 -3.15706e-06 0)
(0.0347539 -3.7241e-06 0)
(0.0347536 -4.29045e-06 0)
(0.0347532 -4.85221e-06 0)
(0.0347529 -5.41106e-06 0)
(0.0347525 -5.96237e-06 0)
(0.0347522 -6.50551e-06 0)
(0.0347518 -7.03733e-06 0)
(0.0347516 -7.54916e-06 0)
(0.0347515 -8.04442e-06 0)
(0.0347515 -8.49942e-06 0)
(0.0347549 -3.82191e-07 0)
(0.0347537 -8.95872e-07 0)
(0.0347536 -1.45824e-06 0)
(0.0347535 -2.02789e-06 0)
(0.0347533 -2.59865e-06 0)
(0.034753 -3.17012e-06 0)
(0.0347527 -3.73938e-06 0)
(0.0347524 -4.30791e-06 0)
(0.0347521 -4.87174e-06 0)
(0.0347517 -5.43262e-06 0)
(0.0347513 -5.98576e-06 0)
(0.034751 -6.53086e-06 0)
(0.0347507 -7.06424e-06 0)
(0.0347505 -7.57775e-06 0)
(0.0347503 -8.07421e-06 0)
(0.0347503 -8.53046e-06 0)
(0.0347538 -3.83799e-07 0)
(0.0347526 -8.99378e-07 0)
(0.0347524 -1.46392e-06 0)
(0.0347523 -2.03578e-06 0)
(0.0347521 -2.60871e-06 0)
(0.0347519 -3.18232e-06 0)
(0.0347516 -3.75367e-06 0)
(0.0347513 -4.32423e-06 0)
(0.0347509 -4.89003e-06 0)
(0.0347505 -5.45279e-06 0)
(0.0347501 -6.00766e-06 0)
(0.0347498 -6.55454e-06 0)
(0.0347495 -7.08944e-06 0)
(0.0347493 -7.60448e-06 0)
(0.0347491 -8.10218e-06 0)
(0.0347492 -8.55969e-06 0)
(0.0347526 -3.853e-07 0)
(0.0347514 -9.02681e-07 0)
(0.0347513 -1.46927e-06 0)
(0.0347511 -2.04322e-06 0)
(0.0347509 -2.61818e-06 0)
(0.0347507 -3.19382e-06 0)
(0.0347504 -3.76715e-06 0)
(0.0347501 -4.33963e-06 0)
(0.0347497 -4.90729e-06 0)
(0.0347494 -5.47183e-06 0)
(0.034749 -6.02834e-06 0)
(0.0347486 -6.57687e-06 0)
(0.0347483 -7.11321e-06 0)
(0.0347481 -7.62972e-06 0)
(0.034748 -8.12865e-06 0)
(0.034748 -8.58751e-06 0)
(0.0347514 -3.86713e-07 0)
(0.0347502 -9.05802e-07 0)
(0.0347501 -1.47433e-06 0)
(0.03475 -2.05025e-06 0)
(0.0347497 -2.62713e-06 0)
(0.0347495 -3.20469e-06 0)
(0.0347492 -3.77988e-06 0)
(0.0347489 -4.35418e-06 0)
(0.0347485 -4.92359e-06 0)
(0.0347482 -5.48983e-06 0)
(0.0347478 -6.04792e-06 0)
(0.0347474 -6.59804e-06 0)
(0.0347471 -7.13582e-06 0)
(0.0347469 -7.65378e-06 0)
(0.0347468 -8.15399e-06 0)
(0.0347468 -8.61422e-06 0)
(0.0347502 -3.88049e-07 0)
(0.034749 -9.08771e-07 0)
(0.0347489 -1.47914e-06 0)
(0.0347488 -2.05694e-06 0)
(0.0347486 -2.63564e-06 0)
(0.0347483 -3.21504e-06 0)
(0.034748 -3.79197e-06 0)
(0.0347477 -4.36805e-06 0)
(0.0347473 -4.93907e-06 0)
(0.034747 -5.50701e-06 0)
(0.0347466 -6.0667e-06 0)
(0.0347463 -6.61835e-06 0)
(0.0347459 -7.15758e-06 0)
(0.0347457 -7.67701e-06 0)
(0.0347456 -8.17855e-06 0)
(0.0347456 -8.64021e-06 0)
(0.0347491 -3.8932e-07 0)
(0.0347478 -9.11614e-07 0)
(0.0347477 -1.48374e-06 0)
(0.0347476 -2.06335e-06 0)
(0.0347474 -2.64379e-06 0)
(0.0347471 -3.22498e-06 0)
(0.0347468 -3.80357e-06 0)
(0.0347465 -4.3814e-06 0)
(0.0347462 -4.95396e-06 0)
(0.0347458 -5.52359e-06 0)
(0.0347454 -6.08484e-06 0)
(0.0347451 -6.63804e-06 0)
(0.0347448 -7.17872e-06 0)
(0.0347445 -7.69962e-06 0)
(0.0347444 -8.20254e-06 0)
(0.0347444 -8.66562e-06 0)
(0.0347479 -3.90536e-07 0)
(0.0347467 -9.14356e-07 0)
(0.0347466 -1.48819e-06 0)
(0.0347464 -2.06953e-06 0)
(0.0347462 -2.65166e-06 0)
(0.034746 -3.23459e-06 0)
(0.0347457 -3.81481e-06 0)
(0.0347453 -4.39434e-06 0)
(0.034745 -4.96846e-06 0)
(0.0347446 -5.53973e-06 0)
(0.0347442 -6.10249e-06 0)
(0.0347439 -6.65725e-06 0)
(0.0347436 -7.19938e-06 0)
(0.0347433 -7.72178e-06 0)
(0.0347432 -8.22611e-06 0)
(0.0347432 -8.69061e-06 0)
(0.0347467 -3.91709e-07 0)
(0.0347455 -9.1702e-07 0)
(0.0347454 -1.4925e-06 0)
(0.0347452 -2.07555e-06 0)
(0.034745 -2.65932e-06 0)
(0.0347448 -3.24396e-06 0)
(0.0347445 -3.82576e-06 0)
(0.0347441 -4.40698e-06 0)
(0.0347438 -4.9826e-06 0)
(0.0347434 -5.55549e-06 0)
(0.034743 -6.11977e-06 0)
(0.0347427 -6.6761e-06 0)
(0.0347424 -7.21969e-06 0)
(0.0347421 -7.7436e-06 0)
(0.034742 -8.24934e-06 0)
(0.034742 -8.71529e-06 0)
(0.0347455 -3.92849e-07 0)
(0.0347443 -9.19623e-07 0)
(0.0347442 -1.49672e-06 0)
(0.034744 -2.08144e-06 0)
(0.0347438 -2.66682e-06 0)
(0.0347436 -3.25313e-06 0)
(0.0347433 -3.8365e-06 0)
(0.0347429 -4.41938e-06 0)
(0.0347426 -4.99653e-06 0)
(0.0347422 -5.57103e-06 0)
(0.0347418 -6.13679e-06 0)
(0.0347415 -6.6947e-06 0)
(0.0347412 -7.23975e-06 0)
(0.0347409 -7.76519e-06 0)
(0.0347408 -8.27231e-06 0)
(0.0347408 -8.73969e-06 0)
(0.0347443 -3.93963e-07 0)
(0.0347431 -9.22188e-07 0)
(0.034743 -1.50088e-06 0)
(0.0347428 -2.08724e-06 0)
(0.0347426 -2.67421e-06 0)
(0.0347424 -3.26218e-06 0)
(0.0347421 -3.8471e-06 0)
(0.0347418 -4.43161e-06 0)
(0.0347414 -5.01025e-06 0)
(0.034741 -5.58633e-06 0)
(0.0347406 -6.15359e-06 0)
(0.0347403 -6.71306e-06 0)
(0.03474 -7.25955e-06 0)
(0.0347397 -7.78652e-06 0)
(0.0347396 -8.29502e-06 0)
(0.0347396 -8.76382e-06 0)
(0.0347431 -3.9506e-07 0)
(0.0347419 -9.24706e-07 0)
(0.0347418 -1.50496e-06 0)
(0.0347416 -2.09294e-06 0)
(0.0347414 -2.68146e-06 0)
(0.0347412 -3.27107e-06 0)
(0.0347409 -3.85749e-06 0)
(0.0347405 -4.44363e-06 0)
(0.0347402 -5.02372e-06 0)
(0.0347398 -5.60138e-06 0)
(0.0347394 -6.17017e-06 0)
(0.0347391 -6.73123e-06 0)
(0.0347388 -7.2792e-06 0)
(0.0347385 -7.80773e-06 0)
(0.0347384 -8.31767e-06 0)
(0.0347384 -8.78791e-06 0)
(0.0347419 -3.96137e-07 0)
(0.0347407 -9.27199e-07 0)
(0.0347406 -1.50901e-06 0)
(0.0347404 -2.09859e-06 0)
(0.0347402 -2.68866e-06 0)
(0.03474 -3.27988e-06 0)
(0.0347397 -3.86784e-06 0)
(0.0347393 -4.45561e-06 0)
(0.034739 -5.0372e-06 0)
(0.0347386 -5.61645e-06 0)
(0.0347382 -6.18673e-06 0)
(0.0347379 -6.74939e-06 0)
(0.0347375 -7.29881e-06 0)
(0.0347373 -7.82889e-06 0)
(0.0347372 -8.34023e-06 0)
(0.0347372 -8.8119e-06 0)
(0.0347407 -3.97203e-07 0)
(0.0347395 -9.29669e-07 0)
(0.0347394 -1.51301e-06 0)
(0.0347392 -2.10418e-06 0)
(0.034739 -2.69579e-06 0)
(0.0347388 -3.28862e-06 0)
(0.0347385 -3.87809e-06 0)
(0.0347381 -4.46747e-06 0)
(0.0347378 -5.05055e-06 0)
(0.0347374 -5.63136e-06 0)
(0.034737 -6.20313e-06 0)
(0.0347367 -6.76736e-06 0)
(0.0347363 -7.31824e-06 0)
(0.0347361 -7.84988e-06 0)
(0.034736 -8.3626e-06 0)
(0.034736 -8.83567e-06 0)
(0.0347395 -3.9826e-07 0)
(0.0347383 -9.32105e-07 0)
(0.0347382 -1.51697e-06 0)
(0.034738 -2.10969e-06 0)
(0.0347378 -2.70284e-06 0)
(0.0347376 -3.29724e-06 0)
(0.0347373 -3.88823e-06 0)
(0.0347369 -4.47918e-06 0)
(0.0347366 -5.06374e-06 0)
(0.0347362 -5.64616e-06 0)
(0.0347358 -6.21944e-06 0)
(0.0347354 -6.78528e-06 0)
(0.0347351 -7.33764e-06 0)
(0.0347349 -7.87086e-06 0)
(0.0347348 -8.38501e-06 0)
(0.0347348 -8.85951e-06 0)
(0.0347383 -3.99302e-07 0)
(0.0347371 -9.34524e-07 0)
(0.034737 -1.5209e-06 0)
(0.0347368 -2.11518e-06 0)
(0.0347366 -2.70986e-06 0)
(0.0347363 -3.30582e-06 0)
(0.034736 -3.89836e-06 0)
(0.0347357 -4.49087e-06 0)
(0.0347353 -5.07699e-06 0)
(0.034735 -5.661e-06 0)
(0.0347346 -6.23576e-06 0)
(0.0347342 -6.80315e-06 0)
(0.0347339 -7.35699e-06 0)
(0.0347337 -7.8917e-06 0)
(0.0347335 -8.40731e-06 0)
(0.0347336 -8.88329e-06 0)
(0.0347371 -4.00337e-07 0)
(0.0347359 -9.36918e-07 0)
(0.0347358 -1.52479e-06 0)
(0.0347356 -2.1206e-06 0)
(0.0347354 -2.71682e-06 0)
(0.0347351 -3.31431e-06 0)
(0.0347348 -3.9084e-06 0)
(0.0347345 -4.50243e-06 0)
(0.0347341 -5.09012e-06 0)
(0.0347337 -5.6757e-06 0)
(0.0347334 -6.25197e-06 0)
(0.034733 -6.82091e-06 0)
(0.0347327 -7.37625e-06 0)
(0.0347325 -7.91243e-06 0)
(0.0347323 -8.42955e-06 0)
(0.0347323 -8.90701e-06 0)
(0.0347359 -4.01362e-07 0)
(0.0347347 -9.39294e-07 0)
(0.0347345 -1.52866e-06 0)
(0.0347344 -2.12599e-06 0)
(0.0347342 -2.72374e-06 0)
(0.0347339 -3.32275e-06 0)
(0.0347336 -3.91839e-06 0)
(0.0347333 -4.51391e-06 0)
(0.0347329 -5.10316e-06 0)
(0.0347325 -5.69032e-06 0)
(0.0347321 -6.26813e-06 0)
(0.0347318 -6.83861e-06 0)
(0.0347315 -7.39549e-06 0)
(0.0347312 -7.93317e-06 0)
(0.0347311 -8.45179e-06 0)
(0.0347311 -8.93073e-06 0)
(0.0347347 -4.02378e-07 0)
(0.0347334 -9.41653e-07 0)
(0.0347333 -1.5325e-06 0)
(0.0347332 -2.13133e-06 0)
(0.0347329 -2.7306e-06 0)
(0.0347327 -3.33112e-06 0)
(0.0347324 -3.92832e-06 0)
(0.0347321 -4.52534e-06 0)
(0.0347317 -5.11616e-06 0)
(0.0347313 -5.70488e-06 0)
(0.0347309 -6.28425e-06 0)
(0.0347306 -6.85627e-06 0)
(0.0347302 -7.41469e-06 0)
(0.03473 -7.95388e-06 0)
(0.0347299 -8.47399e-06 0)
(0.0347299 -8.9544e-06 0)
(0.0347335 -4.03388e-07 0)
(0.0347322 -9.44001e-07 0)
(0.0347321 -1.53631e-06 0)
(0.0347319 -2.13666e-06 0)
(0.0347317 -2.73742e-06 0)
(0.0347315 -3.33945e-06 0)
(0.0347312 -3.93821e-06 0)
(0.0347308 -4.53671e-06 0)
(0.0347304 -5.12911e-06 0)
(0.0347301 -5.71936e-06 0)
(0.0347297 -6.30031e-06 0)
(0.0347293 -6.87389e-06 0)
(0.034729 -7.43388e-06 0)
(0.0347288 -7.97458e-06 0)
(0.0347286 -8.4962e-06 0)
(0.0347286 -8.97807e-06 0)
(0.0347323 -4.04393e-07 0)
(0.034731 -9.46339e-07 0)
(0.0347309 -1.54011e-06 0)
(0.0347307 -2.14197e-06 0)
(0.0347305 -2.7442e-06 0)
(0.0347302 -3.34772e-06 0)
(0.0347299 -3.94806e-06 0)
(0.0347296 -4.54804e-06 0)
(0.0347292 -5.14202e-06 0)
(0.0347288 -5.73379e-06 0)
(0.0347284 -6.31632e-06 0)
(0.0347281 -6.89147e-06 0)
(0.0347278 -7.45302e-06 0)
(0.0347275 -7.99525e-06 0)
(0.0347274 -8.51837e-06 0)
(0.0347274 -9.00172e-06 0)
(0.034731 -4.05393e-07 0)
(0.0347298 -9.4866e-07 0)
(0.0347296 -1.54389e-06 0)
(0.0347295 -2.14724e-06 0)
(0.0347293 -2.75095e-06 0)
(0.034729 -3.35594e-06 0)
(0.0347287 -3.95785e-06 0)
(0.0347284 -4.55931e-06 0)
(0.034728 -5.15487e-06 0)
(0.0347276 -5.74816e-06 0)
(0.0347272 -6.33226e-06 0)
(0.0347268 -6.90899e-06 0)
(0.0347265 -7.47211e-06 0)
(0.0347263 -8.01588e-06 0)
(0.0347262 -8.54051e-06 0)
(0.0347262 -9.02534e-06 0)
(0.0347298 -4.06387e-07 0)
(0.0347285 -9.50952e-07 0)
(0.0347284 -1.54764e-06 0)
(0.0347283 -2.15244e-06 0)
(0.034728 -2.75767e-06 0)
(0.0347278 -3.36414e-06 0)
(0.0347275 -3.96759e-06 0)
(0.0347271 -4.57054e-06 0)
(0.0347267 -5.16764e-06 0)
(0.0347264 -5.76246e-06 0)
(0.034726 -6.34811e-06 0)
(0.0347256 -6.92643e-06 0)
(0.0347253 -7.49111e-06 0)
(0.034725 -8.03644e-06 0)
(0.0347249 -8.56259e-06 0)
(0.0347249 -9.04889e-06 0)
(0.0347286 -4.0737e-07 0)
(0.0347273 -9.53224e-07 0)
(0.0347272 -1.55135e-06 0)
(0.034727 -2.15759e-06 0)
(0.0347268 -2.76431e-06 0)
(0.0347266 -3.37226e-06 0)
(0.0347262 -3.97722e-06 0)
(0.0347259 -4.58166e-06 0)
(0.0347255 -5.18028e-06 0)
(0.0347251 -5.77666e-06 0)
(0.0347247 -6.36388e-06 0)
(0.0347244 -6.94377e-06 0)
(0.034724 -7.51003e-06 0)
(0.0347238 -8.0569e-06 0)
(0.0347237 -8.58458e-06 0)
(0.0347237 -9.0724e-06 0)
(0.0347273 -4.08344e-07 0)
(0.0347261 -9.55473e-07 0)
(0.034726 -1.55502e-06 0)
(0.0347258 -2.1627e-06 0)
(0.0347256 -2.77087e-06 0)
(0.0347253 -3.3803e-06 0)
(0.034725 -3.98674e-06 0)
(0.0347247 -4.5927e-06 0)
(0.0347243 -5.19284e-06 0)
(0.0347239 -5.79077e-06 0)
(0.0347235 -6.37956e-06 0)
(0.0347231 -6.961e-06 0)
(0.0347228 -7.52885e-06 0)
(0.0347226 -8.07728e-06 0)
(0.0347224 -8.60649e-06 0)
(0.0347224 -9.09586e-06 0)
(0.0347261 -4.09308e-07 0)
(0.0347248 -9.57697e-07 0)
(0.0347247 -1.55864e-06 0)
(0.0347246 -2.16775e-06 0)
(0.0347243 -2.77737e-06 0)
(0.0347241 -3.38826e-06 0)
(0.0347238 -3.99615e-06 0)
(0.0347234 -4.60364e-06 0)
(0.034723 -5.20534e-06 0)
(0.0347226 -5.80478e-06 0)
(0.0347222 -6.39514e-06 0)
(0.0347219 -6.97814e-06 0)
(0.0347215 -7.54757e-06 0)
(0.0347213 -8.09758e-06 0)
(0.0347212 -8.62834e-06 0)
(0.0347212 -9.11928e-06 0)
(0.0347249 -4.10262e-07 0)
(0.0347236 -9.59903e-07 0)
(0.0347235 -1.56224e-06 0)
(0.0347233 -2.17277e-06 0)
(0.0347231 -2.7838e-06 0)
(0.0347228 -3.39617e-06 0)
(0.0347225 -4.00549e-06 0)
(0.0347222 -4.61451e-06 0)
(0.0347218 -5.21773e-06 0)
(0.0347214 -5.81869e-06 0)
(0.034721 -6.41063e-06 0)
(0.0347206 -6.99518e-06 0)
(0.0347203 -7.56622e-06 0)
(0.03472 -8.11781e-06 0)
(0.0347199 -8.65014e-06 0)
(0.0347199 -9.14269e-06 0)
(0.0347236 -4.11207e-07 0)
(0.0347224 -9.62099e-07 0)
(0.0347222 -1.56581e-06 0)
(0.0347221 -2.17776e-06 0)
(0.0347218 -2.79021e-06 0)
(0.0347216 -3.40403e-06 0)
(0.0347213 -4.01479e-06 0)
(0.0347209 -4.6253e-06 0)
(0.0347205 -5.23004e-06 0)
(0.0347201 -5.83253e-06 0)
(0.0347197 -6.42603e-06 0)
(0.0347194 -7.01216e-06 0)
(0.034719 -7.5848e-06 0)
(0.0347188 -8.13801e-06 0)
(0.0347186 -8.67193e-06 0)
(0.0347187 -9.16611e-06 0)
(0.0347224 -4.12148e-07 0)
(0.0347211 -9.643e-07 0)
(0.034721 -1.56939e-06 0)
(0.0347208 -2.18276e-06 0)
(0.0347206 -2.79661e-06 0)
(0.0347203 -3.41189e-06 0)
(0.03472 -4.02408e-06 0)
(0.0347197 -4.63606e-06 0)
(0.0347193 -5.24232e-06 0)
(0.0347189 -5.84633e-06 0)
(0.0347185 -6.4414e-06 0)
(0.0347181 -7.02911e-06 0)
(0.0347178 -7.60336e-06 0)
(0.0347175 -8.15821e-06 0)
(0.0347174 -8.69375e-06 0)
(0.0347174 -9.1896e-06 0)
(0.0347212 -4.1309e-07 0)
(0.0347199 -9.66525e-07 0)
(0.0347197 -1.57301e-06 0)
(0.0347196 -2.1878e-06 0)
(0.0347194 -2.80308e-06 0)
(0.0347191 -3.4198e-06 0)
(0.0347188 -4.03343e-06 0)
(0.0347184 -4.64687e-06 0)
(0.034718 -5.25464e-06 0)
(0.0347176 -5.86017e-06 0)
(0.0347172 -6.45679e-06 0)
(0.0347168 -7.0461e-06 0)
(0.0347165 -7.62197e-06 0)
(0.0347163 -8.17848e-06 0)
(0.0347161 -8.71565e-06 0)
(0.0347161 -9.21321e-06 0)
(0.0347199 -4.14043e-07 0)
(0.0347186 -9.68803e-07 0)
(0.0347185 -1.5767e-06 0)
(0.0347183 -2.19295e-06 0)
(0.0347181 -2.80967e-06 0)
(0.0347178 -3.42784e-06 0)
(0.0347175 -4.04292e-06 0)
(0.0347172 -4.65781e-06 0)
(0.0347168 -5.26709e-06 0)
(0.0347164 -5.87413e-06 0)
(0.0347159 -6.47232e-06 0)
(0.0347156 -7.06322e-06 0)
(0.0347152 -7.64071e-06 0)
(0.034715 -8.19891e-06 0)
(0.0347148 -8.73773e-06 0)
(0.0347149 -9.23704e-06 0)
(0.0347187 -4.15018e-07 0)
(0.0347174 -9.71166e-07 0)
(0.0347172 -1.58054e-06 0)
(0.0347171 -2.19828e-06 0)
(0.0347168 -2.81648e-06 0)
(0.0347166 -3.43611e-06 0)
(0.0347163 -4.05268e-06 0)
(0.0347159 -4.66901e-06 0)
(0.0347155 -5.27983e-06 0)
(0.0347151 -5.88836e-06 0)
(0.0347147 -6.48811e-06 0)
(0.0347143 -7.08061e-06 0)
(0.034714 -7.65971e-06 0)
(0.0347137 -8.21962e-06 0)
(0.0347136 -8.76011e-06 0)
(0.0347136 -9.26123e-06 0)
(0.0347174 -4.16031e-07 0)
(0.0347161 -9.73669e-07 0)
(0.034716 -1.58459e-06 0)
(0.0347158 -2.20389e-06 0)
(0.0347156 -2.82364e-06 0)
(0.0347153 -3.44479e-06 0)
(0.034715 -4.06287e-06 0)
(0.0347146 -4.68067e-06 0)
(0.0347142 -5.29303e-06 0)
(0.0347138 -5.90305e-06 0)
(0.0347134 -6.50436e-06 0)
(0.034713 -7.09844e-06 0)
(0.0347127 -7.67916e-06 0)
(0.0347124 -8.24078e-06 0)
(0.0347123 -8.78297e-06 0)
(0.0347123 -9.28594e-06 0)
(0.0347162 -4.17102e-07 0)
(0.0347149 -9.7637e-07 0)
(0.0347147 -1.58896e-06 0)
(0.0347146 -2.20993e-06 0)
(0.0347143 -2.83133e-06 0)
(0.0347141 -3.45405e-06 0)
(0.0347137 -4.07373e-06 0)
(0.0347134 -4.69301e-06 0)
(0.034713 -5.30695e-06 0)
(0.0347126 -5.91845e-06 0)
(0.0347121 -6.52133e-06 0)
(0.0347118 -7.11699e-06 0)
(0.0347114 -7.69931e-06 0)
(0.0347112 -8.26265e-06 0)
(0.034711 -8.80653e-06 0)
(0.034711 -9.3114e-06 0)
(0.0347149 -4.1826e-07 0)
(0.0347136 -9.7936e-07 0)
(0.0347135 -1.59379e-06 0)
(0.0347133 -2.21658e-06 0)
(0.0347131 -2.83978e-06 0)
(0.0347128 -3.46419e-06 0)
(0.0347125 -4.08555e-06 0)
(0.0347121 -4.70636e-06 0)
(0.0347117 -5.32192e-06 0)
(0.0347113 -5.93491e-06 0)
(0.0347109 -6.53934e-06 0)
(0.0347105 -7.13655e-06 0)
(0.0347101 -7.72045e-06 0)
(0.0347099 -8.28551e-06 0)
(0.0347097 -8.83108e-06 0)
(0.0347097 -9.33791e-06 0)
(0.0347136 -4.19541e-07 0)
(0.0347123 -9.82736e-07 0)
(0.0347122 -1.59924e-06 0)
(0.034712 -2.22406e-06 0)
(0.0347118 -2.84925e-06 0)
(0.0347115 -3.47551e-06 0)
(0.0347112 -4.09869e-06 0)
(0.0347108 -4.72112e-06 0)
(0.0347104 -5.33836e-06 0)
(0.03471 -5.95285e-06 0)
(0.0347096 -6.55884e-06 0)
(0.0347092 -7.15758e-06 0)
(0.0347088 -7.74303e-06 0)
(0.0347086 -8.3098e-06 0)
(0.0347084 -8.85702e-06 0)
(0.0347084 -9.36585e-06 0)
(0.0347124 -4.20987e-07 0)
(0.0347111 -9.86638e-07 0)
(0.034711 -1.60554e-06 0)
(0.0347108 -2.23268e-06 0)
(0.0347105 -2.86014e-06 0)
(0.0347103 -3.48845e-06 0)
(0.0347099 -4.11366e-06 0)
(0.0347096 -4.73781e-06 0)
(0.0347091 -5.35683e-06 0)
(0.0347087 -5.97284e-06 0)
(0.0347083 -6.58039e-06 0)
(0.0347079 -7.18062e-06 0)
(0.0347075 -7.76756e-06 0)
(0.0347073 -8.336e-06 0)
(0.0347071 -8.88483e-06 0)
(0.0347071 -9.3957e-06 0)
(0.0347111 -4.2266e-07 0)
(0.0347098 -9.91214e-07 0)
(0.0347097 -1.61292e-06 0)
(0.0347095 -2.24275e-06 0)
(0.0347093 -2.87283e-06 0)
(0.034709 -3.50347e-06 0)
(0.0347087 -4.13097e-06 0)
(0.0347083 -4.75704e-06 0)
(0.0347079 -5.37795e-06 0)
(0.0347074 -5.99554e-06 0)
(0.034707 -6.60466e-06 0)
(0.0347066 -7.20632e-06 0)
(0.0347063 -7.7947e-06 0)
(0.034706 -8.36472e-06 0)
(0.0347058 -8.91515e-06 0)
(0.0347058 -9.42808e-06 0)
(0.0347099 -4.24623e-07 0)
(0.0347085 -9.96653e-07 0)
(0.0347084 -1.62168e-06 0)
(0.0347082 -2.25468e-06 0)
(0.034708 -2.88788e-06 0)
(0.0347077 -3.52118e-06 0)
(0.0347074 -4.15135e-06 0)
(0.034707 -4.77963e-06 0)
(0.0347066 -5.40262e-06 0)
(0.0347062 -6.02187e-06 0)
(0.0347057 -6.6326e-06 0)
(0.0347053 -7.23565e-06 0)
(0.034705 -7.82541e-06 0)
(0.0347047 -8.39696e-06 0)
(0.0347045 -8.94888e-06 0)
(0.0347045 -9.46386e-06 0)
(0.0347086 -4.26957e-07 0)
(0.0347073 -1.00319e-06 0)
(0.0347071 -1.63223e-06 0)
(0.034707 -2.26904e-06 0)
(0.0347067 -2.90595e-06 0)
(0.0347064 -3.54246e-06 0)
(0.0347061 -4.17577e-06 0)
(0.0347057 -4.80654e-06 0)
(0.0347053 -5.4319e-06 0)
(0.0347049 -6.05292e-06 0)
(0.0347044 -6.66532e-06 0)
(0.034704 -7.2697e-06 0)
(0.0347037 -7.86073e-06 0)
(0.0347034 -8.43367e-06 0)
(0.0347032 -8.98691e-06 0)
(0.0347032 -9.50385e-06 0)
(0.0347073 -4.29763e-07 0)
(0.034706 -1.01108e-06 0)
(0.0347059 -1.64494e-06 0)
(0.0347057 -2.28635e-06 0)
(0.0347054 -2.92773e-06 0)
(0.0347052 -3.56814e-06 0)
(0.0347048 -4.20515e-06 0)
(0.0347044 -4.83885e-06 0)
(0.034704 -5.46696e-06 0)
(0.0347036 -6.08995e-06 0)
(0.0347031 -6.70415e-06 0)
(0.0347027 -7.3098e-06 0)
(0.0347024 -7.90198e-06 0)
(0.0347021 -8.47608e-06 0)
(0.0347019 -9.0304e-06 0)
(0.0347019 -9.54922e-06 0)
(0.034706 -4.33147e-07 0)
(0.0347047 -1.02059e-06 0)
(0.0347046 -1.66028e-06 0)
(0.0347044 -2.30726e-06 0)
(0.0347042 -2.95401e-06 0)
(0.0347039 -3.59912e-06 0)
(0.0347035 -4.24057e-06 0)
(0.0347031 -4.87783e-06 0)
(0.0347027 -5.50919e-06 0)
(0.0347023 -6.13443e-06 0)
(0.0347018 -6.75065e-06 0)
(0.0347014 -7.3575e-06 0)
(0.034701 -7.95072e-06 0)
(0.0347008 -8.52569e-06 0)
(0.0347006 -9.08084e-06 0)
(0.0347006 -9.60137e-06 0)
(0.0347047 -4.37229e-07 0)
(0.0347034 -1.03199e-06 0)
(0.0347033 -1.67867e-06 0)
(0.0347031 -2.33234e-06 0)
(0.0347029 -2.98558e-06 0)
(0.0347026 -3.6364e-06 0)
(0.0347022 -4.28326e-06 0)
(0.0347018 -4.92492e-06 0)
(0.0347014 -5.56025e-06 0)
(0.034701 -6.18824e-06 0)
(0.0347005 -6.80683e-06 0)
(0.0347001 -7.41494e-06 0)
(0.0346997 -8.00915e-06 0)
(0.0346994 -8.58471e-06 0)
(0.0346993 -9.14031e-06 0)
(0.0346992 -9.66224e-06 0)
(0.0347034 -4.42119e-07 0)
(0.0347021 -1.04557e-06 0)
(0.034702 -1.70061e-06 0)
(0.0347018 -2.36234e-06 0)
(0.0347015 -3.02338e-06 0)
(0.0347013 -3.68122e-06 0)
(0.0347009 -4.33468e-06 0)
(0.0347005 -4.98175e-06 0)
(0.0347001 -5.62201e-06 0)
(0.0346997 -6.25344e-06 0)
(0.0346992 -6.87496e-06 0)
(0.0346988 -7.48451e-06 0)
(0.0346984 -8.07976e-06 0)
(0.0346981 -8.65555e-06 0)
(0.0346979 -9.21117e-06 0)
(0.0346979 -9.7341e-06 0)
(0.0347021 -4.47946e-07 0)
(0.0347008 -1.06155e-06 0)
(0.0347006 -1.72645e-06 0)
(0.0347005 -2.39776e-06 0)
(0.0347002 -3.06813e-06 0)
(0.0346999 -3.73446e-06 0)
(0.0346996 -4.39597e-06 0)
(0.0346992 -5.04984e-06 0)
(0.0346988 -5.69629e-06 0)
(0.0346984 -6.33221e-06 0)
(0.0346979 -6.95759e-06 0)
(0.0346975 -7.56904e-06 0)
(0.0346971 -8.1656e-06 0)
(0.0346968 -8.74131e-06 0)
(0.0346966 -9.29656e-06 0)
(0.0346965 -9.81988e-06 0)
(0.0347008 -4.54803e-07 0)
(0.0346994 -1.08011e-06 0)
(0.0346993 -1.75653e-06 0)
(0.0346991 -2.43908e-06 0)
(0.0346989 -3.12048e-06 0)
(0.0346986 -3.79701e-06 0)
(0.0346983 -4.46829e-06 0)
(0.0346979 -5.13068e-06 0)
(0.0346975 -5.78502e-06 0)
(0.0346971 -6.42693e-06 0)
(0.0346966 -7.05756e-06 0)
(0.0346962 -7.67184e-06 0)
(0.0346958 -8.27042e-06 0)
(0.0346955 -8.84593e-06 0)
(0.0346953 -9.40037e-06 0)
(0.0346952 -9.923e-06 0)
(0.0346995 -4.62768e-07 0)
(0.034698 -1.10132e-06 0)
(0.0346979 -1.79093e-06 0)
(0.0346978 -2.48649e-06 0)
(0.0346975 -3.18075e-06 0)
(0.0346973 -3.86941e-06 0)
(0.0346969 -4.55245e-06 0)
(0.0346966 -5.22542e-06 0)
(0.0346962 -5.88977e-06 0)
(0.0346957 -6.53977e-06 0)
(0.0346953 -7.17777e-06 0)
(0.0346949 -7.79663e-06 0)
(0.0346945 -8.39879e-06 0)
(0.0346942 -8.97469e-06 0)
(0.0346939 -9.52829e-06 0)
(0.0346938 -1.00488e-05 0)
(0.0346981 -4.71862e-07 0)
(0.0346967 -1.12505e-06 0)
(0.0346965 -1.8295e-06 0)
(0.0346964 -2.53982e-06 0)
(0.0346962 -3.2488e-06 0)
(0.0346959 -3.95157e-06 0)
(0.0346956 -4.64852e-06 0)
(0.0346952 -5.33447e-06 0)
(0.0346948 -6.0114e-06 0)
(0.0346944 -6.67225e-06 0)
(0.034694 -7.32067e-06 0)
(0.0346935 -7.94715e-06 0)
(0.0346931 -8.55628e-06 0)
(0.0346928 -9.13539e-06 0)
(0.0346926 -9.69081e-06 0)
(0.0346925 -1.02101e-05 0)
(0.0346967 -4.82038e-07 0)
(0.0346952 -1.15099e-06 0)
(0.0346951 -1.87173e-06 0)
(0.034695 -2.5984e-06 0)
(0.0346948 -3.32379e-06 0)
(0.0346945 -4.04266e-06 0)
(0.0346942 -4.75568e-06 0)
(0.0346938 -5.45708e-06 0)
(0.0346934 -6.14938e-06 0)
(0.034693 -6.82429e-06 0)
(0.0346926 -7.4869e-06 0)
(0.0346922 -8.12524e-06 0)
(0.0346918 -8.74665e-06 0)
(0.0346915 -9.33486e-06 0)
(0.0346912 -9.89977e-06 0)
(0.0346911 -1.04253e-05 0)
(0.0346953 -4.93156e-07 0)
(0.0346938 -1.17854e-06 0)
(0.0346937 -1.91666e-06 0)
(0.0346935 -2.66095e-06 0)
(0.0346933 -3.40411e-06 0)
(0.0346931 -4.1408e-06 0)
(0.0346928 -4.87177e-06 0)
(0.0346924 -5.59087e-06 0)
(0.0346921 -6.30116e-06 0)
(0.0346917 -6.9932e-06 0)
(0.0346912 -7.67364e-06 0)
(0.0346909 -8.32798e-06 0)
(0.0346905 -8.96685e-06 0)
(0.0346902 -9.56988e-06 0)
(0.0346899 -1.0152e-05 0)
(0.0346898 -1.06919e-05 0)
(0.0346938 -5.04966e-07 0)
(0.0346923 -1.20689e-06 0)
(0.0346922 -1.96293e-06 0)
(0.034692 -2.72557e-06 0)
(0.0346918 -3.48733e-06 0)
(0.0346916 -4.24299e-06 0)
(0.0346913 -4.99325e-06 0)
(0.034691 -5.73181e-06 0)
(0.0346906 -6.46208e-06 0)
(0.0346903 -7.17371e-06 0)
(0.0346899 -7.87473e-06 0)
(0.0346895 -8.54798e-06 0)
(0.0346891 -9.20748e-06 0)
(0.0346888 -9.82785e-06 0)
(0.0346886 -1.04293e-05 0)
(0.0346884 -1.09837e-05 0)
(0.0346923 -5.17107e-07 0)
(0.0346908 -1.2349e-06 0)
(0.0346907 -2.00874e-06 0)
(0.0346905 -2.7897e-06 0)
(0.0346903 -3.57019e-06 0)
(0.0346901 -4.3452e-06 0)
(0.0346898 -5.11531e-06 0)
(0.0346895 -5.87434e-06 0)
(0.0346892 -6.62574e-06 0)
(0.0346888 -7.35862e-06 0)
(0.0346884 -8.08196e-06 0)
(0.0346881 -8.77606e-06 0)
(0.0346877 -9.45813e-06 0)
(0.0346874 -1.00969e-05 0)
(0.0346872 -1.07184e-05 0)
(0.034687 -1.12861e-05 0)
(0.0346908 -5.29104e-07 0)
(0.0346892 -1.26123e-06 0)
(0.0346891 -2.05188e-06 0)
(0.034689 -2.85028e-06 0)
(0.0346888 -3.6487e-06 0)
(0.0346886 -4.44252e-06 0)
(0.0346883 -5.23207e-06 0)
(0.034688 -6.01157e-06 0)
(0.0346877 -6.78423e-06 0)
(0.0346874 -7.53904e-06 0)
(0.034687 -8.28538e-06 0)
(0.0346867 -9.00134e-06 0)
(0.0346863 -9.70699e-06 0)
(0.0346861 -1.03644e-05 0)
(0.0346859 -1.10061e-05 0)
(0.0346857 -1.1586e-05 0)
(0.0346892 -5.40381e-07 0)
(0.0346876 -1.28436e-06 0)
(0.0346875 -2.08983e-06 0)
(0.0346874 -2.90375e-06 0)
(0.0346872 -3.71827e-06 0)
(0.034687 -4.52923e-06 0)
(0.0346868 -5.33665e-06 0)
(0.0346865 -6.13547e-06 0)
(0.0346862 -6.92827e-06 0)
(0.0346859 -7.70455e-06 0)
(0.0346855 -8.4734e-06 0)
(0.0346852 -9.21148e-06 0)
(0.0346849 -9.94099e-06 0)
(0.0346847 -1.0617e-05 0)
(0.0346845 -1.12797e-05 0)
(0.0346844 -1.18703e-05 0)
(0.0346876 -5.50281e-07 0)
(0.034686 -1.30262e-06 0)
(0.0346859 -2.11986e-06 0)
(0.0346858 -2.94625e-06 0)
(0.0346856 -3.77381e-06 0)
(0.0346854 -4.59897e-06 0)
(0.0346852 -5.42135e-06 0)
(0.0346849 -6.23688e-06 0)
(0.0346846 -7.04723e-06 0)
(0.0346843 -7.84313e-06 0)
(0.034684 -8.63255e-06 0)
(0.0346837 -9.39211e-06 0)
(0.0346835 -1.01448e-05 0)
(0.0346833 -1.08396e-05 0)
(0.0346831 -1.15252e-05 0)
(0.0346831 -1.21248e-05 0)
(0.034686 -5.58091e-07 0)
(0.0346843 -1.31429e-06 0)
(0.0346842 -2.13916e-06 0)
(0.0346841 -2.9738e-06 0)
(0.034684 -3.81014e-06 0)
(0.0346838 -4.64526e-06 0)
(0.0346836 -5.4783e-06 0)
(0.0346833 -6.3064e-06 0)
(0.034683 -7.13007e-06 0)
(0.0346828 -7.94198e-06 0)
(0.0346825 -8.74814e-06 0)
(0.0346822 -9.52713e-06 0)
(0.034682 -1.03006e-05 0)
(0.0346819 -1.10145e-05 0)
(0.0346818 -1.17242e-05 0)
(0.0346818 -1.233e-05 0)
(0.0346843 -5.63079e-07 0)
(0.0346826 -1.31789e-06 0)
(0.0346826 -2.14531e-06 0)
(0.0346824 -2.98307e-06 0)
(0.0346823 -3.82307e-06 0)
(0.0346821 -4.66298e-06 0)
(0.0346819 -5.50133e-06 0)
(0.0346817 -6.3365e-06 0)
(0.0346814 -7.16758e-06 0)
(0.0346812 -7.98965e-06 0)
(0.0346809 -8.80603e-06 0)
(0.0346807 -9.59911e-06 0)
(0.0346806 -1.03866e-05 0)
(0.0346805 -1.1117e-05 0)
(0.0346805 -1.18441e-05 0)
(0.0346805 -1.24505e-05 0)
(0.0346827 -5.64606e-07 0)
(0.0346809 -1.31225e-06 0)
(0.0346809 -2.13637e-06 0)
(0.0346807 -2.97123e-06 0)
(0.0346806 -3.80876e-06 0)
(0.0346804 -4.64706e-06 0)
(0.0346802 -5.48375e-06 0)
(0.03468 -6.31826e-06 0)
(0.0346798 -7.14814e-06 0)
(0.0346796 -7.97079e-06 0)
(0.0346794 -8.78632e-06 0)
(0.0346792 -9.58189e-06 0)
(0.0346791 -1.03691e-05 0)
(0.0346791 -1.11039e-05 0)
(0.0346791 -1.18314e-05 0)
(0.0346793 -1.2432e-05 0)
(0.034681 -5.62173e-07 0)
(0.0346792 -1.2949e-06 0)
(0.0346791 -2.10813e-06 0)
(0.034679 -2.93203e-06 0)
(0.0346789 -3.75839e-06 0)
(0.0346788 -4.58556e-06 0)
(0.0346786 -5.41035e-06 0)
(0.0346784 -6.23301e-06 0)
(0.0346782 -7.04932e-06 0)
(0.034678 -7.85868e-06 0)
(0.0346778 -8.65775e-06 0)
(0.0346777 -9.43836e-06 0)
(0.0346776 -1.02052e-05 0)
(0.0346777 -1.09241e-05 0)
(0.0346779 -1.1629e-05 0)
(0.0346782 -1.2214e-05 0)
(0.0346792 -5.54734e-07 0)
(0.0346775 -1.26191e-06 0)
(0.0346775 -2.05414e-06 0)
(0.0346774 -2.85642e-06 0)
(0.0346772 -3.66029e-06 0)
(0.0346771 -4.46427e-06 0)
(0.0346769 -5.26436e-06 0)
(0.0346768 -6.06146e-06 0)
(0.0346766 -6.84944e-06 0)
(0.0346764 -7.6295e-06 0)
(0.0346763 -8.39472e-06 0)
(0.0346762 -9.14155e-06 0)
(0.0346762 -9.86762e-06 0)
(0.0346764 -1.05504e-05 0)
(0.0346767 -1.12105e-05 0)
(0.0346772 -1.17677e-05 0)
(0.0346775 -5.40604e-07 0)
(0.0346759 -1.21088e-06 0)
(0.0346758 -1.97053e-06 0)
(0.0346757 -2.73911e-06 0)
(0.0346756 -3.50799e-06 0)
(0.0346755 -4.27575e-06 0)
(0.0346754 -5.03757e-06 0)
(0.0346752 -5.79483e-06 0)
(0.0346751 -6.53968e-06 0)
(0.034675 -7.27499e-06 0)
(0.0346749 -7.99056e-06 0)
(0.0346749 -8.68766e-06 0)
(0.0346749 -9.35755e-06 0)
(0.0346752 -9.9906e-06 0)
(0.0346756 -1.05946e-05 0)
(0.0346762 -1.11205e-05 0)
(0.0346759 -5.18752e-07 0)
(0.0346743 -1.14205e-06 0)
(0.0346743 -1.85777e-06 0)
(0.0346742 -2.58086e-06 0)
(0.0346741 -3.30265e-06 0)
(0.034674 -4.02169e-06 0)
(0.0346739 -4.73254e-06 0)
(0.0346738 -5.43701e-06 0)
(0.0346737 -6.1258e-06 0)
(0.0346736 -6.80357e-06 0)
(0.0346736 -7.4574e-06 0)
(0.0346736 -8.09361e-06 0)
(0.0346738 -8.69811e-06 0)
(0.0346741 -9.27499e-06 0)
(0.0346746 -9.81992e-06 0)
(0.0346753 -1.03164e-05 0)
(0.0346744 -4.89288e-07 0)
(0.0346729 -1.05843e-06 0)
(0.0346729 -1.72078e-06 0)
(0.0346728 -2.38858e-06 0)
(0.0346727 -3.05325e-06 0)
(0.0346726 -3.71328e-06 0)
(0.0346725 -4.36286e-06 0)
(0.0346725 -5.00424e-06 0)
(0.0346724 -5.6272e-06 0)
(0.0346724 -6.23828e-06 0)
(0.0346724 -6.82259e-06 0)
(0.0346725 -7.3915e-06 0)
(0.0346727 -7.92673e-06 0)
(0.0346731 -8.4454e-06 0)
(0.0346737 -8.93215e-06 0)
(0.0346745 -9.40086e-06 0)
(0.0346729 -4.53497e-07 0)
(0.0346716 -9.64983e-07 0)
(0.0346716 -1.56773e-06 0)
(0.0346715 -2.17376e-06 0)
(0.0346715 -2.77468e-06 0)
(0.0346714 -3.36889e-06 0)
(0.0346713 -3.95043e-06 0)
(0.0346713 -4.52201e-06 0)
(0.0346713 -5.07309e-06 0)
(0.0346713 -5.6121e-06 0)
(0.0346714 -6.12302e-06 0)
(0.0346715 -6.62189e-06 0)
(0.0346718 -7.0875e-06 0)
(0.0346722 -7.54828e-06 0)
(0.0346729 -7.97934e-06 0)
(0.0346737 -8.42115e-06 0)
(0.0346716 -4.13502e-07 0)
(0.0346705 -8.67231e-07 0)
(0.0346704 -1.40778e-06 0)
(0.0346704 -1.94947e-06 0)
(0.0346704 -2.48414e-06 0)
(0.0346703 -3.00998e-06 0)
(0.0346703 -3.521e-06 0)
(0.0346703 -4.02027e-06 0)
(0.0346703 -4.49744e-06 0)
(0.0346704 -4.96265e-06 0)
(0.0346705 -5.39964e-06 0)
(0.0346707 -5.82829e-06 0)
(0.034671 -6.226e-06 0)
(0.0346715 -6.63006e-06 0)
(0.0346722 -7.00836e-06 0)
(0.0346731 -7.42315e-06 0)
(0.0346705 -3.71665e-07 0)
(0.0346695 -7.70013e-07 0)
(0.0346695 -1.24899e-06 0)
(0.0346694 -1.72734e-06 0)
(0.0346694 -2.19721e-06 0)
(0.0346694 -2.65646e-06 0)
(0.0346694 -3.099e-06 0)
(0.0346694 -3.52794e-06 0)
(0.0346695 -3.93347e-06 0)
(0.0346696 -4.32699e-06 0)
(0.0346698 -4.6927e-06 0)
(0.03467 -5.05312e-06 0)
(0.0346704 -5.38578e-06 0)
(0.0346709 -5.73439e-06 0)
(0.0346716 -6.06252e-06 0)
(0.0346724 -6.44895e-06 0)
(0.0346695 -3.30046e-07 0)
(0.0346686 -6.76893e-07 0)
(0.0346686 -1.09722e-06 0)
(0.0346686 -1.5157e-06 0)
(0.0346686 -1.92509e-06 0)
(0.0346687 -2.32295e-06 0)
(0.0346687 -2.70298e-06 0)
(0.0346688 -3.06788e-06 0)
(0.0346689 -3.40843e-06 0)
(0.034669 -3.73655e-06 0)
(0.0346692 -4.0372e-06 0)
(0.0346695 -4.33416e-06 0)
(0.0346699 -4.60613e-06 0)
(0.0346704 -4.90055e-06 0)
(0.0346711 -5.18037e-06 0)
(0.0346719 -5.53553e-06 0)