/*--------------------------------*- C++ -*----------------------------------*\
| =========                 |                                                 |
| \\      /  F ield         | foam-extend: Open Source CFD                    |
|  \\    /   O peration     | Version:     4.1-20200408                       |
|   \\  /    A nd           | Web:         http://www.foam-extend.org         |
|    \\/     M anipulation  |                                                 |
\*---------------------------------------------------------------------------*/
FoamFile
{
    version     2.0;
    format      ascii;
    class       volVectorField;
    location    "0.0350000";
    object      U_0_0;
}
// * * * * * * * * * * * * * * * * * * * * * * * * * * * * * * * * * * * * * //

dimensions      [0 1 0 0 0 0 0];

internalField   nonuniform List<vector> 
1952
(
(0.034656 -8.90591e-07 0)
(0.0346559 -1.44965e-06 0)
(0.0346558 -2.01597e-06 0)
(0.0346556 -2.58338e-06 0)
(0.0346554 -3.15151e-06 0)
(0.0346551 -3.71746e-06 0)
(0.0346548 -4.28273e-06 0)
(0.0346544 -4.84331e-06 0)
(0.034654 -5.40105e-06 0)
(0.0346537 -5.95107e-06 0)
(0.0346533 -6.49296e-06 0)
(0.034653 -7.02344e-06 0)
(0.0346528 -7.5339e-06 0)
(0.0346527 -8.02765e-06 0)
(0.0346527 -8.48112e-06 0)
(0.0346561 -3.81537e-07 0)
(0.0346549 -8.94097e-07 0)
(0.0346548 -1.45534e-06 0)
(0.0346546 -2.02384e-06 0)
(0.0346544 -2.59342e-06 0)
(0.0346542 -3.16372e-06 0)
(0.0346539 -3.73173e-06 0)
(0.0346536 -4.29906e-06 0)
(0.0346532 -4.86158e-06 0)
(0.0346529 -5.42121e-06 0)
(0.0346525 -5.973e-06 0)
(0.0346522 -6.51667e-06 0)
(0.0346518 -7.04862e-06 0)
(0.0346516 -7.5606e-06 0)
(0.0346515 -8.05554e-06 0)
(0.0346515 -8.51027e-06 0)
(0.0346549 -3.8304e-07 0)
(0.0346537 -8.9739e-07 0)
(0.0346536 -1.46068e-06 0)
(0.0346535 -2.03126e-06 0)
(0.0346533 -2.60288e-06 0)
(0.034653 -3.17519e-06 0)
(0.0346527 -3.74518e-06 0)
(0.0346524 -4.31441e-06 0)
(0.0346521 -4.87879e-06 0)
(0.0346517 -5.44017e-06 0)
(0.0346513 -5.99361e-06 0)
(0.034651 -6.53897e-06 0)
(0.0346507 -7.07235e-06 0)
(0.0346505 -7.58582e-06 0)
(0.0346503 -8.08199e-06 0)
(0.0346503 -8.53805e-06 0)
(0.0346538 -3.8445e-07 0)
(0.0346526 -9.00502e-07 0)
(0.0346524 -1.46572e-06 0)
(0.0346523 -2.03827e-06 0)
(0.0346521 -2.61181e-06 0)
(0.0346519 -3.18603e-06 0)
(0.0346516 -3.75789e-06 0)
(0.0346512 -4.32894e-06 0)
(0.0346509 -4.89509e-06 0)
(0.0346505 -5.45815e-06 0)
(0.0346501 -6.01317e-06 0)
(0.0346498 -6.56015e-06 0)
(0.0346495 -7.09496e-06 0)
(0.0346493 -7.6099e-06 0)
(0.0346491 -8.10736e-06 0)
(0.0346492 -8.56479e-06 0)
(0.0346526 -3.85782e-07 0)
(0.0346514 -9.03469e-07 0)
(0.0346513 -1.47053e-06 0)
(0.0346511 -2.04496e-06 0)
(0.0346509 -2.62033e-06 0)
(0.0346507 -3.19639e-06 0)
(0.0346504 -3.77004e-06 0)
(0.0346501 -4.34282e-06 0)
(0.0346497 -4.91068e-06 0)
(0.0346493 -5.47538e-06 0)
(0.034649 -6.03192e-06 0)
(0.0346486 -6.58046e-06 0)
(0.0346483 -7.11668e-06 0)
(0.0346481 -7.63308e-06 0)
(0.034648 -8.13183e-06 0)
(0.034648 -8.59066e-06 0)
(0.0346514 -3.87051e-07 0)
(0.0346502 -9.06309e-07 0)
(0.0346501 -1.47513e-06 0)
(0.0346499 -2.05136e-06 0)
(0.0346497 -2.62849e-06 0)
(0.0346495 -3.2063e-06 0)
(0.0346492 -3.78166e-06 0)
(0.0346489 -4.35613e-06 0)
(0.0346485 -4.92561e-06 0)
(0.0346482 -5.49191e-06 0)
(0.0346478 -6.04996e-06 0)
(0.0346474 -6.60003e-06 0)
(0.0346471 -7.13767e-06 0)
(0.0346469 -7.65554e-06 0)
(0.0346468 -8.15561e-06 0)
(0.0346468 -8.61586e-06 0)
(0.0346502 -3.88267e-07 0)
(0.034649 -9.09045e-07 0)
(0.0346489 -1.47957e-06 0)
(0.0346488 -2.05753e-06 0)
(0.0346486 -2.63635e-06 0)
(0.0346483 -3.21587e-06 0)
(0.034648 -3.79286e-06 0)
(0.0346477 -4.369e-06 0)
(0.0346473 -4.93999e-06 0)
(0.034647 -5.50791e-06 0)
(0.0346466 -6.06752e-06 0)
(0.0346463 -6.61909e-06 0)
(0.0346459 -7.15819e-06 0)
(0.0346457 -7.67753e-06 0)
(0.0346456 -8.17897e-06 0)
(0.0346456 -8.64066e-06 0)
(0.0346491 -3.89437e-07 0)
(0.0346478 -9.11697e-07 0)
(0.0346477 -1.48387e-06 0)
(0.0346476 -2.06351e-06 0)
(0.0346474 -2.64397e-06 0)
(0.0346471 -3.22517e-06 0)
(0.0346468 -3.80373e-06 0)
(0.0346465 -4.38153e-06 0)
(0.0346462 -4.95402e-06 0)
(0.0346458 -5.52358e-06 0)
(0.0346454 -6.08471e-06 0)
(0.0346451 -6.6378e-06 0)
(0.0346448 -7.17836e-06 0)
(0.0346445 -7.69918e-06 0)
(0.0346444 -8.20204e-06 0)
(0.0346444 -8.66515e-06 0)
(0.0346479 -3.90572e-07 0)
(0.0346467 -9.14285e-07 0)
(0.0346465 -1.48806e-06 0)
(0.0346464 -2.06936e-06 0)
(0.0346462 -2.65142e-06 0)
(0.034646 -3.23428e-06 0)
(0.0346457 -3.81439e-06 0)
(0.0346453 -4.39384e-06 0)
(0.034645 -4.96783e-06 0)
(0.0346446 -5.53899e-06 0)
(0.0346442 -6.10163e-06 0)
(0.0346439 -6.65627e-06 0)
(0.0346436 -7.19829e-06 0)
(0.0346433 -7.72062e-06 0)
(0.0346432 -8.22489e-06 0)
(0.0346432 -8.68942e-06 0)
(0.0346467 -3.91679e-07 0)
(0.0346455 -9.16826e-07 0)
(0.0346454 -1.49218e-06 0)
(0.0346452 -2.07511e-06 0)
(0.034645 -2.65874e-06 0)
(0.0346448 -3.24325e-06 0)
(0.0346445 -3.82489e-06 0)
(0.0346441 -4.40598e-06 0)
(0.0346438 -4.98145e-06 0)
(0.0346434 -5.55421e-06 0)
(0.034643 -6.11834e-06 0)
(0.0346427 -6.67455e-06 0)
(0.0346424 -7.21803e-06 0)
(0.0346421 -7.74188e-06 0)
(0.034642 -8.24757e-06 0)
(0.034642 -8.71354e-06 0)
(0.0346455 -3.92766e-07 0)
(0.0346443 -9.19332e-07 0)
(0.0346442 -1.49624e-06 0)
(0.034644 -2.08078e-06 0)
(0.0346438 -2.66596e-06 0)
(0.0346436 -3.25211e-06 0)
(0.0346433 -3.83528e-06 0)
(0.0346429 -4.418e-06 0)
(0.0346426 -4.99497e-06 0)
(0.0346422 -5.56931e-06 0)
(0.0346418 -6.13493e-06 0)
(0.0346415 -6.69272e-06 0)
(0.0346412 -7.23766e-06 0)
(0.0346409 -7.76304e-06 0)
(0.0346408 -8.27012e-06 0)
(0.0346408 -8.73751e-06 0)
(0.0346443 -3.93837e-07 0)
(0.0346431 -9.21818e-07 0)
(0.034643 -1.50028e-06 0)
(0.0346428 -2.08642e-06 0)
(0.0346426 -2.67314e-06 0)
(0.0346424 -3.26091e-06 0)
(0.0346421 -3.8456e-06 0)
(0.0346418 -4.42993e-06 0)
(0.0346414 -5.00837e-06 0)
(0.034641 -5.58429e-06 0)
(0.0346406 -6.15139e-06 0)
(0.0346403 -6.71074e-06 0)
(0.03464 -7.25713e-06 0)
(0.0346397 -7.78404e-06 0)
(0.0346396 -8.2925e-06 0)
(0.0346396 -8.7613e-06 0)
(0.0346431 -3.94901e-07 0)
(0.0346419 -9.24274e-07 0)
(0.0346418 -1.50426e-06 0)
(0.0346416 -2.09198e-06 0)
(0.0346414 -2.68023e-06 0)
(0.0346412 -3.2696e-06 0)
(0.0346409 -3.85577e-06 0)
(0.0346405 -4.44171e-06 0)
(0.0346402 -5.02159e-06 0)
(0.0346398 -5.59908e-06 0)
(0.0346394 -6.16772e-06 0)
(0.0346391 -6.72866e-06 0)
(0.0346388 -7.27653e-06 0)
(0.0346385 -7.80499e-06 0)
(0.0346384 -8.31489e-06 0)
(0.0346384 -8.78512e-06 0)
(0.0346419 -3.95951e-07 0)
(0.0346407 -9.26715e-07 0)
(0.0346406 -1.50822e-06 0)
(0.0346404 -2.09751e-06 0)
(0.0346402 -2.68729e-06 0)
(0.03464 -3.27825e-06 0)
(0.0346397 -3.86594e-06 0)
(0.0346393 -4.45349e-06 0)
(0.034639 -5.03487e-06 0)
(0.0346386 -5.61395e-06 0)
(0.0346382 -6.18406e-06 0)
(0.0346379 -6.7466e-06 0)
(0.0346376 -7.29593e-06 0)
(0.0346373 -7.82594e-06 0)
(0.0346372 -8.33724e-06 0)
(0.0346372 -8.80888e-06 0)
(0.0346407 -3.96995e-07 0)
(0.0346395 -9.29139e-07 0)
(0.0346394 -1.51215e-06 0)
(0.0346392 -2.10301e-06 0)
(0.034639 -2.6943e-06 0)
(0.0346388 -3.28685e-06 0)
(0.0346385 -3.87604e-06 0)
(0.0346381 -4.46519e-06 0)
(0.0346378 -5.04804e-06 0)
(0.0346374 -5.62868e-06 0)
(0.034637 -6.20028e-06 0)
(0.0346367 -6.76439e-06 0)
(0.0346363 -7.31518e-06 0)
(0.0346361 -7.84675e-06 0)
(0.034636 -8.35943e-06 0)
(0.034636 -8.83247e-06 0)
(0.0346395 -3.98032e-07 0)
(0.0346383 -9.31534e-07 0)
(0.0346382 -1.51604e-06 0)
(0.034638 -2.10843e-06 0)
(0.0346378 -2.70124e-06 0)
(0.0346376 -3.29534e-06 0)
(0.0346373 -3.88603e-06 0)
(0.0346369 -4.47674e-06 0)
(0.0346366 -5.06107e-06 0)
(0.0346362 -5.64331e-06 0)
(0.0346358 -6.21643e-06 0)
(0.0346354 -6.78215e-06 0)
(0.0346351 -7.33441e-06 0)
(0.0346349 -7.86757e-06 0)
(0.0346348 -8.38167e-06 0)
(0.0346348 -8.85614e-06 0)
(0.0346383 -3.99056e-07 0)
(0.0346371 -9.33912e-07 0)
(0.034637 -1.51991e-06 0)
(0.0346368 -2.11383e-06 0)
(0.0346366 -2.70815e-06 0)
(0.0346364 -3.3038e-06 0)
(0.034636 -3.89603e-06 0)
(0.0346357 -4.48828e-06 0)
(0.0346353 -5.07417e-06 0)
(0.034635 -5.65798e-06 0)
(0.0346346 -6.23258e-06 0)
(0.0346342 -6.79986e-06 0)
(0.0346339 -7.3536e-06 0)
(0.0346337 -7.88824e-06 0)
(0.0346335 -8.40381e-06 0)
(0.0346336 -8.87976e-06 0)
(0.0346371 -4.00074e-07 0)
(0.0346359 -9.36266e-07 0)
(0.0346358 -1.52374e-06 0)
(0.0346356 -2.11916e-06 0)
(0.0346354 -2.715e-06 0)
(0.0346351 -3.31216e-06 0)
(0.0346348 -3.90592e-06 0)
(0.0346345 -4.49968e-06 0)
(0.0346341 -5.08713e-06 0)
(0.0346338 -5.67252e-06 0)
(0.0346334 -6.24862e-06 0)
(0.034633 -6.81744e-06 0)
(0.0346327 -7.37269e-06 0)
(0.0346325 -7.90881e-06 0)
(0.0346323 -8.42589e-06 0)
(0.0346323 -8.90332e-06 0)
(0.0346359 -4.01081e-07 0)
(0.0346347 -9.38598e-07 0)
(0.0346345 -1.52753e-06 0)
(0.0346344 -2.12445e-06 0)
(0.0346342 -2.7218e-06 0)
(0.0346339 -3.32046e-06 0)
(0.0346336 -3.91576e-06 0)
(0.0346333 -4.511e-06 0)
(0.0346329 -5.1e-06 0)
(0.0346325 -5.68695e-06 0)
(0.0346321 -6.2646e-06 0)
(0.0346318 -6.83496e-06 0)
(0.0346315 -7.39175e-06 0)
(0.0346312 -7.92938e-06 0)
(0.0346311 -8.44797e-06 0)
(0.0346311 -8.92688e-06 0)
(0.0346347 -4.02079e-07 0)
(0.0346334 -9.40909e-07 0)
(0.0346333 -1.53129e-06 0)
(0.0346332 -2.12969e-06 0)
(0.034633 -2.72853e-06 0)
(0.0346327 -3.32868e-06 0)
(0.0346324 -3.92552e-06 0)
(0.0346321 -4.52224e-06 0)
(0.0346317 -5.1128e-06 0)
(0.0346313 -5.7013e-06 0)
(0.0346309 -6.28051e-06 0)
(0.0346306 -6.85242e-06 0)
(0.0346302 -7.41076e-06 0)
(0.03463 -7.9499e-06 0)
(0.0346299 -8.46999e-06 0)
(0.0346299 -8.95039e-06 0)
(0.0346335 -4.03068e-07 0)
(0.0346322 -9.43206e-07 0)
(0.0346321 -1.53503e-06 0)
(0.034632 -2.1349e-06 0)
(0.0346317 -2.73522e-06 0)
(0.0346315 -3.33684e-06 0)
(0.0346312 -3.93523e-06 0)
(0.0346308 -4.53341e-06 0)
(0.0346305 -5.12554e-06 0)
(0.0346301 -5.71557e-06 0)
(0.0346297 -6.29635e-06 0)
(0.0346293 -6.86981e-06 0)
(0.034629 -7.42973e-06 0)
(0.0346288 -7.9704e-06 0)
(0.0346286 -8.492e-06 0)
(0.0346287 -8.97388e-06 0)
(0.0346323 -4.04051e-07 0)
(0.034631 -9.45488e-07 0)
(0.0346309 -1.53874e-06 0)
(0.0346307 -2.14009e-06 0)
(0.0346305 -2.74184e-06 0)
(0.0346303 -3.34493e-06 0)
(0.0346299 -3.94487e-06 0)
(0.0346296 -4.54451e-06 0)
(0.0346292 -5.13821e-06 0)
(0.0346288 -5.72975e-06 0)
(0.0346284 -6.31211e-06 0)
(0.0346281 -6.88714e-06 0)
(0.0346278 -7.44864e-06 0)
(0.0346275 -7.99085e-06 0)
(0.0346274 -8.51398e-06 0)
(0.0346274 -8.99735e-06 0)
(0.034631 -4.05028e-07 0)
(0.0346298 -9.47751e-07 0)
(0.0346297 -1.54242e-06 0)
(0.0346295 -2.14524e-06 0)
(0.0346293 -2.74843e-06 0)
(0.034629 -3.35296e-06 0)
(0.0346287 -3.95445e-06 0)
(0.0346284 -4.55555e-06 0)
(0.034628 -5.15081e-06 0)
(0.0346276 -5.74386e-06 0)
(0.0346272 -6.32779e-06 0)
(0.0346269 -6.90441e-06 0)
(0.0346265 -7.46748e-06 0)
(0.0346263 -8.01125e-06 0)
(0.0346262 -8.5359e-06 0)
(0.0346262 -9.02078e-06 0)
(0.0346298 -4.05997e-07 0)
(0.0346286 -9.49984e-07 0)
(0.0346284 -1.54607e-06 0)
(0.0346283 -2.15031e-06 0)
(0.0346281 -2.75498e-06 0)
(0.0346278 -3.36096e-06 0)
(0.0346275 -3.96397e-06 0)
(0.0346271 -4.56652e-06 0)
(0.0346268 -5.16332e-06 0)
(0.0346264 -5.75788e-06 0)
(0.034626 -6.34336e-06 0)
(0.0346256 -6.92158e-06 0)
(0.0346253 -7.48622e-06 0)
(0.0346251 -8.03156e-06 0)
(0.0346249 -8.55777e-06 0)
(0.0346249 -9.04416e-06 0)
(0.0346286 -4.06954e-07 0)
(0.0346273 -9.522e-07 0)
(0.0346272 -1.54969e-06 0)
(0.034627 -2.15533e-06 0)
(0.0346268 -2.76147e-06 0)
(0.0346266 -3.36889e-06 0)
(0.0346262 -3.97338e-06 0)
(0.0346259 -4.57741e-06 0)
(0.0346255 -5.1757e-06 0)
(0.0346251 -5.77181e-06 0)
(0.0346247 -6.35886e-06 0)
(0.0346244 -6.93864e-06 0)
(0.034624 -7.50488e-06 0)
(0.0346238 -8.0518e-06 0)
(0.0346237 -8.57956e-06 0)
(0.0346237 -9.06751e-06 0)
(0.0346274 -4.07904e-07 0)
(0.0346261 -9.544e-07 0)
(0.034626 -1.55328e-06 0)
(0.0346258 -2.16033e-06 0)
(0.0346256 -2.76789e-06 0)
(0.0346253 -3.37675e-06 0)
(0.034625 -3.98271e-06 0)
(0.0346247 -4.58821e-06 0)
(0.0346243 -5.18802e-06 0)
(0.0346239 -5.78566e-06 0)
(0.0346235 -6.37428e-06 0)
(0.0346231 -6.95562e-06 0)
(0.0346228 -7.52345e-06 0)
(0.0346226 -8.07196e-06 0)
(0.0346224 -8.60129e-06 0)
(0.0346224 -9.09084e-06 0)
(0.0346261 -4.08847e-07 0)
(0.0346249 -9.56587e-07 0)
(0.0346247 -1.55684e-06 0)
(0.0346246 -2.16529e-06 0)
(0.0346244 -2.77428e-06 0)
(0.0346241 -3.38458e-06 0)
(0.0346238 -3.99196e-06 0)
(0.0346234 -4.59898e-06 0)
(0.034623 -5.20032e-06 0)
(0.0346226 -5.79945e-06 0)
(0.0346222 -6.38964e-06 0)
(0.0346219 -6.97254e-06 0)
(0.0346215 -7.54198e-06 0)
(0.0346213 -8.0921e-06 0)
(0.0346212 -8.623e-06 0)
(0.0346212 -9.11419e-06 0)
(0.0346249 -4.09785e-07 0)
(0.0346236 -9.58778e-07 0)
(0.0346235 -1.56041e-06 0)
(0.0346233 -2.17027e-06 0)
(0.0346231 -2.78066e-06 0)
(0.0346228 -3.39241e-06 0)
(0.0346225 -4.00121e-06 0)
(0.0346222 -4.60972e-06 0)
(0.0346218 -5.21259e-06 0)
(0.0346214 -5.81322e-06 0)
(0.034621 -6.40498e-06 0)
(0.0346206 -6.98944e-06 0)
(0.0346203 -7.56049e-06 0)
(0.0346201 -8.11223e-06 0)
(0.0346199 -8.64475e-06 0)
(0.0346199 -9.13761e-06 0)
(0.0346237 -4.10724e-07 0)
(0.0346224 -9.60992e-07 0)
(0.0346223 -1.56401e-06 0)
(0.0346221 -2.17529e-06 0)
(0.0346219 -2.7871e-06 0)
(0.0346216 -3.40029e-06 0)
(0.0346213 -4.01053e-06 0)
(0.0346209 -4.62051e-06 0)
(0.0346205 -5.22489e-06 0)
(0.0346201 -5.82703e-06 0)
(0.0346197 -6.42035e-06 0)
(0.0346194 -7.00639e-06 0)
(0.034619 -7.57905e-06 0)
(0.0346188 -8.13245e-06 0)
(0.0346187 -8.6666e-06 0)
(0.0346187 -9.16117e-06 0)
(0.0346224 -4.11672e-07 0)
(0.0346211 -9.63259e-07 0)
(0.034621 -1.56769e-06 0)
(0.0346209 -2.18042e-06 0)
(0.0346206 -2.79367e-06 0)
(0.0346204 -3.40831e-06 0)
(0.03462 -4.02e-06 0)
(0.0346197 -4.63143e-06 0)
(0.0346193 -5.23733e-06 0)
(0.0346189 -5.84098e-06 0)
(0.0346185 -6.43585e-06 0)
(0.0346181 -7.02348e-06 0)
(0.0346178 -7.59776e-06 0)
(0.0346175 -8.15283e-06 0)
(0.0346174 -8.68864e-06 0)
(0.0346174 -9.18496e-06 0)
(0.0346212 -4.12643e-07 0)
(0.0346199 -9.65614e-07 0)
(0.0346198 -1.57152e-06 0)
(0.0346196 -2.18573e-06 0)
(0.0346194 -2.80046e-06 0)
(0.0346191 -3.41658e-06 0)
(0.0346188 -4.02974e-06 0)
(0.0346184 -4.64263e-06 0)
(0.034618 -5.25004e-06 0)
(0.0346176 -5.85519e-06 0)
(0.0346172 -6.45163e-06 0)
(0.0346168 -7.04084e-06 0)
(0.0346165 -7.61674e-06 0)
(0.0346163 -8.17351e-06 0)
(0.0346161 -8.711e-06 0)
(0.0346161 -9.20911e-06 0)
(0.0346199 -4.13652e-07 0)
(0.0346187 -9.6811e-07 0)
(0.0346185 -1.57556e-06 0)
(0.0346184 -2.19133e-06 0)
(0.0346181 -2.80761e-06 0)
(0.0346179 -3.42524e-06 0)
(0.0346175 -4.03992e-06 0)
(0.0346172 -4.65427e-06 0)
(0.0346168 -5.26323e-06 0)
(0.0346164 -5.86987e-06 0)
(0.034616 -6.46786e-06 0)
(0.0346156 -7.05866e-06 0)
(0.0346152 -7.63618e-06 0)
(0.034615 -8.19466e-06 0)
(0.0346148 -8.73383e-06 0)
(0.0346149 -9.2338e-06 0)
(0.0346187 -4.14721e-07 0)
(0.0346174 -9.70808e-07 0)
(0.0346173 -1.57993e-06 0)
(0.0346171 -2.19736e-06 0)
(0.0346169 -2.81529e-06 0)
(0.0346166 -3.43449e-06 0)
(0.0346163 -4.05076e-06 0)
(0.0346159 -4.66661e-06 0)
(0.0346155 -5.27713e-06 0)
(0.0346151 -5.88526e-06 0)
(0.0346147 -6.48481e-06 0)
(0.0346143 -7.07719e-06 0)
(0.034614 -7.65631e-06 0)
(0.0346137 -8.21651e-06 0)
(0.0346136 -8.75737e-06 0)
(0.0346136 -9.25925e-06 0)
(0.0346174 -4.15876e-07 0)
(0.0346162 -9.73794e-07 0)
(0.034616 -1.58475e-06 0)
(0.0346159 -2.20401e-06 0)
(0.0346156 -2.82372e-06 0)
(0.0346154 -3.44461e-06 0)
(0.034615 -4.06256e-06 0)
(0.0346147 -4.67994e-06 0)
(0.0346143 -5.29209e-06 0)
(0.0346138 -5.9017e-06 0)
(0.0346134 -6.50281e-06 0)
(0.034613 -7.09674e-06 0)
(0.0346127 -7.67745e-06 0)
(0.0346124 -8.23937e-06 0)
(0.0346123 -8.78192e-06 0)
(0.0346123 -9.28575e-06 0)
(0.0346162 -4.17156e-07 0)
(0.0346149 -9.77168e-07 0)
(0.0346148 -1.5902e-06 0)
(0.0346146 -2.21148e-06 0)
(0.0346144 -2.83319e-06 0)
(0.0346141 -3.45591e-06 0)
(0.0346138 -4.07569e-06 0)
(0.0346134 -4.69468e-06 0)
(0.034613 -5.30851e-06 0)
(0.0346126 -5.91963e-06 0)
(0.0346122 -6.5223e-06 0)
(0.0346118 -7.11775e-06 0)
(0.0346114 -7.70001e-06 0)
(0.0346112 -8.26364e-06 0)
(0.034611 -8.80787e-06 0)
(0.034611 -9.31368e-06 0)
(0.0346149 -4.18602e-07 0)
(0.0346136 -9.81068e-07 0)
(0.0346135 -1.59648e-06 0)
(0.0346133 -2.22009e-06 0)
(0.0346131 -2.84406e-06 0)
(0.0346128 -3.46884e-06 0)
(0.0346125 -4.09062e-06 0)
(0.0346121 -4.71134e-06 0)
(0.0346117 -5.32695e-06 0)
(0.0346113 -5.93958e-06 0)
(0.0346109 -6.54382e-06 0)
(0.0346105 -7.14076e-06 0)
(0.0346101 -7.72452e-06 0)
(0.0346099 -8.28981e-06 0)
(0.0346097 -8.83567e-06 0)
(0.0346097 -9.34352e-06 0)
(0.0346137 -4.20273e-07 0)
(0.0346124 -9.85641e-07 0)
(0.0346123 -1.60385e-06 0)
(0.0346121 -2.23016e-06 0)
(0.0346118 -2.85674e-06 0)
(0.0346116 -3.48386e-06 0)
(0.0346112 -4.10792e-06 0)
(0.0346109 -4.73054e-06 0)
(0.0346104 -5.34806e-06 0)
(0.03461 -5.96226e-06 0)
(0.0346096 -6.56809e-06 0)
(0.0346092 -7.16646e-06 0)
(0.0346088 -7.75167e-06 0)
(0.0346086 -8.31858e-06 0)
(0.0346084 -8.86599e-06 0)
(0.0346084 -9.37588e-06 0)
(0.0346124 -4.22234e-07 0)
(0.0346111 -9.91087e-07 0)
(0.034611 -1.61263e-06 0)
(0.0346108 -2.24213e-06 0)
(0.0346106 -2.8718e-06 0)
(0.0346103 -3.50166e-06 0)
(0.03461 -4.12833e-06 0)
(0.0346096 -4.75308e-06 0)
(0.0346092 -5.37271e-06 0)
(0.0346088 -5.98854e-06 0)
(0.0346083 -6.59599e-06 0)
(0.0346079 -7.19574e-06 0)
(0.0346076 -7.7823e-06 0)
(0.0346073 -8.35071e-06 0)
(0.0346071 -8.89957e-06 0)
(0.0346071 -9.4115e-06 0)
(0.0346112 -4.2457e-07 0)
(0.0346099 -9.97615e-07 0)
(0.0346097 -1.62314e-06 0)
(0.0346096 -2.25645e-06 0)
(0.0346093 -2.8898e-06 0)
(0.034609 -3.52287e-06 0)
(0.0346087 -4.15263e-06 0)
(0.0346083 -4.77988e-06 0)
(0.0346079 -5.40185e-06 0)
(0.0346075 -6.01945e-06 0)
(0.034607 -6.62857e-06 0)
(0.0346066 -7.22963e-06 0)
(0.0346063 -7.81746e-06 0)
(0.034606 -8.3872e-06 0)
(0.0346058 -8.93741e-06 0)
(0.0346058 -9.45136e-06 0)
(0.0346099 -4.27371e-07 0)
(0.0346086 -1.00547e-06 0)
(0.0346085 -1.63581e-06 0)
(0.0346083 -2.27369e-06 0)
(0.034608 -2.91147e-06 0)
(0.0346078 -3.54837e-06 0)
(0.0346074 -4.18184e-06 0)
(0.034607 -4.81207e-06 0)
(0.0346066 -5.43677e-06 0)
(0.0346062 -6.05634e-06 0)
(0.0346057 -6.66726e-06 0)
(0.0346053 -7.26959e-06 0)
(0.034605 -7.85859e-06 0)
(0.0346047 -8.42952e-06 0)
(0.0346045 -8.98086e-06 0)
(0.0346045 -9.49671e-06 0)
(0.0346086 -4.30743e-07 0)
(0.0346073 -1.01495e-06 0)
(0.0346072 -1.65109e-06 0)
(0.034607 -2.29451e-06 0)
(0.0346068 -2.93767e-06 0)
(0.0346065 -3.57926e-06 0)
(0.0346061 -4.21719e-06 0)
(0.0346058 -4.85098e-06 0)
(0.0346053 -5.47893e-06 0)
(0.0346049 -6.10077e-06 0)
(0.0346045 -6.71369e-06 0)
(0.034604 -7.31725e-06 0)
(0.0346037 -7.90732e-06 0)
(0.0346034 -8.47918e-06 0)
(0.0346032 -9.03135e-06 0)
(0.0346032 -9.54889e-06 0)
(0.0346073 -4.34809e-07 0)
(0.034606 -1.02632e-06 0)
(0.0346059 -1.66944e-06 0)
(0.0346057 -2.31957e-06 0)
(0.0346055 -2.96921e-06 0)
(0.0346052 -3.61655e-06 0)
(0.0346048 -4.25989e-06 0)
(0.0346045 -4.89803e-06 0)
(0.034604 -5.52994e-06 0)
(0.0346036 -6.15452e-06 0)
(0.0346032 -6.76981e-06 0)
(0.0346027 -7.37464e-06 0)
(0.0346024 -7.96569e-06 0)
(0.0346021 -8.53814e-06 0)
(0.0346019 -9.09076e-06 0)
(0.0346018 -9.60971e-06 0)
(0.034606 -4.3969e-07 0)
(0.0346047 -1.03988e-06 0)
(0.0346046 -1.69134e-06 0)
(0.0346044 -2.34951e-06 0)
(0.0346042 -3.00694e-06 0)
(0.0346039 -3.66127e-06 0)
(0.0346035 -4.3112e-06 0)
(0.0346032 -4.95475e-06 0)
(0.0346027 -5.59157e-06 0)
(0.0346023 -6.21959e-06 0)
(0.0346019 -6.83781e-06 0)
(0.0346014 -7.44407e-06 0)
(0.0346011 -8.03617e-06 0)
(0.0346008 -8.60884e-06 0)
(0.0346006 -9.16153e-06 0)
(0.0346005 -9.68151e-06 0)
(0.0346047 -4.45507e-07 0)
(0.0346034 -1.05583e-06 0)
(0.0346033 -1.71715e-06 0)
(0.0346031 -2.38487e-06 0)
(0.0346029 -3.05161e-06 0)
(0.0346026 -3.7144e-06 0)
(0.0346022 -4.37237e-06 0)
(0.0346019 -5.02274e-06 0)
(0.0346014 -5.66576e-06 0)
(0.034601 -6.29827e-06 0)
(0.0346006 -6.92034e-06 0)
(0.0346001 -7.52852e-06 0)
(0.0345998 -8.12195e-06 0)
(0.0345994 -8.69459e-06 0)
(0.0345992 -9.24693e-06 0)
(0.0345992 -9.76728e-06 0)
(0.0346034 -4.52353e-07 0)
(0.034602 -1.07439e-06 0)
(0.0346019 -1.7472e-06 0)
(0.0346018 -2.42617e-06 0)
(0.0346015 -3.10393e-06 0)
(0.0346012 -3.77695e-06 0)
(0.0346009 -4.44469e-06 0)
(0.0346005 -5.10354e-06 0)
(0.0346001 -5.75442e-06 0)
(0.0345997 -6.3929e-06 0)
(0.0345993 -7.0202e-06 0)
(0.0345988 -7.63121e-06 0)
(0.0345984 -8.22662e-06 0)
(0.0345981 -8.79906e-06 0)
(0.0345979 -9.35057e-06 0)
(0.0345978 -9.87023e-06 0)
(0.0346021 -4.60312e-07 0)
(0.0346007 -1.09557e-06 0)
(0.0346006 -1.78157e-06 0)
(0.0346004 -2.47354e-06 0)
(0.0346002 -3.16414e-06 0)
(0.0345999 -3.84928e-06 0)
(0.0345996 -4.52876e-06 0)
(0.0345992 -5.19817e-06 0)
(0.0345988 -5.85904e-06 0)
(0.0345984 -6.50559e-06 0)
(0.0345979 -7.14023e-06 0)
(0.0345975 -7.75579e-06 0)
(0.0345971 -8.35475e-06 0)
(0.0345968 -8.92755e-06 0)
(0.0345966 -9.47818e-06 0)
(0.0345965 -9.99574e-06 0)
(0.0346007 -4.69396e-07 0)
(0.0345993 -1.11928e-06 0)
(0.0345992 -1.82011e-06 0)
(0.034599 -2.52682e-06 0)
(0.0345988 -3.2321e-06 0)
(0.0345985 -3.93137e-06 0)
(0.0345982 -4.62474e-06 0)
(0.0345979 -5.30709e-06 0)
(0.0345975 -5.98052e-06 0)
(0.0345971 -6.63788e-06 0)
(0.0345966 -7.28289e-06 0)
(0.0345962 -7.90603e-06 0)
(0.0345958 -8.5119e-06 0)
(0.0345955 -9.08787e-06 0)
(0.0345952 -9.64026e-06 0)
(0.0345951 -1.01565e-05 0)
(0.0345993 -4.79564e-07 0)
(0.0345979 -1.1452e-06 0)
(0.0345978 -1.8623e-06 0)
(0.0345976 -2.58534e-06 0)
(0.0345974 -3.30703e-06 0)
(0.0345971 -4.02237e-06 0)
(0.0345968 -4.73178e-06 0)
(0.0345965 -5.42955e-06 0)
(0.0345961 -6.11832e-06 0)
(0.0345957 -6.78971e-06 0)
(0.0345953 -7.44887e-06 0)
(0.0345949 -8.08383e-06 0)
(0.0345945 -8.70191e-06 0)
(0.0345942 -9.28691e-06 0)
(0.0345939 -9.84869e-06 0)
(0.0345938 -1.03712e-05 0)
(0.0345979 -4.90674e-07 0)
(0.0345964 -1.17274e-06 0)
(0.0345963 -1.90722e-06 0)
(0.0345962 -2.64784e-06 0)
(0.034596 -3.38733e-06 0)
(0.0345957 -4.12038e-06 0)
(0.0345954 -4.84771e-06 0)
(0.0345951 -5.5632e-06 0)
(0.0345947 -6.26992e-06 0)
(0.0345943 -6.95844e-06 0)
(0.0345939 -7.6354e-06 0)
(0.0345935 -8.28633e-06 0)
(0.0345931 -8.92184e-06 0)
(0.0345928 -9.52163e-06 0)
(0.0345926 -1.01006e-05 0)
(0.0345924 -1.06375e-05 0)
(0.0345965 -5.0248e-07 0)
(0.034595 -1.20107e-06 0)
(0.0345949 -1.9535e-06 0)
(0.0345947 -2.71241e-06 0)
(0.0345945 -3.47056e-06 0)
(0.0345943 -4.22249e-06 0)
(0.034594 -4.96908e-06 0)
(0.0345937 -5.70405e-06 0)
(0.0345933 -6.43073e-06 0)
(0.0345929 -7.13885e-06 0)
(0.0345925 -7.83636e-06 0)
(0.0345922 -8.50621e-06 0)
(0.0345918 -9.16234e-06 0)
(0.0345915 -9.77949e-06 0)
(0.0345912 -1.03778e-05 0)
(0.0345911 -1.09291e-05 0)
(0.034595 -5.14619e-07 0)
(0.0345934 -1.22908e-06 0)
(0.0345933 -1.99931e-06 0)
(0.0345932 -2.77655e-06 0)
(0.034593 -3.55343e-06 0)
(0.0345928 -4.32471e-06 0)
(0.0345925 -5.09116e-06 0)
(0.0345922 -5.84659e-06 0)
(0.0345919 -6.59439e-06 0)
(0.0345915 -7.32377e-06 0)
(0.0345911 -8.0436e-06 0)
(0.0345908 -8.73432e-06 0)
(0.0345904 -9.41302e-06 0)
(0.0345901 -1.00486e-05 0)
(0.0345899 -1.0667e-05 0)
(0.0345897 -1.12317e-05 0)
(0.0345935 -5.26616e-07 0)
(0.0345919 -1.25544e-06 0)
(0.0345918 -2.04248e-06 0)
(0.0345917 -2.83718e-06 0)
(0.0345915 -3.632e-06 0)
(0.0345913 -4.42213e-06 0)
(0.034591 -5.20804e-06 0)
(0.0345907 -5.98394e-06 0)
(0.0345904 -6.75302e-06 0)
(0.03459 -7.50433e-06 0)
(0.0345897 -8.24718e-06 0)
(0.0345894 -8.95978e-06 0)
(0.034589 -9.66206e-06 0)
(0.0345888 -1.03164e-05 0)
(0.0345886 -1.0955e-05 0)
(0.0345884 -1.15319e-05 0)
(0.0345919 -5.37902e-07 0)
(0.0345903 -1.27861e-06 0)
(0.0345902 -2.0805e-06 0)
(0.0345901 -2.89075e-06 0)
(0.0345899 -3.7017e-06 0)
(0.0345897 -4.509e-06 0)
(0.0345895 -5.31283e-06 0)
(0.0345892 -6.10806e-06 0)
(0.0345889 -6.89732e-06 0)
(0.0345886 -7.67013e-06 0)
(0.0345882 -8.43553e-06 0)
(0.0345879 -9.17027e-06 0)
(0.0345876 -9.89645e-06 0)
(0.0345874 -1.05694e-05 0)
(0.0345872 -1.1229e-05 0)
(0.0345871 -1.18167e-05 0)
(0.0345903 -5.4782e-07 0)
(0.0345887 -1.29693e-06 0)
(0.0345886 -2.11064e-06 0)
(0.0345885 -2.93342e-06 0)
(0.0345883 -3.75744e-06 0)
(0.0345881 -4.57902e-06 0)
(0.0345879 -5.39785e-06 0)
(0.0345876 -6.20985e-06 0)
(0.0345873 -7.01672e-06 0)
(0.034587 -7.80918e-06 0)
(0.0345867 -8.5952e-06 0)
(0.0345865 -9.35147e-06 0)
(0.0345862 -1.01009e-05 0)
(0.034586 -1.07926e-05 0)
(0.0345859 -1.14752e-05 0)
(0.0345858 -1.20719e-05 0)
(0.0345887 -5.55658e-07 0)
(0.034587 -1.30869e-06 0)
(0.0345869 -2.13008e-06 0)
(0.0345868 -2.96118e-06 0)
(0.0345867 -3.79405e-06 0)
(0.0345865 -4.62565e-06 0)
(0.0345863 -5.45522e-06 0)
(0.034586 -6.27986e-06 0)
(0.0345857 -7.10014e-06 0)
(0.0345855 -7.90867e-06 0)
(0.0345852 -8.71153e-06 0)
(0.034585 -9.48727e-06 0)
(0.0345848 -1.02576e-05 0)
(0.0345846 -1.09685e-05 0)
(0.0345845 -1.1675e-05 0)
(0.0345845 -1.22783e-05 0)
(0.034587 -5.60684e-07 0)
(0.0345853 -1.31239e-06 0)
(0.0345853 -2.1364e-06 0)
(0.0345852 -2.97069e-06 0)
(0.034585 -3.80727e-06 0)
(0.0345848 -4.64375e-06 0)
(0.0345846 -5.47873e-06 0)
(0.0345844 -6.31052e-06 0)
(0.0345841 -7.13833e-06 0)
(0.0345839 -7.95715e-06 0)
(0.0345837 -8.77035e-06 0)
(0.0345835 -9.5603e-06 0)
(0.0345833 -1.03447e-05 0)
(0.0345832 -1.10723e-05 0)
(0.0345832 -1.17965e-05 0)
(0.0345833 -1.24006e-05 0)
(0.0345854 -5.62255e-07 0)
(0.0345836 -1.30688e-06 0)
(0.0345836 -2.12765e-06 0)
(0.0345835 -2.95911e-06 0)
(0.0345833 -3.7933e-06 0)
(0.0345832 -4.62827e-06 0)
(0.034583 -5.46175e-06 0)
(0.0345828 -6.29304e-06 0)
(0.0345825 -7.11981e-06 0)
(0.0345823 -7.93938e-06 0)
(0.0345821 -8.75195e-06 0)
(0.0345819 -9.54463e-06 0)
(0.0345818 -1.03291e-05 0)
(0.0345818 -1.10613e-05 0)
(0.0345819 -1.17863e-05 0)
(0.0345821 -1.23849e-05 0)
(0.0345837 -5.59873e-07 0)
(0.0345819 -1.2897e-06 0)
(0.0345819 -2.09969e-06 0)
(0.0345818 -2.92033e-06 0)
(0.0345816 -3.74347e-06 0)
(0.0345815 -4.56748e-06 0)
(0.0345813 -5.38924e-06 0)
(0.0345811 -6.20889e-06 0)
(0.0345809 -7.02232e-06 0)
(0.0345807 -7.82886e-06 0)
(0.0345805 -8.62525e-06 0)
(0.0345804 -9.40329e-06 0)
(0.0345804 -1.01677e-05 0)
(0.0345804 -1.08844e-05 0)
(0.0345806 -1.15872e-05 0)
(0.0345809 -1.21705e-05 0)
(0.034582 -5.52506e-07 0)
(0.0345803 -1.25697e-06 0)
(0.0345802 -2.04613e-06 0)
(0.0345801 -2.84533e-06 0)
(0.03458 -3.64619e-06 0)
(0.0345798 -4.44722e-06 0)
(0.0345797 -5.2445e-06 0)
(0.0345795 -6.03883e-06 0)
(0.0345793 -6.82423e-06 0)
(0.0345792 -7.60175e-06 0)
(0.034579 -8.36464e-06 0)
(0.034579 -9.10922e-06 0)
(0.034579 -9.83324e-06 0)
(0.0345791 -1.0514e-05 0)
(0.0345794 -1.11725e-05 0)
(0.0345799 -1.1728e-05 0)
(0.0345803 -5.38486e-07 0)
(0.0345786 -1.20629e-06 0)
(0.0345786 -1.96312e-06 0)
(0.0345785 -2.72885e-06 0)
(0.0345784 -3.49499e-06 0)
(0.0345782 -4.26004e-06 0)
(0.0345781 -5.01931e-06 0)
(0.034578 -5.77408e-06 0)
(0.0345778 -6.51663e-06 0)
(0.0345777 -7.2497e-06 0)
(0.0345776 -7.96326e-06 0)
(0.0345776 -8.65841e-06 0)
(0.0345777 -9.32653e-06 0)
(0.0345779 -9.95786e-06 0)
(0.0345783 -1.05603e-05 0)
(0.0345789 -1.10845e-05 0)
(0.0345787 -5.16789e-07 0)
(0.0345771 -1.13792e-06 0)
(0.034577 -1.85109e-06 0)
(0.034577 -2.57163e-06 0)
(0.0345769 -3.29096e-06 0)
(0.0345768 -4.00759e-06 0)
(0.0345766 -4.71617e-06 0)
(0.0345765 -5.41842e-06 0)
(0.0345764 -6.1052e-06 0)
(0.0345763 -6.781e-06 0)
(0.0345763 -7.43309e-06 0)
(0.0345764 -8.06761e-06 0)
(0.0345765 -8.67054e-06 0)
(0.0345768 -9.24586e-06 0)
(0.0345773 -9.78928e-06 0)
(0.034578 -1.02841e-05 0)
(0.0345771 -4.8752e-07 0)
(0.0345756 -1.05483e-06 0)
(0.0345756 -1.71495e-06 0)
(0.0345755 -2.38052e-06 0)
(0.0345755 -3.04303e-06 0)
(0.0345754 -3.70096e-06 0)
(0.0345753 -4.34855e-06 0)
(0.0345752 -4.988e-06 0)
(0.0345751 -5.60921e-06 0)
(0.0345751 -6.21857e-06 0)
(0.0345751 -6.80138e-06 0)
(0.0345752 -7.3688e-06 0)
(0.0345755 -7.90261e-06 0)
(0.0345758 -8.41985e-06 0)
(0.0345764 -8.90519e-06 0)
(0.0345772 -9.37236e-06 0)
(0.0345757 -4.51953e-07 0)
(0.0345744 -9.61927e-07 0)
(0.0345743 -1.56279e-06 0)
(0.0345743 -2.16692e-06 0)
(0.0345742 -2.76601e-06 0)
(0.0345741 -3.35841e-06 0)
(0.0345741 -3.93826e-06 0)
(0.034574 -4.50819e-06 0)
(0.034574 -5.05776e-06 0)
(0.034574 -5.59526e-06 0)
(0.0345741 -6.10489e-06 0)
(0.0345743 -6.60245e-06 0)
(0.0345746 -7.06676e-06 0)
(0.034575 -7.52623e-06 0)
(0.0345756 -7.95599e-06 0)
(0.0345765 -8.3963e-06 0)
(0.0345744 -4.12193e-07 0)
(0.0345732 -8.64702e-07 0)
(0.0345732 -1.40369e-06 0)
(0.0345732 -1.94381e-06 0)
(0.0345731 -2.47696e-06 0)
(0.0345731 -3.00131e-06 0)
(0.0345731 -3.51092e-06 0)
(0.034573 -4.0088e-06 0)
(0.0345731 -4.48468e-06 0)
(0.0345731 -4.94861e-06 0)
(0.0345732 -5.38447e-06 0)
(0.0345735 -5.81197e-06 0)
(0.0345738 -6.20848e-06 0)
(0.0345743 -6.61138e-06 0)
(0.0345749 -6.9885e-06 0)
(0.0345758 -7.40185e-06 0)
(0.0345732 -3.70582e-07 0)
(0.0345722 -7.67953e-07 0)
(0.0345722 -1.24567e-06 0)
(0.0345722 -1.72273e-06 0)
(0.0345722 -2.19139e-06 0)
(0.0345722 -2.64943e-06 0)
(0.0345722 -3.09082e-06 0)
(0.0345722 -3.51864e-06 0)
(0.0345723 -3.92311e-06 0)
(0.0345724 -4.31561e-06 0)
(0.0345725 -4.68031e-06 0)
(0.0345728 -5.03971e-06 0)
(0.0345732 -5.37131e-06 0)
(0.0345737 -5.71888e-06 0)
(0.0345743 -6.04598e-06 0)
(0.0345752 -6.43105e-06 0)
(0.0345722 -3.29164e-07 0)
(0.0345714 -6.75221e-07 0)
(0.0345714 -1.09453e-06 0)
(0.0345714 -1.51199e-06 0)
(0.0345714 -1.92044e-06 0)
(0.0345714 -2.31733e-06 0)
(0.0345715 -2.69644e-06 0)
(0.0345715 -3.06046e-06 0)
(0.0345716 -3.40017e-06 0)
(0.0345718 -3.72753e-06 0)
(0.034572 -4.02737e-06 0)
(0.0345723 -4.32344e-06 0)
(0.0345727 -4.59454e-06 0)
(0.0345732 -4.88801e-06 0)
(0.0345738 -5.16693e-06 0)
(0.0345747 -5.52079e-06 0)
(0.0345714 -2.89451e-07 0)
(0.0345707 -5.88945e-07 0)
(0.0345707 -9.54126e-07 0)
(0.0345708 -1.31675e-06 0)
(0.0345708 -1.67056e-06 0)
(0.0345708 -2.01308e-06 0)
(0.0345709 -2.33808e-06 0)
(0.034571 -2.64767e-06 0)
(0.0345711 -2.93291e-06 0)
(0.0345713 -3.2053e-06 0)
(0.0345716 -3.45049e-06 0)
(0.0345719 -3.69218e-06 0)
(0.0345723 -3.91089e-06 0)
(0.0345728 -4.15318e-06 0)
(0.0345734 -4.38538e-06 0)
(0.0345742 -4.7028e-06 0)
(0.0345707 -2.52494e-07 0)
(0.0345702 -5.10822e-07 0)
(0.0345702 -8.27118e-07 0)
(0.0345702 -1.14042e-06 0)
(0.0345703 -1.44533e-06 0)
(0.0345704 -1.73976e-06 0)
(0.0345705 -2.01835e-06 0)
(0.0345706 -2.28338e-06 0)
(0.0345708 -2.5261e-06 0)
(0.034571 -2.75616e-06 0)
(0.0345713 -2.9601e-06 0)
(0.0345716 -3.16143e-06 0)
(0.034572 -3.34242e-06 0)
(0.0345725 -3.54211e-06 0)
(0.0345731 -3.73125e-06 0)
(0.0345737 -4.00524e-06 0)