/*--------------------------------*- C++ -*----------------------------------*\
| =========                 |                                                 |
| \\      /  F ield         | foam-extend: Open Source CFD                    |
|  \\    /   O peration     | Version:     4.1-20200408                       |
|   \\  /    A nd           | Web:         http://www.foam-extend.org         |
|    \\/     M anipulation  |                                                 |
\*---------------------------------------------------------------------------*/
FoamFile
{
    version     2.0;
    format      ascii;
    class       volSymmTensorField;
    location    "0.0905000";
    object      epsilonTrue;
}
// * * * * * * * * * * * * * * * * * * * * * * * * * * * * * * * * * * * * * //

dimensions      [0 0 0 0 0 0 0];

internalField   nonuniform List<symmTensor> 
1952
(
(0.0919857 -0.00308938 -1.12416e-10 -0.0479711 5.4492e-10 -0.0480556)
(0.0919749 -0.00516385 -5.25449e-11 -0.0478592 -1.39777e-09 -0.0479956)
(0.0919682 -0.0069694 6.27437e-11 -0.0476699 -3.78393e-09 -0.0479547)
(0.0919568 -0.00864244 2.22325e-10 -0.0474745 2.88633e-09 -0.0478657)
(0.0919504 -0.0101004 -4.94974e-11 -0.0471961 7.49377e-09 -0.0477977)
(0.091945 -0.0113124 -4.32753e-10 -0.0469338 -3.09115e-10 -0.0476792)
(0.0919464 -0.0121962 -2.74751e-10 -0.0466155 -8.65511e-09 -0.0475878)
(0.0919556 -0.0127502 2.85211e-10 -0.0462873 -6.05652e-10 -0.0474489)
(0.0919747 -0.0128517 5.54008e-12 -0.0458908 7.60561e-09 -0.0473322)
(0.0920061 -0.0125016 -5.2784e-10 -0.0454163 -2.49363e-09 -0.0471673)
(0.0920464 -0.0114005 8.04484e-11 -0.044898 -7.69824e-09 -0.0470097)
(0.0920984 -0.00965249 4.53705e-10 -0.0441509 1.9199e-09 -0.0468101)
(0.092151 -0.0070767 -2.54642e-11 -0.0433958 7.55486e-09 -0.046586)
(0.0922028 -0.00401902 -3.83789e-10 -0.0426457 6.12372e-10 -0.0463363)
(0.0922486 -0.00187314 -1.8556e-10 -0.0422519 -2.60547e-09 -0.0460746)
(0.0919809 -0.00167931 -4.20548e-11 -0.0480512 -2.75444e-09 -0.0480492)
(0.0920523 -0.00307697 -1.527e-10 -0.0479739 5.44862e-10 -0.0480572)
(0.0920418 -0.00515686 -7.96321e-11 -0.0478609 -1.39799e-09 -0.0479983)
(0.0920358 -0.00694533 9.37312e-11 -0.047673 -3.78393e-09 -0.0479565)
(0.092025 -0.00862634 3.07158e-10 -0.0474773 2.88727e-09 -0.0478686)
(0.0920198 -0.0100649 -7.13272e-11 -0.0472001 7.4941e-09 -0.0477999)
(0.0920155 -0.0112857 -5.4796e-10 -0.0469384 -3.10158e-10 -0.0476825)
(0.0920188 -0.0121491 -3.0442e-10 -0.0466217 -8.6554e-09 -0.0475907)
(0.0920294 -0.0127132 3.36916e-10 -0.046295 -6.04407e-10 -0.047453)
(0.0920512 -0.0127939 -3.32649e-12 -0.0459007 7.60632e-09 -0.0473361)
(0.0920847 -0.0124537 -5.7343e-10 -0.0454292 -2.49516e-09 -0.0471727)
(0.0921283 -0.0113325 9.5708e-11 -0.0449145 -7.69969e-09 -0.0470153)
(0.0921839 -0.00959818 4.71509e-10 -0.0441722 1.92101e-09 -0.0468173)
(0.0922411 -0.00700717 -2.76275e-11 -0.0434228 7.55636e-09 -0.0465941)
(0.0922989 -0.00397546 -3.96025e-10 -0.0426833 6.12287e-10 -0.0463464)
(0.092353 -0.00184028 -1.91538e-10 -0.0422986 -2.60609e-09 -0.0460867)
(0.0920473 -0.0016789 -5.07681e-11 -0.0480526 -2.75445e-09 -0.0480515)
(0.0921149 -0.00307594 -1.52789e-10 -0.0479918 5.45072e-10 -0.0480748)
(0.0921046 -0.00515561 -7.96571e-11 -0.0478787 -1.39855e-09 -0.0480163)
(0.0920988 -0.00694315 9.38108e-11 -0.0476914 -3.78531e-09 -0.0479742)
(0.0920883 -0.00862412 3.07259e-10 -0.0474958 2.8886e-09 -0.0478868)
(0.0920836 -0.0100618 -7.14198e-11 -0.0472193 7.49702e-09 -0.047818)
(0.0920796 -0.0112823 -5.48274e-10 -0.0469583 -3.10516e-10 -0.0477011)
(0.0920835 -0.0121448 -3.04561e-10 -0.0466427 -8.65875e-09 -0.0476093)
(0.0920945 -0.0127096 3.36818e-10 -0.0463169 -6.04262e-10 -0.0474723)
(0.0921168 -0.01279 -3.38882e-12 -0.0459238 7.60958e-09 -0.0473556)
(0.0921507 -0.01245 -5.73714e-10 -0.045454 -2.4966e-09 -0.0471929)
(0.0921943 -0.0113283 9.57241e-11 -0.044941 -7.70336e-09 -0.0470359)
(0.0922488 -0.00959559 4.71673e-10 -0.0442 1.92226e-09 -0.0468387)
(0.0923035 -0.0070047 -2.76576e-11 -0.0434523 7.56003e-09 -0.0466159)
(0.0923544 -0.003975 -3.96163e-10 -0.0427125 6.12003e-10 -0.046369)
(0.0923939 -0.00184102 -1.91737e-10 -0.042323 -2.60746e-09 -0.0461094)
(0.0921099 -0.00167879 -5.08063e-11 -0.04807 -2.75535e-09 -0.0480693)
(0.0921794 -0.00307549 -1.52872e-10 -0.0480132 5.45343e-10 -0.048096)
(0.0921692 -0.00515525 -7.96789e-11 -0.0479 -1.39917e-09 -0.0480376)
(0.0921636 -0.00694231 9.38852e-11 -0.0477132 -3.78701e-09 -0.0479955)
(0.0921532 -0.00862349 3.07348e-10 -0.0475178 2.89001e-09 -0.0479084)
(0.0921487 -0.0100607 -7.14936e-11 -0.047242 7.50051e-09 -0.0478396)
(0.092145 -0.0112813 -5.48564e-10 -0.0469817 -3.10739e-10 -0.0477232)
(0.0921494 -0.0121434 -3.04741e-10 -0.0466672 -8.66284e-09 -0.0476316)
(0.0921606 -0.0127089 3.36705e-10 -0.046342 -6.04378e-10 -0.047495)
(0.092183 -0.0127895 -3.41845e-12 -0.04595 7.61339e-09 -0.0473786)
(0.0922172 -0.0124497 -5.74077e-10 -0.0454816 -2.49799e-09 -0.0472164)
(0.0922606 -0.0113281 9.57221e-11 -0.0449698 -7.70748e-09 -0.0470598)
(0.0923138 -0.0095969 4.71816e-10 -0.0442293 1.9235e-09 -0.0468632)
(0.0923665 -0.00700646 -2.76564e-11 -0.0434819 7.56418e-09 -0.0466407)
(0.0924139 -0.00397812 -3.96358e-10 -0.0427419 6.12049e-10 -0.0463943)
(0.0924481 -0.00184308 -1.92085e-10 -0.0423507 -2.60894e-09 -0.0461348)
(0.0921744 -0.00167891 -5.08245e-11 -0.0480912 -2.75646e-09 -0.0480905)
(0.0922477 -0.0030755 -1.52967e-10 -0.0480374 5.4565e-10 -0.04812)
(0.0922376 -0.00515554 -7.97096e-11 -0.0479243 -1.39988e-09 -0.0480618)
(0.0922321 -0.00694249 9.39581e-11 -0.0477378 -3.78894e-09 -0.0480197)
(0.0922219 -0.008624 3.07438e-10 -0.0475426 2.89157e-09 -0.0479328)
(0.0922177 -0.0100613 -7.15525e-11 -0.0472674 7.50446e-09 -0.0478641)
(0.0922144 -0.011282 -5.48878e-10 -0.047008 -3.10938e-10 -0.047748)
(0.092219 -0.0121441 -3.04955e-10 -0.0466944 -8.66748e-09 -0.0476566)
(0.0922302 -0.0127105 3.36591e-10 -0.0463699 -6.04614e-10 -0.0475205)
(0.0922526 -0.0127918 -3.42545e-12 -0.0459786 7.61766e-09 -0.0474044)
(0.0922859 -0.0124524 -5.74466e-10 -0.0455108 -2.49955e-09 -0.0472426)
(0.0923282 -0.0113308 9.57433e-11 -0.0449997 -7.71201e-09 -0.0470863)
(0.0923794 -0.00960053 4.72073e-10 -0.0442589 1.92485e-09 -0.04689)
(0.0924289 -0.00700987 -2.76402e-11 -0.0435113 7.56868e-09 -0.0466677)
(0.0924716 -0.00398129 -3.96672e-10 -0.0427703 6.12129e-10 -0.0464215)
(0.0924991 -0.00184492 -1.9237e-10 -0.0423769 -2.61054e-09 -0.0461621)
(0.0922427 -0.00167918 -5.08546e-11 -0.0481152 -2.75774e-09 -0.0481146)
(0.092318 -0.00307585 -1.53061e-10 -0.0480639 5.45986e-10 -0.0481465)
(0.092308 -0.00515641 -7.97354e-11 -0.047951 -1.40066e-09 -0.0480883)
(0.0923027 -0.00694352 9.40245e-11 -0.0477649 -3.79107e-09 -0.0480463)
(0.0922925 -0.00862559 3.07522e-10 -0.04757 2.89326e-09 -0.0479597)
(0.0922885 -0.0100633 -7.15983e-11 -0.0472952 7.5088e-09 -0.0478911)
(0.092285 -0.0112844 -5.49194e-10 -0.0470363 -3.11155e-10 -0.0477752)
(0.0922896 -0.0121469 -3.05202e-10 -0.0467232 -8.67256e-09 -0.047684)
(0.0923005 -0.0127143 3.36486e-10 -0.0463992 -6.04904e-10 -0.0475482)
(0.0923224 -0.0127965 -3.41082e-12 -0.0460082 7.62227e-09 -0.0474323)
(0.0923547 -0.0124573 -5.74842e-10 -0.0455407 -2.50113e-09 -0.0472707)
(0.0923956 -0.0113359 9.57464e-11 -0.0450297 -7.71678e-09 -0.0471146)
(0.0924447 -0.00960621 4.72353e-10 -0.0442884 1.92616e-09 -0.0469186)
(0.0924918 -0.00701484 -2.76109e-11 -0.0435408 7.57343e-09 -0.0466962)
(0.092531 -0.00398537 -3.97013e-10 -0.042799 6.12315e-10 -0.0464502)
(0.0925543 -0.00184687 -1.92652e-10 -0.0424041 -2.6122e-09 -0.0461906)
(0.0923129 -0.00167961 -5.0891e-11 -0.0481417 -2.75916e-09 -0.0481411)
(0.0923899 -0.00307662 -1.53154e-10 -0.0480924 5.46346e-10 -0.0481749)
(0.09238 -0.00515793 -7.97653e-11 -0.0479796 -1.40149e-09 -0.0481168)
(0.0923747 -0.0069455 9.40865e-11 -0.0477937 -3.79335e-09 -0.0480749)
(0.0923645 -0.00862831 3.07624e-10 -0.047599 2.89507e-09 -0.0479883)
(0.0923605 -0.0100667 -7.16322e-11 -0.0473246 7.51342e-09 -0.0479198)
(0.0923568 -0.0112882 -5.4947e-10 -0.0470658 -3.11389e-10 -0.0478041)
(0.0923611 -0.0121512 -3.05459e-10 -0.0467533 -8.67794e-09 -0.0477131)
(0.0923714 -0.0127195 3.36392e-10 -0.0464293 -6.05148e-10 -0.0475775)
(0.0923926 -0.0128027 -3.38136e-12 -0.0460385 7.62711e-09 -0.0474616)
(0.0924242 -0.0124635 -5.75288e-10 -0.0455715 -2.50279e-09 -0.0473003)
(0.0924636 -0.011342 9.57678e-11 -0.0450604 -7.72177e-09 -0.0471442)
(0.0925106 -0.00961249 4.72575e-10 -0.0443183 1.92753e-09 -0.0469483)
(0.092555 -0.00702019 -2.75781e-11 -0.0435701 7.57836e-09 -0.046726)
(0.0925911 -0.00398924 -3.97347e-10 -0.0428276 6.12593e-10 -0.04648)
(0.0926106 -0.00184871 -1.92905e-10 -0.0424317 -2.61392e-09 -0.0462203)
(0.0923849 -0.00168021 -5.09119e-11 -0.0481701 -2.76069e-09 -0.0481695)
(0.0924627 -0.00307761 -1.53252e-10 -0.0481223 5.46723e-10 -0.0482047)
(0.0924527 -0.00515983 -7.97905e-11 -0.0480095 -1.40237e-09 -0.0481467)
(0.0924474 -0.00694793 9.41445e-11 -0.0478239 -3.79574e-09 -0.0481048)
(0.0924371 -0.00863166 3.07697e-10 -0.0476291 2.89699e-09 -0.0480184)
(0.092433 -0.0100708 -7.16584e-11 -0.0473549 7.51826e-09 -0.0479499)
(0.0924293 -0.0112928 -5.49763e-10 -0.0470967 -3.11619e-10 -0.0478343)
(0.0924334 -0.0121564 -3.05737e-10 -0.0467845 -8.68358e-09 -0.0477434)
(0.0924431 -0.0127257 3.36297e-10 -0.0464605 -6.05438e-10 -0.047608)
(0.0924634 -0.0128098 -3.34055e-12 -0.0460695 7.63215e-09 -0.0474922)
(0.0924936 -0.0124705 -5.75798e-10 -0.0456024 -2.50455e-09 -0.047331)
(0.0925316 -0.0113487 9.57807e-11 -0.045091 -7.72693e-09 -0.0471749)
(0.0925767 -0.00961906 4.729e-10 -0.0443481 1.92894e-09 -0.0469791)
(0.0926186 -0.00702565 -2.75424e-11 -0.0435992 7.58342e-09 -0.0467566)
(0.0926519 -0.00399316 -3.97665e-10 -0.0428561 6.12917e-10 -0.0465105)
(0.0926688 -0.00185047 -1.93136e-10 -0.0424595 -2.61568e-09 -0.0462506)
(0.0924576 -0.00168092 -5.09463e-11 -0.0481999 -2.7623e-09 -0.0481994)
(0.0925364 -0.00307883 -1.53344e-10 -0.0481534 5.47116e-10 -0.0482358)
(0.0925264 -0.00516209 -7.98182e-11 -0.0480406 -1.40328e-09 -0.0481778)
(0.0925211 -0.00695086 9.42017e-11 -0.0478552 -3.79824e-09 -0.0481359)
(0.0925106 -0.00863556 3.078e-10 -0.0476604 2.89895e-09 -0.0480496)
(0.0925063 -0.0100755 -7.16757e-11 -0.0473864 7.52328e-09 -0.0479811)
(0.0925021 -0.0112982 -5.5009e-10 -0.0471282 -3.11879e-10 -0.0478657)
(0.0925057 -0.0121623 -3.06023e-10 -0.0468161 -8.68938e-09 -0.0477747)
(0.0925148 -0.0127324 3.36232e-10 -0.0464919 -6.05709e-10 -0.0476394)
(0.0925342 -0.0128174 -3.29564e-12 -0.0461008 7.63732e-09 -0.0475236)
(0.0925632 -0.012478 -5.76217e-10 -0.0456334 -2.50636e-09 -0.0473624)
(0.0925995 -0.0113558 9.58034e-11 -0.0451216 -7.73221e-09 -0.0472063)
(0.0926428 -0.00962591 4.73143e-10 -0.0443777 1.93036e-09 -0.0470104)
(0.0926826 -0.00703112 -2.75046e-11 -0.0436284 7.58858e-09 -0.0467877)
(0.0927141 -0.00399667 -3.97918e-10 -0.0428852 6.13292e-10 -0.0465415)
(0.0927288 -0.00185206 -1.93339e-10 -0.042488 -2.61747e-09 -0.0462815)
(0.0925313 -0.00168172 -5.09701e-11 -0.0482309 -2.76399e-09 -0.0482304)
(0.0926102 -0.00308017 -1.5344e-10 -0.0481854 5.47518e-10 -0.0482677)
(0.0926001 -0.00516458 -7.98415e-11 -0.0480725 -1.40422e-09 -0.0482098)
(0.0925947 -0.00695406 9.42486e-11 -0.0478872 -3.80079e-09 -0.0481678)
(0.0925841 -0.00863983 3.07856e-10 -0.0476923 2.90099e-09 -0.0480816)
(0.0925797 -0.0100806 -7.16892e-11 -0.0474184 7.52842e-09 -0.048013)
(0.0925751 -0.0113039 -5.50313e-10 -0.0471602 -3.12158e-10 -0.0478977)
(0.0925781 -0.0121687 -3.0632e-10 -0.0468482 -8.69531e-09 -0.0478067)
(0.0925864 -0.0127397 3.36138e-10 -0.0465237 -6.05963e-10 -0.0476715)
(0.0926048 -0.0128255 -3.24162e-12 -0.0461321 7.6426e-09 -0.0475556)
(0.0926326 -0.0124857 -5.76771e-10 -0.0456645 -2.5082e-09 -0.0473945)
(0.0926675 -0.0113628 9.5809e-11 -0.0451523 -7.73757e-09 -0.0472382)
(0.0927093 -0.00963239 4.73469e-10 -0.0444076 1.93181e-09 -0.0470423)
(0.0927475 -0.00703621 -2.74668e-11 -0.0436578 7.59381e-09 -0.0468194)
(0.0927774 -0.00400003 -3.98245e-10 -0.0429147 6.13668e-10 -0.0465731)
(0.0927904 -0.00185346 -1.93513e-10 -0.042517 -2.61929e-09 -0.0463129)
(0.0926051 -0.0016826 -5.09885e-11 -0.0482628 -2.76572e-09 -0.0482624)
(0.0926844 -0.00308165 -1.53532e-10 -0.048218 5.4793e-10 -0.0483003)
(0.0926742 -0.00516727 -7.98674e-11 -0.0481051 -1.40518e-09 -0.0482424)
(0.0926687 -0.00695759 9.43012e-11 -0.0479198 -3.80341e-09 -0.0482004)
(0.0926578 -0.00864446 3.07949e-10 -0.0477247 2.90306e-09 -0.0481143)
(0.092653 -0.0100862 -7.16957e-11 -0.0474507 7.53366e-09 -0.0480456)
(0.0926478 -0.0113101 -5.50641e-10 -0.0471925 -3.12413e-10 -0.0479303)
(0.0926504 -0.0121753 -3.06605e-10 -0.0468804 -8.70134e-09 -0.0478393)
(0.0926578 -0.0127471 3.3611e-10 -0.0465556 -6.06255e-10 -0.0477041)
(0.0926754 -0.0128335 -3.18709e-12 -0.0461636 7.64794e-09 -0.0475881)
(0.0927023 -0.0124932 -5.77158e-10 -0.0456958 -2.51e-09 -0.0474269)
(0.092736 -0.0113697 9.58304e-11 -0.045183 -7.74297e-09 -0.0472705)
(0.0927763 -0.00963877 4.73687e-10 -0.0444376 1.9332e-09 -0.0470744)
(0.0928133 -0.00704097 -2.74326e-11 -0.0436878 7.5991e-09 -0.0468513)
(0.0928418 -0.0040029 -3.98467e-10 -0.0429446 6.1404e-10 -0.046605)
(0.0928533 -0.00185477 -1.93671e-10 -0.0425464 -2.62113e-09 -0.0463446)
(0.0926793 -0.00168353 -5.10232e-11 -0.0482954 -2.7675e-09 -0.048295)
(0.0927584 -0.0030832 -1.53612e-10 -0.0482511 5.48348e-10 -0.0483334)
(0.092748 -0.00517008 -7.98803e-11 -0.048138 -1.40616e-09 -0.0482755)
(0.0927424 -0.00696119 9.43412e-11 -0.0479528 -3.80606e-09 -0.0482334)
(0.0927311 -0.00864918 3.07987e-10 -0.0477574 2.90518e-09 -0.0481473)
(0.0927261 -0.0100918 -7.16981e-11 -0.0474834 7.53896e-09 -0.0480785)
(0.0927206 -0.0113162 -5.50805e-10 -0.047225 -3.12722e-10 -0.0479633)
(0.0927226 -0.0121821 -3.06915e-10 -0.0469129 -8.7074e-09 -0.0478721)
(0.0927293 -0.0127545 3.35986e-10 -0.0465876 -6.06449e-10 -0.047737)
(0.092746 -0.0128416 -3.1287e-12 -0.0461952 7.65332e-09 -0.0476208)
(0.0927723 -0.0125005 -5.77765e-10 -0.0457275 -2.5119e-09 -0.0474595)
(0.092805 -0.0113761 9.58321e-11 -0.0452144 -7.74846e-09 -0.0473031)
(0.0928444 -0.00964453 4.73942e-10 -0.0444683 1.93467e-09 -0.0471069)
(0.0928798 -0.00704552 -2.73983e-11 -0.0437178 7.60444e-09 -0.0468836)
(0.092907 -0.00400573 -3.9876e-10 -0.0429745 6.14446e-10 -0.0466371)
(0.0929172 -0.00185595 -1.93806e-10 -0.0425759 -2.62299e-09 -0.0463765)
(0.0927533 -0.00168451 -5.1044e-11 -0.0483285 -2.7693e-09 -0.0483281)
(0.0928324 -0.0030848 -1.53697e-10 -0.0482845 5.48769e-10 -0.0483667)
(0.0928218 -0.00517297 -7.99013e-11 -0.0481712 -1.40715e-09 -0.0483089)
(0.0928161 -0.00696491 9.43818e-11 -0.047986 -3.80873e-09 -0.0482667)
(0.0928045 -0.00865404 3.08044e-10 -0.0477903 2.90731e-09 -0.0481807)
(0.0927992 -0.0100976 -7.16987e-11 -0.0475162 7.54429e-09 -0.0481117)
(0.0927933 -0.0113224 -5.51141e-10 -0.0472579 -3.1298e-10 -0.0479965)
(0.092795 -0.0121886 -3.07193e-10 -0.0469457 -8.71354e-09 -0.0479053)
(0.0928011 -0.0127616 3.35978e-10 -0.0466201 -6.0676e-10 -0.0477702)
(0.0928172 -0.0128493 -3.06978e-12 -0.0462272 7.65876e-09 -0.0476538)
(0.0928423 -0.0125078 -5.78174e-10 -0.0457589 -2.5138e-09 -0.0474925)
(0.092874 -0.0113828 9.58534e-11 -0.0452453 -7.75397e-09 -0.0473359)
(0.0929124 -0.00965051 4.74203e-10 -0.0444987 1.93612e-09 -0.0471396)
(0.0929468 -0.00704993 -2.7364e-11 -0.0437479 7.60981e-09 -0.0469161)
(0.0929728 -0.00400838 -3.98924e-10 -0.0430046 6.1483e-10 -0.0466694)
(0.0929819 -0.00185721 -1.93948e-10 -0.0426054 -2.62485e-09 -0.0464087)
(0.0928273 -0.00168551 -5.10864e-11 -0.0483618 -2.77112e-09 -0.0483615)
(0.0929063 -0.0030864 -1.53771e-10 -0.0483182 5.49195e-10 -0.0484004)
(0.0928955 -0.00517588 -7.99087e-11 -0.0482047 -1.40814e-09 -0.0483426)
(0.0928897 -0.00696861 9.44138e-11 -0.0480196 -3.81142e-09 -0.0483003)
(0.0928779 -0.00865884 3.08062e-10 -0.0478236 2.90946e-09 -0.0482143)
(0.0928724 -0.0101032 -7.16959e-11 -0.0475495 7.54969e-09 -0.0481452)
(0.0928657 -0.0113287 -5.5128e-10 -0.0472906 -3.13324e-10 -0.0480301)
(0.0928669 -0.0121955 -3.07518e-10 -0.0469783 -8.71967e-09 -0.0479386)
(0.0928725 -0.0127691 3.35826e-10 -0.0466522 -6.06927e-10 -0.0478035)
(0.0928878 -0.0128575 -3.01173e-12 -0.0462589 7.66421e-09 -0.0476869)
(0.0929122 -0.012515 -5.78701e-10 -0.0457905 -2.51575e-09 -0.0475256)
(0.0929431 -0.0113892 9.58447e-11 -0.0452765 -7.75952e-09 -0.0473687)
(0.0929808 -0.00965636 4.74454e-10 -0.0445292 1.93762e-09 -0.0471724)
(0.0930141 -0.00705447 -2.73266e-11 -0.043778 7.61519e-09 -0.0469486)
(0.0930394 -0.00401116 -3.99183e-10 -0.0430348 6.15239e-10 -0.0467018)
(0.0930476 -0.00185835 -1.94068e-10 -0.0426353 -2.62672e-09 -0.0464409)
(0.0929012 -0.00168653 -5.11103e-11 -0.0483955 -2.77296e-09 -0.0483952)
(0.0929795 -0.00308811 -1.53848e-10 -0.0483518 5.4962e-10 -0.0484341)
(0.0929687 -0.00517898 -7.99165e-11 -0.0482382 -1.40914e-09 -0.0483763)
(0.0929627 -0.0069726 9.44446e-11 -0.048053 -3.81411e-09 -0.0483339)
(0.0929506 -0.00866403 3.0809e-10 -0.0478568 2.91161e-09 -0.0482479)
(0.0929449 -0.0101093 -7.16916e-11 -0.0475825 7.55507e-09 -0.0481787)
(0.0929378 -0.0113352 -5.51533e-10 -0.0473235 -3.13604e-10 -0.0480635)
(0.0929387 -0.0122025 -3.07789e-10 -0.0470111 -8.72584e-09 -0.0479719)
(0.0929437 -0.0127766 3.35834e-10 -0.0466846 -6.07204e-10 -0.0478368)
(0.0929584 -0.0128655 -2.94428e-12 -0.0462907 7.66967e-09 -0.0477201)
(0.0929821 -0.0125227 -5.79121e-10 -0.0458219 -2.51765e-09 -0.0475587)
(0.0930123 -0.0113961 9.58502e-11 -0.0453074 -7.76504e-09 -0.0474016)
(0.0930492 -0.00966244 4.74725e-10 -0.0445596 1.93906e-09 -0.0472051)
(0.093082 -0.00705885 -2.72917e-11 -0.0438084 7.62057e-09 -0.0469811)
(0.0931065 -0.00401383 -3.99356e-10 -0.0430654 6.15619e-10 -0.0467343)
(0.0931139 -0.00185958 -1.94197e-10 -0.0426653 -2.62859e-09 -0.0464732)
(0.0929745 -0.00168759 -5.11245e-11 -0.0484291 -2.7748e-09 -0.0484289)
(0.0930524 -0.00308984 -1.53925e-10 -0.0483855 5.50047e-10 -0.0484678)
(0.0930413 -0.00518211 -7.99195e-11 -0.0482717 -1.41014e-09 -0.04841)
(0.0930353 -0.0069766 9.44687e-11 -0.0480865 -3.81681e-09 -0.0483675)
(0.0930228 -0.00866921 3.08084e-10 -0.0478898 2.91377e-09 -0.0482816)
(0.0930169 -0.0101154 -7.16817e-11 -0.0476154 7.56045e-09 -0.0482121)
(0.0930093 -0.011342 -5.51634e-10 -0.047356 -3.1395e-10 -0.048097)
(0.0930098 -0.0122099 -3.08123e-10 -0.0470435 -8.73194e-09 -0.0480051)
(0.0930143 -0.0127845 3.35651e-10 -0.0467165 -6.07343e-10 -0.0478701)
(0.0930286 -0.012874 -2.8816e-12 -0.0463222 7.67509e-09 -0.047753)
(0.093052 -0.0125301 -5.79613e-10 -0.0458535 -2.51959e-09 -0.0475916)
(0.0930816 -0.0114027 9.5831e-11 -0.0453386 -7.77056e-09 -0.0474343)
(0.0931181 -0.00966836 4.74944e-10 -0.0445904 1.94054e-09 -0.0472377)
(0.0931502 -0.00706339 -2.72547e-11 -0.0438388 7.62594e-09 -0.0470135)
(0.0931741 -0.00401659 -3.99594e-10 -0.0430959 6.16021e-10 -0.0467666)
(0.0931809 -0.0018607 -1.94311e-10 -0.0426955 -2.63046e-09 -0.0465054)
(0.0930474 -0.00168866 -5.11487e-11 -0.0484628 -2.77664e-09 -0.0484627)
(0.0931241 -0.0030917 -1.53994e-10 -0.0484189 5.50468e-10 -0.0485011)
(0.0931129 -0.00518548 -7.99236e-11 -0.0483048 -1.41113e-09 -0.0484434)
(0.0931068 -0.00698089 9.44911e-11 -0.0481196 -3.81947e-09 -0.0484007)
(0.093094 -0.00867478 3.08063e-10 -0.0479225 2.91592e-09 -0.0483148)
(0.0930879 -0.0101219 -7.16717e-11 -0.047648 7.56576e-09 -0.0482451)
(0.0930802 -0.0113488 -5.51832e-10 -0.0473885 -3.14252e-10 -0.0481301)
(0.0930805 -0.0122172 -3.08396e-10 -0.0470759 -8.73802e-09 -0.048038)
(0.0930847 -0.0127923 3.35638e-10 -0.0467485 -6.07567e-10 -0.047903)
(0.0930986 -0.0128824 -2.81017e-12 -0.0463539 7.68048e-09 -0.0477858)
(0.0931218 -0.0125379 -5.80096e-10 -0.0458849 -2.52152e-09 -0.0476243)
(0.0931511 -0.0114097 9.58218e-11 -0.0453698 -7.77606e-09 -0.0474668)
(0.0931873 -0.00967452 4.75212e-10 -0.0446212 1.94201e-09 -0.0472702)
(0.0932188 -0.00706787 -2.72186e-11 -0.0438694 7.63129e-09 -0.0470458)
(0.0932422 -0.00401929 -3.99756e-10 -0.0431268 6.1641e-10 -0.0467988)
(0.0932484 -0.0018619 -1.94432e-10 -0.0427259 -2.63232e-09 -0.0465374)
(0.0931191 -0.0016898 -5.11738e-11 -0.0484961 -2.77846e-09 -0.0484961)
(0.0931948 -0.00309354 -1.54057e-10 -0.0484519 5.50887e-10 -0.0485342)
(0.0931835 -0.00518884 -7.99149e-11 -0.0483376 -1.41211e-09 -0.0484765)
(0.0931774 -0.00698513 9.45069e-11 -0.0481525 -3.82211e-09 -0.0484336)
(0.0931643 -0.00868027 3.08015e-10 -0.0479549 2.91806e-09 -0.0483478)
(0.0931583 -0.0101284 -7.16568e-11 -0.0476804 7.57103e-09 -0.0482779)
(0.0931502 -0.011356 -5.51917e-10 -0.0474205 -3.14609e-10 -0.0481629)
(0.0931506 -0.012225 -3.08738e-10 -0.047108 -8.744e-09 -0.0480706)
(0.0931546 -0.0128005 3.35428e-10 -0.0467803 -6.07682e-10 -0.0479357)
(0.0931684 -0.0128913 -2.74418e-12 -0.0463854 7.68583e-09 -0.0478182)
(0.0931913 -0.0125457 -5.80577e-10 -0.0459165 -2.5235e-09 -0.0476567)
(0.0932203 -0.0114167 9.57983e-11 -0.045401 -7.78153e-09 -0.0474991)
(0.0932564 -0.0096808 4.7547e-10 -0.0446521 1.9435e-09 -0.0473025)
(0.0932876 -0.00707267 -2.71792e-11 -0.0439 7.6366e-09 -0.0470779)
(0.0933108 -0.00402224 -3.99996e-10 -0.0431578 6.16803e-10 -0.0468308)
(0.0933166 -0.00186306 -1.94546e-10 -0.0427565 -2.63418e-09 -0.0465694)
(0.0931899 -0.00169093 -5.12106e-11 -0.0485291 -2.78027e-09 -0.0485292)
(0.093264 -0.0030955 -1.5412e-10 -0.0484843 5.51297e-10 -0.0485666)
(0.0932527 -0.00519242 -7.99056e-11 -0.0483698 -1.41307e-09 -0.0485089)
(0.0932466 -0.00698965 9.45192e-11 -0.0481848 -3.8247e-09 -0.0484659)
(0.0932334 -0.00868616 3.07944e-10 -0.0479868 2.92015e-09 -0.0483802)
(0.0932276 -0.0101353 -7.16456e-11 -0.0477124 7.57621e-09 -0.0483101)
(0.0932192 -0.0113632 -5.52068e-10 -0.0474524 -3.14941e-10 -0.0481952)
(0.0932197 -0.012233 -3.09025e-10 -0.0471399 -8.74991e-09 -0.0481027)
(0.0932236 -0.0128089 3.35407e-10 -0.0468119 -6.07858e-10 -0.0479679)
(0.0932375 -0.0129003 -2.66901e-12 -0.0464167 7.69111e-09 -0.0478502)
(0.0932606 -0.0125542 -5.81062e-10 -0.0459478 -2.52539e-09 -0.0476888)
(0.0932895 -0.0114243 9.57701e-11 -0.0454322 -7.78692e-09 -0.047531)
(0.0933256 -0.00968747 4.75765e-10 -0.0446831 1.94493e-09 -0.0473344)
(0.0933569 -0.00707743 -2.71411e-11 -0.0439312 7.64187e-09 -0.0471097)
(0.09338 -0.00402517 -4.00174e-10 -0.0431893 6.17169e-10 -0.0468626)
(0.0933855 -0.00186428 -1.94666e-10 -0.0427876 -2.63602e-09 -0.0466011)
(0.0932591 -0.00169211 -5.12173e-11 -0.0485615 -2.78203e-09 -0.0485617)
(0.0933316 -0.00309749 -1.54181e-10 -0.0485162 5.51699e-10 -0.0485984)
(0.0933202 -0.00519606 -7.98925e-11 -0.0484015 -1.41401e-09 -0.0485408)
(0.0933143 -0.00699426 9.45314e-11 -0.0482166 -3.82724e-09 -0.0484977)
(0.093301 -0.00869212 3.07856e-10 -0.0480182 2.92223e-09 -0.048412)
(0.0932954 -0.0101423 -7.1632e-11 -0.047744 7.58131e-09 -0.0483417)
(0.0932872 -0.011371 -5.52095e-10 -0.0474836 -3.15317e-10 -0.0482269)
(0.0932878 -0.0122414 -3.09376e-10 -0.0471714 -8.75569e-09 -0.0481343)
(0.093292 -0.0128178 3.35186e-10 -0.0468431 -6.07904e-10 -0.0479996)
(0.093306 -0.0129099 -2.59935e-12 -0.0464478 7.6963e-09 -0.0478817)
(0.0933296 -0.0125625 -5.81589e-10 -0.0459794 -2.52734e-09 -0.0477204)
(0.0933588 -0.0114318 9.57371e-11 -0.0454637 -7.79228e-09 -0.0475625)
(0.0933953 -0.00969416 4.76021e-10 -0.0447146 1.94641e-09 -0.047366)
(0.0934265 -0.00708257 -2.70992e-11 -0.0439624 7.6471e-09 -0.0471412)
(0.0934496 -0.00402834 -4.00418e-10 -0.043221 6.17561e-10 -0.0468942)
(0.093455 -0.0018655 -1.94784e-10 -0.0428191 -2.63786e-09 -0.0466326)
(0.0933267 -0.00169331 -5.12451e-11 -0.0485933 -2.78377e-09 -0.0485936)
(0.0933973 -0.00309954 -1.54249e-10 -0.0485473 5.52091e-10 -0.0486295)
(0.093386 -0.00519987 -7.98731e-11 -0.0484324 -1.41494e-09 -0.0485719)
(0.0933804 -0.00699903 9.45379e-11 -0.0482477 -3.82972e-09 -0.0485286)
(0.0933671 -0.00869836 3.07734e-10 -0.0480489 2.92428e-09 -0.0484432)
(0.0933619 -0.0101497 -7.16204e-11 -0.0477749 7.58628e-09 -0.0483726)
(0.0933539 -0.0113787 -5.52219e-10 -0.0475147 -3.15669e-10 -0.048258)
(0.0933551 -0.0122499 -3.09682e-10 -0.0472027 -8.76137e-09 -0.0481652)
(0.0933596 -0.0128266 3.35153e-10 -0.0468743 -6.08022e-10 -0.0480307)
(0.0933741 -0.0129195 -2.52062e-12 -0.046479 7.70142e-09 -0.0479127)
(0.0933981 -0.0125716 -5.82138e-10 -0.0460107 -2.52927e-09 -0.0477516)
(0.0934277 -0.0114401 9.56955e-11 -0.0454949 -7.79757e-09 -0.0475936)
(0.0934649 -0.00970143 4.76395e-10 -0.044746 1.94786e-09 -0.0473972)
(0.0934963 -0.00708784 -2.70571e-11 -0.0439939 7.65227e-09 -0.0471723)
(0.0935199 -0.00403166 -4.00618e-10 -0.0432533 6.17931e-10 -0.0469254)
(0.0935254 -0.00186684 -1.94916e-10 -0.042851 -2.63969e-09 -0.0466639)
(0.0933923 -0.00169456 -5.12934e-11 -0.0486244 -2.78545e-09 -0.0486247)
(0.0934612 -0.0031016 -1.54309e-10 -0.0485777 5.52476e-10 -0.0486599)
(0.0934499 -0.00520375 -7.98503e-11 -0.0484627 -1.41584e-09 -0.0486023)
(0.0934447 -0.00700387 9.4545e-11 -0.0482782 -3.83215e-09 -0.048559)
(0.0934316 -0.00870467 3.07601e-10 -0.0480792 2.92628e-09 -0.0484737)
(0.093427 -0.0101571 -7.16104e-11 -0.0478056 7.59116e-09 -0.0484029)
(0.0934191 -0.0113869 -5.52232e-10 -0.0475449 -3.16079e-10 -0.0482886)
(0.093421 -0.0122591 -3.10056e-10 -0.0472333 -8.76691e-09 -0.0481955)
(0.0934261 -0.0128362 3.34936e-10 -0.046905 -6.08016e-10 -0.0480613)
(0.0934413 -0.01293 -2.44963e-12 -0.0465098 7.70645e-09 -0.0479431)
(0.0934662 -0.0125808 -5.82685e-10 -0.0460421 -2.53121e-09 -0.0477822)
(0.0934963 -0.0114486 9.56463e-11 -0.0455263 -7.80279e-09 -0.0476242)
(0.0935344 -0.00970898 4.76724e-10 -0.0447777 1.94931e-09 -0.0474279)
(0.0935666 -0.00709358 -2.70113e-11 -0.0440257 7.65738e-09 -0.047203)
(0.0935909 -0.00403528 -4.00901e-10 -0.043286 6.1831e-10 -0.0469563)
(0.0935967 -0.00186816 -1.95047e-10 -0.0428837 -2.6415e-09 -0.0466949)
(0.0934561 -0.00169582 -5.13111e-11 -0.0486547 -2.7871e-09 -0.0486551)
(0.0935229 -0.00310375 -1.54372e-10 -0.0486074 5.52849e-10 -0.0486894)
(0.0935118 -0.00520784 -7.98206e-11 -0.0484922 -1.41672e-09 -0.048632)
(0.0935071 -0.00700897 9.45508e-11 -0.048308 -3.8345e-09 -0.0485885)
(0.0934941 -0.00871137 3.07425e-10 -0.0481087 2.92826e-09 -0.0485034)
(0.0934903 -0.0101651 -7.16046e-11 -0.0478355 7.59592e-09 -0.0484324)
(0.0934829 -0.0113953 -5.52298e-10 -0.0475749 -3.1647e-10 -0.0483184)
(0.0934855 -0.0122684 -3.10385e-10 -0.0472637 -8.77233e-09 -0.0482252)
(0.0934915 -0.0128459 3.34906e-10 -0.0469355 -6.08037e-10 -0.0480913)
(0.0935076 -0.0129406 -2.36765e-12 -0.0465403 7.71138e-09 -0.0479729)
(0.0935338 -0.0125908 -5.83325e-10 -0.0460733 -2.5331e-09 -0.0478123)
(0.0935649 -0.0114577 9.55829e-11 -0.0455578 -7.80794e-09 -0.0476543)
(0.0936043 -0.009717 4.77151e-10 -0.0448096 1.95072e-09 -0.0474582)
(0.0936374 -0.0070994 -2.69654e-11 -0.0440581 7.66244e-09 -0.0472334)
(0.0936627 -0.00403899 -4.01171e-10 -0.0433195 6.18675e-10 -0.0469869)
(0.0936692 -0.00186956 -1.95192e-10 -0.042917 -2.64331e-09 -0.0467257)
(0.0935178 -0.00169715 -5.13124e-11 -0.0486843 -2.7887e-09 -0.0486847)
(0.0935827 -0.00310589 -1.54441e-10 -0.0486364 5.53215e-10 -0.0487184)
(0.0935717 -0.00521198 -7.97853e-11 -0.048521 -1.41758e-09 -0.048661)
(0.0935675 -0.0070141 9.45571e-11 -0.0483373 -3.83681e-09 -0.0486174)
(0.0935548 -0.00871809 3.07234e-10 -0.0481375 2.93022e-09 -0.0485325)
(0.0935518 -0.0101731 -7.16042e-11 -0.0478649 7.60058e-09 -0.0484613)
(0.0935451 -0.011404 -5.52297e-10 -0.0476042 -3.16908e-10 -0.0483476)
(0.0935489 -0.0122783 -3.10785e-10 -0.0472937 -8.77761e-09 -0.0482542)
(0.093556 -0.0128562 3.34699e-10 -0.0469656 -6.0794e-10 -0.0481207)
(0.0935733 -0.0129519 -2.2937e-12 -0.0465708 7.71623e-09 -0.0480022)
(0.093601 -0.0126007 -5.83992e-10 -0.0461047 -2.53505e-09 -0.0478419)
(0.0936333 -0.0114669 9.55206e-11 -0.0455894 -7.81304e-09 -0.0476839)
(0.0936743 -0.00972525 4.77559e-10 -0.044842 1.95216e-09 -0.0474882)
(0.0937087 -0.00710574 -2.69164e-11 -0.0440906 7.66745e-09 -0.0472634)
(0.0937353 -0.00404309 -4.01521e-10 -0.0433533 6.1906e-10 -0.0470172)
(0.0937428 -0.00187104 -1.95347e-10 -0.042951 -2.6451e-09 -0.0467562)
(0.0935774 -0.00169849 -5.13604e-11 -0.0487132 -2.79026e-09 -0.0487137)
(0.0936404 -0.00310803 -1.54512e-10 -0.0486649 5.53573e-10 -0.0487467)
(0.0936296 -0.00521623 -7.97372e-11 -0.0485492 -1.41843e-09 -0.0486894)
(0.0936261 -0.00701931 9.45614e-11 -0.048366 -3.83906e-09 -0.0486457)
(0.0936137 -0.00872499 3.0699e-10 -0.0481658 2.93216e-09 -0.0485611)
(0.0936119 -0.0101813 -7.16098e-11 -0.0478938 7.60515e-09 -0.0484896)
(0.093606 -0.0114127 -5.52361e-10 -0.0476333 -3.17349e-10 -0.0483763)
(0.0936111 -0.0122882 -3.11151e-10 -0.0473234 -8.7828e-09 -0.0482827)
(0.0936194 -0.0128664 3.34686e-10 -0.0469956 -6.07869e-10 -0.0481497)
(0.0936381 -0.0129633 -2.21286e-12 -0.0466011 7.72101e-09 -0.0480311)
(0.0936677 -0.0126114 -5.84758e-10 -0.0461359 -2.53696e-09 -0.0478712)
(0.0937016 -0.0114768 9.5433e-11 -0.045621 -7.81808e-09 -0.0477132)
(0.0937446 -0.00973408 4.78103e-10 -0.0448744 1.95357e-09 -0.0475178)
(0.0937805 -0.00711227 -2.68671e-11 -0.0441236 7.67241e-09 -0.0472932)
(0.0938089 -0.00404739 -4.01866e-10 -0.0433879 6.19429e-10 -0.0470473)
(0.0938177 -0.00187262 -1.9552e-10 -0.0429856 -2.64689e-09 -0.0467866)
(0.093635 -0.00169988 -5.13818e-11 -0.0487415 -2.79179e-09 -0.0487421)
(0.0936963 -0.00311011 -1.54583e-10 -0.048693 5.53927e-10 -0.0487747)
(0.0936857 -0.00522048 -7.96811e-11 -0.0485771 -1.41927e-09 -0.0487175)
(0.093683 -0.00702449 9.45674e-11 -0.0483944 -3.84129e-09 -0.0486736)
(0.093671 -0.00873185 3.06732e-10 -0.0481938 2.93409e-09 -0.0485893)
(0.0936704 -0.0101896 -7.16243e-11 -0.0479225 7.60966e-09 -0.0485176)
(0.0936653 -0.0114217 -5.52348e-10 -0.0476618 -3.17844e-10 -0.0484047)
(0.093672 -0.0122985 -3.11585e-10 -0.0473527 -8.78788e-09 -0.0483109)
(0.0936819 -0.0128771 3.34521e-10 -0.0470252 -6.07665e-10 -0.0481783)
(0.0937023 -0.0129753 -2.13895e-12 -0.0466312 7.72574e-09 -0.0480596)
(0.093734 -0.0126222 -5.85558e-10 -0.0461673 -2.53896e-09 -0.0479001)
(0.0937697 -0.0114869 9.53504e-11 -0.0456528 -7.82311e-09 -0.0477422)
(0.0938152 -0.00974325 4.7863e-10 -0.0449073 1.95503e-09 -0.0475473)
(0.0938528 -0.00711937 -2.68129e-11 -0.0441568 7.67736e-09 -0.0473228)
(0.0938836 -0.00405206 -4.02317e-10 -0.043423 6.19829e-10 -0.0470773)
(0.0938942 -0.00187424 -1.95705e-10 -0.0430211 -2.64868e-09 -0.0468169)