/*--------------------------------*- C++ -*----------------------------------*\
| =========                 |                                                 |
| \\      /  F ield         | OpenFOAM: The Open Source CFD Toolbox           |
|  \\    /   O peration     | Version:  4.1                                   |
|   \\  /    A nd           | Web:      www.OpenFOAM.org                      |
|    \\/     M anipulation  |                                                 |
\*---------------------------------------------------------------------------*/
FoamFile
{
    version     2.0;
    format      ascii;
    class       surfaceScalarField;
    location    "0.000410";
    object      phi;
}
// * * * * * * * * * * * * * * * * * * * * * * * * * * * * * * * * * * * * * //

dimensions      [0 3 -1 0 0 0 0];

internalField   nonuniform List<scalar> 
8704
(
-2.239063e-06
-4.2964015e-07
-4.3089456e-07
5.0087663e-07
5.0087292e-07
-2.2257627e-06
-1.4390856e-06
-1.4433199e-06
1.7535459e-06
1.7525589e-06
-2.2125447e-06
-1.8257208e-06
-1.8298824e-06
2.1500031e-06
2.1491994e-06
-2.2009801e-06
-1.877844e-06
-1.8801573e-06
2.1793157e-06
2.1796813e-06
-2.1906732e-06
-1.7737117e-06
-1.7724233e-06
2.0424784e-06
2.044896e-06
-2.1836097e-06
-1.5926521e-06
-1.5856137e-06
1.8235765e-06
1.8294794e-06
-2.1804188e-06
-1.3631675e-06
-1.3492058e-06
1.550123e-06
1.5605761e-06
-2.1806474e-06
-1.0941234e-06
-1.0740951e-06
1.2322166e-06
1.2468253e-06
-2.1851373e-06
-7.889881e-07
-7.6607659e-07
8.7758933e-07
8.9409079e-07
-2.19268e-06
-4.5764921e-07
-4.3580323e-07
4.9636227e-07
5.121016e-07
-2.1987363e-06
-1.1068334e-07
-9.3010763e-08
9.671641e-08
1.0981119e-07
-2.2035615e-06
2.474932e-07
2.6026406e-07
-3.1533757e-07
-3.0596454e-07
-2.2116783e-06
6.138133e-07
6.2361647e-07
-7.3510965e-07
-7.2888181e-07
-2.2252909e-06
9.7895862e-07
9.8751584e-07
-1.1529959e-06
-1.1488081e-06
-2.2464074e-06
1.3361136e-06
1.3446444e-06
-1.5604594e-06
-1.5574585e-06
-2.2769928e-06
1.6761441e-06
1.6862126e-06
-1.9477687e-06
-1.94515e-06
-2.3164277e-06
1.9902743e-06
2.0022571e-06
-2.3051946e-06
-2.3030368e-06
-2.3642521e-06
2.2704633e-06
2.2831169e-06
-2.6226565e-06
-2.621421e-06
-2.4190046e-06
2.5089951e-06
2.5206221e-06
-2.8932867e-06
-2.8932181e-06
-2.4775246e-06
2.7007818e-06
2.7097436e-06
-3.1118839e-06
-3.1133527e-06
-2.5383892e-06
2.8464245e-06
2.8518036e-06
-3.275695e-06
-3.2790333e-06
-2.5983202e-06
2.9418229e-06
2.9432397e-06
-3.3807691e-06
-3.3860405e-06
-2.6541833e-06
2.977373e-06
2.9742788e-06
-3.4197928e-06
-3.4269628e-06
2.9478594e-06
2.9402755e-06
-3.3885406e-06
-3.3974281e-06
-2.1433835e-06
-4.2043981e-07
-2.6531601e-07
3.2832464e-07
-2.0958542e-06
-1.2382529e-06
-1.0921081e-06
1.4194662e-06
-2.07702e-06
-1.5845925e-06
-1.4396945e-06
1.7925765e-06
-2.0682805e-06
-1.6493935e-06
-1.4986941e-06
1.8347349e-06
-2.063899e-06
-1.5760559e-06
-1.4181484e-06
1.7260197e-06
-2.0634806e-06
-1.4295982e-06
-1.266709e-06
1.5410871e-06
-2.0669786e-06
-1.2378761e-06
-1.0718674e-06
1.3058222e-06
-2.073953e-06
-1.0102597e-06
-8.4305824e-07
1.0284559e-06
-2.0847974e-06
-7.4757667e-07
-5.8462759e-07
7.1550482e-07
-2.0987419e-06
-4.5734281e-07
-3.053972e-07
3.7503415e-07
-2.1143021e-06
-1.5065456e-07
-1.6444028e-08
1.7094521e-08
-2.1314641e-06
1.67166e-07
2.8036147e-07
-3.5410463e-07
-2.1512409e-06
4.9182726e-07
5.8510919e-07
-7.3234547e-07
-2.1738866e-06
8.1766007e-07
8.910558e-07
-1.1115728e-06
-2.1999338e-06
1.1374345e-06
1.1915681e-06
-1.4827871e-06
-2.2298046e-06
1.4419397e-06
1.4789008e-06
-1.8362911e-06
-2.2632603e-06
1.7243405e-06
1.7440836e-06
-2.1620203e-06
-2.3003154e-06
1.9777604e-06
1.9791291e-06
-2.4510188e-06
-2.3404527e-06
2.1945503e-06
2.1755282e-06
-2.6958628e-06
-2.3824382e-06
2.3698266e-06
2.3288983e-06
-2.890774e-06
-2.4255409e-06
2.5045197e-06
2.4427507e-06
-3.0342891e-06
-2.4683124e-06
2.5950239e-06
2.5147817e-06
-3.1229792e-06
-2.5090269e-06
2.6316962e-06
2.5333973e-06
-3.1485008e-06
2.609068e-06
2.4916214e-06
-3.1050408e-06
-2.1027449e-06
-4.2064092e-07
-1.3479166e-07
1.6962116e-07
-2.0417132e-06
-1.0536722e-06
-8.1644537e-07
1.1192927e-06
-2.0217879e-06
-1.3426088e-06
-1.1215454e-06
1.4635528e-06
-2.0163346e-06
-1.4105587e-06
-1.1858482e-06
1.5147773e-06
-2.0166548e-06
-1.364674e-06
-1.1300511e-06
1.4296674e-06
-2.0208665e-06
-1.254105e-06
-1.0113449e-06
1.274128e-06
-2.0285638e-06
-1.1027725e-06
-8.5427726e-07
1.0727742e-06
-2.0393251e-06
-9.1937882e-07
-6.6771002e-07
8.3447274e-07
-2.0532614e-06
-7.0314343e-07
-4.5250751e-07
5.6324789e-07
-2.0699478e-06
-4.5943705e-07
-2.1740312e-07
2.6787229e-07
-2.0882274e-06
-1.9876298e-07
2.7675437e-08
-4.3720956e-08
-2.1081454e-06
7.1927276e-08
2.780673e-07
-3.6459428e-07
-2.1301339e-06
3.4858883e-07
5.33728e-07
-6.9129511e-07
-2.1542356e-06
6.2746173e-07
7.9057825e-07
-1.0189577e-06
-2.1807003e-06
9.0070298e-07
1.0415002e-06
-1.3381837e-06
-2.2094311e-06
1.1604657e-06
1.2798125e-06
-1.6409175e-06
-2.2401789e-06
1.4019431e-06
1.499061e-06
-1.9188245e-06
-2.272663e-06
1.6204631e-06
1.6928537e-06
-2.1653242e-06
-2.3061115e-06
1.8097258e-06
1.8530012e-06
-2.3727056e-06
-2.3398435e-06
1.9655136e-06
1.9759375e-06
-2.5350999e-06
-2.373227e-06
2.0882107e-06
2.0652414e-06
-2.652487e-06
-2.405408e-06
2.1736707e-06
2.1199979e-06
-2.7227726e-06
-2.4353592e-06
2.2134513e-06
2.1295753e-06
-2.7378164e-06
2.2036343e-06
2.0863464e-06
-2.6910711e-06
-2.0747781e-06
-4.2541204e-07
-1.3056382e-08
2.1541895e-08
-2.0072956e-06
-8.7697433e-07
-5.5040181e-07
8.2694928e-07
-1.9873529e-06
-1.1011188e-06
-8.0152621e-07
1.1269705e-06
-1.9848671e-06
-1.165573e-06
-8.6511972e-07
1.1811874e-06
-1.9891161e-06
-1.1437049e-06
-8.3181321e-07
1.1178013e-06
-1.9971753e-06
-1.0693272e-06
-7.4653129e-07
9.9354552e-07
-2.0083548e-06
-9.6015008e-07
-6.2900245e-07
8.2927944e-07
-2.0222284e-06
-8.2284958e-07
-4.8715649e-07
6.3389751e-07
-2.038889e-06
-6.5596296e-07
-3.1998375e-07
4.1071855e-07
-2.0581315e-06
-4.6274516e-07
-1.3149621e-07
1.6413981e-07
-2.0791722e-06
-2.5174083e-07
6.6877633e-08
-9.6434063e-08
-2.1019357e-06
-3.2180488e-08
2.6819365e-07
-3.6233037e-07
-2.1265071e-06
1.9176224e-07
4.7261779e-07
-6.3233581e-07
-2.1526021e-06
4.1720823e-07
6.7667017e-07
-9.0219152e-07
-2.1799185e-06
6.3697391e-07
8.7382202e-07
-1.1638775e-06
-2.2080736e-06
8.4533453e-07
1.0587133e-06
-1.4102301e-06
-2.2368712e-06
1.0391827e-06
1.2276416e-06
-1.6347771e-06
-2.2659378e-06
1.2172177e-06
1.3766669e-06
-1.8337691e-06
-2.2945434e-06
1.3744774e-06
1.4984627e-06
-1.9995081e-06
-2.3222512e-06
1.5075707e-06
1.5896757e-06
-2.1267572e-06
-2.3486207e-06
1.6158982e-06
1.6537736e-06
-2.2157683e-06
-2.3729763e-06
1.6951943e-06
1.6899474e-06
-2.2651175e-06
-2.3946582e-06
1.7386247e-06
1.6893709e-06
-2.2680414e-06
1.7439603e-06
1.6454919e-06
-2.2191538e-06
-2.0507387e-06
-4.3496531e-07
1.0337261e-07
-1.2131029e-07
-1.9810427e-06
-7.0374963e-07
-2.9456071e-07
5.4139747e-07
-1.962988e-06
-8.5923179e-07
-4.8475388e-07
7.8781762e-07
-1.9636675e-06
-9.1328719e-07
-5.4177007e-07
8.3750441e-07
-1.9717026e-06
-9.1361093e-07
-5.2807536e-07
7.9598415e-07
-1.9832361e-06
-8.7347681e-07
-4.7397756e-07
7.0195033e-07
-1.9974812e-06
-8.0464467e-07
-3.9610247e-07
5.7637117e-07
-2.0141436e-06
-7.1333589e-07
-2.9990533e-07
4.269327e-07
-2.0331174e-06
-5.9716334e-07
-1.8080989e-07
2.5339037e-07
-2.0543548e-06
-4.5717726e-07
-4.1780105e-08
5.9811852e-08
-2.0774779e-06
-3.0108481e-07
1.0672069e-07
-1.4489912e-07
-2.1020604e-06
-1.3744586e-07
2.5679487e-07
-3.5358911e-07
-2.1279482e-06
2.9896137e-08
4.0718577e-07
-5.6348409e-07
-2.1547081e-06
1.9755829e-07
5.5593204e-07
-7.7173405e-07
-2.1818857e-06
3.5925394e-07
6.9672999e-07
-9.7193026e-07
-2.2090283e-06
5.1135882e-07
8.2560354e-07
-1.1580084e-06
-2.2355888e-06
6.5392904e-07
9.413932e-07
-1.3259663e-06
-2.2613717e-06
7.8868605e-07
1.0432329e-06
-1.4736408e-06
-2.285714e-06
9.114845e-07
1.1251399e-06
-1.5951259e-06
-2.3082982e-06
1.0189009e-06
1.1838134e-06
-1.6854625e-06
-2.3286776e-06
1.1101821e-06
1.2205517e-06
-1.7438797e-06
-2.3462531e-06
1.1813196e-06
1.2352723e-06
-1.7690252e-06
-2.3607104e-06
1.2272194e-06
1.2220045e-06
-1.7570266e-06
1.2469654e-06
1.1758601e-06
-1.7050478e-06
-2.0310438e-06
-4.5360945e-07
2.1938739e-07
-2.6489828e-07
-1.961952e-06
-5.328381e-07
-4.816503e-08
2.6240696e-07
-1.948088e-06
-6.1678554e-07
-1.7287537e-07
4.4873e-07
-1.9528915e-06
-6.569865e-07
-2.1838325e-07
4.916977e-07
-1.9646442e-06
-6.738825e-07
-2.185224e-07
4.6586946e-07
-1.9795783e-06
-6.6432432e-07
-1.916959e-07
4.0122501e-07
-1.9970307e-06
-6.3380147e-07
-1.5005529e-07
3.1357528e-07
-2.0164615e-06
-5.8770692e-07
-9.7574565e-08
2.0976703e-07
-2.0377925e-06
-5.2258804e-07
-2.6504749e-08
8.7991539e-08
-2.0609642e-06
-4.3788354e-07
6.173182e-08
-4.9572296e-08
-2.0854102e-06
-3.4023531e-07
1.564899e-07
-1.9531711e-07
-2.1108708e-06
-2.3619868e-07
2.5086942e-07
-3.4301828e-07
-2.1368546e-06
-1.2945893e-07
3.4430894e-07
-4.900104e-07
-2.1627271e-06
-2.2585747e-08
4.3521544e-07
-6.3470391e-07
-2.1881857e-06
7.879509e-08
5.1766699e-07
-7.7094869e-07
-2.2128282e-06
1.7329051e-07
5.887464e-07
-8.9460458e-07
-2.2360216e-06
2.638292e-07
6.4960971e-07
-1.0037009e-06
-2.2577421e-06
3.5465621e-07
7.0203743e-07
-1.0977123e-06
-2.2773862e-06
4.4197076e-07
7.4285339e-07
-1.1732022e-06
-2.2947015e-06
5.2227825e-07
7.6792685e-07
-1.2251053e-06
-2.3093982e-06
5.9362577e-07
7.7585595e-07
-1.2498039e-06
-2.3208069e-06
6.5452207e-07
7.6670617e-07
-1.2487608e-06
-2.3288158e-06
7.0169747e-07
7.3790911e-07
-1.2205766e-06
7.345228e-07
6.8798739e-07
-1.164428e-06
-2.0214505e-06
-4.8752511e-07
3.4175425e-07
-4.1567628e-07
-1.9562417e-06
-3.6128347e-07
1.9165937e-07
-1.2273418e-08
-1.9493939e-06
-3.6994266e-07
1.3409729e-07
1.0970465e-07
-1.9596445e-06
-3.9405562e-07
1.0483738e-07
1.4141033e-07
-1.9760474e-06
-4.2110567e-07
9.7235235e-08
1.2677599e-07
-1.9953238e-06
-4.3727947e-07
1.0243656e-07
8.8481864e-08
-2.0170174e-06
-4.4317251e-07
1.1242036e-07
3.7108562e-08
-2.0405002e-06
-4.4079218e-07
1.2493846e-07
-2.2024623e-08
-2.0653614e-06
-4.2588018e-07
1.496742e-07
-9.2270542e-08
-2.0905883e-06
-3.9792865e-07
1.8604274e-07
-1.7285561e-07
-2.1154956e-06
-3.6045485e-07
2.2501943e-07
-2.5761638e-07
-2.1401908e-06
-3.1811583e-07
2.6113219e-07
-3.4133879e-07
-2.1642248e-06
-2.7444541e-07
2.9458889e-07
-4.2317882e-07
-2.1872666e-06
-2.3067035e-07
3.2510421e-07
-5.0141408e-07
-2.2086048e-06
-1.9016888e-07
3.4819229e-07
-5.7250731e-07
-2.2281801e-06
-1.4941454e-07
3.6043655e-07
-6.3484151e-07
-2.2454961e-06
-1.0905355e-07
3.6679288e-07
-6.8580238e-07
-2.261004e-06
-6.4537595e-08
3.6884691e-07
-7.2249595e-07
-2.2744011e-06
-1.4857737e-08
3.6556853e-07
-7.475565e-07
-2.28552e-06
3.6570267e-08
3.5380273e-07
-7.5698013e-07
-2.2940828e-06
8.7572988e-08
3.3155244e-07
-7.4857311e-07
-2.2995603e-06
1.3707165e-07
2.9786081e-07
-7.2158073e-07
-2.3019132e-06
1.8379352e-07
2.5292068e-07
-6.7678959e-07
2.2730773e-07
1.9805811e-07
-6.1528235e-07
-2.0413715e-06
5.1005441e-07
-5.9882422e-07
-5.8089931e-07
-1.9695422e-06
4.2475353e-07
-2.7423663e-07
-2.2389157e-07
-1.971149e-06
4.2173617e-07
-2.0166223e-07
-1.5877144e-07
-1.9900962e-06
4.1239014e-07
-1.853945e-07
-1.699233e-07
-2.0167194e-06
4.0382817e-07
-1.92254e-07
-2.0618859e-07
-2.0465688e-06
3.9437128e-07
-2.1052896e-07
-2.4517139e-07
-2.0780753e-06
3.8010216e-07
-2.3307217e-07
-2.8244842e-07
-2.1097858e-06
3.6111047e-07
-2.5677706e-07
-3.1706763e-07
-2.1407864e-06
3.4572333e-07
-2.8490112e-07
-3.4535454e-07
-2.1701591e-06
3.3403631e-07
-3.1695398e-07
-3.6653262e-07
-2.1973978e-06
3.2119925e-07
-3.4949427e-07
-3.8063594e-07
-2.2226196e-06
3.0286558e-07
-3.7841279e-07
-3.9041243e-07
-2.24558e-06
2.7896711e-07
-4.025492e-07
-3.9910939e-07
-2.2659015e-06
2.5185264e-07
-4.2244814e-07
-4.0659547e-07
-2.2817178e-06
2.1848498e-07
-4.3730531e-07
-4.1362346e-07
-2.2951275e-06
1.7308212e-07
-4.3762398e-07
-4.1518317e-07
-2.305439e-06
1.217241e-07
-4.2796975e-07
-4.1371055e-07
-2.3125987e-06
7.1539269e-08
-4.1293583e-07
-4.0381016e-07
-2.3168156e-06
2.1966597e-08
-3.9134503e-07
-3.8276289e-07
-2.3184813e-06
-2.9807391e-08
-3.6007351e-07
-3.5270158e-07
-2.3180284e-06
-8.5249701e-08
-3.1793036e-07
-3.1540054e-07
-2.3151774e-06
-1.4511772e-07
-2.6491013e-07
-2.7207531e-07
-2.3100207e-06
-2.073388e-07
-2.0308715e-07
-2.2296167e-07
-2.6903728e-07
-1.3487077e-07
-1.6837836e-07
-2.1430198e-06
-2.6557807e-07
-4.2271554e-07
3.3002411e-07
-2.0952685e-06
-1.0912645e-06
-1.2446085e-06
1.4224979e-06
-2.0763236e-06
-1.4394536e-06
-1.5904609e-06
1.7962121e-06
-2.0674358e-06
-1.4996115e-06
-1.6526954e-06
1.8388021e-06
-2.063034e-06
-1.4200375e-06
-1.5742536e-06
1.7298245e-06
-2.06268e-06
-1.2708878e-06
-1.4204105e-06
1.5452119e-06
-2.0662664e-06
-1.0806553e-06
-1.2201881e-06
1.3120329e-06
-2.0733042e-06
-8.5786197e-07
-9.8458625e-07
1.0377485e-06
-2.0841806e-06
-6.0333305e-07
-7.1777807e-07
7.2666176e-07
-2.0981516e-06
-3.2406046e-07
-4.2924851e-07
3.8627731e-07
-2.1137347e-06
-3.185927e-08
-1.2834396e-07
2.678228e-08
-2.1309539e-06
2.6957422e-07
1.8373256e-07
-3.4768411e-07
-2.1506891e-06
5.7762519e-07
5.0571283e-07
-7.2930359e-07
-2.173329e-06
8.8576868e-07
8.3142408e-07
-1.1112465e-06
-2.1995157e-06
1.1881735e-06
1.1536329e-06
-1.4850668e-06
-2.2295592e-06
1.4764358e-06
1.463263e-06
-1.8410814e-06
-2.2632769e-06
1.7420163e-06
1.7504665e-06
-2.1693467e-06
-2.3006267e-06
1.9775723e-06
2.0051623e-06
-2.4602519e-06
-2.3410446e-06
2.175131e-06
2.2196021e-06
-2.706219e-06
-2.3832684e-06
2.3310029e-06
2.3901453e-06
-2.9022988e-06
-2.4265329e-06
2.4485087e-06
2.5194397e-06
-3.0474619e-06
-2.4694092e-06
2.524111e-06
2.6037967e-06
-3.1373745e-06
-2.5100866e-06
2.5457442e-06
2.6328068e-06
-3.1631948e-06
2.5071706e-06
2.6034772e-06
-3.1202319e-06
-2.0854015e-06
-2.6700694e-07
-2.6729701e-07
-2.0141634e-06
-9.2366844e-07
-9.2542539e-07
-1.9919576e-06
-1.226537e-06
-1.2271357e-06
-1.9869748e-06
-1.2940072e-06
-1.2930475e-06
-1.9883939e-06
-1.2402124e-06
-1.2366884e-06
-1.993782e-06
-1.1214972e-06
-1.1135761e-06
-2.0025291e-06
-9.6575082e-07
-9.5131573e-07
-2.0144914e-06
-7.8236256e-07
-7.5990985e-07
-2.0296723e-06
-5.6904161e-07
-5.4163149e-07
-2.0473298e-06
-3.3044248e-07
-3.04034e-07
-2.0676509e-06
-7.8986216e-08
-5.7689583e-08
-2.0901804e-06
1.7878448e-07
1.9458214e-07
-2.1140277e-06
4.4127506e-07
4.540071e-07
-2.1391108e-06
7.044766e-07
7.1609616e-07
-2.1647786e-06
9.622342e-07
9.7483384e-07
-2.1905061e-06
1.2070659e-06
1.2230187e-06
-2.2159633e-06
1.4326929e-06
1.4514971e-06
-2.2411933e-06
1.6333283e-06
1.6521927e-06
-2.2658303e-06
1.8016636e-06
1.8176877e-06
-2.289589e-06
1.9352627e-06
1.946141e-06
-2.3121989e-06
2.0378846e-06
2.0427705e-06
-2.3334496e-06
2.1064601e-06
2.1053313e-06
-2.3530776e-06
2.1291071e-06
2.1215463e-06
2.0996486e-06
2.0859365e-06
-2.0692396e-06
-2.7325392e-07
-1.4086514e-07
-1.990359e-06
-7.6527372e-07
-6.5557103e-07
-1.9657598e-06
-1.0102125e-06
-9.0762364e-07
-1.9614387e-06
-1.0774813e-06
-9.7362934e-07
-1.9644407e-06
-1.0467011e-06
-9.3920979e-07
-1.9713663e-06
-9.597925e-07
-8.4899693e-07
-1.9812801e-06
-8.4172183e-07
-7.2597475e-07
-1.9939831e-06
-7.0039334e-07
-5.7810853e-07
-2.0094026e-06
-5.3105639e-07
-4.049302e-07
-2.0270624e-06
-3.3760769e-07
-2.1234564e-07
-2.046401e-06
-1.3112835e-07
-1.0403965e-08
-2.0671355e-06
7.971612e-08
1.9480512e-07
-2.0889078e-06
2.9270254e-07
4.0428055e-07
-2.1116446e-06
5.0600383e-07
6.1564623e-07
-2.1349042e-06
7.1297047e-07
8.2287938e-07
-2.15816e-06
9.0768206e-07
1.0200005e-06
-2.1810578e-06
1.0868996e-06
1.2003649e-06
-2.2035331e-06
1.2471029e-06
1.3571451e-06
-2.2248805e-06
1.382818e-06
1.4836017e-06
-2.2447995e-06
1.4933255e-06
1.5795947e-06
-2.2630151e-06
1.5809645e-06
1.65045e-06
-2.2793237e-06
1.6422204e-06
1.6945157e-06
-2.2936109e-06
1.6665746e-06
1.7005233e-06
1.6496045e-06
1.6625586e-06
-2.0639833e-06
-2.8065946e-07
-2.1260215e-08
-1.9842168e-06
-6.0738286e-07
-3.9058095e-07
-1.9590529e-06
-7.8625059e-07
-5.8328362e-07
-1.955295e-06
-8.4702669e-07
-6.4320624e-07
-1.9592415e-06
-8.3828979e-07
-6.2835917e-07
-1.9670363e-06
-7.8617657e-07
-5.7181617e-07
-1.9775007e-06
-7.0882565e-07
-4.9065347e-07
-1.9903424e-06
-6.1173544e-07
-3.8967044e-07
-2.0057101e-06
-4.8918245e-07
-2.6546065e-07
-2.0230945e-06
-3.4345103e-07
-1.2148884e-07
-2.0418891e-06
-1.8496929e-07
3.2297101e-08
-2.0619249e-06
-2.3422893e-08
1.8768121e-07
-2.0828474e-06
1.383102e-07
3.4437867e-07
-2.1045575e-06
2.983868e-07
5.0131389e-07
-2.126637e-06
4.5052004e-07
6.5237921e-07
-2.1485504e-06
5.9115864e-07
7.9313725e-07
-2.1699346e-06
7.20555e-07
9.2056802e-07
-2.1907119e-06
8.3794939e-07
1.0300407e-06
-2.2101501e-06
9.3958307e-07
1.1158272e-06
-2.2280233e-06
1.0258418e-06
1.1789712e-06
-2.2440762e-06
1.0977061e-06
1.2241298e-06
-2.258118e-06
1.1505111e-06
1.2493851e-06
-2.2697992e-06
1.1761323e-06
1.2448793e-06
1.1731808e-06
1.2057703e-06
-2.0600618e-06
-2.8898165e-07
9.3474333e-08
-1.9832871e-06
-4.4719943e-07
-1.326298e-07
-1.9593733e-06
-5.5414482e-07
-2.5987589e-07
-1.9566357e-06
-6.0212954e-07
-3.0857049e-07
-1.9614524e-06
-6.1348916e-07
-3.1012249e-07
-1.9696287e-06
-5.953631e-07
-2.8486717e-07
-1.9801399e-06
-5.5818881e-07
-2.4488546e-07
-1.992787e-06
-5.0640352e-07
-1.9191826e-07
-2.0075021e-06
-4.3261863e-07
-1.1787703e-07
-2.0238721e-06
-3.3744502e-07
-2.4624674e-08
-2.0414961e-06
-2.3125397e-07
7.7044042e-08
-2.0602223e-06
-1.2316715e-07
1.7876727e-07
-2.0797234e-06
-1.5974711e-08
2.8006899e-07
-2.099826e-06
8.8470851e-08
3.7967788e-07
-2.1203322e-06
1.8387025e-07
4.7120716e-07
-2.1407061e-06
2.688914e-07
5.5206251e-07
-2.1605298e-06
3.4750232e-07
6.233386e-07
-2.1797181e-06
4.2230658e-07
6.8338937e-07
-2.1976498e-06
4.9031608e-07
7.278855e-07
-2.2140835e-06
5.5165444e-07
7.5787059e-07
-2.2287264e-06
6.0643442e-07
7.7572577e-07
-2.2412847e-06
6.4986819e-07
7.7980987e-07
-2.2513373e-06
6.7616609e-07
7.6269915e-07
6.8642159e-07
7.2107272e-07
-2.0555514e-06
-2.9985059e-07
2.0675885e-07
-1.9846551e-06
-2.846857e-07
1.171956e-07
-1.9639499e-06
-3.1772991e-07
5.908587e-08
-1.9630823e-06
-3.4881853e-07
2.5753907e-08
-1.9688617e-06
-3.7459253e-07
1.2777193e-08
-1.9774444e-06
-3.8575746e-07
1.1819672e-08
-1.988179e-06
-3.8617288e-07
1.4507741e-08
-2.0006971e-06
-3.7894836e-07
2.141804e-08
-2.0148463e-06
-3.5486862e-07
4.5585094e-08
-2.0302355e-06
-3.1300436e-07
8.6505663e-08
-2.0465496e-06
-2.6270056e-07
1.3256719e-07
-2.0637964e-06
-2.1138375e-07
1.7656317e-07
-2.0815762e-06
-1.6166347e-07
2.1857312e-07
-2.0996891e-06
-1.1487577e-07
2.5778243e-07
-2.1180006e-06
-7.6388617e-08
2.8779494e-07
-2.1363302e-06
-4.589271e-08
3.0728534e-07
-2.1540535e-06
-1.7561149e-08
3.2118654e-07
-2.1711187e-06
1.5591472e-08
3.3073088e-07
-2.1870833e-06
5.1404622e-08
3.3391319e-07
-2.2017039e-06
8.817545e-08
3.302687e-07
-2.2146974e-06
1.2507843e-07
3.192198e-07
-2.2255056e-06
1.5894474e-07
2.9943364e-07
-2.2339546e-06
1.8614109e-07
2.6757213e-07
2.0828191e-07
2.2248623e-07
-2.0550124e-06
-3.1637465e-07
3.2384785e-07
-1.9925982e-06
-1.1697181e-07
3.5800635e-07
-1.9771108e-06
-7.6450225e-08
3.6921221e-07
-1.9788698e-06
-8.8767178e-08
3.5445506e-07
-1.9861593e-06
-1.2394493e-07
3.3511322e-07
-1.9959669e-06
-1.6043132e-07
3.1289902e-07
-2.0077225e-06
-1.9655021e-07
2.8346856e-07
-2.0208597e-06
-2.3114285e-07
2.4987188e-07
-2.0352921e-06
-2.5485711e-07
2.2717073e-07
-2.0504817e-06
-2.6712418e-07
2.1557293e-07
-2.0661295e-06
-2.7357432e-07
2.0528497e-07
-2.0822994e-06
-2.796803e-07
1.9015636e-07
-2.0986083e-06
-2.8851986e-07
1.7069914e-07
-2.114786e-06
-2.9958763e-07
1.4804992e-07
-2.1306346e-06
-3.1576884e-07
1.170969e-07
-2.1466674e-06
-3.3602743e-07
7.6174773e-08
-2.1615232e-06
-3.5506798e-07
3.3654359e-08
-2.1756984e-06
-3.6251223e-07
-6.7935664e-09
-2.1889134e-06
-3.5926395e-07
-4.5743873e-08
-2.2009151e-06
-3.4782186e-07
-8.4608383e-08
-2.2114452e-06
-3.2954333e-07
-1.2561304e-07
-2.2198233e-06
-3.060554e-07
-1.7015783e-07
-2.2260007e-06
-2.7858673e-07
-2.1779813e-07
-2.4618237e-07
-2.6728148e-07
-2.0208116e-06
4.738261e-07
-3.97289e-07
-1.9556638e-06
5.9212419e-07
4.0332929e-08
-1.9484398e-06
6.6093758e-07
1.5155531e-07
-1.9585098e-06
6.6492388e-07
1.5434718e-07
-1.9750289e-06
6.4465679e-07
1.0793679e-07
-1.9948189e-06
6.0706095e-07
4.5981003e-08
-2.0169431e-06
5.5327404e-07
-2.3514022e-08
-2.0406373e-06
4.8806891e-07
-9.6326489e-08
-2.0652007e-06
4.2347839e-07
-1.6585308e-07
-2.0900899e-06
3.6062951e-07
-2.3102684e-07
-2.1150348e-06
2.9426164e-07
-2.928484e-07
-2.1398201e-06
2.1912847e-07
-3.5434507e-07
-2.1638941e-06
1.3606976e-07
-4.1838776e-07
-2.1866743e-06
4.908364e-08
-4.821483e-07
-2.2077573e-06
-4.4447382e-08
-5.4612458e-07
-2.2272998e-06
-1.4616724e-07
-6.1187021e-07
-2.244747e-06
-2.4986563e-07
-6.7248117e-07
-2.2605087e-06
-3.4748264e-07
-7.1454909e-07
-2.2741459e-06
-4.3591902e-07
-7.4024487e-07
-2.2854578e-06
-5.1700791e-07
-7.5078493e-07
-2.2941607e-06
-5.9275947e-07
-7.469942e-07
-2.2996944e-06
-6.6421583e-07
-7.2953879e-07
-2.3018461e-06
-7.2881058e-07
-6.9844258e-07
-7.8346783e-07
-6.5296391e-07
-2.102106e-06
-1.3666923e-07
-4.2311208e-07
1.730755e-07
-2.0409134e-06
-8.1955717e-07
-1.0602432e-06
1.126457e-06
-2.0209434e-06
-1.1259086e-06
-1.3484021e-06
1.4715305e-06
-2.0153045e-06
-1.1899961e-06
-1.4127994e-06
1.5218949e-06
-2.0155968e-06
-1.130785e-06
-1.3603931e-06
1.4332194e-06
-2.0199696e-06
-1.0087369e-06
-1.2416625e-06
1.2739762e-06
-2.0278055e-06
-8.5218915e-07
-1.0808318e-06
1.0717357e-06
-2.0386605e-06
-6.6989458e-07
-8.8754717e-07
8.3479723e-07
-2.0526754e-06
-4.5852386e-07
-6.6611097e-07
5.651208e-07
-2.0693913e-06
-2.2488856e-07
-4.2457112e-07
2.7104195e-07
-2.0876702e-06
2.0732015e-08
-1.7052907e-07
-4.0134386e-08
-2.1076581e-06
2.7335649e-07
9.391878e-08
-3.6268226e-07
-2.1296689e-06
5.3141462e-07
3.6791405e-07
-6.9215393e-07
-2.1537274e-06
7.9106164e-07
6.4770798e-07
-1.0227912e-06
-2.1802189e-06
1.0461134e-06
9.2638654e-07
-1.3460928e-06
-2.2090104e-06
1.2887369e-06
1.1954115e-06
-1.6539924e-06
-2.2399774e-06
1.5107585e-06
1.4437945e-06
-1.9363305e-06
-2.2727359e-06
1.7046889e-06
1.6626644e-06
-2.1846731e-06
-2.306421e-06
1.8641444e-06
1.8473909e-06
-2.3920769e-06
-2.3403124e-06
1.987825e-06
1.9964372e-06
-2.5546158e-06
-2.373787e-06
2.079595e-06
2.1119767e-06
-2.6729597e-06
-2.4060075e-06
2.136316e-06
2.1887627e-06
-2.7432766e-06
-2.4358056e-06
2.1460892e-06
2.2175823e-06
-2.7564606e-06
2.1036035e-06
2.1991465e-06
-2.7086418e-06
-2.0689952e-06
-1.4234741e-07
-2.7373e-07
-1.9901657e-06
-6.5819681e-07
-7.6717384e-07
-1.9655176e-06
-9.1207179e-07
-1.0104581e-06
-1.961009e-06
-9.7777363e-07
-1.0746627e-06
-1.9640062e-06
-9.411713e-07
-1.0393202e-06
-1.9710272e-06
-8.4972204e-07
-9.4689244e-07
-1.9809019e-06
-7.289553e-07
-8.2094181e-07
-1.9936209e-06
-5.8707306e-07
-6.6938392e-07
-2.0091191e-06
-4.1862422e-07
-4.9398943e-07
-2.0268473e-06
-2.2663907e-07
-3.0220222e-07
-2.0462704e-06
-2.275559e-08
-1.0204787e-07
-2.0671438e-06
1.8519317e-07
1.0235994e-07
-2.0890517e-06
3.9680534e-07
3.1219862e-07
-2.1118812e-06
6.1014663e-07
5.2613959e-07
-2.1352165e-06
8.1902966e-07
7.3814717e-07
-2.1585593e-06
1.0165801e-06
9.4088165e-07
-2.1815731e-06
1.1965514e-06
1.1252251e-06
-2.204198e-06
1.3529882e-06
1.2841555e-06
-2.2256463e-06
1.4806263e-06
1.4141296e-06
-2.2456152e-06
1.5800542e-06
1.5169209e-06
-2.26385e-06
1.6556552e-06
1.5963448e-06
-2.2802162e-06
1.7039044e-06
1.6484801e-06
-2.2944138e-06
1.7131136e-06
1.6624785e-06
1.6789775e-06
1.6371212e-06
-2.054185e-06
-1.5293823e-07
-1.5181838e-07
-1.9665464e-06
-5.0785235e-07
-5.0581864e-07
-1.9378149e-06
-6.9804812e-07
-6.9356651e-07
-1.9328405e-06
-7.5808922e-07
-7.5238419e-07
-1.9366207e-06
-7.4102358e-07
-7.3512643e-07
-1.944708e-06
-6.8053882e-07
-6.7401375e-07
-1.9556119e-06
-5.9789468e-07
-5.8744756e-07
-1.9690294e-06
-4.9828245e-07
-4.7980609e-07
-1.9850532e-06
-3.7462083e-07
-3.5037648e-07
-2.0031554e-06
-2.2863844e-07
-2.0443345e-07
-2.022414e-06
-7.0805207e-08
-5.0002044e-08
-2.042629e-06
8.9211839e-08
1.0602942e-07
-2.0636814e-06
2.5019299e-07
2.649187e-07
-2.085493e-06
4.1170982e-07
4.2665123e-07
-2.1078447e-06
5.6737628e-07
5.8513228e-07
-2.1300842e-06
7.1204378e-07
7.3404835e-07
-2.1519706e-06
8.4299409e-07
8.6737024e-07
-2.1734151e-06
9.5615933e-07
9.7923039e-07
-2.1934294e-06
1.0483239e-06
1.0670192e-06
-2.2118205e-06
1.1226246e-06
1.1349607e-06
-2.2283872e-06
1.1820346e-06
1.1870008e-06
-2.2428924e-06
1.2215806e-06
1.219214e-06
-2.2552272e-06
1.2304814e-06
1.2213776e-06
1.2069299e-06
1.1913648e-06
-2.0508371e-06
-1.6432435e-07
-3.3958469e-08
-1.9611634e-06
-3.5825095e-07
-2.4356301e-07
-1.9307305e-06
-4.7712582e-07
-3.6728055e-07
-1.9254642e-06
-5.2565521e-07
-4.1442074e-07
-1.9295007e-06
-5.2726969e-07
-4.1336338e-07
-1.9379647e-06
-4.9970284e-07
-3.8510254e-07
-1.9492171e-06
-4.5794869e-07
-3.4140326e-07
-1.9627975e-06
-4.0312379e-07
-2.8225577e-07
-1.978751e-06
-3.2580082e-07
-2.0286257e-07
-1.9966243e-06
-2.2785198e-07
-1.0676492e-07
-2.0157788e-06
-1.1964765e-07
-2.5751483e-09
-2.035896e-06
-1.0710267e-08
1.0155652e-07
-2.0567263e-06
9.6906865e-08
2.059855e-07
-2.0782234e-06
2.0258e-07
3.1141569e-07
-2.1002655e-06
2.9993282e-07
4.1095523e-07
-2.122164e-06
3.8641995e-07
4.9998421e-07
-2.1436136e-06
4.6411988e-07
5.7709122e-07
-2.1644581e-06
5.3156418e-07
6.3854924e-07
-2.1838051e-06
5.871553e-07
6.8305278e-07
-2.2015777e-06
6.3551944e-07
7.1633603e-07
-2.2176427e-06
6.775667e-07
7.414701e-07
-2.2316506e-06
7.0703161e-07
7.5406496e-07
-2.2433361e-06
7.1567679e-07
7.4527901e-07
7.0443322e-07
7.1367653e-07
-2.051375e-06
-1.7452811e-07
8.0680518e-08
-1.9644884e-06
-2.0472531e-07
1.5535708e-08
-1.934765e-06
-2.473217e-07
-3.9289118e-08
-1.9297388e-06
-2.7886508e-07
-7.0317027e-08
-1.9337631e-06
-2.9702065e-07
-8.2456135e-08
-1.9418078e-06
-3.0155441e-07
-8.484582e-08
-1.9524085e-06
-3.0001933e-07
-8.3424538e-08
-1.9653129e-06
-2.9145679e-07
-7.467809e-08
-1.9803254e-06
-2.6346376e-07
-4.7875694e-08
-1.9970061e-06
-2.1655393e-07
-4.3169104e-09
-2.0150412e-06
-1.6184171e-07
4.5591992e-08
-2.0341789e-06
-1.0801621e-07
9.378205e-08
-2.0539849e-06
-5.7094925e-08
1.4091515e-07
-2.0744009e-06
-1.0113277e-08
1.8688517e-07
-2.0954682e-06
2.6569336e-08
2.2384032e-07
-2.116602e-06
5.2970158e-08
2.4935871e-07
-2.1372292e-06
7.6427257e-08
2.6749693e-07
-2.1572238e-06
9.9115096e-08
2.778456e-07
-2.1759572e-06
1.1971096e-07
2.7997602e-07
-2.1932397e-06
1.42203e-07
2.7905527e-07
-2.2088955e-06
1.6576241e-07
2.7646505e-07
-2.2225524e-06
1.8401111e-07
2.6801695e-07
-2.233764e-06
1.9202043e-07
2.4693177e-07
1.9352089e-07
2.1332581e-07
-2.0518196e-06
-1.8468511e-07
1.9344146e-07
-1.9714019e-06
-4.770983e-08
2.6731584e-07
-1.9448867e-06
-1.4850395e-08
2.8250032e-07
-1.9412375e-06
-2.7414545e-08
2.697363e-07
-1.9457e-06
-5.7911362e-08
2.4789114e-07
-1.9536025e-06
-9.1017136e-08
2.1913285e-07
-1.96377e-06
-1.2683634e-07
1.8241473e-07
-1.9760542e-06
-1.6273783e-07
1.4385571e-07
-1.9902552e-06
-1.8464238e-07
1.1900329e-07
-2.0058742e-06
-1.9132759e-07
1.0882376e-07
-2.022723e-06
-1.9260422e-07
1.0226196e-07
-2.0406936e-06
-1.9601565e-07
9.2021136e-08
-2.0592322e-06
-2.0388044e-07
7.9099448e-08
-2.0782414e-06
-2.1624624e-07
6.3487021e-08
-2.0978298e-06
-2.3859638e-07
3.7158273e-08
-2.1176853e-06
-2.6947051e-07
-6.2593639e-10
-2.1369043e-06
-2.9772649e-07
-4.0802605e-08
-2.1555321e-06
-3.1698475e-07
-7.9871431e-08
-2.1731243e-06
-3.2862281e-07
-1.1771352e-07
-2.1893992e-06
-3.3091288e-07
-1.5175984e-07
-2.2040559e-06
-3.2546762e-07
-1.8297101e-07
-2.2166292e-06
-3.1734432e-07
-2.1424083e-07
-2.2268436e-06
-3.0903879e-07
-2.4882108e-07
-2.9604789e-07
-2.8574453e-07
-2.0549619e-06
-1.9811483e-07
3.0750942e-07
-1.9841447e-06
1.1340287e-07
5.0793533e-07
-1.9631546e-06
2.181345e-07
5.9104982e-07
-1.961981e-06
2.2317667e-07
5.9652106e-07
-1.9676887e-06
1.824228e-07
5.6701261e-07
-1.9765576e-06
1.2275387e-07
5.1510692e-07
-1.9872648e-06
5.1782741e-08
4.4545268e-07
-1.9997365e-06
-2.4010617e-08
3.6699565e-07
-2.0140486e-06
-9.2255206e-08
2.9588717e-07
-2.0295002e-06
-1.5196351e-07
2.33929e-07
-2.0459471e-06
-2.088755e-07
1.7217763e-07
-2.0633365e-06
-2.6888806e-07
1.041029e-07
-2.081222e-06
-3.3444015e-07
3.0685445e-08
-2.0993657e-06
-4.0374529e-07
-4.5981535e-08
-2.1176854e-06
-4.7960996e-07
-1.3250224e-07
-2.1362172e-06
-5.6083111e-07
-2.2918459e-07
-2.1540859e-06
-6.3506859e-07
-3.2425458e-07
-2.1712013e-06
-6.9352413e-07
-4.1028e-07
-2.1872209e-06
-7.366265e-07
-4.8656154e-07
-2.2019815e-06
-7.6371976e-07
-5.5343084e-07
-2.2150845e-06
-7.7647526e-07
-6.139415e-07
-2.2258923e-06
-7.7817768e-07
-6.691787e-07
-2.2342409e-06
-7.6912953e-07
-7.1821076e-07
-7.4592593e-07
-7.5939414e-07
-2.0293891e-06
4.4896408e-07
-2.5104529e-07
-1.9602385e-06
7.4886838e-07
3.0416364e-07
-1.9457641e-06
8.8731133e-07
4.79145e-07
-1.9503095e-06
9.0837516e-07
4.9454606e-07
-1.9622243e-06
8.7506627e-07
4.3900624e-07
-1.9777329e-06
8.0630899e-07
3.4988852e-07
-1.9952304e-06
7.1181356e-07
2.4219927e-07
-2.0147181e-06
6.0164259e-07
1.2458856e-07
-2.036593e-06
4.8826695e-07
5.6060857e-09
-2.0600758e-06
3.7359507e-07
-1.1303132e-07
-2.0845213e-06
2.5334224e-07
-2.3214032e-07
-2.1099542e-06
1.2227918e-07
-3.5496116e-07
-2.1360533e-06
-1.8551087e-08
-4.8281752e-07
-2.1619371e-06
-1.6453435e-07
-6.1197873e-07
-2.1873457e-06
-3.1795157e-07
-7.4137038e-07
-2.2119933e-06
-4.7886042e-07
-8.701378e-07
-2.2353585e-06
-6.3642634e-07
-9.898393e-07
-2.2572445e-06
-7.8035118e-07
-1.0901123e-06
-2.2772143e-06
-9.0749484e-07
-1.1674817e-06
-2.2948335e-06
-1.0177911e-06
-1.2211709e-06
-2.3097641e-06
-1.1142948e-06
-1.2508678e-06
-2.3212301e-06
-1.1964462e-06
-1.2593083e-06
-2.3289079e-06
-1.2611462e-06
-1.2456742e-06
-1.3054548e-06
-1.2077743e-06
-2.0739628e-06
-1.59237e-08
-4.2745294e-07
2.5554882e-08
-2.0064125e-06
-5.5607371e-07
-8.825649e-07
8.3542674e-07
-1.9864556e-06
-8.0853425e-07
-1.1057767e-06
1.1361371e-06
-1.983836e-06
-8.6922706e-07
-1.1646513e-06
1.1874722e-06
-1.9880504e-06
-8.2749798e-07
-1.1342135e-06
1.1169205e-06
-1.9963124e-06
-7.3400815e-07
-1.0516741e-06
9.8595988e-07
-2.0076464e-06
-6.1351792e-07
-9.3354619e-07
8.1857612e-07
-2.0216177e-06
-4.7343757e-07
-7.8543084e-07
6.2283016e-07
-2.0383519e-06
-3.0918443e-07
-6.1215242e-07