/*--------------------------------*- C++ -*----------------------------------*\
| =========                 |                                                 |
| \\      /  F ield         | OpenFOAM: The Open Source CFD Toolbox           |
|  \\    /   O peration     | Version:  4.1                                   |
|   \\  /    A nd           | Web:      www.OpenFOAM.org                      |
|    \\/     M anipulation  |                                                 |
\*---------------------------------------------------------------------------*/
FoamFile
{
    version     2.0;
    format      ascii;
    class       volVectorField;
    location    "0.000410";
    object      U;
}
// * * * * * * * * * * * * * * * * * * * * * * * * * * * * * * * * * * * * * //

dimensions      [0 1 -1 0 0 0 0];

internalField   nonuniform List<vector> 
3072
(
(12.26704 -0.15504517 -0.00018938392)
(13.110471 -0.28265639 -0.00024798969)
(13.27831 -0.2466336 -8.1614857e-05)
(13.339235 -0.17779688 3.1241675e-05)
(13.321029 -0.11802789 2.7612873e-06)
(13.247348 -0.081108727 -0.00013721087)
(13.152967 -0.058040212 -0.00023880603)
(13.045717 -0.044844988 -0.0002735016)
(12.930478 -0.036415923 -0.00024007794)
(12.810106 -0.028513628 -0.00020794355)
(12.673973 -0.014232864 -0.00018845108)
(12.488141 0.0035857715 -0.00012629791)
(12.296535 0.016191008 -7.5812199e-05)
(12.113783 0.028719355 -5.5914598e-05)
(11.952948 0.036891406 -8.4537697e-05)
(11.832712 0.042108147 -0.00012354348)
(11.754762 0.04617152 -0.00013902464)
(11.722482 0.046548625 -0.00010665095)
(11.729898 0.046751228 -1.6790832e-06)
(11.771603 0.045245174 0.00011140812)
(11.830486 0.044124097 0.00016008652)
(11.91877 0.042364369 0.00015798043)
(11.996321 0.039378535 0.00016119359)
(12.077728 0.036140692 0.0001399931)
(11.934602 -0.053219108 0.053356752)
(12.527039 -0.14291762 0.063819851)
(12.659024 -0.16542918 0.035602983)
(12.714435 -0.13002571 0.014254998)
(12.702334 -0.090567533 -0.00080970191)
(12.64355 -0.063830496 -0.011401747)
(12.562894 -0.046230341 -0.018893785)
(12.467853 -0.036031058 -0.02536491)
(12.363286 -0.029485283 -0.030669925)
(12.252672 -0.023084527 -0.035267047)
(12.131703 -0.013139617 -0.041198124)
(11.992126 -7.1684883e-05 -0.045659182)
(11.849835 0.011856219 -0.046808641)
(11.706236 0.023657274 -0.047391948)
(11.569687 0.034375105 -0.045778553)
(11.444571 0.043097645 -0.044053069)
(11.338171 0.050780328 -0.041070949)
(11.252735 0.055505613 -0.03768593)
(11.190205 0.059013519 -0.034085542)
(11.151065 0.06053785 -0.030174713)
(11.130881 0.06162542 -0.026397184)
(11.135863 0.060590501 -0.022936134)
(11.149005 0.056875778 -0.019828658)
(11.175486 0.052256021 -0.016107565)
(11.811958 -0.023986542 0.066638221)
(12.309785 -0.097915594 0.065956733)
(12.450942 -0.13539217 0.030317722)
(12.525202 -0.11330057 0.0031607409)
(12.537009 -0.082905425 -0.01690768)
(12.500806 -0.060246008 -0.031321578)
(12.436671 -0.044637201 -0.042363596)
(12.352907 -0.034948702 -0.052195277)
(12.254134 -0.028393117 -0.06029974)
(12.14432 -0.021874762 -0.067021342)
(12.021465 -0.011961687 -0.074270734)
(11.882404 9.1969675e-05 -0.078835218)
(11.736434 0.010803399 -0.081079512)
(11.586844 0.021234552 -0.081825052)
(11.4394 0.030678269 -0.080423248)
(11.298437 0.038947826 -0.078422764)
(11.169631 0.046129531 -0.074496805)
(11.053819 0.051207655 -0.069861772)
(10.954352 0.055057344 -0.064302879)
(10.871534 0.057220764 -0.057970428)
(10.804729 0.058961129 -0.051261774)
(10.757075 0.058550592 -0.044462136)
(10.721598 0.055834323 -0.037501882)
(10.701392 0.051769792 -0.029606527)
(11.737283 -0.0040790739 0.088063761)
(12.167265 -0.06126659 0.082618696)
(12.312096 -0.10485953 0.033764011)
(12.396059 -0.092879227 -0.0013896631)
(12.425026 -0.070364758 -0.027958905)
(12.406664 -0.052339208 -0.047813657)
(12.356173 -0.039549604 -0.063177709)
(12.281725 -0.030768166 -0.076594809)
(12.189544 -0.024602781 -0.088304093)
(12.082656 -0.018586729 -0.098119127)
(11.963071 -0.0096265676 -0.10662314)
(11.831155 0.00015987774 -0.11254166)
(11.689496 0.0091371175 -0.11611027)
(11.543479 0.018313938 -0.11760836)
(11.394052 0.026527751 -0.11681511)
(11.246616 0.03447021 -0.11436586)
(11.104149 0.041003665 -0.10953102)
(10.969339 0.046498303 -0.10319931)
(10.84622 0.050861804 -0.09531516)
(10.734551 0.053497013 -0.086302765)
(10.636866 0.055594142 -0.076171621)
(10.554357 0.055778706 -0.065489805)
(10.485107 0.053981081 -0.054035207)
(10.431327 0.050552023 -0.041418079)
(11.686813 0.0068765916 0.1134638)
(12.035531 -0.033708695 0.1049031)
(12.178876 -0.076129055 0.038374024)
(12.264996 -0.070031326 -0.0040024419)
(12.307612 -0.055299856 -0.037892582)
(12.305526 -0.042466979 -0.063301504)
(12.270397 -0.033018551 -0.083639419)
(12.208723 -0.026014071 -0.1008573)
(12.127216 -0.02087017 -0.11597207)
(12.028541 -0.015551075 -0.12873391)
(11.918167 -0.0083109217 -0.13893443)
(11.794131 -0.0010034931 -0.14682081)
(11.659054 0.0059142472 -0.15219179)
(11.517382 0.012939445 -0.15527046)
(11.367881 0.019197276 -0.15596821)
(11.217158 0.02539594 -0.15394599)
(11.066389 0.030596206 -0.14900458)
(10.920047 0.035877223 -0.1409116)
(10.78152 0.040234899 -0.13060249)
(10.650659 0.043284653 -0.11863698)
(10.531208 0.045892533 -0.10489535)
(10.423603 0.046783847 -0.090112201)
(10.32828 0.046093557 -0.0740418)
(10.247314 0.043780819 -0.05663661)
(11.679323 0.007922405 0.14171501)
(11.905915 -0.01654105 0.13235372)
(12.045578 -0.049794316 0.044822119)
(12.127791 -0.046320788 -0.00513091)
(12.184451 -0.03892063 -0.047685372)
(12.200333 -0.03161473 -0.078690552)
(12.185203 -0.026237214 -0.10401935)
(12.14257 -0.022119636 -0.12547738)
(12.078374 -0.018652023 -0.1439015)
(11.99734 -0.014878504 -0.15928104)
(11.90176 -0.010129464 -0.17168343)
(11.787871 -0.0050928074 -0.18125594)
(11.662309 -0.00057213934 -0.18814393)
(11.523282 0.0039874471 -0.19260121)
(11.374377 0.0073156304 -0.19512904)
(11.219671 0.011269083 -0.1944413)
(11.06128 0.015619713 -0.1887483)
(10.905356 0.020633754 -0.17825842)
(10.754108 0.024458959 -0.16507682)
(10.608928 0.027086609 -0.14987671)
(10.472634 0.029119564 -0.13278882)
(10.346453 0.03012387 -0.1142385)
(10.231158 0.030198305 -0.093999216)
(10.129126 0.028979166 -0.07232006)
(11.75126 0.0034352442 0.17265302)
(11.801179 -0.0078079932 0.15717925)
(11.941043 -0.026033178 0.052376455)
(12.018168 -0.023750732 -0.008021312)
(12.0947 -0.021350322 -0.058051355)
(12.137928 -0.018838821 -0.094812166)
(12.153605 -0.017256503 -0.12535583)
(12.143503 -0.015924388 -0.15159425)
(12.113361 -0.014462188 -0.17444855)
(12.060554 -0.012936386 -0.1938721)
(11.982969 -0.011463743 -0.20947579)
(11.881463 -0.01037144 -0.22082286)
(11.759611 -0.0095405669 -0.2290747)
(11.621217 -0.010384734 -0.23529332)
(11.467826 -0.011326928 -0.24073041)
(11.30338 -0.0060150292 -0.23870029)
(11.131487 -0.0017682921 -0.22893088)
(10.959154 0.0017900221 -0.21529063)
(10.791147 0.0041753685 -0.19838424)
(10.630315 0.0057617617 -0.179017)
(10.478729 0.0067769908 -0.15806062)
(10.337307 0.0073962827 -0.13526119)
(10.207436 0.0077749805 -0.11081533)
(10.091127 0.0075062795 -0.085330422)
(12.108831 0.0018957964 0.18321693)
(11.829881 0.0022883006 0.16322581)
(11.963061 -0.00052153705 0.062084348)
(12.032176 -0.0020246188 -0.0093446846)
(12.138801 -0.0027389491 -0.064146217)
(12.223712 -0.0029872506 -0.10715946)
(12.286589 -0.0029958866 -0.14524265)
(12.321033 -0.0024571154 -0.18026839)
(12.324128 -0.0015652402 -0.21245238)
(12.293852 -0.00089496906 -0.24084549)
(12.230588 -0.0005677743 -0.26423904)
(12.136271 -0.00051531894 -0.28110418)
(12.015858 -0.00042719589 -0.29102405)
(11.874266 -0.00056087025 -0.29617524)
(11.711045 -0.00046129948 -0.2979451)
(11.531103 -0.00037004745 -0.29130223)
(11.34327 -0.00040802913 -0.27910633)
(11.152184 -0.00025773422 -0.26409931)
(10.961945 -0.00033577435 -0.2430531)
(10.778029 -0.00059539951 -0.2166928)
(10.606098 -0.00098100005 -0.18778906)
(10.448335 -0.0013579228 -0.15760175)
(10.305075 -0.0015016929 -0.12653222)
(10.179083 -0.0011903694 -0.095692341)
(11.934614 -0.053217539 -0.053730959)
(12.527144 -0.14299605 -0.064386603)
(12.659303 -0.16556237 -0.035757248)
(12.715037 -0.13020827 -0.01415278)
(12.703035 -0.090708545 0.00079946107)
(12.643671 -0.063865481 0.011017503)
(12.562174 -0.046218423 0.01825827)
(12.466378 -0.036001453 0.024647226)
(12.361331 -0.029431552 0.030017773)
(12.250668 -0.022988816 0.034699439)
(12.129687 -0.012995009 0.040674252)
(11.990319 4.0381597e-05 0.045278083)
(11.8473 0.011896278 0.046625669)
(11.702755 0.023606169 0.047304267)
(11.566816 0.034327281 0.045615219)
(11.4424 0.043144473 0.043748328)
(11.336314 0.050947118 0.04063621)
(11.250891 0.055667859 0.037298802)
(11.188479 0.059093791 0.033933329)
(11.149791 0.060545832 0.030263692)
(11.130321 0.061573508 0.02660677)
(11.135884 0.060465106 0.023194875)
(11.149358 0.056671192 0.020149234)
(11.176456 0.052038802 0.016388752)
(11.575529 0.00065925589 -0.00019257151)
(11.891248 -0.064530836 -0.00026527954)
(11.959372 -0.11308401 -4.8556052e-05)
(11.996768 -0.098136574 8.5625437e-05)
(11.983563 -0.071684687 -3.7673181e-05)
(11.934888 -0.051781883 -0.00028899072)
(11.867202 -0.03818475 -0.00041008907)
(11.786372 -0.029914795 -0.00043729853)
(11.699338 -0.025041275 -0.00040987116)
(11.609128 -0.019933183 -0.00039727546)
(11.514796 -0.012804221 -0.00037922173)
(11.421037 -0.0036069641 -0.00029065544)
(11.322471 0.005244518 -0.00013200908)
(11.222665 0.014032621 -1.2762168e-05)
(11.122856 0.023194521 -5.7728295e-05)
(11.021231 0.031400108 -0.00019015603)
(10.921917 0.038696161 -0.00027414405)
(10.825134 0.044555805 -0.00023530453)
(10.735299 0.049328845 -7.1524401e-05)
(10.655405 0.052639545 8.722262e-05)
(10.586612 0.055637492 0.0001723336)
(10.531424 0.056283107 0.00022671858)
(10.488596 0.05416512 0.0003002745)
(10.461416 0.050538623 0.00028631714)
(11.492842 0.0091795862 0.017675169)
(11.758386 -0.043826781 0.012580527)
(11.833783 -0.092198044 0.003012534)
(11.886544 -0.084951339 -0.0058069455)
(11.895374 -0.064785265 -0.013178387)
(11.867418 -0.048053023 -0.018586132)
(11.816063 -0.036240478 -0.023077449)
(11.747593 -0.028551886 -0.027125394)
(11.667973 -0.023389167 -0.030272644)
(11.580382 -0.017957633 -0.032943595)
(11.485303 -0.010482388 -0.035513198)
(11.382539 -0.0019623548 -0.03724434)
(11.271717 0.005849616 -0.038540689)
(11.156637 0.01340845 -0.039431502)
(11.03892 0.02059011 -0.039888051)
(10.920156 0.02696062 -0.040088298)
(10.801913 0.032081515 -0.039361808)
(10.685375 0.036112933 -0.037863787)
(10.574054 0.03931905 -0.035667235)
(10.470462 0.04145966 -0.032783906)
(10.375626 0.043332028 -0.029679221)
(10.29106 0.043496934 -0.026088768)
(10.218225 0.041831174 -0.021978334)
(10.160222 0.038751518 -0.017441549)
(11.461402 0.012255368 0.040985998)
(11.712419 -0.027182083 0.034553304)
(11.80113 -0.070602494 0.011417446)
(11.869705 -0.068368049 -0.0072750365)
(11.898429 -0.05378675 -0.022957804)
(11.887588 -0.040711816 -0.034649549)
(11.849133 -0.030955815 -0.043953598)
(11.789789 -0.0240088 -0.052245133)
(11.715924 -0.018795027 -0.059019475)
(11.630731 -0.013406255 -0.064873475)
(11.535236 -0.0063014427 -0.070042388)
(11.429241 0.0010055987 -0.073636922)
(11.312962 0.0076657588 -0.076036826)
(11.189695 0.01426202 -0.077513076)
(11.061284 0.020184168 -0.078054084)
(10.930446 0.025347821 -0.077675587)
(10.79871 0.029052097 -0.075539198)
(10.667818 0.031959123 -0.072138217)
(10.541248 0.034151715 -0.067588176)
(10.421545 0.035542951 -0.061986301)
(10.310139 0.036553949 -0.05560875)
(10.208292 0.036260304 -0.048373459)
(10.118127 0.034657237 -0.040106384)
(10.042741 0.031922833 -0.030930023)
(11.443403 0.010921763 0.066728694)
(11.687167 -0.014031942 0.060323441)
(11.79022 -0.048388602 0.020727953)
(11.872504 -0.048727935 -0.0077322793)
(11.919709 -0.040193771 -0.031921416)
(11.925858 -0.031353548 -0.050489308)
(11.90131 -0.024150167 -0.065170073)
(11.851928 -0.018516395 -0.077781157)
(11.784399 -0.013868564 -0.088637009)
(11.702352 -0.0087879753 -0.09772843)
(11.606411 -0.0028970559 -0.10522715)
(11.49593 0.0027771087 -0.11085076)
(11.373141 0.0081558331 -0.11456126)
(11.241163 0.013171532 -0.11677169)
(11.101978 0.017612534 -0.11751993)
(10.959145 0.021446264 -0.11624278)
(10.815082 0.023782222 -0.11274738)
(10.672444 0.025528849 -0.10721511)
(10.534186 0.026613812 -0.10012927)
(10.402454 0.027165323 -0.091737432)
(10.27921 0.027541967 -0.081974646)
(10.165608 0.026889629 -0.070991699)
(10.063571 0.025491304 -0.058541852)
(9.9762737 0.023456075 -0.044893853)
(11.43675 0.0058514011 0.094392809)
(11.666797 -0.0041870925 0.089922484)
(11.781791 -0.02497109 0.030445159)
(11.871911 -0.026904747 -0.0065528035)
(11.935811 -0.023744589 -0.03979862)
(11.959664 -0.019540106 -0.064937987)
(11.951018 -0.015905533 -0.085309737)
(11.914382 -0.012543657 -0.1026127)
(11.856252 -0.0091345872 -0.11745704)
(11.779949 -0.0055078329 -0.12987929)
(11.685787 -0.001806539 -0.13983583)
(11.573944 0.0016352546 -0.1473745)
(11.446999 0.0047875181 -0.15250238)
(11.307959 0.0079389906 -0.1555114)
(11.1598 0.011068911 -0.15636477)
(11.006033 0.013932378 -0.15412382)
(10.850407 0.014527908 -0.14965317)
(10.696829 0.015235347 -0.14169284)
(10.547961 0.015429292 -0.13157288)
(10.405717 0.01521123 -0.11999549)
(10.272278 0.014639465 -0.10670259)
(10.149429 0.013777387 -0.092084833)
(10.038633 0.012912723 -0.075784165)
(9.9425205 0.012051413 -0.058179159)
(11.475823 0.0037475875 0.12953267)
(11.663949 0.0042459369 0.12234705)
(11.79249 -0.00050755078 0.039968526)
(11.88519 -0.0031823936 -0.0059158906)
(11.96328 -0.004395636 -0.047928053)
(12.003462 -0.0048364237 -0.079390916)
(12.011983 -0.0050319855 -0.10531756)
(11.992503 -0.0042914468 -0.12743434)
(11.949244 -0.0028559861 -0.14633861)
(11.883583 -0.0016726687 -0.16213064)
(11.796493 -0.0010728045 -0.17473551)
(11.688478 -0.00098062061 -0.18407518)
(11.561813 -0.0010420126 -0.19067071)
(11.42011 -0.001120477 -0.19501946)
(11.266624 -0.00090974198 -0.19818591)
(11.105702 -0.00068133664 -0.19756769)
(10.940809 -0.00067847603 -0.19029697)
(10.776646 -0.00063143472 -0.1772927)
(10.617769 -0.00087894983 -0.16228162)
(10.46626 -0.0011469658 -0.14639712)
(10.324106 -0.0016611469 -0.1293109)
(10.193378 -0.0021836127 -0.11083102)
(10.075401 -0.0022743276 -0.090783553)
(9.9719227 -0.0016567025 -0.069641717)
(11.729547 0.0020446396 0.17100295)
(11.762539 0.01406449 0.15509584)
(11.900776 0.025347322 0.052161246)
(11.982367 0.018791164 -0.0069604259)
(12.065136 0.014435423 -0.056381685)
(12.113907 0.011259132 -0.092865213)
(12.137545 0.0095925222 -0.1232605)
(12.137936 0.0094745099 -0.14993086)
(12.110959 0.01005499 -0.1733052)
(12.05703 0.010320127 -0.19304227)
(11.979589 0.009854056 -0.20893333)
(11.878478 0.0089234493 -0.2203905)
(11.757382 0.0081278327 -0.22851279)
(11.618887 0.0088354101 -0.2346026)
(11.465674 0.009982172 -0.24008519)
(11.300988 0.0049811675 -0.23805816)
(11.129846 0.00089672411 -0.22850402)
(10.957478 -0.0027170826 -0.21479068)
(10.789318 -0.0053222457 -0.19790065)
(10.628368 -0.0075122462 -0.17854663)
(10.476949 -0.0093784945 -0.15749959)
(10.336938 -0.010881267 -0.13460757)
(10.209214 -0.011536475 -0.11018988)
(10.094967 -0.010408532 -0.084998172)
(11.811915 -0.024085177 -0.066948717)
(12.309421 -0.098094456 -0.06643718)
(12.450153 -0.13560147 -0.030514047)
(12.524864 -0.11356974 -0.0031044846)
(12.53733 -0.083146629 0.016951112)
(12.500834 -0.060364911 0.03101921)
(12.435878 -0.044730438 0.041782619)
(12.35113 -0.035001707 0.051498404)
(12.251614 -0.028331214 0.059641066)
(12.141986 -0.021676029 0.066449022)
(12.019644 -0.011663671 0.073718622)
(11.880578 0.0002841658 0.078447035)
(11.734703 0.010863123 0.08089131)
(11.585681 0.021316578 0.081703308)
(11.439415 0.030873394 0.080212095)
(11.299314 0.03928131 0.07807817)
(11.170533 0.046462558 0.074040949)
(11.054001 0.051455535 0.069442575)
(10.953874 0.055191822 0.064054789)
(10.870988 0.057243641 0.05792018)
(10.804575 0.058887291 0.051340716)
(10.757233 0.058304942 0.044657588)
(10.721899 0.055436847 0.037775768)
(10.702304 0.051385039 0.029797191)
(11.492847 0.0090727555 -0.018015833)
(11.758107 -0.043959836 -0.013077234)
(11.833441 -0.092275038 -0.0031697397)
(11.887045 -0.085006025 0.0059190506)
(11.896301 -0.064803259 0.013107064)
(11.867668 -0.048078545 0.018057496)
(11.815537 -0.036315127 0.022328832)
(11.746469 -0.028615852 0.026322836)
(11.666296 -0.023328659 0.029450235)
(11.57837 -0.017774203 0.032083843)
(11.482992 -0.010289609 0.034654009)
(11.379962 -0.0018360738 0.036624173)
(11.269411 0.0059202625 0.038264641)
(11.15537 0.013534798 0.039346182)
(11.038287 0.020800466 0.039678666)
(10.919672 0.027177564 0.039652251)
(10.801172 0.032222785 0.038765518)
(10.684206 0.036174833 0.037377821)
(10.572749 0.03933492 0.035503147)
(10.469438 0.041456533 0.032922709)
(10.375005 0.043298827 0.030018489)
(10.290703 0.04338354 0.02661672)
(10.21824 0.041650885 0.02269372)
(10.161104 0.038587572 0.01809737)
(11.418311 0.012594747 -0.00011827391)
(11.643915 -0.028026747 -0.00019719852)
(11.719528 -0.070071666 -8.7085651e-05)
(11.78098 -0.068671258 3.2633864e-05)
(11.804547 -0.054635536 -0.00010281493)
(11.790785 -0.041970372 -0.00031075227)
(11.751066 -0.032624673 -0.00036868779)
(11.692137 -0.026510803 -0.00040088175)
(11.619379 -0.021624532 -0.00046130759)
(11.535402 -0.016397325 -0.00052393006)
(11.440864 -0.0098157076 -0.00051393427)
(11.333569 -0.0026729378 -0.00037568708)
(11.216663 0.0039305881 -0.00016941659)
(11.092929 0.010425041 -0.00010319911)
(10.964247 0.016291654 -0.00019772554)
(10.833172 0.021151081 -0.00032000946)
(10.700635 0.02491159 -0.00033241627)
(10.56938 0.027578018 -0.00023230444)
(10.442849 0.02958074 -3.7185581e-05)
(10.323989 0.030939173 0.00013654379)
(10.213324 0.031843629 0.00024694829)
(10.111885 0.031419852 0.00036346177)
(10.02229 0.029779446 0.00050049686)
(9.9478599 0.027188042 0.00048141602)
(11.395199 0.011788182 0.019688646)
(11.613714 -0.015230452 0.016820964)
(11.698618 -0.047566844 0.0056869095)
(11.772285 -0.049211255 -0.0031299297)
(11.81082 -0.040519386 -0.010854002)
(11.810028 -0.031966097 -0.016549819)
(11.780111 -0.025138971 -0.021166755)
(11.728343 -0.020299125 -0.025073327)
(11.661014 -0.016348355 -0.028335349)
(11.580683 -0.011875588 -0.031399261)
(11.486908 -0.006637346 -0.03395306)
(11.378916 -0.0013922495 -0.035705431)
(11.259065 0.0035975876 -0.037064005)
(11.129774 0.0085222033 -0.037971709)
(10.993233 0.012952359 -0.03844348)
(10.852177 0.016452419 -0.038372821)
(10.708951 0.018926751 -0.037551349)
(10.566449 0.020719343 -0.035836484)
(10.428334 0.022052421 -0.033525863)
(10.297622 0.022951014 -0.030763688)
(10.174986 0.023447259 -0.027657576)
(10.061938 0.022875731 -0.023992031)
(9.9614372 0.021550371 -0.019698469)
(9.876821 0.019733896 -0.015039462)
(11.38739 0.0087098329 0.041584253)
(11.6117 -0.004542309 0.037242198)
(11.709379 -0.024387657 0.01270654)
(11.795998 -0.027301769 -0.0053967479)
(11.849122 -0.023790744 -0.021270933)
(11.860734 -0.019570283 -0.03321205)
(11.840213 -0.015924268 -0.042688103)
(11.793962 -0.012849864 -0.05061284)
(11.729012 -0.0099334508 -0.057371923)
(11.648989 -0.0067253652 -0.063302356)
(11.553187 -0.0034162968 -0.068246986)
(11.441345 -0.00047408329 -0.071934344)
(11.315852 0.0023201027 -0.074568512)
(11.179569 0.0050332808 -0.076326525)
(11.034517 0.0074829495 -0.077187597)
(10.883581 0.009344758 -0.076819411)
(10.730771 0.010418559 -0.074975013)
(10.579582 0.011385543 -0.071432752)
(10.433182 0.012061678 -0.066987246)
(10.293966 0.012470788 -0.06170254)
(10.163127 0.012547224 -0.055521073)
(10.042281 0.011955297 -0.048293633)
(9.9343872 0.01117198 -0.039900512)
(9.8432008 0.010422331 -0.030684927)
(11.387783 0.0042984832 0.065071301)
(11.61762 0.0048885288 0.06129385)
(11.724561 0.00010657263 0.020919411)
(11.81795 -0.0031736738 -0.0063407262)
(11.881335 -0.0045334474 -0.030788982)
(11.90252 -0.0050019685 -0.049221804)
(11.889953 -0.0051746452 -0.063997706)
(11.849456 -0.0045935416 -0.076341045)
(11.787422 -0.0033277924 -0.086842873)
(11.707588 -0.00203675 -0.095813229)
(11.610473 -0.0013311914 -0.10310022)
(11.496145 -0.00117436 -0.10860323)
(11.367139 -0.0011686622 -0.11240582)
(11.226759 -0.0010628193 -0.11477634)
(11.077029 -0.00086826865 -0.11562798)
(10.920565 -0.00074200881 -0.11411156)
(10.762182 -0.00090012584 -0.11085449)
(10.606675 -0.0011855328 -0.10559839)
(10.4566 -0.0014255722 -0.099063993)
(10.313448 -0.0015137927 -0.091277492)
(10.179112 -0.001858481 -0.081997783)
(10.055589 -0.0023014125 -0.071283791)
(9.9451039 -0.002304085 -0.058967377)
(9.8508767 -0.001571198 -0.045466537)
(11.422881 0.0020943623 0.09387299)
(11.644843 0.013348454 0.08930918)
(11.760052 0.024931089 0.030060264)
(11.853891 0.020864923 -0.0065411614)
(11.922134 0.015006322 -0.039623334)
(11.948345 0.0098187269 -0.064677262)
(11.942003 0.005848515 -0.085067404)
(11.909035 0.003760873 -0.10232296)
(11.853339 0.0028494983 -0.11710346)
(11.777539 0.0016240051 -0.1296222)
(11.682976 -0.00071207126 -0.13960205)
(11.570549 -0.0038683114 -0.14716993)
(11.44344 -0.007107389 -0.15233056)
(11.30481 -0.010273507 -0.15545394)
(11.157016 -0.01309415 -0.15627065)
(11.002709 -0.015590527 -0.15397565)
(10.845928 -0.016068954 -0.14932098)
(10.691619 -0.017104775 -0.14122294)
(10.542706 -0.017622844 -0.13104541)
(10.400473 -0.017864088 -0.11962354)
(10.267146 -0.018137854 -0.10645933)
(10.144834 -0.018237437 -0.091902461)
(10.035148 -0.017514234 -0.075710768)
(9.9400196 -0.015338289 -0.058227556)
(11.642834 -0.0023525507 0.13926279)
(11.843077 0.022781752 0.12917575)
(11.980215 0.049913053 0.043882208)
(12.069698 0.041862382 -0.0041462114)
(12.136465 0.032231266 -0.045900012)
(12.161415 0.024086647 -0.076583039)
(12.156285 0.01855645 -0.10162068)
(12.124541 0.01548716 -0.12324227)
(12.067239 0.013862721 -0.14218639)
(11.992338 0.011712006 -0.15830372)
(11.896394 0.0080257391 -0.1709894)
(11.781477 0.0033403707 -0.18048637)
(11.655455 -0.0013911697 -0.18719607)
(11.51731 -0.0057243074 -0.19179478)
(11.369887 -0.0088746708 -0.19433491)
(11.216961 -0.012622314 -0.19385476)
(11.059132 -0.016646292 -0.18823134)
(10.901946 -0.021879306 -0.17748967)
(10.749935 -0.026008209 -0.16423044)
(10.604456 -0.029216247 -0.14916413)
(10.468682 -0.031907577 -0.13211965)
(10.344291 -0.033661841 -0.11345991)
(10.232329 -0.034017158 -0.093221602)
(10.133928 -0.03191688 -0.071880521)
(11.737146 -0.0043100543 -0.088208909)
(12.16612 -0.061580677 -0.08286505)
(12.309884 -0.10508755 -0.033859817)
(12.394573 -0.093063371 0.0014330992)
(12.425041 -0.070480774 0.027999557)
(12.407176 -0.052436399 0.047587345)
(12.356251 -0.039742309 0.062691246)
(12.281055 -0.03094192 0.075935137)
(12.188457 -0.024554948 0.08766845)
(12.081846 -0.018268545 0.097588342)
(11.962591 -0.0092008009 0.10610019)
(11.83061 0.0005571319 0.11205602)
(11.689539 0.0095032899 0.11570358)
(11.545389 0.018775486 0.11728782)
(11.397634 0.027078456 0.11651763)
(11.250789 0.035009473 0.1140291)
(11.107844 0.04137573 0.10922378)
(10.971687 0.0466553 0.10293144)
(10.847342 0.050893974 0.095104373)
(10.735129 0.053459239 0.086218611)
(10.637215 0.055418699 0.076224024)
(10.554506 0.055364141 0.065694362)
(10.485121 0.053384357 0.054300493)
(10.431674 0.050045676 0.041513679)
(11.461533 0.011959601 -0.041200769)
(11.711939 -0.027493408 -0.034923492)
(11.800098 -0.070650712 -0.011588484)
(11.869699 -0.068277655 0.007300674)
(11.899273 -0.053636768 0.022942114)
(11.888058 -0.040735838 0.034295176)
(11.848967 -0.031139419 0.043375441)
(11.78929 -0.024177136 0.051593683)
(11.715184 -0.018716568 0.058320389)
(11.629365 -0.01307432 0.064090473)
(11.532846 -0.0059675605 0.069210643)
(11.426101 0.0013114189 0.07301356)
(11.310142 0.0080201986 0.075619722)
(11.188387 0.014734663 0.077237857)
(11.061046 0.020661806 0.077745905)
(10.93007 0.025675694 0.077244517)
(10.797392 0.029170242 0.075027614)
(10.665508 0.031908973 0.071733881)
(10.538651 0.034037954 0.067406613)
(10.419285 0.0354335 0.062051971)
(10.30822 0.036369284 0.055910004)
(10.206593 0.035959718 0.048933317)
(10.116975 0.034292956 0.040818043)
(10.042821 0.031624398 0.031482301)
(11.395687 0.011605762 -0.019799914)
(11.614088 -0.015375165 -0.017126327)
(11.698621 -0.04751686 -0.0059083598)
(11.772849 -0.049061218 0.0030539765)
(11.81159 -0.040401584 0.010599703)
(11.810309 -0.032009885 0.016015452)
(11.780114 -0.025259184 0.020551475)
(11.728491 -0.020395758 0.024399778)
(11.661131 -0.016365028 0.02749435)
(11.580103 -0.011802877 0.030362015)
(11.485282 -0.006547026 0.032897274)
(11.376603 -0.0012588205 0.034911709)
(11.256684 0.0038507361 0.036561926)
(11.12776 0.0088821386 0.037530713)
(10.991492 0.013275554 0.037867538)
(10.850167 0.016612466 0.037713963)
(10.706383 0.018910718 0.036943715)
(10.56357 0.020638497 0.035453442)
(10.425744 0.02198256 0.033487213)
(10.295615 0.02286931 0.031050601)
(10.173504 0.023325428 0.028208412)
(10.060626 0.022719658 0.024834792)
(9.9601859 0.021371643 0.02081119)
(9.8764066 0.019605986 0.016038712)
(11.375243 0.0083791155 3.2809349e-05)
(11.584182 -0.0049169191 -6.0297925e-05)
(11.672223 -0.023957949 -0.00014594997)
(11.753648 -0.026945392 -0.00013118491)
(11.801991 -0.023350916 -0.00021110046)
(11.809966 -0.019256169 -0.00027697957)
(11.787279 -0.015729961 -0.00027323529)
(11.741378 -0.012864522 -0.00031481382)
(11.678797 -0.010188201 -0.00042518983)
(11.601948 -0.0072064127 -0.00054868922)
(11.509296 -0.0041327574 -0.00055941351)
(11.400656 -0.0012911125 -0.00045545368)
(11.278966 0.001561651 -0.00035605012)
(11.146202 0.0043888677 -0.00034818281)
(11.003615 0.0068624113 -0.00039875171)
(10.854096 0.0085126807 -0.00037476748)
(10.7019 0.0093793142 -0.00026592887)
(10.550906 0.009976179 -0.00012654628)
(10.404587 0.010606386 4.9758355e-05)
(10.265351 0.011098833 0.00023542092)
(10.133875 0.011267298 0.00036956224)
(10.0121 0.010801369 0.00050553894)
(9.9035111 0.01015087 0.00066828369)
(9.8122355 0.0096294947 0.00062961606)
(11.371202 0.0042825611 0.020359605)
(11.582826 0.0049510773 0.017590301)
(11.676916 0.00037853728 0.0056602995)
(11.76522 -0.0029748078 -0.0032276049)
(11.820594 -0.0044170977 -0.011084557)
(11.833951 -0.0050042685 -0.016911878)
(11.815035 -0.0051552314 -0.021527449)
(11.770812 -0.0046063023 -0.02536851)
(11.708215 -0.003453454 -0.028666931)
(11.6306 -0.0022108006 -0.031665313)
(11.536499 -0.0015859036 -0.034159237)
(11.425798 -0.0014258562 -0.035986876)
(11.301257 -0.0011982923 -0.037421157)
(11.164967 -0.00085389986 -0.03853395)
(11.018162 -0.00068654463 -0.039052203)
(10.863885 -0.0008189022 -0.038850495)
(10.707686 -0.0012905561 -0.03782682)
(10.553861 -0.0017696046 -0.035929953)
(10.404748 -0.0018775495 -0.033618698)
(10.262064 -0.0018045649 -0.030934698)
(10.126875 -0.0020041159 -0.027828834)
(10.00161 -0.0023495884 -0.024179531)
(9.8899955 -0.0022449495 -0.019898534)
(9.7957801 -0.0013917694 -0.015313343)
(11.378282 -0.00026306172 0.041641774)
(11.59739 0.014316063 0.037222008)
(11.695264 0.02494924 0.012555536)
(11.785015 0.021451732 -0.0054745457)
(11.841273 0.015075342 -0.021329537)
(11.854209 0.0096915611 -0.033167649)
(11.834914 0.0057359005 -0.042660063)
(11.790481 0.0037636314 -0.050522758)
(11.726434 0.0031332047 -0.057197571)
(11.646074 0.0023687917 -0.063119645)
(11.549746 0.00036139163 -0.068017834)
(11.437501 -0.0022907579 -0.071687971)
(11.311746 -0.004815636 -0.074534193)
(11.175054 -0.0071503295 -0.076467401)
(11.02933 -0.0093199591 -0.077312651)
(10.877069 -0.011117505 -0.076720495)
(10.723485 -0.012625376 -0.074575351)
(10.573437 -0.014260862 -0.070872905)
(10.428707 -0.01527252 -0.066512417)
(10.29022 -0.015784578 -0.061402108)
(10.15935 -0.01642836 -0.055362821)
(10.038455 -0.016640445 -0.048230118)
(9.9307252 -0.015774615 -0.039929916)
(9.8393541 -0.013439128 -0.030819198)
(11.419237 -0.0034229544 0.066241644)
(11.648508 0.022869866 0.059674654)
(11.751456 0.048958646 0.020234739)
(11.839214 0.043671739 -0.0078089728)
(11.892981 0.032236127 -0.031794983)
(11.903622 0.022078579 -0.050130226)
(11.883648 0.014467368 -0.064974688)
(11.840199 0.010022408 -0.077515812)
(11.776569 0.0075141703 -0.088026717)
(11.695644 0.0045434261 -0.09723819)
(11.599495 -0.00015000427 -0.1047195)
(11.488553 -0.0056792854 -0.11028739)
(11.365752 -0.010900012 -0.11449819)
(11.23445 -0.015680089 -0.11683231)
(11.095832 -0.019898974 -0.11756394)
(10.952419 -0.023501648 -0.11598361)
(10.807389 -0.025705304 -0.11203138)
(10.664949 -0.027702333 -0.10616975)
(10.527778 -0.029080104 -0.099164035)
(10.396713 -0.030083332 -0.091090898)
(10.273768 -0.031160125 -0.081568395)
(10.160902 -0.031392391 -0.070728746)
(10.060443 -0.030181629 -0.058512416)
(9.9742824 -0.026816821 -0.045094722)
(11.640096 -0.0020967288 0.11094647)
(11.955761 0.039247871 0.10163429)
(12.095476 0.076537878 0.037305278)
(12.18931 0.066499162 -0.0033988226)
(12.243322 0.049290094 -0.036253532)
(12.252852 0.035434788 -0.061323371)
(12.230611 0.025677725 -0.081476869)
(12.181723 0.019705086 -0.098822976)
(12.108784 0.01629374 -0.11424235)
(12.01388 0.01222522 -0.12740989)
(11.90624 0.0057473409 -0.13792403)
(11.782478 -0.0015749023 -0.14556253)
(11.647864 -0.0082601845 -0.15121619)
(11.507798 -0.014824462 -0.15453491)
(11.360992 -0.020926188 -0.15526922)
(11.213134 -0.027013457 -0.1532769)
(11.063938 -0.032122679 -0.14814085)
(10.91739 -0.037405728 -0.13982272)
(10.778616 -0.042138953 -0.12945521)
(10.647767 -0.045735122 -0.11770187)
(10.529048 -0.04889837 -0.10404967)
(10.423685 -0.050367408 -0.089193335)
(10.332632 -0.049891413 -0.073224039)
(10.25645 -0.046772867 -0.056196981)
(11.68644 0.0064454135 -0.11341919)
(12.033724 -0.034179717 -0.10484249)
(12.17633 -0.07627804 -0.038279364)
(12.263877 -0.069943021 0.0040334459)
(12.308705 -0.055121861 0.037834265)
(12.307428 -0.042488527 0.063069644)
(12.271911 -0.033244669 0.083210855)
(12.209966 -0.026228055 0.10022554)
(12.128266 -0.020772752 0.11529934)
(12.029216 -0.015108771 0.12816576)
(11.918746 -0.0077886296 0.13843487)
(11.794277 -0.00050859696 0.14624442)
(11.659975 0.0065217945 0.15158864)