/*--------------------------------*- C++ -*----------------------------------*\
| =========                 |                                                 |
| \\      /  F ield         | OpenFOAM: The Open Source CFD Toolbox           |
|  \\    /   O peration     | Version:  4.1                                   |
|   \\  /    A nd           | Web:      www.OpenFOAM.org                      |
|    \\/     M anipulation  |                                                 |
\*---------------------------------------------------------------------------*/
FoamFile
{
    version     2.0;
    format      ascii;
    class       surfaceScalarField;
    location    "0.0004";
    object      phi;
}
// * * * * * * * * * * * * * * * * * * * * * * * * * * * * * * * * * * * * * //

dimensions      [0 3 -1 0 0 0 0];

internalField   nonuniform List<scalar> 
4288
(
-7.3848e-10
1.2639e-10
1.2645e-10
-1.4623e-10
-1.4794e-10
-9.8048e-10
2.0031e-10
2.0042e-10
-2.3654e-10
-2.3733e-10
-1.3672e-09
2.7657e-10
2.7683e-10
-3.251e-10
-3.2546e-10
-1.8352e-09
3.9449e-10
3.9508e-10
-4.6375e-10
-4.6374e-10
-2.3132e-09
6.2095e-10
6.2217e-10
-7.3445e-10
-7.3417e-10
-2.9839e-09
1.0096e-09
1.0117e-09
-1.2123e-09
-1.2117e-09
-4.4342e-09
1.534e-09
1.537e-09
-1.8878e-09
-1.8862e-09
-7.3777e-09
2.0275e-09
2.0315e-09
-2.5753e-09
-2.5728e-09
-1.204e-08
2.2312e-09
2.2358e-09
-2.9238e-09
-2.9209e-09
-1.7543e-08
2.0693e-09
2.0738e-09
-2.799e-09
-2.7962e-09
-2.2232e-08
1.5404e-09
1.5437e-09
-2.1333e-09
-2.1321e-09
5.8382e-10
5.8511e-10
-8.197e-10
-8.1847e-10
-7.6224e-10
1.0115e-10
1.2902e-10
-1.7514e-10
-1.014e-09
1.6081e-10
2.0149e-10
-2.8268e-10
-1.3977e-09
2.324e-10
2.8884e-10
-4.1736e-10
-1.8689e-09
3.3688e-10
4.2637e-10
-6.1575e-10
-2.3974e-09
5.1437e-10
6.6623e-10
-9.3968e-10
-3.183e-09
8.084e-10
1.0487e-09
-1.4759e-09
-4.7559e-09
1.2173e-09
1.5524e-09
-2.2647e-09
-7.7161e-09
1.6396e-09
2.0456e-09
-3.1775e-09
-1.2191e-08
1.8861e-09
2.3104e-09
-3.8551e-09
-1.7357e-08
1.8215e-09
2.2101e-09
-3.914e-09
-2.1726e-08
1.3774e-09
1.671e-09
-3.053e-09
5.3007e-10
6.4066e-10
-1.1956e-09
-7.7866e-10
5.4701e-11
1.3618e-10
-1.8734e-10
-1.0361e-09
8.65e-11
2.1164e-10
-2.986e-10
-1.4194e-09
1.2622e-10
3.0718e-10
-4.3547e-10
-1.8966e-09
1.84e-10
4.57e-10
-6.4069e-10
-2.4603e-09
2.7939e-10
7.105e-10
-9.8652e-10
-3.3163e-09
4.3408e-10
1.1048e-09
-1.5524e-09
-4.9579e-09
6.4805e-10
1.6182e-09
-2.3512e-09
-7.9179e-09
8.697e-10
2.1238e-09
-3.2212e-09
-1.2272e-08
1.0022e-09
2.4098e-09
-3.8063e-09
-1.723e-08
9.7074e-10
2.3196e-09
-3.7836e-09
-2.1406e-08
7.335e-10
1.7584e-09
-2.9147e-09
2.8196e-10
6.7679e-10
-1.1324e-09
-7.8657e-10
6.6894e-13
1.4013e-10
-1.9756e-10
-1.0466e-09
6.5148e-13
2.1716e-10
-3.1366e-10
-1.4298e-09
6.5995e-13
3.1609e-10
-4.572e-10
-1.9106e-09
6.7441e-13
4.7111e-10
-6.7191e-10
-2.4926e-09
6.3923e-13
7.3127e-10
-1.0334e-09
-3.383e-09
5.163e-13
1.1322e-09
-1.6222e-09
-5.057e-09
3.3664e-13
1.6501e-09
-2.4437e-09
-8.0156e-09
1.7275e-13
2.1582e-09
-3.3276e-09
-1.2311e-08
4.6985e-14
2.4474e-09
-3.9143e-09
-1.7169e-08
-3.7873e-15
2.3551e-09
-3.8717e-09
-2.1251e-08
9.7752e-15
1.7839e-09
-2.9704e-09
1.8237e-14
6.8697e-10
-1.1531e-09
-7.8656e-10
-5.3363e-11
1.4022e-10
-1.977e-10
-1.0465e-09
-8.5166e-11
2.1726e-10
-3.1384e-10
-1.4298e-09
-1.2489e-10
3.1618e-10
-4.5735e-10
-1.9106e-09
-1.8267e-10
4.7116e-10
-6.7197e-10
-2.4926e-09
-2.7818e-10
7.3128e-10
-1.0334e-09
-3.383e-09
-4.3315e-10
1.1323e-09
-1.6221e-09
-5.0571e-09
-6.4749e-10
1.6501e-09
-2.4437e-09
-8.0156e-09
-8.6944e-10
2.1582e-09
-3.3276e-09
-1.2311e-08
-1.0021e-09
2.4474e-09
-3.9144e-09
-1.7169e-08
-9.7074e-10
2.3551e-09
-3.8718e-09
-2.1251e-08
-7.3343e-10
1.7839e-09
-2.9704e-09
-2.8188e-10
6.8695e-10
-1.1532e-09
-7.7862e-10
-1.001e-10
1.364e-10
-1.8746e-10
-1.0361e-09
-1.5954e-10
2.1188e-10
-2.989e-10
-1.4194e-09
-2.3113e-10
3.074e-10
-4.3575e-10
-1.8966e-09
-3.3566e-10
4.5714e-10
-6.4081e-10
-2.4604e-09
-5.1336e-10
7.1057e-10
-9.8647e-10
-3.3164e-09
-8.0764e-10
1.1049e-09
-1.5524e-09
-4.958e-09
-1.2168e-09
1.6183e-09
-2.3514e-09
-7.918e-09
-1.6392e-09
2.124e-09
-3.2216e-09
-1.2272e-08
-1.8858e-09
2.4099e-09
-3.8067e-09
-1.7231e-08
-1.8215e-09
2.3196e-09
-3.7838e-09
-2.1406e-08
-1.3775e-09
1.7583e-09
-2.9144e-09
-5.3006e-10
6.767e-10
-1.1322e-09
-7.6215e-10
-1.2574e-10
1.2948e-10
-1.756e-10
-1.0139e-09
-1.9917e-10
2.0187e-10
-2.8309e-10
-1.3976e-09
-2.7534e-10
2.8922e-10
-4.1788e-10
-1.8689e-09
-3.9326e-10
4.2666e-10
-6.1615e-10
-2.3975e-09
-6.1987e-10
6.6646e-10
-9.4009e-10
-3.1832e-09
-1.0087e-09
1.049e-09
-1.4764e-09
-4.756e-09
-1.5332e-09
1.5527e-09
-2.2655e-09
-7.7162e-09
-2.0267e-09
2.0459e-09
-3.1784e-09
-1.2192e-08
-2.2305e-09
2.3106e-09
-3.8558e-09
-1.7357e-08
-2.069e-09
2.2102e-09
-3.9145e-09
-2.1726e-08
-1.5406e-09
1.671e-09
-3.053e-09
-5.8389e-10
6.406e-10
-1.1954e-09
-7.3827e-10
1.2739e-10
-1.4799e-10
-1.472e-10
-9.8038e-10
2.0101e-10
-2.3768e-10
-2.3574e-10
-1.3671e-09
2.774e-10
-3.2609e-10
-3.2396e-10
-1.8353e-09
3.9554e-10
-4.6449e-10
-4.6229e-10
-2.3133e-09
6.2249e-10
-7.3509e-10
-7.3285e-10
-2.9841e-09
1.0119e-09
-1.2126e-09
-1.2108e-09
-4.4344e-09
1.5371e-09
-1.8876e-09
-1.886e-09
-7.378e-09
2.0315e-09
-2.5749e-09
-2.5726e-09
-1.204e-08
2.2358e-09
-2.9234e-09
-2.9208e-09
-1.7544e-08
2.0739e-09
-2.7989e-09
-2.7962e-09
-2.2232e-08
1.5442e-09
-2.1343e-09
-2.132e-09
5.853e-10
-8.1976e-10
-8.1859e-10
-7.6229e-10
1.2876e-10
1.0116e-10
-1.752e-10
-1.014e-09
2.0116e-10
1.6092e-10
-2.8295e-10
-1.3977e-09
2.8832e-10
2.3265e-10
-4.1774e-10
-1.8689e-09
4.2542e-10
3.3732e-10
-6.1592e-10
-2.3974e-09
6.6453e-10
5.151e-10
-9.3927e-10
-3.183e-09
1.0461e-09
8.0959e-10
-1.475e-09
-4.7558e-09
1.5487e-09
1.2192e-09
-2.2636e-09
-7.716e-09
2.0409e-09
1.6422e-09
-3.1765e-09
-1.2191e-08
2.3052e-09
1.8893e-09
-3.8542e-09
-1.7357e-08
2.2052e-09
1.8246e-09
-3.9132e-09
-2.1726e-08
1.6673e-09
1.3797e-09
-3.0523e-09
6.3927e-10
5.309e-10
-1.1953e-09
-7.8432e-10
9.7153e-11
9.7452e-11
-1.0432e-09
1.5135e-10
1.5183e-10
-1.4237e-09
2.1912e-10
2.1985e-10
-1.9021e-09
3.2304e-10
3.2419e-10
-2.4862e-09
4.9881e-10
5.0061e-10
-3.386e-09
7.7505e-10
7.7779e-10
-5.0714e-09
1.1358e-09
1.1398e-09
-8.0333e-09
1.4864e-09
1.4916e-09
-1.2322e-08
1.674e-09
1.6799e-09
-1.717e-08
1.5941e-09
1.5998e-09
-2.1248e-08
1.1959e-09
1.2001e-09
4.566e-10
4.5819e-10
-8.0069e-10
5.2828e-11
1.0335e-10
-1.0649e-09
8.204e-11
1.6026e-10
-1.4464e-09
1.1947e-10
2.3436e-10
-1.9336e-09
1.7615e-10
3.4793e-10
-2.5549e-09
2.7003e-10
5.3496e-10
-3.5227e-09
4.1579e-10
8.217e-10
-5.2699e-09
6.0534e-10
1.1915e-09
-8.2245e-09
7.8945e-10
1.5524e-09
-1.2392e-08
8.8891e-10
1.7541e-09
-1.7041e-08
8.4597e-10
1.6789e-09
-2.0935e-08
6.3271e-10
1.2625e-09
2.4124e-10
4.8369e-10
-8.0866e-10
6.0394e-13
1.0718e-10
-1.0754e-09
5.7924e-13
1.6581e-10
-1.4576e-09
5.55e-13
2.4333e-10
-1.9499e-09
5.1439e-13
3.6202e-10
-2.5899e-09
4.3e-13
5.5543e-10
-3.5906e-09
3.0344e-13
8.4883e-10
-5.367e-09
1.5137e-13
1.2248e-09
-8.3171e-09
2.0003e-14
1.5913e-09
-1.2426e-08
-6.7964e-14
1.7989e-09
-1.6978e-08
-1.046e-13
1.7235e-09
-2.0783e-08
-7.5468e-14
1.296e-09
-1.8347e-14
4.9702e-10
-8.0864e-10
-5.1649e-11
1.0724e-10
-1.0754e-09
-8.0886e-11
1.6587e-10
-1.4576e-09
-1.1836e-10
2.4338e-10
-1.9499e-09
-1.7514e-10
3.6205e-10
-2.5899e-09
-2.692e-10
5.5544e-10
-3.5906e-09
-4.1522e-10
8.4884e-10
-5.367e-09
-6.0507e-10
1.2248e-09
-8.3171e-09
-7.8942e-10
1.5913e-09
-1.2426e-08
-8.8903e-10
1.7989e-09
-1.6978e-08
-8.4616e-10
1.7235e-09
-2.0783e-08
-6.3285e-10
1.296e-09
-2.4126e-10
4.9699e-10
-8.0064e-10
-9.6106e-11
1.0353e-10
-1.0649e-09
-1.5024e-10
1.6042e-10
-1.4463e-09
-2.1803e-10
2.3449e-10
-1.9336e-09
-3.2205e-10
3.48e-10
-2.555e-09
-4.9804e-10
5.35e-10
-3.5228e-09
-7.7455e-10
8.2173e-10
-5.27e-09
-1.1356e-09
1.1916e-09
-8.2246e-09
-1.4863e-09
1.5523e-09
-1.2392e-08
-1.674e-09
1.7539e-09
-1.7041e-08
-1.5942e-09
1.6787e-09
-2.0935e-08
-1.1961e-09
1.2623e-09
-4.566e-10
4.8359e-10
-7.8424e-10
-1.2791e-10
9.7799e-11
-1.0431e-09
-2.0009e-10
1.5208e-10
-1.4236e-09
-2.872e-10
2.2005e-10
-1.9021e-09
-4.2437e-10
3.2432e-10
-2.4863e-09
-6.6374e-10
5.0072e-10
-3.3861e-09
-1.0456e-09
7.779e-10
-5.0715e-09
-1.5485e-09
1.1398e-09
-8.0334e-09
-2.0408e-09
1.4915e-09
-1.2322e-08
-2.305e-09
1.6797e-09
-1.717e-08
-2.2051e-09
1.5995e-09
-2.1248e-08
-1.6673e-09
1.1999e-09
-6.3916e-10
4.5805e-10
-7.6214e-10
1.0182e-10
-1.7459e-10
-1.0139e-09
1.6126e-10
-2.8184e-10
-1.3977e-09
2.3289e-10
-4.1646e-10
-1.869e-09
3.3747e-10
-6.1467e-10
-2.3976e-09
5.1534e-10
-9.3853e-10
-3.1832e-09
8.0998e-10
-1.4749e-09
-4.756e-09
1.2196e-09
-2.264e-09
-7.7162e-09
1.6424e-09
-3.1768e-09
-1.2192e-08
1.8892e-09
-3.8541e-09
-1.7357e-08
1.8245e-09
-3.913e-09
-2.1727e-08
1.3795e-09
-3.0518e-09
5.3078e-10
-1.1948e-09
-7.7873e-10
1.3594e-10
5.4454e-11
-1.8724e-10
-1.0362e-09
2.1137e-10
8.6333e-11
-2.9873e-10
-1.4195e-09
3.068e-10
1.2608e-10
-4.3572e-10
-1.8966e-09
4.5634e-10
1.8384e-10
-6.4091e-10
-2.4603e-09
7.0934e-10
2.7917e-10
-9.8649e-10
-3.3163e-09
1.103e-09
4.3382e-10
-1.5522e-09
-4.9578e-09
1.6159e-09
6.4785e-10
-2.3511e-09
-7.9178e-09
2.1212e-09
8.6963e-10
-3.2216e-09
-1.2272e-08
2.4072e-09
1.0022e-09
-3.8071e-09
-1.723e-08
2.3173e-09
9.7079e-10
-3.7846e-09
-2.1406e-08
1.7568e-09
7.3347e-10
-2.9154e-09
6.7623e-10
2.82e-10
-1.1328e-09
-8.0072e-10
1.0293e-10
5.2865e-11
-1.065e-09
1.5965e-10
8.2132e-11
-1.4464e-09
2.3347e-10
1.1961e-10
-1.9337e-09
3.4658e-10
1.7642e-10
-2.555e-09
5.329e-10
2.7048e-10
-3.5227e-09
8.1867e-10
4.1649e-10
-5.2699e-09
1.1873e-09
6.0635e-10
-8.2244e-09
1.547e-09
7.9081e-10
-1.2392e-08
1.7481e-09
8.9048e-10
-1.7041e-08
1.6732e-09
8.4748e-10
-2.0935e-08
1.2583e-09
6.3381e-10
4.8213e-10
2.4167e-10
-8.1693e-10
5.6244e-11
5.6507e-11
-1.0864e-09
8.6978e-11
8.7356e-11
-1.4696e-09
1.2761e-10
1.2814e-10
-1.9673e-09
1.8915e-10
1.8995e-10
-2.6263e-09
2.8892e-10
2.9013e-10
-3.6598e-09
4.4048e-10
4.4224e-10
-5.4644e-09
6.3489e-10
6.3733e-10
-8.4082e-09
8.2375e-10
8.2688e-10
-1.2457e-08
9.2892e-10
9.3246e-10
-1.6914e-08
8.8681e-10
8.9017e-10
-2.0631e-08
6.6406e-10
6.6652e-10
2.5386e-10
2.548e-10
-8.2484e-10
5.6384e-13
5.9192e-11
-1.0968e-09
5.268e-13
9.1323e-11
-1.4812e-09
4.8039e-13
1.3438e-10
-1.9846e-09
4.0455e-13
1.9954e-10
-2.6624e-09
2.9355e-13
3.0404e-10
-3.7278e-09
1.6271e-13
4.6107e-10
-5.5598e-09
1.8368e-14
6.6124e-10
-8.4976e-09
-1.1183e-13
8.558e-10
-1.2488e-08
-1.9704e-13
9.6559e-10
-1.6852e-08
-2.2096e-13
9.2277e-10
-2.0483e-08
-1.6607e-13
6.9091e-10
-5.7685e-14
2.6436e-10
-8.2483e-10
-5.5143e-11
5.9227e-11
-1.0968e-09
-8.5941e-11
9.1356e-11
-1.4812e-09
-1.2666e-10
1.3441e-10
-1.9846e-09
-1.8835e-10
1.9955e-10
-2.6624e-09
-2.8835e-10
3.0403e-10
-3.7279e-09
-4.4018e-10
4.6105e-10
-5.5599e-09
-6.3488e-10
6.6121e-10
-8.4976e-09
-8.24e-10
8.5574e-10
-1.2489e-08
-9.2933e-10
9.655e-10
-1.6852e-08
-8.8726e-10
9.2267e-10
-2.0483e-08
-6.6441e-10
6.9082e-10
-2.5398e-10
2.6432e-10
-8.1688e-10
-1.019e-10
5.6601e-11
-1.0864e-09
-1.5865e-10
8.7435e-11
-1.4696e-09
-2.3254e-10
1.2817e-10
-1.9673e-09
-3.4579e-10
1.8992e-10
-2.6263e-09
-5.3234e-10
2.9006e-10
-3.6598e-09
-8.1837e-10
4.4211e-10
-5.4645e-09
-1.1873e-09
6.3712e-10
-8.4083e-09
-1.5472e-09
8.2654e-10
-1.2457e-08
-1.7484e-09
9.3199e-10
-1.6914e-08
-1.6736e-09
8.8968e-10
-2.0631e-08
-1.2586e-09
6.6613e-10
-4.8219e-10
2.5463e-10
-8.0064e-10
-1.3499e-10
5.3034e-11
-1.0649e-09
-2.1043e-10
8.2252e-11
-1.4464e-09
-3.0587e-10
1.1965e-10
-1.9337e-09
-4.5552e-10
1.7636e-10
-2.555e-09
-7.0871e-10
2.7034e-10
-3.5228e-09
-1.1026e-09
4.1628e-10
-5.27e-09
-1.6157e-09
6.06e-10
-8.2246e-09
-2.1212e-09
7.902e-10
-1.2392e-08
-2.4072e-09
8.8963e-10
-1.7041e-08
-2.3173e-09
8.4659e-10
-2.0935e-08
-1.7567e-09
6.331e-10
-6.7616e-10
2.4135e-10
-7.7863e-10
5.4767e-11
-1.8635e-10
-1.0361e-09
8.6581e-11
-2.9802e-10
-1.4195e-09
1.2619e-10
-4.3492e-10
-1.8967e-09
1.8386e-10
-6.4015e-10
-2.4604e-09
2.7919e-10
-9.8585e-10
-3.3165e-09
4.3388e-10
-1.5517e-09
-4.958e-09
6.4788e-10
-2.3509e-09
-7.918e-09
8.6938e-10
-3.2215e-09
-1.2273e-08
1.0016e-09
-3.8069e-09
-1.7231e-08
9.7007e-10
-3.7844e-09
-2.1406e-08
7.3283e-10
-2.915e-09
2.8163e-10
-1.1325e-09
-7.8663e-10
1.3998e-10
5.276e-13
-1.9765e-10
-1.0466e-09
2.1695e-10
4.9956e-13
-3.1369e-10
-1.4299e-09
3.1581e-10
4.5821e-13
-4.572e-10
-1.9107e-09
4.7066e-10
4.8155e-13
-6.7191e-10
-2.4926e-09
7.3056e-10
5.1232e-13
-1.0335e-09
-3.3829e-09
1.1313e-09
4.6777e-13
-1.6223e-09
-5.0569e-09
1.6489e-09
3.7316e-13
-2.444e-09
-8.0154e-09
2.157e-09
2.8081e-13
-3.3283e-09
-1.2311e-08
2.4463e-09
1.8834e-13
-3.9153e-09
-1.7169e-08
2.3544e-09
1.6715e-13
-3.8729e-09
-2.1251e-08
1.7835e-09
1.4102e-13
-2.9714e-09
6.8684e-10
7.7796e-14
-1.1535e-09
-8.087e-10
1.0682e-10
6.2157e-13
-1.0755e-09
1.653e-10
5.8618e-13
-1.4576e-09
2.4261e-10
5.398e-13
-1.9499e-09
3.6095e-10
5.3538e-13
-2.5899e-09
5.5383e-10
5.4595e-13
-3.5905e-09
8.4654e-10
5.1942e-13
-5.3669e-09
1.2217e-09
4.6172e-13
-8.317e-09
1.5875e-09
4.1902e-13
-1.2426e-08
1.7947e-09
3.6953e-13
-1.6978e-08
1.7196e-09
3.096e-13
-2.0783e-08
1.2933e-09
2.226e-13
4.9597e-10
1.0602e-13
-8.2486e-10
5.8867e-11
6.7679e-13
-1.0969e-09
9.087e-11
6.4973e-13
-1.4812e-09
1.3376e-10
6.0918e-13
-1.9846e-09
1.9864e-10
6.051e-13
-2.6624e-09
3.027e-10
6.2749e-13
-3.7278e-09
4.5916e-10
6.3354e-13
-5.5598e-09
6.5866e-10
6.2006e-13
-8.4975e-09
8.5255e-10
6.1072e-13
-1.2488e-08
9.6198e-10
5.7445e-13
-1.6852e-08
9.1937e-10
4.9024e-13
-2.0483e-08
6.8844e-10
3.4735e-13
2.6342e-10
1.4327e-13
-8.3274e-10
5.4177e-13
7.1855e-13
-1.1073e-09
4.9448e-13
7.0526e-13
-1.493e-09
4.2952e-13
6.7397e-13
-2.0024e-09
3.2791e-13
6.7908e-13
-2.6992e-09
1.9717e-13
7.2328e-13
-3.796e-09
5.8355e-14
7.6958e-13
-5.6545e-09
-9.3003e-14
8.0464e-13
-8.5855e-09
-2.4093e-13
8.2985e-13
-1.2519e-08
-3.3966e-13
8.0661e-13
-1.679e-08
-3.5284e-13
6.9864e-13
-2.0336e-08
-2.629e-13
4.923e-13
-9.8767e-14
1.9073e-13
-8.3273e-10
-5.7817e-11
7.3863e-13
-1.1073e-09
-8.9918e-11
7.3175e-13
-1.493e-09
-1.3295e-10
6.9922e-13
-2.0024e-09
-1.9804e-10
7.0294e-13
-2.6992e-09
-3.0239e-10
7.5299e-13
-3.7961e-09
-4.5916e-10
8.1222e-13
-5.6545e-09
-6.59e-10
8.5801e-13
-8.5855e-09
-8.5323e-10
8.8229e-13
-1.2519e-08
-9.6288e-10
8.5122e-13
-1.679e-08
-9.2029e-10
7.3228e-13
-2.0336e-08
-6.8912e-10
5.1133e-13
-2.6368e-10
1.9396e-13
-8.2482e-10
-1.0582e-10
6.7755e-13
-1.0968e-09
-1.6438e-10
6.3665e-13
-1.4812e-09
-2.4183e-10
5.4815e-13
-1.9846e-09
-3.6038e-10
4.7835e-13
-2.6625e-09
-5.5352e-10
4.2881e-13
-3.7279e-09
-8.4653e-10
3.405e-13
-5.5599e-09
-1.222e-09
1.7771e-13
-8.4977e-09
-1.5881e-09
-3.0431e-14
-1.2489e-08
-1.7955e-09
-2.1933e-13
-1.6852e-08
-1.7205e-09
-3.0989e-13
-2.0483e-08
-1.2939e-09
-2.619e-13
-4.962e-10
-1.0556e-13
-8.0863e-10
-1.39e-10
5.8182e-13
-1.0754e-09
-2.1603e-10
4.8908e-13
-1.4576e-09
-3.1497e-10
3.2598e-13
-1.9499e-09
-4.6996e-10
1.5365e-13
-2.59e-09
-7.3002e-10
-4.2566e-14
-3.5907e-09
-1.1309e-09
-3.4654e-13
-5.3671e-09
-1.6487e-09
-7.937e-13
-8.3172e-09
-2.1569e-09
-1.3126e-12
-1.2426e-08
-2.4463e-09
-1.7059e-12
-1.6978e-08
-2.3544e-09
-1.7395e-12
-2.0783e-08
-1.7835e-09
-1.3142e-12
-6.8685e-10
-5.1152e-13
-7.8654e-10
5.9176e-13
-1.9679e-10
-1.0466e-09
5.1532e-13
-3.1288e-10
-1.4298e-09
3.4424e-13
-4.5645e-10
-1.9107e-09
1.6953e-13
-6.7118e-10
-2.4927e-09
-2.7322e-14
-1.0327e-09
-3.3831e-09
-3.2952e-13
-1.6214e-09
-5.0571e-09
-7.2818e-13
-2.4431e-09
-8.0157e-09
-1.1587e-12
-3.3274e-09
-1.2311e-08
-1.4863e-12
-3.9147e-09
-1.7169e-08
-1.4918e-12
-3.8724e-09
-2.1251e-08
-1.1242e-12
-2.9711e-09
-4.6357e-13
-1.1535e-09
-7.8663e-10
1.4006e-10
-5.3408e-11
-1.9778e-10
-1.0466e-09
2.1703e-10
-8.5328e-11
-3.1382e-10
-1.4299e-09
3.159e-10
-1.2514e-10
-4.5736e-10
-1.9107e-09
4.7072e-10
-1.829e-10
-6.7198e-10
-2.4926e-09
7.3059e-10
-2.7826e-10
-1.0334e-09
-3.383e-09
1.1313e-09
-4.3306e-10
-1.6222e-09
-5.0569e-09
1.649e-09
-6.4729e-10
-2.4439e-09
-8.0154e-09
2.1571e-09
-8.6913e-10
-3.3283e-09
-1.2311e-08
2.4465e-09
-1.0018e-09
-3.9155e-09
-1.7169e-08
2.3546e-09
-9.7041e-10
-3.8731e-09
-2.1251e-08
1.7836e-09
-7.3321e-10
-2.9715e-09
6.8689e-10
-2.8178e-10
-1.1536e-09
-8.087e-10
1.0687e-10
-5.165e-11
-1.0755e-09
1.6536e-10
-8.098e-11
-1.4577e-09
2.4268e-10
-1.1855e-10
-1.9499e-09
3.6102e-10
-1.7538e-10
-2.5899e-09
5.539e-10
-2.6944e-10
-3.5906e-09
8.4664e-10
-4.1552e-10
-5.367e-09
1.2218e-09
-6.0551e-10
-8.317e-09
1.5877e-09
-7.9001e-10
-1.2426e-08
1.7949e-09
-8.8976e-10
-1.6978e-08
1.7198e-09
-8.4687e-10
-2.0783e-08
1.2934e-09
-6.3338e-10
4.9602e-10
-2.4144e-10
-8.2486e-10
5.8905e-11
-5.5184e-11
-1.0969e-09
9.0918e-11
-8.6083e-11
-1.4812e-09
1.3382e-10
-1.2694e-10
-1.9846e-09
1.987e-10
-1.8876e-10
-2.6624e-09
3.0278e-10
-2.8889e-10
-3.7278e-09
4.5928e-10
-4.4099e-10
-5.5598e-09
6.5883e-10
-6.3611e-10
-8.4975e-09
8.5276e-10
-8.2567e-10
-1.2488e-08
9.6221e-10
-9.3131e-10
-1.6852e-08
9.1959e-10
-8.8919e-10
-2.0483e-08
6.886e-10
-6.6582e-10
2.6348e-10
-2.5451e-10
-8.3275e-10
5.5462e-13
-5.7773e-11
-1.1073e-09
5.0957e-13
-8.9919e-11
-1.493e-09
4.4189e-13
-1.3303e-10
-2.0024e-09
3.3519e-13
-1.9816e-10
-2.6992e-09
2.0748e-13
-3.0254e-10
-3.796e-09
8.5382e-14
-4.5945e-10
-5.6545e-09
-4.8013e-14
-6.5951e-10
-8.5855e-09
-1.9023e-13
-8.5397e-10
-1.2519e-08
-2.8915e-13
-9.6378e-10
-1.679e-08
-3.0436e-13
-9.2118e-10
-2.0336e-08
-2.2597e-13
-6.8978e-10
-8.79e-14
-2.6392e-10
-8.3273e-10
-5.7884e-11
-5.7708e-11
-1.1073e-09
-9.0027e-11
-8.9807e-11
-1.493e-09
-1.3312e-10
-1.3286e-10
-2.0024e-09
-1.9829e-10
-1.9792e-10
-2.6992e-09
-3.0274e-10
-3.0219e-10
-3.7961e-09
-4.5965e-10
-4.5892e-10
-5.6545e-09
-6.597e-10
-6.5875e-10
-8.5856e-09
-8.5416e-10
-8.5298e-10
-1.2519e-08
-9.6396e-10
-9.6265e-10
-1.679e-08
-9.2133e-10
-9.2009e-10
-2.0336e-08
-6.8989e-10
-6.8897e-10
-2.6398e-10
-2.6362e-10
-8.2482e-10
-1.0592e-10
-5.5107e-11
-1.0968e-09
-1.6455e-10
-8.5926e-11
-1.4812e-09
-2.4209e-10
-1.267e-10
-1.9846e-09
-3.6076e-10
-1.8841e-10
-2.6625e-09
-5.5407e-10
-2.8837e-10
-3.7279e-09
-8.4732e-10
-4.4018e-10
-5.5599e-09
-1.2231e-09
-6.3494e-10
-8.4977e-09
-1.5895e-09
-8.2416e-10
-1.2489e-08
-1.7971e-09
-9.2959e-10
-1.6852e-08
-1.7219e-09
-8.8753e-10
-2.0483e-08
-1.2949e-09
-6.6461e-10
-4.966e-10
-2.5406e-10
-8.0862e-10
-1.3901e-10
-5.1731e-11
-1.0754e-09
-2.1605e-10
-8.1033e-11
-1.4576e-09
-3.1502e-10
-1.1861e-10
-1.9499e-09
-4.7006e-10
-1.7546e-10
-2.59e-09
-7.3019e-10
-2.6953e-10
-3.5907e-09
-1.1311e-09
-4.1557e-10
-5.3671e-09
-1.649e-09
-6.0553e-10
-8.3172e-09
-2.1571e-09
-7.901e-10
-1.2426e-08
-2.4464e-09
-8.8988e-10
-1.6978e-08
-2.3543e-09
-8.4701e-10
-2.0783e-08
-1.7834e-09
-6.3349e-10
-6.8677e-10
-2.4152e-10
-7.8653e-10
-5.3578e-11
-1.9669e-10
-1.0466e-09
-8.5505e-11
-3.1276e-10
-1.4298e-09
-1.254e-10
-4.5631e-10
-1.9107e-09
-1.8331e-10
-6.7104e-10
-2.4927e-09
-2.788e-10
-1.0326e-09
-3.3831e-09
-4.3367e-10
-1.6215e-09
-5.0572e-09
-6.4804e-10
-2.4432e-09
-8.0157e-09
-8.7018e-10
-3.3272e-09
-1.2311e-08
-1.0031e-09
-3.914e-09
-1.7169e-08
-9.717e-10
-3.8714e-09
-2.1251e-08
-7.3417e-10
-2.9702e-09
-2.8223e-10
-1.1531e-09
-7.7872e-10
1.3616e-10
-1.0018e-10
-1.8759e-10
-1.0362e-09
2.1158e-10
-1.5995e-10
-2.9904e-10
-1.4195e-09
3.0702e-10
-2.3171e-10
-4.3606e-10
-1.8967e-09
4.5651e-10
-3.3644e-10
-6.4109e-10
-2.4604e-09
7.095e-10
-5.1437e-10
-9.865e-10
-3.3164e-09
1.1033e-09
-8.0904e-10
-1.5522e-09
-4.9578e-09
1.6163e-09
-1.2188e-09
-2.3514e-09
-7.9178e-09
2.1216e-09
-1.6417e-09
-3.222e-09
-1.2272e-08
2.4076e-09
-1.8887e-09
-3.8076e-09
-1.723e-08
2.3177e-09
-1.8242e-09
-3.7851e-09
-2.1406e-08
1.7571e-09
-1.3795e-09
-2.9156e-09
6.7629e-10
-5.3071e-10
-1.1328e-09
-8.0072e-10
1.0309e-10
-9.6332e-11
-1.065e-09
1.5982e-10
-1.5075e-10
-1.4464e-09
2.3367e-10
-2.1887e-10
-1.9337e-09
3.4678e-10
-3.2325e-10
-2.555e-09
5.3315e-10
-4.997e-10
-3.5227e-09
8.1902e-10
-7.7695e-10
-5.2699e-09
1.1878e-09
-1.1391e-09
-8.2244e-09
1.5476e-09
-1.4909e-09
-1.2392e-08
1.7487e-09
-1.6793e-09
-1.7041e-08
1.6738e-09
-1.5993e-09
-2.0935e-08
1.2588e-09
-1.1998e-09
4.8225e-10
-4.5797e-10
-8.1693e-10
5.6367e-11
-1.0213e-10
-1.0864e-09
8.7139e-11
-1.5908e-10
-1.4696e-09
1.278e-10
-2.3326e-10
-1.9673e-09
1.8937e-10
-3.4684e-10
-2.6263e-09
2.8921e-10
-5.3382e-10
-3.6598e-09
4.4092e-10
-8.2057e-10
-5.4645e-09
6.3553e-10
-1.1905e-09
-8.4082e-09
8.2454e-10
-1.5513e-09
-1.2457e-08
9.2979e-10
-1.7531e-09
-1.6914e-08
8.8762e-10
-1.6781e-09
-2.0631e-08
6.6466e-10
-1.2619e-09
2.5406e-10
-4.8343e-10
-8.2484e-10
6.6124e-13
-1.0586e-10
-1.0969e-09
6.6329e-13
-1.645e-10
-1.4812e-09
6.5194e-13
-2.4206e-10
-1.9846e-09
6.2034e-13
-3.6072e-10
-2.6625e-09
6.071e-13
-5.54e-10
-3.7279e-09
6.6152e-13
-8.4729e-10
-5.5599e-09
7.5507e-13
-1.2231e-09
-8.4976e-09
8.3638e-13
-1.5896e-09
-1.2489e-08
8.7778e-13
-1.7972e-09
-1.6852e-08
8.1605e-13
-1.7221e-09
-2.0483e-08
5.9856e-13
-1.295e-09
2.2386e-13
-4.9663e-10
-8.2483e-10
-5.5239e-11
-1.0577e-10
-1.0969e-09
-8.6103e-11
-1.6434e-10
-1.4812e-09
-1.2692e-10
-2.4183e-10
-1.9846e-09
-1.8873e-10
-3.6038e-10
-2.6625e-09
-2.8887e-10
-5.5349e-10
-3.7279e-09
-4.4086e-10
-8.4652e-10
-5.5599e-09
-6.3584e-10
-1.222e-09
-8.4976e-09
-8.2531e-10
-1.5882e-09
-1.2489e-08
-9.309e-10
-1.7956e-09
-1.6852e-08
-8.8879e-10
-1.7206e-09
-2.0483e-08
-6.6554e-10
-1.2939e-09
-2.5442e-10
-4.962e-10
-8.1688e-10
-1.022e-10
-1.0193e-10
-1.0864e-09
-1.5913e-10
-1.5869e-10
-1.4696e-09
-2.3327e-10
-2.3266e-10
-1.9673e-09
-3.4684e-10
-3.4593e-10
-2.6263e-09
-5.3381e-10
-5.3244e-10
-3.6599e-09
-8.2044e-10
-8.1846e-10
-5.4646e-09
-1.1902e-09
-1.1874e-09
-8.4084e-09
-1.551e-09
-1.5474e-09
-1.2457e-08
-1.7528e-09
-1.7487e-09
-1.6914e-08
-1.6777e-09
-1.6739e-09
-2.0631e-08
-1.2617e-09
-1.2588e-09
-4.8338e-10
-4.8227e-10
-8.0063e-10
-1.3513e-10
-9.6265e-11
-1.0649e-09
-2.1067e-10
-1.5046e-10
-1.4464e-09
-3.063e-10
-2.1833e-10
-1.9337e-09
-4.5616e-10
-3.2236e-10
-2.5551e-09
-7.096e-10
-4.983e-10
-3.5228e-09
-1.1038e-09
-7.7475e-10
-5.2701e-09
-1.6172e-09
-1.1358e-09
-8.2247e-09
-2.1229e-09
-1.4868e-09
-1.2392e-08
-2.409e-09
-1.6746e-09
-1.7041e-08
-2.3189e-09
-1.5948e-09
-2.0935e-08
-1.7579e-09
-1.1964e-09
-6.7661e-10
-4.5673e-10
-7.786e-10
-1.0048e-10
-1.863e-10
-1.0361e-09
-1.6005e-10
-2.9783e-10
-1.4195e-09
-2.3167e-10
-4.3493e-10
-1.8966e-09
-3.3618e-10
-6.4028e-10
-2.4604e-09
-5.1375e-10
-9.8603e-10
-3.3165e-09
-8.0787e-10
-1.5518e-09
-4.9581e-09
-1.2171e-09
-2.3507e-09
-7.9181e-09
-1.6398e-09
-3.2208e-09
-1.2273e-08
-1.8865e-09
-3.8061e-09
-1.7231e-08
-1.822e-09
-3.7835e-09
-2.1406e-08
-1.3778e-09
-2.9144e-09
-5.3011e-10
-1.1324e-09
-7.6227e-10
1.2908e-10
-1.2567e-10
-1.7562e-10
-1.014e-09
2.0147e-10
-1.9945e-10
-2.8344e-10
-1.3978e-09
2.8862e-10
-2.7594e-10
-4.1814e-10
-1.869e-09
4.2569e-10
-3.9434e-10
-6.1615e-10
-2.3976e-09
6.6489e-10
-6.2154e-10
-9.3958e-10
-3.1831e-09
1.0466e-09
-1.0111e-09
-1.4755e-09
-4.7559e-09
1.5493e-09
-1.5365e-09
-2.2644e-09
-7.716e-09
2.0415e-09
-2.0308e-09
-3.1771e-09
-1.2191e-08
2.3057e-09
-2.2353e-09
-3.8546e-09
-1.7357e-08
2.2057e-09
-2.0734e-09
-3.9135e-09
-2.1726e-08
1.6679e-09
-1.5438e-09
-3.0525e-09
6.3936e-10
-5.8505e-10
-1.1951e-09
-7.8431e-10
9.74e-11
-1.2809e-10
-1.0432e-09
1.5162e-10
-2.0055e-10
-1.4237e-09
2.1943e-10
-2.8803e-10
-1.9021e-09
3.2338e-10
-4.256e-10
-2.4863e-09
4.9925e-10
-6.6544e-10
-3.3861e-09
7.7566e-10
-1.048e-09
-5.0715e-09
1.1366e-09
-1.5519e-09
-8.0333e-09
1.4873e-09
-2.0452e-09
-1.2322e-08
1.675e-09
-2.3101e-09
-1.717e-08
1.595e-09
-2.2099e-09
-2.1248e-08
1.1966e-09
-1.6708e-09
4.5676e-10
-6.4037e-10
-8.0069e-10
5.3035e-11
-1.3515e-10
-1.0649e-09
8.232e-11
-2.1066e-10
-1.4464e-09
1.1981e-10
-3.0629e-10
-1.9337e-09
1.7656e-10
-4.561e-10
-2.555e-09
2.7055e-10
-7.0951e-10
-3.5228e-09
4.1657e-10
-1.1038e-09
-5.2699e-09
6.0646e-10
-1.6174e-09
-8.2245e-09
7.9084e-10
-2.1232e-09
-1.2392e-08
8.9042e-10
-2.4093e-09
-1.7041e-08
8.4737e-10
-2.3192e-09
-2.0935e-08
6.3371e-10
-1.758e-09
2.4155e-10
-6.7658e-10
-8.0866e-10
8.2626e-13
-1.3903e-10
-1.0755e-09
8.9347e-13
-2.1606e-10
-1.4576e-09
9.5717e-13
-3.1505e-10
-1.9499e-09
1.0303e-12
-4.7005e-10
-2.59e-09
1.1736e-12
-7.3015e-10
-3.5906e-09
1.4627e-12
-1.1311e-09
-5.3671e-09
1.8569e-12
-1.649e-09
-8.3171e-09
2.2369e-12
-2.1572e-09
-1.2426e-08
2.4642e-12
-2.4465e-09
-1.6978e-08
2.3313e-12
-2.3546e-09
-2.0783e-08
1.7073e-12
-1.7836e-09
6.4631e-13
-6.8686e-10
-8.0865e-10
-5.1619e-11
-1.3901e-10
-1.0755e-09
-8.0866e-11
-2.1603e-10
-1.4576e-09
-1.1836e-10
-3.1503e-10
-1.9499e-09
-1.7514e-10
-4.7003e-10
-2.59e-09
-2.6912e-10
-7.3009e-10
-3.5907e-09
-4.1498e-10
-1.131e-09
-5.3671e-09
-6.0468e-10
-1.6489e-09
-8.3171e-09
-7.8901e-10
-2.1571e-09
-1.2426e-08
-8.8866e-10
-2.4465e-09
-1.6978e-08
-8.4586e-10
-2.3546e-09
-2.0783e-08
-6.3265e-10
-1.7836e-09
-2.412e-10
-6.8684e-10
-8.0065e-10
-9.6425e-11
-1.3507e-10
-1.0649e-09
-1.5079e-10
-2.1049e-10
-1.4464e-09
-2.1882e-10
-3.0606e-10
-1.9337e-09
-3.2315e-10
-4.5574e-10
-2.5551e-09
-4.9951e-10
-7.0891e-10
-3.5228e-09
-7.7655e-10
-1.1028e-09
-5.27e-09
-1.1385e-09
-1.6159e-09
-8.2246e-09
-1.4903e-09
-2.1214e-09
-1.2392e-08
-1.6787e-09
-2.4075e-09
-1.7041e-08
-1.5988e-09
-2.3176e-09
-2.0935e-08
-1.1994e-09
-1.757e-09
-4.5789e-10
-6.7625e-10
-7.8423e-10
-1.282e-10
-1.2808e-10
-1.0431e-09
-2.0071e-10
-2.0033e-10
-1.4237e-09
-2.8811e-10
-2.8756e-10
-1.9021e-09
-4.2563e-10
-4.2474e-10
-2.4863e-09
-6.6539e-10
-6.6404e-10
-3.3862e-09
-1.0478e-09
-1.0458e-09
-5.0716e-09
-1.5515e-09
-1.5486e-09
-8.0335e-09
-2.0448e-09
-2.041e-09
-1.2322e-08
-2.3097e-09
-2.3054e-09
-1.717e-08
-2.2095e-09
-2.2055e-09
-2.1249e-08
-1.6706e-09
-1.6677e-09
-6.4044e-10
-6.393e-10
-7.6215e-10
-1.2606e-10
-1.7458e-10
-1.0139e-09
-1.9965e-10
-2.8223e-10
-1.3977e-09
-2.7582e-10
-4.1709e-10
-1.8689e-09
-3.9374e-10
-6.1548e-10
-2.3975e-09
-6.2045e-10
-9.3913e-10
-3.1832e-09
-1.0094e-09
-1.475e-09
-4.7561e-09
-1.5338e-09
-2.264e-09
-7.7164e-09
-2.0273e-09
-3.1774e-09
-1.2192e-08
-2.231e-09
-3.8552e-09
-1.7358e-08
-2.0694e-09
-3.914e-09
-2.1727e-08
-1.5408e-09
-3.0527e-09
-5.8392e-10
-1.1953e-09
-7.3841e-10
1.2683e-10
-1.4666e-10
-1.4766e-10
-9.8049e-10
2.0061e-10
-2.3585e-10
-2.3755e-10
-1.3673e-09
2.7683e-10
-3.2428e-10
-3.2583e-10
-1.8353e-09
3.9481e-10
-4.6309e-10
-4.6409e-10
-2.3133e-09
6.2147e-10
-7.3416e-10
-7.3442e-10
-2.9841e-09
1.0103e-09
-1.2122e-09
-1.2119e-09
-4.4342e-09
1.5345e-09
-1.8874e-09
-1.8866e-09
-7.3778e-09
2.0277e-09
-2.5745e-09
-2.573e-09
-1.204e-08
2.2315e-09
-2.9233e-09
-2.9212e-09
-1.7543e-08
2.0697e-09
-2.7985e-09
-2.7966e-09
-2.2232e-08
1.5412e-09
-2.1338e-09
-2.1325e-09
5.8412e-10
-8.1939e-10
-8.188e-10
-7.6222e-10
1.0151e-10
-1.7457e-10
-1.014e-09
1.6112e-10
-2.8202e-10
-1.3977e-09
2.3277e-10
-4.1694e-10
-1.869e-09
3.3733e-10
-6.1531e-10
-2.3976e-09
5.1495e-10
-9.3905e-10
-3.1832e-09
8.0913e-10
-1.4754e-09
-4.7559e-09
1.2183e-09
-2.2648e-09
-7.7161e-09
1.6406e-09
-3.1779e-09
-1.2191e-08
1.8872e-09
-3.8555e-09
-1.7357e-08
1.8224e-09
-3.9142e-09
-2.1726e-08
1.3781e-09
-3.0526e-09
5.3012e-10
-1.1949e-09
-7.7866e-10
5.4961e-11
-1.8659e-10
-1.0362e-09
8.6875e-11
-2.9802e-10
-1.4195e-09
1.2669e-10
-4.35e-10
-1.8966e-09
1.8449e-10
-6.4009e-10
-2.4604e-09
2.7993e-10
-9.8564e-10
-3.3164e-09
4.3491e-10
-1.5516e-09
-4.958e-09
6.4934e-10
-2.3508e-09
-7.9179e-09
8.7127e-10
-3.2211e-09
-1.2272e-08
1.0038e-09
-3.8062e-09
-1.723e-08
9.7217e-10
-3.7837e-09
-2.1406e-08
7.3437e-10
-2.9144e-09
2.8213e-10
-1.1322e-09
-7.8656e-10
9.4513e-13
-1.9686e-10
-1.0466e-09
1.0284e-12
-3.1291e-10
-1.4298e-09
1.0689e-12
-4.5642e-10
-1.9107e-09
1.1208e-12
-6.7109e-10
-2.4927e-09
1.2472e-12
-1.0326e-09
-3.3831e-09
1.5091e-12
-1.6213e-09
-5.0571e-09
1.87e-12
-2.4429e-09
-8.0156e-09
2.2052e-12
-3.3271e-09
-1.2311e-08
2.3724e-12
-3.9141e-09
-1.7169e-08
2.2208e-12
-3.8718e-09
-2.1251e-08
1.6054e-12
-2.9706e-09
5.8003e-13
-1.1534e-09
-7.8656e-10
-5.3259e-11
-1.9683e-10
-1.0466e-09
-8.5049e-11
-3.1291e-10
-1.4299e-09
-1.2481e-10
-4.5653e-10
-1.9107e-09
-1.8257e-10
-6.713e-10
-2.4927e-09
-2.7785e-10
-1.0329e-09
-3.3831e-09
-4.324e-10
-1.6219e-09
-5.0571e-09
-6.4631e-10
-2.4437e-09
-8.0156e-09
-8.68e-10
-3.3279e-09
-1.2311e-08
-1.0006e-09
-3.9149e-09
-1.7169e-08
-9.6943e-10
-3.8724e-09
-2.1251e-08
-7.325e-10
-2.971e-09
-2.8158e-10
-1.1534e-09
-7.7862e-10
-1.0032e-10
-1.8656e-10
-1.0362e-09
-1.5993e-10
-2.9798e-10
-1.4195e-09
-2.316e-10
-4.3518e-10
-1.8967e-09
-3.3623e-10
-6.405e-10
-2.4605e-09
-5.1399e-10
-9.8622e-10
-3.3165e-09
-8.0839e-10
-1.5521e-09
-4.958e-09
-1.2179e-09
-2.3512e-09
-7.918e-09
-1.641e-09
-3.2217e-09
-1.2273e-08
-1.8881e-09
-3.8072e-09
-1.7231e-08
-1.8237e-09
-3.7848e-09
-2.1406e-08
-1.3791e-09
-2.9153e-09
-5.3064e-10
-1.1327e-09
-7.6215e-10
-1.2599e-10
-1.7477e-10
-1.0139e-09
-1.9981e-10
-2.8214e-10
-1.3977e-09
-2.7611e-10
-4.1705e-10
-1.869e-09
-3.9433e-10
-6.1528e-10
-2.3976e-09
-6.2144e-10
-9.3878e-10
-3.1832e-09
-1.0109e-09
-1.4746e-09
-4.7561e-09
-1.5362e-09
-2.2634e-09
-7.7163e-09
-2.0306e-09
-3.1765e-09
-1.2192e-08
-2.2349e-09
-3.8544e-09
-1.7358e-08
-2.0731e-09
-3.9135e-09
-2.1727e-08
-1.5436e-09
-3.0523e-09
-5.8502e-10
-1.1951e-09
-7.3829e-10
-1.4698e-10
-1.4716e-10
-9.8038e-10
-2.3649e-10
-2.365e-10
-1.3672e-09
-3.247e-10
-3.2478e-10
-1.8353e-09
-4.6321e-10
-4.6313e-10
-2.3133e-09
-7.3407e-10
-7.3369e-10
-2.9842e-09
-1.2119e-09
-1.2114e-09
-4.4345e-09
-1.8871e-09
-1.8861e-09
-7.3781e-09
-2.5745e-09
-2.5727e-09
-1.204e-08
-2.923e-09
-2.9209e-09
-1.7544e-08
-2.7983e-09
-2.7964e-09
-2.2232e-08
-2.1336e-09
-2.1323e-09
-8.191e-10
-8.1896e-10
8.2506e-08
5.4325e-10
-6.8371e-10
3.3038e-13
6.2568e-08
1.293e-09
-1.7272e-09
1.2424e-12
3.95e-08
1.5237e-09
-2.0435e-09
1.6943e-12
2.0989e-08
1.3294e-09
-2.3489e-09
1.7077e-12
1.0934e-08
9.2026e-10
-2.6184e-09
1.2544e-12
7.56e-09
4.9684e-10
-2.169e-09
6.3739e-13
6.8078e-09
2.3377e-10
-1.3968e-09
7.3261e-14
5.8141e-09
1.3433e-10
-6.2977e-10
-3.1418e-13
4.2117e-09
1.1067e-10
-2.0869e-10
-4.3267e-13
2.8273e-09
8.9031e-11
-1.5435e-10
-5.6909e-13
2.1469e-09
5.8855e-11
-2.5399e-10
-5.3244e-13
2.6877e-11
-1.7426e-10
-3.9693e-13
9.4543e-08
4.7239e-10
-1.3362e-09
7.2855e-08
1.1858e-09
-3.3502e-09
4.7546e-08
1.4691e-09
-4.0148e-09
2.6732e-08
1.3984e-09
-3.9751e-09
1.4731e-08
1.0674e-09
-3.5952e-09
1.002e-08
6.2025e-10
-2.7017e-09
8.4864e-09
2.9932e-10
-1.7396e-09
7.0801e-09
1.6714e-10
-9.6045e-10
5.2115e-09
1.2678e-10
-4.9029e-10
3.593e-09
1.0068e-10
-3.1435e-10
2.7037e-09
6.4744e-11
-2.9402e-10
3.0021e-11
-1.9249e-10
1.0323e-07