/*--------------------------------*- C++ -*----------------------------------*\
| =========                 |                                                 |
| \\      /  F ield         | OpenFOAM: The Open Source CFD Toolbox           |
|  \\    /   O peration     | Version:  4.1                                   |
|   \\  /    A nd           | Web:      www.OpenFOAM.org                      |
|    \\/     M anipulation  |                                                 |
\*---------------------------------------------------------------------------*/
FoamFile
{
    version     2.0;
    format      ascii;
    class       volScalarField;
    location    "0.000140";
    object      epsilon;
}
// * * * * * * * * * * * * * * * * * * * * * * * * * * * * * * * * * * * * * //

dimensions      [0 2 -3 0 0 0 0];

internalField   nonuniform List<scalar> 
3072
(
25.685513
25.818398
25.982053
25.981898
26.475086
26.936876
27.588334
28.572529
29.44715
30.865303
32.220613
33.672743
34.998781
36.043218
37.117621
37.683533
38.194984
38.231581
37.898189
37.218241
35.753296
33.622539
29.334509
19.489128
22.657287
22.820668
22.986881
23.034273
23.300998
23.512675
23.791052
24.224232
24.573849
25.179798
25.787215
26.457387
27.064679
27.524828
28.00948
28.197465
28.366969
28.228433
27.851869
27.238983
26.102174
24.514551
21.696609
16.591237
21.832103
21.980168
22.118578
22.149722
22.3451
22.481697
22.657977
22.939801
23.13404
23.507491
23.891019
24.318617
24.685505
24.937279
25.195914
25.227662
25.251173
25.03705
24.654358
24.095477
23.146183
21.847598
19.62477
16.01356
21.628771
21.764169
21.886729
21.906197
22.075131
22.182843
22.322981
22.54826
22.686564
22.977564
23.294555
23.65819
23.958988
24.157674
24.356155
24.350764
24.345757
24.126577
23.765701
23.247064
22.378941
21.179524
19.110285
15.859542
21.624953
21.753817
21.874295
21.894449
22.068259
22.179262
22.324899
22.550464
22.684971
22.959982
23.288363
23.679065
24.0062
24.233099
24.459052
24.482457
24.513429
24.330406
24.006042
23.516599
22.66241
21.444104
19.289569
15.891093
21.822176
21.956385
22.09231
22.127682
22.33782
22.483897
22.675165
22.957207
23.138665
23.464388
23.875814
24.38214
24.825424
25.16018
25.502364
25.622428
25.751623
25.644635
25.372284
24.902798
23.997525
22.637464
20.133827
16.109144
22.638691
22.790551
22.962903
23.02507
23.318855
23.544392
23.844931
24.279973
24.602513
25.121967
25.755203
26.565765
27.310517
27.918464
28.555451
28.907651
29.27065
29.329838
29.158767
28.713702
27.662194
25.95375
22.552204
16.766623
25.613579
25.773408
25.98443
26.02779
26.595754
27.083885
27.770965
28.761585
29.587212
30.805598
32.180079
33.855281
35.399976
36.672925
37.985459
38.810444
39.626196
39.968626
39.948686
39.531684
38.218678
35.930138
30.700883
19.790943
22.657266
22.821261
22.987108
23.029854
23.309132
23.515687
23.809719
24.231145
24.584499
25.242074
25.848698
26.529519
27.132998
27.595702
28.073415
28.25244
28.40495
28.254088
27.873319
27.250192
26.106785
24.518417
21.695325
16.591354
19.412408
19.589015
19.749384
19.837183
19.950577
20.002497
20.041124
20.082231
20.063885
20.092934
20.097162
20.116194
20.098038
20.029386
19.966638
19.793651
19.619367
19.322091
18.936772
18.459698
17.785277
16.985001
15.943757
14.779514
18.729486
18.880823
19.006302
19.068466
19.122114
19.120666
19.084371
19.030061
18.909303
18.785355
18.640054
18.490758
18.310726
18.094003
17.876046
17.59664
17.3217
16.985315
16.616471
16.221788
15.758004
15.286248
14.826092
14.554706
18.631369
18.765516
18.871834
18.917943
18.94976
18.928611
18.868029
18.784514
18.633894
18.472799
18.293791
18.111879
17.901522
17.659226
17.415202
17.121467
16.836727
16.506606
16.159186
15.800911
15.400894
15.010322
14.6633
14.533257
18.636322
18.760559
18.860099
18.902676
18.933357
18.910889
18.850051
18.765678
18.615082
18.453492
18.280179
18.111543
17.914333
17.686333
17.456425
17.176826
16.908912
16.595515
16.263809
15.915201
15.513644
15.104546
14.72124
14.545842
18.74281
18.869297
18.978387
19.033158
19.084772
19.081023
19.045824
18.990035
18.867626
18.737505
18.607955
18.498164
18.356419
18.181175
18.005498
17.769851
17.547198
17.264259
16.947124
16.585626
16.12084
15.591871
15.004722
14.591674
19.429652
19.572789
19.714112
19.79807
19.912121
19.962996
20.006727
20.049362
20.021894
20.016945
20.046166
20.139659
20.193255
20.20128
20.220922
20.137996
20.075298
19.893848
19.624738
19.230385
18.57319
17.668502
16.325121
14.854784
22.645255
22.795042
22.965306
23.02853
23.337584
23.555083
23.867044
24.296934
24.620115
25.140107
25.784477
26.597646
27.329595
27.926328
28.553817
28.900438
29.264836
29.330875
29.170604
28.726208
27.670583
25.963075
22.556941
16.767064
21.829918
21.978595
22.116947
22.146674
22.354058
22.48637
22.682581
22.95316
23.164262
23.60384
23.99327
24.436656
24.800973
25.054932
25.302109
25.320152
25.324111
25.095392
24.704647
24.126974
23.163055
21.858854
19.627261
16.01569
18.730246
18.881436
19.006504
19.068989
19.125136
19.122759
19.09297
19.035689
18.922696
18.822507
18.684159
18.542243
18.36274
18.148019
17.926756
17.642357
17.359621
17.015857
16.641101
16.23651
15.76469
15.288944
14.827348
14.556387
18.15663
18.281408
18.368261
18.399616
18.391243
18.32948
18.220923
18.067581
17.85712
17.613878
17.336475
17.039005
16.715111
16.370312
16.019661
15.65059
15.288945
14.924515
14.578266
14.267784
14.009787
13.865008
13.956551
14.381716
18.118729
18.227809
18.295168
18.308592
18.27573
18.190308
18.05377
17.870203
17.629906
17.35058
17.03985
16.70832
16.354886
15.985689
15.613547
15.233807
14.865771
14.50971
14.183752
13.908371
13.709766
13.644382
13.843448
14.368049
18.122658
18.224305
18.285919
18.295896
18.260924
18.173128
18.034284
17.849027
17.607868
17.328565
17.020262
16.694033
16.346136
15.983683
15.618793
15.246481
14.887357
14.540574
14.222772
13.951079
13.749184
13.673602
13.86228
14.374882
18.167302
18.273247
18.346087
18.370547
18.357262
18.290032
18.177153
18.020907
17.808197
17.561132
17.290995
17.010588
16.703136
16.377531
16.047705
15.700668
15.366858
15.031994
14.713017
14.416035
14.150353
13.973733
14.021076
14.399644
18.745908
18.870472
18.977839
19.036115
19.087418
19.079463
19.047639
18.989298
18.86988
18.741972
18.617596
18.511196
18.363182
18.183718
18.003651
17.766077
17.546954
17.271303
16.964326
16.602599
16.132036
15.598927
15.006936
14.592209
21.838125
21.967867
22.099638
22.139516
22.360955
22.497216
22.7027
22.97872
23.162106
23.491602
23.913829
24.424593
24.850039
25.169194
25.498895
25.612567
25.74657
25.65392
25.402738
24.934617
24.020082
22.656515
20.142368
16.11183
21.623202
21.759188
21.882194
21.902564
22.082612
22.186092
22.346951
22.563957
22.725715
23.083561
23.415846
23.79515
24.092918
24.293535
24.481444
24.464371
24.443006
24.2111
23.840091
23.296174
22.405688
21.196688
19.11919
15.864471
18.631047
18.765152
18.8711
18.918198
18.953301
18.930603
18.878304
18.792779
18.653756
18.523249
18.360444
18.19021
17.981955
17.742988
17.495354
17.19573
16.901491
16.560956
16.202881
15.827321
15.412214
15.014636
14.66745
14.537251
18.120717
18.230034
18.297369
18.311072
18.279038
18.19265
18.05789
17.873751
17.637046
17.367561
17.064662
16.738895
16.388082
16.020683
15.647382
15.265014
14.892787
14.531313
14.199198
13.915723
13.710509
13.642906
13.845046
14.370791
18.114121
18.210394
18.259312
18.254705
18.196853
18.08444
17.919224
17.70242
17.434262
17.125798
16.78507
16.419603
16.034064
15.637463
15.238892
14.84246
14.460467
14.104289
13.789866
13.540402
13.395023
13.411296
13.725521
14.351309
18.11565
18.208328
18.254081
18.247107
18.18723
18.072756
17.905368
17.686888
17.416696
17.105919
16.764032
16.398639
16.013824
15.619685
15.224943
14.833437
14.458186
14.110002
13.803195
13.558018
13.411819
13.423269
13.732311
14.353509
18.125558
18.225908
18.285818
18.295782
18.259366
18.167879
18.028049
17.840481
17.599938
17.321976
17.016355
16.692958
16.344803
15.983621
15.61943
15.248864
14.894655
14.554766
14.243997
13.972067
13.764743
13.683248
13.866937
14.376458
18.640916
18.762026
18.858331
18.904887
18.934788
18.905689
18.848845
18.760969
18.614903
18.456696
18.289804
18.128558
17.925073
17.694121
17.459887
17.178868
16.917969
16.617517
16.30231
15.952914
15.540359
15.121091
14.72777
14.548312
21.643386
21.766671
21.881919
21.907978
22.09164
22.193078
22.355466
22.57645
22.71411
22.993641
23.329312
23.726971
24.035839
24.247829
24.460726
24.47718
24.514766
24.349973
24.052792
23.564594
22.696682
21.467633
19.296075
15.895538
21.61791
21.747022
21.868275
21.889706
22.073363
22.179296
22.344671
22.561641
22.719985
23.056666
23.415753
23.824141
24.147885
24.376949
24.595515
24.61155
24.62855
24.432778
24.094295
23.573146
22.689554
21.457481
19.295157
15.896516
18.634889
18.758924
18.858428
18.902297
18.935607
18.910883
18.858329
18.772179
18.634219
18.503395
18.357114
18.204105
18.01074
17.786577
17.553065
17.267611
16.989579
16.663033
16.315302
15.942936
15.521021
15.103993
14.723975
14.550303
18.123724
18.225612
18.287521
18.297927
18.263268
18.173632
18.037017
17.851644
17.61627
17.351887
17.05976
16.744962
16.403162
16.043673
15.676434
15.299266
14.932557
14.574595
14.243349
13.956518
13.743641
13.666186
13.863175
14.378738
18.115871
18.208508
18.254351
18.247473
18.186956
18.071024
17.90381
17.68567
17.418558
17.114797
16.781184
16.422825
16.042647
15.650284
15.254384
14.859812
14.479451
14.123554
13.808071
13.554765
13.403987
13.416351
13.732314
14.356475
18.114084
18.208422
18.254894
18.248084
18.186767
18.069577
17.900482
17.680432
17.410186
17.101397
16.762656
16.399849
16.016257
15.622761
15.227746
14.835795
14.460405
14.111931
13.804578
13.557056
13.408618
13.42061
13.731297
14.35357
18.120027
18.226174
18.290031
18.302515
18.266566
18.173676
18.032229
17.84301
17.601464
17.323399
17.017211
16.691604
16.340162
15.975478
15.606842
15.231917
14.874434
14.532202
14.219574
13.945552
13.738688
13.663377
13.853927
14.371932
18.633702
18.763344
18.865193
18.915
18.946056
18.915964
18.857214
18.768167
18.620912
18.462871
18.290731
18.121025
17.907694
17.666273
17.419274
17.123987
16.84925
16.53648
16.210415
15.85245
15.439024
15.034705
14.674418
14.537885
21.643125
21.772447
21.88976
21.915095
22.096469
22.194434
22.352509
22.573497
22.714405
23.006819
23.329726
23.707524
23.994501
24.183241
24.367468
24.349778
24.352118
24.1534
23.823758
23.306495
22.422277
21.209182
19.11954
15.865371
21.815921
21.949712
22.086384
22.121449
22.339919
22.477883
22.684968
22.955826
23.158032
23.533717
23.997516
24.527193
24.968771
25.307211
25.64268
25.756899
25.873021
25.753409
25.46382
24.958804
24.020108
22.645479
20.137516
16.112274
18.741054
18.866792
18.975939
19.031564
19.083703
19.076106
19.047159
18.988087
18.876912
18.774396
18.681083
18.589171
18.452482
18.282326
18.103522
17.863116
17.631982
17.335296
16.998718
16.609816
16.12159
15.584122
15.003154
14.594791
18.164971
18.270582
18.343827
18.368441
18.354383
18.284668
18.172991
18.015782
17.809661
17.578621
17.330121
17.063409
16.76361
16.442541
16.110482
15.758949
15.418171
15.070307
14.733621
14.417643
14.138705
13.960275
14.019092
14.402579
18.12325
18.222837
18.282664
18.292641
18.254871
18.161185
18.020447
17.832184
17.596437
17.328774
17.036904
16.723765
16.38235
16.024794
15.659262
15.285024
14.924216
14.572635
14.247362
13.962717
13.748506
13.668713
13.864449
14.379487
18.120724
18.226207
18.289786
18.302209
18.265094
18.170806
18.028063
17.837801
17.598372
17.324239
17.024089
16.702509
16.353689
15.991017
15.621957
15.245668
14.88476
14.536021
14.215637
13.935739
13.726341
13.652685
13.850746
14.373355
18.158313
18.278456
18.361217
18.393313
18.381362
18.310038
18.193226
18.03218
17.818508
17.571502
17.299479
17.009584
16.687867
16.348907
16.001543
15.637426
15.289421
14.941965
14.611809
14.303567
14.036913
13.881755
13.965626
14.385538
18.732585
18.878191
18.999118
19.066145
19.119909
19.108996
19.072584
19.01096
18.889832
18.763768
18.625544
18.491041
18.309508
18.095514
17.873567
17.590703
17.326535
17.007847
16.660775
16.266434
15.789481
15.304627
14.833364
14.55885
21.84134
21.983914
22.118104
22.153674
22.368362
22.496694
22.692824
22.96972
23.163464
23.5312
23.919807
24.368516
24.725087
24.972006
25.214598
25.22943
25.260141
25.064607
24.711751
24.15244
23.186281
21.873418
19.628503
16.018296
22.632865
22.783033
22.955854
23.01342
23.314464
23.530834
23.842891
24.264926
24.60345
25.151326
25.867837
26.707585
27.452345
28.068664
28.700127
29.047065
29.395304
29.439385
29.244961
28.760747
27.671511
25.945185
22.54245
16.765199
19.425628
19.56714
19.708569
19.791732
19.903656
19.951045
19.998359
20.036185
20.017985
20.034815
20.108795
20.222784
20.284381
20.302503
20.321717
20.235952
20.165898
19.969264
19.674459
19.247505
18.56186
17.645668
16.311998
14.856028
18.74006
18.863433
18.971299
19.028247
19.077452
19.067798
19.035196
18.97432
18.861433
18.747421
18.647283
18.555993
18.418322
18.248443
18.068726
17.828677
17.604036
17.313845
16.982699
16.596742
16.108319
15.570836
14.993948
14.593492
18.637573
18.757156
18.853613
18.89901
18.926631
18.895995
18.836235
18.745813
18.605169
18.455862
18.304425
18.153755
17.959248
17.736564
17.502629
17.21946
16.952654
16.637455
16.29984
15.932416
15.509199
15.090221
14.714026
14.548931
18.635987
18.76457
18.866642
18.915794
18.944666
18.91335
18.850665
18.758708
18.614957
18.4603
18.296777
18.131534
17.923369
17.688314
17.441721
17.146583
16.868351
16.543563
16.198761
15.828006
15.408556
15.005721
14.660226
14.537308
18.736774
18.882046
19.00348
19.070105
19.122415
19.110991
19.071167
19.007494
18.888362
18.761994
18.627257
18.493632
18.314596
18.104694
17.8833
17.602064
17.337004
17.010787
16.651158
16.249307
15.769334
15.285253
14.822571
14.557469
19.419534
19.589992
19.746813
19.841843
19.956344
20.000813
20.03839
20.075376
20.050047
20.053456
20.063995
20.098325
20.078615
20.012539
19.942659
19.764602
19.604098
19.322852
18.956389
18.479624
17.793369
16.982961
15.937285
14.781073
22.661899
22.821278
22.985013
23.034043
23.330048
23.536313
23.839165
24.271543
24.6136
25.190717
25.801183
26.496717
27.096587
27.556993
28.023236
28.193996
28.373166
28.250631
27.90074
27.285535
26.132388
24.532522
21.694158
16.59533
25.604393
25.761084
25.973172
26.010924
26.57185
27.055702
27.747823
28.724771
29.566496
30.808158
32.283396
33.989777
35.535438
36.824891
38.131532
38.949017
39.746304
40.071937
40.022652
39.565606
38.213405
35.902548
30.672041
19.783896
22.639622
22.785954
22.956653
23.008849
23.315584
23.533988
23.84388
24.267265
24.601354
25.139178
25.834057
26.670953
27.413104
28.02764
28.655735
28.999568
29.354271
29.403472
29.210478
28.729961
27.641131
25.91656
22.520193
16.761912
21.832629
21.959298
22.091969
22.123959
22.342617
22.480093
22.679568
22.949559
23.141425
23.479992
23.92744
24.455686
24.893051
25.229139
25.560636
25.673455
25.801781
25.692644
25.408827
24.911203
23.972425
22.598886
20.101681
16.104876
21.642296
21.762597
21.878643
21.898915
22.07926
22.180963
22.334796
22.549625
22.695031
22.978108
23.326733
23.736346
24.055989
24.283185
24.497474
24.514057
24.547655
24.366174
24.036513
23.524177
22.639889
21.408074
19.25833
15.887319
21.64681
21.77413
21.892619
21.913783
22.09174
22.189362
22.337146
22.552645
22.700642
22.993149
23.321955
23.705755
24.000964
24.202952
24.387597
24.37358
24.375055
24.160664
23.799669
23.262818
22.367487
21.152833
19.082756
15.856695
21.848077
21.989542
22.125269
22.157257
22.368493
22.496036
22.681283
22.953739
23.154269
23.520448
23.91279
24.363787
24.726551
24.984643
25.228156
25.249337
25.280274
25.069941
24.690545
24.117145
23.144005
21.829595
19.59777
16.010798
22.666737
22.825629
22.990733
23.036625
23.329877
23.535035
23.828934
24.258939
24.606642
25.18335
25.796548
26.492473
27.095273
27.562933
28.031965
28.20832
28.38723
28.25416
27.889149
27.267407
26.111294
24.509714
21.676244
16.589755
25.675875
25.807796
25.972663
25.967195
26.514025
26.976276
27.660287
28.658718
29.534119
30.863605
32.224084
33.703123
35.026759
36.081616
37.138193
37.691053
38.223025
38.277281
37.967617
37.283764
35.802165
33.656735
29.338786
19.49378
37.323294
54.842093
60.057114
62.602736
64.577311
65.683311
66.445928
66.752609
66.421735
65.973603
64.693763
63.388947
61.438974
59.120634
56.700109
53.880232
52.066156
49.758341
48.242026
47.121312
46.073109
46.382322
46.331324
46.351496
30.613342
44.760046
49.490246
51.85307
53.659793
54.719377
55.47429
55.851864
55.679146
55.425956
54.486039
53.494871
51.983023
50.133927
48.207962
45.974351
44.567275
42.751727
41.530644
40.664357
39.812549
40.084575
40.055094
40.065625
27.805106
39.853823
44.284426
46.475049
48.114913
49.094613
49.796554
50.190282
50.094776
49.938393
49.188553
48.365077
47.10232
45.516586
43.868264
41.986336
40.812201
39.286434
38.218712
37.480389
36.708575
36.931463
36.889916
36.869644
26.67346
37.987802
42.269815
44.354524
45.889637
46.805727
47.455623
47.831074
47.745689
47.615563
46.936177
46.172736
45.009075
43.520257
41.976517
40.297603
39.240744
37.854765
36.858489
36.173286
35.426938
35.612672
35.547299
35.492775
26.759402
38.356451
42.728102
44.809436
46.311045
47.182855
47.780291
48.103358
47.965071
47.791825
47.072163
46.26486
45.056704
43.518305
41.934421
40.35274
39.335793
37.968925
36.972248
36.277494
35.506488
35.659616
35.557876
35.466626
28.071484
40.876654
45.630749
47.825958
49.364717
50.211196
50.758524
51.001745
50.755354
50.466978
49.590473
48.634206
47.241916
45.511034
43.761256
42.144083
41.076818
39.602872
38.541098
37.781346
36.940867
37.067352
36.916537
36.78347
31.049959
46.258098
51.696292
54.109266
55.751653
56.588123
57.085348
57.217588
56.802026
56.324818
55.169641
53.952043
52.216017
50.11922
48.120454
46.227897
44.979091
43.240868
42.042678
41.151235
40.188206
40.296829
40.072997
39.880209
37.836315
56.614749
62.901177
65.580842
67.367792
68.201598
68.643049
68.630671
67.979541
67.230112
65.660639
64.04673
61.78308
59.117927
56.65743
54.278792
52.649412
50.424808
48.92181
47.746254
46.534742
46.624028
46.291407
46.010687
97.046354
118.00011
125.98225
131.83185
137.08798
142.27285
147.63551
153.19075
158.92248
164.7335
170.49196
176.10229
181.38939
186.25415
190.53029
194.06144
196.78416
198.58018
199.40273
199.17403
197.90557
195.71012
192.75556
189.2092
89.605183
106.86222
113.87957
119.12797
123.87224
128.56081
133.41452
138.44783
143.63604
148.90337
154.12856
159.22209
164.02056
168.42945
172.30173
175.48354
177.93256
179.53318
180.25668
180.0427
178.89813
176.92119
174.25937
171.05868
84.869724
99.879719
106.27455
111.18955
115.6729
120.11433
124.71183
129.47776
134.38204
139.36666
144.31824
149.15051
153.71289
157.90448
161.58169
164.60388
166.9357
168.46524
169.16175
168.97531
167.91368
166.06513
163.56576
160.55395
82.571021
96.547067
102.67419
107.45342
111.83052
116.16989
120.65671
125.30129
130.0755
134.92119
139.72693
144.41304
148.83658
152.90262
156.4734
159.40666
161.6781
163.17899
163.87208
163.7112
162.70503
160.93489
158.53174
155.63161
82.547625
96.51348
102.69554
107.51719
111.92235
116.28106
120.78156
125.43541
130.21258
135.05137
139.84676
144.5137
148.90528
152.93109
156.45025
159.32607
161.56775
163.05707
163.75372
163.60641
162.62115
160.87718
158.50658
155.64916
84.812474
99.767674
106.33424
111.37941
115.94547
120.44148
125.07236
129.85257
134.75511
139.71608
144.62789
149.40727
153.89898
158.00125
161.55754
164.43662
166.67895
168.16035
168.85163
168.68891
167.67721
165.90037
163.49196
160.60087
89.516643
106.69647
113.99773
119.45778
124.33032
129.09314
133.98273
139.02
144.18018
149.39706
154.55785
159.57848
164.29419
168.5978
172.30514
175.29216
177.61423
179.13656
179.83012
179.63082
178.54806
176.66943
174.1413
171.12767
96.935509
117.81139
126.19479
132.32635
137.73479
142.99335
148.37797
153.9173
159.59645
165.33502
171.01535
176.54324
181.74084
186.48751
190.57211
193.87255
196.45098
198.1534
198.92303
198.69571
197.48658
195.39618
192.59574
189.27941
37.857216
56.631806
62.913834
65.585912
67.368559
68.198059
68.63154
68.612658
67.959784
67.210928
65.645796
64.038622
61.788334
59.132104
56.653885
54.283088
52.662101
50.442695
48.933987
47.765674
46.550413
46.628178
46.292145
46.016907
31.049423
46.279751
51.727577
54.137724
55.779675
56.612621
57.100813
57.225978
56.809292
56.330565
55.175418
53.964984
52.236313
50.144891
48.129385
46.240503
44.999493
43.263206
42.0613
41.172011
40.19175
40.305362
40.08474
39.89619
28.082146
40.925695
45.698088
47.895537
49.439994
50.283511
50.812588
51.040863
50.785558
50.491453
49.612354
48.664061
47.278472
45.548587
43.79262
42.160149
41.101397
39.628818
38.556301
37.797722
36.939329
37.073024
36.926755
36.798022
26.787744
38.414574
42.82454
44.920073
46.433541
47.303157
47.87371
48.174626
48.019563
47.83732
47.112365
46.308597
45.105816
43.56596
41.982745
40.381564
39.368524
37.999965
36.985415
36.290159
35.501246
35.659928
35.563147
35.476923
26.709043
38.076027
42.402051
44.504024
46.054485
46.968071
47.582751
47.929093
47.820573
47.68666
47.003015
46.23509
45.070241
43.56628
42.016519
40.33352
39.279353
37.889751
36.873004
36.188074
35.421109
35.609259
35.547303
35.498604
27.843258
39.957714
44.444339
46.654603
48.309907
49.285893
49.948968
50.310896
50.188074
50.030282
49.276257
48.438139
47.169442
45.551358
43.89068
42.025499
40.855363
39.325514
38.236021
37.498539
36.702301
36.926439
36.887434
36.87309
30.659374
44.878458
49.672465
52.053872
53.873339
54.927192
55.641449
55.986584
55.784926
55.524473
54.581095
53.565264
52.041235
50.150238
48.207491
46.017835
44.619418
42.798049
41.55223
40.68762
39.80602
40.079098
40.051324
40.067236
37.375695
54.974534
60.260415
62.825605
64.812127
65.916447
66.639071
66.91254
66.550038
66.093855
64.811994
63.471113
61.505837
59.145177
56.703825
53.973926
52.164508
49.84268
48.284388
47.160373
46.074179
46.373955
46.322093
46.34517
96.938799
117.81752
126.19546
132.32176
137.72405
142.97611
148.3538
153.88806
159.56474
165.29863
170.97188
176.49192
181.67817
186.41289
190.49697
193.81285
196.4096
198.12439
198.89942
198.67986
197.47996
195.40225
192.61565
189.30944
89.515982
106.70357
114.00125
119.4554
124.31871
129.07064
133.94763
138.97464
144.13052
149.33959
154.48348
159.4834
164.16993
168.43897
172.13496
175.14001
177.48804
179.03103
179.7338
179.54525
178.48314
176.62999
174.12965
171.13857
84.817518
99.792538
106.36738
111.41774
115.98506
120.47687
125.09647
129.86419
134.75864
139.70639
144.59364
149.34311
153.79653
157.85627
161.38914
164.27278
166.5275
168.01923
168.71416
168.55739
167.56459
165.81076
163.4288
160.56253
82.565881
96.546949
102.75806
107.6041
112.02577
116.38865
120.87947
125.51745
130.28166
135.10477
139.87367
144.50737
148.85984
152.83747
156.32269
159.18462
161.42109
162.90591
163.59903
163.45416
162.48105
160.75578
158.40739
155.57259
82.589781
96.606453
102.77301
107.58889
111.99405
116.34446
120.82272
125.44868
130.20434
135.02787
139.81091
144.46745
148.85959
152.88193
156.40963
159.30747
161.55546
163.04012
163.72195
163.55826
162.5587
160.80095
158.41521
155.53558
84.88781
99.946608
106.39119
111.35332
115.8739
120.33239
124.9223
129.66927
134.55463
139.5185
144.45603
149.26947
153.81445
157.9772
161.60422
164.57021
166.85925
168.36197
169.0381
168.83795
167.7737
165.93138
163.44603
160.45196
89.620061
106.92402
113.99334
119.29239
124.07873
128.79119
133.64693
138.66779
143.83946
149.09433
154.31649
159.40996
164.20822
168.59851
172.41693
175.52882
177.91923
179.47861
180.16848
179.92859
178.7724
176.7966
174.14447
170.95582
97.055675
118.04899
126.07965
131.97717
137.27735
142.49802
147.88395
153.44636
159.17384
164.98121
170.74638
176.3711
181.67335
186.53284
190.7636
194.22354
196.86927
198.59653
199.36283
199.09278
197.80328
195.60478
192.65375
189.10825
37.369121
54.957024
60.241445
62.805591
64.786839
65.893789
66.630596
66.907158
66.543901
66.085478
64.802493
63.455058
61.488886
59.133342
56.692182
53.953496
52.142554
49.819634
48.271987
47.146376
46.069079
46.369435
46.316988
46.341894
30.646865
44.844921
49.634532
52.01415
53.826922
54.876355
55.60065
55.955636
55.754285
55.491372
54.550854
53.533285
52.013981
50.137918
48.19645
45.99349
44.594951
42.770816
41.533606
40.666282
39.797945
40.069087
40.040685
40.05704
27.828135
39.912233
44.38817
46.595661
48.246405
49.221513
49.900875
50.270026
50.14699
49.989389
49.248006
48.406116
47.137829
45.533101
43.872849
42.004751
40.822967
39.290021
38.210553
37.470283
36.689554
36.91186
36.871802
36.858128
26.689303
38.029173
42.339442
44.437902
45.986777
46.902857
47.53679
47.888461
47.779944
47.648683
46.9765
46.200857
45.035528
43.539124
41.991777
40.311788
39.24217
37.849408
36.842827
36.154416
35.404077
35.590034
35.526929
35.479825
26.770717
38.380808
42.769039
44.859715
46.375718
47.251319
47.840999
48.147684
47.995157
47.817739
47.099259
46.284014
45.079633
43.540203
41.948777
40.353908
39.323254
37.955502
36.950404
36.250519
35.480247
35.636338
35.538328
35.454488
28.07861
40.887917
45.650369
47.850974
49.403849
50.256721
50.803534
51.037648
50.786581
50.497968
49.625393
48.663176
47.276366
45.539944
43.757644
42.125607
41.047974
39.578455
38.512799
37.748287
36.913023
37.043265
36.895493
36.768807
31.053702
46.260872
51.702634
54.118521
55.77315
56.617945
57.121342
57.251824
56.8434
56.372215
55.225511
54.001474
52.27458
50.171142
48.109396
46.20342
44.944225
43.207272
42.008633
41.113251
40.161428
40.272038
40.049453
39.86158
37.839378
56.615164
62.905471
65.588558
67.384867
68.22697
68.674347
68.661719
68.023604
67.285988
65.732042
64.110216
61.862922
59.194855
56.64047
54.234356
52.617961
50.401185
48.893395
47.715939
46.525799
46.608168
46.269298
45.991934
97.052578
118.03603
126.05695
131.94445
137.23854
142.45789
147.85133
153.42866
159.17026
164.98519
170.75115
176.3752
181.6753
186.5308
190.76122
194.22144
196.86573
198.59211
199.36087
199.09688
197.81328
195.61665
192.66125
189.10857
89.611165
106.88881
113.93231
119.20576
123.97402
128.683
133.5533
138.5948
143.78939
149.05735
154.2876
159.38971
164.19174
168.58174
172.40449
175.52182
177.91289
179.47086
180.1658
179.93811
178.79218
176.81692
174.15127
170.94449
84.873854
99.894602
106.30425
111.23355
115.73032
120.18484
124.79134
129.56153
134.47539
139.45723
144.40469
149.23735
153.8004
157.973
161.60849
164.58139
166.8693
168.3726
169.05657
168.86473
167.80299
165.95265
163.44502
160.42534
82.571575
96.546445
102.67596
107.4584
111.83837
116.18093
120.67188
125.32327
130.10621
134.95299
139.75767
144.44565
148.869
152.9105
156.44809
159.35042
161.59395
163.08107
163.77143
163.60972
162.60267
160.82787
158.41471
155.50517
82.543928
96.496155
102.66754
107.47905
111.87473
116.22673
120.7231
125.37697
130.16092
135.00985
139.81511
144.49263
148.88843
152.89735
156.39942
159.26291
161.49043
162.9724
163.6699
163.52081
162.53321
160.78501
158.40611
155.54042
84.805362
99.735641
106.27854
111.29979
115.84147
120.31592
124.93213
129.70669
134.61204
139.58408
144.51136
149.3038
153.80291
157.90689
161.47298
164.36451
166.60952
168.09156
168.78634
168.62276
167.61175
165.83395
163.42268
160.52849
89.50704
106.65459
113.9235
119.34644
124.17791
128.90555
133.77087
138.79493
143.95466
149.18305
154.35988
159.39528
164.12184
168.43683
172.1805
175.20679
177.54681
179.08029
179.78242
179.58688
178.50931
176.63393
174.11073
171.10068
96.926713
117.77277
126.1257
132.21774
137.57814
142.79436
148.14832
153.66908
159.34337
165.08832
170.78029
176.32105
181.53264
186.30298
190.43917
193.789
196.38667
198.10246
198.88844
198.67182
197.46717
195.37638
192.57908
189.26719
37.856445
56.627704
62.915834
65.603216
67.404199
68.252046
68.698576
68.691971
68.061742
67.326727
65.776126
64.160899
61.919504
59.245527
56.665271
54.248484
52.630933
50.419028
48.904449
47.729747
46.531684
46.612415
46.27212
45.991802
31.047515
46.269024
51.719661
54.14304
55.8039
56.659201
57.160754
57.29908
56.901984
56.436349
55.296396
54.079059
52.360217
50.252291
48.161992
46.255516
44.990049
43.264093
42.046602
41.154773
40.185209
40.290538
40.062318
39.868598
28.075004
40.901727
45.668648
47.872423
49.430977
50.297785
50.845234
51.091878
50.859436
50.579614
49.714983
48.759866
47.383551
45.647634
43.890356
42.200978
41.104118
39.64575
38.555248
37.794745
36.942284
37.063478
36.908392
36.772737
26.773242
38.37366
42.767313
44.859579
46.379922
47.270604
47.864782
48.189156
48.062195
47.89584
47.184481
46.377565
45.186999
43.655265
42.093912
40.43029
39.381639
38.027184
36.996188
36.298298
35.512708
35.658788
35.55283
35.458326
26.682152
38.012526
42.312125
44.401747
45.950352
46.880165
47.522421
47.897434
47.823186
47.705036
47.040171
46.278095
45.128694
43.645912
42.128863
40.377916
39.293404
37.915837
36.888257
36.200453
35.438563
35.616433
35.546414
35.487768
27.80642
39.865555
44.317623
46.509902
48.155931
49.142499
49.836015
50.233132
50.152699
50.0106
49.277445
48.456953
47.205826
45.619743
43.993115
42.050845
40.858077
39.339197
38.249632
37.50889
36.723776
36.940225
36.894356
36.870218
30.614292
44.765848
49.512726
51.873083
53.678803
54.738594
55.484773
55.871466
55.719189
55.474224
54.542345
53.551133
52.051964
50.206792
48.29885
46.009274
44.602196
42.794407
41.561435
40.693317
39.831418
40.098391
40.064811
40.071767
37.323049
54.843159
60.06705
62.608714
64.579978
65.693297
66.457044
66.766553
66.446218
66.007434
64.737171
63.430407
61.493054
59.176271
56.769959
53.92572
52.121048
49.820259
48.285977
47.160149
46.097068
46.394232
46.337841
46.352659
96.93386
117.79213
126.14847
132.24309
137.60358
142.81697
148.16599
153.68045
159.34873
165.08903
170.77774
176.31735
181.52615
186.28777
190.41212
193.75245
196.34462
198.05871
198.84566
198.6327
197.42955
195.33881
192.53997
189.22619
89.514138
106.69037
113.9719
119.40141
124.23449
128.95815
133.81119
138.81912
143.96627
149.18159
154.34233
159.36329
164.07589
168.37363
172.09697
175.1125
177.45568
178.99659
179.70653
179.5183
178.44251
176.56509
174.03919
171.02701
84.814301
99.775422
106.32911
111.35086
115.88769
120.35373
124.95416
129.70888
134.59883
139.55624
144.46381
149.23236
153.70533
157.7842
161.32876
164.2286