/*--------------------------------*- C++ -*----------------------------------*\
| =========                 |                                                 |
| \\      /  F ield         | foam-extend: Open Source CFD                    |
|  \\    /   O peration     | Version:     4.1-20200408                       |
|   \\  /    A nd           | Web:         http://www.foam-extend.org         |
|    \\/     M anipulation  |                                                 |
\*---------------------------------------------------------------------------*/
FoamFile
{
    version     2.0;
    format      ascii;
    class       volScalarField;
    location    "0.0810000";
    object      J;
}
// * * * * * * * * * * * * * * * * * * * * * * * * * * * * * * * * * * * * * //

dimensions      [0 0 0 0 0 0 0];

internalField   nonuniform List<scalar> 
1952
(
0.996253
0.996402
0.996601
0.996841
0.997137
0.997472
0.997866
0.998306
0.998784
0.999398
1.00009
1.00104
1.00205
1.00314
1.00385
0.996183
0.996302
0.996452
0.996651
0.996892
0.997188
0.997523
0.997919
0.998358
0.998836
0.99945
1.00015
1.00109
1.0021
1.00319
1.00389
0.996233
0.996325
0.996476
0.996675
0.996915
0.997211
0.997546
0.997941
0.998379
0.998857
0.999469
1.00016
1.0011
1.00211
1.00319
1.00389
0.996257
0.996345
0.996495
0.996694
0.996934
0.99723
0.997564
0.997959
0.998396
0.998873
0.999483
1.00018
1.00111
1.00212
1.0032
1.00389
0.996276
0.996362
0.996513
0.996711
0.996951
0.997247
0.997581
0.997975
0.998411
0.998887
0.999496
1.00019
1.00112
1.00213
1.0032
1.00389
0.996294
0.996378
0.996528
0.996726
0.996965
0.997261
0.997594
0.997988
0.998423
0.998898
0.999506
1.0002
1.00113
1.00213
1.0032
1.00389
0.996309
0.996391
0.996541
0.996739
0.996978
0.997273
0.997606
0.998
0.998434
0.998908
0.999514
1.00021
1.00113
1.00214
1.00321
1.00389
0.996322
0.996403
0.996553
0.996751
0.996989
0.997284
0.997617
0.998009
0.998442
0.998916
0.999521
1.00021
1.00114
1.00214
1.00321
1.00389
0.996334
0.996413
0.996563
0.99676
0.996999
0.997293
0.997625
0.998018
0.99845
0.998922
0.999528
1.00022
1.00114
1.00214
1.00321
1.00389
0.996344
0.996421
0.996572
0.996769
0.997007
0.997301
0.997633
0.998025
0.998457
0.998929
0.999534
1.00022
1.00115
1.00215
1.00321
1.00389
0.996353
0.996429
0.99658
0.996777
0.997015
0.997309
0.997641
0.998032
0.998463
0.998935
0.999539
1.00023
1.00115
1.00215
1.00321
1.00389
0.996361
0.996436
0.996586
0.996783
0.997021
0.997315
0.997647
0.998038
0.998468
0.99894
0.999544
1.00023
1.00115
1.00215
1.00322
1.00389
0.996368
0.996442
0.996592
0.996789
0.997027
0.997321
0.997653
0.998044
0.998474
0.998945
0.999548
1.00024
1.00116
1.00216
1.00322
1.0039
0.996373
0.996448
0.996598
0.996795
0.997033
0.997326
0.997658
0.998049
0.998479
0.99895
0.999553
1.00024
1.00116
1.00216
1.00322
1.0039
0.996379
0.996453
0.996603
0.9968
0.997038
0.997332
0.997663
0.998054
0.998484
0.998955
0.999558
1.00025
1.00117
1.00217
1.00323
1.0039
0.996384
0.996457
0.996608
0.996804
0.997042
0.997336
0.997668
0.998058
0.998488
0.998959
0.999563
1.00025
1.00117
1.00217
1.00323
1.00391
0.996388
0.996461
0.996612
0.996809
0.997046
0.997341
0.997673
0.998063
0.998493
0.998964
0.999567
1.00026
1.00118
1.00218
1.00324
1.00391
0.996392
0.996465
0.996616
0.996812
0.997051
0.997345
0.997677
0.998067
0.998497
0.998969
0.999572
1.00026
1.00118
1.00218
1.00324
1.00392
0.996396
0.996469
0.996619
0.996816
0.997054
0.997349
0.997681
0.998072
0.998502
0.998974
0.999577
1.00027
1.00119
1.00219
1.00325
1.00392
0.9964
0.996472
0.996623
0.99682
0.997058
0.997353
0.997686
0.998076
0.998506
0.998979
0.999582
1.00027
1.00119
1.0022
1.00325
1.00393
0.996403
0.996475
0.996626
0.996823
0.997061
0.997357
0.99769
0.99808
0.998511
0.998983
0.999588
1.00028
1.0012
1.0022
1.00326
1.00394
0.996406
0.996477
0.996628
0.996825
0.997064
0.99736
0.997694
0.998085
0.998515
0.998989
0.999593
1.00029
1.00121
1.00221
1.00327
1.00394
0.996408
0.996479
0.99663
0.996828
0.997067
0.997363
0.997697
0.998089
0.99852
0.998993
0.999599
1.00029
1.00121
1.00222
1.00328
1.00395
0.99641
0.99648
0.996632
0.996829
0.997069
0.997366
0.9977
0.998092
0.998524
0.998998
0.999605
1.0003
1.00122
1.00222
1.00328
1.00396
0.996411
0.996481
0.996632
0.99683
0.997071
0.997368
0.997703
0.998096
0.998528
0.999004
0.99961
1.00031
1.00123
1.00223
1.00329
1.00397
0.996411
0.99648
0.996632
0.99683
0.997071
0.997369
0.997705
0.998099
0.998531
0.999008
0.999616
1.00031
1.00123
1.00224
1.0033
1.00398
0.996411
0.996478
0.996631
0.996829
0.997071
0.99737
0.997706
0.998101
0.998534
0.999013
0.999621
1.00032
1.00124
1.00225
1.00331
1.00399
0.996409
0.996475
0.996628
0.996827
0.997069
0.997369
0.997706
0.998102
0.998537
0.999017
0.999626
1.00033
1.00125
1.00226
1.00332
1.004
0.996406
0.99647
0.996623
0.996823
0.997066
0.997367
0.997705
0.998102
0.998538
0.999019
0.999631
1.00033
1.00126
1.00227
1.00333
1.00402
0.9964
0.996463
0.996616
0.996817
0.99706
0.997362
0.997702
0.9981
0.998537
0.999021
0.999634
1.00034
1.00126
1.00228
1.00334
1.00403
0.996393
0.996453
0.996606
0.996808
0.997052
0.997355
0.997697
0.998097
0.998535
0.999022
0.999637
1.00034
1.00127
1.00229
1.00336
1.00405
0.996383
0.996439
0.996593
0.996796
0.997041
0.997346
0.997688
0.998091
0.998531
0.99902
0.999638
1.00035
1.00128
1.0023
1.00337
1.00406
0.996369
0.996422
0.996576
0.99678
0.997026
0.997333
0.997677
0.998081
0.998523
0.999016
0.999636
1.00035
1.00128
1.00231
1.00338
1.00408
0.996352
0.996401
0.996555
0.99676
0.997007
0.997315
0.997661
0.998068
0.998512
0.999009
0.999632
1.00035
1.00129
1.00232
1.0034
1.0041
0.99633
0.996374
0.996528
0.996734
0.996982
0.997293
0.99764
0.99805
0.998497
0.998997
0.999624
1.00035
1.00129
1.00233
1.00341
1.00412
0.996303
0.996341
0.996496
0.996703
0.996951
0.997264
0.997614
0.998026
0.998476
0.99898
0.999611
1.00034
1.00129
1.00234
1.00342
1.00414
0.99627
0.996301
0.996456
0.996664
0.996914
0.997229
0.99758
0.997995
0.998447
0.998957
0.999592
1.00033
1.00128
1.00234
1.00343
1.00415
0.99623
0.996255
0.996409
0.996618
0.996868
0.997185
0.997538
0.997956
0.998411
0.998925
0.999565
1.00031
1.00127
1.00234
1.00343
1.00417
0.996183
0.9962
0.996354
0.996564
0.996814
0.997132
0.997486
0.997906
0.998364
0.998883
0.999528
1.00028
1.00124
1.00233
1.00343
1.00419
0.996128
0.996137
0.99629
0.9965
0.99675
0.997069
0.997424
0.997845
0.998306
0.998829
0.999479
1.00024
1.00121
1.00231
1.00343
1.0042
0.996065
0.996066
0.996218
0.996428
0.996677
0.996994
0.997349
0.997771
0.998233
0.998759
0.999414
1.00018
1.00116
1.00228
1.00341
1.00421
0.995994
0.995988
0.996137
0.996346
0.996592
0.996909
0.997262
0.997682
0.998144
0.998672
0.999329
1.0001
1.00109
1.00223
1.00337
1.0042
0.995916
0.995903
0.996049
0.996255
0.996499
0.996811
0.997161
0.997577
0.998036
0.998562
0.999221
1
1.001
1.00215
1.00331
1.00418
0.995832
0.995813
0.995955
0.996159
0.996396
0.996702
0.997046
0.997454
0.997908
0.998428
0.999084
0.999865
1.00087
1.00204
1.00323
1.00414
0.995743
0.995723
0.99586
0.996058
0.996288
0.996585
0.996919
0.997315
0.997758
0.998265
0.998913
0.999687
1.00069
1.00187
1.00308
1.00407
0.995654
0.995637
0.995768
0.995958
0.996178
0.996462
0.996782
0.997159
0.997586
0.998072
0.998703
0.999458
1.00045
1.00163
1.00284
1.00389
0.99557
0.995562
0.995684
0.995866
0.996072
0.996339
0.99664
0.996993
0.997396
0.99785
0.998452
0.999169
1.00012
1.00126
1.00242
1.00343
0.995497
0.995505
0.995619
0.995789
0.995978
0.996224
0.996502
0.996823
0.997195
0.997605
0.998168
0.99883
0.999725
1.0008
1.00186
1.00276
0.995443
0.995478
0.995581
0.995737
0.995908
0.996129
0.996378
0.996661
0.996994
0.997351
0.997865
0.998455
0.999286
1.00028
1.00124
1.00206
0.995419
0.995493
0.995584
0.995725
0.995873
0.996066
0.996282
0.99652
0.996809
0.997102
0.997559
0.998062
0.998821
0.999711
1.00058
1.00133
0.995437
0.995564
0.995642
0.995766
0.995889
0.996051
0.99623
0.996419
0.996656
0.996878
0.997268
0.997668
0.998349
0.999105
0.999888
1.00059
0.995512
0.995707
0.995771
0.995877
0.995974
0.996102
0.99624
0.996377
0.996557
0.996701
0.997015
0.997295
0.997884
0.998459
0.999175
0.99981
0.995658
0.995939
0.995988
0.996076
0.996145
0.996239
0.996334
0.996415
0.996534
0.996596
0.996823
0.996976
0.99745
0.997814
0.99843
0.998964
0.995895
0.996278
0.996311
0.996379
0.99642
0.996478
0.996531
0.996562
0.996628
0.996622
0.996761
0.99677
0.997072
0.997214
0.997692
0.998025
0.996238
0.996737
0.996757
0.996813
0.996833
0.996866
0.996878
0.996851
0.996844
0.996754
0.996789
0.99665
0.996789
0.996707
0.997019
0.997014
0.996701
0.997367
0.997367
0.997395
0.997378
0.997361
0.997308
0.997201
0.997099
0.996905
0.996825
0.99656
0.996558
0.996241
0.996374
0.995978
0.997336
0.998096
0.998053
0.998024
0.997936
0.997836
0.997696
0.997505
0.997313
0.997019
0.996826
0.996438
0.996313
0.995807
0.995781
0.995032
0.998081
0.998737
0.998649
0.998559
0.998401
0.998219
0.997995
0.997723
0.99745
0.997081
0.996798
0.996318
0.996084
0.995434
0.995271
0.994255
0.998743
0.999213
0.999092
0.998954
0.998743
0.998503
0.998216
0.997885
0.997546
0.997119
0.996761
0.996213
0.995888
0.995136
0.994859
0.993656
0.99924
0.999532
0.999393
0.999224
0.998979
0.998699
0.998367
0.997994
0.997603
0.997136
0.996719
0.996128
0.99573
0.994919
0.994551
0.993238
0.999574
0.999701
0.999556
0.999369
0.999106
0.998803
0.998444
0.998047
0.997621
0.997133
0.996673
0.996065
0.995611
0.994782
0.994347
0.992997
0.999755
0.999738
0.999592
0.999397
0.999127
0.998817
0.998445
0.998041
0.997596
0.997105
0.996619
0.996017
0.995528
0.994719
0.994243
0.992927
0.999799
0.999652
0.999511
0.999316
0.999049
0.998742
0.99837
0.997973
0.997525
0.997048
0.996555
0.995982
0.99548
0.994726
0.994236
0.993019
0.999716
0.999454
0.999321
0.999133
0.998876
0.998583
0.998224
0.997846
0.99741
0.996962
0.996479
0.995955
0.995461
0.994795
0.994321
0.993264
0.999516
0.999148
0.999027
0.998855
0.998617
0.998348
0.998012
0.997664
0.997253
0.996847
0.99639
0.995932
0.995468
0.99492
0.994491
0.993648
0.999204
0.998741
0.998636
0.998487
0.998278
0.998042
0.99774
0.997434
0.997059
0.996706
0.99629
0.995912
0.995499
0.995096
0.994741
0.994155
0.998787
0.998242
0.998157
0.998038
0.997865
0.99767
0.997411
0.997156
0.996829
0.996539
0.996176
0.995892
0.995552
0.995315
0.995062
0.99476
0.998278
0.997671
0.997606
0.997517
0.997381
0.997232
0.997023
0.996826
0.996557
0.99634
0.996046
0.995868
0.995623
0.995573
0.995444
0.995434
0.997697
0.997052
0.997002
0.996939
0.996836
0.99673
0.996571
0.996435
0.996232
0.996096
0.995886
0.995829
0.995705
0.995859
0.995874
0.996146
0.997071
0.996413
0.99637
0.996324
0.996244
0.996172
0.996056
0.995975
0.99584
0.995791
0.995678
0.995758
0.995785
0.996159
0.996333
0.996857
0.996429
0.995782
0.995741
0.995703
0.995637
0.995586
0.995501
0.995464
0.995384
0.995414
0.995406
0.995635
0.995839
0.996444
0.996785
0.997527
0.995797
0.995185
0.995144
0.995109
0.995049
0.995009
0.994942
0.994926
0.994873
0.994955
0.995043
0.995431
0.995836
0.996667
0.997174
0.998103
0.9952
0.994583
0.99454
0.994502
0.994438
0.994397
0.994336
0.994333
0.99433
0.994502
0.994723
0.995265
0.995815
0.996799
0.997447
0.998525
0.994599
0.994032
0.994009
0.993997
0.993974
0.993985
0.994006
0.994114
0.994259
0.994561
0.994894
0.99548
0.996046
0.996992
0.997627
0.998765
0.994041
0.993988
0.994012
0.994063
0.99413
0.994243
0.994382
0.994606
0.994858
0.995213
0.995566
0.996084
0.996563
0.997326
0.997836
0.998851
0.993979
0.994515
0.994558
0.994635
0.994737
0.994885
0.995059
0.995295
0.995539
0.995863
0.996192
0.996657
0.997084
0.997686
0.998118
0.998874
0.994498
0.995118
0.995161
0.995232
0.995328
0.995462
0.995622
0.995838
0.996072
0.996379
0.99669
0.997102
0.997488
0.998002
0.998426
0.998974
0.995102
0.995622
0.995669
0.995743
0.995843
0.995978
0.996137
0.996341
0.996561
0.996841
0.997126
0.997489
0.997835
0.998272
0.998661
0.99913
0.995605
0.996099
0.996146
0.996215
0.996311
0.996436
0.996584
0.996771
0.996976
0.997229
0.997488
0.997809
0.998116
0.998495
0.998838
0.999258
0.996083
0.996521
0.996567
0.996633
0.996724
0.996841
0.99698
0.997151
0.997338
0.997565
0.997798
0.998079
0.998351
0.998677
0.998975
0.999334
0.996505
0.996902
0.996947
0.997007
0.997093
0.997199
0.997327
0.997481
0.997651
0.997852
0.99806
0.998306
0.998544
0.998825
0.999082
0.99939
0.996888
0.997242
0.997284
0.997339
0.997418
0.997515
0.997631
0.997769
0.997921
0.9981
0.998283
0.998497
0.998705
0.998946
0.999166
0.999427
0.997229
0.997544
0.997584
0.997633
0.997705
0.997792
0.997897
0.99802
0.998155
0.998312
0.998473
0.998659
0.998839
0.999045
0.999233
0.999454
0.997532
0.997812
0.997848
0.997893
0.997958
0.998035
0.998129
0.998238
0.998358
0.998495
0.998636
0.998796
0.998951
0.999127
0.999287
0.999474
0.997801
0.998049
0.998083
0.998122
0.998181
0.998249
0.998332
0.998428
0.998533
0.998653
0.998775
0.998913
0.999046
0.999196
0.999332
0.99949
0.99804
0.998259
0.998289
0.998324
0.998376
0.998436
0.99851
0.998594
0.998686
0.998789
0.998896
0.999014
0.999128
0.999255
0.999369
0.999503
0.998251
0.998445
0.998472
0.998502
0.998548
0.998601
0.998666
0.998738
0.998819
0.998908
0.999
0.999101
0.999198
0.999306
0.999402
0.999515
0.998437
0.998608
0.998633
0.998659
0.9987
0.998746
0.998802
0.998865
0.998935
0.999012
0.999091
0.999177
0.99926
0.999351
0.999432
0.999527
0.998602
0.998753
0.998775
0.998797
0.998834
0.998873
0.998923
0.998977
0.999037
0.999103
0.999171
0.999245
0.999315
0.999391
0.99946
0.99954
0.998747
0.998881
0.9989
0.99892
0.998952
0.998986
0.999029
0.999076
0.999128
0.999184
0.999242
0.999304
0.999364
0.999428
0.999486
0.999554
0.998876
0.998995
0.999012
0.999029
0.999056
0.999086
0.999123
0.999163
0.999208
0.999256
0.999305
0.999358
0.999409
0.999463
0.999512
0.99957
0.99899
0.999096
0.99911
0.999125
0.999149
0.999174
0.999206
0.999241
0.999279
0.999321
0.999363
0.999408
0.99945
0.999496
0.999537
0.999587
0.999092
0.999185
0.999198
0.999211
0.999232
0.999254
0.999281
0.999311
0.999344
0.999379
0.999415
0.999453
0.999489
0.999528
0.999563
0.999605
0.999182
0.999266
0.999277
0.999288
0.999306
0.999325
0.999348
0.999374
0.999402
0.999432
0.999462
0.999495
0.999525
0.999558
0.999588
0.999625
0.999263
0.999338
0.999348
0.999357
0.999373
0.999389
0.999409
0.999431
0.999455
0.99948
0.999506
0.999534
0.99956
0.999587
0.999613
0.999646
0.999336
0.999403
0.999412
0.999419
0.999433
0.999447
0.999464
0.999483
0.999503
0.999525
0.999547
0.999571
0.999593
0.999616
0.999638
0.999667
0.999401
0.999462
0.999469
0.999476
0.999488
0.999499
0.999515
0.99953
0.999548
0.999567
0.999586
0.999606
0.999624
0.999645
0.999664
0.999689
0.99946
0.999515
0.999522
0.999527
0.999537
0.999548
0.999561
0.999574
0.99959
0.999605
0.999622
0.999639
0.999655
0.999672
0.999689
0.999712
0.999514
0.999564
0.99957
0.999575
0.999583
0.999592
0.999603
0.999615
0.999628
0.999642
0.999656
0.99967
0.999684
0.9997
0.999714
0.999735
0.999563
0.999608
0.999613
0.999618
0.999625
0.999633
0.999643
0.999653
0.999664
0.999676
0.999688
0.999701
0.999713
0.999726
0.99974
0.999759
0.999607
0.99965
0.999654
0.999658
0.999664
0.999671
0.999679
0.999688
0.999698
0.999709
0.999719
0.99973
0.999741
0.999753
0.999765
0.999782
0.999649
0.999688
0.999691
0.999695
0.999701
0.999706
0.999714
0.999722
0.99973
0.999739
0.999749
0.999758
0.999768
0.999778
0.999789
0.999806
0.999687
0.999723
0.999726
0.999729
0.999734
0.999739
0.999746
0.999753
0.999761
0.999769
0.999777
0.999786
0.999794
0.999804
0.999814
0.99983
0.999722
0.999755
0.999759
0.999761
0.999766
0.99977
0.999776
0.999782
0.999789
0.999797
0.999804
0.999812
0.99982
0.999828
0.999838
0.999853
0.999755
0.999786
0.999789
0.999791
0.999795
0.999799
0.999805
0.99981
0.999817
0.999823
0.99983
0.999837
0.999844
0.999852
0.999862
0.999877
0.999785
0.999814
0.999817
0.999819
0.999823
0.999827
0.999831
0.999837
0.999842
0.999849
0.999855
0.999862
0.999868
0.999876
0.999885
0.9999
0.999814
0.999841
0.999843
0.999845
0.999849
0.999852
0.999857
0.999862
0.999867
0.999873
0.999879
0.999885
0.999892
0.999899
0.999908
0.999922
0.99984
0.999866
0.999868
0.99987
0.999873
0.999876
0.99988
0.999885
0.99989
0.999896
0.999902
0.999908
0.999914
0.999921
0.99993
0.999945
0.999865
0.999889
0.999891
0.999892
0.999895
0.999899
0.999903
0.999907
0.999912
0.999918
0.999923
0.999929
0.999936
0.999943
0.999952
0.999967
0.999888
0.99991
0.999912
0.999914
0.999917
0.99992
0.999924
0.999928
0.999933
0.999938
0.999944
0.99995
0.999957
0.999964
0.999973
0.999988
0.99991
0.99993
0.999932
0.999933
0.999936
0.999939
0.999943
0.999948
0.999952
0.999958
0.999964
0.99997
0.999977
0.999984
0.999994
1.00001
0.99993
0.999948
0.99995
0.999952
0.999954
0.999958
0.999961
0.999966
0.999971
0.999976
0.999982
0.999989
0.999995
1
1.00001
1.00003
0.999948
0.999965
0.999967
0.999969
0.999971
0.999974
0.999978
0.999982
0.999987
0.999993
0.999999
1.00001
1.00001
1.00002
1.00003
1.00005
0.999965
0.999981
0.999982
0.999984
0.999986
0.99999
0.999993
0.999998
1
1.00001
1.00001
1.00002
1.00003
1.00004
1.00005
1.00007
0.99998
0.999994
0.999996
0.999998
1
1
1.00001
1.00001
1.00002
1.00002
1.00003
1.00004
1.00004
1.00005
1.00007
1.00009
0.999994
1.00001
1.00001
1.00001
1.00001
1.00002
1.00002
1.00002
1.00003
1.00003
1.00004
1.00005
1.00006
1.00007
1.00008
1.0001
1.00001
1.00002
1.00002
1.00002
1.00002
1.00003
1.00003
1.00003
1.00004
1.00005
1.00005
1.00006
1.00007
1.00008
1.0001
1.00012
1.00002
1.00003
1.00003
1.00003
1.00003
1.00004
1.00004
1.00004
1.00005
1.00005
1.00006
1.00007
1.00008
1.00009
1.00011
1.00013
1.00003
1.00004
1.00004
1.00004
1.00004
1.00004
1.00005
1.00005
1.00006
1.00006
1.00007
1.00008
1.00009
1.0001
1.00012
1.00014
1.00004
1.00004
1.00004
1.00005
1.00005
1.00005
1.00005
1.00006
1.00006
1.00007
1.00007
1.00008
1.00009
1.0001
1.00012
1.00015
1.00004
1.00005
1.00005
1.00005
1.00005
1.00006
1.00006
1.00006
1.00006
1.00007
1.00007
1.00008
1.00009
1.0001
1.00011
1.00013
1.00005
1.00005
1.00005
1.00005
1.00006
1.00006
1.00006
1.00006
1.00007
1.00007
1.00007
1.00008
1.00009
1.00009
1.0001
1.00012
1.00005
)
;

boundaryField
{
    wireUpstream
    {
        type            calculated;
        value           nonuniform List<scalar> 
16
(
1.00006
1.00006
1.00006
1.00006
1.00006
1.00006
1.00006
1.00007
1.00007
1.00008
1.00008
1.00008
1.00009
1.00009
1.0001
1.00006
)
;
    }
    wireDownstream
    {
        type            calculated;
        value           nonuniform List<scalar> 
16
(
0.996252
0.996402
0.996601
0.996841
0.997136
0.997471
0.997864
0.998303
0.99878
0.999393
1.00009
1.00102
1.00203
1.00311
1.00378
0.996183
)
;
    }
    wireTopContact
    {
        type            calculated;
        value           nonuniform List<scalar> 
122
(
1.00396
1.00396
1.00396
1.00396
1.00396
1.00396
1.00396
1.00396
1.00396
1.00396
1.00396
1.00397
1.00397
1.00397
1.00398
1.00398
1.00399
1.00399
1.004
1.004
1.00401
1.00402
1.00403
1.00404
1.00405
1.00406
1.00407
1.00408
1.0041
1.00411
1.00413
1.00415
1.00416
1.00418
1.0042
1.00422
1.00424
1.00425
1.00426
1.00426
1.00425
1.00423
1.00418
1.0041
1.00393
1.00345
1.00276
1.00204
1.00129
1.00053
0.99976
0.998941
0.998047
0.997091
0.996087
0.995163
0.994408
0.993818
0.993397
0.993149
0.993067
0.993144
0.993372
0.993737
0.994224
0.994805
0.995453
0.996134
0.996809
0.997438
0.997973
0.998367
0.998601
0.998719
0.998841
0.998995
0.999137
0.99926
0.999338
0.999395
0.999434
0.999462
0.999482
0.999498
0.99951
0.999522
0.999534
0.999547
0.999561
0.999576
0.999592
0.99961
0.999629
0.99965
0.999671
0.999693
0.999715
0.999738
0.999761
0.999785
0.999808
0.999832
0.999855
0.999878
0.999901
0.999924
0.999946
0.999968
0.999989
1.00001
1.00003
1.00005
1.00007
1.00009
1.0001
1.00012
1.00013
1.00014
1.00015
1.00013
1.00012
1.00393
)
;
    }
    front
    {
        type            wedge;
    }
    back
    {
        type            wedge;
    }
}


// ************************************************************************* //
