/*--------------------------------*- C++ -*----------------------------------*\
| =========                 |                                                 |
| \\      /  F ield         | OpenFOAM: The Open Source CFD Toolbox           |
|  \\    /   O peration     | Version:  4.1                                   |
|   \\  /    A nd           | Web:      www.OpenFOAM.org                      |
|    \\/     M anipulation  |                                                 |
\*---------------------------------------------------------------------------*/
FoamFile
{
    version     2.0;
    format      ascii;
    class       volVectorField;
    location    "0.000040";
    object      cellDisplacement;
}
// * * * * * * * * * * * * * * * * * * * * * * * * * * * * * * * * * * * * * //

dimensions      [0 1 0 0 0 0 0];

internalField   nonuniform List<vector> 
6144
(
(0 0.00011264104 2.2375581e-07)
(0 0.00020898271 2.8142615e-07)
(0 0.00024795514 1.2809129e-07)
(0 0.00025940824 -2.0008617e-07)
(0 0.00025741603 -4.29165e-07)
(0 0.0002473128 -7.0126009e-07)
(0 0.00023180556 -6.8657856e-07)
(0 0.00021169978 -8.4868879e-07)
(0 0.00018814771 -1.0180497e-06)
(0 0.00016172116 -1.229194e-06)
(0 0.00013300285 -1.3616946e-06)
(0 0.0001016517 -1.3203347e-06)
(0 6.8474519e-05 -1.2163842e-06)
(0 3.3386276e-05 -1.5786265e-06)
(0 -2.7496105e-06 -2.0169457e-06)
(0 -3.9290917e-05 -2.3668677e-06)
(0 -7.5381567e-05 -2.5492247e-06)
(0 -0.00010998381 -2.3207677e-06)
(0 -0.00014328222 -2.1873431e-06)
(0 -0.00017479563 -1.9916978e-06)
(0 -0.00020335257 -1.7947788e-06)
(0 -0.00022833256 -1.5166541e-06)
(0 -0.0002493207 -1.1644374e-06)
(0 -0.00026619119 -6.8533788e-07)
(0 -0.00027830721 -3.721029e-07)
(0 -0.00028553224 -1.5207764e-07)
(0 -0.00028770356 -2.7392574e-08)
(0 -0.0002848068 2.45248e-08)
(0 -0.0002768996 4.0529908e-08)
(0 -0.00026402331 6.5692616e-08)
(0 -0.00024644431 9.6057551e-08)
(0 -0.00022449045 1.3255313e-07)
(0 -0.00019859473 1.9653498e-07)
(0 -0.00016923363 1.6048429e-07)
(0 -0.00013691587 2.8690895e-07)
(0 -0.00010235745 3.5593383e-07)
(0 -6.6186391e-05 5.2176757e-07)
(0 -2.9285351e-05 8.6892931e-07)
(0 7.5419875e-06 1.3322431e-06)
(0 4.3816741e-05 1.7887618e-06)
(0 7.9598667e-05 2.3048355e-06)
(0 0.0001141182 2.4745673e-06)
(0 0.00014588863 2.2581844e-06)
(0 0.00017252955 2.1716094e-06)
(0 0.0001914191 1.7450423e-06)
(0 0.00019687013 1.2522264e-06)
(0 0.00017462974 6.7601749e-07)
(0 9.5941271e-05 2.6829325e-07)
(0 9.2066658e-05 -1.4927487e-05)
(0 0.00017917631 -2.9327397e-05)
(0 0.00021546461 -3.5739716e-05)
(0 0.00022668283 -3.8264159e-05)
(0 0.00022555033 -3.8581721e-05)
(0 0.00021709938 -3.773518e-05)
(0 0.00020370677 -3.5780249e-05)
(0 0.00018631886 -3.3294727e-05)
(0 0.00016589348 -3.0243969e-05)
(0 0.00014297692 -2.6748838e-05)
(0 0.00011807626 -2.275469e-05)
(0 9.0958345e-05 -1.8248971e-05)
(0 6.2004874e-05 -1.3419973e-05)
(0 3.134589e-05 -8.8141579e-06)
(0 -3.9770403e-07 -4.0781967e-06)
(0 -3.2621699e-05 8.5372297e-07)
(0 -6.4518682e-05 5.9085598e-06)
(0 -9.5091364e-05 1.1125883e-05)
(0 -0.00012446032 1.621703e-05)
(0 -0.00015225132 2.1088331e-05)
(0 -0.00017758352 2.5654358e-05)
(0 -0.00019981999 2.9900787e-05)
(0 -0.00021853025 3.3671964e-05)
(0 -0.00023352246 3.6846708e-05)
(0 -0.00024426509 3.9178123e-05)
(0 -0.00025074229 4.0751171e-05)
(0 -0.00025276795 4.1523126e-05)
(0 -0.00025033349 4.1497397e-05)
(0 -0.00024349795 4.071139e-05)
(0 -0.00023227813 3.9205892e-05)
(0 -0.00021691856 3.7016574e-05)
(0 -0.00019770367 3.4164389e-05)
(0 -0.0001750297 3.0687022e-05)
(0 -0.00014924073 2.6810798e-05)
(0 -0.00012085804 2.25351e-05)
(0 -9.0493265e-05 1.7875726e-05)
(0 -5.8726336e-05 1.3075579e-05)
(0 -2.6401545e-05 8.2163759e-06)
(0 5.7910583e-06 3.2571066e-06)
(0 3.747164e-05 -1.784049e-06)
(0 6.8759737e-05 -6.8991676e-06)
(0 9.9382243e-05 -1.1820345e-05)
(0 0.00012693513 -1.6581809e-05)
(0 0.00015016714 -2.0638181e-05)
(0 0.00016611001 -2.4051469e-05)
(0 0.00016970759 -2.5430041e-05)
(0 0.00014819612 -2.2881234e-05)
(0 7.7300186e-05 -1.2250552e-05)
(0 7.4313433e-05 -2.947546e-05)
(0 0.00014880422 -5.9121845e-05)
(0 0.00018056847 -7.2073831e-05)
(0 0.00019077476 -7.6635152e-05)
(0 0.00019022061 -7.6790588e-05)
(0 0.00018339029 -7.4535257e-05)
(0 0.00017225897 -7.0317913e-05)
(0 0.00015779222 -6.4798849e-05)
(0 0.00014078736 -5.8230847e-05)
(0 0.0001216764 -5.0719661e-05)
(0 0.0001009048 -4.2354529e-05)
(0 7.8398121e-05 -3.314921e-05)
(0 5.4221004e-05 -2.3397698e-05)
(0 2.8502271e-05 -1.3552881e-05)
(0 1.6931868e-06 -3.5081156e-06)
(0 -2.572998e-05 6.8587302e-06)
(0 -5.2900762e-05 1.7212735e-05)
(0 -7.8991667e-05 2.7360361e-05)
(0 -0.00010397956 3.7393701e-05)
(0 -0.00012771923 4.6938609e-05)
(0 -0.00014948796 5.5830971e-05)
(0 -0.00016864374 6.3988019e-05)
(0 -0.00018474688 7.1085811e-05)
(0 -0.00019764346 7.682478e-05)
(0 -0.00020691663 8.1006406e-05)
(0 -0.00021256578 8.374662e-05)
(0 -0.00021441414 8.4952055e-05)
(0 -0.00021246822 8.4594251e-05)
(0 -0.00020677082 8.2718132e-05)
(0 -0.0001973559 7.9346806e-05)
(0 -0.00018442229 7.4570074e-05)
(0 -0.00016820102 6.8442268e-05)
(0 -0.00014899709 6.1128403e-05)
(0 -0.00012723748 5.2771014e-05)
(0 -0.00010319017 4.3678552e-05)
(0 -7.7456117e-05 3.3888439e-05)
(0 -5.0532289e-05 2.3780567e-05)
(0 -2.3222136e-05 1.3373194e-05)
(0 3.8970122e-06 2.7310115e-06)
(0 3.0586309e-05 -8.0904819e-06)
(0 5.7064e-05 -1.8568448e-05)
(0 8.2851362e-05 -2.8776255e-05)
(0 0.00010616278 -3.8185692e-05)
(0 0.00012555867 -4.6184108e-05)
(0 0.00013884571 -5.2123874e-05)
(0 0.00014125321 -5.3848293e-05)
(0 0.00012211991 -4.7218043e-05)
(0 6.1801979e-05 -2.4269744e-05)
(0 5.84642e-05 -4.390825e-05)
(0 0.0001186116 -8.9148486e-05)
(0 0.00014467715 -0.00010879339)
(0 0.0001532856 -0.00011543389)
(0 0.00015316467 -0.00011531444)
(0 0.00014795698 -0.00011149647)
(0 0.00013920321 -0.00010483689)
(0 0.00012779328 -9.6146089e-05)
(0 0.00011434492 -8.5880575e-05)
(0 9.9227454e-05 -7.4235593e-05)
(0 8.2779457e-05 -6.1378631e-05)
(0 6.4977283e-05 -4.7324625e-05)
(0 4.5777949e-05 -3.2561981e-05)
(0 2.5283703e-05 -1.7439278e-05)
(0 3.7359615e-06 -1.7952607e-06)
(0 -1.8499732e-05 1.4083685e-05)
(0 -4.0555866e-05 2.9776283e-05)
(0 -6.1758755e-05 4.5049099e-05)
(0 -8.2018896e-05 5.9993758e-05)
(0 -0.00010138617 7.4206214e-05)
(0 -0.00011927433 8.7416105e-05)
(0 -0.0001350542 9.9382537e-05)
(0 -0.00014834522 0.00010966936)
(0 -0.00015897421 0.00011785503)
(0 -0.00016664147 0.00012380007)
(0 -0.0001713803 0.00012762667)
(0 -0.00017302485 0.00012916081)
(0 -0.00017159698 0.00012833486)
(0 -0.00016713729 0.00012521789)
(0 -0.00015967938 0.00011981569)
(0 -0.00014937485 0.0001122848)
(0 -0.00013640504 0.00010272044)
(0 -0.00012101712 9.1306545e-05)
(0 -0.00010345942 7.8510347e-05)
(0 -8.4106261e-05 6.4447991e-05)
(0 -6.3392964e-05 4.9370695e-05)
(0 -4.1793561e-05 3.3814407e-05)
(0 -1.9899812e-05 1.7729646e-05)
(0 1.8232855e-06 1.2775369e-06)
(0 2.3177453e-05 -1.5260126e-05)
(0 4.4300758e-05 -3.1580457e-05)
(0 6.5075049e-05 -4.7007785e-05)
(0 8.3887774e-05 -6.1148932e-05)
(0 9.9585592e-05 -7.2957599e-05)
(0 0.00011032326 -8.1375452e-05)
(0 0.00011216678 -8.3169706e-05)
(0 9.6616226e-05 -7.2068205e-05)
(0 4.8324452e-05 -3.6244182e-05)
(0 4.3593018e-05 -5.8818866e-05)
(0 8.8395997e-05 -0.00011941304)
(0 0.00010807844 -0.00014542831)
(0 0.00011480461 -0.00015388811)
(0 0.00011500253 -0.00015336867)
(0 0.00011136172 -0.0001479428)
(0 0.00010504634 -0.00013875982)
(0 9.6717661e-05 -0.00012684155)
(0 8.6908506e-05 -0.0001128762)
(0 7.5846311e-05 -9.7078061e-05)
(0 6.384388e-05 -7.9750812e-05)
(0 5.0997579e-05 -6.0907238e-05)
(0 3.6906718e-05 -4.1124262e-05)
(0 2.1788483e-05 -2.0540295e-05)
(0 5.6302705e-06 4.2524281e-07)
(0 -1.1183154e-05 2.1728581e-05)
(0 -2.7843998e-05 4.2756029e-05)
(0 -4.3913519e-05 6.3175895e-05)
(0 -5.9259505e-05 8.3008998e-05)
(0 -7.4080965e-05 0.00010176781)
(0 -8.7861295e-05 0.00011903771)
(0 -0.00010002391 0.00013459371)
(0 -0.0001102803 0.00014781616)
(0 -0.00011848322 0.00015830707)
(0 -0.00012444627 0.00016594467)
(0 -0.0001281915 0.00017078321)
(0 -0.00012959177 0.00017258574)
(0 -0.00012868343 0.00017125243)
(0 -0.00012550045 0.00016685293)
(0 -0.00012007417 0.00015941514)
(0 -0.0001125162 0.0001491358)
(0 -0.00010294789 0.00013615967)
(0 -9.1498897e-05 0.00012084553)
(0 -7.8505205e-05 0.00010346989)
(0 -6.4117647e-05 8.4456329e-05)
(0 -4.8723511e-05 6.4114928e-05)
(0 -3.2738965e-05 4.2991658e-05)
(0 -1.6497201e-05 2.1254157e-05)
(0 -3.9112561e-07 -8.8873447e-07)
(0 1.5468662e-05 -2.2973012e-05)
(0 3.1369386e-05 -4.4735807e-05)
(0 4.6750186e-05 -6.546819e-05)
(0 6.0901252e-05 -8.433636e-05)
(0 7.2789778e-05 -0.00010005984)
(0 8.108021e-05 -0.00011087913)
(0 8.2675029e-05 -0.00011284668)
(0 7.137317e-05 -9.7411443e-05)
(0 3.5875027e-05 -4.8749689e-05)
(0 2.9182012e-05 -7.4719929e-05)
(0 5.8375112e-05 -0.00014972403)
(0 7.1343609e-05 -0.00018140189)
(0 7.5960174e-05 -0.00019137378)
(0 7.6381461e-05 -0.00019030066)
(0 7.4247789e-05 -0.00018328108)
(0 7.0321592e-05 -0.00017161016)
(0 6.5055848e-05 -0.0001565405)
(0 5.8842718e-05 -0.00013897019)
(0 5.1853308e-05 -0.00011916182)
(0 4.4346549e-05 -9.7529839e-05)
(0 3.6226465e-05 -7.3957782e-05)
(0 2.743393e-05 -4.9174552e-05)
(0 1.765173e-05 -2.3563341e-05)
(0 7.029115e-06 2.7291157e-06)
(0 -4.2290361e-06 2.9246954e-05)
(0 -1.5400992e-05 5.5444859e-05)
(0 -2.6192875e-05 8.0879795e-05)
(0 -3.6726933e-05 0.00010531026)
(0 -4.6883843e-05 0.00012836728)
(0 -5.6399471e-05 0.00014954307)
(0 -6.4748482e-05 0.00016843923)
(0 -7.1793588e-05 0.00018442676)
(0 -7.7465597e-05 0.00019706674)
(0 -8.1601018e-05 0.00020624173)
(0 -8.4271199e-05 0.00021201943)
(0 -8.5360443e-05 0.00021402315)
(0 -8.4926666e-05 0.00021215995)
(0 -8.2993421e-05 0.00020649274)
(0 -7.9590311e-05 0.00019708494)
(0 -7.4781701e-05 0.00018415938)
(0 -6.864562e-05 0.00016794024)
(0 -6.1255568e-05 0.00014879191)
(0 -5.270715e-05 0.00012715996)
(0 -4.3323544e-05 0.00010341708)
(0 -3.3294272e-05 7.8033128e-05)
(0 -2.2896709e-05 5.1580477e-05)
(0 -1.2324386e-05 2.4429329e-05)
(0 -1.8268423e-06 -3.0957771e-06)
(0 8.4733284e-06 -3.0558245e-05)
(0 1.8518372e-05 -5.7693773e-05)
(0 2.8581545e-05 -8.3281848e-05)
(0 3.8050261e-05 -0.0001068854)
(0 4.5979257e-05 -0.00012639398)
(0 5.1800233e-05 -0.00013987551)
(0 5.3287863e-05 -0.00014237099)
(0 4.6514609e-05 -0.00012325321)
(0 2.3915557e-05 -6.2385606e-05)
(0 1.4695897e-05 -9.2393247e-05)
(0 2.8597687e-05 -0.00018005637)
(0 3.4992174e-05 -0.00021627214)
(0 3.7511897e-05 -0.00022725922)
(0 3.8074016e-05 -0.00022550861)
(0 3.7307409e-05 -0.00021692665)
(0 3.5637366e-05 -0.00020290586)
(0 3.3281727e-05 -0.0001849258)
(0 3.052204e-05 -0.00016395247)
(0 2.7438913e-05 -0.00014034828)
(0 2.4214637e-05 -0.00011453325)
(0 2.0800363e-05 -8.6427966e-05)
(0 1.6690094e-05 -5.7115613e-05)
(0 1.2121189e-05 -2.654357e-05)
(0 6.8806079e-06 4.6088205e-06)
(0 1.1081801e-06 3.6047817e-05)
(0 -4.6231916e-06 6.7091948e-05)
(0 -1.0234966e-05 9.7271986e-05)
(0 -1.5821056e-05 0.00012617048)
(0 -2.1252412e-05 0.00015330457)
(0 -2.6332036e-05 0.00017804363)
(0 -3.0754358e-05 0.00020003743)
(0 -3.4497849e-05 0.00021856082)
(0 -3.7532584e-05 0.00023317981)
(0 -3.9756481e-05 0.00024378755)
(0 -4.1226778e-05 0.000250363)
(0 -4.1888138e-05 0.00025250078)
(0 -4.1794883e-05 0.00025010932)
(0 -4.0968628e-05 0.00024324133)
(0 -3.9427479e-05 0.00023199567)
(0 -3.7202729e-05 0.00021661492)
(0 -3.4319672e-05 0.00019737593)
(0 -3.0771571e-05 0.00017472134)
(0 -2.6726461e-05 0.00014913852)
(0 -2.2225836e-05 0.0001210165)
(0 -1.7426968e-05 9.0954628e-05)
(0 -1.2463379e-05 5.9577108e-05)
(0 -7.4184752e-06 2.7407415e-05)
(0 -2.4247632e-06 -5.1125398e-06)
(0 2.5473936e-06 -3.758059e-05)
(0 7.1500051e-06 -6.9582506e-05)
(0 1.1993643e-05 -9.9909002e-05)
(0 1.6626708e-05 -0.0001276445)
(0 2.0602059e-05 -0.0001510686)
(0 2.3712557e-05 -0.00016738899)
(0 2.4836858e-05 -0.00017103998)
(0 2.2151841e-05 -0.00014942474)
(0 1.1972747e-05 -7.776444e-05)
(0 -3.6742698e-07 -0.00011281597)
(0 -8.8498581e-07 -0.00020965946)
(0 -8.0370931e-07 -0.00024866622)
(0 -5.0865346e-07 -0.00025993214)
(0 -1.0314024e-07 -0.00025732563)
(0 1.753277e-07 -0.00024714952)
(0 3.9202551e-07 -0.00023109991)
(0 6.0445039e-07 -0.00021056663)
(0 9.4128417e-07 -0.0001865735)
(0 1.4277138e-06 -0.0001595492)
(0 2.1551329e-06 -0.00012992397)
(0 2.9434491e-06 -9.7719814e-05)
(0 3.5618237e-06 -6.40074e-05)
(0 3.9856448e-06 -2.9093665e-05)
(0 3.9323641e-06 6.5285725e-06)
(0 3.5586437e-06 4.23957e-05)
(0 3.1740157e-06 7.7829895e-05)
(0 2.7590594e-06 0.00011234291)
(0 2.2420789e-06 0.0001453764)
(0 1.6849649e-06 0.00017626106)
(0 1.0781622e-06 0.00020423496)
(0 6.2295317e-07 0.00022898882)
(0 2.4300238e-07 0.00024981985)
(0 -4.7080924e-08 0.00026626328)
(0 -2.1335338e-07 0.00027816497)
(0 -2.82003e-07 0.00028540024)
(0 -2.8850064e-07 0.00028760843)
(0 -2.7992419e-07 0.00028469631)
(0 -2.6981769e-07 0.00027670423)
(0 -2.6568445e-07 0.00026376041)
(0 -2.6512733e-07 0.00024612095)
(0 -2.5834714e-07 0.00022411836)
(0 -2.312342e-07 0.00019822696)
(0 -1.6519258e-07 0.00016891672)
(0 -1.4504693e-07 0.00013675944)
(0 -1.7761773e-07 0.0001023838)
(0 -2.7985993e-07 6.6473918e-05)
(0 -4.3934017e-07 2.9677757e-05)
(0 -6.6531425e-07 -7.4331273e-06)
(0 -8.9993664e-07 -4.4326631e-05)
(0 -1.3390268e-06 -8.0560462e-05)
(0 -1.5044544e-06 -0.00011473876)
(0 -1.5001827e-06 -0.00014629183)
(0 -1.7358486e-06 -0.00017317573)
(0 -1.66481e-06 -0.0001924739)
(0 -1.5039435e-06 -0.00019795733)
(0 -1.146426e-06 -0.00017556775)
(0 -4.3327522e-07 -9.6206578e-05)
(0 9.2180052e-05 1.5394648e-05)
(0 0.0001792842 2.9905016e-05)
(0 0.00021551175 3.5972616e-05)
(0 0.00022666984 3.7764759e-05)
(0 0.0002255547 3.7585673e-05)
(0 0.00021707473 3.6164592e-05)
(0 0.00020375767 3.4220127e-05)
(0 0.00018636118 3.1439472e-05)
(0 0.00016593127 2.805421e-05)
(0 0.00014300469 2.4134961e-05)
(0 0.00011813086 1.9805975e-05)
(0 9.1011033e-05 1.5279847e-05)
(0 6.2151527e-05 1.0446537e-05)
(0 3.1526232e-05 4.8974293e-06)
(0 -1.836958e-07 -8.4605462e-07)
(0 -3.2425691e-05 -6.4696124e-06)
(0 -6.4362156e-05 -1.191281e-05)
(0 -9.5024448e-05 -1.6990827e-05)
(0 -0.00012449191 -2.1658824e-05)
(0 -0.00015228019 -2.5937092e-05)
(0 -0.00017759503 -2.9926769e-05)
(0 -0.00019982873 -3.3332676e-05)
(0 -0.00021858785 -3.6125093e-05)
(0 -0.00023359644 -3.8173194e-05)
(0 -0.00024435056 -3.9846259e-05)
(0 -0.00025079196 -4.0985385e-05)
(0 -0.00025278564 -4.1543459e-05)
(0 -0.00025033201 -4.1441901e-05)
(0 -0.00024348631 -4.0645644e-05)
(0 -0.00023225131 -3.9115428e-05)
(0 -0.00021687272 -3.6892221e-05)
(0 -0.00019763374 -3.4027075e-05)
(0 -0.00017490802 -3.0610485e-05)
(0 -0.00014916862 -2.6529709e-05)
(0 -0.00012078663 -2.1899574e-05)
(0 -9.0481494e-05 -1.6895038e-05)
(0 -5.8785725e-05 -1.1455766e-05)
(0 -2.6462188e-05 -5.7101052e-06)
(0 5.7598815e-06 1.5971491e-07)
(0 3.7528797e-05 5.9956494e-06)
(0 6.8792319e-05 1.1771381e-05)
(0 9.9339838e-05 1.6790894e-05)
(0 0.00012711017 2.1220983e-05)
(0 0.00015040219 2.5237153e-05)
(0 0.00016626351 2.7704877e-05)
(0 0.00016977759 2.8144939e-05)
(0 0.00014820525 2.4418559e-05)
(0 7.7382128e-05 1.2888046e-05)
(0 7.3419724e-05 1.9653383e-07)
(0 0.00014981153 1.9610979e-07)
(0 0.00018271348 1.1458592e-09)
(0 0.0001933634 -3.469661e-07)
(0 0.00019296878 -6.2375732e-07)
(0 0.00018606193 -9.4638337e-07)
(0 0.00017483038 -9.5924044e-07)
(0 0.00016010558 -1.0619736e-06)
(0 0.0001428227 -1.2242354e-06)
(0 0.00012342192 -1.4211952e-06)
(0 0.00010244408 -1.6058528e-06)
(0 7.9593681e-05 -1.6641679e-06)
(0 5.518991e-05 -1.8273158e-06)
(0 2.9172829e-05 -2.3931676e-06)
(0 2.0799177e-06 -3.0302652e-06)
(0 -2.569273e-05 -3.3795796e-06)
(0 -5.3242779e-05 -3.6292716e-06)
(0 -7.9610331e-05 -3.6616566e-06)
(0 -0.00010490952 -3.3195684e-06)
(0 -0.00012881681 -2.9378928e-06)
(0 -0.00015071811 -2.5483495e-06)
(0 -0.00017003559 -1.9668207e-06)
(0 -0.00018632894 -1.2749184e-06)
(0 -0.0001993435 -5.9171971e-07)
(0 -0.00020863506 -2.0230435e-07)
(0 -0.00021424574 1.9693842e-08)
(0 -0.00021604432 1.1995838e-07)
(0 -0.00021404722 1.478484e-07)
(0 -0.00020830968 1.443444e-07)
(0 -0.00019881225 1.4178854e-07)
(0 -0.00018576994 1.3465239e-07)
(0 -0.00016941645 1.024957e-07)
(0 -0.00015008053 2.3220393e-08)
(0 -0.00012809343 6.802483e-08)
(0 -0.00010384641 2.8636466e-07)
(0 -7.7933822e-05 5.3794168e-07)
(0 -5.0836197e-05 1.0284747e-06)
(0 -2.3279289e-05 1.5618096e-06)
(0 4.1092856e-06 2.031838e-06)
(0 3.1056423e-05 2.4266429e-06)
(0 5.7713208e-05 2.757325e-06)
(0 8.4006435e-05 2.7581556e-06)
(0 0.00010780044 2.5492395e-06)
(0 0.00012749241 2.5454882e-06)
(0 0.00014060302 2.0791209e-06)
(0 0.00014256491 1.5661245e-06)
(0 0.00012233741 8.8397278e-07)
(0 6.0512888e-05 3.5182533e-07)
(0 5.6991657e-05 -1.4126258e-05)
(0 0.00011985017 -2.9828173e-05)
(0 0.00014759143 -3.6961797e-05)
(0 0.00015687242 -3.9651353e-05)
(0 0.00015692373 -3.9902978e-05)
(0 0.00015160436 -3.8872579e-05)
(0 0.00014265345 -3.6639183e-05)
(0 0.00013088836 -3.3739488e-05)
(0 0.00011707903 -3.0368246e-05)
(0 0.00010156903 -2.6528576e-05)
(0 8.4815576e-05 -2.2305775e-05)
(0 6.6694635e-05 -1.762843e-05)
(0 4.7112117e-05 -1.2707689e-05)
(0 2.6194186e-05 -8.0542285e-06)
(0 4.1526004e-06 -3.1652768e-06)
(0 -1.8685729e-05 1.9403573e-06)
(0 -4.1372751e-05 7.0214115e-06)
(0 -6.3188212e-05 1.2100331e-05)
(0 -8.3987534e-05 1.7365032e-05)
(0 -0.00010374224 2.2492251e-05)
(0 -0.00012200616 2.7314633e-05)
(0 -0.00013816167 3.1910124e-05)
(0 -0.00015178463 3.6063525e-05)
(0 -0.00016264391 3.9410105e-05)
(0 -0.00017040634 4.1756632e-05)
(0 -0.00017513036 4.3262545e-05)
(0 -0.00017671012 4.391078e-05)
(0 -0.0001751792 4.3708985e-05)
(0 -0.00017058476 4.2729233e-05)
(0 -0.0001629177 4.0953826e-05)
(0 -0.0001523427 3.8451278e-05)
(0 -0.0001390425 3.521872e-05)
(0 -0.00012326248 3.1277601e-05)
(0 -0.00010531171 2.6970678e-05)
(0 -8.5485747e-05 2.2403622e-05)
(0 -6.4285791e-05 1.7535547e-05)
(0 -4.2155925e-05 1.2847614e-05)
(0 -1.9741031e-05 7.8156381e-06)
(0 2.4404023e-06 2.5398467e-06)
(0 2.4160436e-05 -2.8229708e-06)
(0 4.5840727e-05 -8.2668487e-06)
(0 6.7300286e-05 -1.3624839e-05)
(0 8.6684033e-05 -1.8622735e-05)
(0 0.00010268473 -2.2711131e-05)
(0 0.00011317916 -2.5879937e-05)
(0 0.00011425307 -2.6736912e-05)
(0 9.6975937e-05 -2.3212761e-05)
(0 4.6435727e-05 -1.1294949e-05)
(0 4.2067805e-05 -2.8242494e-05)
(0 8.9685958e-05 -6.028877e-05)
(0 0.00011113914 -7.4622284e-05)
(0 0.00011855535 -7.9613252e-05)
(0 0.00011891527 -7.9712627e-05)
(0 0.00011517391 -7.7199342e-05)
(0 0.00010860572 -7.254142e-05)
(0 9.9923228e-05 -6.644309e-05)
(0 8.9736048e-05 -5.9322612e-05)
(0 7.8288078e-05 -5.1264317e-05)
(0 6.5975235e-05 -4.245111e-05)
(0 5.2710139e-05 -3.2835845e-05)
(0 3.8218149e-05 -2.2875969e-05)
(0 2.2636527e-05 -1.2621966e-05)
(0 5.9610703e-06 -2.1928843e-06)
(0 -1.1568211e-05 8.5544131e-06)
(0 -2.9001418e-05 1.9136662e-05)
(0 -4.575322e-05 2.9452652e-05)
(0 -6.166157e-05 3.9888907e-05)
(0 -7.7007945e-05 4.9844558e-05)
(0 -9.1322241e-05 5.9072608e-05)
(0 -0.00010399426 6.7615897e-05)
(0 -0.00011467449 7.5060795e-05)
(0 -0.00012317311 8.0973082e-05)
(0 -0.00012924394 8.5215889e-05)
(0 -0.00013296972 8.7942717e-05)
(0 -0.00013426271 8.904923e-05)
(0 -0.00013318881 8.8502328e-05)
(0 -0.00012978537 8.637672e-05)
(0 -0.0001240548 8.265669e-05)
(0 -0.0001161115 7.7462787e-05)
(0 -0.00010607742 7.0819347e-05)
(0 -9.4092059e-05 6.2910479e-05)
(0 -8.0452878e-05 5.4052075e-05)
(0 -6.5403244e-05 4.4454158e-05)
(0 -4.9340168e-05 3.4240897e-05)
(0 -3.268764e-05 2.3831157e-05)
(0 -1.5824966e-05 1.2973025e-05)
(0 7.6506213e-07 1.7994696e-06)
(0 1.6950421e-05 -9.3842622e-06)
(0 3.3235381e-05 -2.062432e-05)
(0 4.942156e-05 -3.148293e-05)
(0 6.422532e-05 -4.1450892e-05)
(0 7.6339142e-05 -4.9515384e-05)
(0 8.4403893e-05 -5.5234116e-05)
(0 8.5140482e-05 -5.6145374e-05)
(0 7.1913413e-05 -4.7894189e-05)
(0 3.396239e-05 -2.2749038e-05)
(0 2.7785815e-05 -4.2561704e-05)
(0 5.9305044e-05 -9.076286e-05)
(0 7.3729969e-05 -0.0001120801)
(0 7.8893317e-05 -0.00011925749)
(0 7.9402876e-05 -0.00011910685)
(0 7.7198632e-05 -0.00011502616)
(0 7.3094549e-05 -0.00010783913)
(0 6.7554624e-05 -9.8495649e-05)
(0 6.1065133e-05 -8.761508e-05)
(0 5.3782394e-05 -7.5336029e-05)
(0 4.6024919e-05 -6.1918539e-05)
(0 3.7762549e-05 -4.7400388e-05)
(0 2.864462e-05 -3.2160899e-05)
(0 1.8617676e-05 -1.6419473e-05)
(0 7.4878813e-06 -3.6097818e-07)
(0 -4.4808342e-06 1.5954479e-05)
(0 -1.6331119e-05 3.202481e-05)
(0 -2.7727766e-05 4.772882e-05)
(0 -3.8580014e-05 6.3128912e-05)
(0 -4.92529e-05 7.7774369e-05)
(0 -5.938818e-05 9.1260591e-05)
(0 -6.8306759e-05 0.00010353331)
(0 -7.5839457e-05 0.00011407525)
(0 -8.1792051e-05 0.00012240723)
(0 -8.6023028e-05 0.00012843124)
(0 -8.8638341e-05 0.00013229783)
(0 -8.957781e-05 0.00013376947)
(0 -8.8934362e-05 0.00013278652)
(0 -8.6740134e-05 0.00012942518)
(0 -8.3003951e-05 0.00012369065)
(0 -7.7791522e-05 0.0001157462)
(0 -7.1162141e-05 0.00010568866)
(0 -6.3174248e-05 9.378844e-05)
(0 -5.4088727e-05 8.0389725e-05)
(0 -4.4081788e-05 6.5743432e-05)
(0 -3.3461147e-05 5.0101113e-05)
(0 -2.2515477e-05 3.3913523e-05)
(0 -1.1459771e-05 1.7218077e-05)
(0 -6.7904296e-07 2.2989281e-07)
(0 9.7715315e-06 -1.6767346e-05)
(0 2.0349782e-05 -3.3645644e-05)
(0 3.097672e-05 -4.9983191e-05)
(0 4.0930364e-05 -6.4783694e-05)
(0 4.9140049e-05 -7.6894638e-05)
(0 5.4779521e-05 -8.5117826e-05)
(0 5.5469031e-05 -8.6058969e-05)
(0 4.6981595e-05 -7.303533e-05)
(0 2.2251388e-05 -3.4586986e-05)
(0 1.3692261e-05 -5.7526328e-05)
(0 2.8833321e-05 -0.00012097101)
(0 3.6053069e-05 -0.00014856964)
(0 3.886927e-05 -0.00015756508)
(0 3.9480299e-05 -0.00015701026)
(0 3.8746717e-05 -0.00015136151)
(0 3.7040621e-05 -0.00014165178)
(0 3.4595817e-05 -0.00012914641)
(0 3.1779052e-05 -0.00011459062)
(0 2.8647806e-05 -9.8212912e-05)
(0 2.5476305e-05 -8.0338122e-05)
(0 2.2183244e-05 -6.0997176e-05)
(0 1.8175763e-05 -4.0843114e-05)
(0 1.3533104e-05 -1.982527e-05)
(0 8.067366e-06 1.5689795e-06)
(0 1.7982215e-06 2.3244391e-05)
(0 -4.3967043e-06 4.4633408e-05)
(0 -1.0365456e-05 6.5525792e-05)
(0 -1.6232104e-05 8.5691601e-05)
(0 -2.2137323e-05 0.00010475928)
(0 -2.7844645e-05 0.00012220205)
(0 -3.2808561e-05 0.00013795537)
(0 -3.6960213e-05 0.00015136125)
(0 -4.0233867e-05 0.00016194746)
(0 -4.25148e-05 0.00016964263)
(0 -4.391088e-05 0.00017452495)
(0 -4.441213e-05 0.00017628388)
(0 -4.4123127e-05 0.00017483804)
(0 -4.3073179e-05 0.00017025422)
(0 -4.1271791e-05 0.00016257228)
(0 -3.8745538e-05 0.00015198489)
(0 -3.550028e-05 0.00013865677)
(0 -3.152788e-05 0.00012295715)
(0 -2.7016086e-05 0.00010521831)
(0 -2.2073583e-05 8.5744591e-05)
(0 -1.6891539e-05 6.4933586e-05)
(0 -1.1651818e-05 4.3262156e-05)
(0 -6.3902433e-06 2.1027912e-05)
(0 -1.4033535e-06 -1.511405e-06)
(0 3.3232784e-06 -2.4001967e-05)
(0 7.9592452e-06 -4.6517278e-05)
(0 1.3042981e-05 -6.8125554e-05)
(0 1.7939905e-05 -8.7664992e-05)
(0 2.2165048e-05 -0.00010366895)
(0 2.5237336e-05 -0.00011443308)
(0 2.5888326e-05 -0.00011564191)
(0 2.2156908e-05 -9.8383045e-05)
(0 1.0786816e-05 -4.7088447e-05)
(0 -5.5564322e-07 -7.3853237e-05)
(0 -1.1684584e-06 -0.00015089086)
(0 -9.3136714e-07 -0.00018367514)
(0 -4.7354765e-07 -0.00019401793)
(0 1.3223267e-07 -0.00019294239)
(0 6.9885369e-07 -0.00018574497)
(0 1.2352499e-06 -0.00017371392)
(0 1.7037023e-06 -0.00015827771)
(0 2.3509924e-06 -0.00014028085)
(0 3.1606731e-06 -0.00012003842)
(0 4.3242193e-06 -9.7913736e-05)
(0 5.6338454e-06 -7.4000459e-05)
(0 6.5358218e-06 -4.913905e-05)
(0 7.2908418e-06 -2.3108072e-05)
(0 7.1259807e-06 3.3183636e-06)
(0 6.4163566e-06 3.0017187e-05)
(0 5.7668398e-06 5.6419307e-05)
(0 5.1077313e-06 8.2202897e-05)
(0 4.3694622e-06 0.00010695241)
(0 3.3016791e-06 0.00013014981)
(0 1.9884167e-06 0.00015121518)
(0 1.0658135e-06 0.00017013516)
(0 3.24063e-07 0.00018618705)
(0 -2.0931942e-07 0.00019885563)
(0 -4.7376054e-07 0.00020804152)
(0 -5.6456517e-07 0.0002137971)
(0 -5.3928579e-07 0.0002157427)
(0 -4.9746689e-07 0.00021380021)
(0 -4.6245249e-07 0.00020802403)
(0 -4.3923265e-07 0.00019849189)
(0 -4.1840439e-07 0.00018541459)
(0 -3.7424988e-07 0.00016903183)
(0 -2.5712004e-07 0.00014974957)
(0 -6.3956523e-08 0.00012788929)
(0 3.6042091e-08 0.00010391762)
(0 1.3602633e-08 7.8295763e-05)
(0 -1.6202721e-07 5.1558113e-05)
(0 -4.6241003e-07 2.4163668e-05)
(0 -1.0013477e-06 -3.5330424e-06)
(0 -1.870126e-06 -3.1097214e-05)
(0 -2.9219695e-06 -5.8737659e-05)
(0 -3.3509459e-06 -8.5031573e-05)
(0 -3.2270324e-06 -0.00010892465)
(0 -3.2081737e-06 -0.00012870936)
(0 -2.8704588e-06 -0.00014219432)
(0 -2.5487143e-06 -0.0001442436)
(0 -1.9791471e-06 -0.00012387168)
(0 -8.263115e-07 -6.113903e-05)
(0 -1.5646871e-05 -9.2351067e-05)
(0 -3.0657075e-05 -0.00017997479)
(0 -3.6758217e-05 -0.00021623155)
(0 -3.855946e-05 -0.00022722403)
(0 -3.8132035e-05 -0.00022548406)
(0 -3.6548617e-05 -0.00021680193)
(0 -3.4163509e-05 -0.0002028121)
(0 -3.1143963e-05 -0.00018489864)
(0 -2.7427289e-05 -0.00016390698)
(0 -2.3072063e-05 -0.00014024884)
(0 -1.8008535e-05 -0.000114279)
(0 -1.2452538e-05 -8.6209841e-05)
(0 -6.8267903e-06 -5.6860277e-05)
(0 -1.3866354e-06 -2.6385044e-05)
(0 3.8689712e-06 4.8701036e-06)
(0 8.6261208e-06 3.6285017e-05)
(0 1.3321246e-05 6.7313431e-05)
(0 1.7922804e-05 9.7650097e-05)
(0 2.2185462e-05 0.00012665179)
(0 2.6013681e-05 0.00015378)
(0 2.9313269e-05 0.0001784103)
(0 3.2420149e-05 0.00020031869)
(0 3.5128655e-05 0.00021885371)
(0 3.7391166e-05 0.00023350209)
(0 3.922278e-05 0.0002440995)
(0 4.0525652e-05 0.00025061174)
(0 4.1202208e-05 0.00025266903)
(0 4.1159009e-05 0.00025019983)
(0 4.0374692e-05 0.00024325014)
(0 3.8858973e-05 0.00023193004)
(0 3.6646263e-05 0.00021647092)
(0 3.3798085e-05 0.00019716913)
(0 3.04211e-05 0.0001744397)
(0 2.6493566e-05 0.00014875158)
(0 2.2091879e-05 0.00012054115)
(0 1.7227778e-05 9.0398676e-05)
(0 1.1980496e-05 5.8935348e-05)
(0 6.4745213e-06 2.6720095e-05)
(0 7.1389691e-07 -5.7404608e-06)
(0 -5.3435858e-06 -3.802477e-05)
(0 -1.1292791e-05 -6.9937142e-05)
(0 -1.664589e-05 -0.00010030726)
(0 -2.1349637e-05 -0.00012789025)
(0 -2.5417163e-05 -0.000151165)
(0 -2.8165713e-05 -0.00016742044)
(0 -2.8813054e-05 -0.00017096295)
(0 -2.5234347e-05 -0.00014922889)
(0 -1.3217401e-05 -7.7624646e-05)
(0 7.4549277e-05 2.9894456e-05)
(0 0.00014908077 5.9650047e-05)
(0 0.00018072236 7.2308886e-05)
(0 0.00019080315 7.6316395e-05)
(0 0.00019027563 7.5972908e-05)
(0 0.00018341616 7.3101873e-05)
(0 0.00017244597 6.8866938e-05)
(0 0.00015796709 6.3222746e-05)
(0 0.00014096013 5.6335143e-05)
(0 0.000121818 4.8478903e-05)
(0 0.00010108299 3.973419e-05)
(0 7.8427098e-05 3.0358825e-05)
(0 5.4354317e-05 2.0263971e-05)
(0 2.8674351e-05 9.3616664e-06)
(0 1.9599257e-06 -1.8775502e-06)
(0 -2.5451529e-05 -1.2946898e-05)
(0 -5.2806936e-05 -2.3891569e-05)
(0 -7.9120289e-05 -3.441823e-05)
(0 -0.00010432441 -4.3879242e-05)
(0 -0.00012794342 -5.2683451e-05)
(0 -0.00014958341 -6.0831052e-05)
(0 -0.00016876094 -6.7892177e-05)
(0 -0.00018500139 -7.3668553e-05)
(0 -0.00019796035 -7.8227917e-05)
(0 -0.0002071912 -8.1724986e-05)
(0 -0.00021274174 -8.4101205e-05)
(0 -0.00021451382 -8.5136593e-05)
(0 -0.00021251673 -8.4724451e-05)
(0 -0.00020680389 -8.284268e-05)
(0 -0.0001973493 -7.946124e-05)
(0 -0.00018436649 -7.4679089e-05)
(0 -0.00016809835 -6.8591105e-05)
(0 -0.00014888968 -6.1321452e-05)
(0 -0.00012697752 -5.2950808e-05)
(0 -0.00010290469 -4.3410272e-05)
(0 -7.7218372e-05 -3.3082624e-05)
(0 -5.0409622e-05 -2.2012975e-05)
(0 -2.306199e-05 -1.0583682e-05)
(0 4.169959e-06 9.6278626e-07)
(0 3.0873907e-05 1.2447125e-05)
(0 5.7383933e-05 2.3516367e-05)
(0 8.2940548e-05 3.396392e-05)
(0 0.00010657346 4.2971318e-05)
(0 0.00012613041 5.0845244e-05)
(0 0.00013917959 5.6027083e-05)
(0 0.00014143043 5.683324e-05)
(0 0.0001221933 4.8954055e-05)
(0 6.1973197e-05 2.4947026e-05)
(0 5.7106986e-05 1.4492621e-05)
(0 0.00011996997 3.0303174e-05)
(0 0.00014764785 3.7090399e-05)
(0 0.00015687582 3.9119349e-05)
(0 0.00015692203 3.8795414e-05)
(0 0.00015158029 3.7107058e-05)
(0 0.00014269772 3.4852579e-05)
(0 0.00013092651 3.1868308e-05)
(0 0.00011711699 2.8174439e-05)
(0 0.00010157454 2.3994338e-05)
(0 8.4834439e-05 1.9302326e-05)
(0 6.6616763e-05 1.4316402e-05)
(0 4.702884e-05 8.9797172e-06)
(0 2.6139399e-05 2.8915254e-06)
(0 4.1762614e-06 -3.2712653e-06)
(0 -1.860071e-05 -9.2324108e-06)
(0 -4.1381318e-05 -1.5109934e-05)
(0 -6.3362289e-05 -2.0600315e-05)
(0 -8.4312507e-05 -2.5232234e-05)
(0 -0.00010397745 -2.9412264e-05)
(0 -0.00012214253 -3.3283869e-05)
(0 -0.00013829964 -3.6464871e-05)
(0 -0.000151993 -3.8870282e-05)
(0 -0.00016285735 -4.072129e-05)
(0 -0.00017058549 -4.2243676e-05)
(0 -0.00017523375 -4.333994e-05)
(0 -0.00017675204 -4.3828233e-05)
(0 -0.00017517696 -4.3613043e-05)
(0 -0.00017055588 -4.2637429e-05)
(0 -0.00016285185 -4.0904011e-05)
(0 -0.0001522384 -3.8452877e-05)
(0 -0.00013890333 -3.5354314e-05)
(0 -0.0001231258 -3.1750457e-05)
(0 -0.00010512514 -2.7391917e-05)
(0 -8.5293702e-05 -2.2289857e-05)
(0 -6.4134457e-05 -1.6723335e-05)
(0 -4.2025382e-05 -1.0434423e-05)
(0 -1.9571529e-05 -4.1577968e-06)
(0 2.6758948e-06 2.0946237e-06)
(0 2.4428595e-05 8.3420886e-06)
(0 4.6127069e-05 1.4155705e-05)
(0 6.7430419e-05 1.9528301e-05)
(0 8.695884e-05 2.407731e-05)
(0 0.00010301264 2.8062962e-05)
(0 0.00011335585 3.0342356e-05)
(0 0.00011432586 3.0228778e-05)
(0 9.6994992e-05 2.5296057e-05)
(0 4.6522785e-05 1.2089663e-05)
(0 4.1639889e-05 1.1897672e-07)
(0 9.0179168e-05 9.2502676e-08)
(0 0.00011214875 -6.0452211e-08)
(0 0.00011972573 -3.2782415e-07)
(0 0.00012011854 -5.8483632e-07)
(0 0.00011632744 -9.3525512e-07)
(0 0.00010974209 -9.4943762e-07)
(0 0.00010095521 -9.0094341e-07)
(0 9.0673675e-05 -1.0199053e-06)
(0 7.9097045e-05 -1.1323138e-06)
(0 6.6694099e-05 -1.3900311e-06)
(0 5.3235349e-05 -1.5722983e-06)
(0 3.8704105e-05 -2.0662462e-06)
(0 2.3008275e-05 -2.7724457e-06)
(0 6.2795626e-06 -3.5941841e-06)
(0 -1.1508344e-05 -4.0411544e-06)
(0 -2.932806e-05 -4.5548463e-06)
(0 -4.6533414e-05 -4.9144657e-06)
(0 -6.2881836e-05 -4.4625719e-06)
(0 -7.845205e-05 -3.8413972e-06)
(0 -9.2927427e-05 -3.2913252e-06)
(0 -0.00010582157 -2.4419417e-06)
(0 -0.00011673443 -1.4306991e-06)
(0 -0.00012540071 -6.0523006e-07)