/*--------------------------------*- C++ -*----------------------------------*\
| =========                 |                                                 |
| \\      /  F ield         | OpenFOAM: The Open Source CFD Toolbox           |
|  \\    /   O peration     | Version:  4.1                                   |
|   \\  /    A nd           | Web:      www.OpenFOAM.org                      |
|    \\/     M anipulation  |                                                 |
\*---------------------------------------------------------------------------*/
FoamFile
{
    version     2.0;
    format      ascii;
    class       volScalarField;
    location    "0.000040";
    object      nut;
}
// * * * * * * * * * * * * * * * * * * * * * * * * * * * * * * * * * * * * * //

dimensions      [0 2 -1 0 0 0 0];

internalField   nonuniform List<scalar> 
6144
(
0.0009262609
0.00099503735
0.0010152894
0.0010197862
0.0010051719
0.00098122407
0.00094366637
0.00089304289
0.00084047536
0.0007752044
0.00071150613
0.00065663186
0.00061126074
0.00057498882
0.00054696999
0.00052614294
0.00051154127
0.00050252557
0.00049859419
0.00049937844
0.00050475908
0.00051372425
0.00049681603
0.00047749644
0.00046437068
0.00045765444
0.00045732944
0.00046296387
0.00046804368
0.00047637993
0.00048713092
0.00049713397
0.00051190848
0.00052647248
0.00054049362
0.00055818901
0.00057984296
0.00060562786
0.00063581107
0.00067092958
0.00071163917
0.00075833502
0.00081097274
0.00086731586
0.00092167699
0.00096270353
0.00096776211
0.00091413821
0.00090974366
0.00098149618
0.0010055872
0.0010110919
0.0010035736
0.0009886164
0.00096545596
0.00093337698
0.00089783416
0.00085253786
0.00080418873
0.00075897053
0.00071886461
0.00068482576
0.00065701001
0.00063510155
0.00061855698
0.00060694002
0.00059983767
0.0005968376
0.00059770624
0.00060155966
0.00058937594
0.00057165421
0.00055878169
0.00055150178
0.00055005642
0.0005540766
0.00055838326
0.00056615223
0.00057684886
0.00058741084
0.00060086801
0.00061746553
0.00063225164
0.00065037908
0.00067195704
0.00069682739
0.00072496928
0.00075651071
0.00079127769
0.00082872618
0.00086813599
0.00090713316
0.00094111082
0.00096235072
0.00095689176
0.00089850712
0.00090630603
0.00098035445
0.0010076295
0.0010141395
0.0010071342
0.00099266202
0.00097069036
0.00094118699
0.00090863616
0.00086766878
0.00082317416
0.00078082595
0.00074261082
0.00070970311
0.00068224196
0.00066000739
0.00064262998
0.0006297376
0.00062103063
0.00061616595
0.00061477307
0.00061642181
0.00061135769
0.00059588895
0.00058457582
0.00057823018
0.00057717377
0.00058119011
0.00058595197
0.00059412271
0.00060533484
0.00061639431
0.00063084185
0.00064831088
0.00066375269
0.00068196762
0.00070331719
0.00072749276
0.00075442743
0.00078424071
0.00081664989
0.00085072441
0.00088570554
0.00091961152
0.00094840671
0.00096490136
0.00095625858
0.00089519244
0.00090548554
0.00098094712
0.0010102772
0.0010178521
0.0010114424
0.0009973397
0.00097571408
0.00094682111
0.00091488303
0.00087520654
0.0008305533
0.00078762523
0.00074855322
0.0007146331
0.00068605987
0.00066259108
0.0006440028
0.00063003959
0.00062044616
0.00061485966
0.00061282721
0.00061428424
0.00061639013
0.00060284231
0.00059215991
0.0005859773
0.00058478094
0.00058844495
0.00059298943
0.00060094492
0.00061202251
0.00062318826
0.00063780497
0.00065553371
0.00067141777
0.00068958039
0.00071091098
0.00073498956
0.00076166909
0.00079121443
0.00082313984
0.00085640093
0.00089019087
0.0009226421
0.00094994451
0.00096504315
0.00095506382
0.00089423581
0.00090556549
0.00098126098
0.0010110563
0.0010191591
0.0010131298
0.00099925049
0.00097763218
0.00094863411
0.00091647568
0.00087777035
0.00083123886
0.00078626227
0.00074533427
0.00070975948
0.00067976056
0.00065515127
0.00063573928
0.00062131083
0.00061157844
0.00060608837
0.00060441138
0.00060633643
0.000610862
0.00060383589
0.0005931164
0.00058646146
0.00058485792
0.00058814867
0.00059232371
0.00059998829
0.00061082747
0.00062197255
0.00063674411
0.00065479866
0.00067110981
0.00068880514
0.00070958666
0.00073310378
0.00075917863
0.00078817287
0.00081944336
0.00085198962
0.00088515389
0.00091724274
0.00094459657
0.00096040348
0.0009521372
0.00089381225
0.00090646154
0.00098097159
0.0010091873
0.0010167152
0.0010104231
0.00099632629
0.00097432037
0.00094454908
0.00091157484
0.00087415249
0.00082464425
0.00077657424
0.00073308551
0.00069552522
0.00066397292
0.00063830254
0.0006183001
0.00060367474
0.00059410331
0.00058907626
0.00058811274
0.00059089375
0.00059684768
0.00059754545
0.00058664336
0.0005795889
0.00057759256
0.00058069228
0.00058462954
0.0005922694
0.00060305637
0.00061415364
0.00062909387
0.000647457
0.00066386756
0.00068054853
0.00070011346
0.00072241826
0.00074739141
0.00077525527
0.00080550227
0.00083724783
0.00087006055
0.00090264642
0.00093168252
0.00095070697
0.00094745437
0.00089370346
0.00090983799
0.00098201795
0.0010070631
0.0010135475
0.0010067003
0.00099205924
0.00096894716
0.0009366176
0.00090098673
0.00086337206
0.00080656635
0.000750958
0.0007013188
0.00065923816
0.00062456044
0.00059697351
0.00057607467
0.00056133256
0.0005522766
0.00054836295
0.0005490704
0.00055405704
0.00056296323
0.00057215827
0.00056115911
0.00055329142
0.0005505976
0.00055341916
0.00055673013
0.00056408875
0.00057448593
0.00058492931
0.0005995711
0.0006178799
0.00063404054
0.00064928162
0.00066755749
0.00068881831
0.00071309049
0.0007404934
0.0007706431
0.00080306237
0.0008376229
0.00087339743
0.00090747475
0.00093385927
0.00094062227
0.00089517399
0.0009262658
0.00099542928
0.0010164291
0.001021553
0.0010075337
0.00098394313
0.00094762932
0.00089675869
0.00084473393
0.00079400815
0.00071581624
0.00064421869
0.00058553663
0.00053934399
0.00050367631
0.00047694128
0.00045786956
0.00044535671
0.00043863896
0.00043715302
0.00044053808
0.00044869557
0.00046165779
0.0004781965
0.00046765255
0.00045921955
0.00045661709
0.00046034455
0.00046396308
0.00047165922
0.00048264718
0.0004928002
0.0005077593
0.00052696955
0.00054377275
0.0005576158
0.00057485428
0.00059555192
0.00061988724
0.0006480864
0.00068019021
0.00071644476
0.00075738932
0.00080292593
0.00085113747
0.00089695229
0.00092832627
0.00090418638
0.00090972809
0.00098168083
0.0010062019
0.001012072
0.0010046606
0.00098955229
0.00096534655
0.0009327991
0.0008966077
0.00084936638
0.00080041337
0.00075517739
0.00071529756
0.00068141742
0.00065372568
0.00063199744
0.00061570074
0.00060444413
0.00059777589
0.00059527813
0.00059661594
0.00060078521
0.00058909873
0.00057151803
0.00055871547
0.0005514616
0.00055002961
0.00055404446
0.00055824102
0.00056596905
0.00057596051
0.00058635894
0.00060134519
0.00061367803
0.00062845495
0.00064648731
0.00066783989
0.00069252111
0.00072048959
0.0007517698
0.00078659479
0.00082458417
0.00086456965
0.00090417071
0.00093904889
0.00096138805
0.00095660822
0.0008984223
0.00089849321
0.00096274899
0.00098979385
0.00099781584
0.00099580575
0.00098802086
0.00097597194
0.00096016954
0.00094168542
0.0009192947
0.00089440486
0.0008687148
0.00084342289
0.00081947825
0.00079764486
0.00077839038
0.00076183491
0.00074802113
0.00073681446
0.00072796984
0.00072127949
0.00071621654
0.0007058308
0.0006938181
0.00068425322
0.00067795813
0.00067541266
0.00067649612
0.00067896881
0.00068438324
0.00069225989
0.00070141502
0.00071211602
0.00072484947
0.00073882764
0.00075516993
0.00077377948
0.0007943183
0.00081656475
0.00084027728
0.00086497689
0.00088984741
0.00091370887
0.00093477634
0.00095022599
0.00095496054
0.00093975424
0.00088793066
0.00089699706
0.0009616996
0.00099147085
0.0010009043
0.00099956034
0.00099220272
0.00098076946
0.0009661269
0.00094922386
0.0009299602
0.00090894051
0.00088701281
0.00086495551
0.00084348749
0.00082321693
0.00080457314
0.00078771368
0.00077274208
0.00075970345
0.00074852713
0.00073909093
0.00073121691
0.00072256214
0.00071300214
0.00070570131
0.0007011113
0.0006995633
0.00070099913
0.00070426432
0.00071015639
0.00071871992
0.00072819415
0.00073969018
0.0007533245
0.00076811536
0.00078436413
0.00080239185
0.00082174076
0.00084225267
0.00086376544
0.00088568751
0.00090718581
0.00092732106
0.00094457583
0.00095632402
0.00095750819
0.00093882217
0.00088641398
0.00089675291
0.0009623485
0.00099395578
0.0010045979
0.0010039934
0.0009970932
0.0009859609
0.00097151052
0.00095466989
0.00093551392
0.00091447098
0.00089234067
0.00086985607
0.00084770787
0.00082654279
0.00080684433
0.00078886861
0.000772846
0.00075893833
0.00074710054
0.00073716807
0.00072908703
0.00072225646
0.0007135268
0.00070670927
0.00070242099
0.00070101978
0.00070247502
0.00070586573
0.00071181867
0.00072050431
0.00073016021
0.00074192573
0.00075587962
0.00077126791
0.00078773064
0.00080592466
0.00082536622
0.00084589319
0.00086743381
0.000889367
0.00091086657
0.00093101879
0.00094806031
0.00095927678
0.00095943481
0.00093914904
0.0008860969
0.00089677579
0.00096248286
0.00099441964
0.0010055133
0.0010052895
0.00099863593
0.00098764046
0.00097319583
0.00095620126
0.00093680869
0.00091508215
0.00089221936
0.00086902448
0.00084619924
0.00082437757
0.00080406571
0.00078563867
0.00076943449
0.00075562762
0.00074410577
0.0007346495
0.0007271148
0.00072118211
0.00071397378
0.00070705178
0.00070258513
0.00070104718
0.00070240084
0.00070568337
0.00071148829
0.00071997474
0.00072955446
0.00074132912
0.00075534704
0.00077086345
0.00078711895
0.00080504822
0.00082428789
0.00084469578
0.00086622032
0.00088818139
0.00090973744
0.00093000556
0.00094718932
0.00095854943
0.000958862
0.00093887171
0.00088612955
0.00089700103
0.00096190645
0.00099237116
0.0010026973
0.0010020673
0.0009951476
0.00098395678
0.00096930434
0.00095204477
0.00093256082
0.00091011369
0.00088638771
0.00086239634
0.00083894745
0.00081662207
0.00079601107
0.00077757757
0.00076167563
0.00074848082
0.00073784903
0.00072946457
0.00072300316
0.00071819531
0.00071321871
0.00070620959
0.00070158528
0.00069990162
0.00070119188
0.00070427673
0.00070995185
0.00071817062
0.00072755374
0.00073925475
0.00075320325
0.00076834173
0.00078391413
0.00080107525
0.00081962835
0.00083953601
0.00086059621
0.00088211143
0.00090332425
0.00092345204
0.00094102645
0.00095338934
0.00095537677
0.00093779792
0.00088638513
0.00089836391
0.00096269167
0.00099047027
0.00099944158
0.00099818529
0.00099088625
0.00097922647
0.0009634573
0.00094472033
0.00092374787
0.00089643575
0.00086665557
0.0008366229
0.00080791747
0.0007814476
0.00075801795
0.00073816472
0.00072215214
0.00071003761
0.00070155224
0.00069620615
0.0006934669
0.00069289588
0.00069281213
0.00068499378
0.00067918686
0.00067659684
0.00067746999
0.00067959807
0.00068481395
0.00069237279
0.00070113151
0.0007128176
0.00072711281
0.00074136955
0.00075634328
0.00077327233
0.00079199048
0.00081252612
0.00083449041
0.00085720735
0.00088023596
0.00090295693
0.00092403484
0.00094081523
0.00094806116
0.00093637113
0.00088742013
0.00090966007
0.00098161815
0.00100673
0.0010133355
0.0010067183
0.00099230911
0.00096932169
0.00093688019
0.00090111633
0.0008628802
0.00080508976
0.00074887408
0.00069874462
0.00065624573
0.00062143944
0.00059401362
0.00057345997
0.00055914523
0.00055050384
0.00054701833
0.00054823251
0.00055376402
0.00056320476
0.00057270755
0.00056165486
0.00055367266
0.00055088113
0.00055360516
0.00055661948
0.000563913
0.0005738638
0.00058424755
0.000598959
0.00061738775
0.00063273801
0.00064862153
0.00066742803
0.0006890458
0.00071359133
0.00074082813
0.00077043071
0.00080246043
0.00083671595
0.00087217205
0.00090614453
0.00093267092
0.0009398138
0.00089492059
0.00090628226
0.00098058497
0.0010084055
0.0010154124
0.0010085855
0.00099404261
0.00097107029
0.00094103982
0.00090772841
0.0008641564
0.00081855671
0.00077591119
0.0007377869
0.00070487833
0.00067744006
0.00065550448
0.00063856549
0.00062628381
0.00061829415
0.00061411756
0.0006133925
0.00061551784
0.00061116768
0.00059586769
0.00058460952
0.00057825735
0.00057714857
0.00058105389
0.000585531
0.00059348403
0.00060366435
0.00061466146
0.00062953097
0.00064268905
0.0006577653
0.00067570593
0.00069660783
0.00072057959
0.00074754832
0.00077716747
0.0008095327
0.00084430003
0.00088021247
0.00091527153
0.0009455054
0.00096346227
0.0009557712
0.00089506241
0.000897004
0.00096177801
0.00099169157
0.0010013257
0.0010000831
0.00099276546
0.00098132788
0.00096661302
0.00094961009
0.00092982535
0.00090829018
0.0008859942
0.00086367521
0.00084194768
0.00082145393
0.00080276177
0.00078598981
0.00077124237
0.00075856351
0.00074777038
0.00073861774
0.00073092434
0.00072247564
0.00071297642
0.00070571717
0.00070112796
0.00069953543
0.00070091352
0.00070406323
0.00070981792
0.00071782459
0.00072733089
0.00073867707
0.00075098273
0.00076516243
0.00078115257
0.00079887072
0.00081814156
0.00083875583
0.00086028275
0.00088235146
0.00090440187
0.00092519137
0.00094307191
0.00095548534
0.00095713101
0.0009386952
0.00088639074
0.00089579997
0.00096118087
0.00099420108
0.0010056655
0.001005307
0.00099852284
0.00098774061
0.00097405923
0.00095832301
0.00094119938
0.00092313436
0.00090441639
0.00088532542
0.00086616024
0.00084740264
0.00082952844
0.0008126126
0.0007967842
0.00078226866
0.00076909834
0.00075723067
0.00074667649
0.00073726169
0.00072955145
0.00072419969
0.00072120986
0.00072068883
0.00072260112
0.00072664939
0.00073306437
0.00074172801
0.00075199828
0.00076375291
0.00077716964
0.00079212867
0.00080840579
0.00082586647
0.00084424406
0.00086340229
0.00088298681
0.00090259131
0.00092173418
0.0009393125
0.00095373933
0.00096250015
0.00096035609
0.0009379604
0.00088509595
0.00089579238
0.00096242378
0.00099756349
0.0010104399
0.0010109199
0.0010046326
0.00099412489
0.00098057341
0.00096485149
0.00094771339
0.0009295312
0.00091058535
0.00089109937
0.00087133448
0.00085173661
0.00083285449
0.00081485194
0.00079795155
0.00078247406
0.00076851333
0.00075603279
0.00074509127
0.00073579278
0.00072826646
0.00072305618
0.00072017691
0.00071973241
0.0007217015
0.00072594149
0.00073254455
0.00074142431
0.00075198486
0.00076419977
0.00077816187
0.00079376308
0.00081063646
0.00082862409
0.00084743104
0.00086693141
0.0008868123
0.00090668736
0.00092612668
0.00094396406
0.00095839958
0.00096667932
0.00096329539
0.00093889939
0.00088496773
0.00089581917
0.00096251912
0.00099785809
0.0010110498
0.0010118737
0.0010058328
0.00099546243
0.00098199989
0.00096626884
0.00094888181
0.00093022014
0.0009108715
0.00089109543
0.00087107665
0.00085121026
0.00083206206
0.0008138896
0.0007969766
0.00078164668
0.00076796917
0.00075582423
0.00074518816
0.00073615049
0.00072865622
0.00072323023
0.00072017571
0.00071961063
0.00072152143
0.00072572637
0.00073227325
0.00074107847
0.00075158147
0.0007638058
0.0007778093
0.00079346099
0.00081028169
0.0008281844
0.00084697413
0.00086653567
0.00088653143
0.00090657755
0.00092623649
0.00094427064
0.00095880794
0.00096707849
0.00096358525
0.00093911255
0.00088510258
0.00089583053
0.00096135644
0.00099487028
0.0010070569
0.0010073595
0.0010009996
0.00099041085
0.00097682231
0.00096096758
0.00094336036
0.00092438102
0.0009048495
0.00088507778
0.00086524063
0.00084565989
0.0008269475
0.00080941932
0.00079332719
0.00077896524
0.00076634942
0.0007552703
0.00074554773
0.00073722117
0.00073016147
0.00072450512
0.00072125507
0.00072055857
0.00072240621
0.00072643798
0.00073279737
0.00074139545
0.00075162663
0.00076366156
0.00077748008
0.00079282615
0.00080909836
0.00082634233
0.00084451783
0.00086359649
0.00088310068
0.00090261924
0.00092181233
0.00093952328
0.00095405318
0.00096283571
0.00096056488
0.00093817115
0.00088531613
0.00089692854
0.00096178378
0.00099233847
0.001002871
0.00100237
0.00099553477
0.00098444615
0.00096986788
0.00095266508
0.00093311599
0.00091033909
0.00088610922
0.00086158984
0.00083756397
0.0008147261
0.00079392089
0.0007755712
0.00075988573
0.00074702324
0.00073683251
0.00072890307
0.00072281339
0.00071830419
0.0007134865
0.00070654405
0.00070184983
0.00070008119
0.00070132473
0.00070432916
0.00070999138
0.00071799999
0.00072745311
0.0007393719
0.00075354106
0.00076869597
0.00078463638
0.00080198907
0.00082063276
0.0008405767
0.00086117996
0.00088196874
0.00090281526
0.00092276926
0.00094024373
0.0009526854
0.00095483188
0.00093745008
0.00088627939
0.00090618152
0.00098042945
0.0010088431
0.0010166707
0.0010107428
0.00099697332
0.00097511764
0.0009452619
0.0009121255
0.00087400376
0.00082325255
0.00077419292
0.00072983654
0.00069138725
0.00065928735
0.00063363327
0.00061407274
0.00060006316
0.00059112603
0.0005868168
0.00058669008
0.00059030307
0.00059701956
0.00059805404
0.00058720359
0.00058003094
0.00057785555
0.00058080768
0.00058436581
0.00059186507
0.00060198109
0.00061297196
0.00062806839
0.00064663726
0.00066246164
0.00068004274
0.00070026986
0.00072299991
0.00074828543
0.00077565368
0.0008047959
0.00083585656
0.00086823037
0.00090042389
0.0009294433
0.0009487982
0.0009461657
0.00089330009
0.00090545706
0.00098120018
0.0010110952
0.0010191752
0.0010129729
0.000998853
0.00097622734
0.00094681145
0.00091427032
0.00087173033
0.00082567493
0.00078228862
0.00074327881
0.00070936951
0.0006808366
0.00065786032
0.00063999184
0.00062681988
0.00061801161
0.00061308555
0.00061169559
0.00061359679
0.00061631781
0.00060296941
0.00059234579
0.00058615657
0.00058487229
0.00058837649
0.00059257314
0.00060023791
0.00061011415
0.00062112009
0.00063569416
0.00064986541
0.00066500424
0.0006830892
0.00070404994
0.0007279664
0.00075463455
0.00078363135
0.0008150637
0.00084873234
0.00088335352
0.00091700055
0.0009459172
0.00096266048
0.00095402503
0.00089402659
0.00089674676
0.00096246525
0.00099430489
0.0010052319
0.0010047701
0.00099791669
0.00098668896
0.00097210858
0.00095517128
0.00093544928
0.00091371492
0.00089107651
0.00086824573
0.00084581638
0.00082447611
0.00080490705
0.00078721938
0.0007715444
0.0007580824
0.00074667887
0.0007370374
0.00072909879
0.000722397
0.00071369229
0.00070690119
0.00070260286
0.00070111139
0.00070245222
0.00070566591
0.00071139533
0.0007193441
0.0007289407
0.00074071203
0.00075320651
0.0007675839
0.00078372776
0.00080151265
0.00082083008
0.00084138161
0.00086265794
0.00088449802
0.00090655407
0.00092737161
0.00094513955
0.00095726391
0.0009581993
0.00093855734
0.000885984
0.00089580635
0.00096254788
0.00099781819
0.0010107661
0.0010112122
0.0010047595
0.00099412911
0.00098060594
0.00096489429
0.00094767378
0.00092942503
0.00091039223
0.00089081791
0.00087098436
0.00085144871
0.00083277366
0.00081496335
0.00079816296
0.00078276762
0.00076886012
0.00075636626
0.00074534577
0.00073598671
0.00072838174
0.00072313581
0.00072024643
0.00071977059
0.00072171207
0.00072591575
0.0007324356
0.00074111877
0.00075162905
0.00076379182
0.00077750867
0.0007929007
0.00080962635
0.00082744934
0.00084617775
0.00086558076
0.00088521372
0.00090496202
0.00092455131
0.00094253598
0.00095707158
0.00096554925
0.00096247195
0.00093848613
0.00088490169
0.00089608355
0.00096453124
0.0010021256
0.0010165155
0.0010177922
0.0010117915
0.0010014006
0.00098795408
0.00097227609
0.00095507076
0.00093676826
0.0009175312
0.00089753957
0.00087702762
0.00085659431
0.0008368458
0.00081782161
0.00079976722
0.000783175
0.00076820196
0.00075480286
0.00074310163
0.00073330266
0.00072570177
0.0007205066
0.0007176753
0.0007172611
0.00071927974
0.00072370917
0.00073048104
0.00073947094
0.00075039443
0.0007630962
0.00077755417
0.00079372181
0.00081125442
0.00082981409
0.0008491785
0.00086912047
0.00088924328
0.00090950002
0.00092964348
0.00094808954
0.00096275298
0.00097078354
0.00096639408
0.00094013961
0.00088498671
0.00089609869
0.0009645114
0.0010021388
0.0010167039
0.0010182104
0.0010123989
0.0010021196
0.00098885575
0.00097337491
0.00095615949
0.00093759792
0.00091814489
0.0008980343
0.00087740169
0.00085675147
0.00083673223
0.00081753056
0.00079943878
0.00078289096
0.00076803044
0.00075475406
0.00074315448
0.00073345598
0.00072584004
0.00072057149
0.00071764604
0.0007171563
0.00071912185
0.00072348078
0.000730186
0.00073914047
0.00075004584
0.00076269523
0.00077712864
0.00079325606
0.00081070565
0.00082916075
0.0008485089
0.00086854103
0.00088885447
0.00090940078
0.00092991335
0.00094867895
0.00096354396
0.00097163943
0.00096712578
0.00094061856
0.00088515039
0.0008958091
0.00096246905
0.00099783872
0.0010111668
0.0010120675
0.0010059436
0.00099551207
0.00098224364
0.00096683468
0.00094959416
0.00093090843
0.0009115654
0.00089178013
0.00087165019
0.00085152732
0.00083218785
0.00081393194
0.00079697239
0.00078165878
0.00076802758
0.00075589507
0.00074521059
0.00073610955
0.00072863266
0.00072321912
0.00072014816
0.00071954958
0.00072143645
0.00072558986
0.00073203891
0.00074074141
0.00075124658
0.00076351644
0.00077756178
0.00079323173
0.00081008634
0.00082780473
0.00084645168
0.00086590906
0.00088566564
0.00090559515
0.00092552201
0.00094386845
0.00095864256
0.00096718013
0.00096380596
0.0009393156
0.00088519171
0.00089663421
0.00096220636
0.00099428473
0.0010057419
0.0010057495
0.00099917112
0.00098831182
0.00097413987
0.00095743955
0.000938035
0.00091597396
0.00089261495
0.00086889531
0.00084538199
0.00082278882
0.00080207338
0.00078362152
0.00076758573
0.00075413543
0.0007431158
0.00073413031
0.00072688954
0.00072118195
0.00071410059
0.00070731574
0.00070279242
0.0007011471
0.00070241848
0.00070556537
0.00071123523
0.00071935358
0.00072894862
0.00074092171
0.0007551354
0.00077085884
0.00078738544
0.00080534026
0.00082455312
0.00084490664
0.00086578025
0.00088694141
0.00090831175
0.00092860212
0.0009459342
0.0009576557
0.00095829422
0.00093853361
0.00088603037
0.00090519306
0.0009805585
0.0010106483
0.0010191921
0.0010136204
0.0010001202
0.00097866849
0.00094972485
0.00091751131
0.0008781563
0.00083041434
0.00078444202
0.00074268361
0.0007060953
0.00067523046
0.00065038674
0.00063131439
0.0006175034
0.00060847911
0.00060379844
0.00060301197
0.00060571053
0.00061091744
0.00060414424
0.00059355722
0.00058683258
0.00058503418
0.0005881535
0.00059194522
0.00059936518
0.00060944959
0.00062044058
0.00063532603
0.00065354701
0.00066959341
0.00068821544
0.00070955372
0.0007334043
0.00075966003
0.0007878996
0.00081795084
0.00084983712
0.00088262055
0.00091443514
0.00094195138
0.00095823792
0.00095065879
0.00089332831
0.00090552471
0.00098137411
0.0010114438
0.0010197216
0.0010136957
0.0009996338
0.00097692068
0.00094739505
0.00091485289
0.00087359768
0.00082589359
0.00078065623
0.0007399032
0.00070447094
0.000674709
0.00065074461
0.00063220486
0.0006186053
0.00060951908
0.00060453483
0.00060331633
0.00060555558
0.00061041689
0.00060383529
0.000593256
0.00058663179
0.0005849225
0.00058810723
0.00059203648
0.00059951087
0.00060919252
0.00062035202
0.00063518982
0.00065055646
0.00066535474
0.0006831243
0.00070375013
0.00072708676
0.00075281298
0.00078080874
0.00081128937
0.00084404245
0.00087780675
0.00091072107
0.00093956228
0.00095726597
0.00095070615
0.0008935242
0.00089675989
0.00096253073
0.00099449128
0.0010055473
0.0010051812
0.00099832259
0.00098700894
0.00097237685
0.00095535458
0.00093571869
0.0009135869
0.00089040145
0.00086694985
0.00084396403
0.00082220762
0.00080233514
0.0007844506
0.00076866827
0.0007552179
0.00074399177
0.00073471322
0.00072719131
0.00072126719
0.0007141257
0.00070724428
0.00070274361
0.00070110951
0.00070237855
0.00070556039
0.00071123835
0.00071909305
0.00072871837
0.00074052821
0.00075353187
0.00076782755
0.0007838967
0.00080159058
0.00082066465
0.00084072881
0.0008614633
0.00088295146
0.00090483745
0.00092553902
0.00094326092
0.00095548489
0.00095681345
0.00093788078
0.00088594071
0.00089583403
0.00096262903
0.00099796252
0.0010109504
0.0010113987
0.0010048428
0.00099406277
0.00098046413
0.00096476831
0.00094748578
0.00092910062
0.00090989796
0.0008901136
0.00087016106
0.00085068351
0.00083216856
0.00081450903
0.00079781872
0.00078252937
0.0007687489
0.00075643771
0.00074563114
0.00073643826
0.00072880957
0.00072328286
0.0007201993
0.00071961043
0.00072152625
0.0007257574
0.00073227849
0.00074096035
0.00075151737
0.00076381285
0.00077767532
0.00079318697
0.00081001841
0.00082791288
0.00084655649
0.00086560748
0.00088480713
0.00090434895
0.00092390385
0.00094183295
0.00095634243
0.00096485194
0.00096186838
0.00093822853
0.00088494241
0.00089613007
0.0009646685
0.0010022932
0.0010166309
0.001017796
0.0010115715
0.0010009044
0.00098738779
0.00097176637
0.00095460103
0.00093632602
0.00091709506
0.00089705412
0.00087657437
0.00085633058
0.00083686845
0.00081810711
0.00080020397
0.00078365399
0.00076865632
0.00075524714
0.0007435426
0.00073370677
0.00072595153
0.00072059427
0.00071766348
0.00071719192
0.00071919095
0.0007235758
0.00073025954
0.00073922966
0.00075018448
0.00076292955
0.00077750601
0.00079382039
0.00081148775
0.00083014313
0.00084944826
0.00086909732
0.0008888645
0.00090900521
0.00092918811
0.00094760841
0.00096226969
0.00097037036
0.00096607196
0.00094004256
0.00088505531
0.00089613086
0.00096458651
0.0010021378
0.0010165148
0.0010177838
0.0010116428
0.0010009806
0.000987656
0.00097241254
0.00095551039
0.00093728985
0.00091811845
0.0008981735
0.00087771151
0.00085728362
0.00083751292
0.00081851274
0.00080046946
0.00078379877
0.00076867943
0.00075509362
0.00074319496
0.00073325159
0.00072560795
0.00072040717
0.00071756584
0.0007171537
0.00071918227
0.00072352852
0.00073016561
0.00073911105
0.00075002056
0.00076265522
0.00077709949
0.00079326838
0.00081076463
0.00082923038
0.00084844734
0.00086818178
0.00088819028
0.00090869798
0.00092934495
0.00094819082
0.00096315518
0.00097141093
0.00096703349
0.0009406355
0.00088518628
0.00089577778
0.00096234042
0.00099749585
0.0010105255
0.0010111383
0.0010046648
0.0009939383
0.00098072556
0.00096570922
0.00094898535
0.0009308771
0.00091204425
0.00089259111
0.00087270776
0.00085283263
0.00083368864
0.00081554751
0.00079857577
0.00078308273
0.00076909194
0.00075647446
0.00074529319
0.00073574697
0.00072809807
0.00072284861
0.00071994219
0.00071947919
0.00072148347
0.00072571282
0.0007321837
0.00074090073
0.00075138907
0.00076358078
0.00077754106
0.00079315629
0.00081001128
0.00082770755
0.00084623665
0.00086543524
0.00088495998
0.00090490349
0.00092497554
0.00094344556
0.00095835471
0.00096705295
0.00096381496
0.00093934313
0.00088516003
0.00089655641
0.00096194546
0.00099374338
0.0010048359
0.0010045124
0.00099763362
0.00098660776
0.00097258135
0.00095632091
0.00093734289
0.00091607997
0.00089359898
0.00087062526
0.00084776353
0.0008257731
0.00080552427
0.0007874021
0.00077152577
0.00075798726
0.00074660698
0.00073701223
0.00072903058
0.00072221929
0.00071348074
0.00070670359
0.00070239244
0.00070092298
0.00070235056
0.00070562147
0.00071135504
0.00071956314
0.00072916041
0.00074103261
0.00075512232
0.00077084454
0.00078740925
0.00080544044
0.00082471089
0.00084500738
0.00086591701
0.00088729732
0.00090888297
0.00092930208
0.00094667878
0.00095835851
0.00095887475
0.00093881374
0.00088600114
0.00090505058
0.00098011487
0.0010098023
0.0010179118
0.001012004
0.00099827834
0.00097673993
0.00094796365
0.00091614714
0.00087612896
0.00083042168
0.00078658922
0.00074670709
0.00071168778
0.00068204616
0.00065810139
0.00063970148
0.0006263558
0.00061755427
0.00061283619
0.00061166564
0.00061377899
0.00061630838
0.00060298651
0.00059238285
0.00058614303
0.00058482947
0.00058834548
0.00059247409
0.00060010752
0.00061044323
0.0006213953
0.0006360043
0.00065386931
0.00066988089
0.00068868682
0.000710292
0.00073451042
0.00076115481
0.00079010977
0.00082113034
0.00085394513
0.00088749092
0.00091974903
0.00094719858
0.00096277074
0.00095347092
0.00089370301
0.00090643702
0.00098099274
0.0010092182
0.0010167127
0.0010103595
0.00099603593
0.00097296323
0.00094270992
0.00090957641
0.00087006864
0.00081966069
0.00077149039
0.00072809128
0.00069055309
0.00065928068
0.0006342871
0.00061512954
0.00060128144
0.00059223362
0.00058752164
0.00058685344
0.0005899343
0.00059620482
0.00059736415
0.00058660396
0.00057959715
0.00057753947
0.00058060088
0.00058434292
0.00059188542
0.00060167573
0.00061293136
0.00062804485
0.00064488426
0.00065852449
0.00067495388
0.00069420652
0.00071609285
0.00074038778
0.00076718536
0.0007967283
0.00082875847
0.00086228851
0.00089578091
0.0009263379
0.00094735277
0.00094594022
0.0008934201
0.00089699527
0.00096187014
0.00099211322
0.0010021571
0.0010012663
0.00099412158
0.00098267181
0.00096789187
0.00095071215
0.00093127173
0.00090862024
0.00088466562
0.00086035649
0.00083666519
0.0008144885
0.00079441805
0.00077656099
0.00076108338
0.00074814681
0.00073760465
0.00072923453
0.00072277732
0.00071800582
0.0007131374
0.00070614911
0.00070150812
0.0006997655
0.00070104529
0.00070412443
0.00070977119
0.00071749821
0.00072699351
0.00073876577
0.00075200155
0.0007655685
0.00078077944
0.00079760036
0.00081574986
0.00083487839
0.00085493272
0.00087606903
0.00089770214
0.00091843596
0.0009367238
0.00095005534
0.00095316374
0.00093675046
0.00088618779
0.00089582593
0.00096132244
0.00099457862
0.0010063053
0.0010061345
0.00099934305
0.00098845187
0.00097471929
0.00095890131
0.00094158586
0.00092311795
0.0009038285
0.00088403973
0.00086430602
0.00084527458
0.00082729777
0.00081029707
0.00079442587
0.00077999227
0.00076708207
0.00075570818
0.0007458028
0.0007373503
0.00073016277
0.00072438651
0.00072111042
0.0007204167
0.00072234069
0.00072650778
0.00073292235
0.00074146708
0.00075178953
0.00076389892
0.00077764669
0.00079267242
0.00080879807
0.00082594843
0.00084376754
0.00086192256
0.00088042358
0.00089951834
0.00091861332
0.00093627339
0.00095098394
0.00096018442
0.00095855786
0.00093711577
0.00088508736
0.00089583668
0.00096260763
0.00099791338
0.0010109117
0.0010113956
0.0010048848
0.00099408796
0.00098045934
0.00096475519
0.00094757465
0.00092934176
0.00091023588
0.00089052598
0.00087069797
0.00085130016
0.0008327214
0.00081495689
0.00079817363
0.00078271501
0.00076875169
0.00075634254
0.00074549367
0.00073627329
0.00072863566
0.00072309688
0.00072002037
0.00071947319
0.00072147159
0.00072575194
0.00073223406
0.00074094473
0.00075144749
0.00076382956
0.00077811297
0.00079393744
0.00081086917
0.00082874175
0.00084718127
0.00086589518
0.00088488677
0.00090441669
0.00092391237
0.00094182377