/*--------------------------------*- C++ -*----------------------------------*\
| =========                 |                                                 |
| \\      /  F ield         | foam-extend: Open Source CFD                    |
|  \\    /   O peration     | Version:     4.1-20200408                       |
|   \\  /    A nd           | Web:         http://www.foam-extend.org         |
|    \\/     M anipulation  |                                                 |
\*---------------------------------------------------------------------------*/
FoamFile
{
    version     2.0;
    format      ascii;
    class       volTensorField;
    location    "0.0230000";
    object      F;
}
// * * * * * * * * * * * * * * * * * * * * * * * * * * * * * * * * * * * * * //

dimensions      [0 0 0 0 0 0 0];

internalField   nonuniform List<tensor> 
1952
(
(1.0074 -2.59283e-05 -1.24693e-13 -0.000318003 0.99681 -1.7141e-11 5.79998e-12 7.51008e-11 0.996815)
(1.00741 -5.24952e-05 2.65931e-12 -0.000517783 0.996807 -1.15315e-10 3.67456e-12 -7.17064e-11 0.996811)
(1.00742 -8.73023e-05 3.27923e-12 -0.000712003 0.996787 3.19023e-11 -4.7893e-12 -5.27784e-10 0.996811)
(1.00743 -0.000103211 6.55398e-12 -0.000911088 0.996778 1.75793e-10 -1.38916e-11 2.05102e-10 0.996801)
(1.00745 -0.000141885 -2.63772e-12 -0.00110026 0.99675 -5.14553e-11 3.20721e-12 1.02746e-09 0.996799)
(1.00747 -0.000132598 -1.69164e-11 -0.00129467 0.996737 -2.08112e-10 2.2008e-11 1.52344e-10 0.996785)
(1.00749 -0.000151582 3.6844e-12 -0.00147399 0.996706 -7.52821e-11 2.95628e-12 -1.06144e-09 0.996783)
(1.00751 -0.000115708 4.11588e-11 -0.00165847 0.996697 1.20023e-10 -1.46566e-11 -1.84794e-10 0.996767)
(1.00753 -7.18858e-05 7.81969e-12 -0.00182475 0.996669 -2.5449e-11 -1.39129e-12 1.04034e-09 0.996765)
(1.00755 6.3555e-05 -7.09986e-11 -0.00199474 0.996678 -1.53173e-10 2.33465e-11 -2.15222e-10 0.996748)
(1.00758 0.000254267 -7.81261e-12 -0.00214267 0.996676 9.77108e-12 1.15877e-11 -1.07354e-09 0.99675)
(1.0076 0.000580598 9.92521e-11 -0.00229183 0.996755 1.09892e-10 -2.56031e-11 1.89132e-10 0.996737)
(1.00761 0.00104151 -4.28795e-11 -0.00241208 0.996837 3.20911e-12 7.92747e-12 1.04148e-09 0.996751)
(1.00762 0.00159777 2.12361e-11 -0.00251967 0.997103 -1.83219e-10 -5.61449e-12 1.66863e-10 0.996751)
(1.00762 0.00198037 -1.50339e-10 -0.00255357 0.997405 1.73854e-11 4.4988e-11 -3.2717e-10 0.996797)
(1.0074 -2.20302e-05 -4.60131e-13 -0.000136802 0.996815 -2.89579e-10 1.48413e-12 -1.08048e-10 0.996816)
(1.0075 -3.22184e-05 -5.41138e-13 -0.000332209 0.996728 -1.7563e-11 -2.15938e-13 7.70225e-11 0.996734)
(1.00751 -6.34686e-05 2.43327e-12 -0.000539508 0.996723 -1.18128e-10 -3.57971e-13 -7.35749e-11 0.996729)
(1.00752 -0.000100923 3.47366e-12 -0.00074701 0.996705 3.26264e-11 2.99995e-14 -5.41475e-10 0.996728)
(1.00753 -0.000118967 7.22755e-12 -0.000955682 0.996695 1.79501e-10 -7.04453e-13 2.10362e-10 0.996718)
(1.00755 -0.000160478 -2.90531e-12 -0.00115978 0.996669 -5.27686e-11 -2.43673e-12 1.05405e-09 0.996716)
(1.00756 -0.000153197 -1.823e-11 -0.00136283 0.996655 -2.12219e-10 -1.46888e-12 1.56189e-10 0.996703)
(1.00758 -0.000173226 3.30529e-12 -0.00156002 0.996625 -7.77401e-11 1.09177e-12 -1.08881e-09 0.9967)
(1.0076 -0.00013964 4.1486e-11 -0.00175292 0.996616 1.21015e-10 -3.5129e-13 -1.89301e-10 0.996685)
(1.00762 -9.76556e-05 7.65447e-12 -0.00194045 0.996588 -2.61237e-11 -4.31654e-12 1.06673e-09 0.996683)
(1.00765 3.78241e-05 -7.2229e-11 -0.00212095 0.996598 -1.54564e-10 -1.58446e-12 -2.20869e-10 0.996667)
(1.00766 0.000231046 -7.47408e-12 -0.00229705 0.996598 1.08698e-11 1.82865e-12 -1.10031e-09 0.996668)
(1.00768 0.000561707 1.00391e-10 -0.00246437 0.996679 1.10729e-10 -2.15256e-12 1.93837e-10 0.996656)
(1.00768 0.00103691 -4.29252e-11 -0.00263045 0.996766 2.91275e-12 -6.2022e-12 1.06738e-09 0.99667)
(1.00767 0.00164251 1.23149e-11 -0.00279429 0.997049 -1.86593e-10 -3.97284e-12 1.7092e-10 0.996672)
(1.0076 0.00224164 -1.68387e-10 -0.002999 0.997397 1.2867e-11 -8.95514e-13 -3.33359e-10 0.99672)
(1.0075 -2.4833e-05 -5.57329e-13 -0.000142462 0.996733 -2.96878e-10 -7.01331e-14 -1.10815e-10 0.996734)
(1.00759 -3.94872e-05 -9.96335e-13 -0.000341748 0.996653 -1.78811e-11 -2.18311e-13 7.87881e-11 0.996659)
(1.0076 -7.43449e-05 2.03365e-12 -0.000555996 0.996648 -1.20777e-10 -3.58307e-13 -7.528e-11 0.996654)
(1.00761 -0.000112936 3.65005e-12 -0.000772269 0.996632 3.33006e-11 3.92555e-14 -5.53815e-10 0.996653)
(1.00762 -0.000133833 7.63032e-12 -0.000988014 0.996623 1.83073e-10 -7.14943e-13 2.15086e-10 0.996644)
(1.00764 -0.000178068 -3.16407e-12 -0.00120118 0.996597 -5.39112e-11 -2.478e-12 1.07782e-09 0.996642)
(1.00765 -0.000172621 -1.92703e-11 -0.0014122 0.996585 -2.16216e-10 -1.48054e-12 1.59638e-10 0.99663)
(1.00767 -0.000193596 2.85988e-12 -0.0016201 0.996555 -7.9697e-11 1.13622e-12 -1.11303e-09 0.996627)
(1.00769 -0.000161657 4.1678e-11 -0.0018214 0.996548 1.22931e-10 -3.4808e-13 -1.93303e-10 0.996613)
(1.00771 -0.00012066 7.49593e-12 -0.00202176 0.996523 -2.66682e-11 -4.38352e-12 1.08984e-09 0.996611)
(1.00772 1.66383e-05 -7.35757e-11 -0.00221333 0.996536 -1.56935e-10 -1.58485e-12 -2.25751e-10 0.996596)
(1.00774 0.000214947 -6.9572e-12 -0.0024056 0.996541 1.18075e-11 1.8915e-12 -1.12327e-09 0.996598)
(1.00774 0.00055435 1.01966e-10 -0.00258822 0.99663 1.12553e-10 -2.17242e-12 1.97784e-10 0.996587)
(1.00774 0.00104908 -4.29182e-11 -0.00277515 0.99673 2.73657e-12 -6.29155e-12 1.08884e-09 0.996603)
(1.00771 0.00169108 7.66649e-12 -0.00295773 0.99703 -1.8958e-10 -4.00543e-12 1.74192e-10 0.996608)
(1.00765 0.00236406 -1.73141e-10 -0.00317819 0.997391 1.24961e-11 -8.82959e-13 -3.39672e-10 0.996659)
(1.00759 -2.82724e-05 -6.86746e-13 -0.000146531 0.996658 -3.03577e-10 -7.02315e-14 -1.13353e-10 0.996659)
(1.00767 -4.46984e-05 -1.30284e-12 -0.000352927 0.996586 -1.81254e-11 -2.20465e-13 8.03809e-11 0.996591)
(1.00768 -8.26104e-05 1.81535e-12 -0.00057437 0.996582 -1.2318e-10 -3.59081e-13 -7.68118e-11 0.996587)
(1.00769 -0.000123458 3.83077e-12 -0.000798362 0.996567 3.39173e-11 4.74374e-14 -5.64827e-10 0.996586)
(1.0077 -0.000147272 8.05189e-12 -0.00102103 0.996558 1.8641e-10 -7.24431e-13 2.19301e-10 0.996578)
(1.00771 -0.00019362 -3.39554e-12 -0.00124274 0.996535 -5.4908e-11 -2.51634e-12 1.09895e-09 0.996576)
(1.00773 -0.000190404 -2.00317e-11 -0.00146131 0.996524 -2.19858e-10 -1.49202e-12 1.62693e-10 0.996565)
(1.00774 -0.000212197 2.36423e-12 -0.00167861 0.996496 -8.13217e-11 1.17482e-12 -1.13437e-09 0.996563)
(1.00776 -0.000180594 4.19689e-11 -0.00188861 0.996492 1.25167e-10 -3.44758e-13 -1.9682e-10 0.996549)
(1.00777 -0.000139522 7.35885e-12 -0.00209966 0.99647 -2.71117e-11 -4.44602e-12 1.10999e-09 0.996548)
(1.00779 1.20536e-06 -7.51041e-11 -0.00230126 0.996488 -1.59446e-10 -1.58654e-12 -2.29983e-10 0.996534)
(1.00779 0.000206549 -6.37405e-12 -0.00250531 0.996499 1.25893e-11 1.94478e-12 -1.14299e-09 0.996538)
(1.00779 0.000556977 1.03688e-10 -0.00269852 0.996596 1.14258e-10 -2.1911e-12 2.01143e-10 0.996529)
(1.00778 0.00107249 -4.28688e-11 -0.00289586 0.996706 2.6182e-12 -6.37093e-12 1.10689e-09 0.996547)
(1.00774 0.00174766 4.05268e-12 -0.00308457 0.997017 -1.91128e-10 -4.03628e-12 1.76925e-10 0.996554)
(1.00769 0.00246176 -1.74722e-10 -0.00330252 0.997383 1.23507e-11 -8.74302e-13 -3.45035e-10 0.996609)
(1.00767 -3.09302e-05 -7.85957e-13 -0.000151284 0.99659 -3.09623e-10 -7.03892e-14 -1.15648e-10 0.996592)
(1.00775 -4.90384e-05 -1.58153e-12 -0.000363904 0.996527 -1.83547e-11 -2.22488e-13 8.17871e-11 0.996531)
(1.00775 -8.96524e-05 1.62803e-12 -0.00059201 0.996524 -1.25309e-10 -3.60172e-13 -7.81664e-11 0.996528)
(1.00776 -0.000132699 3.99746e-12 -0.000822813 0.996509 3.44684e-11 5.43008e-14 -5.74571e-10 0.996527)
(1.00777 -0.000159222 8.44959e-12 -0.0010519 0.996502 1.8956e-10 -7.3316e-13 2.23035e-10 0.99652)
(1.00778 -0.000206884 -3.5969e-12 -0.00128138 0.99648 -5.57715e-11 -2.55113e-12 1.11757e-09 0.996518)
(1.00779 -0.000206301 -2.04142e-11 -0.00150631 0.996472 -2.23272e-10 -1.50341e-12 1.65387e-10 0.996508)
(1.0078 -0.000228737 1.78897e-12 -0.00173135 0.996445 -8.2717e-11 1.20731e-12 -1.1531e-09 0.996506)
(1.00782 -0.000196154 4.22173e-11 -0.00194924 0.996444 1.27281e-10 -3.424e-13 -1.99895e-10 0.996493)
(1.00783 -0.000154538 7.24674e-12 -0.00216823 0.996427 -2.74791e-11 -4.50207e-12 1.12751e-09 0.996493)
(1.00784 -9.54081e-06 -7.66629e-11 -0.00237768 0.996449 -1.61674e-10 -1.59054e-12 -2.33643e-10 0.996481)
(1.00784 0.000203379 -5.82023e-12 -0.00258934 0.996466 1.32408e-11 1.98892e-12 -1.15993e-09 0.996486)
(1.00784 0.000564496 1.05211e-10 -0.00278883 0.99657 1.15542e-10 -2.20885e-12 2.04013e-10 0.996479)
(1.00782 0.00109777 -4.28045e-11 -0.00299057 0.996687 2.52599e-12 -6.44138e-12 1.12226e-09 0.996499)
(1.00779 0.00179709 1.95511e-12 -0.00318015 0.997003 -1.91561e-10 -4.06574e-12 1.79251e-10 0.996509)
(1.00774 0.00253636 -1.75422e-10 -0.00339377 0.997368 1.22972e-11 -8.68988e-13 -3.49684e-10 0.996565)
(1.00774 -3.29862e-05 -8.87929e-13 -0.000155982 0.996531 -3.1496e-10 -7.05752e-14 -1.17675e-10 0.996532)
(1.00781 -5.25733e-05 -1.79735e-12 -0.000373786 0.996474 -1.85569e-11 -2.24442e-13 8.30271e-11 0.996479)
(1.00781 -9.56241e-05 1.50441e-12 -0.000607945 0.996472 -1.27199e-10 -3.61596e-13 -7.93611e-11 0.996475)
(1.00782 -0.000140666 4.13262e-12 -0.000844958 0.996459 3.49607e-11 5.98263e-14 -5.8315e-10 0.996475)
(1.00782 -0.000169413 8.75951e-12 -0.00108004 0.996453 1.92477e-10 -7.41208e-13 2.26325e-10 0.996468)
(1.00783 -0.000218457 -3.7652e-12 -0.00131594 0.996433 -5.65178e-11 -2.58235e-12 1.13392e-09 0.996467)
(1.00784 -0.000220047 -2.08082e-11 -0.0015468 0.996426 -2.26376e-10 -1.51485e-12 1.67752e-10 0.996458)
(1.00786 -0.000242552 1.27602e-12 -0.00177805 0.996403 -8.39523e-11 1.23468e-12 -1.1695e-09 0.996457)
(1.00787 -0.000208718 4.24717e-11 -0.00200225 0.996404 1.29022e-10 -3.40971e-13 -2.02576e-10 0.996445)
(1.00788 -0.000166225 7.15664e-12 -0.00222706 0.99639 -2.77926e-11 -4.55254e-12 1.14275e-09 0.996446)
(1.00788 -1.67004e-05 -7.81563e-11 -0.00244201 0.996417 -1.63494e-10 -1.59645e-12 -2.36814e-10 0.996435)
(1.00788 0.000203492 -5.34151e-12 -0.0026584 0.996439 1.37698e-11 2.02553e-12 -1.17457e-09 0.996441)
(1.00788 0.000574069 1.06484e-10 -0.00286116 0.996547 1.16462e-10 -2.22578e-12 2.06491e-10 0.996436)
(1.00786 0.00112187 -4.27329e-11 -0.00306449 0.996668 2.44358e-12 -6.5046e-12 1.13555e-09 0.996458)
(1.00783 0.00183954 5.69389e-13 -0.00325306 0.996986 -1.9172e-10 -4.09385e-12 1.81271e-10 0.996469)
(1.0078 0.00259544 -1.75676e-10 -0.00346412 0.997351 1.21782e-11 -8.66669e-13 -3.53723e-10 0.996527)
(1.00781 -3.47548e-05 -9.74836e-13 -0.000160214 0.996478 -3.19663e-10 -7.08212e-14 -1.19462e-10 0.996479)
(1.00786 -5.55615e-05 -1.96874e-12 -0.000382544 0.996428 -1.87413e-11 -2.26325e-13 8.41161e-11 0.996432)
(1.00786 -0.000100774 1.40888e-12 -0.000622045 0.996427 -1.28865e-10 -3.63311e-13 -8.04113e-11 0.996429)
(1.00787 -0.000147545 4.24508e-12 -0.000864443 0.996414 3.53908e-11 6.41403e-14 -5.90693e-10 0.996429)
(1.00787 -0.00017819 9.01154e-12 -0.00110486 0.99641 1.95037e-10 -7.48649e-13 2.29216e-10 0.996423)
(1.00788 -0.000228497 -3.91754e-12 -0.00134596 0.996392 -5.71703e-11 -2.61038e-12 1.14828e-09 0.996423)
(1.00789 -0.000231948 -2.11546e-11 -0.001582 0.996387 -2.29076e-10 -1.52635e-12 1.69826e-10 0.996414)
(1.0079 -0.000254174 8.05896e-13 -0.00181825 0.996366 -8.5031e-11 1.25748e-12 -1.18386e-09 0.996413)
(1.00791 -0.000219096 4.2615e-11 -0.00204712 0.99637 1.30533e-10 -3.40395e-13 -2.0492e-10 0.996403)
(1.00792 -0.000175701 7.08357e-12 -0.00227621 0.996359 -2.80625e-11 -4.59814e-12 1.15605e-09 0.996405)
(1.00792 -2.18794e-05 -7.94384e-11 -0.0024948 0.996389 -1.65018e-10 -1.60394e-12 -2.3958e-10 0.996395)
(1.00792 0.000204619 -4.93921e-12 -0.00271406 0.996415 1.41883e-11 2.05587e-12 -1.18735e-09 0.996402)
(1.00792 0.000582899 1.07462e-10 -0.00291839 0.996526 1.17153e-10 -2.242e-12 2.08656e-10 0.996398)
(1.0079 0.00114206 -4.26695e-11 -0.00312211 0.99665 2.36521e-12 -6.56193e-12 1.1472e-09 0.996421)
(1.00788 0.00187344 -3.28686e-13 -0.00330947 0.996969 -1.91804e-10 -4.12091e-12 1.83053e-10 0.996434)
(1.00785 0.0026413 -1.75825e-10 -0.00351901 0.997331 1.20312e-11 -8.66801e-13 -3.57294e-10 0.996493)
(1.00786 -3.62578e-05 -1.0226e-12 -0.000163962 0.996432 -3.23792e-10 -7.11358e-14 -1.21032e-10 0.996433)
(1.0079 -5.81765e-05 -2.11526e-12 -0.000390031 0.996388 -1.89067e-11 -2.28148e-13 8.5075e-11 0.996391)
(1.00791 -0.000105285 1.3316e-12 -0.000634142 0.996387 -1.30337e-10 -3.65269e-13 -8.13365e-11 0.996389)
(1.00791 -0.000153537 4.34371e-12 -0.000881153 0.996375 3.57712e-11 6.74282e-14 -5.97336e-10 0.996389)
(1.00792 -0.000185721 9.22942e-12 -0.0011261 0.996372 1.97308e-10 -7.55559e-13 2.31763e-10 0.996383)
(1.00792 -0.000237198 -4.0445e-12 -0.00137149 0.996355 -5.77432e-11 -2.63584e-12 1.16092e-09 0.996383)
(1.00793 -0.000242376 -2.14584e-11 -0.00161166 0.996352 -2.31458e-10 -1.53784e-12 1.71651e-10 0.996375)
(1.00794 -0.000264167 3.78708e-13 -0.00185175 0.996333 -8.59734e-11 1.27631e-12 -1.1965e-09 0.996375)
(1.00795 -0.000227906 4.26983e-11 -0.0020841 0.99634 1.31816e-10 -3.40497e-13 -2.06982e-10 0.996365)
(1.00795 -0.00018384 7.01924e-12 -0.00231605 0.996331 -2.83009e-11 -4.63987e-12 1.16777e-09 0.996368)
(1.00796 -2.62136e-05 -8.0578e-11 -0.00253693 0.996364 -1.66278e-10 -1.6127e-12 -2.42018e-10 0.996359)
(1.00796 0.000205517 -4.62793e-12 -0.00275768 0.996392 1.45267e-11 2.08138e-12 -1.19864e-09 0.996368)
(1.00795 0.000589745 1.08224e-10 -0.00296236 0.996506 1.17693e-10 -2.25782e-12 2.10576e-10 0.996365)
(1.00794 0.00115765 -4.26149e-11 -0.00316567 0.996631 2.28711e-12 -6.61538e-12 1.15759e-09 0.996389)
(1.00793 0.00189933 -9.56829e-13 -0.00335141 0.996949 -1.91943e-10 -4.14773e-12 1.84653e-10 0.996403)
(1.00791 0.00267525 -1.75846e-10 -0.00355971 0.99731 1.18547e-11 -8.6843e-13 -3.60501e-10 0.996462)
(1.0079 -3.762e-05 -1.09623e-12 -0.000167168 0.996391 -3.27425e-10 -7.15045e-14 -1.22415e-10 0.996392)
(1.00794 -6.05045e-05 -2.26045e-12 -0.00039625 0.996352 -1.90541e-11 -2.29921e-13 8.59239e-11 0.996355)
(1.00794 -0.000109309 1.27317e-12 -0.000644193 0.996352 -1.3164e-10 -3.6744e-13 -8.21557e-11 0.996353)
(1.00795 -0.000158876 4.42735e-12 -0.000894988 0.996341 3.61078e-11 6.98573e-14 -6.03219e-10 0.996354)
(1.00795 -0.000192419 9.42367e-12 -0.00114362 0.996339 1.99297e-10 -7.62023e-13 2.34017e-10 0.996348)
(1.00796 -0.000245037 -4.15593e-12 -0.00139241 0.996323 -5.82533e-11 -2.65931e-12 1.17212e-09 0.996348)
(1.00797 -0.000251852 -2.17327e-11 -0.0016358 0.996321 -2.33551e-10 -1.54934e-12 1.73271e-10 0.99634)
(1.00798 -0.000273203 -1.37812e-14 -0.00187875 0.996304 -8.68159e-11 1.29203e-12 -1.20772e-09 0.996341)
(1.00798 -0.000236067 4.2682e-11 -0.00211356 0.996312 1.32863e-10 -3.41135e-13 -2.08817e-10 0.996332)
(1.00799 -0.00019161 6.96049e-12 -0.00234738 0.996305 -2.8519e-11 -4.67865e-12 1.17822e-09 0.996336)
(1.00799 -3.07943e-05 -8.15238e-11 -0.00256962 0.99634 -1.67338e-10 -1.62249e-12 -2.442e-10 0.996327)
(1.00799 0.000204997 -4.38574e-12 -0.00279103 0.99637 1.47882e-11 2.10328e-12 -1.20878e-09 0.996337)
(1.00799 0.000593586 1.08795e-10 -0.00299535 0.996485 1.18172e-10 -2.27341e-12 2.12312e-10 0.996335)
(1.00799 0.00116821 -4.25766e-11 -0.003198 0.996611 2.2064e-12 -6.66614e-12 1.16705e-09 0.996359)
(1.00797 0.00191782 -1.42744e-12 -0.00338208 0.996928 -1.92204e-10 -4.1745e-12 1.86123e-10 0.996374)
(1.00796 0.00269941 -1.75839e-10 -0.0035895 0.997288 1.16585e-11 -8.71179e-13 -3.63452e-10 0.996434)
(1.00794 -3.88495e-05 -1.14508e-12 -0.000169832 0.996355 -3.30638e-10 -7.19204e-14 -1.23638e-10 0.996356)
(1.00798 -6.26579e-05 -2.37036e-12 -0.000401346 0.99632 -1.91884e-11 -2.31651e-13 8.66836e-11 0.996323)
(1.00798 -0.000113008 1.21196e-12 -0.000652418 0.99632 -1.32807e-10 -3.69786e-13 -8.28892e-11 0.996321)
(1.00798 -0.000163814 4.51134e-12 -0.000906269 0.99631 3.64125e-11 7.15773e-14 -6.08489e-10 0.996322)
(1.00799 -0.00019863 9.61017e-12 -0.00115782 0.996308 2.01077e-10 -7.68111e-13 2.36039e-10 0.996316)
(1.00799 -0.000252396 -4.25991e-12 -0.0014093 0.996294 -5.87142e-11 -2.68106e-12 1.18218e-09 0.996317)
(1.008 -0.000260908 -2.19887e-11 -0.00165512 0.996293 -2.35432e-10 -1.56085e-12 1.74727e-10 0.996309)
(1.00801 -0.000281932 -3.81495e-13 -0.0019002 0.996277 -8.75705e-11 1.30512e-12 -1.21783e-09 0.996311)
(1.00801 -0.000244242 4.25959e-11 -0.00213674 0.996286 1.33761e-10 -3.42233e-13 -2.10474e-10 0.996302)
(1.00802 -0.000199669 6.90099e-12 -0.00237176 0.996281 -2.8722e-11 -4.71491e-12 1.18769e-09 0.996306)
(1.00803 -3.64017e-05 -8.22629e-11 -0.00259495 0.996317 -1.68238e-10 -1.63315e-12 -2.46185e-10 0.996299)
(1.00803 0.000202266 -4.19348e-12 -0.00281663 0.996348 1.49962e-11 2.12218e-12 -1.21806e-09 0.996308)
(1.00803 0.000593969 1.09255e-10 -0.00302037 0.996463 1.1865e-10 -2.28871e-12 2.13911e-10 0.996307)
(1.00803 0.00117386 -4.2552e-11 -0.00322263 0.996589 2.12384e-12 -6.71432e-12 1.17581e-09 0.996332)
(1.00802 0.00193026 -1.94345e-12 -0.00340577 0.996907 -1.92628e-10 -4.2008e-12 1.87494e-10 0.996347)
(1.00802 0.00271736 -1.75918e-10 -0.00361331 0.997266 1.14502e-11 -8.75276e-13 -3.66206e-10 0.996407)
(1.00797 -3.99875e-05 -1.19257e-12 -0.000172018 0.996323 -3.33512e-10 -7.23732e-14 -1.24733e-10 0.996324)
(1.00801 -6.47251e-05 -2.49243e-12 -0.00040547 0.996291 -1.93115e-11 -2.3334e-13 8.73694e-11 0.996294)
(1.00801 -0.00011655 1.14892e-12 -0.00065906 0.996292 -1.33858e-10 -3.72283e-13 -8.35515e-11 0.996292)
(1.00801 -0.000168577 4.58938e-12 -0.000915334 0.996281 3.66913e-11 7.26894e-14 -6.13253e-10 0.996293)
(1.00802 -0.000204652 9.7955e-12 -0.00116916 0.996281 2.02678e-10 -7.73869e-13 2.37869e-10 0.996287)
(1.00802 -0.000259644 -4.36091e-12 -0.00142268 0.996267 -5.91365e-11 -2.7014e-12 1.19131e-09 0.996289)
(1.00803 -0.000269962 -2.2244e-11 -0.00167025 0.996266 -2.37141e-10 -1.57237e-12 1.76051e-10 0.996281)
(1.00804 -0.000290892 -7.28817e-13 -0.00191684 0.996252 -8.82631e-11 1.31608e-12 -1.22705e-09 0.996283)
(1.00805 -0.000253065 4.24573e-11 -0.00215445 0.996262 1.34485e-10 -3.4367e-13 -2.1199e-10 0.996275)
(1.00805 -0.000208712 6.83845e-12 -0.00239022 0.996258 -2.89177e-11 -4.74931e-12 1.1964e-09 0.996279)
(1.00806 -4.37978e-05 -8.282e-11 -0.002614 0.996294 -1.68972e-10 -1.64441e-12 -2.48016e-10 0.996272)
(1.00807 0.000196846 -4.0162e-12 -0.002836 0.996325 1.51531e-11 2.13873e-12 -1.22667e-09 0.996282)
(1.00807 0.000590741 1.09613e-10 -0.00303899 0.996441 1.19207e-10 -2.3038e-12 2.15405e-10 0.996281)
(1.00807 0.00117496 -4.2544e-11 -0.00324122 0.996567 2.04079e-12 -6.76055e-12 1.18404e-09 0.996306)
(1.00807 0.00193756 -2.50395e-12 -0.00342394 0.996885 -1.93202e-10 -4.22668e-12 1.88788e-10 0.996322)
(1.00807 0.00273001 -1.76071e-10 -0.00363193 0.997244 1.12358e-11 -8.80263e-13 -3.688e-10 0.996382)
(1.00801 -4.10735e-05 -1.22391e-12 -0.000173787 0.996294 -3.36103e-10 -7.28576e-14 -1.25721e-10 0.996295)
(1.00803 -6.68104e-05 -2.61367e-12 -0.000408694 0.996264 -1.94275e-11 -2.35006e-13 8.79972e-11 0.996267)
(1.00804 -0.000120112 1.08496e-12 -0.000664243 0.996265 -1.34819e-10 -3.74904e-13 -8.41583e-11 0.996265)
(1.00804 -0.000173406 4.677e-12 -0.000922378 0.996255 3.69525e-11 7.33495e-14 -6.17624e-10 0.996266)
(1.00805 -0.000210798 9.99154e-12 -0.00117792 0.996255 2.04146e-10 -7.79399e-13 2.39552e-10 0.996261)
(1.00805 -0.00026716 -4.46371e-12 -0.00143297 0.996242 -5.95312e-11 -2.72076e-12 1.19972e-09 0.996262)
(1.00806 -0.000279425 -2.2529e-11 -0.00168178 0.996242 -2.3874e-10 -1.58395e-12 1.77276e-10 0.996255)
(1.00807 -0.000300604 -1.05202e-12 -0.00192946 0.996228 -8.88973e-11 1.32552e-12 -1.23561e-09 0.996257)
(1.00808 -0.000262949 4.23694e-11 -0.0021676 0.996238 1.35188e-10 -3.45328e-13 -2.13404e-10 0.996249)
(1.00809 -0.000218765 6.7655e-12 -0.00240416 0.996235 -2.91062e-11 -4.78259e-12 1.20455e-09 0.996254)
(1.00809 -5.33471e-05 -8.30216e-11 -0.00262789 0.996272 -1.6973e-10 -1.65605e-12 -2.49737e-10 0.996247)
(1.0081 0.000188335 -3.80004e-12 -0.00285004 0.996303 1.523e-11 2.15349e-12 -1.23479e-09 0.996257)
(1.00811 0.000584465 1.09992e-10 -0.00305271 0.996419 1.19908e-10 -2.31878e-12 2.16823e-10 0.996256)
(1.00811 0.0011724 -4.25473e-11 -0.00325474 0.996546 1.95847e-12 -6.80568e-12 1.19187e-09 0.996282)
(1.00811 0.00194091 -3.2105e-12 -0.00343713 0.996863 -1.93867e-10 -4.25258e-12 1.90024e-10 0.996297)
(1.00812 0.00273812 -1.76179e-10 -0.00364516 0.997223 1.10199e-11 -8.85625e-13 -3.71279e-10 0.996358)
(1.00803 -4.21519e-05 -1.27865e-12 -0.000175172 0.996267 -3.38472e-10 -7.33681e-14 -1.26625e-10 0.996268)
(1.00806 -6.90144e-05 -2.74771e-12 -0.000411124 0.996239 -1.95372e-11 -2.36658e-13 8.85801e-11 0.996243)
(1.00806 -0.000123867 1.01732e-12 -0.000668157 0.996241 -1.35708e-10 -3.77637e-13 -8.47219e-11 0.99624)
(1.00807 -0.000178515 4.76207e-12 -0.000927683 0.996231 3.7199e-11 7.36375e-14 -6.21691e-10 0.996242)
(1.00807 -0.000217331 1.0201e-11 -0.00118451 0.996231 2.05503e-10 -7.84763e-13 2.41121e-10 0.996236)
(1.00808 -0.000275207 -4.57503e-12 -0.00144068 0.996218 -5.9905e-11 -2.73932e-12 1.20757e-09 0.996238)
(1.00809 -0.000289605 -2.28408e-11 -0.00169035 0.996218 -2.40253e-10 -1.59559e-12 1.78424e-10 0.996231)
(1.0081 -0.000311273 -1.37766e-12 -0.00193888 0.996204 -8.94794e-11 1.33373e-12 -1.24366e-09 0.996233)
(1.00811 -0.000273891 4.23442e-11 -0.00217728 0.996215 1.35978e-10 -3.47192e-13 -2.14739e-10 0.996225)
(1.00812 -0.000229887 6.68736e-12 -0.00241463 0.996212 -2.92828e-11 -4.81498e-12 1.21227e-09 0.99623)
(1.00813 -6.50847e-05 -8.29152e-11 -0.00263783 0.99625 -1.70541e-10 -1.66802e-12 -2.51376e-10 0.996223)
(1.00814 0.000176796 -3.53933e-12 -0.00285986 0.99628 1.53283e-11 2.16702e-12 -1.24255e-09 0.996234)
(1.00815 0.000575331 1.10427e-10 -0.00306255 0.996397 1.20509e-10 -2.33375e-12 2.18184e-10 0.996233)
(1.00815 0.00116645 -4.25594e-11 -0.00326429 0.996523 1.87406e-12 -6.85016e-12 1.19942e-09 0.996259)
(1.00816 0.00194059 -4.06577e-12 -0.00344645 0.996841 -1.94546e-10 -4.27847e-12 1.91219e-10 0.996274)
(1.00816 0.00274258 -1.76302e-10 -0.00365459 0.997202 1.07836e-11 -8.91385e-13 -3.73669e-10 0.996335)
(1.00806 -4.32789e-05 -1.29964e-12 -0.000176217 0.996242 -3.4067e-10 -7.39024e-14 -1.27463e-10 0.996243)
(1.00809 -7.13883e-05 -2.88544e-12 -0.000412883 0.996216 -1.96422e-11 -2.38304e-13 8.91306e-11 0.996219)
(1.00809 -0.000127908 9.45033e-13 -0.000670993 0.996217 -1.36544e-10 -3.80462e-13 -8.52543e-11 0.996217)
(1.0081 -0.000184045 4.86407e-12 -0.000931526 0.996208 3.74367e-11 7.36479e-14 -6.25538e-10 0.996218)
(1.0081 -0.000224457 1.0427e-11 -0.00118925 0.996208 2.06792e-10 -7.9002e-13 2.42608e-10 0.996213)
(1.00811 -0.000283988 -4.69551e-12 -0.00144629 0.996195 -6.02641e-11 -2.75733e-12 1.21504e-09 0.996215)
(1.00812 -0.00030078 -2.31671e-11 -0.00169654 0.996195 -2.41743e-10 -1.60729e-12 1.79519e-10 0.996208)
(1.00813 -0.000323082 -1.7367e-12 -0.00194568 0.996181 -9.00128e-11 1.34111e-12 -1.25134e-09 0.99621)
(1.00814 -0.000286188 4.22631e-11 -0.00218445 0.996192 1.36867e-10 -3.49265e-13 -2.16021e-10 0.996202)
(1.00815 -0.000243011 6.60172e-12 -0.00242199 0.996189 -2.94493e-11 -4.84654e-12 1.21968e-09 0.996206)
(1.00816 -7.9122e-05 -8.29278e-11 -0.0026453 0.996227 -1.7149e-10 -1.68048e-12 -2.52961e-10 0.9962)
(1.00818 0.000162761 -3.30186e-12 -0.00286701 0.996257 1.54242e-11 2.17992e-12 -1.25008e-09 0.996211)
(1.00819 0.000563348 1.10911e-10 -0.00307026 0.996374 1.21127e-10 -2.34865e-12 2.19508e-10 0.99621)
(1.0082 0.00115758 -4.25833e-11 -0.00327165 0.996501 1.78976e-12 -6.8939e-12 1.20677e-09 0.996236)
(1.0082 0.00193838 -5.25088e-12 -0.00345505 0.996819 -1.95302e-10 -4.30378e-12 1.92387e-10 0.996251)
(1.00821 0.0027459 -1.76402e-10 -0.00366259 0.997181 1.05477e-11 -8.97676e-13 -3.76001e-10 0.996312)
(1.00809 -4.44739e-05 -1.34888e-12 -0.000176974 0.996219 -3.42742e-10 -7.44565e-14 -1.28255e-10 0.99622)
(1.00811 -7.39857e-05 -3.04066e-12 -0.000414155 0.996194 -1.97432e-11 -2.39949e-13 8.96577e-11 0.996197)
(1.00812 -0.000132362 8.5785e-13 -0.000673051 0.996195 -1.37342e-10 -3.83369e-13 -8.57641e-11 0.996195)
(1.00812 -0.00019013 4.96655e-12 -0.00093431 0.996185 3.76674e-11 7.34485e-14 -6.29227e-10 0.996196)
(1.00813 -0.000232326 1.06611e-11 -0.00119274 0.996185 2.08038e-10 -7.95187e-13 2.44035e-10 0.996191)
(1.00814 -0.000293657 -4.83244e-12 -0.00145045 0.996172 -6.06111e-11 -2.77488e-12 1.22221e-09 0.996192)
(1.00815 -0.000312997 -2.35233e-11 -0.00170118 0.996173 -2.43187e-10 -1.61898e-12 1.80574e-10 0.996185)
(1.00816 -0.000336065 -2.12346e-12 -0.00195078 0.996159 -9.05401e-11 1.34772e-12 -1.25875e-09 0.996187)
(1.00817 -0.000299943 4.2118e-11 -0.00218991 0.996169 1.37564e-10 -3.51538e-13 -2.17259e-10 0.996179)
(1.00818 -0.000258057 6.50262e-12 -0.00242721 0.996167 -2.96217e-11 -4.87733e-12 1.22687e-09 0.996184)
(1.0082 -9.52399e-05 -8.30273e-11 -0.00265097 0.996205 -1.72139e-10 -1.69354e-12 -2.54498e-10 0.996178)
(1.00821 0.000146434 -3.07929e-12 -0.00287228 0.996235 1.56306e-11 2.19212e-12 -1.25742e-09 0.996188)
(1.00823 0.000549069 1.11508e-10 -0.00307606 0.996352 1.21465e-10 -2.36357e-12 2.20794e-10 0.996187)
(1.00824 0.00114617 -4.26153e-11 -0.00327736 0.99648 1.70271e-12 -6.93681e-12 1.21395e-09 0.996213)
(1.00825 0.00193406 -6.72538e-12 -0.00346242 0.996798 -1.95435e-10 -4.32883e-12 1.9352e-10 0.996229)
(1.00825 0.00274782 -1.76495e-10 -0.0036689 0.997159 1.02063e-11 -9.047e-13 -3.78222e-10 0.99629)
(1.00811 -4.57754e-05 -1.42351e-12 -0.000177522 0.996196 -3.44725e-10 -7.50272e-14 -1.29012e-10 0.996197)
(1.00814 -7.67973e-05 -3.20486e-12 -0.000415074 0.996172 -1.98408e-11 -2.41596e-13 9.01681e-11 0.996175)
(1.00814 -0.000137205 7.64848e-13 -0.000674542 0.996173 -1.38112e-10 -3.86346e-13 -8.62577e-11 0.996173)
(1.00815 -0.000196736 5.08816e-12 -0.000936264 0.996163 3.78911e-11 7.30983e-14 -6.32801e-10 0.996174)
(1.00815 -0.000240855 1.09132e-11 -0.00119521 0.996164 2.0924e-10 -8.00298e-13 2.45419e-10 0.996169)
(1.00816 -0.000304258 -4.97882e-12 -0.00145333 0.99615 -6.09491e-11 -2.79214e-12 1.22917e-09 0.996171)
(1.00817 -0.000326239 -2.39732e-11 -0.00170427 0.996151 -2.44608e-10 -1.6307e-12 1.81599e-10 0.996163)
(1.00819 -0.000350425 -2.49073e-12 -0.0019544 0.996137 -9.10427e-11 1.35378e-12 -1.26596e-09 0.996166)
(1.0082 -0.000315256 4.2129e-11 -0.00219389 0.996147 1.38194e-10 -3.53946e-13 -2.18466e-10 0.996158)
(1.00822 -0.000274862 6.39721e-12 -0.00243072 0.996145 -2.97961e-11 -4.90791e-12 1.23392e-09 0.996162)
(1.00823 -0.000113485 -8.32453e-11 -0.00265461 0.996182 -1.72744e-10 -1.70702e-12 -2.56005e-10 0.996156)
(1.00825 0.000127894 -2.86777e-12 -0.00287542 0.996213 1.58453e-11 2.20385e-12 -1.26464e-09 0.996166)
(1.00826 0.000532608 1.12214e-10 -0.00307912 0.99633 1.21887e-10 -2.37882e-12 2.22062e-10 0.996165)
(1.00827 0.00113224 -4.26527e-11 -0.00328031 0.996459 1.61756e-12 -6.97972e-12 1.22103e-09 0.996191)
(1.00829 0.00192548 -7.99849e-12 -0.00346518 0.996777 -1.95397e-10 -4.35467e-12 1.94634e-10 0.996207)
(1.0083 0.00274524 -1.76737e-10 -0.00367157 0.997137 9.83424e-12 -9.11906e-13 -3.80395e-10 0.996268)
(1.00814 -4.71843e-05 -1.463e-12 -0.00017792 0.996175 -3.46642e-10 -7.56121e-14 -1.29744e-10 0.996176)
(1.00816 -7.98348e-05 -3.39336e-12 -0.000415764 0.996151 -1.99357e-11 -2.43252e-13 9.06664e-11 0.996154)
(1.00817 -0.000142469 6.75229e-13 -0.000675645 0.996152 -1.38856e-10 -3.89381e-13 -8.67396e-11 0.996152)
(1.00817 -0.000203853 5.2057e-12 -0.000937661 0.996142 3.81098e-11 7.26188e-14 -6.363e-10 0.996153)
(1.00818 -0.000250176 1.1133e-11 -0.00119693 0.996142 2.10403e-10 -8.05396e-13 2.46774e-10 0.996148)
(1.00819 -0.000315903 -5.144e-12 -0.00145514 0.996129 -6.12841e-11 -2.80933e-12 1.23599e-09 0.996149)
(1.0082 -0.000340639 -2.44603e-11 -0.00170628 0.996129 -2.46093e-10 -1.6425e-12 1.82607e-10 0.996142)
(1.00822 -0.000366275 -2.86946e-12 -0.00195669 0.996115 -9.15262e-11 1.35948e-12 -1.27304e-09 0.996144)
(1.00823 -0.000332307 4.21782e-11 -0.00219668 0.996124 1.3855e-10 -3.56498e-13 -2.1965e-10 0.996136)
(1.00825 -0.000293481 6.28229e-12 -0.00243286 0.996122 -2.99794e-11 -4.93846e-12 1.24087e-09 0.99614)
(1.00827 -0.000133672 -8.34984e-11 -0.0026572 0.996159 -1.73155e-10 -1.72097e-12 -2.57493e-10 0.996134)
(1.00829 0.000107682 -2.60195e-12 -0.00287713 0.99619 1.61095e-11 2.21536e-12 -1.27179e-09 0.996144)
(1.0083 0.000515154 1.13026e-10 -0.00308123 0.996307 1.22215e-10 -2.39439e-12 2.23319e-10 0.996144)
(1.00831 0.00111611 -4.26926e-11 -0.0032811 0.996438 1.52966e-12 -7.02303e-12 1.22807e-09 0.996169)
(1.00833 0.00191402 -9.56462e-12 -0.00346526 0.996755 -1.95558e-10 -4.38123e-12 1.95747e-10 0.996185)
(1.00834 0.00274052 -1.7699e-10 -0.00367199 0.997116 9.4512e-12 -9.19341e-13 -3.82559e-10 0.996246)
(1.00816 -4.86983e-05 -1.54723e-12 -0.000178219 0.996154 -3.48513e-10 -7.62091e-14 -1.30459e-10 0.996155)
(1.00819 -8.31565e-05 -3.58594e-12 -0.000416262 0.99613 -2.00306e-11 -2.44918e-13 9.11553e-11 0.996133)
(1.00819 -0.000148274 5.71137e-13 -0.000676437 0.996131 -1.39583e-10 -3.92468e-13 -8.72127e-11 0.996131)
(1.0082 -0.00021158 5.33227e-12 -0.000938654 0.996121 3.8326e-11 7.20252e-14 -6.3974e-10 0.996132)
(1.00821 -0.000260372 1.13183e-11 -0.00119826 0.996121 2.11515e-10 -8.1049e-13 2.48108e-10 0.996127)
(1.00822 -0.00032847 -5.32564e-12 -0.00145621 0.996107 -6.16186e-11 -2.82664e-12 1.24274e-09 0.996128)
(1.00823 -0.000355338 -2.50623e-11 -0.00170801 0.996107 -2.47501e-10 -1.65441e-12 1.83602e-10 0.996121)
(1.00825 -0.000383727 -3.09979e-12 -0.00195765 0.996094 -9.2037e-11 1.36503e-12 -1.28005e-09 0.996123)
(1.00826 -0.000351808 4.26183e-11 -0.00219776 0.996101 1.38706e-10 -3.59171e-13 -2.2082e-10 0.996115)
(1.00828 -0.000313898 6.15357e-12 -0.00243375 0.996099 -3.01709e-11 -4.96915e-12 1.24776e-09 0.996119)
(1.0083 -0.000155957 -8.37757e-11 -0.00265819 0.996136 -1.73239e-10 -1.73526e-12 -2.58965e-10 0.996113)
(1.00832 8.53791e-05 -2.30944e-12 -0.00287765 0.996167 1.64881e-11 2.22673e-12 -1.27892e-09 0.996123)
(1.00834 0.000495359 1.13786e-10 -0.00308204 0.996284 1.22171e-10 -2.41012e-12 2.24567e-10 0.996122)
(1.00836 0.00109778 -4.27434e-11 -0.00328109 0.996415 1.43445e-12 -7.06677e-12 1.23511e-09 0.996147)