/*--------------------------------*- C++ -*----------------------------------*\
| =========                 |                                                 |
| \\      /  F ield         | foam-extend: Open Source CFD                    |
|  \\    /   O peration     | Version:     4.1-20200408                       |
|   \\  /    A nd           | Web:         http://www.foam-extend.org         |
|    \\/     M anipulation  |                                                 |
\*---------------------------------------------------------------------------*/
FoamFile
{
    version     2.0;
    format      ascii;
    class       volVectorField;
    location    "0.0230000";
    object      U;
}
// * * * * * * * * * * * * * * * * * * * * * * * * * * * * * * * * * * * * * //

dimensions      [0 1 0 0 0 0 0];

internalField   nonuniform List<vector> 
1952
(
(0.0229332 -2.32037e-07 0)
(0.0229332 -3.78377e-07 0)
(0.0229332 -5.26396e-07 0)
(0.0229332 -6.77085e-07 0)
(0.0229332 -8.26902e-07 0)
(0.0229332 -9.80591e-07 0)
(0.0229332 -1.13191e-06 0)
(0.0229332 -1.28863e-06 0)
(0.0229332 -1.44085e-06 0)
(0.0229332 -1.60029e-06 0)
(0.0229332 -1.75165e-06 0)
(0.0229332 -1.91128e-06 0)
(0.0229332 -2.05527e-06 0)
(0.0229333 -2.20719e-06 0)
(0.0229334 -2.32633e-06 0)
(0.0229332 -9.94326e-08 0)
(0.0229328 -2.3799e-07 0)
(0.0229328 -3.88106e-07 0)
(0.0229328 -5.40093e-07 0)
(0.0229328 -6.94506e-07 0)
(0.0229328 -8.483e-07 0)
(0.0229328 -1.00564e-06 0)
(0.0229328 -1.16095e-06 0)
(0.0229328 -1.32127e-06 0)
(0.0229328 -1.47745e-06 0)
(0.0229328 -1.64044e-06 0)
(0.0229328 -1.79572e-06 0)
(0.0229328 -1.95875e-06 0)
(0.0229329 -2.10643e-06 0)
(0.0229329 -2.26121e-06 0)
(0.022933 -2.38252e-06 0)
(0.0229329 -1.01981e-07 0)
(0.0229325 -2.43456e-07 0)
(0.0229325 -3.96982e-07 0)
(0.0229325 -5.52435e-07 0)
(0.0229325 -7.10179e-07 0)
(0.0229325 -8.67421e-07 0)
(0.0229325 -1.02799e-06 0)
(0.0229325 -1.18665e-06 0)
(0.0229324 -1.35012e-06 0)
(0.0229324 -1.50949e-06 0)
(0.0229324 -1.67538e-06 0)
(0.0229324 -1.83353e-06 0)
(0.0229324 -1.99896e-06 0)
(0.0229325 -2.14875e-06 0)
(0.0229325 -2.30481e-06 0)
(0.0229326 -2.4265e-06 0)
(0.0229325 -1.0432e-07 0)
(0.0229321 -2.48387e-07 0)
(0.0229321 -4.04952e-07 0)
(0.0229321 -5.63447e-07 0)
(0.0229321 -7.24163e-07 0)
(0.0229321 -8.84417e-07 0)
(0.0229321 -1.0478e-06 0)
(0.0229321 -1.2093e-06 0)
(0.0229321 -1.37547e-06 0)
(0.0229321 -1.53744e-06 0)
(0.0229321 -1.70568e-06 0)
(0.0229321 -1.866e-06 0)
(0.0229321 -2.03317e-06 0)
(0.0229321 -2.18437e-06 0)
(0.0229322 -2.34123e-06 0)
(0.0229323 -2.46329e-06 0)
(0.0229321 -1.06433e-07 0)
(0.0229318 -2.52741e-07 0)
(0.0229318 -4.12001e-07 0)
(0.0229318 -5.73192e-07 0)
(0.0229317 -7.3655e-07 0)
(0.0229317 -8.99403e-07 0)
(0.0229317 -1.06527e-06 0)
(0.0229317 -1.22918e-06 0)
(0.0229317 -1.39764e-06 0)
(0.0229317 -1.56173e-06 0)
(0.0229317 -1.73188e-06 0)
(0.0229317 -1.8939e-06 0)
(0.0229317 -2.06241e-06 0)
(0.0229317 -2.2147e-06 0)
(0.0229318 -2.37222e-06 0)
(0.0229319 -2.49492e-06 0)
(0.0229318 -1.08299e-07 0)
(0.0229314 -2.5658e-07 0)
(0.0229314 -4.18216e-07 0)
(0.0229314 -5.81772e-07 0)
(0.0229314 -7.47464e-07 0)
(0.0229314 -9.12554e-07 0)
(0.0229314 -1.0806e-06 0)
(0.0229313 -1.24658e-06 0)
(0.0229313 -1.41696e-06 0)
(0.0229313 -1.58285e-06 0)
(0.0229313 -1.75459e-06 0)
(0.0229313 -1.91802e-06 0)
(0.0229313 -2.08765e-06 0)
(0.0229314 -2.24091e-06 0)
(0.0229314 -2.39914e-06 0)
(0.0229315 -2.52264e-06 0)
(0.0229314 -1.09944e-07 0)
(0.022931 -2.59951e-07 0)
(0.022931 -4.2368e-07 0)
(0.022931 -5.89315e-07 0)
(0.022931 -7.57053e-07 0)
(0.022931 -9.24105e-07 0)
(0.022931 -1.09404e-06 0)
(0.022931 -1.26182e-06 0)
(0.022931 -1.43386e-06 0)
(0.022931 -1.6013e-06 0)
(0.0229309 -1.77439e-06 0)
(0.0229309 -1.93906e-06 0)
(0.022931 -2.1097e-06 0)
(0.022931 -2.26389e-06 0)
(0.0229311 -2.42288e-06 0)
(0.0229312 -2.54729e-06 0)
(0.022931 -1.1139e-07 0)
(0.0229307 -2.62919e-07 0)
(0.0229306 -4.28494e-07 0)
(0.0229306 -5.95958e-07 0)
(0.0229306 -7.655e-07 0)
(0.0229306 -9.34274e-07 0)
(0.0229306 -1.10587e-06 0)
(0.0229306 -1.27522e-06 0)
(0.0229306 -1.44872e-06 0)
(0.0229306 -1.61754e-06 0)
(0.0229306 -1.79185e-06 0)
(0.0229306 -1.95765e-06 0)
(0.0229306 -2.12926e-06 0)
(0.0229306 -2.28438e-06 0)
(0.0229307 -2.44421e-06 0)
(0.0229308 -2.56956e-06 0)
(0.0229307 -1.12662e-07 0)
(0.0229303 -2.65547e-07 0)
(0.0229303 -4.32756e-07 0)
(0.0229303 -6.01842e-07 0)
(0.0229303 -7.72981e-07 0)
(0.0229302 -9.43288e-07 0)
(0.0229302 -1.11636e-06 0)
(0.0229302 -1.28713e-06 0)
(0.0229302 -1.46195e-06 0)
(0.0229302 -1.63203e-06 0)
(0.0229302 -1.80748e-06 0)
(0.0229302 -1.97436e-06 0)
(0.0229302 -2.14695e-06 0)
(0.0229302 -2.30304e-06 0)
(0.0229303 -2.46379e-06 0)
(0.0229304 -2.59017e-06 0)
(0.0229303 -1.13789e-07 0)
(0.0229299 -2.67898e-07 0)
(0.0229299 -4.36573e-07 0)
(0.0229299 -6.07112e-07 0)
(0.0229299 -7.79688e-07 0)
(0.0229299 -9.51381e-07 0)
(0.0229299 -1.1258e-06 0)
(0.0229298 -1.29786e-06 0)
(0.0229298 -1.47389e-06 0)
(0.0229298 -1.64517e-06 0)
(0.0229298 -1.8217e-06 0)
(0.0229298 -1.98964e-06 0)
(0.0229298 -2.16324e-06 0)
(0.0229299 -2.32033e-06 0)
(0.0229299 -2.48207e-06 0)
(0.02293 -2.60949e-06 0)
(0.0229299 -1.14798e-07 0)
(0.0229295 -2.7002e-07 0)
(0.0229295 -4.40019e-07 0)
(0.0229295 -6.11876e-07 0)
(0.0229295 -7.8576e-07 0)
(0.0229295 -9.58721e-07 0)
(0.0229295 -1.13438e-06 0)
(0.0229295 -1.30764e-06 0)
(0.0229294 -1.48482e-06 0)
(0.0229294 -1.65724e-06 0)
(0.0229294 -1.83481e-06 0)
(0.0229294 -2.00382e-06 0)
(0.0229294 -2.17845e-06 0)
(0.0229295 -2.33655e-06 0)
(0.0229295 -2.49931e-06 0)
(0.0229297 -2.62773e-06 0)
(0.0229295 -1.15708e-07 0)
(0.0229291 -2.71962e-07 0)
(0.0229291 -4.43177e-07 0)
(0.0229291 -6.16248e-07 0)
(0.0229291 -7.91344e-07 0)
(0.0229291 -9.65488e-07 0)
(0.0229291 -1.14231e-06 0)
(0.0229291 -1.31673e-06 0)
(0.0229291 -1.49501e-06 0)
(0.0229291 -1.66855e-06 0)
(0.022929 -1.84714e-06 0)
(0.022929 -2.01718e-06 0)
(0.0229291 -2.19289e-06 0)
(0.0229291 -2.352e-06 0)
(0.0229292 -2.51579e-06 0)
(0.0229293 -2.64521e-06 0)
(0.0229291 -1.16541e-07 0)
(0.0229288 -2.73765e-07 0)
(0.0229288 -4.46111e-07 0)
(0.0229287 -6.20316e-07 0)
(0.0229287 -7.96548e-07 0)
(0.0229287 -9.71811e-07 0)
(0.0229287 -1.14975e-06 0)
(0.0229287 -1.32526e-06 0)
(0.0229287 -1.50463e-06 0)
(0.0229287 -1.67925e-06 0)
(0.0229287 -1.85888e-06 0)
(0.0229287 -2.02997e-06 0)
(0.0229287 -2.20675e-06 0)
(0.0229287 -2.36688e-06 0)
(0.0229288 -2.53173e-06 0)
(0.0229289 -2.66215e-06 0)
(0.0229288 -1.17314e-07 0)
(0.0229284 -2.75467e-07 0)
(0.0229284 -4.48882e-07 0)
(0.0229284 -6.24164e-07 0)
(0.0229284 -8.01483e-07 0)
(0.0229283 -9.77816e-07 0)
(0.0229283 -1.15684e-06 0)
(0.0229283 -1.33341e-06 0)
(0.0229283 -1.51387e-06 0)
(0.0229283 -1.68952e-06 0)
(0.0229283 -1.87024e-06 0)
(0.0229283 -2.04237e-06 0)
(0.0229283 -2.22022e-06 0)
(0.0229283 -2.38139e-06 0)
(0.0229284 -2.54729e-06 0)
(0.0229285 -2.6787e-06 0)
(0.0229284 -1.18043e-07 0)
(0.022928 -2.77097e-07 0)
(0.022928 -4.51537e-07 0)
(0.022928 -6.27854e-07 0)
(0.022928 -8.06221e-07 0)
(0.022928 -9.83587e-07 0)
(0.0229279 -1.16367e-06 0)
(0.0229279 -1.34128e-06 0)
(0.0229279 -1.52279e-06 0)
(0.0229279 -1.6995e-06 0)
(0.0229279 -1.88125e-06 0)
(0.0229279 -2.05446e-06 0)
(0.0229279 -2.23332e-06 0)
(0.0229279 -2.39556e-06 0)
(0.022928 -2.56238e-06 0)
(0.0229281 -2.69486e-06 0)
(0.022928 -1.18742e-07 0)
(0.0229276 -2.78675e-07 0)
(0.0229276 -4.54107e-07 0)
(0.0229276 -6.31429e-07 0)
(0.0229276 -8.10813e-07 0)
(0.0229276 -9.89185e-07 0)
(0.0229275 -1.17031e-06 0)
(0.0229275 -1.34893e-06 0)
(0.0229275 -1.53149e-06 0)
(0.0229275 -1.70926e-06 0)
(0.0229275 -1.89205e-06 0)
(0.0229275 -2.06634e-06 0)
(0.0229275 -2.24623e-06 0)
(0.0229275 -2.40951e-06 0)
(0.0229276 -2.57722e-06 0)
(0.0229277 -2.71078e-06 0)
(0.0229276 -1.19418e-07 0)
(0.0229272 -2.80215e-07 0)
(0.0229272 -4.56616e-07 0)
(0.0229272 -6.34929e-07 0)
(0.0229272 -8.15311e-07 0)
(0.0229272 -9.94677e-07 0)
(0.0229272 -1.17684e-06 0)
(0.0229271 -1.35645e-06 0)
(0.0229271 -1.54003e-06 0)
(0.0229271 -1.7189e-06 0)
(0.0229271 -1.90271e-06 0)
(0.0229271 -2.07813e-06 0)
(0.0229271 -2.25903e-06 0)
(0.0229271 -2.42339e-06 0)
(0.0229272 -2.59204e-06 0)
(0.0229273 -2.72668e-06 0)
(0.0229272 -1.20078e-07 0)
(0.0229268 -2.81726e-07 0)
(0.0229268 -4.59079e-07 0)
(0.0229268 -6.3837e-07 0)
(0.0229268 -8.19738e-07 0)
(0.0229268 -1.0001e-06 0)
(0.0229268 -1.18329e-06 0)
(0.0229268 -1.36388e-06 0)
(0.0229267 -1.54846e-06 0)
(0.0229267 -1.72846e-06 0)
(0.0229267 -1.91326e-06 0)
(0.0229267 -2.08985e-06 0)
(0.0229267 -2.27174e-06 0)
(0.0229267 -2.43727e-06 0)
(0.0229268 -2.60688e-06 0)
(0.0229269 -2.74258e-06 0)
(0.0229268 -1.20725e-07 0)
(0.0229264 -2.83219e-07 0)
(0.0229264 -4.61513e-07 0)
(0.0229264 -6.41774e-07 0)
(0.0229264 -8.24108e-07 0)
(0.0229264 -1.00549e-06 0)
(0.0229264 -1.18965e-06 0)
(0.0229264 -1.37131e-06 0)
(0.0229263 -1.5569e-06 0)
(0.0229263 -1.73802e-06 0)
(0.0229263 -1.92383e-06 0)
(0.0229263 -2.1016e-06 0)
(0.0229263 -2.28448e-06 0)
(0.0229263 -2.45117e-06 0)
(0.0229264 -2.6217e-06 0)
(0.0229265 -2.75843e-06 0)
(0.0229264 -1.21364e-07 0)
(0.022926 -2.84696e-07 0)
(0.022926 -4.6392e-07 0)
(0.022926 -6.45147e-07 0)
(0.022926 -8.28433e-07 0)
(0.022926 -1.01084e-06 0)
(0.022926 -1.19596e-06 0)
(0.022926 -1.3787e-06 0)
(0.0229259 -1.56529e-06 0)
(0.0229259 -1.74754e-06 0)
(0.0229259 -1.93437e-06 0)
(0.0229259 -2.11332e-06 0)
(0.0229259 -2.29718e-06 0)
(0.0229259 -2.46504e-06 0)
(0.022926 -2.63647e-06 0)
(0.0229261 -2.77423e-06 0)
(0.0229261 -1.21996e-07 0)
(0.0229257 -2.8616e-07 0)
(0.0229256 -4.66304e-07 0)
(0.0229256 -6.48495e-07 0)
(0.0229256 -8.32729e-07 0)
(0.0229256 -1.01616e-06 0)
(0.0229256 -1.20226e-06 0)
(0.0229256 -1.38608e-06 0)
(0.0229255 -1.57368e-06 0)
(0.0229255 -1.75708e-06 0)
(0.0229255 -1.94494e-06 0)
(0.0229255 -2.12507e-06 0)
(0.0229255 -2.30995e-06 0)
(0.0229255 -2.47895e-06 0)
(0.0229256 -2.65133e-06 0)
(0.0229257 -2.79007e-06 0)
(0.0229257 -1.22623e-07 0)
(0.0229253 -2.87608e-07 0)
(0.0229253 -4.68663e-07 0)
(0.0229252 -6.5181e-07 0)
(0.0229252 -8.36984e-07 0)
(0.0229252 -1.02144e-06 0)
(0.0229252 -1.20851e-06 0)
(0.0229252 -1.39342e-06 0)
(0.0229251 -1.58205e-06 0)
(0.0229251 -1.76659e-06 0)
(0.0229251 -1.95549e-06 0)
(0.0229251 -2.1368e-06 0)
(0.0229251 -2.32269e-06 0)
(0.0229251 -2.49284e-06 0)
(0.0229252 -2.66616e-06 0)
(0.0229253 -2.80586e-06 0)
(0.0229253 -1.23242e-07 0)
(0.0229249 -2.89038e-07 0)
(0.0229249 -4.70997e-07 0)
(0.0229249 -6.55093e-07 0)
(0.0229248 -8.41202e-07 0)
(0.0229248 -1.02668e-06 0)
(0.0229248 -1.21472e-06 0)
(0.0229248 -1.40073e-06 0)
(0.0229247 -1.59037e-06 0)
(0.0229247 -1.77606e-06 0)
(0.0229247 -1.96603e-06 0)
(0.0229247 -2.14851e-06 0)
(0.0229247 -2.33543e-06 0)
(0.0229247 -2.50674e-06 0)
(0.0229248 -2.68096e-06 0)
(0.0229249 -2.82162e-06 0)
(0.0229249 -1.23854e-07 0)
(0.0229245 -2.90437e-07 0)
(0.0229245 -4.73294e-07 0)
(0.0229245 -6.58333e-07 0)
(0.0229244 -8.45369e-07 0)
(0.0229244 -1.03187e-06 0)
(0.0229244 -1.22087e-06 0)
(0.0229244 -1.40796e-06 0)
(0.0229243 -1.59862e-06 0)
(0.0229243 -1.78547e-06 0)
(0.0229243 -1.97649e-06 0)
(0.0229243 -2.16014e-06 0)
(0.0229243 -2.34811e-06 0)
(0.0229243 -2.52056e-06 0)
(0.0229244 -2.69572e-06 0)
(0.0229245 -2.83733e-06 0)
(0.0229245 -1.24451e-07 0)
(0.0229241 -2.91798e-07 0)
(0.0229241 -4.75544e-07 0)
(0.0229241 -6.61528e-07 0)
(0.022924 -8.49479e-07 0)
(0.022924 -1.03699e-06 0)
(0.022924 -1.22695e-06 0)
(0.022924 -1.41511e-06 0)
(0.0229239 -1.6068e-06 0)
(0.0229239 -1.79478e-06 0)
(0.0229239 -1.98686e-06 0)
(0.0229239 -2.17167e-06 0)
(0.0229239 -2.36071e-06 0)
(0.0229239 -2.53426e-06 0)
(0.022924 -2.71042e-06 0)
(0.0229241 -2.85298e-06 0)
(0.0229241 -1.25033e-07 0)
(0.0229237 -2.93137e-07 0)
(0.0229237 -4.77745e-07 0)
(0.0229237 -6.64677e-07 0)
(0.0229236 -8.53522e-07 0)
(0.0229236 -1.04203e-06 0)
(0.0229236 -1.23294e-06 0)
(0.0229236 -1.42217e-06 0)
(0.0229235 -1.61486e-06 0)
(0.0229235 -1.80397e-06 0)
(0.0229235 -1.99711e-06 0)
(0.0229235 -2.18306e-06 0)
(0.0229235 -2.37316e-06 0)
(0.0229235 -2.5478e-06 0)
(0.0229236 -2.72493e-06 0)
(0.0229237 -2.86846e-06 0)
(0.0229237 -1.25606e-07 0)
(0.0229233 -2.9447e-07 0)
(0.0229233 -4.79917e-07 0)
(0.0229233 -6.67765e-07 0)
(0.0229232 -8.57495e-07 0)
(0.0229232 -1.04697e-06 0)
(0.0229232 -1.23883e-06 0)
(0.0229232 -1.42909e-06 0)
(0.0229231 -1.6228e-06 0)
(0.0229231 -1.81301e-06 0)
(0.0229231 -2.0072e-06 0)
(0.0229231 -2.19429e-06 0)
(0.0229231 -2.38544e-06 0)
(0.0229231 -2.56117e-06 0)
(0.0229231 -2.73926e-06 0)
(0.0229232 -2.88379e-06 0)
(0.0229233 -1.26176e-07 0)
(0.0229229 -2.95782e-07 0)
(0.0229229 -4.82046e-07 0)
(0.0229229 -6.70775e-07 0)
(0.0229228 -8.61384e-07 0)
(0.0229228 -1.0518e-06 0)
(0.0229228 -1.2446e-06 0)
(0.0229228 -1.43588e-06 0)
(0.0229227 -1.63058e-06 0)
(0.0229227 -1.82189e-06 0)
(0.0229227 -2.01713e-06 0)
(0.0229227 -2.20536e-06 0)
(0.0229226 -2.39755e-06 0)
(0.0229227 -2.5744e-06 0)
(0.0229227 -2.7535e-06 0)
(0.0229228 -2.89906e-06 0)
(0.0229229 -1.26733e-07 0)
(0.0229225 -2.97063e-07 0)
(0.0229225 -4.84109e-07 0)
(0.0229225 -6.73697e-07 0)
(0.0229224 -8.6518e-07 0)
(0.0229224 -1.05652e-06 0)
(0.0229224 -1.25023e-06 0)
(0.0229224 -1.44252e-06 0)
(0.0229223 -1.63821e-06 0)
(0.0229223 -1.8306e-06 0)
(0.0229223 -2.02688e-06 0)
(0.0229222 -2.21625e-06 0)
(0.0229222 -2.40949e-06 0)
(0.0229222 -2.5875e-06 0)
(0.0229223 -2.76762e-06 0)
(0.0229224 -2.91425e-06 0)
(0.0229225 -1.27278e-07 0)
(0.0229221 -2.98321e-07 0)
(0.0229221 -4.86115e-07 0)
(0.022922 -6.76533e-07 0)
(0.022922 -8.68885e-07 0)
(0.022922 -1.06112e-06 0)
(0.022922 -1.25574e-06 0)
(0.0229219 -1.44901e-06 0)
(0.0229219 -1.64567e-06 0)
(0.0229219 -1.83914e-06 0)
(0.0229218 -2.03647e-06 0)
(0.0229218 -2.22699e-06 0)
(0.0229218 -2.4213e-06 0)
(0.0229218 -2.6005e-06 0)
(0.0229219 -2.78166e-06 0)
(0.022922 -2.92939e-06 0)
(0.0229221 -1.27812e-07 0)
(0.0229217 -2.99543e-07 0)
(0.0229217 -4.88091e-07 0)
(0.0229216 -6.79321e-07 0)
(0.0229216 -8.72506e-07 0)
(0.0229216 -1.06562e-06 0)
(0.0229216 -1.26112e-06 0)
(0.0229215 -1.45538e-06 0)
(0.0229215 -1.653e-06 0)
(0.0229215 -1.84754e-06 0)
(0.0229214 -2.04592e-06 0)
(0.0229214 -2.23759e-06 0)
(0.0229214 -2.43296e-06 0)
(0.0229214 -2.61341e-06 0)
(0.0229215 -2.79562e-06 0)
(0.0229216 -2.94449e-06 0)
(0.0229217 -1.28334e-07 0)
(0.0229213 -3.00736e-07 0)
(0.0229213 -4.90052e-07 0)
(0.0229212 -6.82082e-07 0)
(0.0229212 -8.76064e-07 0)
(0.0229212 -1.07006e-06 0)
(0.0229212 -1.26641e-06 0)
(0.0229211 -1.46166e-06 0)
(0.0229211 -1.66021e-06 0)
(0.022921 -1.85583e-06 0)
(0.022921 -2.05527e-06 0)
(0.022921 -2.24809e-06 0)
(0.022921 -2.44454e-06 0)
(0.022921 -2.62626e-06 0)
(0.022921 -2.80955e-06 0)
(0.0229211 -2.9596e-06 0)
(0.0229213 -1.28845e-07 0)
(0.0229209 -3.01925e-07 0)
(0.0229208 -4.92007e-07 0)
(0.0229208 -6.84823e-07 0)
(0.0229208 -8.79604e-07 0)
(0.0229208 -1.07447e-06 0)
(0.0229207 -1.27166e-06 0)
(0.0229207 -1.46788e-06 0)
(0.0229207 -1.66734e-06 0)
(0.0229206 -1.86405e-06 0)
(0.0229206 -2.06452e-06 0)
(0.0229206 -2.25855e-06 0)
(0.0229205 -2.45611e-06 0)
(0.0229206 -2.63913e-06 0)
(0.0229206 -2.82355e-06 0)
(0.0229207 -2.97482e-06 0)
(0.0229209 -1.29356e-07 0)
(0.0229205 -3.03137e-07 0)
(0.0229204 -4.93998e-07 0)
(0.0229204 -6.87601e-07 0)
(0.0229204 -8.83196e-07 0)
(0.0229204 -1.07892e-06 0)
(0.0229203 -1.27696e-06 0)
(0.0229203 -1.47416e-06 0)
(0.0229202 -1.6745e-06 0)
(0.0229202 -1.87228e-06 0)
(0.0229202 -2.0738e-06 0)
(0.0229201 -2.26903e-06 0)
(0.0229201 -2.46773e-06 0)
(0.0229201 -2.65208e-06 0)
(0.0229202 -2.83765e-06 0)
(0.0229203 -2.9902e-06 0)
(0.0229205 -1.29877e-07 0)
(0.0229201 -3.0441e-07 0)
(0.02292 -4.96087e-07 0)
(0.02292 -6.9048e-07 0)
(0.02292 -8.86915e-07 0)
(0.02292 -1.08352e-06 0)
(0.0229199 -1.28244e-06 0)
(0.0229199 -1.48059e-06 0)
(0.0229198 -1.68184e-06 0)
(0.0229198 -1.88065e-06 0)
(0.0229197 -2.08325e-06 0)
(0.0229197 -2.27962e-06 0)
(0.0229197 -2.47952e-06 0)
(0.0229197 -2.66512e-06 0)
(0.0229197 -2.85202e-06 0)
(0.0229198 -3.00599e-06 0)
(0.0229201 -1.30424e-07 0)
(0.0229196 -3.05798e-07 0)
(0.0229196 -4.98358e-07 0)
(0.0229196 -6.93575e-07 0)
(0.0229196 -8.90894e-07 0)
(0.0229195 -1.08841e-06 0)
(0.0229195 -1.28825e-06 0)
(0.0229195 -1.48731e-06 0)
(0.0229194 -1.68954e-06 0)
(0.0229194 -1.88935e-06 0)
(0.0229193 -2.09303e-06 0)
(0.0229193 -2.29053e-06 0)
(0.0229192 -2.49167e-06 0)
(0.0229193 -2.6785e-06 0)
(0.0229193 -2.86683e-06 0)
(0.0229194 -3.02232e-06 0)
(0.0229197 -1.3102e-07 0)
(0.0229192 -3.07357e-07 0)
(0.0229192 -5.00884e-07 0)
(0.0229192 -6.97047e-07 0)
(0.0229192 -8.95336e-07 0)
(0.0229191 -1.0938e-06 0)
(0.0229191 -1.29461e-06 0)
(0.022919 -1.49459e-06 0)
(0.022919 -1.69783e-06 0)
(0.0229189 -1.89863e-06 0)
(0.0229189 -2.10339e-06 0)
(0.0229188 -2.302e-06 0)
(0.0229188 -2.50439e-06 0)
(0.0229188 -2.69251e-06 0)
(0.0229189 -2.88226e-06 0)
(0.022919 -3.0393e-06 0)
(0.0229192 -1.31688e-07 0)
(0.0229188 -3.09167e-07 0)
(0.0229188 -5.03797e-07 0)
(0.0229188 -7.01074e-07 0)
(0.0229188 -9.00466e-07 0)
(0.0229187 -1.09994e-06 0)
(0.0229187 -1.30182e-06 0)
(0.0229186 -1.50275e-06 0)
(0.0229186 -1.70704e-06 0)
(0.0229185 -1.90882e-06 0)
(0.0229185 -2.11467e-06 0)
(0.0229184 -2.3144e-06 0)
(0.0229184 -2.51801e-06 0)
(0.0229184 -2.70744e-06 0)
(0.0229184 -2.89859e-06 0)
(0.0229185 -3.05723e-06 0)
(0.0229188 -1.32462e-07 0)
(0.0229184 -3.11342e-07 0)
(0.0229184 -5.07295e-07 0)
(0.0229184 -7.05879e-07 0)
(0.0229183 -9.06552e-07 0)
(0.0229183 -1.10718e-06 0)
(0.0229183 -1.31026e-06 0)
(0.0229182 -1.51221e-06 0)
(0.0229181 -1.71761e-06 0)
(0.0229181 -1.92037e-06 0)
(0.022918 -2.12732e-06 0)
(0.022918 -2.32812e-06 0)
(0.0229179 -2.53293e-06 0)
(0.0229179 -2.72365e-06 0)
(0.022918 -2.91616e-06 0)
(0.0229181 -3.07646e-06 0)
(0.0229184 -1.33393e-07 0)
(0.022918 -3.14015e-07 0)
(0.022918 -5.11591e-07 0)
(0.022918 -7.11758e-07 0)
(0.0229179 -9.13966e-07 0)
(0.0229179 -1.11596e-06 0)
(0.0229178 -1.32041e-06 0)
(0.0229178 -1.52348e-06 0)
(0.0229177 -1.73008e-06 0)
(0.0229177 -1.93384e-06 0)
(0.0229176 -2.14189e-06 0)
(0.0229175 -2.34373e-06 0)
(0.0229175 -2.54968e-06 0)
(0.0229175 -2.74166e-06 0)
(0.0229175 -2.93552e-06 0)
(0.0229176 -3.09755e-06 0)
(0.022918 -1.34537e-07 0)
(0.0229176 -3.17349e-07 0)
(0.0229176 -5.16947e-07 0)
(0.0229176 -7.19071e-07 0)
(0.0229175 -9.23158e-07 0)
(0.0229175 -1.1268e-06 0)
(0.0229174 -1.33287e-06 0)
(0.0229174 -1.53725e-06 0)
(0.0229173 -1.74517e-06 0)
(0.0229172 -1.94997e-06 0)
(0.0229172 -2.15914e-06 0)
(0.0229171 -2.36197e-06 0)
(0.0229171 -2.569e-06 0)
(0.022917 -2.76219e-06 0)
(0.0229171 -2.95735e-06 0)
(0.0229171 -3.12117e-06 0)
(0.0229176 -1.35965e-07 0)
(0.0229172 -3.21543e-07 0)
(0.0229172 -5.23681e-07 0)
(0.0229171 -7.28256e-07 0)
(0.0229171 -9.3467e-07 0)
(0.0229171 -1.14037e-06 0)
(0.022917 -1.34839e-06 0)
(0.0229169 -1.55432e-06 0)
(0.0229169 -1.76376e-06 0)
(0.0229168 -1.96968e-06 0)
(0.0229167 -2.17999e-06 0)
(0.0229167 -2.38377e-06 0)
(0.0229166 -2.59178e-06 0)
(0.0229166 -2.78613e-06 0)
(0.0229166 -2.98249e-06 0)
(0.0229167 -3.14812e-06 0)
(0.0229172 -1.37762e-07 0)
(0.0229168 -3.26821e-07 0)
(0.0229168 -5.32157e-07 0)
(0.0229167 -7.39817e-07 0)
(0.0229167 -9.49141e-07 0)
(0.0229166 -1.15741e-06 0)
(0.0229166 -1.36784e-06 0)
(0.0229165 -1.57568e-06 0)
(0.0229164 -1.78691e-06 0)
(0.0229164 -1.9941e-06 0)
(0.0229163 -2.20563e-06 0)
(0.0229162 -2.4103e-06 0)
(0.0229162 -2.6192e-06 0)
(0.0229161 -2.81459e-06 0)
(0.0229161 -3.012e-06 0)
(0.0229162 -3.17949e-06 0)
(0.0229168 -1.40025e-07 0)
(0.0229164 -3.33439e-07 0)
(0.0229163 -5.42795e-07 0)
(0.0229163 -7.54341e-07 0)
(0.0229163 -9.67298e-07 0)
(0.0229162 -1.17882e-06 0)
(0.0229162 -1.39228e-06 0)
(0.0229161 -1.60251e-06 0)
(0.022916 -1.81593e-06 0)
(0.0229159 -2.02462e-06 0)
(0.0229159 -2.2375e-06 0)
(0.0229158 -2.44305e-06 0)
(0.0229157 -2.65275e-06 0)
(0.0229157 -2.84902e-06 0)
(0.0229157 -3.04731e-06 0)
(0.0229157 -3.21661e-06 0)
(0.0229164 -1.42864e-07 0)
(0.0229159 -3.41674e-07 0)
(0.0229159 -5.5605e-07 0)
(0.0229159 -7.72456e-07 0)
(0.0229159 -9.89964e-07 0)
(0.0229158 -1.20559e-06 0)
(0.0229157 -1.42287e-06 0)
(0.0229157 -1.63616e-06 0)
(0.0229156 -1.85232e-06 0)
(0.0229155 -2.0629e-06 0)
(0.0229154 -2.2774e-06 0)
(0.0229153 -2.48385e-06 0)
(0.0229153 -2.69431e-06 0)
(0.0229152 -2.89124e-06 0)
(0.0229152 -3.09016e-06 0)
(0.0229153 -3.26116e-06 0)
(0.022916 -1.46396e-07 0)
(0.0229155 -3.51793e-07 0)
(0.0229155 -5.72376e-07 0)
(0.0229155 -7.94776e-07 0)
(0.0229154 -1.01802e-06 0)
(0.0229154 -1.23882e-06 0)
(0.0229153 -1.46091e-06 0)
(0.0229152 -1.67816e-06 0)
(0.0229152 -1.89783e-06 0)
(0.0229151 -2.11089e-06 0)
(0.022915 -2.32744e-06 0)
(0.0229149 -2.53497e-06 0)
(0.0229148 -2.74621e-06 0)
(0.0229148 -2.94355e-06 0)
(0.0229147 -3.1428e-06 0)
(0.0229148 -3.31527e-06 0)
(0.0229155 -1.50738e-07 0)
(0.0229151 -3.64067e-07 0)
(0.0229151 -5.92214e-07 0)
(0.022915 -8.21951e-07 0)
(0.022915 -1.05229e-06 0)
(0.0229149 -1.2796e-06 0)
(0.0229149 -1.50773e-06 0)
(0.0229148 -1.73013e-06 0)
(0.0229147 -1.95435e-06 0)
(0.0229146 -2.17078e-06 0)
(0.0229145 -2.39008e-06 0)
(0.0229144 -2.59906e-06 0)
(0.0229143 -2.81127e-06 0)
(0.0229143 -3.00881e-06 0)
(0.0229143 -3.20805e-06 0)
(0.0229143 -3.38161e-06 0)
(0.0229151 -1.56004e-07 0)
(0.0229146 -3.78728e-07 0)
(0.0229146 -6.15947e-07 0)
(0.0229146 -8.5456e-07 0)
(0.0229145 -1.09354e-06 0)
(0.0229145 -1.32891e-06 0)
(0.0229144 -1.56461e-06 0)
(0.0229144 -1.79368e-06 0)
(0.0229143 -2.02387e-06 0)
(0.0229142 -2.24494e-06 0)
(0.0229141 -2.46811e-06 0)
(0.022914 -2.67929e-06 0)
(0.0229139 -2.89297e-06 0)
(0.0229138 -3.09059e-06 0)
(0.0229138 -3.28946e-06 0)
(0.0229138 -3.4634e-06 0)
(0.0229146 -1.62294e-07 0)
(0.0229142 -3.95922e-07 0)
(0.0229141 -6.43833e-07 0)
(0.0229141 -8.93007e-07 0)
(0.0229141 -1.14235e-06 0)
(0.022914 -1.38757e-06 0)
(0.022914 -1.63266e-06 0)
(0.0229139 -1.87024e-06 0)
(0.0229138 -2.10827e-06 0)
(0.0229137 -2.33579e-06 0)
(0.0229136 -2.56454e-06 0)
(0.0229135 -2.77933e-06 0)
(0.0229134 -2.99564e-06 0)
(0.0229133 -3.19376e-06 0)
(0.0229133 -3.39217e-06 0)
(0.0229133 -3.56548e-06 0)
(0.0229142 -1.6967e-07 0)
(0.0229137 -4.15688e-07 0)
(0.0229137 -6.75949e-07 0)
(0.0229136 -9.3743e-07 0)
(0.0229136 -1.19895e-06 0)
(0.0229136 -1.45598e-06 0)
(0.0229135 -1.71252e-06 0)
(0.0229134 -1.96084e-06 0)
(0.0229134 -2.20899e-06 0)
(0.0229133 -2.4454e-06 0)
(0.0229132 -2.68218e-06 0)
(0.0229131 -2.90307e-06 0)
(0.022913 -3.12438e-06 0)
(0.0229129 -3.32499e-06 0)
(0.0229128 -3.52474e-06 0)
(0.0229128 -3.69781e-06 0)
(0.0229137 -1.78146e-07 0)
(0.0229132 -4.37892e-07 0)
(0.0229132 -7.12094e-07 0)
(0.0229131 -9.87601e-07 0)
(0.0229131 -1.26313e-06 0)
(0.0229131 -1.534e-06 0)
(0.022913 -1.80416e-06 0)
(0.022913 -2.06566e-06 0)
(0.0229129 -2.3266e-06 0)
(0.0229128 -2.57485e-06 0)
(0.0229127 -2.82291e-06 0)
(0.0229126 -3.05344e-06 0)
(0.0229125 -3.28373e-06 0)
(0.0229124 -3.49105e-06 0)
(0.0229123 -3.69727e-06 0)
(0.0229123 -3.87472e-06 0)
(0.0229132 -1.87666e-07 0)
(0.0229127 -4.62207e-07 0)
(0.0229126 -7.51751e-07 0)
(0.0229126 -1.04282e-06 0)
(0.0229126 -1.33405e-06 0)
(0.0229126 -1.62068e-06 0)
(0.0229125 -1.90661e-06 0)
(0.0229125 -2.18376e-06 0)
(0.0229124 -2.46026e-06 0)
(0.0229123 -2.7235e-06 0)
(0.0229122 -2.98642e-06 0)
(0.0229121 -3.23054e-06 0)
(0.022912 -3.47442e-06 0)
(0.0229119 -3.69322e-06 0)
(0.0229118 -3.91179e-06 0)
(0.0229118 -4.09917e-06 0)
(0.0229127 -1.98088e-07 0)
(0.0229121 -4.88071e-07 0)
(0.0229121 -7.94007e-07 0)
(0.0229121 -1.10185e-06 0)
(0.022912 -1.41015e-06 0)
(0.022912 -1.7142e-06 0)
(0.022912 -2.01777e-06 0)
(0.0229119 -2.31286e-06 0)
(0.0229119 -2.6075e-06 0)
(0.0229118 -2.88879e-06 0)
(0.0229117 -3.16993e-06 0)
(0.0229116 -3.43144e-06 0)
(0.0229115 -3.69299e-06 0)
(0.0229114 -3.92717e-06 0)
(0.0229113 -4.16211e-06 0)
(0.0229112 -4.36199e-06 0)
(0.0229121 -2.0917e-07 0)
(0.0229115 -5.14648e-07 0)
(0.0229115 -8.37521e-07 0)
(0.0229115 -1.16288e-06 0)
(0.0229115 -1.48915e-06 0)
(0.0229114 -1.81182e-06 0)
(0.0229114 -2.13445e-06 0)
(0.0229114 -2.44926e-06 0)
(0.0229113 -2.76417e-06 0)
(0.0229113 -3.06612e-06 0)
(0.0229112 -3.36849e-06 0)
(0.0229111 -3.65067e-06 0)
(0.022911 -3.93366e-06 0)
(0.0229109 -4.1868e-06 0)
(0.0229108 -4.4415e-06 0)
(0.0229107 -4.656e-06 0)
(0.0229115 -2.20555e-07 0)
(0.0229109 -5.41004e-07 0)
(0.0229109 -8.80745e-07 0)
(0.0229109 -1.22364e-06 0)
(0.0229109 -1.56807e-06 0)
(0.0229109 -1.90978e-06 0)
(0.0229108 -2.25217e-06 0)
(0.0229108 -2.58801e-06 0)
(0.0229107 -2.92448e-06 0)
(0.0229107 -3.24914e-06 0)
(0.0229106 -3.57491e-06 0)
(0.0229106 -3.88065e-06 0)
(0.0229105 -4.18819e-06 0)
(0.0229104 -4.46319e-06 0)
(0.0229103 -4.74058e-06 0)
(0.0229102 -4.97139e-06 0)
(0.0229109 -2.31839e-07 0)
(0.0229103 -5.65939e-07 0)
(0.0229103 -9.21689e-07 0)
(0.0229103 -1.28133e-06 0)
(0.0229102 -1.64327e-06 0)
(0.0229102 -2.00353e-06 0)
(0.0229102 -2.36544e-06 0)
(0.0229102 -2.7225e-06 0)
(0.0229101 -3.08103e-06 0)
(0.0229101 -3.42957e-06 0)
(0.0229101 -3.7801e-06 0)
(0.02291 -4.1115e-06 0)
(0.0229099 -4.44569e-06 0)
(0.0229099 -4.74513e-06 0)
(0.0229098 -5.0477e-06 0)
(0.0229097 -5.29637e-06 0)
(0.0229103 -2.42513e-07 0)
(0.0229096 -5.88082e-07 0)
(0.0229096 -9.58109e-07 0)
(0.0229096 -1.33283e-06 0)
(0.0229096 -1.71066e-06 0)
(0.0229096 -2.08803e-06 0)
(0.0229096 -2.46813e-06 0)
(0.0229095 -2.84532e-06 0)
(0.0229095 -3.22519e-06 0)
(0.0229095 -3.59745e-06 0)
(0.0229094 -3.97282e-06 0)
(0.0229094 -4.33085e-06 0)
(0.0229094 -4.69276e-06 0)
(0.0229093 -5.01886e-06 0)
(0.0229093 -5.34893e-06 0)
(0.0229092 -5.61754e-06 0)
(0.0229096 -2.51988e-07 0)
(0.0229089 -6.06087e-07 0)
(0.0229089 -9.87776e-07 0)
(0.0229089 -1.37496e-06 0)
(0.0229089 -1.76598e-06 0)
(0.0229089 -2.15789e-06 0)
(0.0229089 -2.55362e-06 0)
(0.0229089 -2.94846e-06 0)
(0.0229088 -3.34736e-06 0)
(0.0229088 -3.74138e-06 0)
(0.0229088 -4.13991e-06 0)
(0.0229088 -4.52391e-06 0)
(0.0229088 -4.91296e-06 0)
(0.0229088 -5.26682e-06 0)
(0.0229087 -5.62569e-06 0)
(0.0229087 -5.91619e-06 0)
(0.0229089 -2.59687e-07 0)
(0.0229082 -6.18699e-07 0)
(0.0229082 -1.0086e-06 0)
(0.0229082 -1.40467e-06 0)
(0.0229082 -1.80521e-06 0)
(0.0229082 -2.20785e-06 0)
(0.0229082 -2.61527e-06 0)
(0.0229082 -3.02373e-06 0)
(0.0229082 -3.43753e-06 0)
(0.0229081 -3.84929e-06 0)
(0.0229081 -4.26696e-06 0)
(0.0229081 -4.67383e-06 0)
(0.0229081 -5.08697e-06 0)
(0.0229082 -5.46771e-06 0)
(0.0229082 -5.85487e-06 0)
(0.0229082 -6.16845e-06 0)
(0.0229082 -2.65075e-07 0)
(0.0229075 -6.24931e-07 0)
(0.0229075 -1.01892e-06 0)
(0.0229075 -1.41953e-06 0)
(0.0229075 -1.82501e-06 0)
(0.0229074 -2.23346e-06 0)
(0.0229074 -2.64735e-06 0)
(0.0229074 -3.06384e-06 0)
(0.0229074 -3.48655e-06 0)
(0.0229074 -3.90977e-06 0)
(0.0229075 -4.33991e-06 0)
(0.0229075 -4.76331e-06 0)
(0.0229075 -5.19389e-06 0)
(0.0229076 -5.59732e-06 0)
(0.0229076 -6.00886e-06 0)
(0.0229077 -6.34509e-06 0)
(0.0229075 -2.67731e-07 0)
(0.0229067 -6.24243e-07 0)
(0.0229067 -1.01778e-06 0)
(0.0229067 -1.41807e-06 0)
(0.0229067 -1.82326e-06 0)
(0.0229067 -2.23182e-06 0)
(0.0229067 -2.64591e-06 0)
(0.0229067 -3.06351e-06 0)
(0.0229067 -3.48746e-06 0)
(0.0229067 -3.91357e-06 0)
(0.0229067 -4.3465e-06 0)
(0.0229068 -4.77553e-06 0)
(0.0229068 -5.21042e-06 0)
(0.0229069 -5.623e-06 0)
(0.0229071 -6.04064e-06 0)
(0.0229073 -6.38322e-06 0)
(0.0229067 -2.67428e-07 0)
(0.022906 -6.16315e-07 0)
(0.022906 -1.00467e-06 0)
(0.022906 -1.39951e-06 0)
(0.022906 -1.79881e-06 0)
(0.022906 -2.20122e-06 0)
(0.022906 -2.60848e-06 0)
(0.022906 -3.01916e-06 0)
(0.022906 -3.43507e-06 0)
(0.022906 -3.85327e-06 0)
(0.022906 -4.27629e-06 0)
(0.0229061 -4.69568e-06 0)
(0.0229062 -5.11631e-06 0)
(0.0229063 -5.51569e-06 0)
(0.0229065 -5.91024e-06 0)
(0.0229068 -6.23508e-06 0)
(0.022906 -2.64027e-07 0)
(0.0229053 -6.00917e-07 0)
(0.0229053 -9.79223e-07 0)
(0.0229052 -1.36338e-06 0)
(0.0229053 -1.75105e-06 0)
(0.0229052 -2.14087e-06 0)
(0.0229053 -2.53392e-06 0)
(0.0229053 -2.92911e-06 0)
(0.0229053 -3.32688e-06 0)
(0.0229053 -3.7254e-06 0)
(0.0229054 -4.12474e-06 0)
(0.0229055 -4.51882e-06 0)
(0.0229056 -4.908e-06 0)
(0.0229058 -5.27652e-06 0)
(0.0229061 -5.63137e-06 0)
(0.0229064 -5.93143e-06 0)
(0.0229053 -2.57432e-07 0)
(0.0229046 -5.78312e-07 0)
(0.0229046 -9.41939e-07 0)
(0.0229046 -1.31049e-06 0)
(0.0229046 -1.68123e-06 0)
(0.0229046 -2.05263e-06 0)
(0.0229046 -2.42485e-06 0)
(0.0229046 -2.79685e-06 0)
(0.0229046 -3.1676e-06 0)
(0.0229047 -3.53619e-06 0)
(0.0229048 -3.90027e-06 0)
(0.0229049 -4.25666e-06 0)
(0.022905 -4.60243e-06 0)
(0.0229053 -4.93053e-06 0)
(0.0229056 -5.24129e-06 0)
(0.0229061 -5.51862e-06 0)
(0.0229046 -2.47755e-07 0)
(0.0229039 -5.49209e-07 0)
(0.0229039 -8.94022e-07 0)
(0.0229039 -1.24267e-06 0)
(0.0229039 -1.59205e-06 0)
(0.0229039 -1.94037e-06 0)
(0.022904 -2.28675e-06 0)
(0.022904 -2.63004e-06 0)
(0.022904 -2.96781e-06 0)
(0.0229041 -3.30001e-06 0)
(0.0229042 -3.62221e-06 0)
(0.0229044 -3.93419e-06 0)
(0.0229046 -4.23102e-06 0)
(0.0229049 -4.51497e-06 0)
(0.0229053 -4.78196e-06 0)
(0.0229058 -5.03824e-06 0)
(0.0229039 -2.35298e-07 0)
(0.0229033 -5.14761e-07 0)
(0.0229033 -8.37362e-07 0)
(0.0229033 -1.16263e-06 0)
(0.0229034 -1.48723e-06 0)
(0.0229034 -1.80926e-06 0)
(0.0229034 -2.12686e-06 0)
(0.0229035 -2.43862e-06 0)
(0.0229035 -2.74107e-06 0)
(0.0229036 -3.03505e-06 0)
(0.0229038 -3.31463e-06 0)
(0.022904 -3.5821e-06 0)
(0.0229042 -3.83107e-06 0)
(0.0229045 -4.07158e-06 0)
(0.0229049 -4.29735e-06 0)
(0.0229055 -4.53231e-06 0)
(0.0229033 -2.20555e-07 0)
(0.0229028 -4.76558e-07 0)
(0.0229028 -7.74559e-07 0)
(0.0229028 -1.07401e-06 0)
(0.0229029 -1.37154e-06 0)
(0.0229029 -1.66546e-06 0)
(0.0229029 -1.95309e-06 0)
(0.022903 -2.233e-06 0)
(0.0229031 -2.50084e-06 0)
(0.0229032 -2.7582e-06 0)
(0.0229034 -2.99889e-06 0)
(0.0229036 -3.22752e-06 0)
(0.0229039 -3.43672e-06 0)
(0.0229043 -3.6404e-06 0)
(0.0229047 -3.83162e-06 0)
(0.0229052 -4.04395e-06 0)
(0.0229028 -2.04211e-07 0)
(0.0229023 -4.36386e-07 0)
(0.0229024 -7.08648e-07 0)
(0.0229024 -9.81206e-07 0)
(0.0229024 -1.25061e-06 0)
(0.0229025 -1.51543e-06 0)
(0.0229026 -1.77252e-06 0)
(0.0229027 -2.02139e-06 0)
(0.0229028 -2.25719e-06 0)
(0.0229029 -2.48137e-06 0)
(0.0229031 -2.68871e-06 0)
(0.0229034 -2.88758e-06 0)
(0.0229037 -3.07096e-06 0)
(0.022904 -3.25175e-06 0)
(0.0229044 -3.4221e-06 0)
(0.0229049 -3.6127e-06 0)