/*--------------------------------*- C++ -*----------------------------------*\
| =========                 |                                                 |
| \\      /  F ield         | OpenFOAM: The Open Source CFD Toolbox           |
|  \\    /   O peration     | Version:  4.1                                   |
|   \\  /    A nd           | Web:      www.OpenFOAM.org                      |
|    \\/     M anipulation  |                                                 |
\*---------------------------------------------------------------------------*/
FoamFile
{
    version     2.0;
    format      ascii;
    class       surfaceVectorField;
    location    "0.0084";
    object      Uf;
}
// * * * * * * * * * * * * * * * * * * * * * * * * * * * * * * * * * * * * * //

dimensions      [0 1 -1 0 0 0 0];

internalField   nonuniform List<vector> 
4288
(
(0.21136 -0.00026391 3.8128e-06)
(0.20927 -0.0030605 -0.0013905)
(0.20927 -0.0030611 0.0013978)
(0.21091 -0.0048738 0.00061146)
(0.21091 -0.004876 -0.00060658)
(0.21289 0.0030665 4.4005e-06)
(0.21166 -0.00016711 -0.0013635)
(0.21166 -0.00016782 0.0013726)
(0.21328 -0.0012556 0.0007674)
(0.21328 -0.0012551 -0.00075774)
(0.21132 0.0068324 5.2917e-06)
(0.21158 0.0031387 -0.00082485)
(0.21158 0.0031382 0.00083561)
(0.21331 0.0030463 0.00026709)
(0.21331 0.0030482 -0.0002548)
(0.2065 0.011347 5.8308e-06)
(0.20834 0.0066804 -0.0010929)
(0.20834 0.0066787 0.0011076)
(0.21028 0.0075029 0.00045483)
(0.21028 0.0075038 -0.0004412)
(0.19799 0.016048 5.3703e-06)
(0.20169 0.010647 -0.0013591)
(0.20169 0.010646 0.0013736)
(0.20364 0.012429 0.00054987)
(0.20364 0.01243 -0.00053603)
(0.18586 0.020483 4.7599e-06)
(0.19143 0.014603 -0.0015577)
(0.19143 0.014602 0.0015702)
(0.19324 0.017361 0.00061262)
(0.19324 0.017362 -0.00059967)
(0.17035 0.024272 3.6419e-06)
(0.17772 0.018232 -0.0016633)
(0.17771 0.018231 0.0016735)
(0.17926 0.021935 0.0006341)
(0.17926 0.021936 -0.00062335)
(0.152 0.02709 2.1406e-06)
(0.16092 0.021238 -0.0016447)
(0.16092 0.021238 0.0016515)
(0.1621 0.025792 0.00060095)
(0.1621 0.025794 -0.0005924)
(0.13155 0.028723 5.3949e-07)
(0.14168 0.023379 -0.0014797)
(0.14167 0.023379 0.0014828)
(0.14243 0.028632 0.00050457)
(0.14243 0.028635 -0.00049912)
(0.10992 0.029112 -6.4362e-07)
(0.12079 0.024522 -0.00118)
(0.12079 0.024523 0.0011792)
(0.12111 0.030273 0.0003505)
(0.12111 0.030275 -0.00034922)
(0.088022 0.028338 -1.1909e-06)
(0.099168 0.02466 -0.00077436)
(0.099168 0.024661 0.0007715)
(0.099086 0.030687 0.00015859)
(0.099086 0.030691 -0.0001564)
(0.077675 0.023884 -0.00030199)
(0.077676 0.023886 0.00029856)
(0.077264 0.029988 -5.806e-05)
(0.077264 0.029984 4.9947e-05)
(0.21048 -0.0016785 -0.0014614)
(0.20846 -0.0022589 -0.00050739)
(0.20875 -0.003305 -0.00020291)
(0.20974 -0.0039893 -0.00054788)
(0.21183 0.00056287 -0.0015288)
(0.21072 -0.00030189 -0.00087129)
(0.21107 -0.0012954 -0.00046169)
(0.21203 -0.0017615 -0.0004571)
(0.21006 0.0032875 -0.0016189)
(0.21051 0.0019572 -0.0010213)
(0.2108 0.0013529 -0.00068967)
(0.2119 0.0012361 -0.00052411)
(0.20516 0.0064631 -0.0019704)
(0.20723 0.0046849 -0.0016458)
(0.2074 0.0041358 -0.00085477)
(0.20871 0.004658 -0.00081298)
(0.19667 0.0097763 -0.0023423)
(0.20058 0.0076699 -0.0023574)
(0.2007 0.0071647 -0.0010612)
(0.20205 0.0083575 -0.0011211)
(0.18464 0.012933 -0.0026404)
(0.19038 0.010622 -0.0030242)
(0.19047 0.0102 -0.0012778)
(0.19174 0.012042 -0.0013917)
(0.16931 0.01569 -0.0028155)
(0.17678 0.013318 -0.0035818)
(0.17684 0.013021 -0.0014647)
(0.17794 0.015463 -0.0015999)
(0.15121 0.017825 -0.0028266)
(0.16017 0.015546 -0.003963)
(0.16019 0.015412 -0.0015988)
(0.16106 0.018362 -0.0017275)
(0.13105 0.019172 -0.0026647)
(0.14114 0.017111 -0.0041318)
(0.14115 0.017208 -0.0016765)
(0.14172 0.020519 -0.0017564)
(0.1097 0.019669 -0.002353)
(0.12051 0.017924 -0.0040789)
(0.12049 0.018289 -0.001696)
(0.12076 0.02179 -0.0016961)
(0.088071 0.01936 -0.0019203)
(0.099116 0.017997 -0.0038043)
(0.099094 0.018614 -0.0016513)
(0.099086 0.022148 -0.0015542)
(0.077826 0.01739 -0.0033566)
(0.0778 0.018251 -0.0015447)
(0.077563 0.021677 -0.0013386)
(0.20971 -0.0011941 -0.00022977)
(0.20792 -0.001738 0.00026145)
(0.20807 -0.0024638 0.00064537)
(0.20897 -0.0029969 0.0008148)
(0.21078 0.00077766 -0.00067984)
(0.21007 -0.00019522 -0.00048461)
(0.21024 -0.0008096 0.00023808)
(0.21116 -0.0010099 0.00020012)
(0.20914 0.0031087 -0.0012954)
(0.2098 0.0015746 -0.001174)
(0.2099 0.0014004 -0.00022514)
(0.21097 0.0015668 -0.00053481)
(0.20423 0.0057044 -0.0022216)
(0.20655 0.0037683 -0.0022724)
(0.20655 0.0036172 -0.00085806)
(0.2078 0.0043713 -0.0015941)
(0.19578 0.0083816 -0.0031756)
(0.1999 0.0061271 -0.0034858)
(0.19986 0.0060337 -0.001591)
(0.20113 0.0074169 -0.002749)
(0.18383 0.010924 -0.0040513)
(0.18974 0.0084546 -0.0046567)
(0.18968 0.008441 -0.0023061)
(0.19088 0.010441 -0.0038665)
(0.16863 0.013137 -0.0047683)
(0.17623 0.010575 -0.0056926)
(0.17615 0.01066 -0.0029564)
(0.1772 0.013226 -0.0048756)
(0.15068 0.014849 -0.0052536)
(0.15972 0.012318 -0.006496)
(0.15964 0.01253 -0.0034922)
(0.16048 0.015566 -0.0056966)
(0.13072 0.01594 -0.0054692)
(0.14083 0.013545 -0.0069924)
(0.14077 0.013915 -0.0038611)
(0.14134 0.017287 -0.0062628)
(0.10958 0.016361 -0.005421)
(0.12033 0.014177 -0.007161)
(0.1203 0.014735 -0.0040489)
(0.1206 0.018288 -0.0065469)
(0.088126 0.016133 -0.0051332)
(0.099087 0.014216 -0.0070069)
(0.099087 0.014973 -0.0040729)
(0.099117 0.018538 -0.006555)
(0.077917 0.013713 -0.006571)
(0.077947 0.014672 -0.0039394)
(0.077756 0.018105 -0.0063045)
(0.20934 -0.00065761 8.8781e-05)
(0.20774 -0.00093285 0.00093821)
(0.20774 -0.0017177 0.0010486)
(0.2086 -0.0021057 0.0011582)
(0.21035 0.00072679 -0.00085317)
(0.20987 0.00019214 -0.00018656)
(0.20987 -0.00050903 0.00023547)
(0.21074 -0.00058523 9.2171e-05)
(0.20872 0.0023778 -0.0020072)
(0.20959 0.0013931 -0.0013885)
(0.2095 0.00095189 -0.00074457)
(0.21051 0.0011891 -0.0011198)
(0.20379 0.0043132 -0.0034148)
(0.20633 0.0029966 -0.0029917)
(0.20614 0.0026157 -0.0019132)
(0.20732 0.0033749 -0.0027136)
(0.19534 0.0063152 -0.0048527)
(0.19968 0.0047355 -0.0047312)
(0.19944 0.0044285 -0.0031792)
(0.20064 0.0057481 -0.0044357)
(0.18343 0.0082086 -0.0061958)
(0.18953 0.0064356 -0.0064322)
(0.18928 0.0062353 -0.0044339)
(0.19042 0.0080953 -0.006119)
(0.16829 0.0098418 -0.0073356)
(0.17604 0.0079707 -0.0079688)
(0.1758 0.0078894 -0.005572)
(0.1768 0.010243 -0.007647)
(0.15043 0.011078 -0.0081717)
(0.15957 0.0092071 -0.0092069)
(0.15936 0.009275 -0.0065141)
(0.16015 0.012028 -0.0088947)
(0.13056 0.011829 -0.0086358)
(0.14072 0.010041 -0.010043)
(0.14058 0.010283 -0.0071903)
(0.14111 0.013309 -0.0097666)
(0.10951 0.01207 -0.0087081)
(0.12027 0.010421 -0.010425)
(0.12019 0.010856 -0.00755)
(0.12046 0.014018 -0.0102)
(0.088142 0.011818 -0.0084204)
(0.099072 0.010352 -0.010358)
(0.099064 0.010985 -0.0075945)
(0.099085 0.014145 -0.0102)
(0.077944 0.0098803 -0.0098886)
(0.078003 0.0107 -0.0073528)
(0.077813 0.013737 -0.0098134)
(0.20934 -8.3059e-05 0.00066342)
(0.20792 -0.00025613 0.0017441)
(0.20774 -0.001043 0.0017231)
(0.2086 -0.0011523 0.0021109)
(0.21035 0.00085901 -0.00072123)
(0.21007 0.00049035 0.00020185)
(0.20987 -0.00022956 0.00051471)
(0.21074 -8.5682e-05 0.00059051)
(0.20872 0.0020125 -0.0023726)
(0.2098 0.0011765 -0.0015707)
(0.2095 0.00075064 -0.00094827)
(0.21051 0.001125 -0.0011838)
(0.20379 0.0034195 -0.0043083)
(0.20655 0.0022775 -0.0037631)
(0.20614 0.0019179 -0.0026108)
(0.20732 0.0027184 -0.0033704)
(0.19534 0.004857 -0.0063111)
(0.1999 0.0034901 -0.0061228)
(0.19944 0.0031833 -0.0044246)
(0.20064 0.0044396 -0.0057441)
(0.18343 0.0061991 -0.0082057)
(0.18974 0.0046602 -0.0084516)
(0.18928 0.0044369 -0.0062323)
(0.19042 0.0061218 -0.0080923)
(0.16829 0.0073374 -0.0098405)
(0.17623 0.0056953 -0.010573)
(0.1758 0.0055737 -0.0078876)
(0.1768 0.0076483 -0.010241)
(0.15043 0.0081716 -0.011079)
(0.15972 0.0064972 -0.012318)
(0.15937 0.006514 -0.0092751)
(0.16015 0.0088942 -0.012029)
(0.13056 0.0086335 -0.011833)
(0.14083 0.0069917 -0.013548)
(0.14058 0.0071882 -0.010285)
(0.14111 0.0097638 -0.013312)
(0.10951 0.0087033 -0.012075)
(0.12034 0.0071578 -0.014182)
(0.12019 0.0075454 -0.010861)
(0.12046 0.010194 -0.014023)
(0.088142 0.0084138 -0.011826)
(0.099088 0.0070018 -0.014223)
(0.099064 0.0075884 -0.010992)
(0.099086 0.010193 -0.014152)
(0.077918 0.0065645 -0.013722)
(0.078004 0.0073455 -0.010707)
(0.077813 0.0098057 -0.013746)
(0.20971 0.00023486 0.0012008)
(0.20846 0.00051288 0.0022657)
(0.20807 -0.00063968 0.0024695)
(0.20897 -0.000809 0.0030022)
(0.21078 0.00068446 -0.00077055)
(0.21072 0.00087634 0.00030876)
(0.21024 -0.00023249 0.00081564)
(0.21116 -0.00019496 0.0010165)
(0.20914 0.0012998 -0.0031028)
(0.21051 0.0010265 -0.0019508)
(0.2099 0.00022872 -0.0013925)
(0.21097 0.00054056 -0.0015617)
(0.20423 0.0022257 -0.0057003)
(0.20723 0.0016501 -0.0046807)
(0.20655 0.00086297 -0.003613)
(0.2078 0.0015979 -0.0043665)
(0.19578 0.0031791 -0.0083784)
(0.20058 0.0023615 -0.0076676)
(0.19986 0.0015944 -0.0060295)
(0.20114 0.0027503 -0.0074124)
(0.18383 0.0040542 -0.010923)
(0.19038 0.0030281 -0.010621)
(0.18968 0.0023083 -0.0084374)
(0.19089 0.0038668 -0.010438)
(0.16863 0.0047701 -0.013138)
(0.17679 0.0035847 -0.013319)
(0.17615 0.0029572 -0.010658)
(0.17721 0.0048745 -0.013224)
(0.15069 0.0052536 -0.014852)
(0.16017 0.0039642 -0.01555)
(0.15965 0.0034913 -0.01253)
(0.16048 0.0056935 -0.015566)
(0.13073 0.0054677 -0.015946)
(0.14115 0.0041324 -0.017116)
(0.14077 0.0038578 -0.013917)
(0.14134 0.0062577 -0.01729)
(0.10959 0.0054178 -0.016368)
(0.12051 0.0040758 -0.017933)
(0.12031 0.0040449 -0.014739)
(0.1206 0.0065409 -0.018292)
(0.088128 0.0051285 -0.016143)
(0.099118 0.0038 -0.018007)
(0.099088 0.0040669 -0.014979)
(0.099118 0.0065476 -0.018545)
(0.077827 0.0033522 -0.0174)
(0.077948 0.003933 -0.01468)
(0.077756 0.0062987 -0.018115)
(0.21047 0.0014669 0.0016855)
(0.20927 0.0013963 0.0030662)
(0.20875 0.00020961 0.0033115)
(0.20974 0.00055287 0.0039957)
(0.21183 0.0015337 -0.00055735)
(0.21166 0.0013671 0.00017148)
(0.21107 0.00046801 0.0013015)
(0.21203 0.00046018 0.0017689)
(0.21006 0.0016235 -0.0032833)
(0.21158 0.00082792 -0.0031352)
(0.2108 0.00069782 -0.0013503)
(0.2119 0.00052858 -0.0012316)
(0.20516 0.001975 -0.0064604)
(0.20834 0.0010973 -0.0066772)
(0.2074 0.00085924 -0.0041309)
(0.20871 0.00081637 -0.0046534)
(0.19667 0.0023467 -0.0097762)
(0.20169 0.0013636 -0.010646)
(0.2007 0.001065 -0.0071615)
(0.20206 0.0011235 -0.0083547)
(0.18464 0.0026438 -0.012934)
(0.19144 0.0015613 -0.014604)
(0.19047 0.0012806 -0.010199)
(0.19175 0.001392 -0.01204)
(0.16932 0.0028177 -0.015694)
(0.17772 0.0016663 -0.018236)
(0.17684 0.0014655 -0.01302)
(0.17795 0.0015978 -0.015461)
(0.15121 0.0028272 -0.017831)
(0.16093 0.0016465 -0.021244)
(0.1602 0.0015979 -0.015413)
(0.16106 0.0017236 -0.018362)
(0.13105 0.0026638 -0.01918)
(0.14168 0.0014807 -0.023388)
(0.14116 0.0016738 -0.017212)
(0.14173 0.001751 -0.020523)
(0.10971 0.0023501 -0.019679)
(0.1208 0.0011796 -0.024533)
(0.1205 0.0016911 -0.018293)
(0.12077 0.0016899 -0.021796)
(0.088073 0.0019155 -0.019371)
(0.099172 0.00077158 -0.024672)
(0.099097 0.0016446 -0.018622)
(0.099088 0.0015463 -0.022157)
(0.077677 0.00029832 -0.023898)
(0.077801 0.0015373 -0.01826)
(0.077564 0.0013292 -0.021686)
(0.21136 1.269e-06 0.00026817)
(0.20927 -0.0013925 0.0030659)
(0.21091 -0.00060821 0.0048783)
(0.21091 0.00061397 0.0048807)
(0.21289 -3.0454e-07 -0.0030619)
(0.21166 -0.0013648 0.00017177)
(0.21328 -0.00076156 0.0012591)
(0.21328 0.00076246 0.0012576)
(0.21132 -2.0738e-06 -0.0068295)
(0.21158 -0.00083039 -0.0031355)
(0.21332 -0.00026166 -0.0030445)
(0.21332 0.00025851 -0.0030448)
(0.2065 -2.9388e-06 -0.011347)
(0.20834 -0.0011028 -0.0066772)
(0.21028 -0.00045165 -0.007501)
(0.21028 0.00044548 -0.0075018)
(0.19799 -3.6206e-06 -0.016051)
(0.20169 -0.0013702 -0.010646)
(0.20364 -0.00054734 -0.012428)
(0.20364 0.00053986 -0.012429)
(0.18586 -3.9324e-06 -0.020489)
(0.19143 -0.0015691 -0.014604)
(0.19324 -0.00061141 -0.017363)
(0.19324 0.00060315 -0.017363)
(0.17036 -3.8498e-06 -0.024281)
(0.17772 -0.001674 -0.018236)
(0.17926 -0.00063476 -0.02194)
(0.17926 0.00062673 -0.02194)
(0.152 -3.5828e-06 -0.027102)
(0.16092 -0.0016541 -0.021245)
(0.1621 -0.00060292 -0.0258)
(0.1621 0.00059533 -0.0258)
(0.13156 -3.3676e-06 -0.028739)
(0.14168 -0.0014877 -0.023388)
(0.14243 -0.00050786 -0.028643)
(0.14243 0.00050232 -0.028641)
(0.10993 -3.489e-06 -0.02913)
(0.1208 -0.0011869 -0.024533)
(0.12111 -0.00035623 -0.030287)
(0.12111 0.0003524 -0.030283)
(0.088024 -3.5304e-06 -0.028356)
(0.099172 -0.00077934 -0.024673)
(0.09909 -0.00016443 -0.030703)
(0.09909 0.00015679 -0.030703)
(0.077677 -0.00030663 -0.023897)
(0.077266 4.3111e-05 -0.029997)
(0.077266 -5.6814e-05 -0.030004)
(0.21047 -0.0016792 0.0014696)
(0.20874 -0.0033049 0.00021077)
(0.20846 -0.0022593 0.00051515)
(0.20974 -0.003989 0.0005556)
(0.21183 0.0005623 0.0015392)
(0.21107 -0.0012957 0.00047129)
(0.21072 -0.00030287 0.00088156)
(0.21202 -0.0017626 0.00046583)
(0.21006 0.0032873 0.0016317)
(0.21079 0.0013564 0.00070531)
(0.2105 0.0019556 0.0010343)
(0.2119 0.0012376 0.00053747)
(0.20515 0.0064634 0.0019845)
(0.20739 0.0041345 0.00086782)
(0.20723 0.0046863 0.0016587)
(0.20871 0.0046599 0.00082909)
(0.19667 0.009777 0.0023557)
(0.2007 0.0071653 0.001076)
(0.20057 0.007671 0.0023706)
(0.20205 0.0083602 0.0011373)
(0.18464 0.012933 0.0026517)
(0.19047 0.010202 0.0012918)
(0.19037 0.010623 0.0030365)
(0.19174 0.012045 0.0014057)
(0.16931 0.015691 0.0028241)
(0.17683 0.013022 0.0014755)
(0.17678 0.013319 0.0035918)
(0.17794 0.015465 0.0016111)
(0.1512 0.017825 0.0028316)
(0.16019 0.015413 0.0016062)
(0.16016 0.015547 0.0039694)
(0.16105 0.018363 0.0017349)
(0.13105 0.019173 0.0026661)
(0.14115 0.017209 0.0016799)
(0.14114 0.017112 0.0041347)
(0.14172 0.02052 0.0017598)
(0.1097 0.01967 0.0023515)
(0.12049 0.018289 0.0016951)
(0.1205 0.017926 0.0040776)
(0.12076 0.021791 0.0016953)
(0.088071 0.019362 0.0019174)
(0.099094 0.018614 0.0016479)
(0.099115 0.017999 0.0038018)
(0.099085 0.022148 0.0015502)
(0.0778 0.018252 0.0015405)
(0.077826 0.017391 0.0033535)
(0.077563 0.021678 0.001334)
(0.21032 -0.0021296 4.4691e-06)
(0.20836 -0.0024684 0.00039879)
(0.20835 -0.0024683 -0.0003907)
(0.21154 -0.00013431 5.6079e-06)
(0.21059 -0.00082557 0.00037655)
(0.21058 -0.00082562 -0.00036601)
(0.20952 0.0022679 6.7369e-06)
(0.21019 0.0011797 0.00025236)
(0.21018 0.0011813 -0.00024125)
(0.2045 0.0048843 7.3902e-06)
(0.20672 0.0034263 3.3375e-05)
(0.20671 0.0034258 -1.7964e-05)
(0.19599 0.0075857 7.0963e-06)
(0.19998 0.0058405 -0.00021514)
(0.19998 0.0058409 0.0002296)
(0.18396 0.010182 6.0729e-06)
(0.18977 0.0082499 -0.00045052)
(0.18977 0.0082506 0.00046316)
(0.1687 0.012491 4.6079e-06)
(0.1762 0.010483 -0.0006647)
(0.1762 0.010484 0.00067548)
(0.15071 0.014345 2.7724e-06)
(0.15967 0.012368 -0.0008473)
(0.15967 0.012368 0.00085463)
(0.13072 0.015617 8.0147e-07)
(0.14078 0.013767 -0.00097714)
(0.14078 0.013768 0.00098057)
(0.10954 0.01624 -9.7389e-07)
(0.12029 0.014598 -0.0010528)
(0.12029 0.014598 0.0010526)
(0.088073 0.016231 -2.0201e-06)
(0.099061 0.014832 -0.0010795)
(0.099061 0.014832 0.0010764)
(0.077916 0.014517 -0.0010647)
(0.077916 0.014518 0.0010604)
(0.20967 -0.0014512 0.00048486)
(0.20789 -0.0018826 0.00074909)
(0.20775 -0.0018018 0.00023427)
(0.21068 0.00018479 0.00032056)
(0.21004 -0.00066895 0.0003493)
(0.20986 -0.00046384 9.3969e-05)
(0.20876 0.0020895 3.1109e-05)
(0.2096 0.00083056 -8.855e-05)
(0.20939 0.0011599 2.7685e-05)
(0.20372 0.0041452 -0.00042621)
(0.20614 0.0025308 -0.00078594)
(0.20594 0.0028965 -0.00018988)
(0.19522 0.0062748 -0.00090278)
(0.1994 0.0043742 -0.0015377)
(0.19921 0.0047552 -0.00042967)
(0.18327 0.0083195 -0.0013536)
(0.18922 0.0062035 -0.0022769)
(0.18905 0.006611 -0.00066648)
(0.16813 0.010125 -0.0017519)
(0.17572 0.0078941 -0.0029564)
(0.17558 0.008324 -0.00088633)
(0.1503 0.011557 -0.0020601)
(0.15929 0.0093164 -0.0035184)
(0.15919 0.0097608 -0.0010707)
(0.13047 0.012524 -0.002255)
(0.14052 0.010362 -0.0039182)
(0.14046 0.010822 -0.0011995)
(0.10948 0.012983 -0.0023373)
(0.12016 0.010973 -0.0041352)
(0.12015 0.011446 -0.0012706)
(0.088172 0.012946 -0.0023135)
(0.099061 0.011141 -0.0041692)
(0.099088 0.011615 -0.0012854)
(0.078029 0.010899 -0.0040405)
(0.078091 0.011362 -0.0012429)
(0.20935 -0.0010441 0.00066995)
(0.20774 -0.0012555 0.0012609)
(0.20743 -0.0012289 0.00068174)
(0.21032 4.8202e-05 1.1583e-05)
(0.20986 -0.00045287 0.00045842)
(0.20951 -0.00031619 0.00015713)
(0.20839 0.0013583 -0.00081937)
(0.20941 0.00049555 -0.00048927)
(0.20902 0.00076129 -0.00047943)
(0.20333 0.0028555 -0.0018023)
(0.20595 0.0016872 -0.0016832)
(0.20555 0.0019588 -0.0011926)
(0.19484 0.0044018 -0.0028137)
(0.1992 0.0029738 -0.0029704)
(0.19881 0.0032546 -0.0019613)
(0.18292 0.0058825 -0.0037766)
(0.18903 0.0042439 -0.0042417)
(0.18867 0.0045422 -0.0027227)
(0.16783 0.0071911 -0.004619)
(0.17556 0.0054159 -0.0054151)
(0.17525 0.0057263 -0.0034144)
(0.15007 0.0082235 -0.0052758)
(0.15916 0.0063933 -0.0063942)
(0.15892 0.0067227 -0.0039941)
(0.13033 0.008908 -0.0057022)
(0.14043 0.0071035 -0.0071062)
(0.14028 0.0074531 -0.004415)
(0.10942 0.0092166 -0.005881)
(0.12011 0.0075025 -0.0075072)
(0.12005 0.007873 -0.004649)
(0.088196 0.0091651 -0.0058251)
(0.099053 0.0075895 -0.0075957)
(0.099077 0.0079793 -0.0046971)
(0.078059 0.0073943 -0.0074014)
(0.078156 0.0077895 -0.0045703)
(0.20935 -0.00066438 0.0010496)
(0.20789 -0.00074353 0.0018882)
(0.20743 -0.00067619 0.0012344)
(0.21032 -6.5622e-06 -4.3313e-05)
(0.21004 -0.00034385 0.00067475)
(0.20951 -0.0001515 0.00032184)
(0.20839 0.00082375 -0.0013539)
(0.2096 9.6649e-05 -0.00082201)
(0.20902 0.00048355 -0.00075613)
(0.20333 0.001806 -0.0028513)
(0.20614 0.00078941 -0.0025268)
(0.20555 0.0011971 -0.0019544)
(0.19484 0.0028163 -0.0043987)
(0.1994 0.0015409 -0.0043699)
(0.19881 0.0019646 -0.0032508)
(0.18292 0.0037779 -0.0058806)
(0.18922 0.0022786 -0.0062005)
(0.18867 0.002725 -0.0045397)
(0.16783 0.0046188 -0.0071907)
(0.17572 0.0029567 -0.0078925)
(0.17525 0.0034153 -0.005725)
(0.15007 0.0052739 -0.0082249)
(0.15929 0.003517 -0.0093166)
(0.15892 0.0039932 -0.0067233)
(0.13033 0.0056983 -0.0089113)
(0.14052 0.0039147 -0.010364)
(0.14028 0.0044124 -0.0074556)
(0.10942 0.0058755 -0.0092218)
(0.12016 0.0041305 -0.010977)
(0.12005 0.0046443 -0.0078775)
(0.088197 0.0058186 -0.0091717)
(0.099061 0.0041631 -0.011147)
(0.099078 0.0046911 -0.0079854)
(0.07803 0.0040339 -0.010907)
(0.078156 0.0045637 -0.0077965)
(0.20967 -0.00047943 0.001457)
(0.20836 -0.00039313 0.0024742)
(0.20775 -0.00022863 0.0018074)
(0.21068 -0.00031534 -0.00017865)
(0.21059 -0.0003708 0.00083187)
(0.20986 -8.8261e-05 0.00046957)
(0.20876 -2.6429e-05 -0.002084)
(0.21019 -0.00024927 -0.0011758)
(0.20939 -2.0268e-05 -0.0011562)
(0.20372 0.00042986 -0.0041405)
(0.20672 -2.8629e-05 -0.003421)
(0.20594 0.00019408 -0.0028916)
(0.19522 0.00090527 -0.0062706)
(0.19998 0.00021821 -0.0058364)
(0.19921 0.00043312 -0.0047513)
(0.18328 0.0013545 -0.0083165)
(0.18977 0.00045185 -0.0082469)
(0.18905 0.00066877 -0.0066078)
(0.16813 0.001751 -0.010123)
(0.1762 0.00066504 -0.010481)
(0.17558 0.00088682 -0.0083224)
(0.1503 0.0020574 -0.011557)
(0.15967 0.00084569 -0.012368)
(0.15919 0.0010695 -0.0097611)
(0.13047 0.0022509 -0.012527)
(0.14078 0.00097382 -0.013769)
(0.14046 0.0011962 -0.010825)
(0.10948 0.0023321 -0.012989)
(0.12029 0.001048 -0.014602)
(0.12015 0.0012662 -0.01145)
(0.088172 0.0023076 -0.012953)
(0.099063 0.0010734 -0.014838)
(0.099089 0.0012797 -0.011621)
(0.077917 0.0010583 -0.014525)
(0.078091 0.0012368 -0.01137)
(0.21032 1.921e-06 0.0021363)
(0.20874 -0.00020501 0.0033112)
(0.20835 0.00039723 0.0024745)
(0.21154 6.0829e-07 0.00014092)
(0.21107 -0.00046531 0.0013013)
(0.21058 0.00037301 0.00083203)
(0.20952 -1.3452e-06 -0.0022621)
(0.21079 -0.00069698 -0.0013486)
(0.21018 0.00024626 -0.0011742)
(0.2045 -3.1197e-06 -0.0048794)
(0.2074 -0.0008631 -0.0041301)
(0.20671 2.3057e-05 -0.0034207)
(0.19599 -4.1978e-06 -0.0075818)
(0.2007 -0.0010715 -0.007161)
(0.19998 -0.0002258 -0.0058365)
(0.18397 -4.6465e-06 -0.010179)
(0.19047 -0.0012879 -0.010198)
(0.18977 -0.00046107 -0.0082471)
(0.1687 -4.6959e-06 -0.01249)
(0.17684 -0.0014741 -0.01302)
(0.1762 -0.00067453 -0.010481)
(0.15072 -4.6246e-06 -0.014346)
(0.1602 -0.0016066 -0.015412)
(0.15967 -0.00085544 -0.012368)
(0.13072 -4.4255e-06 -0.01562)
(0.14115 -0.0016821 -0.017211)
(0.14078 -0.00098339 -0.01377)
(0.10955 -4.5167e-06 -0.016245)
(0.1205 -0.0016998 -0.018293)
(0.12029 -0.0010574 -0.014603)
(0.088074 -4.8314e-06 -0.016239)
(0.099097 -0.0016539 -0.018622)
(0.099063 -0.0010829 -0.014839)
(0.077801 -0.0015467 -0.018261)
(0.077917 -0.0010673 -0.014526)
(0.21047 -0.0014632 0.0016853)
(0.20845 -0.00050945 0.0022653)
(0.20974 -0.00054828 0.0039959)
(0.21183 -0.001533 -0.00055751)
(0.21072 -0.00087425 0.00030925)
(0.21202 -0.00045659 0.0017696)
(0.21006 -0.001627 -0.0032838)
(0.2105 -0.0010283 -0.0019522)
(0.2119 -0.00052915 -0.0012311)
(0.20515 -0.0019808 -0.0064608)
(0.20723 -0.0016548 -0.0046821)
(0.20871 -0.00082142 -0.0046538)
(0.19667 -0.002354 -0.0097761)
(0.20057 -0.0023683 -0.0076681)
(0.20205 -0.0011299 -0.0083542)
(0.18464 -0.002652 -0.012934)
(0.19038 -0.003036 -0.010622)
(0.19174 -0.0013992 -0.012039)
(0.16931 -0.0028264 -0.015694)
(0.17678 -0.0035936 -0.013319)
(0.17795 -0.0016052 -0.01546)
(0.15121 -0.002836 -0.01783)
(0.16017 -0.0039734 -0.015549)
(0.16106 -0.001731 -0.018361)
(0.13105 -0.0026725 -0.01918)
(0.14115 -0.004141 -0.017116)
(0.14172 -0.0017577 -0.02052)
(0.10971 -0.0023589 -0.019679)
(0.12051 -0.0040857 -0.017932)
(0.12076 -0.0016963 -0.021794)
(0.088074 -0.0019239 -0.019371)
(0.099118 -0.0038088 -0.018007)
(0.099088 -0.0015544 -0.022157)
(0.077827 -0.0033589 -0.017401)
(0.077564 -0.0013394 -0.021689)
(0.2097 -0.0011944 0.00023911)
(0.20807 -0.0024635 -0.0006371)
(0.20791 -0.0017379 -0.00025344)
(0.20897 -0.0029965 -0.00080612)
(0.21077 0.00077699 0.00069126)
(0.21023 -0.00080962 -0.00022727)
(0.21007 -0.00019541 0.00049537)
(0.21115 -0.0010101 -0.00018876)
(0.20914 0.0031088 0.0013084)
(0.20989 0.0013988 0.0002368)
(0.2098 0.0015753 0.001185)
(0.21097 0.0015673 0.00054844)
(0.20423 0.0057052 0.002235)
(0.20654 0.0036198 0.00087362)
(0.20655 0.0037681 0.0022877)
(0.2078 0.0043724 0.0016082)
(0.19578 0.0083818 0.0031881)
(0.19985 0.0060348 0.0016051)
(0.19989 0.0061272 0.0034994)
(0.20113 0.0074178 0.0027619)
(0.18382 0.010925 0.0040621)
(0.18967 0.0084416 0.0023188)
(0.18974 0.0084548 0.0046687)
(0.19088 0.010442 0.0038791)
(0.16863 0.013138 0.0047761)
(0.17614 0.010661 0.0029667)
(0.17622 0.010575 0.0057023)
(0.1772 0.013227 0.0048859)
(0.15068 0.01485 0.0052579)
(0.15964 0.012531 0.0034991)
(0.15971 0.012318 0.0065025)
(0.16047 0.015567 0.005703)
(0.13072 0.015941 0.0054702)
(0.14077 0.013916 0.0038639)
(0.14082 0.013545 0.006995)
(0.14134 0.017288 0.0062651)
(0.10958 0.016362 0.0054195)
(0.1203 0.014736 0.0040488)
(0.12033 0.014177 0.0071599)
(0.12059 0.018288 0.006546)
(0.088126 0.016135 0.0051301)
(0.099085 0.014974 0.0040697)
(0.099085 0.014216 0.0070039)
(0.099115 0.018539 0.006551)
(0.077947 0.014674 0.0039353)
(0.077917 0.013714 0.0065665)
(0.077755 0.018108 0.0063011)
(0.20967 -0.0014509 -0.0004754)
(0.20775 -0.0018016 -0.0002261)
(0.20789 -0.0018823 -0.00074094)
(0.21067 0.00018482 -0.00030859)
(0.20985 -0.0004637 -8.3232e-05)
(0.21003 -0.00066874 -0.00033851)
(0.20875 0.00209 -1.7404e-05)
(0.20939 0.0011611 -1.3202e-05)
(0.20959 0.0008291 0.00010297)
(0.20372 0.0041461 0.00044031)
(0.20594 0.0028961 0.00020256)
(0.20613 0.002534 0.0007979)
(0.19522 0.0062754 0.00091622)
(0.19921 0.0047554 0.0004435)
(0.1994 0.0043748 0.0015515)
(0.18327 0.0083202 0.0013653)
(0.18904 0.0066113 0.00067941)
(0.18921 0.0062041 0.0022896)
(0.16813 0.010126 0.0017607)
(0.17558 0.0083244 0.00089677)
(0.17572 0.0078948 0.0029667)
(0.15029 0.011558 0.0020653)
(0.15919 0.0097613 0.0010778)
(0.15929 0.0093171 0.0035252)
(0.13047 0.012525 0.0022566)
(0.14046 0.010823 0.0012028)
(0.14052 0.010363 0.0039213)
(0.10948 0.012984 0.0023357)
(0.12015 0.011446 0.0012705)
(0.12016 0.010974 0.0041348)
(0.088171 0.012947 0.0023099)
(0.099088 0.011616 0.0012825)
(0.099059 0.011142 0.004166)
(0.078091 0.011364 0.0012386)
(0.078029 0.010901 0.0040359)
(0.20905 -0.00097628 4.7452e-06)
(0.20728 -0.0012698 0.00023336)
(0.20728 -0.0012697 -0.00022522)
(0.2099 0.00030571 5.9789e-06)
(0.20933 -0.00033709 5.2975e-05)
(0.20933 -0.00033704 -4.2218e-05)
(0.208 0.0017664 6.5319e-06)
(0.20882 0.00078887 -0.00022993)
(0.20882 0.00078911 0.0002432)
(0.20294 0.0033061 6.7253e-06)
(0.20536 0.0020203 -0.00047921)
(0.20535 0.0020198 0.00049294)
(0.19447 0.0048912 6.6854e-06)
(0.19862 0.0033335 -0.00074225)
(0.19862 0.0033336 0.00075609)
(0.1826 0.0064105 5.7919e-06)
(0.1885 0.0046422 -0.0010022)
(0.1885 0.0046424 0.0010149)
(0.16758 0.0077507 4.3618e-06)
(0.17511 0.0058489 -0.0012373)
(0.17511 0.005849 0.0012475)
(0.1499 0.0088137 2.607e-06)
(0.15882 0.006859 -0.0014329)
(0.15882 0.006859 0.0014399)
(0.13025 0.0095284 8.9142e-07)
(0.14021 0.007603 -0.0015775)
(0.14021 0.0076032 0.0015806)
(0.10944 0.0098589 -7.0876e-07)
(0.12004 0.0080374 -0.0016571)
(0.12004 0.0080376 0.0016569)
(0.088289 0.0098178 -1.9212e-06)
(0.099104 0.0081498 -0.001671)
(0.099104 0.0081499 0.0016678)
(0.078216 0.0079674 -0.001628)
(0.078216 0.0079674 0.0016232)
(0.20871 -0.00062233 0.00029008)
(0.20712 -0.00072718 0.0007327)
(0.20693 -0.0007428 0.00023911)
(0.20954 0.00019589 -0.00013305)
(0.20915 -0.00017952 0.00018514)
(0.20896 -0.00019223 5.8898e-05)
(0.2076 0.0011338 -0.00062475)
(0.20863 0.00051383 -0.0005085)
(0.20842 0.00044198 -0.00015617)
(0.20253 0.0021413 -0.001135)
(0.20515 0.0012495 -0.001245)
(0.20493 0.0011604 -0.0003987)
(0.19407 0.0031805 -0.0016558)
(0.19842 0.0020307 -0.0020271)
(0.1982 0.0019339 -0.00065801)
(0.18224 0.0041761 -0.0021506)
(0.18831 0.0028083 -0.0028058)
(0.1881 0.0027049 -0.00091514)
(0.16728 0.0050505 -0.002582)
(0.17494 0.0035198 -0.0035187)
(0.17476 0.0034153 -0.0011506)
(0.14968 0.0057405 -0.0029215)
(0.15869 0.0041125 -0.0041132)
(0.15855 0.004012 -0.0013491)
(0.13012 0.006202 -0.0031458)
(0.14012 0.0045475 -0.0045501)
(0.14003 0.0044502 -0.0014945)
(0.1094 0.006413 -0.0032426)
(0.11999 0.0047965 -0.0048011)
(0.11995 0.0047053 -0.0015778)
(0.088327 0.0063786 -0.0032175)
(0.099101 0.0048538 -0.0048597)
(0.099099 0.0047726 -0.0015973)
(0.078252 0.0047362 -0.0047429)
(0.078289 0.0046623 -0.001559)
(0.20871 -0.00028446 0.00062792)
(0.20728 -0.00022772 0.0012754)
(0.20693 -0.00023356 0.00074837)
(0.20954 0.00013821 -0.00019039)
(0.20933 -4.7274e-05 0.00034279)
(0.20896 -5.3299e-05 0.00019792)
(0.2076 0.0006294 -0.0011289)
(0.20882 0.00023529 -0.00078411)
(0.20842 0.00016092 -0.00043685)
(0.20253 0.0011391 -0.0021372)
(0.20536 0.00048374 -0.0020157)
(0.20493 0.00040317 -0.0011559)
(0.19407 0.0016588 -0.0031774)
(0.19862 0.00074578 -0.0033299)
(0.1982 0.00066134 -0.0019303)
(0.18224 0.0021524 -0.0041742)
(0.1885 0.0010046 -0.0046395)
(0.1881 0.00091725 -0.0027024)
(0.16728 0.0025822 -0.0050502)
(0.17511 0.0012382 -0.0058476)
(0.17476 0.0011514 -0.0034143)
(0.14968 0.0029199 -0.005742)
(0.15882 0.001432 -0.0068596)
(0.15855 0.0013482 -0.0040128)
(0.13012 0.0031422 -0.0062055)
(0.14021 0.0015747 -0.0076056)
(0.14003 0.0014918 -0.0044528)
(0.1094 0.0032373 -0.0064182)
(0.12004 0.0016526 -0.008042)
(0.11995 0.0015731 -0.0047099)
(0.088327 0.0032112 -0.006385)
(0.099104 0.0016651 -0.0081561)
(0.0991 0.0015915 -0.0047785)
(0.078217 0.0016216 -0.0079746)
(0.07829 0.0015528 -0.0046689)
(0.20905 1.0144e-06 0.000982)
(0.20775 0.00023195 0.0018073)
(0.20728 0.00023087 0.0012754)
(0.2099 1.043e-07 -0.00030057)
(0.20986 8.9363e-05 0.00046963)
(0.20933 4.7958e-05 0.00034295)
(0.208 -1.1811e-06 -0.0017619)
(0.20939 2.0792e-05 -0.001155)
(0.20882 -0.0002372 -0.00078301)
(0.20294 -2.775e-06 -0.0033019)
(0.20594 -0.00019813 -0.0028914)
(0.20535 -0.00048872 -0.0020152)
(0.19447 -3.7718e-06 -0.004888)
(0.19921 -0.00044004 -0.0047515)
(0.19862 -0.00075285 -0.0033297)
(0.1826 -4.2858e-06 -0.0064084)
(0.18905 -0.00067718 -0.0066082)
(0.1885 -0.001013 -0.0046395)
(0.16758 -4.4901e-06 -0.0077503)
(0.17558 -0.00089594 -0.0083229)
(0.17511 -0.0012472 -0.0058476)
(0.1499 -4.6116e-06 -0.0088152)
(0.15919 -0.0010789 -0.0097617)
(0.15882 -0.0014413 -0.0068594)
(0.13025 -4.4892e-06 -0.0095319)
(0.14046 -0.0012056 -0.010825)
(0.14021 -0.0015838 -0.0076057)
(0.10944 -4.2583e-06 -0.0098644)
(0.12015 -0.0012754 -0.011451)
(0.12004 -0.0016612 -0.0080422)
(0.08829 -4.0878e-06 -0.0098249)
(0.099089 -0.0012886 -0.011622)
(0.099104 -0.0016734 -0.0081563)
(0.078091 -0.0012449 -0.011371)
(0.078217 -0.0016291 -0.007975)
(0.20967 0.00048209 0.0014573)
(0.20807 0.00064316 0.0024697)
(0.20789 0.00074716 0.0018885)
(0.21067 0.00031532 -0.00017889)
(0.21023 0.00023383 0.00081608)
(0.21003 0.00034518 0.00067535)
(0.20875 2.3144e-05 -0.0020847)
(0.20989 -0.00023222 -0.0013949)
(0.20959 -9.56e-05 -0.00082535)
(0.20372 -0.00043595 -0.0041412)
(0.20655 -0.00086871 -0.0036144)
(0.20614 -0.00079352 -0.0025284)
(0.19522 -0.00091324 -0.0062713)
(0.19985 -0.0016014 -0.0060302)
(0.1994 -0.0015483 -0.0043703)
(0.18327 -0.0013636 -0.0083174)
(0.18967 -0.0023165 -0.0084383)
(0.18922 -0.0022875 -0.0062008)
(0.16813 -0.0017606 -0.010125)
(0.17615 -0.002966 -0.010659)
(0.17572 -0.0029662 -0.0078929)
(0.1503 -0.002067 -0.011559)
(0.15964 -0.0035003 -0.012531)
(0.15929 -0.0035265 -0.0093172)
(0.13047 -0.0022605 -0.012528)
(0.14077 -0.0038672 -0.013918)
(0.14052 -0.0039244 -0.010365)
(0.10948 -0.0023415 -0.01299)
(0.12031 -0.0040542 -0.01474)
(0.12016 -0.0041396 -0.010978)
(0.088173 -0.0023166 -0.012955)
(0.099088 -0.0040759 -0.014981)
(0.099061 -0.0041719 -0.011149)
(0.077947 -0.0039409 -0.014682)
(0.078029 -0.004042 -0.010909)
(0.2097 -0.00023284 0.001201)
(0.20791 0.00025912 0.0017444)
(0.20897 0.00081296 0.0030031)
(0.21077 -0.00068528 -0.00077089)
(0.21007 -0.00048908 0.00020296)
(0.21115 0.00019735 0.0010183)
(0.20914 -0.0013039 -0.003104)