/*--------------------------------*- C++ -*----------------------------------*\
| =========                 |                                                 |
| \\      /  F ield         | OpenFOAM: The Open Source CFD Toolbox           |
|  \\    /   O peration     | Version:  4.1                                   |
|   \\  /    A nd           | Web:      www.OpenFOAM.org                      |
|    \\/     M anipulation  |                                                 |
\*---------------------------------------------------------------------------*/
FoamFile
{
    version     2.0;
    format      ascii;
    class       pointVectorField;
    location    "0.0069";
    object      pointDisplacement_Next;
}
// * * * * * * * * * * * * * * * * * * * * * * * * * * * * * * * * * * * * * //

dimensions      [0 1 0 0 0 0 0];

internalField   uniform (0 0 0);

boundaryField
{
    inlet
    {
        type            fixedValue;
        value           nonuniform 0();
    }
    outlet
    {
        type            fixedValue;
        value           nonuniform 0();
    }
    mantle
    {
        type            fixedValue;
        value           nonuniform List<vector> 
416
(
(2.5726e-05 1.7005e-05 -1.0925e-10)
(2.7014e-05 1.3201e-05 -1.1621e-10)
(2.7029e-05 1.2886e-05 -2.593e-06)
(2.5736e-05 1.6656e-05 -3.3769e-06)
(2.705e-05 1.1976e-05 -4.9785e-06)
(2.5744e-05 1.5564e-05 -6.4941e-06)
(2.7051e-05 1.0561e-05 -7.0392e-06)
(2.5728e-05 1.3746e-05 -9.1599e-06)
(2.7046e-05 8.872e-06 -8.8727e-06)
(2.5714e-05 1.1528e-05 -1.1528e-05)
(2.7051e-05 7.0388e-06 -1.0562e-05)
(2.5728e-05 9.1596e-06 -1.3748e-05)
(2.705e-05 4.9783e-06 -1.1977e-05)
(2.5744e-05 6.494e-06 -1.5565e-05)
(2.7029e-05 2.5926e-06 -1.2888e-05)
(2.5736e-05 3.3766e-06 -1.6658e-05)
(2.7015e-05 -4.5402e-10 -1.3203e-05)
(2.5726e-05 -3.9611e-10 -1.7007e-05)
(2.8158e-05 6.653e-06 -1.2451e-10)
(2.8181e-05 6.4365e-06 -1.2802e-06)
(2.8214e-05 5.8989e-06 -2.4329e-06)
(2.8221e-05 5.1489e-06 -3.4231e-06)
(2.8216e-05 4.3172e-06 -4.3179e-06)
(2.8221e-05 3.4226e-06 -5.15e-06)
(2.8214e-05 2.4325e-06 -5.9003e-06)
(2.8181e-05 1.2797e-06 -6.4379e-06)
(2.8158e-05 -5.0395e-10 -6.6541e-06)
(2.9113e-05 -2.2731e-06 -4.689e-10)
(2.915e-05 -2.2635e-06 4.3496e-07)
(2.92e-05 -2.2335e-06 9.2599e-07)
(2.9193e-05 -2.1447e-06 1.4567e-06)
(2.9173e-05 -1.8994e-06 1.8982e-06)
(2.9193e-05 -1.4572e-06 2.1437e-06)
(2.92e-05 -9.2658e-07 2.2325e-06)
(2.915e-05 -4.3561e-07 2.2627e-06)
(2.9113e-05 -2.0762e-10 2.2726e-06)
(2.9787e-05 -1.2607e-05 -1.9176e-10)
(2.9841e-05 -1.2328e-05 2.4024e-06)
(2.9906e-05 -1.163e-05 4.7974e-06)
(2.9882e-05 -1.0588e-05 7.1104e-06)
(2.9844e-05 -9.114e-06 9.1133e-06)
(2.9882e-05 -7.1111e-06 1.0588e-05)
(2.9906e-05 -4.7981e-06 1.1629e-05)
(2.9841e-05 -2.4031e-06 1.2328e-05)
(2.9788e-05 -5.5156e-10 1.2607e-05)
(3.0072e-05 -2.3466e-05 6.5698e-10)
(3.0105e-05 -2.2989e-05 4.5337e-06)
(3.0152e-05 -2.1648e-05 8.9501e-06)
(3.015e-05 -1.9561e-05 1.3093e-05)
(3.0136e-05 -1.6701e-05 1.6702e-05)
(3.015e-05 -1.3093e-05 1.956e-05)
(3.0152e-05 -8.951e-06 2.1648e-05)
(3.0106e-05 -4.5346e-06 2.2989e-05)
(3.0073e-05 -1.5268e-09 2.3467e-05)
(2.9766e-05 -3.4593e-05 -4.1398e-10)
(2.9784e-05 -3.3894e-05 6.7146e-06)
(2.9819e-05 -3.1887e-05 1.3205e-05)
(2.9831e-05 -2.8741e-05 1.9231e-05)
(2.9836e-05 -2.4489e-05 2.4488e-05)
(2.9831e-05 -1.9232e-05 2.874e-05)
(2.9819e-05 -1.3206e-05 3.1886e-05)
(2.9784e-05 -6.7157e-06 3.3894e-05)
(2.9767e-05 -5.7612e-10 3.4594e-05)
(2.8731e-05 -4.5972e-05 -3.7392e-10)
(2.8767e-05 -4.5032e-05 8.9347e-06)
(2.8817e-05 -4.2342e-05 1.7549e-05)
(2.8811e-05 -3.8111e-05 2.5506e-05)
(2.8794e-05 -3.2455e-05 3.2454e-05)
(2.8812e-05 -2.5507e-05 3.811e-05)
(2.8817e-05 -1.755e-05 4.2342e-05)
(2.8767e-05 -8.9357e-06 4.5032e-05)
(2.8731e-05 -6.2779e-10 4.5971e-05)
(2.7026e-05 -5.7583e-05 -4.8697e-10)
(2.7085e-05 -5.6393e-05 1.1188e-05)
(2.7157e-05 -5.2983e-05 2.1958e-05)
(2.713e-05 -4.7664e-05 3.1897e-05)
(2.7088e-05 -4.0574e-05 4.0574e-05)
(2.713e-05 -3.1898e-05 4.7663e-05)
(2.7158e-05 -2.1959e-05 5.2982e-05)
(2.7086e-05 -1.1189e-05 5.6393e-05)
(2.7027e-05 -4.5268e-10 5.7582e-05)
(2.4808e-05 -6.9183e-05 -6.3513e-10)
(2.4853e-05 -6.7744e-05 1.3435e-05)
(2.4913e-05 -6.3632e-05 2.6354e-05)
(2.4908e-05 -5.7204e-05 3.8262e-05)
(2.4887e-05 -4.8674e-05 4.8674e-05)
(2.4908e-05 -3.8263e-05 5.7203e-05)
(2.4913e-05 -2.6355e-05 6.3631e-05)
(2.4854e-05 -1.3436e-05 6.7743e-05)
(2.4809e-05 -2.0066e-10 6.9182e-05)
(2.2191e-05 -8.0039e-05 -3.9015e-10)
(2.2224e-05 -7.8352e-05 1.5541e-05)
(2.2275e-05 -7.3576e-05 3.0474e-05)
(2.2285e-05 -6.6107e-05 4.4211e-05)
(2.2282e-05 -5.6239e-05 5.6238e-05)
(2.2285e-05 -4.4211e-05 6.6106e-05)
(2.2275e-05 -3.0475e-05 7.3575e-05)
(2.2225e-05 -1.5541e-05 7.8351e-05)
(2.2192e-05 -3.0686e-10 8.0037e-05)
(1.9307e-05 -8.9253e-05 -6.0825e-10)
(1.9338e-05 -8.7394e-05 1.7361e-05)
(1.9383e-05 -8.2062e-05 3.4012e-05)
(1.9387e-05 -7.369e-05 4.9287e-05)
(1.9376e-05 -6.2653e-05 6.2652e-05)
(1.9387e-05 -4.9287e-05 7.3689e-05)
(1.9384e-05 -3.4013e-05 8.2061e-05)
(1.9339e-05 -1.7361e-05 8.7392e-05)
(1.9307e-05 1.8143e-11 8.925e-05)
(1.6252e-05 -9.6329e-05 -3.9481e-10)
(1.6285e-05 -9.4324e-05 1.8752e-05)
(1.6321e-05 -8.8564e-05 3.6729e-05)
(1.6306e-05 -7.9507e-05 5.3183e-05)
(1.6283e-05 -6.758e-05 6.7579e-05)
(1.6306e-05 -5.3184e-05 7.9507e-05)
(1.6321e-05 -3.673e-05 8.8563e-05)
(1.6285e-05 -1.8753e-05 9.4323e-05)
(1.6252e-05 -1.1265e-10 9.6327e-05)
(2.703e-05 -2.5934e-06 -1.2887e-05)
(2.5736e-05 -3.3773e-06 -1.6657e-05)
(2.705e-05 -4.9788e-06 -1.1976e-05)
(2.5744e-05 -6.4944e-06 -1.5564e-05)
(2.7051e-05 -7.0389e-06 -1.0561e-05)
(2.5728e-05 -9.1595e-06 -1.3746e-05)
(2.7047e-05 -8.8717e-06 -8.8713e-06)
(2.5715e-05 -1.1527e-05 -1.1527e-05)
(2.7051e-05 -1.056e-05 -7.038e-06)
(2.5728e-05 -1.3745e-05 -9.1585e-06)
(2.705e-05 -1.1975e-05 -4.9776e-06)
(2.5744e-05 -1.5562e-05 -6.4931e-06)
(2.703e-05 -1.2885e-05 -2.5924e-06)
(2.5736e-05 -1.6655e-05 -3.3763e-06)
(2.7015e-05 -1.32e-05 7.9228e-11)
(2.5726e-05 -1.7004e-05 4.9636e-11)
(2.8181e-05 -1.2806e-06 -6.4373e-06)
(2.8214e-05 -2.4332e-06 -5.8993e-06)
(2.8221e-05 -3.423e-06 -5.1488e-06)
(2.8217e-05 -4.3173e-06 -4.3168e-06)
(2.8221e-05 -5.1488e-06 -3.4222e-06)
(2.8214e-05 -5.8988e-06 -2.4323e-06)
(2.8181e-05 -6.4364e-06 -1.2798e-06)
(2.8158e-05 -6.653e-06 1.0006e-10)
(2.915e-05 4.346e-07 2.2632e-06)
(2.92e-05 9.2573e-07 2.2334e-06)
(2.9193e-05 1.4566e-06 2.1447e-06)
(2.9173e-05 1.8984e-06 1.8994e-06)
(2.9193e-05 2.1442e-06 1.4572e-06)
(2.92e-05 2.233e-06 9.2642e-07)
(2.915e-05 2.263e-06 4.353e-07)
(2.9113e-05 2.2725e-06 -1.9971e-10)
(2.9841e-05 2.4021e-06 1.2329e-05)
(2.9906e-05 4.7972e-06 1.163e-05)
(2.9882e-05 7.1104e-06 1.0589e-05)
(2.9844e-05 9.1133e-06 9.114e-06)
(2.9882e-05 1.0588e-05 7.111e-06)
(2.9906e-05 1.1629e-05 4.7977e-06)
(2.9841e-05 1.2328e-05 2.4027e-06)
(2.9787e-05 1.2606e-05 1.5608e-10)
(3.0105e-05 4.5336e-06 2.299e-05)
(3.0152e-05 8.9502e-06 2.1649e-05)
(3.015e-05 1.3093e-05 1.9561e-05)
(3.0136e-05 1.6701e-05 1.6703e-05)
(3.015e-05 1.956e-05 1.3093e-05)
(3.0152e-05 2.1647e-05 8.9506e-06)
(3.0105e-05 2.2988e-05 4.5341e-06)
(3.0072e-05 2.3465e-05 1.0981e-09)
(2.9784e-05 6.7146e-06 3.3894e-05)
(2.9819e-05 1.3205e-05 3.1887e-05)
(2.9831e-05 1.9232e-05 2.8741e-05)
(2.9836e-05 2.4489e-05 2.4489e-05)
(2.9831e-05 2.874e-05 1.9232e-05)
(2.9819e-05 3.1885e-05 1.3206e-05)
(2.9784e-05 3.3892e-05 6.7151e-06)
(2.9766e-05 3.4592e-05 1.3076e-10)
(2.8767e-05 8.9346e-06 4.5032e-05)
(2.8817e-05 1.755e-05 4.2343e-05)
(2.8812e-05 2.5507e-05 3.8111e-05)
(2.8795e-05 3.2454e-05 3.2455e-05)
(2.8811e-05 3.811e-05 2.5507e-05)
(2.8817e-05 4.2341e-05 1.755e-05)
(2.8766e-05 4.503e-05 8.9351e-06)
(2.873e-05 4.5969e-05 2.3131e-10)
(2.7086e-05 1.1188e-05 5.6393e-05)
(2.7158e-05 2.1958e-05 5.2982e-05)
(2.713e-05 3.1897e-05 4.7664e-05)
(2.7088e-05 4.0574e-05 4.0574e-05)
(2.713e-05 4.7663e-05 3.1897e-05)
(2.7157e-05 5.2981e-05 2.1958e-05)
(2.7085e-05 5.6391e-05 1.1188e-05)
(2.7026e-05 5.758e-05 9.1161e-11)
(2.4854e-05 1.3435e-05 6.7743e-05)
(2.4913e-05 2.6354e-05 6.3631e-05)
(2.4908e-05 3.8262e-05 5.7203e-05)
(2.4887e-05 4.8673e-05 4.8674e-05)
(2.4908e-05 5.7203e-05 3.8262e-05)
(2.4913e-05 6.363e-05 2.6354e-05)
(2.4853e-05 6.7742e-05 1.3435e-05)
(2.4808e-05 6.9181e-05 -2.4311e-10)
(2.2225e-05 1.5541e-05 7.8351e-05)
(2.2275e-05 3.0474e-05 7.3575e-05)
(2.2285e-05 4.4211e-05 6.6106e-05)
(2.2281e-05 5.6238e-05 5.6238e-05)
(2.2285e-05 6.6105e-05 4.421e-05)
(2.2275e-05 7.3575e-05 3.0474e-05)
(2.2224e-05 7.8351e-05 1.5541e-05)
(2.2191e-05 8.0037e-05 -1.7675e-10)
(1.9339e-05 1.7361e-05 8.7392e-05)
(1.9384e-05 3.4013e-05 8.2061e-05)
(1.9387e-05 4.9287e-05 7.3688e-05)
(1.9376e-05 6.2652e-05 6.2651e-05)
(1.9387e-05 7.3688e-05 4.9286e-05)
(1.9383e-05 8.2061e-05 3.4012e-05)
(1.9339e-05 8.7392e-05 1.7361e-05)
(1.9307e-05 8.925e-05 -6.8024e-11)
(1.6285e-05 1.8753e-05 9.4323e-05)
(1.6322e-05 3.673e-05 8.8563e-05)
(1.6306e-05 5.3183e-05 7.9506e-05)
(1.6283e-05 6.7578e-05 6.7578e-05)
(1.6306e-05 7.9506e-05 5.3182e-05)
(1.6321e-05 8.8562e-05 3.6729e-05)
(1.6285e-05 9.4322e-05 1.8752e-05)
(1.6252e-05 9.6326e-05 -3.7909e-10)
(2.7029e-05 -1.2886e-05 2.5927e-06)
(2.5736e-05 -1.6655e-05 3.3764e-06)
(2.705e-05 -1.1976e-05 4.9781e-06)
(2.5744e-05 -1.5563e-05 6.4934e-06)
(2.7051e-05 -1.0561e-05 7.0386e-06)
(2.5728e-05 -1.3746e-05 9.1588e-06)
(2.7046e-05 -8.8727e-06 8.872e-06)
(2.5714e-05 -1.1527e-05 1.1527e-05)
(2.7051e-05 -7.0395e-06 1.0561e-05)
(2.5728e-05 -9.1595e-06 1.3746e-05)
(2.705e-05 -4.9789e-06 1.1976e-05)
(2.5744e-05 -6.4941e-06 1.5563e-05)
(2.7029e-05 -2.5934e-06 1.2886e-05)
(2.5736e-05 -3.3771e-06 1.6655e-05)
(2.7014e-05 -5.7405e-10 1.3201e-05)
(2.5726e-05 -4.9725e-10 1.7004e-05)
(2.8181e-05 -6.4369e-06 1.2801e-06)
(2.8214e-05 -5.8998e-06 2.4328e-06)
(2.8221e-05 -5.1502e-06 3.4231e-06)
(2.8216e-05 -4.3188e-06 4.3179e-06)
(2.8221e-05 -3.424e-06 5.1497e-06)
(2.8214e-05 -2.4337e-06 5.8997e-06)
(2.818e-05 -1.2808e-06 6.4371e-06)
(2.8157e-05 -6.7366e-10 6.6534e-06)
(2.915e-05 2.2625e-06 -4.35e-07)
(2.92e-05 2.232e-06 -9.2593e-07)
(2.9192e-05 2.1427e-06 -1.4563e-06)
(2.9173e-05 1.8969e-06 -1.8982e-06)
(2.9192e-05 1.4554e-06 -2.1434e-06)
(2.92e-05 9.2506e-07 -2.2325e-06)
(2.915e-05 4.3424e-07 -2.2629e-06)
(2.9112e-05 -1.1375e-09 -2.2728e-06)
(2.9841e-05 1.2327e-05 -2.4024e-06)
(2.9906e-05 1.1628e-05 -4.7973e-06)
(2.9881e-05 1.0586e-05 -7.1101e-06)
(2.9844e-05 9.1117e-06 -9.1127e-06)
(2.9881e-05 7.1091e-06 -1.0587e-05)
(2.9906e-05 4.7964e-06 -1.1629e-05)
(2.984e-05 2.4016e-06 -1.2328e-05)
(2.9787e-05 -9.3046e-10 -1.2607e-05)
(3.0105e-05 2.2988e-05 -4.5338e-06)
(3.0151e-05 2.1646e-05 -8.9501e-06)
(3.0149e-05 1.9558e-05 -1.3092e-05)
(3.0135e-05 1.67e-05 -1.67e-05)
(3.0149e-05 1.3091e-05 -1.9559e-05)
(3.0151e-05 8.9491e-06 -2.1647e-05)
(3.0105e-05 4.5329e-06 -2.2988e-05)
(3.0072e-05 -1.9423e-09 -2.3466e-05)
(2.9784e-05 3.3892e-05 -6.7148e-06)
(2.9818e-05 3.1884e-05 -1.3205e-05)
(2.983e-05 2.8739e-05 -1.9231e-05)
(2.9835e-05 2.4487e-05 -2.4488e-05)
(2.983e-05 1.923e-05 -2.8739e-05)
(2.9818e-05 1.3204e-05 -3.1885e-05)
(2.9784e-05 6.7137e-06 -3.3892e-05)
(2.9766e-05 -1.0063e-09 -3.4592e-05)
(2.8766e-05 4.503e-05 -8.9348e-06)
(2.8816e-05 4.234e-05 -1.7549e-05)
(2.8811e-05 3.8108e-05 -2.5506e-05)
(2.8794e-05 3.2452e-05 -3.2453e-05)
(2.8811e-05 2.5505e-05 -3.8109e-05)
(2.8816e-05 1.7548e-05 -4.234e-05)
(2.8766e-05 8.9337e-06 -4.5029e-05)
(2.873e-05 -8.8111e-10 -4.5969e-05)
(2.7084e-05 5.6391e-05 -1.1188e-05)
(2.7156e-05 5.298e-05 -2.1958e-05)
(2.7128e-05 4.7662e-05 -3.1896e-05)
(2.7087e-05 4.0572e-05 -4.0573e-05)
(2.7129e-05 3.1895e-05 -4.7662e-05)
(2.7157e-05 2.1957e-05 -5.298e-05)
(2.7084e-05 1.1187e-05 -5.639e-05)
(2.7026e-05 -9.2073e-10 -5.7579e-05)
(2.4852e-05 6.7742e-05 -1.3435e-05)
(2.4912e-05 6.363e-05 -2.6354e-05)
(2.4907e-05 5.7203e-05 -3.8262e-05)
(2.4886e-05 4.8673e-05 -4.8673e-05)
(2.4907e-05 3.8261e-05 -5.7202e-05)
(2.4912e-05 2.6353e-05 -6.3629e-05)
(2.4852e-05 1.3434e-05 -6.7741e-05)
(2.4808e-05 -6.4399e-10 -6.9179e-05)
(2.2224e-05 7.8351e-05 -1.5541e-05)
(2.2274e-05 7.3575e-05 -3.0474e-05)
(2.2284e-05 6.6106e-05 -4.4211e-05)
(2.228e-05 5.6238e-05 -5.6239e-05)
(2.2284e-05 4.421e-05 -6.6106e-05)
(2.2274e-05 3.0473e-05 -7.3574e-05)
(2.2223e-05 1.554e-05 -7.8349e-05)
(2.2191e-05 -6.895e-10 -8.0035e-05)
(1.9338e-05 8.7392e-05 -1.7361e-05)
(1.9383e-05 8.2062e-05 -3.4013e-05)
(1.9386e-05 7.3689e-05 -4.9287e-05)
(1.9375e-05 6.2653e-05 -6.2653e-05)
(1.9386e-05 4.9287e-05 -7.3689e-05)
(1.9382e-05 3.4012e-05 -8.2061e-05)
(1.9338e-05 1.7361e-05 -8.7391e-05)
(1.9306e-05 -1.883e-10 -8.9249e-05)
(1.6285e-05 9.4323e-05 -1.8753e-05)
(1.6321e-05 8.8563e-05 -3.673e-05)
(1.6305e-05 7.9508e-05 -5.3184e-05)
(1.6282e-05 6.758e-05 -6.758e-05)
(1.6305e-05 5.3183e-05 -7.9508e-05)
(1.632e-05 3.6729e-05 -8.8563e-05)
(1.6284e-05 1.8752e-05 -9.4323e-05)
(1.6251e-05 -5.3188e-11 -9.6326e-05)
(2.7029e-05 2.5922e-06 1.2886e-05)
(2.5736e-05 3.3761e-06 1.6655e-05)
(2.705e-05 4.9777e-06 1.1976e-05)
(2.5744e-05 6.4932e-06 1.5564e-05)
(2.7051e-05 7.0383e-06 1.0561e-05)
(2.5727e-05 9.159e-06 1.3746e-05)
(2.7046e-05 8.8718e-06 8.8724e-06)
(2.5714e-05 1.1527e-05 1.1528e-05)
(2.7051e-05 1.0561e-05 7.0391e-06)
(2.5727e-05 1.3747e-05 9.1599e-06)
(2.705e-05 1.1976e-05 4.9785e-06)
(2.5744e-05 1.5564e-05 6.4942e-06)
(2.7029e-05 1.2886e-05 2.5928e-06)
(2.5736e-05 1.6656e-05 3.3768e-06)
(2.818e-05 1.2794e-06 6.437e-06)
(2.8214e-05 2.4321e-06 5.8994e-06)
(2.8221e-05 3.4223e-06 5.1494e-06)
(2.8216e-05 4.3171e-06 4.3176e-06)
(2.8221e-05 5.1491e-06 3.4229e-06)
(2.8214e-05 5.8992e-06 2.4328e-06)
(2.8181e-05 6.4368e-06 1.28e-06)
(2.915e-05 -4.359e-07 -2.2631e-06)
(2.9199e-05 -9.2686e-07 -2.2328e-06)
(2.9192e-05 -1.4574e-06 -2.144e-06)
(2.9172e-05 -1.8993e-06 -1.8984e-06)
(2.9192e-05 -2.1444e-06 -1.4569e-06)
(2.92e-05 -2.2332e-06 -9.2622e-07)
(2.915e-05 -2.2633e-06 -4.3522e-07)
(2.984e-05 -2.4034e-06 -1.2328e-05)
(2.9906e-05 -4.7983e-06 -1.1629e-05)
(2.9881e-05 -7.1112e-06 -1.0588e-05)
(2.9844e-05 -9.1139e-06 -9.1135e-06)
(2.9881e-05 -1.0588e-05 -7.1107e-06)
(2.9906e-05 -1.163e-05 -4.7977e-06)
(2.9841e-05 -1.2328e-05 -2.4027e-06)
(3.0105e-05 -4.5348e-06 -2.2989e-05)
(3.0151e-05 -8.9511e-06 -2.1647e-05)
(3.0149e-05 -1.3094e-05 -1.956e-05)
(3.0135e-05 -1.6701e-05 -1.6702e-05)
(3.0149e-05 -1.9561e-05 -1.3093e-05)
(3.0151e-05 -2.1648e-05 -8.9506e-06)
(3.0105e-05 -2.2989e-05 -4.5342e-06)
(2.9783e-05 -6.7158e-06 -3.3893e-05)
(2.9818e-05 -1.3206e-05 -3.1886e-05)
(2.983e-05 -1.9233e-05 -2.8741e-05)
(2.9835e-05 -2.449e-05 -2.4489e-05)
(2.983e-05 -2.8742e-05 -1.9232e-05)
(2.9818e-05 -3.1887e-05 -1.3206e-05)
(2.9784e-05 -3.3894e-05 -6.7154e-06)
(2.8766e-05 -8.9358e-06 -4.503e-05)
(2.8816e-05 -1.7551e-05 -4.2342e-05)
(2.8811e-05 -2.5508e-05 -3.8111e-05)
(2.8793e-05 -3.2456e-05 -3.2455e-05)
(2.8811e-05 -3.8112e-05 -2.5508e-05)
(2.8816e-05 -4.2343e-05 -1.7551e-05)
(2.8766e-05 -4.5033e-05 -8.9356e-06)
(2.7084e-05 -1.1189e-05 -5.6391e-05)
(2.7157e-05 -2.196e-05 -5.2982e-05)
(2.7129e-05 -3.1899e-05 -4.7665e-05)
(2.7087e-05 -4.0576e-05 -4.0576e-05)
(2.7129e-05 -4.7666e-05 -3.1899e-05)
(2.7157e-05 -5.2984e-05 -2.196e-05)
(2.7085e-05 -5.6394e-05 -1.1189e-05)
(2.4852e-05 -1.3436e-05 -6.7742e-05)
(2.4912e-05 -2.6355e-05 -6.3631e-05)
(2.4907e-05 -3.8264e-05 -5.7205e-05)
(2.4886e-05 -4.8676e-05 -4.8676e-05)
(2.4907e-05 -5.7207e-05 -3.8264e-05)
(2.4912e-05 -6.3634e-05 -2.6356e-05)
(2.4853e-05 -6.7745e-05 -1.3436e-05)
(2.2224e-05 -1.5542e-05 -7.835e-05)
(2.2274e-05 -3.0475e-05 -7.3576e-05)
(2.2284e-05 -4.4213e-05 -6.6108e-05)
(2.2281e-05 -5.6241e-05 -5.6241e-05)
(2.2284e-05 -6.6109e-05 -4.4213e-05)
(2.2274e-05 -7.3578e-05 -3.0476e-05)
(2.2224e-05 -7.8354e-05 -1.5542e-05)
(1.9338e-05 -1.7362e-05 -8.7392e-05)
(1.9383e-05 -3.4014e-05 -8.2063e-05)
(1.9386e-05 -4.9288e-05 -7.3691e-05)
(1.9376e-05 -6.2655e-05 -6.2654e-05)
(1.9386e-05 -7.3692e-05 -4.9289e-05)
(1.9383e-05 -8.2065e-05 -3.4014e-05)
(1.9338e-05 -8.7395e-05 -1.7362e-05)
(1.6284e-05 -1.8753e-05 -9.4324e-05)
(1.6321e-05 -3.673e-05 -8.8565e-05)
(1.6305e-05 -5.3184e-05 -7.9509e-05)
(1.6282e-05 -6.7581e-05 -6.7581e-05)
(1.6306e-05 -7.9509e-05 -5.3185e-05)
(1.6321e-05 -8.8566e-05 -3.6731e-05)
(1.6285e-05 -9.4326e-05 -1.8753e-05)
)
;
    }
    procBoundary1to0
    {
        type            processor;
    }
    procBoundary1to2
    {
        type            processor;
    }
}


// ************************************************************************* //
