/*--------------------------------*- C++ -*----------------------------------*\
| =========                 |                                                 |
| \\      /  F ield         | foam-extend: Open Source CFD                    |
|  \\    /   O peration     | Version:     4.1-20200408                       |
|   \\  /    A nd           | Web:         http://www.foam-extend.org         |
|    \\/     M anipulation  |                                                 |
\*---------------------------------------------------------------------------*/
FoamFile
{
    version     2.0;
    format      ascii;
    class       volScalarField;
    location    "0.0550000";
    object      rho;
}
// * * * * * * * * * * * * * * * * * * * * * * * * * * * * * * * * * * * * * //

dimensions      [1 -3 0 0 0 0 0];

internalField   nonuniform List<scalar> 
1952
(
7853.01
7852.36
7851.46
7850.35
7848.93
7847.29
7845.3
7842.92
7840.11
7836.63
7832.64
7826.98
7820.39
7812.14
7806.58
7853.28
7852.94
7852.28
7851.37
7850.26
7848.83
7847.18
7845.17
7842.79
7839.97
7836.49
7832.48
7826.82
7820.22
7811.98
7806.43
7853.21
7852.89
7852.23
7851.31
7850.21
7848.77
7847.12
7845.11
7842.73
7839.9
7836.42
7832.41
7826.75
7820.16
7811.93
7806.42
7853.16
7852.84
7852.18
7851.27
7850.16
7848.72
7847.07
7845.05
7842.67
7839.84
7836.37
7832.35
7826.7
7820.11
7811.9
7806.4
7853.11
7852.81
7852.14
7851.23
7850.12
7848.67
7847.03
7845
7842.62
7839.79
7836.32
7832.31
7826.66
7820.07
7811.87
7806.39
7853.08
7852.77
7852.11
7851.19
7850.08
7848.64
7846.99
7844.96
7842.58
7839.75
7836.29
7832.28
7826.63
7820.04
7811.85
7806.38
7853.04
7852.74
7852.08
7851.16
7850.05
7848.61
7846.96
7844.93
7842.55
7839.72
7836.26
7832.25
7826.61
7820.01
7811.83
7806.37
7853.01
7852.72
7852.05
7851.14
7850.03
7848.58
7846.93
7844.9
7842.52
7839.69
7836.24
7832.22
7826.58
7819.99
7811.81
7806.35
7852.99
7852.7
7852.03
7851.12
7850.01
7848.56
7846.91
7844.88
7842.5
7839.67
7836.21
7832.2
7826.56
7819.97
7811.79
7806.34
7852.97
7852.68
7852.02
7851.1
7849.99
7848.54
7846.89
7844.86
7842.48
7839.65
7836.2
7832.18
7826.54
7819.94
7811.77
7806.32
7852.96
7852.67
7852
7851.09
7849.98
7848.53
7846.88
7844.84
7842.46
7839.64
7836.18
7832.17
7826.52
7819.92
7811.75
7806.3
7852.95
7852.66
7851.99
7851.08
7849.97
7848.51
7846.87
7844.83
7842.44
7839.62
7836.16
7832.15
7826.5
7819.9
7811.72
7806.28
7852.94
7852.66
7851.99
7851.07
7849.96
7848.5
7846.85
7844.81
7842.43
7839.6
7836.15
7832.13
7826.48
7819.87
7811.7
7806.26
7852.93
7852.65
7851.98
7851.06
7849.95
7848.49
7846.84
7844.8
7842.41
7839.59
7836.13
7832.11
7826.46
7819.85
7811.68
7806.24
7852.93
7852.65
7851.97
7851.06
7849.94
7848.48
7846.83
7844.79
7842.4
7839.57
7836.12
7832.09
7826.44
7819.82
7811.65
7806.21
7852.93
7852.64
7851.97
7851.05
7849.94
7848.48
7846.82
7844.78
7842.38
7839.56
7836.1
7832.08
7826.42
7819.79
7811.62
7806.19
7852.92
7852.65
7851.97
7851.05
7849.94
7848.47
7846.82
7844.77
7842.37
7839.54
7836.09
7832.06
7826.4
7819.76
7811.59
7806.16
7852.93
7852.65
7851.97
7851.05
7849.94
7848.47
7846.81
7844.76
7842.36
7839.53
7836.07
7832.04
7826.38
7819.73
7811.56
7806.13
7852.93
7852.65
7851.97
7851.05
7849.93
7848.46
7846.8
7844.75
7842.34
7839.51
7836.05
7832.02
7826.35
7819.7
7811.53
7806.09
7852.93
7852.65
7851.97
7851.05
7849.93
7848.46
7846.8
7844.74
7842.33
7839.5
7836.03
7831.99
7826.32
7819.66
7811.49
7806.06
7852.93
7852.66
7851.97
7851.05
7849.93
7848.45
7846.79
7844.72
7842.32
7839.48
7836.02
7831.97
7826.3
7819.63
7811.45
7806.02
7852.94
7852.67
7851.98
7851.06
7849.94
7848.45
7846.79
7844.72
7842.3
7839.46
7836
7831.94
7826.27
7819.59
7811.41
7805.98
7852.95
7852.68
7851.99
7851.07
7849.94
7848.45
7846.78
7844.71
7842.29
7839.45
7835.97
7831.92
7826.23
7819.55
7811.37
7805.93
7852.96
7852.69
7852
7851.07
7849.95
7848.46
7846.78
7844.7
7842.28
7839.43
7835.95
7831.89
7826.2
7819.5
7811.32
7805.88
7852.98
7852.71
7852.02
7851.09
7849.96
7848.46
7846.79
7844.7
7842.27
7839.41
7835.93
7831.86
7826.16
7819.46
7811.27
7805.83
7853
7852.74
7852.04
7851.11
7849.98
7848.47
7846.79
7844.69
7842.26
7839.4
7835.91
7831.83
7826.12
7819.41
7811.22
7805.77
7853.03
7852.77
7852.07
7851.14
7850
7848.49
7846.8
7844.69
7842.25
7839.38
7835.89
7831.8
7826.08
7819.35
7811.16
7805.7
7853.06
7852.81
7852.11
7851.17
7850.03
7848.51
7846.82
7844.7
7842.25
7839.37
7835.87
7831.76
7826.03
7819.3
7811.1
7805.63
7853.1
7852.87
7852.16
7851.22
7850.08
7848.55
7846.85
7844.72
7842.26
7839.36
7835.86
7831.73
7825.99
7819.24
7811.03
7805.54
7853.16
7852.94
7852.23
7851.28
7850.13
7848.59
7846.88
7844.74
7842.27
7839.36
7835.84
7831.7
7825.94
7819.17
7810.96
7805.46
7853.23
7853.02
7852.31
7851.36
7850.2
7848.65
7846.93
7844.77
7842.29
7839.37
7835.84
7831.67
7825.9
7819.11
7810.88
7805.36
7853.32
7853.13
7852.42
7851.45
7850.29
7848.73
7847
7844.83
7842.33
7839.39
7835.84
7831.65
7825.86
7819.04
7810.79
7805.25
7853.43
7853.26
7852.55
7851.58
7850.41
7848.83
7847.09
7844.9
7842.38
7839.42
7835.85
7831.63
7825.82
7818.97
7810.7
7805.14
7853.57
7853.42
7852.71
7851.73
7850.55
7848.96
7847.21
7844.99
7842.46
7839.47
7835.89
7831.63
7825.79
7818.91
7810.61
7805.01
7853.73
7853.62
7852.9
7851.91
7850.73
7849.12
7847.35
7845.11
7842.56
7839.55
7835.94
7831.65
7825.78
7818.85
7810.52
7804.88
7853.93
7853.86
7853.13
7852.14
7850.94
7849.32
7847.54
7845.27
7842.7
7839.65
7836.02
7831.68
7825.78
7818.8
7810.43
7804.74
7854.17
7854.14
7853.41
7852.41
7851.2
7849.56
7847.77
7845.48
7842.88
7839.8
7836.13
7831.75
7825.8
7818.76
7810.35
7804.6
7854.45
7854.47
7853.75
7852.73
7851.52
7849.86
7848.05
7845.73
7843.11
7839.99
7836.29
7831.85
7825.86
7818.75
7810.29
7804.46
7854.79
7854.86
7854.14
7853.11
7851.9
7850.22
7848.4
7846.06
7843.4
7840.24
7836.51
7832.01
7825.96
7818.77
7810.24
7804.32
7855.18
7855.32
7854.6
7853.56
7852.34
7850.65
7848.81
7846.45
7843.77
7840.57
7836.8
7832.23
7826.12
7818.84
7810.24
7804.2
7855.64
7855.84
7855.12
7854.08
7852.86
7851.16
7849.32
7846.93
7844.23
7841
7837.18
7832.54
7826.37
7818.98
7810.28
7804.11
7856.16
7856.42
7855.72
7854.68
7853.46
7851.76
7849.91
7847.52
7844.8
7841.53
7837.68
7832.96
7826.72
7819.2
7810.4
7804.05
7856.74
7857.07
7856.38
7855.35
7854.14
7852.45
7850.61
7848.21
7845.49
7842.2
7838.32
7833.53
7827.21
7819.55
7810.62
7804.06
7857.39
7857.78
7857.11
7856.09
7854.9
7853.24
7851.41
7849.04
7846.32
7843.03
7839.13
7834.28
7827.89
7820.07
7811
7804.17
7858.09
7858.53
7857.88
7856.89
7855.74
7854.11
7852.33
7850
7847.31
7844.05
7840.15
7835.27
7828.82
7820.83
7811.59
7804.42
7858.83
7859.3
7858.69
7857.73
7856.64
7855.07
7853.35
7851.1
7848.47
7845.28
7841.43
7836.55
7830.08
7821.94
7812.49
7804.83
7859.6
7860.05
7859.49
7858.58
7857.56
7856.09
7854.46
7852.33
7849.81
7846.76
7843.01
7838.21
7831.77
7823.53
7813.9
7805.63
7860.34
7860.75
7860.25
7859.41
7858.48
7857.13
7855.64
7853.67
7851.32
7848.47
7844.91
7840.32
7834.06
7825.9
7816.32
7807.58
7861.02
7861.34
7860.9
7860.14
7859.33
7858.14
7856.82
7855.08
7852.96
7850.42
7847.16
7842.95
7837.09
7829.41
7820.53
7812.62
7861.59
7861.74
7861.37
7860.72
7860.05
7859.03
7857.93
7856.47
7854.64
7852.49
7849.61
7845.92
7840.6
7833.57
7825.55
7818.58
7861.96
7861.85
7861.57
7861.03
7860.53
7859.73
7858.87
7857.74
7856.26
7854.59
7852.17
7849.13
7844.42
7838.2
7831.07
7824.86
7862.05
7861.59
7861.4
7860.99
7860.66
7860.1
7859.53
7858.76
7857.68
7856.55
7854.66
7852.38
7848.36
7843.12
7836.91
7831.4
7861.76
7860.84
7860.74
7860.47
7860.33
7860.02
7859.74
7859.38
7858.73
7858.2
7856.89
7855.5
7852.24
7848.26
7842.92
7838.18
7860.97
7859.47
7859.47
7859.34
7859.39
7859.33
7859.37
7859.41
7859.23
7859.33
7858.67
7858.26
7855.87
7853.47
7849.01
7845.38
7859.57
7857.37
7857.47
7857.48
7857.73
7857.93
7858.28
7858.72
7859.01
7859.68
7859.63
7860.18
7858.84
7858.33
7855.16
7853.18
7857.44
7854.45
7854.63
7854.74
7855.14
7855.52
7856.12
7856.89
7857.65
7858.95
7859.59
7861.13
7861
7862.36
7860.91
7861.53
7854.49
7850.37
7850.66
7850.93
7851.54
7852.19
7853.13
7854.35
7855.65
7857.63
7859.07
7861.61
7862.63
7865.64
7865.99
7869.84
7850.38
7845.62
7846.13
7846.7
7847.69
7848.82
7850.29
7852.09
7853.99
7856.59
7858.81
7862.24
7864.34
7868.85
7870.75
7877.82
7845.55
7841.52
7842.26
7843.15
7844.54
7846.15
7848.15
7850.49
7853
7856.14
7859.01
7863.12
7866.05
7871.63
7874.66
7883.84
7841.35
7838.61
7839.53
7840.68
7842.38
7844.36
7846.75
7849.49
7852.46
7856
7859.38
7863.95
7867.53
7873.75
7877.57
7887.76
7838.34
7836.86
7837.89
7839.22
7841.13
7843.34
7846.01
7849.01
7852.3
7856.09
7859.83
7864.62
7868.62
7875.09
7879.38
7889.79
7836.51
7836.28
7837.35
7838.78
7840.78
7843.11
7845.92
7849.04
7852.49
7856.37
7860.31
7865.11
7869.32
7875.65
7880.1
7890.08
7835.88
7836.81
7837.86
7839.3
7841.3
7843.63
7846.45
7849.56
7853.05
7856.85
7860.82
7865.42
7869.64
7875.5
7879.83
7888.82
7836.39
7838.37
7839.36
7840.74
7842.65
7844.87
7847.6
7850.57
7853.96
7857.55
7861.4
7865.61
7869.64
7874.75
7878.69
7886.21
7837.97
7840.88
7841.77
7843.02
7844.77
7846.8
7849.33
7852.05
7855.22
7858.47
7862.06
7865.73
7869.38
7873.49
7876.78
7882.44
7840.51
7844.23
7845
7846.07
7847.59
7849.36
7851.61
7853.99
7856.84
7859.65
7862.86
7865.84
7868.94
7871.82
7874.23
7877.74
7843.92
7848.27
7848.91
7849.78
7851.07
7852.53
7854.45
7856.42
7858.85
7861.13
7863.83
7866.01
7868.37
7869.84
7871.15
7872.38
7848.01
7852.8
7853.34
7854.04
7855.1
7856.26
7857.84
7859.37
7861.33
7863
7865.07
7866.33
7867.76
7867.64
7867.67
7866.64
7852.58
7857.61
7858.09
7858.66
7859.55
7860.48
7861.75
7862.87
7864.34
7865.36
7866.69
7866.91
7867.19
7865.33
7863.98
7860.84
7857.42
7862.49
7862.95
7863.44
7864.22
7864.96
7865.98
7866.77
7867.82
7868.25
7868.81
7867.9
7866.85
7863.12
7860.34
7855.35
7862.31
7867.21
7867.66
7868.11
7868.81
7869.43
7870.28
7870.88
7871.74
7871.78
7871.64
7869.56
7866.97
7861.35
7857.23
7850.66
7867.04
7872
7872.45
7872.93
7873.63
7874.25
7875.01
7875.46
7875.86
7875.1
7873.81
7870.46
7866.59
7860.07
7854.96
7847.27
7871.82
7876.75
7877.03
7877.27
7877.61
7877.75
7877.79
7877.23
7876.29
7874.31
7871.95
7868.07
7864.09
7857.92
7853.18
7845.31
7876.64
7877.85
7877.71
7877.39
7876.96
7876.2
7875.24
7873.65
7871.81
7869.31
7866.76
7863.17
7859.91
7854.76
7851.05
7844.48
7877.89
7874.09
7873.78
7873.24
7872.5
7871.44
7870.17
7868.48
7866.74
7864.49
7862.14
7858.94
7855.89
7851.71
7848.42
7843.64
7874.2
7869.5
7869.2
7868.71
7868.03
7867.08
7865.94
7864.42
7862.74
7860.6
7858.37
7855.51
7852.76
7849.2
7845.97
7842.25
7869.61
7865.77
7865.43
7864.91
7864.19
7863.24
7862.1
7860.66
7859.09
7857.14
7855.11
7852.58
7850.12
7847.05
7844.25
7840.79
7865.89
7862.19
7861.86
7861.38
7860.7
7859.82
7858.76
7857.45
7856
7854.23
7852.39
7850.15
7847.97
7845.32
7842.86
7839.92
7862.31
7859.06
7858.73
7858.27
7857.62
7856.8
7855.81
7854.62
7853.29
7851.71
7850.06
7848.1
7846.18
7843.9
7841.78
7839.25
7859.17
7856.22
7855.91
7855.49
7854.88
7854.14
7853.24
7852.16
7850.96
7849.56
7848.09
7846.38
7844.7
7842.74
7840.93
7838.78
7856.32
7853.71
7853.41
7853.03
7852.47
7851.8
7850.98
7850.01
7848.95
7847.71
7846.42
7844.93
7843.47
7841.79
7840.25
7838.42
7853.8
7851.47
7851.19
7850.85
7850.34
7849.74
7849.01
7848.15
7847.2
7846.11
7844.99
7843.7
7842.44
7841.01
7839.69
7838.14
7851.55
7849.49
7849.23
7848.93
7848.47
7847.93
7847.28
7846.53
7845.69
7844.74
7843.76
7842.65
7841.57
7840.35
7839.23
7837.93
7849.56
7847.74
7847.5
7847.23
7846.82
7846.35
7845.77
7845.11
7844.38
7843.56
7842.7
7841.75
7840.83
7839.79
7838.85
7837.74
7847.8
7846.19
7845.98
7845.74
7845.38
7844.96
7844.45
7843.88
7843.24
7842.53
7841.79
7840.97
7840.19
7839.31
7838.51
7837.58
7846.24
7844.82
7844.63
7844.42
7844.1
7843.74
7843.3
7842.8
7842.24
7841.63
7840.99
7840.3
7839.63
7838.88
7838.21
7837.43
7844.87
7843.61
7843.44
7843.26
7842.98
7842.67
7842.28
7841.85
7841.37
7840.84
7840.3
7839.7
7839.13
7838.51
7837.94
7837.28
7843.66
7842.54
7842.39
7842.24
7841.99
7841.72
7841.38
7841.01
7840.6
7840.14
7839.68
7839.18
7838.69
7838.16
7837.69
7837.12
7842.58
7841.6
7841.46
7841.33
7841.11
7840.88
7840.59
7840.27
7839.91
7839.53
7839.13
7838.7
7838.29
7837.85
7837.45
7836.97
7841.63
7840.75
7840.64
7840.52
7840.34
7840.13
7839.88
7839.61
7839.3
7838.97
7838.64
7838.27
7837.93
7837.55
7837.21
7836.8
7840.78
7840.01
7839.9
7839.81
7839.64
7839.47
7839.25
7839.02
7838.76
7838.48
7838.19
7837.88
7837.59
7837.27
7836.98
7836.63
7840.03
7839.34
7839.25
7839.16
7839.02
7838.87
7838.69
7838.49
7838.26
7838.02
7837.78
7837.52
7837.27
7837
7836.76
7836.45
7839.36
7838.74
7838.66
7838.59
7838.47
7838.34
7838.18
7838.01
7837.81
7837.61
7837.4
7837.18
7836.97
7836.74
7836.53
7836.27
7838.75
7838.2
7838.13
7838.07
7837.96
7837.85
7837.72
7837.57
7837.41
7837.23
7837.05
7836.87
7836.69
7836.49
7836.31
7836.08
7838.21
7837.71
7837.65
7837.6
7837.51
7837.41
7837.29
7837.17
7837.03
7836.88
7836.73
7836.57
7836.42
7836.25
7836.09
7835.89
7837.72
7837.26
7837.21
7837.17
7837.09
7837.01
7836.91
7836.8
7836.68
7836.55
7836.42
7836.29
7836.16
7836.01
7835.88
7835.69
7837.27
7836.86
7836.81
7836.78
7836.71
7836.64
7836.55
7836.46
7836.36
7836.25
7836.14
7836.02
7835.91
7835.78
7835.66
7835.49
7836.87
7836.49
7836.45
7836.41
7836.36
7836.3
7836.22
7836.14
7836.05
7835.96
7835.86
7835.76
7835.66
7835.56
7835.45
7835.29
7836.49
7836.14
7836.11
7836.08
7836.03
7835.98
7835.91
7835.85
7835.77
7835.69
7835.6
7835.52
7835.43
7835.34
7835.24
7835.1
7836.15
7835.83
7835.8
7835.77
7835.73
7835.69
7835.63
7835.57
7835.5
7835.43
7835.36
7835.28
7835.2
7835.12
7835.03
7834.9
7835.83
7835.54
7835.51
7835.49
7835.45
7835.41
7835.36
7835.31
7835.25
7835.18
7835.12
7835.05
7834.99
7834.91
7834.83
7834.7
7835.54
7835.26
7835.24
7835.22
7835.19
7835.15
7835.11
7835.06
7835.01
7834.95
7834.89
7834.83
7834.77
7834.7
7834.63
7834.51
7835.27
7835.01
7834.99
7834.97
7834.94
7834.91
7834.87
7834.83
7834.78
7834.73
7834.68
7834.62
7834.57
7834.5
7834.43
7834.32
7835.01
7834.77
7834.75
7834.73
7834.71
7834.68
7834.64
7834.6
7834.56
7834.52
7834.47
7834.42
7834.37
7834.31
7834.24
7834.13
7834.77
7834.55
7834.53
7834.51
7834.49
7834.46
7834.43
7834.4
7834.36
7834.31
7834.27
7834.22
7834.18
7834.12
7834.05
7833.94
7834.55
7834.34
7834.32
7834.31
7834.28
7834.26
7834.23
7834.2
7834.16
7834.12
7834.08
7834.03
7833.99
7833.94
7833.87
7833.76
7834.34
7834.14
7834.13
7834.11
7834.09
7834.07
7834.04
7834.01
7833.97
7833.94
7833.9
7833.85
7833.81
7833.76
7833.69
7833.59
7834.14
7833.96
7833.94
7833.93
7833.91
7833.89
7833.86
7833.83
7833.8
7833.76
7833.72
7833.68
7833.64
7833.59
7833.52
7833.42
7833.96
7833.78
7833.77
7833.76
7833.74
7833.72
7833.69
7833.66
7833.63
7833.59
7833.55
7833.51
7833.47
7833.42
7833.35
7833.25
7833.79
7833.62
7833.61
7833.6
7833.58
7833.56
7833.53
7833.5
7833.47
7833.43
7833.4
7833.35
7833.31
7833.26
7833.19
7833.08
7833.63
7833.47
7833.46
7833.45
7833.43
7833.41
7833.38
7833.35
7833.32
7833.29
7833.25
7833.2
7833.16
7833.1
7833.03
7832.92
7833.48
7833.33
7833.32
7833.31
7833.29
7833.27
7833.25
7833.22
7833.18
7833.15
7833.1
7833.06
7833.01
7832.95
7832.88
7832.77
7833.34
7833.21
7833.2
7833.19
7833.17
7833.15
7833.12
7833.09
7833.05
7833.02
7832.97
7832.93
7832.87
7832.81
7832.74
7832.62
7833.21
7833.09
7833.08
7833.07
7833.05
7833.03
7833
7832.97
7832.94
7832.9
7832.85
7832.8
7832.75
7832.68
7832.6
7832.47
7833.1
7832.99
7832.98
7832.97
7832.95
7832.93
7832.9
7832.87
7832.83
7832.79
7832.74
7832.69
7832.63
7832.56
7832.47
7832.34
7832.99
7832.89
7832.89
7832.87
7832.85
7832.83
7832.81
7832.77
7832.74
7832.69
7832.65
7832.59
7832.53
7832.45
7832.35
7832.21
7832.9
7832.81
7832.8
7832.79
7832.77
7832.75
7832.73
7832.69
7832.66
7832.61
7832.56
7832.5
7832.44
7832.35
7832.25
7832.09
7832.82
7832.74
7832.73
7832.72
7832.7
7832.68
7832.66
7832.63
7832.59
7832.55
7832.5
7832.43
7832.36
7832.27
7832.16
7831.98
7832.74
7832.68
7832.67
7832.66
7832.64
7832.62
7832.6
7832.57
7832.54
7832.49
7832.44
7832.38
7832.31
7832.22
7832.09
7831.89
7832.68
7832.63
7832.62
7832.61
7832.6
7832.58
7832.56
7832.53
7832.5
7832.46
7832.41
7832.35
7832.28
7832.2
7832.06
7831.85
7832.63
7832.58
7832.58
7832.57
7832.56
7832.54
7832.52
7832.49
7832.47
7832.43
7832.39
7832.35
7832.29
7832.22
7832.12
7831.97
7832.59
7832.57
7832.56
7832.55
7832.54
7832.52
7832.51
7832.48
7832.46
7832.43
7832.39
7832.35
7832.31
7832.26
7832.2
7832.08
7832.57
)
;

boundaryField
{
    wireUpstream
    {
        type            calculated;
        value           nonuniform List<scalar> 
16
(
7832.54
7832.54
7832.53
7832.52
7832.51
7832.49
7832.47
7832.45
7832.42
7832.39
7832.36
7832.32
7832.29
7832.26
7832.24
7832.55
)
;
    }
    wireDownstream
    {
        type            calculated;
        value           nonuniform List<scalar> 
16
(
7853.01
7852.35
7851.45
7850.34
7848.93
7847.28
7845.29
7842.91
7840.1
7836.63
7832.64
7826.99
7820.43
7812.23
7806.81
7853.28
)
;
    }
    wireTopContact
    {
        type            calculated;
        value           nonuniform List<scalar> 
122
(
7805.99
7805.98
7805.96
7805.95
7805.93
7805.92
7805.91
7805.89
7805.88
7805.86
7805.84
7805.82
7805.8
7805.77
7805.74
7805.71
7805.68
7805.65
7805.62
7805.58
7805.53
7805.49
7805.44
7805.38
7805.32
7805.26
7805.18
7805.1
7805.02
7804.92
7804.81
7804.7
7804.57
7804.44
7804.31
7804.17
7804.03
7803.9
7803.79
7803.71
7803.68
7803.71
7803.85
7804.14
7804.65
7805.52
7807.33
7812.6
7818.68
7825.08
7831.75
7838.54
7845.53
7853.03
7861.08
7869.1
7877.13
7883.07
7886.89
7888.94
7889.29
7888.11
7885.6
7881.93
7877.36
7872.13
7866.56
7860.98
7855.78
7851.4
7848.22
7846.32
7845.17
7843.54
7842.18
7840.79
7839.91
7839.22
7838.74
7838.37
7838.09
7837.87
7837.69
7837.53
7837.37
7837.23
7837.08
7836.92
7836.76
7836.59
7836.42
7836.24
7836.05
7835.86
7835.67
7835.47
7835.27
7835.08
7834.88
7834.69
7834.49
7834.3
7834.12
7833.93
7833.75
7833.58
7833.41
7833.24
7833.07
7832.91
7832.76
7832.61
7832.47
7832.33
7832.2
7832.08
7831.98
7831.9
7831.85
7831.95
7832.03
7806.11
)
;
    }
    front
    {
        type            wedge;
    }
    back
    {
        type            wedge;
    }
}


// ************************************************************************* //
