/*--------------------------------*- C++ -*----------------------------------*\
| =========                 |                                                 |
| \\      /  F ield         | OpenFOAM: The Open Source CFD Toolbox           |
|  \\    /   O peration     | Version:  4.1                                   |
|   \\  /    A nd           | Web:      www.OpenFOAM.org                      |
|    \\/     M anipulation  |                                                 |
\*---------------------------------------------------------------------------*/
FoamFile
{
    version     2.0;
    format      ascii;
    class       volVectorField;
    location    "0.0008";
    object      cellDisplacement;
}
// * * * * * * * * * * * * * * * * * * * * * * * * * * * * * * * * * * * * * //

dimensions      [0 1 0 0 0 0 0];

internalField   nonuniform List<vector> 
1536
(
(-4.5938e-09 -3.3512e-12 -8.6322e-11)
(-6.2389e-09 -3.6652e-10 -1.2984e-10)
(-8.4993e-09 -8.6945e-10 -1.72e-10)
(-1.1624e-08 -1.4812e-09 -2.1064e-10)
(-1.593e-08 -2.1368e-09 -2.4387e-10)
(-2.1768e-08 -2.803e-09 -2.698e-10)
(-2.9533e-08 -3.5846e-09 -2.865e-10)
(-3.975e-08 -4.7347e-09 -2.9214e-10)
(-5.3178e-08 -6.4134e-09 -2.8531e-10)
(-7.0767e-08 -8.4741e-09 -2.6517e-10)
(-9.3293e-08 -1.0826e-08 -2.3122e-10)
(-1.2113e-07 -1.4084e-08 -1.831e-10)
(-4.6942e-09 -6.7484e-11 -5.4629e-11)
(-6.3774e-09 -3.9467e-10 -7.2796e-11)
(-8.6906e-09 -8.3911e-10 -7.2209e-11)
(-1.1882e-08 -1.3761e-09 -5.4378e-11)
(-1.6264e-08 -1.9557e-09 -2.3515e-11)
(-2.2191e-08 -2.5564e-09 2.2622e-11)
(-3.0072e-08 -3.2678e-09 1.0545e-10)
(-4.0444e-08 -4.2903e-09 2.637e-10)
(-5.4051e-08 -5.7488e-09 5.2046e-10)
(-7.1796e-08 -7.5484e-09 8.5837e-10)
(-9.4431e-08 -9.6656e-09 1.2706e-09)
(-1.224e-07 -1.2641e-08 1.847e-09)
(-4.7645e-09 -1.3264e-10 -8.465e-12)
(-6.4743e-09 -4.2002e-10 -4.8661e-12)
(-8.8243e-09 -8.0237e-10 3.6039e-11)
(-1.2061e-08 -1.2594e-09 1.1073e-10)
(-1.6496e-08 -1.752e-09 2.0986e-10)
(-2.2487e-08 -2.2664e-09 3.3591e-10)
(-3.045e-08 -2.8773e-09 5.2733e-10)
(-4.0927e-08 -3.7439e-09 8.5531e-10)
(-5.4656e-08 -4.966e-09 1.3638e-09)
(-7.2507e-08 -6.4809e-09 2.0254e-09)
(-9.5223e-08 -8.2955e-09 2.8372e-09)
(-1.2329e-07 -1.0868e-08 3.9793e-09)
(-4.8e-09 -1.9146e-10 6.5532e-11)
(-6.5236e-09 -4.3766e-10 8.309e-11)
(-8.8922e-09 -7.5686e-10 1.5653e-10)
(-1.2152e-08 -1.1317e-09 2.8153e-10)
(-1.6615e-08 -1.5314e-09 4.4432e-10)
(-2.2638e-08 -1.9465e-09 6.4765e-10)
(-3.0642e-08 -2.437e-09 9.461e-10)
(-4.1173e-08 -3.1289e-09 1.4418e-09)
(-5.4962e-08 -4.1019e-09 2.199e-09)
(-7.2867e-08 -5.3113e-09 3.1834e-09)
(-9.5625e-08 -6.7707e-09 4.4004e-09)
(-1.2374e-07 -8.8486e-09 6.1211e-09)
(-4.7991e-09 -2.3567e-10 1.6879e-10)
(-6.5226e-09 -4.4195e-10 1.914e-10)
(-8.8911e-09 -6.9972e-10 2.8797e-10)
(-1.2151e-08 -9.9371e-10 4.5374e-10)
(-1.6614e-08 -1.2996e-09 6.7041e-10)
(-2.2636e-08 -1.6102e-09 9.4059e-10)
(-3.064e-08 -1.9712e-09 1.3352e-09)
(-4.1171e-08 -2.4782e-09 1.988e-09)
(-5.496e-08 -3.1924e-09 2.9832e-09)
(-7.2864e-08 -4.0793e-09 4.2772e-09)
(-9.5623e-08 -5.1467e-09 5.8815e-09)
(-1.2374e-07 -6.6717e-09 8.1593e-09)
(-4.7619e-09 -2.5996e-10 2.9347e-10)
(-6.4716e-09 -4.2963e-10 3.1373e-10)
(-8.8213e-09 -6.2993e-10 4.2569e-10)
(-1.2058e-08 -8.4753e-10 6.2363e-10)
(-1.6493e-08 -1.0638e-09 8.834e-10)
(-2.2482e-08 -1.2725e-09 1.206e-09)
(-3.0444e-08 -1.5045e-09 1.6795e-09)
(-4.0921e-08 -1.8256e-09 2.4727e-09)
(-5.4649e-08 -2.2771e-09 3.6913e-09)
(-7.25e-08 -2.8323e-09 5.2746e-09)
(-9.5216e-08 -3.4914e-09 7.2286e-09)
(-1.2328e-07 -4.4399e-09 1.0006e-08)
(-4.6906e-09 -2.6384e-10 4.2376e-10)
(-6.3734e-09 -4.0058e-10 4.3841e-10)
(-8.6863e-09 -5.4833e-10 5.6267e-10)
(-1.1877e-08 -6.9624e-10 7.8852e-10)
(-1.6258e-08 -8.3145e-10 1.0832e-09)
(-2.2184e-08 -9.4813e-10 1.443e-09)
(-3.0063e-08 -1.0607e-09 1.9735e-09)
(-4.0434e-08 -1.2029e-09 2.8867e-09)
(-5.404e-08 -1.3957e-09 4.3145e-09)
(-7.1784e-08 -1.6227e-09 6.1654e-09)
(-9.4419e-08 -1.8804e-09 8.4158e-09)
(-1.2239e-07 -2.2645e-09 1.1602e-08)
(-4.59e-09 -2.504e-10 5.3816e-10)
(-6.2345e-09 -3.5542e-10 5.505e-10)
(-8.4946e-09 -4.5363e-10 6.9128e-10)
(-1.1619e-08 -5.3821e-10 9.4771e-10)
(-1.5924e-08 -6.0275e-10 1.2742e-09)
(-2.1759e-08 -6.4144e-10 1.6572e-09)
(-2.9522e-08 -6.4958e-10 2.22e-09)
(-3.9737e-08 -6.2421e-10 3.2292e-09)
(-5.3164e-08 -5.6469e-10 4.8528e-09)
(-7.0752e-08 -4.7304e-10 6.9484e-09)
(-9.3277e-08 -3.5355e-10 9.4263e-09)
(-1.2111e-07 -2.1204e-10 1.2896e-08)
(-4.6942e-09 -2.5845e-11 -6.3877e-11)
(-6.3774e-09 -3.6094e-10 -1.4374e-10)
(-8.6907e-09 -8.1408e-10 -2.4117e-10)
(-1.1882e-08 -1.3603e-09 -3.4989e-10)
(-1.6264e-08 -1.9493e-09 -4.613e-10)
(-2.2191e-08 -2.5595e-09 -5.7323e-10)
(-3.0072e-08 -3.2803e-09 -7.0264e-10)
(-4.0444e-08 -4.3117e-09 -8.8409e-10)
(-5.4051e-08 -5.7783e-09 -1.1374e-09)
(-7.1795e-08 -7.5847e-09 -1.4428e-09)
(-9.443e-08 -9.707e-09 -1.7921e-09)
(-1.224e-07 -1.2685e-08 -2.2743e-09)
(-4.8034e-09 -7.1962e-11 -3.5551e-11)
(-6.5276e-09 -3.7471e-10 -8.9276e-11)
(-8.8972e-09 -7.7397e-10 -1.4307e-10)
(-1.2159e-08 -1.2488e-09 -1.9434e-10)
(-1.6623e-08 -1.7607e-09 -2.4063e-10)
(-2.2649e-08 -2.2977e-09 -2.7942e-10)
(-3.0656e-08 -2.9346e-09 -3.0815e-10)
(-4.1192e-08 -3.8261e-09 -3.2445e-10)
(-5.4987e-08 -5.069e-09 -3.2642e-10)
(-7.2896e-08 -6.6094e-09 -3.1267e-10)
(-9.5658e-08 -8.4696e-09 -2.8224e-10)
(-1.2378e-07 -1.111e-08 -2.3442e-10)
(-4.8789e-09 -1.081e-10 1.0797e-11)
(-6.6314e-09 -3.7562e-10 -1.9856e-11)
(-9.0397e-09 -7.1873e-10 -3.242e-11)
(-1.235e-08 -1.1199e-09 -2.6574e-11)
(-1.6871e-08 -1.5495e-09 -4.5093e-12)
(-2.2965e-08 -2.0003e-09 3.7665e-11)
(-3.1059e-08 -2.5319e-09 1.2053e-10)
(-4.1706e-08 -3.2623e-09 2.7859e-10)
(-5.5626e-08 -4.2663e-09 5.3371e-10)
(-7.3649e-08 -5.5141e-09 8.7873e-10)
(-9.65e-08 -7.0451e-09 1.322e-09)
(-1.2473e-07 -9.2346e-09 1.9561e-09)
(-4.9172e-09 -1.3331e-10 8.1953e-11)
(-6.6842e-09 -3.6443e-10 6.8784e-11)
(-9.1121e-09 -6.5044e-10 9.2029e-11)
(-1.2447e-08 -9.7643e-10 1.5074e-10)
(-1.6997e-08 -1.3194e-09 2.3888e-10)
(-2.3125e-08 -1.6739e-09 3.6216e-10)
(-3.1264e-08 -2.0839e-09 5.5856e-10)
(-4.1966e-08 -2.6361e-09 8.9275e-10)
(-5.595e-08 -3.3863e-09 1.406e-09)
(-7.4029e-08 -4.3166e-09 2.0869e-09)
(-9.6927e-08 -5.4642e-09 2.958e-09)
(-1.2521e-07 -7.1141e-09 4.2054e-09)
(-4.9165e-09 -1.4443e-10 1.7803e-10)
(-6.6834e-09 -3.3983e-10 1.7541e-10)
(-9.1113e-09 -5.6967e-10 2.272e-10)
(-1.2446e-08 -8.2109e-10 3.3157e-10)
(-1.6996e-08 -1.0763e-09 4.7865e-10)
(-2.3124e-08 -1.3299e-09 6.7571e-10)
(-3.1262e-08 -1.6099e-09 9.7798e-10)
(-4.1964e-08 -1.9738e-09 1.4804e-09)
(-5.5948e-08 -2.4589e-09 2.2436e-09)
(-7.4027e-08 -3.0532e-09 3.2512e-09)
(-9.6925e-08 -3.7812e-09 4.5384e-09)
(-1.2521e-07 -4.8348e-09 6.385e-09)
(-4.8769e-09 -1.4009e-10 2.9245e-10)
(-6.6292e-09 -3.0208e-10 2.9386e-10)
(-9.0373e-09 -4.7864e-10 3.6717e-10)
(-1.2347e-08 -6.5898e-10 5.0946e-10)
(-1.6868e-08 -8.3003e-10 7.0605e-10)
(-2.296e-08 -9.8539e-10 9.6438e-10)
(-3.1053e-08 -1.1367e-09 1.357e-09)
(-4.1699e-08 -1.3119e-09 2.0118e-09)
(-5.562e-08 -1.5294e-09 3.0093e-09)
(-7.3642e-08 -1.7819e-09 4.3219e-09)
(-9.6493e-08 -2.0802e-09 5.9879e-09)
(-1.2472e-07 -2.5226e-09 8.3776e-09)
(-4.8004e-09 -1.2309e-10 4.1504e-10)
(-6.5243e-09 -2.5421e-10 4.1575e-10)
(-8.8937e-09 -3.8106e-10 5.0574e-10)
(-1.2155e-08 -4.9553e-10 6.8027e-10)
(-1.6619e-08 -5.8965e-10 9.1773e-10)
(-2.2642e-08 -6.5602e-10 1.223e-09)
(-3.0648e-08 -6.8867e-10 1.686e-09)
(-4.1182e-08 -6.8376e-10 2.4729e-09)
(-5.4976e-08 -6.4003e-10 3.6872e-09)
(-7.2885e-08 -5.589e-10 5.2781e-09)
(-9.5646e-08 -4.4421e-10 7.2677e-09)
(-1.2377e-07 -3.0209e-10 1.0112e-08)
(-4.6907e-09 -1.0032e-10 5.3641e-10)
(-6.3736e-09 -2.0121e-10 5.3325e-10)
(-8.6867e-09 -2.8012e-10 6.372e-10)
(-1.1877e-08 -3.3295e-10 8.4104e-10)
(-1.6258e-08 -3.5807e-10 1.1133e-09)
(-2.2183e-08 -3.4798e-10 1.4515e-09)
(-3.0062e-08 -2.7736e-10 1.9625e-09)
(-4.0431e-08 -1.0557e-10 2.8591e-09)
(-5.4037e-08 1.9026e-10 4.2737e-09)
(-7.178e-08 5.902e-10 6.1152e-09)
(-9.4415e-08 1.0829e-09 8.3597e-09)
(-1.2238e-07 1.752e-09 1.1543e-08)
(-4.7647e-09 -5.2277e-11 -4.1572e-11)
(-6.4746e-09 -3.5623e-10 -1.5795e-10)
(-8.8246e-09 -7.5683e-10 -3.1245e-10)
(-1.2061e-08 -1.2332e-09 -4.962e-10)
(-1.6497e-08 -1.7456e-09 -6.9469e-10)
(-2.2487e-08 -2.2797e-09 -9.0513e-10)
(-3.045e-08 -2.9097e-09 -1.1607e-09)
(-4.0927e-08 -3.7942e-09 -1.5281e-09)
(-5.4655e-08 -5.0325e-09 -2.0471e-09)
(-7.2505e-08 -6.5608e-09 -2.6876e-09)
(-9.5221e-08 -8.385e-09 -3.4444e-09)
(-1.2329e-07 -1.0962e-08 -4.4967e-09)
(-4.8791e-09 -7.4167e-11 -2.9592e-11)
(-6.6316e-09 -3.4875e-10 -1.1751e-10)
(-9.0398e-09 -6.9962e-10 -2.2527e-10)
(-1.235e-08 -1.109e-09 -3.4756e-10)
(-1.6871e-08 -1.547e-09 -4.7661e-10)
(-2.2964e-08 -2.0061e-09 -6.106e-10)
(-3.1058e-08 -2.5457e-09 -7.6446e-10)
(-4.1705e-08 -3.2836e-09 -9.676e-10)
(-5.5625e-08 -4.2942e-09 -1.2376e-09)
(-7.3647e-08 -5.5473e-09 -1.5641e-09)
(-9.6498e-08 -7.082e-09 -1.953e-09)
(-1.2472e-07 -9.273e-09 -2.4957e-09)
(-4.9587e-09 -8.0667e-11 7.1243e-12)
(-6.7408e-09 -3.2448e-10 -5.5407e-11)
(-9.1892e-09 -6.2476e-10 -1.193e-10)
(-1.255e-08 -9.6641e-10 -1.8159e-10)
(-1.713e-08 -1.3267e-09 -2.3929e-10)
(-2.3295e-08 -1.7007e-09 -2.8932e-10)
(-3.148e-08 -2.132e-09 -3.2864e-10)
(-4.2242e-08 -2.7044e-09 -3.5448e-10)
(-5.6292e-08 -3.4721e-09 -3.6453e-10)
(-7.4431e-08 -4.4227e-09 -3.5701e-10)
(-9.7379e-08 -5.6025e-09 -3.3061e-10)
(-1.2572e-07 -7.2996e-09 -2.8457e-10)
(-4.9991e-09 -7.3204e-11 7.0461e-11)
(-6.7965e-09 -2.8577e-10 2.8873e-11)
(-9.2654e-09 -5.3512e-10 4.5323e-12)
(-1.2651e-08 -8.083e-10 -1.0917e-12)
(-1.7263e-08 -1.0878e-09 1.1334e-11)
(-2.3464e-08 -1.3685e-09 4.7295e-11)
(-3.1695e-08 -1.6778e-09 1.2772e-10)
(-4.2516e-08 -2.0695e-09 2.8539e-10)
(-5.6631e-08 -2.579e-09 5.4181e-10)
(-7.4829e-08 -3.2018e-09 8.9601e-10)
(-9.7828e-08 -3.9747e-09 1.366e-09)
(-1.2622e-07 -5.0946e-09 2.0478e-09)
(-4.9985e-09 -5.1511e-11 1.5847e-10)
(-6.7958e-09 -2.3357e-10 1.3187e-10)
(-9.2647e-09 -4.3271e-10 1.4072e-10)
(-1.2651e-08 -6.3777e-10 1.8541e-10)
(-1.7262e-08 -8.3543e-10 2.6192e-10)
(-2.3463e-08 -1.019e-09 3.7825e-10)
(-3.1694e-08 -1.199e-09 5.731e-10)
(-4.2514e-08 -1.4001e-09 9.0886e-10)
(-5.6628e-08 -1.6396e-09 1.426e-09)
(-7.4827e-08 -1.9152e-09 2.1214e-09)
(-9.7825e-08 -2.2469e-09 3.0305e-09)
(-1.2622e-07 -2.7363e-09 4.3445e-09)
(-4.9568e-09 -1.7141e-11 2.6493e-10)
(-6.7389e-09 -1.7098e-10 2.4694e-10)
(-9.1872e-09 -3.2263e-10 2.8182e-10)
(-1.2547e-08 -4.6279e-10 3.689e-10)
(-1.7128e-08 -5.8218e-10 5.0016e-10)
(-2.3291e-08 -6.721e-10 6.8512e-10)
(-3.1475e-08 -7.2543e-10 9.8e-10)
(-4.2236e-08 -7.3742e-10 1.4782e-09)
(-5.6286e-08 -7.0617e-10 2.2396e-09)
(-7.4424e-08 -6.3254e-10 3.2541e-09)
(-9.7372e-08 -5.2008e-10 4.5666e-09)
(-1.2571e-07 -3.7493e-10 6.46e-09)
(-4.8763e-09 2.4681e-11 3.8302e-10)
(-6.6286e-09 -1.0384e-10 3.6775e-10)
(-9.0368e-09 -2.1179e-10 4.2236e-10)
(-1.2346e-08 -2.9229e-10 5.4472e-10)
(-1.6867e-08 -3.408e-10 7.2125e-10)
(-2.2958e-08 -3.4728e-10 9.606e-10)
(-3.105e-08 -2.8655e-10 1.3364e-09)
(-4.1695e-08 -1.2172e-10 1.9773e-09)
(-5.5615e-08 1.69e-10 2.9643e-09)
(-7.3636e-08 5.76e-10 4.27e-09)
(-9.6486e-08 1.1029e-09 5.9327e-09)
(-1.2471e-07 1.8359e-09 8.3223e-09)
(-4.7611e-09 6.7525e-11 5.0769e-10)
(-6.4709e-09 -3.7791e-11 4.8908e-10)
(-8.8208e-09 -1.0491e-10 5.5738e-10)
(-1.2057e-08 -1.3039e-10 7.0875e-10)
(-1.6491e-08 -1.1611e-10 9.2166e-10)
(-2.2479e-08 -5.2605e-11 1.1999e-09)
(-3.0439e-08 1.0399e-10 1.6341e-09)
(-4.0914e-08 4.2793e-10 2.3949e-09)
(-5.464e-08 9.6353e-10 3.5891e-09)
(-7.249e-08 1.6812e-09 5.1567e-09)
(-9.5205e-08 2.5738e-09 7.1034e-09)
(-1.2327e-07 3.8151e-09 9.8817e-09)
(-4.8011e-09 -8.8391e-11 -3.576e-11)
(-6.5249e-09 -3.5646e-10 -1.8375e-10)
(-8.8936e-09 -6.9972e-10 -3.9069e-10)
(-1.2154e-08 -1.1e-09 -6.4624e-10)
(-1.6617e-08 -1.5257e-09 -9.3055e-10)
(-2.264e-08 -1.9666e-09 -1.2401e-09)
(-3.0644e-08 -2.4821e-09 -1.6231e-09)
(-4.1174e-08 -3.197e-09 -2.1762e-09)
(-5.4963e-08 -4.1906e-09 -2.9592e-09)
(-7.2867e-08 -5.4169e-09 -3.934e-09)
(-9.5625e-08 -6.8882e-09 -5.1028e-09)
(-1.2374e-07 -8.9718e-09 -6.7358e-09)
(-4.9181e-09 -8.0402e-11 -4.2278e-11)
(-6.6853e-09 -3.2278e-10 -1.6051e-10)
(-9.1133e-09 -6.211e-10 -3.1867e-10)
(-1.2448e-08 -9.6002e-10 -5.0966e-10)
(-1.6998e-08 -1.3162e-09 -7.2118e-10)
(-2.3127e-08 -1.6837e-09 -9.5247e-10)
(-3.1265e-08 -2.1062e-09 -1.2352e-09)
(-4.1968e-08 -2.6701e-09 -1.6283e-09)
(-5.5951e-08 -3.4304e-09 -2.1684e-09)
(-7.403e-08 -4.3689e-09 -2.8403e-09)
(-9.6928e-08 -5.5219e-09 -3.6635e-09)
(-1.2521e-07 -7.1738e-09 -4.8231e-09)
(-4.9997e-09 -5.5082e-11 -2.0029e-11)
(-6.7971e-09 -2.7161e-10 -1.1122e-10)
(-9.266e-09 -5.2524e-10 -2.2355e-10)
(-1.2652e-08 -8.0288e-10 -3.5225e-10)
(-1.7263e-08 -1.0869e-09 -4.9021e-10)
(-2.3465e-08 -1.3721e-09 -6.3629e-10)
(-3.1696e-08 -1.6857e-09 -8.049e-10)
(-4.2517e-08 -2.0813e-09 -1.023e-09)
(-5.6631e-08 -2.5944e-09 -1.3072e-09)
(-7.483e-08 -3.2199e-09 -1.6527e-09)
(-9.7828e-08 -3.9947e-09 -2.0745e-09)
(-1.2622e-07 -5.1152e-09 -2.6674e-09)
(-5.0415e-09 -1.3825e-11 3.137e-11)
(-6.8546e-09 -2.0481e-10 -3.6083e-11)
(-9.3445e-09 -4.139e-10 -1.0571e-10)
(-1.2757e-08 -6.2969e-10 -1.7434e-10)
(-1.7399e-08 -8.387e-10 -2.3867e-10)
(-2.3638e-08 -1.0342e-09 -2.9527e-10)
(-3.1918e-08 -1.2262e-09 -3.4082e-10)
(-4.2798e-08 -1.4388e-09 -3.7232e-10)
(-5.6979e-08 -1.6884e-09 -3.873e-10)
(-7.5239e-08 -1.9748e-09 -3.8374e-10)
(-9.829e-08 -2.3209e-09 -3.6019e-10)
(-1.2674e-07 -2.8298e-09 -3.1608e-10)
(-5.0409e-09 4.1616e-11 1.0979e-10)
(-6.8539e-09 -1.2514e-10 6.1229e-11)
(-9.3439e-09 -2.9077e-10 2.9217e-11)
(-1.2756e-08 -4.4531e-10 1.5743e-11)
(-1.7398e-08 -5.7875e-10 2.089e-11)
(-2.3637e-08 -6.8171e-10 5.1007e-11)
(-3.1916e-08 -7.4642e-10 1.2752e-10)
(-4.2796e-08 -7.6759e-10 2.8299e-10)
(-5.6977e-08 -7.4291e-10 5.3899e-10)
(-7.5236e-08 -6.7296e-10 8.9674e-10)
(-9.8287e-08 -5.6105e-10 1.3775e-09)
(-1.2674e-07 -4.1315e-10 2.079e-09)
(-4.9979e-09 1.0622e-10 2.0803e-10)
(-6.7952e-09 -3.9376e-11 1.7223e-10)
(-9.2641e-09 -1.652e-10 1.7071e-10)
(-1.265e-08 -2.628e-10 2.0432e-10)
(-1.726e-08 -3.2574e-10 2.6968e-10)
(-2.3461e-08 -3.4216e-10 3.7548e-10)
(-3.1691e-08 -2.8633e-10 5.61e-10)
(-4.251e-08 -1.2297e-10 8.8908e-10)
(-5.6625e-08 1.6941e-10 1.4005e-09)
(-7.4823e-08 5.8735e-10 2.0922e-09)
(-9.7821e-08 1.1441e-09 2.9996e-09)
(-1.2622e-07 1.9291e-09 4.3138e-09)
(-4.9154e-09 1.7409e-10 3.1983e-10)
(-6.6824e-09 4.5816e-11 2.9056e-10)
(-9.1104e-09 -4.4949e-11 3.1244e-10)
(-1.2445e-08 -9.1666e-11 3.8494e-10)
(-1.6994e-08 -9.2527e-11 5e-10)
(-2.3121e-08 -3.4552e-11 6.6683e-10)
(-3.1257e-08 1.258e-10 9.4233e-10)
(-4.1958e-08 4.5631e-10 1.4227e-09)
(-5.594e-08 9.9857e-10 2.1692e-09)
(-7.4018e-08 1.739e-09 3.166e-09)
(-9.6916e-08 2.6954e-09 4.4482e-09)
(-1.252e-07 4.0477e-09 6.295e-09)
(-4.7975e-09 2.4151e-10 4.4244e-10)
(-6.5212e-09 1.2686e-10 4.1302e-10)
(-8.89e-09 6.7048e-11 4.5138e-10)
(-1.215e-08 6.598e-11 5.5528e-10)
(-1.6611e-08 1.189e-10 7.0992e-10)
(-2.2632e-08 2.3712e-10 9.217e-10)
(-3.0633e-08 4.8192e-10 1.2649e-09)
(-4.1161e-08 9.5928e-10 1.8755e-09)
(-5.4949e-08 1.7344e-09 2.8395e-09)
(-7.2852e-08 2.7709e-09 4.114e-09)
(-9.561e-08 4.0697e-09 5.7104e-09)
(-1.2373e-07 5.8959e-09 7.9911e-09)
(-4.801e-09 -1.3303e-10 -5.4217e-11)
(-6.5247e-09 -3.6133e-10 -2.264e-10)
(-8.8934e-09 -6.4323e-10 -4.7804e-10)
(-1.2154e-08 -9.627e-10 -7.9767e-10)
(-1.6616e-08 -1.2947e-09 -1.1599e-09)
(-2.2639e-08 -1.6311e-09 -1.5598e-09)
(-3.0643e-08 -2.017e-09 -2.0611e-09)
(-4.1174e-08 -2.5474e-09 -2.7909e-09)
(-5.4962e-08 -3.2824e-09 -3.8282e-09)
(-7.2866e-08 -4.1864e-09 -5.1249e-09)
(-9.5624e-08 -5.2662e-09 -6.6886e-09)
(-1.2374e-07 -6.7974e-09 -8.8806e-09)
(-4.9181e-09 -9.2116e-11 -7.6426e-11)
(-6.6852e-09 -2.9901e-10 -2.1896e-10)
(-9.1132e-09 -5.4133e-10 -4.2117e-10)
(-1.2448e-08 -8.0582e-10 -6.7459e-10)
(-1.6998e-08 -1.0743e-09 -9.6237e-10)
(-2.3126e-08 -1.3411e-09 -1.2844e-09)
(-3.1264e-08 -1.6338e-09 -1.6888e-09)
(-4.1967e-08 -2.0098e-09 -2.264e-09)
(-5.595e-08 -2.5057e-09 -3.0655e-09)
(-7.4029e-08 -3.109e-09 -4.0723e-09)
(-9.6927e-08 -3.8436e-09 -5.3163e-09)
(-1.2521e-07 -4.9007e-09 -7.0755e-09)
(-4.9996e-09 -3.4151e-11 -6.9502e-11)
(-6.797e-09 -2.2034e-10 -1.8414e-10)
(-9.2659e-09 -4.2379e-10 -3.3929e-10)
(-1.2652e-08 -6.3323e-10 -5.2881e-10)
(-1.7263e-08 -8.3524e-10 -7.4176e-10)
(-2.3464e-08 -1.0231e-09 -9.7896e-10)
(-3.1695e-08 -1.2071e-09 -1.2721e-09)
(-4.2515e-08 -1.4122e-09 -1.6772e-09)
(-5.663e-08 -1.655e-09 -2.2297e-09)
(-7.4828e-08 -1.9334e-09 -2.9221e-09)
(-9.7827e-08 -2.2669e-09 -3.7867e-09)
(-1.2622e-07 -2.7568e-09 -5.0132e-09)
(-5.0415e-09 4.069e-11 -3.3177e-11)
(-6.8545e-09 -1.2623e-10 -1.2231e-10)
(-9.3445e-09 -2.919e-10 -2.3284e-10)
(-1.2757e-08 -4.4634e-10 -3.6031e-10)
(-1.7399e-08 -5.7958e-10 -4.98e-10)
(-2.3638e-08 -6.8232e-10 -6.4518e-10)
(-3.1917e-08 -7.4683e-10 -8.1639e-10)
(-4.2797e-08 -7.6787e-10 -1.038e-09)
(-5.6978e-08 -7.4312e-10 -1.3266e-09)
(-7.5237e-08 -6.7317e-10 -1.6792e-09)
(-9.8288e-08 -5.6127e-10 -2.1141e-09)
(-1.2674e-07 -4.1328e-10 -2.7279e-09)
(-5.0409e-09 1.285e-10 3.2323e-11)
(-6.8539e-09 -2.1874e-11 -3.4949e-11)
(-9.3438e-09 -1.5245e-10 -1.0454e-10)
(-1.2756e-08 -2.5429e-10 -1.7326e-10)
(-1.7398e-08 -3.2045e-10 -2.3779e-10)
(-2.3637e-08 -3.3847e-10 -2.9461e-10)
(-3.1915e-08 -2.8239e-10 -3.4033e-10)
(-4.2794e-08 -1.1738e-10 -3.7193e-10)
(-5.6975e-08 1.78e-10 -3.869e-10)
(-7.5235e-08 6.0232e-10 -3.8325e-10)
(-9.8285e-08 1.1721e-09 -3.5957e-10)
(-1.2674e-07 1.9785e-09 -3.1536e-10)
(-4.9979e-09 2.2133e-10 1.2098e-10)
(-6.7952e-09 8.3735e-11 7.0361e-11)
(-9.2641e-09 -1.6262e-11 3.5691e-11)
(-1.265e-08 -7.0841e-11 1.8909e-11)
(-1.726e-08 -7.6462e-11 2.0019e-11)
(-2.346e-08 -1.8266e-11 4.5262e-11)
(-3.169e-08 1.4757e-10 1.1624e-10)
(-4.2509e-08 4.8614e-10 2.6621e-10)
(-5.6623e-08 1.038e-09 5.1698e-10)
(-7.4821e-08 1.7975e-09 8.6772e-10)
(-9.7819e-08 2.7953e-09 1.3363e-09)
(-1.2621e-07 4.2159e-09 2.0186e-09)
(-4.9154e-09 3.146e-10 2.2471e-10)
(-6.6824e-09 1.8566e-10 1.8503e-10)
(-9.1104e-09 1.115e-10 1.7841e-10)
(-1.2445e-08 9.8467e-11 2.0522e-10)
(-1.6994e-08 1.4534e-10 2.6126e-10)
(-2.312e-08 2.6739e-10 3.5425e-10)
(-3.1256e-08 5.2601e-10 5.2391e-10)
(-4.1957e-08 1.0196e-09 8.362e-10)
(-5.5939e-08 1.8092e-09 1.3332e-09)
(-7.4017e-08 2.8761e-09 2.004e-09)
(-9.6915e-08 4.251e-09 2.8708e-09)
(-1.2519e-07 6.2067e-09 4.1195e-09)
(-4.7975e-09 4.066e-10 3.3994e-10)
(-6.5212e-09 2.8153e-10 3.0549e-10)
(-8.89e-09 2.2834e-10 3.2065e-10)
(-1.215e-08 2.5142e-10 3.8364e-10)
(-1.6611e-08 3.4258e-10 4.8423e-10)
(-2.2631e-08 5.1411e-10 6.2899e-10)
(-3.0632e-08 8.445e-10 8.7587e-10)
(-4.116e-08 1.4718e-09 1.3294e-09)
(-5.4947e-08 2.4814e-09 2.0555e-09)
(-7.285e-08 3.8277e-09 3.0205e-09)
(-9.5609e-08 5.5176e-09 4.2299e-09)
(-1.2373e-07 7.9074e-09 5.9541e-09)
(-4.7644e-09 -1.8103e-10 -9.6585e-11)
(-6.4742e-09 -3.6761e-10 -2.8515e-10)
(-8.824e-09 -5.8631e-10 -5.7331e-10)
(-1.2061e-08 -8.2319e-10 -9.4801e-10)
(-1.6495e-08 -1.0591e-09 -1.3771e-09)
(-2.2485e-08 -1.2874e-09 -1.8528e-09)
(-3.0447e-08 -1.5386e-09 -2.4546e-09)
(-4.0924e-08 -1.8778e-09 -3.3442e-09)
(-5.4651e-08 -2.3459e-09 -4.6213e-09)
(-7.2501e-08 -2.915e-09 -6.2198e-09)
(-9.5217e-08 -3.5846e-09 -8.1409e-09)
(-1.2328e-07 -4.5392e-09 -1.0835e-08)
(-4.8789e-09 -1.0805e-10 -1.3029e-10)
(-6.6314e-09 -2.7752e-10 -2.9059e-10)
(-9.0395e-09 -4.6191e-10 -5.2991e-10)
(-1.2349e-08 -6.5018e-10 -8.3819e-10)
(-1.687e-08 -8.2915e-10 -1.193e-09)
(-2.2963e-08 -9.9229e-10 -1.5937e-09)
(-3.1056e-08 -1.1511e-09 -2.1045e-09)
(-4.1702e-08 -1.3334e-09 -2.8465e-09)
(-5.5622e-08 -1.5572e-09 -3.8944e-09)
(-7.3643e-08 -1.8149e-09 -5.2156e-09)
(-9.6494e-08 -2.1166e-09 -6.8443e-09)
(-1.2472e-07 -2.5599e-09 -9.1486e-09)
(-4.9586e-09 -1.943e-11 -1.3785e-10)
(-6.7407e-09 -1.7369e-10 -2.6973e-10)
(-9.1891e-09 -3.2529e-10 -4.6075e-10)
(-1.2549e-08 -4.6497e-10 -7.0339e-10)
(-1.713e-08 -5.8358e-10 -9.8227e-10)
(-2.3294e-08 -6.7261e-10 -1.2991e-09)
(-3.1478e-08 -7.25e-10 -1.7025e-09)
(-4.2239e-08 -7.3601e-10 -2.2792e-09)
(-5.6288e-08 -7.037e-10 -3.0836e-09)
(-7.4427e-08 -6.2893e-10 -4.1009e-09)
(-9.7375e-08 -5.1506e-10 -5.3726e-09)
(-1.2571e-07 -3.6757e-10 -7.1799e-09)
(-4.9991e-09 8.5231e-11 -1.1723e-10)
(-6.7965e-09 -5.693e-11 -2.223e-10)
(-9.2653e-09 -1.7856e-10 -3.6703e-10)
(-1.2651e-08 -2.7137e-10 -5.4573e-10)
(-1.7262e-08 -3.2918e-10 -7.4799e-10)
(-2.3462e-08 -3.4044e-10 -9.7516e-10)
(-3.1693e-08 -2.7972e-10 -1.2594e-09)
(-4.2512e-08 -1.1198e-10 -1.6572e-09)
(-5.6627e-08 1.8404e-10 -2.2041e-09)
(-7.4825e-08 6.0473e-10 -2.8929e-09)
(-9.7823e-08 1.1632e-09 -3.7559e-09)
(-1.2622e-07 1.949e-09 -4.9829e-09)
(-4.9985e-09 2.011e-10 -6.6813e-11)
(-6.7958e-09 6.7084e-11 -1.4826e-10)
(-9.2647e-09 -2.8722e-11 -2.501e-10)
(-1.265e-08 -7.865e-11 -3.6803e-10)
(-1.7261e-08 -7.9373e-11 -4.9545e-10)
(-2.3461e-08 -1.6284e-11 -6.3167e-10)
(-3.1691e-08 1.5418e-10 -7.9152e-10)
(-4.251e-08 4.9687e-10 -1.0023e-09)
(-5.6624e-08 1.0521e-09 -1.2808e-09)
(-7.4822e-08 1.8142e-09 -1.6225e-09)
(-9.782e-08 2.8133e-09 -2.0424e-09)
(-1.2622e-07 4.2341e-09 -2.6355e-09)
(-4.9568e-09 3.2023e-10 1.001e-11)
(-6.7389e-09 1.9044e-10 -5.2025e-11)
(-9.1872e-09 1.1606e-10 -1.1582e-10)
(-1.2547e-08 1.0396e-10 -1.7839e-10)
(-1.7127e-08 1.5386e-10 -2.3665e-10)
(-2.329e-08 2.822e-10 -2.873e-10)
(-3.1472e-08 5.5036e-10 -3.2711e-10)
(-4.2232e-08 1.0544e-09 -3.5317e-10)
(-5.6281e-08 1.854e-09 -3.6314e-10)
(-7.4419e-08 2.9363e-09 -3.5525e-10)
(-9.7367e-08 4.3413e-09 -3.2829e-10)
(-1.257e-07 6.345e-09 -2.8173e-10)
(-4.8765e-09 4.3692e-10 1.0401e-10)
(-6.6289e-09 3.0766e-10 5.7085e-11)
(-9.0371e-09 2.508e-10 2.5872e-11)
(-1.2347e-08 2.7191e-10 1.1519e-11)
(-1.6866e-08 3.654e-10 1.3062e-11)
(-2.2957e-08 5.471e-10 3.5776e-11)
(-3.1048e-08 8.9593e-10 1.0147e-10)
(-4.1692e-08 1.5431e-09 2.4555e-10)
(-5.5611e-08 2.5695e-09 4.904e-10)
(-7.3632e-08 3.9452e-09 8.2915e-10)
(-9.6483e-08 5.7034e-09 1.27e-09)
(-1.2471e-07 8.2072e-09 1.9052e-09)
(-4.7613e-09 5.4946e-10 2.078e-10)
(-6.4712e-09 4.1593e-10 1.7269e-10)
(-8.8212e-09 3.7194e-10 1.6981e-10)
(-1.2058e-08 4.2144e-10 1.9756e-10)
(-1.6491e-08 5.5101e-10 2.4932e-10)
(-2.2478e-08 7.7184e-10 3.3055e-10)
(-3.0437e-08 1.1797e-09 4.8228e-10)
(-4.0911e-08 1.9482e-09 7.7762e-10)
(-5.4638e-08 3.1836e-09 1.2617e-09)
(-7.2487e-08 4.8233e-09 1.9078e-09)
(-9.5203e-08 6.8684e-09 2.7129e-09)
(-1.2327e-07 9.7639e-09 3.8563e-09)
(-4.6939e-09 -2.2464e-10 -1.5412e-10)
(-6.3769e-09 -3.6979e-10 -3.5349e-10)
(-8.6899e-09 -5.2626e-10 -6.7246e-10)
(-1.1881e-08 -6.8298e-10 -1.0953e-09)
(-1.6262e-08 -8.2702e-10 -1.5803e-09)
(-2.2188e-08 -9.5258e-10 -2.1141e-09)
(-3.0069e-08 -1.074e-09 -2.7922e-09)
(-4.0439e-08 -1.2247e-09 -3.8186e-09)
(-5.4046e-08 -1.4253e-09 -5.3188e-09)
(-7.1789e-08 -1.6589e-09 -7.1952e-09)
(-9.4424e-08 -1.9216e-09 -9.4189e-09)
(-1.2239e-07 -2.3077e-09 -1.2522e-08)
(-4.8033e-09 -1.264e-10 -1.9664e-10)
(-6.5273e-09 -2.5815e-10 -3.6915e-10)
(-8.8968e-09 -3.8493e-10 -6.3974e-10)
(-1.2158e-08 -4.9867e-10 -9.962e-10)
(-1.6622e-08 -5.9162e-10 -1.4085e-09)
(-2.2646e-08 -6.5668e-10 -1.8725e-09)
(-3.0652e-08 -6.8801e-10 -2.469e-09)
(-4.1187e-08 -6.8171e-10 -3.3565e-09)
(-5.4981e-08 -6.3651e-10 -4.6323e-09)
(-7.289e-08 -5.538e-10 -6.2403e-09)
(-9.5651e-08 -4.3723e-10 -8.1979e-09)
(-1.2377e-07 -2.9193e-10 -1.0958e-08)
(-4.8788e-09 -1.3692e-11 -2.1901e-10)
(-6.6313e-09 -1.3598e-10 -3.6223e-10)
(-9.0395e-09 -2.3631e-10 -5.8278e-10)
(-1.2349e-08 -3.0807e-10 -8.714e-10)
(-1.687e-08 -3.4719e-10 -1.2067e-09)
(-2.2962e-08 -3.4421e-10 -1.5889e-09)
(-3.1055e-08 -2.7447e-10 -2.0835e-09)
(-4.17e-08 -1.015e-10 -2.8119e-09)
(-5.562e-08 1.9609e-10 -3.8493e-09)
(-7.3642e-08 6.0838e-10 -5.1636e-09)
(-9.6493e-08 1.1388e-09 -6.7892e-09)
(-1.2472e-07 1.8738e-09 -9.094e-09)
(-4.9171e-09 1.1594e-10 -2.1476e-10)
(-6.6842e-09 -2.0094e-12 -3.2989e-10)
(-9.1121e-09 -8.0698e-11 -5.0212e-10)
(-1.2446e-08 -1.1403e-10 -7.2428e-10)
(-1.6996e-08 -1.0081e-10 -9.8108e-10)
(-2.3123e-08 -2.8775e-11 -1.2741e-09)
(-3.1259e-08 1.4485e-10 -1.6528e-09)
(-4.1961e-08 4.8714e-10 -2.2069e-09)
(-5.5943e-08 1.0391e-09 -2.9924e-09)
(-7.4022e-08 1.7866e-09 -3.989e-09)
(-9.692e-08 2.7468e-09 -5.2288e-09)
(-1.252e-07 4.0994e-09 -6.9897e-09)
(-4.9165e-09 2.5705e-10 -1.7974e-10)
(-6.6835e-09 1.3854e-10 -2.7034e-10)
(-9.1113e-09 7.6456e-11 -3.9835e-10)
(-1.2446e-08 7.6698e-11 -5.5799e-10)
(-1.6995e-08 1.3747e-10 -7.3853e-10)
(-2.3121e-08 2.7339e-10 -9.4077e-10)
(-3.1257e-08 5.4509e-10 -1.1977e-09)
(-4.1958e-08 1.0503e-09 -1.5694e-09)
(-5.5941e-08 1.8495e-09 -2.0932e-09)
(-7.4019e-08 2.9234e-09 -2.7543e-09)
(-9.6917e-08 4.3021e-09 -3.5725e-09)
(-1.252e-07 6.2579e-09 -4.7328e-09)
(-4.8768e-09 4.0037e-10 -1.1567e-10)
(-6.6291e-09 2.7767e-10 -1.8594e-10)
(-9.0371e-09 2.2841e-10 -2.7469e-10)
(-1.2346e-08 2.5789e-10 -3.7743e-10)
(-1.6866e-08 3.6015e-10 -4.8729e-10)
(-2.2957e-08 5.5061e-10 -6.0331e-10)
(-3.1048e-08 9.0775e-10 -7.4114e-10)
(-4.1692e-08 1.5624e-09 -9.3073e-10)
(-5.5611e-08 2.5952e-09 -1.1901e-09)
(-7.3632e-08 3.9757e-09 -1.5092e-09)
(-9.6482e-08 5.7367e-09 -1.894e-09)
(-1.2471e-07 8.241e-09 -2.4361e-09)
(-4.8005e-09 5.3641e-10 -3.1038e-11)
(-6.5245e-09 4.0728e-10 -8.3976e-11)
(-8.8938e-09 3.6868e-10 -1.3758e-10)
(-1.2155e-08 4.245e-10 -1.8926e-10)
(-1.6617e-08 5.6238e-10 -2.3636e-10)
(-2.2639e-08 7.9565e-10 -2.7606e-10)
(-3.0643e-08 1.2205e-09 -3.0547e-10)
(-4.1175e-08 2.006e-09 -3.2203e-10)
(-5.4968e-08 3.256e-09 -3.2375e-10)
(-7.2877e-08 4.9168e-09 -3.0926e-10)
(-9.5637e-08 7.0051e-09 -2.777e-10)
(-1.2376e-07 9.9688e-09 -2.2864e-10)
(-4.6908e-09 6.6124e-10 6.1682e-11)
(-6.3737e-09 5.231e-10 2.6197e-11)
(-8.6868e-09 4.9317e-10 6.5024e-12)
(-1.1877e-08 5.7321e-10 1.9443e-12)
(-1.6257e-08 7.4147e-10 9.6993e-12)
(-2.218e-08 1.0045e-09 3.3603e-11)
(-3.0057e-08 1.4754e-09 9.647e-11)
(-4.0424e-08 2.3705e-09 2.3801e-10)
(-5.4029e-08 3.8222e-09 4.8196e-10)
(-7.1772e-08 5.7365e-09 8.112e-10)
(-9.4406e-08 8.0843e-09 1.2188e-09)
(-1.2237e-07 1.1393e-08 1.7943e-09)
(-4.5938e-09 -2.5463e-10 -2.0899e-10)
(-6.2387e-09 -3.6051e-10 -4.1949e-10)
(-8.4987e-09 -4.5878e-10 -7.7017e-10)
(-1.1623e-08 -5.4269e-10 -1.2403e-09)
(-1.5928e-08 -6.0613e-10 -1.775e-09)
(-2.1765e-08 -6.4366e-10 -2.3496e-09)
(-2.9528e-08 -6.5082e-10 -3.0762e-09)
(-3.9744e-08 -6.2477e-10 -4.2126e-09)
(-5.3171e-08 -5.6489e-10 -5.92e-09)
(-7.0759e-08 -4.7323e-10 -8.0496e-09)
(-9.3285e-08 -3.5388e-10 -1.0506e-08)
(-1.2112e-07 -2.1187e-10 -1.3894e-08)
(-4.6942e-09 -1.4768e-10 -2.646e-10)
(-6.3773e-09 -2.4183e-10 -4.4566e-10)
(-8.6904e-09 -3.1226e-10 -7.443e-10)
(-1.1881e-08 -3.5515e-10 -1.1455e-09)
(-1.6262e-08 -3.6948e-10 -1.6087e-09)
(-2.2188e-08 -3.4838e-10 -2.1215e-09)
(-3.0067e-08 -2.6717e-10 -2.7805e-09)
(-4.0437e-08 -8.5699e-11 -3.7904e-09)
(-5.4044e-08 2.1838e-10 -5.2773e-09)
(-7.1787e-08 6.2474e-10 -7.1438e-09)
(-9.4422e-08 1.1218e-09 -9.3611e-09)
(-1.2239e-07 1.7935e-09 -1.2462e-08)
(-4.7644e-09 -1.9705e-11 -3.0672e-10)
(-6.4743e-09 -1.0988e-10 -4.5544e-10)
(-8.8242e-09 -1.5922e-10 -6.9971e-10)
(-1.2061e-08 -1.649e-10 -1.0283e-09)
(-1.6495e-08 -1.2973e-10 -1.4114e-09)
(-2.2484e-08 -4.5268e-11 -1.8436e-09)
(-3.0445e-08 1.3123e-10 -2.4067e-09)
(-4.092e-08 4.73e-10 -3.2638e-09)
(-5.4648e-08 1.0234e-09 -4.5157e-09)
(-7.2498e-08 1.7521e-09 -6.0969e-09)
(-9.5214e-08 2.6512e-09 -8.0092e-09)
(-1.2328e-07 3.8941e-09 -1.0702e-08)
(-4.7998e-09 1.3118e-10 -3.2228e-10)
(-6.5235e-09 3.6905e-11 -4.4114e-10)
(-8.8921e-09 6.7188e-13 -6.3425e-10)
(-1.2152e-08 2.5555e-11 -8.9264e-10)
(-1.6613e-08 1.0567e-10 -1.1941e-09)
(-2.2635e-08 2.5104e-10 -1.537e-09)
(-3.0637e-08 5.216e-10 -1.9877e-09)
(-4.1166e-08 1.0222e-09 -2.6758e-09)
(-5.4953e-08 1.8167e-09 -3.6814e-09)
(-7.2856e-08 2.868e-09 -4.9574e-09)
(-9.5615e-08 4.176e-09 -6.5118e-09)
(-1.2373e-07 6.0046e-09 -8.7054e-09)
(-4.799e-09 2.9663e-10 -3.0313e-10)
(-6.5226e-09 1.92e-10 -3.9753e-10)
(-8.8911e-09 1.6238e-10 -5.4573e-10)
(-1.2151e-08 2.1134e-10 -7.3994e-10)
(-1.6612e-08 3.2959e-10 -9.6347e-10)
(-2.2633e-08 5.2817e-10 -1.216e-09)
(-3.0634e-08 8.8427e-10 -1.5486e-09)
(-4.1162e-08 1.5348e-09 -2.0599e-09)
(-5.495e-08 2.564e-09 -2.8112e-09)
(-7.2853e-08 3.9254e-09 -3.7651e-09)
(-9.5611e-08 5.6247e-09 -4.9243e-09)
(-1.2373e-07 8.0173e-09 -6.5587e-09)
(-4.7619e-09 4.6349e-10 -2.4957e-10)
(-6.4715e-09 3.4534e-10 -3.254e-10)
(-8.8211e-09 3.1919e-10 -4.3553e-10)
(-1.2057e-08 3.8835e-10 -5.7301e-10)
(-1.649e-08 5.3859e-10 -7.2566e-10)
(-2.2478e-08 7.8017e-10 -8.9298e-10)
(-3.0437e-08 1.2079e-09 -1.1101e-09)
(-4.0911e-08 1.9945e-09 -1.4451e-09)
(-5.4637e-08 3.2456e-09 -1.9391e-09)
(-7.2486e-08 4.8976e-09 -2.5623e-09)
(-9.5202e-08 6.9505e-09 -3.3099e-09)
(-1.2327e-07 9.849e-09 -4.3609e-09)
(-4.6909e-09 6.16e-10 -1.7025e-10)
(-6.3737e-09 4.8503e-10 -2.3086e-10)
(-8.6867e-09 4.6354e-10 -3.0745e-10)
(-1.1877e-08 5.5299e-10 -3.9457e-10)
(-1.6256e-08 7.3129e-10 -4.8463e-10)
(-2.218e-08 1.0045e-09 -5.7632e-10)
(-3.0057e-08 1.4854e-09 -6.872e-10)
(-4.0424e-08 2.3896e-09 -8.524e-10)
(-5.4029e-08 3.8493e-09 -1.0922e-09)
(-7.1772e-08 5.7699e-09 -1.3871e-09)
(-9.4406e-08 8.1219e-09 -1.7289e-09)
(-1.2237e-07 1.1433e-08 -2.2068e-09)
(-4.5904e-09 7.3877e-10 -8.0831e-11)
(-6.235e-09 5.9954e-10 -1.233e-10)
(-8.495e-09 5.8838e-10 -1.6515e-10)
(-1.1619e-08 7.0247e-10 -2.0419e-10)
(-1.5922e-08 9.0759e-10 -2.3836e-10)
(-2.1755e-08 1.2005e-09 -2.6537e-10)
(-2.9515e-08 1.7117e-09 -2.8286e-10)
(-3.9727e-08 2.7115e-09 -2.8875e-10)
(-5.3153e-08 4.3679e-09 -2.8157e-10)
(-7.074e-08 6.5357e-09 -2.6044e-10)
(-9.3265e-08 9.1192e-09 -2.2488e-10)
(-1.211e-07 1.272e-08 -1.7482e-10)
(-1.1668e-07 -1.7056e-08 1.3231e-09)
(-8.9288e-08 -1.3409e-08 9.1346e-10)
(-6.7106e-08 -1.0567e-08 6.1235e-10)
(-5.009e-08 -7.7777e-09 3.3952e-10)
(-3.7334e-08 -5.4962e-09 1.2284e-10)
(-2.7671e-08 -4.0954e-09 -6.524e-12)
(-2.0307e-08 -3.2607e-09 -7.1044e-11)
(-1.4776e-08 -2.532e-09 -1.1013e-10)
(-1.0734e-08 -1.7582e-09 -1.4161e-10)
(-7.8395e-09 -1.0166e-09 -1.6313e-10)
(-5.7591e-09 -4.1424e-10 -1.6809e-10)
(-4.2389e-09 1.9028e-14 -1.5431e-10)
(-1.1785e-07 -1.6148e-08 4.1531e-09)
(-9.0363e-08 -1.2535e-08 3.0581e-09)
(-6.8111e-08 -9.8387e-09 2.2558e-09)
(-5.0928e-08 -7.3228e-09 1.5337e-09)
(-3.7971e-08 -5.2645e-09 9.5256e-10)
(-2.8154e-08 -3.942e-09 5.8395e-10)
(-2.0686e-08 -3.1175e-09 3.6896e-10)
(-1.5078e-08 -2.4169e-09 2.094e-10)
(-1.0967e-08 -1.6999e-09 6.3468e-11)