/*--------------------------------*- C++ -*----------------------------------*\
| =========                 |                                                 |
| \\      /  F ield         | foam-extend: Open Source CFD                    |
|  \\    /   O peration     | Version:     4.1-20200408                       |
|   \\  /    A nd           | Web:         http://www.foam-extend.org         |
|    \\/     M anipulation  |                                                 |
\*---------------------------------------------------------------------------*/
FoamFile
{
    version     2.0;
    format      ascii;
    class       volScalarField;
    location    "0.0135000";
    object      rho;
}
// * * * * * * * * * * * * * * * * * * * * * * * * * * * * * * * * * * * * * //

dimensions      [1 -3 0 0 0 0 0];

internalField   nonuniform List<scalar> 
1952
(
7819.96
7820.02
7820.12
7820.25
7820.41
7820.57
7820.75
7820.91
7821.08
7821.24
7821.34
7821.16
7820.8
7820.88
7821.55
7819.94
7820.54
7820.6
7820.7
7820.84
7821.01
7821.19
7821.39
7821.57
7821.78
7821.98
7822.13
7822.02
7821.76
7821.92
7822.78
7820.52
7821.07
7821.13
7821.24
7821.38
7821.55
7821.75
7821.96
7822.15
7822.37
7822.59
7822.76
7822.65
7822.38
7822.44
7823.12
7821.05
7821.57
7821.63
7821.74
7821.88
7822.06
7822.26
7822.47
7822.67
7822.89
7823.12
7823.28
7823.16
7822.86
7822.8
7823.36
7821.55
7822.02
7822.09
7822.2
7822.34
7822.52
7822.72
7822.93
7823.13
7823.34
7823.56
7823.7
7823.55
7823.19
7823.02
7823.45
7822
7822.44
7822.51
7822.61
7822.76
7822.93
7823.14
7823.34
7823.53
7823.73
7823.93
7824.05
7823.87
7823.45
7823.17
7823.5
7822.43
7822.83
7822.89
7822.99
7823.13
7823.3
7823.5
7823.7
7823.88
7824.06
7824.25
7824.34
7824.12
7823.65
7823.27
7823.52
7822.81
7823.18
7823.24
7823.34
7823.48
7823.64
7823.83
7824.02
7824.19
7824.35
7824.52
7824.58
7824.33
7823.81
7823.34
7823.52
7823.16
7823.49
7823.56
7823.65
7823.78
7823.94
7824.13
7824.3
7824.46
7824.6
7824.75
7824.78
7824.51
7823.94
7823.39
7823.52
7823.48
7823.78
7823.84
7823.93
7824.06
7824.2
7824.38
7824.54
7824.7
7824.82
7824.95
7824.96
7824.66
7824.06
7823.43
7823.52
7823.77
7824.04
7824.1
7824.18
7824.3
7824.44
7824.61
7824.76
7824.91
7825.01
7825.13
7825.11
7824.8
7824.16
7823.47
7823.52
7824.03
7824.27
7824.34
7824.41
7824.53
7824.65
7824.82
7824.96
7825.1
7825.18
7825.29
7825.25
7824.92
7824.25
7823.5
7823.52
7824.26
7824.49
7824.55
7824.62
7824.73
7824.85
7825.01
7825.14
7825.27
7825.34
7825.44
7825.38
7825.04
7824.34
7823.53
7823.53
7824.48
7824.68
7824.74
7824.8
7824.92
7825.03
7825.18
7825.3
7825.42
7825.49
7825.57
7825.51
7825.15
7824.43
7823.57
7823.55
7824.67
7824.86
7824.92
7824.98
7825.09
7825.19
7825.34
7825.46
7825.57
7825.62
7825.7
7825.62
7825.25
7824.52
7823.6
7823.57
7824.85
7825.03
7825.08
7825.14
7825.24
7825.34
7825.49
7825.6
7825.7
7825.75
7825.82
7825.73
7825.36
7824.61
7823.64
7823.6
7825.02
7825.18
7825.24
7825.29
7825.39
7825.48
7825.63
7825.73
7825.83
7825.87
7825.94
7825.84
7825.46
7824.7
7823.69
7823.63
7825.18
7825.33
7825.38
7825.43
7825.53
7825.62
7825.76
7825.85
7825.96
7825.99
7826.05
7825.95
7825.57
7824.8
7823.73
7823.67
7825.32
7825.46
7825.52
7825.57
7825.66
7825.75
7825.88
7825.97
7826.08
7826.11
7826.16
7826.05
7825.67
7824.89
7823.78
7823.71
7825.46
7825.6
7825.65
7825.69
7825.79
7825.87
7826
7826.09
7826.19
7826.22
7826.27
7826.16
7825.78
7824.98
7823.83
7823.75
7825.59
7825.72
7825.77
7825.82
7825.91
7825.99
7826.12
7826.2
7826.3
7826.33
7826.38
7826.26
7825.89
7825.08
7823.89
7823.79
7825.72
7825.84
7825.89
7825.94
7826.03
7826.1
7826.23
7826.31
7826.41
7826.43
7826.49
7826.36
7825.99
7825.17
7823.95
7823.84
7825.84
7825.96
7826.01
7826.06
7826.15
7826.22
7826.34
7826.42
7826.52
7826.54
7826.6
7826.47
7826.1
7825.27
7824.03
7823.87
7825.96
7826.08
7826.13
7826.17
7826.26
7826.33
7826.45
7826.53
7826.62
7826.65
7826.7
7826.57
7826.21
7825.37
7824.12
7823.91
7826.08
7826.19
7826.24
7826.29
7826.37
7826.44
7826.56
7826.63
7826.73
7826.75
7826.8
7826.67
7826.3
7825.47
7824.19
7823.95
7826.19
7826.3
7826.35
7826.4
7826.48
7826.55
7826.66
7826.73
7826.82
7826.84
7826.9
7826.76
7826.38
7825.56
7824.25
7824
7826.3
7826.41
7826.46
7826.51
7826.59
7826.65
7826.77
7826.83
7826.92
7826.94
7826.98
7826.85
7826.46
7825.65
7824.32
7824.04
7826.41
7826.53
7826.58
7826.62
7826.7
7826.76
7826.87
7826.93
7827.01
7827.04
7827.07
7826.93
7826.54
7825.74
7824.4
7824.07
7826.53
7826.65
7826.69
7826.74
7826.82
7826.87
7826.98
7827.04
7827.11
7827.13
7827.16
7827.02
7826.63
7825.83
7824.47
7824.1
7826.65
7826.77
7826.81
7826.86
7826.93
7826.99
7827.08
7827.14
7827.2
7827.23
7827.25
7827.11
7826.71
7825.92
7824.55
7824.11
7826.77
7826.9
7826.94
7826.98
7827.05
7827.11
7827.19
7827.24
7827.3
7827.32
7827.34
7827.19
7826.78
7826
7824.61
7824.13
7826.9
7827.04
7827.07
7827.11
7827.18
7827.23
7827.31
7827.35
7827.4
7827.42
7827.43
7827.27
7826.86
7826.07
7824.67
7824.13
7827.04
7827.19
7827.22
7827.25
7827.31
7827.36
7827.43
7827.46
7827.51
7827.52
7827.51
7827.35
7826.93
7826.14
7824.72
7824.13
7827.19
7827.35
7827.37
7827.4
7827.46
7827.5
7827.56
7827.58
7827.62
7827.62
7827.6
7827.43
7826.99
7826.2
7824.77
7824.11
7827.35
7827.52
7827.54
7827.57
7827.62
7827.65
7827.7
7827.71
7827.73
7827.73
7827.7
7827.51
7827.05
7826.26
7824.8
7824.08
7827.52
7827.72
7827.74
7827.76
7827.8
7827.82
7827.86
7827.85
7827.86
7827.84
7827.79
7827.58
7827.11
7826.3
7824.82
7824.04
7827.72
7827.94
7827.95
7827.97
7828
7828.01
7828.03
7828.01
7827.99
7827.96
7827.88
7827.65
7827.16
7826.34
7824.83
7823.97
7827.95
7828.19
7828.19
7828.2
7828.22
7828.22
7828.22
7828.18
7828.15
7828.09
7828
7827.74
7827.22
7826.37
7824.83
7823.89
7828.2
7828.49
7828.48
7828.48
7828.48
7828.46
7828.45
7828.39
7828.33
7828.25
7828.12
7827.83
7827.27
7826.4
7824.81
7823.79
7828.49
7828.83
7828.81
7828.8
7828.79
7828.75
7828.72
7828.63
7828.54
7828.42
7828.26
7827.93
7827.33
7826.42
7824.78
7823.67
7828.84
7829.21
7829.19
7829.17
7829.14
7829.09
7829.03
7828.91
7828.78
7828.63
7828.42
7828.04
7827.4
7826.44
7824.75
7823.53
7829.23
7829.67
7829.64
7829.6
7829.55
7829.47
7829.39
7829.24
7829.07
7828.88
7828.62
7828.19
7827.48
7826.47
7824.7
7823.36
7829.68
7830.19
7830.16
7830.1
7830.04
7829.94
7829.83
7829.63
7829.43
7829.18
7828.87
7828.37
7827.59
7826.5
7824.64
7823.17
7830.21
7830.8
7830.76
7830.69
7830.61
7830.48
7830.34
7830.1
7829.85
7829.55
7829.18
7828.6
7827.74
7826.55
7824.59
7822.97
7830.83
7831.51
7831.46
7831.37
7831.27
7831.12
7830.94
7830.67
7830.37
7830
7829.56
7828.89
7827.94
7826.64
7824.56
7822.74
7831.53
7832.32
7832.26
7832.16
7832.04
7831.86
7831.66
7831.35
7830.99
7830.57
7830.05
7829.28
7828.22
7826.78
7824.55
7822.51
7832.34
7833.24
7833.18
7833.07
7832.94
7832.74
7832.5
7832.15
7831.75
7831.26
7830.66
7829.78
7828.6
7827.01
7824.59
7822.29
7833.27
7834.28
7834.22
7834.11
7833.96
7833.75
7833.49
7833.11
7832.67
7832.11
7831.43
7830.45
7829.13
7827.35
7824.72
7822.1
7834.31
7835.45
7835.39
7835.28
7835.13
7834.91
7834.64
7834.24
7833.77
7833.16
7832.41
7831.31
7829.85
7827.86
7824.99
7821.96
7835.48
7836.75
7836.7
7836.59
7836.45
7836.24
7835.97
7835.57
7835.08
7834.45
7833.64
7832.45
7830.84
7828.64
7825.47
7821.94
7836.78
7838.17
7838.13
7838.04
7837.92
7837.73
7837.48
7837.11
7836.63
7836
7835.17
7833.92
7832.21
7829.8
7826.33
7822.21
7838.19
7839.71
7839.68
7839.62
7839.53
7839.38
7839.18
7838.86
7838.43
7837.85
7837.05
7835.81
7834.05
7831.52
7827.82
7823.17
7839.72
7841.33
7841.33
7841.3
7841.26
7841.18
7841.05
7840.82
7840.49
7840.02
7839.32
7838.18
7836.5
7834
7830.26
7825.32
7841.33
7843.02
7843.05
7843.07
7843.09
7843.09
7843.06
7842.97
7842.78
7842.49
7841.97
7841.06
7839.59
7837.33
7833.8
7828.95
7843.01
7844.73
7844.79
7844.87
7844.97
7845.08
7845.18
7845.25
7845.26
7845.22
7844.97
7844.42
7843.32
7841.52
7838.45
7834.07
7844.71
7846.43
7846.52
7846.67
7846.85
7847.09
7847.33
7847.6
7847.85
7848.12
7848.23
7848.15
7847.58
7846.49
7844.16
7840.69
7846.39
7848.05
7848.19
7848.4
7848.68
7849.04
7849.45
7849.94
7850.45
7851.08
7851.61
7852.1
7852.19
7852.03
7850.7
7848.54
7847.99
7849.55
7849.73
7850.01
7850.38
7850.86
7851.43
7852.14
7852.93
7853.93
7854.9
7856.04
7856.89
7857.83
7857.77
7857.4
7849.48
7850.88
7851.09
7851.43
7851.88
7852.48
7853.19
7854.1
7855.14
7856.48
7857.89
7859.65
7861.31
7863.46
7864.89
7866.85
7850.8
7851.99
7852.23
7852.61
7853.13
7853.81
7854.64
7855.7
7856.94
7858.55
7860.33
7862.62
7864.98
7868.2
7871.09
7875.71
7851.9
7852.86
7853.12
7853.52
7854.09
7854.83
7855.73
7856.87
7858.21
7859.95
7861.89
7864.47
7867.28
7871.32
7875.49
7882.79
7852.76
7853.41
7853.68
7854.09
7854.66
7855.41
7856.32
7857.48
7858.84
7860.59
7862.56
7865.23
7868.16
7872.3
7876.62
7883.61
7853.32
7853.71
7853.99
7854.39
7854.97
7855.71
7856.64
7857.83
7859.25
7861.07
7863.14
7865.87
7868.8
7872.63
7876.33
7881.34
7853.62
7854.14
7854.44
7854.87
7855.47
7856.25
7857.23
7858.47
7860
7861.92
7864.08
7866.77
7869.47
7872.42
7874.71
7877.68
7854.04
7854.95
7855.28
7855.75
7856.42
7857.27
7858.36
7859.69
7861.31
7863.27
7865.33
7867.51
7869.29
7870.95
7871.95
7873.59
7854.84
7856.27
7856.64
7857.17
7857.95
7858.91
7860.09
7861.44
7862.95
7864.48
7865.81
7866.98
7867.71
7868.39
7868.74
7869.54
7856.16
7858.4
7858.78
7859.26
7859.95
7860.75
7861.67
7862.57
7863.43
7864.15
7864.67
7865.03
7865.2
7865.52
7865.61
7865.78
7858.29
7859.91
7860.15
7860.4
7860.76
7861.14
7861.54
7861.88
7862.14
7862.36
7862.49
7862.65
7862.73
7862.8
7862.62
7862.4
7859.84
7859.3
7859.42
7859.54
7859.71
7859.86
7860.01
7860.12
7860.22
7860.37
7860.44
7860.46
7860.36
7860.21
7859.86
7859.37
7859.26
7857.93
7857.99
7858.06
7858.18
7858.29
7858.4
7858.47
7858.51
7858.51
7858.45
7858.33
7858.12
7857.82
7857.34
7856.68
7857.91
7856.68
7856.72
7856.75
7856.8
7856.83
7856.84
7856.82
7856.78
7856.69
7856.55
7856.34
7856.03
7855.62
7855.06
7854.31
7856.67
7855.32
7855.35
7855.34
7855.35
7855.33
7855.3
7855.23
7855.13
7854.97
7854.76
7854.47
7854.1
7853.62
7853.01
7852.21
7855.32
7854.01
7854.01
7853.99
7853.96
7853.9
7853.82
7853.7
7853.55
7853.34
7853.08
7852.74
7852.33
7851.8
7851.18
7850.36
7854.02
7852.7
7852.69
7852.64
7852.59
7852.5
7852.39
7852.24
7852.05
7851.81
7851.52
7851.14
7850.71
7850.16
7849.54
7848.73
7852.71
7851.43
7851.41
7851.35
7851.27
7851.17
7851.03
7850.86
7850.65
7850.38
7850.07
7849.68
7849.24
7848.69
7848.08
7847.3
7851.44
7850.2
7850.17
7850.1
7850.02
7849.89
7849.75
7849.55
7849.33
7849.05
7848.73
7848.33
7847.9
7847.36
7846.78
7846.03
7850.22
7849.03
7848.99
7848.92
7848.82
7848.69
7848.53
7848.33
7848.1
7847.82
7847.5
7847.11
7846.69
7846.17
7845.61
7844.91
7849.05
7847.92
7847.87
7847.79
7847.69
7847.56
7847.4
7847.19
7846.96
7846.68
7846.37
7845.99
7845.58
7845.09
7844.57
7843.91
7847.93
7846.86
7846.81
7846.73
7846.63
7846.5
7846.33
7846.13
7845.9
7845.63
7845.33
7844.96
7844.58
7844.12
7843.63
7843.02
7846.88
7845.86
7845.81
7845.74
7845.63
7845.5
7845.34
7845.15
7844.93
7844.66
7844.37
7844.03
7843.67
7843.24
7842.79
7842.22
7845.88
7844.93
7844.88
7844.81
7844.7
7844.57
7844.42
7844.23
7844.02
7843.77
7843.5
7843.17
7842.84
7842.44
7842.03
7841.5
7844.95
7844.05
7844
7843.93
7843.83
7843.71
7843.56
7843.39
7843.18
7842.95
7842.69
7842.39
7842.08
7841.71
7841.34
7840.86
7844.07
7843.24
7843.19
7843.12
7843.03
7842.91
7842.77
7842.6
7842.41
7842.19
7841.95
7841.68
7841.39
7841.05
7840.71
7840.27
7843.25
7842.47
7842.42
7842.36
7842.27
7842.16
7842.03
7841.88
7841.7
7841.49
7841.28
7841.02
7840.76
7840.45
7840.14
7839.73
7842.49
7841.76
7841.72
7841.66
7841.57
7841.47
7841.35
7841.2
7841.04
7840.85
7840.65
7840.42
7840.18
7839.9
7839.61
7839.24
7841.78
7841.1
7841.06
7841
7840.92
7840.83
7840.71
7840.58
7840.43
7840.26
7840.07
7839.86
7839.64
7839.39
7839.13
7838.79
7841.11
7840.48
7840.44
7840.39
7840.32
7840.23
7840.13
7840
7839.86
7839.7
7839.54
7839.34
7839.15
7838.91
7838.68
7838.37
7840.49
7839.91
7839.87
7839.83
7839.76
7839.68
7839.58
7839.47
7839.34
7839.19
7839.04
7838.86
7838.69
7838.48
7838.26
7837.98
7839.92
7839.37
7839.34
7839.3
7839.23
7839.16
7839.07
7838.97
7838.85
7838.72
7838.58
7838.42
7838.26
7838.07
7837.88
7837.62
7839.38
7838.88
7838.84
7838.8
7838.75
7838.68
7838.6
7838.5
7838.4
7838.28
7838.15
7838.01
7837.86
7837.69
7837.51
7837.27
7838.88
7838.41
7838.38
7838.35
7838.29
7838.23
7838.16
7838.07
7837.98
7837.87
7837.75
7837.62
7837.49
7837.33
7837.17
7836.95
7838.42
7837.98
7837.95
7837.92
7837.87
7837.81
7837.74
7837.67
7837.58
7837.48
7837.38
7837.26
7837.14
7837
7836.85
7836.65
7837.98
7837.57
7837.54
7837.52
7837.47
7837.42
7837.36
7837.29
7837.21
7837.12
7837.03
7836.92
7836.81
7836.69
7836.55
7836.36
7837.58
7837.19
7837.17
7837.14
7837.1
7837.06
7837
7836.93
7836.86
7836.78
7836.7
7836.6
7836.5
7836.39
7836.26
7836.09
7837.2
7836.83
7836.81
7836.79
7836.75
7836.71
7836.66
7836.6
7836.54
7836.46
7836.39
7836.3
7836.21
7836.11
7835.99
7835.83
7836.84
7836.5
7836.48
7836.46
7836.43
7836.39
7836.34
7836.29
7836.23
7836.16
7836.09
7836.01
7835.93
7835.84
7835.74
7835.58
7836.51
7836.19
7836.17
7836.15
7836.12
7836.08
7836.04
7835.99
7835.94
7835.88
7835.82
7835.75
7835.67
7835.59
7835.49
7835.35
7836.19
7835.89
7835.88
7835.86
7835.83
7835.8
7835.76
7835.72
7835.67
7835.61
7835.56
7835.49
7835.42
7835.34
7835.26
7835.12
7835.9
7835.61
7835.6
7835.58
7835.56
7835.53
7835.49
7835.45
7835.41
7835.36
7835.31
7835.25
7835.19
7835.11
7835.03
7834.9
7835.62
7835.35
7835.34
7835.32
7835.3
7835.27
7835.24
7835.21
7835.16
7835.12
7835.07
7835.02
7834.96
7834.89
7834.82
7834.7
7835.36
7835.11
7835.09
7835.08
7835.06
7835.03
7835
7834.97
7834.93
7834.89
7834.85
7834.8
7834.75
7834.68
7834.61
7834.5
7835.11
7834.87
7834.86
7834.85
7834.83
7834.8
7834.78
7834.75
7834.71
7834.67
7834.63
7834.59
7834.54
7834.48
7834.41
7834.3
7834.87
7834.65
7834.64
7834.63
7834.61
7834.59
7834.56
7834.53
7834.5
7834.47
7834.43
7834.39
7834.34
7834.29
7834.22
7834.12
7834.65
7834.44
7834.43
7834.42
7834.4
7834.38
7834.36
7834.33
7834.3
7834.27
7834.23
7834.19
7834.15
7834.1
7834.04
7833.94
7834.45
7834.25
7834.24
7834.23
7834.21
7834.19
7834.17
7834.14
7834.11
7834.08
7834.05
7834.01
7833.97
7833.93
7833.87
7833.77
7834.25
7834.06
7834.05
7834.04
7834.03
7834.01
7833.99
7833.96
7833.93
7833.9
7833.87
7833.84
7833.8
7833.75
7833.7
7833.6
7834.06
7833.89
7833.88
7833.87
7833.85
7833.83
7833.81
7833.79
7833.76
7833.73
7833.7
7833.67
7833.63
7833.59
7833.53
7833.44
7833.89
7833.72
7833.71
7833.7
7833.69
7833.67
7833.65
7833.63
7833.6
7833.57
7833.54
7833.51
7833.47
7833.43
7833.37
7833.28
7833.72
7833.57
7833.56
7833.55
7833.53
7833.52
7833.5
7833.47
7833.45
7833.42
7833.39
7833.36
7833.32
7833.28
7833.22
7833.13
7833.57
7833.42
7833.41
7833.4
7833.39
7833.37
7833.35
7833.33
7833.31
7833.28
7833.25
7833.21
7833.18
7833.13
7833.08
7832.98
7833.42
7833.29
7833.28
7833.27
7833.26
7833.24
7833.22
7833.2
7833.17
7833.14
7833.11
7833.07
7833.04
7832.99
7832.93
7832.84
7833.29
7833.16
7833.16
7833.15
7833.13
7833.11
7833.09
7833.07
7833.04
7833.01
7832.98
7832.94
7832.9
7832.86
7832.8
7832.7
7833.17
7833.05
7833.04
7833.03
7833.02
7833
7832.98
7832.95
7832.93
7832.9
7832.86
7832.82
7832.78
7832.73
7832.67
7832.57
7833.05
7832.95
7832.94
7832.93
7832.91
7832.89
7832.87
7832.85
7832.82
7832.79
7832.75
7832.71
7832.67
7832.61
7832.54
7832.44
7832.95
7832.85
7832.84
7832.83
7832.82
7832.8
7832.78
7832.75
7832.72
7832.69
7832.65
7832.61
7832.56
7832.5
7832.43
7832.31
7832.85
7832.77
7832.76
7832.75
7832.74
7832.72
7832.7
7832.67
7832.64
7832.6
7832.56
7832.52
7832.46
7832.4
7832.32
7832.2
7832.77
7832.7
7832.69
7832.68
7832.66
7832.65
7832.62
7832.6
7832.57
7832.53
7832.49
7832.44
7832.38
7832.31
7832.22
7832.09
7832.7
7832.63
7832.63
7832.62
7832.6
7832.58
7832.56
7832.54
7832.51
7832.47
7832.43
7832.38
7832.32
7832.24
7832.14
7831.99
7832.64
7832.58
7832.57
7832.56
7832.55
7832.53
7832.51
7832.49
7832.46
7832.42
7832.38
7832.33
7832.27
7832.19
7832.08
7831.91
7832.58
7832.54
7832.53
7832.52
7832.51
7832.5
7832.48
7832.45
7832.42
7832.39
7832.35
7832.3
7832.24
7832.16
7832.05
7831.86
7832.54
7832.5
7832.5
7832.49
7832.48
7832.46
7832.45
7832.42
7832.4
7832.37
7832.34
7832.3
7832.25
7832.19
7832.1
7831.96
7832.5
7832.49
7832.48
7832.48
7832.47
7832.45
7832.44
7832.42
7832.4
7832.37
7832.34
7832.31
7832.27
7832.22
7832.17
7832.06
7832.49
)
;

boundaryField
{
    wireUpstream
    {
        type            calculated;
        value           nonuniform List<scalar> 
16
(
7832.47
7832.47
7832.46
7832.45
7832.44
7832.42
7832.41
7832.39
7832.36
7832.34
7832.31
7832.28
7832.25
7832.23
7832.21
7832.47
)
;
    }
    wireDownstream
    {
        type            calculated;
        value           nonuniform List<scalar> 
16
(
7819.98
7820.03
7820.14
7820.26
7820.43
7820.6
7820.78
7820.94
7821.12
7821.28
7821.39
7821.21
7820.86
7820.86
7820.76
7819.95
)
;
    }
    wireTopContact
    {
        type            calculated;
        value           nonuniform List<scalar> 
122
(
7822.83
7823.13
7823.35
7823.45
7823.51
7823.54
7823.55
7823.55
7823.55
7823.55
7823.56
7823.57
7823.59
7823.61
7823.64
7823.67
7823.71
7823.75
7823.8
7823.85
7823.89
7823.94
7823.98
7824.02
7824.06
7824.09
7824.12
7824.14
7824.16
7824.17
7824.18
7824.17
7824.15
7824.12
7824.07
7824.01
7823.92
7823.82
7823.69
7823.55
7823.38
7823.19
7822.98
7822.75
7822.53
7822.32
7822.14
7822.03
7822.04
7822.32
7823.27
7825.44
7829.11
7834.23
7840.86
7848.68
7857.5
7866.85
7875.55
7882.98
7883.59
7881.33
7877.69
7873.53
7869.49
7865.76
7862.39
7859.36
7856.69
7854.31
7852.21
7850.36
7848.73
7847.29
7846.02
7844.9
7843.89
7843
7842.21
7841.49
7840.84
7840.25
7839.72
7839.23
7838.77
7838.35
7837.96
7837.6
7837.26
7836.94
7836.64
7836.35
7836.08
7835.82
7835.57
7835.34
7835.11
7834.9
7834.69
7834.49
7834.3
7834.11
7833.93
7833.76
7833.59
7833.43
7833.27
7833.12
7832.98
7832.83
7832.69
7832.56
7832.43
7832.31
7832.19
7832.09
7831.99
7831.92
7831.86
7831.95
7832.02
7822.08
)
;
    }
    front
    {
        type            wedge;
    }
    back
    {
        type            wedge;
    }
}


// ************************************************************************* //
