/*--------------------------------*- C++ -*----------------------------------*\
| =========                 |                                                 |
| \\      /  F ield         | OpenFOAM: The Open Source CFD Toolbox           |
|  \\    /   O peration     | Version:  4.1                                   |
|   \\  /    A nd           | Web:      www.OpenFOAM.org                      |
|    \\/     M anipulation  |                                                 |
\*---------------------------------------------------------------------------*/
FoamFile
{
    version     2.0;
    format      ascii;
    class       volVectorField;
    location    "7e-05";
    object      wallShearStress;
}
// * * * * * * * * * * * * * * * * * * * * * * * * * * * * * * * * * * * * * //

dimensions      [0 2 -2 0 0 0 0];

internalField   uniform (0 0 0);

boundaryField
{
    inlet
    {
        type            calculated;
        value           uniform (0 0 0);
    }
    outlet
    {
        type            calculated;
        value           uniform (0 0 0);
    }
    mantle
    {
        type            calculated;
        value           nonuniform List<vector> 
384
(
(-0.0481384 0.00352086 -0.000472178)
(-0.0469034 0.00301362 -0.00119465)
(-0.0462232 0.00257677 -0.00158214)
(-0.045923 0.00221949 -0.00190074)
(-0.0459236 0.00190074 -0.00221957)
(-0.046225 0.00158207 -0.00257694)
(-0.046906 0.00119447 -0.0030138)
(-0.0481409 0.000471897 -0.00352079)
(-0.0481434 0.000277209 -0.000180992)
(-0.0472861 0.000212585 -0.000334363)
(-0.0467186 0.000156781 -0.000294154)
(-0.0464393 0.000163267 -0.000217504)
(-0.0464397 0.000216202 -0.000164203)
(-0.0467201 0.000292527 -0.000157249)
(-0.0472881 0.000332634 -0.000212522)
(-0.0481457 0.000179293 -0.000276302)
(-0.0486651 -5.14952e-05 -1.30427e-05)
(-0.047776 -3.7131e-05 -2.88333e-05)
(-0.0471669 -2.96277e-05 -2.77998e-05)
(-0.0468634 -1.51725e-05 -7.38953e-06)
(-0.0468634 5.31359e-06 1.38081e-05)
(-0.047167 2.53945e-05 2.90084e-05)
(-0.0477759 2.67325e-05 3.74903e-05)
(-0.0486648 1.14378e-05 5.21663e-05)
(-0.0483776 -2.6978e-05 -2.02641e-06)
(-0.0475716 -2.5297e-05 -2.56016e-06)
(-0.0470288 -2.37347e-05 -7.38961e-07)
(-0.0467585 -1.78808e-05 7.78032e-06)
(-0.0467581 -9.41178e-06 1.69125e-05)
(-0.0470276 -7.2375e-07 2.32452e-05)
(-0.0475696 1.80746e-06 2.55307e-05)
(-0.0483752 1.62228e-06 2.70052e-05)
(-0.0483224 -9.74431e-07 -4.08029e-06)
(-0.0475234 -2.76374e-06 -6.49453e-06)
(-0.0469911 -3.56294e-06 -5.78374e-06)
(-0.0467268 -2.13921e-06 -2.13314e-06)
(-0.0467263 1.37972e-06 1.75789e-06)
(-0.0469897 5.40127e-06 3.61813e-06)
(-0.0475212 6.88609e-06 3.11443e-06)
(-0.04832 4.94194e-06 1.00983e-06)
(-0.0483316 2.10614e-06 -2.85163e-06)
(-0.0475321 1.11193e-06 -4.80944e-06)
(-0.0470014 9.10437e-07 -4.63247e-06)
(-0.0467381 1.5446e-06 -3.23599e-06)
(-0.0467377 3.33195e-06 -1.39203e-06)
(-0.0470002 5.16953e-06 -4.21447e-07)
(-0.0475304 6.06235e-06 -5.39551e-07)
(-0.0483297 4.73941e-06 -2.28693e-06)
(-0.0483369 2.62863e-06 -2.21038e-06)
(-0.0475393 1.77404e-06 -4.09099e-06)
(-0.0470106 1.62965e-06 -3.69093e-06)
(-0.0467484 2.09894e-06 -2.80093e-06)
(-0.0467481 3.45021e-06 -1.47002e-06)
(-0.0470099 4.81239e-06 -9.21441e-07)
(-0.0475384 5.84165e-06 -1.08696e-06)
(-0.0483359 4.65398e-06 -2.66399e-06)
(-0.0483443 3.11258e-06 -1.75014e-06)
(-0.0475484 2.30165e-06 -3.80004e-06)
(-0.0470211 2.09163e-06 -3.35992e-06)
(-0.0467596 2.46866e-06 -2.67412e-06)
(-0.0467595 3.57505e-06 -1.6135e-06)
(-0.0470209 4.66629e-06 -1.27916e-06)
(-0.0475483 5.58702e-06 -1.49235e-06)
(-0.0483442 4.28046e-06 -2.92255e-06)
(-0.0483522 2.94813e-06 -1.18079e-06)
(-0.047558 2.2963e-06 -3.15965e-06)
(-0.0470318 2.11851e-06 -2.82709e-06)
(-0.0467707 2.4107e-06 -2.35753e-06)
(-0.0467707 3.26484e-06 -1.53365e-06)
(-0.0470318 4.05338e-06 -1.30796e-06)
(-0.0475581 4.73208e-06 -1.45409e-06)
(-0.0483525 3.42306e-06 -2.53544e-06)
(-0.0483593 2.65862e-06 -6.2782e-07)
(-0.0475666 2.19028e-06 -2.49474e-06)
(-0.0470413 2.02179e-06 -2.2923e-06)
(-0.0467808 2.24575e-06 -1.99744e-06)
(-0.0467808 2.89593e-06 -1.39641e-06)
(-0.0470415 3.47092e-06 -1.25991e-06)
(-0.0475669 3.92165e-06 -1.45655e-06)
(-0.0483597 2.59999e-06 -2.31779e-06)
(-0.0483651 2.16097e-06 -1.48788e-07)
(-0.0475738 1.88085e-06 -1.78023e-06)
(-0.0470494 1.75733e-06 -1.71367e-06)
(-0.0467893 1.90866e-06 -1.58052e-06)
(-0.0467894 2.35684e-06 -1.17815e-06)
(-0.0470496 2.70747e-06 -1.10448e-06)
(-0.0475743 2.93308e-06 -1.26971e-06)
(-0.0483657 1.68527e-06 -1.82781e-06)
(-0.0483698 1.89427e-06 1.60711e-07)
(-0.0475796 1.72705e-06 -1.36893e-06)
(-0.047056 1.54118e-06 -1.39152e-06)
(-0.0467962 1.64212e-06 -1.31361e-06)
(-0.0467963 1.94561e-06 -1.05563e-06)
(-0.0470563 2.16528e-06 -1.04152e-06)
(-0.0475802 2.27928e-06 -1.24547e-06)
(-0.0483705 1.06393e-06 -1.70755e-06)
(-0.0483735 1.51513e-06 3.55507e-07)
(-0.0475843 1.39743e-06 -9.68756e-07)
(-0.0470612 1.22796e-06 -1.06228e-06)
(-0.0468017 1.27492e-06 -1.038e-06)
(-0.0468018 1.45566e-06 -8.84884e-07)
(-0.0470615 1.53928e-06 -8.94929e-07)
(-0.0475849 1.54617e-06 -1.0407e-06)
(-0.0483742 4.75365e-07 -1.31237e-06)
(-0.0483763 1.29082e-06 4.32111e-07)
(-0.0475879 1.17986e-06 -7.63902e-07)
(-0.0470652 1.00651e-06 -8.89212e-07)
(-0.046806 1.01996e-06 -8.78707e-07)
(-0.0468062 1.13578e-06 -8.03136e-07)
(-0.0470656 1.1656e-06 -8.41473e-07)
(-0.0475886 1.11876e-06 -1.01553e-06)
(-0.0483771 1.62088e-07 -1.19155e-06)
(-0.0483786 1.01683e-06 4.29089e-07)
(-0.0475908 8.97844e-07 -6.10504e-07)
(-0.0470685 7.35804e-07 -7.55164e-07)
(-0.0468094 6.99853e-07 -7.59457e-07)
(-0.0468096 7.41295e-07 -7.15804e-07)
(-0.0470689 6.86845e-07 -7.29366e-07)
(-0.0475915 5.81911e-07 -7.9928e-07)
(-0.0483795 -1.16509e-07 -8.08476e-07)
(-0.0483805 9.24282e-07 3.61659e-07)
(-0.0475931 7.57156e-07 -6.35173e-07)
(-0.047071 5.59504e-07 -7.67891e-07)
(-0.0468121 4.91256e-07 -7.58424e-07)
(-0.0468123 5.1063e-07 -7.26717e-07)
(-0.0470715 4.3795e-07 -7.24294e-07)
(-0.0475938 3.462e-07 -7.61225e-07)
(-0.0483813 -1.70816e-07 -7.20473e-07)
(-0.0483821 8.54596e-07 2.69928e-07)
(-0.0475951 6.12531e-07 -7.06362e-07)
(-0.0470732 3.93554e-07 -8.10906e-07)
(-0.0468144 2.82173e-07 -7.89163e-07)
(-0.0468146 2.59082e-07 -7.34708e-07)
(-0.0470736 1.66825e-07 -6.91513e-07)
(-0.0475956 1.07499e-07 -6.081e-07)
(-0.0483827 -1.88292e-07 -4.82265e-07)
(-0.0483837 9.64931e-07 1.90187e-07)
(-0.047597 6.53496e-07 -8.71909e-07)
(-0.0470753 3.73212e-07 -9.51049e-07)
(-0.0468166 2.34735e-07 -9.04463e-07)
(-0.0468167 2.0931e-07 -8.27623e-07)
(-0.0470756 1.5679e-07 -7.69207e-07)
(-0.0475974 1.58398e-07 -6.61715e-07)
(-0.048384 -1.25884e-08 -5.66693e-07)
(-0.0483854 9.14484e-07 1.91036e-07)
(-0.047599 6.06462e-07 -8.79031e-07)
(-0.0470774 3.25443e-07 -9.67874e-07)
(-0.0468187 1.47677e-07 -9.4001e-07)
(-0.0468188 8.52834e-08 -8.3315e-07)
(-0.0470775 2.23501e-08 -7.22966e-07)
(-0.0475991 5.37374e-08 -5.03763e-07)
(-0.0483854 1.01181e-07 -3.57653e-07)
(-0.048387 8.84798e-07 2.05927e-07)
(-0.047601 6.4418e-07 -8.4705e-07)
(-0.0470796 3.74834e-07 -9.58627e-07)
(-0.0468209 2.03962e-07 -9.67881e-07)
(-0.0468209 1.44015e-07 -8.62774e-07)
(-0.0470795 1.1012e-07 -7.5402e-07)
(-0.0476008 1.75447e-07 -5.45638e-07)
(-0.0483868 3.3729e-07 -4.19131e-07)
(-0.0483886 7.82118e-07 1.33453e-07)
(-0.047603 6.34582e-07 -7.90072e-07)
(-0.0470819 4.13614e-07 -9.23054e-07)
(-0.0468233 2.5199e-07 -9.68163e-07)
(-0.0468232 1.88107e-07 -8.48325e-07)
(-0.0470816 1.50971e-07 -7.2034e-07)
(-0.0476027 2.29857e-07 -4.79688e-07)
(-0.0483883 4.5702e-07 -3.67635e-07)
(-0.0483904 7.66018e-07 -1.27418e-07)
(-0.0476052 6.39779e-07 -8.7081e-07)
(-0.0470843 4.98216e-07 -9.62184e-07)
(-0.0468259 3.92551e-07 -9.9793e-07)
(-0.0468258 4.02441e-07 -8.73647e-07)
(-0.0470841 3.98757e-07 -7.66676e-07)
(-0.0476049 5.00231e-07 -6.00469e-07)
(-0.0483901 6.17858e-07 -5.84037e-07)
(-0.0483921 6.90296e-07 -5.8964e-07)
(-0.0476076 5.40841e-07 -1.03912e-06)
(-0.0470871 5.08355e-07 -1.04222e-06)
(-0.0468288 4.59349e-07 -1.03154e-06)
(-0.0468287 5.46896e-07 -8.77785e-07)
(-0.0470869 5.50092e-07 -7.66734e-07)
(-0.0476075 6.52813e-07 -6.42268e-07)
(-0.0483922 6.03445e-07 -6.35829e-07)
(-0.0483943 7.65575e-07 -1.20825e-06)
(-0.0476103 4.95934e-07 -1.4096e-06)
(-0.0470902 5.1151e-07 -1.24496e-06)
(-0.0468321 5.49589e-07 -1.12011e-06)
(-0.0468321 7.27591e-07 -9.28885e-07)
(-0.0470902 7.69556e-07 -8.44248e-07)
(-0.0476104 8.77733e-07 -7.94579e-07)
(-0.0483946 6.18605e-07 -8.76103e-07)
(-0.0483969 8.02307e-07 -1.78864e-06)
(-0.0476135 3.65712e-07 -1.74041e-06)
(-0.0470937 4.0813e-07 -1.3907e-06)
(-0.0468357 4.95018e-07 -1.14627e-06)
(-0.0468357 7.2998e-07 -8.87473e-07)
(-0.0470936 7.76919e-07 -8.01037e-07)
(-0.0476135 8.5323e-07 -7.51668e-07)
(-0.0483972 4.88973e-07 -8.07944e-07)
(-0.0483997 8.6617e-07 -2.16264e-06)
(-0.0476168 3.16097e-07 -1.96177e-06)
(-0.0470973 3.52554e-07 -1.4699e-06)
(-0.0468394 4.82343e-07 -1.11266e-06)
(-0.0468393 7.87633e-07 -8.17026e-07)
(-0.0470971 8.67065e-07 -7.55495e-07)
(-0.0476166 9.28622e-07 -7.71979e-07)
(-0.0483996 4.63032e-07 -8.89377e-07)
(-0.0484026 7.64657e-07 -2.2154e-06)
(-0.0476201 2.19558e-07 -1.90275e-06)
(-0.0471007 2.51785e-07 -1.33456e-06)
(-0.0468429 4.43676e-07 -9.47321e-07)
(-0.0468428 7.87249e-07 -6.4968e-07)
(-0.0471004 8.7006e-07 -6.34724e-07)
(-0.0476196 8.92579e-07 -6.68681e-07)
(-0.0484021 3.93687e-07 -7.76359e-07)
(-0.0484051 6.14143e-07 -1.99566e-06)
(-0.047623 1.37226e-07 -1.61666e-06)
(-0.0471038 1.95995e-07 -1.04934e-06)
(-0.046846 4.27207e-07 -6.84951e-07)
(-0.0468458 7.96227e-07 -4.22045e-07)
(-0.0471033 9.13467e-07 -4.74789e-07)
(-0.0476222 9.39655e-07 -5.5965e-07)
(-0.0484042 4.28332e-07 -7.43919e-07)
(-0.0484068 2.11491e-07 -1.37185e-06)
(-0.0476249 -2.9685e-08 -9.31884e-07)
(-0.0471059 1.08319e-07 -4.94165e-07)
(-0.0468482 3.45518e-07 -2.54961e-07)
(-0.046848 6.79569e-07 -1.01893e-07)
(-0.0471055 8.05205e-07 -2.37679e-07)
(-0.0476243 8.19817e-07 -3.52642e-07)
(-0.0484059 4.12338e-07 -5.28289e-07)
(-0.0484077 -4.16044e-08 -7.65621e-07)
(-0.0476259 -1.39283e-07 -3.0264e-07)
(-0.0471069 -3.07042e-09 -1.35726e-09)
(-0.0468492 1.65021e-07 1.39895e-07)
(-0.0468492 3.63432e-07 2.13272e-07)
(-0.0471067 4.78073e-07 8.96814e-08)
(-0.0476254 5.00166e-07 -7.03383e-08)
(-0.048407 3.02692e-07 -2.02013e-07)
(-0.0484073 -6.69801e-07 1.08679e-07)
(-0.0476253 -4.84824e-07 7.11283e-07)
(-0.0471062 -2.78694e-07 7.77109e-07)
(-0.0468485 -1.80202e-07 7.26628e-07)
(-0.0468485 -1.48875e-07 6.34178e-07)
(-0.0471062 -1.56783e-07 5.44299e-07)
(-0.0476251 -1.58049e-07 5.09069e-07)
(-0.0484067 1.22282e-07 4.4597e-07)
(-0.0484051 -1.00814e-06 8.47857e-07)
(-0.0476227 -6.73692e-07 1.51609e-06)
(-0.0471035 -5.41988e-07 1.40034e-06)
(-0.0468458 -5.59994e-07 1.20974e-06)
(-0.0468458 -7.28641e-07 9.8883e-07)
(-0.0471037 -7.73001e-07 8.95926e-07)
(-0.0476228 -8.358e-07 8.92609e-07)
(-0.0484049 -1.39803e-07 1.01567e-06)
(-0.0484016 -1.44335e-06 1.71934e-06)
(-0.0476185 -8.85592e-07 2.41368e-06)
(-0.0470989 -8.12605e-07 2.03797e-06)
(-0.0468409 -9.66412e-07 1.66419e-06)
(-0.0468411 -1.36379e-06 1.27452e-06)
(-0.0470992 -1.53302e-06 1.19545e-06)
(-0.0476188 -1.66752e-06 1.30188e-06)
(-0.0484017 -4.6351e-07 1.65433e-06)
(-0.0483968 -1.73097e-06 2.4222e-06)
(-0.0476126 -1.06673e-06 3.09448e-06)
(-0.0470924 -1.10763e-06 2.5364e-06)
(-0.0468342 -1.39109e-06 2.03728e-06)
(-0.0468343 -1.98532e-06 1.52062e-06)
(-0.0470927 -2.24537e-06 1.48515e-06)
(-0.047613 -2.42372e-06 1.64988e-06)
(-0.048397 -8.29903e-07 2.17174e-06)
(-0.0483907 -2.13752e-06 3.25985e-06)
(-0.0476052 -1.27156e-06 3.89589e-06)
(-0.0470841 -1.33955e-06 3.10583e-06)
(-0.0468255 -1.73963e-06 2.41244e-06)
(-0.0468256 -2.52252e-06 1.73472e-06)
(-0.0470843 -2.91868e-06 1.68252e-06)
(-0.0476055 -3.1601e-06 1.94633e-06)
(-0.0483908 -1.17801e-06 2.66188e-06)
(-0.0483834 -2.3512e-06 3.98165e-06)
(-0.0475963 -1.34251e-06 4.50464e-06)
(-0.0470743 -1.46768e-06 3.50773e-06)
(-0.0468153 -1.99732e-06 2.64761e-06)
(-0.0468155 -2.93966e-06 1.84377e-06)
(-0.0470746 -3.44776e-06 1.79966e-06)
(-0.0475966 -3.75487e-06 2.0984e-06)
(-0.0483835 -1.53871e-06 2.95518e-06)
(-0.0483754 -2.40684e-06 4.69758e-06)
(-0.0475865 -1.32843e-06 4.95951e-06)
(-0.0470635 -1.55177e-06 3.76174e-06)
(-0.0468041 -2.21719e-06 2.77438e-06)
(-0.0468042 -3.31006e-06 1.87547e-06)
(-0.0470638 -3.9463e-06 1.84829e-06)
(-0.0475868 -4.31965e-06 2.23548e-06)
(-0.0483755 -1.87364e-06 3.25917e-06)
(-0.0483669 -2.39981e-06 5.48189e-06)
(-0.0475762 -1.1928e-06 5.32979e-06)
(-0.0470521 -1.50826e-06 3.89407e-06)
(-0.0467922 -2.2915e-06 2.7779e-06)
(-0.0467923 -3.49118e-06 1.80806e-06)
(-0.0470523 -4.19372e-06 1.81345e-06)
(-0.0475764 -4.60463e-06 2.20161e-06)
(-0.0483669 -2.12072e-06 3.29618e-06)
(-0.0483584 -2.26239e-06 6.2336e-06)
(-0.0475657 -9.59212e-07 5.49603e-06)
(-0.0470406 -1.36054e-06 3.8262e-06)
(-0.0467803 -2.23336e-06 2.60724e-06)
(-0.0467804 -3.50782e-06 1.6112e-06)
(-0.0470409 -4.23633e-06 1.63553e-06)
(-0.047566 -4.65146e-06 2.0397e-06)
(-0.0483583 -2.23375e-06 3.16198e-06)
(-0.0483502 -2.02765e-06 6.82898e-06)
(-0.0475559 -6.00298e-07 5.39829e-06)
(-0.0470298 -1.12339e-06 3.52645e-06)
(-0.0467691 -2.02891e-06 2.21923e-06)
(-0.0467693 -3.32757e-06 1.24249e-06)
(-0.0470302 -3.99035e-06 1.30414e-06)
(-0.0475564 -4.33204e-06 1.65203e-06)
(-0.0483504 -2.2076e-06 2.68642e-06)
(-0.0483427 -1.57517e-06 7.06703e-06)
(-0.047547 -2.00071e-07 4.94919e-06)
(-0.0470202 -8.10897e-07 2.89853e-06)
(-0.0467593 -1.78e-06 1.57032e-06)
(-0.0467597 -3.09363e-06 6.91405e-07)
(-0.0470211 -3.68033e-06 8.55489e-07)
(-0.0475482 -3.86328e-06 1.18869e-06)
(-0.0483438 -2.05093e-06 2.09795e-06)
(-0.0483364 -8.06572e-07 6.76543e-06)
(-0.0475396 2.41925e-07 4.02187e-06)
(-0.0470124 -4.47339e-07 1.80818e-06)
(-0.0467515 -1.56776e-06 6.04042e-07)
(-0.0467519 -2.85064e-06 -1.0216e-07)
(-0.0470137 -3.41509e-06 2.78596e-07)
(-0.0475416 -3.45072e-06 7.85726e-07)
(-0.0483384 -1.83595e-06 1.63723e-06)
(-0.0483321 2.67814e-07 5.86758e-06)
(-0.0475345 8.47007e-07 2.49351e-06)
(-0.0470071 -2.31413e-07 3.17825e-07)
(-0.0467462 -1.4253e-06 -5.40482e-07)
(-0.0467466 -2.53034e-06 -1.03088e-06)
(-0.0470085 -3.09058e-06 -3.87492e-07)
(-0.0475366 -3.08364e-06 5.07421e-07)
(-0.0483341 -1.41561e-06 1.36396e-06)
(-0.0483303 1.66283e-06 4.4123e-06)
(-0.0475328 1.74588e-06 3.60091e-07)
(-0.0470054 1.77659e-07 -1.55889e-06)
(-0.0467443 -9.53898e-07 -1.95963e-06)
(-0.0467446 -1.92841e-06 -1.93288e-06)
(-0.0470062 -2.25786e-06 -1.05393e-06)
(-0.0475341 -2.11639e-06 -1.15855e-08)
(-0.0483318 -4.86734e-07 7.99657e-07)
(-0.0483329 3.49975e-06 2.27385e-06)
(-0.047536 2.67736e-06 -2.33533e-06)
(-0.0470085 7.77084e-07 -3.63511e-06)
(-0.0467471 -1.34882e-07 -3.45985e-06)
(-0.046747 -7.06528e-07 -2.89625e-06)
(-0.0470082 -4.52187e-07 -2.07167e-06)
(-0.0475359 3.30793e-08 -1.2344e-06)
(-0.0483332 1.09706e-06 -7.52049e-07)
(-0.0483398 4.59371e-06 3.37598e-07)
(-0.0475436 3.02893e-06 -4.28392e-06)
(-0.0470159 1.28513e-06 -4.79682e-06)
(-0.0467541 6.06114e-07 -4.09952e-06)
(-0.0467536 4.9965e-07 -3.20568e-06)
(-0.0470144 1.15536e-06 -2.34584e-06)
(-0.0475418 2.19185e-06 -1.77973e-06)
(-0.0483386 2.67624e-06 -2.32292e-06)
(-0.0483479 3.87508e-06 -7.38779e-07)
(-0.0475525 2.07299e-06 -4.21555e-06)
(-0.0470247 7.58931e-07 -3.95929e-06)
(-0.0467626 3.78266e-07 -3.0668e-06)
(-0.0467618 6.60199e-07 -2.13669e-06)
(-0.0470225 1.5249e-06 -1.44259e-06)
(-0.0475496 2.87957e-06 -1.33449e-06)
(-0.0483456 2.89577e-06 -2.46145e-06)
(-0.0483477 1.25519e-07 1.32669e-07)
(-0.0475527 -2.5043e-07 -7.17796e-07)
(-0.0470251 -4.44021e-07 -6.13244e-07)
(-0.0467628 -5.40414e-07 -3.62872e-07)
(-0.0467617 -4.84318e-07 -1.60901e-08)
(-0.0470222 -2.94017e-07 2.81166e-07)
(-0.0475488 2.97754e-07 6.86435e-07)
(-0.0483445 7.00398e-07 3.07297e-07)
)
;
    }
    procBoundary2to0
    {
        type            processor;
        value           uniform (0 0 0);
    }
    procBoundary2to1
    {
        type            processor;
        value           uniform (0 0 0);
    }
    procBoundary2to3
    {
        type            processor;
        value           uniform (0 0 0);
    }
}


// ************************************************************************* //
