/*--------------------------------*- C++ -*----------------------------------*\
| =========                 |                                                 |
| \\      /  F ield         | OpenFOAM: The Open Source CFD Toolbox           |
|  \\    /   O peration     | Version:  4.1                                   |
|   \\  /    A nd           | Web:      www.OpenFOAM.org                      |
|    \\/     M anipulation  |                                                 |
\*---------------------------------------------------------------------------*/
FoamFile
{
    version     2.0;
    format      ascii;
    class       pointVectorField;
    location    "0.0032";
    object      pointDisplacement_Next;
}
// * * * * * * * * * * * * * * * * * * * * * * * * * * * * * * * * * * * * * //

dimensions      [0 1 0 0 0 0 0];

internalField   uniform (0 0 0);

boundaryField
{
    inlet
    {
        type            fixedValue;
        value           uniform (0 0 0);
    }
    outlet
    {
        type            fixedValue;
        value           nonuniform 0();
    }
    mantle
    {
        type            fixedValue;
        value           nonuniform List<vector> 
416
(
(2.7129e-12 -1.6111e-11 4.8497e-17)
(6.7503e-06 -4.2978e-05 1.039e-10)
(6.7385e-06 -4.145e-05 7.8075e-06)
(5.7787e-09 -1.3215e-07 -5.8799e-08)
(6.7243e-06 -3.8216e-05 1.5786e-05)
(2.6419e-12 -1.3261e-11 5.1511e-12)
(6.7511e-06 -3.4735e-05 2.3656e-05)
(6.6468e-09 -4.5465e-08 1.3277e-07)
(6.7692e-06 -3.0235e-05 3.0235e-05)
(2.8171e-12 -1.3567e-11 1.3567e-11)
(6.751e-06 -2.3656e-05 3.4735e-05)
(6.649e-09 -1.3278e-07 4.5527e-08)
(6.7241e-06 -1.5786e-05 3.8215e-05)
(2.6418e-12 -5.1511e-12 1.326e-11)
(6.7383e-06 -7.8076e-06 4.1448e-05)
(5.7748e-09 5.8798e-08 1.3208e-07)
(6.7499e-06 -2.0812e-10 4.2974e-05)
(2.7128e-12 -7.8741e-17 1.611e-11)
(1.2055e-05 -7.9079e-05 1.3727e-10)
(1.2016e-05 -7.6018e-05 1.4459e-05)
(1.1987e-05 -7.0213e-05 2.902e-05)
(1.2022e-05 -6.3797e-05 4.3305e-05)
(1.2067e-05 -5.5632e-05 5.5632e-05)
(1.2022e-05 -4.3306e-05 6.3797e-05)
(1.1987e-05 -2.902e-05 7.0211e-05)
(1.2016e-05 -1.446e-05 7.6014e-05)
(1.2054e-05 -3.6758e-10 7.9074e-05)
(1.4692e-05 -9.7821e-05 1.0925e-10)
(1.4668e-05 -9.5305e-05 1.8595e-05)
(1.4642e-05 -8.904e-05 3.6848e-05)
(1.4634e-05 -8.0335e-05 5.4047e-05)
(1.4644e-05 -6.8886e-05 6.8885e-05)
(1.4634e-05 -5.4047e-05 8.0335e-05)
(1.4642e-05 -3.6848e-05 8.904e-05)
(1.4667e-05 -1.8595e-05 9.5303e-05)
(1.4692e-05 -3.3284e-10 9.7818e-05)
(1.4062e-05 -0.00010437 1.3591e-11)
(1.4058e-05 -0.00010265 2.0463e-05)
(1.4055e-05 -9.6787e-05 4.0105e-05)
(1.4004e-05 -8.6864e-05 5.8002e-05)
(1.3978e-05 -7.3575e-05 7.3574e-05)
(1.4004e-05 -5.8002e-05 8.6864e-05)
(1.4055e-05 -4.0105e-05 9.6787e-05)
(1.4058e-05 -2.0463e-05 0.00010265)
(1.4063e-05 -1.7876e-10 0.00010437)
(1.0373e-05 -0.0001076 -7.5276e-11)
(1.039e-05 -0.0001058 2.12e-05)
(1.0407e-05 -9.9877e-05 4.1399e-05)
(1.0375e-05 -8.9628e-05 5.9747e-05)
(1.0351e-05 -7.5901e-05 7.5901e-05)
(1.0375e-05 -5.9748e-05 8.9628e-05)
(1.0407e-05 -4.1399e-05 9.9876e-05)
(1.039e-05 -2.1199e-05 0.00010579)
(1.0373e-05 9.0013e-11 0.0001076)
(4.7406e-06 -0.00011076 -9.3973e-11)
(4.7796e-06 -0.00010873 2.1733e-05)
(4.8217e-06 -0.00010249 4.2476e-05)
(4.8194e-06 -9.2068e-05 6.1431e-05)
(4.8022e-06 -7.8128e-05 7.8127e-05)
(4.8195e-06 -6.1431e-05 9.2067e-05)
(4.8219e-06 -4.2476e-05 0.00010248)
(4.7798e-06 -2.1732e-05 0.00010872)
(4.7408e-06 2.6759e-10 0.00011076)
(-1.365e-06 -0.00011471 -1.075e-10)
(-1.3121e-06 -0.00011241 2.234e-05)
(-1.253e-06 -0.00010573 4.3812e-05)
(-1.2548e-06 -9.5054e-05 6.356e-05)
(-1.2819e-06 -8.0846e-05 8.0845e-05)
(-1.2548e-06 -6.356e-05 9.5053e-05)
(-1.2531e-06 -4.3811e-05 0.00010572)
(-1.3124e-06 -2.234e-05 0.00011241)
(-1.3654e-06 2.2241e-10 0.00011471)
(-6.6891e-06 -0.00011877 -2.5241e-10)
(-6.6339e-06 -0.00011625 2.3034e-05)
(-6.5912e-06 -0.00010916 4.5223e-05)
(-6.5902e-06 -9.8205e-05 6.5723e-05)
(-6.6263e-06 -8.3623e-05 8.3622e-05)
(-6.5903e-06 -6.5723e-05 9.8204e-05)
(-6.5916e-06 -4.5223e-05 0.00010916)
(-6.6347e-06 -2.3033e-05 0.00011625)
(-6.6901e-06 2.3745e-10 0.00011877)
(-1.0571e-05 -0.0001212 -2.2342e-10)
(-1.0566e-05 -0.00011854 2.34e-05)
(-1.0562e-05 -0.0001112 4.6037e-05)
(-1.0548e-05 -0.00010006 6.7023e-05)
(-1.0546e-05 -8.5304e-05 8.5304e-05)
(-1.0548e-05 -6.7023e-05 0.00010006)
(-1.0562e-05 -4.6037e-05 0.0001112)
(-1.0566e-05 -2.34e-05 0.00011854)
(-1.0572e-05 1.1012e-10 0.0001212)
(-1.3507e-05 -0.00011976 -4.4803e-10)
(-1.3565e-05 -0.00011705 2.3086e-05)
(-1.3606e-05 -0.00010976 4.5432e-05)
(-1.3575e-05 -9.8787e-05 6.6179e-05)
(-1.3519e-05 -8.4279e-05 8.428e-05)
(-1.3575e-05 -6.6178e-05 9.8787e-05)
(-1.3606e-05 -4.5432e-05 0.00010976)
(-1.3566e-05 -2.3086e-05 0.00011705)
(-1.3507e-05 3.1169e-10 0.00011976)
(-1.6332e-05 -0.00011274 -2.9569e-10)
(-1.6396e-05 -0.00011035 2.1851e-05)
(-1.6465e-05 -0.00010362 4.2915e-05)
(-1.6427e-05 -9.318e-05 6.2362e-05)
(-1.6376e-05 -7.934e-05 7.934e-05)
(-1.6427e-05 -6.2362e-05 9.318e-05)
(-1.6466e-05 -4.2915e-05 0.00010362)
(-1.6396e-05 -2.1851e-05 0.00011036)
(-1.6332e-05 3.3333e-10 0.00011274)
(-1.9376e-05 -0.0001016 1.4239e-10)
(-1.9447e-05 -9.9581e-05 1.98e-05)
(-1.953e-05 -9.364e-05 3.8821e-05)
(-1.9499e-05 -8.4142e-05 5.6269e-05)
(-1.9451e-05 -7.1522e-05 7.1522e-05)
(-1.95e-05 -5.6269e-05 8.4142e-05)
(-1.9531e-05 -3.8821e-05 9.3639e-05)
(-1.9447e-05 -1.9799e-05 9.9582e-05)
(-1.9377e-05 5.3451e-11 0.0001016)
(6.7383e-06 7.8073e-06 4.1447e-05)
(5.7771e-09 -5.8807e-08 1.3207e-07)
(6.7241e-06 1.5786e-05 3.8215e-05)
(2.6417e-12 5.1515e-12 1.3261e-11)
(6.751e-06 2.3656e-05 3.4735e-05)
(6.6462e-09 1.3278e-07 4.552e-08)
(6.7691e-06 3.0235e-05 3.0235e-05)
(2.8173e-12 1.3567e-11 1.3567e-11)
(6.751e-06 3.4735e-05 2.3656e-05)
(6.645e-09 4.5498e-08 1.3279e-07)
(6.7242e-06 3.8216e-05 1.5786e-05)
(2.6418e-12 1.3261e-11 5.1509e-12)
(6.7384e-06 4.145e-05 7.8076e-06)
(5.78e-09 1.3212e-07 -5.88e-08)
(6.7501e-06 4.2976e-05 -1.0463e-10)
(2.7129e-12 1.611e-11 -1.1565e-17)
(1.2016e-05 1.4459e-05 7.6014e-05)
(1.1987e-05 2.902e-05 7.021e-05)
(1.2022e-05 4.3306e-05 6.3796e-05)
(1.2067e-05 5.5632e-05 5.5632e-05)
(1.2022e-05 6.3798e-05 4.3306e-05)
(1.1987e-05 7.0213e-05 2.9021e-05)
(1.2016e-05 7.6018e-05 1.446e-05)
(1.2054e-05 7.9078e-05 -2.7001e-10)
(1.4668e-05 1.8595e-05 9.5302e-05)
(1.4642e-05 3.6848e-05 8.9038e-05)
(1.4635e-05 5.4046e-05 8.0334e-05)
(1.4644e-05 6.8885e-05 6.8885e-05)
(1.4635e-05 8.0336e-05 5.4047e-05)
(1.4642e-05 8.9042e-05 3.6849e-05)
(1.4667e-05 9.5307e-05 1.8596e-05)
(1.4692e-05 9.7823e-05 -3.4517e-10)
(1.4058e-05 2.0463e-05 0.00010265)
(1.4056e-05 4.0104e-05 9.6785e-05)
(1.4004e-05 5.8001e-05 8.6862e-05)
(1.3978e-05 7.3574e-05 7.3573e-05)
(1.4004e-05 8.6865e-05 5.8002e-05)
(1.4055e-05 9.6791e-05 4.0106e-05)
(1.4058e-05 0.00010266 2.0464e-05)
(1.4062e-05 0.00010438 -4.19e-10)
(1.039e-05 2.1199e-05 0.00010579)
(1.0407e-05 4.1398e-05 9.9874e-05)
(1.0375e-05 5.9746e-05 8.9626e-05)
(1.0351e-05 7.5901e-05 7.59e-05)
(1.0375e-05 8.963e-05 5.9748e-05)
(1.0407e-05 9.9883e-05 4.14e-05)
(1.039e-05 0.0001058 2.12e-05)
(1.0373e-05 0.00010761 -3.2844e-10)
(4.7798e-06 2.1733e-05 0.00010872)
(4.8218e-06 4.2475e-05 0.00010248)
(4.8194e-06 6.143e-05 9.2066e-05)
(4.8022e-06 7.8128e-05 7.8128e-05)
(4.8195e-06 9.2071e-05 6.1432e-05)
(4.8221e-06 0.00010249 4.2478e-05)
(4.7802e-06 0.00010873 2.1734e-05)
(4.7412e-06 0.00011078 -2.7839e-10)
(-1.3125e-06 2.234e-05 0.00011241)
(-1.2533e-06 4.3811e-05 0.00010572)
(-1.2551e-06 6.3561e-05 9.5054e-05)
(-1.2822e-06 8.0848e-05 8.0848e-05)
(-1.2548e-06 9.5058e-05 6.3563e-05)
(-1.2527e-06 0.00010573 4.3813e-05)
(-1.3116e-06 0.00011242 2.2341e-05)
(-1.3643e-06 0.00011472 -3.277e-10)
(-6.6347e-06 2.3033e-05 0.00011625)
(-6.5917e-06 4.5223e-05 0.00010916)
(-6.5905e-06 6.5725e-05 9.8206e-05)
(-6.6265e-06 8.3627e-05 8.3626e-05)
(-6.5902e-06 9.8209e-05 6.5726e-05)
(-6.5911e-06 0.00010917 4.5225e-05)
(-6.6336e-06 0.00011626 2.3034e-05)
(-6.6886e-06 0.00011878 -3.7065e-10)
(-1.0566e-05 2.3401e-05 0.00011854)
(-1.0562e-05 4.6038e-05 0.0001112)
(-1.0548e-05 6.7026e-05 0.00010006)
(-1.0546e-05 8.5308e-05 8.5307e-05)
(-1.0548e-05 0.00010007 6.7026e-05)
(-1.0562e-05 0.00011121 4.6039e-05)
(-1.0565e-05 0.00011854 2.3401e-05)
(-1.0571e-05 0.0001212 -2.0008e-10)
(-1.3566e-05 2.3087e-05 0.00011705)
(-1.3606e-05 4.5433e-05 0.00010977)
(-1.3575e-05 6.6181e-05 9.8789e-05)
(-1.3519e-05 8.4283e-05 8.4282e-05)
(-1.3575e-05 9.879e-05 6.618e-05)
(-1.3606e-05 0.00010977 4.5433e-05)
(-1.3565e-05 0.00011705 2.3087e-05)
(-1.3507e-05 0.00011976 -2.8548e-10)
(-1.6396e-05 2.1851e-05 0.00011036)
(-1.6466e-05 4.2916e-05 0.00010362)
(-1.6427e-05 6.2364e-05 9.3182e-05)
(-1.6376e-05 7.9342e-05 7.9341e-05)
(-1.6427e-05 9.3182e-05 6.2363e-05)
(-1.6466e-05 0.00010362 4.2916e-05)
(-1.6396e-05 0.00011035 2.1851e-05)
(-1.6332e-05 0.00011274 -5.8461e-11)
(-1.9447e-05 1.98e-05 9.9584e-05)
(-1.9531e-05 3.8822e-05 9.3642e-05)
(-1.95e-05 5.627e-05 8.4144e-05)
(-1.9451e-05 7.1523e-05 7.1523e-05)
(-1.9499e-05 8.4143e-05 5.627e-05)
(-1.9531e-05 9.364e-05 3.8821e-05)
(-1.9447e-05 9.9581e-05 1.9799e-05)
(-1.9377e-05 0.0001016 -3.9371e-11)
(6.7385e-06 4.1449e-05 -7.8076e-06)
(5.7772e-09 1.3211e-07 5.8784e-08)
(6.7243e-06 3.8215e-05 -1.5786e-05)
(2.6419e-12 1.326e-11 -5.1505e-12)
(6.7512e-06 3.4734e-05 -2.3655e-05)
(6.6511e-09 4.548e-08 -1.3278e-07)
(6.7693e-06 3.0233e-05 -3.0234e-05)
(2.8172e-12 1.3566e-11 -1.3567e-11)
(6.7511e-06 2.3655e-05 -3.4734e-05)
(6.65e-09 1.3276e-07 -4.5464e-08)
(6.7242e-06 1.5785e-05 -3.8214e-05)
(2.6419e-12 5.1513e-12 -1.3261e-11)
(6.7384e-06 7.8071e-06 -4.1448e-05)
(5.7741e-09 -5.8796e-08 -1.3213e-07)
(6.75e-06 1.6775e-10 -4.2976e-05)
(2.7128e-12 3.684e-17 -1.611e-11)
(1.2016e-05 7.6016e-05 -1.446e-05)
(1.1987e-05 7.0211e-05 -2.902e-05)
(1.2022e-05 6.3795e-05 -4.3304e-05)
(1.2067e-05 5.563e-05 -5.563e-05)
(1.2022e-05 4.3303e-05 -6.3794e-05)
(1.1987e-05 2.9019e-05 -7.0209e-05)
(1.2016e-05 1.4459e-05 -7.6014e-05)
(1.2054e-05 2.8144e-10 -7.9075e-05)
(1.4667e-05 9.5305e-05 -1.8596e-05)
(1.4642e-05 8.904e-05 -3.6848e-05)
(1.4635e-05 8.0333e-05 -5.4046e-05)
(1.4644e-05 6.8883e-05 -6.8883e-05)
(1.4634e-05 5.4045e-05 -8.0331e-05)
(1.4642e-05 3.6846e-05 -8.9036e-05)
(1.4668e-05 1.8594e-05 -9.5301e-05)
(1.4692e-05 1.7965e-10 -9.7819e-05)
(1.4058e-05 0.00010266 -2.0464e-05)
(1.4055e-05 9.6788e-05 -4.0106e-05)
(1.4004e-05 8.6863e-05 -5.8002e-05)
(1.3978e-05 7.3573e-05 -7.3573e-05)
(1.4004e-05 5.8e-05 -8.686e-05)
(1.4055e-05 4.0103e-05 -9.6782e-05)
(1.4058e-05 2.0462e-05 -0.00010265)
(1.4063e-05 7.318e-11 -0.00010437)
(1.039e-05 0.0001058 -2.1201e-05)
(1.0407e-05 9.9881e-05 -4.14e-05)
(1.0375e-05 8.9629e-05 -5.9749e-05)
(1.0351e-05 7.5901e-05 -7.5901e-05)
(1.0375e-05 5.9747e-05 -8.9626e-05)
(1.0407e-05 4.1398e-05 -9.9873e-05)
(1.039e-05 2.1199e-05 -0.00010579)
(1.0373e-05 1.2217e-10 -0.0001076)
(4.7802e-06 0.00010873 -2.1734e-05)
(4.8221e-06 0.00010249 -4.2478e-05)
(4.8196e-06 9.207e-05 -6.1433e-05)
(4.8023e-06 7.8129e-05 -7.8129e-05)
(4.8196e-06 6.1431e-05 -9.2067e-05)
(4.8221e-06 4.2476e-05 -0.00010248)
(4.7802e-06 2.1733e-05 -0.00010872)
(4.7414e-06 2.7009e-10 -0.00011076)
(-1.3115e-06 0.00011242 -2.2341e-05)
(-1.2525e-06 0.00010573 -4.3813e-05)
(-1.2544e-06 9.5056e-05 -6.3563e-05)
(-1.2816e-06 8.0848e-05 -8.0848e-05)
(-1.2545e-06 6.3561e-05 -9.5055e-05)
(-1.2527e-06 4.3812e-05 -0.00010573)
(-1.3119e-06 2.234e-05 -0.00011241)
(-1.3648e-06 2.9539e-10 -0.00011471)
(-6.6335e-06 0.00011626 -2.3035e-05)
(-6.5908e-06 0.00010916 -4.5224e-05)
(-6.5897e-06 9.8207e-05 -6.5725e-05)
(-6.6257e-06 8.3625e-05 -8.3625e-05)
(-6.5897e-06 6.5725e-05 -9.8207e-05)
(-6.5911e-06 4.5224e-05 -0.00010916)
(-6.6341e-06 2.3034e-05 -0.00011625)
(-6.6894e-06 2.5931e-10 -0.00011877)
(-1.0565e-05 0.00011854 -2.3401e-05)
(-1.0561e-05 0.00011121 -4.6038e-05)
(-1.0547e-05 0.00010006 -6.7024e-05)
(-1.0545e-05 8.5306e-05 -8.5305e-05)
(-1.0547e-05 6.7025e-05 -0.00010006)
(-1.0561e-05 4.6038e-05 -0.00011121)
(-1.0566e-05 2.3401e-05 -0.00011854)
(-1.0572e-05 1.8345e-10 -0.0001212)
(-1.3565e-05 0.00011705 -2.3087e-05)
(-1.3606e-05 0.00010976 -4.5433e-05)
(-1.3574e-05 9.8787e-05 -6.6179e-05)
(-1.3519e-05 8.428e-05 -8.428e-05)
(-1.3574e-05 6.6179e-05 -9.8787e-05)
(-1.3606e-05 4.5432e-05 -0.00010976)
(-1.3565e-05 2.3087e-05 -0.00011705)
(-1.3506e-05 3.4258e-10 -0.00011976)
(-1.6396e-05 0.00011035 -2.1851e-05)
(-1.6465e-05 0.00010362 -4.2915e-05)
(-1.6427e-05 9.3181e-05 -6.2362e-05)
(-1.6375e-05 7.934e-05 -7.934e-05)
(-1.6426e-05 6.2362e-05 -9.318e-05)
(-1.6465e-05 4.2915e-05 -0.00010362)
(-1.6396e-05 2.1851e-05 -0.00011035)
(-1.6331e-05 3.6433e-10 -0.00011274)
(-1.9447e-05 9.9581e-05 -1.98e-05)
(-1.9531e-05 9.364e-05 -3.8821e-05)
(-1.95e-05 8.4143e-05 -5.627e-05)
(-1.9451e-05 7.1522e-05 -7.1522e-05)
(-1.9499e-05 5.6268e-05 -8.4141e-05)
(-1.953e-05 3.8821e-05 -9.3637e-05)
(-1.9447e-05 1.9799e-05 -9.9579e-05)
(-1.9376e-05 1.7268e-10 -0.0001016)
(6.7384e-06 -7.8069e-06 -4.1448e-05)
(5.7739e-09 5.8804e-08 -1.3213e-07)
(6.7243e-06 -1.5785e-05 -3.8214e-05)
(2.6419e-12 -5.151e-12 -1.3261e-11)
(6.7513e-06 -2.3655e-05 -3.4733e-05)
(6.6519e-09 -1.3278e-07 -4.5467e-08)
(6.7695e-06 -3.0233e-05 -3.0233e-05)
(2.8172e-12 -1.3565e-11 -1.3566e-11)
(6.7514e-06 -3.4734e-05 -2.3655e-05)
(6.6519e-09 -4.5452e-08 -1.3278e-07)
(6.7245e-06 -3.8215e-05 -1.5785e-05)
(2.642e-12 -1.3262e-11 -5.1508e-12)
(6.7386e-06 -4.145e-05 -7.8072e-06)
(5.7777e-09 -1.3215e-07 5.8794e-08)
(1.2016e-05 -1.4458e-05 -7.6014e-05)
(1.1987e-05 -2.9018e-05 -7.0209e-05)
(1.2022e-05 -4.3303e-05 -6.3793e-05)
(1.2067e-05 -5.5628e-05 -5.5629e-05)
(1.2022e-05 -6.3794e-05 -4.3303e-05)
(1.1987e-05 -7.021e-05 -2.9019e-05)
(1.2017e-05 -7.6017e-05 -1.4459e-05)
(1.4668e-05 -1.8594e-05 -9.5301e-05)
(1.4642e-05 -3.6845e-05 -8.9036e-05)
(1.4635e-05 -5.4043e-05 -8.033e-05)
(1.4644e-05 -6.8881e-05 -6.8881e-05)
(1.4635e-05 -8.033e-05 -5.4044e-05)
(1.4642e-05 -8.9037e-05 -3.6846e-05)
(1.4668e-05 -9.5303e-05 -1.8595e-05)
(1.4058e-05 -2.0462e-05 -0.00010265)
(1.4055e-05 -4.0103e-05 -9.6781e-05)
(1.4004e-05 -5.7998e-05 -8.6858e-05)
(1.3978e-05 -7.357e-05 -7.3569e-05)
(1.4004e-05 -8.6858e-05 -5.7999e-05)
(1.4055e-05 -9.6783e-05 -4.0104e-05)
(1.4058e-05 -0.00010265 -2.0463e-05)
(1.039e-05 -2.1199e-05 -0.00010579)
(1.0407e-05 -4.1397e-05 -9.9872e-05)
(1.0375e-05 -5.9745e-05 -8.9623e-05)
(1.0351e-05 -7.5898e-05 -7.5898e-05)
(1.0375e-05 -8.9624e-05 -5.9746e-05)
(1.0407e-05 -9.9873e-05 -4.1398e-05)
(1.039e-05 -0.00010579 -2.1199e-05)
(4.7804e-06 -2.1732e-05 -0.00010872)
(4.8223e-06 -4.2475e-05 -0.00010248)
(4.8198e-06 -6.1429e-05 -9.2064e-05)
(4.8025e-06 -7.8126e-05 -7.8126e-05)
(4.8196e-06 -9.2065e-05 -6.143e-05)
(4.8219e-06 -0.00010248 -4.2476e-05)
(4.7797e-06 -0.00010872 -2.1733e-05)
(-1.3118e-06 -2.2339e-05 -0.00011241)
(-1.2525e-06 -4.381e-05 -0.00010572)
(-1.2542e-06 -6.3559e-05 -9.5051e-05)
(-1.2814e-06 -8.0844e-05 -8.0845e-05)
(-1.2544e-06 -9.5051e-05 -6.3559e-05)
(-1.2527e-06 -0.00010572 -4.3811e-05)
(-1.312e-06 -0.00011241 -2.234e-05)
(-6.6341e-06 -2.3033e-05 -0.00011625)
(-6.591e-06 -4.5222e-05 -0.00010916)
(-6.5897e-06 -6.5722e-05 -9.8203e-05)
(-6.6257e-06 -8.3621e-05 -8.3622e-05)
(-6.5897e-06 -9.8202e-05 -6.5722e-05)
(-6.591e-06 -0.00010916 -4.5222e-05)
(-6.6338e-06 -0.00011625 -2.3033e-05)
(-1.0566e-05 -2.34e-05 -0.00011854)
(-1.0561e-05 -4.6036e-05 -0.0001112)
(-1.0547e-05 -6.7023e-05 -0.00010006)
(-1.0546e-05 -8.5303e-05 -8.5303e-05)
(-1.0547e-05 -0.00010006 -6.7022e-05)
(-1.0561e-05 -0.0001112 -4.6036e-05)
(-1.0565e-05 -0.00011854 -2.34e-05)
(-1.3565e-05 -2.3086e-05 -0.00011705)
(-1.3606e-05 -4.5432e-05 -0.00010976)
(-1.3574e-05 -6.6178e-05 -9.8787e-05)
(-1.3519e-05 -8.428e-05 -8.4279e-05)
(-1.3575e-05 -9.8786e-05 -6.6178e-05)
(-1.3606e-05 -0.00010976 -4.5432e-05)
(-1.3565e-05 -0.00011705 -2.3086e-05)
(-1.6396e-05 -2.185e-05 -0.00011035)
(-1.6465e-05 -4.2915e-05 -0.00010362)
(-1.6427e-05 -6.2362e-05 -9.318e-05)
(-1.6375e-05 -7.934e-05 -7.934e-05)
(-1.6427e-05 -9.318e-05 -6.2362e-05)
(-1.6465e-05 -0.00010362 -4.2915e-05)
(-1.6396e-05 -0.00011035 -2.1851e-05)
(-1.9447e-05 -1.9799e-05 -9.9579e-05)
(-1.953e-05 -3.8821e-05 -9.3638e-05)
(-1.9499e-05 -5.6269e-05 -8.4142e-05)
(-1.945e-05 -7.1522e-05 -7.1522e-05)
(-1.9499e-05 -8.4142e-05 -5.6269e-05)
(-1.953e-05 -9.3639e-05 -3.8821e-05)
(-1.9447e-05 -9.958e-05 -1.9799e-05)
)
;
    }
    procBoundary0to1
    {
        type            processor;
    }
}


// ************************************************************************* //
