/*--------------------------------*- C++ -*----------------------------------*\
| =========                 |                                                 |
| \\      /  F ield         | OpenFOAM: The Open Source CFD Toolbox           |
|  \\    /   O peration     | Version:  4.1                                   |
|   \\  /    A nd           | Web:      www.OpenFOAM.org                      |
|    \\/     M anipulation  |                                                 |
\*---------------------------------------------------------------------------*/
FoamFile
{
    version     2.0;
    format      ascii;
    class       surfaceVectorField;
    location    "0.0032";
    object      Uf;
}
// * * * * * * * * * * * * * * * * * * * * * * * * * * * * * * * * * * * * * //

dimensions      [0 1 -1 0 0 0 0];

internalField   nonuniform List<vector> 
4288
(
(0.21656 -0.017299 9.975e-07)
(0.20686 -0.018993 -0.00069579)
(0.20686 -0.018993 0.00069635)
(0.20936 -0.02487 0.00032407)
(0.20936 -0.024869 -0.00032227)
(0.22941 -0.0097343 1.6258e-06)
(0.22208 -0.013682 -0.0016882)
(0.22208 -0.013682 0.0016908)
(0.22525 -0.018689 0.00067472)
(0.22525 -0.018689 -0.00067214)
(0.23632 -0.0020475 2.3345e-06)
(0.23202 -0.0072893 -0.0025213)
(0.23202 -0.0072893 0.0025254)
(0.23533 -0.010878 0.0011065)
(0.23533 -0.010876 -0.001101)
(0.23929 0.0040418 3.0242e-06)
(0.23706 -0.0013511 -0.0025682)
(0.23705 -0.0013514 0.0025747)
(0.23994 -0.003286 0.0015924)
(0.23994 -0.0032868 -0.0015874)
(0.23718 0.0087178 3.6207e-06)
(0.23752 0.0040804 -0.0013279)
(0.23751 0.0040793 0.0013361)
(0.23999 0.0039545 0.00057156)
(0.23999 0.0039543 -0.00056509)
(0.23059 0.012772 4.3609e-06)
(0.23326 0.0079308 -0.0013774)
(0.23326 0.0079298 0.001387)
(0.23553 0.0090617 0.00048765)
(0.23553 0.0090616 -0.0004797)
(0.22121 0.016387 5.2575e-06)
(0.22537 0.011253 -0.0014755)
(0.22537 0.011252 0.0014868)
(0.22747 0.013132 0.00047697)
(0.22747 0.013131 -0.00046781)
(0.20878 0.019491 5.9693e-06)
(0.21454 0.014116 -0.0017796)
(0.21454 0.014115 0.0017937)
(0.21645 0.016687 0.0005464)
(0.21645 0.016688 -0.00053341)
(0.19358 0.02084 6.094e-06)
(0.20088 0.016216 -0.0021774)
(0.20088 0.016214 0.0021933)
(0.20227 0.019461 0.00078667)
(0.20227 0.019463 -0.00077115)
(0.17783 0.017743 5.0611e-06)
(0.18581 0.015974 -0.002395)
(0.18581 0.015973 0.0024088)
(0.18606 0.019443 0.0010743)
(0.18606 0.019445 -0.0010598)
(0.1667 0.0086505 2.8993e-06)
(0.17375 0.010903 -0.0020056)
(0.17375 0.010902 0.0020152)
(0.17228 0.013372 0.001091)
(0.17227 0.013373 -0.0010817)
(0.16732 0.0013456 -0.00084054)
(0.16732 0.001345 0.00084454)
(0.16417 0.0014485 0.00062228)
(0.16417 0.0014479 -0.00061951)
(0.21499 -0.013418 -0.00040342)
(0.20571 -0.013973 0.002065)
(0.20595 -0.015207 0.00080741)
(0.20777 -0.018523 0.00040683)
(0.22762 -0.0086452 -0.001588)
(0.22061 -0.0099496 0.00068973)
(0.22092 -0.01154 0.00038896)
(0.22313 -0.013943 -0.00032108)
(0.23467 -0.0040047 -0.0024731)
(0.23047 -0.0053352 -0.00066086)
(0.23089 -0.0071727 -0.00014949)
(0.23301 -0.0084783 -0.00091341)
(0.23754 -1.8767e-05 -0.0025895)
(0.23544 -0.0013618 -0.0014436)
(0.23599 -0.003107 -0.00069511)
(0.23772 -0.0037959 -0.00073537)
(0.23536 0.0036675 -0.0023294)
(0.23585 0.0023239 -0.0014112)
(0.23635 0.0012235 -0.0011374)
(0.23791 0.0010822 -0.00080313)
(0.22914 0.0069008 -0.0023609)
(0.23182 0.0053571 -0.0019762)
(0.23216 0.0047339 -0.0011091)
(0.2337 0.0054476 -0.0010893)
(0.21987 0.0095892 -0.0026453)
(0.22418 0.0079647 -0.0025333)
(0.22446 0.0075595 -0.0013279)
(0.22592 0.0087907 -0.0015054)
(0.2077 0.011773 -0.0030214)
(0.21356 0.01022 -0.0031401)
(0.21382 0.0098243 -0.0014773)
(0.21515 0.01166 -0.0019125)
(0.19304 0.012648 -0.0032661)
(0.2003 0.011821 -0.0036751)
(0.20056 0.011309 -0.0015787)
(0.20147 0.013802 -0.002217)
(0.17817 0.010565 -0.0029477)
(0.18588 0.011626 -0.0037695)
(0.18613 0.010979 -0.0015171)
(0.18614 0.013743 -0.0021479)
(0.16796 0.0045951 -0.0018122)
(0.17456 0.0078647 -0.0028015)
(0.1747 0.0071623 -0.0010855)
(0.17346 0.0091902 -0.0014498)
(0.16869 0.00074606 -0.0007642)
(0.16873 0.00022106 -0.00037621)
(0.16633 0.00032238 -0.00023684)
(0.21384 -0.010778 0.0028879)
(0.205 -0.01093 0.0048821)
(0.20506 -0.011909 0.0034045)
(0.20664 -0.014879 0.0050788)
(0.22625 -0.0069689 0.0012897)
(0.21969 -0.0077694 0.0030095)
(0.21975 -0.0089694 0.0024645)
(0.22169 -0.011074 0.0035443)
(0.23328 -0.0031535 -9.3437e-05)
(0.22945 -0.004181 0.00099408)
(0.2296 -0.0055004 0.0014386)
(0.2315 -0.0066009 0.0018867)
(0.23588 0.00032989 -0.00092014)
(0.23433 -0.0010747 -0.00053758)
(0.23457 -0.0022171 0.00060415)
(0.23624 -0.0025775 0.00065982)
(0.23396 0.0035123 -0.0015631)
(0.23476 0.0017121 -0.0015615)
(0.23496 0.0013061 -0.00011392)
(0.23652 0.0014504 -0.00040719)
(0.22803 0.0062137 -0.0023579)
(0.23091 0.0042476 -0.0026364)
(0.23104 0.004172 -0.00091412)
(0.23253 0.0051492 -0.0018542)
(0.21894 0.0084608 -0.0031644)
(0.22342 0.006388 -0.003642)
(0.22356 0.006425 -0.0015805)
(0.22492 0.0079803 -0.0029888)
(0.207 0.010188 -0.0038759)
(0.21296 0.0081885 -0.004591)
(0.21313 0.008248 -0.002172)
(0.2143 0.010361 -0.0039699)
(0.19289 0.010757 -0.00422)
(0.19998 0.0094228 -0.0053127)
(0.20025 0.0094364 -0.0026272)
(0.20096 0.012051 -0.0046764)
(0.17877 0.0088882 -0.0036461)
(0.18599 0.0092247 -0.0053076)
(0.18641 0.0091113 -0.0026364)
(0.18627 0.011841 -0.0046238)
(0.16917 0.0039478 -0.0017898)
(0.17513 0.0062255 -0.0037453)
(0.17563 0.0059651 -0.0017545)
(0.17438 0.0078961 -0.0030873)
(0.1696 0.0006291 -0.00066619)
(0.17012 0.0003651 -3.3834e-05)
(0.16789 0.00050993 -0.00014039)
(0.2133 -0.0078336 0.0050963)
(0.20477 -0.0076986 0.0077008)
(0.20462 -0.0088022 0.005904)
(0.20613 -0.011326 0.0077417)
(0.2256 -0.0048651 0.0028338)
(0.21939 -0.0052258 0.0052299)
(0.21918 -0.0065313 0.0042792)
(0.22104 -0.0082753 0.0054018)
(0.23262 -0.0019561 0.00069767)
(0.22912 -0.0024664 0.0024722)
(0.22897 -0.0039031 0.0024355)
(0.2308 -0.004749 0.0027553)
(0.23516 0.00051603 -0.00096973)
(0.23398 -0.00017987 0.00018744)
(0.23393 -0.0014838 0.00079714)
(0.23551 -0.0016625 0.00057659)
(0.2334 0.0026686 -0.0024136)
(0.23444 0.0016739 -0.0016653)
(0.23438 0.00094278 -0.00083044)
(0.23583 0.0013062 -0.0014299)
(0.22752 0.004566 -0.0037769)
(0.23065 0.0034171 -0.0034074)
(0.23055 0.0029344 -0.0022643)
(0.23193 0.0039208 -0.0033367)
(0.21848 0.006211 -0.0049744)
(0.22318 0.0049351 -0.0049254)
(0.22312 0.0046064 -0.0034569)
(0.22439 0.0060624 -0.0048881)
(0.20665 0.0075064 -0.0059465)
(0.21276 0.0062593 -0.0062502)
(0.21277 0.0059901 -0.0044511)
(0.21386 0.007924 -0.0062557)
(0.19273 0.0079761 -0.0063132)
(0.19986 0.0072014 -0.0071942)
(0.20004 0.0069047 -0.0051337)
(0.20069 0.0092599 -0.0072609)
(0.17892 0.0066432 -0.0053106)
(0.18599 0.007095 -0.0070905)
(0.18645 0.0067116 -0.0049984)
(0.18628 0.0091322 -0.0071364)
(0.16961 0.0029612 -0.0025365)
(0.17527 0.0048702 -0.0048678)
(0.17593 0.0044011 -0.0033238)
(0.17471 0.0060984 -0.0048172)
(0.16983 0.00064463 -0.00064368)
(0.1706 0.00021104 -0.00031772)
(0.16846 0.00033478 -0.00047167)
(0.2133 -0.0050929 0.0078366)
(0.205 -0.0048793 0.010933)
(0.20462 -0.0059013 0.0088044)
(0.20613 -0.007739 0.011327)
(0.2256 -0.0028285 0.0048701)
(0.21968 -0.0030046 0.0077736)
(0.21918 -0.0042747 0.0065354)
(0.22104 -0.0053974 0.0082786)
(0.23262 -0.00069054 0.0019628)
(0.22945 -0.0009875 0.0041868)
(0.22897 -0.0024293 0.0039091)
(0.2308 -0.0027494 0.0047541)
(0.23516 0.0009782 -0.00050791)
(0.23433 0.00054577 0.001082)
(0.23393 -0.00078935 0.0014914)
(0.23551 -0.00056932 0.0016694)
(0.2334 0.002423 -0.0026594)
(0.23476 0.0015704 -0.0017038)
(0.23438 0.00083912 -0.00093407)
(0.23583 0.001438 -0.0012981)
(0.22752 0.0037869 -0.0045565)
(0.23091 0.0026461 -0.0042385)
(0.23055 0.0022739 -0.002925)
(0.23193 0.0033452 -0.0039115)
(0.21848 0.0049843 -0.0062019)
(0.22342 0.0036519 -0.0063794)
(0.22312 0.0034666 -0.0045967)
(0.22439 0.0048964 -0.006053)
(0.20665 0.0059553 -0.0074987)
(0.21296 0.0046005 -0.008181)
(0.21277 0.00446 -0.0059812)
(0.21386 0.0062628 -0.0079155)
(0.19273 0.0063199 -0.0079709)
(0.19998 0.005321 -0.0094176)
(0.20004 0.0051409 -0.0068975)
(0.2007 0.0072662 -0.0092537)
(0.17892 0.0053148 -0.0066404)
(0.186 0.0053138 -0.0092221)
(0.18645 0.0050032 -0.006707)
(0.18628 0.0071395 -0.0091291)
(0.16961 0.0025386 -0.0029598)
(0.17514 0.0037488 -0.0062244)
(0.17593 0.0033266 -0.0043985)
(0.17471 0.0048188 -0.0060968)
(0.1696 0.00066749 -0.00062874)
(0.1706 0.00031871 -0.00021004)
(0.16847 0.00047213 -0.00033406)
(0.21384 -0.0028834 0.010781)
(0.20571 -0.0020608 0.013975)
(0.20506 -0.003401 0.011911)
(0.20664 -0.0050748 0.01488)
(0.22624 -0.0012835 0.0069739)
(0.22061 -0.00068369 0.009954)
(0.21975 -0.0024596 0.0089739)
(0.22168 -0.0035392 0.011077)
(0.23328 0.00010097 0.0031598)
(0.23047 0.00066792 0.0053411)
(0.2296 -0.0014322 0.0055064)
(0.2315 -0.0018804 0.0066062)
(0.23588 0.00092851 -0.0003226)
(0.23544 0.0014516 0.0013687)
(0.23457 -0.00059639 0.0022243)
(0.23624 -0.00065293 0.0025848)
(0.23396 0.0015718 -0.0035045)
(0.23585 0.0014194 -0.002316)
(0.23496 0.00012265 -0.0012987)
(0.23651 0.00041502 -0.0014426)
(0.22803 0.0023671 -0.0062061)
(0.23182 0.0019844 -0.0053498)
(0.23104 0.00092371 -0.0041642)
(0.23253 0.0018613 -0.0051401)
(0.21894 0.0031735 -0.0084542)
(0.22418 0.002542 -0.0079591)
(0.22356 0.00159 -0.0064165)
(0.22492 0.0029947 -0.0079704)
(0.207 0.0038844 -0.010183)
(0.21356 0.0031484 -0.010216)
(0.21313 0.0021802 -0.0082407)
(0.2143 0.0039737 -0.010352)
(0.19289 0.0042272 -0.010755)
(0.2003 0.0036832 -0.01182)
(0.20025 0.0026339 -0.0094307)
(0.20097 0.0046787 -0.012045)
(0.17877 0.0036512 -0.0088877)
(0.18588 0.0037758 -0.011627)
(0.18641 0.0026412 -0.0091079)
(0.18628 0.0046255 -0.011838)
(0.16917 0.0017923 -0.0039479)
(0.17456 0.0028058 -0.0078658)
(0.17563 0.0017572 -0.0059635)
(0.17439 0.0030881 -0.0078951)
(0.16869 0.00076598 -0.00074633)
(0.17012 3.4791e-05 -0.00036452)
(0.1679 0.00014088 -0.00050983)
(0.21498 0.00040902 0.013421)
(0.20686 0.0007014 0.018997)
(0.20595 -0.00080357 0.015211)
(0.20777 -0.00040219 0.018525)
(0.22761 0.0015945 0.0086501)
(0.22208 0.0016943 0.013686)
(0.22091 -0.00038391 0.011545)
(0.22312 0.000325 0.013948)
(0.23467 0.0024802 0.0040108)
(0.23202 0.0025276 0.007294)
(0.23088 0.00015572 0.0071789)
(0.23301 0.0009182 0.0084851)
(0.23753 0.0025969 2.5967e-05)
(0.23706 0.0025745 0.0013565)
(0.23599 0.00070279 0.0031138)
(0.23772 0.00074081 0.0038043)
(0.23536 0.0023373 -0.0036599)
(0.23751 0.0013345 -0.0040729)
(0.23635 0.0011469 -0.0012171)
(0.2379 0.0008116 -0.0010749)
(0.22914 0.0023695 -0.0068948)
(0.23326 0.0013846 -0.0079234)
(0.23216 0.0011195 -0.0047272)
(0.2337 0.0010988 -0.0054403)
(0.21987 0.0026538 -0.009586)
(0.22537 0.001483 -0.011248)
(0.22446 0.001338 -0.0075544)
(0.22592 0.001513 -0.0087844)
(0.2077 0.0030289 -0.011774)
(0.21454 0.0017875 -0.014115)
(0.21382 0.0014861 -0.0098203)
(0.21515 0.0019179 -0.011655)
(0.19305 0.0032731 -0.01265)
(0.20088 0.0021859 -0.016218)
(0.20057 0.0015852 -0.011307)
(0.20147 0.0022199 -0.0138)
(0.17817 0.0029536 -0.010567)
(0.18581 0.0024024 -0.015978)
(0.18613 0.001523 -0.010978)
(0.18614 0.0021506 -0.013743)
(0.16796 0.0018157 -0.0045964)
(0.17376 0.0020113 -0.010906)
(0.1747 0.0010891 -0.0071618)
(0.17346 0.001452 -0.0091913)
(0.16732 0.00084285 -0.0013465)
(0.16874 0.00037739 -0.00022059)
(0.16633 0.00023755 -0.00032243)
(0.21656 2.602e-06 0.0173)
(0.20685 -0.00069507 0.018996)
(0.20936 -0.00032199 0.024872)
(0.20936 0.00032893 0.024874)
(0.22941 2.7342e-06 0.0097363)
(0.22208 -0.0016878 0.013685)
(0.22525 -0.00067337 0.018693)
(0.22525 0.00067736 0.018691)
(0.23632 2.7249e-06 0.0020511)
(0.23202 -0.0025209 0.007293)
(0.23533 -0.0011033 0.010883)
(0.23533 0.001107 0.01088)
(0.23929 2.9674e-06 -0.0040356)
(0.23705 -0.0025676 0.0013551)
(0.23994 -0.0015874 0.0032914)
(0.23994 0.0015926 0.0032901)
(0.23718 3.3484e-06 -0.0087096)
(0.23751 -0.0013259 -0.0040747)
(0.23998 -0.00056283 -0.003948)
(0.23998 0.00057026 -0.0039488)
(0.23059 2.9877e-06 -0.012765)
(0.23326 -0.0013756 -0.0079252)
(0.23553 -0.00047688 -0.0090551)
(0.23553 0.00048619 -0.0090544)
(0.22121 1.8436e-06 -0.016385)
(0.22537 -0.0014773 -0.011249)
(0.22747 -0.00046746 -0.013128)
(0.22747 0.00047492 -0.013127)
(0.20878 5.5229e-07 -0.019494)
(0.21454 -0.0017841 -0.014116)
(0.21645 -0.00053785 -0.016688)
(0.21645 0.00054149 -0.016687)
(0.19358 -4.8459e-07 -0.020847)
(0.20088 -0.0021855 -0.016219)
(0.20227 -0.00077948 -0.019466)
(0.20227 0.00077992 -0.019466)
(0.17783 -9.6298e-07 -0.017751)
(0.18581 -0.0024039 -0.015978)
(0.18606 -0.00107 -0.019451)
(0.18606 0.0010691 -0.01945)
(0.1667 -8.786e-07 -0.0086556)
(0.17376 -0.0020133 -0.010906)
(0.17228 -0.0010895 -0.013378)
(0.17228 0.0010885 -0.013377)
(0.16732 -0.00084432 -0.0013465)
(0.16418 -0.00062259 -0.0014501)
(0.16418 0.00062192 -0.0014494)
(0.21498 -0.013417 0.00040497)
(0.20595 -0.015207 -0.00080689)
(0.2057 -0.013972 -0.0020644)
(0.20777 -0.018522 -0.00040668)
(0.22761 -0.0086445 0.0015913)
(0.22091 -0.01154 -0.00038612)
(0.2206 -0.0099489 -0.0006872)
(0.22312 -0.013942 0.00032381)
(0.23466 -0.0040043 0.0024785)
(0.23088 -0.0071723 0.00015435)
(0.23046 -0.005335 0.00066537)
(0.23301 -0.0084775 0.00091792)
(0.23753 -1.8749e-05 0.0025968)
(0.23599 -0.0031066 0.00070271)
(0.23543 -0.0013616 0.0014509)
(0.23772 -0.0037955 0.00074289)
(0.23535 0.0036671 0.0023383)
(0.23634 0.0012241 0.0011469)
(0.23584 0.0023234 0.0014203)
(0.2379 0.0010828 0.00081239)
(0.22913 0.0069002 0.0023717)
(0.23216 0.004734 0.0011206)
(0.23181 0.0053564 0.0019865)
(0.23369 0.0054477 0.0011004)
(0.21986 0.0095889 0.0026582)
(0.22446 0.0075603 0.0013422)
(0.22417 0.0079636 0.0025457)
(0.22591 0.0087909 0.0015183)
(0.20769 0.011774 0.0030359)
(0.21382 0.009825 0.0014931)
(0.21355 0.010219 0.0031544)
(0.21514 0.011661 0.0019283)
(0.19304 0.012649 0.0032806)
(0.20056 0.01131 0.001595)
(0.20029 0.011822 0.0036903)
(0.20146 0.013804 0.002234)
(0.17816 0.010565 0.0029593)
(0.18612 0.01098 0.0015319)
(0.18588 0.011627 0.003782)
(0.18613 0.013746 0.0021636)
(0.16795 0.0045949 0.0018189)
(0.1747 0.0071627 0.0010959)
(0.17455 0.0078653 0.0028098)
(0.17345 0.0091921 0.0014607)
(0.16873 0.00022092 0.00038071)
(0.16868 0.00074617 0.00076725)
(0.16633 0.00032302 0.00024142)
(0.21436 -0.011733 1.0025e-06)
(0.2053 -0.011888 0.001135)
(0.2053 -0.011888 -0.0011341)
(0.22693 -0.0082428 2.0978e-06)
(0.22006 -0.0089376 0.00089334)
(0.22005 -0.0089372 -0.00089016)
(0.23422 -0.0046494 3.3246e-06)
(0.23001 -0.0054545 0.00069272)
(0.23001 -0.0054542 -0.00068728)
(0.2371 -0.0011132 4.4133e-06)
(0.23513 -0.0021618 0.00064741)
(0.23512 -0.0021614 -0.00063916)
(0.2347 0.0023654 5.5394e-06)
(0.23546 0.0011022 0.00052141)
(0.23546 0.001103 -0.0005118)
(0.22865 0.0053079 6.7638e-06)
(0.23139 0.0038727 0.00010797)
(0.23139 0.0038729 -9.5187e-05)
(0.21945 0.0076254 7.619e-06)
(0.22384 0.0061841 -0.0001273)
(0.22384 0.0061844 0.00014207)
(0.2075 0.0093166 7.8785e-06)
(0.21339 0.0079939 -0.00036348)
(0.21338 0.0079944 0.0003796)
(0.19337 0.0098015 7.6878e-06)
(0.20051 0.009111 -0.0005462)
(0.2005 0.0091117 0.00056205)
(0.1792 0.0079066 6.4857e-06)
(0.18666 0.0087636 -0.00058559)
(0.18665 0.0087645 0.00060007)
(0.16955 0.0031161 3.9372e-06)
(0.17577 0.0056744 -0.00034835)
(0.17577 0.005675 0.00035819)
(0.17017 0.00016482 0.00015451)
(0.17017 0.00016532 -0.00015032)
(0.21338 -0.0091215 0.0020007)
(0.20468 -0.0089777 0.0035075)
(0.20447 -0.0090921 0.001163)
(0.22575 -0.0063118 0.0014233)
(0.21925 -0.0067387 0.0025849)
(0.21899 -0.0068122 0.00085845)
(0.23302 -0.0033668 0.00093852)
(0.22912 -0.0041425 0.0015824)
(0.22885 -0.0041132 0.0005236)
(0.23571 -0.00047176 0.00064062)
(0.23418 -0.0017254 0.00076958)
(0.23389 -0.0014789 0.00023579)
(0.23365 0.0022423 0.00025769)
(0.23458 0.00060875 4.079e-05)
(0.23427 0.0011768 6.4633e-05)
(0.22778 0.0045102 -0.00026425)
(0.23068 0.0027972 -0.00080445)
(0.2304 0.0033008 -0.0001379)
(0.21874 0.0063373 -0.0007135)
(0.22325 0.0045646 -0.0015341)
(0.22303 0.0050691 -0.00036331)
(0.20702 0.0076397 -0.0010663)
(0.21293 0.0059574 -0.0021461)
(0.21277 0.006452 -0.00055263)
(0.19336 0.0079788 -0.0012328)
(0.20031 0.0068231 -0.0025548)
(0.20025 0.0072832 -0.00068091)
(0.17987 0.0064507 -0.001013)
(0.18686 0.0065718 -0.0025278)
(0.18695 0.0069593 -0.00067885)
(0.17083 0.0026379 -0.00026601)
(0.17642 0.0042447 -0.0016432)
(0.17667 0.0045284 -0.00042456)
(0.17111 7.9703e-05 4.8262e-05)
(0.17147 0.00027213 8.8372e-05)
(0.21289 -0.0065513 0.0041373)
(0.20447 -0.0061326 0.0061352)
(0.20404 -0.0062946 0.0036309)
(0.22516 -0.004502 0.0028128)
(0.21898 -0.0045513 0.0045556)
(0.21843 -0.0046909 0.002676)
(0.23242 -0.0024058 0.0015092)
(0.22882 -0.0027574 0.0027634)
(0.22824 -0.0028209 0.0015805)
(0.23512 -0.00046782 0.00034643)
(0.23388 -0.0011504 0.001158)
(0.23328 -0.0010224 0.0005481)
(0.23319 0.0013563 -0.0008296)
(0.23432 0.00034433 -0.00033573)
(0.23373 0.00073218 -0.00047919)
(0.22736 0.0029783 -0.0019486)
(0.23046 0.0018505 -0.001841)
(0.22993 0.0021787 -0.0013873)
(0.21837 0.0043019 -0.0028506)
(0.22305 0.0030858 -0.0030761)
(0.22261 0.0033795 -0.0021328)
(0.20675 0.005263 -0.0035134)
(0.21278 0.0040757 -0.0040669)
(0.21244 0.0043401 -0.002727)
(0.19328 0.005543 -0.0037223)
(0.20023 0.0047083 -0.0047012)
(0.20006 0.0049275 -0.0030922)
(0.18008 0.0044859 -0.00303)
(0.18689 0.0045635 -0.0045585)
(0.18701 0.0047198 -0.0029599)
(0.17131 0.0017704 -0.0012283)
(0.17658 0.0029605 -0.0029576)
(0.17698 0.0030589 -0.0019401)
(0.17136 4.8607e-05 -4.7549e-05)
(0.17196 0.00012007 -0.00015971)
(0.21289 -0.0041337 0.0065547)
(0.20468 -0.0035045 0.0089802)
(0.20404 -0.0036282 0.0062972)
(0.22516 -0.0028075 0.0045072)
(0.21925 -0.0025803 0.0067431)
(0.21843 -0.0026716 0.0046953)
(0.23242 -0.0015024 0.0024126)
(0.22912 -0.0015763 0.0041485)
(0.22824 -0.0015743 0.0028269)
(0.23512 -0.00033828 0.00047582)
(0.23417 -0.00076197 0.0017329)
(0.23328 -0.00054013 0.00103)
(0.23319 0.00083866 -0.0013475)
(0.23458 -3.2287e-05 -0.0006008)
(0.23373 0.00048856 -0.00072358)
(0.22736 0.0019582 -0.002969)
(0.23068 0.00081401 -0.0027883)
(0.22993 0.0013976 -0.0021693)
(0.21837 0.0028599 -0.0042929)
(0.22325 0.0015437 -0.0045558)
(0.22261 0.0021434 -0.0033699)
(0.20675 0.0035214 -0.0052552)
(0.21294 0.002155 -0.0059492)
(0.21244 0.0027366 -0.0043313)
(0.19328 0.0037285 -0.0055371)
(0.20031 0.002562 -0.0068166)
(0.20006 0.0031 -0.0049202)
(0.18009 0.0030341 -0.0044822)
(0.18686 0.0025333 -0.0065675)
(0.18701 0.0029656 -0.0047148)
(0.17131 0.0012303 -0.0017686)
(0.17642 0.0016463 -0.0042424)
(0.17698 0.0019433 -0.0030561)
(0.17111 -4.7173e-05 -7.8828e-05)
(0.17196 0.00016083 -0.00011899)
(0.21338 -0.0019967 0.0091251)
(0.2053 -0.0011318 0.011891)
(0.20447 -0.0011601 0.0090949)
(0.22575 -0.0014179 0.0063171)
(0.22005 -0.00088872 0.0089424)
(0.21898 -0.00085393 0.0068167)
(0.23302 -0.00093168 0.0033734)
(0.23001 -0.00068663 0.0054607)
(0.22885 -0.00051728 0.0041191)
(0.23571 -0.00063261 0.0004792)
(0.23512 -0.00063984 0.0021689)
(0.23389 -0.00022755 0.0014859)
(0.23364 -0.00024868 -0.0022343)
(0.23546 -0.000513 -0.0010949)
(0.23427 -5.5074e-05 -0.0011696)
(0.22778 0.00027409 -0.0045014)
(0.23139 -9.7889e-05 -0.0038649)
(0.2304 0.00014876 -0.0032925)
(0.21874 0.00072295 -0.0063289)
(0.22384 0.00013762 -0.0061768)
(0.22303 0.00037472 -0.0050602)
(0.20702 0.0010744 -0.0076329)
(0.21339 0.00037257 -0.0079875)
(0.21278 0.00056282 -0.0064446)
(0.19336 0.0012392 -0.0079741)
(0.20051 0.00055378 -0.0091061)
(0.20025 0.00068934 -0.0072773)
(0.17988 0.0010173 -0.006448)
(0.18666 0.00059163 -0.0087606)
(0.18696 0.00068494 -0.0069554)
(0.17083 0.00026813 -0.0026367)
(0.17577 0.00035191 -0.005673)
(0.17667 0.00042801 -0.0045262)
(0.17017 -0.00015319 -0.00016417)
(0.17147 -8.7205e-05 -0.0002713)
(0.21436 3.0274e-06 0.011737)
(0.20595 0.00080997 0.015211)
(0.20529 0.001137 0.011891)
(0.22693 3.3345e-06 0.0082486)
(0.22091 0.00039063 0.011545)
(0.22005 0.0008948 0.0089422)
(0.23422 3.668e-06 0.0046562)
(0.23088 -0.00014845 0.0071782)
(0.23001 0.00069372 0.0054602)
(0.2371 4.0162e-06 0.0011206)
(0.23599 -0.00069498 0.0031129)
(0.23512 0.00064799 0.0021681)
(0.2347 4.4718e-06 -0.0023579)
(0.23634 -0.0011373 -0.0012174)
(0.23546 0.00052184 -0.0010954)
(0.22865 4.2219e-06 -0.0053012)
(0.23215 -0.0011097 -0.0047279)
(0.23138 0.00010755 -0.0038657)
(0.21945 2.8907e-06 -0.0076195)
(0.22446 -0.0013292 -0.007554)
(0.22384 -0.00013014 -0.0061775)
(0.2075 1.118e-06 -0.0093118)
(0.21382 -0.0014821 -0.009821)
(0.21338 -0.00036822 -0.0079887)
(0.19337 -2.7648e-07 -0.0097981)
(0.20056 -0.0015845 -0.011308)
(0.20051 -0.00055291 -0.0091071)
(0.1792 -9.0303e-07 -0.0079045)
(0.18613 -0.0015243 -0.010978)
(0.18666 -0.00059276 -0.0087614)
(0.16955 -1.1216e-06 -0.0031153)
(0.1747 -0.0010917 -0.0071621)
(0.17577 -0.00035378 -0.0056736)
(0.16874 -0.0003793 -0.00022047)
(0.17017 0.00015162 -0.00016469)
(0.21498 -0.0004025 0.013421)
(0.2057 0.0020661 0.013975)
(0.20777 0.00040926 0.018525)
(0.22761 -0.0015875 0.0086488)
(0.2206 0.00069013 0.0099533)
(0.22312 -0.00031835 0.013948)
(0.23466 -0.0024727 0.004009)
(0.23046 -0.00066047 0.0053398)
(0.233 -0.00091113 0.0084834)
(0.23753 -0.0025884 2.384e-05)
(0.23543 -0.001443 0.0013665)
(0.23771 -0.00073388 0.0038014)
(0.23535 -0.0023279 -0.0036619)
(0.23584 -0.0014092 -0.0023181)
(0.2379 -0.00080219 -0.0010769)
(0.22913 -0.002361 -0.0068967)
(0.23181 -0.0019746 -0.0053514)
(0.23369 -0.0010884 -0.0054414)
(0.21986 -0.0026481 -0.0095878)
(0.22417 -0.0025343 -0.0079608)
(0.22592 -0.0015052 -0.0087859)
(0.20769 -0.0030266 -0.011775)
(0.21356 -0.0031436 -0.010218)
(0.21515 -0.0019143 -0.011657)
(0.19304 -0.0032736 -0.012652)
(0.2003 -0.0036817 -0.011822)
(0.20147 -0.0022195 -0.013802)
(0.17817 -0.0029556 -0.010568)
(0.18588 -0.003777 -0.011628)
(0.18614 -0.0021514 -0.013743)
(0.16796 -0.0018177 -0.0045965)
(0.17455 -0.002808 -0.007866)
(0.17346 -0.0014537 -0.0091913)
(0.16869 -0.00076701 -0.00074641)
(0.16633 -0.00023922 -0.00032266)
(0.21384 -0.010778 -0.0028862)
(0.20505 -0.011909 -0.0034036)
(0.20499 -0.010931 -0.0048814)
(0.20664 -0.01488 -0.0050788)
(0.22624 -0.0069687 -0.001286)
(0.21974 -0.0089689 -0.0024615)
(0.21968 -0.0077698 -0.0030068)
(0.22168 -0.011074 -0.0035419)
(0.23327 -0.0031534 9.9643e-05)
(0.22959 -0.0055001 -0.0014333)
(0.22945 -0.0041817 -0.00098913)
(0.2315 -0.0066013 -0.0018821)
(0.23587 0.00032963 0.0009289)
(0.23456 -0.0022165 -0.00059599)
(0.23432 -0.0010751 0.00054541)
(0.23624 -0.0025775 -0.00065189)
(0.23395 0.0035114 0.0015734)
(0.23495 0.0013056 0.00012346)
(0.23475 0.0017104 0.0015724)
(0.23651 0.0014478 0.00041566)
(0.22803 0.0062124 0.0023698)
(0.23104 0.0041722 0.00092652)
(0.23091 0.0042454 0.0026483)
(0.23252 0.0051474 0.0018653)
(0.21893 0.0084597 0.0031783)
(0.22355 0.0064251 0.001595)
(0.22342 0.0063859 0.0036559)
(0.22492 0.0079785 0.0030024)
(0.20699 0.010187 0.003891)
(0.21312 0.0082487 0.0021881)
(0.21296 0.0081874 0.0046064)
(0.2143 0.01036 0.0039852)
(0.19288 0.010758 0.0042338)
(0.20024 0.0094371 0.002643)
(0.19997 0.0094229 0.005328)
(0.20096 0.012052 0.0046922)
(0.17876 0.0088889 0.0036561)
(0.1864 0.0091127 0.0026498)
(0.18599 0.0092254 0.0053198)
(0.18627 0.011843 0.0046367)
(0.16917 0.0039483 0.0017948)
(0.17562 0.005966 0.0017632)
(0.17513 0.0062261 0.0037529)
(0.17438 0.0078974 0.0030954)
(0.17011 0.00036552 3.7073e-05)
(0.1696 0.00062936 0.00066871)
(0.16789 0.00051061 0.00014334)
(0.21338 -0.009121 -0.0019984)
(0.20447 -0.009092 -0.0011616)
(0.20468 -0.0089778 -0.0035062)
(0.22575 -0.0063113 -0.0014188)
(0.21898 -0.006812 -0.00085495)
(0.21924 -0.0067387 -0.0025814)
(0.23301 -0.0033661 -0.00093145)
(0.22884 -0.004113 -0.00051777)
(0.22911 -0.0041424 -0.0015766)
(0.2357 -0.00047094 -0.00063124)
(0.23388 -0.0014786 -0.00022729)
(0.23417 -0.0017252 -0.00076101)
(0.23364 0.002243 -0.00024604)
(0.23427 0.0011774 -5.4157e-05)
(0.23457 0.00060932 -3.0087e-05)
(0.22777 0.0045107 0.00027824)
(0.23039 0.003301 0.00015118)
(0.23068 0.002797 0.00081775)
(0.21873 0.006338 0.00072918)
(0.22302 0.0050694 0.00037879)
(0.22324 0.0045643 0.0015497)
(0.20701 0.0076408 0.0010826)
(0.21277 0.0064525 0.00056926)
(0.21293 0.0059578 0.0021625)
(0.19335 0.0079801 0.001248)
(0.20024 0.0072839 0.0006972)
(0.2003 0.006824 0.0025707)
(0.17987 0.0064517 0.0010248)
(0.18695 0.0069598 0.00069256)
(0.18685 0.006573 0.0025413)
(0.17083 0.0026385 0.00027263)
(0.17666 0.0045286 0.0004336)
(0.17641 0.0042456 0.0016519)
(0.17147 0.00027211 -8.4708e-05)
(0.17111 8.0193e-05 -4.4887e-05)
(0.2124 -0.0067645 1.3594e-06)
(0.20383 -0.0063888 0.0012229)
(0.20383 -0.0063889 -0.0012212)
(0.22461 -0.0046583 2.4748e-06)
(0.21817 -0.0047869 0.00090272)
(0.21817 -0.004787 -0.00089886)
(0.23189 -0.0024091 3.7129e-06)
(0.22797 -0.0029061 0.00053377)
(0.22796 -0.0029062 -0.00052756)
(0.23452 -0.00017647 4.8008e-06)
(0.233 -0.0010742 0.00018433)
(0.23299 -0.0010743 -0.0001755)
(0.23256 0.0018972 6.0004e-06)
(0.23341 0.00073285 -0.00021707)
(0.23341 0.00073248 0.00022797)
(0.22686 0.0036146 7.34e-06)
(0.22965 0.0022723 -0.00058858)
(0.22965 0.0022721 0.00060246)
(0.21798 0.0049728 8.1459e-06)
(0.22239 0.0035386 -0.00084198)
(0.22239 0.0035386 0.00085783)
(0.20649 0.0059197 8.2375e-06)
(0.21228 0.0045158 -0.0010432)
(0.21228 0.0045159 0.0010599)
(0.19329 0.0061282 7.454e-06)
(0.2 0.0050938 -0.001173)
(0.2 0.0050942 0.0011888)
(0.18045 0.0049356 5.6607e-06)
(0.1871 0.0048496 -0.0011217)
(0.1871 0.0048499 0.001135)
(0.17195 0.0020785 3.2405e-06)
(0.17723 0.0031388 -0.00075238)
(0.17723 0.0031393 0.00076093)
(0.17232 0.00017396 -0.00012086)
(0.17232 0.00017423 0.0001243)
(0.21187 -0.0044009 0.0021359)
(0.2036 -0.0037445 0.0037471)
(0.20335 -0.0037734 0.0012296)
(0.224 -0.0030181 0.0014517)
(0.21788 -0.0027881 0.0027924)
(0.21757 -0.0028212 0.00091546)
(0.23127 -0.0015522 0.0007339)
(0.22766 -0.0016758 0.001682)
(0.22732 -0.0017095 0.00055145)
(0.23392 -0.00011376 1.3548e-05)
(0.23269 -0.00060277 0.00061076)
(0.23235 -0.0006269 0.00019828)
(0.23205 0.0012188 -0.00070135)
(0.23313 0.00048451 -0.00047511)
(0.23281 0.00041032 -0.00014671)
(0.2264 0.0023216 -0.0013133)
(0.2294 0.001446 -0.0014354)
(0.22912 0.0012723 -0.00045934)
(0.21757 0.0031921 -0.0017836)
(0.22217 0.0021999 -0.0021893)
(0.22192 0.001989 -0.00073239)
(0.20618 0.003807 -0.002108)
(0.2121 0.0027863 -0.0027765)
(0.21189 0.0025521 -0.00093382)
(0.19317 0.0039456 -0.0021713)
(0.1999 0.0031378 -0.0031298)
(0.19977 0.0028843 -0.0010469)
(0.18063 0.0031743 -0.0017531)
(0.18712 0.0029867 -0.002981)
(0.18712 0.0027458 -0.00098855)
(0.17241 0.001317 -0.00078328)
(0.17738 0.0019483 -0.0019449)
(0.17753 0.0017604 -0.00063904)
(0.17256 0.00015974 -0.00015852)
(0.1728 3.9114e-05 -5.5035e-05)
(0.21187 -0.0021324 0.0044044)
(0.20383 -0.0012202 0.0063915)
(0.20335 -0.0012271 0.0037761)
(0.224 -0.0014464 0.0030233)
(0.21817 -0.0008983 0.0047914)
(0.21757 -0.00091111 0.0028256)
(0.23127 -0.00072666 0.0015592)
(0.22796 -0.00052741 0.0029122)
(0.22732 -0.00054508 0.0017157)
(0.23391 -4.5394e-06 0.0001221)
(0.23299 -0.00017592 0.0010817)
(0.23235 -0.00018975 0.00063488)
(0.23205 0.00071176 -0.0012094)
(0.23341 0.00022724 -0.00072441)
(0.23281 0.00015705 -0.00040097)
(0.2264 0.0013244 -0.0023117)
(0.22965 0.00060035 -0.0022629)
(0.22912 0.00047101 -0.001262)
(0.21757 0.0017943 -0.0031825)
(0.22239 0.00085372 -0.0035291)
(0.22192 0.0007443 -0.0019785)
(0.20618 0.0021175 -0.0037985)
(0.21228 0.0010539 -0.0045075)
(0.21189 0.00094482 -0.0025424)
(0.19317 0.0021786 -0.0039391)
(0.2 0.0011817 -0.0050872)
(0.19977 0.0010561 -0.0028763)
(0.18063 0.001758 -0.0031702)
(0.1871 0.0011282 -0.0048447)
(0.18712 0.00099511 -0.0027401)
(0.17241 0.00078569 -0.001315)
(0.17723 0.00075618 -0.003136)
(0.17753 0.00064284 -0.0017572)
(0.17232 0.00012218 -0.00017295)
(0.17281 5.6352e-05 -3.7924e-05)
(0.2124 2.2175e-06 0.0067681)
(0.20447 0.0011643 0.009095)
(0.20382 0.0012236 0.0063918)
(0.22461 2.9262e-06 0.0046635)
(0.21898 0.00085931 0.0068166)
(0.21816 0.00090313 0.0047915)
(0.23189 3.7637e-06 0.0024156)
(0.22884 0.00052416 0.0041188)
(0.22796 0.00053405 0.0029121)
(0.23452 4.488e-06 0.00018375)
(0.23388 0.00023607 0.0014854)
(0.23299 0.0001845 0.0010816)
(0.23256 4.909e-06 -0.0018893)
(0.23426 6.4996e-05 -0.0011698)
(0.23341 -0.00021734 -0.00072476)
(0.22686 4.7093e-06 -0.0036059)
(0.23039 -0.00013867 -0.0032932)
(0.22965 -0.0005897 -0.0022633)
(0.21798 3.6052e-06 -0.0049644)
(0.22302 -0.00036638 -0.0050614)
(0.22239 -0.00084466 -0.0035294)
(0.20649 1.9311e-06 -0.0059129)
(0.21277 -0.00055782 -0.0064457)
(0.21228 -0.0010479 -0.0045079)
(0.19329 4.29e-07 -0.0061229)
(0.20025 -0.00068746 -0.0072783)
(0.2 -0.0011789 -0.0050877)
(0.18045 -3.933e-07 -0.0049321)
(0.18695 -0.00068535 -0.0069561)
(0.1871 -0.0011278 -0.0048452)
(0.17196 -6.4234e-07 -0.0020768)
(0.17667 -0.0004293 -0.0045267)
(0.17723 -0.00075664 -0.0031364)
(0.17147 8.6169e-05 -0.00027135)
(0.17232 -0.00012287 -0.00017327)
(0.21337 0.0020018 0.0091251)
(0.20505 0.0034059 0.011912)
(0.20468 0.0035085 0.008981)
(0.22574 0.0014242 0.0063167)
(0.21974 0.0024656 0.0089741)
(0.21924 0.0025855 0.0067434)
(0.23301 0.00093933 0.0033725)
(0.22959 0.0014395 0.0055058)
(0.22911 0.0015832 0.0041482)
(0.2357 0.00064155 0.00047799)
(0.23456 0.00060522 0.0022228)
(0.23417 0.0007707 0.001732)
(0.23363 0.00025843 -0.0022357)
(0.23495 -0.00011243 -0.0013004)
(0.23457 4.225e-05 -0.00060136)
(0.22777 -0.00026502 -0.0045032)
(0.23103 -0.00091333 -0.0041657)
(0.23067 -0.00080359 -0.0027895)
(0.21873 -0.00071662 -0.006331)
(0.22355 -0.0015815 -0.0064186)
(0.22324 -0.0015352 -0.0045571)
(0.20701 -0.0010714 -0.007635)
(0.21312 -0.0021753 -0.0082432)
(0.21293 -0.0021495 -0.005951)
(0.19335 -0.0012388 -0.007976)
(0.20024 -0.0026326 -0.0094333)
(0.2003 -0.0025596 -0.0068189)
(0.17987 -0.0010185 -0.0064495)
(0.18641 -0.0026421 -0.0091096)
(0.18686 -0.0025332 -0.0065695)
(0.17083 -0.00026954 -0.0026376)
(0.17563 -0.0017587 -0.0059646)
(0.17642 -0.0016471 -0.004244)
(0.17012 -3.573e-05 -0.00036514)
(0.17111 4.6581e-05 -7.9687e-05)
(0.21383 0.0028884 0.010782)
(0.20499 0.004883 0.010934)
(0.20663 0.0050807 0.014883)
(0.22624 0.0012901 0.0069735)